/*--------------------------------*- C++ -*----------------------------------*\
| =========                 |                                                 |
| \\      /  F ield         | OpenFOAM: The Open Source CFD Toolbox           |
|  \\    /   O peration     | Version:  3.0.1                                 |
|   \\  /    A nd           | Web:      www.OpenFOAM.org                      |
|    \\/     M anipulation  |                                                 |
\*---------------------------------------------------------------------------*/
FoamFile
{
    version     2.0;
    format      ascii;
    class       volScalarField;
    location    "81.2";
    object      p;
}
// * * * * * * * * * * * * * * * * * * * * * * * * * * * * * * * * * * * * * //

dimensions      [1 -1 -2 0 0 0 0];

internalField   nonuniform List<scalar> 
21420
(
3795.7
3825.01
3855.85
3887.51
3913.74
3947.84
3982.7
4017.5
4051.82
4085.3
4117.5
4148.02
4176.46
4202.4
4225.43
4245.18
4261.32
4273.6
4281.86
4285.9
4285.64
4281.18
4272.64
4260.07
4243.71
4223.81
4200.67
4174.64
4146.13
4115.54
4083.3
4049.88
4015.71
3981.21
3946.74
3913.15
3880.36
3848.19
3817.06
3787.24
3758.89
3732.17
3707.15
3683.9
3662.45
3642.79
3624.93
3608.82
3594.45
3581.79
3570.79
3561.41
3553.63
3547.43
3542.77
3539.64
3538.06
3538.04
3539.49
3542.53
3547.13
3553.31
3561.13
3570.6
3581.75
3594.63
3609.25
3625.62
3643.77
3663.67
3685.32
3708.67
3733.64
3760.16
3788.1
3817.33
3847.69
3879
3911.65
3944.3
3977.15
4009.96
4042.42
4074.19
4104.93
4134.27
4161.83
4187.23
4210.12
4230.14
4247
4260.43
4270.22
4276.21
4278.22
4276.31
4270.38
4260.55
4246.86
4229.5
4208.69
4184.69
4157.83
4128.47
4097.02
4063.9
4029.57
3994.5
3959.14
3923.93
3889.3
3855.59
3823.13
3792.18
3762.94
3735.57
3710.17
3686.79
3665.47
3646.18
3628.89
3613.57
3600.13
3588.53
3578.67
3570.5
3563.93
3558.89
3555.28
3553.08
3552.22
3552.63
3554.26
3557.1
3561.12
3566.35
3572.78
3580.46
3589.42
3599.71
3611.38
3624.51
3639.14
3655.33
3673.12
3692.55
3713.63
3736.37
3760.73
3786.67
3814.11
3842.92
3872.96
3904.05
3935.92
3968.3
4000.86
4033.27
4065.15
4096.09
4125.68
4153.51
4179.16
4202.23
4222.35
4239.17
4252.4
4261.79
4267.17
4268.33
4265.38
4258.3
4247.16
4232.17
4213.56
4191.66
4166.82
4139.44
4109.95
4078.78
4046.37
4013.17
3979.6
3946.03
3912.99
3880.53
3849.1
3818.9
3790.13
3762.93
3737.41
3713.65
3691.67
3671.5
3653.12
3636.49
3621.59
3608.36
3596.74
3586.68
3578.12
3571.01
3565.29
3560.91
3557.81
3555.98
3555.39
3556.03
3557.89
3560.99
3565.33
3570.94
3577.82
3586
3595.49
3606.32
3618.52
3632.13
3647.17
3663.67
3681.68
3701.19
3722.23
3744.77
3768.79
3794.23
3821
3849
3878.06
3908.02
3938.65
3969.67
4000.8
4031.73
4062.09
4091.52
4119.62
4145.98
4170.22
4191.93
4210.76
4226.38
4238.49
4246.86
4251.27
4251.59
4247.8
4239.94
4228.05
4212.33
4193.03
4170.48
4145.02
4117.09
4087.13
4055.61
4022.99
3989.74
3956.31
3923.12
3890.52
3858.86
3828.4
3799.37
3771.93
3746.22
3722.28
3700.18
3679.9
3661.45
3644.78
3629.85
3616.59
3604.95
3594.87
3586.26
3579.04
3573.16
3568.58
3565.19
3562.87
3561.65
3561.46
3562.29
3564.11
3566.9
3570.7
3575.5
3581.36
3588.31
3596.39
3605.66
3616.16
3627.99
3641.23
3655.97
3672.29
3690.28
3710
3731.47
3754.73
3779.71
3806.37
3834.58
3863.42
3893.75
3924.91
3956.5
3988.14
4019.41
4049.86
4079.09
4106.67
4132.18
4155.27
4175.59
4192.83
4206.77
4217.2
4224
4226.99
4225.49
4220.18
4211.31
4199
4183.5
4165.12
4144.18
4121.01
4095.97
4069.44
4041.77
4013.29
3984.35
3955.24
3926.26
3897.65
3869.61
3842.7
3816.43
3790.87
3766.26
3742.71
3720.33
3699.18
3679.32
3660.81
3643.68
3627.96
3613.68
3600.86
3589.53
3579.68
3571.35
3564.54
3559.24
3555.46
3697.51
3726.83
3757.68
3789.37
3815.57
3849.7
3884.58
3919.39
3953.73
3987.22
4019.44
4049.98
4078.44
4104.4
4127.45
4147.21
4163.36
4175.66
4183.92
4187.97
4187.7
4183.24
4174.69
4162.11
4145.73
4125.82
4102.67
4076.62
4048.09
4017.48
3985.22
3951.79
3917.6
3883.08
3848.6
3815
3782.2
3750.02
3718.89
3689.06
3660.71
3633.99
3608.97
3585.72
3564.27
3544.61
3526.75
3510.65
3496.28
3483.62
3472.62
3463.25
3455.47
3449.26
3444.61
3441.47
3439.9
3439.88
3441.33
3444.37
3448.96
3455.14
3462.96
3472.43
3483.58
3496.46
3511.07
3527.45
3545.59
3565.5
3587.14
3610.49
3635.47
3661.99
3689.93
3719.17
3749.53
3780.85
3813.5
3846.16
3879.03
3911.85
3944.32
3976.11
4006.86
4036.22
4063.79
4089.21
4112.12
4132.16
4149.03
4162.47
4172.27
4178.26
4180.28
4178.36
4172.43
4162.59
4148.89
4131.52
4110.7
4086.68
4059.8
4030.42
3998.95
3965.81
3931.46
3896.37
3861
3825.78
3791.13
3757.41
3724.94
3693.98
3664.74
3637.37
3611.97
3588.6
3567.27
3547.99
3530.71
3515.38
3501.95
3490.35
3480.5
3472.33
3465.76
3460.72
3457.12
3454.92
3454.07
3454.47
3456.1
3458.94
3462.97
3468.19
3474.63
3482.3
3491.26
3501.54
3513.22
3526.34
3540.97
3557.15
3574.94
3594.37
3615.45
3638.19
3662.55
3688.49
3715.93
3744.75
3774.8
3805.89
3837.77
3870.16
3902.74
3935.17
3967.06
3998.02
4027.63
4055.47
4081.14
4104.23
4124.37
4141.2
4154.45
4163.84
4169.23
4170.39
4167.44
4160.35
4149.2
4134.2
4115.58
4093.66
4068.8
4041.4
4011.89
3980.7
3948.27
3915.06
3881.47
3847.9
3814.83
3782.37
3750.92
3720.72
3691.94
3664.74
3639.23
3615.46
3593.49
3573.32
3554.94
3538.32
3523.42
3510.19
3498.58
3488.52
3479.96
3472.86
3467.14
3462.75
3459.66
3457.82
3457.24
3457.88
3459.74
3462.83
3467.18
3472.78
3479.67
3487.84
3497.33
3508.16
3520.36
3533.96
3549
3565.5
3583.51
3603.02
3624.06
3646.6
3670.62
3696.06
3722.84
3750.83
3779.9
3809.87
3840.51
3871.54
3902.69
3933.63
3964.01
3993.45
4021.56
4047.95
4072.2
4093.93
4112.78
4128.41
4140.54
4148.91
4153.33
4153.64
4149.85
4141.99
4130.09
4114.36
4095.05
4072.47
4047
4019.05
3989.07
3957.52
3924.89
3891.62
3858.18
3824.97
3792.36
3760.69
3730.22
3701.19
3673.75
3648.03
3624.1
3602
3581.73
3563.27
3546.61
3531.68
3518.42
3506.79
3496.71
3488.1
3480.89
3475.01
3470.43
3467.04
3464.73
3463.51
3463.32
3464.15
3465.97
3468.76
3472.56
3477.36
3483.22
3490.16
3498.24
3507.51
3518.01
3529.83
3543.07
3557.8
3574.12
3592.11
3611.82
3633.29
3656.55
3681.53
3708.19
3736.4
3765.27
3795.6
3826.77
3858.37
3890.03
3921.32
3951.79
3981.04
4008.64
4034.16
4057.27
4077.6
4094.86
4108.8
4119.24
4126.04
4129.05
4127.53
4122.22
4113.34
4101.02
4085.51
4067.11
4046.16
4022.97
3997.92
3971.37
3943.68
3915.19
3886.24
3857.12
3828.13
3799.51
3771.46
3744.55
3718.28
3692.72
3668.1
3644.55
3622.17
3601.02
3581.16
3562.65
3545.52
3529.8
3515.52
3502.7
3491.36
3481.52
3473.19
3466.38
3461.08
3457.3
3599.23
3628.56
3659.44
3691.19
3717.32
3751.51
3786.43
3821.28
3855.64
3889.17
3921.43
3952
3980.5
4006.5
4029.58
4049.38
4065.56
4077.87
4086.14
4090.22
4089.93
4085.46
4076.9
4064.3
4047.89
4027.95
4004.76
3978.67
3950.1
3919.45
3887.16
3853.69
3819.47
3784.92
3750.41
3716.79
3683.97
3651.78
3620.64
3590.8
3562.45
3535.72
3510.7
3487.46
3466.01
3446.36
3428.5
3412.4
3398.04
3385.38
3374.39
3365.02
3357.25
3351.04
3346.38
3343.25
3341.69
3341.65
3343.11
3346.14
3350.74
3356.92
3364.73
3374.19
3385.34
3398.21
3412.82
3429.19
3447.34
3467.24
3488.89
3512.24
3537.22
3563.74
3591.69
3620.94
3651.32
3682.65
3715.31
3747.99
3780.88
3813.73
3846.22
3878.04
3908.83
3938.21
3965.82
3991.28
4014.21
4034.28
4051.18
4064.65
4074.46
4080.46
4082.51
4080.55
4074.63
4064.78
4051.06
4033.67
4012.81
3988.77
3961.85
3932.43
3900.92
3867.74
3833.35
3798.23
3762.82
3727.57
3692.89
3659.16
3626.67
3595.7
3566.46
3539.08
3513.68
3490.31
3468.99
3449.71
3432.44
3417.12
3403.7
3392.1
3382.26
3374.1
3367.53
3362.5
3358.91
3356.71
3355.86
3356.27
3357.9
3360.74
3364.77
3369.99
3376.42
3384.09
3393.04
3403.33
3414.99
3428.11
3442.73
3458.91
3476.69
3496.12
3517.19
3539.93
3564.29
3590.24
3617.68
3646.51
3676.57
3707.68
3739.58
3771.99
3804.6
3837.06
3868.98
3899.97
3929.62
3957.5
3983.21
4006.33
4026.5
4043.37
4056.64
4066.05
4071.44
4072.63
4069.65
4062.56
4051.39
4036.36
4017.71
3995.76
3970.86
3943.42
3913.87
3882.64
3850.18
3816.93
3783.31
3749.72
3716.61
3684.14
3652.68
3622.46
3593.68
3566.48
3540.96
3517.2
3495.23
3475.06
3456.68
3440.07
3425.18
3411.96
3400.35
3390.29
3381.74
3374.64
3368.93
3364.55
3361.45
3359.62
3359.04
3359.68
3361.54
3364.63
3368.97
3374.58
3381.46
3389.63
3399.12
3409.94
3422.14
3435.74
3450.77
3467.27
3485.27
3504.78
3525.81
3548.36
3572.38
3597.82
3624.61
3652.61
3681.69
3711.67
3742.33
3773.38
3804.56
3835.52
3865.93
3895.41
3923.56
3949.98
3974.27
3996.04
4014.92
4030.58
4042.72
4051.11
4055.55
4055.86
4052.07
4044.19
4032.27
4016.52
3997.18
3974.56
3949.05
3921.06
3891.04
3859.46
3826.78
3793.48
3760.01
3726.77
3694.14
3662.45
3631.97
3602.93
3575.49
3549.77
3525.84
3503.74
3483.47
3465.02
3448.36
3433.44
3420.19
3408.56
3398.49
3389.89
3382.68
3376.81
3372.24
3368.85
3366.55
3365.33
3365.15
3365.97
3367.79
3370.59
3374.38
3379.18
3385.03
3391.97
3400.05
3409.3
3419.8
3431.61
3444.84
3459.57
3475.88
3493.86
3513.56
3535.03
3558.28
3583.27
3609.94
3638.15
3667.05
3697.39
3728.59
3760.22
3791.91
3823.23
3853.74
3883.02
3910.66
3936.22
3959.36
3979.72
3997
4010.97
4021.42
4028.23
4031.28
4029.72
4024.4
4015.5
4003.15
3987.62
3969.19
3948.2
3924.99
3899.9
3873.32
3845.61
3817.09
3788.11
3758.97
3729.96
3701.33
3673.28
3646.35
3620.07
3594.51
3569.89
3546.34
3523.95
3502.8
3482.94
3464.43
3447.3
3431.58
3417.3
3404.48
3393.14
3383.3
3374.97
3368.16
3362.86
3359.08
3500.86
3530.21
3561.13
3592.97
3619
3653.28
3688.25
3723.15
3757.56
3791.13
3823.45
3854.08
3882.64
3908.69
3931.83
3951.68
3967.89
3980.24
3988.53
3992.62
3992.33
3987.84
3979.26
3966.62
3950.18
3930.18
3906.95
3880.8
3852.18
3821.47
3789.12
3755.6
3721.33
3686.73
3652.18
3618.54
3585.68
3553.47
3522.31
3492.46
3464.11
3437.37
3412.36
3389.11
3367.67
3348.02
3330.17
3314.08
3299.73
3287.08
3276.09
3266.72
3258.96
3252.76
3248.1
3244.97
3243.41
3243.37
3244.83
3247.86
3252.45
3258.62
3266.43
3275.89
3287.03
3299.89
3314.5
3330.87
3349.01
3368.91
3390.56
3413.91
3438.89
3465.42
3493.39
3522.65
3553.04
3584.4
3617.08
3649.78
3682.71
3715.59
3748.13
3779.99
3810.82
3840.26
3867.91
3893.42
3916.4
3936.52
3953.46
3966.96
3976.8
3982.82
3984.89
3982.91
3976.99
3967.11
3953.37
3935.94
3915.04
3890.94
3863.98
3834.5
3802.93
3769.69
3735.24
3700.06
3664.6
3629.31
3594.6
3560.83
3528.32
3497.34
3468.08
3440.7
3415.3
3391.93
3370.62
3351.35
3334.08
3318.78
3305.37
3293.78
3283.95
3275.8
3269.25
3264.22
3260.64
3258.45
3257.61
3258.02
3259.66
3262.5
3266.52
3271.74
3278.17
3285.83
3294.78
3305.05
3316.71
3329.81
3344.42
3360.6
3378.37
3397.79
3418.86
3441.6
3465.96
3491.91
3519.37
3548.21
3578.29
3609.42
3641.35
3673.79
3706.44
3738.94
3770.92
3801.96
3831.67
3859.6
3885.36
3908.54
3928.76
3945.67
3958.98
3968.42
3973.82
3975.02
3972.03
3964.92
3953.72
3938.66
3919.96
3897.96
3873
3845.5
3815.89
3784.6
3752.09
3718.79
3685.13
3651.5
3618.34
3585.85
3554.37
3524.13
3495.34
3468.13
3442.61
3418.85
3396.88
3376.72
3358.35
3341.75
3326.86
3313.65
3302.05
3292.01
3283.47
3276.37
3270.66
3266.29
3263.2
3261.37
3260.79
3261.43
3263.29
3266.38
3270.72
3276.32
3283.2
3291.37
3300.85
3311.67
3323.86
3337.45
3352.48
3368.97
3386.96
3406.47
3427.5
3450.04
3474.07
3499.52
3526.31
3554.33
3583.43
3613.43
3644.11
3675.2
3706.41
3737.42
3767.88
3797.41
3825.61
3852.08
3876.43
3898.24
3917.17
3932.87
3945.06
3953.47
3957.93
3958.25
3954.44
3946.55
3934.6
3918.81
3899.42
3876.76
3851.19
3823.13
3793.05
3761.4
3728.67
3695.32
3661.8
3628.52
3595.86
3564.14
3533.65
3504.59
3477.14
3451.42
3427.49
3405.39
3385.13
3366.69
3350.05
3335.13
3321.89
3310.27
3300.21
3291.62
3284.42
3278.56
3274
3270.61
3268.32
3267.1
3266.93
3267.76
3269.57
3272.37
3276.15
3280.95
3286.8
3293.74
3301.8
3311.05
3321.53
3333.33
3346.55
3361.26
3377.56
3395.53
3415.23
3436.69
3459.94
3484.93
3511.6
3539.83
3568.78
3599.14
3630.37
3662.04
3693.78
3725.16
3755.71
3785.06
3812.75
3838.36
3861.55
3881.95
3899.27
3913.27
3923.75
3930.57
3933.65
3932.05
3926.72
3917.79
3905.41
3889.83
3871.36
3850.33
3827.06
3801.93
3775.31
3747.55
3718.99
3689.98
3660.8
3631.77
3603.12
3575.05
3548.11
3521.82
3496.25
3471.62
3448.06
3425.67
3404.52
3384.66
3366.15
3349.01
3333.29
3319.01
3306.19
3294.86
3285.02
3276.69
3269.87
3264.58
3260.79
3402.4
3431.78
3462.74
3494.7
3520.61
3555.01
3590.06
3625.01
3659.48
3693.12
3725.51
3756.22
3784.86
3810.99
3834.2
3854.11
3870.38
3882.76
3891.08
3895.18
3894.9
3890.39
3881.77
3869.09
3852.59
3832.54
3809.23
3783.01
3754.31
3723.53
3691.1
3657.5
3623.16
3588.52
3553.92
3520.22
3487.33
3455.1
3423.91
3394.05
3365.68
3338.94
3313.92
3290.69
3269.25
3249.61
3231.77
3215.69
3201.34
3188.7
3177.72
3168.36
3160.6
3154.41
3149.76
3146.64
3145.07
3145.03
3146.49
3149.51
3154.1
3160.26
3168.06
3177.51
3188.64
3201.5
3216.1
3232.46
3250.6
3270.49
3292.14
3315.5
3340.49
3367.03
3395.01
3424.29
3454.71
3486.1
3518.79
3551.54
3584.51
3617.44
3650.03
3681.95
3712.85
3742.35
3770.07
3795.65
3818.7
3838.87
3855.87
3869.41
3879.29
3885.33
3887.41
3885.43
3879.5
3869.59
3855.81
3838.34
3817.38
3793.22
3766.18
3736.63
3704.97
3671.65
3637.13
3601.88
3566.35
3531
3496.23
3462.42
3429.89
3398.88
3369.61
3342.23
3316.83
3293.46
3272.16
3252.9
3235.65
3220.36
3206.96
3195.39
3185.58
3177.44
3170.9
3165.89
3162.32
3160.14
3159.3
3159.72
3161.36
3164.2
3168.23
3173.44
3179.86
3187.52
3196.45
3206.72
3218.36
3231.46
3246.05
3262.22
3279.98
3299.39
3320.46
3343.19
3367.56
3393.51
3420.98
3449.83
3479.94
3511.1
3543.07
3575.56
3608.26
3640.83
3672.87
3703.98
3733.76
3761.77
3787.61
3810.86
3831.14
3848.11
3861.46
3870.94
3876.36
3877.58
3874.58
3867.44
3856.21
3841.09
3822.33
3800.25
3775.23
3747.65
3717.96
3686.59
3654.01
3620.64
3586.91
3553.24
3520.02
3487.49
3455.98
3425.73
3396.92
3369.7
3344.18
3320.42
3298.46
3278.3
3259.95
3243.35
3228.48
3215.28
3203.69
3193.66
3185.13
3178.04
3172.35
3167.98
3164.9
3163.08
3162.5
3163.13
3164.99
3168.08
3172.41
3178.01
3184.88
3193.05
3202.53
3213.34
3225.52
3239.1
3254.12
3270.61
3288.59
3308.09
3329.12
3351.66
3375.69
3401.15
3427.95
3455.99
3485.11
3515.14
3545.86
3576.99
3608.25
3639.32
3669.84
3699.44
3727.71
3754.26
3778.67
3800.56
3819.55
3835.3
3847.53
3855.98
3860.46
3860.8
3856.98
3849.06
3837.08
3821.24
3801.78
3779.05
3753.4
3725.26
3695.1
3663.37
3630.56
3597.14
3563.56
3530.23
3497.52
3465.77
3435.25
3406.17
3378.71
3352.99
3329.06
3306.97
3286.72
3268.29
3251.65
3236.75
3223.53
3211.92
3201.87
3193.3
3186.12
3180.27
3175.72
3172.33
3170.05
3168.84
3168.67
3169.5
3171.32
3174.11
3177.89
3182.68
3188.52
3195.45
3203.51
3212.74
3223.21
3235
3248.2
3262.89
3279.18
3297.13
3316.82
3338.27
3361.52
3386.51
3413.19
3441.43
3470.44
3500.84
3532.11
3563.83
3595.64
3627.08
3657.71
3687.13
3714.9
3740.58
3763.83
3784.29
3801.67
3815.71
3826.21
3833.05
3836.14
3834.54
3829.17
3820.2
3807.78
3792.15
3773.62
3752.52
3729.2
3704
3677.32
3649.5
3620.89
3591.83
3562.61
3533.54
3504.86
3476.78
3449.81
3423.52
3397.94
3373.3
3349.73
3327.33
3306.17
3286.32
3267.8
3250.67
3234.95
3220.67
3207.85
3196.51
3186.67
3178.34
3171.53
3166.24
3162.45
3303.85
3333.26
3364.27
3396.38
3422.15
3456.7
3491.83
3526.87
3561.41
3595.14
3627.62
3658.42
3687.16
3713.39
3736.68
3756.68
3773.01
3785.45
3793.79
3797.91
3797.63
3793.1
3784.43
3771.71
3755.14
3735
3711.61
3685.3
3656.5
3625.62
3593.1
3559.41
3524.99
3490.27
3455.6
3421.86
3388.92
3356.65
3325.44
3295.55
3267.17
3240.43
3215.41
3192.18
3170.75
3151.12
3133.29
3117.22
3102.89
3090.26
3079.29
3069.94
3062.19
3056
3051.36
3048.24
3046.67
3046.62
3048.08
3051.1
3055.68
3061.84
3069.63
3079.07
3090.19
3103.04
3117.63
3133.98
3152.11
3172
3193.65
3217.01
3242.01
3268.57
3296.57
3325.87
3356.32
3387.75
3420.46
3453.25
3486.29
3519.28
3551.94
3583.93
3614.91
3644.49
3672.3
3697.96
3721.09
3741.34
3758.4
3772
3781.92
3787.99
3790.09
3788.12
3782.16
3772.22
3758.4
3740.86
3719.83
3695.58
3668.45
3638.81
3607.05
3573.64
3539.02
3503.67
3468.06
3432.63
3397.81
3363.95
3331.37
3300.34
3271.05
3243.66
3218.26
3194.9
3173.61
3154.37
3137.13
3121.86
3108.48
3096.93
3087.13
3079.01
3072.49
3067.49
3063.94
3061.78
3060.94
3061.37
3063.02
3065.86
3069.89
3075.1
3081.51
3089.16
3098.08
3108.32
3119.96
3133.03
3147.62
3163.76
3181.52
3200.92
3221.98
3244.71
3269.07
3295.04
3322.51
3351.39
3381.53
3412.73
3444.75
3477.3
3510.07
3542.71
3574.83
3606.03
3635.9
3664.01
3689.94
3713.28
3733.65
3750.69
3764.1
3773.62
3779.07
3780.3
3777.29
3770.11
3758.84
3743.65
3724.82
3702.65
3677.53
3649.86
3620.06
3588.61
3555.93
3522.47
3488.67
3454.93
3421.65
3389.07
3357.53
3327.25
3298.42
3271.2
3245.67
3221.91
3199.95
3179.81
3161.47
3144.89
3130.03
3116.85
3105.27
3095.25
3086.74
3079.66
3073.98
3069.62
3066.55
3064.73
3064.15
3064.78
3066.64
3069.72
3074.06
3079.65
3086.52
3094.68
3104.15
3114.95
3127.12
3140.69
3155.7
3172.18
3190.15
3209.65
3230.67
3253.21
3277.24
3302.71
3329.53
3357.58
3386.74
3416.8
3447.57
3478.76
3510.08
3541.22
3571.82
3601.5
3629.86
3656.5
3681
3702.97
3722.04
3737.87
3750.16
3758.65
3763.16
3763.51
3759.69
3751.73
3739.7
3723.79
3704.26
3681.43
3655.69
3627.45
3597.18
3565.35
3532.45
3498.94
3465.28
3431.88
3399.12
3367.33
3336.77
3307.67
3280.2
3254.47
3230.55
3208.47
3188.23
3169.81
3153.19
3138.31
3125.1
3113.51
3103.48
3094.92
3087.76
3081.93
3077.38
3074.01
3071.74
3070.54
3070.37
3071.21
3073.02
3075.81
3079.59
3084.38
3090.21
3097.13
3105.17
3114.39
3124.84
3136.6
3149.78
3164.46
3180.72
3198.65
3218.32
3239.77
3263.02
3288.01
3314.7
3342.95
3372.05
3402.48
3433.81
3465.6
3497.49
3529.02
3559.74
3589.25
3617.11
3642.88
3666.21
3686.75
3704.19
3718.28
3728.82
3735.67
3738.77
3737.17
3731.77
3722.75
3710.27
3694.58
3675.97
3654.79
3631.39
3606.11
3579.35
3551.46
3522.79
3493.67
3464.4
3435.28
3406.56
3378.46
3351.47
3325.17
3299.57
3274.92
3251.34
3228.94
3207.77
3187.91
3169.4
3152.26
3136.54
3122.26
3109.44
3098.11
3088.27
3079.94
3073.13
3067.83
3064.05
3205.21
3234.65
3265.73
3298
3323.64
3358.35
3393.59
3428.71
3463.35
3497.17
3529.76
3560.68
3589.54
3615.88
3639.29
3659.38
3675.79
3688.29
3696.67
3700.8
3700.53
3695.97
3687.25
3674.46
3657.81
3637.59
3614.09
3587.66
3558.75
3527.76
3495.12
3461.32
3426.8
3391.99
3357.25
3323.44
3290.45
3258.13
3226.89
3196.98
3168.58
3141.83
3116.81
3093.59
3072.17
3052.55
3034.73
3018.68
3004.36
2991.75
2980.79
2971.45
2963.71
2957.53
2952.89
2949.78
2948.21
2948.16
2949.62
2952.63
2957.2
2963.35
2971.13
2980.56
2991.66
3004.5
3019.08
3035.42
3053.54
3073.44
3095.09
3118.45
3143.46
3170.03
3198.05
3227.38
3257.88
3289.35
3322.08
3354.94
3388.04
3421.11
3453.85
3485.93
3517
3546.68
3574.59
3600.35
3623.58
3643.92
3661.06
3674.73
3684.71
3690.81
3692.92
3690.96
3684.98
3675
3661.12
3643.5
3622.39
3598.05
3570.81
3541.04
3509.17
3475.64
3440.9
3405.44
3369.73
3334.21
3299.31
3265.39
3232.77
3201.7
3172.4
3145
3119.6
3096.25
3074.97
3055.75
3038.53
3023.28
3009.93
2998.4
2988.62
2980.52
2974.02
2969.04
2965.51
2963.36
2962.54
2962.98
2964.63
2967.47
2971.5
2976.7
2983.11
2990.74
2999.65
3009.88
3021.49
3034.55
3049.11
3065.24
3082.98
3102.37
3123.42
3146.14
3170.51
3196.49
3223.98
3252.89
3283.05
3314.3
3346.38
3379
3411.85
3444.58
3476.8
3508.12
3538.1
3566.32
3592.35
3615.8
3636.27
3653.4
3666.89
3676.47
3681.94
3683.19
3680.16
3672.95
3661.61
3646.35
3627.43
3605.16
3579.92
3552.12
3522.21
3490.64
3457.85
3424.3
3390.4
3356.58
3323.22
3290.59
3259
3228.69
3199.85
3172.6
3147.07
3123.32
3101.37
3081.24
3062.91
3046.35
3031.51
3018.35
3006.79
2996.79
2988.29
2981.23
2975.55
2971.21
2968.15
2966.34
2965.76
2966.39
2968.24
2971.32
2975.65
2981.24
2988.1
2996.25
3005.71
3016.51
3028.67
3042.23
3057.22
3073.68
3091.65
3111.13
3132.15
3154.69
3178.72
3204.2
3231.04
3259.12
3288.31
3318.42
3349.24
3380.49
3411.89
3443.12
3473.81
3503.59
3532.06
3558.81
3583.42
3605.49
3624.66
3640.57
3652.93
3661.48
3666.01
3666.38
3662.55
3654.56
3642.47
3626.49
3606.86
3583.92
3558.06
3529.69
3499.3
3467.35
3434.33
3400.72
3366.97
3333.49
3300.66
3268.81
3238.22
3209.09
3181.61
3155.88
3131.95
3109.88
3089.66
3071.26
3054.65
3039.79
3026.6
3015.04
3005.02
2996.49
2989.35
2983.54
2979
2975.64
2973.38
2972.2
2972.03
2972.87
2974.69
2977.47
2981.25
2986.03
2991.85
2998.75
3006.78
3015.98
3026.41
3038.15
3051.3
3065.95
3082.19
3100.1
3119.76
3141.19
3164.43
3189.43
3216.13
3244.4
3273.59
3304.07
3335.47
3367.34
3399.32
3430.96
3461.79
3491.41
3519.38
3545.26
3568.69
3589.32
3606.83
3620.98
3631.56
3638.45
3641.55
3639.94
3634.51
3625.43
3612.88
3597.11
3578.41
3557.14
3533.64
3508.27
3481.41
3453.44
3424.68
3395.49
3366.16
3336.98
3308.23
3280.1
3253.08
3226.76
3201.16
3176.49
3152.89
3130.48
3109.31
3089.45
3070.93
3053.79
3038.07
3023.79
3010.97
2999.64
2989.8
2981.47
2974.66
2969.37
2965.59
3106.47
3135.96
3167.11
3199.53
3225.09
3259.97
3295.32
3330.55
3365.29
3399.23
3431.94
3463
3491.99
3518.47
3542.01
3562.21
3578.72
3591.28
3599.71
3603.86
3603.59
3599.01
3590.23
3577.36
3560.62
3540.28
3516.66
3490.11
3461.06
3429.93
3397.16
3363.23
3328.59
3293.67
3258.86
3224.97
3191.91
3159.55
3128.26
3098.32
3069.91
3043.15
3018.13
2994.91
2973.5
2953.91
2936.1
2920.07
2905.77
2893.17
2882.22
2872.9
2865.17
2859
2854.37
2851.26
2849.69
2849.64
2851.09
2854.1
2858.66
2864.8
2872.57
2881.98
2893.07
2905.89
2920.45
2936.78
2954.9
2974.79
2996.44
3019.81
3044.83
3071.42
3099.47
3128.83
3159.37
3190.9
3223.66
3256.59
3289.77
3322.92
3355.76
3387.94
3419.12
3448.91
3476.94
3502.82
3526.17
3546.62
3563.86
3577.61
3587.64
3593.79
3595.92
3593.96
3587.95
3577.92
3563.98
3546.28
3525.06
3500.6
3473.24
3443.34
3411.33
3377.65
3342.78
3307.19
3271.36
3235.74
3200.75
3166.76
3134.08
3102.98
3073.65
3046.24
3020.84
2997.51
2976.25
2957.04
2939.85
2924.63
2911.3
2899.8
2890.05
2881.97
2875.49
2870.53
2867.02
2864.89
2864.08
2864.53
2866.19
2869.04
2873.06
2878.26
2884.65
2892.27
2901.16
2911.37
2922.96
2936
2950.55
2966.65
2984.38
3003.75
3024.79
3047.51
3071.88
3097.86
3125.37
3154.31
3184.52
3215.82
3247.97
3280.67
3313.62
3346.45
3378.79
3410.23
3440.34
3468.69
3494.86
3518.43
3539.02
3556.26
3569.83
3579.47
3584.98
3586.24
3583.2
3575.94
3564.54
3549.19
3530.15
3507.76
3482.39
3454.45
3424.41
3392.7
3359.78
3326.1
3292.1
3258.19
3224.74
3192.05
3160.41
3130.06
3101.19
3073.93
3048.39
3024.64
3002.71
2982.59
2964.28
2947.74
2932.92
2919.78
2908.24
2898.26
2889.78
2882.74
2877.08
2872.75
2869.7
2867.9
2867.32
2867.95
2869.79
2872.87
2877.19
2882.78
2889.63
2897.77
2907.22
2918
2930.15
2943.7
2958.67
2975.12
2993.07
3012.55
3033.56
3056.09
3080.13
3105.62
3132.48
3160.6
3189.82
3219.99
3250.88
3282.2
3313.69
3345.02
3375.82
3405.72
3434.31
3461.19
3485.92
3508.12
3527.4
3543.41
3555.85
3564.46
3569.03
3569.42
3565.58
3557.54
3545.39
3529.31
3509.57
3486.51
3460.5
3432
3401.46
3369.37
3336.21
3302.48
3268.62
3235.05
3202.14
3170.23
3139.59
3110.44
3082.93
3057.19
3033.28
3011.22
2991.01
2972.63
2956.04
2941.2
2928.04
2916.5
2906.51
2898
2890.88
2885.09
2880.58
2877.23
2874.99
2873.81
2873.66
2874.5
2876.31
2879.1
2882.87
2887.63
2893.44
2900.33
2908.34
2917.52
2927.92
2939.64
2952.76
2967.38
2983.59
3001.48
3021.11
3042.53
3065.76
3090.77
3117.48
3145.77
3175.07
3205.6
3237.08
3269.06
3301.15
3332.91
3363.86
3393.61
3421.71
3447.72
3471.27
3492
3509.6
3523.82
3534.46
3541.37
3544.48
3542.86
3537.39
3528.24
3515.61
3499.74
3480.94
3459.56
3435.95
3410.46
3383.5
3355.43
3326.58
3297.3
3267.9
3238.66
3209.84
3181.7
3154.65
3128.31
3102.68
3077.99
3054.39
3031.97
3010.79
2990.92
2972.4
2955.26
2939.54
2925.26
2912.44
2901.11
2891.27
2882.94
2876.13
2870.85
2867.07
3007.64
3037.18
3068.4
3100.96
3126.52
3161.55
3197.03
3232.37
3267.24
3301.3
3334.16
3365.37
3394.53
3421.17
3444.85
3465.18
3481.79
3494.44
3502.92
3507.1
3506.82
3502.21
3493.36
3480.4
3463.55
3443.09
3419.33
3392.62
3363.42
3332.14
3299.21
3265.14
3230.36
3195.32
3160.42
3126.43
3093.31
3060.89
3029.56
2999.58
2971.15
2944.38
2919.37
2896.16
2874.76
2855.18
2837.4
2821.38
2807.1
2794.52
2783.59
2774.28
2766.56
2760.4
2755.78
2752.68
2751.11
2751.05
2752.51
2755.51
2760.06
2766.19
2773.94
2783.33
2794.4
2807.21
2821.76
2838.07
2856.18
2876.06
2897.71
2921.09
2946.13
2972.74
3000.81
3030.22
3060.81
3092.4
3125.18
3158.2
3191.47
3224.73
3257.67
3289.97
3321.27
3351.2
3379.36
3405.38
3428.85
3449.43
3466.78
3480.62
3490.72
3496.92
3499.07
3497.12
3491.08
3481
3466.97
3449.18
3427.84
3403.25
3375.74
3345.69
3313.52
3279.68
3244.66
3208.92
3172.96
3137.22
3102.12
3068.05
3035.31
3004.16
2974.81
2947.39
2921.99
2898.67
2877.43
2858.25
2841.09
2825.89
2812.59
2801.12
2791.4
2783.35
2776.9
2771.97
2768.48
2766.37
2765.58
2766.04
2767.71
2770.56
2774.58
2779.77
2786.15
2793.75
2802.62
2812.81
2824.38
2837.39
2851.91
2868
2885.7
2905.05
2926.08
2948.79
2973.17
2999.16
3026.69
3055.66
3085.92
3117.28
3149.51
3182.31
3215.36
3248.32
3280.79
3312.37
3342.63
3371.13
3397.45
3421.17
3441.89
3459.25
3472.91
3482.63
3488.19
3489.46
3486.41
3479.1
3467.61
3452.16
3433
3410.46
3384.94
3356.85
3326.64
3294.78
3261.71
3227.9
3193.77
3159.75
3126.21
3093.44
3061.74
3031.35
3002.45
2975.18
2949.63
2925.89
2903.96
2883.86
2865.57
2849.05
2834.26
2821.14
2809.63
2799.67
2791.21
2784.19
2778.55
2774.24
2771.2
2769.4
2768.83
2769.46
2771.3
2774.37
2778.69
2784.26
2791.11
2799.24
2808.68
2819.45
2831.58
2845.1
2860.07
2876.5
2894.43
2913.89
2934.89
2957.43
2981.48
3006.98
3033.86
3062.01
3091.29
3121.51
3152.47
3183.89
3215.47
3246.91
3277.84
3307.88
3336.61
3363.63
3388.52
3410.85
3430.25
3446.38
3458.91
3467.6
3472.22
3472.63
3468.77
3460.69
3448.46
3432.27
3412.4
3389.19
3363.03
3334.36
3303.65
3271.4
3238.09
3204.22
3170.23
3136.55
3103.56
3071.58
3040.88
3011.7
2984.18
2958.43
2934.52
2912.47
2892.28
2873.92
2857.36
2842.54
2829.41
2817.9
2807.94
2799.45
2792.36
2786.6
2782.11
2778.78
2776.55
2775.39
2775.24
2776.09
2777.9
2780.68
2784.44
2789.2
2795
2801.87
2809.85
2819.01
2829.39
2841.07
2854.16
2868.74
2884.91
2902.77
2922.38
2943.79
2967.01
2992.02
3018.76
3047.08
3076.49
3107.08
3138.65
3170.74
3202.96
3234.86
3265.96
3295.86
3324.11
3350.26
3373.94
3394.79
3412.49
3426.8
3437.49
3444.44
3447.56
3445.92
3440.4
3431.18
3418.45
3402.48
3383.56
3362.05
3338.31
3312.7
3285.62
3257.43
3228.47
3199.1
3169.61
3140.29
3111.42
3083.24
3056.17
3029.81
3004.16
2979.44
2955.82
2933.39
2912.21
2892.34
2873.81
2856.67
2840.95
2826.67
2813.85
2802.52
2792.68
2784.35
2777.55
2772.26
2768.49
2908.73
2938.31
2969.61
3002.29
3027.92
3063.1
3098.72
3134.19
3169.19
3203.4
3236.42
3267.81
3297.14
3323.96
3347.81
3368.28
3385.02
3397.75
3406.29
3410.5
3410.22
3405.57
3396.65
3383.59
3366.62
3346.01
3322.09
3295.22
3265.84
3234.38
3201.29
3167.04
3132.11
3096.94
3061.93
3027.85
2994.65
2962.17
2930.78
2900.76
2872.31
2845.53
2820.52
2797.32
2775.94
2756.38
2738.61
2722.62
2708.36
2695.8
2684.89
2675.6
2667.9
2661.75
2657.14
2654.04
2652.47
2652.41
2653.86
2656.86
2661.39
2667.5
2675.24
2684.61
2695.66
2708.45
2722.98
2739.28
2757.38
2777.26
2798.91
2822.3
2847.35
2873.98
2902.09
2931.54
2962.18
2993.84
3026.66
3059.77
3093.15
3126.51
3159.57
3192.01
3223.45
3253.53
3281.85
3308.02
3331.64
3352.35
3369.83
3383.77
3393.96
3400.2
3402.39
3400.43
3394.36
3384.22
3370.11
3352.21
3330.74
3306
3278.32
3248.1
3215.75
3181.73
3146.53
3110.62
3074.51
3038.63
3003.43
2969.26
2936.45
2905.26
2875.87
2848.44
2823.05
2799.74
2778.52
2759.37
2742.24
2727.08
2713.81
2702.38
2692.69
2684.67
2678.25
2673.34
2669.88
2667.8
2667.02
2667.5
2669.18
2672.03
2676.05
2681.23
2687.6
2695.18
2704.03
2714.19
2725.73
2738.71
2753.21
2769.27
2786.95
2806.28
2827.3
2850
2874.38
2900.38
2927.94
2956.95
2987.26
3018.68
3051.01
3083.91
3117.09
3150.18
3182.8
3214.54
3244.97
3273.64
3300.13
3324.01
3344.89
3362.38
3376.15
3385.95
3391.56
3392.85
3389.78
3382.41
3370.84
3355.27
3335.97
3313.27
3287.57
3259.3
3228.91
3196.88
3163.65
3129.68
3095.41
3061.27
3027.62
2994.76
2963
2932.56
2903.63
2876.34
2850.79
2827.04
2805.13
2785.05
2766.78
2750.3
2735.53
2722.44
2710.96
2701.02
2692.59
2685.59
2679.97
2675.68
2672.66
2670.87
2670.29
2670.92
2672.75
2675.82
2680.13
2685.7
2692.54
2700.66
2710.08
2720.83
2732.94
2746.45
2761.39
2777.81
2795.72
2815.17
2836.16
2858.7
2882.75
2908.27
2935.18
2963.37
2992.69
3022.98
3054.03
3085.54
3117.24
3148.81
3179.88
3210.07
3238.96
3266.15
3291.2
3313.69
3333.24
3349.49
3362.13
3370.89
3375.57
3376
3372.13
3363.99
3351.67
3335.37
3315.35
3291.97
3265.63
3236.77
3205.88
3173.44
3139.96
3105.93
3071.8
3038
3004.91
2972.85
2942.1
2912.87
2885.33
2859.58
2835.67
2813.64
2793.47
2775.14
2758.6
2743.82
2730.72
2719.24
2709.31
2700.85
2693.79
2688.06
2683.59
2680.28
2678.07
2676.93
2676.79
2677.64
2679.45
2682.23
2685.98
2690.73
2696.51
2703.36
2711.32
2720.45
2730.79
2742.44
2755.49
2770.03
2786.17
2803.99
2823.58
2844.96
2868.18
2893.2
2919.96
2948.31
2977.84
3008.5
3040.18
3072.39
3104.76
3136.81
3168.08
3198.15
3226.57
3252.87
3276.71
3297.69
3315.51
3329.91
3340.67
3347.65
3350.79
3349.13
3343.55
3334.25
3321.42
3305.32
3286.27
3264.62
3240.73
3214.98
3187.76
3159.44
3130.36
3100.88
3071.3
3041.9
3012.95
2984.72
2957.66
2931.26
2905.58
2880.84
2857.2
2834.75
2813.57
2793.69
2775.16
2758.02
2742.29
2728.01
2715.2
2703.87
2694.03
2685.71
2678.9
2673.62
2669.84
2809.71
2839.35
2870.73
2903.54
2929.28
2964.62
3000.38
3035.99
3071.14
3105.51
3138.72
3170.3
3199.84
3226.85
3250.88
3271.52
3288.39
3301.23
3309.83
3314.07
3313.79
3309.09
3300.09
3286.92
3269.81
3249.05
3224.95
3197.89
3168.32
3136.67
3103.38
3068.95
3033.84
2998.52
2963.4
2929.21
2895.92
2863.37
2831.92
2801.86
2773.38
2746.6
2721.59
2698.4
2677.03
2657.49
2639.75
2623.79
2609.55
2597.01
2586.13
2576.86
2569.17
2563.03
2558.43
2555.34
2553.77
2553.71
2555.16
2558.15
2562.66
2568.76
2576.48
2585.83
2596.86
2609.62
2624.13
2640.42
2658.5
2678.37
2700.02
2723.42
2748.49
2775.15
2803.29
2832.79
2863.49
2895.23
2928.09
2961.31
2994.8
3028.28
3061.48
3094.06
3125.66
3155.9
3184.4
3210.74
3234.53
3255.39
3273
3287.07
3297.34
3303.65
3305.86
3303.91
3297.81
3287.6
3273.39
3255.36
3233.75
3208.84
3180.98
3150.56
3118.01
3083.79
3048.39
3012.31
2976.02
2939.99
2904.66
2870.39
2837.51
2806.26
2776.85
2749.4
2724.01
2700.72
2679.52
2660.4
2643.31
2628.18
2614.96
2603.56
2593.91
2585.92
2579.53
2574.66
2571.23
2569.17
2568.42
2568.91
2570.6
2573.46