/*--------------------------------*- C++ -*----------------------------------*\
| =========                 |                                                 |
| \\      /  F ield         | OpenFOAM: The Open Source CFD Toolbox           |
|  \\    /   O peration     | Version:  3.0.1                                 |
|   \\  /    A nd           | Web:      www.OpenFOAM.org                      |
|    \\/     M anipulation  |                                                 |
\*---------------------------------------------------------------------------*/
FoamFile
{
    version     2.0;
    format      ascii;
    class       surfaceScalarField;
    location    "77.6";
    object      phi;
}
// * * * * * * * * * * * * * * * * * * * * * * * * * * * * * * * * * * * * * //

dimensions      [0 3 -1 0 0 0 0];

internalField   nonuniform List<scalar> 
42423
(
-0.000175854
-1.66883e-06
-0.000173419
-2.43529e-06
-0.000170288
-3.13089e-06
-0.000166438
-3.85024e-06
-0.000161714
-4.72361e-06
-0.000156252
-5.46218e-06
-0.000149736
-6.51605e-06
-0.000142449
-7.28681e-06
-0.000134397
-8.05175e-06
-0.000125316
-9.08115e-06
-0.000115336
-9.97985e-06
-0.000104358
-1.09785e-05
-9.22725e-05
-1.20855e-05
-7.92887e-05
-1.29838e-05
-6.51372e-05
-1.41516e-05
-5.00629e-05
-1.50744e-05
-3.43426e-05
-1.57204e-05
-1.7703e-05
-1.66396e-05
-2.88443e-07
-1.74146e-05
1.7593e-05
-1.78815e-05
3.60741e-05
-1.84811e-05
5.49588e-05
-1.88848e-05
7.38122e-05
-1.88534e-05
9.25749e-05
-1.87627e-05
0.000110942
-1.83669e-05
0.000128769
-1.78273e-05
0.000145796
-1.70268e-05
0.000161607
-1.58116e-05
0.00017603
-1.44231e-05
0.000188894
-1.28642e-05
0.000199855
-1.09602e-05
0.000208753
-8.89822e-06
0.000215468
-6.71536e-06
0.000219818
-4.35004e-06
0.000221742
-1.92422e-06
0.000221164
5.78068e-07
0.000218093
3.07071e-06
0.000212603
5.49049e-06
0.000204795
7.80782e-06
0.000194913
9.88175e-06
0.000183066
1.18477e-05
0.000169488
1.35775e-05
0.000154421
1.50673e-05
0.000138015
1.64054e-05
0.00012072
1.72947e-05
0.000102654
1.80667e-05
8.40379e-05
1.86158e-05
6.52886e-05
1.87492e-05
4.64259e-05
1.88628e-05
2.77204e-05
1.87054e-05
9.47638e-06
1.8244e-05
-8.30784e-06
1.77842e-05
-2.5443e-05
1.71352e-05
-4.18358e-05
1.63928e-05
-5.73642e-05
1.55284e-05
-7.19741e-05
1.46099e-05
-8.56534e-05
1.36793e-05
-9.83181e-05
1.26647e-05
-0.00010997
1.16515e-05
-0.000120629
1.06595e-05
-0.000130301
9.67137e-06
-0.00013904
8.73952e-06
-0.000146813
7.77269e-06
-0.000153659
6.84654e-06
-0.000159664
6.00492e-06
-0.000164775
5.11063e-06
-0.000169056
4.28156e-06
-0.000172561
3.50417e-06
-0.000175241
2.68034e-06
-0.000177291
2.05006e-06
-0.000178572
1.28082e-06
-0.000179099
5.26888e-07
-0.000178914
-1.84422e-07
-0.000178078
-8.36369e-07
-0.000176432
-1.64618e-06
-0.000174141
-2.29096e-06
-0.000170943
-3.19793e-06
-0.000167006
-3.93696e-06
-0.000162271
-4.7349e-06
-0.000156721
-5.54983e-06
-0.000150357
-6.36397e-06
-0.000143195
-7.16245e-06
-0.000135161
-8.03354e-06
-0.000126289
-8.87195e-06
-0.000116567
-9.72237e-06
-0.000106054
-1.05126e-05
-9.47318e-05
-1.13227e-05
-8.25171e-05
-1.22147e-05
-6.94728e-05
-1.30444e-05
-5.55733e-05
-1.38995e-05
-4.0785e-05
-1.47884e-05
-2.52016e-05
-1.55834e-05
-8.83128e-06
-1.63703e-05
8.17261e-06
-1.70039e-05
2.57025e-05
-1.75299e-05
4.35464e-05
-1.78439e-05
6.15391e-05
-1.79928e-05
7.94892e-05
-1.79501e-05
9.71925e-05
-1.77033e-05
0.00011445
-1.72575e-05
0.000131048
-1.65979e-05
0.000146799
-1.57514e-05
0.000161447
-1.46483e-05
0.000174828
-1.33809e-05
0.000186702
-1.18737e-05
0.000196891
-1.01888e-05
0.000205216
-8.32524e-06
0.00021149
-6.27468e-06
0.000215631
-4.14059e-06
0.000217476
-1.8455e-06
0.000217048
4.2877e-07
0.00021427
2.77786e-06
0.000209108
5.16203e-06
0.000201686
7.42143e-06
0.000192125
9.5609e-06
0.000180554
1.1571e-05
0.000167164
1.33899e-05
0.000152195
1.49689e-05
0.000135893
1.63025e-05
0.000118508
1.73849e-05
0.000100265
1.82425e-05
8.15115e-05
1.87537e-05
6.24948e-05
1.90167e-05
4.34461e-05
1.90486e-05
2.46044e-05
1.88417e-05
6.17343e-06
1.84309e-05
-1.16856e-05
1.7859e-05
-2.88059e-05
1.71202e-05
-4.50893e-05
1.62834e-05
-6.04346e-05
1.53453e-05
-7.4741e-05
1.43064e-05
-8.81129e-05
1.33719e-05
-0.000100308
1.21953e-05
-0.000111488
1.11796e-05
-0.000121531
1.00431e-05
-0.000130448
8.91742e-06
-0.000138452
8.00391e-06
-0.000145337
6.88434e-06
-0.000151327
5.99057e-06
-0.000156342
5.01501e-06
-0.000160516
4.17432e-06
-0.000163856
3.3391e-06
-0.000166497
2.6418e-06
-0.000168409
1.9117e-06
-0.000169652
1.24339e-06
-0.00017028
6.2734e-07
-0.000170322
4.17775e-08
-0.000169786
-5.35291e-07
-0.000168676
-1.11024e-06
-0.000167073
-1.60315e-06
-0.000164913
-2.1602e-06
-0.000162199
-2.71403e-06
-0.00015893
-3.26905e-06
-0.000155087
-3.84265e-06
-0.000150709
-4.37811e-06
-0.000145694
-5.01546e-06
-0.000139987
-5.70661e-06
-0.000133698
-6.28942e-06
-0.000126652
-7.04576e-06
-0.000118871
-7.78098e-06
-0.000110314
-8.55661e-06
-0.000101014
-9.30012e-06
-9.08752e-05
-1.0139e-05
-8.00508e-05
-1.08244e-05
-6.83133e-05
-1.17376e-05
-5.59346e-05
-1.23788e-05
-4.26827e-05
-1.32519e-05
-2.87889e-05
-1.38939e-05
-1.41794e-05
-1.46095e-05
1.04508e-06
-1.52246e-05
1.67915e-05
-1.57465e-05
3.29878e-05
-1.61963e-05
4.95034e-05
-1.65156e-05
6.61546e-05
-1.66513e-05
8.27995e-05
-1.6645e-05
9.92207e-05
-1.64213e-05
0.000115167
-1.59462e-05
0.000130436
-1.5269e-05
0.000144743
-1.43073e-05
0.000157868
-1.3125e-05
0.000169532
-1.16643e-05
0.000179489
-9.95666e-06
0.000187534
-8.04509e-06
0.000193465
-5.93139e-06
0.000197157
-3.69223e-06
0.000198479
-1.32189e-06
0.000197453
1.02592e-06
0.000194
3.45332e-06
0.000188196
5.80416e-06
0.000180173
8.02221e-06
0.0001701
1.00735e-05
0.000158123
1.19771e-05
0.000144475
1.36478e-05
0.000129472
1.50032e-05
0.00011328
1.61913e-05
9.62548e-05
1.70254e-05
7.863e-05
1.76247e-05
6.06784e-05
1.79515e-05
4.26396e-05
1.80388e-05
2.47516e-05
1.7888e-05
7.22583e-06
1.75257e-05
-9.79905e-06
1.70249e-05
-2.61436e-05
1.63445e-05
-4.1675e-05
1.55313e-05
-5.64554e-05
1.47805e-05
-7.019e-05
1.37346e-05
-8.30103e-05
1.28202e-05
-9.47308e-05
1.17206e-05
-0.000105479
1.07482e-05
-0.000115156
9.67682e-06
-0.000123886
8.73019e-06
-0.000131753
7.86655e-06
-0.000138736
6.98356e-06
-0.000145
6.26355e-06
-0.000150547
5.5469e-06
-0.000155447
4.90061e-06
-0.000159647
4.19999e-06
-0.000163197
3.54961e-06
-0.000166075
2.87841e-06
-0.000168272
2.1964e-06
-0.00016984
1.56842e-06
-0.000170735
8.94636e-07
-0.000171183
4.48168e-07
-0.000171068
-1.15106e-07
-0.000170468
-6.00152e-07
-0.000169391
-1.07723e-06
-0.000167891
-1.49928e-06
-0.000165885
-2.00673e-06
-0.000163343
-2.54129e-06
-0.000160232
-3.11084e-06
-0.000156506
-3.72611e-06
-0.0001521
-4.4061e-06
-0.00014711
-4.99037e-06
-0.000141468
-5.64229e-06
-0.000135213
-6.25458e-06
-0.000128332
-6.88126e-06
-0.000120854
-7.47793e-06
-0.000112697
-8.15689e-06
-0.000103912
-8.78495e-06
-9.43604e-05
-9.55171e-06
-8.40879e-05
-1.02725e-05
-7.29677e-05
-1.11203e-05
-6.10136e-05
-1.19541e-05
-4.84164e-05
-1.25972e-05
-3.50886e-05
-1.33279e-05
-2.11455e-05
-1.39431e-05
-6.70077e-06
-1.44447e-05
8.19134e-06
-1.48922e-05
2.34469e-05
-1.52557e-05
3.89493e-05
-1.55024e-05
5.45313e-05
-1.5582e-05
7.0087e-05
-1.55558e-05
8.53796e-05
-1.52927e-05
0.000100235
-1.48559e-05
0.000114416
-1.41801e-05
0.000127688
-1.3273e-05
0.000139805
-1.2117e-05
0.0001505
-1.06947e-05
0.000159539
-9.03851e-06
0.000166719
-7.18015e-06
0.000171824
-5.10581e-06
0.000174716
-2.89191e-06
0.000175313
-5.96274e-07
0.00017364
1.67289e-06
0.000169599
4.04082e-06
0.000163411
6.18745e-06
0.000155215
8.19668e-06
0.000145203
1.00112e-05
0.000133526
1.16775e-05
0.000120429
1.30968e-05
0.000106302
1.41264e-05
9.12388e-05
1.50637e-05
7.57829e-05
1.54558e-05
5.9861e-05
1.59219e-05
4.39579e-05
1.5903e-05
2.83875e-05
1.55704e-05
1.30082e-05
1.53793e-05
-1.81572e-06
1.48239e-05
-1.59104e-05
1.40946e-05
-2.91595e-05
1.32491e-05
-4.1463e-05
1.23035e-05
-5.27435e-05
1.12805e-05
-6.31191e-05
1.03756e-05
-7.26911e-05
9.57207e-06
-8.16638e-05
8.97264e-06
-9.01742e-05
8.51041e-06
-9.8167e-05
7.99282e-06
-0.000105679
7.51192e-06
-0.000112783
7.1041e-06
-0.000119359
6.57598e-06
-0.000125513
6.15434e-06
-0.000131079
5.56519e-06
-0.000136051
4.97198e-06
-0.00014047
4.41925e-06
-0.000144253
3.78273e-06
-0.000147396
3.14374e-06
-0.000149942
2.54604e-06
-0.000151796
1.85336e-06
-0.000152939
1.14347e-06
-0.000153423
4.83436e-07
-0.000153286
-1.36846e-07
-0.000152638
-6.48191e-07
-0.000151394
-1.24317e-06
-0.000149492
-1.90272e-06
-0.000146978
-2.51399e-06
-0.000143791
-3.18703e-06
-0.0001398
-3.99032e-06
-0.000135109
-4.69155e-06
-0.000129482
-5.62729e-06
-0.000123035
-6.44631e-06
-0.000115858
-7.17745e-06
-0.000107678
-8.17942e-06
-9.87033e-05
-8.97514e-06
-8.89228e-05
-9.78055e-06
-7.80202e-05
-1.09026e-05
-6.63247e-05
-1.16956e-05
-5.36427e-05
-1.2682e-05
-4.01011e-05
-1.35416e-05
-2.58554e-05
-1.42458e-05
-1.07241e-05
-1.51313e-05
5.17671e-06
-1.59009e-05
2.1556e-05
-1.63793e-05
3.84721e-05
-1.69162e-05
5.57701e-05
-1.7298e-05
7.33397e-05
-1.75696e-05
9.09625e-05
-1.76229e-05
0.000108358
-1.73958e-05
0.000125436
-1.70774e-05
0.000141965
-1.65292e-05
0.0001576
-1.56353e-05
0.000172219
-1.46186e-05
0.000185651
-1.34321e-05
0.000197566
-1.19155e-05
0.000207774
-1.02077e-05
0.000216164
-8.39021e-06
0.000222548
-6.38366e-06
0.000226792
-4.24455e-06
0.00022878
-1.98818e-06
0.000228623
1.57156e-07
0.000226305
2.31848e-06
0.00022161
4.6946e-06
0.000214843
6.7669e-06
0.000206145
8.69785e-06
0.000195655
1.04901e-05
0.000183534
1.2121e-05
0.000169894
1.36398e-05
0.000155156
1.47379e-05
0.000139373
1.57826e-05
0.000122769
1.66045e-05
0.000105711
1.70583e-05
8.82163e-05
1.74942e-05
7.06939e-05
1.75224e-05
5.31542e-05
1.75397e-05
3.57373e-05
1.74169e-05
1.87562e-05
1.69811e-05
2.19507e-06
1.65611e-05
1.62244e-05
-0.000175887
-3.33176e-06
-0.000173455
-4.86749e-06
-0.000170328
-6.25795e-06
-0.000166481
-7.69724e-06
-0.00016176
-9.44434e-06
-0.000156303
-1.09196e-05
-0.000149783
-1.30356e-05
-0.000142498
-1.45718e-05
-0.000134449
-1.61011e-05
-0.000125373
-1.81575e-05
-0.00011539
-1.99626e-05
-0.000104408
-2.19603e-05
-9.23227e-05
-2.41711e-05
-7.93392e-05
-2.59673e-05
-6.51828e-05
-2.83081e-05
-5.011e-05
-3.01472e-05
-3.43791e-05
-3.14514e-05
-1.77402e-05
-3.32787e-05
-3.19053e-07
-3.48358e-05
1.75722e-05
-3.57729e-05
3.6061e-05
-3.69701e-05
5.49545e-05
-3.77784e-05
7.3819e-05
-3.7718e-05
9.25959e-05
-3.75397e-05
0.000110984
-3.6755e-05
0.000128822
-3.56651e-05
0.000145854
-3.40591e-05
0.000161678
-3.16363e-05
0.000176121
-2.88654e-05
0.000188995
-2.57392e-05
0.000199964
-2.19287e-05
0.000208867
-1.78015e-05
0.000215585
-1.34336e-05
0.000219936
-8.70122e-06
0.000221867
-3.85471e-06
0.000221281
1.16359e-06
0.000218207
6.14491e-06
0.000212715
1.09817e-05
0.000204901
1.5622e-05
0.000195012
1.97712e-05
0.000183158
2.37014e-05
0.000169569
2.71658e-05
0.000154492
3.01452e-05
0.000138074
3.28228e-05
0.000120768
3.46011e-05
0.000102693
3.61417e-05
8.40634e-05
3.72449e-05
6.53041e-05
3.75085e-05
4.64352e-05
3.77317e-05
2.77187e-05
3.74219e-05
9.47662e-06
3.6486e-05
-8.32484e-06
3.55856e-05
-2.54697e-05
3.428e-05
-4.18711e-05
3.27941e-05
-5.74053e-05
3.10626e-05
-7.20208e-05
2.92254e-05
-8.57045e-05
2.7363e-05
-9.83751e-05
2.53353e-05
-0.00011003
2.33068e-05
-0.000120696
2.13256e-05
-0.000130367
1.93419e-05
-0.000139108
1.74805e-05
-0.00014688
1.55446e-05
-0.000153724
1.36904e-05
-0.00015973
1.20109e-05
-0.000164845
1.02262e-05
-0.000169122
8.55832e-06
-0.000172625
7.00696e-06
-0.000175299
5.35423e-06
-0.000177353
4.10497e-06
-0.000178637
2.56465e-06
-0.000179159
1.04832e-06
-0.000178975
-3.6839e-07
-0.000178143
-1.66772e-06
-0.000176493
-3.29619e-06
-0.000174205
-4.57948e-06
-0.000171003
-6.39945e-06
-0.000167066
-7.8744e-06
-0.000162331
-9.47044e-06
-0.000156784
-1.10963e-05
-0.000150417
-1.27313e-05
-0.000143255
-1.43243e-05
-0.000135218
-1.60705e-05
-0.000126342
-1.77483e-05
-0.000116617
-1.94467e-05
-0.0001061
-2.10299e-05
-9.47699e-05
-2.26531e-05
-8.25514e-05
-2.44333e-05
-6.9502e-05
-2.60938e-05
-5.55961e-05
-2.78056e-05
-4.08009e-05
-2.95837e-05
-2.52064e-05
-3.1178e-05
-8.82247e-06
-3.27543e-05
8.19713e-06
-3.40237e-05
2.57459e-05
-3.50788e-05
4.36104e-05
-3.57086e-05
6.1619e-05
-3.60016e-05
7.95862e-05
-3.59175e-05
9.73019e-05
-3.54191e-05
0.00011457
-3.45257e-05
0.000131184
-3.32119e-05
0.000146952
-3.15192e-05
0.000161591
-2.92876e-05
0.000174979
-2.67689e-05
0.000186859
-2.37546e-05
0.000197053
-2.03825e-05
0.000205392
-1.6664e-05
0.000211673
-1.25561e-05
0.000215815
-8.28325e-06
0.00021766
-3.68997e-06
0.000217226
8.6256e-07
0.000214442
5.56198e-06
0.00020927
1.03339e-05
0.000201836
1.48549e-05
0.000192262
1.9135e-05
0.000180675
2.31583e-05
0.000167261
2.68038e-05
0.000152265
2.99645e-05
0.000135941
3.26266e-05
0.000118506
3.48197e-05
0.000100262
3.64868e-05
8.14828e-05
3.75326e-05
6.24728e-05
3.80267e-05
4.33669e-05
3.81545e-05
2.44988e-05
3.77098e-05
6.04354e-06
3.68861e-05
-1.18304e-05
3.57329e-05
-2.89744e-05
3.42642e-05
-4.52377e-05
3.25467e-05
-6.06355e-05
3.07431e-05
-7.49794e-05
2.86503e-05
-8.8347e-05
2.67395e-05
-0.000100556
2.44039e-05
-0.000111692
2.23155e-05
-0.000121784
2.01351e-05
-0.000130762
1.78953e-05
-0.000138734
1.59759e-05
-0.000145639
1.37897e-05
-0.000151613
1.19644e-05
-0.000156633
1.0035e-05
-0.000160794
8.33585e-06
-0.000164098
6.64282e-06
-0.000166771
5.31459e-06
-0.00016868
3.82045e-06
-0.000169897
2.46048e-06
-0.000170546
1.27691e-06
-0.000170574
6.98455e-08
-0.000170042
-1.06782e-06
-0.000168942
-2.21012e-06
-0.00016731
-3.23476e-06
-0.000165154
-4.31684e-06
-0.000162429
-5.43835e-06
-0.000159143
-6.55572e-06
-0.000155325
-7.66091e-06
-0.000150922
-8.78116e-06
-0.000145894
-1.00435e-05
-0.000140169
-1.14314e-05
-0.000133872
-1.25858e-05
-0.000126811
-1.41069e-05
-0.000119024
-1.55686e-05
-0.000110477
-1.71036e-05
-0.000101163
-1.86143e-05
-9.10066e-05
-2.02952e-05
-8.01733e-05
-2.16578e-05
-6.84257e-05
-2.34852e-05
-5.60345e-05
-2.477e-05
-4.27856e-05
-2.6501e-05
-2.88642e-05
-2.78154e-05
-1.42544e-05
-2.92194e-05
9.84442e-07
-3.04635e-05
1.67529e-05
-3.1515e-05
3.29627e-05
-3.24062e-05
4.94926e-05
-3.30457e-05
6.61678e-05
-3.33266e-05
8.2836e-05
-3.33133e-05
9.92788e-05
-3.28642e-05
0.000115232
-3.18991e-05
0.000130515
-3.05527e-05
0.000144841
-2.86331e-05
0.000157976
-2.62603e-05
0.000169654
-2.33422e-05
0.00017962
-1.99234e-05
0.000187675
-1.60998e-05
0.000193614
-1.18701e-05
0.000197298
-7.37682e-06
0.000198625
-2.6491e-06
0.000197577
2.07419e-06
0.000194107
6.92339e-06
0.000188292
1.1619e-05
0.000180252
1.60621e-05
0.000170148
2.01768e-05
0.000158156
2.39698e-05
0.00014448
2.73231e-05
0.000129439
3.00443e-05
0.000113236
3.23941e-05
9.61815e-05
3.408e-05
7.85239e-05
3.52823e-05
6.05539e-05
3.59215e-05
4.24917e-05
3.61009e-05
2.45861e-05
3.57936e-05
7.02817e-06
3.50836e-05
-1.00072e-05
3.40602e-05
-2.63787e-05
3.2716e-05
-4.19471e-05
3.10997e-05
-5.67082e-05
2.95416e-05
-7.0465e-05
2.74913e-05
-8.32746e-05
2.56298e-05
-9.50133e-05
2.34592e-05
-0.00010576
2.14952e-05
-0.000115451
1.93671e-05
-0.000124187
1.74666e-05
-0.000132028
1.57075e-05
-0.000139013
1.39682e-05
-0.000145274
1.25251e-05
-0.000150817
1.10897e-05
-0.0001557
9.78383e-06
-0.000159909
8.40858e-06
-0.000163415
7.05564e-06
-0.000166331
5.7941e-06
-0.00016852
4.38597e-06
-0.000170075
3.1235e-06
-0.000171018
1.83711e-06
-0.000171412
8.42188e-07
-0.000171281
-2.45964e-07
-0.000170669
-1.21232e-06
-0.000169595
-2.15054e-06
-0.000168077
-3.01799e-06
-0.000166063
-4.02054e-06
-0.000163513
-5.09148e-06
-0.0001604
-6.2235e-06
-0.000156659
-7.46745e-06
-0.000152265
-8.80001e-06
-0.000147258
-9.99702e-06
-0.000141598
-1.13027e-05
-0.000135328
-1.25249e-05
-0.000128452
-1.37564e-05
-0.000120962
-1.4968e-05
-0.000112806
-1.63135e-05
-0.00010401
-1.75804e-05
-9.44569e-05
-1.91053e-05
-8.41712e-05
-2.05582e-05
-7.30464e-05
-2.22452e-05
-6.10814e-05
-2.39192e-05
-4.84748e-05
-2.52038e-05
-3.51328e-05
-2.667e-05
-2.11873e-05
-2.78888e-05
-6.73023e-06
-2.89019e-05
8.17473e-06
-2.97972e-05
2.34311e-05
-3.05122e-05
3.8944e-05
-3.10154e-05
5.4534e-05
-3.11721e-05
7.0095e-05
-3.11169e-05
8.53937e-05
-3.05915e-05
0.000100247
-2.97094e-05
0.000114437
-2.83698e-05
0.000127719
-2.6555e-05
0.000139845
-2.42433e-05
0.000150567
-2.14164e-05
0.000159616
-1.80881e-05
0.000166801
-1.43648e-05
0.000171911
-1.02166e-05
0.000174798
-5.77899e-06
0.0001754
-1.19865e-06
0.000173722
3.35114e-06
0.000169681
8.08182e-06
0.000163491
1.23779e-05
0.000155287
1.64001e-05
0.000145259
2.00393e-05
0.000133582
2.33547e-05
0.00012047
2.6208e-05
0.000106322
2.82749e-05
9.12503e-05
3.01352e-05
7.57916e-05
3.09144e-05
5.98522e-05
3.18613e-05
4.39504e-05
3.18048e-05
2.83485e-05
3.11723e-05
1.29739e-05
3.07538e-05
-1.86496e-06
2.96628e-05
-1.59684e-05
2.8198e-05
-2.92252e-05
2.65059e-05
-4.15348e-05
2.46131e-05
-5.28168e-05
2.25624e-05
-6.31905e-05
2.07492e-05
-7.2753e-05
1.91346e-05
-8.17157e-05
1.79353e-05
-9.02184e-05
1.70131e-05
-9.82046e-05
1.5979e-05
-0.000105712
1.50198e-05
-0.000112814
1.42055e-05
-0.000119388
1.31499e-05
-0.000125543
1.23093e-05
-0.000131108
1.11302e-05
-0.000136079
9.94353e-06
-0.000140499
8.83857e-06
-0.00014428
7.56381e-06
-0.000147423
6.28699e-06
-0.000149963
5.0858e-06
-0.000151817
3.70802e-06
-0.000152973
2.29862e-06
-0.000153466
9.76437e-07
-0.000153332
-2.69998e-07
-0.000152687
-1.29366e-06
-0.000151446
-2.48458e-06
-0.000149545
-3.8036e-06
-0.000147032
-5.02641e-06
-0.000143846
-6.37367e-06
-0.000139859
-7.97715e-06
-0.000135166
-9.38485e-06
-0.000129536
-1.12565e-05
-0.000123093
-1.28901e-05
-0.000115914
-1.43557e-05
-0.000107744
-1.63496e-05
-9.87617e-05
-1.79579e-05
-8.8972e-05
-1.95703e-05
-7.80816e-05
-2.1793e-05
-6.63906e-05
-2.33866e-05
-5.37123e-05
-2.53604e-05
-4.01651e-05
-2.70888e-05
-2.59109e-05
-2.85001e-05
-1.07766e-05
-3.02657e-05
5.11736e-06
-3.17949e-05
2.14925e-05
-3.27545e-05
3.84226e-05
-3.38464e-05
5.57329e-05
-3.46084e-05
7.33022e-05
-3.5139e-05
9.09414e-05
-3.52621e-05
0.000108361
-3.48153e-05
0.000125448
-3.41643e-05
0.000141992
-3.30738e-05
0.000157645
-3.12888e-05
0.00017227
-2.92434e-05
0.000185721
-2.68826e-05
0.000197651
-2.3846e-05
0.000207866
-2.04233e-05
0.000216265
-1.67886e-05
0.000222652
-1.27708e-05
0.00022691
-8.50256e-06
0.000228905
-3.98394e-06
0.000228737
3.25605e-07
0.000226409
4.64605e-06
0.000221716
9.38765e-06
0.000214944
1.35391e-05
0.000206236
1.7405e-05
0.00019574
2.09864e-05
0.000183609
2.42517e-05
0.000169958
2.72912e-05
0.000155206
2.94894e-05
0.000139417
3.15717e-05
0.000122802
3.32193e-05
0.000105733
3.41277e-05
8.82306e-05
3.49965e-05
7.06962e-05
3.50567e-05
5.31479e-05
3.5088e-05
3.57242e-05
3.48405e-05
1.87383e-05
3.39669e-05
2.17269e-06
3.31266e-05
3.24556e-05
-0.000175942
-4.99394e-06
-0.000173511
-7.29811e-06
-0.000170386
-9.38304e-06
-0.00016654
-1.15435e-05
-0.000161823
-1.41618e-05
-0.000156373
-1.63698e-05
-0.000149849
-1.95589e-05
-0.000142568
-2.18527e-05
-0.000134522
-2.41476e-05
-0.000125459
-2.72207e-05
-0.00011547
-2.99511e-05
-0.000104482
-3.29484e-05
-9.2398e-05
-3.62555e-05
-7.94162e-05
-3.89492e-05
-6.52532e-05
-4.24711e-05
-5.01926e-05
-4.52079e-05
-3.44385e-05
-4.72056e-05
-1.77835e-05
-4.99338e-05
-3.46104e-07
-5.22733e-05
1.75584e-05
-5.36775e-05
3.60545e-05
-5.54662e-05
5.49662e-05
-5.66903e-05
7.38534e-05
-5.66053e-05
9.26473e-05
-5.63337e-05
0.00011105
-5.51574e-05
0.000128905
-5.35204e-05
0.000145962
-5.11164e-05
0.000161815
-4.74895e-05
0.000176269
-4.33196e-05
0.000189157
-3.86271e-05
0.00020015
-3.29217e-05
0.000209059
-2.67109e-05
0.000215789
-2.01633e-05
0.000220147
-1.3059e-05
0.000222082
-5.79031e-06
0.000221466
1.77962e-06
0.000218382
9.22848e-06
0.000212894
1.647e-05
0.000205066
2.34499e-05
0.000195161
2.96761e-05
0.000183296
3.55662e-05
0.000169688
4.07738e-05
0.000154591
4.52421e-05
0.000138155
4.92592e-05
0.000120823
5.19326e-05
0.000102734
5.42307e-05
8.40835e-05
5.58956e-05
6.53017e-05
5.62903e-05
4.64258e-05
5.66076e-05
2.76964e-05
5.61513e-05
9.43963e-06
5.47428e-05
-8.37739e-06
5.34026e-05
-2.55334e-05
5.1436e-05
-4.19452e-05
4.92059e-05
-5.74847e-05
4.66022e-05
-7.21065e-05
4.3847e-05
-8.57953e-05
4.10518e-05
-9.8469e-05
3.80089e-05
-0.000110124
3.49617e-05
-0.00012079
3.19918e-05
-0.000130451
2.90032e-05
-0.00013919
2.62191e-05
-0.000146958
2.33123e-05
-0.000153792
2.05248e-05
-0.000159794
1.8013e-05
-0.000164909
1.53407e-05
-0.000169184
1.28335e-05
-0.000172689
1.05124e-05
-0.000175349
8.01359e-06
-0.000177408
6.16459e-06
-0.000178696
3.85266e-06
-0.000179215
1.56668e-06
-0.000179031
-5.52118e-07
-0.000178208
-2.49051e-06
-0.000176558
-4.9465e-06
-0.000174269
-6.86837e-06
-0.000171069
-9.59956e-06
-0.000167133
-1.18109e-05
-0.000162398
-1.4205e-05
-0.000156856
-1.66385e-05
-0.000150486
-1.91011e-05
-0.000143327
-2.14831e-05
-0.000135286
-2.41115e-05
-0.000126414
-2.66207e-05
-0.00011669
-2.91708e-05
-0.000106173
-3.1547e-05
-9.48417e-05
-3.39845e-05
-8.26115e-05
-3.66636e-05
-6.95725e-05
-3.91329e-05
-5.56686e-05
-4.17095e-05
-4.08714e-05
-4.4381e-05
-2.5271e-05
-4.67786e-05
-8.88121e-06
-4.91442e-05
8.15599e-06
-5.1061e-05
2.57218e-05
-5.26448e-05
4.36e-05
-5.35869e-05
6.16266e-05
-5.40283e-05
7.95962e-05
-5.38872e-05
9.73204e-05
-5.31434e-05
0.000114595
-5.18007e-05
0.000131215
-4.98318e-05
0.000146979
-4.72831e-05
0.000161648
-4.39567e-05
0.000175042
-4.01632e-05
0.000186934
-3.56466e-05
0.000197142
-3.05908e-05
0.000205466
-2.49875e-05
0.000211756
-1.88467e-05
0.00021589
-1.24168e-05
0.000217759
-5.55944e-06
0.000217301
1.32045e-06
0.000214496
8.36673e-06
0.000209345
1.54846e-05
0.0002019
2.22997e-05
0.000192309
2.87265e-05
0.000180699
3.47681e-05
0.000167267
4.02361e-05
0.000152245
4.49863e-05
0.000135911
4.89605e-05
0.000118417
5.23131e-05
0.000100164
5.47403e-05
8.13577e-05
5.63386e-05
6.22944e-05
5.709e-05
4.31952e-05
5.72537e-05
2.43123e-05
5.65926e-05
5.83227e-06
5.53662e-05
-1.2018e-05
5.35831e-05
-2.92159e-05
5.14621e-05
-4.54867e-05
4.88175e-05
-6.09047e-05
4.6161e-05
-7.52858e-05
4.30314e-05
-8.8625e-05
4.00787e-05
-0.000100843
3.66216e-05
-0.000111976
3.34492e-05
-0.000122086
3.02447e-05
-0.000131078
2.68877e-05
-0.000139042
2.39393e-05
-0.000145955
2.07034e-05
-0.000151918
1.79271e-05
-0.000156942
1.5059e-05
-0.000161093
1.24864e-05
-0.00016443
9.97997e-06
-0.000167061
7.94586e-06
-0.000168977
5.73654e-06
-0.000170139
3.62226e-06
-0.000170817
1.9554e-06
-0.000170838
8.99506e-08
-0.000170306
-1.5998e-06
-0.000169227
-3.28919e-06
-0.000167579
-4.88268e-06
-0.000165428
-6.46725e-06
-0.000162703
-8.16345e-06
-0.000159364
-9.89446e-06
-0.000155611
-1.14145e-05
-0.000151193
-1.31987e-05
-0.000146169
-1.50679e-05
-0.000140474
-1.71264e-05
-0.000134132
-1.89282e-05
-0.000127082
-2.11563e-05
-0.00011927
-2.33812e-05
-0.000110741
-2.56324e-05
-0.000101413
-2.79422e-05
-9.13103e-05
-3.03981e-05
-8.04142e-05
-3.2554e-05
-6.87291e-05
-3.51704e-05
-5.6272e-05
-3.72272e-05
-4.30517e-05
-3.97213e-05
-2.91013e-05
-4.17659e-05
-1.44768e-05
-4.3844e-05
7.7364e-07
-4.5714e-05
1.65606e-05
-4.73021e-05
3.27835e-05
-4.86292e-05
4.93281e-05
-4.95904e-05
6.60206e-05
-5.00193e-05
8.27033e-05
-4.99961e-05
9.91672e-05
-4.93283e-05
0.000115144
-4.78758e-05
0.000130449
-4.58578e-05
0.0001448
-4.29846e-05
0.000157968
-3.94285e-05
0.000169659
-3.50332e-05
0.000179646
-2.99099e-05
0.000187713
-2.41669e-05
0.000193669
-1.78261e-05
0.000197356
-1.10638e-05
0.000198703
-3.99695e-06
0.000197624
3.15388e-06
0.000194143
1.04038e-05
0.000188321
1.74413e-05
0.000180269
2.4114e-05
0.000170127
3.03185e-05
0.000158125
3.5972e-05
0.000144451
4.09967e-05
0.000129327
4.51682e-05
0.000113127
4.85941e-05
9.60487e-05
5.11582e-05
7.8365e-05
5.29659e-05
6.04117e-05
5.38747e-05
4.22881e-05
5.42244e-05
2.43639e-05
5.37178e-05
6.78547e-06
5.26619e-05
-1.02434e-05
5.1089e-05
-2.66616e-05
4.91342e-05
-4.22612e-05
4.66993e-05
-5.70092e-05
4.42896e-05
-7.07836e-05
4.12656e-05
-8.3586e-05
3.84323e-05
-9.53356e-05
3.52088e-05
-0.000106078
3.22371e-05
-0.000115773
2.90627e-05
-0.000124506
2.61995e-05
-0.000132336
2.35375e-05
-0.000139313
2.09448e-05
-0.000145555
1.87677e-05
-0.000151089
1.66231e-05
-0.000155947
1.46415e-05
-0.000160205
1.26675e-05
-0.000163681
1.0531e-05
-0.000166615
8.72797e-06
-0.000168807
6.57805e-06
-0.000170351
4.66717e-06
-0.000171301
2.788e-06
-0.000171669
1.20951e-06
-0.000171534
-3.80956e-07
-0.000170908
-1.83766e-06
-0.000169852
-3.20736e-06
-0.000168317
-4.55309e-06
-0.000166291
-6.0456e-06
-0.000163754
-7.62855e-06
-0.000160642
-9.33555e-06
-0.00015687
-1.124e-05
-0.000152514
-1.31562e-05
-0.000147505
-1.50057e-05
-0.000141846
-1.69618e-05
-0.000135535
-1.88363e-05
-0.000128694
-2.05971e-05
-0.000121197
-2.24645e-05
-0.000113062
-2.4449e-05
-0.000104254
-2.63882e-05
-9.47145e-05
-2.8645e-05
-8.44118e-05
-3.08609e-05
-7.32816e-05
-3.33754e-05
-6.13694e-05
-3.58315e-05
-4.87099e-05
-3.78634e-05
-3.53619e-05
-4.0018e-05
-2.13942e-05
-4.18566e-05
-6.93055e-06
-4.33656e-05
8.0088e-06
-4.47366e-05
2.32624e-05
-4.57658e-05
3.87902e-05
-4.65434e-05
5.44193e-05
-4.68013e-05
6.99617e-05
-4.66593e-05
8.52903e-05
-4.59203e-05
0.000100141
-4.45607e-05
0.000114363
-4.25916e-05
0.000127688
-3.98801e-05
0.000139836
-3.63911e-05
0.0001506
-3.21809e-05
0.000159655
-2.71429e-05
0.000166871
-2.15814e-05
0.000172016
-1.53608e-05
0.000174913
-8.67621e-06
0.000175512
-1.79793e-06
0.000173825
5.03804e-06
0.000169788
1.21182e-05
0.000163593
1.85732e-05
0.000155379
2.46139e-05
0.000145341
3.00778e-05
0.000133663
3.50318e-05
0.000120522
3.93489e-05
0.000106348
4.24491e-05
9.1263e-05
4.52203e-05
7.57998e-05
4.63776e-05
5.98285e-05
4.78325e-05
4.39294e-05
4.77038e-05
2.82732e-05
4.68284e-05
1.29094e-05
4.61176e-05
-1.95181e-06
4.45239e-05
-1.60756e-05
4.23218e-05
-2.935e-05
3.97803e-05
-4.16679e-05
3.69309e-05
-5.29521e-05
3.38466e-05
-6.33122e-05
3.11092e-05
-7.28477e-05
2.86701e-05
-8.17938e-05
2.68814e-05
-9.02773e-05
2.54966e-05
-9.82522e-05
2.39539e-05
-0.000105756
2.25236e-05
-0.000112855
2.13046e-05
-0.000119426
1.97206e-05
-0.00012558
1.84631e-05
-0.000131143
1.66938e-05
-0.000136107
1.49077e-05
-0.000140524
1.32554e-05
-0.000144303
1.13425e-05
-0.000147441
9.42476e-06
-0.000149982
7.62675e-06
-0.000151838
5.56449e-06
-0.000153013
3.47373e-06
-0.000153511
1.47432e-06
-0.000153383
-3.98475e-07
-0.00015274
-1.93652e-06
-0.000151501
-3.72393e-06
-0.000149602
-5.70261e-06
-0.000147091
-7.53707e-06
-0.000143905
-9.55968e-06
-0.000139924
-1.19582e-05
-0.00013523
-1.4079e-05
-0.0001296
-1.68867e-05
-0.00012316
-1.93297e-05
-0.000115983
-2.15332e-05
-0.000107826
-2.45059e-05
-9.88341e-05
-2.69501e-05
-8.90374e-05
-2.93671e-05
-7.8159e-05
-3.26715e-05
-6.64771e-05
-3.50686e-05
-5.38075e-05
-3.803e-05
-4.02486e-05
-4.06477e-05
-2.59935e-05
-4.27553e-05
-1.08654e-05
-4.53939e-05
5.02526e-06
-4.76857e-05
2.14135e-05
-4.91428e-05
3.83531e-05
-5.07861e-05
5.56701e-05
-5.19255e-05
7.32635e-05
-5.27325e-05
9.09259e-05
-5.29247e-05
0.00010836
-5.22495e-05
0.00012547
-5.12742e-05
0.000142043
-4.9647e-05
0.000157718
-4.69636e-05
0.000172366
-4.38919e-05
0.000185836
-4.03528e-05
0.000197788
-3.5798e-05
0.000208018
-3.06536e-05
0.000216429
-2.51988e-05
0.00022283
-1.91719e-05
0.000227103
-1.27764e-05
0.000229108
-5.98906e-06
0.000228919
5.14505e-07
0.00022657
6.99545e-06
0.00022188
1.40776e-05
0.0002151
2.03186e-05
0.000206375
2.61302e-05
0.000195868
3.14929e-05
0.000183722
3.63983e-05
0.000170052
4.09611e-05
0.000155276
4.42652e-05
0.000139477
4.73699e-05
0.000122848
4.98491e-05
0.000105759
5.1216e-05
8.82461e-05
5.25095e-05
7.0691e-05
5.26118e-05
5.31289e-05
5.265e-05
3.56946e-05
5.22746e-05
1.87014e-05
5.09601e-05
2.12787e-06
4.97e-05
4.87002e-05
-0.000176025
-6.65477e-06
-0.000173596
-9.72658e-06
-0.000170474
-1.2505e-05
-0.000166629
-1.53885e-05
-0.000161916
-1.88748e-05
-0.000156472
-2.18144e-05
-0.000149948
-2.60825e-05
-0.000142673
-2.91277e-05
-0.000134631
-3.21905e-05
-0.000125594
-3.62575e-05
-0.000115591
-3.99542e-05
-0.000104593
-4.39464e-05
-9.25108e-05
-4.83378e-05
-7.9528e-05
-5.19321e-05
-6.53594e-05
-5.66398e-05
-5.03228e-05
-6.02446e-05
-3.45262e-05
-6.30022e-05
-1.78499e-05
-6.66102e-05
-3.92758e-07
-6.97305e-05
1.75356e-05
-7.1606e-05
3.60521e-05
-7.39828e-05
5.49862e-05
-7.56244e-05
7.38987e-05
-7.55179e-05
9.27188e-05
-7.51538e-05
0.000111155
-7.35942e-05
0.000129041
-7.14065e-05
0.00014613
-6.82055e-05
0.000162016
-6.33753e-05
0.000176494
-5.77975e-05
0.000189405
-5.15379e-05
0.00020042
-4.39371e-05
0.000209351
-3.56415e-05
0.000216102
-2.69146e-05
0.000220453
-1.74107e-05
0.000222387
-7.72447e-06
0.000221742
2.42547e-06
0.000218652
1.23184e-05
0.000213164
2.19574e-05
0.000205314
3.13003e-05
0.000195385
3.96045e-05
0.000183496
4.74555e-05
0.000169866
5.44038e-05
0.00015474
6.03675e-05
0.000138277
6.57229e-05
0.000120907
6.93026e-05
0.000102796
7.2341e-05
8.41142e-05
7.45777e-05
6.52981e-05
7.51063e-05
4.64112e-05
7.54944e-05
2.76652e-05
7.48973e-05
9.38041e-06
7.30275e-05
-8.45839e-06
7.12414e-05
-2.56316e-05
6.86092e-05
-4.20567e-05
6.5631e-05
-5.76053e-05
6.21508e-05
-7.22348e-05
5.84765e-05
-8.59296e-05
5.47467e-05
-9.86083e-05
5.06876e-05
-0.000110264
4.66177e-05
-0.000120935
4.2662e-05
-0.000130584
3.86524e-05
-0.000139319
3.49542e-05
-0.000147077
3.10706e-05
-0.000153901
2.73484e-05
-0.000159907
2.40192e-05
-0.00016501
2.04433e-05
-0.000169278
1.71014e-05
-0.000172785
1.40196e-05
-0.000175424
1.0653e-05
-0.000177495
8.2353e-06
-0.000178791
5.14818e-06
-0.000179307
2.08303e-06
-0.000179121
-7.38368e-07
-0.000178307
-3.30432e-06
-0.000176655
-6.59827e-06
-0.000174369
-9.15465e-06
-0.00017117
-1.2799e-05
-0.000167237
-1.57434e-05
-0.000162501
-1.89407e-05
-0.000156964
-2.21758e-05
-0.000150597
-2.5468e-05
-0.000143439
-2.86411e-05
-0.000135395
-3.21554e-05
-0.00012653
-3.54863e-05
-0.0001168
-3.89006e-05
-0.000106286
-4.20608e-05
-9.49578e-05
-4.5313e-05
-8.27e-05
-4.89215e-05
-6.96894e-05
-5.21435e-05
-5.57896e-05
-5.56094e-05
-4.10044e-05
-5.91663e-05
-2.53951e-05
-6.2388e-05
-8.99804e-06
-6.55413e-05
8.06202e-06
-6.81211e-05
2.56425e-05
-7.02254e-05
4.35417e-05
-7.14862e-05
6.15813e-05
-7.20679e-05
7.95644e-05
-7.18704e-05
9.7299e-05
-7.08782e-05
0.000114586
-6.90878e-05
0.000131207
-6.64534e-05
0.000146967
-6.30429e-05
0.000161663