/*--------------------------------*- C++ -*----------------------------------*\
| =========                 |                                                 |
| \\      /  F ield         | OpenFOAM: The Open Source CFD Toolbox           |
|  \\    /   O peration     | Version:  3.0.1                                 |
|   \\  /    A nd           | Web:      www.OpenFOAM.org                      |
|    \\/     M anipulation  |                                                 |
\*---------------------------------------------------------------------------*/
FoamFile
{
    version     2.0;
    format      ascii;
    class       volScalarField;
    location    "51.6";
    object      p_rgh;
}
// * * * * * * * * * * * * * * * * * * * * * * * * * * * * * * * * * * * * * //

dimensions      [1 -1 -2 0 0 0 0];

internalField   nonuniform List<scalar> 
21420
(
-334.228
-329.368
-323.036
-315.214
-305.872
-294.913
-282.3
-267.965
-251.861
-233.969
-214.251
-192.693
-169.306
-144.138
-117.252
-88.7798
-58.862
-27.6473
4.61027
44.1555
78.0298
112.352
146.74
180.799
214.053
246.07
276.39
304.579
330.266
353.069
372.644
388.711
401.03
409.421
413.76
413.889
409.96
401.95
389.95
374.188
354.873
332.296
306.779
278.676
248.404
216.352
182.944
148.603
113.751
78.8562
44.4501
12.4108
-19.9955
-51.6814
-82.2236
-111.352
-138.89
-164.711
-188.749
-210.965
-231.338
-249.872
-266.572
-281.471
-294.598
-305.98
-315.656
-323.653
-330.003
-334.728
-337.857
-339.378
-339.267
-337.616
-334.39
-329.591
-323.195
-315.207
-305.63
-294.459
-281.682
-267.297
-251.326
-233.772
-214.635
-193.937
-171.707
-147.973
-122.772
-96.1556
-68.2087
-39.0297
-8.74791
22.4863
54.44
86.8584
119.466
151.953
183.98
215.19
245.21
273.664
300.182
324.397
345.96
364.548
379.864
391.651
399.697
403.831
403.885
399.925
391.934
379.926
364.088
344.629
321.822
295.995
267.528
236.838
204.366
170.567
135.896
100.804
65.7176
31.0359
-2.88193
-35.7206
-67.2081
-97.1234
-125.292
-151.588
-175.925
-198.253
-218.557
-236.848
-253.161
-267.549
-280.079
-290.83
-299.883
-307.323
-313.231
-317.683
-320.753
-322.503
-322.967
-322.169
-320.176
-316.976
-312.566
-306.937
-300.068
-291.921
-282.462
-271.654
-259.443
-245.784
-230.636
-213.949
-195.689
-175.836
-154.374
-131.312
-106.683
-80.5428
-52.9735
-24.0973
5.93321
36.941
68.7092
100.905
133.249
165.408
197.011
227.66
256.94
284.425
309.696
332.344
351.99
368.292
380.948
389.712
394.409
394.845
391.145
383.255
371.273
355.417
335.944
313.174
287.481
259.283
229.03
197.185
164.211
130.556
96.6424
62.8606
29.5696
-2.91986
-34.3319
-64.4344
-93.0397
-120.004
-145.224
-168.638
-190.219
-209.97
-227.918
-244.104
-258.581
-271.406
-282.636
-292.327
-300.532
-307.299
-312.674
-316.697
-319.418
-320.845
-320.996
-319.937
-317.648
-314.14
-309.413
-303.451
-296.234
-287.744
-277.954
-266.831
-254.347
-240.476
-225.182
-208.438
-190.225
-170.523
-149.327
-126.656
-102.539
-77.0333
-50.2255
-22.2296
6.81334
36.732
67.3362
98.2743
129.299
160.09
190.294
219.531
247.398
273.482
297.369
318.654
336.951
351.909
363.222
370.644
373.957
373.096
368.035
358.844
345.61
328.585
308.059
284.38
257.961
229.252
198.719
166.846
134.114
100.999
67.9356
35.5628
3.8815
-26.9462
-56.6457
-84.9698
-111.74
-136.847
-160.235
-181.864
-201.74
-219.881
-236.315
-251.093
-264.27
-275.899
-286.047
-294.771
-302.144
-308.241
-313.132
-316.889
-319.561
-321.202
-321.667
-321.147
-319.63
-317.077
-313.451
-308.711
-302.782
-295.576
-287.008
-276.972
-265.38
-252.144
-237.181
-220.447
-201.914
-181.557
-159.417
-135.566
-110.097
-83.1554
-54.9262
-25.6456
4.41319
34.9649
65.706
96.2672
126.305
155.441
183.304
209.571
233.877
255.899
275.378
292.041
305.673
316.118
323.262
327.04
327.348
324.297
317.944
308.376
295.747
280.276
262.181
241.733
219.198
194.87
169.086
142.143
114.359
86.063
57.5298
29.0456
0.816346
-26.8658
-52.7251
-77.4221
-101.581
-334.287
-329.428
-323.097
-315.278
-305.938
-294.982
-282.371
-268.039
-251.937
-234.047
-214.331
-192.774
-169.387
-144.219
-117.331
-88.8551
-58.9301
-27.7061
4.56189
44.0891
77.9784
112.318
146.725
180.802
214.075
246.111
276.451
304.658
330.363
353.183
372.772
388.852
401.181
409.579
413.921
414.059
410.115
402.101
390.092
374.318
354.989
332.397
306.862
278.741
248.449
216.38
182.953
148.595
113.725
78.8094
44.3802
12.3742
-20.0516
-51.7509
-82.3008
-111.434
-138.973
-164.795
-188.833
-211.048
-231.419
-249.951
-266.649
-281.546
-294.67
-306.051
-315.724
-323.72
-330.069
-334.794
-337.923
-339.439
-339.332
-337.681
-334.455
-329.657
-323.261
-315.275
-305.698
-294.529
-281.753
-267.369
-251.399
-233.847
-214.711
-194.014
-171.785
-148.051
-122.85
-96.2331
-68.2844
-39.102
-8.8154
22.4254
54.3875
86.8163
119.436
151.936
183.978
215.203
245.24
273.711
300.245
324.477
346.056
364.659
379.988
391.786
399.839
403.985
404.033
400.071
392.077
380.062
364.213
344.74
321.915
296.07
267.584
236.874
204.382
170.563
135.874
100.765
65.6641
30.9698
-2.95884
-35.8061
-67.3001
-97.2198
-125.392
-151.689
-176.025
-198.352
-218.654
-236.942
-253.252
-267.636
-280.163
-290.91
-299.96
-307.396
-313.3
-317.75
-320.818
-322.566
-323.027
-322.229
-320.236
-317.036
-312.627
-306.999
-300.131
-291.986
-282.53
-271.724
-259.515
-245.859
-230.713
-214.029
-195.771
-175.92
-154.459
-131.398
-106.768
-80.6256
-53.0536
-24.1729
5.86345
36.879
68.6571
100.864
133.221
165.396
197.015
227.682
256.98
284.485
309.774
332.44
352.103
368.42
381.088
389.861
394.563
395.009
391.295
383.402
371.411
355.543
336.054
313.265
287.553
259.335
229.061
197.197
164.204
130.532
96.6038
62.8089
29.5067
-2.99201
-34.4113
-64.5193
-93.1282
-120.094
-145.315
-168.729
-190.308
-210.057
-228.002
-244.185
-258.658
-271.481
-282.708
-292.396
-300.599
-307.364
-312.738
-316.759
-319.478
-320.902
-321.055
-319.995
-317.706
-314.199
-309.472
-303.511
-296.295
-287.807
-278.019
-266.897
-254.415
-240.546
-225.254
-208.512
-190.301
-170.6
-149.406
-126.734
-102.617
-77.1091
-50.2985
-22.2985
6.75025
36.6762
67.2897
98.2388
129.276
160.082
190.302
219.556
247.441
273.543
297.45
318.753
337.066
352.039
363.365
370.795
374.118
373.251
368.188
358.99
345.746
328.708
308.165
284.468
258.029
229.299
198.747
166.854
134.104
100.972
67.8987
35.5157
3.82724
-27.0087
-56.7148
-85.043
-111.815
-136.923
-160.312
-181.94
-201.813
-219.953
-236.385
-251.159
-264.334
-275.96
-286.105
-294.825
-302.195
-308.288
-313.177
-316.932
-319.602
-321.24
-321.706
-321.187
-319.67
-317.118
-313.495
-308.759
-302.833
-295.63
-287.067
-277.035
-265.448
-252.215
-237.256
-220.524
-201.993
-181.637
-159.496
-135.643
-110.17
-83.2232
-54.9871
-25.6979
4.37151
34.9352
65.6896
96.2649
126.318
155.47
183.348
209.63
233.952
255.988
275.479
292.153
305.795
316.246
323.394
327.173
327.488
324.426
318.068
308.492
295.854
280.371
262.264
241.803
219.254
194.913
169.114
142.159
114.361
86.0534
57.509
29.0148
0.777115
-26.9127
-52.7732
-77.479
-101.644
-334.404
-329.548
-323.22
-315.405
-306.07
-295.118
-282.513
-268.186
-252.09
-234.204
-214.491
-192.936
-169.55
-144.38
-117.489
-89.0056
-59.0664
-27.8237
4.46613
43.9552
77.8756
112.252
146.694
180.809
214.119
246.194
276.572
304.817
330.558
353.412
373.03
389.135
401.484
409.895
414.242
414.397
410.426
402.404
390.378
374.58
355.222
332.598
307.027
278.869
248.541
216.434
182.972
148.58
113.674
78.716
44.2391
12.3024
-20.1639
-51.8901
-82.4551
-111.596
-139.14
-164.964
-189.001
-211.214
-231.581
-250.109
-266.803
-281.694
-294.814
-306.19
-315.86
-323.853
-330.199
-334.922
-338.049
-339.56
-339.458
-337.806
-334.581
-329.783
-323.388
-315.404
-305.829
-294.661
-281.886
-267.504
-251.536
-233.985
-214.85
-194.154
-171.926
-148.193
-122.99
-96.3709
-68.4179
-39.2282
-8.93162
22.3227
54.302
86.7517
119.395
151.923
183.994
215.25
245.319
273.824
300.392
324.657
346.267
364.898
380.253
392.072
400.141
404.3
404.355
400.382
392.379
380.349
364.477
344.976
322.118
296.236
267.711
236.961
204.429
170.572
135.847
100.705
65.574
30.8546
-3.09528
-35.9594
-67.466
-97.3945
-125.572
-151.871
-176.207
-198.531
-218.829
-237.111
-253.414
-267.791
-280.31
-291.049
-300.091
-307.52
-313.417
-317.862
-320.924
-322.669
-323.123
-322.328
-320.333
-317.133
-312.725
-307.1
-300.235
-292.093
-282.642
-271.84
-259.636
-245.986
-230.845
-214.166
-195.913
-176.065
-154.606
-131.546
-106.915
-80.7688
-53.1914
-24.3019
5.74603
36.7766
68.5746
100.804
133.187
165.391
197.043
227.746
257.081
284.623
309.95
332.652
352.347
368.693
381.385
390.176
394.887
395.35
391.613
383.712
371.703
355.808
336.288
313.463
287.711
259.452
229.138
197.235
164.205
130.5
96.5416
62.7206
29.396
-3.12108
-34.5549
-64.6737
-93.2898
-120.26
-145.481
-168.893
-190.469
-210.213
-228.152
-244.329
-258.797
-271.613
-282.834
-292.517
-300.715
-307.476
-312.846
-316.865
-319.581
-320.999
-321.155
-320.093
-317.803
-314.297
-309.572
-303.612
-296.399
-287.913
-278.128
-267.01
-254.532
-240.666
-225.378
-208.641
-190.433
-170.734
-149.543
-126.871
-102.752
-77.2418
-50.4256
-22.4175
6.64274
36.583
67.2151
98.1861
129.248
160.083
190.334
219.623
247.544
273.684
297.627
318.966
337.313
352.315
363.664
371.111
374.456
373.574
368.507
359.296
346.031
328.964
308.387
284.652
258.172
229.402
198.809
166.877
134.089
100.924
67.8289
35.426
3.72238
-27.1304
-56.8504
-85.1868
-111.964
-137.074
-160.463
-182.089
-201.96
-220.095
-236.522
-251.292
-264.46
-276.08
-286.218
-294.932
-302.296
-308.383
-313.266
-317.016
-319.682
-321.309
-321.784
-321.265
-319.749
-317.201
-313.582
-308.852
-302.935
-295.74
-287.185
-277.161
-265.583
-252.358
-237.405
-220.679
-202.151
-181.796
-159.654
-135.797
-110.316
-83.3586
-55.1086
-25.8024
4.2883
34.876
65.6569
96.2605
126.344
155.526
183.437
209.75
234.102
256.166
275.683
292.379
306.038
316.502
323.659
327.441
327.765
324.684
318.318
308.725
296.068
280.562
262.431
241.943
219.367
194.997
169.172
142.189
114.366
86.0342
57.4674
28.953
0.698528
-27.0066
-52.8693
-77.5927
-101.769
-334.58
-329.728
-323.405
-315.596
-306.267
-295.323
-282.726
-268.407
-252.319
-234.44
-214.732
-193.18
-169.795
-144.623
-117.726
-89.2315
-59.2715
-28.0004
4.32239
43.7536
77.7212
112.152
146.648
180.818
214.185
246.318
276.755
305.056
330.85
353.754
373.417
389.56
401.939
410.369
414.725
414.898
410.898
402.859
390.806
374.972
355.571
332.899
307.276
279.062
248.678
216.516
183.001
148.556
113.596
78.5764
44.0259
12.196
-20.3331
-52.0995
-82.6869
-111.84
-139.391
-165.217
-189.253
-211.463
-231.825
-250.347
-267.033
-281.917
-295.03
-306.399
-316.063
-324.051
-330.393
-335.113
-338.239
-339.743
-339.646
-337.993
-334.769
-329.972
-323.579
-315.596
-306.024
-294.858
-282.086
-267.706
-251.741
-234.191
-215.057
-194.364
-172.137
-148.403
-123.199
-96.5758
-68.6161
-39.4154
-9.10353
22.1711
54.1765
86.6579
119.338
151.905
184.021
215.324
245.442
273.997
300.616
324.93
346.587
365.261
380.654
392.505
400.598
404.768
404.846
400.855
392.836
380.784
364.878
345.333
322.425
296.488
267.905
237.094
204.503
170.588
135.809
100.617
65.4418
30.6848
-3.29703
-36.1864
-67.7119
-97.6537
-125.838
-152.141
-176.476
-198.797
-219.088
-237.362
-253.654
-268.02
-280.527
-291.254
-300.285
-307.702
-313.59
-318.026
-321.081
-322.82
-323.267
-322.472
-320.476
-317.275
-312.87
-307.248
-300.387
-292.251
-282.806
-272.011
-259.816
-246.174
-231.04
-214.367
-196.122
-176.279
-154.824
-131.765
-107.133
-80.9805
-53.3949
-24.4923
5.57339
36.6258
68.4545
100.717
133.139
165.388
197.089
227.845
257.235
284.834
310.217
332.972
352.717
369.107
381.835
390.652
395.377
395.859
392.099
384.181
372.144
356.21
336.642
313.763
287.952
259.632
229.257
197.294
164.21
130.454
96.4508
62.5906
29.2326
-3.31213
-34.7678
-64.9027
-93.5296
-120.505
-145.728
-169.138
-190.709
-210.446
-228.376
-244.544
-259.002
-271.809
-283.021
-292.697
-300.888
-307.642
-313.007
-317.021
-319.732
-321.145
-321.302
-320.237
-317.947
-314.442
-309.719
-303.762
-296.552
-288.071
-278.29
-267.177
-254.705
-240.845
-225.562
-208.832
-190.628
-170.934
-149.746
-127.075
-102.953
-77.4382
-50.6136
-22.5931
6.48403
36.446
67.1063
98.1099
129.21
160.087
190.386
219.726
247.701
273.897
297.897
319.289
337.686
352.732
364.117
371.588
374.956
374.069
368.991
359.757
346.46
329.35
308.722
284.93
258.389
229.557
198.903
166.911
134.068
100.852
67.7226
35.2932
3.56552
-27.3133
-57.0539
-85.4029
-112.188
-137.301
-160.69
-182.313
-202.179
-220.308
-236.728
-251.49
-264.649
-276.26
-286.389
-295.093
-302.447
-308.526
-313.4
-317.142
-319.802
-321.425
-321.901
-321.382
-319.868
-317.325
-313.714
-308.993
-303.087
-295.904
-287.361
-277.351
-265.785
-252.572
-237.629
-220.911
-202.388
-182.035
-159.891
-136.027
-110.536
-83.562
-55.2912
-25.9592
4.16328
34.7869
65.6077
96.2538
126.382
155.612
183.569
209.93
234.327
256.434
275.988
292.717
306.404
316.887
324.056
327.841
328.176
325.075
318.693
309.075
296.389
280.849
262.68
242.153
219.535
195.124
169.257
142.234
114.372
86.0051
57.4049
28.8603
0.580361
-27.1477
-53.0135
-77.7633
-101.957
-334.814
-329.967
-323.651
-315.85
-306.53
-295.597
-283.01
-268.702
-252.625
-234.754
-215.053
-193.506
-170.121
-144.947
-118.043
-89.533
-59.5457
-28.2366
4.12872
43.4853
77.5154
112.018
146.586
180.83
214.273
246.484
276.998
305.375
331.24
354.211
373.933
390.127
402.545
411.003
415.37
415.557
411.536
403.467
391.378
375.495
356.037
333.301
307.607
279.32
248.861
216.626
183.038
148.524
113.494
78.3911
43.7394
12.0558
-20.5603
-52.38
-82.9967
-112.166
-139.725
-165.554
-189.59
-211.795
-232.149
-250.663
-267.34
-282.215
-295.318
-306.678
-316.334
-324.316
-330.652
-335.369
-338.49
-339.99
-339.897
-338.243
-335.021
-330.225
-323.833
-315.854
-306.285
-295.122
-282.351
-267.975
-252.013
-234.466
-215.333
-194.643
-172.418
-148.684
-123.476
-96.8489
-68.8804
-39.6651
-9.3326
21.9692
54.0097
86.5331
119.261
151.883
184.057
215.423
245.607
274.229
300.915
325.295
347.014
365.747
381.191
393.084
401.209
405.396
405.495
401.491
393.449
381.365
365.414
345.812
322.837
296.826
268.164
237.273
204.602
170.61
135.759
100.501
65.2659
30.4588
-3.56573
-36.4887
-68.0396
-97.9988
-126.194
-152.501
-176.835
-199.15
-219.433
-237.695
-253.974
-268.325
-280.816
-291.528
-300.543
-307.946
-313.82
-318.244
-321.289
-323.019
-323.459
-322.663
-320.665
-317.465
-313.062
-307.445
-300.589
-292.46
-283.025
-272.239
-260.054
-246.423
-231.299
-214.636
-196.4
-176.564
-155.113
-132.057
-107.422
-81.2624
-53.6657
-24.7459
5.34366
36.4245
68.2956
100.602
133.076
165.384
197.151
227.978
257.442
285.117
310.574
333.401
353.212
369.66
382.436
391.288
396.033
396.531
392.754
384.809
372.734
356.747
337.115
314.163
288.274
259.872
229.416
197.374
164.216
130.393
96.3301
62.4177
29.015
-3.56664
-35.0513
-65.2079
-93.8492
-120.833
-146.058
-169.464
-191.028
-210.755
-228.674
-244.829
-259.275
-272.069
-283.27
-292.936
-301.117
-307.863
-313.22
-317.228
-319.931
-321.34
-321.496
-320.428
-318.138
-314.634
-309.914
-303.96
-296.756
-288.281
-278.506
-267.399
-254.935
-241.082
-225.807
-209.085
-190.889
-171.199
-150.016
-127.345
-103.221
-77.6997
-50.8641
-22.8266
6.27249
36.263
66.962
98.0088
129.159
160.093
190.455
219.864
247.911
274.182
298.257
319.721
338.185
353.289
364.722
372.226
375.613
374.736
369.642
360.374
347.034
329.865
309.17
285.301
258.678
229.763
199.027
166.957
134.039
100.754
67.5762
35.1201
3.35689
-27.5577
-57.3258
-85.6913
-112.487
-137.605
-160.993
-182.613
-202.472
-220.592
-237.003
-251.754
-264.902
-276.501
-286.617
-295.308
-302.649
-308.716
-313.579
-317.31
-319.96
-321.569
-322.057
-321.537
-320.026
-317.49
-313.889
-309.181
-303.29
-296.123
-287.596
-277.604
-266.055
-252.857
-237.928
-221.221
-202.704
-182.354
-160.207
-136.335
-110.829
-83.8337
-55.5354
-26.1685
3.99623
34.6678
65.5417
96.2446
126.433
155.725
183.746
210.169
234.627
256.79
276.395
293.168
306.891
317.401
324.586
328.376
328.716
325.601
319.193
309.542
296.816
281.232
263.013
242.434
219.761
195.293
169.371
142.293
114.381
85.9661
57.3214
28.7366
0.42226
-27.3365
-53.2059
-77.991
-102.208
-335.106
-330.267
-323.959
-316.168
-306.859
-295.939
-283.366
-269.071
-253.007
-235.148
-215.455
-193.913
-170.529
-145.352
-118.439
-89.9105
-59.89
-28.5327
3.88824
43.1462
77.2577
111.852
146.509
180.845
214.383
246.691
277.302
305.772
331.728
354.782
374.579
390.835
403.304
411.795
416.178
416.371
412.338
404.23
392.094
376.15
356.619
333.804
308.021
279.641
249.089
216.762
183.085
148.484
113.366
78.161
43.3781
11.8825
-20.8469
-52.7325
-83.3849
-112.574
-140.143
-165.976
-190.011
-212.21
-232.555
-251.059
-267.724
-282.587
-295.678
-307.026
-316.673
-324.647
-330.976
-335.687
-338.802
-340.3
-340.21
-338.556
-335.335
-330.541
-324.152
-316.176
-306.611
-295.451
-282.684
-268.312
-252.354
-234.809
-215.679
-194.992
-172.769
-149.035
-123.824
-97.1908
-69.2112
-39.9781
-9.61948
21.7161
53.8009
86.3769
119.165
151.854
184.102
215.546
245.812
274.519
301.289
325.751
347.549
366.354
381.863
393.809
401.974
406.183
406.3
402.291
394.218
382.094
366.085
346.41
323.351
297.248
268.488
237.497
204.726
170.637
135.696
100.355
65.0456
30.1755
-3.90222
-36.8673
-68.4498
-98.4307
-126.639
-152.951
-177.284
-199.592
-219.864
-238.111
-254.374
-268.706
-281.177
-291.869
-300.865
-308.249
-314.107
-318.516
-321.548
-323.266
-323.702
-322.902
-320.9
-317.701
-313.302
-307.691
-300.842
-292.723
-283.299
-272.524
-260.351
-246.734
-231.623
-214.972
-196.748
-176.92
-155.475
-132.421
-107.783
-81.6155
-54.0046
-25.0632
5.05565
36.172
68.0966
100.457
132.996
165.378
197.228
228.143
257.701
285.47
311.02
333.938
353.831
370.352
383.188
392.085
396.855
397.365
393.58
385.597
373.473
357.42
337.707
314.664
288.676
260.172
229.614
197.474
164.223
130.316
96.1784
62.2008
28.7423
-3.88533
-35.4064
-65.5901
-94.2493
-121.242
-146.469
-169.872
-191.427
-211.142
-229.046
-245.186
-259.616
-272.394
-283.581
-293.234
-301.403
-308.139
-313.487
-317.487
-320.181
-321.586
-321.739
-320.667
-318.377
-314.875
-310.158
-304.209
-297.01
-288.543
-278.775
-267.677
-255.223
-241.379
-226.114
-209.402
-191.214
-171.532
-150.354
-127.684
-103.556
-78.0272
-51.1776
-23.1191
6.00742
36.0329
66.7818
97.882
129.095
160.1
190.542
220.036
248.174
274.539
298.707
320.261
338.809
353.987
365.479
373.026
376.434
375.57
370.457
361.147
347.752
330.511
309.729
285.764
259.04
230.021
199.182
167.014
134.002
100.63
67.3848
34.9106
3.0968
-27.8641
-57.6664
-86.0526
-112.861
-137.984
-161.372
-182.987
-202.838
-220.948
-237.347
-252.085
-265.217
-276.801
-286.901
-295.576
-302.902
-308.953
-313.802
-317.519
-320.159
-321.76
-322.251
-321.731
-320.224
-317.696
-314.108
-309.416
-303.543
-296.396
-287.89
-277.92
-266.392
-253.214
-238.302
-221.608
-203.1
-182.753
-160.603
-136.72
-111.195
-84.174
-55.8416
-26.4307
3.78683
34.5184
65.4588
96.2327
126.496
155.867
183.966
210.468
235.002
257.235
276.904
293.733
307.5
318.043
325.249
329.047
329.385
326.261
319.819
310.126
297.351
281.71
263.429
242.784
220.042
195.505
169.513
142.368
114.391
85.9169
57.2166
28.5818
0.223724
-27.5732
-53.4464
-78.2759
-102.522
-335.458
-330.626
-324.328
-316.549
-307.254
-296.35
-283.792
-269.514
-253.466
-235.62
-215.937
-194.401
-171.02
-145.84
-118.915
-90.3647
-60.3052
-28.8889
3.60942
42.7271
76.9475
111.652
146.416
180.862
214.514
246.939
277.666
306.25
332.313
355.467
375.354
391.686
404.215
412.748
417.15
417.347
413.302
405.148
392.954
376.936
357.319
334.407
308.518
280.026
249.362
216.925
183.14
148.436
113.214
77.8875
42.9406
11.6766
-21.1953
-53.1581
-83.8523
-113.065
-140.646
-166.483
-190.516
-212.708
-233.043
-251.534
-268.185
-283.033
-296.11
-307.444
-317.079
-325.043
-331.364
-336.069
-339.177
-340.675
-340.585
-338.93
-335.712
-330.92
-324.533
-316.562
-307.002
-295.846
-283.082
-268.716
-252.763
-235.222
-216.094
-195.411
-173.191
-149.457
-124.242
-97.6018
-69.6088
-40.3547
-9.96469
21.4111
53.5499
86.1887
119.049
151.819
184.155
215.694
246.059
274.866
301.737
326.298
348.191
367.084
382.67
394.68
402.893
407.132
407.264
403.252
395.143
382.969
366.891
347.13
323.97
297.755
268.877
237.765
204.874
170.669
135.619
100.178
64.7799
29.8343
-4.30721
-37.3228
-68.9432
-98.9501
-127.174
-153.492
-177.823
-200.123
-220.382
-238.612
-254.854
-269.163
-281.611
-292.279
-301.252
-308.614
-314.452
-318.843
-321.859
-323.563
-323.993
-323.188
-321.183
-317.985
-313.59
-307.986
-301.146
-293.038
-283.627
-272.867
-260.709
-247.108
-232.012
-215.376
-197.166
-177.348
-155.911
-132.86
-108.218
-82.0403
-54.4121
-25.4447
4.70878
35.8675
67.857
100.283
132.899
165.37
197.319
228.341
258.01
285.893
311.556
334.582
354.575
371.184
384.092
393.043
397.844
398.365
394.571
386.545
374.361
358.228
338.418
315.266
289.159
260.532
229.851
197.592
164.231
130.223
95.9952
61.9393
28.4138
-4.26882
-35.8337
-66.0497
-94.7304
-121.735
-146.964
-170.362
-191.906
-211.606
-229.493
-245.614
-260.025
-272.785
-283.955
-293.592
-301.747
-308.47
-313.807
-317.797
-320.481
-321.88
-322.029
-320.954
-318.664
-315.164
-310.45
-304.507
-297.316
-288.857
-279.099
-268.011
-255.568
-241.735
-226.482
-209.782
-191.605
-171.932
-150.759
-128.091
-103.96
-78.4209
-51.5546
-23.471
5.6883
35.7548
66.5652
97.7287
129.017
160.108
190.644
220.242
248.489
274.966
299.247
320.91
339.558
354.825
366.388
373.987
377.423
376.569
371.435
362.077
348.615
331.287
310.4
286.32
259.475
230.33
199.367
167.081
133.957
100.479
67.1467
34.6653
2.78529
-28.233
-58.0763
-86.487
-113.31
-138.44
-161.828
-183.437
-203.278
-221.375
-237.759
-252.481
-265.596
-277.162
-287.243
-295.898
-303.205
-309.238
-314.07
-317.772
-320.398
-321.996
-322.481
-321.962
-320.461
-317.943
-314.37
-309.698
-303.847
-296.723
-288.243
-278.299
-266.797
-253.643
-238.752
-222.074
-203.575
-183.232
-161.079
-137.184
-111.635
-84.5832
-56.2104
-26.7462
3.53471
34.3384
65.3585
96.2178
126.572
156.036
184.23
210.827
235.453
257.77
277.515
294.411
308.232
318.815
326.045
329.853
330.187
327.052
320.57
310.828
297.993
282.284
263.929
243.204
220.379
195.758
169.683
142.456
114.403
85.857
57.0905
28.3956
-0.0155717
-27.8586
-53.735
-78.6182
-102.899
-335.867
-331.045
-324.758
-316.994
-307.715
-296.829
-284.289
-270.03
-254.002
-236.171
-216.5
-194.972
-171.592
-146.409
-119.472
-90.8961
-60.7924
-29.3061
3.30507
42.2144
76.5845
111.418
146.307
180.881
214.667
247.227
278.091
306.807
332.995
356.267
376.259
392.68
405.279
413.86
418.287
418.486
414.424
406.22
393.959
377.854
358.135
335.11
309.097
280.476
249.68
217.114
183.204
148.38
113.038
77.5725
42.4263
11.4374
-21.6083
-53.6583
-84.3995
-113.639
-141.234
-167.076
-191.106
-213.29
-233.613
-252.088
-268.723
-283.554
-296.614
-307.932
-317.553
-325.506
-331.817
-336.515
-339.615
-341.112
-341.022
-339.368
-336.151
-331.362
-324.979
-317.013
-307.459
-296.307
-283.548
-269.188
-253.24
-235.703
-216.579
-195.901
-173.684
-149.948
-124.731
-98.0821
-70.0736
-40.795
-10.369
21.0536
53.256
85.9678
118.912
151.777
184.217
215.866
246.345
275.271
302.261
326.937
348.941
367.936
383.612
395.698
403.967
408.241
408.39
404.372
396.224
383.991
367.832
347.97
324.692
298.347
269.331
238.077
205.045
170.706
135.528
99.9703
64.4681
29.4346
-4.78152
-37.856
-69.5205
-99.5576
-127.799
-154.124
-178.453
-200.744
-220.987
-239.196
-255.415
-269.697
-282.118
-292.757
-301.703
-309.04
-314.854
-319.224
-322.222
-323.911
-324.332
-323.521
-321.513
-318.316
-313.927
-308.33
-301.5
-293.405
-284.01
-273.266
-261.126
-247.544
-232.466
-215.849
-197.653
-177.848
-156.42
-133.372
-108.726
-82.5372
-54.8887
-25.8908
4.30261
35.5102
67.5763
100.078
132.784
165.36
197.424
228.571
258.371
286.387
312.181
335.333
355.443
372.155
385.148
394.162
399
399.534
395.728
387.653
375.398
359.172
339.249
315.968
289.723
260.952
230.126
197.729
164.238
130.113
95.78
61.6327
28.0289
-4.71783
-36.3338
-66.5873
-95.2931
-122.311
-147.543
-170.934
-192.466
-212.149
-230.015
-246.114
-260.503
-273.242
-284.391
-294.009
-302.148
-308.857
-314.181
-318.159
-320.832
-322.224
-322.368
-321.289
-318.999
-315.501
-310.791
-304.855
-297.673
-289.224
-279.476
-268.401
-255.971
-242.151
-226.912
-210.226
-192.061
-172.399
-151.234
-128.566
-104.431
-78.8814
-51.9953
-23.8831
5.31462
35.4281
66.3116
97.5485
128.924
160.116
190.763
220.481
248.856
275.464
299.877
321.666
340.433
355.803
367.451
375.11
378.579
377.736
372.578
363.164
349.624
332.193
311.184
286.97
259.981
230.689
199.582
167.159
133.904
100.3
66.8588
34.3858
2.42212
-28.6652
-58.5558
-86.995
-113.835
-138.972
-162.359
-183.962
-203.792
-221.873
-238.241
-252.944
-266.039
-277.583
-287.641
-296.274
-303.558
-309.57
-314.383
-318.066
-320.677
-322.251
-322.751
-322.231
-320.736
-318.232
-314.676
-310.027
-304.201
-297.105
-288.655
-278.742
-267.27
-254.144
-239.277
-222.618
-204.131
-183.793
-161.635
-137.725
-112.15
-85.0622
-56.6418
-27.1153
3.23942
34.1274
65.2405
96.1996
126.659
156.233
184.538
211.246
235.979
258.395
278.229
295.203
309.088
319.717
326.976
330.795
331.125
327.973
321.447
311.647
298.743
282.955
264.511
243.694
220.772
196.053
169.881
142.559
114.416
85.7863
56.9427
28.1775
-0.296038
-28.1931
-54.0721
-79.0181
-103.341
-336.335
-331.523
-325.249
-317.502
-308.241
-297.376
-284.857
-270.621
-254.615
-236.801
-217.144
-195.624
-172.248
-147.061
-120.11
-91.5057
-61.3531
-29.7861
2.98824
41.5938
76.1689
111.151
146.181
180.902
214.84
247.557
278.576
307.443
333.775
357.182
377.294
393.818
406.497
415.134
419.589
419.789
415.707
407.448
395.109
378.905
359.069
335.913
309.759
280.989
250.043
217.33
183.275
148.316
112.839
77.2188
41.8373
11.1617
-22.0898
-54.2346
-85.0274
-114.296
-141.907
-167.754
-191.781
-213.956
-234.264
-252.722
-269.338
-284.149
-297.19
-308.49
-318.095
-326.035
-332.335
-337.024
-340.116
-341.611
-341.521
-339.867
-336.654
-331.867
-325.488
-317.528
-307.981
-296.833
-284.08
-269.728
-253.786
-236.253
-217.135
-196.461
-174.247
-150.511
-125.29
-98.6322
-70.606
-41.2994
-10.833
20.6432
52.9186
85.7139
118.755
151.727
184.285
216.061
246.673
275.734
302.858
327.668
349.798
368.91
384.689
396.862
405.196
409.512
409.679
405.653
397.462
385.162
368.91
348.931
325.518
299.023
269.848
238.433
205.24
170.746
135.422
99.7308
64.1095
28.9756
-5.32598
-38.4676
-70.1825
-100.254
-128.516
-154.848
-179.175
-201.454
-221.679
-239.865
-256.056
-270.308
-282.697
-293.305
-302.219
-309.526
-315.313
-319.66
-322.637
-324.309
-324.721
-323.901
-321.889
-318.695
-314.311
-308.723
-301.905
-293.826
-284.448
-273.723
-261.604
-248.043
-232.986
-216.389
-198.212
-178.421
-157.003
-133.958
-109.308
-83.1068
-55.435
-26.4022
3.83664
35.0992
67.2543
99.8408
132.651
165.346
197.543
228.832
258.782
286.95
312.896
336.193
356.437
373.266
386.357
395.443
400.325
400.872
397.051
388.922
376.586
360.252
340.199
316.771
290.366
261.43
230.44
197.884
164.245
129.985
95.532
61.28
27.5869
-5.23313
-36.9073
-67.2037
-95.938
-122.97
-148.206
-171.59
-193.107
-212.769
-230.612
-246.686
-261.049
-273.763
-284.89
-294.487
-302.607
-309.298
-314.607
-318.573
-321.233
-322.617
-322.755
-321.671
-319.381
-315.886
-311.181
-305.253
-298.081
-289.644
-279.908
-268.847
-256.431
-242.626
-227.404
-210.734
-192.583
-172.934
-151.777
-129.111
-104.971
-79.4089
-52.5002
-24.3556
4.88586
35.052
66.0206
97.3406
128.816
160.122
190.897
220.753
249.274
276.033
300.596
322.532
341.434
356.923
368.668
376.396
379.905
379.071
373.886
364.41
350.778
333.23
312.081
287.712
260.56
231.099
199.827
167.246
133.843
100.093
66.5163
34.0754
2.00666
-29.1619
-59.1054
-87.577
-114.436
-139.581
-162.968
-184.563
-204.38
-222.444
-238.791
-253.474
-266.545
-278.064
-288.096
-296.703
-303.962
-309.95
-314.739
-318.401
-320.996
-322.548
-323.059
-322.537
-321.051
-318.56
-315.025
-310.403
-304.606
-297.541
-289.126
-279.248
-267.811
-254.718
-239.877
-223.24
-204.767
-184.434
-162.271
-138.345
-112.74
-85.6118
-57.1363
-27.5386
2.90041
33.8848
65.1045
96.1778
126.758
156.457
184.89
211.724
236.58
259.11
279.046
296.109
310.066
320.75
328.041
331.875
332.198
329.025
322.45
312.584
299.6
283.721
265.178
244.254
221.221
196.39
170.106
142.676
114.43
85.7042
56.7728
27.9272
-0.618158
-28.5772
-54.4577
-79.4761
-103.846
-336.86
-332.061
-325.802
-318.072
-308.832
-297.992
-285.496
-271.285
-255.305
-237.51
-217.87
-196.359
-172.987
-147.796
-120.83
-92.1942
-61.9889
-30.3323
2.62245
40.9005
75.7025
110.851
146.039
180.924
215.033
247.927
279.122
308.159
334.654
358.213
378.46
395.099
407.869
416.569
421.057
421.258
417.152
408.831
396.404
380.088
360.121
336.817
310.503
281.565
250.45
217.57
183.355
148.242
112.617
76.8297
41.1822
10.8393
-22.6445
-54.889
-85.7371
-115.038
-142.666
-168.518
-192.542
-214.705
-234.997
-253.435
-270.03
-284.819
-297.837
-309.117
-318.704
-326.629
-332.917
-337.597
-340.681
-342.172
-342.082
-340.429
-337.219
-332.435
-326.061
-318.109
-308.568
-297.426
-284.679
-270.336
-254.4
-236.871
-217.759
-197.091
-174.881
-151.144
-125.92
-99.2523
-71.2067
-41.8681
-11.3571
20.1791
52.537
85.4263
118.575
151.67
184.361
216.279
247.04
276.253
303.53
328.49
350.763
370.007
385.903
398.174
406.582
410.944
411.132
407.096
398.858
386.482
370.124
350.014
326.448
299.784
270.431
238.832
205.458
170.788
135.3
99.4587
63.7031
28.4562
-5.94147
-39.1585
-70.9299
-101.039
-129.324
-155.665
-179.988
-202.254
-222.459
-240.618
-256.778
-270.996
-283.349
-293.92
-302.8
-310.073
-315.83
-320.149
-323.104
-324.756
-325.156
-324.327
-322.313
-319.121
-314.743
-309.165
-302.361
-294.299
-284.94
-274.237
-262.142
-248.605
-233.572
-216.997
-198.84
-179.066
-157.66
-134.619
-109.965
-83.7494
-56.0512
-26.9795
3.31033
34.6332
66.8906
99.5716
132.499
165.329
197.674
229.124
259.243
287.584
313.7
337.161
357.555
374.517
387.72
396.888
401.819
402.382
398.541
390.353
377.925
361.47
341.269
317.675
291.09
261.967
230.791
198.056
164.25
129.838
95.2504
60.8806
27.0873
-5.81551
-37.5551
-67.8995
-96.6658
-123.715
-148.953
-172.329
-193.829
-213.469
-231.284
-247.33
-261.664
-274.35
-285.451
-295.024
-303.123
-309.795
-315.088
-319.039
-321.685
-323.059
-323.19
-322.102
-319.812
-316.319
-311.62
-305.701
-298.541
-290.115
-280.394
-269.349
-256.95
-243.162
-227.958
-211.305
-193.172
-173.537
-152.388
-129.725
-105.581
-80.0038
-53.0702