/*--------------------------------*- C++ -*----------------------------------*\
| =========                 |                                                 |
| \\      /  F ield         | OpenFOAM: The Open Source CFD Toolbox           |
|  \\    /   O peration     | Version:  3.0.1                                 |
|   \\  /    A nd           | Web:      www.OpenFOAM.org                      |
|    \\/     M anipulation  |                                                 |
\*---------------------------------------------------------------------------*/
FoamFile
{
    version     2.0;
    format      ascii;
    class       surfaceScalarField;
    location    "45.8";
    object      alphaPhi;
}
// * * * * * * * * * * * * * * * * * * * * * * * * * * * * * * * * * * * * * //

dimensions      [0 3 -1 0 0 0 0];

internalField   nonuniform List<scalar> 
42423
(
-0.000118912
3.83722e-06
-0.000121949
3.03693e-06
-0.000124266
2.31752e-06
-0.000125897
1.63041e-06
-0.000126866
9.69251e-07
-0.000127209
3.428e-07
-0.000126821
-3.87941e-07
-0.000125787
-1.03413e-06
-0.000124155
-1.63154e-06
-0.000121806
-2.3489e-06
-0.000118795
-3.01106e-06
-0.000115234
-3.56137e-06
-0.000110902
-4.33194e-06
-0.000105937
-4.96454e-06
-0.000100151
-5.78645e-06
-9.36183e-05
-6.53277e-06
-8.64343e-05
-7.18407e-06
-7.84016e-05
-8.03269e-06
-6.9499e-05
-8.90257e-06
-5.99073e-05
-9.5918e-06
-4.92813e-05
-1.0626e-05
-3.78097e-05
-1.14716e-05
-2.56212e-05
-1.21885e-05
-1.24865e-05
-1.31348e-05
1.3921e-06
-1.38786e-05
1.61928e-05
-1.48008e-05
3.18824e-05
-1.56897e-05
4.80804e-05
-1.6198e-05
6.49645e-05
-1.68841e-05
8.25111e-05
-1.75467e-05
0.000100262
-1.77508e-05
0.00011833
-1.80677e-05
0.000136444
-1.81147e-05
0.000154395
-1.7951e-05
0.000172024
-1.7629e-05
0.000188932
-1.6908e-05
0.000204975
-1.6043e-05
0.000219935
-1.49605e-05
0.000233455
-1.35198e-05
0.000245373
-1.19177e-05
0.000255403
-1.00299e-05
0.00026345
-8.04718e-06
0.000269335
-5.8856e-06
0.000272891
-3.55562e-06
0.000274147
-1.25642e-06
0.000273035
1.11244e-06
0.000269299
3.7355e-06
0.000263199
6.10001e-06
0.000255011
8.18826e-06
0.000244628
1.03829e-05
0.000232356
1.22723e-05
0.000218386
1.39692e-05
0.000202983
1.54033e-05
0.000186407
1.65759e-05
0.000168803
1.76039e-05
0.000150523
1.828e-05
0.000131796
1.87271e-05
0.000112843
1.89532e-05
9.40262e-05
1.88166e-05
7.54115e-05
1.86147e-05
5.72682e-05
1.81433e-05
3.9696e-05
1.75722e-05
2.28189e-05
1.6877e-05
6.76094e-06
1.6058e-05
-8.39084e-06
1.51518e-05
-2.26e-05
1.42091e-05
-3.5812e-05
1.3212e-05
-4.80938e-05
1.22819e-05
-5.9376e-05
1.12822e-05
-6.97769e-05
1.04009e-05
-7.92954e-05
9.51846e-06
-8.79603e-05
8.66488e-06
-9.58749e-05
7.91465e-06
-0.0001031
7.22521e-06
-0.000109654
6.55397e-06
-0.000115662
6.00838e-06
-0.000121094
5.43143e-06
-0.000126001
4.90674e-06
-0.000130426
4.42526e-06
-0.000134307
3.8814e-06
-0.000137591
3.28331e-06
-0.00014027
2.67884e-06
-0.000142189
1.91923e-06
-0.000143234
1.04489e-06
-0.000143456
2.22008e-07
-0.000142647
-8.09474e-07
-0.000140863
-1.78358e-06
-0.000138117
-2.74683e-06
-0.000134362
-3.75465e-06
-0.000129619
-4.74286e-06
-0.000123885
-5.73458e-06
-0.00011726
-6.62485e-06
-0.000109684
-7.57646e-06
-0.000101161
-8.52268e-06
-9.15796e-05
-9.58178e-06
-8.10214e-05
-1.05583e-05
-6.94055e-05
-1.16159e-05
-5.6754e-05
-1.26516e-05
-4.30507e-05
-1.37034e-05
-2.84543e-05
-1.45964e-05
-1.30282e-05
-1.54262e-05
3.03119e-06
-1.60594e-05
1.96177e-05
-1.65865e-05
3.65779e-05
-1.69603e-05
5.37688e-05
-1.7191e-05
7.11231e-05
-1.73544e-05
8.85159e-05
-1.73928e-05
0.000105853
-1.73372e-05
0.000123059
-1.72061e-05
0.000140069
-1.70101e-05
0.000156668
-1.65994e-05
0.000172737
-1.60682e-05
0.000188076
-1.53393e-05
0.000202531
-1.44553e-05
0.000215801
-1.32695e-05
0.000227707
-1.1907e-05
0.000238047
-1.03396e-05
0.000246598
-8.55079e-06
0.000253187
-6.58891e-06
0.000257656
-4.46889e-06
0.000259857
-2.20134e-06
0.000259784
7.31318e-08
0.000257346
2.4381e-06
0.000252495
4.85061e-06
0.000245336
7.15856e-06
0.000236011
9.32556e-06
0.000224667
1.13444e-05
0.000211471
1.31952e-05
0.000196699
1.47723e-05
0.000180584
1.61148e-05
0.000163403
1.71813e-05
0.000145461
1.79416e-05
0.000126987
1.84741e-05
0.000108349
1.86383e-05
8.9727e-05
1.86219e-05
7.14262e-05
1.83007e-05
5.35777e-05
1.78485e-05
3.64768e-05
1.7101e-05
2.02e-05
1.62767e-05
4.79934e-06
1.54007e-05
-9.52849e-06
1.43278e-05
-2.283e-05
1.33015e-05
-3.50122e-05
1.21822e-05
-4.61219e-05
1.11097e-05
-5.61252e-05
1.00033e-05
-6.50792e-05
8.95404e-06
-7.31091e-05
8.02991e-06
-8.01036e-05
6.99449e-06
-8.6188e-05
6.08438e-06
-9.13356e-05
5.14764e-06
-9.57217e-05
4.38606e-06
-9.92762e-05
3.55454e-06
-0.000102069
2.79311e-06
-0.000104193
2.1232e-06
-0.000105676
1.48327e-06
-0.000106581
9.05485e-07
-0.000107046
4.65028e-07
-0.000107112
6.60673e-08
-0.000106823
-2.89187e-07
-0.000106154
-6.68938e-07
-0.00010535
-8.03846e-07
-0.00010409
-1.2606e-06
-0.000102491
-1.59886e-06
-0.000100467
-2.02399e-06
-9.79777e-05
-2.4892e-06
-9.50466e-05
-2.9311e-06
-9.16384e-05
-3.40819e-06
-8.76572e-05
-3.98116e-06
-8.30752e-05
-4.58201e-06
-7.78961e-05
-5.17915e-06
-7.20863e-05
-5.8098e-06
-6.56076e-05
-6.47868e-06
-5.85838e-05
-7.02382e-06
-5.07768e-05
-7.80701e-06
-4.23219e-05
-8.45494e-06
-3.31001e-05
-9.22183e-06
-2.31378e-05
-9.96239e-06
-1.24591e-05
-1.06787e-05
-1.01438e-06
-1.14448e-05
1.11787e-05
-1.21931e-05
2.41018e-05
-1.29232e-05
3.77035e-05
-1.36018e-05
5.18913e-05
-1.41879e-05
6.65994e-05
-1.47081e-05
8.17676e-05
-1.51682e-05
9.71934e-05
-1.54259e-05
0.000112784
-1.55908e-05
0.000128409
-1.56253e-05
0.000143801
-1.53919e-05
0.000158799
-1.49978e-05
0.00017315
-1.43512e-05
0.00018663
-1.34804e-05
0.000198927
-1.22971e-05
0.000209864
-1.09366e-05
0.000219251
-9.38668e-06
0.000226811
-7.56002e-06
0.000232484
-5.67388e-06
0.000236043
-3.55861e-06
0.000237443
-1.39958e-06
0.000236693
7.49162e-07
0.000233649
3.044e-06
0.000228448
5.20095e-06
0.000221219
7.2293e-06
0.000212088
9.13147e-06
0.00020127
1.08174e-05
0.00018888
1.23898e-05
0.000175271
1.36098e-05
0.000160614
1.46566e-05
0.000145247
1.53673e-05
0.000129328
1.59189e-05
0.000113174
1.61542e-05
9.69991e-05
1.61744e-05
8.10629e-05
1.59362e-05
6.53703e-05
1.56926e-05
5.02519e-05
1.51183e-05
3.58007e-05
1.44513e-05
2.21153e-05
1.36854e-05
9.25519e-06
1.28601e-05
-2.76698e-06
1.20222e-05
-1.38849e-05
1.11179e-05
-2.40575e-05
1.01726e-05
-3.33855e-05
9.32804e-06
-4.17964e-05
8.41084e-06
-4.93306e-05
7.53424e-06
-5.61222e-05
6.7916e-06
-6.23117e-05
6.18945e-06
-6.78415e-05
5.52978e-06
-7.28771e-05
5.03565e-06
-7.74158e-05
4.53864e-06
-8.14891e-05
4.07333e-06
-8.5165e-05
3.67591e-06
-8.83947e-05
3.22968e-06
-9.13999e-05
3.00518e-06
-9.40001e-05
2.6002e-06
-9.62751e-05
2.27508e-06
-9.81884e-05
1.91326e-06
-9.97311e-05
1.54269e-06
-0.00010093
1.19893e-06
-0.00010166
7.29791e-07
-0.000101956
2.96327e-07
-0.000101755
-2.0115e-07
-0.000101132
-6.22756e-07
-9.99958e-05
-1.13643e-06
-9.84122e-05
-1.58362e-06
-9.637e-05
-2.0422e-06
-9.38713e-05
-2.49868e-06
-9.08363e-05
-3.03503e-06
-8.72603e-05
-3.57593e-06
-8.3208e-05
-4.0523e-06
-7.84701e-05
-4.73794e-06
-7.31188e-05
-5.35137e-06
-6.70811e-05
-6.03765e-06
-6.03711e-05
-6.71006e-06
-5.29221e-05
-7.44905e-06
-4.48391e-05
-8.08302e-06
-3.60489e-05
-8.7902e-06
-2.6541e-05
-9.50797e-06
-1.63979e-05
-1.01431e-05
-5.68534e-06
-1.07126e-05
5.70087e-06
-1.13863e-05
1.7695e-05
-1.19941e-05
3.03242e-05
-1.26293e-05
4.35037e-05
-1.31796e-05
5.71308e-05
-1.36271e-05
7.11125e-05
-1.39818e-05
8.52694e-05
-1.41571e-05
9.94482e-05
-1.41789e-05
0.000113467
-1.40192e-05
0.000127264
-1.37971e-05
0.00014073
-1.34663e-05
0.000153843
-1.31125e-05
0.000166661
-1.28183e-05
0.000179069
-1.2408e-05
0.000191037
-1.19689e-05
0.000202535
-1.14978e-05
0.000213264
-1.07294e-05
0.000222961
-9.69715e-06
0.000231356
-8.39571e-06
0.000238044
-6.68784e-06
0.000242845
-4.80103e-06
0.000245333
-2.48861e-06
0.00024527
6.29511e-08
0.00024278
2.48959e-06
0.0002379
4.88e-06
0.000231012
6.88809e-06
0.000222089
8.92264e-06
0.000211126
1.09629e-05
0.000198517
1.26094e-05
0.000184428
1.40889e-05
0.000169326
1.5102e-05
0.000153491
1.58344e-05
0.000137204
1.62875e-05
0.000120924
1.62802e-05
0.00010481
1.61133e-05
8.90544e-05
1.5756e-05
7.39023e-05
1.51521e-05
5.93683e-05
1.4534e-05
4.55375e-05
1.38308e-05
3.24741e-05
1.30634e-05
2.01142e-05
1.23599e-05
8.57163e-06
1.15426e-05
-2.26517e-06
1.08368e-05
-1.24782e-05
1.0213e-05
-2.1964e-05
9.48575e-06
-3.07301e-05
8.76614e-06
-3.87732e-05
8.04307e-06
-4.60941e-05
7.32092e-06
-5.27283e-05
6.63423e-06
-5.86943e-05
5.96601e-06
-6.40389e-05
5.34459e-06
-6.88085e-05
4.76957e-06
-7.30419e-05
4.23339e-06
-7.68032e-05
3.76132e-06
-8.0142e-05
3.33877e-06
-8.30958e-05
2.95382e-06
-8.5713e-05
2.6172e-06
-8.79996e-05
2.28658e-06
-8.99727e-05
1.97311e-06
-9.16132e-05
1.64054e-06
-9.28775e-05
1.26431e-06
-9.37226e-05
8.45011e-07
-9.41221e-05
3.99552e-07
-9.38992e-05
-2.22928e-07
-9.30573e-05
-8.41922e-07
-9.14611e-05
-1.59623e-06
-8.90607e-05
-2.40038e-06
-8.58554e-05
-3.20535e-06
-8.17426e-05
-4.11282e-06
-7.66596e-05
-5.08299e-06
-7.06907e-05
-5.96892e-06
-6.361e-05
-7.08066e-06
-5.54452e-05
-8.16487e-06
-4.64169e-05
-9.02835e-06
-3.62944e-05
-1.01226e-05
-2.52043e-05
-1.10901e-05
-1.30314e-05
-1.2173e-05
1.11454e-07
-1.31429e-05
1.39547e-05
-1.38433e-05
2.87055e-05
-1.47508e-05
4.42443e-05
-1.55389e-05
6.02252e-05
-1.5981e-05
7.68211e-05
-1.6596e-05
9.37699e-05
-1.69488e-05
0.00011109
-1.732e-05
0.000128616
-1.7526e-05
0.000146016
-1.74005e-05
0.000163366
-1.73499e-05
0.000180501
-1.71356e-05
0.000197136
-1.66344e-05
0.000213175
-1.60392e-05
0.000228415
-1.52401e-05
0.000242688
-1.42736e-05
0.000255766
-1.30774e-05
0.000267451
-1.16852e-05
0.000277558
-1.01075e-05
0.000285952
-8.39403e-06
-6.86002e-06
-0.000118949
7.68052e-06
-0.000121989
6.07684e-06
-0.000124306
4.63419e-06
-0.000125936
3.2608e-06
-0.000126908
1.94066e-06
-0.000127249
6.83518e-07
-0.000126861
-7.75257e-07
-0.000125825
-2.07003e-06
-0.000124191
-3.26579e-06
-0.000121845
-4.69548e-06
-0.000118834
-6.02135e-06
-0.000115274
-7.12151e-06
-0.000110957
-8.6487e-06
-0.000105979
-9.94262e-06
-0.000100183
-1.15831e-05
-9.36605e-05
-1.3055e-05
-8.64775e-05
-1.43671e-05
-7.84459e-05
-1.60643e-05
-6.95428e-05
-1.78058e-05
-5.99525e-05
-1.91822e-05
-4.93239e-05
-2.12546e-05
-3.78504e-05
-2.29452e-05
-2.56609e-05
-2.43781e-05
-1.25249e-05
-2.62709e-05
1.3565e-06
-2.77601e-05
1.61601e-05
-2.96045e-05
3.18485e-05
-3.13781e-05
4.80514e-05
-3.2401e-05
6.49442e-05
-3.3777e-05
8.25061e-05
-3.51086e-05
0.00010026
-3.55049e-05
0.000118333
-3.61403e-05
0.000136459
-3.62409e-05
0.00015442
-3.59124e-05
0.00017206
-3.52689e-05
0.000188988
-3.38358e-05
0.000205045
-3.21007e-05
0.000220009
-2.99242e-05
0.000233537
-2.7048e-05
0.000245466
-2.38468e-05
0.000255508
-2.00721e-05
0.00026357
-1.61094e-05
0.000269462
-1.17771e-05
0.00027301
-7.10451e-06
0.000274273
-2.51868e-06
0.000273154
2.23058e-06
0.000269418
7.47135e-06
0.000263323
1.21951e-05
0.000255127
1.63846e-05
0.000244736
2.07739e-05
0.000232454
2.45545e-05
0.000218474
2.79491e-05
0.000203058
3.08186e-05
0.00018647
3.31639e-05
0.000168855
3.52196e-05
0.000150564
3.65709e-05
0.000131825
3.74658e-05
0.000112863
3.79152e-05
9.40353e-05
3.7644e-05
7.54104e-05
3.72396e-05
5.72566e-05
3.62971e-05
3.96801e-05
3.51488e-05
2.27995e-05
3.37576e-05
6.73786e-06
3.21196e-05
-8.41939e-06
3.0309e-05
-2.26314e-05
2.84211e-05
-3.58447e-05
2.64253e-05
-4.81258e-05
2.45629e-05
-5.9408e-05
2.25643e-05
-6.98105e-05
2.08034e-05
-7.9327e-05
1.9035e-05
-8.79869e-05
1.73248e-05
-9.58975e-05
1.58252e-05
-0.000103118
1.44462e-05
-0.000109663
1.30989e-05
-0.000115661
1.20061e-05
-0.000121083
1.0853e-05
-0.000125978
9.80243e-06
-0.000130394
8.84099e-06
-0.000134265
7.75248e-06
-0.000137519
6.53714e-06
-0.000140171
5.3304e-06
-0.000142082
3.83023e-06
-0.000143116
2.07861e-06
-0.00014333
4.36567e-07
-0.00014252
-1.62023e-06
-0.000140728
-3.57577e-06
-0.000137975
-5.49942e-06
-0.000134222
-7.50833e-06
-0.00012949
-9.47426e-06
-0.000123751
-1.14739e-05
-0.000117144
-1.32327e-05
-0.000109591
-1.51291e-05
-0.000101063
-1.70507e-05
-9.14971e-05
-1.91478e-05
-8.09559e-05
-2.10996e-05
-6.93588e-05
-2.32131e-05
-5.67267e-05
-2.52838e-05
-4.30435e-05
-2.73867e-05
-2.84499e-05
-2.919e-05
-1.30295e-05
-3.08467e-05
3.0384e-06
-3.21274e-05
1.96154e-05
-3.31636e-05
3.65737e-05
-3.39186e-05
5.3772e-05
-3.43894e-05
7.1114e-05
-3.46965e-05
8.85093e-05
-3.47881e-05
0.000105849
-3.46768e-05
0.000123059
-3.44167e-05
0.000140086
-3.4037e-05
0.000156684
-3.31976e-05
0.000172764
-3.21479e-05
0.000188115
-3.06903e-05
0.000202588
-2.8928e-05
0.000215871
-2.65532e-05
0.000227795
-2.38306e-05
0.000238152
-2.06974e-05
0.000246722
-1.712e-05
0.000253318
-1.31856e-05
0.000257785
-8.93617e-06
0.000259991
-4.40722e-06
0.000259913
1.51686e-07
0.000257484
4.86717e-06
0.00025261
9.72368e-06
0.000245442
1.43265e-05
0.000236106
1.86622e-05
0.000224749
2.27012e-05
0.000211538
2.64066e-05
0.000196743
2.95665e-05
0.000180605
3.22534e-05
0.000163407
3.43789e-05
0.000145439
3.59094e-05
0.000126957
3.69567e-05
0.000108286
3.73096e-05
8.96542e-05
3.72533e-05
7.13332e-05
3.66217e-05
5.35382e-05
3.56436e-05
3.63543e-05
3.42848e-05
2.00777e-05
3.25534e-05
4.67582e-06
3.08026e-05
-9.66526e-06
2.86689e-05
-2.29722e-05
2.66085e-05
-3.51557e-05
2.43657e-05
-4.62669e-05
2.22209e-05
-5.62798e-05
2.00162e-05
-6.52503e-05
1.79246e-05
-7.32445e-05
1.60241e-05
-8.02453e-05
1.39953e-05
-8.63293e-05
1.21684e-05
-9.15028e-05
1.03212e-05
-9.58567e-05
8.73999e-06
-9.94234e-05
7.12126e-06
-0.000102215
5.58434e-06
-0.000104323
4.23162e-06
-0.000105787
2.94734e-06
-0.000106721
1.83908e-06
-0.00010717
9.14581e-07
-0.000107232
1.27854e-07
-0.000106938
-5.82824e-07
-0.000106309
-1.29866e-06
-0.000105446
-1.66633e-06
-0.000104191
-2.5157e-06
-0.000102599
-3.19068e-06
-0.000100588
-4.03498e-06
-9.81074e-05
-4.97004e-06
-9.51715e-05
-5.86703e-06
-9.17545e-05
-6.82511e-06
-8.77619e-05
-7.97384e-06
-8.31851e-05
-9.15876e-06
-7.80163e-05
-1.0348e-05
-7.21946e-05
-1.16315e-05
-6.57385e-05
-1.29348e-05
-5.86837e-05
-1.40787e-05
-5.08815e-05
-1.56092e-05
-4.24182e-05
-1.69183e-05
-3.31937e-05
-1.84464e-05
-2.31833e-05
-1.99728e-05
-1.25398e-05
-2.13223e-05
-1.08441e-06
-2.29002e-05
1.11188e-05
-2.43964e-05
2.40376e-05
-2.5842e-05
3.76479e-05
-2.72122e-05
5.18459e-05
-2.8386e-05
6.65655e-05
-2.94279e-05
8.17503e-05
-3.03531e-05
9.71843e-05
-3.086e-05
0.000112787
-3.11932e-05
0.000128425
-3.12636e-05
0.000143836
-3.08031e-05
0.000158855
-3.00169e-05
0.000173218
-2.87149e-05
0.00018671
-2.69724e-05
0.000199022
-2.46086e-05
0.000209967
-2.18817e-05
0.000219363
-1.87832e-05
0.000226931
-1.51275e-05
0.000232602
-1.1345e-05
0.000236157
-7.11415e-06
0.000237574
-2.81665e-06
0.000236796
1.52696e-06
0.000233749
6.09118e-06
0.000228539
1.04114e-05
0.000221291
1.44772e-05
0.000212142
1.82805e-05
0.00020129
2.16692e-05
0.0001889
2.47797e-05
0.000175275
2.72344e-05
0.000160602
2.93299e-05
0.000145213
3.0756e-05
0.000129293
3.18391e-05
0.000113109
3.23384e-05
9.69192e-05
3.23641e-05
8.0926e-05
3.19294e-05
6.52634e-05
3.13552e-05
5.01421e-05
3.02397e-05
3.57084e-05
2.88849e-05
2.19864e-05
2.74073e-05
9.12319e-06
2.57234e-05
-2.89537e-06
2.40407e-05
-1.40122e-05
2.22348e-05
-2.41646e-05
2.03249e-05
-3.34767e-05
1.86401e-05
-4.19272e-05
1.68614e-05
-4.94603e-05
1.50673e-05
-5.62461e-05
1.35774e-05
-6.24447e-05
1.23881e-05
-6.79599e-05
1.10451e-05
-7.30009e-05
1.00766e-05
-7.7533e-05
9.07077e-06
-8.16102e-05
8.15054e-06
-8.52743e-05
7.33999e-06
-8.85185e-05
6.47391e-06
-9.15054e-05
5.99205e-06
-9.41068e-05
5.20162e-06
-9.63712e-05
4.53955e-06
-9.83014e-05
3.84347e-06
-9.98789e-05
3.12014e-06
-0.000101046
2.36616e-06
-0.000101784
1.46768e-06
-0.000102071
5.82835e-07
-0.00010187
-4.02142e-07
-0.000101248
-1.24451e-06
-0.000100097
-2.28712e-06
-9.85142e-05
-3.16646e-06
-9.64481e-05
-4.10832e-06
-9.39761e-05
-4.9707e-06
-9.09427e-05
-6.06842e-06
-8.74074e-05
-7.11124e-06
-8.33034e-05
-8.15639e-06
-7.8567e-05
-9.4743e-06
-7.32117e-05
-1.07067e-05
-6.71571e-05
-1.20923e-05
-6.04523e-05
-1.34149e-05
-5.30199e-05
-1.48814e-05
-4.4914e-05
-1.61891e-05
-3.61236e-05
-1.75806e-05
-2.66132e-05
-1.90184e-05
-1.64594e-05
-2.02969e-05
-5.73941e-06
-2.14327e-05
5.64887e-06
-2.27746e-05
1.76559e-05
-2.40012e-05
3.02913e-05
-2.52648e-05
4.34881e-05
-2.63765e-05
5.71287e-05
-2.72678e-05
7.11174e-05
-2.79706e-05
8.52808e-05
-2.83205e-05
9.94755e-05
-2.83737e-05
0.000113504
-2.80479e-05
0.000127294
-2.75873e-05
0.000140767
-2.69399e-05
0.000153899
-2.62445e-05
0.000166711
-2.56306e-05
0.00017911
-2.48071e-05
0.000191086
-2.39458e-05
0.000202585
-2.29966e-05
0.000213307
-2.14522e-05
0.000222996
-1.93856e-05
0.000231381
-1.67817e-05
0.000238054
-1.33611e-05
0.000242836
-9.58283e-06
0.000245297
-4.94936e-06
0.000245207
1.51838e-07
0.000242717
4.97972e-06
0.000237879
9.71791e-06
0.000231015
1.37521e-05
0.000222094
1.78438e-05
0.000211128
2.1928e-05
0.000198516
2.52217e-05
0.000184424
2.81814e-05
0.000169316
3.0209e-05
0.000153477
3.16741e-05
0.000137185
3.25794e-05
0.0001209
3.25646e-05
0.000104785
3.22289e-05
8.90273e-05
3.15136e-05
7.3875e-05
3.03043e-05
5.93403e-05
2.90687e-05
4.55097e-05
2.76613e-05
3.24463e-05
2.61269e-05
2.00868e-05
2.47194e-05
8.54283e-06
2.30865e-05
-2.29336e-06
2.1673e-05
-1.2507e-05
2.04266e-05
-2.19931e-05
1.89719e-05
-3.07594e-05
1.75324e-05
-3.88028e-05
1.60865e-05
-4.61237e-05
1.46418e-05
-5.27576e-05
1.32682e-05
-5.87227e-05
1.1931e-05
-6.4069e-05
1.06909e-05
-6.88383e-05
9.53892e-06
-7.3071e-05
8.46607e-06
-7.68318e-05
7.52214e-06
-8.01737e-05
6.68063e-06
-8.31252e-05
5.90529e-06
-8.57434e-05
5.23544e-06
-8.80344e-05
4.57754e-06
-9.00125e-05
3.95127e-06
-9.1641e-05
3.26903e-06
-9.29149e-05
2.53814e-06
-9.37644e-05
1.69448e-06
-9.4162e-05
7.97206e-07
-9.3942e-05
-4.43022e-07
-9.31058e-05
-1.6781e-06
-9.15182e-05
-3.18381e-06
-8.91162e-05
-4.80244e-06
-8.59198e-05
-6.40175e-06
-8.18063e-05
-8.22642e-06
-7.67202e-05
-1.01691e-05
-7.0762e-05
-1.19272e-05
-6.36767e-05
-1.4166e-05
-5.55123e-05
-1.63293e-05
-4.64736e-05
-1.80672e-05
-3.63432e-05
-2.0253e-05
-2.52431e-05
-2.21903e-05
-1.30439e-05
-2.43723e-05
6.57421e-08
-2.62526e-05
1.39086e-05
-2.76863e-05
2.86662e-05
-2.95086e-05
4.42109e-05
-3.10836e-05
6.01936e-05
-3.19639e-05
7.6794e-05
-3.31965e-05
9.3744e-05
-3.3899e-05
0.000111072
-3.4648e-05
0.000128605
-3.5059e-05
0.000146007
-3.48034e-05
0.000163367
-3.47094e-05
0.000180505
-3.42745e-05
0.000197148
-3.32772e-05
0.000213189
-3.20799e-05
0.000228435
-3.04872e-05
0.000242712
-2.85503e-05
0.000255797
-2.61632e-05
0.000267494
-2.33819e-05
0.000277612
-2.02254e-05
0.000286019
-1.68019e-05
-1.37281e-05
-0.000119015
1.15266e-05
-0.000122056
9.11828e-06
-0.000124376
6.95352e-06
-0.000126009
4.89418e-06
-0.000126978
2.90912e-06
-0.000127306
1.0115e-06
-0.00012692
-1.16117e-06
-0.000125878
-3.11191e-06
-0.000124238
-4.90537e-06
-0.000121893
-7.0403e-06
-0.000118885
-9.02952e-06
-0.000115327
-1.06801e-05
-0.000111013
-1.29627e-05
-0.000106038
-1.49174e-05
-0.000100235
-1.73859e-05
-9.37218e-05
-1.95685e-05
-8.65419e-05
-2.1547e-05
-7.85138e-05
-2.40924e-05
-6.9611e-05
-2.67086e-05
-6.00257e-05
-2.87675e-05
-4.93919e-05
-3.18885e-05
-3.79163e-05
-3.44209e-05
-2.57243e-05
-3.657e-05
-1.25852e-05
-3.94101e-05
1.30203e-06
-4.16474e-05
1.61097e-05
-4.44122e-05
3.1806e-05
-4.70745e-05
4.80198e-05
-4.86149e-05
6.49234e-05
-5.06807e-05
8.24906e-05
-5.26758e-05
0.000100251
-5.32656e-05
0.000118341
-5.42306e-05
0.000136491
-5.43907e-05
0.000154478
-5.38996e-05
0.000172131
-5.29215e-05
0.000189069
-5.07746e-05
0.00020514
-4.81714e-05
0.000220127
-4.49117e-05
0.000233679
-4.06002e-05
0.00024562
-3.57874e-05
0.000255673
-3.01253e-05
0.000263744
-2.41805e-05
0.00026965
-1.76833e-05
0.000273199
-1.06538e-05
0.000274469
-3.7888e-06
0.000273335
3.3651e-06
0.000269594
1.12123e-05
0.000263512
1.82768e-05
0.000255296
2.46008e-05
0.000244889
3.11805e-05
0.000232587
3.68559e-05
0.000218587
4.19494e-05
0.000203148
4.62576e-05
0.000186538
4.97739e-05
0.000168901
5.28567e-05
0.000150593
5.48788e-05
0.000131843
5.62158e-05
0.000112855
5.69032e-05
9.40033e-05
5.64956e-05
7.53647e-05
5.58781e-05
5.71938e-05
5.4468e-05
3.96179e-05
5.27247e-05
2.27382e-05
5.06372e-05
6.67794e-06
4.81798e-05
-8.48649e-06
4.54734e-05
-2.26987e-05
4.26333e-05
-3.59107e-05
3.96373e-05
-4.81901e-05
3.68423e-05
-5.94678e-05
3.38421e-05
-6.98648e-05
3.12004e-05
-7.93759e-05
2.8546e-05
-8.80224e-05
2.59713e-05
-9.59191e-05
2.37219e-05
-0.000103129
2.16561e-05
-0.000109659
1.96291e-05
-0.000115638
1.79849e-05
-0.000121036
1.62512e-05
-0.000125911
1.46776e-05
-0.000130306
1.3236e-05
-0.000134152
1.15979e-05
-0.000137387
9.77218e-06
-0.000140014
7.95752e-06
-0.000141894
5.70972e-06
-0.000142907
3.09219e-06
-0.000143116
6.44735e-07
-0.000142298
-2.43852e-06
-0.000140486
-5.38751e-06
-0.00013773
-8.25515e-06
-0.000133967
-1.12716e-05
-0.000129253
-1.41889e-05
-0.000123515
-1.72122e-05
-0.000116927
-1.982e-05
-0.000109427
-2.26294e-05
-0.000100881
-2.55974e-05
-9.13475e-05
-2.86811e-05
-8.08395e-05
-3.16077e-05
-6.92876e-05
-3.47651e-05
-5.66819e-05
-3.78895e-05
-4.30277e-05
-4.1041e-05
-2.84526e-05
-4.37652e-05
-1.30589e-05
-4.62404e-05
3.01183e-06
-4.81982e-05
1.95775e-05
-4.97293e-05
3.65183e-05
-5.08595e-05
5.3728e-05
-5.15991e-05
7.10554e-05
-5.20239e-05
8.84515e-05
-5.21843e-05
0.000105793
-5.20186e-05
0.000123007
-5.16306e-05
0.000140053
-5.10835e-05
0.00015664
-4.97838e-05
0.000172736
-4.82442e-05
0.0001881
-4.60549e-05
0.00020263
-4.34582e-05
0.000215908
-3.98309e-05
0.000227874
-3.57968e-05
0.000238235
-3.10581e-05
0.00024681
-2.56955e-05
0.000253456
-1.98317e-05
0.000257902
-1.33815e-05
0.00026012
-6.62561e-06
0.000260031
2.41174e-07
0.000257608
7.28993e-06
0.000252707
1.46241e-05
0.000245539
2.14947e-05
0.000236191
2.80104e-05
0.00022481
3.40824e-05
0.000211577
3.96389e-05
0.000196764
4.43794e-05
0.000180598
4.84198e-05
0.000163381
5.15955e-05
0.000145379
5.39116e-05
0.000126904
5.54318e-05
0.000108176
5.60378e-05
8.95286e-05
5.59006e-05
7.11889e-05
5.49614e-05
5.33885e-05
5.3444e-05
3.61779e-05
5.14954e-05
1.98695e-05
4.88618e-05
4.50716e-06
4.61649e-05
-9.8507e-06
4.30268e-05
-2.31617e-05
3.99195e-05
-3.53493e-05
3.65533e-05
-4.64619e-05
3.33335e-05
-5.64725e-05
3.00268e-05
-6.54414e-05
2.68935e-05
-7.33794e-05
2.39622e-05
-8.04285e-05
2.10443e-05
-8.65153e-05
1.82552e-05
-9.16975e-05
1.55034e-05
-9.6004e-05
1.30465e-05
-9.9608e-05
1.07252e-05
-0.000102392
8.36876e-06
-0.000104496
6.33505e-06
-0.000105903
4.35434e-06
-0.000106888
2.82444e-06
-0.000107334
1.3604e-06
-0.000107387
1.8114e-07
-0.000107099
-8.70828e-07
-0.000106485
-1.9124e-06
-0.000105553
-2.59834e-06
-0.000104348
-3.72136e-06
-0.000102751
-4.78741e-06
-0.000100752
-6.03364e-06
-9.82752e-05
-7.44715e-06
-9.53434e-05
-8.7989e-06
-9.19232e-05
-1.02452e-05
-8.79301e-05
-1.1967e-05
-8.33451e-05
-1.37438e-05
-7.81898e-05
-1.55033e-05
-7.23645e-05
-1.74568e-05
-6.59326e-05
-1.93667e-05
-5.88364e-05
-2.11749e-05
-5.10424e-05
-2.34032e-05
-4.2574e-05
-2.53868e-05
-3.33599e-05
-2.76604e-05
-2.33417e-05
-2.99911e-05
-1.26937e-05
-3.19703e-05
-1.22648e-06
-3.43675e-05
1.09977e-05
-3.66206e-05
2.39035e-05
-3.87479e-05
3.75286e-05
-4.08374e-05
5.17259e-05
-4.25833e-05
6.64519e-05
-4.4154e-05
8.16378e-05
-4.55391e-05
9.70798e-05
-4.6302e-05
0.000112703
-4.68167e-05
0.000128363
-4.69234e-05
0.000143796
-4.62361e-05
0.000158833
-4.50539e-05
0.000173234
-4.31166e-05
0.000186734
-4.04717e-05
0.000199064
-3.69395e-05
0.000210029
-3.28466e-05
0.000219437
-2.81912e-05
0.000227009
-2.27e-05
0.000232674
-1.70096e-05
0.000236243
-1.06837e-05
0.000237676
-4.24949e-06
0.000236879
2.32404e-06
0.000233829
9.14178e-06
0.000228622
1.56175e-05
0.00022136
2.17395e-05
0.0002122
2.74407e-05
0.000201309
3.25598e-05
0.000188913
3.71761e-05
0.000175263
4.0884e-05
0.000160567
4.40257e-05
0.000145147
4.61764e-05
0.00012924
4.77461e-05
0.000113006
4.85724e-05
9.68035e-05
4.85667e-05
8.07674e-05
4.79655e-05
6.51158e-05
4.70068e-05
4.99892e-05
4.53662e-05
3.55888e-05
4.32854e-05
2.18237e-05
4.11724e-05
8.9622e-06
3.85849e-05
-3.04621e-06
3.60491e-05
-1.41659e-05
3.33545e-05
-2.43469e-05
3.05059e-05
-3.36421e-05
2.79354e-05
-4.20981e-05
2.53174e-05
-4.96417e-05
2.26109e-05
-5.64157e-05
2.03514e-05
-6.26076e-05
1.858e-05
-6.80969e-05
1.65343e-05
-7.31639e-05
1.51436e-05
-7.76932e-05
1.36001e-05
-8.1766e-05
1.22234e-05
-8.5383e-05
1.0957e-05
-8.87171e-05
9.80801e-06
-9.16143e-05
8.88924e-06
-9.42516e-05
7.83899e-06
-9.65037e-05
6.79163e-06
-9.84414e-05
5.78111e-06
-0.00010004
4.71892e-06
-0.000101195
3.52091e-06
-0.00010195
2.22292e-06
-0.000102237
8.69958e-07
-0.000102034
-6.05301e-07
-0.000101398
-1.88036e-06
-0.000100232
-3.45315e-06
-9.86664e-05
-4.7323e-06
-9.65729e-05
-6.20183e-06
-9.4117e-05
-7.42653e-06
-9.10745e-05
-9.11096e-06
-8.75793e-05
-1.06064e-05
-8.34319e-05
-1.23038e-05
-7.87138e-05
-1.41924e-05
-7.33517e-05
-1.60688e-05
-6.73109e-05
-1.81332e-05
-6.05954e-05
-2.01304e-05
-5.31941e-05
-2.22827e-05
-4.50624e-05
-2.43208e-05
-3.62723e-05
-2.63708e-05
-2.67689e-05
-2.85219e-05
-1.66159e-05
-3.045e-05
-5.89748e-06
-3.21511e-05
5.48414e-06
-3.41563e-05
1.75086e-05
-3.60258e-05
3.01494e-05
-3.79057e-05
4.3334e-05
-3.95612e-05
5.70146e-05
-4.09485e-05
7.1021e-05
-4.19771e-05
8.52041e-05
-4.25038e-05
9.94235e-05
-4.25933e-05
0.000113481
-4.2106e-05
0.0001273
-4.14061e-05
0.000140798
-4.04378e-05
0.000153952
-3.93992e-05
0.000166786
-3.84649e-05
0.000179195
-3.72156e-05
0.000191174
-3.59252e-05
0.000202678
-3.45009e-05
0.000213384
-3.21584e-05
0.000223032
-2.90346e-05
0.000231383
-2.51329e-05
0.000237981
-1.99593e-05
0.000242623
-1.42245e-05
0.000244962
-7.28854e-06
0.000244888
2.25636e-07
0.000242549
7.31824e-06
0.000237856
1.44108e-05
0.000231029
2.05788e-05
0.000222106
2.67663e-05
0.000211134
3.29003e-05
0.000198512
3.78439e-05
0.000184407
4.2286e-05
0.000169287
4.53288e-05
0.000153435
4.75266e-05
0.000137132
4.88821e-05
0.000120839
4.8858e-05
0.000104717
4.83504e-05
8.89558e-05
4.72748e-05
7.3803e-05
4.54571e-05
5.92663e-05
4.36054e-05
4.54399e-05
4.14878e-05
3.23765e-05
3.91903e-05
2.0019e-05
3.70768e-05
8.47419e-06
3.46313e-05
-2.3614e-06
3.25086e-05
-1.25729e-05
3.06382e-05
-2.20576e-05
2.84567e-05
-3.08222e-05
2.62969e-05
-3.88639e-05
2.41282e-05
-4.61827e-05
2.19606e-05
-5.2814e-05
1.98995e-05
-5.87769e-05
1.78939e-05
-6.41214e-05
1.60354e-05
-6.88839e-05
1.43014e-05
-7.31191e-05
1.27012e-05
-7.6876e-05
1.12791e-05
-8.02175e-05
1.00221e-05
-8.31689e-05
8.85671e-06
-8.57847e-05
7.85124e-06
-8.80757e-05
6.8685e-06
-9.00576e-05
5.93317e-06
-9.16812e-05
4.8926e-06
-9.29679e-05
3.82493e-06
-9.38218e-05
2.54833e-06
-9.42175e-05
1.19287e-06
-9.39997e-05
-6.60812e-07
-9.31706e-05
-2.50717e-06
-9.15924e-05
-4.76208e-06
-8.91927e-05
-7.20216e-06
-8.60045e-05
-9.58998e-06
-8.18934e-05
-1.23375e-05
-7.68038e-05
-1.52588e-05
-7.08539e-05
-1.78771e-05
-6.37575e-05
-2.12624e-05
-5.55925e-05
-2.44945e-05
-4.65543e-05
-2.71053e-05
-3.64215e-05
-3.03859e-05
-2.53136e-05
-3.32983e-05
-1.30893e-05
-3.65966e-05
2.50452e-09
-3.93445e-05
1.38559e-05
-4.15397e-05
2.86182e-05
-4.4271e-05
4.41695e-05
-4.6635e-05
6.01623e-05
-4.79567e-05
7.67685e-05
-4.9803e-05
9.37265e-05
-5.08571e-05
0.00011106
-5.19817e-05
0.000128602
-5.2601e-05
0.000146006
-5.22075e-05
0.000163371
-5.20746e-05
0.000180511
-5.14152e-05
0.000197159
-4.9925e-05
0.000213204
-4.81251e-05
0.000228456
-4.57392e-05
0.000242744
-4.28386e-05
0.000255842
-3.92612e-05
0.000267552
-3.50919e-05
0.000277698
-3.03725e-05
0.000286143
-2.52471e-05
-2.06225e-05
-0.000119113
1.53771e-05
-0.000122161
1.21654e-05
-0.000124484
9.27677e-06
-0.000126117
6.5276e-06
-0.000127085
3.87666e-06
-0.000127394
1.3207e-06
-0.00012701
-1.54486e-06
-0.000125957
-4.16562e-06
-0.000124309
-6.55298e-06
-0.000121966
-9.38303e-06
-0.000118962
-1.20341e-05
-0.000115407
-1.42353e-05
-0.000111096
-1.7273e-05
-0.00010612
-1.98936e-05
-0.000100313
-2.31928e-05
-9.38146e-05
-2.60673e-05
-8.66164e-05
-2.87452e-05
-7.86164e-05
-3.20924e-05
-6.97134e-05
-3.56116e-05
-6.01365e-05
-3.83444e-05
-4.95032e-05
-4.25219e-05
-3.80158e-05
-4.59083e-05
-2.58191e-05
-4.87668e-05
-1.26777e-05
-5.25516e-05
1.22156e-06
-5.55466e-05
1.60394e-05
-5.92301e-05
3.1742e-05
-6.27772e-05
4.79668e-05
-6.48398e-05
6.48915e-05
-6.76055e-05
8.24736e-05
-7.0258e-05
0.000100246
-7.10382e-05
0.00011836
-7.23449e-05
0.00013654
-7.25699e-05
0.000154555
-7.19152e-05
0.000172229
-7.05957e-05
0.000189194
-6.77396e-05
0.000205287
-6.42642e-05
0.00022031
-5.99353e-05
0.000233896
-5.41858e-05
0.000245849
-4.77409e-05
0.000255927
-4.02025e-05
0.000264012
-3.22657e-05
0.000269939
-2.36106e-05
0.000273487
-1.42016e-05
0.000274755
-5.05734e-06
0.000273604
4.516e-06
0.000269859
1.4957e-05
0.0002638
2.43364e-05
0.000255551
3.28493e-05
0.000245119
4.16125e-05
0.000232787
4.91875e-05
0.000218757
5.59798e-05
0.000203284
6.17304e-05
0.000186641
6.64167e-05
0.000168973
7.05249e-05
0.00015064
7.32116e-05
0.000131873
7.49826e-05
0.000112842
7.59342e-05
9.39392e-05
7.53987e-05
7.52874e-05
7.45299e-05
5.70875e-05
7.26679e-05
3.952e-05
7.02921e-05
2.26451e-05
6.75121e-05
6.58652e-06
6.42384e-05
-8.58775e-06
6.06477e-05
-2.27995e-05
5.68451e-05
-3.60091e-05
5.28469e-05
-4.82837e-05
4.91169e-05
-5.95543e-05
4.51126e-05
-6.99396e-05
4.15857e-05
-7.94396e-05
3.8046e-05
-8.80728e-05
3.46045e-05
-9.59568e-05
3.16059e-05
-0.000103144
2.88434e-05
-0.000109648
2.61325e-05
-0.000115608
2.39448e-05
-0.000120978
2.16215e-05
-0.000125814
1.95137e-05
-0.000130176
1.75982e-05
-0.000133981
1.54025e-05
-0.000137152
1.29435e-05
-0.000139721
1.05262e-05
-0.00014156
7.54834e-06
-0.000142561
4.09376e-06
-0.000142782
8.65557e-07
-0.00014196
-3.26063e-06
-0.000140125
-7.22337e-06
-0.000137357
-1.1023e-05
-0.000133587
-1.50413e-05
-0.000128889
-1.88874e-05
-0.000123164
-2.29374e-05
-0.000116623
-2.63615e-05
-0.000109136
-3.01158e-05
-0.00010056
-3.41735e-05
-9.11223e-05
-3.81194e-05
-8.06774e-05
-4.20527e-05
-6.92065e-05
-4.6236e-05
-5.66044e-05
-5.04918e-05
-4.3004e-05
-5.46414e-05
-2.84646e-05
-5.83046e-05
-1.3103e-05
-6.16021e-05
2.93585e-06
-6.42371e-05
1.95096e-05
-6.63032e-05
3.64359e-05
-6.77858e-05
5.36654e-05
-6.88286e-05