/*--------------------------------*- C++ -*----------------------------------*\
| =========                 |                                                 |
| \\      /  F ield         | OpenFOAM: The Open Source CFD Toolbox           |
|  \\    /   O peration     | Version:  3.0.1                                 |
|   \\  /    A nd           | Web:      www.OpenFOAM.org                      |
|    \\/     M anipulation  |                                                 |
\*---------------------------------------------------------------------------*/
FoamFile
{
    version     2.0;
    format      ascii;
    class       surfaceScalarField;
    location    "45.8";
    object      phi;
}
// * * * * * * * * * * * * * * * * * * * * * * * * * * * * * * * * * * * * * //

dimensions      [0 3 -1 0 0 0 0];

internalField   nonuniform List<scalar> 
42423
(
-0.000117754
4.01857e-06
-0.000120965
3.21094e-06
-0.00012345
2.48484e-06
-0.000125241
1.79119e-06
-0.00012636
1.11841e-06
-0.000126853
4.92993e-07
-0.000126634
-2.18973e-07
-0.000125761
-8.72636e-07
-0.000124285
-1.47648e-06
-0.000122096
-2.18847e-06
-0.000119251
-2.84512e-06
-0.00011586
-3.39076e-06
-0.000111708
-4.15199e-06
-0.000106932
-4.77631e-06
-0.000101346
-5.58653e-06
-9.5023e-05
-6.32256e-06
-8.8058e-05
-6.96503e-06
-8.02552e-05
-7.80285e-06
-7.15942e-05
-8.66097e-06
-6.22512e-05
-9.3431e-06
-5.1883e-05
-1.03682e-05
-4.06758e-05
-1.12071e-05
-2.87511e-05
-1.19248e-05
-1.58745e-05
-1.28766e-05
-2.23456e-06
-1.364e-05
1.22983e-05
-1.45329e-05
2.7746e-05
-1.54478e-05
4.37272e-05
-1.59813e-05
6.04239e-05
-1.66967e-05
7.78171e-05
-1.73933e-05
9.54537e-05
-1.76367e-05
0.000113456
-1.80028e-05
0.000131558
-1.81016e-05
0.000149556
-1.79982e-05
0.000167297
-1.77404e-05
0.000184377
-1.70809e-05
0.000200661
-1.62834e-05
0.00021593
-1.52696e-05
0.000229821
-1.38906e-05
0.000242169
-1.23483e-05
0.000252685
-1.05156e-05
0.000261264
-8.57934e-06
0.000267721
-6.45667e-06
0.000271875
-4.15454e-06
0.000273744
-1.86907e-06
0.000273247
4.97042e-07
0.000270154
3.09268e-06
0.000264653
5.50092e-06
0.000257039
7.61412e-06
0.000247193
9.84566e-06
0.000235413
1.17806e-05
0.000221882
1.35313e-05
0.000206857
1.50249e-05
0.0001906
1.62569e-05
0.000173247
1.73527e-05
0.000155153
1.80942e-05
0.00013655
1.86027e-05
0.000117659
1.88912e-05
9.88486e-05
1.88102e-05
8.01899e-05
1.86587e-05
6.19588e-05
1.82311e-05
4.42613e-05
1.76975e-05
2.72273e-05
1.7034e-05
1.09874e-05
1.62399e-05
-4.37642e-06
1.53638e-05
-1.88085e-05
1.44321e-05
-3.22521e-05
1.34436e-05
-4.477e-05
1.25179e-05
-5.62908e-05
1.15208e-05
-6.69302e-05
1.06394e-05
-7.66856e-05
9.75533e-06
-8.55845e-05
8.8989e-06
-9.37295e-05
8.145e-06
-0.00010118
7.45052e-06
-0.000107954
6.77421e-06
-0.000114177
6.22249e-06
-0.000119816
5.63901e-06
-0.000124924
5.10867e-06
-0.000129545
4.62078e-06
-0.000133616
4.07038e-06
-0.000137083
3.46755e-06
-0.000139945
2.86192e-06
-0.000142053
2.10775e-06
-0.000143281
1.22782e-06
-0.000143678
3.97535e-07
-0.00014306
-6.18256e-07
-0.000141455
-1.60457e-06
-0.000138883
-2.5726e-06
-0.000135301
-3.58124e-06
-0.000130734
-4.56721e-06
-0.000125178
-5.55606e-06
-0.000118737
-6.44105e-06
-0.00011135
-7.38683e-06
-0.000103025
-8.32544e-06
-9.36509e-05
-9.37409e-06
-8.33086e-05
-1.03423e-05
-7.19159e-05
-1.13926e-05
-5.94939e-05
-1.2422e-05
-4.60246e-05
-1.34694e-05
-3.16637e-05
-1.43609e-05
-1.64709e-05
-1.51928e-05
-6.37162e-07
-1.58337e-05
1.57309e-05
-1.63681e-05
3.24896e-05
-1.67587e-05
4.94996e-05
-1.70101e-05
6.66988e-05
-1.71992e-05
8.39683e-05
-1.72695e-05
0.00010122
-1.72514e-05
0.000118383
-1.71634e-05
0.0001354
-1.7017e-05
0.000152061
-1.66608e-05
0.000168249
-1.61887e-05
0.000183771
-1.55218e-05
0.000198474
-1.4703e-05
0.000212057
-1.35827e-05
0.000224341
-1.22845e-05
0.00023512
-1.0779e-05
0.000244166
-9.04655e-06
0.000251301
-7.13493e-06
0.000256358
-5.05637e-06
0.000259177
-2.81909e-06
0.000259723
-5.46508e-07
0.000257944
1.77915e-06
0.000253736
4.2083e-06
0.000247188
6.54743e-06
0.000238443
8.74485e-06
0.000227636
1.08075e-05
0.000214923
1.27128e-05
0.000200571
1.4352e-05
0.000184809
1.57618e-05
0.00016791
1.68993e-05
0.000150178
1.77318e-05
0.000131842
1.83354e-05
0.000113274
1.85683e-05
9.46582e-05
1.8616e-05
7.63051e-05
1.83531e-05
5.8353e-05
1.79521e-05
4.11047e-05
1.72483e-05
2.46447e-05
1.646e-05
9.03309e-06
1.56116e-05
-5.52606e-06
1.45591e-05
-1.90733e-05
1.35472e-05
-3.15104e-05
1.24371e-05
-4.28791e-05
1.13687e-05
-5.31416e-05
1.02625e-05
-6.23523e-05
9.21075e-06
-7.06337e-05
8.28141e-06
-7.78737e-05
7.23997e-06
-8.41963e-05
6.32257e-06
-8.95741e-05
5.3778e-06
-9.41818e-05
4.60772e-06
-9.79491e-05
3.76728e-06
-0.000100946
2.99676e-06
-0.000103264
2.31793e-06
-0.000104933
1.66952e-06
-0.000106016
1.08277e-06
-0.000106649
6.32797e-07
-0.000106879
2.30514e-07
-0.000106749
-1.30746e-07
-0.000106234
-5.14269e-07
-0.000105583
-6.51601e-07
-0.000104474
-1.10931e-06
-0.000103027
-1.44677e-06
-0.000101156
-1.87033e-06
-9.88242e-05
-2.33223e-06
-9.60545e-05
-2.76965e-06
-9.28124e-05
-3.24213e-06
-8.90023e-05
-3.81012e-06
-8.45972e-05
-4.40513e-06
-7.96007e-05
-4.99652e-06
-7.39792e-05
-5.62152e-06
-6.76951e-05
-6.28408e-06
-6.08714e-05
-6.82376e-06
-5.32701e-05
-7.60128e-06
-4.50259e-05
-8.24421e-06
-3.60183e-05
-9.0076e-06
-2.62714e-05
-9.74692e-06
-1.58058e-05
-1.04657e-05
-4.56052e-06
-1.12453e-05
7.41683e-06
-1.19774e-05
2.01454e-05
-1.27286e-05
3.3572e-05
-1.34266e-05
4.76071e-05
-1.40352e-05
6.21903e-05
-1.45833e-05
7.72676e-05
-1.50773e-05
9.26425e-05
-1.53749e-05
0.000108228
-1.55856e-05
0.0001239
-1.56719e-05
0.000139395
-1.54953e-05
0.000154557
-1.51621e-05
0.000169137
-1.45797e-05
0.000182912
-1.37747e-05
0.000195569
-1.26572e-05
0.000206928
-1.13597e-05
0.000216798
-9.86947e-06
0.000224893
-8.0955e-06
0.000231146
-6.2527e-06
0.000235316
-4.17008e-06
0.000237345
-2.02922e-06
0.000237224
1.20997e-07
0.000234827
2.39686e-06
0.000230233
4.59433e-06
0.000223574
6.65903e-06
0.000214967
8.60705e-06
0.000204617
1.03495e-05
0.000192631
1.19857e-05
0.000179357
1.32746e-05
0.000164964
1.43924e-05
0.000149789
1.51748e-05
0.000133994
1.57953e-05
0.000117897
1.60967e-05
0.000101719
1.61783e-05
8.57234e-05
1.59957e-05
6.99221e-05
1.58013e-05
5.46524e-05
1.52696e-05
4.00152e-05
1.46372e-05
2.61168e-05
1.38984e-05
1.30241e-05
1.30927e-05
7.58089e-07
1.2266e-05
-1.06139e-05
1.1372e-05
-2.10422e-05
1.04283e-05
-3.0624e-05
9.58187e-06
-3.92843e-05
8.6603e-06
-4.70613e-05
7.77691e-06
-5.40864e-05
7.02514e-06
-6.04984e-05
6.41204e-06
-6.62398e-05
5.74138e-06
-7.14755e-05
5.23568e-06
-7.62029e-05
4.72741e-06
-8.04551e-05
4.25214e-06
-8.43005e-05
3.84543e-06
-8.7692e-05
3.39145e-06
-9.08518e-05
3.15985e-06
-9.36005e-05
2.74864e-06
-9.6019e-05
2.4185e-06
-9.80714e-05
2.05238e-06
-9.97493e-05
1.67795e-06
-0.000101081
1.33146e-06
-0.000101939
8.57941e-07
-0.00010236
4.21438e-07
-0.000102284
-7.63397e-08
-0.000101784
-4.99782e-07
-0.00010077
-1.01442e-06
-9.93092e-05
-1.46039e-06
-9.73927e-05
-1.91652e-06
-9.50234e-05
-2.36936e-06
-9.21229e-05
-2.90044e-06
-8.86881e-05
-3.4348e-06
-8.47841e-05
-3.90408e-06
-8.02029e-05
-4.58117e-06
-7.50165e-05
-5.18643e-06
-6.91514e-05
-5.86511e-06
-6.26203e-05
-6.53109e-06
-5.53549e-05
-7.26544e-06
-4.74576e-05
-7.89731e-06
-3.8853e-05
-8.6046e-06
-2.95282e-05
-9.32488e-06
-1.95635e-05
-9.9647e-06
-9.0214e-06
-1.05421e-05
2.20186e-06
-1.12233e-05
1.40464e-05
-1.18445e-05
2.65406e-05
-1.24943e-05
3.96046e-05
-1.3064e-05
5.31411e-05
-1.35365e-05
6.70624e-05
-1.39213e-05
8.1194e-05
-1.41316e-05
9.53871e-05
-1.41932e-05
0.000109464
-1.4077e-05
0.000123364
-1.39003e-05
0.000136983
-1.36188e-05
0.000150298
-1.33152e-05
0.000163369
-1.30712e-05
0.000176083
-1.27131e-05
0.000188408
-1.23256e-05
0.000200314
-1.1906e-05
0.000211502
-1.11876e-05
0.000221702
-1.02007e-05
0.000230643
-8.94063e-06
0.000237908
-7.26519e-06
0.000243313
-5.40532e-06
0.000246485
-3.17139e-06
0.000246944
-4.59443e-07
0.000245001
1.94284e-06
0.000240562
4.43946e-06
0.000234077
6.48458e-06
0.000225541
8.5356e-06
0.000214907
1.06345e-05
0.00020256
1.23471e-05
0.000188662
1.38978e-05
0.000173684
1.49784e-05
0.000157908
1.5776e-05
0.000141618
1.62896e-05
0.000125287
1.63311e-05
0.000109082
1.62051e-05
9.31998e-05
1.5882e-05
7.78993e-05
1.53005e-05
6.31999e-05
1.46993e-05
4.91914e-05
1.40085e-05
3.59457e-05
1.32457e-05
2.34084e-05
1.25373e-05
1.1704e-05
1.17044e-05
7.69373e-07
1.09346e-05
-9.70673e-06
1.04761e-05
-1.94164e-05
9.7097e-06
-2.83924e-05
8.976e-06
-3.66379e-05
8.24546e-06
-4.41538e-05
7.5159e-06
-5.09753e-05
6.82154e-06
-5.71193e-05
6.14395e-06
-6.26316e-05
5.51233e-06
-6.75575e-05
4.92589e-06
-7.19355e-05
4.37807e-06
-7.583e-05
3.89445e-06
-7.92913e-05
3.4613e-06
-8.23589e-05
3.06766e-06
-8.50834e-05
2.72448e-06
-8.74743e-05
2.39085e-06
-8.95517e-05
2.07745e-06
-9.13003e-05
1.74853e-06
-9.26792e-05
1.3789e-06
-9.36455e-05
9.66302e-07
-9.41784e-05
5.32905e-07
-9.41148e-05
-6.36119e-08
-9.34414e-05
-6.73403e-07
-9.20303e-05
-1.41108e-06
-8.98302e-05
-2.20008e-06
-8.68359e-05
-2.99435e-06
-8.29469e-05
-3.88901e-06
-7.80999e-05
-4.84704e-06
-7.23729e-05
-5.72702e-06
-6.55419e-05
-6.83098e-06
-5.76329e-05
-7.90909e-06
-4.88592e-05
-8.77374e-06
-3.8989e-05
-9.8702e-06
-2.81446e-05
-1.08444e-05
-1.62023e-05
-1.19424e-05
-3.26617e-06
-1.29361e-05
1.03216e-05
-1.35878e-05
2.48504e-05
-1.45288e-05
4.01949e-05
-1.53446e-05
5.60075e-05
-1.58127e-05
7.24654e-05
-1.64579e-05
8.93061e-05
-1.68408e-05
0.000106554
-1.72479e-05
0.000124044
-1.74905e-05
0.000141445
-1.7401e-05
0.00015884
-1.73946e-05
0.000176069
-1.72291e-05
0.000192841
-1.67725e-05
0.000209073
-1.62321e-05
0.000224554
-1.54812e-05
0.000239122
-1.4568e-05
0.000252543
-1.34214e-05
0.000264615
-1.20717e-05
0.000275156
-1.05411e-05
0.000284024
-8.86789e-06
-7.37601e-06
-0.000117792
8.04307e-06
-0.000121006
6.42474e-06
-0.00012349
4.96881e-06
-0.000125281
3.58243e-06
-0.000126405
2.24278e-06
-0.000126901
9.88475e-07
-0.000126679
-4.41185e-07
-0.0001258
-1.75159e-06
-0.00012432
-2.95583e-06
-0.000122134
-4.37473e-06
-0.00011929
-5.68952e-06
-0.0001159
-6.78034e-06
-0.000111763
-8.28897e-06
-0.000106974
-9.566e-06
-0.000101377
-1.11831e-05
-9.50649e-05
-1.26347e-05
-8.8101e-05
-1.3929e-05
-8.02993e-05
-1.56046e-05
-7.16379e-05
-1.73225e-05
-6.22963e-05
-1.86847e-05
-5.19256e-05
-2.0739e-05
-4.07167e-05
-2.24161e-05
-2.87913e-05
-2.38502e-05
-1.5914e-05
-2.5754e-05
-2.26994e-06
-2.72841e-05
1.2264e-05
-2.90668e-05
2.77107e-05
-3.08945e-05
4.36966e-05
-3.19673e-05
6.04016e-05
-3.34018e-05
7.78096e-05
-3.48013e-05
9.54493e-05
-3.52764e-05
0.000113457
-3.60103e-05
0.000131569
-3.62146e-05
0.000149578
-3.60067e-05
0.000167329
-3.54917e-05
0.000184429
-3.41813e-05
0.000200727
-3.25814e-05
0.000216
-3.05426e-05
0.000229899
-2.77898e-05
0.000242259
-2.47084e-05
0.000252787
-2.10437e-05
0.000261382
-1.71741e-05
0.000267845
-1.29198e-05
0.000271993
-8.30297e-06
0.000273868
-3.74341e-06
0.00027337
9.94799e-07
0.000270273
6.18992e-06
0.000264777
1.09965e-05
0.000257156
1.52346e-05
0.000247303
1.96988e-05
0.000235513
2.35705e-05
0.000221971
2.7073e-05
0.000206935
3.00615e-05
0.000190666
3.25258e-05
0.000173301
3.4717e-05
0.000155196
3.61993e-05
0.000136582
3.72172e-05
0.000117682
3.77914e-05
9.88604e-05
3.76314e-05
8.01913e-05
3.73278e-05
6.19494e-05
3.6473e-05
4.42473e-05
3.53996e-05
2.72095e-05
3.40718e-05
1.09656e-05
3.24837e-05
-4.40413e-06
3.07335e-05
-1.88392e-05
2.88672e-05
-3.22842e-05
2.68886e-05
-4.48015e-05
2.50352e-05
-5.63225e-05
2.30417e-05
-6.69636e-05
2.12805e-05
-7.67169e-05
1.95087e-05
-8.5611e-05
1.77929e-05
-9.3752e-05
1.6286e-05
-0.000101198
1.48968e-05
-0.000107963
1.35393e-05
-0.000114175
1.24343e-05
-0.000119804
1.12682e-05
-0.000124902
1.02062e-05
-0.000129513
9.23197e-06
-0.000133573
8.13036e-06
-0.000137012
6.90619e-06
-0.000139847
5.69727e-06
-0.000141947
4.20755e-06
-0.000143164
2.44473e-06
-0.000143553
7.86609e-07
-0.000142933
-1.23868e-06
-0.000141319
-3.21769e-06
-0.000138741
-5.151e-06
-0.000135161
-7.16149e-06
-0.000130605
-9.12324e-06
-0.000125044
-1.11167e-05
-0.00011862
-1.2865e-05
-0.000111257
-1.47501e-05
-0.000102926
-1.6656e-05
-9.35683e-05
-1.87322e-05
-8.3243e-05
-2.06677e-05
-7.18693e-05
-2.27664e-05
-5.94669e-05
-2.48245e-05
-4.60177e-05
-2.69186e-05
-3.16598e-05
-2.87189e-05
-1.64732e-05
-3.03795e-05
-6.32189e-07
-3.16748e-05
1.57272e-05
-3.27275e-05
3.24837e-05
-3.35153e-05
4.95009e-05
-3.40274e-05
6.66876e-05
-3.4386e-05
8.39593e-05
-3.45412e-05
0.000101213
-3.4505e-05
0.00011838
-3.43311e-05
0.000135414
-3.40504e-05
0.000152073
-3.33202e-05
0.000168273
-3.23886e-05
0.000183806
-3.10553e-05
0.000198526
-2.94232e-05
0.000212123
-2.71797e-05
0.000224425
-2.45859e-05
0.000235222
-2.15763e-05
0.000244287
-1.81119e-05
0.00025143
-1.42783e-05
0.000256486
-1.01118e-05
0.000259309
-5.64229e-06
0.000259854
-1.09196e-06
0.000258082
3.55135e-06
0.000253851
8.43935e-06
0.000247296
1.31026e-05
0.00023854
1.75001e-05
0.000227721
2.1627e-05
0.000214992
2.54412e-05
0.000200619
2.87256e-05
0.000184833
3.15472e-05
0.000167918
3.38147e-05
0.00015016
3.54897e-05
0.000131816
3.66795e-05
0.000113214
3.71697e-05
9.45883e-05
3.72417e-05
7.62147e-05
3.67267e-05
5.83157e-05
3.5851e-05
4.09844e-05
3.45796e-05
2.45241e-05
3.29203e-05
8.91072e-06
3.12249e-05
-5.66174e-06
2.91316e-05
-1.92146e-05
2.71001e-05
-3.16532e-05
2.48757e-05
-4.30235e-05
2.27389e-05
-5.32958e-05
2.05348e-05
-6.25231e-05
1.8438e-05
-7.07689e-05
1.65272e-05
-7.80152e-05
1.44862e-05
-8.43375e-05
1.26449e-05
-8.97412e-05
1.07815e-05
-9.43168e-05
9.18339e-06
-9.80963e-05
7.54675e-06
-0.000101091
5.99158e-06
-0.000103394
4.62106e-06
-0.000105044
3.3196e-06
-0.000106156
2.19396e-06
-0.000106773
1.25052e-06
-0.000106999
4.5604e-07
-0.000106864
-2.65779e-07
-0.000106389
-9.89407e-07
-0.000105678
-1.36189e-06
-0.000104575
-2.21305e-06
-0.000103135
-2.88645e-06
-0.000101278
-3.72768e-06
-9.89537e-05
-4.65617e-06
-9.61792e-05
-5.54419e-06
-9.29283e-05
-6.493e-06
-8.91068e-05
-7.63171e-06
-8.47069e-05
-8.80503e-06
-7.97207e-05
-9.98273e-06
-7.40874e-05
-1.12548e-05
-6.78259e-05
-1.25456e-05
-6.09712e-05
-1.36785e-05
-5.33749e-05
-1.51977e-05
-4.51224e-05
-1.64967e-05
-3.61123e-05
-1.80178e-05
-2.63179e-05
-1.95414e-05
-1.58876e-05
-2.0896e-05
-4.63418e-06
-2.24987e-05
7.35521e-06
-2.39668e-05
2.00797e-05
-2.54532e-05
3.35146e-05
-2.68615e-05
4.75596e-05
-2.80803e-05
6.21541e-05
-2.91779e-05
7.72477e-05
-3.01709e-05
9.26304e-05
-3.07577e-05
0.000108227
-3.11826e-05
0.000123912
-3.13566e-05
0.000139426
-3.10096e-05
0.000154609
-3.03454e-05
0.000169201
-2.9172e-05
0.000182988
-2.75611e-05
0.000195659
-2.5329e-05
0.000207028
-2.27282e-05
0.000216907
-1.97491e-05
0.000225011
-1.61988e-05
0.000231261
-1.25034e-05
0.000235429
-8.33768e-06
0.000237475
-4.0752e-06
0.00023733
2.65859e-07
0.000234927
4.79907e-06
0.000230324
9.1978e-06
0.000223647
1.33354e-05
0.000215023
1.72311e-05
0.00020464
2.07331e-05
0.000192654
2.39714e-05
0.000179365
2.65638e-05
0.000164956
2.88015e-05
0.000149759
3.03709e-05
0.000133963
3.1592e-05
0.000117836
3.22235e-05
0.000101642
3.2372e-05
8.55891e-05
3.20486e-05
6.98174e-05
3.1573e-05
5.45445e-05
3.05425e-05
3.99245e-05
2.92571e-05
2.59892e-05
2.78337e-05
1.2893e-05
2.61889e-05
6.29662e-07
2.45293e-05
-1.07408e-05
2.27424e-05
-2.11489e-05
2.08364e-05
-3.07151e-05
1.91481e-05
-3.94151e-05
1.73602e-05
-4.71909e-05
1.55527e-05
-5.42103e-05
1.40446e-05
-6.06315e-05
1.28332e-05
-6.63584e-05
1.14682e-05
-7.15993e-05
1.04766e-05
-7.63203e-05
9.44832e-06
-8.05763e-05
8.50817e-06
-8.44099e-05
7.679e-06
-8.78158e-05
6.79733e-06
-9.09572e-05
6.30133e-06
-9.37071e-05
5.49849e-06
-9.6115e-05
4.8264e-06
-9.81844e-05
4.12174e-06
-9.98971e-05
3.39065e-06
-0.000101197
2.63113e-06
-0.000102063
1.72414e-06
-0.000102475
8.33303e-07
-0.000102398
-1.52949e-07
-0.0001019
-9.98498e-07
-0.000100871
-2.0432e-06
-9.94111e-05
-2.92002e-06
-9.74708e-05
-3.85691e-06
-9.5128e-05
-4.71212e-06
-9.22292e-05
-5.79929e-06
-8.88349e-05
-6.8291e-06
-8.48791e-05
-7.85993e-06
-8.02995e-05
-9.16073e-06
-7.51092e-05
-1.03768e-05
-6.92273e-05
-1.17471e-05
-6.27015e-05
-1.30569e-05
-5.54529e-05
-1.45141e-05
-4.75328e-05
-1.58174e-05
-3.89282e-05
-1.72093e-05
-2.9601e-05
-1.86521e-05
-1.96258e-05
-1.994e-05
-9.0765e-06
-2.10915e-05
2.14899e-06
-2.24488e-05
1.4006e-05
-2.37016e-05
2.65061e-05
-2.49946e-05
3.95869e-05
-2.61449e-05
5.31368e-05
-2.70865e-05
6.70651e-05
-2.78497e-05
8.1203e-05
-2.82696e-05
9.5412e-05
-2.84023e-05
0.000109499
-2.81637e-05
0.000123393
-2.77943e-05
0.000137019
-2.72449e-05
0.000150353
-2.66495e-05
0.000163418
-2.61367e-05
0.000176123
-2.54179e-05
0.000188456
-2.46591e-05
0.000200363
-2.38125e-05
0.000211544
-2.23691e-05
0.000221737
-2.03934e-05
0.000230668
-1.78722e-05
0.00023792
-1.45169e-05
0.000243306
-1.07916e-05
0.000246453
-6.31844e-06
0.000246891
-8.9695e-07
0.000244929
3.90392e-06
0.00024053
8.83913e-06
0.00023408
1.29338e-05
0.000225548
1.70681e-05
0.000214911
2.12709e-05
0.000202562
2.46969e-05
0.00018866
2.77993e-05
0.000173677
2.99618e-05
0.000157895
3.15575e-05
0.000141601
3.25839e-05
0.000125265
3.26665e-05
0.000109057
3.24129e-05
9.31736e-05
3.17659e-05
7.78726e-05
3.06015e-05
6.31724e-05
2.93995e-05
4.91639e-05
2.8017e-05
3.59179e-05
2.64917e-05
2.33806e-05
2.50746e-05
1.16737e-05
2.34113e-05
7.36895e-07
2.18714e-05
-9.737e-06
2.095e-05
-1.94461e-05
1.94188e-05
-2.84218e-05
1.79518e-05
-3.66676e-05
1.64912e-05
-4.41834e-05
1.50318e-05
-5.10047e-05
1.36428e-05
-5.71477e-05
1.2287e-05
-6.26617e-05
1.10263e-05
-6.75873e-05
9.85156e-06
-7.19647e-05
8.75544e-06
-7.58586e-05
7.78837e-06
-7.93229e-05
6.92553e-06
-8.23882e-05
6.13295e-06
-8.51136e-05
5.44989e-06
-8.75086e-05
4.78589e-06
-8.95909e-05
4.15978e-06
-9.13276e-05
3.4852e-06
-9.27159e-05
2.76714e-06
-9.36869e-05
1.93728e-06
-9.4218e-05
1.06399e-06
-9.41566e-05
-1.25038e-07
-9.34892e-05
-1.34081e-06
-9.20866e-05
-2.81362e-06
-8.9885e-05
-4.40173e-06
-8.68996e-05
-5.97977e-06
-8.30101e-05
-7.77862e-06
-7.81602e-05
-9.69696e-06
-7.24438e-05
-1.14434e-05
-6.56084e-05
-1.36664e-05
-5.77e-05
-1.58175e-05
-4.89161e-05
-1.75577e-05
-3.90384e-05
-1.9748e-05
-2.81845e-05
-2.16984e-05
-1.62171e-05
-2.39099e-05
-3.30053e-06
-2.58528e-05
1.02744e-05
-2.71629e-05
2.48097e-05
-2.90642e-05
4.016e-05
-3.0695e-05
5.59743e-05
-3.16271e-05
7.24366e-05
-3.29204e-05
8.92784e-05
-3.36828e-05
0.000106534
-3.45036e-05
0.000124031
-3.49879e-05
0.000141434
-3.48043e-05
0.000158838
-3.47987e-05
0.00017607
-3.44614e-05
0.000192851
-3.35533e-05
0.000209084
-3.24656e-05
0.000224573
-3.09697e-05
0.000239144
-2.91392e-05
0.000252573
-2.68514e-05
0.000264657
-2.41552e-05
0.000275208
-2.10928e-05
0.00028409
-1.77499e-05
-1.47603e-05
-0.000117858
1.20703e-05
-0.000121073
9.6399e-06
-0.00012356
7.45527e-06
-0.000125354
5.37658e-06
-0.000126477
3.36589e-06
-0.000126959
1.47053e-06
-0.000126737
-6.63204e-07
-0.000125852
-2.6364e-06
-0.000124367
-4.44072e-06
-0.000122183
-6.55947e-06
-0.00011934
-8.53193e-06
-0.000115952
-1.01685e-05
-0.000111818
-1.24232e-05
-0.000107031
-1.43525e-05
-0.000101429
-1.67857e-05
-9.51254e-05
-1.89382e-05
-8.81645e-05
-2.08898e-05
-8.03663e-05
-2.34028e-05
-7.17053e-05
-2.59835e-05
-6.2369e-05
-2.80211e-05
-5.19932e-05
-3.11147e-05
-4.07825e-05
-3.36269e-05
-2.88552e-05
-3.57775e-05
-1.59762e-05
-3.86331e-05
-2.32743e-06
-4.09329e-05
1.22107e-05
-4.3605e-05
2.76657e-05
-4.63496e-05
4.36623e-05
-4.79639e-05
6.03777e-05
-5.01172e-05
7.77905e-05
-5.22143e-05
9.54364e-05
-5.29223e-05
0.000113461
-5.4035e-05
0.000131597
-5.43505e-05
0.000149631
-5.40406e-05
0.000167394
-5.32554e-05
0.000184506
-5.12928e-05
0.000200817
-4.88926e-05
0.000216114
-4.58395e-05
0.000230037
-4.17132e-05
0.000242409
-3.70804e-05
0.000252949
-3.15835e-05
0.000261553
-2.57783e-05
0.000268031
-1.93983e-05
0.000272181
-1.24528e-05
0.000274065
-5.62776e-06
0.000273557
1.50349e-06
0.000270445
9.30118e-06
0.000264967
1.64751e-05
0.000257328
2.28731e-05
0.00024746
2.95669e-05
0.000235651
3.53792e-05
0.00022209
4.06347e-05
0.00020703
4.51215e-05
0.000190739
4.88166e-05
0.000173353
5.21027e-05
0.000155231
5.43215e-05
0.000136605
5.58433e-05
0.000117678
5.67179e-05
9.88323e-05
5.64772e-05
8.0149e-05
5.6011e-05
6.18896e-05
5.47323e-05
4.41876e-05
5.31016e-05
2.71501e-05
5.11092e-05
1.09067e-05
4.87271e-05
-4.47038e-06
4.61107e-05
-1.8906e-05
4.33027e-05
-3.235e-05
4.03326e-05
-4.48658e-05
3.7551e-05
-5.63825e-05
3.45584e-05
-6.70182e-05
3.19162e-05
-7.67661e-05
2.92567e-05
-8.56469e-05
2.66737e-05
-9.37742e-05
2.44133e-05
-0.000101209
2.2332e-05
-0.00010796
2.02897e-05
-0.000114153
1.86274e-05
-0.000119759
1.68741e-05
-0.000124836
1.52833e-05
-0.000129426
1.38224e-05
-0.000133461
1.21649e-05
-0.00013688
1.03256e-05
-0.000139689
8.5065e-06
-0.000141758
6.27632e-06
-0.000142958
3.64422e-06
-0.000143339
1.16817e-06
-0.00014271
-1.86789e-06
-0.000141078
-4.85021e-06
-0.000138496
-7.73289e-06
-0.000134906
-1.07514e-05
-0.000130366
-1.3663e-05
-0.000124807
-1.66761e-05
-0.000118403
-1.92685e-05
-0.000111092
-2.20613e-05
-0.000102743
-2.50046e-05
-9.34183e-05
-2.80573e-05
-8.31262e-05
-3.09597e-05
-7.17977e-05
-3.40949e-05
-5.94218e-05
-3.72006e-05
-4.60018e-05
-4.03386e-05
-3.16627e-05
-4.3058e-05
-1.65033e-05
-4.5539e-05
-6.61287e-07
-4.75169e-05
1.56875e-05
-4.90764e-05
3.24264e-05
-5.02543e-05
4.94546e-05
-5.10557e-05
6.66262e-05
-5.15577e-05
8.38983e-05
-5.18133e-05
0.000101153
-5.17602e-05
0.000118324
-5.15016e-05
0.000135376
-5.11029e-05
0.000152023
-4.99673e-05
0.000168239
-4.86049e-05
0.000183786
-4.6602e-05
0.000198563
-4.42007e-05
0.000212154
-4.07708e-05
0.000224499
-3.69301e-05
0.000235299
-3.23773e-05
0.000244372
-2.71842e-05
0.000251565
-2.14716e-05
0.000256599
-1.51461e-05
0.000259433
-8.47665e-06
0.000259977
-1.6355e-06
0.000258206
5.32224e-06
0.000253947
1.26982e-05
0.000247394
1.96551e-05
0.000238629
2.62657e-05
0.000227786
3.24698e-05
0.000215037
3.81899e-05
0.000200645
4.31176e-05
0.000184832
4.73601e-05
0.000167898
5.07491e-05
0.000150105
5.3282e-05
0.000131769
5.50163e-05
0.00011311
5.58284e-05
9.44675e-05
5.5884e-05
7.60746e-05
5.51195e-05
5.81697e-05
5.3756e-05
4.0811e-05
5.19383e-05
2.43184e-05
4.94129e-05
8.74309e-06
4.68002e-05
-5.84603e-06
4.37207e-05
-1.94033e-05
4.06574e-05
-3.18464e-05
3.73188e-05
-4.32184e-05
3.41109e-05
-5.34886e-05
3.0805e-05
-6.27144e-05
2.76638e-05
-7.09044e-05
2.47173e-05
-7.81989e-05
2.17807e-05
-8.45241e-05
1.89701e-05
-8.99364e-05
1.61938e-05
-9.44648e-05
1.37118e-05
-9.82816e-05
1.13635e-05
-0.00010127
8.97954e-06
-0.000103568
6.91908e-06
-0.000105161
4.91258e-06
-0.000106323
3.35674e-06
-0.000106938
1.86503e-06
-0.000107155
6.72711e-07
-0.000107025
-3.9543e-07
-0.000106566
-1.44871e-06
-0.000105786
-2.14173e-06
-0.000104731
-3.26752e-06
-0.000103287
-4.33111e-06
-0.000101442
-5.57277e-06
-9.91213e-05
-6.97648e-06
-9.63508e-05
-8.31472e-06
-9.30966e-05
-9.74712e-06
-8.92746e-05
-1.14538e-05
-8.48664e-05
-1.32132e-05
-7.98937e-05
-1.49554e-05
-7.42569e-05
-1.68917e-05
-6.80196e-05
-1.87829e-05
-6.11236e-05
-2.05745e-05
-5.35355e-05
-2.27858e-05
-4.5278e-05
-2.47542e-05
-3.62786e-05
-2.70172e-05
-2.64766e-05
-2.93434e-05
-1.6043e-05
-3.13297e-05
-4.78465e-06
-3.37571e-05
7.23121e-06
-3.59828e-05
1.99437e-05
-3.81657e-05
3.33931e-05
-4.0311e-05
4.7437e-05
-4.21243e-05
6.20374e-05
-4.37784e-05
7.71316e-05
-4.52652e-05
9.25219e-05
-4.61481e-05
0.000108139
-4.68003e-05
0.000123845
-4.70623e-05
0.000139381
-4.65454e-05
0.000154582
-4.55464e-05
0.000169212
-4.38019e-05
0.000183005
-4.13547e-05
0.000195696
-3.80203e-05
0.000207085
-3.41171e-05
0.000216977
-2.96407e-05
0.000225086
-2.4308e-05
0.000231331
-1.87484e-05
0.000235513
-1.25203e-05
0.000237577
-6.13875e-06
0.00023742
4.22873e-07
0.000235007
7.21161e-06
0.000230409
1.37958e-05
0.00022372
2.0024e-05
0.000215086
2.58655e-05
0.000204664
3.11548e-05
0.000192672
3.59631e-05
0.000179359
3.98776e-05
0.000164927
4.32331e-05
0.000149699
4.55988e-05
0.000133915
4.73758e-05
0.000117738
4.84005e-05
0.000101531
4.85791e-05
8.54346e-05
4.81448e-05
6.96732e-05
4.73344e-05
5.43945e-05
4.58212e-05
3.98072e-05
4.38444e-05
2.58282e-05
4.18127e-05
1.27329e-05
3.92841e-05
4.78136e-07
3.67841e-05
-1.08946e-05
3.41151e-05
-2.13313e-05
3.12731e-05
-3.08809e-05
2.86977e-05
-3.95865e-05
2.60658e-05
-4.73729e-05
2.33392e-05
-5.43807e-05
2.10523e-05
-6.07953e-05
1.92478e-05
-6.64963e-05
1.71692e-05
-7.17632e-05
1.57435e-05
-7.64812e-05
1.41663e-05
-8.07327e-05
1.27597e-05
-8.45192e-05
1.14655e-05
-8.80148e-05
1.02929e-05
-9.10666e-05
9.3531e-06
-9.38523e-05
8.28414e-06
-9.62477e-05
7.2218e-06
-9.83246e-05
6.19863e-06
-0.000100059
5.12464e-06
-0.000101346
3.91808e-06
-0.000102229
2.60754e-06
-0.000102642
1.24676e-06
-0.000102564
-2.31719e-07
-0.00010205
-1.5121e-06
-0.000101006
-3.0874e-06
-9.9563e-05
-4.36283e-06
-9.75952e-05
-5.82481e-06
-9.52685e-05
-7.0388e-06
-9.23605e-05
-8.70732e-06
-8.90061e-05
-1.01834e-05
-8.5007e-05
-1.18591e-05
-8.04457e-05
-1.3722e-05
-7.52487e-05
-1.55738e-05
-6.93807e-05
-1.76151e-05
-6.28445e-05
-1.9593e-05
-5.5627e-05
-2.17317e-05
-4.76815e-05
-2.3763e-05
-3.90774e-05
-2.58134e-05
-2.97572e-05
-2.79723e-05
-1.97831e-05
-2.99141e-05
-9.23596e-06
-3.16387e-05
1.9831e-06
-3.3668e-05
1.38571e-05
-3.55756e-05
2.63624e-05
-3.74999e-05
3.9431e-05
-3.92136e-05
5.302e-05
-4.06756e-05
6.69657e-05
-4.17955e-05
8.11232e-05
-4.24272e-05
9.53569e-05
-4.26361e-05
0.000109473
-4.22798e-05
0.000123395
-4.1717e-05
0.000137046
-4.08953e-05
0.000150403
-4.00065e-05
0.00016349
-3.92245e-05
0.000176205
-3.81325e-05
0.000188542
-3.69957e-05
0.000200455
-3.57257e-05
0.000211622
-3.35361e-05
0.000221778
-3.05503e-05
0.000230679
-2.67728e-05
0.000237863
-2.17012e-05
0.000243121
-1.6049e-05
0.000246094
-9.2917e-06
0.000246472
-1.27515e-06
0.000244682
5.69394e-06
0.000240488
1.3033e-05
0.000234096
1.93259e-05
0.000225565
2.55991e-05
0.000214922
3.19137e-05
0.000202562
3.70563e-05
0.000188649
4.17128e-05
0.000173652
4.49585e-05
0.000157857
4.73523e-05
0.000141552
4.88897e-05
0.000125206
4.90117e-05
0.000108992
4.86274e-05
9.31038e-05
4.7654e-05
7.78016e-05
4.59037e-05
6.30991e-05
4.4102e-05
4.90945e-05
4.20217e-05
3.58478e-05
3.97383e-05
2.33116e-05
3.76108e-05
1.16016e-05
3.51212e-05
6.57048e-07
3.2816e-05
-9.80667e-06
3.14137e-05
-1.9512e-05
2.91241e-05
-2.84855e-05
2.69252e-05
-3.67292e-05
2.47349e-05
-4.4243e-05
2.25456e-05
-5.10618e-05
2.04616e-05
-5.72026e-05
1.84278e-05
-6.27147e-05
1.65384e-05
-6.76337e-05
1.47705e-05
-7.20132e-05
1.3135e-05
-7.59032e-05
1.16783e-05
-7.93669e-05
1.03892e-05
-8.24319e-05
9.19794e-06
-8.51547e-05
8.1727e-06
-8.75495e-05
7.1807e-06
-8.96353e-05
6.24557e-06
-9.1367e-05
5.21691e-06
-9.27679e-05
4.16806e-06
-9.37454e-05
2.91469e-06
-9.42776e-05
1.59623e-06
-9.4216e-05
-1.86692e-07
-9.35528e-05
-2.00402e-06
-9.21595e-05
-4.20696e-06
-8.99602e-05
-6.60103e-06
-8.6983e-05
-8.95696e-06
-8.30961e-05
-1.16656e-05
-7.8243e-05
-1.45502e-05
-7.2535e-05
-1.71514e-05
-6.56889e-05
-2.05126e-05
-5.77801e-05
-2.37264e-05
-4.89971e-05
-2.63408e-05
-3.91173e-05
-2.96279e-05
-2.82563e-05
-3.25594e-05
-1.62659e-05
-3.59004e-05
-3.3654e-06
-3.87534e-05
1.02181e-05
-4.07465e-05
2.47592e-05
-4.36055e-05
4.01163e-05
-4.60522e-05
5.59405e-05
-4.74514e-05
7.24085e-05
-4.93885e-05
8.92582e-05
-5.05326e-05
0.000106519
-5.1765e-05
0.000124026
-5.24941e-05
0.00014143
-5.22085e-05
0.000158839
-5.22082e-05
0.000176073
-5.16953e-05
0.000192858
-5.03388e-05
0.000209096
-4.87036e-05
0.000224589
-4.64632e-05
0.000239172
-4.37224e-05
0.000252614
-4.0294e-05
0.000264711
-3.62522e-05
0.000275292
-3.1674e-05
0.000284212
-2.66694e-05
-2.21712e-05
-0.000117957
1.61016e-05
-0.000121178
1.28604e-05
-0.000123668
9.9454e-06
-0.000125462
7.17077e-06
-0.000126586
4.48973e-06
-0.000127049
1.93322e-06
-0.000126828
-8.84417e-07
-0.000125931
-3.53293e-06
-0.000124438
-5.93387e-06
-0.000122255
-8.74245e-06
-0.000119416
-1.13709e-05
-0.000116031
-1.35534e-05
-0.0001119
-1.65539e-05
-0.000107112
-1.91404e-05
-0.000101506
-2.23925e-05
-9.52169e-05
-2.52271e-05
-8.82379e-05
-2.78688e-05
-8.04677e-05
-3.11731e-05
-7.18066e-05
-3.46446e-05
-6.24788e-05
-3.73489e-05
-5.21038e-05
-4.14898e-05
-4.08819e-05
-4.48488e-05
-2.89507e-05
-4.77088e-05
-1.60714e-05
-5.15124e-05
-2.4142e-06
-5.45902e-05
1.21359e-05
-5.81552e-05
2.7598e-05
-6.18118e-05
4.36054e-05
-6.39714e-05
6.03411e-05
-6.68529e-05
7.77681e-05
-6.96414e-05
9.54254e-05
-7.05797e-05
0.000113473
-7.20831e-05
0.000131638
-7.25154e-05
0.0001497
-7.21023e-05
0.000167485
-7.10407e-05
0.000184623
-6.84304e-05
0.000200956
-6.52259e-05
0.000216289
-6.11729e-05
0.000230246
-5.56706e-05
0.000242632
-4.9466e-05
0.000253197
-4.21481e-05
0.000261816
-3.43978e-05
0.000268317
-2.58991e-05
0.000272467
-1.66027e-05
0.000274352
-7.5136e-06
0.000273832
2.02387e-06
0.000270708
1.24245e-05
0.000265257
2.19268e-05
0.000257588
3.05422e-05
0.000247695
3.94591e-05
0.000235857
4.7217e-05
0.000222266
5.42257e-05
0.000207173
6.02147e-05
0.00019085
6.51399e-05
0.000173433
6.95195e-05
0.000155285
7.24688e-05
0.000136642
7.44866e-05
0.000117672
7.5688e-05
9.8774e-05
7.53752e-05
8.00768e-05
7.47082e-05
6.17878e-05
7.30214e-05
4.40935e-05
7.07958e-05
2.70601e-05
6.81427e-05
1.08171e-05
6.49701e-05
-4.57038e-06
6.14981e-05
-1.9006e-05
5.77384e-05
-3.24483e-05
5.37748e-05
-4.49596e-05
5.00624e-05
-5.64694e-05
4.60682e-05
-6.70937e-05
4.25405e-05
-7.68307e-05
3.89937e-05
-8.56983e-05
3.55412e-05
-9.38128e-05
3.25279e-05
-0.000101226
2.97447e-05
-0.000107949
2.70134e-05
-0.000114123
2.48014e-05
-0.000119701
2.24521e-05
-0.000124739
2.03214e-05
-0.000129297
1.83803e-05
-0.000133291
1.6159e-05
-0.000136648
1.36825e-05
-0.000139399
1.12571e-05
-0.000141421
8.29882e-06
-0.000142606
4.82929e-06
-0.000143004
1.56572e-06
-0.000142373
-2.49941e-06
-0.000140716
-6.50692e-06
-0.000138122
-1.03271e-05
-0.000134525
-1.43481e-05
-0.000130001
-1.81874e-05
-0.000124455
-2.2222e-05
-0.000118097
-2.56262e-05
-0.0001108
-2.93585e-05
-0.000102423
-3.33819e-05
-9.31925e-05
-3.72874e-05
-8.29634e-05
-4.11888e-05
-7.17159e-05
-4.53425e-05
-5.93438e-05
-4.95727e-05
-4.59781e-05
-5.37043e-05
-3.16751e-05
-5.7361e-05
-1.65484e-05
-6.06658e-05
-7.38962e-07
-6.33264e-05
1.56173e-05
-6.54328e-05
3.23413e-05
-6.69783e-05
4.93886e-05