/*--------------------------------*- C++ -*----------------------------------*\
| =========                 |                                                 |
| \\      /  F ield         | OpenFOAM: The Open Source CFD Toolbox           |
|  \\    /   O peration     | Version:  3.0.1                                 |
|   \\  /    A nd           | Web:      www.OpenFOAM.org                      |
|    \\/     M anipulation  |                                                 |
\*---------------------------------------------------------------------------*/
FoamFile
{
    version     2.0;
    format      ascii;
    class       volScalarField;
    location    "32.4";
    object      p;
}
// * * * * * * * * * * * * * * * * * * * * * * * * * * * * * * * * * * * * * //

dimensions      [1 -1 -2 0 0 0 0];

internalField   nonuniform List<scalar> 
21420
(
4066.16
4033.63
3999.94
3965.47
3930.61
3895.66
3860.99
3826.88
3793.63
3761.52
3730.74
3701.54
3674.04
3648.32
3624.46
3602.49
3582.4
3564.2
3547.84
3533.28
3520.48
3509.38
3499.91
3492.03
3485.68
3480.81
3477.4
3475.42
3474.86
3475.7
3477.89
3481.48
3486.5
3492.94
3500.87
3510.31
3521.29
3533.87
3548.1
3564.03
3581.69
3601.13
3622.36
3645.42
3670.26
3696.81
3725
3754.67
3785.07
3816.92
3849.87
3883.5
3917.49
3951.46
3985.01
4017.79
4049.38
4079.38
4107.4
4133.08
4156.07
4176.04
4192.68
4205.77
4215.09
4220.48
4221.72
4219.13
4212.46
4201.79
4187.21
4168.9
4147.13
4122.2
4094.45
4064.31
4032.21
3998.59
3963.93
3928.72
3893.37
3858.37
3824.09
3790.26
3756.14
3724.4
3694.77
3667.25
3641.88
3618.69
3597.66
3578.77
3561.96
3547.16
3534.31
3523.32
3514.12
3506.61
3500.71
3496.35
3493.46
3491.96
3491.77
3492.86
3495.22
3498.77
3503.52
3509.48
3516.65
3525.06
3534.75
3545.75
3558.11
3571.88
3587.09
3603.8
3622.04
3641.85
3663.23
3686.18
3710.69
3736.69
3764.11
3792.85
3822.78
3853.71
3885.38
3917.57
3949.99
3982.3
4014.15
4045.15
4074.89
4102.96
4128.93
4152.41
4173.01
4190.36
4204.15
4214.12
4220.05
4221.76
4219.28
4212.58
4201.79
4187.01
4168.54
4146.66
4121.74
4094.15
4064.35
4032.78
3999.9
3966.2
3932.12
3898.12
3864.6
3831.95
3800.49
3770.47
3742.09
3715.52
3690.84
3668.11
3647.33
3628.48
3611.52
3596.37
3582.96
3571.19
3560.98
3552.24
3544.89
3538.87
3534.12
3530.59
3528.23
3527.03
3526.96
3528.03
3530.19
3533.45
3537.84
3543.36
3550.06
3557.97
3567.15
3577.67
3589.6
3603.02
3617.99
3634.58
3652.84
3672.8
3694.46
3717.83
3742.84
3769.42
3797.46
3826.78
3857.23
3888.49
3920.31
3952.36
3984.3
4015.75
4046.3
4075.55
4103.07
4128.47
4151.33
4171.29
4188.02
4201.22
4210.68
4216.22
4217.69
4215.18
4208.67
4198.29
4184.17
4166.6
4145.84
4122.24
4096.17
4068.04
4038.27
4007.29
3975.54
3943.42
3911.34
3879.64
3848.65
3818.62
3789.77
3762.27
3736.26
3711.83
3689.04
3667.91
3648.44
3630.62
3614.42
3599.8
3586.72
3575.12
3564.96
3556.21
3548.82
3542.76
3538.01
3534.51
3532.26
3531.28
3531.5
3532.93
3535.59
3539.5
3544.68
3551.15
3558.95
3568.11
3578.68
3590.68
3604.16
3619.14
3635.65
3653.7
3673.32
3694.45
3717.09
3741.14
3766.52
3793.04
3820.5
3849.59
3882.98
3916.87
3950.7
3984.49
4017.89
4050.65
4082.33
4112.52
4140.79
4166.68
4189.69
4209.47
4225.53
4237.55
4245.1
4248.27
4248.46
4244.69
4236.87
4225.44
4210.45
4192.18
4170.97
4147.11
4121.07
4093.17
4063.84
4033.54
4002.53
3971.18
3939.81
3908.56
3878.08
3853.43
3825.73
3798.94
3773.3
3748.99
3726.13
3704.76
3684.91
3666.59
3649.79
3634.5
3620.7
3608.38
3597.53
3588.15
3580.24
3573.81
3568.88
3565.46
3563.61
3563.36
3564.67
3567.62
3572.23
3578.51
3586.45
3596.06
3607.34
3620.28
3634.87
3651.08
3668.88
3688.21
3709.01
3731.22
3754.73
3779.45
3805.3
3832.11
3859.77
3888.09
3916.9
3946.03
3975.22
4004.23
4032.87
4060.73
4087.49
3968.1
3935.56
3901.85
3867.37
3832.49
3797.52
3762.84
3728.72
3695.47
3663.34
3632.56
3603.36
3575.85
3550.13
3526.28
3504.3
3484.22
3466.02
3449.66
3435.11
3422.31
3411.21
3401.75
3393.87
3387.52
3382.66
3379.25
3377.26
3376.71
3377.54
3379.73
3383.33
3388.34
3394.79
3402.71
3412.14
3423.13
3435.7
3449.93
3465.85
3483.52
3502.95
3524.18
3547.24
3572.08
3598.63
3626.83
3656.5
3686.9
3718.76
3751.72
3785.36
3819.37
3853.35
3886.92
3919.71
3951.32
3981.33
4009.38
4035.07
4058.08
4078.06
4094.72
4107.81
4117.14
4122.53
4123.79
4121.19
4114.51
4103.84
4089.24
4070.93
4049.14
4024.19
3996.43
3966.26
3934.15
3900.5
3865.83
3830.59
3795.23
3760.22
3725.92
3692.09
3657.96
3626.21
3596.58
3569.06
3543.69
3520.5
3499.48
3480.59
3463.78
3448.98
3436.13
3425.15
3415.95
3408.44
3402.55
3398.19
3395.3
3393.8
3393.62
3394.71
3397.07
3400.62
3405.37
3411.33
3418.5
3426.91
3436.6
3447.6
3459.95
3473.71
3488.92
3505.63
3523.87
3543.68
3565.06
3588.01
3612.52
3638.52
3665.94
3694.68
3724.62
3755.55
3787.24
3819.44
3851.87
3884.19
3916.06
3947.07
3976.83
4004.92
4030.92
4054.41
4075.02
4092.39
4106.2
4116.17
4122.12
4123.83
4121.34
4114.64
4103.83
4089.05
4070.56
4048.67
4023.72
3996.12
3966.29
3934.7
3901.81
3868.08
3833.99
3799.97
3766.44
3733.78
3702.31
3672.28
3643.9
3617.33
3592.65
3569.92
3549.14
3530.3
3513.34
3498.2
3484.79
3473.02
3462.82
3454.08
3446.74
3440.72
3435.97
3432.44
3430.09
3428.88
3428.82
3429.89
3432.04
3435.31
3439.69
3445.21
3451.91
3459.82
3469
3479.52
3491.44
3504.85
3519.82
3536.4
3554.66
3574.62
3596.29
3619.65
3644.66
3671.25
3699.29
3728.62
3759.07
3790.34
3822.17
3854.24
3886.19
3917.66
3948.23
3977.49
4005.04
4030.45
4053.33
4073.31
4090.05
4103.27
4112.73
4118.28
4119.75
4117.23
4110.72
4100.32
4086.2
4068.61
4047.84
4024.22
3998.13
3969.98
3940.19
3909.2
3877.42
3845.29
3813.2
3781.49
3750.49
3720.45
3691.59
3664.09
3638.08
3613.65
3590.86
3569.73
3550.27
3532.45
3516.26
3501.64
3488.55
3476.95
3466.8
3458.05
3450.66
3444.61
3439.86
3436.36
3434.11
3433.13
3433.35
3434.78
3437.44
3441.35
3446.52
3452.99
3460.79
3469.95
3480.52
3492.52
3506
3520.97
3537.48
3555.53
3575.15
3596.29
3618.93
3642.98
3668.36
3694.88
3722.34
3751.44
3784.85
3818.75
3852.59
3886.39
3919.81
3952.58
3984.28
4014.49
4042.78
4068.68
4091.72
4111.51
4127.59
4139.61
4147.19
4150.38
4150.53
4146.75
4138.94
4127.49
4112.48
4094.2
4072.96
4049.09
4023.03
3995.11
3965.77
3935.44
3904.42
3873.06
3841.68
3810.42
3779.94
3755.25
3727.56
3700.77
3675.13
3650.82
3627.96
3606.59
3586.74
3568.42
3551.62
3536.34
3522.54
3510.22
3499.37
3489.99
3482.08
3475.65
3470.72
3467.3
3465.45
3465.19
3466.5
3469.45
3474.07
3480.34
3488.28
3497.89
3509.17
3522.11
3536.7
3552.91
3570.71
3590.04
3610.85
3633.05
3656.57
3681.29
3707.14
3733.96
3761.63
3789.95
3818.77
3847.91
3877.1
3906.13
3934.77
3962.65
3989.42
3870.1
3837.52
3803.78
3769.25
3734.34
3699.35
3664.64
3630.51
3597.23
3565.09
3534.3
3505.09
3477.58
3451.86
3428.01
3406.03
3385.96
3367.76
3351.41
3336.87
3324.07
3312.98
3303.52
3295.64
3289.3
3284.44
3281.03
3279.05
3278.5
3279.33
3281.52
3285.11
3290.12
3296.57
3304.49
3313.92
3324.89
3337.47
3351.69
3367.61
3385.27
3404.7
3425.92
3448.98
3473.82
3500.38
3528.58
3558.26
3588.65
3620.54
3653.52
3687.19
3721.22
3755.23
3788.83
3821.65
3853.3
3883.35
3911.42
3937.15
3960.19
3980.2
3996.88
4010
4019.35
4024.75
4026.03
4023.4
4016.73
4006.04
3991.42
3973.08
3951.26
3926.28
3898.47
3868.27
3836.11
3802.42
3767.71
3732.44
3697.05
3662.01
3627.69
3593.84
3559.7
3527.94
3498.31
3470.78
3445.41
3422.22
3401.2
3382.32
3365.51
3350.72
3337.88
3326.9
3317.71
3310.21
3304.32
3299.98
3297.09
3295.6
3295.41
3296.52
3298.87
3302.42
3307.17
3313.13
3320.3
3328.71
3338.39
3349.39
3361.74
3375.49
3390.7
3407.4
3425.64
3445.44
3466.81
3489.77
3514.27
3540.28
3567.7
3596.45
3626.4
3657.35
3689.05
3721.27
3753.72
3786.08
3817.97
3849.02
3878.82
3906.94
3932.98
3956.51
3977.16
3994.56
4008.39
4018.39
4024.34
4026.08
4023.56
4016.85
4006.03
3991.23
3972.71
3950.78
3925.79
3898.15
3868.28
3836.65
3803.72
3769.95
3735.82
3701.77
3668.22
3635.54
3604.05
3574.01
3545.62
3519.05
3494.37
3471.64
3450.87
3432.03
3415.08
3399.95
3386.55
3374.79
3364.59
3355.86
3348.53
3342.52
3337.77
3334.25
3331.89
3330.69
3330.64
3331.7
3333.85
3337.12
3341.5
3347.02
3353.71
3361.61
3370.79
3381.3
3393.22
3406.62
3421.58
3438.16
3456.41
3476.36
3498.03
3521.39
3546.41
3573
3601.05
3630.39
3660.86
3692.15
3724
3756.1
3788.08
3819.58
3850.18
3879.48
3907.06
3932.51
3955.43
3975.44
3992.21
4005.45
4014.93
4020.49
4021.98
4019.44
4012.92
4002.5
3988.36
3970.74
3949.93
3926.28
3900.15
3871.96
3842.14
3811.11
3779.3
3747.14
3715.02
3683.29
3652.27
3622.22
3593.35
3565.84
3539.83
3515.4
3492.6
3471.48
3452.02
3434.21
3418.02
3403.41
3390.33
3378.73
3368.58
3359.84
3352.46
3346.4
3341.65
3338.16
3335.92
3334.93
3335.15
3336.58
3339.24
3343.15
3348.32
3354.78
3362.58
3371.74
3382.3
3394.3
3407.77
3422.74
3439.24
3457.3
3476.91
3498.05
3520.69
3544.74
3570.13
3596.66
3624.13
3653.23
3686.69
3720.61
3754.47
3788.29
3821.74
3854.54
3886.28
3916.53
3944.85
3970.8
3993.87
4013.69
4029.8
4041.85
4049.47
4052.68
4052.77
4048.97
4041.16
4029.69
4014.65
3996.33
3975.06
3951.15
3925.05
3897.09
3867.71
3837.35
3806.3
3774.92
3743.52
3712.25
3681.77
3657
3629.32
3602.53
3576.88
3552.58
3529.71
3508.34
3488.5
3470.18
3453.39
3438.11
3424.31
3412
3401.15
3391.77
3383.86
3377.43
3372.5
3369.08
3367.23
3366.96
3368.27
3371.22
3375.84
3382.11
3390.05
3399.66
3410.93
3423.88
3438.46
3454.68
3472.47
3491.81
3512.62
3534.83
3558.34
3583.07
3608.93
3635.76
3663.44
3691.77
3720.61
3749.76
3778.97
3808.02
3836.69
3864.58
3891.39
3772.15
3739.51
3705.71
3671.13
3636.18
3601.14
3566.4
3532.23
3498.93
3466.77
3435.96
3406.74
3379.22
3353.51
3329.65
3307.68
3287.61
3269.43
3253.08
3238.55
3225.77
3214.68
3205.23
3197.36
3191.02
3186.17
3182.77
3180.79
3180.23
3181.06
3183.25
3186.85
3191.85
3198.29
3206.21
3215.63
3226.6
3239.16
3253.38
3269.29
3286.94
3306.36
3327.58
3350.64
3375.48
3402.04
3430.26
3459.95
3490.34
3522.25
3555.27
3588.97
3623.04
3657.1
3690.74
3723.62
3755.32
3785.41
3813.54
3839.33
3862.41
3882.47
3899.19
3912.33
3921.71
3927.12
3928.43
3925.77
3919.1
3908.39
3893.74
3875.36
3853.49
3828.45
3800.59
3770.33
3738.11
3704.36
3669.59
3634.27
3598.83
3563.75
3529.39
3495.52
3461.36
3429.59
3399.94
3372.41
3347.04
3323.85
3302.84
3283.96
3267.16
3252.38
3239.55
3228.58
3219.4
3211.91
3206.04
3201.7
3198.83
3197.34
3197.16
3198.27
3200.63
3204.18
3208.93
3214.88
3222.05
3230.45
3240.13
3251.12
3263.46
3277.21
3292.41
3309.1
3327.33
3347.13
3368.5
3391.45
3415.96
3441.96
3469.4
3498.16
3528.13
3559.09
3590.82
3623.07
3655.56
3687.96
3719.9
3751
3780.85
3809.03
3835.12
3858.71
3879.41
3896.85
3910.73
3920.75
3926.73
3928.49
3925.95
3919.23
3908.38
3893.54
3874.97
3852.99
3827.95
3800.24
3770.32
3738.62
3705.63
3671.81
3637.63
3603.53
3569.94
3537.22
3505.71
3475.65
3447.26
3420.67
3396
3373.28
3352.51
3333.69
3316.75
3301.63
3288.24
3276.5
3266.31
3257.59
3250.26
3244.26
3239.52
3236
3233.66
3232.45
3232.41
3233.47
3235.62
3238.88
3243.26
3248.78
3255.46
3263.36
3272.52
3283.02
3294.93
3308.32
3323.27
3339.84
3358.09
3378.03
3399.69
3423.06
3448.08
3474.68
3502.74
3532.1
3562.59
3593.91
3625.8
3657.93
3689.96
3721.5
3752.16
3781.52
3809.16
3834.66
3857.63
3877.69
3894.5
3907.78
3917.29
3922.86
3924.37
3921.8
3915.27
3904.83
3890.65
3872.98
3852.13
3828.42
3802.23
3773.99
3744.11
3713.02
3681.16
3648.96
3616.8
3585.03
3553.98
3523.91
3495.03
3467.52
3441.5
3417.06
3394.27
3373.15
3353.7
3335.9
3319.71
3305.11
3292.04
3280.45
3270.31
3261.57
3254.19
3248.15
3243.4
3239.91
3237.67
3236.69
3236.9
3238.33
3240.99
3244.89
3250.06
3256.52
3264.31
3273.47
3284.02
3296.01
3309.48
3324.44
3340.94
3358.99
3378.6
3399.74
3422.38
3446.44
3471.84
3498.37
3525.86
3554.97
3588.49
3622.44
3656.33
3690.19
3723.68
3756.53
3788.33
3818.64
3847.02
3873.03
3896.15
3916.02
3932.17
3944.26
3951.93
3955.16
3955.19
3951.37
3943.54
3932.04
3916.96
3898.58
3877.25
3853.28
3827.12
3799.1
3769.67
3739.26
3708.17
3676.75
3645.32
3614.04
3583.56
3558.68
3531.01
3504.21
3478.57
3454.26
3431.4
3410.03
3390.2
3371.88
3355.1
3339.82
3326.03
3313.72
3302.87
3293.49
3285.58
3279.15
3274.22
3270.8
3268.95
3268.67
3269.98
3272.93
3277.54
3283.81
3291.75
3301.35
3312.63
3325.57
3340.16
3356.37
3374.17
3393.51
3414.32
3436.54
3460.06
3484.8
3510.67
3537.51
3565.21
3593.56
3622.41
3651.59
3680.83
3709.91
3738.6
3766.54
3793.38
3674.24
3641.52
3607.65
3573.01
3537.99
3502.9
3468.11
3433.89
3400.56
3368.37
3337.54
3308.3
3280.78
3255.06
3231.21
3209.25
3189.19
3171.01
3154.68
3140.16
3127.39
3116.31
3106.87
3099.01
3092.68
3087.84
3084.44
3082.47
3081.91
3082.74
3084.93
3088.52
3093.53
3099.96
3107.87
3117.28
3128.24
3140.79
3155
3170.9
3188.54
3207.95
3229.17
3252.22
3277.06
3303.63
3331.86
3361.58
3391.96
3423.91
3456.97
3490.72
3524.84
3558.96
3592.66
3625.6
3657.37
3687.54
3715.74
3741.59
3764.73
3784.85
3801.62
3814.81
3824.22
3829.65
3830.99
3828.32
3821.63
3810.89
3796.2
3777.77
3755.83
3730.72
3702.79
3672.44
3640.14
3606.31
3571.47
3536.07
3500.57
3465.43
3431.03
3397.12
3362.93
3331.14
3301.49
3273.95
3248.58
3225.4
3204.39
3185.52
3168.73
3153.96
3141.14
3130.19
3121.02
3113.55
3107.69
3103.37
3100.51
3099.02
3098.86
3099.98
3102.33
3105.89
3110.64
3116.59
3123.75
3132.15
3141.82
3152.8
3165.13
3178.87
3194.05
3210.74
3228.96
3248.75
3270.11
3293.06
3317.57
3343.58
3371.03
3399.8
3429.79
3460.78
3492.54
3524.84
3557.38
3589.83
3621.84
3653
3682.93
3711.18
3737.35
3761.01
3781.77
3799.28
3813.21
3823.28
3829.28
3831.06
3828.51
3821.77
3810.88
3795.99
3777.36
3755.31
3730.19
3702.41
3672.4
3640.62
3607.55
3573.65
3539.4
3505.24
3471.59
3438.84
3407.29
3377.21
3348.8
3322.21
3297.54
3274.82
3254.07
3235.26
3218.34
3203.23
3189.86
3178.14
3167.97
3159.26
3151.95
3145.96
3141.23
3137.71
3135.37
3134.18
3134.13
3135.19
3137.35
3140.6
3144.98
3150.49
3157.17
3165.05
3174.2
3184.69
3196.58
3209.96
3224.89
3241.45
3259.68
3279.62
3301.28
3324.65
3349.67
3376.28
3404.36
3433.75
3464.26
3495.63
3527.56
3559.75
3591.83
3623.44
3654.17
3683.6
3711.31
3736.89
3759.93
3780.06
3796.93
3810.25
3819.8
3825.39
3826.91
3824.33
3817.77
3807.29
3793.06
3775.34
3754.42
3730.63
3704.38
3676.05
3646.1
3614.94
3583.02
3550.75
3518.53
3486.72
3455.64
3425.55
3396.65
3369.12
3343.09
3318.65
3295.87
3274.75
3255.3
3237.51
3221.34
3206.75
3193.69
3182.11
3171.98
3163.25
3155.88
3149.84
3145.1
3141.61
3139.38
3138.39
3138.61
3140.04
3142.7
3146.59
3151.75
3158.21
3165.99
3175.13
3185.68
3197.67
3211.12
3226.08
3242.57
3260.62
3280.22
3301.36
3324.01
3348.08
3373.48
3400.03
3427.53
3456.66
3490.27
3524.25
3558.18
3592.09
3625.64
3658.55
3690.43
3720.81
3749.28
3775.37
3798.56
3818.5
3834.7
3846.83
3854.56
3857.82
3857.8
3853.93
3846.09
3834.54
3819.39
3800.94
3779.54
3755.49
3729.25
3701.16
3671.65
3641.18
3610.03
3578.57
3547.09
3515.79
3485.31
3460.29
3432.62
3405.83
3380.18
3355.87
3333.01
3311.65
3291.82
3273.52
3256.74
3241.46
3227.68
3215.37
3204.53
3195.16
3187.25
3180.81
3175.88
3172.46
3170.6
3170.32
3171.62
3174.57
3179.18
3185.44
3193.38
3202.98
3214.25
3227.19
3241.78
3258
3275.8
3295.14
3315.96
3338.19
3361.72
3386.47
3412.36
3439.21
3466.93
3495.3
3524.18
3553.39
3582.67
3611.79
3640.53
3668.51
3695.4
3576.38
3543.57
3509.61
3474.88
3439.78
3404.62
3369.76
3335.5
3302.12
3269.9
3239.04
3209.78
3182.25
3156.53
3132.69
3110.73
3090.68
3072.52
3056.2
3041.69
3028.94
3017.88
3008.45
3000.6
2994.29
2989.45
2986.06
2984.09
2983.54
2984.36
2986.56
2990.14
2995.14
3001.57
3009.46
3018.87
3029.81
3042.35
3056.55
3072.43
3090.06
3109.46
3130.67
3153.72
3178.56
3205.14
3233.39
3263.13
3293.51
3325.51
3358.62
3392.43
3426.61
3460.8
3494.59
3527.61
3559.47
3589.72
3618.01
3643.94
3667.17
3687.36
3704.19
3717.43
3726.88
3732.34
3733.7
3731.03
3724.33
3713.54
3698.8
3680.3
3658.29
3633.09
3605.05
3574.6
3542.2
3508.27
3473.33
3437.85
3402.26
3367.06
3332.6
3298.65
3264.42
3232.61
3202.95
3175.4
3150.03
3126.85
3105.85
3086.99
3070.22
3055.46
3042.66
3031.73
3022.58
3015.12
3009.28
3004.98
3002.13
3000.66
3000.51
3001.64
3003.99
3007.55
3012.3
3018.24
3025.4
3033.79
3043.45
3054.42
3066.74
3080.46
3095.64
3112.31
3130.52
3150.3
3171.66
3194.6
3219.11
3245.13
3272.59
3301.38
3331.39
3362.42
3394.23
3426.57
3459.17
3491.69
3523.78
3555.03
3585.04
3613.39
3639.65
3663.41
3684.26
3701.85
3715.84
3725.96
3731.99
3733.78
3731.24
3724.47
3713.54
3698.58
3679.88
3657.74
3632.52
3604.63
3574.52
3542.64
3509.47
3475.47
3441.14
3406.9
3373.19
3340.38
3308.79
3278.68
3250.25
3223.66
3198.99
3176.28
3155.54
3136.75
3119.85
3104.76
3091.42
3079.71
3069.56
3060.88
3053.58
3047.6
3042.88
3039.38
3037.04
3035.86
3035.81
3036.87
3039.03
3042.28
3046.65
3052.16
3058.82
3066.7
3075.83
3086.3
3098.17
3111.53
3126.45
3142.99
3161.21
3181.14
3202.79
3226.16
3251.19
3277.81
3305.91
3335.33
3365.88
3397.29
3429.29
3461.54
3493.7
3525.39
3556.21
3585.73
3613.53
3639.2
3662.33
3682.54
3699.49
3712.87
3722.46
3728.07
3729.6
3727.01
3720.42
3709.9
3695.61
3677.81
3656.81
3632.93
3606.58
3578.16
3548.11
3516.87
3484.86
3452.51
3420.23
3388.37
3357.24
3327.11
3298.19
3270.64
3244.6
3220.17
3197.38
3176.27
3156.83
3139.06
3122.9
3108.32
3095.27
3083.71
3073.59
3064.87
3057.51
3051.48
3046.74
3043.26
3041.04
3040.05
3040.27
3041.7
3044.35
3048.24
3053.39
3059.84
3067.61
3076.75
3087.28
3099.26
3112.7
3127.65
3144.13
3162.17
3181.77
3202.92
3225.56
3249.65
3275.06
3301.63
3329.15
3358.3
3392.01
3426.04
3460.02
3493.98
3527.61
3560.61
3592.58
3623.06
3651.63
3677.81
3701.1
3721.12
3737.4
3749.59
3757.37
3760.65
3760.59
3756.68
3748.8
3737.19
3721.96
3703.42
3681.92
3657.77
3631.44
3603.25
3573.65
3543.1
3511.88
3480.35
3448.84
3417.5
3387.01
3361.83
3334.17
3307.37
3281.72
3257.41
3234.55
3213.2
3193.37
3175.08
3158.31
3143.05
3129.27
3116.97
3106.13
3096.76
3088.85
3082.42
3077.48
3074.05
3072.19
3071.9
3073.2
3076.15
3080.75
3087.01
3094.94
3104.54
3115.81
3128.75
3143.34
3159.55
3177.36
3196.71
3217.54
3239.77
3263.32
3288.08
3313.99
3340.86
3368.61
3397.01
3425.92
3455.17
3484.49
3513.66
3542.46
3570.5
3597.45
3478.57
3445.65
3411.57
3376.73
3341.54
3306.3
3271.37
3237.04
3203.61
3171.35
3140.45
3111.18
3083.64
3057.92
3034.08
3012.13
2992.09
2973.94
2957.65
2943.16
2930.42
2919.38
2909.97
2902.14
2895.83
2891.01
2887.63
2885.66
2885.11
2885.93
2888.13
2891.71
2896.7
2903.12
2911
2920.39
2931.32
2943.85
2958.02
2973.89
2991.51
3010.9
3032.09
3055.13
3079.98
3106.57
3134.84
3164.62
3194.98
3227.04
3260.22
3294.09
3328.36
3362.64
3396.51
3429.64
3461.6
3491.96
3520.35
3546.38
3569.7
3589.98
3606.9
3620.2
3629.7
3635.2
3636.57
3633.91
3627.17
3616.34
3601.54
3582.96
3560.85
3535.54
3507.39
3476.82
3444.29
3410.24
3375.19
3339.6
3303.92
3268.63
3234.1
3200.1
3165.83
3134
3104.31
3076.77
3051.39
3028.22
3007.22
2988.38
2971.62
2956.88
2944.1
2933.19
2924.06
2916.63
2910.81
2906.53
2903.7
2902.25
2902.11
2903.25
2905.61
2909.17
2913.91
2919.85
2927
2935.38
2945.03
2955.98
2968.29
2982
2997.16
3013.81
3032.01
3051.78
3073.13
3096.07
3120.58
3146.61
3174.08
3202.9
3232.93
3264.01
3295.86
3328.27
3360.94
3393.55
3425.73
3457.09
3487.21
3515.67
3542.04
3565.9
3586.86
3604.54
3618.62
3628.8
3634.87
3636.68
3634.14
3627.34
3616.34
3601.32
3582.52
3560.27
3534.94
3506.93
3476.69
3444.68
3411.39
3377.28
3342.84
3308.51
3274.72
3241.84
3210.21
3180.06
3151.62
3125.01
3100.34
3077.65
3056.93
3038.15
3021.28
3006.22
2992.9
2981.23
2971.1
2962.44
2955.16
2949.2
2944.49
2941
2938.67
2937.49
2937.45
2938.51
2940.66
2943.92
2948.28
2953.77
2960.43
2968.29
2977.4
2987.85
2999.7
3013.04
3027.93
3044.46
3062.66
3082.58
3104.22
3127.59
3152.63
3179.27
3207.39
3236.85
3267.44
3298.91
3330.98
3363.31
3395.56
3427.35
3458.27
3487.9
3515.81
3541.6
3564.84
3585.15
3602.18
3615.63
3625.27
3630.91
3632.46
3629.86
3623.23
3612.65
3598.28
3580.4
3559.29
3535.31
3508.85
3480.31
3450.15
3418.8
3386.69
3354.25
3321.89
3289.96
3258.78
3228.61
3199.65
3172.09
3146.04
3121.6
3098.82
3077.72
3058.29
3040.53
3024.39
3009.83
2996.8
2985.25
2975.15
2966.44
2959.09
2953.07
2948.34
2944.87
2942.65
2941.66
2941.88
2943.31
2945.95
2949.84
2954.98
2961.42
2969.18
2978.3
2988.83
3000.79
3014.22
3029.16
3045.63
3063.66
3083.25
3104.4
3127.05
3151.15
3176.57
3203.16
3230.7
3259.89
3293.72
3327.8
3361.84
3395.88
3429.59
3462.69
3494.77
3525.38
3554.06
3580.37
3603.78
3623.9
3640.26
3652.52
3660.36
3663.65
3663.56
3659.6
3651.68
3639.99
3624.67
3606.01
3584.41
3560.14
3533.68
3505.38
3475.67
3445.02
3413.71
3382.12
3350.54
3319.18
3288.67
3263.3
3235.65
3208.84
3183.18
3158.87
3136.02
3114.67
3094.86
3076.58
3059.82
3044.57
3030.8
3018.51
3007.67
2998.3
2990.39
2983.96
2979.02
2975.59
2973.72
2973.42
2974.72
2977.66
2982.26
2988.51
2996.44
3006.03
3017.3
3030.24
3044.82
3061.04
3078.85
3098.21
3119.05
3141.29
3164.85
3189.64
3215.56
3242.46
3270.24
3298.67
3327.63
3356.92
3386.3
3415.53
3444.4
3472.51
3499.54
3380.81
3347.76
3313.55
3278.59
3243.28
3207.94
3172.93
3138.53
3105.03
3072.72
3041.78
3012.49
2984.94
2959.22
2935.38
2913.44
2893.42
2875.29
2859.01
2844.55
2831.83
2820.81
2811.42
2803.61
2797.32
2792.5
2789.13
2787.18
2786.62
2787.44
2789.64
2793.22
2798.2
2804.61
2812.48
2821.85
2832.77
2845.28
2859.43
2875.28
2892.88
2912.25
2933.43
2956.47
2981.32
3007.91
3036.22
3066.04
3096.38
3128.52
3161.77
3195.72
3230.08
3264.46
3298.45
3331.68
3363.77
3394.25
3422.76
3448.92
3472.35
3492.73
3509.73
3523.12
3532.68
3538.21
3539.6
3536.95
3530.18
3519.3
3504.43
3485.75
3463.53
3438.09
3409.8
3379.09
3346.42
3312.23
3277.04
3241.32
3205.53
3170.15
3135.54
3101.48
3067.16
3035.3
3005.59
2978.04
2952.66
2929.49
2908.51
2889.68
2872.94
2858.22
2845.46
2834.58
2825.48
2818.07
2812.28
2808.02
2805.21
2803.78
2803.66
2804.8
2807.17
2810.73
2815.48
2821.41
2828.55
2836.92
2846.56
2857.5
2869.78
2883.47
2898.61
2915.25
2933.43
2953.19
2974.53
2997.47
3021.98
3048.01
3075.5
3104.34
3134.42
3165.54
3197.45
3229.94
3262.69
3295.4
3327.69
3359.16
3389.41
3418
3444.51
3468.5
3489.58
3507.38
3521.54
3531.8
3537.92
3539.75
3537.21
3530.37
3519.3
3504.19
3485.28
3462.91
3437.44
3409.29
3378.9
3346.75
3313.32
3279.08
3244.51
3210.07
3176.19
3143.24
3111.54
3081.36
3052.89
3026.28
3001.61
2978.93
2958.23
2939.48
2922.63
2907.61
2894.32
2882.67
2872.58
2863.94
2856.68
2850.74
2846.05
2842.57
2840.25
2839.08
2839.04
2840.1
2842.25
2845.5
2849.86
2855.35
2861.99
2869.83
2878.92
2889.35
2901.17
2914.48
2929.35
2945.85
2964.03
2983.94
3005.58
3028.94
3053.99
3080.65
3108.8
3138.3
3168.95
3200.49
3232.63
3265.06
3297.41
3329.32
3360.36
3390.11
3418.16
3444.08
3467.44
3487.87
3505
3518.54
3528.24
3533.92
3535.47
3532.87
3526.19
3515.54
3501.09
3483.1
3461.88
3437.77
3411.17
3382.51
3352.21
3320.73
3288.5
3255.96
3223.5
3191.49
3160.26
3130.04
3101.05
3073.46
3047.4
3022.96
3000.18
2979.09
2959.68
2941.93
2925.81
2911.27
2898.26
2886.73
2876.64
2867.95
2860.62
2854.61
2849.89
2846.43
2844.21
2843.22
2843.44
2844.87
2847.51
2851.38
2856.52
2862.94
2870.69
2879.8
2890.31
2902.26
2915.68
2930.6
2947.05
2965.08
2984.66
3005.81
3028.47
3052.59
3078.02
3104.63
3132.2
3161.43
3195.41
3229.55
3263.65
3297.77
3331.58
3364.81
3397.02
3427.76
3456.59
3483.04
3506.58
3526.82
3543.28
3555.62
3563.53
3566.83
3566.72
3562.71
3554.72
3542.94
3527.52
3508.73
3486.99
3462.58
3435.98
3407.54
3377.72
3346.95
3315.54
3283.86
3252.22
3220.81
3190.28
3164.7
3137.05
3110.24
3084.58
3060.27
3037.42
3016.08
2996.28
2978.01
2961.26
2946.02
2932.27
2919.98
2909.15
2899.78
2891.88
2885.44
2880.5
2877.07
2875.19
2874.88
2876.17
2879.1
2883.7
2889.94
2897.87
2907.46
2918.72
2931.65
2946.24
2962.46
2980.28
2999.64
3020.49
3042.75
3066.33
3091.14
3117.08
3144.01
3171.82
3200.3
3229.3
3258.65
3288.09
3317.39
3346.34
3374.54
3401.65
3283.1
3249.89
3215.53
3180.43
3145
3109.55
3074.43
3039.95
3006.38
2974.02
2943.03
2913.72
2886.15
2860.43
2836.59
2814.67
2794.67
2776.56
2760.31
2745.86
2733.18
2722.18
2712.81
2705.02
2698.74
2693.94
2690.58
2688.64
2688.09
2688.9
2691.1
2694.67
2699.64
2706.04
2713.89
2723.25
2734.15
2746.64
2760.77
2776.6
2794.17
2813.53
2834.7
2857.72
2882.57
2909.18
2937.52
2967.39
2997.71
3029.93
3063.26
3097.31
3131.77
3166.27
3200.38
3233.75
3265.98
3296.6
3325.25
3351.54
3375.1
3395.6
3412.71
3426.18
3435.81
3441.38
3442.8
3440.15
3433.35
3422.41
3407.45
3388.67
3366.32
3340.73
3312.29
3281.41
3248.57
3214.22
3178.88
3143.02
3107.1
3071.6
3036.91
3002.77
2968.41
2936.51
2906.78
2879.22
2853.84
2830.68
2809.71
2790.9
2774.18
2759.49
2746.75
2735.9
2726.82
2719.45
2713.69
2709.45
2706.67
2705.26
2705.16
2706.32
2708.69
2712.25
2717
2722.93
2730.06
2738.41
2748.03
2758.95
2771.22
2784.89
2800.01
2816.63
2834.79
2854.53
2875.86
2898.79
2923.3
2949.35
2976.85
3005.73
3035.84
3067.02
3099
3131.56
3164.42
3197.24
3229.65
3261.27
3291.66
3320.4
3347.06
3371.2
3392.42
3410.34
3424.62
3434.96
3441.14
3442.99
3440.44
3433.56
3422.42
3407.2
3388.17
3365.65
3340.03
3311.71
3281.16
3248.84
3215.25
3180.86
3146.15
3111.59
3077.59
3044.56
3012.8
2982.56
2954.07
2927.45
2902.79
2880.12
2859.44
2840.72
2823.91
2808.92
2795.67
2784.06
2773.99
2765.39
2758.15
2752.23
2747.56
2744.09
2741.79
2740.63
2740.59
2741.65
2743.8
2747.05
2751.4
2756.87
2763.5
2771.31
2780.39
2790.78
2802.58
2815.85
2830.7
2847.17
2865.33
2885.22
2906.85
2930.21
2955.27
2981.95
3010.14
3039.68
3070.4
3102.01
3134.25
3166.78
3199.26
3231.29
3262.47
3292.37
3320.57
3346.64
3370.15
3390.7
3407.96
3421.59
3431.36
3437.08
3438.65
3436.03
3429.3
3418.57
3404.03
3385.92
3364.56
3340.31
3313.56
3284.74
3254.29
3222.67
3190.3
3157.64
3125.07
3092.97
3061.67
3031.4
3002.37
2974.75
2948.68
2924.23
2901.46
2880.38
2860.99
2843.27
2827.17
2812.65
2799.66
2788.15
2778.08
2769.41
2762.09
2756.09
2751.38
2747.93
2745.73
2744.74
2744.96
2746.38
2749.01
2752.88
2758
2764.41
2772.15
2781.24
2791.74
2803.67
2817.07
2831.98
2848.42
2866.43
2886.01
2907.16
2929.82
2953.95
2979.41
3006.04
3033.64
3062.91
3097.06
3131.26
3165.44
3199.67
3233.59
3266.95
3299.31
3330.21
3359.21
3385.83
3409.51
3429.89
3446.47
3458.9
3466.87
3470.19
3470.05
3465.98
3457.92
3446.04
3430.49
3411.58
3389.67
3365.09
3338.34
3309.75
3279.77
3248.87
3217.35
3185.57
3153.85
3122.4
3091.84
3066.05
3038.39
3011.57
2985.9
2961.59
2938.74
2917.41
2897.63
2879.37
2862.64
2847.42
2833.67
2821.4
2810.58
2801.21
2793.3
2786.86
2781.92
2778.48
2776.6
2776.28
2777.56
2780.49
2785.07
2791.31
2799.23
2808.81
2820.07
2833
2847.59
2863.81
2881.63
2901.01
2921.87
2944.15
2967.74
2992.58
3018.55
3045.51
3073.37
3101.89
3130.94
3160.35
3189.86
3219.25
3248.29
3276.58
3303.79
3185.44
3152.06
3117.53
3082.26
3046.69
3011.11
2975.89
2941.31
2907.66
2875.23
2844.2
2814.86
2787.28
2761.55
2737.72
2715.82
2695.83
2677.75
2661.52
2647.11
2634.45
2623.48
2614.14
2606.36
2600.11
2595.33
2591.98
2590.04
2589.49
2590.31
2592.5
2596.07
2601.03
2607.42
2615.25
2624.59
2635.46
2647.93
2662.04
2677.84
2695.39
2714.72
2735.88
2758.9
2783.74
2810.37
2838.73
2868.67
2898.96
2931.28
2964.71
2998.86
3033.44
3068.06
3102.32
3135.84
3168.22
3199.01
3227.82
3254.26
3277.96
3298.59
3315.82
3329.39
3339.09
3344.72
3346.17
3343.51
3336.68
3325.67
3310.62
3291.71
3269.22
3243.47
3214.85
3183.78
3150.76
3116.22
3080.71
3044.69
3008.62
2973
2938.2
2903.99
2869.57
2837.63
2807.88
2780.3
2754.93
2731.78
2710.82
2692.02
2675.33
2660.67
2647.96
2637.14
2628.1
2620.76
2615.03
2610.83
2608.08
2606.69
2606.61
2607.78
2610.16
2613.73
2618.47
2624.39
2631.51
2639.85
2649.45
2660.35
2672.6
2686.24
2701.34
2717.93
2736.07
2755.79
2777.12
2800.04
2824.55
2850.61
2878.14
2907.04
2937.2
2968.44
3000.5
3033.16
3066.12
3099.07
3131.63
3163.39
3193.95
3222.86
3249.69
3274
3295.38
3313.44
3327.84
3338.28
3344.52
3346.4
3343.85
3336.91
3325.68
3310.35
3291.18
3268.51
3242.7
3214.2
3183.46
3150.96
3117.18
3082.62
3047.75
3013.05
2978.93
2945.8
2913.96
2883.68
2855.16
2828.53
2803.87
2781.22
2760.56
2741.88
2725.1
2710.16
2696.95
2685.38
2675.35
2666.78
2659.57
2653.67
2649.02
2645.57
2643.28
2642.13
2642.1
2643.16
2645.31
2648.55
2652.89
2658.35
2664.96
2672.75
2681.8
2692.16
2703.92
2717.16
2731.97
2748.42
2766.56
2786.42
2808.04
2831.41
2856.48
2883.18
2911.41
2941
2971.78
3003.49
3035.83
3068.48
3101.09
3133.27
3164.61
3194.68
3223.05
3249.28
3272.95
3293.66
3311.05
3324.79
3334.64
3340.41
3341.99
3339.35
3332.57
3321.76
3307.1
3288.86
3267.35
3242.93
3216.01
3187.01
3156.4
3124.6
3092.09
3059.29
3026.6
2994.4
2963.02
2932.68
2903.61
2875.97
2849.88
2825.43
2802.67
2781.6
2762.23
2744.53
2728.45
2713.96
2701
2689.52
2679.47
2670.81
2663.51
2657.52
2652.83
2649.39
2647.19
2646.21
2646.42
2647.84
2650.47
2654.33
2659.44
2665.83
2673.55
2682.63
2693.1
2705.01
2718.4
2733.28
2749.71
2767.71
2787.28
2808.43
2831.1
2855.25
2880.73
2907.39
2935.02
2964.33
2998.68
3032.96
3067.23
3101.55
3135.61
3169.12
3201.65
3232.73
3261.92
3288.72
3312.58
3333.12
3349.82
3362.36
3370.39
3373.73
3373.57
3369.44
3361.29
3349.3
3333.61
3314.52
3292.44
3267.69
3240.75
3211.98
3181.85
3150.8
3119.15
3087.26
3055.45
3023.95
2993.35
2967.33
2939.66
2912.82
2887.15
2862.83
2840
2818.68
2798.9
2780.67
2763.95
2748.75
2735.02
2722.75
2711.94
2702.57
2694.67
2688.23
2683.27
2679.84
2677.94
2677.61
2678.88
2681.8
2686.38
2692.61
2700.52
2710.1
2721.35
2734.28
2748.86
2765.09
2782.92
2802.31
2823.18
2845.48
2869.1
2893.96
2919.96
2946.96
2974.86
3003.43
3032.54
3062.03
3091.62
3121.1
3150.24
3178.64
3205.96
3087.83
3054.25
3019.53
2984.09
2948.36
2912.64
2877.29
2842.61
2808.87
2776.36
2745.29
2715.91
2688.32
2662.58
2638.77
2616.88
2596.92
2578.86
2562.66
2548.28
2535.65
2524.71
2515.4
2507.65
2501.42
2496.65
2493.32
2491.39
2490.85
2491.66
2493.85
2497.41
2502.36
2508.73
2516.55
2525.86
2536.71
2549.15
2563.23
2579.01
2596.53
2615.84
2636.98
2659.99
2684.83
2711.47
2739.87
2769.88
2800.14
2832.56
2866.1
2900.37
2935.07
2969.84
3004.26
3037.95
3070.51
3101.47
3130.45
3157.06
3180.93
3201.71
3219.07
3232.74
3242.53
3248.22
3249.7
3247.04
3240.17
3229.09
3213.93
3194.89
3172.23
3146.3
3117.48
3086.21
3052.97
3018.24
2982.53
2946.33
2910.11
2874.35
2839.43
2805.13
2770.64
2738.66
2708.89
2681.3
2655.92
2632.78
2611.84
2593.07
2576.4
2561.77
2549.1
2538.31
2529.31
2522.01
2516.32
2512.15
2509.43
2508.07
2508.01
2509.19
2511.59
2515.16
2519.89
2525.81
2532.92
2541.24
2550.82
2561.7
2573.92
2587.54
2602.6
2619.17
2637.29
2656.99
2678.3
2701.22
2725.73
2751.8
2779.35
2808.29
2838.49
2869.81