/*--------------------------------*- C++ -*----------------------------------*\
| =========                 |                                                 |
| \\      /  F ield         | OpenFOAM: The Open Source CFD Toolbox           |
|  \\    /   O peration     | Version:  3.0.1                                 |
|   \\  /    A nd           | Web:      www.OpenFOAM.org                      |
|    \\/     M anipulation  |                                                 |
\*---------------------------------------------------------------------------*/
FoamFile
{
    version     2.0;
    format      ascii;
    class       volScalarField;
    location    "21";
    object      p;
}
// * * * * * * * * * * * * * * * * * * * * * * * * * * * * * * * * * * * * * //

dimensions      [1 -1 -2 0 0 0 0];

internalField   nonuniform List<scalar> 
21420
(
4039.29
4071.8
4103.73
4134.58
4163.89
4191.08
4215.75
4237.47
4255.89
4270.72
4281.72
4288.71
4291.46
4289.8
4283.86
4273.91
4259.97
4242.27
4221.1
4196.77
4169.67
4140.16
4108.66
4075.61
4041.46
4006.67
3971.61
3936.67
3902.35
3869.97
3837.74
3806.59
3776.81
3748.6
3722.08
3697.34
3674.43
3653.37
3634.15
3616.76
3601.16
3587.31
3575.14
3564.63
3555.7
3548.32
3542.45
3538.06
3535.11
3533.63
3533.64
3535.13
3538.11
3542.65
3548.77
3556.49
3565.87
3576.97
3589.82
3604.43
3620.86
3639.09
3659.17
3681.09
3704.78
3730.2
3757.28
3785.9
3815.96
3847.31
3879.77
3909.69
3942.99
3976.6
4010.17
4043.33
4075.78
4107.14
4137.08
4165.2
4191.15
4214.57
4235.14
4252.5
4266.39
4276.58
4282.87
4285.12
4283.29
4277.38
4267.5
4253.67
4236.11
4215.08
4190.83
4163.71
4134.07
4102.31
4068.84
4034.1
3998.53
3962.58
3926.7
3891.33
3856.83
3823.55
3791.79
3761.76
3733.65
3707.56
3683.55
3661.62
3641.76
3623.91
3608
3593.98
3581.73
3571.2
3562.32
3555.02
3549.22
3544.89
3541.95
3540.38
3540.15
3541.2
3543.51
3547.09
3551.93
3558.07
3565.54
3574.39
3584.67
3596.46
3609.84
3624.88
3641.64
3660.19
3680.56
3702.77
3726.81
3752.65
3780.2
3809.36
3839.95
3871.77
3904.65
3938.16
3972.06
4005.97
4039.51
4072.29
4103.88
4133.88
4161.88
4187.48
4210.33
4230.08
4246.45
4259.18
4268.08
4273.01
4273.83
4270.64
4263.39
4252.2
4237.24
4218.71
4196.92
4172.17
4144.81
4115.27
4083.96
4051.29
4017.71
3983.65
3949.51
3915.67
3882.5
3850.25
3819.2
3789.54
3761.44
3735.03
3710.36
3687.5
3666.45
3647.21
3629.77
3614.07
3600.09
3587.76
3577.05
3567.9
3560.28
3554.15
3549.47
3546.2
3544.35
3543.92
3544.85
3547.16
3550.88
3556.02
3562.58
3570.6
3580.12
3591.16
3603.76
3617.96
3633.8
3651.3
3670.49
3691.39
3713.98
3738.26
3764.18
3791.66
3820.59
3850.84
3882.2
3914.45
3947.31
3980.47
4013.59
4046.29
4078.16
4108.76
4137.69
4164.5
4188.8
4210.2
4228.34
4242.94
4253.75
4260.58
4263.29
4261.89
4256.39
4246.94
4233.65
4216.8
4196.66
4173.59
4147.95
4120.14
4090.58
4059.69
4027.85
3995.47
3962.89
3930.44
3898.4
3867.04
3836.56
3807.14
3778.92
3752.01
3726.5
3702.44
3679.88
3658.85
3639.38
3621.48
3605.17
3590.46
3577.37
3565.94
3556.15
3548.02
3541.57
3536.82
3533.78
3532.48
3532.79
3534.79
3538.51
3543.99
3551.25
3560.29
3571.13
3583.76
3598.16
3614.3
3632.13
3651.61
3672.67
3695.26
3719.26
3744.58
3771.13
3798.79
3827.43
3857.29
3888.61
3920.21
3951.77
3983.16
4014.24
4044.74
4074.44
4103.04
4130.23
4155.75
4179.26
4200.46
4219.06
4234.8
4247.4
4256.64
4262.31
4264.25
4262.14
4256.08
4246.13
4232.41
4215.1
4194.36
4170.45
4143.7
4114.47
4083.14
4050.19
4016.06
3981.23
3946.14
3911.16
3876.99
3845.35
3813.52
3782.86
3753.75
3726.42
3701.01
3677.58
3656.18
3636.79
3619.39
3603.92
3590.31
3578.5
3568.4
3559.93
3553.03
3547.6
3543.59
3540.97
3540.01
3540.43
3542.19
3545.26
3549.61
3555.23
3562.11
3570.25
3579.72
3590.55
3941.19
3973.71
4005.66
4036.52
4065.85
4093.07
4117.76
4139.49
4157.92
4172.77
4183.78
4190.77
4193.53
4191.86
4185.92
4175.96
4162.01
4144.3
4123.11
4098.76
4071.64
4042.12
4010.59
3977.53
3943.36
3908.55
3873.48
3838.53
3804.19
3771.81
3739.57
3708.41
3678.63
3650.42
3623.89
3599.16
3576.25
3555.19
3535.98
3518.59
3502.99
3489.14
3476.98
3466.46
3457.54
3450.16
3444.29
3439.9
3436.95
3435.48
3435.48
3436.97
3439.95
3444.49
3450.61
3458.33
3467.71
3478.8
3491.64
3506.26
3522.68
3540.92
3560.99
3582.91
3606.6
3632.02
3659.11
3687.73
3717.79
3749.15
3781.61
3811.56
3844.86
3878.48
3912.06
3945.24
3977.7
4009.08
4039.03
4067.17
4093.13
4116.57
4137.15
4154.53
4168.44
4178.63
4184.93
4187.19
4185.34
4179.44
4169.55
4155.71
4138.14
4117.09
4092.83
4065.69
4036.03
4004.25
3970.77
3936
3900.41
3864.45
3828.56
3793.17
3758.66
3725.37
3693.6
3663.57
3635.45
3609.36
3585.35
3563.43
3543.57
3525.72
3509.83
3495.8
3483.56
3473.04
3464.16
3456.86
3451.07
3446.73
3443.79
3442.23
3442
3443.05
3445.36
3448.94
3453.78
3459.92
3467.39
3476.23
3486.51
3498.3
3511.67
3526.71
3543.46
3562.01
3582.37
3604.58
3628.63
3654.46
3682.02
3711.18
3741.78
3773.61
3806.49
3840.02
3873.93
3907.86
3941.42
3974.21
4005.83
4035.84
4063.85
4089.48
4112.34
4132.11
4148.49
4161.23
4170.13
4175.06
4175.89
4172.69
4165.44
4154.25
4139.27
4120.73
4098.92
4074.15
4046.78
4017.22
3985.88
3953.2
3919.6
3885.52
3851.37
3817.52
3784.34
3752.08
3721.02
3691.36
3663.26
3636.84
3612.18
3589.32
3568.27
3549.04
3531.59
3515.9
3501.92
3489.59
3478.88
3469.74
3462.12
3455.99
3451.31
3448.04
3446.2
3445.77
3446.69
3449.01
3452.73
3457.86
3464.42
3472.44
3481.96
3493
3505.6
3519.79
3535.62
3553.13
3572.32
3593.21
3615.8
3640.08
3666
3693.49
3722.42
3752.67
3784.04
3816.31
3849.18
3882.35
3915.49
3948.2
3980.08
4010.71
4039.65
4066.48
4090.8
4112.21
4130.37
4144.99
4155.8
4162.64
4165.35
4163.95
4158.45
4148.99
4135.69
4118.82
4098.67
4075.57
4049.92
4022.09
3992.51
3961.6
3929.75
3897.35
3864.76
3832.3
3800.25
3768.89
3738.4
3708.97
3680.75
3653.84
3628.33
3604.27
3581.71
3560.68
3541.21
3523.31
3507
3492.29
3479.2
3467.77
3457.99
3449.86
3443.4
3438.65
3435.62
3434.31
3434.62
3436.62
3440.34
3445.82
3453.07
3462.12
3472.96
3485.59
3499.99
3516.13
3533.96
3553.44
3574.5
3597.09
3621.1
3646.42
3672.97
3700.64
3729.28
3759.15
3790.48
3822.08
3853.65
3885.05
3916.14
3946.65
3976.36
4004.97
4032.18
4057.71
4081.24
4102.45
4121.07
4136.81
4149.43
4158.68
4164.36
4166.31
4164.18
4158.12
4148.18
4134.45
4117.12
4096.37
4072.44
4045.68
4016.43
3985.08
3952.11
3917.96
3883.11
3848.01
3813.01
3778.84
3747.18
3715.34
3684.68
3655.56
3628.23
3602.82
3579.39
3557.99
3538.61
3521.21
3505.74
3492.14
3480.33
3470.23
3461.77
3454.87
3449.44
3445.44
3442.82
3441.86
3442.28
3444.04
3447.11
3451.46
3457.08
3463.96
3472.1
3481.56
3492.39
3843.08
3875.63
3907.62
3938.52
3967.89
3995.14
4019.86
4041.63
4060.09
4074.96
4085.99
4092.99
4095.78
4094.09
4088.15
4078.17
4064.19
4046.45
4025.23
4000.85
3973.69
3944.13
3912.56
3879.47
3845.26
3810.42
3775.32
3740.34
3705.99
3673.58
3641.33
3610.16
3580.37
3552.15
3525.63
3500.89
3477.98
3456.92
3437.72
3420.34
3404.74
3390.89
3378.74
3368.23
3359.31
3351.94
3346.08
3341.68
3338.74
3337.26
3337.27
3338.75
3341.73
3346.27
3352.38
3360.1
3369.47
3380.56
3393.4
3408.01
3424.43
3442.66
3462.74
3484.65
3508.34
3533.77
3560.85
3589.49
3619.55
3650.92
3683.38
3713.4
3746.71
3780.35
3813.95
3847.15
3879.64
3911.05
3941.03
3969.21
3995.2
4018.67
4039.29
4056.69
4070.62
4080.84
4087.15
4089.42
4087.56
4081.65
4071.75
4057.89
4040.3
4019.22
3994.92
3967.75
3938.06
3906.24
3872.71
3837.91
3802.28
3766.29
3730.36
3694.95
3660.42
3627.11
3595.32
3565.28
3537.17
3511.08
3487.07
3465.15
3445.3
3427.46
3411.57
3397.55
3385.32
3374.81
3365.93
3358.64
3352.85
3348.52
3345.59
3344.03
3343.8
3344.85
3347.16
3350.74
3355.58
3361.71
3369.17
3378.01
3388.28
3400.07
3413.44
3428.46
3445.21
3463.75
3484.11
3506.32
3530.36
3556.2
3583.77
3612.93
3643.54
3675.39
3708.29
3741.84
3775.78
3809.73
3843.33
3876.16
3907.81
3937.86
3965.91
3991.56
4014.46
4034.25
4050.66
4063.42
4072.34
4077.28
4078.12
4074.9
4067.64
4056.43
4041.44
4022.87
4001.03
3976.22
3948.81
3919.21
3887.84
3855.12
3821.49
3787.38
3753.19
3719.32
3686.12
3653.85
3622.77
3593.1
3565
3538.58
3513.91
3491.05
3470.01
3450.78
3433.34
3417.66
3403.68
3391.36
3380.66
3371.52
3363.9
3357.77
3353.1
3349.83
3347.99
3347.56
3348.48
3350.8
3354.51
3359.64
3366.2
3374.22
3383.73
3394.77
3407.36
3421.55
3437.38
3454.88
3474.06
3494.95
3517.55
3541.83
3567.75
3595.24
3624.18
3654.44
3685.83
3718.11
3751
3784.2
3817.37
3850.12
3882.03
3912.7
3941.68
3968.55
3992.9
4014.35
4032.54
4047.17
4058.01
4064.86
4067.59
4066.16
4060.65
4051.18
4037.86
4020.95
4000.77
3977.64
3951.95
3924.09
3894.47
3863.53
3831.65
3799.22
3766.6
3734.12
3702.06
3670.68
3640.18
3610.75
3582.52
3555.6
3530.09
3506.03
3483.47
3462.44
3442.97
3425.07
3408.76
3394.06
3380.97
3369.53
3359.75
3351.62
3345.17
3340.42
3337.39
3336.08
3336.38
3338.38
3342.1
3347.58
3354.83
3363.87
3374.72
3387.35
3401.74
3417.88
3435.72
3455.2
3476.26
3498.86
3522.87
3548.2
3574.75
3602.43
3631.09
3660.96
3692.31
3723.93
3755.51
3786.93
3818.03
3848.57
3878.3
3906.94
3934.18
3959.73
3983.29
4004.53
4023.18
4038.95
4051.58
4060.86
4066.55
4068.53
4066.38
4060.31
4050.36
4036.62
4019.27
3998.5
3974.54
3947.74
3918.45
3887.06
3854.05
3819.86
3784.98
3749.84
3714.81
3680.62
3648.93
3617.08
3586.4
3557.28
3529.95
3504.53
3481.11
3459.72
3440.34
3422.95
3407.49
3393.89
3382.09
3372
3363.55
3356.65
3351.23
3347.23
3344.61
3343.65
3344.08
3345.84
3348.91
3353.26
3358.88
3365.76
3373.9
3383.36
3394.19
3744.96
3777.56
3809.61
3840.56
3869.99
3897.29
3922.07
3943.88
3962.39
3977.3
3988.36
3995.37
3998.18
3996.49
3990.54
3980.52
3966.51
3948.73
3927.46
3903.03
3875.81
3846.19
3814.57
3781.42
3747.16
3712.27
3677.13
3642.11
3607.73
3575.28
3543.01
3511.82
3482.02
3453.8
3427.27
3402.53
3379.63
3358.58
3339.38
3322.01
3306.42
3292.58
3280.44
3269.93
3261.02
3253.66
3247.8
3243.41
3240.47
3239
3238.99
3240.48
3243.45
3247.98
3254.09
3261.8
3271.17
3282.25
3295.08
3309.69
3326.1
3344.33
3364.4
3386.31
3410
3435.43
3462.53
3491.17
3521.25
3552.62
3585.09
3615.21
3648.53
3682.2
3715.83
3749.08
3781.6
3813.06
3843.09
3871.32
3897.36
3920.88
3941.54
3958.98
3972.95
3983.19
3989.52
3991.8
3989.95
3984.03
3974.1
3960.21
3942.59
3921.46
3897.11
3869.89
3840.14
3808.26
3774.68
3739.83
3704.14
3668.09
3632.12
3596.67
3562.1
3528.76
3496.96
3466.91
3438.78
3412.69
3388.69
3366.78
3346.94
3329.11
3313.24
3299.23
3287.01
3276.51
3267.64
3260.35
3254.58
3250.25
3247.32
3245.78
3245.55
3246.6
3248.91
3252.49
3257.32
3263.45
3270.91
3279.74
3290
3301.77
3315.13
3330.14
3346.88
3365.41
3385.77
3407.97
3432.01
3457.86
3485.43
3514.61
3545.24
3577.11
3610.04
3643.63
3677.6
3711.6
3745.24
3778.12
3809.83
3839.93
3868.04
3893.74
3916.68
3936.53
3952.97
3965.76
3974.7
3979.66
3980.52
3977.26
3970
3958.76
3943.73
3925.13
3903.23
3878.38
3850.91
3821.26
3789.83
3757.05
3723.37
3689.21
3654.98
3621.07
3587.84
3555.54
3524.45
3494.77
3466.65
3440.23
3415.57
3392.71
3371.67
3352.45
3335.02
3319.34
3305.37
3293.06
3282.37
3273.23
3265.62
3259.5
3254.83
3251.57
3249.73
3249.29
3250.22
3252.53
3256.25
3261.37
3267.92
3275.94
3285.44
3296.47
3309.06
3323.25
3339.07
3356.56
3375.74
3396.62
3419.22
3443.5
3469.42
3496.92
3525.87
3556.15
3587.56
3619.87
3652.8
3686.03
3719.24
3752.04
3784.01
3814.73
3843.77
3870.69
3895.1
3916.6
3934.84
3949.51
3960.37
3967.24
3969.99
3968.54
3963.02
3953.52
3940.16
3923.21
3902.98
3879.8
3854.05
3826.13
3796.47
3765.47
3733.54
3701.07
3668.42
3635.9
3603.81
3572.41
3541.9
3512.45
3484.22
3457.3
3431.78
3407.72
3385.16
3364.14
3344.66
3326.77
3310.46
3295.75
3282.67
3271.23
3261.45
3253.32
3246.87
3242.12
3239.09
3237.77
3238.07
3240.07
3243.79
3249.26
3256.52
3265.56
3276.4
3289.03
3303.43
3319.57
3337.4
3356.89
3377.96
3400.56
3424.58
3449.92
3476.48
3504.16
3532.84
3562.72
3594.1
3625.74
3657.35
3688.79
3719.93
3750.5
3780.27
3808.95
3836.22
3861.82
3885.42
3906.71
3925.39
3941.2
3953.87
3963.17
3968.89
3970.9
3968.72
3962.65
3952.69
3938.93
3921.55
3900.73
3876.73
3849.87
3820.53
3789.08
3756.01
3721.76
3686.82
3651.64
3616.57
3582.35
3550.61
3518.73
3488.05
3458.91
3431.57
3406.16
3382.74
3361.35
3341.98
3324.6
3309.16
3295.58
3283.79
3273.71
3265.26
3258.37
3252.97
3248.97
3246.35
3245.4
3245.83
3247.6
3250.67
3255.02
3260.64
3267.51
3275.65
3285.11
3295.92
3646.83
3679.51
3711.63
3742.66
3772.15
3799.53
3824.38
3846.26
3864.83
3879.79
3890.88
3897.91
3900.73
3899.07
3893.09
3883.03
3868.97
3851.14
3829.8
3805.3
3778.01
3748.32
3716.62
3683.39
3649.06
3614.1
3578.91
3543.83
3509.41
3476.92
3444.62
3413.41
3383.6
3355.36
3328.83
3304.1
3281.2
3260.15
3240.96
3223.6
3208.03
3194.2
3182.07
3171.57
3162.67
3155.32
3149.46
3145.08
3142.14
3140.67
3140.66
3142.14
3145.12
3149.64
3155.74
3163.44
3172.8
3183.87
3196.69
3211.29
3227.69
3245.91
3265.98
3287.89
3311.59
3337.02
3364.13
3392.78
3422.87
3454.26
3486.74
3516.98
3550.33
3584.03
3617.71
3651
3683.59
3715.11
3745.2
3773.49
3799.6
3823.18
3843.9
3861.4
3875.42
3885.7
3892.05
3894.34
3892.5
3886.56
3876.6
3862.68
3845
3823.82
3799.4
3772.11
3742.29
3710.33
3676.67
3641.74
3605.98
3569.86
3533.83
3498.33
3463.71
3430.33
3398.5
3368.44
3340.31
3314.22
3290.22
3268.32
3248.49
3230.69
3214.83
3200.84
3188.64
3178.14
3169.29
3162.01
3156.24
3151.93
3149.01
3147.47
3147.24
3148.3
3150.61
3154.18
3159.02
3165.14
3172.58
3181.4
3191.65
3203.41
3216.75
3231.75
3248.48
3267
3287.34
3309.54
3333.58
3359.43
3387.01
3416.21
3446.86
3478.77
3511.73
3545.37
3579.4
3613.46
3647.16
3680.11
3711.89
3742.07
3770.24
3796.02
3819.02
3838.93
3855.42
3868.25
3877.22
3882.19
3883.06
3879.8
3872.51
3861.24
3846.16
3827.5
3805.54
3780.62
3753.08
3723.35
3691.84
3658.99
3625.24
3591.01
3556.73
3522.77
3489.5
3457.17
3426.05
3396.35
3368.23
3341.8
3317.14
3294.28
3273.25
3254.04
3236.62
3220.95
3207
3194.7
3184.01
3174.89
3167.29
3161.17
3156.5
3153.24
3151.41
3150.97
3151.9
3154.21
3157.92
3163.04
3169.59
3177.6
3187.09
3198.11
3210.69
3224.87
3240.68
3258.16
3277.34
3298.22
3320.81
3345.09
3371.02
3398.52
3427.49
3457.79
3489.23
3521.58
3554.55
3587.84
3621.11
3653.97
3686.01
3716.81
3745.92
3772.92
3797.4
3818.97
3837.26
3851.99
3862.89
3869.77
3872.53
3871.08
3865.54
3856
3842.59
3825.59
3805.29
3782.04
3756.22
3728.23
3698.49
3667.43
3635.43
3602.9
3570.2
3537.65
3505.52
3474.09
3443.56
3414.1
3385.85
3358.92
3333.4
3309.34
3286.79
3265.76
3246.29
3228.39
3212.09
3197.39
3184.3
3172.86
3163.08
3154.96
3148.5
3143.75
3140.72
3139.4
3139.7
3141.69
3145.41
3150.88
3158.13
3167.17
3178.01
3190.64
3205.04
3221.18
3239.02
3258.51
3279.58
3302.19
3326.22
3351.57
3378.15
3405.85
3434.54
3464.44
3495.86
3527.53
3559.16
3590.64
3621.82
3652.43
3682.25
3710.98
3738.32
3763.97
3787.63
3808.97
3827.71
3843.57
3856.28
3865.62
3871.38
3873.42
3871.22
3865.14
3855.16
3841.37
3823.95
3803.08
3779.01
3752.09
3722.67
3691.14
3657.98
3623.66
3588.65
3553.4
3518.27
3484.02
3452.22
3420.31
3389.6
3360.46
3333.11
3307.69
3284.28
3262.9
3243.55
3226.18
3210.75
3197.18
3185.41
3175.35
3166.92
3160.04
3154.64
3150.66
3148.04
3147.1
3147.54
3149.31
3152.38
3156.73
3162.34
3169.22
3177.35
3186.8
3197.61
3548.7
3581.46
3613.67
3644.79
3674.39
3701.86
3726.79
3748.76
3767.4
3782.42
3793.56
3800.62
3803.46
3801.8
3795.8
3785.69
3771.58
3753.67
3732.26
3707.66
3680.28
3650.49
3618.7
3585.38
3550.96
3515.92
3480.65
3445.51
3411.05
3378.5
3346.16
3314.93
3285.09
3256.85
3230.31
3205.57
3182.68
3161.65
3142.47
3125.12
3109.56
3095.75
3083.63
3073.15
3064.26
3056.91
3051.07
3046.69
3043.76
3042.29
3042.27
3043.75
3046.72
3051.24
3057.33
3065.02
3074.36
3085.42
3098.23
3112.81
3129.21
3147.42
3167.49
3189.39
3213.09
3238.53
3265.65
3294.32
3324.43
3355.84
3388.32
3418.72
3452.1
3485.84
3519.58
3552.94
3585.59
3617.19
3647.36
3675.73
3701.92
3725.59
3746.38
3763.95
3778.03
3788.36
3794.74
3797.04
3795.21
3789.26
3779.26
3765.28
3747.54
3726.29
3701.79
3674.41
3644.49
3612.44
3578.69
3543.66
3507.81
3471.61
3435.49
3399.92
3365.24
3331.82
3299.96
3269.87
3241.73
3215.64
3191.66
3169.77
3149.96
3132.18
3116.34
3102.37
3090.19
3079.71
3070.87
3063.61
3057.85
3053.55
3050.65
3049.11
3048.89
3049.95
3052.26
3055.83
3060.66
3066.77
3074.21
3083.01
3093.24
3104.98
3118.31
3133.29
3150
3168.5
3188.84
3211.03
3235.07
3260.93
3288.52
3317.74
3348.42
3380.37
3413.37
3447.07
3481.17
3515.3
3549.09
3582.13
3613.99
3644.26
3672.52
3698.39
3721.47
3741.45
3758
3770.89
3779.9
3784.89
3785.77
3782.49
3775.17
3763.86
3748.73
3730
3707.96
3682.94
3655.31
3625.48
3593.88
3560.94
3527.1
3492.79
3458.44
3424.42
3391.09
3358.72
3327.58
3297.86
3269.72
3243.28
3218.62
3195.78
3174.76
3155.55
3138.15
3122.5
3108.55
3096.27
3085.59
3076.48
3068.89
3062.78
3058.12
3054.87
3053.04
3052.6
3053.52
3055.83
3059.54
3064.65
3071.19
3079.19
3088.68
3099.69
3112.26
3126.42
3142.22
3159.69
3178.86
3199.73
3222.32
3246.6
3272.53
3300.05
3329.04
3359.37
3390.84
3423.24
3456.27
3489.62
3522.97
3555.91
3588.04
3618.93
3648.14
3675.24
3699.81
3721.46
3739.83
3754.61
3765.56
3772.48
3775.24
3773.79
3768.22
3758.63
3745.17
3728.09
3707.71
3684.37
3658.45
3630.37
3600.54
3569.39
3537.32
3504.72
3471.96
3439.35
3407.18
3375.72
3345.16
3315.68
3287.42
3260.48
3234.96
3210.9
3188.34
3167.32
3147.85
3129.95
3113.65
3098.95
3085.87
3074.43
3064.65
3056.52
3050.07
3045.32
3042.29
3040.96
3041.25
3043.25
3046.96
3052.43
3059.67
3068.71
3079.54
3092.18
3106.57
3122.72
3140.56
3160.06
3181.14
3203.76
3227.8
3253.17
3279.76
3307.47
3336.19
3366.11
3397.58
3429.29
3460.96
3492.48
3523.71
3554.38
3584.26
3613.06
3640.46
3666.19
3689.92
3711.33
3730.14
3746.05
3758.83
3768.22
3774.01
3776.08
3773.88
3767.78
3757.78
3743.95
3726.48
3705.54
3681.39
3654.38
3624.86
3593.24
3559.98
3525.56
3490.46
3455.12
3419.93
3385.63
3353.75
3321.81
3291.07
3261.91
3234.55
3209.13
3185.73
3164.36
3145.02
3127.68
3112.27
3098.72
3086.97
3076.92
3068.51
3061.65
3056.27
3052.29
3049.68
3048.75
3049.19
3050.97
3054.05
3058.39
3064
3070.87
3079
3088.44
3099.24
3450.56
3483.42
3515.74
3546.98
3576.69
3604.27
3629.31
3651.38
3670.1
3685.2
3696.4
3703.5
3706.35
3704.7
3698.67
3688.51
3674.32
3656.33
3634.82
3610.12
3582.63
3552.72
3520.81
3487.38
3452.86
3417.72
3382.36
3347.15
3312.63
3280.01
3247.63
3216.36
3186.5
3158.24
3131.7
3106.97
3084.08
3063.06
3043.89
3026.56
3011.02
2997.22
2985.12
2974.66
2965.79
2958.45
2952.62
2948.25
2945.32
2943.85
2943.82
2945.3
2948.26
2952.77
2958.85
2966.53
2975.86
2986.9
2999.69
3014.27
3030.65
3048.85
3068.91
3090.82
3114.51
3139.96
3167.09
3195.78
3225.92
3257.35
3289.85
3320.43
3353.84
3387.64
3421.44
3454.88
3487.62
3519.31
3549.58
3578.04
3604.33
3628.1
3648.98
3666.63
3680.78
3691.17
3697.59
3699.9
3698.08
3692.11
3682.06
3668.03
3650.22
3628.87
3604.28
3576.78
3546.76
3514.6
3480.73
3445.59
3409.63
3373.32
3337.1
3301.46
3266.71
3233.23
3201.32
3171.21
3143.06
3116.98
3093
3071.13
3051.35
3033.58
3017.77
3003.83
2991.67
2981.21
2972.4
2965.15
2959.41
2955.12
2952.23
2950.7
2950.49
2951.55
2953.86
2957.43
2962.25
2968.35
2975.77
2984.56
2994.77
3006.49
3019.79
3034.75
3051.44
3069.93
3090.25
3112.43
3136.48
3162.34
3189.95
3219.19
3249.91
3281.91
3314.96
3348.73
3382.91
3417.13
3451.02
3484.16
3516.13
3546.51
3574.88
3600.85
3624.03
3644.1
3660.73
3673.67
3682.73
3687.74
3688.63
3685.35
3677.99
3666.63
3651.43
3632.61
3610.48
3585.36
3557.61
3527.67
3495.95
3462.9
3428.95
3394.55
3360.11
3326.02
3292.63
3260.21
3229.03
3199.28
3171.13
3144.69
3120.03
3097.19
3076.18
3056.99
3039.6
3023.96
3010.04
2997.77
2987.11
2978.01
2970.43
2964.33
2959.68
2956.44
2954.61
2954.17
2955.09
2957.4
2961.1
2966.21
2972.74
2980.73
2990.21
3001.2
3013.76
3027.91
3043.7
3061.15
3080.31
3101.17
3123.75
3148.03
3173.98
3201.51
3230.52
3260.88
3292.4
3324.85
3357.95
3391.38
3424.81
3457.86
3490.09
3521.1
3550.42
3577.63
3602.31
3624.06
3642.52
3657.38
3668.38
3675.34
3678.11
3676.66
3671.06
3661.41
3647.87
3630.71
3610.23
3586.78
3560.76
3532.56
3502.62
3471.37
3439.21
3406.52
3373.69
3341.01
3308.8
3277.29
3246.7
3217.19
3188.91
3161.97
3136.44
3112.38
3089.82
3068.8
3049.34
3031.45
3015.15
3000.44
2987.36
2975.92
2966.14
2958.02
2951.57
2946.82
2943.79
2942.45
2942.74
2944.73
2948.45
2953.9
2961.14
2970.17
2981.01
2993.64
3008.04
3024.18
3042.03
3061.54
3082.63
3105.26
3129.32
3154.7
3181.31
3209.05
3237.8
3267.74
3299.26
3331.01
3362.73
3394.3
3425.59
3456.33
3486.28
3515.16
3542.65
3568.46
3592.28
3613.78
3632.67
3648.66
3661.5
3670.95
3676.79
3678.89
3676.7
3670.58
3660.54
3646.67
3629.13
3608.12
3583.87
3556.75
3527.12
3495.37
3462
3427.46
3392.25
3356.81
3321.53
3287.19
3255.21
3223.22
3192.45
3163.27
3135.9
3110.48
3087.09
3065.74
3046.41
3029.09
3013.7
3000.18
2988.45
2978.43
2970.04
2963.2
2957.83
2953.87
2951.26
2950.34
2950.8
2952.58
2955.66
2960.01
2965.62
2972.48
2980.6
2990.03
3000.82
3352.41
3385.39
3417.84
3449.22
3479.06
3506.77
3531.93
3554.11
3572.94
3588.13
3599.4
3606.54
3609.41
3607.75
3601.7
3591.47
3577.21
3559.12
3537.5
3512.67
3485.05
3455.01
3422.96
3389.4
3354.76
3319.5
3284.04
3248.74
3214.15
3181.45
3149.02
3117.71
3087.83
3059.55
3033.01
3008.27
2985.4
2964.38
2945.24
2927.92
2912.4
2898.63
2886.55
2876.11
2867.25
2859.93
2854.1
2849.74
2846.83
2845.35
2845.32
2846.79
2849.75
2854.24
2860.31
2867.97
2877.29
2888.31
2901.08
2915.64
2932.02
2950.21
2970.26
2992.16
3015.86
3041.32
3068.46
3097.17
3127.33
3158.79
3191.31
3222.09
3255.55
3289.41
3323.29
3356.82
3389.67
3421.46
3451.84
3480.42
3506.83
3530.71
3551.7
3569.45
3583.68
3594.13
3600.6
3602.93
3601.11
3595.12
3585.02
3570.92
3553.02
3531.57
3506.86
3479.24
3449.09
3416.79
3382.79
3347.51
3311.43
3274.99
3238.67
3202.93
3168.09
3134.55
3102.6
3072.46
3044.3
3018.21
2994.25
2972.4
2952.64
2934.91
2919.12
2905.21
2893.08
2882.65
2873.85
2866.63
2860.9
2856.63
2853.75
2852.24
2852.03
2853.1
2855.41
2858.98
2863.79
2869.88
2877.28
2886.05
2896.24
2907.94
2921.21
2936.14
2952.81
2971.27
2991.58
3013.76
3037.8
3063.66
3091.29
3120.57
3151.33
3183.38
3216.5
3250.36
3284.62
3318.95
3352.95
3386.21
3418.31
3448.82
3477.32
3503.41
3526.7
3546.87
3563.59
3576.61
3585.71
3590.76
3591.65
3588.36
3580.97
3569.54
3554.26
3535.34
3513.1
3487.85
3459.98
3429.9
3398.05
3364.86
3330.8
3296.28
3261.75
3227.57
3194.1
3161.62
3130.4
3100.62
3072.45
3046.01
3021.35
2998.51
2977.52
2958.35
2940.98
2925.36
2911.46
2899.21
2888.57
2879.48
2871.92
2865.83
2861.18
2857.95
2856.13
2855.69
2856.61
2858.92
2862.61
2867.71
2874.23
2882.21
2891.67
2902.65
2915.19
2929.32
2945.1
2962.54
2981.68
3002.53
3025.11
3049.39
3075.34
3102.89
3131.93
3162.33
3193.9
3226.41
3259.59
3293.11
3326.65
3359.81
3392.17
3423.3
3452.76
3480.11
3504.92
3526.79
3545.35
3560.3
3571.37
3578.36
3581.15
3579.69
3574.05
3564.34
3550.71
3533.45
3512.86
3489.28
3463.13
3434.8
3404.74
3373.37
3341.09
3308.31
3275.38
3242.64
3210.36
3178.81
3148.17
3118.64
3090.35
3063.39
3037.85
3013.79
2991.24
2970.22
2950.76
2932.87
2916.57
2901.87
2888.8
2877.36
2867.58
2859.46
2853.01
2848.25
2845.22
2843.88
2844.17
2846.15
2849.86
2855.31
2862.54
2871.57
2882.4
2895.03
2909.43
2925.58
2943.43
2962.94
2984.05
3006.69
3030.77
3056.18
3082.81
3110.56
3139.34
3169.33
3200.91
3232.71
3264.49
3296.12
3327.48
3358.29
3388.33
3417.3
3444.89
3470.8
3494.72
3516.32
3535.3
3551.38
3564.3
3573.81
3579.72
3581.86
3579.66
3573.52
3563.45
3549.53
3531.91
3510.8
3486.44
3459.2
3429.44
3397.55
3364.04
3329.36
3294.02
3258.46
3223.08
3188.68
3156.6
3124.55
3093.74
3064.53
3037.15
3011.74
2988.35
2967.02
2947.72
2930.42
2915.07
2901.57
2889.87
2879.88
2871.51
2864.69
2859.34
2855.4
2852.8
2851.89
2852.36
2854.15
2857.23
2861.57
2867.18
2874.04
2882.14
2891.56
2902.34
3254.25
3287.37
3319.97
3351.5
3381.49
3409.35
3434.65
3456.97
3475.92
3491.2
3502.55
3509.74
3512.64
3510.98
3504.89
3494.6
3480.23
3462.03
3440.28
3415.32
3387.55
3357.35
3325.15
3291.44
3256.65
3221.27
3185.68
3150.28
3115.62
3082.83
3050.34
3018.99
2989.07
2960.78
2934.22
2909.49
2886.63
2865.63
2846.5
2829.21
2813.72
2799.97
2787.91
2777.49
2768.65
2761.34
2755.53
2751.18
2748.27
2746.8
2746.76
2748.23
2751.18
2755.66
2761.71
2769.35
2778.65
2789.65
2802.4
2816.94
2833.3
2851.48
2871.53
2893.42
2917.12
2942.59
2969.76
2998.49
3028.68
3060.17
3092.72
3123.72
3157.23
3191.17
3225.14
3258.77
3291.74
3323.65
3354.16
3382.87
3409.4
3433.42
3454.53
3472.39
3486.72
3497.25
3503.77
3506.12
3504.31
3498.29
3488.13
3473.95
3455.95
3434.38
3409.54
3381.78
3351.48
3319.03
3284.87
3249.44
3213.21
3176.64
3140.18
3104.33
3069.4
3035.79
3003.79
2973.62
2945.44
2919.35
2895.4
2873.58
2853.85
2836.15
2820.4
2806.52
2794.42
2784.02
2775.25
2768.04
2762.34
2758.08
2755.23
2753.72
2753.53
2754.6
2756.92
2760.48
2765.28
2771.36
2778.74
2787.48
2797.65
2809.31
2822.56
2837.46
2854.1
2872.54
2892.83
2914.99
2939.03
2964.91
2992.56
3021.87
3052.68
3084.79
3117.99
3151.94
3186.31
3220.76
3254.89
3288.29
3320.53
3351.18
3379.83
3406.06
3429.49
3449.77
3466.59
3479.69
3488.86
3493.94
3494.84
3491.54
3484.09
3472.6
3457.23
3438.2
3415.82
3390.43
3362.41
3332.18
3300.17
3266.84
3232.63
3197.99
3163.34
3129.06
3095.51
3062.97
3031.7
3001.89
2973.7
2947.24
2922.58
2899.76
2878.78
2859.63
2842.28
2826.69
2812.81
2800.58
2789.96
2780.89
2773.34
2767.27
2762.63
2759.41
2757.59
2757.15
2758.07
2760.37
2764.06
2769.15
2775.66
2783.63
2793.07
2804.04
2816.56
2830.67
2846.42
2863.85
2882.97
2903.82
2926.39
2950.67
2976.63
3004.19
3033.27
3063.71
3095.34
3127.93
3161.19
3194.82
3228.48
3261.77
3294.27
3325.56
3355.17
3382.66
3407.62
3429.63
3448.32
3463.37
3474.51
3481.55
3484.36
3482.88
3477.2
3467.41
3453.69
3436.31
3415.58
3391.87
3365.56
3337.08
3306.88
3275.37
3242.97
3210.07
3177.05
3144.22
3111.87
3080.26
3049.59
3020.02
2991.71
2964.74
2939.2
2915.13
2892.58
2871.57
2852.11
2834.22
2817.93
2803.24
2790.16
2778.72
2768.94
2760.82
2754.37
2749.62
2746.58
2745.24
2745.52
2747.5
2751.2
2756.64
2763.87
2772.89
2783.72
2796.35
2810.75
2826.9
2844.76
2864.28
2885.4
2908.06
2932.15
2957.59
2984.25
3012.03
3040.83
3070.87
3102.53
3134.38
3166.22
3197.92
3229.35
3260.26
3290.4
3319.48
3347.17
3373.2
3397.24
3418.95
3438.04
3454.22
3467.23
3476.82
3482.79
3484.98
3482.78
3476.62
3466.51
3452.52
3434.82
3413.6
3389.12
3361.73
3331.81
3299.76
3266.09
3231.26
3195.77
3160.07
3124.59
3090.11
3057.91
3025.8
2994.95
2965.71
2938.32
2912.9
2889.53
2868.22
2848.94
2831.68
2816.35
2802.89
2791.22
2781.26
2772.92
2766.13
2760.8
2756.87
2754.28
2753.39
2753.88
2755.67
2758.75
2763.1
2768.7
2775.55
2783.64
2793.05
2803.81
3156.08
3189.36
3222.13
3253.83
3284
3312.02
3337.48
3359.95
3379.03
3394.43
3405.86
3413.11
3416.03
3414.37
3408.24
3397.87
3383.4
3365.08
3343.18
3318.06
3290.12
3259.75
3227.37
3193.49
3158.55
3123.01
3087.29
3051.77
3017.03
2984.14
2951.58
2920.18
2890.23
2861.92
2835.36
2810.63
2787.77
2766.79
2747.69
2730.42
2714.95
2701.23
2689.2
2678.8
2669.98
2662.7
2656.9
2652.56
2649.66
2648.18
2648.14
2649.61
2652.55
2657.01
2663.04
2670.67
2679.94
2690.92
2703.65
2718.17
2734.51
2752.68
2772.71
2794.6
2818.31
2843.79
2870.97
2899.73
2929.96
2961.49
2994.07
3025.31
3058.88
3092.9
3126.98
3160.73
3193.82
3225.88
3256.53
3285.38
3312.07
3336.23
3357.48
3375.47
3389.91
3400.52
3407.1
3409.48
3407.67
3401.63
3391.4
3377.13
3359.01
3337.31
3312.32
3284.4
3253.93
3221.31
3186.97
3151.38
3114.98
3078.25
3041.64
3005.68
2970.64
2936.94
2904.88
2874.67
2846.48
2820.4
2796.47
2774.67
2754.98
2737.31
2721.6
2707.76
2695.69
2685.32
2676.58
2669.4
2663.72
2659.49
2656.65
2655.16
2654.97
2656.05
2658.37
2661.92
2666.72
2672.78
2680.14
2688.86
2698.99
2710.63
2723.83
2738.7
2755.31
2773.73
2794
2816.15
2840.18
2866.07
2893.74
2923.09
2953.96
2986.14
3019.42
3053.47
3087.97
3122.55
3156.83
3190.39
3222.79
3253.61
3282.41
3308.8
3332.38
3352.8
3369.73
3382.92
3392.16
3397.28
3398.19
3394.87
3387.38
3375.81
3360.33
3341.17
3318.65
3293.1
3264.91
3234.5
3202.32
3168.82
3134.46
3099.67
3064.89
3030.5
2996.86
2964.24
2932.91
2903.07
2874.86
2848.39
2823.74
2800.92
2779.96
2760.83
2743.51
2727.94
2714.09
2701.89
2691.29
2682.24
2674.71
2668.65
2664.03
2660.82
2659
2658.56
2659.48
2661.78
2665.46
2670.53
2677.03
2684.99
2694.41
2705.36
2717.85
2731.95
2747.68
2765.08
2784.19
2805.02
2827.58
2851.86
2877.83
2905.42
2934.53
2965.03
2996.72
3029.39
3062.75
3096.5
3130.29
3163.73
3196.4
3227.85
3257.64
3285.31
3310.43
3332.59
3351.42
3366.58
3377.81
3384.9
3387.73
3386.24
3380.51
3370.64
3356.81
3339.3
3318.42
3294.54
3268.06
3239.42
3209.05
3177.39
3144.84
3111.82
3078.69
3045.76
3013.34
2981.66
2950.94
2921.34
2893
2866.02
2840.47
2816.41
2793.86
2772.85
2753.39
2735.51
2719.22
2704.53
2691.46
2680.02
2670.24
2662.12
2655.67
2650.92
2647.88
2646.53
2646.81
2648.78
2652.47
2657.9
2665.12
2674.14
2684.96
2697.59
2711.99
2728.15
2746.01
2765.55
2786.69
2809.36
2833.47
2858.94
2885.62
2913.44
2942.27
2972.37
3004.11
3036.02
3067.93
3099.7
3131.23
3162.23
3192.48
3221.68
3249.51
3275.67
3299.83
3321.67
3340.89
3357.18
3370.29
3379.97
3386.01
3388.26
3386.05
3379.86
3369.71
3355.66
3337.86
3316.52
3291.89
3264.34
3234.24
3202.02
3168.16
3133.15
3097.5
3061.65
3026.03
2991.49
2959.15
2926.97
2896.06
2866.79
2839.39
2813.97
2790.61
2769.32
2750.08
2732.85
2717.56
2704.14
2692.5
2682.57
2674.27
2667.5
2662.2
2658.3
2655.71
2654.85
2655.34
2657.14
2660.23
2664.57
2670.17
2677.01
2685.09
2694.48
2705.23
3057.91
3091.35
3124.31
3156.2
3186.57
3214.77
3240.41
3263.04
3282.28
3297.8
3309.34
3316.65
3319.6
3317.93
3311.76
3301.3
3286.71
3268.25
3246.19
3220.89
3192.76
3162.19
3129.63
3095.56
3060.44
3024.73
2988.86
2953.22
2918.39
2885.38
2852.75
2821.3
2791.31
2762.97
2736.4
2711.68
2688.83
2667.88
2648.79
2631.56
2616.12
2602.43
2590.42
2580.05
2571.26
2563.99
2558.21
2553.89
2550.99
2549.52
2549.47
2550.93
2553.86
2558.3
2564.31
2571.92
2581.16
2592.12
2604.82
2619.32
2635.64
2653.79
2673.82
2695.71
2719.41
2744.91
2772.11
2800.9
2831.17
2862.74
2895.37
2926.85
2960.49
2994.61
3028.8
3062.69
3095.93
3128.14
3158.94
3187.96
3214.82
3239.14
3260.55
3278.68
3293.24
3303.95
3310.6
3313.01
3311.2
3305.12
3294.82
3280.45
3262.21
3240.36
3215.2
3187.1
3156.44
3123.63
3089.1
3053.31
3016.73
2979.82
2943.05
2906.96
2871.8
2838.01
2805.88
2775.63
2747.43
2721.35
2697.43
2675.67
2656.01
2638.39
2622.72
2608.92
2596.9
2586.56
2577.85
2570.7
2565.04
2560.83
2558.01
2556.54
2556.37
2557.45