/*--------------------------------*- C++ -*----------------------------------*\
| =========                 |                                                 |
| \\      /  F ield         | OpenFOAM: The Open Source CFD Toolbox           |
|  \\    /   O peration     | Version:  3.0.1                                 |
|   \\  /    A nd           | Web:      www.OpenFOAM.org                      |
|    \\/     M anipulation  |                                                 |
\*---------------------------------------------------------------------------*/
FoamFile
{
    version     2.0;
    format      ascii;
    class       surfaceScalarField;
    location    "13.4";
    object      phi;
}
// * * * * * * * * * * * * * * * * * * * * * * * * * * * * * * * * * * * * * //

dimensions      [0 3 -1 0 0 0 0];

internalField   nonuniform List<scalar> 
42423
(
-0.000152534
-5.43704e-06
-0.000145988
-6.546e-06
-0.000138465
-7.52312e-06
-0.000129919
-8.547e-06
-0.000120127
-9.79223e-06
-0.000109256
-1.0871e-05
-9.71313e-05
-1.21253e-05
-8.3996e-05
-1.31357e-05
-6.98151e-05
-1.41814e-05
-5.46164e-05
-1.51992e-05
-3.85228e-05
-1.60941e-05
-2.16892e-05
-1.6834e-05
-4.05356e-06
-1.76362e-05
1.40481e-05
-1.81021e-05
3.25753e-05
-1.85277e-05
5.11795e-05
-1.86047e-05
6.94878e-05
-1.83089e-05
8.73761e-05
-1.78888e-05
0.000104584
-1.72086e-05
0.000120689
-1.61054e-05
0.0001354
-1.47114e-05
0.000148442
-1.30421e-05
0.000159499
-1.10579e-05
0.000168297
-8.79796e-06
0.00017457
-6.27337e-06
0.000178111
-3.54132e-06
0.000178841
-7.31083e-07
0.000177214
1.62699e-06
0.000173086
4.12755e-06
0.000166519
6.56618e-06
0.000157632
8.88643e-06
0.000146985
1.0647e-05
0.000134655
1.23296e-05
0.000121267
1.33882e-05
0.000106977
1.42897e-05
9.21519e-05
1.48244e-05
7.73147e-05
1.4837e-05
6.26232e-05
1.46912e-05
4.84112e-05
1.42118e-05
3.47604e-05
1.36507e-05
2.2139e-05
1.26212e-05
1.04069e-05
1.17319e-05
5.90503e-08
1.03477e-05
-8.67906e-06
8.73799e-06
-1.60021e-05
7.32291e-06
-2.19942e-05
5.99208e-06
-2.67283e-05
4.734e-06
-3.02761e-05
3.54775e-06
-3.27426e-05
2.46642e-06
-3.42728e-05
1.53013e-06
-3.50033e-05
7.3047e-07
-3.5111e-05
1.07712e-07
-3.48829e-05
-2.28181e-07
-3.44061e-05
-4.768e-07
-3.37251e-05
-6.8099e-07
-3.28781e-05
-8.47077e-07
-3.19215e-05
-9.56558e-07
-3.08916e-05
-1.02989e-06
-2.98089e-05
-1.08272e-06
-2.87009e-05
-1.10803e-06
-2.75758e-05
-1.12507e-06
-2.64424e-05
-1.13344e-06
-2.5301e-05
-1.14139e-06
-2.41342e-05
-1.16686e-06
-2.29204e-05
-1.21378e-06
-2.1661e-05
-1.25937e-06
-2.03796e-05
-1.28145e-06
-1.90855e-05
-1.29409e-06
-1.77746e-05
-1.31092e-06
-1.64349e-05
-1.33971e-06
-1.5046e-05
-1.38893e-06
-1.35837e-05
-1.46224e-06
-1.20195e-05
-1.56424e-06
-1.03277e-05
-1.69178e-06
-8.48231e-06
-1.84539e-06
-6.46321e-06
-2.0191e-06
-4.26016e-06
-2.20305e-06
-1.86704e-06
-2.39313e-06
7.02157e-07
-2.5692e-06
3.46973e-06
-2.76758e-06
6.40275e-06
-2.93302e-06
9.47058e-06
-3.06782e-06
1.26378e-05
-3.16722e-06
1.58732e-05
-3.23537e-06
1.91236e-05
-3.25045e-06
2.23691e-05
-3.24552e-06
2.55442e-05
-3.17506e-06
2.86148e-05
-3.07063e-06
3.15655e-05
-2.95071e-06
3.43255e-05
-2.75994e-06
3.68546e-05
-2.52913e-06
3.91477e-05
-2.29307e-06
4.11517e-05
-2.00405e-06
4.2835e-05
-1.68324e-06
4.41886e-05
-1.35362e-06
4.51973e-05
-1.00877e-06
4.58367e-05
-6.39317e-07
4.61259e-05
-2.89221e-07
4.6064e-05
6.1833e-08
4.56713e-05
3.92782e-07
4.49707e-05
7.00603e-07
4.39961e-05
9.74509e-07
4.27851e-05
1.21102e-06
4.13797e-05
1.40543e-06
3.98256e-05
1.55412e-06
3.8161e-05
1.66453e-06
3.64224e-05
1.73862e-06
3.4637e-05
1.78546e-06
3.28323e-05
1.80463e-06
3.10305e-05
1.80185e-06
2.922e-05
1.81043e-06
2.74084e-05
1.81168e-06
2.56039e-05
1.8044e-06
2.37807e-05
1.82325e-06
2.19224e-05
1.85829e-06
2.00302e-05
1.89218e-06
1.80816e-05
1.94857e-06
1.60687e-05
2.01297e-06
1.39874e-05
2.08127e-06
1.18261e-05
2.1613e-06
9.5899e-06
2.23619e-06
7.27518e-06
2.31471e-06
4.8998e-06
2.37538e-06
2.46687e-06
2.43293e-06
-7.40312e-09
2.47427e-06
-2.50092e-06
2.49351e-06
-4.98848e-06
2.48756e-06
-7.44402e-06
2.45554e-06
-9.83032e-06
2.3863e-06
-1.21115e-05
2.28122e-06
-1.42529e-05
2.14137e-06
-1.62058e-05
1.95291e-06
-1.79347e-05
1.72883e-06
-1.93981e-05
1.46346e-06
-2.05682e-05
1.17004e-06
-2.14109e-05
8.42738e-07
-2.19116e-05
5.0066e-07
-2.20583e-05
1.46722e-07
-2.18508e-05
-2.07503e-07
-2.12921e-05
-5.58695e-07
-2.0397e-05
-8.95082e-07
-1.91795e-05
-1.21747e-06
-1.76685e-05
-1.51101e-06
-1.58909e-05
-1.77759e-06
-1.38785e-05
-2.01239e-06
-1.16659e-05
-2.21264e-06
-9.28619e-06
-2.37971e-06
-6.78242e-06
-2.50378e-06
-4.18194e-06
-2.60047e-06
-1.52318e-06
-2.65877e-06
1.16005e-06
-2.68323e-06
3.84762e-06
-2.68757e-06
6.50266e-06
-2.65503e-06
9.11213e-06
-2.60948e-06
1.1668e-05
-2.55587e-06
1.41359e-05
-2.46795e-06
1.6519e-05
-2.38305e-06
1.88152e-05
-2.29624e-06
2.10056e-05
-2.19039e-06
2.31007e-05
-2.09508e-06
2.51039e-05
-2.00315e-06
2.70205e-05
-1.91659e-06
2.88509e-05
-1.83043e-06
3.06182e-05
-1.76729e-06
3.23182e-05
-1.69998e-06
3.39684e-05
-1.65029e-06
3.55751e-05
-1.60669e-06
3.71235e-05
-1.5484e-06
3.86316e-05
-1.50805e-06
4.0067e-05
-1.43538e-06
4.14247e-05
-1.35772e-06
4.26608e-05
-1.23616e-06
4.37583e-05
-1.09744e-06
4.46722e-05
-9.13953e-07
4.53728e-05
-7.0056e-07
4.58218e-05
-4.48965e-07
4.5986e-05
-1.64232e-07
4.58418e-05
1.44202e-07
4.53634e-05
4.78383e-07
4.45513e-05
8.12133e-07
4.3391e-05
1.16025e-06
4.18955e-05
1.4955e-06
4.00853e-05
1.81022e-06
3.79746e-05
2.11067e-06
3.56035e-05
2.37115e-06
3.30011e-05
2.60232e-06
3.021e-05
2.79109e-06
2.72732e-05
2.93685e-06
2.42228e-05
3.05035e-06
2.11008e-05
3.12201e-06
1.79487e-05
3.15217e-06
1.47922e-05
3.15645e-06
1.16708e-05
3.12136e-06
8.6044e-06
3.06643e-06
5.62136e-06
2.98304e-06
2.73826e-06
2.8831e-06
-3.18515e-08
2.7701e-06
-2.66858e-06
2.63673e-06
-5.15802e-06
2.48943e-06
-7.49436e-06
2.33634e-06
-9.66525e-06
2.17089e-06
-1.16597e-05
1.99441e-06
-1.34686e-05
1.80892e-06
-1.50914e-05
1.62282e-06
-1.6507e-05
1.41558e-06
-1.77211e-05
1.21408e-06
-1.87122e-05
9.91095e-07
-1.94824e-05
7.70192e-07
-2.00205e-05
5.38108e-07
-2.03198e-05
2.99313e-07
-2.03847e-05
6.49238e-08
-2.02044e-05
-1.80269e-07
-1.97831e-05
-4.21312e-07
-1.91181e-05
-6.64996e-07
-1.82188e-05
-8.99298e-07
-1.70904e-05
-1.12849e-06
-1.57419e-05
-1.3485e-06
-1.41859e-05
-1.55593e-06
-1.24385e-05
-1.74748e-06
-1.05156e-05
-1.92281e-06
-8.43862e-06
-2.07702e-06
-6.22799e-06
-2.21063e-06
-3.90757e-06
-2.32042e-06
-1.50043e-06
-2.40714e-06
9.69089e-07
-2.46952e-06
3.47966e-06
-2.51057e-06
6.00304e-06
-2.52339e-06
8.52198e-06
-2.51893e-06
1.10184e-05
-2.49644e-06
1.348e-05
-2.46161e-06
1.5877e-05
-2.39695e-06
1.82115e-05
-2.33453e-06
2.04747e-05
-2.26323e-06
2.26591e-05
-2.18441e-06
2.47635e-05
-2.10432e-06
2.67846e-05
-2.02118e-06
2.87268e-05
-1.94212e-06
3.05902e-05
-1.86347e-06
3.23742e-05
-1.78397e-06
3.40875e-05
-1.71325e-06
3.57246e-05
-1.63718e-06
3.72917e-05
-1.56708e-06
3.87789e-05
-1.48718e-06
4.01909e-05
-1.41198e-06
4.1516e-05
-1.32514e-06
4.27449e-05
-1.22886e-06
4.38683e-05
-1.12341e-06
4.48714e-05
-1.00313e-06
4.57326e-05
-8.61245e-07
4.6441e-05
-7.08414e-07
4.69703e-05
-5.29224e-07
4.73047e-05
-3.3444e-07
4.74316e-05
-1.26862e-07
4.73119e-05
1.19644e-07
4.69427e-05
3.6918e-07
4.63034e-05
6.39306e-07
4.53797e-05
9.23768e-07
4.41678e-05
1.21191e-06
4.26539e-05
1.51385e-06
4.08365e-05
1.81742e-06
3.87184e-05
2.1181e-06
3.63055e-05
2.41283e-06
3.36098e-05
2.69571e-06
3.06515e-05
2.95833e-06
2.74587e-05
3.19276e-06
2.4038e-05
3.42076e-06
2.04433e-05
3.59466e-06
1.67078e-05
3.73551e-06
1.28763e-05
3.83149e-06
8.98703e-06
3.88925e-06
5.09545e-06
3.89158e-06
1.2238e-06
3.87165e-06
-2.57629e-06
3.80008e-06
-6.24769e-06
3.6714e-06
-9.73583e-06
3.48814e-06
-1.30002e-05
3.26432e-06
-1.60045e-05
3.00436e-06
-1.87071e-05
2.70257e-06
-2.10728e-05
2.36573e-06
-2.30872e-05
2.01439e-06
-2.47237e-05
1.63646e-06
-2.59671e-05
1.24339e-06
-2.68219e-05
8.54772e-07
-2.73071e-05
4.85188e-07
-2.74213e-05
1.14281e-07
-2.71275e-05
-2.93814e-07
-2.64774e-05
-6.50152e-07
-2.55028e-05
-9.746e-07
-2.42429e-05
-1.25992e-06
-2.27333e-05
-1.5096e-06
-2.10181e-05
-1.71512e-06
-1.91513e-05
-1.86688e-06
-1.71642e-05
-1.98706e-06
-1.51262e-05
-2.03803e-06
-1.30547e-05
-2.07147e-06
-1.10221e-05
-2.03259e-06
-9.04105e-06
-1.98108e-06
-7.15934e-06
-1.88171e-06
-5.41287e-06
-1.74647e-06
-3.81599e-06
-1.59688e-06
-2.38552e-06
-1.43046e-06
-1.14831e-06
-1.23721e-06
-1.40588e-07
-1.00772e-06
7.10087e-07
-8.50674e-07
1.37905e-06
-6.68966e-07
1.8783e-06
-4.99244e-07
2.22374e-06
-3.45441e-07
2.43465e-06
-2.10909e-07
2.53413e-06
-9.94761e-08
2.54266e-06
-8.5268e-09
2.47495e-06
6.77076e-08
2.35213e-06
1.22824e-07
2.19135e-06
1.60778e-07
2.0072e-06
1.84154e-07
1.81162e-06
1.95577e-07
1.61406e-06
1.97567e-07
1.42161e-06
1.9245e-07
1.23933e-06
1.82279e-07
1.07054e-06
1.68795e-07
9.17117e-07
1.53419e-07
7.79855e-07
1.37264e-07
6.58695e-07
1.21161e-07
5.52994e-07
1.05702e-07
4.61719e-07
9.12761e-08
3.83607e-07
7.81127e-08
3.17289e-07
6.63186e-08
2.6138e-07
5.59103e-08
2.14539e-07
4.68419e-08
1.75513e-07
3.90269e-08
1.43158e-07
3.23553e-08
1.16453e-07
2.67062e-08
9.44967e-08
2.19569e-08
7.65083e-08
1.7989e-08
6.18169e-08
1.4692e-08
4.98518e-08
1.19656e-08
4.01315e-08
9.72076e-09
3.22527e-08
7.87925e-09
2.58795e-08
6.37367e-09
2.07335e-08
5.14638e-09
1.65852e-08
4.1486e-09
1.32462e-08
3.33936e-09
1.0562e-08
2.68444e-09
8.4068e-09
2.15548e-09
6.67797e-09
1.72906e-09
5.29226e-09
1.38592e-09
4.18215e-09
1.1103e-09
3.293e-09
8.89316e-10
2.58065e-09
7.12504e-10
2.00942e-09
5.71366e-10
1.55053e-09
4.59016e-10
1.18075e-09
3.69901e-10
8.81315e-10
2.99536e-10
6.37094e-10
2.44318e-10
4.35849e-10
2.01338e-10
2.67681e-10
1.68258e-10
1.24572e-10
1.43202e-10
1.24645e-10
-0.000152577
-1.08686e-05
-0.000146035
-1.30883e-05
-0.000138517
-1.50427e-05
-0.000129973
-1.70911e-05
-0.000120183
-1.95827e-05
-0.000109315
-2.174e-05
-9.71864e-05
-2.42549e-05
-8.40486e-05
-2.62744e-05
-6.98681e-05
-2.83628e-05
-5.46682e-05
-3.04e-05
-3.85669e-05
-3.21964e-05
-2.17234e-05
-3.36785e-05
-4.07513e-06
-3.52854e-05
1.40274e-05
-3.62056e-05
3.25673e-05
-3.70686e-05
5.11872e-05
-3.72256e-05
6.95209e-05
-3.66437e-05
8.74367e-05
-3.58057e-05
0.000104652
-3.44246e-05
0.000120755
-3.22094e-05
0.000135478
-2.94359e-05
0.000148534
-2.60989e-05
0.000159605
-2.21293e-05
0.000168414
-1.7608e-05
0.000174696
-1.25556e-05
0.000178244
-7.09015e-06
0.000178977
-1.46533e-06
0.000177339
3.26429e-06
0.000173206
8.25947e-06
0.000166632
1.31399e-05
0.000157733
1.77843e-05
0.000147072
2.13078e-05
0.000134726
2.4675e-05
0.00012132
2.67931e-05
0.000107013
2.85964e-05
9.21699e-05
2.96671e-05
7.73176e-05
2.96888e-05
6.26106e-05
2.93978e-05
4.83872e-05
2.84348e-05
3.473e-05
2.73075e-05
2.20998e-05
2.52512e-05
1.03672e-05
2.34642e-05
1.57233e-08
2.0699e-05
-8.72236e-06
1.74759e-05
-1.60435e-05
1.46439e-05
-2.2033e-05
1.19815e-05
-2.67654e-05
9.46624e-06
-3.0314e-05
7.09629e-06
-3.27792e-05
4.93153e-06
-3.43061e-05
3.05697e-06
-3.50335e-05
1.4578e-06
-3.51388e-05
2.12907e-07
-3.49089e-05
-4.58077e-07
-3.44301e-05
-9.55618e-07
-3.37471e-05
-1.36406e-06
-3.28977e-05
-1.69651e-06
-3.19389e-05
-1.9154e-06
-3.0907e-05
-2.06183e-06
-2.98224e-05
-2.16734e-06
-2.87125e-05
-2.21788e-06
-2.75858e-05
-2.25185e-06
-2.6451e-05
-2.26825e-06
-2.53084e-05
-2.28396e-06
-2.41405e-05
-2.33477e-06
-2.29258e-05
-2.4285e-06
-2.16657e-05
-2.51942e-06
-2.03839e-05
-2.56324e-06
-1.90899e-05
-2.58813e-06
-1.77793e-05
-2.62153e-06
-1.644e-05
-2.67905e-06
-1.50517e-05
-2.7772e-06
-1.35904e-05
-2.9235e-06
-1.2027e-05
-3.12765e-06
-1.03361e-05
-3.38271e-06
-8.49151e-06
-3.68998e-06
-6.4731e-06
-4.03751e-06
-4.27042e-06
-4.40573e-06
-1.87673e-06
-4.78682e-06
6.92369e-07
-5.1383e-06
3.46104e-06
-5.53626e-06
6.39457e-06
-5.86654e-06
9.46208e-06
-6.13534e-06
1.2631e-05
-6.3361e-06
1.58674e-05
-6.47179e-06
1.91189e-05
-6.50201e-06
2.23652e-05
-6.49179e-06
2.55408e-05
-6.3507e-06
2.86138e-05
-6.14358e-06
3.15642e-05
-5.90114e-06
3.43235e-05
-5.51924e-06
3.68594e-05
-5.06499e-06
3.91506e-05
-4.5843e-06
4.11529e-05
-4.00637e-06
4.28359e-05
-3.36626e-06
4.41897e-05
-2.70736e-06
4.51987e-05
-2.01779e-06
4.58376e-05
-1.27822e-06
4.61261e-05
-5.77757e-07
4.60623e-05
1.25688e-07
4.56669e-05
7.88106e-07
4.49644e-05
1.40309e-06
4.3988e-05
1.95095e-06
4.27744e-05
2.42456e-06
4.13668e-05
2.81302e-06
3.98118e-05
3.10911e-06
3.81463e-05
3.33007e-06
3.64059e-05
3.47904e-06
3.46199e-05
3.5714e-06
3.28155e-05
3.60903e-06
3.10146e-05
3.60279e-06
2.92029e-05
3.62208e-06
2.73991e-05
3.61551e-06
2.55885e-05
3.61501e-06
2.37678e-05
3.64394e-06
2.1912e-05
3.71404e-06
2.00243e-05
3.77992e-06
1.80745e-05
3.89834e-06
1.60634e-05
4.02402e-06
1.39808e-05
4.16384e-06
1.18227e-05
4.31948e-06
9.58882e-06
4.47002e-06
7.27587e-06
4.62766e-06
4.90022e-06
4.75102e-06
2.46815e-06
4.86499e-06
-5.08772e-09
4.9475e-06
-2.49836e-06
4.98677e-06
-4.98605e-06
4.97525e-06
-7.44203e-06
4.91151e-06
-9.82865e-06
4.77291e-06
-1.21093e-05
4.56185e-06
-1.42518e-05
4.28386e-06
-1.62057e-05
3.90678e-06
-1.79354e-05
3.45854e-06
-1.93998e-05
2.92792e-06
-2.05694e-05
2.33961e-06
-2.14097e-05
1.68305e-06
-2.19121e-05
1.00299e-06
-2.20588e-05
2.93448e-07
-2.18491e-05
-4.17174e-07
-2.12901e-05
-1.11776e-06
-2.0393e-05
-1.79211e-06
-1.91736e-05
-2.43691e-06
-1.76614e-05
-3.02325e-06
-1.58823e-05
-3.55664e-06
-1.38692e-05
-4.02548e-06
-1.16539e-05
-4.42801e-06
-9.2723e-06
-4.76127e-06
-6.76746e-06
-5.00862e-06
-4.1655e-06
-5.20243e-06
-1.50573e-06
-5.31854e-06
1.17821e-06
-5.36717e-06
3.86519e-06
-5.37455e-06
6.52126e-06
-5.3111e-06
9.13119e-06
-5.21941e-06
1.16866e-05
-5.11128e-06
1.41534e-05
-4.93476e-06
1.65359e-05
-4.76553e-06
1.88316e-05
-4.59193e-06
2.10215e-05
-4.38033e-06
2.31146e-05
-4.18812e-06
2.51161e-05
-4.00471e-06
2.70308e-05
-3.83122e-06
2.88597e-05
-3.65934e-06
3.06262e-05
-3.53382e-06
3.23239e-05
-3.3977e-06
3.39727e-05
-3.29906e-06
3.55785e-05
-3.21253e-06
3.71262e-05
-3.09614e-06
3.86336e-05
-3.01537e-06
4.00675e-05
-2.86927e-06
4.14271e-05
-2.71741e-06
4.26631e-05
-2.47216e-06
4.37617e-05
-2.196e-06
4.46757e-05
-1.82795e-06
4.53771e-05
-1.40192e-06
4.58268e-05
-8.98702e-07
4.59913e-05
-3.28711e-07
4.58466e-05
2.88824e-07
4.53712e-05
9.53791e-07
4.45557e-05
1.62762e-06
4.33947e-05
2.32126e-06
4.18984e-05
2.99185e-06
4.00872e-05
3.62139e-06
3.79755e-05
4.22239e-06
3.56016e-05
4.74495e-06
3.29984e-05
5.20554e-06
3.02057e-05
5.58383e-06
2.72675e-05
5.87503e-06
2.4215e-05
6.10278e-06
2.10924e-05
6.24461e-06
1.7939e-05
6.30563e-06
1.47824e-05
6.31306e-06
1.16606e-05
6.24314e-06
8.59297e-06
6.13403e-06
5.60973e-06
5.96627e-06
2.7268e-06
5.76602e-06
-4.11207e-08
5.53802e-06
-2.67691e-06
5.27251e-06
-5.16694e-06
4.97945e-06
-7.50301e-06
4.67241e-06
-9.67304e-06
4.34091e-06
-1.16672e-05
3.98854e-06
-1.34757e-05
3.6174e-06
-1.50977e-05
3.24483e-06
-1.65128e-05
2.83071e-06
-1.77269e-05
2.42815e-06
-1.87173e-05
1.98151e-06
-1.94848e-05
1.53768e-06
-2.00222e-05
1.07547e-06
-2.03219e-05
5.99063e-07
-2.03869e-05
1.29882e-07
-2.02053e-05
-3.61911e-07
-1.97807e-05
-8.45828e-07
-1.91176e-05
-1.32813e-06
-1.82171e-05
-1.79983e-06
-1.70873e-05
-2.25825e-06
-1.57386e-05
-2.69726e-06
-1.41807e-05
-3.11383e-06
-1.24326e-05
-3.49558e-06
-1.05093e-05
-3.84604e-06
-8.431e-06
-4.15537e-06
-6.21951e-06
-4.42211e-06
-3.89844e-06
-4.64149e-06
-1.49025e-06
-4.81532e-06
9.80474e-07
-4.94025e-06
3.49013e-06
-5.02023e-06
6.01532e-06
-5.04857e-06
8.53469e-06
-5.03831e-06
1.10318e-05
-4.99351e-06
1.34933e-05
-4.92312e-06
1.58899e-05
-4.79361e-06
1.82243e-05
-4.66894e-06
2.04867e-05
-4.52563e-06
2.26706e-05
-4.36831e-06
2.47742e-05
-4.20788e-06
2.67946e-05
-4.04154e-06
2.87366e-05
-3.88418e-06
3.05988e-05
-3.72568e-06
3.23816e-05
-3.5667e-06
3.4094e-05
-3.4257e-06
3.57304e-05
-3.2736e-06
3.72963e-05
-3.1329e-06
3.87826e-05
-2.9735e-06
4.0195e-05
-2.82442e-06
4.15199e-05
-2.65006e-06
4.27482e-05
-2.45709e-06
4.38716e-05
-2.24682e-06
4.4875e-05
-2.00655e-06
4.57365e-05
-1.72277e-06
4.64446e-05
-1.41651e-06
4.69747e-05
-1.05934e-06
4.73101e-05
-6.69839e-07
4.74371e-05
-2.5386e-07
4.73179e-05
2.38862e-07
4.69496e-05
7.37488e-07
4.63102e-05
1.27866e-06
4.53893e-05
1.84464e-06
4.41754e-05
2.42583e-06
4.26621e-05
3.0272e-06
4.08451e-05
3.63441e-06
3.87259e-05
4.23727e-06
3.63134e-05
4.82526e-06
3.36176e-05
5.39156e-06
3.06579e-05
5.91804e-06
2.74638e-05
6.3868e-06
2.40421e-05
6.84251e-06
2.04464e-05
7.19029e-06
1.67099e-05
7.47201e-06
1.28768e-05
7.66457e-06
8.98489e-06
7.78117e-06
5.09181e-06
7.78465e-06
1.22109e-06
7.74237e-06
-2.58362e-06
7.60477e-06
-6.25765e-06
7.34542e-06
-9.7471e-06
6.97758e-06
-1.30131e-05
6.53027e-06
-1.60201e-05
6.01134e-06
-1.87242e-05
5.40673e-06
-2.10918e-05
4.73328e-06
-2.31075e-05
4.03009e-06
-2.47458e-05
3.27474e-06
-2.59907e-05
2.48834e-06
-2.68453e-05
1.70932e-06
-2.73298e-05
9.69664e-07
-2.74434e-05
2.27863e-07
-2.71486e-05
-5.88605e-07
-2.64977e-05
-1.30101e-06
-2.55216e-05
-1.95071e-06
-2.42601e-05
-2.52147e-06
-2.27484e-05
-3.02124e-06
-2.10312e-05
-3.43238e-06
-1.9162e-05
-3.73609e-06
-1.71729e-05
-3.97618e-06
-1.51319e-05
-4.07902e-06
-1.30586e-05
-4.14474e-06
-1.10234e-05
-4.0678e-06
-9.03965e-06
-3.96481e-06
-7.15815e-06
-3.76322e-06
-5.40827e-06
-3.49634e-06
-3.81048e-06
-3.19467e-06
-2.37709e-06
-2.86385e-06
-1.1409e-06
-2.4734e-06
-1.32088e-07
-2.01654e-06
7.18303e-07
-1.70106e-06
1.38711e-06
-1.33777e-06
1.886e-06
-9.98136e-07
2.23089e-06
-6.90324e-07
2.44112e-06
-4.21141e-07
2.53984e-06
-1.98194e-07
2.54748e-06
-1.61683e-08
2.47897e-06
1.36224e-07
2.35538e-06
2.46413e-07
2.19391e-06
3.22247e-07
2.00916e-06
3.68915e-07
1.81307e-06
3.9167e-07
1.61507e-06
3.95562e-07
1.42228e-06
3.85244e-07
1.23974e-06
3.64825e-07
1.07074e-06
3.37792e-07
9.17178e-07
3.06986e-07
7.79814e-07
2.7463e-07
6.58587e-07
2.4239e-07
5.52846e-07
2.11445e-07
4.61552e-07
1.82573e-07
3.83434e-07
1.56232e-07
3.17121e-07
1.32634e-07
2.61221e-07
1.11811e-07
2.14394e-07
9.36708e-08
1.75383e-07
7.80391e-08
1.43045e-07
6.46955e-08
1.16354e-07
5.33978e-08
9.44121e-08
4.39002e-08
7.64365e-08
3.59657e-08
6.17565e-08
2.93731e-08
4.98013e-08
2.39218e-08
4.00896e-08
1.94333e-08
3.22181e-08
1.57515e-08
2.5851e-08
1.27415e-08
2.07102e-08
1.02879e-08
1.65663e-08
8.29317e-09
1.32308e-08
6.67539e-09
1.05496e-08
5.36616e-09
8.39674e-09
4.30875e-09
6.66988e-09
3.45633e-09
5.28578e-09
2.77039e-09
4.17698e-09
2.21943e-09
3.28889e-09
1.7777e-09
2.5774e-09
1.42426e-09
2.00687e-09
1.14214e-09
1.54855e-09
9.17562e-10
1.17923e-09
7.39429e-10
8.80176e-10
5.98781e-10
6.36266e-10
4.88408e-10
4.3528e-10
4.02504e-10
2.6733e-10
3.36393e-10
1.2441e-10
2.86301e-10
2.49123e-10
-0.000152655
-1.6297e-05
-0.000146117
-1.96272e-05
-0.000138602
-2.25588e-05
-0.00013006
-2.5633e-05
-0.000120273
-2.93711e-05
-0.000109408
-3.26056e-05
-9.72711e-05
-3.63924e-05
-8.4132e-05
-3.94143e-05
-6.99501e-05
-4.25456e-05
-5.47252e-05
-4.56258e-05
-3.85989e-05
-4.83235e-05
-2.17558e-05
-5.05225e-05
-4.10007e-06
-5.2942e-05
1.40528e-05
-5.43594e-05
3.26232e-05
-5.564e-05
5.12634e-05
-5.58668e-05
6.96034e-05
-5.49847e-05
8.75196e-05
-5.37229e-05
0.000104755
-5.16607e-05
0.000120881
-4.83367e-05
0.000135632
-4.41872e-05
0.000148714
-3.91822e-05
0.000159808
-3.32236e-05
0.000168636
-2.6437e-05
0.00017493
-1.885e-05
0.000178482
-1.06435e-05
0.000179205
-2.18908e-06
0.000177541
4.92788e-06
0.000173398
1.24013e-05
0.000166808
1.97292e-05
0.000157887
2.67049e-05
0.000147199
3.19951e-05
0.000134823
3.70507e-05
0.000121386
4.02297e-05
0.000107047
4.29352e-05
9.21685e-05
4.45448e-05
7.72885e-05
4.45684e-05
6.25567e-05
4.41292e-05
4.83089e-05
4.26822e-05
3.46425e-05
4.09736e-05
2.19956e-05
3.78977e-05
1.02677e-05
3.51918e-05
-8.27807e-08
3.10493e-05
-8.82508e-06
2.6218e-05
-1.61421e-05
2.19607e-05
-2.21255e-05
1.79647e-05
-2.68487e-05
1.41894e-05
-3.03887e-05
1.06362e-05
-3.28534e-05
7.39612e-06
-3.43728e-05
4.57627e-06
-3.50887e-05
2.1737e-06
-3.51869e-05
3.1102e-07
-3.49517e-05
-6.93345e-07
-3.44669e-05
-1.44048e-06
-3.37775e-05
-2.05346e-06
-3.29218e-05
-2.55224e-06
-3.19569e-05
-2.88025e-06
-3.09194e-05
-3.09939e-06
-2.98298e-05
-3.25693e-06
-2.87159e-05
-3.33184e-06
-2.75856e-05
-3.38214e-06
-2.64479e-05
-3.40601e-06
-2.5303e-05
-3.42878e-06
-2.41335e-05
-3.50433e-06
-2.29179e-05
-3.64415e-06
-2.16574e-05
-3.77986e-06
-2.03758e-05
-3.84486e-06
-1.90829e-05
-3.88104e-06
-1.77743e-05
-3.9301e-06
-1.64375e-05
-4.01587e-06
-1.50518e-05
-4.16294e-06
-1.35938e-05
-4.38147e-06
-1.20337e-05
-4.68775e-06
-1.03458e-05
-5.0706e-06
-8.50442e-06
-5.53139e-06
-6.48863e-06
-6.0533e-06
-4.28754e-06
-6.60683e-06
-1.89347e-06
-7.18089e-06
6.71361e-07
-7.70313e-06
3.44057e-06
-8.30547e-06
6.37629e-06
-8.80227e-06
9.44513e-06
-9.20418e-06
1.26168e-05
-9.50773e-06
1.58568e-05
-9.71187e-06
1.91139e-05
-9.75909e-06
2.23634e-05
-9.74128e-06
2.55426e-05
-9.52991e-06
2.86209e-05
-9.22191e-06
3.15753e-05
-8.85551e-06
3.43377e-05
-8.28164e-06
3.68794e-05
-7.60667e-06
3.91727e-05
-6.87765e-06
4.11766e-05
-6.0102e-06
4.28609e-05
-5.05063e-06
4.42169e-05
-4.0633e-06
4.52263e-05
-3.02719e-06
4.58647e-05
-1.91668e-06
4.61511e-05
-8.64178e-07
4.60861e-05
1.9071e-07
4.56884e-05
1.18584e-06
4.49829e-05
2.10853e-06
4.40038e-05
2.93005e-06
4.27876e-05
3.64079e-06
4.13768e-05
4.22378e-06
3.98181e-05
4.6679e-06
3.81494e-05
4.99874e-06
3.64067e-05
5.22176e-06
3.46192e-05
5.35883e-06
3.28139e-05
5.41439e-06
3.10122e-05
5.40443e-06
2.91999e-05
5.43433e-06
2.73968e-05
5.41867e-06
2.55874e-05
5.42439e-06
2.37678e-05
5.46354e-06
2.19135e-05
5.56837e-06
2.00268e-05
5.66656e-06
1.80778e-05
5.84732e-06
1.60678e-05
6.03406e-06
1.39855e-05
6.24617e-06
1.18269e-05
6.47807e-06
9.59231e-06
6.70458e-06
7.28016e-06
6.9398e-06
4.90381e-06
7.12735e-06
2.47035e-06
7.29845e-06
-4.93859e-09
7.42279e-06
-2.5001e-06
7.48193e-06
-4.98985e-06
7.465e-06
-7.44808e-06
7.36974e-06
-9.83784e-06
7.16266e-06
-1.21217e-05
6.84566e-06
-1.42672e-05
6.42936e-06
-1.62251e-05
5.86472e-06
-1.79579e-05
5.19136e-06
-1.94232e-05
4.39314e-06
-2.05949e-05
3.51139e-06
-2.14383e-05
2.52643e-06
-2.19408e-05
1.50545e-06
-2.20869e-05
4.39567e-07
-2.18776e-05
-6.26479e-07
-2.13167e-05
-1.67866e-06
-2.04185e-05
-2.69029e-06
-1.91971e-05
-3.65838e-06
-1.76831e-05
-4.53722e-06
-1.59007e-05
-5.33908e-06
-1.3885e-05
-6.04113e-06
-1.16661e-05
-6.64696e-06
-9.28291e-06
-7.14444e-06
-6.77488e-06
-7.51665e-06
-4.16873e-06
-7.80859e-06
-1.50801e-06
-7.97926e-06
1.17798e-06
-8.05316e-06
3.86788e-06
-8.06445e-06
6.52548e-06
-7.96871e-06
9.13681e-06
-7.83074e-06
1.16916e-05
-7.66602e-06
1.41599e-05
-7.40313e-06
1.6543e-05
-7.14857e-06
1.8839e-05
-6.88802e-06
2.10292e-05
-6.57047e-06
2.31223e-05
-6.28128e-06
2.51242e-05
-6.00659e-06
2.7037e-05
-5.744e-06
2.88652e-05
-5.4875e-06
3.06302e-05
-5.29891e-06
3.2327e-05
-5.09447e-06
3.39761e-05
-4.94815e-06
3.55834e-05
-4.8198e-06
3.71307e-05
-4.64348e-06
3.86382e-05
-4.52286e-06
4.00741e-05
-4.30514e-06
4.14344e-05
-4.07771e-06
4.26727e-05
-3.71049e-06
4.37754e-05
-3.29867e-06
4.46922e-05
-2.74477e-06
4.53957e-05
-2.10546e-06
4.58481e-05
-1.35102e-06
4.60152e-05
-4.95847e-07
4.58718e-05
4.32244e-07
4.54005e-05
1.42501e-06
4.45816e-05
2.4466e-06
4.34192e-05
3.48362e-06
4.1922e-05
4.48901e-06
4.01093e-05
5.43409e-06
3.79948e-05
6.33693e-06
3.56182e-05
7.12157e-06
3.30123e-05
7.81135e-06
3.02159e-05
8.38025e-06
2.72749e-05
8.81608e-06
2.42187e-05
9.15897e-06
2.10937e-05
9.3696e-06
1.79376e-05
9.46172e-06
1.4779e-05
9.47162e-06
1.16557e-05
9.3664e-06
8.58595e-06
9.20382e-06
5.60074e-06
8.95148e-06
2.71561e-06
8.65114e-06
-5.24364e-08
8.30607e-06
-2.68874e-06
7.90881e-06
-5.17983e-06
7.47054e-06
-7.51747e-06
7.01004e-06
-9.68815e-06
6.51159e-06
-1.16824e-05
5.98276e-06
-1.3491e-05
5.42597e-06
-1.51149e-05
4.86877e-06
-1.65303e-05
4.24615e-06
-1.77431e-05
3.64096e-06
-1.87355e-05
2.9739e-06
-1.95047e-05
2.30687e-06
-2.00416e-05
1.61228e-06
-2.03413e-05
8.98835e-07
-2.04056e-05
1.94116e-07
-2.02248e-05
-5.42699e-07
-1.98008e-05
-1.26981e-06
-1.91365e-05
-1.99247e-06
-1.82351e-05
-2.70122e-06
-1.71047e-05
-3.38857e-06
-1.5755e-05
-4.04702e-06
-1.41967e-05
-4.67207e-06
-1.24467e-05
-5.24566e-06
-1.05217e-05
-5.77102e-06
-8.442e-06
-6.23506e-06
-6.22852e-06
-6.6356e-06
-3.90485e-06
-6.96516e-06
-1.49465e-06
-7.22553e-06
9.7734e-07
-7.41223e-06
3.48892e-06
-7.5318e-06
6.01525e-06
-7.5749e-06
8.53629e-06
-7.55935e-06
1.10362e-05
-7.49339e-06
1.34978e-05
-7.38471e-06
1.58946e-05
-7.19046e-06
1.82299e-05
-7.00419e-06
2.0493e-05
-6.7888e-06
2.26771e-05
-6.55237e-06
2.47803e-05
-6.31104e-06
2.68006e-05
-6.06186e-06
2.87444e-05
-5.82803e-06
3.06051e-05
-5.5863e-06
3.23871e-05
-5.34879e-06
3.40999e-05
-5.13844e-06
3.57358e-05
-4.9095e-06
3.73019e-05
-4.69904e-06
3.87888e-05
-4.46035e-06
4.02012e-05
-4.23686e-06
4.1527e-05
-3.97585e-06
4.27563e-05
-3.68634e-06
4.38807e-05
-3.37125e-06
4.48853e-05
-3.01114e-06
4.57484e-05
-2.58586e-06
4.64584e-05
-2.12654e-06
4.69899e-05
-1.59085e-06
4.73267e-05
-1.00664e-06
4.74554e-05
-3.82552e-07
4.73367e-05
3.57532e-07
4.69694e-05
1.10482e-06
4.63319e-05
1.91609e-06
4.54126e-05
2.76401e-06
4.41981e-05
3.64033e-06
4.26844e-05
4.54085e-06
4.08676e-05
5.45124e-06
3.87481e-05
6.35677e-06
3.63342e-05
7.23912e-06
3.3638e-05
8.0877e-06
3.06756e-05
8.88044e-06
2.74788e-05
9.58366e-06
2.40561e-05
1.02652e-05
2.04557e-05
1.07907e-05
1.67152e-05
1.12125e-05
1.28795e-05
1.15003e-05
8.98376e-06
1.16769e-05
5.08619e-06
1.16822e-05
1.21385e-06
1.16147e-05
-2.59684e-06
1.14154e-05
-6.2745e-06
1.10231e-05
-9.7685e-06
1.04716e-05
-1.30386e-05
9.80032e-06
-1.60491e-05
9.02192e-06
-1.87562e-05
8.11381e-06
-2.11264e-05
7.1034e-06
-2.31454e-05
6.04907e-06
-2.47866e-05
4.91595e-06
-2.60328e-05
3.7346e-06
-2.68883e-05
2.56482e-06
-2.73718e-05
1.45312e-06
-2.74821e-05
3.38175e-07
-2.71839e-05
-8.86803e-07
-2.65307e-05
-1.95424e-06
-2.55513e-05
-2.93011e-06
-2.42865e-05
-3.78629e-06
-2.27711e-05
-4.53666e-06
-2.10497e-05
-5.15373e-06
-1.91761e-05
-5.60972e-06
-1.71834e-05
-5.96885e-06
-1.51373e-05
-6.1252e-06
-1.30611e-05
-6.22094e-06
-1.10213e-05
-6.1076e-06
-9.03324e-06
-5.95283e-06
-7.15326e-06
-5.64319e-06
-5.39691e-06
-5.25269e-06
-3.79792e-06
-4.79366e-06
-2.36006e-06
-4.30171e-06
-1.12707e-06
-3.70639e-06
-1.15228e-07
-3.02838e-06
7.34344e-07
-2.55064e-06
1.40247e-06
-2.0059e-06
1.90037e-06
-1.49603e-06
2.24394e-06
-1.0339e-06
2.45269e-06
-6.29881e-07
2.54989e-06
-2.95399e-07
2.55582e-06
-2.20939e-08
2.48571e-06
2.06338e-07
2.36065e-06
3.71471e-07
2.19789e-06
4.8501e-07
2.01202e-06
5.54788e-07
1.81501e-06
5.88689e-07
1.61627e-06
5.94303e-07
1.42289e-06
5.7862e-07
1.23991e-06
5.47809e-07
1.0706e-06
5.07103e-07
9.16826e-07
4.60765e-07
7.7933e-07
4.12128e-07
6.58033e-07
3.63688e-07
5.52268e-07
3.17212e-07
4.60981e-07
2.73862e-07
3.82893e-07
2.34322e-07
3.16622e-07
1.98907e-07
2.60772e-07
1.67663e-07
2.13996e-07
1.40448e-07
1.75036e-07
1.17001e-07
1.42745e-07
9.69877e-08
1.16099e-07
8.00454e-08
9.41958e-08
6.58041e-08
7.6255e-08
5.39076e-08
6.16051e-08
4.40239e-08
4.96758e-08
3.5852e-08
3.99861e-08
2.91239e-08
3.21332e-08
2.36053e-08
2.57816e-08
1.90938e-08
2.06536e-08
1.54165e-08
1.65203e-08
1.24271e-08
1.31936e-08
1.00026e-08
1.05196e-08
8.04066e-09
8.37262e-09
6.45611e-09
6.65055e-09
5.17878e-09
5.27033e-09
4.15095e-09
4.16469e-09
3.32539e-09
3.27915e-09
2.66351e-09
2.56973e-09
2.13394e-09
2.00087e-09
1.71122e-09
1.5439e-09
1.37474e-09
1.17567e-09
1.10785e-09
8.77514e-10
8.97121e-10
6.34338e-10
7.31754e-10
4.33959e-10
6.03054e-10
2.66519e-10
5.04009e-10
1.24034e-10
4.28955e-10
3.73221e-10
-0.000152773
-2.17206e-05
-0.000146239
-2.61611e-05
-0.000138729
-3.00697e-05
-0.000130191
-3.41719e-05
-0.000120406
-3.91564e-05
-0.000109548
-4.34651e-05
-9.73979e-05
-4.85429e-05
-8.42602e-05
-5.25528e-05
-7.00776e-05
-5.67291e-05
-5.48083e-05
-6.08959e-05
-3.86485e-05
-6.44842e-05
-2.18061e-05
-6.73658e-05
-4.1384e-06
-7.06105e-05
1.40757e-05
-7.25744e-05
3.26817e-05
-7.42469e-05
5.135e-05
-7.45361e-05
6.97234e-05
-7.33591e-05
8.76685e-05
-7.1669e-05
0.000104941
-6.89336e-05
0.000121096
-6.44926e-05
0.000135879
-5.89713e-05
0.00014899
-5.22936e-05
0.000160107
-4.43414e-05
0.00016896
-3.52909e-05
0.000175276
-2.51665e-05
0.000178845
-1.42141e-05
0.000179557
-2.90138e-06
0.000177848
6.63574e-06
0.000173687
1.65617e-05
0.000167073
2.63424e-05
0.000158118
3.56594e-05
0.000147391
4.27222e-05
0.000134969
4.94719e-05
0.000121484
5.37139e-05
0.000107097
5.73222e-05
9.21661e-05
5.94748e-05
7.7244e-05
5.949e-05
6.24766e-05
5.88962e-05
4.81905e-05
5.69679e-05
3.45108e-05
5.4653e-05
2.18371e-05
5.05712e-05
1.01187e-05
4.691e-05
-2.32189e-07
4.14e-05
-8.97983e-06
3.49655e-05
-1.62912e-05
2.92719e-05
-2.22626e-05
2.3936e-05
-2.69733e-05
1.89e-05
-3.05055e-05
1.41683e-05
-3.29632e-05
9.85372e-06
-3.44706e-05
6.08366e-06
-3.51715e-05
2.87453e-06
-3.52592e-05
3.98634e-07
-3.50159e-05
-9.36661e-07
-3.4522e-05
-1.93445e-06
-3.38231e-05
-2.75235e-06
-3.29579e-05
-3.41745e-06
-3.1984e-05
-3.85417e-06
-3.09381e-05
-4.14531e-06
-2.98411e-05
-4.35397e-06
-2.87208e-05
-4.45218e-06
-2.75852e-05
-4.5177e-06
-2.64433e-05
-4.54795e-06
-2.52952e-05
-4.57684e-06
-2.41232e-05
-4.67639e-06
-2.29058e-05
-4.86152e-06
-2.16449e-05
-5.04083e-06
-2.03639e-05
-5.12581e-06
-1.90727e-05
-5.17223e-06
-1.77668e-05
-5.23601e-06
-1.64337e-05
-5.34901e-06
-1.50523e-05
-5.54434e-06
-1.3599e-05
-5.83473e-06
-1.20438e-05
-6.24294e-06
-1.03609e-05
-6.75357e-06
-8.52393e-06
-7.36832e-06
-6.51189e-06
-8.06534e-06
-4.31349e-06
-8.80523e-06
-1.91882e-06
-9.57557e-06
6.40046e-07
-1.0262e-05
3.41004e-06
-1.10755e-05
6.3484e-06
-1.17406e-05
9.41982e-06
-1.22756e-05
1.25969e-05
-1.26848e-05
1.58421e-05
-1.29571e-05
1.91065e-05
-1.30235e-05
2.23616e-05
-1.29964e-05
2.5547e-05
-1.27152e-05
2.86334e-05
-1.23083e-05
3.15941e-05
-1.18163e-05
3.4361e-05
-1.10485e-05
3.69108e-05
-1.01564e-05
3.92063e-05
-9.17318e-06
4.12143e-05
-8.01821e-06
4.29021e-05
-6.73845e-06
4.42581e-05
-5.41926e-06
4.52703e-05
-4.0394e-06
4.59081e-05
-2.55454e-06
4.61932e-05
-1.14924e-06
4.61248e-05
2.59128e-07
4.57229e-05
1.58766e-06
4.50136e-05
2.81781e-06
4.40299e-05
3.91374e-06
4.28089e-05
4.86179e-06
4.1393e-05
5.63971e-06
3.98295e-05
6.23138e-06
3.81559e-05
6.67231e-06
3.64094e-05
6.96831e-06
3.46195e-05
7.1487e-06
3.28129e-05
7.22104e-06
3.10095e-05
7.2078e-06
2.91972e-05
7.24666e-06