/*--------------------------------*- C++ -*----------------------------------*\
| =========                 |                                                 |
| \\      /  F ield         | OpenFOAM: The Open Source CFD Toolbox           |
|  \\    /   O peration     | Version:  3.0.1                                 |
|   \\  /    A nd           | Web:      www.OpenFOAM.org                      |
|    \\/     M anipulation  |                                                 |
\*---------------------------------------------------------------------------*/
FoamFile
{
    version     2.0;
    format      ascii;
    class       surfaceScalarField;
    location    "73.2";
    object      phi;
}
// * * * * * * * * * * * * * * * * * * * * * * * * * * * * * * * * * * * * * //

dimensions      [0 3 -1 0 0 0 0];

internalField   nonuniform List<scalar> 
42423
(
-5.21173e-05
-1.42752e-05
-3.65987e-05
-1.55187e-05
-2.00401e-05
-1.65588e-05
-2.62335e-06
-1.74168e-05
1.54719e-05
-1.80954e-05
3.40126e-05
-1.85408e-05
5.30977e-05
-1.90852e-05
7.22908e-05
-1.91932e-05
9.12748e-05
-1.89841e-05
0.000109983
-1.87085e-05
0.000128124
-1.81407e-05
0.000145324
-1.72008e-05
0.000161369
-1.60443e-05
0.000176021
-1.4652e-05
0.000189051
-1.30306e-05
0.000200216
-1.11645e-05
0.000209234
-9.01816e-06
0.000215965
-6.73132e-06
0.000220281
-4.31656e-06
0.000222122
-1.84055e-06
0.000221489
6.32975e-07
0.00021833
3.15849e-06
0.000212571
5.75933e-06
0.00020457
8.00081e-06
0.000194428
1.01423e-05
0.000182336
1.20917e-05
0.000168502
1.38337e-05
0.000153054
1.54478e-05
0.000136455
1.65993e-05
0.000118885
1.75703e-05
0.000100596
1.82886e-05
8.18726e-05
1.87233e-05
6.28296e-05
1.9043e-05
4.383e-05
1.89996e-05
2.49377e-05
1.88923e-05
6.4636e-06
1.84741e-05
-1.14028e-05
1.78664e-05
-2.86904e-05
1.72876e-05
-4.5222e-05
1.65316e-05
-6.09141e-05
1.56921e-05
-7.57191e-05
1.48049e-05
-8.95853e-05
1.38663e-05
-0.000102503
1.29174e-05
-0.000114452
1.19493e-05
-0.000125439
1.09866e-05
-0.000135476
1.00375e-05
-0.00014456
9.08362e-06
-0.000152721
8.16121e-06
-0.000160001
7.28005e-06
-0.000166386
6.38489e-06
-0.000171881
5.49478e-06
-0.000176568
4.68783e-06
-0.000180401
3.83245e-06
-0.000183472
3.07137e-06
-0.000185726
2.25343e-06
-0.000187189
1.46306e-06
-0.000187966
7.7716e-07
-0.000187905
-6.05977e-08
-0.00018704
-8.65039e-07
-0.00018539
-1.65006e-06
-0.000182902
-2.48787e-06
-0.000179628
-3.274e-06
-0.000175569
-4.05985e-06
-0.000170651
-4.91768e-06
-0.000164911
-5.74017e-06
-0.000158393
-6.51762e-06
-0.000150912
-7.48135e-06
-0.000142645
-8.26714e-06
-0.000133384
-9.26126e-06
-0.000123166
-1.02172e-05
-0.000112187
-1.09798e-05
-0.000100248
-1.19385e-05
-8.7448e-05
-1.28002e-05
-7.40612e-05
-1.33869e-05
-5.97571e-05
-1.43041e-05
-4.48432e-05
-1.4914e-05
-2.91942e-05
-1.56491e-05
-1.28879e-05
-1.63063e-05
3.79813e-06
-1.66861e-05
2.09021e-05
-1.71041e-05
3.8269e-05
-1.7367e-05
5.58422e-05
-1.75733e-05
7.34213e-05
-1.75792e-05
9.0918e-05
-1.74968e-05
0.000108124
-1.72061e-05
0.000124835
-1.67113e-05
0.000140942
-1.61073e-05
0.000156218
-1.52757e-05
0.000170445
-1.42271e-05
0.000183378
-1.2933e-05
0.000194787
-1.14095e-05
0.000204396
-9.60844e-06
0.000211974
-7.57816e-06
0.000217321
-5.34712e-06
0.000220294
-2.97346e-06
0.00022087
-5.7577e-07
0.00021897
1.90024e-06
0.000214551
4.41872e-06
0.000207777
6.77434e-06
0.000198782
8.9942e-06
0.000187663
1.11194e-05
0.00017468
1.29823e-05
0.000159998
1.46827e-05
0.000143886
1.61113e-05
0.000126541
1.73455e-05
0.000108182
1.83588e-05
8.91893e-05
1.89926e-05
6.97689e-05
1.94203e-05
5.01655e-05
1.96034e-05
3.07333e-05
1.94321e-05
1.1586e-05
1.91473e-05
-6.94429e-06
1.85303e-05
-2.4834e-05
1.78897e-05
-4.18042e-05
1.69702e-05
-5.78178e-05
1.60136e-05
-7.27223e-05
1.49045e-05
-8.66097e-05
1.38874e-05
-9.93177e-05
1.2708e-05
-0.000110936
1.16188e-05
-0.000121425
1.04884e-05
-0.000130836
9.41127e-06
-0.00013924
8.40427e-06
-0.000146622
7.38138e-06
-0.00015309
6.46789e-06
-0.000158614
5.52414e-06
-0.000163249
4.63469e-06
-0.000167081
3.83215e-06
-0.00017011
3.02891e-06
-0.000172365
2.25555e-06
-0.000173895
1.53006e-06
-0.000174793
8.97657e-07
-0.000174994
2.00978e-07
-0.000174559
-4.35176e-07
-0.000173555
-1.00348e-06
-0.000171919
-1.63627e-06
-0.000169706
-2.21311e-06
-0.000166988
-2.71766e-06
-0.00016364
-3.34845e-06
-0.000159776
-3.86393e-06
-0.00015532
-4.45617e-06
-0.000150276
-5.04405e-06
-0.00014462
-5.65525e-06
-0.000138305
-6.31578e-06
-0.000131395
-6.90933e-06
-0.000123761
-7.63451e-06
-0.000115375
-8.38557e-06
-0.000106323
-9.05235e-06
-9.64499e-05
-9.87326e-06
-8.57692e-05
-1.06807e-05
-7.42827e-05
-1.14866e-05
-6.19433e-05
-1.23394e-05
-4.88393e-05
-1.31041e-05
-3.49403e-05
-1.3899e-05
-2.035e-05
-1.45904e-05
-5.11431e-06
-1.52358e-05
1.06639e-05
-1.57783e-05
2.69161e-05
-1.62523e-05
4.34721e-05
-1.65561e-05
6.02125e-05
-1.67405e-05
7.69633e-05
-1.67509e-05
9.34864e-05
-1.65231e-05
0.000109635
-1.61492e-05
0.000125181
-1.55461e-05
0.000139898
-1.47166e-05
0.000153561
-1.36634e-05
0.00016594
-1.23785e-05
0.000176712
-1.07728e-05
0.000185767
-9.05506e-06
0.000192881
-7.11405e-06
0.000197885
-5.00345e-06
0.000200666
-2.78138e-06
0.000201182
-5.15927e-07
0.000199392
1.78971e-06
0.000195227
4.16474e-06
0.000188837
6.39062e-06
0.000180368
8.46848e-06
0.000169915
1.04532e-05
0.000157704
1.22109e-05
0.00014397
1.3734e-05
0.00012894
1.50301e-05
0.000112881
1.6059e-05
9.6038e-05
1.68427e-05
7.86511e-05
1.73869e-05
6.09889e-05
1.76621e-05
4.32499e-05
1.7739e-05
2.56233e-05
1.76265e-05
8.32076e-06
1.73025e-05
-8.56599e-06
1.68867e-05
-2.48231e-05
1.62571e-05
-4.03302e-05
1.55071e-05
-5.50072e-05
1.46769e-05
-6.86697e-05
1.36626e-05
-8.1332e-05
1.26623e-05
-9.30251e-05
1.1693e-05
-0.000103756
1.07305e-05
-0.00011355
9.7947e-06
-0.000122477
8.92709e-06
-0.000130605
8.12757e-06
-0.000137943
7.33828e-06
-0.000144559
6.61546e-06
-0.000150441
5.88219e-06
-0.000155553
5.11256e-06
-0.000159944
4.39019e-06
-0.000163517
3.57317e-06
-0.000166337
2.81997e-06
-0.00016846
2.12354e-06
-0.000169955
1.49456e-06
-0.000170858
9.0305e-07
-0.000171349
4.9049e-07
-0.000171392
4.36219e-08
-0.000171004
-3.88325e-07
-0.000170156
-8.48262e-07
-0.000169015
-1.14016e-06
-0.00016727
-1.74569e-06
-0.000165102
-2.16761e-06
-0.00016226
-2.84239e-06
-0.000158983
-3.27687e-06
-0.000155002
-3.98111e-06
-0.000150424
-4.57769e-06
-0.000145261
-5.16322e-06
-0.000139475
-5.78605e-06
-0.000133051
-6.42386e-06
-0.000125949
-7.10167e-06
-0.00011814
-7.80901e-06
-0.000109563
-8.57758e-06
-0.000100339
-9.22342e-06
-9.03212e-05
-1.00183e-05
-7.95304e-05
-1.07909e-05
-6.79726e-05
-1.15579e-05
-5.57299e-05
-1.22427e-05
-4.27608e-05
-1.29692e-05
-2.91406e-05
-1.36202e-05
-1.49192e-05
-1.42215e-05
-1.61481e-07
-1.47577e-05
1.50525e-05
-1.5214e-05
3.06185e-05
-1.55661e-05
4.64291e-05
-1.58106e-05
6.23463e-05
-1.59173e-05
7.82215e-05
-1.58753e-05
9.38517e-05
-1.56302e-05
0.00010905
-1.51983e-05
0.000123571
-1.45214e-05
0.000137165
-1.35943e-05
0.000149605
-1.24401e-05
0.000160622
-1.10163e-05
0.000169972
-9.35024e-06
0.000177468
-7.49658e-06
0.000182916
-5.44739e-06
0.000186181
-3.26539e-06
0.000187198
-1.01727e-06
0.000185953
1.24481e-06
0.000182401
3.55191e-06
0.000176666
5.73479e-06
0.000168789
7.87697e-06
0.000159007
9.7822e-06
0.000147435
1.15721e-05
0.000134286
1.31489e-05
0.000119763
1.45231e-05
0.000104108
1.56552e-05
8.74665e-05
1.66411e-05
7.01805e-05
1.7286e-05
5.24525e-05
1.77279e-05
3.4558e-05
1.78945e-05
1.66422e-05
1.79158e-05
-1.01456e-06
1.76567e-05
-1.8112e-05
1.70974e-05
-3.46169e-05
1.65049e-05
-5.0293e-05
1.5676e-05
-6.49492e-05
1.46562e-05
-7.86497e-05
1.37004e-05
-9.11882e-05
1.25386e-05
-0.000102624
1.14355e-05
-0.000112999
1.03757e-05
-0.000122214
9.21471e-06
-0.000130377
8.16229e-06
-0.000137518
7.14126e-06
-0.000143529
6.01144e-06
-0.000148563
5.03343e-06
-0.000152534
3.97154e-06
-0.000155552
3.01771e-06
-0.000157655
2.10258e-06
-0.000158913
1.25876e-06
-0.000159566
6.5304e-07
-0.000159528
-3.85347e-08
-0.000158981
-5.46741e-07
-0.000158107
-8.74299e-07
-0.000156899
-1.20747e-06
-0.000155344
-1.55521e-06
-0.00015362
-1.72397e-06
-0.00015158
-2.04031e-06
-0.00014939
-2.1899e-06
-0.000147047
-2.34247e-06
-0.000144343
-2.70495e-06
-0.000141317
-3.02589e-06
-0.000138005
-3.31164e-06
-0.000134217
-3.78814e-06
-0.00012996
-4.25659e-06
-0.000125078
-4.88212e-06
-0.000119445
-5.63363e-06
-0.000113128
-6.31703e-06
-0.000105843
-7.28511e-06
-9.76812e-05
-8.16133e-06
-8.85786e-05
-9.10266e-06
-7.82723e-05
-1.03063e-05
-6.68649e-05
-1.14074e-05
-5.45143e-05
-1.23507e-05
-4.10184e-05
-1.34959e-05
-2.63945e-05
-1.4624e-05
-1.07057e-05
-1.56888e-05
5.86552e-06
-1.65713e-05
2.30447e-05
-1.71793e-05
4.08421e-05
-1.77974e-05
5.90559e-05
-1.82138e-05
7.7329e-05
-1.82732e-05
9.55267e-05
-1.81978e-05
0.000113315
-1.77884e-05
0.00013053
-1.72149e-05
0.000146901
-1.63709e-05
0.000162037
-1.51366e-05
0.000175783
-1.37455e-05
0.000187872
-1.20898e-05
0.000198081
-1.02082e-05
0.000206332
-8.25193e-06
0.000212448
-6.11525e-06
0.000216312
-3.86469e-06
0.000217929
-1.61662e-06
0.00021725
6.78967e-07
0.000214307
2.9424e-06
0.000209161
5.14615e-06
0.000201883
7.27779e-06
0.000192882
9.00163e-06
0.000182203
1.06784e-05
0.000169996
1.22075e-05
0.00015663
1.33658e-05
0.000142232
1.43978e-05
0.000127005
1.5227e-05
0.000111109
1.58961e-05
9.47534e-05
1.63553e-05
7.81794e-05
1.6574e-05
6.14155e-05
1.67638e-05
4.45979e-05
1.68176e-05
2.80004e-05
1.65975e-05
1.16751e-05
1.63252e-05
-4.32843e-06
1.60035e-05
-1.99028e-05
1.55744e-05
-3.49364e-05
1.50336e-05
-4.93361e-05
1.43997e-05
-6.30767e-05
1.37405e-05
-7.60532e-05
1.29765e-05
-8.82095e-05
1.21563e-05
-9.9506e-05
1.12964e-05
-0.000109894
1.03883e-05
-0.000119366
9.47125e-06
-0.000127878
8.51277e-06
-0.000135413
7.53422e-06
-0.000141972
6.55972e-06
5.47469e-06
-5.21549e-05
-2.85511e-05
-3.66341e-05
-3.10397e-05
-2.0076e-05
-3.31172e-05
-2.65299e-06
-3.484e-05
1.54473e-05
-3.61959e-05
3.39994e-05
-3.70931e-05
5.30964e-05
-3.81824e-05
7.23041e-05
-3.84011e-05
9.12988e-05
-3.7979e-05
0.000110016
-3.74253e-05
0.000128169
-3.62943e-05
0.000145384
-3.44164e-05
0.000161449
-3.21089e-05
0.000176128
-2.9331e-05
0.000189163
-2.60664e-05
0.000200324
-2.23259e-05
0.000209351
-1.80449e-05
0.000216092
-1.34727e-05
0.000220423
-8.64747e-06
0.000222277
-3.69427e-06
0.000221627
1.28285e-06
0.00021845
6.33545e-06
0.000212689
1.15193e-05
0.000204679
1.60108e-05
0.000194526
2.02957e-05
0.000182428
2.41897e-05
0.000168583
2.76782e-05
0.000153126
3.09054e-05
0.000136511
3.32142e-05
0.000118926
3.51545e-05
0.000100625
3.65903e-05
8.18878e-05
3.746e-05
6.28405e-05
3.80902e-05
4.38323e-05
3.80077e-05
2.49362e-05
3.77883e-05
6.44665e-06
3.69636e-05
-1.14216e-05
3.57346e-05
-2.87151e-05
3.45811e-05
-4.52528e-05
3.30693e-05
-6.09495e-05
3.13888e-05
-7.57583e-05
2.96137e-05
-8.96295e-05
2.77374e-05
-0.000102552
2.584e-05
-0.000114502
2.38992e-05
-0.000125488
2.19729e-05
-0.000135531
2.00802e-05
-0.000144618
1.81702e-05
-0.00015278
1.63239e-05
-0.000160062
1.45616e-05
-0.000166447
1.27704e-05
-0.000171943
1.09905e-05
-0.000176632
9.3764e-06
-0.000180466
7.66686e-06
-0.00018354
6.14487e-06
-0.000185798
4.51135e-06
-0.00018726
2.92586e-06
-0.000188041
1.55762e-06
-0.000187982
-1.19946e-07
-0.00018711
-1.73699e-06
-0.000185463
-3.29678e-06
-0.000182973
-4.97803e-06
-0.000179699
-6.54751e-06
-0.000175644
-8.11535e-06
-0.000170722
-9.83934e-06
-0.000164979
-1.14837e-05
-0.000158465
-1.30309e-05
-0.000150982
-1.49651e-05
-0.000142716
-1.65331e-05
-0.000133452
-1.85254e-05
-0.000123229
-2.04398e-05
-0.000112241
-2.19677e-05
-0.000100307
-2.3873e-05
-8.75181e-05
-2.55894e-05
-7.41136e-05
-2.67915e-05
-5.98053e-05
-2.86125e-05
-4.48867e-05
-2.98327e-05
-2.92285e-05
-3.13075e-05
-1.29154e-05
-3.26195e-05
3.77481e-06
-3.33765e-05
2.08797e-05
-3.42092e-05
3.82532e-05
-3.47406e-05
5.58436e-05
-3.51639e-05
7.34319e-05
-3.51677e-05
9.09432e-05
-3.50082e-05
0.000108157
-3.44203e-05
0.000124888
-3.34418e-05
0.000141013
-3.22325e-05
0.000156295
-3.0558e-05
0.000170539
-2.84713e-05
0.000183495
-2.5889e-05
0.000194919
-2.28343e-05
0.000204549
-1.92382e-05
0.000212151
-1.51804e-05
0.000217512
-1.07081e-05
0.000220497
-5.9588e-06
0.000221062
-1.14047e-06
0.000219123
3.83917e-06
0.000214701
8.84018e-06
0.000207922
1.35535e-05
0.000198921
1.79951e-05
0.000187789
2.22509e-05
0.000174788
2.59832e-05
0.000160083
2.93879e-05
0.000143951
3.22437e-05
0.000126584
3.47121e-05
0.000108213
3.67302e-05
8.91987e-05
3.80065e-05
6.97739e-05
3.88451e-05
5.01502e-05
3.9227e-05
3.06925e-05
3.88898e-05
1.15473e-05
3.82925e-05
-7.00498e-06
3.70825e-05
-2.49099e-05
3.57946e-05
-4.1885e-05
3.39453e-05
-5.79006e-05
3.20291e-05
-7.28203e-05
2.98242e-05
-8.6707e-05
2.77741e-05
-9.94245e-05
2.54255e-05
-0.000111047
2.32409e-05
-0.000121545
2.09873e-05
-0.000130959
1.88245e-05
-0.000139365
1.68104e-05
-0.000146754
1.47706e-05
-0.000153228
1.29422e-05
-0.000158759
1.10551e-05
-0.000163401
9.27651e-06
-0.000167232
7.66336e-06
-0.000170264
6.06085e-06
-0.00017253
4.52114e-06
-0.000174072
3.07196e-06
-0.000174969
1.79511e-06
-0.000175179
4.10585e-07
-0.000174749
-8.65473e-07
-0.000173735
-2.01736e-06
-0.000172118
-3.25269e-06
-0.000169884
-4.44716e-06
-0.000167191
-5.4105e-06
-0.000163819
-6.72117e-06
-0.000159986
-7.69709e-06
-0.000155521
-8.92066e-06
-0.000150498
-1.00671e-05
-0.000144842
-1.13115e-05
-0.000138542
-1.26154e-05
-0.000131625
-1.38272e-05
-0.000123993
-1.52658e-05
-0.000115583
-1.67964e-05
-0.000106544
-1.80911e-05
-9.6665e-05
-1.97523e-05
-8.59771e-05
-2.13687e-05
-7.44638e-05
-2.3e-05
-6.2153e-05
-2.46504e-05
-4.90342e-05
-2.6223e-05
-3.51362e-05
-2.77971e-05
-2.04676e-05
-2.92592e-05
-5.28138e-06
-3.04222e-05
1.0511e-05
-3.15708e-05
2.67887e-05
-3.25302e-05
4.33651e-05
-3.31326e-05
6.01301e-05
-3.35057e-05
7.68909e-05
-3.35118e-05
9.34338e-05
-3.30663e-05
0.000109595
-3.23109e-05
0.000125164
-3.11147e-05
0.000139895
-2.94483e-05
0.000153575
-2.73427e-05
0.000165956
-2.47599e-05
0.000176751
-2.15679e-05
0.000185825
-1.81292e-05
0.000192947
-1.42364e-05
0.00019796
-1.00165e-05
0.000200757
-5.57903e-06
0.000201277
-1.03587e-06
0.000199476
3.59085e-06
0.00019531
8.33063e-06
0.000188916
1.27844e-05
0.000180437
1.69474e-05
0.000169977
2.09126e-05
0.000157762
2.44263e-05
0.000144016
2.74797e-05
0.00012897
3.00757e-05
0.000112895
3.21343e-05
9.60416e-05
3.36959e-05
7.86439e-05
3.47845e-05
6.09627e-05
3.53433e-05
4.32063e-05
3.54953e-05
2.55613e-05
3.52715e-05
8.24597e-06
3.46178e-05
-8.63553e-06
3.37682e-05
-2.49179e-05
3.25395e-05
-4.04196e-05
3.10087e-05
-5.51168e-05
2.93741e-05
-6.87887e-05
2.73344e-05
-8.14756e-05
2.53492e-05
-9.31703e-05
2.33878e-05
-0.000103899
2.14597e-05
-0.000113699
1.95941e-05
-0.000122632
1.78602e-05
-0.000130759
1.62541e-05
-0.000138109
1.46884e-05
-0.000144706
1.32132e-05
-0.000150626
1.18019e-05
-0.000155741
1.02277e-05
-0.000160132
8.78068e-06
-0.000163712
7.15338e-06
-0.000166539
5.64671e-06
-0.00016866
4.24447e-06
-0.000170168
3.00229e-06
-0.00017107
1.80527e-06
-0.000171504
9.25066e-07
-0.0001716
1.38953e-07
-0.000171222
-7.66407e-07
-0.00017041
-1.66004e-06
-0.00016923
-2.32032e-06
-0.00016751
-3.46508e-06
-0.000165325
-4.35316e-06
-0.000162523
-5.64388e-06
-0.000159193
-6.6075e-06
-0.000155206
-7.96833e-06
-0.000150641
-9.14239e-06
-0.000145465
-1.03389e-05
-0.000139659
-1.15926e-05
-0.000133252
-1.28309e-05
-0.000126154
-1.41999e-05
-0.000118334
-1.56286e-05
-0.000109802
-1.71099e-05
-0.000100524
-1.85019e-05
-9.04943e-05
-2.00476e-05
-7.96806e-05
-2.16047e-05
-6.81374e-05
-2.31012e-05
-5.58683e-05
-2.45119e-05
-4.28831e-05
-2.59545e-05
-2.92671e-05
-2.72364e-05
-1.50405e-05
-2.84483e-05
-2.70671e-07
-2.95277e-05
1.49726e-05
-3.04574e-05
3.05408e-05
-3.11345e-05
4.63648e-05
-3.16347e-05
6.23022e-05
-3.18549e-05
7.81879e-05
-3.17611e-05
9.38259e-05
-3.12684e-05
0.000109038
-3.0411e-05
0.00012358
-2.90628e-05
0.000137187
-2.72015e-05
0.000149634
-2.4887e-05
0.000160661
-2.20439e-05
0.000170032
-1.8721e-05
0.000177539
-1.50043e-05
0.000182983
-1.08911e-05
0.000186245
-6.52752e-06
0.000187255
-2.02783e-06
0.000186005
2.49512e-06
0.000182447
7.10997e-06
0.000176693
1.14882e-05
0.000168827
1.57427e-05
0.000159035
1.9574e-05
0.000147455
2.3152e-05
0.000134297
2.63069e-05
0.000119775
2.90457e-05
0.000104115
3.13145e-05
8.74626e-05
3.32938e-05
7.01709e-05
3.45776e-05
5.24388e-05
3.54599e-05
3.45281e-05
3.58052e-05
1.6607e-05
3.58368e-05
-1.06094e-06
3.53246e-05
-1.81719e-05
3.42084e-05
-3.46756e-05
3.30085e-05
-5.0354e-05
3.13544e-05
-6.50164e-05
2.93186e-05
-7.8718e-05
2.7402e-05
-9.12616e-05
2.50822e-05
-0.000102693
2.28671e-05
-0.000113076
2.07582e-05
-0.000122291
1.84298e-05
-0.000130454
1.63254e-05
-0.000137598
1.42853e-05
-0.000143606
1.20197e-05
-0.000148632
1.00594e-05
-0.000152615
7.95463e-06
-0.000155629
6.03149e-06
-0.000157734
4.20736e-06
-0.00015898
2.50519e-06
-0.000159627
1.29983e-06
-0.000159581
-8.43453e-08
-0.000159031
-1.09669e-06
-0.000158154
-1.75184e-06
-0.000156939
-2.42208e-06
-0.000155384
-3.11094e-06
-0.00015366
-3.44748e-06
-0.000151621
-4.07989e-06
-0.000149432
-4.37821e-06
-0.000147092
-4.68312e-06
-0.000144391
-5.40544e-06
-0.000141358
-6.05913e-06
-0.000138054
-6.61584e-06
-0.00013427
-7.5715e-06
-0.000130016
-8.51122e-06
-0.000125133
-9.76482e-06
-0.000119504
-1.12626e-05
-0.000113191
-1.26308e-05
-0.000105911
-1.4565e-05
-9.77469e-05
-1.63251e-05
-8.86311e-05
-1.82185e-05
-7.8336e-05
-2.06015e-05
-6.69289e-05
-2.28146e-05
-5.4587e-05
-2.46926e-05
-4.10791e-05
-2.7004e-05
-2.6444e-05
-2.92593e-05
-1.07505e-05
-3.13824e-05
5.82543e-06
-3.31474e-05
2.30128e-05
-3.43668e-05
4.08219e-05
-3.56067e-05
5.90481e-05
-3.64401e-05
7.73325e-05
-3.65577e-05
9.55473e-05
-3.64127e-05
0.000113349
-3.55903e-05
0.000130574
-3.44396e-05
0.000146957
-3.2754e-05
0.000162105
-3.02848e-05
0.000175869
-2.75102e-05
0.000187981
-2.42016e-05
0.000198193
-2.042e-05
0.000206443
-1.65026e-05
0.000212565
-1.22369e-05
0.000216447
-7.74682e-06
0.000218083
-3.25256e-06
0.000217383
1.37862e-06
0.000214414
5.91069e-06
0.000209266
1.02946e-05
0.00020198
1.45634e-05
0.000192969
1.80129e-05
0.000182283
2.1364e-05
0.000170065
2.4426e-05
0.000156688
2.6742e-05
0.00014228
2.88064e-05
0.000127046
3.04608e-05
0.000111144
3.17979e-05
9.47749e-05
3.27244e-05
7.81926e-05
3.31562e-05
6.14242e-05
3.35321e-05
4.46006e-05
3.36412e-05
2.79931e-05
3.3205e-05
1.16605e-05
3.26577e-05
-4.34235e-06
3.20064e-05
-1.9921e-05
3.1153e-05
-3.49589e-05
3.00714e-05
-4.93638e-05
2.88046e-05
-6.31086e-05
2.74853e-05
-7.60866e-05
2.59545e-05
-8.82434e-05
2.43131e-05
-9.95414e-05
2.25944e-05
-0.000109931
2.07776e-05
-0.000119403
1.89436e-05
-0.000127917
1.70266e-05
-0.000135452
1.50689e-05
-0.000142013
1.31214e-05
1.09477e-05
-5.22278e-05
-4.28303e-05
-3.6702e-05
-4.65657e-05
-2.01457e-05
-4.96737e-05
-2.71119e-06
-5.22748e-05
1.54092e-05
-5.43165e-05
3.39841e-05
-5.56683e-05
5.31053e-05
-5.73038e-05
7.23379e-05
-5.76339e-05
9.13563e-05
-5.69976e-05
0.0001101
-5.61692e-05
0.000128286
-5.44803e-05
0.000145533
-5.1664e-05
0.000161616
-4.81921e-05
0.000176302
-4.40163e-05
0.000189351
-3.91158e-05
0.000200539
-3.35137e-05
0.000209591
-2.70974e-05
0.000216346
-2.02279e-05
0.000220663
-1.29652e-05
0.000222512
-5.5425e-06
0.000221845
1.94947e-06
0.000218634
9.54618e-06
0.000212872
1.72815e-05
0.000204846
2.40362e-05
0.000194671
3.04712e-05
0.000182564
3.62958e-05
0.000168703
4.15392e-05
0.000153237
4.63716e-05
0.000136592
4.98595e-05
0.000118982
5.27637e-05
0.000100657
5.49156e-05
8.18952e-05
5.62217e-05
6.28434e-05
5.71421e-05
4.38212e-05
5.70298e-05
2.49289e-05
5.66806e-05
6.4066e-06
5.54859e-05
-1.14723e-05
5.36134e-05
-2.87772e-05
5.18861e-05
-4.53246e-05
4.96166e-05
-6.10277e-05
4.70919e-05
-7.5841e-05
4.44269e-05
-8.97144e-05
4.16108e-05
-0.000102638
3.87635e-05
-0.000114592
3.58531e-05
-0.000125578
3.2959e-05
-0.000135622
3.0124e-05
-0.000144707
2.72555e-05
-0.000152874
2.44905e-05
-0.000160155
2.18429e-05
-0.000166542
1.91573e-05
-0.000172039
1.64874e-05
-0.00017673
1.40675e-05
-0.000180563
1.14998e-05
-0.000183638
9.21973e-06
-0.000185901
6.7746e-06
-0.000187352
4.37698e-06
-0.00018812
2.32521e-06
-0.000188048
-1.91903e-07
-0.000187171
-2.61374e-06
-0.000185525
-4.94274e-06
-0.000183033
-7.47041e-06
-0.000179765
-9.81498e-06
-0.000175713
-1.21674e-05
-0.0001708
-1.47525e-05
-0.000165048
-1.72357e-05
-0.000158534
-1.95453e-05
-0.000151056
-2.24426e-05
-0.000142788
-2.48016e-05
-0.000133524
-2.77893e-05
-0.000123297
-3.06672e-05
-0.0001123
-3.29643e-05
-0.000100375
-3.57982e-05
-8.75945e-05
-3.83701e-05
-7.41782e-05
-4.02079e-05
-5.98642e-05
-4.29266e-05
-4.4941e-05
-4.4756e-05
-2.92768e-05
-4.69718e-05
-1.29533e-05
-4.89432e-05
3.73617e-06
-5.00661e-05
2.08485e-05
-5.13216e-05
3.82336e-05
-5.21259e-05
5.5836e-05
-5.27664e-05
7.34332e-05
-5.27651e-05
9.09606e-05
-5.25358e-05
0.000108199
-5.16588e-05
0.000124953
-5.01964e-05
0.000141086
-4.83655e-05
0.000156389
-4.58613e-05
0.000170646
-4.27278e-05
0.000183624
-3.88675e-05
0.000195071
-3.42813e-05
0.000204729
-2.88963e-05
0.000212342
-2.27934e-05
0.000217707
-1.60741e-05
0.000220693
-8.944e-06
0.000221222
-1.67018e-06
0.000219265
5.79615e-06
0.000214833
1.32722e-05
0.000208043
2.03433e-05
0.000198987
2.7051e-05
0.000187847
3.33907e-05
0.000174825
3.9005e-05
0.00016009
4.4123e-05
0.000143922
4.84123e-05
0.000126523
5.21103e-05
0.000108153
5.51007e-05
8.90987e-05
5.70604e-05
6.96268e-05
5.83169e-05
5.00047e-05
5.88491e-05
3.04955e-05
5.8399e-05
1.13506e-05
5.74374e-05
-7.21557e-06
5.56487e-05
-2.51268e-05
5.37058e-05
-4.2109e-05
5.09275e-05
-5.8139e-05
4.80591e-05
-7.31041e-05
4.47894e-05
-8.69569e-05
4.16269e-05
-9.96757e-05
3.81443e-05
-0.000111294
3.48589e-05
-0.000121801
3.14947e-05
-0.000131226
2.82491e-05
-0.000139619
2.52036e-05
-0.000147007
2.21583e-05
-0.000153478
1.94134e-05
-0.000159013
1.659e-05
-0.000163647
1.39108e-05
-0.000167444
1.14604e-05
-0.000170517
9.1338e-06
-0.000172769
6.77259e-06
-0.000174318
4.62104e-06
-0.0001752
2.67776e-06
-0.000175415
6.24934e-07
-0.000174986
-1.29431e-06
-0.000173921
-3.08261e-06
-0.000172366
-4.80777e-06
-0.000170127
-6.68545e-06
-0.000167435
-8.10274e-06
-0.000164065
-1.00913e-05
-0.000160252
-1.15099e-05
-0.000155727
-1.34459e-05
-0.00015075
-1.50437e-05
-0.000145098
-1.69642e-05
-0.000138817
-1.8896e-05
-0.000131888
-2.07562e-05
-0.000124251
-2.29027e-05
-0.000115891
-2.51572e-05
-0.00010681
-2.7172e-05
-9.69193e-05
-2.96428e-05
-8.62322e-05
-3.2056e-05
-7.46684e-05
-3.45638e-05
-6.24188e-05
-3.69001e-05
-4.92942e-05
-3.93477e-05
-3.53965e-05
-4.1695e-05
-2.07189e-05
-4.39369e-05
-5.52198e-06
-4.56192e-05
1.0297e-05
-4.739e-05
2.65909e-05
-4.88243e-05
4.31881e-05
-4.973e-05
5.99737e-05
-5.02914e-05
7.67372e-05
-5.02756e-05
9.33127e-05
-4.96419e-05
0.000109499
-4.84972e-05
0.00012511
-4.67259e-05
0.000139825
-4.41633e-05
0.000153523
-4.10408e-05
0.000165916
-3.7153e-05
0.000176743
-3.2395e-05
0.000185831
-2.72172e-05
0.000192965
-2.1371e-05
0.000197999
-1.50506e-05
0.000200817
-8.39709e-06
0.000201316
-1.53527e-06
0.00019949
5.41736e-06
0.000195326
1.24938e-05
0.000188937
1.91735e-05
0.000180461
2.54237e-05
0.000169974
3.13995e-05
0.000157725
3.66747e-05
0.000143958
4.12471e-05
0.000128897
4.51362e-05
0.000112803
4.82285e-05
9.59257e-05
5.05732e-05
7.85134e-05
5.21967e-05
6.08052e-05
5.30515e-05
4.30274e-05
5.3273e-05
2.53708e-05
5.29281e-05
8.03688e-06
5.19517e-05
-8.82093e-06
5.0626e-05
-2.51461e-05
4.88646e-05
-4.06379e-05
4.65004e-05
-5.53614e-05
4.40976e-05
-6.90417e-05
4.10147e-05
-8.17397e-05
3.80471e-05
-9.34304e-05
3.50784e-05
-0.000104153
3.21825e-05
-0.000113953
2.93943e-05
-0.000122871
2.67776e-05
-0.000130997
2.43804e-05
-0.000138351
2.20423e-05
-0.000144925
1.97867e-05
-0.000150878
1.77555e-05
-0.000155995
1.53448e-05
-0.000160388
1.31733e-05
-0.000163975
1.07403e-05
-0.0001668
8.47224e-06
-0.000168866
6.31005e-06
-0.000170417
4.55281e-06
-0.000171317
2.70565e-06
-0.000171739
1.34707e-06
-0.000171829
2.29346e-07
-0.000171463
-1.13227e-06
-0.000170683
-2.44e-06
-0.000169474
-3.53005e-06
-0.000167769
-5.16949e-06
-0.000165572
-6.55044e-06
-0.000162809
-8.4071e-06
-0.000159435
-9.9818e-06
-0.000155437
-1.19657e-05
-0.000150891
-1.36888e-05
-0.000145716
-1.55142e-05
-0.000139866
-1.74421e-05
-0.000133501
-1.91961e-05
-0.000126391
-2.13093e-05
-0.000118573
-2.34467e-05
-0.000110062
-2.56218e-05
-0.000100758
-2.78052e-05
-9.07289e-05
-3.00771e-05
-7.98716e-05
-3.24621e-05
-6.83755e-05
-3.45974e-05
-5.60993e-05
-3.67882e-05
-4.30566e-05
-3.89973e-05
-2.94911e-05
-4.0802e-05
-1.52565e-05
-4.2683e-05
-4.81766e-07
-4.43026e-05
1.47696e-05
-4.57089e-05
3.03466e-05
-4.67116e-05
4.61858e-05
-4.74741e-05
6.21716e-05
-4.78408e-05
7.80407e-05
-4.76303e-05
9.37029e-05
-4.69308e-05
0.000108942
-4.56499e-05
0.000123495
-4.36163e-05
0.000137122
-4.08291e-05
0.000149595
-3.73596e-05
0.000160643
-3.30925e-05
0.000170028
-2.81061e-05
0.000177553
-2.25293e-05
0.000182993
-1.63317e-05
0.000186267
-9.80121e-06
0.000187276
-3.03727e-06
0.000186003
3.76788e-06
0.000182443
1.06706e-05
0.00017668
1.72505e-05
0.000168835
2.35876e-05
0.000159023
2.93864e-05
0.000147447
3.47273e-05
0.000134282
3.94727e-05
0.00011975
4.35768e-05
0.000104049
4.70158e-05
8.74185e-05
4.99241e-05
7.01159e-05
5.18801e-05
5.23719e-05
5.32038e-05
3.44517e-05
5.37254e-05
1.65295e-05
5.3759e-05
-1.16055e-06
5.30146e-05
-1.8285e-05
5.13328e-05
-3.4783e-05
4.95065e-05
-5.04769e-05
4.70482e-05
-6.51425e-05
4.39842e-05
-7.8831e-05
4.10905e-05
-9.13899e-05
3.76411e-05
-0.000102805
3.42821e-05
-0.000113188
3.11408e-05
-0.000122403
2.76456e-05
-0.000130565
2.44875e-05
-0.000137711
2.14306e-05
-0.000143712
1.80214e-05
-0.000148735
1.5082e-05
-0.000152747
1.19663e-05
-0.00015575
9.03525e-06
-0.000157846
6.30309e-06
-0.000159074
3.73338e-06
-0.000159701
1.92612e-06
-0.000159644
-1.41221e-07
-0.000159069
-1.67111e-06
-0.000158185
-2.63596e-06
-0.000156965
-3.64217e-06
-0.000155403
-4.67363e-06
-0.000153677
-5.17306e-06
-0.000151639
-6.11769e-06
-0.000149452
-6.56549e-06
-0.000147112
-7.0228e-06
-0.000144422
-8.09595e-06
-0.000141383
-9.09806e-06
-0.000138087
-9.91204e-06
-0.000134309
-1.13489e-05
-0.000130065
-1.27558e-05
-0.000125185
-1.46446e-05
-0.000119565
-1.68832e-05
-0.000113259
-1.89363e-05
-0.000105988
-2.18357e-05
-9.78273e-05
-2.44864e-05
-8.87007e-05
-2.73452e-05
-7.84207e-05
-3.08815e-05
-6.70175e-05
-3.42179e-05
-5.46938e-05
-3.70164e-05
-4.11697e-05
-4.05282e-05
-2.65192e-05
-4.39098e-05
-1.08175e-05
-4.70842e-05
5.76727e-06
-4.97323e-05
2.29716e-05
-5.15712e-05
4.07973e-05
-5.34325e-05
5.90428e-05
-5.46857e-05
7.73496e-05
-5.48646e-05
9.55847e-05
-5.4648e-05
0.000113409
-5.34148e-05
0.00013066
-5.16905e-05
0.00014707
-4.91643e-05
0.000162245
-4.54598e-05
0.000176037
-4.13028e-05
0.000188163
-3.63269e-05
0.000198384
-3.06412e-05
0.000206656
-2.47751e-05
0.000212795
-1.83761e-05
0.000216683
-1.16344e-05
0.000218308
-4.87825e-06
0.000217571
2.11537e-06
0.000214578
8.90437e-06
0.000209424
1.54483e-05
0.000202126
2.18607e-05
0.000193095
2.70446e-05
0.000182397
3.20611e-05
0.000170162
3.66619e-05
0.000156768
4.01357e-05
0.000142341
4.32326e-05
0.000127098
4.57037e-05
0.000111193
4.77033e-05
9.47975e-05
4.91198e-05
7.82014e-05
4.97522e-05
6.1428e-05
5.03055e-05
4.45998e-05
5.04693e-05
2.79718e-05
4.9833e-05
1.16273e-05
4.90022e-05
-4.3812e-06
4.80149e-05
-1.99683e-05
4.67401e-05
-3.50123e-05
4.51154e-05
-4.94209e-05
4.32132e-05
-6.31686e-05
4.12331e-05
-7.61506e-05
3.89365e-05
-8.83107e-05
3.64732e-05
-9.96104e-05
3.38941e-05
-0.000110001
3.1168e-05
-0.000119475
2.84174e-05
-0.000127991
2.55425e-05
-0.000135528
2.26059e-05
-0.000142096
1.96902e-05
1.64164e-05
-5.23372e-05
-5.71145e-05
-3.6804e-05
-6.20991e-05
-2.02507e-05
-6.62272e-05
-2.80107e-06
-6.97246e-05
1.5352e-05
-7.24697e-05
3.39648e-05
-7.42813e-05
5.31229e-05
-7.64621e-05
7.23946e-05
-7.69058e-05
9.14546e-05
-7.60578e-05
0.000110236
-7.49503e-05
0.000128458
-7.27025e-05
0.000145741
-6.89481e-05
0.000161859
-6.43097e-05
0.000176581
-5.87387e-05
0.000189658
-5.21932e-05
0.00020087
-4.47255e-05
0.000209942
-3.61696e-05
0.000216713
-2.69987e-05
0.000221034
-1.72861e-05
0.000222874
-7.38282e-06
0.000222155
2.66778e-06
0.000218912
1.27891e-05
0.000213145
2.30484e-05
0.000205097
3.20848e-05
0.00019489
4.06783e-05
0.00018277
4.84157e-05
0.000168883
5.54257e-05
0.000153409
6.18453e-05
0.000136714
6.65542e-05
0.000119067
7.04113e-05
0.000100706
7.32762e-05
8.19085e-05
7.50193e-05
6.28474e-05
7.62031e-05
4.38037e-05
7.60735e-05
2.49252e-05
7.55591e-05
6.34789e-06
7.40632e-05
-1.15486e-05
7.15098e-05
-2.88716e-05
6.92091e-05
-4.54322e-05
6.61772e-05
-6.11454e-05
6.28051e-05
-7.59656e-05
5.9247e-05
-8.98452e-05
5.54904e-05
-0.000102772
5.16906e-05
-0.000114728
4.78092e-05
-0.000125716
4.39468e-05
-0.000135763
4.01713e-05
-0.000144847
3.63389e-05
-0.000153016
3.26594e-05
-0.000160296
2.91229e-05
-0.000166684
2.5545e-05
-0.000172181
2.19844e-05
-0.000176871
1.87583e-05
-0.000180703
1.53316e-05
-0.00018378
1.22962e-05
-0.000186051
9.0463e-06
-0.000187487
5.81277e-06
-0.00018824
3.07829e-06
-0.00018815
-2.8191e-07
-0.000187264
-3.50034e-06
-0.00018562
-6.58633e-06
-0.000183127
-9.96332e-06
-0.000179868
-1.30745e-05
-0.000175823
-1.62123e-05
-0.000170918
-1.9657e-05
-0.000165156
-2.29976e-05
-0.000158637
-2.60642e-05
-0.000151171
-2.99095e-05
-0.000142898
-3.3074e-05
-0.000133633
-3.70548e-05
-0.000123403
-4.08971e-05
-0.000112384
-4.3983e-05
-0.000100478
-4.77044e-05
-8.77079e-05
-5.11406e-05
-7.42747e-05
-5.36412e-05
-5.99555e-05
-5.72459e-05
-4.50265e-05
-5.96851e-05
-2.93479e-05
-6.26506e-05
-1.3013e-05
-6.52783e-05
3.67511e-06
-6.67544e-05
2.08017e-05
-6.84484e-05
3.82e-05
-6.95243e-05
5.58181e-05
-7.03847e-05
7.34354e-05
-7.03825e-05
9.09883e-05
-7.00888e-05
0.00010825
-6.89209e-05
0.000125053
-6.69997e-05
0.000141189
-6.45012e-05
0.000156511
-6.11834e-05
0.000170781
-5.69983e-05
0.000183792
-5.18788e-05
0.000195262
-4.57508e-05
0.000204961
-3.85961e-05
0.000212585
-3.0417e-05
0.000217961
-2.14503e-05
0.000220937
-1.19197e-05
0.000221425
-2.15845e-06
0.000219421
7.79995e-06
0.000214972
1.77208e-05
0.000208167
2.71486e-05
0.000199045
3.61729e-05
0.00018788
4.45557e-05
0.000174817
5.20679e-05
0.000160048
5.88917e-05