/*--------------------------------*- C++ -*----------------------------------*\
| =========                 |                                                 |
| \\      /  F ield         | OpenFOAM: The Open Source CFD Toolbox           |
|  \\    /   O peration     | Version:  3.0.1                                 |
|   \\  /    A nd           | Web:      www.OpenFOAM.org                      |
|    \\/     M anipulation  |                                                 |
\*---------------------------------------------------------------------------*/
FoamFile
{
    version     2.0;
    format      ascii;
    class       volScalarField;
    location    "69.6";
    object      p;
}
// * * * * * * * * * * * * * * * * * * * * * * * * * * * * * * * * * * * * * //

dimensions      [1 -1 -2 0 0 0 0];

internalField   nonuniform List<scalar> 
21420
(
3546.98
3551.13
3556.73
3563.82
3572.42
3582.62
3594.46
3608.01
3623.34
3640.47
3659.45
3680.3
3703.02
3727.6
3753.99
3782.12
3811.91
3843.24
3875.88
3906.74
3941.26
3976.26
4011.36
4046.24
4080.49
4113.73
4145.52
4175.45
4203.16
4228.26
4250.41
4269.3
4284.69
4296.36
4304.14
4307.92
4307.58
4303.23
4294.98
4282.9
4267.2
4248.14
4225.98
4201.04
4173.69
4144.3
4113.25
4080.93
4047.74
4014.04
3980.18
3946.53
3913.54
3882.29
3851.34
3821.46
3792.89
3765.8
3740.31
3716.48
3694.39
3674.05
3655.48
3638.67
3623.61
3610.27
3598.64
3588.67
3580.35
3573.64
3568.52
3564.96
3562.95
3562.48
3563.51
3566.01
3570.01
3575.5
3582.49
3590.98
3600.96
3612.44
3625.41
3639.87
3655.81
3673.22
3692.08
3712.39
3734.12
3757.25
3781.74
3807.56
3834.63
3862.88
3892.18
3922.41
3953.37
3984.85
4016.61
4048.37
4079.84
4110.7
4140.6
4169.21
4196.17
4221.14
4243.78
4263.79
4280.86
4294.74
4305.2
4312.06
4315.13
4314.38
4309.75
4301.3
4289.06
4273.19
4253.91
4231.46
4206.15
4178.34
4148.42
4116.78
4083.85
4050.06
4015.83
3981.54
3947.58
3914.29
3881.96
3850.87
3821.23
3793.23
3767.01
3742.67
3720.26
3699.84
3681.39
3664.89
3650.29
3637.53
3626.53
3617.2
3609.46
3603.22
3598.41
3594.94
3592.76
3591.83
3592.15
3593.64
3596.31
3600.17
3605.22
3611.47
3618.95
3627.68
3637.7
3649.04
3661.75
3675.88
3691.48
3708.58
3727.23
3747.43
3769.2
3792.54
3817.4
3843.73
3871.46
3900.47
3930.62
3961.72
3993.52
4025.78
4058.18
4090.41
4122.07
4152.78
4182.13
4209.67
4234.99
4257.67
4277.32
4293.58
4306.16
4314.81
4319.35
4319.59
4315.64
4307.49
4295.21
4279.02
4259.17
4235.96
4209.76
4180.96
4150.02
4117.4
4083.56
4048.99
4014.13
3979.4
3945.19
3911.82
3879.57
3848.68
3819.35
3791.71
3765.88
3741.92
3719.87
3699.73
3681.48
3665.07
3650.45
3637.57
3626.36
3616.77
3608.74
3602.23
3597.17
3593.53
3591.25
3590.31
3590.71
3592.36
3595.28
3599.47
3604.94
3611.71
3619.8
3629.24
3640.06
3652.3
3665.99
3681.16
3697.85
3716.08
3735.88
3757.26
3780.19
3804.66
3830.61
3857.96
3886.59
3916.37
3947.11
3978.59
4010.49
4042.52
4074.33
4105.55
4135.77
4164.58
4191.54
4216.24
4238.23
4257.13
4272.58
4284.25
4291.88
4295.27
4294.37
4289.1
4279.55
4265.81
4248.14
4226.83
4202.26
4174.85
4145.06
4113.38
4080.28
4046.25
4011.71
3977.03
3946.01
3912.91
3880.97
3850.39
3821.33
3793.94
3768.32
3744.51
3722.55
3702.45
3684.18
3667.72
3653.01
3640
3628.6
3618.74
3610.35
3603.34
3597.63
3593.15
3589.84
3587.64
3586.56
3586.59
3587.75
3590.04
3593.56
3598.38
3604.58
3612.27
3621.57
3632.6
3645.46
3660.23
3676.99
3695.78
3716.6
3739.43
3764.18
3790.76
3819
3848.73
3879.69
3910.04
3942.36
3974.81
4007.05
4038.7
4069.34
4098.65
4126.22
4151.71
4174.8
4195.21
4212.66
4226.95
4237.91
4245.43
4249.4
4249.72
4246.46
4239.76
4229.69
4216.43
4200.21
4181.25
4159.83
4136.21
4110.71
4083.63
4055.26
4025.94
3995.99
3965.76
3935.67
3907.64
3881.72
3854.47
3827.85
3448.82
3452.97
3458.57
3465.66
3474.26
3484.45
3496.29
3509.84
3525.16
3542.29
3561.27
3582.12
3604.84
3629.41
3655.8
3683.94
3713.73
3745.07
3777.73
3808.57
3843.12
3878.13
3913.24
3948.14
3982.41
4015.66
4047.47
4077.42
4105.15
4130.26
4152.42
4171.33
4186.73
4198.41
4206.2
4209.99
4209.64
4205.28
4197.03
4184.93
4169.22
4150.15
4127.97
4103.02
4075.65
4046.25
4015.17
3982.84
3949.63
3915.92
3882.05
3848.39
3815.39
3784.13
3753.17
3723.29
3694.71
3667.63
3642.13
3618.3
3596.21
3575.87
3557.3
3540.5
3525.43
3512.1
3500.47
3490.51
3482.19
3475.48
3470.36
3466.8
3464.78
3464.33
3465.35
3467.85
3471.85
3477.34
3484.33
3492.82
3502.8
3514.28
3527.25
3541.71
3557.65
3575.05
3593.92
3614.22
3635.95
3659.08
3683.58
3709.39
3736.47
3764.72
3794.03
3824.26
3855.23
3886.71
3918.48
3950.26
3981.74
4012.61
4042.53
4071.15
4098.13
4123.11
4145.77
4165.79
4182.88
4196.77
4207.24
4214.1
4217.18
4216.43
4211.79
4203.34
4191.09
4175.22
4155.92
4133.45
4108.13
4080.3
4050.36
4018.7
3985.76
3951.95
3917.7
3883.4
3849.42
3816.12
3783.79
3752.69
3723.05
3695.05
3668.82
3644.47
3622.07
3601.65
3583.2
3566.7
3552.11
3539.36
3528.36
3519.04
3511.3
3505.06
3500.25
3496.79
3494.61
3493.68
3494
3495.49
3498.16
3502.02
3507.07
3513.32
3520.79
3529.52
3539.54
3550.88
3563.59
3577.72
3593.31
3610.41
3629.06
3649.26
3671.03
3694.36
3719.22
3745.56
3773.29
3802.3
3832.46
3863.57
3895.38
3927.65
3960.07
3992.3
4023.98
4054.71
4084.07
4111.64
4136.97
4159.67
4179.34
4195.62
4208.21
4216.87
4221.41
4221.66
4217.7
4209.55
4197.26
4181.05
4161.19
4137.96
4111.74
4082.92
4051.96
4019.32
3985.46
3950.87
3915.99
3881.25
3847.03
3813.65
3781.39
3750.5
3721.16
3693.52
3667.69
3643.73
3621.69
3601.55
3583.3
3566.89
3552.28
3539.4
3528.19
3518.6
3510.58
3504.06
3499.01
3495.38
3493.1
3492.16
3492.55
3494.2
3497.13
3501.32
3506.79
3513.55
3521.64
3531.08
3541.9
3554.13
3567.82
3582.99
3599.68
3617.91
3637.71
3659.08
3682.02
3706.49
3732.44
3759.79
3788.43
3818.21
3848.96
3880.45
3912.36
3944.4
3976.23
4007.46
4037.7
4066.53
4093.52
4118.23
4140.24
4159.16
4174.62
4186.3
4193.95
4197.34
4196.44
4191.17
4181.61
4167.86
4150.17
4128.85
4104.26
4076.83
4047.02
4015.31
3982.2
3948.15
3913.6
3878.92
3847.84
3814.75
3782.81
3752.22
3723.15
3695.76
3670.13
3646.33
3624.37
3604.27
3586.01
3569.55
3554.84
3541.83
3530.43
3520.58
3512.19
3505.19
3499.48
3495.01
3491.7
3489.5
3488.42
3488.45
3489.6
3491.89
3495.41
3500.23
3506.42
3514.11
3523.4
3534.43
3547.28
3562.05
3578.8
3597.59
3618.41
3641.24
3666
3692.57
3720.83
3750.56
3781.53
3811.9
3844.23
3876.69
3908.95
3940.61
3971.28
4000.6
4028.19
4053.69
4076.8
4097.21
4114.68
4128.98
4139.95
4147.46
4151.44
4151.75
4148.49
4141.79
4131.71
4118.45
4102.21
4083.24
4061.8
4038.17
4012.66
3985.56
3957.18
3927.85
3897.88
3867.64
3837.54
3809.51
3783.57
3756.3
3729.68
3350.61
3354.76
3360.36
3367.43
3376.03
3386.22
3398.05
3411.6
3426.91
3444.03
3463.01
3483.85
3506.57
3531.15
3557.54
3585.68
3615.47
3646.82
3679.52
3710.33
3744.93
3779.97
3815.11
3850.03
3884.34
3917.63
3949.47
3979.46
4007.22
4032.37
4054.56
4073.5
4088.92
4100.61
4108.41
4112.21
4111.85
4107.49
4099.22
4087.11
4071.37
4052.27
4030.06
4005.07
3977.68
3948.23
3917.12
3884.76
3851.52
3817.78
3783.89
3750.2
3717.18
3685.91
3654.94
3625.04
3596.46
3569.37
3543.87
3520.05
3497.95
3477.62
3459.05
3442.25
3427.19
3413.86
3402.23
3392.27
3383.96
3377.25
3372.13
3368.57
3366.56
3366.11
3367.13
3369.63
3373.63
3379.12
3386.11
3394.6
3404.58
3416.06
3429.03
3443.49
3459.42
3476.83
3495.69
3515.99
3537.72
3560.85
3585.35
3611.16
3638.24
3666.49
3695.81
3726.06
3757.04
3788.55
3820.33
3852.14
3883.64
3914.54
3944.49
3973.14
4000.15
4025.16
4047.85
4067.9
4085.01
4098.93
4109.41
4116.29
4119.39
4118.62
4113.99
4105.53
4093.26
4077.37
4058.04
4035.54
4010.18
3982.32
3952.34
3920.65
3887.67
3853.83
3819.55
3785.22
3751.22
3717.9
3685.55
3654.43
3624.78
3596.77
3570.54
3546.2
3523.8
3503.37
3484.93
3468.44
3453.85
3441.11
3430.12
3420.81
3413.08
3406.85
3402.04
3398.58
3396.4
3395.49
3395.8
3397.29
3399.96
3403.82
3408.87
3415.12
3422.59
3431.31
3441.33
3452.66
3465.37
3479.49
3495.08
3512.18
3530.82
3551.01
3572.78
3596.12
3620.98
3647.32
3675.06
3704.08
3734.24
3765.37
3797.2
3829.49
3861.93
3894.2
3925.91
3956.68
3986.08
4013.68
4039.05
4061.78
4081.48
4097.8
4110.41
4119.09
4123.64
4123.9
4119.93
4111.76
4099.45
4083.22
4063.32
4040.06
4013.8
3984.95
3953.94
3921.26
3887.36
3852.74
3817.83
3783.06
3748.81
3715.41
3683.14
3652.24
3622.89
3595.25
3569.42
3545.46
3523.42
3503.28
3485.04
3468.64
3454.03
3441.16
3429.95
3420.37
3412.35
3405.84
3400.8
3397.16
3394.89
3393.96
3394.35
3396
3398.92
3403.11
3408.58
3415.34
3423.43
3432.86
3443.68
3455.91
3469.59
3484.76
3501.44
3519.67
3539.47
3560.84
3583.78
3608.25
3634.2
3661.56
3690.2
3720
3750.76
3782.27
3814.21
3846.27
3878.13
3909.4
3939.68
3968.54
3995.56
4020.31
4042.37
4061.32
4076.81
4088.51
4096.18
4099.59
4098.67
4093.4
4083.83
4070.05
4052.34
4030.98
4006.35
3978.88
3949.03
3917.28
3884.13
3850.05
3815.47
3780.79
3749.6
3716.52
3684.57
3653.97
3624.9
3597.51
3571.87
3548.07
3526.11
3506.02
3487.76
3471.31
3456.61
3443.6
3432.21
3422.36
3413.98
3406.98
3401.28
3396.81
3393.51
3391.32
3390.24
3390.26
3391.41
3393.7
3397.21
3402.02
3408.2
3415.88
3425.17
3436.18
3449.03
3463.79
3480.53
3499.32
3520.14
3542.97
3567.73
3594.31
3622.57
3652.32
3683.3
3713.73
3746.07
3778.56
3810.85
3842.54
3873.24
3902.59
3930.22
3955.75
3978.88
3999.33
4016.81
4031.13
4042.11
4049.64
4053.62
4053.94
4050.66
4043.95
4033.85
4020.57
4004.3
3985.31
3963.85
3940.19
3914.65
3887.52
3859.11
3829.76
3799.77
3769.5
3739.39
3711.34
3685.36
3658.08
3631.44
3252.35
3256.49
3262.08
3269.15
3277.74
3287.92
3299.74
3313.28
3328.58
3345.7
3364.66
3385.51
3408.22
3432.79
3459.19
3487.33
3517.14
3548.5
3581.26
3612.04
3646.71
3681.78
3716.96
3751.93
3786.28
3819.62
3851.52
3881.56
3909.37
3934.57
3956.81
3975.79
3991.24
4002.96
4010.78
4014.59
4014.22
4009.84
4001.55
3989.41
3973.64
3954.5
3932.25
3907.21
3879.76
3850.26
3819.1
3786.69
3753.41
3719.62
3685.69
3651.97
3618.93
3587.63
3556.64
3526.73
3498.14
3471.04
3445.53
3421.71
3399.62
3379.29
3360.72
3343.93
3328.87
3315.55
3303.93
3293.97
3285.66
3278.96
3273.85
3270.29
3268.28
3267.83
3268.85
3271.35
3275.35
3280.84
3287.83
3296.32
3306.3
3317.77
3330.74
3345.2
3361.13
3378.54
3397.39
3417.7
3439.42
3462.55
3487.05
3512.87
3539.95
3568.21
3597.55
3627.81
3658.81
3690.34
3722.17
3754
3785.55
3816.49
3846.48
3875.18
3902.23
3927.29
3950.03
3970.12
3987.27
4001.22
4011.73
4018.62
4021.75
4020.97
4016.33
4007.86
3995.57
3979.64
3960.27
3937.73
3912.32
3884.41
3854.37
3822.62
3789.59
3755.7
3721.37
3687
3652.96
3619.61
3587.23
3556.1
3526.44
3498.42
3472.18
3447.83
3425.43
3405.02
3386.58
3370.1
3355.52
3342.79
3331.81
3322.51
3314.79
3308.57
3303.77
3300.32
3298.15
3297.24
3297.55
3299.04
3301.72
3305.58
3310.62
3316.87
3324.33
3333.05
3343.06
3354.39
3367.09
3381.2
3396.78
3413.88
3432.51
3452.7
3474.47
3497.8
3522.66
3549.01
3576.75
3605.79
3635.97
3667.12
3698.98
3731.3
3763.78
3796.09
3827.86
3858.68
3888.13
3915.79
3941.22
3964
3983.76
4000.11
4012.76
4021.46
4026.03
4026.31
4022.31
4014.13
4001.79
3985.53
3965.58
3942.27
3915.95
3887.03
3855.97
3823.22
3789.27
3754.59
3719.63
3684.82
3650.54
3617.11
3584.82
3553.9
3524.54
3496.89
3471.06
3447.1
3425.06
3404.94
3386.7
3370.31
3355.71
3342.85
3331.65
3322.08
3314.07
3307.57
3302.53
3298.9
3296.63
3295.7
3296.09
3297.75
3300.67
3304.86
3310.32
3317.08
3325.16
3334.59
3345.4
3357.63
3371.3
3386.46
3403.14
3421.37
3441.16
3462.53
3485.46
3509.93
3535.89
3563.25
3591.92
3621.72
3652.51
3684.06
3716.02
3748.13
3780.03
3811.35
3841.68
3870.61
3897.69
3922.49
3944.6
3963.61
3979.14
3990.88
3998.57
4002.01
4001.08
3995.8
3986.21
3972.4
3954.64
3933.22
3908.54
3881
3851.09
3819.28
3786.07
3751.94
3717.33
3682.64
3651.29
3618.22
3586.26
3555.65
3526.57
3499.17
3473.53
3449.72
3427.77
3407.68
3389.43
3372.99
3358.3
3345.3
3333.92
3324.09
3315.72
3308.73
3303.04
3298.57
3295.28
3293.09
3292.01
3292.03
3293.17
3295.46
3298.96
3303.75
3309.92
3317.59
3326.86
3337.86
3350.69
3365.44
3382.18
3400.96
3421.77
3444.6
3469.37
3495.97
3524.25
3554.01
3585.01
3615.51
3647.89
3680.41
3712.75
3744.49
3775.23
3804.63
3832.31
3857.88
3881.06
3901.55
3919.07
3933.41
3944.42
3951.95
3955.93
3956.27
3952.97
3946.23
3936.11
3922.8
3906.5
3887.47
3865.97
3842.27
3816.68
3789.52
3761.07
3731.68
3701.65
3671.35
3641.21
3613.13
3587.11
3559.8
3533.14
3154.02
3158.16
3163.74
3170.81
3179.38
3189.55
3201.36
3214.89
3230.18
3247.28
3266.24
3287.08
3309.79
3334.36
3360.76
3388.91
3418.72
3450.09
3482.9
3513.71
3548.44
3583.56
3618.79
3653.82
3688.24
3721.65
3753.62
3783.73
3811.61
3836.88
3859.18
3878.21
3893.71
3905.46
3913.3
3917.12
3916.76
3912.36
3904.03
3891.86
3876.04
3856.84
3834.52
3809.42
3781.9
3752.34
3721.11
3688.63
3655.28
3621.44
3587.46
3553.7
3520.63
3489.28
3458.27
3428.34
3399.73
3372.63
3347.12
3323.29
3301.2
3280.88
3262.32
3245.53
3230.49
3217.17
3205.56
3195.61
3187.3
3180.61
3175.5
3171.95
3169.95
3169.49
3170.51
3173.01
3177.01
3182.5
3189.49
3197.97
3207.95
3219.42
3232.39
3246.85
3262.78
3280.18
3299.04
3319.34
3341.06
3364.19
3388.69
3414.51
3441.6
3469.87
3499.23
3529.51
3560.54
3592.11
3623.97
3655.86
3687.46
3718.45
3748.5
3777.26
3804.38
3829.5
3852.3
3872.44
3889.64
3903.64
3914.19
3921.11
3924.25
3923.47
3918.83
3910.33
3898.01
3882.04
3862.62
3840.01
3814.54
3786.55
3756.44
3724.62
3691.51
3657.56
3623.16
3588.74
3554.65
3521.26
3488.85
3457.69
3428.01
3399.97
3373.73
3349.38
3326.98
3306.57
3288.14
3271.68
3257.12
3244.4
3233.44
3224.15
3216.45
3210.24
3205.45
3202.01
3199.85
3198.95
3199.26
3200.75
3203.43
3207.29
3212.33
3218.57
3226.03
3234.74
3244.74
3256.06
3268.75
3282.85
3298.43
3315.51
3334.13
3354.32
3376.08
3399.41
3424.28
3450.63
3478.39
3507.44
3537.64
3568.82
3600.72
3633.08
3665.62
3697.99
3729.82
3760.71
3790.23
3817.97
3843.47
3866.33
3886.15
3902.57
3915.27
3924
3928.59
3928.88
3924.87
3916.66
3904.29
3887.97
3867.96
3844.58
3818.18
3789.18
3758.04
3725.21
3691.18
3656.42
3621.4
3586.54
3552.21
3518.74
3486.42
3455.48
3426.1
3398.45
3372.61
3348.66
3326.62
3306.51
3288.28
3271.91
3257.32
3244.47
3233.29
3223.73
3215.72
3209.23
3204.2
3200.58
3198.31
3197.4
3197.78
3199.44
3202.36
3206.55
3212.01
3218.77
3226.84
3236.27
3247.07
3259.29
3272.95
3288.1
3304.77
3322.99
3342.78
3364.14
3387.08
3411.55
3437.51
3464.89
3493.57
3523.4
3554.21
3585.8
3617.81
3649.97
3681.93
3713.32
3743.73
3772.73
3799.88
3824.77
3846.95
3866.02
3881.62
3893.41
3901.13
3904.59
3903.67
3898.38
3888.75
3874.89
3857.07
3835.59
3810.82
3783.21
3753.21
3721.31
3688.03
3653.83
3619.17
3584.47
3552.92
3519.86
3487.88
3457.26
3428.16
3400.75
3375.11
3351.3
3329.36
3309.27
3291.03
3274.6
3259.92
3246.94
3235.57
3225.75
3217.4
3210.42
3204.74
3200.29
3197
3194.82
3193.74
3193.75
3194.89
3197.17
3200.66
3205.44
3211.59
3219.23
3228.48
3239.46
3252.28
3267.01
3283.74
3302.51
3323.32
3346.15
3370.93
3397.54
3425.84
3455.63
3486.66
3517.26
3549.67
3582.25
3614.64
3646.44
3677.26
3706.72
3734.46
3760.1
3783.34
3803.87
3821.44
3835.82
3846.85
3854.4
3858.38
3858.73
3855.42
3848.65
3838.49
3825.14
3808.79
3789.71
3768.16
3744.4
3718.77
3691.54
3663.04
3633.6
3603.53
3573.18
3542.99
3514.88
3488.8
3461.45
3434.76
3055.65
3059.77
3065.35
3072.4
3080.96
3091.11
3102.91
3116.42
3131.7
3148.79
3167.74
3188.57
3211.27
3235.84
3262.24
3290.4
3320.22
3351.62
3384.47
3415.35
3450.13
3485.3
3520.6
3555.7
3590.21
3623.71
3655.77
3685.97
3713.94
3739.29
3761.67
3780.76
3796.32
3808.11
3815.98
3819.81
3819.46
3815.03
3806.66
3794.44
3778.56
3759.29
3736.9
3711.71
3684.1
3654.45
3623.14
3590.58
3557.16
3523.24
3489.2
3455.39
3422.27
3390.87
3359.83
3329.88
3301.26
3274.14
3248.62
3224.8
3202.71
3182.39
3163.84
3147.06
3132.03
3118.72
3107.12
3097.18
3088.88
3082.19
3077.09
3073.55
3071.55
3071.09
3072.11
3074.61
3078.61
3084.1
3091.09
3099.57
3109.54
3121.02
3133.98
3148.43
3164.36
3181.76
3200.62
3220.91
3242.64
3265.76
3290.26
3316.09
3343.18
3371.47
3400.85
3431.16
3462.23
3493.84
3525.76
3557.7
3589.37
3620.43
3650.56
3679.4
3706.59
3731.79
3754.66
3774.87
3792.14
3806.19
3816.78
3823.74
3826.9
3826.14
3821.49
3812.95
3800.6
3784.57
3765.08
3742.4
3716.84
3688.76
3658.55
3626.64
3593.45
3559.4
3524.93
3490.44
3456.29
3422.85
3390.4
3359.21
3329.5
3301.45
3275.19
3250.84
3228.45
3208.04
3189.63
3173.17
3158.63
3145.93
3134.99
3125.73
3118.04
3111.86
3107.08
3103.65
3101.5
3100.6
3100.92
3102.42
3105.09
3108.95
3113.98
3120.22
3127.68
3136.38
3146.37
3157.68
3170.35
3184.44
3200
3217.07
3235.69
3255.87
3277.63
3300.96
3325.82
3352.18
3379.95
3409.02
3439.26
3470.48
3502.42
3534.84
3567.44
3599.88
3631.79
3662.77
3692.39
3720.22
3745.82
3768.77
3788.68
3805.17
3817.93
3826.7
3831.31
3831.62
3827.6
3819.35
3806.93
3790.55
3770.46
3746.99
3720.49
3691.4
3660.15
3627.22
3593.09
3558.25
3523.14
3488.21
3453.82
3420.31
3387.95
3356.98
3327.58
3299.92
3274.08
3250.13
3228.1
3208
3189.79
3173.43
3158.86
3146.02
3134.86
3125.31
3117.32
3110.84
3105.81
3102.2
3099.95
3099.04
3099.43
3101.09
3104.01
3108.19
3113.65
3120.4
3128.47
3137.88
3148.68
3160.88
3174.54
3189.68
3206.34
3224.55
3244.33
3265.69
3288.62
3313.1
3339.07
3366.46
3395.15
3425.01
3455.86
3487.51
3519.57
3551.8
3583.84
3615.31
3645.81
3674.9
3702.16
3727.14
3749.41
3768.57
3784.24
3796.09
3803.85
3807.34
3806.43
3801.12
3791.45
3777.54
3759.64
3738.07
3713.2
3685.48
3655.38
3623.38
3590
3555.72
3521
3486.27
3454.5
3421.44
3389.44
3358.79
3329.67
3302.25
3276.61
3252.8
3230.86
3210.78
3192.55
3176.14
3161.47
3148.51
3137.16
3127.36
3119.02
3112.06
3106.4
3101.96
3098.68
3096.51
3095.43
3095.43
3096.57
3098.83
3102.31
3107.06
3113.19
3120.81
3130.04
3140.99
3153.79
3168.5
3185.21
3203.97
3224.78
3247.62
3272.41
3299.03
3327.36
3357.18
3388.24
3418.97
3451.43
3484.07
3516.54
3548.42
3579.31
3608.86
3636.68
3662.4
3685.71
3706.31
3723.93
3738.36
3749.42
3756.99
3760.97
3761.33
3758
3751.19
3741
3727.59
3711.19
3692.04
3670.42
3646.6
3620.89
3593.6
3565.04
3535.53
3505.4
3475
3444.75
3416.6
3390.43
3363.05
3336.32
2957.21
2961.33
2966.9
2973.93
2982.48
2992.61
3004.39
3017.88
3033.14
3050.22
3069.15
3089.97
3112.67
3137.24
3163.64
3191.81
3221.65
3253.06
3285.94
3316.95
3351.78
3387.02
3422.39
3457.59
3492.19
3525.8
3557.97
3588.28
3616.35
3641.81
3664.27
3683.45
3699.07
3710.91
3718.81
3722.66
3722.3
3717.85
3709.44
3697.16
3681.21
3661.85
3639.36
3614.07
3586.37
3556.61
3525.19
3492.53
3459.02
3425.02
3390.91
3357.03
3323.86
3292.4
3261.32
3231.34
3202.7
3175.57
3150.05
3126.22
3104.14
3083.82
3065.29
3048.52
3033.49
3020.2
3008.61
2998.68
2990.39
2983.71
2978.62
2975.08
2973.09
2972.63
2973.65
2976.16
2980.16
2985.64
2992.63
3001.11
3011.08
3022.55
3035.51
3049.96
3065.89
3083.28
3102.13
3122.42
3144.14
3167.27
3191.76
3217.6
3244.71
3273.01
3302.41
3332.76
3363.88
3395.54
3427.52
3459.53
3491.28
3522.43
3552.65
3581.57
3608.86
3634.15
3657.11
3677.41
3694.76
3708.87
3719.52
3726.52
3729.7
3728.95
3724.29
3715.72
3703.32
3687.22
3667.66
3644.88
3619.22
3591.03
3560.71
3528.69
3495.39
3461.24
3426.68
3392.1
3357.88
3324.38
3291.87
3260.64
3230.9
3202.83
3176.57
3152.21
3129.82
3109.43
3091.03
3074.59
3060.07
3047.4
3036.48
3027.24
3019.58
3013.41
3008.66
3005.24
3003.1
3002.21
3002.53
3004.03
3006.71
3010.56
3015.59
3021.82
3029.27
3037.97
3047.94
3059.23
3071.9
3085.97
3101.52
3118.57
3137.17
3157.34
3179.1
3202.42
3227.3
3253.67
3281.45
3310.55
3340.81
3372.08
3404.08
3436.57
3469.24
3501.78
3533.79
3564.87
3594.6
3622.54
3648.26
3671.32
3691.32
3707.9
3720.74
3729.57
3734.21
3734.52
3730.49
3722.2
3709.72
3693.26
3673.08
3649.5
3622.89
3593.67
3562.3
3529.25
3495
3460.05
3424.85
3389.83
3355.37
3321.8
3289.4
3258.39
3228.98
3201.3
3175.46
3151.51
3129.5
3109.41
3091.22
3074.88
3060.33
3047.51
3036.36
3026.82
3018.85
3012.38
3007.38
3003.77
3001.53
3000.63
3001.02
3002.68
3005.61
3009.79
3015.24
3021.98
3030.04
3039.44
3050.23
3062.42
3076.07
3091.2
3107.84
3126.04
3145.81
3167.16
3190.09
3214.57
3240.55
3267.96
3296.68
3326.57
3357.46
3389.17
3421.31
3453.61
3485.74
3517.32
3547.92
3577.13
3604.5
3629.6
3651.99
3671.25
3687.01
3698.93
3706.75
3710.25
3709.36
3704.03
3694.31
3680.33
3662.34
3640.66
3615.68
3587.84
3557.6
3525.48
3491.99
3457.61
3422.8
3388.04
3356.03
3322.95
3290.92
3260.24
3231.11
3203.67
3178.02
3154.21
3132.28
3112.21
3094
3077.6
3062.96
3050.01
3038.69
3028.91
3020.59
3013.65
3008.01
3003.58
3000.31
2998.15
2997.07
2997.07
2998.2
3000.45
3003.9
3008.64
3014.74
3022.33
3031.52
3042.45
3055.22
3069.91
3086.6
3105.34
3126.15
3148.99
3173.79
3200.44
3228.8
3258.67
3289.76
3320.63
3353.15
3385.87
3418.43
3450.4
3481.4
3511.05
3538.97
3564.77
3588.17
3608.85
3626.54
3641.02
3652.12
3659.71
3663.71
3664.06
3660.72
3653.87
3643.62
3630.15
3613.68
3594.46
3572.76
3548.85
3523.06
3495.69
3467.05
3437.47
3407.26
3376.8
3346.49
3318.28
3292.02
3264.58
3237.81
2858.73
2862.83
2868.38
2875.4
2883.93
2894.05
2905.8
2919.27
2934.51
2951.57
2970.49
2991.3
3013.99
3038.56
3064.96
3093.13
3122.99
3154.42
3187.32
3218.51
3253.4
3288.7
3324.17
3359.47
3394.19
3427.92
3460.22
3490.65
3518.85
3544.42
3567
3586.27
3601.97
3613.87
3621.81
3625.67
3625.31
3620.83
3612.36
3600.01
3583.98
3564.52
3541.93
3516.52
3488.69
3458.81
3427.27
3394.5
3360.88
3326.78
3292.59
3258.63
3225.4
3193.86
3162.75
3132.74
3104.07
3076.92
3051.39
3027.57
3005.49
2985.18
2966.66
2949.9
2934.89
2921.61
2910.03
2900.12
2891.84
2885.17
2880.08
2876.56
2874.57
2874.11
2875.13
2877.64
2881.64
2887.13
2894.11
2902.58
2912.55
2924.02
2936.98
2951.42
2967.35
2984.74
3003.58
3023.87
3045.59
3068.71
3093.2
3119.04
3146.16
3174.49
3203.92
3234.32
3265.48
3297.21
3329.26
3361.36
3393.19
3424.44
3454.76
3483.8
3511.19
3536.6
3559.66
3580.06
3597.49
3611.69
3622.4
3629.44
3632.65
3631.92
3627.24
3618.64
3606.18
3590.01
3570.34
3547.46
3521.68
3493.36
3462.91
3430.76
3397.33
3363.07
3328.4
3293.72
3259.42
3225.84
3193.28
3162
3132.23
3104.13
3077.86
3053.5
3031.11
3010.73
2992.35
2975.93
2961.44
2948.79
2937.9
2928.69
2921.06
2914.91
2910.18
2906.78
2904.66
2903.78
2904.1
2905.6
2908.28
2912.13
2917.15
2923.38
2930.82
2939.5
2949.46
2960.74
2973.38
2987.44
3002.97
3020
3038.59
3058.75
3080.5
3103.82
3128.7
3155.08
3182.88
3212.01
3242.31
3273.64
3305.7
3338.26
3371.03
3403.67
3435.79
3467
3496.86
3524.94
3550.79
3573.98
3594.1
3610.78
3623.7
3632.6
3637.27
3637.6
3633.56
3625.21
3612.67
3596.12
3575.83
3552.12
3525.37
3496.01
3464.49
3431.3
3396.92
3361.84
3326.52
3291.41
3256.87
3223.23
3190.77
3159.73
3130.29
3102.6
3076.75
3052.81
3030.81
3010.74
2992.57
2976.25
2961.72
2948.92
2937.79
2928.28
2920.32
2913.87
2908.88
2905.29
2903.06
2902.17
2902.57
2904.23
2907.15
2911.33
2916.77
2923.51
2931.55
2940.95
2951.72
2963.9
2977.53
2992.65
3009.28
3027.47
3047.22
3068.57
3091.49
3115.97
3141.97
3169.39
3198.14
3228.07
3259.01
3290.8
3323.01
3355.41
3387.65
3419.34
3450.07
3479.41
3506.93
3532.16
3554.68
3574.06
3589.92
3601.93
3609.81
3613.35
3612.47
3607.11
3597.34
3583.28
3565.18
3543.38
3518.25
3490.26
3459.88
3427.62
3393.99
3359.48
3324.58
3289.76
3257.51
3224.41
3192.34
3161.62
3132.46
3105.01
3079.35
3055.55
3033.62
3013.57
2995.37
2978.99
2964.37
2951.45
2940.15
2930.4
2922.11
2915.19
2909.57
2905.16
2901.91
2899.75
2898.68
2898.67
2899.78
2902.02
2905.45
2910.16
2916.22
2923.78
2932.94
2943.83
2956.57
2971.23
2987.9
3006.63
3027.43
3050.27
3075.09
3101.77
3130.17
3160.08
3191.22
3222.25
3254.84
3287.66
3320.32
3352.41
3383.51
3413.28
3441.31
3467.23
3490.73
3511.5
3529.26
3543.81
3554.96
3562.58
3566.58
3566.94
3563.57
3556.68
3546.36
3532.82
3516.27
3496.96
3475.17
3451.16
3425.28
3397.81
3369.08
3339.41
3309.12
3278.57
3248.19
3219.92
3193.55
3166.04
3139.23
2760.18
2764.28
2769.81
2776.81
2785.32
2795.41
2807.14
2820.59
2835.81
2852.84
2871.74
2892.54
2915.22
2939.78
2966.19
2994.38
3024.25
3055.7
3088.61
3120.05
3154.97
3190.35
3225.92
3261.35
3296.2
3330.07
3362.51
3393.09
3421.43
3447.14
3469.84
3489.22
3505.01
3516.97
3524.96
3528.84
3528.47
3523.96
3515.43
3503
3486.87
3467.3
3444.58
3419.04
3391.07
3361.05
3329.38
3296.47
3262.73
3228.52
3194.23
3160.18
3126.89
3095.26
3064.1
3034.06
3005.36
2978.2
2952.66
2928.83
2906.76
2886.46
2867.95
2851.2
2836.21
2822.95
2811.39
2801.49
2793.22
2786.56
2781.49
2777.97
2775.99
2775.54
2776.56
2779.07
2783.07
2788.55
2795.53
2804
2813.96
2825.43
2838.38
2852.82
2868.74
2886.13
2904.97
2925.25
2946.96
2970.08
2994.58
3020.42
3047.56
3075.91
3105.37
3135.82
3167.04
3198.84
3230.98
3263.17
3295.11
3326.47
3356.91
3386.07
3413.59
3439.12
3462.3
3482.82
3500.35
3514.64
3525.43
3532.52
3535.76
3535.04
3530.35
3521.71
3509.18
3492.92
3473.15
3450.14
3424.22
3395.75
3365.16
3332.86
3299.29
3264.89
3230.09
3195.3
3160.9
3127.24
3094.61
3063.28
3033.47
3005.35
2979.06
2954.69
2932.31
2911.94
2893.58
2877.19
2862.72
2850.11
2839.26
2830.08
2822.47
2816.36
2811.65
2808.27
2806.16
2805.29
2805.62
2807.13
2809.8
2813.65
2818.67
2824.88
2832.31
2840.98
2850.92
2862.18
2874.81
2888.85
2904.35
2921.37
2939.94
2960.09
2981.83
3005.15
3030.03
3056.42
3084.25
3113.4
3143.75
3175.15
3207.28
3239.93
3272.8
3305.56
3337.81
3369.16
3399.17
3427.41
3453.41
3476.74
3497
3513.81
3526.82
3535.79
3540.5
3540.84
3536.78
3528.39
3515.76
3499.11
3478.69
3454.84
3427.94
3398.41
3366.73
3333.37
3298.83
3263.61
3228.17
3192.93
3158.31
3124.59
3092.07
3060.99
3031.52
3003.81
2977.95
2954.02
2932.03
2911.98
2893.84
2877.54
2863.04
2850.27
2839.17
2829.67
2821.74
2815.3
2810.33
2806.75
2804.54
2803.66
2804.06
2805.73
2808.65
2812.82
2818.26
2824.98
2833.02
2842.4
2853.15
2865.32
2878.93
2894.03
2910.65
2928.82
2948.57
2969.9
2992.82
3017.31
3043.31
3070.76
3099.54
3129.52
3160.51
3192.39
3224.68
3257.19
3289.55
3321.38
3352.26
3381.75
3409.42
3434.81
3457.48
3477
3492.98
3505.09
3513.04
3516.61
3515.75
3510.37
3500.53
3486.37
3468.16
3446.21
3420.93
3392.76
3362.21
3329.78
3296
3261.36
3226.34
3191.44
3158.95
3125.8
3093.68
3062.93
3033.74
3006.27
2980.61
2956.8
2934.88
2914.84
2896.67
2880.31
2865.72
2852.83
2841.56
2831.83
2823.57
2816.68
2811.08
2806.69
2803.46
2801.31
2800.24
2800.23
2801.33
2803.54
2806.95
2811.62
2817.65
2825.17
2834.29
2845.14
2857.84
2872.47
2889.11
2907.83
2928.62
2951.47
2976.31
3003.02
3031.45
3061.42
3092.62
3123.83
3156.5
3189.42
3222.2
3254.42
3285.66
3315.56
3343.72
3369.76
3393.38
3414.25
3432.11
3446.73
3457.94
3465.59
3469.61
3469.95
3466.56
3459.61
3449.23
3435.61
3418.96
3399.55
3377.65
3353.53
3327.54
3299.96
3271.12
3241.36
3210.97
3180.33
3149.86
3121.52
3095.02
3067.45
3040.57
2661.59
2665.67
2671.18
2678.16
2686.65
2696.71
2708.41
2721.83
2737.02
2754.03
2772.92
2793.69
2816.37
2840.93
2867.34
2895.54
2925.43
2956.9
2989.8
3021.56
3056.49
3091.97
3127.65
3163.22
3198.22
3232.25
3264.86
3295.6
3324.1
3349.96
3372.8
3392.3
3408.19
3420.23
3428.27
3432.18
3431.8
3427.25
3418.65
3406.13
3389.89
3370.2
3347.34
3321.64
3293.51
3263.34
3231.51
3198.45
3164.57
3130.24
3095.83
3061.69
3028.32
2996.6
2965.39
2935.3
2906.58
2879.39
2853.84
2830.01
2807.95
2787.66
2769.16
2752.44
2737.47
2724.22
2712.67
2702.79
2694.54
2687.9
2682.83
2679.32
2677.35
2676.9
2677.93
2680.44
2684.43
2689.91
2696.89
2705.35
2715.31
2726.77
2739.72
2754.16
2770.07
2787.46
2806.29
2826.57
2848.27
2871.39
2895.89
2921.74
2948.89
2977.26
3006.76
3037.26
3068.55
3100.44
3132.67
3164.97
3197.03
3228.52
3259.09
3288.39
3316.05
3341.72
3365.04
3385.68
3403.33
3417.72
3428.59
3435.75
3439.03
3438.32
3433.61
3424.92
3412.32
3395.96
3376.07
3352.91
3326.84
3298.21
3267.45
3234.98
3201.24
3166.69
3131.75
3096.84
3062.32
3028.58
2995.87
2964.48
2934.62
2906.48
2880.17
2855.8
2833.43
2813.07
2794.73
2778.37
2763.94
2751.36
2740.54
2731.4
2723.83
2717.75
2713.06
2709.7
2707.62
2706.76
2707.1
2708.6
2711.28
2715.12
2720.14
2726.34
2733.76
2742.41
2752.34
2763.57
2776.17
2790.19
2805.67
2822.67
2841.22
2861.36
2883.08
2906.4
2931.29
2957.7
2985.55
3014.74
3045.13
3076.6
3108.82
3141.57
3174.56
3207.44
3239.85
3271.36
3301.54
3329.94
3356.12
3379.62
3400.03
3416.97
3430.1
3439.14
3443.91
3444.26
3440.18
3431.73
3419.01
3402.24
3381.68
3357.67
3330.59
3300.88
3269
3235.46
3200.75
3165.36
3129.77
3094.41
3059.68
3025.88
2993.29
2962.16
2932.66
2904.93
2879.07
2855.14
2833.17
2813.14
2795.03
2778.77
2764.29
2751.55
2740.47
2731
2723.09
2716.68
2711.72
2708.16
2705.97
2705.09
2705.5
2707.18
2710.1
2714.26
2719.69
2726.4
2734.42
2743.79
2754.53
2766.68
2780.27
2795.35
2811.95
2830.11
2849.84
2871.16
2894.08
2918.57
2944.58
2972.05
3000.87
3030.9
3061.95
3093.93
3126.33
3158.96
3191.46
3223.44
3254.48
3284.15
3311.99
3337.56
3360.4
3380.07
3396.19
3408.41
3416.44
3420.05
3419.21
3413.79
3403.88
3389.62
3371.27
3349.16
3323.69
3295.34
3264.6
3231.98
3198.02
3163.22
3128.07
3093.08
3060.34
3027.13
2994.96
2964.16
2934.94
2907.45
2881.77
2857.97
2836.06
2816.04
2797.89
2781.56
2766.99
2754.13
2742.9
2733.2
2724.98
2718.12
2712.54
2708.18
2704.96
2702.83
2701.76
2701.74
2702.83
2705.02
2708.4
2713.03
2719.02
2726.49
2735.56
2746.37
2759.03
2773.62
2790.24
2808.94
2829.72
2852.57
2877.43
2904.18
2932.66
2962.69
2993.96
3025.35
3058.13
3091.17
3124.08
3156.45
3187.83
3217.89
3246.2
3272.38
3296.12
3317.12
3335.08
3349.78
3361.05
3368.74
3372.77
3373.11
3369.69
3362.68
3352.22
3338.5
3321.75
3302.23
3280.2
3255.96
3229.84
3202.14
3173.19
3143.31
3112.82
3082.08
3051.5
3023.08
2996.44
2968.79
2941.85
2562.93
2567
2572.49
2579.45
2587.91
2597.94
2609.61
2623
2638.16
2655.15
2674.01
2694.77
2717.43
2741.99
2768.41
2796.62
2826.53
2858.02
2890.91
2923.02
2957.98
2993.54
3029.36
3065.08
3100.25
3134.46
3167.25
3198.18
3226.85
3252.88
3275.88
3295.51
3311.52
3323.65
3331.74
3335.67
3335.29
3330.7
3322.02
3309.4
3293.04
3273.2
3250.18
3224.32
3196.02
3165.66
3133.66
3100.44
3066.4
3031.93
2997.4
2963.15
2929.69
2897.87
2866.61
2836.47
2807.72
2780.51
2754.95
2731.12
2709.06
2688.78
2670.3
2653.6
2638.64
2625.42
2613.89
2604.03
2595.8
2589.16
2584.11
2580.61
2578.65
2578.2
2579.23
2581.74
2585.74
2591.21
2598.18
2606.64
2616.6
2628.06
2641
2655.43
2671.34
2688.72
2707.55
2727.82
2749.52
2772.63
2797.13
2822.99
2850.15
2878.56
2908.1
2938.66
2970.03
3002
3034.33
3066.75
3098.94
3130.58
3161.3
3190.75
3218.57
3244.39
3267.87
3288.65
3306.44
3320.94
3331.9
3339.13
3342.45
3341.76
3337.03
3328.28
3315.6
3299.13
3279.1
3255.79
3229.54
3200.73
3169.78
3137.12
3103.21
3068.49
3033.39