/*--------------------------------*- C++ -*----------------------------------*\
| =========                 |                                                 |
| \\      /  F ield         | OpenFOAM: The Open Source CFD Toolbox           |
|  \\    /   O peration     | Version:  3.0.1                                 |
|   \\  /    A nd           | Web:      www.OpenFOAM.org                      |
|    \\/     M anipulation  |                                                 |
\*---------------------------------------------------------------------------*/
FoamFile
{
    version     2.0;
    format      ascii;
    class       surfaceScalarField;
    location    "10";
    object      alphaPhi;
}
// * * * * * * * * * * * * * * * * * * * * * * * * * * * * * * * * * * * * * //

dimensions      [0 3 -1 0 0 0 0];

internalField   nonuniform List<scalar> 
42423
(
-0.000134129
9.5688e-06
-0.000142632
8.50319e-06
-0.000150247
7.61498e-06
-0.000156996
6.74875e-06
-0.000162904
5.90773e-06
-0.000168011
5.10687e-06
-0.000172341
4.33074e-06
-0.00017591
3.56856e-06
-0.000178745
2.83479e-06
-0.000180849
2.10412e-06
-0.000182285
1.43589e-06
-0.000183079
7.94081e-07
-0.00018314
6.15811e-08
-0.000182455
-6.85973e-07
-0.000181027
-1.4276e-06
-0.00017887
-2.15726e-06
-0.000176
-2.87002e-06
-0.00017235
-3.65007e-06
-0.000167955
-4.39493e-06
-0.000162825
-5.12937e-06
-0.000156805
-6.02074e-06
-0.000149954
-6.85089e-06
-0.000142292
-7.66152e-06
-0.00013363
-8.66203e-06
-0.000124095
-9.53597e-06
-0.000113505
-1.05894e-05
-0.000101937
-1.15678e-05
-8.9513e-05
-1.24245e-05
-7.59255e-05
-1.35876e-05
-6.12765e-05
-1.46491e-05
-4.58259e-05
-1.54507e-05
-2.94026e-05
-1.64235e-05
-1.23243e-05
-1.70784e-05
5.58103e-06
-1.79054e-05
2.40646e-05
-1.84838e-05
4.27904e-05
-1.87259e-05
6.17469e-05
-1.89567e-05
8.07255e-05
-1.89787e-05
9.93349e-05
-1.86095e-05
0.000117495
-1.81605e-05
0.000134866
-1.73714e-05
0.000151258
-1.63919e-05
0.000166402
-1.51435e-05
0.000179961
-1.35593e-05
0.000191846
-1.18853e-05
0.000201791
-9.94556e-06
0.000209565
-7.77399e-06
0.000215153
-5.58819e-06
0.00021851
-3.35715e-06
0.00021946
-9.49483e-07
0.000217997
1.46278e-06
0.000214142
3.85465e-06
0.000208093
6.04863e-06
0.000199956
8.13721e-06
0.000189777
1.01792e-05
0.000177758
1.2019e-05
0.000164092
1.3666e-05
0.000148955
1.51368e-05
0.000132538
1.64167e-05
0.000115144
1.73938e-05
9.70378e-05
1.81065e-05
7.83751e-05
1.86627e-05
5.94424e-05
1.89327e-05
4.02574e-05
1.9185e-05
2.11748e-05
1.90826e-05
2.53361e-06
1.86412e-05
-1.56815e-05
1.82151e-05
-3.33224e-05
1.76409e-05
-5.02161e-05
1.68938e-05
-6.63309e-05
1.61147e-05
-8.14795e-05
1.51486e-05
-9.5646e-05
1.41665e-05
-0.000108805
1.31591e-05
-0.000120837
1.20321e-05
-0.000131713
1.08753e-05
-0.000141464
9.75148e-06
-0.00015004
8.57553e-06
-0.00015752
7.48047e-06
-0.00016386
6.33964e-06
-0.000169087
5.22731e-06
-0.000173279
4.19123e-06
-0.000176441
3.16287e-06
-0.0001786
2.15886e-06
-0.00017986
1.25945e-06
-0.000180262
4.02037e-07
-0.000179841
-4.20471e-07
-0.00017867
-1.17118e-06
-0.000176789
-1.88159e-06
-0.000174273
-2.5159e-06
-0.000171236
-3.03658e-06
-0.00016765
-3.58645e-06
-0.000163687
-3.96265e-06
-0.000159282
-4.40584e-06
-0.000154487
-4.79498e-06
-0.000149244
-5.24316e-06
-0.000143535
-5.70831e-06
-0.000137299
-6.23686e-06
-0.000130472
-6.82699e-06
-0.000122948
-7.5237e-06
-0.000114651
-8.29762e-06
-0.000105488
-9.16243e-06
-9.53822e-05
-1.01062e-05
-8.43541e-05
-1.10282e-05
-7.22107e-05
-1.21436e-05
-5.90258e-05
-1.3185e-05
-4.47597e-05
-1.42663e-05
-2.94253e-05
-1.53346e-05
-1.32469e-05
-1.61787e-05
3.80672e-06
-1.70538e-05
2.15889e-05
-1.77824e-05
3.98867e-05
-1.82981e-05
5.85072e-05
-1.86208e-05
7.72312e-05
-1.87242e-05
9.57745e-05
-1.85436e-05
0.00011387
-1.80956e-05
0.000131224
-1.7354e-05
0.000147539
-1.63153e-05
0.000162527
-1.49889e-05
0.000175916
-1.3389e-05
0.000187454
-1.15381e-05
0.000196937
-9.48297e-06
0.000204199
-7.26242e-06
0.000209105
-4.90649e-06
0.000211606
-2.50112e-06
0.00021164
-3.40988e-08
0.000209318
2.32137e-06
0.000204637
4.68095e-06
0.000197788
6.84943e-06
0.000188933
8.85419e-06
0.000178278
1.06549e-05
0.00016604
1.22385e-05
0.000152469
1.3571e-05
0.000137795
1.46739e-05
0.000122296
1.54984e-05
0.000106202
1.60944e-05
8.97824e-05
1.64194e-05
7.32436e-05
1.65388e-05
5.67705e-05
1.64731e-05
4.05837e-05
1.61868e-05
2.48239e-05
1.57598e-05
9.62793e-06
1.5196e-05
-4.90456e-06
1.45325e-05
-1.87097e-05
1.38051e-05
-3.16821e-05
1.29724e-05
-4.38515e-05
1.21695e-05
-5.51325e-05
1.12809e-05
-6.5542e-05
1.04095e-05
-7.50736e-05
9.53161e-06
-8.37397e-05
8.66614e-06
-9.1554e-05
7.81428e-06
-9.85416e-05
6.98759e-06
-0.000104722
6.18e-06
-0.000110106
5.38481e-06
-0.000114733
4.62675e-06
-0.000118608
3.87474e-06
-0.000121737
3.12882e-06
-0.000124173
2.43669e-06
-0.000125911
1.7379e-06
-0.000126965
1.05383e-06
-0.000127359
3.93934e-07
-0.00012709
-2.68948e-07
-0.000126159
-9.3067e-07
-0.000124578
-1.58155e-06
-0.000122347
-2.23133e-06
-0.000119464
-2.88298e-06
-0.000115926
-3.53748e-06
-0.000111737
-4.18901e-06
-0.000106888
-4.84902e-06
-0.000101387
-5.50154e-06
-9.5222e-05
-6.16468e-06
-8.84088e-05
-6.81323e-06
-8.09561e-05
-7.45269e-06
-7.28712e-05
-8.085e-06
-6.41776e-05
-8.69363e-06
-5.49042e-05
-9.27334e-06
-4.50833e-05
-9.82099e-06
-3.47644e-05
-1.03189e-05
-2.39978e-05
-1.07667e-05
-1.28582e-05
-1.11396e-05
-1.40969e-06
-1.14486e-05
1.02658e-05
-1.16755e-05
2.20676e-05
-1.18019e-05
3.38853e-05
-1.18177e-05
4.56133e-05
-1.1728e-05
5.71282e-05
-1.1515e-05
6.83242e-05
-1.11961e-05
7.90776e-05
-1.07534e-05
8.92668e-05
-1.01893e-05
9.87705e-05
-9.50376e-06
0.000107477
-8.70628e-06
0.00011528
-7.80371e-06
0.000122084
-6.80368e-06
0.000127811
-5.72665e-06
0.000132398
-4.58696e-06
0.000135789
-3.39195e-06
0.000137961
-2.17157e-06
0.000138906
-9.4461e-07
0.000138654
2.51625e-07
0.000137183
1.47113e-06
0.000134559
2.6237e-06
0.000130857
3.70203e-06
0.000126154
4.7032e-06
0.000120537
5.61662e-06
0.000114105
6.43152e-06
0.000106976
7.12956e-06
9.92625e-05
7.71332e-06
9.10798e-05
8.18266e-06
8.25154e-05
8.56437e-06
7.37463e-05
8.76914e-06
6.48655e-05
8.88075e-06
5.59783e-05
8.88719e-06
4.71882e-05
8.79008e-06
3.85925e-05
8.59567e-06
3.02129e-05
8.37962e-06
2.21954e-05
8.01748e-06
1.45763e-05
7.61908e-06
7.40617e-06
7.17014e-06
6.90219e-07
6.71595e-06
-5.50629e-06
6.1965e-06
-1.11658e-05
5.65953e-06
-1.6278e-05
5.1122e-06
-2.08371e-05
4.55908e-06
-2.48419e-05
4.00476e-06
-2.82982e-05
3.45631e-06
-3.12164e-05
2.91819e-06
-3.36082e-05
2.39183e-06
-3.54948e-05
1.88661e-06
-3.68941e-05
1.39926e-06
-3.78277e-05
9.33581e-07
-3.83245e-05
4.96769e-07
-3.84071e-05
8.2621e-08
-3.81001e-05
-3.06949e-07
-3.743e-05
-6.70082e-07
-3.64257e-05
-1.00434e-06
-3.51106e-05
-1.31509e-06
-3.3514e-05
-1.5966e-06
-3.16602e-05
-1.85386e-06
-2.95742e-05
-2.086e-06
-2.72838e-05
-2.29035e-06
-2.48127e-05
-2.47108e-06
-2.21856e-05
-2.62718e-06
-1.94284e-05
-2.75713e-06
-1.65625e-05
-2.86589e-06
-1.36152e-05
-2.94734e-06
-1.06051e-05
-3.0101e-06
-7.55636e-06
-3.04874e-06
-4.4933e-06
-3.06306e-06
-1.43205e-06
-3.06124e-06
1.604e-06
-3.03606e-06
4.59856e-06
-2.99456e-06
7.5302e-06
-2.93164e-06
1.03849e-05
-2.85473e-06
1.31442e-05
-2.75931e-06
1.57957e-05
-2.65147e-06
1.8324e-05
-2.52826e-06
2.07183e-05
-2.39436e-06
2.29683e-05
-2.24992e-06
2.50633e-05
-2.09505e-06
2.69977e-05
-1.9344e-06
2.87622e-05
-1.76447e-06
3.03544e-05
-1.59226e-06
3.17707e-05
-1.41631e-06
3.30082e-05
-1.23748e-06
3.4068e-05
-1.05979e-06
3.49495e-05
-8.81552e-07
3.56557e-05
-7.06111e-07
3.61903e-05
-5.34679e-07
3.65587e-05
-3.68344e-07
3.67654e-05
-2.06684e-07
3.68184e-05
-5.30013e-08
3.67254e-05
9.29747e-08
3.64937e-05
2.31642e-07
3.61316e-05
3.62173e-07
3.5649e-05
4.8261e-07
3.5055e-05
5.94012e-07
3.43593e-05
6.95648e-07
3.35716e-05
7.87727e-07
3.27019e-05
8.69688e-07
3.17601e-05
9.41808e-07
3.07561e-05
1.00403e-06
2.96995e-05
1.05657e-06
2.85995e-05
1.10001e-06
2.74657e-05
1.13375e-06
2.63063e-05
1.15941e-06
2.51299e-05
1.17646e-06
2.3944e-05
1.1859e-06
2.27557e-05
1.18827e-06
2.1572e-05
1.1837e-06
2.03987e-05
1.17327e-06
1.92416e-05
1.15717e-06
1.81054e-05
1.13618e-06
1.69945e-05
1.11083e-06
1.5913e-05
1.08155e-06
1.4864e-05
1.04903e-06
1.38502e-05
1.01372e-06
1.28742e-05
9.76043e-07
1.19376e-05
9.36564e-07
1.1042e-05
8.95624e-07
1.01884e-05
8.53639e-07
9.37739e-06
8.10975e-07
8.60946e-06
7.67937e-07
7.88458e-06
7.2488e-07
7.20251e-06
6.82063e-07
6.56281e-06
6.39703e-07
5.96474e-06
5.98068e-07
5.40738e-06
5.57365e-07
4.88968e-06
5.177e-07
4.41037e-06
4.79308e-07
3.96813e-06
4.42232e-07
3.56148e-06
4.06655e-07
3.18889e-06
3.72589e-07
2.84876e-06
3.40135e-07
2.53944e-06
3.09311e-07
2.25928e-06
2.8016e-07
2.0066e-06
2.52683e-07
1.77973e-06
2.26874e-07
1.57698e-06
2.02745e-07
1.39675e-06
1.80228e-07
1.23741e-06
1.59348e-07
1.09741e-06
1.39996e-07
9.75225e-07
1.22185e-07
8.69407e-07
1.05818e-07
7.78567e-07
9.08401e-08
7.01337e-07
7.72294e-08
6.36487e-07
6.48499e-08
5.82744e-07
5.3743e-08
5.39001e-07
4.37434e-08
5.042e-07
3.48008e-08
4.77273e-07
2.69273e-08
4.57292e-07
1.99799e-08
4.43402e-07
1.389e-08
4.3481e-07
8.59262e-09
4.30635e-07
4.17466e-09
4.30834e-07
-1.98618e-10
4.34582e-07
-3.74868e-09
4.4107e-07
-6.48814e-09
4.4969e-07
-8.6196e-09
4.59923e-07
-1.02337e-08
4.71321e-07
-1.13972e-08
4.83487e-07
-1.21662e-08
4.96078e-07
-1.25911e-08
5.08795e-07
-1.27171e-08
5.21381e-07
-1.25858e-08
5.33616e-07
-1.22349e-08
5.45313e-07
-1.1698e-08
5.56318e-07
-1.1005e-08
5.66501e-07
-1.01827e-08
5.75756e-07
-9.2547e-09
5.83998e-07
-8.242e-09
5.91174e-07
-7.17634e-09
5.97195e-07
-6.02133e-09
6.02037e-07
-4.84206e-09
6.05687e-07
-3.65004e-09
6.08155e-07
-2.46791e-09
6.09432e-07
-1.27693e-09
6.09429e-07
3.60585e-12
1.25094e-09
-0.000134172
1.91427e-05
-0.000142675
1.70057e-05
-0.000150292
1.52319e-05
-0.000157043
1.35e-05
-0.000162952
1.18163e-05
-0.00016806
1.02154e-05
-0.000172393
8.66352e-06
-0.000175973
7.14868e-06
-0.000178817
5.67829e-06
-0.000180914
4.20149e-06
-0.00018234
2.86215e-06
-0.000183133
1.58697e-06
-0.000183195
1.23368e-07
-0.000182509
-1.37156e-06
-0.000181079
-2.85792e-06
-0.000178919
-4.31734e-06
-0.000176052
-5.737e-06
-0.000172404
-7.29801e-06
-0.000168011
-8.78853e-06
-0.000162884
-1.02565e-05
-0.000156864
-1.20406e-05
-0.000150013
-1.37017e-05
-0.000142353
-1.53218e-05
-0.000133691
-1.7324e-05
-0.000124156
-1.90713e-05
-0.000113566
-2.11796e-05
-0.000101998
-2.31364e-05
-8.9571e-05
-2.48513e-05
-7.59739e-05
-2.71848e-05
-6.1326e-05
-2.92973e-05
-4.58733e-05
-3.09035e-05
-2.94479e-05
-3.28492e-05
-1.2362e-05
-3.41645e-05
5.54764e-06
-3.58154e-05
2.40395e-05
-3.69759e-05
4.27745e-05
-3.74611e-05
6.17422e-05
-3.79247e-05
8.07329e-05
-3.79697e-05
9.93543e-05
-3.72312e-05
0.000117529
-3.63352e-05
0.000134914
-3.47566e-05
0.000151319
-3.27979e-05
0.000166476
-3.03e-05
0.000180048
-2.71315e-05
0.000191942
-2.37795e-05
0.000201897
-1.99014e-05
0.000209676
-1.55529e-05
0.000215267
-1.11792e-05
0.000218631
-6.72165e-06
0.000219585
-1.9038e-06
0.000218116
2.93202e-06
0.000214265
7.70503e-06
0.00020822
1.20937e-05
0.000200079
1.62785e-05
0.000189894
2.03643e-05
0.000177867
2.40456e-05
0.000164192
2.73408e-05
0.000149046
3.02825e-05
0.00013262
3.28429e-05
0.000115209
3.48052e-05
9.70882e-05
3.62268e-05
7.84131e-05
3.73378e-05
5.94731e-05
3.78726e-05
4.02748e-05
3.83833e-05
2.11779e-05
3.81794e-05
2.52388e-06
3.72953e-05
-1.57048e-05
3.64438e-05
-3.33571e-05
3.52932e-05
-5.02607e-05
3.37975e-05
-6.63855e-05
3.22394e-05
-8.15438e-05
3.03069e-05
-9.57141e-05
2.83368e-05
-0.000108872
2.63174e-05
-0.000120904
2.40638e-05
-0.00013178
2.1751e-05
-0.000141539
1.95108e-05
-0.00015012
1.71561e-05
-0.000157599
1.49596e-05
-0.000163941
1.26817e-05
-0.000169172
1.04578e-05
-0.000173365
8.38394e-06
-0.000176526
6.32423e-06
-0.000178688
4.32093e-06
-0.000179953
2.52401e-06
-0.000180346
7.95463e-07
-0.000179917
-8.4955e-07
-0.00017875
-2.33828e-06
-0.000176868
-3.76356e-06
-0.000174347
-5.0371e-06
-0.00017131
-6.07334e-06
-0.000167722
-7.17503e-06
-0.000163771
-7.91388e-06
-0.000159352
-8.82482e-06
-0.000154548
-9.59938e-06
-0.000149311
-1.048e-05
-0.000143606
-1.14134e-05
-0.00013737
-1.2473e-05
-0.000130543
-1.36541e-05
-0.000123028
-1.50387e-05
-0.000114731
-1.65943e-05
-0.00010556
-1.83345e-05
-9.54547e-05
-2.02113e-05
-8.44229e-05
-2.20602e-05
-7.22837e-05
-2.42832e-05
-5.90962e-05
-2.63728e-05
-4.48258e-05
-2.8537e-05
-2.94823e-05
-3.06784e-05
-1.32964e-05
-3.23649e-05
3.76812e-06
-3.41187e-05
2.15633e-05
-3.5578e-05
3.98749e-05
-3.66101e-05
5.851e-05
-3.72563e-05
7.72498e-05
-3.74643e-05
9.58086e-05
-3.71028e-05
0.000113921
-3.62081e-05
0.000131291
-3.47248e-05
0.00014762
-3.2645e-05
0.000162627
-2.99959e-05
0.000176027
-2.67896e-05
0.000187587
-2.30982e-05
0.000197088
-1.89842e-05
0.000204345
-1.45199e-05
0.000209251
-9.81277e-06
0.00021176
-5.01038e-06
0.000211782
-5.70825e-08
0.000209455
4.64852e-06
0.000204772
9.36377e-06
0.000197915
1.37055e-05
0.00018905
1.77191e-05
0.000178384
2.13212e-05
0.000166132
2.44896e-05
0.000152549
2.71542e-05
0.000137872
2.93511e-05
0.000122348
3.10221e-05
0.00010624
3.22024e-05
8.98067e-05
3.28524e-05
7.32574e-05
3.3088e-05
5.67802e-05
3.29502e-05
4.05825e-05
3.23846e-05
2.48109e-05
3.15313e-05
9.60538e-06
3.04015e-05
-4.93434e-06
2.90722e-05
-1.87434e-05
2.76142e-05
-3.17194e-05
2.59485e-05
-4.38934e-05
2.43434e-05
-5.51765e-05
2.25641e-05
-6.55856e-05
2.08185e-05
-7.5119e-05
1.90651e-05
-8.37883e-05
1.73355e-05
-9.16041e-05
1.563e-05
-9.85914e-05
1.39749e-05
-0.000104773
1.23614e-05
-0.000110159
1.07712e-05
-0.000114783
9.251e-06
-0.000118656
7.74715e-06
-0.000121785
6.25788e-06
-0.000124225
4.87669e-06
-0.000125963
3.4764e-06
-0.00012702
2.11079e-06
-0.000127413
7.86153e-07
-0.000127142
-5.40032e-07
-0.000126211
-1.86095e-06
-0.000124626
-3.16695e-06
-0.000122392
-4.46471e-06
-0.000119512
-5.76374e-06
-0.000115975
-7.07467e-06
-0.000111785
-8.37849e-06
-0.000106935
-9.699e-06
-0.000101432
-1.10049e-05
-9.52679e-05
-1.23287e-05
-8.84525e-05
-1.36286e-05
-8.09943e-05
-1.4911e-05
-7.2908e-05
-1.61713e-05
-6.42132e-05
-1.73885e-05
-5.49371e-05
-1.85494e-05
-4.51125e-05
-1.96456e-05
-3.47896e-05
-2.06419e-05
-2.4019e-05
-2.15374e-05
-1.28725e-05
-2.22861e-05
-1.41617e-06
-2.2905e-05
1.02721e-05
-2.33639e-05
2.20723e-05
-2.36021e-05
3.38972e-05
-2.36428e-05
4.56241e-05
-2.34549e-05
5.71491e-05
-2.30401e-05
6.83534e-05
-2.24005e-05
7.91147e-05
-2.15148e-05
8.93112e-05
-2.03859e-05
9.88218e-05
-1.90144e-05
0.000107534
-1.74189e-05
0.000115343
-1.56124e-05
0.000122156
-1.36173e-05
0.000127888
-1.14584e-05
0.000132473
-9.17161e-06
0.000135866
-6.78518e-06
0.000138037
-4.34325e-06
0.000138985
-1.89272e-06
0.000138729
5.07804e-07
0.000137266
2.93389e-06
0.000134629
5.26066e-06
0.000130923
7.40791e-06
0.000126215
9.41101e-06
0.000120594
1.12385e-05
0.000114156
1.28691e-05
0.00010702
1.42653e-05
9.92995e-05
1.54339e-05
9.1114e-05
1.63681e-05
8.25415e-05
1.71368e-05
7.37659e-05
1.75447e-05
6.48788e-05
1.77678e-05
5.59857e-05
1.77803e-05
4.71895e-05
1.75863e-05
3.85923e-05
1.71928e-05
3.02055e-05
1.67664e-05
2.21842e-05
1.60388e-05
1.45617e-05
1.52415e-05
7.39069e-06
1.43412e-05
6.69631e-07
1.3437e-05
-5.52878e-06
1.23949e-05
-1.11916e-05
1.13224e-05
-1.63027e-05
1.02233e-05
-2.08627e-05
9.11906e-06
-2.48679e-05
8.00998e-06
-2.83245e-05
6.91289e-06
-3.12426e-05
5.83623e-06
-3.36348e-05
4.78401e-06
-3.55212e-05
3.77303e-06
-3.69192e-05
2.79722e-06
-3.78523e-05
1.86673e-06
-3.83479e-05
9.92394e-07
-3.84294e-05
1.64046e-07
-3.81213e-05
-6.15041e-07
-3.74502e-05
-1.34114e-06
-3.64446e-05
-2.01e-06
-3.51282e-05
-2.63149e-06
-3.35303e-05
-3.19443e-06
-3.16751e-05
-3.70911e-06
-2.95878e-05
-4.17326e-06
-2.7296e-05
-4.58215e-06
-2.48235e-05
-4.94368e-06
-2.2195e-05
-5.25565e-06
-1.94363e-05
-5.51577e-06
-1.6569e-05
-5.73326e-06
-1.36203e-05
-5.89605e-06
-1.06088e-05
-6.0216e-06
-7.55883e-06
-6.09869e-06
-4.49417e-06
-6.12772e-06
-1.43169e-06
-6.12373e-06
1.60579e-06
-6.07355e-06
4.60168e-06
-5.99045e-06
7.53448e-06
-5.86444e-06
1.03904e-05
-5.71069e-06
1.31508e-05
-5.51964e-06
1.58035e-05
-5.30417e-06
1.83327e-05
-5.05754e-06
2.07281e-05
-4.78969e-06
2.29784e-05
-4.50026e-06
2.50742e-05
-4.19082e-06
2.70091e-05
-3.86931e-06
2.87742e-05
-3.52955e-06
3.0367e-05
-3.18512e-06
3.17835e-05
-2.83275e-06
3.30214e-05
-2.47541e-06
3.40815e-05
-2.11985e-06
3.49628e-05
-1.76289e-06
3.56689e-05
-1.41218e-06
3.62038e-05
-1.06959e-06
3.65717e-05
-7.36287e-07
3.67781e-05
-4.13078e-07
3.68308e-05
-1.0571e-07
3.67376e-05
1.86189e-07
3.65054e-05
4.63842e-07
3.61427e-05
7.24844e-07
3.56597e-05
9.65675e-07
3.50651e-05
1.18853e-06
3.4369e-05
1.39184e-06
3.35807e-05
1.57602e-06
3.27104e-05
1.73997e-06
3.1768e-05
1.88422e-06
3.07633e-05
2.00868e-06
2.97062e-05
2.11372e-06
2.86056e-05
2.20061e-06
2.74712e-05
2.26809e-06
2.63112e-05
2.31939e-06
2.51343e-05
2.35344e-06
2.39478e-05
2.37232e-06
2.27591e-05
2.37704e-06
2.15749e-05
2.36786e-06
2.04012e-05
2.34698e-06
1.92436e-05
2.31475e-06
1.8107e-05
2.27275e-06
1.69959e-05
2.22201e-06
1.5914e-05
2.16341e-06
1.48647e-05
2.09836e-06
1.38507e-05
2.0277e-06
1.28744e-05
1.95232e-06
1.19376e-05
1.87334e-06
1.10418e-05
1.79143e-06
1.0188e-05
1.70744e-06
9.3769e-06
1.62209e-06
8.60884e-06
1.53599e-06
7.88386e-06
1.44986e-06
7.20172e-06
1.36421e-06
6.56195e-06
1.27947e-06
5.96383e-06
1.19619e-06
5.40643e-06
1.11477e-06
4.88871e-06
1.03542e-06
4.40939e-06
9.58627e-07
3.96716e-06
8.84466e-07
3.56051e-06
8.13302e-07
3.18793e-06
7.45163e-07
2.84782e-06
6.80249e-07
2.53854e-06
6.18594e-07
2.25841e-06
5.60289e-07
2.00576e-06
5.05331e-07
1.77892e-06
4.5371e-07
1.57622e-06
4.05448e-07
1.39603e-06
3.60413e-07
1.23673e-06
3.18653e-07
1.09678e-06
2.79948e-07
9.74634e-07
2.44328e-07
8.68861e-07
2.11591e-07
7.78062e-07
1.81639e-07
7.00874e-07
1.54417e-07
6.36064e-07
1.2966e-07
5.8236e-07
1.07447e-07
5.38655e-07
8.74486e-08
5.03891e-07
6.9564e-08
4.76996e-07
5.38224e-08
4.57051e-07
3.99251e-08
4.43195e-07
2.77455e-08
4.34629e-07
1.71581e-08
4.30485e-07
8.31917e-09
4.30715e-07
-4.2856e-10
4.34489e-07
-7.52364e-09
4.41001e-07
-1.29999e-08
4.49642e-07
-1.72605e-08
4.59895e-07
-2.04866e-08
4.71309e-07
-2.28116e-08
4.83491e-07
-2.43478e-08
4.96095e-07
-2.51956e-08
5.08824e-07
-2.54458e-08
5.21419e-07
-2.51815e-08
5.33662e-07
-2.4478e-08
5.45367e-07
-2.34024e-08
5.56377e-07
-2.20149e-08
5.66563e-07
-2.03689e-08
5.75819e-07
-1.85114e-08
5.84062e-07
-1.64848e-08
5.91238e-07
-1.43525e-08
5.97259e-07
-1.20424e-08
6.021e-07
-9.68309e-09
6.05749e-07
-7.29843e-09
6.08214e-07
-4.93331e-09
6.09489e-07
-2.5514e-09
6.09481e-07
1.14471e-11
2.50973e-09
-0.000134253
2.87211e-05
-0.000142759
2.55116e-05
-0.00015038
2.28527e-05
-0.000157134
2.02544e-05
-0.000163044
1.7726e-05
-0.00016815
1.53213e-05
-0.000172477
1.29903e-05
-0.000176054
1.07264e-05
-0.000178905
8.52894e-06
-0.00018102
6.31672e-06
-0.000182445
4.28661e-06
-0.000183214
2.35599e-06
-0.000183257
1.66648e-07
-0.000182566
-2.06263e-06
-0.000181132
-4.29188e-06
-0.000178975
-6.47426e-06
-0.000176109
-8.60282e-06
-0.000172463
-1.09445e-05
-0.000168072
-1.31797e-05
-0.000162947
-1.53809e-05
-0.00015693
-1.80578e-05
-0.000150083
-2.05494e-05
-0.000142425
-2.29792e-05
-0.000133767
-2.59828e-05
-0.000124234
-2.8604e-05
-0.000113647
-3.17668e-05
-0.000102081
-3.47025e-05
-8.96522e-05
-3.72806e-05
-7.60469e-05
-4.07903e-05
-6.13988e-05
-4.39455e-05
-4.59443e-05
-4.63583e-05
-2.95169e-05
-4.92768e-05
-1.24209e-05
-5.12607e-05
5.50518e-06
-5.37417e-05
2.40121e-05
-5.54832e-05
4.27622e-05
-5.62113e-05
6.17474e-05
-5.69102e-05
8.07548e-05
-5.69774e-05
9.93943e-05
-5.58709e-05
0.000117589
-5.45304e-05
0.000134992
-5.21596e-05
0.000151418
-4.92237e-05
0.000166592
-4.5475e-05
0.000180183
-4.07221e-05
0.000192092
-3.56891e-05
0.000202056
-2.98656e-05
0.000209834
-2.33309e-05
0.000215425
-1.67706e-05
0.000218803
-1.00995e-05
0.000219763
-2.86403e-06
0.000218272
4.4227e-06
0.000214423
1.15544e-05
0.000208387
1.81292e-05
0.000200236
2.44295e-05
0.000190038
3.05618e-05
0.000177998
3.60858e-05
0.000164309
4.103e-05
0.000149148
4.54434e-05
0.000132718
4.92727e-05
0.000115271
5.22521e-05
9.71307e-05
5.4367e-05
7.8434e-05
5.60344e-05
5.9469e-05
5.68376e-05
4.02699e-05
5.75824e-05
2.11555e-05
5.72939e-05
2.48822e-06
5.59626e-05
-1.57548e-05
5.46868e-05
-3.34182e-05
5.29566e-05
-5.03279e-05
5.07071e-05
-6.64611e-05
4.83727e-05
-8.16232e-05
4.5469e-05
-9.57963e-05
4.25099e-05
-0.000108958
3.94794e-05
-0.000120997
3.61024e-05
-0.000131877
3.26309e-05
-0.000141632
2.92658e-05
-0.000150204
2.57281e-05
-0.000157682
2.24372e-05
-0.000164024
1.90244e-05
-0.000169255
1.5688e-05
-0.000173447
1.25765e-05
-0.000176612
9.48876e-06
-0.000178776
6.48507e-06
-0.000180032
3.77985e-06
-0.000180419
1.18233e-06
-0.000179985
-1.28322e-06
-0.000178809
-3.51461e-06
-0.000176915
-5.65744e-06
-0.000174389
-7.56329e-06
-0.000171357
-9.10563e-06
-0.000167767
-1.07655e-05
-0.000163816
-1.1864e-05
-0.000159398
-1.32435e-05
-0.000154593
-1.44042e-05
-0.000149355
-1.57183e-05
-0.000143649
-1.71191e-05
-0.000137417
-1.87056e-05
-0.000130601
-2.04704e-05
-0.000123092
-2.25473e-05
-0.000114805
-2.4882e-05
-0.000105638
-2.75012e-05
-9.55449e-05
-3.03047e-05
-8.44939e-05
-3.31114e-05
-7.23802e-05
-3.63972e-05
-5.91815e-05
-3.95717e-05
-4.49102e-05
-4.28086e-05
-2.95609e-05
-4.60281e-05
-1.33651e-05
-4.85611e-05
3.71803e-06
-5.12022e-05
2.15311e-05
-5.33915e-05
3.98584e-05
-5.49378e-05
5.85132e-05
-5.59115e-05
7.72765e-05
-5.6228e-05
9.58565e-05
-5.56832e-05
0.000113993
-5.43445e-05
0.000131385
-5.21178e-05
0.000147739
-4.89996e-05
0.000162768
-4.50246e-05
0.000176193
-4.02148e-05
0.000187765
-3.46709e-05
0.00019727
-2.84895e-05
0.000204535
-2.17859e-05
0.000209449
-1.47265e-05
0.00021196
-7.52161e-06
0.00021198
-7.76873e-08
0.000209628
7.0004e-06
0.000204936
1.40548e-05
0.000198069
2.05724e-05
0.000189189
2.65992e-05
0.000178505
3.20054e-05
0.000166235
3.67595e-05
0.000152631
4.07574e-05
0.000137966
4.4016e-05
0.00012239
4.6598e-05
0.000106266
4.83265e-05
8.98135e-05
4.93046e-05
7.32462e-05
4.96552e-05
5.67691e-05
4.94273e-05
4.05426e-05
4.86111e-05
2.47633e-05
4.73106e-05
9.55026e-06
4.56145e-05
-4.9992e-06
4.36217e-05
-1.88103e-05
4.14253e-05
-3.17933e-05
3.89314e-05
-4.39596e-05
3.65098e-05
-5.52474e-05
3.38519e-05
-6.56584e-05
3.12295e-05
-7.51908e-05
2.85975e-05
-8.38571e-05
2.60018e-05
-9.16719e-05
2.34448e-05
-9.86586e-05
2.09616e-05
-0.000104839
1.85415e-05
-0.000110223
1.6155e-05
-0.000114845
1.38736e-05
-0.000118716
1.16178e-05
-0.000121841
9.38353e-06
-0.000124283
7.31799e-06
-0.000126021
5.2148e-06
-0.000127076
3.16579e-06
-0.000127464
1.17428e-06
-0.000127194
-8.10594e-07
-0.000126263
-2.79161e-06
-0.000124679
-4.7516e-06
-0.000122445
-6.69854e-06
-0.000119561
-8.64754e-06
-0.000116023
-1.0613e-05
-0.000111834
-1.25672e-05
-0.000106985
-1.45479e-05
-0.000101482
-1.65076e-05
-9.53185e-05
-1.84926e-05
-8.85031e-05
-2.0444e-05
-8.10438e-05
-2.23703e-05
-7.29532e-05
-2.42619e-05
-6.4254e-05
-2.60879e-05
-5.49751e-05
-2.78284e-05
-4.51476e-05
-2.94732e-05
-3.48213e-05
-3.09682e-05
-2.40462e-05
-3.23126e-05
-1.28896e-05
-3.34427e-05
-1.4189e-06
-3.43758e-05
1.02684e-05
-3.50513e-05
2.20774e-05
-3.54112e-05
3.39058e-05
-3.54712e-05
4.56386e-05
-3.51878e-05
5.71771e-05
-3.45786e-05
6.8393e-05
-3.36165e-05
7.9165e-05
-3.22869e-05
8.93719e-05
-3.05929e-05
9.88917e-05
-2.85343e-05
0.000107613
-2.61404e-05
0.00011543
-2.3429e-05
0.000122246
-2.04343e-05
0.000127981
-1.71931e-05
0.00013257
-1.37608e-05
0.000135967
-1.01818e-05
0.000138141
-6.51787e-06
0.000139091
-2.84247e-06
0.000138821
7.77544e-07
0.000137365
4.3899e-06
0.000134715
7.91096e-06
0.000131003
1.11198e-05
0.000126287
1.41262e-05
0.000120657
1.68686e-05
0.00011421
1.9316e-05
0.000107065
2.14108e-05
9.93328e-05
2.31656e-05
9.11445e-05
2.45564e-05
8.25605e-05
2.57208e-05
7.3775e-05
2.63301e-05
6.48786e-05
2.66642e-05
5.59775e-05
2.66814e-05
4.71727e-05
2.6391e-05
3.85736e-05
2.5792e-05
3.01777e-05
2.51622e-05
2.21521e-05
2.40644e-05
1.45252e-05
2.28685e-05
7.35513e-06
2.15112e-05
6.284e-07
2.01637e-05
-5.57135e-06
1.85946e-05
-1.12357e-05
1.69867e-05
-1.63471e-05
1.53348e-05
-2.09072e-05
1.36791e-05
-2.49119e-05
1.20147e-05
-2.83677e-05
1.03686e-05
-3.12843e-05
8.75283e-06
-3.36747e-05
7.17448e-06
-3.55599e-05
5.65815e-06
-3.69567e-05
4.19401e-06
-3.78882e-05
2.79828e-06
-3.83809e-05
1.4851e-06
-3.84598e-05
2.42872e-07
-3.81494e-05
-9.2544e-07
-3.74766e-05
-2.01391e-06
-3.64687e-05
-3.01792e-06
-3.51502e-05
-3.94998e-06
-3.35504e-05
-4.79422e-06
-3.1693e-05
-5.56654e-06
-2.9604e-05
-6.26227e-06
-2.73101e-05
-6.87605e-06
-2.48353e-05
-7.41847e-06
-2.22052e-05
-7.88571e-06
-1.94446e-05
-8.27644e-06
-1.6576e-05
-8.60184e-06
-1.36249e-05
-8.8471e-06
-1.06117e-05
-9.03481e-06
-7.5602e-06
-9.15019e-06
-4.49366e-06
-9.19426e-06
-1.42981e-06
-9.18757e-06
1.60937e-06
-9.11273e-06
4.60677e-06
-8.98785e-06
7.54087e-06
-8.79854e-06
1.03982e-05
-8.56802e-06
1.31597e-05
-8.28112e-06
1.58135e-05
-7.95794e-06
1.83435e-05
-7.58755e-06
2.07402e-05
-7.18639e-06
2.29907e-05
-6.7508e-06
2.50872e-05
-6.28733e-06
2.70222e-05
-5.80426e-06
2.87881e-05
-5.29546e-06
3.03818e-05
-4.77886e-06
3.17978e-05
-4.24878e-06
3.30358e-05
-3.71334e-06
3.40957e-05
-3.17976e-06
3.49768e-05
-2.64397e-06
3.56827e-05
-2.11816e-06
3.62176e-05
-1.60449e-06
3.65844e-05
-1.10304e-06
3.67905e-05
-6.19145e-07
3.68426e-05
-1.57836e-07
3.67487e-05
2.80095e-07
3.65155e-05
6.97025e-07
3.61522e-05
1.08813e-06
3.56685e-05
1.44943e-06
3.50732e-05
1.78378e-06
3.43763e-05
2.08879e-06
3.35872e-05
2.3651e-06
3.27161e-05
2.61103e-06
3.17729e-05
2.82743e-06
3.07675e-05
3.01411e-06
2.97096e-05
3.17159e-06
2.86083e-05
3.3019e-06
2.74732e-05
3.40319e-06
2.63126e-05
3.48e-06
2.5135e-05
3.53103e-06
2.3948e-05
3.55931e-06
2.27587e-05
3.56634e-06
2.15741e-05
3.55252e-06
2.03999e-05
3.52113e-06
1.92419e-05
3.47272e-06
1.8105e-05
3.40966e-06
1.69935e-05
3.33349e-06
1.59114e-05
3.24554e-06
1.48619e-05
3.14791e-06
1.38477e-05
3.04187e-06
1.28713e-05
2.92875e-06
1.19344e-05
2.81023e-06
1.10385e-05
2.68732e-06
1.01846e-05
2.56129e-06
9.3735e-06
2.43323e-06
8.60544e-06
2.30405e-06
7.88048e-06
2.17482e-06
7.19838e-06
2.04631e-06
6.55867e-06
1.91918e-06
5.96062e-06
1.79423e-06
5.40331e-06
1.67208e-06
4.88568e-06
1.55305e-06
4.40647e-06
1.43784e-06
3.96435e-06
1.32659e-06
3.55782e-06
1.21983e-06
3.18538e-06
1.11761e-06
2.84539e-06
1.02023e-06
2.53624e-06
9.27745e-07
2.25624e-06
8.40286e-07
2.00373e-06
7.57845e-07
1.77702e-06
6.80416e-07
1.57445e-06
6.08023e-07
1.39439e-06
5.40473e-07
1.2352e-06
4.77835e-07
1.09537e-06
4.19779e-07
9.73342e-07
3.66358e-07
8.6768e-07
3.17253e-07
7.76984e-07
2.72335e-07
6.99898e-07
2.31503e-07
6.35183e-07
1.94375e-07
5.8157e-07
1.61059e-07
5.37951e-07
1.31068e-07
5.03269e-07
1.04246e-07
4.76443e-07
8.06481e-08
4.56569e-07
5.97984e-08
4.42784e-07
4.1531e-08
4.34271e-07
2.56711e-08
4.30184e-07
1.2406e-08
4.30472e-07
-7.16939e-10
4.34294e-07
-1.13462e-08
4.40848e-07
-1.95534e-08
4.49526e-07
-2.59385e-08
4.59812e-07
-3.07725e-08
4.71255e-07
-3.42554e-08
4.83463e-07
-3.65552e-08
4.9609e-07
-3.78228e-08
5.08838e-07
-3.81942e-08
5.21451e-07
-3.77942e-08
5.33708e-07
-3.67355e-08
5.45425e-07
-3.51189e-08
5.56445e-07
-3.30348e-08
5.66639e-07
-3.0563e-08
5.75902e-07
-2.77744e-08
5.84149e-07
-2.47324e-08
5.91329e-07
-2.1532e-08
5.97353e-07
-1.80668e-08
6.02196e-07
-1.45259e-08
6.05845e-07
-1.09473e-08
6.08309e-07
-7.39725e-09
6.09582e-07
-3.82463e-09
6.09572e-07
2.14626e-11
3.77108e-09
-0.00013437
3.83029e-05
-0.00014288
3.40207e-05
-0.000150503
3.04758e-05
-0.000157259
2.70108e-05
-0.000163171
2.3638e-05
-0.000168282
2.04326e-05
-0.000172617
1.7325e-05
-0.000176201
1.43107e-05
-0.000179052
1.13799e-05
-0.000181168
8.43234e-06
-0.000182593
5.71142e-06
-0.000183343
3.1066e-06
-0.000183356
1.79441e-07
-0.000182651
-2.76747e-06
-0.000181214
-5.72889e-06
-0.000179057
-8.63171e-06
-0.000176194
-1.14663e-05
-0.000172551
-1.45876e-05
-0.000168164
-1.75668e-05
-0.000163043
-2.0501e-05
-0.00015703
-2.4071e-05
-0.000150187
-2.73926e-05
-0.000142534
-3.06327e-05
-0.00013388
-3.46369e-05
-0.000124351
-3.81327e-05
-0.000113769
-4.2349e-05
-0.000102208
-4.62634e-05
-8.97744e-05
-4.97147e-05
-7.61569e-05
-5.4408e-05
-6.15085e-05
-5.85942e-05
-4.60506e-05
-6.18163e-05
-2.96224e-05
-6.57052e-05
-1.25097e-05
-6.83736e-05
5.44544e-06
-7.16971e-05
2.39756e-05
-7.40136e-05
4.27485e-05
-7.49845e-05
6.176e-05
-7.59218e-05
8.07907e-05
-7.60083e-05
9.94553e-05
-7.45358e-05
0.00011768
-7.27552e-05
0.00013511
-6.95898e-05
0.000151565
-6.56789e-05
0.00016677
-6.06802e-05
0.000180379
-5.43311e-05
0.000192307
-4.76177e-05
0.000202288
-3.98468e-05
0.000210072
-3.11152e-05
0.000215669
-2.23677e-05
0.000219049
-1.34798e-05
0.00022001
-3.82463e-06
0.000218506
5.92603e-06
0.000214661
1.53996e-05
0.000208636
2.41541e-05
0.00020047
3.25954e-05
0.000190254
4.07775e-05
0.000178193
4.81469e-05
0.000164481
5.47418e-05
0.000149297
6.0627e-05
0.000132869
6.57011e-05
0.000115364
6.9757e-05
9.71922e-05
7.25386e-05
7.84625e-05
7.4764e-05
5.94647e-05
7.58355e-05
4.02625e-05
7.67846e-05
2.11213e-05
7.64352e-05
2.43103e-06
7.46528e-05
-1.58327e-05
7.29505e-05
-3.35136e-05
7.06375e-05
-5.04313e-05
6.76248e-05
-6.65774e-05
6.45188e-05
-8.17454e-05
6.0637e-05
-9.59212e-05
5.66857e-05
-0.000109089
5.26471e-05
-0.00012113
4.81432e-05
-0.000132011
4.35123e-05
-0.000141769
3.90238e-05
-0.000150337
3.42953e-05
-0.000157815
2.99154e-05
-0.000164153
2.53623e-05
-0.000169384
2.09191e-05
-0.000173575
1.67678e-05
-0.000176738
1.26515e-05
-0.000178902
8.64914e-06
-0.000180155
5.03206e-06
-0.000180529
1.55687e-06
-0.000180081
-1.73173e-06
-0.000178899
-4.69671e-06
-0.000176988
-7.56832e-06
-0.000174478
-1.00729e-05
-0.000171431
-1.21527e-05
-0.000167832
-1.43651e-05
-0.000163877
-1.58185e-05
-0.000159457
-1.76636e-05
-0.000154652
-1.92098e-05
-0.00014942
-2.09498e-05
-0.000143721
-2.28183e-05
-0.000137495
-2.49323e-05
-0.000130686
-2.72794e-05
-0.000123187
-3.00466e-05
-0.000114913
-3.31556e-05
-0.000105748
-3.66662e-05
-9.57133e-05
-4.03401e-05
-8.46189e-05
-4.42059e-05
-7.25168e-05
-4.84996e-05
-5.93129e-05
-5.27759e-05
-4.50407e-05
-5.7081e-05
-2.97197e-05
-6.13494e-05
-1.34675e-05
-6.48136e-05
3.64158e-06
-6.83116e-05
2.14744e-05
-7.12246e-05