/*--------------------------------*- C++ -*----------------------------------*\
| =========                 |                                                 |
| \\      /  F ield         | OpenFOAM: The Open Source CFD Toolbox           |
|  \\    /   O peration     | Version:  3.0.1                                 |
|   \\  /    A nd           | Web:      www.OpenFOAM.org                      |
|    \\/     M anipulation  |                                                 |
\*---------------------------------------------------------------------------*/
FoamFile
{
    version     2.0;
    format      ascii;
    class       volScalarField;
    location    "36";
    object      p;
}
// * * * * * * * * * * * * * * * * * * * * * * * * * * * * * * * * * * * * * //

dimensions      [1 -1 -2 0 0 0 0];

internalField   nonuniform List<scalar> 
21420
(
3656.5
3638.52
3622.19
3607.52
3594.53
3583.16
3573.39
3565.15
3558.4
3553.12
3549.25
3546.8
3545.76
3546.15
3547.89
3551.03
3555.58
3561.57
3569.03
3578
3588.53
3600.68
3614.48
3630.01
3647.28
3666.33
3687.18
3709.81
3734.23
3760.35
3788.13
3817.46
3848.17
3880.08
3912.95
3946.51
3980.47
4014.46
4048.12
4081.1
4112.97
4143.34
4171.81
4197.97
4221.51
4242.08
4259.41
4273.27
4283.49
4289.92
4292.45
4290.94
4285.55
4276.36
4263.49
4247.17
4227.61
4205.08
4179.92
4152.47
4123.1
4092.2
4060.15
4027.35
3994.2
3961.07
3928.29
3896.42
3865.54
3835.52
3806.66
3779.16
3753.16
3728.78
3706.09
3685.13
3665.93
3648.49
3632.82
3618.87
3606.65
3596.11
3587.24
3579.99
3574.35
3570.26
3567.72
3566.66
3567.06
3568.86
3572.04
3576.6
3582.51
3589.76
3598.34
3608.25
3619.49
3632.09
3646.07
3661.45
3678.24
3696.47
3716.15
3737.29
3759.86
3783.83
3809.14
3835.71
3863.43
3892.18
3921.8
3952.07
3982.8
4013.74
4044.65
4075.24
4105.21
4134.24
4162.02
4188.2
4212.46
4234.46
4253.87
4270.4
4283.79
4293.8
4300.24
4302.92
4301.88
4297.03
4288.44
4276.18
4260.44
4241.43
4219.4
4194.66
4167.57
4138.48
4107.78
4075.88
4043.18
4010.09
3977
3944.27
3912.24
3881.22
3851.47
3823.19
3796.56
3771.69
3748.65
3727.49
3708.22
3690.8
3675.2
3661.36
3649.23
3638.72
3629.75
3622.25
3616.14
3611.35
3607.78
3605.4
3604.15
3604.01
3604.91
3606.88
3609.9
3613.98
3619.14
3625.42
3632.84
3641.44
3651.24
3662.29
3674.63
3688.28
3703.31
3719.75
3737.64
3757.04
3777.97
3800.44
3824.45
3849.95
3876.88
3905.14
3934.71
3965.16
3996.41
4028.18
4060.15
4091.98
4123.29
4153.67
4182.7
4209.96
4235.03
4257.49
4276.97
4293.12
4305.64
4314.3
4318.92
4319.32
4315.61
4307.81
4295.96
4280.3
4261.1
4238.68
4213.39
4185.66
4155.91
4124.6
4092.16
4059.04
4025.66
3992.38
3959.55
3927.54
3896.48
3866.64
3838.19
3811.25
3785.89
3762.19
3740.15
3719.79
3701.09
3684.05
3668.63
3654.8
3642.54
3631.8
3622.57
3614.79
3608.46
3603.53
3599.96
3597.76
3596.93
3597.43
3599.26
3602.45
3607
3612.95
3620.31
3629.13
3639.42
3651.23
3664.59
3679.51
3696.03
3714.16
3733.92
3755.29
3778.25
3802.78
3828.8
3856.23
3884.97
3914.87
3945.84
3977.45
4009.51
4041.72
4073.75
4105.25
4135.8
4165.01
4192.47
4217.74
4240.43
4260.17
4276.59
4289.4
4298.34
4303.2
4303.87
4300.33
4292.6
4280.74
4264.91
4245.39
4222.47
4196.55
4168.01
4137.34
4105.01
4071.51
4037.32
4002.91
3968.7
3935.09
3902.49
3871.48
3841.68
3813.3
3786.54
3761.51
3738.28
3716.88
3697.3
3679.49
3663.41
3648.99
3636.16
3624.83
3614.96
3606.48
3599.35
3593.56
3589.1
3585.98
3584.27
3584.01
3585.24
3588.03
3592.46
3598.6
3606.5
3616.2
3627.77
3641.21
3656.57
3673.81
3692.93
3713.89
3736.63
3761.04
3787.03
3814.45
3843.12
3872.93
3903.91
3934.94
3966.15
3997.21
4027.81
4057.68
4086.46
4113.82
4139.43
4162.96
4184.15
4202.73
4218.43
4231.05
4240.41
4246.37
4248.83
4247.75
4243.03
4234.79
4223.18
3558.33
3540.34
3524.01
3509.35
3496.36
3485
3475.22
3466.99
3460.25
3454.96
3451.1
3448.64
3447.6
3448
3449.74
3452.87
3457.43
3463.41
3470.87
3479.83
3490.37
3502.51
3516.31
3531.83
3549.1
3568.15
3588.99
3611.63
3636.05
3662.17
3689.95
3719.28
3750
3781.92
3814.8
3848.36
3882.34
3916.35
3950.02
3983.01
4014.9
4045.29
4073.78
4099.96
4123.51
4144.1
4161.44
4175.31
4185.53
4191.97
4194.51
4192.99
4187.59
4178.4
4165.52
4149.19
4129.62
4107.07
4081.89
4054.42
4025.04
3994.12
3962.05
3929.24
3896.07
3862.93
3830.14
3798.26
3767.37
3737.35
3708.49
3680.99
3654.98
3630.6
3607.91
3586.95
3567.75
3550.32
3534.64
3520.7
3508.48
3497.95
3489.07
3481.83
3476.19
3472.1
3469.56
3468.5
3468.9
3470.7
3473.89
3478.44
3484.35
3491.6
3500.18
3510.09
3521.34
3533.94
3547.91
3563.28
3580.07
3598.3
3617.99
3639.13
3661.7
3685.67
3710.98
3737.55
3765.27
3794.03
3823.66
3853.93
3884.67
3915.62
3946.54
3977.14
4007.12
4036.17
4063.96
4090.16
4114.44
4136.45
4155.87
4172.42
4185.82
4195.83
4202.28
4204.98
4203.92
4199.07
4190.48
4178.21
4162.46
4143.43
4121.39
4096.64
4069.52
4040.41
4009.7
3977.78
3945.07
3911.96
3878.86
3846.11
3814.08
3783.05
3753.29
3725.01
3698.37
3673.5
3650.47
3629.31
3610.03
3592.62
3577.02
3563.19
3551.06
3540.55
3531.59
3524.1
3517.99
3513.19
3509.64
3507.25
3506
3505.86
3506.77
3508.73
3511.75
3515.83
3521
3527.27
3534.69
3543.29
3553.09
3564.14
3576.47
3590.12
3605.15
3621.58
3639.47
3658.87
3679.8
3702.27
3726.28
3751.78
3778.72
3806.97
3836.54
3867.01
3898.27
3930.05
3962.03
3993.87
4025.2
4055.6
4084.65
4111.93
4137.02
4159.5
4178.99
4195.16
4207.69
4216.36
4220.98
4221.38
4217.67
4209.86
4198
4182.33
4163.12
4140.67
4115.37
4087.62
4057.85
4026.52
3994.06
3960.93
3927.53
3894.23
3861.4
3829.38
3798.31
3768.47
3740.02
3713.07
3687.72
3664.01
3641.97
3621.61
3602.92
3585.88
3570.46
3556.63
3544.37
3533.64
3524.41
3516.63
3510.3
3505.37
3501.81
3499.61
3498.78
3499.28
3501.11
3504.29
3508.84
3514.79
3522.15
3530.97
3541.26
3553.07
3566.42
3581.34
3597.86
3615.99
3635.74
3657.11
3680.08
3704.61
3730.63
3758.07
3786.8
3816.72
3847.69
3879.31
3911.38
3943.6
3975.65
4007.16
4037.74
4066.96
4094.44
4119.73
4142.44
4162.19
4178.62
4191.45
4200.39
4205.27
4205.94
4202.4
4194.65
4182.79
4166.95
4147.41
4124.48
4098.53
4069.98
4039.28
4006.93
3973.41
3939.2
3904.77
3870.56
3836.93
3804.32
3773.31
3743.51
3715.12
3688.36
3663.33
3640.1
3618.7
3599.12
3581.32
3565.24
3550.83
3537.99
3526.67
3516.8
3508.33
3501.2
3495.41
3490.95
3487.83
3486.11
3485.85
3487.08
3489.87
3494.3
3500.43
3508.32
3518.03
3529.59
3543.04
3558.39
3575.63
3594.75
3615.71
3638.45
3662.87
3688.86
3716.29
3744.96
3774.78
3805.76
3836.81
3868.03
3899.1
3929.72
3959.6
3988.39
4015.78
4041.39
4064.94
4086.14
4104.73
4120.44
4133.08
4142.44
4148.41
4150.88
4149.78
4145.06
4136.82
4125.2
3460.07
3442.09
3425.77
3411.11
3398.13
3386.77
3377
3368.77
3362.03
3356.75
3352.89
3350.43
3349.39
3349.78
3351.53
3354.66
3359.21
3365.19
3372.64
3381.61
3392.13
3404.27
3418.07
3433.58
3450.85
3469.9
3490.73
3513.37
3537.78
3563.91
3591.7
3621.03
3651.76
3683.7
3716.59
3750.18
3784.18
3818.22
3851.93
3884.95
3916.87
3947.3
3975.82
4002.04
4025.62
4046.24
4063.6
4077.49
4087.72
4094.17
4096.73
4095.18
4089.78
4080.58
4067.68
4051.33
4031.73
4009.15
3983.93
3956.43
3927.01
3896.06
3863.95
3831.11
3797.92
3764.75
3731.94
3700.05
3669.15
3639.11
3610.24
3582.73
3556.73
3532.34
3509.65
3488.7
3469.5
3452.07
3436.4
3422.46
3410.24
3399.71
3390.84
3383.6
3377.96
3373.88
3371.34
3370.29
3370.69
3372.49
3375.68
3380.23
3386.14
3393.39
3401.97
3411.88
3423.12
3435.72
3449.69
3465.06
3481.85
3500.07
3519.76
3540.89
3563.46
3587.43
3612.75
3639.33
3667.06
3695.82
3725.46
3755.76
3786.51
3817.48
3848.42
3879.04
3909.05
3938.13
3965.95
3992.19
4016.49
4038.53
4057.98
4074.55
4087.97
4098.01
4104.47
4107.18
4106.11
4101.26
4092.65
4080.37
4064.6
4045.54
4023.47
3998.69
3971.54
3942.39
3911.64
3879.69
3846.95
3813.81
3780.67
3747.91
3715.85
3684.81
3655.03
3626.74
3600.1
3575.23
3552.2
3531.05
3511.77
3494.36
3478.77
3464.95
3452.83
3442.33
3433.37
3425.89
3419.78
3414.99
3411.44
3409.06
3407.82
3407.68
3408.58
3410.55
3413.57
3417.65
3422.81
3429.08
3436.5
3445.09
3454.89
3465.93
3478.26
3491.91
3506.92
3523.35
3541.24
3560.63
3581.56
3604.03
3628.03
3653.54
3680.48
3708.75
3738.32
3768.81
3800.08
3831.88
3863.89
3895.77
3927.13
3957.56
3986.65
4013.97
4039.09
4061.61
4081.14
4097.33
4109.89
4118.57
4123.21
4123.62
4119.89
4112.06
4100.19
4084.5
4065.25
4042.77
4017.42
3989.63
3959.83
3928.45
3895.96
3862.8
3829.37
3796.05
3763.19
3731.15
3700.07
3670.22
3641.76
3614.82
3589.46
3565.76
3543.72
3523.36
3504.68
3487.64
3472.22
3458.4
3446.15
3435.42
3426.19
3418.42
3412.09
3407.16
3403.6
3401.4
3400.57
3401.07
3402.9
3406.08
3410.63
3416.57
3423.93
3432.74
3443.04
3454.84
3468.19
3483.1
3499.62
3517.75
3537.5
3558.87
3581.83
3606.36
3632.39
3659.83
3688.58
3718.5
3749.49
3781.13
3813.22
3845.47
3877.55
3909.09
3939.7
3968.96
3996.48
4021.8
4044.55
4064.33
4080.8
4093.64
4102.61
4107.5
4108.19
4104.62
4096.87
4084.99
4069.13
4049.56
4026.59
4000.61
3972.01
3941.27
3908.88
3875.31
3841.07
3806.61
3772.36
3738.71
3706.09
3675.07
3645.25
3616.86
3590.09
3565.06
3541.84
3520.44
3500.87
3483.07
3467
3452.59
3439.77
3428.46
3418.59
3410.12
3402.99
3397.2
3392.74
3389.62
3387.9
3387.63
3388.86
3391.64
3396.06
3402.19
3410.08
3419.78
3431.33
3444.78
3460.13
3477.37
3496.49
3517.45
3540.19
3564.62
3590.62
3618.05
3646.74
3676.58
3707.58
3738.65
3769.89
3800.99
3831.63
3861.55
3890.36
3917.78
3943.42
3967
3988.23
4006.84
4022.58
4035.23
4044.61
4050.59
4053.07
4051.95
4047.23
4038.98
4027.35
3361.74
3343.77
3327.45
3312.8
3299.83
3288.48
3278.71
3270.49
3263.76
3258.48
3254.62
3252.17
3251.12
3251.52
3253.26
3256.4
3260.94
3266.92
3274.36
3283.32
3293.83
3305.96
3319.75
3335.26
3352.52
3371.56
3392.39
3415.03
3439.44
3465.57
3493.36
3522.71
3553.45
3585.41
3618.33
3651.95
3685.99
3720.07
3753.83
3786.9
3818.87
3849.35
3877.93
3904.2
3927.83
3948.49
3965.89
3979.81
3990.06
3996.52
3999.1
3997.53
3992.12
3982.89
3969.97
3953.58
3933.94
3911.31
3886.05
3858.49
3829.02
3798.01
3765.86
3732.97
3699.74
3666.53
3633.69
3601.79
3570.86
3540.81
3511.92
3484.41
3458.39
3434.01
3411.32
3390.36
3371.17
3353.74
3338.08
3324.14
3311.93
3301.41
3292.54
3285.31
3279.67
3275.6
3273.06
3272.02
3272.42
3274.22
3277.41
3281.97
3287.88
3295.13
3303.71
3313.61
3324.85
3337.44
3351.41
3366.77
3383.56
3401.78
3421.46
3442.59
3465.16
3489.14
3514.46
3541.04
3568.79
3597.57
3627.23
3657.54
3688.32
3719.32
3750.29
3780.95
3811
3840.12
3867.99
3894.27
3918.61
3940.7
3960.2
3976.81
3990.26
4000.32
4006.8
4009.54
4008.45
4003.6
3994.97
3982.67
3966.86
3947.76
3925.64
3900.81
3873.61
3844.41
3813.61
3781.61
3748.81
3715.63
3682.45
3649.65
3617.57
3586.5
3556.7
3528.4
3501.75
3476.88
3453.85
3432.7
3413.43
3396.03
3380.45
3366.64
3354.52
3344.04
3335.09
3327.62
3321.53
3316.75
3313.2
3310.83
3309.59
3309.45
3310.36
3312.32
3315.34
3319.41
3324.57
3330.84
3338.25
3346.84
3356.63
3367.67
3379.99
3393.63
3408.64
3425.06
3442.94
3462.33
3483.25
3505.71
3529.72
3555.23
3582.18
3610.46
3640.04
3670.55
3701.86
3733.69
3765.74
3797.66
3829.07
3859.56
3888.7
3916.08
3941.26
3963.83
3983.4
3999.64
4012.23
4020.94
4025.59
4026.02
4022.27
4014.42
4002.52
3986.79
3967.49
3944.96
3919.56
3891.71
3861.84
3830.41
3797.87
3764.65
3731.17
3697.82
3664.93
3632.87
3601.77
3571.91
3543.44
3516.49
3491.13
3467.43
3445.4
3425.05
3406.36
3389.33
3373.92
3360.11
3347.86
3337.14
3327.91
3320.15
3313.82
3308.89
3305.33
3303.14
3302.31
3302.81
3304.64
3307.82
3312.36
3318.3
3325.66
3334.46
3344.75
3356.55
3369.89
3384.8
3401.31
3419.43
3439.18
3460.55
3483.51
3508.04
3534.08
3561.53
3590.29
3620.22
3651.25
3682.91
3715.04
3747.33
3779.45
3811.04
3841.7
3871.02
3898.58
3923.97
3946.76
3966.6
3983.11
3995.99
4004.98
4009.89
4010.6
4007.02
3999.25
3987.34
3971.45
3951.84
3928.81
3902.77
3874.11
3843.3
3810.84
3777.22
3742.92
3708.4
3674.11
3640.43
3607.79
3576.75
3546.91
3518.51
3491.74
3466.71
3443.49
3422.1
3402.54
3384.75
3368.7
3354.3
3341.48
3330.18
3320.32
3311.85
3304.73
3298.95
3294.48
3291.36
3289.64
3289.35
3290.57
3293.34
3297.76
3303.88
3311.76
3321.45
3333
3346.44
3361.79
3379.03
3398.14
3419.11
3441.86
3466.29
3492.31
3519.76
3548.47
3578.33
3609.35
3640.46
3671.74
3702.87
3733.56
3763.51
3792.37
3819.83
3845.52
3869.14
3890.41
3909.06
3924.82
3937.5
3946.91
3952.91
3955.41
3954.27
3949.53
3941.27
3929.62
3263.33
3245.37
3229.06
3214.42
3201.46
3190.12
3180.36
3172.15
3165.42
3160.16
3156.31
3153.85
3152.79
3153.2
3154.94
3158.07
3162.61
3168.58
3176.02
3184.96
3195.47
3207.59
3221.37
3236.86
3254.11
3273.14
3293.97
3316.6
3341.01
3367.15
3394.95
3424.31
3455.07
3487.06
3520.02
3553.69
3587.77
3621.91
3655.73
3688.87
3720.91
3751.46
3780.11
3806.45
3830.14
3850.86
3868.31
3882.27
3892.55
3899.02
3901.61
3900.03
3894.6
3885.35
3872.39
3855.95
3836.25
3813.56
3788.23
3760.61
3731.07
3699.99
3667.77
3634.82
3601.53
3568.27
3535.38
3503.47
3472.51
3442.43
3413.53
3386
3359.98
3335.59
3312.9
3291.95
3272.76
3255.34
3239.68
3225.76
3213.55
3203.04
3194.18
3186.95
3181.32
3177.26
3174.72
3173.69
3174.09
3175.9
3179.09
3183.65
3189.57
3196.81
3205.39
3215.29
3226.52
3239.11
3253.07
3268.43
3285.2
3303.42
3323.1
3344.23
3366.8
3390.78
3416.1
3442.7
3470.46
3499.26
3528.94
3559.29
3590.1
3621.14
3652.16
3682.87
3712.97
3742.15
3770.07
3796.41
3820.82
3842.96
3862.52
3879.18
3892.68
3902.78
3909.28
3912.04
3910.94
3906.08
3897.43
3885.09
3869.23
3850.08
3827.9
3803.01
3775.74
3746.47
3715.6
3683.53
3650.67
3617.42
3584.19
3551.34
3519.22
3488.11
3458.3
3429.98
3403.32
3378.44
3355.41
3334.27
3315.01
3297.62
3282.05
3268.26
3256.16
3245.68
3236.76
3229.29
3223.22
3218.45
3214.91
3212.55
3211.32
3211.18
3212.09
3214.05
3217.07
3221.14
3226.29
3232.56
3239.96
3248.54
3258.32
3269.35
3281.66
3295.3
3310.3
3326.71
3344.58
3363.95
3384.86
3407.33
3431.33
3456.84
3483.8
3512.11
3541.7
3572.24
3603.59
3635.47
3667.57
3699.55
3731.03
3761.59
3790.81
3818.25
3843.51
3866.15
3885.79
3902.09
3914.73
3923.47
3928.14
3928.58
3924.82
3916.94
3905
3889.21
3869.85
3847.25
3821.77
3793.84
3763.9
3732.39
3699.77
3666.49
3632.95
3599.55
3566.62
3534.52
3503.4
3473.52
3445.04
3418.08
3392.72
3369.02
3347
3326.65
3307.98
3290.96
3275.56
3261.75
3249.51
3238.79
3229.57
3221.82
3215.49
3210.57
3207.02
3204.83
3204
3204.49
3206.32
3209.5
3214.04
3219.97
3227.32
3236.12
3246.4
3258.19
3271.52
3286.43
3302.93
3321.05
3340.79
3362.16
3385.12
3409.65
3435.69
3463.15
3491.93
3521.89
3552.95
3584.66
3616.82
3649.16
3681.34
3713
3743.73
3773.12
3800.76
3826.22
3849.09
3868.99
3885.55
3898.48
3907.52
3912.45
3913.17
3909.59
3901.79
3889.85
3873.91
3854.24
3831.14
3805.01
3776.27
3745.38
3712.83
3679.13
3644.75
3610.17
3575.82
3542.1
3509.43
3478.36
3448.5
3420.08
3393.31
3368.27
3345.06
3323.68
3304.13
3286.36
3270.32
3255.93
3243.13
3231.84
3222
3213.54
3206.42
3200.63
3196.17
3193.04
3191.31
3191.01
3192.22
3194.99
3199.39
3205.5
3213.37
3223.05
3234.59
3248.03
3263.37
3280.6
3299.72
3320.69
3343.44
3367.89
3393.92
3421.39
3450.13
3480.03
3511.09
3542.24
3573.57
3604.75
3635.49
3665.5
3694.42
3721.94
3747.68
3771.35
3792.68
3811.38
3827.19
3839.9
3849.34
3855.36
3857.88
3856.73
3851.98
3843.69
3832.02
3164.85
3146.9
3130.6
3115.97
3103.02
3091.7
3081.95
3073.75
3067.03
3061.78
3057.93
3055.49
3054.41
3054.82
3056.57
3059.7
3064.23
3070.19
3077.61
3086.55
3097.04
3109.14
3122.91
3138.39
3155.63
3174.65
3195.47
3218.09
3242.51
3268.65
3296.46
3325.84
3356.63
3388.65
3421.65
3455.37
3489.52
3523.73
3557.63
3590.85
3622.98
3653.63
3682.36
3708.78
3732.56
3753.35
3770.86
3784.87
3795.19
3801.68
3804.27
3802.69
3797.24
3787.95
3774.94
3758.44
3738.67
3715.9
3690.49
3662.78
3633.15
3601.99
3569.69
3536.66
3503.3
3469.97
3437.03
3405.09
3374.1
3343.99
3315.07
3287.52
3261.49
3237.09
3214.41
3193.46
3174.28
3156.87
3141.22
3127.3
3115.11
3104.6
3095.75
3088.54
3082.91
3078.85
3076.33
3075.3
3075.71
3077.52
3080.72
3085.28
3091.2
3098.44
3107.02
3116.91
3128.14
3140.72
3154.68
3170.02
3186.79
3205
3224.67
3245.8
3268.37
3292.35
3317.68
3344.29
3372.07
3400.9
3430.62
3461
3491.85
3522.94
3554.02
3584.78
3614.95
3644.2
3672.2
3698.61
3723.1
3745.32
3764.95
3781.67
3795.23
3805.37
3811.9
3814.68
3813.59
3808.71
3800.03
3787.64
3771.73
3752.51
3730.26
3705.28
3677.92
3648.57
3617.61
3585.45
3552.51
3519.19
3485.89
3452.98
3420.8
3389.66
3359.81
3331.47
3304.8
3279.92
3256.89
3235.75
3216.51
3199.14
3183.59
3169.81
3157.73
3147.27
3138.36
3130.92
3124.86
3120.1
3116.58
3114.22
3113
3112.86
3113.78
3115.74
3118.75
3122.82
3127.97
3134.23
3141.62
3150.19
3159.97
3170.99
3183.29
3196.91
3211.89
3228.29
3246.15
3265.51
3286.41
3308.87
3332.87
3358.39
3385.36
3413.69
3443.3
3473.88
3505.28
3537.22
3569.39
3601.44
3633
3663.65
3692.96
3720.5
3745.85
3768.58
3788.31
3804.68
3817.37
3826.16
3830.85
3831.31
3827.53
3819.61
3807.62
3791.77
3772.33
3749.63
3724.06
3696.03
3665.99
3634.38
3601.68
3568.31
3534.7
3501.24
3468.26
3436.11
3404.95
3375.05
3346.56
3319.6
3294.24
3270.54
3248.52
3228.19
3209.53
3192.51
3177.12
3163.33
3151.09
3140.39
3131.18
3123.43
3117.11
3112.2
3108.65
3106.47
3105.63
3106.13
3107.95
3111.13
3115.66
3121.59
3128.93
3137.72
3147.99
3159.77
3173.09
3187.99
3204.48
3222.59
3242.33
3263.69
3286.66
3311.19
3337.24
3364.72
3393.51
3423.5
3454.61
3486.36
3518.58
3550.98
3583.24
3614.97
3645.79
3675.28
3703.01
3728.56
3751.51
3771.5
3788.14
3801.13
3810.21
3815.17
3815.9
3812.33
3804.5
3792.51
3776.51
3756.76
3733.58
3707.35
3678.5
3647.5
3614.85
3581.03
3546.56
3511.9
3477.48
3443.7
3411
3379.89
3350.01
3321.57
3294.79
3269.76
3246.55
3225.18
3205.64
3187.89
3171.87
3157.5
3144.72
3133.45
3123.61
3115.16
3108.06
3102.27
3097.8
3094.67
3092.93
3092.62
3093.81
3096.56
3100.96
3107.05
3114.91
3124.58
3136.11
3149.53
3164.87
3182.1
3201.22
3222.19
3244.95
3269.41
3295.46
3322.96
3351.73
3381.67
3412.78
3443.99
3475.37
3506.62
3537.42
3567.5
3596.5
3624.09
3649.91
3673.65
3695.04
3713.8
3729.67
3742.43
3751.91
3757.95
3760.48
3759.33
3754.56
3746.25
3734.54
3066.28
3048.35
3032.07
3017.46
3004.52
2993.21
2983.48
2975.29
2968.59
2963.34
2959.51
2957.06
2955.99
2956.4
2958.14
2961.26
2965.79
2971.74
2979.15
2988.07
2998.54
3010.63
3024.38
3039.84
3057.06
3076.07
3096.88
3119.5
3143.92
3170.06
3197.89
3227.29
3258.11
3290.18
3323.23
3357.02
3391.25
3425.54
3459.53
3492.85
3525.09
3555.84
3584.68
3611.21
3635.08
3655.96
3673.54
3687.61
3697.97
3704.48
3707.08
3705.51
3700.02
3690.69
3677.62
3661.05
3641.19
3618.33
3592.82
3565
3535.27
3504
3471.6
3438.48
3405.03
3371.63
3338.63
3306.66
3275.62
3245.48
3216.53
3188.96
3162.92
3138.52
3115.83
3094.89
3075.72
3058.32
3042.68
3028.77
3016.59
3006.1
2997.26
2990.05
2984.44
2980.39
2977.88
2976.86
2977.27
2979.09
2982.29
2986.86
2992.78
3000.02
3008.59
3018.48
3029.7
3042.28
3056.22
3071.55
3088.31
3106.51
3126.17
3147.3
3169.87
3193.86
3219.2
3245.83
3273.63
3302.49
3332.24
3362.67
3393.58
3424.73
3455.86
3486.7
3516.95
3546.28
3574.37
3600.88
3625.45
3647.76
3667.48
3684.29
3697.91
3708.1
3714.67
3717.47
3716.39
3711.49
3702.77
3690.33
3674.35
3655.05
3632.71
3607.63
3580.17
3550.71
3519.64
3487.38
3454.34
3420.93
3387.55
3354.57
3322.33
3291.14
3261.25
3232.88
3206.2
3181.31
3158.29
3137.16
3117.93
3100.57
3085.04
3071.28
3059.23
3048.79
3039.91
3032.48
3026.44
3021.7
3018.2
3015.86
3014.64
3014.51
3015.43
3017.39
3020.4
3024.46
3029.6
3035.85
3043.24
3051.79
3061.56
3072.56
3084.85
3098.46
3113.43
3129.81
3147.65
3167
3187.89
3210.34
3234.34
3259.87
3286.85
3315.2
3344.84
3375.47
3406.92
3438.93
3471.18
3503.33
3534.98
3565.74
3595.16
3622.82
3648.28
3671.12
3690.95
3707.4
3720.17
3729.01
3733.72
3734.19
3730.4
3722.44
3710.39
3694.46
3674.92
3652.12
3626.43
3598.28
3568.12
3536.4
3503.58
3470.12
3436.42
3402.88
3369.84
3337.63
3306.44
3276.52
3248.01
3221.04
3195.68
3171.98
3149.98
3129.65
3111
3094
3078.62
3064.84
3052.62
3041.93
3032.72
3024.99
3018.68
3013.77
3010.23
3008.05
3007.22
3007.71
3009.53
3012.7
3017.23
3023.15
3030.48
3039.26
3049.52
3061.29
3074.6
3089.48
3105.97
3124.07
3143.8
3165.15
3188.12
3212.66
3238.72
3266.21
3295.02
3325.04
3356.22
3388.02
3420.3
3452.79
3485.13
3516.96
3547.89
3577.48
3605.32
3630.98
3654.04
3674.13
3690.86
3703.92
3713.06
3718.07
3718.8
3715.23
3707.37
3695.33
3679.25
3659.41
3636.12
3609.77
3580.79
3549.66
3516.88
3482.94
3448.36
3413.59
3379.08
3345.23
3312.5
3281.35
3251.44
3222.98
3196.19
3171.15
3147.96
3126.6
3107.08
3089.35
3073.35
3059.01
3046.25
3034.99
3025.18
3016.74
3009.64
3003.85
2999.39
2996.25
2994.5
2994.16
2995.35
2998.08
3002.45
3008.53
3016.37
3026.03
3037.55
3050.96
3066.29
3083.52
3102.63
3123.6
3146.38
3170.86
3196.93
3224.46
3253.27
3283.26
3314.44
3345.71
3377.16
3408.48
3439.37
3469.53
3498.62
3526.3
3552.21
3576.03
3597.5
3616.33
3632.26
3645.08
3654.61
3660.69
3663.23
3662.08
3657.28
3648.94
3637.18
2967.64
2949.72
2933.46
2918.87
2905.95
2894.66
2884.95
2876.77
2870.08
2864.84
2861.02
2858.59
2857.51
2857.92
2859.66
2862.77
2867.29
2873.22
2880.62
2889.52
2899.98
2912.04
2925.77
2941.22
2958.42
2977.42
2998.22
3020.83
3045.24
3071.4
3099.24
3128.66
3159.52
3191.64
3224.76
3258.62
3292.94
3327.33
3361.43
3394.87
3427.23
3458.1
3487.07
3513.72
3537.7
3558.68
3576.36
3590.49
3600.9
3607.44
3610.04
3608.47
3602.95
3593.57
3580.43
3563.77
3543.82
3520.85
3495.22
3467.28
3437.42
3406.04
3373.52
3340.29
3306.74
3273.25
3240.17
3208.17
3177.08
3146.9
3117.91
3090.32
3064.27
3039.86
3017.18
2996.24
2977.08
2959.69
2944.06
2930.18
2918.01
2907.52
2898.7
2891.51
2885.9
2881.87
2879.36
2878.36
2878.78
2880.6
2883.81
2888.38
2894.3
2901.54
2910.11
2919.99
2931.21
2943.77
2957.7
2973.02
2989.77
3007.96
3027.61
3048.73
3071.3
3095.3
3120.66
3147.3
3175.13
3204.02
3233.82
3264.3
3295.27
3326.49
3357.7
3388.63
3418.97
3448.4
3476.59
3503.2
3527.89
3550.3
3570.12
3587.02
3600.72
3610.97
3617.59
3620.41
3619.34
3614.42
3605.65
3593.15
3577.09
3557.7
3535.24
3510.05
3482.47
3452.88
3421.7
3389.32
3356.16
3322.65
3289.17
3256.1
3223.79
3192.54
3162.61
3134.21
3107.51
3082.62
3059.6
3038.48
3019.27
3001.93
2986.43
2972.69
2960.66
2950.25
2941.39
2933.99
2927.98
2923.26
2919.77
2917.45
2916.24
2916.12
2917.04
2919
2922
2926.06
2931.19
2937.43
2944.8
2953.35
2963.1
2974.09
2986.36
2999.95
3014.9
3031.26
3049.09
3068.42
3089.3
3111.74
3135.74
3161.27
3188.27
3216.65
3246.32
3277.01
3308.53
3340.61
3372.96
3405.21
3436.98
3467.86
3497.41
3525.21
3550.8
3573.77
3593.71
3610.26
3623.12
3632.02
3636.76
3637.25
3633.44
3625.43
3613.3
3597.28
3577.63
3554.7
3528.88
3500.59
3470.28
3438.43
3405.49
3371.91
3338.11
3304.48
3271.36
3239.09
3207.87
3177.91
3149.38
3122.4
3097.04
3073.35
3051.35
3031.04
3012.4
2995.42
2980.06
2966.29
2954.08
2943.4
2934.21
2926.49
2920.19
2915.28
2911.75
2909.58
2908.75
2909.24
2911.06
2914.22
2918.74
2924.65
2931.97
2940.74
2950.98
2962.74
2976.04
2990.91
3007.38
3025.47
3045.19
3066.54
3089.51
3114.05
3140.12
3167.63
3196.47
3226.52
3257.78
3289.64
3322
3354.58
3387.02
3418.97
3450.02
3479.74
3507.71
3533.5
3556.68
3576.88
3593.72
3606.86
3616.07
3621.12
3621.88
3618.3
3610.41
3598.3
3582.14
3562.19
3538.77
3512.28
3483.15
3451.86
3418.93
3384.85
3350.14
3315.25
3280.64
3246.71
3213.94
3182.74
3152.79
3124.31
3097.5
3072.47
3049.28
3027.94
3008.44
2990.73
2974.76
2960.45
2947.71
2936.48
2926.68
2918.26
2911.17
2905.39
2900.91
2897.77
2896
2895.65
2896.82
2899.53
2903.88
2909.94
2917.76
2927.4
2938.9
2952.31
2967.62
2984.85
3003.96
3024.94
3047.73
3072.23
3098.33
3125.9
3154.75
3184.79
3216.05
3247.4
3278.94
3310.34
3341.32
3371.58
3400.77
3428.56
3454.57
3478.49
3500.05
3518.97
3534.98
3547.86
3557.44
3563.56
3566.12
3564.97
3560.15
3551.76
3539.95
2868.93
2851.02
2834.78
2820.21
2807.31
2796.04
2786.35
2778.19
2771.52
2766.29
2762.48
2760.06
2758.99
2759.39
2761.12
2764.23
2768.73
2774.65
2782.03
2790.92
2801.35
2813.39
2827.1
2842.52
2859.71
2878.69
2899.47
2922.08
2946.49
2972.65
3000.51
3029.96
3060.86
3093.03
3126.22
3160.18
3194.59
3229.11
3263.33
3296.9
3329.4
3360.42
3389.54
3416.32
3440.43
3461.53
3479.3
3493.51
3503.98
3510.55
3513.16
3511.58
3506.03
3496.59
3483.37
3466.62
3446.55
3423.45
3397.69
3369.61
3339.61
3308.09
3275.44
3242.08
3208.42
3174.83
3141.67
3109.62
3078.48
3048.24
3019.22
2991.61
2965.54
2941.13
2918.45
2897.52
2878.37
2860.99
2845.38
2831.51
2819.35
2808.88
2800.08
2792.89
2787.31
2783.29
2780.79
2779.8
2780.23
2782.06
2785.28
2789.85
2795.77
2803.01
2811.57
2821.45
2832.66
2845.21
2859.12
2874.43
2891.16
2909.34
2928.98
2950.1
2972.67
2996.67
3022.04
3048.71
3076.57
3105.5
3135.36
3165.9
3196.93
3228.23
3259.53
3290.55
3321
3350.54
3378.85
3405.59
3430.4
3452.93
3472.86
3489.87
3503.66
3513.99
3520.65
3523.5
3522.44
3517.49
3508.68
3496.11
3479.96
3460.45
3437.88
3412.55
3384.83
3355.1
3323.77
3291.25
3257.97
3224.33
3190.74
3157.58
3125.19
3093.87
3063.89
3035.46
3008.74
2983.84
2960.82
2939.72
2920.53
2903.21
2887.74
2874.03
2862.03
2851.65
2842.82
2835.45
2829.46
2824.77
2821.3
2818.99
2817.8
2817.68
2818.61
2820.57
2823.57
2827.61
2832.74
2838.96
2846.32
2854.85
2864.58
2875.56
2887.82
2901.39
2916.32
2932.66
2950.46
2969.77
2990.63
3013.07
3037.06
3062.6
3089.62
3118.03
3147.74
3178.49
3210.09
3242.27
3274.72
3307.09
3338.99
3370.01
3399.72
3427.66
3453.4
3476.52
3496.6
3513.27
3526.22
3535.18
3539.97
3540.47
3536.64
3528.57
3516.36
3500.23
3480.45
3457.38
3431.4
3402.95
3372.49
3340.48
3307.39
3273.68
3239.76
3206.03
3172.84
3140.49
3109.22
3079.22
3050.67
3023.68
2998.32
2974.64
2952.65
2932.36
2913.74
2896.77
2881.43
2867.67
2855.48
2844.82
2835.64
2827.93
2821.64
2816.75
2813.23
2811.06
2810.22
2810.72
2812.53
2815.69
2820.2
2826.09
2833.4
2842.15
2852.38
2864.13
2877.41
2892.27
2908.72
2926.8
2946.51
2967.86
2990.82
3015.37
3041.45
3068.99
3097.86
3127.94
3159.3
3191.22
3223.66
3256.34
3288.91
3320.99
3352.17
3382.04
3410.16
3436.1
3459.43
3479.76
3496.71
3509.96
3519.24
3524.35
3525.12
3521.53
3513.6
3501.42
3485.17
3465.1
3441.53
3414.87
3385.57
3354.11
3321.01
3286.76
3251.89
3216.87
3182.14
3148.12
3115.31
3084.06
3054.06
3025.55
2998.73
2973.7
2950.52
2929.2
2909.72
2892.04
2876.1
2861.82
2849.12
2837.91
2828.13
2819.72
2812.64
2806.86
2802.39
2799.24
2797.45
2797.08
2798.22
2800.91
2805.25
2811.28
2819.08
2828.7
2840.19
2853.58
2868.88
2886.1
2905.21
2926.2
2949
2973.52
2999.66
3027.27
3056.17
3086.27
3117.63
3149.06
3180.69
3212.19
3243.27
3273.65
3302.96
3330.86
3357
3381.03
3402.69
3421.71
3437.8
3450.77
3460.4
3466.57
3469.15
3468
3463.15
3454.72
3442.85
2770.13
2752.25
2736.03
2721.48
2708.61
2697.36
2687.69
2679.55
2672.89
2667.69
2663.89
2661.48
2660.42
2660.81
2662.53
2665.63
2670.12
2676.03
2683.39
2692.25
2702.66
2714.67
2728.35
2743.75
2760.91
2779.87
2800.64
2823.24
2847.65
2873.82
2901.7
2931.18
2962.12
2994.37
3027.64
3061.69
3096.22
3130.86
3165.22
3198.95
3231.61
3262.79
3292.07
3319.01
3343.27
3364.49
3382.38
3396.67
3407.2
3413.82
3416.44
3414.85
3409.26
3399.75
3386.45
3369.58
3349.39
3326.15
3300.23
3271.99
3241.84
3210.15
3177.35
3143.86
3110.07
3076.36
3043.11
3011.01
2979.81
2949.52
2920.46
2892.81
2866.73
2842.31
2819.63
2798.71
2779.57
2762.21
2746.62
2732.76
2720.63
2710.18
2701.39
2694.22
2688.65
2684.64
2682.16
2681.18
2681.62
2683.46
2686.69
2691.27
2697.19
2704.43
2712.98
2722.86
2734.05
2746.59
2760.49
2775.78
2792.49
2810.66
2830.29
2851.4
2873.97
2897.98
2923.37
2950.06
2977.95
3006.92
3036.85
3067.45
3098.56
3129.95
3161.35
3192.48
3223.04
3252.72
3281.16
3308.03
3332.98
3355.65
3375.71
3392.84
3406.73
3417.15
3423.87
3426.75
3425.69
3420.71
3411.84
3399.19
3382.94
3363.31
3340.6
3315.12
3287.25
3257.36
3225.87
3193.2
3159.76
3125.99
3092.28
3059
3026.52
2995.13
2965.09
2936.62
2909.88
2884.97
2861.96
2840.88
2821.7
2804.42
2788.97
2775.3
2763.33
2752.99
2744.19
2736.85
2730.89
2726.22
2722.78
2720.49
2719.31
2719.2
2720.13
2722.09
2725.09
2729.13
2734.24
2740.45
2747.79
2756.3
2766.02
2776.98
2789.21
2802.77
2817.67
2833.99
2851.76
2871.06
2891.9
2914.32
2938.32
2963.86
2990.9
3019.35
3049.1
3079.92
3111.6
3143.88
3176.45
3208.96
3241.02
3272.2
3302.07
3330.19
3356.1
3379.38
3399.61
3416.41
3429.47
3438.52
3443.35
3443.86
3440.01
3431.88
3419.57
3403.32
3383.4
3360.16
3334
3305.37
3274.73
3242.55
3209.29
3175.43
3141.38
3107.54
3074.25
3041.83
3010.5
2980.47
2951.89
2924.89
2899.53
2875.85
2853.88
2833.6
2815
2798.05
2782.73
2768.99
2756.82
2746.17
2737.01
2729.31
2723.04
2718.16
2714.64
2712.48
2711.65
2712.14
2713.95
2717.1
2721.6
2727.48
2734.77
2743.51
2753.73
2765.45
2778.72
2793.55
2810
2828.06
2847.76
2869.1
2892.06
2916.62
2942.72
2970.27
2999.18
3029.3
3060.76
3092.75
3125.3
3158.09
3190.8
3223.02
3254.36
3284.4
3312.68
3338.79
3362.28
3382.76
3399.85
3413.21
3422.57
3427.74
3428.54
3424.94
3416.97
3404.7
3388.34
3368.13
3344.39
3317.56
3288.06
3256.4
3223.1
3188.67
3153.63
3118.46
3083.59
3049.46
3016.62
2985.29
2955.25
2926.7
2899.87
2874.84
2851.67
2830.38
2810.93
2793.28
2777.37
2763.13
2750.46
2739.28
2729.53
2721.14
2714.07
2708.29
2703.81
2700.65
2698.85
2698.45
2699.57
2702.24
2706.54
2712.55
2720.32
2729.92
2741.39
2754.76
2770.06
2787.27
2806.38
2827.37
2850.19
2874.74
2900.91
2928.56
2957.52
2987.69
3019.17
3050.69
3082.42
3114.03
3145.24
3175.74
3205.18
3233.22
3259.49
3283.65
3305.43
3324.55
3340.75
3353.8
3363.51
3369.72
3372.33
3371.17
3366.29
3357.81
3345.87
2671.26
2653.4
2637.2
2622.68
2609.84
2598.61
2588.97
2580.85
2574.22
2569.03
2565.24
2562.84
2561.79
2562.17
2563.89
2566.98
2571.45
2577.34
2584.68
2593.51
2603.9
2615.88
2629.53
2644.9
2662.04
2680.98
2701.73
2724.32
2748.73
2774.91
2802.81
2832.33
2863.32
2895.63
2928.99
2963.15
2997.82
3032.6
3067.12
3101.01
3133.85
3165.21
3194.67
3221.79
3246.21
3267.58
3285.58
3299.98
3310.58
3317.24
3319.87
3318.27
3312.64
3303.06
3289.66
3272.67
3252.33
3228.93
3202.84
3174.43
3144.09
3112.24
3079.27
3045.62
3011.69
2977.84
2944.5
2912.35
2881.08
2850.73
2821.62
2793.94
2767.84
2743.42
2720.74
2699.83
2680.7
2663.36
2647.78
2633.95
2621.84
2611.4
2602.63
2595.48
2589.93
2585.94
2583.47
2582.5
2582.96
2584.81
2588.04
2592.63
2598.55
2605.79
2614.34
2624.21
2635.39
2647.91
2661.79
2677.07
2693.76
2711.91
2731.53
2752.63
2775.21
2799.22
2824.63
2851.35
2879.28
2908.29
2938.29
2968.96
3000.16
3031.64
3063.15
3094.41
3125.1
3154.92
3183.51
3210.54
3235.64
3258.47
3278.67
3295.93
3309.94
3320.44
3327.23
3330.15
3329.1
3324.09
3315.16