/*--------------------------------*- C++ -*----------------------------------*\
| =========                 |                                                 |
| \\      /  F ield         | OpenFOAM: The Open Source CFD Toolbox           |
|  \\    /   O peration     | Version:  3.0.1                                 |
|   \\  /    A nd           | Web:      www.OpenFOAM.org                      |
|    \\/     M anipulation  |                                                 |
\*---------------------------------------------------------------------------*/
FoamFile
{
    version     2.0;
    format      ascii;
    class       volVectorField;
    location    "74.2";
    object      U;
}
// * * * * * * * * * * * * * * * * * * * * * * * * * * * * * * * * * * * * * //

dimensions      [0 1 -1 0 0 0 0];

internalField   nonuniform List<vector> 
21420
(
(-0.0321255 0.00170033 0)
(-0.0468672 0.00160327 0)
(-0.062577 0.00152055 0)
(-0.0773851 0.00143051 0)
(-0.0912323 0.00132324 0)
(-0.104088 0.00122803 0)
(-0.115943 0.00112234 0)
(-0.126801 0.00102751 0)
(-0.136678 0.000933169 0)
(-0.145595 0.000835858 0)
(-0.15358 0.000746638 0)
(-0.160663 0.000659663 0)
(-0.166877 0.000573343 0)
(-0.172252 0.000492496 0)
(-0.17682 0.000413046 0)
(-0.180608 0.000337461 0)
(-0.183642 0.000263704 0)
(-0.185947 0.000190801 0)
(-0.187538 0.00011945 0)
(-0.188377 5.25609e-05 0)
(-0.188549 -1.83818e-05 0)
(-0.187998 -9.05092e-05 0)
(-0.186729 -0.000162592 0)
(-0.184724 -0.000236563 0)
(-0.181965 -0.000312105 0)
(-0.17843 -0.000391188 0)
(-0.174092 -0.000472111 0)
(-0.168916 -0.000555535 0)
(-0.16287 -0.000645325 0)
(-0.155927 -0.000734545 0)
(-0.14805 -0.000826188 0)
(-0.139213 -0.000927574 0)
(-0.129391 -0.00102246 0)
(-0.118562 -0.00112994 0)
(-0.106724 -0.00122511 0)
(-0.0938789 -0.00131872 0)
(-0.080027 -0.00142818 0)
(-0.0651946 -0.00151339 0)
(-0.0494616 -0.00158941 0)
(-0.0327989 -0.00168781 0)
(-0.0154457 -0.00174587 0)
(0.0023964 -0.00182156 0)
(0.0208125 -0.00185236 0)
(0.0395836 -0.00186221 0)
(0.0584928 -0.00188707 0)
(0.0773689 -0.00186141 0)
(0.0959656 -0.0018105 0)
(0.114041 -0.00176305 0)
(0.131384 -0.00167123 0)
(0.147742 -0.00155456 0)
(0.162872 -0.00142893 0)
(0.176561 -0.00127046 0)
(0.188592 -0.00109889 0)
(0.198776 -0.000905534 0)
(0.206964 -0.000694517 0)
(0.213018 -0.000479382 0)
(0.216818 -0.000252897 0)
(0.218243 -1.78687e-05 0)
(0.217366 0.000207515 0)
(0.213994 0.00044632 0)
(0.208364 0.000655735 0)
(0.200562 0.000867009 0)
(0.190677 0.00107431 0)
(0.178846 0.00124413 0)
(0.16534 0.00141083 0)
(0.150236 0.00155504 0)
(0.133899 0.00166475 0)
(0.116462 0.00175875 0)
(0.0982493 0.00182155 0)
(0.0795551 0.00187452 0)
(0.0603749 0.00188646 0)
(0.0412837 0.00189609 0)
(0.0221236 0.00187098 0)
(0.00353085 0.00183623 0)
(-0.0144077 0.00178121 0)
(-0.0320687 0.00171868 0)
(-0.0490209 0.00163493 0)
(-0.0652018 0.00155788 0)
(-0.0804284 0.00146197 0)
(-0.0947213 0.00136172 0)
(-0.108074 0.00126574 0)
(-0.120263 0.00115297 0)
(-0.131388 0.00104923 0)
(-0.141457 0.000939968 0)
(-0.150415 0.000826828 0)
(-0.15824 0.00071293 0)
(-0.164841 0.000599698 0)
(-0.170305 0.000481916 0)
(-0.174662 0.000374127 0)
(-0.177878 0.000270858 0)
(-0.180089 0.000175143 0)
(-0.181396 9.47842e-05 0)
(-0.181931 1.42353e-05 0)
(-0.181738 -5.59457e-05 0)
(-0.180825 -0.000111805 0)
(-0.179319 -0.000180149 0)
(-0.17725 -0.000233681 0)
(-0.174603 -0.000288007 0)
(-0.171436 -0.00034819 0)
(-0.167642 -0.00039917 0)
(-0.16325 -0.000461873 0)
(-0.158274 -0.000527531 0)
(-0.152651 -0.000587318 0)
(-0.146374 -0.000658594 0)
(-0.139388 -0.000729411 0)
(-0.131674 -0.000795624 0)
(-0.123246 -0.000873842 0)
(-0.114059 -0.000947622 0)
(-0.104088 -0.0010259 0)
(-0.0933553 -0.00110589 0)
(-0.0818057 -0.00117907 0)
(-0.06944 -0.00126749 0)
(-0.0563323 -0.00134473 0)
(-0.042435 -0.00140694 0)
(-0.0278126 -0.00147804 0)
(-0.012571 -0.00154221 0)
(0.00328591 -0.00159474 0)
(0.0196418 -0.00164366 0)
(0.0363815 -0.00167572 0)
(0.0533816 -0.00169471 0)
(0.0705 -0.00169926 0)
(0.0875796 -0.00168377 0)
(0.104426 -0.00165477 0)
(0.120825 -0.00159767 0)
(0.136555 -0.00151787 0)
(0.151371 -0.00142229 0)
(0.165049 -0.00128931 0)
(0.177327 -0.00114002 0)
(0.18797 -0.000966883 0)
(0.196757 -0.000773101 0)
(0.203493 -0.000561409 0)
(0.208046 -0.000339534 0)
(0.210268 -0.000104918 0)
(0.210148 0.000131343 0)
(0.207551 0.000372179 0)
(0.202538 0.000610386 0)
(0.19527 0.000833683 0)
(0.18582 0.00103792 0)
(0.174375 0.00123087 0)
(0.161115 0.00139744 0)
(0.14628 0.00154206 0)
(0.130118 0.00165987 0)
(0.112887 0.00175653 0)
(0.0948509 0.00182338 0)
(0.0762764 0.00185897 0)
(0.0574404 0.00187085 0)
(0.0386104 0.00185945 0)
(0.0200134 0.00183487 0)
(0.00182904 0.00177612 0)
(-0.0157368 0.0017093 0)
(-0.0325477 0.00162973 0)
(-0.0485078 0.00154186 0)
(-0.0635458 0.00144385 0)
(-0.0775849 0.00134315 0)
(-0.0905529 0.00123578 0)
(-0.102478 0.00113488 0)
(-0.113362 0.00102415 0)
(-0.123196 0.000931059 0)
(-0.132048 0.000826949 0)
(-0.139929 0.000733827 0)
(-0.14689 0.000650196 0)
(-0.152996 0.000566315 0)
(-0.158283 0.000487057 0)
(-0.162803 0.000411828 0)
(-0.166614 0.000341862 0)
(-0.16976 0.000281819 0)
(-0.172261 0.000219951 0)
(-0.174177 0.00015839 0)
(-0.17549 9.94945e-05 0)
(-0.176177 4.59322e-05 0)
(-0.17633 -1.16968e-05 0)
(-0.175913 -7.9501e-05 0)
(-0.174848 -0.000123142 0)
(-0.173227 -0.000187114 0)
(-0.171085 -0.000249642 0)
(-0.168279 -0.000301748 0)
(-0.164859 -0.000364035 0)
(-0.160878 -0.000419134 0)
(-0.156307 -0.000484877 0)
(-0.151142 -0.000550376 0)
(-0.145341 -0.000606022 0)
(-0.138893 -0.000671812 0)
(-0.131788 -0.000735333 0)
(-0.124021 -0.000804466 0)
(-0.115497 -0.000874462 0)
(-0.106264 -0.000958044 0)
(-0.0962604 -0.0010265 0)
(-0.0854329 -0.00110616 0)
(-0.0738707 -0.00118565 0)
(-0.0615526 -0.00126526 0)
(-0.0484791 -0.00132599 0)
(-0.0346705 -0.00140033 0)
(-0.0202278 -0.00146394 0)
(-0.00518551 -0.00151449 0)
(0.0103355 -0.00155777 0)
(0.0262099 -0.00158772 0)
(0.0423382 -0.00160882 0)
(0.0586096 -0.00161633 0)
(0.0748602 -0.0016077 0)
(0.090895 -0.00157619 0)
(0.106499 -0.00151985 0)
(0.121408 -0.00143443 0)
(0.13535 -0.00132693 0)
(0.14809 -0.00119661 0)
(0.159378 -0.00104356 0)
(0.169033 -0.000868446 0)
(0.17689 -0.00068367 0)
(0.182795 -0.000485774 0)
(0.186621 -0.000276138 0)
(0.188286 -6.26349e-05 0)
(0.187797 0.000162276 0)
(0.184994 0.000383301 0)
(0.180001 0.0006048 0)
(0.172903 0.000799977 0)
(0.163818 0.000997774 0)
(0.152938 0.00115628 0)
(0.1405 0.00131427 0)
(0.126691 0.00142829 0)
(0.111765 0.00153253 0)
(0.095942 0.00160457 0)
(0.0794658 0.00166001 0)
(0.0626041 0.0016864 0)
(0.0455749 0.00169263 0)
(0.0285585 0.00167829 0)
(0.011801 0.00164328 0)
(-0.00453376 0.00160611 0)
(-0.0203334 0.00153277 0)
(-0.0354429 0.00146536 0)
(-0.0497853 0.00138412 0)
(-0.063323 0.00130101 0)
(-0.0760095 0.00121929 0)
(-0.087831 0.00113188 0)
(-0.0987839 0.00104075 0)
(-0.108871 0.000957621 0)
(-0.118111 0.000880048 0)
(-0.126537 0.000795383 0)
(-0.134185 0.000715403 0)
(-0.141073 0.000640457 0)
(-0.147201 0.000578636 0)
(-0.152622 0.000507677 0)
(-0.157391 0.000444932 0)
(-0.161523 0.000376752 0)
(-0.165038 0.000312846 0)
(-0.167904 0.000264801 0)
(-0.170184 0.000197746 0)
(-0.171892 0.000140275 0)
(-0.173009 8.10171e-05 0)
(-0.173575 3.38504e-05 0)
(-0.173646 -1.72435e-05 0)
(-0.173246 -5.9683e-05 0)
(-0.172395 -0.000107816 0)
(-0.171116 -0.000145805 0)
(-0.169457 -0.000189487 0)
(-0.167361 -0.000225311 0)
(-0.164815 -0.000273897 0)
(-0.16177 -0.000333374 0)
(-0.158147 -0.000383087 0)
(-0.153937 -0.000444795 0)
(-0.149135 -0.000515001 0)
(-0.143655 -0.000569406 0)
(-0.137508 -0.000633544 0)
(-0.130743 -0.000702374 0)
(-0.123271 -0.000775745 0)
(-0.11512 -0.000837973 0)
(-0.106356 -0.000896487 0)
(-0.0968731 -0.000970002 0)
(-0.0866714 -0.00103226 0)
(-0.075908 -0.00109274 0)
(-0.0645099 -0.00115536 0)
(-0.0524673 -0.00121918 0)
(-0.0399105 -0.00127027 0)
(-0.0267133 -0.00133122 0)
(-0.0129986 -0.00138462 0)
(0.00151399 -0.00144603 0)
(0.0167388 -0.00149204 0)
(0.0321927 -0.00153391 0)
(0.0479963 -0.00158269 0)
(0.0641831 -0.00160586 0)
(0.0806249 -0.00161494 0)
(0.0970885 -0.00161958 0)
(0.11337 -0.00159617 0)
(0.129289 -0.00154746 0)
(0.144565 -0.00146794 0)
(0.158823 -0.00135301 0)
(0.171746 -0.0012117 0)
(0.182991 -0.00103012 0)
(0.192336 -0.000815459 0)
(0.199427 -0.000586724 0)
(0.204067 -0.000331911 0)
(0.206171 -7.45706e-05 0)
(0.205718 0.000185078 0)
(0.202402 0.000463668 0)
(0.196455 0.00070839 0)
(0.188167 0.000939013 0)
(0.177624 0.00115403 0)
(0.165137 0.00132161 0)
(0.150999 0.00147304 0)
(0.135578 0.00159053 0)
(0.119233 0.00166327 0)
(0.102201 0.00171634 0)
(0.0847893 0.0017212 0)
(0.0673394 0.00172188 0)
(0.0500952 0.00169993 0)
(0.0332014 0.00164505 0)
(0.0167938 0.00158572 0)
(0.00146959 0.00150726 0)
(-0.01289 0.00142431 0)
(-0.0266912 0.00134219 0)
(-0.0396606 0.00124931 0)
(-0.0517619 0.00116342 0)
(-0.062998 0.00107833 0)
(-0.0733864 0.00099239 0)
(-0.0829675 0.000915308 0)
(-0.0917895 0.000842478 0)
(-0.0998996 0.000772106 0)
(-0.10735 0.000709756 0)
(-0.114191 0.000649775 0)
(-0.120466 0.000596138 0)
(-0.126211 0.000545235 0)
(-0.13145 0.000495001 0)
(-0.136199 0.000447148 0)
(-0.140461 0.000398786 0)
(-0.144228 0.000348036 0)
(-0.147479 0.00029563 0)
(-0.150186 0.000239122 0)
(-0.152315 0.000178607 0)
(-0.153807 0.000113243 0)
(-0.154615 4.68929e-05 0)
(-0.154726 -2.91477e-05 0)
(-0.154024 -0.000110457 0)
(-0.152488 -0.000196092 0)
(-0.150071 -0.00028556 0)
(-0.146722 -0.00037842 0)
(-0.142414 -0.000475884 0)
(-0.137122 -0.000573585 0)
(-0.130828 -0.00067587 0)
(-0.123528 -0.000774388 0)
(-0.11522 -0.000871294 0)
(-0.105915 -0.000973917 0)
(-0.0956393 -0.00106519 0)
(-0.0844264 -0.00115151 0)
(-0.072319 -0.00124596 0)
(-0.059373 -0.00132032 0)
(-0.0456533 -0.00140434 0)
(-0.0312351 -0.00146275 0)
(-0.0161914 -0.00151057 0)
(-0.000648371 -0.00157137 0)
(0.015288 -0.00159765 0)
(0.0315262 -0.00161092 0)
(0.0479318 -0.00163655 0)
(0.0643676 -0.00162278 0)
(0.0806895 -0.00161999 0)
(0.0967468 -0.00157644 0)
(0.112374 -0.00151717 0)
(0.127414 -0.00146449 0)
(0.141692 -0.00137278 0)
(0.156306 -0.00126614 0)
(-0.0321573 0.00510138 0)
(-0.046901 0.00481009 0)
(-0.0626136 0.00456185 0)
(-0.0774234 0.00429166 0)
(-0.091271 0.00396979 0)
(-0.104127 0.00368411 0)
(-0.115981 0.00336699 0)
(-0.126839 0.00308248 0)
(-0.136716 0.00279945 0)
(-0.145631 0.00250751 0)
(-0.153615 0.00223987 0)
(-0.160697 0.00197895 0)
(-0.166909 0.00172002 0)
(-0.172284 0.00147753 0)
(-0.17685 0.0012392 0)
(-0.180638 0.00101249 0)
(-0.183671 0.000791265 0)
(-0.185975 0.000572643 0)
(-0.187565 0.000358527 0)
(-0.188406 0.00015803 0)
(-0.188577 -5.47985e-05 0)
(-0.188026 -0.000271285 0)
(-0.186758 -0.000487474 0)
(-0.184754 -0.000709332 0)
(-0.181996 -0.000936014 0)
(-0.178462 -0.00117336 0)
(-0.174125 -0.00141601 0)
(-0.16895 -0.00166635 0)
(-0.162907 -0.00193574 0)
(-0.155965 -0.0022034 0)
(-0.148089 -0.00247838 0)
(-0.139254 -0.00278257 0)
(-0.129432 -0.00306725 0)
(-0.118604 -0.00338976 0)
(-0.106766 -0.0036754 0)
(-0.0939208 -0.00395616 0)
(-0.0800685 -0.00428468 0)
(-0.0652341 -0.00454037 0)
(-0.0494987 -0.00476846 0)
(-0.0328337 -0.00506363 0)
(-0.0154756 -0.00523825 0)
(0.00237159 -0.00546525 0)
(0.0207935 -0.00555775 0)
(0.0395714 -0.00558739 0)
(0.0584888 -0.00566214 0)
(0.0773733 -0.00558517 0)
(0.0959785 -0.00543256 0)
(0.114064 -0.00529011 0)
(0.131416 -0.00501532 0)
(0.147785 -0.0046642 0)
(0.162925 -0.0042892 0)
(0.176625 -0.00381086 0)
(0.188665 -0.00329688 0)
(0.198855 -0.0027202 0)
(0.207052 -0.0020806 0)
(0.213111 -0.00143819 0)
(0.216917 -0.000762933 0)
(0.218351 -5.17713e-05 0)
(0.217465 0.000622077 0)
(0.214093 0.0013385 0)
(0.208465 0.00196701 0)
(0.200662 0.00260121 0)
(0.190772 0.00322337 0)
(0.178935 0.00373333 0)
(0.16542 0.00423346 0)
(0.150307 0.00466522 0)
(0.133961 0.00499608 0)
(0.11651 0.00527738 0)
(0.0982879 0.00546585 0)
(0.0795784 0.00562426 0)
(0.0603903 0.00566223 0)
(0.0412883 0.00569005 0)
(0.0221137 0.00561301 0)
(0.00351112 0.00550929 0)
(-0.0144349 0.00534395 0)
(-0.0321027 0.00515831 0)
(-0.0490607 0.00490791 0)
(-0.0652485 0.00467433 0)
(-0.0804825 0.00438603 0)
(-0.0947813 0.00408281 0)
(-0.108132 0.00379392 0)
(-0.12032 0.00346707 0)
(-0.13145 0.00314519 0)
(-0.141518 0.00282088 0)
(-0.150478 0.00247457 0)
(-0.158295 0.00213544 0)
(-0.164898 0.0018069 0)
(-0.170364 0.00143842 0)
(-0.174707 0.0011177 0)
(-0.17792 0.000819251 0)
(-0.180129 0.00051793 0)
(-0.181429 0.00027194 0)
(-0.181951 3.82127e-05 0)
(-0.18175 -0.00017658 0)
(-0.180834 -0.000340841 0)
(-0.179325 -0.000536895 0)
(-0.177265 -0.000699676 0)
(-0.174635 -0.000873581 0)
(-0.171468 -0.00104794 0)
(-0.167675 -0.00119885 0)
(-0.163289 -0.00138126 0)
(-0.158312 -0.00157154 0)
(-0.152698 -0.00176627 0)
(-0.146421 -0.00197387 0)
(-0.139439 -0.00218253 0)
(-0.131747 -0.00239798 0)
(-0.123307 -0.00262152 0)
(-0.114128 -0.00284908 0)
(-0.104157 -0.0030807 0)
(-0.093419 -0.00332065 0)
(-0.0818721 -0.00355157 0)
(-0.0694981 -0.00379438 0)
(-0.0563931 -0.00403582 0)
(-0.0424967 -0.00422401 0)
(-0.0278752 -0.00444427 0)
(-0.0126242 -0.0046365 0)
(0.003241 -0.00478534 0)
(0.0195999 -0.0049274 0)
(0.0363455 -0.00502551 0)
(0.0533507 -0.00508654 0)
(0.0704747 -0.0051016 0)
(0.0875581 -0.00505809 0)
(0.104412 -0.00496153 0)
(0.120814 -0.00479082 0)
(0.13655 -0.00455536 0)
(0.151372 -0.00425429 0)
(0.165049 -0.00387715 0)
(0.177331 -0.00342103 0)
(0.187976 -0.00290507 0)
(0.196768 -0.00232233 0)
(0.203502 -0.00168085 0)
(0.208045 -0.00101584 0)
(0.210264 -0.00031716 0)
(0.21013 0.000393191 0)
(0.207518 0.00112217 0)
(0.202502 0.00182441 0)
(0.195223 0.00249886 0)
(0.185759 0.00311213 0)
(0.174299 0.0036943 0)
(0.161024 0.00419416 0)
(0.146172 0.00462848 0)
(0.129993 0.00498482 0)
(0.112741 0.00526116 0)
(0.0946977 0.0054685 0)
(0.0761121 0.00557347 0)
(0.0572822 0.00561817 0)
(0.0384427 0.00559174 0)
(0.0198276 0.00548868 0)
(0.00164487 0.00533537 0)
(-0.0159312 0.00512834 0)
(-0.0327461 0.0048874 0)
(-0.0487107 0.00461874 0)
(-0.0637497 0.00432742 0)
(-0.0777798 0.0040203 0)
(-0.0907414 0.00371155 0)
(-0.102659 0.00338775 0)
(-0.113522 0.00308086 0)
(-0.123359 0.00278674 0)
(-0.1322 0.00248217 0)
(-0.140077 0.00220766 0)
(-0.147045 0.00194307 0)
(-0.153146 0.00168905 0)
(-0.158425 0.00145264 0)
(-0.162935 0.00123996 0)
(-0.166745 0.00102811 0)
(-0.169889 0.000845044 0)
(-0.172394 0.000655199 0)
(-0.174302 0.000476102 0)
(-0.175608 0.000298745 0)
(-0.176296 0.000131201 0)
(-0.176443 -4.50553e-05 0)
(-0.176011 -0.000232617 0)
(-0.174952 -0.000372291 0)
(-0.173344 -0.000571234 0)
(-0.17118 -0.000746528 0)
(-0.168378 -0.000907995 0)
(-0.16496 -0.00109795 0)
(-0.160982 -0.00127173 0)
(-0.156396 -0.00145164 0)
(-0.151232 -0.00164407 0)
(-0.145442 -0.00182706 0)
(-0.138978 -0.00201383 0)
(-0.131885 -0.0022114 0)
(-0.124102 -0.00241242 0)
(-0.115583 -0.00262374 0)
(-0.106355 -0.00287388 0)
(-0.096353 -0.0030766 0)
(-0.0855321 -0.00332966 0)
(-0.073966 -0.00355574 0)
(-0.0616525 -0.00380118 0)
(-0.0485706 -0.00398115 0)
(-0.0347598 -0.00420536 0)
(-0.02031 -0.00438698 0)
(-0.00527016 -0.0045433 0)
(0.0102488 -0.00466907 0)
(0.0261218 -0.00477012 0)
(0.0422536 -0.00483025 0)
(0.0585294 -0.00484968 0)
(0.0747871 -0.00481926 0)
(0.0908245 -0.00472574 0)
(0.106434 -0.00455324 0)
(0.121341 -0.00431553 0)
(0.135294 -0.00398119 0)
(0.14804 -0.00358955 0)
(0.159336 -0.00312362 0)
(0.168982 -0.0026141 0)
(0.176838 -0.00204648 0)
(0.18274 -0.0014566 0)
(0.186571 -0.000823836 0)
(0.188238 -0.000184511 0)
(0.187739 0.000476629 0)
(0.184927 0.00114862 0)
(0.179934 0.00181514 0)
(0.172833 0.00240739 0)
(0.163735 0.0029838 0)
(0.152855 0.00347423 0)
(0.140406 0.00393549 0)
(0.126587 0.00428348 0)
(0.111653 0.00459403 0)
(0.0958206 0.00481941 0)
(0.0793345 0.0049684 0)
(0.0624747 0.00506267 0)
(0.0454339 0.00507682 0)
(0.0284188 0.00503552 0)
(0.0116546 0.00493489 0)
(-0.00468859 0.00480001 0)
(-0.0204763 0.00460844 0)
(-0.0355896 0.00438729 0)
(-0.0499272 0.00415526 0)
(-0.0634687 0.00390359 0)
(-0.0761607 0.00364816 0)
(-0.0879744 0.00338568 0)
(-0.098923 0.00312624 0)
(-0.109009 0.00286954 0)
(-0.118243 0.002639 0)
(-0.12667 0.00238547 0)
(-0.134308 0.00215855 0)
(-0.141194 0.00192781 0)
(-0.14732 0.00173385 0)
(-0.152751 0.00151433 0)
(-0.157513 0.00132215 0)
(-0.161641 0.00112888 0)
(-0.165155 0.000939209 0)
(-0.168027 0.000783299 0)
(-0.170305 0.000587407 0)
(-0.172008 0.000419613 0)
(-0.173126 0.000249427 0)
(-0.173695 0.000104579 0)
(-0.17377 -4.99311e-05 0)
(-0.173376 -0.000190024 0)
(-0.172511 -0.000316497 0)
(-0.171243 -0.000436308 0)
(-0.169579 -0.000566014 0)
(-0.167488 -0.00068001 0)
(-0.164944 -0.000831902 0)
(-0.161886 -0.000988868 0)
(-0.158268 -0.00115245 0)
(-0.154061 -0.00134449 0)
(-0.149241 -0.00155167 0)
(-0.143748 -0.00169836 0)
(-0.137617 -0.00191943 0)
(-0.130824 -0.0021086 0)
(-0.123347 -0.00231342 0)
(-0.115202 -0.0025185 0)
(-0.106424 -0.00269868 0)
(-0.0969341 -0.00290504 0)
(-0.0867443 -0.00310215 0)
(-0.0759636 -0.00328118 0)
(-0.0645562 -0.00346536 0)
(-0.0525141 -0.0036597 0)
(-0.0399499 -0.00380738 0)
(-0.0267482 -0.00399025 0)
(-0.0130303 -0.0041542 0)
(0.00148518 -0.00433783 0)
(0.016711 -0.00448201 0)
(0.0321758 -0.00460303 0)
(0.0479842 -0.00474545 0)
(0.0641786 -0.00481605 0)
(0.0806286 -0.00485045 0)
(0.0970997 -0.00486175 0)
(0.113394 -0.00478521 0)
(0.129323 -0.00464733 0)
(0.144615 -0.00440624 0)
(0.158889 -0.0040597 0)
(0.171828 -0.00363453 0)
(0.183083 -0.00309855 0)
(0.192448 -0.0024436 0)
(0.199547 -0.00175771 0)
(0.204187 -0.00100599 0)
(0.206308 -0.000219755 0)
(0.205843 0.000555803 0)
(0.202519 0.00139097 0)
(0.196572 0.00212553 0)
(0.188275 0.00281811 0)
(0.177721 0.00346312 0)
(0.16522 0.0039656 0)
(0.151068 0.00442079 0)
(0.135633 0.00476955 0)
(0.119273 0.00499078 0)
(0.102226 0.00515014 0)
(0.0848035 0.00516478 0)
(0.0673438 0.00516671 0)
(0.0500901 0.00510108 0)
(0.0331882 0.00493562 0)
(0.0167724 0.0047576 0)
(0.00144457 0.00452211 0)
(-0.0129161 0.0042735 0)
(-0.0267204 0.00402688 0)
(-0.039691 0.00374807 0)
(-0.0517927 0.00349034 0)
(-0.0630284 0.00323498 0)
(-0.0734155 0.00297713 0)
(-0.0829952 0.00274583 0)
(-0.0918156 0.00252732 0)
(-0.0999238 0.00231623 0)
(-0.107373 0.00212915 0)
(-0.114212 0.00194924 0)
(-0.120486 0.00178835 0)
(-0.126229 0.00163569 0)
(-0.131468 0.00148502 0)
(-0.136218 0.00134153 0)
(-0.14048 0.00119649 0)
(-0.144247 0.00104433 0)
(-0.1475 0.000887073 0)
(-0.150208 0.000717671 0)
(-0.152338 0.000536075 0)
(-0.153835 0.000340593 0)
(-0.154644 0.000140484 0)
(-0.154757 -8.73056e-05 0)
(-0.154057 -0.000331129 0)
(-0.152524 -0.000588045 0)
(-0.150107 -0.000856481 0)
(-0.14676 -0.00113507 0)
(-0.142453 -0.00142746 0)
(-0.137162 -0.00172066 0)
(-0.130869 -0.00202755 0)
(-0.123569 -0.00232318 0)
(-0.115259 -0.00261391 0)
(-0.105954 -0.00292186 0)
(-0.095677 -0.00319571 0)
(-0.0844622 -0.00345468 0)
(-0.072353 -0.0037381 0)
(-0.0594041 -0.00396123 0)
(-0.0456819 -0.00421334 0)
(-0.0312601 -0.00438864 0)
(-0.0162125 -0.00453229 0)
(-0.000665544 -0.00471439 0)
(0.0152758 -0.0047934 0)
(0.031519 -0.00483326 0)
(0.0479299 -0.0049102 0)
(0.0643715 -0.00486893 0)
(0.0806996 -0.00486061 0)
(0.096763 -0.00472996 0)
(0.112396 -0.00455217 0)
(0.127444 -0.00439415 0)
(0.141728 -0.00411902 0)
(0.156349 -0.00379909 0)
(-0.0322214 0.00850355 0)
(-0.0469695 0.00801773 0)
(-0.0626876 0.00760371 0)
(-0.0775012 0.00715316 0)
(-0.0913494 0.00661649 0)
(-0.104207 0.00614018 0)
(-0.116059 0.00561152 0)
(-0.126916 0.00513724 0)
(-0.136792 0.00466546 0)
(-0.145704 0.00417885 0)
(-0.153686 0.00373277 0)
(-0.160766 0.00329791 0)
(-0.166975 0.00286638 0)
(-0.172347 0.00246228 0)
(-0.176912 0.00206512 0)
(-0.180697 0.00168733 0)
(-0.183728 0.00131871 0)
(-0.18603 0.000954668 0)
(-0.187619 0.00059817 0)
(-0.188465 0.000262754 0)
(-0.188633 -9.16022e-05 0)
(-0.188084 -0.000451998 0)
(-0.186816 -0.000812109 0)
(-0.184813 -0.00118168 0)
(-0.182057 -0.00155959 0)
(-0.178526 -0.00195529 0)
(-0.174191 -0.00235946 0)
(-0.169019 -0.00277676 0)
(-0.162978 -0.00322575 0)
(-0.156038 -0.00367182 0)
(-0.148165 -0.00413026 0)
(-0.139331 -0.00463738 0)
(-0.12951 -0.00511189 0)
(-0.118684 -0.00564957 0)
(-0.106846 -0.00612586 0)
(-0.0939986 -0.00659384 0)
(-0.080145 -0.00714169 0)
(-0.0653058 -0.00756799 0)
(-0.0495646 -0.00794832 0)
(-0.0328939 -0.0084405 0)
(-0.0155254 -0.00873256 0)
(0.00233304 -0.00911068 0)
(0.0207674 -0.00926513 0)
(0.0395593 -0.00931483 0)
(0.0584937 -0.00943979 0)
(0.0773951 -0.00931154 0)
(0.0960175 -0.00905742 0)
(0.114124 -0.00882011 0)
(0.131494 -0.00836209 0)
(0.14788 -0.00777694 0)
(0.16304 -0.00715141 0)
(0.176755 -0.00635558 0)
(0.188813 -0.00549663 0)
(0.199015 -0.00453483 0)
(0.207221 -0.00347231 0)
(0.21329 -0.00239594 0)
(0.217101 -0.00127347 0)
(0.218543 -8.63441e-05 0)
(0.217635 0.00103466 0)
(0.21426 0.00223075 0)
(0.208634 0.00327879 0)
(0.200823 0.00433691 0)
(0.190921 0.00537431 0)
(0.17907 0.00622441 0)
(0.165538 0.0070591 0)
(0.150408 0.0077783 0)
(0.134043 0.00833025 0)
(0.116572 0.00879824 0)
(0.0983347 0.00911374 0)
(0.0796 0.00937695 0)
(0.0603973 0.00944167 0)
(0.0412814 0.0094847 0)
(0.0220877 0.00935695 0)
(0.0034752 0.00918713 0)
(-0.0144842 0.00890997 0)
(-0.032165 0.00859861 0)
(-0.0491277 0.00818027 0)
(-0.0653201 0.00779322 0)
(-0.0805645 0.00731491 0)
(-0.0948671 0.00680279 0)
(-0.108218 0.00632478 0)
(-0.120413 0.00577761 0)
(-0.131541 0.00523999 0)
(-0.141609 0.00470228 0)
(-0.150568 0.0041256 0)
(-0.158384 0.00356233 0)
(-0.164996 0.00300759 0)
(-0.170459 0.0023998 0)
(-0.174803 0.00186786 0)
(-0.178024 0.00135824 0)
(-0.180224 0.000867145 0)
(-0.181518 0.000456545 0)
(-0.182032 6.46607e-05 0)
(-0.181824 -0.000289078 0)
(-0.180917 -0.0005641 0)
(-0.179417 -0.000891644 0)
(-0.17737 -0.00116267 0)
(-0.174758 -0.00145124 0)
(-0.171597 -0.00174668 0)
(-0.167815 -0.00199887 0)
(-0.163454 -0.00230879 0)
(-0.158489 -0.00262844 0)
(-0.152875 -0.00293654 0)
(-0.146607 -0.00328833 0)
(-0.13964 -0.00364488 0)
(-0.131954 -0.00398546 0)
(-0.123523 -0.00437017 0)
(-0.114343 -0.00474754 0)
(-0.104378 -0.00513324 0)
(-0.093632 -0.00553489 0)
(-0.0820851 -0.00590538 0)
(-0.0697232 -0.00633853 0)
(-0.056607 -0.00671795 0)
(-0.0427111 -0.00704642 0)
(-0.0280844 -0.00739883 0)
(-0.0128163 -0.00772092 0)
(0.00305018 -0.00797823 0)
(0.0194117 -0.00821764 0)
(0.0361694 -0.00838286 0)
(0.0531935 -0.00847753 0)
(0.0703366 -0.0085016 0)
(0.08743 -0.00843008 0)
(0.104296 -0.00827502 0)
(0.120721 -0.00798605 0)
(0.136464 -0.00759822 0)
(0.151308 -0.00709684 0)
(0.165007 -0.00646022 0)
(0.177309 -0.00570802 0)
(0.187974 -0.00483271 0)
(0.196776 -0.00386782 0)
(0.20352 -0.00280651 0)
(0.208069 -0.00168952 0)
(0.210284 -0.000524607 0)
(0.210134 0.000652947 0)
(0.207512 0.00187168 0)
(0.202511 0.00304668 0)
(0.19522 0.00417684 0)
(0.185734 0.00518982 0)
(0.174243 0.00616352 0)
(0.160946 0.00699234 0)
(0.146082 0.00772446 0)
(0.129883 0.0083067 0)
(0.112603 0.00878205 0)
(0.0945396 0.00911554 0)
(0.0759399 0.00929589 0)
(0.0570849 0.00936589 0)
(0.0382318 0.00932002 0)
(0.0195996 0.00914922 0)
(0.00139247 0.00889171 0)
(-0.0161955 0.00854903 0)
(-0.033018 0.00815352 0)
(-0.0489951 0.00770122 0)
(-0.0640401 0.00720515 0)
(-0.0780577 0.00670024 0)
(-0.0910201 0.00619381 0)
(-0.102934 0.00564814 0)
(-0.113796 0.0051315 0)
(-0.123627 0.00464021 0)
(-0.132463 0.00413728 0)
(-0.140341 0.00367528 0)
(-0.147304 0.00324122 0)
(-0.153399 0.00282013 0)
(-0.158679 0.00242369 0)
(-0.163198 0.00206577 0)
(-0.167002 0.00171121 0)
(-0.170141 0.00140658 0)
(-0.172645 0.00109262 0)
(-0.174552 0.000785266 0)
(-0.175855 0.000491675 0)
(-0.176545 0.000230719 0)
(-0.176692 -7.23026e-05 0)
(-0.176254 -0.000381464 0)
(-0.175198 -0.000635559 0)
(-0.173591 -0.00094628 0)
(-0.171426 -0.00124853 0)
(-0.168615 -0.00151519 0)
(-0.165195 -0.00182491 0)
(-0.161215 -0.00211358 0)
(-0.156641 -0.00242398 0)
(-0.151481 -0.00274967 0)
(-0.145678 -0.00303161 0)
(-0.13922 -0.00335765 0)
(-0.132118 -0.00368523 0)
(-0.12434 -0.0040243 0)
(-0.115827 -0.00437379 0)
(-0.106598 -0.00478561 0)
(-0.0965971 -0.00513247 0)
(-0.0857811 -0.00554684 0)
(-0.0742147 -0.00592783 0)
(-0.0618856 -0.00633015 0)
(-0.048795 -0.00663705 0)
(-0.0349865 -0.00700959 0)
(-0.0205259 -0.0073144 0)
(-0.00547818 -0.0075747 0)
(0.0100452 -0.00778728 0)
(0.0259289 -0.00794526 0)
(0.0420684 -0.00804901 0)
(0.0583571 -0.00808582 0)
(0.0746288 -0.00803788 0)
(0.0906887 -0.00788329 0)
(0.10632 -0.0075863 0)
(0.121246 -0.00718748 0)
(0.135214 -0.00663988 0)
(0.147978 -0.00598145 0)
(0.159282 -0.00521014 0)
(0.16894 -0.00435289 0)
(0.176807 -0.00341449 0)
(0.182721 -0.0024308 0)
(0.186562 -0.00137735 0)
(0.188234 -0.000293489 0)
(0.187719 0.000794358 0)
(0.184903 0.00192069 0)
(0.179907 0.00301668 0)
(0.172799 0.00401534 0)
(0.163687 0.00497619 0)
(0.15279 0.00579654 0)
(0.14033 0.00655246 0)
(0.126495 0.00714986 0)
(0.111529 0.00766419 0)
(0.0956772 0.00802895 0)
(0.0791866 0.00828686 0)
(0.0623131 0.00844508 0)
(0.045255 0.0084617 0)
(0.028221 0.00839519 0)
(0.0114499 0.00822898 0)
(-0.00490811 0.00800484 0)
(-0.0207163 0.0076738 0)
(-0.0358281 0.00731401 0)
(-0.0501796 0.00692906 0)
(-0.0637256 0.0065025 0)
(-0.0764117 0.00607774 0)
(-0.0882276 0.00565766 0)
(-0.0991846 0.00520775 0)
(-0.10927 0.00478937 0)
(-0.118507 0.0043867 0)
(-0.126931 0.00398205 0)
(-0.134567 0.00358987 0)
(-0.141443 0.00321478 0)
(-0.147574 0.00287983 0)
(-0.153003 0.00252934 0)
(-0.157763 0.00220941 0)
(-0.161894 0.00188549 0)
(-0.165402 0.00157476 0)
(-0.168276 0.00130151 0)
(-0.170556 0.000981642 0)
(-0.172265 0.000700331 0)
(-0.173384 0.000406809 0)
(-0.17395 0.000179969 0)
(-0.174021 -8.91241e-05 0)
(-0.173619 -0.000310275 0)
(-0.172756 -0.000528632 0)
(-0.171484 -0.000729673 0)
(-0.169815 -0.000939591 0)
(-0.167722 -0.00114202 0)
(-0.16517 -0.0013796 0)
(-0.162107 -0.00165296 0)
(-0.158483 -0.00192612 0)
(-0.154267 -0.00223863 0)
(-0.149424 -0.00257103 0)
(-0.143933 -0.0028515 0)
(-0.137786 -0.00319011 0)
(-0.130985 -0.0035141 0)
(-0.123506 -0.00386889 0)
(-0.115338 -0.004198 0)
(-0.106549 -0.00449553 0)
(-0.0970653 -0.00484318 0)
(-0.0868575 -0.00516807 0)
(-0.0760695 -0.00547107 0)
(-0.0646581 -0.00577726 0)
(-0.0526014 -0.00610072 0)
(-0.0400323 -0.00635115 0)
(-0.0268322 -0.0066545 0)
(-0.0131005 -0.00692583 0)
(0.00142052 -0.00722978 0)
(0.016657 -0.00746682 0)
(0.0321253 -0.00767534 0)
(0.0479412 -0.00791445 0)
(0.0641528 -0.00803227 0)
(0.0806176 -0.00808215 0)
(0.097103 -0.00810256 0)
(0.113409 -0.00798384 0)
(0.129367 -0.00774667 0)
(0.144685 -0.00734869 0)
(0.158985 -0.00677362 0)
(0.171955 -0.00606135 0)
(0.183239 -0.00516788 0)
(0.192624 -0.00407672 0)
(0.199736 -0.00293778 0)
(0.204398 -0.00167275 0)
(0.206524 -0.000366649 0)
(0.206042 0.000922707 0)
(0.202711 0.00231882 0)
(0.196761 0.00354367 0)
(0.188449 0.00470038 0)
(0.177874 0.00577617 0)
(0.165349 0.00661475 0)
(0.151169 0.00736793 0)
(0.135709 0.00797307 0)
(0.119325 0.00832473 0)
(0.10225 0.0085878 0)
(0.0848072 0.00861138 0)
(0.0673302 0.00861393 0)
(0.0500596 0.00850535 0)
(0.033144 0.00822698 0)
(0.0167139 0.00793022 0)
(0.00138088 0.00753789 0)
(-0.0129805 0.00712364 0)
(-0.0267898 0.00671206 0)
(-0.0397611 0.00624686 0)
(-0.0518624 0.00581709 0)
(-0.0630961 0.00539112 0)
(-0.0734797 0.00496146 0)
(-0.0830559 0.00457581 0)
(-0.0918724 0.00421154 0)
(-0.0999762 0.0038598 0)
(-0.107421 0.003548 0)
(-0.114257 0.00324825 0)
(-0.120528 0.00298022 0)
(-0.126269 0.00272592 0)
(-0.131507 0.00247496 0)
(-0.136256 0.00223603 0)
(-0.140519 0.00199438 0)
(-0.144288 0.00174086 0)
(-0.147542 0.00147903 0)
(-0.150253 0.00119677 0)
(-0.152386 0.000894883 0)
(-0.153888 0.000568884 0)
(-0.154704 0.000234608 0)
(-0.154819 -0.000145285 0)
(-0.154123 -0.000551415 0)
(-0.152593 -0.000979609 0)
(-0.15018 -0.001427 0)
(-0.146835 -0.00189138 0)
(-0.142531 -0.00237876 0)
(-0.137241 -0.00286762 0)
(-0.130949 -0.00337919 0)
(-0.123648 -0.00387208 0)
(-0.115337 -0.00435672 0)
(-0.106031 -0.00487018 0)
(-0.0957509 -0.00532668 0)
(-0.0845321 -0.00575842 0)
(-0.0724195 -0.00623096 0)
(-0.0594649 -0.00660296 0)
(-0.0457375 -0.00702332 0)
(-0.0313083 -0.00731562 0)
(-0.016253 -0.00755533 0)
(-0.000698295 -0.00785869 0)
(0.0152528 -0.00799058 0)
(0.0315062 -0.0080571 0)
(0.0479277 -0.00818551 0)
(0.0643804 -0.0081168 0)
(0.0807209 -0.0081031 0)
(0.0967966 -0.00788538 0)
(0.112442 -0.0075891 0)
(0.127504 -0.00732583 0)
(0.141801 -0.00686726 0)
(0.156436 -0.00633399 0)
(-0.0323176 0.0119076 0)
(-0.0470724 0.0112267 0)
(-0.0627987 0.0106465 0)
(-0.0776178 0.0100152 0)
(-0.091467 0.00926345 0)
(-0.104326 0.00859625 0)
(-0.116177 0.00785584 0)
(-0.127032 0.00719162 0)
(-0.136905 0.00653099 0)
(-0.145814 0.00584964 0)
(-0.153792 0.00522509 0)
(-0.160869 0.00461628 0)
(-0.167074 0.0040122 0)
(-0.172443 0.00344649 0)
(-0.177003 0.00289058 0)
(-0.180786 0.00236184 0)
(-0.183815 0.00184593 0)
(-0.186113 0.00133733 0)
(-0.187698 0.000839869 0)
(-0.188554 0.000364191 0)
(-0.188717 -0.000130004 0)
(-0.188169 -0.000632623 0)
(-0.186903 -0.00113639 0)
(-0.184902 -0.0016535 0)
(-0.182149 -0.00218263 0)
(-0.178621 -0.0027367 0)
(-0.17429 -0.00330229 0)
(-0.169121 -0.0038865 0)
(-0.163085 -0.00451508 0)
(-0.156148 -0.00513951 0)
(-0.148278 -0.0057816 0)
(-0.139448 -0.00649191 0)
(-0.129628 -0.00715626 0)
(-0.118805 -0.00790934 0)
(-0.106966 -0.0085764 0)
(-0.0941153 -0.00923196 0)
(-0.0802597 -0.00999942 0)
(-0.0654134 -0.0105966 0)
(-0.0496635 -0.0111296 0)
(-0.0329845 -0.0118191 0)
(-0.0156002 -0.0122301 0)
(0.00227506 -0.0127591 0)
(0.0207279 -0.012976 0)
(0.039541 -0.0130461 0)
(0.0585009 -0.0132217 0)
(0.0774277 -0.0130424 0)
(0.096076 -0.012687 0)
(0.114213 -0.0123551 0)
(0.13161 -0.0117142 0)
(0.148024 -0.0108947 0)
(0.163213 -0.0100193 0)
(0.176954 -0.00890308 0)
(0.189034 -0.00770352 0)
(0.199256 -0.00635552 0)
(0.207478 -0.00486343 0)
(0.213554 -0.00336191 0)
(0.217378 -0.00178987 0)
(0.218824 -0.000116765 0)
(0.21788 0.00145567 0)
(0.214518 0.00312221 0)
(0.208886 0.00459159 0)
(0.201062 0.006075 0)
(0.191144 0.00752845 0)
(0.179272 0.00871923 0)
(0.165713 0.00988984 0)
(0.150558 0.0108951 0)
(0.134165 0.0116697 0)
(0.116663 0.0123234 0)
(0.098403 0.0127668 0)
(0.0796312 0.0131337 0)
(0.0604073 0.0132272 0)