/*--------------------------------*- C++ -*----------------------------------*\
| =========                 |                                                 |
| \\      /  F ield         | OpenFOAM: The Open Source CFD Toolbox           |
|  \\    /   O peration     | Version:  3.0.1                                 |
|   \\  /    A nd           | Web:      www.OpenFOAM.org                      |
|    \\/     M anipulation  |                                                 |
\*---------------------------------------------------------------------------*/
FoamFile
{
    version     2.0;
    format      ascii;
    class       volScalarField;
    location    "51.2";
    object      p;
}
// * * * * * * * * * * * * * * * * * * * * * * * * * * * * * * * * * * * * * //

dimensions      [1 -1 -2 0 0 0 0];

internalField   nonuniform List<scalar> 
21420
(
3792.48
3821.53
3852.14
3883.51
3909.08
3943
3977.79
4012.6
4047.01
4080.67
4113.13
4143.98
4172.82
4199.19
4222.71
4243.01
4259.76
4272.71
4281.68
4286.53
4287.07
4283.48
4275.78
4264.03
4248.43
4229.24
4206.74
4181.25
4153.18
4122.89
4090.82
4057.42
4023.1
3988.25
3953.22
3918.4
3888.56
3855.58
3823.77
3793.33
3764.43
3737.18
3711.68
3687.97
3666.08
3646.02
3627.77
3611.32
3596.61
3583.63
3572.32
3562.65
3554.57
3548.05
3543.07
3539.59
3537.65
3537.25
3538.34
3540.95
3545.12
3550.85
3558.2
3567.18
3577.81
3590.15
3604.2
3620
3637.55
3656.84
3677.88
3700.6
3724.96
3750.89
3778.28
3806.99
3836.89
3867.81
3899.79
3932.43
3965.27
3998.08
4030.65
4062.64
4093.72
4123.56
4151.79
4178.04
4201.96
4223.2
4241.45
4256.42
4267.87
4275.62
4279.52
4279.43
4275.41
4267.47
4255.63
4240.05
4220.93
4198.51
4173.06
4144.95
4114.53
4082.23
4048.48
4013.74
3978.46
3943.1
3908.08
3873.78
3840.56
3808.7
3778.44
3749.97
3723.41
3698.85
3676.33
3655.86
3637.44
3621.01
3606.54
3593.96
3583.19
3574.17
3566.81
3561.06
3556.83
3554.04
3552.66
3552.64
3553.88
3556.36
3560.07
3564.97
3571.07
3578.39
3586.93
3596.76
3607.89
3620.4
3634.33
3649.74
3666.68
3685.2
3705.33
3727.08
3750.44
3775.39
3801.85
3829.74
3858.93
3889.26
3920.54
3952.49
3984.85
4017.28
4049.43
4080.94
4111.38
4140.36
4167.44
4192.22
4214.31
4233.33
4248.95
4260.88
4268.89
4272.81
4272.52
4268.05
4259.47
4246.85
4230.43
4210.48
4187.31
4161.31
4132.89
4102.49
4070.54
4037.52
4003.87
3970.02
3936.37
3903.27
3871.03
3839.91
3810.14
3781.89
3755.3
3730.47
3707.44
3686.25
3666.9
3649.35
3633.57
3619.5
3607.1
3596.29
3587.01
3579.21
3572.83
3567.8
3564.09
3561.65
3560.46
3560.52
3561.77
3564.23
3567.9
3572.79
3578.92
3586.3
3594.96
3604.94
3616.27
3628.99
3643.14
3658.75
3675.85
3694.48
3714.64
3736.33
3759.53
3784.2
3810.27
3837.63
3866.16
3895.71
3926.08
3957.02
3988.26
4019.49
4050.37
4080.53
4109.58
4137.1
4162.67
4185.88
4206.33
4223.65
4237.51
4247.64
4253.83
4255.87
4253.8
4247.55
4237.23
4222.97
4205.03
4183.7
4159.34
4132.37
4103.21
4072.35
4040.22
4007.31
3974.04
3940.83
3908.07
3876.08
3845.16
3815.54
3787.41
3760.91
3736.15
3713.18
3692.03
3672.7
3655.16
3639.39
3625.32
3612.9
3602.04
3592.67
3584.73
3578.14
3572.84
3568.79
3565.91
3564.12
3563.41
3563.77
3565.17
3567.59
3571.05
3575.59
3581.22
3587.96
3595.86
3604.96
3615.33
3627.03
3640.15
3654.78
3670.99
3688.86
3708.43
3729.73
3752.76
3777.48
3803.78
3831.55
3860.38
3890.15
3920.73
3951.74
3982.81
4013.52
4043.44
4072.19
4099.35
4124.52
4147.34
4167.49
4184.66
4198.61
4209.14
4216.11
4219.42
4218.95
4214.77
4207.04
4195.85
4181.43
4164.03
4143.98
4121.56
4097.13
4071.05
4043.67
4015.34
3986.39
3957.14
3927.9
3898.91
3870.43
3842.72
3816.65
3790.75
3765.86
3742.11
3719.62
3698.45
3678.65
3660.26
3643.31
3627.82
3613.8
3601.27
3590.21
3580.62
3572.51
3565.87
3560.68
3556.92
3694.29
3723.35
3753.97
3785.38
3810.9
3844.85
3879.66
3914.48
3948.91
3982.59
4015.07
4045.94
4074.79
4101.19
4124.73
4145.04
4161.8
4174.76
4183.74
4188.59
4189.14
4185.54
4177.83
4166.07
4150.46
4131.26
4108.75
4083.24
4055.14
4024.84
3992.75
3959.33
3924.99
3890.13
3855.09
3820.27
3790.38
3757.4
3725.59
3695.15
3666.25
3639
3613.49
3589.78
3567.9
3547.84
3529.6
3513.14
3498.44
3485.46
3474.16
3464.48
3456.41
3449.89
3444.91
3441.43
3439.49
3439.09
3440.18
3442.79
3446.96
3452.69
3460.04
3469.01
3479.64
3491.97
3506.03
3521.83
3539.37
3558.67
3579.7
3602.43
3626.79
3652.72
3680.11
3708.82
3738.73
3769.66
3801.65
3834.29
3867.14
3899.97
3932.54
3964.55
3995.65
4025.5
4053.75
4080.02
4103.95
4125.2
4143.46
4158.45
4169.92
4177.67
4181.58
4181.48
4177.45
4169.51
4157.66
4142.08
4122.95
4100.5
4075.05
4046.91
4016.48
3984.15
3950.39
3915.63
3880.33
3844.95
3809.92
3775.61
3742.38
3710.52
3680.25
3651.77
3625.21
3600.65
3578.13
3557.67
3539.25
3522.83
3508.36
3495.78
3485.02
3476
3468.65
3462.9
3458.67
3455.89
3454.51
3454.49
3455.73
3458.21
3461.91
3466.82
3472.92
3480.23
3488.78
3498.6
3509.73
3522.23
3536.16
3551.57
3568.51
3587.03
3607.16
3628.91
3652.27
3677.21
3703.68
3731.57
3760.77
3791.1
3822.39
3854.35
3886.72
3919.16
3951.33
3982.85
4013.32
4042.31
4069.41
4094.21
4116.32
4135.35
4150.98
4162.93
4170.95
4174.88
4174.58
4170.11
4161.52
4148.9
4132.46
4112.49
4089.31
4063.29
4034.85
4004.42
3972.46
3939.42
3905.75
3871.88
3838.22
3805.11
3772.86
3741.74
3711.96
3683.71
3657.12
3632.28
3609.26
3588.07
3568.72
3551.17
3535.4
3521.33
3508.93
3498.12
3488.85
3481.05
3474.67
3469.65
3465.94
3463.49
3462.31
3462.37
3463.62
3466.08
3469.75
3474.64
3480.76
3488.15
3496.81
3506.78
3518.11
3530.83
3544.97
3560.58
3577.68
3596.31
3616.47
3638.16
3661.36
3686.03
3712.1
3739.46
3768
3797.56
3827.93
3858.89
3890.14
3921.38
3952.28
3982.45
4011.52
4039.06
4064.65
4087.87
4108.34
4125.67
4139.55
4149.69
4155.89
4157.94
4155.86
4149.61
4139.27
4125.01
4107.05
4085.7
4061.32
4034.33
4005.16
3974.27
3942.13
3909.19
3875.91
3842.69
3809.91
3777.91
3746.98
3717.36
3689.23
3662.73
3637.97
3615
3593.85
3574.52
3556.99
3541.22
3527.15
3514.73
3503.88
3494.52
3486.58
3479.99
3474.7
3470.65
3467.76
3465.97
3465.27
3465.63
3467.03
3469.45
3472.91
3477.44
3483.07
3489.82
3497.71
3506.81
3517.18
3528.87
3541.99
3556.61
3572.81
3590.68
3610.25
3631.55
3654.59
3679.3
3705.6
3733.38
3762.22
3792
3822.59
3853.61
3884.7
3915.42
3945.36
3974.13
4001.31
4026.49
4049.34
4069.5
4086.68
4100.64
4111.18
4118.15
4121.46
4120.99
4116.81
4109.07
4097.87
4083.44
4066.02
4045.96
4023.52
3999.08
3972.99
3945.59
3917.24
3888.28
3859.03
3829.77
3800.77
3772.29
3744.57
3718.49
3692.59
3667.7
3643.95
3621.46
3600.29
3580.49
3562.1
3545.15
3529.66
3515.64
3503.1
3492.05
3482.46
3474.36
3467.71
3462.52
3458.76
3596.01
3625.08
3655.72
3687.2
3712.65
3746.66
3781.51
3816.36
3850.82
3884.53
3917.05
3947.96
3976.85
4003.28
4026.86
4047.2
4063.99
4076.97
4085.96
4090.82
4091.39
4087.76
4080.04
4068.26
4052.63
4033.4
4010.85
3985.3
3957.17
3926.83
3894.7
3861.25
3826.88
3791.99
3756.93
3722.1
3692.12
3659.15
3627.33
3596.89
3567.98
3540.73
3515.22
3491.52
3469.63
3449.58
3431.34
3414.89
3400.2
3387.22
3375.92
3366.25
3358.18
3351.67
3346.69
3343.22
3341.28
3340.87
3341.95
3344.57
3348.73
3354.46
3361.81
3370.78
3381.4
3393.73
3407.78
3423.58
3441.12
3460.41
3481.45
3504.17
3528.54
3554.47
3581.87
3610.59
3640.5
3671.45
3703.45
3736.12
3768.98
3801.83
3834.43
3866.47
3897.6
3927.48
3955.76
3982.06
4006.03
4027.32
4045.6
4060.61
4072.1
4079.87
4083.79
4083.69
4079.66
4071.71
4059.84
4044.24
4025.08
4002.61
3977.11
3948.94
3918.47
3886.11
3852.3
3817.5
3782.18
3746.77
3711.7
3677.38
3644.13
3612.25
3581.97
3553.49
3526.93
3502.37
3479.85
3459.39
3440.98
3424.56
3410.1
3397.53
3386.77
3377.76
3370.42
3364.67
3360.45
3357.67
3356.3
3356.28
3357.52
3360.01
3363.72
3368.62
3374.72
3382.03
3390.58
3400.39
3411.52
3424.01
3437.93
3453.34
3470.27
3488.79
3508.91
3530.66
3554.02
3578.96
3605.43
3633.33
3662.54
3692.88
3724.19
3756.17
3788.56
3821.03
3853.23
3884.79
3915.29
3944.32
3971.46
3996.3
4018.43
4037.5
4053.16
4065.13
4073.17
4077.11
4076.81
4072.33
4063.73
4051.08
4034.62
4014.61
3991.39
3965.34
3936.86
3906.39
3874.39
3841.31
3807.61
3773.71
3740.02
3706.89
3674.62
3643.49
3613.7
3585.44
3558.85
3534.01
3510.99
3489.81
3470.46
3452.92
3437.15
3423.09
3410.7
3399.9
3390.63
3382.84
3376.46
3371.44
3367.73
3365.29
3364.11
3364.17
3365.42
3367.88
3371.55
3376.44
3382.56
3389.94
3398.6
3408.57
3419.9
3432.61
3446.75
3462.35
3479.45
3498.07
3518.23
3539.92
3563.12
3587.79
3613.86
3641.24
3669.79
3699.35
3729.74
3760.72
3791.99
3823.26
3854.18
3884.4
3913.5
3941.07
3966.7
3989.96
4010.46
4027.83
4041.73
4051.9
4058.11
4060.18
4058.08
4051.82
4041.47
4027.18
4009.19
3987.81
3963.4
3936.36
3907.15
3876.22
3844.04
3811.07
3777.75
3744.5
3711.7
3679.68
3648.74
3619.1
3590.97
3564.47
3539.7
3516.74
3495.59
3476.26
3458.74
3442.98
3428.92
3416.5
3405.66
3396.3
3388.37
3381.79
3376.5
3372.46
3369.57
3367.79
3367.09
3367.45
3368.85
3371.26
3374.73
3379.26
3384.88
3391.62
3399.51
3408.61
3418.96
3430.65
3443.76
3458.38
3474.57
3492.43
3512
3533.3
3556.33
3581.04
3607.36
3635.14
3664
3693.8
3724.41
3755.46
3786.58
3817.34
3847.31
3876.11
3903.33
3928.54
3951.42
3971.61
3988.82
4002.8
4013.35
4020.33
4023.65
4023.18
4018.99
4011.24
4000.02
3985.55
3968.11
3948.02
3925.55
3901.08
3874.95
3847.53
3819.15
3790.17
3760.89
3731.61
3702.6
3674.1
3646.38
3620.29
3594.38
3569.48
3545.73
3523.24
3502.06
3482.26
3463.87
3446.92
3431.43
3417.42
3404.88
3393.82
3384.24
3376.14
3369.5
3364.31
3360.55
3497.64
3526.73
3557.41
3588.98
3614.32
3648.43
3683.33
3718.23
3752.73
3786.49
3819.06
3850.03
3878.98
3905.47
3929.1
3949.49
3966.32
3979.33
3988.34
3993.2
3993.79
3990.14
3982.4
3970.6
3954.93
3935.65
3913.05
3887.45
3859.26
3828.87
3796.68
3763.18
3728.75
3693.83
3658.73
3623.9
3593.79
3560.82
3529
3498.55
3469.63
3442.38
3416.87
3393.17
3371.29
3351.24
3333.01
3316.57
3301.88
3288.92
3277.62
3267.96
3259.89
3253.38
3248.41
3244.94
3243
3242.59
3243.67
3246.29
3250.45
3256.17
3263.51
3272.47
3283.09
3295.42
3309.46
3325.25
3342.79
3362.08
3383.12
3405.85
3430.22
3456.16
3483.56
3512.3
3542.22
3573.19
3605.21
3637.9
3670.8
3703.69
3736.32
3768.4
3799.57
3829.51
3857.83
3884.19
3908.2
3929.53
3947.87
3962.91
3974.43
3982.22
3986.15
3986.06
3982.01
3974.05
3962.16
3946.53
3927.33
3904.81
3879.27
3851.04
3820.51
3788.09
3754.23
3719.37
3683.99
3648.53
3613.43
3579.07
3545.79
3513.89
3483.6
3455.11
3428.55
3403.99
3381.48
3361.03
3342.62
3326.22
3311.77
3299.2
3288.46
3279.46
3272.12
3266.39
3262.18
3259.4
3258.05
3258.03
3259.27
3261.77
3265.47
3270.37
3276.47
3283.78
3292.32
3302.12
3313.24
3325.73
3339.64
3355.04
3371.97
3390.47
3410.59
3432.33
3455.69
3480.64
3507.12
3535.03
3564.24
3594.61
3625.94
3657.95
3690.38
3722.89
3755.14
3786.74
3817.29
3846.38
3873.58
3898.47
3920.66
3939.78
3955.48
3967.48
3975.54
3979.5
3979.2
3974.71
3966.09
3953.41
3936.9
3916.85
3893.58
3867.46
3838.92
3808.39
3776.34
3743.2
3709.45
3675.51
3641.78
3608.61
3576.32
3545.17
3515.37
3487.1
3460.5
3435.66
3412.64
3391.47
3372.13
3354.59
3338.83
3324.79
3312.4
3301.61
3292.35
3284.57
3278.19
3273.18
3269.48
3267.04
3265.87
3265.92
3267.17
3269.63
3273.3
3278.19
3284.31
3291.68
3300.34
3310.3
3321.62
3334.33
3348.46
3364.05
3381.15
3399.76
3419.92
3441.61
3464.81
3489.48
3515.56
3542.95
3571.51
3601.09
3631.51
3662.51
3693.82
3725.13
3756.1
3786.36
3815.52
3843.15
3868.83
3892.15
3912.7
3930.12
3944.06
3954.26
3960.48
3962.58
3960.46
3954.19
3943.82
3929.49
3911.46
3890.02
3865.55
3838.46
3809.18
3778.19
3745.96
3712.93
3679.57
3646.27
3613.44
3581.39
3550.42
3520.77
3492.62
3466.12
3441.36
3418.39
3397.25
3377.93
3360.42
3344.66
3330.62
3318.21
3307.37
3298.03
3290.11
3283.54
3278.26
3274.22
3271.34
3269.56
3268.87
3269.23
3270.62
3273.04
3276.5
3281.03
3286.65
3293.38
3301.26
3310.35
3320.7
3332.38
3345.47
3360.07
3376.26
3394.11
3413.67
3434.96
3457.99
3482.71
3509.03
3536.82
3565.73
3595.54
3626.2
3657.28
3688.44
3719.26
3749.28
3778.14
3805.41
3830.67
3853.6
3873.83
3891.08
3905.09
3915.66
3922.65
3925.97
3925.53
3921.31
3913.53
3902.28
3887.78
3870.3
3850.16
3827.65
3803.13
3776.96
3749.49
3721.07
3692.05
3662.73
3633.43
3604.39
3575.87
3548.14
3522.03
3496.11
3471.2
3447.45
3424.95
3403.77
3383.97
3365.58
3348.63
3333.15
3319.13
3306.6
3295.54
3285.97
3277.86
3271.22
3266.04
3262.28
3399.18
3428.3
3459.02
3490.72
3515.92
3550.15
3585.12
3620.08
3654.64
3688.46
3721.11
3752.16
3781.19
3807.75
3831.45
3851.91
3868.79
3881.84
3890.88
3895.76
3896.36
3892.69
3884.92
3873.08
3857.36
3838.02
3815.35
3789.68
3761.42
3730.95
3698.69
3665.11
3630.63
3595.64
3560.51
3525.67
3495.38
3462.42
3430.58
3400.12
3371.2
3343.94
3318.44
3294.74
3272.86
3252.82
3234.6
3218.17
3203.5
3190.54
3179.25
3169.6
3161.54
3155.04
3150.07
3146.6
3144.67
3144.25
3145.33
3147.94
3152.1
3157.82
3165.15
3174.11
3184.72
3197.03
3211.07
3226.85
3244.39
3263.68
3284.71
3307.44
3331.82
3357.77
3385.18
3413.93
3443.88
3474.87
3506.93
3539.65
3572.59
3605.52
3638.21
3670.34
3701.57
3731.57
3759.96
3786.38
3810.47
3831.86
3850.25
3865.34
3876.9
3884.72
3888.66
3888.59
3884.53
3876.54
3864.62
3848.95
3829.7
3807.12
3781.51
3753.21
3722.6
3690.1
3656.16
3621.23
3585.78
3550.26
3515.1
3480.69
3447.38
3415.45
3385.15
3356.64
3330.07
3305.52
3283.01
3262.57
3244.18
3227.79
3213.35
3200.8
3190.07
3181.09
3173.77
3168.04
3163.84
3161.08
3159.74
3159.72
3160.98
3163.47
3167.18
3172.08
3178.18
3185.48
3194.01
3203.81
3214.92
3227.39
3241.29
3256.67
3273.59
3292.09
3312.2
3333.94
3357.29
3382.25
3408.73
3436.65
3465.89
3496.28
3527.64
3559.69
3592.17
3624.73
3657.04
3688.71
3719.34
3748.5
3775.77
3800.74
3823
3842.18
3857.94
3869.98
3878.08
3882.05
3881.77
3877.25
3868.6
3855.88
3839.32
3819.2
3795.86
3769.66
3741.04
3710.44
3678.3
3645.1
3611.27
3577.27
3543.49
3510.28
3477.95
3446.77
3416.95
3388.67
3362.07
3337.23
3314.21
3293.04
3273.71
3256.19
3240.44
3226.41
3214.04
3203.26
3194.01
3186.24
3179.87
3174.87
3171.18
3168.75
3167.58
3167.63
3168.88
3171.34
3175.01
3179.89
3186
3193.37
3202.02
3211.98
3223.29
3235.98
3250.11
3265.69
3282.78
3301.39
3321.54
3343.23
3366.43
3391.11
3417.19
3444.59
3473.17
3502.78
3533.23
3564.27
3595.63
3626.99
3658.02
3688.35
3717.58
3745.28
3771.04
3794.43
3815.05
3832.53
3846.53
3856.77
3863.02
3865.13
3863.01
3856.73
3846.32
3831.94
3813.85
3792.34
3767.8
3740.62
3711.26
3680.19
3647.88
3614.78
3581.35
3548
3515.12
3483.03
3452.04
3422.36
3394.2
3367.69
3342.93
3319.97
3298.84
3279.53
3262.02
3246.28
3232.25
3219.86
3209.03
3199.71
3191.8
3185.24
3179.97
3175.94
3173.06
3171.29
3170.6
3170.97
3172.36
3174.78
3178.24
3182.76
3188.37
3195.1
3202.97
3212.04
3222.38
3234.04
3247.12
3261.7
3277.87
3295.71
3315.26
3336.54
3359.58
3384.3
3410.64
3438.45
3467.39
3497.24
3527.94
3559.08
3590.3
3621.18
3651.27
3680.2
3707.54
3732.88
3755.87
3776.16
3793.46
3807.51
3818.12
3825.12
3828.44
3828.01
3823.77
3815.96
3804.67
3790.12
3772.58
3752.38
3729.81
3705.22
3678.99
3651.47
3622.99
3593.92
3564.56
3535.22
3506.15
3477.6
3449.86
3423.71
3397.78
3372.86
3349.1
3326.6
3305.42
3285.62
3267.23
3250.28
3234.8
3220.79
3208.25
3197.2
3187.63
3179.53
3172.89
3167.71
3163.95
3300.63
3329.78
3360.55
3392.4
3417.45
3451.83
3486.89
3521.92
3556.56
3590.46
3623.2
3654.34
3683.47
3710.14
3733.92
3754.46
3771.41
3784.51
3793.58
3798.48
3799.09
3795.41
3787.6
3775.7
3759.92
3740.51
3717.76
3692
3663.64
3633.07
3600.72
3567.06
3532.49
3497.44
3462.25
3427.39
3396.9
3363.94
3332.09
3301.61
3272.68
3245.42
3219.92
3196.22
3174.36
3154.33
3136.12
3119.7
3105.04
3092.09
3080.82
3071.18
3063.12
3056.63
3051.67
3048.21
3046.27
3045.85
3046.93
3049.54
3053.69
3059.4
3066.72
3075.67
3086.27
3098.57
3112.6
3128.38
3145.91
3165.19
3186.23
3208.96
3233.34
3259.3
3286.74
3315.5
3345.48
3376.5
3408.59
3441.37
3474.35
3507.34
3540.09
3572.29
3603.6
3633.68
3662.15
3688.66
3712.82
3734.29
3752.75
3767.91
3779.51
3787.37
3791.33
3791.27
3787.2
3779.18
3767.23
3751.5
3732.18
3709.53
3683.83
3655.44
3624.74
3592.14
3558.1
3523.08
3487.54
3451.94
3416.72
3382.25
3348.89
3316.93
3286.6
3258.08
3231.51
3206.95
3184.46
3164.03
3145.65
3129.28
3114.86
3102.33
3091.62
3082.65
3075.35
3069.64
3065.45
3062.71
3061.37
3061.36
3062.63
3065.13
3068.84
3073.74
3079.83
3087.13
3095.65
3105.43
3116.53
3128.99
3142.88
3158.24
3175.15
3193.63
3213.73
3235.46
3258.82
3283.78
3310.27
3338.21
3367.47
3397.89
3429.29
3461.4
3493.93
3526.56
3558.95
3590.71
3621.42
3650.67
3678.04
3703.1
3725.45
3744.71
3760.54
3772.64
3780.77
3784.77
3784.49
3779.97
3771.27
3758.5
3741.87
3721.67
3698.23
3671.94
3643.22
3612.51
3580.28
3546.98
3513.08
3479
3445.15
3411.89
3379.52
3348.3
3318.46
3290.16
3263.55
3238.71
3215.7
3194.54
3175.22
3157.72
3141.98
3127.96
3115.61
3104.84
3095.61
3087.85
3081.5
3076.51
3072.82
3070.4
3069.23
3069.29
3070.54
3073
3076.66
3081.54
3087.65
3095.01
3103.65
3113.6
3124.9
3137.58
3151.7
3167.27
3184.35
3202.95
3223.09
3244.78
3267.98
3292.66
3318.76
3346.17
3374.78
3404.42
3434.91
3466
3497.41
3528.84
3559.95
3590.36
3619.67
3647.47
3673.33
3696.81
3717.52
3735.08
3749.14
3759.43
3765.72
3767.85
3765.73
3759.42
3748.97
3734.53
3716.36
3694.77
3670.13
3642.85
3613.39
3582.22
3549.81
3516.62
3483.11
3449.69
3416.74
3384.61
3353.58
3323.88
3295.7
3269.18
3244.42
3221.46
3200.34
3181.04
3163.55
3147.83
3133.81
3121.44
3110.63
3101.32
3093.43
3086.89
3081.64
3077.61
3074.74
3072.98
3072.29
3072.66
3074.06
3076.47
3079.93
3084.45
3090.05
3096.77
3104.62
3113.68
3124
3135.64
3148.7
3163.27
3179.42
3197.24
3216.77
3238.05
3261.08
3285.81
3312.16
3340
3368.99
3398.88
3429.64
3460.85
3492.15
3523.11
3553.29
3582.31
3609.74
3635.16
3658.23
3678.6
3695.96
3710.07
3720.71
3727.73
3731.06
3730.63
3726.37
3718.52
3707.17
3692.56
3674.96
3654.68
3632.03
3607.37
3581.06
3553.46
3524.92
3495.78
3466.37
3436.98
3407.87
3379.28
3351.52
3325.34
3299.39
3274.46
3250.7
3228.19
3207.01
3187.2
3168.82
3151.87
3136.39
3122.38
3109.85
3098.8
3089.23
3081.13
3074.5
3069.32
3065.57
3201.98
3231.17
3262
3294.02
3318.94
3353.48
3388.63
3423.75
3458.48
3492.48
3525.33
3556.59
3585.83
3612.61
3636.51
3657.14
3674.17
3687.33
3696.45
3701.36
3701.98
3698.29
3690.43
3678.48
3662.62
3643.12
3620.27
3594.39
3565.92
3535.24
3502.78
3469.01
3434.35
3399.21
3363.96
3329.07
3298.35
3265.38
3233.52
3203.02
3174.08
3146.81
3121.31
3097.62
3075.77
3055.75
3037.56
3021.16
3006.51
2993.58
2982.32
2972.69
2964.65
2958.16
2953.21
2949.76
2947.82
2947.39
2948.47
2951.08
2955.22
2960.92
2968.23
2977.17
2987.75
3000.05
3014.06
3029.83
3047.35
3066.63
3087.66
3110.4
3134.79
3160.77
3188.22
3217.01
3247.01
3278.08
3310.21
3343.04
3376.09
3409.14
3441.97
3474.25
3505.65
3535.83
3564.4
3591
3615.26
3636.83
3655.38
3670.6
3682.27
3690.17
3694.15
3694.11
3690.03
3681.98
3669.97
3654.18
3634.78
3612.04
3586.24
3557.74
3526.92
3494.21
3460.05
3424.92
3389.28
3353.58
3318.27
3283.74
3250.32
3218.32
3187.96
3159.43
3132.85
3108.3
3085.81
3065.4
3047.04
3030.69
3016.29
3003.78
2993.09
2984.14
2976.86
2971.17
2967
2964.28
2962.95
2962.96
2964.23
2966.74
2970.45
2975.35
2981.44
2988.73
2997.24
3007.01
3018.09
3030.53
3044.4
3059.75
3076.64
3095.11
3115.2
3136.92
3160.27
3185.23
3211.74
3239.69
3268.98
3299.44
3330.89
3363.06
3395.66
3428.38
3460.86
3492.72
3523.54
3552.9
3580.38
3605.55
3628
3647.36
3663.28
3675.45
3683.63
3687.65
3687.39
3682.84
3674.1
3661.26
3644.55
3624.25
3600.7
3574.3
3545.45
3514.63
3482.28
3448.87
3414.86
3380.69
3346.76
3313.44
3281.01
3249.76
3219.88
3191.57
3164.95
3140.11
3117.1
3095.96
3076.65
3059.17
3043.45
3029.45
3017.11
3006.37
2997.16
2989.41
2983.08
2978.09
2974.42
2972.01
2970.84
2970.9
2972.15
2974.61
2978.27
2983.14
2989.25
2996.6
3005.23
3015.17
3026.45
3039.12
3053.22
3068.79
3085.85
3104.44
3124.58
3146.25
3169.46
3194.15
3220.26
3247.69
3276.33
3306.01
3336.54
3367.69
3399.17
3430.68
3461.88
3492.39
3521.81
3549.72
3575.69
3599.29
3620.1
3637.76
3651.9
3662.26
3668.59
3670.73
3668.61
3662.27
3651.77
3637.26
3619
3597.3
3572.54
3545.15
3515.56
3484.27
3451.74
3418.45
3384.84
3351.33
3318.32
3286.12
3255.04
3225.31
3197.12
3170.59
3145.82
3122.87
3101.76
3082.48
3065.01
3049.3
3035.31
3022.95
3012.17
3002.88
2995.01
2988.49
2983.25
2979.24
2976.38
2974.63
2973.95
2974.32
2975.71
2978.13
2981.58
2986.09
2991.69
2998.39
3006.23
3015.27
3025.57
3037.18
3050.22
3064.76
3080.89
3098.69
3118.21
3139.48
3162.5
3187.25
3213.62
3241.49
3270.53
3300.47
3331.3
3362.59
3393.98
3425.05
3455.33
3484.45
3511.99
3537.52
3560.69
3581.14
3598.58
3612.75
3623.43
3630.49
3633.82
3633.39
3629.12
3621.21
3609.8
3595.12
3577.43
3557.06
3534.32
3509.56
3483.16
3455.48
3426.85
3397.64
3368.16
3338.71
3309.55
3280.92
3253.14
3226.91
3200.95
3176.01
3152.23
3129.72
3108.53
3088.72
3070.34
3053.39
3037.91
3023.91
3011.38
3000.34
2990.77
2982.68
2976.05
2970.88
2967.13
3103.25
3132.47
3163.38
3195.54
3220.39
3255.09
3290.35
3325.57
3360.4
3394.52
3427.49
3458.89
3488.27
3515.19
3539.21
3559.96
3577.07
3590.31
3599.47
3604.41
3605.04
3601.33
3593.42
3581.39
3565.45
3545.84
3522.87
3496.87
3468.27
3437.46
3404.86
3370.97
3336.19
3300.96
3265.63
3230.7
3199.73
3166.76
3134.87
3104.35
3075.39
3048.12
3022.62
2998.94
2977.1
2957.09
2938.92
2922.53
2907.91
2894.99
2883.75
2874.13
2866.11
2859.63
2854.68
2851.24
2849.31
2848.88
2849.95
2852.55
2856.68
2862.37
2869.67
2878.59
2889.17
2901.45
2915.45
2931.2
2948.72
2967.99
2989.02
3011.77
3036.17
3062.16
3089.63
3118.45
3148.49
3179.6
3211.77
3244.67
3277.79
3310.93
3343.84
3376.23
3407.73
3438.01
3466.7
3493.42
3517.8
3539.48
3558.12
3573.44
3585.17
3593.12
3597.13
3597.1
3593.02
3584.92
3572.86
3556.99
3537.51
3514.65
3488.74
3460.11
3429.16
3396.31
3362.01
3326.75
3290.98
3255.17
3219.77
3185.15
3151.67
3119.62
3089.23
3060.69
3034.1
3009.55
2987.08
2966.68
2948.34
2932.01
2917.64
2905.16
2894.49
2885.57
2878.31
2872.64
2868.5
2865.79
2864.48
2864.5
2865.78
2868.3
2872.01
2876.92
2883
2890.28
2898.77
2908.53
2919.59
2932.01
2945.86
2961.19
2978.06
2996.51
3016.59
3038.3
3061.65
3086.62
3113.13
3141.11
3170.43
3200.94
3232.44
3264.68
3297.37
3330.18
3362.77
3394.74
3425.69
3455.18
3482.79
3508.1
3530.67
3550.15
3566.16
3578.41
3586.65
3590.7
3590.44
3585.88
3577.08
3564.17
3547.36
3526.95
3503.27
3476.73
3447.74
3416.77
3384.29
3350.75
3316.62
3282.35
3248.33
3214.93
3182.44
3151.14
3121.23
3092.9
3066.26
3041.42
3018.42
2997.29
2978
2960.54
2944.85
2930.87
2918.55
2907.83
2898.64
2890.92
2884.59
2879.63
2875.96
2873.56
2872.4
2872.46
2873.72
2876.17
2879.83
2884.7
2890.79
2898.13
2906.75
2916.68
2927.95
2940.6
2954.69
2970.23
2987.28
3005.86
3025.99
3047.66
3070.87
3095.57
3121.69
3149.15
3177.82
3207.54
3238.12
3269.35
3300.91
3332.51
3363.82
3394.44
3423.99
3452.03
3478.13
3501.86
3522.8
3540.56
3554.81
3565.23
3571.61
3573.78
3571.66
3565.29
3554.72
3540.13
3521.76
3499.94
3475.05
3447.51
3417.78
3386.35
3353.68
3320.26
3286.54
3252.93
3219.83
3187.57
3156.44
3126.67
3098.45
3071.91
3047.14
3024.2
3003.1
2983.84
2966.39
2950.7
2936.73
2924.41
2913.65
2904.39
2896.54
2890.04
2884.82
2880.82
2877.97
2876.23
2875.56
2875.94
2877.33
2879.74
2883.19
2887.69
2893.28
2899.97
2907.79
2916.81
2927.08
2938.67
2951.68
2966.19
2982.29
3000.06
3019.56
3040.82
3063.85
3088.6
3115
3142.9
3172
3202
3232.92
3264.31
3295.81
3326.99
3357.39
3386.64
3414.3
3439.95
3463.23
3483.79
3501.32
3515.56
3526.3
3533.39
3536.74
3536.3
3532
3524.03
3512.56
3497.78
3480
3459.52
3436.68
3411.81
3385.3
3357.51
3328.78
3299.48
3269.92
3240.41
3211.19
3182.52
3154.72
3128.43
3102.45
3077.49
3053.7
3031.18
3009.99
2990.18
2971.79
2954.85
2939.37
2925.38
2912.86
2901.82
2892.26
2884.17
2877.55
2872.38
2868.63
3004.42
3033.69
3064.67
3096.96
3121.82
3156.66
3192.04
3227.37
3262.32
3296.57
3329.69
3361.24
3390.79
3417.86
3442.03
3462.9
3480.13
3493.45
3502.67
3507.63
3508.26
3504.53
3496.56
3484.46
3468.41
3448.69
3425.58
3399.44
3370.68
3339.71
3306.97
3272.93
3238.03
3202.68
3167.26
3132.28
3101.05
3068.06
3036.14
3005.6
2976.62
2949.35
2923.85
2900.17
2878.34
2858.36
2840.2
2823.84
2809.23
2796.34
2785.12
2775.52
2767.5
2761.04
2756.1
2752.67
2750.73
2750.3
2751.37
2753.97
2758.09
2763.77
2771.05
2779.96
2790.51
2802.77
2816.76
2832.5
2850.01
2869.28
2890.31
2913.05
2937.47
2963.48
2990.97
3019.82
3049.9
3081.06
3113.29
3146.27
3179.47
3212.7
3245.71
3278.21
3309.83
3340.24
3369.06
3395.92
3420.43
3442.23
3460.99
3476.41
3488.22
3496.23
3500.27
3500.26
3496.16
3488.02
3475.9
3459.94
3440.35
3417.37
3391.32
3362.54
3331.44
3298.43
3263.98
3228.56
3192.66
3156.72
3121.21
3086.5
3052.94
3020.84
2990.41
2961.85
2935.25
2910.71
2888.25
2867.87
2849.56
2833.26
2818.91
2806.46
2795.83
2786.93
2779.7
2774.06
2769.93
2767.25
2765.96
2765.99
2767.29
2769.81
2773.53
2778.43
2784.51
2791.78
2800.26
2810
2821.04
2833.44
2847.26
2862.56
2879.41
2897.84
2917.9
2939.61
2962.96
2987.93
3014.45
3042.46
3071.81
3102.37
3133.94
3166.26
3199.04
3231.97
3264.68
3296.79
3327.88
3357.52
3385.28
3410.73
3433.46
3453.06
3469.19
3481.53
3489.84
3493.92
3493.67
3489.08
3480.22
3467.22
3450.3
3429.76
3405.93
3379.23
3350.09
3318.96
3286.31
3252.63
3218.36
3183.97
3149.85
3116.36
3083.8
3052.44
3022.5
2994.14
2967.49
2942.65
2919.66
2898.54
2879.28
2861.84
2846.17
2832.22
2819.93
2809.23
2800.06
2792.36
2786.06
2781.11
2777.46
2775.07
2773.92
2773.98
2775.23
2777.69
2781.34
2786.2
2792.29
2799.62
2808.22
2818.13
2829.39
2842.02
2856.09
2871.62
2888.65
2907.22
2927.33
2949
2972.21
2996.92
3023.06
3050.54
3079.24
3109.01
3139.66
3170.97
3202.62
3234.33
3265.76
3296.52
3326.21
3354.4
3380.65
3404.53
3425.61
3443.5
3457.86
3468.37
3474.8
3477
3474.88
3468.47
3457.83
3443.14
3424.65
3402.69
3377.64
3349.93
3320.04
3288.44
3255.62
3222.06
3188.2
3154.48
3121.29
3088.95
3057.76
3027.95
2999.7
2973.15
2948.38
2925.45
2904.36
2885.12
2867.69
2852.04
2838.09
2825.8
2815.07
2805.84
2798.01
2791.54
2786.34
2782.36
2779.53
2777.79
2777.13
2777.51
2778.91
2781.32
2784.76
2789.25
2794.82
2801.5
2809.3
2818.29
2828.53
2840.09
2853.07
2867.55
2883.62
2901.36
2920.84
2942.09
2965.11
2989.88
3016.3
3044.25
3073.41
3103.48
3134.49
3165.99
3197.62
3228.93
3259.48
3288.87
3316.68
3342.46
3365.87
3386.55
3404.19
3418.51
3429.31
3436.44
3439.79
3439.36
3435.02
3426.99
3415.43
3400.56
3382.67
3362.07
3339.1
3314.1
3287.47
3259.56
3230.72
3201.32
3171.67
3142.08
3112.8
3084.07
3056.24
3029.9
3003.89
2978.91
2955.11
2932.58
2911.38
2891.57
2873.19
2856.25
2840.78
2826.78
2814.27
2803.24
2793.68
2785.6
2778.98
2773.82
2770.08
2905.51
2934.82
2965.87
2998.29
3023.21
3058.2
3093.71
3129.17
3164.24
3198.64
3231.93
3263.65
3293.38
3320.63
3344.96
3365.98
3383.32
3396.74
3406.02
3411.02
3411.65
3407.9
3399.86
3387.67
3371.51
3351.65
3328.39
3302.08
3273.15
3242.02
3209.11
3174.91
3139.85
3104.38
3068.86
3033.8
3002.3
2969.28
2937.33
2906.76
2877.77
2850.48
2824.98
2801.32
2779.51
2759.54
2741.41
2725.07
2710.49
2697.62
2686.41
2676.83
2668.84
2662.39
2657.46
2654.03
2652.1
2651.66
2652.73
2655.32
2659.43
2665.1
2672.36
2681.25
2691.79
2704.03
2718
2733.72
2751.22
2770.49
2791.51
2814.26
2838.69
2864.72
2892.24
2921.13
2951.26
2982.47
3014.76
3047.82
3081.11
3114.45
3147.58
3180.2
3211.95
3242.51
3271.48
3298.49
3323.15
3345.09
3363.98
3379.51
3391.41
3399.49
3403.57
3403.57
3399.45
3391.26
3379.07
3363.02
3343.31
3320.2
3293.99
3265.05
3233.76
3200.58
3165.95
3130.37
3094.3
3058.22
3022.58
2987.77
2954.13
2921.97
2891.5
2862.91
2836.31
2811.78
2789.33
2768.98
2750.69
2734.42
2720.11
2707.69
2697.09
2688.23
2681.02
2675.41
2671.31
2668.66
2667.39
2667.44
2668.75
2671.28
2675
2679.9
2685.97
2693.23
2701.7
2711.41
2722.43
2734.8
2748.59
2763.87
2780.69
2799.1
2819.14
2840.84
2864.19
2889.16
2915.7
2943.73
2973.13
3003.74
3035.38
3067.8
3100.69
3133.74
3166.59
3198.85
3230.1
3259.91
3287.85
3313.46
3336.35
3356.1
3372.36
3384.8
3393.19
3397.31
3397.07
3392.45
3383.52
3370.42
3353.38
3332.68
3308.69
3281.81
3252.49
3221.17
3188.35
3154.5
3120.08
3085.55
3051.31
3017.73
2985.09
2953.67
2923.69
2895.3
2868.64
2843.79
2820.82
2799.72
2780.48
2763.06
2747.42
2733.5
2721.24
2710.57
2701.43
2693.75
2687.47
2682.54
2678.9
2676.53
2675.38
2675.44
2676.7
2679.16
2682.8
2687.66
2693.73
2701.05
2709.64
2719.53
2730.77
2743.39
2757.43
2772.94
2789.95
2808.5
2828.61
2850.27
2873.48
2898.19
2924.35
2951.87
2980.61
3010.44
3041.16
3072.55
3104.31
3136.14
3167.7
3198.61
3228.46
3256.82
3283.25
3307.29
3328.54
3346.58
3361.05
3371.66
3378.16
3380.39
3378.26
3371.81
3361.09
3346.29
3327.67
3305.54
3280.32
3252.43
3222.35
3190.57
3157.57
3123.84
3089.84
3055.99
3022.69
2990.26
2959
2929.15
2900.87
2874.31
2849.54
2826.61
2805.54
2786.32
2768.92
2753.3
2739.39
2727.12
2716.43
2707.23
2699.44
2692.98
2687.81
2683.85
2681.03
2679.32
2678.66
2679.05
2680.44
2682.85
2686.28
2690.77
2696.32
2702.98
2710.76
2719.73
2729.93
2741.46
2754.4
2768.84
2784.87
2802.59
2822.04
2843.27
2866.3
2891.07
2917.53
2945.53
2974.75
3004.91
3036.03
3067.65
3099.42
3130.88
3161.58
3191.14
3219.11
3245.05
3268.61
3289.42
3307.17
3321.59
3332.46
3339.63
3343
3342.56
3338.18
3330.08
3318.43
3303.45
3285.42
3264.69
3241.58
3216.44
3189.67
3161.62
3132.66
3103.15
3073.4
3043.72
3014.37
2985.57
2957.71
2931.31
2905.27
2880.27
2856.46
2833.92
2812.71
2792.9
2774.52
2757.58
2742.11
2728.12
2715.62
2704.59
2695.04
2686.97
2680.36
2675.2
2671.47
2806.49
2835.85
2866.98
2899.53
2924.57
2959.71
2995.36
3030.94
3066.16
3100.72
3134.2
3166.12
3196.05
3223.49
3248
3269.18
3286.67
3300.19
3309.54
3314.58
3315.21
3311.43
3303.32
3291.03
3274.75
3254.73
3231.3
3204.81
3175.69
3144.36
3111.26
3076.88
3041.67
3006.05
2970.41
2935.27
2903.49
2870.43
2838.44
2807.84
2778.83
2751.54
2726.04
2702.38
2680.59
2660.65
2642.54
2626.23
2611.67
2598.83
2587.65
2578.09
2570.11
2563.67
2558.76
2555.34
2553.41
2552.97
2554.04
2556.62
2560.71
2566.36
2573.61
2582.48
2592.99
2605.22
2619.17
2634.87
2652.36
2671.61
2692.64
2715.4
2739.84
2765.89
2793.44
2822.36
2852.55
2883.82
2916.18
2949.33
2982.73
3016.19
3049.43
3082.19
3114.1
3144.81
3173.96
3201.13
3225.96
3248.06
3267.1
3282.75
3294.75
3302.9
3307.03
3307.04
3302.91
3294.67
3282.39
3266.23
3246.39
3223.12
3196.74
3167.62
3136.14
3102.76
3067.94
3032.16
2995.91
2959.68
2923.9
2888.97
2855.24
2823.01
2792.5
2763.89
2737.28
2712.75
2690.32
2669.99
2651.73
2635.5
2621.23
2608.84
2598.28
2589.45