/*--------------------------------*- C++ -*----------------------------------*\
| =========                 |                                                 |
| \\      /  F ield         | OpenFOAM: The Open Source CFD Toolbox           |
|  \\    /   O peration     | Version:  3.0.1                                 |
|   \\  /    A nd           | Web:      www.OpenFOAM.org                      |
|    \\/     M anipulation  |                                                 |
\*---------------------------------------------------------------------------*/
FoamFile
{
    version     2.0;
    format      ascii;
    class       volScalarField;
    location    "53.4";
    object      p;
}
// * * * * * * * * * * * * * * * * * * * * * * * * * * * * * * * * * * * * * //

dimensions      [1 -1 -2 0 0 0 0];

internalField   nonuniform List<scalar> 
21420
(
3598.29
3613.84
3631.12
3650.15
3670.93
3693.5
3717.86
3743.98
3771.82
3801.27
3832.2
3864.39
3897.63
3931.59
3966
4000.5
4034.72
4068.29
4100.78
4131.74
4160.77
4187.46
4211.4
4232.29
4249.79
4263.65
4273.65
4279.65
4281.44
4279.15
4272.73
4262.31
4247.98
4230.01
4208.64
4184.18
4157.01
4127.5
4096.06
4063.13
4029.15
3994.52
3959.63
3924.85
3890.52
3857.03
3825.78
3794.89
3765.34
3737.33
3710.99
3686.38
3663.57
3642.56
3623.37
3605.96
3590.31
3576.38
3564.13
3553.53
3544.52
3537.1
3531.22
3526.88
3524.05
3522.77
3523.04
3524.8
3528.1
3532.98
3539.45
3547.54
3557.27
3568.68
3581.77
3596.55
3613.05
3631.27
3651.17
3672.75
3695.96
3720.75
3747.04
3774.77
3803.83
3834.15
3866.53
3898.83
3931.62
3964.75
3997.92
4030.82
4063.08
4094.32
4124.17
4152.22
4178.09
4201.42
4221.87
4239.13
4252.93
4263.05
4269.3
4271.49
4269.71
4263.84
4253.95
4240.13
4222.57
4201.49
4177.18
4149.98
4120.29
4088.5
4055.08
4020.49
3985.19
3949.62
3914.22
3879.39
3845.47
3812.77
3781.55
3752.01
3724.32
3698.58
3674.87
3653.22
3633.63
3616.08
3600.54
3586.94
3575.21
3565.28
3557.06
3550.48
3545.44
3541.88
3539.71
3538.88
3539.37
3541.07
3544
3548.14
3553.48
3560.06
3567.89
3577.02
3587.48
3599.35
3612.66
3627.48
3643.84
3661.81
3681.4
3702.64
3725.53
3750.05
3776.15
3803.74
3832.72
3862.93
3894.21
3926.31
3958.92
3991.76
4024.49
4056.76
4088.17
4118.31
4146.77
4173.13
4196.97
4217.91
4235.56
4249.63
4259.82
4265.94
4267.76
4265.38
4258.73
4247.9
4233.08
4214.52
4192.54
4167.51
4139.83
4109.95
4078.32
4045.4
4011.66
3977.53
3943.46
3909.83
3876.98
3845.23
3814.81
3785.93
3758.71
3733.24
3709.59
3687.77
3667.76
3649.56
3633.13
3618.42
3605.39
3593.98
3584.12
3575.76
3568.83
3563.27
3559.05
3556.1
3554.4
3553.92
3554.68
3556.61
3559.73
3564.07
3569.63
3576.45
3584.55
3593.98
3604.77
3616.98
3630.64
3645.81
3662.51
3680.79
3700.65
3722.12
3745.17
3769.78
3795.87
3823.38
3852.16
3882.07
3912.9
3944.49
3976.42
4008.45
4040.23
4071.38
4101.51
4130.2
4157.03
4181.59
4203.47
4222.28
4237.71
4249.44
4257.24
4260.95
4260.45
4255.77
4246.99
4234.19
4217.63
4197.58
4174.39
4148.45
4120.19
4090.07
4058.55
4026.08
3993.12
3960.09
3927.53
3895.51
3864.43
3834.54
3806.03
3779.05
3753.71
3730.08
3708.19
3688.06
3669.68
3653.02
3638.06
3624.75
3613.01
3602.8
3594.02
3586.59
3580.46
3575.57
3571.89
3569.36
3568.05
3567.87
3568.76
3570.69
3573.65
3577.66
3582.74
3588.95
3596.35
3605.03
3615.09
3626.66
3639.86
3654.81
3671.64
3690.43
3711.25
3734.1
3758.96
3785.73
3814.28
3844.42
3875.82
3904.72
3937.47
3970.41
4003.09
4035.08
4065.97
4095.4
4122.96
4148.27
4171.01
4190.88
4207.62
4221
4230.88
4237.17
4239.75
4238.63
4233.97
4225.94
4214.67
4200.37
4183.3
4163.72
4141.9
4118.13
4092.72
4065.95
4038.1
4009.46
3980.29
3950.87
3921.42
3892.25
3863.61
3835.51
3808.22
3781.92
3756.75
3732.84
3710.31
3689.26
3669.79
3651.92
3635.69
3500.12
3515.67
3532.95
3551.98
3572.75
3595.32
3619.68
3645.8
3673.64
3703.09
3734.03
3766.23
3799.47
3833.45
3867.87
3902.38
3936.62
3970.21
4002.72
4033.69
4062.74
4089.45
4113.41
4134.31
4151.83
4165.7
4175.71
4181.71
4183.51
4181.2
4174.78
4164.35
4150.02
4132.03
4110.65
4086.17
4058.98
4029.45
3997.99
3965.05
3931.04
3896.4
3861.5
3826.7
3792.37
3758.87
3727.61
3696.71
3667.16
3639.15
3612.81
3588.2
3565.39
3544.39
3525.19
3507.78
3492.13
3478.21
3465.96
3455.36
3446.36
3438.93
3433.06
3428.72
3425.89
3424.61
3424.87
3426.63
3429.94
3434.82
3441.29
3449.37
3459.11
3470.51
3483.59
3498.38
3514.88
3533.09
3552.99
3574.57
3597.79
3622.57
3648.87
3676.6
3705.66
3735.98
3768.39
3800.68
3833.48
3866.62
3899.81
3932.72
3964.99
3996.25
4026.11
4054.18
4080.07
4103.42
4123.89
4141.16
4154.97
4165.09
4171.35
4173.56
4171.76
4165.89
4155.99
4142.17
4124.59
4103.5
4079.17
4051.96
4022.24
3990.44
3957
3922.39
3887.06
3851.48
3816.07
3781.22
3747.29
3714.59
3683.36
3653.82
3626.13
3600.39
3576.67
3555.02
3535.44
3517.89
3502.35
3488.76
3477.03
3467.11
3458.9
3452.31
3447.28
3443.72
3441.56
3440.73
3441.21
3442.92
3445.85
3449.99
3455.33
3461.91
3469.74
3478.86
3489.32
3501.18
3514.49
3529.31
3545.67
3563.63
3583.23
3604.47
3627.36
3651.88
3677.97
3705.57
3734.55
3764.77
3796.05
3828.16
3860.78
3893.63
3926.38
3958.67
3990.09
4020.26
4048.73
4075.11
4098.97
4119.92
4137.6
4151.67
4161.88
4168
4169.83
4167.44
4160.78
4149.95
4135.12
4116.54
4094.54
4069.49
4041.79
4011.89
3980.24
3947.3
3913.54
3879.4
3845.31
3811.67
3778.82
3747.06
3716.63
3687.74
3660.52
3635.06
3611.41
3589.59
3569.58
3551.39
3534.96
3520.25
3507.22
3495.81
3485.96
3477.6
3470.67
3465.12
3460.9
3457.95
3456.24
3455.77
3456.53
3458.46
3461.58
3465.92
3471.48
3478.29
3486.4
3495.82
3506.61
3518.82
3532.48
3547.64
3564.34
3582.61
3602.48
3623.94
3647
3671.6
3697.7
3725.21
3754
3783.92
3814.75
3846.35
3878.29
3910.33
3942.13
3973.3
4003.44
4032.15
4059
4083.58
4105.47
4124.31
4139.74
4151.48
4159.3
4163.02
4162.51
4157.83
4149.04
4136.23
4119.65
4099.59
4076.38
4050.42
4022.14
3992
3960.46
3927.97
3894.99
3861.96
3829.38
3797.35
3766.27
3736.36
3707.85
3680.88
3655.54
3631.91
3610.02
3589.89
3571.51
3554.85
3539.89
3526.58
3514.85
3504.64
3495.86
3488.44
3482.31
3477.42
3473.74
3471.22
3469.91
3469.73
3470.62
3472.55
3475.51
3479.51
3484.59
3490.8
3498.2
3506.87
3516.93
3528.49
3541.68
3556.63
3573.45
3592.25
3613.06
3635.91
3660.77
3687.54
3716.1
3746.25
3777.68
3806.55
3839.34
3872.3
3904.99
3937
3967.91
3997.35
4024.93
4050.26
4073.01
4092.9
4109.64
4123.03
4132.92
4139.21
4141.8
4140.67
4136
4127.97
4116.68
4102.37
4085.29
4065.7
4043.86
4020.08
3994.66
3967.87
3940.01
3911.36
3882.19
3852.75
3823.3
3794.11
3765.47
3737.36
3710.07
3683.76
3658.58
3634.68
3612.14
3591.09
3571.61
3553.74
3537.51
3401.88
3417.42
3434.7
3453.72
3474.49
3497.06
3521.41
3547.54
3575.38
3604.84
3635.79
3668.01
3701.27
3735.26
3769.71
3804.25
3838.52
3872.14
3904.69
3935.7
3964.79
3991.53
4015.53
4036.46
4054
4067.9
4077.92
4083.93
4085.75
4083.42
4076.99
4066.55
4052.19
4034.17
4012.76
3988.25
3961.02
3931.45
3899.96
3866.98
3832.94
3798.26
3763.33
3728.52
3694.16
3660.65
3629.36
3598.46
3568.9
3540.89
3514.54
3489.94
3467.13
3446.13
3426.94
3409.53
3393.89
3379.97
3367.73
3357.13
3348.13
3340.71
3334.84
3330.5
3327.67
3326.39
3326.65
3328.41
3331.72
3336.59
3343.06
3351.14
3360.87
3372.27
3385.35
3400.13
3416.64
3434.85
3454.75
3476.32
3499.54
3524.33
3550.63
3578.37
3607.42
3637.75
3670.19
3702.49
3735.31
3768.46
3801.68
3834.61
3866.92
3898.22
3928.11
3956.21
3982.14
4005.52
4026.02
4043.32
4057.15
4067.29
4073.56
4075.79
4073.97
4068.1
4058.19
4044.34
4026.74
4005.62
3981.26
3954.01
3924.25
3892.41
3858.93
3824.28
3788.92
3753.31
3717.87
3682.99
3649.04
3616.32
3585.09
3555.54
3527.84
3502.1
3478.39
3456.74
3437.16
3419.62
3404.09
3390.5
3378.78
3368.87
3360.66
3354.09
3349.06
3345.51
3343.35
3342.53
3343.01
3344.72
3347.65
3351.79
3357.13
3363.7
3371.53
3380.65
3391.11
3402.96
3416.27
3431.07
3447.43
3465.39
3484.98
3506.22
3529.11
3553.63
3579.73
3607.33
3636.32
3666.55
3697.85
3729.97
3762.62
3795.49
3828.27
3860.59
3892.05
3922.25
3950.76
3977.18
4001.07
4022.06
4039.77
4053.87
4064.09
4070.23
4072.08
4069.67
4063
4052.15
4037.29
4018.69
3996.65
3971.56
3943.82
3913.88
3882.19
3849.21
3815.42
3781.24
3747.12
3713.46
3680.59
3648.81
3618.38
3589.48
3562.25
3536.79
3513.14
3491.32
3471.33
3453.13
3436.71
3422.01
3408.99
3397.58
3387.73
3379.38
3372.46
3366.91
3362.69
3359.75
3358.04
3357.58
3358.33
3360.26
3363.39
3367.72
3373.28
3380.09
3388.19
3397.61
3408.4
3420.59
3434.25
3449.41
3466.11
3484.37
3504.23
3525.7
3548.75
3573.36
3599.46
3626.98
3655.78
3685.7
3716.56
3748.17
3780.14
3812.21
3844.03
3875.23
3905.41
3934.16
3961.05
3985.66
4007.59
4026.46
4041.92
4053.69
4061.52
4065.25
4064.73
4060.04
4051.24
4038.42
4021.81
4001.71
3978.46
3952.46
3924.14
3893.96
3862.38
3829.86
3796.85
3763.78
3731.19
3699.14
3668.04
3638.12
3609.6
3582.62
3557.28
3533.65
3511.77
3491.64
3473.26
3456.61
3441.66
3428.36
3416.63
3406.43
3397.65
3390.23
3384.11
3379.23
3375.55
3373.03
3371.73
3371.55
3372.44
3374.36
3377.33
3381.33
3386.4
3392.61
3399.99
3408.66
3418.71
3430.26
3443.44
3458.38
3475.19
3493.97
3514.78
3537.63
3562.49
3589.27
3617.84
3648.01
3679.49
3708.34
3741.18
3774.17
3806.89
3838.93
3869.88
3899.36
3926.97
3952.33
3975.12
3995.02
4011.79
4025.2
4035.1
4041.4
4044
4042.84
4038.16
4030.12
4018.81
4004.48
3987.37
3967.75
3945.89
3922.08
3896.63
3869.82
3841.93
3813.26
3784.07
3754.61
3725.14
3695.94
3667.28
3639.16
3611.86
3585.54
3560.36
3536.44
3513.9
3492.85
3473.37
3455.5
3439.26
3303.57
3319.1
3336.37
3355.39
3376.15
3398.71
3423.07
3449.19
3477.04
3506.51
3537.48
3569.72
3603.01
3637.03
3671.52
3706.1
3740.42
3774.09
3806.69
3837.76
3866.91
3893.7
3917.75
3938.73
3956.31
3970.24
3980.29
3986.31
3988.16
3985.79
3979.36
3968.89
3954.5
3936.44
3914.98
3890.41
3863.13
3833.51
3801.95
3768.92
3734.83
3700.11
3665.14
3630.28
3595.9
3562.36
3531.04
3500.13
3470.56
3442.54
3416.19
3391.59
3368.78
3347.79
3328.6
3311.21
3295.57
3281.66
3269.43
3258.83
3249.84
3242.42
3236.55
3232.21
3229.39
3228.11
3228.37
3230.13
3233.43
3238.3
3244.76
3252.84
3262.57
3273.96
3287.04
3301.82
3318.32
3336.52
3356.42
3378
3401.22
3426.01
3452.32
3480.06
3509.12
3539.44
3571.94
3604.26
3637.09
3670.28
3703.53
3736.51
3768.86
3800.21
3830.16
3858.31
3884.29
3907.72
3928.26
3945.6
3959.47
3969.64
3975.93
3978.18
3976.34
3970.46
3960.53
3946.66
3929.02
3907.85
3883.44
3856.14
3826.32
3794.42
3760.88
3726.17
3690.76
3655.09
3619.61
3584.7
3550.72
3517.98
3486.72
3457.17
3429.46
3403.72
3380.01
3358.37
3338.79
3321.27
3305.74
3292.16
3280.46
3270.56
3262.36
3255.8
3250.78
3247.24
3245.08
3244.28
3244.76
3246.47
3249.4
3253.54
3258.88
3265.45
3273.27
3282.38
3292.83
3304.68
3317.98
3332.78
3349.13
3367.08
3386.66
3407.89
3430.78
3455.3
3481.41
3509.02
3538.02
3568.27
3599.59
3631.74
3664.42
3697.33
3730.16
3762.52
3794.03
3824.28
3852.85
3879.32
3903.28
3924.32
3942.07
3956.21
3966.46
3972.62
3974.5
3972.06
3965.38
3954.5
3939.61
3920.96
3898.87
3873.72
3845.92
3815.91
3784.16
3751.13
3717.28
3683.06
3648.89
3615.19
3582.29
3550.49
3520.04
3491.13
3463.9
3438.44
3414.8
3392.98
3372.99
3354.8
3338.39
3323.7
3310.68
3299.29
3289.45
3281.1
3274.19
3268.65
3264.44
3261.5
3259.8
3259.34
3260.09
3262.02
3265.14
3269.47
3275.02
3281.83
3289.92
3299.34
3310.12
3322.31
3335.96
3351.11
3367.8
3386.07
3405.92
3427.38
3450.43
3475.04
3501.15
3528.68
3557.49
3587.44
3618.32
3649.96
3681.96
3714.07
3745.94
3777.19
3807.42
3836.22
3863.17
3887.84
3909.82
3928.74
3944.24
3956.04
3963.89
3967.64
3967.13
3962.43
3953.6
3940.74
3924.09
3903.94
3880.63
3854.58
3826.2
3795.96
3764.32
3731.74
3698.68
3665.57
3632.94
3600.86
3569.74
3539.81
3511.28
3484.29
3458.95
3435.32
3413.44
3393.32
3374.95
3358.3
3343.36
3330.07
3318.35
3308.15
3299.39
3291.98
3285.86
3280.99
3277.32
3274.8
3273.5
3273.32
3274.22
3276.14
3279.1
3283.1
3288.17
3294.36
3301.74
3310.39
3320.43
3331.96
3345.12
3360.05
3376.84
3395.61
3416.41
3439.26
3464.13
3490.91
3519.49
3549.69
3581.24
3610.07
3642.99
3676.03
3708.8
3740.89
3771.88
3801.41
3829.08
3854.49
3877.32
3897.27
3914.07
3927.5
3937.42
3943.72
3946.34
3945.16
3940.47
3932.39
3921.05
3906.69
3889.54
3869.88
3847.98
3824.13
3798.64
3771.79
3743.87
3715.17
3685.94
3656.45
3626.96
3597.73
3569.05
3540.91
3513.59
3487.27
3462.07
3438.15
3415.6
3394.54
3375.05
3357.18
3340.94
3205.18
3220.71
3237.97
3256.97
3277.74
3300.29
3324.64
3350.76
3378.62
3408.1
3439.09
3471.37
3504.69
3538.76
3573.29
3607.93
3642.31
3676.06
3708.73
3739.88
3769.1
3795.97
3820.08
3841.12
3858.76
3872.73
3882.82
3888.85
3890.72
3888.34
3881.89
3871.38
3856.94
3838.83
3817.3
3792.67
3765.31
3735.61
3703.98
3670.88
3636.72
3601.93
3566.91
3532.01
3497.58
3464.02
3432.64
3401.72
3372.14
3344.11
3317.76
3293.16
3270.36
3249.37
3230.19
3212.81
3197.18
3183.28
3171.06
3160.47
3151.49
3144.07
3138.21
3133.87
3131.05
3129.78
3130.02
3131.78
3135.08
3139.95
3146.41
3154.48
3164.2
3175.59
3188.66
3203.43
3219.92
3238.13
3258.03
3279.61
3302.83
3327.62
3353.93
3381.68
3410.75
3441.07
3473.66
3505.97
3538.84
3572.07
3605.37
3638.41
3670.82
3702.24
3732.26
3760.48
3786.53
3810.03
3830.63
3848.02
3861.94
3872.14
3878.45
3880.72
3878.87
3872.99
3863.03
3849.12
3831.43
3810.2
3785.72
3758.34
3728.44
3696.46
3662.84
3628.06
3592.57
3556.85
3521.31
3486.35
3452.33
3419.56
3388.28
3358.71
3330.99
3305.25
3281.54
3259.91
3240.34
3222.83
3207.32
3193.75
3182.07
3172.18
3164
3157.45
3152.45
3148.91
3146.77
3145.98
3146.46
3148.18
3151.11
3155.24
3160.58
3167.15
3174.96
3184.06
3194.5
3206.34
3219.62
3234.41
3250.75
3268.7
3288.27
3309.5
3332.38
3356.9
3383.02
3410.64
3439.66
3469.93
3501.27
3533.47
3566.19
3599.16
3632.03
3664.46
3696.04
3726.36
3755.01
3781.56
3805.58
3826.69
3844.51
3858.7
3869
3875.17
3877.07
3874.62
3867.93
3857.01
3842.06
3823.35
3801.19
3775.96
3748.08
3717.99
3686.16
3653.05
3619.13
3584.84
3550.62
3516.87
3483.93
3452.1
3421.63
3392.71
3365.47
3340.01
3316.37
3294.56
3274.58
3256.4
3240
3225.32
3212.32
3200.93
3191.11
3182.77
3175.87
3170.34
3166.13
3163.2
3161.5
3161.05
3161.8
3163.72
3166.85
3171.17
3176.72
3183.52
3191.61
3201.02
3211.79
3223.97
3237.61
3252.75
3269.43
3287.69
3307.54
3328.99
3352.04
3376.66
3402.78
3430.31
3459.14
3489.12
3520.03
3551.7
3583.75
3615.92
3647.84
3679.16
3709.47
3738.34
3765.36
3790.1
3812.16
3831.14
3846.7
3858.54
3866.43
3870.19
3869.69
3864.97
3856.11
3843.21
3826.5
3806.28
3782.9
3756.76
3728.3
3697.98
3666.27
3633.62
3600.5
3567.33
3534.65
3502.53
3471.37
3441.43
3412.88
3385.89
3360.54
3336.91
3315.04
3294.92
3276.56
3259.93
3244.99
3231.71
3220.01
3209.82
3201.07
3193.67
3187.56
3182.7
3179.03
3176.53
3175.23
3175.06
3175.96
3177.88
3180.84
3184.83
3189.89
3196.07
3203.43
3212.07
3222.09
3233.59
3246.73
3261.63
3278.41
3297.16
3317.96
3340.8
3365.67
3392.47
3421.07
3451.3
3482.92
3511.76
3544.78
3577.87
3610.7
3642.86
3673.92
3703.52
3731.26
3756.73
3779.62
3799.62
3816.47
3829.94
3839.88
3846.19
3848.81
3847.63
3842.91
3834.79
3823.41
3809
3791.8
3772.09
3750.13
3726.23
3700.69
3673.79
3645.82
3617.07
3587.8
3558.28
3528.74
3499.49
3470.78
3442.62
3415.28
3388.93
3363.72
3339.78
3317.22
3296.15
3276.66
3258.78
3242.55
3106.73
3122.24
3139.49
3158.48
3179.24
3201.78
3226.13
3252.25
3280.11
3309.62
3340.64
3372.95
3406.32
3440.45
3475.04
3509.75
3544.21
3578.04
3610.81
3642.05
3671.36
3698.32
3722.52
3743.64
3761.35
3775.37
3785.5
3791.56
3793.43
3791.06
3784.57
3774.01
3759.53
3741.34
3719.74
3695.01
3667.56
3637.77
3606.05
3572.85
3538.6
3503.74
3468.64
3433.68
3399.21
3365.61
3334.17
3303.23
3273.64
3245.6
3219.24
3194.65
3171.85
3150.87
3131.71
3114.33
3098.72
3084.83
3072.62
3062.04
3053.07
3045.66
3039.8
3035.47
3032.65
3031.38
3031.62
3033.37
3036.67
3041.53
3047.98
3056.05
3065.76
3077.14
3090.2
3104.97
3121.46
3139.66
3159.55
3181.14
3204.36
3229.16
3255.48
3283.24
3312.31
3342.61
3375.33
3407.64
3440.54
3473.83
3507.19
3540.3
3572.8
3604.3
3634.4
3662.72
3688.85
3712.43
3733.11
3750.57
3764.54
3774.79
3781.13
3783.42
3781.57
3775.66
3765.67
3751.71
3733.96
3712.66
3688.1
3660.62
3630.62
3598.54
3564.82
3529.94
3494.37
3458.56
3422.95
3387.93
3353.87
3321.05
3289.75
3260.15
3232.43
3206.69
3182.98
3161.35
3141.8
3124.3
3108.81
3095.27
3083.6
3073.73
3065.57
3059.04
3054.05
3050.54
3048.41
3047.62
3048.11
3049.83
3052.77
3056.9
3062.24
3068.79
3076.59
3085.69
3096.12
3107.94
3121.21
3135.98
3152.31
3170.24
3189.81
3211.03
3233.91
3258.43
3284.55
3312.19
3341.23
3371.53
3402.91
3435.15
3467.93
3500.96
3533.91
3566.41
3598.08
3628.49
3657.23
3683.87
3707.99
3729.19
3747.08
3761.34
3771.69
3777.9
3779.81
3777.36
3770.63
3759.67
3744.66
3725.87
3703.62
3678.29
3650.31
3620.12
3588.19
3554.98
3520.96
3486.59
3452.3
3418.49
3385.5
3353.63
3323.13
3294.2
3266.96
3241.49
3217.85
3196.06
3176.08
3157.92
3141.53
3126.87
3113.88
3102.51
3092.7
3084.38
3077.49
3071.97
3067.77
3064.85
3063.16
3062.71
3063.46
3065.39
3068.51
3072.83
3078.37
3085.16
3093.24
3102.64
3113.4
3125.57
3139.2
3154.32
3170.99
3189.24
3209.08
3230.53
3253.58
3278.2
3304.33
3331.88
3360.74
3390.74
3421.69
3453.41
3485.52
3517.75
3549.75
3581.15
3611.55
3640.51
3667.63
3692.46
3714.6
3733.67
3749.3
3761.2
3769.13
3772.91
3772.42
3767.68
3758.78
3745.82
3729.04
3708.74
3685.26
3659.02
3630.46
3600.04
3568.23
3535.49
3502.29
3469.05
3436.3
3404.14
3372.94
3342.97
3314.41
3287.4
3262.06
3238.43
3216.56
3196.45
3178.1
3161.48
3146.56
3133.29
3121.6
3111.44
3102.69
3095.31
3089.21
3084.36
3080.71
3078.22
3076.93
3076.76
3077.66
3079.58
3082.53
3086.52
3091.56
3097.73
3105.08
3113.69
3123.68
3135.16
3148.27
3163.14
3179.89
3198.63
3219.41
3242.25
3267.13
3293.94
3322.56
3352.83
3384.52
3413.43
3446.54
3479.7
3512.61
3544.85
3576
3605.69
3633.51
3659.06
3682.03
3702.1
3719
3732.51
3742.48
3748.8
3751.43
3750.23
3745.48
3737.31
3725.88
3711.41
3694.15
3674.37
3652.35
3628.38
3602.77
3575.81
3547.78
3518.97
3489.65
3460.08
3430.5
3401.21
3372.46
3344.27
3316.9
3290.53
3265.3
3241.35
3218.78
3197.7
3178.2
3160.31
3144.07
3008.2
3023.7
3040.93
3059.92
3080.66
3103.19
3127.53
3153.66
3181.53
3211.06
3242.11
3274.47
3307.9
3342.09
3376.75
3411.54
3446.1
3480.04
3512.92
3544.27
3573.7
3600.77
3625.07
3646.28
3664.07
3678.16
3688.34
3694.42
3696.31
3693.93
3687.41
3676.8
3662.25
3643.98
3622.28
3597.45
3569.88
3539.98
3508.14
3474.83
3440.48
3405.52
3370.34
3335.31
3300.78
3267.13
3235.63
3204.66
3175.05
3147.01
3120.65
3096.05
3073.26
3052.29
3033.14
3015.78
3000.18
2986.31
2974.11
2963.55
2954.59
2947.19
2941.34
2937.01
2934.19
2932.92
2933.15
2934.91
2938.2
2943.05
2949.49
2957.55
2967.25
2978.62
2991.67
3006.43
3022.92
3041.11
3061.01
3082.59
3105.82
3130.62
3156.96
3184.73
3213.8
3244.07
3276.97
3309.26
3342.21
3375.56
3409
3442.2
3474.79
3506.39
3536.6
3565.02
3591.26
3614.94
3635.71
3653.25
3667.29
3677.59
3683.96
3686.27
3684.44
3678.5
3668.47
3654.45
3636.63
3615.23
3590.57
3562.98
3532.86
3500.66
3466.82
3431.83
3396.15
3360.24
3324.54
3289.45
3255.32
3222.46
3191.12
3161.51
3133.78
3108.03
3084.33
3062.71
3043.17
3025.69
3010.22
2996.7
2985.06
2975.21
2967.07
2960.57
2955.6
2952.1
2949.99
2949.21
2949.71
2951.44
2954.38
2958.51
2963.84
2970.39
2978.18
2987.26
2997.67
3009.48
3022.73
3037.49
3053.8
3071.72
3091.27
3112.48
3135.36
3159.89
3186.01
3213.67
3242.73
3273.07
3304.49
3336.8
3369.64
3402.74
3435.77
3468.37
3500.14
3530.66
3559.52
3586.27
3610.5
3631.8
3649.79
3664.14
3674.54
3680.79
3682.72
3680.27
3673.5
3662.48
3647.4
3628.51
3606.15
3580.71
3552.6
3522.29
3490.24
3456.91
3422.79
3388.32
3353.94
3320.05
3287
3255.09
3224.56
3195.61
3168.36
3142.89
3119.26
3097.47
3077.52
3059.37
3042.99
3028.35
3015.38
3004.03
2994.24
2985.93
2979.06
2973.56
2969.37
2966.45
2964.77
2964.32
2965.07
2967
2970.12
2974.43
2979.97
2986.75
2994.82
3004.2
3014.95
3027.11
3040.72
3055.83
3072.49
3090.72
3110.55
3132
3155.05
3179.67
3205.81
3233.38
3262.27
3292.31
3323.31
3355.08
3387.26
3419.57
3451.67
3483.16
3513.66
3542.74
3569.97
3594.91
3617.16
3636.33
3652.04
3664.01
3671.99
3675.79
3675.31
3670.56
3661.61
3648.58
3631.71
3611.3
3587.72
3561.36
3532.67
3502.13
3470.2
3437.35
3404.05
3370.73
3337.91
3305.69
3274.45
3244.44
3215.86
3188.84
3163.49
3139.87
3118
3097.91
3079.57
3062.96
3048.06
3034.81
3023.14
3012.99
3004.27
2996.9
2990.82
2985.98
2982.34
2979.86
2978.58
2978.42
2979.31
2981.24
2984.19
2988.16
2993.2
2999.35
3006.67
3015.26
3025.22
3036.66
3049.74
3064.58
3081.29
3100.01
3120.77
3143.61
3168.49
3195.32
3223.97
3254.28
3286.04
3315.08
3348.27
3381.51
3414.52
3446.85
3478.11
3507.9
3535.83
3561.48
3584.53
3604.68
3621.65
3635.22
3645.22
3651.56
3654.2
3652.97
3648.18
3639.96
3628.47
3613.93
3596.59
3576.73
3554.63
3530.57
3504.89
3477.85
3449.75
3420.88
3391.49
3361.86
3332.23
3302.89
3274.1
3245.87
3218.47
3192.07
3166.82
3142.85
3120.26
3099.17
3079.67
3061.77
3045.53
2909.61
2925.09
2942.3
2961.27
2982
3004.52
3028.85
3054.98
3082.87
3112.42
3143.51
3175.93
3209.43
3243.69
3278.43
3313.32
3347.99
3382.06
3415.06
3446.55
3476.11
3503.31
3527.73
3549.05
3566.93
3581.1
3591.34
3597.46
3599.35
3596.97
3590.41
3579.74
3565.1
3546.74
3524.92
3499.97
3472.28
3442.24
3410.26
3376.83
3342.36
3307.29
3272.01
3236.9
3202.3
3168.6
3137.01
3106.02
3076.39
3048.33
3021.96
2997.37
2974.59
2953.63
2934.5
2917.16
2901.58
2887.72
2875.54
2864.99
2856.04
2848.65
2842.81
2838.49
2835.68
2834.4
2834.63
2836.38
2839.66
2844.51
2850.94
2858.99
2868.68
2880.03
2893.08
2907.83
2924.31
2942.5
2962.39
2983.97
3007.2
3032.01
3058.37
3086.15
3115.23
3145.45
3178.57
3210.83
3243.83
3277.26
3310.79
3344.09
3376.79
3408.51
3438.84
3467.39
3493.75
3517.55
3538.43
3556.07
3570.18
3580.54
3586.96
3589.29
3587.46
3581.5
3571.42
3557.33
3539.42
3517.92
3493.13
3465.41
3435.16
3402.81
3368.83
3333.71
3297.9
3261.88
3226.08
3190.91
3156.71
3123.79
3092.42
3062.78
3035.03
3009.28
2985.58
2963.98
2944.46
2927
2911.55
2898.06
2886.44
2876.62
2868.51
2862.03
2857.09
2853.61
2851.52
2850.76
2851.27
2853
2855.94
2860.07
2865.4
2871.93
2879.71
2888.77
2899.17
2910.96
2924.19
2938.93
2955.23
2973.12
2992.66
3013.87
3036.74
3061.27
3087.4
3115.08
3144.17
3174.54
3206.02
3238.39
3271.31
3304.5
3337.64
3370.35
3402.23
3432.88
3461.87
3488.76
3513.12
3534.54
3552.64
3567.08
3577.56
3583.85
3585.8
3583.35
3576.54
3565.45
3550.28
3531.28
3508.8
3483.21
3454.97
3424.51
3392.31
3358.85
3324.6
3290.01
3255.53
3221.56
3188.44
3156.48
3125.91
3096.93
3069.67
3044.21
3020.58
2998.81
2978.87
2960.74
2944.38
2929.76
2916.81
2905.48
2895.71
2887.43
2880.57
2875.08
2870.91
2868
2866.34
2865.89
2866.64
2868.57
2871.68
2875.99
2881.52
2888.29
2896.34
2905.71
2916.44
2928.58
2942.18
2957.28
2973.92
2992.14
3011.96
3033.4
3056.45
3081.07
3107.22
3134.82
3163.73
3193.82
3224.88
3256.71
3288.97
3321.38
3353.58
3385.19
3415.81
3445.02
3472.38
3497.46
3519.83
3539.11
3554.93
3566.98
3575.01
3578.85
3578.37
3573.59
3564.59
3551.48
3534.51
3513.98
3490.26
3463.76
3434.93
3404.25
3372.18
3339.21
3305.79
3272.38
3239.46
3207.17
3175.88
3145.84
3117.23
3090.2
3064.85
3041.23
3019.37
2999.29
2980.96
2964.37
2949.49
2936.26
2924.61
2914.49
2905.78
2898.43
2892.37
2887.55
2883.92
2881.46
2880.19
2880.03
2880.93
2882.86
2885.8
2889.77
2894.79
2900.92
2908.21
2916.77
2926.69
2938.09
2951.13
2965.93
2982.61
3001.29
3022.04
3044.87
3069.76
3096.61
3125.3
3155.65
3187.48
3216.7
3249.97
3283.31
3316.42
3348.88
3380.25
3410.17
3438.21
3463.98
3487.14
3507.38
3524.43
3538.06
3548.1
3554.46
3557.11
3555.86
3551.02
3542.73
3531.17
3516.55
3499.12
3479.16
3456.97
3432.82
3407.04
3379.92
3351.73
3322.78
3293.33
3263.63
3233.93
3204.54
3175.7
3147.43
3119.99
3093.56
3068.28
3044.29
3021.68
3000.58
2981.06
2963.16
2946.91
2810.94
2826.4
2843.59
2862.55
2883.26
2905.77
2930.09
2956.22
2984.12
3013.7
3044.84
3077.32
3110.89
3145.24
3180.08
3215.08
3249.88
3284.08
3317.24
3348.88
3378.59
3405.93
3430.49
3451.93
3469.93
3484.19
3494.49
3500.65
3502.56
3500.17
3493.57
3482.82
3468.1
3449.63
3427.68
3402.58
3374.74
3344.55
3312.42
3278.84
3244.23
3209.03
3173.64
3138.43
3103.76
3070
3038.32
3007.3
2977.64
2949.57
2923.2
2898.61
2875.84
2854.89
2835.78
2818.46
2802.9
2789.06
2776.9
2766.37
2757.43
2750.06
2744.22
2739.91
2737.1
2735.82
2736.05
2737.79
2741.07
2745.9
2752.32
2760.36
2770.03
2781.38
2794.41
2809.15
2825.62
2843.8
2863.69
2885.28
2908.51
2933.33
2959.7
2987.5
3016.6
3046.78
3080.1
3112.34
3145.42
3178.93
3212.56
3245.98
3278.81
3310.67
3341.14
3369.83
3396.33
3420.26
3441.26
3459.01
3473.22
3483.65
3490.11
3492.47
3490.64
3484.65
3474.52
3460.35
3442.34
3420.72
3395.79
3367.92
3337.51
3305
3270.86
3235.58
3199.63
3163.48
3127.57
3092.3
3058.02
3025.04
2993.62
2963.95
2936.19
2910.43
2886.75
2865.15
2845.66
2828.22
2812.8
2799.34
2787.76
2777.97
2769.89
2763.43
2758.52
2755.07
2753
2752.25
2752.78
2754.52
2757.46
2761.59
2766.91
2773.43
2781.19
2790.24
2800.61
2812.38
2825.59
2840.31
2856.58
2874.46
2893.98
2915.17
2938.04
2962.57
2988.72
3016.41
3045.54
3075.96
3107.49
3139.95
3172.95
3206.24
3239.49
3272.33
3304.35
3335.15
3364.28
3391.32
3415.83
3437.4
3455.63
3470.17
3480.73
3487.08
3489.06
3486.59
3479.74
3468.58
3453.3
3434.17
3411.54
3385.81
3357.39
3326.77
3294.41
3260.79
3226.39
3191.67
3157.07
3123.01
3089.81
3057.79
3027.18
2998.18
2970.91
2945.44
2921.83
2900.06
2880.14
2862.03
2845.7
2831.1
2818.18
2806.87
2797.13
2788.87
2782.03
2776.56
2772.4
2769.51
2767.85
2767.41
2768.16
2770.09
2773.2
2777.5
2783.02
2789.78
2797.81
2807.17
2817.88
2830
2843.58
2858.65
2875.28
2893.48
2913.29
2934.72
2957.77
2982.4
3008.56
3036.18
3065.14
3095.27
3126.4
3158.3
3190.66
3223.17
3255.49
3287.24
3318
3347.36
3374.87
3400.09
3422.61
3442.02
3457.96
3470.1
3478.2
3482.07
3481.6
3476.79
3467.72
3454.53
3437.44
3416.77
3392.9
3366.24
3337.25
3306.4
3274.17
3241.06
3207.51
3173.98
3140.97
3108.6
3077.25
3047.16
3018.53
2991.49
2966.13
2942.51
2920.67
2900.6
2882.29
2865.72
2850.86
2837.65
2826.03
2815.92
2807.25
2799.92
2793.88
2789.07
2785.46
2783.01
2781.76
2781.61
2782.51
2784.44
2787.37
2791.33
2796.33
2802.44
2809.71
2818.23
2828.11
2839.46
2852.45
2867.21
2883.84
2902.49
2923.22
2946.05
2970.95
2997.82
3026.55
3056.94
3088.83
3118.29
3151.65
3185.1
3218.33
3250.92
3282.43
3312.49
3340.67
3366.57
3389.85
3410.2
3427.34
3441.04
3451.12
3457.5
3460.17
3458.88
3453.99
3445.63
3433.98
3419.27
3401.74
3381.68
3359.37
3335.12
3309.24
3282.01
3253.73
3224.69
3195.15
3165.37
3135.61
3106.15
3077.25
3048.93
3021.45
2994.98
2969.67
2945.65
2923.03
2901.91
2882.38
2864.47
2848.21
2712.2
2727.64
2744.81
2763.74
2784.43
2806.94
2831.25
2857.38
2885.29
2914.9
2946.09
2978.65
3012.31
3046.75
3081.7
3116.82
3151.76
3186.13
3219.45
3251.27
3281.14
3308.65
3333.37
3354.95
3373.06
3387.43
3397.81
3404.01
3405.94
3403.54
3396.88
3386.06
3371.23
3352.63
3330.54
3305.28
3277.27
3246.9
3214.61
3180.86
3146.09
3110.75
3075.23
3039.92
3005.15
2971.33
2939.56
2908.5
2878.81
2850.72
2824.35
2799.76
2777
2756.08
2736.98
2719.68
2704.14
2690.33
2678.19
2667.68
2658.76
2651.4
2645.57
2641.26
2638.46
2637.18
2637.4
2639.14
2642.41
2647.23
2653.64
2661.66
2671.32
2682.65
2695.67
2710.4
2726.86
2745.04
2764.92
2786.51
2809.75
2834.58
2860.96
2888.78
2917.92
2948.11
2981.51
3013.8
3046.96
3080.57
3114.32
3147.87
3180.84
3212.85
3243.48
3272.33
3298.99
3323.07
3344.21
3362.09
3376.4
3386.91
3393.43
3395.82
3393.99
3387.97
3377.77
3363.52
3345.39
3323.63
3298.55
3270.51
3239.91
3207.22
3172.91
3137.45
3101.34
3065.04
3029
2993.62
2959.25
2926.21
2894.74
2865.04
2837.26
2811.49
2787.81
2766.24
2746.76
2729.36
2713.97
2700.54
2688.99
2679.24
2671.2
2664.78
2659.89
2656.47
2654.42
2653.7
2654.23
2655.98
2658.93
2663.06
2668.37
2674.88
2682.62
2691.65
2702
2713.74
2726.92
2741.62
2757.87
2775.72
2795.23
2816.41
2839.27
2863.8
2889.96
2917.68
2946.85
2977.31
3008.9
3041.46
3074.56
3107.96
3141.34
3174.32
3206.5
3237.46
3266.76
3293.97
3318.65
3340.38
3358.75
3373.42
3384.07
3390.48
3392.49
3390.01
3383.1
3371.86
3356.46
3337.19
3314.4
3288.48
3259.88
3229.07
3196.53
3162.74
3128.17
3093.31
3058.57
3024.4
2991.11
2959.02
2928.37
2899.34
2872.05
2846.59
2822.98
2801.24
2781.34
2763.25
2746.94
2732.37
2719.48
2708.2
2698.48
2690.25
2683.44
2677.99
2673.84
2670.96
2669.32
2668.88
2669.63
2671.56
2674.67
2678.96
2684.47
2691.21
2699.23
2708.57
2719.26
2731.36
2744.91
2759.97
2776.57
2794.75
2814.55
2835.97
2859.02
2883.65
2909.84
2937.48
2966.47
2996.66
3027.86
3059.85
3092.32
3124.95
3157.4
3189.3
3220.22
3249.74
3277.43
3302.82
3325.51
3345.06
3361.13
3373.38
3381.55
3385.46
3385
3380.16
3371.02
3357.72
3340.5
3319.68
3295.63
3268.79
3239.61
3208.57
3176.18
3142.9
3109.21
3075.55
3042.42
3009.97
2978.55
2948.42
2919.75
2892.69
2867.33
2843.72
2821.89
2801.83
2783.54
2766.99
2752.15
2738.97
2727.38
2717.31
2708.65
2701.35
2695.33
2690.55
2686.96
2684.53
2683.28
2683.15
2684.05
2685.98
2688.91
2692.85
2697.83
2703.91
2711.15
2719.63
2729.46
2740.76
2753.7
2768.4
2784.99
2803.61
2824.31
2847.13
2872.04
2898.94
2927.71
2958.15
2990.09
3019.86
3053.3
3086.86
3120.23
3152.97
3184.64
3214.86
3243.2
3269.24
3292.67
3313.14
3330.38
3344.15
3354.29
3360.69
3363.37
3362.03
3357.09
3348.66
3336.91
3322.09
3304.44
3284.27
3261.84
3237.46
3211.46
3184.12
3155.73
3126.59
3096.96
3067.09
3037.25
3007.72
2978.76
2950.38
2922.85
2896.34
2871
2846.95
2824.31
2803.17
2783.62
2765.71
2749.44
2613.39
2628.8
2645.95
2664.86
2685.53
2708.02
2732.32
2758.45
2786.38
2816.02
2847.27
2879.92
2913.66
2948.21
2983.28
3018.54
3053.64
3088.19
3121.7
3153.7
3183.77
3211.46
3236.35
3258.09
3276.34
3290.82
3301.28
3307.54
3309.48
3307.07
3300.36
3289.45
3274.5
3255.76
3233.51
3208.07
3179.87
3149.31
3116.83
3082.89
3047.95
3012.45
2976.79
2941.35
2906.49
2872.6
2840.72
2809.62
2779.9
2751.79
2725.41
2700.83
2678.08
2657.18
2638.1
2620.83
2605.32
2591.53
2579.42
2568.93
2560.03
2552.68
2546.86
2542.56
2539.76
2538.48
2538.7
2540.43
2543.69
2548.5
2554.89
2562.9
2572.54
2583.85
2596.86
2611.58
2628.03
2646.19
2666.08
2687.67
2710.91
2735.76
2762.15
2790
2819.17
2849.43
2882.81
2915.2
2948.45
2982.18
3016.06
3049.75
3082.89
3115.06
3145.88
3174.9
3201.74
3225.99
3247.28
3265.3
3279.73
3290.33
3296.91
3299.32
3297.5
3291.44
3281.18
3266.83
3248.57
3226.66
3201.4
3173.17
3142.38
3109.48
3074.96
3039.31
3003.02
2966.56
2930.37
2894.87
2860.41
2827.29
2795.76
2766.02
2738.23