/*--------------------------------*- C++ -*----------------------------------*\
| =========                 |                                                 |
| \\      /  F ield         | OpenFOAM: The Open Source CFD Toolbox           |
|  \\    /   O peration     | Version:  3.0.1                                 |
|   \\  /    A nd           | Web:      www.OpenFOAM.org                      |
|    \\/     M anipulation  |                                                 |
\*---------------------------------------------------------------------------*/
FoamFile
{
    version     2.0;
    format      ascii;
    class       surfaceScalarField;
    location    "37";
    object      alphaPhi;
}
// * * * * * * * * * * * * * * * * * * * * * * * * * * * * * * * * * * * * * //

dimensions      [0 3 -1 0 0 0 0];

internalField   nonuniform List<scalar> 
42423
(
8.69683e-05
-1.76715e-05
0.000104918
-1.79502e-05
0.000122788
-1.78699e-05
0.000140262
-1.74743e-05
0.000157377
-1.71147e-05
0.000173728
-1.63512e-05
0.000189213
-1.54849e-05
0.000203504
-1.42917e-05
0.000216375
-1.28709e-05
0.000227589
-1.12146e-05
0.000236943
-9.35382e-06
0.000244251
-7.30751e-06
0.000249402
-5.15137e-06
0.000252237
-2.83494e-06
0.000252807
-5.70374e-07
0.000251024
1.78275e-06
0.00024674
4.28383e-06
0.000240237
6.50262e-06
0.00023166
8.57743e-06
0.000220975
1.06845e-05
0.000208641
1.23342e-05
0.000194772
1.38693e-05
0.000179428
1.53437e-05
0.000163141
1.62866e-05
0.00014603
1.71111e-05
0.000128341
1.7689e-05
0.000110292
1.80487e-05
9.21292e-05
1.8163e-05
7.40459e-05
1.80833e-05
5.60842e-05
1.79617e-05
3.86466e-05
1.74376e-05
2.17282e-05
1.69184e-05
5.3158e-06
1.64124e-05
-1.0232e-05
1.55478e-05
-2.50917e-05
1.48597e-05
-3.91178e-05
1.40261e-05
-5.22749e-05
1.31571e-05
-6.45694e-05
1.22944e-05
-7.59703e-05
1.14009e-05
-8.65088e-05
1.05385e-05
-9.61927e-05
9.68389e-06
-0.000105048
8.8554e-06
-0.000113106
8.05773e-06
-0.000120367
7.26132e-06
-0.000126867
6.49937e-06
-0.000132654
5.78716e-06
-0.000137715
5.06151e-06
-0.000142071
4.35536e-06
-0.000145743
3.67236e-06
-0.000148754
3.01141e-06
-0.000151066
2.31148e-06
-0.000152676
1.61042e-06
-0.000153636
9.59376e-07
-0.000153887
2.51101e-07
-0.000153419
-4.674e-07
-0.000152121
-1.29884e-06
-0.000150045
-2.0759e-06
-0.000147249
-2.79565e-06
-0.000143446
-3.80264e-06
-0.000138912
-4.53442e-06
-0.00013338
-5.53164e-06
-0.000126916
-6.46419e-06
-0.000119574
-7.34203e-06
-0.000111254
-8.32051e-06
-0.000101896
-9.35753e-06
-9.17306e-05
-1.01658e-05
-8.04012e-05
-1.13295e-05
-6.82408e-05
-1.21604e-05
-5.51315e-05
-1.31094e-05
-4.1071e-05
-1.40606e-05
-2.61563e-05
-1.49148e-05
-1.06048e-05
-1.55517e-05
5.75223e-06
-1.63571e-05
2.25831e-05
-1.68309e-05
3.98871e-05
-1.73042e-05
5.74341e-05
-1.75471e-05
7.52063e-05
-1.77723e-05
9.2996e-05
-1.77899e-05
0.000110626
-1.76299e-05
0.00012797
-1.73447e-05
0.0001447
-1.67293e-05
0.00016073
-1.60308e-05
0.000175778
-1.5048e-05
0.000189669
-1.38904e-05
0.000202138
-1.24692e-05
0.00021305
-1.09125e-05
0.000222083
-9.0328e-06
0.000229173
-7.09002e-06
0.000234101
-4.92788e-06
0.000236762
-2.66069e-06
0.000237101
-3.38466e-07
0.000235033
2.06733e-06
0.000230536
4.49794e-06
0.000223706
6.83007e-06
0.000214676
9.02956e-06
0.000203594
1.10825e-05
0.000190587
1.30062e-05
0.000175878
1.47098e-05
0.000159669
1.62088e-05
0.000142248
1.74207e-05
0.000123847
1.84004e-05
0.000104717
1.91307e-05
8.51064e-05
1.96103e-05
6.53254e-05
1.9781e-05
4.55519e-05
1.97734e-05
2.60456e-05
1.95063e-05
7.00103e-06
1.90446e-05
-1.13912e-05
1.83922e-05
-2.89938e-05
1.76026e-05
-4.56898e-05
1.66959e-05
-6.13604e-05
1.56706e-05
-7.59486e-05
1.45881e-05
-8.95106e-05
1.3562e-05
-0.000101949
1.24383e-05
-0.000113276
1.13269e-05
-0.000123524
1.02483e-05
-0.000132766
9.24202e-06
-0.00014093
8.16406e-06
-0.000148114
7.18406e-06
-0.000154322
6.20733e-06
-0.000159581
5.25989e-06
-0.000163941
4.35931e-06
-0.000167438
3.49719e-06
-0.000170078
2.63983e-06
-0.000171931
1.85367e-06
-0.000173022
1.09064e-06
-0.000173407
3.85181e-07
-0.000173056
-3.51461e-07
-0.000172005
-1.05103e-06
-0.00017027
-1.73475e-06
-0.000167825
-2.44553e-06
-0.000164665
-3.15977e-06
-0.000160901
-3.76356e-06
-0.000156397
-4.50482e-06
-0.000151226
-5.17039e-06
-0.000145306
-5.92049e-06
-0.000138658
-6.64748e-06
-0.000131343
-7.31531e-06
-0.000123159
-8.18435e-06
-0.000114336
-8.82253e-06
-0.000104628
-9.70845e-06
-9.41045e-05
-1.05235e-05
-8.2762e-05
-1.13425e-05
-7.05437e-05
-1.22184e-05
-5.74265e-05
-1.31173e-05
-4.36153e-05
-1.38113e-05
-2.89494e-05
-1.4666e-05
-1.35679e-05
-1.53816e-05
2.41512e-06
-1.59832e-05
1.89113e-05
-1.64964e-05
3.5828e-05
-1.69168e-05
5.29492e-05
-1.71213e-05
7.01555e-05
-1.72064e-05
8.72201e-05
-1.70648e-05
0.000103942
-1.67219e-05
0.000120085
-1.61429e-05
0.000135384
-1.52993e-05
0.000149618
-1.4234e-05
0.000162511
-1.28933e-05
0.000173873
-1.13624e-05
0.00018347
-9.59689e-06
0.000191103
-7.63359e-06
0.000196575
-5.47218e-06
0.000199806
-3.23088e-06
0.000200659
-8.5297e-07
0.000199089
1.57038e-06
0.000195049
4.03984e-06
0.000188606
6.44236e-06
0.000179886
8.72037e-06
0.000169051
1.08343e-05
0.00015629
1.2761e-05
0.000141897
1.43932e-05
0.000126126
1.57713e-05
0.000109175
1.69504e-05
9.14001e-05
1.77751e-05
7.30256e-05
1.83745e-05
5.42715e-05
1.87541e-05
3.551e-05
1.87614e-05
1.68948e-05
1.86152e-05
-1.35444e-06
1.82492e-05
-1.90215e-05
1.7667e-05
-3.59918e-05
1.69703e-05
-5.21366e-05
1.61449e-05
-6.73452e-05
1.52085e-05
-8.15609e-05
1.42156e-05
-9.4791e-05
1.32301e-05
-0.000106921
1.21295e-05
-0.000118032
1.11113e-05
-0.000128094
1.00625e-05
-0.000137167
9.07284e-06
-0.000145378
8.21081e-06
-0.000152627
7.24865e-06
-0.000158967
6.34058e-06
-0.000164386
5.41888e-06
-0.000168979
4.59271e-06
-0.000172741
3.76171e-06
-0.000175765
3.02447e-06
-0.000178089
2.32358e-06
-0.000179804
1.71552e-06
-0.000180858
1.05408e-06
-0.000181285
4.27009e-07
-0.000181157
-1.2822e-07
-0.000180396
-7.61535e-07
-0.000179025
-1.37014e-06
-0.000177142
-1.88383e-06
-0.000174553
-2.58849e-06
-0.000171378
-3.17536e-06
-0.000167553
-3.82529e-06
-0.000163034
-4.51868e-06
-0.000157825
-5.20925e-06
-0.000151898
-5.92711e-06
-0.000145196
-6.70192e-06
-0.00013768
-7.51555e-06
-0.000129328
-8.35243e-06
-0.000120104
-9.2239e-06
-0.000110013
-1.00913e-05
-9.90145e-05
-1.09983e-05
-8.72419e-05
-1.17727e-05
-7.45977e-05
-1.26442e-05
-6.12229e-05
-1.33749e-05
-4.70603e-05
-1.41627e-05
-3.21919e-05
-1.48685e-05
-1.66694e-05
-1.55226e-05
-5.30155e-07
-1.61393e-05
1.60019e-05
-1.65322e-05
3.28764e-05
-1.68746e-05
4.98768e-05
-1.70005e-05
6.68169e-05
-1.69402e-05
8.35105e-05
-1.66937e-05
9.97498e-05
-1.62394e-05
0.000115275
-1.55249e-05
0.000129851
-1.45767e-05
0.000143243
-1.33916e-05
0.000155163
-1.19204e-05
0.000165441
-1.02783e-05
0.000173831
-8.3894e-06
0.000180198
-6.36755e-06
0.000184372
-4.17435e-06
0.000186255
-1.88319e-06
0.000185861
3.94618e-07
0.000183122
2.73903e-06
0.000178088
5.03401e-06
0.000170893
7.19478e-06
0.000161631
9.26198e-06
0.000150524
1.11062e-05
0.000137742
1.2782e-05
0.000123492
1.42504e-05
0.000108051
1.54409e-05
9.1666e-05
1.63849e-05
7.45811e-05
1.70849e-05
5.71151e-05
1.74659e-05
3.94602e-05
1.76549e-05
2.18159e-05
1.76443e-05
4.44192e-06
1.73739e-05
-1.25646e-05
1.70065e-05
-2.90712e-05
1.65066e-05
-4.49046e-05
1.58334e-05
-6.0009e-05
1.51044e-05
-7.43015e-05
1.42925e-05
-8.77372e-05
1.34357e-05
-0.00010028
1.25428e-05
-0.000111932
1.16523e-05
-0.000122664
1.07318e-05
-0.000132501
9.83725e-06
-0.000141448
8.94722e-06
-0.000149521
8.07262e-06
-0.000156717
7.19616e-06
-0.000163044
6.32669e-06
-0.000168571
5.52742e-06
-0.000173214
4.64268e-06
-0.000177065
3.85111e-06
-0.000180066
3.00123e-06
-0.000182298
2.23225e-06
-0.000183731
1.43327e-06
-0.000184461
7.302e-07
-0.000184335
-1.25776e-07
-0.000183473
-8.62376e-07
-0.000181768
-1.70523e-06
-0.000179419
-2.34886e-06
-0.000176104
-3.31467e-06
-0.000172087
-4.01675e-06
-0.00016733
-4.75735e-06
-0.000161808
-5.52175e-06
-0.000155624
-6.18418e-06
-0.000148729
-6.89532e-06
-0.000141264
-7.46533e-06
-0.000133248
-8.0159e-06
-0.000124551
-8.69683e-06
-0.000115247
-9.30362e-06
-0.00010526
-9.98701e-06
-9.45618e-05
-1.06985e-05
-8.33183e-05
-1.12435e-05
-7.11881e-05
-1.21302e-05
-5.83051e-05
-1.2883e-05
-4.47802e-05
-1.35249e-05
-3.03846e-05
-1.43957e-05
-1.52292e-05
-1.51554e-05
4.84339e-07
-1.57136e-05
1.68433e-05
-1.6359e-05
3.36004e-05
-1.67571e-05
5.07693e-05
-1.7169e-05
6.813e-05
-1.73608e-05
8.53457e-05
-1.72158e-05
0.000102273
-1.69273e-05
0.000118751
-1.64783e-05
0.000134376
-1.56246e-05
0.000149043
-1.46671e-05
0.000162378
-1.33357e-05
0.000174302
-1.19234e-05
0.000184489
-1.0187e-05
0.000192754
-8.26548e-06
0.00019894
-6.1863e-06
0.000202916
-3.97615e-06
0.000204607
-1.69035e-06
0.000203959
6.474e-07
0.000200905
3.05417e-06
0.000195564
5.34128e-06
0.000188158
7.40609e-06
0.000178644
9.51388e-06
0.000167439
1.12045e-05
0.000154651
1.2788e-05
0.000140561
1.40898e-05
0.000125389
1.5172e-05
0.000109351
1.60378e-05
9.28426e-05
1.65088e-05
7.59146e-05
1.6928e-05
5.88718e-05
1.70427e-05
4.1855e-05
1.70168e-05
2.51351e-05
1.67199e-05
8.70561e-06
1.64295e-05
-7.21082e-06
1.59164e-05
-2.25673e-05
1.53565e-05
-3.72505e-05
1.46832e-05
-5.11864e-05
1.39358e-05
-6.43523e-05
1.31659e-05
-7.66949e-05
1.23426e-05
-8.82331e-05
1.15381e-05
-9.89379e-05
1.07048e-05
-0.000108791
9.85341e-06
-0.00011782
9.02884e-06
-0.000126025
8.20445e-06
-0.0001334
7.37525e-06
-0.000139964
6.56426e-06
-0.000145715
5.75118e-06
-0.000150672
4.95706e-06
-0.000154847
4.17453e-06
-0.000158235
3.38843e-06
-0.000160858
2.62263e-06
-0.000162709
1.85116e-06
-0.000163795
1.08567e-06
-0.00016413
3.35012e-07
-0.000163621
-5.08925e-07
-0.000162309
-1.31139e-06
-0.000160215
-2.09411e-06
-0.000157333
-2.88227e-06
-0.000153691
-3.64181e-06
-4.40913e-06
8.69637e-05
-3.53499e-05
0.000104924
-3.59107e-05
0.000122808
-3.57545e-05
0.000140297
-3.49636e-05
0.000157426
-3.42437e-05
0.000173788
-3.27134e-05
0.000189288
-3.09852e-05
0.000203609
-2.86133e-05
0.000216485
-2.57474e-05
0.000227699
-2.24291e-05
0.000237079
-1.87333e-05
0.000244384
-1.4613e-05
0.000249534
-1.03012e-05
0.000252381
-5.6822e-06
0.000252948
-1.13738e-06
0.000251149
3.5811e-06
0.000246859
8.57408e-06
0.00024035
1.30113e-05
0.000231767
1.71602e-05
0.000221071
2.13798e-05
0.000208728
2.46773e-05
0.000194845
2.77525e-05
0.000179496
3.06929e-05
0.000163193
3.25893e-05
0.000146067
3.42371e-05
0.00012837
3.53852e-05
0.000110309
3.61099e-05
9.21381e-05
3.6334e-05
7.4041e-05
3.61804e-05
5.60798e-05
3.59228e-05
3.86299e-05
3.48874e-05
2.17122e-05
3.3836e-05
5.30333e-06
3.28212e-05
-1.0257e-05
3.11081e-05
-2.51223e-05
2.9725e-05
-3.91514e-05
2.80552e-05
-5.23099e-05
2.63156e-05
-6.46079e-05
2.45924e-05
-7.60133e-05
2.28063e-05
-8.65517e-05
2.1077e-05
-9.62386e-05
1.93707e-05
-0.000105097
1.77142e-05
-0.000113152
1.61123e-05
-0.000120413
1.45221e-05
-0.000126915
1.30019e-05
-0.000132702
1.15738e-05
-0.000137765
1.01247e-05
-0.000142125
8.71508e-06
-0.000145805
7.35226e-06
-0.000148816
6.02268e-06
-0.000151134
4.62973e-06
-0.000152738
3.21449e-06
-0.000153696
1.91701e-06
-0.000153956
5.11162e-07
-0.000153484
-9.39939e-07
-0.000152191
-2.59163e-06
-0.000150111
-4.15538e-06
-0.000147316
-5.5908e-06
-0.000143518
-7.60071e-06
-0.000138986
-9.0668e-06
-0.000133463
-1.10551e-05
-0.000126987
-1.29403e-05
-0.000119647
-1.46819e-05
-0.000111338
-1.66299e-05
-0.000101966
-1.87295e-05
-9.17995e-05
-2.03321e-05
-8.04715e-05
-2.26576e-05
-6.83063e-05
-2.43258e-05
-5.51901e-05
-2.62257e-05
-4.112e-05
-2.81309e-05
-2.62179e-05
-2.9817e-05
-1.06519e-05
-3.11179e-05
5.70915e-06
-3.27183e-05
2.2559e-05
-3.3681e-05
3.98686e-05
-3.4614e-05
5.74368e-05
-3.51154e-05
7.51989e-05
-3.55346e-05
9.29953e-05
-3.55864e-05
0.000110649
-3.52842e-05
0.000128001
-3.46962e-05
0.000144739
-3.34679e-05
0.000160782
-3.20737e-05
0.000175848
-3.01146e-05
0.000189751
-2.77934e-05
0.000202223
-2.49414e-05
0.000213148
-2.18373e-05
0.000222195
-1.80794e-05
0.000229287
-1.41822e-05
0.00023422
-9.86104e-06
0.000236879
-5.31978e-06
0.000237203
-6.61592e-07
0.000235127
4.14265e-06
0.000230636
8.98961e-06
0.000223795
1.36704e-05
0.000214758
1.80668e-05
0.000203667
2.21733e-05
0.000190649
2.60245e-05
0.000175941
2.94184e-05
0.000159707
3.24423e-05
0.000142272
3.4856e-05
0.000123854
3.68181e-05
0.000104715
3.82699e-05
8.50975e-05
3.92276e-05
6.53138e-05
3.95647e-05
4.5525e-05
3.95622e-05
2.60078e-05
3.90235e-05
6.95226e-06
3.81001e-05
-1.14557e-05
3.68002e-05
-2.90699e-05
3.52168e-05
-4.5762e-05
3.33881e-05
-6.14318e-05
3.13404e-05
-7.60384e-05
2.91948e-05
-8.95932e-05
2.71168e-05
-0.000102023
2.48678e-05
-0.000113352
2.26563e-05
-0.000123604
2.05003e-05
-0.000132848
1.84864e-05
-0.000141014
1.63297e-05
-0.000148198
1.43681e-05
-0.000154403
1.24125e-05
-0.000159671
1.0528e-05
-0.000164036
8.72385e-06
-0.000167523
6.98463e-06
-0.000170164
5.28062e-06
-0.000172023
3.71276e-06
-0.00017311
2.17775e-06
-0.000173492
7.66538e-07
-0.000173147
-6.96126e-07
-0.000172099
-2.09882e-06
-0.000170363
-3.47095e-06
-0.000167917
-4.89197e-06
-0.000164754
-6.32274e-06
-0.000160994
-7.5231e-06
-0.00015649
-9.00961e-06
-0.000151319
-1.03407e-05
-0.000145408
-1.18315e-05
-0.000138784
-1.32719e-05
-0.000131444
-1.46555e-05
-0.000123284
-1.6344e-05
-0.000114433
-1.76736e-05
-0.000104724
-1.94179e-05
-9.42056e-05
-2.1042e-05
-8.28597e-05
-2.26886e-05
-7.06506e-05
-2.44276e-05
-5.75334e-05
-2.62346e-05
-4.3713e-05
-2.76318e-05
-2.90472e-05
-2.93321e-05
-1.36689e-05
-3.076e-05
2.33303e-06
-3.19853e-05
1.88431e-05
-3.30066e-05
3.57586e-05
-3.38325e-05
5.29004e-05
-3.42633e-05
7.01139e-05
-3.44202e-05
8.71883e-05
-3.41394e-05
0.00010393
-3.34639e-05
0.00012007
-3.22834e-05
0.000135385
-3.06138e-05
0.000149631
-2.8481e-05
0.000162542
-2.58043e-05
0.000173924
-2.27444e-05
0.000183525
-1.91977e-05
0.000191174
-1.5283e-05
0.000196654
-1.09524e-05
0.000199893
-6.46986e-06
0.000200745
-1.70515e-06
0.000199164
3.15047e-06
0.000195121
8.08271e-06
0.000188678
1.28853e-05
0.000179954
1.74445e-05
0.000169114
2.16741e-05
0.00015634
2.55345e-05
0.000141929
2.88048e-05
0.000126139
3.15604e-05
0.000109192
3.38973e-05
9.14003e-05
3.55672e-05
7.30057e-05
3.6769e-05
5.42536e-05
3.75062e-05
3.54819e-05
3.7533e-05
1.68619e-05
3.72352e-05
-1.4048e-06
3.65159e-05
-1.90837e-05
3.53459e-05
-3.60596e-05
3.39462e-05
-5.22045e-05
3.22897e-05
-6.74137e-05
3.04178e-05
-8.16326e-05
2.84345e-05
-9.48697e-05
2.64672e-05
-0.000107006
2.42658e-05
-0.000118117
2.22222e-05
-0.000128175
2.0121e-05
-0.000137248
1.81451e-05
-0.00014546
1.64236e-05
-0.000152709
1.44977e-05
-0.000159047
1.2678e-05
-0.000164468
1.08402e-05
-0.000169067
9.19125e-06
-0.000172827
7.52241e-06
-0.000175852
6.04935e-06
-0.000178172
4.64313e-06
-0.00017988
3.42354e-06
-0.000180941
2.1148e-06
-0.00018137
8.5591e-07
-0.000181241
-2.57247e-07
-0.000180487
-1.51511e-06
-0.000179113
-2.74377e-06
-0.000177228
-3.76976e-06
-0.000174644
-5.17189e-06
-0.000171468
-6.3513e-06
-0.000167646
-7.64772e-06
-0.000163128
-9.03617e-06
-0.000157929
-1.04091e-05
-0.000151999
-1.1857e-05
-0.000145297
-1.34041e-05
-0.000137779
-1.5033e-05
-0.000129429
-1.67028e-05
-0.000120203
-1.84494e-05
-0.000110115
-2.01799e-05
-9.91266e-05
-2.19866e-05
-8.73464e-05
-2.3553e-05
-7.46945e-05
-2.52962e-05
-6.13207e-05
-2.67487e-05
-4.71545e-05
-2.8329e-05
-3.2273e-05
-2.97501e-05
-1.67479e-05
-3.10478e-05
-6.01963e-07
-3.22854e-05
1.59292e-05
-3.30634e-05
3.28097e-05
-3.37553e-05
4.98272e-05
-3.40181e-05
6.67795e-05
-3.38926e-05
8.34824e-05
-3.33968e-05
9.97305e-05
-3.24876e-05
0.00011528
-3.1075e-05
0.000129867
-2.91632e-05
0.000143277
-2.68017e-05
0.000155199
-2.38424e-05
0.000165488
-2.0568e-05
0.000173889
-1.67902e-05
0.00018026
-1.27386e-05
0.000184444
-8.35826e-06
0.000186339
-3.77864e-06
0.000185936
7.975e-07
0.000183197
5.47773e-06
0.00017816
1.00707e-05
0.000170949
1.4406e-05
0.000161683
1.85273e-05
0.000150569
2.22205e-05
0.000137785
2.55656e-05
0.000123527
2.8509e-05
0.000108069
3.08989e-05
9.1663e-05
3.27906e-05
7.45675e-05
3.41803e-05
5.70967e-05
3.49367e-05
3.94393e-05
3.53123e-05
2.17806e-05
3.53029e-05
4.39914e-06
3.47554e-05
-1.26105e-05
3.40161e-05
-2.91304e-05
3.30265e-05
-4.49698e-05
3.16728e-05
-6.00761e-05
3.02107e-05
-7.43734e-05
2.85898e-05
-8.78135e-05
2.68758e-05
-0.000100358
2.50879e-05
-0.000112013
2.33071e-05
-0.000122754
2.14728e-05
-0.000132596
1.9679e-05
-0.000141542
1.78935e-05
-0.000149607
1.61373e-05
-0.000156805
1.43942e-05
-0.000163133
1.26548e-05
-0.000168661
1.10557e-05
-0.000173297
9.27902e-06
-0.000177146
7.69987e-06
-0.00018015
6.00608e-06
-0.000182374
4.45567e-06
-0.000183823
2.88268e-06
-0.000184533
1.44044e-06
-0.000184412
-2.47403e-07
-0.000183544
-1.72973e-06
-0.000181836
-3.41334e-06
-0.000179487
-4.69788e-06
-0.000176167
-6.63466e-06
-0.000172149
-8.0347e-06
-0.000167395
-9.51181e-06
-0.00016187
-1.10463e-05
-0.000155682
-1.23724e-05
-0.000148793
-1.37844e-05
-0.000141319
-1.49396e-05
-0.000133302
-1.60324e-05
-0.000124605
-1.73944e-05
-0.000115299
-1.86091e-05
-0.000105308
-1.99787e-05
-9.461e-05
-2.13961e-05
-8.33654e-05
-2.24882e-05
-7.12412e-05
-2.42545e-05
-5.8372e-05
-2.57524e-05
-4.48264e-05
-2.70705e-05
-3.04315e-05
-2.87907e-05
-1.52717e-05
-3.03153e-05
4.46909e-07
-3.14323e-05
1.6813e-05
-3.27252e-05
3.35803e-05
-3.35246e-05
5.07596e-05
-3.43484e-05
6.81329e-05
-3.47341e-05
8.53583e-05
-3.44413e-05
0.000102295
-3.38643e-05
0.000118793
-3.29758e-05
0.000134427
-3.12588e-05
0.000149105
-2.93457e-05
0.000162457
-2.6688e-05
0.000174396
-2.38625e-05
0.000184591
-2.03815e-05
0.000192867
-1.65413e-05
0.000199061
-1.23804e-05
0.000203053
-7.96911e-06
0.000204742
-3.37941e-06
0.00020408
1.30949e-06
0.000201018
6.11672e-06
0.000195671
1.06873e-05
0.00018826
1.48174e-05
0.000178736
1.90381e-05
0.000167522
2.24177e-05
0.000154722
2.55885e-05
0.00014062
2.8192e-05
0.000125438
3.03532e-05
0.000109388
3.20883e-05
9.28695e-05
3.30271e-05
7.59295e-05
3.38679e-05
5.88792e-05
3.4093e-05
4.18516e-05
3.40444e-05
2.5122e-05
3.34494e-05
8.69018e-06
3.28612e-05
-7.23127e-06
3.18378e-05
-2.25925e-05
3.07177e-05
-3.72794e-05
2.937e-05
-5.12199e-05
2.78763e-05
-6.43898e-05
2.63358e-05
-7.67338e-05
2.46867e-05
-8.82732e-05
2.30775e-05
-9.89794e-05
2.1411e-05
-0.000108835
1.97088e-05
-0.000117868
1.80618e-05
-0.000126071
1.64075e-05
-0.000133443
1.47476e-05
-0.000140012
1.31333e-05
-0.000145765
1.15036e-05
-0.000150723
9.91513e-06
-0.000154895
8.34646e-06
-0.000158282
6.77581e-06
-0.000160903
5.24398e-06
-0.000162753
3.70053e-06
-0.000163836
2.16906e-06
-0.000164168
6.665e-07
-0.000163657
-1.01938e-06
-0.000162344
-2.62468e-06
-0.000160248
-4.1895e-06
-0.000157365
-5.76572e-06
-0.000153722
-7.28485e-06
-8.81962e-06
8.69559e-05
-5.30432e-05
0.000104936
-5.3891e-05
0.000122842
-5.36605e-05
0.000140359
-5.24815e-05
0.000157511
-5.13953e-05
0.000173901
-4.91036e-05
0.000189433
-4.65176e-05
0.000203778
-4.29585e-05
0.000216689
-3.86592e-05
0.000227922
-3.36616e-05
0.000237311
-2.81231e-05
0.000244628
-2.19301e-05
0.000249798
-1.54718e-05
0.000252645
-8.52881e-06
0.000253181
-1.67341e-06
0.000251344
5.41729e-06
0.000247036
1.28826e-05
0.000240514
1.95329e-05
0.00023192
2.5754e-05
0.000221206
3.20936e-05
0.000208848
3.7035e-05
0.000194941
4.16595e-05
0.000179589
4.60446e-05
0.000163256
4.89221e-05
0.000146105
5.13879e-05
0.000128399
5.30913e-05
0.000110317
5.4192e-05
9.21331e-05
5.45179e-05
7.40117e-05
5.43017e-05
5.60585e-05
5.38759e-05
3.85835e-05
5.23624e-05
2.16699e-05
5.07496e-05
5.2853e-06
4.92058e-05
-1.03161e-05
4.67094e-05
-2.5191e-05
4.45999e-05
-3.92253e-05
4.20894e-05
-5.23848e-05
3.94751e-05
-6.46842e-05
3.68917e-05
-7.60892e-05
3.42113e-05
-8.66288e-05
3.16166e-05
-9.6322e-05
2.9064e-05
-0.000105177
2.65689e-05
-0.000113226
2.41612e-05
-0.000120486
2.17826e-05
-0.000126992
1.95073e-05
-0.000132778
1.73596e-05
-0.000137844
1.51907e-05
-0.000142198
1.30696e-05
-0.00014588
1.10336e-05
-0.000148889
9.0325e-06
-0.000151209
6.94938e-06
-0.000152816
4.82143e-06
-0.000153772
2.87293e-06
-0.000154032
7.70871e-07
-0.000153543
-1.42907e-06
-0.000152258
-3.87628e-06
-0.000150173
-6.2407e-06
-0.00014738
-8.38362e-06
-0.000143588
-1.13924e-05
-0.000139064
-1.35914e-05
-0.000133547
-1.65717e-05
-0.000127067
-1.94204e-05
-0.000119735
-2.20142e-05
-0.000111424
-2.49406e-05
-0.000102048
-2.8106e-05
-9.18804e-05
-3.04998e-05
-8.05503e-05
-3.39877e-05
-6.83763e-05
-3.65e-05
-5.52661e-05
-3.9336e-05
-4.1176e-05
-4.22211e-05
-2.62927e-05
-4.47004e-05
-1.07101e-05
-4.67006e-05
5.65717e-06
-4.90858e-05
2.25164e-05
-5.05404e-05
3.98367e-05
-5.19345e-05
5.741e-05
-5.26889e-05
7.51895e-05
-5.33143e-05
9.2998e-05
-5.33951e-05
0.000110665
-5.29515e-05
0.000128032
-5.20632e-05
0.00014479
-5.02264e-05
0.000160856
-4.81391e-05
0.000175936
-4.51952e-05
0.000189855
-4.17127e-05
0.000202352
-3.74383e-05
0.000213279
-3.2764e-05
0.000222341
-2.71415e-05
0.000229449
-2.12907e-05
0.000234386
-1.47972e-05
0.000237054
-7.98784e-06
0.000237357
-9.65161e-07
0.000235264
6.23647e-06
0.000230769
1.34846e-05
0.000223921
2.05181e-05
0.000214871
2.71166e-05
0.00020376
3.32848e-05
0.000190732
3.90526e-05
0.000176005
4.41452e-05
0.00015974
4.87073e-05
0.000142275
5.23209e-05
0.000123828
5.52647e-05
0.000104677
5.74215e-05
8.50452e-05
5.88592e-05
6.52393e-05
5.93706e-05
4.54269e-05
5.93746e-05
2.59007e-05
5.85496e-05
6.83226e-06
5.71686e-05
-1.15843e-05
5.52167e-05
-2.92178e-05
5.28503e-05
-4.59154e-05
5.00857e-05
-6.15929e-05
4.70179e-05
-7.62149e-05
4.38168e-05
-8.97594e-05
4.06613e-05
-0.000102195
3.73038e-05
-0.000113525
3.39863e-05
-0.000123767
3.07416e-05
-0.000133007
2.77263e-05
-0.000141172
2.44945e-05
-0.000148361
2.15573e-05
-0.000154563
1.86149e-05
-0.00015983
1.5795e-05
-0.000164189
1.30827e-05
-0.000167672
1.04677e-05
-0.000170307
7.91578e-06
-0.000172173
5.57833e-06
-0.000173255
3.26015e-06
-0.000173616
1.1269e-06
-0.000173278
-1.03399e-06
-0.000172232
-3.14491e-06
-0.000170489
-5.21366e-06
-0.000168049
-7.33247e-06
-0.000164884
-9.48757e-06
-0.000161121
-1.12857e-05
-0.000156626
-1.35052e-05
-0.000151454
-1.55126e-05
-0.000145541
-1.77442e-05
-0.000138933
-1.98802e-05
-0.000131583
-2.20053e-05
-0.00012346
-2.44675e-05
-0.00011458
-2.6553e-05
-0.000104865
-2.91336e-05
-9.43504e-05
-3.15566e-05
-8.30042e-05
-3.4035e-05
-7.07954e-05
-3.66365e-05
-5.76738e-05
-3.93564e-05
-4.38542e-05
-4.14515e-05
-2.91824e-05
-4.4004e-05
-1.38028e-05
-4.61397e-05
2.22299e-06
-4.80112e-05
1.87456e-05
-4.95293e-05
3.56693e-05
-5.07564e-05
5.28256e-05
-5.14197e-05
7.00631e-05
-5.16579e-05
8.71514e-05
-5.12279e-05
0.000103914
-5.02264e-05
0.000120076
-4.84461e-05
0.000135408
-4.59458e-05
0.000149674
-4.27475e-05
0.000162594
-3.87246e-05
0.000174
-3.41497e-05
0.000183627
-2.8825e-05
0.000191297
-2.29531e-05
0.000196785
-1.64409e-05
0.000200034
-9.71945e-06
0.000200888
-2.55851e-06
0.000199286
4.75241e-06
0.000195234
1.21345e-05
0.000188788
1.93304e-05
0.000180056
2.61771e-05
0.000169184
3.2546e-05
0.000156405
3.8313e-05
0.000141967
4.32424e-05
0.000126145
4.73825e-05
0.000109181
5.08617e-05
9.13666e-05
5.33812e-05
7.29379e-05
5.51977e-05
5.41819e-05
5.62621e-05
3.53844e-05
5.63305e-05
1.67546e-05
5.58649e-05
-1.52728e-06
5.47978e-05
-1.92169e-05
5.30355e-05
-3.62051e-05
5.09344e-05
-5.23615e-05
4.84462e-05
-6.75762e-05
4.56324e-05
-8.17955e-05
4.26537e-05
-9.50365e-05
3.97082e-05
-0.000107171
3.63998e-05
-0.000118274
3.33261e-05
-0.000128337
3.01837e-05
-0.000137438
2.72455e-05
-0.000145613
2.4599e-05
-0.000152862
2.17464e-05
-0.000159198
1.90146e-05
-0.000164618
1.62602e-05
-0.000169211
1.37837e-05
-0.000172971
1.12825e-05
-0.000175987
9.06543e-06
-0.000178299
6.95494e-06
-0.000180012
5.13678e-06
-0.000181073
3.17619e-06
-0.000181501
1.2834e-06
-0.000181359
-3.99218e-07
-0.000180606
-2.26775e-06
-0.000179243
-4.10662e-06
-0.000177351
-5.66256e-06
-0.000174774
-7.74907e-06
-0.000171594
-9.53087e-06
-0.000167773
-1.14685e-05
-0.000163256
-1.35531e-05
-0.000158056
-1.56092e-05
-0.000152129
-1.77843e-05
-0.000145435
-2.00979e-05
-0.000137914
-2.2554e-05
-0.000129574
-2.5043e-05
-0.000120347
-2.76766e-05
-0.000110259
-3.02677e-05
-9.92756e-05
-3.29704e-05
-8.74846e-05
-3.5344e-05
-7.48294e-05
-3.79515e-05
-6.14532e-05
-4.0125e-05
-4.72849e-05
-4.24974e-05
-3.23987e-05
-4.46364e-05
-1.6864e-05
-4.65826e-05
-7.12902e-07
-4.84366e-05
1.58419e-05
-4.96183e-05
3.27356e-05
-5.06491e-05
4.97673e-05
-5.10499e-05
6.67326e-05
-5.0858e-05
8.34516e-05
-5.01159e-05
9.97194e-05
-4.87555e-05
0.000115289
-4.66444e-05
0.000129893
-4.37681e-05
0.000143334
-4.02422e-05
0.000155284
-3.57931e-05
0.000165585
-3.0869e-05
0.000174006
-2.5211e-05
0.000180392
-1.91242e-05
0.000184597
-1.25636e-05
0.000186475
-5.65713e-06
0.000186054
1.21885e-06
0.000183303
8.2279e-06
0.000178267
1.51068e-05
0.000171039
2.16338e-05
0.000161766
2.78009e-05
0.00015063
3.33566e-05
0.000137825
3.83703e-05
0.000123553
4.27807e-05
0.000108063
4.63887e-05
9.1636e-05
4.92178e-05
7.45286e-05
5.12877e-05
5.70409e-05
5.24243e-05
3.93672e-05
5.29859e-05
2.16877e-05
5.29824e-05
4.28719e-06
5.21559e-05
-1.27316e-05
5.10349e-05
-2.92658e-05
4.95607e-05
-4.51106e-05
4.75177e-05
-6.02226e-05
4.53227e-05
-7.45212e-05
4.28884e-05
-8.79649e-05
4.03195e-05
-0.00010051
3.76331e-05
-0.000112162
3.49586e-05
-0.000122904
3.22154e-05
-0.000132746
2.95206e-05
-0.000141686
2.6834e-05
-0.000149738
2.4189e-05
-0.000156933
2.15895e-05
-0.000163258
1.89796e-05
-0.00016879
1.65876e-05
-0.000173416
1.3906e-05
-0.000177255
1.15387e-05
-0.000180262
9.01302e-06
-0.000182464
6.6576e-06
-0.000183925
4.34402e-06
-0.000184616
2.13185e-06
-0.000184504
-3.60139e-07
-0.000183618
-2.61513e-06
-0.000181914
-5.1176e-06
-0.000179556
-7.05601e-06
-0.000176228
-9.96215e-06
-0.000172224
-1.20391e-05
-0.000167454
-1.4282e-05
-0.00016193
-1.65697e-05
-0.000155739
-1.85633e-05
-0.000148852
-2.06721e-05
-0.00014137
-2.2421e-05
-0.000133358
-2.40451e-05
-0.000124655
-2.60974e-05
-0.000115356
-2.79078e-05
-0.000105372
-2.99629e-05
-9.46676e-05
-3.21003e-05
-8.3399e-05
-3.37568e-05
-7.13039e-05
-3.63497e-05
-5.84534e-05
-3.86029e-05
-4.48833e-05
-4.06407e-05
-3.04901e-05
-4.3184e-05
-1.53249e-05
-4.54805e-05
3.94807e-07
-4.71521e-05
1.67734e-05
-4.91038e-05
3.35472e-05
-5.02984e-05
5.07401e-05
-5.15414e-05
6.81347e-05
-5.21288e-05
8.53763e-05
-5.1683e-05
0.000102332
-5.08204e-05
0.000118853
-4.94971e-05
0.000134506
-4.69111e-05
0.000149212
-4.40518e-05
0.000162581
-4.00574e-05
0.000174544
-3.58257e-05
0.000184758
-3.05957e-05
0.000193051
-2.48339e-05
0.000199261
-1.85909e-05
0.000203259
-1.19674e-05
0.000204951
-5.07153e-06
0.000204279
1.98124e-06
0.000201191
9.20532e-06
0.000195837
1.60414e-05
0.000188415
2.22394e-05
0.000178873
2.85793e-05
0.000167645
3.36456e-05
0.000154825
3.84086e-05
0.0001407
4.23167e-05
0.000125505
4.55484e-05
0.000109434
4.81592e-05
9.28991e-05
4.95621e-05
7.59391e-05
5.08279e-05
5.88771e-05
5.1155e-05
4.18326e-05
5.10889e-05
2.5086e-05
5.01959e-05
8.65346e-06
4.92938e-05
-7.27979e-06
4.77711e-05
-2.26491e-05
4.60871e-05
-3.73418e-05
4.40627e-05
-5.12875e-05
4.1822e-05
-6.44618e-05
3.951e-05
-7.68106e-05
3.70354e-05
-8.83538e-05
3.46207e-05
-9.90579e-05
3.21152e-05
-0.000108913
2.95634e-05
-0.000117942
2.70911e-05
-0.000126147
2.46131e-05
-0.000133521
2.2121e-05
-0.000140088
1.97006e-05
-0.000145838
1.72532e-05
-0.000150791
1.48683e-05
-0.000154962
1.25176e-05
-0.000158347
1.01606e-05
-0.000160965
7.86242e-06
-0.000162818
5.5531e-06
-0.000163902
3.25346e-06
-0.000164229
9.93108e-07
-0.000163717
-1.53084e-06
-0.000162403
-3.93891e-06
-0.000160307
-6.28547e-06
-0.000157423
-8.64946e-06
-0.00015378
-1.09278e-05
-1.32299e-05
8.69436e-05
-7.07581e-05
0.000104955
-7.19032e-05
0.000122895
-7.16008e-05
0.000140452
-7.00385e-05
0.000157646
-6.85898e-05
0.000174084
-6.55413e-05
0.000189661
-6.20953e-05
0.000204046
-5.7343e-05
0.000216994
-5.16082e-05
0.000228263
-4.49307e-05
0.000237688
-3.75481e-05
0.00024502
-2.92624e-05
0.000250205
-2.06563e-05
0.000253046
-1.13705e-05
0.000253543
-2.17005e-06
0.000251632
7.3278e-06
0.000247302
1.72124e-05
0.00024076
2.60743e-05
0.00023215
3.43647e-05
0.000221408
4.2835e-05
0.000209028
4.94148e-05
0.000195087
5.56005e-05
0.000179735
6.13966e-05
0.000163352
6.53047e-05
0.000146165
6.8575e-05
0.000128442
7.08143e-05
0.000110329
7.23046e-05
9.21256e-05
7.27216e-05
7.39707e-05
7.24566e-05
5.60304e-05
7.18161e-05
3.85144e-05
6.98783e-05
2.1605e-05
6.7659e-05
5.27573e-06
6.55351e-05
-1.0407e-05
6.23921e-05
-2.52955e-05
5.94884e-05
-3.93368e-05
5.61307e-05
-5.2499e-05
5.26374e-05
-6.48003e-05
4.9193e-05
-7.62068e-05
4.56177e-05
-8.67469e-05
4.21567e-05
-9.64446e-05
3.87617e-05
-0.000105287
3.54115e-05
-0.000113339
3.22135e-05
-0.000120599
2.90426e-05
-0.000127109
2.60172e-05
-0.00013289
2.31405e-05
-0.000137962
2.02628e-05
-0.000142312
1.74194e-05
-0.000146001
1.47226e-05
-0.000149005
1.20364e-05
-0.000151316
9.2607e-06
-0.000152935
6.44045e-06
-0.00015389
3.82724e-06
-0.000154147
1.02866e-06
-0.000153632
-1.94442e-06
-0.00015236
-5.14795e-06
-0.000150268
-8.33331e-06
-0.00014748
-1.11721e-05
-0.000143696
-1.51762e-05
-0.000139181
-1.81062e-05
-0.000133683
-2.20697e-05
-0.000127194
-2.59097e-05
-0.000119872
-2.93355e-05
-0.000111556
-3.32575e-05
-0.000102177
-3.74849e-05
-9.20012e-05
-4.06756e-05
-8.06734e-05
-4.53156e-05
-6.84816e-05
-4.86919e-05
-5.53801e-05
-5.24377e-05
-4.12537e-05
-5.63477e-05
-2.64009e-05
-5.95533e-05
-1.08009e-05
-6.23009e-05
5.57713e-06
-6.5464e-05
2.24326e-05
-6.73961e-05
3.9787e-05
-6.92891e-05
5.73734e-05
-7.02754e-05
7.51687e-05
-7.11098e-05
9.30004e-05
-7.1227e-05
0.000110687
-7.06387e-05
0.000128073
-6.94495e-05
0.000144864
-6.70171e-05
0.000160956
-6.42311e-05
0.000176068
-6.03078e-05
0.000190012
-5.5656e-05
0.000202543
-4.99697e-05
0.000213475
-4.36958e-05
0.000222558
-3.62242e-05
0.000229682
-2.84155e-05
0.00023463
-1.97443e-05
0.000237307
-1.06653e-05
0.00023758
-1.23789e-06
0.000235464
8.35243e-06
0.00023096
1.79889e-05
0.000224098
2.73799e-05
0.000215034
3.6181e-05
0.000203887
4.44312e-05
0.000190835
5.21044e-05
0.000176083
5.88979e-05
0.000159782
6.50082e-05
0.000142273
6.9829e-05
0.000123793
7.37448e-05
0.000104621
7.6594e-05
8.49634e-05
7.85164e-05
6.51322e-05
7.92018e-05
4.52814e-05
7.92253e-05