/*--------------------------------*- C++ -*----------------------------------*\
| =========                 |                                                 |
| \\      /  F ield         | OpenFOAM: The Open Source CFD Toolbox           |
|  \\    /   O peration     | Version:  3.0.1                                 |
|   \\  /    A nd           | Web:      www.OpenFOAM.org                      |
|    \\/     M anipulation  |                                                 |
\*---------------------------------------------------------------------------*/
FoamFile
{
    version     2.0;
    format      ascii;
    class       volScalarField;
    location    "24.8";
    object      p_rgh;
}
// * * * * * * * * * * * * * * * * * * * * * * * * * * * * * * * * * * * * * //

dimensions      [1 -1 -2 0 0 0 0];

internalField   nonuniform List<scalar> 
21420
(
373.604
389.668
401.935
410.309
414.751
415.014
411.137
403.267
391.528
376.034
357.014
334.754
309.606
281.894
252.027
220.379
187.351
153.418
119.002
84.5747
50.6291
18.6461
-13.4499
-44.8611
-75.1671
-104.084
-131.44
-157.111
-181.028
-203.153
-223.468
-241.984
-258.725
-273.726
-287.031
-298.683
-308.729
-317.213
-324.174
-329.649
-333.663
-336.184
-337.236
-336.858
-335.018
-331.668
-326.804
-320.406
-312.414
-302.787
-291.498
-278.476
-263.695
-247.118
-228.703
-208.462
-186.418
-162.581
-137.014
-109.814
-81.1001
-51.0223
-19.73
11.8606
44.1072
76.859
109.86
142.669
174.93
206.287
236.358
264.78
291.21
315.308
336.732
355.18
370.39
382.085
390.059
394.148
394.137
390.272
382.547
370.908
355.501
336.526
314.224
288.93
260.973
230.724
198.614
165.05
130.458
95.2879
59.9556
24.8649
-9.59674
-43.0904
-75.3118
-106.002
-134.949
-161.993
-187.015
-209.96
-230.814
-249.587
-266.334
-281.121
-294.027
-305.141
-314.55
-322.338
-328.582
-333.352
-336.722
-338.714
-339.351
-338.735
-336.843
-333.683
-329.264
-323.581
-316.621
-308.357
-298.759
-287.799
-275.433
-261.625
-246.323
-229.483
-211.064
-191.028
-169.352
-146.029
-121.077
-94.5439
-66.5112
-37.1042
-6.48127
25.1252
57.4342
90.1446
122.909
155.344
187.042
217.579
246.524
273.457
297.966
319.667
338.207
353.286
364.637
372.055
375.378
374.553
369.572
360.556
347.577
330.881
310.733
287.462
261.443
233.073
202.777
170.988
138.142
104.657
70.9362
37.3541
4.25381
-28.0552
-59.3274
-89.343
-117.927
-144.946
-170.314
-193.974
-215.905
-236.108
-254.596
-271.413
-286.597
-300.195
-312.259
-322.827
-331.942
-339.639
-345.939
-350.874
-354.452
-356.658
-357.491
-356.974
-355.067
-351.749
-346.985
-340.749
-333.011
-323.734
-312.896
-300.468
-286.426
-270.76
-253.463
-234.535
-213.988
-191.849
-168.159
-142.984
-116.409
-88.5446
-59.5332
-29.5396
1.21644
32.505
64.0603
95.5773
126.724
157.15
186.478
214.328
240.316
264.063
285.218
303.445
318.447
329.972
337.804
341.812
341.826
337.939
330.146
318.496
303.173
284.38
262.38
237.486
210.043
180.43
149.057
116.344
82.71
48.5704
14.3317
-19.6252
-52.95
-85.3188
-116.496
-146.248
-174.403
-200.835
-225.458
-248.222
-269.109
-288.126
-305.297
-320.668
-334.288
-346.214
-356.505
-365.228
-372.437
-378.201
-382.585
-385.601
-387.283
-387.74
-386.933
-384.845
-381.465
-376.766
-370.69
-363.193
-354.232
-343.718
-331.591
-317.812
-302.321
-285.073
-266.087
-245.405
-223.149
-199.47
-174.468
-147.268
-114.351
-81.3295
-48.0362
-14.2803
19.7351
53.7365
87.4579
120.536
152.602
183.324
212.323
239.231
263.739
285.506
304.264
319.762
331.77
340.113
344.78
345.798
343.152
336.588
326.254
312.382
295.08
274.575
251.082
224.879
196.341
165.79
133.642
100.275
66.1194
31.658
-2.71265
-36.5353
-69.3671
-100.34
-129.849
-158.236
-185.088
-210.073
-233.021
-253.833
-272.478
-288.973
-303.359
-315.705
-326.096
-334.627
-341.402
-346.524
-350.101
-352.224
-352.964
-352.228
-350.257
-347.091
-342.745
-337.249
-330.631
-322.866
-313.944
-303.845
-292.532
-279.983
-266.156
-251.026
-234.58
-216.803
-197.718
373.729
389.806
402.082
410.462
414.906
415.182
411.291
403.419
391.67
376.164
357.129
334.853
309.688
281.957
252.072
220.405
187.36
153.409
118.976
84.5309
50.5693
18.5996
-13.5088
-44.9304
-75.2432
-104.164
-131.522
-157.194
-181.11
-203.234
-223.547
-242.06
-258.799
-273.797
-287.099
-298.749
-308.792
-317.274
-324.233
-329.707
-333.719
-336.239
-337.294
-336.917
-335.077
-331.728
-326.865
-320.469
-312.479
-302.855
-291.568
-278.549
-263.771
-247.196
-228.783
-208.543
-186.5
-162.662
-137.093
-109.891
-81.1731
-51.0912
-19.7952
11.8148
44.0683
76.8303
109.844
142.666
174.942
206.315
236.401
264.839
291.286
315.399
336.837
355.299
370.522
382.226
390.206
394.305
394.293
390.428
382.698
371.05
355.632
336.642
314.324
289.013
261.037
230.769
198.64
165.056
130.445
95.2588
59.9107
24.806
-9.66785
-43.1716
-75.401
-106.097
-135.049
-162.094
-187.116
-210.06
-230.911
-249.681
-266.424
-281.207
-294.108
-305.218
-314.623
-322.407
-328.649
-333.416
-336.785
-338.772
-339.41
-338.793
-336.9
-333.741
-329.323
-323.641
-316.682
-308.419
-298.824
-287.865
-275.502
-261.696
-246.397
-229.56
-211.144
-191.11
-169.436
-146.114
-121.161
-94.6267
-66.591
-37.179
-6.54948
25.0659
57.3862
90.1097
122.889
155.34
187.057
217.612
246.577
273.529
298.056
319.774
338.33
353.421
364.783
372.208
375.541
374.707
369.723
360.701
347.712
331.001
310.838
287.549
261.511
233.122
202.806
171
138.136
104.634
70.8998
37.305
4.19417
-28.1233
-59.4021
-89.4224
-118.009
-145.03
-170.398
-194.058
-215.987
-236.187
-254.673
-271.487
-286.669
-300.264
-312.326
-322.891
-332.004
-339.7
-345.999
-350.934
-354.511
-356.715
-357.551
-357.034
-355.128
-351.812
-347.05
-340.816
-333.079
-323.804
-312.968
-300.541
-286.501
-270.836
-253.54
-234.614
-214.067
-191.928
-168.237
-143.06
-116.482
-88.6145
-59.5975
-29.5973
1.16671
32.4649
64.0316
95.5616
126.723
157.164
186.509
214.377
240.382
264.146
285.317
303.558
318.573
330.109
337.949
341.964
341.977
338.084
330.287
318.63
303.297
284.49
262.475
237.564
210.103
180.472
149.081
116.35
82.6986
48.5432
14.2902
-19.6791
-53.0143
-85.3918
-116.576
-146.332
-174.49
-200.924
-225.546
-248.309
-269.195
-288.209
-305.378
-320.745
-334.362
-346.285
-356.573
-365.293
-372.5
-378.262
-382.642
-385.656
-387.339
-387.795
-386.989
-384.902
-381.523
-376.825
-370.751
-363.257
-354.299
-343.787
-331.663
-317.886
-302.398
-285.151
-266.164
-245.482
-223.225
-199.544
-174.541
-147.349
-114.401
-81.3761
-48.0789
-14.3157
19.7095
53.7225
87.4571
120.55
152.631
183.369
212.384
239.308
263.83
285.611
304.382
319.891
331.909
340.267
344.949
345.942
343.285
336.724
326.39
312.51
295.198
274.679
251.171
224.952
196.397
165.828
133.662
100.278
66.1042
31.625
-2.76267
-36.6012
-69.4449
-100.411
-129.928
-158.324
-185.181
-210.169
-233.117
-253.928
-272.57
-289.062
-303.444
-315.784
-326.171
-334.698
-341.468
-346.585
-350.158
-352.277
-353.017
-352.277
-350.304
-347.136
-342.789
-337.293
-330.675
-322.911
-313.99
-303.893
-292.582
-280.035
-266.21
-251.082
-234.639
-216.864
-197.78
373.979
390.08
402.376
410.769
415.217
415.515
411.603
403.725
391.955
376.424
357.36
335.052
309.852
282.085
252.162
220.459
187.377
153.392
118.923
84.4432
50.4494
18.5071
-13.6267
-45.0691
-75.3957
-104.325
-131.687
-157.36
-181.275
-203.396
-223.705
-242.213
-258.946
-273.939
-287.236
-298.88
-308.919
-317.397
-324.352
-329.822
-333.83
-336.349
-337.411
-337.035
-335.194
-331.847
-326.987
-320.594
-312.61
-302.991
-291.708
-278.695
-263.921
-247.351
-228.94
-208.703
-186.66
-162.821
-137.249
-110.043
-81.3161
-51.2258
-19.9215
11.7255
43.9937
76.7764
109.815
142.665
174.97
206.375
236.493
264.962
291.441
315.585
337.053
355.542
370.79
382.514
390.506
394.616
394.616
390.748
383.007
371.342
355.901
336.884
314.534
289.188
261.175
230.868
198.701
165.08
130.433
95.2125
59.8333
24.7007
-9.79737
-43.3211
-75.5664
-106.274
-135.233
-162.282
-187.304
-210.246
-231.091
-249.854
-266.589
-281.362
-294.256
-305.357
-314.754
-322.531
-328.766
-333.529
-336.893
-338.872
-339.514
-338.894
-337
-333.841
-329.424
-323.744
-316.787
-308.527
-298.936
-287.982
-275.623
-261.823
-246.53
-229.698
-211.287
-191.258
-169.587
-146.267
-121.315
-94.7773
-66.7359
-37.3143
-6.67158
24.9614
57.3042
90.0538
122.863
155.348
187.1
217.692
246.695
273.684
298.248
320.001
338.587
353.704
365.086
372.526
375.878
375.024
370.037
361.001
347.991
331.253
311.058
287.733
261.658
233.23
202.876
171.032
138.133
104.6
70.8368
37.2168
4.08486
-28.2495
-59.5413
-89.571
-118.164
-145.187
-170.556
-194.214
-216.14
-236.336
-254.816
-271.624
-286.801
-300.391
-312.447
-323.009
-332.118
-339.811
-346.109
-351.042
-354.618
-356.819
-357.66
-357.144
-355.24
-351.927
-347.168
-340.937
-333.204
-323.933
-313.099
-300.676
-286.639
-270.977
-253.684
-234.759
-214.213
-192.074
-168.381
-143.201
-116.618
-88.7429
-59.7147
-29.7014
1.0785
32.396
63.9853
95.5413
126.731
157.204
186.582
214.484
240.524
264.322
285.525
303.796
318.836
330.392
338.247
342.27
342.294
338.386
330.581
318.909
303.553
284.72
262.674
237.729
210.232
180.565
149.137
116.371
82.6853
48.4983
14.2168
-19.7773
-53.1332
-85.5282
-116.725
-146.491
-174.654
-201.09
-225.713
-248.474
-269.356
-288.365
-305.528
-320.89
-334.5
-346.417
-356.7
-365.414
-372.616
-378.373
-382.748
-385.756
-387.442
-387.896
-387.091
-385.006
-381.63
-376.935
-370.866
-363.378
-354.425
-343.918
-331.801
-318.028
-302.544
-285.299
-266.313
-245.63
-223.371
-199.687
-174.683
-147.505
-114.497
-81.4655
-48.1607
-14.3833
19.6614
53.6976
87.4582
120.58
152.69
183.46
212.507
239.463
264.015
285.823
304.62
320.151
332.188
340.576
345.272
346.239
343.554
336.999
326.663
312.767
295.433
274.888
251.351
225.099
196.51
165.905
133.703
100.283
66.0737
31.5589
-2.86274
-36.7332
-69.6011
-100.554
-130.086
-158.499
-185.368
-210.361
-233.31
-254.117
-272.754
-289.239
-303.612
-315.944
-326.321
-334.838
-341.599
-346.708
-350.272
-352.385
-353.12
-352.375
-350.396
-347.225
-342.878
-337.381
-330.764
-323.001
-314.082
-303.988
-292.681
-280.138
-266.318
-251.195
-234.756
-216.985
-197.905
374.354
390.491
402.817
411.229
415.684
416.009
412.075
404.184
392.381
376.815
357.707
335.351
310.098
282.276
252.297
220.539
187.403
153.365
118.844
84.3115
50.2688
18.3686
-13.8038
-45.2775
-75.6246
-104.566
-131.934
-157.609
-181.523
-203.639
-223.942
-242.443
-259.168
-274.152
-287.441
-299.077
-309.109
-317.58
-324.53
-329.995
-333.998
-336.516
-337.586
-337.209
-335.369
-332.025
-327.171
-320.783
-312.805
-303.194
-291.918
-278.913
-264.147
-247.583
-229.177
-208.943
-186.902
-163.06
-137.484
-110.27
-81.531
-51.4277
-20.1105
11.5902
43.8811
76.6952
109.772
142.663
175.013
206.464
236.629
265.146
291.674
315.864
337.376
355.908
371.192
382.945
390.958
395.078
395.104
391.228
383.47
371.78
356.307
337.248
314.851
289.453
261.383
231.019
198.795
165.117
130.416
95.1447
59.7187
24.5444
-9.99011
-43.5439
-75.8131
-106.539
-135.509
-162.563
-187.586
-210.523
-231.36
-250.113
-266.835
-281.595
-294.475
-305.564
-314.948
-322.715
-328.942
-333.697
-337.054
-339.024
-339.667
-339.044
-337.148
-333.99
-329.575
-323.898
-316.944
-308.689
-299.104
-288.156
-275.805
-262.013
-246.728
-229.905
-211.501
-191.48
-169.814
-146.498
-121.545
-95.0027
-66.9526
-37.5166
-6.85421
24.8055
57.1818
89.9706
122.825
155.359
187.165
217.813
246.873
273.92
298.538
320.341
338.974
354.13
365.543
373.004
376.374
375.51
370.513
361.454
348.413
331.632
311.389
288.011
261.879
233.393
202.981
171.083
138.131
104.55
70.7436
37.0858
3.9221
-28.4376
-59.7491
-89.7929
-118.395
-145.422
-170.791
-194.447
-216.368
-236.557
-255.03
-271.83
-286.998
-300.58
-312.629
-323.184
-332.288
-339.976
-346.272
-351.204
-354.777
-356.976
-357.823
-357.308
-355.408
-352.098
-347.344
-341.118
-333.39
-324.125
-313.296
-300.877
-286.846
-271.188
-253.899
-234.976
-214.432
-192.292
-168.597
-143.412
-116.821
-88.9345
-59.89
-29.8567
0.947174
32.2936
63.9167
95.5118
126.745
157.265
186.693
214.647
240.739
264.587
285.839
304.154
319.232
330.818
338.696
342.727
342.771
338.843
331.023
319.328
303.939
285.066
262.974
237.978
210.429
180.706
149.223
116.403
82.6668
48.4323
14.1082
-19.9233
-53.3103
-85.7316
-116.948
-146.727
-174.899
-201.34
-225.962
-248.72
-269.596
-288.598
-305.753
-321.105
-334.707
-346.614
-356.888
-365.593
-372.789
-378.539
-382.906
-385.906
-387.596
-388.048
-387.243
-385.162
-381.79
-377.101
-371.039
-363.559
-354.613
-344.115
-332.007
-318.242
-302.763
-285.522
-266.538
-245.854
-223.591
-199.902
-174.897
-147.74
-114.641
-81.6
-48.284
-14.485
19.589
53.6598
87.4598
120.624
152.781
183.597
212.693
239.695
264.292
286.142
304.976
320.54
332.606
341.026
345.736
346.698
343.975
337.415
327.073
313.152
295.785
275.202
251.62
225.32
196.679
166.021
133.764
100.29
66.0279
31.4598
-3.01307
-36.9316
-69.8368
-100.768
-130.323
-158.761
-185.648
-210.648
-233.598
-254.402
-273.03
-289.504
-303.865
-316.184
-326.547
-335.05
-341.797
-346.892
-350.443
-352.545
-353.274
-352.522
-350.534
-347.36
-343.01
-337.512
-330.897
-323.136
-314.22
-304.131
-292.83
-280.293
-266.479
-251.364
-234.932
-217.168
-198.093
374.854
391.041
403.405
411.844
416.309
416.658
412.711
404.794
392.951
377.336
358.17
335.749
310.426
282.531
252.478
220.645
187.437
153.33
118.739
84.1356
50.0268
18.1847
-14.0406
-45.5562
-75.9305
-104.888
-132.264
-157.941
-181.853
-203.964
-224.258
-242.749
-259.463
-274.436
-287.713
-299.34
-309.362
-317.825
-324.768
-330.226
-334.222
-336.741
-337.818
-337.44
-335.602
-332.263
-327.415
-321.034
-313.065
-303.464
-292.198
-279.205
-264.447
-247.892
-229.493
-209.263
-187.224
-163.38
-137.798
-110.574
-81.8178
-51.6967
-20.3621
11.408
43.7299
76.5866
109.714
142.659
175.069
206.583
236.81
265.391
291.984
316.236
337.807
356.395
371.728
383.521
391.563
395.699
395.748
391.87
384.089
372.365
356.848
337.734
315.274
289.806
261.662
231.221
198.92
165.166
130.393
95.0542
59.5657
24.3357
-10.2474
-43.8413
-76.1423
-106.891
-135.877
-162.938
-187.961
-210.892
-231.719
-250.457
-267.163
-281.905
-294.768
-305.839
-315.208
-322.961
-329.175
-333.921
-337.268
-339.229
-339.872
-339.244
-337.346
-334.189
-329.777
-324.103
-317.154
-308.905
-299.328
-288.389
-276.048
-262.266
-246.992
-230.18
-211.787
-191.775
-170.117
-146.805
-121.852
-95.3037
-67.2421
-37.7871
-7.09834
24.5973
57.0183
89.8594
122.774
155.374
187.252
217.975
247.111
274.233
298.924
320.796
339.49
354.698
366.153
373.641
377.024
376.167
371.153
362.058
348.975
332.139
311.831
288.382
262.174
233.61
203.122
171.149
138.127
104.482
70.6192
36.9108
3.70487
-28.6887
-60.0265
-90.0889
-118.702
-145.736
-171.106
-194.759
-216.673
-236.852
-255.315
-272.104
-287.261
-300.832
-312.871
-323.418
-332.515
-340.198
-346.49
-351.418
-354.988
-357.19
-358.04
-357.527
-355.631
-352.327
-347.579
-341.36
-333.639
-324.381
-313.559
-301.147
-287.122
-271.47
-254.185
-235.266
-214.724
-192.583
-168.885
-143.693
-117.091
-89.1901
-60.1243
-30.064
0.7719
32.1569
63.8252
95.4723
126.763
157.347
186.841
214.863
241.026
264.942
286.257
304.631
319.76
331.388
339.296
343.34
343.4
339.458
331.615
319.889
304.456
285.529
263.375
238.312
210.69
180.894
149.337
116.446
82.642
48.3442
13.9632
-20.1182
-53.5467
-86.003
-117.245
-147.043
-175.226
-201.672
-226.294
-249.048
-269.917
-288.908
-306.053
-321.393
-334.982
-346.877
-357.139
-365.833
-373.02
-378.761
-383.115
-386.108
-387.801
-388.25
-387.446
-385.369
-382.003
-377.32
-371.269
-363.8
-354.865
-344.378
-332.283
-318.526
-303.056
-285.82
-266.837
-246.152
-223.885
-200.188
-175.182
-148.055
-114.831
-81.78
-48.4491
-14.6212
19.4919
53.6092
87.4616
120.684
152.9
183.78
212.94
240.004
264.661
286.567
305.452
321.059
333.163
341.618
346.347
347.305
344.551
337.976
327.62
313.666
296.256
275.62
251.979
225.615
196.905
166.175
133.846
100.299
65.9666
31.3274
-3.21393
-37.1971
-70.1537
-101.051
-130.638
-159.112
-186.022
-211.033
-233.983
-254.781
-273.399
-289.858
-304.203
-316.503
-326.847
-335.331
-342.06
-347.137
-350.67
-352.756
-353.48
-352.716
-350.719
-347.54
-343.187
-337.688
-331.075
-323.316
-314.404
-304.322
-293.028
-280.5
-266.695
-251.589
-235.166
-217.411
-198.343
375.48
391.728
404.141
412.613
417.094
417.459
413.509
405.556
393.663
377.987
358.749
336.247
310.836
282.849
252.703
220.777
187.479
153.285
118.608
83.9154
49.7223
17.956
-14.3377
-45.9058
-76.3139
-105.291
-132.677
-158.357
-182.265
-204.369
-224.654
-243.132
-259.832
-274.791
-288.054
-299.668
-309.678
-318.131
-325.065
-330.514
-334.503
-337.024
-338.105
-337.728
-335.893
-332.56
-327.72
-321.349
-313.391
-303.803
-292.548
-279.569
-264.823
-248.279
-229.888
-209.664
-187.626
-163.78
-138.19
-110.954
-82.177
-52.0327
-20.6753
11.1774
43.5393
76.4502
109.64
142.654
175.139
206.731
237.037
265.698
292.372
316.701
338.346
357.004
372.399
384.242
392.322
396.479
396.548
392.674
384.863
373.097
357.526
338.342
315.803
290.248
262.009
231.473
199.077
165.228
130.364
94.9405
59.3736
24.074
-10.5699
-44.214
-76.5547
-107.334
-136.337
-163.407
-188.431
-211.355
-232.168
-250.889
-267.573
-282.293
-295.134
-306.184
-315.533
-323.269
-329.468
-334.2
-337.533
-339.488
-340.127
-339.494
-337.594
-334.438
-330.029
-324.359
-317.417
-309.175
-299.609
-288.68
-276.352
-262.582
-247.322
-230.525
-212.146
-192.145
-170.496
-147.189
-122.236
-95.6808
-67.6049
-38.1263
-7.40458
24.3364
56.813
89.7196
122.709
155.393
187.36
218.176
247.408
274.625
299.407
321.365
340.136
355.41
366.916
374.439
377.835
376.987
371.955
362.816
349.678
332.772
312.384
288.846
262.542
233.881
203.297
171.232
138.122
104.398
70.4628
36.6913
3.4326
-29.0034
-60.374
-90.4596
-119.088
-146.129
-171.499
-195.148
-217.054
-237.222
-255.671
-272.446
-287.589
-301.147
-313.173
-323.711
-332.799
-340.474
-346.762
-351.685
-355.252
-357.457
-358.31
-357.801
-355.91
-352.613
-347.873
-341.663
-333.951
-324.701
-313.887
-301.483
-287.467
-271.822
-254.543
-235.628
-215.089
-192.947
-169.246
-144.045
-117.43
-89.5099
-60.418
-30.3241
0.552127
31.9854
63.7101
95.4223
126.786
157.448
187.026
215.134
241.383
265.385
286.781
305.229
320.421
332.1
340.045
344.109
344.18
340.231
332.357
320.59
305.101
286.108
263.876
238.728
211.017
181.129
149.48
116.5
82.6103
48.2335
13.7813
-20.3627
-53.8432
-86.3429
-117.618
-147.438
-175.635
-202.088
-226.71
-249.458
-270.318
-289.297
-306.428
-321.753
-335.326
-347.206
-357.454
-366.133
-373.308
-379.037
-383.376
-386.362
-388.056
-388.502
-387.7
-385.629
-382.27
-377.596
-371.556
-364.102
-355.18
-344.706
-332.627
-318.882
-303.422
-286.192
-267.212
-246.524
-224.253
-200.544
-175.538
-148.451
-115.066
-82.0058
-48.6565
-14.7922
19.37
53.5454
87.4636
120.757
153.05
184.009
213.249
240.39
265.124
287.1
306.047
321.709
333.859
342.354
347.104
348.058
345.283
338.684
328.305
314.31
296.844
276.144
252.429
225.983
197.187
166.368
133.947
100.311
65.8896
31.1618
-3.46532
-37.5311
-70.5543
-101.402
-131.032
-159.552
-186.491
-211.514
-234.465
-255.255
-273.859
-290.301
-304.625
-316.902
-327.223
-335.684
-342.389
-347.444
-350.954
-353.02
-353.737
-352.958
-350.949
-347.764
-343.408
-337.907
-331.297
-323.541
-314.633
-304.56
-293.276
-280.758
-266.964
-251.87
-235.46
-217.716
-198.656
376.232
392.553
405.025
413.538
418.04
418.418
414.465
406.469
394.517
378.769
359.444
336.844
311.328
283.231
252.973
220.934
187.53
153.231
118.45
83.6505
49.3539
17.683
-14.6957
-46.3273
-76.7752
-105.775
-133.174
-158.856
-182.761
-204.857
-225.129
-243.592
-260.275
-275.217
-288.464
-300.061
-310.057
-318.497
-325.421
-330.861
-334.842
-337.364
-338.448
-338.073
-336.242
-332.916
-328.085
-321.726
-313.781
-304.208
-292.969
-280.006
-265.274
-248.743
-230.362
-210.145
-188.11
-164.26
-138.661
-111.41
-82.6085
-52.4354
-21.0486
10.8962
43.3084
76.2857
109.551
142.648
175.222
206.908
237.308
266.065
292.836
317.259
338.993
357.735
373.204
385.108
393.234
397.42
397.506
393.636
385.792
373.976
358.339
339.071
316.438
290.778
262.426
231.775
199.264
165.3
130.328
94.803
59.142
23.7586
-10.9581
-44.6626
-77.0509
-107.865
-136.891
-163.972
-188.996
-211.91
-232.707
-251.407
-268.066
-282.759
-295.573
-306.598
-315.922
-323.638
-329.818
-334.535
-337.852
-339.799
-340.433
-339.794
-337.891
-334.737
-330.332
-324.667
-317.732
-309.5
-299.945
-289.029
-276.716
-262.962
-247.719
-230.938
-212.576
-192.59
-170.951
-147.65
-122.697
-96.1345
-68.0415
-38.5345
-7.77347
24.0223
56.5654
89.5506
122.63
155.413
187.488
218.418
247.764
275.095
299.987
322.047
340.912
356.264
367.832
375.398
378.812
377.971
372.915
363.727
350.523
333.534
313.048
289.402
262.984
234.206
203.507
171.331
138.116
104.295
70.2738
36.4268
3.10476
-29.3822
-60.792
-90.9056
-119.551
-146.601
-171.972
-195.616
-217.512
-237.666
-256.1
-272.858
-287.984
-301.526
-313.537
-324.062
-333.139
-340.805
-347.087
-352.006
-355.57
-357.777
-358.634
-358.129
-356.246
-352.956
-348.226
-342.026
-334.324
-325.086
-314.282
-301.888
-287.881
-272.245
-254.973
-236.064
-215.527
-193.385
-169.679
-144.468
-117.837
-89.8943
-60.7715
-30.6371
0.287419
31.7786
63.5711
95.3611
126.812
157.568
187.247
215.459
241.813
265.917
287.41
305.946
321.215
332.955
340.946
345.034
345.115
341.161
333.249
321.432
305.877
286.802
264.479
239.228
211.41
181.41
149.651
116.563
82.5713
48.0997
13.5619
-20.6573
-54.2005
-86.7518
-118.066
-147.913
-176.127
-202.588
-227.209
-249.951
-270.8
-289.764
-306.878
-322.185
-335.739
-347.601
-357.831
-366.493
-373.653
-379.367
-383.69
-386.666
-388.361
-388.806
-388.005
-385.94
-382.59
-377.925
-371.901
-364.464
-355.558
-345.101
-333.04
-319.31
-303.861
-286.64
-267.662
-246.972
-224.694
-200.972
-175.967
-148.929
-115.345
-82.2783
-48.9071
-14.9988
19.2227
53.4681
87.4653
120.845
153.23
184.283
213.62
240.855
265.679
287.739
306.761
322.489
334.694
343.234
348.009
348.961
346.166
339.54
329.129
315.082
297.551
276.772
252.968
226.424
197.525
166.599
134.069
100.324
65.7967
30.9629
-3.76727
-37.9353
-71.0419
-101.817
-131.505
-160.082
-187.054
-212.092
-235.044
-255.825
-274.413
-290.832
-305.131
-317.382
-327.674
-336.107
-342.783
-347.811
-351.295
-353.337
-354.041
-353.247
-351.226
-348.032
-343.672
-338.169
-331.563
-323.812
-314.909
-304.845
-293.573
-281.068
-267.287
-252.208
-235.812
-218.081
-199.032
377.109
393.517
406.057
414.619
419.147
419.538
415.577
407.533
395.515
379.682
360.256
337.541
311.901
283.676
253.288
221.118
187.588
153.167
118.266
83.341
48.9197
17.3667
-15.1157
-46.8215
-77.3154
-106.342
-133.754
-159.44
-183.34
-205.425
-225.683
-244.128
-260.792
-275.714
-288.941
-300.52
-310.499
-318.925
-325.837
-331.267
-335.239
-337.761
-338.847
-338.474
-336.648
-333.332
-328.512
-322.166
-314.237
-304.682
-293.46
-280.515
-265.801
-249.285
-230.916
-210.707
-188.675
-164.822
-139.211
-111.943
-83.1127
-52.9047
-21.4795
10.561
43.0361
76.0923
109.446
142.64
175.319
207.114
237.624
266.493
293.378
317.909
339.748
358.588
374.143
386.12
394.301
398.521
398.627
394.756
386.877
375.003
359.289
339.923
317.179
291.397
262.912
232.127
199.481
165.384
130.286
94.641
58.8701
23.3891
-11.4125
-45.1878
-77.6315
-108.487
-137.539
-164.632
-189.656
-212.56
-233.337
-252.011
-268.642
-283.303
-296.086
-307.081
-316.377
-324.068
-330.227
-334.925
-338.226
-340.162
-340.788
-340.144
-338.239
-335.085
-330.684
-325.026
-318.099
-309.879
-300.337
-289.437
-277.142
-263.406
-248.182
-231.422
-213.078
-193.109
-171.483
-148.189
-123.237
-96.665
-68.5524
-39.0126
-8.20561
23.6545
56.275
89.3519
122.536
155.437
187.636
218.698
248.179
275.643
300.663
322.844
341.817
357.261
368.903
376.518
379.956
379.12
374.037
364.791
351.51
334.423
313.822
290.051
263.499
234.585
203.751
171.445
138.107
104.173
70.0518
36.1166
2.72079
-29.8259
-61.2812
-91.4271
-120.093
-147.153
-172.525
-196.162
-218.047
-238.184
-256.6
-273.338
-288.443
-301.967
-313.961
-324.471
-333.536
-341.192
-347.467
-352.381
-355.941
-358.15
-359.011
-358.513
-356.637
-353.356
-348.637
-342.45
-334.76
-325.534
-314.743
-302.36
-288.364
-272.738
-255.475
-236.572
-216.039
-193.897
-170.184
-144.963
-118.312
-90.3438
-61.1851
-31.0036
-0.0227379
31.5361
63.4077
95.2885
126.841
157.708
187.504
215.837
242.313
266.537
288.144
306.784
322.142
333.955
341.998
346.116
346.208
342.244
334.291
322.416
306.783
287.613
265.181
239.812
211.867
181.738
149.85
116.636
82.5245
47.9422
13.3044
-21.0025
-54.6191
-87.2303
-118.59
-148.469
-176.702
-203.172
-227.793
-250.527
-271.363
-290.309
-307.403
-322.689
-336.221
-348.062
-358.271
-366.913
-374.055
-379.753
-384.058
-387.02
-388.717
-389.161
-388.36
-386.302
-382.963
-378.31
-372.304
-364.886
-355.999
-345.562
-333.521
-319.809
-304.373
-287.163
-268.188
-247.496
-225.207
-201.47
-176.467
-149.491
-115.665
-82.5983
-49.2019
-15.2414
19.0495
53.3767
87.4662
120.947
153.438
184.603
214.052
241.398
266.328
288.486
307.596
323.4
335.668
344.258
349.061
350.014
347.201
340.543
330.092
315.985
298.376
277.506
253.598
226.94
197.92
166.868
134.21
100.339
65.6874
30.7308
-4.11981
-38.4119
-71.6208
-102.292
-132.056
-160.701
-187.714
-212.769
-235.721
-256.491
-275.059
-291.453
-305.723
-317.941
-328.201
-336.6
-343.244
-348.24
-351.693
-353.708
-354.393
-353.582
-351.549
-348.345
-343.98
-338.476
-331.872
-324.126
-315.23
-305.178
-293.92
-281.43
-267.665
-252.602
-236.222
-218.508
-199.471
378.113
394.619
407.239
415.857
420.416
420.819
416.845
408.749
396.657
380.727
361.185
338.338
312.556
284.184
253.646
221.326
187.653
153.094
118.055
82.9866
48.4176
17.0081
-15.5991
-47.3896
-77.9351
-106.992
-134.418
-160.108
-184.003
-206.076
-226.317
-244.742
-261.384
-276.282
-289.487
-301.045
-311.005
-319.414
-326.312
-331.73
-335.694
-338.215
-339.302
-338.931
-337.111
-333.806
-328.999
-322.668
-314.757
-305.223
-294.022
-281.098
-266.403
-249.905
-231.549
-211.35
-189.322
-165.465
-139.841
-112.553
-83.6899
-53.4405
-21.9671
10.17
42.7216
75.8694
109.325
142.629
175.428
207.348
237.984
266.982
293.996
318.652
340.611
359.564
375.218
387.277
395.522
399.783
399.909
396.037
388.118
376.178
360.376
340.898
318.027
292.104
263.467
232.528
199.728
165.478
130.236
94.4539
58.5574
22.9649
-11.9341
-45.7901
-78.2973
-109.199
-138.281
-165.388
-190.412
-213.303
-234.058
-252.703
-269.3
-283.925
-296.672
-307.632
-316.897
-324.56
-330.694
-335.37
-338.653
-340.577
-341.194
-340.543
-338.635
-335.483
-331.087
-325.437
-318.519
-310.312
-300.785
-289.903
-277.628
-263.912
-248.712
-231.974
-213.652
-193.702
-172.092
-148.806
-123.855
-97.2729
-69.1383
-39.5612
-8.70146
23.2323
55.9411
89.1228
122.428
155.461
187.805
219.018
248.653
276.27
301.437
323.755
342.853
358.403
370.128
377.801
381.267
380.434
375.32
366.01
352.64
335.44
314.709
290.792
264.088
235.017
204.029
171.573
138.095
104.033
69.7961
35.7601
2.27993
-30.3349
-61.842
-92.0248
-120.713
-147.785
-173.158
-196.787
-218.658
-238.777
-257.171
-273.887
-288.969
-302.471
-314.446
-324.938
-333.989
-341.634
-347.901
-352.809
-356.366
-358.576
-359.442
-358.951
-357.083
-353.814
-349.108
-342.935
-335.259
-326.047
-315.269
-302.9
-288.917
-273.303
-256.049
-237.154
-216.625
-194.482
-170.763
-145.529
-118.857
-90.8587
-61.6593
-31.424
-0.378899
31.2572
63.2192
95.2039
126.872
157.865
187.796
216.268
242.885
267.247
288.983
307.742
323.203
335.098
343.203
347.355
347.459
343.483
335.484
323.542
307.819
288.541
265.985
240.479
212.389
182.112
150.076
116.718
82.4695
47.7604
13.008
-21.3988
-55.0994
-87.7792
-119.19
-149.106
-177.361
-203.841
-228.461
-251.186
-272.006
-290.932
-308.004
-323.266
-336.773
-348.589
-358.774
-367.393
-374.515
-380.193
-384.479
-387.424
-389.122
-389.566
-388.765
-386.715
-383.389
-378.75
-372.764
-365.369
-356.503
-346.09
-334.072
-320.38
-304.959
-287.761
-268.79
-248.094
-225.792
-202.04
-177.04
-150.137
-116.024
-82.9675
-49.5417
-15.521
18.8498
53.2707
87.466
121.063
153.676
184.968
214.545
242.019
267.07
289.34
308.551
324.442
336.782
345.428
350.263
351.219
348.386
341.694
331.195
317.018
299.32
278.345
254.318
227.529
198.371
167.175
134.371
100.356
65.5613
30.4652
-4.52291
-38.962
-72.2987
-102.822
-132.686
-161.413
-188.471
-213.544
-236.496
-257.253
-275.798
-292.163
-306.399
-318.581
-328.803
-337.164
-343.77
-348.729
-352.147
-354.13
-354.792
-353.963
-351.917
-348.702
-344.331
-338.826
-332.225
-324.486
-315.598
-305.558
-294.315
-281.843
-268.096
-253.052
-236.692
-218.995
-199.972
379.244
395.861
408.57
417.251
421.847
422.262
418.272
410.118
397.942
381.903
362.23
339.236
313.293
284.756
254.048
221.559
187.726
153.01
117.818
82.5879
47.8453
16.6079
-16.1476
-48.0331
-78.6355
-107.725
-135.167
-160.861
-184.749
-206.809
-227.031
-245.432
-262.049
-276.922
-290.1
-301.635
-311.573
-319.964
-326.846
-332.251
-336.206
-338.725
-339.814
-339.445
-337.632
-334.34
-329.547
-323.233
-315.343
-305.833
-294.654
-281.754
-267.081
-250.602
-232.262
-212.074
-190.05
-166.19
-140.552
-113.241
-84.3407
-54.0431
-22.5136
9.72416
42.3644
75.616
109.186
142.616
175.551
207.611
238.389
267.532
294.692
319.488
341.583
360.663
376.428
388.581
396.899
401.206
401.355
397.478
389.515
377.503
361.6
341.995
318.981
292.899
264.09
232.98
200.005
165.581
130.177
94.2412
58.2031
22.4851
-12.5234
-46.4704
-79.0491
-110.004
-139.119
-166.24
-191.264
-214.141
-234.871
-253.482
-270.041
-284.625
-297.331
-308.253
-317.482
-325.112
-331.219
-335.872
-339.133
-341.043
-341.651
-340.992
-339.082
-335.931
-331.539
-325.898
-318.992
-310.799
-301.289
-290.427
-278.174
-264.482
-249.308
-232.596
-214.298
-194.37
-172.778
-149.502
-124.552
-97.9588
-69.7995
-40.1815
-9.26175
22.7549
55.5628
88.8624
122.303
155.487
187.993
219.377
249.185
276.974
302.307
324.781
344.019
359.689
371.51
379.248
382.745
381.914
376.765
367.383
353.912
336.586
315.706
291.627
264.75
235.502
204.34
171.716
138.079
103.872
69.5058
35.3565
1.78134
-30.9101
-62.4754
-92.6994
-121.413
-148.497
-173.871
-197.492
-219.347
-239.445
-257.815
-274.504
-289.56
-303.038
-314.991
-325.464
-334.499
-342.132
-348.388
-353.29
-356.844
-359.055
-359.926
-359.443
-357.586
-354.328
-349.638
-343.481
-335.819
-326.624
-315.862
-303.508
-289.54
-273.939
-256.696
-237.809
-217.285
-195.142
-171.416
-146.167
-119.472
-91.4397
-62.1948
-31.899
-0.781593
30.9413
63.0051
95.1066
126.906
158.041
188.124
216.752
243.527
268.045
289.928