/*--------------------------------*- C++ -*----------------------------------*\
| =========                 |                                                 |
| \\      /  F ield         | OpenFOAM: The Open Source CFD Toolbox           |
|  \\    /   O peration     | Version:  3.0.1                                 |
|   \\  /    A nd           | Web:      www.OpenFOAM.org                      |
|    \\/     M anipulation  |                                                 |
\*---------------------------------------------------------------------------*/
FoamFile
{
    version     2.0;
    format      ascii;
    class       volScalarField;
    location    "19.8";
    object      p_rgh;
}
// * * * * * * * * * * * * * * * * * * * * * * * * * * * * * * * * * * * * * //

dimensions      [1 -1 -2 0 0 0 0];

internalField   nonuniform List<scalar> 
22680
(
-462.46
-457.889
-450.879
-441.346
-429.19
-414.325
-396.643
-376.133
-352.747
-326.571
-297.643
-266.116
-232.143
-195.957
-157.868
-118.093
-77.0398
-35.2436
6.93737
48.848
90.1279
130.045
168.244
203.969
236.882
266.296
291.929
313.303
330.294
342.457
349.569
351.945
350.196
343.749
332.558
316.733
296.267
271.516
242.489
209.731
173.273
133.786
91.3294
46.6348
-0.212812
-48.4768
-98.06
-148.267
-199.006
-249.66
-300.171
-349.999
-398.888
-446.74
-493.236
-538.36
-581.849
-623.702
-663.701
-701.826
-737.867
-771.77
-803.327
-832.347
-858.321
-880.585
-901.117
-920.944
-936.632
-948.158
-957.046
-963.295
-966.987
-968.221
-967.141
-963.9
-958.674
-951.614
-942.89
-932.622
-920.965
-908.013
-893.913
-878.755
-862.695
-845.84
-828.358
-810.35
-791.93
-773.162
-754.227
-735.344
-716.602
-697.933
-679.24
-660.409
-641.26
-621.621
-601.259
-579.971
-557.528
-533.766
-508.547
-481.822
-453.598
-423.992
-393.175
-361.421
-329.043
-296.432
-263.999
-232.199
-201.486
-172.327
-145.164
-120.437
-98.5451
-79.8624
-64.7117
-53.3691
-46.0259
-42.8313
-43.8417
-49.0066
-58.1959
-71.2065
-87.7554
-107.494
-130.018
-154.877
-181.596
-209.689
-238.679
-268.118
-297.596
-326.765
-355.332
-383.076
-409.836
-435.512
-460.056
-483.463
-505.768
-527.023
-547.306
-566.693
-585.266
-603.102
-620.267
-636.815
-652.779
-668.178
-683.006
-697.247
-710.869
-723.804
-735.996
-747.432
-758.002
-767.641
-776.28
-783.853
-790.286
-795.515
-799.476
-802.103
-803.335
-803.112
-801.377
-798.075
-793.151
-786.563
-778.274
-768.249
-756.475
-742.95
-727.679
-710.694
-692.055
-671.84
-650.139
-627.07
-602.769
-577.404
-551.155
-524.237
-496.868
-469.3
-441.79
-414.604
-388.014
-362.288
-337.695
-314.486
-292.907
-273.182
-255.514
-240.084
-227.04
-216.502
-208.562
-203.275
-200.667
-200.722
-203.386
-208.65
-216.292
-226.216
-238.293
-252.32
-268.091
-285.395
-304.004
-323.681
-344.187
-365.283
-386.733
-408.29
-429.713
-450.769
-471.232
-490.843
-509.337
-526.369
-541.926
-462.578
-458.015
-451.012
-441.488
-429.339
-414.482
-396.806
-376.301
-352.919
-326.743
-297.814
-266.283
-232.302
-196.106
-158.002
-118.209
-77.1344
-35.3143
6.89325
48.8321
90.1422
130.09
168.322
204.078
237.023
266.466
292.127
313.525
330.529
342.71
349.837
352.235
350.479
344.028
332.831
316.996
296.517
271.75
242.704
209.925
173.445
133.934
91.4531
46.7348
-0.136321
-48.4226
-98.0268
-148.253
-199.01
-249.678
-300.203
-350.043
-398.941
-446.8
-493.303
-538.431
-581.925
-623.782
-663.785
-701.914
-737.96
-771.868
-803.425
-832.443
-858.432
-880.792
-901.375
-921.044
-936.706
-948.267
-957.169
-963.42
-967.11
-968.339
-967.251
-964.004
-958.771
-951.704
-942.974
-932.701
-921.039
-908.082
-893.977
-878.813
-862.746
-845.884
-828.394
-810.379
-791.951
-773.178
-754.238
-735.352
-716.609
-697.942
-679.256
-660.432
-641.294
-621.667
-601.317
-580.042
-557.609
-533.856
-508.642
-481.917
-453.69
-424.076
-393.248
-361.477
-329.081
-296.448
-263.991
-232.166
-201.426
-172.24
-145.051
-120.297
-98.3811
-79.6764
-64.5069
-53.1492
-45.7961
-42.5974
-43.6108
-48.7813
-57.9839
-71.013
-87.5847
-107.35
-129.902
-154.791
-181.54
-209.661
-238.677
-268.139
-297.636
-326.819
-355.397
-383.148
-409.912
-435.587
-460.13
-483.533
-505.833
-527.084
-547.36
-566.742
-585.31
-603.141
-620.302
-636.848
-652.81
-668.209
-683.038
-697.28
-710.906
-723.841
-736.04
-747.478
-758.052
-767.694
-776.338
-783.914
-790.352
-795.584
-799.549
-802.18
-803.416
-803.197
-801.465
-798.167
-793.247
-786.662
-778.377
-768.354
-756.581
-743.057
-727.786
-710.801
-692.161
-671.942
-650.237
-627.163
-602.855
-577.482
-551.224
-524.294
-496.913
-469.332
-441.807
-414.606
-388.001
-362.258
-337.649
-314.424
-292.83
-273.09
-255.408
-239.967
-226.912
-216.365
-208.42
-203.129
-200.519
-200.576
-203.244
-208.509
-216.166
-226.1
-238.188
-252.228
-268.013
-285.332
-303.956
-323.649
-344.17
-365.28
-386.744
-408.315
-429.754
-450.828
-471.31
-490.945
-509.482
-526.536
-541.973
-462.816
-458.266
-451.279
-441.771
-429.638
-414.796
-397.134
-376.64
-353.263
-327.089
-298.156
-266.617
-232.621
-196.403
-158.271
-118.441
-77.3236
-35.4555
6.80514
48.8005
90.171
130.181
168.477
204.297
237.305
266.807
292.524
313.969
331
343.214
350.377
352.82
351.047
344.587
333.378
317.524
297.019
272.22
243.135
210.315
173.788
134.231
91.7015
46.9358
0.0175374
-48.3132
-97.9597
-148.225
-199.016
-249.715
-300.267
-350.13
-399.046
-446.921
-493.436
-538.575
-582.077
-623.942
-663.953
-702.091
-738.148
-772.065
-803.622
-832.636
-858.656
-881.209
-901.888
-921.254
-936.853
-948.492
-957.421
-963.677
-967.361
-968.581
-967.479
-964.217
-958.971
-951.892
-943.15
-932.866
-921.195
-908.228
-894.112
-878.937
-862.858
-845.981
-828.477
-810.446
-792.002
-773.215
-754.264
-735.374
-716.631
-697.968
-679.292
-660.483
-641.366
-621.765
-601.44
-580.188
-557.776
-534.039
-508.834
-482.111
-453.877
-424.247
-393.395
-361.593
-329.158
-296.482
-263.977
-232.101
-201.307
-172.068
-144.824
-120.018
-98.0535
-79.3047
-64.0974
-52.7097
-45.3364
-42.1297
-43.1473
-48.3299
-57.5592
-70.6254
-87.2429
-107.061
-129.671
-154.619
-181.427
-209.605
-238.672
-268.18
-297.714
-326.927
-355.527
-383.291
-410.062
-435.738
-460.278
-483.674
-505.965
-527.204
-547.47
-566.84
-585.398
-603.221
-620.375
-636.915
-652.875
-668.273
-683.104
-697.351
-710.981
-723.919
-736.132
-747.576
-758.157
-767.807
-776.459
-784.044
-790.489
-795.729
-799.702
-802.341
-803.585
-803.374
-801.65
-798.36
-793.447
-786.87
-778.59
-768.572
-756.803
-743.282
-728.011
-711.024
-692.379
-672.154
-650.44
-627.356
-603.034
-577.644
-551.367
-524.415
-497.009
-469.401
-441.847
-414.615
-387.978
-362.202
-337.561
-314.303
-292.678
-272.908
-255.2
-239.733
-226.658
-216.094
-208.136
-202.838
-200.225
-200.285
-202.964
-208.228
-215.913
-225.866
-237.977
-252.043
-267.856
-285.205
-303.86
-323.584
-344.135
-365.274
-386.766
-408.365
-429.832
-450.938
-471.453
-491.107
-509.655
-526.747
-542.1
-463.173
-458.643
-451.679
-442.195
-430.087
-415.268
-397.626
-377.147
-353.78
-327.609
-298.671
-267.118
-233.101
-196.85
-158.675
-118.789
-77.6079
-35.6679
6.67252
48.7525
90.2138
130.317
168.71
204.625
237.727
267.319
293.119
314.634
331.706
343.967
351.194
353.69
351.897
345.426
334.199
318.316
297.771
272.924
243.782
210.899
174.304
134.676
92.0739
47.237
0.248093
-48.1493
-97.8594
-148.182
-199.026
-249.771
-300.362
-350.26
-399.205
-447.103
-493.636
-538.79
-582.306
-624.183
-664.206
-702.358
-738.429
-772.361
-803.922
-832.929
-858.995
-881.784
-902.579
-921.615
-937.109
-948.839
-957.803
-964.064
-967.738
-968.942
-967.823
-964.541
-959.274
-952.175
-943.418
-933.119
-921.431
-908.447
-894.316
-879.123
-863.026
-846.129
-828.602
-810.547
-792.08
-773.273
-754.308
-735.407
-716.663
-698.009
-679.349
-660.565
-641.478
-621.909
-601.623
-580.408
-558.028
-534.315
-509.124
-482.404
-454.159
-424.505
-393.616
-361.767
-329.274
-296.533
-263.957
-232.003
-201.129
-171.808
-144.484
-119.6
-97.5617
-78.7468
-63.4827
-52.05
-44.6472
-41.4284
-42.4487
-47.6523
-56.9216
-70.0435
-86.7297
-106.627
-129.323
-154.361
-181.258
-209.521
-238.666
-268.241
-297.832
-327.09
-355.721
-383.506
-410.288
-435.966
-460.499
-483.885
-506.162
-527.385
-547.634
-566.987
-585.53
-603.339
-620.483
-637.016
-652.972
-668.369
-683.203
-697.455
-711.092
-724.04
-736.269
-747.722
-758.314
-767.977
-776.641
-784.237
-790.695
-795.948
-799.932
-802.584
-803.84
-803.64
-801.929
-798.65
-793.749
-787.182
-778.912
-768.901
-757.137
-743.618
-728.348
-711.358
-692.708
-672.474
-650.748
-627.647
-603.304
-577.89
-551.583
-524.597
-497.154
-469.505
-441.907
-414.628
-387.943
-362.118
-337.428
-314.122
-292.449
-272.636
-254.886
-239.383
-226.275
-215.687
-207.711
-202.401
-199.784
-199.847
-202.541
-207.813
-215.528
-225.514
-237.66
-251.765
-267.621
-285.015
-303.716
-323.486
-344.082
-365.265
-386.798
-408.439
-429.949
-451.098
-471.657
-491.357
-509.959
-527.136
-542.609
-463.648
-459.146
-452.212
-442.761
-430.686
-415.898
-398.282
-377.824
-354.469
-328.303
-299.358
-267.788
-233.741
-197.447
-159.214
-119.255
-77.9879
-35.9519
6.49486
48.6879
90.2703
130.498
169.019
205.063
238.291
268.002
293.911
315.521
332.654
344.974
352.288
354.834
353.029
346.544
335.294
319.373
298.775
273.864
244.645
211.678
174.991
135.27
92.5704
47.6384
0.555097
-47.9314
-97.7262
-148.126
-199.04
-249.846
-300.49
-350.435
-399.416
-447.345
-493.903
-539.078
-582.61
-624.504
-664.544
-702.714
-738.806
-772.756
-804.328
-833.343
-859.464
-882.504
-903.402
-922.114
-937.499
-949.321
-958.318
-964.581
-968.241
-969.423
-968.28
-964.972
-959.677
-952.554
-943.772
-933.451
-921.744
-908.74
-894.587
-879.373
-863.25
-846.325
-828.767
-810.683
-792.184
-773.349
-754.364
-735.453
-716.706
-698.061
-679.423
-660.671
-641.625
-622.104
-601.867
-580.701
-558.364
-534.684
-509.511
-482.794
-454.535
-424.849
-393.913
-361.999
-329.431
-296.602
-263.93
-231.874
-200.892
-171.463
-144.03
-119.042
-96.9056
-78.0023
-62.6625
-51.1699
-43.7279
-40.4917
-41.5148
-46.7481
-56.0704
-69.2668
-86.0448
-106.048
-128.859
-154.018
-181.034
-209.411
-238.659
-268.325
-297.991
-327.307
-355.982
-383.794
-410.589
-436.269
-460.795
-484.167
-506.425
-527.626
-547.852
-567.184
-585.705
-603.497
-620.628
-637.15
-653.101
-668.497
-683.335
-697.594
-711.239
-724.204
-736.449
-747.915
-758.523
-768.202
-776.883
-784.495
-790.969
-796.238
-800.239
-802.906
-804.179
-803.995
-802.3
-799.036
-794.15
-787.597
-779.34
-769.339
-757.584
-744.069
-728.799
-711.806
-693.148
-672.9
-651.157
-628.035
-603.664
-578.216
-551.872
-524.841
-497.348
-469.644
-441.987
-414.647
-387.898
-362.007
-337.251
-313.88
-292.145
-272.272
-254.467
-238.915
-225.766
-215.143
-207.143
-201.817
-199.194
-199.264
-201.974
-207.266
-215.011
-225.044
-237.237
-251.395
-267.308
-284.762
-303.525
-323.356
-344.013
-365.252
-386.842
-408.538
-430.103
-451.308
-471.925
-491.682
-510.333
-527.607
-543.187
-464.242
-459.773
-452.878
-443.468
-431.434
-416.685
-399.103
-378.672
-355.333
-329.171
-300.218
-268.626
-234.542
-198.195
-159.89
-119.839
-78.4646
-36.3084
6.27146
48.6059
90.3398
130.724
169.406
205.61
238.996
268.855
294.902
316.629
333.847
346.245
353.651
356.248
354.442
347.942
336.663
320.695
300.031
275.039
245.723
212.652
175.85
136.012
93.1906
48.1395
0.938198
-47.6598
-97.5605
-148.057
-199.058
-249.941
-300.651
-350.654
-399.682
-447.649
-494.238
-539.437
-582.992
-624.905
-664.967
-703.162
-739.28
-773.254
-804.846
-833.884
-860.075
-883.336
-904.303
-922.819
-938.067
-949.949
-958.968
-965.228
-968.87
-970.026
-968.851
-965.51
-960.183
-953.027
-944.215
-933.865
-922.132
-909.106
-894.928
-879.685
-863.53
-846.569
-828.973
-810.85
-792.313
-773.443
-754.432
-735.506
-716.758
-698.124
-679.51
-660.8
-641.807
-622.346
-602.172
-581.066
-558.783
-535.146
-509.997
-483.284
-455.006
-425.282
-394.285
-362.292
-329.627
-296.689
-263.897
-231.713
-200.596
-171.031
-143.463
-118.344
-96.0851
-77.0709
-61.636
-50.0687
-42.5769
-39.3178
-40.3459
-45.6163
-55.0049
-68.2944
-85.1876
-105.324
-128.28
-153.589
-180.755
-209.273
-238.652
-268.431
-298.191
-327.582
-356.309
-384.156
-410.968
-436.65
-461.166
-484.52
-506.754
-527.928
-548.125
-567.429
-585.924
-603.694
-620.807
-637.317
-653.261
-668.657
-683.499
-697.768
-711.424
-724.407
-736.673
-748.157
-758.785
-768.484
-777.185
-784.817
-791.311
-796.602
-800.623
-803.31
-804.602
-804.437
-802.761
-799.518
-794.651
-788.116
-779.874
-769.886
-758.139
-744.629
-729.359
-712.362
-693.694
-673.432
-651.668
-628.519
-604.114
-578.625
-552.233
-525.146
-497.59
-469.818
-442.088
-414.67
-387.841
-361.868
-337.03
-313.578
-291.764
-271.817
-253.944
-238.33
-225.128
-214.463
-206.432
-201.087
-198.457
-198.533
-201.264
-206.584
-214.366
-224.455
-236.708
-250.931
-266.916
-284.446
-303.286
-323.194
-343.925
-365.238
-386.897
-408.661
-430.293
-451.567
-472.252
-492.078
-510.811
-528.204
-543.969
-464.953
-460.525
-453.676
-444.315
-432.331
-417.63
-400.089
-379.69
-356.371
-330.215
-301.252
-269.635
-235.507
-199.096
-160.704
-120.542
-79.0389
-36.7384
6.00141
48.5057
90.4217
130.993
169.87
206.265
239.842
269.88
296.09
317.959
335.288
347.782
355.284
357.937
356.137
349.621
338.308
322.283
301.539
276.45
247.019
213.821
176.881
136.902
93.9343
48.7402
1.39698
-47.3349
-97.3631
-147.975
-199.082
-250.056
-300.846
-350.918
-400.002
-448.014
-494.64
-539.869
-583.449
-625.387
-665.474
-703.699
-739.849
-773.856
-805.478
-834.556
-860.828
-884.268
-905.286
-923.765
-938.813
-950.722
-959.755
-966.007
-969.627
-970.75
-969.537
-966.155
-960.788
-953.593
-944.743
-934.363
-922.601
-909.546
-895.337
-880.06
-863.865
-846.862
-829.221
-811.05
-792.467
-773.556
-754.513
-735.569
-716.818
-698.197
-679.616
-660.956
-642.025
-622.636
-602.538
-581.506
-559.289
-535.702
-510.582
-483.873
-455.576
-425.804
-394.734
-362.645
-329.865
-296.795
-263.859
-231.521
-200.243
-170.514
-142.783
-117.507
-95.0997
-75.9518
-60.4027
-48.7453
-41.1929
-37.9058
-38.9404
-44.2553
-53.7237
-67.1255
-84.1575
-104.454
-127.585
-153.075
-180.421
-209.111
-238.646
-268.561
-298.435
-327.914
-356.705
-384.592
-411.424
-437.108
-461.613
-484.944
-507.149
-528.29
-548.452
-567.722
-586.187
-603.93
-621.022
-637.517
-653.454
-668.849
-683.696
-697.975
-711.646
-724.652
-736.94
-748.447
-759.099
-768.823
-777.547
-785.204
-791.723
-797.037
-801.081
-803.792
-805.109
-804.97
-803.318
-800.097
-795.252
-788.739
-780.515
-770.542
-758.808
-745.303
-730.034
-713.032
-694.352
-674.071
-652.283
-629.101
-604.654
-579.116
-552.666
-525.512
-497.882
-470.028
-442.21
-414.699
-387.773
-361.701
-336.765
-313.215
-291.307
-271.27
-253.315
-237.627
-224.362
-213.646
-205.577
-200.209
-197.571
-197.655
-200.41
-205.764
-213.593
-223.746
-236.071
-250.375
-266.446
-284.067
-302.999
-323
-343.822
-365.221
-386.964
-408.809
-430.522
-451.876
-472.641
-492.553
-511.382
-528.889
-544.844
-465.781
-461.4
-454.607
-445.304
-433.378
-418.733
-401.241
-380.881
-357.584
-331.436
-302.462
-270.815
-236.636
-200.15
-161.657
-121.366
-79.7122
-37.2431
5.68364
48.3864
90.5151
131.305
170.409
207.03
240.828
271.075
297.478
319.513
336.975
349.584
357.186
359.902
358.114
351.581
340.23
324.138
303.3
278.098
248.531
215.186
178.084
137.94
94.8014
49.4401
1.93092
-46.9576
-97.1345
-147.882
-199.112
-250.193
-301.075
-351.229
-400.377
-448.442
-495.11
-540.374
-583.983
-625.949
-666.067
-704.327
-740.516
-774.561
-806.223
-835.352
-861.715
-885.307
-906.368
-924.796
-939.721
-951.643
-960.679
-966.921
-970.513
-971.597
-970.339
-966.909
-961.493
-954.251
-945.362
-934.945
-923.15
-910.06
-895.814
-880.496
-864.257
-847.206
-829.511
-811.285
-792.648
-773.686
-754.606
-735.639
-716.884
-698.281
-679.739
-661.134
-642.277
-622.972
-602.966
-582.022
-559.882
-536.353
-511.267
-484.566
-456.244
-426.416
-395.261
-363.061
-330.146
-296.921
-263.816
-231.298
-199.832
-169.911
-141.99
-116.529
-93.9491
-74.6446
-58.9615
-47.1984
-39.5745
-36.2541
-37.2968
-42.6637
-52.2255
-65.759
-82.9537
-103.438
-126.773
-152.476
-180.033
-208.925
-238.643
-268.718
-298.723
-328.305
-357.171
-385.104
-411.959
-437.645
-462.136
-485.441
-507.611
-528.713
-548.834
-568.064
-586.492
-604.205
-621.271
-637.749
-653.677
-669.071
-683.925
-698.217
-711.907
-724.936
-737.251
-748.785
-759.465
-769.217
-777.971
-785.656
-792.203
-797.546
-801.617
-804.356
-805.701
-805.59
-803.966
-800.773
-795.955
-789.465
-781.264
-771.311
-759.588
-746.09
-730.822
-713.814
-695.122
-674.819
-653.001
-629.781
-605.287
-579.691
-553.173
-525.941
-498.223
-470.274
-442.352
-414.733
-387.694
-361.508
-336.456
-312.792
-290.773
-270.632
-252.58
-236.807
-223.468
-212.692
-204.579
-199.184
-196.536
-196.628
-199.411
-204.806
-212.692
-222.919
-235.328
-249.726
-265.898
-283.625
-302.666
-322.775
-343.701
-365.203
-387.043
-408.981
-430.786
-452.232
-473.09
-493.097
-512.033
-529.686
-545.855
-466.726
-462.399
-455.668
-446.432
-434.575
-419.995
-402.559
-382.244
-358.975
-332.835
-303.849
-272.168
-237.931
-201.36
-162.751
-122.312
-80.4859
-37.8237
5.31691
48.2468
90.6191
131.66
171.024
207.903
241.956
272.443
299.065
321.293
338.91
351.652
359.361
362.146
360.376
353.825
342.429
326.26
305.316
279.983
250.261
216.747
179.46
139.126
95.7915
50.2385
2.53942
-46.5284
-96.8757
-147.778
-199.148
-250.351
-301.34
-351.586
-400.807
-448.933
-495.649
-540.951
-584.594
-626.591
-666.743
-705.044
-741.278
-775.371
-807.081
-836.273
-862.731
-886.455
-907.557
-925.886
-940.784
-952.71
-961.745
-967.969
-971.529
-972.568
-971.257
-967.77
-962.298
-955.006
-946.07
-935.611
-923.775
-910.646
-896.359
-880.997
-864.707
-847.6
-829.844
-811.555
-792.853
-773.833
-754.708
-735.717
-716.958
-698.376
-679.874
-661.335
-642.561
-623.356
-603.456
-582.613
-560.561
-537.1
-512.056
-485.363
-457.013
-427.122
-395.869
-363.54
-330.47
-297.069
-263.77
-231.046
-199.365
-169.223
-141.084
-115.412
-92.6328
-73.1484
-57.3113
-45.4266
-37.7202
-34.361
-35.413
-40.8396
-50.5088
-64.1935
-81.5753
-102.275
-125.846
-151.794
-179.594
-208.716
-238.644
-268.901
-299.058
-328.757
-357.707
-385.694
-412.573
-438.262
-462.736
-486.01
-508.14
-529.196
-549.271
-568.455
-586.841
-604.517
-621.555
-638.014
-653.931
-669.324
-684.186
-698.494
-712.204
-725.261
-737.605
-749.171
-759.883
-769.668
-778.454
-786.171
-792.751
-798.127
-802.231
-805.002
-806.378
-806.298
-804.706
-801.546
-796.759
-790.297
-782.121
-772.189
-760.483
-746.991
-731.724
-714.71
-696.002
-675.675
-653.824
-630.561
-606.012
-580.35
-553.755
-526.434
-498.616
-470.557
-442.518
-414.774
-387.606
-361.288
-336.103
-312.309
-290.164
-269.903
-251.74
-235.868
-222.444
-211.599
-203.435
-198.01
-195.351
-195.453
-198.266
-203.71
-211.661
-221.972
-234.478
-248.983
-265.271
-283.12
-302.286
-322.517
-343.565
-365.184
-387.134
-409.179
-431.088
-452.638
-473.6
-493.715
-512.775
-530.585
-546.975
-467.786
-463.521
-456.861
-447.701
-435.921
-421.416
-404.045
-383.782
-360.543
-334.414
-305.414
-273.695
-239.393
-202.727
-163.988
-123.383
-81.3619
-38.482
4.89975
48.0856
90.7325
132.056
171.714
208.884
243.225
273.982
300.853
323.298
341.094
353.985
361.81
364.671
362.922
356.352
344.907
328.652
307.587
282.107
252.209
218.504
181.007
140.46
96.9042
51.1351
3.22176
-46.0482
-96.5875
-147.664
-199.193
-250.534
-301.641
-351.991
-401.294
-449.487
-496.257
-541.602
-585.282
-627.313
-667.503
-705.85
-742.137
-776.285
-808.053
-837.316
-863.873
-887.717
-908.86
-927.117
-942.002
-953.927
-962.954
-969.155
-972.674
-973.661
-972.288
-968.738
-963.206
-955.855
-946.866
-936.359
-924.479
-911.307
-896.974
-881.562
-865.215
-848.045
-830.219
-811.857
-793.081
-773.996
-754.823
-735.803
-717.039
-698.475
-680.022
-661.556
-642.88
-623.789
-604.006
-583.278
-561.328
-537.947
-512.95
-486.266
-457.885
-427.922
-396.559
-364.085
-330.84
-297.24
-263.721
-230.764
-198.84
-168.45
-140.065
-114.154
-91.1501
-71.4623
-55.4508
-43.4283
-35.6279
-32.2246
-33.2869
-38.7808
-48.5715
-62.4275
-80.0212
-100.966
-124.803
-151.028
-179.102
-208.485
-238.651
-269.114
-299.442
-329.273
-358.317
-386.363
-413.27
-438.959
-463.413
-486.652
-508.736
-529.74
-549.762
-568.894
-587.232
-604.867
-621.873
-638.309
-654.215
-669.607
-684.478
-698.803
-712.538
-725.626
-738.004
-749.604
-760.353
-770.175
-778.998
-786.752
-793.368
-798.779
-802.92
-805.727
-807.14
-807.096
-805.54
-802.415
-797.663
-791.235
-783.086
-773.177
-761.489
-748.008
-732.741
-715.718
-696.993
-676.64
-654.752
-631.44
-606.83
-581.095
-554.412
-526.991
-499.061
-470.878
-442.705
-414.821
-387.508
-361.041
-335.707
-311.765
-289.477
-269.082
-250.794
-234.81
-221.291
-210.368
-202.147
-196.686
-194.015
-194.128
-196.976
-202.475
-210.501
-220.905
-233.52
-248.147
-264.566
-282.552
-301.858
-322.23
-343.414
-365.163
-387.238
-409.401
-431.426
-453.092
-474.17
-494.406
-513.596
-531.56
-548.177
-468.961
-464.764
-458.183
-449.108
-437.416
-422.996
-405.699
-385.495
-362.292
-336.175
-307.159
-275.399
-241.026
-204.255
-165.371
-124.579
-82.3419
-39.2196
4.43055
47.9013
90.854
132.493
172.478
209.973
244.635
275.694
302.842
325.53
343.527
356.585
364.534
367.478
365.756
359.165
347.665
331.314
310.114
284.469
254.375
220.458
182.727
141.942
98.1392
52.1293
3.97717
-45.518
-96.2712
-147.542
-199.247
-250.741
-301.98
-352.445
-401.839
-450.105
-496.934
-542.327
-586.046
-628.115
-668.347
-706.746
-743.091
-777.302
-809.136
-838.481
-865.141
-889.097
-910.284
-928.493
-943.371
-955.293
-964.306
-970.477
-973.95
-974.876
-973.437
-969.817
-964.214
-956.798
-947.75
-937.19
-925.261
-912.041
-897.659
-882.192
-865.782
-848.541
-830.636
-812.192
-793.335
-774.176
-754.947
-735.894
-717.121
-698.579
-680.18
-661.799
-643.233
-624.266
-604.616
-584.019
-562.186
-538.894
-513.95
-487.277
-458.863
-428.821
-397.334
-364.697
-331.257
-297.434
-263.672
-230.455
-198.26
-167.593
-138.933
-112.755
-89.5007
-69.5853
-53.3786
-41.2017
-33.2958
-29.8425
-30.916
-36.4849
-46.4116
-60.4594
-78.2901
-99.5086
-123.644
-150.179
-178.561
-208.236
-238.666
-269.359
-299.876
-329.854
-359.002
-387.113
-414.049
-439.739
-464.169
-487.368
-509.399
-530.346
-550.307
-569.381
-587.666
-605.255
-622.224
-638.636
-654.529
-669.92
-684.802
-699.147
-712.909
-726.031
-738.446
-750.086
-760.876
-770.739
-779.603
-787.397
-794.054
-799.506
-803.686
-806.533
-807.986
-807.983
-806.467
-803.38
-798.667
-792.276
-784.161
-774.278
-762.607
-749.137
-733.873
-716.841
-698.097
-677.714
-655.785
-632.419
-607.743
-581.925
-555.146
-527.612
-499.557
-471.237
-442.916
-414.876
-387.4
-360.768
-335.268
-311.162
-288.715
-268.168
-249.741
-233.633
-220.007
-208.997
-200.712
-195.212
-192.527
-192.652
-195.538
-201.1
-209.209
-219.718
-232.454
-247.217
-263.782
-281.922
-301.384
-321.912
-343.249
-365.143
-387.355
-409.649
-431.802
-453.594
-474.802
-495.169
-514.498
-532.624
-549.467
-470.25
-466.127
-459.635
-450.655
-439.06
-424.735
-407.523
-387.384
-364.221
-338.118
-309.087
-277.281
-242.831
-205.944
-166.901
-125.904
-83.4283
-40.0387
3.90749
47.6923
90.9822
132.969
173.316
211.17
246.186
277.579
305.034
327.991
346.211
359.452
367.535
370.571
368.878
362.266
350.706
334.248
312.898
287.072
256.761
222.608
184.619
143.571
99.4959
53.2202
4.80475
-44.9388
-95.9279
-147.413
-199.312
-250.974
-302.358
-352.95
-402.442
-450.789
-497.682
-543.125
-586.887
-628.997
-669.273
-707.73
-744.141
-778.422
-810.331
-839.766
-866.535
-890.599
-911.835
-930.018
-944.891
-956.806
-965.801
-971.936
-975.356
-976.217
-974.704
-971.006
-965.326
-957.837
-948.721
-938.103
-926.121
-912.851
-898.414
-882.887
-866.407
-849.087
-831.096
-812.562
-793.614
-774.372
-755.081
-735.988
-717.205
-698.687
-680.348
-662.061
-643.615
-624.788
-605.289
-584.839
-563.135
-539.943
-515.058
-488.4
-459.949
-429.818
-398.196
-365.379
-331.724
-297.655
-263.623
-230.12
-197.625
-166.653
-137.689
-111.216
-87.6838
-67.5163
-51.0933
-38.7448
-30.7214
-27.212
-28.2975
-33.9492
-44.0267
-58.287
-76.3807
-97.9028
-122.369
-149.248
-177.971
-207.969
-238.693
-269.639
-300.365
-330.503
-359.765
-387.946
-414.913
-440.602
-465.005
-488.158
-510.131
-531.013
-550.906
-569.916
-588.141
-605.68
-622.608
-638.993
-654.871
-670.262
-685.155
-699.523
-713.315
-726.475
-738.932
-750.615
-761.45
-771.359
-780.268
-788.107
-794.808
-800.305
-804.53
-807.421
-808.917
-808.958
-807.486
-804.444
-799.773
-793.422
-785.342
-775.491
-763.841
-750.383
-735.12
-718.079
-699.314
-678.899
-656.926
-633.5
-608.75
-582.842
-555.956
-528.3
-500.108
-471.635
-443.151
-414.939
-387.285
-360.47
-334.786
-310.499
-287.876
-267.163
-248.582
-232.336
-218.591
-207.487
-199.131
-193.586
-190.886
-191.025
-193.953
-199.583
-207.786
-218.41
-231.28
-246.193
-262.92
-281.229
-300.864
-321.565
-343.069
-365.123
-387.485
-409.923
-432.214
-454.145
-475.493
-496.005
-515.483
-533.774
-550.839
-471.651
-467.61
-461.214
-452.34
-440.854
-426.636
-409.517
-389.453
-366.335
-340.247
-311.199
-279.344
-244.811
-207.799
-168.581
-127.361
-84.6233
-40.9413
3.32855
47.4568
91.1153
133.483
174.226
212.474
247.879
279.638
307.43
330.682
349.147
362.588
370.814
373.951
372.291
365.656
354.03
337.455
315.942
289.916
259.367
224.956
186.683
145.347
100.974
54.4073
5.70354
-44.3119
-95.5589
-147.278
-199.389
-251.234
-302.777
-353.506
-403.105
-451.538
-498.5
-543.998
-587.806
-629.958
-670.283
-708.802
-745.286
-779.646
-811.638
-841.17
-868.053
-892.227
-913.518
-931.696
-946.563
-958.467
-967.44
-973.535
-976.898
-977.686
-976.09
-972.305
-966.538
-958.969
-949.781
-939.1
-927.06
-913.735
-899.24
-883.647
-867.091
-849.686
-831.6
-812.967
-793.919
-774.585
-755.221
-736.084
-717.288
-698.798
-680.524
-662.339
-644.026
-625.354
-606.024
-585.737
-564.177
-541.095
-516.279
-489.638
-461.146
-430.919
-399.148
-366.134
-332.242
-297.903
-263.576
-229.758
-196.935
-165.631
-136.332
-109.536
-85.6988
-65.2541
-48.593
-36.0554
-27.9023
-24.3305
-25.4284
-31.1706
-41.4142
-55.9084
-74.2915
-96.1477
-120.979
-148.236
-177.334
-207.687
-238.732
-269.957
-300.91
-331.223
-360.609
-388.865
-415.864
-441.55
-465.922
-489.023
-510.931
-531.741
-551.56
-570.498
-588.658
-606.14
-623.025
-639.379
-655.242
-670.632
-685.539
-699.931
-713.758
-726.958
-739.461
-751.192
-762.077
-772.036
-780.994
-788.881
-795.631
-801.176
-805.449
-808.389
-809.934
-810.022
-808.597
-805.604
-800.981
-794.674
-786.634
-776.816
-765.19
-751.745
-736.484
-719.432
-700.646
-680.196
-658.173
-634.684
-609.854
-583.847
-556.845
-529.055
-500.712
-472.074
-443.412
-415.011
-387.161
-360.147
-334.262
-309.776
-286.96
-266.065
-247.315
-230.918
-217.044
-205.835
-197.401
-191.808
-189.092
-189.246
-192.219
-197.925
-206.23
-216.981
-229.998
-245.075
-261.978
-280.474
-300.299
-321.189
-342.877
-365.104
-387.631
-410.223
-432.664
-454.744
-476.244
-496.912
-516.548
-535.007
-552.29
-473.164
-469.21
-462.921
-454.163
-442.797
-428.697
-411.683
-391.702
-368.634
-342.564
-313.499
-281.591
-246.968
-209.822
-170.415
-128.951
-85.9297
-41.9298
2.69154
47.1926
91.2517
134.033
175.208
213.884
249.713
281.872
310.029
333.604
352.336
365.995
374.375
377.62
375.997
369.337
357.639
340.938
319.246
293.003
262.193
227.501
188.92
147.27
102.573
55.6896
6.67243
-43.6385
-95.1659
-147.139
-199.48
-251.525
-303.239
-354.116
-403.829
-452.355
-499.391
-544.947
-588.802
-630.998
-671.373
-709.961
-746.527
-780.973
-813.055
-842.692
-869.696
-893.981
-915.337
-933.528
-948.388
-960.281
-969.228
-975.276
-978.575
-979.282
-977.594
-973.712
-967.85
-960.193
-950.929
-940.179
-928.079
-914.695
-900.136
-884.473
-867.835
-850.338
-832.15
-813.407
-794.246
-774.81
-755.366
-736.18
-717.37
-698.908
-680.705
-662.633
-644.466
-625.966
-606.819
-586.712
-565.312
-542.355
-517.616
-490.992
-462.457
-432.127
-400.193
-366.964
-332.815
-298.18
-263.533
-229.372
-196.193
-164.525
-134.864
-107.715
-83.5447
-62.7974
-45.8759
-33.1312
-24.8356
-21.1947
-22.3052
-28.1458
-38.5712
-53.3213
-72.0209
-94.2426
-119.473
-147.144
-176.652
-207.393
-238.789
-270.316
-301.516
-332.019
-361.536
-389.872
-416.905
-442.584
-466.921
-489.964
-511.8
-532.53
-552.268
-571.127
-589.216
-606.636
-623.473
-639.794
-655.64
-671.03
-685.952
-700.371
-714.235
-727.481
-740.033
-751.817
-762.756
-772.768
-781.78
-789.721
-796.523
-802.12
-806.446
-809.437
-811.034
-811.175
-809.803
-806.862
-802.29
-796.031
-788.036
-778.253
-766.654
-753.223
-737.965
-720.903
-702.092
-681.604
-659.53
-635.971
-611.055
-584.942
-557.814
-529.879
-501.373
-472.555
-443.698
-415.092
-387.03
-359.799
-333.695
-308.993
-285.968
-264.874
-245.941
-229.38
-215.364
-204.04
-195.522
-189.876
-187.142
-187.312
-190.336
-196.124
-204.54
-215.43
-228.606
-243.861
-260.959
-279.657
-299.689
-320.785
-342.672
-365.089
-387.793
-410.551
-433.152
-455.391
-477.054
-497.891
-517.693
-536.322
-553.816
-474.787
-470.927
-464.754
-456.123
-444.889
-430.92
-414.022
-394.133
-371.12
-345.072
-315.988
-284.024
-249.307
-212.017
-172.406
-130.679
-87.3502
-43.007
1.99405
46.8977
91.3893
134.619
176.26
215.401
251.689
284.28
312.835
336.759
355.781
369.674
378.219
381.582
379.999
373.312
361.537
344.698
322.812
296.333
265.242
230.245
191.329
149.34
104.291
57.0663
7.71028
-42.92
-94.7503
-146.998
-199.587
-251.846
-303.745
-354.781
-404.616
-453.24
-500.355
-545.97
-589.875
-632.116
-672.545
-711.207
-747.863
-782.403
-814.582
-844.333
-871.464
-895.864
-917.294
-935.509
-950.366
-962.247
-971.164
-977.161
-980.388
-981.004
-979.215
-975.227
-969.263
-961.51
-952.163
-941.343
-929.176
-915.73
-901.104
-885.366
-868.641
-851.045
-832.743
-813.881
-794.598
-775.048
-755.517
-736.275
-717.449
-699.014
-680.888
-662.938
-644.934
-626.621
-607.676
-587.767
-566.545
-543.725
-519.07
-492.466
-463.888
-433.445
-401.334
-367.873
-333.443
-298.489
-263.495
-228.962
-195.398
-163.338
-133.285
-105.753
-81.2211
-60.145
-42.94
-29.9696
-21.5183
-17.8014
-18.9242
-24.8709
-35.4944
-50.5231
-69.567
-92.1863
-117.851
-145.973
-175.928
-207.09
-238.866
-270.72
-302.187
-332.892
-362.551
-390.97
-418.036
-443.708
-468.004
-490.982
-512.738
-533.382
-553.031
-571.804
-589.814
-607.168
-623.951
-640.236
-656.065
-671.455
-686.394
-700.843
-714.748
-728.043
-740.648
-752.49
-763.487
-773.558
-782.627
-790.625
-797.484
-803.138
-807.519
-810.566
-812.218
-812.417
-811.102