/*--------------------------------*- C++ -*----------------------------------*\
| =========                 |                                                 |
| \\      /  F ield         | OpenFOAM: The Open Source CFD Toolbox           |
|  \\    /   O peration     | Version:  3.0.1                                 |
|   \\  /    A nd           | Web:      www.OpenFOAM.org                      |
|    \\/     M anipulation  |                                                 |
\*---------------------------------------------------------------------------*/
FoamFile
{
    version     2.0;
    format      ascii;
    class       surfaceScalarField;
    location    "39.6";
    object      phi;
}
// * * * * * * * * * * * * * * * * * * * * * * * * * * * * * * * * * * * * * //

dimensions      [0 3 -1 0 0 0 0];

internalField   nonuniform List<scalar> 
42423
(
-0.000145406
-1.04939e-06
-0.000143653
-1.75358e-06
-0.000141258
-2.39493e-06
-0.000138207
-3.05123e-06
-0.000134391
-3.81607e-06
-0.000129943
-4.44772e-06
-0.00012462
-5.32252e-06
-0.000118588
-6.03269e-06
-0.000111869
-6.71857e-06
-0.000104234
-7.63567e-06
-9.56808e-05
-8.55278e-06
-8.63621e-05
-9.31873e-06
-7.60231e-05
-1.0339e-05
-6.4799e-05
-1.12241e-05
-5.25149e-05
-1.22841e-05
-3.92688e-05
-1.32462e-05
-2.53697e-05
-1.38991e-05
-1.05103e-05
-1.48594e-05
5.22912e-06
-1.57395e-05
2.15801e-05
-1.6351e-05
3.86768e-05
-1.70967e-05
5.64118e-05
-1.77351e-05
7.44225e-05
-1.80107e-05
9.28006e-05
-1.83781e-05
0.000111286
-1.84853e-05
0.00012971
-1.84242e-05
0.000147928
-1.8218e-05
0.000165546
-1.76184e-05
0.000182446
-1.68993e-05
0.000198459
-1.6013e-05
0.000213213
-1.47542e-05
0.000226554
-1.33408e-05
0.000238261
-1.17076e-05
0.0002481
-9.83896e-06
0.000255991
-7.89094e-06
0.000261697
-5.70635e-06
0.000265201
-3.50351e-06
0.000266459
-1.25794e-06
0.000265326
1.13227e-06
0.000261944
3.38196e-06
0.000256293
5.65125e-06
0.000248594
7.69864e-06
0.000239067
9.52729e-06
0.000227676
1.13911e-05
0.000214675
1.30012e-05
0.000200433
1.42416e-05
0.000184986
1.54472e-05
0.000168645
1.63406e-05
0.000151657
1.6988e-05
0.00013415
1.75072e-05
0.000116407
1.77427e-05
9.86153e-05
1.77919e-05
8.09937e-05
1.76216e-05
6.36612e-05
1.73325e-05
4.67844e-05
1.68767e-05
3.0449e-05
1.63354e-05
1.47368e-05
1.57123e-05
-2.71429e-07
1.50082e-05
-1.44699e-05
1.41985e-05
-2.78519e-05
1.3382e-05
-4.03566e-05
1.25047e-05
-5.20064e-05
1.16498e-05
-6.27659e-05
1.07595e-05
-7.26363e-05
9.87041e-06
-8.16694e-05
9.03309e-06
-8.98612e-05
8.19177e-06
-9.72092e-05
7.34803e-06
-0.00010381
6.6003e-06
-0.00010962
5.81089e-06
-0.000114769
5.14875e-06
-0.00011925
4.48092e-06
-0.000123089
3.83905e-06
-0.000126367
3.27762e-06
-0.000129121
2.75416e-06
-0.000131337
2.2164e-06
-0.000133108
1.77063e-06
-0.000134381
1.27334e-06
-0.000135119
7.37364e-07
-0.000135408
2.89061e-07
-0.000135077
-3.30612e-07
-0.000134105
-9.72231e-07
-0.000132502
-1.6033e-06
-0.000130188
-2.31341e-06
-0.000127053
-3.13489e-06
-0.000123102
-3.95087e-06
-0.000118207
-4.89544e-06
-0.000112371
-5.8361e-06
-0.000105423
-6.94771e-06
-9.73878e-05
-8.03549e-06
-8.80887e-05
-9.29902e-06
-7.7568e-05
-1.05207e-05
-6.5898e-05
-1.167e-05
-5.28794e-05
-1.30186e-05
-3.87865e-05
-1.40929e-05
-2.37376e-05
-1.50489e-05
-7.84664e-06
-1.5891e-05
8.74624e-06
-1.65929e-05
2.58631e-05
-1.71169e-05
4.32639e-05
-1.74009e-05
6.09123e-05
-1.76484e-05
7.86896e-05
-1.77773e-05
9.64697e-05
-1.77802e-05
0.000114159
-1.76889e-05
0.00013169
-1.75319e-05
0.000148924
-1.72336e-05
0.000165735
-1.68108e-05
0.000182002
-1.62675e-05
0.000197506
-1.55042e-05
0.000212066
-1.456e-05
0.000225502
-1.34356e-05
0.000237573
-1.20707e-05
0.000248068
-1.04954e-05
0.000256832
-8.76358e-06
0.000263692
-6.86055e-06
0.000268425
-4.73271e-06
0.00027097
-2.54563e-06
0.000271276
-3.05737e-07
0.000269246
2.03006e-06
0.00026482
4.4258e-06
0.000258137
6.68263e-06
0.000249198
8.93965e-06
0.000238213
1.09847e-05
0.000225314
1.28986e-05
0.000210686
1.46285e-05
0.000194572
1.61136e-05
0.000177246
1.73266e-05
0.000158939
1.83064e-05
0.000139945
1.89945e-05
0.000120425
1.95198e-05
0.000100752
1.96734e-05
8.11736e-05
1.95779e-05
6.17925e-05
1.93811e-05
4.29141e-05
1.88784e-05
2.47121e-05
1.82019e-05
7.341e-06
1.73712e-05
-9.14226e-06
1.64833e-05
-2.46357e-05
1.54934e-05
-3.90602e-05
1.44245e-05
-5.23641e-05
1.33039e-05
-6.45615e-05
1.21974e-05
-7.56131e-05
1.10516e-05
-8.55515e-05
9.93842e-06
-9.44175e-05
8.86596e-06
-0.000102241
7.82342e-06
-0.000108998
6.75729e-06
-0.00011481
5.81182e-06
-0.000119624
4.81415e-06
-0.000123538
3.91406e-06
-0.000126644
3.10546e-06
-0.000128898
2.2542e-06
-0.000130388
1.48976e-06
-0.000131234
8.46077e-07
-0.000131404
1.69928e-07
-0.000130917
-4.86625e-07
-0.000129877
-1.0398e-06
-0.000128189
-1.68808e-06
-0.000125884
-2.30482e-06
-0.000122986
-2.89849e-06
-0.000119626
-3.36016e-06
-0.000115655
-3.97089e-06
-0.00011108
-4.57512e-06
-0.000105835
-5.24463e-06
-0.000100066
-5.76952e-06
-9.35374e-05
-6.52823e-06
-8.63135e-05
-7.22382e-06
-7.84586e-05
-7.85496e-06
-6.9794e-05
-8.66461e-06
-6.03364e-05
-9.45764e-06
-5.01199e-05
-1.02165e-05
-3.90318e-05
-1.10882e-05
-2.70822e-05
-1.19496e-05
-1.42834e-05
-1.27988e-05
-6.51495e-07
-1.3632e-05
1.37331e-05
-1.43846e-05
2.88561e-05
-1.51231e-05
4.46237e-05
-1.57676e-05
6.09454e-05
-1.63217e-05
7.77232e-05
-1.67779e-05
9.47709e-05
-1.70478e-05
0.000111996
-1.72249e-05
0.000129154
-1.71582e-05
0.00014612
-1.69657e-05
0.000162658
-1.65384e-05
0.000178499
-1.58408e-05
0.000193438
-1.49393e-05
0.000207156
-1.37182e-05
0.000219418
-1.2262e-05
0.000229874
-1.04559e-05
0.000238311
-8.43715e-06
0.000244549
-6.23807e-06
0.000248378
-3.82929e-06
0.00024965
-1.27161e-06
0.000248364
1.28579e-06
0.000244435
3.92932e-06
0.000237991
6.44372e-06
0.000229123
8.86851e-06
0.000218037
1.10854e-05
0.00020492
1.31168e-05
0.000189994
1.49262e-05
0.000173517
1.6477e-05
0.000155779
1.77378e-05
0.000137092
1.8687e-05
0.000117738
1.93544e-05
9.80368e-05
1.9701e-05
7.82742e-05
1.97627e-05
5.87479e-05
1.95262e-05
3.96898e-05
1.90581e-05
2.12319e-05
1.8458e-05
3.60447e-06
1.76274e-05
-1.30857e-05
1.66901e-05
-2.87109e-05
1.56253e-05
-4.32361e-05
1.45252e-05
-5.66176e-05
1.33815e-05
-6.88403e-05
1.22227e-05
-7.98769e-05
1.10366e-05
-8.97705e-05
9.89365e-06
-9.85147e-05
8.74421e-06
-0.00010616
7.64498e-06
-0.000112713
6.55326e-06
-0.000118255
5.5421e-06
-0.000122938
4.68329e-06
-0.000126683
3.74448e-06
-0.000129683
3.00063e-06
-0.000131838
2.15495e-06
-0.00013326
1.42167e-06
-0.000134061
8.00603e-07
-0.000134184
1.23415e-07
-0.000133737
-4.47526e-07
-0.000132695
-1.04152e-06
-0.000131142
-1.55289e-06
-0.000129024
-2.11792e-06
-0.000126412
-2.61227e-06
-0.000123289
-3.12278e-06
-0.000119593
-3.69576e-06
-0.000115356
-4.23784e-06
-0.000110558
-4.79746e-06
-0.000105132
-5.42599e-06
-9.90824e-05
-6.04977e-06
-9.24187e-05
-6.66369e-06
-8.50099e-05
-7.40881e-06
-7.69303e-05
-8.07966e-06
-6.805e-05
-8.88025e-06
-5.83714e-05
-9.67864e-06
-4.78912e-05
-1.04803e-05
-3.65337e-05
-1.13575e-05
-2.43188e-05
-1.22149e-05
-1.12721e-05
-1.30468e-05
2.62157e-06
-1.38937e-05
1.73146e-05
-1.4693e-05
3.27048e-05
-1.53903e-05
4.87502e-05
-1.60454e-05
6.52461e-05
-1.64959e-05
8.20481e-05
-1.6802e-05
9.89847e-05
-1.69367e-05
0.000115875
-1.68899e-05
0.000132436
-1.65618e-05
0.000148459
-1.60227e-05
0.000163615
-1.51557e-05
0.000177637
-1.40222e-05
0.000190211
-1.25739e-05
0.000201
-1.07888e-05
0.000209757
-8.7574e-06
0.000216292
-6.53528e-06
0.000220359
-4.06636e-06
0.000221803
-1.44437e-06
0.000220653
1.15036e-06
0.000217013
3.63909e-06
0.000211016
5.99716e-06
0.000202844
8.17195e-06
0.000192881
9.96338e-06
0.00018146
1.14207e-05
0.000168826
1.26338e-05
0.00015528
1.35462e-05
0.000141116
1.41642e-05
0.000126487
1.46292e-05
0.000111684
1.48031e-05
9.67587e-05
1.4925e-05
8.18342e-05
1.49245e-05
6.70184e-05
1.48158e-05
5.24847e-05
1.45337e-05
3.82474e-05
1.42373e-05
2.45275e-05
1.37199e-05
1.1177e-05
1.33505e-05
-1.68324e-06
1.28602e-05
-1.44476e-05
1.27643e-05
-2.68586e-05
1.2411e-05
-3.88218e-05
1.19633e-05
-5.01798e-05
1.1358e-05
-6.09132e-05
1.07333e-05
-7.08934e-05
9.98023e-06
-8.01004e-05
9.20698e-06
-8.85017e-05
8.40136e-06
-9.60469e-05
7.54523e-06
-0.000102765
6.7178e-06
-0.00010865
5.88525e-06
-0.000113719
5.06891e-06
-0.00011803
4.31081e-06
-0.000121598
3.56798e-06
-0.000124456
2.85864e-06
-0.000126681
2.22466e-06
-0.000128254
1.57311e-06
-0.000129287
1.03258e-06
-0.00012977
4.82992e-07
-0.000129575
-1.94563e-07
-0.000128754
-8.21039e-07
-0.000127323
-1.43125e-06
-0.000125231
-2.09218e-06
-0.000122418
-2.81302e-06
-0.000118851
-3.56661e-06
-0.000114534
-4.31734e-06
-0.000109391
-5.14299e-06
-0.000103245
-6.14602e-06
-9.60661e-05
-7.1787e-06
-8.79026e-05
-8.16343e-06
-7.84608e-05
-9.44182e-06
-6.80442e-05
-1.04167e-05
-5.64111e-05
-1.16331e-05
-4.37027e-05
-1.27084e-05
-3.01281e-05
-1.35746e-05
-1.54836e-05
-1.46445e-05
1.62203e-07
-1.56459e-05
1.64184e-05
-1.62562e-05
3.34126e-05
-1.69942e-05
5.08528e-05
-1.74403e-05
6.87501e-05
-1.78973e-05
8.68853e-05
-1.81353e-05
0.000104928
-1.80424e-05
0.000122771
-1.78429e-05
0.000140252
-1.74818e-05
0.000157037
-1.6785e-05
0.000172978
-1.59411e-05
0.000187889
-1.49107e-05
0.000201501
-1.36118e-05
0.000213673
-1.21721e-05
0.000224236
-1.05628e-05
0.000233003
-8.76775e-06
0.000239858
-6.85469e-06
0.000244693
-4.83457e-06
0.000247426
-2.73352e-06
0.000248048
-6.21905e-07
0.00024644
1.60787e-06
0.000242663
3.77689e-06
0.000236776
5.88731e-06
0.000228981
7.79457e-06
0.000219342
9.63964e-06
0.000207902
1.14398e-05
0.000194976
1.29256e-05
0.000180722
1.42539e-05
0.000165233
1.54895e-05
0.000148817
1.64153e-05
0.000131596
1.72218e-05
0.000113907
1.7689e-05
9.58055e-05
1.8101e-05
7.74457e-05
1.83598e-05
5.92058e-05
1.82399e-05
4.10815e-05
1.81243e-05
1.77302e-05
-0.000145436
-2.09495e-06
-0.000143685
-3.50517e-06
-0.000141292
-4.78734e-06
-0.000138245
-6.09868e-06
-0.000134429
-7.63205e-06
-0.000129985
-8.89184e-06
-0.000124663
-1.06441e-05
-0.000118632
-1.20639e-05
-0.00011191
-1.34411e-05
-0.000104274
-1.5271e-05
-9.57285e-05
-1.70987e-05
-8.64063e-05
-1.8641e-05
-7.60697e-05
-2.06757e-05
-6.48477e-05
-2.24462e-05
-5.25586e-05
-2.45732e-05
-3.93085e-05
-2.64963e-05
-2.54082e-05
-2.77995e-05
-1.05446e-05
-2.9723e-05
5.20157e-06
-3.14858e-05
2.15571e-05
-3.27067e-05
3.86529e-05
-3.41925e-05
5.6395e-05
-3.54773e-05
7.44211e-05
-3.60368e-05
9.28069e-05
-3.6764e-05
0.000111296
-3.69742e-05
0.000129729
-3.68575e-05
0.000147957
-3.64465e-05
0.000165588
-3.52494e-05
0.000182498
-3.38094e-05
0.000198523
-3.20379e-05
0.000213288
-2.95193e-05
0.000226642
-2.66946e-05
0.000238358
-2.34242e-05
0.000248214
-1.96949e-05
0.000256118
-1.57946e-05
0.00026182
-1.14088e-05
0.000265321
-7.00468e-06
0.000266582
-2.51859e-06
0.000265441
2.27243e-06
0.000262054
6.76931e-06
0.000256405
1.13e-05
0.000248699
1.54049e-05
0.000239163
1.90632e-05
0.000227767
2.27876e-05
0.000214754
2.60133e-05
0.000200501
2.84949e-05
0.000185043
3.0905e-05
0.000168691
3.26929e-05
0.000151692
3.39872e-05
0.000134176
3.50234e-05
0.000116426
3.54924e-05
9.86261e-05
3.55915e-05
8.0998e-05
3.52498e-05
6.36627e-05
3.46678e-05
4.67708e-05
3.37685e-05
3.04293e-05
3.26769e-05
1.47166e-05
3.14249e-05
-2.94969e-07
3.00198e-05
-1.44958e-05
2.83993e-05
-2.78799e-05
2.67661e-05
-4.03863e-05
2.50111e-05
-5.20381e-05
2.33016e-05
-6.27983e-05
2.15198e-05
-7.26698e-05
1.97418e-05
-8.17043e-05
1.80676e-05
-8.98968e-05
1.63843e-05
-9.72443e-05
1.46956e-05
-0.000103845
1.32007e-05
-0.000109654
1.16207e-05
-0.000114801
1.02948e-05
-0.00011928
8.96036e-06
-0.000123116
7.67497e-06
-0.000126389
6.55024e-06
-0.000129139
5.50491e-06
-0.00013135
4.42758e-06
-0.000133116
3.53589e-06
-0.000134378
2.53582e-06
-0.00013511
1.46884e-06
-0.0001354
5.79699e-07
-0.000135063
-6.68049e-07
-0.000134078
-1.95667e-06
-0.000132467
-3.2148e-06
-0.000130146
-4.63439e-06
-0.000127001
-6.27978e-06
-0.000123043
-7.90863e-06
-0.000118141
-9.79773e-06
-0.000112302
-1.16748e-05
-0.000105356
-1.38937e-05
-9.73271e-05
-1.60649e-05
-8.80356e-05
-1.85906e-05
-7.7523e-05
-2.10333e-05
-6.58604e-05
-2.33327e-05
-5.28719e-05
-2.60072e-05
-3.87697e-05
-2.81952e-05
-2.37226e-05
-3.00961e-05
-7.83449e-06
-3.17792e-05
8.74548e-06
-3.31729e-05
2.58587e-05
-3.42302e-05
4.32544e-05
-3.47966e-05
6.09094e-05
-3.53035e-05
7.86873e-05
-3.55553e-05
9.64627e-05
-3.55557e-05
0.000114151
-3.53775e-05
0.000131704
-3.50852e-05
0.00014893
-3.4459e-05
0.000165755
-3.36361e-05
0.000182029
-3.25413e-05
0.00019755
-3.10259e-05
0.000212132
-2.91413e-05
0.000225587
-2.68909e-05
0.000237666
-2.41501e-05
0.000248174
-2.10038e-05
0.000256946
-1.75352e-05
0.000263815
-1.37301e-05
0.000268565
-9.4828e-06
0.000271112
-5.09188e-06
0.000271409
-6.02959e-07
0.000269374
4.0646e-06
0.000264946
8.85432e-06
0.000258258
1.33703e-05
0.000249311
1.78866e-05
0.000238308
2.19877e-05
0.000225396
2.58107e-05
0.00021076
2.92639e-05
0.000194624
3.22499e-05
0.000177275
3.46752e-05
0.000158952
3.66298e-05
0.00013995
3.79968e-05
0.000120401
3.90688e-05
0.000100712
3.93617e-05
8.11253e-05
3.9165e-05
6.17258e-05
3.87806e-05
4.28429e-05
3.77613e-05
2.46371e-05
3.64077e-05
7.23803e-06
3.47702e-05
-9.25602e-06
3.29773e-05
-2.47493e-05
3.09867e-05
-3.91729e-05
2.88482e-05
-5.24929e-05
2.66239e-05
-6.46856e-05
2.43901e-05
-7.57344e-05
2.21004e-05
-8.56842e-05
1.98883e-05
-9.45337e-05
1.77154e-05
-0.000102366
1.56559e-05
-0.000109121
1.35122e-05
-0.000114918
1.16089e-05
-0.000119757
9.65284e-06
-0.000123668
7.82493e-06
-0.000126756
6.1933e-06
-0.000129015
4.51403e-06
-0.000130512
2.98632e-06
-0.000131347
1.68102e-06
-0.000131522
3.4532e-07
-0.000131057
-9.51493e-07
-0.000129992
-2.10541e-06
-0.000128297
-3.3833e-06
-0.00012597
-4.63096e-06
-0.00012311
-5.75922e-06
-0.000119752
-6.71801e-06
-0.000115775
-7.94772e-06
-0.000111208
-9.14268e-06
-0.000105951
-1.05009e-05
-0.000100173
-1.15481e-05
-9.36477e-05
-1.30532e-05
-8.6442e-05
-1.44296e-05
-7.85606e-05
-1.57365e-05
-6.98943e-05
-1.73309e-05
-6.04416e-05
-1.89103e-05
-5.02089e-05
-2.04492e-05
-3.91291e-05
-2.2168e-05
-2.71758e-05
-2.3903e-05
-1.43733e-05
-2.56013e-05
-7.31669e-07
-2.72737e-05
1.36628e-05
-2.87791e-05
2.88003e-05
-3.02607e-05
4.45765e-05
-3.15439e-05
6.09124e-05
-3.26577e-05
7.76924e-05
-3.35579e-05
9.47574e-05
-3.41129e-05
0.000111987
-3.44543e-05
0.000129158
-3.43293e-05
0.000146134
-3.39421e-05
0.000162691
-3.30951e-05
0.00017855
-3.16999e-05
0.000193509
-2.98989e-05
0.000207245
-2.74542e-05
0.00021953
-2.45472e-05
0.000229993
-2.09193e-05
0.000238441
-1.68846e-05
0.000244687
-1.24844e-05
0.000248514
-7.65682e-06
0.000249793
-2.54999e-06
0.000248495
2.58359e-06
0.000244556
7.86871e-06
0.000238107
1.28925e-05
0.000229232
1.7743e-05
0.00021814
2.21771e-05
0.000205
2.62574e-05
0.000190047
2.98786e-05
0.000173549
3.29749e-05
0.000155798
3.54889e-05
0.000137126
3.73595e-05
0.000117724
3.87564e-05
9.80008e-05
3.94238e-05
7.82243e-05
3.95392e-05
5.86768e-05
3.90737e-05
3.95816e-05
3.81533e-05
2.11353e-05
3.69042e-05
3.4907e-06
3.5272e-05
-1.31935e-05
3.33744e-05
-2.88263e-05
3.1258e-05
-4.33498e-05
2.90488e-05
-5.67378e-05
2.67695e-05
-6.89656e-05
2.44504e-05
-8.00122e-05
2.20832e-05
-8.98977e-05
1.97791e-05
-9.8636e-05
1.74825e-05
-0.000106281
1.52899e-05
-0.00011284
1.31125e-05
-0.000118381
1.10825e-05
-0.000123059
9.36186e-06
-0.000126804
7.48906e-06
-0.0001298
5.99724e-06
-0.000131962
4.31714e-06
-0.000133359
2.81811e-06
-0.000134175
1.61626e-06
-0.000134285
2.3426e-07
-0.000133847
-8.85822e-07
-0.000132805
-2.08358e-06
-0.000131247
-3.11136e-06
-0.000129124
-4.24097e-06
-0.000126523
-5.21315e-06
-0.000123404
-6.24189e-06
-0.000119704
-7.39578e-06
-0.000115472
-8.46968e-06
-0.00011066
-9.60888e-06
-0.000105247
-1.08398e-05
-9.91638e-05
-1.21326e-05
-9.25237e-05
-1.33038e-05
-8.51255e-05
-1.4807e-05
-7.70314e-05
-1.61738e-05
-6.81526e-05
-1.7759e-05
-5.84773e-05
-1.9354e-05
-4.79853e-05
-2.09723e-05
-3.66418e-05
-2.2701e-05
-2.44204e-05
-2.44363e-05
-1.13523e-05
-2.61149e-05
2.55456e-06
-2.78006e-05
1.72535e-05
-2.9392e-05
3.26542e-05
-3.0791e-05
4.87149e-05
-3.21061e-05
6.52192e-05
-3.30003e-05
8.20347e-05
-3.36175e-05
9.89895e-05
-3.38916e-05
0.000115893
-3.37937e-05
0.000132464
-3.31328e-05
0.000148501
-3.20594e-05
0.000163673
-3.03276e-05
0.000177718
-2.80672e-05
0.000190301
-2.51572e-05
0.000201121
-2.16095e-05
0.000209891
-1.7527e-05
0.000216431
-1.30748e-05
0.000220498
-8.13419e-06
0.000221955
-2.90073e-06
0.000220791
2.31359e-06
0.000217144
7.28657e-06
0.000211149
1.19921e-05
0.000202963
1.63583e-05
0.000192984
1.99419e-05
0.000181542
2.28625e-05
0.000168891
2.52849e-05
0.000155323
2.7114e-05
0.000141133
2.83538e-05
0.000126484
2.92788e-05
0.000111663
2.96242e-05
9.67182e-05
2.98696e-05
8.17747e-05
2.98679e-05
6.69481e-05
2.96423e-05
5.24024e-05
2.90794e-05
3.81599e-05
2.84797e-05
2.44329e-05
2.74469e-05
1.10826e-05
2.67008e-05
-1.7886e-06
2.57314e-05
-1.45454e-05
2.55211e-05
-2.69538e-05
2.48194e-05
-3.89132e-05
2.39227e-05
-5.02664e-05
2.27112e-05
-6.09955e-05
2.14624e-05
-7.09716e-05
1.99563e-05
-8.01734e-05
1.84087e-05
-8.85702e-05
1.67982e-05
-9.61111e-05
1.50861e-05
-0.000102825
1.34314e-05
-0.000108708
1.17687e-05
-0.000113774
1.01347e-05
-0.000118082
8.61883e-06
-0.000121652
7.13757e-06
-0.000124511
5.71821e-06
-0.000126732
4.44548e-06
-0.000128306
3.14721e-06
-0.000129349
2.07558e-06
-0.000129832
9.65695e-07
-0.000129634
-3.9203e-07
-0.000128804
-1.65123e-06
-0.000127382
-2.85346e-06
-0.000125259
-4.21493e-06
-0.000122467
-5.60479e-06
-0.000118901
-7.13281e-06
-0.00011458
-8.63899e-06
-0.000109436
-1.02862e-05
-0.000103274
-1.23085e-05
-9.61284e-05
-1.43243e-05
-8.79664e-05
-1.63255e-05
-7.85346e-05
-1.88736e-05
-6.81077e-05
-2.08437e-05
-5.64689e-05
-2.32719e-05
-4.37539e-05
-2.54235e-05
-3.01757e-05
-2.71528e-05
-1.55164e-05
-2.93038e-05
1.16279e-07
-3.12786e-05
1.6371e-05
-3.2511e-05
3.33673e-05
-3.39905e-05
5.08197e-05
-3.48927e-05
6.87304e-05
-3.5808e-05
8.68748e-05
-3.62798e-05
0.000104927
-3.60951e-05
0.000122782
-3.56977e-05
0.000140275
-3.49752e-05
0.000157073
-3.35827e-05
0.000173026
-3.18937e-05
0.000187945
-2.98305e-05
0.000201567
-2.72338e-05
0.000213749
-2.43536e-05
0.000224321
-2.11349e-05
0.000233097
-1.75445e-05
0.000239958
-1.37158e-05
0.000244799
-9.67513e-06
0.000247537
-5.47133e-06
0.000248161
-1.24591e-06
0.000246542
3.22652e-06
0.000242764
7.5553e-06
0.000236874
1.17772e-05
0.000229075
1.55926e-05
0.000219429
1.92859e-05
0.000207981
2.28884e-05
0.000195046
2.58603e-05
0.000180782
2.85172e-05
0.000165283
3.09888e-05
0.000148858
3.28406e-05
0.000131626
3.44538e-05
0.000113927
3.53877e-05
9.58161e-05
3.62117e-05
7.74481e-05
3.67278e-05
5.91987e-05
3.64892e-05
4.10668e-05
3.62562e-05
3.54684e-05
-0.000145488
-3.14108e-06
-0.000143737
-5.25669e-06
-0.000141345
-7.17928e-06
-0.0001383
-9.14335e-06
-0.000134483
-1.14491e-05
-0.000130043
-1.33321e-05
-0.000124725
-1.59625e-05
-0.000118697
-1.80914e-05
-0.000111969
-2.01695e-05
-0.000104337
-2.29031e-05
-9.58015e-05
-2.56338e-05
-8.64593e-05
-2.79832e-05
-7.61205e-05
-3.10145e-05
-6.48919e-05
-3.36748e-05
-5.26331e-05
-3.6832e-05
-3.93708e-05
-3.97587e-05
-2.54681e-05
-4.17023e-05
-1.06091e-05
-4.4582e-05
5.15794e-06
-4.72529e-05
2.15226e-05
-4.90714e-05
3.86338e-05
-5.13038e-05
5.63872e-05
-5.32307e-05
7.44171e-05
-5.40668e-05
9.2812e-05
-5.5159e-05
0.000111324
-5.54863e-05
0.000129779
-5.53121e-05
0.000148025
-5.46934e-05
0.000165677
-5.29005e-05
0.000182604
-5.07373e-05
0.000198649
-4.80823e-05
0.000213428
-4.4299e-05
0.000226798
-4.00642e-05
0.000238524
-3.51499e-05
0.000248394
-2.95652e-05
0.000256306
-2.37071e-05
0.000262017
-1.71198e-05
0.00026553
-1.05176e-05
0.000266791
-3.77917e-06
0.000265625
3.43787e-06
0.000262216
1.01789e-05
0.000256571
1.69446e-05
0.000248854
2.31217e-05
0.0002393
2.86177e-05
0.000227894
3.41932e-05
0.000214865
3.90421e-05
0.000200588
4.27715e-05
0.000185111
4.63823e-05
0.000168737
4.90668e-05
0.000151717
5.10068e-05
0.000134186
5.25549e-05
0.000116425
5.32529e-05
9.86151e-05
5.34018e-05
8.09774e-05
5.28875e-05
6.36422e-05
5.20029e-05
4.67261e-05
5.06847e-05
3.03778e-05
4.90252e-05
1.46611e-05
4.71415e-05
-3.53891e-07
4.50348e-05
-1.45575e-05
4.26029e-05
-2.7944e-05
4.01526e-05
-4.04506e-05
3.75177e-05
-5.21018e-05
3.49528e-05
-6.28606e-05
3.22786e-05
-7.27281e-05
2.96093e-05
-8.17597e-05
2.70992e-05
-8.99474e-05
2.4572e-05
-9.72909e-05
2.20391e-05
-0.000103888
1.97978e-05
-0.000109695
1.74272e-05
-0.000114836
1.54361e-05
-0.000119307
1.34314e-05
-0.000123131
1.14989e-05
-0.000126394
9.81349e-06
-0.000129132
8.24281e-06
-0.000131325
6.6209e-06
-0.00013308
5.29073e-06
-0.000134333
3.78874e-06
-0.000135058
2.19394e-06
-0.000135348
8.69863e-07
-0.000135008
-1.00849e-06
-0.000134014
-2.95021e-06
-0.000132389
-4.84025e-06
-0.000130054
-6.96886e-06
-0.000126895
-9.43901e-06
-0.00012293
-1.1874e-05
-0.00011802
-1.47079e-05
-0.00011217
-1.75248e-05
-0.000105226
-2.08371e-05
-9.72027e-05
-2.40886e-05
-8.79216e-05
-2.78717e-05
-7.7428e-05
-3.1527e-05
-6.57887e-05
-3.4972e-05
-5.28355e-05
-3.89604e-05
-3.87289e-05
-4.23018e-05
-2.37036e-05
-4.51215e-05
-7.81914e-06
-4.76637e-05
8.74659e-06
-4.97387e-05
2.58543e-05
-5.1338e-05
4.32311e-05
-5.21735e-05
6.08754e-05
-5.29478e-05
7.86399e-05
-5.33199e-05
9.64439e-05
-5.33598e-05
0.000114115
-5.30488e-05
0.000131659
-5.26287e-05
0.000148899
-5.16992e-05
0.00016573
-5.04671e-05
0.000182
-4.88122e-05
0.000197555
-4.65802e-05
0.000212156
-4.3743e-05
0.000225641
-4.03753e-05
0.000237741
-3.62511e-05
0.000248273
-3.15355e-05
0.000257055
-2.63177e-05
0.000263912
-2.05865e-05
0.000268682
-1.42532e-05
0.000271249
-7.65828e-06
0.000271538
-8.92709e-07
0.000269495
6.10751e-06
0.000265058
1.3292e-05
0.000258342
2.00861e-05
0.00024941
2.68183e-05
0.000238389
3.30085e-05
0.00022545
3.87499e-05
0.0002108
4.39139e-05
0.000194653
4.83964e-05
0.000177284
5.20448e-05
0.000158926
5.49874e-05
0.000139858
5.70642e-05
0.00012033
5.85967e-05
0.000100621
5.90714e-05
8.09737e-05
5.88121e-05
6.16023e-05
5.8152e-05
4.27051e-05
5.66584e-05
2.45413e-05
5.45716e-05
7.07223e-06
5.22392e-05
-9.42638e-06
4.94759e-05
-2.49176e-05
4.6478e-05
-3.93372e-05
4.32677e-05
-5.2671e-05
3.99576e-05
-6.48638e-05
3.65829e-05
-7.58925e-05
3.31291e-05
-8.5857e-05
2.98529e-05
-9.46606e-05
2.6519e-05
-0.000102533
2.35279e-05
-0.000109297
2.02766e-05
-0.000115052
1.73635e-05
-0.00011992
1.45216e-05
-0.000123836
1.17401e-05
-0.000126871
9.22926e-06
-0.000129176
6.81858e-06
-0.000130672
4.48231e-06
-0.000131476
2.4849e-06
-0.000131674
5.43388e-07
-0.000131222
-1.40305e-06
-0.000130139
-3.18925e-06
-0.000128437
-5.08448e-06
-0.000126079
-6.98915e-06
-0.000123309
-8.5296e-06
-0.000119905
-1.0122e-05
-0.000115937
-1.19152e-05
-0.000111363
-1.37168e-05
-0.000106103
-1.57617e-05
-0.000100328
-1.7323e-05
-9.37969e-05
-1.95841e-05
-8.66069e-05
-2.16197e-05
-7.8704e-05
-2.36394e-05
-7.00412e-05
-2.59938e-05
-6.05901e-05
-2.83614e-05
-5.03267e-05
-3.07127e-05
-3.928e-05
-3.32148e-05
-2.73209e-05
-3.58621e-05
-1.45141e-05
-3.84081e-05
-8.60323e-07
-4.09276e-05
1.35591e-05
-4.31986e-05
2.86917e-05
-4.53934e-05
4.44635e-05
-4.73158e-05
6.08421e-05
-4.90363e-05
7.75884e-05
-5.03043e-05
9.47048e-05
-5.12294e-05
0.000111918
-5.16677e-05
0.000129107
-5.15185e-05
0.000146101
-5.09358e-05
0.000162689
-4.96835e-05
0.000178578
-4.75885e-05
0.000193553
-4.48744e-05
0.000207306
-4.12074e-05
0.000219588
-3.68288e-05
0.000230103
-3.14349e-05
0.000238581
-2.53621e-05
0.000244829
-1.87323e-05
0.000248636
-1.14639e-05
0.000249932
-3.84676e-06
0.000248633
3.88288e-06
0.000244675
1.18263e-05
0.000238223
1.93451e-05
0.000229336
2.66296e-05
0.000218252
3.32613e-05
0.000205096
3.94133e-05
0.000190095
4.48795e-05
0.000173573
4.94963e-05
0.000155798
5.32638e-05
0.000137107
5.60505e-05
0.000117671
5.81931e-05
9.79258e-05
5.91687e-05
7.81227e-05
5.93422e-05
5.85487e-05
5.86478e-05
3.94426e-05
5.72594e-05
2.09827e-05
5.53642e-05
3.31874e-06
5.29359e-05
-1.33645e-05
5.00576e-05
-2.89893e-05
4.68828e-05
-4.35091e-05
4.35686e-05
-5.69055e-05
4.01659e-05
-6.91333e-05
3.66782e-05
-8.01846e-05
3.31346e-05
-9.00782e-05
2.96727e-05
-9.88215e-05
2.62258e-05
-0.000106461
2.29299e-05
-0.00011302
1.96711e-05
-0.000118553
1.6615e-05
-0.000123221
1.40304e-05
-0.00012696
1.12277e-05
-0.000129944
8.98175e-06
-0.000132115
6.48844e-06
-0.000133514
4.21646e-06
-0.000134315
2.41767e-06
-0.000134379
2.98272e-07
-0.000133989
-1.27573e-06
-0.000132939
-3.13395e-06
-0.000131368
-4.68234e-06
-0.000129245
-6.36356e-06
-0.000126646
-7.81293e-06
-0.000123538
-9.34984e-06
-0.000119853
-1.10801e-05
-0.000115632
-1.26913e-05
-0.000110775
-1.44656e-05
-0.000105394
-1.62205e-05
-9.92819e-05
-1.8245e-05
-9.26687e-05
-1.99169e-05
-8.52783e-05
-2.21975e-05
-7.71734e-05
-2.42787e-05
-6.82946e-05
-2.66379e-05
-5.86122e-05
-2.90364e-05
-4.81323e-05
-3.14523e-05
-3.67862e-05
-3.40471e-05
-2.45675e-05
-3.6655e-05
-1.14963e-05
-3.91862e-05
2.42123e-06
-4.17181e-05
1.71298e-05
-4.41006e-05
3.2536e-05
-4.61973e-05
4.85921e-05
-4.81623e-05
6.51242e-05
-4.95324e-05
8.19529e-05
-5.04463e-05
9.89207e-05
-5.08595e-05
0.00011584
-5.07135e-05
0.000132437
-4.9729e-05
0.000148507
-4.813e-05
0.000163705
-4.55258e-05
0.000177776
-4.21381e-05
0.000190377
-3.77578e-05
0.00020125
-3.24828e-05
0.000210029
-2.63061e-05
0.000216598
-1.96433e-05
0.000220641
-1.21781e-05
0.000222125
-4.3845e-06
0.00022096
3.47883e-06
0.000217324
1.09226e-05
0.000211339
1.79771e-05
0.000203148
2.45489e-05
0.00019316
2.99299e-05
0.00018169
3.43327e-05
0.00016901
3.79651e-05
0.000155414
4.07094e-05
0.000141186
4.25824e-05
0.000126494
4.39699e-05
0.00011164
4.44785e-05
9.66643e-05
4.48454e-05
8.16863e-05
4.48459e-05
6.68375e-05
4.44911e-05
5.22691e-05
4.36478e-05
3.80137e-05
4.27351e-05
2.42733e-05
4.11873e-05
1.09231e-05
4.00511e-05
-1.96135e-06
3.86159e-05
-1.47084e-05
3.82681e-05
-2.71106e-05
3.72217e-05
-3.90649e-05
3.5877e-05
-5.04103e-05
3.40566e-05
-6.11316e-05
3.21836e-05
-7.10987e-05
2.99235e-05
-8.02907e-05
2.76007e-05
-8.86782e-05
2.51857e-05
-9.62121e-05
2.26201e-05
-0.00010292
2.01388e-05
-0.000108798
1.7647e-05
-0.000113861
1.51983e-05
-0.000118166
1.29234e-05
-0.00012173
1.07014e-05
-0.00012459
8.57859e-06
-0.000126812
6.66702e-06
-0.000128383
4.71865e-06
-0.000129419
3.11105e-06
-0.000129889
1.43608e-06
-0.000129691
-5.90239e-07
-0.000128858
-2.48362e-06
-0.000127434
-4.2782e-06
-0.000125286
-6.36228e-06
-0.000122527
-8.36411e-06
-0.000118965
-1.0695e-05
-0.00011464
-1.29642e-05
-0.0001095
-1.54261e-05
-0.000103327
-1.84816e-05
-9.62191e-05
-2.1432e-05
-8.80618e-05
-2.44828e-05
-7.86592e-05
-2.82762e-05
-6.82037e-05
-3.12992e-05
-5.65606e-05
-3.4915e-05
-4.38383e-05
-3.81458e-05
-3.02549e-05
-4.07363e-05
-1.55814e-05
-4.39773e-05
4.28187e-08
-4.69029e-05
1.63041e-05
-4.87723e-05
3.33149e-05
-5.10014e-05
5.07812e-05
-5.23591e-05
6.87058e-05
-5.37327e-05
8.68658e-05
-5.44398e-05
0.000104935
-5.41648e-05
0.000122814
-5.35761e-05
0.000140328
-5.24894e-05
0.000157144
-5.03986e-05
0.000173118
-4.78679e-05
0.000188059
-4.47716e-05
0.0002017
-4.08749e-05
0.000213898
-3.6551e-05
0.000224483
-3.17199e-05
0.000233274
-2.63357e-05
0.000240144
-2.05866e-05
0.000244994
-1.4525e-05
0.000247737
-8.21434e-06
0.000248353
-1.86125e-06
0.000246704
4.87543e-06
0.000242921
1.1338e-05
0.000237024
1.76735e-05
0.000229219
2.33975e-05
0.000219562
2.89434e-05
0.0002081
3.43504e-05
0.000195151
3.88096e-05
0.000180872
4.27955e-05
0.000165358
4.65033e-05
0.000148916
4.92819e-05
0.000131669
5.17015e-05
0.000113954
5.3102e-05
9.58284e-05
5.43375e-05
7.74476e-05
5.51086e-05
5.91815e-05
5.47553e-05
4.10363e-05
5.44013e-05
5.32217e-05
-0.000145566
-4.18784e-06
-0.000143815
-7.00824e-06
-0.000141423
-9.57063e-06
-0.000138383
-1.21834e-05
-0.000134565
-1.52677e-05
-0.00013013
-1.77668e-05
-0.000124816
-2.1276e-05
-0.000118795
-2.41129e-05
-0.000112057
-2.69073e-05
-0.000104431
-3.05296e-05
-9.59121e-05
-3.41524e-05
-8.65471e-05
-3.73483e-05
-7.61998e-05
-4.13619e-05
-6.49675e-05
-4.49071e-05
-5.27463e-05
-4.90532e-05
-3.94669e-05
-5.30381e-05
-2.55588e-05
-5.56104e-05
-1.07071e-05
-5.94338e-05
5.0959e-06
-6.30559e-05
2.14788e-05
-6.54543e-05
3.86056e-05
-6.84306e-05
5.63687e-05
-7.09939e-05
7.44158e-05
-7.2114e-05
9.28297e-05
-7.35729e-05
0.000111368
-7.40245e-05
0.000129845
-7.37896e-05
0.000148116
-7.29643e-05
0.000165798
-7.05825e-05
0.000182752
-6.76916e-05
0.000198825
-6.4155e-05
0.00021363
-5.91044e-05
0.000227031
-5.34652e-05
0.000238779
-4.68977e-05
0.000248683
-3.94693e-05
0.000256602
-3.16263e-05
0.000262314
-2.28319e-05
0.000265834
-1.40376e-05
0.000267084
-5.02933e-06
0.000265908
4.61383e-06
0.000262462
1.36242e-05
0.00025682
2.25872e-05
0.000249089
3.08529e-05
0.000239504
3.8202e-05
0.000228084
4.5613e-05
0.000215033
5.20934e-05
0.000200719
5.70851e-05
0.000185213
6.18883e-05
0.000168808
6.54719e-05
0.000151759
6.80558e-05
0.000134204
7.01098e-05
0.000116426
7.10314e-05
9.85982e-05
7.12293e-05
8.09456e-05
7.05401e-05
6.3632e-05
6.93165e-05
4.66587e-05
6.7658e-05
3.03024e-05
6.53815e-05
1.45785e-05
6.28654e-05
-4.42089e-07
6.00554e-05
-1.46492e-05
5.681e-05
-2.80387e-05
5.35421e-05
-4.05461e-05
5.00251e-05
-5.21955e-05
4.66021e-05
-6.29535e-05
4.30366e-05
-7.28168e-05
3.94727e-05
-8.18441e-05
3.61264e-05
-9.00237e-05
3.27515e-05
-9.73608e-05
2.93762e-05
-0.000103949
2.63863e-05
-0.000109744
2.32216e-05
-0.000114872
2.05649e-05
-0.000119337
1.7896e-05
-0.000123147
1.53088e-05
-0.000126395
1.30616e-05
-0.000129121
1.09687e-05
-0.000131291
8.79062e-06
-0.000133029
7.0293e-06
-0.000134261
5.02008e-06
-0.000134973
2.90646e-06
-0.000135272
1.16928e-06
-0.000134933
-1.34836e-06
-0.000133916
-3.96671e-06
-0.000132268
-6.48818e-06
-0.00012992
-9.31667e-06
-0.00012674
-1.26193e-05
-0.000122755
-1.58592e-05
-0.00011783
-1.96326e-05
-0.000111968
-2.33872e-05
-0.000105026
-2.77788e-05
-9.70091e-05
-3.21058e-05
-8.7752e-05
-3.71289e-05
-7.72904e-05
-4.19886e-05
-6.56798e-05
-4.65827e-05
-5.27473e-05
-5.1893e-05
-3.86727e-05
-5.63764e-05
-2.36803e-05
-6.0114e-05
-7.79979e-06
-6.35443e-05
8.74768e-06
-6.62863e-05
2.58126e-05
-6.8403e-05
4.31701e-05
-6.9531e-05
6.08206e-05
-7.05984e-05
7.85912e-05
-7.10905e-05
9.63815e-05
-7.11502e-05
0.000114063
-7.07303e-05
0.000131593
-7.01587e-05
0.000148848