/*--------------------------------*- C++ -*----------------------------------*\
| =========                 |                                                 |
| \\      /  F ield         | OpenFOAM: The Open Source CFD Toolbox           |
|  \\    /   O peration     | Version:  3.0.1                                 |
|   \\  /    A nd           | Web:      www.OpenFOAM.org                      |
|    \\/     M anipulation  |                                                 |
\*---------------------------------------------------------------------------*/
FoamFile
{
    version     2.0;
    format      ascii;
    class       surfaceScalarField;
    location    "87.6";
    object      alphaPhi;
}
// * * * * * * * * * * * * * * * * * * * * * * * * * * * * * * * * * * * * * //

dimensions      [0 3 -1 0 0 0 0];

internalField   nonuniform List<scalar> 
42423
(
-0.000174913
-1.92443e-06
-0.000172203
-2.70972e-06
-0.000168808
-3.39517e-06
-0.000164674
-4.13373e-06
-0.00015967
-5.00392e-06
-0.000153917
-5.75333e-06
-0.000147123
-6.79408e-06
-0.000139526
-7.59727e-06
-0.000131165
-8.36076e-06
-0.000121743
-9.42198e-06
-0.000111349
-1.03939e-05
-0.000100005
-1.13443e-05
-8.75304e-05
-1.24745e-05
-7.40546e-05
-1.34759e-05
-5.95272e-05
-1.45274e-05
-4.40121e-05
-1.55151e-05
-2.77793e-05
-1.62328e-05
-1.0637e-05
-1.71423e-05
7.22552e-06
-1.78625e-05
2.55315e-05
-1.8306e-05
4.4377e-05
-1.88455e-05
6.35656e-05
-1.91886e-05
8.26666e-05
-1.9101e-05
0.000101601
-1.89341e-05
0.000120049
-1.84485e-05
0.00013779
-1.77412e-05
0.000154557
-1.67672e-05
0.000170045
-1.54873e-05
0.000183989
-1.39443e-05
0.00019619
-1.22013e-05
0.000206344
-1.01533e-05
0.000214324
-7.98042e-06
0.000219976
-5.65221e-06
0.000223238
-3.26205e-06
0.000224003
-7.65125e-07
0.000222144
1.85953e-06
0.000217795
4.34858e-06
0.000211064
6.73103e-06
0.000202058
9.0059e-06
0.000191028
1.10302e-05
0.000178099
1.29285e-05
0.000163629
1.44707e-05
0.000147792
1.58371e-05
0.000130803
1.69887e-05
0.000112946
1.78571e-05
9.4463e-05
1.84829e-05
7.57061e-05
1.87569e-05
5.68968e-05
1.88093e-05
3.81608e-05
1.87361e-05
1.96908e-05
1.84699e-05
1.72399e-06
1.79668e-05
-1.56759e-05
1.73999e-05
-3.23356e-05
1.66597e-05
-4.81903e-05
1.58546e-05
-6.31403e-05
1.49501e-05
-7.71535e-05
1.40132e-05
-9.02327e-05
1.30792e-05
-0.000102298
1.20658e-05
-0.000113383
1.10849e-05
-0.000123515
1.01315e-05
-0.000132669
9.1545e-06
-0.000140943
8.27375e-06
-0.000148275
7.3314e-06
-0.000154725
6.45037e-06
-0.000160379
5.65394e-06
-0.000165169
4.78969e-06
-0.000169105
3.93634e-06
-0.000172267
3.16259e-06
-0.000174571
2.30341e-06
-0.000176129
1.55765e-06
-0.000176951
8.22837e-07
-0.000176938
-1.30837e-08
-0.000176198
-7.40451e-07
-0.00017471
-1.48757e-06
-0.000172365
-2.34528e-06
-0.000169285
-3.08034e-06
-0.000165353
-3.93201e-06
-0.000160619
-4.73414e-06
-0.000155128
-5.49069e-06
-0.00014872
-6.40776e-06
-0.000141567
-7.1533e-06
-0.000133564
-8.00379e-06
-0.000124695
-8.8687e-06
-0.000114954
-9.74171e-06
-0.000104313
-1.06409e-05
-9.27188e-05
-1.15943e-05
-8.01613e-05
-1.25576e-05
-6.66097e-05
-1.35518e-05
-5.2163e-05
-1.44469e-05
-3.68936e-05
-1.52695e-05
-2.09374e-05
-1.59564e-05
-4.41119e-06
-1.65262e-05
1.25532e-05
-1.69645e-05
2.99163e-05
-1.73631e-05
4.75438e-05
-1.76275e-05
6.53399e-05
-1.77961e-05
8.3161e-05
-1.78209e-05
0.000100845
-1.76838e-05
0.000118207
-1.73616e-05
0.000135072
-1.68648e-05
0.000151223
-1.61509e-05
0.000166397
-1.51743e-05
0.000180391
-1.39933e-05
0.000192954
-1.25637e-05
0.000203858
-1.09034e-05
0.000212869
-9.01103e-06
0.00021981
-6.94007e-06
0.000224518
-4.70813e-06
0.000226892
-2.37368e-06
0.000226888
4.05271e-09
0.000224395
2.49256e-06
0.00021941
4.98579e-06
0.000212027
7.38224e-06
0.000202401
9.62663e-06
0.000190586
1.18145e-05
0.000176899
1.36878e-05
0.000161517
1.53813e-05
0.000144745
1.67726e-05
0.000126847
1.78979e-05
0.000108129
1.87175e-05
8.88942e-05
1.92353e-05
6.93771e-05
1.95171e-05
4.98267e-05
1.95505e-05
3.05936e-05
1.92331e-05
1.17555e-05
1.88381e-05
-6.3852e-06
1.81407e-05
-2.37817e-05
1.73965e-05
-4.02039e-05
1.64223e-05
-5.56652e-05
1.54613e-05
-7.00035e-05
1.43383e-05
-8.32639e-05
1.32603e-05
-9.53989e-05
1.2135e-05
-0.000106393
1.09946e-05
-0.000116287
9.89309e-06
-0.000125115
8.82847e-06
-0.000132898
7.78243e-06
-0.000139652
6.75496e-06
-0.000145586
5.93397e-06
-0.000150583
4.99673e-06
-0.000154708
4.1244e-06
-0.00015812
3.41235e-06
-0.000160783
2.66294e-06
-0.000162734
1.95133e-06
-0.000164151
1.41676e-06
-0.000164925
7.73983e-07
-0.00016515
2.24793e-07
-0.000164847
-3.03121e-07
-0.000163962
-8.84812e-07
-0.000162661
-1.30065e-06
-0.000160798
-1.86317e-06
-0.000158409
-2.38895e-06
-0.000155464
-2.94546e-06
-0.000151936
-3.52762e-06
-0.000147787
-4.14842e-06
-0.000142956
-4.83133e-06
-0.000137478
-5.47775e-06
-0.000131235
-6.24294e-06
-0.000124197
-7.03836e-06
-0.000116357
-7.84031e-06
-0.000107663
-8.6939e-06
-9.80797e-05
-9.58318e-06
-8.75737e-05
-1.0506e-05
-7.62004e-05
-1.13734e-05
-6.396e-05
-1.22404e-05
-5.0816e-05
-1.3144e-05
-3.67688e-05
-1.40473e-05
-2.20885e-05
-1.46803e-05
-6.62506e-06
-1.54635e-05
9.47844e-06
-1.61035e-05
2.60555e-05
-1.65771e-05
4.30004e-05
-1.6945e-05
6.01399e-05
-1.71395e-05
7.72952e-05
-1.71554e-05
9.42881e-05
-1.6993e-05
0.000110897
-1.6609e-05
0.000126882
-1.59854e-05
0.000141955
-1.50724e-05
0.000155872
-1.39172e-05
0.000168387
-1.25152e-05
0.000179235
-1.08479e-05
0.000188189
-8.95411e-06
0.000195035
-6.84598e-06
0.000199583
-4.5484e-06
0.000201759
-2.1757e-06
0.000201535
2.24002e-07
0.000198793
2.74155e-06
0.000193658
5.13536e-06
0.000186216
7.44152e-06
0.000176589
9.62663e-06
0.00016499
1.15995e-05
0.000151536
1.34537e-05
0.000136603
1.49326e-05
0.000120397
1.62063e-05
0.000103282
1.71151e-05
8.55107e-05
1.77712e-05
6.73215e-05
1.81891e-05
4.90959e-05
1.82257e-05
3.09457e-05
1.81501e-05
1.31405e-05
1.78053e-05
-4.22227e-06
1.73628e-05
-2.09839e-05
1.67617e-05
-3.70923e-05
1.61083e-05
-5.23453e-05
1.5253e-05
-6.67023e-05
1.4357e-05
-8.01543e-05
1.34519e-05
-9.25412e-05
1.23869e-05
-0.000103958
1.14163e-05
-0.000114357
1.0399e-05
-0.000123723
9.36654e-06
-0.000132287
8.56426e-06
-0.00013988
7.59252e-06
-0.000146711
6.83102e-06
-0.000152687
5.97629e-06
-0.00015789
5.20277e-06
-0.00016231
4.41998e-06
-0.000166092
3.78245e-06
-0.000169118
3.02592e-06
-0.000171455
2.33648e-06
-0.000173144
1.6897e-06
-0.000174205
1.0604e-06
-0.000174689
4.84152e-07
-0.000174579
-1.10387e-07
-0.000173884
-6.94317e-07
-0.000172723
-1.16127e-06
-0.000170984
-1.73917e-06
-0.000168705
-2.27886e-06
-0.000165879
-2.82579e-06
-0.000162496
-3.38285e-06
-0.000158545
-3.9507e-06
-0.00015404
-4.50543e-06
-0.00014896
-5.07962e-06
-0.000143252
-5.7087e-06
-0.000136866
-6.38556e-06
-0.000129849
-7.01725e-06
-0.000122084
-7.76474e-06
-0.000113554
-8.53021e-06
-0.000104186
-9.36794e-06
-9.4103e-05
-1.00828e-05
-8.31761e-05
-1.09268e-05
-7.13705e-05
-1.18056e-05
-5.87967e-05
-1.25737e-05
-4.53613e-05
-1.34354e-05
-3.12162e-05
-1.41451e-05
-1.63843e-05
-1.4832e-05
-9.54062e-07
-1.54302e-05
1.4937e-05
-1.58911e-05
3.11538e-05
-1.62168e-05
4.75129e-05
-1.63592e-05
6.38523e-05
-1.63395e-05
7.99284e-05
-1.60762e-05
9.55444e-05
-1.56162e-05
0.000110402
-1.48578e-05
0.000124284
-1.38816e-05
0.000136951
-1.26674e-05
0.000148097
-1.11466e-05
0.000157528
-9.43159e-06
0.000164985
-7.45695e-06
0.000170275
-5.2897e-06
0.000173264
-2.98927e-06
0.000173868
-6.05068e-07
0.000172012
1.85602e-06
0.00016768
4.33223e-06
0.000160991
6.68854e-06
0.000152089
8.90115e-06
0.000141092
1.09977e-05
0.000128284
1.28077e-05
0.000113958
1.43257e-05
9.83666e-05
1.55912e-05
8.19175e-05
1.6449e-05
6.48103e-05
1.71072e-05
4.72567e-05
1.75535e-05
2.98896e-05
1.73671e-05
1.27574e-05
1.71322e-05
-3.94959e-06
1.6707e-05
-1.99172e-05
1.59677e-05
-3.50659e-05
1.51486e-05
-4.92765e-05
1.42106e-05
-6.23763e-05
1.30998e-05
-7.43553e-05
1.1979e-05
-8.51844e-05
1.08291e-05
-9.48749e-05
9.69059e-06
-0.000103516
8.64068e-06
-0.000111229
7.71329e-06
-0.000118027
6.79805e-06
-0.000124068
6.04098e-06
-0.000129487
5.41948e-06
-0.000134233
4.74602e-06
-0.000138395
4.16142e-06
-0.000142026
3.63085e-06
-0.000145113
3.08771e-06
-0.000147759
2.64578e-06
-0.000149911
2.15206e-06
-0.000151585
1.67417e-06
-0.000152913
1.32758e-06
-0.000153842
9.29014e-07
-0.000154376
5.33526e-07
-0.000154607
2.31407e-07
-0.000154458
-1.48869e-07
-0.000153919
-5.38754e-07
-0.00015308
-8.38899e-07
-0.000151794
-1.28613e-06
-0.000150157
-1.63736e-06
-0.000148093
-2.06434e-06
-0.000145435
-2.65745e-06
-0.000142232
-3.20306e-06
-0.000138465
-3.76742e-06
-0.000133772
-4.69264e-06
-0.000128248
-5.52383e-06
-0.000121687
-6.5611e-06
-0.000114147
-7.54005e-06
-0.000105608
-8.53937e-06
-9.58333e-05
-9.77442e-06
-8.49317e-05
-1.09016e-05
-7.30173e-05
-1.19145e-05
-5.98749e-05
-1.31424e-05
-4.57444e-05
-1.41305e-05
-3.04563e-05
-1.52881e-05
-1.43058e-05
-1.61505e-05
2.40285e-06
-1.67087e-05
1.97052e-05
-1.73023e-05
3.73973e-05
-1.76921e-05
5.51264e-05
-1.77291e-05
7.28418e-05
-1.77154e-05
9.01896e-05
-1.73479e-05
0.000106981
-1.67917e-05
0.000122963
-1.59812e-05
0.00013782
-1.48578e-05
0.000151385
-1.35647e-05
0.000163421
-1.20357e-05
0.000173718
-1.02972e-05
0.000182146
-8.42845e-06
0.000188589
-6.44258e-06
0.00019297
-4.38131e-06
0.000195243
-2.2725e-06
0.000195344
-1.00987e-07
0.000193332
2.01207e-06
0.000189196
4.13596e-06
0.000183065
6.13039e-06
0.000175217
7.84823e-06
0.00016579
9.42659e-06
0.000154863
1.09271e-05
0.000142748
1.21149e-05
0.00012957
1.31787e-05
0.000115586
1.3984e-05
0.000100922
1.46634e-05
8.56838e-05
1.52384e-05
7.01375e-05
1.55463e-05
5.43351e-05
1.58024e-05
3.84858e-05
1.58493e-05
2.27436e-05
1.57421e-05
7.10427e-06
1.56393e-05
-8.29587e-06
1.54001e-05
-2.33899e-05
1.5094e-05
-3.80538e-05
1.46639e-05
-5.21436e-05
1.40897e-05
-6.56707e-05
1.35271e-05
1.27389e-05
-0.000174945
-3.8434e-06
-0.000172239
-5.41663e-06
-0.000168846
-6.78741e-06
-0.000164717
-8.26299e-06
-0.000159716
-1.00046e-05
-0.000153966
-1.15032e-05
-0.000147169
-1.35915e-05
-0.000139572
-1.51948e-05
-0.000131215
-1.67175e-05
-0.000121793
-1.88442e-05
-0.000111401
-2.07851e-05
-0.000100059
-2.26864e-05
-8.75842e-05
-2.49496e-05
-7.41047e-05
-2.69554e-05
-5.95824e-05
-2.90497e-05
-4.40537e-05
-3.10439e-05
-2.78122e-05
-3.24743e-05
-1.06667e-05
-3.42879e-05
7.19807e-06
-3.57273e-05
2.55109e-05
-3.66189e-05
4.43703e-05
-3.77049e-05
6.35709e-05
-3.83893e-05
8.26809e-05
-3.8211e-05
0.000101625
-3.78778e-05
0.000120088
-3.69121e-05
0.000137843
-3.54956e-05
0.000154623
-3.35476e-05
0.000170122
-3.09868e-05
0.000184078
-2.78996e-05
0.000196293
-2.44165e-05
0.000206464
-2.03247e-05
0.000214459
-1.59752e-05
0.000220108
-1.13008e-05
0.000223365
-6.51971e-06
0.000224133
-1.53268e-06
0.000222262
3.73003e-06
0.000217912
8.69895e-06
0.000211177
1.34661e-05
0.000202162
1.80206e-05
0.000191122
2.20698e-05
0.000178183
2.58677e-05
0.000163701
2.89525e-05
0.000147853
3.16857e-05
0.000130857
3.39843e-05
0.000112988
3.57259e-05
9.44954e-05
3.69756e-05
7.57236e-05
3.75287e-05
5.69041e-05
3.76287e-05
3.81629e-05
3.74772e-05
1.96829e-05
3.695e-05
1.70894e-06
3.59408e-05
-1.56984e-05
3.48072e-05
-3.23642e-05
3.33255e-05
-4.82253e-05
3.17157e-05
-6.31814e-05
2.99061e-05
-7.71989e-05
2.80307e-05
-9.02834e-05
2.61637e-05
-0.000102354
2.41361e-05
-0.000113445
2.21757e-05
-0.000123579
2.02655e-05
-0.000132732
1.83084e-05
-0.000141011
1.65522e-05
-0.000148344
1.4664e-05
-0.000154795
1.29021e-05
-0.000160449
1.13072e-05
-0.000165239
9.5799e-06
-0.000169175
7.87217e-06
-0.000172338
6.32586e-06
-0.000174641
4.60674e-06
-0.000176204
3.1208e-06
-0.000177028
1.64603e-06
-0.000177007
-3.32203e-08
-0.000176263
-1.48539e-06
-0.000174775
-2.97538e-06
-0.000172434
-4.68601e-06
-0.00016935
-6.16417e-06
-0.000165413
-7.86891e-06
-0.000160685
-9.46271e-06
-0.00015519
-1.09859e-05
-0.000148776
-1.2822e-05
-0.000141626
-1.43031e-05
-0.000133623
-1.60065e-05
-0.000124751
-1.77416e-05
-0.000115004
-1.94889e-05
-0.000104361
-2.12834e-05
-9.27599e-05
-2.31961e-05
-8.01899e-05
-2.51278e-05
-6.66307e-05
-2.71111e-05
-5.21783e-05
-2.88995e-05
-3.68999e-05
-3.0548e-05
-2.09262e-05
-3.19301e-05
-4.37274e-06
-3.30798e-05
1.25936e-05
-3.39308e-05
2.99747e-05
-3.47442e-05
4.7618e-05
-3.52708e-05
6.54176e-05
-3.55956e-05
8.32402e-05
-3.56435e-05
0.000100931
-3.53747e-05
0.000118301
-3.47313e-05
0.000135173
-3.37366e-05
0.000151334
-3.23113e-05
0.000166523
-3.03639e-05
0.00018052
-2.79897e-05
0.000193075
-2.51184e-05
0.000203974
-2.18024e-05
0.000212993
-1.80301e-05
0.000219942
-1.38885e-05
0.000224657
-9.42316e-06
0.000227041
-4.75721e-06
0.00022703
1.44236e-08
0.000224514
5.00905e-06
0.000219525
9.97491e-06
0.000212129
1.4778e-05
0.000202493
1.92632e-05
0.000190659
2.36489e-05
0.000176955
2.73918e-05
0.000161558
3.07775e-05
0.000144769
3.35622e-05
0.000126839
3.58283e-05
0.000108099
3.74575e-05
8.88296e-05
3.85045e-05
6.92986e-05
3.90481e-05
4.97283e-05
3.91208e-05
3.04685e-05
3.84928e-05
1.16175e-05
3.76892e-05
-6.54591e-06
3.63042e-05
-2.39577e-05
3.48083e-05
-4.04011e-05
3.28656e-05
-5.58669e-05
3.09271e-05
-7.0224e-05
2.86955e-05
-8.34702e-05
2.65066e-05
-9.5637e-05
2.43019e-05
-0.000106638
2.19957e-05
-0.000116546
1.98007e-05
-0.000125367
1.76496e-05
-0.000133152
1.55674e-05
-0.000139969
1.35721e-05
-0.000145856
1.18215e-05
-0.000150858
9.99863e-06
-0.000154999
8.26526e-06
-0.00015838
6.7938e-06
-0.000161023
5.3058e-06
-0.000163047
3.9752e-06
-0.000164407
2.77667e-06
-0.000165172
1.53893e-06
-0.000165391
4.43694e-07
-0.000165083
-6.11376e-07
-0.000164237
-1.73062e-06
-0.000162891
-2.64678e-06
-0.000161028
-3.72578e-06
-0.000158639
-4.77755e-06
-0.000155689
-5.89602e-06
-0.000152141
-7.07542e-06
-0.000147983
-8.30621e-06
-0.000143162
-9.65215e-06
-0.000137661
-1.09795e-05
-0.000131413
-1.2491e-05
-0.000124325
-1.41262e-05
-0.000116534
-1.56307e-05
-0.000107823
-1.74049e-05
-9.824e-05
-1.91665e-05
-8.76761e-05
-2.10699e-05
-7.63594e-05
-2.26901e-05
-6.41101e-05
-2.44897e-05
-5.09549e-05
-2.62992e-05
-3.69549e-05
-2.80473e-05
-2.2205e-05
-2.94302e-05
-6.72052e-06
-3.0948e-05
9.4047e-06
-3.22288e-05
2.5984e-05
-3.31564e-05
4.29352e-05
-3.38962e-05
6.00921e-05
-3.42964e-05
7.72557e-05
-3.4319e-05
9.42684e-05
-3.40058e-05
0.000110894
-3.32347e-05
0.000126893
-3.19845e-05
0.00014198
-3.01589e-05
0.000155911
-2.7849e-05
0.000168439
-2.50428e-05
0.0001793
-2.17094e-05
0.000188271
-1.79246e-05
0.00019512
-1.36958e-05
0.000199665
-9.09308e-06
0.000201845
-4.35598e-06
0.000201599
4.703e-07
0.000198857
5.48336e-06
0.00019372
1.02722e-05
0.000186266
1.48953e-05
0.000176617
1.92762e-05
0.000164975
2.3241e-05
0.000151527
2.69017e-05
0.000136576
2.98837e-05
0.000120356
3.24264e-05
0.000103204
3.42669e-05
8.54221e-05
3.55535e-05
6.71997e-05
3.64115e-05
4.89468e-05
3.64787e-05
3.07834e-05
3.63135e-05
1.29587e-05
3.563e-05
-4.41612e-06
3.47377e-05
-2.11876e-05
3.35332e-05
-3.72982e-05
3.22189e-05
-5.25724e-05
3.05273e-05
-6.69456e-05
2.87302e-05
-8.03978e-05
2.69041e-05
-9.27921e-05
2.47813e-05
-0.000104165
2.27895e-05
-0.000114616
2.08501e-05
-0.000124032
1.87819e-05
-0.000132549
1.70816e-05
-0.000140114
1.51577e-05
-0.000146964
1.36813e-05
-0.000152942
1.19542e-05
-0.000158146
1.04061e-05
-0.000162554
8.8287e-06
-0.000166328
7.55628e-06
-0.000169353
6.05072e-06
-0.000171691
4.67459e-06
-0.000173363
3.36175e-06
-0.000174426
2.12364e-06
-0.000174897
9.54993e-07
-0.000174782
-2.25662e-07
-0.000174078
-1.39817e-06
-0.00017291
-2.32878e-06
-0.00017118
-3.46995e-06
-0.000168888
-4.57071e-06
-0.000166047
-5.6669e-06
-0.000162671
-6.75894e-06
-0.000158701
-7.92034e-06
-0.000154207
-8.99896e-06
-0.000149124
-1.0163e-05
-0.000143413
-1.142e-05
-0.000137037
-1.27615e-05
-0.000129999
-1.40551e-05
-0.000122234
-1.55297e-05
-0.000113703
-1.70612e-05
-0.000104333
-1.87375e-05
-9.42509e-05
-2.01651e-05
-8.33116e-05
-2.18661e-05
-7.15144e-05
-2.36028e-05
-5.89326e-05
-2.51555e-05
-4.55026e-05
-2.68654e-05
-3.13482e-05
-2.82995e-05
-1.64988e-05
-2.96815e-05
-1.07063e-06
-3.08584e-05
1.48238e-05
-3.17856e-05
3.10496e-05
-3.24427e-05
4.74266e-05
-3.27362e-05
6.37888e-05
-3.27019e-05
7.98665e-05
-3.21541e-05
9.5486e-05
-3.12358e-05
0.000110372
-2.97445e-05
0.000124278
-2.77874e-05
0.000136964
-2.53532e-05
0.000148137
-2.232e-05
0.00015758
-1.88748e-05
0.000165043
-1.49203e-05
0.000170345
-1.05922e-05
0.000173352
-5.99659e-06
0.000173956
-1.2098e-06
0.000172095
3.71682e-06
0.000167765
8.66201e-06
0.000161069
1.33842e-05
0.00015216
1.78106e-05
0.000141161
2.19964e-05
0.000128344
2.56246e-05
0.000114004
2.86655e-05
9.8399e-05
3.11962e-05
8.19359e-05
3.2912e-05
6.48277e-05
3.42154e-05
4.72622e-05
3.5119e-05
2.98748e-05
3.47545e-05
1.27308e-05
3.42763e-05
-3.98389e-06
3.34217e-05
-1.99622e-05
3.1946e-05
-3.51194e-05
3.03059e-05
-4.93423e-05
2.84335e-05
-6.24405e-05
2.6198e-05
-7.44204e-05
2.3959e-05
-8.52544e-05
2.16631e-05
-9.49468e-05
1.9383e-05
-0.000103583
1.72766e-05
-0.000111288
1.54185e-05
-0.000118083
1.35932e-05
-0.000124122
1.20798e-05
-0.000129538
1.08357e-05
-0.00013428
9.48836e-06
-0.000138442
8.32333e-06
-0.000142073
7.26132e-06
-0.000145158
6.17288e-06
-0.000147805
5.29338e-06
-0.000149961
4.30725e-06
-0.000151632
3.34592e-06
-0.000152956
2.6516e-06
-0.000153888
1.86056e-06
-0.000154424
1.06979e-06
-0.000154654
4.61588e-07
-0.000154502
-3.01407e-07
-0.000153965
-1.07537e-06
-0.000153129
-1.6754e-06
-0.000151843
-2.57238e-06
-0.000150205
-3.27454e-06
-0.000148143
-4.12696e-06
-0.000145487
-5.31274e-06
-0.000142289
-6.40168e-06
-0.000138522
-7.53391e-06
-0.000133822
-9.39276e-06
-0.000128305
-1.10409e-05
-0.000121745
-1.31211e-05
-0.000114206
-1.50792e-05
-0.00010567
-1.70752e-05
-9.58965e-05
-1.95482e-05
-8.49935e-05
-2.18045e-05
-7.30782e-05
-2.38298e-05
-5.99489e-05
-2.62717e-05
-4.57967e-05
-2.82828e-05
-3.04953e-05
-3.05896e-05
-1.43381e-05
-3.23076e-05
2.37907e-06
-3.34259e-05
1.96935e-05
-3.46167e-05
3.73924e-05
-3.53911e-05
5.51278e-05
-3.54646e-05
7.28553e-05
-3.54429e-05
9.02139e-05
-3.47065e-05
0.000107019
-3.35971e-05
0.000123014
-3.19758e-05
0.000137882
-2.97264e-05
0.00015146
-2.71424e-05
0.000163512
-2.40879e-05
0.000173831
-2.06156e-05
0.000182272
-1.68699e-05
0.000188707
-1.28773e-05
0.00019308
-8.75458e-06
0.000195355
-4.54731e-06
0.000195453
-1.99155e-07
0.000193432
4.03249e-06
0.000189292
8.27678e-06
0.000183156
1.22663e-05
0.0001753
1.57044e-05
0.000165865
1.88613e-05
0.000154929
2.18629e-05
0.000142805
2.42389e-05
0.000129617
2.63669e-05
0.000115624
2.79771e-05
0.000100953
2.93339e-05
8.57061e-05
3.04854e-05
7.01524e-05
3.10999e-05
5.43439e-05
3.16109e-05
3.84864e-05
3.17069e-05
2.27375e-05
3.1491e-05
7.09488e-06
3.12819e-05
-8.30761e-06
3.08026e-05
-2.34046e-05
3.0191e-05
-3.80719e-05
2.93312e-05
-5.21655e-05
2.81833e-05
-6.56969e-05
2.70586e-05
2.54808e-05
-0.000175
-5.76177e-06
-0.000172294
-8.12227e-06
-0.000168903
-1.01793e-05
-0.000164777
-1.2389e-05
-0.00015978
-1.50014e-05
-0.000154034
-1.72492e-05
-0.000147235
-2.03908e-05
-0.000139641
-2.27887e-05
-0.000131286
-2.50724e-05
-0.000121866
-2.82642e-05
-0.000111477
-3.11743e-05
-0.000100133
-3.40298e-05
-8.76578e-05
-3.74251e-05
-7.41769e-05
-4.04363e-05
-5.96585e-05
-4.3568e-05
-4.41262e-05
-4.65762e-05
-2.78721e-05
-4.87284e-05
-1.07139e-05
-5.14462e-05
7.17425e-06
-5.36155e-05
2.55032e-05
-5.49478e-05
4.43739e-05
-5.65756e-05
6.35852e-05
-5.76006e-05
8.27205e-05
-5.73463e-05
0.000101683
-5.68402e-05
0.000120172
-5.54009e-05
0.000137949
-5.32726e-05
0.000154754
-5.03533e-05
0.000170273
-4.65059e-05
0.000184248
-4.18747e-05
0.000196477
-3.66449e-05
0.000206658
-3.05059e-05
0.000214658
-2.39757e-05
0.000220315
-1.69573e-05
0.00022358
-9.78499e-06
0.000224346
-2.29902e-06
0.000222447
5.62991e-06
0.000218094
1.30516e-05
0.000211353
2.02071e-05
0.000202321
2.70522e-05
0.000191265
3.31266e-05
0.000178307
3.88257e-05
0.000163804
4.34549e-05
0.000147934
4.75561e-05
0.000130927
5.09912e-05
0.000113037
5.36155e-05
9.45339e-05
5.5479e-05
7.57298e-05
5.63328e-05
5.68903e-05
5.64682e-05
3.81426e-05
5.62249e-05
1.96455e-05
5.5447e-05
1.65713e-06
5.39291e-05
-1.57609e-05
5.22252e-05
-3.2434e-05
4.99986e-05
-4.83017e-05
4.75834e-05
-6.32639e-05
4.48683e-05
-7.72844e-05
4.20512e-05
-9.0373e-05
3.92522e-05
-0.000102442
3.62056e-05
-0.000113532
3.32656e-05
-0.00012367
3.0403e-05
-0.000132819
2.74578e-05
-0.000141093
2.48259e-05
-0.000148422
2.19927e-05
-0.000154872
1.93522e-05
-0.000160527
1.69628e-05
-0.000165322
1.43746e-05
-0.000169255
1.1805e-05
-0.000172419
9.48977e-06
-0.000174717
6.9048e-06
-0.00017628
4.68392e-06
-0.000177097
2.46269e-06
-0.000177073
-5.733e-08
-0.000176323
-2.2348e-06
-0.000174836
-4.46247e-06
-0.000172497
-7.02571e-06
-0.000169415
-9.24565e-06
-0.000165481
-1.18034e-05
-0.00016075
-1.41937e-05
-0.000155254
-1.64815e-05
-0.000148846
-1.92303e-05
-0.000141698
-2.14515e-05
-0.000133696
-2.40086e-05
-0.000124822
-2.66154e-05
-0.000115076
-2.92357e-05
-0.000104437
-3.19219e-05
-9.28339e-05
-3.47998e-05
-8.02664e-05
-3.76955e-05
-6.67042e-05
-4.06735e-05
-5.22428e-05
-4.3361e-05
-3.69577e-05
-4.58332e-05
-2.09832e-05
-4.79046e-05
-4.42421e-06
-4.96388e-05
1.2576e-05
-5.09311e-05
2.99571e-05
-5.21252e-05
4.75998e-05
-5.29135e-05
6.54032e-05
-5.33989e-05
8.32277e-05
-5.34679e-05
0.000100921
-5.30674e-05
0.00011829
-5.21006e-05
0.000135163
-5.06097e-05
0.000151339
-4.8487e-05
0.000166541
-4.55651e-05
0.000180561
-4.20097e-05
0.000193119
-3.76764e-05
0.00020403
-3.27131e-05
0.000213059
-2.7059e-05
0.000220017
-2.0846e-05
0.000224741
-1.41471e-05
0.00022712
-7.13664e-06
0.000227114
2.14421e-08
0.000224561
7.56187e-06
0.000219573
1.49628e-05
0.000212165
2.21862e-05
0.000202479
2.89496e-05
0.000190655
3.54724e-05
0.00017696
4.10871e-05
0.000161507
4.62305e-05
0.000144712
5.03574e-05
0.000126731
5.38086e-05
0.00010799
5.61987e-05
8.86398e-05
5.7855e-05
6.90825e-05
5.86055e-05
4.95107e-05
5.86927e-05
3.02127e-05
5.77908e-05
1.13568e-05
5.65452e-05
-6.82824e-06
5.44892e-05
-2.42424e-05
5.22225e-05
-4.07068e-05
4.93301e-05
-5.61558e-05
4.63761e-05
-7.05597e-05
4.30994e-05
-8.37689e-05
3.97159e-05
-9.59768e-05
3.65097e-05
-0.000106957
3.29762e-05
-0.000116895
2.97387e-05
-0.000125707
2.64616e-05
-0.000133444
2.3304e-05
-0.000140327
2.04555e-05
-0.000146188
1.76822e-05
-0.000151194
1.50051e-05
-0.000155339
1.24101e-05
-0.000158708
1.01627e-05
-0.000161296
7.89309e-06
-0.000163377
6.05618e-06
-0.000164715
4.11508e-06
-0.000165485
2.30884e-06
-0.000165686
6.44787e-07
-0.00016536
-9.37551e-07
-0.000164544
-2.54628e-06
-0.000163181
-4.01e-06
-0.000161328
-5.57813e-06
-0.000158937
-7.16879e-06
-0.000155989
-8.84397e-06
-0.000152438
-1.06266e-05
-0.000148264
-1.24801e-05
-0.000143457
-1.44591e-05
-0.000137947
-1.64895e-05
-0.000131694
-1.87437e-05
-0.00012461
-2.12102e-05
-0.000116833
-2.34076e-05
-0.00010812
-2.6118e-05
-9.85409e-05
-2.8746e-05
-8.79739e-05
-3.16369e-05
-7.66644e-05
-3.39995e-05
-6.44054e-05
-3.67488e-05
-5.12446e-05
-3.94601e-05
-3.72761e-05
-4.20157e-05
-2.24848e-05
-4.42216e-05
-6.9837e-06
-4.64491e-05
9.16542e-06
-4.83779e-05
2.57521e-05
-4.97431e-05
4.27198e-05
-5.08639e-05
5.99086e-05
-5.14853e-05
7.70874e-05
-5.14979e-05
9.41116e-05
-5.10301e-05
0.000110762
-4.98851e-05
0.000126786
-4.80084e-05
0.0001419
-4.52728e-05
0.000155854
-4.1803e-05
0.000168403
-3.75923e-05
0.00017929
-3.25965e-05
0.000188271
-2.69054e-05
0.000195136
-2.05609e-05
0.000199717
-1.36746e-05
0.000201874
-6.51255e-06
0.000201602
7.42355e-07
0.000198857
8.22749e-06
0.00019371
1.54196e-05
0.00018625
2.23547e-05
0.000176586
2.8941e-05
0.000164908
3.49188e-05
0.000151451
4.03582e-05
0.000136468
4.4867e-05
0.000120235
4.86592e-05
0.000103046
5.14559e-05
8.52408e-05
5.33587e-05
6.69961e-05
5.46562e-05
4.87046e-05
5.47702e-05
3.05273e-05
5.44908e-05
1.26771e-05
5.34802e-05
-4.70567e-06
5.21204e-05
-2.14812e-05
5.03088e-05
-3.75442e-05
4.82819e-05
-5.28793e-05
4.58624e-05
-6.72751e-05
4.31261e-05
-8.0728e-05
4.03571e-05
-9.31274e-05
3.71806e-05
-0.000104492
3.4154e-05
-0.000114951
3.13094e-05
-0.000124377
2.82082e-05
-0.000132874
2.55782e-05
-0.000140467
2.27506e-05
-0.000147278
2.04926e-05
-0.000153255
1.7931e-05
-0.000158457
1.56077e-05
-0.000162921
1.32928e-05
-0.000166626
1.12616e-05
-0.000169641
9.06578e-06
-0.000171981
7.0148e-06
-0.000173652
5.03281e-06
-0.000174699
3.17032e-06
-0.000175181
1.43721e-06
-0.00017506
-3.46865e-07
-0.000174404
-2.05467e-06
-0.000173188
-3.54395e-06
-0.000171451
-5.20692e-06
-0.000169146
-6.87624e-06
-0.000166321
-8.49147e-06
-0.000162934
-1.01459e-05
-0.00015894
-1.19142e-05
-0.000154496
-1.34435e-05
-0.00014941
-1.52486e-05
-0.000143689
-1.71407e-05
-0.000137334
-1.91172e-05
-0.000130288
-2.11008e-05
-0.000122526
-2.3292e-05
-0.000113995
-2.55917e-05
-0.000104681
-2.8052e-05
-9.45443e-05
-3.03013e-05
-8.3576e-05
-3.28343e-05
-7.18138e-05
-3.5365e-05
-5.92263e-05
-3.77429e-05
-4.5803e-05
-4.02888e-05
-3.16328e-05
-4.24696e-05
-1.66937e-05
-4.46206e-05
-1.33724e-06
-4.62148e-05
1.45752e-05
-4.76981e-05
3.08177e-05
-4.86852e-05
4.72198e-05
-4.91384e-05
6.3617e-05
-4.90991e-05
7.97323e-05
-4.82696e-05
9.53661e-05
-4.68697e-05
0.00011029
-4.46689e-05
0.000124234
-4.17315e-05
0.000136943
-3.80617e-05
0.000148145
-3.3523e-05
0.000157614
-2.83435e-05
0.000165109
-2.24152e-05
0.000170436
-1.59203e-05
0.000173453
-9.01354e-06
0.000174057
-1.81374e-06
0.000172193
5.58053e-06
0.000167863
1.29918e-05
0.000161165
2.00818e-05
0.00015225
2.67257e-05
0.000141243
3.30029e-05
0.000128408
3.84595e-05
0.000114056
4.30172e-05
9.84295e-05
4.68226e-05
8.19393e-05
4.94022e-05
6.48137e-05
5.13409e-05
4.72563e-05
5.26764e-05
2.98327e-05
5.2178e-05
1.26709e-05
5.1438e-05
-4.05391e-06
5.01465e-05
-2.00496e-05
4.79417e-05
-3.52063e-05
4.54626e-05
-4.94524e-05
4.26797e-05
-6.25529e-05
3.92985e-05
-7.45366e-05
3.59427e-05
-8.53768e-05
3.25033e-05
-9.50576e-05
2.90639e-05
-0.000103688
2.59071e-05
-0.000111382
2.31127e-05
-0.000118162
2.03727e-05
-0.000124193
1.81105e-05
-0.000129602
1.62453e-05
-0.000134339
1.4225e-05
-0.000138493
1.24776e-05
-0.000142117
1.08852e-05
-0.000145197
9.25347e-06
-0.000147845
7.94128e-06
-0.00015
6.46207e-06
-0.000151671
5.01691e-06
-0.000152995
3.97585e-06
-0.000153928
2.79326e-06
-0.000154457
1.59906e-06
-0.000154681
6.84843e-07
-0.000154529
-4.52842e-07
-0.000153998
-1.60631e-06
-0.000153164
-2.50933e-06
-0.000151879
-3.85776e-06
-0.000150244
-4.90928e-06
-0.000148186
-6.18538e-06
-0.000145537
-7.96178e-06
-0.000142347
-9.59166e-06
-0.000138585
-1.12958e-05
-0.000133881
-1.40969e-05
-0.000128374
-1.65472e-05
-0.000121819
-1.9676e-05
-0.000114286
-2.26129e-05
-0.000105757
-2.56042e-05
-9.59865e-05
-2.93185e-05
-8.50844e-05
-3.27066e-05
-7.31679e-05
-3.57464e-05
-6.00433e-05
-3.93963e-05
-4.58792e-05
-4.24469e-05
-3.05583e-05
-4.59105e-05
-1.43899e-05
-4.8476e-05
2.34031e-06
-5.01561e-05
1.96731e-05
-5.19495e-05
3.73927e-05
-5.31107e-05
5.51487e-05
-5.32206e-05
7.29021e-05
-5.31963e-05
9.02817e-05
-5.20861e-05
0.00010711
-5.04258e-05
0.000123129
-4.79947e-05
0.000138019
-4.46165e-05
0.000151621
-4.07438e-05
0.000163686
-3.61536e-05
0.000174009
-3.09385e-05
0.000182457
-2.53173e-05
0.000188904
-1.93247e-05
0.000193288
-1.31387e-05
0.000195569
-6.82854e-06
0.000195644
-2.74381e-07
0.000193592
6.08461e-06
0.000189441
1.2428e-05
0.000183295
1.84126e-05
0.000175425
2.35741e-05
0.000165975
2.83111e-05
0.000155025
3.28132e-05
0.000142886
3.6378e-05
0.000129682
3.95703e-05
0.000115675
4.19849e-05
0.000100994
4.40149e-05
8.57337e-05
4.57453e-05
7.01691e-05
4.66645e-05
5.43538e-05
4.74261e-05
3.84818e-05
4.7579e-05
2.27216e-05
4.72511e-05
7.07456e-06
4.6929e-05
-8.33653e-06
4.62137e-05
-2.34398e-05
4.52943e-05
-3.81137e-05
4.4005e-05
-5.22131e-05
4.22828e-05
-6.57511e-05
4.05966e-05
3.82266e-05
-0.000175082
-7.679e-06
-0.000172378
-1.08261e-05
-0.000168987
-1.35703e-05
-0.000164866
-1.65103e-05
-0.000159875
-1.99924e-05
-0.000154135
-2.29888e-05
-0.000147333
-2.71931e-05
-0.000139744
-3.03778e-05
-0.000131392
-3.34243e-05
-0.000121974
-3.76828e-05
-0.000111587
-4.15607e-05
-0.000100242
-4.53752e-05
-8.77675e-05
-4.98995e-05
-7.42889e-05
-5.3915e-05
-5.97731e-05
-5.80838e-05
-4.42354e-05
-6.21139e-05
-2.79618e-05
-6.5002e-05
-1.07879e-05
-6.86201e-05
7.12778e-06
-7.15312e-05
2.54824e-05
-7.33025e-05
4.43776e-05
-7.54709e-05
6.36128e-05
-7.68359e-05
8.27772e-05
-7.65107e-05
0.00010177
-7.58334e-05
0.000120296
-7.39266e-05
0.000138107
-7.10837e-05
0.000154956
-6.7202e-05
0.000170494
-6.20441e-05
0.000184494
-5.58749e-05
0.000196746
-4.88972e-05
0.000206958
-4.07175e-05
0.000214972
-3.19901e-05
0.000220638
-2.26231e-05
0.000223909
-1.30561e-05
0.000224669
-3.05906e-06
0.000222728
7.57122e-06
0.000218369
1.74107e-05
0.000211618
2.69576e-05
0.00020256
3.61099e-05
0.000191478
4.42089e-05
0.000178492
5.18118e-05
0.000163959
5.79881e-05
0.000148056
6.34591e-05
0.000131031
6.80159e-05
0.00011311
7.15363e-05
9.45959e-05
7.39932e-05
7.57393e-05
7.51895e-05
5.68692e-05
7.53382e-05
3.81116e-05
7.49825e-05
1.95892e-05
7.39694e-05
1.57915e-06
7.19392e-05
-1.58548e-05
6.96591e-05
-3.25398e-05
6.66836e-05
-4.84185e-05
6.34622e-05
-6.33895e-05
5.98394e-05
-7.74133e-05
5.60749e-05
-9.0507e-05
5.23459e-05
-0.000102577
4.82758e-05
-0.000113667
4.43555e-05
-0.000123805
4.05412e-05
-0.000132949
3.66016e-05
-0.000141224
3.31005e-05
-0.000148551
2.93198e-05
-0.000155001
2.58022e-05
-0.000160654
2.26156e-05
-0.000165448
1.91685e-05
-0.000169378
1.57353e-05
-0.000172545
1.26572e-05
-0.000174836
9.19549e-06
-0.000176406
6.25392e-06
-0.000177211
3.26795e-06
-0.00017717
-9.82724e-08
-0.000176417
-2.98786e-06
-0.00017493
-5.9497e-06
-0.000172593
-9.36326e-06
-0.000169518
-1.23201e-05
-0.00016558
-1.57419e-05
-0.000160855
-1.89185e-05
-0.000155357
-2.19793e-05
-0.000148952
-2.56359e-05
-0.000141812
-2.8591e-05
-0.000133814
-3.20068e-05
-0.000124939
-3.54909e-05
-0.000115195
-3.89797e-05
-0.000104559
-4.25581e-05
-9.29547e-05
-4.64043e-05
-8.03986e-05
-5.02518e-05
-6.68309e-05
-5.42414e-05
-5.23656e-05
-5.78264e-05
-3.70778e-05
-6.11212e-05
-2.11027e-05
-6.38797e-05
-4.5445e-06
-6.6197e-05
1.24885e-05
-6.79641e-05
2.9869e-05
-6.95057e-05
4.75111e-05
-7.05556e-05
6.5311e-05
-7.11986e-05
8.3135e-05
-7.12918e-05
0.000100834
-7.07662e-05
0.000118218
-6.94842e-05
0.000135101
-6.74932e-05
0.000151266