/*--------------------------------*- C++ -*----------------------------------*\
| =========                 |                                                 |
| \\      /  F ield         | OpenFOAM: The Open Source CFD Toolbox           |
|  \\    /   O peration     | Version:  3.0.1                                 |
|   \\  /    A nd           | Web:      www.OpenFOAM.org                      |
|    \\/     M anipulation  |                                                 |
\*---------------------------------------------------------------------------*/
FoamFile
{
    version     2.0;
    format      ascii;
    class       surfaceScalarField;
    location    "30";
    object      alphaPhi;
}
// * * * * * * * * * * * * * * * * * * * * * * * * * * * * * * * * * * * * * //

dimensions      [0 3 -1 0 0 0 0];

internalField   nonuniform List<scalar> 
44922
(
-0.000122118
9.06171e-06
-0.000130595
8.47662e-06
-0.000138534
7.93939e-06
-0.000145933
7.39806e-06
-0.000152807
6.8741e-06
-0.000159156
6.34896e-06
-0.000164988
5.83234e-06
-0.000170305
5.31696e-06
-0.000175105
4.79974e-06
-0.000179389
4.28458e-06
-0.000183151
3.76185e-06
-0.00018639
3.23888e-06
-0.000189096
2.70578e-06
-0.000191261
2.16536e-06
-0.000192865
1.6036e-06
-0.000193892
1.02747e-06
-0.000194364
4.71437e-07
-0.000194227
-1.36524e-07
-0.000193469
-7.58506e-07
-0.000192125
-1.34341e-06
-0.000190102
-2.02313e-06
-0.000187491
-2.61088e-06
-0.00018415
-3.34098e-06
-0.000180203
-3.94712e-06
-0.000175497
-4.70627e-06
-0.000170123
-5.37415e-06
-0.000163966
-6.15618e-06
-0.000157124
-6.84196e-06
-0.000149437
-7.68738e-06
-0.000141084
-8.35344e-06
-0.000131834
-9.24944e-06
-0.000121916
-9.91817e-06
-0.000111044
-1.08725e-05
-9.94311e-05
-1.16125e-05
-8.7187e-05
-1.22441e-05
-7.41323e-05
-1.30547e-05
-6.04608e-05
-1.36715e-05
-4.6028e-05
-1.44328e-05
-3.1086e-05
-1.4942e-05
-1.55273e-05
-1.55587e-05
3.92765e-07
-1.59201e-05
1.68202e-05
-1.64275e-05
3.34573e-05
-1.66371e-05
5.03601e-05
-1.69028e-05
6.72544e-05
-1.68942e-05
8.41616e-05
-1.69072e-05
0.000100821
-1.66594e-05
0.000117174
-1.63533e-05
0.000132992
-1.58173e-05
0.000148187
-1.51953e-05
0.000162565
-1.43786e-05
0.000175903
-1.33381e-05
0.000188128
-1.22243e-05
0.000199051
-1.0923e-05
0.000208589
-9.53776e-06
0.000216561
-7.97263e-06
0.000222948
-6.38721e-06
0.000227587
-4.63912e-06
0.000230501
-2.91368e-06
0.000231608
-1.10664e-06
0.00023098
6.277e-07
0.000228501
2.47889e-06
0.000224313
4.18802e-06
0.000218401
5.91242e-06
0.000210996
7.405e-06
0.000202036
8.96009e-06
0.000191761
1.0275e-05
0.000180165
1.15953e-05
0.000167509
1.2656e-05
0.000153905
1.36043e-05
0.000139446
1.44585e-05
0.000124339
1.51072e-05
0.00010874
1.55988e-05
9.27382e-05
1.6002e-05
7.64945e-05
1.62438e-05
6.02056e-05
1.62889e-05
4.39424e-05
1.62632e-05
2.78718e-05
1.60706e-05
1.20285e-05
1.58433e-05
-3.43945e-06
1.5468e-05
-1.84847e-05
1.50452e-05
-3.30008e-05
1.45161e-05
-4.69697e-05
1.39689e-05
-6.02767e-05
1.3307e-05
-7.29614e-05
1.26847e-05
-8.49256e-05
1.19642e-05
-9.6217e-05
1.12914e-05
-0.000106766
1.05492e-05
-0.000116663
9.89715e-06
-0.000125838
9.17464e-06
-0.000134303
8.46546e-06
-0.000142153
7.84997e-06
-0.00014927
7.11691e-06
-0.000155838
6.56767e-06
-0.00016173
5.89189e-06
-0.000167103
5.37327e-06
-0.000171843
4.73972e-06
-0.000176159
4.31593e-06
-0.000179833
3.67419e-06
-0.000183092
3.25838e-06
-0.000185804
2.71212e-06
-0.00018805
2.24669e-06
-0.000189774
1.72321e-06
-0.000191061
1.28691e-06
-0.000191789
7.28689e-07
-0.000192084
2.94381e-07
-0.000191801
-2.8274e-07
-0.000191086
-7.15661e-07
-0.000189735
-1.35079e-06
-0.000187846
-1.88888e-06
-0.000185355
-2.49071e-06
-0.000182285
-3.0699e-06
-0.000178568
-3.7173e-06
-0.00017417
-4.3981e-06
-0.000169101
-5.06901e-06
-0.000163325
-5.77629e-06
-0.000156838
-6.48701e-06
-0.000149536
-7.3021e-06
-0.000141529
-8.00723e-06
-0.000132634
-8.89465e-06
-0.00012302
-9.61363e-06
-0.000112551
-1.04692e-05
-0.000101365
-1.1186e-05
-8.92955e-05
-1.20698e-05
-7.657e-05
-1.27255e-05
-6.31083e-05
-1.34617e-05
-4.91001e-05
-1.40082e-05
-3.44347e-05
-1.46654e-05
-1.93363e-05
-1.50985e-05
-3.79427e-06
-1.5542e-05
1.20846e-05
-1.58789e-05
2.82291e-05
-1.61446e-05
4.45139e-05
-1.62848e-05
6.08314e-05
-1.63175e-05
7.7048e-05
-1.62167e-05
9.30382e-05
-1.59902e-05
0.000108678
-1.56402e-05
0.000123815
-1.51368e-05
0.000138326
-1.45111e-05
0.000152067
-1.37413e-05
0.00016491
-1.28425e-05
0.000176721
-1.18114e-05
0.000187377
-1.06561e-05
0.000196755
-9.37764e-06
0.000204748
-7.99354e-06
0.000211264
-6.51522e-06
0.000216223
-4.95948e-06
0.000219563
-3.34009e-06
0.00022124
-1.67693e-06
0.000221244
-3.58373e-09
0.000219534
1.70966e-06
0.000216104
3.42988e-06
0.000211019
5.08504e-06
0.000204386
6.63266e-06
0.000196286
8.10009e-06
0.000186794
9.49245e-06
0.000176065
1.07292e-05
0.000164186
1.18786e-05
0.000151305
1.28814e-05
0.000137563
1.3742e-05
0.000123085
1.44779e-05
0.000108017
1.50676e-05
9.25261e-05
1.54909e-05
7.67159e-05
1.58102e-05
6.07286e-05
1.59874e-05
4.47244e-05
1.60042e-05
2.87556e-05
1.59688e-05
1.30201e-05
1.57354e-05
-2.41335e-06
1.54335e-05
-1.74663e-05
1.5053e-05
-3.20739e-05
1.46075e-05
-4.61581e-05
1.40842e-05
-5.97012e-05
1.35432e-05
-7.26037e-05
1.29025e-05
-8.49057e-05
1.2302e-05
-9.65252e-05
1.16194e-05
-0.00010754
1.10152e-05
-0.000117903
1.03628e-05
-0.000127632
9.72914e-06
-0.000136718
9.08587e-06
-0.000145046
8.32759e-06
-0.000152707
7.66111e-06
-0.000159592
6.88552e-06
-0.000165846
6.2539e-06
-0.00017132
5.47329e-06
-0.000176165
4.84496e-06
-0.000180261
4.09649e-06
-0.000183751
3.48944e-06
-0.0001866
2.84919e-06
-0.000188841
2.24102e-06
-0.000190537
1.69616e-06
-0.000191651
1.11371e-06
-0.000192326
6.75255e-07
-0.000192431
1.05063e-07
-0.000192115
-3.16149e-07
-0.000191234
-8.81039e-07
-0.000189922
-1.31151e-06
-0.000188151
-1.77181e-06
-0.000185901
-2.24981e-06
-0.000183205
-2.69555e-06
-0.000180071
-3.1344e-06
-0.000176439
-3.63162e-06
-0.000172303
-4.13594e-06
-0.000167614
-4.68903e-06
-0.000162387
-5.22701e-06
-0.000156593
-5.79425e-06
-0.000150155
-6.43766e-06
-0.00014321
-6.94579e-06
-0.000135479
-7.73007e-06
-0.000127192
-8.28754e-06
-0.000118151
-9.04111e-06
-0.000108441
-9.70945e-06
-9.78613e-05
-1.05801e-05
-8.67307e-05
-1.11306e-05
-7.49244e-05
-1.18064e-05
-6.22932e-05
-1.26312e-05
-4.80323e-05
-1.42609e-05
-3.29041e-05
-1.51282e-05
-1.84487e-05
-1.44554e-05
-6.5713e-06
-1.18775e-05
1.33902e-06
-7.91033e-06
4.76575e-06
-3.42673e-06
8.76504e-06
-3.9993e-06
5.36927e-06
3.39577e-06
-3.95249e-06
9.32175e-06
-0.000122152
1.81252e-05
-0.000130628
1.69531e-05
-0.000138568
1.58796e-05
-0.000145967
1.47963e-05
-0.000152841
1.37484e-05
-0.000159191
1.26993e-05
-0.000165023
1.16644e-05
-0.00017034
1.06339e-05
-0.00017514
9.59956e-06
-0.000179425
8.56922e-06
-0.000183187
7.52427e-06
-0.000186426
6.47732e-06
-0.000189131
5.41131e-06
-0.000191296
4.33036e-06
-0.000192902
3.20916e-06
-0.000193933
2.0589e-06
-0.000194402
9.40138e-07
-0.000194267
-2.71401e-07
-0.00019351
-1.51538e-06
-0.000192169
-2.68422e-06
-0.000190146
-4.04685e-06
-0.000187535
-5.2212e-06
-0.000184197
-6.67902e-06
-0.000180251
-7.8931e-06
-0.000175546
-9.41193e-06
-0.000170171
-1.07484e-05
-0.000164019
-1.23083e-05
-0.000157177
-1.36841e-05
-0.000149492
-1.53724e-05
-0.000141136
-1.67096e-05
-0.000131889
-1.84969e-05
-0.000121968
-1.98391e-05
-0.000111094
-2.17466e-05
-9.948e-05
-2.32261e-05
-8.72342e-05
-2.44899e-05
-7.41763e-05
-2.61126e-05
-6.05026e-05
-2.73452e-05
-4.60675e-05
-2.88678e-05
-3.11214e-05
-2.98882e-05
-1.55545e-05
-3.11256e-05
3.66049e-07
-3.18407e-05
1.67962e-05
-3.28576e-05
3.34386e-05
-3.32795e-05
5.03479e-05
-3.38122e-05
6.72488e-05
-3.37952e-05
8.41642e-05
-3.38227e-05
0.000100833
-3.33283e-05
0.000117197
-3.27171e-05
0.000133025
-3.16456e-05
0.000148231
-3.0401e-05
0.000162621
-2.87692e-05
0.000175966
-2.66825e-05
0.000188199
-2.44573e-05
0.000199132
-2.18561e-05
0.000208675
-1.9081e-05
0.000216652
-1.5949e-05
0.000223049
-1.27849e-05
0.000227693
-9.28297e-06
0.000230608
-5.82835e-06
0.00023172
-2.2194e-06
0.000231081
1.26715e-06
0.000228598
4.9619e-06
0.000224415
8.37101e-06
0.000218502
1.1825e-05
0.000211093
1.48147e-05
0.000202124
1.79288e-05
0.000191845
2.05536e-05
0.000180241
2.31995e-05
0.000167576
2.53212e-05
0.000153963
2.72172e-05
0.000139497
2.89247e-05
0.00012438
3.02242e-05
0.000108773
3.12056e-05
9.27624e-05
3.2013e-05
7.65089e-05
3.24973e-05
6.02119e-05
3.25858e-05
4.39414e-05
3.25337e-05
2.78647e-05
3.21473e-05
1.20123e-05
3.16957e-05
-3.46043e-06
3.09407e-05
-1.85121e-05
3.00969e-05
-3.30338e-05
2.90378e-05
-4.70083e-05
2.79433e-05
-6.03202e-05
2.66189e-05
-7.30073e-05
2.53718e-05
-8.49762e-05
2.39331e-05
-9.62696e-05
2.25849e-05
-0.00010682
2.10998e-05
-0.000116719
1.97956e-05
-0.000125894
1.83503e-05
-0.000134359
1.69303e-05
-0.000142212
1.57024e-05
-0.000149328
1.42328e-05
-0.000155895
1.31347e-05
-0.000161785
1.17822e-05
-0.00016716
1.07483e-05
-0.000171895
9.47456e-06
-0.000176213
8.63445e-06
-0.000179885
7.34591e-06
-0.000183143
6.51576e-06
-0.000185856
5.42583e-06
-0.000188105
4.49561e-06
-0.000189824
3.44192e-06
-0.000191114
2.5765e-06
-0.000191843
1.45824e-06
-0.000192137
5.88328e-07
-0.000191861
-5.59034e-07
-0.000191142
-1.4346e-06
-0.000189798
-2.69471e-06
-0.000187915
-3.77237e-06
-0.000185424
-4.98156e-06
-0.000182353
-6.14066e-06
-0.000178634
-7.43668e-06
-0.000174235
-8.79722e-06
-0.000169171
-1.01333e-05
-0.000163378
-1.15694e-05
-0.000156891
-1.29736e-05
-0.000149584
-1.46091e-05
-0.000141577
-1.60142e-05
-0.000132681
-1.77911e-05
-0.000123067
-1.92269e-05
-0.000112597
-2.09394e-05
-0.000101416
-2.23673e-05
-8.93445e-05
-2.41412e-05
-7.66141e-05
-2.5456e-05
-6.31447e-05
-2.69311e-05
-4.91356e-05
-2.80172e-05
-3.44706e-05
-2.93305e-05
-1.93654e-05
-3.02037e-05
-3.81594e-06
-3.10915e-05
1.20744e-05
-3.17692e-05
2.82273e-05
-3.22975e-05
4.45193e-05
-3.25768e-05
6.08446e-05
-3.26429e-05
7.70693e-05
-3.24413e-05
9.30659e-05
-3.19869e-05
0.000108715
-3.1289e-05
0.000123861
-3.02835e-05
0.000138381
-2.90304e-05
0.00015213
-2.74903e-05
0.000164982
-2.56952e-05
0.000176804
-2.36327e-05
0.000187466
-2.13183e-05
0.00019685
-1.87616e-05
0.000204849
-1.59925e-05
0.000211369
-1.3036e-05
0.000216329
-9.91954e-06
0.000219673
-6.68342e-06
0.000221349
-3.35285e-06
0.000221345
-2.29526e-10
0.000219626
3.42866e-06
0.000216198
6.85788e-06
0.000211119
1.01639e-05
0.000204485
1.32673e-05
0.000196376
1.62091e-05
0.000186881
1.89871e-05
0.000176146
2.14642e-05
0.000164254
2.37707e-05
0.000151359
2.57758e-05
0.000137603
2.74981e-05
0.000123111
2.89706e-05
0.000108028
3.01506e-05
9.2522e-05
3.09964e-05
7.67035e-05
3.16287e-05
6.07061e-05
3.19848e-05
4.47017e-05
3.20086e-05
2.87274e-05
3.19431e-05
1.29791e-05
3.14837e-05
-2.46172e-06
3.08744e-05
-1.75224e-05
3.01137e-05
-3.21345e-05
2.92196e-05
-4.6223e-05
2.81727e-05
-5.97757e-05
2.70958e-05
-7.26812e-05
2.5808e-05
-8.4983e-05
2.46037e-05
-9.6589e-05
2.32254e-05
-0.000107615
2.20414e-05
-0.000117986
2.07333e-05
-0.00012773
1.94733e-05
-0.000136813
1.81693e-05
-0.000145143
1.66572e-05
-0.000152801
1.5319e-05
-0.000159683
1.37681e-05
-0.00016594
1.25107e-05
-0.000171411
1.09445e-05
-0.000176257
9.69063e-06
-0.000180355
8.19446e-06
-0.000183847
6.981e-06
-0.000186689
5.69121e-06
-0.000188923
4.47528e-06
-0.000190619
3.39268e-06
-0.000191713
2.20703e-06
-0.000192389
1.35131e-06
-0.000192482
1.98642e-07
-0.000192165
-6.33632e-07
-0.000191281
-1.76465e-06
-0.000189966
-2.6268e-06
-0.00018819
-3.54757e-06
-0.000185942
-4.49761e-06
-0.00018325
-5.38754e-06
-0.000180113
-6.27162e-06
-0.000176492
-7.25261e-06
-0.000172363
-8.26497e-06
-0.000167676
-9.37625e-06
-0.000162448
-1.04549e-05
-0.000156656
-1.15861e-05
-0.000150216
-1.28782e-05
-0.00014327
-1.38914e-05
-0.000135535
-1.54652e-05
-0.000127243
-1.65792e-05
-0.000118199
-1.8085e-05
-0.000108502
-1.94074e-05
-9.79407e-05
-2.11409e-05
-8.66868e-05
-2.23845e-05
-7.47419e-05
-2.37514e-05
-6.24101e-05
-2.4963e-05
-4.8846e-05
-2.78251e-05
-3.37751e-05
-3.01991e-05
-1.80167e-05
-3.02137e-05
-3.7125e-06
-2.61817e-05
7.41623e-06
-1.90391e-05
1.64747e-05
-1.24852e-05
2.72072e-05
-1.47318e-05
2.9795e-05
8.07921e-07
-9.3892e-06
3.52317e-05
-0.000122216
2.71897e-05
-0.000130693
2.54302e-05
-0.000138633
2.38194e-05
-0.00014603
2.21937e-05
-0.000152902
2.062e-05
-0.000159251
1.90491e-05
-0.000165083
1.74959e-05
-0.000170398
1.59494e-05
-0.000175197
1.43986e-05
-0.000179481
1.28527e-05
-0.000183242
1.12854e-05
-0.000186481
9.71578e-06
-0.000189186
8.11635e-06
-0.00019135
6.49431e-06
-0.000192958
4.81719e-06
-0.000194
3.10112e-06
-0.000194469
1.40911e-06
-0.000194334
-4.06548e-07
-0.000193579
-2.27027e-06
-0.00019224
-4.02324e-06
-0.000190217
-6.06929e-06
-0.000187607
-7.83101e-06
-0.000184274
-1.00124e-05
-0.000180329
-1.18384e-05
-0.000175624
-1.41167e-05
-0.000170247
-1.61251e-05
-0.000164104
-1.8452e-05
-0.000157262
-2.05256e-05
-0.000149582
-2.30527e-05
-0.000141223
-2.50682e-05
-0.00013198
-2.77402e-05
-0.000122056
-2.97632e-05
-0.000111179
-3.26233e-05
-9.95635e-05
-3.48417e-05
-8.73165e-05
-3.6737e-05
-7.4254e-05
-3.91751e-05
-6.05772e-05
-4.1022e-05
-4.61382e-05
-4.33069e-05
-3.11861e-05
-4.48403e-05
-1.56053e-05
-4.67063e-05
3.17252e-07
-4.77633e-05
1.67562e-05
-4.92965e-05
3.34086e-05
-4.9932e-05
5.03302e-05
-5.07338e-05
6.72452e-05
-5.07102e-05
8.41744e-05
-5.07519e-05
0.000100861
-5.00153e-05
0.00011724
-4.90958e-05
0.000133088
-4.74933e-05
0.00014831
-4.56237e-05
0.000162719
-4.31776e-05
0.000176079
-4.00424e-05
0.000188327
-3.67061e-05
0.000199272
-3.28003e-05
0.000208827
-2.86368e-05
0.000216814
-2.39354e-05
0.000223219
-1.91903e-05
0.000227876
-1.39393e-05
0.000230794
-8.74681e-06
0.000231912
-3.33713e-06
0.000231254
1.92492e-06
0.000228771
7.44499e-06
0.000224594
1.25474e-05
0.000218681
1.77382e-05
0.00021126
2.22356e-05
0.000202274
2.69149e-05
0.000191984
3.08439e-05
0.000180367
3.4816e-05
0.000167686
3.80028e-05
0.000154056
4.08466e-05
0.000139577
4.34035e-05
0.000124442
4.53597e-05
0.000108817
4.68306e-05
9.27896e-05
4.80402e-05
7.65197e-05
4.87672e-05
6.02073e-05
4.88981e-05
4.39244e-05
4.88166e-05
2.78361e-05
4.82356e-05
1.19671e-05
4.75646e-05
-3.51113e-06
4.64189e-05
-1.85716e-05
4.51574e-05
-3.31003e-05
4.35665e-05
-4.70799e-05
4.1923e-05
-6.03981e-05
3.9937e-05
-7.3086e-05
3.80597e-05
-8.50596e-05
3.59067e-05
-9.63552e-05
3.38804e-05
-0.000106904
3.16485e-05
-0.000116802
2.96935e-05
-0.000125978
2.75265e-05
-0.00013444
2.5392e-05
-0.000142296
2.35583e-05
-0.000149409
2.13458e-05
-0.000155975
1.97012e-05
-0.000161862
1.76686e-05
-0.000167239
1.61256e-05
-0.00017197
1.4205e-05
-0.000176283
1.29481e-05
-0.000179951
1.10136e-05
-0.000183204
9.76893e-06
-0.000185919
8.14042e-06
-0.000188172
6.74853e-06
-0.000189883
5.15302e-06
-0.00019118
3.87362e-06
-0.000191911
2.18864e-06
-0.000192205
8.82314e-07
-0.000191932
-8.31596e-07
-0.000191217
-2.15036e-06
-0.000189887
-4.02398e-06
-0.000188017
-5.64321e-06
-0.00018553
-7.46822e-06
-0.000182469
-9.20183e-06
-0.000178754
-1.11511e-05
-0.000174356
-1.31962e-05
-0.000169302
-1.51871e-05
-0.000163485
-1.73866e-05
-0.000157001
-1.94571e-05
-0.000149687
-2.19233e-05
-0.00014169
-2.40114e-05
-0.000132793
-2.66875e-05
-0.000123191
-2.88292e-05
-0.000112713
-3.14173e-05
-0.000101548
-3.35326e-05
-8.9472e-05
-3.62171e-05
-7.67315e-05
-3.81965e-05
-6.32499e-05
-4.04127e-05
-4.92375e-05
-4.20297e-05
-3.45793e-05
-4.39887e-05
-1.94622e-05
-4.53208e-05
-3.89484e-06
-4.66589e-05
1.20143e-05
-4.76784e-05
2.81819e-05
-4.84652e-05
4.44899e-05
-4.88849e-05
6.08297e-05
-4.89827e-05
7.70739e-05
-4.86855e-05
9.30869e-05
-4.79999e-05
0.000108756
-4.69585e-05
0.000123924
-4.54511e-05
0.000138463
-4.35701e-05
0.000152224
-4.12512e-05
0.000165099
-3.85697e-05
0.000176933
-3.54669e-05
0.000187608
-3.19933e-05
0.000197007
-2.81606e-05
0.000205016
-2.40021e-05
0.000211548
-1.95674e-05
0.000216512
-1.48835e-05
0.000219858
-1.00297e-05
0.000221527
-5.02145e-06
0.000221501
2.53358e-08
0.000219763
5.16643e-06
0.000216336
1.02854e-05
0.000211262
1.52375e-05
0.000204623
1.99068e-05
0.000196508
2.43239e-05
0.000187009
2.84857e-05
0.000176245
3.22279e-05
0.000164341
3.56749e-05
0.000151427
3.86904e-05
0.000137645
4.128e-05
0.000123126
4.34894e-05
0.000108018
4.52584e-05
9.24915e-05
4.6523e-05
7.66642e-05
4.7456e-05
6.06521e-05
4.79969e-05
4.46421e-05
4.80185e-05
2.86649e-05
4.79203e-05
1.29025e-05
4.72461e-05
-2.54535e-06
4.63222e-05
-1.7611e-05
4.51794e-05
-3.22236e-05
4.38322e-05
-4.63111e-05
4.22602e-05
-5.98775e-05
4.06623e-05
-7.28016e-05
3.87321e-05
-8.50841e-05
3.68863e-05
-9.66858e-05
3.48271e-05
-0.0001077
3.30554e-05
-0.000118085
3.11183e-05
-0.000127859
2.92473e-05
-0.000136927
2.72371e-05
-0.00014525
2.49807e-05
-0.000152907
2.29764e-05
-0.000159808
2.06686e-05
-0.000166044
1.87461e-05
-0.000171513
1.64143e-05
-0.00017636
1.45369e-05
-0.000180454
1.2289e-05
-0.00018395
1.04773e-05
-0.00018679
8.53094e-06
-0.000189016
6.70128e-06
-0.000190715
5.09107e-06
-0.000191791
3.28375e-06
-0.000192459
2.01901e-06
-0.000192532
2.717e-07
-0.00019222
-9.45854e-07
-0.000191335
-2.64907e-06
-0.000190023
-3.93902e-06
-0.000188245
-5.32621e-06
-0.000186003
-6.73942e-06
-0.000183322
-8.06833e-06
-0.000180178
-9.41541e-06
-0.000176588
-1.08427e-05
-0.000172473
-1.23796e-05
-0.000167795
-1.40549e-05
-0.000162572
-1.56782e-05
-0.00015679
-1.73678e-05
-0.000150371
-1.92972e-05
-0.00014341
-2.08523e-05
-0.000135673
-2.32021e-05
-0.000127376
-2.48764e-05
-0.000118319
-2.71423e-05
-0.000108615
-2.91105e-05
-9.80672e-05
-3.16892e-05
-8.68333e-05
-3.36184e-05
-7.47114e-05
-3.58733e-05
-6.22972e-05
-3.73772e-05
-4.92454e-05
-4.08769e-05
-3.49123e-05
-4.45322e-05
-1.83271e-05
-4.6799e-05
-9.1631e-07
-4.35925e-05
1.57714e-05
-3.57268e-05
3.03043e-05
-2.70181e-05
4.33443e-05
-2.77718e-05
4.87785e-05
-4.62625e-06
-1.35762e-05
5.29655e-05
-0.00012231
3.62542e-05
-0.000130787
3.39068e-05
-0.000138726
3.17587e-05
-0.000146123
2.95902e-05
-0.000152991
2.74886e-05
-0.000159341
2.53991e-05
-0.000165171
2.33261e-05
-0.000170484
2.12619e-05
-0.000175284
1.91982e-05
-0.000179565
1.71342e-05
-0.000183326
1.50459e-05
-0.000186565
1.29557e-05
-0.00018927
1.0821e-05
-0.000191434
8.65809e-06
-0.000193045
6.42838e-06
-0.0001941
4.15571e-06
-0.000194571
1.88039e-06
-0.000194433
-5.44016e-07
-0.000193682
-3.02211e-06
-0.000192345
-5.36013e-06
-0.000190324
-8.08965e-06
-0.000187715
-1.04402e-05
-0.000184388
-1.334e-05
-0.000180444
-1.57819e-05
-0.00017574
-1.88207e-05
-0.00017036
-2.15057e-05
-0.00016423
-2.45819e-05
-0.000157389
-2.73663e-05
-0.000149715
-3.07268e-05
-0.000141354
-3.34295e-05
-0.000132116
-3.69781e-05
-0.000122188
-3.96911e-05
-0.000111307
-4.35039e-05
-9.96879e-05
-4.64611e-05
-8.74396e-05
-4.89853e-05
-7.437e-05
-5.22447e-05
-6.06887e-05
-5.47033e-05
-4.62432e-05
-5.77524e-05
-3.12828e-05
-5.98007e-05
-1.56811e-05
-6.23081e-05
2.46098e-07
-6.36905e-05
1.6701e-05
-6.57515e-05
3.33699e-05
-6.66008e-05
5.03099e-05
-6.76738e-05
6.72472e-05
-6.76475e-05
8.41968e-05
-6.77016e-05
0.000100912
-6.673e-05
0.000117313
-6.54974e-05
0.000133194
-6.33737e-05
0.000148438
-6.08679e-05
0.000162874
-5.76136e-05
0.000176258
-5.34263e-05
0.000188531
-4.89794e-05
0.000199493
-4.37627e-05
0.000209067
-3.8211e-05
0.000217068
-3.19365e-05
0.000223484
-2.56063e-05
0.00022815
-1.86053e-05
0.000231081
-1.1677e-05
0.000232201
-4.45754e-06
0.000231526
2.59943e-06
0.000229042
9.92936e-06
0.000224867
1.67223e-05
0.000218951
2.36548e-05
0.000211512
2.96746e-05
0.0002025
3.59267e-05
0.000192181
4.11623e-05
0.000180556
4.64415e-05
0.00016785
5.07084e-05
0.000154195
5.45013e-05
0.0001397
5.78993e-05
0.000124536
6.05233e-05
0.000108882
6.24848e-05
9.28303e-05
6.40916e-05
7.65366e-05
6.50608e-05
6.02007e-05
6.52341e-05
4.38996e-05
6.51177e-05
2.77934e-05
6.43418e-05
1.19008e-05
6.34572e-05
-3.58706e-06
6.19068e-05
-1.86604e-05
6.02308e-05
-3.31989e-05
5.8105e-05
-4.7183e-05
5.59071e-05
-6.05139e-05
5.32679e-05
-7.32102e-05
5.07559e-05
-8.51833e-05
4.78799e-05
-9.6482e-05
4.51791e-05
-0.000107029
4.21951e-05
-0.000116925
3.95903e-05
-0.000126102
3.67031e-05
-0.00013456
3.38503e-05
-0.000142417
3.14147e-05
-0.000149526
2.8455e-05
-0.000156091
2.62666e-05
-0.000161968
2.35458e-05
-0.000167352
2.15096e-05
-0.000172082
1.89343e-05
-0.000176384
1.72505e-05
-0.000180051
1.46807e-05
-0.000183301
1.30186e-05
-0.000186012
1.08517e-05
-0.000188274
9.01005e-06
-0.000189977
6.8559e-06
-0.000191278
5.17428e-06
-0.000192005
2.91645e-06
-0.000192305
1.18136e-06
-0.000192038
-1.0982e-06
-0.000191323
-2.86577e-06
-0.000190004
-5.34228e-06
-0.000188154
-7.49343e-06
-0.000185671
-9.951e-06
-0.000182623
-1.22506e-05
-0.000178913
-1.48606e-05
-0.000174517
-1.75924e-05
-0.000169473
-2.02311e-05
-0.000163641
-2.32185e-05
-0.000157161
-2.5937e-05
-0.000149846
-2.92384e-05
-0.00014186
-3.19978e-05
-0.000132961
-3.55865e-05
-0.000123363
-3.84273e-05
-0.000112857
-4.19227e-05
-0.000101734
-4.46558e-05
-8.96429e-05
-4.83084e-05
-7.6888e-05
-5.09514e-05
-6.34066e-05
-5.38941e-05
-4.93824e-05
-5.60539e-05
-3.47224e-05
-5.86487e-05
-1.95918e-05
-6.04514e-05
-4.00419e-06
-6.22465e-05
1.19371e-05
-6.36197e-05
2.81226e-05
-6.46507e-05
4.4452e-05
-6.52143e-05
6.08099e-05
-6.53406e-05
7.70813e-05
-6.49569e-05
9.3119e-05
-6.40376e-05
0.000108817
-6.26567e-05
0.000124012
-6.06455e-05
0.000138581
-5.81395e-05
0.000152372
-5.50427e-05
0.000165265
-5.14619e-05
0.000177121
-4.73235e-05
0.000187815
-4.26871e-05
0.000197237
-3.75827e-05
0.000205265
-3.20305e-05
0.000211817
-2.61184e-05
0.000216784
-1.9851e-05
0.000220136
-1.33816e-05
0.000221793
-6.67885e-06
0.000221741
7.78358e-08
0.000219987
6.92047e-06
0.000216559
1.37132e-05
0.000211486
2.031e-05
0.000204839
2.65539e-05
0.000196707
3.2456e-05
0.000187183
3.801e-05
0.000176394
4.30164e-05
0.000164472
4.75976e-05
0.000151532
5.163e-05
0.00013772
5.50922e-05
0.000123171
5.80385e-05
0.000108033
6.03964e-05
9.24745e-05
6.20814e-05
7.66123e-05
6.33182e-05
6.05929e-05
6.40162e-05
4.45668e-05
6.40447e-05
2.85831e-05
6.3904e-05
1.2819e-05
6.30102e-05
-2.66222e-06
6.18034e-05
-1.77308e-05
6.0248e-05
-3.23476e-05
5.8449e-05
-4.64511e-05
5.63637e-05
-6.00224e-05
5.42335e-05
-7.29581e-05
5.16678e-05
-8.52298e-05
4.9158e-05
-9.68205e-05
4.64177e-05
-0.000107821
4.4056e-05
-0.000118231
4.15279e-05
-0.000128031
3.90478e-05
-0.000137085
3.62911e-05
-0.000145395
3.32906e-05
-0.000153049
3.06302e-05
-0.000159965
2.75853e-05
-0.000166178
2.49586e-05
-0.000171649
2.18855e-05
-0.000176499
1.93871e-05
-0.000180584
1.63738e-05
-0.000184091
1.39842e-05
-0.000186922
1.13623e-05
-0.000189142
8.92055e-06
-0.000190847
6.79643e-06
-0.000191905
4.34147e-06
-0.000192566
2.68056e-06
-0.000192617
3.22138e-07
-0.000192319
-1.24376e-06
-0.00019144
-3.5278e-06
-0.000190121
-5.25827e-06
-0.00018833
-7.11667e-06
-0.000186101
-8.96891e-06
-0.000183437
-1.07324e-05
-0.000180286
-1.2566e-05
-0.000176706
-1.44228e-05
-0.000172617
-1.64684e-05
-0.000167947
-1.87249e-05
-0.000162733
-2.0893e-05
-0.000156954
-2.31459e-05
-0.000150565
-2.56864e-05
-0.000143584
-2.78337e-05
-0.00013588
-3.09057e-05
-0.000127555
-3.32017e-05
-0.000118485
-3.62123e-05
-0.000108774
-3.88214e-05
-9.82185e-05
-4.2245e-05
-8.70128e-05
-4.4824e-05
-7.48394e-05
-4.80467e-05
-6.22455e-05
-4.99711e-05
-4.92583e-05
-5.3864e-05
-3.54234e-05
-5.83671e-05
-1.95677e-05
-6.26546e-05
-1.03391e-06
-6.21263e-05
1.90154e-05
-5.5776e-05
3.7104e-05
-4.51068e-05
5.29799e-05
-4.36476e-05
6.07179e-05
-1.23643e-05
-1.60082e-05
6.31499e-05
-0.000122435
4.53174e-05
-0.00013091
4.23816e-05
-0.000138848
3.96964e-05
-0.000146244
3.69869e-05
-0.000153119
3.4363e-05
-0.000159461
3.17412e-05
-0.000165288
2.91538e-05
-0.000170601
2.65749e-05
-0.0001754
2.39966e-05
-0.000179683
2.14175e-05
-0.000183444
1.88072e-05
-0.000186683
1.61941e-05
-0.000189387
1.35255e-05
-0.000191553
1.08238e-05
-0.000193168
8.0436e-06
-0.000194229
5.21596e-06
-0.000194705
2.35669e-06
-0.000194567
-6.81533e-07
-0.000193819
-3.77043e-06
-0.000192484
-6.69488e-06
-0.000190467
-1.01072e-05
-0.000187858
-1.30488e-05
-0.000184537
-1.6661e-05
-0.000180595
-1.97236e-05
-0.000175889
-2.35269e-05
-0.000170521
-2.68739e-05
-0.000164397
-3.07059e-05
-0.000157557
-3.42063e-05
-0.000149891
-3.83931e-05
-0.000141527
-4.17935e-05
-0.000132295
-4.62098e-05
-0.000122363
-4.96232e-05
-0.000111477
-5.43894e-05
-9.98521e-05
-5.80864e-05
-8.76035e-05
-6.12339e-05
-7.45238e-05
-6.53244e-05
-6.08368e-05
-6.83903e-05
-4.63823e-05
-7.2207e-05
-3.1411e-05
-7.4772e-05
-1.57812e-05
-7.79379e-05
1.53365e-07
-7.96251e-05
1.66339e-05
-8.2232e-05
3.33263e-05
-8.32933e-05
5.02916e-05
-8.46391e-05
6.72597e-05
-8.46156e-05
8.42365e-05
-8.46784e-05
0.000100988
-8.34814e-05
0.000117421
-8.19306e-05
0.000133348
-7.93003e-05
0.000148618
-7.61387e-05
0.000163091
-7.20862e-05
0.000176511
-6.68458e-05
0.000188818
-6.12866e-05
0.000199804
-5.4749e-05
0.000209402
-4.78091e-05
0.000217424
-3.99587e-05
0.000223854
-3.20363e-05
0.000228531
-2.32819e-05
0.000231475
-1.46211e-05
0.0002326
-5.58268e-06
0.000231914
3.28581e-06
0.000229421
1.24222e-05
0.000225236
2.09075e-05
0.000219314
2.95768e-05
0.000211847
3.71407e-05
0.000202802
4.49717e-05
0.000192451
5.15141e-05
0.000180808
5.80843e-05
0.000168071
6.34447e-05
0.000154382
6.81912e-05
0.000139868
7.24127e-05
0.000124666
7.57252e-05
0.000108958
7.81927e-05
9.28849e-05
8.01652e-05
7.65616e-05
8.13841e-05
6.01929e-05
8.16028e-05
4.38685e-05
8.14421e-05
2.7737e-05
8.04733e-05
1.18148e-05
7.93794e-05
-3.68592e-06
7.74075e-05
-1.87765e-05
7.53213e-05
-3.33284e-05
7.26569e-05
-4.7323e-05
6.99017e-05
-6.06663e-05
6.66112e-05
-7.33716e-05
6.34613e-05
-8.53442e-05
5.98524e-05
-9.66466e-05
5.64815e-05
-0.000107191
5.27399e-05
-0.000117101
4.94999e-05
-0.000126263
4.58652e-05
-0.000134716
4.23026e-05
-0.00014257
3.92691e-05
-0.000149675
3.55599e-05
-0.000156235
3.2827e-05
-0.000162104
2.94143e-05
-0.000167491
2.68971e-05
-0.00017222
2.36629e-05
-0.00017651
2.15404e-05
-0.00018018
1.83511e-05
-0.000183437
1.62755e-05
-0.000186136
1.35508e-05
-0.000188408
1.12814e-05
-0.000190103
8.55115e-06
-0.000191395
6.46562e-06
-0.000192134
3.65576e-06
-0.000192439
1.48673e-06
-0.000192184
-1.35401e-06
-0.000191457
-3.59249e-06
-0.00019015
-6.64909e-06
-0.000188319
-9.32447e-06
-0.000185863
-1.24073e-05
-0.000182808
-1.53053e-05
-0.000179096
-1.85734e-05
-0.000174718
-2.19706e-05
-0.000169671
-2.52773e-05
-0.000163844
-2.90458e-05
-0.000157366
-3.24147e-05
-0.000150049
-3.65554e-05
-0.000142073
-3.99741e-05
-0.000133185
-4.44748e-05
-0.000123575
-4.80371e-05
-0.000113067
-5.24305e-05
-0.000101938
-5.57853e-05
-8.98419e-05
-6.04042e-05
-7.7109e-05
-6.36844e-05
-6.36219e-05
-6.73812e-05
-4.95563e-05
-7.01195e-05
-3.48807e-05
-7.33243e-05
-1.97388e-05
-7.55933e-05
-4.12155e-06
-7.78638e-05
1.18444e-05
-7.95856e-05
2.80574e-05
-8.08636e-05
4.44125e-05
-8.15694e-05
6.0794e-05
-8.17222e-05
7.70976e-05
-8.12605e-05
9.31656e-05
-8.01056e-05
0.000108897
-7.8388e-05
0.000124117
-7.58655e-05
0.000138724
-7.27468e-05
0.000152544
-6.88622e-05
0.000165471
-6.43891e-05
0.000177351
-5.92039e-05
0.000188073
-5.34095e-05
0.000197523
-4.70328e-05
0.000205581
-4.00878e-05
0.000212148
-3.26859e-05
0.000217137
-2.48401e-05
0.000220494
-1.67383e-05
0.000222151
-8.33575e-06
0.000222088
1.4039e-07
0.000220315
8.69292e-06
0.000216881
1.71478e-05
0.000211799
2.53923e-05
0.000205134
3.32181e-05
0.000196976
4.06142e-05
0.000187428
4.75579e-05
0.000176608
5.38368e-05
0.000164653
5.95519e-05
0.000151688
6.45953e-05
0.000137843
6.8937e-05
0.000123262
7.26199e-05
0.00010809
7.55677e-05
9.24976e-05
7.76742e-05
7.66127e-05
7.92031e-05
6.05561e-05
8.00728e-05
4.44814e-05
8.01194e-05
2.84976e-05
7.98878e-05
1.26984e-05
7.88094e-05
-2.79673e-06
7.72986e-05
-1.78714e-05
7.53227e-05
-3.25021e-05
7.30796e-05
-4.66124e-05
7.04741e-05
-6.01949e-05
6.7816e-05
-7.31339e-05
6.46068e-05
-8.54155e-05
6.14396e-05
-9.70238e-05
5.80259e-05
-0.000107991
5.50234e-05
-0.000118426
5.19622e-05
-0.000128241
4.88629e-05
-0.000137276
4.53266e-05
-0.000145578
4.15922e-05
-0.000153228
3.82808e-05
-0.000160164
3.45206e-05
-0.000166353
3.11482e-05
-0.00017184
2.73717e-05
-0.000176685
2.42321e-05
-0.000180753
2.0442e-05
-0.000184277
1.75089e-05
-0.000187084
1.41691e-05
-0.000189309
1.1145e-05
-0.000191005
8.49249e-06
-0.00019206
5.39687e-06
-0.000192718
3.33848e-06
-0.000192745
3.49124e-07
-0.000192461
-1.52743e-06
-0.000191593
-4.3962e-06
-0.000190295
-6.5568e-06
-0.000188455
-8.95574e-06
-0.000186238
-1.11864e-05
-0.000183608
-1.33624e-05
-0.000180417
-1.57574e-05
-0.000176823
-1.80167e-05
-0.000172773
-2.05178e-05
-0.000168102
-2.33964e-05
-0.000162911
-2.6084e-05
-0.000157131
-2.89259e-05
-0.000150748
-3.20697e-05
-0.000143743
-3.48379e-05
-0.000136078
-3.85706e-05
-0.000127758
-4.15225e-05
-0.000118669
-4.53011e-05
-0.000108956
-4.85342e-05
-9.8416e-05
-5.27849e-05
-8.72565e-05
-5.59836e-05
-7.50626e-05
-6.02405e-05
-6.23369e-05
-6.26968e-05
-4.93319e-05
-6.6869e-05
-3.55623e-05
-7.21368e-05
-1.98264e-05
-7.83905e-05
-1.1329e-06
-8.08198e-05
1.97058e-05
-7.66147e-05
3.8989e-05
-6.439e-05
5.61049e-05
-6.07635e-05
6.63706e-05
-2.26301e-05
-2.01481e-05
7.05105e-05
-0.00012259
5.43783e-05
-0.000131062
5.08536e-05
-0.000138998
4.76319e-05
-0.000146392
4.43814e-05
-0.00015326
4.12311e-05
-0.000159605
3.80865e-05
-0.000165433
3.49811e-05
-0.000170746
3.18883e-05
-0.000175544
2.87946e-05
-0.00017983
2.57036e-05
-0.000183592
2.2569e-05
-0.000186831
1.94327e-05
-0.000189535
1.62299e-05
-0.000191703
1.29917e-05
-0.000193325
9.66592e-06
-0.000194388
6.27874e-06
-0.000194871
2.83974e-06
-0.000194738
-8.14776e-07
-0.000193991
-4.51725e-06
-0.000192659
-8.02749e-06
-0.000190644
-1.21222e-05
-0.000188035
-1.56573e-05
-0.000184723
-1.99735e-05
-0.000180778
-2.36685e-05
-0.000176068
-2.82365e-05
-0.000170741
-3.22011e-05
-0.000164602
-3.68447e-05
-0.000157765
-4.10432e-05
-0.000150109
-4.60495e-05
-0.000141742
-5.01607e-05
-0.000132517
-5.54345e-05
-0.00012258
-5.95607e-05
-0.000111688
-6.52808e-05
-0.000100053
-6.97219e-05
-8.7808e-05
-7.34786e-05
-7.47136e-05
-7.84189e-05
-6.1021e-05
-8.20829e-05
-4.65553e-05
-8.66727e-05
-3.15709e-05
-8.97564e-05
-1.59396e-05
-9.35692e-05
3.82224e-08
-9.56029e-05
1.65523e-05
-9.87461e-05
3.32748e-05