/*--------------------------------*- C++ -*----------------------------------*\
| =========                 |                                                 |
| \\      /  F ield         | OpenFOAM: The Open Source CFD Toolbox           |
|  \\    /   O peration     | Version:  3.0.1                                 |
|   \\  /    A nd           | Web:      www.OpenFOAM.org                      |
|    \\/     M anipulation  |                                                 |
\*---------------------------------------------------------------------------*/
FoamFile
{
    version     2.0;
    format      ascii;
    class       volScalarField;
    location    "30";
    object      p;
}
// * * * * * * * * * * * * * * * * * * * * * * * * * * * * * * * * * * * * * //

dimensions      [1 -1 -2 0 0 0 0];

internalField   nonuniform List<scalar> 
22680
(
3617.63
3605.55
3594.9
3585.64
3577.74
3571.14
3565.77
3561.57
3558.47
3556.42
3555.35
3555.22
3555.96
3557.54
3559.93
3563.08
3566.98
3571.63
3577.04
3583.2
3590.13
3597.85
3606.39
3615.8
3626.11
3637.39
3649.67
3663.01
3677.47
3693.08
3709.89
3727.91
3747.17
3767.64
3789.31
3812.11
3835.97
3860.76
3886.33
3912.5
3939.04
3972.23
3999.43
4026.75
4053.86
4080.5
4106.33
4131.11
4154.52
4176.31
4196.25
4214.08
4229.66
4242.8
4253.38
4261.3
4266.49
4268.91
4268.57
4265.49
4259.67
4251.34
4240.52
4227.29
4211.85
4194.37
4175.01
4153.97
4131.45
4107.63
4082.72
4056.93
4030.47
4003.54
3976.31
3948.99
3921.73
3894.71
3868.07
3842.01
3817.17
3792.72
3769.12
3746.48
3724.88
3704.41
3685.12
3667.05
3650.25
3634.72
3620.51
3607.61
3596.03
3585.77
3576.83
3569.22
3562.92
3557.94
3554.25
3551.86
3550.75
3550.9
3552.29
3554.88
3558.65
3563.56
3569.57
3576.63
3584.69
3593.71
3603.67
3614.53
3626.26
3638.82
3652.2
3666.37
3681.33
3697.05
3713.54
3730.78
3748.75
3767.45
3786.86
3806.96
3827.72
3849.11
3871.07
3893.58
3916.56
3939.93
3963.64
3987.54
4011.52
4035.44
4059.16
4082.5
4105.28
4127.31
4148.37
4168.25
4186.73
4203.59
4218.62
4231.61
4242.37
4250.72
4256.52
4259.64
4259.99
4257.47
4252.13
4243.96
4233.03
4219.4
4203.22
4184.67
4163.93
4141.25
4116.88
4091.07
4064.13
4036.34
4007.99
3979.36
3950.73
3922.38
3894.53
3867.42
3841.25
3816.19
3792.37
3769.9
3748.88
3729.33
3711.3
3694.77
3679.73
3666.11
3653.88
3642.94
3633.23
3624.67
3617.18
3610.67
3605.08
3600.34
3596.4
3593.21
3590.76
3589.01
3587.96
3587.6
3587.95
3589.02
3590.84
3593.41
3596.75
3600.91
3605.9
3611.78
3618.58
3626.34
3635.13
3644.97
3655.91
3667.99
3681.22
3695.62
3711.21
3727.97
3745.89
3764.93
3785.03
3806.15
3828.19
3851.07
3874.69
3898.9
3923.54
3948.36
3973.1
3997.19
4020.73
4042.78
4063.71
3519.44
3507.36
3496.71
3487.46
3479.56
3472.97
3467.6
3463.4
3460.31
3458.26
3457.2
3457.07
3457.82
3459.4
3461.79
3464.94
3468.84
3473.49
3478.9
3485.06
3491.98
3499.7
3508.24
3517.65
3527.96
3539.23
3551.5
3564.85
3579.3
3594.91
3611.71
3629.73
3648.99
3669.46
3691.13
3713.94
3737.79
3762.59
3788.17
3814.35
3840.9
3874.08
3901.29
3928.63
3955.75
3982.41
4008.26
4033.05
4056.48
4078.29
4098.24
4116.09
4131.68
4144.83
4155.42
4163.35
4168.54
4170.97
4170.62
4167.54
4161.73
4153.38
4142.54
4129.31
4113.86
4096.36
4076.99
4055.94
4033.4
4009.57
3984.64
3958.84
3932.37
3905.42
3878.19
3850.85
3823.59
3796.56
3769.92
3743.85
3718.99
3694.55
3670.94
3648.3
3626.7
3606.23
3586.94
3568.87
3552.06
3536.54
3522.33
3509.43
3497.85
3487.59
3478.66
3471.04
3464.75
3459.76
3456.08
3453.69
3452.58
3452.73
3454.12
3456.71
3460.48
3465.39
3471.41
3478.47
3486.53
3495.56
3505.52
3516.38
3528.11
3540.67
3554.05
3568.22
3583.18
3598.91
3615.39
3632.63
3650.6
3669.3
3688.71
3708.81
3729.57
3750.95
3772.92
3795.43
3818.41
3841.79
3865.5
3889.41
3913.39
3937.32
3961.05
3984.4
4007.2
4029.24
4050.31
4070.2
4088.7
4105.58
4120.62
4133.63
4144.4
4152.76
4158.57
4161.69
4162.04
4159.53
4154.18
4146.01
4135.07
4121.43
4105.25
4086.68
4065.93
4043.23
4018.84
3993.02
3966.06
3938.24
3909.87
3881.23
3852.59
3824.22
3796.36
3769.24
3743.06
3717.99
3694.17
3671.7
3650.67
3631.13
3613.1
3596.57
3581.53
3567.92
3555.69
3544.76
3535.06
3526.5
3519.01
3512.51
3506.93
3502.19
3498.25
3495.07
3492.61
3490.86
3489.82
3489.46
3489.81
3490.88
3492.7
3495.26
3498.6
3502.76
3507.75
3513.63
3520.42
3528.19
3536.97
3546.81
3557.74
3569.82
3583.05
3597.45
3613.04
3629.8
3647.72
3666.76
3686.87
3707.98
3730.03
3752.91
3776.53
3800.75
3825.4
3850.25
3875
3899.14
3922.69
3944.8
3965.64
3421.15
3409.08
3398.44
3389.2
3381.31
3374.72
3369.36
3365.17
3362.09
3360.05
3358.99
3358.87
3359.62
3361.21
3363.6
3366.75
3370.65
3375.31
3380.71
3386.87
3393.79
3401.51
3410.04
3419.44
3429.74
3441.01
3453.28
3466.61
3481.05
3496.66
3513.45
3531.47
3550.72
3571.2
3592.87
3615.68
3639.55
3664.36
3689.96
3716.16
3742.72
3775.89
3803.11
3830.48
3857.64
3884.33
3910.21
3935.04
3958.5
3980.35
4000.32
4018.2
4033.81
4046.99
4057.6
4065.54
4070.74
4073.17
4072.83
4069.74
4063.93
4055.55
4044.7
4031.45
4015.98
3998.45
3979.06
3957.98
3935.41
3911.55
3886.6
3860.77
3834.27
3807.3
3780.04
3752.68
3725.4
3698.36
3671.7
3645.62
3620.75
3596.3
3572.68
3550.04
3528.44
3507.96
3488.67
3470.6
3453.79
3438.28
3424.06
3411.16
3399.59
3389.33
3380.4
3372.79
3366.49
3361.51
3357.83
3355.44
3354.34
3354.49
3355.88
3358.48
3362.25
3367.17
3373.2
3380.25
3388.32
3397.35
3407.32
3418.18
3429.91
3442.48
3455.85
3470.03
3484.98
3500.71
3517.19
3534.43
3552.4
3571.1
3590.5
3610.6
3631.36
3652.75
3674.72
3697.23
3720.21
3743.6
3767.32
3791.24
3815.24
3839.19
3862.93
3886.31
3909.13
3931.19
3952.29
3972.22
3990.74
4007.65
4022.72
4035.76
4046.55
4054.94
4060.76
4063.9
4064.26
4061.76
4056.39
4048.22
4037.27
4023.61
4007.4
3988.8
3968.02
3945.29
3920.86
3895
3868
3840.16
3811.75
3783.07
3754.4
3726
3698.12
3670.98
3644.78
3619.7
3595.86
3573.39
3552.36
3532.82
3514.79
3498.28
3483.24
3469.65
3457.42
3446.51
3436.82
3428.27
3420.79
3414.3
3408.72
3403.99
3400.06
3396.88
3394.43
3392.68
3391.64
3391.28
3391.62
3392.7
3394.51
3397.07
3400.41
3404.56
3409.55
3415.42
3422.21
3429.97
3438.75
3448.58
3459.51
3471.58
3484.8
3499.21
3514.79
3531.55
3549.47
3568.51
3588.63
3609.75
3631.8
3654.69
3678.32
3702.55
3727.23
3752.12
3776.91
3801.12
3824.71
3847.07
3867.84
3322.77
3310.71
3300.08
3290.85
3282.98
3276.4
3271.05
3266.88
3263.81
3261.78
3260.73
3260.62
3261.38
3262.97
3265.37
3268.52
3272.43
3277.09
3282.49
3288.64
3295.56
3303.27
3311.79
3321.18
3331.47
3342.73
3354.98
3368.31
3382.74
3398.33
3415.12
3433.13
3452.38
3472.85
3494.53
3517.35
3541.23
3566.06
3591.68
3617.92
3644.5
3677.64
3704.89
3732.31
3759.52
3786.26
3812.2
3837.07
3860.58
3882.48
3902.5
3920.42
3936.07
3949.28
3959.91
3967.88
3973.09
3975.53
3975.19
3972.09
3966.28
3957.86
3946.99
3933.71
3918.2
3900.64
3881.21
3860.08
3837.47
3813.57
3788.57
3762.71
3736.17
3709.16
3681.87
3654.48
3627.17
3600.11
3573.43
3547.33
3522.44
3497.97
3474.35
3451.7
3430.09
3409.61
3390.32
3372.25
3355.44
3339.93
3325.71
3312.82
3301.25
3290.99
3282.06
3274.46
3268.16
3263.18
3259.51
3257.12
3256.02
3256.18
3257.58
3260.18
3263.96
3268.89
3274.92
3281.98
3290.06
3299.1
3309.07
3319.93
3331.67
3344.23
3357.61
3371.79
3386.74
3402.46
3418.94
3436.17
3454.14
3472.84
3492.24
3512.34
3533.1
3554.49
3576.46
3598.98
3621.97
3645.37
3669.1
3693.03
3717.05
3741.03
3764.81
3788.22
3811.07
3833.18
3854.32
3874.29
3892.86
3909.81
3924.93
3938
3948.83
3957.25
3963.1
3966.26
3966.63
3964.15
3958.77
3950.58
3939.61
3925.92
3909.68
3891.04
3870.21
3847.43
3822.94
3797.03
3769.98
3742.07
3713.61
3684.89
3656.17
3627.73
3599.81
3572.64
3546.41
3521.31
3497.46
3474.98
3453.95
3434.41
3416.39
3399.88
3384.86
3371.28
3359.07
3348.17
3338.5
3329.97
3322.51
3316.03
3310.47
3305.75
3301.83
3298.66
3296.21
3294.46
3293.42
3293.06
3293.4
3294.48
3296.28
3298.84
3302.17
3306.32
3311.3
3317.16
3323.94
3331.69
3340.46
3350.29
3361.21
3373.27
3386.49
3400.89
3416.47
3433.24
3451.16
3470.2
3490.32
3511.45
3533.51
3556.42
3580.06
3604.31
3629.02
3653.96
3678.82
3703.13
3726.77
3749.25
3770.2
3224.3
3212.25
3201.64
3192.42
3184.57
3178.01
3172.68
3168.52
3165.47
3163.45
3162.42
3162.31
3163.09
3164.69
3167.09
3170.25
3174.16
3178.82
3184.22
3190.37
3197.28
3204.98
3213.49
3222.87
3233.15
3244.39
3256.63
3269.93
3284.35
3299.93
3316.71
3334.71
3353.95
3374.42
3396.1
3418.94
3442.83
3467.69
3493.35
3519.64
3546.25
3579.33
3606.62
3634.12
3661.39
3688.2
3714.21
3739.15
3762.73
3784.69
3804.78
3822.75
3838.45
3851.7
3862.37
3870.36
3875.59
3878.04
3877.7
3874.59
3868.77
3860.32
3849.41
3836.09
3820.54
3802.93
3783.44
3762.26
3739.59
3715.63
3690.58
3664.66
3638.07
3611.01
3583.67
3556.25
3528.9
3501.8
3475.09
3448.98
3424.05
3399.57
3375.94
3353.27
3331.66
3311.18
3291.88
3273.82
3257.01
3241.5
3227.29
3214.39
3202.83
3192.58
3183.65
3176.05
3169.76
3164.78
3161.11
3158.73
3157.63
3157.8
3159.2
3161.82
3165.61
3170.54
3176.58
3183.65
3191.74
3200.79
3210.76
3221.64
3233.37
3245.94
3259.32
3273.49
3288.45
3304.17
3320.64
3337.87
3355.84
3374.53
3393.93
3414.03
3434.79
3456.18
3478.15
3500.67
3523.67
3547.09
3570.84
3594.8
3618.85
3642.86
3666.67
3690.13
3713.03
3735.19
3756.39
3776.42
3795.05
3812.06
3827.23
3840.36
3851.24
3859.71
3865.59
3868.78
3869.16
3866.69
3861.31
3853.1
3842.1
3828.37
3812.08
3793.39
3772.5
3749.65
3725.09
3699.1
3671.97
3644
3615.47
3586.67
3557.9
3529.4
3501.43
3474.22
3447.95
3422.83
3398.96
3376.47
3355.43
3335.9
3317.88
3301.39
3286.38
3272.82
3260.63
3249.76
3240.11
3231.61
3224.17
3217.71
3212.16
3207.46
3203.55
3200.39
3197.95
3196.2
3195.16
3194.8
3195.14
3196.21
3198.01
3200.57
3203.89
3208.03
3213
3218.85
3225.62
3233.36
3242.11
3251.93
3262.84
3274.89
3288.11
3302.5
3318.08
3334.85
3352.77
3371.82
3391.94
3413.08
3435.16
3458.08
3481.74
3506.01
3530.77
3555.77
3580.7
3605.13
3628.85
3651.56
3672.76
3125.73
3113.7
3103.11
3093.91
3086.08
3079.54
3074.23
3070.1
3067.06
3065.07
3064.05
3063.96
3064.75
3066.36
3068.77
3071.94
3075.86
3080.51
3085.91
3092.05
3098.95
3106.64
3115.14
3124.5
3134.76
3145.98
3158.2
3171.49
3185.89
3201.45
3218.21
3236.21
3255.44
3275.91
3297.6
3320.45
3344.36
3369.26
3394.96
3421.31
3447.97
3480.95
3508.31
3535.9
3563.26
3590.16
3616.24
3641.28
3664.94
3686.98
3707.14
3725.19
3740.95
3754.25
3764.97
3772.99
3778.25
3780.71
3780.36
3777.24
3771.4
3762.92
3751.96
3738.59
3722.98
3705.31
3685.75
3664.5
3641.76
3617.73
3592.61
3566.62
3539.97
3512.85
3485.46
3457.98
3430.59
3403.45
3376.7
3350.56
3325.6
3301.1
3277.45
3254.77
3233.15
3212.66
3193.36
3175.3
3158.49
3142.98
3128.77
3115.89
3104.32
3094.08
3085.16
3077.56
3071.28
3066.31
3062.64
3060.26
3059.17
3059.35
3060.76
3063.39
3067.19
3072.14
3078.18
3085.27
3093.36
3102.42
3112.41
3123.29
3135.03
3147.6
3160.98
3175.16
3190.11
3205.82
3222.3
3239.52
3257.48
3276.17
3295.57
3315.66
3336.42
3357.81
3379.79
3402.32
3425.33
3448.76
3472.54
3496.52
3520.61
3544.66
3568.53
3592.04
3615
3637.23
3658.5
3678.6
3697.3
3714.39
3729.64
3742.84
3753.78
3762.3
3768.23
3771.45
3771.85
3769.38
3764.01
3755.78
3744.73
3730.97
3714.61
3695.85
3674.88
3651.94
3627.3
3601.22
3574
3545.93
3517.31
3488.43
3459.58
3431.01
3402.98
3375.71
3349.41
3324.25
3300.36
3277.85
3256.81
3237.28
3219.27
3202.79
3187.81
3174.27
3162.11
3151.27
3141.65
3133.17
3125.76
3119.33
3113.81
3109.12
3105.23
3102.08
3099.64
3097.91
3096.86
3096.5
3096.84
3097.91
3099.7
3102.25
3105.57
3109.69
3114.65
3120.49
3127.24
3134.97
3143.71
3153.51
3164.41
3176.45
3189.66
3204.04
3219.62
3236.38
3254.31
3273.36
3293.5
3314.65
3336.74
3359.68
3383.36
3407.67
3432.47
3457.54
3482.57
3507.14
3530.97
3553.9
3575.37
3027.07
3015.06
3004.49
2995.32
2987.51
2981
2975.72
2971.61
2968.6
2966.63
2965.63
2965.56
2966.36
2967.99
2970.41
2973.59
2977.51
2982.17
2987.55
2993.69
3000.58
3008.26
3016.74
3026.09
3036.32
3047.52
3059.72
3072.98
3087.36
3102.9
3119.64
3137.62
3156.85
3177.32
3199.01
3221.88
3245.82
3270.75
3296.52
3322.94
3349.68
3382.5
3409.96
3437.65
3465.12
3492.12
3518.31
3543.44
3567.2
3589.34
3609.6
3627.73
3643.56
3656.94
3667.7
3675.77
3681.05
3683.53
3683.18
3680.05
3674.18
3665.66
3654.64
3641.21
3625.54
3607.78
3588.15
3566.81
3543.99
3519.87
3494.66
3468.59
3441.86
3414.67
3387.21
3359.67
3332.23
3305.04
3278.25
3252.08
3227.07
3202.55
3178.88
3156.19
3134.56
3114.06
3094.76
3076.69
3059.89
3044.38
3030.18
3017.3
3005.74
2995.51
2986.59
2979
2972.72
2967.75
2964.09
2961.73
2960.64
2960.83
2962.25
2964.89
2968.71
2973.67
2979.73
2986.83
2994.93
3004.01
3014
3024.89
3036.64
3049.21
3062.6
3076.77
3091.72
3107.43
3123.9
3141.12
3159.07
3177.76
3197.15
3217.24
3238
3259.39
3281.38
3303.92
3326.94
3350.39
3374.19
3398.22
3422.35
3446.45
3470.37
3493.95
3516.99
3539.3
3560.65
3580.84
3599.64
3616.81
3632.15
3645.43
3656.45
3665.03
3671.02
3674.27
3674.7
3672.24
3666.86
3658.61
3647.52
3633.7
3617.27
3598.42
3577.36
3554.32
3529.56
3503.37
3476.04
3447.86
3419.14
3390.16
3361.21
3332.56
3304.46
3277.13
3250.77
3225.57
3201.65
3179.13
3158.08
3138.55
3120.56
3104.1
3089.14
3075.63
3063.51
3052.7
3043.11
3034.67
3027.3
3020.9
3015.4
3010.74
3006.86
3003.73
3001.3
2999.57
2998.52
2998.16
2998.5
2999.56
3001.35
3003.88
3007.19
3011.3
3016.25
3022.07
3028.81
3036.52
3045.24
3055.02
3065.91
3077.94
3091.13
3105.51
3121.08
3137.85
3155.77
3174.83
3194.98
3216.15
3238.26
3261.23
3284.94
3309.28
3334.13
3359.28
3384.41
3409.14
3433.1
3456.31
3478.07
2928.31
2916.33
2905.79
2896.65
2888.87
2882.39
2877.14
2873.06
2870.07
2868.13
2867.16
2867.11
2867.93
2869.58
2872.01
2875.19
2879.12
2883.78
2889.16
2895.29
2902.17
2909.83
2918.3
2927.61
2937.83
2949
2961.17
2974.41
2988.76
3004.27
3021
3038.96
3058.18
3078.64
3100.35
3123.23
3147.2
3172.18
3198.01
3224.53
3251.39
3283.97
3311.56
3339.39
3366.97
3394.09
3420.4
3445.65
3469.53
3491.79
3512.15
3530.38
3546.3
3559.75
3570.58
3578.69
3584.01
3586.5
3586.15
3583
3577.1
3568.54
3557.46
3543.96
3528.2
3510.36
3490.62
3469.19
3446.26
3422.05
3396.74
3370.58
3343.75
3316.48
3288.94
3261.33
3233.82
3206.57
3179.74
3153.53
3128.47
3103.92
3080.23
3057.52
3035.88
3015.38
2996.07
2978
2961.2
2945.7
2931.51
2918.63
2907.08
2896.85
2887.94
2880.36
2874.09
2869.13
2865.47
2863.11
2862.04
2862.24
2863.67
2866.32
2870.16
2875.14
2881.21
2888.33
2896.45
2905.54
2915.55
2926.44
2938.2
2950.78
2964.17
2978.34
2993.28
3008.99
3025.45
3042.67
3060.61
3079.29
3098.68
3118.77
3139.52
3160.92
3182.91
3205.46
3228.5
3251.98
3275.81
3299.87
3324.05
3348.21
3372.21
3395.86
3418.99
3441.39
3462.85
3483.14
3502.04
3519.32
3534.76
3548.13
3559.24
3567.9
3573.95
3577.26
3577.72
3575.27
3569.88
3561.6
3550.46
3536.57
3520.06
3501.11
3479.94
3456.78
3431.89
3405.57
3378.11
3349.8
3320.95
3291.86
3262.8
3234.05
3205.86
3178.46
3152.04
3126.79
3102.84
3080.3
3059.24
3039.72
3021.74
3005.31
2990.38
2976.9
2964.82
2954.05
2944.51
2936.11
2928.77
2922.41
2916.94
2912.31
2908.45
2905.33
2902.92
2901.19
2900.15
2899.79
2900.12
2901.17
2902.95
2905.48
2908.77
2912.87
2917.8
2923.6
2930.32
2938.01
2946.71
2956.47
2967.34
2979.35
2992.53
3006.91
3022.48
3039.23
3057.17
3076.23
3096.4
3117.58
3139.72
3162.71
3186.45
3210.84
3235.75
3260.98
3286.22
3311.13
3335.23
3358.74
3380.81
2829.46
2817.51
2807
2797.89
2790.15
2783.7
2778.49
2774.44
2771.49
2769.58
2768.63
2768.61
2769.45
2771.11
2773.56
2776.76
2780.69
2785.35
2790.73
2796.85
2803.71
2811.36
2819.8
2829.09
2839.28
2850.42
2862.55
2875.76
2890.08
2905.57
2922.27
2940.21
2959.42
2979.88
3001.59
3024.5
3048.51
3073.54
3099.44
3126.07
3153.11
3185.32
3213.11
3241.09
3268.82
3296.07
3322.52
3347.91
3371.92
3394.31
3414.8
3433.14
3449.16
3462.7
3473.6
3481.76
3487.12
3489.63
3489.28
3486.11
3480.17
3471.56
3460.41
3446.82
3430.97
3413.03
3393.19
3371.64
3348.59
3324.26
3298.84
3272.57
3245.65
3218.27
3190.65
3162.95
3135.37
3108.06
3081.18
3054.91
3029.8
3005.22
2981.5
2958.77
2937.12
2916.61
2897.3
2879.23
2862.43
2846.93
2832.75
2819.88
2808.34
2798.12
2789.22
2781.64
2775.38
2770.42
2766.78
2764.43
2763.37
2763.57
2765.03
2767.69
2771.55
2776.54
2782.64
2789.77
2797.92
2807.02
2817.04
2827.95
2839.71
2852.3
2865.69
2879.86
2894.8
2910.5
2926.96
2944.16
2962.1
2980.77
3000.15
3020.24
3040.99
3062.39
3084.39
3106.95
3130.01
3153.52
3177.38
3201.49
3225.73
3249.96
3274.03
3297.78
3321
3343.51
3365.08
3385.49
3404.51
3421.91
3437.47
3450.96
3462.17
3470.92
3477.04
3480.4
3480.89
3478.45
3473.06
3464.74
3453.55
3439.58
3422.98
3403.92
3382.61
3359.31
3334.29
3307.81
3280.2
3251.74
3222.75
3193.52
3164.34
3135.48
3107.19
3079.7
3053.22
3027.92
3003.93
2981.37
2960.3
2940.78
2922.82
2906.41
2891.52
2878.09
2866.05
2855.32
2845.83
2837.48
2830.19
2823.86
2818.43
2813.83
2810
2806.9
2804.49
2802.77
2801.73
2801.37
2801.7
2802.73
2804.51
2807.03
2810.31
2814.39
2819.3
2825.08
2831.78
2839.44
2848.12
2857.86
2868.71
2880.7
2893.87
2908.23
2923.79
2940.55
2958.49
2977.56
2997.74
3018.95
3041.11
3064.13
3087.91
3112.34
3137.32
3162.64
3187.99
3213.09
3237.37
3261.19
3283.59
2730.52
2718.6
2708.12
2699.05
2691.35
2684.94
2679.77
2675.76
2672.84
2670.96
2670.06
2670.06
2670.93
2672.61
2675.07
2678.28
2682.22
2686.88
2692.25
2698.36
2705.21
2712.83
2721.25
2730.51
2740.67
2751.77
2763.87
2777.05
2791.33
2806.79
2823.46
2841.38
2860.58
2881.04
2902.76
2925.68
2949.73
2974.82
3000.8
3027.56
3054.86
3086.54
3114.62
3142.78
3170.66
3198.07
3224.66
3250.21
3274.37
3296.91
3317.54
3336
3352.14
3365.77
3376.76
3384.99
3390.38
3392.91
3392.56
3389.37
3383.39
3374.73
3363.49
3349.81
3333.85
3315.79
3295.83
3274.15
3250.98
3226.52
3200.97
3174.58
3147.53
3120.05
3092.33
3064.54
3036.87
3009.49
2982.55
2956.23
2931.05
2906.44
2882.69
2859.95
2838.27
2817.76
2798.44
2780.37
2763.58
2748.09
2733.91
2721.05
2709.51
2699.3
2690.42
2682.84
2676.59
2671.64
2668.01
2665.67
2664.62
2664.84
2666.31
2669
2672.87
2677.89
2684.01
2691.16
2699.32
2708.44
2718.48
2729.4
2741.17
2753.77
2767.16
2781.33
2796.27
2811.97
2828.41
2845.61
2863.54
2882.2
2901.58
2921.66
2942.41
2963.81
2985.81
3008.39
3031.47
3055
3078.91
3103.07
3127.38
3151.68
3175.85
3199.69
3223.03
3245.65
3267.35
3287.9
3307.06
3324.6
3340.28
3353.9
3365.22
3374.07
3380.28
3383.7
3384.23
3381.81
3376.4
3368.05
3356.79
3342.73
3326.02
3306.83
3285.39
3261.93
3236.74
3210.1
3182.31
3153.69
3124.54
3095.16
3065.84
3036.85
3008.45
2980.87
2954.3
2928.94
2904.91
2882.32
2861.25
2841.74
2823.8
2807.42
2792.57
2779.18
2767.19
2756.52
2747.08
2738.78
2731.54
2725.26
2719.88
2715.31
2711.5
2708.42
2706.03
2704.32
2703.28
2702.91
2703.24
2704.26
2706.03
2708.53
2711.8
2715.86
2720.75
2726.51
2733.18
2740.81
2749.46
2759.18
2770
2781.98
2795.13
2809.48
2825.04
2841.79
2859.73
2878.82
2899.01
2920.24
2942.44
2965.5
2989.32
3013.8
3038.84
3064.25
3089.73
3115.03
3139.51
3163.66
3186.41
2631.48
2619.6
2609.16
2600.13
2592.47
2586.11
2580.98
2577.01
2574.14
2572.3
2571.42
2571.46
2572.35
2574.06
2576.54
2579.76
2583.7
2588.36
2593.74
2599.83
2606.66
2614.26
2622.65
2631.89
2642
2653.07
2665.13
2678.26
2692.51
2707.93
2724.57
2742.47
2761.65
2782.11
2803.84
2826.79
2850.88
2876.03
2902.1
2928.99
2956.56
2987.71
3016.09
3044.44
3072.49
3100.07
3126.83
3152.55
3176.89
3199.59
3220.37
3238.98
3255.24
3268.98
3280.06
3288.36
3293.8
3296.35
3296.01
3292.79
3286.76
3278.03
3266.7
3252.92
3236.84
3218.66
3198.55
3176.73
3153.42
3128.81
3103.12
3076.59
3049.42
3021.82
2993.98
2966.09
2938.33
2910.87
2883.86
2857.48
2832.23
2807.58
2783.81
2761.03
2739.34
2718.82
2699.49
2681.43
2664.64
2649.15
2634.98
2622.14
2610.61
2600.41
2591.53
2583.97
2577.73
2572.79
2569.16
2566.84
2565.8
2566.04
2567.52
2570.23
2574.13
2579.17
2585.31
2592.5
2600.68
2609.82
2619.87
2630.81
2642.59
2655.19
2668.58
2682.76
2697.69
2713.38
2729.82
2747
2764.92
2783.58
2802.94
2823.02
2843.77
2865.17
2887.18
2909.77
2932.88
2956.45
2980.4
3004.62
3028.99
3053.38
3077.65
3101.6
3125.06
3147.82
3169.67
3190.36
3209.67
3227.36
3243.2
3256.95
3268.41
3277.37
3283.66
3287.15
3287.73
3285.32
3279.91
3271.51
3260.18
3246.03
3229.2
3209.87
3188.26
3164.63
3139.25
3112.42
3084.45
3055.64
3026.31
2996.76
2967.28
2938.15
2909.63
2881.94
2855.3
2829.87
2805.79
2783.17
2762.09
2742.59
2724.67
2708.33
2693.51
2680.18
2668.24
2657.63
2648.25
2640.02
2632.83
2626.61
2621.27
2616.74
2612.97
2609.9
2607.53
2605.82
2604.79
2604.42
2604.74
2605.75
2607.51
2610
2613.25
2617.29
2622.15
2627.88
2634.53
2642.13
2650.75
2660.43
2671.23
2683.18
2696.32
2710.66
2726.21
2742.96
2760.91
2780.01
2800.22
2821.47
2843.7
2866.8
2890.66
2915.2
2940.31
2965.82
2991.42
3016.93
3041.63
3066.13
3089.25
2532.35
2520.5
2510.11
2501.13
2493.52
2487.2
2482.12
2478.2
2475.37
2473.57
2472.74
2472.81
2473.73
2475.46
2477.96
2481.2
2485.15
2489.81
2495.18
2501.26
2508.08
2515.65
2524.01
2533.21
2543.28
2554.3
2566.32
2579.41
2593.61
2609
2625.6
2643.48
2662.64
2683.09
2704.84
2727.81
2751.95
2777.16
2803.33
2830.36
2858.19
2888.86
2917.52
2946.09
2974.32
3002.08
3029.03
3054.93
3079.46
3102.34
3123.3
3142.06
3158.47
3172.33
3183.5
3191.88
3197.37
3199.95
3199.6
3196.36
3190.28
3181.47
3170.05
3156.15
3139.95
3121.61
3101.36
3079.38
3055.91
3031.14
3005.3
2978.61
2951.3
2923.56
2895.6
2867.6
2839.74
2812.19
2785.1
2758.66
2733.34
2708.65
2684.84
2662.04
2640.33
2619.79
2600.46
2582.4
2565.61
2550.14
2535.98
2523.14
2511.63
2501.44
2492.57
2485.02
2478.79
2473.86
2470.25
2467.93
2466.91
2467.16
2468.67
2471.4
2475.32
2480.39
2486.56
2493.77
2501.98
2511.14
2521.22
2532.17
2543.96
2556.57
2569.96
2584.13
2599.06
2614.75
2631.18
2648.35
2666.26
2684.9
2704.26
2724.33
2745.07
2766.47
2788.5
2811.1
2834.24
2857.84
2881.84
2906.12
2930.57
2955.06
2979.43
3003.51
3027.11
3050.02
3072.02
3092.88
3112.36
3130.22
3146.22
3160.12
3171.72
3180.81
3187.2
3190.77
3191.39
3189.01
3183.58
3175.14
3163.73
3149.47
3132.5
3113.01
3091.23
3067.41
3041.83
3014.79
2986.6
2957.59
2928.06
2898.33
2868.68
2839.4
2810.74
2782.93
2756.19
2730.69
2706.56
2683.92
2662.83
2643.33
2625.44
2609.13
2594.37
2581.09
2569.21
2558.67
2549.36
2541.19
2534.07
2527.9
2522.61
2518.12
2514.38
2511.35
2508.99
2507.29
2506.26
2505.89
2506.2
2507.2
2508.94
2511.42
2514.65
2518.67
2523.51
2529.21
2535.82
2543.39
2551.97
2561.63
2572.39
2584.32
2597.43
2611.76
2627.3
2644.05
2662
2681.12
2701.35
2722.63
2744.89
2768.03
2791.95
2816.56
2841.74
2867.34
2893.05
2918.79
2943.73
2968.61
2992.11
2433.12
2421.32
2410.97
2402.05
2394.49
2388.23
2383.2
2379.33
2376.55
2374.8
2374
2374.11
2375.07
2376.83
2379.35
2382.6
2386.56
2391.22
2396.58
2402.65
2409.44
2416.99
2425.31
2434.47
2444.5
2455.48
2467.45
2480.49
2494.64
2509.99
2526.55
2544.4
2563.54
2583.99
2605.74
2628.75
2652.93
2678.22
2704.48
2731.66
2759.72
2790.01
2818.94
2847.71
2876.14
2904.09
2931.25
2957.36
2982.09
3005.18
3026.32
3045.26
3061.82
3075.81
3087.09
3095.55
3101.1
3103.71
3103.36
3100.09
3093.96
3085.06
3073.53
3059.5
3043.16
3024.67
3004.25
2982.1
2958.45
2933.51
2907.49
2880.64
2853.17
2825.29
2797.19
2769.07
2741.1
2713.45
2686.28
2659.77
2634.38
2609.64
2585.79
2562.96
2541.23
2520.68
2501.35
2483.28
2466.5
2451.04
2436.89
2424.06
2412.56
2402.39
2393.53
2385.99
2379.77
2374.86
2371.25
2368.95
2367.95
2368.22
2369.75
2372.5
2376.45
2381.55
2387.75
2394.99
2403.23
2412.41
2422.51
2433.47
2445.28
2457.9
2471.3
2485.47
2500.39
2516.06
2532.48
2549.64
2567.54
2586.17
2605.52
2625.58
2646.32
2667.73
2689.76
2712.38
2735.54
2759.18
2783.23
2807.59
2832.12
2856.71
2881.2
2905.42
2929.16
2952.24
2974.41
2995.45
3015.11
3033.16
3049.34
3063.41
3075.17
3084.39
3090.9
3094.55
3095.23
3092.86
3087.42
3078.92
3067.43
3053.05
3035.94
3016.28
2994.3
2970.27
2944.46
2917.2
2888.78
2859.54
2829.8
2799.86
2770.02
2740.57
2711.76
2683.83
2656.99
2631.41
2607.22
2584.55
2563.45
2543.96
2526.1
2509.83
2495.12
2481.9
2470.1
2459.63
2450.39
2442.29
2435.24
2429.14
2423.91
2419.47
2415.76
2412.75
2410.41
2408.72
2407.69
2407.32
2407.62
2408.6
2410.34
2412.8
2416.01
2420
2424.81
2430.48
2437.05
2444.59
2453.13
2462.75
2473.49
2485.39
2498.48
2512.79
2528.32
2545.07
2563.03
2582.16
2602.41
2623.72
2646.02
2669.21
2693.18
2717.85
2743.11
2768.8
2794.63
2820.61
2845.81
2871.1
2894.97
2333.79
2322.04
2311.75
2302.88
2295.37
2289.17
2284.2
2280.39
2277.66
2275.96
2275.21
2275.37
2276.36
2278.15
2280.69
2283.96
2287.93
2292.58
2297.94
2304
2310.77
2318.28
2326.57
2335.69
2345.67
2356.59
2368.51
2381.5
2395.6
2410.89
2427.42
2445.23
2464.36
2484.8
2506.56
2529.6
2553.83
2579.19
2605.56
2632.88
2661.13
2691.17
2720.32
2749.31
2777.95
2806.12
2833.49
2859.83
2884.79
2908.09
2929.44
2948.56
2965.29
2979.42
2990.83
2999.38
3004.99
3007.63
3007.28
3003.97
2997.78
2988.79
2977.15
2962.98
2946.48
2927.82
2907.22
2884.88
2861.04
2835.91
2809.71
2782.68
2755.04
2727
2698.76
2670.5
2642.41
2614.66
2587.4
2560.82
2535.34
2510.55
2486.65
2463.8
2442.05
2421.48
2402.15
2384.08
2367.31
2351.85
2337.71
2324.91
2313.42
2303.26
2294.42
2286.89
2280.68
2275.77
2272.18
2269.9
2268.91
2269.2
2270.76
2273.54
2277.52
2282.65
2288.88
2296.15
2304.42
2313.63
2323.75
2334.73
2346.56
2359.18
2372.58
2386.75
2401.67
2417.33
2433.74
2450.89
2468.77
2487.39
2506.72
2526.77
2547.51
2568.92
2590.96
2613.6
2636.79
2660.47
2684.58
2709.01
2733.64
2758.34
2782.96
2807.32
2831.23
2854.48
2876.84
2898.07
2917.94
2936.18
2952.56
2966.82
2978.74
2988.11
2994.75
2998.49
2999.23
2996.88
2991.42
2982.87
2971.29
2956.78
2939.51
2919.66
2897.47
2873.2
2847.16
2819.64
2790.98
2761.5
2731.52
2701.36
2671.32
2641.68
2612.71
2584.64
2557.69
2532.02
2507.78
2485.06
2463.96
2444.48
2426.65
2410.43
2395.78
2382.63
2370.9
2360.5
2351.35
2343.33
2336.36
2330.32
2325.15
2320.76
2317.1
2314.12
2311.79
2310.11
2309.08
2308.71
2309
2309.98
2311.7
2314.13
2317.32
2321.29
2326.06
2331.7
2338.23
2345.73
2354.23
2363.81
2374.51
2386.38
2399.45
2413.74
2429.26
2446.01
2463.98
2483.12
2503.4
2524.74
2547.08
2570.32
2594.35
2619.09
2644.42
2670.22
2696.17
2722.38
2747.87
2773.6
2797.83
2234.37
2222.67
2212.44
2203.63
2196.19
2190.05
2185.14
2181.39
2178.72
2177.07
2176.37
2176.57
2177.6
2179.42
2181.99
2185.28
2189.25
2193.91
2199.26
2205.31
2212.05
2219.53
2227.78
2236.85
2246.78
2257.65
2269.51
2282.44
2296.48
2311.73
2328.21
2345.98
2365.08
2385.52
2407.3
2430.36
2454.65
2480.09
2506.56
2534.02
2562.42
2592.34
2621.69
2650.9
2679.75
2708.15
2735.76
2762.34
2787.54
2811.08
2832.65
2851.98
2868.88
2883.17
2894.7
2903.35
2909.04
2911.71
2911.35
2908.01
2901.75
2892.67
2880.9
2866.59
2849.91
2831.07
2810.27
2787.73
2763.68
2738.35
2711.94
2684.72
2656.9
2628.69
2600.29
2571.89
2543.67
2515.81
2488.44
2461.79
2436.23
2411.38
2387.44
2364.55
2342.78
2322.2
2302.86
2284.79
2268.03
2252.58
2238.46
2225.66
2214.2
2204.05
2195.22
2187.71
2181.51
2176.62
2173.04
2170.77
2169.8
2170.12
2171.69
2174.5
2178.52
2183.69
2189.96
2197.26
2205.56
2214.8
2224.94
2235.95
2247.78
2260.41
2273.82
2287.99
2302.9
2318.56
2334.95
2352.08
2369.95
2388.55
2407.87
2427.91
2448.65
2470.06
2492.11
2514.76
2537.98
2561.71
2585.88
2610.39
2635.12
2659.94
2684.69
2709.21
2733.3
2756.74
2779.3
2800.75
2820.83
2839.3
2855.88
2870.35
2882.45
2891.99
2898.75
2902.59
2903.4
2901.07
2895.6
2886.99
2875.31
2860.66
2843.21
2823.16
2800.74
2776.23
2749.92
2722.13
2693.2
2663.45
2633.22
2602.82
2572.56
2542.72
2513.58
2485.36
2458.28
2432.52
2408.22
2385.47
2364.35
2344.89
2327.09
2310.92
2296.33
2283.26
2271.61
2261.3
2252.23
2244.3
2237.41
2231.46
2226.35
2222.01
2218.39
2215.44
2213.14
2211.47
2210.44
2210.06
2210.35
2211.33
2213.01
2215.43
2218.59
2222.53
2227.27
2232.87
2239.36
2246.81
2255.27
2264.81
2275.47
2287.31
2300.35
2314.62
2330.13
2346.88
2364.85
2384.01
2404.31
2425.69
2448.08
2471.37
2495.46
2520.28
2545.69
2571.57
2597.66
2624.12
2649.9
2676.09
2700.7
2134.85
2123.21
2113.04
2104.29
2096.92
2090.85
2086.01
2082.32
2079.72
2078.13
2077.48
2077.73
2078.8
2080.65
2083.25
2086.55
2090.54
2095.2
2100.55
2106.57
2113.29
2120.74
2128.94
2137.96
2147.83
2158.64
2170.44
2183.31
2197.29
2212.48
2228.91
2246.64
2265.72
2286.15
2307.94
2331.04
2355.38
2380.9
2407.48
2435.08
2463.62
2493.5
2523.03
2552.46
2581.54
2610.18
2638.05
2664.9
2690.36
2714.15
2735.96
2755.5
2772.6
2787.06
2798.73
2807.49
2813.24
2815.95
2815.59
2812.22
2805.88
2796.69
2784.79
2770.31
2753.46
2734.41
2713.4
2690.65
2666.38
2640.82
2614.2
2586.77
2558.76
2530.36
2501.79
2473.23
2444.88
2416.89
2389.43
2362.69
2337.04
2312.13
2288.14
2265.21
2243.42
2222.83
2203.48
2185.42
2168.66
2153.23
2139.12
2126.34
2114.89
2104.76
2095.95
2088.45
2082.26
2077.38
2073.82
2071.57
2070.62
2070.96
2072.56
2075.4
2079.45
2084.66
2090.97
2098.31
2106.64
2115.92
2126.08
2137.11
2148.96
2161.6
2175.02
2189.18
2204.09
2219.73
2236.11
2253.22
2271.07
2289.66
2308.97
2329
2349.73
2371.14
2393.19
2415.87
2439.12
2462.89
2487.13
2511.73
2536.56
2561.51
2586.41
2611.1
2635.37
2659.02
2681.8
2703.48
2723.8
2742.49
2759.31
2773.99
2786.3
2796
2802.91
2806.87
2807.74
2805.44
2799.95
2791.27
2779.48
2764.69
2747.05
2726.78
2704.11
2679.33
2652.74
2624.66
2595.44
2565.41
2534.9
2504.24
2473.74
2443.69
2414.36
2385.99
2358.78
2332.92
2308.55
2285.76
2264.63
2245.19
2227.42
2211.31
2196.79
2183.8
2172.24
2162.02
2153.05
2145.21
2138.41
2132.54
2127.5
2123.22
2119.65
2116.73
2114.44
2112.78
2111.76
2111.37
2111.65
2112.63
2114.29
2116.68
2119.81
2123.72
2128.43
2133.98
2140.43
2147.83
2156.25
2165.74
2176.36
2188.16
2201.17
2215.43
2230.92
2247.67
2265.65
2284.82
2305.15
2326.57
2349.01
2372.35
2396.52
2421.41
2446.89
2472.89
2499.11
2525.8
2551.91
2578.58
2603.57
2035.24
2023.66
2013.55
2004.88
1997.58
1991.58
1986.81
1983.19
1980.65
1979.12
1978.54
1978.83
1979.95
1981.84
1984.47
1987.79
1991.8
1996.46
2001.79
2007.8
2014.49
2021.9
2030.06
2039.02
2048.83
2059.58
2071.31
2084.11
2098.03
2113.15
2129.53
2147.22
2166.27
2186.69
2208.49
2231.62
2256.02
2281.62
2308.32
2336.05
2364.72
2394.64
2424.35
2454
2483.33
2512.22
2540.36
2567.49
2593.24
2617.3
2639.37
2659.14
2676.45
2691.09
2702.91
2711.78
2717.61
2720.35
2720
2716.58
2710.16
2700.86
2688.81
2674.16
2657.11
2637.86
2616.62
2593.63
2569.12
2543.33
2516.47
2488.83
2460.6
2432.01
2403.25
2374.54
2346.03
2317.92
2290.34
2263.51
2237.77
2212.79
2188.76
2165.79
2143.97
2123.37
2104.02
2085.96
2069.21
2053.79
2039.7
2026.94
2015.5
2005.39
1996.6
1989.11
1982.94
1978.07
1974.53
1972.29
1971.36