/*--------------------------------*- C++ -*----------------------------------*\
| =========                 |                                                 |
| \\      /  F ield         | OpenFOAM: The Open Source CFD Toolbox           |
|  \\    /   O peration     | Version:  3.0.1                                 |
|   \\  /    A nd           | Web:      www.OpenFOAM.org                      |
|    \\/     M anipulation  |                                                 |
\*---------------------------------------------------------------------------*/
FoamFile
{
    version     2.0;
    format      ascii;
    class       surfaceScalarField;
    location    "70";
    object      phi;
}
// * * * * * * * * * * * * * * * * * * * * * * * * * * * * * * * * * * * * * //

dimensions      [0 3 -1 0 0 0 0];

internalField   nonuniform List<scalar> 
42423
(
-0.00012193
9.96929e-06
-0.000130911
8.98042e-06
-0.000139025
8.11416e-06
-0.000146293
7.26812e-06
-0.000152737
6.44406e-06
-0.000158399
5.66202e-06
-0.000163299
4.89954e-06
-0.000167471
4.17281e-06
-0.00017094
3.46832e-06
-0.00017371
2.77012e-06
-0.000175789
2.07932e-06
-0.000177201
1.41224e-06
-0.000177981
7.79634e-07
-0.00017808
9.91634e-08
-0.000177462
-6.17724e-07
-0.000176136
-1.3261e-06
-0.000174131
-2.00556e-06
-0.000171358
-2.77242e-06
-0.000167841
-3.51734e-06
-0.000163642
-4.19911e-06
-0.000158502
-5.14012e-06
-0.000152524
-5.97747e-06
-0.000145799
-6.72506e-06
-0.000138024
-7.7755e-06
-0.000129351
-8.67324e-06
-0.000119612
-9.73849e-06
-0.000108878
-1.07338e-05
-9.72779e-05
-1.16006e-05
-8.45414e-05
-1.27365e-05
-7.07781e-05
-1.37634e-05
-5.61615e-05
-1.46166e-05
-4.05077e-05
-1.56539e-05
-2.40342e-05
-1.64735e-05
-6.72851e-06
-1.73057e-05
1.12388e-05
-1.79673e-05
2.95842e-05
-1.83455e-05
4.837e-05
-1.87858e-05
6.7355e-05
-1.89851e-05
8.61814e-05
-1.88264e-05
0.000104772
-1.8591e-05
0.000122846
-1.80735e-05
0.000140251
-1.74056e-05
0.000156689
-1.6438e-05
0.000171831
-1.51418e-05
0.000185526
-1.3695e-05
0.000197578
-1.20516e-05
0.000207707
-1.01294e-05
0.000215822
-8.11541e-06
0.000221801
-5.97849e-06
0.000225439
-3.63853e-06
0.000226815
-1.37557e-06
0.000225834
9.80634e-07
0.000222571
3.26264e-06
0.000217042
5.52926e-06
0.000209356
7.68638e-06
0.000199749
9.6064e-06
0.000188318
1.14313e-05
0.000175204
1.31142e-05
0.000160648
1.45562e-05
0.000144945
1.57027e-05
0.000128296
1.66492e-05
0.000110885
1.74105e-05
9.29617e-05
1.79234e-05
7.47054e-05
1.82563e-05
5.63323e-05
1.83731e-05
3.81262e-05
1.82061e-05
2.02897e-05
1.78365e-05
2.78988e-06
1.74998e-05
-1.41448e-05
1.69347e-05
-3.04677e-05
1.63228e-05
-4.59792e-05
1.55115e-05
-6.06783e-05
1.4699e-05
-7.45265e-05
1.38482e-05
-8.74536e-05
1.29271e-05
-9.94021e-05
1.19484e-05
-0.000110445
1.10432e-05
-0.00012048
1.00345e-05
-0.000129619
9.13957e-06
-0.000137826
8.20615e-06
-0.000145079
7.25389e-06
-0.000151462
6.38269e-06
-0.000156934
5.47181e-06
-0.00016155
4.61654e-06
-0.000165302
3.75125e-06
-0.000168176
2.87462e-06
-0.000170153
1.97663e-06
-0.000171323
1.16957e-06
-0.000171566
2.43807e-07
-0.000170939
-6.2694e-07
-0.000169439
-1.50004e-06
-0.000167138
-2.30155e-06
-0.000164094
-3.04349e-06
-0.000160395
-3.69945e-06
-0.000156095
-4.30029e-06
-0.000151296
-4.79891e-06
-0.000145915
-5.38114e-06
-0.000139996
-5.91856e-06
-0.000133504
-6.492e-06
-0.000126462
-7.042e-06
-0.000118771
-7.69088e-06
-0.000110441
-8.33071e-06
-0.000101342
-9.09864e-06
-9.16027e-05
-9.73924e-06
-8.1071e-05
-1.05317e-05
-6.97633e-05
-1.13077e-05
-5.76925e-05
-1.20709e-05
-4.48493e-05
-1.28432e-05
-3.12653e-05
-1.35841e-05
-1.71106e-05
-1.41547e-05
-2.28664e-06
-1.4824e-05
1.31145e-05
-1.54012e-05
2.90035e-05
-1.58891e-05
4.52899e-05
-1.62864e-05
6.18594e-05
-1.65695e-05
7.85245e-05
-1.66652e-05
9.51823e-05
-1.66578e-05
0.000111646
-1.64638e-05
0.000127753
-1.61066e-05
0.000143323
-1.55704e-05
0.00015807
-1.47472e-05
0.000171854
-1.37843e-05
0.000184431
-1.25771e-05
0.000195572
-1.11413e-05
0.000205069
-9.49651e-06
0.000212709
-7.64031e-06
0.00021835
-5.64075e-06
0.00022184
-3.48972e-06
0.000223058
-1.21887e-06
0.000222034
1.02446e-06
0.000218651
3.38304e-06
0.000212881
5.77019e-06
0.000205005
7.8756e-06
0.00019505
9.9552e-06
0.000183136
1.19138e-05
0.000169575
1.35611e-05
0.000154496
1.50784e-05
0.00013822
1.62763e-05
0.000120996
1.72243e-05
0.000102956
1.80395e-05
8.45106e-05
1.84455e-05
6.57937e-05
1.87168e-05
4.71303e-05
1.86634e-05
2.86485e-05
1.84818e-05
1.05657e-05
1.80828e-05
-6.88576e-06
1.74515e-05
-2.36232e-05
1.67374e-05
-3.94837e-05
1.58605e-05
-5.43772e-05
1.48935e-05
-6.82639e-05
1.38867e-05
-8.10921e-05
1.28281e-05
-9.28672e-05
1.17752e-05
-0.000103559
1.06922e-05
-0.000113335
9.77559e-06
-0.000122081
8.74585e-06
-0.000129897
7.81576e-06
-0.00013681
6.91331e-06
-0.000142871
6.06086e-06
-0.000148206
5.3348e-06
-0.000152768
4.56238e-06
-0.000156626
3.85842e-06
-0.000159814
3.18744e-06
-0.000162343
2.5295e-06
-0.000164202
1.85819e-06
-0.000165545
1.34341e-06
-0.000166272
7.26521e-07
-0.000166459
1.87099e-07
-0.00016613
-3.28709e-07
-0.000165213
-9.16657e-07
-0.000163767
-1.44612e-06
-0.00016177
-1.99739e-06
-0.000159174
-2.59593e-06
-0.000155987
-3.18657e-06
-0.00015213
-3.85721e-06
-0.000147621
-4.50952e-06
-0.000142461
-5.16003e-06
-0.000136572
-5.88852e-06
-0.000129925
-6.64684e-06
-0.000122488
-7.43764e-06
-0.000114227
-8.26071e-06
-0.000105194
-9.03336e-06
-9.5306e-05
-9.88761e-06
-8.46108e-05
-1.06953e-05
-7.30533e-05
-1.15575e-05
-6.06511e-05
-1.24022e-05
-4.74325e-05
-1.32186e-05
-3.34224e-05
-1.40102e-05
-1.8656e-05
-1.47664e-05
-3.28099e-06
-1.53751e-05
1.27049e-05
-1.5986e-05
2.91895e-05
-1.64846e-05
4.5986e-05
-1.67966e-05
6.30559e-05
-1.707e-05
8.02121e-05
-1.71562e-05
9.72174e-05
-1.70054e-05
0.000113913
-1.66953e-05
0.000130008
-1.60955e-05
0.000145167
-1.51589e-05
0.000159185
-1.40182e-05
0.000171742
-1.25565e-05
0.000182595
-1.08538e-05
0.000191511
-8.91625e-06
0.000198347
-6.83527e-06
0.000202958
-4.61131e-06
0.000205236
-2.27783e-06
0.000205147
8.82999e-08
0.00020268
2.46711e-06
0.000197759
4.9207e-06
0.000190536
7.22385e-06
0.000181092
9.44323e-06
0.000169574
1.15181e-05
0.000156254
1.33198e-05
0.00014134
1.49147e-05
0.000125125
1.62151e-05
0.0001079
1.72244e-05
8.98898e-05
1.80103e-05
7.14036e-05
1.84861e-05
5.26706e-05
1.8733e-05
3.39893e-05
1.86812e-05
1.55325e-05
1.84568e-05
-2.56043e-06
1.80929e-05
-1.99755e-05
1.7415e-05
-3.66338e-05
1.66583e-05
-5.23865e-05
1.57527e-05
-6.71729e-05
1.47864e-05
-8.09468e-05
1.37738e-05
-9.36573e-05
1.27105e-05
-0.000105315
1.16575e-05
-0.000116009
1.06944e-05
-0.000125695
9.68597e-06
-0.000134407
8.71212e-06
-0.00014216
7.75252e-06
-0.000148974
6.81458e-06
-0.000154923
5.94908e-06
-0.000160083
5.15988e-06
-0.000164514
4.43077e-06
-0.0001683
3.78569e-06
-0.00017144
3.14062e-06
-0.000173961
2.52046e-06
-0.000175856
1.89552e-06
-0.000177209
1.35259e-06
-0.000177955
7.46394e-07
-0.000178143
1.87828e-07
-0.000177711
-4.3238e-07
-0.000176698
-1.01245e-06
-0.000175081
-1.61767e-06
-0.000172843
-2.23761e-06
-0.00016998
-2.86294e-06
-0.00016642
-3.5598e-06
-0.000162138
-4.28215e-06
-0.000157133
-5.0057e-06
-0.000151353
-5.77981e-06
-0.00014479
-6.56241e-06
-0.000137405
-7.38503e-06
-0.00012932
-8.08515e-06
-0.000120469
-8.85164e-06
-0.000110862
-9.6071e-06
-0.000100459
-1.04023e-05
-8.93977e-05
-1.10616e-05
-7.75098e-05
-1.18879e-05
-6.48556e-05
-1.26542e-05
-5.14602e-05
-1.33954e-05
-3.73699e-05
-1.40903e-05
-2.26379e-05
-1.4732e-05
-7.43133e-06
-1.52066e-05
8.21507e-06
-1.56464e-05
2.42496e-05
-1.60345e-05
4.04863e-05
-1.62368e-05
5.67441e-05
-1.62578e-05
7.29041e-05
-1.61601e-05
8.87039e-05
-1.57999e-05
0.000103917
-1.52131e-05
0.000118346
-1.44287e-05
0.000131773
-1.34274e-05
0.000144026
-1.22532e-05
0.000154806
-1.07798e-05
0.00016412
-9.31446e-06
0.000171636
-7.51621e-06
0.000177421
-5.78447e-06
0.000181169
-3.74806e-06
0.000182869
-1.70025e-06
0.000182598
2.71266e-07
0.000180152
2.44619e-06
0.000175442
4.70972e-06
0.00016858
6.8614e-06
0.000159635
8.94553e-06
0.000148731
1.09041e-05
0.000135968
1.27627e-05
0.000121682
1.42863e-05
0.000106072
1.56098e-05
8.96143e-05
1.64575e-05
7.23958e-05
1.72184e-05
5.49272e-05
1.74686e-05
3.7454e-05
1.74732e-05
2.02179e-05
1.7236e-05
3.46953e-06
1.67484e-05
-1.27813e-05
1.62508e-05
-2.82592e-05
1.54779e-05
-4.28125e-05
1.45533e-05
-5.64093e-05
1.35968e-05
-6.90247e-05
1.26153e-05
-8.06234e-05
1.15987e-05
-9.12447e-05
1.06213e-05
-0.000100891
9.64628e-06
-0.00010961
8.71895e-06
-0.000117476
7.86577e-06
-0.000124534
7.05805e-06
-0.000130847
6.3135e-06
-0.000136485
5.63726e-06
-0.000141484
4.9996e-06
-0.000145917
4.43326e-06
-0.000149805
3.88768e-06
-0.000153196
3.39069e-06
-0.000156087
2.89097e-06
-0.00015845
2.36299e-06
-0.000160245
1.79536e-06
-0.000161502
1.25668e-06
-0.000162145
6.43045e-07
-0.000162079
-6.54944e-08
-0.000161253
-8.26029e-07
-0.000159559
-1.69434e-06
-0.000157009
-2.54999e-06
-0.000153567
-3.44223e-06
-0.000149066
-4.50084e-06
-0.000143582
-5.48365e-06
-0.000136953
-6.62926e-06
-0.000129258
-7.69499e-06
-0.000120552
-8.70585e-06
-0.000110675
-9.8774e-06
-9.97231e-05
-1.09517e-05
-8.7814e-05
-1.19091e-05
-7.48234e-05
-1.29906e-05
-6.08768e-05
-1.39466e-05
-4.61852e-05
-1.46916e-05
-3.06723e-05
-1.5513e-05
-1.45967e-05
-1.60756e-05
2.00377e-06
-1.66005e-05
1.89437e-05
-1.69399e-05
3.59479e-05
-1.70042e-05
5.29856e-05
-1.70378e-05
6.98684e-05
-1.68828e-05
8.6319e-05
-1.64507e-05
0.000102209
-1.58895e-05
0.0001173
-1.5092e-05
0.00013145
-1.41496e-05
0.000144469
-1.30194e-05
0.00015616
-1.16909e-05
0.000166423
-1.02628e-05
0.000175124
-8.70131e-06
0.000182114
-6.99008e-06
0.000187327
-5.21296e-06
0.000190691
-3.36416e-06
0.000192118
-1.42699e-06
0.000191503
6.14809e-07
0.000188858
2.64499e-06
0.00018433
4.52812e-06
0.000177949
6.38142e-06
8.16072e-06
-0.000121971
1.9942e-05
-0.000130952
1.79617e-05
-0.000139068
1.62302e-05
-0.000146338
1.45383e-05
-0.000152782
1.28877e-05
-0.000158444
1.13239e-05
-0.000163347
9.80338e-06
-0.000167525
8.35066e-06
-0.000170995
6.93789e-06
-0.000173759
5.53375e-06
-0.000175836
4.15671e-06
-0.000177254
2.83049e-06
-0.000178032
1.55767e-06
-0.000178127
1.93796e-07
-0.00017751
-1.23466e-06
-0.00017618
-2.65571e-06
-0.000174179
-4.00717e-06
-0.000171409
-5.54253e-06
-0.000167896
-7.03031e-06
-0.000163692
-8.40319e-06
-0.000158554
-1.02776e-05
-0.000152577
-1.19548e-05
-0.000145854
-1.34479e-05
-0.000138076
-1.55537e-05
-0.000129406
-1.73433e-05
-0.000119669
-1.94756e-05
-0.000108935
-2.14678e-05
-9.73348e-05
-2.32008e-05
-8.45956e-05
-2.54758e-05
-7.08286e-05
-2.75304e-05
-5.62115e-05
-2.92338e-05
-4.05522e-05
-3.13133e-05
-2.40847e-05
-3.2941e-05
-6.76089e-06
-3.46296e-05
1.12139e-05
-3.59422e-05
2.95673e-05
-3.6699e-05
4.83595e-05
-3.75781e-05
6.73546e-05
-3.79803e-05
8.61917e-05
-3.76636e-05
0.0001048
-3.71996e-05
0.000122885
-3.61584e-05
0.000140298
-3.48192e-05
0.000156749
-3.28884e-05
0.000171902
-3.0295e-05
0.00018561
-2.74031e-05
0.000197672
-2.41136e-05
0.00020781
-2.02677e-05
0.000215935
-1.62401e-05
0.000221915
-1.19587e-05
0.000225553
-7.27681e-06
0.000226934
-2.75698e-06
0.000225945
1.97015e-06
0.000222684
6.52288e-06
0.000217159
1.10549e-05
0.000209462
1.53828e-05
0.00019985
1.92184e-05
0.000188414
2.28677e-05
0.00017529
2.6238e-05
0.000160722
2.91238e-05
0.000145008
3.14165e-05
0.000128348
3.33093e-05
0.000110925
3.48334e-05
9.2991e-05
3.58574e-05
7.47249e-05
3.65224e-05
5.63422e-05
3.67558e-05
3.81298e-05
3.64185e-05
2.02824e-05
3.56839e-05
2.76999e-06
3.50121e-05
-1.41802e-05
3.38849e-05
-3.05115e-05
3.2654e-05
-4.60281e-05
3.10282e-05
-6.07334e-05
2.94043e-05
-7.45882e-05
2.7703e-05
-8.75203e-05
2.58593e-05
-9.94691e-05
2.38972e-05
-0.000110514
2.2088e-05
-0.00012055
2.00708e-05
-0.000129695
1.82843e-05
-0.000137902
1.64131e-05
-0.000145153
1.45055e-05
-0.000151531
1.27605e-05
-0.000157003
1.09439e-05
-0.000161603
9.21566e-06
-0.000165357
7.50591e-06
-0.000168232
5.749e-06
-0.000170215
3.96006e-06
-0.000171379
2.33401e-06
-0.000171618
4.82827e-07
-0.000170989
-1.25693e-06
-0.000169477
-3.01183e-06
-0.000167167
-4.61088e-06
-0.000164119
-6.09154e-06
-0.000160415
-7.40356e-06
-0.0001561
-8.61521e-06
-0.000151305
-9.59406e-06
-0.000145928
-1.07582e-05
-0.00014002
-1.18265e-05
-0.000133541
-1.29719e-05
-0.000126491
-1.40916e-05
-0.000118802
-1.53799e-05
-0.00011048
-1.66523e-05
-0.000101386
-1.81935e-05
-9.16515e-05
-1.94735e-05
-8.11201e-05
-2.10632e-05
-6.98182e-05
-2.26097e-05
-5.77475e-05
-2.41417e-05
-4.49026e-05
-2.56881e-05
-3.13155e-05
-2.71713e-05
-1.71577e-05
-2.83126e-05
-2.32944e-06
-2.96524e-05
1.30851e-05
-3.08158e-05
2.89872e-05
-3.17914e-05
4.52769e-05
-3.25762e-05
6.18526e-05
-3.31453e-05
7.85188e-05
-3.33316e-05
9.51884e-05
-3.33276e-05
0.000111659
-3.29345e-05
0.000127774
-3.22216e-05
0.000143355
-3.1152e-05
0.000158116
-2.95082e-05
0.000171909
-2.75774e-05
0.000184483
-2.51509e-05
0.000195624
-2.22829e-05
0.000205122
-1.89946e-05
0.00021277
-1.52877e-05
0.000218404
-1.12748e-05
0.000221887
-6.97289e-06
0.000223102
-2.43467e-06
0.000222058
2.0692e-06
0.000218644
6.79619e-06
0.000212886
1.15281e-05
0.000204991
1.57714e-05
0.000195028
1.99182e-05
0.000183093
2.38487e-05
0.000169513
2.71409e-05
0.000154452
3.01391e-05
0.000138119
3.26089e-05
0.000120842
3.45011e-05
0.000102822
3.60601e-05
8.43527e-05
3.69144e-05
6.56289e-05
3.74406e-05
4.69414e-05
3.73509e-05
2.8454e-05
3.69692e-05
1.03765e-05
3.61603e-05
-7.08857e-06
3.49165e-05
-2.38177e-05
3.34665e-05
-3.96848e-05
3.17276e-05
-5.45814e-05
2.97901e-05
-6.84723e-05
2.77775e-05
-8.12943e-05
2.56502e-05
-9.3069e-05
2.35499e-05
-0.000103763
2.13862e-05
-0.000113535
1.9548e-05
-0.000122272
1.74828e-05
-0.000130077
1.56203e-05
-0.000136976
1.38129e-05
-0.000143007
1.20913e-05
-0.000148354
1.06824e-05
-0.000152911
9.11934e-06
-0.000156778
7.72492e-06
-0.000159949
6.3582e-06
-0.000162473
5.05331e-06
-0.000164362
3.74761e-06
-0.00016568
2.66136e-06
-0.000166399
1.44588e-06
-0.000166562
3.49724e-07
-0.000166253
-6.38097e-07
-0.000165334
-1.8355e-06
-0.000163855
-2.92532e-06
-0.000161885
-3.96733e-06
-0.000159284
-5.19617e-06
-0.000156084
-6.38701e-06
-0.000152227
-7.71438e-06
-0.000147723
-9.01353e-06
-0.000142556
-1.03266e-05
-0.00013667
-1.17752e-05
-0.000130016
-1.33002e-05
-0.000122579
-1.48748e-05
-0.000114323
-1.65169e-05
-0.000105281
-1.80753e-05
-9.53943e-05
-1.97746e-05
-8.46928e-05
-2.13968e-05
-7.31286e-05
-2.31218e-05
-6.07313e-05
-2.47996e-05
-4.75085e-05
-2.64415e-05
-3.34909e-05
-2.80278e-05
-1.87354e-05
-2.95221e-05
-3.34608e-06
-3.07645e-05
1.264e-05
-3.19721e-05
2.91211e-05
-3.29659e-05
4.59359e-05
-3.36115e-05
6.30119e-05
-3.41461e-05
8.01783e-05
-3.43228e-05
9.71887e-05
-3.40159e-05
0.000113887
-3.33942e-05
0.000129998
-3.22062e-05
0.000145162
-3.0323e-05
0.000159189
-2.8045e-05
0.00017175
-2.51182e-05
0.000182602
-2.17057e-05
0.000191519
-1.78331e-05
0.00019835
-1.3667e-05
0.000202956
-9.21661e-06
0.000205243
-4.56478e-06
0.000205151
1.79715e-07
0.000202661
4.95697e-06
0.00019774
9.84134e-06
0.000190492
1.44716e-05
0.000181045
1.88905e-05
0.000169515
2.3048e-05
0.000156176
2.66587e-05
0.000141262
2.98287e-05
0.000125015
3.24619e-05
0.000107787
3.44527e-05
8.97582e-05
3.60389e-05
7.12693e-05
3.69749e-05
5.25219e-05
3.74804e-05
3.38207e-05
3.73824e-05
1.5328e-05
3.69494e-05
-2.73742e-06
3.61583e-05
-2.01562e-05
3.48338e-05
-3.68091e-05
3.33112e-05
-5.25653e-05
3.15088e-05
-6.73525e-05
2.95736e-05
-8.11265e-05
2.75478e-05
-9.38309e-05
2.54149e-05
-0.000105486
2.3312e-05
-0.000116176
2.13853e-05
-0.000125852
1.93616e-05
-0.000134558
1.74179e-05
-0.000142308
1.55029e-05
-0.000149122
1.36283e-05
-0.000155047
1.18743e-05
-0.000160223
1.03352e-05
-0.000164648
8.85622e-06
-0.000168431
7.56854e-06
-0.000171562
6.27165e-06
-0.00017408
5.03849e-06
-0.000175973
3.78839e-06
-0.000177331
2.71054e-06
-0.000178073
1.48883e-06
-0.000178256
3.71e-07
-0.000177827
-8.62177e-07
-0.000176816
-2.02287e-06
-0.000175197
-3.23706e-06
-0.000172958
-4.47642e-06
-0.000170088
-5.73315e-06
-0.000166538
-7.10991e-06
-0.000162258
-8.56222e-06
-0.000157255
-1.00084e-05
-0.000151477
-1.15583e-05
-0.000144916
-1.31227e-05
-0.000137521
-1.47805e-05
-0.000129451
-1.61555e-05
-0.000120591
-1.77108e-05
-0.000110985
-1.92141e-05
-0.000100572
-2.08149e-05
-8.95144e-05
-2.21193e-05
-7.76203e-05
-2.37821e-05
-6.49509e-05
-2.53237e-05
-5.15422e-05
-2.68042e-05
-3.74505e-05
-2.81821e-05
-2.27206e-05
-2.9462e-05
-7.47658e-06
-3.04507e-05
8.1705e-06
-3.12936e-05
2.42189e-05
-3.2083e-05
4.04728e-05
-3.24908e-05
5.67382e-05
-3.25233e-05
7.29106e-05
-3.23326e-05
8.87301e-05
-3.16194e-05
0.00010395
-3.04333e-05
0.000118395
-2.88734e-05
0.000131837
-2.68693e-05
0.000144094
-2.45109e-05
0.000154887
-2.15723e-05
0.000164202
-1.86301e-05
0.000171727
-1.50409e-05
0.000177516
-1.15738e-05
0.000181267
-7.49942e-06
0.000182977
-3.40972e-06
0.000182705
5.43125e-07
0.000180259
4.89199e-06
0.000175549
9.41967e-06
0.000168687
1.37236e-05
0.000159738
1.78936e-05
0.000148827
2.18158e-05
0.000136052
2.55377e-05
0.000121754
2.85841e-05
0.000106128
3.12354e-05
8.96608e-05
3.29248e-05
7.24263e-05
3.44529e-05
5.49436e-05
3.49512e-05
3.74582e-05
3.49586e-05
2.02114e-05
3.44827e-05
3.46094e-06
3.34988e-05
-1.28069e-05
3.25186e-05
-2.82902e-05
3.09612e-05
-4.28509e-05
2.91139e-05
-5.64548e-05
2.72007e-05
-6.90724e-05
2.52329e-05
-8.06742e-05
2.32005e-05
-9.1296e-05
2.12431e-05
-0.000100941
1.92912e-05
-0.000109658
1.74358e-05
-0.000117523
1.57313e-05
-0.00012458
1.41144e-05
-0.000130892
1.26256e-05
-0.000136523
1.12686e-05
-0.000141527
1.0003e-05
-0.000145959
8.8661e-06
-0.000149849
7.77767e-06
-0.000153238
6.77953e-06
-0.000156129
5.78178e-06
-0.000158494
4.72799e-06
-0.000160295
3.59664e-06
-0.000161559
2.5203e-06
-0.0001622
1.28389e-06
-0.000162131
-1.34236e-07
-0.000161302
-1.65487e-06
-0.000159611
-3.38519e-06
-0.000157064
-5.09747e-06
-0.000153625
-6.88149e-06
-0.000149126
-8.99979e-06
-0.000143644
-1.09657e-05
-0.000137014
-1.32591e-05
-0.000129318
-1.53912e-05
-0.000120611
-1.74123e-05
-0.000110733
-1.97559e-05
-9.97789e-05
-2.19056e-05
-8.78662e-05
-2.3822e-05
-7.48693e-05
-2.59875e-05
-6.09189e-05
-2.78971e-05
-4.62248e-05
-2.93857e-05
-3.07046e-05
-3.10332e-05
-1.4616e-05
-3.21643e-05
1.98513e-06
-3.32016e-05
1.89369e-05
-3.38917e-05
3.596e-05
-3.40274e-05
5.3012e-05
-3.40899e-05
6.98949e-05
-3.37658e-05
8.63478e-05
-3.29036e-05
0.000102247
-3.17889e-05
0.00011735
-3.0195e-05
0.000131512
-2.83118e-05
0.000144545
-2.6052e-05
0.000156241
-2.33874e-05
0.000166504
-2.05257e-05
0.000175207
-1.74045e-05
0.000182197
-1.39803e-05
0.000187409
-1.04251e-05
0.000190773
-6.72758e-06
0.0001922
-2.85417e-06
0.000191576
1.23841e-06
0.000188929
5.29251e-06
0.000184403
9.05335e-06
0.000178018
1.27664e-05
1.63278e-05
-0.000122045
2.99153e-05
-0.000131025
2.69417e-05
-0.000139141
2.43455e-05
-0.00014641
2.18075e-05
-0.000152854
1.93316e-05
-0.000158515
1.69848e-05
-0.000163415
1.47041e-05
-0.000167592
1.25272e-05
-0.000171061
1.04072e-05
-0.00017383
8.30253e-06
-0.000175913
6.23956e-06
-0.000177328
4.2458e-06
-0.000178096
2.3258e-06
-0.000178182
2.78969e-07
-0.000177567
-1.8497e-06
-0.000176236
-3.986e-06
-0.000174232
-6.01156e-06
-0.000171466
-8.30828e-06
-0.000167969
-1.05276e-05
-0.000163753
-1.2619e-05
-0.000158618
-1.54122e-05
-0.000152645
-1.79278e-05
-0.000145928
-2.01654e-05
-0.000138148
-2.33341e-05
-0.000129479
-2.60121e-05
-0.000119745
-2.92098e-05
-0.000109014
-3.21982e-05
-9.74136e-05
-3.48017e-05
-8.46733e-05
-3.82162e-05
-7.09033e-05
-4.13005e-05
-5.62815e-05
-4.38556e-05
-4.06165e-05
-4.69783e-05
-2.41473e-05
-4.94104e-05
-6.80554e-06
-5.19714e-05
1.11799e-05
-5.39277e-05
2.95423e-05
-5.50615e-05
4.83492e-05
-5.63851e-05
6.73635e-05
-5.69946e-05
8.62165e-05
-5.65167e-05
0.000104841
-5.58242e-05
0.000122943
-5.42607e-05
0.000140378
-5.22535e-05
0.000156852
-4.93632e-05
0.000172025
-4.54675e-05
0.000185752
-4.11307e-05
0.000197821
-3.61829e-05
0.000207967
-3.04138e-05
0.000216108
-2.43811e-05
0.000222099
-1.79493e-05
0.000225734
-1.09115e-05
0.000227119
-4.14208e-06
0.000226109
2.97941e-06
0.000222852
9.77978e-06
0.000217338
1.65693e-05
0.000209616
2.31042e-05
0.00019999
2.88451e-05
0.000188545
3.43123e-05
0.000175403
3.93796e-05
0.000160817
4.37103e-05
0.000145082
4.71516e-05
0.000128401
4.999e-05
0.000110957
5.22774e-05
9.30047e-05
5.38097e-05
7.47266e-05
5.48005e-05
5.63336e-05
5.51487e-05
3.81177e-05
5.46344e-05
2.025e-05
5.35515e-05
2.71971e-06
5.25425e-05
-1.42367e-05
5.08414e-05
-3.05782e-05
4.89955e-05
-4.61012e-05
4.65512e-05
-6.08097e-05
4.41128e-05
-7.46693e-05
4.15625e-05
-8.76047e-05
3.87947e-05
-9.95572e-05
3.58497e-05
-0.000110603
3.31341e-05
-0.000120637
3.01046e-05
-0.000129782
2.74292e-05
-0.000137987
2.46182e-05
-0.000145236
2.17541e-05
-0.000151609
1.91336e-05
-0.000157086
1.64209e-05
-0.000161675
1.3805e-05
-0.000165424
1.1255e-05
-0.000168309
8.63341e-06
-0.000170294
5.94546e-06
-0.000171459
3.49948e-06
-0.000171699
7.22058e-07
-0.000171064
-1.89163e-06
-0.000169554
-4.52158e-06
-0.00016724
-6.9249e-06
-0.000164187
-9.1445e-06
-0.000160479
-1.11122e-05
-0.000156196
-1.28979e-05
-0.00015138
-1.44097e-05
-0.000146014
-1.61247e-05
-0.000140119
-1.77218e-05
-0.000133631
-1.94598e-05
-0.000126627
-2.10958e-05
-0.000118951
-2.30556e-05
-0.000110645
-2.49583e-05
-0.000101556
-2.72822e-05
-9.18263e-05
-2.92034e-05
-8.13038e-05
-3.15858e-05
-7.00046e-05
-3.39089e-05
-5.79303e-05
-3.62161e-05
-4.51038e-05
-3.85147e-05
-3.15555e-05
-4.07197e-05
-1.7335e-05
-4.25332e-05
-2.5009e-06
-4.44866e-05
1.29287e-05
-4.62455e-05
2.88317e-05
-4.76945e-05
4.51277e-05
-4.88724e-05
6.17148e-05
-4.97325e-05
7.83961e-05
-5.00131e-05
9.50791e-05
-5.00107e-05
0.000111568
-4.94239e-05
0.000127697
-4.83503e-05
0.000143304
-4.67589e-05
0.000158079
-4.42837e-05
0.000171886
-4.13849e-05
0.000184477
-3.7741e-05
0.000195631
-3.34372e-05
0.000205145
-2.85087e-05
0.000212801
-2.2944e-05
0.00021845
-1.69238e-05
0.000221954
-1.0477e-05
0.000223165
-3.64636e-06
0.000222086
3.14845e-06
0.000218662
1.02204e-05
0.000212911
1.72785e-05
0.000205023
2.36592e-05
0.000194984
2.99578e-05
0.000183057
3.57757e-05
0.000169459
4.07388e-05
0.000154386
4.52123e-05
0.00013802
4.89741e-05
0.000120704
5.1817e-05
0.000102666
5.4099e-05
8.41699e-05
5.541e-05
6.54373e-05
5.61732e-05
4.67284e-05
5.60598e-05
2.82273e-05
5.54702e-05
1.01654e-05
5.42221e-05
-7.33404e-06
5.24159e-05
-2.4069e-05
5.02014e-05
-3.99469e-05
4.76055e-05
-5.48457e-05
4.46889e-05
-6.87437e-05
4.16755e-05
-8.15799e-05
3.84864e-05
-9.33391e-05
3.5309e-05
-0.000104085
3.21318e-05
-0.00011381
2.92736e-05
-0.000122541
2.62139e-05
-0.000130329
2.34076e-05
-0.00013722
2.07045e-05
-0.000143253
1.81236e-05
-0.000148594
1.60237e-05
-0.000153136
1.36617e-05
-0.000157006
1.15943e-05
-0.000160177
9.52922e-06
-0.000162652
7.52868e-06
-0.00016461
5.70528e-06
-0.000165926
3.97736e-06
-0.000166642
2.16225e-06
-0.000166761
4.68535e-07
-0.00016648
-9.192e-07
-0.000165561
-2.75473e-06
-0.000164081
-4.40455e-06
-0.000162108
-5.94076e-06
-0.000159514
-7.79069e-06
-0.000156308
-9.59229e-06
-0.000152466
-1.15567e-05
-0.000147966
-1.35135e-05
-0.000142731
-1.55615e-05
-0.000136893
-1.7613e-05
-0.000130249
-1.99447e-05
-0.0001228
-2.23242e-05
-0.000114572
-2.4744e-05
-0.000105525
-2.71229e-05
-9.5633e-05
-2.96666e-05
-8.49304e-05
-3.20995e-05
-7.33666e-05
-3.46857e-05
-6.09633e-05
-3.7203e-05
-4.77318e-05
-3.9673e-05
-3.37104e-05
-4.20494e-05
-1.89747e-05
-4.42578e-05
-3.51181e-06
-4.62275e-05
1.24497e-05
-4.79337e-05
2.89303e-05
-4.94466e-05
4.57803e-05
-5.04616e-05
6.28642e-05
-5.123e-05
8.00439e-05
-5.15026e-05
9.70964e-05
-5.10684e-05
0.000113797
-5.00951e-05
0.000129924
-4.83335e-05
0.000145141
-4.55396e-05
0.000159172
-4.20759e-05
0.000171752
-3.76991e-05
0.000182617
-3.25705e-05
0.000191549
-2.67651e-05
0.000198383
-2.05011e-05
0.000202986
-1.38199e-05
0.000205275
-6.85363e-06
0.000205176
2.78904e-07
0.000202668
7.46451e-06
0.000197778
1.47315e-05
0.000190503
2.17466e-05
0.00018104
2.83532e-05
0.000169491
3.45967e-05
0.000156124
4.00254e-05
0.000141206
4.47469e-05
0.000124915
4.87529e-05
0.000107693
5.16747e-05
8.96147e-05
5.4117e-05
7.11079e-05
5.54817e-05
5.23448e-05
5.62434e-05
3.36242e-05
5.6103e-05
1.5103e-05
5.54707e-05
-2.96866e-06
5.42299e-05
-2.03984e-05
5.22635e-05
-3.70432e-05
4.9956e-05
-5.281e-05
4.72756e-05
-6.75982e-05
4.43617e-05
-8.13708e-05
4.13205e-05
-9.40723e-05
3.81164e-05
-0.000105766
3.50058e-05
-0.000116437
3.20561e-05
-0.000126113
2.90375e-05
-0.000134817
2.6122e-05
-0.000142561
2.32466e-05
-0.00014937
2.04373e-05
-0.000155271
1.77752e-05
-0.000160471
1.55356e-05
-0.000164891
1.32765e-05
-0.000168668
1.13451e-05
-0.00017179
9.39391e-06
-0.000174315
7.56291e-06
-0.000176218
5.69147e-06
-0.000177567
4.05954e-06
-0.00017831
2.23171e-06
-0.000178483
5.44487e-07
-0.000178067
-1.27789e-06
-0.000177052
-3.03824e-06
-0.000175411
-4.87849e-06
-0.000173207
-6.6801e-06
-0.000170334
-8.6064e-06
-0.000166783
-1.06601e-05
-0.000162496
-1.285e-05
-0.000157511
-1.49935e-05
-0.00015173
-1.73394e-05
-0.000145166
-1.96864e-05
-0.000137767
-2.21799e-05
-0.000129694
-2.42281e-05
-0.000120824
-2.65812e-05
-0.000111216
-2.88222e-05
-0.000100855
-3.11759e-05
-8.97297e-05
-3.32442e-05
-7.78183e-05
-3.56936e-05
-6.51343e-05
-3.80077e-05
-5.17121e-05
-4.02265e-05
-3.76053e-05
-4.2289e-05
-2.2874e-05
-4.41933e-05
-7.58731e-06
-4.57375e-05
8.07207e-06
-4.69531e-05
2.41473e-05
-4.81583e-05
4.04225e-05
-4.87661e-05
5.67063e-05
-4.88072e-05
7.28997e-05
-4.85261e-05
8.8746e-05
-4.74658e-05
0.000103987
-4.56743e-05
0.00011846
-4.33462e-05
0.000131914
-4.03241e-05
0.000144182
-3.67787e-05
0.000154996
-3.23862e-05
0.000164321
-2.79554e-05
0.000171862
-2.25822e-05
0.000177642
-1.73534e-05
0.000181408
-1.12652e-05
0.000183132
-5.13438e-06
0.000182858
8.16751e-07
0.000180417
7.33316e-06
0.000175708
1.41291e-05
0.000168846
2.05856e-05
0.000159896
2.68436e-05
0.000148967
3.27447e-05
0.00013617
3.83341e-05
0.000121852
4.29022e-05
0.000106198
4.68892e-05
8.97126e-05
4.94102e-05
7.24497e-05
5.17157e-05
5.49437e-05
5.24571e-05
3.74373e-05
5.2465e-05
2.01731e-05
5.17469e-05
3.42294e-06
5.02489e-05
-1.28728e-05
4.88143e-05
-2.83627e-05
4.64511e-05
-4.29311e-05
4.36823e-05
-5.65436e-05
4.08132e-05
-6.91638e-05
3.78531e-05
-8.07606e-05
3.47973e-05
-9.13782e-05
3.18607e-05
-0.00010102
2.89328e-05
-0.000109734
2.61497e-05
-0.000117595
2.35927e-05
-0.00012465
2.11696e-05
-0.000130961
1.89359e-05
-0.000136582
1.68897e-05
-0.000141589
1.50107e-05
-0.00014602
1.32966e-05
-0.00014991
1.16678e-05
-0.000153292
1.01619e-05
-0.000156187
8.67652e-06
-0.000158561
7.1021e-06
-0.000160367
5.40201e-06
-0.00016163
3.78355e-06
-0.000162267
1.92144e-06
-0.000162197
-2.04933e-07
-0.000161362
-2.48987e-06
-0.000159676
-5.0708e-06
-0.000157134
-7.6395e-06
-0.0001537
-1.03152e-05
-0.000149206
-1.34946e-05
-0.000143726
-1.64451e-05
-0.000137099
-1.98868e-05
-0.000129403
-2.30863e-05
-0.000120696
-2.61196e-05
-0.000110816
-2.96365e-05
-9.98583e-05
-3.2863e-05
-8.79394e-05
-3.57409e-05
-7.49376e-05
-3.89893e-05
-6.09856e-05
-4.18491e-05
-4.62752e-05
-4.40961e-05
-3.0745e-05
-4.65636e-05
-1.46503e-05
-4.8259e-05
1.98059e-06
-4.98326e-05
1.89511e-05
-5.08623e-05
3.59842e-05
-5.10605e-05
5.30451e-05
-5.11508e-05
6.99464e-05
-5.06671e-05
8.64188e-05
-4.9376e-05
0.000102339
-4.77096e-05
0.000117459
-4.5315e-05
0.00013163
-4.24827e-05
0.000144667
-3.90884e-05
0.000156369
-3.50893e-05
0.000166637
-3.07943e-05
0.000175339
-2.61062e-05
0.000182328
-2.09693e-05
0.00018754
-1.56379e-05
0.000190905
-1.00922e-05
0.000192338
-4.28745e-06
0.000191709
1.86771e-06
0.000189064
7.93725e-06
0.000184543
1.35737e-05
0.000178153
1.91569e-05
2.45035e-05
-0.000122156
3.98889e-05
-0.000131137
3.59227e-05
-0.000139252
3.24602e-05
-0.000146521
2.9076e-05
-0.000152963
2.57744e-05
-0.000158624
2.26449e-05
-0.000163526
1.96062e-05
-0.000167704
1.6706e-05
-0.000171174
1.3877e-05
-0.000173945
1.10734e-05
-0.00017603
8.32504e-06
-0.000177445
5.66066e-06
-0.0001782
3.08096e-06
-0.000178269
3.4774e-07
-0.000177652
-2.46682e-06
-0.000176318
-5.31968e-06
-0.000174314
-8.01625e-06
-0.000171553
-1.10687e-05
-0.000168086
-1.39948e-05
-0.000163845
-1.68598e-05
-0.000158715
-2.05425e-05
-0.000152749
-2.38943e-05
-0.000146039
-2.68748e-05
-0.000138256
-3.11176e-05
-0.00012959
-3.46784e-05
-0.000119861
-3.89387e-05
-0.000109136
-4.29232e-05
-9.75345e-05
-4.64029e-05
-8.47919e-05
-5.09588e-05
-7.10157e-05
-5.50768e-05
-5.63847e-05
-5.84867e-05
-4.07124e-05
-6.26507e-05
-2.42421e-05
-6.58807e-05
-6.87559e-06
-6.93381e-05
1.11276e-05
-7.1931e-05
2.95082e-05
-7.34422e-05
4.83369e-05
-7.52138e-05
6.73748e-05
-7.60326e-05
8.62513e-05
-7.53933e-05
0.000104904
-7.44767e-05
0.000123034
-7.23909e-05
0.000140499
-6.97192e-05
0.000157006
-6.58696e-05
0.000172207
-6.06688e-05
0.000185969
-5.48929e-05
0.000198046
-4.82602e-05
0.000208205
-4.05729e-05
0.000216357
-3.25327e-05
0.000222369
-2.3962e-05
0.000226006
-1.45485e-05
0.000227386
-5.52207e-06
0.000226353
4.01291e-06
0.000223087
1.30458e-05
0.000217583
2.20731e-05
0.000209846
3.08406e-05
0.000200198
3.84932e-05
0.000188741
4.57699e-05
0.000175573
5.25475e-05
0.000160959
5.83241e-05
0.000145192
6.29184e-05
0.000128481
6.67013e-05
0.000111005
6.97526e-05
9.30264e-05
7.17884e-05
7.47295e-05
7.30974e-05
5.63203e-05
7.35579e-05
3.81042e-05
7.28505e-05
2.0201e-05
7.14546e-05
2.64402e-06
7.00994e-05
-1.43249e-05
6.78103e-05
-3.068e-05
6.53506e-05
-4.62122e-05
6.20833e-05
-6.09269e-05
5.88275e-05
-7.47957e-05
5.54313e-05
-8.7733e-05
5.1732e-05
-9.96902e-05
4.78069e-05
-0.000110741
4.41848e-05
-0.00012077
4.01334e-05
-0.00012992
3.658e-05
-0.000138123
3.28205e-05
-0.000145365
2.89964e-05
-0.000151726
2.54945e-05
-0.000157218
2.1913e-05
-0.0001618
1.83872e-05
-0.000165545
1.49998e-05
-0.000168437
1.15254e-05
-0.000170428
7.93633e-06
-0.000171598
4.66916e-06
-0.000171835
9.59262e-07
-0.000171194
-2.5327e-06
-0.000169687
-6.02814e-06
-0.00016737
-9.24174e-06
-0.000164318
-1.21972e-05
-0.000160601
-1.48293e-05
-0.000156366
-1.71332e-05
-0.000151536
-1.92391e-05
-0.000146188
-2.14733e-05
-0.00014031
-2.35997e-05
-0.000133834
-2.59356e-05
-0.00012686
-2.80693e-05
-0.000119212
-3.07036e-05
-0.000110919
-3.3252e-05
-0.000101906