/*--------------------------------*- C++ -*----------------------------------*\
| =========                 |                                                 |
| \\      /  F ield         | OpenFOAM: The Open Source CFD Toolbox           |
|  \\    /   O peration     | Version:  3.0.1                                 |
|   \\  /    A nd           | Web:      www.OpenFOAM.org                      |
|    \\/     M anipulation  |                                                 |
\*---------------------------------------------------------------------------*/
FoamFile
{
    version     2.0;
    format      ascii;
    class       volScalarField;
    location    "18.4";
    object      p;
}
// * * * * * * * * * * * * * * * * * * * * * * * * * * * * * * * * * * * * * //

dimensions      [1 -1 -2 0 0 0 0];

internalField   nonuniform List<scalar> 
21420
(
4087.78
4056.42
4024.13
3991.27
3958.3
3925.57
3894.85
3864
3833.2
3803.37
3774.83
3747.81
3722.42
3698.74
3676.83
3656.69
3638.33
3621.71
3606.81
3593.58
3581.98
3571.97
3563.49
3556.52
3551.01
3546.94
3544.34
3543.21
3543.53
3545.26
3548.47
3553.16
3559.38
3567.16
3576.56
3587.63
3600.4
3614.93
3631.27
3649.43
3669.44
3691.3
3714.99
3740.47
3767.66
3796.4
3826.57
3857.94
3890.17
3922.56
3955.88
3989.39
4022.7
4055.42
4087.14
4117.52
4146.17
4172.73
4196.88
4218.31
4236.76
4251.99
4263.78
4271.97
4276.43
4277.04
4273.93
4266.96
4256.19
4241.77
4223.87
4202.73
4178.62
4151.87
4122.85
4091.95
4059.59
4026.19
3992.14
3957.8
3923.45
3887.51
3854.22
3822.19
3791.49
3762.3
3734.78
3709.06
3685.25
3663.41
3643.59
3625.8
3610.04
3596.25
3584.38
3574.34
3566.04
3559.38
3554.27
3550.59
3548.34
3547.48
3547.87
3549.57
3552.59
3556.89
3562.55
3569.58
3578.05
3588.01
3599.52
3612.62
3627.38
3643.82
3661.99
3681.89
3703.53
3726.88
3751.89
3778.48
3806.54
3835.93
3866.45
3897.89
3929.99
3962.48
3995.06
4027.39
4059.15
4089.97
4119.48
4147.32
4173.15
4196.59
4217.31
4235.01
4249.41
4260.27
4267.42
4270.71
4270.02
4265.42
4256.96
4244.68
4228.78
4209.49
4187.06
4161.83
4134.16
4104.43
4073.03
4040.37
4006.89
3972.98
3939.03
3905.41
3872.46
3840.45
3809.65
3780.25
3752.43
3726.32
3701.99
3679.5
3658.9
3640.18
3623.34
3608.37
3595.23
3583.9
3574.34
3566.51
3560.36
3555.87
3553.01
3551.76
3552.11
3553.93
3557.27
3562.11
3568.4
3576.15
3585.35
3595.99
3608.08
3621.61
3636.59
3653.02
3670.91
3690.26
3711.07
3733.34
3757.04
3782.16
3808.64
3836.41
3865.37
3895.4
3926.32
3957.87
3989.82
4021.85
4053.63
4084.76
4114.85
4143.45
4170.14
4194.51
4216.13
4234.62
4249.67
4260.99
4268.35
4271.63
4270.68
4265.6
4256.48
4243.38
4226.57
4206.34
4183.01
4156.98
4128.66
4098.5
4066.94
4034.45
4001.46
3968.38
3935.58
3903.37
3872.05
3841.83
3812.87
3785.31
3759.23
3734.67
3711.66
3690.2
3670.27
3651.83
3634.87
3619.35
3605.24
3592.53
3581.18
3571.21
3562.62
3555.41
3549.62
3545.28
3542.38
3540.96
3541.17
3542.93
3546.31
3551.35
3558.12
3566.66
3577.02
3589.23
3603.34
3619.35
3637.29
3657.12
3678.84
3702.36
3727.62
3754.49
3782.83
3812.45
3843.12
3874.54
3910.73
3943.56
3976.63
4009.59
4042.07
4073.72
4104.17
4133.1
4160.15
4184.99
4207.32
4226.81
4243.23
4256.29
4265.76
4271.45
4273.29
4272.13
4266.99
4257.83
4244.83
4228.14
4207.95
4184.53
4158.17
4129.24
4098.14
4065.31
4031.2
3996.26
3960.95
3925.74
3891.44
3858.38
3826.01
3794.64
3764.67
3736.36
3709.91
3685.44
3663.02
3642.72
3624.53
3608.43
3594.38
3582.33
3572.22
3563.97
3557.5
3552.73
3549.61
3548.1
3548.34
3550.04
3553.22
3557.84
3563.86
3571.26
3580.01
3590.13
3601.59
3614.4
3628.55
3644.03
3660.85
3679
3698.45
3719.2
3741.19
3764.39
3788.7
3814.03
3840.27
3867.26
3894.68
3922.75
3951.12
3979.57
4007.84
4035.68
4062.77
4088.83
4113.56
4136.55
4157.39
3989.71
3958.33
3926.03
3893.16
3860.17
3827.42
3796.7
3765.84
3735.03
3705.19
3676.65
3649.63
3624.23
3600.56
3578.65
3558.51
3540.15
3523.54
3508.64
3495.42
3483.82
3473.81
3465.33
3458.36
3452.86
3448.79
3446.18
3445.05
3445.37
3447.1
3450.31
3455
3461.22
3469
3478.39
3489.46
3502.23
3516.76
3533.09
3551.25
3571.26
3593.12
3616.8
3642.29
3669.48
3698.23
3728.4
3759.78
3792.02
3824.41
3857.75
3891.27
3924.6
3957.33
3989.07
4019.46
4048.13
4074.7
4098.87
4120.32
4138.78
4154.02
4165.82
4174.01
4178.48
4179.1
4175.97
4169
4158.22
4143.8
4125.89
4104.73
4080.61
4053.84
4024.8
3993.88
3961.5
3928.08
3894.02
3859.67
3825.32
3789.33
3756.05
3724.01
3693.31
3664.12
3636.59
3610.87
3587.06
3565.22
3545.4
3527.61
3511.86
3498.07
3486.21
3476.17
3467.87
3461.22
3456.11
3452.44
3450.19
3449.33
3449.72
3451.42
3454.44
3458.74
3464.39
3471.42
3479.89
3489.85
3501.35
3514.46
3529.21
3545.65
3563.81
3583.71
3605.35
3628.7
3653.71
3680.31
3708.37
3737.76
3768.29
3799.74
3831.85
3864.35
3896.94
3929.29
3961.06
3991.89
4021.42
4049.28
4075.12
4098.58
4119.32
4137.03
4151.44
4162.32
4169.47
4172.77
4172.07
4167.46
4159
4146.71
4130.81
4111.5
4089.05
4063.81
4036.12
4006.37
3974.95
3942.28
3908.78
3874.85
3840.89
3807.26
3774.29
3742.28
3711.47
3682.07
3654.25
3628.13
3603.8
3581.32
3560.71
3542
3525.16
3510.19
3497.06
3485.72
3476.17
3468.34
3462.2
3457.71
3454.84
3453.6
3453.95
3455.77
3459.11
3463.95
3470.24
3477.99
3487.19
3497.83
3509.92
3523.45
3538.43
3554.86
3572.74
3592.09
3612.9
3635.17
3658.87
3683.99
3710.47
3738.25
3767.21
3797.24
3828.17
3859.73
3891.69
3923.74
3955.53
3986.68
4016.78
4045.4
4072.12
4096.5
4118.14
4136.65
4151.71
4163.04
4170.41
4173.7
4172.74
4167.65
4158.53
4145.42
4128.6
4108.35
4085
4058.95
4030.61
4000.43
3968.85
3936.34
3903.34
3870.24
3837.43
3805.21
3773.89
3743.66
3714.7
3687.13
3661.05
3636.49
3613.49
3592.03
3572.1
3553.67
3536.71
3521.19
3507.09
3494.37
3483.03
3473.06
3464.47
3457.25
3451.46
3447.13
3444.21
3442.8
3443.01
3444.77
3448.14
3453.18
3459.95
3468.49
3478.84
3491.06
3505.16
3521.17
3539.1
3558.94
3580.65
3604.18
3629.44
3656.32
3684.66
3714.29
3744.97
3776.41
3812.58
3845.42
3878.51
3911.48
3943.98
3975.64
4006.11
4035.05
4062.12
4086.98
4109.31
4128.82
4145.25
4158.32
4167.81
4173.51
4175.36
4174.19
4169.04
4159.88
4146.87
4130.17
4109.97
4086.53
4060.15
4031.2
4000.09
3967.23
3933.11
3898.15
3862.82
3827.59
3793.28
3760.22
3727.84
3696.46
3666.48
3638.17
3611.71
3587.24
3564.83
3544.53
3526.34
3510.24
3496.2
3484.16
3474.05
3465.8
3459.33
3454.56
3451.45
3449.94
3450.18
3451.89
3455.07
3459.68
3465.7
3473.1
3481.86
3491.97
3503.44
3516.24
3530.39
3545.87
3562.69
3580.84
3600.3
3621.04
3643.04
3666.23
3690.54
3715.88
3742.13
3769.12
3796.54
3824.62
3853
3881.46
3909.73
3937.58
3964.69
3990.76
4015.51
4038.51
4059.37
3891.68
3860.26
3827.92
3795.02
3762
3729.24
3698.48
3667.61
3636.79
3606.94
3578.39
3551.36
3525.97
3502.3
3480.39
3460.25
3441.9
3425.29
3410.4
3397.18
3385.59
3375.58
3367.11
3360.14
3354.64
3350.58
3347.97
3346.84
3347.16
3348.89
3352.09
3356.78
3362.99
3370.77
3380.16
3391.22
3403.98
3418.51
3434.83
3452.99
3473
3494.85
3518.54
3544.03
3571.22
3599.98
3630.16
3661.55
3693.82
3726.22
3759.58
3793.13
3826.49
3859.25
3891.03
3921.45
3950.15
3976.76
4000.95
4022.43
4040.92
4056.18
4068
4076.2
4080.68
4081.31
4078.16
4071.19
4060.4
4045.96
4028.02
4006.84
3982.68
3955.88
3926.8
3895.85
3863.43
3829.97
3795.88
3761.51
3727.16
3691.09
3657.81
3625.76
3595.05
3565.85
3538.32
3512.59
3488.78
3466.94
3447.12
3429.34
3413.59
3399.81
3387.96
3377.93
3369.64
3362.99
3357.89
3354.23
3351.99
3351.13
3351.51
3353.22
3356.23
3360.53
3366.18
3373.21
3381.67
3391.62
3403.12
3416.22
3430.96
3447.4
3465.56
3485.46
3507.09
3530.45
3555.46
3582.06
3610.14
3639.53
3670.07
3701.54
3733.67
3766.19
3798.81
3831.18
3862.98
3893.85
3923.41
3951.3
3977.17
4000.67
4021.44
4039.18
4053.61
4064.5
4071.67
4074.98
4074.28
4069.67
4061.19
4048.89
4032.96
4013.62
3991.14
3965.86
3938.14
3908.35
3876.89
3844.19
3810.66
3776.7
3742.71
3709.05
3676.07
3644.04
3613.22
3583.81
3555.98
3529.86
3505.53
3483.05
3462.45
3443.74
3426.9
3411.94
3398.81
3387.48
3377.93
3370.1
3363.96
3359.48
3356.62
3355.38
3355.73
3357.55
3360.89
3365.73
3372.03
3379.77
3388.97
3399.61
3411.7
3425.23
3440.2
3456.63
3474.51
3493.86
3514.67
3536.93
3560.64
3585.76
3612.24
3640.02
3668.99
3699.03
3729.97
3761.55
3793.53
3825.6
3857.42
3888.61
3918.75
3947.41
3974.16
3998.58
4020.26
4038.8
4053.89
4065.24
4072.63
4075.93
4074.97
4069.87
4060.73
4047.6
4030.75
4010.46
3987.08
3960.99
3932.61
3902.39
3870.77
3838.23
3805.19
3772.07
3739.23
3707
3675.66
3645.42
3616.45
3588.89
3562.8
3538.25
3515.25
3493.79
3473.86
3455.44
3438.48
3422.97
3408.87
3396.16
3384.81
3374.84
3366.25
3359.04
3353.25
3348.91
3345.99
3344.58
3344.78
3346.54
3349.91
3354.94
3361.71
3370.24
3380.59
3392.8
3406.9
3422.91
3440.84
3460.68
3482.39
3505.92
3531.18
3558.07
3586.43
3616.07
3646.77
3678.23
3714.37
3747.24
3780.36
3813.37
3845.9
3877.59
3908.09
3937.06
3964.16
3989.05
4011.41
4030.95
4047.4
4060.5
4070
4075.73
4077.6
4076.39
4071.24
4062.08
4049.06
4032.34
4012.1
3988.63
3962.22
3933.23
3902.08
3869.18
3835.01
3800.02
3764.66
3729.4
3695.08
3661.99
3629.59
3598.19
3568.21
3539.89
3513.43
3488.96
3466.55
3446.25
3428.06
3411.97
3397.93
3385.9
3375.8
3367.56
3361.1
3356.34
3353.23
3351.72
3351.97
3353.67
3356.86
3361.47
3367.5
3374.9
3383.65
3393.76
3405.23
3418.03
3432.18
3447.66
3464.47
3482.62
3502.08
3522.82
3544.82
3568.02
3592.34
3617.68
3643.94
3670.94
3698.37
3726.46
3754.85
3783.33
3811.63
3839.5
3866.63
3892.73
3917.51
3940.54
3961.42
3793.67
3762.21
3729.82
3696.86
3663.81
3631.02
3600.21
3569.31
3538.47
3508.61
3480.05
3453.02
3427.62
3403.95
3382.04
3361.92
3343.57
3326.97
3312.09
3298.88
3287.29
3277.29
3268.83
3261.87
3256.37
3252.31
3249.7
3248.56
3248.88
3250.61
3253.81
3258.5
3264.71
3272.47
3281.86
3292.91
3305.66
3320.18
3336.5
3354.65
3374.65
3396.51
3420.19
3445.69
3472.89
3501.66
3531.85
3563.27
3595.56
3627.99
3661.39
3694.97
3728.38
3761.19
3793.01
3823.48
3852.23
3878.89
3903.13
3924.65
3943.17
3958.47
3970.31
3978.54
3983.03
3983.68
3980.51
3973.52
3962.72
3948.25
3930.27
3909.04
3884.84
3857.98
3828.85
3797.84
3765.37
3731.86
3697.72
3663.32
3628.96
3592.76
3559.5
3527.44
3496.72
3467.5
3439.96
3414.23
3390.41
3368.57
3348.76
3330.99
3315.24
3301.48
3289.63
3279.62
3271.34
3264.71
3259.62
3255.96
3253.73
3252.87
3253.26
3254.97
3257.98
3262.27
3267.91
3274.93
3283.39
3293.33
3304.82
3317.91
3332.65
3349.08
3367.23
3387.13
3408.76
3432.11
3457.13
3483.74
3511.83
3541.24
3571.8
3603.29
3635.45
3668.01
3700.66
3733.07
3764.92
3795.83
3825.44
3853.38
3879.3
3902.84
3923.66
3941.44
3955.91
3966.83
3974.02
3977.34
3976.65
3972.02
3963.53
3951.19
3935.23
3915.85
3893.32
3867.99
3840.21
3810.37
3778.85
3746.1
3712.52
3678.51
3644.48
3610.79
3577.78
3545.73
3514.89
3485.47
3457.63
3431.51
3407.18
3384.7
3364.1
3345.39
3328.57
3313.61
3300.49
3289.17
3279.62
3271.8
3265.66
3261.19
3258.33
3257.1
3257.44
3259.27
3262.62
3267.46
3273.75
3281.5
3290.69
3301.33
3313.42
3326.94
3341.92
3358.34
3376.22
3395.56
3416.37
3438.63
3462.34
3487.45
3513.94
3541.73
3570.71
3600.77
3631.72
3663.33
3695.35
3727.46
3759.32
3790.56
3820.75
3849.47
3876.28
3900.76
3922.49
3941.08
3956.21
3967.6
3975.01
3978.32
3977.37
3972.25
3963.08
3949.92
3933.02
3912.69
3889.25
3863.09
3834.66
3804.37
3772.7
3740.11
3707.02
3673.86
3640.98
3608.72
3577.36
3547.11
3518.13
3490.56
3464.48
3439.93
3416.93
3395.49
3375.56
3357.14
3340.2
3324.69
3310.59
3297.89
3286.54
3276.58
3267.99
3260.77
3254.98
3250.63
3247.71
3246.3
3246.5
3248.25
3251.61
3256.64
3263.4
3271.92
3282.27
3294.47
3308.56
3324.56
3342.49
3362.33
3384.05
3407.58
3432.85
3459.75
3488.12
3517.79
3548.52
3580.03
3616.09
3649.02
3682.2
3715.25
3747.82
3779.56
3810.1
3839.12
3866.26
3891.2
3913.61
3933.19
3949.68
3962.81
3972.35
3978.11
3980
3978.76
3973.59
3964.42
3951.38
3934.63
3914.35
3890.84
3864.37
3835.32
3804.11
3771.15
3736.93
3701.87
3666.46
3631.16
3596.82
3563.71
3531.27
3499.85
3469.85
3441.51
3415.05
3390.57
3368.17
3347.87
3329.69
3313.61
3299.59
3287.56
3277.47
3269.24
3262.8
3258.05
3254.95
3253.44
3253.69
3255.4
3258.59
3263.21
3269.23
3276.63
3285.39
3295.5
3306.96
3319.76
3333.91
3349.39
3366.2
3384.34
3403.8
3424.55
3446.55
3469.75
3494.07
3519.43
3545.7
3572.73
3600.15
3628.27
3656.69
3685.19
3713.52
3741.43
3768.6
3794.74
3819.56
3842.63
3863.55
3695.7
3664.17
3631.71
3598.69
3565.58
3532.76
3501.88
3470.95
3440.09
3410.21
3381.63
3354.59
3329.19
3305.52
3283.62
3263.5
3245.17
3228.58
3213.71
3200.51
3188.94
3178.94
3170.49
3163.53
3158.04
3153.99
3151.38
3150.22
3150.54
3152.28
3155.48
3160.16
3166.36
3174.11
3183.49
3194.53
3207.27
3221.78
3238.09
3256.23
3276.23
3298.08
3321.76
3347.26
3374.47
3403.26
3433.48
3464.93
3497.25
3529.71
3563.15
3596.8
3630.26
3663.13
3695.02
3725.56
3754.37
3781.09
3805.39
3826.97
3845.55
3860.88
3872.76
3881.02
3885.53
3886.2
3883
3876
3865.17
3850.66
3832.64
3811.35
3787.08
3760.15
3730.94
3699.86
3667.32
3633.74
3599.54
3565.1
3530.74
3494.37
3461.12
3429.04
3398.3
3369.06
3341.51
3315.77
3291.95
3270.11
3250.31
3232.54
3216.81
3203.06
3191.24
3181.24
3172.98
3166.36
3161.28
3157.64
3155.42
3154.57
3154.95
3156.66
3159.67
3163.96
3169.59
3176.6
3185.05
3194.98
3206.46
3219.53
3234.26
3250.68
3268.83
3288.72
3310.35
3333.7
3358.72
3385.34
3413.45
3442.88
3473.47
3504.99
3537.19
3569.79
3602.49
3634.96
3666.86
3697.83
3727.51
3755.52
3781.51
3805.11
3825.99
3843.83
3858.35
3869.31
3876.52
3879.85
3879.18
3874.53
3866.01
3853.64
3837.63
3818.19
3795.6
3770.2
3742.35
3712.43
3680.84
3648.01
3614.36
3580.3
3546.21
3512.48
3479.42
3447.34
3416.48
3387.05
3359.2
3333.07
3308.74
3286.26
3265.67
3246.97
3230.15
3215.21
3202.09
3190.78
3181.24
3173.43
3167.3
3162.83
3159.99
3158.75
3159.1
3160.93
3164.28
3169.12
3175.42
3183.16
3192.36
3203
3215.08
3228.6
3243.57
3259.99
3277.86
3297.2
3318
3340.26
3363.96
3389.08
3415.57
3443.37
3472.37
3502.45
3533.43
3565.07
3597.13
3629.3
3661.22
3692.52
3722.79
3751.58
3778.47
3803.03
3824.82
3843.49
3858.68
3870.11
3877.55
3880.87
3879.93
3874.79
3865.58
3852.38
3835.42
3815.02
3791.51
3765.27
3736.76
3706.39
3674.64
3641.98
3608.83
3575.61
3542.68
3510.39
3479
3448.73
3419.74
3392.17
3366.09
3341.54
3318.55
3297.11
3277.2
3258.79
3241.85
3226.35
3212.26
3199.56
3188.22
3178.25
3169.66
3162.44
3156.65
3152.3
3149.37
3147.96
3148.15
3149.89
3153.25
3158.26
3165.01
3173.53
3183.86
3196.06
3210.14
3226.14
3244.07
3263.9
3285.62
3309.16
3334.44
3361.35
3389.75
3419.45
3450.22
3481.8
3517.76
3550.77
3584.01
3617.12
3649.75
3681.55
3712.16
3741.24
3768.44
3793.44
3815.91
3835.54
3852.08
3865.26
3874.84
3880.64
3882.55
3881.3
3876.11
3866.92
3853.85
3837.06
3816.72
3793.14
3766.6
3737.47
3706.18
3673.14
3638.84
3603.71
3568.23
3532.87
3498.51
3465.36
3432.88
3401.43
3371.4
3343.05
3316.58
3292.1
3269.7
3249.41
3231.24
3215.17
3201.16
3189.15
3179.07
3170.86
3164.43
3159.69
3156.61
3155.1
3155.35
3157.08
3160.27
3164.89
3170.92
3178.32
3187.07
3197.18
3208.64
3221.44
3235.58
3251.06
3267.87
3286.01
3305.47
3326.21
3348.22
3371.43
3395.76
3421.13
3447.42
3474.47
3501.89
3530.05
3558.5
3587.04
3615.41
3643.36
3670.58
3696.78
3721.65
3744.79
3765.76
3597.76
3566.14
3533.59
3500.49
3467.31
3434.45
3403.49
3372.52
3341.63
3311.72
3283.13
3256.08
3230.68
3207.01
3185.12
3165.01
3146.69
3130.11
3115.26
3102.07
3090.51
3080.53
3072.09
3065.14
3059.66
3055.61
3053.01
3051.84
3052.15
3053.89
3057.08
3061.75
3067.94
3075.69
3085.05
3096.08
3108.81
3123.3
3139.6
3157.73
3177.72
3199.57
3223.25
3248.76
3275.98
3304.78
3335.03
3366.52
3398.89
3431.38
3464.89
3498.6
3532.14
3565.09
3597.06
3627.68
3656.57
3683.37
3707.75
3729.4
3748.04
3763.43
3775.36
3783.64
3788.17
3788.86
3785.66
3778.63
3767.76
3753.21
3735.12
3713.76
3689.4
3662.39
3633.09
3601.91
3569.28
3535.62
3501.34
3466.84
3432.47
3395.9
3362.67
3330.57
3299.8
3270.54
3242.97
3217.22
3193.4
3171.57
3151.76
3134.01
3118.3
3104.57
3092.76
3082.79
3074.55
3067.95
3062.89
3059.26
3057.06
3056.21
3056.6
3058.31
3061.31
3065.59
3071.21
3078.21
3086.64
3096.56
3108.03
3121.09
3135.81
3152.21
3170.35
3190.23
3211.86
3235.21
3260.24
3286.87
3315
3344.46
3375.08
3406.64
3438.89
3471.54
3504.31
3536.84
3568.82
3599.87
3629.62
3657.71
3683.79
3707.47
3728.43
3746.34
3760.92
3771.92
3779.17
3782.52
3781.86
3777.2
3768.64
3756.22
3740.15
3720.64
3697.97
3672.48
3644.54
3614.52
3582.85
3549.93
3516.2
3482.06
3447.91
3414.11
3381.01
3348.89
3318
3288.54
3260.68
3234.55
3210.22
3187.74
3167.16
3148.47
3131.66
3116.73
3103.62
3092.32
3082.79
3074.99
3068.87
3064.41
3061.58
3060.34
3060.7
3062.54
3065.89
3070.73
3077.03
3084.77
3093.96
3104.6
3116.68
3130.19
3145.16
3161.57
3179.44
3198.77
3219.57
3241.82
3265.53
3290.65
3317.14
3344.95
3373.97
3404.07
3435.09
3466.77
3498.89
3531.12
3563.12
3594.5
3624.86
3653.75
3680.73
3705.38
3727.27
3746.02
3761.28
3772.77
3780.25
3783.58
3782.65
3777.49
3768.24
3754.98
3737.95
3717.46
3693.86
3667.52
3638.91
3608.44
3576.59
3543.84
3510.61
3477.32
3444.34
3412
3380.57
3350.28
3321.28
3293.7
3267.62
3243.07
3220.09
3198.67
3178.76
3160.36
3143.44
3127.95
3113.87
3101.17
3089.84
3079.87
3071.28
3064.06
3058.26
3053.91
3050.97
3049.56
3049.73
3051.47
3054.82
3059.82
3066.56
3075.06
3085.39
3097.57
3111.64
3127.63
3145.56
3165.39
3187.11
3210.66
3235.95
3262.88
3291.31
3321.04
3351.87
3383.54
3419.36
3452.47
3485.8
3518.98
3551.69
3583.57
3614.25
3643.41
3670.69
3695.76
3718.31
3738.01
3754.61
3767.85
3777.47
3783.32
3785.26
3783.99
3778.78
3769.57
3756.47
3739.62
3719.21
3695.55
3668.92
3639.69
3608.3
3575.16
3540.76
3505.53
3469.97
3434.54
3400.15
3366.94
3334.42
3302.92
3272.86
3244.49
3218.01
3193.53
3171.13
3150.85
3132.7
3116.64
3102.65
3090.65
3080.6
3072.4
3065.99
3061.28
3058.21
3056.7
3056.96
3058.7
3061.9
3066.52
3072.55
3079.95
3088.7
3098.81
3110.26
3123.06
3137.19
3152.67
3169.47
3187.61
3207.07
3227.82
3249.83
3273.04
3297.39
3322.78
3349.09
3376.17
3403.6
3431.8
3460.29
3488.87
3517.29
3545.3
3572.59
3598.85
3623.8
3647
3668.04
3499.85
3468.13
3435.48
3402.27
3369.01
3336.09
3305.06
3274.03
3243.1
3213.16
3184.55
3157.48
3132.08
3108.42
3086.54
3066.44
3048.13
3031.58
3016.73
3003.57
2992.02
2982.06
2973.62
2966.69
2961.21
2957.18
2954.57
2953.39
2953.71
2955.44
2958.63
2963.29
2969.47
2977.2
2986.55
2997.56
3010.27
3024.75
3041.03
3059.16
3079.13
3100.97
3124.66
3150.17
3177.41
3206.24
3236.52
3268.05
3300.48
3333.01
3366.59
3400.39
3434.01
3467.06
3499.12
3529.84
3558.83
3585.73
3610.2
3631.94
3650.65
3666.11
3678.09
3686.41
3690.97
3691.67
3688.46
3681.4
3670.5
3655.88
3637.72
3616.27
3591.82
3564.69
3535.28
3503.99
3471.25
3437.49
3403.11
3368.55
3334.17
3297.37
3264.15
3232.03
3201.22
3171.94
3144.35
3118.59
3094.76
3072.93
3053.14
3035.4
3019.7
3006
2994.22
2984.27
2976.06
2969.48
2964.44
2960.83
2958.65
2957.8
2958.19
2959.9
2962.9
2967.17
2972.78
2979.77
2988.18
2998.08
3009.53
3022.58
3037.28
3053.67
3071.8
3091.67
3113.29
3136.65
3161.68
3188.33
3216.48
3245.97
3276.63
3308.24
3340.55
3373.27
3406.1
3438.72
3470.78
3501.93
3531.78
3559.97
3586.14
3609.92
3630.97
3648.97
3663.62
3674.69
3681.98
3685.35
3684.69
3680.02
3671.41
3658.95
3642.8
3623.21
3600.44
3574.84
3546.79
3516.66
3484.87
3451.85
3418.02
3383.79
3349.55
3315.69
3282.53
3250.36
3219.43
3189.95
3162.08
3135.94
3111.61
3089.14
3068.56
3049.88
3033.09
3018.17
3005.08
2993.79
2984.27
2976.48
2970.38
2965.93
2963.1
2961.88
2962.24
2964.08
2967.43
2972.28
2978.57
2986.32
2995.51
3006.14
3018.21
3031.73
3046.68
3063.09
3080.95
3100.28
3121.07
3143.32
3167.02
3192.14
3218.64
3246.46
3275.5
3305.63
3336.69
3368.43
3400.61
3432.92
3465.01
3496.5
3526.96
3555.96
3583.07
3607.83
3629.83
3648.68
3664.03
3675.58
3683.11
3686.46
3685.54
3680.36
3671.05
3657.72
3640.6
3620.02
3596.3
3569.84
3541.1
3510.51
3478.55
3445.69
3412.36
3378.99
3345.94
3313.54
3282.08
3251.75
3222.74
3195.15
3169.07
3144.54
3121.56
3100.15
3080.26
3061.88
3044.97
3029.49
3015.42
3002.73
2991.4
2981.44
2972.85
2965.62
2959.82
2955.45
2952.52
2951.11
2951.26
2952.99
2956.32
2961.31
2968.03
2976.53
2986.83
2999
3013.06
3029.05
3046.96
3066.8
3088.52
3112.08
3137.38
3164.34
3192.79
3222.57
3253.46
3285.25
3320.89
3354.14
3387.57
3420.84
3453.64
3485.61
3516.38
3545.64
3573.01
3598.17
3620.8
3640.59
3657.27
3670.57
3680.26
3686.15
3688.12
3686.85
3681.62
3672.37
3659.22
3642.31
3621.82
3598.06
3571.32
3541.97
3510.46
3477.2
3442.68
3407.34
3371.67
3336.15
3301.74
3268.47
3235.88
3204.33
3174.24
3145.85
3119.35
3094.87
3072.47
3052.2
3034.06
3018.03
3004.05
2992.08
2982.05
2973.87
2967.48
2962.79
2959.74
2958.25
2958.51
2960.26
2963.46
2968.09
2974.12
2981.52
2990.27
3000.38
3011.83
3024.62
3038.75
3054.22
3071.02
3089.16
3108.62
3129.37
3151.38
3174.61
3198.97
3224.38
3250.71
3277.83
3305.27
3333.51
3362.05
3390.69
3419.17
3447.25
3474.62
3500.96
3525.99
3549.28
3570.4
3401.97
3370.13
3337.36
3304.04
3270.67
3237.68
3206.57
3175.48
3144.51
3114.53
3085.89
3058.81
3033.4
3009.74
2987.87
2967.79
2949.5
2932.96
2918.14
2904.99
2893.47
2883.52
2875.1
2868.18
2862.71
2858.69
2856.08
2854.89
2855.21
2856.94
2860.12
2864.77
2870.93
2878.65
2887.98
2898.97
2911.66
2926.12
2942.39
2960.5
2980.46
3002.3
3025.98
3051.5
3078.76
3107.61
3137.93
3169.52
3202.01
3234.6
3268.26
3302.15
3335.88
3369.03
3401.21
3432.05
3461.16
3488.17
3512.74
3534.58
3553.38
3568.92
3580.96
3589.33
3593.92
3594.63
3591.42
3584.32
3573.37
3558.69
3540.44
3518.88
3494.31
3467.07
3437.53
3406.11
3373.24
3339.35
3304.86
3270.21
3235.82
3198.78
3165.57
3133.41
3102.56
3073.25
3045.64
3019.86
2996.03
2974.2
2954.42
2936.7
2921.02
2907.34
2895.59
2885.68
2877.5
2870.95
2865.94
2862.35
2860.18
2859.34
2859.74
2861.44
2864.44
2868.7
2874.29
2881.26
2889.66
2899.54
2910.97
2923.99
2938.68
2955.05
2973.16
2993.03
3014.65
3038
3063.05
3089.71
3117.88
3147.42
3178.12
3209.79
3242.16
3274.96
3307.89
3340.6
3372.76
3404.01
3433.97
3462.29
3488.57
3512.47
3533.63
3551.72
3566.46
3577.59
3584.93
3588.33
3587.68
3582.99
3574.34
3561.81
3545.58
3525.88
3503
3477.28
3449.09
3418.84
3386.92
3353.77
3319.83
3285.49
3251.16
3217.21
3183.98
3151.76
3120.79
3091.28
3063.39
3037.24
3012.91
2990.45
2969.88
2951.22
2934.44
2919.53
2906.46
2895.19
2885.69
2877.91
2871.82
2867.38
2864.57
2863.36
2863.72
2865.56
2868.92
2873.77
2880.07
2887.81
2897
2907.62
2919.69
2933.2
2948.15
2964.55
2982.4
3001.72
3022.5
3044.75
3068.44
3093.57
3120.08
3147.91
3176.97
3207.14
3238.25
3270.05
3302.31
3334.71
3366.9
3398.51
3429.1
3458.23
3485.47
3510.38
3532.5
3551.47
3566.92
3578.55
3586.13
3589.51
3588.59
3583.38
3574.01
3560.6
3543.38
3522.68
3498.82
3472.23
3443.35
3412.62
3380.52
3347.53
3314.09
3280.62
3247.49
3215.03
3183.52
3153.16
3124.13
3096.53
3070.45
3045.92
3022.97
3001.57
2981.7
2963.33
2946.43
2930.97
2916.91
2904.23
2892.91
2882.95
2874.36
2867.13
2861.32
2856.94
2854
2852.59
2852.72
2854.44
2857.76
2862.73
2869.44
2877.91
2888.2
2900.35
2914.4
2930.38
2948.29
2968.12
2989.85
3013.41
3038.74
3065.72
3094.21
3124.04
3155.01
3186.92
3222.38
3255.78
3289.32
3322.69
3355.6
3387.67
3418.55
3447.91
3475.4
3500.67
3523.4
3543.29
3560.06
3573.44
3583.19
3589.14
3591.14
3589.87
3584.61
3575.33
3562.12
3545.13
3524.55
3500.67
3473.8
3444.32
3412.66
3379.26
3344.6
3309.12
3273.33
3237.72
3203.28
3169.93
3137.26
3105.66
3075.52
3047.11
3020.6
2996.11
2973.72
2953.47
2935.34
2919.32
2905.37
2893.43
2883.42
2875.27
2868.91
2864.25
2861.22
2859.74
2860.01
2861.77
2864.98
2869.61
2875.64
2883.05
2891.8
2901.89
2913.34
2926.13
2940.25
2955.72
2972.51
2990.65
3010.1
3030.85
3052.88
3076.11
3100.49
3125.92
3152.29
3179.45
3206.9
3235.2
3263.8
3292.5
3321.05
3349.21
3376.66
3403.1
3428.24
3451.63
3472.84
3304.13
3272.14
3239.23
3205.78
3172.29
3139.2
3108.05
3076.87
3045.83
3015.81
2987.14
2960.05
2934.64
2910.98
2889.12
2869.06
2850.79
2834.28
2819.48
2806.35
2794.85
2784.92
2776.52
2769.61
2764.16
2760.14
2757.54
2756.34
2756.65
2758.38
2761.55
2766.19
2772.33
2780.03
2789.34
2800.31
2812.98
2827.42
2843.67
2861.75
2881.71
2903.54
2927.22
2952.75
2980.02
3008.91
3039.28
3070.92
3103.49
3136.13
3169.89
3203.89
3237.74
3271.02
3303.33
3334.3
3363.54
3390.68
3415.38
3437.32
3456.23
3471.86
3483.97
3492.4
3497.02
3497.74
3494.52
3487.39
3476.39
3461.62
3443.27
3421.6
3396.9
3369.51
3339.82
3308.25
3275.23
3241.21
3206.59
3171.83
3137.39
3100.16
3066.93
3034.72
3003.82
2974.48
2946.84
2921.05
2897.21
2875.38
2855.61
2837.91
2822.26
2808.61
2796.9
2787.02
2778.87
2772.36
2767.37
2763.81
2761.66
2760.82
2761.23
2762.94
2765.92
2770.17
2775.75
2782.7
2791.08
2800.94
2812.34
2825.34
2840
2856.36
2874.46
2894.31
2915.92
2939.28
2964.33
2991.02
3019.22
3048.79
3079.56
3111.29
3143.74
3176.63
3209.65
3242.47
3274.75
3306.12
3336.21
3364.66
3391.08
3415.11
3436.39
3454.59
3469.43
3480.65
3488.04
3491.47
3490.83
3486.12
3477.41
3464.8
3448.48
3428.67
3405.65
3379.79
3351.46
3321.05
3288.99
3255.7
3221.62
3187.15
3152.72
3118.68
3085.37
3053.08
3022.07
2992.53
2964.62
2938.46
2914.13
2891.68
2871.12
2852.47
2835.71
2820.82
2807.77
2796.51
2787.03
2779.27
2773.19
2768.77
2765.97
2764.78
2765.13
2766.99
2770.35
2775.2
2781.5
2789.24
2798.43
2809.05
2821.11
2834.61
2849.55
2865.94
2883.79
2903.1
2923.87
2946.11
2969.8
2994.92
3021.44
3049.29
3078.38
3108.59
3139.75
3171.63
3203.97
3236.48
3268.79
3300.53
3331.27
3360.56
3387.95
3413.01
3435.29
3454.38
3469.95
3481.67
3489.32
3492.73
3491.81
3486.57
3477.13
3463.63
3446.29
3425.45
3401.44
3374.69
3345.64
3314.75
3282.5
3249.37
3215.8
3182.22
3148.99
3116.46
3084.89
3054.5
3025.44
2997.84
2971.76
2947.24
2924.29
2902.91
2883.06
2864.72
2847.84
2832.39
2818.35
2805.68
2794.36
2784.4
2775.81
2768.58
2762.76
2758.38
2755.43
2754
2754.12
2755.82
2759.13
2764.08
2770.77
2779.23
2789.5
2801.63
2815.67
2831.63
2849.53
2869.36
2891.09
2914.67
2940.01
2967.02
2995.56
3025.45
3056.49
3088.53
3123.82
3157.38
3191.04
3224.54
3257.56
3289.75
3320.76
3350.25
3377.85
3403.25
3426.1
3446.1
3462.97
3476.44
3486.27
3492.29
3494.32
3493.05
3487.77
3478.44
3465.17
3448.09
3427.39
3403.38
3376.37
3346.73
3314.91
3281.35
3246.53
3210.89
3174.96
3139.23
3104.77
3071.33
3038.57
3006.9
2976.72
2948.27
2921.75
2897.26
2874.88
2854.63
2836.53
2820.54
2806.61
2794.7
2784.72
2776.6
2770.27
2765.63
2762.63
2761.17
2761.45
2763.22
2766.44
2771.07
2777.11
2784.52
2793.26
2803.36
2814.8
2827.58
2841.7
2857.15
2873.95
2892.08
2911.53
2932.28
2954.31
2977.56
3001.96
3027.42
3053.82
3081.03
3108.49
3136.86
3165.52
3194.29
3222.92
3251.17
3278.73
3305.28
3330.53
3354.03
3375.36
3206.31
3174.17
3141.1
3107.5
3073.87
3040.66
3009.47
2978.19
2947.09
2917.02
2888.32
2861.2
2835.79
2812.14
2790.3
2770.26
2752.01
2735.52
2720.75
2707.65
2696.17
2686.26
2677.88
2670.98
2665.54
2661.53
2658.94
2657.73
2658.04
2659.76
2662.92
2667.54
2673.67
2681.35
2690.64
2701.58
2714.23
2728.64
2744.87
2762.93
2782.87
2804.69
2828.38
2853.92
2881.21
2910.13
2940.55
2972.26
3004.92
3037.62
3071.49
3105.61
3139.6
3173.02
3205.47
3236.59
3265.98
3293.26
3318.1
3340.18
3359.2
3374.92
3387.12
3395.61
3400.27
3401.01
3397.78
3390.61
3379.54
3364.69
3346.23
3324.42
3299.57
3272.01
3242.16
3210.42
3177.24
3143.06
3108.3
3073.41
3038.89
3001.5
2968.23
2935.95
2905
2875.61
2847.95
2822.14
2798.3
2776.47
2756.71
2739.03
2723.42
2709.8
2698.13
2688.29
2680.18
2673.71
2668.75
2665.22
2663.09
2662.26
2662.67
2664.38
2667.36
2671.59
2677.15
2684.08
2692.43
2702.27
2713.64
2726.62
2741.26
2757.6
2775.67
2795.51
2817.12
2840.47
2865.54
2892.25
2920.49
2950.11
2980.93
3012.74
3045.27
3078.26
3111.39
3144.34
3176.75
3208.26
3238.5
3267.09
3293.66
3317.84
3339.26
3357.59
3372.54
3383.85
3391.31
3394.76
3394.13
3389.4
3380.64
3367.94
3351.51
3331.57
3308.4
3282.38
3253.88
3223.31
3191.08
3157.62
3123.39
3088.79
3054.23
3020.08
2986.69
2954.34
2923.27
2893.7
2865.77
2839.6
2815.27
2792.82
2772.28
2753.64
2736.91
2722.04
2709
2697.77
2688.3
2680.56
2674.5
2670.09
2667.31
2666.13
2666.49
2668.35
2671.73
2676.58
2682.87
2690.62
2699.8
2710.41
2722.47
2735.96
2750.89
2767.27
2785.11
2804.4
2825.17
2847.4
2871.09
2896.21
2922.74
2950.61
2979.73
3009.98
3041.21
3073.16
3105.61
3138.23
3170.68
3202.57
3233.47
3262.93
3290.5
3315.73
3338.18
3357.43
3373.12
3384.95
3392.67
3396.11
3395.19
3389.92
3380.4
3366.79
3349.32
3328.32
3304.15
3277.21
3247.98
3216.91
3184.48
3151.19
3117.48
3083.77
3050.44
3017.82
2986.2
2955.76
2926.68
2899.06
2872.99
2848.48
2825.55
2804.19
2784.36
2766.04
2749.18
2733.75
2719.72
2707.07
2695.76
2685.8
2677.21
2669.97
2664.15
2659.75
2656.8
2655.35
2655.46
2657.15
2660.43
2665.37
2672.03
2680.47
2690.72
2702.83
2716.85
2732.8
2750.69
2770.52
2792.25
2815.84
2841.21
2868.25
2896.83
2926.78
2957.92
2990.09
3025.22
3058.94
3092.75
3126.38
3159.53
3191.86
3223
3252.63
3280.38
3305.91
3328.9
3349.02
3366
3379.58
3389.5
3395.59
3397.66
3396.39
3391.08
3381.71
3368.36
3351.18
3330.35
3306.2
3279.02
3249.2
3217.2
3183.46
3148.45
3112.65
3076.55
3040.68
3006.21
2972.67
2939.81
2908.06
2877.82
2849.34
2822.8
2798.31
2775.94
2755.71
2737.63
2721.66
2707.77
2695.89
2685.95
2677.86
2671.56
2666.95
2663.98
2662.56
2662.84
2664.62
2667.84
2672.48
2678.52
2685.93
2694.68
2704.77
2716.2
2728.97
2743.08
2758.53
2775.32
2793.45
2812.9
2833.65
2855.69
2878.95
2903.37
2928.86
2955.3
2982.57
3010.04
3038.48
3067.22
3096.07
3124.79
3153.14
3180.81
3207.49
3232.87
3256.5
3277.95
3108.53
3076.21
3042.97
3009.19
2975.41
2942.07
2910.85
2879.46
2848.27
2818.14
2789.41
2762.27
2736.85
2713.22
2691.39
2671.37
2653.15
2636.69
2621.95
2608.87
2597.42
2587.53
2579.17
2572.3
2566.87
2562.87
2560.28
2559.07
2559.38
2561.09
2564.23
2568.84
2574.95
2582.61
2591.86
2602.78
2615.4
2629.78
2645.99
2664.03
2683.96
2705.77
2729.45
2755
2782.32
2811.28
2841.75
2873.54
2906.29
2939.05
2973.05
3007.31
3041.45
3075.03
3107.64
3138.92
3168.48
3195.93
3220.92
3243.14
3262.29
3278.12
3290.41
3298.97
3303.68
3304.43
3301.2
3293.98
3282.84
3267.89
3249.3
3227.34
3202.32
3174.59
3144.54
3112.62
3079.26
3044.9
3009.97
2974.94
2940.3
2902.81
2869.46
2837.11
2806.1
2776.67
2748.97
2723.15
2699.29
2677.47
2657.73
2640.07
2624.48
2610.91
2599.28
2589.49
2581.43
2575
2570.08
2566.58
2564.47
2563.65
2564.07
2565.77
2568.74
2572.96
2578.5
2585.41
2593.73
2603.54
2614.88
2627.83
2642.44
2658.76
2676.81
2696.64
2718.23
2741.59
2766.67
2793.4
2821.68
2851.35
2882.24
2914.13
2946.76