/*--------------------------------*- C++ -*----------------------------------*\
| =========                 |                                                 |
| \\      /  F ield         | OpenFOAM: The Open Source CFD Toolbox           |
|  \\    /   O peration     | Version:  3.0.1                                 |
|   \\  /    A nd           | Web:      www.OpenFOAM.org                      |
|    \\/     M anipulation  |                                                 |
\*---------------------------------------------------------------------------*/
FoamFile
{
    version     2.0;
    format      ascii;
    class       surfaceScalarField;
    location    "18.4";
    object      phi;
}
// * * * * * * * * * * * * * * * * * * * * * * * * * * * * * * * * * * * * * //

dimensions      [0 3 -1 0 0 0 0];

internalField   nonuniform List<scalar> 
42423
(
0.000106207
1.77811e-05
8.80999e-05
1.81074e-05
6.94828e-05
1.86171e-05
5.05582e-05
1.89246e-05
3.16546e-05
1.89036e-05
1.28516e-05
1.8803e-05
-5.43901e-06
1.82906e-05
-2.32441e-05
1.78051e-05
-4.03207e-05
1.70766e-05
-5.65306e-05
1.62099e-05
-7.18367e-05
1.53061e-05
-8.61444e-05
1.43076e-05
-9.94167e-05
1.32723e-05
-0.000111668
1.22509e-05
-0.000122879
1.12113e-05
-0.000133079
1.02002e-05
-0.000142265
9.18636e-06
-0.000150475
8.20937e-06
-0.000157742
7.26749e-06
-0.000164104
6.36135e-06
-0.000169601
5.49731e-06
-0.000174261
4.66055e-06
-0.000178111
3.84979e-06
-0.000181193
3.08184e-06
-0.00018351
2.31669e-06
-0.000185111
1.60128e-06
-0.000186037
9.25759e-07
-0.000186281
2.44059e-07
-0.000185755
-5.25932e-07
-0.000184516
-1.23876e-06
-0.000182608
-1.90848e-06
-0.000179909
-2.69905e-06
-0.000176435
-3.47411e-06
-0.000172139
-4.29535e-06
-0.000167115
-5.02396e-06
-0.000161319
-5.79665e-06
-0.000154589
-6.72939e-06
-0.000147022
-7.56702e-06
-0.000138612
-8.41069e-06
-0.000129062
-9.54955e-06
-0.000118602
-1.04601e-05
-0.000106995
-1.16074e-05
-9.43778e-05
-1.26169e-05
-8.0954e-05
-1.34238e-05
-6.64664e-05
-1.44876e-05
-5.10318e-05
-1.54346e-05
-3.46996e-05
-1.63322e-05
-1.75914e-05
-1.71082e-05
2.90209e-07
-1.78816e-05
1.85565e-05
-1.82664e-05
3.73163e-05
-1.87597e-05
5.62587e-05
-1.89425e-05
7.52594e-05
-1.90007e-05
9.41143e-05
-1.8855e-05
0.000112419
-1.83044e-05
0.000130035
-1.76161e-05
0.000146788
-1.67535e-05
0.000162262
-1.5474e-05
0.000176361
-1.40991e-05
0.000188825
-1.24634e-05
0.000199526
-1.07015e-05
0.000208316
-8.79024e-06
0.000214919
-6.60227e-06
0.000219239
-4.3201e-06
0.000221264
-2.02485e-06
0.000220896
3.67454e-07
0.000218149
2.74694e-06
0.000213
5.14884e-06
0.000205628
7.37193e-06
0.000196074
9.55408e-06
0.000184497
1.15768e-05
0.000171083
1.34144e-05
0.000156034
1.50489e-05
0.00013962
1.64142e-05
0.000122078
1.75418e-05
0.000103634
1.8444e-05
8.45235e-05
1.91105e-05
6.50383e-05
1.94852e-05
4.55529e-05
1.94855e-05
2.59581e-05
1.95947e-05
6.76165e-06
1.91965e-05
-1.20564e-05
1.88181e-05
-3.02853e-05
1.82289e-05
-4.7749e-05
1.74637e-05
-6.42918e-05
1.65428e-05
-7.98963e-05
1.56044e-05
-9.44969e-05
1.46007e-05
-0.000108005
1.35079e-05
-0.000120298
1.2293e-05
-0.000131439
1.11416e-05
-0.000141444
1.00041e-05
-0.00015033
8.88675e-06
-0.000158058
7.72744e-06
-0.000164591
6.53306e-06
-0.000170081
5.49024e-06
-0.000174493
4.41154e-06
-0.00017812
3.62793e-06
-0.000180855
2.73479e-06
-0.000182722
1.86719e-06
-0.000184013
1.29033e-06
-0.000184716
7.03676e-07
-0.000184569
-1.47625e-07
-0.000183835
-7.33988e-07
-0.000182535
-1.29939e-06
-0.000180514
-2.02108e-06
-0.000177881
-2.63347e-06
-0.00017462
-3.26118e-06
-0.000170679
-3.94069e-06
-0.000166078
-4.60145e-06
-0.000160791
-5.28647e-06
-0.000154709
-6.08242e-06
-0.000147837
-6.87201e-06
-0.000140125
-7.71185e-06
-0.00013158
-8.54493e-06
-0.000122129
-9.451e-06
-0.000111721
-1.04076e-05
-0.000100464
-1.12576e-05
-8.82075e-05
-1.22563e-05
-7.50501e-05
-1.31574e-05
-6.10616e-05
-1.39886e-05
-4.61657e-05
-1.48959e-05
-3.04386e-05
-1.57272e-05
-1.39795e-05
-1.64591e-05
3.10022e-06
-1.70798e-05
2.07001e-05
-1.75999e-05
3.86497e-05
-1.79496e-05
5.68293e-05
-1.81796e-05
7.50323e-05
-1.82031e-05
9.30928e-05
-1.80605e-05
0.000110789
-1.76961e-05
0.000127864
-1.70752e-05
0.00014407
-1.62062e-05
0.000159253
-1.51823e-05
0.000173089
-1.38366e-05
0.000185311
-1.22225e-05
0.000195742
-1.04303e-05
0.000204176
-8.43422e-06
0.00021042
-6.24376e-06
0.000214329
-3.90919e-06
0.000215813
-1.48363e-06
0.0002149
9.1253e-07
0.000211463
3.43743e-06
0.000205588
5.87454e-06
0.000197401
8.187e-06
0.00018701
1.03913e-05
0.000174647
1.2363e-05
0.00016058
1.40661e-05
0.000145003
1.55771e-05
0.000128097
1.69068e-05
0.000110113
1.79831e-05
9.13797e-05
1.87338e-05
7.22342e-05
1.91455e-05
5.27647e-05
1.94696e-05
3.33057e-05
1.9459e-05
1.41816e-05
1.9124e-05
-4.55339e-06
1.8735e-05
-2.26944e-05
1.81411e-05
-4.00228e-05
1.73284e-05
-5.66016e-05
1.65788e-05
-7.2155e-05
1.55534e-05
-8.66634e-05
1.45084e-05
-0.000100215
1.35513e-05
-0.000112594
1.23798e-05
-0.000123912
1.13181e-05
-0.000134144
1.02313e-05
-0.000143311
9.16751e-06
-0.000151457
8.14616e-06
-0.000158559
7.10162e-06
-0.000164641
6.08233e-06
-0.000169883
5.24193e-06
-0.000174194
4.31021e-06
-0.000177441
3.24776e-06
-0.000179973
2.53206e-06
-0.000181802
1.82843e-06
-0.000182688
8.86189e-07
-0.000182865
1.76913e-07
-0.000181923
-9.42187e-07
-0.000180332
-1.59118e-06
-0.000178157
-2.17465e-06
-0.000175158
-2.9985e-06
-0.000171437
-3.72138e-06
-0.000167078
-4.35946e-06
-0.000162081
-4.99648e-06
-0.000156405
-5.67601e-06
-0.000150007
-6.39783e-06
-0.000142905
-7.10259e-06
-0.000135146
-7.75832e-06
-0.000126641
-8.50501e-06
-0.000117421
-9.2204e-06
-0.00010746
-9.96105e-06
-9.677e-05
-1.069e-05
-8.52707e-05
-1.14993e-05
-7.30121e-05
-1.22586e-05
-5.9906e-05
-1.31062e-05
-4.5971e-05
-1.3935e-05
-3.13467e-05
-1.46244e-05
-1.59394e-05
-1.54073e-05
2.00735e-07
-1.61402e-05
1.69917e-05
-1.6791e-05
3.4364e-05
-1.73724e-05
5.21543e-05
-1.77904e-05
7.02008e-05
-1.80465e-05
8.8301e-05
-1.81003e-05
0.000106228
-1.79271e-05
0.000123813
-1.75846e-05
0.000140619
-1.68068e-05
0.000156436
-1.58164e-05
0.000170987
-1.45513e-05
0.000183938
-1.29505e-05
0.000195019
-1.10812e-05
0.000203973
-8.95426e-06
0.000210602
-6.62895e-06
0.00021475
-4.14796e-06
0.000216317
-1.56717e-06
0.000215305
1.0123e-06
0.000211635
3.66965e-06
0.000205509
6.12593e-06
0.000196986
8.5226e-06
0.000186255
1.07315e-05
0.000173554
1.27007e-05
0.000159142
1.4412e-05
0.000143395
1.5747e-05
0.000126352
1.70429e-05
0.000108557
1.77956e-05
9.0338e-05
1.82185e-05
7.18143e-05
1.85238e-05
5.32401e-05
1.85741e-05
3.49344e-05
1.83057e-05
1.6907e-05
1.80275e-05
-4.0972e-07
1.73167e-05
-1.71514e-05
1.67417e-05
-3.31491e-05
1.59976e-05
-4.81998e-05
1.50507e-05
-6.23848e-05
1.41851e-05
-7.56741e-05
1.32892e-05
-8.80922e-05
1.24181e-05
-9.96515e-05
1.15593e-05
-0.000110256
1.06046e-05
-0.000120094
9.83735e-06
-0.000129152
9.059e-06
-0.000137395
8.24214e-06
-0.000144883
7.48794e-06
-0.00015176
6.87786e-06
-0.000157921
6.16025e-06
-0.000163275
5.35439e-06
-0.000168046
4.77071e-06
-0.000171947
3.90157e-06
-0.00017519
3.24255e-06
-0.000177883
2.69308e-06
-0.000179687
1.80367e-06
-0.00018072
1.03311e-06
-0.000181088
3.68399e-07
-0.000180839
-2.49647e-07
-0.000179733
-1.1058e-06
-0.000177632
-2.10099e-06
-0.000174866
-2.76597e-06
-0.000171245
-3.62111e-06
-0.000166757
-4.48744e-06
-0.000161351
-5.40669e-06
-0.000155067
-6.28335e-06
-0.000147818
-7.24908e-06
-0.000139652
-8.1665e-06
-0.000130466
-9.18605e-06
-0.000120282
-1.01833e-05
-0.000109124
-1.11584e-05
-9.69406e-05
-1.21833e-05
-8.38424e-05
-1.30981e-05
-6.9764e-05
-1.40785e-05
-5.48155e-05
-1.49485e-05
-3.91073e-05
-1.57082e-05
-2.26082e-05
-1.64991e-05
-5.49e-06
-1.71182e-05
1.2053e-05
-1.75431e-05
3e-05
-1.7947e-05
4.81361e-05
-1.81361e-05
6.62771e-05
-1.81411e-05
8.42681e-05
-1.7991e-05
0.000101885
-1.7617e-05
0.00011891
-1.70247e-05
0.000135196
-1.6286e-05
0.000150472
-1.52761e-05
0.000164587
-1.41151e-05
0.000177349
-1.2762e-05
0.000188424
-1.10754e-05
0.000197748
-9.32423e-06
0.000205062
-7.31326e-06
0.000210258
-5.19653e-06
0.000213264
-3.00618e-06
0.000213802
-5.37843e-07
0.000212225
1.57673e-06
0.000208343
3.88256e-06
0.000202187
6.1562e-06
0.000193913
8.27389e-06
0.000183539
1.0374e-05
0.000171159
1.23799e-05
0.000157099
1.40601e-05
0.000141495
1.56036e-05
0.000124622
1.68733e-05
0.000106803
1.78187e-05
8.81895e-05
1.86136e-05
6.91709e-05
1.90186e-05
4.99286e-05
1.92423e-05
3.0618e-05
1.93106e-05
1.17475e-05
1.88705e-05
-6.78849e-06
1.8536e-05
-2.46952e-05
1.79067e-05
-4.18051e-05
1.71099e-05
-5.80336e-05
1.62285e-05
-7.32543e-05
1.52207e-05
-8.74326e-05
1.41783e-05
-0.000100502
1.30692e-05
-0.000112445
1.19437e-05
-0.000123264
1.08186e-05
-0.00013294
9.67585e-06
-0.000141494
8.55388e-06
-0.00014895
7.45601e-06
-0.00015535
6.40007e-06
-0.000160745
5.39483e-06
-0.000165168
4.42329e-06
-0.000168676
3.50791e-06
-0.00017132
2.64368e-06
-0.000173119
1.79908e-06
-0.000174148
1.02917e-06
-0.000174427
2.79618e-07
-0.00017385
-5.77699e-07
-0.0001725
-1.34941e-06
-0.000170444
-2.0566e-06
-0.000167673
-2.77091e-06
-0.000164228
-3.44449e-06
-0.000160104
-4.1247e-06
-0.000155257
-4.84624e-06
-0.000149786
-5.47108e-06
-0.000143686
-6.10009e-06
-0.000136859
-6.82699e-06
-0.000129404
-7.45537e-06
-0.00012122
-8.18373e-06
-0.000112356
-8.86403e-06
-0.000102878
-9.47857e-06
-9.2642e-05
-1.02357e-05
-8.17239e-05
-1.09181e-05
-7.02048e-05
-1.15192e-05
-5.79562e-05
-1.22486e-05
-4.51577e-05
-1.27986e-05
-3.16445e-05
-1.35133e-05
-1.75754e-05
-1.40691e-05
-3.06993e-06
-1.45055e-05
1.1991e-05
-1.5061e-05
2.7485e-05
-1.5494e-05
4.32032e-05
-1.57183e-05
5.91862e-05
-1.5983e-05
7.51969e-05
-1.60108e-05
9.11849e-05
-1.5988e-05
0.000106904
-1.57196e-05
0.000122094
-1.51894e-05
0.000136677
-1.45835e-05
0.000150383
-1.37062e-05
-1.28657e-05
0.000106231
3.55696e-05
8.81163e-05
3.62218e-05
6.94911e-05
3.72423e-05
5.05573e-05
3.78584e-05
3.16469e-05
3.7814e-05
1.28372e-05
3.76127e-05
-5.46052e-06
3.65884e-05
-2.32717e-05
3.56163e-05
-4.03535e-05
3.41584e-05
-5.65683e-05
3.24247e-05
-7.18802e-05
3.0618e-05
-8.61921e-05
2.86196e-05
-9.94664e-05
2.65465e-05
-0.000111717
2.45018e-05
-0.00012293
2.24242e-05
-0.000133131
2.04014e-05
-0.000142319
1.83745e-05
-0.00015053
1.64198e-05
-0.000157803
1.45406e-05
-0.000164172
1.27302e-05
-0.000169666
1.09916e-05
-0.000174322
9.31637e-06
-0.00017817
7.69772e-06
-0.000181251
6.16318e-06
-0.00018357
4.63575e-06
-0.000185175
3.20623e-06
-0.000186095
1.84592e-06
-0.000186335
4.83511e-07
-0.00018581
-1.05119e-06
-0.00018457
-2.47793e-06
-0.000182662
-3.81693e-06
-0.000179959
-5.40229e-06
-0.000176494
-6.93846e-06
-0.000172199
-8.59081e-06
-0.000167175
-1.00484e-05
-0.000161379
-1.15923e-05
-0.00015465
-1.34586e-05
-0.000147082
-1.5135e-05
-0.00013867
-1.68228e-05
-0.000129129
-1.90901e-05
-0.000118669
-2.09203e-05
-0.000107067
-2.32091e-05
-9.44417e-05
-2.52426e-05
-8.10148e-05
-2.68507e-05
-6.65231e-05
-2.89793e-05
-5.10802e-05
-3.08776e-05
-3.47628e-05
-3.26497e-05
-1.76332e-05
-3.42379e-05
2.53217e-07
-3.57681e-05
1.85296e-05
-3.65428e-05
3.72964e-05
-3.75267e-05
5.62454e-05
-3.78915e-05
7.52644e-05
-3.80197e-05
9.41329e-05
-3.77236e-05
0.000112456
-3.66275e-05
0.000130093
-3.52534e-05
0.000146846
-3.35064e-05
0.000162317
-3.09448e-05
0.00017643
-2.82121e-05
0.000188912
-2.49455e-05
0.000199634
-2.14233e-05
0.000208438
-1.75946e-05
0.00021504
-1.32043e-05
0.000219363
-8.64316e-06
0.000221401
-4.06323e-06
0.000221028
7.40686e-07
0.000218277
5.49757e-06
0.00021313
1.02964e-05
0.000205759
1.47427e-05
0.0001962
1.91132e-05
0.000184614
2.31629e-05
0.000171187
2.68415e-05
0.000156123
3.01127e-05
0.000139692
3.2845e-05
0.000122134
3.50995e-05
0.000103674
3.69038e-05
8.45454e-05
3.82396e-05
6.50448e-05
3.89857e-05
4.5542e-05
3.89883e-05
2.59421e-05
3.91946e-05
6.72413e-06
3.84145e-05
-1.21068e-05
3.7649e-05
-3.03426e-05
3.64647e-05
-4.78096e-05
3.49308e-05
-6.43611e-05
3.30942e-05
-7.99769e-05
3.12203e-05
-9.45656e-05
2.91894e-05
-0.000108088
2.70305e-05
-0.000120389
2.45941e-05
-0.000131538
2.22905e-05
-0.000141542
2.0008e-05
-0.000150431
1.77756e-05
-0.000158141
1.54375e-05
-0.000164674
1.30662e-05
-0.000170163
1.09794e-05
-0.000174571
8.81946e-06
-0.000178204
7.26044e-06
-0.00018094
5.47063e-06
-0.000182797
3.72426e-06
-0.000184074
2.56802e-06
-0.000184779
1.40831e-06
-0.000184638
-2.88578e-07
-0.000183894
-1.47784e-06
-0.000182595
-2.59878e-06
-0.000180562
-4.0541e-06
-0.000177932
-5.26355e-06
-0.000174671
-6.52174e-06
-0.000170728
-7.88402e-06
-0.000166129
-9.20066e-06
-0.000160842
-1.05732e-05
-0.00015476
-1.21645e-05
-0.000147877
-1.3755e-05
-0.000140163
-1.54261e-05
-0.000131609
-1.70986e-05
-0.000122154
-1.89065e-05
-0.000111748
-2.08131e-05
-0.000100498
-2.25078e-05
-8.8244e-05
-2.45104e-05
-7.50802e-05
-2.63212e-05
-6.1078e-05
-2.79908e-05
-4.61797e-05
-2.97943e-05
-3.04458e-05
-3.14611e-05
-1.39837e-05
-3.29212e-05
3.11344e-06
-3.4177e-05
2.07264e-05
-3.5213e-05
3.86754e-05
-3.58987e-05
5.68657e-05
-3.637e-05
7.50774e-05
-3.64148e-05
9.31489e-05
-3.61321e-05
0.000110861
-3.54077e-05
0.000127948
-3.41623e-05
0.00014416
-3.24183e-05
0.000159355
-3.03781e-05
0.000173202
-2.76834e-05
0.000185443
-2.4463e-05
0.000195885
-2.08727e-05
0.000204329
-1.68782e-05
0.000210566
-1.24808e-05
0.000214482
-7.8248e-06
0.00021598
-2.98167e-06
0.00021504
1.8526e-06
0.000211593
6.88418e-06
0.000205712
1.17557e-05
0.000197509
1.63897e-05
0.000187109
2.07916e-05
0.00017473
2.47414e-05
0.000160648
2.81487e-05
0.000145051
3.11735e-05
0.000128116
3.3842e-05
0.000110134
3.59647e-05
9.13888e-05
3.74794e-05
7.22276e-05
3.83067e-05
5.27377e-05
3.89594e-05
3.3266e-05
3.89307e-05
1.413e-05
3.826e-05
-4.62188e-06
3.7487e-05
-2.27714e-05
3.62906e-05
-4.01063e-05
3.46633e-05
-5.66977e-05
3.31703e-05
-7.22399e-05
3.10956e-05
-8.67506e-05
2.90191e-05
-0.000100304
2.71047e-05
-0.000112688
2.47636e-05
-0.000124012
2.2642e-05
-0.000134233
2.04525e-05
-0.000143406
1.83403e-05
-0.000151553
1.62935e-05
-0.000158645
1.41938e-05
-0.000164723
1.21602e-05
-0.000169973
1.04921e-05
-0.000174286
8.6232e-06
-0.00017753
6.49126e-06
-0.000180043
5.0447e-06
-0.000181869
3.6553e-06
-0.000182752
1.76859e-06
-0.000182941
3.66234e-07
-0.000181997
-1.88644e-06
-0.00018039
-3.19855e-06
-0.00017821
-4.35412e-06
-0.00017521
-5.99834e-06
-0.000171489
-7.44251e-06
-0.000167124
-8.72456e-06
-0.000162124
-9.99679e-06
-0.000156447
-1.1353e-05
-0.00015005
-1.27947e-05
-0.000142939
-1.42138e-05
-0.00013517
-1.5527e-05
-0.000126676
-1.6999e-05
-0.00011745
-1.84467e-05
-0.000107481
-1.99302e-05
-9.67945e-05
-2.13763e-05
-8.52856e-05
-2.30083e-05
-7.30248e-05
-2.45195e-05
-5.99213e-05
-2.62097e-05
-4.59879e-05
-2.78685e-05
-3.13569e-05
-2.92554e-05
-1.59434e-05
-3.08209e-05
2.02545e-07
-3.22863e-05
1.69987e-05
-3.35872e-05
3.4382e-05
-3.47557e-05
5.21918e-05
-3.56002e-05
7.02494e-05
-3.61042e-05
8.83562e-05
-3.62071e-05
0.000106287
-3.58576e-05
0.000123885
-3.51836e-05
0.000140707
-3.36282e-05
0.000156543
-3.16522e-05
0.000171108
-2.91171e-05
0.000184069
-2.59116e-05
0.000195156
-2.21681e-05
0.000204133
-1.7931e-05
0.000210763
-1.32596e-05
0.000214907
-8.29217e-06
0.000216485
-3.1443e-06
0.000215451
2.04569e-06
0.000211773
7.34784e-06
0.00020564
1.22587e-05
0.000197109
1.70541e-05
0.000186353
2.1487e-05
0.000173637
2.54169e-05
0.000159203
2.8846e-05
0.000143442
3.15074e-05
0.000126392
3.40934e-05
0.000108566
3.56212e-05
9.03308e-05
3.64538e-05
7.17928e-05
3.70618e-05
5.32062e-05
3.71607e-05
3.48829e-05
3.6629e-05
1.68446e-05
3.60658e-05
-4.76942e-07
3.46383e-05
-1.72288e-05
3.34936e-05
-3.32277e-05
3.19966e-05
-4.82823e-05
3.01053e-05
-6.24732e-05
2.8376e-05
-7.57603e-05
2.65764e-05
-8.81662e-05
2.4824e-05
-9.97397e-05
2.31329e-05
-0.00011035
2.12149e-05
-0.000120186
1.9673e-05
-0.000129233
1.81063e-05
-0.000137465
1.64746e-05
-0.000144952
1.49751e-05
-0.000151836
1.3761e-05
-0.000158
1.23245e-05
-0.000163355
1.07091e-05
-0.000168115
9.5309e-06
-0.000172005
7.79151e-06
-0.000175259
6.49705e-06
-0.000177959
5.3932e-06
-0.000179762
3.6068e-06
-0.000180792
2.0629e-06
-0.000181156
7.31801e-07
-0.000180901
-5.04202e-07
-0.000179802
-2.20478e-06
-0.000177692
-4.21084e-06
-0.000174919
-5.53898e-06
-0.000171299
-7.24145e-06
-0.000166815
-8.9719e-06
-0.000161403
-1.08181e-05
-0.000155117
-1.25697e-05
-0.000147868
-1.44983e-05
-0.000139703
-1.63315e-05
-0.000130516
-1.83723e-05
-0.000120324
-2.03757e-05
-0.00010916
-2.23222e-05
-9.69774e-05
-2.43663e-05
-8.38828e-05
-2.61928e-05
-6.97942e-05
-2.81671e-05
-5.48392e-05
-2.99036e-05
-3.91333e-05
-3.14142e-05
-2.26257e-05
-3.30067e-05
-5.49271e-06
-3.42512e-05
1.20521e-05
-3.5088e-05
3.00096e-05
-3.59045e-05
4.81457e-05
-3.62723e-05
6.62803e-05
-3.62757e-05
8.42751e-05
-3.59859e-05
0.000101911
-3.52531e-05
0.000118953
-3.40661e-05
0.000135237
-3.25709e-05
0.000150521
-3.05602e-05
0.000164652
-2.82462e-05
0.000177402
-2.55114e-05
0.000188449
-2.21228e-05
0.000197791
-1.86666e-05
0.000205145
-1.46671e-05
0.000210322
-1.03736e-05
0.000213314
-5.99815e-06
0.000213885
-1.10836e-06
0.000212326
3.13505e-06
0.000208456
7.75251e-06
0.000202306
1.23064e-05
0.000194029
1.65512e-05
0.000183649
2.07544e-05
0.000171261
2.47678e-05
0.000157191
2.81299e-05
0.000141575
3.12193e-05
0.000124691
3.3757e-05
0.000106859
3.56512e-05
8.82319e-05
3.72406e-05
6.92001e-05
3.80503e-05
4.9948e-05
3.84944e-05
3.06213e-05
3.86373e-05
1.17423e-05
3.77495e-05
-6.80353e-06
3.70819e-05
-2.47211e-05
3.58243e-05
-4.18411e-05
3.42299e-05
-5.80763e-05
3.24637e-05
-7.33017e-05
3.04461e-05
-8.74885e-05
2.83651e-05
-0.000100566
2.61464e-05
-0.000112507
2.38855e-05
-0.000123323
2.16337e-05
-0.000132999
1.93523e-05
-0.000141553
1.71075e-05
-0.000149014
1.49169e-05
-0.000155416
1.28028e-05
-0.000160822
1.08001e-05
-0.000165257
8.85885e-06
-0.000168764
7.01482e-06
-0.000171394
5.27341e-06
-0.000173184
3.58936e-06
-0.000174207
2.05252e-06
-0.000174482
5.53917e-07
-0.000173901
-1.15806e-06
-0.000172553
-2.69805e-06
-0.000170496
-4.11369e-06
-0.000167724
-5.54241e-06
-0.000164277
-6.89154e-06
-0.000160155
-8.24647e-06
-0.000155308
-9.69398e-06
-0.000149835
-1.09433e-05
-0.000143735
-1.22006e-05
-0.000136907
-1.36552e-05
-0.000129451
-1.49111e-05
-0.000121266
-1.63683e-05
-0.000112401
-1.77296e-05
-0.000102922
-1.89572e-05
-9.26845e-05
-2.04734e-05
-8.17632e-05
-2.18394e-05
-7.02416e-05
-2.30407e-05
-5.79898e-05
-2.45005e-05
-4.51903e-05
-2.5598e-05
-3.16784e-05
-2.70253e-05
-1.76068e-05
-2.81407e-05
-3.08995e-06
-2.90224e-05
1.19748e-05
-3.01258e-05
2.74667e-05
-3.09859e-05
4.31858e-05
-3.14375e-05
5.91725e-05
-3.19697e-05
7.5189e-05
-3.20273e-05
9.11842e-05
-3.19833e-05
0.000106912
-3.14474e-05
0.00012211
-3.03873e-05
0.000136704
-2.91775e-05
0.000150422
-2.74248e-05
-2.57422e-05
0.000106275
5.33758e-05
8.8144e-05
5.43526e-05
6.95019e-05
5.58844e-05
5.05501e-05
5.68102e-05
3.16273e-05
5.67368e-05
1.28076e-05
5.64324e-05
-5.50928e-06
5.49053e-05
-2.33356e-05
5.34426e-05
-4.04278e-05
5.12506e-05
-5.66483e-05
4.86452e-05
-7.19653e-05
4.5935e-05
-8.62831e-05
4.29373e-05
-9.9564e-05
3.98275e-05
-0.000111817
3.67544e-05
-0.000123029
3.36362e-05
-0.000133231
3.06033e-05
-0.000142421
2.75645e-05
-0.000150635
2.46338e-05
-0.000157907
2.18132e-05
-0.000164269
1.90918e-05
-0.000169765
1.64883e-05
-0.000174425
1.39757e-05
-0.000178273
1.15458e-05
-0.000181358
9.24858e-06
-0.000183674
6.95131e-06
-0.000185274
4.80607e-06
-0.00018618
2.75182e-06
-0.0001864
7.03529e-07
-0.000185865
-1.58544e-06
-0.000184625
-3.71834e-06
-0.000182717
-5.72536e-06
-0.000180015
-8.10413e-06
-0.000176559
-1.03946e-05
-0.000172263
-1.28865e-05
-0.000167239
-1.5072e-05
-0.000161446
-1.73859e-05
-0.000154718
-2.01866e-05
-0.00014715
-2.27026e-05
-0.000138739
-2.5234e-05
-0.000129211
-2.86182e-05
-0.000118751
-3.13799e-05
-0.000107151
-3.48096e-05
-9.45243e-05
-3.78692e-05
-8.10937e-05
-4.02814e-05
-6.65975e-05
-4.34756e-05
-5.11489e-05
-4.63263e-05
-3.48474e-05
-4.89512e-05
-1.76887e-05
-5.13967e-05
2.09188e-07
-5.3666e-05
1.84972e-05
-5.48308e-05
3.72778e-05
-5.63074e-05
5.62415e-05
-5.68553e-05
7.52836e-05
-5.70618e-05
9.41659e-05
-5.6606e-05
0.000112504
-5.49654e-05
0.000130159
-5.2909e-05
0.000146927
-5.02741e-05
0.000162414
-4.6432e-05
0.000176545
-4.23429e-05
0.000189034
-3.74345e-05
0.000199763
-3.21526e-05
0.000208592
-2.64241e-05
0.000215214
-1.98263e-05
0.000219532
-1.2961e-05
0.000221586
-6.11709e-06
0.000221207
1.11975e-06
0.000218456
8.24797e-06
0.000213317
1.54354e-05
0.000205937
2.21235e-05
0.000196365
2.86849e-05
0.000184763
3.4765e-05
0.000171315
4.02888e-05
0.000156231
4.51969e-05
0.000139781
4.92949e-05
0.000122204
5.26773e-05
0.000103722
5.5385e-05
8.45734e-05
5.73886e-05
6.50599e-05
5.84992e-05
4.55358e-05
5.85124e-05
2.5919e-05
5.88113e-05
6.68603e-06
5.76475e-05
-1.21566e-05
5.64916e-05
-3.03962e-05
5.47044e-05
-4.78787e-05
5.24133e-05
-6.44316e-05
4.96471e-05
-8.00455e-05
4.68342e-05
-9.46365e-05
4.37804e-05
-0.000108156
4.05496e-05
-0.000120467
3.69054e-05
-0.000131619
3.34428e-05
-0.000141626
3.00146e-05
-0.000150516
2.66658e-05
-0.000158219
2.31402e-05
-0.000164764
1.96115e-05
-0.000170247
1.64623e-05
-0.000174638
1.32104e-05
-0.000178279
1.09013e-05
-0.000181012
8.20421e-06
-0.000182856
5.56818e-06
-0.000184149
3.86087e-06
-0.000184845
2.10472e-06
-0.000184701
-4.3344e-07
-0.000183964
-2.21414e-06
-0.000182654
-3.90891e-06
-0.000180598
-6.11026e-06
-0.000177978
-7.88322e-06
-0.000174726
-9.77434e-06
-0.000170791
-1.18183e-05
-0.000166223
-1.37689e-05
-0.000160907
-1.58895e-05
-0.000154833
-1.82388e-05
-0.000147953
-2.0635e-05
-0.000140241
-2.3138e-05
-0.000131691
-2.56484e-05
-0.000122235
-2.83621e-05
-0.000111828
-3.12205e-05
-0.000100583
-3.37525e-05
-8.83279e-05
-3.6766e-05
-7.51632e-05
-3.94859e-05
-6.11564e-05
-4.19976e-05
-4.6245e-05
-4.47058e-05
-3.05008e-05
-4.72054e-05
-1.40359e-05
-4.93861e-05
3.07543e-06
-5.12884e-05
2.07055e-05
-5.28431e-05
3.86702e-05
-5.38634e-05
5.68752e-05
-5.4575e-05
7.51031e-05
-5.46428e-05
9.31899e-05
-5.42189e-05
0.000110923
-5.31406e-05
0.000128028
-5.12672e-05
0.000144258
-4.86492e-05
0.000159475
-4.55946e-05
0.000173341
-4.15493e-05
0.000185594
-3.67164e-05
0.000196055
-3.13332e-05
0.000204518
-2.5342e-05
0.000210768
-1.87306e-05
0.000214694
-1.1751e-05
0.000216191
-4.4789e-06
0.000215223
2.82079e-06
0.00021177
1.03371e-05
0.000205896
1.76297e-05
0.000197669
2.46172e-05
0.000187253
3.12078e-05
0.000174865
3.71293e-05
0.000160764
4.22493e-05
0.000145139
4.67982e-05
0.000128179
5.0802e-05
0.000110194
5.39504e-05
9.14171e-05
5.62561e-05
7.22356e-05
5.74883e-05
5.27251e-05
5.84699e-05
3.32361e-05
5.84198e-05
1.40875e-05
5.74086e-05
-4.67781e-06
5.62523e-05
-2.28393e-05
5.44521e-05
-4.01855e-05
5.20095e-05
-5.67859e-05
4.97707e-05
-7.23218e-05
4.66315e-05
-8.68301e-05
4.35274e-05
-0.000100387
4.06617e-05
-0.000112765
3.71413e-05
-0.000124085
3.39628e-05
-0.000134314
3.06808e-05
-0.0001435
2.75266e-05
-0.000151646
2.44397e-05
-0.000158727
2.12749e-05
-0.000164792
1.82246e-05
-0.000170059
1.5759e-05
-0.000174372
1.29364e-05
-0.000177597
9.71687e-06
-0.000180108
7.55503e-06
-0.000181952
5.49928e-06
-0.000182817
2.63429e-06
-0.000183018
5.66573e-07
-0.000182075
-2.82912e-06
-0.000180457
-4.81657e-06
-0.000178271
-6.54018e-06
-0.000175266
-9.00366e-06
-0.000171545
-1.11632e-05
-0.000167186
-1.30838e-05
-0.000162189
-1.49939e-05
-0.00015652
-1.70222e-05
-0.00015012
-1.9194e-05
-0.000143005
-2.13294e-05
-0.000135234
-2.32976e-05
-0.000126741
-2.54923e-05
-0.000117514
-2.76737e-05
-0.000107558
-2.9886e-05
-9.68663e-05
-3.20681e-05
-8.53625e-05
-3.45121e-05
-7.30985e-05
-3.67835e-05
-5.99878e-05
-3.93204e-05
-4.60815e-05
-4.17749e-05
-3.14147e-05
-4.39222e-05
-1.60008e-05
-4.62348e-05
1.61447e-07
-4.84486e-05
1.69664e-05
-5.03922e-05
3.43554e-05
-5.21448e-05
5.21743e-05
-5.34192e-05
7.0252e-05
-5.4182e-05
8.83854e-05
-5.43406e-05
0.000106337
-5.38096e-05
0.000123967
-5.28131e-05
0.000140801
-5.04627e-05
0.000156663
-4.75137e-05
0.00017126
-4.3715e-05
0.000184245
-3.88959e-05
0.000195343
-3.3267e-05
0.000204329
-2.69162e-05
0.000210984
-1.99149e-05
0.000215129
-1.24375e-05
0.000216708
-4.72367e-06
0.000215642
3.1117e-06
0.000211951
1.10391e-05
0.000205828
1.83814e-05
0.000197293
2.5589e-05
0.000186505
3.22757e-05
0.00017377
3.81511e-05
0.000159314
4.33021e-05
0.000143537
4.72851e-05
0.000126453
5.11772e-05
0.000108588
5.34855e-05
9.03422e-05
5.47e-05
7.17835e-05
5.56205e-05
5.31845e-05
5.57597e-05
3.48414e-05
5.49721e-05
1.67847e-05
5.41225e-05
-5.31422e-07
5.19544e-05
-1.72969e-05
5.02591e-05
-3.33074e-05
4.80071e-05
-4.83599e-05
4.51578e-05
-6.25479e-05
4.2564e-05
-7.58268e-05
3.98552e-05
-8.82127e-05
3.72099e-05
-9.97973e-05
3.47175e-05
-0.000110411
3.18282e-05
-0.000120247
2.95092e-05
-0.000129295
2.71546e-05
-0.00013752
2.4699e-05
-0.000145002
2.24578e-05
-0.000151891
2.06498e-05
-0.000158062
1.84951e-05
-0.000163418
1.6066e-05
-0.000168181
1.42933e-05
-0.000172056
1.16665e-05
-0.000175319
9.76047e-06
-0.000178035
8.10844e-06
-0.000179846
5.41804e-06
-0.000180881
3.09779e-06
-0.000181242
1.09325e-06
-0.000180955
-7.91444e-07
-0.000179863
-3.2967e-06
-0.000177759
-6.3147e-06
-0.00017499
-8.30818e-06
-0.000171372
-1.08595e-05
-0.000166889
-1.34548e-05
-0.000161485
-1.62219e-05
-0.00015521
-1.88448e-05
-0.000147955
-2.17539e-05
-0.000139785
-2.45009e-05
-0.000130599
-2.75585e-05
-0.000120406
-3.05691e-05
-0.000109242
-3.34854e-05
-9.70548e-05
-3.65539e-05
-8.39608e-05
-3.92868e-05
-6.98714e-05
-4.22565e-05
-5.49136e-05
-4.48614e-05
-3.91975e-05
-4.71304e-05
-2.2689e-05
-4.95152e-05
-5.53017e-06
-5.14101e-05
1.20139e-05
-5.26321e-05
2.99827e-05
-5.38734e-05
4.81343e-05
-5.44239e-05
6.62783e-05
-5.44197e-05
8.42918e-05
-5.39994e-05
0.000101942
-5.29029e-05
0.000118995
-5.11198e-05
0.000135291
-4.88667e-05
0.000150588
-4.58572e-05
0.000164729
-4.23873e-05
0.000177487
-3.82699e-05
0.000188546
-3.3181e-05
0.000197871
-2.79919e-05
0.000205197
-2.19935e-05
0.000210382
-1.55583e-05
0.000213403
-9.01971e-06
0.000213995
-1.70002e-06
0.000212454
4.67621e-06
0.000208618
1.15886e-05
0.000202476
1.84477e-05
0.000194191
2.48364e-05
0.000183799
3.11466e-05
0.000171397
3.71694e-05
0.000157311
4.22164e-05
0.000141672
4.68584e-05
0.000124778
5.06511e-05
0.000106914
5.35143e-05
8.82658e-05
5.58892e-05
6.92126e-05
5.71036e-05
4.99455e-05
5.77615e-05
3.05976e-05
5.79852e-05
1.17032e-05
5.66439e-05
-6.85812e-06
5.56431e-05
-2.47907e-05
5.37569e-05
-4.19206e-05
5.13597e-05
-5.81657e-05
4.87089e-05
-7.33996e-05
4.56799e-05
-8.75904e-05
4.25559e-05
-0.000100667
3.92232e-05
-0.000112611
3.58296e-05
-0.000123432
3.24545e-05
-0.000133114
2.90342e-05
-0.000141673
2.56664e-05
-0.000149143
2.23866e-05
-0.00015554
1.92005e-05
-0.000160936
1.6196e-05
-0.000165361
1.32833e-05
-0.000168863
1.05168e-05
-0.000171499
7.91033e-06
-0.000173289
5.37893e-06
-0.000174294
3.05742e-06
-0.000174547
8.06762e-07
-0.00017396
-1.74506e-06
-0.000172608
-4.04987e-06
-0.000170548
-6.17363e-06
-0.000167776
-8.31449e-06
-0.00016433
-1.0337e-05
-0.000160211
-1.23662e-05
-0.000155361
-1.45441e-05
-0.000149888
-1.64159e-05
-0.000143787
-1.83012e-05
-0.000136959
-2.04835e-05
-0.000129504
-2.23667e-05
-0.000121319
-2.45527e-05
-0.000112454
-2.6595e-05
-0.000102974
-2.84368e-05
-9.27364e-05
-3.07114e-05
-8.18147e-05
-3.27611e-05
-7.02912e-05
-3.45643e-05
-5.80375e-05
-3.67542e-05
-4.52218e-05
-3.84138e-05
-3.17019e-05
-4.05453e-05
-1.76297e-05
-4.2213e-05
-3.11572e-06
-4.35365e-05
1.19524e-05
-4.5194e-05
2.74505e-05
-4.64841e-05
4.3172e-05
-4.71591e-05
5.91585e-05
-4.79563e-05
7.51809e-05
-4.80498e-05
9.11865e-05
-4.7989e-05
0.000106929
-4.71896e-05
0.000122143
-4.56016e-05
0.000136757
-4.3792e-05
0.000150499
-4.11668e-05
-3.86406e-05
0.000106341
7.12085e-05
8.81853e-05
7.25081e-05
6.95181e-05
7.45516e-05
5.05393e-05
7.5789e-05
3.15977e-05
7.56783e-05
1.27651e-05
7.5265e-05
-5.58252e-06
7.32529e-05
-2.34301e-05
7.12902e-05
-4.0539e-05
6.83595e-05
-5.67711e-05
6.48773e-05
-7.20983e-05
6.12621e-05
-8.64228e-05
5.72618e-05
-9.97057e-05
5.31104e-05
-0.000111961
4.90096e-05
-0.000123178
4.48533e-05
-0.000133385
4.08104e-05
-0.000142578
3.67572e-05
-0.000150791
3.28474e-05
-0.000158062
2.90842e-05
-0.000164425
2.5454e-05
-0.000169925
2.19887e-05
-0.000174584
1.86345e-05
-0.000178432
1.53943e-05
-0.000181518
1.23348e-05
-0.000183835
9.26752e-06
-0.000185432
6.40368e-06
-0.000186315
3.63487e-06
-0.000186501
8.89645e-07
-0.000185949
-2.13755e-06
-0.000184708
-4.96012e-06
-0.000182799
-7.63398e-06
-0.000180101
-1.08022e-05
-0.000176656
-1.38395e-05
-0.00017236
-1.71823e-05
-0.000167337
-2.00949e-05
-0.000161546
-2.31768e-05
-0.00015482
-2.69127e-05
-0.000147254
-3.02688e-05
-0.000138845
-3.36431e-05
-0.000129334
-3.81289e-05
-0.000118876
-4.18387e-05
-0.000107277
-4.64082e-05
-9.46496e-05
-5.04967e-05
-8.1213e-05
-5.3718e-05
-6.67101e-05
-5.79785e-05
-5.12525e-05
-6.17839e-05
-3.49835e-05
-6.52202e-05
-1.77718e-05
-6.86085e-05
1.40305e-07
-7.15782e-05
1.84433e-05
-7.31338e-05
3.72459e-05
-7.511e-05
5.62317e-05
-7.58411e-05
7.52974e-05
-7.61275e-05
9.42066e-05
-7.55153e-05
0.000112565
-7.33242e-05
0.000130248
-7.05914e-05
0.000147034
-6.70608e-05
0.000162543
-6.19405e-05
0.000176702
-5.65015e-05
0.000189213
-4.99462e-05
0.000199964
-4.29035e-05
0.000208818
-3.52783e-05
0.000215442
-2.64504e-05
0.000219778
-1.72966e-05
0.000221853
-8.19175e-06
0.00022148
1.49238e-06
0.000218741
1.09869e-05
0.000213602
2.05746e-05
0.000206205
2.95208e-05
0.000196612
3.82774e-05
0.000184986
4.63908e-05
0.000171513
5.37622e-05
0.000156398
6.03116e-05
0.000139918
6.5775e-05
0.000122306
7.02892e-05
0.00010379
7.39013e-05
8.46093e-05
7.65693e-05
6.50785e-05
7.803e-05
4.55343e-05
7.80567e-05
2.58807e-05
7.84649e-05
6.61619e-06
7.6912e-05
-1.22262e-05
7.5334e-05
-3.0473e-05
7.29512e-05
-4.79758e-05
6.99161e-05
-6.45254e-05
6.61968e-05
-8.01371e-05
6.24459e-05
-9.47496e-05
5.83929e-05
-0.000108279
5.40795e-05
-0.00012061
4.92364e-05
-0.000131752
4.45844e-05
-0.000141747
4.00097e-05
-0.000150654
3.55728e-05
-0.000158337
3.08228e-05
-0.000164896
2.61705e-05
-0.000170386
2.19526e-05
-0.000174727
1.75519e-05
-0.00017838
1.45541e-05
-0.000181137
1.09605e-05
-0.000182937
7.36833e-06
-0.000184233
5.15744e-06
-0.000184943
2.81453e-06
-0.0001848
-5.76232e-07