/*--------------------------------*- C++ -*----------------------------------*\
| =========                 |                                                 |
| \\      /  F ield         | OpenFOAM: The Open Source CFD Toolbox           |
|  \\    /   O peration     | Version:  3.0.1                                 |
|   \\  /    A nd           | Web:      www.OpenFOAM.org                      |
|    \\/     M anipulation  |                                                 |
\*---------------------------------------------------------------------------*/
FoamFile
{
    version     2.0;
    format      ascii;
    class       surfaceScalarField;
    location    "54";
    object      phi;
}
// * * * * * * * * * * * * * * * * * * * * * * * * * * * * * * * * * * * * * //

dimensions      [0 3 -1 0 0 0 0];

internalField   nonuniform List<scalar> 
42423
(
-0.000128155
9.79796e-06
-0.000136952
8.79754e-06
-0.000144872
7.91983e-06
-0.000151933
7.0611e-06
-0.000158159
6.22562e-06
-0.000163593
5.43459e-06
-0.000168252
4.6589e-06
-0.000172169
3.91721e-06
-0.000175364
3.19492e-06
-0.000177855
2.49041e-06
-0.000179649
1.79432e-06
-0.000180766
1.11701e-06
-0.000181205
4.3906e-07
-0.00018092
-2.85605e-07
-0.000179895
-1.02466e-06
-0.000178157
-1.73812e-06
-0.00017578
-2.37659e-06
-0.000172594
-3.18639e-06
-0.000168658
-3.93556e-06
-0.000163964
-4.69397e-06
-0.000158356
-5.6088e-06
-0.000151889
-6.46612e-06
-0.000144628
-7.26185e-06
-0.000136371
-8.25626e-06
-0.000127233
-9.13849e-06
-0.000117024
-1.02084e-05
-0.000105818
-1.12068e-05
-9.37095e-05
-1.21082e-05
-8.05088e-05
-1.32007e-05
-6.62743e-05
-1.42346e-05
-5.11952e-05
-1.50791e-05
-3.51602e-05
-1.6035e-05
-1.83632e-05
-1.6797e-05
-7.41421e-07
-1.76218e-05
1.75441e-05
-1.82855e-05
3.61694e-05
-1.86254e-05
5.51078e-05
-1.89383e-05
7.41879e-05
-1.90801e-05
9.30048e-05
-1.8817e-05
0.000111503
-1.84977e-05
0.000129388
-1.7885e-05
0.000146402
-1.70144e-05
0.000162298
-1.58958e-05
0.000176718
-1.44206e-05
0.000189524
-1.28058e-05
0.000200498
-1.0974e-05
0.00020933
-8.83171e-06
0.000215969
-6.6398e-06
0.000220289
-4.31964e-06
0.000222139
-1.85031e-06
0.000221576
5.63638e-07
0.000218563
3.01262e-06
0.000213095
5.46816e-06
0.000205443
7.65216e-06
0.00019566
9.78267e-06
0.000183943
1.17166e-05
0.000170583
1.336e-05
0.000155604
1.4979e-05
0.000139424
1.618e-05
0.000122212
1.72127e-05
0.000104244
1.7968e-05
8.57199e-05
1.85237e-05
6.70183e-05
1.87016e-05
4.83192e-05
1.8699e-05
2.96686e-05
1.86506e-05
1.14371e-05
1.82314e-05
-6.23973e-06
1.76769e-05
-2.3305e-05
1.70653e-05
-3.96357e-05
1.63307e-05
-5.52198e-05
1.55841e-05
-6.98345e-05
1.46147e-05
-8.35457e-05
1.37112e-05
-9.63953e-05
1.28496e-05
-0.000108248
1.18524e-05
-0.000119121
1.08728e-05
-0.000129105
9.98407e-06
-0.000138115
9.01062e-06
-0.000146316
8.20064e-06
-0.000153623
7.30742e-06
-0.000160083
6.45991e-06
-0.000165732
5.64904e-06
-0.000170513
4.7807e-06
-0.000174515
4.002e-06
-0.00017768
3.1651e-06
-0.000179986
2.30579e-06
-0.000181388
1.40171e-06
-0.000181963
5.7583e-07
-0.000181567
-3.96147e-07
-0.000180427
-1.14057e-06
-0.00017842
-2.00632e-06
-0.000175639
-2.78166e-06
-0.000172093
-3.54609e-06
-0.000167829
-4.26315e-06
-0.000162862
-4.96753e-06
-0.000157175
-5.68708e-06
-0.000150755
-6.42035e-06
-0.000143643
-7.11108e-06
-0.000135741
-7.9025e-06
-0.000127021
-8.72037e-06
-0.000117583
-9.43718e-06
-0.00010722
-1.03632e-05
-9.60225e-05
-1.11978e-05
-8.39378e-05
-1.20847e-05
-7.10174e-05
-1.29204e-05
-5.72372e-05
-1.37803e-05
-4.26507e-05
-1.45865e-05
-2.73195e-05
-1.53312e-05
-1.14161e-05
-1.59034e-05
5.0959e-06
-1.6512e-05
2.20846e-05
-1.69888e-05
3.94096e-05
-1.7325e-05
5.69232e-05
-1.75136e-05
7.44592e-05
-1.7536e-05
9.18564e-05
-1.73972e-05
0.000108909
-1.70525e-05
0.00012539
-1.64816e-05
0.000141132
-1.57419e-05
0.00015586
-1.47281e-05
0.000169378
-1.35174e-05
0.000181456
-1.20781e-05
0.000191826
-1.03701e-05
0.000200341
-8.51561e-06
0.000206804
-6.46305e-06
0.000211069
-4.26457e-06
0.000212965
-1.89596e-06
0.000212546
4.18448e-07
0.000209647
2.89971e-06
0.000204338
5.30895e-06
0.000196745
7.59224e-06
0.000186979
9.7665e-06
0.000175234
1.17454e-05
0.000161681
1.35527e-05
0.000146573
1.51077e-05
0.000130071
1.65023e-05
0.000112555
1.75158e-05
9.41809e-05
1.83742e-05
7.52897e-05
1.88912e-05
5.61001e-05
1.91896e-05
3.69021e-05
1.9198e-05
1.78942e-05
1.90078e-05
-6.78316e-07
1.85725e-05
-1.86408e-05
1.79625e-05
-3.58368e-05
1.7196e-05
-5.21489e-05
1.63121e-05
-6.74709e-05
1.53219e-05
-8.17102e-05
1.42393e-05
-9.48313e-05
1.31211e-05
-0.000106829
1.19981e-05
-0.000117677
1.08477e-05
-0.000127406
9.72866e-06
-0.000136043
8.63749e-06
-0.000143638
7.59501e-06
-0.000150274
6.63551e-06
-0.000155973
5.69893e-06
-0.000160831
4.85816e-06
-0.000164895
4.06437e-06
-0.000168187
3.29141e-06
-0.000170786
2.59894e-06
-0.000172734
1.94836e-06
-0.00017404
1.30567e-06
-0.000174773
7.33767e-07
-0.000174924
1.50317e-07
-0.00017454
-3.8342e-07
-0.000173582
-9.58346e-07
-0.000172104
-1.47795e-06
-0.000170054
-2.04976e-06
-0.000167439
-2.61526e-06
-0.000164189
-3.2505e-06
-0.000160319
-3.86975e-06
-0.000155797
-4.52177e-06
-0.000150639
-5.15774e-06
-0.000144798
-5.8409e-06
-0.000138195
-6.60299e-06
-0.00013095
-7.24564e-06
-0.000122928
-8.02164e-06
-0.000114212
-8.7158e-06
-0.000104625
-9.58722e-06
-9.42145e-05
-1.04107e-05
-8.29774e-05
-1.12371e-05
-7.09177e-05
-1.20597e-05
-5.80075e-05
-1.29102e-05
-4.42457e-05
-1.37618e-05
-2.96855e-05
-1.45602e-05
-1.44504e-05
-1.52351e-05
1.51394e-06
-1.59643e-05
1.80366e-05
-1.65227e-05
3.50265e-05
-1.69899e-05
5.23146e-05
-1.72882e-05
6.97239e-05
-1.74092e-05
8.71212e-05
-1.73974e-05
0.000104246
-1.7125e-05
0.000120897
-1.66512e-05
0.000136756
-1.58586e-05
0.000151496
-1.474e-05
0.000164827
-1.33314e-05
0.000176428
-1.16007e-05
0.000186128
-9.70014e-06
0.000193721
-7.59341e-06
0.000199042
-5.32023e-06
0.000201971
-2.92992e-06
0.000202527
-5.55365e-07
0.000200696
1.83105e-06
0.000196387
4.30842e-06
0.000189782
6.60543e-06
0.000180969
8.81254e-06
0.000170024
1.09448e-05
0.000157279
1.2745e-05
0.000142872
1.44079e-05
0.000127107
1.57647e-05
0.000110202
1.69044e-05
9.25789e-05
1.76234e-05
7.44616e-05
1.81174e-05
5.62269e-05
1.82347e-05
3.80247e-05
1.82021e-05
2.02178e-05
1.78069e-05
2.92499e-06
1.72928e-05
-1.37015e-05
1.66264e-05
-2.95567e-05
1.58552e-05
-4.45471e-05
1.49905e-05
-5.86186e-05
1.40714e-05
-7.18456e-05
1.3227e-05
-8.40618e-05
1.22162e-05
-9.53353e-05
1.12735e-05
-0.000105637
1.03022e-05
-0.000115021
9.38322e-06
-0.000123471
8.45002e-06
-0.000131019
7.54786e-06
-0.000137709
6.69e-06
-0.000143593
5.88459e-06
-0.000148715
5.12193e-06
-0.000153133
4.41776e-06
-0.000156861
3.72777e-06
-0.000159954
3.0933e-06
-0.000162524
2.57056e-06
-0.00016449
1.96561e-06
-0.00016588
1.39008e-06
-0.000166696
8.16062e-07
-0.000167048
3.51331e-07
-0.000166814
-2.33481e-07
-0.000166012
-8.01837e-07
-0.000164626
-1.38595e-06
-0.000162727
-1.89913e-06
-0.000160268
-2.45927e-06
-0.000157306
-2.96184e-06
-0.000153782
-3.52387e-06
-0.000149698
-4.08448e-06
-0.000145025
-4.67251e-06
-0.000139721
-5.30404e-06
-0.000133728
-5.99315e-06
-0.000127016
-6.71231e-06
-0.000119521
-7.4943e-06
-0.00011114
-8.38187e-06
-0.000101857
-9.28295e-06
-9.168e-05
-1.01767e-05
-8.05189e-05
-1.1161e-05
-6.84697e-05
-1.20493e-05
-5.56503e-05
-1.28194e-05
-4.20351e-05
-1.36152e-05
-2.77319e-05
-1.43032e-05
-1.27877e-05
-1.49442e-05
2.65983e-06
-1.54476e-05
1.85249e-05
-1.58651e-05
3.47441e-05
-1.62193e-05
5.11562e-05
-1.6412e-05
6.76388e-05
-1.64826e-05
8.39711e-05
-1.63323e-05
9.99922e-05
-1.60211e-05
0.000115415
-1.54228e-05
0.000130084
-1.46692e-05
0.000143756
-1.36721e-05
0.000156122
-1.2366e-05
0.000167026
-1.09038e-05
0.000176237
-9.21155e-06
0.000183725
-7.48753e-06
0.000189099
-5.37396e-06
0.000192493
-3.3942e-06
0.000193756
-1.26283e-06
0.000193203
5.52332e-07
0.00019063
2.57356e-06
0.000186213
4.4173e-06
0.000179981
6.23139e-06
0.000172031
7.95016e-06
0.000162288
9.74329e-06
0.000150842
1.14461e-05
0.000137792
1.30498e-05
0.000123274
1.45181e-05
0.00010749
1.57835e-05
9.0788e-05
1.67021e-05
7.3286e-05
1.7502e-05
5.54581e-05
1.78279e-05
3.7506e-05
1.79521e-05
1.98794e-05
1.76265e-05
2.73359e-06
1.71458e-05
-1.36235e-05
1.63571e-05
-2.91288e-05
1.55052e-05
-4.37086e-05
1.45799e-05
-5.73603e-05
1.36517e-05
-7.00277e-05
1.26674e-05
-8.171e-05
1.16824e-05
-9.24281e-05
1.07181e-05
-0.000102176
9.74745e-06
-0.000111004
8.82867e-06
-0.00011892
7.9159e-06
-0.000125953
7.03275e-06
-0.000132146
6.1931e-06
-0.000137516
5.36989e-06
-0.000142088
4.57249e-06
-0.000145889
3.80047e-06
-0.000148928
3.03893e-06
-0.000151226
2.29828e-06
-0.000152746
1.52019e-06
-0.000153509
7.62959e-07
-0.000153537
2.74598e-08
-0.000152997
-5.39805e-07
-0.000151807
-1.18964e-06
-0.00014993
-1.87689e-06
-0.000147302
-2.62797e-06
-0.000143932
-3.37056e-06
-0.000139789
-4.14268e-06
-0.000134773
-5.01638e-06
-0.000128802
-5.97076e-06
-0.000122032
-6.77016e-06
-0.00011419
-7.84176e-06
-0.00010544
-8.74964e-06
-9.56126e-05
-9.82784e-06
-8.47528e-05
-1.08598e-05
-7.29787e-05
-1.17742e-05
-6.01059e-05
-1.28728e-05
-4.6253e-05
-1.38529e-05
-3.1569e-05
-1.4684e-05
-1.57082e-05
-1.58609e-05
1.03493e-06
-1.67432e-05
1.83012e-05
-1.72663e-05
3.62587e-05
-1.79575e-05
5.46213e-05
-1.83626e-05
7.34135e-05
-1.87922e-05
9.23599e-05
-1.89465e-05
0.000111077
-1.87174e-05
0.000129522
-1.8445e-05
0.000147388
-1.78656e-05
0.000164353
-1.69651e-05
0.00018028
-1.59271e-05
0.000194825
-1.45446e-05
0.000207812
-1.29872e-05
0.000219002
-1.119e-05
0.000228134
-9.13227e-06
0.000235113
-6.97844e-06
0.000239788
-4.67584e-06
0.000241952
-2.16356e-06
0.000241596
3.55864e-07
0.000238689
2.90652e-06
0.00023342
5.26966e-06
0.000225877
7.54247e-06
0.000216068
9.8089e-06
0.000204444
1.16242e-05
0.000191035
1.34087e-05
1.50112e-05
-0.000128196
1.95995e-05
-0.000136993
1.75945e-05
-0.000144914
1.58417e-05
-0.000151979
1.41256e-05
-0.000158205
1.24521e-05
-0.000163639
1.08687e-05
-0.000168298
9.31761e-06
-0.000172216
7.83505e-06
-0.000175412
6.39068e-06
-0.000177903
4.98147e-06
-0.000179696
3.5875e-06
-0.000180813
2.23424e-06
-0.00018125
8.75453e-07
-0.000180967
-5.68695e-07
-0.000179944
-2.04737e-06
-0.000178205
-3.47718e-06
-0.00017583
-4.75167e-06
-0.000172648
-6.36821e-06
-0.000168709
-7.87424e-06
-0.000164014
-9.38964e-06
-0.000158405
-1.12171e-05
-0.000151942
-1.29296e-05
-0.000144683
-1.45205e-05
-0.000136428
-1.65119e-05
-0.00012728
-1.82859e-05
-0.000117078
-2.04112e-05
-0.000105865
-2.2419e-05
-9.37621e-05
-2.42115e-05
-8.0561e-05
-2.64018e-05
-6.63227e-05
-2.84729e-05
-5.12385e-05
-3.01633e-05
-3.51999e-05
-3.20737e-05
-1.83987e-05
-3.35983e-05
-7.72526e-07
-3.5248e-05
1.75206e-05
-3.65787e-05
3.61538e-05
-3.72587e-05
5.51019e-05
-3.78864e-05
7.41968e-05
-3.8175e-05
9.30255e-05
-3.76458e-05
0.000111536
-3.70078e-05
0.000129428
-3.57771e-05
0.000146457
-3.40435e-05
0.000162367
-3.18061e-05
0.000176799
-2.88529e-05
0.000189616
-2.56225e-05
0.000200594
-2.19524e-05
0.000209433
-1.76709e-05
0.000216085
-1.32919e-05
0.00022041
-8.64443e-06
0.000222262
-3.70241e-06
0.000221695
1.13075e-06
0.000218685
6.0231e-06
0.000213216
1.09369e-05
0.000205559
1.53087e-05
0.000195769
1.95728e-05
0.000184044
2.34417e-05
0.000170676
2.67281e-05
0.000155682
2.99728e-05
0.000139494
3.23681e-05
0.000122268
3.44385e-05
0.000104288
3.59479e-05
8.57496e-05
3.70622e-05
6.70554e-05
3.73958e-05
4.83294e-05
3.7425e-05
2.96573e-05
3.73227e-05
1.1411e-05
3.64777e-05
-6.28294e-06
3.53708e-05
-2.33617e-05
3.4144e-05
-3.96908e-05
3.26598e-05
-5.52759e-05
3.11692e-05
-6.99018e-05
2.92406e-05
-8.36116e-05
2.7421e-05
-9.64615e-05
2.56995e-05
-0.000108311
2.37021e-05
-0.000119183
2.17449e-05
-0.000129168
1.99683e-05
-0.000138178
1.80214e-05
-0.000146382
1.64048e-05
-0.00015369
1.46144e-05
-0.000160145
1.29157e-05
-0.000165785
1.1289e-05
-0.000170567
9.56295e-06
-0.000174572
8.0066e-06
-0.000177738
6.33092e-06
-0.000180043
4.61045e-06
-0.00018144
2.79948e-06
-0.000182018
1.15315e-06
-0.00018163
-7.83763e-07
-0.000180471
-2.29946e-06
-0.000178457
-4.02087e-06
-0.000175679
-5.55886e-06
-0.00017214
-7.08594e-06
-0.000167879
-8.52409e-06
-0.000162907
-9.93969e-06
-0.000157222
-1.13716e-05
-0.000150805
-1.28377e-05
-0.000143698
-1.42182e-05
-0.000135793
-1.58072e-05
-0.000127071
-1.74428e-05
-0.00011764
-1.88679e-05
-0.00010728
-2.07233e-05
-9.60854e-05
-2.23922e-05
-8.39908e-05
-2.41794e-05
-7.10583e-05
-2.5853e-05
-5.72764e-05
-2.75622e-05
-4.26839e-05
-2.91791e-05
-2.73416e-05
-3.06737e-05
-1.14364e-05
-3.18086e-05
5.09031e-06
-3.30388e-05
2.20906e-05
-3.39891e-05
3.94202e-05
-3.46547e-05
5.6938e-05
-3.50315e-05
7.44841e-05
-3.50822e-05
9.18933e-05
-3.48065e-05
0.000108957
-3.41159e-05
0.000125444
-3.29692e-05
0.000141188
-3.14859e-05
0.000155925
-2.94646e-05
0.000169447
-2.704e-05
0.000181531
-2.41623e-05
0.000191904
-2.07425e-05
0.00020042
-1.70318e-05
0.000206878
-1.2921e-05
0.000211129
-8.51582e-06
0.00021303
-3.79699e-06
0.000212578
8.70281e-07
0.000209675
5.80221e-06
0.00020436
1.06244e-05
0.000196774
1.51778e-05
0.000186972
1.95687e-05
0.000175213
2.35044e-05
0.000161641
2.71242e-05
0.000146517
3.02316e-05
0.000129997
3.30229e-05
0.000112463
3.505e-05
9.40731e-05
3.67636e-05
7.51643e-05
3.78e-05
5.59634e-05
3.83905e-05
3.67542e-05
3.84072e-05
1.77784e-05
3.79835e-05
-8.32614e-07
3.71835e-05
-1.88121e-05
3.5942e-05
-3.60203e-05
3.44042e-05
-5.23326e-05
3.26244e-05
-6.76587e-05
3.06479e-05
-8.18981e-05
2.84788e-05
-9.50329e-05
2.62558e-05
-0.000107015
2.39802e-05
-0.00011786
2.16923e-05
-0.000127584
1.94531e-05
-0.000136217
1.72699e-05
-0.000143809
1.51876e-05
-0.000150439
1.3265e-05
-0.000156134
1.13947e-05
-0.000160978
9.70201e-06
-0.000165026
8.11256e-06
-0.000168323
6.58781e-06
-0.000170914
5.18965e-06
-0.000172858
3.89289e-06
-0.000174155
2.6029e-06
-0.000174893
1.4712e-06
-0.000175038
2.95856e-07
-0.000174641
-7.80656e-07
-0.000173677
-1.92276e-06
-0.000172199
-2.95593e-06
-0.00017015
-4.09851e-06
-0.00016753
-5.23496e-06
-0.000164274
-6.50725e-06
-0.000160394
-7.74939e-06
-0.000155888
-9.02734e-06
-0.000150718
-1.03282e-05
-0.000144868
-1.16913e-05
-0.000138261
-1.32093e-05
-0.000131029
-1.44782e-05
-0.000122993
-1.60577e-05
-0.000114276
-1.74323e-05
-0.000104687
-1.91768e-05
-9.42668e-05
-2.08305e-05
-8.30264e-05
-2.24775e-05
-7.09581e-05
-2.41279e-05
-5.80418e-05
-2.58266e-05
-4.42827e-05
-2.7521e-05
-2.97169e-05
-2.91261e-05
-1.44818e-05
-3.04703e-05
1.48692e-06
-3.19331e-05
1.80192e-05
-3.3055e-05
3.50152e-05
-3.3986e-05
5.23147e-05
-3.45877e-05
6.97352e-05
-3.48298e-05
8.71441e-05
-3.48063e-05
0.000104276
-3.42565e-05
0.000120926
-3.33016e-05
0.000136788
-3.17209e-05
0.000151533
-2.94853e-05
0.000164873
-2.66705e-05
0.000176479
-2.32068e-05
0.000186176
-1.93972e-05
0.000193759
-1.51767e-05
0.000199067
-1.06288e-05
0.000202017
-5.87979e-06
0.000202566
-1.10452e-06
0.000200712
3.68493e-06
0.000196399
8.62141e-06
0.00018978
1.32249e-05
0.000180951
1.7641e-05
0.000169991
2.19051e-05
0.000157207
2.55293e-05
0.000142796
2.88186e-05
0.000127028
3.15331e-05
0.000110108
3.38244e-05
9.24647e-05
3.52663e-05
7.43308e-05
3.62512e-05
5.60584e-05
3.65071e-05
3.78767e-05
3.63839e-05
2.00631e-05
3.56205e-05
2.75388e-06
3.4602e-05
-1.38723e-05
3.32526e-05
-2.97367e-05
3.17196e-05
-4.47245e-05
2.99783e-05
-5.88074e-05
2.81542e-05
-7.20169e-05
2.64365e-05
-8.42346e-05
2.44338e-05
-9.55113e-05
2.25502e-05
-0.000105817
2.06082e-05
-0.000115192
1.87577e-05
-0.000123635
1.68931e-05
-0.000131178
1.50906e-05
-0.000137861
1.33732e-05
-0.000143739
1.17624e-05
-0.000148856
1.02388e-05
-0.000153268
8.82989e-06
-0.00015699
7.44993e-06
-0.000160095
6.19881e-06
-0.000162643
5.11861e-06
-0.000164603
3.92498e-06
-0.000165986
2.77342e-06
-0.000166798
1.62837e-06
-0.000167154
7.07076e-07
-0.000166916
-4.71584e-07
-0.000166108
-1.60968e-06
-0.000164693
-2.80118e-06
-0.000162817
-3.77505e-06
-0.000160352
-4.92476e-06
-0.000157383
-5.93081e-06
-0.000153854
-7.0529e-06
-0.000149771
-8.16693e-06
-0.000145093
-9.35104e-06
-0.000139784
-1.06129e-05
-0.000133798
-1.19787e-05
-0.000127083
-1.34277e-05
-0.000119581
-1.49965e-05
-0.000111198
-1.67642e-05
-0.000101912
-1.8569e-05
-9.17368e-05
-2.03522e-05
-8.0567e-05
-2.23309e-05
-6.85124e-05
-2.4104e-05
-5.56982e-05
-2.56336e-05
-4.20758e-05
-2.72376e-05
-2.77744e-05
-2.86046e-05
-1.28266e-05
-2.98921e-05
2.62463e-06
-3.08988e-05
1.84955e-05
-3.1736e-05
3.47239e-05
-3.24476e-05
5.11363e-05
-3.28245e-05
6.76237e-05
-3.29701e-05
8.39651e-05
-3.26738e-05
0.000100004
-3.20604e-05
0.000115429
-3.0848e-05
0.000130113
-2.93529e-05
0.00014379
-2.73488e-05
0.000156196
-2.47721e-05
0.000167095
-2.18028e-05
0.000176308
-1.84252e-05
0.0001838
-1.49796e-05
0.000189171
-1.07444e-05
0.000192573
-6.7961e-06
0.000193841
-2.53123e-06
0.000193284
1.10925e-06
0.000190704
5.15395e-06
0.000186289
8.83213e-06
0.000180062
1.24584e-05
0.000172112
1.58995e-05
0.000162363
1.94923e-05
0.00015092
2.2889e-05
0.000137866
2.61037e-05
0.000123338
2.90465e-05
0.000107545
3.15769e-05
9.08296e-05
3.34172e-05
7.33143e-05
3.50172e-05
5.54738e-05
3.56684e-05
3.751e-05
3.59159e-05
1.98733e-05
3.52632e-05
2.71773e-06
3.43014e-05
-1.3643e-05
3.27178e-05
-2.91502e-05
3.10124e-05
-4.37319e-05
2.91616e-05
-5.73849e-05
2.73046e-05
-7.00527e-05
2.53352e-05
-8.17351e-05
2.33647e-05
-9.24529e-05
2.14359e-05
-0.000102199
1.9494e-05
-0.000111027
1.76563e-05
-0.000118942
1.58305e-05
-0.000125973
1.40639e-05
-0.000132162
1.23826e-05
-0.000137525
1.07329e-05
-0.000142092
9.1387e-06
-0.000145896
7.60491e-06
-0.000148944
6.08705e-06
-0.000151243
4.59739e-06
-0.000152764
3.04035e-06
-0.000153532
1.53175e-06
-0.000153567
6.17762e-08
-0.000153039
-1.06768e-06
-0.000151854
-2.37437e-06
-0.000149983
-3.74838e-06
-0.000147356
-5.25488e-06
-0.000143982
-6.74405e-06
-0.000139842
-8.28338e-06
-0.000134826
-1.00321e-05
-0.00012886
-1.19367e-05
-0.000122091
-1.35389e-05
-0.000114247
-1.56854e-05
-0.000105502
-1.74949e-05
-9.56677e-05
-1.96625e-05
-8.48013e-05
-2.17262e-05
-7.30271e-05
-2.35484e-05
-6.0151e-05
-2.57489e-05
-4.62887e-05
-2.77153e-05
-3.16158e-05
-2.93568e-05
-1.57477e-05
-3.1729e-05
9.96706e-07
-3.34876e-05
1.82678e-05
-3.45374e-05
3.62316e-05
-3.59213e-05
5.46032e-05
-3.67342e-05
7.34089e-05
-3.7598e-05
9.23669e-05
-3.79046e-05
0.000111094
-3.74444e-05
0.000129552
-3.6903e-05
0.000147433
-3.57464e-05
0.000164405
-3.39375e-05
0.000180346
-3.18685e-05
0.000194902
-2.91003e-05
0.000207896
-2.59816e-05
0.000219095
-2.23888e-05
0.000228236
-1.82728e-05
0.000235218
-1.39607e-05
0.000239895
-9.35305e-06
0.000242059
-4.32757e-06
0.000241693
7.21856e-07
0.00023878
5.81919e-06
0.000233514
1.05358e-05
0.000225966
1.50904e-05
0.000216148
1.96269e-05
0.000204515
2.32576e-05
0.000191096
2.68275e-05
3.00339e-05
-0.000128272
2.94024e-05
-0.000137069
2.63917e-05
-0.000144991
2.37642e-05
-0.000152056
2.11897e-05
-0.000158282
1.86783e-05
-0.000163717
1.63036e-05
-0.000168374
1.39747e-05
-0.000172289
1.17506e-05
-0.000175484
9.58557e-06
-0.000177977
7.4745e-06
-0.000179774
5.38377e-06
-0.000180886
3.34662e-06
-0.000181309
1.2984e-06
-0.000181017
-8.6102e-07
-0.000179993
-3.07095e-06
-0.000178259
-5.21113e-06
-0.000175888
-7.12293e-06
-0.000172721
-9.53475e-06
-0.000168774
-1.18216e-05
-0.000164075
-1.40886e-05
-0.000158469
-1.6823e-05
-0.000152008
-1.93908e-05
-0.000144748
-2.17802e-05
-0.000136492
-2.47679e-05
-0.000127348
-2.743e-05
-0.000117151
-3.06083e-05
-0.00010594
-3.36302e-05
-9.38427e-05
-3.63086e-05
-8.06434e-05
-3.96012e-05
-6.64013e-05
-4.27151e-05
-5.13083e-05
-4.52563e-05
-3.5263e-05
-4.81191e-05
-1.84538e-05
-5.04075e-05
-8.16342e-07
-5.28855e-05
1.74893e-05
-5.48843e-05
3.61353e-05
-5.59048e-05
5.51015e-05
-5.68527e-05
7.4217e-05
-5.72906e-05
9.30566e-05
-5.64854e-05
0.000111587
-5.55387e-05
0.000129496
-5.36862e-05
0.000146547
-5.10939e-05
0.00016248
-4.77389e-05
0.000176931
-4.33041e-05
0.000189764
-3.84558e-05
0.000200758
-3.29464e-05
0.000209605
-2.65184e-05
0.000216264
-1.99504e-05
0.0002206
-1.29807e-05
0.000222458
-5.56014e-06
0.000221872
1.71613e-06
0.000218853
9.04268e-06
0.000213393
1.63968e-05
0.000205733
2.29683e-05
0.000195926
2.93799e-05
0.000184186
3.51819e-05
0.000170798
4.0116e-05
0.000155778
4.49927e-05
0.000139574
4.85724e-05
0.000122329
5.16828e-05
0.000104331
5.39464e-05
8.57709e-05
5.56218e-05
6.70813e-05
5.60855e-05
4.83137e-05
5.61925e-05
2.9625e-05
5.60115e-05
1.13652e-05
5.47375e-05
-6.3411e-06
5.3077e-05
-2.34311e-05
5.1234e-05
-3.97589e-05
4.89876e-05
-5.53461e-05
4.67564e-05
-6.998e-05
4.38745e-05
-8.36861e-05
4.1127e-05
-9.6537e-05
3.85504e-05
-0.000108384
3.55495e-05
-0.000119257
3.26175e-05
-0.000129243
2.9954e-05
-0.00013825
2.70283e-05
-0.000146454
2.46094e-05
-0.000153759
2.19193e-05
-0.000160212
1.93685e-05
-0.000165848
1.69254e-05
-0.000170638
1.43527e-05
-0.000174645
1.20139e-05
-0.000177815
9.50065e-06
-0.000180128
6.92388e-06
-0.00018153
4.20071e-06
-0.000182105
1.72795e-06
-0.000181736
-1.15253e-06
-0.000180567
-3.46867e-06
-0.000178558
-6.02944e-06
-0.00017578
-8.33709e-06
-0.00017224
-1.06259e-05
-0.000167984
-1.27799e-05
-0.00016302
-1.49041e-05
-0.000157342
-1.70493e-05
-0.000150944
-1.92359e-05
-0.00014384
-2.13221e-05
-0.000135944
-2.37031e-05
-0.000127262
-2.61251e-05
-0.000117813
-2.83171e-05
-0.000107464
-3.10719e-05
-9.6272e-05
-3.35842e-05
-8.4168e-05
-3.62834e-05
-7.12443e-05
-3.87767e-05
-5.74644e-05
-4.13421e-05
-4.28639e-05
-4.37796e-05
-2.75586e-05
-4.59791e-05
-1.15801e-05
-4.77871e-05
4.96065e-06
-4.95796e-05
2.19713e-05
-5.09998e-05
3.93113e-05
-5.19947e-05
5.6843e-05
-5.25632e-05
7.44103e-05
-5.26496e-05
9.18365e-05
-5.22327e-05
0.000108917
-5.11959e-05
0.000125419
-4.94719e-05
0.000141177
-4.72441e-05
0.000155934
-4.42212e-05
0.000169477
-4.05837e-05
0.000181582
-3.62666e-05
0.000191969
-3.113e-05
0.000200494
-2.55562e-05
0.000206962
-1.93899e-05
0.000211217
-1.27699e-05
0.000213139
-5.71909e-06
0.000212661
1.34799e-06
0.000209744
8.71885e-06
0.000204431
1.59375e-05
0.000196843
2.27656e-05
0.00018702
2.93922e-05
0.000175229
3.52952e-05
0.000161636
4.07169e-05
0.0001465
4.53672e-05
0.000129951
4.9572e-05
0.000112389
5.26124e-05
9.39865e-05
5.5166e-05
7.50553e-05
5.67311e-05
5.58392e-05
5.76066e-05
3.66021e-05
5.76443e-05
1.7587e-05
5.69986e-05
-1.02617e-06
5.57967e-05
-1.90104e-05
5.39262e-05
-3.62298e-05
5.16235e-05
-5.25478e-05
4.89424e-05
-6.7885e-05
4.59852e-05
-8.21281e-05
4.27218e-05
-9.52724e-05
3.94002e-05
-0.000107249
3.59569e-05
-0.000118093
3.2536e-05
-0.000127817
2.91772e-05
-0.000136449
2.59023e-05
-0.000144033
2.2771e-05
-0.000150652
1.98837e-05
-0.000156349
1.70924e-05
-0.000161183
1.45356e-05
-0.000165203
1.21332e-05
-0.000168516
9.90055e-06
-0.000171104
7.77735e-06
-0.000173041
5.8304e-06
-0.000174314
3.87546e-06
-0.000175076
2.23326e-06
-0.000175212
4.31303e-07
-0.000174812
-1.18057e-06
-0.000173861
-2.87387e-06
-0.000172371
-4.44543e-06
-0.000170313
-6.15687e-06
-0.000167701
-7.84646e-06
-0.000164453
-9.75558e-06
-0.000160549
-1.16532e-05
-0.000156088
-1.34881e-05
-0.000150908
-1.55085e-05
-0.000145058
-1.75409e-05
-0.000138502
-1.97656e-05
-0.000131241
-2.17387e-05
-0.000123236
-2.40632e-05
-0.000114461
-2.62076e-05
-0.000104874
-2.87634e-05
-9.44632e-05
-3.12417e-05
-8.32206e-05
-3.37201e-05
-7.11395e-05
-3.62091e-05
-5.82388e-05
-3.87273e-05
-4.44786e-05
-4.12812e-05
-2.9898e-05
-4.37068e-05
-1.46511e-05
-4.57172e-05
1.32275e-06
-4.7907e-05
1.78719e-05
-4.96042e-05
3.48836e-05
-5.09977e-05
5.22013e-05
-5.19055e-05
6.9646e-05
-5.22746e-05
8.70643e-05
-5.22246e-05
0.000104221
-5.14129e-05
0.00012089
-4.99713e-05
0.00013678
-4.7611e-05
0.00015155
-4.42545e-05
0.000164912
-4.00335e-05
0.000176542
-3.48366e-05
0.000186247
-2.91017e-05
0.000193832
-2.27618e-05
0.000199139
-1.59363e-05
0.000202098
-8.83856e-06
0.000202645
-1.65192e-06
0.000200778
5.55166e-06
0.000196465
1.29353e-05
0.000189835
1.98547e-05
0.000180973
2.65024e-05
0.000170024
3.28541e-05
0.000157203
3.83505e-05
0.000142759
4.3263e-05
0.000126937
4.7355e-05
0.000110023
5.07382e-05
9.23624e-05
5.29266e-05
7.42043e-05
5.44093e-05
5.58978e-05
5.48135e-05
3.77066e-05
5.4575e-05
1.98937e-05
5.34333e-05
2.5559e-06
5.19398e-05
-1.40751e-05
4.98836e-05
-2.99424e-05
4.75868e-05
-4.49355e-05
4.49714e-05
-5.90474e-05
4.22662e-05
-7.22291e-05
3.96181e-05
-8.44527e-05
3.66574e-05
-9.57321e-05
3.38296e-05
-0.000106042
3.09177e-05
-0.000115416
2.81324e-05
-0.000123851
2.53279e-05
-0.000131382
2.26214e-05
-0.000138056
2.00478e-05
-0.000143929
1.76348e-05
-0.000149048
1.53576e-05
-0.000153449
1.32312e-05
-0.00015716
1.11613e-05
-0.000160295
9.33366e-06
-0.000162821
7.64449e-06
-0.00016478
5.88357e-06
-0.000166168
4.16136e-06
-0.000166971
2.43185e-06
-0.00016733
1.06593e-06
-0.000167096
-7.05172e-07
-0.000166283
-2.42304e-06
-0.000164876
-4.20796e-06
-0.000163004
-5.64782e-06
-0.000160529
-7.39927e-06
-0.000157563
-8.89725e-06
-0.000154021
-1.05942e-05
-0.000149944
-1.22445e-05
-0.000145274
-1.40206e-05
-0.000139962
-1.59253e-05
-0.000133983
-1.79572e-05
-0.000127262
-2.01489e-05
-0.000119772
-2.24872e-05
-0.000111402
-2.51341e-05
-0.000102078
-2.78922e-05
-9.19314e-05
-3.04993e-05
-8.0759e-05
-3.35033e-05
-6.8702e-05
-3.6161e-05
-5.58666e-05
-3.8469e-05
-4.2241e-05
-4.08633e-05
-2.79375e-05
-4.29081e-05
-1.2982e-05
-4.48477e-05
2.47269e-06
-4.63535e-05
1.83752e-05
-4.76386e-05
3.46273e-05
-4.86998e-05
5.1047e-05
-4.92442e-05
6.75582e-05
-4.94813e-05
8.39283e-05
-4.90439e-05
9.99985e-05
-4.81307e-05
0.00011543
-4.62795e-05
0.000130142
-4.40651e-05
0.00014384
-4.10463e-05
0.000156301
-3.72335e-05
0.00016718
-3.26822e-05
0.000176401
-2.76457e-05
0.0001839
-2.24785e-05
0.00018928
-1.61242e-05
0.000192672
-1.01889e-05
0.000193951
-3.80977e-06
0.000193398
1.66213e-06
0.000190809
7.74298e-06
0.000186397
1.3244e-05
0.000180187
1.86682e-05
0.000172222
2.38643e-05
0.00016246
2.92546e-05
0.000151028
3.43209e-05
0.00013797
3.91617e-05
0.000123423
4.35937e-05
0.000107611
4.73887e-05
9.08725e-05
5.01555e-05
7.33336e-05
5.25561e-05
5.54712e-05
5.35308e-05
3.74894e-05
5.38977e-05
1.98349e-05
5.29177e-05
2.66378e-06
5.14725e-05
-1.37032e-05
4.90847e-05
-2.92143e-05
4.65235e-05
-4.37985e-05
4.37458e-05
-5.74528e-05
4.09589e-05
-7.012e-05
3.80024e-05
-8.18027e-05
3.50474e-05
-9.25187e-05
3.21519e-05
-0.000102262
2.92378e-05
-0.000111087
2.64811e-05
-0.000118998
2.37416e-05
-0.000126024
2.10892e-05
-0.000132207
1.85665e-05
-0.000137569
1.60943e-05
-0.00014213
1.37003e-05
-0.000145927
1.14015e-05
-0.000148963
9.12263e-06
-0.000151255
6.8898e-06
-0.000152783
4.56833e-06
-0.000153563
2.31202e-06
-0.000153614
1.12274e-07
-0.000153102
-1.57972e-06
-0.000151922
-3.55408e-06
-0.000150057
-5.61377e-06
-0.000147436
-7.87531e-06
-0.000144059
-1.01213e-05
-0.000139919
-1.24236e-05
-0.000134903
-1.50476e-05
-0.000128949
-1.78913e-05
-0.000122179
-2.03085e-05
-0.000114339
-2.35256e-05
-0.000105593
-2.62403e-05
-9.57521e-05
-2.95038e-05
-8.48814e-05
-3.2597e-05
-7.31077e-05
-3.53221e-05
-6.02275e-05
-3.86291e-05
-4.63537e-05
-4.15891e-05
-3.16576e-05
-4.40529e-05
-1.58204e-05
-4.75663e-05
9.37461e-07
-5.02454e-05
1.82189e-05
-5.18189e-05
3.61995e-05
-5.3902e-05
5.45843e-05
-5.5119e-05
7.34031e-05
-5.64168e-05
9.23788e-05
-5.68803e-05
0.000111126
-5.61914e-05
0.000129606
-5.53833e-05
0.000147517
-5.36572e-05
0.000164501
-5.09217e-05
0.000180458
-4.7826e-05
0.000195033
-4.36751e-05
0.000208042
-3.89901e-05
0.000219246
-3.35936e-05
0.000228395
-2.74213e-05
0.000235381
-2.09472e-05
0.000240058
-1.40294e-05
0.000242228
-6.49834e-06
0.000241858
1.09255e-06
0.000238944
8.73287e-06
0.000233688
1.57915e-05
0.000226132
2.26464e-05
0.0002163
2.94591e-05
0.00020465
3.49077e-05
0.000191213
4.02645e-05
4.50758e-05
-0.000128386
3.92076e-05
-0.000137185
3.5191e-05
-0.000145109
3.16879e-05
-0.000152174
2.82548e-05
-0.000158401
2.49053e-05
-0.000163838
2.17407e-05
-0.000168494
1.86306e-05
-0.000172411
1.56672e-05
-0.000175607
1.27817e-05
-0.000178101
9.96906e-06
-0.000179899
7.18153e-06
-0.000181
4.44729e-06
-0.0001814
1.6987e-06
-0.000181092
-1.16932e-06
-0.00018007
-4.09231e-06
-0.000178343
-6.93854e-06
-0.000175978
-9.48775e-06
-0.000172828
-1.2685e-05
-0.000168871
-1.57785e-05
-0.000164166
-1.87935e-05
-0.000158562
-2.24275e-05
-0.000152106
-2.58465e-05
-0.000144847
-2.90391e-05
-0.000136593
-3.3022e-05
-0.00012745
-3.65731e-05
-0.000117257
-4.08014e-05
-0.000106052
-4.48352e-05
-9.39638e-05
-4.83967e-05
-8.07675e-05
-5.27975e-05
-6.65199e-05
-5.69628e-05
-5.14133e-05
-6.0363e-05
-3.53567e-05
-6.41756e-05
-1.85352e-05
-6.72291e-05
-8.79967e-07
-7.05407e-05
1.74442e-05
-7.32085e-05
3.61075e-05
-7.45682e-05
5.50966e-05
-7.58417e-05
7.42355e-05
-7.64297e-05
9.31048e-05
-7.53547e-05
0.000111664
-7.40978e-05
0.000129598
-7.16204e-05
0.000146681
-6.81768e-05
0.000162646
-6.37039e-05
0.000177128
-5.77863e-05
0.000189988
-5.13155e-05
0.000201003
-4.3962e-05
0.000209864
-3.53796e-05
0.000216534
-2.66204e-05
0.000220881
-1.73275e-05
0.000222736
-7.41515e-06
0.000222133
2.31888e-06
0.000219098
1.20776e-05
0.000213658
2.18368e-05
0.000205996
3.06306e-05
0.000196161
3.92148e-05
0.0001844
4.69432e-05
0.00017098
5.35359e-05
0.000155921
6.00518e-05
0.000139692
6.48009e-05
0.00012242
6.89548e-05
0.000104393
7.19731e-05
8.58041e-05
7.42109e-05
6.70811e-05
7.48085e-05
4.82569e-05
7.50167e-05
2.95721e-05
7.46963e-05
1.12938e-05
7.30158e-05
-6.43294e-06
7.08037e-05
-2.35386e-05
6.83396e-05
-3.98619e-05
6.53109e-05
-5.54479e-05
6.23424e-05
-7.01002e-05
5.85268e-05
-8.3799e-05
5.48258e-05
-9.66538e-05
5.14051e-05
-0.000108495
4.73911e-05
-0.000119369
4.34906e-05
-0.000129355
3.99402e-05
-0.000138359
3.60324e-05
-0.000146568
3.28188e-05
-0.000153869
2.92198e-05
-0.000160316
2.58154e-05
-0.00016594
2.25499e-05
-0.000170747
1.91595e-05
-0.000174763
1.60298e-05
-0.000177944
1.26817e-05
-0.000180266
9.24557e-06
-0.000181677
5.61237e-06
-0.000182255
2.30583e-06
-0.000181906
-1.50198e-06
-0.000180728
-4.64697e-06
-0.000178717
-8.04e-06
-0.000175942
-1.11123e-05
-0.000172407
-1.41606e-05
-0.000168162
-1.70251e-05
-0.000163209
-1.98574e-05
-0.000157537
-2.27214e-05
-0.000151168
-2.5604e-05
-0.000144076
-2.84145e-05
-0.000136189
-3.15898e-05
-0.000127553
-3.47619e-05
-0.00011808
-3.77898e-05
-0.000107747
-4.1405e-05
-9.65671e-05
-4.4764e-05