/*--------------------------------*- C++ -*----------------------------------*\
| =========                 |                                                 |
| \\      /  F ield         | OpenFOAM: The Open Source CFD Toolbox           |
|  \\    /   O peration     | Version:  3.0.1                                 |
|   \\  /    A nd           | Web:      www.OpenFOAM.org                      |
|    \\/     M anipulation  |                                                 |
\*---------------------------------------------------------------------------*/
FoamFile
{
    version     2.0;
    format      ascii;
    class       surfaceScalarField;
    location    "86.2";
    object      phi;
}
// * * * * * * * * * * * * * * * * * * * * * * * * * * * * * * * * * * * * * //

dimensions      [0 3 -1 0 0 0 0];

internalField   nonuniform List<scalar> 
42423
(
-4.61216e-05
1.67799e-05
-6.19553e-05
1.58337e-05
-7.69417e-05
1.49864e-05
-9.09979e-05
1.40562e-05
-0.000104029
1.30308e-05
-0.00011609
1.20615e-05
-0.000127135
1.10446e-05
-0.000137219
1.00846e-05
-0.00014634
9.12032e-06
-0.000154507
8.16735e-06
-0.000161778
7.27132e-06
-0.000168165
6.38649e-06
-0.000173694
5.52942e-06
-0.00017841
4.71598e-06
-0.000182341
3.93108e-06
-0.000185508
3.16627e-06
-0.000187919
2.4112e-06
-0.000189595
1.67645e-06
-0.000190594
9.98799e-07
-0.000190862
2.67825e-07
-0.000190371
-4.90539e-07
-0.000189144
-1.2277e-06
-0.000187264
-1.87981e-06
-0.000184527
-2.7372e-06
-0.000181051
-3.47596e-06
-0.00017671
-4.34078e-06
-0.000171568
-5.14174e-06
-0.000165629
-5.9392e-06
-0.000158728
-6.90071e-06
-0.000150942
-7.78625e-06
-0.00014228
-8.66262e-06
-0.000132475
-9.80489e-06
-0.000121822
-1.06526e-05
-0.000110045
-1.17776e-05
-9.72427e-05
-1.28019e-05
-8.34973e-05
-1.37454e-05
-6.87447e-05
-1.47527e-05
-5.29847e-05
-1.576e-05
-3.65327e-05
-1.6452e-05
-1.91281e-05
-1.74046e-05
-1.10511e-06
-1.80231e-05
1.75548e-05
-1.86599e-05
3.66368e-05
-1.90821e-05
5.5802e-05
-1.91652e-05
7.49865e-05
-1.91845e-05
9.39764e-05
-1.899e-05
0.000112397
-1.84205e-05
0.000130144
-1.77471e-05
0.000146956
-1.68122e-05
0.00016242
-1.54635e-05
0.00017648
-1.40602e-05
0.0001888
-1.23202e-05
0.000199278
-1.04783e-05
0.000207782
-8.50349e-06
0.000213973
-6.1912e-06
0.000217933
-3.96017e-06
0.000219506
-1.57285e-06
0.000218557
9.48329e-07
0.000215187
3.37046e-06
0.000209408
5.77881e-06
0.000201452
7.95571e-06
0.000191431
1.00214e-05
0.000179446
1.19851e-05
0.000165762
1.36838e-05
0.000150504
1.52579e-05
0.000133966
1.65383e-05
0.000116393
1.75727e-05
9.79739e-05
1.84189e-05
7.90849e-05
1.8889e-05
5.99082e-05
1.91767e-05
4.06446e-05
1.92636e-05
2.1587e-05
1.90576e-05
2.80052e-06
1.87864e-05
-1.5513e-05
1.83135e-05
-3.3159e-05
1.7646e-05
-5.00538e-05
1.68948e-05
-6.60468e-05
1.5993e-05
-8.11385e-05
1.50917e-05
-9.5177e-05
1.40384e-05
-0.000108124
1.29467e-05
-0.000119993
1.18695e-05
-0.000130661
1.06678e-05
-0.000140117
9.45585e-06
-0.000148392
8.27495e-06
-0.000155406
7.01413e-06
-0.000161312
5.90599e-06
-0.000166136
4.82416e-06
-0.000169975
3.83888e-06
-0.000172967
2.99157e-06
-0.000175106
2.13923e-06
-0.000176518
1.41213e-06
-0.000177227
7.08657e-07
-0.000177266
3.97521e-08
-0.000176613
-6.53392e-07
-0.000175296
-1.31693e-06
-0.000173306
-1.98987e-06
-0.000170746
-2.56064e-06
-0.000167504
-3.24105e-06
-0.000163639
-3.86503e-06
-0.000159081
-4.55835e-06
-0.000153871
-5.20999e-06
-0.000147964
-5.90718e-06
-0.000141351
-6.61291e-06
-0.000134002
-7.34919e-06
-0.000125897
-8.10479e-06
-0.000117011
-8.88573e-06
-0.000107313
-9.69824e-06
-9.67876e-05
-1.05256e-05
-8.54252e-05
-1.13625e-05
-7.31936e-05
-1.22316e-05
-6.027e-05
-1.29237e-05
-4.64768e-05
-1.37932e-05
-3.18704e-05
-1.46064e-05
-1.66555e-05
-1.5215e-05
-7.45379e-07
-1.59102e-05
1.5759e-05
-1.65044e-05
3.27393e-05
-1.69804e-05
5.00754e-05
-1.73361e-05
6.76308e-05
-1.75554e-05
8.52302e-05
-1.75994e-05
0.00010271
-1.748e-05
0.000119816
-1.71055e-05
0.000136343
-1.65278e-05
0.000152049
-1.57063e-05
0.000166682
-1.4633e-05
0.000179922
-1.32395e-05
0.000191606
-1.16844e-05
0.000201378
-9.77148e-06
0.000209133
-7.75571e-06
0.000214601
-5.46732e-06
0.000217682
-3.08144e-06
0.000218277
-5.95374e-07
0.000216412
1.86504e-06
0.000211954
4.45817e-06
0.000205079
6.87473e-06
0.000195822
9.25682e-06
0.000184434
1.13887e-05
0.000171083
1.33503e-05
0.000156035
1.50484e-05
0.000139522
1.65126e-05
0.000121872
1.76497e-05
0.000103353
1.85187e-05
8.41984e-05
1.91551e-05
6.47931e-05
1.94052e-05
4.53589e-05
1.94342e-05
2.60928e-05
1.9266e-05
7.29983e-06
1.87929e-05
-1.08853e-05
1.81851e-05
-2.82571e-05
1.73719e-05
-4.47217e-05
1.64646e-05
-6.01517e-05
1.543e-05
-7.44987e-05
1.4347e-05
-8.78063e-05
1.33076e-05
-9.99812e-05
1.21748e-05
-0.000111069
1.10879e-05
-0.000121068
9.99892e-06
-0.000130062
8.99381e-06
-0.000138073
8.01132e-06
-0.000145176
7.10261e-06
-0.000151436
6.26012e-06
-0.000156873
5.43674e-06
-0.000161526
4.65328e-06
-0.00016543
3.9036e-06
-0.000168652
3.22206e-06
-0.000171187
2.53587e-06
-0.00017305
1.86282e-06
-0.00017429
1.23952e-06
-0.000174914
6.24409e-07
-0.000174905
-9.09233e-09
-0.000174306
-5.98949e-07
-0.000173068
-1.2382e-06
-0.000171218
-1.85016e-06
-0.000168709
-2.50865e-06
-0.000165577
-3.13268e-06
-0.000161791
-3.78529e-06
-0.000157313
-4.47851e-06
-0.000152121
-5.19144e-06
-0.000146193
-5.92875e-06
-0.000139654
-6.53864e-06
-0.000132311
-7.34272e-06
-0.000124196
-8.11477e-06
-0.000115397
-8.79918e-06
-0.000105767
-9.6308e-06
-9.53149e-05
-1.04517e-05
-8.4049e-05
-1.12659e-05
-7.1976e-05
-1.2073e-05
-5.9102e-05
-1.28741e-05
-4.5444e-05
-1.3658e-05
-3.09607e-05
-1.44833e-05
-1.56733e-05
-1.52875e-05
2.13335e-07
-1.58866e-05
1.67075e-05
-1.64942e-05
3.36684e-05
-1.6961e-05
5.09048e-05
-1.72364e-05
6.8253e-05
-1.73482e-05
8.54882e-05
-1.72352e-05
0.000102385
-1.68964e-05
0.000118663
-1.62788e-05
0.000134092
-1.5429e-05
0.000148386
-1.42939e-05
0.000161318
-1.29323e-05
0.000172684
-1.13653e-05
0.000182243
-9.55973e-06
0.000189781
-7.53735e-06
0.000195147
-5.36632e-06
0.000198142
-2.99555e-06
0.000198708
-5.6524e-07
0.000196771
1.93653e-06
0.000192291
4.47988e-06
0.000185387
6.90366e-06
0.000176254
9.13352e-06
0.000165019
1.12351e-05
0.000151958
1.3061e-05
0.00013725
1.47075e-05
0.000121242
1.60084e-05
0.000104147
1.70951e-05
8.6303e-05
1.78435e-05
6.79252e-05
1.83777e-05
4.93319e-05
1.85933e-05
3.07694e-05
1.85625e-05
1.24331e-05
1.83363e-05
-5.47352e-06
1.79066e-05
-2.27787e-05
1.73052e-05
-3.93319e-05
1.65531e-05
-5.50043e-05
1.56724e-05
-6.97269e-05
1.47226e-05
-8.35396e-05
1.38127e-05
-9.63108e-05
1.27712e-05
-0.000108072
1.17611e-05
-0.000118798
1.07261e-05
-0.000128508
9.71019e-06
-0.000137352
8.84419e-06
-0.000145214
7.86185e-06
-0.000152216
7.00173e-06
-0.000158367
6.15122e-06
-0.000163748
5.38077e-06
-0.000168342
4.59373e-06
-0.00017225
3.90832e-06
-0.000175494
3.24379e-06
-0.000178089
2.59547e-06
-0.000180075
1.98596e-06
-0.000181437
1.36186e-06
-0.000182214
7.76752e-07
-0.000182384
1.69893e-07
-0.000181928
-4.55858e-07
-0.000180818
-1.10973e-06
-0.000179251
-1.56735e-06
-0.000177047
-2.20438e-06
-0.000174307
-2.73943e-06
-0.000171073
-3.23407e-06
-0.000167318
-3.75521e-06
-0.000163071
-4.24731e-06
-0.000158238
-4.83241e-06
-0.00015282
-5.41813e-06
-0.000146682
-6.1381e-06
-0.000139749
-6.93287e-06
-0.000132071
-7.67853e-06
-0.000123561
-8.50913e-06
-0.000114262
-9.29908e-06
-0.000104173
-1.00892e-05
-9.3273e-05
-1.09002e-05
-8.16276e-05
-1.16455e-05
-6.92193e-05
-1.24083e-05
-5.61128e-05
-1.31065e-05
-4.23413e-05
-1.37715e-05
-2.80493e-05
-1.4292e-05
-1.3189e-05
-1.48603e-05
2.05413e-06
-1.52432e-05
1.76889e-05
-1.56348e-05
3.35847e-05
-1.58958e-05
4.94529e-05
-1.58683e-05
6.52938e-05
-1.58409e-05
8.08899e-05
-1.55961e-05
9.61084e-05
-1.52185e-05
0.00011073
-1.46213e-05
0.000124603
-1.38736e-05
0.00013749
-1.28873e-05
0.00014933
-1.184e-05
0.000159712
-1.0382e-05
0.00016878
-9.06723e-06
0.000175924
-7.14458e-06
0.000181161
-5.23684e-06
0.000184322
-3.16102e-06
0.000185129
-8.07017e-07
0.000183426
1.70267e-06
0.000179198
4.22831e-06
0.000172429
6.76861e-06
0.000163319
9.11055e-06
0.000151892
1.14261e-05
0.000138538
1.33539e-05
0.000123569
1.49699e-05
0.000107335
1.62337e-05
9.02185e-05
1.71163e-05
7.25713e-05
1.76472e-05
5.4673e-05
1.78983e-05
3.67957e-05
1.78772e-05
1.93695e-05
1.74262e-05
2.42083e-06
1.69487e-05
-1.39227e-05
1.63435e-05
-2.93999e-05
1.54771e-05
-4.39054e-05
1.45055e-05
-5.74202e-05
1.35148e-05
-6.98894e-05
1.24692e-05
-8.13039e-05
1.14145e-05
-9.17111e-05
1.04072e-05
-0.000101118
9.40706e-06
-0.000109579
8.46039e-06
-0.000117159
7.58073e-06
-0.000123939
6.77945e-06
-0.000130005
6.0664e-06
-0.000135428
5.42246e-06
-0.000140254
4.82664e-06
-0.000144586
4.33166e-06
-0.000148408
3.82258e-06
-0.000151778
3.36929e-06
-0.00015474
2.96215e-06
-0.00015727
2.5305e-06
-0.000159354
2.08374e-06
-0.000160974
1.61993e-06
-0.000162115
1.141e-06
-0.000162698
5.82909e-07
-0.000162663
-3.53512e-08
-0.000161903
-7.59366e-07
-0.000160401
-1.50195e-06
-0.000158047
-2.35438e-06
-0.000154828
-3.21924e-06
-0.00015073
-4.09793e-06
-0.000145576
-5.15377e-06
-0.000139426
-6.15025e-06
-0.000132312
-7.11409e-06
-0.00012404
-8.27146e-06
-0.000114729
-9.31137e-06
-0.000104452
-1.02773e-05
-9.30622e-05
-1.13894e-05
-8.07755e-05
-1.22867e-05
-6.74596e-05
-1.33159e-05
-5.33005e-05
-1.41591e-05
-3.84769e-05
-1.48236e-05
-2.29622e-05
-1.55147e-05
-6.88844e-06
-1.60738e-05
9.42694e-06
-1.63154e-05
2.6104e-05
-1.66771e-05
4.28433e-05
-1.67394e-05
5.95709e-05
-1.67276e-05
7.60382e-05
-1.64673e-05
9.20054e-05
-1.59672e-05
0.000107418
-1.54126e-05
0.000122088
-1.46699e-05
0.000135782
-1.36939e-05
0.000148375
-1.25934e-05
0.000159653
-1.12785e-05
0.000169472
-9.81806e-06
0.000177679
-8.20727e-06
0.000184156
-6.47719e-06
0.000188776
-4.62045e-06
0.000191483
-2.7072e-06
-8.16745e-07
-4.6156e-05
3.35635e-05
-6.19922e-05
3.16699e-05
-7.69813e-05
2.99755e-05
-9.10406e-05
2.81155e-05
-0.000104076
2.60661e-05
-0.000116141
2.41267e-05
-0.000127186
2.20897e-05
-0.00013727
2.01687e-05
-0.000146396
1.82454e-05
-0.000154566
1.6338e-05
-0.000161832
1.45374e-05
-0.000168214
1.27684e-05
-0.000173745
1.10598e-05
-0.000178465
9.4368e-06
-0.000182402
7.8677e-06
-0.000185567
6.33109e-06
-0.000187979
4.82316e-06
-0.000189654
3.35184e-06
-0.000190642
1.98607e-06
-0.00019091
5.36105e-07
-0.00019042
-9.79894e-07
-0.000189194
-2.45433e-06
-0.000187314
-3.75989e-06
-0.000184577
-5.47355e-06
-0.000181094
-6.95925e-06
-0.000176757
-8.67762e-06
-0.000171618
-1.02811e-05
-0.000165683
-1.18741e-05
-0.000158783
-1.38009e-05
-0.000150997
-1.55728e-05
-0.000142329
-1.733e-05
-0.000132532
-1.96018e-05
-0.000121879
-2.13065e-05
-0.000110099
-2.35569e-05
-9.72989e-05
-2.56024e-05
-8.35498e-05
-2.74945e-05
-6.8794e-05
-2.95086e-05
-5.30334e-05
-3.15207e-05
-3.65743e-05
-3.29112e-05
-1.91633e-05
-3.48157e-05
-1.13499e-06
-3.60515e-05
1.75337e-05
-3.73287e-05
3.66259e-05
-3.81744e-05
5.58007e-05
-3.83401e-05
7.49989e-05
-3.83828e-05
9.40039e-05
-3.79951e-05
0.000112434
-3.68508e-05
0.000130193
-3.55061e-05
0.00014702
-3.36398e-05
0.000162491
-3.09342e-05
0.000176564
-2.81338e-05
0.000188899
-2.46546e-05
0.000199382
-2.09619e-05
0.00020789
-1.70111e-05
0.000214087
-1.23881e-05
0.000218052
-7.92564e-06
0.000219633
-3.15347e-06
0.000218677
1.90392e-06
0.000215304
6.74365e-06
0.000209528
1.15547e-05
0.000201566
1.59173e-05
0.000191538
2.00496e-05
0.000179545
2.39776e-05
0.000165851
2.73777e-05
0.000150582
3.05273e-05
0.000134031
3.30891e-05
0.000116441
3.5162e-05
9.80105e-05
3.68498e-05
7.91091e-05
3.77904e-05
5.99221e-05
3.83637e-05
4.06436e-05
3.8542e-05
2.1577e-05
3.81242e-05
2.77434e-06
3.7589e-05
-1.55523e-05
3.66401e-05
-3.32081e-05
3.53018e-05
-5.01101e-05
3.37968e-05
-6.6107e-05
3.19898e-05
-8.12027e-05
3.01874e-05
-9.52459e-05
2.80816e-05
-0.000108194
2.58951e-05
-0.000120064
2.37392e-05
-0.000130731
2.13343e-05
-0.000140186
1.89116e-05
-0.000148456
1.65447e-05
-0.000155464
1.40217e-05
-0.000161367
1.18093e-05
-0.000166181
9.63786e-06
-0.000170004
7.66192e-06
-0.000172986
5.97369e-06
-0.00017512
4.27298e-06
-0.000176533
2.82595e-06
-0.000177228
1.40322e-06
-0.000177273
8.51624e-08
-0.000176623
-1.30412e-06
-0.000175314
-2.6255e-06
-0.000173324
-3.98039e-06
-0.000170759
-5.12503e-06
-0.000167516
-6.48412e-06
-0.000163658
-7.72368e-06
-0.000159115
-9.1008e-06
-0.000153915
-1.04096e-05
-0.000148013
-1.18093e-05
-0.000141406
-1.32202e-05
-0.000134059
-1.4696e-05
-0.000125953
-1.62115e-05
-0.000117071
-1.77678e-05
-0.00010738
-1.9389e-05
-9.68601e-05
-2.10455e-05
-8.55016e-05
-2.2721e-05
-7.32657e-05
-2.44676e-05
-6.03355e-05
-2.5854e-05
-4.654e-05
-2.75888e-05
-3.19282e-05
-2.92182e-05
-1.67136e-05
-3.04297e-05
-8.03518e-07
-3.18204e-05
1.5705e-05
-3.3013e-05
3.26839e-05
-3.39594e-05
5.00285e-05
-3.46808e-05
6.75905e-05
-3.51176e-05
8.51958e-05
-3.52049e-05
0.000102664
-3.49484e-05
0.000119782
-3.42231e-05
0.000136317
-3.30638e-05
0.000152032
-3.1421e-05
0.000166677
-2.92781e-05
0.000179914
-2.64771e-05
0.000191597
-2.33671e-05
0.000201378
-1.95531e-05
0.000209123
-1.55002e-05
0.000214613
-1.09581e-05
0.000217672
-6.14046e-06
0.000218257
-1.18029e-06
0.000216362
3.75997e-06
0.000211896
8.92417e-06
0.000204976
1.37944e-05
0.000195732
1.85009e-05
0.000184362
2.27591e-05
0.000170969
2.67426e-05
0.000155914
3.01032e-05
0.00013943
3.29965e-05
0.000121717
3.53627e-05
0.000103158
3.70783e-05
8.40202e-05
3.82925e-05
6.46194e-05
3.8806e-05
4.51654e-05
3.88881e-05
2.58937e-05
3.85377e-05
7.13835e-06
3.75482e-05
-1.10956e-05
3.6419e-05
-2.84708e-05
3.47471e-05
-4.49295e-05
3.29232e-05
-6.03198e-05
3.08202e-05
-7.47278e-05
2.8755e-05
-8.80009e-05
2.65807e-05
-0.000100169
2.43433e-05
-0.000111254
2.21723e-05
-0.000121259
2.00043e-05
-0.000130244
1.79783e-05
-0.000138213
1.59808e-05
-0.000145355
1.42448e-05
-0.000151601
1.25062e-05
-0.000157031
1.08662e-05
-0.000161677
9.29899e-06
-0.000165576
7.80341e-06
-0.000168793
6.4387e-06
-0.000171321
5.06383e-06
-0.000173189
3.73081e-06
-0.000174427
2.47746e-06
-0.000175039
1.23634e-06
-0.000175037
-1.07796e-08
-0.000174434
-1.20184e-06
-0.000173191
-2.48142e-06
-0.000171324
-3.71763e-06
-0.000168846
-4.98676e-06
-0.000165698
-6.28012e-06
-0.000161905
-7.57809e-06
-0.000157427
-8.95633e-06
-0.00015224
-1.0379e-05
-0.000146305
-1.1864e-05
-0.00013977
-1.30734e-05
-0.000132432
-1.46812e-05
-0.000124336
-1.62106e-05
-0.000115491
-1.76435e-05
-0.000105883
-1.92393e-05
-9.54225e-05
-2.09123e-05
-8.41575e-05
-2.25309e-05
-7.20918e-05
-2.41388e-05
-5.92193e-05
-2.57466e-05
-4.55555e-05
-2.7322e-05
-3.10745e-05
-2.89643e-05
-1.57654e-05
-3.05966e-05
1.08494e-07
-3.17607e-05
1.66127e-05
-3.29985e-05
3.35706e-05
-3.39189e-05
5.08067e-05
-3.44726e-05
6.81579e-05
-3.46995e-05
8.54025e-05
-3.448e-05
0.000102307
-3.38008e-05
0.000118591
-3.25629e-05
0.000134023
-3.08618e-05
0.000148325
-2.8596e-05
0.00016126
-2.5867e-05
0.00017262
-2.2725e-05
0.000182202
-1.91424e-05
0.000189736
-1.50708e-05
0.000195105
-1.07357e-05
0.000198096
-5.98665e-06
0.000198658
-1.1278e-06
0.000196711
3.88365e-06
0.000192217
8.97437e-06
0.000185339
1.37815e-05
0.000176153
1.83194e-05
0.000164922
2.24658e-05
0.000151857
2.6126e-05
0.000137134
2.94303e-05
0.000121106
3.20359e-05
0.000104004
3.41972e-05
8.61502e-05
3.56976e-05
6.77928e-05
3.67351e-05
4.91862e-05
3.71998e-05
3.06079e-05
3.71408e-05
1.2264e-05
3.66802e-05
-5.63821e-06
3.58087e-05
-2.29401e-05
3.4607e-05
-3.9503e-05
3.3116e-05
-5.518e-05
3.13495e-05
-6.99013e-05
2.94438e-05
-8.37191e-05
2.76305e-05
-9.64894e-05
2.55414e-05
-0.000108246
2.35181e-05
-0.000118974
2.14533e-05
-0.000128677
1.9414e-05
-0.000137516
1.76827e-05
-0.000145372
1.5718e-05
-0.000152368
1.39978e-05
-0.000158487
1.22699e-05
-0.000163897
1.07905e-05
-0.000168502
9.19919e-06
-0.000172414
7.82005e-06
-0.000175652
6.48164e-06
-0.000178251
5.19454e-06
-0.000180236
3.97127e-06
-0.000181602
2.72768e-06
-0.000182372
1.54706e-06
-0.000182541
3.38702e-07
-0.000182087
-9.09728e-07
-0.000181004
-2.19312e-06
-0.000179418
-3.15274e-06
-0.000177207
-4.41541e-06
-0.000174421
-5.52619e-06
-0.000171208
-6.44696e-06
-0.000167456
-7.50703e-06
-0.000163193
-8.51002e-06
-0.000158363
-9.66264e-06
-0.00015294
-1.08408e-05
-0.000146798
-1.22807e-05
-0.000139851
-1.38796e-05
-0.000132169
-1.53611e-05
-0.00012366
-1.70177e-05
-0.000114332
-1.86272e-05
-0.000104256
-2.01649e-05
-9.33531e-05
-2.18034e-05
-8.1697e-05
-2.33016e-05
-6.92882e-05
-2.48172e-05
-5.61804e-05
-2.62142e-05
-4.24053e-05
-2.75468e-05
-2.80991e-05
-2.85983e-05
-1.32315e-05
-2.9728e-05
2.02927e-06
-3.0504e-05
1.76715e-05
-3.12771e-05
3.35795e-05
-3.18039e-05
4.94548e-05
-3.17436e-05
6.53141e-05
-3.17003e-05
8.09269e-05
-3.12091e-05
9.61436e-05
-3.04352e-05
0.00011078
-2.9258e-05
0.000124661
-2.77546e-05
0.000137577
-2.58036e-05
0.000149405
-2.36678e-05
0.000159798
-2.07751e-05
0.00016888
-1.8149e-05
0.000176022
-1.42872e-05
0.000181273
-1.04874e-05
0.000184441
-6.32919e-06
0.000185251
-1.61705e-06
0.000183545
3.40899e-06
0.00017932
8.45283e-06
0.00017255
1.35388e-05
0.000163435
1.8225e-05
0.000151996
2.28649e-05
0.000138628
2.67222e-05
0.000123642
2.99558e-05
0.000107393
3.24831e-05
9.02605e-05
3.42482e-05
7.25979e-05
3.53098e-05
5.46826e-05
3.58135e-05
3.67934e-05
3.57664e-05
1.93588e-05
3.48607e-05
2.3975e-06
3.39099e-05
-1.39526e-05
3.26936e-05
-2.9436e-05
3.09605e-05
-4.39477e-05
2.90172e-05
-5.7467e-05
2.70341e-05
-6.99379e-05
2.494e-05
-8.13556e-05
2.28321e-05
-9.17603e-05
2.08119e-05
-0.000101168
1.88151e-05
-0.000109622
1.69145e-05
-0.000117204
1.51622e-05
-0.000123985
1.35602e-05
-0.000130049
1.21303e-05
-0.000135467
1.08412e-05
-0.000140293
9.65244e-06
-0.000144625
8.66357e-06
-0.000148446
7.64347e-06
-0.00015182
6.74375e-06
-0.000154786
5.92807e-06
-0.000157311
5.05544e-06
-0.000159393
4.16574e-06
-0.000161015
3.24172e-06
-0.000162155
2.28087e-06
-0.000162747
1.1748e-06
-0.000162713
-6.96576e-08
-0.000161952
-1.51965e-06
-0.000160452
-3.00209e-06
-0.000158099
-4.70705e-06
-0.000154882
-6.43712e-06
-0.000150785
-8.1945e-06
-0.000145634
-1.03051e-05
-0.000139485
-1.22992e-05
-0.00013237
-1.42292e-05
-0.000124098
-1.6543e-05
-0.000114787
-1.86223e-05
-0.000104507
-2.05574e-05
-9.31107e-05
-2.27859e-05
-8.08226e-05
-2.45748e-05
-6.7504e-05
-2.66345e-05
-5.33384e-05
-2.83247e-05
-3.85095e-05
-2.96526e-05
-2.29868e-05
-3.10374e-05
-6.90809e-06
-3.21526e-05
9.41659e-06
-3.26401e-05
2.60983e-05
-3.33588e-05
4.28448e-05
-3.3486e-05
5.95815e-05
-3.34643e-05
7.6058e-05
-3.29439e-05
9.20329e-05
-3.19421e-05
0.000107454
-3.08338e-05
0.000122132
-2.93479e-05
0.000135831
-2.73936e-05
0.000148424
-2.51858e-05
0.000159704
-2.25588e-05
0.000169531
-1.96446e-05
0.000177738
-1.64146e-05
0.000184219
-1.29583e-05
0.000188847
-9.24842e-06
0.00019156
-5.42012e-06
-1.63196e-06
-4.62246e-05
5.0354e-05
-6.20663e-05
4.75116e-05
-7.70601e-05
4.49693e-05
-9.11224e-05
4.21778e-05
-0.00010416
3.9104e-05
-0.000116228
3.61948e-05
-0.000127276
3.31373e-05
-0.000137362
3.02548e-05
-0.000146484
2.73672e-05
-0.000154652
2.45062e-05
-0.000161919
2.18037e-05
-0.000168302
1.91516e-05
-0.000173833
1.6591e-05
-0.000178551
1.4155e-05
-0.000182489
1.18055e-05
-0.000185652
9.4943e-06
-0.000188064
7.23466e-06
-0.000189752
5.04046e-06
-0.000190726
2.95985e-06
-0.000190975
7.85556e-07
-0.000190479
-1.47666e-06
-0.000189255
-3.67764e-06
-0.000187374
-5.64153e-06
-0.000184639
-8.20801e-06
-0.000181153
-1.04452e-05
-0.000176819
-1.30117e-05
-0.000171683
-1.54174e-05
-0.00016575
-1.78069e-05
-0.000158852
-2.06987e-05
-0.000151068
-2.33569e-05
-0.000142403
-2.59949e-05
-0.000132612
-2.93933e-05
-0.000121956
-3.19623e-05
-0.000110178
-3.53352e-05
-9.73843e-05
-3.8396e-05
-8.36267e-05
-4.12522e-05
-6.88697e-05
-4.42657e-05
-5.3112e-05
-4.72785e-05
-3.66387e-05
-4.93846e-05
-1.9216e-05
-5.22385e-05
-1.17595e-06
-5.40916e-05
1.75085e-05
-5.60132e-05
3.66169e-05
-5.72829e-05
5.58063e-05
-5.75296e-05
7.50217e-05
-5.75983e-05
9.40478e-05
-5.70213e-05
0.000112498
-5.53009e-05
0.000130276
-5.32846e-05
0.000147126
-5.04895e-05
0.000162613
-4.64214e-05
0.000176697
-4.22174e-05
0.000189046
-3.70043e-05
0.000199545
-3.14611e-05
0.000208061
-2.55272e-05
0.00021426
-1.85869e-05
0.000218232
-1.18981e-05
0.00021982
-4.74167e-06
0.000218851
2.87294e-06
0.000215474
1.0121e-05
0.000209703
1.73257e-05
0.000201733
2.38874e-05
0.000191693
3.00893e-05
0.000179689
3.59814e-05
0.000165972
4.10945e-05
0.000150683
4.58165e-05
0.000134113
4.9659e-05
0.000116494
5.27809e-05
9.80488e-05
5.52952e-05
7.91297e-05
5.67094e-05
5.9927e-05
5.75664e-05
4.06256e-05
5.78433e-05
2.15485e-05
5.72014e-05
2.72139e-06
5.6416e-05
-1.5615e-05
5.49765e-05
-3.32827e-05
5.29694e-05
-5.01949e-05
5.0709e-05
-6.62005e-05
4.79953e-05
-8.13029e-05
4.52898e-05
-9.53505e-05
4.21291e-05
-0.000108304
3.88491e-05
-0.000120181
3.56154e-05
-0.000130847
3.20005e-05
-0.000140307
2.83717e-05
-0.000148578
2.48153e-05
-0.000155575
2.10195e-05
-0.000161472
1.77058e-05
-0.000166278
1.44443e-05
-0.000170096
1.14792e-05
-0.000173076
8.95388e-06
-0.000175202
6.39893e-06
-0.000176621
4.24493e-06
-0.000177327
2.10906e-06
-0.000177372
1.30083e-07
-0.000176727
-1.9489e-06
-0.000175425
-3.92707e-06
-0.000173447
-5.95842e-06
-0.000170903
-7.66877e-06
-0.000167666
-9.72136e-06
-0.000163818
-1.15716e-05
-0.000159291
-1.36282e-05
-0.0001541
-1.56009e-05
-0.000148211
-1.76985e-05
-0.000141612
-1.9819e-05
-0.000134273
-2.20343e-05
-0.000126173
-2.43119e-05
-0.000117304
-2.66371e-05
-0.000107617
-2.90757e-05
-9.71005e-05
-3.15623e-05
-8.57522e-05
-3.40693e-05
-7.35493e-05
-3.66706e-05
-6.05649e-05
-3.88384e-05
-4.67764e-05
-4.13774e-05
-3.21945e-05
-4.38002e-05
-1.6946e-05
-4.56783e-05
-1.01645e-06
-4.77501e-05
1.55125e-05
-4.95421e-05
3.24896e-05
-5.09366e-05
4.98479e-05
-5.20393e-05
6.74147e-05
-5.26845e-05
8.5037e-05
-5.28273e-05
0.000102522
-5.2433e-05
0.000119668
-5.13696e-05
0.000136223
-4.96189e-05
0.000151954
-4.71524e-05
0.000166617
-4.3941e-05
0.000179872
-3.97325e-05
0.00019156
-3.50545e-05
0.000201363
-2.93567e-05
0.000209121
-2.32586e-05
0.000214591
-1.64274e-05
0.000217697
-9.2466e-06
0.000218266
-1.74972e-06
0.000216336
5.68999e-06
0.000211853
1.34065e-05
0.000204914
2.07336e-05
0.000195666
2.77489e-05
0.00018428
3.41454e-05
0.000170868
4.01541e-05
0.000155792
4.51795e-05
0.000139244
4.95445e-05
0.00012155
5.30567e-05
0.000102963
5.56647e-05
8.38214e-05
5.74342e-05
6.43945e-05
5.82329e-05
4.48895e-05
5.8393e-05
2.56337e-05
5.77935e-05
6.81507e-06
5.63668e-05
-1.13939e-05
5.46279e-05
-2.87767e-05
5.21299e-05
-4.52284e-05
4.93749e-05
-6.06325e-05
4.62243e-05
-7.50534e-05
4.31759e-05
-8.83189e-05
3.98462e-05
-0.000100478
3.65023e-05
-0.000111555
3.32489e-05
-0.000121564
3.00139e-05
-0.000130541
2.69551e-05
-0.00013851
2.39494e-05
-0.00014567
2.14053e-05
-0.000151906
1.87422e-05
-0.000157328
1.62876e-05
-0.000161962
1.3933e-05
-0.00016587
1.17118e-05
-0.00016908
9.6483e-06
-0.000171595
7.57931e-06
-0.000173482
5.61776e-06
-0.000174713
3.708e-06
-0.000175304
1.82744e-06
-0.000175328
1.34423e-08
-0.000174719
-1.81045e-06
-0.000173474
-3.72711e-06
-0.000171568
-5.6231e-06
-0.000169129
-7.42602e-06
-0.000165974
-9.43485e-06
-0.000162186
-1.13662e-05
-0.000157714
-1.34286e-05
-0.00015252
-1.55729e-05
-0.000146625
-1.77585e-05
-0.000140059
-1.96397e-05
-0.000132724
-2.20165e-05
-0.000124665
-2.42698e-05
-0.000115744
-2.65644e-05
-0.000106153
-2.88303e-05
-9.56995e-05
-3.13656e-05
-8.443e-05
-3.38004e-05
-7.2368e-05
-3.62009e-05
-5.94912e-05
-3.86234e-05
-4.58007e-05
-4.10125e-05
-3.1338e-05
-4.34271e-05
-1.60249e-05
-4.59098e-05
-1.43185e-07
-4.76424e-05
1.63789e-05
-4.95206e-05
3.33482e-05
-5.08884e-05
5.06049e-05
-5.17294e-05
6.79681e-05
-5.20627e-05
8.52348e-05
-5.17468e-05
0.000102158
-5.07239e-05
0.000118459
-4.88646e-05
0.000133896
-4.62986e-05
0.000148215
-4.29146e-05
0.000161198
-3.88504e-05
0.000172568
-3.40949e-05
0.000182159
-2.87336e-05
0.000189708
-2.26201e-05
0.00019509
-1.61179e-05
0.000198085
-8.98157e-06
0.00019864
-1.68272e-06
0.000196709
5.81448e-06
0.000192175
1.35082e-05
0.000185286
2.06708e-05
0.000176091
2.75143e-05
0.000164846
3.37108e-05
0.000151735
3.92371e-05
0.000137018
4.41474e-05
0.000120966
4.8087e-05
0.000103851
5.13123e-05
8.5982e-05
5.35668e-05
6.76313e-05
5.50858e-05
4.9012e-05
5.5819e-05
3.03799e-05
5.57728e-05
1.20129e-05
5.50472e-05
-5.90396e-06
5.37255e-05
-2.32177e-05
5.19208e-05
-3.97829e-05
4.96812e-05
-5.54628e-05
4.70293e-05
-7.02416e-05
4.42226e-05
-8.40274e-05
4.14163e-05
-9.67996e-05
3.83136e-05
-0.000108546
3.52644e-05
-0.000119274
3.21809e-05
-0.000129022
2.91628e-05
-0.000137825
2.64853e-05
-0.000145684
2.35772e-05
-0.000152671
2.09841e-05
-0.000158781
1.83801e-05
-0.000164196
1.62056e-05
-0.000168815
1.38182e-05
-0.000172718
1.17228e-05
-0.000175944
9.70758e-06
-0.000178545
7.79617e-06
-0.000180532
5.95833e-06
-0.00018191
4.10495e-06
-0.000182672
2.30949e-06
-0.000182839
5.05433e-07
-0.000182386
-1.36284e-06
-0.000181345
-3.23351e-06
-0.000179702
-4.79602e-06
-0.000177473
-6.64462e-06
-0.000174691
-8.30849e-06
-0.000171451
-9.68633e-06
-0.000167696
-1.12623e-05
-0.000163406
-1.28003e-05
-0.000158578
-1.44902e-05
-0.00015314
-1.62785e-05
-0.000146992
-1.84288e-05
-0.000140046
-2.08259e-05
-0.000132379
-2.30277e-05
-0.000123851
-2.55462e-05
-0.000114506
-2.79716e-05
-0.000104382
-3.02898e-05
-9.3504e-05
-3.2681e-05
-8.18471e-05
-3.49586e-05
-6.94305e-05
-3.72338e-05
-5.63151e-05
-3.93297e-05
-4.25354e-05
-4.13265e-05
-2.81916e-05
-4.29422e-05
-1.33225e-05
-4.45971e-05
1.9536e-06
-4.57802e-05
1.76115e-05
-4.6935e-05
3.3524e-05
-4.77165e-05
4.94376e-05
-4.76572e-05
6.53144e-05
-4.75772e-05
8.09625e-05
-4.68572e-05
9.61866e-05
-4.56595e-05
0.000110841
-4.39122e-05
0.000124732
-4.16461e-05
0.000137666
-3.87376e-05
0.000149503
-3.55048e-05
0.000159924
-3.11958e-05
0.000169017
-2.72427e-05
0.00017616
-2.14299e-05
0.000181437
-1.57644e-05
0.000184623
-9.51563e-06
0.000185431
-2.42512e-06
0.000183724
5.1157e-06
0.000179506
1.26708e-05
0.000172732
2.03126e-05
0.000163612
2.73459e-05
0.000152151
3.43255e-05
0.000138759
4.01138e-05
0.000123745
4.49704e-05
0.000107468
4.87602e-05
9.03092e-05
5.14066e-05
7.26153e-05
5.30037e-05
5.46649e-05
5.37638e-05
3.67647e-05
5.36665e-05
1.93154e-05
5.231e-05
2.3262e-06
5.08991e-05
-1.40242e-05
4.9044e-05
-2.95133e-05
4.64496e-05
-4.40294e-05
4.35333e-05
-5.75513e-05
4.05561e-05
-7.00241e-05
3.74128e-05
-8.14482e-05
3.42561e-05
-9.18458e-05
3.12095e-05
-0.000101251
2.82204e-05
-0.000109696
2.53593e-05
-0.000117274
2.27405e-05
-0.000124049
2.03349e-05
-0.00013011
1.81915e-05
-0.00013553
1.62607e-05
-0.000140355
1.44783e-05
-0.000144681
1.29894e-05
-0.000148502
1.14645e-05
-0.000151872
1.0113e-05
-0.000154838
8.89472e-06
-0.000157364
7.58079e-06
-0.000159451
6.25369e-06
-0.000161079
4.86967e-06
-0.000162221
3.42223e-06
-0.000162807
1.7608e-06
-0.000162768
-1.08681e-07
-0.000162009
-2.27801e-06
-0.000160513
-4.49859e-06
-0.000158166
-7.05412e-06
-0.000154953
-9.65008e-06
-0.00015086
-1.22874e-05
-0.000145711
-1.54538e-05
-0.000139564
-1.84463e-05
-0.000132449
-2.13441e-05
-0.000124177
-2.48156e-05
-0.000114864
-2.79354e-05
-0.000104578
-3.0843e-05
-9.31812e-05
-3.4183e-05
-8.08882e-05
-3.68678e-05
-6.75616e-05
-3.99611e-05
-5.33928e-05
-4.24936e-05
-3.85633e-05
-4.44821e-05
-2.30299e-05
-4.65709e-05
-6.94439e-06
-4.82381e-05
9.40503e-06
-4.89896e-05
2.61051e-05
-5.0059e-05
4.28685e-05
-5.02494e-05
5.96234e-05
-5.02193e-05
7.61138e-05
-4.94344e-05
9.20985e-05
-4.79268e-05
0.00010753
-4.62658e-05
0.000122215
-4.40323e-05
0.000135921
-4.10994e-05
0.000148521
-3.7786e-05
0.000159806
-3.38443e-05
0.000169637
-2.94753e-05
0.000177852
-2.46304e-05
0.000184339
-1.94452e-05
0.000188977
-1.38863e-05
0.000191705
-8.14795e-06
-2.45124e-06
-4.63276e-05
6.71549e-05
-6.21777e-05
6.33617e-05
-7.71788e-05
5.99705e-05
-9.12473e-05
5.62462e-05
-0.000104291
5.21477e-05
-0.000116362
4.82659e-05
-0.000127411
4.41866e-05
-0.0001375
4.03434e-05
-0.000146622
3.64893e-05
-0.000154792
3.26762e-05
-0.000162056
2.90679e-05
-0.000168435
2.55305e-05
-0.000173964
2.21194e-05
-0.000178682
1.88738e-05
-0.00018263
1.57529e-05
-0.000185789
1.26532e-05
-0.000188199
9.6452e-06
-0.000189889
6.72982e-06
-0.000190852
3.92334e-06
-0.000191076
1.00887e-06
-0.000190565
-1.98755e-06
-0.000189351
-4.89135e-06
-0.000187464
-7.52866e-06
-0.000184733
-1.09391e-05
-0.000181244
-1.39344e-05
-0.000176913
-1.73428e-05
-0.00017178
-2.05497e-05
-0.000165851
-2.3736e-05
-0.000158957
-2.75936e-05
-0.000151176
-3.11375e-05
-0.000142516
-3.46549e-05
-0.000132735
-3.91745e-05
-0.000122072
-4.26249e-05
-0.000110294
-4.71133e-05
-9.75132e-05
-5.1177e-05
-8.3743e-05
-5.50224e-05
-6.89832e-05
-5.90256e-05
-5.32353e-05
-6.30264e-05
-3.67348e-05
-6.58851e-05
-1.92951e-05
-6.96782e-05
-1.23781e-06
-7.2149e-05
1.74687e-05
-7.47199e-05
3.65999e-05
-7.64141e-05
5.58123e-05
-7.67421e-05
7.50551e-05
-7.68411e-05
9.41134e-05
-7.60797e-05
0.000112595
-7.37822e-05
0.000130396
-7.10865e-05
0.000147281
-6.73745e-05
0.0001628
-6.19406e-05
0.000176898
-5.63152e-05
0.00018927
-4.93766e-05
0.000199787
-4.1978e-05
0.000208315
-3.40549e-05
0.000214518
-2.47901e-05
0.000218498
-1.58781e-05
0.000220089
-6.33304e-06
0.000219112
3.85007e-06
0.000215733
1.35001e-05
0.000209965
2.30936e-05
0.000201982
3.18702e-05
0.000191925
4.01463e-05
0.000179906
4.80006e-05
0.000166152
5.4848e-05
0.000150834
6.11348e-05
0.000134235
6.62571e-05
0.000116573
7.04433e-05
9.81058e-05
7.37622e-05
7.91607e-05
7.56544e-05
5.99343e-05
7.67928e-05
4.05994e-05
7.71781e-05
2.15046e-05
7.62961e-05
2.6383e-06
7.52823e-05
-1.57111e-05
7.33258e-05
-3.33976e-05
7.06559e-05
-5.0323e-05
6.76344e-05
-6.63393e-05
6.40115e-05
-8.14589e-05
6.04094e-05
-9.55112e-05
5.61815e-05
-0.000108473
5.1811e-05
-0.000120362
4.75046e-05
-0.000131031
4.26691e-05
-0.000140501
3.7842e-05
-0.000148782
3.30964e-05
-0.000155777
2.80144e-05
-0.000161666
2.35947e-05
-0.000166462
1.92405e-05
-0.000170276
1.52932e-05
-0.000173258
1.19353e-05
-0.000175384
8.52511e-06
-0.000176793
5.6536e-06
-0.000177542
2.85872e-06
-0.000177589
1.76469e-07
-0.000176955
-2.58266e-06
-0.000175659
-5.22304e-06
-0.000173716
-7.90153e-06
-0.000171182
-1.02027e-05
-0.000167966
-1.29371e-05
-0.00016412
-1.54178e-05
-0.000159607
-1.81408e-05