/*--------------------------------*- C++ -*----------------------------------*\
| =========                 |                                                 |
| \\      /  F ield         | OpenFOAM: The Open Source CFD Toolbox           |
|  \\    /   O peration     | Version:  3.0.1                                 |
|   \\  /    A nd           | Web:      www.OpenFOAM.org                      |
|    \\/     M anipulation  |                                                 |
\*---------------------------------------------------------------------------*/
FoamFile
{
    version     2.0;
    format      ascii;
    class       volVectorField;
    location    "48.6";
    object      U;
}
// * * * * * * * * * * * * * * * * * * * * * * * * * * * * * * * * * * * * * //

dimensions      [0 1 -1 0 0 0 0];

internalField   nonuniform List<vector> 
21420
(
(0.217779 0.000580412 0)
(0.211621 0.000800249 0)
(0.202447 0.0010154 0)
(0.191224 0.00121658 0)
(0.178169 0.00137333 0)
(0.163509 0.00153048 0)
(0.147493 0.00163213 0)
(0.130386 0.0017389 0)
(0.112446 0.00182189 0)
(0.0939324 0.00184299 0)
(0.075097 0.0018757 0)
(0.0561678 0.00188584 0)
(0.0373196 0.00184241 0)
(0.0185365 0.00181077 0)
(0.000582894 0.00173836 0)
(-0.0164167 0.00167766 0)
(-0.0329347 0.00160644 0)
(-0.04863 0.00150769 0)
(-0.0634276 0.00142194 0)
(-0.0772763 0.00133013 0)
(-0.0901451 0.00122494 0)
(-0.102026 0.00113058 0)
(-0.112922 0.00103519 0)
(-0.122843 0.00093554 0)
(-0.131812 0.00084397 0)
(-0.139854 0.000751169 0)
(-0.147 0.000665017 0)
(-0.15328 0.000581132 0)
(-0.158725 0.000498832 0)
(-0.163366 0.000420654 0)
(-0.16723 0.000344575 0)
(-0.170345 0.000270339 0)
(-0.17274 0.000198387 0)
(-0.174426 0.000127983 0)
(-0.175394 6.26654e-05 0)
(-0.175705 -5.88811e-06 0)
(-0.175299 -7.663e-05 0)
(-0.174202 -0.000146757 0)
(-0.17239 -0.000217179 0)
(-0.169861 -0.000291047 0)
(-0.16659 -0.000364626 0)
(-0.162555 -0.000444982 0)
(-0.157731 -0.000522656 0)
(-0.152059 -0.000605686 0)
(-0.145502 -0.000699557 0)
(-0.13805 -0.000785579 0)
(-0.129654 -0.000874674 0)
(-0.120262 -0.000981356 0)
(-0.109885 -0.00107414 0)
(-0.0984832 -0.00116527 0)
(-0.0860665 -0.00127868 0)
(-0.0726621 -0.00136872 0)
(-0.0581731 -0.00147614 0)
(-0.0428078 -0.00156595 0)
(-0.0266079 -0.00163401 0)
(-0.00974955 -0.00171647 0)
(0.00767832 -0.00177444 0)
(0.0257903 -0.00180752 0)
(0.0443185 -0.00185155 0)
(0.0630843 -0.00185439 0)
(0.0818607 -0.00185343 0)
(0.100448 -0.00182139 0)
(0.118606 -0.00175666 0)
(0.136048 -0.00168212 0)
(0.152582 -0.00158313 0)
(0.167971 -0.00145242 0)
(0.181953 -0.0013049 0)
(0.194295 -0.00114116 0)
(0.204864 -0.000958254 0)
(0.21354 -0.00075994 0)
(0.220117 -0.000537728 0)
(0.224388 -0.000323557 0)
(0.226377 -8.3509e-05 0)
(0.226069 0.000142719 0)
(0.223307 0.000379031 0)
(0.218115 0.000600407 0)
(0.210719 0.000808206 0)
(0.201382 0.00102119 0)
(0.190058 0.00120457 0)
(0.176947 0.00135977 0)
(0.16217 0.00150648 0)
(0.146284 0.00162973 0)
(0.129384 0.00171152 0)
(0.111609 0.00178861 0)
(0.093236 0.00182432 0)
(0.0746189 0.00185762 0)
(0.055925 0.00184783 0)
(0.0372657 0.0018369 0)
(0.0189041 0.00180038 0)
(0.000938916 0.00176067 0)
(-0.0164662 0.00170074 0)
(-0.0333007 0.00162358 0)
(-0.049294 0.00154197 0)
(-0.0643816 0.00144884 0)
(-0.0784869 0.00135172 0)
(-0.0915476 0.00124633 0)
(-0.10354 0.00113639 0)
(-0.11441 0.00102086 0)
(-0.124158 0.000911888 0)
(-0.132813 0.000804708 0)
(-0.140375 0.000697388 0)
(-0.146901 0.000598125 0)
(-0.152448 0.000505527 0)
(-0.157069 0.000412926 0)
(-0.160818 0.000330691 0)
(-0.163728 0.000251621 0)
(-0.165898 0.000181542 0)
(-0.167347 0.000109942 0)
(-0.16809 3.80055e-05 0)
(-0.168186 -2.62828e-05 0)
(-0.167592 -8.58777e-05 0)
(-0.16633 -0.00015248 0)
(-0.164478 -0.000214961 0)
(-0.161985 -0.000280233 0)
(-0.158834 -0.000343494 0)
(-0.155062 -0.000407858 0)
(-0.150618 -0.000472138 0)
(-0.145477 -0.000537129 0)
(-0.139698 -0.000605152 0)
(-0.133203 -0.000676981 0)
(-0.125987 -0.000749941 0)
(-0.118044 -0.000825505 0)
(-0.109359 -0.000899411 0)
(-0.0998902 -0.000976423 0)
(-0.0896448 -0.00105855 0)
(-0.0785885 -0.00113698 0)
(-0.0667515 -0.00121845 0)
(-0.0540872 -0.00128696 0)
(-0.0406612 -0.00137268 0)
(-0.0264691 -0.00144379 0)
(-0.0115387 -0.00150871 0)
(0.00406925 -0.00158118 0)
(0.0203257 -0.00163241 0)
(0.037023 -0.00167637 0)
(0.0540835 -0.00170827 0)
(0.0713638 -0.00171909 0)
(0.0886783 -0.00171092 0)
(0.105823 -0.00168435 0)
(0.122523 -0.00163342 0)
(0.138576 -0.00155107 0)
(0.153742 -0.00144886 0)
(0.167715 -0.00132067 0)
(0.180271 -0.00116906 0)
(0.191171 -0.000987865 0)
(0.200175 -0.000786239 0)
(0.207038 -0.000572653 0)
(0.211597 -0.000337878 0)
(0.213766 -9.25507e-05 0)
(0.213511 0.000148275 0)
(0.21067 0.000402168 0)
(0.205401 0.000634322 0)
(0.197808 0.000869102 0)
(0.187988 0.00107858 0)
(0.176156 0.00127095 0)
(0.162496 0.00143462 0)
(0.147272 0.00157378 0)
(0.130792 0.00169395 0)
(0.113293 0.00177809 0)
(0.0950757 0.0018361 0)
(0.0764344 0.00185762 0)
(0.057612 0.0018682 0)
(0.0388974 0.00185223 0)
(0.0205022 0.00180235 0)
(0.002619 0.00174378 0)
(-0.0145721 0.00167238 0)
(-0.0309903 0.00158994 0)
(-0.0465239 0.00149424 0)
(-0.0610441 0.00138879 0)
(-0.0745214 0.0012889 0)
(-0.0869858 0.00118098 0)
(-0.0984002 0.0010793 0)
(-0.108786 0.000989734 0)
(-0.118246 0.000889674 0)
(-0.12677 0.000801481 0)
(-0.134406 0.000718688 0)
(-0.141227 0.000630059 0)
(-0.147202 0.000550622 0)
(-0.152348 0.000474655 0)
(-0.156717 0.000396314 0)
(-0.160288 0.000317321 0)
(-0.163114 0.00024896 0)
(-0.165305 0.000189185 0)
(-0.166922 0.000133366 0)
(-0.168072 9.21528e-05 0)
(-0.16875 4.58584e-05 0)
(-0.16895 -2.66714e-06 0)
(-0.168651 -5.7015e-05 0)
(-0.167754 -0.000121969 0)
(-0.166233 -0.000183842 0)
(-0.164056 -0.0002458 0)
(-0.161165 -0.000322841 0)
(-0.157575 -0.000386318 0)
(-0.153306 -0.000457665 0)
(-0.148334 -0.000523726 0)
(-0.142734 -0.000588081 0)
(-0.136516 -0.000651661 0)
(-0.129678 -0.000708017 0)
(-0.122162 -0.000767769 0)
(-0.113997 -0.000841016 0)
(-0.105187 -0.000917542 0)
(-0.0955204 -0.00099765 0)
(-0.0849948 -0.00108615 0)
(-0.0736046 -0.00117134 0)
(-0.061276 -0.00126902 0)
(-0.0480677 -0.00135239 0)
(-0.0340302 -0.00143574 0)
(-0.0192096 -0.00150039 0)
(-0.00371443 -0.00156222 0)
(0.0123093 -0.00161155 0)
(0.0287601 -0.00165061 0)
(0.0455052 -0.00167374 0)
(0.0624285 -0.00167508 0)
(0.0793131 -0.00166635 0)
(0.0959518 -0.00163741 0)
(0.112177 -0.00157902 0)
(0.127691 -0.00149587 0)
(0.142218 -0.00139065 0)
(0.155581 -0.00125519 0)
(0.167476 -0.00109591 0)
(0.177637 -0.000913709 0)
(0.185822 -0.000711615 0)
(0.191882 -0.000486355 0)
(0.19562 -0.000249436 0)
(0.196884 -1.24835e-05 0)
(0.19578 0.000240544 0)
(0.192042 0.000484209 0)
(0.185959 0.000715272 0)
(0.177642 0.00093819 0)
(0.167174 0.00113152 0)
(0.15487 0.00130401 0)
(0.140951 0.00145706 0)
(0.125648 0.0015744 0)
(0.109308 0.00166954 0)
(0.0921616 0.00173287 0)
(0.074487 0.00177291 0)
(0.0565728 0.00178201 0)
(0.0386111 0.00177475 0)
(0.0209023 0.00173704 0)
(0.00363509 0.00169612 0)
(-0.0131134 0.00162579 0)
(-0.029155 0.00155153 0)
(-0.04434 0.00146833 0)
(-0.0586494 0.00137789 0)
(-0.0720583 0.00128375 0)
(-0.0845131 0.00118939 0)
(-0.0960203 0.00109646 0)
(-0.106585 0.00100308 0)
(-0.116233 0.000907256 0)
(-0.124975 0.000821924 0)
(-0.132828 0.000744513 0)
(-0.139871 0.000656896 0)
(-0.146149 0.000586174 0)
(-0.151682 0.000516575 0)
(-0.15653 0.00044503 0)
(-0.160711 0.000379871 0)
(-0.16425 0.000320176 0)
(-0.167183 0.000268857 0)
(-0.169524 0.00020392 0)
(-0.171305 0.00014852 0)
(-0.172552 9.88268e-05 0)
(-0.173263 4.86311e-05 0)
(-0.173475 -2.77192e-06 0)
(-0.173169 -5.34614e-05 0)
(-0.17232 -0.000109415 0)
(-0.170938 -0.000161824 0)
(-0.169033 -0.000223269 0)
(-0.166492 -0.000265756 0)
(-0.163307 -0.000340582 0)
(-0.159496 -0.000404484 0)
(-0.154996 -0.000476757 0)
(-0.149833 -0.000547244 0)
(-0.143905 -0.000617932 0)
(-0.137254 -0.000693689 0)
(-0.129814 -0.000772127 0)
(-0.121478 -0.000844812 0)
(-0.112371 -0.000939032 0)
(-0.102421 -0.00103167 0)
(-0.0914735 -0.00113919 0)
(-0.0794628 -0.00121611 0)
(-0.0664442 -0.00134116 0)
(-0.0524292 -0.00143995 0)
(-0.037316 -0.0015552 0)
(-0.0210401 -0.00164716 0)
(-0.00366632 -0.00172677 0)
(0.0143795 -0.00180631 0)
(0.0328543 -0.00185976 0)
(0.051702 -0.00188119 0)
(0.0706884 -0.00189928 0)
(0.0896879 -0.0018755 0)
(0.108338 -0.00183845 0)
(0.126425 -0.00176869 0)
(0.143693 -0.00165831 0)
(0.159744 -0.00153273 0)
(0.174334 -0.00137073 0)
(0.18719 -0.00117245 0)
(0.197998 -0.000965602 0)
(0.206593 -0.000731744 0)
(0.212796 -0.00047473 0)
(0.216465 -0.000218018 0)
(0.217472 3.80338e-05 0)
(0.215898 0.000287713 0)
(0.211642 0.00053397 0)
(0.205048 0.000773251 0)
(0.196224 0.000971014 0)
(0.185405 0.00116075 0)
(0.172826 0.00133326 0)
(0.158753 0.00145226 0)
(0.143467 0.0015667 0)
(0.127229 0.00163062 0)
(0.110385 0.00168979 0)
(0.0931034 0.00172358 0)
(0.0757004 0.00171349 0)
(0.0583503 0.00169816 0)
(0.0412503 0.00167108 0)
(0.0246128 0.00159639 0)
(0.00884305 0.00154325 0)
(-0.00592398 0.00146282 0)
(-0.020083 0.00138995 0)
(-0.0335959 0.0013138 0)
(-0.0463455 0.00122934 0)
(-0.0583294 0.00115563 0)
(-0.0695679 0.00108372 0)
(-0.0800847 0.00100932 0)
(-0.0899124 0.000943964 0)
(-0.0990799 0.000876316 0)
(-0.10761 0.000815599 0)
(-0.11552 0.000755272 0)
(-0.122812 0.000691986 0)
(-0.129487 0.000631516 0)
(-0.135537 0.000569333 0)
(-0.140947 0.000503763 0)
(-0.145699 0.000438156 0)
(-0.149773 0.000370119 0)
(-0.153148 0.000299272 0)
(-0.155806 0.000226701 0)
(-0.157731 0.000150986 0)
(-0.158864 7.58613e-05 0)
(-0.159257 -2.73743e-06 0)
(-0.158831 -8.45592e-05 0)
(-0.157572 -0.00016769 0)
(-0.155462 -0.00025202 0)
(-0.152488 -0.000338414 0)
(-0.148638 -0.000424995 0)
(-0.143906 -0.000514269 0)
(-0.138286 -0.000601494 0)
(-0.131776 -0.000688035 0)
(-0.124379 -0.000778867 0)
(-0.116104 -0.000863285 0)
(-0.106963 -0.000945201 0)
(-0.0969754 -0.00103351 0)
(-0.0861662 -0.00110953 0)
(-0.0745646 -0.00119332 0)
(-0.0622067 -0.00126049 0)
(-0.0491328 -0.00132101 0)
(-0.0353378 -0.00139109 0)
(-0.020203 -0.00143712 0)
(-0.00351667 -0.00149303 0)
(0.217871 0.00174163 0)
(0.211708 0.00240128 0)
(0.202528 0.00304689 0)
(0.191298 0.00365059 0)
(0.178232 0.00412089 0)
(0.163563 0.00459242 0)
(0.147537 0.00489738 0)
(0.130419 0.0052177 0)
(0.11247 0.00546669 0)
(0.0939461 0.0055299 0)
(0.0751017 0.00562797 0)
(0.0561639 0.00565837 0)
(0.0373081 0.00552797 0)
(0.0185181 0.0054335 0)
(0.000559612 0.00521502 0)
(-0.0164451 0.00503331 0)
(-0.0329664 0.00481965 0)
(-0.0486639 0.0045233 0)
(-0.0634636 0.00426599 0)
(-0.0773138 0.00399051 0)
(-0.0901825 0.00367486 0)
(-0.102064 0.00339172 0)
(-0.112959 0.00310555 0)
(-0.122879 0.00280659 0)
(-0.131847 0.00253184 0)
(-0.139888 0.00225342 0)
(-0.147033 0.00199495 0)
(-0.153313 0.00174328 0)
(-0.158756 0.00149639 0)
(-0.163396 0.00126187 0)
(-0.167259 0.00103365 0)
(-0.170373 0.000810957 0)
(-0.172766 0.000595573 0)
(-0.174453 0.000385144 0)
(-0.175424 0.000185679 0)
(-0.175732 -1.71245e-05 0)
(-0.175328 -0.000229815 0)
(-0.174231 -0.000440148 0)
(-0.17242 -0.000651412 0)
(-0.169892 -0.000873023 0)
(-0.166623 -0.00109366 0)
(-0.162589 -0.0013348 0)
(-0.157767 -0.00156778 0)
(-0.152097 -0.00181685 0)
(-0.145543 -0.00209827 0)
(-0.138092 -0.00235651 0)
(-0.129699 -0.00262375 0)
(-0.120309 -0.00294384 0)
(-0.109934 -0.00322252 0)
(-0.0985325 -0.00349516 0)
(-0.0861175 -0.00383633 0)
(-0.0727128 -0.00410593 0)
(-0.0582244 -0.00442842 0)
(-0.0428583 -0.00469862 0)
(-0.0266524 -0.00490143 0)
(-0.00979213 -0.00515111 0)
(0.00764047 -0.00532347 0)
(0.0257584 -0.00542405 0)
(0.044295 -0.00555529 0)
(0.0630694 -0.00556371 0)
(0.0818565 -0.00556117 0)
(0.100455 -0.00546624 0)
(0.118623 -0.0052737 0)
(0.13608 -0.00504641 0)
(0.152626 -0.00475022 0)
(0.168031 -0.00435094 0)
(0.182012 -0.00392596 0)
(0.194382 -0.00341808 0)
(0.204947 -0.00288344 0)
(0.213649 -0.00227468 0)
(0.220225 -0.00160988 0)
(0.224503 -0.000974519 0)
(0.226499 -0.000248708 0)
(0.226181 0.000428141 0)
(0.223417 0.00113614 0)
(0.218226 0.0018017 0)
(0.210828 0.00242506 0)
(0.201484 0.00306246 0)
(0.190146 0.00361175 0)
(0.177034 0.00408031 0)
(0.162249 0.00452995 0)
(0.14634 0.00488574 0)
(0.129434 0.00513116 0)
(0.111651 0.00537201 0)
(0.0932619 0.0054748 0)
(0.0746291 0.00556965 0)
(0.055932 0.00553976 0)
(0.0372656 0.00552302 0)
(0.0188821 0.00540494 0)
(0.000906838 0.00527896 0)
(-0.0165146 0.00509864 0)
(-0.0333552 0.00486912 0)
(-0.0493607 0.00463323 0)
(-0.0644662 0.00434836 0)
(-0.0785806 0.00405826 0)
(-0.0916554 0.00372587 0)
(-0.103647 0.00340195 0)
(-0.114514 0.00306892 0)
(-0.12427 0.00273615 0)
(-0.13292 0.00240828 0)
(-0.140475 0.00209086 0)
(-0.147008 0.00180051 0)
(-0.152555 0.00150772 0)
(-0.157164 0.0012401 0)
(-0.160915 0.000992306 0)
(-0.163828 0.000751621 0)
(-0.165999 0.000530321 0)
(-0.16744 0.000320351 0)
(-0.168174 0.000119215 0)
(-0.168271 -8.237e-05 0)
(-0.167669 -0.000251201 0)
(-0.166412 -0.000463095 0)
(-0.164555 -0.000645507 0)
(-0.162059 -0.000836098 0)
(-0.158911 -0.00102946 0)
(-0.155141 -0.0012247 0)
(-0.150693 -0.00141166 0)
(-0.145563 -0.00162359 0)
(-0.139786 -0.00182819 0)
(-0.133289 -0.00204149 0)
(-0.126069 -0.00224859 0)
(-0.118127 -0.00246957 0)
(-0.109444 -0.00269724 0)
(-0.0999802 -0.00293128 0)
(-0.0897294 -0.00316624 0)
(-0.0786771 -0.00340218 0)
(-0.0668409 -0.00365577 0)
(-0.0541879 -0.00387728 0)
(-0.0407508 -0.00411325 0)
(-0.0265582 -0.00432486 0)
(-0.0116383 -0.00454241 0)
(0.00398177 -0.00473389 0)
(0.0202325 -0.00490215 0)
(0.0369355 -0.00503458 0)
(0.0540116 -0.00511627 0)
(0.071291 -0.00516189 0)
(0.0886152 -0.00513842 0)
(0.105767 -0.00505621 0)
(0.122487 -0.00489634 0)
(0.138553 -0.00465437 0)
(0.153725 -0.00434743 0)
(0.167708 -0.00396795 0)
(0.180275 -0.00350878 0)
(0.191176 -0.00296838 0)
(0.200191 -0.00237293 0)
(0.207063 -0.00171937 0)
(0.211643 -0.00100866 0)
(0.213809 -0.000282788 0)
(0.213549 0.000445851 0)
(0.210706 0.00119795 0)
(0.205444 0.00192081 0)
(0.197829 0.0025986 0)
(0.188001 0.00323127 0)
(0.176156 0.0038059 0)
(0.162503 0.00430357 0)
(0.147274 0.00473794 0)
(0.130768 0.0050778 0)
(0.113256 0.00532141 0)
(0.0950314 0.0055108 0)
(0.0763797 0.00558323 0)
(0.0575418 0.00560148 0)
(0.0388202 0.0055475 0)
(0.020425 0.00541212 0)
(0.00253148 0.00524298 0)
(-0.0146799 0.00500894 0)
(-0.0310988 0.00475898 0)
(-0.0466305 0.00448067 0)
(-0.0611558 0.00417336 0)
(-0.0746389 0.00385882 0)
(-0.0870937 0.00354267 0)
(-0.0985115 0.00324057 0)
(-0.108897 0.0029582 0)
(-0.118344 0.00267603 0)
(-0.126875 0.00240711 0)
(-0.13451 0.00214432 0)
(-0.141322 0.00188942 0)
(-0.147303 0.00165803 0)
(-0.15245 0.0014145 0)
(-0.156814 0.00118462 0)
(-0.16038 0.00095259 0)
(-0.163202 0.000745108 0)
(-0.165391 0.000562521 0)
(-0.167002 0.00039618 0)
(-0.168152 0.000276176 0)
(-0.168828 0.000135573 0)
(-0.169029 -1.52251e-05 0)
(-0.168722 -0.000169138 0)
(-0.167825 -0.000355699 0)
(-0.166311 -0.000552385 0)
(-0.164143 -0.000738178 0)
(-0.161245 -0.000962821 0)
(-0.157662 -0.00116005 0)
(-0.153388 -0.00137481 0)
(-0.148418 -0.00157904 0)
(-0.14282 -0.0017666 0)
(-0.136604 -0.00195927 0)
(-0.129767 -0.00212433 0)
(-0.122257 -0.00230956 0)
(-0.114094 -0.00252366 0)
(-0.105282 -0.00275278 0)
(-0.0956254 -0.00299052 0)
(-0.0851024 -0.00326195 0)
(-0.0737105 -0.00352007 0)
(-0.0613787 -0.00379953 0)
(-0.0481676 -0.00405234 0)
(-0.0341324 -0.00430728 0)
(-0.0193054 -0.0045021 0)
(-0.00381683 -0.00469097 0)
(0.0122202 -0.00483392 0)
(0.0286751 -0.00495132 0)
(0.0454251 -0.00502512 0)
(0.0623494 -0.00503432 0)
(0.0792395 -0.0050043 0)
(0.0959016 -0.00490448 0)
(0.112136 -0.00473621 0)
(0.127654 -0.00448532 0)
(0.142197 -0.00417579 0)
(0.155564 -0.00376917 0)
(0.167472 -0.0032953 0)
(0.177646 -0.0027413 0)
(0.185846 -0.0021398 0)
(0.191914 -0.00145378 0)
(0.195644 -0.000764712 0)
(0.196931 -2.93156e-05 0)
(0.195805 0.000716479 0)
(0.192077 0.00144852 0)
(0.185992 0.00215158 0)
(0.177664 0.00280995 0)
(0.167193 0.00339885 0)
(0.154874 0.00391388 0)
(0.140942 0.00437578 0)
(0.125623 0.004722 0)
(0.109275 0.00499994 0)
(0.0921251 0.00519946 0)
(0.0744422 0.00531879 0)
(0.0565183 0.00535244 0)
(0.0385474 0.00531986 0)
(0.0208301 0.0052176 0)
(0.00354456 0.0050845 0)
(-0.0132081 0.0048751 0)
(-0.0292466 0.00465208 0)
(-0.0444366 0.0044103 0)
(-0.0587584 0.00412583 0)
(-0.0721601 0.00385315 0)
(-0.0846158 0.00356577 0)
(-0.0961283 0.0032862 0)
(-0.106689 0.00300284 0)
(-0.116333 0.00272748 0)
(-0.125082 0.0024609 0)
(-0.132926 0.00222437 0)
(-0.139956 0.00198006 0)
(-0.146243 0.00175725 0)
(-0.151768 0.00153604 0)
(-0.156611 0.0013473 0)
(-0.160804 0.00113905 0)
(-0.164346 0.000951167 0)
(-0.167273 0.000793233 0)
(-0.169602 0.000616232 0)
(-0.171388 0.000453839 0)
(-0.172644 0.00029596 0)
(-0.173356 0.000138161 0)
(-0.173567 -9.91422e-06 0)
(-0.17326 -0.000160014 0)
(-0.17241 -0.000325353 0)
(-0.171029 -0.000480865 0)
(-0.169123 -0.00066341 0)
(-0.166588 -0.00080919 0)
(-0.1634 -0.00102346 0)
(-0.159582 -0.00121524 0)
(-0.155076 -0.00142797 0)
(-0.149909 -0.00163145 0)
(-0.143985 -0.00186464 0)
(-0.137321 -0.00208098 0)
(-0.129876 -0.00231097 0)
(-0.12155 -0.00254229 0)
(-0.112435 -0.00281851 0)
(-0.102485 -0.0030955 0)
(-0.0915322 -0.0034119 0)
(-0.0795246 -0.0036546 0)
(-0.0665058 -0.00401834 0)
(-0.0524957 -0.00432794 0)
(-0.0373693 -0.00466202 0)
(-0.0210939 -0.00494616 0)
(-0.00370989 -0.00517934 0)
(0.0143429 -0.00541979 0)
(0.0328306 -0.00557452 0)
(0.0516818 -0.00565212 0)
(0.0706863 -0.00569704 0)
(0.0896959 -0.00562871 0)
(0.108362 -0.00551618 0)
(0.12646 -0.00530948 0)
(0.143742 -0.00497657 0)
(0.159809 -0.0045963 0)
(0.17441 -0.00411675 0)
(0.187274 -0.00352571 0)
(0.198103 -0.00289646 0)
(0.206704 -0.00218363 0)
(0.212911 -0.00142773 0)
(0.216582 -0.000664765 0)
(0.217592 0.000105041 0)
(0.216004 0.000861146 0)
(0.211747 0.00160169 0)
(0.20515 0.00232018 0)
(0.196317 0.00291374 0)
(0.185488 0.0034831 0)
(0.172898 0.00400079 0)
(0.158813 0.00435786 0)
(0.143516 0.00470123 0)
(0.127266 0.00489282 0)
(0.11041 0.00507045 0)
(0.0931183 0.00517173 0)
(0.0757054 0.00514145 0)
(0.058347 0.00509523 0)
(0.0412376 0.00501407 0)
(0.0245947 0.0047903 0)
(0.0088224 0.00462954 0)
(-0.00594861 0.0043886 0)
(-0.0201098 0.00417001 0)
(-0.0336236 0.00394149 0)
(-0.0463728 0.00368808 0)
(-0.0583563 0.00346684 0)
(-0.0695941 0.00325115 0)
(-0.0801096 0.00302792 0)
(-0.0899366 0.00283186 0)
(-0.0991032 0.00262894 0)
(-0.107634 0.00244682 0)
(-0.115543 0.00226586 0)
(-0.122835 0.00207602 0)
(-0.129511 0.00189464 0)
(-0.135562 0.00170811 0)
(-0.140972 0.00151143 0)
(-0.145725 0.00131454 0)
(-0.1498 0.00111045 0)
(-0.153176 0.000897841 0)
(-0.155834 0.000680109 0)
(-0.15776 0.000453079 0)
(-0.158897 0.000227211 0)
(-0.159289 -7.54529e-06 0)
(-0.158864 -0.000253543 0)
(-0.157606 -0.000503032 0)
(-0.155496 -0.00075601 0)
(-0.152523 -0.0010152 0)
(-0.148673 -0.00127496 0)
(-0.143941 -0.00154281 0)
(-0.138322 -0.00180448 0)
(-0.131811 -0.00206411 0)
(-0.124414 -0.00233663 0)
(-0.116138 -0.00258992 0)
(-0.106997 -0.00283568 0)
(-0.0970085 -0.00310064 0)
(-0.0861977 -0.00332873 0)
(-0.0745949 -0.00358014 0)
(-0.0622348 -0.00378169 0)
(-0.0491583 -0.00396331 0)
(-0.0353609 -0.00417362 0)
(-0.0202267 -0.00431169 0)
(-0.00353622 -0.00447926 0)
(0.218056 0.0029042 0)
(0.211882 0.00400407 0)
(0.202688 0.0050806 0)
(0.191444 0.00608721 0)
(0.178358 0.00687124 0)
(0.163671 0.0076574 0)
(0.147621 0.00816563 0)
(0.130484 0.00869958 0)
(0.112515 0.00911455 0)
(0.0939708 0.00921961 0)
(0.0751081 0.00938287 0)
(0.0561532 0.00943339 0)
(0.0372821 0.00921566 0)
(0.0184782 0.00905925 0)
(0.000509798 0.00869181 0)
(-0.0165049 0.00838998 0)
(-0.0330332 0.00803378 0)
(-0.0487348 0.00753956 0)
(-0.0635389 0.00711045 0)
(-0.0773916 0.00665109 0)
(-0.0902603 0.0061248 0)
(-0.102142 0.00565274 0)
(-0.113037 0.0051757 0)
(-0.122954 0.00467737 0)
(-0.131921 0.00421938 0)
(-0.139959 0.00375529 0)
(-0.147102 0.0033245 0)
(-0.153378 0.00290505 0)
(-0.15882 0.00249363 0)
(-0.163457 0.00210283 0)
(-0.167318 0.00172251 0)
(-0.17043 0.00135167 0)
(-0.172821 0.000993044 0)
(-0.174508 0.000642223 0)
(-0.17548 0.000311537 0)
(-0.17579 -3.18332e-05 0)
(-0.175383 -0.000383609 0)
(-0.174287 -0.000733304 0)
(-0.172477 -0.00108548 0)
(-0.169951 -0.00145484 0)
(-0.166683 -0.0018223 0)
(-0.162652 -0.00222437 0)
(-0.157833 -0.00261259 0)
(-0.152166 -0.00302771 0)
(-0.145615 -0.0034963 0)
(-0.138165 -0.00392711 0)
(-0.129773 -0.00437257 0)
(-0.120388 -0.00490642 0)
(-0.110013 -0.00537035 0)
(-0.0986101 -0.00582409 0)
(-0.0861964 -0.00639509 0)
(-0.0727884 -0.00684324 0)
(-0.0582992 -0.00738089 0)
(-0.0429288 -0.00783245 0)
(-0.0267109 -0.00817009 0)
(-0.00984302 -0.00858681 0)
(0.00759746 -0.00887495 0)
(0.0257286 -0.00904192 0)
(0.0442788 -0.00926252 0)
(0.0630696 -0.00927618 0)
(0.0818742 -0.00927052 0)
(0.100489 -0.00911317 0)
(0.118676 -0.00879103 0)
(0.136152 -0.0084143 0)
(0.152716 -0.00791977 0)
(0.168133 -0.00726108 0)
(0.182137 -0.00653907 0)
(0.194516 -0.00570594 0)
(0.205102 -0.00480445 0)
(0.213814 -0.00379661 0)
(0.220391 -0.00269062 0)
(0.224686 -0.00162089 0)
(0.226687 -0.000413466 0)
(0.226349 0.000710493 0)
(0.223583 0.00189322 0)
(0.218388 0.00300189 0)
(0.210992 0.00404294 0)
(0.201638 0.00511015 0)
(0.190277 0.00602476 0)
(0.177144 0.00680406 0)
(0.162346 0.00754554 0)
(0.146418 0.00815203 0)
(0.129489 0.00856115 0)
(0.11168 0.00895079 0)
(0.0932727 0.0091253 0)
(0.0746194 0.00929453 0)
(0.0558973 0.00923631 0)
(0.0372081 0.00920612 0)
(0.0188059 0.00901478 0)
(0.000815631 0.00880193 0)
(-0.0166248 0.00849988 0)
(-0.0334797 0.00812388 0)
(-0.0495113 0.00772037 0)
(-0.0646353 0.00725095 0)
(-0.0787605 0.00675609 0)
(-0.0918344 0.00622054 0)
(-0.103831 0.00567813 0)
(-0.114709 0.00511008 0)
(-0.124467 0.00455889 0)
(-0.133115 0.0040131 0)
(-0.140669 0.00348904 0)
(-0.147206 0.00299633 0)
(-0.152747 0.00251317 0)
(-0.15735 0.00206808 0)
(-0.161094 0.00165479 0)
(-0.164003 0.00124976 0)
(-0.166168 0.000895061 0)
(-0.167614 0.000534426 0)
(-0.168344 0.000200537 0)
(-0.168435 -0.00013961 0)
(-0.167839 -0.000422819 0)
(-0.16658 -0.000766526 0)
(-0.16472 -0.00107679 0)
(-0.162224 -0.00140073 0)
(-0.159075 -0.00172123 0)
(-0.155306 -0.00204897 0)
(-0.150854 -0.00234697 0)
(-0.14572 -0.00269654 0)
(-0.139947 -0.00303744 0)
(-0.133452 -0.00339552 0)
(-0.126239 -0.00374918 0)
(-0.118301 -0.00412189 0)
(-0.109617 -0.00449613 0)
(-0.100152 -0.00488418 0)
(-0.0899006 -0.00528486 0)
(-0.0788563 -0.00567374 0)
(-0.067014 -0.00609664 0)
(-0.054359 -0.00644621 0)
(-0.0409284 -0.00687203 0)
(-0.0267194 -0.00720112 0)
(-0.011796 -0.00756728 0)
(0.00382223 -0.00789289 0)
(0.0200805 -0.00816659 0)
(0.0367935 -0.0083946 0)
(0.0538862 -0.00853361 0)
(0.0711818 -0.00860485 0)
(0.0885197 -0.0085633 0)
(0.105685 -0.00843155 0)
(0.122433 -0.00816901 0)
(0.138523 -0.00775447 0)
(0.153703 -0.00725636 0)
(0.167715 -0.0066111 0)
(0.180298 -0.00585515 0)
(0.19122 -0.0049432 0)
(0.200246 -0.0039527 0)
(0.207139 -0.00286601 0)
(0.21173 -0.00168336 0)
(0.213903 -0.000464677 0)
(0.213623 0.000733109 0)
(0.210778 0.00200148 0)
(0.205513 0.00319597 0)
(0.197893 0.00433727 0)
(0.18805 0.00539546 0)
(0.176184 0.00634709 0)
(0.162509 0.00717801 0)
(0.147261 0.00788855 0)
(0.130737 0.00847652 0)
(0.11321 0.00887946 0)
(0.0949608 0.00919156 0)
(0.0762806 0.00930628 0)
(0.0574299 0.00933242 0)
(0.0386909 0.00925438 0)
(0.0202717 0.0090287 0)
(0.00235656 0.00873144 0)
(-0.0148572 0.00835315 0)
(-0.0312778 0.00793948 0)
(-0.0468254 0.00747437 0)
(-0.0613613 0.00694927 0)
(-0.0748417 0.00643476 0)
(-0.0873023 0.00590617 0)
(-0.0987141 0.00539617 0)
(-0.109093 0.00494044 0)
(-0.118546 0.00445599 0)
(-0.127067 0.00400334 0)
(-0.134693 0.00358019 0)
(-0.141511 0.0031533 0)
(-0.147493 0.00274977 0)
(-0.152638 0.00236689 0)
(-0.157007 0.00197815 0)
(-0.160567 0.00158502 0)
(-0.163381 0.00123725 0)
(-0.16556 0.000941905 0)
(-0.167162 0.00066272 0)
(-0.168311 0.000457039 0)
(-0.168991 0.000229582 0)
(-0.169188 -2.10219e-05 0)
(-0.168889 -0.00028533 0)
(-0.168 -0.00059884 0)
(-0.166482 -0.00091917 0)
(-0.164314 -0.00123332 0)
(-0.161421 -0.00160419 0)
(-0.157835 -0.00194131 0)
(-0.153551 -0.00228747 0)
(-0.148578 -0.00262627 0)
(-0.142982 -0.00294303 0)
(-0.136767 -0.00326003 0)
(-0.12993 -0.00354351 0)
(-0.122426 -0.00384337 0)
(-0.114268 -0.00420443 0)
(-0.105457 -0.00459378 0)
(-0.0958063 -0.00497481 0)
(-0.085283 -0.00543137 0)
(-0.0738944 -0.00586669 0)
(-0.061566 -0.0063386 0)
(-0.048349 -0.00676169 0)
(-0.034296 -0.00717117 0)
(-0.0194738 -0.00750708 0)
(-0.00397508 -0.00782171 0)
(0.0120742 -0.00805821 0)
(0.0285453 -0.00825104 0)
(0.0453115 -0.00837243 0)
(0.0622395 -0.00838858 0)
(0.0791347 -0.00834363 0)
(0.0958188 -0.00818055 0)
(0.112082 -0.00789748 0)
(0.127618 -0.00749025 0)
(0.142192 -0.00695807 0)
(0.155579 -0.00628335 0)
(0.167503 -0.00549326 0)
(0.177688 -0.00457612 0)
(0.185913 -0.00356346 0)
(0.191989 -0.00243745 0)
(0.195734 -0.00126175 0)
(0.197025 -5.3398e-05 0)
(0.195879 0.00119767 0)
(0.192154 0.00241788 0)
(0.186065 0.00358545 0)
(0.177721 0.00469171 0)
(0.167235 0.00566203 0)
(0.154899 0.0065346 0)
(0.140936 0.00729035 0)
(0.125596 0.00787359 0)
(0.109234 0.00834372 0)
(0.0920657 0.00866726 0)
(0.0743627 0.00886432 0)
(0.0564218 0.00892133 0)
(0.0384285 0.00887536 0)
(0.0206919 0.00869706 0)
(0.00339047 0.00847552 0)
(-0.0133711 0.00812752 0)
(-0.029412 0.00775775 0)
(-0.0446189 0.00735152 0)
(-0.0589474 0.00687825 0)
(-0.0723481 0.00641931 0)
(-0.0848085 0.00594512 0)
(-0.0963242 0.00547868 0)
(-0.106885 0.0050097 0)
(-0.116531 0.00454238 0)
(-0.125264 0.00409982 0)
(-0.133102 0.00371593 0)
(-0.14014 0.00329076 0)
(-0.146414 0.00292531 0)
(-0.151932 0.00257072 0)
(-0.156786 0.00224024 0)
(-0.16098 0.00189632 0)
(-0.164511 0.00158728 0)
(-0.167437 0.00133505 0)
(-0.169776 0.00102502 0)
(-0.171564 0.000751503 0)
(-0.172818 0.000490586 0)
(-0.173522 0.000238276 0)
(-0.173729 -1.55417e-05 0)
(-0.173417 -0.000268179 0)
(-0.172565 -0.000544293 0)
(-0.171183 -0.00080596 0)
(-0.16927 -0.00110584 0)
(-0.166723 -0.00135258 0)
(-0.163534 -0.00170074 0)
(-0.15971 -0.00202596 0)
(-0.155204 -0.00238343 0)
(-0.150025 -0.00272351 0)
(-0.144091 -0.00310441 0)
(-0.13742 -0.00346829 0)
(-0.129974 -0.00385799 0)
(-0.121638 -0.00423401 0)
(-0.112534 -0.00470013 0)
(-0.102579 -0.00516184 0)
(-0.0916222 -0.00568311 0)
(-0.0796125 -0.00608996 0)
(-0.0666101 -0.00670321 0)
(-0.0525902 -0.00721529 0)
(-0.0374577 -0.00776565 0)
(-0.0211712 -0.00824363 0)
(-0.0037816 -0.00863521 0)
(0.0142888 -0.00903631 0)
(0.0327896 -0.0092985 0)
(0.0516636 -0.00941828 0)
(0.0706869 -0.00950279 0)
(0.0897168 -0.00938588 0)
(0.108406 -0.00919774 0)
(0.126532 -0.00885326 0)
(0.143833 -0.0082995 0)
(0.159923 -0.00767006 0)
(0.174552 -0.00686506 0)
(0.187438 -0.00587712 0)
(0.198285 -0.00482472 0)
(0.206897 -0.00366118 0)
(0.213111 -0.0023592 0)
(0.216788 -0.00109338 0)
(0.217809 0.000188359 0)
(0.216183 0.00143876 0)
(0.211929 0.00267026 0)
(0.205324 0.00386943 0)
(0.196473 0.0048591 0)
(0.185625 0.00580847 0)
(0.173015 0.00667162 0)
(0.158908 0.00726677 0)
(0.143589 0.00783926 0)
(0.127318 0.00815786 0)
(0.11044 0.0084542 0)
(0.0931289 0.00862256 0)
(0.0756976 0.008572 0)
(0.0583243 0.00849421 0)
(0.0411979 0.00835888 0)
(0.0245457 0.00798754 0)
(0.00876957 0.00771495 0)
(-0.00600792 0.00731469 0)
(-0.0201723 0.00695027 0)
(-0.033687 0.0065691 0)
(-0.0464346 0.00614669 0)
(-0.0584163 0.00577765 0)
(-0.0696518 0.00541823 0)
(-0.0801642 0.00504616 0)
(-0.0899891 0.00471948 0)
(-0.0991534 0.00438136 0)
(-0.107683 0.00407791 0)
(-0.115592 0.00377643 0)
(-0.122884 0.00346014 0)
(-0.129561 0.00315792 0)
(-0.135613 0.0028471 0)
(-0.141024 0.00251935 0)
(-0.145778 0.00219109 0)
(-0.149855 0.00185101 0)
(-0.153232 0.00149664 0)
(-0.155891 0.00113382 0)
(-0.157818 0.000755832 0)
(-0.158961 0.000379342 0)
(-0.159355 -1.2926e-05 0)
(-0.158929 -0.000422431 0)
(-0.157673 -0.000838185 0)
(-0.155563 -0.00125982 0)
(-0.152591 -0.00169194 0)
(-0.148743 -0.00212486 0)
(-0.144012 -0.00257134 0)
(-0.138392 -0.00300748 0)
(-0.131881 -0.00344024 0)
(-0.124484 -0.00389452 0)
(-0.116206 -0.00431677 0)
(-0.107063 -0.00472641 0)
(-0.0970733 -0.00516812 0)
(-0.0862595 -0.00554837 0)
(-0.0746542 -0.00596752 0)
(-0.0622898 -0.00630357 0)
(-0.049208 -0.00660641 0)
(-0.0354059 -0.00695718 0)
(-0.0202731 -0.00718734 0)
(-0.00357492 -0.00746603 0)
(0.218333 0.00406901 0)
(0.212141 0.00560985 0)
(0.20293 0.00711802 0)
(0.191664 0.00852821 0)
(0.178546 0.00962626 0)
(0.163832 0.0107274 0)
(0.147748 0.0114389 0)
(0.130582 0.0121866 0)
(0.112582 0.0127675 0)
(0.0940077 0.012914 0)
(0.0751177 0.0131421 0)
(0.0561371 0.0132125 0)
(0.0372431 0.0129069 0)
(0.0184181 0.0126895 0)
(0.000434756 0.0121693 0)
(-0.0165944 0.0117485 0)
(-0.0331334 0.0112495 0)
(-0.0488414 0.010557 0)
(-0.063652 0.0099556 0)
(-0.0775086 0.00931201 0)
(-0.0903769 0.00857479 0)
(-0.102259 0.00791359 0)
(-0.113153 0.00724553 0)
(-0.123067 0.00654769 0)
(-0.13203 0.00590638 0)
(-0.140065 0.00525656 0)
(-0.147204 0.00465344 0)
(-0.153477 0.00406625 0)
(-0.158914 0.00349033 0)
(-0.163548 0.00294343 0)
(-0.167406 0.00241126 0)
(-0.170515 0.00189269 0)
(-0.172902 0.0013914 0)
(-0.174588 0.000901472 0)
(-0.17557 0.000431572 0)
(-0.175871 -4.7797e-05 0)
(-0.175467 -0.000538224 0)
(-0.174371 -0.00102597 0)
(-0.172562 -0.00151933 0)
(-0.170038 -0.00203627 0)
(-0.166773 -0.00255023 0)
(-0.162747 -0.00311338 0)
(-0.157931 -0.00365678 0)
(-0.152269 -0.00423797 0)
(-0.145722 -0.00489325 0)
(-0.138275 -0.00549695 0)
(-0.129886 -0.00612098 0)
(-0.120507 -0.00686921 0)
(-0.110132 -0.0075167 0)
(-0.098727 -0.00815135 0)
(-0.0863149 -0.00895561 0)
(-0.0729019 -0.00958084 0)
(-0.0584121 -0.0103338 0)
(-0.0430351 -0.0109692 0)
(-0.0267987 -0.0114395 0)
(-0.00992031 -0.0120265 0)
(0.00753249 -0.0124293 0)
(0.0256834 -0.0126634 0)
(0.0442554 -0.012973 0)
(0.0630689 -0.0129931 0)
(0.0818993 -0.0129865 0)
(0.100541 -0.0127668 0)
(0.118757 -0.012314 0)
(0.136258 -0.011789 0)
(0.152847 -0.0110985 0)
(0.168294 -0.0101675 0)
(0.18232 -0.00916848 0)
(0.19472 -0.00799356 0)
(0.205328 -0.00673731 0)
(0.214059 -0.00532014 0)
(0.220649 -0.00376983 0)
(0.22495 -0.00228252 0)
(0.226964 -0.000585982 0)