/*--------------------------------*- C++ -*----------------------------------*\
| =========                 |                                                 |
| \\      /  F ield         | OpenFOAM: The Open Source CFD Toolbox           |
|  \\    /   O peration     | Version:  3.0.1                                 |
|   \\  /    A nd           | Web:      www.OpenFOAM.org                      |
|    \\/     M anipulation  |                                                 |
\*---------------------------------------------------------------------------*/
FoamFile
{
    version     2.0;
    format      ascii;
    class       volScalarField;
    location    "7";
    object      p;
}
// * * * * * * * * * * * * * * * * * * * * * * * * * * * * * * * * * * * * * //

dimensions      [1 -1 -2 0 0 0 0];

internalField   nonuniform List<scalar> 
21420
(
4046.94
4078.87
4110.2
4140.42
4169.1
4195.68
4219.73
4240.84
4258.66
4272.96
4283.52
4290.19
4292.75
4290.6
4284.44
4274.56
4261.01
4244.03
4223.89
4200.88
4175.37
4147.69
4118.19
4087.27
4055.3
4022.66
3989.69
3956.73
3924.06
3892.36
3861.9
3831.99
3803.09
3775.44
3749.2
3724.53
3701.53
3680.31
3660.96
3643.55
3628.15
3614.79
3603.53
3594.38
3587.35
3582.41
3579.6
3578.86
3580.15
3583.33
3588.36
3595.13
3603.53
3613.46
3624.8
3637.44
3651.27
3666.2
3682.11
3698.9
3716.5
3734.83
3753.82
3773.39
3793.49
3814.04
3834.99
3856.26
3877.74
3899.32
3921.06
3942.8
3964.41
3985.74
4006.66
4027
4046.59
4065.25
4082.78
4098.99
4113.67
4126.65
4137.73
4146.74
4153.55
4158.05
4160.16
4159.83
4157.06
4151.91
4144.42
4134.71
4122.9
4109.17
4093.69
4076.71
4058.43
4039.13
4019.05
3998.45
3977.6
3956.76
3936.16
3916.03
3896.56
3877.94
3860.31
3843.81
3828.53
3814.57
3801.97
3790.77
3781
3772.64
3765.7
3760.14
3755.93
3753.02
3751.37
3750.93
3751.6
3753.35
3756.09
3759.76
3764.29
3769.61
3775.63
3782.28
3789.49
3797.18
3805.28
3813.7
3822.38
3831.25
3840.24
3849.27
3858.29
3867.22
3876.01
3884.61
3892.96
3901.01
3908.71
3916.02
3922.9
3929.31
3935.23
3940.62
3945.47
3949.76
3953.48
3956.62
3959.2
3961.21
3962.66
3963.58
3963.97
3963.87
3963.3
3962.3
3960.89
3959.1
3956.97
3954.54
3951.85
3948.93
3945.81
3942.54
3939.16
3935.68
3932.15
3928.6
3925.06
3921.54
3918.07
3914.68
3911.37
3908.17
3905.1
3902.15
3899.34
3896.67
3894.15
3891.79
3889.59
3887.53
3885.64
3883.89
3882.29
3880.84
3879.53
3878.36
3877.31
3876.39
3875.58
3874.88
3874.28
3873.77
3873.36
3873.02
3872.76
3872.56
3872.42
3872.34
3872.3
3872.31
3872.35
3872.42
3872.53
3872.65
3872.79
3872.95
3873.12
3873.29
3873.48
3873.66
3873.85
3874.03
3874.22
3874.4
3874.57
3874.74
3874.9
3875.05
3875.19
3875.33
3875.45
3875.57
3875.68
3875.78
3875.87
3875.95
3876.02
3876.08
3876.14
3876.18
3876.22
3876.25
3876.28
3876.3
3876.31
3876.32
3876.32
3876.32
3876.31
3876.3
3876.28
3876.26
3876.24
3876.22
3876.19
3876.16
3876.13
3876.1
3876.07
3876.04
3876
3875.97
3875.93
3875.9
3875.86
3875.82
3875.79
3875.75
3875.72
3875.69
3875.65
3875.62
3875.59
3875.56
3875.53
3875.5
3875.47
3875.44
3875.42
3875.39
3875.37
3875.34
3875.32
3875.3
3875.28
3875.26
3875.24
3875.22
3875.21
3875.19
3875.18
3875.16
3875.15
3875.14
3875.12
3875.11
3875.1
3875.09
3875.08
3875.07
3875.06
3875.06
3875.05
3875.04
3875.04
3875.03
3875.02
3875.02
3875.01
3875.01
3875
3875
3875
3874.99
3874.99
3874.99
3874.98
3874.98
3874.98
3874.98
3874.97
3874.97
3874.97
3874.97
3874.97
3874.97
3874.96
3874.96
3874.96
3874.96
3874.96
3874.96
3874.96
3874.96
3874.96
3874.96
3874.96
3874.96
3874.96
3874.95
3874.95
3874.95
3874.95
3874.95
3874.95
3874.95
3874.95
3874.95
3874.95
3874.95
3874.95
3874.95
3874.95
3874.95
3874.95
3874.95
3874.95
3874.95
3874.95
3874.95
3874.95
3948.84
3980.78
4012.13
4042.36
4071.07
4097.66
4121.73
4142.85
4160.7
4175
4185.57
4192.25
4194.83
4192.66
4186.49
4176.6
4163.04
4146.04
4125.89
4102.87
4077.34
4049.64
4020.12
3989.19
3957.2
3924.54
3891.57
3858.59
3825.92
3794.21
3763.74
3733.83
3704.92
3677.26
3651.02
3626.35
3603.35
3582.13
3562.78
3545.37
3529.96
3516.61
3505.35
3496.2
3489.17
3484.23
3481.42
3480.69
3481.97
3485.16
3490.19
3496.97
3505.37
3515.3
3526.65
3539.29
3553.13
3568.05
3583.96
3600.76
3618.37
3636.7
3655.69
3675.26
3695.36
3715.91
3736.87
3758.14
3779.62
3801.2
3822.95
3844.7
3866.31
3887.65
3908.57
3928.92
3948.52
3967.18
3984.73
4000.94
4015.64
4028.62
4039.7
4048.73
4055.54
4060.04
4062.15
4061.82
4059.06
4053.9
4046.41
4036.69
4024.87
4011.13
3995.65
3978.65
3960.37
3941.05
3920.96
3900.35
3879.49
3858.64
3838.03
3817.89
3798.42
3779.79
3762.16
3745.65
3730.38
3716.41
3703.81
3692.62
3682.84
3674.49
3667.54
3661.99
3657.78
3654.87
3653.22
3652.78
3653.46
3655.21
3657.95
3661.63
3666.16
3671.48
3677.5
3684.16
3691.37
3699.07
3707.16
3715.59
3724.28
3733.15
3742.13
3751.17
3760.19
3769.12
3777.91
3786.52
3794.87
3802.92
3810.63
3817.94
3824.82
3831.23
3837.15
3842.54
3847.39
3851.68
3855.4
3858.55
3861.12
3863.13
3864.58
3865.5
3865.89
3865.79
3865.22
3864.21
3862.8
3861.01
3858.88
3856.45
3853.76
3850.83
3847.72
3844.45
3841.06
3837.58
3834.06
3830.5
3826.95
3823.43
3819.97
3816.57
3813.27
3810.07
3806.99
3804.04
3801.23
3798.56
3796.05
3793.69
3791.48
3789.43
3787.53
3785.79
3784.19
3782.74
3781.43
3780.25
3779.2
3778.28
3777.47
3776.77
3776.18
3775.67
3775.25
3774.92
3774.65
3774.46
3774.32
3774.24
3774.2
3774.21
3774.25
3774.32
3774.42
3774.55
3774.69
3774.85
3775.02
3775.19
3775.38
3775.56
3775.75
3775.93
3776.12
3776.3
3776.47
3776.64
3776.8
3776.95
3777.09
3777.23
3777.35
3777.47
3777.58
3777.68
3777.77
3777.85
3777.92
3777.98
3778.04
3778.08
3778.12
3778.15
3778.18
3778.2
3778.21
3778.22
3778.22
3778.22
3778.21
3778.2
3778.18
3778.16
3778.14
3778.12
3778.09
3778.06
3778.03
3778
3777.97
3777.94
3777.9
3777.87
3777.83
3777.8
3777.76
3777.72
3777.69
3777.65
3777.62
3777.59
3777.55
3777.52
3777.49
3777.46
3777.43
3777.4
3777.37
3777.34
3777.32
3777.29
3777.27
3777.24
3777.22
3777.2
3777.18
3777.16
3777.14
3777.12
3777.11
3777.09
3777.08
3777.06
3777.05
3777.04
3777.02
3777.01
3777
3776.99
3776.98
3776.97
3776.96
3776.96
3776.95
3776.94
3776.94
3776.93
3776.92
3776.92
3776.91
3776.91
3776.9
3776.9
3776.9
3776.89
3776.89
3776.89
3776.88
3776.88
3776.88
3776.88
3776.87
3776.87
3776.87
3776.87
3776.87
3776.87
3776.86
3776.86
3776.86
3776.86
3776.86
3776.86
3776.86
3776.86
3776.86
3776.86
3776.86
3776.86
3776.86
3776.85
3776.85
3776.85
3776.85
3776.85
3776.85
3776.85
3776.85
3776.85
3776.85
3776.85
3776.85
3776.85
3776.85
3776.85
3776.85
3776.85
3776.85
3776.85
3776.85
3776.85
3776.85
3850.72
3882.7
3914.09
3944.36
3973.1
3999.73
4023.84
4044.99
4062.86
4077.19
4087.77
4094.46
4097.09
4094.87
4088.69
4078.78
4065.19
4048.17
4027.98
4004.93
3979.37
3951.64
3922.09
3891.12
3859.1
3826.42
3793.42
3760.42
3727.73
3696.01
3665.52
3635.6
3606.68
3579.02
3552.77
3528.09
3505.09
3483.86
3464.51
3447.1
3431.69
3418.33
3407.07
3397.93
3390.9
3385.97
3383.16
3382.43
3383.71
3386.91
3391.95
3398.74
3407.15
3417.08
3428.44
3441.09
3454.93
3469.87
3485.78
3502.59
3520.2
3538.53
3557.52
3577.11
3597.2
3617.76
3638.72
3660
3681.49
3703.08
3724.83
3746.59
3768.21
3789.56
3810.5
3830.86
3850.47
3869.16
3886.72
3902.95
3917.66
3930.66
3941.76
3950.8
3957.62
3962.13
3964.25
3963.91
3961.14
3955.98
3948.48
3938.74
3926.92
3913.15
3897.65
3880.63
3862.33
3842.99
3822.88
3802.25
3781.37
3760.5
3739.88
3719.72
3700.24
3681.6
3663.96
3647.45
3632.16
3618.2
3605.6
3594.4
3584.62
3576.27
3569.33
3563.78
3559.58
3556.67
3555.03
3554.59
3555.27
3557.03
3559.78
3563.46
3568
3573.32
3579.35
3586.01
3593.23
3600.93
3609.03
3617.47
3626.16
3635.03
3644.03
3653.07
3662.09
3671.03
3679.83
3688.43
3696.79
3704.85
3712.55
3719.87
3726.75
3733.17
3739.09
3744.48
3749.33
3753.62
3757.34
3760.49
3763.06
3765.07
3766.52
3767.44
3767.83
3767.73
3767.16
3766.15
3764.73
3762.94
3760.81
3758.37
3755.68
3752.75
3749.63
3746.36
3742.97
3739.49
3735.96
3732.4
3728.85
3725.33
3721.86
3718.47
3715.16
3711.96
3708.88
3705.93
3703.12
3700.45
3697.94
3695.57
3693.37
3691.32
3689.42
3687.67
3686.08
3684.63
3683.32
3682.14
3681.09
3680.17
3679.37
3678.67
3678.07
3677.56
3677.15
3676.81
3676.55
3676.35
3676.21
3676.13
3676.1
3676.1
3676.15
3676.22
3676.32
3676.45
3676.59
3676.75
3676.92
3677.09
3677.28
3677.46
3677.65
3677.83
3678.02
3678.2
3678.37
3678.54
3678.7
3678.85
3678.99
3679.13
3679.26
3679.37
3679.48
3679.58
3679.67
3679.75
3679.82
3679.88
3679.94
3679.98
3680.02
3680.05
3680.08
3680.1
3680.11
3680.12
3680.12
3680.12
3680.11
3680.1
3680.08
3680.06
3680.04
3680.02
3679.99
3679.96
3679.93
3679.9
3679.87
3679.84
3679.8
3679.77
3679.73
3679.7
3679.66
3679.62
3679.59
3679.55
3679.52
3679.49
3679.45
3679.42
3679.39
3679.36
3679.33
3679.3
3679.27
3679.24
3679.22
3679.19
3679.17
3679.14
3679.12
3679.1
3679.08
3679.06
3679.04
3679.02
3679.01
3678.99
3678.98
3678.96
3678.95
3678.94
3678.92
3678.91
3678.9
3678.89
3678.88
3678.87
3678.86
3678.86
3678.85
3678.84
3678.84
3678.83
3678.82
3678.82
3678.81
3678.81
3678.8
3678.8
3678.8
3678.79
3678.79
3678.79
3678.78
3678.78
3678.78
3678.78
3678.77
3678.77
3678.77
3678.77
3678.77
3678.77
3678.76
3678.76
3678.76
3678.76
3678.76
3678.76
3678.76
3678.76
3678.76
3678.76
3678.76
3678.76
3678.76
3678.75
3678.75
3678.75
3678.75
3678.75
3678.75
3678.75
3678.75
3678.75
3678.75
3678.75
3678.75
3678.75
3678.75
3678.75
3678.75
3678.75
3678.75
3678.75
3678.75
3678.75
3678.75
3752.6
3784.64
3816.07
3846.4
3875.2
3901.89
3926.04
3947.25
3965.16
3979.52
3990.12
3996.82
3999.5
3997.24
3991.05
3981.1
3967.48
3950.42
3930.18
3907.09
3881.48
3853.69
3824.09
3793.08
3761.01
3728.29
3695.24
3662.22
3629.5
3597.75
3567.24
3537.3
3508.37
3480.7
3454.44
3429.75
3406.74
3385.51
3366.16
3348.74
3333.33
3319.97
3308.71
3299.57
3292.55
3287.62
3284.82
3284.09
3285.38
3288.59
3293.65
3300.44
3308.87
3318.81
3330.18
3342.84
3356.69
3371.63
3387.56
3404.37
3421.99
3440.33
3459.33
3478.92
3499.02
3519.59
3540.55
3561.84
3583.34
3604.94
3626.7
3648.47
3670.11
3691.48
3712.44
3732.82
3752.46
3771.17
3788.75
3805.01
3819.75
3832.77
3843.9
3852.95
3859.79
3864.31
3866.44
3866.1
3863.32
3858.15
3850.63
3840.88
3829.03
3815.24
3799.71
3782.66
3764.33
3744.95
3724.81
3704.15
3683.24
3662.34
3641.69
3621.52
3602.01
3583.36
3565.7
3549.18
3533.9
3519.92
3507.32
3496.13
3486.35
3478
3471.07
3465.52
3461.32
3458.42
3456.79
3456.36
3457.05
3458.81
3461.57
3465.26
3469.81
3475.14
3481.17
3487.84
3495.07
3502.78
3510.89
3519.33
3528.03
3536.91
3545.91
3554.96
3563.99
3572.94
3581.74
3590.36
3598.72
3606.78
3614.5
3621.82
3628.71
3635.13
3641.05
3646.44
3651.3
3655.59
3659.31
3662.46
3665.03
3667.04
3668.49
3669.4
3669.79
3669.68
3669.11
3668.09
3666.67
3664.88
3662.74
3660.31
3657.6
3654.67
3651.55
3648.27
3644.88
3641.39
3637.86
3634.3
3630.75
3627.22
3623.75
3620.35
3617.05
3613.85
3610.76
3607.81
3605
3602.33
3599.82
3597.46
3595.25
3593.2
3591.3
3589.56
3587.96
3586.51
3585.2
3584.02
3582.98
3582.06
3581.25
3580.55
3579.96
3579.45
3579.04
3578.7
3578.44
3578.24
3578.11
3578.03
3577.99
3578
3578.04
3578.12
3578.22
3578.34
3578.49
3578.65
3578.81
3578.99
3579.18
3579.36
3579.55
3579.73
3579.92
3580.1
3580.27
3580.44
3580.6
3580.75
3580.9
3581.03
3581.16
3581.27
3581.38
3581.48
3581.57
3581.65
3581.72
3581.78
3581.84
3581.88
3581.92
3581.96
3581.98
3582
3582.01
3582.02
3582.02
3582.02
3582.01
3582
3581.98
3581.97
3581.94
3581.92
3581.89
3581.87
3581.84
3581.8
3581.77
3581.74
3581.7
3581.67
3581.63
3581.6
3581.56
3581.52
3581.49
3581.45
3581.42
3581.39
3581.35
3581.32
3581.29
3581.26
3581.23
3581.2
3581.17
3581.14
3581.12
3581.09
3581.07
3581.04
3581.02
3581
3580.98
3580.96
3580.94
3580.92
3580.91
3580.89
3580.88
3580.86
3580.85
3580.84
3580.82
3580.81
3580.8
3580.79
3580.78
3580.77
3580.76
3580.76
3580.75
3580.74
3580.74
3580.73
3580.72
3580.72
3580.71
3580.71
3580.7
3580.7
3580.7
3580.69
3580.69
3580.69
3580.68
3580.68
3580.68
3580.68
3580.67
3580.67
3580.67
3580.67
3580.67
3580.67
3580.66
3580.66
3580.66
3580.66
3580.66
3580.66
3580.66
3580.66
3580.66
3580.66
3580.66
3580.66
3580.66
3580.65
3580.65
3580.65
3580.65
3580.65
3580.65
3580.65
3580.65
3580.65
3580.65
3580.65
3580.65
3580.65
3580.65
3580.65
3580.65
3580.65
3580.65
3580.65
3580.65
3580.65
3580.65
3654.48
3686.58
3718.09
3748.49
3777.37
3804.13
3828.35
3849.62
3867.59
3881.99
3892.62
3899.34
3902.04
3899.77
3893.55
3883.56
3869.89
3852.78
3832.48
3809.32
3783.64
3755.79
3726.13
3695.05
3662.92
3630.14
3597.05
3563.97
3531.23
3499.44
3468.9
3438.94
3409.99
3382.3
3356.03
3331.33
3308.31
3287.08
3267.72
3250.3
3234.89
3221.53
3210.27
3201.13
3194.11
3189.2
3186.4
3185.67
3186.98
3190.2
3195.27
3202.08
3210.52
3220.48
3231.86
3244.54
3258.4
3273.36
3289.3
3306.12
3323.75
3342.1
3361.11
3380.7
3400.82
3421.39
3442.36
3463.66
3485.17
3506.78
3528.57
3550.35
3572.01
3593.41
3614.39
3634.8
3654.47
3673.21
3690.83
3707.13
3721.9
3734.96
3746.11
3755.19
3762.06
3766.59
3768.72
3768.38
3765.6
3760.41
3752.88
3743.1
3731.22
3717.39
3701.83
3684.73
3666.35
3646.94
3626.75
3606.05
3585.1
3564.16
3543.48
3523.28
3503.75
3485.07
3467.4
3450.87
3435.57
3421.59
3408.99
3397.79
3388.02
3379.68
3372.75
3367.2
3363.01
3360.13
3358.5
3358.08
3358.78
3360.55
3363.32
3367.02
3371.58
3376.92
3382.97
3389.65
3396.89
3404.61
3412.73
3421.18
3429.89
3438.79
3447.8
3456.86
3465.9
3474.86
3483.67
3492.29
3500.66
3508.73
3516.45
3523.78
3530.68
3537.1
3543.03
3548.43
3553.28
3557.58
3561.3
3564.45
3567.02
3569.02
3570.47
3571.38
3571.77
3571.66
3571.08
3570.06
3568.63
3566.83
3564.69
3562.25
3559.54
3556.6
3553.47
3550.19
3546.79
3543.3
3539.76
3536.2
3532.64
3529.11
3525.64
3522.24
3518.93
3515.73
3512.64
3509.69
3506.88
3504.21
3501.69
3499.33
3497.12
3495.07
3493.18
3491.43
3489.84
3488.39
3487.08
3485.9
3484.86
3483.94
3483.14
3482.44
3481.84
3481.34
3480.92
3480.59
3480.33
3480.13
3480
3479.92
3479.89
3479.89
3479.94
3480.01
3480.12
3480.24
3480.39
3480.54
3480.71
3480.89
3481.07
3481.26
3481.45
3481.63
3481.82
3482
3482.17
3482.34
3482.5
3482.65
3482.8
3482.93
3483.06
3483.18
3483.28
3483.38
3483.47
3483.55
3483.62
3483.68
3483.74
3483.79
3483.82
3483.86
3483.88
3483.9
3483.91
3483.92
3483.92
3483.92
3483.91
3483.9
3483.88
3483.87
3483.84
3483.82
3483.79
3483.77
3483.74
3483.7
3483.67
3483.64
3483.6
3483.57
3483.53
3483.5
3483.46
3483.42
3483.39
3483.35
3483.32
3483.29
3483.25
3483.22
3483.19
3483.16
3483.13
3483.1
3483.07
3483.04
3483.02
3482.99
3482.97
3482.94
3482.92
3482.9
3482.88
3482.86
3482.84
3482.82
3482.81
3482.79
3482.78
3482.76
3482.75
3482.74
3482.72
3482.71
3482.7
3482.69
3482.68
3482.67
3482.66
3482.66
3482.65
3482.64
3482.64
3482.63
3482.62
3482.62
3482.61
3482.61
3482.6
3482.6
3482.6
3482.59
3482.59
3482.59
3482.58
3482.58
3482.58
3482.58
3482.57
3482.57
3482.57
3482.57
3482.57
3482.57
3482.56
3482.56
3482.56
3482.56
3482.56
3482.56
3482.56
3482.56
3482.56
3482.56
3482.56
3482.56
3482.56
3482.55
3482.55
3482.55
3482.55
3482.55
3482.55
3482.55
3482.55
3482.55
3482.55
3482.55
3482.55
3482.55
3482.55
3482.55
3482.55
3482.55
3482.55
3482.55
3482.55
3482.55
3482.55
3556.34
3588.52
3620.13
3650.62
3679.6
3706.45
3730.77
3752.11
3770.15
3784.6
3795.27
3802.01
3804.73
3802.46
3796.21
3786.16
3772.43
3755.25
3734.88
3711.64
3685.88
3657.94
3628.19
3597.03
3564.83
3531.98
3498.82
3465.7
3432.91
3401.08
3370.5
3340.52
3311.55
3283.83
3257.55
3232.83
3209.81
3188.56
3169.2
3151.77
3136.35
3123
3111.74
3102.6
3095.59
3090.69
3087.9
3087.18
3088.5
3091.74
3096.83
3103.66
3112.11
3122.09
3133.49
3146.19
3160.07
3175.04
3190.99
3207.83
3225.47
3243.83
3262.85
3282.46
3302.58
3323.16
3344.15
3365.46
3386.99
3408.61
3430.42
3452.23
3473.92
3495.34
3516.35
3536.8
3556.51
3575.29
3592.96
3609.3
3624.11
3637.21
3648.4
3657.52
3664.41
3668.96
3671.09
3670.76
3667.97
3662.77
3655.21
3645.39
3633.47
3619.61
3603.99
3586.85
3568.41
3548.94
3528.7
3507.94
3486.95
3465.96
3445.24
3425
3405.44
3386.74
3369.05
3352.5
3337.19
3323.21
3310.6
3299.4
3289.63
3281.29
3274.37
3268.83
3264.65
3261.78
3260.17
3259.75
3260.47
3262.25
3265.04
3268.75
3273.32
3278.68
3284.74
3291.44
3298.69
3306.42
3314.56
3323.02
3331.75
3340.66
3349.68
3358.75
3367.8
3376.78
3385.6
3394.23
3402.61
3410.69
3418.42
3425.76
3432.66
3439.09
3445.03
3450.43
3455.29
3459.59
3463.31
3466.46
3469.03
3471.03
3472.48
3473.38
3473.76
3473.65
3473.06
3472.04
3470.6
3468.8
3466.65
3464.2
3461.48
3458.54
3455.4
3452.11
3448.7
3445.21
3441.66
3438.1
3434.53
3431
3427.52
3424.12
3420.81
3417.6
3414.52
3411.56
3408.75
3406.08
3403.56
3401.2
3398.99
3396.94
3395.05
3393.3
3391.71
3390.26
3388.95
3387.78
3386.74
3385.82
3385.01
3384.32
3383.72
3383.22
3382.81
3382.48
3382.22
3382.02
3381.89
3381.81
3381.78
3381.79
3381.83
3381.91
3382.01
3382.14
3382.28
3382.44
3382.61
3382.79
3382.97
3383.16
3383.35
3383.54
3383.72
3383.9
3384.07
3384.24
3384.4
3384.55
3384.7
3384.83
3384.96
3385.08
3385.18
3385.28
3385.37
3385.45
3385.52
3385.59
3385.64
3385.69
3385.73
3385.76
3385.78
3385.8
3385.81
3385.82
3385.82
3385.82
3385.81
3385.8
3385.78
3385.77
3385.74
3385.72
3385.69
3385.67
3385.64
3385.6
3385.57
3385.54
3385.5
3385.47
3385.43
3385.4
3385.36
3385.32
3385.29
3385.25
3385.22
3385.19
3385.15
3385.12
3385.09
3385.06
3385.03
3385
3384.97
3384.94
3384.92
3384.89
3384.87
3384.84
3384.82
3384.8
3384.78
3384.76
3384.74
3384.72
3384.71
3384.69
3384.68
3384.66
3384.65
3384.64
3384.62
3384.61
3384.6
3384.59
3384.58
3384.57
3384.56
3384.56
3384.55
3384.54
3384.54
3384.53
3384.52
3384.52
3384.51
3384.51
3384.5
3384.5
3384.5
3384.49
3384.49
3384.49
3384.48
3384.48
3384.48
3384.48
3384.47
3384.47
3384.47
3384.47
3384.47
3384.47
3384.46
3384.46
3384.46
3384.46
3384.46
3384.46
3384.46
3384.46
3384.46
3384.46
3384.46
3384.46
3384.46
3384.45
3384.45
3384.45
3384.45
3384.45
3384.45
3384.45
3384.45
3384.45
3384.45
3384.45
3384.45
3384.45
3384.45
3384.45
3384.45
3384.45
3384.45
3384.45
3384.45
3384.45
3384.45
3458.2
3490.48
3522.2
3552.81
3581.9
3608.86
3633.28
3654.73
3672.84
3687.36
3698.08
3704.84
3707.57
3705.3
3699.01
3688.9
3675.1
3657.84
3637.38
3614.04
3588.18
3560.14
3530.29
3499.04
3466.74
3433.81
3400.57
3367.38
3334.55
3302.66
3272.04
3242.03
3213.03
3185.29
3158.98
3134.26
3111.22
3089.96
3070.59
3053.16
3037.74
3024.38
3013.12
3003.99
2996.98
2992.09
2989.32
2988.61
2989.94
2993.21
2998.32
3005.17
3013.64
3023.65
3035.07
3047.78
3061.69
3076.68
3092.65
3109.5
3127.16
3145.53
3164.56
3184.18
3204.32
3224.92
3245.91
3267.24
3288.79
3310.43
3332.26
3354.1
3375.82
3397.27
3418.33
3438.82
3458.57
3477.41
3495.13
3511.52
3526.39
3539.54
3550.77
3559.93
3566.85
3571.42
3573.57
3573.24
3570.44
3565.21
3557.62
3547.77
3535.8
3521.88
3506.21
3489
3470.5
3450.96
3430.65
3409.84
3388.78
3367.75
3346.97
3326.69
3307.09
3288.36
3270.64
3254.08
3238.76
3224.76
3212.15
3200.95
3191.19
3182.85
3175.94
3170.41
3166.24
3163.39
3161.79
3161.39
3162.12
3163.92
3166.72
3170.44
3175.03
3180.41
3186.49
3193.2
3200.47
3208.22
3216.37
3224.85
3233.59
3242.52
3251.56
3260.64
3269.71
3278.7
3287.53
3296.18
3304.58
3312.67
3320.41
3327.76
3334.67
3341.11
3347.04
3352.46
3357.32
3361.62
3365.34
3368.49
3371.06
3373.06
3374.51
3375.4
3375.78
3375.66
3375.07
3374.03
3372.59
3370.78
3368.62
3366.16
3363.43
3360.48
3357.34
3354.04
3350.62
3347.12
3343.57
3339.99
3336.43
3332.89
3329.41
3326
3322.68
3319.47
3316.38
3313.43
3310.61
3307.94
3305.43
3303.06
3300.86
3298.81
3296.91
3295.17
3293.57
3292.13
3290.82
3289.65
3288.61
3287.69
3286.89
3286.19
3285.6
3285.1
3284.69
3284.36
3284.1
3283.91
3283.78
3283.7
3283.67
3283.68
3283.72
3283.8
3283.91
3284.03
3284.18
3284.34
3284.51
3284.69
3284.87
3285.06
3285.25
3285.44
3285.62
3285.8
3285.97
3286.14
3286.3
3286.46
3286.6
3286.74
3286.86
3286.98
3287.09
3287.19
3287.27
3287.35
3287.43
3287.49
3287.54
3287.59
3287.63
3287.66
3287.68
3287.7
3287.71
3287.72
3287.72
3287.72
3287.71
3287.7
3287.69
3287.67
3287.65
3287.62
3287.59
3287.57
3287.54
3287.5
3287.47
3287.44
3287.4
3287.37
3287.33
3287.3
3287.26
3287.22
3287.19
3287.15
3287.12
3287.09
3287.05
3287.02
3286.99
3286.96
3286.93
3286.9
3286.87
3286.84
3286.82
3286.79
3286.77
3286.74
3286.72
3286.7
3286.68
3286.66
3286.64
3286.62
3286.61
3286.59
3286.58
3286.56
3286.55
3286.54
3286.52
3286.51
3286.5
3286.49
3286.48
3286.47
3286.46
3286.46
3286.45
3286.44
3286.44
3286.43
3286.42
3286.42
3286.41
3286.41
3286.4
3286.4
3286.4
3286.39
3286.39
3286.39
3286.38
3286.38
3286.38
3286.38
3286.37
3286.37
3286.37
3286.37
3286.37
3286.37
3286.36
3286.36
3286.36
3286.36
3286.36
3286.36
3286.36
3286.36
3286.36
3286.36
3286.36
3286.36
3286.36
3286.35
3286.35
3286.35
3286.35
3286.35
3286.35
3286.35
3286.35
3286.35
3286.35
3286.35
3286.35
3286.35
3286.35
3286.35
3286.35
3286.35
3286.35
3286.35
3286.35
3286.35
3286.35
3360.05
3392.45
3424.29
3455.04
3484.26
3511.36
3535.9
3557.46
3575.67
3590.26
3601.04
3607.83
3610.56
3608.29
3601.96
3591.78
3577.9
3560.54
3539.98
3516.53
3490.55
3462.4
3432.43
3401.06
3368.66
3335.62
3302.3
3269.03
3236.14
3204.19
3173.52
3143.47
3114.44
3086.67
3060.34
3035.6
3012.54
2991.28
2971.9
2954.46
2939.03
2925.67
2914.41
2905.29
2898.29
2893.42
2890.66
2889.96
2891.31
2894.6
2899.74
2906.61
2915.11
2925.14
2936.59
2949.33
2963.26
2978.27
2994.26
3011.14
3028.81
3047.2
3066.25
3085.88
3106.03
3126.64
3147.65
3169
3190.57
3212.24
3234.1
3255.97
3277.72
3299.22
3320.32
3340.86
3360.67
3379.56
3397.34
3413.8
3428.73
3441.93
3453.22
3462.42
3469.38
3473.98
3476.14
3475.81
3473
3467.75
3460.12
3450.23
3438.21
3424.23
3408.48
3391.2
3372.63
3353.01
3332.62
3311.73
3290.61
3269.51
3248.68
3228.34
3208.7
3189.93
3172.19
3155.6
3140.26
3126.26
3113.64
3102.45
3092.68
3084.36
3077.45
3071.94
3067.78
3064.94
3063.36
3062.97
3063.72
3065.54
3068.36
3072.11
3076.71
3082.1
3088.2
3094.94
3102.23
3110
3118.17
3126.67
3135.43
3144.37
3153.43
3162.54
3171.62
3180.62
3189.47
3198.14
3206.55
3214.65
3222.41
3229.77
3236.69
3243.14
3249.08
3254.5
3259.37
3263.67
3267.4
3270.55
3273.12
3275.12
3276.55
3277.45
3277.82
3277.69
3277.09
3276.05
3274.6
3272.77
3270.6
3268.13
3265.4
3262.43
3259.28
3255.97
3252.54
3249.03
3245.47
3241.89
3238.32
3234.77
3231.28
3227.87
3224.55
3221.34
3218.25
3215.29
3212.47
3209.8
3207.28
3204.92
3202.71
3200.66
3198.77
3197.03
3195.43
3193.99
3192.68
3191.51
3190.47
3189.56
3188.76
3188.07
3187.47
3186.98
3186.57
3186.24
3185.98
3185.79
3185.66
3185.59
3185.56
3185.57
3185.62
3185.69
3185.8
3185.93
3186.07
3186.24
3186.41
3186.59
3186.77
3186.96
3187.15
3187.34
3187.52
3187.7
3187.88
3188.05
3188.21
3188.36
3188.5
3188.64
3188.76
3188.88
3188.99
3189.09
3189.18
3189.26
3189.33
3189.39
3189.44
3189.49
3189.53
3189.56
3189.59
3189.6
3189.62
3189.62
3189.62
3189.62
3189.61
3189.6
3189.59
3189.57
3189.55
3189.52
3189.5
3189.47
3189.44
3189.4
3189.37
3189.34
3189.3
3189.27
3189.23
3189.2
3189.16
3189.12
3189.09
3189.05
3189.02
3188.99
3188.95
3188.92
3188.89
3188.86
3188.83
3188.8
3188.77
3188.74
3188.72
3188.69
3188.67
3188.64
3188.62
3188.6
3188.58
3188.56
3188.54
3188.52
3188.51
3188.49
3188.48
3188.46
3188.45
3188.44
3188.42
3188.41
3188.4
3188.39
3188.38
3188.37
3188.36
3188.36
3188.35
3188.34
3188.34
3188.33
3188.32
3188.32
3188.31
3188.31
3188.3
3188.3
3188.3
3188.29
3188.29
3188.29
3188.28
3188.28
3188.28
3188.28
3188.27
3188.27
3188.27
3188.27
3188.27
3188.27
3188.26
3188.26
3188.26
3188.26
3188.26
3188.26
3188.26
3188.26
3188.26
3188.26
3188.26
3188.26
3188.26
3188.25
3188.25
3188.25
3188.25
3188.25
3188.25
3188.25
3188.25
3188.25
3188.25
3188.25
3188.25
3188.25
3188.25
3188.25
3188.25
3188.25
3188.25
3188.25
3188.25
3188.25
3188.25
3261.88
3294.42
3326.41
3357.31
3386.69
3413.94
3438.62
3460.31
3478.63
3493.31
3504.15
3510.97
3513.72
3511.43
3505.05
3494.8
3480.82
3463.36
3442.68
3419.1
3392.99
3364.7
3334.59
3303.1
3270.57
3237.42
3203.99
3170.64
3137.69
3105.67
3074.94
3044.85
3015.78
2987.98
2961.63
2936.86
2913.79
2892.51
2873.12
2855.67
2840.24
2826.88
2815.62
2806.5
2799.51
2794.66
2791.91
2791.23
2792.61
2795.93
2801.09
2807.99
2816.52
2826.58
2838.06
2850.83
2864.78
2879.82
2895.84
2912.73
2930.42
2948.83
2967.9
2987.54
3007.71
3028.34
3049.37
3070.73
3092.33
3114.03
3135.92
3157.83
3179.62
3201.17
3222.32
3242.92
3262.79
3281.75
3299.6
3316.13
3331.13
3344.4
3355.75
3365.01
3372
3376.63
3378.81
3378.48
3375.66
3370.38
3362.71
3352.76
3340.68
3326.63
3310.81
3293.44
3274.78
3255.08
3234.6
3213.63
3192.42
3171.25
3150.35
3129.95
3110.26
3091.45
3073.68
3057.06
3041.71
3027.7
3015.08
3003.88
2994.12
2985.8
2978.91
2973.41
2969.27
2966.44
2964.88
2964.52
2965.28
2967.12
2969.96
2973.73
2978.36
2983.77
2989.9
2996.65
3003.96
3011.76
3019.95
3028.48
3037.26
3046.22
3055.3
3064.43
3073.53
3082.55
3091.42
3100.1
3108.53
3116.65
3124.42
3131.79
3138.73
3145.19
3151.14
3156.57
3161.44
3165.75
3169.48
3172.63
3175.2
3177.19
3178.62
3179.51
3179.87
3179.74
3179.13
3178.07
3176.61
3174.77
3172.6
3170.11
3167.37
3164.39
3161.22
3157.9
3154.47
3150.95
3147.38
3143.79
3140.2
3136.65
3133.16
3129.74
3126.41
3123.2
3120.1
3117.14
3114.32
3111.65
3109.13
3106.77
3104.56
3102.51
3100.62
3098.88
3097.29
3095.84
3094.54
3093.37
3092.33
3091.42
3090.62
3089.93
3089.34
3088.85
3088.44
3088.12
3087.86
3087.67
3087.55
3087.47
3087.44
3087.46
3087.51
3087.59
3087.69
3087.82
3087.97
3088.13
3088.3
3088.49
3088.67
3088.86
3089.05
3089.24
3089.42
3089.6
3089.78
3089.95
3090.11
3090.26
3090.41
3090.54
3090.67
3090.78
3090.89
3090.99
3091.08
3091.16
3091.23
3091.29
3091.35
3091.39
3091.43
3091.46
3091.49
3091.51
3091.52
3091.52
3091.53
3091.52
3091.51
3091.5
3091.49
3091.47
3091.45
3091.42
3091.4
3091.37
3091.34
3091.3
3091.27
3091.24
3091.2
3091.17
3091.13
3091.1
3091.06
3091.02
3090.99
3090.95
3090.92
3090.89
3090.85
3090.82
3090.79
3090.76
3090.73
3090.7
3090.67
3090.64
3090.62
3090.59
3090.57
3090.54
3090.52
3090.5
3090.48
3090.46
3090.44
3090.42
3090.41
3090.39
3090.38
3090.36
3090.35
3090.34
3090.32
3090.31
3090.3
3090.29
3090.28
3090.27
3090.26
3090.26
3090.25
3090.24
3090.23
3090.23
3090.22
3090.22
3090.21
3090.21
3090.2
3090.2
3090.2
3090.19
3090.19
3090.19
3090.18
3090.18
3090.18
3090.18
3090.17
3090.17
3090.17
3090.17
3090.17
3090.17
3090.16
3090.16
3090.16
3090.16
3090.16
3090.16
3090.16
3090.16
3090.16
3090.16
3090.16
3090.16
3090.16
3090.15
3090.15
3090.15
3090.15
3090.15
3090.15
3090.15
3090.15
3090.15
3090.15
3090.15
3090.15
3090.15
3090.15
3090.15
3090.15
3090.15
3090.15
3090.15
3090.15
3090.15
3090.15
3163.71
3196.41
3228.56
3259.63
3289.19
3316.6
3341.45
3363.28
3381.73
3396.51
3407.41
3414.27
3417.03
3414.72
3408.29
3397.96
3383.88
3366.3
3345.48
3321.75
3295.49
3267.05
3236.79
3205.15
3172.49
3139.21
3105.66
3072.21
3039.18
3007.1
2976.3
2946.16
2917.04
2889.21
2862.83
2838.04
2814.95
2793.66
2774.26
2756.8
2741.36
2728
2716.74
2707.62
2700.65
2695.81
2693.08
2692.42
2693.83
2697.18
2702.37
2709.3
2717.87
2727.96
2739.47
2752.27
2766.26
2781.33
2797.37
2814.29
2832
2850.43
2869.52
2889.18
2909.37
2930.01
2951.07
2972.45
2994.08
3015.81
3037.73
3059.68
3081.52
3103.12
3124.33
3144.99
3164.94
3183.97
3201.9
3218.51
3233.59
3246.94
3258.36
3267.67
3274.72
3279.38
3281.57
3281.24
3278.41
3273.1
3265.38
3255.38
3243.23
3229.1
3213.19
3195.73
3176.97
3157.16
3136.59
3115.52
3094.22
3072.96
3051.99
3031.53
3011.79
2992.93
2975.12
2958.48
2943.1
2929.08
2916.45
2905.25
2895.5
2887.19
2880.31
2874.82
2870.7
2867.9
2866.36
2866.01
2866.8
2868.67
2871.53
2875.32
2879.98
2885.42
2891.56
2898.35
2905.68
2913.5
2921.72
2930.27
2939.07
2948.06
2957.17
2966.31
2975.44
2984.49
2993.38
3002.08
3010.52
3018.66
3026.45
3033.84
3040.79
3047.26
3053.22
3058.66
3063.54
3067.85
3071.58
3074.73
3077.3
3079.29
3080.72
3081.6
3081.95
3081.8
3081.18
3080.12
3078.64
3076.79
3074.6
3072.11
3069.34
3066.35
3063.18
3059.84
3056.39
3052.86
3049.28
3045.68
3042.09
3038.53
3035.03
3031.6
3028.27
3025.05
3021.96
3018.99
3016.17
3013.5
3010.98
3008.61
3006.41
3004.36
3002.46
3000.72
2999.14
2997.69
2996.39
2995.23
2994.19
2993.28
2992.49
2991.8
2991.21
2990.72
2990.31
2989.99
2989.74
2989.55
2989.43
2989.35
2989.33
2989.34
2989.39
2989.48
2989.59
2989.72
2989.87
2990.03
2990.2
2990.38
2990.57
2990.76
2990.95
2991.14
2991.32
2991.51
2991.68
2991.85
2992.01
2992.16
2992.31
2992.44
2992.57
2992.69
2992.8
2992.89
2992.98
2993.06
2993.13
2993.2
2993.25
2993.3
2993.33
2993.37
2993.39
2993.41
2993.42
2993.43
2993.43
2993.42
2993.42
2993.4
2993.39
2993.37
2993.35
2993.32
2993.3
2993.27
2993.24
2993.21
2993.17
2993.14
2993.1
2993.07
2993.03
2993
2992.96
2992.92
2992.89
2992.85
2992.82
2992.79
2992.75
2992.72
2992.69
2992.66
2992.63
2992.6
2992.57
2992.54
2992.52
2992.49
2992.47
2992.44
2992.42
2992.4
2992.38
2992.36
2992.34
2992.32
2992.31
2992.29
2992.28
2992.26
2992.25
2992.23
2992.22
2992.21
2992.2
2992.19
2992.18
2992.17
2992.16
2992.16
2992.15
2992.14
2992.13
2992.13
2992.12
2992.12
2992.11
2992.11
2992.1
2992.1
2992.1
2992.09
2992.09
2992.09
2992.08
2992.08
2992.08
2992.08
2992.07
2992.07
2992.07
2992.07
2992.07
2992.07
2992.06
2992.06
2992.06
2992.06
2992.06
2992.06
2992.06
2992.06
2992.06
2992.06
2992.06
2992.06
2992.06
2992.05
2992.05
2992.05
2992.05
2992.05
2992.05
2992.05
2992.05
2992.05
2992.05
2992.05
2992.05
2992.05
2992.05
2992.05
2992.05
2992.05
2992.05
2992.05
2992.05
2992.05
2992.05
3065.53
3098.4
3130.74
3162
3191.75
3219.35
3244.38
3266.37
3284.96
3299.85
3310.83
3317.73
3320.49
3318.17
3311.68
3301.26
3287.07
3269.35
3248.38
3224.49
3198.06
3169.44
3139.02
3107.21
3074.4
3040.98
3007.3
2973.73
2940.62
2908.48
2877.61
2847.41
2818.24
2790.37
2763.96
2739.14
2716.03
2694.73
2675.31
2657.84
2642.4
2629.03
2617.78
2608.66
2601.7
2596.88
2594.17
2593.54
2594.97
2598.35
2603.58
2610.55
2619.15
2629.28
2640.83
2653.67
2667.69
2682.79
2698.86
2715.81
2733.55
2752
2771.1
2790.79
2810.99
2831.66
2852.74
2874.15
2895.8
2917.57
2939.54
2961.53
2983.42
3005.08
3026.35
3047.09
3067.11
3086.23
3104.25
3120.95
3136.12
3149.55
3161.05
3170.43
3177.53
3182.23
3184.44
3184.11
3181.26
3175.91
3168.15
3158.08
3145.85
3131.63
3115.62
3098.06
3079.18
3059.27
3038.58
3017.41
2996.01
2974.66
2953.61
2933.07
2913.27
2894.36
2876.51
2859.83
2844.44
2830.4
2817.77
2806.57
2796.82
2788.52
2781.65
2776.19
2772.09
2769.3
2767.79
2767.47
2768.28
2770.17
2773.06
2776.88
2781.56
2787.03
2793.21
2800.01
2807.38