/*--------------------------------*- C++ -*----------------------------------*\
| =========                 |                                                 |
| \\      /  F ield         | OpenFOAM: The Open Source CFD Toolbox           |
|  \\    /   O peration     | Version:  3.0.1                                 |
|   \\  /    A nd           | Web:      www.OpenFOAM.org                      |
|    \\/     M anipulation  |                                                 |
\*---------------------------------------------------------------------------*/
FoamFile
{
    version     2.0;
    format      ascii;
    class       volScalarField;
    location    "76.8";
    object      p_rgh;
}
// * * * * * * * * * * * * * * * * * * * * * * * * * * * * * * * * * * * * * //

dimensions      [1 -1 -2 0 0 0 0];

internalField   nonuniform List<scalar> 
21420
(
387.155
402.097
413.162
420.247
423.308
422.124
416.797
407.439
394.156
377.113
356.557
332.786
306.171
277.069
245.892
213.033
178.904
143.977
108.649
73.3368
38.4977
6.37763
-26.5382
-58.3209
-88.7028
-117.504
-144.608
-169.919
-193.392
-215.006
-234.755
-252.661
-268.757
-283.083
-295.687
-306.612
-315.906
-323.611
-329.763
-334.394
-337.533
-339.16
-339.265
-337.738
-334.751
-330.199
-324.075
-316.362
-307.001
-295.96
-283.207
-268.694
-252.404
-234.315
-214.395
-192.671
-169.188
-143.975
-117.125
-88.7566
-59.0001
-28.0417
3.92012
36.6605
69.9087
103.361
136.717
169.64
201.8
232.847
262.428
290.206
315.848
339.023
359.44
376.821
390.907
401.468
408.32
411.335
410.406
405.53
396.744
384.086
367.739
347.915
324.866
298.901
270.365
239.635
207.111
173.202
138.327
102.906
67.3554
32.0773
-2.54555
-36.1609
-68.4546
-99.1567
-128.05
-154.97
-179.805
-202.494
-223.018
-241.397
-257.679
-271.933
-284.24
-294.687
-303.363
-310.352
-315.726
-319.558
-321.926
-322.862
-322.387
-320.581
-317.467
-313.048
-307.339
-300.342
-292.052
-282.459
-271.544
-259.288
-245.669
-230.657
-214.224
-196.339
-176.967
-156.092
-133.702
-109.8
-84.4135
-57.6002
-29.4441
-0.0706116
30.3666
61.7352
93.6287
125.831
158.03
189.869
220.968
250.926
279.335
305.786
329.88
351.239
369.51
384.382
395.589
402.92
406.204
405.368
400.407
391.408
378.437
361.72
341.519
318.154
291.996
263.454
232.962
200.971
167.938
134.311
100.516
66.9503
33.9813
1.90645
-29.0051
-58.5391
-86.5288
-112.852
-137.429
-160.208
-181.171
-200.317
-217.668
-233.252
-247.115
-259.305
-269.878
-278.892
-286.411
-292.493
-297.194
-300.567
-302.666
-303.516
-303.134
-301.563
-298.827
-294.919
-289.84
-283.58
-276.123
-267.44
-257.496
-246.244
-233.638
-219.622
-204.149
-187.18
-168.695
-148.683
-127.158
-104.155
-79.7265
-53.9465
-26.9166
1.2352
30.3478
60.2433
90.7025
121.42
152.133
182.541
212.318
241.116
268.575
294.323
317.985
339.191
357.588
372.848
384.683
392.852
397.184
397.484
393.836
386.223
374.728
359.558
340.968
319.272
294.838
268.064
239.369
209.182
177.928
146.019
113.853
81.7975
50.1955
19.3435
-10.4935
-39.0942
-66.2794
-91.9116
-115.892
-138.158
-158.677
-177.446
-194.481
-209.819
-223.51
-235.612
-246.194
-255.327
-263.081
-269.515
-274.692
-278.668
-281.476
-283.167
-283.743
-283.217
-281.636
-278.975
-275.244
-270.447
-264.58
-257.639
-249.621
-240.517
-230.294
-218.947
-206.434
-192.707
-177.737
-161.487
-143.931
-125.037
-104.763
-83.1003
-60.0534
-35.6213
-9.86508
17.1277
44.0947
72.8639
102.288
132.125
162.043
191.682
220.677
248.61
275.085
299.689
322.023
341.742
358.522
372.078
382.184
388.676
391.427
390.192
385.177
376.521
364.355
348.937
330.567
309.548
286.23
260.977
234.16
206.181
177.412
148.199
118.898
89.805
61.2326
33.5404
9.24288
-16.2577
-41.019
-64.711
-87.2183
-108.506
-128.564
-147.404
-165.048
-181.513
-196.821
-210.98
-223.993
-235.86
-246.564
-256.083
-264.394
-271.464
-277.264
-281.755
-284.915
-286.703
-287.069
-285.849
-283.089
-278.788
-272.943
-265.567
-256.676
-246.239
-234.25
387.284
402.238
413.312
420.404
423.466
422.293
416.953
407.592
394.298
377.242
356.671
332.883
306.25
277.129
245.933
213.055
178.908
143.965
108.622
73.2975
38.4491
6.30986
-26.6117
-58.3994
-88.785
-117.588
-144.694
-170.004
-193.477
-215.089
-234.835
-252.738
-268.832
-283.155
-295.756
-306.679
-315.971
-323.674
-329.823
-334.453
-337.591
-339.218
-339.322
-337.799
-334.812
-330.261
-324.139
-316.428
-307.068
-296.03
-283.279
-268.769
-252.481
-234.393
-214.474
-192.751
-169.267
-144.054
-117.201
-88.8291
-59.0678
-28.1032
3.86623
36.6156
69.8746
103.338
136.708
169.644
201.818
232.881
262.477
290.27
315.927
339.118
359.548
376.941
391.039
401.609
408.467
411.492
410.554
405.675
396.886
384.219
367.861
348.024
324.959
298.976
270.422
239.674
207.131
173.203
138.31
102.872
67.3059
32.0134
-2.62213
-36.2481
-68.5503
-99.2586
-128.156
-155.078
-179.913
-202.601
-223.122
-241.497
-257.775
-272.025
-284.327
-294.77
-303.443
-310.427
-315.799
-319.628
-321.994
-322.927
-322.45
-320.645
-317.529
-313.11
-307.402
-300.405
-292.116
-282.523
-271.61
-259.355
-245.738
-230.728
-214.298
-196.414
-177.045
-156.172
-133.783
-109.881
-84.4946
-57.6796
-29.5205
-0.142907
30.3007
61.6794
93.5821
125.797
158.009
189.863
220.979
250.955
279.382
305.851
329.963
351.338
369.625
384.51
395.727
403.066
406.36
405.515
400.552
391.548
378.567
361.836
341.619
318.236
292.059
263.497
232.985
200.975
167.923
134.279
100.469
66.89
33.9104
1.82682
-29.0912
-58.6296
-86.6219
-112.947
-137.523
-160.302
-181.262
-200.407
-217.754
-233.336
-247.196
-259.382
-269.952
-278.964
-286.479
-292.559
-297.258
-300.629
-302.726
-303.574
-303.189
-301.62
-298.884
-294.976
-289.897
-283.638
-276.182
-267.501
-257.559
-246.309
-233.705
-219.693
-204.222
-187.255
-168.771
-148.76
-127.235
-104.232
-79.8017
-54.0192
-26.9855
1.17104
30.29
60.1929
90.6619
121.39
152.114
182.536
212.327
241.14
268.616
294.381
318.06
339.283
357.694
372.969
384.815
392.993
397.33
397.635
393.979
386.362
374.858
359.675
341.069
319.357
294.904
268.111
239.397
209.192
177.92
145.996
113.815
81.7465
50.1336
19.2725
-10.5716
-39.1777
-66.3666
-92.001
-115.982
-138.248
-158.765
-177.531
-194.564
-209.899
-223.586
-235.684
-246.263
-255.393
-263.143
-269.574
-274.748
-278.722
-281.528
-283.218
-283.79
-283.265
-281.683
-279.021
-275.291
-270.493
-264.627
-257.686
-249.669
-240.566
-230.344
-218.998
-206.488
-192.763
-177.795
-161.548
-143.995
-125.103
-104.831
-83.1698
-60.1236
-35.6912
-9.93373
17.0608
44.0428
72.8177
102.25
132.099
162.031
191.685
220.697
248.648
275.141
299.762
322.113
341.848
358.642
372.209
382.323
388.821
391.581
390.335
385.315
376.653
364.476
349.045
330.661
309.625
286.292
261.022
234.188
206.193
177.41
148.184
118.872
89.7675
61.1822
33.4709
9.20867
-16.3085
-41.0764
-64.7702
-87.2772
-108.564
-128.62
-147.458
-165.1
-181.564
-196.871
-211.029
-224.042
-235.908
-246.612
-256.132
-264.444
-271.515
-277.316
-281.808
-284.97
-286.758
-287.124
-285.906
-283.147
-278.846
-273.001
-265.626
-256.735
-246.298
-234.31
387.541
402.52
413.614
420.718
423.783
422.63
417.268
407.898
394.583
377.501
356.899
333.077
306.408
277.248
246.015
213.1
178.917
143.94
108.568
73.2187
38.3514
6.1748
-26.7587
-58.5564
-88.9494
-117.757
-144.865
-170.175
-193.645
-215.254
-234.996
-252.894
-268.981
-283.299
-295.894
-306.812
-316.099
-323.798
-329.945
-334.572
-337.707
-339.335
-339.436
-337.921
-334.933
-330.385
-324.265
-316.558
-307.203
-296.169
-283.423
-268.917
-252.633
-234.548
-214.631
-192.909
-169.425
-144.209
-117.352
-88.9727
-59.2019
-28.2249
3.76009
36.5275
69.8083
103.295
136.69
169.654
201.857
232.95
262.576
290.401
316.089
339.309
359.767
377.186
391.306
401.895
408.768
411.809
410.862
405.976
397.179
384.498
368.118
348.254
325.159
299.143
270.554
239.769
207.189
173.225
138.297
102.825
67.2275
31.9064
-2.75401
-36.4009
-68.7198
-99.4403
-128.345
-155.271
-180.107
-202.791
-223.307
-241.676
-257.945
-272.186
-284.48
-294.915
-303.58
-310.557
-315.922
-319.747
-322.108
-323.034
-322.556
-320.751
-317.633
-313.214
-307.505
-300.509
-292.222
-282.632
-271.721
-259.47
-245.856
-230.85
-214.424
-196.544
-177.18
-156.311
-133.924
-110.023
-84.636
-57.8175
-29.6527
-0.266499
30.1887
61.5885
93.5094
125.748
157.987
189.873
221.022
251.033
279.496
306.002
330.149
351.558
369.875
384.786
396.025
403.378
406.691
405.832
400.865
391.847
378.847
362.089
341.841
318.422
292.206
263.604
233.052
201.004
167.915
134.237
100.397
66.7923
33.7912
1.69043
-29.2403
-58.7876
-86.7853
-113.112
-137.689
-160.465
-181.422
-200.562
-217.905
-233.481
-247.335
-259.516
-270.079
-279.085
-286.595
-292.669
-297.364
-300.731
-302.826
-303.67
-303.282
-301.714
-298.977
-295.069
-289.991
-283.735
-276.282
-267.604
-257.666
-246.422
-233.823
-219.816
-204.35
-187.387
-168.906
-148.897
-127.373
-104.368
-79.9346
-54.147
-27.1061
1.06002
30.1915
60.109
90.5975
121.346
152.094
182.542
212.362
241.206
268.715
294.514
318.226
339.482
357.925
373.227
385.096
393.292
397.636
397.957
394.284
386.658
375.135
359.928
341.291
319.544
295.054
268.223
239.472
209.23
177.924
145.968
113.758
81.6648
50.0302
19.1511
-10.7072
-39.3241
-66.5203
-92.159
-116.142
-138.406
-158.921
-177.683
-194.71
-210.039
-223.719
-235.811
-246.383
-255.506
-263.249
-269.675
-274.845
-278.815
-281.618
-283.305
-283.873
-283.351
-281.767
-279.105
-275.375
-270.578
-264.712
-257.773
-249.758
-240.657
-230.438
-219.097
-206.591
-192.871
-177.909
-161.667
-144.119
-125.231
-104.964
-83.3063
-60.2617
-35.8289
-10.0691
16.9286
43.9406
72.7269
102.176
132.048
162.007
191.692
220.738
248.724
275.253
299.91
322.294
342.06
358.882
372.471
382.603
389.112
391.89
390.623
385.593
376.916
364.719
349.263
330.849
309.782
286.415
261.111
234.245
206.219
177.406
148.155
118.819
89.6929
61.0817
33.3314
9.14081
-16.4104
-41.1915
-64.8886
-87.3949
-108.679
-128.732
-147.567
-165.205
-181.666
-196.97
-211.126
-224.138
-236.005
-246.709
-256.23
-264.543
-271.616
-277.419
-281.914
-285.078
-286.868
-287.235
-286.021
-283.262
-278.962
-273.118
-265.744
-256.853
-246.417
-234.429
387.928
402.943
414.066
421.189
424.26
423.129
417.744
408.357
395.01
377.889
357.241
333.368
306.644
277.428
246.137
213.166
178.93
143.904
108.487
73.1001
38.2044
5.97228
-26.9793
-58.7921
-89.1961
-118.01
-145.121
-170.431
-193.899
-215.502
-235.237
-253.127
-269.206
-283.515
-296.102
-307.012
-316.293
-323.986
-330.128
-334.75
-337.881
-339.509
-339.611
-338.103
-335.115
-330.57
-324.455
-316.753
-307.405
-296.378
-283.638
-269.139
-252.861
-234.781
-214.867
-193.147
-169.662
-144.442
-117.578
-89.1884
-59.4031
-28.4075
3.60061
36.395
69.7084
103.23
136.664
169.669
201.915
233.053
262.726
290.598
316.332
339.596
360.096
377.553
391.708
402.326
409.219
412.273
411.334
406.433
397.621
384.918
368.505
348.602
325.462
299.396
270.753
239.914
207.28
173.261
138.279
102.757
67.1124
31.7484
-2.94931
-36.6277
-68.9715
-99.7104
-128.627
-155.559
-180.394
-203.075
-223.583
-241.941
-258.198
-272.426
-284.706
-295.129
-303.782
-310.748
-316.104
-319.922
-322.276
-323.192
-322.714
-320.907
-317.786
-313.366
-307.658
-300.664
-292.379
-282.791
-271.884
-259.638
-246.03
-231.03
-214.611
-196.737
-177.38
-156.516
-134.133
-110.234
-84.8452
-58.0211
-29.8477
-0.448456
30.0226
61.456
93.4036
125.678
157.959
189.891
221.09
251.154
279.672
306.232
330.433
351.892
370.255
385.206
396.476
403.85
407.182
406.318
401.341
392.302
379.271
362.474
342.177
318.705
292.431
263.769
233.158
201.051
167.907
134.178
100.292
66.6489
33.6152
1.48876
-29.4612
-59.0219
-87.0275
-113.358
-137.934
-160.707
-181.659
-200.793
-218.128
-233.696
-247.541
-259.713
-270.268
-279.265
-286.766
-292.833
-297.521
-300.883
-302.972
-303.81
-303.421
-301.853
-299.114
-295.207
-290.131
-283.877
-276.428
-267.755
-257.824
-246.588
-233.996
-219.998
-204.539
-187.583
-169.106
-149.099
-127.576
-104.569
-80.1317
-54.3362
-27.2844
0.896104
30.0462
59.9855
90.5037
121.283
152.067
182.554
212.417
241.308
268.866
294.716
318.479
339.785
358.274
373.617
385.521
393.743
398.101
398.439
394.748
387.105
375.556
360.31
341.628
319.829
295.283
268.395
239.587
209.291
177.933
145.929
113.676
81.545
49.8778
18.9718
-10.9079
-39.541
-66.7483
-92.3933
-116.378
-138.641
-159.152
-177.908
-194.927
-210.246
-223.916
-235.998
-246.56
-255.673
-263.406
-269.825
-274.988
-278.952
-281.751
-283.434
-283.997
-283.478
-281.891
-279.229
-275.501
-270.704
-264.84
-257.903
-249.89
-240.793
-230.58
-219.245
-206.746
-193.034
-178.08
-161.846
-144.305
-125.424
-105.164
-83.5114
-60.4691
-36.0357
-10.2724
16.7302
43.7868
72.5903
102.065
131.971
161.972
191.703
220.799
248.838
275.421
300.132
322.566
342.379
359.242
372.866
383.023
389.549
392.342
391.063
386.013
377.312
365.083
349.589
331.131
310.016
286.6
261.246
234.33
206.257
177.4
148.111
118.74
89.5811
60.9314
33.1217
9.03922
-16.5644
-41.3645
-65.0664
-87.5715
-108.852
-128.9
-147.729
-165.362
-181.819
-197.119
-211.272
-224.283
-236.149
-246.854
-256.377
-264.692
-271.768
-277.574
-282.073
-285.241
-287.032
-287.404
-286.193
-283.434
-279.136
-273.293
-265.92
-257.031
-246.596
-234.609
388.443
403.508
414.669
421.818
424.898
423.787
418.386
408.969
395.58
378.407
357.698
333.756
306.96
277.667
246.3
213.254
178.947
143.854
108.378
72.9414
38.0078
5.70223
-27.2736
-59.1067
-89.5253
-118.349
-145.463
-170.773
-194.236
-215.833
-235.558
-253.438
-269.506
-283.803
-296.379
-307.279
-316.55
-324.236
-330.371
-334.988
-338.112
-339.739
-339.848
-338.346
-335.358
-330.817
-324.708
-317.014
-307.674
-296.656
-283.925
-269.435
-253.165
-235.092
-215.182
-193.464
-169.978
-144.753
-117.88
-89.4762
-59.6719
-28.6514
3.38759
36.2182
69.5749
103.144
136.629
169.688
201.993
233.191
262.925
290.859
316.656
339.979
360.535
378.043
392.244
402.899
409.82
412.888
411.963
407.047
398.212
385.478
369.022
349.066
325.866
299.733
271.02
240.109
207.4
173.309
138.256
102.666
66.9586
31.5376
-3.20984
-36.9302
-69.3073
-100.071
-129.003
-155.942
-180.778
-203.452
-223.95
-242.294
-258.535
-272.745
-285.008
-295.414
-304.051
-311.003
-316.347
-320.156
-322.498
-323.404
-322.925
-321.113
-317.989
-313.568
-307.861
-300.869
-292.587
-283.004
-272.102
-259.863
-246.261
-231.27
-214.859
-196.994
-177.645
-156.789
-134.411
-110.514
-85.1237
-58.2925
-30.1074
-0.690392
29.8009
61.2799
93.2627
125.585
157.921
189.915
221.181
251.316
279.906
306.54
330.812
352.338
370.762
385.766
397.078
404.482
407.826
406.975
401.98
392.91
379.839
362.988
342.627
319.083
292.732
263.99
233.299
201.113
167.896
134.099
100.153
66.4577
33.3804
1.21983
-29.7558
-59.3342
-87.3505
-113.686
-138.262
-161.031
-181.976
-201.101
-218.425
-233.983
-247.816
-259.976
-270.519
-279.504
-286.994
-293.051
-297.729
-301.084
-303.165
-303.997
-303.608
-302.037
-299.297
-295.391
-290.317
-284.067
-276.623
-267.957
-258.035
-246.808
-234.228
-220.24
-204.791
-187.844
-169.373
-149.369
-127.847
-104.838
-80.3942
-54.5884
-27.5221
0.677798
29.8525
59.8203
90.3793
121.199
152.03
182.571
212.491
241.444
269.068
294.986
318.817
340.189
358.741
374.139
386.089
394.345
398.723
399.076
395.372
387.704
376.117
360.821
342.077
320.209
295.589
268.625
239.741
209.372
177.945
145.877
113.567
81.3854
49.6747
18.7328
-11.1755
-39.83
-67.0522
-92.7055
-116.694
-138.955
-159.46
-178.208
-195.216
-210.523
-224.179
-236.247
-246.795
-255.895
-263.616
-270.024
-275.18
-279.135
-281.928
-283.605
-284.164
-283.647
-282.057
-279.394
-275.668
-270.873
-265.011
-258.077
-250.068
-240.975
-230.769
-219.443
-206.953
-193.25
-178.308
-162.085
-144.553
-125.682
-105.431
-83.7849
-60.7459
-36.3117
-10.5436
16.466
43.5805
72.4073
101.916
131.869
161.925
191.716
220.88
248.989
275.645
300.427
322.929
342.805
359.723
373.391
383.584
390.131
392.931
391.656
386.577
377.841
365.57
350.025
331.507
310.329
286.846
261.424
234.443
206.307
177.393
148.051
118.634
89.4325
60.7324
32.8423
8.90331
-16.7717
-41.5962
-65.3039
-87.8072
-109.082
-129.124
-147.946
-165.572
-182.022
-197.317
-211.467
-224.476
-236.342
-247.048
-256.572
-264.89
-271.97
-277.78
-282.285
-285.456
-287.25
-287.631
-286.422
-283.665
-279.368
-273.527
-266.155
-257.268
-246.834
-234.848
389.088
404.214
415.424
422.605
425.699
424.6
419.191
409.733
396.292
379.054
358.268
334.241
307.354
277.966
246.504
213.364
178.967
143.791
108.241
72.7418
37.761
5.36473
-27.642
-59.5005
-89.9374
-118.772
-145.891
-171.201
-194.659
-216.247
-235.961
-253.827
-269.88
-284.163
-296.726
-307.613
-316.872
-324.548
-330.675
-335.286
-338.403
-340.027
-340.144
-338.646
-335.661
-331.125
-325.025
-317.339
-308.01
-297.004
-284.285
-269.806
-253.546
-235.48
-215.576
-193.861
-170.373
-145.143
-118.258
-89.8365
-60.0083
-28.9568
3.12073
35.9968
69.4074
103.035
136.584
169.712
202.089
233.363
263.174
291.186
317.06
340.458
361.084
378.655
392.914
403.617
410.571
413.658
412.745
407.818
398.952
386.179
369.669
349.647
326.37
300.154
271.354
240.351
207.551
173.367
138.226
102.552
66.7654
31.2731
-3.53659
-37.3095
-69.7284
-100.522
-129.474
-156.423
-181.259
-203.926
-224.41
-242.735
-258.956
-273.145
-285.385
-295.77
-304.388
-311.321
-316.65
-320.447
-322.776
-323.672
-323.188
-321.371
-318.243
-313.821
-308.115
-301.125
-292.847
-283.269
-272.374
-260.143
-246.55
-231.569
-215.169
-197.315
-177.977
-157.13
-134.758
-110.864
-85.4722
-58.6325
-30.4326
-0.992939
29.5225
61.0595
93.0858
125.468
157.874
189.945
221.295
251.518
280.199
306.924
331.286
352.896
371.397
386.467
397.832
405.272
408.634
407.793
402.783
393.672
380.55
363.631
343.19
319.556
293.108
264.267
233.474
201.192
167.882
134
99.9782
66.2178
33.086
0.882664
-30.1249
-59.7255
-87.7551
-114.096
-138.672
-161.436
-182.372
-201.486
-218.798
-234.342
-248.16
-260.305
-270.833
-279.803
-287.28
-293.323
-297.99
-301.336
-303.406
-304.232
-303.841
-302.266
-299.525
-295.62
-290.549
-284.304
-276.867
-268.21
-258.299
-247.085
-234.517
-220.543
-205.106
-188.17
-169.706
-149.707
-128.186
-105.174
-80.7229
-54.9043
-27.8198
0.40448
29.6097
59.6128
90.2236
121.094
151.984
182.59
212.583
241.614
269.32
295.323
319.24
340.695
359.324
374.792
386.8
395.1
399.502
399.868
396.157
388.455
376.821
361.46
342.639
320.684
295.971
268.911
239.933
209.473
177.96
145.812
113.43
81.185
49.42
18.4332
-11.5109
-40.192
-67.4328
-93.0965
-117.088
-139.347
-159.846
-178.582
-195.578
-210.869
-224.508
-236.558
-247.09
-256.173
-263.879
-270.274
-275.418
-279.364
-282.149
-283.819
-284.375
-283.857
-282.265
-279.602
-275.877
-271.084
-265.224
-258.294
-250.289
-241.203
-231.005
-219.69
-207.211
-193.521
-178.593
-162.383
-144.863
-126.004
-105.765
-84.1272
-61.0922
-36.6571
-10.8829
16.1365
43.321
72.1773
101.728
131.739
161.865
191.732
220.98
249.179
275.924
300.796
323.383
343.337
360.324
374.049
384.285
390.859
393.665
392.395
387.285
378.505
366.178
350.569
331.978
310.719
287.154
261.648
234.583
206.369
177.382
147.976
118.502
89.2473
60.4856
32.4944
8.73143
-17.0344
-41.8873
-65.6013
-88.1021
-109.37
-129.403
-148.216
-165.834
-182.276
-197.565
-211.711
-224.717
-236.583
-247.29
-256.817
-265.138
-272.223
-278.038
-282.549
-285.724
-287.523
-287.914
-286.708
-283.953
-279.658
-273.819
-266.449
-257.564
-247.132
-235.147
389.863
405.062
416.33
423.551
426.665
425.573
420.156
410.651
397.148
379.832
358.953
334.823
307.827
278.325
246.748
213.495
178.991
143.715
108.075
72.5006
37.4629
4.96003
-28.0847
-59.9738
-90.4327
-119.281
-146.406
-171.715
-195.166
-216.743
-236.443
-254.294
-270.329
-284.595
-297.141
-308.013
-317.259
-324.922
-331.039
-335.642
-338.753
-340.375
-340.499
-339.005
-336.024
-331.495
-325.405
-317.73
-308.414
-297.422
-284.716
-270.25
-254.003
-235.947
-216.049
-194.337
-170.848
-145.61
-118.712
-90.2695
-60.4128
-29.324
2.79969
35.7306
69.2056
102.903
136.53
169.74
202.204
233.568
263.472
291.577
317.545
341.033
361.743
379.391
393.719
404.478
411.473
414.585
413.682
408.744
399.843
387.021
370.445
350.343
326.975
300.66
271.753
240.641
207.73
173.437
138.189
102.413
66.5321
30.9543
-3.93029
-37.7663
-70.2351
-101.065
-130.041
-157
-181.836
-204.494
-224.962
-243.266
-259.462
-273.624
-285.838
-296.197
-304.792
-311.704
-317.015
-320.795
-323.108
-323.995
-323.504
-321.681
-318.549
-314.125
-308.42
-301.433
-293.16
-283.589
-272.702
-260.48
-246.898
-231.929
-215.541
-197.701
-178.376
-157.54
-135.176
-111.285
-85.8911
-59.0416
-30.8237
-1.35651
29.1871
60.7938
92.8717
125.326
157.816
189.98
221.43
251.76
280.551
307.385
331.854
353.567
372.16
387.309
398.737
406.222
409.606
408.774
403.746
394.589
381.404
364.404
343.866
320.123
293.559
264.598
233.685
201.284
167.864
133.88
99.7667
65.9285
32.7312
0.476547
-30.5691
-60.1963
-88.2417
-114.59
-139.165
-161.922
-182.848
-201.949
-219.245
-234.772
-248.573
-260.7
-271.21
-280.163
-287.623
-293.65
-298.304
-301.638
-303.697
-304.514
-304.12
-302.542
-299.8
-295.896
-290.828
-284.589
-277.16
-268.514
-258.615
-247.416
-234.865
-220.906
-205.485
-188.562
-170.107
-150.113
-128.594
-105.579
-81.1181
-55.2843
-28.178
0.0758435
29.3173
59.3624
90.0361
120.967
151.927
182.613
212.692
241.817
269.622
295.727
319.747
341.302
360.025
375.576
387.654
396.006
400.44
400.818
397.1
389.357
377.666
362.228
343.314
321.255
296.43
269.255
240.163
209.593
177.976
145.733
113.264
80.9435
49.1131
18.0726
-11.9144
-40.6275
-67.8903
-93.5666
-117.563
-139.819
-160.309
-179.033
-196.012
-211.284
-224.904
-236.933
-247.444
-256.507
-264.194
-270.574
-275.705
-279.638
-282.415
-284.076
-284.629
-284.109
-282.514
-279.851
-276.128
-271.337
-265.481
-258.554
-250.555
-241.476
-231.289
-219.986
-207.52
-193.847
-178.935
-162.742
-145.235
-126.391
-106.166
-84.5383
-61.5083
-37.0721
-11.2904
15.7416
43.0073
71.8994
101.503
131.583
161.792
191.752
221.101
249.406
276.26
301.239
323.929
343.975
361.046
374.84
385.127
391.734
394.549
393.279
388.134
379.303
366.91
351.222
332.543
311.188
287.523
261.915
234.751
206.443
177.369
147.886
118.342
89.0259
60.1927
32.0818
8.51947
-17.3547
-42.2386
-65.9592
-88.4564
-109.716
-129.739
-148.541
-166.148
-182.581
-197.863
-212.003
-225.007
-236.871
-247.58
-257.11
-265.436
-272.526
-278.348
-282.865
-286.046
-287.852
-288.254
-287.05
-284.298
-280.006
-274.17
-266.802
-257.919
-247.49
-235.506
390.767
406.052
417.389
424.657
427.795
426.71
421.28
411.722
398.147
380.741
359.753
335.503
308.379
278.743
247.032
213.646
179.018
143.624
107.88
72.2168
37.1122
4.4883
-28.602
-60.527
-91.0115
-119.875
-147.007
-172.315
-195.759
-217.323
-237.007
-254.838
-270.854
-285.1
-297.626
-308.479
-317.709
-325.359
-331.465
-336.059
-339.163
-340.782
-340.911
-339.423
-336.447
-331.926
-325.848
-318.186
-308.886
-297.909
-285.219
-270.769
-254.536
-236.492
-216.601
-194.894
-171.403
-146.157
-119.243
-90.7757
-60.8856
-29.7535
2.42403
35.419
68.9691
102.749
136.466
169.772
202.338
233.808
263.819
292.034
318.11
341.703
362.512
380.25
394.657
405.484
412.528
415.668
414.776
409.825
400.883
388.005
371.353
351.156
327.682
301.251
272.219
240.98
207.939
173.517
138.144
102.249
66.2583
30.5804
-4.39171
-38.3012
-70.8283
-101.701
-130.704
-157.676
-182.512
-205.159
-225.608
-243.886
-260.053
-274.184
-286.367
-296.697
-305.263
-312.151
-317.441
-321.202
-323.497
-324.372
-323.873
-322.041
-318.905
-314.48
-308.776
-301.792
-293.525
-283.961
-273.084
-260.873
-247.303
-232.349
-215.976
-198.151
-178.842
-158.019
-135.665
-111.778
-86.381
-59.5204
-31.2812
-1.78157
28.7971
60.4791
92.6197
125.159
157.746
190.019
221.587
252.041
280.96
307.923
332.518
354.349
373.05
388.293
399.795
407.333
410.744
409.92
404.87
395.66
382.402
365.306
344.655
320.785
294.085
264.983
233.929
201.391
167.841
133.738
99.518
65.5888
32.3154
0.000884817
-31.0893
-60.7473
-88.8109
-115.167
-139.741
-162.491
-183.404
-202.49
-219.768
-235.275
-249.056
-261.162
-271.651
-280.583
-288.023
-294.032
-298.67
-301.99
-304.037
-304.845
-304.445
-302.864
-300.12
-296.218
-291.154
-284.921
-277.502
-268.868
-258.985
-247.803
-235.271
-221.331
-205.929
-189.02
-170.576
-150.589
-129.071
-106.051
-81.5804
-55.7288
-28.5971
-0.30884
28.9745
59.0685
89.8166
120.817
151.86
182.638
212.819
242.053
269.974
296.198
320.339
342.011
360.843
376.492
388.651
397.066
401.536
401.929
398.201
390.412
378.653
363.125
344.103
321.92
296.965
269.656
240.43
209.732
177.994
145.639
113.069
80.6601
48.7534
17.6501
-12.3865
-41.137
-68.4253
-94.1163
-118.117
-140.37
-160.85
-179.559
-196.519
-211.769
-225.365
-237.37
-247.856
-256.896
-264.562
-270.924
-276.039
-279.958
-282.724
-284.376
-284.925
-284.402
-282.804
-280.141
-276.421
-271.632
-265.78
-258.857
-250.866
-241.794
-231.62
-220.332
-207.881
-194.226
-179.334
-163.16
-145.671
-126.843
-106.634
-85.0184
-61.9944
-37.557
-11.7665
15.2811
42.6387
71.5729
101.237
131.399
161.705
191.774
221.241
249.67
276.651
301.756
324.565
344.721
361.889
375.763
386.112
392.758
395.585
394.31
389.125
380.235
367.764
351.985
333.203
311.734
287.953
262.226
234.947
206.528
177.353
147.779
118.154
88.7687
59.8556
31.6132
8.25791
-17.7359
-42.6513
-66.3778
-88.8703
-110.12
-130.131
-148.92
-166.515
-182.937
-198.21
-212.344
-225.344
-237.208
-247.918
-257.452
-265.783
-272.88
-278.709
-283.234
-286.422
-288.236
-288.649
-287.45
-284.701
-280.412
-274.579
-267.214
-258.334
-247.907
-235.925
391.802
407.185
418.6
425.923
429.089
428.012
422.563
412.946
399.289
381.78
360.668
336.279
309.01
279.22
247.356
213.818
179.047
143.519
107.656
71.8892
36.7077
3.94953
-29.1942
-61.1605
-91.6742
-120.556
-147.694
-173.002
-196.437
-217.986
-237.651
-255.461
-271.453
-285.676
-298.179
-309.013
-318.224
-325.858
-331.951
-336.535
-339.632
-341.248
-341.382
-339.9
-336.93
-332.418
-326.354
-318.708
-309.425
-298.466
-285.794
-271.363
-255.146
-237.114
-217.233
-195.531
-172.038
-146.782
-119.85
-91.3554
-61.4272
-30.2457
1.99326
35.0616
68.6974
102.571
136.391
169.808
202.49
234.081
264.216
292.555
318.755
342.47
363.392
381.232
395.731
406.635
413.734
416.908
416.027
411.061
402.074
389.13
372.391
352.086
328.49
301.925
272.752
241.366
208.176
173.608
138.091
102.061
65.943
30.1508
-4.92159
-38.9153
-71.509
-102.43
-131.464
-158.45
-183.286
-205.92
-226.347
-244.596
-260.729
-274.824
-286.972
-297.267
-305.802
-312.662
-317.927
-321.667
-323.943
-324.803
-324.293
-322.454
-319.313
-314.886
-309.183
-302.203
-293.942
-284.387
-273.52
-261.322
-247.767
-232.828
-216.473
-198.667
-179.375
-158.567
-136.224
-112.342
-86.9423
-60.0693
-31.8057
-2.26845
28.3729
60.0934
92.3287
124.966
157.665
190.062
221.765
252.362
281.427
308.538
333.276
355.244
374.069
389.418
401.006
408.604
412.048
411.23
406.155
396.887
383.544
366.339
345.558
321.542
294.686
265.422
234.207
201.512
167.813
133.572
99.2314
65.1981
31.8376
-0.545016
-31.6861
-61.379
-89.4633
-115.828
-140.401
-163.142
-184.041
-203.108
-220.366
-235.851
-249.608
-261.69
-272.155
-281.063
-288.48
-294.469
-299.088
-302.392
-304.425
-305.224
-304.816
-303.231
-300.486
-296.586
-291.526
-285.301
-277.892
-269.273
-259.407
-248.246
-235.736
-221.818
-206.436
-189.544
-171.113
-151.133
-129.617
-106.593
-82.11
-56.2382
-29.0774
-0.750091
28.5814
58.73
89.565
120.644
151.781
182.665
212.962
242.321
270.375
296.736
321.014
342.821
361.778
377.54
389.794
398.279
402.793
403.201
399.459
391.62
379.784
364.153
345.005
322.682
297.576
270.112
240.735
209.889
178.012
145.529
112.844
80.334
48.3404
17.1654
-12.9279
-41.721
-69.0384
-94.746
-118.752
-141.002
-161.469
-180.161
-197.099
-212.324
-225.893
-237.869
-248.328
-257.341
-264.983
-271.323
-276.421
-280.325
-283.078
-284.72
-285.263
-284.737
-283.136
-280.474
-276.755
-271.97
-266.121
-259.204
-251.22
-242.158
-231.998
-220.726
-208.294
-194.66
-179.789
-163.637
-146.169
-127.36
-107.17
-85.5675
-62.5507
-38.1121
-12.3114
14.7549
42.2143
71.1969
100.932
131.187
161.604
191.795
221.4
249.971
277.097
302.346
325.293
345.575
362.853
376.82
387.238
393.93
396.775
395.488
390.259
381.302
368.742
352.858
333.957
312.359
288.443
262.581
235.169
206.624
177.333
147.655
117.939
88.4758
59.4768
31.1087
7.92579
-18.1813
-43.1263
-66.8576
-89.3439
-110.583
-130.579
-149.353
-166.933
-183.343
-198.606
-212.733
-225.729
-237.592
-248.305
-257.843
-266.18
-273.284
-279.121
-283.656
-286.852
-288.675
-289.101
-287.907
-285.162
-280.876
-275.046
-267.684
-258.807
-248.384
-236.404
392.966
408.461
419.964
427.349
430.548
429.477
424.006
414.325
400.575
382.951
361.698
337.153
309.718
279.755
247.719
214.01
179.078
143.399
107.401
71.5166
36.2483
3.34356
-29.8618
-61.8748
-92.4216
-121.323
-148.469
-173.775
-197.2
-218.733
-238.377
-256.161
-272.128
-286.324
-298.802
-309.612
-318.802
-326.419
-332.497
-337.07
-340.159
-341.773
-341.911
-340.435
-337.473
-332.971
-326.923
-319.294
-310.032
-299.092
-286.441
-272.031
-255.832
-237.816
-217.944
-196.248
-172.754
-147.487
-120.535
-92.0092
-62.0382
-30.8011
1.50677
34.6579
68.3901
102.37
136.306
169.847
202.66
234.387
264.661
293.141
319.481
343.332
364.382
382.338
396.94
407.931
415.095
418.305
417.437
412.453
403.416
390.398
373.56
353.133
329.4
302.684
273.351
241.799
208.442
173.708
138.03
101.846
65.5857
29.6645
-5.52083
-39.6095
-72.278
-103.254
-132.322
-159.324
-184.159
-206.779
-227.18
-245.396
-261.491
-275.545
-287.653
-297.909
-306.409
-313.236
-318.474
-322.189
-324.444
-325.288
-324.766
-322.917
-319.771
-315.342
-309.641
-302.665
-294.412
-284.867
-274.012
-261.828
-248.289
-233.369
-217.033
-199.248
-179.976
-159.185
-136.854
-112.979
-87.5757
-60.6888
-32.398
-2.81833
27.8908
59.6592
91.998
124.746
157.571
190.109
221.964
252.721
281.952
309.229
334.13
356.251
375.217
390.687
402.372
410.038
413.518
412.708
407.604
398.27
384.831
367.503
346.575
322.394
295.362
265.916
234.518
201.646
167.779
133.384
98.9061
64.7553
31.2968
-1.16207
-32.3603
-62.092
-90.1996
-116.573
-141.145
-163.876
-184.758
-203.805
-221.04
-236.499
-250.23
-262.284
-272.722
-281.604
-288.995
-294.96
-299.559
-302.845
-304.863
-305.65
-305.234
-303.645
-300.898
-297
-291.945
-285.728
-278.332
-269.728
-259.882
-248.744
-236.259
-222.366
-207.007
-190.135
-171.718
-151.747
-130.233
-107.204
-82.7074
-56.8132
-29.6193
-1.24848
28.1378
58.3455
89.281
120.446
151.69
182.693
213.121
242.621
270.824
297.34
321.775
343.733
362.832
378.721
391.081
399.646
404.21
404.636
400.878
392.983
381.059
365.31