/*--------------------------------*- C++ -*----------------------------------*\
| =========                 |                                                 |
| \\      /  F ield         | OpenFOAM: The Open Source CFD Toolbox           |
|  \\    /   O peration     | Version:  3.0.1                                 |
|   \\  /    A nd           | Web:      www.OpenFOAM.org                      |
|    \\/     M anipulation  |                                                 |
\*---------------------------------------------------------------------------*/
FoamFile
{
    version     2.0;
    format      ascii;
    class       volScalarField;
    location    "78.8";
    object      p_rgh;
}
// * * * * * * * * * * * * * * * * * * * * * * * * * * * * * * * * * * * * * //

dimensions      [1 -1 -2 0 0 0 0];

internalField   nonuniform List<scalar> 
21420
(
378.878
395.062
407.471
415.989
420.563
420.948
417.208
409.457
397.813
382.37
363.347
341.026
315.763
287.886
257.809
225.923
192.641
158.414
123.63
88.7014
54.0411
20.172
-12.7645
-44.8081
-75.6123
-104.959
-132.705
-158.73
-182.971
-205.391
-225.971
-244.723
-261.673
-276.854
-290.308
-302.077
-312.204
-320.732
-327.697
-333.133
-337.069
-339.514
-340.452
-339.882
-337.847
-334.271
-329.153
-322.479
-314.201
-304.278
-292.676
-279.349
-264.253
-247.363
-228.627
-208.043
-185.619
-161.363
-135.316
-107.568
-78.2179
-47.4304
-15.3986
17.6647
51.4794
85.7321
120.107
154.225
187.719
220.196
251.266
280.564
307.726
332.4
354.275
373.055
388.48
400.325
408.397
412.562
412.669
408.822
400.96
389.164
373.614
354.515
332.131
306.782
278.806
248.584
216.516
183.007
148.468
113.3
77.8925
42.6201
7.83719
-26.1223
-58.9586
-90.403
-120.227
-148.247
-174.325
-198.367
-220.325
-240.19
-257.981
-273.743
-287.544
-299.452
-309.542
-317.89
-324.563
-329.621
-333.125
-335.128
-335.644
-334.687
-332.337
-328.576
-323.42
-316.875
-308.939
-299.611
-288.891
-276.773
-263.243
-248.292
-231.911
-214.087
-194.804
-174.051
-151.826
-128.134
-102.999
-76.4655
-48.6117
-19.5534
10.5156
42.1858
73.8714
106.076
138.453
170.659
202.332
233.084
262.515
290.218
315.787
338.833
358.988
375.916
389.321
398.954
404.624
406.143
403.549
396.769
385.912
371.092
352.539
330.529
305.397
277.529
247.352
215.32
181.904
147.578
112.801
78.0131
43.6172
9.98818
-22.5785
-53.8086
-83.4884
-111.454
-137.59
-161.821
-184.11
-204.453
-222.868
-239.397
-254.095
-267.029
-278.269
-287.89
-295.971
-302.587
-307.805
-311.69
-314.301
-315.687
-315.871
-314.87
-312.74
-309.467
-305.042
-299.445
-292.65
-284.626
-275.332
-264.727
-252.768
-239.414
-224.63
-208.38
-190.64
-171.388
-150.619
-128.333
-104.555
-79.3229
-52.7005
-24.7879
4.28894
34.3673
65.3976
96.7835
128.405
159.95
191.071
221.398
250.545
278.111
303.688
326.871
347.266
364.51
378.275
388.29
394.347
396.275
394.064
387.709
377.338
363.068
345.165
323.928
299.713
272.923
243.99
213.364
181.505
148.86
115.853
82.8769
50.2812
18.3756
-12.579
-42.3563
-70.7739
-97.689
-122.993
-146.607
-168.48
-188.588
-206.932
-223.526
-238.405
-251.615
-263.214
-273.268
-281.843
-288.999
-294.787
-299.268
-302.493
-304.499
-305.311
-304.927
-303.408
-300.775
-296.996
-292.045
-285.911
-278.564
-269.957
-260.03
-248.701
-235.888
-221.517
-205.515
-187.849
-168.505
-147.508
-124.901
-100.801
-75.2381
-48.4754
-20.6868
8.68356
42.7623
76.9467
110.934
144.614
177.747
209.872
240.554
269.41
295.957
319.837
340.662
358.113
371.955
381.96
387.913
389.76
388.102
382.569
373.23
360.278
343.884
324.223
301.572
276.324
248.794
219.413
188.573
156.69
124.206
91.4949
58.9148
26.8277
-4.37821
-34.3635
-63.4654
-91.2572
-117.58
-142.33
-165.434
-186.853
-206.58
-224.616
-240.989
-255.735
-268.899
-280.531
-290.681
-299.402
-306.745
-312.752
-317.466
-320.921
-323.15
-324.151
-323.646
-321.919
-318.92
-314.644
-309.08
-302.186
-293.933
-284.272
-273.168
-260.589
-246.457
-230.719
379.001
395.198
407.618
416.142
420.72
421.116
417.363
409.611
397.958
382.503
363.465
341.128
315.847
287.952
257.856
225.951
192.651
158.407
123.608
88.6653
53.9928
20.1161
-12.8295
-44.88
-75.6893
-105.04
-132.787
-158.813
-183.054
-205.472
-226.05
-244.801
-261.748
-276.926
-290.378
-302.144
-312.269
-320.795
-327.759
-333.193
-337.127
-339.573
-340.51
-339.942
-337.907
-334.331
-329.215
-322.543
-314.266
-304.346
-292.746
-279.421
-264.328
-247.441
-228.707
-208.124
-185.702
-161.445
-135.398
-107.648
-78.2939
-47.501
-15.4619
17.6102
51.4357
85.7007
120.09
154.222
187.732
220.225
251.312
280.626
307.805
332.494
354.384
373.178
388.614
400.469
408.547
412.716
412.83
408.97
401.106
389.301
373.74
354.627
332.228
306.861
278.868
248.627
216.541
183.014
148.458
113.274
77.8519
42.5658
7.77075
-26.1993
-59.0445
-90.4958
-120.325
-148.348
-174.427
-198.469
-220.426
-240.288
-258.076
-273.835
-287.631
-299.536
-309.622
-317.967
-324.636
-329.693
-333.194
-335.196
-335.708
-334.753
-332.401
-328.64
-323.484
-316.94
-309.004
-299.676
-288.957
-276.84
-263.311
-248.361
-231.982
-214.159
-194.878
-174.127
-151.903
-128.211
-103.076
-76.5411
-48.6842
-19.6199
10.4569
42.1222
73.8194
106.037
138.427
170.647
202.336
233.105
262.554
290.275
315.862
338.925
359.096
376.038
389.456
399.098
404.775
406.303
403.698
396.916
386.052
371.222
352.654
330.628
305.477
277.589
247.391
215.339
181.903
147.558
112.764
77.9607
43.5519
9.91212
-22.663
-53.8994
-83.5835
-111.552
-137.688
-161.918
-184.207
-204.547
-222.959
-239.484
-254.179
-267.109
-278.345
-287.962
-296.04
-302.653
-307.868
-311.751
-314.359
-315.744
-315.926
-314.925
-312.795
-309.522
-305.098
-299.502
-292.709
-284.686
-275.394
-264.791
-252.834
-239.482
-224.7
-208.453
-190.714
-171.464
-150.695
-128.41
-104.632
-79.3993
-52.7747
-24.8582
4.22329
34.3065
65.3489
96.7436
128.377
159.936
191.073
221.416
250.58
278.164
303.759
326.96
347.373
364.632
378.41
388.435
394.499
396.435
394.215
387.856
377.478
363.196
345.278
324.023
299.79
272.98
244.026
213.381
181.502
148.839
115.818
82.8281
50.2213
18.3067
-12.6551
-42.4378
-70.8594
-97.7769
-123.082
-146.696
-168.568
-188.675
-207.017
-223.608
-238.483
-251.69
-263.286
-273.337
-281.908
-289.061
-294.846
-299.325
-302.548
-304.552
-305.362
-304.978
-303.459
-300.825
-297.045
-292.095
-285.962
-278.617
-270.012
-260.088
-248.762
-235.952
-221.585
-205.586
-187.922
-168.58
-147.585
-124.977
-100.876
-75.3122
-48.5463
-20.7541
8.62073
42.722
76.9161
110.914
144.608
177.757
209.899
240.6
269.474
296.04
319.937
340.779
358.244
372.099
382.114
388.08
389.95
388.256
382.716
373.374
360.414
344.007
324.332
301.663
276.396
248.848
219.449
188.59
156.691
124.191
91.4657
58.8737
26.7769
-4.43592
-34.4304
-63.5362
-91.3311
-117.656
-142.407
-165.51
-186.928
-206.653
-224.687
-241.057
-255.801
-268.962
-280.591
-290.739
-299.458
-306.798
-312.804
-317.516
-320.971
-323.199
-324.196
-323.694
-321.968
-318.969
-314.694
-309.132
-302.24
-293.989
-284.33
-273.229
-260.652
-246.522
-230.786
379.249
395.471
407.911
416.45
421.032
421.451
417.676
409.921
398.247
382.768
363.702
341.333
316.016
288.084
257.95
226.008
192.672
158.394
123.564
88.5928
53.8962
20.0042
-12.9597
-45.0239
-75.8435
-105.201
-132.953
-158.98
-183.219
-205.636
-226.21
-244.955
-261.897
-277.07
-290.517
-302.278
-312.398
-320.921
-327.881
-333.313
-337.245
-339.69
-340.625
-340.062
-338.025
-334.452
-329.338
-322.669
-314.397
-304.481
-292.886
-279.566
-264.478
-247.596
-228.865
-208.286
-185.866
-161.61
-135.561
-107.806
-78.4445
-47.641
-15.5874
17.5026
51.3497
85.6393
120.056
154.218
187.759
220.285
251.405
280.753
307.965
332.685
354.605
373.425
388.885
400.759
408.851
413.027
413.157
409.276
401.405
389.586
374.003
354.863
332.433
307.033
279.005
248.728
216.606
183.045
148.456
113.24
77.7879
42.4749
7.65586
-26.3352
-59.1978
-90.663
-120.502
-148.532
-174.614
-198.655
-220.609
-240.466
-258.248
-274
-287.788
-299.684
-309.763
-318.101
-324.765
-329.818
-333.316
-335.314
-335.819
-334.866
-332.513
-328.751
-323.595
-317.051
-309.116
-299.79
-289.073
-276.957
-263.431
-248.483
-232.107
-214.287
-195.008
-174.26
-152.038
-128.348
-103.212
-76.675
-48.812
-19.7357
10.3769
41.9927
73.7329
105.976
138.392
170.642
202.362
233.165
262.649
290.406
316.029
339.126
359.329
376.301
389.743
399.404
405.094
406.641
404.014
397.23
386.351
371.499
352.903
330.843
305.656
277.728
247.489
215.396
181.92
147.537
112.71
77.8764
43.4419
9.78054
-22.8114
-54.0603
-83.7528
-111.726
-137.864
-162.093
-184.379
-204.713
-223.12
-239.639
-254.326
-267.249
-278.478
-288.088
-296.159
-302.765
-307.975
-311.853
-314.457
-315.839
-316.016
-315.017
-312.886
-309.613
-305.191
-299.597
-292.808
-284.789
-275.501
-264.902
-252.949
-239.602
-224.824
-208.58
-190.845
-171.598
-150.832
-128.548
-104.77
-79.5351
-52.9067
-24.9826
4.10823
34.2009
65.2675
96.6795
128.337
159.924
191.091
221.467
250.665
278.285
303.917
327.154
347.601
364.891
378.696
388.741
394.817
396.771
394.531
388.167
377.772
363.468
345.52
324.231
299.96
273.109
244.115
213.43
181.514
148.817
115.764
82.7488
50.1202
18.1875
-12.7886
-42.5822
-71.0115
-97.9341
-123.241
-146.855
-168.727
-188.831
-207.168
-223.754
-238.623
-251.823
-263.413
-273.457
-282.023
-289.17
-294.951
-299.426
-302.645
-304.645
-305.454
-305.068
-303.551
-300.917
-297.137
-292.188
-286.057
-278.716
-270.116
-260.198
-248.88
-236.077
-221.717
-205.724
-188.066
-168.728
-147.734
-125.128
-101.023
-75.458
-48.6862
-20.8872
8.49733
42.6429
76.8562
110.876
144.597
177.777
209.953
240.692
269.604
296.206
320.139
341.014
358.507
372.386
382.421
388.413
390.332
388.563
383.012
373.662
360.687
344.255
324.549
301.846
276.542
248.957
219.519
188.625
156.691
124.16
91.4074
58.7916
26.6751
-4.552
-34.5639
-63.6778
-91.4787
-117.807
-142.559
-165.662
-187.078
-206.799
-224.829
-241.194
-255.933
-269.088
-280.712
-290.854
-299.568
-306.904
-312.906
-317.616
-321.069
-323.296
-324.288
-323.791
-322.065
-319.067
-314.794
-309.235
-302.347
-294.1
-284.445
-273.349
-260.777
-246.653
-230.92
379.62
395.882
408.352
416.911
421.501
421.947
418.15
410.385
398.68
383.166
364.058
341.639
316.269
288.282
258.091
226.092
192.702
158.373
123.497
88.4839
53.7511
19.8362
-13.1552
-45.2399
-76.0749
-105.443
-133.2
-159.23
-183.468
-205.88
-226.449
-245.187
-262.122
-277.286
-290.725
-302.479
-312.593
-321.109
-328.064
-333.492
-337.42
-339.865
-340.798
-340.241
-338.204
-334.632
-329.522
-322.859
-314.593
-304.683
-293.096
-279.784
-264.704
-247.828
-229.104
-208.53
-186.113
-161.858
-135.805
-108.044
-78.6708
-47.8513
-15.7759
17.341
51.2205
85.547
120.004
154.211
187.8
220.376
251.546
280.944
308.205
332.972
354.936
373.797
389.292
401.195
409.309
413.496
413.643
409.74
401.855
390.015
374.399
355.218
332.744
307.293
279.212
248.883
216.707
183.093
148.454
113.19
77.6943
42.341
7.48589
-26.5366
-59.4255
-90.9114
-120.766
-148.805
-174.891
-198.932
-220.881
-240.731
-258.502
-274.244
-288.02
-299.905
-309.974
-318.301
-324.957
-330.003
-333.495
-335.487
-335.985
-335.035
-332.679
-328.916
-323.76
-317.216
-309.282
-299.959
-289.244
-277.13
-263.607
-248.664
-232.292
-214.476
-195.202
-174.458
-152.239
-128.55
-103.414
-76.8732
-49.0013
-19.9078
10.2599
41.8012
73.6069
105.888
138.343
170.636
202.403
233.257
262.794
290.605
316.282
339.432
359.683
376.699
390.177
399.867
405.575
407.146
404.497
397.707
386.804
371.919
353.281
331.171
305.927
277.94
247.64
215.485
181.95
147.51
112.632
77.7531
43.28
9.58609
-23.0311
-54.2988
-84.004
-111.985
-138.125
-162.353
-184.633
-204.961
-223.359
-239.868
-254.544
-267.456
-278.674
-288.273
-296.334
-302.931
-308.132
-312.004
-314.602
-315.978
-316.149
-315.152
-313.02
-309.749
-305.328
-299.738
-292.954
-284.941
-275.658
-265.065
-253.12
-239.778
-225.007
-208.769
-191.039
-171.797
-151.034
-128.753
-104.974
-79.7363
-53.1021
-25.1671
3.93809
34.0437
65.1492
96.5858
128.28
159.908
191.121
221.545
250.796
278.471
304.158
327.448
347.947
365.283
379.127
389.203
395.298
397.27
395.015
388.64
378.219
363.88
345.887
324.546
300.218
273.307
244.252
213.508
181.535
148.786
115.688
82.6327
49.9714
18.0116
-12.986
-42.7959
-71.2369
-98.1671
-123.478
-147.093
-168.962
-189.062
-207.393
-223.971
-238.83
-252.021
-263.601
-273.637
-282.193
-289.332
-295.106
-299.575
-302.788
-304.783
-305.59
-305.204
-303.689
-301.053
-297.274
-292.327
-286.2
-278.864
-270.272
-260.364
-249.056
-236.264
-221.915
-205.932
-188.283
-168.949
-147.958
-125.354
-101.244
-75.677
-48.8963
-21.088
8.31296
42.5242
76.766
110.819
144.579
177.806
210.036
240.828
269.797
296.456
320.442
341.365
358.901
372.817
382.882
388.91
390.89
389.029
383.461
374.098
361.097
344.626
324.874
302.12
276.76
249.119
219.626
188.677
156.692
124.113
91.3196
58.668
26.5222
-4.72683
-34.764
-63.8901
-91.7003
-118.034
-142.789
-165.89
-187.303
-207.019
-225.043
-241.4
-256.13
-269.277
-280.892
-291.027
-299.734
-307.063
-313.06
-317.766
-321.217
-323.441
-324.428
-323.935
-322.21
-319.214
-314.944
-309.39
-302.507
-294.267
-284.619
-273.53
-260.965
-246.848
-231.122
380.116
396.428
408.94
417.527
422.128
422.597
418.791
411.004
399.259
383.697
364.532
342.048
316.607
288.545
258.279
226.204
192.743
158.346
123.407
88.3383
53.5575
19.6117
-13.4163
-45.5283
-76.3839
-105.765
-133.531
-159.563
-183.8
-206.207
-226.768
-245.497
-262.421
-277.575
-291.003
-302.747
-312.852
-321.36
-328.309
-333.731
-337.655
-340.096
-341.032
-340.479
-338.441
-334.873
-329.768
-323.113
-314.854
-304.953
-293.376
-280.073
-265.004
-248.138
-229.422
-208.854
-186.443
-162.187
-136.131
-108.362
-78.9729
-48.1322
-16.0278
17.1251
51.0476
85.4235
119.936
154.202
187.855
220.496
251.734
281.198
308.525
333.355
355.378
374.292
389.834
401.776
409.919
414.121
414.284
410.365
402.459
390.588
374.927
355.693
333.158
307.64
279.489
249.088
216.841
183.158
148.451
113.124
77.5695
42.1623
7.25914
-26.8053
-59.7292
-91.2428
-121.117
-149.169
-175.261
-199.301
-221.244
-241.083
-258.842
-274.569
-288.33
-300.199
-310.253
-318.568
-325.212
-330.249
-333.732
-335.717
-336.209
-335.259
-332.899
-329.135
-323.979
-317.435
-309.503
-300.183
-289.471
-277.36
-263.842
-248.904
-232.537
-214.728
-195.459
-174.721
-152.506
-128.82
-103.683
-77.1371
-49.2538
-20.1387
10.081
41.5696
73.4409
105.772
138.279
170.629
202.459
233.38
262.988
290.872
316.621
339.84
360.157
377.23
390.757
400.485
406.218
407.808
405.152
398.346
387.41
372.481
353.786
331.609
306.291
278.224
247.841
215.604
181.989
147.475
112.528
77.5887
43.064
9.32691
-23.3239
-54.6166
-84.3387
-112.329
-138.472
-162.699
-184.973
-205.291
-223.677
-240.173
-254.835
-267.731
-278.934
-288.519
-296.567
-303.151
-308.342
-312.205
-314.794
-316.163
-316.329
-315.331
-313.198
-309.928
-305.511
-299.926
-293.148
-285.143
-275.868
-265.284
-253.346
-240.014
-225.251
-209.021
-191.298
-172.062
-151.303
-129.025
-105.246
-80.0043
-53.3624
-25.4133
3.71157
33.8326
64.9931
96.4607
128.204
159.887
191.16
221.651
250.971
278.718
304.479
327.842
348.408
365.806
379.703
389.82
395.941
397.925
395.67
389.275
378.816
364.43
346.377
324.967
300.562
273.572
244.436
213.612
181.563
148.745
115.586
82.4782
49.7732
17.7771
-13.249
-43.0806
-71.5372
-98.4774
-123.793
-147.409
-169.275
-189.369
-207.692
-224.259
-239.106
-252.284
-263.852
-273.875
-282.42
-289.548
-295.313
-299.774
-302.98
-304.967
-305.769
-305.388
-303.872
-301.235
-297.456
-292.512
-286.39
-279.061
-270.48
-260.584
-249.291
-236.514
-222.18
-206.21
-188.572
-169.246
-148.257
-125.655
-101.54
-75.9691
-49.1771
-21.3581
8.0685
42.3658
76.6452
110.743
144.556
177.846
210.146
241.01
270.056
296.789
320.846
341.835
359.428
373.391
383.496
389.566
391.589
389.663
384.067
374.681
361.644
345.122
325.308
302.486
277.051
249.335
219.767
188.746
156.693
124.051
91.2021
58.5029
26.3177
-4.96124
-35.0306
-64.1733
-91.9959
-118.337
-143.094
-166.195
-187.603
-207.312
-225.327
-241.674
-256.393
-269.529
-281.133
-291.257
-299.955
-307.276
-313.266
-317.966
-321.413
-323.633
-324.618
-324.128
-322.404
-319.409
-315.144
-309.596
-302.721
-294.489
-284.85
-273.771
-261.216
-247.108
-231.391
380.736
397.112
409.675
418.298
422.916
423.4
419.596
411.775
399.982
384.361
365.125
342.559
317.029
288.874
258.513
226.343
192.793
158.31
123.295
88.1557
53.315
19.3305
-13.7435
-45.8894
-76.7707
-106.17
-133.945
-159.98
-184.215
-206.615
-227.166
-245.884
-262.795
-277.936
-291.35
-303.082
-313.175
-321.674
-328.614
-334.03
-337.948
-340.385
-341.326
-340.775
-338.737
-335.173
-330.075
-323.429
-315.18
-305.29
-293.726
-280.435
-265.379
-248.526
-229.819
-209.26
-186.855
-162.6
-136.538
-108.759
-79.3511
-48.484
-16.3434
16.8546
50.831
85.2685
119.849
154.19
187.923
220.647
251.968
281.516
308.924
333.833
355.93
374.912
390.513
402.504
410.682
414.905
415.078
411.153
403.215
391.304
375.588
356.287
333.676
308.074
279.835
249.345
217.009
183.238
148.448
113.041
77.4128
41.9381
6.97478
-27.1421
-60.1098
-91.6579
-121.558
-149.625
-175.724
-199.763
-221.699
-241.525
-259.267
-274.976
-288.717
-300.567
-310.603
-318.901
-325.531
-330.556
-334.029
-336.003
-336.491
-335.538
-333.174
-329.409
-324.253
-317.71
-309.779
-300.463
-289.755
-277.648
-264.135
-249.204
-232.845
-215.042
-195.781
-175.05
-152.841
-129.158
-104.019
-77.4675
-49.5705
-20.4299
9.83769
41.2982
73.2351
105.626
138.198
170.619
202.528
233.534
263.231
291.205
317.044
340.351
360.748
377.894
391.483
401.259
407.024
408.629
405.977
399.147
388.169
373.183
354.417
332.157
306.745
278.578
248.093
215.753
182.038
147.43
112.397
77.3822
42.7931
9.00198
-23.6908
-55.0148
-84.7581
-112.76
-138.908
-163.132
-185.398
-205.704
-224.075
-240.554
-255.198
-268.076
-279.261
-288.827
-296.858
-303.427
-308.604
-312.455
-315.034
-316.394
-316.554
-315.555
-313.421
-310.153
-305.739
-300.161
-293.392
-285.395
-276.13
-265.556
-253.63
-240.309
-225.556
-209.336
-191.622
-172.393
-151.641
-129.366
-105.587
-80.3402
-53.6883
-25.722
3.42824
33.5717
64.7937
96.303
128.108
159.861
191.21
221.783
251.19
279.028
304.88
328.333
348.986
366.462
380.425
390.592
396.746
398.742
396.491
390.07
379.564
365.119
346.991
325.493
300.994
273.903
244.665
213.741
181.598
148.693
115.457
82.2842
49.5247
17.4835
-13.5785
-43.4372
-71.9131
-98.8657
-124.188
-147.804
-169.667
-189.754
-208.066
-224.62
-239.452
-252.614
-264.165
-274.173
-282.704
-289.818
-295.572
-300.022
-303.218
-305.198
-305.993
-305.617
-304.099
-301.462
-297.684
-292.744
-286.628
-279.308
-270.74
-260.86
-249.584
-236.826
-222.511
-206.557
-188.933
-169.616
-148.631
-126.032
-101.911
-76.3345
-49.5287
-21.6976
7.7637
42.1675
76.4936
110.646
144.525
177.894
210.282
241.235
270.379
297.206
321.352
342.423
360.087
374.11
384.263
390.376
392.425
390.465
384.833
375.414
362.328
345.742
325.85
302.943
277.415
249.605
219.943
188.832
156.694
123.973
91.0545
58.2957
26.0614
-5.2559
-35.3636
-64.5275
-92.3657
-118.716
-143.477
-166.576
-187.979
-207.679
-225.682
-242.017
-256.722
-269.844
-281.434
-291.545
-300.231
-307.541
-313.522
-318.215
-321.657
-323.872
-324.858
-324.368
-322.646
-319.654
-315.394
-309.854
-302.988
-294.767
-285.14
-274.073
-261.53
-247.434
-231.728
381.48
397.933
410.558
419.225
423.866
424.363
420.561
412.7
400.851
385.158
365.837
343.173
317.536
289.268
258.795
226.511
192.852
158.267
123.159
87.9356
53.0235
18.9919
-14.1371
-46.3236
-77.2357
-106.655
-134.442
-160.481
-184.713
-207.106
-227.645
-246.348
-263.244
-278.368
-291.767
-303.484
-313.564
-322.05
-328.981
-334.389
-338.3
-340.732
-341.677
-341.129
-339.092
-335.534
-330.444
-323.809
-315.572
-305.694
-294.147
-280.87
-265.83
-248.991
-230.296
-209.748
-187.349
-163.096
-137.029
-109.237
-79.8058
-48.9071
-16.7231
16.5292
50.57
85.0815
119.745
154.175
188.004
220.827
252.248
281.897
309.404
334.408
356.593
375.655
391.328
403.377
411.599
415.847
416.03
412.098
404.124
392.165
376.382
357
334.298
308.595
280.25
249.653
217.209
183.333
148.442
112.941
77.2235
41.6678
6.63227
-27.5476
-60.5678
-92.1575
-122.087
-150.174
-176.281
-200.319
-222.245
-242.056
-259.777
-275.464
-289.182
-301.008
-311.022
-319.301
-325.914
-330.924
-334.386
-336.347
-336.829
-335.872
-333.504
-329.738
-324.582
-318.039
-310.112
-300.799
-290.096
-277.994
-264.488
-249.565
-233.213
-215.42
-196.168
-175.445
-153.243
-129.564
-104.424
-77.8648
-49.952
-20.7826
9.53033
40.9854
72.9894
105.451
138.099
170.607
202.61
233.718
263.522
291.605
317.553
340.964
361.459
378.692
392.355
402.189
407.992
409.615
406.968
400.109
389.081
374.028
355.176
332.815
307.291
279.004
248.394
215.93
182.095
147.375
112.239
77.133
42.4665
8.61064
-24.1327
-55.4938
-85.2626
-113.279
-139.431
-163.652
-185.909
-206.2
-224.554
-241.013
-255.635
-268.491
-279.653
-289.198
-297.208
-303.758
-308.919
-312.756
-315.323
-316.671
-316.825
-315.823
-313.689
-310.423
-306.014
-300.443
-293.684
-285.698
-276.445
-265.884
-253.971
-240.663
-225.922
-209.714
-192.011
-172.791
-152.046
-129.775
-105.996
-80.7442
-54.0803
-26.0938
3.0877
33.2867
64.5242
96.1118
127.991
159.827
191.268
221.939
251.452
279.398
305.361
328.923
349.679
367.249
381.291
391.52
397.713
399.725
397.475
391.025
380.464
365.947
347.728
326.126
301.512
274.3
244.94
213.896
181.639
148.63
115.302
82.05
49.2253
17.13
-13.9749
-43.8661
-72.3651
-99.3324
-124.662
-148.279
-170.138
-190.216
-208.515
-225.053
-239.867
-253.009
-264.541
-274.531
-283.044
-290.142
-295.883
-300.321
-303.505
-305.475
-306.264
-305.89
-304.37
-301.734
-297.958
-293.022
-286.913
-279.605
-271.051
-261.19
-249.936
-237.201
-222.908
-206.973
-189.367
-170.062
-149.08
-126.484
-102.356
-76.7732
-49.9514
-22.1048
7.39616
41.9289
76.3107
110.529
144.488
177.95
210.445
241.507
270.766
297.706
321.959
343.129
360.879
374.974
385.184
391.343
393.412
391.426
385.758
376.297
363.15
346.486
326.501
303.492
277.852
249.928
220.154
188.934
156.694
123.878
90.8762
58.0459
25.7527
-5.61138
-35.7635
-64.9529
-92.81
-119.172
-143.936
-167.034
-188.429
-208.119
-226.109
-242.428
-257.117
-270.222
-281.796
-291.891
-300.562
-307.859
-313.829
-318.514
-321.949
-324.16
-325.147
-324.657
-322.935
-319.947
-315.694
-310.163
-303.308
-295.101
-285.487
-274.434
-261.906
-247.825
-232.132
382.349
398.891
411.589
420.308
424.978
425.488
421.683
413.779
401.865
386.09
366.669
343.89
318.127
289.728
259.122
226.705
192.92
158.216
122.999
87.6775
52.6826
18.5952
-14.5976
-46.8314
-77.7794
-107.223
-135.023
-161.067
-185.295
-207.678
-228.204
-246.891
-263.768
-278.873
-292.253
-303.953
-314.017
-322.489
-329.409
-334.807
-338.711
-341.138
-342.086
-341.54
-339.506
-335.954
-330.875
-324.252
-316.029
-306.166
-294.638
-281.377
-266.356
-249.533
-230.853
-210.317
-187.927
-163.675
-137.602
-109.795
-80.3376
-49.4021
-17.1673
16.1483
50.2644
84.8621
119.622
154.157
188.097
221.037
252.575
282.341
309.964
335.078
357.366
376.523
392.279
404.397
412.669
416.948
417.141
413.201
405.187
393.17
377.308
357.833
335.023
309.202
280.734
250.011
217.442
183.443
148.435
112.822
77.0012
41.3509
6.23099
-28.0224
-61.1041
-92.7422
-122.707
-150.816
-176.932
-200.968
-222.884
-242.676
-260.374
-276.034
-289.725
-301.524
-311.512
-319.768
-326.36
-331.354
-334.801
-336.75
-337.224
-336.262
-333.89
-330.122
-324.965
-318.424
-310.5
-301.192
-290.493
-278.399
-264.899
-249.985
-233.644
-215.86
-196.62
-175.907
-153.713
-130.038
-104.897
-78.3295
-50.3987
-21.1978
9.16112
40.6277
72.7036
105.245
137.983
170.591
202.705
233.932
263.86
292.071
318.146
341.679
362.289
379.624
393.374
403.276
409.125
410.769
408.124
401.232
390.147
375.014
356.063
333.583
307.927
279.5
248.745
216.136
182.161
147.308
112.052
76.8404
42.0834
8.15207
-24.6501
-56.0545
-85.8527
-113.886
-140.044
-164.261
-186.506
-206.78
-225.112
-241.548
-256.145
-268.974
-280.11
-289.63
-297.617
-304.144
-309.286
-313.107
-315.659
-316.995
-317.142
-316.136
-314.001
-310.737
-306.334
-300.773
-294.025
-286.052
-276.814
-266.267
-254.369
-241.076
-226.35
-210.156
-192.466
-173.257
-152.52
-130.254
-106.475
-81.217
-54.5388
-26.5292
2.68916
32.9483
64.2119
95.8869
127.854
159.787
191.334
222.121
251.756
279.83
305.922
329.612
350.489
368.168
382.304
392.604
398.844
400.876
398.624
392.14
381.515
366.914
348.589
326.864
302.115
274.762
245.259
214.075
181.685
148.554
115.118
81.7749
48.8743
16.7161
-14.4389
-44.3678
-72.8936
-99.8781
-125.216
-148.835
-170.688
-190.756
-209.04
-225.559
-240.352
-253.471
-264.98
-274.948
-283.441
-290.52
-296.246
-300.668
-303.839
-305.798
-306.58
-306.206
-304.686
-302.051
-298.277
-293.346
-287.246
-279.95
-271.414
-261.576
-250.347
-237.638
-223.371
-207.461
-189.873
-170.582
-149.606
-127.013
-102.877
-77.2856
-50.4456
-22.5783
6.96398
41.6494
76.096
110.39
144.442
178.015
210.633
241.827
271.218
298.289
322.668
343.953
361.803
375.983
386.259
392.467
394.554
392.547
386.842
377.33
364.111
347.357
327.261
304.132
278.362
250.305
220.399
189.053
156.692
123.767
90.6665
57.753
25.3911
-6.02829
-36.2304
-65.4498
-93.3291
-119.704
-144.473
-167.568
-188.956
-208.633
-226.608
-242.908
-257.578
-270.662
-282.217
-292.294
-300.948
-308.23
-314.188
-318.863
-322.29
-324.496
-325.486
-324.993
-323.273
-320.288
-316.044
-310.524
-303.682
-295.49
-285.892
-274.856
-262.345
-248.281
-232.603
383.342
399.987
412.768
421.547
426.253
426.775
422.963
415.012
403.025
387.155
367.62
344.709
318.803
290.253
259.495
226.926
192.996
158.156
122.814
87.3807
52.2918
18.1396
-15.1254
-47.4132
-78.4023
-107.873
-135.688
-161.737
-185.961
-208.333
-228.844
-247.511
-264.366
-279.45
-292.809
-304.488
-314.534
-322.991
-329.897
-335.285
-339.18
-341.602
-342.552
-342.009
-339.979
-336.434
-331.366
-324.757
-316.551
-306.705
-295.198
-281.956
-266.958
-250.153
-231.49
-210.968
-188.588
-164.338
-138.258
-110.435
-80.9471
-49.9694
-17.6767
15.7113
49.9133
84.6098
119.481
154.136
188.203
221.276
252.947
282.849
310.603
335.844
358.251
377.516
393.368
405.564
413.894
418.209
418.414
414.462
406.404
394.32
378.369
358.785
335.852
309.896
281.287
250.42
217.706
183.568
148.425
112.685
76.7452
40.9867
5.77029
-28.5674
-61.7191
-93.4128
-123.418
-151.551
-177.678
-201.712
-223.615
-243.385
-261.057
-276.686
-290.345
-302.113
-312.072
-320.301
-326.871
-331.845
-335.276
-337.21
-337.676
-336.707
-334.331
-330.561
-325.404
-318.865
-310.944
-301.64
-290.948
-278.861
-265.37
-250.466
-234.136
-216.365
-197.137
-176.436
-154.251
-130.581
-105.44
-78.8624
-50.9112
-21.6762
8.73073
40.2233
72.3773
105.008
137.849
170.571
202.811
234.175
264.246
292.603
318.823
342.497
363.238
380.691
394.54
404.52
410.421
412.09
409.447
402.518
391.368
376.144
357.077
334.462
308.655
280.067
249.145
216.37
182.234
147.23
111.837
76.5033
41.6429
7.62546
-25.2438
-56.6976
-86.5294
-114.581
-140.745
-164.957
-187.19
-207.444
-225.752
-242.16
-256.728
-269.528
-280.634
-290.124
-298.084
-304.586
-309.706
-313.507
-316.044
-317.366
-317.504
-316.494
-314.358
-311.097
-306.701
-301.15
-294.414
-286.456
-277.235
-266.705
-254.824
-241.549
-226.839
-210.661
-192.986
-173.789
-153.062
-130.802
-107.023
-81.7587
-55.0647
-27.0285
2.23135
32.5541
63.8578
95.6281
127.695
159.74
191.409
222.328
252.103
280.323
306.563
330.399
351.415
369.22
383.462
393.846
400.14
402.196
399.939
393.415
382.72
368.021
349.575
327.709
302.806
275.29
245.623
214.278
181.735
148.465
114.906
81.458
48.4713
16.241
-14.9709
-44.9427
-73.499
-100.503
-125.85
-149.471
-171.318
-191.374
-209.64
-226.138
-240.906
-253.999
-265.482
-275.425
-283.894
-290.953
-296.66
-301.065
-304.221
-306.168
-306.941
-306.565
-305.045
-302.412
-298.642
-293.716
-287.626
-280.344
-271.829
-262.016
-250.817
-238.138
-223.901
-208.018
-190.452
-171.177
-150.208
-127.618
-103.474
-77.8716
-51.0118
-23.1179
6.46581
41.3286
75.8489
110.229
144.387
178.087
210.847
242.19
271.734
298.956
323.479
344.895
362.861
377.137
387.488
393.748
395.852
393.83
388.084
378.513
365.21
348.353
328.129
304.862
278.944
250.734
220.678
189.187
156.69
123.637
90.4248
57.416
24.9759
-6.50719
-36.7647
-66.0187
-93.9235
-120.313
-145.088
-168.18
-189.558
-209.22
-227.177
-243.457
-258.104
-271.166
-282.699
-292.755
-301.389
-308.654
-314.597
-319.26
-322.679
-324.881
-325.875
-325.376
-323.657
-320.678
-316.444
-310.936
-304.11
-295.934
-286.355
-275.339
-262.847
-248.803
-233.142
384.461
401.221
414.097
422.944
427.69
428.228
424.404
416.401
404.332
388.356
368.691
345.632
319.563
290.843
259.913
227.173
193.08
158.087
122.603
87.0445
51.8505
17.624
-15.7211
-48.0696
-79.105
-108.607
-136.438
-162.492
-186.711
-209.071
-229.563
-248.209
-265.04
-280.099
-293.434
-305.091
-315.116
-323.555
-330.446
-335.822
-339.709
-342.125
-343.076
-342.535
-340.51
-336.974
-331.919
-325.326
-317.138
-307.311
-295.828
-282.609
-267.635
-250.851
-232.207
-211.702
-189.332
-165.084
-138.998
-111.156
-81.6351
-50.6099
-18.252
15.2174
49.5163
84.324
119.319
154.11
188.32
221.543
253.366
283.419
311.322
336.706
359.247
378.634
394.594
406.879
415.274
419.63
419.849
415.882
407.776
395.616
379.564
359.857
336.785
310.677
281.908
250.879
218.003
183.707
148.411
112.528
76.4549
40.5745
5.24929
-29.1833
-62.4139
-94.1701
-124.22
-152.382
-178.52
-202.552
-224.439
-244.185
-261.826
-277.42
-291.044
-302.777
-312.702
-320.901
-327.445
-332.397
-335.811
-337.729
-338.184
-337.209
-334.827
-331.054
-325.897
-319.36
-311.444
-302.146
-291.461
-279.381
-265.901
-251.008
-234.69
-216.933
-197.719
-177.031
-154.857
-131.193
-106.051
-79.464
-51.4901
-22.2186
8.23923
39.7706
72.0098
104.741
137.695
170.546
202.929
234.446
264.68
293.202
319.585
343.418
364.307
381.892
395.854
405.922
411.883
413.581
410.936
403.968
392.744
377.417
358.22
335.452
309.475
280.704
249.595
216.632
182.314
147.14
111.591
76.121
41.144
7.02992
-25.9147
-57.4241
-87.2931
-115.366
-141.536
-165.743
-187.96
-208.192
-226.473
-242.85
-257.384
-270.151
-281.223
-290.681
-298.609
-305.084
-310.179
-313.958
-316.477
-317.783
-317.913
-316.896
-314.759
-311.501
-307.113
-301.574
-294.853
-286.912
-277.709
-267.198
-255.337
-242.082
-227.391
-211.231
-193.572
-174.39
-153.673
-131.419
-107.641
-82.3697
-55.6587
-27.5924
1.71315
32.1034
63.4611
95.3348
127.514
159.684
191.491
222.559
252.492
280.876
307.284
331.285
352.457
370.405
384.769
395.246
401.602
403.683
401.421
394.853
384.078
369.268