/*--------------------------------*- C++ -*----------------------------------*\
| =========                 |                                                 |
| \\      /  F ield         | OpenFOAM: The Open Source CFD Toolbox           |
|  \\    /   O peration     | Version:  3.0.1                                 |
|   \\  /    A nd           | Web:      www.OpenFOAM.org                      |
|    \\/     M anipulation  |                                                 |
\*---------------------------------------------------------------------------*/
FoamFile
{
    version     2.0;
    format      ascii;
    class       volVectorField;
    location    "96.4";
    object      U;
}
// * * * * * * * * * * * * * * * * * * * * * * * * * * * * * * * * * * * * * //

dimensions      [0 1 -1 0 0 0 0];

internalField   nonuniform List<vector> 
21420
(
(0.131306 0.00176883 0)
(0.115058 0.00180786 0)
(0.0965126 0.00185617 0)
(0.0777139 0.00188104 0)
(0.0589034 0.00185118 0)
(0.0402778 0.00183448 0)
(0.0219194 0.00177132 0)
(0.00417307 0.00172032 0)
(-0.0127198 0.00165846 0)
(-0.028926 0.00156525 0)
(-0.0443296 0.0014858 0)
(-0.0588405 0.00139923 0)
(-0.0724112 0.00129569 0)
(-0.0850184 0.00120377 0)
(-0.0966528 0.00110135 0)
(-0.107319 0.00100936 0)
(-0.117029 0.000917569 0)
(-0.125801 0.000822534 0)
(-0.133663 0.000735346 0)
(-0.140641 0.000650174 0)
(-0.146767 0.000565521 0)
(-0.15207 0.000486336 0)
(-0.156583 0.00040961 0)
(-0.160333 0.000334686 0)
(-0.163348 0.00026288 0)
(-0.165658 0.00019227 0)
(-0.167276 0.00012376 0)
(-0.168181 5.9169e-05 0)
(-0.168446 -6.5926e-06 0)
(-0.168032 -7.41902e-05 0)
(-0.166947 -0.000141676 0)
(-0.16518 -0.000210129 0)
(-0.162719 -0.000279623 0)
(-0.159547 -0.000352008 0)
(-0.155644 -0.000425476 0)
(-0.150979 -0.000501274 0)
(-0.145527 -0.000582647 0)
(-0.139265 -0.000662816 0)
(-0.13216 -0.000745638 0)
(-0.124183 -0.000837645 0)
(-0.115311 -0.000923784 0)
(-0.105524 -0.00102281 0)
(-0.0948081 -0.00111021 0)
(-0.0831565 -0.0011958 0)
(-0.0705573 -0.00130217 0)
(-0.0569722 -0.00138415 0)
(-0.0425361 -0.00145728 0)
(-0.0271778 -0.00155694 0)
(-0.0110533 -0.0016275 0)
(0.00547988 -0.00166773 0)
(0.022622 -0.00174002 0)
(0.0403209 -0.00176593 0)
(0.0583252 -0.00180344 0)
(0.0764765 -0.00179887 0)
(0.0945532 -0.00176982 0)
(0.112327 -0.00174088 0)
(0.129611 -0.00167752 0)
(0.14617 -0.0015849 0)
(0.16176 -0.00148559 0)
(0.176176 -0.00135392 0)
(0.189204 -0.0012083 0)
(0.200649 -0.00104586 0)
(0.210321 -0.000856184 0)
(0.218027 -0.000661111 0)
(0.223689 -0.000449555 0)
(0.227172 -0.000224918 0)
(0.228375 -8.04473e-06 0)
(0.227352 0.000221034 0)
(0.223837 0.000437164 0)
(0.218225 0.000654975 0)
(0.210425 0.000867782 0)
(0.200595 0.00105657 0)
(0.188911 0.00123415 0)
(0.175387 0.00140358 0)
(0.160471 0.00153796 0)
(0.144289 0.00165547 0)
(0.12712 0.00173765 0)
(0.109124 0.00180901 0)
(0.0905663 0.00185025 0)
(0.0716679 0.00186981 0)
(0.0527501 0.00187305 0)
(0.0339618 0.00184375 0)
(0.0155641 0.00179997 0)
(-0.00215557 0.00173208 0)
(-0.0192288 0.00164625 0)
(-0.0353664 0.00154885 0)
(-0.0504416 0.00144631 0)
(-0.0644417 0.00134384 0)
(-0.077428 0.00124382 0)
(-0.0894387 0.00114659 0)
(-0.100505 0.00105373 0)
(-0.110672 0.000968477 0)
(-0.119935 0.000878023 0)
(-0.128299 0.000787806 0)
(-0.135744 0.000694756 0)
(-0.142256 0.00060063 0)
(-0.14784 0.000510504 0)
(-0.152536 0.000419561 0)
(-0.156355 0.000335438 0)
(-0.159306 0.000258671 0)
(-0.161467 0.000173661 0)
(-0.162861 0.000102295 0)
(-0.163558 3.53988e-05 0)
(-0.163528 -3.7437e-05 0)
(-0.162801 -0.00010551 0)
(-0.161446 -0.000168037 0)
(-0.159447 -0.000228294 0)
(-0.156842 -0.000296164 0)
(-0.153524 -0.000355753 0)
(-0.149519 -0.000424479 0)
(-0.144873 -0.00049828 0)
(-0.1395 -0.000564903 0)
(-0.133409 -0.000637174 0)
(-0.126606 -0.000713776 0)
(-0.119078 -0.000789776 0)
(-0.110764 -0.000855148 0)
(-0.101655 -0.000937715 0)
(-0.0918259 -0.00102236 0)
(-0.0811611 -0.00108455 0)
(-0.0697254 -0.00117299 0)
(-0.0575122 -0.00125032 0)
(-0.0445367 -0.00133277 0)
(-0.0307993 -0.00139234 0)
(-0.0163077 -0.00146828 0)
(-0.00115578 -0.00152848 0)
(0.0145931 -0.00158828 0)
(0.0308439 -0.0016326 0)
(0.0474883 -0.00166912 0)
(0.0644371 -0.00168704 0)
(0.081513 -0.00169729 0)
(0.0985513 -0.00167928 0)
(0.115324 -0.00164491 0)
(0.131636 -0.00158666 0)
(0.147239 -0.00150438 0)
(0.161857 -0.00139344 0)
(0.175236 -0.0012568 0)
(0.187134 -0.00110323 0)
(0.197326 -0.000913273 0)
(0.205565 -0.000718711 0)
(0.211698 -0.00049849 0)
(0.215552 -0.000260595 0)
(0.216986 -2.71546e-05 0)
(0.216059 0.00021661 0)
(0.212551 0.000461567 0)
(0.206683 0.00069629 0)
(0.19851 0.000920558 0)
(0.18816 0.00113374 0)
(0.175785 0.00132355 0)
(0.161594 0.00149235 0)
(0.145836 0.00163022 0)
(0.12878 0.00174591 0)
(0.110684 0.00184179 0)
(0.0918526 0.00189748 0)
(0.0725565 0.00192797 0)
(0.0531093 0.00193394 0)
(0.0337326 0.00191198 0)
(0.0146938 0.00186604 0)
(-0.00378069 0.00180077 0)
(-0.0215629 0.00172637 0)
(-0.0385149 0.00163996 0)
(-0.0545472 0.00154317 0)
(-0.0695587 0.00143743 0)
(-0.0834895 0.00133525 0)
(-0.0963512 0.00122361 0)
(-0.108138 0.00111821 0)
(-0.118862 0.00101009 0)
(-0.128538 0.00090487 0)
(-0.137191 0.000811765 0)
(-0.144867 0.000714482 0)
(-0.151602 0.000623823 0)
(-0.157452 0.000535745 0)
(-0.162446 0.000461513 0)
(-0.166665 0.000379451 0)
(-0.170119 0.000303865 0)
(-0.172803 0.000230776 0)
(-0.174795 0.000163443 0)
(-0.176108 0.000100093 0)
(-0.176793 3.50433e-05 0)
(-0.17686 -1.9968e-05 0)
(-0.176313 -7.77355e-05 0)
(-0.175228 -0.000139168 0)
(-0.173508 -0.000200352 0)
(-0.17116 -0.000260129 0)
(-0.168215 -0.000323242 0)
(-0.164657 -0.000381897 0)
(-0.160542 -0.000436861 0)
(-0.155818 -0.000497049 0)
(-0.150473 -0.000563702 0)
(-0.144444 -0.000631542 0)
(-0.1376 -0.000723381 0)
(-0.129901 -0.000803753 0)
(-0.121276 -0.000899345 0)
(-0.111794 -0.000994224 0)
(-0.101359 -0.00107169 0)
(-0.0900315 -0.00116286 0)
(-0.0779121 -0.0012424 0)
(-0.0649989 -0.00131631 0)
(-0.0513359 -0.00138897 0)
(-0.0369872 -0.00146416 0)
(-0.0219535 -0.00151698 0)
(-0.00625873 -0.00158269 0)
(0.00994508 -0.00162713 0)
(0.0265075 -0.00165594 0)
(0.0432661 -0.00167035 0)
(0.0600662 -0.00165691 0)
(0.0767078 -0.00163912 0)
(0.0930053 -0.00159392 0)
(0.10876 -0.00152509 0)
(0.123713 -0.00143761 0)
(0.137648 -0.00132237 0)
(0.150293 -0.00118028 0)
(0.161367 -0.00101621 0)
(0.170688 -0.00082535 0)
(0.178003 -0.000623575 0)
(0.183173 -0.00040538 0)
(0.186071 -0.00016517 0)
(0.186584 6.522e-05 0)
(0.184701 0.00030883 0)
(0.180305 0.000550026 0)
(0.17361 0.000777692 0)
(0.16468 0.000993008 0)
(0.153672 0.00118975 0)
(0.140788 0.00136168 0)
(0.12629 0.00151147 0)
(0.110412 0.00163395 0)
(0.0934404 0.00172804 0)
(0.0756695 0.00179338 0)
(0.0573993 0.00183419 0)
(0.0388627 0.00184481 0)
(0.0203296 0.00183255 0)
(0.00201323 0.00180752 0)
(-0.0159312 0.00175277 0)
(-0.033316 0.00169212 0)
(-0.0500068 0.00162515 0)
(-0.0659054 0.00152971 0)
(-0.0808786 0.00143325 0)
(-0.0948417 0.0013398 0)
(-0.107772 0.00123336 0)
(-0.119667 0.00113168 0)
(-0.130546 0.00102985 0)
(-0.140417 0.000931174 0)
(-0.149287 0.000830306 0)
(-0.157179 0.000737435 0)
(-0.16415 0.000649416 0)
(-0.170282 0.000567924 0)
(-0.175609 0.000489616 0)
(-0.180156 0.000414366 0)
(-0.183945 0.000337743 0)
(-0.186976 0.000260455 0)
(-0.18927 0.000187973 0)
(-0.190832 0.000128312 0)
(-0.191714 6.09676e-05 0)
(-0.192029 3.29264e-06 0)
(-0.191734 -5.51807e-05 0)
(-0.190916 -0.000106085 0)
(-0.18959 -0.000159145 0)
(-0.187748 -0.000203213 0)
(-0.185444 -0.000252469 0)
(-0.182619 -0.000307119 0)
(-0.179238 -0.000360724 0)
(-0.175303 -0.000415136 0)
(-0.170788 -0.000478163 0)
(-0.16566 -0.000540506 0)
(-0.159839 -0.000596387 0)
(-0.153346 -0.000670425 0)
(-0.146251 -0.000739384 0)
(-0.138358 -0.000800592 0)
(-0.129766 -0.000888742 0)
(-0.120365 -0.000960105 0)
(-0.110104 -0.00105539 0)
(-0.0990586 -0.00112346 0)
(-0.0870863 -0.00122485 0)
(-0.074312 -0.00129701 0)
(-0.0606776 -0.00139508 0)
(-0.0462266 -0.00145741 0)
(-0.0308796 -0.00155158 0)
(-0.0149296 -0.00161294 0)
(0.00208304 -0.00168527 0)
(0.0199574 -0.00173785 0)
(0.0379753 -0.00177915 0)
(0.0561807 -0.00180822 0)
(0.0744754 -0.00181334 0)
(0.0926901 -0.00177898 0)
(0.110326 -0.00171371 0)
(0.127051 -0.00162449 0)
(0.142726 -0.00148294 0)
(0.156838 -0.00131047 0)
(0.169033 -0.00111374 0)
(0.179143 -0.000882303 0)
(0.18688 -0.000635092 0)
(0.191969 -0.000369286 0)
(0.19435 -8.14524e-05 0)
(0.193966 0.0001976 0)
(0.190468 0.000481335 0)
(0.184224 0.000758489 0)
(0.175402 0.00098949 0)
(0.164261 0.00121208 0)
(0.151143 0.00140322 0)
(0.136278 0.001541 0)
(0.120102 0.00166544 0)
(0.103007 0.00172672 0)
(0.0852053 0.00177926 0)
(0.0671296 0.00180478 0)
(0.0489718 0.00177514 0)
(0.0310508 0.00175117 0)
(0.0135393 0.00170648 0)
(-0.00292535 0.00161762 0)
(-0.0183869 0.00154948 0)
(-0.0334162 0.00145665 0)
(-0.0475907 0.00136959 0)
(-0.0608616 0.00127936 0)
(-0.0732108 0.00118323 0)
(-0.0846579 0.00109644 0)
(-0.095235 0.00101224 0)
(-0.104978 0.000928422 0)
(-0.113936 0.000853835 0)
(-0.122159 0.000780827 0)
(-0.129696 0.000716067 0)
(-0.136593 0.000654881 0)
(-0.142885 0.000594871 0)
(-0.1486 0.000539367 0)
(-0.153756 0.000484528 0)
(-0.158355 0.000428195 0)
(-0.16239 0.00037185 0)
(-0.165845 0.000312128 0)
(-0.16869 0.000249866 0)
(-0.170896 0.000182958 0)
(-0.172401 0.000112804 0)
(-0.173182 4.04147e-05 0)
(-0.173209 -4.02472e-05 0)
(-0.172381 -0.000125098 0)
(-0.170687 -0.000213428 0)
(-0.168079 -0.000304665 0)
(-0.164534 -0.000399688 0)
(-0.160025 -0.000495255 0)
(-0.154536 -0.000594724 0)
(-0.148063 -0.0006915 0)
(-0.1406 -0.00078698 0)
(-0.132156 -0.000887411 0)
(-0.122753 -0.000978465 0)
(-0.112417 -0.00106533 0)
(-0.101182 -0.00115941 0)
(-0.0890966 -0.00123604 0)
(-0.0762158 -0.00132159 0)
(-0.0626053 -0.00138447 0)
(-0.0483416 -0.0014381 0)
(-0.0335035 -0.00150296 0)
(-0.0181158 -0.00153683 0)
(-0.00241834 -0.0015599 0)
(0.0134612 -0.00159394 0)
(0.0295023 -0.00159007 0)
(0.0455395 -0.00159684 0)
(0.0614167 -0.00156387 0)
(0.0769703 -0.00151558 0)
(0.092049 -0.00147451 0)
(0.106485 -0.00139466 0)
(0.121411 -0.00129999 0)
(0.131334 0.00530752 0)
(0.115077 0.00542453 0)
(0.0965226 0.00556942 0)
(0.077715 0.00564399 0)
(0.0588966 0.00555427 0)
(0.0402636 0.0055041 0)
(0.0218991 0.00531456 0)
(0.00414748 0.0051614 0)
(-0.0127493 0.0049757 0)
(-0.0289582 0.00469599 0)
(-0.0443645 0.0044576 0)
(-0.0588772 0.00419783 0)
(-0.0724484 0.00388714 0)
(-0.0850561 0.00361132 0)
(-0.09669 0.00330402 0)
(-0.107356 0.00302801 0)
(-0.117065 0.00275263 0)
(-0.125837 0.00246751 0)
(-0.133697 0.00220593 0)
(-0.140675 0.00195039 0)
(-0.146799 0.00169643 0)
(-0.152101 0.00145886 0)
(-0.156613 0.00122868 0)
(-0.160362 0.00100391 0)
(-0.163376 0.000788497 0)
(-0.165684 0.000576794 0)
(-0.167303 0.000371382 0)
(-0.168209 0.000176628 0)
(-0.168472 -1.93524e-05 0)
(-0.168059 -0.000222636 0)
(-0.166974 -0.000425097 0)
(-0.165208 -0.000630397 0)
(-0.162748 -0.000838845 0)
(-0.159577 -0.00105592 0)
(-0.155674 -0.00127636 0)
(-0.151011 -0.00150372 0)
(-0.14556 -0.00174785 0)
(-0.1393 -0.00198832 0)
(-0.132196 -0.00223675 0)
(-0.124221 -0.00251279 0)
(-0.11535 -0.00277122 0)
(-0.105565 -0.0030683 0)
(-0.0948486 -0.00333052 0)
(-0.0831977 -0.00358765 0)
(-0.0705993 -0.00390633 0)
(-0.0570124 -0.0041524 0)
(-0.0425753 -0.00437202 0)
(-0.0272172 -0.00467095 0)
(-0.0110875 -0.00488307 0)
(0.0054502 -0.00500346 0)
(0.0225952 -0.00522078 0)
(0.0403 -0.00529828 0)
(0.0583115 -0.00541132 0)
(0.0764706 -0.00539715 0)
(0.0945552 -0.00531066 0)
(0.112339 -0.00522348 0)
(0.129633 -0.00503287 0)
(0.1462 -0.00475878 0)
(0.161803 -0.00445771 0)
(0.176231 -0.00405878 0)
(0.189263 -0.00363018 0)
(0.200725 -0.00313694 0)
(0.210406 -0.00256665 0)
(0.218118 -0.00198242 0)
(0.223783 -0.00135689 0)
(0.227283 -0.000668195 0)
(0.228484 -2.55158e-05 0)
(0.227453 0.000661307 0)
(0.223939 0.00131153 0)
(0.21833 0.00196482 0)
(0.210527 0.00260398 0)
(0.20069 0.00317103 0)
(0.188997 0.00370136 0)
(0.175466 0.00421231 0)
(0.160538 0.00461482 0)
(0.14434 0.00496814 0)
(0.127161 0.00521293 0)
(0.109153 0.00543096 0)
(0.0905823 0.0055545 0)
(0.0716728 0.00560994 0)
(0.0527425 0.00562127 0)
(0.0339455 0.00553026 0)
(0.0155415 0.00539814 0)
(-0.00218561 0.00519736 0)
(-0.0192595 0.00493878 0)
(-0.0354004 0.00465164 0)
(-0.0504793 0.00433317 0)
(-0.0644703 0.00402445 0)
(-0.07745 0.0037223 0)
(-0.089446 0.00344076 0)
(-0.100504 0.00316374 0)
(-0.110667 0.00289829 0)
(-0.119927 0.00262921 0)
(-0.128289 0.00235828 0)
(-0.135734 0.00207641 0)
(-0.142244 0.00179887 0)
(-0.147833 0.00153267 0)
(-0.152539 0.00125415 0)
(-0.156366 0.000995483 0)
(-0.159318 0.000771563 0)
(-0.161481 0.000528604 0)
(-0.162891 0.000300144 0)
(-0.163585 9.95006e-05 0)
(-0.163554 -0.000108843 0)
(-0.162826 -0.000299557 0)
(-0.16149 -0.000497788 0)
(-0.159505 -0.000696409 0)
(-0.156893 -0.000887954 0)
(-0.15358 -0.00106436 0)
(-0.149588 -0.00128687 0)
(-0.14493 -0.00149303 0)
(-0.13957 -0.00169427 0)
(-0.13349 -0.00191867 0)
(-0.126674 -0.00213284 0)
(-0.119157 -0.00237063 0)
(-0.110848 -0.00257066 0)
(-0.101741 -0.00281747 0)
(-0.0919111 -0.00306996 0)
(-0.0812558 -0.00326761 0)
(-0.0698106 -0.00351762 0)
(-0.0575954 -0.00375023 0)
(-0.0446239 -0.00399571 0)
(-0.0308954 -0.00417422 0)
(-0.0164128 -0.00440576 0)
(-0.0012661 -0.00459303 0)
(0.0144852 -0.00476213 0)
(0.0307298 -0.00490018 0)
(0.0473757 -0.00500392 0)
(0.0643103 -0.00507955 0)
(0.0814011 -0.00508083 0)
(0.0984292 -0.00504369 0)
(0.115205 -0.00493431 0)
(0.131523 -0.00475831 0)
(0.147123 -0.00450601 0)
(0.161743 -0.00418279 0)
(0.175127 -0.00377622 0)
(0.187033 -0.00330666 0)
(0.197215 -0.00274806 0)
(0.205458 -0.00215001 0)
(0.211589 -0.00149196 0)
(0.215444 -0.000795226 0)
(0.216883 -8.22381e-05 0)
(0.215948 0.000642219 0)
(0.212444 0.00138918 0)
(0.206575 0.00207716 0)
(0.198409 0.00277024 0)
(0.188046 0.00339945 0)
(0.175667 0.00396209 0)
(0.161465 0.004468 0)
(0.145714 0.0048894 0)
(0.128661 0.00524715 0)
(0.110561 0.00551955 0)
(0.0917159 0.00568806 0)
(0.0724194 0.00578194 0)
(0.052957 0.00579574 0)
(0.0335868 0.00572937 0)
(0.0145486 0.00560245 0)
(-0.00393235 0.00540779 0)
(-0.0217198 0.0051862 0)
(-0.0386869 0.00491557 0)
(-0.0547195 0.00461835 0)
(-0.069728 0.00430131 0)
(-0.0836521 0.00400376 0)
(-0.0965119 0.00366881 0)
(-0.108297 0.00334724 0)
(-0.119009 0.00303772 0)
(-0.128686 0.00272603 0)
(-0.137347 0.00243176 0)
(-0.145015 0.00213338 0)
(-0.151749 0.00186795 0)
(-0.157593 0.00160274 0)
(-0.162581 0.00138344 0)
(-0.166793 0.00113176 0)
(-0.170244 0.0009211 0)
(-0.172933 0.000695234 0)
(-0.174925 0.000491097 0)
(-0.176239 0.000293662 0)
(-0.176919 9.90276e-05 0)
(-0.176984 -5.38121e-05 0)
(-0.176446 -0.000243672 0)
(-0.175347 -0.000413831 0)
(-0.173637 -0.000602061 0)
(-0.171299 -0.000790469 0)
(-0.168338 -0.000966035 0)
(-0.16479 -0.00114291 0)
(-0.160677 -0.00130906 0)
(-0.155955 -0.0014947 0)
(-0.150621 -0.00169989 0)
(-0.144585 -0.00189538 0)
(-0.13775 -0.00217403 0)
(-0.130055 -0.00240368 0)
(-0.121447 -0.00270258 0)
(-0.111954 -0.00298115 0)
(-0.101526 -0.0032163 0)
(-0.0902047 -0.00348619 0)
(-0.0780917 -0.00372828 0)
(-0.0651781 -0.00394713 0)
(-0.0515272 -0.00416922 0)
(-0.0371765 -0.00439075 0)
(-0.0221411 -0.00455815 0)
(-0.0064516 -0.00474733 0)
(0.00975579 -0.0048789 0)
(0.0263235 -0.0049691 0)
(0.043089 -0.00500444 0)
(0.0598859 -0.0049823 0)
(0.0765372 -0.00491576 0)
(0.0928378 -0.00477789 0)
(0.108589 -0.00459 0)
(0.123565 -0.00431835 0)
(0.137517 -0.00395834 0)
(0.15016 -0.00354685 0)
(0.161249 -0.00304921 0)
(0.170574 -0.00248927 0)
(0.177915 -0.00186445 0)
(0.183092 -0.00121324 0)
(0.185989 -0.000512313 0)
(0.186517 0.000194357 0)
(0.184628 0.000922019 0)
(0.180247 0.0016513 0)
(0.173553 0.00233099 0)
(0.164618 0.0029753 0)
(0.153606 0.00356236 0)
(0.140721 0.00408584 0)
(0.126219 0.00453599 0)
(0.110338 0.00490874 0)
(0.0933477 0.00518288 0)
(0.0755702 0.00538064 0)
(0.0572833 0.0054979 0)
(0.0387496 0.00553093 0)
(0.0202041 0.0055048 0)
(0.00186992 0.0054064 0)
(-0.0160742 0.00526007 0)
(-0.0334701 0.0050808 0)
(-0.0501651 0.0048665 0)
(-0.0660626 0.00459295 0)
(-0.0810404 0.00431218 0)
(-0.095018 0.0040236 0)
(-0.107962 0.00369421 0)
(-0.119858 0.0033924 0)
(-0.130739 0.00308373 0)
(-0.140609 0.00278868 0)
(-0.149472 0.00249074 0)
(-0.157362 0.00221762 0)
(-0.164332 0.00194288 0)
(-0.170459 0.00170069 0)
(-0.17578 0.0014623 0)
(-0.180319 0.00123694 0)
(-0.184093 0.00101227 0)
(-0.187119 0.000787535 0)
(-0.189409 0.000561407 0)
(-0.190969 0.000385353 0)
(-0.191845 0.000175098 0)
(-0.192153 7.24241e-06 0)
(-0.191854 -0.000170556 0)
(-0.191029 -0.000322024 0)
(-0.18969 -0.000467653 0)
(-0.18785 -0.000614434 0)
(-0.185539 -0.000760539 0)
(-0.18271 -0.000921577 0)
(-0.17933 -0.00108158 0)
(-0.175393 -0.00125264 0)
(-0.170868 -0.00143507 0)
(-0.165737 -0.00162121 0)
(-0.159923 -0.00179397 0)
(-0.153416 -0.00200842 0)
(-0.146321 -0.00222179 0)
(-0.138426 -0.00240247 0)
(-0.129834 -0.00267209 0)
(-0.120423 -0.00287396 0)
(-0.110161 -0.00316164 0)
(-0.0991228 -0.00337431 0)
(-0.0871428 -0.0036823 0)
(-0.0743552 -0.0038848 0)
(-0.0607277 -0.00418645 0)
(-0.0462688 -0.00437337 0)
(-0.0309168 -0.00465314 0)
(-0.0149663 -0.00484316 0)
(0.0020594 -0.00505462 0)
(0.0199367 -0.00521243 0)
(0.0379591 -0.00534329 0)
(0.056179 -0.00542612 0)
(0.0744874 -0.00543979 0)
(0.0927165 -0.00533641 0)
(0.110365 -0.00514254 0)
(0.127109 -0.0048726 0)
(0.142796 -0.00445597 0)
(0.156927 -0.00393595 0)
(0.169134 -0.00334256 0)
(0.179254 -0.00264871 0)
(0.187002 -0.00190891 0)
(0.192105 -0.00109852 0)
(0.194487 -0.000243082 0)
(0.194094 0.000592918 0)
(0.190586 0.00144409 0)
(0.184343 0.00227565 0)
(0.175511 0.00296858 0)
(0.164357 0.00363852 0)
(0.151224 0.00420593 0)
(0.136346 0.00462343 0)
(0.120153 0.00499759 0)
(0.103043 0.00518166 0)
(0.0852288 0.00533902 0)
(0.0671394 0.00541573 0)
(0.0489714 0.00532636 0)
(0.0310428 0.00525439 0)
(0.0135205 0.00511943 0)
(-0.00294913 0.00485374 0)
(-0.0184128 0.00464914 0)
(-0.0334461 0.00437022 0)
(-0.0476229 0.00410897 0)
(-0.0608945 0.00383823 0)
(-0.0732432 0.00354968 0)
(-0.0846898 0.00328928 0)
(-0.0952657 0.00303665 0)
(-0.105007 0.00278517 0)
(-0.113963 0.00256139 0)
(-0.122184 0.00234238 0)
(-0.12972 0.0021481 0)
(-0.136616 0.00196455 0)
(-0.142906 0.00178456 0)
(-0.148621 0.00161808 0)
(-0.153777 0.0014536 0)
(-0.158376 0.00128463 0)
(-0.162413 0.00111563 0)
(-0.165868 0.000936538 0)
(-0.168715 0.000749762 0)
(-0.170921 0.000548859 0)
(-0.172432 0.000338152 0)
(-0.173213 0.000121945 0)
(-0.173241 -0.000120539 0)
(-0.172416 -0.000375254 0)
(-0.170724 -0.000640213 0)
(-0.168117 -0.000913953 0)
(-0.164572 -0.0011991 0)
(-0.160064 -0.00148576 0)
(-0.154575 -0.00178418 0)
(-0.148102 -0.00207458 0)
(-0.140639 -0.00236099 0)
(-0.132195 -0.00266233 0)
(-0.122791 -0.00293553 0)
(-0.112453 -0.00319611 0)
(-0.101217 -0.00347841 0)
(-0.0891285 -0.00370834 0)
(-0.0762456 -0.00396505 0)
(-0.0626319 -0.00415372 0)
(-0.0483646 -0.00431467 0)
(-0.033523 -0.00450931 0)
(-0.0181312 -0.00461103 0)
(-0.00242908 -0.00468021 0)
(0.0134557 -0.0047823 0)
(0.0295023 -0.00477071 0)
(0.0455454 -0.0047911 0)
(0.0614287 -0.00469222 0)
(0.0769883 -0.00454734 0)
(0.092074 -0.00442418 0)
(0.106516 -0.00418463 0)
(0.12145 -0.0039006 0)
(0.131391 0.00884929 0)
(0.115115 0.00904407 0)
(0.0965415 0.00928542 0)
(0.0777159 0.00940953 0)
(0.0588816 0.00925961 0)
(0.040234 0.00917572 0)
(0.021857 0.0088596 0)
(0.00409487 0.00860376 0)
(-0.0128098 0.00829393 0)
(-0.0290242 0.00782752 0)
(-0.0444357 0.00742995 0)
(-0.0589522 0.00699677 0)
(-0.0725241 0.00647875 0)
(-0.0851331 0.00601888 0)
(-0.0967658 0.00550658 0)
(-0.107431 0.00504645 0)
(-0.117139 0.00458741 0)
(-0.125908 0.00411218 0)
(-0.133767 0.00367617 0)
(-0.140742 0.00325022 0)
(-0.146863 0.00282695 0)
(-0.152163 0.00243098 0)
(-0.156673 0.00204741 0)
(-0.160419 0.00167283 0)
(-0.163432 0.00131391 0)
(-0.165737 0.000961407 0)
(-0.167355 0.000619287 0)
(-0.168263 0.000296024 0)
(-0.168527 -3.46716e-05 0)
(-0.168112 -0.000371639 0)
(-0.167028 -0.000708494 0)
(-0.165263 -0.00105052 0)
(-0.162804 -0.00139787 0)
(-0.159635 -0.00175957 0)
(-0.155734 -0.00212694 0)
(-0.151072 -0.00250585 0)
(-0.145625 -0.00291278 0)
(-0.139366 -0.00331352 0)
(-0.132264 -0.00372758 0)
(-0.124291 -0.00418769 0)
(-0.115422 -0.00461846 0)
(-0.105638 -0.00511363 0)
(-0.0949218 -0.00555045 0)
(-0.0832709 -0.00598036 0)
(-0.0706728 -0.00651036 0)
(-0.0570813 -0.0069208 0)
(-0.0426409 -0.00728777 0)
(-0.027282 -0.00778519 0)
(-0.0111404 -0.00814063 0)
(0.00540772 -0.00834 0)
(0.0225594 -0.00870331 0)
(0.0402768 -0.00883301 0)
(0.0583037 -0.00902112 0)
(0.0764771 -0.00899872 0)
(0.0945783 -0.00885348 0)
(0.11238 -0.00870933 0)
(0.12969 -0.00839208 0)
(0.146276 -0.00793315 0)
(0.161898 -0.00743259 0)
(0.176339 -0.00677056 0)
(0.189389 -0.00604881 0)
(0.200864 -0.00523169 0)
(0.210556 -0.00428344 0)
(0.218282 -0.00330667 0)
(0.223957 -0.00225811 0)
(0.227457 -0.00112251 0)
(0.228667 -4.18523e-05 0)
(0.227613 0.00110247 0)
(0.224102 0.00218417 0)
(0.218497 0.00327601 0)
(0.210685 0.00434105 0)
(0.200834 0.00528792 0)
(0.18913 0.00617249 0)
(0.175584 0.0070219 0)
(0.160638 0.00769183 0)
(0.144417 0.00828775 0)
(0.12722 0.00869338 0)
(0.109192 0.00905406 0)
(0.0906024 0.00925877 0)
(0.071676 0.00935336 0)
(0.0527261 0.00937129 0)
(0.0339172 0.00921932 0)
(0.0155037 0.00900303 0)
(-0.00224356 0.00866547 0)
(-0.0193364 0.00822862 0)
(-0.0354861 0.00775295 0)
(-0.0505651 0.00722485 0)
(-0.0645537 0.00670926 0)
(-0.0775309 0.0062075 0)
(-0.0895269 0.00572992 0)
(-0.100576 0.00526942 0)
(-0.110734 0.00483572 0)
(-0.12 0.00438294 0)
(-0.128371 0.00393184 0)
(-0.13583 0.00346531 0)
(-0.142351 0.00299759 0)
(-0.147957 0.00255187 0)
(-0.152673 0.00209225 0)
(-0.156499 0.00166796 0)
(-0.159466 0.0012948 0)
(-0.161648 0.000879336 0)
(-0.163064 0.000502257 0)
(-0.163763 0.000167289 0)
(-0.163745 -0.000177521 0)
(-0.163035 -0.00050647 0)
(-0.161711 -0.000834415 0)
(-0.159723 -0.00114947 0)
(-0.157115 -0.00147873 0)
(-0.153816 -0.00178316 0)
(-0.14982 -0.00212814 0)
(-0.145168 -0.0024864 0)
(-0.139822 -0.00283383 0)
(-0.133747 -0.00319103 0)
(-0.126934 -0.00355587 0)
(-0.119409 -0.00395415 0)
(-0.1111 -0.00428141 0)
(-0.102008 -0.00469011 0)
(-0.092173 -0.00510845 0)
(-0.081514 -0.00544735 0)
(-0.070078 -0.00586335 0)
(-0.057861 -0.00624498 0)
(-0.0448825 -0.00665495 0)
(-0.0311548 -0.00696626 0)
(-0.0166757 -0.00733973 0)
(-0.00152906 -0.00765202 0)
(0.0142229 -0.00793589 0)
(0.0304783 -0.00817207 0)
(0.0471344 -0.00834202 0)
(0.0640769 -0.00845617 0)
(0.0811733 -0.00847158 0)
(0.0982178 -0.00840279 0)
(0.115007 -0.00823096 0)
(0.131343 -0.00792953 0)
(0.146953 -0.00752007 0)
(0.16159 -0.00697213 0)
(0.174993 -0.00628611 0)
(0.186914 -0.0055079 0)
(0.197105 -0.0045878 0)
(0.205358 -0.00359216 0)
(0.211503 -0.0024712 0)
(0.215363 -0.0013306 0)
(0.216826 -0.000136502 0)
(0.215875 0.00107542 0)
(0.212371 0.00230932 0)
(0.206505 0.0034711 0)
(0.198319 0.0046123 0)
(0.187946 0.00567056 0)
(0.175553 0.00660943 0)
(0.161333 0.00744708 0)
(0.145565 0.0081532 0)
(0.128488 0.00875272 0)
(0.110373 0.00919484 0)
(0.0915133 0.00948472 0)
(0.0721984 0.0096384 0)
(0.0527213 0.00967471 0)
(0.033329 0.00955066 0)
(0.0142643 0.00933524 0)
(-0.00423713 0.0090121 0)
(-0.0220339 0.00864129 0)
(-0.0390068 0.00819595 0)
(-0.055046 0.00769857 0)
(-0.0700557 0.00718027 0)
(-0.0839958 0.00667359 0)
(-0.0968577 0.00610806 0)
(-0.108633 0.00558514 0)
(-0.119347 0.00505602 0)
(-0.129024 0.00453591 0)
(-0.137677 0.00404903 0)
(-0.14534 0.00356561 0)
(-0.152082 0.00311105 0)
(-0.157915 0.00267001 0)
(-0.162893 0.00231178 0)
(-0.167101 0.00188507 0)
(-0.170551 0.00153046 0)
(-0.17324 0.00115474 0)
(-0.175229 0.000817024 0)
(-0.176552 0.000489117 0)
(-0.177225 0.000164982 0)
(-0.177281 -8.63567e-05 0)
(-0.176736 -0.000402442 0)
(-0.175639 -0.000691467 0)
(-0.173939 -0.00100308 0)
(-0.1716 -0.00131239 0)
(-0.168642 -0.00161056 0)
(-0.165097 -0.00191074 0)
(-0.160981 -0.00218929 0)
(-0.156262 -0.00247803 0)
(-0.15092 -0.00282011 0)
(-0.144892 -0.00316499 0)
(-0.138062 -0.00361141 0)
(-0.130379 -0.00401862 0)
(-0.121773 -0.0044986 0)
(-0.112269 -0.00495742 0)
(-0.101838 -0.00536395 0)
(-0.0905291 -0.00580802 0)
(-0.0784166 -0.00621197 0)
(-0.0654998 -0.00657867 0)
(-0.0518469 -0.00694945 0)
(-0.0374856 -0.0073143 0)
(-0.0224462 -0.00760873 0)
(-0.0067545 -0.00791023 0)
(0.00946881 -0.00813538 0)
(0.0260457 -0.00827747 0)
(0.042824 -0.00834674 0)
(0.0596391 -0.0082989 0)
(0.0763006 -0.00819244 0)
(0.0926148 -0.00797463 0)
(0.108395 -0.00764903 0)
(0.123397 -0.00719151 0)
(0.137361 -0.00660749 0)
(0.150019 -0.00591329 0)
(0.161131 -0.00508724 0)
(0.170486 -0.00414269 0)
(0.177842 -0.00312433 0)
(0.183048 -0.00202081 0)
(0.185955 -0.000848629 0)
(0.186476 0.000320409 0)
(0.184572 0.00154054 0)
(0.180201 0.00274936 0)
(0.173496 0.00388667 0)
(0.164555 0.00496496 0)
(0.153533 0.00594017 0)
(0.14063 0.006813 0)
(0.126099 0.00756404 0)
(0.110185 0.00818141 0)
(0.0931744 0.00863784 0)
(0.075379 0.00897253 0)
(0.0570666 0.00917252 0)
(0.0385057 0.0092187 0)
(0.0199504 0.00917095 0)
(0.00160519 0.00902671 0)
(-0.0163633 0.00877474 0)
(-0.0337689 0.00846968 0)
(-0.0504831 0.00811357 0)
(-0.0663966 0.00765299 0)
(-0.0813867 0.00718926 0)
(-0.0953765 0.00670178 0)
(-0.10832 0.00616449 0)
(-0.120217 0.00565246 0)
(-0.131092 0.00513941 0)
(-0.140957 0.00465095 0)
(-0.149817 0.00415137 0)
(-0.1577 0.00368571 0)
(-0.164652 0.00323784 0)
(-0.170756 0.00283604 0)
(-0.176064 0.00243977 0)
(-0.180591 0.00205854 0)
(-0.184356 0.00168305 0)
(-0.187376 0.00130603 0)
(-0.189648 0.000938204 0)
(-0.191203 0.00063916 0)
(-0.192072 0.000291517 0)
(-0.19236 1.14909e-05 0)
(-0.192051 -0.000284116 0)
(-0.191218 -0.000536823 0)
(-0.189876 -0.000784023 0)
(-0.188025 -0.00102885 0)
(-0.185708 -0.00126738 0)
(-0.182872 -0.00153196 0)
(-0.179487 -0.00180712 0)
(-0.175542 -0.00208797 0)
(-0.171009 -0.00239149 0)
(-0.165875 -0.00270356 0)
(-0.160056 -0.00298708 0)
(-0.153549 -0.00334936 0)
(-0.146442 -0.00370372 0)
(-0.13855 -0.004005 0)
(-0.129953 -0.00444978 0)
(-0.120539 -0.00479413 0)
(-0.11027 -0.00527339 0)
(-0.0992309 -0.00562094 0)
(-0.0872437 -0.00613587 0)
(-0.0744497 -0.00647956 0)
(-0.0608191 -0.00697998 0)
(-0.0463548 -0.00728798 0)
(-0.0310001 -0.00775608 0)
(-0.0150366 -0.00807267 0)
(0.00199654 -0.00842692 0)
(0.0198878 -0.00868949 0)
(0.0379184 -0.00890468 0)
(0.0561553 -0.0090473 0)
(0.0744911 -0.00907206 0)
(0.0927449 -0.00889962 0)
(0.110419 -0.00857829 0)
(0.127199 -0.00812739 0)
(0.142915 -0.00742831 0)
(0.157073 -0.00656253 0)
(0.169306 -0.00557635 0)
(0.179445 -0.00441761 0)
(0.187209 -0.00318325 0)
(0.192329 -0.00183768 0)
(0.194722 -0.000399489 0)
(0.194307 0.000984984 0)
(0.190788 0.0024074 0)
(0.184545 0.00379489 0)
(0.175695 0.00495228 0)
(0.164515 0.00606244 0)
(0.151356 0.00703688 0)
(0.136453 0.00771567 0)
(0.120229 0.00833478 0)
(0.10309 0.00864076 0)
(0.0852529 0.00890204 0)
(0.0671382 0.00903027 0)
(0.0489518 0.0088799 0)
(0.0310098 0.00875985 0)
(0.0134679 0.00853076 0)
(-0.00300968 0.00809345 0)
(-0.0184764 0.00775046 0)
(-0.0335163 0.00728438 0)
(-0.0476961 0.00684855 0)
(-0.0609682 0.00639703 0)
(-0.0733151 0.00591583 0)
(-0.0847595 0.00548175 0)
(-0.0953323 0.00506057 0)
(-0.105069 0.00464137 0)
(-0.114021 0.00426836 0)
(-0.122238 0.00390342 0)
(-0.129771 0.00357966 0)
(-0.136664 0.00327384 0)
(-0.142952 0.00297398 0)
(-0.148666 0.00269667 0)
(-0.153821 0.00242268 0)
(-0.15842 0.00214123 0)
(-0.162458 0.0018597 0)
(-0.165915 0.00156135 0)
(-0.168764 0.00125023 0)
(-0.170973 0.000916208 0)
(-0.172492 0.000563636 0)
(-0.173277 0.000203288 0)
(-0.173306 -0.000200666 0)
(-0.172485 -0.000625071 0)
(-0.170795 -0.00106664 0)
(-0.16819 -0.00152295 0)
(-0.164648 -0.00199832 0)
(-0.160141 -0.00247613 0)
(-0.154653 -0.00297359 0)
(-0.14818 -0.00345779 0)
(-0.140715 -0.00393515 0)
(-0.132271 -0.00443753 0)
(-0.122864 -0.00489298 0)
(-0.112523 -0.00532738 0)
(-0.101284 -0.00579801 0)
(-0.0891909 -0.00618136 0)
(-0.0763037 -0.00660936 0)
(-0.0626836 -0.00692392 0)
(-0.0484091 -0.00719229 0)
(-0.0335607 -0.00751687 0)
(-0.0181606 -0.00768664 0)
(-0.00244923 -0.00780199 0)
(0.0134459 -0.00797221 0)
(0.0295035 -0.00795299 0)
(0.0455585 -0.00798716 0)
(0.0614537 -0.0078224 0)
(0.0770255 -0.00758096 0)
(0.092125 -0.00737581 0)
(0.10658 -0.00697653 0)
(0.121527 -0.00650314 0)
(0.131476 0.0123962 0)
(0.115171 0.0126684 0)
(0.0965696 0.013006 0)
(0.0777173 0.0131794 0)
(0.058859 0.0129687 0)
(0.0401894 0.0128507 0)
(0.0217938 0.0124076 0)
(0.00401583 0.0120482 0)
(-0.0129006 0.0116139 0)
(-0.0291231 0.0109604 0)
(-0.0445427 0.0104032 0)
(-0.0590646 0.00979631 0)
(-0.0726378 0.00907065 0)
(-0.0852485 0.00842649 0)
(-0.0968795 0.00770896 0)
(-0.107544 0.00706455 0)
(-0.11725 0.0064217 0)
(-0.126015 0.00575636 0)
(-0.133871 0.00514583 0)
(-0.140843 0.00454941 0)
(-0.14696 0.00395687 0)
(-0.152257 0.00340246 0)
(-0.156763 0.00286559 0)
(-0.160506 0.0023413 0)
(-0.163516 0.00183915 0)
(-0.165817 0.00134675 0)
(-0.167432 0.000869196 0)
(-0.168348 0.000411261 0)
(-0.168606 -5.0932e-05 0)
(-0.168192 -0.000521355 0)
(-0.167108 -0.000991778 0)
(-0.165345 -0.00147037 0)
(-0.162888 -0.00195653 0)
(-0.159722 -0.00246283 0)
(-0.155824 -0.00297702 0)
(-0.151165 -0.00350743 0)
(-0.145721 -0.00407721 0)
(-0.139465 -0.00463816 0)
(-0.132366 -0.00521792 0)
(-0.124397 -0.00586215 0)
(-0.115529 -0.00646531 0)
(-0.105749 -0.00715869 0)
(-0.095032 -0.00776932 0)
(-0.0833808 -0.00837437 0)
(-0.0707831 -0.00911438 0)
(-0.0571849 -0.00968936 0)
(-0.0427393 -0.0102054 0)
(-0.0273794 -0.0108993 0)
(-0.0112201 -0.0114017 0)
(0.00534386 -0.0116785 0)
(0.0225053 -0.0121891 0)
(0.040242 -0.0123708 0)
(0.0582913 -0.0126354 0)
(0.0764873 -0.0126038 0)
(0.0946123 -0.0124018 0)
(0.112441 -0.0121993 0)
(0.129776 -0.0117561 0)
(0.146391 -0.011115 0)
(0.162039 -0.0104138 0)
(0.176505 -0.00948533 0)
(0.189576 -0.00847513 0)
(0.201072 -0.00733231 0)
(0.210786 -0.00600015 0)
(0.218524 -0.00463817 0)
(0.224212 -0.00316994 0)
(0.227723 -0.00157384 0)
(0.228927 -5.72146e-05 0)
(0.227848 0.00154852 0)
(0.224351 0.00305544 0)
(0.218747 0.00458873 0)
(0.21092 0.00607949 0)