/*--------------------------------*- C++ -*----------------------------------*\
| =========                 |                                                 |
| \\      /  F ield         | OpenFOAM: The Open Source CFD Toolbox           |
|  \\    /   O peration     | Version:  3.0.1                                 |
|   \\  /    A nd           | Web:      www.OpenFOAM.org                      |
|    \\/     M anipulation  |                                                 |
\*---------------------------------------------------------------------------*/
FoamFile
{
    version     2.0;
    format      ascii;
    class       surfaceScalarField;
    location    "26";
    object      phi;
}
// * * * * * * * * * * * * * * * * * * * * * * * * * * * * * * * * * * * * * //

dimensions      [0 3 -1 0 0 0 0];

internalField   nonuniform List<scalar> 
42423
(
-0.000130159
9.86573e-06
-0.000138975
8.81628e-06
-0.00014689
7.91483e-06
-0.000153925
7.0347e-06
-0.0001601
6.1756e-06
-0.000165463
5.3626e-06
-0.000170039
4.57593e-06
-0.000173863
3.8245e-06
-0.000176946
3.08291e-06
-0.000179321
2.37499e-06
-0.000180987
1.66555e-06
-0.000181982
9.95338e-07
-0.000182307
3.2427e-07
-0.000181892
-4.14713e-07
-0.000180729
-1.16256e-06
-0.000178868
-1.86116e-06
-0.000176349
-2.51865e-06
-0.000172995
-3.35459e-06
-0.000168959
-4.03543e-06
-0.000164178
-4.78157e-06
-0.000158434
-5.74382e-06
-0.000151935
-6.49923e-06
-0.00014458
-7.35524e-06
-0.000136288
-8.29218e-06
-0.000127077
-9.21028e-06
-0.000116785
-1.02923e-05
-0.000105539
-1.12461e-05
-9.34294e-05
-1.21095e-05
-8.01368e-05
-1.32926e-05
-6.59159e-05
-1.4221e-05
-5.07756e-05
-1.51403e-05
-3.46462e-05
-1.61295e-05
-1.78053e-05
-1.68409e-05
-1.52932e-07
-1.76524e-05
1.81856e-05
-1.83385e-05
3.68189e-05
-1.86334e-05
5.58218e-05
-1.90029e-05
7.49316e-05
-1.91099e-05
9.38248e-05
-1.88932e-05
0.000112364
-1.85396e-05
0.000130241
-1.78769e-05
0.000147297
-1.70558e-05
0.000163209
-1.59117e-05
0.000177628
-1.44194e-05
0.000190471
-1.28431e-05
0.000201426
-1.09547e-05
0.000210264
-8.8388e-06
0.000216894
-6.62967e-06
0.000221178
-4.28424e-06
0.000222941
-1.76284e-06
0.00022232
6.20849e-07
0.000219137
3.18328e-06
0.000213589
5.54783e-06
0.000205973
7.61586e-06
0.00019601
9.96258e-06
0.000184242
1.17686e-05
0.000170648
1.3594e-05
0.000155479
1.51692e-05
0.000139099
1.63796e-05
0.000121741
1.73582e-05
0.000103548
1.81924e-05
8.49319e-05
1.86165e-05
6.59525e-05
1.89794e-05
4.70507e-05
1.89019e-05
2.82451e-05
1.88055e-05
9.75728e-06
1.84878e-05
-8.13006e-06
1.78873e-05
-2.54549e-05
1.73249e-05
-4.19373e-05
1.64823e-05
-5.76132e-05
1.56759e-05
-7.23951e-05
1.47819e-05
-8.61628e-05
1.37677e-05
-9.90287e-05
1.28659e-05
-0.000110931
1.19024e-05
-0.000121686
1.07554e-05
-0.000131661
9.97428e-06
-0.000140572
8.91086e-06
-0.000148607
8.03512e-06
-0.000155797
7.19064e-06
-0.000162015
6.21785e-06
-0.000167413
5.39741e-06
-0.00017208
4.66768e-06
-0.000175785
3.70477e-06
-0.000178667
2.88202e-06
-0.000180758
2.0905e-06
-0.000182056
1.29854e-06
-0.000182513
4.5677e-07
-0.000182201
-3.11704e-07
-0.000181102
-1.09921e-06
-0.000179215
-1.88665e-06
-0.000176605
-2.61027e-06
-0.000173237
-3.36769e-06
-0.000169185
-4.05279e-06
-0.000164331
-4.85347e-06
-0.00015873
-5.60071e-06
-0.000152458
-6.27233e-06
-0.00014542
-7.03812e-06
-0.000137579
-7.84094e-06
-0.000128944
-8.63546e-06
-0.000119568
-9.37541e-06
-0.000109298
-1.02705e-05
-9.81564e-05
-1.11414e-05
-8.61746e-05
-1.19819e-05
-7.32629e-05
-1.29118e-05
-5.95273e-05
-1.37356e-05
-4.50139e-05
-1.45134e-05
-2.97034e-05
-1.53106e-05
-1.38366e-05
-1.58669e-05
2.62599e-06
-1.64626e-05
1.95663e-05
-1.69404e-05
3.68405e-05
-1.72742e-05
5.43475e-05
-1.75071e-05
7.18674e-05
-1.752e-05
8.92688e-05
-1.74014e-05
0.000106379
-1.71098e-05
0.000122961
-1.65825e-05
0.000138803
-1.58417e-05
0.000153682
-1.48789e-05
0.000167378
-1.36966e-05
0.000179669
-1.22912e-05
0.000190308
-1.0639e-05
0.000199107
-8.79848e-06
0.00020584
-6.73308e-06
0.000210371
-4.531e-06
0.000212569
-2.19812e-06
0.000212385
1.83681e-07
0.00020974
2.64502e-06
0.000204611
5.12899e-06
0.000197118
7.49316e-06
0.000187426
9.69125e-06
0.00017572
1.17065e-05
0.000162139
1.35814e-05
0.000146934
1.52041e-05
0.000130443
1.64918e-05
0.000112857
1.75851e-05
9.45037e-05
1.83537e-05
7.5652e-05
1.88517e-05
5.65038e-05
1.91481e-05
3.74228e-05
1.9081e-05
1.85564e-05
1.88665e-05
1.41137e-07
1.84152e-05
-1.76255e-05
1.77666e-05
-3.45721e-05
1.69465e-05
-5.05901e-05
1.6018e-05
-6.54909e-05
1.49008e-05
-7.92901e-05
1.37992e-05
-9.20096e-05
1.27195e-05
-0.000103568
1.1558e-05
-0.000114063
1.0496e-05
-0.000123486
9.42253e-06
-0.000131892
8.40645e-06
-0.000139363
7.4703e-06
-0.000145888
6.52569e-06
-0.000151472
5.58399e-06
-0.000156243
4.77067e-06
-0.000160151
3.90811e-06
-0.000163297
3.14577e-06
-0.000165719
2.42237e-06
-0.000167454
1.73424e-06
-0.000168458
1.00405e-06
-0.000169009
5.51576e-07
-0.000168895
-1.14581e-07
-0.000168202
-6.9279e-07
-0.000167012
-1.18975e-06
-0.000165208
-1.80394e-06
-0.000162873
-2.33496e-06
-0.00015994
-2.93332e-06
-0.000156389
-3.55051e-06
-0.000152239
-4.15042e-06
-0.000147392
-4.84712e-06
-0.000141829
-5.56296e-06
-0.000135622
-6.20656e-06
-0.000128667
-6.95529e-06
-0.000120864
-7.80325e-06
-0.000112151
-8.71322e-06
-0.00010254
-9.61111e-06
-9.1899e-05
-1.06405e-05
-8.03791e-05
-1.152e-05
-6.7821e-05
-1.25581e-05
-5.43179e-05
-1.35032e-05
-3.9912e-05
-1.44059e-05
-2.46031e-05
-1.53089e-05
-8.52598e-06
-1.60771e-05
8.16773e-06
-1.66937e-05
2.55872e-05
-1.74195e-05
4.34562e-05
-1.7869e-05
6.16723e-05
-1.82161e-05
7.99979e-05
-1.83257e-05
9.824e-05
-1.8242e-05
0.00011621
-1.79696e-05
0.000133621
-1.74111e-05
0.000150249
-1.66288e-05
0.000165842
-1.55923e-05
0.000180102
-1.42603e-05
0.000192832
-1.27305e-05
0.000203794
-1.09614e-05
0.000212741
-8.9475e-06
0.000219551
-6.81024e-06
0.000224036
-4.48481e-06
0.000226155
-2.1184e-06
0.000225837
3.17158e-07
0.000223101
2.7359e-06
0.000217939
5.16249e-06
0.000210529
7.40963e-06
0.000201004
9.52521e-06
0.000189561
1.14432e-05
0.000176404
1.31573e-05
0.000161827
1.45768e-05
0.000146011
1.58161e-05
0.000129262
1.67488e-05
0.000111853
1.74089e-05
9.40128e-05
1.78402e-05
7.58777e-05
1.81351e-05
5.78023e-05
1.80754e-05
3.99775e-05
1.78247e-05
2.25389e-05
1.74386e-05
5.58352e-06
1.69554e-05
-1.07177e-05
1.63012e-05
-2.62744e-05
1.55566e-05
-4.10192e-05
1.47448e-05
-5.49448e-05
1.39256e-05
-6.7883e-05
1.29381e-05
-7.99392e-05
1.20562e-05
-9.09321e-05
1.0993e-05
-0.000100912
9.9798e-06
-0.000110025
9.11283e-06
-0.000118106
8.08127e-06
-0.000125345
7.23884e-06
-0.000131589
6.24392e-06
-0.000136959
5.36993e-06
-0.000141594
4.63503e-06
-0.000145306
3.71256e-06
-0.000148253
2.94701e-06
-0.000150413
2.15967e-06
-0.000151792
1.37904e-06
-0.000152532
7.40419e-07
-0.000152561
2.89335e-08
-0.000151907
-6.54069e-07
-0.000150717
-1.19031e-06
-0.000148823
-1.89446e-06
-0.000146349
-2.47315e-06
-0.000143221
-3.12848e-06
-0.000139541
-3.67954e-06
-0.000135243
-4.29811e-06
-0.000130214
-5.02939e-06
-0.000124534
-5.6796e-06
-0.000118014
-6.52022e-06
-0.000110815
-7.19883e-06
-0.000102829
-7.98615e-06
-9.39909e-05
-8.83828e-06
-8.42569e-05
-9.73397e-06
-7.38359e-05
-1.04211e-05
-6.25153e-05
-1.13206e-05
-5.04472e-05
-1.20682e-05
-3.741e-05
-1.30372e-05
-2.36438e-05
-1.37662e-05
-9.10075e-06
-1.4543e-05
6.13921e-06
-1.524e-05
2.20475e-05
-1.59083e-05
3.84839e-05
-1.64365e-05
5.53622e-05
-1.68783e-05
7.25249e-05
-1.71628e-05
8.98746e-05
-1.73497e-05
0.000107181
-1.7306e-05
0.000124236
-1.70558e-05
0.000140863
-1.66262e-05
0.00015678
-1.5917e-05
0.000171795
-1.50155e-05
0.000185614
-1.38191e-05
0.00019801
-1.2396e-05
0.000208831
-1.0821e-05
0.00021776
-8.92903e-06
0.000224763
-7.00296e-06
0.000229556
-4.79267e-06
0.000232281
-2.72521e-06
0.00023262
-3.39654e-07
0.000230847
1.77368e-06
0.00022669
4.15696e-06
0.000220407
6.28237e-06
0.000211976
8.43145e-06
0.000201673
1.03031e-05
0.000189582
1.20908e-05
0.000175787
1.37952e-05
0.000160597
1.51895e-05
0.000144349
1.62487e-05
0.000127039
1.73099e-05
0.000109179
1.78601e-05
9.08368e-05
1.83418e-05
7.24628e-05
1.8374e-05
5.40981e-05
1.83648e-05
3.60939e-05
1.80042e-05
1.85886e-05
1.75053e-05
1.60602e-06
1.69825e-05
-1.45771e-05
1.61832e-05
-2.99253e-05
1.53482e-05
-4.44355e-05
1.45102e-05
-5.80967e-05
1.36612e-05
-7.08458e-05
1.27491e-05
-8.26976e-05
1.18518e-05
-9.36656e-05
1.0968e-05
-0.000103731
1.00654e-05
-0.00011295
9.21889e-06
-0.000121274
8.32428e-06
-0.000128718
7.44367e-06
-0.000135304
6.58636e-06
-0.000141005
5.70072e-06
-0.00014583
4.825e-06
-0.000149804
3.97393e-06
-0.00015289
3.08595e-06
-0.000155119
2.22935e-06
-0.000156473
1.35401e-06
-0.000156996
5.23331e-07
-0.000156783
-2.13317e-07
-0.000155842
-9.41506e-07
-0.000154117
-1.72505e-06
-0.000151693
-2.42317e-06
-0.00014849
-3.20352e-06
-0.000144587
-3.90273e-06
-0.000139984
-4.60285e-06
-0.000134535
-5.44959e-06
-0.000128423
-6.11185e-06
-0.000121726
-6.69652e-06
-0.000114129
-7.59737e-06
-0.000105887
-8.242e-06
-9.68491e-05
-9.03801e-06
-8.68839e-05
-9.96523e-06
-7.62801e-05
-1.06038e-05
-6.48282e-05
-1.14519e-05
-5.2398e-05
-1.24303e-05
-3.91929e-05
-1.32052e-05
-2.51074e-05
-1.40855e-05
-9.96158e-06
-1.51458e-05
5.87331e-06
-1.58349e-05
2.25302e-05
-1.6657e-05
3.98329e-05
-1.73027e-05
5.78582e-05
-1.80254e-05
7.64022e-05
-1.85441e-05
9.50453e-05
-1.86431e-05
0.000113817
-1.87714e-05
0.00013241
-1.85937e-05
0.000150398
-1.79879e-05
0.00016765
-1.72523e-05
0.000183741
-1.60907e-05
0.000198486
-1.47451e-05
0.000211455
-1.29693e-05
0.000222401
-1.09459e-05
0.000231018
-8.61742e-06
0.000237093
-6.07503e-06
0.000240517
-3.42386e-06
0.000241228
-7.10558e-07
0.000238872
2.35543e-06
0.000233732
5.14018e-06
0.000225953
7.77853e-06
0.00021561
1.03437e-05
0.00020324
1.23699e-05
0.000188908
1.43316e-05
1.60179e-05
-0.000130201
1.97354e-05
-0.000139017
1.76321e-05
-0.000146933
1.58309e-05
-0.00015397
1.40717e-05
-0.00016015
1.2355e-05
-0.000165513
1.07264e-05
-0.000170089
9.15144e-06
-0.000173913
7.64902e-06
-0.000176996
6.16541e-06
-0.000179372
4.75099e-06
-0.000181037
3.33066e-06
-0.000182031
1.98884e-06
-0.000182356
6.49961e-07
-0.000181941
-8.29671e-07
-0.000180778
-2.32577e-06
-0.000178918
-3.7212e-06
-0.000176398
-5.03904e-06
-0.000173049
-6.70347e-06
-0.000169012
-8.072e-06
-0.000164227
-9.56683e-06
-0.00015849
-1.14808e-05
-0.000151991
-1.29989e-05
-0.000144636
-1.47103e-05
-0.000136346
-1.65821e-05
-0.000127133
-1.84228e-05
-0.00011684
-2.0586e-05
-0.000105595
-2.24911e-05
-9.34855e-05
-2.42187e-05
-8.01879e-05
-2.65902e-05
-6.59676e-05
-2.84414e-05
-5.08215e-05
-3.02864e-05
-3.46886e-05
-3.22625e-05
-1.78518e-05
-3.36779e-05
-1.83667e-07
-3.53206e-05
1.81636e-05
-3.66859e-05
3.68006e-05
-3.72705e-05
5.58186e-05
-3.8021e-05
7.49369e-05
-3.82283e-05
9.3844e-05
-3.78004e-05
0.000112397
-3.70931e-05
0.000130283
-3.57624e-05
0.000147353
-3.41261e-05
0.00016328
-3.18388e-05
0.000177708
-2.88474e-05
0.000190567
-2.57024e-05
0.000201528
-2.1916e-05
0.00021037
-1.76809e-05
0.00021701
-1.32689e-05
0.000221306
-8.58021e-06
0.00022307
-3.52698e-06
0.000222445
1.24585e-06
0.000219256
6.37133e-06
0.000213713
1.10915e-05
0.000206098
1.523e-05
0.000196122
1.99393e-05
0.000184346
2.35439e-05
0.000170746
2.71946e-05
0.000155566
3.03484e-05
0.000139168
3.27775e-05
0.000121799
3.47279e-05
0.000103591
3.64004e-05
8.49615e-05
3.72456e-05
6.59691e-05
3.79718e-05
4.70564e-05
3.78145e-05
2.8246e-05
3.76159e-05
9.74556e-06
3.69883e-05
-8.16139e-06
3.57943e-05
-2.54953e-05
3.46588e-05
-4.19889e-05
3.29758e-05
-5.76689e-05
3.13559e-05
-7.24543e-05
2.95673e-05
-8.62286e-05
2.7542e-05
-9.90976e-05
2.5735e-05
-0.000111
2.38049e-05
-0.00012176
2.1515e-05
-0.00013173
1.9945e-05
-0.000140645
1.78251e-05
-0.000148677
1.6067e-05
-0.000155865
1.43789e-05
-0.000162098
1.24511e-05
-0.000167488
1.07873e-05
-0.000172158
9.3372e-06
-0.000175876
7.42306e-06
-0.000178757
5.76353e-06
-0.000180848
4.18094e-06
-0.000182152
2.60323e-06
-0.000182608
9.11837e-07
-0.000182298
-6.21731e-07
-0.000181195
-2.20176e-06
-0.000179306
-3.7753e-06
-0.000176692
-5.22472e-06
-0.000173335
-6.72452e-06
-0.000169278
-8.11026e-06
-0.000164418
-9.71299e-06
-0.000158838
-1.1181e-05
-0.000152538
-1.25718e-05
-0.000145501
-1.40758e-05
-0.000137653
-1.56886e-05
-0.000129018
-1.72706e-05
-0.000119654
-1.87396e-05
-0.000109368
-2.05567e-05
-9.82222e-05
-2.2287e-05
-8.62472e-05
-2.3957e-05
-7.33232e-05
-2.58358e-05
-5.9567e-05
-2.7492e-05
-4.50568e-05
-2.90236e-05
-2.97503e-05
-3.06172e-05
-1.38601e-05
-3.17572e-05
2.60646e-06
-3.29293e-05
1.95532e-05
-3.38873e-05
3.68428e-05
-3.45639e-05
5.43635e-05
-3.50278e-05
7.18904e-05
-3.5047e-05
8.9309e-05
-3.48201e-05
0.000106427
-3.42281e-05
0.000123015
-3.31709e-05
0.000138868
-3.16948e-05
0.000153767
-2.97772e-05
0.000167478
-2.74079e-05
0.000179782
-2.45958e-05
0.000190422
-2.12792e-05
0.000199237
-1.76128e-05
0.000205978
-1.34746e-05
0.000210511
-9.06399e-06
0.000212719
-4.406e-06
0.000212521
3.81394e-07
0.000209864
5.30143e-06
0.000204738
1.02556e-05
0.000197233
1.49977e-05
0.000187528
1.93964e-05
0.000175812
2.34228e-05
0.000162215
2.71782e-05
0.000146993
3.04264e-05
0.000130488
3.29964e-05
0.000112891
3.51825e-05
9.45178e-05
3.67264e-05
7.56516e-05
3.77179e-05
5.64852e-05
3.83145e-05
3.7382e-05
3.81842e-05
1.85062e-05
3.77422e-05
8.68219e-08
3.68346e-05
-1.76911e-05
3.55446e-05
-3.46514e-05
3.39069e-05
-5.06796e-05
3.20462e-05
-6.55913e-05
2.98125e-05
-7.93912e-05
2.75991e-05
-9.21181e-05
2.54464e-05
-0.000103678
2.3118e-05
-0.000114163
2.09803e-05
-0.00012359
1.88499e-05
-0.000132
1.68169e-05
-0.000139463
1.49331e-05
-0.000146003
1.30652e-05
-0.000151581
1.11624e-05
-0.000156342
9.53132e-06
-0.000160259
7.8254e-06
-0.000163412
6.29848e-06
-0.000165825
4.83534e-06
-0.000167561
3.47043e-06
-0.000168572
2.01482e-06
-0.000169096
1.07572e-06
-0.000168976
-2.34998e-07
-0.000168289
-1.3797e-06
-0.0001671
-2.37865e-06
-0.000165301
-3.6024e-06
-0.000162962
-4.67461e-06
-0.000160023
-5.87157e-06
-0.00015647
-7.10378e-06
-0.000152321
-8.29917e-06
-0.000147483
-9.6853e-06
-0.000141909
-1.11367e-05
-0.000135703
-1.2413e-05
-0.000128745
-1.39137e-05
-0.000120918
-1.56298e-05
-0.000112234
-1.7397e-05
-0.000102636
-1.92091e-05
-9.19678e-05
-2.13092e-05
-8.04464e-05
-2.30414e-05
-6.78923e-05
-2.51122e-05
-5.43761e-05
-2.70194e-05
-3.99511e-05
-2.88309e-05
-2.46484e-05
-3.06117e-05
-8.56852e-06
-3.21571e-05
8.14131e-06
-3.34036e-05
2.55729e-05
-3.48512e-05
4.34673e-05
-3.57634e-05
6.16897e-05
-3.64385e-05
8.00314e-05
-3.66675e-05
9.82856e-05
-3.64963e-05
0.000116264
-3.59485e-05
0.000133692
-3.48386e-05
0.000150331
-3.32683e-05
0.00016593
-3.11914e-05
0.00018021
-2.85396e-05
0.000192959
-2.548e-05
0.000203919
-2.19215e-05
0.000212881
-1.79095e-05
0.000219693
-1.36228e-05
0.000224178
-8.96982e-06
0.000226302
-4.24183e-06
0.000225974
6.4541e-07
0.000223221
5.48803e-06
0.000218057
1.03271e-05
0.000210654
1.48119e-05
0.000201107
1.90728e-05
0.000189659
2.2891e-05
0.000176484
2.63324e-05
0.000161883
2.91776e-05
0.00014606
3.16393e-05
0.000129296
3.35123e-05
0.000111859
3.48457e-05
9.39976e-05
3.57018e-05
7.58696e-05
3.62631e-05
5.77758e-05
3.61692e-05
3.99327e-05
3.56679e-05
2.2486e-05
3.48853e-05
5.53373e-06
3.39076e-05
-1.07846e-05
3.26196e-05
-2.63551e-05
3.11271e-05
-4.11053e-05
2.9495e-05
-5.50305e-05
2.78508e-05
-6.79715e-05
2.58791e-05
-8.00334e-05
2.41182e-05
-9.1034e-05
2.19935e-05
-0.000101019
1.99651e-05
-0.00011013
1.82233e-05
-0.000118208
1.61599e-05
-0.000125448
1.44784e-05
-0.000131705
1.25005e-05
-0.000137083
1.07488e-05
-0.000141702
9.25393e-06
-0.000145423
7.4331e-06
-0.000148356
5.8804e-06
-0.000150515
4.31891e-06
-0.000151906
2.7696e-06
-0.000152624
1.45807e-06
-0.000152648
5.32602e-08
-0.000151996
-1.30599e-06
-0.000150811
-2.37569e-06
-0.000148916
-3.78952e-06
-0.000146432
-4.95704e-06
-0.000143308
-6.25223e-06
-0.000139628
-7.35961e-06
-0.00013532
-8.6057e-06
-0.000130293
-1.00565e-05
-0.000124613
-1.13595e-05
-0.000118091
-1.30427e-05
-0.000110889
-1.4401e-05
-0.000102914
-1.59614e-05
-9.40718e-05
-1.76801e-05
-8.43181e-05
-1.94877e-05
-7.38924e-05
-2.08468e-05
-6.25761e-05
-2.26369e-05
-5.05132e-05
-2.41312e-05
-3.74568e-05
-2.60936e-05
-2.3702e-05
-2.75211e-05
-9.14127e-06
-2.91038e-05
6.10552e-06
-3.04868e-05
2.20281e-05
-3.18309e-05
3.84891e-05
-3.28975e-05
5.53678e-05
-3.3757e-05
7.25374e-05
-3.43324e-05
8.99026e-05
-3.4715e-05
0.000107214
-3.46174e-05
0.000124283
-3.41247e-05
0.000140921
-3.3265e-05
0.000156854
-3.18495e-05
0.000171882
-3.00432e-05
0.00018571
-2.76477e-05
0.000198111
-2.47964e-05
0.000208945
-2.1656e-05
0.000217875
-1.78583e-05
0.000224886
-1.40141e-05
0.00022969
-9.59732e-06
0.000232405
-5.43976e-06
0.000232738
-6.73126e-07
0.000230953
3.55901e-06
0.000226813
8.29715e-06
0.00022052
1.2575e-05
0.000212083
1.6868e-05
0.000201775
2.06113e-05
0.000189677
2.41892e-05
0.000175873
2.75984e-05
0.000160668
3.03946e-05
0.00014441
3.25069e-05
0.00012709
3.463e-05
0.000109215
3.57348e-05
9.08602e-05
3.66968e-05
7.24783e-05
3.6756e-05
5.41014e-05
3.67416e-05
3.60868e-05
3.60188e-05
1.85739e-05
3.50183e-05
1.58862e-06
3.39678e-05
-1.45957e-05
3.23675e-05
-2.99457e-05
3.06982e-05
-4.4456e-05
2.90205e-05
-5.81185e-05
2.73237e-05
-7.08682e-05
2.54989e-05
-8.27203e-05
2.37038e-05
-9.36889e-05
2.19367e-05
-0.000103753
2.01297e-05
-0.000112971
1.84366e-05
-0.000121292
1.66452e-05
-0.000128731
1.48825e-05
-0.000135318
1.31737e-05
-0.000141026
1.14085e-05
-0.000145848
9.6475e-06
-0.00014982
7.94521e-06
-0.000152916
6.18229e-06
-0.000155153
4.46673e-06
-0.000156511
2.71196e-06
-0.000157031
1.04343e-06
-0.000156823
-4.21224e-07
-0.000155884
-1.88101e-06
-0.000154159
-3.44973e-06
-0.000151736
-4.84599e-06
-0.000148531
-6.40857e-06
-0.000144623
-7.81141e-06
-0.000140031
-9.1945e-06
-0.000134584
-1.08972e-05
-0.000128464
-1.22313e-05
-0.000121772
-1.3389e-05
-0.000114172
-1.51975e-05
-0.000105932
-1.64819e-05
-9.68807e-05
-1.80891e-05
-8.69275e-05
-1.99184e-05
-7.63231e-05
-2.12083e-05
-6.48672e-05
-2.29079e-05
-5.2443e-05
-2.48546e-05
-3.92351e-05
-2.64131e-05
-2.51496e-05
-2.81711e-05
-9.99439e-06
-3.03011e-05
5.83641e-06
-3.16658e-05
2.24961e-05
-3.33167e-05
3.98069e-05
-3.46136e-05
5.78405e-05
-3.60592e-05
7.6391e-05
-3.70946e-05
9.50472e-05
-3.72995e-05
0.000113842
-3.7566e-05
0.000132452
-3.72038e-05
0.000150445
-3.5981e-05
0.000167709
-3.45164e-05
0.000183823
-3.22048e-05
0.000198579
-2.95022e-05
0.00021156
-2.59498e-05
0.000222515
-2.1901e-05
0.000231124
-1.72271e-05
0.000237191
-1.2142e-05
0.000240625
-6.85725e-06
0.000241344
-1.43058e-06
0.000238978
4.72187e-06
0.000233839
1.02792e-05
0.000226055
1.55616e-05
0.000215699
2.06996e-05
0.000203317
2.47524e-05
0.000188971
2.86769e-05
3.20514e-05
-0.00013028
2.9607e-05
-0.000139098
2.64502e-05
-0.000147016
2.37493e-05
-0.000154053
2.1108e-05
-0.000160231
1.85339e-05
-0.000165596
1.60907e-05
-0.000170173
1.37289e-05
-0.000174002
1.14773e-05
-0.000177083
9.24703e-06
-0.000179463
7.13121e-06
-0.000181133
5.00013e-06
-0.000182113
2.96933e-06
-0.000182418
9.54345e-07
-0.000181996
-1.25162e-06
-0.000180833
-3.48841e-06
-0.000178973
-5.58153e-06
-0.000176457
-7.55478e-06
-0.000173113
-1.00475e-05
-0.000169073
-1.2112e-05
-0.000164291
-1.4349e-05
-0.000158555
-1.72168e-05
-0.000152058
-1.94955e-05
-0.000144702
-2.20665e-05
-0.000136423
-2.48612e-05
-0.000127201
-2.76446e-05
-0.000116909
-3.08784e-05
-0.000105669
-3.37315e-05
-9.35694e-05
-3.63181e-05
-8.02631e-05
-3.98966e-05
-6.60484e-05
-4.26561e-05
-5.0893e-05
-4.54419e-05
-3.47572e-05
-4.83984e-05
-1.79341e-05
-5.0501e-05
-2.31098e-07
-5.30237e-05
1.8132e-05
-5.5049e-05
3.67825e-05
-5.59211e-05
5.58141e-05
-5.70526e-05
7.49502e-05
-5.73644e-05
9.38764e-05
-5.67267e-05
0.000112448
-5.56647e-05
0.000130351
-5.36657e-05
0.000147442
-5.12171e-05
0.000163395
-4.77919e-05
0.000177838
-4.32902e-05
0.000190714
-3.8579e-05
0.000201689
-3.28904e-05
0.000210545
-2.65369e-05
0.000217194
-1.99185e-05
0.000221491
-1.28774e-05
0.000223266
-5.30176e-06
0.000222625
1.88721e-06
0.000219427
9.56879e-06
0.000213893
1.66254e-05
0.000206252
2.28716e-05
0.000196272
2.99189e-05
0.000184472
3.53437e-05
0.00017087
4.07967e-05
0.000155684
4.55342e-05
0.000139248
4.9214e-05
0.000121853
5.21226e-05
0.000103627
5.46261e-05
8.49703e-05
5.59024e-05
6.59673e-05
5.69747e-05
4.70342e-05
5.67477e-05
2.82236e-05
5.64264e-05
9.70486e-06
5.5507e-05
-8.21538e-06
5.37145e-05
-2.55561e-05
5.19995e-05
-4.20627e-05
4.94824e-05
-5.7742e-05
4.70352e-05
-7.25303e-05
4.43556e-05
-8.63152e-05
4.1327e-05
-9.91811e-05
3.86008e-05
-0.000111085
3.57092e-05
-0.000121844
3.22733e-05
-0.000131808
2.9909e-05
-0.000140737
2.67546e-05
-0.000148762
2.40915e-05
-0.000155931
2.15482e-05
-0.000162194
1.87134e-05
-0.000167571
1.61651e-05
-0.000172234
1.39996e-05
-0.000175974
1.11631e-05
-0.000178849
8.63838e-06
-0.000180936
6.26881e-06
-0.00018225
3.91645e-06
-0.000182699
1.36066e-06
-0.00018238
-9.39929e-07
-0.000181265
-3.31667e-06
-0.000179387
-5.65336e-06
-0.000176777
-7.83505e-06
-0.000173421
-1.00811e-05
-0.000169372
-1.21589e-05
-0.000164511
-1.45737e-05
-0.000158935
-1.67569e-05
-0.000152625
-1.88827e-05
-0.000145605
-2.10957e-05
-0.000137753
-2.35402e-05
-0.000129106
-2.59179e-05
-0.000119769
-2.80768e-05
-0.000109484
-3.08413e-05
-9.83314e-05
-3.344e-05
-8.63581e-05
-3.59303e-05
-7.34215e-05
-3.87725e-05
-5.96639e-05
-4.12496e-05
-4.51405e-05
-4.35471e-05
-2.98489e-05
-4.59089e-05
-1.39442e-05
-4.7662e-05
2.5428e-06
-4.94163e-05
1.94895e-05
-5.08341e-05
3.6786e-05
-5.18605e-05
5.43263e-05
-5.25682e-05
7.18774e-05
-5.25982e-05
8.93067e-05
-5.22495e-05
0.000106443
-5.13642e-05
0.000123052
-4.97799e-05
0.000138921
-4.75647e-05
0.000153838
-4.46941e-05
0.000167567
-4.11372e-05
0.000179898
-3.69266e-05
0.000190554
-3.19351e-05
0.000199375
-2.64337e-05
0.000206132
-2.02322e-05
0.00021068
-1.36119e-05
0.000212908
-6.6345e-06
0.000212693
5.96896e-07
0.000210007
7.98764e-06
0.000204889
1.53733e-05
0.000197391
2.24959e-05
0.000187661
2.91261e-05
0.000175924
3.51595e-05
0.00016231
4.07919e-05
0.000147059
4.56775e-05
0.000130531
4.95244e-05
0.000112923
5.27902e-05
9.45286e-05
5.51212e-05
7.56385e-05
5.6608e-05
5.64485e-05
5.75045e-05
3.73241e-05
5.73086e-05
1.84294e-05
5.66369e-05
-2.22583e-09
5.52663e-05
-1.77916e-05
5.33339e-05
-3.47674e-05
5.08827e-05
-5.07999e-05
4.80787e-05
-6.57241e-05
4.47367e-05
-7.95192e-05
4.13942e-05
-9.2241e-05
3.81681e-05
-0.000103805
3.46818e-05
-0.00011428
3.14559e-05
-0.000123709
2.82783e-05
-0.000132122
2.52299e-05
-0.000139578
2.23897e-05
-0.000146119
1.96061e-05
-0.000151688
1.67317e-05
-0.000156447
1.429e-05
-0.000160361
1.1739e-05
-0.00016351
9.44748e-06
-0.000165927
7.25257e-06
-0.000167659
5.20283e-06
-0.000168663
3.01848e-06
-0.000169179
1.59156e-06
-0.000169043
-3.70508e-07
-0.000168348
-2.07455e-06
-0.000167163
-3.56384e-06
-0.000165373
-5.39273e-06
-0.00016304
-7.00714e-06
-0.000160102
-8.81026e-06
-0.000156544
-1.06616e-05
-0.000152407
-1.24363e-05
-0.000147589
-1.4503e-05
-0.000141998
-1.6728e-05
-0.000135787
-1.86242e-05
-0.000128842
-2.08579e-05
-0.000121027
-2.3445e-05
-0.000112388
-2.60367e-05
-0.000102771
-2.8826e-05
-9.20855e-05
-3.19946e-05
-8.05613e-05
-3.45656e-05
-6.80041e-05
-3.76695e-05
-5.4489e-05
-4.05345e-05
-4.00322e-05
-4.32879e-05
-2.47553e-05
-4.58886e-05
-8.70972e-06
-4.82027e-05
8.06362e-06
-5.0177e-05
2.55061e-05
-5.22937e-05
4.34048e-05
-5.36622e-05
6.16517e-05
-5.46855e-05
8.00158e-05
-5.50316e-05
9.82937e-05
-5.47743e-05
0.000116282
-5.39368e-05
0.00013372
-5.22771e-05
0.000150381
-4.99292e-05
0.000166012
-4.68224e-05
0.000180324
-4.28514e-05
0.000193086
-3.82422e-05
0.000204066
-3.29013e-05
0.000213038
-2.68819e-05
0.00021986
-2.04446e-05
0.000224355
-1.34651e-05
0.00022649
-6.37674e-06
0.000226145
9.90238e-07
0.000223369
8.26438e-06
0.000218201
1.54952e-05
0.000210789
2.22231e-05
0.000201216
2.8646e-05
0.000189751
3.43558e-05
0.000176567
3.95171e-05
0.000161946
4.37982e-05
0.000146102
4.7483e-05
0.00012932
5.02948e-05
0.000111872
5.22935e-05
9.39693e-05
5.36045e-05
7.58245e-05
5.44079e-05
5.77108e-05
5.42828e-05
3.98606e-05
5.3518e-05
2.24095e-05
5.23364e-05
5.44431e-06
5.08728e-05
-1.08861e-05
4.895e-05
-2.64551e-05
4.66961e-05
-4.12071e-05
4.4247e-05
-5.51395e-05
4.17833e-05
-6.80955e-05
3.88351e-05
-8.01586e-05
3.61813e-05
-9.11444e-05
3.29793e-05
-0.00010113
2.99508e-05
-0.000110249
2.73422e-05
-0.000118323
2.42335e-05
-0.000125554
2.17097e-05
-0.000131815
1.87619e-05
-0.000137198
1.61318e-05
-0.000141811
1.38666e-05
-0.000145535
1.11568e-05
-0.000148471
8.81619e-06
-0.000150618
6.46648e-06
-0.000151997
4.14892e-06
-0.000152702
2.16243e-06
-0.00015273
8.18321e-08
-0.000152067
-1.96973e-06
-0.000150894
-3.54815e-06
-0.000148999
-5.68422e-06
-0.000146494
-7.46281e-06
-0.000143372
-9.37392e-06
-0.00013971
-1.10215e-05
-0.000135409
-1.29072e-05
-0.000130387
-1.50786e-05
-0.000124712
-1.70343e-05
-0.000118182
-1.95721e-05
-0.000110978
-2.16051e-05
-0.000103014
-2.39252e-05
-9.41847e-05
-2.65099e-05
-8.44339e-05
-2.92385e-05
-7.40006e-05
-3.12802e-05
-6.27053e-05
-3.39322e-05
-5.06282e-05
-3.62083e-05
-3.75558e-05
-3.9166e-05
-2.3801e-05
-4.1276e-05
-9.22977e-06
-4.3675e-05
6.02426e-06
-4.57409e-05
2.19573e-05
-4.7764e-05
3.84116e-05
-4.93519e-05
5.53168e-05
-5.06623e-05
7.2499e-05
-5.15146e-05
8.98953e-05
-5.21115e-05
0.00010721
-5.19317e-05
0.000124292
-5.12073e-05
0.000140962
-4.99351e-05
0.000156909
-4.77968e-05
0.000171951
-4.50846e-05
0.000185798
-4.14947e-05
0.00019823
-3.72289e-05
0.000209077
-3.25028e-05
0.000218013
-2.67948e-05
0.000225043
-2.10433e-05
0.000229864
-1.44185e-05
0.000232569
-8.14466e-06
0.000232912
-1.01647e-06
0.000231098
5.3733e-06
0.000226993
1.24018e-05
0.000220675
1.88931e-05
0.000212232
2.53111e-05
0.000201916
3.09271e-05
0.000189801
3.6304e-05
0.000175984
4.14154e-05
0.000160753
4.56256e-05
0.000144476
4.8784e-05
0.000127143
5.19624e-05
0.00010924
5.36378e-05
9.08644e-05
5.50728e-05
7.24706e-05
5.51498e-05
5.40744e-05
5.51377e-05
3.60454e-05
5.40479e-05
1.85125e-05
5.25512e-05
1.53589e-06
5.09443e-05
-1.46558e-05
4.85592e-05
-3.001e-05
4.60524e-05
-4.45196e-05
4.35301e-05
-5.81819e-05
4.09859e-05
-7.09285e-05
3.82454e-05
-8.27806e-05
3.5556e-05
-9.37475e-05
3.29036e-05
-0.000103806
3.01884e-05
-0.000113019
2.76497e-05
-0.000121337
2.4963e-05
-0.000128776
2.23211e-05
-0.000135359
1.9757e-05
-0.00014106
1.71095e-05
-0.000145882
1.44697e-05
-0.000149851
1.19138e-05
-0.000152941
9.2725e-06
-0.000155177
6.70295e-06
-0.000156549
4.08407e-06
-0.000157081
1.57545e-06
-0.000156885
-6.17946e-07
-0.000155945
-2.82052e-06
-0.00015422
-5.17521e-06
-0.000151794
-7.27136e-06
-0.000148586
-9.61708e-06
-0.000144669
-1.17287e-05
-0.000140091
-1.37718e-05
-0.00013465
-1.63386e-05
-0.000128518
-1.8363e-05
-0.000121832
-2.00755e-05
-0.000114229
-2.28004e-05
-0.000105994
-2.47167e-05
-9.6931e-05
-2.71523e-05
-8.69931e-05
-2.98564e-05
-7.63892e-05
-3.18122e-05
-6.49303e-05
-3.43668e-05
-5.25176e-05
-3.72673e-05
-3.93065e-05
-3.96243e-05
-2.52246e-05
-4.2253e-05
-1.0056e-05
-4.54698e-05
5.77825e-06
-4.75001e-05
2.24477e-05
-4.99862e-05
3.97664e-05
-5.19325e-05
5.78209e-05
-5.41137e-05
7.63877e-05
-5.56615e-05
9.50654e-05
-5.59772e-05
0.00011388
-5.63804e-05
0.00013251
-5.58341e-05
0.000150533
-5.40045e-05
0.000167823
-5.18065e-05
0.000183959
-4.83404e-05
0.000198741
-4.42843e-05
0.000211732
-3.89408e-05
0.000222698
-3.28674e-05
0.000231321
-2.58501e-05
0.000237393
-1.82147e-05
0.000240828
-1.02922e-05
0.000241548
-2.15023e-06
0.000239164
7.10552e-06
0.000234033
1.541e-05
0.000226245
2.33495e-05
0.000215869
3.10753e-05
0.000203464
3.71576e-05
0.000189094
4.30468e-05
4.81114e-05
-0.000130397
3.94811e-05
-0.000139218
3.52709e-05
-0.000147138
3.16696e-05
-0.000154177
2.81462e-05
-0.000160358
2.47149e-05
-0.000165723
2.14557e-05
-0.000170303
1.83092e-05
-0.000174135
1.53089e-05
-0.000177217
1.23291e-05
-0.000179596
9.51111e-06
-0.000181267
6.67102e-06
-0.000182237
3.93944e-06
-0.000182513
1.22968e-06
-0.000182077
-1.68736e-06
-0.000180916
-4.64929e-06
-0.000179055
-7.4432e-06
-0.000176546
-1.00635e-05
-0.000173213
-1.33801e-05
-0.000169164
-1.61617e-05
-0.000164387
-1.91259e-05
-0.000158655
-2.29491e-05
-0.000152159
-2.59907e-05
-0.000144803
-2.94225e-05
-0.000136522
-3.31426e-05
-0.000127298
-3.68687e-05
-0.000117015
-4.11615e-05
-0.000105781
-4.49657e-05
-9.36958e-05
-4.8403e-05
-8.0376e-05
-5.32165e-05
-6.61704e-05
-5.68617e-05
-5.0999e-05
-6.06133e-05
-3.48603e-05
-6.45371e-05
-1.80632e-05
-6.72982e-05
-2.98788e-07
-7.07882e-05
1.80838e-05
-7.34316e-05
3.67545e-05
-7.45919e-05
5.58106e-05
-7.61089e-05
7.49705e-05
-7.65244e-05
9.39247e-05
-7.5681e-05
0.000112522
-7.42625e-05
0.000130455
-7.15983e-05
0.000147579
-6.83413e-05
0.000163561
-6.37743e-05
0.000178034
-5.7763e-05
0.000190933
-5.14785e-05
0.000201928
-4.38845e-05
0.000210807
-3.54163e-05
0.000217463
-2.65745e-05
0.000221762
-1.71762e-05
0.000223554
-7.09468e-06
0.000222894
2.54746e-06
0.000219688
1.27753e-05
0.000214167
2.21459e-05
0.000206482
3.05562e-05
0.000196497
3.99043e-05
0.000184662
4.71783e-05
0.000171055
5.44035e-05
0.000155872
6.0717e-05
0.000139366
6.57207e-05
0.000121934
6.95544e-05
0.000103681
7.28792e-05
8.49846e-05
7.45986e-05
6.59645e-05
7.59948e-05
4.70007e-05
7.57114e-05
2.81872e-05
7.524e-05
9.64342e-06
7.40508e-05
-8.29848e-06
7.16564e-05
-2.56474e-05
6.93484e-05
-4.2172e-05
6.6007e-05
-5.78566e-05
6.27197e-05
-7.26436e-05
5.91426e-05
-8.64451e-05
5.51285e-05
-9.93125e-05
5.14682e-05
-0.00011121
4.76069e-05
-0.000121976
4.30393e-05
-0.00013193
3.98624e-05
-0.000140869
3.5694e-05
-0.000148891
3.21137e-05
-0.00015606
2.87175e-05
-0.000162339
2.49914e-05
-0.000167708
2.15348e-05
-0.00017234
1.8631e-05
-0.000176126
1.49498e-05
-0.000179
1.15124e-05
-0.000181075
8.34373e-06
-0.000182401
5.24267e-06
-0.000182845
1.804e-06
-0.00018252
-1.26521e-06
-0.000181392
-4.44469e-06
-0.000179509
-7.53579e-06
-0.000176905
-1.04395e-05
-0.000173562
-1.34242e-05
-0.000169514
-1.62064e-05
-0.000164651
-1.94364e-05
-0.000159078
-2.23298e-05
-0.000152762
-2.5199e-05
-0.000145756
-2.81023e-05
-0.000137879
-3.14167e-05
-0.000129229
-3.45676e-05
-0.000119942
-3.73643e-05
-0.000109658
-4.11255e-05
-9.84965e-05
-4.46014e-05
-8.65226e-05