/*--------------------------------*- C++ -*----------------------------------*\
| =========                 |                                                 |
| \\      /  F ield         | OpenFOAM: The Open Source CFD Toolbox           |
|  \\    /   O peration     | Version:  3.0.1                                 |
|   \\  /    A nd           | Web:      www.OpenFOAM.org                      |
|    \\/     M anipulation  |                                                 |
\*---------------------------------------------------------------------------*/
FoamFile
{
    version     2.0;
    format      ascii;
    class       volVectorField;
    location    "34";
    object      U;
}
// * * * * * * * * * * * * * * * * * * * * * * * * * * * * * * * * * * * * * //

dimensions      [0 1 -1 0 0 0 0];

internalField   nonuniform List<vector> 
21420
(
(-0.0676075 0.00114226 0)
(-0.0773112 0.00103959 0)
(-0.0873308 0.000947359 0)
(-0.0964075 0.000856736 0)
(-0.104574 0.000765025 0)
(-0.111862 0.00068074 0)
(-0.118306 0.000597213 0)
(-0.12394 0.000519538 0)
(-0.1288 0.000444623 0)
(-0.132914 0.000371726 0)
(-0.136312 0.000302148 0)
(-0.139016 0.000234455 0)
(-0.14105 0.000168027 0)
(-0.142425 0.000102746 0)
(-0.143137 4.00733e-05 0)
(-0.143224 -2.43865e-05 0)
(-0.142644 -9.00674e-05 0)
(-0.141407 -0.000156544 0)
(-0.139496 -0.000224293 0)
(-0.136891 -0.000293405 0)
(-0.133568 -0.00036662 0)
(-0.129503 -0.000441465 0)
(-0.12466 -0.000519239 0)
(-0.119001 -0.000603767 0)
(-0.11249 -0.000688547 0)
(-0.105089 -0.000782258 0)
(-0.0967611 -0.00087366 0)
(-0.0874703 -0.000967329 0)
(-0.0771855 -0.00107354 0)
(-0.0658892 -0.00117028 0)
(-0.0535679 -0.00126538 0)
(-0.0402038 -0.00137776 0)
(-0.0257859 -0.00147042 0)
(-0.0104001 -0.00157811 0)
(0.00580274 -0.00165117 0)
(0.0227899 -0.00171601 0)
(0.0405209 -0.00180092 0)
(0.0588445 -0.00183796 0)
(0.0775538 -0.00185207 0)
(0.096447 -0.00188282 0)
(0.115311 -0.00185463 0)
(0.133899 -0.00183333 0)
(0.151956 -0.00175632 0)
(0.169188 -0.0016502 0)
(0.185305 -0.00153784 0)
(0.200047 -0.00138218 0)
(0.21314 -0.00120216 0)
(0.224349 -0.0010058 0)
(0.233442 -0.00078946 0)
(0.240244 -0.00054758 0)
(0.244629 -0.000308274 0)
(0.246499 -5.35395e-05 0)
(0.245902 0.000188033 0)
(0.242646 0.000440836 0)
(0.236926 0.000692218 0)
(0.22884 0.000905738 0)
(0.218566 0.00111802 0)
(0.206286 0.00132116 0)
(0.192171 0.00146998 0)
(0.176553 0.00162083 0)
(0.159694 0.00172044 0)
(0.141805 0.00181248 0)
(0.123184 0.00188084 0)
(0.104086 0.00190323 0)
(0.0847533 0.00192029 0)
(0.0654383 0.00190908 0)
(0.0463515 0.00187183 0)
(0.0276723 0.00182507 0)
(0.00957598 0.00175701 0)
(-0.00782039 0.0016866 0)
(-0.0244379 0.00160158 0)
(-0.0401882 0.0015117 0)
(-0.0550007 0.00142677 0)
(-0.068897 0.00132329 0)
(-0.0818205 0.00123466 0)
(-0.0937272 0.00113306 0)
(-0.104737 0.00103782 0)
(-0.114843 0.000951151 0)
(-0.123963 0.000864964 0)
(-0.132245 0.000773445 0)
(-0.139709 0.000698838 0)
(-0.146294 0.000609976 0)
(-0.152085 0.000528881 0)
(-0.157043 0.000444479 0)
(-0.161163 0.000374195 0)
(-0.164492 0.000288385 0)
(-0.167024 0.000210934 0)
(-0.168723 0.000128053 0)
(-0.169612 5.282e-05 0)
(-0.169749 -2.25572e-05 0)
(-0.169114 -0.000101359 0)
(-0.167772 -0.000171099 0)
(-0.165688 -0.000243929 0)
(-0.162839 -0.000313129 0)
(-0.159306 -0.000383149 0)
(-0.155054 -0.000457948 0)
(-0.150079 -0.000538191 0)
(-0.144298 -0.000606773 0)
(-0.137731 -0.000693889 0)
(-0.130406 -0.000765826 0)
(-0.12222 -0.000852011 0)
(-0.113117 -0.000942781 0)
(-0.103126 -0.00103441 0)
(-0.0922426 -0.00112987 0)
(-0.0804113 -0.00121228 0)
(-0.0676298 -0.00130689 0)
(-0.0540301 -0.00139397 0)
(-0.0395868 -0.00146925 0)
(-0.0243475 -0.00154275 0)
(-0.00844599 -0.00160475 0)
(0.0080475 -0.00165471 0)
(0.0249788 -0.00170035 0)
(0.0422308 -0.00172541 0)
(0.0596718 -0.00173336 0)
(0.0771128 -0.00172413 0)
(0.094369 -0.00169341 0)
(0.111214 -0.00164064 0)
(0.127453 -0.00157452 0)
(0.142847 -0.001478 0)
(0.157181 -0.00136353 0)
(0.170225 -0.00122071 0)
(0.181745 -0.00105597 0)
(0.191509 -0.000878931 0)
(0.199329 -0.000671702 0)
(0.205028 -0.000454249 0)
(0.208457 -0.000224032 0)
(0.209512 7.15665e-06 0)
(0.208208 0.000253445 0)
(0.204309 0.000501039 0)
(0.19809 0.000732601 0)
(0.189608 0.000949838 0)
(0.178976 0.00115786 0)
(0.166407 0.0013332 0)
(0.152099 0.00149585 0)
(0.136314 0.00163519 0)
(0.11931 0.00173415 0)
(0.10135 0.00182511 0)
(0.0826977 0.00187275 0)
(0.0636328 0.00190475 0)
(0.0444155 0.00191443 0)
(0.0252362 0.00189036 0)
(0.00631974 0.00185761 0)
(-0.0120767 0.00179354 0)
(-0.0298079 0.00172238 0)
(-0.0467152 0.00163601 0)
(-0.0626555 0.00153276 0)
(-0.077593 0.00142888 0)
(-0.091442 0.00132098 0)
(-0.104169 0.00121385 0)
(-0.115815 0.00109727 0)
(-0.126355 0.00098837 0)
(-0.135777 0.000880569 0)
(-0.144126 0.000770833 0)
(-0.151419 0.00068074 0)
(-0.157764 0.000579947 0)
(-0.163195 0.000496651 0)
(-0.167742 0.000413194 0)
(-0.171533 0.000337472 0)
(-0.174606 0.000265024 0)
(-0.176966 0.000209706 0)
(-0.178732 0.000144607 0)
(-0.179947 9.1377e-05 0)
(-0.180615 3.5974e-05 0)
(-0.180718 -9.67275e-06 0)
(-0.180276 -6.40661e-05 0)
(-0.179355 -0.000120984 0)
(-0.177873 -0.000165192 0)
(-0.175907 -0.000228362 0)
(-0.173316 -0.000284298 0)
(-0.170112 -0.000346879 0)
(-0.166306 -0.000405551 0)
(-0.161908 -0.000467443 0)
(-0.156887 -0.000535532 0)
(-0.151155 -0.000610468 0)
(-0.14462 -0.000685108 0)
(-0.137264 -0.000761787 0)
(-0.129064 -0.000849579 0)
(-0.120039 -0.000937651 0)
(-0.110117 -0.00103092 0)
(-0.0992865 -0.00111706 0)
(-0.0875379 -0.0012073 0)
(-0.0749249 -0.00129282 0)
(-0.0614178 -0.0013815 0)
(-0.0470799 -0.00146992 0)
(-0.0318739 -0.00154186 0)
(-0.0158916 -0.00162536 0)
(0.000752364 -0.00167429 0)
(0.0179833 -0.00172314 0)
(0.0355481 -0.0017565 0)
(0.0533232 -0.0017691 0)
(0.0711245 -0.00175736 0)
(0.0887144 -0.00172659 0)
(0.105847 -0.00166934 0)
(0.122236 -0.00158141 0)
(0.137606 -0.00146525 0)
(0.151676 -0.00131575 0)
(0.164128 -0.00115302 0)
(0.174737 -0.000949911 0)
(0.183251 -0.000736035 0)
(0.1895 -0.000500154 0)
(0.193325 -0.000260697 0)
(0.194646 -9.51174e-06 0)
(0.193503 0.000242815 0)
(0.189718 0.000492378 0)
(0.18356 0.000726362 0)
(0.175148 0.000938492 0)
(0.164663 0.00113682 0)
(0.152311 0.00130592 0)
(0.138368 0.00144956 0)
(0.123125 0.00157316 0)
(0.106836 0.00165789 0)
(0.0897763 0.00172728 0)
(0.0722308 0.00175125 0)
(0.0545034 0.00176411 0)
(0.036808 0.00174964 0)
(0.0193307 0.00171884 0)
(0.00226187 0.00167024 0)
(-0.0142901 0.00161092 0)
(-0.0301977 0.00154547 0)
(-0.0454056 0.00147195 0)
(-0.0598375 0.00139198 0)
(-0.0734367 0.00130267 0)
(-0.0861478 0.00121891 0)
(-0.0979639 0.00113228 0)
(-0.108936 0.00104586 0)
(-0.119069 0.000962839 0)
(-0.128375 0.000882667 0)
(-0.136883 0.000804425 0)
(-0.144572 0.000727498 0)
(-0.151535 0.000655454 0)
(-0.157772 0.000582101 0)
(-0.163295 0.000509149 0)
(-0.168141 0.000445241 0)
(-0.172279 0.00038405 0)
(-0.175803 0.00031812 0)
(-0.178734 0.000254592 0)
(-0.18101 0.000203339 0)
(-0.182707 0.000140119 0)
(-0.183795 7.94448e-05 0)
(-0.184282 2.15401e-05 0)
(-0.1842 -3.77105e-05 0)
(-0.183479 -0.000100618 0)
(-0.182145 -0.000170929 0)
(-0.180057 -0.000238595 0)
(-0.177205 -0.000314158 0)
(-0.173638 -0.000394367 0)
(-0.169234 -0.000475459 0)
(-0.16399 -0.000563927 0)
(-0.157877 -0.000646671 0)
(-0.15087 -0.000737842 0)
(-0.142985 -0.000824199 0)
(-0.134228 -0.000911782 0)
(-0.124573 -0.00100246 0)
(-0.11402 -0.00109245 0)
(-0.102548 -0.00117894 0)
(-0.0902011 -0.00126495 0)
(-0.0770173 -0.00134909 0)
(-0.063033 -0.00141795 0)
(-0.048308 -0.00150041 0)
(-0.0328981 -0.00155893 0)
(-0.0168799 -0.00161791 0)
(-0.000320998 -0.00165502 0)
(0.0165831 -0.00168423 0)
(0.0336808 -0.00169739 0)
(0.0508294 -0.00168898 0)
(0.0678237 -0.001662 0)
(0.0844753 -0.00161301 0)
(0.10058 -0.00154566 0)
(0.115879 -0.00145733 0)
(0.130203 -0.00134747 0)
(0.143307 -0.00121434 0)
(0.155041 -0.00107617 0)
(0.165222 -0.000911669 0)
(0.173625 -0.000729925 0)
(0.180198 -0.000540486 0)
(0.184751 -0.000349008 0)
(0.187152 -0.000142042 0)
(0.187532 5.13999e-05 0)
(0.185934 0.000262746 0)
(0.182115 0.000463273 0)
(0.176288 0.000665563 0)
(0.168662 0.000855746 0)
(0.159161 0.00104191 0)
(0.147764 0.00122266 0)
(0.134807 0.0013809 0)
(0.120288 0.00152684 0)
(0.104441 0.00164471 0)
(0.087667 0.0017239 0)
(0.070095 0.0017878 0)
(0.0522326 0.00180454 0)
(0.0342674 0.00180788 0)
(0.0164547 0.00178552 0)
(-0.00225836 0.00173482 0)
(-0.0211197 0.0016736 0)
(-0.0384422 0.00159727 0)
(-0.0547855 0.00150892 0)
(-0.0701384 0.00142029 0)
(-0.084463 0.00132486 0)
(-0.0977398 0.00122656 0)
(-0.109985 0.00113284 0)
(-0.121197 0.00103516 0)
(-0.1314 0.000943602 0)
(-0.140616 0.000851522 0)
(-0.148861 0.000760592 0)
(-0.156164 0.000672866 0)
(-0.162543 0.000586222 0)
(-0.168022 0.000499984 0)
(-0.172618 0.000415475 0)
(-0.176349 0.000332119 0)
(-0.179224 0.00025097 0)
(-0.18126 0.000168031 0)
(-0.182467 8.68672e-05 0)
(-0.182905 9.8124e-06 0)
(-0.182548 -6.32602e-05 0)
(-0.181479 -0.000135203 0)
(-0.17969 -0.000207173 0)
(-0.177192 -0.00028147 0)
(-0.173984 -0.000354034 0)
(-0.170029 -0.000427646 0)
(-0.165318 -0.000506681 0)
(-0.159833 -0.000583994 0)
(-0.153532 -0.00066473 0)
(-0.14638 -0.000754146 0)
(-0.138343 -0.000841253 0)
(-0.12938 -0.000939761 0)
(-0.119463 -0.00103248 0)
(-0.108567 -0.0011266 0)
(-0.0966703 -0.00123455 0)
(-0.0837738 -0.0013272 0)
(-0.0698992 -0.00141581 0)
(-0.0550737 -0.00152099 0)
(-0.039316 -0.0015972 0)
(-0.0227546 -0.00166452 0)
(-0.00554001 -0.001746 0)
(0.01226 -0.00178721 0)
(0.0305529 -0.00184593 0)
(0.0491603 -0.00185531 0)
(0.067884 -0.00184445 0)
(0.0865336 -0.00184813 0)
(0.104896 -0.00179615 0)
(0.122733 -0.00172103 0)
(0.139813 -0.0016526 0)
(0.15589 -0.00153074 0)
(0.170717 -0.001409 0)
(0.184056 -0.00124143 0)
(0.195671 -0.00105499 0)
(0.205355 -0.000860322 0)
(0.212925 -0.000639729 0)
(0.218226 -0.000409612 0)
(0.221156 -0.000166653 0)
(0.2216 7.47901e-05 0)
(0.219678 0.000319529 0)
(0.215223 0.000560331 0)
(0.208425 0.000791206 0)
(0.199377 0.000997379 0)
(0.188265 0.00119828 0)
(0.173734 0.00138153 0)
(-0.0676463 0.00342671 0)
(-0.0773489 0.00311869 0)
(-0.0873677 0.00284196 0)
(-0.0964434 0.00257007 0)
(-0.104609 0.00229492 0)
(-0.111895 0.00204204 0)
(-0.118337 0.00179145 0)
(-0.123971 0.00155842 0)
(-0.128829 0.00133366 0)
(-0.132942 0.00111497 0)
(-0.136339 0.000906244 0)
(-0.139042 0.000703169 0)
(-0.141075 0.000503944 0)
(-0.142452 0.000307813 0)
(-0.143162 0.000120193 0)
(-0.14325 -7.32761e-05 0)
(-0.142671 -0.000270296 0)
(-0.141433 -0.000469642 0)
(-0.139523 -0.000672852 0)
(-0.136919 -0.000880195 0)
(-0.133598 -0.00109979 0)
(-0.129534 -0.00132427 0)
(-0.124692 -0.00155759 0)
(-0.119035 -0.00181114 0)
(-0.112526 -0.00206548 0)
(-0.105127 -0.00234664 0)
(-0.0968002 -0.00262081 0)
(-0.0875104 -0.00290185 0)
(-0.0772271 -0.00322053 0)
(-0.0659312 -0.00351089 0)
(-0.0536099 -0.00379614 0)
(-0.0402465 -0.00413337 0)
(-0.0258267 -0.00441108 0)
(-0.010438 -0.00473512 0)
(0.00576768 -0.00495363 0)
(0.0227583 -0.00514852 0)
(0.0404945 -0.0054034 0)
(0.0588248 -0.00551459 0)
(0.0775415 -0.00555704 0)
(0.0964437 -0.00564948 0)
(0.115317 -0.00556499 0)
(0.133916 -0.00550108 0)
(0.151984 -0.00527016 0)
(0.169227 -0.00495175 0)
(0.185356 -0.00461462 0)
(0.200108 -0.00414841 0)
(0.213213 -0.00360608 0)
(0.224428 -0.00302234 0)
(0.233534 -0.00236493 0)
(0.240337 -0.00164957 0)
(0.244736 -0.000917801 0)
(0.246608 -0.000162819 0)
(0.246004 0.000563052 0)
(0.242743 0.00132226 0)
(0.237029 0.00207652 0)
(0.228938 0.00271753 0)
(0.218659 0.00335465 0)
(0.206372 0.00396439 0)
(0.192248 0.00441062 0)
(0.176621 0.00486378 0)
(0.159751 0.00516276 0)
(0.14185 0.00543858 0)
(0.123218 0.00564381 0)
(0.104108 0.0057111 0)
(0.0847648 0.00576202 0)
(0.0654392 0.00572866 0)
(0.0463438 0.00561674 0)
(0.0276542 0.00547588 0)
(0.00955034 0.00527102 0)
(-0.00785113 0.00506144 0)
(-0.0244745 0.00480725 0)
(-0.0402297 0.00453524 0)
(-0.0550464 0.00428078 0)
(-0.0689458 0.00397127 0)
(-0.0818724 0.00369974 0)
(-0.0937833 0.00340183 0)
(-0.104791 0.00311049 0)
(-0.114896 0.00285624 0)
(-0.124021 0.00259247 0)
(-0.132302 0.00232147 0)
(-0.139768 0.00209118 0)
(-0.146347 0.00183421 0)
(-0.152144 0.00158769 0)
(-0.157098 0.00134029 0)
(-0.161223 0.00112054 0)
(-0.164556 0.000866372 0)
(-0.16709 0.000632332 0)
(-0.168794 0.000379675 0)
(-0.169683 0.0001541 0)
(-0.169829 -7.81467e-05 0)
(-0.169176 -0.000295138 0)
(-0.167853 -0.000519507 0)
(-0.165765 -0.000727677 0)
(-0.162925 -0.000940752 0)
(-0.159395 -0.0011525 0)
(-0.155142 -0.00138872 0)
(-0.150149 -0.00160998 0)
(-0.144376 -0.00182128 0)
(-0.137816 -0.00208167 0)
(-0.130488 -0.00230098 0)
(-0.122299 -0.0025509 0)
(-0.113197 -0.00283152 0)
(-0.103203 -0.00310015 0)
(-0.0923249 -0.00340073 0)
(-0.0804775 -0.00364156 0)
(-0.0676921 -0.00392085 0)
(-0.0540832 -0.00419072 0)
(-0.0396282 -0.00440448 0)
(-0.0243931 -0.00464143 0)
(-0.00847959 -0.00481776 0)
(0.0080133 -0.00498074 0)
(0.0249696 -0.0050944 0)
(0.0422313 -0.00517182 0)
(0.0596761 -0.00520224 0)
(0.0771357 -0.00516874 0)
(0.0943889 -0.00509413 0)
(0.111244 -0.00493381 0)
(0.127497 -0.00471667 0)
(0.142902 -0.00443501 0)
(0.157256 -0.00408333 0)
(0.170302 -0.00366981 0)
(0.181829 -0.00317792 0)
(0.191605 -0.00262393 0)
(0.199421 -0.00202458 0)
(0.205127 -0.00136467 0)
(0.208559 -0.000680672 0)
(0.209621 3.06468e-05 0)
(0.208297 0.000765511 0)
(0.204397 0.00149965 0)
(0.198173 0.00219657 0)
(0.189677 0.00285421 0)
(0.179031 0.00346499 0)
(0.166453 0.0040025 0)
(0.15213 0.00449168 0)
(0.136338 0.00490447 0)
(0.119321 0.00521644 0)
(0.101332 0.00546886 0)
(0.0826653 0.00562038 0)
(0.0635867 0.00571022 0)
(0.0443569 0.00574398 0)
(0.025166 0.00567063 0)
(0.00624948 0.00557495 0)
(-0.0121575 0.00539404 0)
(-0.0299061 0.00516045 0)
(-0.0468247 0.00490801 0)
(-0.0627734 0.00459905 0)
(-0.0777074 0.00428624 0)
(-0.0915635 0.00396493 0)
(-0.104299 0.00362559 0)
(-0.115941 0.00329232 0)
(-0.126482 0.00296062 0)
(-0.135898 0.00264512 0)
(-0.144244 0.00232024 0)
(-0.151538 0.0020445 0)
(-0.157878 0.00174434 0)
(-0.163312 0.001483 0)
(-0.16786 0.00123811 0)
(-0.171653 0.00100663 0)
(-0.174716 0.000798015 0)
(-0.177076 0.00062732 0)
(-0.178833 0.000444715 0)
(-0.180044 0.000265855 0)
(-0.180699 0.000111228 0)
(-0.180813 -3.41134e-05 0)
(-0.180379 -0.000201276 0)
(-0.179443 -0.000352052 0)
(-0.177982 -0.000514305 0)
(-0.175983 -0.00068398 0)
(-0.173402 -0.000848254 0)
(-0.170192 -0.00104179 0)
(-0.166388 -0.00121591 0)
(-0.161993 -0.00139873 0)
(-0.156976 -0.00161174 0)
(-0.151238 -0.00182877 0)
(-0.144698 -0.00206123 0)
(-0.137349 -0.00228682 0)
(-0.129152 -0.00255908 0)
(-0.120111 -0.00281561 0)
(-0.11019 -0.00309066 0)
(-0.0993547 -0.00335259 0)
(-0.0876072 -0.00362598 0)
(-0.0749852 -0.00388266 0)
(-0.0614727 -0.00415172 0)
(-0.0471318 -0.00441473 0)
(-0.0319193 -0.00463049 0)
(-0.0159301 -0.00487486 0)
(0.000728679 -0.00502185 0)
(0.017968 -0.00517772 0)
(0.0355442 -0.00526855 0)
(0.0533288 -0.00530448 0)
(0.071128 -0.00528194 0)
(0.0887379 -0.00518012 0)
(0.105884 -0.00500468 0)
(0.122287 -0.00474394 0)
(0.137668 -0.00439845 0)
(0.151745 -0.00396407 0)
(0.164219 -0.0034402 0)
(0.174825 -0.00286041 0)
(0.183352 -0.00220406 0)
(0.189596 -0.00150863 0)
(0.193435 -0.000770526 0)
(0.194744 -3.25448e-05 0)
(0.193582 0.000722336 0)
(0.189795 0.00147503 0)
(0.183638 0.00217644 0)
(0.175218 0.00282521 0)
(0.16472 0.00341136 0)
(0.152359 0.00392607 0)
(0.138398 0.00435735 0)
(0.123131 0.0047164 0)
(0.106825 0.00496751 0)
(0.0897476 0.00517723 0)
(0.0721912 0.005256 0)
(0.0544528 0.00529877 0)
(0.0367431 0.00525132 0)
(0.0192601 0.00515421 0)
(0.00218525 0.00501509 0)
(-0.0143729 0.0048338 0)
(-0.0302882 0.00463058 0)
(-0.0454986 0.00442784 0)
(-0.059943 0.00416922 0)
(-0.0735376 0.0039208 0)
(-0.0862589 0.00365662 0)
(-0.098079 0.0033861 0)
(-0.109043 0.00314107 0)
(-0.119176 0.00289161 0)
(-0.128486 0.00264721 0)
(-0.136993 0.00241009 0)
(-0.144686 0.00217671 0)
(-0.151646 0.001964 0)
(-0.157883 0.00174932 0)
(-0.163408 0.00153426 0)
(-0.16825 0.00133427 0)
(-0.17239 0.00115123 0)
(-0.175906 0.000947628 0)
(-0.17883 0.00076893 0)
(-0.181114 0.000603725 0)
(-0.182807 0.000414749 0)
(-0.183888 0.000244716 0)
(-0.184373 6.17706e-05 0)
(-0.184289 -0.000113202 0)
(-0.183577 -0.00031065 0)
(-0.182241 -0.000519507 0)
(-0.180148 -0.000713722 0)
(-0.177303 -0.000949161 0)
(-0.173727 -0.00118599 0)
(-0.16932 -0.00142681 0)
(-0.164084 -0.00168441 0)
(-0.157969 -0.00195504 0)
(-0.150946 -0.00221158 0)
(-0.143062 -0.00247229 0)
(-0.134309 -0.00273921 0)
(-0.124649 -0.00301105 0)
(-0.114096 -0.00328214 0)
(-0.102617 -0.00353782 0)
(-0.0902624 -0.00379276 0)
(-0.0770773 -0.00405107 0)
(-0.0630975 -0.00426892 0)
(-0.0483469 -0.00449355 0)
(-0.0329295 -0.00467458 0)
(-0.0169083 -0.00485495 0)
(-0.000345501 -0.00497191 0)
(0.016571 -0.00505735 0)
(0.0336798 -0.00508804 0)
(0.0508327 -0.00506648 0)
(0.0678377 -0.00499137 0)
(0.0844951 -0.00485177 0)
(0.100614 -0.00463576 0)
(0.115921 -0.00437708 0)
(0.130251 -0.00404587 0)
(0.143367 -0.00364122 0)
(0.155106 -0.0032223 0)
(0.165294 -0.00273227 0)
(0.173702 -0.0021883 0)
(0.180276 -0.0016281 0)
(0.184833 -0.00104861 0)
(0.187241 -0.00042569 0)
(0.187621 0.000162357 0)
(0.186013 0.000783744 0)
(0.182204 0.00138974 0)
(0.176374 0.00199631 0)
(0.168748 0.00256541 0)
(0.159246 0.00312814 0)
(0.147844 0.0036677 0)
(0.134883 0.00414415 0)
(0.120353 0.00458343 0)
(0.104495 0.00493484 0)
(0.0877114 0.00517276 0)
(0.0701268 0.00536394 0)
(0.0522527 0.00541601 0)
(0.0342762 0.00542461 0)
(0.0164541 0.00535771 0)
(-0.00226758 0.00520539 0)
(-0.0211365 0.00502041 0)
(-0.0384641 0.0047905 0)
(-0.0548109 0.00452329 0)
(-0.0701671 0.00425697 0)
(-0.0844935 0.00397375 0)
(-0.0977708 0.00368225 0)
(-0.110017 0.00339687 0)
(-0.121229 0.00310636 0)
(-0.131432 0.00283048 0)
(-0.140648 0.0025552 0)
(-0.148893 0.00228199 0)
(-0.156196 0.00201911 0)
(-0.162575 0.00175815 0)
(-0.168054 0.00149997 0)
(-0.17265 0.00124718 0)
(-0.17638 0.000997032 0)
(-0.179256 0.000752598 0)
(-0.181294 0.000504176 0)
(-0.182501 0.00026099 0)
(-0.182935 3.11402e-05 0)
(-0.182576 -0.000188923 0)
(-0.181508 -0.000405724 0)
(-0.17972 -0.000621732 0)
(-0.177222 -0.000844375 0)
(-0.174015 -0.00106207 0)
(-0.17006 -0.00128252 0)
(-0.16535 -0.00152 0)
(-0.159867 -0.0017518 0)
(-0.153567 -0.00199398 0)
(-0.146417 -0.00226226 0)
(-0.138381 -0.00252358 0)
(-0.12942 -0.00281914 0)
(-0.119503 -0.00309734 0)
(-0.108607 -0.00337973 0)
(-0.0967116 -0.00370366 0)
(-0.0838142 -0.00398168 0)
(-0.069938 -0.00424757 0)
(-0.0551109 -0.00456322 0)
(-0.0393502 -0.00479192 0)
(-0.0227842 -0.00499407 0)
(-0.00556504 -0.00523839 0)
(0.0122402 -0.00536214 0)
(0.0305393 -0.0055385 0)
(0.0491539 -0.00556671 0)
(0.0678853 -0.00553415 0)
(0.0865438 -0.00554524 0)
(0.104915 -0.00538936 0)
(0.122762 -0.00516402 0)
(0.139852 -0.00495885 0)
(0.155938 -0.00459318 0)
(0.170776 -0.00422796 0)
(0.184123 -0.00372517 0)
(0.195746 -0.00316575 0)
(0.205438 -0.00258164 0)
(0.213014 -0.00191971 0)
(0.218319 -0.00122783 0)
(0.221247 -0.000506968 0)
(0.221709 0.000230781 0)
(0.219771 0.000958743 0)
(0.215316 0.00168101 0)
(0.208514 0.00237414 0)
(0.199458 0.00299282 0)
(0.188339 0.00359566 0)
(0.173799 0.00414555 0)
(-0.0677244 0.00571098 0)
(-0.0774249 0.00519751 0)
(-0.0874421 0.00473623 0)
(-0.0965156 0.00428302 0)
(-0.104678 0.0038244 0)
(-0.111962 0.00340292 0)
(-0.118401 0.00298528 0)
(-0.124032 0.0025969 0)
(-0.128887 0.00222233 0)
(-0.132998 0.00185789 0)
(-0.136393 0.00151005 0)
(-0.139095 0.00117165 0)
(-0.141126 0.000839849 0)
(-0.142502 0.000512945 0)
(-0.143215 0.00019967 0)
(-0.143301 -0.000122299 0)
(-0.142723 -0.00045051 0)
(-0.141487 -0.000782559 0)
(-0.139578 -0.00112104 0)
(-0.136975 -0.00146676 0)
(-0.133657 -0.00183263 0)
(-0.129596 -0.00220668 0)
(-0.124756 -0.00259552 0)
(-0.119102 -0.00301806 0)
(-0.112596 -0.00344198 0)
(-0.1052 -0.0039106 0)
(-0.096876 -0.00436757 0)
(-0.0875881 -0.00483608 0)
(-0.0773076 -0.00536732 0)
(-0.0660119 -0.00585147 0)
(-0.0536897 -0.00632699 0)
(-0.0403271 -0.00688913 0)
(-0.0259033 -0.00735084 0)
(-0.010508 -0.00789474 0)
(0.00570395 -0.00825691 0)
(0.0227019 -0.00858276 0)
(0.0404493 -0.00900785 0)
(0.0587937 -0.00919342 0)
(0.0775258 -0.00926445 0)
(0.0964465 -0.00941899 0)
(0.115339 -0.00927834 0)
(0.133961 -0.00917221 0)
(0.15205 -0.00878723 0)
(0.169312 -0.00825683 0)
(0.185467 -0.0076945 0)
(0.200238 -0.00691769 0)
(0.213361 -0.00601382 0)
(0.224596 -0.00503722 0)
(0.233715 -0.00394718 0)
(0.240532 -0.0027471 0)
(0.244935 -0.0015382 0)
(0.24682 -0.000267966 0)
(0.246191 0.00093607 0)
(0.242922 0.00220382 0)
(0.237213 0.00346145 0)
(0.22911 0.00453123 0)
(0.218817 0.00559364 0)
(0.206512 0.00661046 0)
(0.192369 0.00735392 0)
(0.176723 0.00811064 0)
(0.159829 0.00860807 0)
(0.141907 0.00906783 0)
(0.123254 0.00941047 0)
(0.104126 0.0095217 0)
(0.0847629 0.00960602 0)
(0.0654201 0.00955084 0)
(0.0463121 0.00936383 0)
(0.0276088 0.0091288 0)
(0.00949763 0.00878691 0)
(-0.00791424 0.0084394 0)
(-0.0245472 0.00801134 0)
(-0.0402979 0.0075606 0)
(-0.0551231 0.00713562 0)
(-0.069024 0.00661665 0)
(-0.0819461 0.00616702 0)
(-0.0938643 0.00567098 0)
(-0.104867 0.00518458 0)
(-0.114967 0.00475824 0)
(-0.124095 0.00432565 0)
(-0.132376 0.00386557 0)
(-0.139837 0.00348636 0)
(-0.146423 0.00305656 0)
(-0.152225 0.00264496 0)
(-0.157176 0.00223271 0)
(-0.161301 0.00187243 0)
(-0.164642 0.00144086 0)
(-0.167178 0.00105682 0)
(-0.168888 0.000639582 0)
(-0.16978 0.000258771 0)
(-0.169915 -0.000125045 0)
(-0.169272 -0.000496313 0)
(-0.167957 -0.00087107 0)
(-0.165874 -0.0012112 0)
(-0.163032 -0.00157093 0)
(-0.159509 -0.00192068 0)
(-0.155254 -0.00229964 0)
(-0.150266 -0.00268582 0)
(-0.144502 -0.00303158 0)
(-0.137952 -0.00346898 0)
(-0.130625 -0.0038409 0)
(-0.122446 -0.0042592 0)
(-0.113345 -0.00471107 0)
(-0.10336 -0.00517255 0)
(-0.0924774 -0.0056669 0)
(-0.0806158 -0.00606287 0)
(-0.0678373 -0.00654669 0)
(-0.0542135 -0.00697488 0)
(-0.0397519 -0.00735366 0)
(-0.0245055 -0.00772636 0)
(-0.00858854 -0.00803104 0)
(0.007913 -0.00829676 0)
(0.0248758 -0.00849608 0)
(0.0421481 -0.00862853 0)
(0.0596131 -0.00867471 0)
(0.0770917 -0.00861565 0)
(0.0943639 -0.00848417 0)
(0.111232 -0.00822123 0)
(0.127494 -0.0078767 0)
(0.14293 -0.00739458 0)
(0.157302 -0.00681594 0)
(0.170374 -0.0061089 0)
(0.181906 -0.0052996 0)
(0.191696 -0.00438522 0)
(0.199538 -0.00337041 0)
(0.20526 -0.00227507 0)
(0.2087 -0.00112278 0)
(0.209755 3.94101e-05 0)
(0.208416 0.00127487 0)
(0.204523 0.0025058 0)
(0.198297 0.00366404 0)
(0.189796 0.00475617 0)
(0.179132 0.0057865 0)
(0.166526 0.00667408 0)
(0.152187 0.00748874 0)
(0.136368 0.0081757 0)
(0.119337 0.00869442 0)
(0.101326 0.00912354 0)
(0.0826319 0.0093714 0)
(0.063538 0.00952712 0)
(0.0442834 0.00957606 0)
(0.0250747 0.00945416 0)
(0.00614121 0.00928878 0)
(-0.0122822 0.00899502 0)
(-0.0300393 0.00860753 0)
(-0.0469744 0.00818295 0)
(-0.0629315 0.00766112 0)
(-0.0778642 0.00715097 0)
(-0.0917198 0.00661023 0)
(-0.104451 0.00605032 0)
(-0.1161 0.00548697 0)
(-0.12664 0.00493417 0)
(-0.136063 0.0044111 0)
(-0.144408 0.00386362 0)
(-0.151697 0.00340128 0)
(-0.158027 0.00290116 0)
(-0.163448 0.00247906 0)
(-0.168 0.00206742 0)
(-0.171794 0.00167939 0)
(-0.174844 0.00132637 0)
(-0.177201 0.00105035 0)
(-0.17896 0.00072586 0)
(-0.180154 0.000445901 0)
(-0.180799 0.000187761 0)
(-0.180915 -5.56986e-05 0)
(-0.18049 -0.000326133 0)
(-0.179562 -0.000599214 0)
(-0.178082 -0.00084878 0)
(-0.176101 -0.00113617 0)
(-0.173521 -0.0014201 0)
(-0.170307 -0.00173241 0)
(-0.166505 -0.0020276 0)
(-0.162119 -0.00234039 0)
(-0.157104 -0.00269086 0)
(-0.151366 -0.00303108 0)
(-0.144838 -0.0034435 0)
(-0.137491 -0.00381244 0)
(-0.129296 -0.00425906 0)
(-0.120255 -0.00468912 0)
(-0.110337 -0.00515341 0)
(-0.0995084 -0.005594 0)
(-0.0877603 -0.00604133 0)
(-0.0751295 -0.00647133 0)
(-0.0616141 -0.00691843 0)
(-0.0472672 -0.00735737 0)
(-0.0320552 -0.00771928 0)
(-0.0160545 -0.00812201 0)
(0.000618339 -0.00838205 0)
(0.0178714 -0.00862577 0)
(0.0354615 -0.00878586 0)
(0.0532563 -0.00884682 0)
(0.0710762 -0.00880476 0)
(0.0887045 -0.00863754 0)
(0.105879 -0.0083492 0)
(0.122314 -0.00790958 0)
(0.137719 -0.00733213 0)
(0.151812 -0.00660359 0)
(0.164299 -0.00575066 0)
(0.174938 -0.00476381 0)
(0.183476 -0.00367661 0)
(0.18973 -0.00251185 0)
(0.193574 -0.00129476 0)
(0.194897 -4.70452e-05 0)
(0.193708 0.00121085 0)
(0.189923 0.00246244 0)
(0.183755 0.00363148 0)
(0.175321 0.00470816 0)
(0.164807 0.00568912 0)
(0.152424 0.00654604 0)
(0.138442 0.00726514 0)
(0.123157 0.00786399 0)
(0.106837 0.00829433 0)
(0.089723 0.00863247 0)
(0.0721402 0.00876411 0)
(0.0543795 0.00883559 0)
(0.036651 0.00874714 0)
(0.0191604 0.00859625 0)
(0.00206876 0.0083585 0)
(-0.0144903 0.00805671 0)
(-0.0304026 0.00772636 0)
(-0.0456283 0.00737668 0)
(-0.0600803 0.00695326 0)
(-0.0736821 0.00653018 0)
(-0.0864049 0.00609095 0)
(-0.0982161 0.00565027 0)
(-0.109184 0.00523996 0)
(-0.119317 0.00481087 0)
(-0.128621 0.00441098 0)
(-0.137122 0.00401737 0)
(-0.144809 0.00363796 0)
(-0.151776 0.00327646 0)
(-0.15802 0.00291198 0)
(-0.16355 0.00255018 0)
(-0.168381 0.00222036 0)
(-0.17251 0.00192335 0)
(-0.176023 0.00157779 0)
(-0.178932 0.00128249 0)
(-0.181218 0.00100772 0)
(-0.182922 0.000693833 0)
(-0.184009 0.000403095 0)
(-0.184486 0.000101591 0)
(-0.18439 -0.000182478 0)
(-0.18369 -0.000521779 0)
(-0.182353 -0.000855268 0)
(-0.180277 -0.00119481 0)
(-0.177438 -0.00158164 0)
(-0.173854 -0.00197554 0)
(-0.169456 -0.0023739 0)
(-0.164234 -0.00281945 0)
(-0.158112 -0.0032478 0)
(-0.151093 -0.00369058 0)
(-0.143207 -0.00412402 0)
(-0.134455 -0.00456329 0)
(-0.124795 -0.00501874 0)
(-0.114234 -0.00547148 0)
(-0.102753 -0.00589477 0)
(-0.0903974 -0.00632021 0)
(-0.077211 -0.00675646 0)
(-0.0632285 -0.00710855 0)
(-0.0484785 -0.00749899 0)
(-0.0330513 -0.00779582 0)
(-0.0170177 -0.00809064 0)
(-0.000437788 -0.00828781 0)
(0.0164895 -0.00843177 0)
(0.0336168 -0.00848717 0)
(0.0507904 -0.00845034 0)
(0.0678149 -0.00831522 0)
(0.0844917 -0.00808291 0)
(0.100627 -0.00773344 0)
(0.115954 -0.00729322 0)
(0.130313 -0.00674172 0)
(0.143436 -0.00607412 0)
(0.155188 -0.00537601 0)
(0.165404 -0.0045603 0)
(0.173827 -0.00364691 0)
(0.180406 -0.00270855 0)
(0.184965 -0.0017468 0)
(0.187383 -0.000716063 0)
(0.187757 0.000272027 0)
(0.18614 0.00130993 0)
(0.182338 0.00231233 0)
(0.176509 0.00332629 0)
(0.168881 0.00427595 0)
(0.159371 0.00521509 0)
(0.147967 0.00611513 0)
(0.134994 0.0069093 0)
(0.120447 0.00764127 0)
(0.104571 0.00822872 0)
(0.0877673 0.00862548 0)
(0.0701601 0.00894393 0)
(0.0522627 0.00902953 0)
(0.0342676 0.00904425 0)
(0.0164285 0.00893201 0)
(-0.00230814 0.00867771 0)
(-0.0211895 0.00836952 0)
(-0.0385262 0.00798658 0)
(-0.0548769 0.00754286 0)
(-0.0702367 0.00709999 0)
(-0.0845649 0.00662781 0)
(-0.097843 0.00613393 0)
(-0.11009 0.00566271 0)
(-0.1213 0.0051762 0)
(-0.131503 0.00471749 0)
(-0.140717 0.00425802 0)
(-0.148961 0.00380328 0)
(-0.156263 0.00336489 0)
(-0.162641 0.00292924 0)
(-0.168119 0.00249864 0)
(-0.172714 0.00207884 0)
(-0.176444 0.00166097 0)
(-0.179318 0.00125393 0)
(-0.181358 0.000840235 0)
(-0.182568 0.000437792 0)
(-0.182995 5.45663e-05 0)
(-0.182633 -0.000313133 0)
(-0.181565 -0.000676395 0)
(-0.179777 -0.00103649 0)
(-0.17728 -0.00140728 0)
(-0.174073 -0.00177014 0)
(-0.17012 -0.00213771 0)
(-0.165412 -0.00253303 0)
(-0.15993 -0.00291922 0)
(-0.153633 -0.00332277 0)
(-0.146486 -0.00376995 0)
(-0.138453 -0.00420549 0)
(-0.129496 -0.00469819 0)
(-0.119581 -0.00516197 0)
(-0.108686 -0.00563276 0)
(-0.0967909 -0.00617286 0)
(-0.0838916 -0.00663645 0)
(-0.0700121 -0.00707985 0)
(-0.0551819 -0.00760618 0)
(-0.0394151 -0.00798758 0)
(-0.0228399 -0.00832471 0)
(-0.00561185 -0.00873235 0)
(0.0122039 -0.00893888 0)
(0.0305152 -0.00923318 0)
(0.0491442 -0.00928036 0)
(0.067891 -0.00922623 0)
(0.0865668 -0.00924499 0)
(0.104956 -0.00898531 0)
(0.12282 -0.00860977 0)
(0.139931 -0.00826802 0)
(0.156035 -0.00765844 0)
(0.170896 -0.00704968 0)
(0.184259 -0.00621147 0)
(0.195897 -0.00527877 0)
(0.205606 -0.00430488 0)
(0.213192 -0.00320113 0)
(0.218505 -0.0020458 0)
(0.22144 -0.00084322 0)
(0.221912 0.000381862 0)
(0.219957 0.00159854 0)
(0.215501 0.00280194 0)
(0.208691 0.00395869 0)
(0.199619 0.00499039 0)
(0.188486 0.00599558 0)
(0.173928 0.00691245 0)
(-0.0678415 0.00799498 0)
(-0.0775388 0.0072759 0)
(-0.0875537 0.00662993 0)
(-0.0966239 0.00599533 0)
(-0.104781 0.00535321 0)
(-0.112061 0.0047631 0)
(-0.118496 0.00417842 0)
(-0.124123 0.00363476 0)
(-0.128975 0.00311039 0)
(-0.133083 0.00260029 0)
(-0.136475 0.00211343 0)
(-0.139175 0.00163983 0)
(-0.141203 0.00117572 0)
(-0.142576 0.000719338 0)
(-0.143295 0.000276715 0)
(-0.143378 -0.000171825 0)
(-0.142801 -0.000630658 0)
(-0.141566 -0.00109516 0)
(-0.139659 -0.00156838 0)
(-0.137059 -0.00205296 0)
(-0.133745 -0.00256492 0)
(-0.129687 -0.00308845 0)
(-0.124852 -0.00363271 0)
(-0.119203 -0.00422421 0)
(-0.112701 -0.00481771 0)
(-0.10531 -0.00547373 0)
(-0.0969897 -0.00611367 0)
(-0.0877047 -0.00676983 0)
(-0.0774282 -0.00751376 0)
(-0.0661329 -0.00819174 0)
(-0.0538095 -0.00885795 0)
(-0.040448 -0.00964499 0)
(-0.0260184 -0.0102876 0)
(-0.0106135 -0.0110599 0)
(0.0056085 -0.011562 0)
(0.0226171 -0.01202 0)
(0.0403814 -0.0126156 0)
(0.0587469 -0.0128759 0)
(0.0775021 -0.0129759 0)
(0.0964506 -0.0131932 0)
(0.115371 -0.0129967 0)
(0.134027 -0.0128487 0)
(0.152148 -0.01231 0)
(0.169442 -0.0115673 0)
(0.185633 -0.0107804 0)
(0.200434 -0.00969265 0)
(0.213585 -0.00842578 0)
(0.224847 -0.00705986 0)
(0.233988 -0.00553208 0)
(0.240825 -0.00385469 0)
(0.245236 -0.00215566 0)
(0.247131 -0.000379703 0)
(0.246462 0.00132426 0)
(0.243197 0.00308581 0)
(0.237489 0.00484768 0)
(0.229367 0.00634812 0)
(0.219054 0.00783652 0)
(0.206722 0.00926113 0)
(0.192551 0.0103017 0)
(0.176874 0.0113637 0)
(0.159946 0.0120589 0)
(0.141993 0.012702 0)
(0.123307 0.0131823 0)
(0.104151 0.0133371 0)
(0.0847599 0.0134552 0)
(0.0653914 0.0133769 0)
(0.0462636 0.0131146 0)
(0.0275387 0.0127835 0)
(0.00941686 0.0123038 0)
(-0.00800821 0.0118219 0)
(-0.0246527 0.0112186 0)
(-0.0404047 0.0105871 0)
(-0.0552409 0.00998864 0)