/*--------------------------------*- C++ -*----------------------------------*\
| =========                 |                                                 |
| \\      /  F ield         | OpenFOAM: The Open Source CFD Toolbox           |
|  \\    /   O peration     | Version:  3.0.1                                 |
|   \\  /    A nd           | Web:      www.OpenFOAM.org                      |
|    \\/     M anipulation  |                                                 |
\*---------------------------------------------------------------------------*/
FoamFile
{
    version     2.0;
    format      ascii;
    class       volScalarField;
    location    "44.8";
    object      p_rgh;
}
// * * * * * * * * * * * * * * * * * * * * * * * * * * * * * * * * * * * * * //

dimensions      [1 -1 -2 0 0 0 0];

internalField   nonuniform List<scalar> 
21420
(
377.288
393.56
406.085
414.755
419.517
420.113
416.55
408.982
397.537
382.291
363.467
341.342
316.258
288.546
258.608
226.832
193.633
159.462
124.743
89.9033
55.3158
21.7235
-11.0687
-43.0396
-73.8382
-103.225
-131.034
-157.135
-181.457
-203.955
-224.608
-243.425
-260.432
-275.662
-289.161
-300.972
-311.145
-319.727
-326.758
-332.277
-336.32
-338.888
-339.984
-339.418
-337.413
-333.893
-328.849
-322.266
-314.099
-304.302
-292.857
-279.702
-264.815
-248.154
-229.682
-209.391
-187.288
-163.371
-137.671
-110.275
-81.2753
-50.8223
-19.0986
13.6858
47.2563
81.2992
115.495
149.466
182.842
215.234
246.248
275.523
302.703
327.442
349.434
368.388
384.047
396.189
404.621
409.221
409.812
406.502
399.237
388.074
373.186
354.78
333.107
308.469
281.212
251.707
220.344
187.528
153.661
119.14
84.3512
49.6635
15.4248
-18.046
-50.4591
-81.557
-111.122
-138.972
-164.966
-189.004
-211.025
-231.002
-248.942
-264.875
-278.849
-290.926
-301.175
-309.671
-316.484
-321.683
-325.33
-327.495
-328.2
-327.472
-325.396
-321.96
-317.178
-311.06
-303.609
-294.827
-284.715
-273.264
-260.475
-246.344
-230.865
-214.029
-195.833
-176.271
-155.342
-133.054
-109.425
-84.4798
-58.2694
-30.8623
-2.3498
27.146
57.471
88.3778
119.645
150.996
182.115
212.657
242.251
270.514
297.058
321.496
343.461
362.6
378.591
391.159
400.07
405.15
406.209
403.327
396.421
385.576
370.937
352.715
331.177
306.649
279.508
250.167
219.076
186.692
153.48
119.898
86.3824
53.3389
21.1275
-9.94659
-39.6327
-67.7364
-94.117
-118.683
-141.388
-162.215
-181.175
-198.304
-213.652
-227.281
-239.258
-249.659
-258.56
-266.032
-272.155
-277.005
-280.647
-283.15
-284.582
-284.981
-284.38
-282.851
-280.4
-277.044
-272.792
-267.636
-261.564
-254.551
-246.562
-237.556
-227.481
-216.281
-203.904
-190.293
-175.387
-159.138
-141.501
-122.434
-101.914
-79.9361
-56.5214
-31.711
-5.57874
21.768
50.193
79.5387
109.511
139.878
170.347
200.589
230.242
258.932
286.267
311.848
335.286
356.208
374.264
389.141
400.574
408.359
412.354
412.42
408.684
401.127
389.887
375.182
357.275
336.477
313.141
287.655
260.419
231.844
202.335
172.273
142.021
111.906
82.2177
53.2084
25.0852
-1.98178
-27.8528
-52.4218
-75.6119
-97.3749
-117.689
-136.549
-153.97
-169.976
-184.602
-197.89
-209.889
-220.644
-230.205
-238.627
-245.95
-252.202
-257.407
-261.571
-264.693
-266.788
-267.801
-267.71
-266.738
-264.728
-261.593
-257.273
-251.705
-244.786
-236.437
-226.575
-215.138
-202.059
-187.277
-170.722
-152.373
-132.182
-110.171
-86.3868
-60.9081
-33.8583
-5.34154
25.2459
60.3823
95.6361
131.106
166.529
201.732
236.288
269.785
301.882
332.121
360.079
385.423
407.758
426.776
442.178
453.708
461.165
464.516
463.794
459.14
450.328
437.501
420.883
400.644
377.077
350.449
321.125
289.559
256.136
221.322
185.546
149.254
112.918
76.9811
41.9265
9.3622
-23.1904
-54.7069
-84.7331
-113.025
-139.428
-163.864
-186.277
-206.655
-225.009
-241.362
-255.753
-268.232
-278.852
-287.671
-294.736
-300.094
-303.801
-305.894
-306.382
-304.988
-301.926
-297.185
-290.776
-282.687
-272.843
-261.184
377.41
393.695
406.23
414.907
419.673
420.281
416.705
409.136
397.681
382.423
363.585
341.444
316.343
288.613
258.655
226.861
193.644
159.455
124.72
89.8673
55.2702
21.6666
-11.1337
-43.1107
-73.9147
-103.305
-131.117
-157.219
-181.54
-204.037
-224.688
-243.503
-260.507
-275.735
-289.23
-301.039
-311.21
-319.789
-326.819
-332.336
-336.377
-338.945
-340.038
-339.477
-337.471
-333.952
-328.909
-322.329
-314.164
-304.369
-292.927
-279.774
-264.889
-248.231
-229.761
-209.472
-187.37
-163.453
-137.753
-110.355
-81.3521
-50.8937
-19.1633
13.6301
47.2112
81.2664
115.476
149.462
182.854
215.262
246.293
275.584
302.78
327.534
349.54
368.508
384.178
396.329
404.769
409.373
409.968
406.649
399.38
388.21
373.311
354.891
333.202
308.547
281.272
251.749
220.368
187.533
153.649
119.113
84.3094
49.6085
15.3582
-18.1224
-50.5439
-81.6485
-111.218
-139.072
-165.068
-189.107
-211.126
-231.102
-249.039
-264.969
-278.939
-291.012
-301.258
-309.75
-316.56
-321.756
-325.402
-327.564
-328.266
-327.538
-325.461
-322.024
-317.243
-311.124
-303.674
-294.893
-284.781
-273.331
-260.542
-246.413
-230.934
-214.1
-195.905
-176.344
-155.416
-133.129
-109.499
-84.554
-58.3422
-30.9326
-2.4167
27.0842
57.4161
88.3315
119.609
150.972
182.105
212.662
242.272
270.553
297.113
321.569
343.55
362.704
378.709
391.288
400.208
405.293
406.362
403.468
396.561
385.708
371.059
352.823
331.268
306.723
279.562
250.202
219.09
186.687
153.456
119.856
86.3263
53.27
21.0481
-10.034
-39.7257
-67.8329
-94.215
-118.782
-141.485
-162.31
-181.267
-198.393
-213.738
-227.363
-239.337
-249.734
-258.631
-266.1
-272.22
-277.066
-280.706
-283.207
-284.636
-285.032
-284.431
-282.901
-280.448
-277.092
-272.84
-267.685
-261.614
-254.603
-246.616
-237.612
-227.539
-216.342
-203.968
-190.359
-175.457
-159.21
-141.575
-122.51
-101.991
-80.0144
-56.5993
-31.7871
-5.65236
21.6986
50.129
79.483
109.464
139.842
170.324
200.58
230.249
258.956
286.308
311.906
335.362
356.3
374.371
389.261
400.704
408.496
412.494
412.567
408.818
401.257
390.008
375.29
357.368
336.554
313.201
287.696
260.442
231.85
202.325
172.248
141.984
111.858
82.1608
53.1444
25.0157
-2.05549
-27.9294
-52.5001
-75.6909
-97.4535
-117.766
-136.625
-154.044
-170.048
-184.671
-197.957
-209.952
-220.704
-230.262
-238.682
-246.003
-252.254
-257.457
-261.62
-264.741
-266.834
-267.848
-267.758
-266.788
-264.777
-261.644
-257.327
-251.761
-244.846
-236.5
-226.642
-215.208
-202.133
-187.354
-170.802
-152.456
-132.265
-110.255
-86.4707
-60.9906
-33.9381
-5.41895
25.1693
60.3278
95.591
131.07
166.506
201.722
236.294
269.808
301.924
332.182
360.158
385.521
407.872
426.905
442.32
453.862
461.334
464.701
463.95
459.286
450.477
437.648
421.019
400.765
377.182
350.535
321.192
289.606
256.164
221.33
185.536
149.227
112.874
76.9186
41.8462
9.30437
-23.2628
-54.7897
-84.8215
-113.116
-139.52
-163.955
-186.367
-206.742
-225.094
-241.444
-255.831
-268.307
-278.925
-287.74
-294.804
-300.16
-303.866
-305.957
-306.441
-305.051
-301.988
-297.249
-290.841
-282.754
-272.911
-261.255
377.655
393.965
406.521
415.211
419.983
420.616
417.016
409.444
397.969
382.688
363.822
341.649
316.512
288.746
258.75
226.919
193.665
159.442
124.676
89.795
55.1792
21.5524
-11.2637
-43.2529
-74.0677
-103.466
-131.282
-157.386
-181.707
-204.201
-224.848
-243.659
-260.657
-275.879
-289.369
-301.173
-311.339
-319.914
-326.939
-332.454
-336.492
-339.06
-340.146
-339.593
-337.588
-334.071
-329.031
-322.454
-314.293
-304.503
-293.065
-279.917
-265.037
-248.384
-229.918
-209.632
-187.532
-163.617
-137.915
-110.514
-81.5037
-51.0347
-19.2906
13.5207
47.1232
81.2029
115.441
149.456
182.88
215.321
246.385
275.709
302.937
327.722
349.757
368.751
384.445
396.614
405.069
409.679
410.29
406.951
399.676
388.492
373.572
355.125
333.407
308.718
281.408
251.849
220.432
187.563
153.646
119.078
84.2462
49.5196
15.2466
-18.2535
-50.6914
-81.8092
-111.389
-139.249
-165.248
-189.288
-211.306
-231.277
-249.21
-265.133
-279.096
-291.162
-301.401
-309.886
-316.69
-321.881
-325.522
-327.68
-328.374
-327.649
-325.569
-322.131
-317.35
-311.232
-303.782
-295.002
-284.891
-273.443
-260.656
-246.528
-231.052
-214.22
-196.027
-176.468
-155.542
-133.256
-109.626
-84.6808
-58.4664
-31.0519
-2.52909
26.9818
57.3276
88.2601
119.559
150.946
182.106
212.693
242.336
270.65
297.245
321.735
343.749
362.933
378.965
391.567
400.504
405.6
406.686
403.771
396.861
385.994
371.324
353.061
331.474
306.892
279.693
250.293
219.141
186.699
153.432
119.799
86.2387
53.1572
20.915
-10.1829
-39.8855
-67.9994
-94.3845
-118.951
-141.652
-162.472
-181.425
-198.544
-213.882
-227.5
-239.467
-249.857
-258.747
-266.209
-272.323
-277.163
-280.798
-283.294
-284.719
-285.108
-284.507
-282.974
-280.521
-277.165
-272.913
-267.759
-261.69
-254.682
-246.699
-237.7
-227.632
-216.44
-204.072
-190.469
-175.572
-159.331
-141.701
-122.64
-102.124
-80.1488
-56.7331
-31.9178
-5.77796
21.5812
50.0222
79.3928
109.393
139.792
170.299
200.584
230.284
259.024
286.41
312.043
335.533
356.504
374.604
389.519
400.983
408.789
412.794
412.88
409.107
401.538
390.271
375.528
357.576
336.728
313.34
287.799
260.51
231.884
202.327
172.222
141.932
111.785
82.0709
53.0408
24.9012
-2.17827
-28.0578
-52.6318
-75.8238
-97.5858
-117.896
-136.752
-154.167
-170.167
-184.785
-198.066
-210.057
-220.803
-230.356
-238.772
-246.089
-252.338
-257.54
-261.702
-264.822
-266.913
-267.927
-267.844
-266.878
-264.866
-261.736
-257.425
-251.866
-244.958
-236.619
-226.769
-215.343
-202.276
-187.504
-170.957
-152.616
-132.428
-110.42
-86.635
-61.1523
-34.0946
-5.57076
25.019
60.2212
95.5032
131.002
166.46
201.705
236.309
269.858
302.01
332.306
360.319
385.717
408.102
427.166
442.607
454.172
461.675
465.059
464.271
459.584
450.778
437.942
421.29
401.008
377.391
350.708
321.327
289.701
256.219
221.347
185.517
149.172
112.784
76.7936
41.6849
9.18902
-23.4076
-54.9553
-84.9983
-113.298
-139.703
-164.137
-186.546
-206.916
-225.263
-241.607
-255.988
-268.458
-279.07
-287.88
-294.939
-300.291
-303.995
-306.084
-306.56
-305.175
-302.113
-297.375
-290.97
-282.886
-273.048
-261.397
378.022
394.37
406.956
415.669
420.448
421.111
417.489
409.907
398.4
383.085
364.177
341.956
316.767
288.945
258.893
227.005
193.698
159.423
124.608
89.686
55.0426
21.3808
-11.4584
-43.4663
-74.2975
-103.707
-131.53
-157.637
-181.956
-204.447
-225.089
-243.892
-260.883
-276.096
-289.578
-301.373
-311.532
-320.101
-327.121
-332.631
-336.664
-339.23
-340.314
-339.769
-337.764
-334.25
-329.213
-322.642
-314.487
-304.702
-293.272
-280.131
-265.259
-248.613
-230.153
-209.873
-187.776
-163.862
-138.158
-110.751
-81.7314
-51.2465
-19.482
13.3564
46.9908
81.1074
115.387
149.447
182.919
215.409
246.523
275.896
303.173
328.005
350.083
369.116
384.845
397.042
405.52
410.14
410.77
407.409
400.123
388.916
373.965
355.479
333.715
308.977
281.615
252.002
220.531
187.61
153.643
119.029
84.1542
49.389
15.0819
-18.4475
-50.91
-82.0475
-111.642
-139.512
-165.517
-189.557
-211.573
-231.539
-249.463
-265.377
-279.329
-291.384
-301.613
-310.088
-316.882
-322.065
-325.699
-327.851
-328.536
-327.813
-325.73
-322.29
-317.509
-311.391
-303.942
-295.164
-285.054
-273.608
-260.824
-246.699
-231.226
-214.396
-196.208
-176.652
-155.728
-133.444
-109.815
-84.8681
-58.6497
-31.2279
-2.69474
26.8311
57.1981
88.1561
119.486
150.909
182.111
212.743
242.435
270.8
297.447
321.988
344.051
363.281
379.354
391.99
400.952
406.063
407.171
404.235
397.317
386.428
371.725
353.421
331.786
307.15
279.893
250.433
219.221
186.721
153.399
119.715
86.1106
52.9913
20.7183
-10.4032
-40.1221
-68.2461
-94.6357
-119.203
-141.9
-162.713
-181.658
-198.768
-214.096
-227.703
-239.659
-250.039
-258.918
-266.37
-272.474
-277.306
-280.933
-283.421
-284.839
-285.221
-284.619
-283.082
-280.627
-277.27
-273.019
-267.868
-261.802
-254.799
-246.822
-237.829
-227.768
-216.585
-204.225
-190.63
-175.743
-159.51
-141.886
-122.832
-102.321
-80.3478
-56.931
-32.1115
-5.96375
21.4076
49.8643
79.2606
109.287
139.72
170.265
200.592
230.339
259.129
286.566
312.251
335.793
356.813
374.958
389.911
401.405
409.233
413.249
413.348
409.549
401.963
390.668
375.888
357.891
336.993
313.552
287.958
260.614
231.938
202.333
172.185
141.858
111.679
81.9388
52.8878
24.7318
-2.36001
-28.2479
-52.827
-76.0208
-97.7818
-118.089
-136.941
-154.35
-170.343
-184.954
-198.228
-210.211
-220.95
-230.496
-238.906
-246.218
-252.463
-257.663
-261.824
-264.944
-267.031
-268.047
-267.974
-267.01
-264.999
-261.875
-257.572
-252.023
-245.126
-236.798
-226.96
-215.545
-202.49
-187.728
-171.191
-152.858
-132.674
-110.668
-86.8816
-61.3952
-34.3292
-5.79874
24.7931
60.0618
95.3695
130.898
166.391
201.678
236.331
269.931
302.139
332.491
360.56
386.012
408.447
427.556
443.037
454.635
462.174
465.571
464.768
460.046
451.233
438.383
421.697
401.372
377.706
350.968
321.528
289.843
256.302
221.373
185.487
149.09
112.651
76.6061
41.4421
9.01638
-23.6253
-55.2043
-85.2638
-113.571
-139.978
-164.41
-186.814
-207.178
-225.517
-241.852
-256.224
-268.684
-279.287
-288.089
-295.141
-300.489
-304.188
-306.272
-306.742
-305.362
-302.301
-297.565
-291.164
-283.086
-273.254
-261.611
378.511
394.911
407.538
416.279
421.071
421.759
418.128
410.524
398.976
383.615
364.65
342.365
317.106
289.211
259.083
227.121
193.74
159.396
124.518
89.5397
54.8599
21.1517
-11.7179
-43.7511
-74.6043
-104.029
-131.861
-157.971
-182.29
-204.776
-225.41
-244.203
-261.183
-276.385
-289.856
-301.641
-311.79
-320.35
-327.362
-332.866
-336.893
-339.456
-340.542
-340.001
-337.998
-334.487
-329.456
-322.893
-314.745
-304.969
-293.548
-280.417
-265.555
-248.918
-230.467
-210.194
-188.102
-164.189
-138.483
-111.069
-82.0353
-51.5296
-19.7376
13.1368
46.8139
80.9797
115.314
149.435
182.97
215.526
246.707
276.146
303.488
328.381
350.517
369.604
385.378
397.614
406.12
410.757
411.402
408.027
400.719
389.484
374.49
355.952
334.128
309.323
281.891
252.206
220.664
187.673
153.639
118.963
84.0316
49.2149
14.8623
-18.706
-51.2013
-82.3653
-111.979
-139.863
-165.874
-189.917
-211.928
-231.887
-249.801
-265.702
-279.64
-291.68
-301.895
-310.357
-317.138
-322.31
-325.935
-328.077
-328.754
-328.031
-325.943
-322.501
-317.72
-311.603
-304.155
-295.378
-285.27
-273.828
-261.047
-246.926
-231.457
-214.632
-196.448
-176.896
-155.976
-133.695
-110.066
-85.1172
-58.8936
-31.4624
-2.91538
26.6302
57.0259
88.0178
119.389
150.861
182.118
212.811
242.567
271
297.716
322.326
344.455
363.746
379.873
392.554
401.552
406.684
407.809
404.863
397.928
387.008
372.262
353.902
332.203
307.495
280.161
250.621
219.329
186.751
153.355
119.604
85.9397
52.77
20.456
-10.6969
-40.4378
-68.5752
-94.9707
-119.538
-142.23
-163.035
-181.969
-199.067
-214.381
-227.974
-239.915
-250.281
-259.145
-266.584
-272.677
-277.496
-281.112
-283.591
-284.999
-285.373
-284.768
-283.226
-280.768
-277.411
-273.161
-268.012
-261.951
-254.954
-246.985
-238
-227.95
-216.779
-204.429
-190.846
-175.97
-159.748
-142.134
-123.087
-102.583
-80.6128
-57.1949
-32.3698
-6.21138
21.1762
49.6538
79.0845
109.147
139.623
170.219
200.602
230.412
259.269
286.775
312.53
336.14
357.226
375.43
390.435
401.97
409.827
413.855
413.964
410.147
402.532
391.199
376.369
358.312
337.348
313.836
288.169
260.754
232.009
202.341
172.136
141.759
111.538
81.7625
52.6838
24.506
-2.60242
-28.5015
-53.0873
-76.2835
-98.0433
-118.347
-137.192
-154.594
-170.578
-185.18
-198.444
-210.417
-221.145
-230.683
-239.084
-246.39
-252.63
-257.827
-261.986
-265.105
-267.189
-268.208
-268.146
-267.184
-265.177
-262.06
-257.768
-252.232
-245.35
-237.038
-227.215
-215.815
-202.775
-188.028
-171.503
-153.179
-133.001
-110.998
-87.2109
-61.7196
-34.642
-6.10304
24.4908
59.8494
95.1918
130.76
166.299
201.643
236.361
270.03
302.311
332.739
360.881
386.405
408.907
428.077
443.61
455.252
462.831
466.246
465.431
460.679
451.845
438.972
422.241
401.858
378.125
351.314
321.797
290.033
256.413
221.406
185.448
148.981
112.472
76.3562
41.1164
8.78689
-23.9165
-55.5371
-85.6183
-113.936
-140.345
-164.774
-187.172
-207.527
-225.855
-242.179
-256.538
-268.986
-279.577
-288.368
-295.411
-300.751
-304.445
-306.521
-306.99
-305.611
-302.551
-297.819
-291.423
-283.352
-273.529
-261.895
379.124
395.586
408.265
417.043
421.854
422.559
418.929
411.293
399.696
384.277
365.242
342.877
317.53
289.542
259.321
227.265
193.793
159.363
124.405
89.3554
54.63
20.8653
-12.0418
-44.1074
-74.9884
-104.432
-132.276
-158.39
-182.707
-205.187
-225.811
-244.593
-261.559
-276.747
-290.203
-301.975
-312.112
-320.661
-327.664
-333.161
-337.181
-339.738
-340.829
-340.291
-338.29
-334.784
-329.76
-323.206
-315.067
-305.302
-293.894
-280.774
-265.925
-249.3
-230.86
-210.595
-188.509
-164.598
-138.89
-111.466
-82.4156
-51.8843
-20.0579
12.8615
46.592
80.8195
115.223
149.419
183.034
215.672
246.936
276.459
303.881
328.852
351.06
370.213
386.045
398.328
406.871
411.529
412.185
408.804
401.467
390.193
375.147
356.543
334.643
309.756
282.235
252.46
220.829
187.751
153.634
118.88
83.8776
48.9966
14.5871
-19.0301
-51.5663
-82.7632
-112.402
-140.302
-166.322
-190.366
-212.373
-232.322
-250.223
-266.108
-280.028
-292.051
-302.248
-310.693
-317.459
-322.616
-326.229
-328.358
-329.029
-328.302
-326.209
-322.766
-317.983
-311.867
-304.422
-295.647
-285.541
-274.103
-261.326
-247.21
-231.746
-214.926
-196.748
-177.202
-156.286
-134.008
-110.38
-85.4287
-59.1988
-31.7561
-3.19179
26.3784
56.8103
87.8445
119.267
150.8
182.126
212.895
242.732
271.25
298.053
322.748
344.96
364.327
380.522
393.261
402.302
407.461
408.602
405.654
398.692
387.734
372.934
354.505
332.724
307.926
280.495
250.856
219.463
186.787
153.3
119.464
85.725
52.4923
20.1271
-11.0651
-40.8334
-68.9874
-95.3902
-119.957
-142.644
-163.437
-182.358
-199.44
-214.737
-228.312
-240.236
-250.584
-259.43
-266.853
-272.93
-277.733
-281.336
-283.803
-285.199
-285.564
-284.953
-283.405
-280.944
-277.587
-273.338
-268.193
-262.138
-255.148
-247.189
-238.215
-228.178
-217.02
-204.685
-191.116
-176.254
-160.046
-142.444
-123.408
-102.911
-80.9445
-57.5252
-32.6932
-6.52155
20.886
49.3896
78.8642
108.971
139.502
170.161
200.616
230.504
259.443
287.035
312.878
336.575
357.742
376.02
391.089
402.676
410.569
414.616
414.728
410.899
403.246
391.863
376.97
358.838
337.79
314.19
288.433
260.929
232.098
202.35
172.074
141.634
111.36
81.5413
52.4281
24.2231
-2.90603
-28.8192
-53.4133
-76.6125
-98.3706
-118.669
-137.506
-154.899
-170.872
-185.462
-198.714
-210.675
-221.39
-230.916
-239.307
-246.604
-252.839
-258.032
-262.19
-265.308
-267.389
-268.411
-268.358
-267.401
-265.399
-262.291
-258.014
-252.494
-245.631
-237.337
-227.534
-216.153
-203.132
-188.403
-171.893
-153.582
-133.411
-111.412
-87.6228
-62.1252
-35.0337
-6.48382
24.1112
59.5847
94.9685
130.585
166.183
201.598
236.396
270.152
302.525
333.048
361.283
386.897
409.483
428.729
444.327
456.024
463.647
467.083
466.257
461.481
452.618
439.71
422.921
402.466
378.65
351.746
322.133
290.269
256.55
221.448
185.398
148.844
112.25
76.0439
40.7065
8.5014
-24.2824
-55.9545
-86.0623
-114.392
-140.804
-165.23
-187.62
-207.964
-226.279
-242.587
-256.93
-269.363
-279.939
-288.717
-295.747
-301.079
-304.764
-306.833
-307.301
-305.921
-302.863
-298.135
-291.746
-283.684
-273.872
-262.251
379.859
396.398
409.139
417.961
422.797
423.516
419.889
412.215
400.561
385.073
365.953
343.491
318.039
289.94
259.606
227.438
193.855
159.322
124.267
89.1323
54.3509
20.5226
-12.4298
-44.5355
-75.4501
-104.917
-132.773
-158.893
-183.208
-205.68
-226.293
-245.06
-262.01
-277.181
-290.62
-302.376
-312.498
-321.034
-328.027
-333.514
-337.526
-340.079
-341.173
-340.638
-338.64
-335.141
-330.124
-323.581
-315.454
-305.702
-294.308
-281.203
-266.369
-249.758
-231.331
-211.077
-188.999
-165.089
-139.378
-111.943
-82.8726
-52.3111
-20.4431
12.5301
46.3249
80.6264
115.113
149.399
183.11
215.847
247.211
276.833
304.353
329.417
351.712
370.945
386.846
399.186
407.773
412.456
413.123
409.739
402.366
391.046
375.936
357.252
335.262
310.274
282.649
252.765
221.027
187.844
153.627
118.78
83.6918
48.7336
14.2558
-19.4201
-52.0054
-83.2417
-112.91
-140.829
-166.86
-190.906
-212.908
-232.846
-250.731
-266.596
-280.495
-292.496
-302.671
-311.095
-317.843
-322.984
-326.582
-328.696
-329.36
-328.627
-326.529
-323.083
-318.3
-312.184
-304.741
-295.969
-285.867
-274.433
-261.662
-247.55
-232.093
-215.28
-197.109
-177.569
-156.659
-134.384
-110.757
-85.803
-59.5658
-32.1094
-3.52444
26.075
56.5507
87.6356
119.12
150.726
182.134
212.994
242.93
271.55
298.457
323.256
345.566
365.025
381.302
394.11
403.203
408.395
409.551
406.605
399.611
388.607
373.74
355.229
333.351
308.444
280.896
251.137
219.623
186.83
153.232
119.294
85.4659
52.1577
19.7308
-11.5082
-41.3094
-69.4832
-95.8946
-120.461
-143.141
-163.921
-182.825
-199.889
-215.164
-228.719
-240.621
-250.947
-259.772
-267.175
-273.233
-278.019
-281.604
-284.057
-285.439
-285.795
-285.175
-283.62
-281.157
-277.798
-273.55
-268.41
-262.361
-255.381
-247.433
-238.474
-228.452
-217.31
-204.992
-191.439
-176.595
-160.404
-142.816
-123.792
-103.305
-81.3432
-57.9224
-33.0823
-6.89468
20.5365
49.0712
78.5993
108.758
139.355
170.09
200.631
230.612
259.652
287.347
313.295
337.096
358.361
376.729
391.876
403.525
411.461
415.531
415.646
411.801
404.103
392.661
377.692
359.471
338.322
314.616
288.749
261.137
232.204
202.361
171.998
141.483
111.145
81.2746
52.1203
23.8826
-3.27113
-29.2013
-53.8052
-77.0078
-98.7639
-119.056
-137.884
-155.265
-171.226
-185.802
-199.039
-210.984
-221.683
-231.196
-239.575
-246.862
-253.09
-258.278
-262.434
-265.551
-267.63
-268.656
-268.612
-267.659
-265.664
-262.569
-258.308
-252.809
-245.968
-237.697
-227.916
-216.559
-203.561
-188.853
-172.362
-154.065
-133.904
-111.909
-88.1175
-62.6117
-35.5047
-6.9416
23.6533
59.2682
94.7017
130.375
166.043
201.542
236.438
270.299
302.782
333.419
361.765
387.487
410.175
429.512
445.189
456.95
464.624
468.084
467.249
462.45
453.551
440.597
423.738
403.196
379.28
352.265
322.535
290.552
256.715
221.496
185.338
148.679
111.983
75.6694
40.2105
8.16076
-24.7243
-56.4575
-86.5965
-114.94
-141.356
-165.777
-188.158
-208.488
-226.787
-243.077
-257.402
-269.815
-280.373
-289.135
-296.151
-301.472
-305.147
-307.208
-307.675
-306.294
-303.237
-298.515
-292.133
-284.083
-274.284
-262.677
380.717
397.346
410.159
419.033
423.9
424.635
421.005
413.288
401.571
386.002
366.783
344.208
318.633
290.404
259.937
227.638
193.926
159.274
124.106
88.8693
54.0183
20.1263
-12.8814
-45.0357
-75.9899
-105.483
-133.355
-159.48
-183.793
-206.256
-226.855
-245.605
-262.536
-277.687
-291.107
-302.844
-312.948
-321.47
-328.449
-333.926
-337.929
-340.477
-341.573
-341.041
-339.049
-335.556
-330.549
-324.019
-315.905
-306.169
-294.791
-281.704
-266.887
-250.293
-231.881
-211.64
-189.57
-165.663
-139.949
-112.501
-83.4068
-52.8104
-20.8937
12.1418
46.0118
80.3999
114.984
149.375
183.197
216.05
247.531
277.27
304.904
330.076
352.473
371.798
387.782
400.188
408.825
413.54
414.22
410.829
403.417
392.042
376.857
358.081
335.983
310.879
283.13
253.12
221.256
187.951
153.618
118.662
83.4736
48.4252
13.8679
-19.8766
-52.5193
-83.8013
-113.504
-141.446
-167.489
-191.537
-213.533
-233.457
-251.323
-267.165
-281.039
-293.015
-303.165
-311.566
-318.292
-323.412
-326.994
-329.092
-329.746
-329.006
-326.902
-323.453
-318.669
-312.555
-305.114
-296.346
-286.247
-274.818
-262.053
-247.948
-232.498
-215.693
-197.529
-177.997
-157.094
-134.823
-111.197
-86.2406
-59.9949
-32.5227
-3.9137
25.7194
56.2468
87.3904
118.947
150.638
182.143
213.11
243.159
271.899
298.928
323.847
346.274
365.84
382.213
395.101
404.255
409.487
410.661
407.714
400.686
389.626
374.682
356.074
334.082
309.048
281.365
251.464
219.809
186.88
153.152
119.095
85.1615
51.7654
19.2666
-12.0271
-41.8664
-70.0632
-96.4845
-121.05
-143.721
-164.487
-183.371
-200.412
-215.664
-229.194
-241.071
-251.371
-260.172
-267.552
-273.587
-278.352
-281.918
-284.353
-285.719
-286.063
-285.434
-283.872
-281.404
-278.044
-273.798
-268.663
-262.622
-255.653
-247.719
-238.776
-228.771
-217.648
-205.35
-191.818
-176.993
-160.821
-143.251
-124.242
-103.765
-81.8091
-58.3869
-33.5374
-7.3312
20.1276
48.6979
78.2892
108.508
139.182
170.007
200.647
230.738
259.894
287.711
313.782
337.704
359.084
377.557
392.795
404.517
412.504
416.6
416.718
412.855
405.106
393.594
378.536
360.208
338.942
315.111
289.117
261.38
232.326
202.371
171.908
141.306
110.894
80.962
51.7599
23.4842
-3.69809
-29.648
-54.2633
-77.4699
-99.2234
-119.508
-138.325
-155.693
-171.638
-186.198
-199.418
-211.344
-222.026
-231.523
-239.888
-247.162
-253.382
-258.566
-262.718
-265.835
-267.913
-268.942
-268.907
-267.96
-265.973
-262.892
-258.651
-253.175
-246.36
-238.117
-228.363
-217.032
-204.061
-189.378
-172.909
-154.629
-134.48
-112.489
-88.6955
-63.1788
-36.0556
-7.47702
23.1158
58.9002
94.3928
130.128
165.877
201.476
236.486
270.468
303.082
333.851
362.327
388.176
410.982
430.426
446.196
458.031
465.762
469.251
468.41
463.585
454.645
441.633
424.692
404.048
380.015
352.871
323.005
290.882
256.906
221.552
185.267
148.486
111.673
75.2333
39.6266
7.76582
-25.2439
-57.0474
-87.2215
-115.581
-142
-166.416
-188.786
-209.1
-227.38
-243.649
-257.951
-270.343
-280.88
-289.623
-296.622
-301.929
-305.593
-307.645
-308.11
-306.728
-303.674
-298.958
-292.586
-284.548
-274.764
-263.175
381.699
398.429
411.326
420.261
425.164
425.915
422.278
414.515
402.727
387.065
367.733
345.028
319.312
290.934
260.316
227.866
194.007
159.217
123.919
88.5655
53.6286
19.6788
-13.3964
-45.6085
-76.6083
-106.132
-134.022
-160.153
-184.462
-206.915
-227.498
-246.229
-263.138
-278.266
-291.663
-303.378
-313.463
-321.967
-328.932
-334.397
-338.391
-340.933
-342.03
-341.502
-339.515
-336.029
-331.035
-324.52
-316.42
-306.702
-295.343
-282.276
-267.479
-250.905
-232.509
-212.284
-190.224
-166.32
-140.602
-113.14
-84.0187
-53.3829
-21.4101
11.6961
45.6523
80.1394
114.835
149.346
183.297
216.282
247.897
277.769
305.533
330.83
353.343
372.774
388.851
401.335
410.03
414.781
415.475
412.074
404.621
393.181
377.91
359.028
336.808
311.57
283.681
253.525
221.517
188.073
153.605
118.525
83.2224
48.0709
13.4228
-20.4002
-53.1084
-84.4428
-114.184
-142.153
-168.21
-192.26
-214.249
-234.157
-252
-267.817
-281.662
-293.609
-303.73
-312.103
-318.804
-323.902
-327.464
-329.544
-330.186
-329.438
-327.328
-323.876
-319.092
-312.979
-305.541
-296.776
-286.682
-275.259
-262.5
-248.403
-232.961
-216.166
-198.011
-178.487
-157.592
-135.326
-111.702
-86.7417
-60.4864
-32.9964
-4.35994
25.3108
55.8984
87.1084
118.747
150.536
182.151
213.24
243.421
272.297
299.465
324.523
347.082
366.773
383.256
396.236
405.46
410.737
411.933
408.982
401.916
390.793
375.761
357.041
334.919
309.739
281.899
251.837
220.021
186.934
153.058
118.865
84.811
51.3144
18.7335
-12.6226
-42.5051
-70.728
-97.1603
-121.725
-144.386
-165.134
-183.996
-201.011
-216.235
-229.736
-241.584
-251.856
-260.629
-267.982
-273.992
-278.732
-282.277
-284.692
-286.039
-286.37
-285.73
-284.159
-281.687
-278.325
-274.082
-268.951
-262.92
-255.964
-248.045
-239.121
-229.136
-218.035
-205.759
-192.25
-177.449
-161.299
-143.749
-124.757
-104.292
-82.3423
-58.919
-34.0589
-7.83158
19.6588
48.2689
77.9335
108.221
138.983
169.909
200.664
230.88
260.17
288.126
314.338
338.399
359.911
378.504
393.847
405.652
413.698
417.825
417.946
414.059
406.254
394.662
379.501
361.052
339.652
315.678
289.537
261.656
232.464
202.381
171.804
141.101
110.604
80.6031
51.3463
23.0275
-4.18735
-30.1597
-54.788
-77.9989
-99.7493
-120.025
-138.83
-156.182
-172.11
-186.651
-199.851
-211.757
-222.418
-231.897
-240.244
-247.504
-253.716
-258.895
-263.043
-266.16
-268.236
-269.27
-269.245
-268.303
-266.326
-263.262
-259.043
-253.594
-246.809
-238.596
-228.873
-217.573
-204.632
-189.978
-173.535
-155.275
-135.14
-113.154
-89.357
-63.8265
-36.6864
-8.09086
22.4971
58.4824
94.0346
129.844
165.685
201.398
236.539
270.661
303.423
334.344
362.97
388.963
411.905
431.472
447.347
459.267
467.061
470.583
469.739
464.887
455.899
442.821
425.784
405.023
380.855
353.564
323.541
291.259
257.123
221.615
185.184
148.265
111.32
74.7365
38.9532
7.31699
-25.8438
-57.7256
-87.9383
-116.315
-142.737
-167.147
-189.504
-209.8
-228.058
-244.303
-258.58
-270.946
-281.459
-290.18
-297.16
-302.451
-306.102
-308.145
-308.608
-307.223
-304.173
-299.464
-293.102
-285.079
-275.313
-263.744
382.805
399.65
412.641
421.645
426.59
427.356
423.71
415.896
404.028
388.262
368.802
345.951
320.076
291.529
260.74
228.12
194.096
159.152
123.707
88.2198
53.1811
19.179
-13.9749
-46.2544
-77.306
-106.865
-134.773
-160.911
-185.216
-207.657
-228.223
-246.931
-263.815
-278.917
-292.288
-303.98
-314.042
-322.526
-329.475
-334.926
-338.91
-341.446
-342.543
-342.019
-340.04
-336.562
-331.581
-325.082
-316.999
-307.302
-295.963
-282.92
-268.146
-251.593
-233.217
-213.008
-190.961
-167.06
-141.339
-113.861
-84.7091
-54.0292
-21.9934
11.1924
45.2457
79.8444
114.665
149.312
183.407
216.542
248.307
278.33
306.241
331.678
354.322
373.872
390.055
402.627
411.387
416.18
416.89
413.477
405.978
394.466
379.097
360.095
337.737
312.348
284.299
253.98
221.81
188.207
153.589
118.368
82.9375
47.6697
12.9199
-20.9916
-53.7735
-85.1667
-114.952
-142.95
-169.022
-193.075
-215.055
-234.945
-252.764
-268.55
-282.364
-294.277
-304.365
-312.708
-319.381
-324.453
-327.993
-330.054
-330.682
-329.923
-327.807
-324.352
-319.567
-313.456
-306.021
-297.26
-287.172
-275.754
-263.003
-248.914
-233.482
-216.697
-198.553
-179.039
-158.152
-135.893
-112.27
-87.3067
-61.0405
-33.531
-4.86393
24.8483
55.5047
86.7887
118.52
150.418
182.158
213.385
243.713
272.744
300.07
325.283
347.993
367.823
384.43
397.514
406.818
412.147
413.366
410.41
403.302
392.108
376.976
358.131
335.862
310.517
282.5
252.256
220.258
186.993
152.95
118.603
84.4137
50.804
18.1305
-13.2956
-43.2264
-71.4782
-97.9226
-122.486
-145.135
-165.863
-184.699
-201.686
-216.878
-230.347
-242.163
-252.402
-261.144
-268.466
-274.447
-279.161
-282.681
-285.073
-286.4
-286.714
-286.062
-284.482
-282.005
-278.641
-274.4
-269.276
-263.255
-256.313
-248.412
-239.508
-229.546
-218.47
-206.22
-192.737
-177.962
-161.837
-144.31
-125.337
-104.887
-82.9437
-59.5191
-34.6472
-8.39652
19.1299
47.7845
77.5304
107.895
138.756
169.797
200.681
231.039
260.479
288.592
314.963
339.18
360.842
379.572
395.032
406.932
415.044
419.206
419.331
415.416
407.549
395.865
380.588
362.002
340.45
316.315
290.008