/*--------------------------------*- C++ -*----------------------------------*\
| =========                 |                                                 |
| \\      /  F ield         | OpenFOAM: The Open Source CFD Toolbox           |
|  \\    /   O peration     | Version:  3.0.1                                 |
|   \\  /    A nd           | Web:      www.OpenFOAM.org                      |
|    \\/     M anipulation  |                                                 |
\*---------------------------------------------------------------------------*/
FoamFile
{
    version     2.0;
    format      ascii;
    class       volScalarField;
    location    "65.6";
    object      p_rgh;
}
// * * * * * * * * * * * * * * * * * * * * * * * * * * * * * * * * * * * * * //

dimensions      [1 -1 -2 0 0 0 0];

internalField   nonuniform List<scalar> 
21420
(
-316.08
-313.3
-309.137
-303.558
-296.526
-287.971
-277.84
-266.05
-252.552
-237.306
-220.259
-201.372
-180.628
-158.02
-133.557
-107.279
-79.2384
-49.4959
-18.1857
10.9183
44.5698
78.9153
113.687
148.634
183.397
217.61
250.853
282.695
312.754
340.608
365.856
388.161
407.208
422.728
434.499
442.354
446.162
445.769
441.313
432.893
420.561
404.548
385.083
362.433
336.953
308.986
278.897
247.106
214.007
179.997
145.474
110.814
76.4261
42.7212
10.3324
-21.0947
-51.5911
-80.8997
-108.785
-135.1
-159.741
-182.66
-203.813
-223.195
-240.808
-256.658
-270.767
-283.15
-293.826
-302.822
-310.139
-315.791
-319.793
-322.112
-322.742
-321.776
-319.18
-314.924
-308.987
-301.357
-292.035
-281.024
-268.325
-253.935
-237.848
-220.083
-200.653
-179.576
-156.877
-132.581
-106.737
-79.4091
-50.6792
-20.6573
10.5241
42.6624
75.5229
108.849
142.346
175.686
208.51
240.448
271.114
300.121
327.085
351.634
373.418
392.109
407.414
419.078
426.891
430.668
430.332
425.84
417.254
404.597
388.062
367.87
344.312
317.724
288.495
257.046
223.817
189.264
153.84
117.99
82.136
46.6747
11.97
-21.6672
-53.9599
-84.6799
-113.645
-140.717
-165.8
-188.839
-209.81
-228.723
-245.612
-260.527
-273.535
-284.71
-294.128
-301.862
-307.979
-312.539
-315.608
-317.224
-317.406
-316.182
-313.597
-309.643
-304.321
-297.626
-289.544
-280.061
-269.155
-256.793
-242.947
-227.59
-210.687
-192.211
-172.142
-150.479
-127.228
-102.418
-76.0988
-48.3522
-19.2868
10.9564
42.2074
74.2599
106.789
139.521
172.12
204.218
235.411
265.281
293.397
319.328
342.653
362.981
379.954
393.257
402.637
407.907
408.878
405.656
398.177
386.537
370.935
351.612
328.884
303.13
274.779
244.29
212.136
178.793
144.722
110.357
76.1037
42.3352
9.37972
-22.4763
-52.9904
-81.968
-109.262
-134.767
-158.428
-180.22
-200.151
-218.253
-234.572
-249.164
-262.089
-273.404
-283.161
-291.417
-298.218
-303.604
-307.61
-310.285
-311.633
-311.647
-310.393
-307.864
-304.05
-298.937
-292.512
-284.764
-275.665
-265.189
-253.31
-240.003
-225.233
-208.974
-191.208
-171.921
-151.107
-128.778
-104.964
-79.724
-53.1414
-25.3288
3.57659
33.405
63.9722
95.0917
126.387
157.61
188.439
218.518
247.463
274.875
300.348
323.473
343.856
361.127
374.951
385.044
391.185
393.167
391.031
384.699
374.259
359.876
341.78
320.274
295.72
268.522
239.122
207.99
175.597
142.397
108.843
76.1916
43.3115
11.2306
-19.765
-49.4348
-77.5994
-104.123
-128.915
-151.92
-173.126
-192.528
-210.146
-226.011
-240.157
-252.641
-263.526
-272.888
-280.808
-287.361
-292.629
-296.694
-299.629
-301.474
-302.26
-302.043
-300.849
-298.618
-295.311
-290.876
-285.225
-278.259
-269.878
-259.961
-248.399
-235.082
-219.915
-202.841
-183.817
-162.82
-139.888
-115.097
-88.5563
-60.4371
-30.933
-0.287892
31.1167
62.9761
95.0813
127.008
158.385
188.802
217.863
245.228
270.528
293.42
313.628
330.888
344.979
355.742
363.063
366.848
367.013
363.647
356.872
346.768
333.52
317.35
298.496
277.226
253.808
228.524
201.681
173.58
144.531
114.88
84.9698
55.2586
27.8377
0.235074
-27.3556
-54.3051
-80.257
-316.133
-313.354
-309.193
-303.616
-296.587
-288.034
-277.907
-266.119
-252.624
-237.381
-220.337
-201.452
-180.71
-158.102
-133.64
-107.362
-79.321
-49.5773
-18.2605
10.86
44.5205
78.8736
113.655
148.615
183.393
217.622
250.883
282.744
312.821
340.693
365.958
388.278
407.34
422.87
434.65
442.511
446.33
445.926
441.465
433.04
420.699
404.675
385.195
362.53
337.033
309.048
278.942
247.133
214.017
179.991
145.453
110.778
76.3747
42.6576
10.28
-21.1547
-51.6602
-80.9745
-108.863
-135.179
-159.821
-182.74
-203.892
-223.272
-240.883
-256.732
-270.839
-283.221
-293.896
-302.89
-310.207
-315.859
-319.86
-322.18
-322.809
-321.845
-319.25
-314.994
-309.058
-301.429
-292.108
-281.098
-268.4
-254.01
-237.925
-220.161
-200.732
-179.656
-156.957
-132.661
-106.816
-79.4871
-50.7547
-20.7291
10.4588
42.6043
75.474
108.811
142.321
175.674
208.515
240.468
271.152
300.176
327.157
351.723
373.522
392.228
407.546
419.219
427.04
430.829
430.485
425.991
417.401
404.736
388.189
367.982
344.407
317.8
288.551
257.082
223.834
189.261
153.819
117.952
82.0838
46.6098
11.8943
-21.7517
-54.0511
-84.7759
-113.744
-140.818
-165.901
-188.938
-209.908
-228.818
-245.704
-260.615
-273.619
-284.79
-294.205
-301.936
-308.05
-312.608
-315.675
-317.289
-317.469
-316.246
-313.66
-309.706
-304.385
-297.691
-289.61
-280.128
-269.223
-256.863
-243.02
-227.664
-210.763
-192.289
-172.222
-150.559
-127.309
-102.498
-76.1776
-48.4282
-19.359
10.8899
42.1481
74.2101
106.751
139.495
172.11
204.223
235.435
265.323
293.459
319.408
342.752
363.098
380.085
393.401
402.79
408.065
409.046
405.81
398.329
386.681
371.066
351.727
328.982
303.208
274.836
244.326
212.152
178.79
144.701
110.32
76.0526
42.2721
9.30686
-22.5569
-53.0767
-82.058
-109.354
-134.86
-158.519
-180.309
-200.237
-218.336
-234.652
-249.241
-262.162
-273.474
-283.229
-291.483
-298.282
-303.666
-307.671
-310.345
-311.69
-311.704
-310.451
-307.922
-304.108
-298.996
-292.573
-284.826
-275.728
-265.253
-253.376
-240.071
-225.303
-209.045
-191.281
-171.995
-151.182
-128.853
-105.039
-79.797
-53.2114
-25.3946
3.51596
33.3508
63.9254
95.056
126.362
157.598
188.441
218.536
247.499
274.93
300.42
323.564
343.965
361.252
375.089
385.192
391.339
393.331
391.185
384.852
374.405
360.01
341.9
320.377
295.804
268.587
239.167
208.015
175.604
142.388
108.819
76.1493
43.2592
11.1698
-19.8326
-49.5073
-77.6754
-104.201
-128.994
-151.999
-173.203
-192.604
-210.219
-226.082
-240.225
-252.705
-263.588
-272.946
-280.863
-287.412
-292.677
-296.74
-299.672
-301.515
-302.3
-302.084
-300.89
-298.66
-295.356
-290.924
-285.277
-278.316
-269.94
-260.027
-248.47
-235.158
-219.995
-202.924
-183.902
-162.905
-139.973
-115.179
-88.6343
-60.5092
-30.9973
-0.342532
31.0735
62.9447
95.0641
127.006
158.4
188.833
217.911
245.291
270.607
293.514
313.735
331.006
345.106
355.875
363.198
366.99
367.15
363.781
356.999
346.886
333.628
317.447
298.58
277.298
253.867
228.568
201.713
173.598
144.537
114.873
84.951
55.2292
27.8035
0.189371
-27.4101
-54.3671
-80.325
-316.239
-313.463
-309.305
-303.733
-296.708
-288.161
-278.04
-266.258
-252.769
-237.531
-220.492
-201.611
-180.872
-158.268
-133.806
-107.528
-79.4859
-49.7402
-18.4093
10.7426
44.4222
78.7902
113.592
148.577
183.384
217.647
250.943
282.841
312.954
340.864
366.163
388.514
407.603
423.155
434.952
442.825
446.667
446.238
441.772
433.335
420.976
404.928
385.42
362.724
337.193
309.173
279.031
247.187
214.037
179.979
145.41
110.706
76.2718
42.5293
10.1767
-21.2744
-51.7983
-81.1239
-109.019
-135.338
-159.981
-182.898
-204.048
-223.425
-241.033
-256.878
-270.981
-283.36
-294.033
-303.025
-310.34
-315.99
-319.991
-322.309
-322.939
-321.979
-319.382
-315.128
-309.193
-301.564
-292.245
-281.237
-268.54
-254.152
-238.068
-220.305
-200.878
-179.803
-157.104
-132.808
-106.962
-79.6296
-50.8918
-20.8586
10.3424
42.5026
75.3908
108.75
142.285
175.667
208.538
240.524
271.241
300.3
327.315
351.914
373.744
392.479
407.822
419.516
427.352
431.162
430.802
426.308
417.708
405.027
388.455
368.219
344.609
317.965
288.677
257.168
223.881
189.27
153.792
117.892
81.9948
46.4956
11.7588
-21.9044
-54.217
-84.9514
-113.925
-141.002
-166.085
-189.12
-210.086
-228.991
-245.869
-260.773
-273.769
-284.934
-294.341
-302.066
-308.174
-312.728
-315.792
-317.403
-317.577
-316.356
-313.769
-309.815
-304.495
-297.802
-289.723
-280.244
-269.342
-256.986
-243.146
-227.795
-210.898
-192.428
-172.364
-150.703
-127.454
-102.642
-76.3185
-48.564
-19.487
10.7729
42.0455
74.1261
106.689
139.459
172.103
204.249
235.496
265.422
293.596
319.583
342.964
363.344
380.361
393.702
403.109
408.394
409.391
406.134
398.646
386.982
371.341
351.971
329.189
303.376
274.962
244.41
212.195
178.795
144.671
110.258
75.9637
42.1595
9.17473
-22.7044
-53.2355
-82.2242
-109.524
-135.03
-158.687
-180.473
-200.395
-218.488
-234.797
-249.38
-262.295
-273.601
-283.351
-291.6
-298.395
-303.776
-307.779
-310.451
-311.791
-311.806
-310.554
-308.025
-304.211
-299.1
-292.68
-284.935
-275.84
-265.368
-253.495
-240.192
-225.428
-209.174
-191.413
-172.13
-151.318
-128.99
-105.174
-79.929
-53.3376
-25.5122
3.40846
33.2561
63.8452
94.9982
126.326
157.587
188.459
218.586
247.583
275.05
300.578
323.758
344.193
361.511
375.376
385.499
391.659
393.668
391.505
385.168
374.705
360.287
342.147
320.59
295.979
268.722
239.262
208.07
175.622
142.373
108.776
76.0681
43.1582
11.0514
-19.9648
-49.6496
-77.8249
-104.354
-129.149
-152.154
-173.356
-192.754
-210.365
-226.222
-240.36
-252.834
-263.709
-273.061
-280.971
-287.513
-292.772
-296.829
-299.757
-301.596
-302.379
-302.165
-300.971
-298.745
-295.445
-291.02
-285.381
-278.429
-270.063
-260.16
-248.612
-235.309
-220.154
-203.089
-184.071
-163.076
-140.142
-115.343
-88.79
-60.6531
-31.1254
-0.451491
30.9874
62.8823
95.0301
127.002
158.429
188.895
218.005
245.419
270.766
293.702
313.949
331.243
345.36
356.142
363.47
367.266
367.43
364.052
357.255
347.123
333.845
317.64
298.749
277.441
253.983
228.658
201.777
173.635
144.548
114.859
84.9134
55.1704
27.7348
0.098054
-27.519
-54.4909
-80.4611
-316.398
-313.627
-309.474
-303.908
-296.89
-288.352
-278.239
-266.466
-252.985
-237.757
-220.725
-201.851
-181.117
-158.515
-134.055
-107.778
-79.7335
-49.9852
-18.6362
10.5698
44.2751
78.6649
113.497
148.521
183.372
217.684
251.033
282.986
313.155
341.119
366.47
388.868
407.997
423.584
435.407
443.296
447.158
446.716
442.236
433.777
421.391
405.308
385.758
363.014
337.433
309.36
279.164
247.268
214.067
179.961
145.347
110.599
76.1175
42.3336
10.0248
-21.4543
-52.0057
-81.3483
-109.253
-135.576
-160.22
-183.136
-204.282
-223.655
-241.258
-257.097
-271.195
-283.569
-294.238
-303.227
-310.539
-316.188
-320.186
-322.501
-323.137
-322.178
-319.582
-315.329
-309.395
-301.768
-292.451
-281.445
-268.75
-254.364
-238.281
-220.521
-201.096
-180.022
-157.324
-133.027
-107.179
-79.8424
-51.0965
-21.0514
10.1686
42.3512
75.2675
108.66
142.233
175.657
208.574
240.61
271.378
300.487
327.554
352.203
374.08
392.858
408.238
419.963
427.822
431.655
431.289
426.79
418.173
405.466
388.858
368.578
344.916
318.216
288.87
257.3
223.953
189.286
153.754
117.805
81.8639
46.3269
11.5581
-22.1309
-54.4634
-85.212
-114.195
-141.276
-166.36
-189.391
-210.35
-229.246
-246.115
-261.008
-273.993
-285.146
-294.543
-302.258
-308.358
-312.906
-315.964
-317.57
-317.738
-316.519
-313.931
-309.977
-304.658
-297.966
-289.891
-280.416
-269.518
-257.168
-243.335
-227.989
-211.099
-192.633
-172.574
-150.917
-127.669
-102.855
-76.5282
-48.7659
-19.6772
10.5991
41.893
74.0023
106.598
139.407
172.095
204.29
235.59
265.572
293.803
319.848
343.284
363.715
380.778
394.156
403.59
408.891
409.906
406.628
399.125
387.435
371.756
352.339
329.503
303.63
275.153
244.538
212.263
178.806
144.629
110.169
75.8325
41.9928
8.97862
-22.9236
-53.4718
-82.4715
-109.776
-135.284
-158.938
-180.717
-200.631
-218.714
-235.013
-249.586
-262.492
-273.789
-283.532
-291.774
-298.563
-303.939
-307.939
-310.606
-311.939
-311.959
-310.706
-308.176
-304.364
-299.255
-292.839
-285.098
-276.006
-265.539
-253.671
-240.374
-225.614
-209.366
-191.61
-172.33
-151.521
-129.194
-105.376
-80.1254
-53.5252
-25.6871
3.24883
33.1152
63.7266
94.9135
126.274
157.572
188.488
218.663
247.712
275.233
300.816
324.051
344.538
361.903
375.807
385.962
392.141
394.171
391.991
385.644
375.157
360.703
342.52
320.911
296.243
268.925
239.405
208.154
175.65
142.351
108.712
75.9461
43.0066
10.8736
-20.1632
-49.8632
-78.0493
-104.585
-129.383
-152.387
-173.586
-192.979
-210.583
-226.433
-240.562
-253.027
-263.892
-273.233
-281.133
-287.665
-292.915
-296.964
-299.884
-301.716
-302.498
-302.286
-301.093
-298.871
-295.578
-291.163
-285.536
-278.599
-270.247
-260.359
-248.826
-235.536
-220.393
-203.337
-184.325
-163.332
-140.395
-115.589
-89.0238
-60.8691
-31.3179
-0.615169
30.8578
62.7885
94.9789
126.997
158.472
188.988
218.148
245.61
271.005
293.985
314.271
331.598
345.742
356.542
363.879
367.675
367.854
364.457
357.638
347.479
334.17
317.931
299.002
277.655
254.158
228.792
201.872
173.691
144.565
114.838
84.8568
55.0819
27.6316
-0.0389616
-27.6826
-54.6769
-80.6654
-316.61
-313.844
-309.699
-304.142
-297.133
-288.606
-278.505
-266.743
-253.275
-238.057
-221.035
-202.17
-181.443
-158.846
-134.388
-108.11
-80.0638
-50.313
-18.9474
10.3468
44.0793
78.4974
113.37
148.445
183.355
217.733
251.153
283.179
313.423
341.46
366.879
389.34
408.524
424.155
436.012
443.924
447.796
447.361
442.86
434.369
421.946
405.815
386.209
363.402
337.753
309.609
279.342
247.375
214.107
179.936
145.262
110.455
75.9117
42.0689
9.82565
-21.6946
-52.2831
-81.648
-109.566
-135.895
-160.54
-183.453
-204.595
-223.962
-241.557
-257.39
-271.48
-283.848
-294.511
-303.496
-310.805
-316.452
-320.446
-322.758
-323.401
-322.443
-319.848
-315.597
-309.664
-302.039
-292.726
-281.723
-269.031
-254.646
-238.567
-220.809
-201.387
-180.315
-157.617
-133.32
-107.47
-80.1263
-51.3697
-21.3083
9.93634
42.1495
75.1033
108.541
142.165
175.645
208.623
240.724
271.56
300.738
327.873
352.589
374.529
393.364
408.795
420.561
428.45
432.3
431.948
427.438
418.794
406.053
389.397
369.057
345.326
318.552
289.127
257.477
224.051
189.307
153.704
117.69
81.6897
46.1022
11.2907
-22.4327
-54.7917
-85.5592
-114.554
-141.641
-166.725
-189.752
-210.702
-229.587
-246.442
-261.32
-274.29
-285.428
-294.812
-302.514
-308.603
-313.142
-316.192
-317.79
-317.955
-316.735
-314.146
-310.192
-304.874
-298.185
-290.114
-280.645
-269.753
-257.41
-243.586
-228.249
-211.365
-192.907
-172.855
-151.202
-127.955
-103.14
-76.8076
-49.0351
-19.9303
10.3676
41.6891
73.8376
106.477
139.337
172.084
204.344
235.715
265.772
294.08
320.202
343.712
364.211
381.334
394.762
404.233
409.555
410.586
407.293
399.766
388.04
372.311
352.831
329.922
303.969
275.409
244.71
212.354
178.82
144.573
110.049
75.6577
41.7705
8.71714
-23.2158
-53.7866
-82.8011
-110.113
-135.622
-159.271
-181.042
-200.945
-219.016
-235.301
-249.861
-262.755
-274.04
-283.772
-292.006
-298.787
-304.156
-308.151
-310.813
-312.14
-312.161
-310.907
-308.378
-304.567
-299.462
-293.05
-285.314
-276.228
-265.766
-253.906
-240.615
-225.862
-209.622
-191.871
-172.597
-151.792
-129.465
-105.644
-80.387
-53.7752
-25.9205
3.03607
32.9274
63.5682
94.8013
126.204
157.552
188.526
218.765
247.884
275.477
301.134
324.442
344.999
362.427
376.384
386.579
392.785
394.835
392.646
386.28
375.761
361.26
343.018
321.34
296.595
269.197
239.595
208.265
175.687
142.322
108.626
75.7825
42.8041
10.6362
-20.4282
-50.1486
-78.3489
-104.893
-129.694
-152.697
-173.893
-193.28
-210.875
-226.714
-240.832
-253.284
-264.136
-273.463
-281.348
-287.868
-293.104
-297.143
-300.053
-301.877
-302.658
-302.447
-301.255
-299.039
-295.756
-291.354
-285.744
-278.825
-270.494
-260.625
-249.11
-235.839
-220.711
-203.668
-184.663
-163.673
-140.734
-115.918
-89.3359
-61.1574
-31.5748
-0.833835
30.6842
62.663
94.9104
126.99
158.529
189.111
218.337
245.865
271.322
294.361
314.699
332.071
346.251
357.077
364.427
368.224
368.414
364.999
358.149
347.954
334.603
318.319
299.34
277.941
254.39
228.971
201.998
173.765
144.588
114.81
84.7811
54.9636
27.4937
-0.221743
-27.9008
-54.9251
-80.9382
-316.876
-314.116
-309.979
-304.434
-297.437
-288.923
-278.837
-267.089
-253.636
-238.433
-221.424
-202.568
-181.851
-159.259
-134.804
-108.526
-80.477
-50.7243
-19.3475
10.0778
43.8348
78.2871
113.211
148.349
183.333
217.793
251.302
283.42
313.757
341.886
367.391
389.93
409.182
424.87
436.77
444.71
448.59
448.163
443.643
435.111
422.64
406.45
386.772
363.886
338.153
309.92
279.564
247.509
214.157
179.905
145.155
110.275
75.6546
41.7355
9.57855
-21.9961
-52.6308
-82.0233
-109.957
-136.293
-160.939
-183.85
-204.986
-224.345
-241.932
-257.755
-271.837
-284.196
-294.854
-303.833
-311.137
-316.781
-320.77
-323.081
-323.731
-322.774
-320.18
-315.931
-310
-302.379
-293.07
-282.071
-269.382
-255
-238.924
-221.17
-201.751
-180.682
-157.984
-133.687
-107.833
-80.4818
-51.7117
-21.6297
9.64492
41.8967
74.8977
108.391
142.079
175.63
208.685
240.867
271.787
301.052
328.273
353.072
375.091
393.998
409.492
421.31
429.236
433.106
432.771
428.251
419.574
406.788
390.071
369.657
345.84
318.972
289.448
257.698
224.173
189.333
153.641
117.544
81.4715
45.8206
10.9559
-22.8106
-55.2027
-85.9938
-115.004
-142.097
-167.182
-190.203
-211.143
-230.013
-246.851
-261.71
-274.662
-285.781
-295.148
-302.834
-308.909
-313.437
-316.476
-318.065
-318.228
-317.004
-314.414
-310.46
-305.145
-298.459
-290.394
-280.932
-270.047
-257.713
-243.899
-228.572
-211.699
-193.25
-173.206
-151.559
-128.314
-103.496
-77.1574
-49.3721
-20.2473
10.0773
41.4331
73.6317
106.325
139.25
172.07
204.411
235.871
266.022
294.427
320.644
344.247
364.832
382.031
395.521
405.038
410.386
411.431
408.13
400.57
388.798
373.005
353.446
330.446
304.393
275.729
244.925
212.466
178.837
144.502
109.899
75.4384
41.4919
8.38947
-23.5819
-54.1809
-83.2139
-110.535
-136.045
-159.689
-181.448
-201.337
-219.392
-235.661
-250.205
-263.083
-274.353
-284.073
-292.296
-299.066
-304.428
-308.416
-311.07
-312.392
-312.413
-311.159
-308.63
-304.821
-299.72
-293.314
-285.584
-276.504
-266.051
-254.199
-240.917
-226.173
-209.941
-192.199
-172.931
-152.13
-129.804
-105.98
-80.7145
-54.088
-26.2129
2.7697
32.6923
63.3686
94.6613
126.116
157.527
188.573
218.893
248.098
275.783
301.532
324.931
345.575
363.082
377.106
387.352
393.592
395.66
393.47
387.078
376.517
361.957
343.64
321.876
297.035
269.536
239.833
208.403
175.731
142.284
108.518
75.5775
42.5505
10.3388
-20.7601
-50.5059
-78.724
-105.279
-130.084
-153.086
-174.277
-193.656
-211.239
-227.066
-241.169
-253.605
-264.441
-273.75
-281.618
-288.121
-293.342
-297.366
-300.264
-302.079
-302.859
-302.648
-301.458
-299.248
-295.978
-291.593
-286.003
-279.108
-270.801
-260.956
-249.466
-236.218
-221.109
-204.081
-185.087
-164.1
-141.157
-116.329
-89.7266
-61.5185
-31.8964
-1.10783
30.4659
62.5056
94.8242
126.98
158.6
189.265
218.574
246.183
271.72
294.832
315.236
332.664
346.888
357.745
365.113
368.913
369.107
365.678
358.788
348.547
335.144
318.804
299.762
278.298
254.681
229.195
202.156
173.858
144.615
114.775
84.686
54.8152
27.3211
-0.450387
-28.174
-55.236
-81.2798
-317.194
-314.442
-310.316
-304.784
-297.801
-289.304
-279.234
-267.505
-254.071
-238.884
-221.89
-203.047
-182.34
-159.755
-135.304
-109.025
-80.973
-51.2194
-19.8404
9.76576
43.5412
78.0333
113.018
148.233
183.305
217.865
251.48
283.71
314.158
342.397
368.006
390.639
409.973
425.729
437.681
445.653
449.543
449.123
444.582
436.004
423.474
407.212
387.448
364.468
338.632
310.293
279.83
247.67
214.216
179.867
145.026
110.059
75.3464
41.3332
9.28308
-22.3597
-53.0497
-82.4749
-110.427
-136.771
-161.419
-184.326
-205.455
-224.805
-242.382
-258.194
-272.265
-284.615
-295.264
-304.237
-311.536
-317.175
-321.16
-323.471
-324.125
-323.17
-320.579
-316.332
-310.404
-302.787
-293.483
-282.489
-269.804
-255.424
-239.352
-221.602
-202.187
-181.121
-158.424
-134.127
-108.27
-80.9091
-52.1232
-22.0155
9.29385
41.5925
74.6502
108.21
141.974
175.61
208.758
241.038
272.06
301.428
328.752
353.652
375.766
394.76
410.329
422.209
430.182
434.076
433.758
429.227
420.511
407.671
390.881
370.377
346.456
319.475
289.833
257.963
224.318
189.364
153.564
117.369
81.2083
45.4815
10.5528
-23.2653
-55.6971
-86.5164
-115.544
-142.646
-167.731
-190.745
-211.672
-230.525
-247.342
-262.179
-275.108
-286.205
-295.551
-303.218
-309.276
-313.791
-316.818
-318.397
-318.555
-317.328
-314.736
-310.783
-305.469
-298.788
-290.729
-281.275
-270.4
-258.077
-244.276
-228.961
-212.1
-193.662
-173.628
-151.987
-128.744
-103.925
-77.5778
-49.7771
-20.6289
9.72792
41.124
73.384
106.142
139.143
172.051
204.491
236.058
266.322
294.842
321.175
344.889
365.578
382.868
396.433
406.006
411.387
412.444
409.136
401.536
389.708
373.839
354.186
331.075
304.902
276.112
245.182
212.601
178.856
144.415
109.718
75.1741
41.1563
7.99502
-24.0225
-54.6554
-83.7102
-111.043
-136.554
-160.19
-181.937
-201.809
-219.844
-236.093
-250.617
-263.476
-274.729
-284.434
-292.643
-299.402
-304.753
-308.734
-311.378
-312.696
-312.716
-311.46
-308.932
-305.126
-300.03
-293.631
-285.908
-276.836
-266.393
-254.551
-241.279
-226.546
-210.325
-192.592
-173.332
-152.536
-130.212
-106.384
-81.1082
-54.4641
-26.5646
2.44939
32.4099
63.127
94.4934
126.009
157.496
188.629
219.045
248.354
276.148
302.009
325.518
346.266
363.868
377.973
388.282
394.562
396.65
394.461
388.037
377.425
362.794
344.388
322.519
297.563
269.943
240.117
208.568
175.784
142.237
108.387
75.3314
42.2455
9.98104
-21.1592
-50.9356
-79.175
-105.742
-130.552
-153.553
-174.738
-194.107
-211.677
-227.488
-241.574
-253.991
-264.806
-274.095
-281.942
-288.424
-293.626
-297.634
-300.517
-302.322
-303.101
-302.887
-301.701
-299.499
-296.244
-291.879
-286.314
-279.447
-271.17
-261.355
-249.894
-236.672
-221.587
-204.578
-185.597
-164.614
-141.666
-116.824
-90.1964
-61.9526
-32.2832
-1.43743
30.2024
62.3158
94.7202
126.968
158.685
189.45
218.857
246.565
272.197
295.397
315.88
333.376
347.654
358.549
365.939
369.745
369.937
366.491
359.555
349.26
335.795
319.386
300.269
278.727
255.03
229.463
202.345
173.969
144.648
114.732
84.5711
54.6364
27.1134
-0.725012
-28.5022
-55.6097
-81.6905
-317.564
-314.823
-310.709
-305.191
-298.226
-289.748
-279.698
-267.99
-254.577
-239.411
-222.434
-203.606
-182.911
-160.335
-135.887
-109.608
-81.5519
-51.7983
-20.4315
9.41536
43.1975
77.735
112.791
148.096
183.272
217.947
251.688
284.046
314.626
342.994
368.723
391.466
410.896
426.732
438.744
446.756
450.658
450.243
445.677
437.046
424.448
408.102
388.238
365.147
339.191
310.728
280.14
247.856
214.284
179.823
144.876
109.806
74.9872
40.8612
8.93919
-22.7867
-53.5405
-83.0035
-110.977
-137.33
-161.98
-184.882
-206.003
-225.342
-242.907
-258.706
-272.764
-285.102
-295.743
-304.708
-312
-317.636
-321.616
-323.927
-324.585
-323.632
-321.044
-316.801
-310.875
-303.263
-293.965
-282.976
-270.295
-255.92
-239.852
-222.107
-202.697
-181.634
-158.939
-134.642
-108.78
-81.4086
-52.6043
-22.4664
8.8826
41.2364
74.3604
107.998
141.851
175.587
208.842
241.237
272.378
301.867
329.312
354.328
376.553
395.648
411.306
423.26
431.286
435.212
434.91
430.365
421.607
408.703
391.828
371.218
347.177
320.063
290.282
258.271
224.487
189.399
153.473
117.163
80.8995
45.0843
10.0805
-23.7974
-56.2755
-87.1276
-116.176
-143.288
-168.373
-191.378
-212.291
-231.123
-247.915
-262.727
-275.629
-286.7
-296.021
-303.666
-309.705
-314.204
-317.216
-318.784
-318.936
-317.705
-315.112
-311.159
-305.848
-299.172
-291.121
-281.676
-270.811
-258.502
-244.715
-229.415
-212.568
-194.144
-174.121
-152.488
-129.247
-104.426
-78.0694
-50.2506
-21.0754
9.31877
40.7612
73.0943
105.927
139.018
172.029
204.584
236.275
266.671
295.326
321.794
345.639
366.449
383.846
397.499
407.137
412.557
413.628
410.31
402.666
390.772
374.813
355.049
331.81
305.496
276.559
245.481
212.757
178.877
144.313
109.506
74.864
40.7631
7.53315
-24.5384
-55.2105
-84.2909
-111.636
-137.148
-160.776
-182.508
-202.36
-220.372
-236.598
-251.099
-263.936
-275.169
-284.856
-293.048
-299.794
-305.134
-309.105
-311.739
-313.051
-313.069
-311.812
-309.285
-305.482
-300.393
-294.001
-286.286
-277.224
-266.792
-254.962
-241.702
-226.982
-210.773
-193.051
-173.801
-153.011
-130.689
-106.857
-81.5685
-54.9041
-26.9761
2.07458
32.0798
62.8424
94.2975
125.882
157.458
188.693
219.221
248.652
276.574
302.565
326.203
347.074
364.787
378.986
389.368
395.697
397.807
395.617
389.157
378.486
363.772
345.261
323.27
298.179
270.417
240.448
208.759
175.844
142.18
108.23
75.0449
41.8888
9.56247
-21.626
-51.4381
-79.7023
-106.283
-131.099
-154.098
-175.276
-194.635
-212.189
-227.98
-242.046
-254.441
-265.232
-274.497
-282.32
-288.778
-293.958
-297.946
-300.812
-302.606
-303.386
-303.164
-301.982
-299.79
-296.554
-292.213
-286.677
-279.842
-271.6
-261.82
-250.393
-237.203
-222.146
-205.159
-186.191
-165.214
-142.261
-117.402
-90.7458
-62.4604
-32.7358
-1.82279
29.8927
62.0932
94.5979
126.954
158.784
189.665
219.188
247.01
272.754
296.057
316.632
334.207
348.548
359.488
366.904
370.717
370.905
367.437
360.451
350.092
336.554
320.065
300.861
279.227
255.436
229.775
202.566
174.098
144.687
114.681
84.436
54.4268
26.8705
-1.04575
-28.8859
-56.0467
-82.1708
-317.988
-315.257
-311.157
-305.657
-298.711
-290.256
-280.228
-268.545
-255.157
-240.013
-223.056
-204.246
-183.565
-160.998
-136.555
-110.274
-82.2137
-52.4603
-21.1297
9.03448
42.8019
77.3911
112.529
147.937
183.232
218.04
251.923
284.43
315.161
343.676
369.544
392.412
411.953
427.879
439.961
448.018
451.939
451.523
446.928
438.239
425.564
409.119
389.142
365.922
339.83
311.225
280.493
248.068
214.361
179.77
144.702
109.518
74.5774
40.3183
8.54728
-23.2784
-54.1044
-83.6097
-111.607
-137.97
-162.621
-185.518
-206.63
-225.956
-243.506
-259.291
-273.335
-285.66
-296.29
-305.246
-312.531
-318.161
-322.137
-324.447
-325.109
-324.159
-321.575
-317.335
-311.414
-303.807
-294.516
-283.534
-270.858
-256.485
-240.424
-222.684
-203.279
-182.22
-159.528
-135.231
-109.364
-81.9807
-53.1547
-22.9834
8.41066
40.8281
74.0276
107.754
141.709
175.558
208.937
241.464
272.741
302.369
329.951
355.102
377.454
396.665
412.425
424.462
432.55
436.514
436.227
431.668
422.861
409.885
392.911
372.18
348
320.735
290.795
258.622
224.678
189.437
153.367
116.925
80.5443
44.628
9.53863
-24.4079
-56.9385
-87.8283
-116.9
-144.023
-169.108
-192.104
-212.999
-231.807
-248.572
-263.353
-276.224
-287.265
-296.558
-304.178
-310.195
-314.675
-317.671
-319.226
-319.371
-318.137
-315.541
-311.588
-306.281
-299.611
-291.568
-282.134
-271.282
-258.988
-245.217
-229.933
-213.104
-194.695
-174.685
-153.06
-129.824
-105
-78.6324
-50.7934
-21.5873
8.84904
40.3438
72.7624
105.679
138.872
172.001
204.687
236.522
267.068
295.879
322.502
346.496
367.445
384.964
398.718
408.431
413.897
414.984
411.653
403.96
391.99
375.929
356.038
332.651
306.175
277.069
245.821
212.933
178.9
144.194
109.26
74.5074
40.3115
7.00312
-25.1303
-55.8472
-84.9565
-112.316
-137.829
-161.447
-183.161
-202.991
-220.976
-237.175
-251.649
-264.461
-275.671
-285.338
-293.512
-300.241
-305.568
-309.528
-312.152
-313.458
-313.472
-312.214
-309.688
-305.889
-300.807
-294.424
-286.718
-277.668
-267.249
-255.432
-242.185
-227.48
-211.285
-193.576
-174.337
-153.555
-131.235
-107.398
-82.0958
-55.4084
-27.4478
1.64514
31.7016
62.5138
94.0732
125.736
157.413
188.764
219.421
248.992
277.06
303.2
326.986
347.997
365.838
380.145
390.611
396.996
399.133
396.939
390.44
379.702
364.892
346.261
324.13
298.883
270.959
240.825
208.976
175.911
142.112
108.046
74.7188
41.48
9.08276
-22.161
-52.0139
-80.3063
-106.903
-131.725
-154.722
-175.891
-195.237
-212.774
-228.544
-242.586
-254.955
-265.72
-274.956
-282.751
-289.183
-294.338
-298.303
-301.148
-302.93
-303.706
-303.48
-302.302
-300.123
-296.907
-292.594
-287.091
-280.293
-272.092
-262.351
-250.963
-237.811
-222.785
-205.823
-186.873
-165.901
-142.942
-118.064
-91.3753
-63.0424
-33.2548
-2.26406
29.536
61.8372
94.4569
126.936
158.895
189.909
219.565
247.52
273.391
296.812
317.492
335.159
349.571
360.562
368.009
371.832
372.012
368.517
361.475
351.045
337.423
320.841
301.537
279.798
255.899
230.132
202.817
174.245
144.73
114.622
84.2803
54.1857
26.5922
-1.41273
-29.3254
-56.5476
-82.7212
-318.464
-315.745
-311.661
-306.181
-299.257
-290.826
-280.824
-269.169
-255.809
-240.691
-223.756
-204.966
-184.3
-161.745
-137.307
-111.025
-82.958
-53.2035
-21.918
8.60471
42.3517
77.0003
112.232
147.757
183.185
218.142
252.187
284.861
315.761
344.444
370.468
393.478
413.143
429.172
441.333
449.44
453.383
452.963
448.337
439.584
426.821
410.266
390.16
366.795
340.549
311.783
280.889
248.305
214.446
179.71
144.506
109.193
74.1174
39.7024
8.10802
-23.8364
-54.7424
-84.2943
-112.317
-138.691
-163.343
-186.235
-207.335
-226.647
-244.181
-259.949
-273.977
-286.287
-296.906
-305.851
-313.129
-318.753
-322.724
-325.034
-325.699
-324.752
-322.173
-317.937
-312.02
-304.42
-295.136
-284.162
-271.49
-257.122
-241.068
-223.334
-203.933
-182.88
-160.191
-135.894
-110.022
-82.6257
-53.775
-23.5672
7.87721
40.3671
73.6511
107.478
141.548
175.525
209.043
241.717
273.148
302.932
330.671
355.973
378.468
397.81
413.685
425.817
433.976
437.982
437.712
433.135
424.276
411.217
394.131
373.265
348.928
321.492
291.372
259.016
224.892
189.478
153.245
116.654
80.142
44.1116
8.92641
-25.0977
-57.687
-88.6191
-117.717
-144.852
-169.936
-192.921
-213.796
-232.578
-249.311
-264.059
-276.895
-287.902
-297.162
-304.754
-310.746
-315.205
-318.184
-319.725
-319.861
-318.622
-316.023
-312.072
-306.768
-300.104
-292.072
-282.649
-271.812
-259.535
-245.782
-230.518
-213.707
-195.316
-175.32
-153.705
-130.474
-105.647
-79.2675
-51.4062
-22.1655
8.31867
39.8698
72.388
105.398
138.706
171.967
204.802
236.798
267.514
296.5
323.298
347.461
368.566
386.225
400.093
409.891
415.408
416.513
413.166
405.419
393.364
377.186
357.151
333.597
306.939
277.642
246.203
213.13
178.923
144.058
108.981
74.1034
39.8005
6.4041
-25.7991
-56.5663
-85.7078
-113.084
-138.598
-162.204
-183.897
-203.7
-221.656
-237.825
-252.269
-265.052
-276.236
-285.88
-294.033
-300.745
-306.057
-310.004
-312.617
-313.915
-313.926
-312.665
-310.141
-306.348
-301.273
-294.899
-287.205
-278.168
-267.763
-255.96
-242.73
-228.041
-211.862
-194.168
-174.941
-154.168
-131.851
-108.008
-82.6906
-55.9776
-27.9802
1.1605
31.2752
62.143
93.8177
125.567
157.359
188.841
219.644
249.372