/*--------------------------------*- C++ -*----------------------------------*\
| =========                 |                                                 |
| \\      /  F ield         | OpenFOAM: The Open Source CFD Toolbox           |
|  \\    /   O peration     | Version:  3.0.1                                 |
|   \\  /    A nd           | Web:      www.OpenFOAM.org                      |
|    \\/     M anipulation  |                                                 |
\*---------------------------------------------------------------------------*/
FoamFile
{
    version     2.0;
    format      ascii;
    class       surfaceScalarField;
    location    "8.2";
    object      phi;
}
// * * * * * * * * * * * * * * * * * * * * * * * * * * * * * * * * * * * * * //

dimensions      [0 3 -1 0 0 0 0];

internalField   nonuniform List<scalar> 
42423
(
-3.31852e-05
1.6662e-05
-4.89676e-05
1.57824e-05
-6.39793e-05
1.50116e-05
-7.81238e-05
1.41445e-05
-9.12972e-05
1.31735e-05
-0.000103538
1.22409e-05
-0.000114781
1.12431e-05
-0.000125083
1.03016e-05
-0.000134432
9.34965e-06
-0.000142819
8.38659e-06
-0.000150313
7.4937e-06
-0.000156943
6.63075e-06
-0.000162739
5.79517e-06
-0.000167737
4.99818e-06
-0.000171968
4.23072e-06
-0.000175476
3.50874e-06
-0.00017831
2.83333e-06
-0.000180449
2.1394e-06
-0.000181944
1.49455e-06
-0.000182837
8.93465e-07
-0.000183078
2.40449e-07
-0.000182586
-4.91821e-07
-0.000181382
-1.20334e-06
-0.000179417
-1.96536e-06
-0.000176673
-2.74358e-06
-0.000173065
-3.60811e-06
-0.000168627
-4.43883e-06
-0.000163332
-5.29414e-06
-0.000157004
-6.32843e-06
-0.000149699
-7.30533e-06
-0.000141445
-8.25383e-06
-0.000132066
-9.37851e-06
-0.000121705
-1.03613e-05
-0.000110233
-1.14723e-05
-9.77696e-05
-1.24635e-05
-8.45206e-05
-1.32491e-05
-7.01441e-05
-1.43765e-05
-5.48983e-05
-1.52459e-05
-3.88942e-05
-1.60042e-05
-2.21262e-05
-1.6768e-05
-4.81311e-06
-1.73132e-05
1.3003e-05
-1.78162e-05
3.12125e-05
-1.82096e-05
4.94608e-05
-1.82484e-05
6.77575e-05
-1.82967e-05
8.5865e-05
-1.81077e-05
0.000103464
-1.75994e-05
0.000120478
-1.70133e-05
0.00013674
-1.62624e-05
0.000151925
-1.51855e-05
0.000165958
-1.40324e-05
0.000178532
-1.25748e-05
0.000189622
-1.10896e-05
0.000199069
-9.44674e-06
0.000206604
-7.53552e-06
0.000212257
-5.65297e-06
0.000215899
-3.64237e-06
0.000217293
-1.39401e-06
0.000216492
8.01352e-07
0.000213458
3.03368e-06
0.000208254
5.20374e-06
0.000200872
7.38274e-06
0.000191319
9.55238e-06
0.000179826
1.14933e-05
0.000166487
1.33387e-05
0.000151484
1.50034e-05
0.000135051
1.64323e-05
0.000117424
1.76273e-05
9.89143e-05
1.85098e-05
7.97537e-05
1.91606e-05
6.03026e-05
1.94511e-05
4.08657e-05
1.94369e-05
2.16857e-05
1.918e-05
3.03655e-06
1.86492e-05
-1.48366e-05
1.78732e-05
-3.1776e-05
1.69394e-05
-4.76123e-05
1.58363e-05
-6.22625e-05
1.46502e-05
-7.5616e-05
1.33535e-05
-8.76305e-05
1.20145e-05
-9.83135e-05
1.0683e-05
-0.000107673
9.35905e-06
-0.000115712
8.03936e-06
-0.000122523
6.81096e-06
-0.00012811
5.58697e-06
-0.00013259
4.48041e-06
-0.000136011
3.42039e-06
-0.000138422
2.41154e-06
-0.000139991
1.56848e-06
-0.000140731
7.40511e-07
-0.000140725
-5.64501e-09
-0.000140019
-7.06225e-07
-0.000138739
-1.28051e-06
-0.000136958
-1.78055e-06
-0.000134629
-2.32901e-06
-0.000131871
-2.75804e-06
-0.000128655
-3.2165e-06
-0.000125013
-3.64146e-06
-0.000120953
-4.06029e-06
-0.000116457
-4.49608e-06
-0.000111501
-4.95535e-06
-0.000106076
-5.42559e-06
-0.00010014
-5.93587e-06
-9.36946e-05
-6.44547e-06
-8.6706e-05
-6.98858e-06
-7.91608e-05
-7.5452e-06
-7.10509e-05
-8.10996e-06
-6.23816e-05
-8.66931e-06
-5.31445e-05
-9.23711e-06
-4.33672e-05
-9.77737e-06
-3.31205e-05
-1.02467e-05
-2.24059e-05
-1.07146e-05
-1.12421e-05
-1.11638e-05
2.62969e-07
-1.15051e-05
1.20581e-05
-1.17951e-05
2.40675e-05
-1.20095e-05
3.61868e-05
-1.21193e-05
4.83053e-05
-1.21186e-05
6.0314e-05
-1.20087e-05
7.20657e-05
-1.17517e-05
8.34465e-05
-1.13809e-05
9.43069e-05
-1.08605e-05
0.000104534
-1.02271e-05
0.000113965
-9.43126e-06
0.000122484
-8.51839e-06
0.000129975
-7.49137e-06
0.000136288
-6.31359e-06
0.000141377
-5.08859e-06
0.000145156
-3.77887e-06
0.000147576
-2.42053e-06
0.000148601
-1.02473e-06
0.000148255
3.45677e-07
0.000146522
1.73337e-06
0.000143447
3.07435e-06
0.000139041
4.40691e-06
0.000133472
5.56801e-06
0.000126801
6.67161e-06
0.000119128
7.67273e-06
0.000110618
8.51053e-06
0.000101386
9.23147e-06
9.15886e-05
9.79738e-06
8.13708e-05
1.02178e-05
7.08861e-05
1.04846e-05
6.029e-05
1.05961e-05
4.96451e-05
1.0645e-05
3.91739e-05
1.04711e-05
2.89514e-05
1.02225e-05
1.90921e-05
9.85928e-06
9.67472e-06
9.41738e-06
7.84839e-07
8.88987e-06
-7.53414e-06
8.31897e-06
-1.52326e-05
7.69841e-06
-2.227e-05
7.03746e-06
-2.86309e-05
6.36085e-06
-3.42935e-05
5.66257e-06
-3.92605e-05
4.96707e-06
-4.35383e-05
4.27781e-06
-4.71363e-05
3.59794e-06
-5.00714e-05
2.93509e-06
-5.2361e-05
2.28958e-06
-5.40346e-05
1.67364e-06
-5.51186e-05
1.084e-06
-5.56507e-05
5.32083e-07
-5.56549e-05
4.17614e-09
-5.51671e-05
-4.87746e-07
-5.42147e-05
-9.52455e-07
-5.28359e-05
-1.3788e-06
-5.1058e-05
-1.77788e-06
-4.89209e-05
-2.13705e-06
-4.64406e-05
-2.48031e-06
-4.3665e-05
-2.77566e-06
-4.06219e-05
-3.04306e-06
-3.73402e-05
-3.2817e-06
-3.38579e-05
-3.48227e-06
-3.02027e-05
-3.65523e-06
-2.64021e-05
-3.80057e-06
-2.24953e-05
-3.90684e-06
-1.85052e-05
-3.99006e-06
-1.44621e-05
-4.04311e-06
-1.03944e-05
-4.06776e-06
-6.33613e-06
-4.05824e-06
-2.31058e-06
-4.02555e-06
1.65559e-06
-3.96618e-06
5.53736e-06
-3.88177e-06
9.3107e-06
-3.77334e-06
1.2948e-05
-3.63726e-06
1.64328e-05
-3.48483e-06
1.97454e-05
-3.31262e-06
2.28688e-05
-3.1234e-06
2.5783e-05
-2.91417e-06
2.8479e-05
-2.69601e-06
3.09467e-05
-2.46772e-06
3.31728e-05
-2.22614e-06
3.51556e-05
-1.98278e-06
3.68874e-05
-1.73179e-06
3.83682e-05
-1.48084e-06
3.96022e-05
-1.23396e-06
4.05827e-05
-9.80501e-07
4.13223e-05
-7.39556e-07
4.18294e-05
-5.07128e-07
4.21039e-05
-2.7447e-07
4.21635e-05
-5.96191e-08
4.20203e-05
1.43143e-07
4.16794e-05
3.40901e-07
4.11591e-05
5.20298e-07
4.04727e-05
6.86473e-07
3.96364e-05
8.36243e-07
3.86595e-05
9.7695e-07
3.75609e-05
1.09854e-06
3.63586e-05
1.20229e-06
3.50595e-05
1.29911e-06
3.36852e-05
1.37428e-06
3.22485e-05
1.43675e-06
3.07646e-05
1.4839e-06
2.92444e-05
1.52014e-06
2.76999e-05
1.54456e-06
2.61457e-05
1.5542e-06
2.45917e-05
1.554e-06
2.30487e-05
1.543e-06
2.15254e-05
1.52329e-06
2.00314e-05
1.49394e-06
1.85697e-05
1.46175e-06
1.71501e-05
1.41955e-06
1.5778e-05
1.37214e-06
1.44577e-05
1.32032e-06
1.3195e-05
1.26272e-06
1.19873e-05
1.2077e-06
1.08414e-05
1.14587e-06
9.7594e-06
1.08199e-06
8.73885e-06
1.02055e-06
7.78246e-06
9.5639e-07
6.8897e-06
8.92761e-07
6.0612e-06
8.28499e-07
5.29258e-06
7.68616e-07
4.58627e-06
7.06318e-07
3.93668e-06
6.49585e-07
3.34442e-06
5.92258e-07
2.80831e-06
5.36114e-07
2.32274e-06
4.85564e-07
1.88756e-06
4.35184e-07
1.50098e-06
3.86584e-07
1.15701e-06
3.43961e-07
8.57054e-07
2.9996e-07
5.93604e-07
2.6345e-07
3.68229e-07
2.25375e-07
1.75549e-07
1.9268e-07
1.43914e-08
1.61157e-07
-1.18669e-07
1.33061e-07
-2.25773e-07
1.07103e-07
-3.09354e-07
8.35812e-08
-3.71744e-07
6.23897e-08
-4.15181e-07
4.34362e-08
-4.41727e-07
2.65459e-08
-4.53543e-07
1.18163e-08
-4.52375e-07
-1.16831e-09
-4.39995e-07
-1.23801e-08
-4.18017e-07
-2.19782e-08
-3.87926e-07
-3.00906e-08
-3.51086e-07
-3.68401e-08
-3.08787e-07
-4.22989e-08
-2.62155e-07
-4.66325e-08
-2.1226e-07
-4.98954e-08
-1.60004e-07
-5.22556e-08
-1.06256e-07
-5.37478e-08
-5.17725e-08
-5.44838e-08
2.77291e-09
-5.45455e-08
5.68082e-08
-5.40354e-08
1.09827e-07
-5.30188e-08
1.61394e-07
-5.15672e-08
2.11141e-07
-4.97469e-08
2.58761e-07
-4.76196e-08
3.04001e-07
-4.52406e-08
3.46663e-07
-4.26616e-08
3.86591e-07
-3.99284e-08
4.23674e-07
-3.70829e-08
4.57837e-07
-3.41626e-08
4.89038e-07
-3.1201e-08
5.17264e-07
-2.82265e-08
5.4253e-07
-2.52657e-08
5.64871e-07
-2.23409e-08
5.84343e-07
-1.94724e-08
6.0102e-07
-1.66763e-08
6.14984e-07
-1.39649e-08
6.26337e-07
-1.13526e-08
6.35186e-07
-8.84863e-09
6.41647e-07
-6.46112e-09
6.45845e-07
-4.19783e-09
6.47919e-07
-2.07467e-09
6.47968e-07
-4.82871e-11
6.46141e-07
1.82636e-09
6.4257e-07
3.5709e-09
6.37383e-07
5.18697e-09
6.30707e-07
6.67659e-09
6.22665e-07
8.04183e-09
6.1338e-07
9.2849e-09
6.02972e-07
1.04081e-08
5.91558e-07
1.14143e-08
5.79251e-07
1.23065e-08
5.66163e-07
1.30884e-08
5.52399e-07
1.37641e-08
5.3806e-07
1.43383e-08
5.23244e-07
1.4816e-08
5.08042e-07
1.52025e-08
4.92539e-07
1.5503e-08
4.76816e-07
1.57233e-08
4.60947e-07
1.58686e-08
4.45002e-07
1.59444e-08
4.29046e-07
1.59564e-08
4.13137e-07
1.59096e-08
3.97327e-07
1.58095e-08
3.81666e-07
1.5661e-08
3.66197e-07
1.5469e-08
3.50959e-07
1.52381e-08
3.35986e-07
1.49727e-08
3.21309e-07
1.46769e-08
3.06955e-07
1.43548e-08
2.92945e-07
1.401e-08
2.79299e-07
1.36461e-08
2.66032e-07
1.32663e-08
2.53158e-07
1.28737e-08
2.40687e-07
1.24712e-08
2.28626e-07
1.20613e-08
2.1698e-07
1.16464e-08
2.05751e-07
1.12288e-08
1.9494e-07
1.08104e-08
1.84547e-07
1.0393e-08
1.74569e-07
9.97827e-09
1.65001e-07
9.56761e-09
1.55839e-07
9.16232e-09
1.47076e-07
8.76353e-09
1.38703e-07
8.37223e-09
1.30714e-07
7.98937e-09
1.23098e-07
7.61572e-09
1.15846e-07
7.25188e-09
1.08948e-07
6.89842e-09
1.02392e-07
6.5557e-09
9.61682e-08
6.22407e-09
9.02644e-08
5.90375e-09
8.46695e-08
5.59495e-09
7.93717e-08
5.2978e-09
7.43593e-08
5.01237e-09
6.96206e-08
4.73865e-09
6.5144e-08
4.47661e-09
6.09179e-08
4.22612e-09
5.69308e-08
3.98706e-09
5.31716e-08
3.75926e-09
4.96291e-08
3.54252e-09
4.62924e-08
3.33667e-09
4.31509e-08
3.14153e-09
4.01939e-08
2.95697e-09
3.74109e-08
2.78297e-09
3.47919e-08
2.619e-09
3.23285e-08
2.46344e-09
3.00133e-08
2.31513e-09
2.78396e-08
2.17372e-09
2.58005e-08
2.03907e-09
1.91115e-09
-3.3217e-05
3.33275e-05
-4.90021e-05
3.15675e-05
-6.40172e-05
3.00268e-05
-7.81668e-05
2.8294e-05
-9.13428e-05
2.63495e-05
-0.000103584
2.4482e-05
-0.00011483
2.24889e-05
-0.000125133
2.06052e-05
-0.000134488
1.87038e-05
-0.000142881
1.67803e-05
-0.000150371
1.49837e-05
-0.000156997
1.32564e-05
-0.000162794
1.15923e-05
-0.000167799
1.00026e-05
-0.00017203
8.46226e-06
-0.000175536
7.01474e-06
-0.000178368
5.66478e-06
-0.000180504
4.27616e-06
-0.000181998
2.98868e-06
-0.000182891
1.78556e-06
-0.000183132
4.81625e-07
-0.000182643
-9.80913e-07
-0.000181447
-2.39876e-06
-0.000179477
-3.93545e-06
-0.000176734
-5.48707e-06
-0.000173129
-7.21306e-06
-0.000168692
-8.8756e-06
-0.0001634
-1.05867e-05
-0.00015707
-1.26579e-05
-0.000149766
-1.46091e-05
-0.000141513
-1.65073e-05
-0.000132134
-1.87578e-05
-0.000121772
-2.07236e-05
-0.000110298
-2.29463e-05
-9.78327e-05
-2.49286e-05
-8.45801e-05
-2.65018e-05
-7.01987e-05
-2.87581e-05
-5.49487e-05
-3.0496e-05
-3.89524e-05
-3.20006e-05
-2.21737e-05
-3.35469e-05
-4.85279e-06
-3.46343e-05
1.29764e-05
-3.56455e-05
3.11978e-05
-3.64312e-05
4.94515e-05
-3.65022e-05
6.77613e-05
-3.66067e-05
8.58896e-05
-3.62361e-05
0.000103496
-3.52065e-05
0.000120521
-3.40379e-05
0.000136792
-3.25339e-05
0.000151977
-3.03706e-05
0.000166036
-2.80916e-05
0.000178621
-2.51599e-05
0.000189719
-2.21875e-05
0.000199174
-1.89017e-05
0.000206714
-1.5076e-05
0.000212376
-1.13154e-05
0.000216025
-7.29156e-06
0.000217428
-2.7962e-06
0.000216614
1.61436e-06
0.000213584
6.06436e-06
0.000208385
1.04019e-05
0.000201003
1.47653e-05
0.000191445
1.91106e-05
0.000179942
2.29957e-05
0.000166592
2.66888e-05
0.000151577
3.00182e-05
0.000135131
3.28786e-05
0.000117484
3.52738e-05
9.89592e-05
3.70349e-05
7.97842e-05
3.83355e-05
6.03155e-05
3.89198e-05
4.08613e-05
3.88911e-05
2.16673e-05
3.8374e-05
3.00334e-06
3.73132e-05
-1.48841e-05
3.57606e-05
-3.18321e-05
3.38875e-05
-4.76799e-05
3.16841e-05
-6.23287e-05
2.92991e-05
-7.56943e-05
2.67191e-05
-8.77163e-05
2.40365e-05
-9.8403e-05
2.13698e-05
-0.000107758
1.87145e-05
-0.000115798
1.60789e-05
-0.000122612
1.36249e-05
-0.0001282
1.1175e-05
-0.000132677
8.95762e-06
-0.000136097
6.84023e-06
-0.000138515
4.82917e-06
-0.000140068
3.12222e-06
-0.000140807
1.47958e-06
-0.000140793
-1.96269e-08
-0.000140092
-1.4078e-06
-0.000138799
-2.57386e-06
-0.000137015
-3.56376e-06
-0.000134693
-4.6517e-06
-0.000131929
-5.52165e-06
-0.000128708
-6.43742e-06
-0.000125069
-7.28089e-06
-0.000121007
-8.12162e-06
-0.000116505
-8.99844e-06
-0.000111547
-9.91377e-06
-0.000106128
-1.08446e-05
-0.000100186
-1.18774e-05
-9.37392e-05
-1.28924e-05
-8.67505e-05
-1.39774e-05
-7.92031e-05
-1.50927e-05
-7.10927e-05
-1.62204e-05
-6.24178e-05
-1.73442e-05
-5.31885e-05
-1.84665e-05
-4.34017e-05
-1.95642e-05
-3.31436e-05
-2.05049e-05
-2.24265e-05
-2.14317e-05
-1.12563e-05
-2.23342e-05
2.54332e-07
-2.30158e-05
1.20545e-05
-2.35953e-05
2.40725e-05
-2.40276e-05
3.61965e-05
-2.42434e-05
4.83268e-05
-2.4249e-05
6.03448e-05
-2.40267e-05
7.21023e-05
-2.35093e-05
8.34912e-05
-2.277e-05
9.43592e-05
-2.17285e-05
0.000104595
-2.04628e-05
0.000114036
-1.88721e-05
0.000122556
-1.70385e-05
0.000130055
-1.49907e-05
0.000136381
-1.26403e-05
0.000141475
-1.01822e-05
0.000145255
-7.55932e-06
0.000147676
-4.84085e-06
0.0001487
-2.0492e-06
0.000148346
6.99288e-07
0.000146609
3.47091e-06
0.000143535
6.14769e-06
0.000139121
8.82111e-06
0.000133547
1.11415e-05
0.00012687
1.33485e-05
0.000119191
1.53523e-05
0.000110671
1.70302e-05
0.000101431
1.8472e-05
9.16239e-05
1.9604e-05
8.13994e-05
2.04423e-05
7.09058e-05
2.09782e-05
6.03055e-05
2.11964e-05
4.965e-05
2.13004e-05
3.91724e-05
2.09487e-05
2.8944e-05
2.04509e-05
1.90788e-05
1.97244e-05
9.65605e-06
1.88401e-05
7.61788e-07
1.77841e-05
-7.56042e-06
1.66412e-05
-1.52619e-05
1.53999e-05
-2.23016e-05
1.40771e-05
-2.86641e-05
1.27233e-05
-3.43289e-05
1.13273e-05
-3.92965e-05
9.93463e-06
-4.35747e-05
8.55597e-06
-4.71719e-05
7.19522e-06
-5.01064e-05
5.86956e-06
-5.23952e-05
4.57836e-06
-5.40687e-05
3.34713e-06
-5.51519e-05
2.16721e-06
-5.56814e-05
1.06158e-06
-5.56851e-05
7.83961e-09
-5.51962e-05
-9.76669e-07
-5.42407e-05
-1.90788e-06
-5.28611e-05
-2.75845e-06
-5.10808e-05
-3.5582e-06
-4.89435e-05
-4.27437e-06
-4.6461e-05
-4.96283e-06
-4.36837e-05
-5.55292e-06
-4.06384e-05
-6.08837e-06
-3.73547e-05
-6.56546e-06
-3.38707e-05
-6.96626e-06
-3.02133e-05
-7.31256e-06
-2.64108e-05
-7.60315e-06
-2.25021e-05
-7.81551e-06
-1.85102e-05
-7.982e-06
-1.44651e-05
-8.08818e-06
-1.03953e-05
-8.13751e-06
-6.33534e-06
-8.11825e-06
-2.30796e-06
-8.05293e-06
1.66005e-06
-7.93419e-06
5.54354e-06
-7.76526e-06
9.31868e-06
-7.54848e-06
1.29575e-05
-7.27611e-06
1.6444e-05
-6.97129e-06
1.97579e-05
-6.62656e-06
2.2882e-05
-6.2475e-06
2.57976e-05
-5.82981e-06
2.84944e-05
-5.39277e-06
3.09628e-05
-4.93608e-06
3.31897e-05
-4.45309e-06
3.51729e-05
-3.96593e-06
3.69053e-05
-3.46422e-06
3.83866e-05
-2.96212e-06
3.96194e-05
-2.4668e-06
4.06006e-05
-1.96171e-06
4.13401e-05
-1.47903e-06
4.18468e-05
-1.01385e-06
4.2121e-05
-5.48632e-07
4.21802e-05
-1.18823e-07
4.20365e-05
2.86829e-07
4.16948e-05
6.82601e-07
4.11738e-05
1.04124e-06
4.04867e-05
1.37365e-06
3.96498e-05
1.6731e-06
3.86718e-05
1.95493e-06
3.75725e-05
2.19789e-06
3.63695e-05
2.40526e-06
3.50693e-05
2.5993e-06
3.36942e-05
2.7494e-06
3.22567e-05
2.87431e-06
3.07725e-05
2.96804e-06
2.92506e-05
3.04211e-06
2.77055e-05
3.08962e-06
2.61506e-05
3.10911e-06
2.45959e-05
3.10869e-06
2.30523e-05
3.08663e-06
2.15286e-05
3.04697e-06
2.00339e-05
2.98861e-06
1.85714e-05
2.92429e-06
1.71514e-05
2.83949e-06
1.57789e-05
2.7447e-06
1.44582e-05
2.64102e-06
1.31952e-05
2.52569e-06
1.1987e-05
2.41585e-06
1.0841e-05
2.29193e-06
9.75851e-06
2.16446e-06
8.73792e-06
2.04114e-06
7.78139e-06
1.91292e-06
6.88859e-06
1.78555e-06
6.05966e-06
1.65743e-06
5.29114e-06
1.53714e-06
4.58484e-06
1.41261e-06
3.93513e-06
1.2993e-06
3.34291e-06
1.18448e-06
2.80658e-06
1.07244e-06
2.32118e-06
9.70966e-07
1.88608e-06
8.70288e-07
1.49926e-06
7.734e-07
1.15554e-06
6.87675e-07
8.55741e-07
5.99764e-07
5.92246e-07
5.26944e-07
3.67467e-07
4.50154e-07
1.7432e-07
3.85828e-07
1.32648e-08
3.22212e-07
-1.19714e-07
2.6604e-07
-2.2674e-07
2.14129e-07
-3.10242e-07
1.67083e-07
-3.72553e-07
1.247e-07
-4.15914e-07
8.67962e-08
-4.42398e-07
5.30301e-08
-4.54126e-07
2.35442e-08
-4.52887e-07
-2.40785e-09
-4.40439e-07
-2.48276e-08
-4.18398e-07
-4.402e-08
-3.88248e-07
-6.02408e-08
-3.51353e-07
-7.37344e-08
-3.09e-07
-8.46525e-08
-2.62317e-07
-9.33156e-08
-2.12372e-07
-9.98409e-08
-1.60072e-07
-1.04555e-07
-1.06284e-07
-1.07535e-07
-5.17648e-08
-1.09003e-07
2.81388e-09
-1.09124e-07
5.68789e-08
-1.081e-07
1.09924e-07
-1.06064e-07
1.61515e-07
-1.03158e-07
2.11282e-07
-9.95142e-08
2.58919e-07
-9.52568e-08
3.04175e-07
-9.04963e-08
3.46849e-07
-8.53357e-08
3.86787e-07
-7.98671e-08
4.23878e-07
-7.41741e-08
4.58047e-07
-6.83314e-08
4.89253e-07
-6.24065e-08
5.17482e-07
-5.64557e-08
5.42749e-07
-5.05324e-08
5.65089e-07
-4.46814e-08
5.8456e-07
-3.8943e-08
6.01233e-07
-3.33498e-08
6.15194e-07
-2.79258e-08
6.26542e-07
-2.27003e-08
6.35385e-07
-1.76917e-08
6.4184e-07
-1.29161e-08
6.46031e-07
-8.38882e-09
6.48098e-07
-4.14177e-09
6.48139e-07
-8.92292e-11
6.46305e-07
3.66029e-09
6.42726e-07
7.14951e-09
6.37532e-07
1.03817e-08
6.30847e-07
1.3361e-08
6.22798e-07
1.60914e-08
6.13505e-07
1.85775e-08
6.03089e-07
2.08239e-08
5.91667e-07
2.28361e-08
5.79354e-07
2.46203e-08
5.66258e-07
2.61839e-08
5.52487e-07
2.75352e-08
5.38142e-07
2.86833e-08
5.23319e-07
2.96385e-08
5.08111e-07
3.04112e-08
4.92602e-07
3.1012e-08
4.76873e-07
3.14521e-08
4.60999e-07
3.17424e-08
4.4505e-07
3.18939e-08
4.29089e-07
3.19174e-08
4.13175e-07
3.18236e-08
3.97361e-07
3.16231e-08
3.81696e-07
3.13259e-08
3.66224e-07
3.09415e-08
3.50982e-07
3.04795e-08
3.36006e-07
2.99484e-08
3.21327e-07
2.93567e-08
3.06969e-07
2.87122e-08
2.92957e-07
2.80224e-08
2.79308e-07
2.72944e-08
2.6604e-07
2.65347e-08
2.53165e-07
2.57493e-08
2.40692e-07
2.4944e-08
2.28629e-07
2.41241e-08
2.16981e-07
2.32942e-08
2.05751e-07
2.24587e-08
1.9494e-07
2.16218e-08
1.84546e-07
2.07869e-08
1.74567e-07
1.99573e-08
1.64998e-07
1.91359e-08
1.55836e-07
1.83252e-08
1.47072e-07
1.75276e-08
1.38699e-07
1.67449e-08
1.30709e-07
1.59791e-08
1.23093e-07
1.52317e-08
1.15841e-07
1.4504e-08
1.08942e-07
1.3797e-08
1.02387e-07
1.31115e-08
9.61625e-08
1.24482e-08
9.02587e-08
1.18075e-08
8.46637e-08
1.11899e-08
7.9366e-08
1.05956e-08
7.43536e-08
1.00247e-08
6.9615e-08
9.47724e-09
6.51385e-08
8.95314e-09
6.09125e-08
8.45215e-09
5.69255e-08
7.97403e-09
5.31663e-08
7.51842e-09
4.96239e-08
7.08495e-09
4.62873e-08
6.67324e-09
4.31459e-08
6.28296e-09
4.0189e-08
5.91386e-09
3.74061e-08
5.56587e-09
3.47871e-08
5.23796e-09
3.23237e-08
4.92684e-09
3.00086e-08
4.63024e-09
2.78349e-08
4.34739e-09
2.57959e-08
4.07813e-09
3.82235e-09
-3.32808e-05
5.00003e-05
-4.9072e-05
4.73586e-05
-6.40923e-05
4.50471e-05
-7.82462e-05
4.24479e-05
-9.14284e-05
3.95316e-05
-0.000103674
3.67276e-05
-0.000114924
3.37387e-05
-0.000125227
3.09085e-05
-0.000134577
2.80534e-05
-0.000142973
2.51764e-05
-0.000150472
2.24833e-05
-0.000157101
1.98856e-05
-0.000162889
1.73803e-05
-0.000167889
1.50023e-05
-0.00017213
1.27028e-05
-0.000175645
1.05305e-05
-0.000178485
8.50439e-06
-0.000180626
6.41715e-06
-0.000182121
4.48381e-06
-0.000182994
2.65853e-06
-0.000183205
6.92234e-07
-0.000182701
-1.48521e-06
-0.000181521
-3.57817e-06
-0.000179542
-5.91501e-06
-0.000176797
-8.23136e-06
-0.000173196
-1.08146e-05
-0.000168762
-1.3309e-05
-0.000163476
-1.58731e-05
-0.000157147
-1.89873e-05
-0.000149845
-2.19104e-05
-0.000141593
-2.47601e-05
-0.000132215
-2.81358e-05
-0.000121853
-3.10858e-05
-0.000110379
-3.44204e-05
-9.79136e-05
-3.73938e-05
-8.4658e-05
-3.97575e-05
-7.02709e-05
-4.31453e-05
-5.50164e-05
-4.57506e-05
-3.90337e-05
-4.79834e-05
-2.2238e-05
-5.03428e-05
-4.90264e-06
-5.19698e-05
1.29453e-05
-5.34936e-05
3.11818e-05
-5.46679e-05
4.94518e-05
-5.47724e-05
6.77794e-05
-5.49344e-05
8.59187e-05
-5.43755e-05
0.000103536
-5.28241e-05
0.000120571
-5.10724e-05
0.000136865
-4.88288e-05
0.000152065
-4.55706e-05
0.000166137
-4.21635e-05
0.000178732
-3.7755e-05
0.000189835
-3.32904e-05
0.000199299
-2.83659e-05
0.000206843
-2.26206e-05
0.000212516
-1.69883e-05
0.000216172
-1.09476e-05
0.000217606
-4.22982e-06
0.000216772
2.44745e-06
0.000213744
9.09282e-06
0.000208553
1.5593e-05
0.000201172
2.21464e-05
0.000191606
2.86765e-05
0.000180092
3.45097e-05
0.000166725
4.00555e-05
0.00015169
4.50532e-05
0.000135225
4.93439e-05
0.000117556
5.29427e-05
9.90035e-05
5.55871e-05
7.98058e-05
5.75332e-05
6.03154e-05
5.84103e-05
4.08367e-05
5.83698e-05
2.1627e-05
5.75838e-05
2.94268e-06
5.59975e-05
-1.4965e-05
5.36683e-05
-3.19177e-05
5.08403e-05
-4.77727e-05
4.75391e-05
-6.24238e-05
4.39502e-05
-7.58013e-05
4.00966e-05
-8.78256e-05
3.60608e-05
-9.85089e-05
3.20531e-05
-0.000107866
2.80714e-05
-0.000115901
2.41145e-05
-0.000122703
2.04269e-05
-0.000128291
1.67631e-05
-0.000132769
1.34351e-05
-0.000136185
1.02561e-05
-0.000138597
7.24106e-06
-0.000140141
4.66608e-06
-0.000140877
2.21652e-06
-0.000140846
-5.11083e-08
-0.000140139
-2.11435e-06
-0.000138851
-3.86255e-06
-0.000137057
-5.35771e-06
-0.000134732
-6.97701e-06
-0.000131961
-8.29224e-06
-0.000128735
-9.66319e-06
-0.000125103
-1.09128e-05
-0.000121037
-1.21874e-05
-0.000116536
-1.35e-05
-0.000111583
-1.48667e-05
-0.000106168
-1.62596e-05
-0.000100225
-1.7821e-05
-9.37784e-05
-1.93385e-05
-8.67899e-05
-2.09659e-05
-7.92432e-05
-2.26394e-05
-7.11331e-05
-2.43305e-05
-6.24609e-05
-2.60166e-05
-5.32355e-05
-2.76919e-05
-4.34422e-05
-2.93576e-05
-3.31769e-05
-3.07702e-05
-2.2458e-05
-3.21508e-05
-1.12808e-05
-3.35115e-05
2.33258e-07
-3.45299e-05
1.20422e-05
-3.54043e-05
2.40668e-05
-3.60524e-05
3.62025e-05
-3.63792e-05
4.83423e-05
-3.63889e-05
6.03628e-05
-3.60473e-05
7.21358e-05
-3.52824e-05
8.35379e-05
-3.41721e-05
9.44175e-05
-3.26082e-05
0.000104665
-3.07107e-05
0.00011413
-2.83371e-05
0.000122645
-2.55529e-05
0.000130141
-2.24876e-05
0.00013648
-1.89792e-05
0.00014158
-1.5282e-05
0.000145365
-1.13448e-05
0.00014779
-7.26613e-06
0.00014882
-3.07885e-06
0.000148457
1.06266e-06
0.000146711
5.21661e-06
0.000143625
9.23376e-06
0.000139213
1.32323e-05
0.000133634
1.67211e-05
0.000126947
2.00352e-05
0.000119262
2.30377e-05
0.000110727
2.55646e-05
0.000101475
2.77239e-05
9.16557e-05
2.94234e-05
8.14208e-05
3.06772e-05
7.09128e-05
3.14861e-05
6.03086e-05
3.18006e-05
4.96389e-05
3.197e-05
3.91518e-05
3.14359e-05
2.89157e-05
3.06869e-05
1.90435e-05
2.95966e-05
9.61533e-06
2.82682e-05
7.15377e-07
2.66841e-05
-7.61149e-06
2.4968e-05
-1.53152e-05
2.31036e-05
-2.23558e-05
2.11177e-05
-2.87194e-05
1.90869e-05
-3.43844e-05
1.69923e-05
-3.93512e-05
1.49014e-05
-4.36294e-05
1.28341e-05
-4.72258e-05
1.07916e-05
-5.01575e-05
8.8013e-06
-5.24437e-05
6.86452e-06
-5.41166e-05
5.02004e-06
-5.51983e-05
3.24887e-06
-5.57226e-05
1.58591e-06
-5.57246e-05
9.82011e-09
-5.52324e-05
-1.4689e-06
-5.42742e-05
-2.86603e-06
-5.28923e-05
-4.14039e-06
-5.11087e-05
-5.34174e-06
-4.89661e-05
-6.41702e-06
-4.64842e-05
-7.44473e-06
-4.37045e-05
-8.33264e-06
-4.06568e-05
-9.13609e-06
-3.73704e-05
-9.85186e-06
-3.38842e-05
-1.04524e-05
-3.02243e-05
-1.09725e-05
-2.64192e-05
-1.14083e-05
-2.25081e-05
-1.17266e-05
-1.85136e-05
-1.19766e-05
-1.44663e-05
-1.21354e-05
-1.03945e-05
-1.22094e-05
-6.33256e-06
-1.21802e-05
-2.30295e-06
-1.20825e-05
1.66728e-06
-1.19044e-05
5.5524e-06
-1.16504e-05
9.32923e-06
-1.13253e-05
1.297e-05
-1.09169e-05
1.64578e-05
-1.04591e-05
1.97743e-05
-9.94298e-06
2.28982e-05
-9.37141e-06
2.58151e-05
-8.74677e-06
2.85129e-05
-8.09053e-06
3.09817e-05
-7.40491e-06
3.32095e-05
-6.68084e-06
3.5193e-05
-5.94941e-06
3.69256e-05
-5.19681e-06
3.84069e-05
-4.4435e-06
3.96383e-05
-3.69817e-06
4.062e-05
-2.94341e-06
4.13591e-05
-2.2181e-06
4.18636e-05
-1.51841e-06
4.21384e-05
-8.23425e-07
4.21967e-05
-1.77121e-07
4.20518e-05
4.31707e-07
4.17089e-05
1.02556e-06
4.11869e-05
1.56319e-06
4.04987e-05
2.0619e-06
3.96609e-05
2.51085e-06
3.86814e-05
2.93445e-06
3.7581e-05
3.29833e-06
3.63756e-05
3.61061e-06
3.50754e-05
3.89955e-06
3.36992e-05
4.12559e-06
3.22606e-05
4.31286e-06
3.07754e-05
4.45325e-06
2.92518e-05
4.56568e-06
2.77062e-05
4.63522e-06
2.61506e-05
4.6648e-06
2.45951e-05
4.66412e-06
2.30508e-05
4.6309e-06
2.15273e-05
4.57048e-06
2.00314e-05
4.4846e-06
1.85679e-05
4.38777e-06
1.71477e-05
4.25971e-06
1.57748e-05
4.11758e-06
1.44538e-05
3.96199e-06
1.31902e-05
3.78925e-06
1.19822e-05
3.62385e-06
1.08363e-05
3.43789e-06
9.75327e-06
3.24747e-06
8.73289e-06
3.06151e-06
7.77643e-06
2.86938e-06
6.88404e-06
2.67794e-06
6.05452e-06
2.48696e-06
5.28634e-06
2.30532e-06
4.58033e-06
2.11862e-06
3.93061e-06
1.94901e-06
3.33874e-06
1.77635e-06
2.80223e-06
1.60895e-06
2.31723e-06
1.45596e-06
1.88249e-06
1.30503e-06
1.49545e-06
1.16044e-06
1.1522e-06
1.03092e-06
8.52709e-07
8.99257e-07
5.8931e-07
7.90342e-07
3.64878e-07
6.74585e-07
1.71797e-07
5.78908e-07
1.10085e-08
4.83e-07
-1.21761e-07
3.98809e-07
-2.28593e-07
3.2096e-07
-3.1191e-07
2.504e-07
-3.74044e-07
1.86834e-07
-4.17239e-07
1.29991e-07
-4.4359e-07
7.93813e-08
-4.55146e-07
3.50992e-08
-4.53768e-07
-3.7854e-09
-4.41194e-07
-3.74024e-08
-4.19035e-07
-6.61786e-08
-3.88778e-07
-9.04979e-08
-3.51788e-07
-1.10725e-07
-3.09343e-07
-1.27097e-07
-2.62577e-07
-1.40082e-07
-2.12555e-07
-1.49863e-07
-1.60188e-07
-1.56923e-07
-1.06341e-07
-1.61383e-07
-5.17683e-08
-1.63576e-07
2.85571e-09
-1.63748e-07
5.69605e-08
-1.62205e-07
1.1004e-07
-1.59144e-07
1.61659e-07
-1.54777e-07
2.11451e-07
-1.49306e-07
2.59108e-07
-1.42914e-07
3.04379e-07
-1.35768e-07
3.47065e-07
-1.28022e-07
3.87013e-07
-1.19815e-07
4.2411e-07
-1.11271e-07
4.58282e-07
-1.02503e-07
4.89488e-07
-9.36129e-08
5.17716e-07
-8.46837e-08
5.4298e-07
-7.57963e-08
5.65316e-07
-6.70175e-08
5.84781e-07
-5.84079e-08
6.01447e-07
-5.00165e-08
6.15401e-07
-4.18789e-08
6.2674e-07
-3.40395e-08
6.35574e-07
-2.65256e-08
6.42019e-07
-1.93615e-08
6.462e-07
-1.25697e-08
6.48256e-07
-6.19768e-09
6.48287e-07
-1.2018e-10
6.46443e-07
5.50438e-09
6.42854e-07
1.07382e-08
6.37649e-07
1.55865e-08
6.30955e-07
2.00552e-08
6.22896e-07
2.41507e-08
6.13594e-07
2.78796e-08
6.03169e-07
3.12488e-08
5.91738e-07
3.42669e-08
5.79415e-07
3.69428e-08
5.66311e-07
3.92878e-08
5.52532e-07
4.13143e-08
5.3818e-07
4.3036e-08
5.2335e-07
4.44682e-08
5.08135e-07
4.56266e-08
4.92619e-07
4.65272e-08
4.76885e-07
4.71868e-08
4.61005e-07
4.76218e-08
4.45051e-07
4.78484e-08
4.29085e-07
4.78831e-08
4.13167e-07
4.77419e-08
3.97349e-07
4.74405e-08
3.81681e-07
4.69941e-08
3.66205e-07
4.64171e-08
3.50961e-07
4.57236e-08
3.35983e-07
4.49266e-08
3.21301e-07
4.40385e-08
3.06942e-07
4.30714e-08
2.92928e-07
4.20363e-08
2.79279e-07
4.09439e-08
2.66009e-07
3.9804e-08
2.53133e-07
3.86256e-08
2.40659e-07
3.74175e-08
2.28596e-07
3.61873e-08
2.16948e-07
3.49421e-08
2.05718e-07
3.36888e-08
1.94907e-07
3.24331e-08
1.84513e-07
3.11806e-08
1.74535e-07
2.99361e-08
1.64967e-07
2.87038e-08
1.55804e-07
2.74876e-08
1.47041e-07
2.6291e-08
1.38669e-07
2.51169e-08
1.3068e-07
2.39681e-08
1.23065e-07
2.28469e-08
1.15813e-07
2.17553e-08
1.08915e-07
2.06947e-08
1.02361e-07
1.96665e-08
9.61373e-08
1.86715e-08
9.02344e-08
1.77104e-08
8.46404e-08
1.67839e-08
7.93435e-08
1.58924e-08
7.43321e-08
1.50361e-08
6.95944e-08
1.42149e-08
6.51188e-08
1.34288e-08
6.08936e-08
1.26773e-08
5.69076e-08
1.19601e-08
5.31493e-08
1.12767e-08
4.96077e-08
1.06265e-08
4.62719e-08
1.0009e-08
4.31313e-08
9.42361e-09
4.01751e-08
8.86999e-09
3.7393e-08
8.34804e-09
3.47747e-08
7.85621e-09
3.23119e-08
7.38959e-09
2.99975e-08
6.94472e-09
2.78244e-08
6.52048e-09
2.57859e-08
6.11662e-09
5.733e-09
-3.33766e-05
6.6684e-05
-4.91772e-05
6.31592e-05
-6.42065e-05
6.00765e-05
-7.83679e-05
5.66093e-05
-9.15562e-05
5.27199e-05
-0.000103808
4.89792e-05
-0.000115062
4.49932e-05
-0.00012537
4.12159e-05
-0.000134723
3.74069e-05
-0.000143119
3.35719e-05
-0.000150616
2.99801e-05
-0.000157248
2.65179e-05
-0.000163041
2.31733e-05
-0.000168043
2.00046e-05
-0.000172281
1.69406e-05
-0.000175793
1.4042e-05
-0.000178634
1.13455e-05
-0.000180773
8.55662e-06
-0.000182268
5.97854e-06
-0.000183119
3.50995e-06
-0.000183304
8.77136e-07
-0.000182786
-2.00309e-06
-0.00018161
-4.75466e-06
-0.000179639
-7.88583e-06
-0.000176893
-1.09778e-05
-0.000173295
-1.4412e-05
-0.000168868
-1.77362e-05
-0.000163592
-2.11497e-05
-0.000157262
-2.53168e-05
-0.000149964
-2.92085e-05
-0.000141713
-3.30117e-05
-0.000132336
-3.75121e-05
-0.000121975
-4.14477e-05
-0.000110501
-4.58942e-05
-9.80365e-05
-4.98582e-05
-8.47753e-05
-5.30188e-05
-7.03795e-05
-5.75411e-05
-5.51176e-05
-6.10127e-05
-3.91432e-05
-6.3958e-05
-2.23386e-05
-6.71475e-05
-4.98073e-06
-6.93278e-05
1.28964e-05
-7.13709e-05
3.11587e-05
-7.29303e-05
4.94492e-05
-7.3063e-05
6.7804e-05
-7.32894e-05
8.59593e-05
-7.2531e-05
0.000103596
-7.04604e-05
0.000120651
-6.81285e-05
0.000136971
-6.51487e-05
0.000152185
-6.0784e-05
0.000166277
-5.6256e-05
0.000178889
-5.03672e-05
0.000190006
-4.44075e-05
0.000199489
-3.78488e-05
0.000207042
-3.01744e-05
0.000212737
-2.26831e-05
0.000216401
-1.46117e-05
0.000217841
-5.66985e-06
0.000217005
3.28349e-06
0.000213985
1.21131e-05
0.000208799
2.07786e-05
0.000201423
2.95222e-05
0.000191849
3.82509e-05
0.000180313
4.60452e-05
0.000166923
5.34456e-05
0.00015186
6.01164e-05
0.000135362
6.58413e-05
0.000117659
7.06457e-05
9.90719e-05
7.41744e-05
7.98378e-05
7.67673e-05
6.03132e-05
7.79348e-05
4.0801e-05
7.78821e-05
2.15625e-05
7.68223e-05
2.85559e-06
7.47044e-05
-1.50797e-05
7.16035e-05
-3.20493e-05
6.781e-05
-4.79165e-05
6.34062e-05
-6.25756e-05
5.86094e-05
-7.59603e-05
5.34813e-05
-8.79879e-05
4.80884e-05
-9.8671e-05
4.27363e-05
-0.000108025
3.74255e-05
-0.000116057
3.21461e-05
-0.000122847
2.72167e-05
-0.000128433
2.23494e-05
-0.000132903
1.79049e-05
-0.000136309
1.36629e-05
-0.000138718
9.65017e-06
-0.000140255
6.20252e-06
-0.000140978
2.93913e-06
-0.000140903
-1.26089e-07
-0.000140232
-2.78528e-06
-0.000138926
-5.1683e-06
-0.000137118
-7.16584e-06
-0.000134788
-9.30681e-06
-0.00013201
-1.10702e-05
-0.000128773
-1.29002e-05
-0.000125149
-1.45371e-05
-0.000121084
-1.62524e-05
-0.000116588
-1.79955e-05
-0.000111638
-1.98175e-05
-0.000106225
-2.16724e-05
-0.000100282
-2.37642e-05
-9.38376e-05
-2.57826e-05
-8.68498e-05
-2.79538e-05
-7.93049e-05
-3.01844e-05
-7.11946e-05
-3.24409e-05
-6.25232e-05
-3.4688e-05
-5.32987e-05
-3.69165e-05
-4.35137e-05
-3.91426e-05
-3.32361e-05
-4.10479e-05
-2.25019e-05
-4.2885e-05
-1.13238e-05
-4.46897e-05
2.02887e-07