/*--------------------------------*- C++ -*----------------------------------*\
| =========                 |                                                 |
| \\      /  F ield         | OpenFOAM: The Open Source CFD Toolbox           |
|  \\    /   O peration     | Version:  3.0.1                                 |
|   \\  /    A nd           | Web:      www.OpenFOAM.org                      |
|    \\/     M anipulation  |                                                 |
\*---------------------------------------------------------------------------*/
FoamFile
{
    version     2.0;
    format      ascii;
    class       volVectorField;
    location    "28.8";
    object      U;
}
// * * * * * * * * * * * * * * * * * * * * * * * * * * * * * * * * * * * * * //

dimensions      [0 1 -1 0 0 0 0];

internalField   nonuniform List<vector> 
22680
(
(0.177429 -0.00118788 0)
(0.186247 -0.00102281 0)
(0.194093 -0.000832913 0)
(0.200313 -0.000637005 0)
(0.204818 -0.000428836 0)
(0.207551 -0.000216334 0)
(0.208468 -1.67276e-06 0)
(0.207598 0.000209016 0)
(0.204933 0.000419126 0)
(0.200538 0.000616233 0)
(0.194508 0.000808402 0)
(0.186941 0.000975551 0)
(0.177965 0.00114153 0)
(0.167724 0.00127019 0)
(0.156374 0.0014028 0)
(0.144077 0.0015201 0)
(0.131002 0.00158532 0)
(0.117319 0.00166395 0)
(0.103194 0.00168806 0)
(0.0887887 0.00172931 0)
(0.0742526 0.0017176 0)
(0.0597255 0.00172507 0)
(0.0453361 0.00168473 0)
(0.0311979 0.0016641 0)
(0.0174327 0.00160331 0)
(0.00405349 0.00156274 0)
(-0.00889106 0.00148893 0)
(-0.0212682 0.00143363 0)
(-0.0330603 0.00135391 0)
(-0.0442552 0.00129156 0)
(-0.0548457 0.00121201 0)
(-0.0648335 0.00114806 0)
(-0.0742291 0.00107293 0)
(-0.0830504 0.00101157 0)
(-0.0913211 0.000951203 0)
(-0.0990665 0.000886879 0)
(-0.106317 0.000832584 0)
(-0.113102 0.000776607 0)
(-0.119452 0.000728528 0)
(-0.125394 0.000680019 0)
(-0.130954 0.000637236 0)
(-0.136152 0.000594352 0)
(-0.141005 0.000554903 0)
(-0.145523 0.000515076 0)
(-0.149711 0.000476479 0)
(-0.153569 0.000436848 0)
(-0.157091 0.000396524 0)
(-0.160264 0.000354296 0)
(-0.163071 0.000309733 0)
(-0.165493 0.000262486 0)
(-0.167503 0.000211799 0)
(-0.169068 0.000157116 0)
(-0.170156 9.87509e-05 0)
(-0.17073 3.84081e-05 0)
(-0.170785 -2.80713e-05 0)
(-0.170255 -9.79412e-05 0)
(-0.169121 -0.000172452 0)
(-0.16735 -0.0002489 0)
(-0.164911 -0.000330395 0)
(-0.161782 -0.000411182 0)
(-0.157943 -0.000499074 0)
(-0.15338 -0.000582351 0)
(-0.148082 -0.000674329 0)
(-0.142046 -0.00075674 0)
(-0.135266 -0.000850905 0)
(-0.12775 -0.000930752 0)
(-0.119506 -0.0010255 0)
(-0.110546 -0.00110018 0)
(-0.100882 -0.00119325 0)
(-0.0905409 -0.0012597 0)
(-0.0795773 -0.00132362 0)
(-0.0679898 -0.00140892 0)
(-0.0558249 -0.00146036 0)
(-0.043118 -0.00153693 0)
(-0.0299341 -0.00157543 0)
(-0.016332 -0.0016367 0)
(-0.00236856 -0.00166214 0)
(0.0118652 -0.00170358 0)
(0.0263162 -0.00171027 0)
(0.0408791 -0.00172832 0)
(0.0554554 -0.00171422 0)
(0.0699431 -0.00170574 0)
(0.084225 -0.00166855 0)
(0.0981968 -0.00163087 0)
(0.111742 -0.00156777 0)
(0.12475 -0.0015027 0)
(0.13709 -0.0014159 0)
(0.148655 -0.00132083 0)
(0.159369 -0.00121279 0)
(0.16907 -0.00108459 0)
(0.177689 -0.000953124 0)
(0.185088 -0.000804545 0)
(0.191218 -0.00065357 0)
(0.196001 -0.000485811 0)
(0.199387 -0.000319954 0)
(0.201298 -0.000141917 0)
(0.201701 2.7651e-05 0)
(0.200639 0.00021217 0)
(0.198008 0.000388802 0)
(0.193878 0.000565295 0)
(0.18831 0.000732025 0)
(0.181364 0.000900448 0)
(0.173072 0.0010447 0)
(0.163605 0.00118972 0)
(0.152972 0.00131543 0)
(0.141335 0.00142991 0)
(0.128824 0.00152614 0)
(0.11554 0.00161271 0)
(0.101635 0.0016733 0)
(0.087243 0.00172837 0)
(0.0725086 0.00176169 0)
(0.0575428 0.00177784 0)
(0.0424986 0.00178229 0)
(0.0274954 0.00176859 0)
(0.0126662 0.00174307 0)
(-0.00186675 0.00170014 0)
(-0.016013 0.00165143 0)
(-0.0296584 0.00158227 0)
(-0.0427296 0.00151809 0)
(-0.055179 0.00143378 0)
(-0.0669649 0.00135915 0)
(-0.0780282 0.00125941 0)
(-0.0883458 0.00118153 0)
(-0.0978788 0.00108467 0)
(-0.106702 0.00100466 0)
(-0.114797 0.000913048 0)
(-0.122183 0.000838314 0)
(-0.128853 0.000746489 0)
(-0.134849 0.000672416 0)
(-0.140183 0.000591293 0)
(-0.144862 0.000523886 0)
(-0.148984 0.000450562 0)
(-0.152534 0.000389474 0)
(-0.15558 0.000328671 0)
(-0.158122 0.000275516 0)
(-0.160225 0.000223291 0)
(-0.161912 0.000175687 0)
(-0.163217 0.0001332 0)
(-0.16415 8.89232e-05 0)
(-0.164736 5.08076e-05 0)
(-0.165014 1.37239e-05 0)
(-0.164972 -2.38306e-05 0)
(-0.164602 -6.15508e-05 0)
(-0.163912 -9.82722e-05 0)
(-0.162909 -0.000139709 0)
(-0.161548 -0.000178551 0)
(-0.159832 -0.00022505 0)
(-0.15774 -0.000270706 0)
(-0.155246 -0.00031592 0)
(-0.152335 -0.000368077 0)
(-0.148977 -0.000424142 0)
(-0.145151 -0.000484771 0)
(-0.140823 -0.000543123 0)
(-0.135916 -0.000613302 0)
(-0.130418 -0.000690426 0)
(-0.124297 -0.000766534 0)
(-0.117442 -0.000850423 0)
(-0.109847 -0.000940992 0)
(-0.101495 -0.00103448 0)
(-0.0923445 -0.00113013 0)
(-0.082401 -0.00122538 0)
(-0.0716481 -0.00131931 0)
(-0.060108 -0.00141011 0)
(-0.0478673 -0.00149938 0)
(-0.0348785 -0.00157151 0)
(-0.0212499 -0.00165069 0)
(-0.0070179 -0.00171008 0)
(0.00775351 -0.00176358 0)
(0.0228233 -0.00180217 0)
(0.0381329 -0.00182843 0)
(0.0535787 -0.00183142 0)
(0.0690096 -0.00182025 0)
(0.0842591 -0.00179049 0)
(0.0991506 -0.0017391 0)
(0.113538 -0.00166819 0)
(0.127266 -0.00158065 0)
(0.140179 -0.00147336 0)
(0.152107 -0.00134804 0)
(0.162882 -0.00120202 0)
(0.172342 -0.00103776 0)
(0.180399 -0.000868299 0)
(0.18695 -0.00068184 0)
(0.191956 -0.000499908 0)
(0.195354 -0.000307048 0)
(0.19713 -0.000115672 0)
(0.197299 7.47929e-05 0)
(0.195862 0.000261161 0)
(0.192819 0.000449568 0)
(0.188292 0.00062406 0)
(0.182328 0.000785647 0)
(0.175019 0.000938918 0)
(0.166509 0.001073 0)
(0.156892 0.00119708 0)
(0.146355 0.00129464 0)
(0.13501 0.00138516 0)
(0.123036 0.00144967 0)
(0.110561 0.00150872 0)
(0.0976848 0.00154209 0)
(0.0845254 0.00157411 0)
(0.0711768 0.00158749 0)
(0.0577874 0.00158962 0)
(0.0444242 0.00157892 0)
(0.0311613 0.00156523 0)
(0.0180851 0.00153598 0)
(0.00522196 0.00150853 0)
(-0.0073518 0.00147299 0)
(-0.0196127 0.00142926 0)
(-0.031489 0.00138993 0)
(-0.0429664 0.00133205 0)
(-0.0540657 0.00129194 0)
(-0.0646941 0.00123308 0)
(-0.0748678 0.0011841 0)
(-0.0845885 0.00112077 0)
(-0.093867 0.00104467 0)
(-0.102439 0.000915275 0)
(-0.109729 0.000826873 0)
(-0.115968 0.000831708 0)
(-0.122178 0.00102537 0)
(-0.129811 0.00119451 0)
(-0.139185 0.00155682 0)
(-0.149188 0.0011565 0)
(-0.155388 -0.000181562 0)
(-0.157741 -0.00217458 0)
(-0.152333 -0.0070847 0)
(-0.123972 -0.0145584 0)
(0.177506 -0.0035646 0)
(0.186332 -0.00306928 0)
(0.194184 -0.00249942 0)
(0.20041 -0.00191154 0)
(0.204917 -0.00128683 0)
(0.207652 -0.000649061 0)
(0.20857 -4.29281e-06 0)
(0.2077 0.00062676 0)
(0.205028 0.00125792 0)
(0.20063 0.00184926 0)
(0.194594 0.00242597 0)
(0.187019 0.00292752 0)
(0.178037 0.00342558 0)
(0.167785 0.00381159 0)
(0.156427 0.00420949 0)
(0.144122 0.00456145 0)
(0.131036 0.00475705 0)
(0.117344 0.00499297 0)
(0.10321 0.00506522 0)
(0.0887964 0.00518891 0)
(0.0742525 0.00515369 0)
(0.0597182 0.00517601 0)
(0.0453228 0.00505489 0)
(0.0311789 0.00499293 0)
(0.0174099 0.00481042 0)
(0.00402651 0.00468868 0)
(-0.00892047 0.00446697 0)
(-0.0213001 0.00430106 0)
(-0.0330928 0.00406184 0)
(-0.0442887 0.0038747 0)
(-0.0548787 0.00363602 0)
(-0.0648663 0.00344411 0)
(-0.0742606 0.00321866 0)
(-0.083081 0.00303456 0)
(-0.0913503 0.00285344 0)
(-0.0990938 0.00266047 0)
(-0.106343 0.00249757 0)
(-0.113126 0.00232965 0)
(-0.119474 0.00218544 0)
(-0.125415 0.00203995 0)
(-0.130974 0.00191162 0)
(-0.136171 0.001783 0)
(-0.141024 0.00166468 0)
(-0.145541 0.00154524 0)
(-0.14973 0.0014295 0)
(-0.153588 0.00131065 0)
(-0.15711 0.00118968 0)
(-0.160284 0.00106306 0)
(-0.163093 0.000929383 0)
(-0.165516 0.000787654 0)
(-0.167527 0.000635595 0)
(-0.169094 0.000471511 0)
(-0.170186 0.000296344 0)
(-0.170761 0.000116299 0)
(-0.170818 -8.38436e-05 0)
(-0.17029 -0.000293611 0)
(-0.169158 -0.000517245 0)
(-0.167388 -0.000746487 0)
(-0.164951 -0.00099101 0)
(-0.161823 -0.00123341 0)
(-0.157985 -0.0014971 0)
(-0.153423 -0.00174696 0)
(-0.148126 -0.00202299 0)
(-0.14209 -0.00227016 0)
(-0.13531 -0.00255271 0)
(-0.127793 -0.00279228 0)
(-0.11955 -0.00307658 0)
(-0.110589 -0.00330061 0)
(-0.100924 -0.00357981 0)
(-0.0905818 -0.00377938 0)
(-0.0796172 -0.00397103 0)
(-0.0680277 -0.004227 0)
(-0.0558609 -0.00438139 0)
(-0.0431512 -0.00461111 0)
(-0.0299641 -0.00472689 0)
(-0.0163588 -0.00491062 0)
(-0.00239119 -0.00498697 0)
(0.0118475 -0.00511165 0)
(0.0263035 -0.00513179 0)
(0.0408725 -0.0051861 0)
(0.055455 -0.00514361 0)
(0.0699493 -0.00511936 0)
(0.0842392 -0.00500496 0)
(0.0982173 -0.00489498 0)
(0.111771 -0.0047037 0)
(0.124785 -0.0045106 0)
(0.137133 -0.00424973 0)
(0.148707 -0.00396215 0)
(0.159426 -0.00364186 0)
(0.169135 -0.00325318 0)
(0.17776 -0.00286052 0)
(0.185165 -0.00241364 0)
(0.191301 -0.00196182 0)
(0.196086 -0.00145999 0)
(0.199475 -0.000962558 0)
(0.20139 -0.000427457 0)
(0.201796 8.44503e-05 0)
(0.200724 0.000637809 0)
(0.198094 0.00116672 0)
(0.193962 0.00169555 0)
(0.188393 0.00219794 0)
(0.18144 0.00270099 0)
(0.173143 0.00313548 0)
(0.163669 0.0035688 0)
(0.153028 0.0039478 0)
(0.141383 0.00428853 0)
(0.128862 0.00457874 0)
(0.115567 0.00483589 0)
(0.101651 0.00502206 0)
(0.0872473 0.00517806 0)
(0.0725084 0.00528471 0)
(0.0575397 0.00533918 0)
(0.0424918 0.00535251 0)
(0.0274845 0.00531027 0)
(0.0126521 0.00522984 0)
(-0.00188393 0.00510215 0)
(-0.0160378 0.00495329 0)
(-0.0296863 0.00475011 0)
(-0.0427656 0.00455387 0)
(-0.0552179 0.00429901 0)
(-0.0670107 0.00407861 0)
(-0.0780781 0.00377659 0)
(-0.0883969 0.00354179 0)
(-0.097927 0.00324941 0)
(-0.106749 0.00301438 0)
(-0.114845 0.00274004 0)
(-0.122234 0.00250461 0)
(-0.128902 0.00224042 0)
(-0.134899 0.00201824 0)
(-0.140231 0.00176785 0)
(-0.144906 0.00157522 0)
(-0.149025 0.0013577 0)
(-0.152576 0.00116773 0)
(-0.15562 0.000986381 0)
(-0.158163 0.000827248 0)
(-0.160265 0.000669941 0)
(-0.161951 0.00052405 0)
(-0.163255 0.000398147 0)
(-0.164185 0.000270332 0)
(-0.164769 0.000153304 0)
(-0.165046 4.16476e-05 0)
(-0.165006 -7.01208e-05 0)
(-0.164638 -0.000187117 0)
(-0.163947 -0.000297242 0)
(-0.162944 -0.000416681 0)
(-0.161588 -0.000543496 0)
(-0.15987 -0.000673618 0)
(-0.157777 -0.000810879 0)
(-0.155288 -0.000952547 0)
(-0.152381 -0.00110885 0)
(-0.149028 -0.00127344 0)
(-0.145202 -0.00145447 0)
(-0.140875 -0.00163222 0)
(-0.135972 -0.00183566 0)
(-0.130471 -0.00207137 0)
(-0.124346 -0.00229946 0)
(-0.11749 -0.00254775 0)
(-0.109895 -0.00282371 0)
(-0.101542 -0.00310335 0)
(-0.0923929 -0.00339174 0)
(-0.0824508 -0.00367849 0)
(-0.0716997 -0.00395816 0)
(-0.0601625 -0.00423435 0)
(-0.047922 -0.00450126 0)
(-0.0349358 -0.00471755 0)
(-0.0213064 -0.00495931 0)
(-0.00707007 -0.00513372 0)
(0.0077075 -0.0052951 0)
(0.0227855 -0.00540699 0)
(0.0381063 -0.00548359 0)
(0.0535612 -0.00550016 0)
(0.0690024 -0.00546231 0)
(0.0842609 -0.00537092 0)
(0.0991605 -0.00522117 0)
(0.113554 -0.00500516 0)
(0.127288 -0.00474379 0)
(0.140209 -0.00442312 0)
(0.152147 -0.00404151 0)
(0.162932 -0.00360969 0)
(0.172396 -0.00311185 0)
(0.180453 -0.00260468 0)
(0.187002 -0.00205524 0)
(0.192011 -0.00149621 0)
(0.195415 -0.000920956 0)
(0.197193 -0.000349246 0)
(0.197361 0.000218368 0)
(0.195912 0.000788653 0)
(0.192871 0.00134887 0)
(0.18834 0.00186611 0)
(0.182379 0.00236182 0)
(0.175068 0.00282128 0)
(0.16656 0.00322218 0)
(0.156937 0.00359489 0)
(0.146396 0.0038882 0)
(0.135044 0.00415909 0)
(0.123066 0.00434764 0)
(0.110587 0.00452958 0)
(0.0977036 0.00463144 0)
(0.0845342 0.0047192 0)
(0.0711747 0.00475876 0)
(0.0577762 0.00476676 0)
(0.0444064 0.00473346 0)
(0.0311359 0.00469012 0)
(0.0180572 0.0046021 0)
(0.00519363 0.00452841 0)
(-0.00738381 0.00442304 0)
(-0.0196434 0.00428875 0)
(-0.0315196 0.00416659 0)
(-0.0429925 0.00399732 0)
(-0.0540938 0.00387524 0)
(-0.0647245 0.00369491 0)
(-0.0748878 0.00354542 0)
(-0.0845611 0.00336484 0)
(-0.093803 0.00319773 0)
(-0.102579 0.00282889 0)
(-0.110533 0.00239617 0)
(-0.116819 0.00213689 0)
(-0.121655 0.00238709 0)
(-0.125769 0.00281134 0)
(-0.131286 0.00288319 0)
(-0.134688 0.00257077 0)
(-0.135332 0.00171168 0)
(-0.130209 0.000175838 0)
(-0.121773 0.00195378 0)
(-0.103557 0.00373503 0)
(0.17766 -0.0059442 0)
(0.186503 -0.00511827 0)
(0.194366 -0.00416793 0)
(0.200603 -0.00318761 0)
(0.205117 -0.00214579 0)
(0.207854 -0.00108211 0)
(0.208776 -7.76622e-06 0)
(0.207899 0.00104683 0)
(0.20522 0.00209859 0)
(0.200813 0.00308404 0)
(0.194767 0.00404586 0)
(0.187176 0.00488214 0)
(0.178179 0.00571263 0)
(0.167908 0.00635612 0)
(0.156533 0.00701952 0)
(0.14421 0.00760628 0)
(0.131104 0.00793213 0)
(0.117394 0.00832533 0)
(0.103242 0.00844547 0)
(0.0888112 0.00865148 0)
(0.0742514 0.00859239 0)
(0.0597027 0.00862938 0)
(0.0452951 0.00842713 0)
(0.0311398 0.00832363 0)
(0.0173632 0.0080189 0)
(0.00397153 0.00781602 0)
(-0.00898032 0.00744567 0)
(-0.0213649 0.00716898 0)
(-0.0331589 0.00677001 0)
(-0.0443567 0.00645788 0)
(-0.0549456 0.0060599 0)
(-0.0649329 0.00573987 0)
(-0.0743244 0.005364 0)
(-0.0831429 0.00505705 0)
(-0.0914097 0.0047551 0)
(-0.0991494 0.00443349 0)
(-0.106395 0.00416195 0)
(-0.113175 0.00388211 0)
(-0.11952 0.00364183 0)
(-0.125458 0.00339943 0)
(-0.131015 0.00318563 0)
(-0.13621 0.00297138 0)
(-0.141061 0.0027743 0)
(-0.145578 0.00257537 0)
(-0.149767 0.00238262 0)
(-0.153626 0.00218466 0)
(-0.157149 0.00198312 0)
(-0.160325 0.00177219 0)
(-0.163136 0.00154951 0)
(-0.165562 0.00131333 0)
(-0.167576 0.00106013 0)
(-0.169145 0.000787571 0)
(-0.170243 0.000495886 0)
(-0.170826 0.000192725 0)
(-0.170882 -0.000139004 0)
(-0.170358 -0.000488777 0)
(-0.16923 -0.000861935 0)
(-0.167463 -0.00124345 0)
(-0.165028 -0.00165121 0)
(-0.161902 -0.00205535 0)
(-0.158067 -0.00249488 0)
(-0.153505 -0.00291138 0)
(-0.148209 -0.00337149 0)
(-0.142173 -0.003784 0)
(-0.135394 -0.00425451 0)
(-0.127875 -0.00465403 0)
(-0.119631 -0.00512804 0)
(-0.110667 -0.00550141 0)
(-0.101 -0.00596666 0)
(-0.0906544 -0.00629997 0)
(-0.0796866 -0.00661915 0)
(-0.0680924 -0.00704591 0)
(-0.0559208 -0.00730338 0)
(-0.0432049 -0.00768642 0)
(-0.0300108 -0.00787972 0)
(-0.0163984 -0.00818633 0)
(-0.00242238 -0.0083136 0)
(0.0118263 -0.00852197 0)
(0.0262923 -0.00855525 0)
(0.0408725 -0.00864644 0)
(0.0554664 -0.00857552 0)
(0.0699729 -0.00853541 0)
(0.0842754 -0.00834478 0)
(0.0982662 -0.00816271 0)
(0.111831 -0.00784288 0)
(0.124856 -0.00752132 0)
(0.137217 -0.00708602 0)
(0.148803 -0.00660887 0)
(0.159534 -0.00607292 0)
(0.169254 -0.00542525 0)
(0.177889 -0.00477106 0)
(0.185305 -0.00402553 0)
(0.191449 -0.0032731 0)
(0.196242 -0.00243554 0)
(0.199636 -0.00160824 0)
(0.201557 -0.00071892 0)
(0.20196 0.000142053 0)
(0.200877 0.00106947 0)
(0.198257 0.00194439 0)
(0.194122 0.0028281 0)
(0.188552 0.00366279 0)
(0.181586 0.00450299 0)
(0.17328 0.00522784 0)
(0.163794 0.00595311 0)
(0.153139 0.00657939 0)
(0.141476 0.00715526 0)
(0.128937 0.00763323 0)
(0.115614 0.00806557 0)
(0.101672 0.00837316 0)
(0.0872489 0.00863823 0)
(0.0724908 0.00881351 0)
(0.0575064 0.00889991 0)
(0.0424488 0.00892062 0)
(0.0274367 0.00885012 0)
(0.0125977 0.00871749 0)
(-0.0019446 0.00850535 0)
(-0.0161162 0.00825782 0)
(-0.0297758 0.00791721 0)
(-0.0428744 0.00759089 0)
(-0.0553288 0.00716587 0)
(-0.0671364 0.0067989 0)
(-0.0782053 0.00629507 0)
(-0.0885207 0.0059025 0)
(-0.0980421 0.00541455 0)
(-0.106866 0.00502784 0)
(-0.11496 0.00456252 0)
(-0.122351 0.00417903 0)
(-0.129018 0.0037339 0)
(-0.135016 0.00336153 0)
(-0.140334 0.00295106 0)
(-0.145009 0.00262173 0)
(-0.149123 0.00225747 0)
(-0.152668 0.00194665 0)
(-0.155706 0.00164384 0)
(-0.158243 0.00137799 0)
(-0.160341 0.00111708 0)
(-0.162021 0.000873263 0)
(-0.163322 0.000661619 0)
(-0.164246 0.000449399 0)
(-0.164828 0.000254906 0)
(-0.165103 6.66904e-05 0)
(-0.165064 -0.000118892 0)
(-0.164699 -0.000310622 0)
(-0.164009 -0.000497173 0)
(-0.163007 -0.000695284 0)
(-0.16165 -0.000904286 0)
(-0.159935 -0.00112255 0)
(-0.15784 -0.00135001 0)
(-0.155353 -0.00158565 0)
(-0.152455 -0.00184558 0)
(-0.149115 -0.00212159 0)
(-0.145297 -0.00242051 0)
(-0.140973 -0.0027208 0)
(-0.136079 -0.00306214 0)
(-0.130577 -0.00344935 0)
(-0.124448 -0.00384159 0)
(-0.11759 -0.0042503 0)
(-0.109995 -0.00470837 0)
(-0.101644 -0.00517497 0)
(-0.0924999 -0.00565298 0)
(-0.0825627 -0.0061307 0)
(-0.0718148 -0.00659748 0)
(-0.0602847 -0.00705439 0)
(-0.0480469 -0.00750201 0)
(-0.0350651 -0.00786525 0)
(-0.021431 -0.00826871 0)
(-0.00718165 -0.00855194 0)
(0.00760834 -0.00882671 0)
(0.0227024 -0.00901591 0)
(0.038045 -0.00914647 0)
(0.0535244 -0.00916829 0)
(0.0689852 -0.00911061 0)
(0.0842693 -0.00895793 0)
(0.0991938 -0.00870391 0)
(0.113604 -0.00834617 0)
(0.127351 -0.00790896 0)
(0.140289 -0.00737542 0)
(0.152253 -0.00674428 0)
(0.163062 -0.00601658 0)
(0.17253 -0.00518766 0)
(0.180587 -0.00434425 0)
(0.187145 -0.00342643 0)
(0.192159 -0.00249702 0)
(0.195571 -0.00153218 0)
(0.19735 -0.000587277 0)
(0.197506 0.000375564 0)
(0.196048 0.00131422 0)
(0.19301 0.00224826 0)
(0.188471 0.00311436 0)
(0.182502 0.00393486 0)
(0.175185 0.00470197 0)
(0.166677 0.00537061 0)
(0.15704 0.00599349 0)
(0.146485 0.00648132 0)
(0.13511 0.00693402 0)
(0.123122 0.00725056 0)
(0.11062 0.00755148 0)
(0.0977218 0.00771616 0)
(0.0845333 0.00787368 0)
(0.0711508 0.00793627 0)
(0.0577315 0.00794688 0)
(0.0443455 0.00789256 0)
(0.0310593 0.00781794 0)
(0.0179763 0.00767942 0)
(0.00510336 0.00755077 0)
(-0.00748928 0.00737053 0)
(-0.0197437 0.00714622 0)
(-0.0316194 0.00694389 0)
(-0.0430776 0.00666073 0)
(-0.0541736 0.00646008 0)
(-0.0647984 0.00615581 0)
(-0.0749604 0.00590265 0)
(-0.0846217 0.00558968 0)
(-0.0938443 0.00533024 0)
(-0.102585 0.00483217 0)
(-0.110738 0.00419669 0)
(-0.117719 0.00346592 0)
(-0.121754 0.0032449 0)
(-0.123471 0.00332425 0)
(-0.123635 0.00374305 0)
(-0.123916 0.00242316 0)
(-0.12204 -0.00101356 0)
(-0.120124 -0.00531568 0)
(-0.1177 -0.00917083 0)
(-0.0931219 -0.0170735 0)
(0.177892 -0.00832859 0)
(0.186759 -0.00717146 0)
(0.194639 -0.00583981 0)
(0.200893 -0.00446622 0)
(0.205416 -0.00300634 0)
(0.208158 -0.00151612 0)
(0.209086 -1.35073e-05 0)
(0.208195 0.00147239 0)
(0.20551 0.00294211 0)
(0.201087 0.00432184 0)
(0.195027 0.00566965 0)
(0.18741 0.00684119 0)
(0.178393 0.0080047 0)
(0.168092 0.00890586 0)
(0.156692 0.0098351 0)
(0.144344 0.0106569 0)
(0.131206 0.0111128 0)
(0.11747 0.0116633 0)
(0.103289 0.0118309 0)
(0.0888332 0.012119 0)
(0.0742497 0.0120355 0)
(0.0596792 0.0120868 0)
(0.0452535 0.0118028 0)
(0.0310811 0.0116574 0)
(0.0172932 0.0112296 0)
(0.00388891 0.0109457 0)
(-0.00907029 0.0104256 0)
(-0.0214622 0.0100377 0)
(-0.0332581 0.0094786 0)
(-0.0444588 0.00904115 0)
(-0.055046 0.00848359 0)
(-0.0650328 0.00803517 0)
(-0.0744203 0.00750869 0)
(-0.0832358 0.0070787 0)
(-0.0914987 0.0066558 0)
(-0.0992327 0.00620552 0)
(-0.106474 0.00582532 0)
(-0.113248 0.00543358 0)
(-0.119589 0.00509735 0)
(-0.125522 0.00475818 0)
(-0.131076 0.00445904 0)
(-0.136268 0.00415931 0)
(-0.141117 0.00388366 0)
(-0.145633 0.00360543 0)
(-0.149822 0.00333592 0)
(-0.153682 0.003059 0)
(-0.157208 0.00277704 0)
(-0.160386 0.00248196 0)
(-0.163201 0.00217043 0)
(-0.165631 0.0018399 0)
(-0.167649 0.00148569 0)
(-0.169222 0.00110517 0)
(-0.170328 0.000697662 0)
(-0.170922 0.000267773 0)
(-0.170978 -0.000193512 0)
(-0.17046 -0.000683063 0)
(-0.169338 -0.00120634 0)
(-0.167574 -0.00173918 0)
(-0.165144 -0.00231067 0)
(-0.162021 -0.00287679 0)
(-0.15819 -0.00349228 0)
(-0.153628 -0.00407542 0)
(-0.148334 -0.00471954 0)
(-0.142296 -0.00529803 0)
(-0.135518 -0.00595681 0)
(-0.127997 -0.00651605 0)
(-0.119752 -0.00718007 0)
(-0.110784 -0.00770276 0)
(-0.101114 -0.00835335 0)
(-0.0907633 -0.0088232 0)
(-0.0797908 -0.0092683 0)
(-0.0681896 -0.00986615 0)
(-0.0560108 -0.0102268 0)
(-0.0432858 -0.0107635 0)
(-0.0300813 -0.0110348 0)
(-0.0164584 -0.0114646 0)
(-0.00246974 -0.0116424 0)
(0.0117941 -0.0119352 0)
(0.0262745 -0.0119815 0)
(0.040872 -0.01211 0)
(0.0554823 -0.0120106 0)
(0.0700077 -0.0119553 0)
(0.0843289 -0.0116874 0)
(0.0983379 -0.011434 0)
(0.111921 -0.0109861 0)
(0.124963 -0.0105364 0)
(0.137343 -0.00992536 0)
(0.148946 -0.00925867 0)
(0.159695 -0.00851024 0)
(0.169431 -0.00759967 0)
(0.178084 -0.00668403 0)
(0.185514 -0.00564014 0)
(0.191671 -0.00458694 0)
(0.196474 -0.00341609 0)
(0.199877 -0.00225735 0)
(0.201804 -0.0010163 0)
(0.202206 0.00020203 0)
(0.201112 0.00150499 0)
(0.198503 0.00272196 0)
(0.19436 0.003961 0)
(0.188788 0.00512972 0)
(0.181803 0.00630423 0)
(0.173482 0.00732253 0)
(0.163981 0.00834255 0)
(0.153309 0.00921367 0)
(0.141619 0.0100294 0)
(0.129053 0.0107 0)
(0.115695 0.0113039 0)
(0.101721 0.0117327 0)
(0.0872619 0.0121037 0)
(0.0724786 0.012347 0)
(0.0574745 0.0124648 0)
(0.0423925 0.012492 0)
(0.0273671 0.0123874 0)
(0.0125158 0.0122084 0)
(-0.00203624 0.0119091 0)
(-0.0162328 0.0115658 0)
(-0.0299014 0.0110879 0)
(-0.0430321 0.0106296 0)
(-0.0554768 0.0100368 0)
(-0.0673056 0.00952235 0)
(-0.0783785 0.00881756 0)
(-0.088701 0.00826182 0)
(-0.0981863 0.00757405 0)
(-0.107038 0.00704755 0)
(-0.115126 0.00638201 0)
(-0.12252 0.00585493 0)
(-0.129175 0.0052275 0)
(-0.135176 0.00470428 0)
(-0.140478 0.00413363 0)
(-0.14514 0.00366286 0)
(-0.14926 0.00316264 0)
(-0.152786 0.0027218 0)
(-0.155831 0.00230073 0)
(-0.158349 0.00192256 0)
(-0.160451 0.00156322 0)
(-0.162115 0.0012177 0)
(-0.163413 0.000921159 0)
(-0.164332 0.000630137 0)
(-0.164912 0.000355318 0)
(-0.165186 9.42637e-05 0)
(-0.165145 -0.000169407 0)
(-0.164787 -0.000431436 0)
(-0.164094 -0.000696629 0)
(-0.163096 -0.000973325 0)
(-0.161734 -0.00126871 0)
(-0.160022 -0.00156255 0)
(-0.157923 -0.00188942 0)
(-0.155444 -0.00221841 0)
(-0.152552 -0.00257844 0)
(-0.149228 -0.00296406 0)
(-0.145426 -0.00338308 0)
(-0.141109 -0.00381257 0)
(-0.13622 -0.00428478 0)
(-0.130725 -0.00482543 0)
(-0.124594 -0.00538217 0)
(-0.117738 -0.00595616 0)
(-0.11015 -0.00659303 0)
(-0.101802 -0.0072429 0)
(-0.0926666 -0.00791473 0)
(-0.0827338 -0.00858181 0)
(-0.071981 -0.00923337 0)
(-0.0604587 -0.00987432 0)
(-0.0482176 -0.0104974 0)
(-0.0352287 -0.0110126 0)
(-0.0215889 -0.0115826 0)
(-0.00732815 -0.0119751 0)
(0.00748241 -0.0123622 0)
(0.0225995 -0.0126317 0)
(0.0379699 -0.0128096 0)
(0.0534731 -0.012845 0)
(0.0689642 -0.0127676 0)
(0.0842895 -0.0125496 0)
(0.0992508 -0.0121943 0)
(0.113682 -0.0116929 0)
(0.12745 -0.0110802 0)
(0.140417 -0.0103371 0)
(0.152419 -0.00944886 0)
(0.163272 -0.00842767 0)
(0.172734 -0.0072715 0)
(0.180792 -0.00608216 0)
(0.187371 -0.00479589 0)
(0.192398 -0.00349966 0)
(0.195814 -0.00214688 0)
(0.197606 -0.00081639 0)
(0.197746 0.000537256 0)
(0.196278 0.001849 0)
(0.19324 0.00315091 0)
(0.188679 0.00436234 0)
(0.182702 0.00551445 0)
(0.175364 0.00658521 0)
(0.166848 0.0075208 0)
(0.157193 0.00839736 0)
(0.146616 0.0090826 0)
(0.135198 0.00971046 0)
(0.123189 0.0101564 0)
(0.110668 0.0105764 0)
(0.0977537 0.0108161 0)
(0.08453 0.0110258 0)
(0.0711259 0.0111203 0)
(0.0576896 0.011138 0)
(0.0442744 0.0110561 0)
(0.0309632 0.0109504 0)
(0.0178744 0.0107598 0)
(0.00499533 0.0105788 0)
(-0.00760761 0.01032 0)
(-0.0198741 0.00999987 0)
(-0.0317548 0.00971332 0)
(-0.0431878 0.00932462 0)
(-0.0542876 0.00903693 0)
(-0.0648915 0.00861782 0)
(-0.0750651 0.00825963 0)
(-0.0847156 0.00782102 0)
(-0.0939567 0.00747 0)
(-0.10263 0.00681132 0)
(-0.110802 0.0060123 0)
(-0.118323 0.00472763 0)
(-0.122526 0.00397683 0)
(-0.124115 0.00329222 0)
(-0.122293 0.00298743 0)
(-0.119321 0.00199516 0)
(-0.116744 0.000286673 0)
(-0.114985 -0.00265353 0)
(-0.112553 -0.00434699 0)
(-0.0983961 -0.0106644 0)
(0.178202 -0.0107197 0)
(0.187101 -0.00923052 0)
(0.195004 -0.00751637 0)
(0.20128 -0.00574834 0)
(0.205815 -0.0038691 0)
(0.208564 -0.00195132 0)
(0.209495 -1.65716e-05 0)
(0.208593 0.00189971 0)
(0.205899 0.00378866 0)
(0.201454 0.00556401 0)
(0.195373 0.00729892 0)
(0.187724 0.00880645 0)
(0.178678 0.0103038 0)
(0.168337 0.0114629 0)
(0.156905 0.0126585 0)
(0.144521 0.0137157 0)
(0.131342 0.0143013 0)
(0.11757 0.015009 0)
(0.103351 0.0152235 0)
(0.0888624 0.0155935 0)
(0.0742472 0.0154846 0)
(0.0596478 0.01555 0)
(0.0451979 0.0151831 0)
(0.0310025 0.0149958 0)
(0.0171995 0.0144433 0)
(0.00377852 0.0140783 0)
(-0.00919058 0.0134075 0)
(-0.0215921 0.0129077 0)
(-0.0333906 0.0121878 0)
(-0.0445951 0.0116245 0)
(-0.0551801 0.010907 0)
(-0.0651662 0.0103298 0)
(-0.0745481 0.00965245 0)
(-0.0833598 0.00909916 0)
(-0.0916175 0.00855515 0)
(-0.0993438 0.00797612 0)
(-0.106579 0.00748725 0)
(-0.113345 0.00698369 0)
(-0.119681 0.00655163 0)
(-0.125608 0.00611587 0)
(-0.131157 0.00573158 0)
(-0.136345 0.0053466 0)
(-0.141192 0.00499264 0)
(-0.145707 0.00463539 0)
(-0.149896 0.00428935 0)
(-0.153757 0.00393378 0)
(-0.157286 0.00357161 0)
(-0.160468 0.00319255 0)
(-0.163288 0.00279241 0)
(-0.165723 0.00236761 0)
(-0.167748 0.00191234 0)
(-0.169328 0.00142407 0)
(-0.170441 0.000900312 0)
(-0.171044 0.000344274 0)
(-0.171107 -0.000246608 0)
(-0.170597 -0.00087605 0)
(-0.169482 -0.0015495 0)
(-0.167723 -0.00223336 0)
(-0.165299 -0.00296907 0)
(-0.16218 -0.00369754 0)
(-0.158353 -0.00448949 0)
(-0.153793 -0.00523845 0)
(-0.148501 -0.00606726 0)
(-0.142461 -0.00681177 0)
(-0.135684 -0.00765978 0)
(-0.12816 -0.00837855 0)
(-0.119914 -0.00923287 0)
(-0.11094 -0.00990492 0)
(-0.101267 -0.0107402 0)
(-0.0909092 -0.0113496 0)
(-0.0799295 -0.0119188 0)
(-0.0683193 -0.0126883 0)
(-0.0561312 -0.0131522 0)
(-0.0433939 -0.0138427 0)
(-0.0301759 -0.0141928 0)
(-0.0165384 -0.0147464 0)
(-0.00253409 -0.0149741 0)
(0.0117508 -0.0153524 0)
(0.0262491 -0.0154108 0)
(0.0408709 -0.0155785 0)
(0.055501 -0.0154487 0)
(0.0700542 -0.0153802 0)
(0.084397 -0.0150327 0)
(0.0984339 -0.0147107 0)
(0.112039 -0.0141318 0)
(0.125108 -0.0135567 0)
(0.13751 -0.0127671 0)
(0.149139 -0.0119125 0)
(0.159913 -0.0109527 0)
(0.169665 -0.00977428 0)
(0.178347 -0.00860213 0)
(0.185789 -0.00725424 0)
(0.19197 -0.0059055 0)
(0.196783 -0.0043956 0)
(0.200199 -0.00291002 0)
(0.202132 -0.00131128 0)
(0.202538 0.000256054 0)
(0.201438 0.00194314 0)
(0.198828 0.00349888 0)
(0.194676 0.00509822 0)
(0.189095 0.00659772 0)
(0.18209 0.00810488 0)
(0.173748 0.00942076 0)
(0.164223 0.0107446 0)
(0.153535 0.0118464 0)
(0.141805 0.01292 0)
(0.1292 0.0137681 0)
(0.115821 0.0145504 0)
(0.101811 0.0150992 0)
(0.0873001 0.0155826 0)
(0.0724797 0.0158765 0)
(0.0574601 0.0160461 0)
(0.0423404 0.0160641 0)
(0.0272998 0.0159302 0)
(0.0124071 0.0157056 0)
(-0.00213556 0.0153135 0)
(-0.0163919 0.0148929 0)
(-0.0300368 0.014252 0)
(-0.0432391 0.0136909 0)
(-0.0556383 0.0128968 0)
(-0.0675144 0.012259 0)
(-0.0785604 0.0113342 0)
(-0.0889289 0.0106237 0)
(-0.0983653 0.00971824 0)
(-0.107278 0.00908749 0)
(-0.115316 0.00818731 0)
(-0.122738 0.0075393 0)
(-0.129341 0.00670596 0)
(-0.13537 0.00605172 0)
(-0.140655 0.0053124 0)
(-0.145289 0.00470481 0)
(-0.149442 0.00406217 0)
(-0.15291 0.0034992 0)
(-0.156001 0.00295962 0)
(-0.158463 0.00246347 0)
(-0.160594 0.00201139 0)
(-0.162231 0.00155966 0)
(-0.163528 0.001186 0)
(-0.164443 0.000804884 0)
(-0.165021 0.000460417 0)
(-0.165298 0.000116608 0)
(-0.165243 -0.000218956 0)
(-0.1649 -0.000545822 0)
(-0.164202 -0.000897245 0)
(-0.163217 -0.00125041 0)
(-0.161846 -0.00163468 0)
(-0.16014 -0.00200087 0)
(-0.15803 -0.00242773 0)
(-0.155574 -0.00285062 0)
(-0.15268 -0.00331086 0)
(-0.149367 -0.00380107 0)
(-0.145577 -0.00433897 0)
(-0.14127 -0.00489945 0)
(-0.136391 -0.00550806 0)
(-0.130911 -0.00619653 0)
(-0.124785 -0.00691682 0)
(-0.11794 -0.00766306 0)
(-0.110352 -0.00847192 0)
(-0.102017 -0.00930814 0)
(-0.0928874 -0.0101681 0)
(-0.0829541 -0.0110306 0)
(-0.0721906 -0.0118749 0)
(-0.0606711 -0.012687 0)
(-0.0484168 -0.0134861 0)
(-0.035418 -0.0141758 0)
(-0.021747 -0.0148904 0)
(-0.0074918 -0.01541 0)
(0.00736127 -0.0159073 0)
(0.0225003 -0.0162491 0)
(0.0379029 -0.0164844 0)
(0.0534338 -0.0165223 0)
(0.0689517 -0.0164353 0)
(0.0843432 -0.0161546 0)
(0.0993245 -0.0156869 0)
(0.113811 -0.0150452 0)
(0.127595 -0.0142542 0)
(0.140597 -0.0133054 0)
(0.152651 -0.0121719 0)
(0.163555 -0.0108428 0)
(0.172986 -0.00933956 0)
(0.18108 -0.00782377 0)
(0.187696 -0.00617285 0)
(0.192727 -0.00451262 0)
(0.196133 -0.00274945 0)
(0.197977 -0.00106296 0)
(0.19806 0.000710737 0)
(0.196613 0.00237959 0)
(0.19356 0.00405654 0)
(0.188955 0.00562112 0)
(0.182989 0.00708964 0)
(0.175596 0.00848544 0)
(0.167082 0.00966479 0)
(0.157359 0.0108186 0)
(0.146795 0.0116804 0)
(0.135297 0.0125136 0)
(0.123268 0.0130655 0)
(0.110728 0.0136088 0)
(0.0977908 0.0139134 0)
(0.084539 0.014196 0)
(0.0710729 0.0143114 0)
(0.0576864 0.0143236 0)
(0.0442169 0.0142293 0)
(0.0308631 0.0140933 0)
(0.0178015 0.0138322 0)
(0.00486044 0.0136074 0)
(-0.00769673 0.0132668 0)
(-0.019982 0.0128637 0)
(-0.0318982 0.0124834 0)
(-0.043295 0.0119856 0)
(-0.0544338 0.0116234 0)
(-0.064978 0.011068 0)
(-0.0752281 0.0106259 0)
(-0.0848672 0.010042 0)
(-0.0941506 0.00960391 0)
(-0.102734 0.00878314 0)
(-0.110919 0.0078987 0)
(-0.118555 0.00616564 0)
(-0.123037 0.00473948 0)
(-0.124581 0.00326409 0)
(-0.122803 0.00255354 0)
(-0.119385 0.00118057 0)
(-0.115876 -0.00172733 0)
(-0.114062 -0.00566105 0)
(-0.110579 -0.00898159 0)
(-0.101645 -0.0184585 0)
(0.178589 -0.0131194 0)
(0.187529 -0.0112971 0)
(0.19546 -0.00919896 0)
(0.201765 -0.00703493 0)
(0.206315 -0.00473464 0)
(0.209073 -0.00238753 0)
(0.210005 -1.76939e-05 0)
(0.209093 0.00232829 0)
(0.206387 0.00463965 0)
(0.201913 0.00681187 0)
(0.195807 0.00893526 0)
(0.188115 0.0107797 0)
(0.179035 0.012612 0)
(0.168644 0.0140294 0)
(0.15717 0.0154919 0)
(0.144743 0.0167849 0)
(0.131512 0.0174998 0)
(0.117695 0.0183649 0)
(0.10343 0.0186254 0)
(0.0888985 0.0190769 0)
(0.0742438 0.0189416 0)
(0.0596081 0.0190204 0)
(0.045128 0.0185695 0)
(0.0309038 0.0183399 0)
(0.0170822 0.0176609 0)
(0.00364022 0.0172147 0)
(-0.00934145 0.0163919 0)
(-0.0217548 0.0157792 0)
(-0.0335564 0.0148979 0)
(-0.0447657 0.0142081 0)
(-0.0553479 0.01333 0)
(-0.0653331 0.0126236 0)
(-0.0747081 0.011795 0)
(-0.0835149 0.0111181 0)
(-0.091766 0.0104527 0)