/*--------------------------------*- C++ -*----------------------------------*\
| =========                 |                                                 |
| \\      /  F ield         | OpenFOAM: The Open Source CFD Toolbox           |
|  \\    /   O peration     | Version:  3.0.1                                 |
|   \\  /    A nd           | Web:      www.OpenFOAM.org                      |
|    \\/     M anipulation  |                                                 |
\*---------------------------------------------------------------------------*/
FoamFile
{
    version     2.0;
    format      ascii;
    class       surfaceScalarField;
    location    "58.2";
    object      phi;
}
// * * * * * * * * * * * * * * * * * * * * * * * * * * * * * * * * * * * * * //

dimensions      [0 3 -1 0 0 0 0];

internalField   nonuniform List<scalar> 
42423
(
0.000122175
1.59028e-05
0.000106787
1.53879e-05
9.18037e-05
1.49836e-05
7.7279e-05
1.45247e-05
6.34355e-05
1.38434e-05
5.02007e-05
1.32348e-05
3.77094e-05
1.24913e-05
2.58905e-05
1.1819e-05
1.4871e-05
1.10195e-05
4.59445e-06
1.02765e-05
-4.90463e-06
9.49907e-06
-1.36304e-05
8.72572e-06
-2.15825e-05
7.95215e-06
-2.87773e-05
7.19481e-06
-3.52422e-05
6.46489e-06
-4.10107e-05
5.76845e-06
-4.61009e-05
5.09021e-06
-5.0557e-05
4.45605e-06
-5.44038e-05
3.84684e-06
-5.76518e-05
3.24794e-06
-6.03255e-05
2.67373e-06
-6.2449e-05
2.12346e-06
-6.39894e-05
1.54047e-06
-6.49707e-05
9.81272e-07
-6.54119e-05
4.41202e-07
-6.52521e-05
-1.59812e-07
-6.44904e-05
-7.61781e-07
-6.32061e-05
-1.28423e-06
-6.12454e-05
-1.96074e-06
-5.86933e-05
-2.55218e-06
-5.55205e-05
-3.17278e-06
-5.16246e-05
-3.89587e-06
-4.71481e-05
-4.47651e-06
-4.19192e-05
-5.22898e-06
-3.58781e-05
-6.04107e-06
-2.92859e-05
-6.59222e-06
-2.18393e-05
-7.44667e-06
-1.35446e-05
-8.29466e-06
-4.55446e-06
-8.99022e-06
5.35037e-06
-9.90487e-06
1.6083e-05
-1.07326e-05
2.77491e-05
-1.16661e-05
4.04184e-05
-1.26694e-05
5.38037e-05
-1.33854e-05
6.80918e-05
-1.42882e-05
8.33029e-05
-1.52111e-05
9.91209e-05
-1.58181e-05
0.000115618
-1.64974e-05
0.000132796
-1.71783e-05
0.000150259
-1.74627e-05
0.000168031
-1.77719e-05
0.000185871
-1.78407e-05
0.000203563
-1.76917e-05
0.000220983
-1.74202e-05
0.000237736
-1.67528e-05
0.00025366
-1.59244e-05
0.000268557
-1.48969e-05
0.000282061
-1.35042e-05
0.000294048
-1.19868e-05
0.000304296
-1.02483e-05
0.000312652
-8.35592e-06
0.000319058
-6.40667e-06
0.000323291
-4.23267e-06
0.00032533
-2.03925e-06
0.000325351
-2.07199e-08
0.000323071
2.27969e-06
0.000318532
4.53903e-06
0.000311868
6.66385e-06
0.000303295
8.57318e-06
0.000292903
1.03921e-05
0.000280779
1.21232e-05
0.000266994
1.37852e-05
0.000251603
1.53915e-05
0.000234633
1.69694e-05
0.000216358
1.82752e-05
0.000196979
1.9379e-05
0.000176827
2.01522e-05
0.000156248
2.05789e-05
0.000135552
2.06962e-05
0.000115106
2.04457e-05
9.52396e-05
1.98662e-05
7.61842e-05
1.90554e-05
5.81375e-05
1.80467e-05
4.12869e-05
1.68506e-05
2.57497e-05
1.55372e-05
1.16792e-05
1.40705e-05
-7.17738e-07
1.23969e-05
-1.24941e-05
1.17763e-05
-2.31011e-05
1.0607e-05
-3.26916e-05
9.59053e-06
-4.13055e-05
8.61386e-06
-4.90508e-05
7.74532e-06
-5.59425e-05
6.89174e-06
-6.19556e-05
6.01307e-06
-6.72224e-05
5.26675e-06
-7.1718e-05
4.49557e-06
-7.54528e-05
3.73483e-06
-7.84878e-05
3.03501e-06
-8.08227e-05
2.3349e-06
-8.24482e-05
1.62552e-06
-8.34888e-05
1.04052e-06
-8.38889e-05
4.0009e-07
-8.37447e-05
-1.44211e-07
-8.2939e-05
-8.057e-07
-8.15653e-05
-1.37371e-06
-7.96105e-05
-1.95478e-06
-7.71105e-05
-2.50001e-06
-7.40341e-05
-3.07636e-06
-7.0407e-05
-3.62716e-06
-6.61772e-05
-4.22977e-06
-6.12377e-05
-4.9395e-06
-5.56165e-05
-5.62122e-06
-4.90567e-05
-6.55982e-06
-4.16924e-05
-7.36427e-06
-3.33224e-05
-8.37003e-06
-2.39405e-05
-9.38187e-06
-1.36451e-05
-1.02954e-05
-2.45464e-06
-1.11905e-05
9.31157e-06
-1.17662e-05
2.17646e-05
-1.24531e-05
3.47876e-05
-1.3023e-05
4.82901e-05
-1.35026e-05
6.23192e-05
-1.40292e-05
7.68042e-05
-1.4485e-05
9.17773e-05
-1.49731e-05
0.000107265
-1.54882e-05
0.000123231
-1.59659e-05
0.000139653
-1.64222e-05
0.000156452
-1.67986e-05
0.000173531
-1.70793e-05
0.000190784
-1.72527e-05
0.000208018
-1.72346e-05
0.000225124
-1.71054e-05
0.000241904
-1.67804e-05
0.000258158
-1.62545e-05
0.000273687
-1.55289e-05
0.000288262
-1.45754e-05
0.000301602
-1.334e-05
0.00031353
-1.1928e-05
0.000323802
-1.02716e-05
0.000332155
-8.3533e-06
0.000338439
-6.28387e-06
0.00034249
-4.05095e-06
0.000344227
-1.73781e-06
0.000343626
6.01464e-07
0.000340552
3.07409e-06
0.000335044
5.50784e-06
0.000327233
7.81056e-06
0.000317255
9.97756e-06
0.000305306
1.19494e-05
0.000291589
1.37166e-05
0.000276422
1.51677e-05
0.000260036
1.63859e-05
0.000242622
1.74138e-05
0.000224526
1.8096e-05
0.000206006
1.85191e-05
0.00018735
1.8656e-05
0.000168794
1.85559e-05
0.000150507
1.82875e-05
0.000132659
1.78483e-05
0.000115458
1.72007e-05
9.90017e-05
1.64562e-05
8.33969e-05
1.56048e-05
6.87718e-05
1.46251e-05
5.51716e-05
1.36002e-05
4.25948e-05
1.25767e-05
3.10169e-05
1.15779e-05
2.0486e-05
1.05309e-05
1.10297e-05
9.45622e-06
2.51313e-06
8.51657e-06
-5.05486e-06
7.56797e-06
-1.17808e-05
6.72589e-06
-1.77208e-05
5.93997e-06
-2.2966e-05
5.2452e-06
-2.75908e-05
4.62478e-06
-3.16364e-05
4.04555e-06
-3.52042e-05
3.5678e-06
-3.82456e-05
3.04143e-06
-4.08678e-05
2.62214e-06
-4.29542e-05
2.08642e-06
-4.45252e-05
1.57099e-06
-4.55349e-05
1.00966e-06
-4.6121e-05
5.86149e-07
-4.61557e-05
3.46124e-08
-4.56656e-05
-4.90027e-07
-4.468e-05
-9.85594e-07
-4.31381e-05
-1.54192e-06
-4.10155e-05
-2.12262e-06
-3.84137e-05
-2.60179e-06
-3.52103e-05
-3.20346e-06
-3.13749e-05
-3.83537e-06
-2.69233e-05
-4.45164e-06
-2.17798e-05
-5.14345e-06
-1.59603e-05
-5.81956e-06
-9.34515e-06
-6.61515e-06
-1.91581e-06
-7.42935e-06
6.22444e-06
-8.14025e-06
1.52468e-05
-9.02233e-06
2.51411e-05
-9.89437e-06
3.59227e-05
-1.07816e-05
4.75982e-05
-1.16755e-05
6.01464e-05
-1.25482e-05
7.35314e-05
-1.3385e-05
8.77435e-05
-1.42122e-05
0.00010272
-1.49765e-05
0.000118405
-1.56846e-05
0.000134724
-1.6319e-05
0.000151535
-1.68112e-05
0.000168777
-1.72423e-05
0.000186297
-1.75206e-05
0.000203932
-1.76348e-05
0.000221463
-1.75308e-05
0.000238607
-1.71445e-05
0.000255197
-1.65895e-05
0.000270901
-1.57044e-05
0.000285513
-1.46124e-05
0.000298712
-1.31985e-05
0.000310264
-1.15519e-05
0.000319845
-9.58136e-06
0.000327256
-7.41073e-06
0.000332299
-5.04341e-06
0.000334804
-2.50471e-06
0.000334764
3.9699e-08
0.000332045
2.71833e-06
0.000326628
5.4176e-06
0.000318678
7.94965e-06
0.000308412
1.02659e-05
0.000295911
1.2501e-05
0.00028149
1.4421e-05
0.000265405
1.60849e-05
0.000247957
1.74475e-05
0.000229487
1.84704e-05
0.000210258
1.92288e-05
0.000190647
1.96113e-05
0.000170937
1.97099e-05
0.000151344
1.95924e-05
0.000132143
1.9201e-05
0.000113489
1.86545e-05
9.5612e-05
1.78766e-05
7.85555e-05
1.70565e-05
6.24742e-05
1.60812e-05
4.74598e-05
1.50144e-05
3.35527e-05
1.3907e-05
2.07771e-05
1.27756e-05
9.08552e-06
1.16915e-05
-1.55127e-06
1.06368e-05
-1.11557e-05
9.60442e-06
-1.98407e-05
8.68494e-06
-2.76303e-05
7.78963e-06
-3.46064e-05
6.97609e-06
-4.07799e-05
6.17343e-06
-4.61684e-05
5.38857e-06
-5.07851e-05
4.61664e-06
-5.46383e-05
3.85318e-06
-5.77446e-05
3.1063e-06
-6.00855e-05
2.34092e-06
-6.17443e-05
1.65881e-06
-6.26722e-05
9.27912e-07
-6.29461e-05
2.73848e-07
-6.25511e-05
-3.95013e-07
-6.15326e-05
-1.01844e-06
-6.00134e-05
-1.51923e-06
-5.80026e-05
-2.01084e-06
-5.54694e-05
-2.53322e-06
-5.27908e-05
-2.67857e-06
-4.96682e-05
-3.12259e-06
-4.62037e-05
-3.4645e-06
-4.24733e-05
-3.73049e-06
-3.83275e-05
-4.14578e-06
-3.37201e-05
-4.60738e-06
-2.85846e-05
-5.1355e-06
-2.28965e-05
-5.68821e-06
-1.65723e-05
-6.32416e-06
-9.50978e-06
-7.06258e-06
-1.77863e-06
-7.73119e-06
6.91188e-06
-8.69055e-06
1.6514e-05
-9.60222e-06
2.73403e-05
-1.08263e-05
3.95554e-05
-1.22152e-05
5.31327e-05
-1.35774e-05
6.80316e-05
-1.4899e-05
8.41634e-05
-1.61319e-05
0.000101474
-1.73112e-05
0.000119777
-1.8303e-05
0.000138717
-1.89397e-05
0.000158311
-1.95944e-05
0.000178126
-1.98147e-05
0.000198003
-1.98779e-05
0.000217621
-1.96177e-05
0.000236587
-1.8966e-05
0.000254826
-1.82392e-05
0.000271951
-1.7125e-05
0.000287641
-1.56901e-05
0.000301839
-1.41991e-05
0.000314147
-1.23081e-05
0.000324396
-1.02492e-05
0.000332425
-8.02919e-06
0.000337744
-5.31886e-06
0.000340103
-2.3593e-06
0.000339571
5.3172e-07
0.000336794
2.77693e-06
0.000331986
4.80822e-06
0.000324952
7.03432e-06
0.000315888
9.06323e-06
0.000304834
1.10545e-05
0.000291827
1.30063e-05
0.00027743
1.43969e-05
0.000261687
1.5743e-05
0.000245104
1.65824e-05
0.000227791
1.73133e-05
0.000209905
1.78857e-05
0.000191925
1.79803e-05
0.000173928
1.79967e-05
0.000156068
1.78598e-05
0.000138694
1.73742e-05
0.000121846
1.68477e-05
0.000105778
1.60683e-05
9.05067e-05
1.52711e-05
7.61191e-05
1.43875e-05
6.27449e-05
1.33742e-05
5.03495e-05
1.23954e-05
3.89723e-05
1.13772e-05
2.85694e-05
1.04028e-05
1.90696e-05
9.49985e-06
1.05107e-05
8.5588e-06
2.63989e-06
7.87084e-06
-4.47978e-06
7.11966e-06
-1.10004e-05
6.52057e-06
-1.69574e-05
5.957e-06
-2.24103e-05
5.4529e-06
-2.7397e-05
4.98677e-06
-3.19646e-05
4.56755e-06
-3.61322e-05
4.16758e-06
-3.98918e-05
3.75959e-06
-4.32328e-05
3.34101e-06
-4.61295e-05
2.89668e-06
-4.85548e-05
2.42529e-06
-5.04739e-05
1.91915e-06
-5.18046e-05
1.33065e-06
-5.25358e-05
7.31199e-07
-5.2633e-05
9.72938e-08
-5.19868e-05
-6.462e-07
-5.06552e-05
-1.33161e-06
-4.85019e-05
-2.15334e-06
-4.55338e-05
-2.9681e-06
-4.17863e-05
-3.74751e-06
-3.7139e-05
-4.64725e-06
-3.1638e-05
-5.50107e-06
-2.52002e-05
-6.4378e-06
-1.78166e-05
-7.3836e-06
-9.46437e-06
-8.35218e-06
5.06558e-08
-9.51502e-06
1.01081e-05
-1.00574e-05
2.10151e-05
-1.09071e-05
3.29061e-05
-1.18909e-05
4.56032e-05
-1.26971e-05
-1.34709e-05
0.000122162
3.18089e-05
0.000106771
3.07788e-05
9.17846e-05
2.99702e-05
7.72577e-05
2.90517e-05
6.34118e-05
2.76893e-05
5.01746e-05
2.64719e-05
3.76812e-05
2.49847e-05
2.58635e-05
2.36366e-05
1.48404e-05
2.20426e-05
4.55634e-06
2.05605e-05
-4.93465e-06
1.899e-05
-1.3661e-05
1.74521e-05
-2.16127e-05
1.59038e-05
-2.88082e-05
1.43902e-05
-3.52723e-05
1.2929e-05
-4.10391e-05
1.15353e-05
-4.61288e-05
1.01799e-05
-5.05852e-05
8.91251e-06
-5.44317e-05
7.69326e-06
-5.76799e-05
6.49616e-06
-6.03532e-05
5.34698e-06
-6.2469e-05
4.2393e-06
-6.40217e-05
3.09312e-06
-6.50016e-05
1.96113e-06
-6.54423e-05
8.81912e-07
-6.52821e-05
-3.20082e-07
-6.45206e-05
-1.52324e-06
-6.32397e-05
-2.56517e-06
-6.12767e-05
-3.92376e-06
-5.87183e-05
-5.11061e-06
-5.55565e-05
-6.33467e-06
-5.16601e-05
-7.79225e-06
-4.71827e-05
-8.95393e-06
-4.19495e-05
-1.04622e-05
-3.59221e-05
-1.20685e-05
-2.9324e-05
-1.31904e-05
-2.18986e-05
-1.48721e-05
-1.35813e-05
-1.66121e-05
-4.59511e-06
-1.79764e-05
5.30586e-06
-1.98059e-05
1.60346e-05
-2.14615e-05
2.77018e-05
-2.33335e-05
4.03751e-05
-2.53428e-05
5.37606e-05
-2.6771e-05
6.80479e-05
-2.85756e-05
8.32668e-05
-3.04303e-05
9.90858e-05
-3.16372e-05
0.00011559
-3.30019e-05
0.000132779
-3.43673e-05
0.00015025
-3.49334e-05
0.000168029
-3.55517e-05
0.000185878
-3.56896e-05
0.000203585
-3.53992e-05
0.000221013
-3.48477e-05
0.000237776
-3.35162e-05
0.000253717
-3.18658e-05
0.000268635
-2.98153e-05
0.000282148
-2.70172e-05
0.000294137
-2.39765e-05
0.000304391
-2.05025e-05
0.000312771
-1.67358e-05
0.000319186
-1.28213e-05
0.000323425
-8.47225e-06
0.000325484
-4.09816e-06
0.000325497
-3.40692e-08
0.000323198
4.5786e-06
0.000318662
9.07538e-06
0.000311986
1.33388e-05
0.000303408
1.71512e-05
0.000293005
2.0795e-05
0.000280875
2.42534e-05
0.000267085
2.75754e-05
0.000251693
3.07832e-05
0.000234725
3.39372e-05
0.000216452
3.6548e-05
0.000197076
3.87551e-05
0.000176926
4.03019e-05
0.000156353
4.11518e-05
0.000135666
4.13836e-05
0.000115229
4.08824e-05
9.5373e-05
3.97225e-05
7.63237e-05
3.81047e-05
5.82884e-05
3.60819e-05
4.14578e-05
3.36812e-05
2.59275e-05
3.10675e-05
1.18605e-05
2.81375e-05
-5.45685e-07
2.48031e-05
-1.22988e-05
2.35294e-05
-2.28941e-05
2.12022e-05
-3.2476e-05
1.91724e-05
-4.10856e-05
1.72235e-05
-4.88265e-05
1.54862e-05
-5.57125e-05
1.37777e-05
-6.17309e-05
1.20315e-05
-6.69842e-05
1.052e-05
-7.14956e-05
9.00697e-06
-7.52394e-05
7.47858e-06
-7.82905e-05
6.08609e-06
-8.06341e-05
4.67845e-06
-8.2307e-05
3.29849e-06
-8.33404e-05
2.07384e-06
-8.3735e-05
7.94745e-07
-8.35869e-05
-2.92383e-07
-8.27976e-05
-1.59497e-06
-8.14369e-05
-2.73445e-06
-7.94992e-05
-3.89241e-06
-7.7022e-05
-4.97724e-06
-7.39602e-05
-6.1382e-06
-7.03554e-05
-7.23195e-06
-6.6138e-05
-8.44716e-06
-6.12265e-05
-9.85108e-06
-5.56246e-05
-1.12231e-05
-4.9086e-05
-1.30985e-05
-4.17388e-05
-1.47115e-05
-3.33746e-05
-1.67342e-05
-2.40056e-05
-1.87509e-05
-1.37078e-05
-2.05933e-05
-2.5346e-06
-2.23637e-05
9.24782e-06
-2.35487e-05
2.16992e-05
-2.49045e-05
3.47182e-05
-2.6042e-05
4.82266e-05
-2.70111e-05
6.22553e-05
-2.80579e-05
7.6737e-05
-2.89669e-05
9.17131e-05
-2.99493e-05
0.000107199
-3.09744e-05
0.000123171
-3.19378e-05
0.000139602
-3.28534e-05
0.000156403
-3.35994e-05
0.000173496
-3.41727e-05
0.000190747
-3.45044e-05
0.000208025
-3.4513e-05
0.000225115
-3.41952e-05
0.000241916
-3.35812e-05
0.000258183
-3.25217e-05
0.000273726
-3.10728e-05
0.000288308
-2.91567e-05
0.000301658
-2.66909e-05
0.000313612
-2.38814e-05
0.000323863
-2.05235e-05
0.000332231
-1.67209e-05
0.000338523
-1.25762e-05
0.000342591
-8.11936e-06
0.00034433
-3.47723e-06
0.000343707
1.22477e-06
0.000340606
6.17447e-06
0.000335136
1.09785e-05
0.000327264
1.56817e-05
0.000317296
1.9946e-05
0.000305321
2.39242e-05
0.000291598
2.74392e-05
0.000276427
3.0338e-05
0.000259962
3.2851e-05
0.000242556
3.48194e-05
0.000224504
3.61487e-05
0.000205936
3.70868e-05
0.000187256
3.73359e-05
0.000168672
3.71392e-05
0.000150379
3.65805e-05
0.000132557
3.56706e-05
0.000115338
3.44197e-05
9.88553e-05
3.29387e-05
8.32743e-05
3.11857e-05
6.86192e-05
2.92802e-05
5.49754e-05
2.72439e-05
4.24068e-05
2.51452e-05
3.0864e-05
2.31207e-05
2.03499e-05
2.1045e-05
1.0867e-05
1.8939e-05
2.34973e-06
1.70338e-05
-5.20921e-06
1.51269e-05
-1.19297e-05
1.34463e-05
-1.78498e-05
1.18601e-05
-2.30973e-05
1.04926e-05
-2.77125e-05
9.23993e-06
-3.17514e-05
8.08444e-06
-3.53221e-05
7.13854e-06
-3.84049e-05
6.12414e-06
-4.1e-05
5.21725e-06
-4.308e-05
4.16634e-06
-4.46483e-05
3.13935e-06
-4.56963e-05
2.05759e-06
-4.6248e-05
1.13782e-06
-4.62569e-05
4.35233e-08
-4.57797e-05
-9.67223e-07
-4.47898e-05
-1.97552e-06
-4.32419e-05
-3.08988e-06
-4.11578e-05
-4.20664e-06
-3.85252e-05
-5.23441e-06
-3.53212e-05
-6.40752e-06
-3.14785e-05
-7.67804e-06
-2.70208e-05
-8.90937e-06
-2.18822e-05
-1.0282e-05
-1.60555e-05
-1.16463e-05
-9.44593e-06
-1.32248e-05
-2.04283e-06
-1.48325e-05
6.14427e-06
-1.63274e-05
1.51687e-05
-1.80468e-05
2.50697e-05
-1.97954e-05
3.5848e-05
-2.156e-05
4.75248e-05
-2.33524e-05
6.00762e-05
-2.50997e-05
7.34834e-05
-2.67922e-05
8.76937e-05
-2.84226e-05
0.000102665
-2.99478e-05
0.000118357
-3.13764e-05
0.000134662
-3.26247e-05
0.000151509
-3.36584e-05
0.000168762
-3.44948e-05
0.000186285
-3.50444e-05
0.000203919
-3.52682e-05
0.000221465
-3.50772e-05
0.000238621
-3.43009e-05
0.000255213
-3.31819e-05
0.000270939
-3.14302e-05
0.000285562
-2.92359e-05
0.000298768
-2.64044e-05
0.000310325
-2.31093e-05
0.000319897
-1.91531e-05
0.000327342
-1.48561e-05
0.000332358
-1.00597e-05
0.00033488
-5.02623e-06
0.00033482
9.89428e-08
0.000332081
5.4574e-06
0.000326686
1.08125e-05
0.000318708
1.59278e-05
0.000308406
2.05673e-05
0.000295928
2.49788e-05
0.00028149
2.88589e-05
0.000265426
3.21486e-05
0.000247927
3.49461e-05
0.000229435
3.69626e-05
0.000210178
3.84859e-05
0.000190588
3.9201e-05
0.000170804
3.94937e-05
0.00015122
3.91763e-05
0.000131994
3.84274e-05
0.000113374
3.7274e-05
9.54768e-05
3.57741e-05
7.84574e-05
3.40758e-05
6.2334e-05
3.22046e-05
4.73576e-05
2.99908e-05
3.33922e-05
2.78724e-05
2.06784e-05
2.54894e-05
8.93892e-06
2.3431e-05
-1.70225e-06
2.12779e-05
-1.13051e-05
1.92072e-05
-1.99927e-05
1.73725e-05
-2.77823e-05
1.55792e-05
-3.47552e-05
1.3949e-05
-4.09263e-05
1.23444e-05
-4.63105e-05
1.07728e-05
-5.09249e-05
9.23096e-06
-5.47738e-05
7.70204e-06
-5.7883e-05
6.21556e-06
-6.02268e-05
4.68467e-06
-6.18697e-05
3.30165e-06
-6.28001e-05
1.85833e-06
-6.30567e-05
5.30421e-07
-6.26128e-05
-8.38852e-07
-6.16559e-05
-1.97542e-06
-6.01203e-05
-3.05483e-06
-5.80921e-05
-4.039e-06
-5.55879e-05
-5.0375e-06
-5.28771e-05
-5.38938e-06
-4.97262e-05
-6.27348e-06
-4.6237e-05
-6.95373e-06
-4.25109e-05
-7.45665e-06
-3.83707e-05
-8.28594e-06
-3.37544e-05
-9.22372e-06
-2.86212e-05
-1.02687e-05
-2.29139e-05
-1.13956e-05
-1.65866e-05
-1.26516e-05
-9.51698e-06
-1.41322e-05
-1.78309e-06
-1.54652e-05
6.90002e-06
-1.73738e-05
1.64979e-05
-1.92002e-05
2.73127e-05
-2.16412e-05
3.95132e-05
-2.44158e-05
5.30749e-05
-2.71393e-05
6.79594e-05
-2.97837e-05
8.40758e-05
-3.22486e-05
0.000101375
-3.4611e-05
0.000119668
-3.65963e-05
0.000138601
-3.78727e-05
0.000158198
-3.91913e-05
0.000178017
-3.96337e-05
0.000197907
-3.97684e-05
0.000217536
-3.92469e-05
0.000236514
-3.79448e-05
0.000254767
-3.64922e-05
0.00027189
-3.42482e-05
0.000287566
-3.13671e-05
0.00030175
-2.83832e-05
0.000314015
-2.45728e-05
0.000324174
-2.04092e-05
0.000332124
-1.59792e-05
0.000337478
-1.06734e-05
0.000339976
-4.85708e-06
0.000339497
1.01012e-06
0.000336794
5.48007e-06
0.000332059
9.54275e-06
0.000325037
1.40564e-05
0.00031597
1.81296e-05
0.000304909
2.21156e-05
0.000291893
2.60215e-05
0.000277486
2.88035e-05
0.000261733
3.14963e-05
0.00024514
3.31749e-05
0.000227817
3.46364e-05
0.000209921
3.57809e-05
0.000191932
3.59694e-05
0.000173927
3.60015e-05
0.00015606
3.57272e-05
0.000138679
3.47552e-05
0.000121825
3.37016e-05
0.000105751
3.21416e-05
9.04762e-05
3.0546e-05
7.60858e-05
2.87779e-05
6.27098e-05
2.67502e-05
5.03143e-05
2.47909e-05
3.89368e-05
2.27546e-05
2.85357e-05
2.0804e-05
1.90391e-05
1.89964e-05
1.04823e-05
1.71156e-05
2.62766e-06
1.57255e-05
-4.50238e-06
1.42497e-05
-1.10238e-05
1.30419e-05
-1.69814e-05
1.19146e-05
-2.24321e-05
1.09036e-05
-2.742e-05
9.97459e-06
-3.19921e-05
9.13967e-06
-3.61519e-05
8.32736e-06
-3.99159e-05
7.52366e-06
-4.32538e-05
6.67892e-06
-4.61584e-05
5.80122e-06
-4.85839e-05
4.8508e-06
-5.05042e-05
3.8395e-06
-5.1835e-05
2.66141e-06
-5.25667e-05
1.46291e-06
-5.26614e-05
1.91959e-07
-5.20221e-05
-1.28545e-06
-5.06907e-05
-2.66298e-06
-4.85339e-05
-4.31014e-06
-4.55698e-05
-5.93226e-06
-4.18201e-05
-7.49716e-06
-3.71752e-05
-9.29219e-06
-3.168e-05
-1.09962e-05
-2.52361e-05
-1.28818e-05
-1.78535e-05
-1.47662e-05
-9.50374e-06
-1.67019e-05
1.14157e-08
-1.90302e-05
1.00683e-05
-2.01143e-05
2.09772e-05
-2.18159e-05
3.28699e-05
-2.37836e-05
4.55698e-05
-2.5397e-05
-2.69453e-05
0.000122134
4.7724e-05
0.000106735
4.61771e-05
9.17417e-05
4.49636e-05
7.72098e-05
4.35836e-05
6.33589e-05
4.15401e-05
5.01174e-05
3.97135e-05
3.7616e-05
3.74861e-05
2.58071e-05
3.54455e-05
1.4777e-05
3.30727e-05
4.48114e-06
3.08564e-05
-4.99817e-06
2.84693e-05
-1.37242e-05
2.61781e-05
-2.16737e-05
2.38534e-05
-2.88658e-05
2.15823e-05
-3.53276e-05
1.93908e-05
-4.1094e-05
1.73017e-05
-4.618e-05
1.52659e-05
-5.06348e-05
1.33672e-05
-5.4479e-05
1.15375e-05
-5.77249e-05
9.74203e-06
-6.03969e-05
8.01894e-06
-6.2514e-05
6.35645e-06
-6.40648e-05
4.64391e-06
-6.50473e-05
2.94356e-06
-6.54862e-05
1.3208e-06
-6.53253e-05
-4.81034e-07
-6.4565e-05
-2.28349e-06
-6.32906e-05
-3.8396e-06
-6.13219e-05
-5.89246e-06
-5.87592e-05
-7.67335e-06
-5.5612e-05
-9.48195e-06
-5.17141e-05
-1.16902e-05
-4.72343e-05
-1.34338e-05
-4.20013e-05
-1.56952e-05
-3.59997e-05
-1.80702e-05
-2.93836e-05
-1.98065e-05
-2.19789e-05
-2.22769e-05
-1.36432e-05
-2.49479e-05
-4.66174e-06
-2.69579e-05
5.24079e-06
-2.97085e-05
1.59665e-05
-3.21873e-05
2.76319e-05
-3.4999e-05
4.03082e-05
-3.80193e-05
5.36977e-05
-4.01606e-05
6.79861e-05
-4.28641e-05
8.32133e-05
-4.56577e-05
9.90375e-05
-4.74615e-05
0.000115546
-4.9511e-05
0.000132748
-5.1569e-05
0.000150228
-5.24133e-05
0.000168019
-5.33426e-05
0.00018588
-5.35513e-05
0.000203606
-5.31248e-05
0.00022106
-5.23026e-05
0.000237842
-5.02977e-05
0.000253789
-4.78128e-05
0.000268729
-4.47555e-05
0.000282264
-4.05531e-05
0.000294276
-3.59878e-05
0.000304519
-3.07458e-05
0.000312931
-2.51476e-05
0.000319372
-1.92629e-05
0.000323613
-1.27129e-05
0.000325681
-6.16687e-06
0.000325679
-3.1703e-08
0.000323362
6.8956e-06
0.000318832
1.36045e-05
0.00031216
2.00108e-05
0.000303557
2.57542e-05
0.000293139
3.12135e-05
0.000280995
3.63967e-05
0.000267197
4.13738e-05
0.000251806
4.61735e-05
0.000234844
5.08995e-05
0.000216579
5.48131e-05
0.000197212
5.81218e-05
0.000177073
6.04403e-05
0.000156514
6.17113e-05
0.000135843
6.20542e-05
0.000115423
6.1303e-05
9.55844e-05
5.95606e-05
7.65632e-05
5.71259e-05
5.85465e-05
5.40986e-05
4.17791e-05
5.04485e-05
2.62171e-05
4.66295e-05
1.21544e-05
4.22002e-05
-2.60126e-07
3.72176e-05
-1.19712e-05
3.52404e-05
-2.25449e-05
3.1776e-05
-3.21128e-05
2.87403e-05
-4.07108e-05
2.58214e-05
-4.8454e-05
2.32295e-05
-5.53362e-05
2.06598e-05
-6.13468e-05
1.8042e-05
-6.65972e-05
1.57705e-05
-7.11328e-05
1.35425e-05
-7.48666e-05
1.12124e-05
-7.79472e-05
9.16668e-06
-8.02899e-05
7.02114e-06
-8.19824e-05
4.99101e-06
-8.30328e-05
3.12416e-06
-8.34754e-05
1.23741e-06
-8.32736e-05
-4.94179e-07
-8.25445e-05
-2.32409e-06
-8.12067e-05
-4.07231e-06
-7.92969e-05
-5.80223e-06
-7.68533e-05
-7.42076e-06
-7.38197e-05
-9.17182e-06
-7.02541e-05
-1.07976e-05
-6.60706e-05
-1.26306e-05
-6.12117e-05
-1.47101e-05
-5.56451e-05
-1.67897e-05
-4.91771e-05
-1.95665e-05
-4.18303e-05
-2.20583e-05
-3.34878e-05
-2.50768e-05
-2.4149e-05
-2.80897e-05
-1.38483e-05
-3.0894e-05
-2.73916e-06
-3.34729e-05
9.10725e-06
-3.53952e-05
2.15613e-05
-3.73587e-05
3.45658e-05
-3.90466e-05
4.80677e-05
-4.05131e-05
6.20816e-05
-4.20719e-05
7.65609e-05
-4.34462e-05
9.15372e-05
-4.49258e-05
0.000107009
-4.64463e-05
0.000122994
-4.7923e-05
0.000139429
-4.92888e-05
0.000156237
-5.04073e-05
0.000173368
-5.13035e-05
0.00019061
-5.17472e-05
0.000207909
-5.18117e-05
0.000225037
-5.13235e-05
0.000241852
-5.03968e-05
0.000258126
-4.87958e-05
0.000273736
-4.6683e-05
0.000288297
-4.37178e-05
0.000301679
-4.00729e-05
0.000313676
-3.58789e-05
0.000323916
-3.07636e-05
0.000332308
-2.51124e-05
0.000338617
-1.88853e-05
0.000342694
-1.21967e-05
0.000344441
-5.22494e-06
0.000343787
1.87889e-06
0.000340659
9.30283e-06
0.000335176
1.64606e-05
0.000327297
2.3561e-05
0.000317357
2.98853e-05
0.000305332
3.5949e-05
0.000291596
4.11759e-05
0.000276414
4.55198e-05
0.000259871
4.93941e-05
0.000242447
5.22429e-05
0.000224348
5.42474e-05
0.000205809
5.56256e-05
0.000187102
5.60436e-05
0.00016849
5.5751e-05
0.000150172
5.48984e-05
0.00013234
5.35027e-05
0.00011513
5.16294e-05
9.86177e-05
4.94508e-05
8.30331e-05
4.67702e-05
6.8368e-05
4.39453e-05
5.47242e-05
4.08877e-05
4.21404e-05
3.77289e-05
3.05673e-05
3.46937e-05
2.01169e-05
3.14954e-05
1.06247e-05
2.84312e-05
2.10824e-06
2.55502e-05
-5.44996e-06
2.2685e-05
-1.21681e-05
2.01644e-05
-1.8089e-05
1.7781e-05
-2.33088e-05
1.57123e-05
-2.79231e-05
1.38542e-05
-3.2003e-05
1.21643e-05
-3.5532e-05
1.06675e-05
-3.86312e-05
9.22331e-06
-4.12168e-05
7.80284e-06
-4.32823e-05
6.23177e-06
-4.48155e-05
4.67253e-06
-4.59159e-05
3.15806e-06
-4.64474e-05
1.66925e-06
-4.64154e-05
1.15433e-08
-4.59906e-05
-1.39206e-06
-4.49907e-05
-2.97544e-06
-4.33949e-05
-4.68566e-06
-4.13758e-05
-6.22579e-06
-3.87218e-05
-7.88844e-06
-3.55147e-05
-9.61463e-06
-3.16741e-05
-1.15186e-05
-2.72258e-05
-1.33577e-05
-2.21009e-05
-1.5407e-05
-1.62608e-05
-1.74864e-05
-9.66082e-06
-1.98248e-05
-2.2862e-06
-2.22071e-05
5.92642e-06
-2.454e-05
1.49584e-05
-2.70788e-05
2.48682e-05
-2.97052e-05
3.56515e-05
-3.23433e-05
4.7328e-05
-3.5029e-05
5.9859e-05
-3.76308e-05
7.32685e-05
-4.02018e-05
8.75116e-05
-4.26658e-05
0.000102476
-4.49123e-05
0.00011819
-4.70904e-05
0.000134493
-4.89276e-05
0.000151359
-5.05251e-05
0.00016863
-5.17658e-05
0.000186171
-5.25854e-05
0.000203808
-5.29058e-05
0.00022135
-5.26188e-05
0.000238552
-5.1503e-05
0.000255175
-4.98054e-05
0.000270927
-4.71819e-05
0.000285568
-4.38775e-05
0.0002988
-3.96362e-05
0.000310347
-3.46573e-05
0.000319974
-2.87793e-05
0.000327433
-2.23154e-05
0.000332466
-1.50928e-05
0.000335009
-7.56989e-06
0.000334908
2.00068e-07
0.000332147
8.21801e-06
0.000326724
1.62355e-05
0.000318767
2.38848e-05
0.00030843
3.09041e-05
0.000295981
3.74276e-05
0.00028148
4.33596e-05
0.000265368
4.82607e-05
0.000247901
5.24132e-05
0.000229311
5.5552e-05
0.000210055
5.77425e-05
0.000190436
5.88193e-05
0.000170624
5.93059e-05
0.000151029
5.87715e-05
0.000131802
5.76537e-05
0.000113173
5.59037e-05
9.52435e-05
5.3703e-05
7.81759e-05
5.11433e-05
6.20817e-05
4.82988e-05
4.70726e-05
4.49999e-05
3.31323e-05
4.18126e-05
2.03945e-05
3.82271e-05
8.6836e-06
3.51419e-05
-1.95605e-06
3.19175e-05
-1.15499e-05
2.88011e-05
-2.02315e-05
2.6054e-05
-2.80199e-05
2.33675e-05
-3.49819e-05
2.0911e-05
-4.11492e-05
1.85118e-05
-4.6534e-05
1.61575e-05
-5.1151e-05
1.3848e-05
-5.5002e-05
1.1553e-05
-5.81145e-05
9.32808e-06
-6.04536e-05
7.02372e-06
-6.2069e-05
4.91702e-06
-6.3027e-05
2.81637e-06
-6.32726e-05
7.75968e-07
-6.28104e-05
-1.301e-06
-6.18526e-05
-2.93328e-06
-6.02987e-05
-4.60866e-06
-5.82146e-05
-6.12312e-06
-5.58146e-05
-7.4375e-06
-5.30408e-05
-8.16325e-06
-4.98174e-05
-9.49687e-06
-4.63754e-05
-1.03957e-05
-4.26233e-05
-1.12088e-05
-3.84712e-05
-1.24381e-05
-3.3859e-05
-1.3836e-05
-2.87332e-05
-1.53946e-05
-2.29908e-05
-1.7138e-05
-1.66506e-05
-1.89919e-05
-9.57732e-06
-2.12056e-05
-1.81466e-06
-2.32279e-05
6.87534e-06
-2.60639e-05
1.64703e-05
-2.87953e-05
2.72793e-05
-3.24504e-05
3.94672e-05
-3.66039e-05
5.30078e-05
-4.06801e-05
6.78721e-05
-4.46482e-05
8.39688e-05
-4.83456e-05
0.000101249
-5.18916e-05
0.00011953
-5.48771e-05
0.000138452
-5.67952e-05
0.000158048
-5.8788e-05
0.000177877
-5.94626e-05
0.000197781
-5.96727e-05
0.000217431
-5.88974e-05
0.000236426
-5.69399e-05
0.000254697
-5.47633e-05
0.000271831
-5.13831e-05
0.000287494
-4.703e-05
0.000301641
-4.25304e-05
0.000313838
-3.67707e-05
0.000323909
-3.04804e-05
0.000331709
-2.37792e-05
0.000336876
-1.58401e-05
0.00033941
-7.39221e-06
0.000339235
1.18499e-06
0.00033684
7.87468e-06
0.000332214
1.41691e-05
0.0003252
2.10704e-05
0.000316123
2.72061e-05
0.000305046
3.31928e-05
0.000292011
3.90562e-05
0.000277583
4.32311e-05
0.000261808
4.72711e-05
0.000245194
4.97884e-05
0.000227851
5.19796e-05
0.000209936
5.36951e-05
0.00019193
5.39761e-05
0.000173909
5.40224e-05
0.000156027
5.36092e-05
0.000138633
5.2149e-05
0.000121768
5.05665e-05
0.000105685
4.82242e-05
9.04033e-05
4.58277e-05
7.60083e-05
4.31729e-05
6.26297e-05
4.01287e-05
5.02358e-05
3.71847e-05
3.88582e-05
3.41321e-05
2.84616e-05
3.12006e-05
1.89747e-05
2.84832e-05
1.0421e-05
2.56692e-05
2.61145e-06
2.35351e-05
-4.55055e-06
2.14117e-05
-1.1071e-05
1.95624e-05
-1.70245e-05
1.78681e-05
-2.24724e-05
1.63515e-05
-2.74585e-05
1.49606e-05
-3.20276e-05
1.37088e-05
-3.61851e-05
1.24849e-05
-3.9954e-05
1.12925e-05
-4.32856e-05
1.00105e-05
-4.62006e-05
8.71621e-06
-4.86262e-05
7.27639e-06
-5.05538e-05
5.7671e-06
-5.18879e-05
3.99557e-06
-5.26217e-05
2.19673e-06
-5.2712e-05
2.82224e-07
-5.20852e-05
-1.91221e-06
-5.07515e-05
-3.99666e-06
-4.85897e-05
-6.47202e-06
-4.5633e-05
-8.88896e-06
-4.18812e-05
-1.12489e-05
-3.72401e-05
-1.39333e-05
-3.17286e-05
-1.65077e-05
-2.53041e-05
-1.93062e-05
-1.79252e-05
-2.21451e-05
-9.58188e-06
-2.50453e-05
-6.74281e-08
-2.85446e-05
9.9909e-06
-3.01727e-05
2.09048e-05
-3.27298e-05
3.28012e-05
-3.568e-05
4.55055e-05
-3.81012e-05
-4.04245e-05
0.000122091
6.36524e-05
0.000106681
6.15866e-05
9.16773e-05
5.99675e-05
7.7138e-05
5.81228e-05
6.32797e-05
5.53985e-05
5.00314e-05
5.29618e-05
3.75208e-05
4.99966e-05
2.57249e-05
4.72414e-05
1.46824e-05
4.41151e-05
4.3737e-06
4.11651e-05
-5.09334e-06
3.79364e-05
-1.38199e-05
3.49046e-05
-2.1766e-05
3.17994e-05
-2.89552e-05
2.87715e-05
-3.5412e-05
2.58476e-05
-4.11758e-05
2.30654e-05
-4.6257e-05
2.03471e-05
-5.07093e-05
1.78196e-05
-5.45511e-05
1.53792e-05
-5.77925e-05
1.29835e-05
-6.04619e-05
1.06883e-05
-6.25818e-05
8.47637e-06
-6.41336e-05
6.19563e-06
-6.51171e-05
3.92709e-06
-6.55531e-05
1.75674e-06
-6.53904e-05
-6.43668e-07
-6.46319e-05
-3.04209e-06
-6.33677e-05
-5.10374e-06
-6.13903e-05
-7.86992e-06
-5.88235e-05
-1.02402e-05
-5.56958e-05
-1.26096e-05
-5.17974e-05
-1.55886e-05
-4.73123e-05
-1.79189e-05
-4.20805e-05
-2.09271e-05
-3.6135e-05
-2.40157e-05
-2.94717e-05
-2.64699e-05
-2.2077e-05
-2.96716e-05
-1.37365e-05
-3.32885e-05
-4.76263e-06
-3.59318e-05
5.1373e-06
-3.96085e-05
1.58629e-05
-4.29129e-05
2.75291e-05
-4.66653e-05
4.02103e-05
-5.07006e-05
5.36002e-05
-5.35506e-05
6.7891e-05
-5.7155e-05
8.31322e-05
-6.08989e-05
9.89628e-05
-6.32923e-05
0.000115483
-6.60311e-05
0.000132703
-6.87893e-05
0.000150195
-6.9906e-05
0.000168003
-7.11508e-05
0.000185888
-7.14358e-05
0.000203635
-7.0872e-05
0.000221122
-6.97902e-05
0.000237931
-6.71067e-05
0.000253903
-6.3785e-05
0.000268875
-5.97274e-05
0.000282431
-5.41094e-05
0.000294471
-4.80285e-05
0.000304738
-4.10126e-05
0.000313176
-3.35854e-05
0.000319649
-2.5736e-05
0.000323895
-1.69596e-05
0.000325977
-8.24904e-06
0.000325949
-3.63262e-09
0.000323608
9.2362e-06
0.000319088
1.8125e-05
0.00031243
2.66683e-05
0.000303778
3.44062e-05
0.000293336
4.16555e-05
0.000281173
4.85597e-05
0.000267362
5.51848e-05
0.000251975
6.15601e-05
0.00023502
6.78545e-05
0.000216766
7.30676e-05
0.000197413
7.74749e-05
0.00017729
8.05633e-05
0.000156749
8.22523e-05
0.000136099
8.27039e-05
0.000115703
8.16991e-05
9.5895e-05
7.93682e-05
7.69337e-05
7.60871e-05
5.89642e-05
7.20681e-05
4.22298e-05
6.71829e-05
2.66453e-05
6.22139e-05
1.2581e-05
5.62645e-05
1.38027e-07
4.96606e-05
-1.14841e-05
4.68625e-05
-2.20314e-05
4.23232e-05
-3.15852e-05
3.82941e-05
-4.01671e-05
3.44033e-05
-4.79063e-05
3.09686e-05
-5.47869e-05
2.75404e-05
-6.07835e-05
2.40386e-05
-6.60529e-05
2.10398e-05
-7.06018e-05
1.80915e-05
-7.43149e-05
1.49254e-05
-7.74157e-05
1.22675e-05
-7.97841e-05
9.38945e-06
-8.1488e-05
6.69497e-06
-8.25624e-05
4.1985e-06
-8.30379e-05
1.71293e-06
-8.28906e-05
-6.415e-07
-8.21569e-05
-3.0578e-06
-8.08473e-05
-5.38191e-06
-7.89765e-05
-7.67309e-06
-7.65778e-05
-9.81944e-06
-7.35937e-05
-1.21559e-05
-7.00792e-05
-1.43121e-05
-6.59594e-05
-1.67504e-05
-6.11698e-05
-1.94996e-05
-5.5663e-05