/*--------------------------------*- C++ -*----------------------------------*\
| =========                 |                                                 |
| \\      /  F ield         | OpenFOAM: The Open Source CFD Toolbox           |
|  \\    /   O peration     | Version:  3.0.1                                 |
|   \\  /    A nd           | Web:      www.OpenFOAM.org                      |
|    \\/     M anipulation  |                                                 |
\*---------------------------------------------------------------------------*/
FoamFile
{
    version     2.0;
    format      ascii;
    class       volScalarField;
    location    "35.2";
    object      p_rgh;
}
// * * * * * * * * * * * * * * * * * * * * * * * * * * * * * * * * * * * * * //

dimensions      [1 -1 -2 0 0 0 0];

internalField   nonuniform List<scalar> 
21420
(
-113.327
-88.7572
-62.5317
-36.0168
-7.02078
23.9578
56.2339
89.3498
122.992
156.875
190.6
223.76
255.962
286.729
315.615
342.16
365.932
386.592
403.819
417.336
426.945
432.502
433.795
430.897
423.827
412.709
397.721
379.09
357.119
332.112
304.428
274.499
242.731
209.568
175.427
140.719
105.874
71.2637
37.2466
4.32697
-25.3849
-55.3982
-84.3484
-111.825
-137.642
-161.707
-183.972
-204.432
-223.103
-240.01
-255.196
-268.71
-280.602
-290.921
-299.712
-307.021
-312.881
-317.32
-320.366
-322.033
-322.31
-320.883
-318.003
-313.628
-307.715
-300.19
-291.006
-280.1
-267.401
-252.856
-236.413
-218.042
-197.747
-175.533
-151.444
-125.564
-97.9815
-68.8296
-38.2564
-6.40703
26.7445
60.3223
94.2677
128.311
162.128
195.373
227.675
258.641
287.872
314.975
339.571
361.307
379.858
394.948
406.356
413.915
417.478
417.018
412.545
404.157
391.89
375.946
356.533
333.907
308.353
280.208
249.839
217.634
184.012
149.401
114.234
78.9336
43.9014
9.52804
-23.8921
-56.0601
-86.7422
-115.755
-142.966
-168.28
-191.638
-213.016
-232.414
-249.845
-265.336
-278.927
-290.665
-300.595
-308.767
-315.231
-320.039
-323.255
-324.919
-325.069
-323.76
-321.067
-317.004
-311.599
-304.874
-296.829
-287.463
-276.77
-264.723
-251.291
-236.445
-220.142
-202.347
-183.029
-162.157
-139.729
-115.751
-90.261
-63.3217
-35.0362
-5.54914
24.9105
56.9211
88.8309
121.145
153.487
185.49
216.773
246.932
275.551
302.211
326.497
348.005
366.357
381.206
392.257
399.277
402.057
400.556
394.728
384.691
370.545
352.552
331.021
306.321
278.869
249.116
217.531
184.593
150.774
116.537
82.3217
48.5278
15.5076
-16.441
-47.0659
-76.1681
-103.598
-129.253
-153.072
-175.026
-195.122
-213.389
-229.876
-244.64
-257.747
-269.28
-279.318
-287.933
-295.203
-301.187
-305.936
-309.487
-311.874
-313.097
-313.138
-312.003
-309.681
-306.125
-301.304
-295.165
-287.66
-278.733
-268.326
-256.38
-242.837
-227.643
-210.753
-192.129
-171.751
-149.626
-125.775
-100.255
-73.1506
-44.5902
-14.7388
16.1964
47.9814
80.3019
112.841
145.255
177.171
208.202
237.951
266.016
292.001
315.521
336.217
353.761
367.866
378.3
384.887
387.48
386.085
380.687
371.411
358.364
341.787
321.958
299.197
273.865
246.353
217.063
186.404
154.782
122.589
90.196
57.9481
26.157
-4.90194
-34.9904
-63.9085
-91.495
-117.623
-142.19
-165.129
-186.396
-205.96
-223.814
-239.965
-254.417
-267.193
-278.331
-287.873
-295.856
-302.336
-307.317
-310.793
-312.78
-313.398
-312.613
-310.428
-306.824
-301.775
-295.241
-287.159
-277.476
-266.112
-253.013
-238.128
-221.401
-202.806
-182.348
-160.037
-135.927
-110.133
-82.7648
-53.9946
-23.9483
7.54377
45.6354
79.7528
113.713
147.39
180.581
212.896
243.93
273.334
300.681
325.574
347.676
366.642
382.189
394.069
402.092
406.131
406.104
402.298
394.44
382.613
367.061
347.957
325.55
300.173
272.171
241.911
209.843
176.391
141.99
107.114
72.1973
37.8535
7.83064
-24.7286
-56.4361
-86.8228
-115.638
-142.744
-168.06
-191.53
-213.131
-232.851
-250.7
-266.704
-280.891
-293.3
-303.979
-312.97
-320.322
-326.076
-330.276
-332.954
-334.105
-113.411
-88.8382
-62.6147
-36.0796
-7.09074
23.8938
56.1787
89.3045
122.958
156.855
190.596
223.773
255.994
286.781
315.687
342.252
366.042
386.717
403.958
417.486
427.102
432.664
433.969
431.052
423.981
412.855
397.856
379.21
357.222
332.198
304.495
274.546
242.759
209.578
175.42
140.697
105.837
71.2123
37.1796
4.23889
-25.4391
-55.4688
-84.4281
-111.909
-137.727
-161.791
-184.054
-204.512
-223.179
-240.084
-255.267
-268.779
-280.667
-290.984
-299.773
-307.079
-312.938
-317.376
-320.422
-322.089
-322.363
-320.94
-318.062
-313.689
-307.779
-300.258
-291.077
-280.174
-267.479
-252.937
-236.497
-218.127
-197.833
-175.62
-151.53
-125.648
-98.063
-68.9069
-38.3287
-6.47378
26.6901
60.2771
94.2332
128.289
162.119
195.38
227.698
258.682
287.93
315.05
339.663
361.415
379.98
395.082
406.499
414.064
417.636
417.167
412.691
404.297
392.023
376.067
356.641
333.999
308.429
280.267
249.879
217.655
184.015
149.387
114.202
78.8868
43.8411
9.4564
-23.9729
-56.1479
-86.8349
-115.851
-143.063
-168.377
-191.735
-213.112
-232.507
-249.936
-265.424
-279.012
-290.748
-300.675
-308.844
-315.306
-320.112
-323.326
-324.988
-325.133
-323.825
-321.13
-317.067
-311.661
-304.936
-296.892
-287.526
-276.835
-264.789
-251.36
-236.515
-220.215
-202.423
-183.106
-162.236
-139.809
-115.832
-90.3404
-63.3988
-35.1091
-5.6145
24.8636
56.8522
88.784
121.113
153.469
185.488
216.787
246.964
275.602
302.281
326.585
348.112
366.481
381.344
392.407
399.436
402.226
400.716
394.885
384.841
370.684
352.675
331.126
306.406
278.933
249.159
217.553
184.595
150.757
116.503
82.2727
48.4662
15.4357
-16.5208
-47.1515
-76.2575
-103.689
-129.345
-153.163
-175.115
-195.208
-213.473
-229.956
-244.717
-257.82
-269.349
-279.383
-287.995
-295.262
-301.244
-305.991
-309.542
-311.928
-313.151
-313.191
-312.058
-309.737
-306.183
-301.364
-295.228
-287.725
-278.8
-268.396
-256.453
-242.913
-227.722
-210.835
-192.213
-171.836
-149.711
-125.861
-100.338
-73.2311
-44.666
-14.8082
16.1356
47.9304
80.2627
112.815
145.244
177.176
208.224
237.991
266.074
292.077
315.614
336.326
353.885
368.002
378.444
385.038
387.638
386.234
380.833
371.55
358.492
341.902
322.057
299.279
273.929
246.398
217.09
186.413
154.775
122.567
90.1605
57.901
26.1
-4.96687
-35.0615
-63.9842
-91.5737
-117.703
-142.271
-165.21
-186.476
-206.039
-223.891
-240.04
-254.489
-267.262
-278.399
-287.937
-295.918
-302.395
-307.375
-310.852
-312.838
-313.454
-312.669
-310.485
-306.882
-301.836
-295.304
-287.225
-277.545
-266.185
-253.088
-238.207
-221.481
-202.888
-182.43
-160.12
-136.008
-110.211
-82.84
-54.0668
-24.021
7.46414
45.6062
79.7194
113.687
147.376
180.583
212.915
243.968
273.39
300.756
325.666
347.786
366.766
382.326
394.216
402.246
406.29
406.272
402.447
394.587
382.754
367.193
348.075
325.653
300.258
272.238
241.958
209.871
176.4
141.981
107.087
72.1505
37.778
7.79075
-24.7936
-56.5129
-86.9052
-115.723
-142.83
-168.146
-191.614
-213.214
-232.932
-250.778
-266.78
-280.964
-293.371
-304.047
-313.036
-320.385
-326.138
-330.337
-333.014
-334.164
-113.578
-88.9998
-62.7787
-36.2067
-7.23108
23.7658
56.0681
89.214
122.89
156.814
190.586
223.799
256.058
286.886
315.831
342.435
366.261
386.968
404.236
417.786
427.418
432.987
434.315
431.366
424.291
413.147
398.124
379.449
357.429
332.369
304.628
274.641
242.816
209.598
175.406
140.652
105.762
71.1096
37.0456
4.0619
-25.5465
-55.6101
-84.5876
-112.075
-137.895
-161.958
-184.218
-204.671
-223.333
-240.231
-255.409
-268.915
-280.798
-291.109
-299.894
-307.196
-313.052
-317.488
-320.532
-322.199
-322.468
-321.053
-318.178
-313.81
-307.905
-300.39
-291.215
-280.319
-267.63
-253.095
-236.66
-218.293
-198.001
-175.788
-151.697
-125.811
-98.2203
-69.0557
-38.4673
-6.60077
26.5881
60.1938
94.1719
128.251
162.11
195.402
227.753
258.771
288.056
315.212
339.859
361.643
380.236
395.361
406.796
414.373
417.963
417.473
412.995
404.589
392.298
376.32
356.867
334.195
308.592
280.394
249.97
217.709
184.032
149.368
114.151
78.805
43.7328
9.32552
-24.1217
-56.3103
-87.0069
-116.029
-143.244
-168.558
-191.913
-213.287
-232.678
-250.101
-265.584
-279.167
-290.896
-300.818
-308.982
-315.439
-320.241
-323.45
-325.108
-325.244
-323.938
-321.24
-317.175
-311.768
-305.042
-296.999
-287.636
-276.947
-264.905
-251.48
-236.64
-220.344
-202.557
-183.245
-162.379
-139.953
-115.976
-90.4833
-63.5372
-35.2394
-5.73031
24.7845
56.7295
88.7051
121.062
153.447
185.497
216.83
247.042
275.717
302.434
326.776
348.338
366.74
381.632
392.718
399.763
402.574
401.045
395.211
385.151
370.971
352.932
331.346
306.586
279.071
249.255
217.608
184.609
150.735
116.446
82.1862
48.3548
15.3039
-16.6682
-47.3102
-76.4234
-103.859
-129.515
-153.331
-175.279
-195.368
-213.626
-230.102
-244.855
-257.951
-269.472
-279.499
-288.105
-295.366
-301.343
-306.087
-309.636
-312.021
-313.243
-313.282
-312.154
-309.835
-306.285
-301.469
-295.338
-287.84
-278.921
-268.523
-256.586
-243.052
-227.867
-210.984
-192.367
-171.993
-149.87
-126.018
-100.493
-73.3797
-44.8053
-14.9349
16.0258
47.8399
80.1957
112.775
145.233
177.197
208.279
238.081
266.2
292.239
315.81
336.554
354.141
368.281
378.742
385.347
387.963
386.539
381.134
371.836
358.757
342.139
322.263
299.451
274.065
246.497
217.152
186.441
154.77
122.532
90.0993
57.8164
25.9961
-5.08672
-35.1937
-64.1256
-91.7213
-117.854
-142.424
-165.363
-186.627
-206.187
-224.036
-240.182
-254.627
-267.396
-278.527
-288.062
-296.037
-302.509
-307.488
-310.967
-312.951
-313.563
-312.778
-310.596
-306.996
-301.955
-295.428
-287.356
-277.682
-266.328
-253.237
-238.361
-221.641
-203.051
-182.594
-160.283
-136.168
-110.367
-82.9891
-54.2099
-24.1646
7.30742
45.5472
79.6532
113.635
147.35
180.587
212.955
244.043
273.502
300.906
325.852
348.005
367.015
382.601
394.511
402.556
406.61
406.603
402.748
394.882
383.039
367.456
348.312
325.857
300.428
272.37
242.052
209.927
176.419
141.964
107.034
72.0575
37.6258
7.71197
-24.9241
-56.6669
-87.07
-115.893
-143.001
-168.317
-191.784
-213.38
-233.094
-250.935
-266.932
-281.111
-293.513
-304.183
-313.167
-320.513
-326.262
-330.458
-333.133
-334.282
-113.829
-89.2419
-63.0199
-36.4019
-7.4426
23.5734
55.9022
89.078
122.788
156.752
190.571
223.837
256.154
287.042
316.048
342.71
366.589
387.344
404.653
418.236
427.891
433.471
434.827
431.843
424.757
413.586
398.527
379.809
357.739
332.626
304.829
274.783
242.902
209.629
175.385
140.584
105.65
70.9557
36.8447
3.79547
-25.7067
-55.823
-84.8275
-112.326
-138.148
-162.208
-184.463
-204.909
-223.564
-240.453
-255.622
-269.118
-280.993
-291.297
-300.075
-307.371
-313.222
-317.655
-320.697
-322.363
-322.628
-321.223
-318.352
-313.991
-308.093
-300.588
-291.423
-280.537
-267.858
-253.332
-236.904
-218.543
-198.254
-176.041
-151.948
-126.055
-98.4566
-69.2791
-38.6755
-6.79164
26.435
60.0692
94.08
128.196
162.097
195.435
227.836
258.907
288.246
315.455
340.154
361.985
380.62
395.781
407.244
414.838
418.445
417.943
413.456
405.03
392.713
376.702
357.208
334.49
308.838
280.588
250.108
217.792
184.059
149.342
114.075
78.6842
43.5724
9.13099
-24.3431
-56.552
-87.2629
-116.294
-143.513
-168.827
-192.179
-213.548
-232.932
-250.347
-265.821
-279.396
-291.117
-301.031
-309.187
-315.637
-320.432
-323.634
-325.284
-325.412
-324.104
-321.402
-317.334
-311.926
-305.2
-297.158
-287.799
-277.114
-265.076
-251.658
-236.825
-220.536
-202.757
-183.451
-162.59
-140.168
-116.192
-90.696
-63.7433
-35.4331
-5.90334
24.6661
56.5485
88.5893
120.988
153.416
185.512
216.895
247.16
275.891
302.665
327.063
348.679
367.131
382.067
393.188
400.256
403.092
401.548
395.706
385.619
371.405
353.319
331.679
306.859
279.281
249.401
217.692
184.634
150.702
116.363
82.058
48.1893
15.1078
-16.8877
-47.5466
-76.6708
-104.112
-129.769
-153.581
-175.524
-195.605
-213.854
-230.319
-245.06
-258.145
-269.656
-279.671
-288.267
-295.52
-301.49
-306.229
-309.776
-312.159
-313.378
-313.419
-312.296
-309.98
-306.436
-301.626
-295.501
-288.011
-279.101
-268.712
-256.783
-243.259
-228.082
-211.207
-192.596
-172.227
-150.106
-126.254
-100.724
-73.6012
-45.0129
-15.1237
15.8623
47.7055
80.0966
112.717
145.219
177.23
208.362
238.217
266.39
292.483
316.105
336.897
354.526
368.702
379.19
385.812
388.445
387.005
381.59
372.267
359.155
342.498
322.574
299.71
274.27
246.646
217.248
186.484
154.764
122.482
90.0087
57.691
25.8417
-5.26518
-35.3906
-64.3365
-91.9415
-118.08
-142.653
-165.591
-186.853
-206.41
-224.254
-240.395
-254.833
-267.596
-278.721
-288.248
-296.216
-302.679
-307.655
-311.141
-313.121
-313.726
-312.941
-310.762
-307.167
-302.132
-295.614
-287.551
-277.887
-266.542
-253.461
-238.594
-221.88
-203.295
-182.841
-160.53
-136.408
-110.6
-83.2127
-54.4243
-24.3789
7.07249
45.458
79.5528
113.556
147.309
180.593
213.013
244.156
273.671
301.131
326.131
348.334
367.389
383.013
394.953
403.02
407.089
407.093
403.207
395.327
383.466
367.851
348.666
326.164
300.682
272.569
242.193
210.011
176.447
141.938
106.954
71.9189
37.3969
7.59364
-25.1213
-56.8985
-87.3176
-116.148
-143.259
-168.574
-192.037
-213.629
-233.337
-251.171
-267.16
-281.331
-293.725
-304.388
-313.365
-320.703
-326.447
-330.639
-333.311
-334.461
-114.164
-89.5646
-63.3324
-36.6713
-7.72622
23.3165
55.6806
88.8964
122.652
156.669
190.55
223.887
256.282
287.251
316.337
343.077
367.027
387.846
405.21
418.836
428.522
434.118
435.495
432.49
425.379
414.172
399.064
380.29
358.152
332.968
305.095
274.973
243.016
209.669
175.357
140.494
105.5
70.7505
36.5769
3.43921
-25.9188
-56.1086
-85.1483
-112.66
-138.485
-162.543
-184.791
-205.227
-223.871
-240.749
-255.905
-269.39
-281.254
-291.548
-300.316
-307.605
-313.449
-317.878
-320.916
-322.58
-322.848
-321.449
-318.583
-314.232
-308.345
-300.852
-291.701
-280.828
-268.162
-253.648
-237.23
-218.876
-198.592
-176.378
-152.282
-126.382
-98.7718
-69.5776
-38.9537
-7.04693
26.2303
59.9032
93.9569
128.121
162.079
195.479
227.946
259.088
288.499
315.78
340.548
362.442
381.134
396.343
407.841
415.458
419.075
418.579
414.077
405.619
393.268
377.211
357.664
334.885
309.166
280.846
250.293
217.902
184.096
149.308
113.975
78.5233
43.3584
8.87161
-24.6382
-56.8744
-87.6042
-116.647
-143.871
-169.185
-192.534
-213.895
-233.27
-250.674
-266.138
-279.701
-291.411
-301.314
-309.46
-315.9
-320.686
-323.878
-325.516
-325.639
-324.326
-321.618
-317.546
-312.136
-305.409
-297.37
-288.015
-277.335
-265.305
-251.895
-237.071
-220.792
-203.023
-183.725
-162.872
-140.454
-116.479
-90.9796
-64.0181
-35.6917
-6.13587
24.4887
56.3265
88.4368
120.89
153.374
185.532
216.982
247.318
276.123
302.973
327.447
349.135
367.653
382.646
393.814
400.915
403.768
402.228
396.369
386.246
371.984
353.836
332.123
307.223
279.562
249.597
217.804
184.665
150.659
116.252
81.8869
47.9685
14.8462
-17.1806
-47.862
-77.0007
-104.449
-130.107
-153.916
-175.851
-195.921
-214.157
-230.609
-245.334
-258.404
-269.9
-279.9
-288.483
-295.725
-301.686
-306.418
-309.961
-312.341
-313.558
-313.605
-312.484
-310.173
-306.636
-301.834
-295.719
-288.239
-279.34
-268.963
-257.046
-243.534
-228.369
-211.505
-192.901
-172.54
-150.421
-126.567
-101.032
-73.8965
-45.2898
-15.3755
15.644
47.5264
79.9645
112.638
145.199
177.274
208.474
238.399
266.644
292.809
316.5
337.356
355.041
369.265
379.789
386.432
389.076
387.635
382.201
372.843
359.688
342.976
322.989
300.056
274.543
246.846
217.375
186.542
154.757
122.414
89.8879
57.5237
25.6356
-5.50328
-35.6534
-64.6178
-92.2354
-118.381
-142.957
-165.896
-187.154
-206.706
-224.545
-240.678
-255.108
-267.863
-278.979
-288.496
-296.454
-302.905
-307.876
-311.376
-313.345
-313.943
-313.159
-310.984
-307.396
-302.37
-295.862
-287.811
-278.16
-266.829
-253.76
-238.904
-222.199
-203.62
-183.17
-160.858
-136.729
-110.912
-83.511
-54.7097
-24.6627
6.759
45.3382
79.417
113.45
147.254
180.601
213.091
244.306
273.896
301.431
326.503
348.772
367.888
383.563
395.544
403.639
407.726
407.739
403.829
395.925
384.036
368.379
349.139
326.573
301.022
272.834
242.381
210.121
176.484
141.902
106.848
71.736
37.0923
7.4342
-25.3868
-57.2085
-87.6482
-116.489
-143.603
-168.917
-192.376
-213.961
-233.661
-251.486
-267.465
-281.625
-294.008
-304.661
-313.628
-320.958
-326.694
-330.88
-333.547
-334.699
-114.583
-89.9678
-63.7074
-37.0236
-8.08271
22.9948
55.4032
88.6687
122.481
156.564
190.524
223.949
256.442
287.511
316.698
343.535
367.576
388.473
405.906
419.588
429.313
434.93
436.321
433.306
426.158
414.905
399.737
380.89
358.67
333.396
305.429
275.21
243.158
209.72
175.322
140.38
105.313
70.4941
36.2432
2.99188
-26.1822
-56.4685
-85.5511
-113.079
-138.908
-162.961
-185.201
-205.625
-224.255
-241.118
-256.26
-269.73
-281.58
-291.861
-300.618
-307.897
-313.734
-318.156
-321.19
-322.851
-323.124
-321.73
-318.873
-314.533
-308.66
-301.182
-292.048
-281.192
-268.542
-254.043
-237.638
-219.293
-199.014
-176.801
-152.701
-126.791
-99.166
-69.9514
-39.3027
-7.36705
25.9743
59.6957
93.8024
128.028
162.056
195.533
228.084
259.313
288.815
316.186
341.04
363.014
381.777
397.045
408.589
416.235
419.86
419.374
414.854
406.358
393.962
377.849
358.234
335.378
309.578
281.169
250.524
218.04
184.142
149.265
113.848
78.3213
43.0903
8.54668
-25.0079
-57.2781
-88.0316
-117.089
-144.32
-169.633
-192.977
-214.33
-233.692
-251.083
-266.533
-280.083
-291.778
-301.668
-309.801
-316.229
-321.004
-324.182
-325.807
-325.924
-324.603
-321.887
-317.81
-312.399
-305.672
-297.634
-288.285
-277.612
-265.59
-252.191
-237.379
-221.112
-203.355
-184.068
-163.224
-140.812
-116.838
-91.3347
-64.3622
-36.0162
-6.42938
24.2477
56.0668
88.2477
120.767
153.321
185.556
217.09
247.515
276.414
303.359
327.926
349.704
368.305
383.372
394.598
401.739
404.612
403.082
397.201
387.031
372.708
354.483
332.679
307.679
279.912
249.841
217.944
184.705
150.605
116.112
81.672
47.6917
14.5182
-17.5476
-48.257
-77.4138
-104.871
-130.531
-154.334
-176.26
-196.316
-214.536
-230.97
-245.677
-258.728
-270.205
-280.187
-288.753
-295.981
-301.93
-306.655
-310.193
-312.568
-313.785
-313.836
-312.72
-310.414
-306.886
-302.094
-295.991
-288.524
-279.64
-269.277
-257.375
-243.878
-228.729
-211.877
-193.284
-172.93
-150.816
-126.96
-101.417
-74.2663
-45.6367
-15.6907
15.3702
47.3018
79.799
112.54
145.174
177.329
208.613
238.627
266.962
293.216
316.994
337.929
355.686
369.968
380.537
387.21
389.862
388.426
382.967
373.565
360.355
343.574
323.508
300.488
274.885
247.096
217.534
186.613
154.746
122.329
89.7361
57.314
25.3774
-5.80149
-35.9825
-64.9699
-92.6032
-118.758
-143.338
-166.277
-187.531
-207.077
-224.909
-241.033
-255.452
-268.197
-279.301
-288.807
-296.752
-303.19
-308.152
-311.669
-313.623
-314.214
-313.431
-311.261
-307.681
-302.666
-296.172
-288.137
-278.502
-267.186
-254.133
-239.291
-222.598
-204.027
-183.582
-161.269
-137.131
-111.302
-83.8839
-55.0658
-25.0145
6.36703
45.1866
79.2439
113.315
147.184
180.61
213.188
244.494
274.177
301.806
326.967
349.321
368.511
384.25
396.282
404.414
408.523
408.538
404.613
396.676
384.75
369.038
349.731
327.085
301.446
273.165
242.616
210.26
176.531
141.858
106.716
71.5103
36.7154
7.22941
-25.7232
-57.5978
-88.0624
-116.915
-144.033
-169.346
-192.799
-214.377
-234.066
-251.879
-267.845
-281.993
-294.362
-305.002
-313.957
-321.275
-327.002
-331.18
-333.843
-334.997
-115.087
-90.4528
-64.1498
-37.4539
-8.5121
22.6078
55.0696
88.3947
122.274
156.438
190.491
224.023
256.633
287.823
317.132
344.086
368.234
389.227
406.743
420.49
430.262
435.906
437.309
434.286
427.094
415.786
400.544
381.611
359.291
333.91
305.828
275.494
243.328
209.779
175.278
140.243
105.088
70.1866
35.8452
2.4528
-26.4971
-56.905
-86.0369
-113.583
-139.415
-163.463
-185.692
-206.103
-224.717
-241.562
-256.686
-270.138
-281.971
-292.237
-300.98
-308.248
-314.075
-318.489
-321.518
-323.175
-323.456
-322.066
-319.219
-314.894
-309.038
-301.579
-292.465
-281.629
-268.998
-254.518
-238.127
-219.794
-199.521
-177.308
-153.204
-127.282
-99.6393
-70.4008
-39.7234
-7.75229
25.6672
59.4465
93.6157
127.914
162.027
195.598
228.249
259.583
289.194
316.672
341.63
363.701
382.549
397.889
409.487
417.168
420.807
420.326
415.786
407.247
394.796
378.615
358.919
335.971
310.071
281.556
250.801
218.205
184.196
149.213
113.696
78.0779
42.7672
8.15557
-25.4529
-57.7638
-88.5456
-117.62
-144.859
-170.172
-193.509
-214.851
-234.2
-251.575
-267.008
-280.541
-292.22
-302.093
-310.211
-316.624
-321.385
-324.547
-326.158
-326.266
-324.935
-322.211
-318.128
-312.714
-305.987
-297.952
-288.609
-277.944
-265.933
-252.546
-237.748
-221.497
-203.754
-184.481
-163.648
-141.242
-117.27
-91.7616
-64.776
-36.407
-6.78492
23.945
55.7666
88.0221
120.619
153.257
185.585
217.219
247.751
276.762
303.821
328.501
350.388
369.089
384.243
395.54
402.73
405.627
404.106
398.199
387.976
373.579
355.261
333.346
308.226
280.332
250.133
218.111
184.751
150.538
115.943
81.4127
47.3581
14.1233
-17.9892
-48.7322
-77.9106
-105.379
-131.04
-154.837
-176.751
-196.791
-214.992
-231.405
-246.089
-259.117
-270.571
-280.53
-289.077
-296.288
-302.224
-306.939
-310.47
-312.841
-314.057
-314.112
-313.002
-310.704
-307.186
-302.406
-296.317
-288.866
-279.999
-269.654
-257.77
-244.292
-229.16
-212.323
-193.743
-173.4
-151.289
-127.432
-101.88
-74.7111
-46.0541
-16.0699
15.0405
47.0313
79.5995
112.42
145.143
177.393
208.779
238.899
267.343
293.705
317.586
338.618
356.46
370.814
381.437
388.144
390.81
389.373
383.886
374.433
361.156
344.293
324.132
301.008
275.295
247.396
217.724
186.699
154.733
122.226
89.5529
57.0614
25.0666
-6.16015
-36.3785
-65.3932
-93.0453
-119.21
-143.795
-166.734
-187.984
-207.522
-225.345
-241.459
-255.865
-268.597
-279.688
-289.179
-297.11
-303.532
-308.483
-312.016
-313.952
-314.538
-313.757
-311.593
-308.023
-303.022
-296.544
-288.527
-278.912
-267.616
-254.581
-239.757
-223.078
-204.517
-184.077
-161.761
-137.613
-111.77
-84.3317
-55.492
-25.432
5.89767
45.0011
79.0312
113.151
147.099
180.621
213.303
244.718
274.514
302.256
327.525
349.979
369.26
385.076
397.17
405.345
409.478
409.496
405.557
397.581
385.608
369.831
350.442
327.699
301.956
273.562
242.897
210.425
176.585
141.805
106.558
71.2436
36.2738
6.97074
-26.1337
-58.0677
-88.5607
-117.427
-144.55
-169.861
-193.308
-214.875
-234.552
-252.351
-268.302
-282.433
-294.787
-305.412
-314.352
-321.657
-327.372
-331.541
-334.197
-335.354
-115.676
-91.0208
-64.6742
-37.9466
-9.01398
22.155
54.6795
88.0739
122.032
156.288
190.45
224.108
256.854
288.187
317.638
344.728
369.002
390.107
407.719
421.544
431.371
437.047
438.463
435.426
428.187
416.815
401.487
382.452
360.016
334.509
306.294
275.824
243.525
209.848
175.226
140.081
104.824
69.828
35.3851
1.82331
-26.866
-57.4211
-86.6069
-114.173
-140.008
-164.05
-186.267
-206.661
-225.255
-242.079
-257.182
-270.614
-282.427
-292.675
-301.403
-308.657
-314.472
-318.878
-321.901
-323.554
-323.84
-322.458
-319.624
-315.314
-309.479
-302.041
-292.951
-282.139
-269.531
-255.072
-238.698
-220.379
-200.113
-177.901
-153.791
-127.856
-100.192
-70.9263
-40.2164
-8.20369
25.3092
59.1552
93.3963
127.781
161.992
195.672
228.44
259.897
289.635
317.24
342.32
364.503
383.451
398.874
410.537
418.258
421.915
421.437
416.874
408.285
395.77
379.509
359.718
336.664
310.647
282.008
251.124
218.397
184.259
149.15
113.516
77.7922
42.3885
7.69754
-25.9736
-58.332
-89.1468
-118.242
-145.488
-170.801
-194.131
-215.46
-234.793
-252.149
-267.563
-281.076
-292.735
-302.59
-310.689
-317.085
-321.829
-324.973
-326.569
-326.664
-325.322
-322.588
-318.498
-313.082
-306.354
-298.323
-288.987
-278.331
-266.333
-252.961
-238.179
-221.945
-204.22
-184.962
-164.143
-141.745
-117.775
-92.2608
-65.26
-36.865
-7.20336
23.5815
55.4239
87.7597
120.445
153.181
185.617
217.368
248.026
277.167
304.359
329.173
351.186
370.005
385.261
396.641
403.889
406.816
405.3
399.364
389.08
374.596
356.168
334.125
308.864
280.822
250.473
218.304
184.804
150.459
115.744
81.1083
46.967
13.661
-18.5062
-49.2881
-78.4915
-105.972
-131.635
-155.424
-177.324
-197.346
-215.524
-231.912
-246.57
-259.571
-270.998
-280.932
-289.455
-296.646
-302.566
-307.269
-310.793
-313.16
-314.376
-314.435
-313.331
-311.042
-307.537
-302.771
-296.698
-289.265
-280.418
-270.093
-258.232
-244.774
-229.663
-212.845
-194.28
-173.948
-151.843
-127.984
-102.421
-75.2313
-46.5426
-16.5134
14.6543
46.7142
79.3657
112.28
145.106
177.468
208.972
239.216
267.787
294.274
318.278
339.423
357.364
371.801
382.489
389.236
391.918
390.479
384.959
375.447
362.092
345.132
324.86
301.614
275.774
247.744
217.945
186.797
154.717
122.105
89.3378
56.7652
24.7024
-6.57977
-36.8416
-65.8882
-93.562
-119.74
-144.33
-167.268
-188.513
-208.042
-225.855
-241.956
-256.348
-269.065
-280.14
-289.614
-297.528
-303.933
-308.871
-312.413
-314.333
-314.915
-314.137
-311.981
-308.422
-303.436
-296.978
-288.983
-279.391
-268.117
-255.104
-240.3
-223.638
-205.088
-184.653
-162.335
-138.179
-112.317
-84.8543
-55.9874
-25.9132
5.35413
44.7772
78.7757
112.955
146.998
180.632
213.437
244.979
274.907
302.781
328.176
350.748
370.135
386.041
398.206
406.432
410.593
410.615
406.658
398.64
386.611
370.756
351.271
328.417
302.55
274.025
243.224
210.617
176.648
141.742
106.375
70.9384
35.7835
6.64083
-26.6221
-58.6195
-89.1437
-118.026
-145.154
-170.462
-193.902
-215.457
-235.119
-252.901
-268.834
-282.948
-295.283
-305.889
-314.812
-322.101
-327.803
-331.961
-334.611
-335.769
-116.35
-91.6735
-65.29
-38.492
-9.58838
21.6361
54.2324
87.7058
121.753
156.115
190.402
224.203
257.106
288.602
318.216
345.463
369.881
391.115
408.837
422.75
432.641
438.353
439.783
436.729
429.438
417.992
402.567
383.415
360.846
335.193
306.827
276.201
243.75
209.925
175.165
139.893
104.523
69.419
34.8651
1.10974
-27.2963
-58.0206
-87.2626
-114.849
-140.687
-164.721
-186.924
-207.298
-225.871
-242.671
-257.75
-271.158
-282.949
-293.175
-301.885
-309.124
-314.927
-319.322
-322.338
-323.988
-324.279
-322.905
-320.085
-315.794
-309.983
-302.569
-293.507
-282.722
-270.14
-255.706
-239.351
-221.048
-200.791
-178.58
-154.463
-128.513
-100.825
-71.5279
-40.782
-8.72261
24.9015
58.8208
93.1436
127.627
161.95
195.755
228.657
260.256
290.139
317.888
343.108
365.421
384.483
400.002
411.738
419.507
423.185
422.708
418.116
409.473
396.884
380.531
360.632
337.455
311.305
282.525
251.493
218.616
184.329
149.077
113.309
77.4635
41.9535
7.17181
-26.5709
-58.9835
-89.8357
-118.953
-146.21
-171.521
-194.843
-216.157
-235.471
-252.806
-268.196
-281.687
-293.323
-303.157
-311.235
-317.611
-322.336
-325.461
-327.039
-327.119
-325.763
-323.018
-318.921
-313.502
-306.774
-298.747
-289.418
-278.774
-266.79
-253.435
-238.672
-222.459
-204.753
-185.514
-164.709
-142.32
-118.353
-92.8326
-65.8147
-37.3906
-7.68549
23.158
55.0369
87.4601
120.245
153.093
185.652
217.538
248.338
277.63
304.974
329.94
352.099
371.052
386.426
397.901
405.216
408.178
406.668
400.698
390.344
375.76
357.206
335.016
309.592
281.381
250.861
218.524
184.862
150.367
115.514
80.758
46.5177
13.1305
-19.0993
-49.9256
-79.1572
-106.652
-132.316
-156.097
-177.98
-197.98
-216.133
-232.491
-247.119
-260.09
-271.486
-281.391
-289.887
-297.055
-302.956
-307.647
-311.162
-313.525
-314.739
-314.803
-313.707
-311.429
-307.937
-303.187
-297.133
-289.722
-280.897
-270.596
-258.759
-245.326
-230.239
-213.441
-194.894
-174.575
-152.476
-128.616
-103.041
-75.8276
-47.1026
-17.0222
14.2109
46.3497
79.0971
112.118
145.061
177.551
209.192
239.578
268.293
294.925
319.068
340.343
358.399
372.931
383.692
390.487
393.188
391.745
386.187
376.608
363.163
346.092
325.692
302.306
276.32
248.142
218.196
186.908
154.696
121.965
89.0903
56.4248
24.2843
-7.06094
-37.3723
-66.4554
-94.1538
-120.346
-144.941
-167.879
-189.118
-208.637
-226.438
-242.523
-256.899
-269.599
-280.657
-290.111
-298.006
-304.391
-309.314
-312.854
-314.765
-315.345
-314.57
-312.422
-308.877
-303.91
-297.473
-289.504
-279.937
-268.69
-255.703
-240.922
-224.278
-205.742
-185.313
-162.995
-138.826
-112.943
-85.4519
-56.5511
-26.4556
4.74368
44.5064
78.4739
112.728
146.88
180.642
213.589
245.277
275.355
303.381
328.92
351.627
371.136
387.145
399.392
407.676
411.869
411.895
407.919
399.853
387.759
371.816
352.22
329.237
303.23
274.554
243.598
210.836
176.717
141.669
106.166
70.5967
35.2747
6.20822
-27.1922
-59.2545
-89.8123
-118.711
-145.845
-171.15
-194.58
-216.123
-235.768
-253.531
-269.444
-283.536
-295.85
-306.435
-315.338
-322.609
-328.295
-332.441
-335.084
-336.244
-117.11
-92.4115
-65.9945
-39.0928
-10.2364
21.0502
53.728
87.2899
121.437
155.917
190.345
224.307
257.388
289.068
318.866
346.29
370.871
392.249
410.097
424.11
434.072
439.825
441.27
438.196
430.847
419.318
403.783
384.498
361.78
335.964
307.425
276.625
244.001
210.01
175.095
139.68
104.182
68.9603
34.288
0.329832
-27.807
-58.7082
-88.0055
-115.612
-141.452
-165.477
-187.664
-208.016
-226.563
-243.337
-258.388
-271.769
-283.535
-293.739
-302.428
-309.649
-315.437
-319.822
-322.83
-324.474
-324.77
-323.406
-320.603
-316.334
-310.549
-303.163
-294.132
-283.377
-270.826
-256.42
-240.087
-221.802
-201.554
-179.345
-155.22
-129.253
-101.537
-72.2061
-41.421
-9.31055
24.4448
58.442
92.8569
127.451
161.901
195.847
228.899
260.658
290.705
318.618
343.995
366.454
385.646
401.273
413.091
420.914
424.618
424.14
419.516
410.812
398.14
381.683
361.661
338.347
312.046
283.105
251.907
218.861
184.407
148.993
113.074
77.091
41.4612
6.57763
-27.2458
-59.7189
-90.6131
-119.756
-147.023
-172.333
-195.644
-216.942
-236.234
-253.545
-268.91
-282.375
-293.986
-303.795
-311.851
-318.204
-322.907
-326.01
-327.567
-327.631
-326.26
-323.503
-319.397
-313.973
-307.245
-299.224
-289.903
-279.272
-267.304
-253.968
-239.227
-223.036
-205.353
-186.134
-165.346
-142.968
-119.005
-93.4776
-66.4406
-37.9847
-8.2321
22.6745
54.604
87.1226
120.019
152.991
185.689
217.726
248.688
278.149
305.665
330.802
353.126
372.231
387.738
399.321
406.712
409.714
408.209
402.201
391.769
377.073
358.376
336.02
310.413
282.009
251.295
218.769
184.926
150.26
115.252
80.3606
46.0091
12.5307
-19.7691
-50.6453
-79.9084
-107.419
-133.084
-156.855
-178.72
-198.694
-216.818
-233.144
-247.738
-260.674
-272.035
-281.906
-290.373
-297.514
-303.395
-308.071
-311.577
-313.934
-315.149
-315.218
-314.129
-311.863
-308.387
-303.655
-297.622
-290.235
-281.435
-271.162
-259.353
-245.947
-230.887
-214.113
-195.587
-175.282
-153.19
-129.328
-103.74
-76.5005
-47.7346
-17.5971
13.7094
45.9376
78.7926
111.934
145.01
177.644
209.437
239.983
268.863
295.658
319.958
341.379
359.564
374.205
385.049
391.897
394.62