/*--------------------------------*- C++ -*----------------------------------*\
| =========                 |                                                 |
| \\      /  F ield         | OpenFOAM: The Open Source CFD Toolbox           |
|  \\    /   O peration     | Version:  3.0.1                                 |
|   \\  /    A nd           | Web:      www.OpenFOAM.org                      |
|    \\/     M anipulation  |                                                 |
\*---------------------------------------------------------------------------*/
FoamFile
{
    version     2.0;
    format      ascii;
    class       volScalarField;
    location    "87.4";
    object      p_rgh;
}
// * * * * * * * * * * * * * * * * * * * * * * * * * * * * * * * * * * * * * //

dimensions      [1 -1 -2 0 0 0 0];

internalField   nonuniform List<scalar> 
21420
(
-274.945
-258.989
-241.214
-221.616
-200.206
-176.981
-151.958
-125.211
-96.8118
-66.8843
-35.6726
-3.77694
29.4518
63.2976
97.4122
131.423
164.957
197.653
229.081
258.794
286.396
311.463
333.593
352.468
367.799
379.348
386.941
390.44
389.757
384.989
376.214
363.489
347.039
327.117
304.007
278.036
249.608
219.113
186.961
153.6
119.446
84.9081
50.3551
16.1283
-17.2391
-49.0602
-80.1729
-110.061
-138.5
-165.329
-190.452
-213.807
-235.357
-255.097
-273.035
-289.199
-303.63
-316.367
-327.459
-336.955
-344.901
-351.34
-356.303
-359.826
-361.903
-362.529
-361.754
-359.52
-355.818
-350.611
-343.852
-335.508
-325.534
-313.87
-300.48
-285.332
-268.401
-249.687
-229.196
-206.96
-183.035
-157.489
-130.419
-101.943
-72.1906
-41.2018
-9.41842
23.0472
55.9349
88.956
121.786
154.07
185.434
215.493
243.863
270.165
294.042
315.158
333.208
347.924
359.079
366.494
370.005
369.594
365.224
356.973
344.858
329.061
309.779
287.26
261.8
233.746
203.481
171.419
137.991
103.641
68.8088
33.9144
-0.64437
-34.5068
-67.3529
-98.9227
-128.99
-157.381
-183.965
-208.652
-231.389
-252.154
-270.945
-287.784
-302.706
-315.754
-326.982
-336.45
-344.221
-350.365
-354.963
-358.071
-359.739
-360.052
-359.078
-356.847
-353.392
-348.731
-342.873
-335.809
-327.516
-317.963
-307.116
-294.929
-281.355
-266.347
-249.86
-231.852
-212.293
-191.162
-168.462
-144.216
-118.473
-91.3079
-62.8221
-33.0858
-2.4348
28.994
60.9579
93.1752
125.327
157.065
188.014
217.777
245.937
272.077
295.779
316.638
334.283
348.379
358.641
364.857
366.781
364.504
357.968
347.207
332.429
313.878
291.864
266.759
238.976
208.962
177.184
144.119
110.24
76.0066
41.8565
8.18936
-24.6248
-56.2962
-86.558
-115.21
-142.107
-167.152
-190.297
-211.53
-230.879
-248.391
-264.129
-278.171
-290.591
-301.468
-310.879
-318.892
-325.575
-330.989
-335.181
-338.206
-340.083
-340.816
-340.465
-339.005
-336.426
-332.712
-327.839
-321.767
-314.454
-305.856
-295.919
-284.585
-271.799
-257.507
-241.656
-224.204
-205.112
-184.36
-161.944
-137.881
-112.215
-85.021
-56.4114
-26.5306
4.44517
36.2058
68.5032
101.018
133.395
165.249
196.175
225.751
253.552
279.159
302.163
322.184
338.873
351.922
361.075
366.11
366.971
363.586
356.029
344.379
328.859
309.738
287.342
262.052
234.289
204.504
173.164
140.746
107.723
74.571
41.951
9.70749
-21.6914
-51.9267
-80.769
-108.048
-133.653
-157.529
-179.651
-200.029
-218.692
-235.686
-251.079
-264.933
-277.334
-288.351
-298.047
-306.454
-313.58
-319.431
-324.014
-327.333
-329.326
-330.127
-329.591
-327.663
-324.284
-319.398
-312.917
-304.761
-294.858
-283.08
-269.341
-253.548
-235.633
-215.583
-193.427
-169.205
-142.98
-114.893
-85.0778
-53.7477
-20.8468
13.2802
48.0049
82.9776
117.935
152.468
186.188
218.647
249.41
278.094
304.293
327.626
347.781
364.472
377.462
386.564
391.668
392.646
389.678
382.684
371.735
357.055
338.85
317.406
293.037
266.099
236.969
206.029
173.715
140.431
106.563
72.5086
38.6314
5.35837
-25.3591
-56.895
-87.2654
-116.252
-143.694
-169.49
-193.569
-215.877
-236.397
-255.112
-272.036
-287.222
-300.727
-275.018
-259.065
-241.293
-221.697
-200.289
-177.064
-152.041
-125.292
-96.8905
-66.9569
-35.7329
-3.84329
29.4007
63.2594
97.3871
131.412
164.962
197.676
229.123
258.856
286.477
311.562
333.709
352.599
367.943
379.501
387.099
390.609
389.916
385.144
376.363
363.629
347.166
327.23
304.102
278.113
249.667
219.153
186.983
153.604
119.433
84.8806
50.315
16.0779
-17.299
-49.1295
-80.2472
-110.14
-138.581
-165.412
-190.535
-213.889
-235.437
-255.176
-273.111
-289.273
-303.701
-316.435
-327.524
-337.018
-344.962
-351.4
-356.361
-359.884
-361.958
-362.587
-361.812
-359.579
-355.878
-350.673
-343.917
-335.576
-325.605
-313.943
-300.555
-285.41
-268.48
-249.767
-229.277
-207.041
-183.114
-157.568
-130.495
-102.014
-72.2572
-41.2657
-9.47409
23.0004
55.8982
88.9311
121.775
154.074
185.453
215.53
243.917
270.236
294.13
315.262
333.326
348.054
359.218
366.639
370.161
369.741
365.368
357.112
344.99
329.182
309.887
287.352
261.875
233.803
203.519
171.437
137.991
103.623
68.7738
33.8646
-0.707085
-34.5801
-67.4349
-99.0112
-129.083
-157.477
-184.062
-208.749
-231.486
-252.248
-271.037
-287.874
-302.793
-315.838
-327.062
-336.527
-344.296
-350.437
-355.031
-358.137
-359.8
-360.113
-359.137
-356.904
-353.449
-348.788
-342.93
-335.868
-327.575
-318.025
-307.18
-294.995
-281.424
-266.419
-249.933
-231.928
-212.37
-191.241
-168.542
-144.295
-118.55
-91.3827
-62.8933
-33.1511
-2.49331
28.9442
60.9185
93.1478
125.314
157.067
188.033
217.813
245.993
272.152
295.873
316.75
334.411
348.52
358.793
365.018
366.946
364.662
358.122
347.353
332.562
313.995
291.963
266.838
239.035
209
177.201
144.117
110.219
75.9691
41.8041
8.12442
-24.7005
-56.3796
-86.6471
-115.303
-142.201
-167.245
-190.389
-211.62
-230.965
-248.474
-264.208
-278.246
-290.663
-301.536
-310.943
-318.954
-325.634
-331.045
-335.236
-338.259
-340.133
-340.868
-340.517
-339.057
-336.479
-332.766
-327.894
-321.824
-314.513
-305.918
-295.983
-284.652
-271.869
-257.579
-241.732
-224.281
-205.192
-184.441
-162.026
-137.962
-112.295
-85.0978
-56.4838
-26.5969
4.38713
36.1581
68.4674
100.996
133.388
165.259
196.203
225.798
253.618
279.243
302.265
322.303
339.006
352.066
361.229
366.274
367.128
363.742
356.179
344.519
328.985
309.848
287.434
262.125
234.341
204.535
173.176
140.739
107.698
74.5284
41.9044
9.64839
-21.76
-52.0016
-80.8479
-108.128
-133.734
-157.609
-179.728
-200.104
-218.764
-235.754
-251.143
-264.994
-277.391
-288.405
-298.099
-306.505
-313.632
-319.483
-324.069
-327.389
-329.378
-330.183
-329.651
-327.726
-324.35
-319.468
-312.991
-304.838
-294.939
-283.165
-269.428
-253.638
-235.724
-215.675
-193.52
-169.296
-143.069
-114.979
-85.1589
-53.8217
-20.9139
13.2256
47.9629
82.9493
117.922
152.472
186.21
218.688
249.47
278.173
304.389
327.738
347.908
364.612
377.611
386.723
391.831
392.81
389.83
382.833
371.877
357.185
338.966
317.506
293.12
266.164
237.016
206.059
173.727
140.427
106.544
72.4777
38.5905
5.31225
-25.4287
-56.9672
-87.3409
-116.33
-143.774
-169.571
-193.649
-215.957
-236.475
-255.189
-272.111
-287.294
-300.797
-275.164
-259.217
-241.45
-221.859
-200.453
-177.231
-152.208
-125.456
-97.048
-67.1022
-35.8529
-3.97657
29.2984
63.1829
97.337
131.391
164.973
197.722
229.207
258.979
286.639
311.761
333.942
352.861
368.229
379.806
387.417
390.94
390.238
385.456
376.662
363.91
347.421
327.454
304.293
278.268
249.784
219.233
187.025
153.612
119.408
84.8255
50.2347
15.9771
-17.4189
-49.268
-80.3957
-110.296
-138.743
-165.577
-190.7
-214.053
-235.599
-255.333
-273.263
-289.42
-303.842
-316.57
-327.655
-337.144
-345.083
-351.517
-356.475
-359.997
-362.067
-362.701
-361.926
-359.695
-355.996
-350.795
-344.044
-335.709
-325.742
-314.086
-300.703
-285.562
-268.635
-249.924
-229.435
-207.198
-183.269
-157.719
-130.641
-102.152
-72.384
-41.3863
-9.57792
22.9146
55.8333
88.8903
121.761
154.091
185.503
215.614
244.036
270.39
294.317
315.48
333.572
348.323
359.505
366.94
370.483
370.041
365.669
357.403
345.265
329.436
310.114
287.548
262.037
233.928
203.606
171.486
138.002
103.599
68.7168
33.7782
-0.818671
-34.7124
-67.5842
-99.1731
-129.254
-157.653
-184.24
-208.927
-231.661
-252.42
-271.204
-288.035
-302.948
-315.987
-327.205
-336.663
-344.426
-350.561
-355.15
-358.249
-359.905
-360.216
-359.237
-357.001
-353.545
-348.884
-343.028
-335.967
-327.678
-318.132
-307.291
-295.111
-281.545
-266.545
-250.065
-232.065
-212.51
-191.383
-168.686
-144.439
-118.691
-91.5185
-63.0223
-33.2682
-2.597
28.8576
60.8526
93.1059
125.3
157.084
188.083
217.899
246.117
272.313
296.072
316.985
334.677
348.813
359.108
365.344
367.291
364.99
358.441
347.656
332.84
314.241
292.173
267.008
239.164
209.087
177.248
144.124
110.19
75.9064
41.7118
8.00737
-24.8386
-56.5329
-86.8113
-115.474
-142.374
-167.418
-190.558
-211.784
-231.123
-248.624
-264.35
-278.38
-290.789
-301.655
-311.055
-319.06
-325.736
-331.142
-335.329
-338.35
-340.218
-340.956
-340.604
-339.145
-336.568
-332.859
-327.99
-321.923
-314.617
-306.027
-296.098
-284.773
-271.996
-257.711
-241.869
-224.423
-205.338
-184.59
-162.176
-138.112
-112.442
-85.2392
-56.6164
-26.7176
4.28305
36.0745
68.4075
100.964
133.386
165.291
196.27
225.902
253.76
279.422
302.48
322.55
339.283
352.367
361.547
366.608
367.452
364.064
356.489
344.809
329.248
310.077
287.627
262.278
234.454
204.607
173.208
140.733
107.655
74.451
41.8187
9.53734
-21.8903
-52.1449
-80.9993
-108.283
-133.89
-157.763
-179.878
-200.248
-218.902
-235.886
-251.267
-265.111
-277.502
-288.511
-298.201
-306.605
-313.731
-319.585
-324.175
-327.498
-329.481
-330.295
-329.769
-327.85
-324.481
-319.606
-313.136
-304.99
-295.101
-283.333
-269.602
-253.818
-235.907
-215.86
-193.705
-169.479
-143.248
-115.152
-85.3211
-53.9696
-21.0478
13.1165
47.8791
82.8928
117.897
152.48
186.254
218.77
249.59
278.329
304.582
327.964
348.163
364.891
377.911
387.037
392.15
393.142
390.136
383.131
372.16
357.445
339.199
317.708
293.287
266.295
237.111
206.117
173.751
140.419
106.507
72.4157
38.5084
5.21897
-25.5671
-57.1115
-87.492
-116.487
-143.934
-169.733
-193.811
-216.117
-236.632
-255.342
-272.26
-287.439
-300.937
-275.383
-259.445
-241.685
-222.101
-200.701
-177.481
-152.458
-125.702
-97.2846
-67.3207
-36.0337
-4.17643
29.1453
63.0681
97.2615
131.359
164.989
197.791
229.333
259.164
286.882
312.06
334.291
353.255
368.66
380.265
387.893
391.424
390.731
385.928
377.112
364.33
347.802
327.79
304.579
278.499
249.96
219.352
187.09
153.623
119.369
84.7425
50.1139
15.8258
-17.5993
-49.4757
-80.6186
-110.531
-138.986
-165.824
-190.949
-214.3
-235.841
-255.569
-273.492
-289.64
-304.054
-316.774
-327.85
-337.332
-345.265
-351.694
-356.648
-360.167
-362.232
-362.872
-362.096
-359.868
-356.174
-350.979
-344.235
-335.907
-325.949
-314.3
-300.925
-285.789
-268.867
-250.159
-229.671
-207.433
-183.502
-157.946
-130.859
-102.358
-72.5743
-41.5664
-9.73287
22.7866
55.7367
88.83
121.742
154.117
185.579
215.741
244.216
270.622
294.6
315.81
333.943
348.73
359.939
367.393
370.959
370.503
366.126
357.842
345.681
329.819
310.457
287.844
262.282
234.118
203.739
171.561
138.021
103.565
68.6334
33.6507
-0.984068
-34.9088
-67.8062
-99.4139
-129.508
-157.914
-184.505
-209.191
-231.922
-252.675
-271.452
-288.275
-303.178
-316.208
-327.417
-336.866
-344.619
-350.745
-355.325
-358.413
-360.062
-360.37
-359.384
-357.145
-353.686
-349.026
-343.172
-336.114
-327.83
-318.29
-307.456
-295.284
-281.725
-266.734
-250.261
-232.267
-212.718
-191.596
-168.9
-144.652
-118.9
-91.7201
-63.2147
-33.4405
-2.75034
28.7299
60.7561
93.0455
125.28
157.111
188.161
218.031
246.304
272.558
296.372
317.339
335.08
349.257
359.583
365.836
367.809
365.488
358.924
348.113
333.258
314.612
292.489
267.266
239.36
209.22
177.32
144.137
110.147
75.8141
41.5752
7.83362
-25.0439
-56.761
-87.0558
-115.728
-142.633
-167.676
-190.811
-212.029
-231.357
-248.847
-264.562
-278.579
-290.977
-301.832
-311.222
-319.219
-325.886
-331.285
-335.467
-338.484
-340.346
-341.086
-340.734
-339.275
-336.701
-332.996
-328.132
-322.07
-314.772
-306.19
-296.268
-284.952
-272.183
-257.907
-242.073
-224.634
-205.555
-184.812
-162.4
-138.336
-112.661
-85.4497
-56.8135
-26.897
4.12917
35.951
68.3198
100.917
133.386
165.341
196.374
226.062
253.976
279.693
302.805
322.925
339.7
352.82
362.026
367.114
367.946
364.553
356.956
345.246
329.644
310.424
287.919
262.51
234.625
204.717
173.257
140.725
107.592
74.3357
41.6909
9.3711
-22.0855
-52.3596
-81.2263
-108.516
-134.123
-157.993
-180.103
-200.466
-219.11
-236.084
-251.454
-265.287
-277.668
-288.669
-298.355
-306.756
-313.881
-319.738
-324.336
-327.661
-329.638
-330.464
-329.947
-328.037
-324.678
-319.814
-313.356
-305.223
-295.343
-283.585
-269.863
-254.087
-236.181
-216.137
-193.982
-169.753
-143.516
-115.411
-85.5649
-54.1917
-21.2483
12.9528
47.7529
82.8077
117.858
152.491
186.321
218.893
249.769
278.565
304.871
328.302
348.545
365.311
378.36
387.508
392.63
393.635
390.6
383.579
372.586
357.837
339.548
318.009
293.538
266.492
237.253
206.205
173.787
140.407
106.451
72.3224
38.3849
5.07756
-25.7739
-57.3279
-87.7186
-116.721
-144.174
-169.975
-194.053
-216.356
-236.867
-255.572
-272.484
-287.656
-301.148
-275.676
-259.748
-241.999
-222.424
-201.03
-177.814
-152.791
-126.031
-97.6005
-67.6131
-36.2788
-4.44042
28.9418
62.915
97.1606
131.316
165.009
197.882
229.501
259.41
287.206
312.458
334.757
353.78
369.234
380.876
388.528
392.065
391.387
386.561
377.713
364.891
348.312
328.239
304.96
278.808
250.195
219.512
187.175
153.637
119.317
84.6315
49.9523
15.6235
-17.8404
-49.7526
-80.9159
-110.845
-139.311
-166.155
-191.281
-214.629
-236.163
-255.883
-273.796
-289.934
-304.337
-317.045
-328.111
-337.583
-345.508
-351.929
-356.877
-360.391
-362.454
-363.099
-362.323
-360.099
-356.41
-351.223
-344.49
-336.172
-326.225
-314.586
-301.22
-286.093
-269.177
-250.473
-229.987
-207.748
-183.812
-158.249
-131.15
-102.633
-72.8294
-41.8061
-9.93944
22.616
55.6079
88.7494
121.716
154.152
185.68
215.911
244.456
270.932
294.978
316.25
334.439
349.273
360.519
367.998
371.578
371.13
366.741
358.43
346.237
330.331
310.916
288.241
262.609
234.372
203.917
171.662
138.048
103.52
68.5222
33.4808
-1.20471
-35.1709
-68.1023
-99.7351
-129.846
-158.263
-184.858
-209.544
-232.27
-253.015
-271.783
-288.595
-303.486
-316.503
-327.699
-337.135
-344.876
-350.991
-355.557
-358.631
-360.275
-360.573
-359.581
-357.336
-353.875
-349.215
-343.364
-336.31
-328.032
-318.5
-307.675
-295.513
-281.965
-266.984
-250.522
-232.537
-212.996
-191.879
-169.185
-144.936
-119.179
-91.9888
-63.4718
-33.6692
-2.95458
28.5599
60.6275
92.9651
125.255
157.147
188.264
218.206
246.555
272.886
296.775
317.813
335.618
349.849
360.217
366.494
368.493
366.159
359.571
348.724
333.818
315.107
292.912
267.61
239.621
209.398
177.416
144.154
110.091
75.691
41.393
7.60167
-25.3177
-57.0655
-87.3818
-116.067
-142.977
-168.019
-191.148
-212.355
-231.67
-249.144
-264.843
-278.844
-291.227
-302.068
-311.445
-319.429
-326.086
-331.475
-335.651
-338.661
-340.518
-341.259
-340.906
-339.449
-336.879
-333.179
-328.32
-322.267
-314.978
-306.406
-296.495
-285.19
-272.433
-258.169
-242.345
-224.916
-205.845
-185.108
-162.699
-138.633
-112.953
-85.7303
-57.0767
-27.1363
3.92476
35.7866
68.2031
100.855
133.386
165.408
196.513
226.275
254.264
280.056
303.239
323.425
340.259
353.426
362.666
367.781
368.615
365.21
357.582
345.83
330.173
310.887
288.308
262.821
234.854
204.863
173.323
140.715
107.508
74.1815
41.5204
9.14869
-22.3463
-52.6464
-81.5295
-108.827
-134.435
-158.3
-180.403
-200.755
-219.388
-236.348
-251.704
-265.522
-277.891
-288.881
-298.56
-306.957
-314.081
-319.941
-324.548
-327.878
-329.851
-330.689
-330.184
-328.286
-324.94
-320.091
-313.648
-305.53
-295.666
-283.922
-270.212
-254.446
-236.547
-216.507
-194.352
-170.12
-143.874
-115.757
-85.8908
-54.4885
-21.5154
12.7343
47.5844
82.6938
117.806
152.507
186.409
219.057
250.008
278.879
305.256
328.754
349.055
365.871
378.959
388.135
393.27
394.285
391.227
384.179
373.154
358.358
340.013
318.412
293.872
266.754
237.442
206.321
173.834
140.39
106.375
72.1974
38.2195
4.88662
-26.0484
-57.6162
-88.0209
-117.034
-144.494
-170.298
-194.375
-216.676
-237.181
-255.879
-272.782
-287.946
-301.429
-276.041
-260.128
-242.392
-222.828
-201.443
-178.231
-153.209
-126.442
-97.9964
-67.9804
-36.5897
-4.76773
28.6882
62.7233
97.0339
131.261
165.034
197.996
229.71
259.717
287.61
312.957
335.34
354.437
369.952
381.641
389.324
392.871
392.2
387.357
378.465
365.593
348.949
328.801
305.437
279.194
250.488
219.711
187.281
153.654
119.252
84.4919
49.7491
15.3698
-18.1426
-50.0988
-81.2878
-111.238
-139.717
-166.568
-191.695
-215.04
-236.567
-256.276
-274.177
-290.301
-304.69
-317.384
-328.437
-337.897
-345.812
-352.223
-357.163
-360.671
-362.734
-363.381
-362.607
-360.388
-356.706
-351.53
-344.808
-336.504
-326.57
-314.944
-301.59
-286.473
-269.565
-250.866
-230.381
-208.141
-184.2
-158.628
-131.515
-102.978
-73.1503
-42.1045
-10.198
22.4022
55.4462
88.648
121.683
154.196
185.806
216.123
244.756
271.32
295.449
316.801
335.06
349.953
361.245
368.755
372.349
371.915
367.512
359.167
346.932
330.972
311.489
288.736
263.019
234.69
204.139
171.789
138.08
103.463
68.3825
33.2676
-1.48149
-35.4995
-68.4731
-100.138
-130.27
-158.7
-185.3
-209.985
-232.706
-253.441
-272.197
-288.994
-303.871
-316.872
-328.052
-337.472
-345.198
-351.297
-355.847
-358.905
-360.54
-360.828
-359.826
-357.575
-354.111
-349.452
-343.603
-336.555
-328.286
-318.764
-307.95
-295.8
-282.265
-267.297
-250.848
-232.875
-213.343
-192.233
-169.543
-145.292
-119.528
-92.3252
-63.7943
-33.9556
-3.2107
28.3467
60.4661
92.864
125.223
157.192
188.394
218.426
246.869
273.295
297.278
318.405
336.291
350.591
361.011
367.321
369.34
367.004
360.382
349.489
334.518
315.727
293.44
268.039
239.947
209.62
177.535
144.176
110.02
75.5362
41.1643
7.31053
-25.6608
-57.4471
-87.7904
-116.492
-143.409
-168.45
-191.569
-212.763
-232.061
-249.516
-265.195
-279.177
-291.539
-302.364
-311.723
-319.692
-326.337
-331.714
-335.88
-338.881
-340.734
-341.475
-341.121
-339.666
-337.101
-333.408
-328.556
-322.513
-315.236
-306.677
-296.78
-285.489
-272.746
-258.496
-242.685
-225.268
-206.207
-185.478
-163.073
-139.006
-113.319
-86.0818
-57.4064
-27.437
3.66963
35.5803
68.0565
100.778
133.385
165.492
196.686
226.541
254.625
280.51
303.782
324.052
340.958
354.184
363.468
368.609
369.455
366.033
358.366
346.561
330.835
311.467
288.795
263.209
235.139
205.045
173.406
140.702
107.402
73.9875
41.3072
8.86933
-22.6734
-53.0059
-81.9093
-109.216
-134.826
-158.685
-180.778
-201.118
-219.735
-236.679
-252.016
-265.816
-278.169
-289.145
-298.815
-307.207
-314.33
-320.194
-324.811
-328.147
-330.122
-330.973
-330.481
-328.597
-325.268
-320.437
-314.014
-305.917
-296.07
-284.343
-270.648
-254.894
-237.004
-216.97
-194.816
-170.578
-144.322
-116.19
-86.2994
-54.8606
-21.849
12.461
47.373
82.5507
117.74
152.526
186.518
219.261
250.307
279.271
305.738
329.318
349.693
366.571
379.708
388.919
394.072
395.09
392.017
384.932
373.865
359.011
340.596
318.915
294.289
267.081
237.677
206.467
173.893
140.368
106.28
72.0404
38.0115
4.64465
-26.3901
-57.9765
-88.3989
-117.426
-144.895
-170.703
-194.779
-217.075
-237.574
-256.263
-273.155
-288.308
-301.78
-276.48
-260.583
-242.863
-223.313
-201.938
-178.733
-153.711
-126.936
-98.4727
-68.4237
-36.967
-5.15869
28.3849
62.493
96.8809
131.194
165.063
198.131
229.96
260.085
288.096
313.555
336.04
355.225
370.814
382.561
390.28
393.842
393.174
388.311
379.37
366.436
349.714
329.475
306.01
279.658
250.839
219.949
187.407
153.674
119.173
84.3232
49.5037
15.0638
-18.5063
-50.514
-81.7346
-111.71
-140.205
-167.065
-192.194
-215.534
-237.051
-256.749
-274.634
-290.742
-305.114
-317.791
-328.829
-338.274
-346.176
-352.576
-357.507
-361.006
-363.069
-363.718
-362.947
-360.734
-357.06
-351.897
-345.19
-336.901
-326.983
-315.373
-302.033
-286.929
-270.031
-251.338
-230.855
-208.613
-184.665
-159.083
-131.954
-103.394
-73.5369
-42.4622
-10.509
22.1449
55.2514
88.5253
121.643
154.247
185.956
216.377
245.116
271.785
296.016
317.462
335.805
350.77
362.118
369.666
373.278
372.856
368.436
360.053
347.768
331.741
312.178
289.332
263.512
235.072
204.406
171.939
138.117
103.393
68.2136
33.0103
-1.81508
-35.8953
-68.9194
-100.622
-130.781
-159.226
-185.832
-210.515
-233.229
-253.953
-272.694
-289.475
-304.333
-317.316
-328.477
-337.877
-345.584
-351.665
-356.195
-359.236
-360.858
-361.133
-360.12
-357.862
-354.394
-349.736
-343.891
-336.85
-328.59
-319.08
-308.28
-296.145
-282.626
-267.674
-251.24
-233.28
-213.76
-192.659
-169.972
-145.72
-119.947
-92.7296
-64.1816
-34.3009
-3.51956
28.0897
60.2712
92.7415
125.183
157.245
188.547
218.688
247.244
273.786
297.882
319.117
337.1
351.482
361.965
368.315
370.356
368.019
361.357
350.408
335.36
316.472
294.075
268.555
240.338
209.886
177.678
144.2
109.934
75.3492
40.8886
6.95921
-26.0738
-57.9067
-88.2823
-117.004
-143.929
-168.967
-192.076
-213.254
-232.531
-249.962
-265.618
-279.576
-291.915
-302.718
-312.058
-320.009
-326.637
-332.001
-336.155
-339.146
-340.995
-341.734
-341.38
-339.927
-337.368
-333.682
-328.84
-322.809
-315.546
-307.002
-297.121
-285.847
-273.122
-258.889
-243.094
-225.691
-206.643
-185.922
-163.523
-139.454
-113.758
-86.5047
-57.8032
-27.7996
3.36264
35.3316
67.8794
100.683
133.384
165.592
196.894
226.86
255.058
281.054
304.435
324.804
341.798
355.096
364.432
369.602
370.463
367.021
359.309
347.44
331.631
312.163
289.38
263.674
235.482
205.264
173.504
140.685
107.274
73.7523
41.0514
8.5322
-23.0674
-53.4385
-82.3661
-109.683
-135.295
-159.147
-181.229
-201.553
-220.152
-237.075
-252.391
-266.17
-278.502
-289.463
-299.121
-307.508
-314.629
-320.498
-325.124
-328.47
-330.451
-331.315
-330.837
-328.97
-325.661
-320.853
-314.453
-306.381
-296.554
-284.849
-271.172
-255.433
-237.554
-217.525
-195.372
-171.128
-144.86
-116.71
-86.791
-55.3093
-22.2491
12.1326
47.1185
82.3781
117.66
152.547
186.649
219.505
250.665
279.741
306.317
329.996
350.458
367.412
380.608
389.861
395.034
396.054
392.966
385.839
374.719
359.795
341.295
319.519
294.79
267.474
237.96
206.641
173.963
140.341
106.166
71.8506
37.7604
4.35013
-26.7985
-58.4086
-88.853
-117.897
-145.376
-171.189
-195.264
-217.555
-238.045
-256.723
-273.603
-288.742
-302.201
-276.991
-261.115
-243.414
-223.879
-202.516
-179.318
-154.298
-127.514
-99.0302
-68.9445
-37.4122
-5.61289
28.0323
62.2236
96.7013
131.114
165.096
198.288
230.251
260.515
288.663
314.253
336.857
356.146
371.822
383.635
391.397
394.979
394.311
389.424
380.427
367.421
350.608
330.261
306.678
280.198
251.248
220.225
187.554
153.697
119.079
84.1248
49.2152
14.7037
-18.9312
-50.9983
-82.2564
-112.261
-140.776
-167.646
-192.776
-216.11
-237.617
-257.3
-275.168
-291.257
-305.609
-318.266
-329.285
-338.713
-346.6
-352.987
-357.909
-361.399
-363.461
-364.111
-363.343
-361.137
-357.474
-352.326
-345.636
-337.365
-327.466
-315.874
-302.551
-287.462
-270.575
-251.889
-231.409
-209.164
-185.21
-159.614
-132.466
-103.881
-73.989
-42.8803
-10.8728
21.8437
55.0228
88.3808
121.594
154.305
186.13
216.672
245.535
272.328
296.677
318.234
336.676
351.723
363.137
370.73
374.365
373.953
369.515
361.088
348.745
332.64
312.982
290.027
264.086
235.516
204.716
172.114
138.16
103.31
68.0151
32.7083
-2.20638
-36.359
-69.442
-101.188
-131.377
-159.84
-186.454
-211.135
-233.841
-254.551
-273.275
-290.036
-304.873
-317.834
-328.972
-338.351
-346.035
-352.094
-356.602
-359.623
-361.229
-361.488
-360.463
-358.197
-354.725
-350.067
-344.226
-337.193
-328.945
-319.449
-308.665
-296.547
-283.047
-268.113
-251.697
-233.755
-214.248
-193.156
-170.475
-146.22
-120.438
-93.2023
-64.6247
-34.7155
-3.88197
27.7882
60.0422
92.597
125.135
157.305
188.726
218.993
247.682
274.359
298.588
319.948
338.045
352.523
363.081
369.479
371.544
369.204
362.498
351.482
336.343
317.342
294.817
269.156
240.794
210.195
177.843
144.227
109.832
75.1292
40.5647
6.54703
-26.5576
-58.4452
-88.8582
-117.602
-144.536
-169.572
-192.669
-213.827
-233.08
-250.484
-266.112
-280.042
-292.354
-303.132
-312.449
-320.378
-326.988
-332.335
-336.477
-339.456
-341.299
-342.036
-341.681
-340.232
-337.679
-334.001
-329.172
-323.155
-315.908
-307.381
-297.52
-286.266
-273.561
-259.348
-243.572
-226.186
-207.152
-186.442
-164.048
-139.978
-114.273
-86.9996
-58.2677
-28.2246
3.00307
35.0395
67.6712
100.572
133.381
165.707
197.134
227.232
255.562
281.69
305.196
325.682
342.779
356.161
365.559
370.765
371.639
368.175
360.412
348.467
332.56
312.976
290.063
264.218
235.88
205.518
173.618
140.664
107.125
73.4733
40.7542
8.1362
-23.5293
-53.9449
-82.9006
-110.23
-135.843
-159.687
-181.755
-202.061
-220.639
-237.538
-252.828
-266.582
-278.891
-289.833
-299.478
-307.858
-314.977
-320.851
-325.488
-328.848
-330.842
-331.716
-331.253
-329.406
-326.12
-321.338
-314.964
-306.918
-297.121
-285.439
-271.783
-256.062
-238.195
-218.174
-196.022
-171.772
-145.488
-117.316
-87.3657
-55.8365
-22.7156
11.7486
46.8201
82.1753
117.566
152.571
186.8
219.79
251.083
280.29
306.992
330.786
351.352
368.393
381.66
390.96
396.159
397.18
394.074
386.899
375.717
360.711
342.111
320.224
295.374
267.931
238.289
206.842
174.043
140.308
106.03
71.6274
37.4653
4.00145
-27.2732
-58.9128
-89.3832
-118.447
-145.938
-171.756
-195.83
-218.115
-238.596
-257.261
-274.126
-289.249
-302.693
-277.576
-261.723
-244.043
-224.526
-203.177
-179.988
-154.969
-128.176
-99.6695
-69.5444
-37.9305
-6.12565
27.6309
61.9149
96.4943
131.022
165.131
198.465
230.582
261.005
289.311
315.051
337.792
357.2
372.975
384.864
392.677
396.281
395.613
390.696
381.636
368.547
351.63
331.161
307.442
280.816
251.714
220.541
187.721
153.721
118.97
83.8959
48.8825
14.2864
-19.4159
-51.5514
-82.8538
-112.892
-141.429
-168.31
-193.442
-216.77
-238.264
-257.93
-275.778
-291.845
-306.174
-318.809
-329.807
-339.215
-347.085
-353.458
-358.367
-361.848
-363.908
-364.559
-363.796
-361.597
-357.947
-352.816
-346.145
-337.896
-328.018
-316.446
-303.144
-288.071
-271.197
-252.52
-232.042
-209.795
-185.832
-160.222
-133.053
-104.439
-74.5067
-43.3593
-11.2897
21.4979
54.7599
88.2139
121.537
154.37
186.327
217.008
246.013
272.948
297.434
319.117
337.672
352.815
364.304
371.949
375.611
375.207
370.748
362.274
349.862
333.669
313.902
290.823
264.743
236.024
205.07
172.313
138.207
103.213
67.786
32.3607
-2.65626
-36.8914
-70.0417
-101.838
-132.062
-160.544
-187.166
-211.846
-234.541
-255.236
-273.94
-290.678
-305.491
-318.427
-329.539
-338.892
-346.551
-352.585
-357.068
-360.066
-361.652
-361.894
-360.855
-358.579
-355.103
-350.445
-344.609
-337.586
-329.351
-319.871
-309.105
-297.008
-283.528
-268.616
-252.221
-234.298
-214.807
-193.726
-171.05
-146.793
-121.001
-93.7442
-65.1293
-35.1951
-4.29845
27.4418
59.7785
92.43
125.078
157.371
188.928
219.34
248.181
275.012
299.394
320.899
339.126
353.715
364.359
370.813
372.904
370.558
363.805
352.713
337.468
318.338
295.664
269.843
241.315
210.547
178.03
144.256
109.712
74.8752
40.1917
6.07329
-27.1131
-59.0632
-89.5192
-118.289
-145.233
-170.265
-193.348
-214.484
-233.709
-251.082
-266.677
-280.575
-292.857
-303.605
-312.895
-320.801
-327.389
-332.718
-336.844
-339.811
-341.647
-342.381
-342.026
-340.581
-338.035
-334.367
-329.551
-323.55
-316.321
-307.816
-297.976
-286.745
-274.063
-259.873
-244.119
-226.753
-207.735
-187.038
-164.65
-140.579
-114.862
-87.5671
-58.8003
-28.7135
2.59081
34.7032
67.4312
100.443
133.375
165.836
197.409
227.656
256.138
282.416
306.067
326.686
343.901
357.381
366.85
372.098
372.984
369.496
361.674
349.643
333.623
313.906
290.843
264.839
236.336
205.808
173.747
140.64
106.954
73.1486
40.416
7.68001
-24.0598
-54.5259
-83.5132
-110.857
-136.47
-160.305
-182.356
-202.642
-221.196
-238.068
-253.328
-267.053
-279.335
-290.255
-299.886
-308.257
-315.375
-321.254
-325.903
-329.28
-331.296
-332.175
-331.728
-329.904
-326.645
-321.892
-315.549
-307.532
-297.768
-286.113
-272.482
-256.781
-238.929
-218.917
-196.766
-172.508
-146.208
-118.01
-88.024
-56.4441
-23.2478
11.3086
46.4773
81.9418
117.456
152.597
186.972
220.114
251.56
280.917
307.763
331.691
352.375
369.517
382.862
392.219
397.446
398.468
395.341
388.113
376.86
361.758
343.045
321.03
296.041
268.454
238.664
207.072
174.133
140.269
105.874
71.37
37.1252
3.597
-27.8136
-59.489
-89.99
-119.076
-146.582
-172.405
-196.478
-218.756
-239.225
-257.875
-274.723
-289.829
-303.254
-278.235
-262.408
-244.752
-225.255
-203.921
-180.743
-155.727
-128.923
-100.391
-70.2254
-38.5426
-6.67733
27.1813
61.5661
96.2593
130.915
165.168
198.663
230.953
261.556
290.04
315.95
338.845
358.387
374.274
386.249
394.12
397.749
397.079
392.127
382.998
369.816
352.782
332.175
308.301
281.51
252.238
220.894
187.906
153.746
118.845
83.6356
48.5044
13.8104
-19.9605
-52.1736
-83.5273
-113.604
-142.166
-169.059
-194.193
-217.513
-238.993
-258.64
-276.465
-292.506
-306.81
-319.42
-330.393
-339.78
-347.631
-353.986
-358.883
-362.354
-364.41
-365.062
-364.305
-362.114
-358.479
-353.367
-346.718
-338.492
-328.639
-317.091
-303.81
-288.757
-271.897
-253.229
-232.756
-210.505
-186.533
-160.907
-133.714
-105.068
-75.0923
-43.8986
-11.76
21.107
54.4619
88.024
121.471
154.442
186.548
217.386
246.551
273.646
298.285
320.111
338.794
354.045
365.619
373.323
377.017
376.62
372.137
363.61
351.121
334.828
314.939
291.718
265.482
236.596
205.467
172.535
138.258
103.102
67.5253
31.9665
-3.16585
-37.4931
-70.7197
-102.572
-132.834
-161.339
-187.969
-212.647
-235.33
-256.007
-274.689
-291.401
-306.187
-319.094
-330.178
-339.502
-347.132
-353.138
-357.593
-360.565
-362.128
-362.351
-361.296
-359.01
-355.528
-350.87
-345.041
-338.029
-329.808
-320.346
-309.601
-297.526
-284.071
-269.183
-252.811
-234.91
-215.437
-194.369
-171.699
-147.44
-121.636
-94.3558
-65.7012
-35.7354
-4.76945
27.0495
59.4793
92.2395
125.012
157.444
189.154
219.729
248.742
275.747
300.301
321.969
340.344
355.059
365.8
372.317
374.437
372.084
365.279
354.1
338.736
319.459
296.618
270.616
241.899
210.942
178.239
144.286
109.576
74.5865
39.7688
5.53696
-27.7418
-59.7615
-90.266
-119.064
-146.019
-171.047
-194.114
-215.224
-234.417
-251.755
-267.313
-281.175
-293.422
-304.138
-313.398
-321.277
-327.84
-333.149
-337.257
-340.211
-342.039
-342.769
-342.414
-340.974
-338.436
-334.78
-329.978
-323.995
-316.787
-308.304
-298.49
-287.285
-274.629
-260.464
-244.735
-227.391
-208.392
-187.709
-165.328
-141.256
-115.528
-88.2079
-59.4017