/*--------------------------------*- C++ -*----------------------------------*\
| =========                 |                                                 |
| \\      /  F ield         | OpenFOAM: The Open Source CFD Toolbox           |
|  \\    /   O peration     | Version:  3.0.1                                 |
|   \\  /    A nd           | Web:      www.OpenFOAM.org                      |
|    \\/     M anipulation  |                                                 |
\*---------------------------------------------------------------------------*/
FoamFile
{
    version     2.0;
    format      ascii;
    class       volScalarField;
    location    "38";
    object      p_rgh;
}
// * * * * * * * * * * * * * * * * * * * * * * * * * * * * * * * * * * * * * //

dimensions      [1 -1 -2 0 0 0 0];

internalField   nonuniform List<scalar> 
21420
(
-154.924
-174.8
-193.275
-210.266
-225.73
-239.683
-252.144
-263.152
-272.743
-280.957
-287.83
-293.397
-297.683
-300.707
-302.46
-302.945
-302.145
-300.057
-296.653
-291.89
-285.738
-278.147
-269.063
-258.445
-246.245
-232.42
-216.929
-199.729
-180.808
-160.159
-137.768
-113.672
-87.9196
-60.5792
-31.818
-1.70143
29.634
61.9455
94.9831
128.501
162.167
195.652
228.579
260.555
291.232
320.227
347.153
371.683
393.491
412.271
427.778
439.797
448.167
452.788
453.504
450.457
443.572
432.946
418.758
401.208
380.527
356.99
330.884
302.557
272.373
240.694
207.901
174.365
140.455
106.515
72.8648
39.8254
7.69092
-23.2986
-57.179
-85.8974
-113.238
-139.121
-163.457
-186.192
-207.28
-226.694
-244.41
-260.391
-274.632
-287.09
-297.751
-306.606
-313.752
-319.203
-322.818
-324.626
-324.78
-323.34
-320.377
-315.94
-310.041
-302.696
-293.904
-283.643
-271.883
-258.59
-243.736
-227.292
-209.228
-189.526
-168.187
-145.225
-120.671
-94.5795
-67.0402
-37.9471
-7.83028
23.3459
55.3655
87.9878
120.944
153.931
186.613
218.633
249.612
279.152
306.846
332.284
355.072
374.832
391.215
403.92
412.694
417.344
417.639
413.728
405.498
393.025
376.496
356.133
332.233
305.146
275.26
243.011
208.851
173.252
136.691
99.6304
62.5178
25.7765
-10.2057
-45.0837
-78.5515
-110.382
-140.372
-168.381
-194.308
-218.104
-239.757
-259.282
-276.722
-292.139
-305.604
-317.196
-326.997
-335.081
-341.52
-346.376
-349.705
-351.553
-351.936
-350.864
-348.392
-344.503
-339.196
-332.455
-324.274
-314.642
-303.545
-290.966
-276.896
-261.326
-244.246
-225.647
-205.524
-183.88
-160.726
-136.094
-110.031
-82.6122
-53.9415
-24.0788
6.6792
38.1763
70.1671
102.372
134.474
166.117
196.911
226.437
254.253
279.917
302.987
323.044
339.705
352.636
361.566
366.293
366.609
362.593
354.19
341.523
324.753
304.156
280.061
252.861
223
190.953
157.225
122.324
86.749
50.9799
15.4595
-19.4124
-53.2881
-85.8619
-116.929
-146.289
-173.81
-199.402
-223.016
-244.64
-264.289
-281.998
-297.82
-311.813
-324.049
-334.598
-343.526
-350.901
-356.786
-361.237
-364.31
-366.047
-366.463
-365.583
-363.451
-360.048
-355.372
-349.411
-342.147
-333.561
-323.624
-312.306
-299.571
-285.384
-269.714
-252.531
-233.816
-213.559
-191.772
-168.48
-143.736
-117.621
-90.2502
-61.7689
-32.0334
-1.71787
29.1183
60.2661
91.4257
122.28
152.49
181.699
209.526
235.607
259.565
281.04
299.711
315.265
327.434
335.981
340.683
341.305
338.004
331.817
322.033
308.613
292.061
272.52
250.243
225.607
198.865
170.5
140.838
110.317
79.3742
48.3244
17.5046
-12.5942
-40.0703
-65.9386
-91.0791
-115.395
-138.462
-160.097
-180.184
-198.678
-215.577
-230.888
-244.64
-256.876
-267.641
-276.984
-284.95
-291.58
-296.904
-300.937
-303.685
-305.102
-305.154
-303.727
-300.846
-296.451
-290.478
-282.869
-273.582
-262.564
-249.789
-235.232
-218.879
-200.763
-180.914
-159.371
-136.211
-111.53
-85.4398
-58.0887
-29.6545
-0.310025
29.7059
60.1763
90.8687
121.493
151.781
181.472
210.246
237.815
263.845
288.033
310.114
329.802
346.836
360.996
372.072
379.879
384.268
385.117
382.384
376.029
366.142
-154.995
-174.869
-193.343
-210.333
-225.794
-239.745
-252.204
-263.21
-272.799
-281.01
-287.882
-293.447
-297.733
-300.757
-302.508
-302.995
-302.196
-300.109
-296.706
-291.945
-285.795
-278.206
-269.125
-258.509
-246.312
-232.489
-217
-199.803
-180.883
-160.235
-137.844
-113.749
-87.9949
-60.6522
-31.8876
-1.76639
29.5753
61.8947
94.9418
128.471
162.15
195.649
228.592
260.584
291.277
320.288
347.231
371.777
393.599
412.392
427.91
439.937
448.313
452.937
453.663
450.6
443.714
433.081
418.884
401.322
380.627
357.076
330.953
302.61
272.41
240.715
207.906
174.355
140.432
106.479
72.8171
39.7668
7.62199
-23.3741
-57.2451
-85.9668
-113.312
-139.197
-163.534
-186.27
-207.357
-226.771
-244.486
-260.465
-274.706
-287.163
-297.824
-306.681
-313.827
-319.27
-322.888
-324.695
-324.848
-323.407
-320.443
-316.007
-310.108
-302.764
-293.972
-283.713
-271.954
-258.663
-243.812
-227.369
-209.307
-189.607
-168.268
-145.306
-120.751
-94.6583
-67.1135
-38.0246
-7.89956
23.2838
55.3114
87.9434
120.91
153.91
186.607
218.643
249.638
279.196
306.908
332.365
355.17
374.947
391.345
404.062
412.846
417.501
417.808
413.881
405.65
393.17
376.629
356.251
332.335
305.228
275.322
243.052
208.872
173.253
136.673
99.5947
62.4663
25.7112
-10.2827
-45.1703
-78.6455
-110.482
-140.475
-168.485
-194.412
-218.206
-239.857
-259.378
-276.814
-292.227
-305.688
-317.276
-327.074
-335.155
-341.591
-346.445
-349.771
-351.618
-351.998
-350.928
-348.456
-344.567
-339.26
-332.52
-324.34
-314.709
-303.613
-291.035
-276.966
-261.397
-244.318
-225.721
-205.598
-183.955
-160.802
-136.169
-110.105
-82.6837
-54.0082
-24.1436
6.6222
38.1275
70.1284
102.345
134.461
166.12
196.931
226.476
254.312
279.995
303.085
323.161
339.837
352.782
361.722
366.456
366.781
362.753
354.347
341.672
324.888
304.276
280.162
252.941
223.057
190.989
157.239
122.317
86.7228
50.9366
15.4015
-19.4827
-53.368
-85.949
-117.021
-146.385
-173.907
-199.498
-223.111
-244.733
-264.378
-282.085
-297.902
-311.892
-324.125
-334.67
-343.594
-350.967
-356.849
-361.298
-364.37
-366.105
-366.519
-365.639
-363.508
-360.104
-355.429
-349.469
-342.206
-333.621
-323.686
-312.37
-299.636
-285.452
-269.784
-252.603
-233.889
-213.633
-191.846
-168.554
-143.808
-117.691
-90.315
-61.8267
-32.0906
-1.76545
29.0824
60.2419
91.4143
122.283
152.51
181.736
209.581
235.679
259.655
281.148
299.835
315.403
327.584
336.14
340.849
341.489
338.205
331.983
322.185
308.764
292.202
272.644
250.349
225.692
198.928
170.542
140.859
110.319
79.3567
48.2883
17.4493
-12.6625
-40.1081
-65.9893
-91.1434
-115.467
-138.536
-160.171
-180.258
-198.75
-215.646
-230.955
-244.704
-256.937
-267.699
-277.039
-285.004
-291.632
-296.955
-300.988
-303.736
-305.155
-305.208
-303.785
-300.905
-296.513
-290.543
-282.936
-273.651
-262.635
-249.863
-235.306
-218.954
-200.839
-180.989
-159.445
-136.283
-111.599
-85.5049
-58.1486
-29.7082
-0.357171
29.6669
60.1464
90.8488
121.484
151.783
181.487
210.274
237.857
263.901
288.102
310.197
329.897
346.942
361.113
372.197
380.012
384.407
385.266
382.519
376.163
366.273
-155.135
-175.008
-193.479
-210.465
-225.923
-239.869
-252.323
-263.325
-272.909
-281.117
-287.986
-293.549
-297.832
-300.855
-302.606
-303.097
-302.298
-300.212
-296.813
-292.055
-285.909
-278.325
-269.248
-258.638
-246.445
-232.627
-217.142
-199.949
-181.033
-160.387
-137.997
-113.901
-88.1455
-60.7978
-32.0268
-1.89627
29.4581
61.7933
94.8595
128.411
162.116
195.644
228.617
260.641
291.367
320.412
347.388
371.964
393.816
412.635
428.174
440.219
448.606
453.236
453.977
450.887
443.998
433.352
419.137
401.551
380.829
357.247
331.093
302.717
272.484
240.757
207.916
174.336
140.386
106.408
72.7233
39.6519
7.48666
-23.5229
-57.373
-86.1014
-113.455
-139.345
-163.684
-186.419
-207.504
-226.916
-244.628
-260.605
-274.843
-287.299
-297.959
-306.819
-313.963
-319.39
-323.014
-324.818
-324.969
-323.526
-320.561
-316.124
-310.226
-302.883
-294.093
-283.836
-272.081
-258.794
-243.947
-227.508
-209.449
-189.751
-168.415
-145.453
-120.896
-94.7993
-67.2439
-38.1625
-8.02149
23.1762
55.2199
87.8714
120.861
153.886
186.612
218.679
249.707
279.301
307.05
332.543
355.384
375.193
391.621
404.362
413.165
417.83
418.16
414.207
405.972
393.476
376.911
356.504
332.553
305.408
275.462
243.151
208.929
173.27
136.653
99.5397
62.3797
25.597
-10.4204
-45.3269
-78.8171
-110.664
-140.664
-168.676
-194.604
-218.395
-240.04
-259.556
-276.984
-292.389
-305.842
-317.422
-327.213
-335.288
-341.717
-346.567
-349.89
-351.734
-352.109
-351.041
-348.569
-344.68
-339.374
-332.636
-324.457
-314.828
-303.734
-291.158
-277.092
-261.525
-244.449
-225.853
-205.733
-184.091
-160.939
-136.305
-110.239
-82.8131
-54.1282
-24.2597
6.52171
38.0434
70.0643
102.305
134.448
166.139
196.985
226.567
254.443
280.166
303.295
323.406
340.115
353.087
362.048
366.793
367.139
363.085
354.675
341.981
325.172
304.527
280.376
253.113
223.186
191.073
157.28
122.316
86.6837
50.8632
15.2986
-19.61
-53.5146
-86.1101
-117.192
-146.562
-174.087
-199.678
-223.288
-244.905
-264.545
-282.245
-298.055
-312.038
-324.264
-334.802
-343.72
-351.087
-356.964
-361.409
-364.477
-366.21
-366.618
-365.741
-363.608
-360.206
-355.531
-349.574
-342.313
-333.731
-323.799
-312.486
-299.756
-285.576
-269.912
-252.735
-234.024
-213.77
-191.983
-168.69
-143.941
-117.818
-90.4333
-61.9305
-32.1934
-1.84892
29.0221
60.205
91.4027
122.301
152.559
181.819
209.699
235.833
259.844
281.371
300.09
315.686
327.891
336.465
341.188
341.86
338.603
332.319
322.496
309.071
292.485
272.894
250.561
225.862
199.055
170.627
140.902
110.322
79.3222
48.2163
17.339
-12.8002
-40.1828
-66.0901
-91.2721
-115.61
-138.685
-160.321
-180.405
-198.894
-215.785
-231.088
-244.831
-257.058
-267.815
-277.15
-285.111
-291.736
-297.057
-301.09
-303.838
-305.26
-305.318
-303.901
-301.024
-296.637
-290.672
-283.07
-273.79
-262.779
-250.009
-235.455
-219.105
-200.99
-181.14
-159.594
-136.427
-111.737
-85.635
-58.2684
-29.8158
-0.451452
29.5888
60.0867
90.809
121.466
151.788
181.517
210.33
237.941
264.012
288.24
310.362
330.086
347.154
361.346
372.448
380.279
384.686
385.561
382.789
376.432
366.535
-155.347
-175.217
-193.684
-210.664
-226.115
-240.055
-252.502
-263.497
-273.075
-281.277
-288.141
-293.7
-297.981
-301.003
-302.753
-303.248
-302.45
-300.368
-296.972
-292.22
-286.081
-278.503
-269.434
-258.83
-246.645
-232.834
-217.356
-200.168
-181.257
-160.614
-138.227
-114.13
-88.3715
-61.0168
-32.2357
-2.09122
29.2821
61.641
94.7358
128.321
162.065
195.635
228.655
260.727
291.503
320.598
347.622
372.246
394.141
412.999
428.571
440.641
449.046
453.684
454.443
451.324
444.426
433.76
419.516
401.894
381.131
357.504
331.302
302.878
272.596
240.819
207.932
174.308
140.317
106.302
72.5827
39.4794
7.28336
-23.7477
-57.5634
-86.303
-113.669
-139.566
-163.907
-186.642
-207.725
-227.133
-244.842
-260.815
-275.049
-287.502
-298.161
-307.024
-314.164
-319.573
-323.202
-325.001
-325.149
-323.704
-320.737
-316.3
-310.401
-303.06
-294.273
-284.02
-272.27
-258.989
-244.148
-227.714
-209.659
-189.967
-168.633
-145.671
-121.111
-95.009
-67.4392
-38.3653
-8.20175
23.0171
55.0851
87.7659
120.789
153.852
186.621
218.735
249.815
279.461
307.265
332.813
355.707
375.567
392.038
404.817
413.647
418.327
418.684
414.705
406.459
393.939
377.338
356.886
332.883
305.681
275.675
243.302
209.018
173.3
136.626
99.46
62.2523
25.4283
-10.6245
-45.5594
-79.0722
-110.935
-140.945
-168.961
-194.889
-218.676
-240.314
-259.82
-277.237
-292.63
-306.072
-317.64
-327.42
-335.485
-341.906
-346.748
-350.066
-351.906
-352.275
-351.21
-348.736
-344.849
-339.543
-332.807
-324.632
-315.006
-303.913
-291.341
-277.279
-261.716
-244.643
-226.051
-205.933
-184.294
-161.142
-136.508
-110.438
-83.0056
-54.3072
-24.4313
6.37286
37.9192
69.97
102.246
134.431
166.169
197.068
226.706
254.642
280.425
303.612
323.778
340.535
353.548
362.539
367.302
367.671
363.592
355.172
342.448
325.601
304.908
280.699
253.374
223.381
191.201
157.342
122.316
86.627
50.7551
15.1463
-19.7991
-53.7326
-86.3498
-117.447
-146.826
-174.355
-199.945
-223.552
-245.162
-264.794
-282.483
-298.283
-312.255
-324.47
-334.998
-343.907
-351.265
-357.135
-361.574
-364.636
-366.363
-366.767
-365.892
-363.758
-360.356
-355.683
-349.728
-342.472
-333.893
-323.967
-312.659
-299.935
-285.761
-270.103
-252.931
-234.225
-213.973
-192.187
-168.892
-144.138
-118.008
-90.6094
-62.0851
-32.3452
-1.97189
28.9335
60.1514
91.3871
122.329
152.635
181.945
209.878
236.065
260.128
281.707
300.473
316.112
328.353
336.955
341.7
342.412
339.188
332.832
322.971
309.534
292.911
273.27
250.879
226.118
199.246
170.753
140.966
110.328
79.2703
48.1084
17.173
-13.0096
-40.2929
-66.2439
-91.4656
-115.825
-138.908
-160.545
-180.626
-199.109
-215.993
-231.288
-245.022
-257.241
-267.988
-277.317
-285.271
-291.892
-297.21
-301.242
-303.99
-305.416
-305.484
-304.074
-301.203
-296.823
-290.866
-283.272
-273.999
-262.994
-250.229
-235.679
-219.331
-201.217
-181.366
-159.816
-136.644
-111.945
-85.8302
-58.4483
-29.9774
-0.592914
29.4717
59.997
90.7492
121.438
151.795
181.561
210.414
238.066
264.179
288.448
310.609
330.371
347.473
361.696
372.825
380.678
385.103
385.999
383.199
376.839
366.929
-155.628
-175.496
-193.956
-210.93
-226.372
-240.303
-252.741
-263.727
-273.297
-281.491
-288.349
-293.903
-298.18
-301.198
-302.95
-303.449
-302.652
-300.575
-297.185
-292.441
-286.31
-278.741
-269.681
-259.087
-246.912
-233.11
-217.641
-200.461
-181.556
-160.917
-138.533
-114.436
-88.6731
-61.3098
-32.5141
-2.35136
29.0471
61.4375
94.5705
128.201
161.996
195.623
228.704
260.841
291.683
320.845
347.935
372.621
394.575
413.484
429.1
441.204
449.633
454.282
455.054
451.918
444.998
434.304
420.021
402.352
381.534
357.848
331.581
303.092
272.744
240.903
207.952
174.27
140.226
106.16
72.3949
39.2492
7.0116
-24.0506
-57.8147
-86.5718
-113.955
-139.862
-164.206
-186.94
-208.02
-227.423
-245.126
-261.094
-275.324
-287.772
-298.43
-307.296
-314.428
-319.819
-323.454
-325.246
-325.39
-323.941
-320.972
-316.533
-310.635
-303.295
-294.512
-284.265
-272.521
-259.248
-244.415
-227.988
-209.94
-190.253
-168.923
-145.962
-121.399
-95.2885
-67.7024
-38.6324
-8.44132
22.8055
54.9059
87.6255
120.693
153.808
186.634
218.812
249.958
279.676
307.553
333.174
356.139
376.065
392.596
405.424
414.291
418.993
419.373
415.38
407.11
394.558
377.908
357.397
333.325
306.046
275.96
243.504
209.138
173.34
136.59
99.3537
62.0827
25.2033
-10.8966
-45.8694
-79.4124
-111.297
-141.32
-169.342
-195.269
-219.051
-240.679
-260.172
-277.575
-292.951
-306.377
-317.93
-327.695
-335.747
-342.157
-346.99
-350.301
-352.132
-352.5
-351.434
-348.959
-345.072
-339.768
-333.036
-324.864
-315.242
-304.153
-291.585
-277.529
-261.97
-244.902
-226.314
-206.2
-184.564
-161.413
-136.778
-110.704
-83.262
-54.5475
-24.6585
6.17457
37.7538
69.8444
102.168
134.409
166.209
197.178
226.892
254.907
280.771
304.036
324.274
341.096
354.163
363.195
367.981
368.369
364.279
355.837
343.073
326.174
305.415
281.131
253.723
223.641
191.373
157.426
122.317
86.5513
50.611
14.9431
-20.0514
-54.0234
-86.6697
-117.787
-147.179
-174.713
-200.302
-223.903
-245.505
-265.125
-282.801
-298.587
-312.544
-324.745
-335.26
-344.156
-351.503
-357.363
-361.793
-364.847
-366.566
-366.968
-366.093
-363.957
-360.556
-355.885
-349.934
-342.683
-334.11
-324.19
-312.889
-300.173
-286.008
-270.358
-253.193
-234.492
-214.245
-192.459
-169.161
-144.402
-118.261
-90.8448
-62.2922
-32.5465
-2.13476
28.8157
60.08
91.3665
122.366
152.735
182.114
210.117
236.374
260.508
282.155
300.986
316.681
328.972
337.611
342.387
343.141
339.943
333.527
323.615
310.154
293.479
273.771
251.303
226.458
199.501
170.921
141.051
110.334
79.2013
47.9646
16.9511
-13.2941
-40.4355
-66.4476
-91.7248
-116.112
-139.206
-160.844
-180.921
-199.396
-216.27
-231.554
-245.277
-257.484
-268.22
-277.539
-285.485
-292.1
-297.415
-301.445
-304.194
-305.625
-305.706
-304.304
-301.441
-297.072
-291.124
-283.541
-274.277
-263.28
-250.522
-235.978
-219.632
-201.519
-181.667
-160.113
-136.933
-112.222
-86.0908
-58.6884
-30.1933
-0.781595
29.3152
59.8771
90.6691
121.401
151.805
181.621
210.526
238.233
264.402
288.725
310.938
330.75
347.898
362.162
373.328
381.211
385.659
386.571
383.757
377.384
367.457
-155.981
-175.844
-194.297
-211.262
-226.694
-240.612
-253.039
-264.014
-273.574
-281.758
-288.608
-294.156
-298.428
-301.443
-303.197
-303.698
-302.905
-300.834
-297.451
-292.716
-286.596
-279.039
-269.99
-259.409
-247.245
-233.455
-217.997
-200.827
-181.93
-161.297
-138.916
-114.818
-89.0505
-61.6774
-32.8621
-2.67696
28.7527
61.1826
94.3634
128.05
161.909
195.608
228.766
260.984
291.908
321.154
348.326
373.091
395.118
414.092
429.761
441.908
450.367
455.031
455.81
452.666
445.716
434.986
420.654
402.925
382.039
358.276
331.93
303.359
272.93
241.006
207.977
174.222
140.11
105.982
72.1599
38.9612
6.67095
-24.4344
-58.1247
-86.9077
-114.313
-140.232
-164.579
-187.313
-208.388
-227.785
-245.482
-261.444
-275.667
-288.111
-298.765
-307.632
-314.756
-320.131
-323.768
-325.552
-325.691
-324.238
-321.266
-316.825
-310.927
-303.59
-294.811
-284.571
-272.836
-259.572
-244.749
-228.331
-210.292
-190.611
-169.285
-146.325
-121.758
-95.6387
-68.0351
-38.9636
-8.74066
22.5404
54.6815
87.4494
120.574
153.751
186.65
218.906
250.138
279.944
307.913
333.626
356.68
376.689
393.294
406.185
415.097
419.827
420.225
416.23
407.928
395.333
378.622
358.036
333.878
306.503
276.316
243.757
209.287
173.389
136.545
99.2202
61.8699
24.9214
-11.2375
-46.2577
-79.8384
-111.75
-141.789
-169.818
-195.745
-219.52
-241.135
-260.612
-277.996
-293.353
-306.758
-318.292
-328.039
-336.076
-342.471
-347.291
-350.593
-352.414
-352.782
-351.713
-349.238
-345.352
-340.05
-333.322
-325.155
-315.536
-304.452
-291.891
-277.84
-262.287
-245.225
-226.643
-206.534
-184.901
-161.752
-137.116
-111.036
-83.5832
-54.8512
-24.9408
5.9263
37.5465
69.6867
102.07
134.38
166.259
197.316
227.124
255.239
281.203
304.565
324.895
341.798
354.933
364.015
368.833
369.235
365.145
356.67
343.856
326.892
306.051
281.672
254.158
223.967
191.587
157.531
122.318
86.4558
50.43
14.6881
-20.3676
-54.3877
-87.0705
-118.213
-147.62
-175.16
-200.749
-224.343
-245.934
-265.539
-283.198
-298.966
-312.906
-325.089
-335.587
-344.467
-351.8
-357.647
-362.066
-365.111
-366.821
-367.22
-366.342
-364.205
-360.806
-356.138
-350.192
-342.947
-334.381
-324.469
-313.177
-300.471
-286.316
-270.676
-253.52
-234.826
-214.584
-192.799
-169.499
-144.732
-118.577
-91.1404
-62.5532
-32.7977
-2.33736
28.6684
59.99
91.3403
122.412
152.861
182.325
210.415
236.762
260.983
282.716
301.628
317.395
329.748
338.436
343.251
344.046
340.864
334.403
324.434
310.932
294.191
274.399
251.834
226.884
199.818
171.131
141.156
110.341
79.1151
47.7851
16.6729
-13.6592
-40.6069
-66.7033
-92.0503
-116.472
-139.58
-161.218
-181.29
-199.755
-216.617
-231.887
-245.595
-257.787
-268.51
-277.816
-285.752
-292.359
-297.67
-301.699
-304.449
-305.887
-305.982
-304.59
-301.738
-297.382
-291.447
-283.877
-274.625
-263.639
-250.889
-236.351
-220.009
-201.897
-182.044
-160.484
-137.294
-112.568
-86.4169
-58.9888
-30.4639
-1.0177
29.1193
59.7267
90.5688
121.355
151.817
181.694
210.666
238.442
264.68
289.071
311.35
331.224
348.43
362.746
373.957
381.877
386.353
387.278
384.464
378.071
368.118
-156.404
-176.262
-194.706
-211.66
-227.079
-240.985
-253.397
-264.358
-273.906
-282.079
-288.919
-294.459
-298.725
-301.737
-303.493
-303.996
-303.209
-301.145
-297.769
-293.047
-286.939
-279.395
-270.361
-259.794
-247.646
-233.87
-218.424
-201.266
-182.379
-161.753
-139.375
-115.277
-89.504
-62.1198
-33.28
-3.06843
28.3986
60.8758
94.114
127.868
161.804
195.589
228.84
261.154
292.178
321.525
348.796
373.654
395.769
414.821
430.556
442.754
451.249
455.932
456.714
453.566
446.58
435.804
421.414
403.613
382.644
358.791
332.349
303.679
273.151
241.13
208.007
174.165
139.972
105.768
71.8774
38.6154
6.26106
-24.9028
-58.49
-87.311
-114.744
-140.677
-165.028
-187.76
-208.831
-228.22
-245.909
-261.864
-276.08
-288.518
-299.168
-308.033
-315.145
-320.507
-324.147
-325.919
-326.052
-324.594
-321.618
-317.174
-311.277
-303.943
-295.171
-284.938
-273.213
-259.961
-245.15
-228.744
-210.714
-191.041
-169.721
-146.761
-122.191
-96.0603
-68.4379
-39.3591
-9.10007
22.2217
54.4115
87.2371
120.429
153.683
186.667
219.019
250.352
280.265
308.344
334.167
357.329
377.438
394.132
407.098
416.066
420.832
421.247
417.251
408.911
396.264
379.48
358.804
334.542
307.051
276.743
244.059
209.466
173.448
136.489
99.0588
61.6135
24.5817
-11.648
-46.7249
-80.3509
-112.294
-142.353
-170.39
-196.317
-220.083
-241.683
-261.141
-278.502
-293.835
-307.216
-318.727
-328.453
-336.469
-342.848
-347.653
-350.943
-352.753
-353.118
-352.047
-349.572
-345.688
-340.389
-333.665
-325.503
-315.89
-304.812
-292.257
-278.214
-262.668
-245.614
-227.038
-206.936
-185.307
-162.16
-137.521
-111.435
-83.9695
-55.2178
-25.2794
5.62753
37.2968
69.4965
101.951
134.344
166.318
197.48
227.402
255.636
281.721
305.201
325.64
342.642
355.858
365.002
369.857
370.274
366.184
357.67
344.798
327.754
306.814
282.32
254.682
224.358
191.844
157.656
122.318
86.34
50.2114
14.3806
-20.7486
-54.826
-87.5527
-118.726
-148.15
-175.698
-201.286
-224.871
-246.448
-266.036
-283.675
-299.422
-313.34
-325.502
-335.979
-344.84
-352.155
-357.987
-362.394
-365.427
-367.127
-367.522
-366.642
-364.504
-361.106
-356.442
-350.501
-343.264
-334.706
-324.803
-313.522
-300.828
-286.686
-271.058
-253.913
-235.227
-214.991
-193.208
-169.904
-145.128
-118.958
-91.4965
-62.8697
-33.0995
-2.57914
28.491
59.8811
91.308
122.467
153.011
182.578
210.773
237.226
261.553
283.39
302.399
318.254
330.682
339.429
344.292
345.127
341.957
335.456
325.428
311.869
295.046
275.153
252.471
227.395
200.199
171.382
141.282
110.348
79.0116
47.5701
16.338
-14.1121
-40.8006
-67.0112
-92.4437
-116.906
-140.029
-161.668
-181.733
-200.187
-217.034
-232.287
-245.978
-258.152
-268.858
-278.149
-286.072
-292.67
-297.976
-302.004
-304.755
-306.202
-306.31
-304.932
-302.094
-297.754
-291.835
-284.28
-275.043
-264.069
-251.33
-236.799
-220.462
-202.352
-182.497
-160.93
-137.729
-112.985
-86.8088
-59.35
-30.7891
-1.30153
28.8836
59.5456
90.4478
121.299
151.83
181.782
210.833
238.692
265.013
289.487
311.844
331.793
349.068
363.446
374.712
382.677
387.186
388.126
385.314
378.897
368.914
-156.898
-176.75
-195.184
-212.125
-227.53
-241.419
-253.815
-264.76
-274.293
-282.453
-289.281
-294.813
-299.073
-302.08
-303.837
-304.343
-303.562
-301.507
-298.142
-293.432
-287.339
-279.811
-270.794
-260.244
-248.113
-234.353
-218.923
-201.779
-182.903
-162.285
-139.912
-115.814
-90.0338
-62.637
-33.7685
-3.52632
27.9844
60.5167
93.8217
127.655
161.681
195.566
228.925
261.352
292.493
321.957
349.343
374.312
396.53
415.673
431.484
443.742
452.28
456.985
457.771
454.614
447.589
436.76
422.301
404.417
383.351
359.392
332.838
304.053
273.409
241.273
208.04
174.097
139.809
105.517
71.5473
38.2117
5.78174
-25.4609
-58.9063
-87.7821
-115.248
-141.196
-165.552
-188.282
-209.347
-228.728
-246.408
-262.354
-276.561
-288.993
-299.638
-308.499
-315.599
-320.947
-324.588
-326.347
-326.472
-325.009
-322.029
-317.582
-311.685
-304.355
-295.589
-285.366
-273.653
-260.415
-245.618
-229.225
-211.208
-191.544
-170.229
-147.271
-122.696
-96.554
-68.9113
-39.8189
-9.51987
21.8487
54.0953
86.9883
120.258
153.603
186.687
219.149
250.601
280.639
308.847
334.799
358.086
378.312
395.111
408.164
417.199
422.007
422.441
418.442
410.061
397.351
380.482
359.701
335.316
307.691
277.241
244.411
209.673
173.515
136.422
98.8691
61.3127
24.1835
-12.1288
-47.2717
-80.9504
-112.93
-143.013
-171.06
-196.985
-220.741
-242.323
-261.758
-279.093
-294.397
-307.751
-319.234
-328.934
-336.928
-343.287
-348.076
-351.352
-353.15
-353.513
-352.437
-349.961
-346.08
-340.785
-334.065
-325.91
-316.303
-305.232
-292.685
-278.65
-263.113
-246.067
-227.5
-207.404
-185.781
-162.636
-137.995
-111.901
-84.4211
-55.6467
-25.6761
5.27752
37.0041
69.2732
101.81
134.3
166.385
197.67
227.725
256.099
282.325
305.943
326.511
343.627
356.938
366.154
371.054
371.49
367.396
358.839
345.898
328.762
307.706
283.078
255.292
224.813
192.142
157.8
122.315
86.2032
49.9544
14.02
-21.195
-55.339
-88.1172
-119.325
-148.771
-176.327
-201.913
-225.488
-247.05
-266.617
-284.231
-299.953
-313.847
-325.984
-336.437
-345.276
-352.571
-358.385
-362.776
-365.796
-367.484
-367.873
-366.99
-364.852
-361.457
-356.796
-350.862
-343.633
-335.085
-325.194
-313.925
-301.245
-287.118
-271.504
-254.371
-235.696
-215.467
-193.686
-170.378
-145.591
-119.404
-91.9138
-63.244
-33.4508
-2.86009
28.283
59.7524
91.269
122.529
153.185
182.871
211.189
237.768
262.219
284.176
303.3
319.257
331.774
340.592
345.509
346.386
343.227
336.686
326.595
312.966
296.047
276.033
253.216
227.992
200.643
171.673
141.428
110.356
78.8907
47.3199
15.9453
-14.6626
-41.0071
-67.3686
-92.9065
-117.415
-140.553
-162.194
-182.251
-200.69
-217.52
-232.754
-246.424
-258.577
-269.264
-278.537
-286.446
-293.033
-298.332
-302.359
-305.113
-306.57
-306.693
-305.329
-302.509
-298.188
-292.287
-284.751
-275.531
-264.572
-251.844
-237.321
-220.99
-202.882
-183.026
-161.452
-138.236
-113.471
-87.2667
-59.7722
-31.1694
-1.63345
28.6078
59.3336
90.306
121.233
151.845
181.884
211.028
238.983
265.402
289.971
312.421
332.457
349.813
364.264
375.594
383.611
388.159
389.118
386.306
379.865
369.844
-157.463
-177.308
-195.73
-212.657
-228.044
-241.915
-254.293
-265.22
-274.735
-282.88
-289.695
-295.216
-299.469
-302.473
-304.231
-304.74
-303.966
-301.921
-298.567
-293.873
-287.795
-280.287
-271.288
-260.759
-248.646
-234.906
-219.494
-202.365
-183.503
-162.895
-140.527
-116.428
-90.6402
-63.2285
-34.3289
-4.05127
27.5095
60.1047
93.486
127.409
161.538
195.538
229.021
261.577
292.851
322.451
349.969
375.064
397.399
416.647
432.546
444.873
453.46
458.192
458.982
455.812
448.744
437.855
423.317
405.336
384.16
360.079
333.396
304.479
273.703
241.436
208.078
174.018
139.621
105.229
71.1694
37.7501
5.23322
-26.1157
-59.367
-88.3219
-115.825
-141.791
-166.152
-188.88
-209.938
-229.309
-246.977
-262.914
-277.112
-289.535
-300.174
-309.03
-316.117
-321.451
-325.091
-326.835
-326.953
-325.484
-322.498
-318.048
-312.151
-304.825
-296.068
-285.856
-274.156
-260.934
-246.153
-229.775
-211.772
-192.119
-170.811
-147.854
-123.275
-97.1203
-69.4556
-40.3438
-10.0005
21.4212
53.7324
86.7022
120.062
153.509
186.708
219.296
250.884
281.066
309.42
335.521
358.952
379.312
396.232
409.384
418.495
423.352
423.808
419.803
411.377
398.596
381.629
360.727
336.202
308.422
277.809
244.813
209.909
173.59
136.345
98.6502
60.9669
23.7262
-12.6807
-47.899
-81.6377
-113.66
-143.769
-171.826
-197.75
-221.494
-243.056
-262.465
-279.769
-295.04
-308.362
-319.814
-329.485
-337.453
-343.788
-348.559
-351.817
-353.604
-353.95
-352.882
-350.406
-346.528
-341.237
-334.523
-326.374
-316.775
-305.712
-293.174
-279.149
-263.622
-246.586
-228.027
-207.94
-186.324
-163.181
-138.538
-112.435
-84.9384
-56.1383
-26.1313
4.87573
36.6676
69.0161
101.648
134.248
166.459
197.885
228.093
256.627
283.015
306.791
327.507
344.754
358.175
367.473
372.426
372.883
368.782
360.178
347.158
329.915
308.726
283.944
255.99
225.333
192.482
157.963
122.311
86.0443
49.6582
13.6053
-21.7078
-55.9277
-88.7646
-120.011
-149.481
-177.047
-202.632
-226.195
-247.738
-267.281
-284.868
-300.561
-314.426
-326.534
-336.96
-345.773
-353.045
-358.839
-363.213
-366.217
-367.893
-368.275
-367.388
-365.249
-361.857
-357.201
-351.275
-344.055
-335.518
-325.64
-314.386
-301.722
-287.612
-272.013
-254.896
-236.233
-216.011
-194.233
-170.921
-146.122
-119.914
-92.3929
-63.6801
-33.8482
-3.18103
28.0439
59.6035
91.2227
122.599
153.383
183.205
211.665
238.388
262.98
285.076
304.331
320.406
333.025
341.925
346.903
347.823
344.674
338.094
327.936
314.224
297.193
277.042
254.067
228.673
201.15
172.005
141.594
110.362
78.7518
47.0352
15.4948
-15.3253
-41.2126
-67.7797
-93.4407
-117.999
-141.155
-162.795
-182.842
-201.266
-218.075
-233.287
-246.933
-259.063
-269.727
-278.98
-286.872
-293.447
-298.739
-302.765
-305.523
-306.991
-307.128
-305.783
-302.983
-298.683
-292.805
-285.289
-276.089
-265.147
-252.432
-237.918
-221.595
-203.489
-183.631
-162.048
-138.817
-114.028
-87.7912
-60.2558
-31.605
-2.01385
28.2915
59.0901
90.143
121.156
151.86
181.999
211.249
239.315
265.846
290.525
313.08
333.217
350.665
365.199
376.602
384.679
389.271
390.253
387.442
380.974
370.91
-158.1
-177.936
-196.345
-213.255
-228.623
-242.473
-254.831
-265.736
-275.233
-283.36
-290.161
-295.671
-299.915
-302.915
-304.673
-305.188
-304.421
-302.385
-299.047
-294.368
-288.309
-280.821
-271.845
-261.337
-249.247
-235.528
-220.135
-203.025
-184.178
-163.581
-141.219
-117.119
-91.3235
-63.8937
-34.9627
-4.64404
26.9734
59.6393
93.1063
127.131
161.375
195.505
229.127
261.83
293.254
323.006
350.673
375.91
398.378
417.744
433.742
446.148
454.79
459.552
460.348
457.16
450.046
439.088
424.46
406.371
385.07
360.852
334.023
304.958
274.032
241.617
208.119
173.928
139.408
104.903
70.7436
37.2303
4.61646
-26.8676
-59.8728
-88.9322
-116.477
-142.462
-166.828
-189.552
-210.602
-229.962
-247.618
-263.544
-277.731
-290.145
-300.777
-309.625
-316.7
-322.018
-325.655
-327.384
-327.495
-326.018
-323.026
-318.571
-312.675
-305.354
-296.605
-286.406
-274.722
-261.518
-246.755
-230.395
-212.407
-192.767
-171.467
-148.512
-123.928
-97.7596
-70.0724
-40.9334
-10.5425
20.9386
53.3221
86.3781
119.839
153.401
186.729
219.46
251.202
281.545
310.065
336.333
359.926
380.438
397.493
410.759
419.956
424.87
425.349
421.336
412.861
399.999
382.922
361.883
337.199
309.245
278.448
245.263
210.173
173.672
136.255
98.4015
60.5751
23.2089
-13.3045
-48.6077
-82.4135
-114.483
-144.621
-172.691
-198.612
-222.343
-243.881
-263.26
-280.529
-295.764
-309.049
-320.466
-330.104
-338.042
-344.352
-349.102
-352.342
-354.115
-354.453
-353.382
-350.907
-347.031
-341.746
-335.038
-326.897
-317.306
-306.252
-293.725
-279.71
-264.194
-247.169
-228.621
-208.544
-186.934
-163.795
-139.15
-113.037
-85.5218
-56.6928
-26.6461
4.42154
36.2868
68.7242
101.462
134.186
166.54
198.125
228.506
257.221
283.791
307.746
328.628
346.025
359.569
368.961
373.972
374.453
370.343
361.686
348.578
331.214
309.876
284.92
256.775
225.918
192.863
158.145
122.303
85.8627
49.3218
13.1352
-22.2878
-56.5931
-89.4958
-120.787
-150.282
-177.859
-203.441
-226.991