/*--------------------------------*- C++ -*----------------------------------*\
| =========                 |                                                 |
| \\      /  F ield         | OpenFOAM: The Open Source CFD Toolbox           |
|  \\    /   O peration     | Version:  3.0.1                                 |
|   \\  /    A nd           | Web:      www.OpenFOAM.org                      |
|    \\/     M anipulation  |                                                 |
\*---------------------------------------------------------------------------*/
FoamFile
{
    version     2.0;
    format      ascii;
    class       volScalarField;
    location    "9.4";
    object      p_rgh;
}
// * * * * * * * * * * * * * * * * * * * * * * * * * * * * * * * * * * * * * //

dimensions      [1 -1 -2 0 0 0 0];

internalField   nonuniform List<scalar> 
21420
(
-259.349
-242.501
-223.792
-203.249
-180.914
-156.788
-130.916
-103.385
-74.2908
-43.7605
-11.9839
20.7182
54.2866
88.4276
122.798
156.998
190.616
223.289
254.59
284.091
311.423
336.19
358.008
376.565
391.577
402.809
410.088
413.246
411.512
405.654
395.852
382.184
364.884
344.226
320.516
294.099
265.383
234.754
202.605
169.356
135.381
101.041
66.6495
32.7008
1.2954
-30.8389
-62.0561
-92.0778
-120.711
-147.801
-173.239
-196.937
-218.833
-238.891
-257.085
-273.414
-287.884
-300.505
-311.299
-320.283
-327.482
-332.919
-336.624
-338.587
-338.806
-337.342
-334.223
-329.475
-323.13
-315.223
-305.777
-294.83
-282.424
-268.583
-253.35
-236.76
-218.843
-199.63
-179.142
-157.397
-134.412
-110.195
-84.7578
-58.1169
-30.3024
-1.36574
28.7199
59.6049
91.2063
123.279
155.521
187.574
219.031
249.446
278.357
305.301
329.826
351.506
369.956
384.845
395.9
402.92
405.741
404.376
398.783
389.122
375.503
358.193
337.496
313.777
287.451
258.976
228.832
197.51
165.492
133.243
101.192
69.7204
39.1621
9.82028
-18.1429
-44.5348
-69.2359
-92.1694
-113.293
-132.598
-150.1
-165.829
-179.834
-192.17
-202.896
-212.074
-219.761
-226.012
-230.875
-234.399
-236.622
-237.559
-237.235
-235.691
-232.919
-228.925
-223.706
-217.262
-209.587
-200.677
-190.535
-179.163
-166.574
-152.786
-137.827
-121.737
-104.565
-86.3798
-67.2604
-47.3046
-26.6278
-5.36267
16.3619
38.3394
60.4098
82.3776
104.037
125.176
145.577
165.024
183.304
200.214
215.561
229.171
240.891
250.591
258.17
263.558
266.714
267.606
266.306
262.833
257.277
249.745
240.374
229.32
216.762
202.897
187.932
172.084
155.574
138.621
121.438
104.227
87.1807
70.4728
54.2626
38.691
23.8826
9.96097
-3.04671
-15.0675
-26.0475
-35.9538
-44.7693
-52.4902
-59.1239
-64.6878
-69.2077
-72.717
-75.2577
-76.8704
-77.5991
-77.5016
-76.6294
-75.033
-72.7665
-69.8836
-66.438
-62.4835
-58.0735
-53.2613
-48.0991
-42.6387
-36.9308
-31.0253
-24.9704
-18.8135
-12.6004
-6.3752
-0.180926
5.94208
11.9557
17.8234
23.5113
28.9882
34.2253
39.1968
43.8799
48.2546
52.3038
56.0138
59.3736
62.3753
65.0142
67.2881
69.1982
70.7482
71.9446
72.7964
73.3149
73.5125
73.4057
73.0095
72.3412
71.419
70.2618
68.8893
67.3215
65.5789
63.6822
61.6519
59.5083
57.271
54.9593
52.5915
50.185
47.7563
45.3209
42.8928
40.4854
38.1103
35.7784
33.4992
31.2808
29.1306
27.0546
25.0578
23.1442
21.3169
19.5781
17.9293
16.3711
14.9036
13.5263
12.2379
11.037
9.92148
8.88898
7.93682
7.06205
6.26153
5.53193
4.86979
4.27157
3.73368
3.25251
2.82445
2.44593
2.11345
1.82355
1.57291
1.35828
1.17654
1.02471
0.899903
0.799417
0.720672
0.66125
0.618904
0.591463
0.577781
0.575397
0.582599
0.597822
0.619641
0.646766
0.678028
0.712377
0.748871
0.78667
0.825032
0.863305
0.900922
0.937396
0.97231
1.00531
1.03612
1.0645
1.09026
1.11327
1.13344
1.15072
1.16509
1.17655
1.18515
1.19096
1.19407
1.19382
1.1909
1.18545
1.17763
1.16757
1.15542
1.14131
1.1254
1.10784
1.08878
1.06836
1.04674
1.02405
1.00043
0.97601
0.950925
0.925294
0.899234
0.872858
0.846271
0.819574
0.792862
0.766218
-259.423
-242.578
-223.87
-203.33
-180.995
-156.87
-130.996
-103.463
-74.3659
-43.8312
-12.0488
20.6618
54.2389
88.3917
122.776
156.992
190.626
223.317
254.636
284.155
311.506
336.291
358.125
376.697
391.72
402.961
410.247
413.418
411.668
405.807
395.997
382.319
365.005
344.332
320.605
294.17
265.436
234.789
202.623
169.358
135.369
101.016
66.6133
32.6554
1.23386
-30.9057
-62.1278
-92.1536
-120.79
-147.883
-173.321
-197.02
-218.915
-238.972
-257.165
-273.493
-287.962
-300.581
-311.373
-320.356
-327.555
-332.991
-336.695
-338.654
-338.875
-337.411
-334.291
-329.542
-323.197
-315.29
-305.843
-294.896
-282.489
-268.649
-253.415
-236.826
-218.909
-199.696
-179.209
-157.465
-134.48
-110.265
-84.8284
-58.1878
-30.3727
-1.43326
28.6532
59.5448
91.1546
123.238
155.494
187.563
219.038
249.473
278.404
305.369
329.914
351.612
370.079
384.982
396.048
403.074
405.905
404.529
398.933
389.265
375.635
358.31
337.595
313.856
287.511
259.014
228.85
197.508
165.472
133.207
101.142
69.659
39.092
9.74348
-18.2241
-44.6185
-69.3206
-92.2538
-113.376
-132.679
-150.178
-165.905
-179.906
-192.239
-202.962
-212.137
-219.821
-226.07
-230.931
-234.454
-236.676
-237.611
-237.287
-235.742
-232.97
-228.976
-223.758
-217.314
-209.64
-200.731
-190.588
-179.217
-166.628
-152.839
-137.88
-121.788
-104.615
-86.427
-67.3046
-47.345
-26.6636
-5.39284
16.3372
38.3218
60.3998
82.3759
104.044
125.192
145.603
165.059
183.348
200.266
215.622
229.239
240.965
250.671
258.254
263.643
266.8
267.694
266.388
262.913
257.352
249.815
240.436
229.375
216.808
202.934
187.96
172.103
155.584
138.623
121.432
104.214
87.1604
70.4468
54.2315
38.6556
23.8438
9.92042
-3.08932
-15.1115
-26.0922
-35.9987
-44.8139
-52.5341
-59.1668
-64.7295
-69.2479
-72.7556
-75.2944
-76.9051
-77.6315
-77.5323
-76.658
-75.0596
-72.791
-69.9061
-66.4585
-62.5019
-58.0899
-53.2757
-48.1116
-42.6492
-36.9394
-31.032
-24.9754
-18.8167
-12.6018
-6.37492
-0.179027
5.94553
11.9606
17.8297
23.5189
28.9969
34.2351
39.2076
43.8916
48.2669
52.3168
56.0273
59.3874
62.3894
65.0283
67.3023
69.2123
70.762
71.9581
72.8094
73.3274
73.5245
73.417
73.0202
72.3512
71.4282
70.2702
68.8969
67.3282
65.5849
63.6874
61.6563
59.5118
57.2738
54.9614
52.5928
50.1857
47.7564
45.3204
42.8919
40.4839
38.1085
35.7762
33.4966
31.278
29.1276
27.0514
25.0544
23.1407
21.3133
19.5745
17.9256
16.3675
14.9
13.5227
12.2345
11.0336
9.91818
8.88579
7.93375
7.05911
6.25872
5.52926
4.86726
4.26918
3.73144
3.25041
2.82249
2.44412
2.11177
1.822
1.57149
1.35698
1.17536
1.02364
0.898942
0.798557
0.719908
0.660575
0.618314
0.590957
0.577343
0.575024
0.582285
0.597563
0.619432
0.646602
0.677906
0.712292
0.748819
0.786647
0.825035
0.86333
0.900967
0.937458
0.972386
1.0054
1.03622
1.0646
1.09037
1.11338
1.13356
1.15084
1.1652
1.17666
1.18526
1.19107
1.19417
1.19392
1.19099
1.18554
1.17772
1.16765
1.15549
1.14138
1.12546
1.1079
1.08883
1.06841
1.04678
1.02408
1.00046
0.976036
0.950946
0.92531
0.899246
0.872866
0.846275
0.819575
0.792859
0.766213
-259.572
-242.732
-224.028
-203.49
-181.157
-157.032
-131.157
-103.62
-74.516
-43.9724
-12.1784
20.5493
54.1435
88.3203
122.733
156.979
190.647
223.372
254.729
284.285
311.672
336.493
358.36
376.961
392.008
403.267
410.565
413.762
411.98
406.114
396.289
382.59
365.249
344.544
320.784
294.312
265.542
234.859
202.659
169.362
135.344
100.965
66.5411
32.5647
1.111
-31.039
-62.271
-92.3051
-120.948
-148.045
-173.486
-197.185
-219.08
-239.136
-257.326
-273.651
-288.116
-300.732
-311.52
-320.5
-327.696
-333.129
-336.831
-338.783
-339.008
-337.542
-334.42
-329.669
-323.322
-315.414
-305.965
-295.017
-282.609
-268.767
-253.532
-236.941
-219.024
-199.812
-179.325
-157.582
-134.598
-110.384
-84.9493
-58.3091
-30.4925
-1.5477
28.5412
59.4457
91.0724
123.178
155.461
187.562
219.072
249.546
278.518
305.524
330.109
351.844
370.343
385.274
396.36
403.4
406.249
404.849
399.25
389.565
375.912
358.556
337.805
314.027
287.64
259.102
228.896
197.513
165.441
133.144
101.05
69.545
38.9602
9.59821
-18.3783
-44.778
-69.4822
-92.4149
-113.535
-132.834
-150.328
-166.048
-180.044
-192.37
-203.088
-212.256
-219.936
-226.18
-231.038
-234.558
-236.776
-237.706
-237.385
-235.839
-233.067
-229.073
-223.856
-217.413
-209.739
-200.831
-190.69
-179.319
-166.729
-152.939
-137.979
-121.884
-104.708
-86.5152
-67.3868
-47.4198
-26.7293
-5.44733
16.2936
38.2923
60.3855
82.3779
104.064
125.23
145.658
165.133
183.441
200.377
215.748
229.38
241.119
250.834
258.424
263.818
266.976
267.873
266.555
263.076
257.505
249.956
240.563
229.485
216.902
203.01
188.017
172.142
155.606
138.627
121.42
104.187
87.1207
70.3954
54.17
38.5856
23.7667
9.83994
-3.174
-15.199
-26.1812
-36.088
-44.9027
-52.6216
-59.2524
-64.8125
-69.328
-72.8325
-75.3677
-76.9739
-77.6965
-77.5936
-76.7151
-75.1126
-72.8399
-69.9509
-66.4992
-62.5386
-58.1226
-53.3044
-48.1364
-42.6702
-36.9566
-31.0454
-24.9851
-18.8229
-12.6045
-6.37429
-0.175156
5.95248
11.9705
17.8423
23.5341
29.0145
34.2548
39.2293
43.9149
48.2918
52.3429
56.0543
59.4152
62.4176
65.0568
67.3307
69.2405
70.7898
71.9851
72.8356
73.3526
73.5487
73.4396
73.0415
72.3711
71.4466
70.2871
68.9121
67.3419
65.5968
63.6977
61.665
59.519
57.2794
54.9655
52.5956
50.1872
47.7567
45.3195
42.89
40.4811
38.1048
35.7718
33.4916
31.2725
29.1216
27.045
25.0477
23.1338
21.3062
19.5673
17.9184
16.3603
14.8929
13.5157
12.2275
11.0268
9.91161
8.87944
7.92763
7.05325
6.25313
5.52394
4.86222
4.26443
3.72697
3.24623
2.81859
2.4405
2.10842
1.81892
1.56866
1.3544
1.17301
1.02151
0.897028
0.796844
0.718385
0.65923
0.617138
0.58995
0.57647
0.574279
0.581659
0.597047
0.619016
0.646277
0.677663
0.712123
0.748716
0.786603
0.825041
0.863382
0.901057
0.937581
0.972536
1.00557
1.03641
1.0648
1.09058
1.11361
1.13379
1.15107
1.16543
1.17688
1.18548
1.19128
1.19438
1.19412
1.19118
1.18572
1.17789
1.16781
1.15564
1.14152
1.12559
1.10801
1.08894
1.0685
1.04686
1.02416
1.00052
0.976088
0.950988
0.925344
0.899271
0.872883
0.846284
0.819577
0.792855
0.766202
-259.795
-242.962
-224.264
-203.732
-181.401
-157.276
-131.398
-103.855
-74.7413
-44.1843
-12.3731
20.38
54.0001
88.2129
122.668
156.961
190.678
223.456
254.867
284.479
311.922
336.796
358.713
377.356
392.44
403.726
411.04
414.265
412.457
406.579
396.727
382.997
365.615
344.864
321.052
294.526
265.702
234.965
202.713
169.368
135.306
100.89
66.4325
32.4285
0.926551
-31.2391
-62.486
-92.5324
-121.185
-148.288
-173.733
-197.433
-219.328
-239.38
-257.567
-273.887
-288.347
-300.957
-311.741
-320.716
-327.908
-333.338
-337.034
-338.978
-339.208
-337.738
-334.612
-329.859
-323.51
-315.599
-306.148
-295.198
-282.788
-268.944
-253.707
-237.116
-219.198
-199.985
-179.499
-157.758
-134.776
-110.564
-85.1312
-58.4914
-30.6727
-1.72025
28.3733
59.2968
90.9487
123.088
155.411
187.56
219.124
249.657
278.69
305.757
330.401
352.191
370.74
385.712
396.83
403.889
406.759
405.335
399.729
390.017
376.327
358.925
338.121
314.284
287.835
259.233
228.964
197.522
165.395
133.048
100.913
69.3739
38.7625
9.38006
-18.6098
-45.0174
-69.7248
-92.6568
-113.773
-133.066
-150.552
-166.264
-180.25
-192.567
-203.276
-212.436
-220.107
-226.345
-231.197
-234.712
-236.926
-237.852
-237.531
-235.984
-233.212
-229.219
-224.003
-217.561
-209.889
-200.982
-190.842
-179.471
-166.881
-153.09
-138.127
-122.029
-104.848
-86.6479
-67.5105
-47.5323
-26.8281
-5.52961
16.2281
38.2478
60.3637
82.3806
104.092
125.285
145.742
165.245
183.58
200.541
215.937
229.591
241.348
251.079
258.68
264.08
267.239
268.139
266.807
263.319
257.735
250.167
240.753
229.652
217.043
203.123
188.103
172.201
155.638
138.633
121.402
104.147
87.0609
70.3182
54.0778
38.4804
23.651
9.71916
-3.30113
-15.3303
-26.3147
-36.2221
-45.036
-52.7529
-59.3808
-64.9371
-69.4482
-72.9478
-75.4773
-77.0771
-77.7944
-77.6856
-76.8007
-75.1921
-72.9132
-70.0182
-66.5604
-62.5937
-58.1717
-53.3475
-48.1736
-42.7016
-36.9823
-31.0656
-24.9998
-18.8322
-12.6086
-6.37334
-0.169348
5.96292
11.9853
17.8613
23.557
29.0409
34.2844
39.2618
43.95
48.329
52.382
56.0949
59.4568
62.46
65.0995
67.3734
69.2828
70.8314
72.0258
72.8749
73.3903
73.5849
73.4737
73.0736
72.401
71.4743
70.3124
68.935
67.3623
65.6148
63.7132
61.678
59.5297
57.2878
54.9718
52.5998
50.1894
47.7571
45.3183
42.8872
40.4769
38.0994
35.7653
33.4841
31.2641
29.1125
27.0354
25.0377
23.1234
21.2956
19.5565
17.9075
16.3494
14.8821
13.5051
12.2171
11.0167
9.90176
8.86991
7.91846
7.04446
6.24474
5.51596
4.85467
4.2573
3.72027
3.23996
2.81275
2.43506
2.10339
1.81429
1.56441
1.35052
1.16948
1.01832
0.894156
0.794274
0.716101
0.657213
0.615374
0.588439
0.57516
0.573161
0.580721
0.596272
0.618392
0.645789
0.677299
0.71187
0.748562
0.786536
0.825052
0.863459
0.901193
0.937765
0.972762
1.00583
1.0367
1.06511
1.09091
1.11394
1.13413
1.15141
1.16577
1.17722
1.18581
1.1916
1.19469
1.19441
1.19146
1.18599
1.17814
1.16805
1.15586
1.14172
1.12578
1.10819
1.08909
1.06864
1.04699
1.02426
1.00061
0.976165
0.951052
0.925393
0.899308
0.872908
0.846298
0.81958
0.792848
0.766186
-260.093
-243.269
-224.58
-204.054
-181.726
-157.602
-131.72
-104.168
-75.042
-44.4672
-12.6329
20.1529
53.8084
88.0694
122.58
156.936
190.719
223.567
255.052
284.737
312.255
337.201
359.183
377.885
393.016
404.338
411.674
414.914
413.102
407.203
397.313
383.54
366.103
345.289
321.409
294.812
265.914
235.106
202.785
169.376
135.256
100.788
66.2874
32.2467
0.680459
-31.506
-62.7729
-92.8358
-121.501
-148.613
-174.063
-197.765
-219.658
-239.707
-257.888
-274.202
-288.655
-301.258
-312.035
-321.004
-328.19
-333.615
-337.305
-339.242
-339.474
-337.999
-334.869
-330.113
-323.76
-315.847
-306.393
-295.44
-283.027
-269.18
-253.941
-237.348
-219.429
-200.217
-179.732
-157.992
-135.013
-110.805
-85.3743
-58.7352
-30.9138
-1.95195
28.1492
59.0974
90.7829
122.966
155.344
187.556
219.193
249.803
278.918
306.067
330.791
352.655
371.269
386.296
397.456
404.541
407.424
405.997
400.372
390.62
376.882
359.418
338.543
314.627
288.094
259.407
229.055
197.533
165.332
132.921
100.73
69.1449
38.498
9.08853
-18.9191
-45.3372
-70.0487
-92.9797
-114.091
-133.376
-150.851
-166.552
-180.525
-192.83
-203.526
-212.675
-220.336
-226.565
-231.41
-234.918
-237.125
-238.048
-237.727
-236.177
-233.405
-229.413
-224.198
-217.758
-210.088
-201.184
-191.045
-179.675
-167.084
-153.292
-138.326
-122.223
-105.034
-86.8252
-67.6757
-47.6826
-26.9601
-5.63995
16.1407
38.1882
60.3344
82.384
104.13
125.36
145.853
165.393
183.765
200.761
216.189
229.872
241.655
251.405
259.021
264.43
267.591
268.491
267.147
263.645
258.041
250.449
241.007
229.874
217.231
203.275
188.218
172.279
155.68
138.641
121.378
104.094
86.9811
70.2151
53.9546
38.34
23.4964
9.55806
-3.4708
-15.5056
-26.4929
-36.401
-45.2138
-52.9281
-59.552
-65.1033
-69.6085
-73.1015
-75.6235
-77.215
-77.9251
-77.808
-76.9149
-75.298
-73.0111
-70.1078
-66.6419
-62.6671
-58.2371
-53.405
-48.2233
-42.7435
-37.0166
-31.0924
-25.0193
-18.8445
-12.614
-6.37206
-0.161596
5.97685
12.0051
17.8866
23.5874
29.0761
34.3239
39.3052
43.9967
48.3787
52.4341
56.1489
59.5123
62.5165
65.1565
67.4304
69.3393
70.8869
72.0799
72.9274
73.4407
73.633
73.5192
73.1164
72.4409
71.5111
70.3461
68.9655
67.3895
65.6387
63.7338
61.6955
59.5439
57.2991
54.9801
52.6053
50.1924
47.7576
45.3166
42.8834
40.4713
38.0921
35.7565
33.4741
31.253
29.1005
27.0226
25.0242
23.1095
21.2814
19.5421
17.8931
16.335
14.8678
13.4909
12.2033
11.0032
9.88861
8.8572
7.90623
7.03274
6.23355
5.50532
4.84459
4.2478
3.71134
3.2316
2.80495
2.42782
2.09669
1.80812
1.55875
1.34534
1.16478
1.01406
0.890327
0.790848
0.713056
0.654524
0.613022
0.586422
0.573414
0.571672
0.57947
0.595241
0.61756
0.64514
0.676814
0.711533
0.748357
0.786448
0.825067
0.863563
0.901374
0.938012
0.973064
1.00618
1.03708
1.06552
1.09134
1.11439
1.13458
1.15187
1.16622
1.17767
1.18625
1.19203
1.1951
1.19481
1.19184
1.18635
1.17848
1.16837
1.15616
1.142
1.12603
1.10842
1.0893
1.06883
1.04715
1.02441
1.00074
0.976269
0.951136
0.92546
0.899357
0.872941
0.846316
0.819584
0.792839
0.766165
-260.465
-243.653
-224.974
-204.456
-182.133
-158.009
-132.122
-104.561
-75.4182
-44.8211
-12.9581
19.8671
53.5681
87.8893
122.471
156.904
190.77
223.706
255.282
285.061
312.671
337.706
359.772
378.545
393.736
405.103
412.468
415.717
413.91
407.984
398.047
384.218
366.713
345.821
321.855
295.168
266.179
235.281
202.874
169.385
135.193
100.661
66.1053
32.0185
0.372771
-31.84
-63.1319
-93.2155
-121.897
-149.019
-174.475
-198.179
-220.07
-240.115
-258.29
-274.596
-289.04
-301.634
-312.402
-321.364
-328.544
-333.961
-337.641
-339.575
-339.806
-338.325
-335.191
-330.43
-324.074
-316.157
-306.699
-295.743
-283.326
-269.476
-254.234
-237.639
-219.719
-200.507
-180.023
-158.286
-135.31
-111.106
-85.6786
-59.0407
-31.2161
-2.24345
27.8689
58.8471
90.5748
122.812
155.259
187.551
219.277
249.986
279.202
306.454
331.278
353.234
371.931
387.027
398.239
405.357
408.25
406.827
401.176
391.375
377.575
360.035
339.07
315.055
288.418
259.625
229.167
197.545
165.253
132.76
100.5
68.8576
38.1665
8.72327
-19.3066
-45.7375
-70.4542
-93.3837
-114.489
-133.764
-151.226
-166.911
-180.87
-193.159
-203.84
-212.974
-220.623
-226.84
-231.676
-235.175
-237.374
-238.294
-237.97
-236.419
-233.647
-229.655
-224.443
-218.005
-210.338
-201.436
-191.298
-179.929
-167.338
-153.544
-138.574
-122.465
-105.268
-87.0471
-67.8826
-47.8708
-27.1255
-5.77857
16.0314
38.1133
60.2974
82.3878
104.178
125.452
145.992
165.579
183.996
201.036
216.505
230.224
242.038
251.814
259.448
264.867
268.031
268.927
267.575
264.052
258.423
250.801
241.324
230.151
217.465
203.465
188.362
172.377
155.733
138.651
121.348
104.027
86.8811
70.086
53.8003
38.1643
23.3027
9.35662
-3.68314
-15.7249
-26.7158
-36.6248
-45.4362
-53.1472
-59.7662
-65.3112
-69.8089
-73.2936
-75.806
-77.3877
-78.0883
-77.961
-77.0576
-75.4305
-73.1333
-70.2199
-66.7438
-62.7589
-58.3189
-53.4769
-48.2853
-42.7959
-37.0595
-31.1259
-25.0437
-18.86
-12.6208
-6.37045
-0.151893
5.99428
12.0299
17.9183
23.6255
29.1201
34.3734
39.3594
44.0552
48.4409
52.4993
56.2166
59.5818
62.5871
65.2277
67.5016
69.4099
70.9564
72.1477
72.993
73.5037
73.6931
73.5762
73.1699
72.4908
71.5572
70.3883
69.0036
67.4235
65.6686
63.7596
61.7172
59.5618
57.3131
54.9905
52.6123
50.196
47.7583
45.3144
42.8787
40.4643
38.083
35.7456
33.4615
31.2391
29.0854
27.0065
25.0075
23.0921
21.2636
19.5241
17.875
16.3169
14.8499
13.4732
12.1859
10.9862
9.87218
8.84131
7.89094
7.01808
6.21956
5.49202
4.83199
4.23592
3.70018
3.22115
2.79521
2.41877
2.08832
1.8004
1.55167
1.33888
1.1589
1.00875
0.885544
0.786568
0.70925
0.651164
0.610083
0.583899
0.571232
0.569812
0.577909
0.593953
0.616523
0.64433
0.676209
0.711113
0.748102
0.786339
0.825086
0.863695
0.901601
0.938322
0.973443
1.00662
1.03756
1.06604
1.09188
1.11495
1.13515
1.15244
1.1668
1.17823
1.18679
1.19256
1.19562
1.1953
1.19231
1.1868
1.1789
1.16877
1.15653
1.14234
1.12635
1.10871
1.08956
1.06906
1.04736
1.02459
1.00089
0.976398
0.951241
0.925543
0.899419
0.872982
0.846339
0.819589
0.792827
0.766138
-260.912
-244.113
-225.447
-204.939
-182.621
-158.498
-132.606
-105.032
-75.8704
-45.246
-13.3488
19.5218
53.2786
87.6722
122.338
156.865
190.83
223.871
255.558
285.448
313.169
338.314
360.478
379.339
394.602
406.023
413.421
416.68
414.876
408.92
398.929
385.033
367.445
346.46
322.391
295.595
266.497
235.49
202.98
169.395
135.115
100.507
65.8858
31.7429
0.00368497
-32.241
-63.5632
-93.6716
-122.372
-149.507
-174.971
-198.677
-220.566
-240.606
-258.773
-275.069
-289.503
-302.086
-312.844
-321.796
-328.967
-334.376
-338.046
-339.976
-340.203
-338.716
-335.577
-330.811
-324.451
-316.529
-307.067
-296.106
-283.685
-269.831
-254.586
-237.989
-220.067
-200.855
-180.372
-158.638
-135.667
-111.467
-86.0441
-59.4079
-31.5797
-2.59499
27.5318
58.5457
90.3239
122.627
155.154
187.543
219.377
250.204
279.543
306.919
331.862
353.93
372.726
387.904
399.18
406.338
409.243
407.823
402.141
392.283
378.409
360.775
339.703
315.569
288.806
259.885
229.301
197.559
165.157
132.566
100.222
68.5115
37.7674
8.28387
-19.7724
-46.2187
-70.9414
-93.8692
-114.967
-134.229
-151.676
-167.343
-181.283
-193.553
-204.216
-213.334
-220.966
-227.17
-231.994
-235.483
-237.673
-238.589
-238.262
-236.709
-233.936
-229.946
-224.737
-218.302
-210.637
-201.738
-191.603
-180.235
-167.644
-153.847
-138.872
-122.756
-105.548
-87.3138
-68.1314
-48.097
-27.3244
-5.94556
15.8999
38.0231
60.2526
82.3921
104.234
125.563
146.159
165.801
184.273
201.366
216.884
230.647
242.498
252.304
259.96
265.393
268.56
269.452
268.088
264.542
258.883
251.225
241.705
230.484
217.747
203.692
188.534
172.494
155.796
138.663
121.311
103.946
86.7606
69.9306
53.6148
37.953
23.0697
9.11479
-3.9383
-15.9883
-26.9835
-36.8936
-45.7033
-53.4103
-60.0233
-65.5607
-70.0495
-73.5241
-76.0251
-77.5953
-78.2841
-78.1447
-77.2289
-75.5895
-73.2801
-70.3543
-66.8661
-62.8691
-58.417
-53.5631
-48.3598
-42.8588
-37.111
-31.1662
-25.0729
-18.8786
-12.6289
-6.36849
-0.140225
6.01521
12.0596
17.9563
23.6713
29.173
34.4327
39.4245
44.1255
48.5155
52.5776
56.2978
59.6652
62.6719
65.3132
67.5871
69.4947
71.0398
72.229
73.0717
73.5793
73.7652
73.6445
73.234
72.5506
71.6126
70.4389
69.0494
67.4644
65.7045
63.7906
61.7434
59.5831
57.3299
55.0029
52.6206
50.2004
47.759
45.3118
42.873
40.4558
38.072
35.7324
33.4464
31.2223
29.0673
26.9873
24.9873
23.0713
21.2423
19.5025
17.8532
16.2952
14.8283
13.452
12.1651
10.9659
9.85245
8.82224
7.87259
7.00049
6.20277
5.47606
4.81688
4.22166
3.68678
3.20861
2.78351
2.40791
2.07827
1.79114
1.54317
1.33112
1.15185
1.00237
0.879806
0.781434
0.704686
0.647134
0.606555
0.58087
0.568614
0.567582
0.576036
0.592409
0.615279
0.643359
0.675485
0.710611
0.747797
0.78621
0.825111
0.863853
0.901875
0.938694
0.973897
1.00714
1.03814
1.06666
1.09253
1.11562
1.13584
1.15313
1.16748
1.17891
1.18745
1.1932
1.19623
1.19589
1.19287
1.18734
1.17941
1.16925
1.15698
1.14276
1.12673
1.10905
1.08987
1.06934
1.0476
1.0248
1.00107
0.976553
0.951368
0.925642
0.899493
0.873032
0.846365
0.819594
0.792814
0.766106
-261.433
-244.651
-226
-205.503
-183.192
-159.07
-133.171
-105.584
-76.3989
-45.7425
-13.8047
19.1157
52.939
87.4175
122.182
156.818
190.9
224.064
255.879
285.9
313.751
339.022
361.303
380.266
395.613
407.097
414.536
417.807
416.002
410.012
399.959
385.984
368.3
347.205
323.016
296.093
266.867
235.734
203.103
169.405
135.024
100.326
65.6283
31.419
-0.426588
-32.7092
-64.067
-94.2045
-122.927
-150.078
-175.549
-199.258
-221.145
-241.178
-259.336
-275.621
-290.042
-302.613
-313.359
-322.3
-329.461
-334.861
-338.519
-340.444
-340.666
-339.172
-336.027
-331.256
-324.89
-316.963
-307.496
-296.53
-284.104
-270.246
-254.997
-238.396
-220.473
-201.261
-180.78
-159.049
-136.083
-111.889
-86.4709
-59.8369
-32.0051
-3.00701
27.1371
58.1927
90.0294
122.409
155.031
187.531
219.492
250.457
279.94
307.46
332.543
354.742
373.654
388.929
400.279
407.483
410.404
408.985
403.267
393.344
379.382
361.639
340.441
316.169
289.258
260.188
229.457
197.574
165.043
132.337
99.8961
68.106
37.3001
7.76979
-20.3173
-46.7812
-71.5108
-94.4364
-115.525
-134.773
-152.201
-167.848
-181.765
-194.013
-204.654
-213.752
-221.367
-227.555
-232.366
-235.843
-238.023
-238.933
-238.602
-237.047
-234.275
-230.286
-225.079
-218.648
-210.987
-202.091
-191.959
-180.592
-168
-154.201
-139.221
-123.096
-105.876
-87.6255
-68.422
-48.3614
-27.5573
-6.14115
15.7461
37.9174
60.1998
82.3967
104.3
125.692
146.353
166.061
184.597
201.751
217.326
231.141
243.036
252.877
260.559
266.007
269.178
270.064
268.686
265.113
259.42
251.719
242.149
230.873
218.076
203.958
188.735
172.63
155.869
138.676
121.268
103.851
86.6195
69.7488
53.3979
37.7061
22.797
8.83255
-4.23648
-16.2962
-27.2963
-37.2075
-46.0152
-53.7175
-60.3235
-65.852
-70.3303
-73.7931
-76.281
-77.8376
-78.5126
-78.3588
-77.4287
-75.775
-73.4513
-70.5113
-67.0087
-62.9976
-58.5315
-53.6637
-48.4466
-42.9321
-37.171
-31.2131
-25.1071
-18.9002
-12.6384
-6.36617
-0.126581
6.03968
12.0944
18.0007
23.7247
29.2347
34.502
39.5006
44.2075
48.6026
52.669
56.3926
59.7625
62.771
65.413
67.6869
69.5936
71.1371
72.324
73.1636
73.6675
73.8494
73.7243
73.309
72.6205
71.6771
70.4979
69.1028
67.512
65.7464
63.8267
61.7738
59.6081
57.3495
55.0174
52.6302
50.2055
47.7599
45.3087
42.8664
40.4459
38.0592
35.717
33.4288
31.2028
29.0461
26.9648
24.9638
23.047
21.2174
19.4773
17.8279
16.2699
14.8032
13.4272
12.1408
10.9422
9.82943
8.79999
7.85117
6.97996
6.18318
5.45743
4.79924
4.20502
3.67115
3.19398
2.76987
2.39524
2.06655
1.78035
1.53327
1.32207
1.14362
0.994928
0.873115
0.775449
0.699364
0.642436
0.60244
0.577333
0.565562
0.564982
0.573855
0.590611
0.613831
0.642229
0.674643
0.710028
0.747445
0.786061
0.825141
0.86404
0.902197
0.93913
0.97443
1.00775
1.03881
1.06738
1.09329
1.11641
1.13664
1.15393
1.16828
1.17969
1.18822
1.19394
1.19696
1.19658
1.19353
1.18796
1.18001
1.16981
1.1575
1.14324
1.12717
1.10946
1.09024
1.06967
1.04789
1.02505
1.00129
0.976733
0.951515
0.925758
0.899579
0.873089
0.846397
0.819601
0.792797
0.766069
-262.029
-245.266
-226.632
-206.148
-183.844
-159.724
-133.818
-106.215
-77.0042
-46.3113
-14.3252
18.6475
52.5487
87.1245
122.003
156.763
190.978
224.283
256.244
286.415
314.416
339.833
362.247
381.327
396.77
408.327
415.811
419.099
417.289
411.26
401.137
387.072
369.279
348.057
323.73
296.662
267.289
236.011
203.242
169.415
134.917
100.117
65.332
31.0453
-0.917844
-33.2449
-64.6438
-94.8145
-123.562
-150.73
-176.211
-199.923
-221.807
-241.833
-259.981
-276.253
-290.659
-303.216
-313.948
-322.877
-330.026
-335.414
-339.061
-340.979
-341.195
-339.693
-336.541
-331.764
-325.392
-317.459
-307.986
-297.014
-284.583
-270.719
-255.466
-238.862
-220.937
-201.725
-181.246
-159.518
-136.558
-112.371
-86.9591
-60.3281
-32.4924
-3.4801
26.6845
57.7877
89.6906
122.157
154.887
187.516
219.622
250.745
280.393
308.078
333.322
355.671
374.716
390.103
401.537
408.795
411.736
410.315
404.555
394.558
380.495
362.628
341.286
316.854
289.775
260.533
229.633
197.59
164.91
132.074
99.5211
67.6401
36.7637
7.18043
-20.9416
-47.4256
-72.1626
-95.0855
-116.163
-135.394
-152.801
-168.424
-182.316
-194.539
-205.156
-214.231
-221.825
-227.995
-232.79
-236.254
-238.423
-239.326
-238.991
-237.434
-234.661
-230.674
-225.471
-219.044
-211.387
-202.495
-192.365
-181
-168.408
-154.606
-139.619
-123.485
-106.252
-87.9823
-68.7548
-48.6643
-27.8241
-6.36553
15.5697
37.7958
60.1389
82.4013
104.374
125.839
146.575
166.357
184.967
202.192
217.832
231.705
243.651
253.533
261.244
266.709
269.886
270.765
269.37
265.767
260.035
252.285
242.658
231.318
218.451
204.261
188.964
172.785
155.952
138.69
121.217
103.742
86.4576
69.5403
53.1493
37.4233
22.4841
8.50991
-4.57791
-16.6486
-27.6541
-37.5666
-46.3719
-54.0688
-60.6668
-66.1851
-70.6514
-74.1006
-76.5735
-78.1146
-78.7737
-78.6036
-77.657
-75.987
-73.6469
-70.6906
-67.1718
-63.1445
-58.6624
-53.7787
-48.5459
-43.0159
-37.2395
-31.2667
-25.146
-18.9248
-12.6492
-6.36348
-0.110945
6.0677
12.1341
18.0516
23.7858
29.3053
34.5813
39.5876
44.3013
48.7023
52.7735
56.501
59.8739
62.8842
65.5272
67.8011
69.7068
71.2484
72.4326
73.2687
73.7684
73.9456
73.8154
73.3946
72.7003
71.7509
70.5654
69.1638
67.5665
65.7942
63.868
61.8086
59.6365
57.3719
55.0339
52.6412
50.2113
47.7608
45.3052
42.8587
40.4345
38.0445
35.6994
33.4086
31.1804
29.0219
26.9391
24.9368
23.0191
21.189
19.4484
17.7989
16.2409
14.7745
13.3989
12.113
10.9151
9.8031
8.77455
7.82668
6.9565
6.16078
5.43615
4.77908
4.18601
3.65329
3.17726
2.75429
2.38077
2.05316
1.76801
1.52195
1.31174
1.13423
0.986431
0.865473
0.768613
0.693286
0.637071
0.597737
0.573291
0.562077
0.562015
0.571365
0.588559
0.612179
0.640941
0.673684
0.709364
0.747044
0.785894
0.825179
0.864256
0.902567
0.939631
0.97504
1.00845
1.03958
1.06821
1.09416
1.1173
1.13755
1.15485
1.1692
1.1806
1.1891
1.19479
1.19778
1.19737
1.19429
1.18868
1.18069
1.17044
1.1581
1.14379
1.12768
1.10992
1.09065
1.07004
1.04822
1.02534
1.00153
0.976939
0.951683
0.92589
0.899677
0.873155
0.846432
0.819608
0.792778
0.766026
-262.7
-245.959
-227.344
-206.874
-184.579
-160.461
-134.547
-106.927
-77.6868
-46.953
-14.9125
18.1182
52.1071
86.7923
121.798
156.699
191.064
224.527
256.655
286.994
315.164
340.745
363.31
382.522
398.074
409.712
417.25
420.555
418.74
412.665
402.465
388.298
370.38
349.017
324.534
297.301
267.762
236.321
203.397
169.425
134.795
99.8787
64.9959
30.621
-1.46993
-33.8483
-65.2938
-95.502
-124.277
-151.465
-176.957
-200.672
-222.552
-242.57
-260.706
-276.963
-291.353
-303.893
-314.61
-323.525
-330.661
-336.037
-339.671
-341.58
-341.79
-340.279
-337.119
-332.335
-325.957
-318.018
-308.538
-297.56
-285.122
-271.252
-255.993
-239.386
-221.459
-202.246
-181.769
-160.046
-137.093
-112.913
-87.5088
-60.8816
-33.0423
-4.01553
26.1738
57.3298
89.3063
121.87
154.722
187.496
219.766
251.066
280.901
308.773
334.199
356.717
375.912
391.425
402.955
410.275
413.24
411.813
406.007
395.926
381.75
363.742
342.237
317.625
290.356
260.92
229.829
197.604
164.758
131.775
99.0961
67.1129
36.1576
6.51493
-21.646
-48.1523
-72.8974
-95.817
-116.882
-136.094
-153.477
-169.073
-182.936
-195.13
-205.719
-214.769
-222.34
-228.489
-233.267
-236.715
-238.873
-239.767
-239.427
-237.868
-235.095
-231.111
-225.911
-219.489
-211.837
-202.949
-192.823
-181.459
-168.867
-155.061
-140.068
-123.923
-106.675
-88.3844
-69.1299
-49.006
-28.1254
-6.61901
15.3703
37.6582
60.0694
82.4057
104.457
126.004
146.824
166.691
185.383
202.688
218.402
232.341
244.344
254.271
262.016
267.501
270.684
271.555
270.141
266.504
260.727
252.922
243.231
231.819
218.874
204.602
189.222
172.959
156.045
138.705
121.16
103.619
86.2744
69.3048
52.8688
37.1045
22.1304
8.14686
-4.96295
-17.0457
-28.0574
-37.9711
-46.7737
-54.4645
-61.0533
-66.5601
-71.0129
-74.4467
-76.9029
-78.4264
-79.0675
-78.879
-77.914
-76.2255
-73.8671
-70.8924
-67.3553
-63.3098
-58.8096
-53.908
-48.6575
-43.1101
-37.3167
-31.327
-25.1898
-18.9526
-12.6612
-6.3604
-0.0933043
6.0993
12.179
18.1089
23.8547
29.3849
34.6705
39.6856
44.407
48.8145
52.8912
56.6231
59.9992
63.0117
65.6558
67.9296
69.8343
71.3738
72.5549
73.387
73.882
74.0539
73.918
73.491
72.7902
71.8339
70.6414
69.2325
67.6278
65.848
63.9144
61.8477
59.6685
57.397
55.0525
52.6535
50.2178
47.7618
45.3011
42.8501
40.4217
38.0279
35.6795
33.3858
31.1552
28.9946
26.9101
24.9065
22.9878
21.1569
19.4159
17.7662
16.2083
14.7421
13.367
12.0817
10.8846
9.77348
8.74592
7.79913
6.9301
6.13558
5.41219