/*--------------------------------*- C++ -*----------------------------------*\
| =========                 |                                                 |
| \\      /  F ield         | OpenFOAM: The Open Source CFD Toolbox           |
|  \\    /   O peration     | Version:  3.0.1                                 |
|   \\  /    A nd           | Web:      www.OpenFOAM.org                      |
|    \\/     M anipulation  |                                                 |
\*---------------------------------------------------------------------------*/
FoamFile
{
    version     2.0;
    format      ascii;
    class       volScalarField;
    location    "43.6";
    object      p_rgh;
}
// * * * * * * * * * * * * * * * * * * * * * * * * * * * * * * * * * * * * * //

dimensions      [1 -1 -2 0 0 0 0];

internalField   nonuniform List<scalar> 
21420
(
-336.865
-334.235
-330.34
-325.165
-318.688
-310.863
-301.646
-290.987
-278.836
-265.152
-249.886
-232.993
-214.447
-194.229
-172.333
-148.772
-123.582
-96.8537
-70.1178
-40.775
-10.3605
20.8567
52.6424
84.7608
116.897
148.735
179.9
209.991
238.647
265.454
289.997
311.933
330.928
346.685
358.963
367.571
372.385
373.229
370.306
363.502
352.909
338.731
321.17
300.474
276.968
250.981
222.865
193.034
161.886
129.806
97.2025
64.4513
31.903
-0.129077
-31.3514
-61.4996
-90.307
-117.851
-143.926
-168.442
-191.339
-212.601
-232.225
-250.228
-266.644
-281.507
-294.858
-306.742
-317.195
-326.259
-333.969
-340.363
-345.475
-349.33
-351.951
-353.464
-353.921
-352.784
-350.279
-346.453
-341.297
-334.781
-326.867
-317.53
-306.721
-294.416
-280.573
-265.166
-248.176
-229.609
-209.5
-187.88
-164.778
-140.259
-114.397
-87.2893
-59.0324
-29.7999
0.188644
30.693
61.4496
92.1753
122.568
152.314
181.081
208.534
234.327
258.115
279.567
298.365
314.218
326.873
336.111
341.75
343.615
341.755
336.142
326.741
313.701
297.189
277.433
254.711
229.344
201.696
172.167
141.173
109.142
76.5017
43.6736
11.055
-20.9911
-52.1405
-82.1138
-110.679
-137.687
-163.004
-186.551
-208.292
-228.222
-246.365
-262.766
-277.485
-290.591
-302.16
-312.27
-320.998
-328.416
-334.601
-339.621
-343.524
-346.358
-348.188
-349.033
-348.921
-347.861
-345.856
-342.907
-339.002
-334.121
-328.239
-321.321
-313.325
-304.202
-293.897
-282.358
-269.526
-255.346
-239.771
-222.768
-204.314
-184.401
-163.036
-140.209
-116.046
-90.5686
-63.8605
-36.0352
-7.24097
22.3395
52.4845
82.9356
113.401
143.554
173.045
201.502
228.54
253.769
276.797
297.241
314.743
328.979
339.677
346.615
349.588
348.603
343.661
334.747
322.036
305.735
286.113
263.5
238.272
210.834
181.616
151.059
119.599
87.6562
55.622
23.8565
-7.32304
-37.6453
-66.8844
-94.859
-121.441
-146.542
-170.1
-192.079
-212.476
-231.305
-248.597
-264.399
-278.765
-291.755
-303.438
-313.882
-323.152
-331.314
-338.413
-344.488
-349.575
-353.68
-356.795
-358.907
-360.014
-360.088
-359.097
-357.012
-353.801
-349.429
-343.861
-337.065
-328.998
-319.624
-308.898
-296.771
-283.195
-268.117
-251.486
-233.258
-213.399
-191.888
-168.723
-143.926
-117.522
-89.668
-60.4621
-30.0391
1.42294
33.7161
66.5869
99.7449
132.858
165.555
197.432
228.062
257.019
283.897
308.274
329.776
348.068
362.822
373.773
380.726
383.502
382.295
377.552
368.828
356.225
340.31
321.495
300.113
276.596
251.334
224.743
197.23
169.116
140.72
112.351
84.1866
56.474
29.3089
2.77561
-23.1678
-48.1996
-67.3391
-86.5206
-105.242
-123.398
-140.563
-156.55
-171.262
-184.677
-196.789
-207.622
-217.21
-225.589
-232.789
-238.834
-243.733
-247.477
-250.033
-251.317
-251.239
-249.585
-246.359
-241.39
-234.566
-225.743
-214.81
-201.703
-186.358
-168.742
-148.855
-126.751
-102.481
-76.1745
-47.9334
-17.8944
13.5808
46.2823
79.9602
114.288
148.936
183.589
217.871
251.444
283.921
314.951
344.235
371.441
396.246
418.383
437.586
453.619
466.282
475.412
480.893
482.615
480.457
474.298
464.286
450.583
433.384
412.879
389.324
363.103
334.654
-336.915
-334.285
-330.391
-325.217
-318.742
-310.919
-301.705
-291.049
-278.9
-265.219
-249.956
-233.066
-214.522
-194.306
-172.411
-148.851
-123.66
-96.9127
-70.2025
-40.8387
-10.417
20.8076
52.6025
84.7319
116.881
148.733
179.915
210.023
238.698
265.523
290.084
312.036
331.046
346.815
359.104
367.718
372.536
373.391
370.449
363.645
353.044
338.855
321.281
300.57
277.047
251.043
222.909
193.06
161.896
129.798
97.1802
64.4157
31.8558
-0.186282
-31.417
-61.5722
-90.378
-117.926
-144.003
-168.519
-191.416
-212.676
-232.297
-250.297
-266.71
-281.57
-294.92
-306.8
-317.251
-326.314
-334.022
-340.415
-345.525
-349.38
-352.001
-353.512
-353.962
-352.825
-350.321
-346.497
-341.342
-334.827
-326.915
-317.58
-306.774
-294.471
-280.632
-265.228
-248.241
-229.679
-209.573
-187.954
-164.854
-140.336
-114.473
-87.3638
-59.1028
-29.864
0.132213
30.646
61.4137
92.1521
122.559
152.319
181.103
208.572
234.382
258.187
279.654
298.466
314.332
326.998
336.244
341.897
343.754
341.893
336.277
326.871
313.822
297.297
277.527
254.789
229.404
201.738
172.191
141.178
109.13
76.4729
43.6301
10.9985
-21.0587
-52.2168
-82.1967
-110.767
-137.777
-163.095
-186.642
-208.381
-228.308
-246.448
-262.846
-277.56
-290.663
-302.228
-312.334
-321.059
-328.474
-334.657
-339.674
-343.574
-346.407
-348.236
-349.08
-348.967
-347.907
-345.903
-342.954
-339.05
-334.17
-328.29
-321.374
-313.38
-304.259
-293.957
-282.42
-269.591
-255.414
-239.841
-222.839
-204.386
-184.474
-163.11
-140.283
-116.118
-90.6385
-63.9271
-36.097
-7.29655
22.2918
52.4465
82.9089
113.387
143.554
173.062
201.536
228.591
253.837
276.883
297.344
314.861
329.11
339.818
346.769
349.736
348.75
343.806
334.884
322.163
305.848
286.21
263.58
238.333
210.877
181.64
151.066
119.589
87.6308
55.5835
23.8067
-7.382
-37.7115
-66.9557
-94.9337
-121.517
-146.62
-170.177
-192.155
-212.551
-231.377
-248.667
-264.466
-278.829
-291.816
-303.496
-313.936
-323.204
-331.363
-338.461
-344.536
-349.621
-353.726
-356.841
-358.954
-360.062
-360.137
-359.148
-357.064
-353.854
-349.484
-343.917
-337.122
-329.058
-319.685
-308.961
-296.837
-283.263
-268.188
-251.56
-233.333
-213.477
-191.967
-168.802
-144.004
-117.598
-89.7413
-60.5312
-30.1024
1.36688
33.6689
66.5504
99.721
132.849
165.562
197.457
228.106
257.082
283.98
308.376
329.896
348.204
362.972
373.935
380.898
383.686
382.49
377.721
368.981
356.374
340.452
321.621
300.222
276.688
251.407
224.798
197.268
169.138
140.729
112.347
84.1718
56.4496
29.275
2.73018
-23.2329
-48.2889
-67.3404
-86.5519
-105.292
-123.457
-140.624
-156.611
-171.321
-184.734
-196.844
-207.674
-217.26
-225.637
-232.836
-238.88
-243.779
-247.524
-250.082
-251.37
-251.296
-249.648
-246.427
-241.463
-234.645
-225.826
-214.898
-201.794
-186.452
-168.838
-148.951
-126.847
-102.576
-76.2661
-48.0215
-17.9729
13.5095
46.2197
79.9081
114.248
148.909
183.575
217.872
251.46
283.953
314.997
344.297
371.518
396.337
418.488
437.703
453.746
466.418
475.554
481.04
482.774
480.595
474.436
464.422
450.713
433.504
412.987
389.418
363.182
334.717
-337.013
-334.385
-330.492
-325.322
-318.851
-311.032
-301.823
-291.172
-279.029
-265.353
-250.096
-233.211
-214.672
-194.46
-172.568
-149.009
-123.816
-97.0329
-70.3697
-40.9653
-10.53
20.7095
52.5226
84.674
116.849
148.73
179.944
210.088
238.799
265.661
290.258
312.243
331.282
347.077
359.386
368.014
372.837
373.712
370.738
363.93
353.315
339.105
321.504
300.762
277.206
251.167
222.998
193.113
161.914
129.784
97.1356
64.3444
31.7612
-0.300707
-31.5483
-61.7174
-90.5202
-118.076
-144.157
-168.673
-191.568
-212.824
-232.44
-250.435
-266.843
-281.697
-295.041
-306.917
-317.363
-326.422
-334.126
-340.515
-345.623
-349.476
-352.098
-353.605
-354.039
-352.904
-350.402
-346.579
-341.426
-334.914
-327.005
-317.674
-306.873
-294.575
-280.742
-265.345
-248.364
-229.809
-209.708
-188.091
-164.996
-140.477
-114.613
-87.5019
-59.2323
-29.981
0.0308412
30.5637
61.3537
92.1174
122.552
152.343
181.158
208.66
234.504
258.341
279.84
298.681
314.572
327.259
336.522
342.192
344.052
342.183
336.561
327.143
314.075
297.527
277.728
254.958
229.538
201.835
172.251
141.202
109.118
76.429
43.5569
10.8993
-21.1796
-52.3553
-82.3478
-110.927
-137.942
-163.262
-186.808
-208.543
-228.465
-246.598
-262.988
-277.696
-290.791
-302.348
-312.447
-321.165
-328.574
-334.751
-339.764
-343.656
-346.488
-348.315
-349.158
-349.044
-347.983
-345.98
-343.032
-339.13
-334.253
-328.376
-321.464
-313.475
-304.359
-294.062
-282.531
-269.707
-255.535
-239.967
-222.968
-204.518
-184.607
-163.244
-140.416
-116.248
-90.7652
-64.0472
-36.2077
-7.39481
22.2092
52.3832
82.8683
113.372
143.568
173.107
201.614
228.704
253.986
277.067
297.56
315.107
329.382
340.109
347.081
350.047
349.058
344.106
335.171
322.427
306.085
286.416
263.751
238.468
210.974
181.701
151.091
119.581
87.5925
55.5189
23.7198
-7.48703
-37.8306
-67.085
-95.0694
-121.657
-146.761
-170.318
-192.294
-212.686
-231.507
-248.792
-264.585
-278.942
-291.923
-303.596
-314.031
-323.294
-331.448
-338.543
-344.616
-349.7
-353.804
-356.92
-359.035
-360.145
-360.221
-359.235
-357.154
-353.947
-349.579
-344.016
-337.224
-329.164
-319.795
-309.075
-296.956
-283.387
-268.317
-251.694
-233.472
-213.619
-192.111
-168.949
-144.147
-117.738
-89.8754
-60.6568
-30.2165
1.26718
33.5867
66.4895
99.6854
132.842
165.587
197.517
228.204
257.22
284.155
308.59
330.146
348.487
363.284
374.269
381.25
384.062
382.887
378.064
369.296
356.681
340.74
321.88
300.446
276.875
251.557
224.911
197.347
169.185
140.748
112.341
84.1435
56.4019
29.2084
2.64045
-23.3619
-48.4684
-67.341
-86.6145
-105.394
-123.573
-140.745
-156.732
-171.44
-184.848
-196.953
-207.778
-217.36
-225.732
-232.929
-238.972
-243.872
-247.619
-250.18
-251.475
-251.411
-249.773
-246.562
-241.609
-234.802
-225.992
-215.073
-201.977
-186.64
-169.029
-149.144
-127.039
-102.765
-76.4491
-48.1975
-18.13
13.367
46.0947
79.8038
114.168
148.854
183.548
217.875
251.492
284.016
315.091
344.42
371.672
396.52
418.698
437.937
454.001
466.689
475.838
481.334
483.09
480.872
474.713
464.694
450.972
433.744
413.203
389.607
363.339
334.842
-337.161
-334.535
-330.645
-325.478
-319.013
-311.201
-302
-291.356
-279.222
-265.555
-250.306
-233.429
-214.897
-194.69
-172.803
-149.247
-124.052
-97.2288
-70.6056
-41.1539
-10.6995
20.562
52.4025
84.5871
116.8
148.725
179.988
210.185
238.951
265.869
290.518
312.554
331.637
347.47
359.808
368.457
373.289
374.186
371.18
364.36
353.722
339.479
321.838
301.05
277.445
251.352
223.13
193.192
161.941
129.762
97.0686
64.2372
31.6191
-0.472522
-31.7455
-61.9357
-90.7333
-118.301
-144.388
-168.904
-191.796
-213.047
-232.656
-250.643
-267.041
-281.887
-295.223
-307.091
-317.531
-326.583
-334.282
-340.666
-345.77
-349.62
-352.244
-353.746
-354.155
-353.021
-350.524
-346.704
-341.553
-335.043
-327.14
-317.814
-307.021
-294.731
-280.907
-265.52
-248.548
-230.003
-209.91
-188.298
-165.206
-140.689
-114.822
-87.7085
-59.4256
-30.1554
-0.120137
30.4413
61.2649
92.0666
122.544
152.379
181.243
208.795
234.688
258.575
280.121
299.005
314.935
327.654
336.941
342.625
344.51
342.625
336.991
327.555
314.459
297.874
278.032
255.213
229.74
201.983
172.344
141.24
109.104
76.366
43.4498
10.753
-21.3585
-52.5604
-82.572
-111.165
-138.188
-163.51
-187.054
-208.783
-228.698
-246.821
-263.2
-277.896
-290.979
-302.526
-312.614
-321.321
-328.721
-334.89
-339.895
-343.779
-346.608
-348.43
-349.272
-349.157
-348.096
-346.093
-343.147
-339.248
-334.375
-328.503
-321.597
-313.615
-304.506
-294.218
-282.695
-269.879
-255.715
-240.153
-223.16
-204.713
-184.805
-163.443
-140.613
-116.442
-90.9533
-64.2255
-36.3719
-7.54034
22.0873
52.2901
82.8093
113.352
143.591
173.177
201.735
228.877
254.212
277.344
297.888
315.479
329.792
340.549
347.539
350.526
349.525
344.56
335.603
322.827
306.444
286.728
264.01
238.672
211.122
181.794
151.13
119.571
87.5371
55.4241
23.5916
-7.6425
-38.0072
-67.2771
-95.2705
-121.864
-146.972
-170.527
-192.5
-212.886
-231.7
-248.977
-264.762
-279.109
-292.081
-303.745
-314.171
-323.426
-331.574
-338.663
-344.734
-349.817
-353.919
-357.037
-359.154
-360.267
-360.347
-359.364
-357.287
-354.084
-349.721
-344.163
-337.376
-329.321
-319.958
-309.245
-297.133
-283.572
-268.509
-251.893
-233.679
-213.831
-192.327
-169.167
-144.362
-117.946
-90.075
-60.8435
-30.3861
1.11927
33.4651
66.3999
99.6337
132.833
165.627
197.61
228.353
257.428
284.421
308.913
330.524
348.915
363.753
374.773
381.779
384.626
383.473
378.581
369.773
357.144
341.174
322.268
300.782
277.156
251.782
225.081
197.466
169.256
140.776
112.331
84.101
56.3303
29.1088
2.50659
-23.5544
-48.7413
-67.3385
-86.7097
-105.547
-123.749
-140.927
-156.914
-171.618
-185.02
-197.117
-207.935
-217.509
-225.876
-233.068
-239.109
-244.01
-247.76
-250.326
-251.633
-251.585
-249.962
-246.764
-241.828
-235.038
-226.242
-215.337
-202.251
-186.923
-169.316
-149.433
-127.327
-103.048
-76.7239
-48.4616
-18.3661
13.1529
45.9069
79.6473
114.046
148.772
183.507
217.878
251.54
284.11
315.231
344.606
371.903
396.794
419.012
438.287
454.383
467.097
476.265
481.774
483.555
481.294
475.132
465.103
451.362
434.105
413.527
389.889
363.576
335.031
-337.358
-334.734
-330.848
-325.688
-319.23
-311.427
-302.236
-291.602
-279.479
-265.824
-250.587
-233.719
-215.197
-194.998
-173.117
-149.564
-124.369
-97.5217
-70.8892
-41.4031
-10.9257
20.365
52.242
84.4707
116.735
148.718
180.047
210.313
239.153
266.145
290.866
312.968
332.111
347.993
360.372
369.049
373.893
374.805
371.778
364.935
354.266
339.979
322.284
301.434
277.762
251.6
223.306
193.296
161.977
129.732
96.9787
64.094
31.4292
-0.701927
-32.0086
-62.2279
-91.0169
-118.602
-144.697
-169.213
-192.101
-213.344
-232.943
-250.919
-267.306
-282.141
-295.466
-307.324
-317.755
-326.799
-334.49
-340.868
-345.966
-349.813
-352.437
-353.931
-354.311
-353.179
-350.687
-346.869
-341.722
-335.216
-327.319
-318
-307.217
-294.939
-281.127
-265.752
-248.794
-230.262
-210.178
-188.573
-165.487
-140.971
-115.101
-87.9847
-59.6834
-30.3882
-0.321475
30.2779
61.1464
91.9988
122.532
152.428
181.357
208.975
234.935
258.887
280.496
299.439
315.42
328.182
337.501
343.203
345.114
343.22
337.567
328.105
314.971
298.338
278.438
255.554
230.011
202.182
172.468
141.292
109.085
76.2824
43.3072
10.5584
-21.5967
-52.8336
-82.8706
-111.482
-138.515
-163.84
-187.381
-209.104
-229.007
-247.118
-263.482
-278.162
-291.23
-302.762
-312.835
-321.529
-328.917
-335.074
-340.068
-343.944
-346.768
-348.584
-349.423
-349.307
-348.245
-346.243
-343.3
-339.405
-334.538
-328.673
-321.774
-313.8
-304.702
-294.425
-282.913
-270.108
-255.954
-240.402
-223.416
-204.974
-185.069
-163.709
-140.876
-116.701
-91.204
-64.4631
-36.5908
-7.73428
21.925
52.1661
82.7307
113.325
143.622
173.27
201.896
229.108
254.514
277.715
298.325
315.977
330.341
341.137
348.147
351.162
350.155
345.167
336.18
323.361
306.923
287.144
264.357
238.945
211.32
181.918
151.183
119.557
87.4634
55.2979
23.4208
-7.84971
-38.2427
-67.5333
-95.5384
-122.14
-147.251
-170.806
-192.774
-213.152
-231.958
-249.224
-264.997
-279.332
-292.292
-303.943
-314.357
-323.602
-331.74
-338.824
-344.891
-349.971
-354.072
-357.19
-359.313
-360.429
-360.514
-359.536
-357.464
-354.267
-349.91
-344.358
-337.578
-329.53
-320.175
-309.471
-297.369
-283.818
-268.765
-252.159
-233.954
-214.114
-192.614
-169.456
-144.649
-118.223
-90.3408
-61.0924
-30.6122
0.922147
33.3032
66.2805
99.5646
132.822
165.68
197.734
228.552
257.706
284.776
309.346
331.029
349.486
364.38
375.446
382.487
385.373
384.236
379.28
370.421
357.767
341.753
322.786
301.23
277.53
252.081
225.307
197.624
169.35
140.813
112.318
84.044
56.2346
28.9762
2.32937
-23.8085
-49.1123
-67.3286
-86.8394
-105.754
-123.984
-141.171
-157.157
-171.855
-185.248
-197.336
-208.143
-217.708
-226.067
-233.253
-239.293
-244.194
-247.949
-250.522
-251.842
-251.817
-250.212
-247.033
-242.12
-235.352
-226.577
-215.689
-202.617
-187.3
-169.699
-149.818
-127.711
-103.426
-77.0905
-48.8139
-18.6817
12.867
45.656
79.4383
113.885
148.662
183.453
217.882
251.605
284.236
315.417
344.853
372.211
397.16
419.432
438.755
454.892
467.64
476.833
482.36
484.157
481.873
475.696
465.651
451.882
434.585
413.959
390.266
363.891
335.281
-337.605
-334.983
-331.102
-325.949
-319.501
-311.708
-302.53
-291.909
-279.8
-266.16
-250.937
-234.083
-215.572
-195.383
-173.509
-149.962
-124.768
-97.916
-71.2171
-41.7124
-11.2088
20.118
52.0407
84.3245
116.652
148.709
180.119
210.474
239.405
266.491
291.301
313.486
332.703
348.649
361.078
369.789
374.649
375.57
372.535
365.656
354.946
340.604
322.841
301.915
278.16
251.91
223.526
193.427
162.021
129.695
96.8659
63.9142
31.1911
-0.989186
-32.3381
-62.5949
-91.3708
-118.979
-145.083
-169.6
-192.482
-213.715
-233.303
-251.265
-267.638
-282.459
-295.77
-307.616
-318.035
-327.068
-334.75
-341.12
-346.21
-350.052
-352.677
-354.159
-354.51
-353.378
-350.891
-347.077
-341.933
-335.433
-327.543
-318.233
-307.462
-295.199
-281.401
-266.043
-249.102
-230.586
-210.513
-188.92
-165.837
-141.323
-115.45
-88.3304
-60.006
-30.6798
-0.57368
30.0732
60.9977
91.9135
122.517
152.489
181.498
209.199
235.243
259.278
280.966
299.982
316.027
328.842
338.203
343.929
345.863
343.969
338.289
328.795
315.613
298.919
278.947
255.98
230.35
202.43
172.624
141.356
109.062
76.1776
43.1283
10.3145
-21.8953
-53.1757
-83.2444
-111.879
-138.924
-164.253
-187.791
-209.504
-229.394
-247.488
-263.834
-278.496
-291.544
-303.057
-313.112
-321.789
-329.161
-335.304
-340.284
-344.151
-346.967
-348.777
-349.612
-349.493
-348.432
-346.432
-343.492
-339.601
-334.74
-328.884
-321.995
-314.033
-304.947
-294.683
-283.186
-270.395
-256.254
-240.712
-223.735
-205.3
-185.399
-164.041
-141.204
-117.024
-91.5177
-64.7605
-36.865
-7.97734
21.7216
52.0105
82.6319
113.291
143.66
173.387
202.096
229.397
254.891
278.179
298.872
316.599
331.027
341.873
348.912
351.952
350.945
345.928
336.903
324.03
307.524
287.664
264.79
239.286
211.567
182.072
151.249
119.54
87.3707
55.1394
23.2066
-8.10938
-38.5377
-67.8541
-95.8737
-122.486
-147.601
-171.154
-193.116
-213.486
-232.279
-249.532
-265.291
-279.611
-292.555
-304.191
-314.589
-323.821
-331.949
-339.024
-345.087
-350.163
-354.263
-357.383
-359.511
-360.632
-360.722
-359.751
-357.686
-354.496
-350.146
-344.603
-337.83
-329.791
-320.446
-309.753
-297.663
-284.125
-269.085
-252.492
-234.298
-214.467
-192.974
-169.819
-145.009
-118.569
-90.6735
-61.4037
-30.8953
0.675175
33.1002
66.1307
99.4774
132.807
165.746
197.888
228.801
258.053
285.221
309.887
331.662
350.201
365.166
376.288
383.373
386.297
385.17
380.162
371.245
358.551
342.478
323.433
301.791
277.998
252.455
225.59
197.82
169.467
140.859
112.301
83.9722
56.1146
28.8108
2.10991
-24.1216
-49.5877
-67.3051
-87.0066
-106.015
-124.28
-141.476
-157.461
-172.152
-185.535
-197.61
-208.404
-217.957
-226.306
-233.485
-239.521
-244.424
-248.185
-250.767
-252.104
-252.107
-250.524
-247.37
-242.484
-235.744
-226.995
-216.128
-203.075
-187.772
-170.178
-150.3
-128.191
-103.899
-77.5497
-49.2544
-19.077
12.5088
45.3419
79.1765
113.682
148.523
183.385
217.887
251.685
284.392
315.65
345.162
372.595
397.617
419.956
439.34
455.529
468.319
477.544
483.091
484.898
482.607
476.406
466.337
452.533
435.186
414.499
390.737
364.285
335.595
-337.9
-335.282
-331.407
-326.262
-319.825
-312.046
-302.884
-292.278
-280.186
-266.564
-251.357
-234.519
-216.022
-195.846
-173.981
-150.439
-125.251
-98.4144
-71.5868
-42.0821
-11.5493
19.8206
51.7982
84.1481
116.553
148.696
180.205
210.665
239.708
266.906
291.824
314.108
333.415
349.436
361.925
370.679
375.56
376.485
373.443
366.524
355.763
341.355
323.511
302.492
278.636
252.281
223.789
193.583
162.073
129.649
96.7295
63.6976
30.9042
-1.33461
-32.7341
-63.0373
-91.795
-119.433
-145.547
-170.064
-192.939
-214.162
-233.734
-251.68
-268.036
-282.839
-296.135
-307.965
-318.37
-327.392
-335.062
-341.422
-346.504
-350.339
-352.962
-354.43
-354.752
-353.619
-351.136
-347.326
-342.187
-335.692
-327.813
-318.513
-307.756
-295.509
-281.73
-266.391
-249.471
-230.974
-210.916
-189.336
-166.259
-141.746
-115.868
-88.7453
-60.3935
-31.0303
-0.877113
29.8268
60.8184
91.8103
122.498
152.562
181.667
209.468
235.613
259.747
281.529
300.633
316.756
329.636
339.046
344.804
346.759
344.867
339.159
329.624
316.384
299.617
279.558
256.493
230.757
202.727
172.81
141.433
109.033
76.051
42.9126
10.0206
-22.2548
-53.5875
-83.6941
-112.356
-139.416
-164.749
-188.283
-209.985
-229.859
-247.934
-264.258
-278.895
-291.921
-303.411
-313.444
-322.101
-329.454
-335.58
-340.544
-344.399
-347.205
-349.008
-349.839
-349.718
-348.656
-346.657
-343.721
-339.836
-334.984
-329.137
-322.261
-314.311
-305.241
-294.994
-283.513
-270.739
-256.613
-241.085
-224.119
-205.691
-185.796
-164.441
-141.598
-117.413
-91.8948
-65.1181
-37.1948
-8.27001
21.4766
51.8229
82.5122
113.249
143.705
173.527
202.337
229.742
255.343
278.736
299.529
317.347
331.852
342.757
349.834
352.898
351.893
346.844
337.773
324.833
308.244
288.29
265.311
239.695
211.864
182.257
151.327
119.518
87.2586
54.9482
22.9484
-8.42208
-38.8927
-68.2405
-96.2766
-122.902
-148.022
-171.573
-193.528
-213.886
-232.666
-249.902
-265.645
-279.946
-292.871
-304.488
-314.868
-324.084
-332.199
-339.264
-345.321
-350.394
-354.493
-357.616
-359.747
-360.875
-360.972
-360.009
-357.953
-354.77
-350.43
-344.895
-338.133
-330.105
-320.772
-310.092
-298.017
-284.494
-269.47
-252.892
-234.711
-214.891
-193.406
-170.254
-145.443
-118.986
-91.0734
-61.7781
-31.2358
0.377856
32.8558
65.9501
99.3716
132.788
165.823
198.072
229.099
258.469
285.755
310.538
332.422
351.061
366.11
377.301
384.436
387.398
386.278
381.225
372.247
359.497
343.349
324.211
302.463
278.559
252.904
225.928
198.056
169.607
140.914
112.28
83.8855
55.9701
28.6126
1.84949
-24.4894
-50.1765
-67.2592
-87.2165
-106.333
-124.637
-141.843
-157.826
-172.508
-185.878
-197.938
-208.717
-218.255
-226.592
-233.763
-239.796
-244.7
-248.468
-251.062
-252.419
-252.454
-250.897
-247.773
-242.922
-236.215
-227.498
-216.657
-203.625
-188.338
-170.753
-150.879
-128.768
-104.467
-78.102
-49.7832
-19.552
12.0779
44.964
78.8615
113.438
148.357
183.302
217.892
251.781
284.58
315.93
345.533
373.057
398.166
420.586
440.043
456.294
469.134
478.397
483.969
485.783
483.491
477.262
467.163
453.315
435.908
415.148
391.303
364.758
335.971
-338.245
-335.63
-331.762
-326.628
-320.204
-312.441
-303.296
-292.709
-280.636
-267.035
-251.848
-235.028
-216.548
-196.385
-174.531
-150.997
-125.815
-99.0217
-71.9945
-42.5134
-11.9478
19.4722
51.5139
83.9408
116.435
148.681
180.303
210.888
240.06
267.389
292.433
314.835
334.246
350.355
362.915
371.718
376.625
377.555
374.501
367.538
356.718
342.231
324.293
303.165
279.192
252.714
224.096
193.764
162.133
129.594
96.5693
63.4434
30.5682
-1.73859
-33.1964
-63.5552
-92.2908
-119.964
-146.09
-170.607
-193.474
-214.683
-234.238
-252.165
-268.5
-283.284
-296.56
-308.373
-318.762
-327.769
-335.427
-341.774
-346.846
-350.674
-353.293
-354.749
-355.039
-353.904
-351.423
-347.616
-342.483
-335.995
-328.126
-318.839
-308.099
-295.871
-282.114
-266.799
-249.902
-231.425
-211.387
-189.821
-166.752
-142.241
-116.357
-89.2293
-60.846
-31.4399
-1.23202
29.5384
60.6082
91.6889
122.475
152.646
181.864
209.782
236.044
260.294
282.187
301.393
317.608
330.563
340.031
345.827
347.805
345.915
340.175
330.592
317.285
300.432
280.271
257.09
231.232
203.074
173.026
141.521
108.998
75.9018
42.6591
9.67623
-22.676
-54.0696
-84.2205
-112.914
-139.991
-165.33
-188.858
-210.548
-230.402
-248.454
-264.752
-279.362
-292.361
-303.824
-313.832
-322.464
-329.796
-335.902
-340.848
-344.689
-347.483
-349.278
-350.103
-349.979
-348.917
-346.921
-343.989
-340.111
-335.267
-329.433
-322.57
-314.637
-305.585
-295.356
-283.895
-271.141
-257.033
-241.521
-224.567
-206.149
-186.259
-164.909
-142.057
-117.868
-92.3358
-65.5364
-37.5807
-8.61274
21.1893
51.6028
82.3711
113.199
143.756
173.689
202.616
230.145
255.871
279.386
300.296
318.22
332.816
343.791
350.913
354.004
352.999
347.915
338.788
325.772
309.086
289.019
265.918
240.172
212.209
182.472
151.417
119.491
87.1263
54.7234
22.6455
-8.78839
-39.3085
-68.6929
-96.7476
-123.388
-148.514
-172.063
-194.009
-214.354
-233.117
-250.335
-266.057
-280.337
-293.24
-304.835
-315.194
-324.391
-332.491
-339.545
-345.594
-350.663
-354.761
-357.887
-360.024
-361.159
-361.264
-360.31
-358.263
-355.091
-350.761
-345.237
-338.487
-330.471
-321.152
-310.488
-298.429
-284.924
-269.918
-253.358
-235.194
-215.387
-193.911
-170.762
-145.951
-119.471
-91.541
-62.216
-31.6341
0.0296695
32.5693
65.738
99.2467
132.764
165.912
198.284
229.446
258.954
286.377
311.298
333.311
352.066
367.214
378.485
385.678
388.678
387.566
382.468
373.424
360.605
344.368
325.12
303.248
279.214
253.426
226.322
198.329
169.77
140.976
112.255
83.7833
55.8008
28.3818
1.54948
-24.9049
-50.8796
-67.1894
-87.4768
-106.711
-125.054
-142.271
-158.252
-172.924
-186.279
-198.321
-209.081
-218.603
-226.925
-234.087
-240.115
-245.021
-248.797
-251.406
-252.786
-252.858
-251.33
-248.244
-243.433
-236.764
-228.085
-217.274
-204.267
-188.999
-171.426
-151.555
-129.441
-105.13
-78.7479
-50.4013
-20.1069
11.5739
44.5218
78.4929
113.152
148.162
183.205
217.898
251.892
284.799
316.255
345.965
373.595
398.806
421.321
440.863
457.187
470.086
479.393
484.993
486.816
484.522
478.264
468.129
454.228
436.751
415.906
391.963
365.311
336.41
-338.638
-336.027
-332.168
-327.046
-320.636
-312.891
-303.767
-293.202
-281.151
-267.573
-252.409
-235.61
-217.148
-197.003
-175.161
-151.634
-126.459
-99.7045
-72.4746
-43.0086
-12.4053
19.0723
51.1871
83.7021
116.298
148.66
180.414
211.141
240.462
267.941
293.13
315.665
335.196
351.408
364.048
372.908
377.845
378.781
375.71
368.698
357.81
343.234
325.187
303.935
279.827
253.209
224.446
193.97
162.2
129.53
96.3845
63.1512
30.1822
-2.20162
-33.7253
-64.1502
-92.8575
-120.573
-146.712
-171.228
-194.086
-215.279
-234.814
-252.718
-269.03
-283.791
-297.046
-308.839
-319.21
-328.2
-335.843
-342.177
-347.238
-351.057
-353.671
-355.117
-355.371
-354.231
-351.751
-347.948
-342.82
-336.341
-328.484
-319.211
-308.49
-296.285
-282.552
-267.264
-250.393
-231.942
-211.925
-190.374
-167.317
-142.807
-116.916
-89.7827
-61.3637
-31.9088
-1.63877
29.2076
60.3666
91.549
122.448
152.741
182.088
210.139
236.536
260.92
282.94
302.263
318.582
331.625
341.159
347
349.002
347.112
341.338
331.701
318.316
301.365
281.086
257.774
231.774
203.469
173.273
141.621
108.957
75.7295
42.3674
9.2805
-23.1597
-54.6232
-84.824
-113.553
-140.65
-165.995
-189.517
-211.192
-231.024
-249.048
-265.317
-279.896
-292.863
-304.296
-314.275
-322.88
-330.186
-336.269
-341.195
-345.019
-347.801
-349.586
-350.405
-350.278
-349.216
-347.222
-344.295
-340.424
-335.592
-329.771
-322.924
-315.009
-305.977
-295.77
-284.332
-271.6
-257.514
-242.019
-225.08
-206.672
-186.788
-165.444
-142.583
-118.389
-92.841
-66.0158
-38.0231
-9.0059
20.859
51.3495
82.2083
113.14
143.814
173.873
202.935
230.604
256.473
280.13
301.173
319.219
333.918
344.975
352.15
355.269
354.263
349.141
339.951
326.846
310.05
289.854
266.611
240.717
212.603
182.717
151.518
119.459
86.9732
54.4645
22.2972
-9.20904
-39.7857
-69.212
-97.2871
-123.945
-149.077
-172.623
-194.559
-214.889
-233.633
-250.83
-266.528
-280.785
-293.662
-305.232
-315.566
-324.742
-332.824
-339.865
-345.906
-350.97
-355.068
-358.196
-360.34
-361.483
-361.598
-360.654
-358.618
-355.458
-351.139
-345.628
-338.891
-330.889
-321.586
-310.94
-298.901
-285.416
-270.431
-253.891
-235.746
-215.955
-194.489
-171.344
-146.534
-120.027
-92.0768
-62.718
-32.0906
-0.369853
32.2402
65.4937
99.1022
132.734
166.012
198.526
229.84
259.507
287.089
312.167
334.327
353.216
368.477
379.84
387.098
390.137
389.035
383.893
374.778
361.877
345.534
326.16
304.146
279.962
254.024
226.772
198.641
169.954
141.046
112.224
83.6652
55.6063
28.1183
1.21119
-25.359
-51.5678
-67.2241
-87.7993
-107.151
-125.533
-142.763
-158.74
-173.4
-186.737
-198.759
-209.498
-219
-227.306
-234.456
-240.479
-245.388
-249.173
-251.798
-253.204
-253.318
-251.823
-248.782
-244.016
-237.393
-228.756
-217.98
-205.002
-189.756
-172.195
-152.328
-130.21
-105.889
-79.4875
-51.1102
-20.7419
10.9962
44.0148
78.0702
112.824
147.938
183.093
217.904
252.019
285.048
316.627
346.458
374.21
399.538
422.161
441.801
458.208
471.176
480.533
486.164
487.998
485.7
479.413
469.235
455.273
437.715
416.773
392.718
365.942
336.912
-339.08
-336.474
-332.624
-327.516
-321.122
-313.397
-304.297
-293.756
-281.73
-268.179
-253.041
-236.265
-217.825
-197.698
-175.87
-152.352
-127.183
-100.453
-73.038
-43.57
-12.9225
18.6199
50.8172
83.4312
116.141
148.635
180.537
211.424
240.913
268.562
293.914
316.601
336.267
352.593
365.325
374.248
379.22
380.164
377.07
370.005
359.041
344.364
326.194
304.801
280.542
253.765
224.838
194.2
162.274
129.455
96.1743
62.8201
29.7457
-2.72427
-34.3206
-64.8214
-93.4975
-121.262
-147.413
-171.928
-194.775
-215.95
-235.463
-253.342
-269.627
-284.362
-297.592
-309.363
-319.713
-328.685
-336.311
-342.63
-347.677
-351.487
-354.096
-355.533
-355.749
-354.601
-352.121
-348.322
-343.2
-336.731
-328.887
-319.631
-308.93
-296.749
-283.044
-267.786
-250.946
-232.523
-212.53
-190.997
-167.952
-143.445
-117.544
-90.406
-61.9469
-32.4373
-2.09768
28.834
60.0933
91.39
122.416
152.846
182.339
210.541
237.09
261.623
283.787
303.242
319.679
332.82
342.43
348.322
350.351
348.459
342.65
332.95
319.479
302.415
282.004
258.544
232.384
203.913
173.549
141.732
108.909
75.5328
42.0368
8.83242
-23.7066
-55.249
-85.5057
-114.275
-141.394
-166.744
-190.26
-211.917
-231.724
-249.718
-265.953
-280.497
-293.429
-304.827
-314.774
-323.348
-330.626
-336.683
-341.586
-345.391
-348.158
-349.932
-350.744
-350.614
-349.552
-347.56
-344.639
-340.777
-335.956
-330.15
-323.322
-315.427
-306.418
-296.236
-284.823
-272.118
-258.055
-242.581
-225.658
-207.261
-187.385
-166.05
-143.174
-118.976
-93.411
-66.557
-38.523
-9.45016
20.4854
51.0621
82.023
113.072
143.876
174.078
203.293
231.12
257.15
280.966
302.161
320.344
335.161
346.309
353.546
356.696
355.687
350.523
341.262
328.057
311.135
290.794
267.392
241.33
213.045
182.99
151.63
119.421
86.7986
54.1706
21.9026
-9.68497
-40.3249
-69.7986
-97.8955
-124.574
-149.712
-173.254
-195.18
-215.492
-234.215
-251.387
-267.059
-281.288
-294.137
-305.678
-315.985
-325.136
-333.198
-340.225
-346.256
-351.316
-355.413
-358.546
-360.695
-361.847