/*--------------------------------*- C++ -*----------------------------------*\
| =========                 |                                                 |
| \\      /  F ield         | OpenFOAM: The Open Source CFD Toolbox           |
|  \\    /   O peration     | Version:  3.0.1                                 |
|   \\  /    A nd           | Web:      www.OpenFOAM.org                      |
|    \\/     M anipulation  |                                                 |
\*---------------------------------------------------------------------------*/
FoamFile
{
    version     2.0;
    format      ascii;
    class       volScalarField;
    location    "21.2";
    object      p_rgh;
}
// * * * * * * * * * * * * * * * * * * * * * * * * * * * * * * * * * * * * * //

dimensions      [1 -1 -2 0 0 0 0];

internalField   nonuniform List<scalar> 
21420
(
-72.5415
-43.6609
-13.1023
18.8604
43.1725
77.0968
111.434
145.544
179.119
211.859
243.363
273.23
301.089
326.521
349.14
368.587
384.539
396.758
405.056
409.31
409.356
405.282
397.125
385.021
369.139
349.739
327.106
301.563
273.507
243.321
211.413
178.233
144.205
109.764
75.329
41.3978
9.55561
-22.3055
-53.4989
-83.5977
-112.313
-139.461
-164.928
-188.637
-210.55
-230.654
-248.95
-265.458
-280.206
-293.227
-304.56
-314.244
-322.318
-328.808
-333.738
-337.135
-339.029
-339.381
-338.124
-335.264
-330.792
-324.691
-316.933
-307.509
-296.404
-283.586
-269.046
-252.783
-234.796
-215.114
-193.753
-170.764
-146.225
-120.201
-92.7846
-64.1099
-34.3193
-3.61996
27.6255
57.4148
89.2471
121.45
153.555
185.162
215.954
245.562
273.614
299.753
323.604
344.827
363.102
378.118
389.636
397.465
401.439
401.394
397.471
389.551
377.745
362.187
343.059
320.614
295.131
266.94
236.435
204.021
170.14
135.251
99.8155
64.2899
29.1037
-5.34633
-38.73
-70.7544
-101.187
-129.854
-156.636
-181.457
-204.273
-225.08
-243.893
-260.74
-275.667
-288.73
-299.991
-309.51
-317.363
-323.63
-328.376
-331.666
-333.567
-334.121
-333.336
-331.291
-327.971
-323.373
-317.472
-310.229
-301.597
-291.52
-279.934
-266.767
-251.959
-235.463
-217.233
-197.241
-175.477
-151.963
-126.746
-99.9019
-71.5439
-41.8111
-10.8936
20.9939
53.6066
86.6114
119.705
152.547
184.766
215.986
245.824
273.897
299.832
323.266
343.862
361.317
375.365
385.77
392.372
395.039
393.711
388.394
379.21
366.211
349.609
329.643
306.62
280.874
252.766
222.702
191.095
158.358
124.905
91.1325
57.4182
24.1087
-8.49028
-40.1148
-70.5352
-99.5676
-127.068
-152.926
-177.065
-199.437
-220.021
-238.81
-255.814
-271.058
-284.572
-296.394
-306.561
-315.106
-322.067
-327.479
-331.389
-333.797
-334.699
-334.153
-332.178
-328.762
-323.898
-317.584
-309.813
-300.561
-289.804
-277.511
-263.652
-248.198
-231.107
-212.359
-191.941
-169.84
-146.079
-120.692
-93.7331
-65.3091
-35.5565
-4.64637
27.2734
59.8203
92.7715
125.791
158.514
190.546
221.469
250.857
278.278
303.318
325.589
344.732
360.432
372.435
380.556
384.677
384.662
380.662
372.71
360.939
345.573
326.876
305.172
280.8
254.114
225.506
195.372
164.088
132.024
99.5367
66.9519
34.5723
2.66875
-28.5213
-58.7944
-87.9762
-115.925
-142.528
-167.687
-191.318
-213.366
-233.792
-252.541
-269.575
-284.885
-298.46
-310.279
-320.337
-328.65
-335.216
-340.042
-343.065
-344.301
-343.858
-341.696
-337.781
-332.138
-324.78
-315.724
-304.977
-292.586
-278.565
-262.945
-245.757
-227.055
-206.888
-185.296
-162.343
-138.107
-112.655
-86.0783
-58.4671
-29.8629
-0.0678179
29.9085
60.2622
90.8294
121.393
151.718
181.523
210.518
238.386
264.792
289.423
311.952
332.049
349.424
363.794
374.904
382.534
386.495
386.56
382.671
374.779
362.915
347.234
327.943
305.273
279.54
251.131
220.435
187.881
153.966
119.18
84.015
49.0044
14.568
-18.3565
-50.2908
-81.3534
-111.09
-139.19
-165.448
-189.751
-212.053
-232.334
-250.617
-266.939
-281.359
-293.95
-304.785
-313.941
-321.499
-327.532
-332.124
-335.335
-337.216
-337.59
-336.611
-72.6296
-43.7478
-13.1921
18.7676
43.1586
77.0785
111.418
145.538
179.125
211.88
243.401
273.286
301.164
326.615
349.251
368.713
384.679
396.908
405.213
409.47
409.525
405.436
397.276
385.163
369.268
349.854
327.204
301.644
273.57
243.365
211.438
178.24
144.195
109.736
75.2832
41.3365
9.5084
-22.3649
-53.5689
-83.6743
-112.393
-139.543
-165.011
-188.72
-210.631
-230.734
-249.027
-265.532
-280.278
-293.297
-304.627
-314.31
-322.382
-328.87
-333.8
-337.197
-339.09
-339.439
-338.185
-335.326
-330.855
-324.754
-316.998
-307.576
-296.473
-283.656
-269.117
-252.856
-234.869
-215.188
-193.827
-170.837
-146.296
-120.271
-92.8514
-64.1729
-34.3769
-3.66953
27.5877
57.3679
89.213
121.429
153.546
185.166
215.973
245.596
273.664
299.82
323.686
344.925
363.215
378.243
389.772
397.609
401.587
401.551
397.613
389.694
377.881
362.313
343.172
320.712
295.212
267.003
236.479
204.046
170.145
135.237
99.7837
64.2422
29.0422
-5.41925
-38.8119
-70.8428
-101.28
-129.949
-156.732
-181.552
-204.366
-225.171
-243.981
-260.825
-275.749
-288.809
-300.066
-309.581
-317.432
-323.696
-328.439
-331.726
-333.625
-334.176
-333.391
-331.346
-328.026
-323.429
-317.53
-310.289
-301.661
-291.586
-280.003
-266.84
-252.035
-235.542
-217.314
-197.324
-175.561
-152.046
-126.829
-99.9823
-71.6209
-41.8828
-10.9584
20.9374
53.5598
86.5764
119.683
152.539
184.774
216.01
245.866
273.956
299.907
323.358
343.969
361.438
375.497
385.911
392.52
395.196
393.858
388.539
379.349
366.341
349.727
329.746
306.706
280.943
252.816
222.734
191.109
158.355
124.885
91.0988
57.3719
24.0517
-8.55606
-40.1875
-70.6131
-99.6492
-127.151
-153.011
-177.15
-199.521
-220.103
-238.89
-255.892
-271.134
-284.647
-296.466
-306.631
-315.174
-322.134
-327.545
-331.453
-333.86
-334.76
-334.216
-332.24
-328.824
-323.96
-317.648
-309.878
-300.627
-289.873
-277.581
-263.724
-248.272
-231.184
-212.438
-192.022
-169.922
-146.161
-120.773
-93.8126
-65.3854
-35.6278
-4.71008
27.2149
59.7733
92.7369
125.77
158.509
190.559
221.5
250.907
278.347
303.405
325.693
344.852
360.564
372.578
380.706
384.83
384.819
380.809
372.85
361.069
345.691
326.978
305.259
280.869
254.166
225.541
195.39
164.091
132.013
99.5127
66.9167
34.5274
2.61569
-28.581
-58.8594
-88.0451
-115.997
-142.602
-167.762
-191.394
-213.442
-233.868
-252.617
-269.651
-284.959
-298.534
-310.352
-320.409
-328.721
-335.286
-340.108
-343.131
-344.372
-343.93
-341.765
-337.849
-332.206
-324.847
-315.791
-305.045
-292.653
-278.632
-263.011
-245.823
-227.119
-206.952
-185.359
-162.404
-138.167
-112.713
-86.1342
-58.5216
-29.9185
-0.105229
29.8731
60.2325
90.8076
121.381
151.717
181.534
210.543
238.425
264.845
289.491
312.035
332.147
349.535
363.917
375.038
382.676
386.643
386.72
382.818
374.926
363.057
347.367
328.063
305.378
279.628
251.2
220.484
187.909
153.974
119.168
83.9834
48.9549
14.5063
-18.418
-50.3606
-81.4321
-111.175
-139.278
-165.538
-189.841
-212.141
-232.419
-250.699
-267.018
-281.434
-294.021
-304.852
-314.005
-321.559
-327.589
-332.178
-335.387
-337.264
-337.638
-336.658
-72.8055
-43.9211
-13.3715
18.579
43.1337
77.0418
111.388
145.526
179.138
211.923
243.478
273.399
301.314
326.802
349.474
368.967
384.959
397.209
405.527
409.79
409.863
405.745
397.58
385.446
369.527
350.084
327.402
301.806
273.695
243.452
211.488
178.254
144.173
109.68
75.1917
41.2134
9.41449
-22.4838
-53.7087
-83.8275
-112.554
-139.708
-165.177
-188.884
-210.793
-230.892
-249.182
-265.682
-280.422
-293.437
-304.763
-314.441
-322.51
-328.995
-333.922
-337.319
-339.212
-339.555
-338.307
-335.447
-330.978
-324.88
-317.127
-307.708
-296.608
-283.793
-269.257
-252.997
-235.012
-215.331
-193.969
-170.978
-146.435
-120.405
-92.9803
-64.294
-34.4868
-3.76297
27.5177
57.2813
89.1523
121.394
153.536
185.184
216.02
245.673
273.775
299.963
323.863
345.134
363.452
378.506
390.056
397.908
401.894
401.876
397.913
389.992
378.165
362.576
343.41
320.92
295.387
267.141
236.579
204.106
170.166
135.22
99.7317
64.1583
28.9307
-5.55387
-38.9645
-71.0085
-101.454
-130.128
-156.912
-181.731
-204.543
-225.342
-244.147
-260.985
-275.902
-288.956
-300.206
-309.715
-317.559
-323.816
-328.554
-331.836
-333.732
-334.274
-333.493
-331.447
-328.127
-323.532
-317.636
-310.4
-301.777
-291.709
-280.131
-266.974
-252.176
-235.688
-217.465
-197.479
-175.718
-152.203
-126.984
-100.133
-71.7643
-42.0155
-11.0775
20.8351
53.4769
86.5172
119.65
152.535
184.801
216.07
245.959
274.083
300.069
323.552
344.194
361.69
375.772
386.205
392.826
395.519
394.163
388.841
379.638
366.611
349.972
329.962
306.888
281.09
252.926
222.807
191.146
158.358
124.856
91.0411
57.289
23.9474
-8.67803
-40.3233
-70.7594
-99.8027
-127.309
-153.17
-177.31
-199.679
-220.259
-239.042
-256.04
-271.278
-284.786
-296.6
-306.761
-315.301
-322.257
-327.666
-331.572
-333.975
-334.873
-334.331
-332.354
-328.938
-324.075
-317.765
-309.997
-300.749
-289.998
-277.711
-263.858
-248.41
-231.327
-212.584
-192.171
-170.073
-146.313
-120.924
-93.9593
-65.5256
-35.7579
-4.82524
27.1108
59.6919
92.6803
125.742
158.512
190.596
221.574
251.019
278.496
303.591
325.914
345.104
360.842
372.877
381.018
385.144
385.146
381.113
373.141
361.342
345.937
327.194
305.442
281.018
254.28
225.621
195.437
164.107
132
99.4738
66.855
34.4461
2.51793
-28.6922
-58.9812
-88.1752
-116.133
-142.742
-167.905
-191.539
-213.588
-234.014
-252.763
-269.796
-285.103
-298.676
-310.493
-320.549
-328.858
-335.421
-340.238
-343.259
-344.511
-344.069
-341.899
-337.982
-332.338
-324.979
-315.923
-305.176
-292.784
-278.762
-263.141
-245.952
-227.247
-207.078
-185.482
-162.525
-138.284
-112.827
-86.2446
-58.629
-30.0267
-0.180599
29.8032
60.1742
90.765
121.357
151.715
181.556
210.591
238.502
264.952
289.627
312.201
332.342
349.757
364.164
375.306
382.961
386.94
387.037
383.115
375.223
363.342
347.633
328.303
305.589
279.804
251.338
220.583
187.967
153.99
119.144
83.9202
48.8557
14.3826
-18.5409
-50.5
-81.5895
-111.346
-139.456
-165.718
-190.021
-212.318
-232.59
-250.864
-267.175
-281.584
-294.163
-304.986
-314.132
-321.68
-327.704
-332.287
-335.49
-337.361
-337.735
-336.752
-73.0692
-44.1806
-13.6398
18.2872
43.1043
76.9856
111.341
145.507
179.157
211.986
243.592
273.568
301.54
327.084
349.808
369.348
385.38
397.66
405.999
410.27
410.363
406.214
398.036
385.871
369.916
350.429
327.698
302.049
273.882
243.584
211.563
178.275
144.141
109.595
75.0545
41.0278
9.27407
-22.6625
-53.9189
-84.0576
-112.796
-139.956
-165.426
-189.131
-211.037
-231.13
-249.413
-265.906
-280.639
-293.646
-304.965
-314.638
-322.701
-329.182
-334.106
-337.501
-339.392
-339.731
-338.489
-335.629
-331.163
-325.069
-317.321
-307.906
-296.81
-284
-269.467
-253.21
-235.226
-215.546
-194.183
-171.19
-146.643
-120.607
-93.174
-64.4758
-34.652
-3.9034
27.4121
57.1516
89.0619
121.343
153.523
185.212
216.092
245.791
273.942
300.18
324.13
345.448
363.809
378.902
390.484
398.358
402.357
402.359
398.371
390.441
378.593
362.974
343.769
321.234
295.65
267.35
236.731
204.199
170.199
135.197
99.6545
64.0332
28.764
-5.7553
-39.193
-71.2568
-101.716
-130.397
-157.183
-182
-204.806
-225.599
-244.396
-261.225
-276.133
-289.176
-300.415
-309.915
-317.75
-323.997
-328.726
-332.001
-333.891
-334.425
-333.645
-331.597
-328.278
-323.686
-317.796
-310.566
-301.951
-291.892
-280.324
-267.176
-252.388
-235.908
-217.692
-197.711
-175.952
-152.438
-127.215
-100.358
-71.9786
-42.2141
-11.2555
20.6822
53.3536
86.4292
119.601
152.53
184.842
216.161
246.101
274.277
300.313
323.845
344.533
362.07
376.187
386.647
393.286
395.994
394.629
389.299
380.073
367.018
350.341
330.286
307.164
281.312
253.093
222.918
191.203
158.363
124.814
90.9554
57.1653
23.7917
-8.86041
-40.5265
-70.9783
-100.032
-127.545
-153.41
-177.549
-199.917
-220.492
-239.27
-256.261
-271.492
-284.993
-296.802
-306.956
-315.49
-322.442
-327.847
-331.749
-334.145
-335.044
-334.503
-332.525
-329.108
-324.248
-317.94
-310.175
-300.932
-290.186
-277.905
-264.058
-248.616
-231.539
-212.803
-192.395
-170.299
-146.54
-121.149
-94.1783
-65.7351
-35.9522
-4.99771
26.9563
59.571
92.5966
125.7
158.518
190.653
221.686
251.188
278.722
303.873
326.247
345.484
361.261
373.326
381.488
385.62
385.633
381.573
373.581
361.752
346.308
327.52
305.719
281.243
254.452
225.741
195.507
164.131
131.981
99.4162
66.7633
34.3248
2.37193
-28.8585
-59.1636
-88.3698
-116.336
-142.951
-168.119
-191.756
-213.806
-234.232
-252.981
-270.014
-285.319
-298.889
-310.705
-320.758
-329.064
-335.623
-340.434
-343.455
-344.72
-344.274
-342.1
-338.181
-332.537
-325.178
-316.121
-305.374
-292.981
-278.958
-263.336
-246.145
-227.438
-207.266
-185.667
-162.706
-138.461
-112.999
-86.4103
-58.7902
-30.1876
-0.295085
29.6977
60.0862
90.7009
121.322
151.711
181.59
210.664
238.617
265.111
289.831
312.45
332.634
350.09
364.534
375.708
383.389
387.385
387.507
383.566
375.668
363.769
348.032
328.664
305.905
280.067
251.545
220.73
188.053
154.015
119.108
83.8251
48.7063
14.1958
-18.7246
-50.7091
-81.826
-111.602
-139.723
-165.989
-190.291
-212.582
-232.847
-251.111
-267.411
-281.808
-294.376
-305.188
-314.322
-321.86
-327.876
-332.45
-335.644
-337.509
-337.88
-336.892
-73.4204
-44.5258
-13.996
17.8961
43.0651
76.9087
111.277
145.481
179.182
212.071
243.744
273.793
301.84
327.459
350.253
369.857
385.941
398.261
406.628
410.91
411.02
406.849
398.644
386.438
370.434
350.89
328.093
302.373
274.132
243.758
211.663
178.302
144.098
109.483
74.8716
40.7791
9.08745
-22.9015
-54.2
-84.365
-113.119
-140.286
-165.758
-189.461
-211.361
-231.447
-249.721
-266.205
-280.928
-293.926
-305.236
-314.9
-322.956
-329.432
-334.352
-337.744
-339.632
-339.968
-338.732
-335.872
-331.409
-325.321
-317.578
-308.17
-297.08
-284.275
-269.747
-253.493
-235.512
-215.832
-194.469
-171.473
-146.921
-120.877
-93.4325
-64.7187
-34.8726
-4.09143
27.2697
56.9788
88.9415
121.275
153.505
185.248
216.188
245.948
274.165
300.469
324.485
345.868
364.286
379.43
391.055
398.959
402.975
402.995
398.989
391.042
379.164
363.505
344.247
321.653
296.002
267.629
236.933
204.322
170.243
135.164
99.5512
63.8657
28.5411
-6.02451
-39.4982
-71.5883
-102.065
-130.755
-157.543
-182.358
-205.158
-225.942
-244.728
-261.545
-276.44
-289.47
-300.695
-310.182
-318.004
-324.239
-328.956
-332.221
-334.101
-334.627
-333.847
-331.797
-328.48
-323.892
-318.008
-310.788
-302.184
-292.136
-280.58
-267.446
-252.67
-236.2
-217.994
-198.02
-176.265
-152.752
-127.525
-100.658
-72.2647
-42.4792
-11.4933
20.4779
53.1891
86.3117
119.536
152.522
184.897
216.281
246.29
274.534
300.638
324.237
344.985
362.577
376.74
387.237
393.901
396.618
395.258
389.913
380.656
367.562
350.834
330.72
307.531
281.608
253.315
223.066
191.279
158.37
124.756
90.8405
57
23.5835
-9.10406
-40.798
-71.2707
-100.339
-127.861
-153.729
-177.869
-200.233
-220.803
-239.573
-256.557
-271.779
-285.271
-297.07
-307.215
-315.743
-322.688
-328.088
-331.984
-334.372
-335.275
-334.732
-332.752
-329.336
-324.477
-318.173
-310.412
-301.175
-290.437
-278.163
-264.324
-248.891
-231.822
-213.095
-192.693
-170.6
-146.843
-121.45
-94.4708
-66.0147
-36.2118
-5.22947
26.7515
59.4095
92.4846
125.645
158.526
190.73
221.836
251.413
279.024
304.248
326.692
345.991
361.82
373.926
382.115
386.256
386.277
382.193
374.169
362.299
346.802
327.954
306.088
281.542
254.681
225.902
195.602
164.163
131.956
99.339
66.6406
34.1626
2.17691
-29.0805
-59.4069
-88.6296
-116.608
-143.231
-168.404
-192.046
-214.098
-234.523
-253.272
-270.305
-285.607
-299.174
-310.986
-321.037
-329.339
-335.894
-340.698
-343.72
-344.995
-344.546
-342.368
-338.447
-332.802
-325.442
-316.384
-305.638
-293.244
-279.22
-263.597
-246.403
-227.692
-207.518
-185.914
-162.948
-138.697
-113.228
-86.6313
-59.0048
-30.4003
-0.449862
29.5563
59.9683
90.6149
121.274
151.707
181.634
210.761
238.77
265.323
290.103
312.782
333.024
350.534
365.027
376.244
383.959
387.98
388.127
384.175
376.263
364.34
348.564
329.146
306.326
280.419
251.821
220.926
188.167
154.048
119.06
83.698
48.5059
13.9448
-18.9684
-50.9875
-82.142
-111.944
-140.079
-166.351
-190.651
-212.936
-233.19
-251.44
-267.726
-282.107
-294.659
-305.456
-314.576
-322.101
-328.104
-332.667
-335.848
-337.708
-338.072
-337.08
-73.8586
-44.956
-14.4382
17.4111
43.0095
76.8088
111.196
145.448
179.211
212.176
243.934
274.075
302.216
327.928
350.81
370.493
386.643
399.014
407.416
411.714
411.831
407.65
399.405
387.148
371.082
351.465
328.587
302.778
274.444
243.976
211.788
178.336
144.044
109.342
74.6429
40.4661
8.85499
-23.2014
-54.5525
-84.7501
-113.523
-140.699
-166.173
-189.874
-211.767
-231.844
-250.107
-266.578
-281.29
-294.275
-305.574
-315.228
-323.275
-329.744
-334.658
-338.047
-339.93
-340.266
-339.034
-336.176
-331.717
-325.635
-317.901
-308.5
-297.418
-284.62
-270.097
-253.848
-235.869
-216.191
-194.826
-171.827
-147.268
-121.215
-93.756
-65.0229
-35.1493
-4.32767
27.0904
56.7624
88.7913
121.189
153.482
185.293
216.306
246.143
274.443
300.829
324.929
346.392
364.882
380.091
391.769
399.711
403.749
403.784
399.767
391.794
379.879
364.168
344.846
322.177
296.441
267.977
237.185
204.475
170.298
135.123
99.4211
63.6554
28.2613
-6.36207
-39.8809
-72.0038
-102.502
-131.204
-157.995
-182.806
-205.599
-226.372
-245.143
-261.945
-276.825
-289.838
-301.045
-310.515
-318.322
-324.54
-329.243
-332.496
-334.363
-334.88
-334.099
-332.047
-328.732
-324.149
-318.274
-311.065
-302.474
-292.442
-280.901
-267.782
-253.022
-236.567
-218.372
-198.407
-176.657
-153.144
-127.912
-101.034
-72.6228
-42.8115
-11.7915
20.2216
52.9828
86.1642
119.455
152.513
184.965
216.432
246.525
274.856
301.045
324.726
345.551
363.211
377.432
387.974
394.669
397.397
396.044
390.682
381.385
368.241
351.451
331.262
307.99
281.977
253.592
223.251
191.373
158.377
124.684
90.6962
56.7924
23.3223
-9.40942
-41.1381
-71.6368
-100.723
-128.256
-154.129
-178.269
-200.629
-221.191
-239.953
-256.926
-272.137
-285.617
-297.405
-307.54
-316.058
-322.996
-328.39
-332.276
-334.659
-335.562
-335.018
-333.036
-329.62
-324.764
-318.465
-310.709
-301.479
-290.75
-278.486
-264.657
-249.235
-232.177
-213.459
-193.065
-170.978
-147.223
-121.825
-94.8372
-66.365
-36.5375
-5.52145
26.4961
59.2071
92.3438
125.574
158.534
190.825
222.023
251.695
279.4
304.718
327.249
346.624
362.519
374.676
382.899
387.053
387.075
382.972
374.906
362.984
347.421
328.498
306.549
281.916
254.968
226.102
195.719
164.202
131.923
99.2418
66.4863
33.9593
1.93246
-29.3586
-59.7117
-88.9547
-116.948
-143.581
-168.761
-192.408
-214.463
-234.887
-253.636
-270.668
-285.967
-299.529
-311.338
-321.385
-329.682
-336.232
-341.029
-344.054
-345.336
-344.883
-342.702
-338.779
-333.134
-325.773
-316.714
-305.968
-293.572
-279.546
-263.922
-246.726
-228.011
-207.832
-186.223
-163.25
-138.992
-113.515
-86.9075
-59.2727
-30.6647
-0.645215
29.3785
59.8201
90.5067
121.213
151.701
181.689
210.882
238.962
265.588
290.443
313.197
333.511
351.09
365.645
376.915
384.673
388.724
388.894
384.945
377.01
365.055
349.23
329.749
306.853
280.859
252.167
221.171
188.31
154.088
118.999
83.5385
48.2535
13.6275
-19.2711
-51.3354
-82.5378
-112.372
-140.526
-166.804
-191.102
-213.378
-233.618
-251.852
-268.12
-282.481
-295.014
-305.791
-314.894
-322.401
-328.389
-332.936
-336.104
-337.956
-338.312
-337.314
-74.3836
-45.4701
-14.9641
16.8368
42.9306
76.6833
111.096
145.406
179.246
212.3
244.161
274.411
302.667
328.491
351.478
371.256
387.486
399.919
408.362
412.68
412.802
408.611
400.317
388.001
371.861
352.157
329.18
303.264
274.819
244.237
211.937
178.376
143.979
109.173
74.3682
40.0873
8.57711
-23.563
-54.9774
-85.2137
-114.008
-141.196
-166.673
-190.369
-212.255
-232.32
-250.57
-267.027
-281.723
-294.694
-305.98
-315.621
-323.657
-330.118
-335.026
-338.41
-340.287
-340.626
-339.397
-336.54
-332.087
-326.013
-318.287
-308.896
-297.824
-285.033
-270.517
-254.274
-236.299
-216.621
-195.255
-172.252
-147.685
-121.62
-94.1448
-65.3886
-35.4825
-4.61271
26.8744
56.5014
88.6112
121.086
153.454
185.347
216.448
246.378
274.776
301.261
325.462
347.022
365.598
380.885
392.627
400.614
404.679
404.726
400.705
392.699
380.738
364.965
345.566
322.806
296.969
268.395
237.487
204.658
170.362
135.073
99.2639
63.4016
27.9241
-6.76861
-40.3415
-72.5036
-103.028
-131.743
-158.538
-183.344
-206.128
-226.887
-245.642
-262.426
-277.287
-290.279
-301.466
-310.916
-318.703
-324.902
-329.587
-332.825
-334.678
-335.188
-334.4
-332.347
-329.034
-324.457
-318.592
-311.397
-302.823
-292.809
-281.286
-268.187
-253.446
-237.006
-218.826
-198.872
-177.128
-153.615
-128.377
-101.487
-73.0535
-43.2112
-12.1504
19.9127
52.7346
85.9863
119.355
152.5
185.046
216.611
246.807
275.242
301.533
325.312
346.23
363.972
378.263
388.861
395.593
398.335
396.988
391.604
382.261
369.058
352.191
331.913
308.54
282.42
253.924
223.471
191.485
158.385
124.596
90.5217
56.5422
23.0078
-9.77692
-41.5473
-72.0771
-101.185
-128.73
-154.609
-178.749
-201.105
-221.658
-240.409
-257.369
-272.567
-286.034
-297.808
-307.93
-316.437
-323.365
-328.751
-332.628
-335.005
-335.906
-335.36
-333.377
-329.961
-325.109
-318.815
-311.066
-301.844
-291.125
-278.873
-265.057
-249.648
-232.603
-213.897
-193.512
-171.432
-147.678
-122.277
-95.2777
-66.7862
-36.9297
-5.8739
26.1896
58.9631
92.1738
125.489
158.544
190.938
222.246
252.032
279.852
305.281
327.916
347.386
363.359
375.577
383.84
388.011
388.032
383.909
375.792
363.806
348.164
329.15
307.101
282.365
255.311
226.341
195.859
164.249
131.883
99.1242
66.3003
33.7144
1.63825
-29.6932
-60.0782
-89.3457
-117.357
-144.002
-169.19
-192.843
-214.9
-235.324
-254.073
-271.104
-286.399
-299.956
-311.761
-321.803
-330.094
-336.639
-341.429
-344.456
-345.743
-345.287
-343.103
-339.178
-333.532
-326.17
-317.11
-306.364
-293.967
-279.938
-264.313
-247.114
-228.394
-208.21
-186.594
-163.613
-139.346
-113.858
-87.2388
-59.5938
-30.9818
-0.880554
29.1636
59.6411
90.376
121.14
151.694
181.754
211.027
239.191
265.906
290.851
313.694
334.096
351.757
366.386
377.72
385.531
389.619
389.811
385.87
377.908
365.914
350.03
330.473
307.485
281.387
252.581
221.466
188.481
154.136
118.926
83.3462
47.9481
13.2408
-19.6307
-51.7524
-83.0142
-112.888
-141.062
-167.348
-191.643
-213.908
-234.133
-252.347
-268.592
-282.93
-295.439
-306.194
-315.274
-322.762
-328.731
-333.26
-336.412
-338.252
-338.599
-337.594
-74.9948
-46.0673
-15.5707
16.1774
42.8221
76.5292
110.974
145.354
179.284
212.444
244.424
274.803
303.192
329.148
352.259
372.148
388.471
400.975
409.468
413.811
413.937
409.729
401.382
388.997
372.77
352.964
329.873
303.831
275.255
244.542
212.11
178.422
143.902
108.976
74.0476
39.6408
8.25436
-23.9875
-55.4755
-85.7564
-114.577
-141.776
-167.256
-190.948
-212.824
-232.876
-251.11
-267.55
-282.229
-295.183
-306.453
-316.08
-324.103
-330.554
-335.455
-338.833
-340.704
-341.045
-339.818
-336.965
-332.518
-326.453
-318.738
-309.359
-298.297
-285.515
-271.008
-254.772
-236.8
-217.124
-195.756
-172.748
-148.172
-122.094
-94.5992
-65.8165
-35.8729
-4.94739
26.6225
56.1947
88.4013
120.965
153.421
185.409
216.612
246.65
275.163
301.765
326.084
347.756
366.434
381.812
393.628
401.669
405.766
405.825
401.801
393.757
381.741
365.895
346.406
323.54
297.584
268.882
237.839
204.871
170.436
135.014
99.0788
63.1038
27.5288
-7.24487
-40.8807
-73.0884
-103.642
-132.374
-159.172
-183.974
-206.746
-227.488
-246.224
-262.988
-277.826
-290.794
-301.956
-311.384
-319.148
-325.324
-329.989
-333.209
-335.045
-335.547
-334.752
-332.696
-329.387
-324.817
-318.963
-311.784
-303.23
-293.236
-281.735
-268.659
-253.94
-237.52
-219.356
-199.415
-177.678
-154.166
-128.922
-102.015
-73.5571
-43.6788
-12.5708
19.5509
52.4438
85.7774
119.239
152.485
185.139
216.82
247.135
275.691
302.102
325.996
347.023
364.861
379.234
389.896
396.671
399.432
398.089
392.68
383.285
370.011
353.056
332.672
309.183
282.937
254.31
223.728
191.614
158.394
124.492
90.3166
56.2488
22.6393
-10.2071
-42.026
-72.592
-101.725
-129.285
-155.17
-179.31
-201.661
-222.204
-240.941
-257.887
-273.068
-286.519
-298.278
-308.385
-316.879
-323.796
-329.172
-333.039
-335.409
-336.308
-335.759
-333.775
-330.36
-325.511
-319.223
-311.482
-302.27
-291.563
-279.326
-265.524
-250.129
-233.1
-214.409
-194.035
-171.962
-148.211
-122.805
-95.7927
-67.279
-37.3889
-6.28722
25.8312
58.6771
91.9741
125.388
158.554
191.068
222.505
252.424
280.379
305.938
328.696
348.275
364.341
376.63
384.94
389.133
389.149
385.001
376.827
364.766
349.031
329.911
307.746
282.888
255.71
226.62
196.021
164.302
131.836
98.9858
66.0819
33.4275
1.29386
-30.0845
-60.5066
-89.8026
-117.835
-144.494
-169.69
-193.351
-215.412
-235.835
-254.583
-271.612
-286.903
-300.454
-312.254
-322.291
-330.576
-337.115
-341.898
-344.926
-346.216
-345.758
-343.57
-339.643
-333.996
-326.634
-317.572
-306.826
-294.427
-280.396
-264.769
-247.566
-228.841
-208.65
-187.027
-164.037
-139.759
-114.257
-87.6254
-59.9679
-31.3529
-1.15528
28.9111
59.4307
90.2222
121.053
151.684
181.829
211.194
239.458
266.276
291.326
314.275
334.779
352.535
367.251
378.661
386.533
390.665
390.884
386.949
378.957
366.917
350.964
331.319
308.225
282.003
253.064
221.809
188.68
154.192
118.84
83.1207
47.5881
12.7805
-20.0443
-52.2387
-83.572
-113.492
-141.69
-167.985
-192.276
-214.528
-234.734
-252.924
-269.143
-283.454
-295.935
-306.663
-315.718
-323.182
-329.13
-333.638
-336.771
-338.596
-338.934
-337.921
-75.6919
-46.7466
-16.2549
15.4362
42.6775
76.343
110.831
145.292
179.326
212.607
244.723
275.25
303.792
329.899
353.152
373.168
389.598
402.184
410.734
415.105
415.236
411.006
402.601
390.136
373.81
353.888
330.665
304.478
275.753
244.888
212.307
178.474
143.813
108.751
73.6813
39.1245
7.88731
-24.4762
-56.048
-86.379
-115.228
-142.441
-167.923
-191.61
-213.475
-233.512
-251.728
-268.149
-282.807
-295.742
-306.994
-316.604
-324.613
-331.052
-335.945
-339.316
-341.181
-341.524
-340.3
-337.45
-333.01
-326.956
-319.253
-309.887
-298.838
-286.067
-271.569
-255.341
-237.373
-217.698
-196.33
-173.315
-148.729
-122.636
-95.1195
-66.3068
-36.3212
-5.33273
26.3349
55.8411
88.1618
120.827
153.381
185.478
216.799
246.961
275.606
302.341
326.794
348.596
367.39
382.872
394.774
402.877
407.011
407.083
403.052
394.967
382.889
366.959
347.366
324.379
298.289
269.439
238.24
205.113
170.52
134.944
98.8652
62.7609
27.0745
-7.79166
-41.4992
-73.7589
-104.347
-133.096
-159.898
-184.694
-207.452
-228.176
-246.89
-263.629
-278.441
-291.383
-302.518
-311.918
-319.656
-325.807
-330.448
-333.647
-335.466
-335.956
-335.153
-333.095
-329.789
-325.227
-319.387
-312.226
-303.694
-293.725
-282.249
-269.199
-254.505
-238.107
-219.963
-200.036
-178.307
-154.796
-129.545
-102.621
-74.134
-44.2149
-13.053
19.1356
52.1101
85.5372
119.103
152.465
185.245
217.058
247.51
276.204
302.752
326.779
347.929
365.878
380.345
391.081
397.906
400.69
399.349
393.911
384.457
371.102
354.045
333.541
309.917
283.528
254.752
224.02
191.761
158.401
124.372
90.0804
55.9115
22.2163
-10.7006
-42.5748
-73.182
-102.343
-129.92
-155.812
-179.952
-202.296
-222.828
-241.55
-258.479
-273.642
-287.074
-298.815
-308.905
-317.384
-324.288
-329.653
-333.509
-335.871
-336.766
-336.214
-334.229
-330.815
-325.97
-319.689
-311.957
-302.757
-292.064
-279.842
-266.058
-250.68
-233.669
-214.994
-194.632
-172.569
-148.821
-123.41
-96.3828
-67.8437
-37.9156
-6.76203
25.4202
58.3485
91.7439
125.271
158.563
191.216
222.8
252.872
280.981
306.689
329.587
349.291
365.464
377.836
386.2
390.417
390.429
386.251
378.012
365.864
350.023
330.781
308.484
283.485
256.166
226.937
196.205
164.361
131.78
98.826
65.8308
33.0979
0.898739
-30.5331
-60.9974
-90.3259
-118.381
-145.056
-170.263
-193.931
-215.997
-236.419
-255.166
-272.193
-287.48
-301.024
-312.817
-322.848
-331.126
-337.659
-342.436
-345.463
-346.756
-346.294
-344.104
-340.175
-334.526
-327.163
-318.099
-307.354
-294.953
-280.919
-265.29
-248.084
-229.352
-209.153
-187.522
-164.522
-140.232
-114.715
-88.0671
-60.3948
-31.779
-1.46888
28.62
59.1884
90.0449
120.953
151.671
181.914
211.385
239.762
266.699
291.869
314.938
335.559
353.424
368.24
379.737
387.679
391.862
392.113
388.181
380.159
368.066
352.033
332.287
309.07
282.708
253.617
222.2
188.907
154.254
118.741
82.8617
47.1723
12.2406
-20.5074
-52.7944
-84.2123
-114.184
-142.409
-168.713
-193
-215.238
-235.421
-253.584
-269.773
-284.053
-296.502
-307.2
-316.226
-323.662
-329.585
-334.07
-337.182
-338.989
-339.315
-338.294
-76.4742
-47.5071
-17.0142
14.6186
42.4901
76.1211
110.663
145.219
179.369
212.787
245.058
275.751
304.467
330.744
354.157
374.318
390.867
403.547
412.16
416.565
416.7
412.442
403.973
391.42
374.982
354.928
331.556
305.206
276.313
245.277
212.527
178.531
143.713
108.499
73.2698
38.5363
7.47638
-25.0309
-56.6963
-87.0826
-115.962
-143.19
-168.675
-192.356
-214.207
-234.227
-252.423
-268.822
-283.458
-296.371
-307.602
-317.194
-325.187
-331.612
-336.495
-339.858
-341.717
-342.063
-340.841
-337.996
-333.564
-327.522
-319.833
-310.482
-299.447
-286.688
-272.201
-255.981
-238.018
-218.346
-196.975
-173.954
-149.357
-123.246
-95.7059
-66.8601
-36.8281
-5.77014
26.0118
55.4395
87.8927
120.67
153.336
185.556
217.006
247.308
276.102
302.988
327.593
349.54
368.467
384.067
396.065
404.237
408.415
408.502
404.461
396.331
384.183
368.158
348.448
325.325
299.081
270.065
238.692
205.385
170.612
134.863
98.6224
62.372
26.5604
-8.40986
-42.1982
-74.5161
-105.141
-133.91
-160.717
-185.505
-208.248
-228.951
-247.639
-264.351
-279.134
-292.046
-303.149
-312.518
-320.227
-326.35
-330.964
-334.139
-335.938
-336.416
-335.603
-333.543
-330.241
-325.688
-319.863
-312.724
-304.217
-294.275
-282.828
-269.806
-255.141
-238.769
-220.646
-200.736
-179.017
-155.507
-130.247
-103.304
-74.7848
-44.82
-13.5979
18.666
51.7326
85.2649
118.949
152.442
185.362
217.324
247.93
276.781
303.483
327.659
348.949
367.024
381.596
392.417
399.297
402.108
400.768
395.297
385.777
372.332
355.159
334.519
310.743
284.192
255.248
224.347
191.924
158.408
124.234
89.8123
55.5295
21.738
-11.2582
-43.1944
-73.8476
-103.041
-130.636
-156.536
-180.675
-203.012
-223.53
-242.235
-259.145
-274.287
-287.699
-299.419
-309.49
-317.952
-324.842
-330.194
-334.037
-336.391
-337.281
-336.726
-334.739
-331.327
-326.487
-320.213
-312.491
-303.304
-292.627
-280.423
-266.658
-251.3
-234.309
-215.652
-195.305
-173.253
-149.508
-124.091
-97.0483
-68.481
-38.5104
-7.2989
24.9555
57.9768
91.4824
125.137
158.571
191.381
223.13
253.374
281.657
307.535
330.591
350.437
366.73
379.194
387.62
391.865
391.872