/*--------------------------------*- C++ -*----------------------------------*\
| =========                 |                                                 |
| \\      /  F ield         | OpenFOAM: The Open Source CFD Toolbox           |
|  \\    /   O peration     | Version:  3.0.1                                 |
|   \\  /    A nd           | Web:      www.OpenFOAM.org                      |
|    \\/     M anipulation  |                                                 |
\*---------------------------------------------------------------------------*/
FoamFile
{
    version     2.0;
    format      ascii;
    class       surfaceScalarField;
    location    "15.8";
    object      phi;
}
// * * * * * * * * * * * * * * * * * * * * * * * * * * * * * * * * * * * * * //

dimensions      [0 3 -1 0 0 0 0];

internalField   nonuniform List<scalar> 
42423
(
-0.000175325
3.56468e-06
-0.000178058
2.73367e-06
-0.000180089
2.03051e-06
-0.000181432
1.34345e-06
-0.000182135
7.02566e-07
-0.000182185
5.0044e-08
-0.000181524
-6.61316e-07
-0.000180204
-1.31937e-06
-0.000178204
-2.00026e-06
-0.000175383
-2.82101e-06
-0.000171926
-3.45737e-06
-0.000167733
-4.19296e-06
-0.000162559
-5.17354e-06
-0.000156626
-5.93384e-06
-0.000149682
-6.94309e-06
-0.000141888
-7.79444e-06
-0.000133298
-8.59027e-06
-0.000123618
-9.68019e-06
-0.000112938
-1.06801e-05
-0.000101381
-1.15568e-05
-8.86705e-05
-1.27103e-05
-7.50152e-05
-1.36554e-05
-6.0529e-05
-1.44862e-05
-4.49875e-05
-1.55416e-05
-2.8637e-05
-1.63506e-05
-1.14966e-05
-1.71405e-05
6.38475e-06
-1.78814e-05
2.46439e-05
-1.82592e-05
4.33434e-05
-1.86996e-05
6.2309e-05
-1.89657e-05
8.11345e-05
-1.88256e-05
9.97572e-05
-1.86227e-05
0.000117906
-1.81489e-05
0.000135339
-1.74331e-05
0.000151807
-1.64681e-05
0.000166886
-1.50789e-05
0.000180442
-1.35558e-05
0.000192272
-1.18308e-05
0.000202083
-9.81127e-06
0.000209778
-7.69439e-06
0.000215106
-5.32803e-06
0.000218113
-3.0068e-06
0.000218691
-5.78181e-07
0.000216727
1.96344e-06
0.000212321
4.40626e-06
0.000205612
6.70845e-06
0.000196552
9.06011e-06
0.000185559
1.09936e-05
0.000172777
1.27815e-05
0.000158297
1.448e-05
0.000142457
1.58398e-05
0.000125498
1.69588e-05
0.000107635
1.78633e-05
8.92721e-05
1.83628e-05
7.05563e-05
1.87157e-05
5.17475e-05
1.88089e-05
3.30307e-05
1.87167e-05
1.46399e-05
1.83908e-05
-3.26069e-06
1.79006e-05
-2.05255e-05
1.72648e-05
-3.70228e-05
1.64973e-05
-5.26858e-05
1.56629e-05
-6.74187e-05
1.47329e-05
-8.11966e-05
1.37779e-05
-9.39989e-05
1.28023e-05
-0.000105771
1.17719e-05
-0.000116547
1.07763e-05
-0.000126358
9.81062e-06
-0.0001352
8.84247e-06
-0.000143187
7.98657e-06
-0.000150173
6.98607e-06
-0.000156338
6.16519e-06
-0.000161706
5.36774e-06
-0.000166206
4.50019e-06
-0.00016972
3.51373e-06
-0.000172653
2.93334e-06
-0.000174717
2.06399e-06
-0.000176345
1.62753e-06
-0.000177138
7.93273e-07
-0.000177126
-1.14896e-08
-0.000176752
-3.74137e-07
-0.000175712
-1.04017e-06
-0.00017385
-1.86262e-06
-0.000171298
-2.55151e-06
-0.000168061
-3.23732e-06
-0.000164012
-4.04911e-06
-0.00015923
-4.78165e-06
-0.000153481
-5.74866e-06
-0.000146708
-6.77388e-06
-0.000138947
-7.76082e-06
-0.000130241
-8.7061e-06
-0.000120493
-9.74774e-06
-0.000109954
-1.05387e-05
-9.82017e-05
-1.17526e-05
-8.5631e-05
-1.25707e-05
-7.21063e-05
-1.35249e-05
-5.74424e-05
-1.46639e-05
-4.20154e-05
-1.54271e-05
-2.59703e-05
-1.60452e-05
-9.2028e-06
-1.67676e-05
8.06186e-06
-1.72648e-05
2.55969e-05
-1.75351e-05
4.35225e-05
-1.79257e-05
6.18016e-05
-1.82792e-05
7.9921e-05
-1.81195e-05
9.77508e-05
-1.78299e-05
0.000115154
-1.74036e-05
0.000131924
-1.67698e-05
0.000147649
-1.57256e-05
0.000162231
-1.45815e-05
0.000175413
-1.31824e-05
0.000187018
-1.16056e-05
0.000196766
-9.74751e-06
0.000204451
-7.68501e-06
0.000209914
-5.46373e-06
0.00021316
-3.24597e-06
0.000213973
-8.12985e-07
0.000212555
1.41865e-06
0.00020874
3.81425e-06
0.000202606
6.13448e-06
0.000194351
8.25458e-06
0.000184129
1.02225e-05
0.000172119
1.20092e-05
0.00015849
1.36293e-05
0.000143475
1.50151e-05
0.000127241
1.62336e-05
0.000110189
1.70518e-05
9.25246e-05
1.76647e-05
7.4553e-05
1.79716e-05
5.63968e-05
1.81562e-05
3.8252e-05
1.81447e-05
2.02456e-05
1.80064e-05
2.76127e-06
1.74844e-05
-1.42567e-05
1.70179e-05
-3.06735e-05
1.64168e-05
-4.63789e-05
1.57054e-05
-6.13306e-05
1.49517e-05
-7.55073e-05
1.41767e-05
-8.88493e-05
1.3342e-05
-0.000101382
1.25323e-05
-0.000112988
1.16065e-05
-0.000123758
1.07699e-05
-0.000133655
9.89661e-06
-0.000142622
8.96778e-06
-0.000150669
8.04668e-06
-0.000157871
7.20226e-06
-0.000163987
6.1152e-06
-0.000169155
5.16859e-06
-0.000173546
4.39037e-06
-0.000176921
3.37581e-06
-0.000179619
2.69809e-06
-0.000181262
1.64301e-06
-0.000181933
6.70153e-07
-0.000182016
8.36185e-08
-0.000181174
-8.4204e-07
-0.000179314
-1.86e-06
-0.000176807
-2.50767e-06
-0.000173277
-3.5299e-06
-0.000168938
-4.33879e-06
-0.000164065
-4.8724e-06
-0.000158225
-5.84099e-06
-0.00015179
-6.43411e-06
-0.000144496
-7.29485e-06
-0.000136437
-8.05899e-06
-0.000127718
-8.71907e-06
-0.00011825
-9.46742e-06
-0.000108059
-1.0191e-05
-9.73704e-05
-1.06889e-05
-8.59702e-05
-1.14003e-05
-7.3666e-05
-1.23042e-05
-6.09729e-05
-1.26932e-05
-4.76021e-05
-1.33709e-05
-3.32246e-05
-1.43776e-05
-1.86651e-05
-1.45596e-05
-3.36601e-06
-1.52992e-05
1.25298e-05
-1.58959e-05
2.88329e-05
-1.63031e-05
4.58389e-05
-1.70061e-05
6.31138e-05
-1.7275e-05
8.0437e-05
-1.73233e-05
9.77743e-05
-1.73375e-05
0.000114914
-1.71399e-05
0.000131591
-1.66767e-05
0.00014739
-1.57994e-05
0.000162273
-1.48833e-05
0.000175945
-1.36716e-05
0.000188017
-1.20725e-05
0.000198296
-1.02788e-05
0.000206585
-8.28918e-06
0.000212628
-6.04272e-06
0.000216223
-3.59537e-06
0.000217357
-1.13379e-06
0.000215773
1.58309e-06
0.000211635
4.13807e-06
0.000204902
6.73348e-06
0.000195711
9.19076e-06
0.000184168
1.15425e-05
0.000170632
1.35366e-05
0.000155333
1.52986e-05
0.000138543
1.67896e-05
0.000120523
1.802e-05
0.000101578
1.89455e-05
8.19975e-05
1.95805e-05
6.22123e-05
1.97851e-05
4.25886e-05
1.96237e-05
2.31439e-05
1.94446e-05
4.26065e-06
1.88833e-05
-1.38032e-05
1.80638e-05
-3.10073e-05
1.72041e-05
-4.72389e-05
1.62316e-05
-6.24219e-05
1.5183e-05
-7.6505e-05
1.40831e-05
-8.9487e-05
1.29821e-05
-0.000101336
1.18493e-05
-0.000112156
1.08196e-05
-0.000121949
9.79336e-06
-0.000130622
8.67293e-06
-0.000138337
7.71438e-06
-0.00014522
6.88308e-06
-0.000151201
5.98156e-06
-0.000156599
5.39767e-06
-0.000160979
4.38024e-06
-0.000164776
3.79636e-06
-0.000168151
3.37575e-06
-0.000170768
2.61707e-06
-0.000172556
1.78811e-06
-0.000173993
1.43652e-06
-0.00017456
5.6674e-07
-0.000174968
4.07914e-07
-0.000174855
-1.12769e-07
-0.000173862
-9.93175e-07
-0.000172438
-1.42364e-06
-0.000170391
-2.04757e-06
-0.000167406
-2.98428e-06
-0.00016371
-3.69648e-06
-0.000159138
-4.57141e-06
-0.000153656
-5.48235e-06
-0.000147172
-6.48441e-06
-0.000139618
-7.55384e-06
-0.000130984
-8.63439e-06
-0.000121503
-9.48079e-06
-0.000110921
-1.05823e-05
-9.9143e-05
-1.17776e-05
-8.66572e-05
-1.24858e-05
-7.29814e-05
-1.36758e-05
-5.85406e-05
-1.44408e-05
-4.30971e-05
-1.54436e-05
-2.65607e-05
-1.65365e-05
-9.57742e-06
-1.69833e-05
7.97651e-06
-1.7554e-05
2.59055e-05
-1.79291e-05
4.4236e-05
-1.83305e-05
6.27111e-05
-1.84752e-05
8.0853e-05
-1.8142e-05
9.85786e-05
-1.77257e-05
0.000115906
-1.73278e-05
0.000132418
-1.65122e-05
0.000147807
-1.53884e-05
0.00016192
-1.41137e-05
0.000174485
-1.25647e-05
0.000185391
-1.09061e-05
0.000194399
-9.00843e-06
0.000201402
-7.00235e-06
0.000206336
-4.93432e-06
0.00020904
-2.70396e-06
0.000209545
-5.0545e-07
0.000207743
1.80166e-06
0.000203791
3.952e-06
0.00019768
6.11174e-06
0.00018952
8.15967e-06
0.000179558
9.96151e-06
0.000167957
1.16015e-05
0.000154951
1.30052e-05
0.000140692
1.42591e-05
0.000125411
1.52817e-05
0.000109322
1.6089e-05
9.26391e-05
1.66825e-05
7.5712e-05
1.6927e-05
5.87128e-05
1.69992e-05
4.18658e-05
1.6847e-05
2.52732e-05
1.65926e-05
9.00368e-06
1.62695e-05
-6.55711e-06
1.55608e-05
-2.14571e-05
1.48999e-05
-3.56052e-05
1.41481e-05
-4.89483e-05
1.33431e-05
-6.13888e-05
1.24406e-05
-7.29207e-05
1.15318e-05
-8.35585e-05
1.06378e-05
-9.32653e-05
9.70681e-06
-0.000102093
8.82796e-06
-0.000109992
7.89893e-06
-0.000117038
7.0456e-06
-0.000123265
6.22679e-06
-0.00012864
5.37509e-06
-0.00013323
4.59081e-06
-0.000137102
3.8717e-06
-0.000140224
3.12226e-06
-0.000142665
2.44072e-06
-0.000144422
1.75654e-06
-0.000145503
1.08085e-06
-0.000146009
5.06018e-07
-0.000145922
-8.6343e-08
-0.000145218
-7.04685e-07
-0.000143975
-1.24289e-06
-0.000142152
-1.82287e-06
-0.000139696
-2.45533e-06
-0.000136671
-3.02581e-06
-0.000132927
-3.74397e-06
-0.000128557
-4.37008e-06
-0.000123539
-5.0172e-06
-0.000117769
-5.77071e-06
-0.000111355
-6.41417e-06
-0.000104283
-7.07169e-06
-9.63683e-05
-7.91457e-06
-8.7768e-05
-8.60029e-06
-7.8425e-05
-9.34308e-06
-6.84082e-05
-1.00168e-05
-5.78031e-05
-1.06051e-05
-4.65214e-05
-1.12817e-05
-3.47354e-05
-1.1786e-05
-2.25829e-05
-1.21525e-05
-9.8768e-06
-1.27061e-05
3.10583e-06
-1.29826e-05
1.63659e-05
-1.32601e-05
2.97619e-05
-1.33961e-05
4.3172e-05
-1.34101e-05
5.65463e-05
-1.33743e-05
6.97615e-05
-1.32152e-05
8.26272e-05
-1.28658e-05
9.50912e-05
-1.2464e-05
0.000106998
-1.19065e-05
0.00011816
-1.11623e-05
0.000128519
-1.03589e-05
0.000137923
-9.40382e-06
0.000146273
-8.35042e-06
0.000153514
-7.24076e-06
0.000159506
-5.99207e-06
0.000164195
-4.6895e-06
0.000167558
-3.3632e-06
0.000169532
-1.97337e-06
0.00017012
-5.88218e-07
0.000169277
8.43401e-07
0.00016703
2.2467e-06
0.000163453
3.57703e-06
0.00015861
4.84271e-06
0.000152628
5.98238e-06
0.00014559
7.03774e-06
0.000137567
8.02328e-06
0.000128767
8.79933e-06
0.000119261
9.50635e-06
0.000109253
1.00076e-05
9.88155e-05
1.04377e-05
8.80614e-05
1.07541e-05
7.72109e-05
1.08505e-05
6.63259e-05
1.08849e-05
1.07871e-05
-0.000175363
7.13753e-06
-0.000178098
5.46908e-06
-0.000180137
4.06894e-06
-0.000181493
2.69952e-06
-0.000182202
1.4114e-06
-0.000182241
8.95726e-08
-0.000181579
-1.32367e-06
-0.000180259
-2.63972e-06
-0.000178257
-4.00164e-06
-0.000175436
-5.64188e-06
-0.000171979
-6.91483e-06
-0.000167787
-8.38526e-06
-0.000162616
-1.03448e-05
-0.000156684
-1.18659e-05
-0.000149736
-1.38906e-05
-0.000141944
-1.55871e-05
-0.000133349
-1.71852e-05
-0.000123685
-1.93436e-05
-0.000113018
-2.13479e-05
-0.000101466
-2.31084e-05
-8.87602e-05
-2.54163e-05
-7.50876e-05
-2.73281e-05
-6.0593e-05
-2.8981e-05
-4.50519e-05
-3.10828e-05
-2.87082e-05
-3.26944e-05
-1.15417e-05
-3.43071e-05
6.33537e-06
-3.57586e-05
2.46042e-05
-3.65281e-05
4.33177e-05
-3.74133e-05
6.22988e-05
-3.79469e-05
8.11402e-05
-3.76671e-05
9.97785e-05
-3.72612e-05
0.000117941
-3.63117e-05
0.000135393
-3.48848e-05
0.000151879
-3.29547e-05
0.00016697
-3.01696e-05
0.000180548
-2.71347e-05
0.000192404
-2.3687e-05
0.00020222
-1.96273e-05
0.000209913
-1.53868e-05
0.000215241
-1.0656e-05
0.000218256
-6.02273e-06
0.000218831
-1.15302e-06
0.000216863
3.9312e-06
0.000212457
8.81188e-06
0.000205742
1.34237e-05
0.000196674
1.81285e-05
0.000185675
2.19916e-05
0.000172889
2.55675e-05
0.000158401
2.89685e-05
0.000142549
3.16914e-05
0.000125575
3.39327e-05
0.00010769
3.57482e-05
8.93242e-05
3.67287e-05
7.0598e-05
3.74419e-05
5.17783e-05
3.76285e-05
3.30422e-05
3.74528e-05
1.46519e-05
3.6781e-05
-3.24973e-06
3.58022e-05
-2.05209e-05
3.45359e-05
-3.70244e-05
3.30009e-05
-5.26868e-05
3.13253e-05
-6.74196e-05
2.94657e-05
-8.12073e-05
2.75656e-05
-9.4016e-05
2.5611e-05
-0.00010579
2.35458e-05
-0.000116573
2.15592e-05
-0.000126382
1.96199e-05
-0.000135223
1.76839e-05
-0.000143222
1.59848e-05
-0.000150216
1.39803e-05
-0.000156385
1.23342e-05
-0.000161763
1.07463e-05
-0.000166263
8.99967e-06
-0.000169786
7.03667e-06
-0.000172718
5.86538e-06
-0.000174787
4.13264e-06
-0.000176423
3.26347e-06
-0.000177213
1.58413e-06
-0.000177206
-1.92859e-08
-0.000176835
-7.4446e-07
-0.000175797
-2.07892e-06
-0.00017393
-3.72885e-06
-0.00017139
-5.09201e-06
-0.000168152
-6.47555e-06
-0.000164101
-8.10013e-06
-0.000159327
-9.55523e-06
-0.000153572
-1.15035e-05
-0.000146798
-1.35488e-05
-0.000139043
-1.55154e-05
-0.000130325
-1.74241e-05
-0.000120578
-1.94949e-05
-0.000110038
-2.10788e-05
-9.82855e-05
-2.35055e-05
-8.57089e-05
-2.51474e-05
-7.21736e-05
-2.70603e-05
-5.74959e-05
-2.93417e-05
-4.20687e-05
-3.08545e-05
-2.60112e-05
-3.21028e-05
-9.23255e-06
-3.35464e-05
8.02736e-06
-3.45248e-05
2.55758e-05
-3.50838e-05
4.35357e-05
-3.58857e-05
6.18081e-05
-3.65517e-05
7.99541e-05
-3.62657e-05
9.77964e-05
-3.56724e-05
0.000115218
-3.48251e-05
0.000132
-3.35524e-05
0.000147741
-3.14667e-05
0.000162337
-2.91775e-05
0.000175533
-2.6379e-05
0.000187158
-2.32301e-05
0.000196917
-1.95071e-05
0.000204618
-1.53857e-05
0.000210088
-1.09342e-05
0.000213335
-6.49355e-06
0.000214146
-1.62378e-06
0.00021272
2.84479e-06
0.000208908
7.62622e-06
0.000202765
1.22775e-05
0.000194502
1.65168e-05
0.000184269
2.0456e-05
0.000172253
2.40252e-05
0.000158612
2.72693e-05
0.000143585
3.00421e-05
0.000127332
3.24868e-05
0.000110267
3.41168e-05
9.25866e-05
3.53451e-05
7.4601e-05
3.59572e-05
5.64358e-05
3.63213e-05
3.82848e-05
3.62957e-05
2.02501e-05
3.60411e-05
2.76634e-06
3.49681e-05
-1.42539e-05
3.40382e-05
-3.06759e-05
3.28387e-05
-4.63836e-05
3.14132e-05
-6.13377e-05
2.99058e-05
-7.55214e-05
2.83604e-05
-8.88724e-05
2.66931e-05
-0.000101412
2.50718e-05
-0.000113021
2.3216e-05
-0.000123797
2.15456e-05
-0.000133692
1.97917e-05
-0.000142663
1.79385e-05
-0.000150731
1.61148e-05
-0.000157942
1.44136e-05
-0.000164059
1.2232e-05
-0.000169239
1.03485e-05
-0.000173627
8.77794e-06
-0.000177005
6.75416e-06
-0.00017971
5.40303e-06
-0.000181351
3.28451e-06
-0.000182022
1.34103e-06
-0.000182107
1.67815e-07
-0.000181266
-1.6825e-06
-0.000179406
-3.72025e-06
-0.000176898
-5.01516e-06
-0.000173365
-7.06308e-06
-0.000169051
-8.6527e-06
-0.000164156
-9.76756e-06
-0.00015831
-1.16871e-05
-0.000151881
-1.28634e-05
-0.000144571
-1.46044e-05
-0.000136509
-1.61218e-05
-0.00012779
-1.74374e-05
-0.000118332
-1.8926e-05
-0.000108134
-2.03887e-05
-9.74411e-05
-2.13823e-05
-8.60387e-05
-2.28029e-05
-7.37286e-05
-2.46144e-05
-6.10333e-05
-2.53886e-05
-4.76642e-05
-2.67401e-05
-3.32686e-05
-2.87733e-05
-1.87062e-05
-2.91222e-05
-3.40214e-06
-3.06034e-05
1.24986e-05
-3.17969e-05
2.88031e-05
-3.26078e-05
4.58363e-05
-3.40395e-05
6.31344e-05
-3.45733e-05
8.04622e-05
-3.46513e-05
9.78067e-05
-3.46821e-05
0.00011498
-3.43134e-05
0.000131674
-3.33708e-05
0.000147484
-3.16093e-05
0.000162389
-2.97886e-05
0.000176072
-2.73552e-05
0.000188156
-2.41563e-05
0.000198447
-2.05701e-05
0.000206748
-1.659e-05
0.000212803
-1.20986e-05
0.000216403
-7.19512e-06
0.000217547
-2.2781e-06
0.000215947
3.18357e-06
0.000211812
8.27278e-06
0.000205077
1.34681e-05
0.00019588
1.83879e-05
0.00018432
2.31017e-05
0.00017077
2.70871e-05
0.000155454
3.06141e-05
0.000138651
3.35928e-05
0.000120616
3.6055e-05
0.000101654
3.79069e-05
8.20512e-05
3.91836e-05
6.22463e-05
3.959e-05
4.2615e-05
3.9255e-05
2.31529e-05
3.89067e-05
4.25339e-06
3.77828e-05
-1.38086e-05
3.61258e-05
-3.10176e-05
3.44131e-05
-4.72511e-05
3.24651e-05
-6.24387e-05
3.03705e-05
-7.65299e-05
2.81744e-05
-8.95191e-05
2.59712e-05
-0.000101369
2.36994e-05
-0.000112184
2.16341e-05
-0.000121973
1.9583e-05
-0.000130655
1.73541e-05
-0.000138377
1.54371e-05
-0.000145267
1.37724e-05
-0.000151255
1.19701e-05
-0.000156658
1.08005e-05
-0.000161045
8.76769e-06
-0.000164843
7.59386e-06
-0.00016824
6.77243e-06
-0.000170844
5.22158e-06
-0.00017264
3.58429e-06
-0.000174074
2.87064e-06
-0.000174654
1.14662e-06
-0.000175066
8.19311e-07
-0.000174935
-2.43662e-07
-0.000173948
-1.97995e-06
-0.000172525
-2.84708e-06
-0.000170474
-4.09808e-06
-0.000167499
-5.9598e-06
-0.000163814
-7.38118e-06
-0.000159236
-9.14994e-06
-0.00015375
-1.09677e-05
-0.000147259
-1.29755e-05
-0.000139713
-1.51004e-05
-0.000131087
-1.726e-05
-0.000121588
-1.89803e-05
-0.000111006
-2.11643e-05
-9.92244e-05
-2.35593e-05
-8.67327e-05
-2.49776e-05
-7.30512e-05
-2.73575e-05
-5.85885e-05
-2.89037e-05
-4.31591e-05
-3.08732e-05
-2.66103e-05
-3.30854e-05
-9.5966e-06
-3.39972e-05
7.94355e-06
-3.50943e-05
2.58943e-05
-3.588e-05
4.42541e-05
-3.66905e-05
6.27263e-05
-3.69476e-05
8.08865e-05
-3.63024e-05
9.86222e-05
-3.54615e-05
0.000115979
-3.46844e-05
0.00013252
-3.30536e-05
0.000147915
-3.07834e-05
0.000162039
-2.82381e-05
0.000174618
-2.51433e-05
0.000185528
-2.18167e-05
0.000194544
-1.80245e-05
0.000201552
-1.40107e-05
0.000206505
-9.88711e-06
0.000209216
-5.41478e-06
0.000209708
-9.98113e-07
0.000207894
3.61601e-06
0.000203944
7.90113e-06
0.000197829
1.22267e-05
0.000189659
1.63302e-05
0.000179688
1.99319e-05
0.000168073
2.32166e-05
0.00015506
2.60184e-05
0.000140789
2.85299e-05
0.000125492
3.05786e-05
0.000109392
3.21888e-05
9.26936e-05
3.33809e-05
7.57523e-05
3.38683e-05
5.87369e-05
3.40145e-05
4.18836e-05
3.37003e-05
2.52842e-05
3.31919e-05
8.99759e-06
3.25561e-05
-6.56027e-06
3.11186e-05
-2.14654e-05
2.98051e-05
-3.56176e-05
2.83003e-05
-4.89645e-05
2.669e-05
-6.14073e-05
2.48833e-05
-7.29417e-05
2.30663e-05
-8.35817e-05
2.12778e-05
-9.32867e-05
1.94118e-05
-0.000102115
1.76564e-05
-0.000110018
1.58015e-05
-0.000117059
1.40872e-05
-0.000123287
1.24546e-05
-0.000128668
1.07565e-05
-0.000133265
9.18768e-06
-0.00013714
7.74614e-06
-0.000140264
6.24654e-06
-0.000142706
4.88257e-06
-0.000144467
3.51731e-06
-0.00014555
2.16365e-06
-0.000146057
1.01399e-06
-0.000145976
-1.67856e-07
-0.000145274
-1.40632e-06
-0.000144034
-2.48298e-06
-0.000142212
-3.64561e-06
-0.000139751
-4.91586e-06
-0.000136725
-6.05188e-06
-0.000132975
-7.494e-06
-0.000128611
-8.7341e-06
-0.000123594
-1.00342e-05
-0.000117819
-1.15454e-05
-0.000111404
-1.28292e-05
-0.000104327
-1.41493e-05
-9.64151e-05
-1.58261e-05
-8.78148e-05
-1.72006e-05
-7.84733e-05
-1.86847e-05
-6.84602e-05
-2.003e-05
-5.78598e-05
-2.12055e-05
-4.65969e-05
-2.25446e-05
-3.48169e-05
-2.3566e-05
-2.26618e-05
-2.43078e-05
-9.94345e-06
-2.54244e-05
3.0451e-06
-2.59712e-05
1.63217e-05
-2.65368e-05
2.97289e-05
-2.68033e-05
4.31435e-05
-2.68247e-05
5.65343e-05
-2.67652e-05
6.97651e-05
-2.64461e-05
8.26401e-05
-2.57408e-05
9.51142e-05
-2.49383e-05
0.000107031
-2.38231e-05
0.000118202
-2.23336e-05
0.00012857
-2.07268e-05
0.000137983
-1.88168e-05
0.00014634
-1.67076e-05
0.000153585
-1.44856e-05
0.000159584
-1.19912e-05
0.000164284
-9.38963e-06
0.000167647
-6.72633e-06
0.000169615
-3.9412e-06
0.000170206
-1.17922e-06
0.000169357
1.69223e-06
0.000167108
4.49534e-06
0.000163529
7.15606e-06
0.00015868
9.69164e-06
0.000152692
1.19709e-05
0.000145645
1.40844e-05
0.000137614
1.60545e-05
0.000128806
1.76066e-05
0.000119292
1.90206e-05
0.000109277
2.00228e-05
9.88318e-05
2.08827e-05
8.80707e-05
2.15152e-05
7.72137e-05
2.17075e-05
6.63224e-05
2.17762e-05
2.15801e-05
-0.000175427
1.07146e-05
-0.000178169
8.21074e-06
-0.000180214
6.11418e-06
-0.00018157
4.05578e-06
-0.000182271
2.11177e-06
-0.000182306
1.24754e-07
-0.000181638
-1.99216e-06
-0.000180317
-3.96046e-06
-0.000178316
-6.00245e-06
-0.000175496
-8.46219e-06
-0.000172039
-1.03712e-05
-0.000167851
-1.25742e-05
-0.000162684
-1.55112e-05
-0.000156757
-1.77931e-05
-0.000149801
-2.08462e-05
-0.000142013
-2.33758e-05
-0.000133407
-2.57912e-05
-0.000123775
-2.8975e-05
-0.00011313
-3.19937e-05
-0.000101591
-3.46471e-05
-8.89155e-05
-3.80919e-05
-7.52139e-05
-4.10298e-05
-6.07026e-05
-4.34924e-05
-4.51506e-05
-4.6635e-05
-2.88026e-05
-4.90425e-05
-1.16129e-05
-5.1497e-05
6.26444e-06
-5.36361e-05
2.45405e-05
-5.48043e-05
4.32752e-05
-5.61481e-05
6.22837e-05
-5.69555e-05
8.11505e-05
-5.65341e-05
9.98129e-05
-5.59238e-05
0.000117995
-5.44935e-05
0.000135469
-5.23592e-05
0.000151982
-4.94681e-05
0.000167094
-4.52817e-05
0.000180696
-4.07364e-05
0.000192572
-3.55631e-05
0.000202408
-2.94639e-05
0.00021012
-2.30988e-05
0.000215448
-1.59841e-05
0.000218475
-9.05015e-06
0.000219044
-1.72187e-06
0.000217044
5.93079e-06
0.000212633
1.32232e-05
0.000205897
2.01597e-05
0.000196827
2.71984e-05
0.000185824
3.29946e-05
0.00017302
3.83712e-05
0.000158512
4.34764e-05
0.000142639
4.75644e-05
0.000125642
5.09293e-05
0.000107732
5.36582e-05
8.93587e-05
5.51022e-05
7.06135e-05
5.61871e-05
5.17752e-05
5.64668e-05
3.3018e-05
5.621e-05
1.46222e-05
5.51768e-05
-3.28215e-06
5.37066e-05
-2.05533e-05
5.18071e-05
-3.70601e-05
4.95076e-05
-5.27317e-05
4.69969e-05
-6.74738e-05
4.42077e-05
-8.12656e-05
4.13574e-05
-9.40751e-05
3.84205e-05
-0.000105843
3.5314e-05
-0.000116626
3.23415e-05
-0.000126438
2.94325e-05
-0.000135266
2.65118e-05
-0.000143253
2.39715e-05
-0.00015025
2.09774e-05
-0.000156411
1.84953e-05
-0.000161802
1.61375e-05
-0.0001663
1.34973e-05
-0.00016983
1.0567e-05
-0.000172747
8.78228e-06
-0.000174817
6.20203e-06
-0.000176475
4.922e-06
-0.000177259
2.3681e-06
-0.000177253
-2.51361e-08
-0.000176886
-1.1121e-06
-0.000175845
-3.11974e-06
-0.000173978
-5.59569e-06
-0.000171449
-7.62145e-06
-0.000168209
-9.71479e-06
-0.000164155
-1.21544e-05
-0.000159392
-1.43185e-05
-0.000153636
-1.72594e-05
-0.000146851
-2.03337e-05
-0.000139093
-2.32735e-05
-0.000130379
-2.61383e-05
-0.00012064
-2.92344e-05
-0.000110104
-3.16149e-05
-9.83507e-05
-3.52585e-05
-8.57722e-05
-3.7726e-05
-7.22406e-05
-4.0592e-05
-5.75537e-05
-4.40288e-05
-4.21217e-05
-4.62867e-05
-2.60424e-05
-4.81822e-05
-9.25989e-06
-5.03291e-05
7.98532e-06
-5.17702e-05
2.55494e-05
-5.26481e-05
4.35422e-05
-5.38787e-05
6.17871e-05
-5.47968e-05
7.99794e-05
-5.44582e-05
9.78554e-05
-5.35485e-05
0.000115297
-5.22668e-05
0.000132079
-5.03349e-05
0.000147855
-4.72432e-05
0.000162467
-4.37893e-05
0.000175681
-3.95934e-05
0.000187314
-3.4863e-05
0.000197086
-2.92796e-05
0.000204805
-2.3104e-05
0.000210294
-1.64235e-05
0.000213546
-9.74558e-06
0.000214348
-2.42627e-06
0.000212901
4.2911e-06
0.000209064
1.14639e-05
0.000202934
1.84067e-05
0.00019466
2.47911e-05
0.000184421
3.06952e-05
0.000172385
3.60605e-05
0.000158725
4.09293e-05
0.000143677
4.50905e-05
0.000127402
4.87615e-05
0.000110316
5.12025e-05
9.26137e-05
5.30474e-05
7.46215e-05
5.39493e-05
5.64369e-05
5.45059e-05
3.82548e-05
5.44777e-05
2.02399e-05
5.4056e-05
2.73325e-06
5.24748e-05
-1.42932e-05
5.10646e-05
-3.07176e-05
4.92632e-05
-4.64274e-05
4.71229e-05
-6.13846e-05
4.48629e-05
-7.55686e-05
4.25444e-05
-8.89215e-05
4.0046e-05
-0.000101463
3.76131e-05
-0.00011307
3.48234e-05
-0.000123856
3.23316e-05
-0.000133759
2.96945e-05
-0.00014271
2.68894e-05
-0.000150792
2.41974e-05
-0.000158024
2.16452e-05
-0.000164125
1.83331e-05
-0.000169313
1.5536e-05
-0.000173693
1.3158e-05
-0.000177077
1.01387e-05
-0.000179795
8.12094e-06
-0.000181424
4.91346e-06
-0.000182097
2.01439e-06
-0.000182179
2.48915e-07
-0.000181332
-2.52895e-06
-0.00017947
-5.58284e-06
-0.00017696
-7.52498e-06
-0.000173427
-1.0596e-05
-0.000169118
-1.29615e-05
-0.000164212
-1.46733e-05
-0.00015836
-1.7539e-05
-0.000151936
-1.92876e-05
-0.000144615
-2.19256e-05
-0.000136547
-2.41904e-05
-0.000127822
-2.61616e-05
-0.000118362
-2.83867e-05
-0.000108171
-3.058e-05
-9.74876e-05
-3.20653e-05
-8.60882e-05
-3.42023e-05
-7.37693e-05
-3.69334e-05
-6.10736e-05
-3.80845e-05
-4.77119e-05
-4.0102e-05
-3.32971e-05
-4.31883e-05
-1.87436e-05
-4.36758e-05
-3.44621e-06
-4.5901e-05
1.24539e-05
-4.76971e-05
2.8776e-05
-4.89301e-05
4.58168e-05
-5.10805e-05
6.31445e-05
-5.19011e-05
8.04801e-05
-5.1987e-05
9.78391e-05
-5.20413e-05
0.000115031
-5.15058e-05
0.000131736
-5.0076e-05
0.000147572
-4.7445e-05
0.000162501
-4.47175e-05
0.000176218
-4.10724e-05
0.000188329
-3.62673e-05
0.000198637
-3.08792e-05
0.000206947
-2.48998e-05
0.000213017
-1.81684e-05
0.000216628
-1.0806e-05
0.000217767
-3.41811e-06
0.000216157
4.79348e-06
0.000212015
1.24149e-05
0.000205275
2.02084e-05
0.000196063
2.75993e-05
0.000184485
3.46796e-05
0.000170912
4.06604e-05
0.000155585
4.59407e-05
0.000138753
5.04248e-05
0.000120687
5.41211e-05
0.000101693
5.69011e-05
8.20745e-05
5.88021e-05
6.22344e-05
5.94301e-05
4.25976e-05
5.88917e-05
2.31157e-05
5.83886e-05
4.20911e-06
5.66893e-05
-1.38687e-05
5.42036e-05
-3.10856e-05
5.163e-05
-4.73231e-05
4.87026e-05
-6.25076e-05
4.5555e-05
-7.65953e-05
4.22621e-05
-8.95826e-05
3.89585e-05
-0.000101424
3.55408e-05
-0.000112236
3.24463e-05
-0.000122034
2.93809e-05
-0.000130719
2.60393e-05
-0.000138438
2.3156e-05
-0.000145314
2.06483e-05
-0.000151302
1.79577e-05
-0.000156712
1.62106e-05
-0.000161097
1.31525e-05
-0.000164888
1.13848e-05
-0.000168311
1.01961e-05
-0.000170899
7.80887e-06
-0.000172699
5.38431e-06
-0.000174126
4.29833e-06
-0.000174714
1.73401e-06
-0.000175131
1.23688e-06
-0.000174976
-3.99224e-07
-0.000173999
-2.95671e-06
-0.000172574
-4.27224e-06
-0.000170525
-6.14663e-06
-0.000167559
-8.92652e-06
-0.000163882
-1.10576e-05
-0.000159302
-1.37298e-05
-0.000153809
-1.64611e-05
-0.000147311
-1.94733e-05
-0.000139776
-2.2636e-05
-0.000131152
-2.58839e-05
-0.000121649
-2.84838e-05
-0.000111072
-3.17407e-05
-9.92853e-05
-3.53463e-05
-8.67968e-05
-3.74662e-05
-7.31147e-05
-4.10397e-05
-5.86331e-05
-4.33854e-05
-4.32282e-05
-4.62783e-05
-2.66749e-05
-4.96387e-05
-9.63789e-06
-5.10344e-05
7.90503e-06
-5.26374e-05
2.58886e-05
-5.38637e-05
4.42586e-05
-5.50607e-05
6.27271e-05
-5.54162e-05
8.09205e-05
-5.44959e-05
9.86797e-05
-5.32208e-05
0.000116064
-5.20692e-05
0.000132617
-4.96066e-05
0.000148023
-4.61893e-05
0.000162158
-4.23732e-05
0.000174752
-3.77376e-05
0.000185702
-3.2767e-05
0.000194732
-2.70544e-05
0.000201747
-2.10264e-05
0.000206698
-1.48373e-05
0.000209415
-8.13273e-06
0.000209901
-1.48419e-06
0.000208056
5.46091e-06
0.000204108
1.18494e-05
0.000197975
1.83597e-05
0.000189805
2.44997e-05
0.000179822
2.99147e-05
0.000168201
3.48375e-05
0.000155162
3.90575e-05
0.000140871
4.28207e-05
0.000125555
4.58948e-05
0.000109429
4.83152e-05
9.27165e-05
5.00929e-05
7.57595e-05
5.08253e-05
5.87382e-05
5.10358e-05
4.18639e-05
5.05746e-05
2.52459e-05
4.98099e-05
8.94514e-06
4.88569e-05
-6.60524e-06
4.6669e-05
-2.15165e-05
4.47163e-05
-3.56729e-05
4.24567e-05
-4.90219e-05
4.00389e-05
-6.14618e-05
3.73232e-05
-7.29947e-05
3.45992e-05
-8.36312e-05
3.19144e-05
-9.33333e-05
2.91139e-05
-0.000102163
2.64857e-05
-0.000110055
2.36942e-05
-0.000117095
2.11268e-05
-0.000123336
1.86957e-05
-0.000128714
1.61348e-05
-0.00013331
1.37831e-05
-0.00013718
1.16161e-05
-0.000140298
9.36438e-06
-0.000142743
7.32787e-06
-0.000144505
5.27982e-06
-0.000145595
3.25284e-06
-0.000146104
1.52327e-06
-0.000146023
-2.4852e-07
-0.000145322
-2.10774e-06
-0.000144082
-3.72236e-06
-0.00014226
-5.46796e-06
-0.000139797
-7.37925e-06
-0.000136775
-9.07362e-06
-0.000133023
-1.12458e-05
-0.000128664
-1.30928e-05
-0.000123648
-1.50503e-05
-0.000117871
-1.73227e-05
-0.000111457
-1.92433e-05
-0.000104376
-2.12298e-05
-9.64687e-05
-2.37338e-05
-8.78688e-05
-2.58005e-05
-7.85303e-05
-2.80232e-05
-6.85217e-05
-3.00386e-05
-5.79251e-05
-3.18022e-05
-4.66685e-05
-3.38013e-05
-3.4881e-05
-3.53535e-05
-2.27188e-05
-3.647e-05
-9.99696e-06
-3.81463e-05
3.00094e-06
-3.89692e-05
1.62881e-05
-3.9824e-05
2.9707e-05
-4.02222e-05
4.31351e-05
-4.0253e-05
5.654e-05
-4.01701e-05
6.97838e-05
-3.96899e-05
8.26717e-05
-3.86287e-05
9.5159e-05
-3.74256e-05
0.000107089
-3.57527e-05
0.000118271
-3.35167e-05
0.000128651
-3.11067e-05
0.000138078
-2.82437e-05
0.000146447
-2.50769e-05
0.000153696
-2.17339e-05
0.0001597
-1.79959e-05
0.000164405
-1.40941e-05
0.000167781
-1.01024e-05
0.000169751
-5.9118e-06
0.000170334
-1.76268e-06
0.000169466
2.56056e-06
0.000167211
6.75054e-06
0.000163627
1.07398e-05
0.000158771
1.45477e-05
0.000152775
1.79671e-05
0.000145719
2.11406e-05
0.000137678
2.40954e-05
0.00012886
2.64242e-05
0.000119335
2.85454e-05
0.00010931
3.00486e-05
9.8854e-05
3.13383e-05
8.80824e-05
3.22867e-05
7.72152e-05
3.25746e-05
6.63135e-05
3.26779e-05
3.23831e-05
-0.000175525
1.42997e-05
-0.000178281
1.0966e-05
-0.000180332
8.16516e-06
-0.000181693
5.41688e-06
-0.00018238
2.7986e-06
-0.000182399
1.44411e-07
-0.000181725
-2.66657e-06
-0.000180404
-5.28144e-06
-0.000178404
-8.00238e-06
-0.000175585
-1.12815e-05
-0.00017213
-1.3826e-05
-0.000167946
-1.67582e-05
-0.000162787
-2.06706e-05
-0.000156866
-2.37133e-05
-0.000149899
-2.78137e-05
-0.000142117
-3.1158e-05
-0.000133483
-3.44255e-05
-0.000123899
-3.85584e-05
-0.000113272
-4.26209e-05
-0.000101743
-4.61764e-05
-8.90827e-05
-5.07522e-05
-7.53854e-05
-5.47272e-05
-6.08662e-05
-5.80116e-05
-4.52996e-05
-6.22017e-05
-2.89525e-05
-6.53897e-05
-1.17309e-05
-6.87187e-05
6.1557e-06
-7.15228e-05
2.44536e-05
-7.31023e-05
4.32209e-05
-7.49156e-05
6.22646e-05
-7.59994e-05
8.11638e-05
-7.54334e-05
9.98592e-05
-7.46194e-05
0.000118069
-7.27037e-05
0.000135577
-6.98666e-05
0.000152139
-6.60303e-05
0.000167288
-6.04318e-05
0.000180931
-5.43794e-05
0.000192839
-4.74707e-05
0.000202695
-3.93206e-05
0.000210427
-3.08305e-05
0.000215767
-2.13242e-05
0.000218801
-1.20841e-05
0.000219353
-2.27426e-06
0.000217319
7.9653e-06
0.000212898
1.76439e-05
0.000206119
2.69383e-05
0.000197055
3.62628e-05
0.000186045
4.40046e-05
0.000173214
5.12018e-05
0.000158677
5.80129e-05
0.000142774
6.34674e-05
0.000125741
6.79622e-05
0.000107793
7.16061e-05
8.94093e-05
7.34863e-05
7.06389e-05
7.49573e-05
5.17768e-05
7.53289e-05
3.29813e-05
7.50056e-05
1.45808e-05
7.35772e-05
-3.33438e-06
7.16217e-05
-2.06152e-05
6.90879e-05
-3.71282e-05
6.60206e-05
-5.28027e-05
6.26714e-05
-6.75409e-05
5.89459e-05
-8.13255e-05
5.51421e-05
-9.41317e-05
5.12267e-05
-0.000105899
4.70809e-05
-0.000116684
4.31271e-05
-0.000126506
3.92541e-05
-0.00013534
3.53463e-05
-0.000143321
3.19522e-05
-0.000150314
2.79703e-05
-0.000156474
2.46553e-05
-0.000161875
2.15385e-05
-0.000166352
1.79741e-05
-0.000169899
1.41144e-05
-0.000172812
1.16949e-05
-0.000174876
8.2663e-06
-0.000176553
6.59944e-06
-0.000177334
3.14854e-06
-0.000177328
-3.05486e-08
-0.000176965
-1.47534e-06
-0.000175922
-4.16316e-06
-0.000174052
-7.46543e-06
-0.000171541
-1.0133e-05
-0.000168302
-1.29536e-05
-0.000164241
-1.62155e-05
-0.000159489
-1.90698e-05
-0.000153735
-2.30143e-05
-0.000146957
-2.71112e-05
-0.000139208
-3.1023e-05
-0.000130478
-3.4868e-05
-0.000120743
-3.89691e-05
-0.000110212
-4.21466e-05
-9.84536e-05
-4.70168e-05
-8.58694e-05
-5.03104e-05
-7.23392e-05
-5.41224e-05
-5.76338e-05
-5.87343e-05
-4.22031e-05
-6.17176e-05
-2.60967e-05
-6.42888e-05
-9.30282e-06
-6.71231e-05
7.92926e-06
-6.90025e-05