/*--------------------------------*- C++ -*----------------------------------*\
| =========                 |                                                 |
| \\      /  F ield         | OpenFOAM: The Open Source CFD Toolbox           |
|  \\    /   O peration     | Version:  3.0.1                                 |
|   \\  /    A nd           | Web:      www.OpenFOAM.org                      |
|    \\/     M anipulation  |                                                 |
\*---------------------------------------------------------------------------*/
FoamFile
{
    version     2.0;
    format      ascii;
    class       volScalarField;
    location    "91.2";
    object      p;
}
// * * * * * * * * * * * * * * * * * * * * * * * * * * * * * * * * * * * * * //

dimensions      [1 -1 -2 0 0 0 0];

internalField   nonuniform List<scalar> 
21420
(
3794.12
3823.76
3855.11
3887.82
3912.97
3947.81
3982.98
4017.9
4052.27
4085.76
4117.99
4148.55
4177.06
4203.1
4226.26
4246.18
4262.53
4275.06
4283.58
4287.93
4288
4283.89
4275.71
4263.49
4247.44
4227.84
4204.96
4179.14
4150.77
4120.24
4087.99
4054.48
4020.14
3985.46
3951
3919.76
3886.74
3854.25
3822.8
3792.67
3764.08
3737.13
3711.94
3688.54
3666.96
3647.2
3629.26
3613.09
3598.68
3585.97
3574.93
3565.52
3557.69
3551.42
3546.66
3543.43
3541.73
3541.64
3543.02
3545.94
3550.41
3556.45
3564.13
3573.46
3584.48
3597.25
3611.79
3628.11
3646.23
3666.13
3687.81
3711.22
3736.26
3762.87
3790.93
3820.3
3850.81
3882.3
3914.71
3947.74
3980.95
4014.05
4046.78
4078.79
4109.74
4139.3
4167.09
4192.72
4215.83
4236.11
4253.25
4267
4277.15
4283.54
4286
4284.58
4279.2
4269.94
4256.88
4240.18
4220.05
4196.75
4170.6
4141.94
4111.16
4078.68
4044.94
4010.39
3975.46
3940.6
3906.19
3872.59
3840.12
3809.05
3779.57
3751.85
3726
3702.09
3680.15
3660.18
3642.19
3626.12
3611.94
3599.6
3589.03
3580.17
3572.96
3567.34
3563.22
3560.56
3559.34
3559.45
3560.86
3563.55
3567.51
3572.71
3579.18
3586.91
3595.95
3606.32
3618.09
3631.28
3645.96
3662.17
3679.94
3699.31
3720.28
3742.85
3766.99
3792.66
3819.78
3848.22
3877.87
3908.53
3940
3971.99
4004.22
4036.38
4068.12
4099.07
4128.84
4157.04
4183.28
4207.16
4228.32
4246.39
4261.06
4272.07
4279.2
4282.24
4281.21
4276.03
4266.78
4253.57
4236.63
4216.23
4192.7
4166.41
4137.78
4107.26
4075.3
4042.36
4008.87
3975.26
3941.92
3909.2
3877.4
3846.79
3817.57
3789.91
3763.93
3739.69
3717.24
3696.58
3677.71
3660.58
3645.16
3631.4
3619.25
3608.65
3599.55
3591.89
3585.61
3580.65
3576.95
3574.47
3573.19
3573.13
3574.23
3576.53
3580.04
3584.78
3590.75
3597.97
3606.44
3616.2
3627.27
3639.69
3653.49
3668.73
3685.45
3703.68
3723.46
3744.78
3767.61
3791.91
3817.61
3844.59
3872.75
3901.92
3931.93
3962.55
3993.53
4024.58
4055.38
4085.58
4114.81
4142.69
4168.83
4192.87
4214.42
4233.13
4248.68
4260.76
4269.12
4273.57
4273.95
4270.27
4262.54
4250.83
4235.35
4216.33
4194.11
4169.05
4141.58
4112.15
4081.22
4049.25
4016.68
3983.93
3951.37
3919.34
3888.15
3858.04
3829.24
3801.95
3776.29
3752.36
3730.2
3709.81
3691.18
3674.24
3658.96
3645.26
3633.08
3622.38
3613.11
3605.22
3598.67
3593.4
3589.47
3586.65
3584.93
3584.3
3584.71
3586.13
3588.59
3592.08
3596.61
3602.17
3608.78
3616.47
3625.28
3635.27
3646.55
3659.21
3673.36
3689.1
3706.53
3725.74
3746.79
3769.71
3794.5
3821.08
3849.33
3878.9
3906.82
3938.16
3970.23
4002.44
4034.36
4065.6
4095.71
4124.26
4150.88
4175.17
4196.77
4215.39
4230.74
4242.63
4250.9
4255.47
4256.21
4253.24
4246.63
4236.55
4223.19
4206.85
4187.78
4166.33
4142.82
4117.6
4090.99
4063.33
4034.93
4006.08
3977.04
3948.04
3919.31
3891.2
3864.01
3837.12
3811.03
3785.88
3761.8
3738.88
3717.2
3696.85
3677.88
3660.35
3644.3
3629.79
3616.85
3605.51
3595.79
3587.71
3581.27
3695.93
3725.57
3756.92
3789.64
3814.84
3849.69
3884.87
3919.8
3954.18
3987.68
4019.93
4050.51
4079.04
4105.1
4128.28
4148.21
4164.57
4177.11
4185.64
4190
4190.06
4185.95
4177.76
4165.53
4149.47
4129.85
4106.96
4081.12
4052.73
4022.18
3989.91
3956.38
3922.03
3887.33
3852.84
3821.63
3788.59
3756.08
3724.62
3694.49
3665.89
3638.95
3613.75
3590.36
3568.78
3549.03
3531.08
3514.92
3500.51
3487.8
3476.77
3467.36
3459.53
3453.26
3448.5
3445.27
3443.57
3443.48
3444.86
3447.78
3452.24
3458.29
3465.96
3475.29
3486.31
3499.07
3513.61
3529.93
3548.05
3567.95
3589.63
3613.04
3638.09
3664.7
3692.76
3722.13
3752.66
3784.15
3816.57
3849.61
3882.83
3915.94
3948.68
3980.7
4011.68
4041.25
4069.05
4094.7
4117.83
4138.12
4155.27
4169.03
4179.19
4185.58
4188.06
4186.62
4181.25
4171.99
4158.91
4142.2
4122.05
4098.74
4072.57
4043.89
4013.09
3980.6
3946.84
3912.27
3877.33
3842.44
3808.02
3774.42
3741.94
3710.86
3681.38
3653.66
3627.8
3603.89
3581.95
3561.99
3544
3527.94
3513.76
3501.42
3490.85
3482
3474.79
3469.17
3465.05
3462.4
3461.18
3461.29
3462.7
3465.4
3469.35
3474.56
3481.02
3488.75
3497.79
3508.16
3519.92
3533.12
3547.79
3564
3581.77
3601.13
3622.1
3644.67
3668.82
3694.49
3721.6
3750.06
3779.7
3810.37
3841.85
3873.85
3906.09
3938.27
3970.02
4000.98
4030.78
4059
4085.25
4109.15
4130.32
4148.41
4163.1
4174.12
4181.25
4184.3
4183.26
4178.08
4168.82
4155.61
4138.65
4118.23
4094.68
4068.38
4039.73
4009.19
3977.21
3944.25
3910.74
3877.12
3843.77
3811.03
3779.23
3748.61
3719.39
3691.73
3665.74
3641.5
3619.05
3598.4
3579.53
3562.4
3546.99
3533.23
3521.08
3510.49
3501.39
3493.73
3487.45
3482.49
3478.8
3476.32
3475.04
3474.97
3476.08
3478.38
3481.89
3486.62
3492.59
3499.81
3508.29
3518.05
3529.11
3541.53
3555.33
3570.56
3587.28
3605.51
3625.29
3646.6
3669.44
3693.74
3719.44
3746.43
3774.59
3803.77
3833.78
3864.41
3895.41
3926.47
3957.28
3987.5
4016.74
4044.64
4070.8
4094.85
4116.42
4135.15
4150.71
4162.8
4171.17
4175.63
4176.01
4172.32
4164.59
4152.88
4137.37
4118.34
4096.1
4071.03
4043.54
4014.08
3983.13
3951.15
3918.56
3885.8
3853.22
3821.19
3789.98
3759.87
3731.07
3703.77
3678.11
3654.18
3632.02
3611.64
3593
3576.08
3560.79
3547.1
3534.92
3524.22
3514.96
3507.07
3500.52
3495.26
3491.33
3488.5
3486.79
3486.16
3486.57
3487.99
3490.45
3493.94
3498.47
3504.03
3510.63
3518.32
3527.13
3537.12
3548.39
3561.05
3575.19
3590.92
3608.35
3627.56
3648.61
3671.53
3696.31
3722.9
3751.16
3780.75
3808.65
3840.02
3872.1
3904.33
3936.26
3967.52
3997.65
4026.22
4052.85
4077.16
4098.78
4117.41
4132.77
4144.67
4152.95
4157.52
4158.26
4155.27
4148.66
4138.57
4125.2
4108.84
4089.77
4068.29
4044.77
4019.54
3992.91
3965.25
3936.83
3907.97
3878.92
3849.91
3821.18
3793.06
3765.86
3738.97
3712.88
3687.73
3663.64
3640.72
3619.04
3598.69
3579.71
3562.18
3546.14
3531.63
3518.68
3507.34
3497.63
3489.55
3483.1
3597.65
3627.29
3658.65
3691.38
3716.67
3751.54
3786.74
3821.69
3856.09
3889.63
3921.91
3952.53
3981.1
4007.19
4030.41
4050.38
4066.76
4079.32
4087.86
4092.24
4092.29
4088.17
4079.96
4067.71
4051.64
4031.98
4009.06
3983.18
3954.75
3924.17
3891.86
3858.29
3823.9
3789.16
3754.63
3723.46
3690.38
3657.85
3626.37
3596.23
3567.63
3540.68
3515.49
3492.09
3470.52
3450.77
3432.83
3416.67
3402.27
3389.57
3378.54
3369.13
3361.31
3355.04
3350.29
3347.05
3345.35
3345.26
3346.64
3349.56
3354.02
3360.06
3367.73
3377.05
3388.06
3400.83
3415.36
3431.68
3449.79
3469.69
3491.38
3514.78
3539.84
3566.45
3594.52
3623.9
3654.44
3685.94
3718.37
3751.44
3784.68
3817.82
3850.58
3882.63
3913.64
3943.25
3971.08
3996.76
4019.92
4040.24
4057.42
4071.2
4081.38
4087.78
4090.28
4088.82
4083.44
4074.17
4061.08
4044.34
4024.17
4000.83
3974.62
3945.9
3915.07
3882.53
3848.74
3814.13
3779.16
3744.25
3709.8
3676.17
3643.68
3612.59
3583.1
3555.37
3529.52
3505.61
3483.68
3463.72
3445.73
3429.68
3415.51
3403.17
3392.61
3383.76
3376.56
3370.94
3366.83
3364.19
3362.97
3363.08
3364.5
3367.19
3371.15
3376.35
3382.81
3390.54
3399.57
3409.94
3421.7
3434.89
3449.56
3465.76
3483.52
3502.88
3523.85
3546.42
3570.57
3596.24
3623.36
3651.82
3681.48
3712.16
3743.66
3775.68
3807.95
3840.15
3871.93
3902.93
3932.76
3961.01
3987.3
4011.24
4032.44
4050.56
4065.27
4076.31
4083.46
4086.53
4085.48
4080.29
4071.02
4057.78
4040.8
4020.35
3996.76
3970.42
3941.73
3911.15
3879.13
3846.13
3812.59
3778.94
3745.56
3712.81
3680.99
3650.36
3621.13
3593.46
3567.47
3543.24
3520.79
3500.14
3481.27
3464.15
3448.74
3434.99
3422.85
3412.26
3403.17
3395.52
3389.24
3384.29
3380.6
3378.12
3376.85
3376.78
3377.88
3380.17
3383.68
3388.42
3394.39
3401.6
3410.08
3419.83
3430.9
3443.31
3457.1
3472.33
3489.04
3507.27
3527.05
3548.36
3571.2
3595.5
3621.2
3648.2
3676.37
3705.56
3735.59
3766.24
3797.26
3828.35
3859.19
3889.43
3918.71
3946.64
3972.84
3996.92
4018.52
4037.28
4052.87
4064.98
4073.37
4077.85
4078.23
4074.53
4066.79
4055.06
4039.53
4020.47
3998.19
3973.08
3945.55
3916.06
3885.07
3853.04
3820.43
3787.63
3755.03
3722.98
3691.75
3661.62
3632.82
3605.51
3579.85
3555.92
3533.76
3513.38
3494.76
3477.84
3462.56
3448.87
3436.7
3426.01
3416.75
3408.86
3402.32
3397.07
3393.13
3390.32
3388.61
3387.98
3388.39
3389.81
3392.27
3395.76
3400.29
3405.85
3412.45
3420.13
3428.93
3438.92
3450.18
3462.83
3476.96
3492.68
3510.1
3529.3
3550.34
3573.26
3598.04
3624.64
3652.91
3682.55
3710.4
3741.82
3773.94
3806.21
3838.17
3869.46
3899.63
3928.24
3954.9
3979.24
4000.89
4019.55
4034.93
4046.85
4055.14
4059.71
4060.46
4057.45
4050.83
4040.72
4027.33
4010.94
3991.83
3970.33
3946.78
3921.51
3894.86
3867.17
3838.73
3809.85
3780.78
3751.76
3723.01
3694.88
3667.67
3640.78
3614.67
3589.52
3565.42
3542.5
3520.82
3500.46
3481.49
3463.95
3447.91
3433.39
3420.45
3409.11
3399.39
3391.31
3384.87
3499.27
3528.92
3560.28
3593.05
3618.47
3653.37
3688.59
3723.57
3758.01
3791.6
3823.94
3854.61
3883.23
3909.39
3932.66
3952.67
3969.1
3981.69
3990.25
3994.64
3994.69
3990.56
3982.32
3970.04
3953.93
3934.23
3911.25
3885.32
3856.83
3826.19
3793.83
3760.21
3725.76
3690.96
3656.35
3625.25
3592.11
3559.55
3528.05
3497.89
3469.28
3442.33
3417.14
3393.74
3372.18
3352.43
3334.5
3318.35
3303.95
3291.26
3280.24
3270.84
3263.02
3256.75
3252.01
3248.77
3247.07
3246.98
3248.36
3251.27
3255.73
3261.76
3269.43
3278.74
3289.75
3302.5
3317.03
3333.35
3351.46
3371.36
3393.04
3416.45
3441.51
3468.13
3496.21
3525.61
3556.16
3587.68
3620.14
3653.24
3686.51
3719.68
3752.48
3784.58
3815.63
3845.29
3873.17
3898.9
3922.11
3942.48
3959.7
3973.51
3983.71
3990.13
3992.65
3991.17
3985.79
3976.5
3963.38
3946.61
3926.4
3903.01
3876.75
3847.98
3817.08
3784.49
3750.64
3715.98
3680.96
3646
3611.52
3577.86
3545.34
3514.23
3484.73
3457
3431.15
3407.24
3385.31
3365.36
3347.38
3331.34
3317.18
3304.85
3294.3
3285.46
3278.27
3272.66
3268.55
3265.92
3264.7
3264.82
3266.24
3268.94
3272.89
3278.1
3284.55
3292.28
3301.3
3311.66
3323.41
3336.59
3351.26
3367.45
3385.21
3404.56
3425.53
3448.1
3472.24
3497.92
3525.05
3553.52
3583.2
3613.9
3645.43
3677.48
3709.78
3742.02
3773.85
3804.9
3834.78
3863.09
3889.43
3913.42
3934.67
3952.83
3967.59
3978.66
3985.83
3988.93
3987.85
3982.66
3973.36
3960.1
3943.07
3922.57
3898.93
3872.53
3843.78
3813.14
3781.07
3748.01
3714.43
3680.73
3647.31
3614.53
3582.68
3552.03
3522.79
3495.12
3469.12
3444.89
3422.45
3401.8
3382.94
3365.83
3350.43
3336.69
3324.55
3313.97
3304.89
3297.25
3290.98
3286.03
3282.35
3279.88
3278.61
3278.53
3279.63
3281.93
3285.43
3290.17
3296.13
3303.35
3311.82
3321.57
3332.63
3345.03
3358.81
3374.04
3390.74
3408.97
3428.73
3450.05
3472.88
3497.19
3522.9
3549.91
3578.1
3607.31
3637.36
3668.04
3699.09
3730.21
3761.1
3791.39
3820.71
3848.69
3874.94
3899.08
3920.73
3939.53
3955.16
3967.31
3975.73
3980.22
3980.61
3976.9
3969.15
3957.39
3941.82
3922.72
3900.38
3875.21
3847.62
3818.07
3787.02
3754.94
3722.27
3689.43
3656.8
3624.71
3593.46
3563.31
3534.49
3507.17
3481.51
3457.58
3435.43
3415.06
3396.44
3379.53
3364.27
3350.58
3338.42
3327.74
3318.49
3310.61
3304.08
3298.84
3294.9
3292.09
3290.39
3289.76
3290.17
3291.6
3294.05
3297.54
3302.06
3307.62
3314.22
3321.89
3330.68
3340.66
3351.91
3364.54
3378.66
3394.37
3411.77
3430.95
3451.99
3474.9
3499.69
3526.29
3554.59
3584.29
3612.09
3643.59
3675.76
3708.07
3740.08
3771.43
3801.65
3830.31
3857.03
3881.42
3903.12
3921.81
3937.23
3949.17
3957.47
3962.04
3962.81
3959.77
3953.13
3942.99
3929.56
3913.13
3893.98
3872.43
3848.84
3823.53
3796.83
3769.1
3740.63
3711.72
3682.62
3653.58
3624.81
3596.67
3569.44
3542.53
3516.41
3491.25
3467.15
3444.22
3422.54
3402.17
3383.2
3365.66
3349.61
3335.1
3322.15
3310.81
3301.09
3293.01
3286.57
3400.81
3430.47
3461.83
3494.62
3520.24
3555.17
3590.42
3625.45
3659.94
3693.59
3726
3756.74
3785.45
3811.68
3835.02
3855.1
3871.58
3884.21
3892.79
3897.19
3897.26
3893.11
3884.84
3872.52
3856.35
3836.59
3813.54
3787.54
3758.98
3728.26
3695.82
3662.12
3627.6
3592.72
3558.01
3527.01
3493.8
3461.18
3429.64
3399.47
3370.85
3343.9
3318.7
3295.32
3273.75
3254.02
3236.1
3219.96
3205.57
3192.89
3181.87
3172.48
3164.67
3158.41
3153.67
3150.43
3148.73
3148.63
3150.02
3152.93
3157.38
3163.4
3171.06
3180.36
3191.36
3204.11
3218.63
3234.94
3253.04
3272.94
3294.63
3318.04
3343.11
3369.74
3397.84
3427.24
3457.82
3489.37
3521.86
3555.01
3588.32
3621.53
3654.39
3686.54
3717.66
3747.38
3775.33
3801.13
3824.4
3844.83
3862.1
3875.96
3886.19
3892.64
3895.17
3893.69
3888.29
3878.97
3865.82
3849
3828.73
3805.28
3778.95
3750.11
3719.14
3686.47
3652.54
3617.81
3582.72
3547.71
3513.17
3479.48
3446.93
3415.79
3386.28
3358.54
3332.69
3308.78
3286.86
3266.92
3248.95
3232.92
3218.77
3206.46
3195.92
3187.09
3179.91
3174.31
3170.22
3167.6
3166.38
3166.51
3167.93
3170.63
3174.59
3179.79
3186.24
3193.96
3202.98
3213.33
3225.07
3238.24
3252.89
3269.08
3286.83
3306.17
3327.13
3349.7
3373.85
3399.53
3426.67
3455.16
3484.86
3515.59
3547.15
3579.25
3611.6
3643.89
3675.78
3706.89
3736.84
3765.22
3791.64
3815.7
3837.02
3855.24
3870.05
3881.16
3888.36
3891.48
3890.39
3885.19
3875.86
3862.55
3845.47
3824.91
3801.19
3774.71
3745.89
3715.17
3683.02
3649.89
3616.24
3582.48
3549.01
3516.19
3484.3
3453.63
3424.37
3396.69
3370.69
3346.46
3324.02
3303.39
3284.54
3267.44
3252.05
3238.32
3226.2
3215.63
3206.56
3198.92
3192.67
3187.73
3184.05
3181.58
3180.32
3180.24
3181.34
3183.63
3187.13
3191.86
3197.83
3205.04
3213.5
3223.25
3234.3
3246.69
3260.47
3275.68
3292.37
3310.59
3330.36
3351.67
3374.5
3398.82
3424.54
3451.56
3479.77
3509
3539.08
3569.8
3600.89
3632.07
3663.01
3693.36
3722.75
3750.8
3777.12
3801.32
3823.04
3841.91
3857.59
3869.78
3878.23
3882.75
3883.15
3879.44
3871.66
3859.86
3844.25
3825.08
3802.67
3777.42
3749.75
3720.12
3688.99
3656.83
3624.1
3591.2
3558.52
3526.39
3495.1
3464.93
3436.08
3408.76
3383.09
3359.16
3337.01
3316.65
3298.05
3281.16
3265.9
3252.23
3240.08
3229.41
3220.17
3212.31
3205.79
3200.56
3196.62
3193.81
3192.12
3191.5
3191.91
3193.34
3195.79
3199.28
3203.8
3209.35
3215.94
3223.61
3232.39
3242.35
3253.58
3266.2
3280.29
3295.98
3313.37
3332.53
3353.56
3376.46
3401.25
3427.87
3456.19
3485.98
3513.71
3545.3
3577.54
3609.91
3641.99
3673.41
3703.71
3732.44
3759.23
3783.68
3805.44
3824.19
3839.66
3851.63
3859.95
3864.53
3865.3
3862.24
3855.57
3845.38
3831.91
3815.42
3796.21
3774.6
3750.95
3725.58
3698.83
3671.05
3642.53
3613.58
3584.45
3555.37
3526.58
3498.41
3471.15
3444.23
3418.1
3392.93
3368.82
3345.88
3324.19
3303.82
3284.84
3267.3
3251.25
3236.73
3223.79
3212.44
3202.73
3194.65
3188.2
3302.25
3331.92
3363.29
3396.11
3421.99
3456.95
3492.24
3527.32
3561.88
3595.61
3628.1
3658.94
3687.74
3714.07
3737.5
3757.66
3774.2
3786.88
3795.5
3799.91
3799.99
3795.82
3787.51
3775.13
3758.9
3739.07
3715.93
3689.84
3661.18
3630.37
3597.84
3564.05
3529.43
3494.45
3459.62
3428.74
3395.42
3362.73
3331.17
3300.97
3272.34
3245.38
3220.18
3196.8
3175.25
3155.53
3137.62
3121.49
3107.11
3094.45
3083.44
3074.06
3066.26
3060.01
3055.27
3052.04
3050.32
3050.23
3051.61
3054.52
3058.96
3064.98
3072.62
3081.92
3092.9
3105.64
3120.15
3136.45
3154.55
3174.45
3196.13
3219.55
3244.63
3271.28
3299.39
3328.82
3359.42
3391.01
3423.53
3456.74
3490.1
3523.37
3556.3
3588.52
3619.72
3649.52
3677.55
3703.43
3726.79
3747.29
3764.63
3778.54
3788.82
3795.29
3797.84
3796.36
3790.95
3781.6
3768.4
3751.52
3731.18
3707.65
3681.23
3652.3
3621.23
3588.47
3554.44
3519.62
3484.45
3449.37
3414.77
3381.02
3348.43
3317.27
3287.74
3259.99
3234.14
3210.24
3188.32
3168.4
3150.44
3134.42
3120.29
3107.99
3097.47
3088.65
3081.49
3075.9
3071.83
3069.22
3068.01
3068.14
3069.57
3072.28
3076.23
3081.43
3087.88
3095.59
3104.6
3114.94
3126.66
3139.82
3154.46
3170.63
3188.37
3207.71
3228.67
3251.23
3275.38
3301.07
3328.23
3356.74
3386.46
3417.22
3448.84
3480.98
3513.39
3545.75
3577.72
3608.91
3638.95
3667.42
3693.92
3718.07
3739.47
3757.77
3772.65
3783.81
3791.05
3794.18
3793.11
3787.88
3778.51
3765.15
3748
3727.36
3703.55
3676.97
3648.04
3617.23
3584.98
3551.76
3518.02
3484.19
3450.66
3417.78
3385.86
3355.15
3325.87
3298.18
3272.18
3247.95
3225.52
3204.9
3186.06
3168.98
3153.6
3139.88
3127.78
3117.22
3108.16
3100.55
3094.3
3089.37
3085.71
3083.25
3081.98
3081.9
3083
3085.29
3088.79
3093.51
3099.47
3106.68
3115.14
3124.88
3135.92
3148.3
3162.06
3177.26
3193.94
3212.15
3231.91
3253.22
3276.06
3300.38
3326.11
3353.15
3381.38
3410.64
3440.76
3471.53
3502.68
3533.91
3564.93
3595.36
3624.83
3652.96
3679.36
3703.65
3725.45
3744.4
3760.15
3772.4
3780.9
3785.44
3785.86
3782.14
3774.32
3762.48
3746.8
3727.55
3705.06
3679.71
3651.94
3622.2
3590.97
3558.73
3525.91
3492.94
3460.19
3428.01
3396.68
3366.47
3337.6
3310.26
3284.58
3260.66
3238.52
3218.18
3199.59
3182.71
3167.48
3153.82
3141.68
3131.02
3121.8
3113.95
3107.45
3102.23
3098.29
3095.5
3093.81
3093.19
3093.61
3095.04
3097.49
3100.98
3105.5
3111.05
3117.63
3125.28
3134.04
3143.98
3155.2
3167.79
3181.86
3197.52
3214.88
3234.03
3255.04
3277.94
3302.73
3329.35
3357.71
3387.62
3415.26
3446.98
3479.3
3511.75
3543.91
3575.41
3605.8
3634.62
3661.51
3686.04
3707.88
3726.7
3742.21
3754.23
3762.57
3767.16
3767.93
3764.85
3758.14
3747.9
3734.37
3717.81
3698.53
3676.84
3653.11
3627.67
3600.85
3573
3544.43
3515.43
3486.25
3457.14
3428.31
3400.11
3372.83
3345.89
3319.74
3294.55
3270.43
3247.48
3225.79
3205.41
3186.43
3168.88
3152.83
3138.31
3125.36
3114.01
3104.29
3096.21
3089.77
3203.6
3233.29
3264.66
3297.49
3323.73
3358.71
3394.03
3429.18
3463.82
3497.64
3530.24
3561.2
3590.11
3616.55
3640.09
3660.35
3676.98
3689.71
3698.37
3702.8
3702.88
3698.69
3690.33
3677.9
3661.58
3641.66
3618.42
3592.21
3563.44
3532.52
3499.88
3465.98
3431.25
3396.15
3361.16
3330.44
3296.98
3264.22
3232.61
3202.39
3173.74
3146.78
3121.58
3098.21
3076.67
3056.96
3039.06
3022.95
3008.59
2995.93
2984.94
2975.57
2967.78
2961.54
2956.82
2953.59
2951.85
2951.77
2953.15
2956.06
2960.49
2966.49
2974.12
2983.4
2994.37
3007.1
3021.59
3037.88
3055.98
3075.87
3097.56
3120.98
3146.07
3172.74
3200.87
3230.33
3260.96
3292.59
3325.16
3358.43
3391.85
3425.2
3458.2
3490.52
3521.8
3551.71
3579.84
3605.82
3629.27
3649.87
3667.28
3681.27
3691.59
3698.1
3700.66
3699.19
3693.76
3684.36
3671.11
3654.17
3633.75
3610.12
3583.59
3554.54
3523.36
3490.48
3456.35
3421.42
3386.15
3350.98
3316.31
3282.5
3249.86
3218.67
3189.11
3161.36
3135.5
3111.6
3089.7
3069.78
3051.85
3035.84
3021.73
3009.45
2998.95
2990.15
2983
2977.44
2973.38
2970.78
2969.59
2969.73
2971.17
2973.87
2977.83
2983.03
2989.47
2997.17
3006.16
3016.49
3028.2
3041.34
3055.97
3072.12
3089.85
3109.18
3130.13
3152.69
3176.84
3202.54
3229.71
3258.24
3288
3318.8
3350.47
3382.68
3415.16
3447.61
3479.67
3510.96
3541.09
3569.67
3596.29
3620.54
3642.04
3660.43
3675.39
3686.62
3693.89
3697.05
3695.98
3690.73
3681.32
3667.89
3650.66
3629.91
3605.99
3579.3
3550.25
3519.32
3486.95
3453.62
3419.79
3385.87
3352.26
3319.32
3287.35
3256.6
3227.3
3199.59
3173.59
3149.36
3126.94
3106.33
3087.51
3070.44
3055.08
3041.38
3029.29
3018.75
3009.71
3002.11
2995.88
2990.97
2987.31
2984.86
2983.6
2983.52
2984.61
2986.89
2990.39
2995.11
3001.07
3008.27
3016.72
3026.45
3037.48
3049.85
3063.59
3078.78
3095.44
3113.64
3133.39
3154.69
3177.54
3201.87
3227.62
3254.68
3282.94
3312.24
3342.4
3373.23
3404.44
3435.75
3466.85
3497.37
3526.94
3555.17
3581.68
3606.07
3627.97
3647.01
3662.84
3675.17
3683.71
3688.29
3688.72
3685
3677.14
3665.24
3649.49
3630.14
3607.54
3582.07
3554.18
3524.32
3492.98
3460.62
3427.7
3394.64
3361.82
3329.57
3298.2
3267.95
3239.05
3211.68
3186
3162.07
3139.95
3119.62
3101.06
3084.2
3068.98
3055.35
3043.22
3032.58
3023.37
3015.54
3009.06
3003.85
2999.92
2997.14
2995.46
2994.85
2995.27
2996.7
2999.16
3002.64
3007.16
3012.7
3019.27
3026.91
3035.65
3045.57
3056.75
3069.32
3083.35
3098.99
3116.33
3135.45
3156.44
3179.33
3204.12
3230.76
3259.16
3289.18
3316.75
3348.62
3381.02
3413.57
3445.83
3477.44
3507.93
3536.87
3563.86
3588.49
3610.42
3629.32
3644.9
3656.97
3665.35
3669.94
3670.71
3667.61
3660.85
3650.55
3636.94
3620.3
3600.93
3579.15
3555.32
3529.79
3502.89
3474.97
3446.33
3417.27
3388.03
3358.87
3330.01
3301.78
3274.45
3247.49
3221.33
3196.12
3171.99
3149.03
3127.32
3106.94
3087.94
3070.39
3054.34
3039.81
3026.86
3015.51
3005.8
2997.71
2991.27
3104.86
3134.57
3165.94
3198.75
3225.47
3260.43
3295.81
3331.04
3365.77
3399.7
3432.42
3463.51
3492.57
3519.14
3542.81
3563.18
3579.89
3592.7
3601.4
3605.86
3605.94
3601.73
3593.31
3580.8
3564.4
3544.37
3521.01
3494.67
3465.77
3434.71
3401.94
3367.91
3333.06
3297.81
3262.64
3232.09
3198.49
3165.64
3133.98
3103.73
3075.06
3048.09
3022.9
2999.53
2978
2958.31
2940.43
2924.34
2909.99
2897.35
2886.38
2877.03
2869.25
2863.02
2858.3
2855.08
2853.33
2853.26
2854.63
2857.53
2861.95
2867.94
2875.56
2884.82
2895.77
2908.48
2922.96
2939.24
2957.33
2977.22
2998.91
3022.34
3047.44
3074.12
3102.28
3131.77
3162.44
3194.12
3226.74
3260.09
3293.58
3327.02
3360.11
3392.53
3423.92
3453.94
3482.2
3508.29
3531.86
3552.56
3570.07
3584.13
3594.52
3601.06
3603.64
3602.18
3596.72
3587.28
3573.96
3556.94
3536.42
3512.68
3486.03
3456.85
3425.54
3392.52
3358.26
3323.2
3287.82
3252.54
3217.78
3183.9
3151.21
3119.98
3090.4
3062.63
3036.77
3012.88
2990.98
2971.09
2953.17
2937.19
2923.1
2910.84
2900.36
2891.59
2884.46
2878.91
2874.87
2872.29
2871.11
2871.26
2872.71
2875.42
2879.38
2884.57
2891
2898.7
2907.68
2917.99
2929.68
2942.8
2957.41
2973.55
2991.26
3010.58
3031.51
3054.07
3078.23
3103.94
3131.12
3159.69
3189.48
3220.33
3252.07
3284.34
3316.91
3349.46
3381.62
3413.03
3443.28
3471.99
3498.73
3523.11
3544.73
3563.22
3578.27
3589.57
3596.9
3600.09
3599.02
3593.74
3584.27
3570.77
3553.44
3532.58
3508.53
3481.7
3452.52
3421.44
3388.94
3355.48
3321.53
3287.51
3253.81
3220.79
3188.76
3157.98
3128.64
3100.92
3074.91
3050.68
3028.27
3007.68
2988.88
2971.83
2956.49
2942.81
2930.74
2920.23
2911.21
2903.62
2897.41
2892.52
2888.87
2886.43
2885.17
2885.08
2886.17
2888.45
2891.95
2896.66
2902.61
2909.81
2918.25
2927.97
2938.98
2951.34
2965.07
2980.23
2996.88
3015.06
3034.8
3056.1
3078.95
3103.29
3129.05
3156.14
3184.43
3213.78
3243.99
3274.89
3306.17
3337.57
3368.77
3399.4
3429.08
3457.44
3484.06
3508.57
3530.59
3549.74
3565.67
3578.08
3586.69
3591.3
3591.75
3588.01
3580.12
3568.15
3552.31
3532.85
3510.12
3484.52
3456.48
3426.48
3395
3362.51
3329.48
3296.31
3263.4
3231.08
3199.64
3169.35
3140.41
3113.03
3087.33
3063.41
3041.3
3020.99
3002.45
2985.62
2970.43
2956.81
2944.7
2934.08
2924.89
2917.08
2910.61
2905.43
2901.51
2898.74
2897.07
2896.47
2896.89
2898.32
2900.78
2904.26
2908.77
2914.31
2920.86
2928.49
2937.21
2947.1
2958.26
2970.79
2984.79
3000.39
3017.69
3036.79
3057.76
3080.63
3105.42
3132.08
3160.51
3190.65
3218.21
3250.21
3282.72
3315.37
3347.75
3379.48
3410.11
3439.17
3466.28
3491.04
3513.08
3532.07
3547.73
3559.85
3568.26
3572.87
3573.63
3570.51
3563.69
3553.32
3539.62
3522.89
3503.41
3481.52
3457.59
3431.96
3404.96
3376.95
3348.23
3319.09
3289.79
3260.58
3231.67
3203.4
3176.03
3149.05
3122.86
3097.64
3073.49
3050.51
3028.79
3008.4
2989.4
2971.84
2955.78
2941.25
2928.3
2916.95
2907.23
2899.15
2892.7
3006.03
3035.76
3067.14
3099.91
3127.2
3162.14
3197.57
3232.88
3267.73
3301.78
3334.64
3365.88
3395.09
3421.82
3445.64
3466.14
3482.96
3495.85
3504.61
3509.08
3509.17
3504.93
3496.45
3483.85
3467.34
3447.19
3423.7
3397.21
3368.16
3336.95
3304.02
3269.85
3234.85
3199.45
3164.05
3133.71
3099.93
3066.98
3035.26
3004.98
2976.29
2949.32
2924.13
2900.77
2879.26
2859.58
2841.72
2825.65
2811.32
2798.71
2787.75
2778.41
2770.65
2764.43
2759.73
2756.51
2754.75
2754.68
2756.05
2758.94
2763.35
2769.32
2776.92
2786.16
2797.1
2809.79
2824.26
2840.52
2858.6
2878.49
2900.18
2923.61
2948.73
2975.43
3003.62
3033.14
3063.86
3095.59
3128.28
3161.71
3195.29
3228.82
3262.02
3294.55
3326.08
3356.23
3384.61
3410.84
3434.54
3455.36
3472.98
3487.13
3497.59
3504.18
3506.78
3505.32
3499.83
3490.34
3476.95
3459.83
3439.2
3415.33
3388.55
3359.22
3327.75
3294.58
3260.16
3224.96
3189.45
3154.05
3119.19
3085.23
3052.48
3021.2
2991.59
2963.81
2937.94
2914.06
2892.18
2872.31
2854.41
2838.45
2824.39
2812.16
2801.7
2792.95
2785.85
2780.32
2776.31
2773.75
2772.58
2772.74
2774.2
2776.92
2780.87
2786.06
2792.49
2800.17
2809.13
2819.43
2831.1
2844.2
2858.78
2874.9
2892.6
2911.9
2932.83
2955.38
2979.54
3005.26
3032.47
3061.06
3090.9
3121.8
3153.62
3185.98
3218.64
3251.3
3283.58
3315.12
3345.51
3374.36
3401.25
3425.77
3447.52
3466.15
3481.3
3492.69
3500.07
3503.29
3502.23
3496.91
3487.39
3473.79
3456.35
3435.36
3411.17
3384.18
3354.83
3323.59
3290.93
3257.33
3223.24
3189.1
3155.31
3122.21
3090.11
3059.27
3029.9
3002.16
2976.14
2951.92
2929.53
2908.95
2890.17
2873.15
2857.83
2844.18
2832.13
2821.64
2812.64
2805.08
2798.89
2794.01
2790.38
2787.95
2786.7
2786.61
2787.69
2789.97
2793.45
2798.16
2804.11
2811.29
2819.73
2829.43
2840.44
2852.77
2866.48
2881.62
2898.25
2916.42
2936.14
2957.44
2980.29
3004.64
3030.43
3057.55
3085.88
3115.26
3145.54
3176.51
3207.88
3239.39
3270.7
3301.45
3331.27
3359.76
3386.52
3411.17
3433.31
3452.59
3468.63
3481.13
3489.82
3494.47
3494.95
3491.2
3483.25
3471.21
3455.26
3435.68
3412.8
3387.04
3358.84
3328.67
3297.03
3264.4
3231.23
3197.95
3164.94
3132.53
3101.03
3070.67
3041.7
3014.29
2988.58
2964.67
2942.57
2922.29
2903.77
2886.97
2871.8
2858.21
2846.13
2835.52
2826.35
2818.56
2812.12
2806.95
2803.05
2800.3
2798.64
2798.04
2798.46
2799.9
2802.36
2805.84
2810.35
2815.88
2822.42
2830.02
2838.72
2848.58
2859.7
2872.19
2886.15
2901.71
2918.98
2938.05
2958.99
2981.85
3006.64
3033.31
3061.78
3092.01
3119.66
3151.77
3184.39
3217.16
3249.67
3281.55
3312.32
3341.53
3368.78
3393.67
3415.84
3434.94
3450.69
3462.87
3471.33
3475.96
3476.71
3473.55
3466.67
3456.21
3442.41
3425.57
3405.97
3383.96
3359.91
3334.16
3307.05
3278.94
3250.12
3220.9
3191.53
3162.26
3133.31
3104.98
3077.57
3050.56
3024.34
2999.09
2974.92
2951.93
2930.2
2909.8
2890.79
2873.23
2857.16
2842.63
2829.67
2818.32
2808.6
2800.52
2794.07
2907.1
2936.86
2968.25
3000.98
3028.89
3063.81
3099.3
3134.72
3169.68
3203.88
3236.9
3268.31
3297.7
3324.61
3348.58
3369.23
3386.17
3399.15
3407.97
3412.48
3412.56
3408.29
3399.74
3387.05
3370.42
3350.13
3326.48
3299.83
3270.6
3239.22
3206.13
3171.79
3136.63
3101.06
3065.42
3035.29
3001.3
2968.25
2936.47
2906.15
2877.44
2850.46
2825.27
2801.93
2780.43
2760.77
2742.93
2726.89
2712.58
2699.99
2689.05
2679.73
2671.99
2665.78
2661.09
2657.88
2656.11
2656.05
2657.42
2660.29
2664.68
2670.64
2678.22
2687.44
2698.35
2711.02
2725.47
2741.72
2759.79
2779.68
2801.36
2824.81
2849.94
2876.67
2904.89
2934.45
2965.21
2997
3029.78
3063.3
3096.97
3130.61
3163.92
3196.59
3228.26
3258.55
3287.09
3313.47
3337.32
3358.28
3376.02
3390.27
3400.81
3407.45
3410.08
3408.62
3403.1
3393.55
3380.08
3362.86
3342.1
3318.08
3291.14
3261.64
3230
3196.65
3162.07
3126.71
3091.04
3055.52
3020.54
2986.49
2953.66
2922.33
2892.7
2864.9
2839.03
2815.16
2793.3
2773.44
2755.57
2739.64
2725.61
2713.4
2702.98
2694.26
2687.18
2681.68
2677.69
2675.15
2673.99
2674.18
2675.64
2678.36
2682.32
2687.51
2693.93
2701.59
2710.54
2720.81
2732.45
2745.53
2760.09
2776.19
2793.87
2813.15
2834.07
2856.62
2880.78
2906.51
2933.74
2962.37
2992.26
3023.22
3055.13
3087.57
3120.35
3153.13
3185.55
3217.23
3247.79
3276.79
3303.84
3328.52
3350.43
3369.2
3384.47
3395.95
3403.41
3406.66
3405.6
3400.25
3390.65
3376.96
3359.39
3338.25
3313.89
3286.72
3257.2
3225.77
3192.94
3159.18
3124.94
3090.66
3056.75
3023.56
2991.38
2960.49
2931.09
2903.32
2877.3
2853.08
2830.7
2810.14
2791.39
2774.39
2759.11
2745.48
2733.46
2722.99
2714.02
2706.48
2700.32
2695.46
2691.85
2689.43
2688.18
2688.08
2689.16
2691.43
2694.91
2699.61
2705.55
2712.73
2721.16
2730.85
2741.83
2754.14
2767.83
2782.95
2799.56
2817.7
2837.42
2858.71
2881.56
2905.92
2931.73
2958.88
2987.26
3016.7
3047.04
3078.1
3109.57
3141.19
3172.62
3203.52
3233.48
3262.12
3289.04
3313.85
3336.14
3355.56
3371.73
3384.34
3393.1
3397.81
3398.31
3394.54
3386.54
3374.41
3358.35
3338.62
3315.58
3289.64
3261.25
3230.9
3199.08
3166.28
3132.96
3099.55
3066.43
3033.93
3002.34
2971.93
2942.91
2915.47
2889.75
2865.84
2843.76
2823.5
2805.02
2788.25
2773.12
2759.55
2747.49
2736.91
2727.76
2720
2713.58
2708.44
2704.55
2701.81
2700.17
2699.58
2700
2701.44
2703.91
2707.39
2711.89
2717.4
2723.93
2731.51
2740.18
2750
2761.09
2773.54
2787.45
2802.96
2820.19
2839.22
2860.14
2882.98
2907.77
2934.46
2962.96
2993.25
3021.08
3053.29
3086.03
3118.93
3151.59
3183.63
3214.57
3243.94
3271.36
3296.4
3318.7
3337.93
3353.78
3366.04
3374.54
3379.19
3379.93
3376.73
3369.78
3359.23
3345.32
3328.35
3308.62
3286.46
3262.28
3236.39
3209.16
3180.93
3152.02
3122.71
3093.25
3063.92
3034.9
3006.52
2979.06
2952.01
2925.77
2900.5
2876.3
2853.3
2831.55
2811.14
2792.12
2774.55
2758.47
2743.94
2730.97
2719.62
2709.9
2701.82
2695.37
2808.09
2837.88
2869.27
2901.98
2930.54
2965.44
3001.01
3036.54
3071.64
3105.99
3139.19
3170.79
3200.39
3227.49
3251.65
3272.46
3289.54
3302.62
3311.5
3316.05
3316.12
3311.81
3303.19
3290.39
3273.63
3253.19
3229.36
3202.52
3173.11
3141.54
3108.25
3073.73
3038.4
3002.64
2966.75
2936.8
2902.6
2869.45
2837.6
2807.23
2778.51
2751.52
2726.33
2703
2681.52
2661.88
2644.07
2628.05
2613.77
2601.21
2590.29
2580.99
2573.27
2567.08
2562.4
2559.2
2557.43
2557.36
2558.72
2561.58
2565.96
2571.9
2579.45
2588.65
2599.54
2612.18
2626.61
2642.84
2660.9
2680.78
2702.47
2725.93
2751.08
2777.83
2806.09
2835.69
2866.51
2898.36
2931.23
2964.85
2998.62
3032.39
3065.83
3098.64
3130.47
3160.93
3189.64
3216.19
3240.2
3261.31
3279.18
3293.55
3304.17
3310.88
3313.53
3312.08
3306.53
3296.91
3283.35
3266.01
3245.11
3220.93
3193.81
3164.13
3132.29
3098.75
3063.97
3028.43
2992.6
2956.93
2921.83
2887.67
2854.77
2823.38
2793.71
2765.89
2740.03
2716.16
2694.32
2674.49
2656.65
2640.75
2626.75
2614.58
2604.18