/*--------------------------------*- C++ -*----------------------------------*\
| =========                 |                                                 |
| \\      /  F ield         | OpenFOAM: The Open Source CFD Toolbox           |
|  \\    /   O peration     | Version:  3.0.1                                 |
|   \\  /    A nd           | Web:      www.OpenFOAM.org                      |
|    \\/     M anipulation  |                                                 |
\*---------------------------------------------------------------------------*/
FoamFile
{
    version     2.0;
    format      ascii;
    class       surfaceScalarField;
    location    "11.4";
    object      alphaPhi;
}
// * * * * * * * * * * * * * * * * * * * * * * * * * * * * * * * * * * * * * //

dimensions      [0 3 -1 0 0 0 0];

internalField   nonuniform List<scalar> 
42423
(
-0.000148002
-5.52036e-06
-0.000141375
-6.62705e-06
-0.000133773
-7.60304e-06
-0.000125145
-8.62756e-06
-0.000115265
-9.88033e-06
-0.000104302
-1.09642e-05
-9.20857e-05
-1.22165e-05
-7.88586e-05
-1.32276e-05
-6.46149e-05
-1.42441e-05
-4.93072e-05
-1.53083e-05
-3.31343e-05
-1.61734e-05
-1.62455e-05
-1.68894e-05
1.38766e-06
-1.76337e-05
1.94509e-05
-1.80638e-05
3.78778e-05
-1.84275e-05
5.63278e-05
-1.84505e-05
7.44141e-05
-1.80869e-05
9.20224e-05
-1.76089e-05
0.00010886
-1.68383e-05
0.000124517
-1.56577e-05
0.0001387
-1.41837e-05
0.000151143
-1.24431e-05
0.000161531
-1.03879e-05
0.000169602
-8.0717e-06
0.000175111
-5.5099e-06
0.000177881
-2.77006e-06
0.000178006
-1.25493e-07
0.000175626
2.37904e-06
0.00017077
4.85603e-06
0.000163499
7.27028e-06
0.000153943
9.55549e-06
0.000142692
1.12506e-05
0.000129826
1.28661e-05
0.000115982
1.38432e-05
0.000101323
1.46587e-05
8.61858e-05
1.51372e-05
7.11405e-05
1.5045e-05
5.63595e-05
1.47808e-05
4.19732e-05
1.43861e-05
2.84427e-05
1.35303e-05
1.5671e-05
1.27715e-05
4.1902e-06
1.14806e-05
-5.75756e-06
9.94762e-06
-1.4188e-05
8.43031e-06
-2.11983e-05
7.01024e-06
-2.68695e-05
5.67103e-06
-3.12695e-05
4.39998e-06
-3.44739e-05
3.20431e-06
-3.65986e-05
2.12463e-06
-3.77918e-05
1.1932e-06
-3.81659e-05
3.74085e-07
-3.80598e-05
-1.06187e-07
-3.76434e-05
-4.16414e-07
-3.69718e-05
-6.71623e-07
-3.61007e-05
-8.71151e-07
-3.50718e-05
-1.0289e-06
-3.39451e-05
-1.1267e-06
-3.27579e-05
-1.1872e-06
-3.15305e-05
-1.22741e-06
-3.02914e-05
-1.23914e-06
-2.90468e-05
-1.24458e-06
-2.7805e-05
-1.24177e-06
-2.65631e-05
-1.24193e-06
-2.52995e-05
-1.26365e-06
-2.39891e-05
-1.31033e-06
-2.26356e-05
-1.35354e-06
-2.12608e-05
-1.37479e-06
-1.98712e-05
-1.38962e-06
-1.84603e-05
-1.41087e-06
-1.70143e-05
-1.44608e-06
-1.55112e-05
-1.50302e-06
-1.39274e-05
-1.58382e-06
-1.22371e-05
-1.69033e-06
-1.0417e-05
-1.82006e-06
-8.44722e-06
-1.96981e-06
-6.31359e-06
-2.13363e-06
-4.00795e-06
-2.30564e-06
-1.53071e-06
-2.47725e-06
1.12699e-06
-2.65769e-06
3.95654e-06
-2.82956e-06
6.94955e-06
-2.99301e-06
1.00727e-05
-3.12315e-06
1.32863e-05
-3.21356e-06
1.65734e-05
-3.2871e-06
1.98823e-05
-3.30896e-06
2.31786e-05
-3.29626e-06
2.64243e-05
-3.24576e-06
2.95554e-05
-3.13103e-06
3.25637e-05
-3.00834e-06
3.53927e-05
-2.82902e-06
3.79722e-05
-2.57949e-06
4.03108e-05
-2.3386e-06
4.23317e-05
-2.02086e-06
4.40371e-05
-1.70545e-06
4.53978e-05
-1.3607e-06
4.63958e-05
-9.98017e-07
4.7019e-05
-6.23228e-07
4.72763e-05
-2.57239e-07
4.71836e-05
9.26958e-08
4.67535e-05
4.30095e-07
4.6018e-05
7.35442e-07
4.50078e-05
1.01026e-06
4.37623e-05
1.24544e-06
4.23212e-05
1.44113e-06
4.07308e-05
1.59042e-06
3.90258e-05
1.70501e-06
3.72411e-05
1.78464e-06
3.54007e-05
1.84046e-06
3.35306e-05
1.87007e-06
3.16505e-05
1.88009e-06
2.97521e-05
1.89842e-06
2.78471e-05
1.90498e-06
2.59286e-05
1.91845e-06
2.3973e-05
1.95566e-06
2.19837e-05
1.98925e-06
1.9949e-05
2.03469e-06
1.78555e-05
2.09348e-06
1.56939e-05
2.16169e-06
1.34673e-05
2.22658e-06
1.11687e-05
2.29856e-06
8.80977e-06
2.35894e-06
6.38067e-06
2.4291e-06
3.90851e-06
2.47215e-06
1.39564e-06
2.51287e-06
-1.13473e-06
2.53036e-06
-3.66326e-06
2.52853e-06
-6.16688e-06
2.50363e-06
-8.61645e-06
2.44956e-06
-1.09738e-05
2.35738e-06
-1.32113e-05
2.23746e-06
-1.53026e-05
2.09133e-06
-1.72028e-05
1.90012e-06
-1.88855e-05
1.68274e-06
-2.03139e-05
1.42843e-06
-2.14674e-05
1.15351e-06
-2.23068e-05
8.39368e-07
-2.28176e-05
5.10768e-07
-2.29792e-05
1.61588e-07
-2.27856e-05
-1.93579e-07
-2.22348e-05
-5.50758e-07
-2.133e-05
-9.04859e-07
-2.00837e-05
-1.2463e-06
-1.85239e-05
-1.55973e-06
-1.66819e-05
-1.842e-06
-1.45909e-05
-2.09107e-06
-1.22889e-05
-2.30201e-06
-9.81352e-06
-2.47536e-06
-7.21526e-06
-2.59826e-06
-4.51945e-06
-2.69581e-06
-1.76113e-06
-2.75832e-06
1.02766e-06
-2.7888e-06
3.83982e-06
-2.81216e-06
6.63634e-06
-2.79652e-06
9.42382e-06
-2.78749e-06
1.22049e-05
-2.78104e-06
1.4939e-05
-2.73417e-06
1.76486e-05
-2.70955e-06
2.03313e-05
-2.68269e-06
2.29558e-05
-2.62452e-06
2.55295e-05
-2.57367e-06
2.80388e-05
-2.50933e-06
3.04707e-05
-2.4319e-06
3.27929e-05
-2.32226e-06
3.5004e-05
-2.21102e-06
3.7064e-05
-2.06004e-06
3.89652e-05
-1.9012e-06
4.06859e-05
-1.72073e-06
4.22e-05
-1.51404e-06
4.35066e-05
-1.30661e-06
4.45647e-05
-1.0581e-06
4.53901e-05
-8.25396e-07
4.59675e-05
-5.77434e-07
4.62973e-05
-3.29809e-07
4.63693e-05
-7.19865e-08
4.62082e-05
1.61108e-07
4.58135e-05
3.94682e-07
4.51973e-05
6.16187e-07
4.43743e-05
8.23051e-07
4.33601e-05
1.01412e-06
4.21742e-05
1.18589e-06
4.08312e-05
1.34308e-06
3.93491e-05
1.48205e-06
3.77514e-05
1.59772e-06
3.60349e-05
1.71646e-06
3.42294e-05
1.80555e-06
3.23374e-05
1.89198e-06
3.03765e-05
1.96086e-06
2.83518e-05
2.02475e-06
2.62572e-05
2.09452e-06
2.40904e-05
2.16686e-06
2.18706e-05
2.21975e-06
1.95876e-05
2.28297e-06
1.72411e-05
2.3465e-06
1.48276e-05
2.41349e-06
1.23489e-05
2.47874e-06
9.81235e-06
2.53654e-06
7.20927e-06
2.60308e-06
4.55798e-06
2.65129e-06
1.867e-06
2.69098e-06
-8.5801e-07
2.725e-06
-3.59513e-06
2.73712e-06
-6.32215e-06
2.72702e-06
-9.01879e-06
2.69663e-06
-1.16559e-05
2.63711e-06
-1.4209e-05
2.55315e-06
-1.66651e-05
2.45608e-06
-1.89627e-05
2.2976e-06
-2.10806e-05
2.11788e-06
-2.29866e-05
1.90603e-06
-2.46464e-05
1.6597e-06
-2.60473e-05
1.40093e-06
-2.71367e-05
1.08941e-06
-2.78997e-05
7.63026e-07
-2.83161e-05
4.16403e-07
-2.83658e-05
4.9663e-08
-2.80343e-05
-3.31472e-07
-2.73118e-05
-7.22585e-07
-2.61921e-05
-1.11964e-06
-2.46751e-05
-1.51704e-06
-2.27632e-05
-1.91194e-06
-2.04667e-05
-2.29648e-06
-1.77979e-05
-2.66876e-06
-1.47749e-05
-3.02304e-06
-1.14199e-05
-3.35503e-06
-7.76213e-06
-3.65775e-06
-3.83177e-06
-3.93037e-06
3.30881e-07
-4.16266e-06
4.68225e-06
-4.35138e-06
9.1785e-06
-4.49626e-06
1.37689e-05
-4.59037e-06
1.84022e-05
-4.63334e-06
2.30232e-05
-4.62101e-06
2.75781e-05
-4.55495e-06
3.20063e-05
-4.42818e-06
3.6256e-05
-4.24969e-06
4.02699e-05
-4.01394e-06
4.39973e-05
-3.72737e-06
4.73862e-05
-3.38892e-06
5.0392e-05
-3.00578e-06
5.29749e-05
-2.58299e-06
5.51026e-05
-2.12766e-06
5.67422e-05
-1.63962e-06
5.78727e-05
-1.13046e-06
5.8485e-05
-6.12315e-07
5.85721e-05
-8.71256e-08
5.81366e-05
4.35479e-07
5.71783e-05
9.58274e-07
5.57223e-05
1.45597e-06
5.37818e-05
1.94056e-06
5.13874e-05
2.39433e-06
4.85717e-05
2.81568e-06
4.53718e-05
3.19997e-06
4.18305e-05
3.54123e-06
3.79924e-05
3.83811e-06
3.39061e-05
4.08625e-06
2.96205e-05
4.28563e-06
2.5188e-05
4.43249e-06
2.06454e-05
4.54259e-06
1.60589e-05
4.58648e-06
1.14684e-05
4.59054e-06
6.9192e-06
4.54916e-06
2.4555e-06
4.4637e-06
-1.88793e-06
4.34342e-06
-6.0697e-06
4.18177e-06
-1.00582e-05
3.9885e-06
-1.38265e-05
3.76833e-06
-1.73473e-05
3.52075e-06
-2.05963e-05
3.24897e-06
-2.35681e-05
2.97183e-06
-2.62312e-05
2.66304e-06
-2.85824e-05
2.35126e-06
-3.06178e-05
2.03533e-06
-3.23229e-05
1.70517e-06
-3.36984e-05
1.37546e-06
-3.47483e-05
1.04993e-06
-3.54754e-05
7.27082e-07
-3.58992e-05
4.23802e-07
-3.60294e-05
1.30126e-07
-3.58389e-05
-1.90446e-07
-3.53605e-05
-4.78428e-07
-3.46161e-05
-7.44406e-07
-3.36257e-05
-9.90386e-07
-3.24116e-05
-1.21414e-06
-3.09983e-05
-1.41327e-06
-2.94094e-05
-1.58884e-06
-2.76764e-05
-1.73307e-06
-2.5821e-05
-1.85542e-06
-2.3882e-05
-1.93896e-06
-2.18762e-05
-2.00575e-06
-1.98454e-05
-2.03085e-06
-1.78074e-05
-2.03795e-06
-1.57951e-05
-2.01239e-06
-1.38299e-05
-1.96512e-06
-1.1939e-05
-1.89091e-06
-1.01351e-05
-1.80396e-06
-8.44808e-06
-1.687e-06
-6.87951e-06
-1.56856e-06
-5.44849e-06
-1.43103e-06
-4.15917e-06
-1.28932e-06
-3.01527e-06
-1.1439e-06
-2.02371e-06
-9.91554e-07
-1.185e-06
-8.38706e-07
-4.96891e-07
-6.88112e-07
6.26353e-08
-5.59525e-07
5.02418e-07
-4.39781e-07
8.3487e-07
-3.32451e-07
1.07086e-06
-2.35985e-07
1.22335e-06
-1.52497e-07
1.30729e-06
-8.3934e-08
1.33631e-06
-2.90169e-08
1.31961e-06
1.6696e-08
1.26813e-06
5.14795e-08
1.19236e-06
7.57736e-08
1.10084e-06
9.15251e-08
1.00054e-06
1.00303e-07
8.97009e-07
1.03529e-07
7.94514e-07
1.02496e-07
6.96169e-07
9.83455e-08
6.04113e-07
9.20569e-08
5.19672e-07
8.44425e-08
4.43522e-07
7.61514e-08
3.7584e-07
6.76829e-08
3.16437e-07
5.94032e-08
2.64873e-07
5.15654e-08
2.20544e-07
4.43302e-08
1.82759e-07
3.77853e-08
1.50797e-07
3.19632e-08
1.23941e-07
2.68566e-08
1.0151e-07
2.24311e-08
8.28756e-08
1.86352e-08
6.74676e-08
1.54085e-08
5.47814e-08
1.26867e-08
4.43753e-08
1.04066e-08
3.58681e-08
8.50761e-09
2.89341e-08
6.93442e-09
2.32974e-08
5.63704e-09
1.87263e-08
4.57146e-09
1.50272e-08
3.69937e-09
1.20395e-08
2.98791e-09
9.63065e-09
2.40911e-09
7.69142e-09
1.93945e-09
6.13241e-09
1.5592e-09
4.88058e-09
1.252e-09
3.87644e-09
1.0043e-09
3.07162e-09
8.04951e-10
2.42694e-09
6.44812e-10
1.91063e-09
5.16419e-10
1.49704e-09
4.13689e-10
1.16544e-09
3.3169e-10
8.99099e-10
2.6642e-10
6.84521e-10
2.14651e-10
5.10812e-10
1.73778e-10
3.69171e-10
1.41703e-10
2.52493e-10
1.16737e-10
1.55031e-10
9.75194e-11
7.21298e-11
8.29601e-11
7.21745e-11
-0.000148045
-1.10354e-05
-0.000141422
-1.32504e-05
-0.000133823
-1.52027e-05
-0.0001252
-1.72522e-05
-0.000115322
-1.9759e-05
-0.00010436
-2.19266e-05
-9.21397e-05
-2.44381e-05
-7.89054e-05
-2.64629e-05
-6.46717e-05
-2.84789e-05
-4.93467e-05
-3.06343e-05
-3.31701e-05
-3.23511e-05
-1.62777e-05
-3.37829e-05
1.36047e-06
-3.52729e-05
1.94329e-05
-3.61372e-05
3.7873e-05
-3.68688e-05
5.63403e-05
-3.69189e-05
7.44541e-05
-3.62018e-05
9.20901e-05
-3.52461e-05
0.000108932
-3.36816e-05
0.000124588
-3.1314e-05
0.000138783
-2.83799e-05
0.000151239
-2.49004e-05
0.00016164
-2.07892e-05
0.000169722
-1.61548e-05
0.000175239
-1.10279e-05
0.000178016
-5.54784e-06
0.000178139
-2.49992e-07
0.000175751
4.76649e-06
0.000170889
9.71712e-06
0.00016361
1.45491e-05
0.000154041
1.91232e-05
0.000142776
2.25156e-05
0.000129893
2.57484e-05
0.000116032
2.77035e-05
0.000101355
2.93346e-05
8.62012e-05
3.02906e-05
7.11377e-05
3.0108e-05
5.63447e-05
2.95734e-05
4.19481e-05
2.87823e-05
2.84081e-05
2.70699e-05
1.56318e-05
2.55474e-05
4.14072e-06
2.29714e-05
-5.80527e-06
1.98934e-05
-1.42319e-05
1.68567e-05
-2.12381e-05
1.40163e-05
-2.69062e-05
1.1339e-05
-3.13036e-05
8.79722e-06
-3.4508e-05
6.40861e-06
-3.6637e-05
4.25352e-06
-3.78268e-05
2.383e-06
-3.81959e-05
7.43056e-07
-3.80882e-05
-2.13911e-07
-3.76698e-05
-8.34877e-07
-3.6996e-05
-1.34548e-06
-3.61226e-05
-1.74455e-06
-3.50913e-05
-2.0602e-06
-3.39623e-05
-2.25577e-06
-3.2773e-05
-2.37649e-06
-3.15436e-05
-2.45683e-06
-3.03027e-05
-2.48011e-06
-2.90565e-05
-2.49077e-06
-2.78135e-05
-2.48476e-06
-2.65704e-05
-2.48509e-06
-2.53054e-05
-2.52869e-06
-2.39941e-05
-2.62161e-06
-2.264e-05
-2.70759e-06
-2.1265e-05
-2.74989e-06
-1.98756e-05
-2.77898e-06
-1.84648e-05
-2.82163e-06
-1.7019e-05
-2.8919e-06
-1.5517e-05
-3.00503e-06
-1.39344e-05
-3.16645e-06
-1.22451e-05
-3.37966e-06
-1.04261e-05
-3.63903e-06
-8.45757e-06
-3.93835e-06
-6.32507e-06
-4.26613e-06
-4.02037e-06
-4.61035e-06
-1.54382e-06
-4.9538e-06
1.11473e-06
-5.31625e-06
3.94552e-06
-5.66034e-06
6.93844e-06
-5.98594e-06
1.00616e-05
-6.2463e-06
1.32761e-05
-6.42811e-06
1.65647e-05
-6.57568e-06
1.98747e-05
-6.61892e-06
2.31722e-05
-6.59377e-06
2.64189e-05
-6.49253e-06
2.95513e-05
-6.2634e-06
3.25631e-05
-6.02012e-06
3.53885e-05
-5.65443e-06
3.7975e-05
-5.16601e-06
4.03119e-05
-4.67545e-06
4.23371e-05
-4.04606e-06
4.40397e-05
-3.40806e-06
4.54003e-05
-2.72135e-06
4.63973e-05
-1.99504e-06
4.70195e-05
-1.24537e-06
4.72781e-05
-5.15895e-07
4.71831e-05
1.87728e-07
4.67522e-05
8.60987e-07
4.60153e-05
1.47239e-06
4.50033e-05
2.02226e-06
4.37554e-05
2.49331e-06
4.2313e-05
2.88356e-06
4.07221e-05
3.18128e-06
3.90157e-05
3.41145e-06
3.72302e-05
3.57004e-06
3.53887e-05
3.68204e-06
3.3519e-05
3.73977e-06
3.16393e-05
3.75971e-06
2.97415e-05
3.79626e-06
2.78378e-05
3.80863e-06
2.59186e-05
3.83767e-06
2.3966e-05
3.90829e-06
2.19787e-05
3.97648e-06
1.99446e-05
4.06884e-06
1.78524e-05
4.18562e-06
1.56922e-05
4.32196e-06
1.34658e-05
4.45295e-06
1.1171e-05
4.59331e-06
8.81022e-06
4.71975e-06
6.38258e-06
4.85673e-06
3.91033e-06
4.9444e-06
1.3979e-06
5.0253e-06
-1.13239e-06
5.06065e-06
-3.66138e-06
5.05752e-06
-6.16458e-06
5.00683e-06
-8.61479e-06
4.89977e-06
-1.09724e-05
4.715e-06
-1.32102e-05
4.47521e-06
-1.53027e-05
4.18389e-06
-1.72034e-05
3.80083e-06
-1.88869e-05
3.36619e-06
-2.03181e-05
2.85964e-06
-2.14694e-05
2.30482e-06
-2.23094e-05
1.67931e-06
-2.2821e-05
1.02237e-06
-2.29806e-05
3.21258e-07
-2.2786e-05
-3.88194e-07
-2.22359e-05
-1.10089e-06
-2.13296e-05
-1.81118e-06
-2.00822e-05
-2.49365e-06
-1.85209e-05
-3.12106e-06
-1.66774e-05
-3.68551e-06
-1.45852e-05
-4.18329e-06
-1.22812e-05
-4.60597e-06
-9.804e-06
-4.95257e-06
-7.2049e-06
-5.19737e-06
-4.5074e-06
-5.39331e-06
-1.74807e-06
-5.51765e-06
1.04062e-06
-5.57749e-06
3.85338e-06
-5.62493e-06
6.64954e-06
-5.59268e-06
9.43701e-06
-5.57496e-06
1.2218e-05
-5.56198e-06
1.49509e-05
-5.46712e-06
1.76606e-05
-5.41922e-06
2.03439e-05
-5.36599e-06
2.29674e-05
-5.24808e-06
2.554e-05
-5.14625e-06
2.80493e-05
-5.01864e-06
3.04805e-05
-4.86305e-06
3.28036e-05
-4.64543e-06
3.50166e-05
-4.42395e-06
3.70751e-05
-4.11852e-06
3.89763e-05
-3.80247e-06
4.06965e-05
-3.44094e-06
4.22114e-05
-3.02891e-06
4.35172e-05
-2.61244e-06
4.45756e-05
-2.11645e-06
4.54006e-05
-1.65042e-06
4.59769e-05
-1.15368e-06
4.63069e-05
-6.59866e-07
4.63776e-05
-1.42655e-07
4.62154e-05
3.233e-07
4.58197e-05
7.90394e-07
4.52016e-05
1.2343e-06
4.43773e-05
1.64726e-06
4.33633e-05
2.02812e-06
4.2176e-05
2.37318e-06
4.08316e-05
2.68751e-06
3.93489e-05
2.96475e-06
3.77507e-05
3.19594e-06
3.60332e-05
3.43399e-06
3.42261e-05
3.61259e-06
3.2337e-05
3.78111e-06
3.03732e-05
3.9246e-06
2.83485e-05
4.04954e-06
2.62523e-05
4.19062e-06
2.4088e-05
4.33118e-06
2.18683e-05
4.43944e-06
1.95859e-05
4.56538e-06
1.72401e-05
4.6923e-06
1.48256e-05
4.82795e-06
1.23482e-05
4.95618e-06
9.81137e-06
5.07335e-06
7.21109e-06
5.20336e-06
4.56014e-06
5.30223e-06
1.86799e-06
5.38313e-06
-8.57121e-07
5.4501e-06
-3.59439e-06
5.47438e-06
-6.32246e-06
5.45508e-06
-9.01952e-06
5.39368e-06
-1.16573e-05
5.2749e-06
-1.42115e-05
5.10728e-06
-1.66685e-05
4.91308e-06
-1.89649e-05
4.59404e-06
-2.10837e-05
4.23662e-06
-2.29915e-05
3.81388e-06
-2.46525e-05
3.32073e-06
-2.6055e-05
2.80334e-06
-2.71441e-05
2.1786e-06
-2.79082e-05
1.52704e-06
-2.83257e-05
8.33935e-07
-2.83753e-05
9.92801e-08
-2.80436e-05
-6.63238e-07
-2.7322e-05
-1.44417e-06
-2.6202e-05
-2.23968e-06
-2.46848e-05
-3.03426e-06
-2.27732e-05
-3.82352e-06
-2.04756e-05
-4.59408e-06
-1.78058e-05
-5.3386e-06
-1.47822e-05
-6.04666e-06
-1.14259e-05
-6.7113e-06
-7.76645e-06
-7.31722e-06
-3.83502e-06
-7.86181e-06
3.29463e-07
-8.32716e-06
4.68341e-06
-8.70534e-06
9.18156e-06
-8.99442e-06
1.37737e-05
-9.18248e-06
1.84101e-05
-9.26979e-06
2.30339e-05
-9.24489e-06
2.75906e-05
-9.11166e-06
3.20211e-05
-8.85865e-06
3.62727e-05
-8.50125e-06
4.02884e-05
-8.02966e-06
4.4018e-05
-7.45706e-06
4.74088e-05
-6.77967e-06
5.04159e-05
-6.01295e-06
5.30012e-05
-5.16825e-06
5.51291e-05
-4.2556e-06
5.67688e-05
-3.2794e-06
5.78999e-05
-2.2615e-06
5.85137e-05
-1.22623e-06
5.85999e-05
-1.7328e-07
5.81622e-05
8.73141e-07
5.72032e-05
1.91723e-06
5.5746e-05
2.91316e-06
5.38037e-05
3.88291e-06
5.14072e-05
4.79075e-06
4.85898e-05
5.63311e-06
4.53876e-05
6.40215e-06
4.1844e-05
7.08477e-06
3.80032e-05
7.67888e-06
3.39143e-05
8.17518e-06
2.9626e-05
8.57384e-06
2.51918e-05
8.86667e-06
2.0646e-05
9.08842e-06
1.60569e-05
9.17561e-06
1.14637e-05
9.18373e-06
6.91229e-06
9.10052e-06
2.44691e-06
8.92906e-06
-1.89858e-06
8.6889e-06
-6.0823e-06
8.36547e-06
-1.00732e-05
7.97941e-06
-1.3843e-05
7.53806e-06
-1.73653e-05
7.04311e-06
-2.06151e-05
6.49874e-06
-2.35882e-05
5.94488e-06
-2.62526e-05
5.32747e-06
-2.86046e-05
4.70327e-06
-3.06404e-05
4.07107e-06
-3.23468e-05
3.41161e-06
-3.37237e-05
2.75228e-06
-3.47728e-05
2.09911e-06
-3.54985e-05
1.45274e-06
-3.59214e-05
8.46693e-07
-3.60512e-05
2.59908e-07
-3.58601e-05
-3.81523e-07
-3.53808e-05
-9.57794e-07
-3.46355e-05
-1.48967e-06
-3.3644e-05
-1.98191e-06
-3.24286e-05
-2.42957e-06
-3.10142e-05
-2.82767e-06
-2.94239e-05
-3.17906e-06
-2.76893e-05
-3.46775e-06
-2.58323e-05
-3.71238e-06
-2.38917e-05
-3.8796e-06
-2.18845e-05
-4.01288e-06
-1.98517e-05
-4.0637e-06
-1.78124e-05
-4.07728e-06
-1.57982e-05
-4.02656e-06
-1.38321e-05
-3.93118e-06
-1.19392e-05
-3.78379e-06
-1.01341e-05
-3.60908e-06
-8.44587e-06
-3.37525e-06
-6.8764e-06
-3.13803e-06
-5.44452e-06
-2.8629e-06
-4.15348e-06
-2.58037e-06
-3.00933e-06
-2.28804e-06
-2.01738e-06
-1.98351e-06
-1.17812e-06
-1.67796e-06
-4.89338e-07
-1.37689e-06
6.78638e-08
-1.11672e-06
5.07439e-07
-8.79353e-07
8.39579e-07
-6.64588e-07
1.07513e-06
-4.71532e-07
1.22717e-06
-3.04539e-07
1.31058e-06
-1.67342e-07
1.3392e-06
-5.76279e-08
1.322e-06
3.38982e-08
1.27007e-06
1.03407e-07
1.1939e-06
1.51945e-07
1.10203e-06
1.83397e-07
1.00144e-06
2.00902e-07
8.9766e-07
2.07307e-07
7.94964e-07
2.05195e-07
6.9646e-07
1.96852e-07
6.04281e-07
1.84238e-07
5.19748e-07
1.68978e-07
4.43532e-07
1.52369e-07
3.75805e-07
1.35412e-07
3.16374e-07
1.18836e-07
2.64793e-07
1.03148e-07
2.20456e-07
8.86683e-08
1.82671e-07
7.55721e-08
1.50712e-07
6.39236e-08
1.23862e-07
5.37078e-08
1.01439e-07
4.48552e-08
8.28123e-08
3.72629e-08
6.74124e-08
3.08094e-08
5.47338e-08
2.53662e-08
4.43347e-08
2.08064e-08
3.58338e-08
1.70093e-08
2.89053e-08
1.38636e-08
2.32734e-08
1.12695e-08
1.87064e-08
9.13903e-09
1.50108e-08
7.39546e-09
1.20261e-08
5.97306e-09
9.61973e-09
4.81594e-09
7.68253e-09
3.87701e-09
6.12521e-09
3.11686e-09
4.87477e-09
2.50274e-09
3.87176e-09
2.00758e-09
3.06788e-09
1.60908e-09
2.42395e-09
1.28896e-09
1.90825e-09
1.03231e-09
1.49516e-09
8.26956e-10
1.16396e-09
6.63042e-10
8.97954e-10
5.32574e-10
6.83643e-10
4.29093e-10
5.10153e-10
3.47392e-10
3.68692e-10
2.8328e-10
2.52164e-10
2.33381e-10
1.54828e-10
1.94974e-10
7.20366e-11
1.65867e-10
1.44252e-10
-0.000148123
-1.6547e-05
-0.000141504
-1.98701e-05
-0.000133908
-2.27991e-05
-0.000125287
-2.58745e-05
-0.000115411
-2.96353e-05
-0.000104453
-3.28856e-05
-9.22233e-05
-3.66685e-05
-7.89897e-05
-3.96974e-05
-6.4747e-05
-4.27225e-05
-4.94013e-05
-4.5981e-05
-3.31962e-05
-4.85572e-05
-1.63003e-05
-5.06797e-05
1.36649e-06
-5.29407e-05
1.94668e-05
-5.42385e-05
3.79358e-05
-5.53388e-05
5.64244e-05
-5.54087e-05
7.45417e-05
-5.43203e-05
9.21778e-05
-5.28832e-05
0.000109042
-5.0547e-05
0.000124722
-4.69952e-05
0.000138944
-4.26028e-05
0.000151426
-3.73832e-05
0.000161848
-3.12114e-05
0.000169949
-2.4257e-05
0.000175478
-1.65572e-05
0.000178262
-8.33267e-06
0.000178364
-3.5345e-07
0.000175952
7.17826e-06
0.000171079
1.45885e-05
0.000163782
2.18454e-05
0.00015419
2.87149e-05
0.000142897
3.38081e-05
0.000129983
3.86619e-05
0.00011609
4.1596e-05
0.00010138
4.40435e-05
8.61955e-05
4.54748e-05
7.10979e-05
4.52052e-05
5.62832e-05
4.43876e-05
4.187e-05
4.31951e-05
2.83119e-05
4.06277e-05
1.55312e-05
3.83279e-05
4.02284e-06
3.44795e-05
-5.91637e-06
2.98324e-05
-1.43372e-05
2.52773e-05
-2.13377e-05
2.10167e-05
-2.69976e-05
1.69987e-05
-3.13883e-05
1.31879e-05
-3.45859e-05
9.60609e-06
-3.67077e-05
6.37519e-06
-3.78912e-05
3.5665e-06
-3.82495e-05
1.10122e-06
-3.81369e-05
-3.26562e-07
-3.77123e-05
-1.25954e-06
-3.70319e-05
-2.02586e-06
-3.6152e-05
-2.62452e-06
-3.51143e-05
-3.09795e-06
-3.39791e-05
-3.39097e-06
-3.27842e-05
-3.57142e-06
-3.15498e-05
-3.69124e-06
-3.03046e-05
-3.72532e-06
-2.90549e-05
-3.74045e-06
-2.78092e-05
-3.7305e-06
-2.6564e-05
-3.73027e-06
-2.52976e-05
-3.79513e-06
-2.39852e-05
-3.934e-06
-2.26308e-05
-4.06204e-06
-2.12563e-05
-4.12436e-06
-1.98683e-05
-4.16696e-06
-1.84599e-05
-4.23006e-06
-1.70167e-05
-4.33509e-06
-1.55175e-05
-4.5042e-06
-1.39386e-05
-4.7454e-06
-1.2253e-05
-5.06528e-06
-1.04377e-05
-5.45435e-06
-8.47271e-06
-5.90329e-06
-6.34339e-06
-6.39547e-06
-4.04081e-06
-6.91292e-06
-1.56521e-06
-7.4294e-06
1.09198e-06
-7.97344e-06
3.92368e-06
-8.49204e-06
6.91836e-06
-8.98063e-06
1.00437e-05
-9.37169e-06
1.32612e-05
-9.64553e-06
1.65548e-05
-9.8693e-06
1.98697e-05
-9.93387e-06
2.31719e-05
-9.89596e-06
2.64217e-05
-9.74235e-06
2.95591e-05
-9.40074e-06
3.25764e-05
-9.03747e-06
3.54037e-05
-8.48173e-06
3.79956e-05
-7.75792e-06
4.03345e-05
-7.01433e-06
4.2363e-05
-6.07459e-06
4.40671e-05
-5.11213e-06
4.54286e-05
-4.08284e-06
4.64265e-05
-2.99298e-06
4.70472e-05
-1.86603e-06
4.73049e-05
-7.73623e-07
4.72078e-05
2.84844e-07
4.67744e-05
1.29434e-06
4.60343e-05
2.21255e-06
4.50199e-05
3.03659e-06
4.37694e-05
3.74384e-06
4.23236e-05
4.3294e-06
4.07289e-05
4.77592e-06
3.90195e-05
5.12086e-06
3.72325e-05
5.35707e-06
3.53894e-05
5.52506e-06
3.35186e-05
5.61061e-06
3.16384e-05
5.63993e-06
2.97401e-05
5.69452e-06
2.78378e-05
5.71096e-06
2.59195e-05
5.75592e-06
2.39673e-05
5.86052e-06
2.19814e-05
5.96238e-06
1.99481e-05
6.10207e-06
1.78567e-05
6.27705e-06
1.56963e-05
6.4823e-06
1.347e-05
6.6793e-06
1.11752e-05
6.88811e-06
8.81249e-06
7.08243e-06
6.38631e-06
7.28291e-06
3.91266e-06
7.41804e-06
1.39855e-06
7.5394e-06
-1.13312e-06
7.59231e-06
-3.66296e-06
7.58734e-06
-6.16964e-06
7.51351e-06
-8.62209e-06
7.35222e-06
-1.09825e-05
7.07535e-06
-1.32228e-05
6.71554e-06
-1.53181e-05
6.27921e-06
-1.72224e-05
5.7051e-06
-1.89081e-05
5.05189e-06
-2.0338e-05
4.28956e-06
-2.14939e-05
3.46067e-06
-2.23365e-05
2.5219e-06
-2.28485e-05
1.53436e-06
-2.30097e-05
4.82494e-07
-2.28163e-05
-5.81614e-07
-2.22636e-05
-1.65361e-06
-2.13569e-05
-2.71781e-06
-2.01069e-05
-3.74369e-06
-1.85446e-05
-4.68334e-06
-1.66966e-05
-5.53356e-06
-1.4602e-05
-6.2779e-06
-1.22928e-05
-6.91513e-06
-9.81485e-06
-7.43053e-06
-7.21184e-06
-7.80038e-06
-4.51011e-06
-8.09504e-06
-1.75118e-06
-8.27659e-06
1.03989e-06
-8.36855e-06
3.85481e-06
-8.43984e-06
6.65119e-06
-8.38906e-06
9.43929e-06
-8.36307e-06
1.22165e-05
-8.33921e-06
1.49527e-05
-8.2033e-06
1.76631e-05
-8.12964e-06
2.03481e-05
-8.05097e-06
2.29722e-05
-7.8722e-06
2.55461e-05
-7.72013e-06
2.80572e-05
-7.52976e-06
3.04876e-05
-7.29348e-06
3.2813e-05
-6.97073e-06
3.50271e-05
-6.63806e-06
3.70873e-05
-6.17877e-06
3.89914e-05
-5.70651e-06
4.07129e-05
-5.16252e-06
4.22284e-05
-4.54437e-06
4.35351e-05
-3.91909e-06
4.45942e-05
-3.17563e-06
4.5419e-05
-2.47517e-06
4.59957e-05
-1.73038e-06
4.63269e-05
-9.91073e-07
4.63963e-05
-2.12085e-07
4.62322e-05
4.87439e-07
4.58359e-05
1.18669e-06
4.52175e-05
1.85266e-06
4.43922e-05
2.47257e-06
4.33763e-05
3.04399e-06
4.21873e-05
3.56216e-06
4.08411e-05
4.03371e-06
3.93582e-05
4.44767e-06
3.77585e-05
4.79564e-06
3.60391e-05
5.15343e-06
3.42316e-05
5.42003e-06
3.2342e-05
5.67068e-06
3.03772e-05
5.8894e-06
2.83528e-05
6.07397e-06
2.6254e-05
6.28941e-06
2.40916e-05
6.49357e-06
2.18719e-05
6.65915e-06
1.95908e-05
6.84645e-06
1.72446e-05
7.03851e-06
1.48298e-05
7.24272e-06
1.23523e-05
7.43366e-06
9.81409e-06
7.6116e-06
7.21452e-06
7.80292e-06
4.56287e-06
7.95387e-06
1.86977e-06
8.07622e-06
-8.57695e-07
8.17757e-06
-3.5963e-06
8.21298e-06
-6.32531e-06
8.18409e-06
-9.02455e-06
8.09292e-06
-1.16667e-05
7.91704e-06
-1.42197e-05
7.66026e-06
-1.66789e-05
7.37232e-06
-1.89804e-05
6.8955e-06
-2.11017e-05
6.35793e-06
-2.30111e-05
5.72331e-06
-2.46762e-05
4.9858e-06
-2.60787e-05
4.2058e-06
-2.71711e-05
3.27097e-06
-2.7937e-05
2.29297e-06
-2.83546e-05
1.25153e-06
-2.84052e-05
1.49885e-07
-2.80747e-05
-9.93735e-07
-2.73536e-05
-2.16526e-06
-2.62341e-05
-3.35927e-06
-2.47162e-05
-4.55218e-06
-2.2804e-05
-5.73564e-06
-2.05057e-05
-6.89245e-06
-1.7834e-05
-8.0103e-06
-1.48076e-05
-9.07303e-06
-1.1449e-05
-1.00699e-05
-7.78762e-06
-1.09786e-05
-3.85382e-06
-1.17956e-05
3.14643e-07
-1.24956e-05
4.67282e-06
-1.30635e-05
9.17516e-06
-1.34968e-05
1.3771e-05
-1.37784e-05
1.84113e-05
-1.39101e-05
2.30398e-05
-1.38734e-05
2.7601e-05
-1.36728e-05
3.2036e-05
-1.32937e-05
3.62918e-05
-1.27571e-05
4.03116e-05
-1.20495e-05
4.40456e-05
-1.11911e-05
4.74409e-05
-1.0175e-05
5.04509e-05
-9.02293e-06
5.30402e-05
-7.75756e-06
5.51684e-05
-6.38385e-06
5.68094e-05
-4.92039e-06
5.79415e-05
-3.39364e-06
5.85553e-05
-1.84001e-06
5.86413e-05
-2.59347e-07
5.8202e-05
1.31248e-06
5.72419e-05
2.87724e-06
5.57834e-05
4.37165e-06
5.38391e-05
5.82723e-06
5.144e-05
7.18983e-06
4.86192e-05
8.45385e-06
4.54137e-05
9.60764e-06
4.18669e-05
1.06316e-05
3.80223e-05
1.15235e-05
3.39292e-05
1.22682e-05
2.96371e-05
1.2866e-05
2.52003e-05
1.33034e-05
2.06492e-05
1.36395e-05
1.60564e-05
1.37684e-05
1.14601e-05
1.378e-05
6.90543e-06
1.36552e-05
2.43645e-06
1.3398e-05
-1.91149e-06
1.30368e-05
-6.0981e-06
1.25521e-05
-1.00915e-05
1.19728e-05
-1.38631e-05
1.13096e-05
-1.73882e-05
1.05682e-05
-2.06396e-05
9.75011e-06
-2.3614e-05
8.9193e-06
-2.62802e-05
7.99365e-06
-2.86333e-05
7.0564e-06
-3.06703e-05
6.10808e-06
-3.23786e-05
5.11987e-06
-3.37553e-05
4.12896e-06
-3.48044e-05
3.14822e-06
-3.55316e-05
2.17994e-06
-3.59538e-05
1.26887e-06
-3.60807e-05
3.86824e-07
-3.58865e-05
-5.75763e-07
-3.54058e-05
-1.43843e-06
-3.46592e-05
-2.23628e-06
-3.36662e-05
-2.97494e-06
-3.24492e-05
-3.64659e-06
-3.10329e-05
-4.24396e-06
-2.94407e-05
-4.77129e-06
-2.77038e-05
-5.20467e-06
-2.58446e-05
-5.57154e-06
-2.39012e-05
-5.82296e-06
-2.18921e-05
-6.02199e-06
-1.98563e-05
-6.09955e-06
-1.7815e-05
-6.1186e-06
-1.57978e-05
-6.04369e-06
-1.38303e-05
-5.89873e-06
-1.19348e-05
-5.67928e-06
-1.01281e-05
-5.41574e-06
-8.43795e-06
-5.0654e-06
-6.86734e-06
-4.70864e-06
-5.43439e-06
-4.29585e-06
-4.14081e-06
-3.87394e-06
-2.99666e-06
-3.43219e-06
-2.0045e-06
-2.97566e-06
-1.16465e-06
-2.51781e-06
-4.74939e-07
-2.0666e-06
7.81747e-08
-1.66984e-06
5.17169e-07
-1.31835e-06
8.48521e-07
-9.95938e-07
1.08309e-06
-7.061e-07
1.23416e-06
-4.55609e-07
1.31649e-06
-2.49661e-07
1.34428e-06
-8.54209e-08
1.32607e-06
5.21104e-08
1.27328e-06
1.56201e-07
1.19636e-06
2.28868e-07
1.10385e-06
2.75912e-07
1.00271e-06
3.02041e-07
8.98495e-07
3.11524e-07
7.9545e-07
3.08242e-07
6.96678e-07
2.95625e-07
6.04302e-07
2.76616e-07
5.1963e-07
2.53652e-07
4.43322e-07
2.28679e-07
3.75541e-07
2.03195e-07
3.16084e-07
1.78294e-07
2.64497e-07
1.54736e-07
2.20169e-07
1.32998e-07
1.82402e-07
1.13341e-07
1.50466e-07
9.58606e-08
1.23642e-07
8.0533e-08
1.01245e-07
6.72529e-08
8.2644e-08
5.5865e-08
6.72679e-08
4.61863e-08
5.4611e-08
3.8024e-08
4.42312e-08
3.1187e-08
3.57473e-08
2.54939e-08
2.88334e-08
2.07781e-08
2.3214e-08
1.68895e-08
1.86575e-08
1.3696e-08
1.49708e-08
1.10827e-08
1.19935e-08
8.95081e-09
9.5932e-09
7.21663e-09
7.66105e-09
5.8095e-09
6.10788e-09
4.67035e-09
4.86082e-09
3.75008e-09
3.86058e-09
3.00808e-09
3.05894e-09
2.41094e-09
2.41683e-09
1.93128e-09
1.90261e-09
1.54671e-09
1.49072e-09
1.23902e-09
1.16049e-09
9.93419e-10
8.9526e-10
7.97936e-10
6.81585e-10
6.42891e-10
5.08612e-10
5.20481e-10
3.67576e-10
4.24425e-10
2.51399e-10
3.49666e-10
1.54358e-10
2.92127e-10
7.18191e-11
2.48514e-10
2.16109e-10
-0.00014824
-2.20535e-05
-0.000141626
-2.64844e-05
-0.000134035
-3.03906e-05
-0.000125417
-3.44933e-05
-0.000115545
-3.95085e-05
-0.000104593
-4.38385e-05
-9.23485e-05
-4.89137e-05
-7.91145e-05
-5.29324e-05
-6.48613e-05
-5.69767e-05
-4.94778e-05
-6.13655e-05
-3.32523e-05
-6.47836e-05
-1.6338e-05
-6.7595e-05
1.37056e-06
-7.06502e-05
1.95039e-05
-7.23728e-05
3.80056e-05
-7.38415e-05
5.65228e-05
-7.3927e-05
7.46736e-05
-7.24721e-05
9.23369e-05
-7.05476e-05
0.000109238
-6.74491e-05
0.000124948
-6.27061e-05
0.000139201
-5.68568e-05
0.000151711
-4.98939e-05
0.000162155
-4.16565e-05
0.000170279
-3.23819e-05
0.000175827
-2.21054e-05
0.000178625
-1.1132e-05
0.000178705
-4.33957e-07
0.000176254
9.62801e-06
0.000171365
1.94772e-05
0.000164042
2.91682e-05
0.000154413
3.83427e-05
0.000143079
4.5142e-05
0.000130118
5.16222e-05
0.000116176
5.55371e-05
0.000101417
5.88016e-05
8.61863e-05
6.07053e-05
7.10378e-05
6.03533e-05
5.61899e-05
5.9235e-05
4.17529e-05
5.76318e-05
2.8166e-05
5.42142e-05
1.53805e-05
5.11132e-05
3.84471e-06
4.6015e-05
-6.08298e-06
3.97598e-05
-1.44952e-05
3.36893e-05
-2.14868e-05
2.80082e-05
-2.71341e-05
2.26459e-05
-3.15108e-05
1.75645e-05
-3.47026e-05
1.27978e-05
-3.68159e-05
8.48843e-06
-3.79857e-05
4.73617e-06
-3.833e-05
1.44547e-06
-3.821e-05
-4.46624e-07
-3.7776e-05
-1.69353e-06
-3.70859e-05
-2.71599e-06
-3.61962e-05
-3.51431e-06
-3.51487e-05
-4.14541e-06
-3.40043e-05
-4.53539e-06
-3.2801e-05
-4.7748e-06
-3.15591e-05
-4.93314e-06
-3.03075e-05
-4.97693e-06
-2.90526e-05
-4.99535e-06
-2.78028e-05
-4.98034e-06
-2.65545e-05
-4.97857e-06
-2.52857e-05
-5.06389e-06
-2.39719e-05
-5.24785e-06
-2.26171e-05
-5.4168e-06
-2.12435e-05
-5.49801e-06
-1.98575e-05
-5.55298e-06
-1.84522e-05
-5.6354e-06
-1.70131e-05
-5.77414e-06
-1.55188e-05
-5.99851e-06
-1.39451e-05
-6.31911e-06
-1.22649e-05
-6.74549e-06
-1.04553e-05
-7.26398e-06
-8.49552e-06
-7.86303e-06
-6.37051e-06
-8.52048e-06
-4.07141e-06
-9.21203e-06
-1.59766e-06
-9.90315e-06
1.05852e-06
-1.06296e-05
3.89137e-06
-1.13249e-05
6.88819e-06
-1.19775e-05
1.0018e-05
-1.25015e-05
1.32408e-05
-1.28683e-05
1.65402e-05
-1.31687e-05
1.98613e-05
-1.3255e-05
2.31721e-05
-1.32067e-05
2.64259e-05
-1.29962e-05
2.95723e-05
-1.25471e-05
3.25984e-05
-1.20635e-05
3.54282e-05
-1.13116e-05
3.80266e-05
-1.03563e-05
4.0369e-05
-9.35674e-06
4.24049e-05
-8.11049e-06
4.41116e-05
-6.81878e-06
4.54704e-05
-5.44169e-06
4.64686e-05
-3.99116e-06
4.70912e-05
-2.48859e-06
4.73476e-05
-1.03006e-06
4.72456e-05
3.86898e-07
4.68095e-05
1.73037e-06
4.60655e-05
2.95657e-06
4.50467e-05
4.05538e-06
4.37912e-05
4.99929e-06
4.23403e-05
5.78035e-06
4.07413e-05
6.37494e-06
3.9027e-05
6.83512e-06
3.72367e-05
7.14733e-06
3.53911e-05
7.37073e-06
3.35187e-05
7.48298e-06
3.16377e-05
7.52096e-06
2.97398e-05
7.59239e-06