/*--------------------------------*- C++ -*----------------------------------*\
| =========                 |                                                 |
| \\      /  F ield         | OpenFOAM: The Open Source CFD Toolbox           |
|  \\    /   O peration     | Version:  3.0.1                                 |
|   \\  /    A nd           | Web:      www.OpenFOAM.org                      |
|    \\/     M anipulation  |                                                 |
\*---------------------------------------------------------------------------*/
FoamFile
{
    version     2.0;
    format      ascii;
    class       surfaceScalarField;
    location    "82.6";
    object      alphaPhi;
}
// * * * * * * * * * * * * * * * * * * * * * * * * * * * * * * * * * * * * * //

dimensions      [0 3 -1 0 0 0 0];

internalField   nonuniform List<scalar> 
42423
(
0.00019615
7.39945e-06
0.000186921
9.22879e-06
0.000175607
1.13146e-05
0.000162315
1.32914e-05
0.000147567
1.47486e-05
0.000131369
1.61974e-05
0.000114117
1.72524e-05
9.60095e-05
1.81076e-05
7.72734e-05
1.87361e-05
5.83246e-05
1.89488e-05
3.92495e-05
1.9075e-05
2.04615e-05
1.87881e-05
2.00612e-06
1.84554e-05
-1.59591e-05
1.79652e-05
-3.31966e-05
1.72375e-05
-4.9664e-05
1.64674e-05
-6.52222e-05
1.55581e-05
-7.98144e-05
1.45923e-05
-9.34481e-05
1.36337e-05
-0.000106078
1.263e-05
-0.000117683
1.16046e-05
-0.000128315
1.06322e-05
-0.000137974
9.65881e-06
-0.000146675
8.70136e-06
-0.000154473
7.79755e-06
-0.000161383
6.91078e-06
-0.000167453
6.06961e-06
-0.000172724
5.27088e-06
-0.000177207
4.48294e-06
-0.000180935
3.72834e-06
-0.00018392
2.98496e-06
-0.000186194
2.27374e-06
-0.000187771
1.57719e-06
-0.000188664
8.93276e-07
-0.000188874
2.09654e-07
-0.000188333
-5.41354e-07
-0.00018703
-1.30213e-06
-0.000185003
-2.02732e-06
-0.000182234
-2.76882e-06
-0.000178626
-3.60807e-06
-0.000174268
-4.35821e-06
-0.000168987
-5.28123e-06
-0.0001629
-6.08649e-06
-0.000155916
-6.98449e-06
-0.000147948
-7.9682e-06
-0.000138995
-8.95324e-06
-0.00012921
-9.78478e-06
-0.000118242
-1.09676e-05
-0.000106354
-1.18881e-05
-9.35786e-05
-1.27756e-05
-7.96499e-05
-1.39288e-05
-6.48893e-05
-1.47606e-05
-4.91984e-05
-1.56909e-05
-3.26062e-05
-1.65922e-05
-1.56157e-05
-1.69906e-05
2.19001e-06
-1.78057e-05
2.04651e-05
-1.82751e-05
3.88204e-05
-1.83554e-05
5.73477e-05
-1.85274e-05
7.56543e-05
-1.83067e-05
9.3695e-05
-1.80407e-05
0.000111228
-1.75328e-05
0.000127882
-1.66544e-05
0.000143574
-1.56921e-05
0.00015802
-1.44461e-05
0.000170924
-1.29036e-05
0.000182278
-1.13547e-05
0.000191771
-9.49285e-06
0.000199357
-7.58636e-06
0.000204765
-5.40784e-06
0.000207953
-3.1877e-06
0.000208823
-8.70191e-07
0.000207363
1.45964e-06
0.000203544
3.81901e-06
0.000197429
6.11535e-06
0.000189178
8.25116e-06
0.000178849
1.03286e-05
0.000166664
1.21855e-05
0.000152763
1.39011e-05
0.000137432
1.53313e-05
0.000120845
1.65866e-05
0.000103423
1.7422e-05
8.53183e-05
1.81052e-05
6.68414e-05
1.8477e-05
4.82437e-05
1.85979e-05
2.97816e-05
1.84622e-05
1.16756e-05
1.81061e-05
-6.05283e-06
1.77284e-05
-2.32862e-05
1.72333e-05
-3.98799e-05
1.65936e-05
-5.58273e-05
1.59472e-05
-7.09635e-05
1.51361e-05
-8.52379e-05
1.42742e-05
-9.85374e-05
1.32994e-05
-0.000110802
1.22647e-05
-0.000121979
1.1177e-05
-0.000132054
1.00744e-05
-0.000141057
9.00261e-06
-0.000148941
7.88436e-06
-0.000155782
6.8406e-06
-0.000161604
5.82183e-06
-0.000166458
4.85388e-06
-0.0001704
3.94199e-06
-0.000173568
3.16795e-06
-0.000175945
2.37607e-06
-0.00017758
1.63548e-06
-0.000178546
9.6548e-07
-0.00017882
2.74307e-07
-0.000178443
-3.7708e-07
-0.000177408
-1.03545e-06
-0.000175728
-1.67948e-06
-0.000173416
-2.31276e-06
-0.000170537
-2.87861e-06
-0.000166933
-3.60377e-06
-0.000162796
-4.13712e-06
-0.000157899
-4.89755e-06
-0.000152388
-5.5105e-06
-0.00014611
-6.27836e-06
-0.000139074
-7.03652e-06
-0.000131397
-7.67712e-06
-0.000122896
-8.50019e-06
-0.000113548
-9.34807e-06
-0.000103537
-1.00115e-05
-9.25742e-05
-1.09628e-05
-8.09141e-05
-1.16601e-05
-6.83175e-05
-1.25967e-05
-5.50111e-05
-1.33065e-05
-4.0834e-05
-1.41772e-05
-2.59196e-05
-1.49145e-05
-1.02732e-05
-1.56465e-05
5.99912e-06
-1.62725e-05
2.28444e-05
-1.68454e-05
4.00348e-05
-1.71905e-05
5.74969e-05
-1.74622e-05
7.50073e-05
-1.75106e-05
9.23857e-05
-1.73785e-05
0.000109327
-1.69413e-05
0.000125641
-1.63141e-05
0.000141064
-1.54233e-05
0.000155309
-1.42448e-05
0.000168104
-1.27951e-05
0.000179224
-1.11199e-05
0.000188419
-9.19528e-06
0.000195479
-7.06048e-06
0.000200274
-4.79501e-06
0.000202675
-2.40096e-06
0.00020263
4.51441e-08
0.000200093
2.53636e-06
0.000195047
5.04657e-06
0.00018763
7.41724e-06
0.000178009
9.62094e-06
0.000166282
1.17266e-05
0.000152773
1.35087e-05
0.000137688
1.5085e-05
0.000121326
1.63626e-05
0.00010395
1.73752e-05
8.58975e-05
1.80529e-05
6.74173e-05
1.84802e-05
4.87711e-05
1.86461e-05
3.02188e-05
1.85524e-05
1.19807e-05
1.82381e-05
-5.7659e-06
1.77466e-05
-2.28611e-05
1.70952e-05
-3.92223e-05
1.63612e-05
-5.46629e-05
1.54407e-05
-6.91777e-05
1.45148e-05
-8.27077e-05
1.353e-05
-9.5258e-05
1.25502e-05
-0.000106816
1.15578e-05
-0.000117447
1.06311e-05
-0.000127128
9.68101e-06
-0.000135915
8.78705e-06
-0.000143761
7.84644e-06
-0.000150761
7.00021e-06
-0.000156991
6.2294e-06
-0.000162402
5.41107e-06
-0.000167111
4.70907e-06
-0.000171104
3.99272e-06
-0.000174413
3.30987e-06
-0.000176995
2.58181e-06
-0.000178836
1.84109e-06
-0.00018005
1.2135e-06
-0.000180558
5.08258e-07
-0.000180423
-1.35137e-07
-0.000179702
-7.20822e-07
-0.000178384
-1.31795e-06
-0.000176572
-1.81185e-06
-0.000174098
-2.47345e-06
-0.000171012
-3.08666e-06
-0.000167346
-3.66625e-06
-0.000162974
-4.37114e-06
-0.000157971
-5.00323e-06
-0.000152251
-5.71997e-06
-0.000145805
-6.44644e-06
-0.000138797
-7.00786e-06
-0.000131002
-7.79479e-06
-0.000122464
-8.53825e-06
-0.000113194
-9.27043e-06
-0.000103072
-1.01213e-05
-9.21111e-05
-1.09612e-05
-8.02504e-05
-1.18608e-05
-6.75062e-05
-1.27442e-05
-5.39298e-05
-1.35765e-05
-3.94943e-05
-1.44355e-05
-2.43764e-05
-1.5118e-05
-8.60145e-06
-1.57751e-05
7.73198e-06
-1.63335e-05
2.4445e-05
-1.67131e-05
4.14041e-05
-1.69592e-05
5.83773e-05
-1.69733e-05
7.5171e-05
-1.67938e-05
9.15871e-05
-1.64162e-05
0.000107417
-1.58301e-05
0.000122468
-1.50505e-05
0.000136502
-1.40343e-05
0.000149315
-1.28131e-05
0.000160671
-1.13566e-05
0.00017037
-9.69885e-06
0.000178165
-7.79497e-06
0.000183923
-5.75776e-06
0.000187392
-3.46946e-06
0.000188541
-1.14927e-06
0.000187319
1.22206e-06
0.000183667
3.6524e-06
0.000177669
5.99771e-06
0.000169477
8.19244e-06
0.00015918
1.02962e-05
0.000147055
1.21248e-05
0.000133311
1.37447e-05
0.0001182
1.5111e-05
0.000101984
1.62161e-05
8.49619e-05
1.70216e-05
6.73742e-05
1.75876e-05
4.95115e-05
1.78627e-05
3.15469e-05
1.79645e-05
1.37907e-05
1.77562e-05
-3.66782e-06
1.74585e-05
-2.05118e-05
1.6844e-05
-3.67158e-05
1.6204e-05
-5.2075e-05
1.53593e-05
-6.66629e-05
1.4588e-05
-8.02747e-05
1.36118e-05
-9.3003e-05
1.27284e-05
-0.000104856
1.18531e-05
-0.000115721
1.08648e-05
-0.000125624
9.90336e-06
-0.000134627
9.0029e-06
-0.000142633
8.00661e-06
-0.000149727
7.09458e-06
-0.000155916
6.18901e-06
-0.000161259
5.34295e-06
-0.000165893
4.63458e-06
-0.000169804
3.9105e-06
-0.000173057
3.25379e-06
-0.000175731
2.67385e-06
-0.000177815
2.08459e-06
-0.000179347
1.53243e-06
-0.000180357
1.00977e-06
-0.00018085
4.93367e-07
-0.000180823
-2.70557e-08
-0.000180309
-5.1384e-07
-0.000179271
-1.03744e-06
-0.0001777
-1.57105e-06
-0.000175619
-2.08115e-06
-0.000172955
-2.66333e-06
-0.000169679
-3.27599e-06
-0.000165806
-3.87328e-06
-0.000161338
-4.46702e-06
-0.000156089
-5.24908e-06
-0.00015013
-5.95897e-06
-0.00014346
-6.6699e-06
-0.000136089
-7.37169e-06
-0.00012777
-8.31805e-06
-0.000118674
-9.09656e-06
-0.000108851
-9.82257e-06
-9.802e-05
-1.08314e-05
-8.63788e-05
-1.16412e-05
-7.37115e-05
-1.26673e-05
-6.00499e-05
-1.36616e-05
-4.53556e-05
-1.46943e-05
-2.96371e-05
-1.57185e-05
-1.29133e-05
-1.67239e-05
4.75733e-06
-1.76706e-05
2.31841e-05
-1.84268e-05
4.21816e-05
-1.89976e-05
6.15715e-05
-1.939e-05
8.08972e-05
-1.93258e-05
9.99678e-05
-1.90706e-05
0.000118548
-1.85799e-05
0.000136311
-1.77635e-05
0.000153009
-1.66979e-05
0.000168254
-1.52456e-05
0.000181851
-1.35963e-05
0.000193568
-1.17175e-05
0.000203021
-9.45281e-06
0.000210117
-7.09646e-06
0.000214621
-4.50416e-06
0.000216435
-1.8142e-06
0.000215491
9.44192e-07
0.000211752
3.739e-06
0.000205537
6.21498e-06
0.000197014
8.52309e-06
0.000186299
1.07149e-05
0.000173813
1.24863e-05
0.000159768
1.40449e-05
0.000144355
1.54125e-05
0.000128091
1.62637e-05
0.000111124
1.69677e-05
9.39286e-05
1.71949e-05
7.65257e-05
1.74028e-05
5.94034e-05
1.71223e-05
4.25145e-05
1.68889e-05
2.62797e-05
1.62348e-05
1.05575e-05
1.57222e-05
-4.2639e-06
1.48214e-05
-1.83387e-05
1.40748e-05
-3.15661e-05
1.32273e-05
-4.39476e-05
1.23815e-05
-5.54713e-05
1.15237e-05
-6.6153e-05
1.06818e-05
-7.60568e-05
9.90374e-06
-8.5213e-05
9.15621e-06
-9.36644e-05
8.45139e-06
-0.000101469
7.80424e-06
-0.000108664
7.1957e-06
-0.000115293
6.6287e-06
-0.000121379
6.08637e-06
-0.000126937
5.55725e-06
-0.000131966
5.02954e-06
-0.000136471
4.50434e-06
-0.000140434
3.96339e-06
-0.000143823
3.38869e-06
-0.000146621
2.79804e-06
-0.000148786
2.16497e-06
-0.000150264
1.47811e-06
-0.000151067
8.02922e-07
-0.000151106
3.97e-08
-0.000150316
-7.90751e-07
-0.00014868
-1.63577e-06
-0.000146203
-2.47678e-06
-0.000142924
-3.27918e-06
-0.000138715
-4.20867e-06
-0.000133656
-5.0596e-06
-0.000127642
-6.01314e-06
-0.000120781
-6.86119e-06
-0.000113104
-7.67685e-06
-0.000104476
-8.62819e-06
-9.49747e-05
-9.50153e-06
-8.46709e-05
-1.03038e-05
-7.34428e-05
-1.12281e-05
-6.14095e-05
-1.20333e-05
-4.84924e-05
-1.2917e-05
-3.49411e-05
-1.35513e-05
-2.07007e-05
-1.42404e-05
-5.6421e-06
-1.50586e-05
9.86467e-06
-1.55068e-05
-1.58238e-05
0.000196239
1.48012e-05
0.000187007
1.84612e-05
0.000175686
2.26352e-05
0.000162387
2.65907e-05
0.00014763
2.95058e-05
0.000131422
3.24055e-05
0.000114157
3.45172e-05
9.60392e-05
3.62252e-05
7.72906e-05
3.74847e-05
5.83322e-05
3.79072e-05
3.92452e-05
3.81621e-05
2.04494e-05
3.75838e-05
1.98529e-06
3.69195e-05
-1.59841e-05
3.59347e-05
-3.32257e-05
3.44791e-05
-4.96979e-05
3.29396e-05
-6.52616e-05
3.11219e-05
-7.98583e-05
2.9189e-05
-9.34929e-05
2.72683e-05
-0.000106124
2.5261e-05
-0.000117731
2.32115e-05
-0.000128366
2.12671e-05
-0.000138028
1.93209e-05
-0.00014673
1.74035e-05
-0.000154528
1.55956e-05
-0.000161437
1.38203e-05
-0.000167505
1.21376e-05
-0.000172781
1.05463e-05
-0.000177267
8.96919e-06
-0.000180996
7.45735e-06
-0.000183981
5.97006e-06
-0.000186251
4.54347e-06
-0.000187825
3.15161e-06
-0.000188718
1.78619e-06
-0.000188925
4.16754e-07
-0.000188383
-1.08376e-06
-0.000187082
-2.60328e-06
-0.000185058
-4.05149e-06
-0.00018229
-5.53617e-06
-0.000178683
-7.21562e-06
-0.000174326
-8.71552e-06
-0.000169046
-1.0561e-05
-0.000162963
-1.21696e-05
-0.000155975
-1.39723e-05
-0.000148003
-1.59403e-05
-0.000139053
-1.79032e-05
-0.000129269
-1.95689e-05
-0.000118306
-2.1931e-05
-0.000106412
-2.37814e-05
-9.36383e-05
-2.55497e-05
-7.97056e-05
-2.78616e-05
-6.49567e-05
-2.95097e-05
-4.92456e-05
-3.14021e-05
-3.265e-05
-3.31879e-05
-1.56361e-05
-3.40047e-05
2.16093e-06
-3.56029e-05
2.04444e-05
-3.65588e-05
3.88134e-05
-3.67245e-05
5.73514e-05
-3.70655e-05
7.56718e-05
-3.66272e-05
9.37188e-05
-3.60878e-05
0.000111267
-3.50808e-05
0.000127932
-3.33201e-05
0.000143635
-3.13945e-05
0.000158087
-2.88984e-05
0.000170998
-2.5815e-05
0.000182366
-2.27227e-05
0.000191866
-1.89926e-05
0.000199462
-1.51832e-05
0.000204876
-1.08211e-05
0.00020807
-6.38172e-06
0.000208951
-1.75181e-06
0.000207473
2.93719e-06
0.000203657
7.63524e-06
0.000197537
1.22353e-05
0.000189285
1.65038e-05
0.000178943
2.06703e-05
0.000166753
2.43757e-05
0.00015284
2.78143e-05
0.000137501
3.06698e-05
0.000120901
3.31872e-05
0.000103464
3.48592e-05
8.53563e-05
3.62129e-05
6.68621e-05
3.69714e-05
4.82621e-05
3.71981e-05
2.97912e-05
3.69332e-05
1.16789e-05
3.62185e-05
-6.04919e-06
3.54565e-05
-2.32832e-05
3.44673e-05
-3.98748e-05
3.31852e-05
-5.58216e-05
3.18939e-05
-7.09587e-05
3.0273e-05
-8.52372e-05
2.85526e-05
-9.85461e-05
2.66081e-05
-0.000110823
2.45419e-05
-0.000122024
2.2377e-05
-0.000132096
2.01463e-05
-0.000141107
1.80138e-05
-0.000148994
1.57715e-05
-0.000155838
1.36841e-05
-0.000161663
1.16464e-05
-0.000166519
9.71048e-06
-0.000170467
7.88962e-06
-0.000173651
6.35187e-06
-0.00017603
4.75484e-06
-0.000177656
3.26119e-06
-0.000178621
1.93008e-06
-0.000178901
5.54765e-07
-0.000178526
-7.52224e-07
-0.000177493
-2.06857e-06
-0.000175816
-3.35707e-06
-0.000173503
-4.62566e-06
-0.000170628
-5.75386e-06
-0.000167026
-7.20569e-06
-0.000162894
-8.26893e-06
-0.000158002
-9.78917e-06
-0.000152486
-1.10269e-05
-0.00014621
-1.25545e-05
-0.000139174
-1.40726e-05
-0.000131506
-1.53449e-05
-0.000123015
-1.69918e-05
-0.000113716
-1.86472e-05
-0.000103667
-2.00605e-05
-9.2704e-05
-2.19256e-05
-8.10522e-05
-2.33121e-05
-6.84801e-05
-2.51689e-05
-5.5156e-05
-2.66307e-05
-4.09855e-05
-2.83479e-05
-2.60727e-05
-2.98274e-05
-1.04216e-05
-3.12977e-05
5.84576e-06
-3.254e-05
2.26799e-05
-3.36797e-05
3.98823e-05
-3.43931e-05
5.73473e-05
-3.49273e-05
7.48643e-05
-3.50278e-05
9.22458e-05
-3.47601e-05
0.000109193
-3.38891e-05
0.000125516
-3.26364e-05
0.000140939
-3.08466e-05
0.000155196
-2.8502e-05
0.000168003
-2.56019e-05
0.000179133
-2.22502e-05
0.000188338
-1.84011e-05
0.000195423
-1.41452e-05
0.000200231
-9.60344e-06
0.000202655
-4.82454e-06
0.000202593
1.06624e-07
0.000200042
5.08782e-06
0.000194995
1.00933e-05
0.000187585
1.48269e-05
0.000177955
1.92505e-05
0.000166236
2.34459e-05
0.000152723
2.7022e-05
0.00013764
3.01674e-05
0.000121269
3.27335e-05
0.000103896
3.47485e-05
8.58241e-05
3.61248e-05
6.73219e-05
3.69825e-05
4.86688e-05
3.72992e-05
3.01122e-05
3.7109e-05
1.18654e-05
3.64849e-05
-5.88729e-06
3.54993e-05
-2.29917e-05
3.41996e-05
-3.93491e-05
3.27187e-05
-5.47822e-05
3.08738e-05
-6.93078e-05
2.90406e-05
-8.28369e-05
2.70592e-05
-9.53863e-05
2.50996e-05
-0.000106917
2.30887e-05
-0.000117569
2.12834e-05
-0.000127255
1.93668e-05
-0.000136044
1.75765e-05
-0.000143887
1.56889e-05
-0.000150878
1.39921e-05
-0.000157106
1.24571e-05
-0.000162513
1.08183e-05
-0.000167225
9.42132e-06
-0.00017122
7.98696e-06
-0.00017452
6.61074e-06
-0.00017711
5.17133e-06
-0.000178956
3.68749e-06
-0.000180164
2.42149e-06
-0.00018068
1.02369e-06
-0.000180555
-2.5988e-07
-0.000179832
-1.44318e-06
-0.000178516
-2.63463e-06
-0.000176687
-3.64101e-06
-0.000174225
-4.93478e-06
-0.00017114
-6.17205e-06
-0.000167477
-7.32925e-06
-0.000163118
-8.73023e-06
-0.000158115
-1.00063e-05
-0.0001524
-1.14345e-05
-0.000145991
-1.28552e-05
-0.000138945
-1.4054e-05
-0.000131165
-1.55751e-05
-0.000122642
-1.70614e-05
-0.000113364
-1.85488e-05
-0.000103256
-2.02292e-05
-9.22855e-05
-2.19315e-05
-8.04389e-05
-2.37074e-05
-6.76522e-05
-2.5531e-05
-5.41288e-05
-2.71e-05
-3.96461e-05
-2.89183e-05
-2.45781e-05
-3.01861e-05
-8.77165e-06
-3.15816e-05
7.56314e-06
-3.26684e-05
2.42737e-05
-3.34237e-05
4.12278e-05
-3.39135e-05
5.82293e-05
-3.39749e-05
7.50124e-05
-3.35771e-05
9.14426e-05
-3.28465e-05
0.000107284
-3.16713e-05
0.000122342
-3.01095e-05
0.00013639
-2.80817e-05
0.000149225
-2.56481e-05
0.000160595
-2.27271e-05
0.000170309
-1.94129e-05
0.000178144
-1.56305e-05
0.000183874
-1.14873e-05
0.000187363
-6.95855e-06
0.000188523
-2.30953e-06
0.000187305
2.43976e-06
0.00018366
7.29732e-06
0.000177662
1.19959e-05
0.000169446
1.64083e-05
0.000159165
2.05772e-05
0.000147034
2.42563e-05
0.000133286
2.74928e-05
0.000118164
3.0233e-05
0.000101938
3.24413e-05
8.4904e-05
3.40559e-05
6.73072e-05
3.51844e-05
4.94235e-05
3.57464e-05
3.14553e-05
3.59327e-05
1.36707e-05
3.55409e-05
-3.77934e-06
3.49085e-05
-2.06408e-05
3.37055e-05
-3.68418e-05
3.2405e-05
-5.22037e-05
3.07213e-05
-6.67956e-05
2.91799e-05
-8.04212e-05
2.72375e-05
-9.31443e-05
2.54516e-05
-0.000105008
2.37174e-05
-0.000115886
2.17422e-05
-0.000125807
1.98251e-05
-0.000134788
1.79838e-05
-0.000142797
1.60158e-05
-0.000149883
1.41809e-05
-0.000156069
1.23753e-05
-0.000161435
1.07087e-05
-0.000166038
9.23832e-06
-0.000169945
7.81693e-06
-0.000173187
6.49601e-06
-0.000175835
5.32225e-06
-0.000177923
4.17266e-06
-0.00017945
3.06051e-06
-0.00018046
2.0198e-06
-0.000180948
9.81732e-07
-0.000180921
-5.38864e-08
-0.000180401
-1.03422e-06
-0.000179355
-2.08281e-06
-0.000177778
-3.14792e-06
-0.000175701
-4.15799e-06
-0.000173037
-5.3271e-06
-0.000169759
-6.55384e-06
-0.000165877
-7.75492e-06
-0.000161409
-8.93532e-06
-0.000156158
-1.05004e-05
-0.000150203
-1.19134e-05
-0.000143523
-1.33502e-05
-0.000136148
-1.47462e-05
-0.000127833
-1.66332e-05
-0.000118724
-1.82054e-05
-0.000108906
-1.96409e-05
-9.80825e-05
-2.16547e-05
-8.64313e-05
-2.32925e-05
-7.37675e-05
-2.53311e-05
-6.01037e-05
-2.73255e-05
-4.54061e-05
-2.9392e-05
-2.96873e-05
-3.14373e-05
-1.29579e-05
-3.34534e-05
4.71859e-06
-3.53472e-05
2.31545e-05
-3.68628e-05
4.21674e-05
-3.80106e-05
6.15756e-05
-3.87983e-05
8.09143e-05
-3.86645e-05
9.99986e-05
-3.8155e-05
0.000118594
-3.71755e-05
0.000136374
-3.55431e-05
0.000153088
-3.34126e-05
0.000168344
-3.05015e-05
0.000181948
-2.72006e-05
0.000193678
-2.34472e-05
0.000203136
-1.89113e-05
0.000210234
-1.41944e-05
0.00021475
-9.0201e-06
0.000216574
-3.63825e-06
0.000215613
1.90572e-06
0.00021187
7.48118e-06
0.000205655
1.24304e-05
0.000197121
1.70564e-05
0.000186397
2.14397e-05
0.000173898
2.49852e-05
0.000159834
2.81081e-05
0.000144412
3.08343e-05
0.000128144
3.25321e-05
0.000111156
3.39562e-05
9.39492e-05
3.44012e-05
7.65349e-05
3.48171e-05
5.94036e-05
3.42535e-05
4.25051e-05
3.37873e-05
2.62648e-05
3.24751e-05
1.05332e-05
3.14537e-05
-4.28929e-06
2.96439e-05
-1.83682e-05
2.81537e-05
-3.15978e-05
2.64568e-05
-4.39798e-05
2.47635e-05
-5.55049e-05
2.30488e-05
-6.61873e-05
2.13642e-05
-7.60907e-05
1.98071e-05
-8.52469e-05
1.83125e-05
-9.36978e-05
1.69022e-05
-0.000101502
1.56085e-05
-0.000108699
1.43923e-05
-0.000115329
1.32587e-05
-0.000121414
1.21721e-05
-0.000126971
1.11136e-05
-0.000132003
1.00624e-05
-0.000136512
9.01246e-06
-0.000140476
7.92733e-06
-0.000143866
6.77897e-06
-0.000146667
5.59876e-06
-0.000148833
4.33148e-06
-0.000150311
2.95585e-06
-0.000151113
1.60468e-06
-0.00015116
8.6838e-08
-0.000150367
-1.58389e-06
-0.00014873
-3.27267e-06
-0.000146251
-4.95554e-06
-0.000142972
-6.55765e-06
-0.000138762
-8.41954e-06
-0.000133705
-1.01159e-05
-0.000127691
-1.20277e-05
-0.000120829
-1.37229e-05
-0.000113149
-1.53566e-05
-0.000104518
-1.72594e-05
-9.50147e-05
-1.90047e-05
-8.47087e-05
-2.06098e-05
-7.34762e-05
-2.24606e-05
-6.14418e-05
-2.40677e-05
-4.85214e-05
-2.58374e-05
-3.49658e-05
-2.7107e-05
-2.07239e-05
-2.84823e-05
-5.6637e-06
-3.01188e-05
9.84903e-06
-3.10195e-05
-3.16551e-05
0.000196411
2.22138e-05
0.000187165
2.77067e-05
0.000175829
3.39717e-05
0.000162511
3.9908e-05
0.000147735
4.42821e-05
0.000131505
4.86352e-05
0.000114217
5.18057e-05
9.6081e-05
5.4361e-05
7.73106e-05
5.62552e-05
5.83358e-05
5.6882e-05
3.92289e-05
5.7269e-05
2.04201e-05
5.63927e-05
1.93842e-06
5.54012e-05
-1.60425e-05
5.39156e-05
-3.32946e-05
5.17313e-05
-4.97756e-05
4.94206e-05
-6.53447e-05
4.66909e-05
-7.99453e-05
4.37896e-05
-9.35832e-05
4.09061e-05
-0.000106217
3.78947e-05
-0.000117824
3.48183e-05
-0.000128458
3.19018e-05
-0.000138119
2.89818e-05
-0.000146821
2.61054e-05
-0.000154618
2.3392e-05
-0.000161527
2.07295e-05
-0.000167596
1.82073e-05
-0.000172875
1.58247e-05
-0.000177353
1.34479e-05
-0.000181082
1.11863e-05
-0.000184067
8.95497e-06
-0.000186336
6.81264e-06
-0.000187913
4.72788e-06
-0.0001888
2.67306e-06
-0.000188991
6.078e-07
-0.000188439
-1.63504e-06
-0.000187139
-3.90343e-06
-0.00018512
-6.07029e-06
-0.000182351
-8.30532e-06
-0.000178744
-1.08224e-05
-0.00017439
-1.307e-05
-0.000169111
-1.58396e-05
-0.000163041
-1.82404e-05
-0.000156047
-2.09663e-05
-0.000148073
-2.39137e-05
-0.00013913
-2.68469e-05
-0.000129347
-2.93513e-05
-0.000118391
-3.28871e-05
-0.00010649
-3.56827e-05
-9.37183e-05
-3.83217e-05
-7.97789e-05
-4.1801e-05
-6.50449e-05
-4.42438e-05
-4.93069e-05
-4.71402e-05
-3.27016e-05
-4.97933e-05
-1.56652e-05
-5.10412e-05
2.12768e-06
-5.33958e-05
2.04212e-05
-5.48524e-05
3.88015e-05
-5.51049e-05
5.73534e-05
-5.56175e-05
7.56918e-05
-5.49656e-05
9.37573e-05
-5.41534e-05
0.000111322
-5.26454e-05
0.000128005
-5.00031e-05
0.000143723
-4.71129e-05
0.000158189
-4.33647e-05
0.000171117
-3.87426e-05
0.000182503
-3.41089e-05
0.000192012
-2.85014e-05
0.00019961
-2.27818e-05
0.000205036
-1.62475e-05
0.000208243
-9.58868e-06
0.000209148
-2.65603e-06
0.000207637
4.44783e-06
0.000203828
1.14436e-05
0.000197706
1.8358e-05
0.000189447
2.47624e-05
0.000179084
3.10338e-05
0.000166887
3.65726e-05
0.000152949
4.17525e-05
0.000137596
4.60226e-05
0.00012098
4.98033e-05
0.000103519
5.23206e-05
8.539e-05
5.43422e-05
6.68621e-05
5.54995e-05
4.82871e-05
5.57733e-05
2.97575e-05
5.54629e-05
1.16268e-05
5.43493e-05
-6.10166e-06
5.3185e-05
-2.33466e-05
5.17123e-05
-3.99412e-05
4.97796e-05
-5.58983e-05
4.78509e-05
-7.10491e-05
4.54237e-05
-8.53489e-05
4.28522e-05
-9.86797e-05
3.99388e-05
-0.000110977
3.68392e-05
-0.000122188
3.35875e-05
-0.000132292
3.02498e-05
-0.000141296
2.70181e-05
-0.000149194
2.36694e-05
-0.000156047
2.05363e-05
-0.000161879
1.74792e-05
-0.000166741
1.45719e-05
-0.000170694
1.18426e-05
-0.000173887
9.54466e-06
-0.000176257
7.12479e-06
-0.000177884
4.88759e-06
-0.000178841
2.88691e-06
-0.000179126
8.40065e-07
-0.000178754
-1.12468e-06
-0.000177723
-3.09923e-06
-0.000176058
-5.02244e-06
-0.000173735
-6.94834e-06
-0.00017087
-8.61949e-06
-0.000167327
-1.07477e-05
-0.000163125
-1.24711e-05
-0.000158253
-1.46615e-05
-0.000152719
-1.65606e-05
-0.000146459
-1.8815e-05
-0.000139456
-2.10751e-05
-0.000131753
-2.30488e-05
-0.000123269
-2.54751e-05
-0.000113998
-2.79184e-05
-0.000103919
-3.01401e-05
-9.30318e-05
-3.28126e-05
-8.1313e-05
-3.50309e-05
-6.8761e-05
-3.7721e-05
-5.54118e-05
-3.998e-05
-4.12444e-05
-4.25154e-05
-2.63176e-05
-4.47543e-05
-1.06757e-05
-4.69397e-05
5.60825e-06
-4.8824e-05
2.24346e-05
-5.05061e-05
3.96629e-05
-5.16216e-05
5.71433e-05
-5.24078e-05
7.46786e-05
-5.25632e-05
9.20505e-05
-5.21322e-05
0.000109029
-5.08681e-05
0.000125373
-4.89806e-05
0.000140818
-4.62912e-05
0.000155098
-4.27818e-05
0.000167931
-3.84354e-05
0.000179087
-3.34058e-05
0.000188306
-2.76202e-05
0.000195405
-2.12452e-05
0.000200246
-1.44438e-05
0.000202644
-7.22254e-06
0.000202585
1.64874e-07
0.000200017
7.65637e-06
0.000194977
1.51328e-05
0.00018755
2.22535e-05
0.000177881
2.89202e-05
0.000166163
3.51636e-05
0.000152644
4.05404e-05
0.000137585
4.52268e-05
0.000121162
4.91566e-05
0.000103804
5.21062e-05
8.56623e-05
5.42664e-05
6.71355e-05
5.55093e-05
4.84645e-05
5.59702e-05
2.98848e-05
5.56886e-05
1.16141e-05
5.47557e-05
-6.14671e-06
5.32601e-05
-2.32657e-05
5.13187e-05
-3.96302e-05
4.90832e-05
-5.50737e-05
4.63174e-05
-6.96057e-05
4.35726e-05
-8.31269e-05
4.05803e-05
-9.56788e-05
3.76516e-05
-0.00010721
3.462e-05
-0.000117863
3.1936e-05
-0.000127542
2.90458e-05
-0.000136323
2.63583e-05
-0.000144163
2.35282e-05
-0.000151158
2.09872e-05
-0.000157392
1.86913e-05
-0.000162793
1.62198e-05
-0.000167494
1.41217e-05
-0.000171487
1.19801e-05
-0.000174786
9.91039e-06
-0.000177365
7.74985e-06
-0.000179238
5.56098e-06
-0.000180422
3.60511e-06
-0.000180951
1.553e-06
-0.000180821
-3.89899e-07
-0.000180099
-2.16534e-06
-0.000178816
-3.91785e-06
-0.000176934
-5.52285e-06
-0.000174483
-7.38567e-06
-0.000171409
-9.24632e-06
-0.000167733
-1.10047e-05
-0.000163381
-1.30824e-05
-0.000158368
-1.50193e-05
-0.000152666
-1.71368e-05
-0.000146286
-1.92348e-05
-0.000139207
-2.11334e-05
-0.000131434
-2.33473e-05
-0.000122917
-2.55787e-05
-0.000113607
-2.78589e-05
-0.000103531
-3.03049e-05
-9.25181e-05
-3.29447e-05
-8.07406e-05
-3.54851e-05
-6.79448e-05
-3.83268e-05
-5.44257e-05
-4.06192e-05
-3.99249e-05
-4.34192e-05
-2.4847e-05
-4.52641e-05
-8.95231e-06
-4.74764e-05
7.33005e-06
-4.89509e-05
2.40454e-05
-5.01391e-05
4.10149e-05
-5.08832e-05
5.80115e-05
-5.09715e-05
7.48398e-05
-5.04054e-05
9.12849e-05
-4.92917e-05
0.000107138
-4.75247e-05
0.000122215
-4.51868e-05
0.000136287
-4.21532e-05
0.000149136
-3.84977e-05
0.000160535
-3.41254e-05
0.000170274
-2.91522e-05
0.000178128
-2.34845e-05
0.000183867
-1.72268e-05
0.000187372
-1.04637e-05
0.000188545
-3.48223e-06
0.000187299
3.68564e-06
0.000183651
1.09457e-05
0.000177647
1.79992e-05
0.00016941
2.46452e-05
0.000159127
3.08606e-05
0.000146977
3.6406e-05
0.000133211
4.12591e-05
0.000118048
4.53961e-05
0.000101802
4.86869e-05
8.47482e-05
5.11097e-05
6.71332e-05
5.27994e-05
4.9221e-05
5.36586e-05
3.12379e-05
5.39159e-05
1.34251e-05
5.33536e-05
-4.02751e-06
5.23612e-05
-2.09097e-05
5.05877e-05
-3.71185e-05
4.86138e-05
-5.25179e-05
4.61208e-05
-6.70871e-05
4.37492e-05
-8.07318e-05
4.08823e-05
-9.34903e-05
3.82101e-05
-0.000105319
3.55463e-05
-0.0001162
3.26234e-05
-0.000126131
2.97557e-05
-0.000135092
2.69452e-05
-0.000143096
2.40204e-05
-0.000150164
2.12494e-05
-0.000156326
1.85369e-05
-0.000161705
1.60882e-05
-0.000166279
1.38119e-05
-0.000170173
1.1712e-05
-0.000173403
9.72609e-06
-0.000175998
7.91693e-06
-0.000178108
6.28309e-06
-0.000179636
4.58832e-06
-0.000180628
3.01249e-06
-0.000181107
1.46078e-06
-0.000181072
-8.87455e-08
-0.000180542
-1.56374e-06
-0.000179487
-3.13717e-06
-0.000177904
-4.73072e-06
-0.000175823
-6.23908e-06
-0.000173159
-7.99137e-06
-0.000169884
-9.82792e-06
-0.000165988
-1.1651e-05
-0.000161514
-1.34097e-05
-0.000156262
-1.5752e-05
-0.000150307
-1.78681e-05
-0.00014361
-2.0047e-05
-0.000136234
-2.21221e-05
-0.000127928
-2.49398e-05
-0.000118802
-2.73312e-05
-0.000108984
-2.94592e-05
-9.81787e-05
-3.24597e-05
-8.65189e-05
-3.49524e-05
-7.38559e-05
-3.79941e-05
-6.01918e-05
-4.09896e-05
-4.54928e-05
-4.40912e-05
-2.97687e-05
-4.71615e-05
-1.30333e-05
-5.01889e-05
4.64485e-06
-5.30255e-05
2.30947e-05
-5.53127e-05
4.21329e-05
-5.70489e-05
6.15641e-05
-5.82296e-05
8.09193e-05
-5.80198e-05
0.000100036
-5.72719e-05
0.000118662
-5.58019e-05
0.000136461
-5.33416e-05
0.0001532
-5.01525e-05
0.000168474
-4.57753e-05
0.000182096
-4.08221e-05
0.000193844
-3.51958e-05
0.000203316
-2.83828e-05
0.000210437
-2.13156e-05
0.000214949
-1.35326e-05
0.000216788
-5.47747e-06
0.000215799
2.89442e-06
0.000212061
1.12194e-05
0.000205837
1.86548e-05
0.000197284
2.56088e-05
0.000186543
3.21802e-05
0.000174019
3.75093e-05
0.000159921
4.22059e-05
0.000144486
4.62699e-05
0.000128195
4.88229e-05
0.000111186
5.0965e-05
9.39583e-05
5.16289e-05
7.65275e-05
5.22479e-05
5.93792e-05
5.14018e-05
4.24678e-05
5.06987e-05
2.62182e-05
4.87247e-05
1.04742e-05
4.71977e-05
-4.35245e-06
4.44705e-05
-1.84384e-05
4.22397e-05
-3.16697e-05
3.96881e-05
-4.40509e-05
3.71447e-05
-5.55756e-05
3.45734e-05
-6.62562e-05
3.20449e-05
-7.61567e-05
2.97075e-05
-8.53101e-05
2.7466e-05
-9.37577e-05
2.53498e-05
-0.000101559
2.34101e-05
-0.000108753
2.15863e-05
-0.000115381
1.98865e-05
-0.000121468
1.82586e-05
-0.000127024
1.66696e-05
-0.000132056
1.50948e-05
-0.000136564
1.35199e-05
-0.00014053
1.18936e-05
-0.00014392
1.01695e-05
-0.000146721
8.39982e-06
-0.000148891
6.50138e-06
-0.000150378
4.44237e-06
-0.000151177
2.4043e-06
-0.00015122
1.29831e-07
-0.00015043
-2.37384e-06
-0.000148796
-4.90746e-06
-0.000146316
-7.43526e-06
-0.000143039
-9.83496e-06
-0.000138828
-1.26299e-05
-0.000133772
-1.51722e-05
-0.000127756
-1.8044e-05
-0.000120892
-2.05861e-05
-0.000113216
-2.30336e-05
-0.000104583
-2.5892e-05
-9.5079e-05
-2.85087e-05
-8.47701e-05
-3.09186e-05
-7.35323e-05
-3.36984e-05
-6.14979e-05
-3.61021e-05
-4.85738e-05
-3.87615e-05
-3.50118e-05
-4.0669e-05
-2.07688e-05
-4.27253e-05
-5.70645e-06
-4.51811e-05
9.81873e-06
-4.65446e-05
-4.75003e-05
0.000196668
2.96426e-05
0.000187403
3.69719e-05
0.000176042
4.53319e-05
0.000162698
5.32525e-05
0.000147893
5.90867e-05
0.000131631
6.48975e-05
0.000114308
6.91292e-05
9.61437e-05
7.25249e-05
7.7341e-05
7.50578e-05
5.83411e-05
7.5882e-05
3.92048e-05
7.64052e-05
2.03759e-05
7.52217e-05
1.86761e-06
7.39095e-05
-1.61317e-05
7.19149e-05
-3.33994e-05
6.8999e-05
-4.98935e-05
6.59148e-05
-6.54715e-05
6.22689e-05
-8.00792e-05
5.83974e-05
-9.37209e-05
5.45478e-05
-0.000106359
5.05328e-05
-0.000117966
4.6425e-05
-0.000128601
4.25371e-05
-0.000138261
3.86424e-05
-0.000146962
3.4806e-05
-0.000154757
3.11869e-05
-0.000161665
2.76379e-05
-0.000167735
2.42768e-05
-0.00017302
2.11097e-05
-0.000177491
1.79191e-05
-0.000181223
1.49178e-05
-0.000184209
1.19414e-05
-0.000186475
9.07796e-06
-0.000188046
6.29958e-06
-0.00018893
3.55731e-06
-0.000189104
7.8154e-07
-0.000188524
-2.21571e-06
-0.000187224
-5.20262e-06
-0.000185215
-8.07949e-06
-0.000182442
-1.10783e-05
-0.000178838
-1.44269e-05
-0.000174487
-1.74203e-05
-0.000169211
-2.11165e-05
-0.00016314
-2.43112e-05
-0.000156155
-2.79513e-05
-0.000148182
-3.18867e-05
-0.000139246
-3.57831e-05
-0.000129466
-3.91312e-05
-0.000118523
-4.38298e-05
-0.000106607
-4.75986e-05
-9.38388e-05
-5.10902e-05
-7.98892e-05
-5.57507e-05
-6.51593e-05
-5.89737e-05
-4.93999e-05
-6.28998e-05
-3.27811e-05
-6.64122e-05
-1.57133e-05
-6.8109e-05
2.07532e-06
-7.11846e-05
2.03849e-05
-7.31621e-05
3.87805e-05
-7.35006e-05
5.73545e-05
-7.41916e-05
7.57209e-05
-7.33321e-05
9.38087e-05
-7.22414e-05
0.000111401
-7.02382e-05
0.000128107
-6.67085e-05
0.000143849
-6.28549e-05
0.000158336
-5.78526e-05
0.000171285
-5.16916e-05
0.0001827
-4.55238e-05
0.000192224
-3.80258e-05
0.000199833
-3.03906e-05
0.000205271
-2.16856e-05
0.000208486
-1.28038e-05
0.000209403
-3.5731e-06
0.000207882
5.96942e-06
0.000204085
1.524e-05
0.000197953
2.44903e-05
0.000189688
3.30271e-05
0.000179294
4.14279e-05
0.000167083
4.87839e-05
0.000153109
5.57268e-05
0.000137736
6.13956e-05
0.000121094
6.64453e-05
0.000103584
6.98303e-05
8.5433e-05
7.24938e-05
6.68466e-05
7.40861e-05
4.82545e-05
7.43656e-05
2.96782e-05
7.40393e-05
1.15151e-05
7.25124e-05
-6.22071e-06
7.09208e-05
-2.34853e-05
6.89768e-05
-4.00943e-05
6.63886e-05
-5.60679e-05
6.38243e-05
-7.12461e-05
6.06018e-05
-8.55793e-05
5.71852e-05
-9.89373e-05
5.32967e-05
-0.000111259
4.91605e-05
-0.000122468
4.47967e-05
-0.000132634
4.04155e-05
-0.000141641
3.60246e-05
-0.000149554
3.15822e-05
-0.000156399
2.73813e-05
-0.000162244