/*--------------------------------*- C++ -*----------------------------------*\
| =========                 |                                                 |
| \\      /  F ield         | OpenFOAM: The Open Source CFD Toolbox           |
|  \\    /   O peration     | Version:  3.0.1                                 |
|   \\  /    A nd           | Web:      www.OpenFOAM.org                      |
|    \\/     M anipulation  |                                                 |
\*---------------------------------------------------------------------------*/
FoamFile
{
    version     2.0;
    format      ascii;
    class       surfaceScalarField;
    location    "29";
    object      phi;
}
// * * * * * * * * * * * * * * * * * * * * * * * * * * * * * * * * * * * * * //

dimensions      [0 3 -1 0 0 0 0];

internalField   nonuniform List<scalar> 
44922
(
-1.15118e-05
-1.92971e-05
7.39771e-06
-1.89095e-05
2.53225e-05
-1.79248e-05
4.21929e-05
-1.68704e-05
5.75049e-05
-1.5312e-05
7.11064e-05
-1.36015e-05
8.26947e-05
-1.15883e-05
9.20842e-05
-9.38954e-06
9.9078e-05
-6.99377e-06
0.000103567
-4.48933e-06
0.000105573
-2.00574e-06
0.000105281
2.92233e-07
0.000102904
2.37652e-06
9.88303e-05
4.07408e-06
9.31059e-05
5.72434e-06
8.60263e-05
7.07966e-06
7.83461e-05
7.68019e-06
7.00314e-05
8.31467e-06
6.17373e-05
8.29416e-06
5.34303e-05
8.30696e-06
4.55777e-05
7.85261e-06
3.80454e-05
7.53232e-06
3.11229e-05
6.92251e-06
2.4628e-05
6.49488e-06
1.868e-05
5.948e-06
1.30558e-05
5.62421e-06
7.76647e-06
5.28936e-06
2.52952e-06
5.23696e-06
-2.58761e-06
5.11713e-06
-7.86417e-06
5.27656e-06
-1.32245e-05
5.36032e-06
-1.88671e-05
5.64263e-06
-2.4629e-05
5.76188e-06
-3.06109e-05
5.98186e-06
-3.66873e-05
6.07643e-06
-4.26151e-05
5.92784e-06
-4.83121e-05
5.69702e-06
-5.35426e-05
5.2305e-06
-5.81685e-05
4.6259e-06
-6.1948e-05
3.7795e-06
-6.46806e-05
2.7326e-06
-6.62153e-05
1.53465e-06
-6.64729e-05
2.57596e-07
-6.54971e-05
-9.75755e-07
-6.32066e-05
-2.29052e-06
-5.96106e-05
-3.59601e-06
-5.47631e-05
-4.84746e-06
-4.86251e-05
-6.138e-06
-4.13312e-05
-7.29385e-06
-3.27731e-05
-8.55809e-06
-2.31901e-05
-9.58301e-06
-1.26737e-05
-1.05164e-05
-1.17467e-06
-1.1499e-05
1.09187e-05
-1.20934e-05
2.39976e-05
-1.30788e-05
3.7583e-05
-1.35854e-05
5.18539e-05
-1.42708e-05
6.62918e-05
-1.4438e-05
8.10561e-05
-1.47643e-05
9.56776e-05
-1.46214e-05
0.000110277
-1.45992e-05
0.000124498
-1.42212e-05
0.000138471
-1.39732e-05
0.000151963
-1.34914e-05
0.000165142
-1.31797e-05
0.000177854
-1.27116e-05
0.000190292
-1.24382e-05
0.000202304
-1.20122e-05
0.000214055
-1.17503e-05
0.000225364
-1.13095e-05
0.000236135
-1.07702e-05
0.000246329
-1.01947e-05
0.00025558
-9.25105e-06
0.000263616
-8.03583e-06
0.000269781
-6.16451e-06
0.000273644
-3.86294e-06
0.000274255
-6.10705e-07
0.000268941
5.31393e-06
0.000255784
1.3157e-05
0.000234106
2.1678e-05
0.000201221
3.28847e-05
0.000157908
4.33131e-05
0.00010132
5.65879e-05
3.55088e-05
6.58114e-05
-4.07977e-05
7.63066e-05
-0.00011773
7.69322e-05
-0.000197827
8.00969e-05
-0.000274407
7.65798e-05
-0.00034659
7.21834e-05
-0.000410685
6.40953e-05
-0.000465322
5.46367e-05
-0.000510433
4.51113e-05
-0.000546237
3.58044e-05
-0.000573989
2.77514e-05
-0.000594924
2.09349e-05
-0.000610346
1.54224e-05
-0.000621787
1.14416e-05
-0.000629815
8.02753e-06
-0.000635235
5.42007e-06
-0.000638275
3.03995e-06
-0.000639472
1.19729e-06
-0.000637916
-1.5557e-06
-0.000633719
-4.19771e-06
-0.000627651
-6.06821e-06
-0.0006172
-1.04501e-05
-0.000606632
-1.05685e-05
-0.000592037
-1.4595e-05
-0.000576999
-1.50375e-05
-0.000559383
-1.76161e-05
-0.000540635
-1.87487e-05
-0.000520862
-1.9773e-05
-0.000499941
-2.09209e-05
-0.000478621
-2.13195e-05
-0.000457176
-2.14446e-05
-0.000436416
-2.07608e-05
-0.000416451
-1.99643e-05
-0.000398652
-1.77995e-05
-0.000383663
-1.49891e-05
-0.000371803
-1.18596e-05
-0.000362662
-9.14146e-06
-0.00035637
-6.29161e-06
-0.000352368
-4.00173e-06
-0.000350467
-1.90113e-06
-0.000349228
-1.23923e-06
-0.000346861
-2.36644e-06
-0.000344262
-2.59916e-06
-0.000342369
-1.89311e-06
-0.000341749
-6.20252e-07
-0.000343557
1.80817e-06
-0.000349142
5.58459e-06
-0.000359294
1.01519e-05
-0.000372901
1.36076e-05
-0.00038869
1.57888e-05
-0.00040633
1.76405e-05
-0.000425733
1.94024e-05
-0.000445729
1.99962e-05
-0.000465732
2.0003e-05
-0.000485477
1.97448e-05
-0.000504202
1.87257e-05
-0.000521548
1.73459e-05
-0.000537413
1.58646e-05
-0.000551567
1.41541e-05
-0.000563391
1.18244e-05
-0.000572996
9.60416e-06
-0.000581048
8.05234e-06
-0.00058617
5.12216e-06
-0.000589476
3.30612e-06
-0.000591391
1.91468e-06
-0.000589924
-1.46696e-06
-0.000587401
-2.52327e-06
-0.000583974
-3.42631e-06
-0.000579117
-4.85709e-06
-0.000573254
-5.86363e-06
-0.000566451
-6.8025e-06
-0.000558755
-7.69651e-06
-0.000551048
-7.70659e-06
-0.00054287
-8.17799e-06
-0.000533361
-9.50946e-06
-0.000523693
-9.6678e-06
-0.000513085
-1.06075e-05
-0.000502462
-1.06232e-05
-0.000492159
-1.03025e-05
-0.000481648
-1.05117e-05
-0.000471398
-1.02499e-05
-0.000461601
-9.79674e-06
-0.000451846
-9.75512e-06
-0.000442474
-9.37245e-06
-0.000433465
-9.00855e-06
-0.000424545
-8.92042e-06
-0.000416051
-8.49391e-06
-0.000407612
-8.43824e-06
-0.000399414
-8.19817e-06
-0.000391353
-8.06135e-06
-0.000383659
-7.69377e-06
-0.000376518
-7.14097e-06
-0.000370204
-6.314e-06
-0.000364448
-5.75566e-06
-0.000359171
-5.2776e-06
-0.000354043
-5.12812e-06
-0.000349612
-4.43083e-06
-0.000345611
-4.00133e-06
-0.000342403
-3.20783e-06
-0.000339482
-2.92066e-06
-0.000336506
-2.97571e-06
-0.000334404
-2.1027e-06
-0.000334533
1.28904e-07
-0.000338405
3.87213e-06
-0.000348193
9.7884e-06
-0.000366163
1.79698e-05
-0.000391953
2.57895e-05
-0.000421366
2.94129e-05
-0.000447871
2.65057e-05
-0.00046865
2.07787e-05
-0.000481164
1.25138e-05
-0.000484302
3.13836e-06
-0.000481553
-2.74926e-06
-0.000474808
-6.74549e-06
-0.000467026
-7.78141e-06
-0.00046193
-5.09647e-06
-0.000459988
-1.94181e-06
-0.00046051
5.2139e-07
-0.000458809
-1.70021e-06
-0.00045156
-7.24999e-06
-0.000438337
-1.32225e-05
-0.000421197
-1.71401e-05
-0.000402167
-1.90304e-05
-0.000380633
-2.15336e-05
-0.000354101
-2.65325e-05
-0.000320021
-3.408e-05
-0.000277023
-4.29979e-05
-0.000227167
-4.98555e-05
-0.000177695
-4.9472e-05
-0.000142723
-3.49722e-05
-0.000134103
-8.62045e-06
-0.000152183
1.80808e-05
-0.000190665
3.84815e-05
-0.000241972
5.13072e-05
-0.000299406
5.74342e-05
-0.000336054
3.66475e-05
-0.000335934
-1.19675e-07
-0.000294695
-4.12395e-05
-0.000216621
-7.80734e-05
-0.000104666
-0.000111955
4.06132e-05
-0.000145279
-0.00011227
0.000152883
-1.14817e-05
-3.86106e-05
7.44664e-06
-3.78378e-05
2.53899e-05
-3.5868e-05
4.22794e-05
-3.376e-05
5.76099e-05
-3.06425e-05
7.12249e-05
-2.72164e-05
8.28194e-05
-2.31828e-05
9.22166e-05
-1.87867e-05
9.92186e-05
-1.39958e-05
0.0001037
-8.97024e-06
0.000105705
-4.01126e-06
0.000105403
5.94502e-07
0.000103007
4.77248e-06
9.89179e-05
8.163e-06
9.31746e-05
1.14677e-05
8.60733e-05
1.41809e-05
7.8374e-05
1.53795e-05
7.00417e-05
1.6647e-05
6.1732e-05
1.66039e-05
5.34141e-05
1.66249e-05
4.55545e-05
1.57122e-05
3.80185e-05
1.50683e-05
3.10951e-05
1.3846e-05
2.45951e-05
1.29948e-05
1.86596e-05
1.18835e-05
1.30411e-05
1.12427e-05
7.75794e-06
1.05726e-05
2.52858e-06
1.04663e-05
-2.58171e-06
1.02274e-05
-7.8537e-06
1.05486e-05
-1.32119e-05
1.07186e-05
-1.88555e-05
1.12862e-05
-2.46209e-05
1.15274e-05
-3.06107e-05
1.19716e-05
-3.66991e-05
1.21649e-05
-4.264e-05
1.18687e-05
-4.83493e-05
1.14063e-05
-5.35887e-05
1.04699e-05
-5.82216e-05
9.25885e-06
-6.20091e-05
7.56698e-06
-6.47505e-05
5.47396e-06
-6.62901e-05
3.07432e-06
-6.65496e-05
5.17035e-07
-6.55741e-05
-1.95123e-06
-6.32827e-05
-4.58184e-06
-5.96852e-05
-7.19355e-06
-5.48361e-05
-9.69651e-06
-4.86966e-05
-1.22775e-05
-4.1401e-05
-1.45894e-05
-3.28408e-05
-1.71182e-05
-2.32546e-05
-1.91692e-05
-1.2736e-05
-2.10349e-05
-1.23658e-06
-2.29984e-05
1.08691e-05
-2.4199e-05
2.39578e-05
-2.61675e-05
3.75516e-05
-2.71792e-05
5.18309e-05
-2.855e-05
6.62776e-05
-2.88847e-05
8.10503e-05
-2.95369e-05
9.56791e-05
-2.92503e-05
0.000110284
-2.9204e-05
0.000124509
-2.84461e-05
0.000138484
-2.79479e-05
0.000151975
-2.69824e-05
0.000165152
-2.63573e-05
0.000177861
-2.54205e-05
0.000190297
-2.48736e-05
0.000202307
-2.40224e-05
0.000214057
-2.35003e-05
0.000225368
-2.26207e-05
0.000236144
-2.15455e-05
0.000246348
-2.03992e-05
0.000255615
-1.85175e-05
0.000263679
-1.61004e-05
0.000269879
-1.2364e-05
0.000273793
-7.77656e-06
0.000274464
-1.28233e-06
0.000269183
1.0595e-05
0.000256123
2.62177e-05
0.000234574
4.32265e-05
0.000201766
6.56935e-05
0.000158488
8.65911e-05
0.000101876
0.0001132
3.59813e-05
0.000131706
-4.05101e-05
0.000152798
-0.000117627
0.000154049
-0.00019796
0.00016043
-0.000274753
0.000153373
-0.000347104
0.000144535
-0.000411299
0.00012829
-0.000465973
0.000109311
-0.000511079
9.02171e-05
-0.000546854
7.158e-05
-0.000574589
5.54865e-05
-0.000595505
4.18512e-05
-0.000610953
3.087e-05
-0.000622421
2.29101e-05
-0.000630381
1.59877e-05
-0.000635702
1.07408e-05
-0.000638708
6.04567e-06
-0.000639905
2.39434e-06
-0.000638207
-3.25308e-06
-0.000633972
-8.43297e-06
-0.000627905
-1.2135e-05
-0.00061749
-2.08649e-05
-0.000606864
-2.11945e-05
-0.000592232
-2.92277e-05
-0.000577135
-3.01342e-05
-0.000559538
-3.52126e-05
-0.000540796
-3.74913e-05
-0.000521026
-3.95429e-05
-0.000500049
-4.18976e-05
-0.000478686
-4.26827e-05
-0.000457186
-4.29445e-05
-0.000436375
-4.15712e-05
-0.000416409
-3.99305e-05
-0.000398552
-3.5657e-05
-0.00038353
-3.00102e-05
-0.000371641
-2.37491e-05
-0.000362502
-1.82806e-05
-0.00035625
-1.25432e-05
-0.000352316
-7.93623e-06
-0.000350492
-3.72462e-06
-0.00034927
-2.46174e-06
-0.000346911
-4.72466e-06
-0.000344294
-5.21673e-06
-0.000342371
-3.81553e-06
-0.000341659
-1.33218e-06
-0.000343356
3.50508e-06
-0.000348966
1.11942e-05
-0.000359142
2.03285e-05
-0.000372824
2.72887e-05
-0.000388681
3.1646e-05
-0.00040631
3.52693e-05
-0.000425685
3.87776e-05
-0.000445718
4.00293e-05
-0.000465776
4.00608e-05
-0.000485556
3.95249e-05
-0.000504319
3.74893e-05
-0.000521683
3.47092e-05
-0.000537542
3.17235e-05
-0.000551684
2.82961e-05
-0.00056354
2.36802e-05
-0.000573187
1.92514e-05
-0.000581263
1.6128e-05
-0.000586374
1.02336e-05
-0.000589643
6.57557e-06
-0.000591464
3.73526e-06
-0.00059008
-2.85141e-06
-0.000587499
-5.10394e-06
-0.000584044
-6.88149e-06
-0.000579209
-9.6915e-06
-0.000573352
-1.17211e-05
-0.000566506
-1.36485e-05
-0.000558817
-1.53857e-05
-0.000551075
-1.54477e-05
-0.000542935
-1.63184e-05
-0.000533438
-1.90069e-05
-0.000523752
-1.93535e-05
-0.000513148
-2.12109e-05
-0.000502485
-2.12863e-05
-0.000492172
-2.06157e-05
-0.000481649
-2.10349e-05
-0.000471408
-2.04905e-05
-0.000461596
-1.96093e-05
-0.000451857
-1.94942e-05
-0.000442494
-1.87349e-05
-0.00043349
-1.80128e-05
-0.000424556
-1.78543e-05
-0.00041605
-1.70001e-05
-0.000407588
-1.69005e-05
-0.000399381
-1.64043e-05
-0.000391327
-1.61157e-05
-0.000383656
-1.5365e-05
-0.000376511
-1.42859e-05
-0.000370176
-1.26485e-05
-0.000364377
-1.15546e-05
-0.000359089
-1.0566e-05
-0.000353946
-1.02716e-05
-0.000349529
-8.84763e-06
-0.000345571
-7.95891e-06
-0.000342484
-6.29486e-06
-0.000339808
-5.59727e-06
-0.000337214
-5.56968e-06
-0.000335365
-3.95161e-06
-0.000335549
3.13138e-07
-0.000339316
7.63916e-06
-0.000348564
1.90361e-05
-0.000365145
3.45508e-05
-0.000388616
4.92602e-05
-0.000415591
5.6388e-05
-0.000440457
5.13718e-05
-0.000460114
4.04353e-05
-0.000472439
2.48394e-05
-0.000476048
6.7468e-06
-0.000473848
-4.94895e-06
-0.00046825
-1.23443e-05
-0.000462104
-1.39268e-05
-0.000457991
-9.20974e-06
-0.000457384
-2.54859e-06
-0.000458514
1.65087e-06
-0.000457349
-2.86521e-06
-0.000450705
-1.38936e-05
-0.000438206
-2.57222e-05
-0.000421915
-3.34306e-05
-0.000403629
-3.73166e-05
-0.000382645
-4.25174e-05
-0.000356611
-5.25664e-05
-0.000323136
-6.75551e-05
-0.00028076
-8.53744e-05
-0.000231526
-9.90891e-05
-0.000183141
-9.78575e-05
-0.000148495
-6.96176e-05
-0.000139051
-1.80645e-05
-0.000156506
3.55348e-05
-0.000194031
7.60066e-05
-0.000242977
0.000100254
-0.000293617
0.000108074
-0.000323352
6.63826e-05
-0.000318359
-5.11235e-06
-0.000272908
-8.66907e-05
-0.000193709
-0.000157273
-8.86259e-05
-0.000217038
3.16256e-05
-0.000265531
-0.000211026
0.000130382
-1.14213e-05
-5.79569e-05
7.54453e-06
-5.68036e-05
2.55247e-05
-5.38481e-05
4.24495e-05
-5.06847e-05
5.78133e-05
-4.60063e-05
7.1457e-05
-4.08601e-05
8.30655e-05
-3.47913e-05
9.24765e-05
-2.81977e-05
9.94907e-05
-2.101e-05
0.000103971
-1.34508e-05
0.000105969
-6.00853e-06
0.000105634
9.29165e-07
0.000103208
7.19852e-06
9.90879e-05
1.2283e-05
9.33062e-05
1.72494e-05
8.61624e-05
2.13248e-05
7.84248e-05
2.31171e-05
7.00577e-05
2.50141e-05
6.1717e-05
2.49445e-05
5.33773e-05
2.49646e-05
4.55039e-05
2.35856e-05
3.7961e-05
2.26112e-05
3.10365e-05
2.07705e-05
2.45238e-05
1.95076e-05
1.86168e-05
1.77906e-05
1.30101e-05
1.68494e-05
7.73966e-06
1.5843e-05
2.5261e-06
1.56799e-05
-2.57221e-06
1.53257e-05
-7.8357e-06
1.5812e-05
-1.319e-05
1.60729e-05
-1.88356e-05
1.69317e-05
-2.46093e-05
1.73011e-05
-3.06171e-05
1.79794e-05
-3.67316e-05
1.82795e-05
-4.26981e-05
1.78352e-05
-4.84279e-05
1.71362e-05
-5.36814e-05
1.57234e-05
-5.83288e-05
1.39063e-05
-6.21332e-05
1.13713e-05
-6.48921e-05
8.23285e-06
-6.6441e-05
4.62327e-06
-6.67023e-05
7.78369e-07
-6.57265e-05
-2.92706e-06
-6.34333e-05
-6.87502e-06
-5.98325e-05
-1.07944e-05
-5.49801e-05
-1.45488e-05
-4.88375e-05
-1.84202e-05
-4.15386e-05
-2.18883e-05
-3.29744e-05
-2.56824e-05
-2.33819e-05
-2.87616e-05
-1.28587e-05
-3.15582e-05
-1.34917e-06
-3.45079e-05
1.07717e-05
-3.63199e-05
2.38803e-05
-3.9276e-05
3.74913e-05
-4.07902e-05
5.1788e-05
-4.28467e-05
6.62527e-05
-4.33494e-05
8.10427e-05
-4.43268e-05
9.56868e-05
-4.38943e-05
0.000110303
-4.38206e-05
0.000124536
-4.26788e-05
0.000138514
-4.19259e-05
0.000152005
-4.04729e-05
0.000165179
-3.95313e-05
0.000177883
-3.81246e-05
0.000190313
-3.73038e-05
0.00020232
-3.60292e-05
0.00021407
-3.525e-05
0.000225384
-3.39353e-05
0.000236171
-3.23319e-05
0.000246395
-3.06236e-05
0.000255695
-2.78177e-05
0.000263823
-2.42276e-05
0.000270093
-1.86346e-05
0.000273977
-1.16602e-05
0.000274612
-1.91699e-06
0.000269538
1.56692e-05
0.000256814
3.89414e-05
0.00023551
6.45311e-05
0.000202848
9.83547e-05
0.00015964
0.0001298
0.000102976
0.000169864
3.69157e-05
0.000197766
-3.99405e-05
0.000229654
-0.000117428
0.000231537
-0.000198235
0.000241237
-0.00027544
0.000230578
-0.00034812
0.000217215
-0.000412515
0.000192684
-0.000467265
0.000164061
-0.000512358
0.000135311
-0.000548092
0.000107313
-0.000575838
8.32334e-05
-0.000596728
6.27411e-05
-0.000612067
4.62083e-05
-0.000623463
3.43063e-05
-0.000631456
2.39809e-05
-0.000636616
1.59008e-05
-0.000639466
8.89592e-06
-0.000640681
3.60945e-06
-0.000638798
-5.13578e-06
-0.000634466
-1.27651e-05
-0.000628347
-1.82541e-05
-0.000617949
-3.12623e-05
-0.000607244
-3.19002e-05
-0.000592573
-4.3898e-05
-0.000577414
-4.52939e-05
-0.000559826
-5.27999e-05
-0.000541054
-5.62635e-05
-0.000521332
-5.92651e-05
-0.000500242
-6.29876e-05
-0.000478769
-6.41556e-05
-0.000457143
-6.45702e-05
-0.000436259
-6.2455e-05
-0.000416268
-5.99215e-05
-0.000398276
-5.36487e-05
-0.000383225
-4.50612e-05
-0.000371268
-3.57064e-05
-0.000362079
-2.74697e-05
-0.000355897
-1.87254e-05
-0.000352156
-1.16773e-05
-0.000350569
-5.31129e-06
-0.000349365
-3.66585e-06
-0.000346904
-7.18531e-06
-0.000344312
-7.80875e-06
-0.00034241
-5.7178e-06
-0.000341448
-2.29414e-06
-0.000342923
4.98014e-06
-0.000348605
1.68765e-05
-0.000358788
3.05117e-05
-0.000372596
4.10966e-05
-0.000388589
4.76386e-05
-0.000406233
5.29134e-05
-0.000425551
5.80961e-05
-0.000445654
6.0132e-05
-0.000465807
6.02135e-05
-0.000485658
5.93762e-05
-0.000504501
5.6332e-05
-0.000521896
5.21038e-05
-0.000537746
4.75738e-05
-0.000551863
4.2413e-05
-0.000563824
3.5642e-05
-0.000573581
2.90077e-05
-0.000581727
2.42748e-05
-0.000586768
1.52743e-05
-0.000589962
9.76961e-06
-0.000591614
5.38656e-06
-0.000590336
-4.12943e-06
-0.000587653
-7.78677e-06
-0.000584139
-1.03956e-05
-0.00057936
-1.44706e-05
-0.000573531
-1.75497e-05
-0.000566587
-2.05921e-05
-0.000558892
-2.30813e-05
-0.000551079
-2.32604e-05
-0.000543003
-2.43943e-05
-0.00053354
-2.84695e-05
-0.000523829
-2.90649e-05
-0.000513255
-3.17848e-05
-0.000502502
-3.20397e-05
-0.000492166
-3.09518e-05
-0.000481621
-3.1579e-05
-0.000471409
-3.0703e-05
-0.000461565
-2.94532e-05
-0.000451854
-2.92048e-05
-0.000442478
-2.81114e-05
-0.000433488
-2.70028e-05
-0.000424558
-2.67843e-05
-0.000416036
-2.55219e-05
-0.000407534
-2.54024e-05
-0.000399298
-2.46408e-05
-0.000391238
-2.41756e-05
-0.000383614
-2.29886e-05
-0.000376488
-2.14117e-05
-0.000370138
-1.89986e-05
-0.000364244
-1.74487e-05
-0.000358875
-1.59352e-05
-0.00035368
-1.54669e-05
-0.000349267
-1.32607e-05
-0.000345357
-1.18684e-05
-0.00034237
-9.28253e-06
-0.000339912
-8.0548e-06
-0.00033774
-7.74141e-06
-0.000335974
-5.71847e-06
-0.00033583
1.69859e-07
-0.000339207
1.10157e-05
-0.000348066
2.78953e-05
-0.000364074
5.05589e-05
-0.00038645
7.16358e-05
-0.000411415
8.13526e-05
-0.000434639
7.45965e-05
-0.000453591
5.93864e-05
-0.000467318
3.85665e-05
-0.00047326
1.26886e-05
-0.000472353
-5.85591e-06
-0.000467774
-1.69229e-05
-0.000462562
-1.91397e-05
-0.000458849
-1.29223e-05
-0.000458958
-2.43978e-06
-0.000460427
3.11973e-06
-0.000459616
-3.67619e-06
-0.000453213
-2.02965e-05
-0.000440993
-3.79428e-05
-0.000425237
-4.91858e-05
-0.00040775
-5.48037e-05
-0.000387673
-6.25946e-05
-0.000362905
-7.73346e-05
-0.00033139
-9.907e-05
-0.000291171
-0.000125594
-0.000243747
-0.000146513
-0.000197035
-0.00014457
-0.000163263
-0.00010339
-0.000153077
-2.82502e-05
-0.000169505
5.19626e-05
-0.000205143
0.000111644
-0.000249778
0.000144889
-0.000294771
0.000153067
-0.000323634
9.52454e-05
-0.000316586
-1.21601e-05
-0.00026832
-0.000134957
-0.000189788
-0.000235804
-9.58442e-05
-0.000310982
5.01518e-06
-0.00036639
-0.000301712
9.57007e-05
-1.13307e-05
-7.73528e-05
7.69107e-06
-7.58254e-05
2.5726e-05
-7.1883e-05
4.2704e-05
-6.76627e-05
5.81129e-05
-6.14152e-05
7.17992e-05
-5.45463e-05
8.34429e-05
-4.6435e-05
9.28739e-05
-3.76286e-05
9.98973e-05
-2.80334e-05
0.000104383
-1.79367e-05
0.000106337
-7.9622e-06
0.000105981
1.28495e-06
0.000103524
9.65563e-06
9.93448e-05
1.64621e-05
9.35038e-05
2.30904e-05
8.62958e-05
2.85328e-05
7.85005e-05
3.09124e-05
7.00815e-05
3.34331e-05
6.16945e-05
3.33315e-05
5.33217e-05
3.33374e-05
4.54275e-05
3.14798e-05
3.78741e-05
3.01646e-05
3.09487e-05
2.76959e-05
2.44418e-05
2.60145e-05
1.85518e-05
2.36805e-05
1.29633e-05
2.24379e-05
7.71178e-06
2.10945e-05
2.52255e-06
2.08691e-05
-2.55756e-06
2.04059e-05
-7.80801e-06
2.10625e-05
-1.31559e-05
2.14208e-05
-1.88035e-05
2.25793e-05
-2.45879e-05
2.30855e-05
-3.0619e-05
2.40104e-05
-3.67669e-05
2.44273e-05
-4.27677e-05
2.38361e-05
-4.85292e-05
2.28976e-05
-5.38097e-05
2.10039e-05
-5.84846e-05
1.85812e-05
-6.23161e-05
1.52029e-05
-6.51004e-05
1.10172e-05
-6.66637e-05
6.18656e-06
-6.69303e-05
1.04492e-06
-6.59552e-05
-3.9021e-06
-6.36593e-05
-9.17098e-06
-6.00534e-05
-1.44002e-05
-5.51961e-05
-1.94061e-05
-4.90488e-05
-2.45674e-05
-4.1745e-05
-2.91922e-05
-3.31748e-05
-3.42526e-05
-2.35731e-05
-3.83633e-05
-1.30421e-05
-4.20892e-05
-1.50373e-06
-4.60462e-05
1.06264e-05
-4.84499e-05
2.37641e-05
-5.24137e-05
3.74008e-05
-5.44269e-05
5.17235e-05
-5.71694e-05
6.62155e-05
-5.78413e-05
8.10314e-05
-5.91427e-05
9.56984e-05
-5.85613e-05
0.000110333
-5.84548e-05
0.000124577
-5.69233e-05
0.00013856
-5.59088e-05
0.00015205
-5.39628e-05
0.000165218
-5.26996e-05
0.000177915
-5.08212e-05
0.000190338
-4.97262e-05
0.000202339
-4.80306e-05
0.000214088
-4.69992e-05
0.000225407
-4.52542e-05
0.000236212
-4.31361e-05
0.000246464
-4.08755e-05
0.000255821
-3.7175e-05
0.000264032
-3.24387e-05
0.000270415
-2.50176e-05
0.000274362
-1.5607e-05
0.000275026
-2.58126e-06
0.000270252
2.0444e-05
0.0002579
5.12935e-05
0.000236919
8.5512e-05
0.000204475
0.000130798
0.000161372
0.000172903
0.000104632
0.000226604
3.83282e-05
0.00026407
-3.90854e-05
0.000307068
-0.000117141
0.000309592
-0.000198661
0.000322757
-0.000276495
0.000308413
-0.00034967
0.00029039
-0.000414348
0.000257362
-0.00046921
0.000218923
-0.000514312
0.000180413
-0.000549952
0.000142953
-0.000577579
0.000110861
-0.000598462
8.36243e-05
-0.00061365
6.13962e-05
-0.000624697
4.53536e-05
-0.000632807
3.20906e-05
-0.00063796
2.1054e-05
-0.000640613
1.15485e-05
-0.000641775
4.77217e-06
-0.00063972
-7.19119e-06
-0.000635234
-1.72508e-05
-0.000629014
-2.44742e-05
-0.000618635
-4.16416e-05
-0.000607805
-4.273e-05
-0.000593087
-5.86159e-05
-0.000577851
-6.05299e-05
-0.000560286
-7.03655e-05
-0.000541384
-7.5165e-05
-0.000521597
-7.90524e-05
-0.000500393
-8.41918e-05
-0.000478894
-8.56537e-05
-0.000457071
-8.63931e-05
-0.000435989
-8.35376e-05
-0.000415977
-7.99337e-05
-0.000397863
-7.17622e-05
-0.000382701
-6.02236e-05
-0.000370726
-4.7681e-05
-0.000361631
-3.65649e-05
-0.000355494
-2.48623e-05
-0.000351948
-1.52229e-05
-0.000350507
-6.75304e-06
-0.000349339
-4.83324e-06
-0.000346947
-9.57735e-06
-0.000344381
-1.0375e-05
-0.000342397
-7.70171e-06
-0.000341194
-3.49737e-06
-0.000342295
6.08159e-06
-0.000348019
2.25999e-05
-0.000358208
4.07008e-05
-0.000372185
5.50737e-05
-0.000388391
6.38446e-05
-0.000406102
7.06249e-05
-0.000425379
7.73727e-05
-0.000445587
8.03404e-05
-0.000465888
8.05143e-05
-0.000485803
7.92909e-05
-0.00050474
7.52695e-05
-0.000522253
6.96167e-05
-0.000538118
6.34389e-05
-0.000552132
5.64267e-05
-0.000564246
4.77558e-05
-0.000574049
3.88107e-05
-0.000582223
3.24492e-05
-0.000587364
2.04149e-05
-0.000590493
1.28989e-05
-0.000591867
6.76058e-06
-0.000590672
-5.32488e-06
-0.000587923
-1.05351e-05
-0.000584264
-1.4055e-05
-0.000579553
-1.91814e-05
-0.000573795
-2.33076e-05
-0.000566717
-2.76703e-05
-0.000559006
-3.07923e-05
-0.000551103
-3.11637e-05
-0.000543088
-3.24092e-05
-0.000533689
-3.78686e-05
-0.000523925
-3.88282e-05
-0.000513393
-4.23167e-05
-0.000502528
-4.29056e-05
-0.000492155
-4.13245e-05
-0.000481565
-4.21683e-05
-0.000471383
-4.08859e-05
-0.000461525
-3.93109e-05
-0.000451859
-3.88704e-05
-0.000442419
-3.75521e-05
-0.00043345
-3.5971e-05
-0.000424557
-3.56779e-05
-0.000416001
-3.40772e-05
-0.000407484
-3.39203e-05
-0.000399191
-3.29336e-05
-0.000391101
-3.22657e-05
-0.000383552
-3.05368e-05
-0.000376461
-2.85028e-05
-0.000370133
-2.53265e-05
-0.00036418
-2.34019e-05
-0.00035871
-2.14055e-05
-0.000353423
-2.07537e-05
-0.000348961
-1.77222e-05
-0.000345098
-1.57321e-05
-0.000342184
-1.21966e-05
-0.000339873
-1.03652e-05
-0.000337865
-9.75012e-06
-0.000336044
-7.53893e-06
-0.000335489
-3.85383e-07
-0.000338204
1.37309e-05
-0.000346535
3.62255e-05
-0.000362519
6.65432e-05
-0.000384966
9.40831e-05
-0.00040971
0.000106096
-0.000432689
9.75748e-05
-0.000451651
7.83484e-05
-0.000466269
5.31851e-05
-0.000473564
1.99834e-05
-0.000473021
-6.39969e-06
-0.000468424
-2.15194e-05
-0.000463096
-2.44675e-05
-0.000459057
-1.69612e-05
-0.000459141
-2.35664e-06
-0.000461131
5.10986e-06
-0.000461371
-3.43597e-06
-0.000455844
-2.58234e-05
-0.000444411
-4.93757e-05
-0.000429821
-6.37765e-05
-0.00041399
-7.06345e-05
-0.000395757
-8.08276e-05
-0.000373297
-9.97945e-05
-0.000344879
-0.000127488
-0.000307776
-0.000162697
-0.000262864
-0.000191426
-0.000218112
-0.000189321
-0.000185344
-0.000136158
-0.00017449
-3.91043e-05
-0.000189866
6.7339e-05
-0.000223481
0.000145259
-0.000263135
0.000184543
-0.000300615
0.000190547
-0.000327571
0.000122201
-0.000322415
-1.73158e-05
-0.000275151
-0.000182221
-0.000205682
-0.000305274
-0.000133936
-0.000382728
-5.79326e-05
-0.000442393
-0.0003938
3.41556e-05
-1.12098e-05
-9.6815e-05
7.88624e-06
-9.49215e-05
2.5994e-05
-8.99908e-05
4.30429e-05
-8.47116e-05
5.85161e-05
-7.68884e-05
7.22542e-05
-6.82844e-05
8.39451e-05
-5.8126e-05
9.34062e-05
-4.70897e-05
0.000100436
-3.5063e-05
0.000104909
-2.24098e-05
0.000106847
-9.90057e-06
0.000106454
1.67821e-06
0.000103936
1.21738e-05
9.96904e-05
2.07077e-05
9.37675e-05
2.90133e-05
8.64734e-05
3.5827e-05
7.86006e-05
3.87852e-05
7.0113e-05
4.19207e-05
6.16652e-05
4.17794e-05
5.32467e-05
4.17559e-05
4.53245e-05
3.9402e-05
3.77571e-05
3.7732e-05
3.08309e-05
3.46221e-05
2.43309e-05
3.25145e-05
1.84641e-05
2.95473e-05
1.29002e-05
2.80019e-05
7.67361e-06
2.63211e-05
2.51816e-06
2.60246e-05
-2.53724e-06
2.54613e-05
-7.76972e-06
2.6295e-05
-1.31081e-05
2.67592e-05
-1.87569e-05
2.82281e-05
-2.45525e-05
2.88812e-05
-3.06083e-05
3.00662e-05
-3.67929e-05
3.06119e-05
-4.28359e-05
2.98791e-05
-4.86436e-05
2.87052e-05
-5.39679e-05
2.63282e-05
-5.86868e-05
2.33001e-05
-6.25558e-05
1.9072e-05
-6.53723e-05
1.38337e-05
-6.69564e-05
7.77065e-06
-6.72331e-05
1.32164e-06
-6.62604e-05
-4.87482e-06
-6.39607e-05
-1.14707e-05
-6.0348e-05
-1.80129e-05
-5.5484e-05
-2.42701e-05
-4.93307e-05
-3.07207e-05
-4.20202e-05
-3.65026e-05
-3.3442e-05
-4.28308e-05
-2.38284e-05
-4.79769e-05
-1.32862e-05
-5.26313e-05
-1.69613e-06
-5.76363e-05
1.04331e-05
-6.05791e-05
2.36093e-05
-6.55899e-05
3.728e-05
-6.80976e-05
5.16376e-05
-7.1527e-05
6.61659e-05
-7.23696e-05
8.10166e-05
-7.39934e-05
9.57145e-05
-7.32591e-05
0.000110372
-7.31125e-05
0.000124632
-7.11835e-05
0.000138622
-6.98983e-05
0.000152111
-6.74517e-05
0.000165271
-6.58602e-05
0.000177958
-6.35077e-05
0.00019037
-6.21381e-05
0.000202364
-6.00246e-05
0.000214112
-5.87474e-05
0.000225437
-5.65793e-05
0.000236264
-5.39626e-05
0.000246552
-5.1164e-05
0.000255983
-4.66052e-05
0.000264297
-4.07529e-05
0.000270841
-3.15619e-05
0.000274973
-1.97383e-05
0.000275779
-3.38758e-06
0.000271373
2.48499e-05
0.000259396
6.32705e-05
0.000238813
0.000106095
0.000206655
0.000162957
0.000163689
0.00021587
0.000106858
0.000283435
4.02294e-05
0.000330699
-3.792e-05
0.000385218
-0.000116736
0.000388409
-0.000199216
0.000405238
-0.00027791
0.000387106
-0.000351762
0.000364243
-0.000416831
0.000322431
-0.000471826
0.000273918
-0.000516912
0.0002255
-0.000552412
0.000178453
-0.000579799
0.000138247
-0.000600542
0.000104368
-0.000615532
7.63862e-05
-0.000626224
5.60459e-05
-0.00063432
4.0186e-05
-0.00063939
2.61241e-05
-0.000641815
1.39741e-05
-0.000642815
5.77225e-06
-0.000640765
-9.2415e-06
-0.000636238
-2.1778e-05
-0.000629883
-3.0829e-05
-0.000619533
-5.19918e-05
-0.000608471
-5.3792e-05
-0.000593769
-7.33174e-05
-0.000578327
-7.59717e-05
-0.000560792
-8.79007e-05
-0.00054177
-9.41864e-05
-0.000521805
-9.90178e-05
-0.000500448
-0.000105549
-0.000478928
-0.000107173
-0.000457025
-0.000108296
-0.000435731
-0.000104831
-0.000415546
-0.000100119
-0.00039726
-9.00481e-05
-0.000382002
-7.5481e-05
-0.000369966
-5.97177e-05
-0.000361147
-4.53837e-05
-0.00035516
-3.08489e-05
-0.000351811
-1.85718e-05
-0.000350397
-8.16696e-06
-0.000349237
-5.99323e-06
-0.000347069
-1.17454e-05
-0.000344576
-1.28681e-05
-0.00034227
-1.00077e-05
-0.000340758
-5.00916e-06
-0.00034147
6.79365e-06
-0.000347172
2.83017e-05
-0.000357342
5.08715e-05
-0.000371662
6.93928e-05
-0.000388128
8.03113e-05
-0.000405932
8.84282e-05
-0.000425145
9.65865e-05
-0.000445484
0.000100679
-0.000466003
0.000101034
-0.000485992
9.92795e-05
-0.000505114
9.43912e-05
-0.000522755
8.72578e-05
-0.000538656
7.93401e-05
-0.000552527
7.02978e-05
-0.000564735
5.99639e-05
-0.000574594
4.86692e-05
-0.000582705
4.05601e-05
-0.000588063
2.57729e-05
-0.00059114
1.59759e-05
-0.00059224
7.86117e-06
-0.0005911
-6.46484e-06
-0.000588327
-1.33088e-05
-0.000584481
-1.79011e-05
-0.000579809
-2.38528e-05
-0.000574119
-2.89979e-05
-0.00056687
-3.49194e-05
-0.000559177
-3.84855e-05
-0.0005512
-3.91407e-05
-0.000543213
-4.03959e-05
-0.000533918
-4.71638e-05
-0.000524082
-4.86638e-05
-0.000513509
-5.28899e-05
-0.000502542
-5.38722e-05
-0.000492168
-5.16987e-05
-0.000481508
-5.28284e-05
-0.000471342
-5.10518e-05
-0.000461486
-4.91669e-05
-0.000451849
-4.85077e-05
-0.00044239
-4.70112e-05
-0.000433408
-4.49523e-05
-0.000424551
-4.45348e-05
-0.000415932
-4.26967e-05
-0.000407463
-4.23887e-05
-0.000399135
-4.12621e-05
-0.00039099
-4.04107e-05
-0.000383518
-3.80084e-05
-0.000376401
-3.56199e-05
-0.000370085
-3.16431e-05
-0.000364132
-2.93546e-05
-0.000358635
-2.69026e-05
-0.000353304
-2.60848e-05
-0.000348772
-2.22544e-05
-0.000344938
-1.95662e-05
-0.000342097
-1.50375e-05
-0.000339881
-1.25812e-05
-0.000337994
-1.16373e-05
-0.000336153
-9.37926e-06
-0.000335291
-1.2481e-06
-0.000337543
1.59832e-05
-0.000345479
4.41616e-05
-0.0003612
8.22636e-05
-0.000383695
0.000116579
-0.000409294
0.000131695
-0.000433153
0.000121433
-0.000452484
9.76796e-05
-0.000467366
6.80677e-05
-0.000475141
2.77581e-05
-0.00047425
-7.29146e-06
-0.000469006
-2.67632e-05
-0.000463338
-3.01353e-05
-0.000459373
-2.09265e-05
-0.000459786
-1.94381e-06
-0.000462884
8.20808e-06
-0.000464739
-1.58102e-06
-0.000460803
-2.97593e-05
-0.000450462
-5.97166e-05
-0.000437367
-7.68714e-05
-0.000423696
-8.43055e-05
-0.000408137
-9.63866e-05
-0.000388871
-0.000119061
-0.0003644
-0.000151959
-0.000331156
-0.000195941
-0.000289057
-0.000233524
-0.000245446
-0.000232933
-0.000212346
-0.000169258
-0.000200797
-5.06533e-05
-0.00021621
8.27523e-05
-0.000249401
0.00017845
-0.000285985
0.000221127
-0.000317163
0.000221726
-0.000339343
0.000144381
-0.00033449
-2.21688e-05
-0.000291758
-0.000224953
-0.000235993
-0.000361038
-0.000188824
-0.000429898
-0.000137985
-0.000493231
-0.000466307
-6.54784e-05
-1.10591e-05
-0.00011636
8.12997e-06
-0.000114111
2.63282e-05
-0.000108189
4.34662e-05
-0.00010185
5.90154e-05
-9.24376e-05
7.28271e-05
-8.20961e-05
8.45656e-05
-6.98644e-05
9.40659e-05
-5.659e-05
0.000101104
-4.21008e-05
0.000105576
-2.68817e-05
0.000107489
-1.18138e-05
0.000107052
2.11493e-06
0.000104455
1.47706e-05
0.000100133
2.50298e-05
9.40975e-05
3.5049e-05
8.66951e-05
4.32294e-05
7.87246e-05
4.67557e-05
7.01521e-05
5.04931e-05
6.16347e-05
5.02968e-05
5.31517e-05
5.02389e-05
4.5194e-05
4.73598e-05
3.76086e-05
4.53174e-05
3.06824e-05
4.15482e-05
2.42135e-05
3.89834e-05
1.8353e-05
3.54078e-05
1.28202e-05
3.35347e-05
7.62396e-06
3.15173e-05
2.51324e-06
3.11353e-05
-2.51102e-06
3.04855e-05
-7.72064e-06
3.15046e-05
-1.30468e-05
3.20854e-05
-1.86965e-05
3.38778e-05
-2.45051e-05
3.46897e-05
-3.05901e-05
3.61512e-05
-3.68196e-05
3.68414e-05
-4.29147e-05
3.59742e-05
-4.87826e-05