/*--------------------------------*- C++ -*----------------------------------*\
| =========                 |                                                 |
| \\      /  F ield         | OpenFOAM: The Open Source CFD Toolbox           |
|  \\    /   O peration     | Version:  3.0.1                                 |
|   \\  /    A nd           | Web:      www.OpenFOAM.org                      |
|    \\/     M anipulation  |                                                 |
\*---------------------------------------------------------------------------*/
FoamFile
{
    version     2.0;
    format      ascii;
    class       surfaceScalarField;
    location    "27.8";
    object      alphaPhi;
}
// * * * * * * * * * * * * * * * * * * * * * * * * * * * * * * * * * * * * * //

dimensions      [0 3 -1 0 0 0 0];

internalField   nonuniform List<scalar> 
44922
(
-0.000342798
-8.26156e-06
-0.000334685
-8.1124e-06
-0.000326726
-7.95945e-06
-0.000319031
-7.69442e-06
-0.000311539
-7.49236e-06
-0.000304249
-7.28996e-06
-0.000297
-7.24945e-06
-0.000289681
-7.31882e-06
-0.000282063
-7.61734e-06
-0.00027395
-8.11293e-06
-0.000265114
-8.83601e-06
-0.000255297
-9.81767e-06
-0.000244371
-1.09256e-05
-0.000232017
-1.23537e-05
-0.000218343
-1.36744e-05
-0.00020341
-1.49325e-05
-0.000186629
-1.67814e-05
-0.000168859
-1.777e-05
-0.000149389
-1.94698e-05
-0.000129535
-1.98537e-05
-0.000108458
-2.10772e-05
-8.77979e-05
-2.06599e-05
-6.68292e-05
-2.09687e-05
-4.72706e-05
-1.95586e-05
-2.83422e-05
-1.89283e-05
-1.18643e-05
-1.64779e-05
2.83818e-06
-1.47025e-05
1.56924e-05
-1.28542e-05
2.57336e-05
-1.00411e-05
3.24621e-05
-6.72851e-06
3.57536e-05
-3.29152e-06
3.55059e-05
2.47729e-07
3.25106e-05
2.99531e-06
2.67124e-05
5.79825e-06
1.8305e-05
8.40735e-06
7.9384e-06
1.03666e-05
-4.16442e-06
1.21028e-05
-1.72066e-05
1.30421e-05
-3.29162e-05
1.57097e-05
-4.99583e-05
1.70421e-05
-6.88203e-05
1.8862e-05
-8.90001e-05
2.01797e-05
-0.000111154
2.21538e-05
-0.000134703
2.35495e-05
-0.000160677
2.59736e-05
-0.000188085
2.74078e-05
-0.000218338
3.02528e-05
-0.000249788
3.14501e-05
-0.000284183
3.43955e-05
-0.000319159
3.49763e-05
-0.00035694
3.77809e-05
-0.00039651
3.95699e-05
-0.000434877
3.83673e-05
-0.000474123
3.92454e-05
-0.000510797
3.66744e-05
-0.000546925
3.61281e-05
-0.000579483
3.25582e-05
-0.000610257
3.0774e-05
-0.000637266
2.70086e-05
-0.00066177
2.45045e-05
-0.000682813
2.10428e-05
-0.000701084
1.82712e-05
-0.000716067
1.49823e-05
-0.00072825
1.21835e-05
-0.000734501
6.25142e-06
-0.000734583
8.18607e-08
-0.000728337
-6.24641e-06
-0.00071742
-1.09165e-05
-0.000702255
-1.51656e-05
-0.000683751
-1.85037e-05
-0.000662311
-2.14395e-05
-0.000638502
-2.38088e-05
-0.000613231
-2.52715e-05
-0.000586772
-2.64586e-05
-0.000560225
-2.65475e-05
-0.00053342
-2.68041e-05
-0.000507408
-2.60121e-05
-0.000481554
-2.58537e-05
-0.000456629
-2.49256e-05
-0.000431444
-2.51848e-05
-0.000406635
-2.48087e-05
-0.000380296
-2.63393e-05
-0.000353481
-2.68143e-05
-0.000323658
-2.98236e-05
-0.000293163
-3.04945e-05
-0.000258958
-3.4205e-05
-0.000225274
-3.3684e-05
-0.00018863
-3.66439e-05
-0.000155452
-3.31774e-05
-0.000125096
-3.03558e-05
-9.67257e-05
-2.83704e-05
-7.48854e-05
-2.18403e-05
-5.91026e-05
-1.57827e-05
-5.22782e-05
-6.82425e-06
-5.46251e-05
2.34708e-06
-6.93714e-05
1.47463e-05
-9.49293e-05
2.55579e-05
-0.000131436
3.65062e-05
-0.000176137
4.47014e-05
-0.000228828
5.26908e-05
-0.000286192
5.73635e-05
-0.000346072
5.98795e-05
-0.000404779
5.87071e-05
-0.000459972
5.5193e-05
-0.000509769
4.9797e-05
-0.000553408
4.36388e-05
-0.000590474
3.70661e-05
-0.00062135
3.08761e-05
-0.000646777
2.54267e-05
-0.000667517
2.0739e-05
-0.000683415
1.58973e-05
-0.000695195
1.17801e-05
-0.000702861
7.6663e-06
-0.000707094
4.23221e-06
-0.000708396
1.30219e-06
-0.000707277
-1.11841e-06
-0.000702106
-5.17161e-06
-0.000695607
-6.49916e-06
-0.000686212
-9.39489e-06
-0.000675304
-1.09072e-05
-0.000663398
-1.19064e-05
-0.000649481
-1.39164e-05
-0.000634203
-1.52782e-05
-0.000621054
-1.3149e-05
-0.000609067
-1.19873e-05
-0.000598647
-1.042e-05
-0.00058998
-8.66674e-06
-0.00058182
-8.15991e-06
-0.000571712
-1.01075e-05
-0.000556798
-1.49142e-05
-0.000537591
-1.92062e-05
-0.000516615
-2.09764e-05
-0.000495549
-2.10658e-05
-0.000474122
-2.14264e-05
-0.000453463
-2.06597e-05
-0.000433234
-2.02284e-05
-0.000414601
-1.86329e-05
-0.000396634
-1.79666e-05
-0.000379441
-1.7193e-05
-0.000362865
-1.65766e-05
-0.000346765
-1.60993e-05
-0.000331316
-1.54497e-05
-0.000316523
-1.47926e-05
-0.000302367
-1.41563e-05
-0.000289044
-1.33217e-05
-0.000276749
-1.22952e-05
-0.00026544
-1.13096e-05
-0.000255496
-9.94356e-06
-0.000246725
-8.77126e-06
-0.000239316
-7.40849e-06
-0.000233054
-6.2624e-06
-0.000228087
-4.96699e-06
-0.000225135
-2.95175e-06
-0.000223715
-1.41999e-06
-0.000224385
6.69592e-07
-0.000227174
2.78895e-06
-0.000231817
4.64381e-06
-0.000238389
6.57117e-06
-0.000246954
8.56523e-06
-0.000257459
1.05053e-05
-0.000269777
1.23179e-05
-0.000283943
1.41659e-05
-0.000299523
1.55799e-05
-0.000316824
1.73013e-05
-0.000335366
1.85416e-05
-0.000354511
1.91455e-05
-0.000373805
1.9294e-05
-0.000392429
1.86234e-05
-0.000409591
1.7162e-05
-0.000425582
1.5991e-05
-0.000440265
1.46837e-05
-0.000453939
1.36735e-05
-0.000466347
1.24077e-05
-0.000477628
1.12806e-05
-0.000487628
1.00005e-05
-0.000496331
8.70237e-06
-0.000503884
7.55325e-06
-0.000510039
6.15505e-06
-0.000515086
5.04679e-06
-0.000518811
3.72548e-06
-0.000521666
2.85476e-06
-0.000523742
2.07567e-06
-0.000525015
1.27303e-06
-0.000525702
6.87768e-07
-0.000525939
2.36355e-07
-0.000525391
-5.47094e-07
-0.000523976
-1.41579e-06
-0.000521731
-2.24456e-06
-0.000518466
-3.26517e-06
-0.000514207
-4.25912e-06
-0.000508799
-5.40784e-06
-0.000502039
-6.75973e-06
-0.000493506
-8.53266e-06
-0.000482527
-1.0979e-05
-0.000468256
-1.42709e-05
-0.00045029
-1.7966e-05
-0.000429356
-2.09338e-05
-0.000407961
-2.13955e-05
-0.000391806
-1.6153e-05
-0.000383969
-7.83561e-06
-0.000380771
-3.20047e-06
-0.000378689
-2.08245e-06
-0.000375557
-3.13225e-06
-0.00036892
-6.63686e-06
-0.000355983
-1.29367e-05
-0.000335202
-2.07807e-05
-0.000308441
-2.67596e-05
-0.000280002
-2.84372e-05
-0.000252084
-2.79188e-05
-0.000223456
-2.86274e-05
-0.000194526
-2.89301e-05
-0.000164401
-3.01254e-05
-0.000133801
-3.05998e-05
-0.000101196
-3.26047e-05
-6.61654e-05
-3.50308e-05
-2.58659e-05
-4.02995e-05
1.39169e-05
-3.97829e-05
4.49149e-05
-3.09981e-05
7.49513e-05
-3.00365e-05
0.000103407
-2.84558e-05
0.000128193
-2.47865e-05
0.000148209
-2.00162e-05
0.000167239
-1.90299e-05
0.000156473
1.07661e-05
2.1117e-05
0.000135356
-0.000342795
-1.65289e-05
-0.000334674
-1.62331e-05
-0.00032671
-1.59231e-05
-0.000319015
-1.53895e-05
-0.000311526
-1.49818e-05
-0.000304242
-1.45739e-05
-0.000297001
-1.44901e-05
-0.000289693
-1.4627e-05
-0.000282087
-1.52226e-05
-0.000273987
-1.62133e-05
-0.000265163
-1.76598e-05
-0.000255356
-1.9624e-05
-0.00024444
-2.18416e-05
-0.000232094
-2.47001e-05
-0.000218424
-2.73444e-05
-0.000203491
-2.98652e-05
-0.000186706
-3.35661e-05
-0.000168927
-3.55495e-05
-0.000149445
-3.89511e-05
-0.000129571
-3.97278e-05
-0.000108474
-4.21746e-05
-8.77856e-05
-4.1348e-05
-6.67903e-05
-4.1964e-05
-4.72022e-05
-3.91466e-05
-2.82454e-05
-3.7885e-05
-1.17402e-05
-3.2983e-05
3.02913e-06
-2.94718e-05
1.58805e-05
-2.57056e-05
2.593e-05
-2.00906e-05
3.26629e-05
-1.34613e-05
3.59534e-05
-6.58198e-06
3.57014e-05
4.99667e-07
3.2695e-05
6.00179e-06
2.68837e-05
1.16096e-05
1.84609e-05
1.68301e-05
8.08056e-06
2.0747e-05
-4.05902e-06
2.42424e-05
-1.71099e-05
2.6093e-05
-3.28247e-05
3.14245e-05
-4.9871e-05
3.40884e-05
-6.87299e-05
3.77209e-05
-8.8904e-05
4.03538e-05
-0.000111049
4.42989e-05
-0.00013459
4.70905e-05
-0.000160556
5.19392e-05
-0.000187959
5.48116e-05
-0.000218212
6.05059e-05
-0.000249669
6.29064e-05
-0.000284078
6.88045e-05
-0.000319073
6.99717e-05
-0.000356882
7.55897e-05
-0.000396487
7.91751e-05
-0.00043489
7.677e-05
-0.000474174
7.85291e-05
-0.000510883
7.33841e-05
-0.000547041
7.2286e-05
-0.000579622
6.51388e-05
-0.000610406
6.15583e-05
-0.000637419
5.40219e-05
-0.000661921
4.90062e-05
-0.000682962
4.20837e-05
-0.000701222
3.65319e-05
-0.000716035
2.9795e-05
-0.000727823
2.39717e-05
-0.000734071
1.24991e-05
-0.000734423
4.34508e-07
-0.000728547
-1.21227e-05
-0.000717649
-2.18144e-05
-0.000702463
-3.03513e-05
-0.000683926
-3.70405e-05
-0.000662449
-4.29163e-05
-0.000638604
-4.76538e-05
-0.000613299
-5.05764e-05
-0.000586812
-5.29454e-05
-0.000560242
-5.31166e-05
-0.000533428
-5.36183e-05
-0.000507415
-5.20246e-05
-0.000481578
-5.16903e-05
-0.000456677
-4.98271e-05
-0.000431532
-5.03292e-05
-0.000406762
-4.95783e-05
-0.000380477
-5.26243e-05
-0.000353698
-5.35928e-05
-0.000323914
-5.96073e-05
-0.000293422
-6.09868e-05
-0.000259214
-6.84125e-05
-0.000225487
-6.741e-05
-0.000188765
-7.33662e-05
-0.0001555
-6.64418e-05
-0.000125046
-6.08099e-05
-9.65547e-05
-5.68612e-05
-7.45981e-05
-4.37966e-05
-5.86984e-05
-3.16821e-05
-5.17992e-05
-1.3723e-05
-5.40711e-05
4.61954e-06
-6.87765e-05
2.94515e-05
-9.43437e-05
5.11237e-05
-0.000130919
7.30806e-05
-0.00017573
8.95131e-05
-0.00022856
0.000105523
-0.000286089
0.000114893
-0.000346137
0.000119927
-0.000404986
0.000117548
-0.000460259
0.000110464
-0.000510094
9.96323e-05
-0.000553774
8.73187e-05
-0.00059089
7.41862e-05
-0.000621821
6.18101e-05
-0.000647246
5.08519e-05
-0.000667931
4.14191e-05
-0.000683949
3.19085e-05
-0.000695655
2.34851e-05
-0.000703206
1.52196e-05
-0.000707494
8.52372e-06
-0.000708727
2.53668e-06
-0.000707509
-2.34054e-06
-0.000702269
-1.04157e-05
-0.000695742
-1.30274e-05
-0.000686371
-1.87654e-05
-0.000675445
-2.18339e-05
-0.000663507
-2.38423e-05
-0.000649593
-2.7822e-05
-0.000634237
-3.06318e-05
-0.000621022
-2.63654e-05
-0.000609026
-2.39895e-05
-0.000598602
-2.0846e-05
-0.000589969
-1.73003e-05
-0.000581886
-1.62431e-05
-0.000571965
-2.0023e-05
-0.000557097
-2.9778e-05
-0.000537799
-3.85038e-05
-0.000516692
-4.20846e-05
-0.000495573
-4.21895e-05
-0.000474109
-4.28914e-05
-0.000453444
-4.13241e-05
-0.000433204
-4.04644e-05
-0.000414571
-3.72641e-05
-0.000396601
-3.59368e-05
-0.00037942
-3.43766e-05
-0.000362846
-3.31521e-05
-0.000346754
-3.21916e-05
-0.000331311
-3.08928e-05
-0.000316525
-2.95763e-05
-0.000302361
-2.83169e-05
-0.000289025
-2.66577e-05
-0.000276714
-2.46068e-05
-0.000265384
-2.26394e-05
-0.000255425
-1.99046e-05
-0.000246661
-1.75365e-05
-0.000239257
-1.48113e-05
-0.000232996
-1.25216e-05
-0.000227999
-9.9631e-06
-0.00022502
-5.93055e-06
-0.000223635
-2.80529e-06
-0.000224293
1.32571e-06
-0.000227079
5.57429e-06
-0.000231727
9.29314e-06
-0.000238312
1.3157e-05
-0.000246879
1.71329e-05
-0.000257393
2.10188e-05
-0.000269707
2.46309e-05
-0.000283885
2.8342e-05
-0.000299478
3.11725e-05
-0.000316799
3.46221e-05
-0.000335362
3.71048e-05
-0.000354545
3.83274e-05
-0.000373864
3.86123e-05
-0.000392533
3.72917e-05
-0.000409705
3.43367e-05
-0.000425696
3.19831e-05
-0.000440374
2.93616e-05
-0.000454038
2.73377e-05
-0.000466435
2.48011e-05
-0.000477704
2.25471e-05
-0.000487705
2.00013e-05
-0.000496421
1.74181e-05
-0.000503987
1.51219e-05
-0.000510152
1.23224e-05
-0.000515188
1.00823e-05
-0.000518889
7.42644e-06
-0.000521711
5.67511e-06
-0.000523775
4.13643e-06
-0.000525068
2.56606e-06
-0.000525821
1.44173e-06
-0.000526064
4.82924e-07
-0.000525488
-1.12281e-06
-0.000524027
-2.877e-06
-0.000521753
-4.51847e-06
-0.000518477
-6.54573e-06
-0.00051423
-8.50618e-06
-0.000508861
-1.07758e-05
-0.000502163
-1.3454e-05
-0.000493731
-1.69647e-05
-0.000482901
-2.18086e-05
-0.000468839
-2.83337e-05
-0.000451144
-3.56622e-05
-0.000430601
-4.14763e-05
-0.000409718
-4.22775e-05
-0.00039188
-3.39914e-05
-0.00038079
-1.89254e-05
-0.000375574
-8.41643e-06
-0.000372033
-5.62601e-06
-0.000367299
-7.86702e-06
-0.000358854
-1.50812e-05
-0.000344501
-2.72903e-05
-0.000323845
-4.14366e-05
-0.000299089
-5.15153e-05
-0.000273293
-5.42333e-05
-0.000247042
-5.41694e-05
-0.000219358
-5.63113e-05
-0.000191638
-5.66501e-05
-0.000163473
-5.82906e-05
-0.000133956
-6.01169e-05
-0.000101474
-6.50857e-05
-6.60374e-05
-7.04675e-05
-2.6517e-05
-7.982e-05
1.31186e-05
-7.94186e-05
4.40937e-05
-6.19733e-05
7.23585e-05
-5.83014e-05
0.000100604
-5.67014e-05
0.00012615
-5.0332e-05
0.00014707
-4.09368e-05
0.000169855
-4.18158e-05
0.000168664
1.19557e-05
3.75462e-05
0.000152234
-0.000342785
-2.48122e-05
-0.000334654
-2.43634e-05
-0.000326685
-2.38924e-05
-0.00031899
-2.30845e-05
-0.000311506
-2.24652e-05
-0.000304234
-2.18462e-05
-0.00029701
-2.17139e-05
-0.000289723
-2.19143e-05
-0.000282141
-2.28044e-05
-0.000274065
-2.42892e-05
-0.000265265
-2.64595e-05
-0.000255481
-2.94082e-05
-0.000244583
-3.2739e-05
-0.000232251
-3.70322e-05
-0.00021859
-4.10058e-05
-0.000203656
-4.4799e-05
-0.000186864
-5.03576e-05
-0.000169065
-5.33488e-05
-0.00014956
-5.84555e-05
-0.000129645
-5.9643e-05
-0.000108507
-6.33126e-05
-8.77619e-05
-6.2093e-05
-6.67131e-05
-6.30128e-05
-4.70656e-05
-5.87942e-05
-2.80521e-05
-5.68984e-05
-1.1493e-05
-4.95421e-05
3.40518e-06
-4.437e-05
1.62557e-05
-3.85561e-05
2.63226e-05
-3.01575e-05
3.30642e-05
-2.02029e-05
3.63559e-05
-9.8737e-06
3.60957e-05
7.59857e-07
3.30637e-05
9.03381e-06
2.72255e-05
1.74478e-05
1.87715e-05
2.52842e-05
8.3628e-06
3.11557e-05
-3.8496e-06
3.64548e-05
-1.6918e-05
3.91614e-05
-3.26433e-05
4.71498e-05
-4.96984e-05
5.11435e-05
-6.85516e-05
5.65742e-05
-8.87149e-05
6.0517e-05
-0.000110843
6.6427e-05
-0.000134368
7.06152e-05
-0.000160318
7.78897e-05
-0.000187715
8.2208e-05
-0.000217969
9.07605e-05
-0.000249439
9.43763e-05
-0.000283876
0.000103242
-0.000318911
0.000105006
-0.000356777
0.000113455
-0.000396454
0.000118852
-0.000434928
0.000115245
-0.00047429
0.000117891
-0.000511072
0.000110166
-0.00054729
0.000108504
-0.000579917
9.77653e-05
-0.000610723
9.23644e-05
-0.000637746
8.10457e-05
-0.000662243
7.35033e-05
-0.00068328
6.31204e-05
-0.000701521
5.47732e-05
-0.000716069
4.43426e-05
-0.000727033
3.49357e-05
-0.000733205
1.8671e-05
-0.000734169
1.39934e-06
-0.000728973
-1.73193e-05
-0.000718126
-3.26606e-05
-0.000702899
-4.55787e-05
-0.000684293
-5.56466e-05
-0.00066274
-6.44688e-05
-0.000638821
-7.15728e-05
-0.000613447
-7.59499e-05
-0.000586902
-7.94902e-05
-0.000560288
-7.97308e-05
-0.000533452
-8.04541e-05
-0.000507436
-7.80395e-05
-0.000481632
-7.74947e-05
-0.000456776
-7.46825e-05
-0.00043171
-7.5395e-05
-0.000407012
-7.42763e-05
-0.000380831
-7.88051e-05
-0.000354115
-8.03086e-05
-0.000324408
-8.93137e-05
-0.000293919
-9.1476e-05
-0.000259707
-0.000102624
-0.000225897
-0.000101219
-0.000189012
-0.00011025
-0.000155586
-9.98669e-05
-0.000124944
-9.1452e-05
-9.62193e-05
-8.55855e-05
-7.40411e-05
-6.59737e-05
-5.78818e-05
-4.7841e-05
-5.08241e-05
-2.07802e-05
-5.29536e-05
6.74947e-06
-6.75826e-05
4.40808e-05
-9.31635e-05
7.67047e-05
-0.000129869
0.000109786
-0.00017491
0.000134555
-0.000228025
0.000158638
-0.000285852
0.00017272
-0.000346234
0.000180309
-0.000405375
0.00017669
-0.000460802
0.000165888
-0.000510727
0.000149556
-0.000554477
0.000131068
-0.000591611
0.000111319
-0.000622562
9.27609e-05
-0.000648033
7.6323e-05
-0.00066871
6.20969e-05
-0.000684692
4.78919e-05
-0.000696271
3.50642e-05
-0.000703912
2.2861e-05
-0.000708281
1.28928e-05
-0.000709214
3.4694e-06
-0.000707799
-3.75488e-06
-0.000702513
-1.5705e-05
-0.000695946
-1.96007e-05
-0.000686651
-2.80607e-05
-0.00067572
-3.27623e-05
-0.000663667
-3.58869e-05
-0.000649776
-4.17131e-05
-0.000634269
-4.61383e-05
-0.000620906
-3.9728e-05
-0.00060889
-3.60059e-05
-0.000598461
-3.12745e-05
-0.000589936
-2.58236e-05
-0.000581985
-2.42004e-05
-0.00057241
-2.95993e-05
-0.000557642
-4.45422e-05
-0.000538182
-5.79645e-05
-0.000516817
-6.34491e-05
-0.000495562
-6.34448e-05
-0.000474027
-6.44261e-05
-0.000453352
-6.2e-05
-0.000433089
-6.07283e-05
-0.000414443
-5.59104e-05
-0.000396492
-5.3888e-05
-0.000379343
-5.1526e-05
-0.000362778
-4.97171e-05
-0.000346705
-4.82645e-05
-0.000331251
-4.63471e-05
-0.00031648
-4.4347e-05
-0.000302313
-4.24837e-05
-0.000288954
-4.00167e-05
-0.000276605
-3.69553e-05
-0.000265244
-3.40003e-05
-0.00025527
-2.98794e-05
-0.000246515
-2.62907e-05
-0.000239112
-2.22147e-05
-0.000232861
-1.87727e-05
-0.000227819
-1.50046e-05
-0.000224763
-8.98712e-06
-0.000223449
-4.11879e-06
-0.00022412
1.99592e-06
-0.000226922
8.37657e-06
-0.00023157
1.39417e-05
-0.000238182
1.97682e-05
-0.000246746
2.56976e-05
-0.000257273
3.15454e-05
-0.000269552
3.69103e-05
-0.000283745
4.25347e-05
-0.000299368
4.67962e-05
-0.000316732
5.1986e-05
-0.000335316
5.56883e-05
-0.000354576
5.7588e-05
-0.000373948
5.79843e-05
-0.000392707
5.60507e-05
-0.000409913
5.15414e-05
-0.000425891
4.79618e-05
-0.000440553
4.40248e-05
-0.000454204
4.09888e-05
-0.000466582
3.71792e-05
-0.000477835
3.38002e-05
-0.000487828
2.99936e-05
-0.000496548
2.61388e-05
-0.000504139
2.27119e-05
-0.000510331
1.85145e-05
-0.000515361
1.51107e-05
-0.000519027
1.1093e-05
-0.000521787
8.43609e-06
-0.000523824
6.17289e-06
-0.000525169
3.9107e-06
-0.000526007
2.28027e-06
-0.000526185
6.59571e-07
-0.000525599
-1.70937e-06
-0.000524114
-4.36009e-06
-0.000521789
-6.84366e-06
-0.000518467
-9.86756e-06
-0.000514223
-1.27505e-05
-0.000508912
-1.60868e-05
-0.00050231
-2.00557e-05
-0.000494003
-2.52724e-05
-0.00048333
-3.24814e-05
-0.000469414
-4.22494e-05
-0.000451774
-5.33017e-05
-0.00043116
-6.20904e-05
-0.000410195
-6.32426e-05
-0.000392314
-5.18738e-05
-0.000379985
-3.12544e-05
-0.000372566
-1.58327e-05
-0.000367542
-1.065e-05
-0.000361794
-1.36157e-05
-0.000352684
-2.41936e-05
-0.0003387
-4.12735e-05
-0.00031952
-6.06155e-05
-0.00029724
-7.37941e-05
-0.000273767
-7.77047e-05
-0.000248508
-7.94287e-05
-0.000220876
-8.39423e-05
-0.000193295
-8.42312e-05
-0.000165586
-8.59994e-05
-0.000136379
-8.93238e-05
-0.000104719
-9.67456e-05
-6.9607e-05
-0.000105579
-3.15152e-05
-0.000117912
7.6393e-06
-0.000118573
3.82709e-05
-9.26049e-05
6.32387e-05
-8.3269e-05
9.10367e-05
-8.44992e-05
0.00011861
-7.79047e-05
0.000139732
-6.20585e-05
0.000165475
-6.75594e-05
0.000175281
2.14904e-06
4.44474e-05
0.000168378
-0.00034277
-3.31184e-05
-0.000334624
-3.25097e-05
-0.000326646
-3.18699e-05
-0.000318952
-3.07793e-05
-0.000311477
-2.99394e-05
-0.000304223
-2.91008e-05
-0.000297024
-2.89122e-05
-0.000289768
-2.91705e-05
-0.000282222
-3.03508e-05
-0.000274182
-3.23282e-05
-0.000265419
-3.52232e-05
-0.000255668
-3.91589e-05
-0.000244798
-4.36084e-05
-0.000232488
-4.93428e-05
-0.000218839
-5.46544e-05
-0.000203904
-5.97344e-05
-0.000187102
-6.71591e-05
-0.000169273
-7.11777e-05
-0.000149734
-7.79947e-05
-0.000129757
-7.96203e-05
-0.000108558
-8.45115e-05
-8.77266e-05
-8.29239e-05
-6.65975e-05
-8.41419e-05
-4.68604e-05
-7.85312e-05
-2.77627e-05
-7.59961e-05
-1.1124e-05
-6.61808e-05
3.95653e-06
-5.94505e-05
1.68166e-05
-5.14161e-05
2.69112e-05
-4.02521e-05
3.36659e-05
-2.69576e-05
3.69577e-05
-1.31655e-05
3.6683e-05
1.03457e-06
3.36161e-05
1.21007e-05
2.77381e-05
2.33258e-05
1.92366e-05
3.37858e-05
8.78325e-06
4.1609e-05
-3.5369e-06
4.8775e-05
-1.66314e-05
5.2256e-05
-3.23718e-05
6.28902e-05
-4.94402e-05
6.82119e-05
-6.82847e-05
7.54188e-05
-8.84316e-05
8.06639e-05
-0.000110534
8.85296e-05
-0.000134034
9.41152e-05
-0.000159962
0.000103817
-0.000187347
0.000109593
-0.000217603
0.000121017
-0.000249094
0.000125866
-0.000283573
0.000137721
-0.000318666
0.0001401
-0.000356618
0.000151407
-0.000396403
0.000158638
-0.000434986
0.000153828
-0.000474465
0.000157369
-0.000511355
0.000147057
-0.000547665
0.000144814
-0.000580361
0.000130462
-0.0006112
0.000123203
-0.00063824
0.000108087
-0.000662734
9.79965e-05
-0.000683775
8.4162e-05
-0.000702031
7.3029e-05
-0.000716603
5.89148e-05
-0.000727141
4.54739e-05
-0.000733139
2.46691e-05
-0.000734531
2.7916e-06
-0.000729705
-2.21455e-05
-0.00071885
-4.35152e-05
-0.000703555
-6.08734e-05
-0.000684843
-7.43589e-05
-0.000663176
-8.61354e-05
-0.000639146
-9.56028e-05
-0.000613669
-0.000101427
-0.000587037
-0.000106122
-0.000560354
-0.000106413
-0.000533485
-0.000107323
-0.000507466
-0.000104059
-0.000481709
-0.000103251
-0.000456922
-9.94692e-05
-0.000431974
-0.000100343
-0.000407383
-9.88672e-05
-0.00038136
-0.000104828
-0.00035474
-0.000106929
-0.000325153
-0.0001189
-0.000294675
-0.000121953
-0.000260456
-0.000136843
-0.00022653
-0.000135145
-0.000189413
-0.000147368
-0.000155722
-0.000133558
-0.000124785
-0.000122389
-9.57195e-05
-0.000114651
-7.32016e-05
-8.84913e-05
-5.6663e-05
-6.43787e-05
-4.93508e-05
-2.80915e-05
-5.12554e-05
8.65462e-06
-6.57955e-05
5.86211e-05
-9.14135e-05
0.000102323
-0.000128318
0.00014669
-0.000173671
0.000179909
-0.000227185
0.000212157
-0.000285494
0.00023103
-0.000346388
0.000241203
-0.000405978
0.00023628
-0.000461703
0.000221613
-0.00051173
0.000199582
-0.000555521
0.000174859
-0.000592675
0.000148472
-0.000623624
0.000123707
-0.00064914
0.000101839
-0.000669854
8.28112e-05
-0.000685796
6.38336e-05
-0.000697373
4.66417e-05
-0.000705021
3.05184e-05
-0.000709311
1.71826e-05
-0.00070989
4.04916e-06
-0.000708223
-5.42235e-06
-0.000702929
-2.09991e-05
-0.000696256
-2.62738e-05
-0.000687028
-3.72884e-05
-0.000676125
-4.36649e-05
-0.000663869
-4.81431e-05
-0.000649982
-5.56003e-05
-0.000634275
-6.18532e-05
-0.000620695
-5.33138e-05
-0.000608673
-4.80271e-05
-0.00059826
-4.16873e-05
-0.000589913
-3.41707e-05
-0.000582135
-3.19785e-05
-0.000573076
-3.86586e-05
-0.000558452
-5.91637e-05
-0.000538723
-7.76888e-05
-0.000517
-8.51727e-05
-0.000495544
-8.49056e-05
-0.000473918
-8.60545e-05
-0.000453241
-8.26773e-05
-0.000432928
-8.10409e-05
-0.000414242
-7.45954e-05
-0.000396355
-7.17746e-05
-0.000379263
-6.86184e-05
-0.000362727
-6.62524e-05
-0.000346693
-6.42985e-05
-0.000331189
-6.18512e-05
-0.000316379
-5.91571e-05
-0.000302183
-5.66798e-05
-0.000288819
-5.33832e-05
-0.000276468
-4.93072e-05
-0.000265087
-4.53805e-05
-0.000255079
-3.98863e-05
-0.000246341
-3.50286e-05
-0.00023894
-2.96155e-05
-0.000232649
-2.50638e-05
-0.000227551
-2.01043e-05
-0.000224401
-1.21379e-05
-0.000223186
-5.33488e-06
-0.00022387
2.68248e-06
-0.000226678
1.11859e-05
-0.000231344
1.86072e-05
-0.000237977
2.64018e-05
-0.000246529
3.42496e-05
-0.000257066
4.20807e-05
-0.000269336
4.91803e-05
-0.000283492
5.66918e-05
-0.000299175
6.24793e-05
-0.000316623
6.94348e-05
-0.000335227
7.42926e-05
-0.000354612
7.69728e-05
-0.00037408
7.74527e-05
-0.000392959
7.49301e-05
-0.000410216
6.87988e-05
-0.000426152
6.38984e-05
-0.000440772
5.8646e-05
-0.000454426
5.4643e-05
-0.000466808
4.95599e-05
-0.000478055
4.5048e-05
-0.000488035
3.9973e-05
-0.000496748
3.48527e-05
-0.000504358
3.0322e-05
-0.000510578
2.47338e-05
-0.000515594
2.0127e-05
-0.000519225
1.47253e-05
-0.000521912
1.11225e-05
-0.000523899
8.15988e-06
-0.000525315
5.32651e-06
-0.000526252
3.21666e-06
-0.000526368
7.75826e-07
-0.000525785
-2.29059e-06
-0.000524307
-5.83587e-06
-0.000521936
-9.21545e-06
-0.000518559
-1.32474e-05
-0.000514305
-1.70044e-05
-0.000509054
-2.13376e-05
-0.000502549
-2.65585e-05
-0.000494359
-3.34612e-05
-0.000483802
-4.30402e-05
-0.000469939
-5.61131e-05
-0.0004522
-7.10406e-05
-0.000431225
-8.30654e-05
-0.000409656
-8.48106e-05
-0.0003913
-7.02302e-05
-0.000379041
-4.3513e-05
-0.000371652
-2.32214e-05
-0.000366257
-1.60413e-05
-0.000360172
-1.97e-05
-0.000350977
-3.33886e-05
-0.00033735
-5.49004e-05
-0.000318948
-7.90175e-05
-0.000297451
-9.52918e-05
-0.000274345
-0.000100811
-0.000249186
-0.000104587
-0.00022164
-0.000111489
-0.000194216
-0.000111655
-0.000166833
-0.000113383
-0.000138579
-0.000117578
-0.000108288
-0.000127037
-7.45792e-05
-0.00013929
-3.87235e-05
-0.000153768
-1.60853e-06
-0.000155689
2.75485e-05
-0.000121762
4.94833e-05
-0.000105204
7.68707e-05
-0.000111887
0.00010524
-0.000106274
0.000127555
-8.43727e-05
0.000158892
-9.88967e-05
0.000179176
-1.81351e-05
4.24119e-05
0.000181212
-0.000342751
-4.14553e-05
-0.000334583
-4.06772e-05
-0.000326594
-3.98585e-05
-0.0003189
-3.84737e-05
-0.000311438
-3.74012e-05
-0.000304207
-3.63318e-05
-0.000297042
-3.60764e-05
-0.000289828
-3.63848e-05
-0.000282329
-3.78499e-05
-0.000274339
-4.03178e-05
-0.000265624
-4.39387e-05
-0.000255917
-4.88649e-05
-0.000245085
-5.44404e-05
-0.000232804
-6.16246e-05
-0.000219172
-6.82855e-05
-0.000204235
-7.46718e-05
-0.00018742
-8.39737e-05
-0.000169552
-8.90462e-05
-0.000149967
-9.75799e-05
-0.000129906
-9.96806e-05
-0.000108626
-0.000105792
-8.768e-05
-0.00010387
-6.64436e-05
-0.000105378
-4.65864e-05
-9.83883e-05
-2.73777e-05
-9.52048e-05
-1.06342e-05
-8.29243e-05
4.67265e-06
-7.47573e-05
1.75616e-05
-6.43051e-05
2.7696e-05
-5.03865e-05
3.44684e-05
-3.37299e-05
3.77548e-05
-1.64519e-05
3.74588e-05
1.33058e-06
3.43519e-05
1.52076e-05
2.8421e-05
2.92568e-05
1.98551e-05
4.23516e-05
9.33893e-06
5.21252e-05
-3.12258e-06
6.12365e-05
-1.62517e-05
6.53851e-05
-3.20109e-05
7.86494e-05
-4.90971e-05
8.52982e-05
-6.79298e-05
9.42514e-05
-8.80545e-05
0.000100789
-0.000110123
0.000110598
-0.000133589
0.000117582
-0.000159485
0.000129713
-0.000186855
0.000136963
-0.000217114
0.000151276
-0.000248631
0.000157383
-0.000283166
0.000172256
-0.000318339
0.000175273
-0.000356405
0.000189472
-0.000396335
0.000198569
-0.000435063
0.000192556
-0.000474697
0.000197003
-0.000511736
0.000184095
-0.000548166
0.000181244
-0.000580956
0.000163252
-0.000611838
0.000154084
-0.000638901
0.00013515
-0.00066339
0.000122486
-0.000684445
0.000105217
-0.000702744
9.13276e-05
-0.000717403
7.35739e-05
-0.000727889
5.59602e-05
-0.000733859
3.06395e-05
-0.000735467
4.39939e-06
-0.000730757
-2.68557e-05
-0.000719831
-5.44408e-05
-0.000704434
-7.62703e-05
-0.000685578
-9.32152e-05
-0.000663758
-0.000107955
-0.000639579
-0.000119781
-0.000613964
-0.000127042
-0.000587215
-0.000132871
-0.00056044
-0.000133188
-0.000533527
-0.000134236
-0.000507501
-0.000130085
-0.00048181
-0.000128942
-0.000457115
-0.000124164
-0.000432326
-0.000125132
-0.00040788
-0.000123312
-0.000382068
-0.00013064
-0.000355576
-0.000133421
-0.000326147
-0.000148329
-0.000295689
-0.000152411
-0.000261473
-0.000171059
-0.000227366
-0.000169253
-0.000189953
-0.00018478
-0.00015591
-0.000167601
-0.000124568
-0.000153732
-9.50208e-05
-0.000144198
-7.20468e-05
-0.000111465
-5.50628e-05
-8.13625e-05
-4.73944e-05
-3.57598e-05
-4.89858e-05
1.02467e-05
-6.34109e-05
7.30464e-05
-8.90517e-05
0.000127964
-0.000126198
0.000183838
-0.000171978
0.00022569
-0.000226054
0.000266234
-0.000285033
0.000290017
-0.000346619
0.000302796
-0.000406817
0.000296478
-0.000462963
0.00027776
-0.000513159
0.000249778
-0.000556999
0.000218698
-0.000594132
0.000185604
-0.000625039
0.000154615
-0.000650523
0.000127323
-0.000671114
0.000103402
-0.000687008
7.97275e-05
-0.000698558
5.81919e-05
-0.000706138
3.80987e-05
-0.000710298
2.13436e-05
-0.000710706
4.46266e-06
-0.000708867
-7.25857e-06
-0.000703583
-2.62835e-05
-0.000696734
-3.31222e-05
-0.000687518
-4.65045e-05
-0.000676591
-5.45918e-05
-0.000664054
-6.06832e-05
-0.000650116
-6.95476e-05
-0.000634285
-7.76842e-05
-0.000620422
-6.7177e-05
-0.000608315
-6.01334e-05
-0.000597999
-5.20037e-05
-0.00058985
-4.23191e-05
-0.000582316
-3.95129e-05
-0.000573907
-4.70666e-05
-0.000559538
-7.35329e-05
-0.000539436
-9.7791e-05
-0.000517213
-0.000107395
-0.000495507
-0.000106612
-0.000473825
-0.000107737
-0.0004531
-0.000103402
-0.00043276
-0.000101382
-0.000414037
-9.33184e-05
-0.000396199
-8.96122e-05
-0.00037917
-8.5647e-05
-0.000362657
-8.27658e-05
-0.000346671
-8.02835e-05
-0.000331088
-7.74335e-05
-0.000316225
-7.4022e-05
-0.000302023
-7.08837e-05
-0.000288638
-6.67675e-05
-0.000276287
-6.16588e-05
-0.000264854
-5.6813e-05
-0.000254814
-4.99265e-05
-0.00024613
-4.3712e-05
-0.000238689
-3.70571e-05
-0.000232371
-3.13828e-05
-0.000227241
-2.52349e-05
-0.000223957
-1.54217e-05
-0.000222798
-6.49326e-06
-0.000223508
3.39196e-06
-0.000226275
1.39533e-05
-0.000230978
2.33117e-05
-0.000237621
3.30442e-05
-0.000246201
4.283e-05
-0.000256726
5.2605e-05
-0.000269026
6.14803e-05
-0.000283125
7.07915e-05
-0.000298857
7.82107e-05
-0.000316421
8.69987e-05
-0.000335093
9.29648e-05
-0.000354689
9.65692e-05
-0.000374261
9.70242e-05
-0.000393238
9.39073e-05
-0.000410579
8.61396e-05
-0.000426489
7.98088e-05
-0.000441049
7.32054e-05
-0.00045471
6.83044e-05
-0.000467089
6.1939e-05
-0.000478341
5.63e-05
-0.00048834
4.99717e-05
-0.000497052
4.35646e-05
-0.000504662
3.79326e-05
-0.000510889
3.09599e-05
-0.00051589
2.51282e-05
-0.000519483
1.83181e-05
-0.000522094
1.37336e-05
-0.000524036
1.01024e-05
-0.000525504
6.79468e-06
-0.000526485
4.1972e-06
-0.000526603
8.93661e-07
-0.000526018
-2.87576e-06
-0.000524563
-7.29028e-06
-0.000522196
-1.15823e-05
-0.000518794
-1.66493e-05
-0.000514553
-2.12454e-05
-0.000509349
-2.65406e-05
-0.000502944
-3.29635e-05
-0.000494894
-4.15115e-05
-0.000484474
-5.34596e-05
-0.000470661
-6.9926e-05
-0.000452766
-8.89351e-05
-0.000431338
-0.000104493
-0.000409022
-0.000107126
-0.000389928
-8.93237e-05
-0.000377881
-5.55602e-05
-0.00037141
-2.96951e-05
-0.000366605
-2.08439e-05
-0.000360679
-2.56236e-05
-0.000351611
-4.24561e-05
-0.000338211
-6.83003e-05
-0.000319924
-9.73054e-05
-0.000298258
-0.000116961
-0.000274924
-0.000124147
-0.00025004
-0.000129471
-0.000223044
-0.000138484
-0.000196382
-0.000138316
-0.000170268
-0.000139495
-0.000143302
-0.000144546
-0.000114362
-0.000155978
-8.28232e-05
-0.00017083
-5.03455e-05
-0.000186247
-1.57536e-05
-0.000190281
1.0576e-05
-0.000148092
2.8898e-05
-0.000123527
5.55649e-05
-0.000138554
8.35247e-05
-0.000134235
0.000106502
-0.00010735
0.000141287
-0.000133682
0.000171228
-4.80767e-05
1.60512e-05
0.000197589
-0.000342725
-4.98309e-05
-0.000334531
-4.88714e-05
-0.000326528
-4.78611e-05
-0.000318834
-4.61678e-05
-0.000311387
-4.48477e-05
-0.000304186
-4.35332e-05
-0.000297064
-4.31977e-05
-0.000289903
-4.35466e-05
-0.000282463
-4.52896e-05
-0.000274535
-4.82454e-05
-0.00026588
-5.25936e-05
-0.00025623
-5.85147e-05
-0.000245445
-6.52251e-05
-0.0002332
-7.387e-05
-0.000219591
-8.18945e-05
-0.000204651
-8.96114e-05
-0.00018782
-0.000100804
-0.000169902
-0.000106964
-0.00015026
-0.000117222
-0.000130095
-0.000119845
-0.000108713
-0.000127173
-8.76225e-05
-0.000124961
-6.62517e-05
-0.000126749
-4.62432e-05
-0.000118397
-2.68976e-05
-0.00011455
-1.00269e-05
-9.97951e-05
5.54443e-06