/*--------------------------------*- C++ -*----------------------------------*\
| =========                 |                                                 |
| \\      /  F ield         | OpenFOAM: The Open Source CFD Toolbox           |
|  \\    /   O peration     | Version:  3.0.1                                 |
|   \\  /    A nd           | Web:      www.OpenFOAM.org                      |
|    \\/     M anipulation  |                                                 |
\*---------------------------------------------------------------------------*/
FoamFile
{
    version     2.0;
    format      ascii;
    class       volScalarField;
    location    "88.6";
    object      p;
}
// * * * * * * * * * * * * * * * * * * * * * * * * * * * * * * * * * * * * * //

dimensions      [1 -1 -2 0 0 0 0];

internalField   nonuniform List<scalar> 
21420
(
4268.11
4253.69
4235.59
4214.02
4189.25
4161.63
4131.53
4099.37
4065.54
4030.49
3994.64
3958.37
3922.1
3886.29
3858.1
3824.29
3791.67
3760.58
3731.17
3703.57
3677.85
3654.04
3632.17
3612.21
3594.16
3577.96
3563.57
3550.93
3540
3530.71
3523.01
3516.88
3512.25
3509.11
3507.48
3507.32
3508.63
3511.48
3515.85
3521.77
3529.29
3538.44
3549.27
3561.85
3576.19
3592.33
3610.33
3630.18
3651.89
3675.45
3700.83
3727.92
3756.65
3786.85
3818.38
3850.8
3883.95
3917.81
3952.01
3986.15
4019.85
4052.71
4084.34
4114.36
4142.4
4168.09
4191.11
4211.15
4227.93
4241.21
4250.78
4256.49
4258.19
4255.89
4249.5
4239.12
4224.88
4206.95
4185.59
4161.06
4133.69
4103.87
4072
4038.49
4003.76
3968.28
3932.46
3896.72
3861.42
3826.93
3793.53
3761.5
3731.05
3702.39
3675.64
3650.93
3628.31
3607.83
3589.48
3573.24
3559.07
3546.88
3536.59
3528.12
3521.38
3516.28
3512.73
3510.69
3510.1
3510.93
3513.11
3516.65
3521.54
3527.77
3535.37
3544.34
3554.71
3566.49
3579.71
3594.41
3610.6
3628.3
3647.55
3668.34
3690.69
3714.58
3739.99
3766.87
3795.14
3824.69
3855.42
3887.09
3919.49
3952.33
3985.33
4018.13
4050.35
4081.61
4111.48
4139.53
4165.36
4188.56
4208.75
4225.57
4238.73
4247.97
4253.12
4253.96
4250.59
4242.97
4231.15
4215.33
4195.76
4172.73
4146.6
4117.78
4086.73
4053.91
4019.82
3984.94
3949.75
3914.69
3880.15
3846.51
3814.07
3783.09
3753.76
3726.24
3700.62
3676.96
3655.25
3635.49
3617.63
3601.63
3587.41
3574.91
3564.06
3554.79
3547.05
3540.76
3535.9
3532.39
3530.18
3529.26
3529.61
3531.18
3533.97
3537.99
3543.23
3549.72
3557.5
3566.59
3577.04
3588.9
3602.19
3616.97
3633.26
3651.12
3670.56
3691.62
3714.3
3738.58
3764.42
3791.75
3820.46
3850.38
3881.35
3913.22
3945.58
3978.2
4010.76
4042.91
4074.24
4104.34
4132.76
4159.07
4182.84
4203.68
4221.2
4235.09
4245.09
4250.99
4252.6
4249.97
4243.06
4231.99
4216.93
4198.13
4175.91
4150.64
4122.75
4092.68
4060.89
4027.88
3994.1
3960
3926
3892.48
3859.78
3828.17
3797.89
3769.13
3742.02
3716.68
3693.16
3671.51
3651.73
3633.81
3617.71
3603.41
3590.82
3579.9
3570.57
3562.75
3556.39
3551.42
3547.78
3545.43
3544.31
3544.41
3545.71
3548.18
3551.8
3556.58
3562.51
3569.64
3577.96
3587.51
3598.33
3610.45
3623.92
3638.77
3655.05
3672.81
3692.06
3712.82
3735.12
3758.95
3784.26
3811
3839.09
3868.38
3898.69
3930.15
3961.88
3993.79
4025.54
4056.78
4087.07
4115.99
4143.08
4167.89
4189.99
4208.99
4224.49
4236.19
4243.85
4247.31
4246.44
4241.27
4231.87
4218.39
4201.18
4180.57
4156.95
4130.74
4102.43
4072.49
4041.39
4009.63
3977.61
3945.76
3914.42
3884.08
3855.56
3827.69
3800.93
3775.46
3751.39
3728.76
3707.56
3687.77
3669.35
3652.26
3636.46
3621.9
3608.57
3596.45
3585.54
3575.87
3567.47
3560.38
3554.66
3550.35
3547.51
3546.23
3546.58
3548.68
3552.52
3558.16
3565.6
3574.84
3585.88
3598.69
3613.27
3629.58
3647.58
3667.2
3688.37
3711.02
3735.02
3760.25
3786.54
3813.62
3840.96
3860.56
3882.11
4170.16
4155.73
4137.62
4116.04
4091.25
4063.6
4033.49
4001.31
3967.46
3932.39
3896.52
3860.25
3823.96
3788.14
3759.93
3726.11
3693.49
3662.39
3632.98
3605.39
3579.66
3555.85
3533.98
3514.03
3495.98
3479.78
3465.39
3452.76
3441.83
3432.54
3424.85
3418.72
3414.09
3410.96
3409.32
3409.17
3410.48
3413.32
3417.69
3423.6
3431.12
3440.27
3451.1
3463.67
3478.01
3494.16
3512.15
3532
3553.71
3577.27
3602.64
3629.74
3658.47
3688.68
3720.21
3752.64
3785.8
3819.67
3853.89
3888.04
3921.76
3954.64
3986.28
4016.31
4044.37
4070.08
4093.11
4113.16
4129.96
4143.26
4152.83
4158.55
4160.26
4157.94
4151.55
4141.16
4126.92
4108.98
4087.6
4063.05
4035.67
4005.83
3973.94
3940.41
3905.67
3870.17
3834.33
3798.57
3763.27
3728.76
3695.35
3663.31
3632.86
3604.19
3577.45
3552.73
3530.11
3509.63
3491.29
3475.06
3460.88
3448.7
3438.41
3429.95
3423.21
3418.11
3414.57
3412.52
3411.95
3412.77
3414.95
3418.49
3423.38
3429.61
3437.21
3446.18
3456.54
3468.32
3481.55
3496.24
3512.43
3530.13
3549.37
3570.17
3592.51
3616.4
3641.81
3668.69
3696.96
3726.53
3757.26
3788.94
3821.34
3854.2
3887.2
3920.02
3952.26
3983.54
4013.42
4041.5
4067.35
4090.56
4110.76
4127.6
4140.77
4150.02
4155.18
4156.02
4152.64
4145.02
4133.2
4117.37
4097.78
4074.73
4048.58
4019.74
3988.66
3955.83
3921.72
3886.82
3851.61
3816.53
3781.99
3748.34
3715.89
3684.9
3655.57
3628.05
3602.43
3578.76
3557.06
3537.3
3519.45
3503.45
3489.24
3476.74
3465.89
3456.63
3448.88
3442.6
3437.74
3434.23
3432.03
3431.11
3431.46
3433.03
3435.82
3439.83
3445.07
3451.57
3459.34
3468.43
3478.88
3490.73
3504.02
3518.8
3535.09
3552.95
3572.39
3593.44
3616.12
3640.4
3666.25
3693.58
3722.29
3752.22
3783.19
3815.08
3847.44
3880.07
3912.65
3944.82
3976.17
4006.28
4034.72
4061.05
4084.84
4105.69
4123.23
4137.14
4147.14
4153.05
4154.67
4152.03
4145.12
4134.04
4118.96
4100.15
4077.91
4052.62
4024.71
3994.62
3962.81
3929.78
3895.98
3861.86
3827.85
3794.32
3761.61
3729.99
3699.71
3670.94
3643.84
3618.49
3594.98
3573.32
3553.55
3535.63
3519.54
3505.23
3492.65
3481.73
3472.41
3464.59
3458.24
3453.27
3449.63
3447.28
3446.16
3446.26
3447.57
3450.03
3453.66
3458.43
3464.37
3471.49
3479.81
3489.36
3500.17
3512.29
3525.76
3540.61
3556.89
3574.65
3593.89
3614.65
3636.95
3660.78
3686.09
3712.83
3740.93
3770.22
3800.53
3832
3863.75
3895.66
3927.43
3958.69
3989
4017.94
4045.04
4069.87
4092
4111.01
4126.53
4138.24
4145.91
4149.38
4148.51
4143.32
4133.92
4120.43
4103.2
4082.58
4058.94
4032.7
4004.37
3974.41
3943.3
3911.51
3879.48
3847.61
3816.27
3785.92
3757.4
3729.52
3702.76
3677.29
3653.22
3630.59
3609.39
3589.61
3571.19
3554.11
3538.3
3523.75
3510.42
3498.3
3487.39
3477.72
3469.32
3462.23
3456.5
3452.19
3449.35
3448.07
3448.42
3450.51
3454.35
3459.99
3467.43
3476.67
3487.71
3500.52
3515.1
3531.41
3549.4
3569.03
3590.21
3612.85
3636.86
3662.09
3688.38
3715.47
3742.8
3762.45
3784
4072.37
4057.92
4039.78
4018.16
3993.34
3965.66
3935.51
3903.29
3869.4
3834.3
3798.4
3762.1
3725.78
3689.93
3661.7
3627.86
3595.22
3564.12
3534.71
3507.11
3481.39
3457.58
3435.71
3415.77
3397.72
3381.53
3367.15
3354.52
3343.6
3334.31
3326.63
3320.49
3315.87
3312.74
3311.11
3310.95
3312.26
3315.1
3319.47
3325.38
3332.89
3342.03
3352.86
3365.43
3379.76
3395.9
3413.89
3433.74
3455.44
3479.01
3504.38
3531.48
3560.22
3590.44
3621.98
3654.43
3687.61
3721.5
3755.74
3789.93
3823.67
3856.58
3888.26
3918.33
3946.42
3972.16
3995.22
4015.3
4032.12
4045.44
4055.03
4060.76
4062.49
4060.14
4053.75
4043.36
4029.09
4011.13
3989.72
3965.14
3937.72
3907.85
3875.92
3842.35
3807.57
3772.04
3736.17
3700.38
3665.05
3630.53
3597.1
3565.05
3534.59
3505.91
3479.16
3454.44
3431.82
3411.34
3393.01
3376.78
3362.62
3350.44
3340.16
3331.7
3324.97
3319.88
3316.34
3314.31
3313.73
3314.56
3316.74
3320.28
3325.17
3331.4
3339
3347.96
3358.32
3370.1
3383.32
3398.01
3414.19
3431.89
3451.13
3471.92
3494.27
3518.16
3543.57
3570.45
3598.73
3628.3
3659.04
3690.73
3723.15
3756.03
3789.07
3821.91
3854.19
3885.5
3915.42
3943.53
3969.42
3992.67
4012.91
4029.77
4042.97
4052.24
4057.4
4058.27
4054.87
4047.23
4035.39
4019.54
3999.92
3976.83
3950.64
3921.76
3890.65
3857.77
3823.62
3788.69
3753.44
3718.33
3683.76
3650.09
3617.63
3586.63
3557.29
3529.77
3504.15
3480.49
3458.79
3439.03
3421.19
3405.2
3390.99
3378.5
3367.66
3358.4
3350.66
3344.39
3339.52
3336.02
3333.82
3332.9
3333.26
3334.83
3337.62
3341.63
3346.87
3353.36
3361.13
3370.22
3380.66
3392.51
3405.8
3420.57
3436.86
3454.7
3474.14
3495.19
3517.87
3542.15
3568
3595.34
3624.05
3653.99
3684.98
3716.89
3749.27
3781.93
3814.54
3846.73
3878.12
3908.27
3936.75
3963.12
3986.95
4007.83
4025.4
4039.33
4049.36
4055.27
4056.91
4054.25
4047.34
4036.24
4021.14
4002.29
3980.02
3954.69
3926.74
3896.6
3864.76
3831.68
3797.85
3763.7
3729.66
3696.11
3663.38
3631.74
3601.45
3572.68
3545.57
3520.22
3496.71
3475.06
3455.28
3437.37
3421.29
3406.99
3394.42
3383.5
3374.18
3366.38
3360.02
3355.06
3351.43
3349.08
3347.97
3348.07
3349.38
3351.84
3355.46
3360.24
3366.17
3373.29
3381.61
3391.15
3401.97
3414.08
3427.54
3442.39
3458.67
3476.42
3495.66
3516.42
3538.71
3562.54
3587.85
3614.6
3642.69
3672
3702.33
3733.8
3765.57
3797.51
3829.31
3860.6
3890.95
3919.93
3947.08
3971.95
3994.12
4013.17
4028.71
4040.45
4048.14
4051.61
4050.76
4045.54
4036.12
4022.61
4005.35
3984.69
3961.01
3934.73
3906.36
3876.35
3845.21
3813.39
3781.32
3749.43
3718.06
3687.71
3659.18
3631.29
3604.52
3579.05
3554.99
3532.36
3511.16
3491.38
3472.98
3455.89
3440.1
3425.54
3412.21
3400.09
3389.19
3379.52
3371.12
3364.02
3358.29
3353.97
3351.13
3349.84
3350.19
3352.28
3356.11
3361.75
3369.19
3378.42
3389.46
3402.27
3416.85
3433.16
3451.16
3470.79
3491.97
3514.62
3538.63
3563.87
3590.17
3617.25
3644.58
3664.34
3685.89
3974.73
3960.25
3942.07
3920.41
3895.53
3867.8
3837.58
3805.3
3771.36
3736.22
3700.27
3663.92
3627.57
3591.67
3563.4
3529.52
3496.87
3465.76
3436.35
3408.75
3383.03
3359.22
3337.36
3317.43
3299.39
3283.21
3268.83
3256.21
3245.3
3236.02
3228.34
3222.21
3217.6
3214.47
3212.84
3212.67
3213.98
3216.82
3221.18
3227.09
3234.6
3243.73
3254.55
3267.11
3281.44
3297.57
3315.55
3335.4
3357.1
3380.66
3406.03
3433.14
3461.89
3492.12
3523.68
3556.16
3589.37
3623.29
3657.57
3691.8
3725.59
3758.55
3790.28
3820.4
3848.54
3874.33
3897.44
3917.56
3934.42
3947.77
3957.38
3963.13
3964.88
3962.51
3956.11
3945.7
3931.4
3913.41
3891.95
3867.32
3839.85
3809.92
3777.94
3744.31
3709.48
3673.9
3637.98
3602.15
3566.79
3532.23
3498.78
3466.7
3436.22
3407.53
3380.77
3356.05
3333.44
3312.97
3294.64
3278.42
3264.27
3252.1
3241.84
3233.39
3226.67
3221.59
3218.06
3216.03
3215.46
3216.29
3218.47
3222.01
3226.9
3233.13
3240.72
3249.69
3260.04
3271.82
3285.03
3299.72
3315.89
3333.59
3352.82
3373.61
3395.95
3419.84
3445.25
3472.14
3500.42
3530
3560.76
3592.48
3624.93
3657.84
3690.91
3723.8
3756.13
3787.49
3817.47
3845.64
3871.58
3894.89
3915.17
3932.08
3945.31
3954.61
3959.79
3960.68
3957.26
3949.61
3937.74
3921.85
3902.19
3879.05
3852.8
3823.85
3792.67
3759.73
3725.52
3690.53
3655.24
3620.09
3585.48
3551.78
3519.29
3488.27
3458.93
3431.4
3405.78
3382.12
3360.43
3340.68
3322.85
3306.87
3292.67
3280.19
3269.36
3260.11
3252.38
3246.11
3241.26
3237.76
3235.56
3234.65
3235.01
3236.58
3239.37
3243.38
3248.62
3255.1
3262.87
3271.95
3282.39
3294.23
3307.51
3322.27
3338.55
3356.39
3375.83
3396.87
3419.55
3443.83
3469.68
3497.03
3525.76
3555.71
3586.72
3618.67
3651.07
3683.77
3716.42
3748.66
3780.1
3810.31
3838.84
3865.27
3889.15
3910.09
3927.71
3941.68
3951.73
3957.67
3959.32
3956.64
3949.72
3938.59
3923.45
3904.56
3882.23
3856.85
3828.83
3798.63
3766.73
3733.59
3699.7
3665.51
3631.43
3597.84
3565.08
3533.42
3503.11
3474.33
3447.21
3421.87
3398.36
3376.71
3356.94
3339.04
3322.96
3308.67
3296.11
3285.21
3275.89
3268.1
3261.76
3256.8
3253.17
3250.83
3249.72
3249.83
3251.14
3253.6
3257.22
3262
3267.93
3275.05
3283.36
3292.9
3303.71
3315.82
3329.27
3344.11
3360.38
3378.12
3397.36
3418.11
3440.4
3464.23
3489.54
3516.29
3544.4
3573.72
3604.07
3635.54
3667.36
3699.34
3731.19
3762.53
3792.94
3821.97
3849.18
3874.11
3896.34
3915.44
3931.04
3942.82
3950.53
3954.01
3953.17
3947.92
3938.48
3924.94
3907.63
3886.91
3863.17
3836.83
3808.39
3778.32
3747.12
3715.24
3683.13
3651.2
3619.8
3589.44
3560.89
3532.99
3506.21
3480.75
3456.68
3434.06
3412.87
3393.1
3374.7
3357.63
3341.84
3327.29
3313.96
3301.84
3290.94
3281.26
3272.86
3265.76
3260.02
3255.7
3252.85
3251.56
3251.89
3253.97
3257.81
3263.44
3270.88
3280.11
3291.14
3303.96
3318.53
3334.85
3352.85
3372.48
3393.67
3416.33
3440.34
3465.6
3491.89
3518.98
3546.31
3566.22
3587.76
3877.25
3862.72
3844.49
3822.76
3797.82
3770.01
3739.72
3707.36
3673.35
3638.13
3602.12
3565.72
3529.32
3493.37
3465.03
3431.11
3398.44
3367.32
3337.89
3310.29
3284.58
3260.78
3238.92
3219
3200.97
3184.8
3170.44
3157.84
3146.93
3137.66
3129.99
3123.87
3119.26
3116.14
3114.51
3114.33
3115.65
3118.48
3122.84
3128.74
3136.24
3145.36
3156.17
3168.72
3183.04
3199.16
3217.14
3236.97
3258.67
3282.23
3307.61
3334.72
3363.48
3393.74
3425.32
3457.83
3491.08
3525.05
3559.38
3593.66
3627.52
3660.54
3692.34
3722.53
3750.73
3776.59
3799.76
3819.94
3836.84
3850.23
3859.88
3865.65
3867.42
3865.04
3858.63
3848.19
3833.85
3815.81
3794.29
3769.59
3742.05
3712.05
3679.99
3646.29
3611.39
3575.74
3539.76
3503.88
3468.46
3433.86
3400.37
3368.27
3337.77
3309.06
3282.3
3257.57
3234.96
3214.5
3196.18
3179.97
3165.84
3153.69
3143.44
3135.01
3128.31
3123.24
3119.72
3117.7
3117.14
3117.97
3120.15
3123.69
3128.58
3134.81
3142.4
3151.36
3161.71
3173.47
3186.68
3201.36
3217.53
3235.22
3254.45
3275.23
3297.56
3321.45
3346.86
3373.75
3402.05
3431.65
3462.43
3494.18
3526.66
3559.62
3592.74
3625.69
3658.08
3689.51
3719.57
3747.81
3773.83
3797.21
3817.56
3834.53
3847.81
3857.15
3862.35
3863.25
3859.82
3852.15
3840.24
3824.31
3804.58
3781.36
3755.03
3726.01
3694.74
3661.72
3627.43
3592.37
3557
3521.79
3487.13
3453.39
3420.87
3389.83
3360.48
3332.94
3307.32
3283.67
3261.98
3242.25
3224.43
3208.47
3194.28
3181.82
3171
3161.76
3154.04
3147.78
3142.94
3139.44
3137.26
3136.36
3136.71
3138.28
3141.07
3145.08
3150.31
3156.79
3164.55
3173.63
3184.06
3195.88
3209.16
3223.91
3240.18
3258.02
3277.44
3298.48
3321.15
3345.43
3371.29
3398.65
3427.4
3457.37
3488.4
3520.4
3552.84
3585.58
3618.29
3650.6
3682.11
3712.39
3741
3767.5
3791.46
3812.47
3830.15
3844.17
3854.27
3860.22
3861.9
3859.21
3852.26
3841.1
3825.91
3806.95
3784.55
3759.09
3730.99
3700.7
3668.72
3635.51
3601.54
3567.28
3533.15
3499.51
3466.71
3435.03
3404.7
3375.9
3348.78
3323.43
3299.92
3278.28
3258.52
3240.62
3224.56
3210.28
3197.74
3186.85
3177.55
3169.76
3163.43
3158.49
3154.87
3152.53
3151.43
3151.55
3152.85
3155.32
3158.94
3163.71
3169.64
3176.76
3185.07
3194.6
3205.4
3217.5
3230.94
3245.77
3262.03
3279.76
3298.99
3319.74
3342.03
3365.84
3391.16
3417.92
3446.03
3475.37
3505.75
3537.24
3569.11
3601.15
3633.05
3664.46
3694.94
3724.06
3751.35
3776.37
3798.67
3817.85
3833.51
3845.34
3853.09
3856.58
3855.75
3850.47
3840.99
3827.4
3810.03
3789.23
3765.41
3738.98
3710.46
3680.31
3649.03
3617.09
3584.91
3552.93
3521.49
3491.12
3462.53
3434.62
3407.84
3382.37
3358.31
3335.69
3314.51
3294.75
3276.37
3259.3
3243.52
3228.98
3215.66
3203.54
3192.64
3182.96
3174.55
3167.44
3161.69
3157.36
3154.51
3153.21
3153.52
3155.6
3159.43
3165.06
3172.49
3181.72
3192.75
3205.57
3220.14
3236.46
3254.46
3274.1
3295.3
3317.97
3341.99
3367.26
3393.56
3420.66
3447.98
3468.1
3489.62
3779.93
3765.34
3747.04
3725.23
3700.2
3672.3
3641.91
3609.46
3575.36
3540.05
3503.97
3467.5
3431.03
3395.01
3366.58
3332.61
3299.92
3268.78
3239.36
3211.75
3186.04
3162.25
3140.4
3120.49
3102.48
3086.33
3071.98
3059.39
3048.49
3039.24
3031.58
3025.47
3020.87
3017.75
3016.12
3015.94
3017.25
3020.08
3024.43
3030.33
3037.81
3046.92
3057.73
3070.26
3084.56
3100.67
3118.64
3138.46
3160.15
3183.71
3209.1
3236.22
3264.99
3295.27
3326.89
3359.44
3392.74
3426.76
3461.16
3495.52
3529.45
3562.56
3594.44
3624.71
3653
3678.94
3702.19
3722.43
3739.4
3752.85
3762.54
3768.33
3770.12
3767.73
3761.3
3750.82
3736.44
3718.34
3696.74
3671.96
3644.34
3614.24
3582.09
3548.3
3513.31
3477.57
3441.52
3405.56
3370.08
3335.43
3301.89
3269.75
3239.23
3210.51
3183.73
3159
3136.39
3115.93
3097.63
3081.44
3067.32
3055.2
3044.97
3036.56
3029.88
3024.82
3021.32
3019.32
3018.76
3019.59
3021.78
3025.32
3030.21
3036.44
3044.02
3052.97
3063.31
3075.07
3088.27
3102.94
3119.1
3136.78
3156
3176.78
3199.11
3222.99
3248.4
3275.3
3303.61
3333.23
3364.03
3395.82
3428.35
3461.37
3494.56
3527.58
3560.05
3591.57
3621.72
3650.06
3676.17
3699.64
3720.07
3737.12
3750.46
3759.85
3765.07
3765.99
3762.56
3754.85
3742.9
3726.9
3707.09
3683.79
3657.36
3628.23
3596.86
3563.73
3529.34
3494.18
3458.73
3423.45
3388.73
3354.94
3322.38
3291.31
3261.94
3234.39
3208.77
3185.13
3163.45
3143.74
3125.94
3109.99
3095.82
3083.37
3072.57
3063.35
3055.64
3049.4
3044.56
3041.08
3038.9
3038.01
3038.36
3039.94
3042.73
3046.73
3051.96
3058.43
3066.19
3075.25
3085.67
3097.48
3110.74
3125.49
3141.75
3159.57
3178.98
3200.02
3222.68
3246.97
3272.83
3300.2
3328.97
3358.97
3390.03
3422.09
3454.58
3487.38
3520.16
3552.55
3584.14
3614.52
3643.23
3669.82
3693.88
3714.97
3732.73
3746.82
3756.96
3762.95
3764.64
3761.95
3754.97
3743.76
3728.5
3709.47
3686.98
3661.41
3633.21
3602.82
3570.73
3537.42
3503.37
3469.03
3434.82
3401.13
3368.28
3336.57
3306.21
3277.39
3250.26
3224.91
3201.4
3179.77
3160.02
3142.13
3126.08
3111.83
3099.29
3088.42
3079.14
3071.37
3065.05
3060.12
3056.51
3054.19
3053.09
3053.21
3054.52
3056.99
3060.61
3065.38
3071.31
3078.42
3086.72
3096.24
3107.03
3119.12
3132.55
3147.37
3163.62
3181.34
3200.56
3221.3
3243.58
3267.39
3292.7
3319.47
3347.6
3376.96
3407.38
3438.88
3470.82
3502.92
3534.9
3566.4
3596.97
3626.19
3653.59
3678.71
3701.11
3720.38
3736.13
3748.02
3755.81
3759.32
3758.5
3753.19
3743.65
3730
3712.55
3691.66
3667.74
3641.21
3612.57
3582.32
3550.94
3518.92
3486.66
3454.62
3423.12
3392.74
3364.12
3336.18
3309.39
3283.92
3259.86
3237.26
3216.09
3196.35
3177.97
3160.92
3145.15
3130.62
3117.3
3105.19
3094.28
3084.6
3076.18
3069.07
3063.31
3058.97
3056.1
3054.79
3055.09
3057.16
3060.99
3066.61
3074.04
3083.26
3094.29
3107.1
3121.68
3138
3156.01
3175.65
3196.86
3219.54
3243.58
3268.86
3295.17
3322.28
3349.6
3369.96
3391.47
3682.76
3668.1
3649.72
3627.82
3602.69
3574.67
3544.16
3511.6
3477.38
3441.98
3405.8
3369.25
3332.71
3296.61
3268.07
3234.03
3201.31
3170.17
3140.73
3113.12
3087.41
3063.63
3041.8
3021.9
3003.91
2987.77
2973.45
2960.87
2949.99
2940.76
2933.11
2927.01
2922.42
2919.3
2917.67
2917.49
2918.8
2921.62
2925.97
2931.85
2939.32
2948.42
2959.21
2971.73
2986.01
3002.1
3020.06
3039.88
3061.56
3085.12
3110.5
3137.64
3166.43
3196.74
3228.39
3261
3294.35
3328.45
3362.92
3397.36
3431.39
3464.59
3496.57
3526.95
3555.34
3581.38
3604.72
3625.05
3642.1
3655.6
3665.34
3671.17
3672.97
3670.59
3664.12
3653.61
3639.17
3620.99
3599.3
3574.43
3546.69
3516.49
3484.22
3450.32
3415.23
3379.39
3343.24
3307.2
3271.65
3236.93
3203.34
3171.16
3140.6
3111.85
3085.06
3060.33
3037.73
3017.28
2998.99
2982.83
2968.73
2956.63
2946.43
2938.04
2931.38
2926.35
2922.86
2920.87
2920.32
2921.16
2923.36
2926.9
2931.78
2938
2945.58
2954.53
2964.86
2976.61
2989.8
3004.46
3020.61
3038.28
3057.49
3078.25
3100.58
3124.46
3149.88
3176.78
3205.1
3234.74
3265.58
3297.42
3330
3363.08
3396.35
3429.47
3462.04
3493.66
3523.92
3552.37
3578.6
3602.18
3622.71
3639.85
3653.27
3662.71
3667.96
3668.9
3665.46
3657.71
3645.71
3629.63
3609.73
3586.32
3559.77
3530.52
3499.02
3465.76
3431.25
3395.98
3360.43
3325.05
3290.26
3256.41
3223.8
3192.7
3163.31
3135.75
3110.14
3086.5
3064.84
3045.14
3027.36
3011.43
2997.29
2984.87
2974.08
2964.88
2957.19
2950.96
2946.13
2942.66
2940.5
2939.61
2939.97
2941.55
2944.33
2948.33
2953.56
2960.02
2967.76
2976.81
2987.22
2999.02
3012.27
3027
3043.25
3061.05
3080.45
3101.48
3124.14
3148.42
3174.3
3201.69
3230.48
3260.52
3291.6
3323.74
3356.28
3389.15
3422.02
3454.5
3486.2
3516.69
3545.52
3572.23
3596.4
3617.6
3635.45
3649.62
3659.82
3665.85
3667.55
3664.86
3657.84
3646.57
3631.24
3612.11
3589.51
3563.83
3535.5
3504.98
3472.77
3439.34
3405.18
3370.74
3336.45
3302.69
3269.79
3238.03
3207.64
3178.8
3151.66
3126.31
3102.8
3081.17
3061.44
3043.57
3027.54
3013.3
3000.78
2989.93
2980.67
2972.92
2966.62
2961.7
2958.11
2955.79
2954.7
2954.83
2956.14
2958.61
2962.24
2967.01
2972.93
2980.03
2988.32
2997.84
3008.61
3020.69
3034.11
3048.92
3065.15
3082.85
3102.05
3122.78
3145.06
3168.86
3194.18
3220.96
3249.1
3278.49
3308.96
3340.48
3372.49
3404.67
3436.75
3468.34
3499.03
3528.37
3555.89
3581.13
3603.66
3623.04
3638.88
3650.85
3658.69
3662.23
3661.41
3656.07
3646.48
3632.75
3615.2
3594.2
3570.15
3543.49
3514.73
3484.36
3452.86
3420.73
3388.38
3356.26
3324.7
3294.3
3265.64
3237.68
3210.87
3185.4
3161.35
3138.75
3117.61
3097.88
3079.52
3062.49
3046.73
3032.21
3018.9
3006.79
2995.88
2986.19
2977.77
2970.64
2964.87
2960.52
2957.64
2956.32
2956.6
2958.66
2962.47
2968.09
2975.51
2984.73
2995.75
3008.56
3023.14
3039.46
3057.48
3077.13
3098.35
3121.05
3145.1
3170.4
3196.73
3223.85
3251.16
3271.81
3293.3
3585.74
3571.01
3552.53
3530.52
3505.26
3477.11
3446.47
3413.77
3379.43
3343.9
3307.62
3270.97
3234.35
3198.16
3169.47
3135.37
3102.62
3071.46
3042.01
3014.4
2988.7
2964.93
2943.11
2923.23
2905.26
2889.14
2874.84
2862.29
2851.43
2842.21
2834.58
2828.49
2823.91
2820.8
2819.17
2818.98
2820.29
2823.11
2827.44
2833.31
2840.77
2849.85
2860.62
2873.12
2887.38
2903.46
2921.4
2941.21
2962.88
2986.44
3011.83
3038.98
3067.79
3098.14
3129.82
3162.5
3195.92
3230.09
3264.66
3299.2
3333.33
3366.65
3398.75
3429.25
3457.76
3483.91
3507.36
3527.79
3544.92
3558.5
3568.29
3574.16
3575.98
3573.6
3567.11
3556.54
3542.03
3523.77
3501.98
3476.98
3449.13
3418.8
3386.4
3352.36
3317.15
3281.19
3244.93
3208.79
3173.15
3138.36
3104.71
3072.48
3041.88
3013.11
2986.3
2961.57
2938.97
2918.53
2900.26
2884.12
2870.05
2857.98
2847.81
2839.46
2832.82
2827.81
2824.35
2822.37
2821.83
2822.68
2824.88
2828.42
2833.3
2839.52
2847.09
2856.03
2866.35
2878.09
2891.27
2905.91
2922.05
2939.71
2958.91
2979.66
3001.98
3025.86
3051.27
3078.19
3106.53
3136.2
3167.07
3198.96
3231.61
3264.77
3298.13
3331.35
3364.03
3395.78
3426.17
3454.76
3481.12
3504.82
3525.48
3542.72
3556.22
3565.73
3571.03
3571.98
3568.53
3560.74
3548.67
3532.5
3512.49
3488.95
3462.27
3432.87
3401.22
3367.81
3333.16
3297.76
3262.09
3226.61
3191.73
3157.81
3125.15
3094.01
3064.59
3037.03
3011.41
2987.78
2966.14
2946.46
2928.71
2912.81
2898.69
2886.29
2875.53
2866.34
2858.67
2852.46
2847.65
2844.19
2842.04
2841.16
2841.53
2843.11
2845.89
2849.89
2855.1
2861.56
2869.29
2878.33
2888.71
2900.5
2913.73
2928.44
2944.68
2962.47
2981.86
3002.87
3025.52
3049.81
3075.69
3103.1
3131.92
3162
3193.15
3225.32
3257.94
3290.91
3323.87
3356.47
3388.29
3418.91
3447.87
3474.72
3499.02
3520.34
3538.31
3552.56
3562.84
3568.91
3570.63
3567.93
3560.88
3549.54
3534.12
3514.88
3492.15
3466.32
3437.85
3407.19
3374.83
3341.27
3306.98
3272.43
3238.04
3204.19
3171.22
3139.41
3108.99
3080.13
3052.98
3027.62
3004.12
2982.5
2962.77
2944.92
2928.91
2914.69
2902.21
2891.38
2882.14
2874.41
2868.13
2863.23
2859.65
2857.34
2856.27
2856.41
2857.72
2860.2
2863.82
2868.59
2874.51
2881.6
2889.88
2899.38
2910.14
2922.2
2935.61
2950.4
2966.61
2984.3
3003.49
3024.2
3046.47
3070.27
3095.58
3122.37
3150.54
3179.96
3210.47
3242.02
3274.12
3306.4
3338.58
3370.3
3401.12
3430.59
3458.26
3483.65
3506.32
3525.83
3541.78
3553.84
3561.75
3565.32
3564.49
3559.12
3549.45
3535.64
3517.98
3496.84
3472.65
3445.84
3416.93
3386.41
3354.78
3322.53
3290.07
3257.86
3226.22
3195.81
3167.09
3139.1
3112.28
3086.81
3062.76
3040.19
3019.06
2999.35
2981.01
2964
2948.26
2933.75
2920.44
2908.34
2897.43
2887.73
2879.3
2872.16
2866.38
2862.01
2859.12
2857.78
2858.04
2860.09
2863.89
2869.49
2876.91
2886.12
2897.15
2909.95
2924.54
2940.86
2958.88
2978.54
2999.78
3022.49
3046.56
3071.88
3098.23
3125.36
3152.68
3173.64
3195.12
3488.89
3474.06
3455.47
3433.34
3407.94
3379.64
3348.84
3315.99
3281.49
3245.83
3209.42
3172.67
3135.95
3099.67
3070.79
3036.63
3003.85
2972.66
2943.21
2915.6
2889.89
2866.13
2844.33
2824.48
2806.53
2790.44
2776.16
2763.63
2752.8
2743.6
2735.98
2729.91
2725.34
2722.24
2720.61
2720.42
2721.73
2724.53
2728.85
2734.71
2742.15
2751.21
2761.96
2774.44
2788.68
2804.74
2822.66
2842.45
2864.12
2887.67
2913.07
2940.23
2969.07
2999.46
3031.19
3063.94
3097.44
3131.69
3166.37
3201.02
3235.28
3268.73
3300.97
3331.6
3360.25
3386.53
3410.1
3430.65
3447.88
3461.54
3471.4
3477.31
3479.15
3476.77
3470.25
3459.63
3445.04
3426.67
3404.77
3379.64
3351.64
3321.16
3288.61
3254.43
3219.07
3182.97
3146.59
3110.34
3074.6
3039.72
3006
2973.71
2943.07
2914.27
2887.45
2862.71
2840.11
2819.69
2801.45
2785.33
2771.3
2759.26
2749.12
2740.8
2734.19
2729.21
2725.77
2723.81
2723.29
2724.14
2726.35
2729.89
2734.77
2740.98
2748.54
2757.47
2767.78
2779.51
2792.67
2807.3
2823.43
2841.07
2860.26
2881
2903.31
2927.18
2952.6
2979.52
3007.88
3037.58
3068.5
3100.45
3133.18
3166.43
3199.89
3233.23
3266.05
3297.94
3328.47
3357.21
3383.72
3407.57
3428.37
3445.73
3459.33
3468.91
3474.26
3475.23
3471.77
3463.93
3451.79
3435.52
3415.38
3391.7
3364.85
3335.28
3303.46
3269.89
3235.07
3199.52
3163.72
3128.12
3093.14
3059.13
3026.41
2995.23
2965.78
2938.21
2912.59
2888.98
2867.35
2847.7
2829.98
2814.1
2800.02
2787.64
2776.91
2767.75
2760.1
2753.9
2749.11
2745.67
2743.53
2742.67
2743.03
2744.62
2747.4
2751.4
2756.6
2763.05
2770.76
2779.78
2790.15
2801.92
2815.13
2829.83
2846.04
2863.82
2883.18
2904.18
2926.83
2951.12
2977.01
3004.44
3033.3
3063.43
3094.64
3126.86
3159.58
3192.64
3225.72
3258.44
3290.41
3321.18
3350.29
3377.3
3401.75
3423.21
3441.3
3455.67
3466.02
3472.14
3473.89
3471.18
3464.08
3452.67
3437.14
3417.77
3394.89
3368.91
3340.27
3309.44
3276.91
3243.19
3208.76
3174.08
3139.58
3105.64
3072.59
3040.72
3010.26
2981.37
2954.21
2928.84
2905.35
2883.74
2864.03
2846.2
2830.21
2816.02
2803.56
2792.76
2783.55
2775.85
2769.59
2764.7
2761.14
2758.85
2757.79
2757.93
2759.25
2761.73
2765.35
2770.12
2776.03
2783.11
2791.38
2800.88
2811.62
2823.66
2837.05
2851.82
2868.02
2885.68
2904.85
2925.55
2947.8
2971.6
2996.91
3023.72
3051.9
3081.35
3111.92
3143.53
3175.72
3208.1
3240.4
3272.25
3303.22
3332.86
3360.7
3386.25
3409.08
3428.75
3444.83
3456.99
3464.96
3468.57
3467.75
3462.34
3452.59
3438.67
3420.88
3399.59
3375.23
3348.25
3319.17
3288.49
3256.7
3224.3
3191.72
3159.41
3127.68
3097.26
3068.48
3040.46
3013.63
2988.15
2964.11
2941.55
2920.44
2900.76
2882.45
2865.45
2849.73
2835.23
2821.94
2809.83
2798.92
2789.22
2780.78
2773.63
2767.83
2763.44
2760.53
2759.17
2759.41
2761.45
2765.24
2770.83
2778.24
2787.45
2798.47
2811.27
2825.85
2842.18
2860.21
2879.88
2901.14
2923.87
2947.96
2973.3
2999.67
3026.82
3054.14
3075.46
3096.91
3392.19
3377.26
3358.55
3336.27
3310.71
3282.24
3251.27
3218.24
3183.58
3147.76
3111.21
3074.33
3037.52
3001.14
2972.01
2937.79
2904.99
2873.78
2844.31
2816.7
2791
2767.25
2745.47
2725.64
2707.72
2691.66
2677.41
2664.91
2654.1
2644.92
2637.32
2631.27
2626.71
2623.62
2621.99
2621.8
2623.1
2625.9
2630.21
2636.04
2643.46
2652.5
2663.23
2675.69
2689.91
2705.94
2723.84
2743.62
2765.27
2788.82
2814.23
2841.4
2870.27
2900.7
2932.49
2965.32
2998.9
3033.26
3068.05
3102.84
3137.24
3170.84
3203.22
3234.01
3262.81
3289.24
3312.95
3333.62
3350.97
3364.72
3374.66
3380.63
3382.49
3380.1
3373.55
3362.86
3348.18
3329.7
3307.66
3282.38
3254.23
3223.58
3190.86
3156.51
3120.99
3084.74
3048.22
3011.84
2975.99
2941.02
2907.21
2874.86
2844.17
2815.34
2788.5
2763.75
2741.16
2720.76
2702.54
2686.46
2672.46
2660.46
2650.36
2642.08
2635.5
2630.55
2627.14
2625.2
2624.69
2625.55
2627.76
2631.3
2636.18
2642.39
2649.94
2658.86
2669.16
2680.87
2694.02
2708.63
2724.74
2742.37
2761.54
2782.27
2804.57
2828.44
2853.86
2880.79
2909.17
2938.91
2969.87
3001.89
3034.7
3068.05
3101.64
3135.1
3168.07
3200.12
3230.83
3259.74
3286.42
3310.43
3331.38
3348.88
3362.6
3372.26
3377.66
3378.66
3375.19
3367.29
3355.06
3338.68
3318.4
3294.55
3267.52
3237.76
3205.75
3171.98
3136.98
3101.26
3065.31
3029.58
2994.48
2960.39
2927.59
2896.36
2866.89
2839.3
2813.69
2790.08
2768.48
2748.86
2731.17
2715.33
2701.27
2688.93
2678.23
2669.09
2661.47
2655.29
2650.52
2647.1
2644.98
2644.12
2644.5
2646.08
2648.87
2652.85
2658.05
2664.49
2672.18
2681.18
2691.53
2703.28
2716.47
2731.15
2747.34
2765.09
2784.44
2805.43
2828.06
2852.35
2878.26
2905.72
2934.61
2964.79
2996.08
3028.35
3061.17
3094.35
3127.56
3160.43
3192.55
3223.49
3252.78
3279.96
3304.58
3326.2
3344.44
3358.92
3369.37
3375.55
3377.32
3374.6
3367.45
3355.95
3340.31
3320.79
3297.75
3271.58
3242.75
3211.73
3179.02
3145.12
3110.52
3075.69
3041.07
3007.02
2973.89
2941.96
2911.45
2882.54
2855.35
2829.98
2806.49
2784.9
2765.21
2747.4
2731.44
2717.28
2704.85
2694.08
2684.89
2677.22
2670.99
2666.13
2662.58
2660.31
2659.26
2659.41
2660.74
2663.22
2666.84
2671.6
2677.51
2684.59
2692.84
2702.32
2713.05
2725.07
2738.43
2753.18
2769.36
2787
2806.15
2826.83
2849.07
2872.86
2898.18
2924.99
2953.2
2982.69
3013.31
3044.98
3077.27
3109.77
3142.2
3174.21
3205.35
3235.17
3263.2
3288.94
3311.96
3331.79
3348.02
3360.29
3368.35
3372
3371.17
3365.72
3355.89
3341.85
3323.9
3302.45
3277.9
3250.73
3221.45
3190.59
3158.63
3126.07
3093.35
3060.91
3029.09
2998.65
2969.8
2941.75
2914.9
2889.41
2865.39
2842.84
2821.76
2802.1
2783.82
2766.85
2751.15
2736.67
2723.38
2711.28
2700.37
2690.66
2682.2
2675.04
2669.22
2664.81
2661.89
2660.5
2660.72
2662.74
2666.52
2672.1
2679.5
2688.7
2699.71
2712.52
2727.1
2743.43
2761.47
2781.16
2802.43
2825.18
2849.3
2874.66
2901.06
2928.23
2955.56
2977.25
2998.69
3295.65
3280.6
3261.75
3239.31
3213.58
3184.92
3153.75
3120.53
3085.68
3049.69
3012.98
2975.97
2939.06
2902.59
2873.14
2838.88
2806.04
2774.81
2745.33
2717.71
2692.02
2668.29
2646.53
2626.72
2608.83
2592.8
2578.58
2566.11
2555.33
2546.18
2538.61
2532.57
2528.02
2524.94
2523.31
2523.12
2524.42
2527.2
2531.5
2537.31
2544.72
2553.73
2564.43
2576.86
2591.05
2607.07
2624.95
2644.7
2666.35
2689.89
2715.3
2742.49
2771.4
2801.87
2833.72
2866.65
2900.31
2934.78
2969.71
3004.64
3039.2
3072.96
3105.51
3136.47
3165.44
3192.04
3215.91
3236.72
3254.19
3268.05
3278.08
3284.1
3285.98
3283.6
3277
3266.25
3251.47
3232.86
3210.67
3185.22
3156.89
3126.05
3093.14
3058.61
3022.91
2986.49
2949.81
2913.29
2877.32
2842.24
2808.35
2775.92
2745.18
2716.31
2689.45
2664.7
2642.12
2621.73
2603.54
2587.49
2573.53
2561.58
2551.53
2543.28
2536.75
2531.83
2528.44
2526.53
2526.03
2526.91
2529.12
2532.67
2537.54
2543.74
2551.29
2560.19
2570.48
2582.17
2595.3
2609.9
2625.99
2643.6
2662.75
2683.47
2705.75
2729.62
2755.04
2781.99