/*--------------------------------*- C++ -*----------------------------------*\
| =========                 |                                                 |
| \\      /  F ield         | OpenFOAM: The Open Source CFD Toolbox           |
|  \\    /   O peration     | Version:  3.0.1                                 |
|   \\  /    A nd           | Web:      www.OpenFOAM.org                      |
|    \\/     M anipulation  |                                                 |
\*---------------------------------------------------------------------------*/
FoamFile
{
    version     2.0;
    format      ascii;
    class       surfaceScalarField;
    location    "22.6";
    object      phi;
}
// * * * * * * * * * * * * * * * * * * * * * * * * * * * * * * * * * * * * * //

dimensions      [0 3 -1 0 0 0 0];

internalField   nonuniform List<scalar> 
42423
(
0.000209306
6.23203e-06
0.000201264
8.04177e-06
0.000191087
1.01778e-05
0.000178846
1.22405e-05
0.000165031
1.38146e-05
0.000149631
1.54005e-05
0.000133022
1.66086e-05
0.000115394
1.7628e-05
9.69833e-05
1.8411e-05
7.80892e-05
1.8894e-05
5.89992e-05
1.909e-05
3.99425e-05
1.90567e-05
2.11098e-05
1.88327e-05
2.59826e-06
1.85116e-05
-1.53534e-05
1.79516e-05
-3.26421e-05
1.72887e-05
-4.91164e-05
1.64743e-05
-6.47095e-05
1.55931e-05
-7.94063e-05
1.46969e-05
-9.31216e-05
1.37153e-05
-0.000105831
1.27098e-05
-0.000117555
1.17241e-05
-0.000128288
1.07323e-05
-0.00013803
9.74195e-06
-0.000146802
8.77214e-06
-0.000154629
7.8276e-06
-0.000161519
6.88945e-06
-0.000167505
5.98597e-06
-0.00017261
5.10522e-06
-0.00017688
4.27019e-06
-0.000180332
3.45217e-06
-0.000182989
2.6563e-06
-0.000184879
1.89053e-06
-0.000186029
1.14925e-06
-0.000186428
3.99559e-07
-0.000186019
-4.08966e-07
-0.000184797
-1.2224e-06
-0.000182847
-1.94931e-06
-0.000180154
-2.69342e-06
-0.000176623
-3.53087e-06
-0.000172325
-4.29855e-06
-0.000167069
-5.25536e-06
-0.000161024
-6.0451e-06
-0.0001542
-6.82456e-06
-0.000146406
-7.79311e-06
-0.000137614
-8.79204e-06
-0.000128107
-9.5079e-06
-0.00011749
-1.06164e-05
-0.000105955
-1.15353e-05
-9.36274e-05
-1.23275e-05
-8.01449e-05
-1.34825e-05
-6.5951e-05
-1.4194e-05
-5.07979e-05
-1.51531e-05
-3.4697e-05
-1.61009e-05
-1.8166e-05
-1.6531e-05
-9.49916e-07
-1.72161e-05
1.68108e-05
-1.77607e-05
3.47802e-05
-1.79695e-05
5.29919e-05
-1.82117e-05
7.11167e-05
-1.81249e-05
8.9062e-05
-1.79453e-05
0.000106702
-1.76397e-05
0.000123616
-1.69144e-05
0.000139757
-1.61414e-05
0.000154875
-1.51173e-05
0.000168688
-1.38136e-05
0.000181079
-1.23904e-05
0.000191827
-1.07481e-05
0.000200817
-8.99036e-06
0.000207885
-7.06835e-06
0.000212767
-4.88192e-06
0.000215446
-2.67915e-06
0.000215908
-4.61718e-07
0.000214027
1.88111e-06
0.000209769
4.25791e-06
0.000203251
6.51794e-06
0.000194706
8.5449e-06
0.000184025
1.06815e-05
0.000171486
1.25381e-05
0.000157288
1.4199e-05
0.000141563
1.57245e-05
0.00012461
1.69528e-05
0.000106684
1.79258e-05
8.7977e-05
1.87074e-05
6.87954e-05
1.91815e-05
4.93286e-05
1.94668e-05
2.97556e-05
1.9573e-05
1.04651e-05
1.92905e-05
-8.50801e-06
1.89731e-05
-2.69416e-05
1.84336e-05
-4.4709e-05
1.77674e-05
-6.16666e-05
1.69576e-05
-7.75838e-05
1.59172e-05
-9.24691e-05
1.48853e-05
-0.000106219
1.37498e-05
-0.00011881
1.25912e-05
-0.000130312
1.15017e-05
-0.000140533
1.02217e-05
-0.000149655
9.12155e-06
-0.000157676
8.02131e-06
-0.000164466
6.78974e-06
-0.000170222
5.75554e-06
-0.000175056
4.83457e-06
-0.000178778
3.72205e-06
-0.000181757
2.9793e-06
-0.00018391
2.15252e-06
-0.000185266
1.35578e-06
-0.000185955
6.89411e-07
-0.000185934
-2.09199e-08
-0.000185234
-6.99934e-07
-0.000183903
-1.33173e-06
-0.000181901
-2.00125e-06
-0.000179273
-2.62885e-06
-0.000176062
-3.21026e-06
-0.000172155
-3.90769e-06
-0.00016762
-4.53416e-06
-0.000162418
-5.2024e-06
-0.000156533
-5.88556e-06
-0.000150027
-6.50582e-06
-0.000142757
-7.27005e-06
-0.000134862
-7.89453e-06
-0.00012618
-8.68197e-06
-0.000116739
-9.44168e-06
-0.000106475
-1.02639e-05
-9.55118e-05
-1.09629e-05
-8.36449e-05
-1.1867e-05
-7.09436e-05
-1.27013e-05
-5.74258e-05
-1.35178e-05
-4.30438e-05
-1.43821e-05
-2.78607e-05
-1.51831e-05
-1.19419e-05
-1.59189e-05
4.65925e-06
-1.66012e-05
2.18336e-05
-1.71744e-05
3.94378e-05
-1.76043e-05
5.72789e-05
-1.78411e-05
7.51934e-05
-1.79145e-05
9.29659e-05
-1.77725e-05
0.000110328
-1.7362e-05
0.000126989
-1.66615e-05
0.000142732
-1.57425e-05
0.000157262
-1.45302e-05
0.00017032
-1.30582e-05
0.000181665
-1.13449e-05
0.000191059
-9.39417e-06
0.000198283
-7.22424e-06
0.000203242
-4.95874e-06
0.000205863
-2.62096e-06
0.000206066
-2.03219e-07
0.000203816
2.24998e-06
0.000199093
4.72283e-06
0.000192043
7.04974e-06
0.000182831
9.21283e-06
0.000171557
1.12733e-05
0.000158557
1.30002e-05
0.000144039
1.45184e-05
0.000128269
1.57691e-05
0.000111518
1.67517e-05
9.40232e-05
1.74945e-05
7.60646e-05
1.79586e-05
5.79485e-05
1.81161e-05
3.97943e-05
1.81542e-05
2.18876e-05
1.79067e-05
4.36976e-06
1.75179e-05
-1.26159e-05
1.69857e-05
-2.8945e-05
1.63291e-05
-4.45424e-05
1.55974e-05
-5.93189e-05
1.47765e-05
-7.33015e-05
1.39826e-05
-8.63881e-05
1.30866e-05
-9.86347e-05
1.22467e-05
-0.00010994
1.13056e-05
-0.000120443
1.05024e-05
-0.000130166
9.72327e-06
-0.000138899
8.73322e-06
-0.000146753
7.85371e-06
-0.000153699
6.94596e-06
-0.000159745
6.04592e-06
-0.000165169
5.4238e-06
-0.000169643
4.47452e-06
-0.000173329
3.68569e-06
-0.000176294
2.96561e-06
-0.00017847
2.17579e-06
-0.000179904
1.43342e-06
-0.000180628
7.23851e-07
-0.000180637
9.40209e-09
-0.000179964
-6.7284e-07
-0.000178568
-1.39627e-06
-0.000176493
-2.07442e-06
-0.000173721
-2.77265e-06
-0.000170242
-3.47846e-06
-0.000166091
-4.15155e-06
-0.000161124
-4.96643e-06
-0.000155399
-5.72512e-06
-0.000148889
-6.51054e-06
-0.000141553
-7.33591e-06
-0.000133412
-8.14085e-06
-0.0001244
-9.01243e-06
-0.000114472
-9.92716e-06
-0.000103645
-1.08279e-05
-9.18471e-05
-1.17975e-05
-7.92209e-05
-1.26261e-05
-6.5652e-05
-1.3569e-05
-5.12346e-05
-1.44174e-05
-3.59583e-05
-1.52764e-05
-1.99771e-05
-1.59812e-05
-3.37167e-06
-1.66055e-05
1.38123e-05
-1.7184e-05
3.13856e-05
-1.75733e-05
4.92144e-05
-1.78288e-05
6.70842e-05
-1.78698e-05
8.48239e-05
-1.77398e-05
0.000102224
-1.74005e-05
0.000118973
-1.67488e-05
0.000134903
-1.59295e-05
0.000149738
-1.48349e-05
0.000163262
-1.35249e-05
0.000175276
-1.20139e-05
0.00018553
-1.02534e-05
0.000193866
-8.33632e-06
0.000200155
-6.28861e-06
0.000204194
-4.03958e-06
0.000205999
-1.80457e-06
0.000205511
4.88077e-07
0.000202754
2.75692e-06
0.000197801
4.95215e-06
0.000190644
7.15732e-06
0.000181461
9.1827e-06
0.000170357
1.11047e-05
0.00015754
1.28168e-05
0.000143225
1.43148e-05
0.000127599
1.56261e-05
0.000111005
1.65936e-05
9.36578e-05
1.73475e-05
7.58028e-05
1.7855e-05
5.77026e-05
1.81002e-05
3.95523e-05
1.81502e-05
2.16134e-05
1.79389e-05
4.08637e-06
1.7527e-05
-1.29298e-05
1.70161e-05
-2.92608e-05
1.6331e-05
-4.48174e-05
1.55566e-05
-5.95063e-05
1.46889e-05
-7.32695e-05
1.37632e-05
-8.60035e-05
1.2734e-05
-9.7718e-05
1.17146e-05
-0.000108423
1.0705e-05
-0.000118112
9.68894e-06
-0.000126988
8.87632e-06
-0.000134876
7.88774e-06
-0.000141862
6.98615e-06
-0.000148182
6.32023e-06
-0.000153789
5.60702e-06
-0.000158601
4.81152e-06
-0.000162653
4.05188e-06
-0.000166073
3.4202e-06
-0.000168887
2.81448e-06
-0.000171013
2.12551e-06
-0.000172531
1.51837e-06
-0.000173383
8.51831e-07
-0.000173595
2.1138e-07
-0.000173092
-5.02147e-07
-0.000171901
-1.19134e-06
-0.000169911
-1.99056e-06
-0.000167153
-2.75738e-06
-0.000163563
-3.59044e-06
-0.000159116
-4.44721e-06
-0.000153752
-5.3639e-06
-0.000147445
-6.30657e-06
-0.000140161
-7.28386e-06
-0.000131984
-8.17732e-06
-0.000122767
-9.21645e-06
-0.000112541
-1.02267e-05
-0.000101281
-1.12595e-05
-8.91845e-05
-1.20968e-05
-7.60212e-05
-1.31633e-05
-6.19374e-05
-1.40838e-05
-4.71911e-05
-1.47464e-05
-3.14974e-05
-1.56937e-05
-1.51964e-05
-1.63011e-05
1.67858e-06
-1.6875e-05
1.9e-05
-1.73214e-05
3.66148e-05
-1.76148e-05
5.44584e-05
-1.78437e-05
7.23247e-05
-1.78663e-05
8.99273e-05
-1.76027e-05
0.000107203
-1.72762e-05
0.000123898
-1.66947e-05
0.000139858
-1.59603e-05
0.000154859
-1.50011e-05
0.000168807
-1.39472e-05
0.000181472
-1.26659e-05
0.000192599
-1.11269e-05
0.000202103
-9.50378e-06
0.000209893
-7.79036e-06
0.000215684
-5.79095e-06
0.000219529
-3.84509e-06
0.000221251
-1.72211e-06
0.000220748
5.02937e-07
0.000218051
2.69706e-06
0.00021306
4.9915e-06
0.000206009
7.0507e-06
0.000196967
9.04204e-06
0.000185956
1.10109e-05
0.000173239
1.27177e-05
0.000158973
1.42652e-05
0.000143304
1.56698e-05
0.000126578
1.67259e-05
0.000108967
1.76102e-05
9.0791e-05
1.81763e-05
7.23245e-05
1.84665e-05
5.37989e-05
1.85256e-05
3.54956e-05
1.83032e-05
1.76257e-05
1.78699e-05
2.54361e-07
1.73714e-05
-1.63907e-05
1.6645e-05
-3.21693e-05
1.57786e-05
-4.69427e-05
1.47735e-05
-6.06595e-05
1.37168e-05
-7.32609e-05
1.26014e-05
-8.4701e-05
1.14401e-05
-9.49927e-05
1.02917e-05
-0.000104145
9.15213e-06
-0.00011218
8.03479e-06
-0.000119147
6.96714e-06
-0.000125097
5.95026e-06
-0.000130093
4.99648e-06
-0.000134178
4.08432e-06
-0.000137403
3.22494e-06
-0.00013984
2.43722e-06
-0.000141537
1.69749e-06
-0.00014254
1.00247e-06
-0.00014288
3.40388e-07
-0.000142533
-3.47454e-07
-0.00014152
-1.01331e-06
-0.000139893
-1.62657e-06
-0.00013766
-2.23342e-06
-0.000134862
-2.79792e-06
-0.000131529
-3.33261e-06
-0.000127551
-3.97817e-06
-0.000123005
-4.54566e-06
-0.000117924
-5.08139e-06
-0.000112108
-5.81562e-06
-0.000105685
-6.42315e-06
-9.84906e-05
-7.19448e-06
-9.06384e-05
-7.85223e-06
-8.21118e-05
-8.52662e-06
-7.27215e-05
-9.39024e-06
-6.25336e-05
-1.01879e-05
-5.1536e-05
-1.09977e-05
-3.95987e-05
-1.19373e-05
-2.67754e-05
-1.28233e-05
-1.28852e-05
-1.38902e-05
1.82145e-06
-1.47067e-05
1.69636e-05
-1.51422e-05
3.28906e-05
-1.5927e-05
4.93284e-05
-1.64378e-05
-1.69256e-05
0.000209397
1.24648e-05
0.000201353
1.60854e-05
0.000191171
2.036e-05
0.000178924
2.44876e-05
0.000165101
2.76373e-05
0.000149692
3.08101e-05
0.000133072
3.32278e-05
0.000115433
3.52669e-05
9.70113e-05
3.68332e-05
7.81054e-05
3.77999e-05
5.90097e-05
3.81857e-05
3.99375e-05
3.81289e-05
2.10906e-05
3.76796e-05
2.57724e-06
3.70249e-05
-1.5377e-05
3.59059e-05
-3.26723e-05
3.4584e-05
-4.91542e-05
3.29561e-05
-6.47504e-05
3.11893e-05
-7.94481e-05
2.93945e-05
-9.31671e-05
2.74343e-05
-0.000105883
2.54261e-05
-0.000117614
2.34551e-05
-0.000128345
2.14626e-05
-0.000138083
1.948e-05
-0.000146857
1.75467e-05
-0.000154689
1.5659e-05
-0.000161585
1.37855e-05
-0.00016757
1.19711e-05
-0.000172668
1.02035e-05
-0.000176939
8.54073e-06
-0.000180395
6.90852e-06
-0.000183058
5.31881e-06
-0.000184943
3.77629e-06
-0.000186081
2.28735e-06
-0.000186483
8.01472e-07
-0.000186077
-8.14898e-07
-0.000184855
-2.44503e-06
-0.000182906
-3.89829e-06
-0.000180213
-5.38606e-06
-0.000176683
-7.06145e-06
-0.000172382
-8.59942e-06
-0.000167135
-1.05026e-05
-0.000161089
-1.20903e-05
-0.000154264
-1.36496e-05
-0.000146474
-1.55832e-05
-0.000137683
-1.75833e-05
-0.000128172
-1.90193e-05
-0.000117555
-2.12333e-05
-0.000106018
-2.30723e-05
-9.36844e-05
-2.46613e-05
-8.02059e-05
-2.6961e-05
-6.60076e-05
-2.83924e-05
-5.0855e-05
-3.03058e-05
-3.47454e-05
-3.22106e-05
-1.8209e-05
-3.30675e-05
-9.84987e-07
-3.44402e-05
1.67854e-05
-3.55312e-05
3.47669e-05
-3.5951e-05
5.2991e-05
-3.64359e-05
7.11146e-05
-3.62485e-05
8.90675e-05
-3.58983e-05
0.000106732
-3.53045e-05
0.000123657
-3.38391e-05
0.000139809
-3.22937e-05
0.000154941
-3.02496e-05
0.000168752
-2.76242e-05
0.000181151
-2.47895e-05
0.000191923
-2.15208e-05
0.000200925
-1.79919e-05
0.000208
-1.41434e-05
0.000212884
-9.76639e-06
0.000215569
-5.36394e-06
0.000216035
-9.27317e-07
0.000214146
3.76984e-06
0.000209887
8.51712e-06
0.000203365
1.30398e-05
0.000194818
1.70911e-05
0.000184121
2.13786e-05
0.000171569
2.50903e-05
0.000157353
2.8415e-05
0.00014162
3.14572e-05
0.000124643
3.39301e-05
0.0001067
3.58691e-05
8.80004e-05
3.74067e-05
6.87739e-05
3.8408e-05
4.92991e-05
3.89417e-05
2.97249e-05
3.91472e-05
1.04168e-05
3.85986e-05
-8.56597e-06
3.79559e-05
-2.70067e-05
3.68743e-05
-4.47834e-05
3.55441e-05
-6.17523e-05
3.39266e-05
-7.76673e-05
3.18322e-05
-9.25521e-05
2.97702e-05
-0.00010631
2.75081e-05
-0.000118902
2.51824e-05
-0.0001304
2.29999e-05
-0.000140624
2.04458e-05
-0.000149742
1.82399e-05
-0.000157771
1.60503e-05
-0.000164556
1.35745e-05
-0.000170289
1.14885e-05
-0.000175127
9.67219e-06
-0.000178853
7.44881e-06
-0.000181821
5.94712e-06
-0.000183978
4.309e-06
-0.000185326
2.70441e-06
-0.000186014
1.37682e-06
-0.000185996
-3.91096e-08
-0.000185299
-1.39614e-06
-0.000183959
-2.67243e-06
-0.000181948
-4.01232e-06
-0.000179318
-5.25873e-06
-0.000176105
-6.42304e-06
-0.000172199
-7.81373e-06
-0.000167667
-9.06566e-06
-0.000162471
-1.03988e-05
-0.000156575
-1.17813e-05
-0.000150054
-1.30272e-05
-0.000142789
-1.45349e-05
-0.000134902
-1.57821e-05
-0.000126221
-1.73624e-05
-0.000116786
-1.88773e-05
-0.000106535
-2.05144e-05
-9.55519e-05
-2.19464e-05
-8.36797e-05
-2.37392e-05
-7.09757e-05
-2.54054e-05
-5.74599e-05
-2.70337e-05
-4.30765e-05
-2.87656e-05
-2.78917e-05
-3.0368e-05
-1.19645e-05
-3.18461e-05
4.64658e-06
-3.32124e-05
2.18247e-05
-3.43526e-05
3.94382e-05
-3.52179e-05
5.72926e-05
-3.56956e-05
7.52178e-05
-3.58399e-05
9.29929e-05
-3.55477e-05
0.000110371
-3.47398e-05
0.000127051
-3.33415e-05
0.000142798
-3.14896e-05
0.000157344
-2.90771e-05
0.000170417
-2.61309e-05
0.000181758
-2.26859e-05
0.000191156
-1.87921e-05
0.000198391
-1.44592e-05
0.000203344
-9.91176e-06
0.000205974
-5.2517e-06
0.000206178
-4.07561e-07
0.000203912
4.51603e-06
0.000199187
9.44785e-06
0.000192124
1.41135e-05
0.000182905
1.84317e-05
0.000171615
2.25633e-05
0.000158597
2.60175e-05
0.000144066
2.90499e-05
0.000128282
3.15525e-05
0.000111516
3.35183e-05
9.40065e-05
3.50036e-05
7.60376e-05
3.59274e-05
5.79171e-05
3.62366e-05
3.97591e-05
3.63123e-05
2.18372e-05
3.58285e-05
4.31193e-06
3.50431e-05
-1.26817e-05
3.39793e-05
-2.90175e-05
3.26649e-05
-4.4616e-05
3.11959e-05
-5.93985e-05
2.9559e-05
-7.33783e-05
2.79623e-05
-8.64737e-05
2.61821e-05
-9.87119e-05
2.44849e-05
-0.00011001
2.26034e-05
-0.000120507
2.09999e-05
-0.000130241
1.94573e-05
-0.000138979
1.74711e-05
-0.000146829
1.57036e-05
-0.000153776
1.38927e-05
-0.000159816
1.20864e-05
-0.000165233
1.08408e-05
-0.000169704
8.94532e-06
-0.000173386
7.36792e-06
-0.000176355
5.93479e-06
-0.000178533
4.35345e-06
-0.000179964
2.86489e-06
-0.000180678
1.43736e-06
-0.000180683
1.47665e-08
-0.000180015
-1.341e-06
-0.00017862
-2.79193e-06
-0.000176541
-4.1527e-06
-0.000173774
-5.54024e-06
-0.000170292
-6.95978e-06
-0.000166138
-8.30602e-06
-0.000161169
-9.93518e-06
-0.000155439
-1.14549e-05
-0.000148937
-1.30126e-05
-0.000141599
-1.46742e-05
-0.000133455
-1.62852e-05
-0.000124442
-1.80251e-05
-0.000114522
-1.98476e-05
-0.000103696
-2.16534e-05
-9.18957e-05
-2.35983e-05
-7.92673e-05
-2.52546e-05
-6.56828e-05
-2.71535e-05
-5.12599e-05
-2.88403e-05
-3.59913e-05
-3.0545e-05
-2.00046e-05
-3.1968e-05
-3.38576e-06
-3.32243e-05
1.38039e-05
-3.43738e-05
3.13885e-05
-3.5158e-05
4.92247e-05
-3.56651e-05
6.7106e-05
-3.57512e-05
8.48525e-05
-3.54864e-05
0.000102261
-3.48088e-05
0.000119018
-3.35063e-05
0.000134965
-3.18766e-05
0.000149818
-2.96883e-05
0.00016334
-2.70464e-05
0.000175372
-2.40465e-05
0.000185637
-2.05182e-05
0.000193979
-1.66779e-05
0.000200249
-1.2559e-05
0.000204284
-8.07448e-06
0.000206113
-3.63375e-06
0.000205619
9.8198e-07
0.00020284
5.53629e-06
0.000197883
9.90856e-06
0.000190718
1.43225e-05
0.000181523
1.83779e-05
0.000170405
2.22221e-05
0.000157585
2.56369e-05
0.000143252
2.86485e-05
0.00012761
3.12676e-05
0.000111001
3.32023e-05
9.36455e-05
3.47033e-05
7.57842e-05
3.57163e-05
5.76741e-05
3.62103e-05
3.95142e-05
3.63102e-05
2.15621e-05
3.5891e-05
4.02073e-06
3.50684e-05
-1.3004e-05
3.40409e-05
-2.9318e-05
3.2645e-05
-4.48789e-05
3.11176e-05
-5.95772e-05
2.93872e-05
-7.3355e-05
2.75409e-05
-8.60815e-05
2.54605e-05
-9.77913e-05
2.34244e-05
-0.000108501
2.14142e-05
-0.00011819
1.93786e-05
-0.000127067
1.77532e-05
-0.000134948
1.57686e-05
-0.000141934
1.39727e-05
-0.000148255
1.26404e-05
-0.000153854
1.12068e-05
-0.000158662
9.61898e-06
-0.000162708
8.09822e-06
-0.00016613
6.84203e-06
-0.000168954
5.63817e-06
-0.000171071
4.24232e-06
-0.000172583
3.03105e-06
-0.000173436
1.70443e-06
-0.00017365
4.25705e-07
-0.000173149
-1.00331e-06
-0.00017196
-2.38086e-06
-0.000169971
-3.97943e-06
-0.000167206
-5.52168e-06
-0.000163615
-7.1814e-06
-0.000159174
-8.88895e-06
-0.000153811
-1.07263e-05
-0.000147504
-1.26144e-05
-0.000140227
-1.456e-05
-0.000132042
-1.63623e-05
-0.000122829
-1.84297e-05
-0.000112597
-2.0459e-05
-0.000101335
-2.25214e-05
-8.92483e-05
-2.41837e-05
-7.60766e-05
-2.6335e-05
-6.19968e-05
-2.81636e-05
-4.72387e-05
-2.95046e-05
-3.1541e-05
-3.13914e-05
-1.52255e-05
-3.26166e-05
1.65126e-06
-3.37518e-05
1.89744e-05
-3.46446e-05
3.66036e-05
-3.5244e-05
5.44594e-05
-3.56995e-05
7.23363e-05
-3.57433e-05
8.99479e-05
-3.52143e-05
0.000107224
-3.45524e-05
0.000123927
-3.33978e-05
0.000139903
-3.19357e-05
0.000154915
-3.00133e-05
0.000168882
-2.79144e-05
0.00018156
-2.5344e-05
0.000192683
-2.225e-05
0.000202191
-1.90124e-05
0.000209998
-1.5597e-05
0.000215795
-1.1588e-05
0.000219648
-7.69771e-06
0.000221375
-3.44908e-06
0.000220868
1.00979e-06
0.000218168
5.39643e-06
0.00021318
9.98005e-06
0.000206126
1.41041e-05
0.000197078
1.80898e-05
0.00018606
2.20295e-05
0.000173336
2.54419e-05
0.000159055
2.8546e-05
0.000143374
3.135e-05
0.000126637
3.34635e-05
0.000109011
3.52365e-05
9.08226e-05
3.63643e-05
7.23445e-05
3.69446e-05
5.38081e-05
3.7062e-05
3.54961e-05
3.66152e-05
1.76133e-05
3.57526e-05
2.33301e-07
3.47514e-05
-1.64196e-05
3.32979e-05
-3.22054e-05
3.15644e-05
-4.69868e-05
2.95549e-05
-6.07113e-05
2.74413e-05
-7.33143e-05
2.52044e-05
-8.47535e-05
2.28794e-05
-9.50463e-05
2.05845e-05
-0.000104199
1.83051e-05
-0.000112237
1.60724e-05
-0.000119208
1.39378e-05
-0.000125155
1.18975e-05
-0.000130146
9.98804e-06
-0.00013423
8.16752e-06
-0.000137453
6.44873e-06
-0.000139888
4.87208e-06
-0.000141585
3.39432e-06
-0.000142583
2e-06
-0.000142927
6.8494e-07
-0.000142578
-6.96821e-07
-0.000141563
-2.02794e-06
-0.000139937
-3.25224e-06
-0.000137703
-4.46743e-06
-0.000134902
-5.59894e-06
-0.000131571
-6.66369e-06
-0.000127599
-7.95071e-06
-0.000123051
-9.09294e-06
-0.000117969
-1.01637e-05
-0.000112145
-1.16394e-05
-0.000105724
-1.28442e-05
-9.85329e-05
-1.4386e-05
-9.06816e-05
-1.57035e-05
-8.21531e-05
-1.70551e-05
-7.27582e-05
-1.87851e-05
-6.25719e-05
-2.03743e-05
-5.15717e-05
-2.19978e-05
-3.96314e-05
-2.38776e-05
-2.68119e-05
-2.56428e-05
-1.29169e-05
-2.77852e-05
1.79193e-06
-2.94155e-05
1.6934e-05
-3.02843e-05
3.28642e-05
-3.18572e-05
4.93079e-05
-3.28815e-05
-3.38597e-05
0.000209571
1.87063e-05
0.000201516
2.41403e-05
0.000191321
3.0556e-05
0.000179057
3.67512e-05
0.000165215
4.14789e-05
0.000149787
4.62385e-05
0.000133147
4.98679e-05
0.000115488
5.29259e-05
9.70466e-05
5.52745e-05
7.8121e-05
5.67256e-05
5.902e-05
5.72866e-05
3.99176e-05
5.72313e-05
2.1046e-05
5.65513e-05
2.52855e-06
5.55423e-05
-1.54366e-05
5.38711e-05
-3.27422e-05
5.18896e-05
-4.92301e-05
4.9444e-05
-6.4832e-05
4.67913e-05
-7.95365e-05
4.4099e-05
-9.32617e-05
4.11595e-05
-0.000105979
3.81438e-05
-0.000117706
3.51818e-05
-0.000128434
3.21903e-05
-0.000138175
2.92208e-05
-0.000146954
2.63255e-05
-0.000154783
2.34881e-05
-0.000161681
2.06834e-05
-0.000167675
1.79653e-05
-0.000172773
1.53016e-05
-0.000177046
1.28135e-05
-0.0001805
1.03632e-05
-0.000183166
7.98422e-06
-0.000185058
5.66862e-06
-0.000186182
3.411e-06
-0.000186556
1.17575e-06
-0.000186142
-1.2292e-06
-0.000184916
-3.67056e-06
-0.000182967
-5.84723e-06
-0.000180275
-8.07836e-06
-0.000176745
-1.05918e-05
-0.000172444
-1.28997e-05
-0.000167204
-1.57427e-05
-0.000161158
-1.81367e-05
-0.000154333
-2.04742e-05
-0.000146536
-2.33804e-05
-0.000137759
-2.63609e-05
-0.000128245
-2.85329e-05
-0.00011763
-3.18481e-05
-0.000106092
-3.46108e-05
-9.37543e-05
-3.69987e-05
-8.02774e-05
-4.0438e-05
-6.60764e-05
-4.25934e-05
-5.09235e-05
-4.54587e-05
-3.48008e-05
-4.83334e-05
-1.82592e-05
-4.96091e-05
-1.02687e-06
-5.16726e-05
1.67454e-05
-5.33035e-05
3.47298e-05
-5.39355e-05
5.29753e-05
-5.46815e-05
7.11148e-05
-5.43881e-05
8.90749e-05
-5.38585e-05
0.000106756
-5.29855e-05
0.000123701
-5.07841e-05
0.000139862
-4.84546e-05
0.000155013
-4.54009e-05
0.000168849
-4.14602e-05
0.000181261
-3.72013e-05
0.000192041
-3.2301e-05
0.000201054
-2.70053e-05
0.000208141
-2.123e-05
0.000213042
-1.4668e-05
0.000215739
-8.06122e-06
0.000216205
-1.39334e-06
0.000214304
5.67098e-06
0.000210055
1.27668e-05
0.000203531
1.95638e-05
0.000194978
2.5644e-05
0.000184256
3.21006e-05
0.00017169
3.76558e-05
0.000157456
4.26487e-05
0.000141707
4.72066e-05
0.000124694
5.09434e-05
0.000106737
5.3826e-05
8.80273e-05
5.61162e-05
6.87752e-05
5.76601e-05
4.92874e-05
5.84295e-05
2.97015e-05
5.87331e-05
1.03707e-05
5.79293e-05
-8.63105e-06
5.69577e-05
-2.70855e-05
5.53287e-05
-4.48629e-05
5.33215e-05
-6.18485e-05
5.09122e-05
-7.77705e-05
4.77542e-05
-9.26487e-05
4.46484e-05
-0.000106416
4.12756e-05
-0.000119013
3.77792e-05
-0.000130513
3.44994e-05
-0.000140744
3.06768e-05
-0.000149863
2.73593e-05
-0.000157893
2.40803e-05
-0.000164692
2.03736e-05
-0.000170407
1.72035e-05
-0.000175238
1.45031e-05
-0.000178963
1.11741e-05
-0.000181905
8.88832e-06
-0.000184075
6.47943e-06
-0.000185419
4.0484e-06
-0.000186097
2.05526e-06
-0.000186072
-6.4676e-08
-0.000185372
-2.09617e-06
-0.000184046
-3.99847e-06
-0.000182043
-6.01499e-06
-0.000179397
-7.90484e-06
-0.000176179
-9.64149e-06
-0.000172273
-1.1719e-05
-0.000167748
-1.35906e-05
-0.00016255
-1.55969e-05
-0.000156659
-1.76728e-05
-0.000150141
-1.95448e-05
-0.000142873
-2.18037e-05
-0.000134981
-2.36733e-05
-0.000126306
-2.60376e-05
-0.000116877
-2.83062e-05
-0.000106652
-3.07401e-05
-9.56448e-05
-3.29533e-05
-8.37681e-05
-3.5616e-05
-7.10728e-05
-3.81007e-05
-5.75449e-05
-4.05617e-05
-4.31549e-05
-4.31556e-05
-2.79661e-05
-4.55569e-05
-1.20371e-05
-4.77752e-05
4.58947e-06
-4.9839e-05
2.17853e-05
-5.15485e-05
3.94132e-05
-5.28459e-05
5.7275e-05
-5.35575e-05
7.52229e-05
-5.37878e-05
9.30204e-05
-5.33453e-05
0.000110417
-5.21367e-05
0.000127118
-5.00427e-05
0.000142886
-4.72574e-05
0.000157447
-4.36384e-05
0.000170543
-3.92265e-05
0.000181908
-3.40514e-05
0.000191316
-2.81999e-05
0.000198565
-2.17083e-05
0.000203526
-1.48731e-05
0.000206155
-7.88034e-06
0.000206348
-6.00786e-07
0.000204065
6.79927e-06
0.000199352
1.41609e-05
0.000192273
2.11924e-05
0.000183036
2.76681e-05
0.000171728
3.38715e-05
0.000158697
3.90486e-05
0.000144148
4.35989e-05
0.000128341
4.73594e-05
0.000111546
5.03132e-05
9.4011e-05
5.25386e-05
7.60274e-05
5.3911e-05
5.78901e-05
5.43738e-05
3.97199e-05
5.44825e-05
2.18011e-05
5.37472e-05
4.27144e-06
5.25728e-05
-1.27389e-05
5.09897e-05
-2.90933e-05
4.90192e-05
-4.47001e-05
4.68027e-05
-5.94807e-05
4.43397e-05
-7.34655e-05
4.19471e-05
-8.65725e-05
3.92891e-05
-9.88045e-05
3.67169e-05
-0.000110094
3.38926e-05
-0.000120582
3.14886e-05
-0.000130332
2.92067e-05
-0.000139088
2.62268e-05
-0.000146929
2.35453e-05
-0.000153876
2.08398e-05
-0.000159916
1.81258e-05
-0.000165331
1.62563e-05
-0.000169795
1.34087e-05
-0.000173472
1.10456e-05
-0.000176444
8.90603e-06
-0.000178625
6.53452e-06
-0.00018007
4.31034e-06
-0.00018078
2.14718e-06
-0.000180764
-7.19173e-10
-0.000180088
-2.01732e-06
-0.000178702
-4.17835e-06
-0.000176624
-6.23053e-06
-0.000173857
-8.30685e-06
-0.000170378
-1.04392e-05
-0.000166226
-1.24578e-05
-0.000161264
-1.48977e-05
-0.000155529
-1.71898e-05
-0.000149024
-1.95172e-05
-0.000141694
-2.20044e-05
-0.000133548
-2.44316e-05
-0.000124532
-2.70412e-05
-0.00011461
-2.97691e-05
-0.000103792
-3.24714e-05
-9.20027e-05
-3.53878e-05
-7.93646e-05
-3.78927e-05
-6.57787e-05
-4.07395e-05
-5.13479e-05
-4.32711e-05
-3.60684e-05
-4.58246e-05
-2.00733e-05
-4.79632e-05
-3.44789e-06
-4.98498e-05
1.37597e-05
-5.15814e-05
3.13594e-05
-5.27577e-05
4.91923e-05
-5.34981e-05
6.71039e-05
-5.36628e-05
8.48793e-05
-5.32619e-05
0.000102305
-5.22346e-05
0.000119075
-5.02765e-05
0.000135038
-4.78394e-05
0.000149906
-4.45567e-05
0.000163443
-4.05828e-05
0.000175496
-3.60998e-05
0.000185778
-3.08001e-05
0.000194136
-2.50365e-05
0.000200421
-1.88441e-05
0.000204457
-1.21098e-05
0.000206288
-5.46525e-06
0.000205776
1.49412e-06
0.000202996
8.31646e-06
0.000198029
1.48756e-05
0.000190854
2.14969e-05
0.000181649
2.75833e-05
0.000170513
3.33577e-05
0.000157677
3.84728e-05
0.000143323
4.30025e-05
0.00012766
4.69313e-05
0.000111031
4.98309e-05
9.36571e-05
5.20773e-05
7.57869e-05
5.35864e-05
5.76754e-05
5.43218e-05
3.94993e-05
5.44863e-05
2.15235e-05
5.38668e-05
3.96641e-06
5.26255e-05
-1.3073e-05
5.10803e-05
-2.9392e-05
4.8964e-05
-4.49738e-05
4.66994e-05
-5.96677e-05
4.40811e-05
-7.34498e-05
4.1323e-05
-8.61867e-05
3.81974e-05
-9.78865e-05
3.51243e-05
-0.000108591
3.21189e-05
-0.000118285
2.90723e-05
-0.000127175
2.66436e-05
-0.000135054
2.36473e-05
-0.000142035
2.09534e-05
-0.000148347
1.8953e-05
-0.000153942
1.68012e-05
-0.000158739
1.44162e-05
-0.00016278
1.21395e-05
-0.000166204
1.02662e-05
-0.000169042
8.47617e-06
-0.000171158
6.35751e-06
-0.000172672
4.54563e-06
-0.000173523
2.55484e-06
-0.000173736
6.39078e-07
-0.000173238
-1.50109e-06
-0.000172046
-3.57291e-06
-0.000170061
-5.96458e-06
-0.000167305
-8.27731e-06
-0.000163712
-1.07749e-05
-0.000159268
-1.33326e-05
-0.000153917
-1.60779e-05
-0.000147592
-1.89387e-05
-0.000140329
-2.18239e-05
-0.000132128
-2.45625e-05
-0.000122935
-2.76226e-05
-0.000112697
-3.06978e-05
-0.000101423
-3.37952e-05
-8.93387e-05
-3.62679e-05
-7.61669e-05
-3.95068e-05
-6.20967e-05
-4.22339e-05
-4.73114e-05
-4.42898e-05
-3.16121e-05
-4.70908e-05
-1.52768e-05
-4.89519e-05
1.60297e-06
-5.06317e-05
1.89296e-05
-5.19713e-05
3.65731e-05
-5.28876e-05
5.44474e-05
-5.35738e-05
7.23357e-05
-5.36316e-05
8.99568e-05
-5.28355e-05
0.000107255
-5.18511e-05
0.000123965
-5.01075e-05
0.000139954
-4.79247e-05
0.000154986
-4.50455e-05
0.000168963
-4.1891e-05
0.000181658
-3.80391e-05
0.000192787
-3.33796e-05
0.000202297
-2.85224e-05
0.000210115
-2.34143e-05
0.000215929
-1.7402e-05
0.000219799
-1.15687e-05
0.000221527
-5.1771e-06
0.00022102
1.51735e-06
0.000218319
8.09751e-06
0.000213342
1.49562e-05
0.000206286
2.1161e-05
0.00019723
2.71451e-05
0.000186202
3.30577e-05
0.000173472
3.81719e-05
0.000159155
4.28631e-05
0.00014346
4.7045e-05
0.000126704
5.02196e-05
0.000109048
5.28918e-05
9.08448e-05
5.45678e-05
7.23501e-05
5.54394e-05
5.37992e-05
5.56129e-05
3.54802e-05
5.49342e-05
1.75682e-05
5.36646e-05
1.71841e-07
5.21478e-05
-1.64939e-05
4.99637e-05
-3.22905e-05
4.7361e-05
-4.70797e-05
4.4344e-05
-6.08072e-05
4.11688e-05
-7.34111e-05
3.78083e-05
-8.48535e-05
3.43217e-05
-9.51482e-05
3.08792e-05
-0.000104301
2.74584e-05
-0.000112335
2.41061e-05
-0.000119301
2.09035e-05
-0.000125243
1.78397e-05
-0.000130232
1.49768e-05
-0.000134315
1.22506e-05
-0.000137537
9.67022e-06
-0.000139968
7.30379e-06
-0.000141666
5.09165e-06
-0.000142659
2.9936e-06
-0.000142995
1.02077e-06
-0.000142625
-1.06633e-06
-0.000141609
-3.04481e-06
-0.000139986
-4.87521e-06
-0.000137741
-6.71208e-06
-0.000134941
-8.39881e-06
-0.000131603
-1.0002e-05
-0.000127622
-1.19315e-05
-0.000123074
-1.36406e-05
-0.000117996
-1.52424e-05
-0.000112182
-1.74534e-05
-0.000105761
-1.92647e-05
-9.85795e-05
-2.15676e-05
-9.0731e-05
-2.3552e-05
-8.22173e-05
-2.55689e-05
-7.28166e-05
-2.81858e-05
-6.26361e-05
-3.05548e-05
-5.16337e-05
-3.30002e-05
-3.96909e-05
-3.58204e-05
-2.6881e-05
-3.84527e-05
-1.2979e-05
-4.16871e-05
1.73473e-06
-4.41293e-05
1.68781e-05
-4.54277e-05
3.28152e-05
-4.77943e-05
4.92699e-05
-4.93362e-05
-5.08075e-05
0.000209833
2.4961e-05
0.000201761
3.22119e-05
0.000191545
4.07727e-05
0.000179257
4.90393e-05
0.000165387
5.53484e-05
0.00014993
6.16956e-05
0.000133259
6.6539e-05
0.00011557
7.06151e-05
9.70993e-05
7.3745e-05
7.81446e-05
7.56803e-05
5.90382e-05
7.6393e-05
3.98882e-05
7.63813e-05
2.09808e-05
7.54586e-05
2.45534e-06
7.40678e-05
-1.55261e-05
7.18525e-05
-3.28463e-05
6.92098e-05
-4.93478e-05
6.59455e-05
-6.49612e-05
6.24047e-05
-7.96717e-05
5.88096e-05
-9.34006e-05
5.48884e-05
-0.000106123
5.0866e-05
-0.000117854
4.6913e-05
-0.000128583
4.29189e-05
-0.000138326
3.89646e-05
-0.000147105
3.51043e-05
-0.000154936
3.1319e-05
-0.000161836
2.7583e-05
-0.000167838
2.39678e-05
-0.000172934
2.03979e-05
-0.000177209
1.70876e-05
-0.000180666
1.3821e-05
-0.000183338
1.0656e-05
-0.000185229
7.55983e-06
-0.000186339
4.52043e-06
-0.000186675
1.51205e-06
-0.000186238
-1.66646e-06
-0.000185009
-4.89976e-06
-0.000183059
-7.79661e-06
-0.000180368
-1.077e-05
-0.000176838
-1.41215e-05
-0.000172539
-1.71986e-05
-0.00016731
-2.09722e-05
-0.000161261
-2.41851e-05
-0.000154437
-2.72984e-05
-0.000146632
-3.11856e-05
-0.000137875
-3.51181e-05
-0.000128356
-3.80515e-05
-0.000117744
-4.24602e-05
-0.000106204
-4.6151e-05
-9.38613e-05
-4.93411e-05
-8.0386e-05
-5.39133e-05
-6.61801e-05
-5.67994e-05
-5.1027e-05
-6.06118e-05
-3.48855e-05
-6.4475e-05
-1.83377e-05
-6.61571e-05
-1.10003e-06
-6.89103e-05
1.66832e-05
-7.10868e-05
3.46821e-05
-7.19345e-05
5.29461e-05
-7.29455e-05
7.10938e-05
-7.2536e-05
8.90801e-05
-7.18448e-05
0.000106787
-7.06924e-05
0.000123756
-6.7753e-05
0.000139944
-6.46435e-05
0.000155121
-6.05775e-05
0.000168975
-5.53143e-05
0.000181417
-4.96432e-05
0.000192222
-4.31065e-05
0.000201256
-3.6039e-05
0.00020835
-2.83242e-05
0.000213261
-1.95789e-05
0.000215979
-1.07794e-05
0.000216457
-1.87122e-06
0.000214545
7.5831e-06
0.000210302
1.70096e-05
0.000203773
2.60926e-05
0.000195216
3.42009e-05
0.000184457
4.28597e-05
0.000171865
5.0248e-05
0.000157601
5.69127e-05
0.000141836
6.2971e-05
0.000124779
6.80011e-05
0.00010679
7.18143e-05
8.80653e-05
7.48411e-05
6.87779e-05
7.69474e-05
4.92624e-05
7.79451e-05
2.96542e-05
7.83413e-05
1.02954e-05
7.72882e-05
-8.71686e-06
7.597e-05
-2.71989e-05
7.38108e-05
-4.49949e-05
7.11175e-05
-6.20055e-05
6.79228e-05
-7.7941e-05
6.36898e-05
-9.28093e-05
5.95167e-05
-0.000106579
5.50449e-05
-0.000119185
5.03858e-05
-0.000130688
4.60024e-05
-0.000140897
4.08855e-05
-0.000150026
3.64881e-05
-0.000158081
3.21358e-05
-0.000164879
2.71714e-05
-0.000170567
2.28911e-05
-0.00017539