/*--------------------------------*- C++ -*----------------------------------*\
| =========                 |                                                 |
| \\      /  F ield         | OpenFOAM: The Open Source CFD Toolbox           |
|  \\    /   O peration     | Version:  3.0.1                                 |
|   \\  /    A nd           | Web:      www.OpenFOAM.org                      |
|    \\/     M anipulation  |                                                 |
\*---------------------------------------------------------------------------*/
FoamFile
{
    version     2.0;
    format      ascii;
    class       volScalarField;
    location    "25.8";
    object      p_rgh;
}
// * * * * * * * * * * * * * * * * * * * * * * * * * * * * * * * * * * * * * //

dimensions      [1 -1 -2 0 0 0 0];

internalField   nonuniform List<scalar> 
21420
(
-323.077
-328.894
-333.288
-336.278
-337.827
-337.935
-336.672
-333.972
-329.818
-324.209
-317.099
-308.453
-298.224
-286.362
-272.813
-257.526
-240.45
-221.568
-200.865
-178.331
-153.998
-127.917
-100.141
-70.7844
-40
-7.95363
25.0601
58.8009
93.0791
127.487
161.626
195.137
227.589
258.571
287.652
314.417
338.51
359.586
377.334
391.514
401.929
408.44
410.927
409.036
403.11
393.259
379.58
362.309
341.675
317.966
291.538
262.758
232.014
199.712
166.252
132.045
97.4974
62.9911
29.0045
-3.72745
-35.9719
-67.1469
-96.9891
-125.328
-152.031
-176.997
-200.164
-221.491
-240.968
-258.601
-274.409
-288.419
-300.658
-311.152
-319.933
-327.033
-332.475
-336.305
-338.56
-339.251
-338.201
-335.566
-331.382
-325.654
-318.411
-309.672
-299.43
-287.698
-274.486
-259.79
-243.589
-225.873
-206.63
-185.845
-163.518
-139.66
-114.301
-87.5033
-59.3564
-29.9859
0.450135
31.8288
63.7719
96.0924
128.492
160.648
192.218
222.84
252.143
279.752
305.293
328.403
348.731
365.958
379.791
389.978
396.317
398.596
396.85
390.978
381.06
367.19
349.571
328.458
304.156
277.028
247.479
215.937
182.854
148.687
113.891
78.9037
44.1394
9.98103
-23.2321
-55.2038
-85.6846
-114.475
-141.421
-166.42
-189.404
-210.348
-229.262
-246.176
-261.145
-274.237
-285.539
-295.135
-303.119
-309.579
-314.595
-318.248
-320.616
-321.733
-321.627
-320.378
-317.972
-314.406
-309.666
-303.73
-296.56
-288.118
-278.354
-267.22
-254.667
-240.645
-225.105
-208.006
-189.312
-169.006
-147.077
-123.537
-98.4274
-71.8085
-43.7733
-14.4532
15.981
47.3476
79.3389
111.684
144.051
176.075
207.357
237.478
266.01
292.52
316.583
337.8
355.806
370.282
380.965
387.66
390.2
388.6
382.831
373.023
359.289
341.886
321.106
297.294
270.838
242.161
211.707
179.925
147.265
114.159
81.0112
48.1918
16.0286
-15.1995
-45.2605
-73.9684
-101.184
-126.81
-150.785
-173.077
-193.678
-212.598
-229.859
-245.488
-259.521
-271.992
-282.94
-292.398
-300.399
-306.977
-312.163
-315.983
-318.472
-319.63
-319.458
-318.012
-315.261
-311.2
-305.805
-299.048
-290.891
-281.291
-270.205
-257.59
-243.403
-227.608
-210.174
-191.09
-170.347
-147.963
-123.983
-98.472
-71.5209
-43.2634
-13.861
16.4922
47.9521
79.5205
111.296
142.956
174.153
204.521
233.685
261.262
286.873
310.144
330.723
348.285
362.543
373.254
380.224
383.302
382.471
377.68
369.018
356.58
340.578
321.261
298.922
273.906
246.584
217.348
186.602
154.764
122.247
89.4797
56.8097
25.026
-5.42365
-35.1625
-63.9001
-91.3442
-117.312
-141.656
-164.303
-185.196
-204.325
-221.694
-237.327
-251.259
-263.536
-274.205
-283.323
-290.942
-297.12
-301.904
-305.343
-307.468
-308.289
-307.783
-306.036
-302.987
-298.635
-292.938
-285.845
-277.308
-267.253
-255.621
-242.364
-227.429
-210.793
-192.441
-172.366
-150.613
-127.242
-102.321
-75.966
-48.3301
-19.5723
10.0324
40.0989
70.7867
101.691
132.454
162.771
192.268
220.576
247.374
272.31
295.067
315.341
332.853
347.39
358.765
366.83
371.493
372.604
370.196
364.317
355.048
342.513
326.876
308.333
287.141
263.557
237.908
210.529
181.82
152.314
122.582
93.7128
-323.136
-328.952
-333.344
-336.333
-337.882
-337.989
-336.729
-334.029
-329.876
-324.268
-317.16
-308.517
-298.291
-286.431
-272.885
-257.601
-240.527
-221.648
-200.946
-178.412
-154.08
-127.998
-100.22
-70.8604
-40.071
-8.01746
25.0041
58.7552
93.0464
127.469
161.623
195.151
227.622
258.621
287.722
314.505
338.614
359.706
377.467
391.657
402.08
408.595
411.092
409.188
403.259
393.403
379.714
362.43
341.782
318.056
291.611
262.812
232.05
199.73
166.253
132.031
97.4683
62.9493
28.952
-3.78992
-36.0415
-67.222
-97.0682
-125.41
-152.114
-177.08
-200.247
-221.573
-241.049
-258.68
-274.485
-288.494
-300.732
-311.224
-320.003
-327.102
-332.544
-336.374
-338.628
-339.313
-338.267
-335.632
-331.449
-325.721
-318.479
-309.741
-299.5
-287.77
-274.559
-259.865
-243.666
-225.952
-206.711
-185.928
-163.602
-139.744
-114.385
-87.585
-59.4348
-30.0593
0.384142
31.768
63.7218
96.0535
128.466
160.636
192.221
222.859
252.179
279.805
305.363
328.49
348.834
366.076
379.921
390.118
396.465
398.755
396.999
391.126
381.201
367.322
349.691
328.562
304.242
277.094
247.525
215.964
182.861
148.675
113.862
78.8588
44.0806
9.91031
-23.3126
-55.292
-85.7785
-114.573
-141.521
-166.52
-189.503
-210.446
-229.357
-246.268
-261.233
-274.321
-285.618
-295.211
-303.191
-309.647
-314.661
-318.311
-320.676
-321.79
-321.685
-320.435
-318.029
-314.464
-309.725
-303.791
-296.623
-288.183
-278.422
-267.291
-254.74
-240.72
-225.183
-208.087
-189.395
-169.089
-147.162
-123.622
-98.5111
-71.89
-43.8514
-14.5263
15.9153
47.2896
79.292
111.65
144.032
176.072
207.372
237.512
266.063
292.592
316.674
337.909
355.931
370.42
381.113
387.815
390.363
388.754
382.982
373.166
359.421
342.004
321.207
297.376
270.901
242.204
211.73
179.93
147.253
114.131
80.969
48.1379
15.9651
-15.2706
-45.3371
-74.0486
-101.267
-126.893
-150.868
-173.158
-193.758
-212.676
-229.935
-245.562
-259.593
-272.062
-283.007
-292.464
-300.463
-307.04
-312.224
-316.044
-318.532
-319.687
-319.517
-318.071
-315.321
-311.26
-305.867
-299.112
-290.957
-281.36
-270.276
-257.663
-243.479
-227.686
-210.254
-191.171
-170.429
-148.045
-124.064
-98.5503
-71.5959
-43.3336
-13.9248
16.4342
47.9052
79.4827
111.271
142.945
174.157
204.541
233.721
261.316
286.944
310.232
330.827
348.403
362.674
373.394
380.371
383.459
382.62
377.826
369.158
356.712
340.699
321.367
299.013
273.979
246.64
217.387
186.624
154.769
122.235
89.4529
56.7736
24.9772
-5.48102
-35.227
-63.9712
-91.4202
-117.39
-141.736
-164.383
-185.275
-204.402
-221.769
-237.399
-251.328
-263.603
-274.269
-283.383
-291
-297.175
-301.958
-305.394
-307.519
-308.339
-307.834
-306.087
-303.039
-298.688
-292.993
-285.903
-277.369
-267.317
-255.688
-242.433
-227.501
-210.867
-192.516
-172.441
-150.688
-127.315
-102.391
-76.033
-48.392
-19.6279
9.98461
40.0584
70.7568
101.673
132.449
162.781
192.294
220.616
247.43
272.382
295.152
315.44
332.964
347.51
358.893
366.963
371.628
372.748
370.327
364.446
355.171
342.628
326.981
308.425
287.219
263.621
237.957
210.562
181.838
152.317
122.57
93.6883
-323.255
-329.067
-333.457
-336.443
-337.989
-338.102
-336.843
-334.142
-329.991
-324.388
-317.283
-308.644
-298.424
-286.57
-273.029
-257.751
-240.682
-221.807
-201.108
-178.576
-154.243
-128.16
-100.378
-71.0123
-40.213
-8.14492
24.8923
58.6639
92.9813
127.432
161.618
195.18
227.686
258.723
287.861
314.68
338.823
359.946
377.733
391.944
402.382
408.907
411.418
409.491
403.56
393.691
379.983
362.674
341.996
318.237
291.757
262.921
232.122
199.766
166.255
132.002
97.4102
62.8658
28.8477
-3.9148
-36.1805
-67.3717
-97.2259
-125.573
-152.279
-177.246
-200.412
-221.735
-241.207
-258.835
-274.636
-288.64
-300.874
-311.362
-320.138
-327.234
-332.674
-336.504
-338.754
-339.427
-338.386
-335.752
-331.568
-325.841
-318.6
-309.862
-299.623
-287.894
-274.686
-259.994
-243.798
-226.088
-206.85
-186.07
-163.746
-139.889
-114.528
-87.7246
-59.568
-30.1829
0.274738
31.6692
63.6437
95.9975
128.435
160.633
192.248
222.918
252.27
279.93
305.523
328.682
349.058
366.328
380.198
390.415
396.775
399.086
397.31
391.437
381.499
367.599
349.942
328.781
304.426
277.24
247.631
216.03
182.888
148.665
113.817
78.7827
43.977
9.78327
-23.4589
-55.4533
-85.9506
-114.752
-141.704
-166.703
-189.685
-210.624
-229.528
-246.432
-261.389
-274.47
-285.758
-295.342
-303.314
-309.763
-314.771
-318.416
-320.776
-321.882
-321.779
-320.528
-318.122
-314.558
-309.822
-303.891
-296.727
-288.291
-278.535
-267.409
-254.864
-240.849
-225.318
-208.226
-189.539
-169.236
-147.31
-123.771
-98.6588
-72.0337
-43.9887
-14.6537
15.8019
47.1916
79.2156
111.599
144.009
176.081
207.416
237.593
266.183
292.751
316.87
338.14
356.193
370.709
381.422
388.136
390.701
389.071
383.295
373.463
359.695
342.249
321.418
297.55
271.036
242.299
211.786
179.949
147.236
114.083
80.8935
48.0391
15.8473
-15.4032
-45.4805
-74.1991
-101.421
-127.049
-151.022
-173.31
-193.906
-212.821
-230.075
-245.697
-259.723
-272.188
-283.129
-292.582
-300.578
-307.152
-312.334
-316.152
-318.638
-319.787
-319.621
-318.174
-315.426
-311.367
-305.977
-299.225
-291.074
-281.482
-270.403
-257.795
-243.615
-227.827
-210.399
-191.318
-170.578
-148.194
-124.211
-98.6931
-71.7323
-43.4604
-14.0391
16.3316
47.8237
79.4196
111.233
142.934
174.176
204.592
233.806
261.435
287.097
310.418
331.044
348.649
362.944
373.683
380.674
383.78
382.922
378.124
369.445
356.982
340.944
321.583
299.197
274.13
246.755
217.467
186.668
154.779
122.213
89.4008
56.7028
24.8812
-5.59414
-35.3548
-64.1124
-91.5712
-117.547
-141.895
-164.542
-185.432
-204.555
-221.917
-237.542
-251.466
-263.735
-274.395
-283.504
-291.116
-297.286
-302.065
-305.497
-307.62
-308.436
-307.935
-306.187
-303.141
-298.793
-293.103
-286.019
-277.491
-267.445
-255.821
-242.573
-227.645
-211.015
-192.665
-172.591
-150.837
-127.461
-102.533
-76.1667
-48.5156
-19.739
9.88924
39.9773
70.697
101.638
132.441
162.802
192.345
220.698
247.543
272.524
295.324
315.638
333.185
347.75
359.148
367.229
371.898
373.034
370.592
364.707
355.418
342.857
327.189
308.609
287.376
263.749
238.055
210.629
181.874
152.322
122.546
93.6392
-323.434
-329.24
-333.626
-336.608
-338.151
-338.271
-337.013
-334.313
-330.165
-324.566
-317.468
-308.836
-298.623
-286.778
-273.245
-257.976
-240.914
-222.045
-201.351
-178.821
-154.489
-128.403
-100.616
-71.2402
-40.426
-8.33617
24.7238
58.5267
92.8835
127.378
161.61
195.223
227.783
258.876
288.07
314.943
339.137
360.305
378.132
392.375
402.836
409.373
411.9
409.953
404.014
394.124
380.387
363.041
342.318
318.509
291.976
263.085
232.231
199.821
166.258
131.958
97.3229
62.7404
28.691
-4.10246
-36.3891
-67.5966
-97.4627
-125.818
-152.528
-177.496
-200.659
-221.978
-241.445
-259.067
-274.862
-288.859
-301.087
-311.57
-320.34
-327.431
-332.869
-336.697
-338.942
-339.601
-338.565
-335.931
-331.747
-326.02
-318.779
-310.042
-299.804
-288.078
-274.873
-260.186
-243.994
-226.289
-207.056
-186.28
-163.959
-140.102
-114.74
-87.9306
-59.7646
-30.3646
0.11315
31.5254
63.5301
95.9171
128.392
160.631
192.291
223.008
252.411
280.122
305.765
328.974
349.397
366.71
380.617
390.864
397.243
399.58
397.785
391.909
381.949
368.019
350.322
329.114
304.704
277.462
247.793
216.132
182.931
148.652
113.752
78.6709
43.8238
9.59494
-23.676
-55.693
-86.2066
-115.019
-141.976
-166.976
-189.954
-210.887
-229.783
-246.676
-261.622
-274.69
-285.965
-295.537
-303.497
-309.935
-314.933
-318.57
-320.923
-322.019
-321.919
-320.664
-318.258
-314.696
-309.965
-304.039
-296.881
-288.451
-278.703
-267.585
-255.048
-241.041
-225.518
-208.433
-189.752
-169.454
-147.53
-123.992
-98.8781
-72.2471
-44.1925
-14.8429
15.6336
47.0467
79.103
111.524
143.978
176.098
207.484
237.717
266.365
292.99
317.166
338.489
356.589
371.143
381.886
388.619
391.203
389.555
383.769
373.91
360.108
342.618
321.736
297.813
271.24
242.444
211.872
179.978
147.213
114.012
80.7813
47.892
15.6719
-15.601
-45.6944
-74.4237
-101.652
-127.281
-151.253
-173.537
-194.127
-213.035
-230.282
-245.898
-259.917
-272.376
-283.311
-292.758
-300.749
-307.318
-312.496
-316.311
-318.795
-319.938
-319.776
-318.328
-315.581
-311.525
-306.14
-299.393
-291.249
-281.663
-270.592
-257.991
-243.819
-228.037
-210.615
-191.538
-170.8
-148.417
-124.431
-98.9059
-71.9355
-43.6492
-14.209
16.1791
47.703
79.3261
111.176
142.919
174.206
204.67
233.934
261.614
287.328
310.699
331.372
349.019
363.35
374.119
381.13
384.254
383.383
378.576
369.877
357.387
341.312
321.908
299.474
274.356
246.929
217.588
186.736
154.796
122.179
89.3222
56.5955
24.7378
-5.76333
-35.5465
-64.3244
-91.798
-117.783
-142.134
-164.78
-185.667
-204.784
-222.14
-237.757
-251.673
-263.933
-274.585
-283.686
-291.29
-297.453
-302.225
-305.651
-307.771
-308.584
-308.087
-306.337
-303.294
-298.951
-293.268
-286.192
-277.674
-267.636
-256.022
-242.781
-227.861
-211.236
-192.89
-172.817
-151.061
-127.681
-102.744
-76.3675
-48.7011
-19.9058
9.74577
39.8554
70.6072
101.585
132.429
162.833
192.422
220.821
247.712
272.739
295.581
315.935
333.516
348.111
359.531
367.627
372.303
373.458
370.993
365.098
355.789
343.202
327.502
308.885
287.612
263.942
238.203
210.73
181.927
152.33
122.511
93.5654
-323.672
-329.471
-333.851
-336.828
-338.37
-338.496
-337.238
-334.54
-330.396
-324.804
-317.714
-309.092
-298.89
-287.055
-273.534
-258.275
-241.224
-222.363
-201.675
-179.148
-154.816
-128.727
-100.933
-71.5445
-40.7104
-8.59126
24.4976
58.3435
92.7528
127.305
161.6
195.281
227.913
259.08
288.348
315.293
339.555
360.785
378.665
392.95
403.441
409.996
412.529
410.582
404.624
394.702
380.926
363.529
342.747
318.872
292.267
263.303
232.375
199.893
166.262
131.898
97.2062
62.5729
28.4819
-4.35322
-36.6677
-67.8967
-97.7788
-126.144
-152.859
-177.828
-200.989
-222.303
-241.763
-259.376
-275.163
-289.152
-301.371
-311.846
-320.61
-327.695
-333.129
-336.953
-339.189
-339.84
-338.804
-336.169
-331.984
-326.258
-319.018
-310.283
-300.046
-288.323
-275.123
-260.44
-244.254
-226.557
-207.33
-186.56
-164.243
-140.386
-115.021
-88.2048
-60.0261
-30.6066
-0.102618
31.3351
63.3793
95.8104
128.335
160.629
192.349
223.13
252.599
280.378
306.089
329.364
349.85
367.22
381.177
391.463
397.869
400.229
398.429
392.541
382.551
368.58
350.83
329.558
305.077
277.758
248.01
216.268
182.988
148.635
113.666
78.5218
43.6196
9.34388
-23.9655
-56.0125
-86.5479
-115.374
-142.339
-167.339
-190.314
-211.239
-230.123
-247.001
-261.931
-274.983
-286.24
-295.796
-303.74
-310.163
-315.148
-318.774
-321.116
-322.204
-322.103
-320.846
-318.439
-314.881
-310.155
-304.236
-297.085
-288.665
-278.927
-267.82
-255.293
-241.297
-225.784
-208.709
-190.036
-169.744
-147.824
-124.288
-99.1706
-72.5318
-44.4644
-15.0954
15.4085
46.8537
78.9528
111.424
143.935
176.119
207.576
237.883
266.608
293.31
317.561
338.954
357.117
371.723
382.506
389.264
391.861
390.211
384.405
374.509
360.66
343.111
322.161
298.163
271.512
242.636
211.986
180.016
147.182
113.917
80.6315
47.6956
15.4377
-15.8649
-45.9798
-74.7233
-101.959
-127.59
-151.56
-173.839
-194.422
-213.322
-230.559
-246.165
-260.176
-272.626
-283.552
-292.992
-300.976
-307.539
-312.712
-316.523
-319.001
-320.141
-319.981
-318.532
-315.788
-311.736
-306.357
-299.618
-291.482
-281.906
-270.844
-258.252
-244.09
-228.317
-210.902
-191.831
-171.096
-148.714
-124.724
-99.1899
-72.2064
-43.901
-14.4353
15.9766
47.5412
79.201
111.102
142.9
174.246
204.774
234.105
261.854
287.636
311.074
331.809
349.514
363.893
374.699
381.737
384.874
384.006
379.183
370.455
357.927
341.804
322.341
299.843
274.657
247.16
217.748
186.826
154.817
122.133
89.2162
56.4496
24.5483
-5.98811
-35.8024
-64.6074
-92.1008
-118.097
-142.453
-165.099
-185.981
-205.091
-222.437
-238.044
-251.948
-264.197
-274.837
-283.928
-291.522
-297.675
-302.438
-305.856
-307.97
-308.782
-308.289
-306.536
-303.497
-299.162
-293.489
-286.423
-277.917
-267.892
-256.29
-243.059
-228.149
-211.531
-193.189
-173.118
-151.36
-127.974
-103.027
-76.6355
-48.9488
-20.1284
9.55361
39.6926
70.4871
101.514
132.412
162.874
192.524
220.984
247.937
273.024
295.924
316.331
333.958
348.591
360.042
368.159
372.844
374.015
371.535
365.619
356.284
343.661
327.919
309.254
287.927
264.199
238.399
210.864
181.999
152.34
122.462
93.4665
-323.97
-329.76
-334.133
-337.103
-338.645
-338.776
-337.518
-334.823
-330.686
-325.101
-318.021
-309.411
-299.222
-287.401
-273.895
-258.65
-241.61
-222.76
-202.08
-179.558
-155.226
-129.133
-101.329
-71.9255
-41.0665
-8.91063
24.2133
58.1141
92.5889
127.213
161.586
195.352
228.074
259.334
288.696
315.732
340.078
361.385
379.331
393.669
404.199
410.775
413.31
411.371
405.389
395.428
381.6
364.14
343.283
319.325
292.632
263.575
232.555
199.982
166.266
131.824
97.0597
62.363
28.2198
-4.66743
-37.0164
-68.2723
-98.1745
-126.553
-153.274
-178.244
-201.401
-222.709
-242.16
-259.763
-275.539
-289.517
-301.726
-312.192
-320.947
-328.024
-333.453
-337.271
-339.496
-340.142
-339.104
-336.468
-332.282
-326.557
-319.316
-310.582
-300.349
-288.63
-275.435
-260.758
-244.58
-226.892
-207.672
-186.91
-164.597
-140.742
-115.373
-88.5478
-60.3534
-30.9098
-0.37369
31.0977
63.1905
95.6767
128.263
160.627
192.421
223.282
252.834
280.698
306.494
329.852
350.416
367.859
381.878
392.214
398.654
401.033
399.241
393.332
383.305
369.283
351.466
330.113
305.543
278.128
248.28
216.438
183.06
148.614
113.557
78.3347
43.3637
9.02925
-24.3282
-56.4127
-86.9753
-115.819
-142.793
-167.794
-190.764
-211.678
-230.548
-247.409
-262.318
-275.349
-286.585
-296.12
-304.044
-310.449
-315.418
-319.03
-321.357
-322.438
-322.333
-321.072
-318.666
-315.112
-310.392
-304.481
-297.341
-288.932
-279.206
-268.113
-255.599
-241.617
-226.117
-209.053
-190.392
-170.107
-148.192
-124.657
-99.5366
-72.8884
-44.8049
-15.412
15.1255
46.6124
78.7646
111.298
143.882
176.146
207.689
238.09
266.911
293.71
318.055
339.536
357.777
372.449
383.282
390.072
392.681
391.034
385.201
375.258
361.35
343.727
322.693
298.602
271.852
242.877
212.128
180.064
147.142
113.799
80.4435
47.4495
15.1441
-16.1954
-46.3373
-75.0983
-102.343
-127.978
-151.945
-174.217
-194.791
-213.68
-230.906
-246.5
-260.499
-272.938
-283.855
-293.285
-301.261
-307.816
-312.982
-316.787
-319.258
-320.398
-320.236
-318.788
-316.046
-312
-306.628
-299.898
-291.773
-282.208
-271.159
-258.58
-244.429
-228.667
-211.262
-192.198
-171.467
-149.085
-125.09
-99.5456
-72.5458
-44.2165
-14.7183
15.7369
47.324
79.0435
111.007
142.875
174.296
204.903
234.318
262.153
288.021
311.542
332.356
350.132
364.571
375.426
382.497
385.648
384.786
379.944
371.179
358.603
342.418
322.883
300.305
275.033
247.448
217.949
186.938
154.843
122.076
89.0819
56.2617
24.315
-6.26786
-36.1228
-64.962
-92.4799
-118.49
-142.852
-165.497
-186.374
-205.474
-222.809
-238.402
-252.293
-264.527
-275.154
-284.23
-291.811
-297.952
-302.705
-306.113
-308.219
-309.029
-308.54
-306.785
-303.752
-299.425
-293.764
-286.712
-278.221
-268.211
-256.624
-243.408
-228.509
-211.901
-193.564
-173.494
-151.734
-128.34
-103.381
-76.9709
-49.2588
-20.407
9.31221
39.4886
70.3366
101.425
132.39
162.925
192.651
221.189
248.218
273.381
296.353
316.826
334.512
349.193
360.681
368.825
373.523
374.704
372.215
366.271
356.904
344.236
328.441
309.715
288.32
264.52
238.645
211.031
182.088
152.352
122.402
93.3423
-324.327
-330.106
-334.471
-337.434
-338.975
-339.11
-337.853
-335.163
-331.033
-325.457
-318.39
-309.794
-299.621
-287.817
-274.328
-259.1
-242.075
-223.237
-202.566
-180.049
-155.718
-129.621
-101.806
-72.3835
-41.495
-9.29604
23.8712
57.8383
92.3915
127.102
161.569
195.436
228.266
259.638
289.113
316.258
340.706
362.106
380.131
394.533
405.109
411.712
414.251
412.316
406.306
396.3
382.41
364.874
343.927
319.868
293.069
263.902
232.771
200.089
166.27
131.733
96.8832
62.1103
27.904
-5.04545
-37.4357
-68.7239
-98.6501
-127.043
-153.773
-178.743
-201.897
-223.196
-242.637
-260.228
-275.991
-289.956
-302.152
-312.607
-321.351
-328.419
-333.84
-337.651
-339.867
-340.506
-339.465
-336.826
-332.639
-326.915
-319.675
-310.942
-300.712
-288.998
-275.809
-261.14
-244.971
-227.293
-208.083
-187.33
-165.023
-141.169
-115.797
-88.9603
-60.7469
-31.2748
-0.700684
30.8126
62.9631
95.5154
128.177
160.623
192.507
223.464
253.116
281.082
306.98
330.437
351.096
368.625
382.719
393.116
399.597
401.999
400.217
394.282
384.212
370.126
352.229
330.781
306.102
278.572
248.604
216.641
183.145
148.587
113.426
78.109
43.0555
8.65047
-24.7646
-56.8939
-87.4893
-116.354
-143.339
-168.341
-191.304
-212.206
-231.059
-247.898
-262.783
-275.789
-286.999
-296.509
-304.409
-310.791
-315.741
-319.336
-321.647
-322.719
-322.608
-321.344
-318.938
-315.389
-310.677
-304.776
-297.649
-289.253
-279.542
-268.465
-255.967
-242.001
-226.517
-209.467
-190.819
-170.543
-148.634
-125.101
-99.9764
-73.3172
-45.2147
-15.7931
14.7837
46.3224
78.5377
111.146
143.816
176.176
207.825
238.337
267.274
294.19
318.648
340.234
358.57
373.322
384.215
391.043
393.669
392.021
386.157
376.159
362.179
344.468
323.331
299.128
272.26
243.165
212.297
180.121
147.093
113.655
80.2167
47.1529
14.7907
-16.5932
-46.7672
-75.5491
-102.805
-128.443
-152.407
-174.671
-195.234
-214.109
-231.322
-246.902
-260.887
-273.313
-284.218
-293.636
-301.602
-308.149
-313.306
-317.104
-319.568
-320.705
-320.543
-319.095
-316.357
-312.316
-306.953
-300.234
-292.122
-282.572
-271.537
-258.972
-244.836
-229.087
-211.694
-192.639
-171.912
-149.531
-125.53
-99.9733
-72.9539
-44.596
-15.0586
15.4601
47.0508
78.8532
110.894
142.844
174.355
205.058
234.573
262.511
288.482
312.104
333.013
350.874
365.387
376.299
383.409
386.578
385.72
380.858
372.049
359.415
343.156
323.534
300.859
275.485
247.794
218.189
187.073
154.874
122.006
88.9183
56.029
24.0396
-6.60212
-36.5077
-65.3886
-92.9357
-118.963
-143.332
-165.976
-186.846
-205.934
-223.255
-238.832
-252.706
-264.924
-275.533
-284.593
-292.158
-298.285
-303.025
-306.421
-308.517
-309.327
-308.838
-307.084
-304.057
-299.74
-294.094
-287.058
-278.586
-268.595
-257.026
-243.825
-228.941
-212.344
-194.014
-173.946
-152.183
-128.78
-103.806
-77.374
-49.6317
-20.7419
9.02106
39.2428
70.1551
101.317
132.364
162.986
192.804
221.434
248.556
273.81
296.867
317.421
335.176
349.915
361.449
369.625
374.339
375.527
373.032
367.055
357.648
344.926
329.067
310.268
288.792
264.905
238.94
211.231
182.194
152.367
122.328
93.1924
-324.744
-330.511
-334.866
-337.82
-339.36
-339.499
-338.244
-335.559
-331.438
-325.872
-318.82
-310.241
-300.087
-288.302
-274.833
-259.624
-242.617
-223.795
-203.134
-180.623
-156.293
-130.19
-102.363
-72.9191
-41.9966
-9.749
23.4718
57.5156
92.1601
126.971
161.548
195.534
228.49
259.993
289.6
316.871
341.439
362.947
381.066
395.542
406.173
412.807
415.355
413.418
407.378
397.319
383.356
365.731
344.678
320.503
293.578
264.282
233.021
200.213
166.274
131.625
96.676
61.8144
27.534
-5.48766
-37.926
-69.2518
-99.206
-127.617
-154.355
-179.327
-202.475
-223.765
-243.194
-260.77
-276.518
-290.469
-302.65
-313.091
-321.823
-328.88
-334.292
-338.093
-340.299
-340.932
-339.886
-337.244
-333.055
-327.333
-320.093
-311.362
-301.135
-289.427
-276.247
-261.585
-245.427
-227.762
-208.564
-187.82
-165.52
-141.669
-116.291
-89.4427
-61.207
-31.702
-1.08411
30.4792
62.6967
95.326
128.075
160.617
192.607
223.676
253.444
281.529
307.547
331.12
351.89
369.52
383.702
394.169
400.699
403.128
401.354
395.392
385.271
371.112
353.121
331.559
306.755
279.09
248.982
216.877
183.244
148.554
113.271
77.844
42.6941
8.20694
-25.2755
-57.457
-88.0906
-116.979
-143.976
-168.981
-191.936
-212.823
-231.655
-248.469
-263.326
-276.302
-287.482
-296.963
-304.835
-311.191
-316.118
-319.693
-321.986
-323.046
-322.928
-321.661
-319.256
-315.712
-311.01
-305.12
-298.007
-289.627
-279.934
-268.875
-256.397
-242.449
-226.983
-209.951
-191.317
-171.053
-149.151
-125.62
-100.49
-73.8187
-45.6942
-16.2392
14.3834
45.9823
78.2717
110.967
143.738
176.21
207.982
238.624
267.697
294.749
319.34
341.05
359.496
374.34
385.304
392.178
394.823
393.172
387.273
377.212
363.148
345.333
324.076
299.741
272.735
243.5
212.494
180.185
147.034
113.485
79.9505
46.8052
14.3766
-17.0588
-47.2701
-76.0764
-103.346
-128.987
-152.946
-175.202
-195.751
-214.611
-231.807
-247.371
-261.34
-273.751
-284.641
-294.046
-302
-308.536
-313.684
-317.474
-319.93
-321.064
-320.9
-319.453
-316.718
-312.685
-307.332
-300.627
-292.53
-282.996
-271.978
-259.431
-245.311
-229.578
-212.199
-193.154
-172.433
-150.052
-126.045
-100.473
-73.4311
-45.0402
-15.4573
15.1302
46.7365
78.6303
110.76
142.806
174.422
205.238
234.87
262.929
289.02
312.76
333.78
351.741
366.339
377.318
384.475
387.666
386.811
381.925
373.067
360.364
344.018
324.294
301.505
276.012
248.197
218.468
187.229
154.909
121.924
88.7243
55.7512
23.7213
-6.99065
-36.9577
-65.8877
-93.4688
-119.516
-143.892
-166.535
-187.396
-206.472
-223.776
-239.334
-253.188
-265.386
-275.975
-285.016
-292.564
-298.674
-303.398
-306.781
-308.867
-309.674
-309.185
-307.431
-304.412
-300.108
-294.479
-287.462
-279.011
-269.042
-257.495
-244.313
-229.446
-212.862
-194.539
-174.474
-152.708
-129.295
-104.303
-77.8451
-50.0677
-21.1332
8.67955
38.9546
69.9423
101.19
132.332
163.057
192.981
221.719
248.95
274.31
297.468
318.115
335.952
350.759
362.346
370.559
375.292
376.488
373.982
367.969
358.516
345.732
329.798
310.915
289.343
265.355
239.283
211.464
182.317
152.382
122.241
93.0162
-325.22
-330.973
-335.317
-338.263
-339.8
-339.942
-338.69
-336.011
-331.9
-326.346
-319.312
-310.752
-300.619
-288.857
-275.411
-260.224
-243.237
-224.432
-203.784
-181.28
-156.951
-130.843
-103.001
-73.5328
-42.5719
-10.2707
23.0144
57.1458
91.8942
126.82
161.522
195.644
228.745
260.397
290.155
317.573
342.277
363.91
382.135
396.697
407.39
414.061
416.619
414.678
408.604
398.486
384.439
366.71
345.538
321.228
294.16
264.716
233.307
200.353
166.276
131.501
96.4375
61.4747
27.1088
-5.99454
-38.4877
-69.8566
-99.8426
-128.273
-155.021
-179.994
-203.137
-224.416
-243.83
-261.39
-277.12
-291.054
-303.218
-313.644
-322.362
-329.406
-334.807
-338.597
-340.794
-341.42
-340.367
-337.722
-333.531
-327.81
-320.571
-311.842
-301.618
-289.918
-276.746
-262.093
-245.949
-228.297
-209.113
-188.381
-166.09
-142.24
-116.858
-89.9954
-61.7341
-32.1921
-1.52446
30.0968
62.3907
95.108
127.956
160.61
192.719
223.916
253.818
282.04
308.194
331.901
352.798
370.544
384.827
395.374
401.962
404.422
402.654
396.663
386.484
372.241
354.141
332.451
307.502
279.682
249.412
217.146
183.355
148.514
113.092
77.5392
42.2788
7.69782
-25.8616
-58.1026
-88.7797
-117.696
-144.707
-169.712
-192.659
-213.529
-232.337
-249.122
-263.947
-276.889
-288.035
-297.482
-305.322
-311.648
-316.549
-320.1
-322.373
-323.421
-323.294
-322.023
-319.619
-316.082
-311.389
-305.513
-298.416
-290.055
-280.382
-269.345
-256.888
-242.962
-227.517
-210.504
-191.888
-171.637
-149.743
-126.214
-101.079
-74.3934
-46.244
-16.7511
13.9243
45.5915
77.9656
110.761
143.646
176.248
208.16
238.952
268.179
295.388
320.131
341.983
360.556
375.506
386.551
393.477
396.143
394.489
388.55
378.417
364.257
346.322
324.928
300.442
273.278
243.882
212.717
180.257
146.966
113.29
79.644
46.4058
13.9014
-17.5928
-47.8467
-76.6805
-103.965
-129.609
-153.564
-175.808
-196.342
-215.185
-232.362
-247.907
-261.858
-274.251
-285.125
-294.515
-302.455
-308.979
-314.117
-317.897
-320.343
-321.473
-321.308
-319.861
-317.131
-313.107
-307.766
-301.075
-292.996
-283.48
-272.482
-259.955
-245.855
-230.139
-212.776
-193.743
-173.029
-150.648
-126.634
-101.046
-73.9781
-45.5495
-15.9155
14.7444
46.3831
78.3747
110.605
142.762
174.498
205.442
235.208
263.405
289.635
313.51
334.656
352.733
367.428
378.485
385.695
388.913
388.059
383.146
374.232
361.449
345.004
325.163
302.245
276.614
248.657
218.787
187.407
154.949
121.828
88.4987
55.4271
23.3598
-7.43337
-37.4733
-66.46
-94.0799
-120.149
-144.534
-167.175
-188.026
-207.086
-224.371
-239.908
-253.74
-265.914
-276.481
-285.5
-293.027
-299.117
-303.825
-307.193
-309.267
-310.07
-309.579
-307.828
-304.818
-300.529
-294.919
-287.924
-279.497
-269.554
-258.031
-244.871
-230.024
-213.454
-195.14
-175.079
-153.309
-129.884
-104.872
-78.3847
-50.5673
-21.581
8.28694
38.6237
69.6976
101.044
132.295
163.137
193.183
222.044
249.399
274.881
298.156
318.909
336.839
351.724
363.373
371.628
376.384
377.586
375.067
369.016
359.51
346.654
330.635
311.654
289.973
265.869
239.675
211.73
182.457
152.399
122.141
92.8133
-325.755
-331.492
-335.824
-338.761
-340.295
-340.439
-339.191
-336.517
-332.419
-326.879
-319.864
-311.326
-301.218
-289.48
-276.062
-260.898
-243.935
-225.15
-204.515
-182.02
-157.693
-131.578
-103.721
-74.2252
-43.2221
-10.8621
22.4984
56.7281
91.5931
126.648
161.491
195.767
229.03
260.852
290.78
318.362
343.221
364.994
383.339
397.998
408.761
415.474
418.045
416.097
409.985
399.8
385.659
367.814
346.506
322.044
294.815
265.203
233.627
200.509
166.277
131.358
96.1667
61.0907
26.6275
-6.56659
-39.1215
-70.5389
-100.561
-129.014
-155.772
-180.746
-203.882
-225.149
-244.546
-262.088
-277.798
-291.712
-303.858
-314.266
-322.969
-329.998
-335.387
-339.164
-341.35
-341.969
-340.908
-338.261
-334.067
-328.347
-321.109
-312.381
-302.162
-290.469
-277.307
-262.665
-246.536
-228.9
-209.731
-189.013
-166.731
-142.884
-117.497
-90.6187
-62.329
-32.7458
-2.0225
29.6649
62.0443
94.8608
127.821
160.599
192.844
224.185
254.238
282.613
308.922
332.78
353.82
371.697
386.093
396.732
403.385
405.881
404.119
398.095
387.851
373.512
355.29
333.454
308.343
280.348
249.896
217.447
183.478
148.468
112.889
77.1936
41.8089
7.12223
-26.5239
-58.8316
-89.5572
-118.505
-145.531
-170.538
-193.474
-214.324
-233.104
-249.857
-264.646
-277.55
-288.656
-298.065
-305.869
-312.161
-317.033
-320.558
-322.809
-323.841
-323.704
-322.429
-320.027
-316.497
-311.816
-305.955
-298.877
-290.537
-280.887
-269.873
-257.44
-243.54
-228.118
-211.127
-192.53
-172.294
-150.409
-126.883
-101.743
-75.0418
-46.8646
-17.3292
13.4057
45.1492
77.6187
110.527
143.541
176.287
208.358
239.319
268.721
296.106
321.021
343.034
361.75
376.82
387.956
394.942
397.632
395.973
389.989
379.775
365.506
347.436
325.887
301.231
273.888
244.311
212.967
180.336
146.886
113.067
79.2964
45.9539
13.3642
-18.1961
-48.4975
-77.3621
-104.662
-130.311
-154.26
-176.492
-197.008
-215.83
-232.986
-248.51
-262.44
-274.814
-285.669
-295.043
-302.967
-309.478
-314.603
-318.372
-320.809
-321.934
-321.766
-320.32
-317.596
-313.581
-308.254
-301.58
-293.52
-284.026
-273.05
-260.545
-246.466
-230.771
-213.427