/*--------------------------------*- C++ -*----------------------------------*\
| =========                 |                                                 |
| \\      /  F ield         | OpenFOAM: The Open Source CFD Toolbox           |
|  \\    /   O peration     | Version:  3.0.1                                 |
|   \\  /    A nd           | Web:      www.OpenFOAM.org                      |
|    \\/     M anipulation  |                                                 |
\*---------------------------------------------------------------------------*/
FoamFile
{
    version     2.0;
    format      ascii;
    class       volVectorField;
    location    "9.4";
    object      U;
}
// * * * * * * * * * * * * * * * * * * * * * * * * * * * * * * * * * * * * * //

dimensions      [0 1 -1 0 0 0 0];

internalField   nonuniform List<vector> 
21420
(
(-0.143834 -0.000761605 0)
(-0.136997 -0.000856194 0)
(-0.127908 -0.000946929 0)
(-0.117876 -0.00103872 0)
(-0.106873 -0.00114197 0)
(-0.0948889 -0.00123514 0)
(-0.0819208 -0.00134162 0)
(-0.0679808 -0.00143123 0)
(-0.0531 -0.00151513 0)
(-0.0373106 -0.00161517 0)
(-0.0205474 -0.00168531 0)
(-0.0031846 -0.00174384 0)
(0.0146531 -0.00181903 0)
(0.0331274 -0.00184725 0)
(0.0519308 -0.00189213 0)
(0.0708735 -0.00188247 0)
(0.0897279 -0.00184848 0)
(0.108256 -0.00182641 0)
(0.126221 -0.0017451 0)
(0.14335 -0.00163816 0)
(0.159376 -0.00153252 0)
(0.174049 -0.00137808 0)
(0.187118 -0.00120237 0)
(0.198348 -0.00101633 0)
(0.207538 -0.000802337 0)
(0.214527 -0.000575425 0)
(0.219191 -0.00033633 0)
(0.221468 -9.50898e-05 0)
(0.221327 0.000147492 0)
(0.218586 0.000396673 0)
(0.213369 0.000640945 0)
(0.20587 0.000853121 0)
(0.196204 0.00106623 0)
(0.184561 0.00123521 0)
(0.171173 0.00140309 0)
(0.156261 0.00155231 0)
(0.140076 0.00164318 0)
(0.12289 0.0017373 0)
(0.104937 0.0018097 0)
(0.0864555 0.00182813 0)
(0.0676572 0.00185343 0)
(0.0487502 0.00183348 0)
(0.0299171 0.00181975 0)
(0.0116894 0.00178504 0)
(-0.00566828 0.00173097 0)
(-0.0225895 0.00167834 0)
(-0.0390767 0.00161318 0)
(-0.054858 0.00152842 0)
(-0.0698497 0.00144889 0)
(-0.0839817 0.0013612 0)
(-0.0972045 0.00126424 0)
(-0.109493 0.00117106 0)
(-0.120831 0.00107199 0)
(-0.13121 0.000977122 0)
(-0.140624 0.000880368 0)
(-0.149094 0.000784337 0)
(-0.156634 0.00069228 0)
(-0.163224 0.000597345 0)
(-0.168887 0.00050471 0)
(-0.173625 0.000415297 0)
(-0.177463 0.000321321 0)
(-0.180451 0.000235974 0)
(-0.182501 0.000148808 0)
(-0.183615 5.95439e-05 0)
(-0.183904 -1.88953e-05 0)
(-0.183248 -0.000106457 0)
(-0.181691 -0.000197602 0)
(-0.179305 -0.00027412 0)
(-0.176075 -0.000364769 0)
(-0.172024 -0.000438802 0)
(-0.167218 -0.000511794 0)
(-0.161639 -0.000590932 0)
(-0.15532 -0.000661599 0)
(-0.148315 -0.000724621 0)
(-0.140632 -0.000797948 0)
(-0.132295 -0.000858758 0)
(-0.123329 -0.000925485 0)
(-0.113712 -0.000986622 0)
(-0.103482 -0.00104314 0)
(-0.0926613 -0.00110572 0)
(-0.081212 -0.00116645 0)
(-0.069153 -0.00122376 0)
(-0.056495 -0.00128733 0)
(-0.0431986 -0.00135534 0)
(-0.02922 -0.00141588 0)
(-0.014576 -0.00148421 0)
(0.000747561 -0.0015515 0)
(0.0167236 -0.0016168 0)
(0.0332684 -0.00167467 0)
(0.0503324 -0.00171546 0)
(0.0677982 -0.00174109 0)
(0.0854165 -0.0017538 0)
(0.103007 -0.00173064 0)
(0.120282 -0.00168912 0)
(0.136988 -0.00162008 0)
(0.152796 -0.00151374 0)
(0.167389 -0.00137937 0)
(0.180485 -0.00121606 0)
(0.191796 -0.00102596 0)
(0.201084 -0.000806706 0)
(0.208099 -0.000580569 0)
(0.212722 -0.00033567 0)
(0.214797 -8.47353e-05 0)
(0.214363 0.000164697 0)
(0.211291 0.000427201 0)
(0.205755 0.000671148 0)
(0.197872 0.000895151 0)
(0.187798 0.00110045 0)
(0.175771 0.00128176 0)
(0.162042 0.00143776 0)
(0.146908 0.00156137 0)
(0.130684 0.00165623 0)
(0.113655 0.00171888 0)
(0.0961412 0.00175291 0)
(0.0784306 0.00175884 0)
(0.0607881 0.00174139 0)
(0.0434442 0.0017018 0)
(0.0265867 0.00164306 0)
(0.0103915 0.00156826 0)
(-0.00501012 0.00148854 0)
(-0.0195419 0.00139735 0)
(-0.0331333 0.00130161 0)
(-0.0457582 0.0012016 0)
(-0.0573918 0.00110576 0)
(-0.0680153 0.00100777 0)
(-0.07767 0.000908897 0)
(-0.0863808 0.00081835 0)
(-0.0941596 0.000727636 0)
(-0.101064 0.0006418 0)
(-0.10712 0.000559473 0)
(-0.112371 0.000481904 0)
(-0.116851 0.000406682 0)
(-0.120598 0.000334616 0)
(-0.123643 0.00026707 0)
(-0.126 0.000203087 0)
(-0.127702 0.000137062 0)
(-0.128761 7.62465e-05 0)
(-0.129229 1.76299e-05 0)
(-0.129085 -4.45241e-05 0)
(-0.12832 -0.000105823 0)
(-0.126959 -0.000165164 0)
(-0.125003 -0.000225902 0)
(-0.122427 -0.000284047 0)
(-0.119236 -0.000348707 0)
(-0.11543 -0.000407439 0)
(-0.110975 -0.000471161 0)
(-0.105895 -0.000534083 0)
(-0.100179 -0.000599255 0)
(-0.09382 -0.000662858 0)
(-0.0868256 -0.000725911 0)
(-0.0792105 -0.000787693 0)
(-0.0709608 -0.000847151 0)
(-0.0621038 -0.000906136 0)
(-0.0526888 -0.000962075 0)
(-0.0427207 -0.00101246 0)
(-0.0322689 -0.00106121 0)
(-0.0213659 -0.00110433 0)
(-0.0100606 -0.00113626 0)
(0.00155736 -0.00116373 0)
(0.0133962 -0.00118292 0)
(0.0253664 -0.00119123 0)
(0.0373725 -0.00118949 0)
(0.0493034 -0.00117393 0)
(0.0610247 -0.00114899 0)
(0.0724225 -0.00111077 0)
(0.0833608 -0.00105894 0)
(0.0937136 -0.000993887 0)
(0.103353 -0.000917002 0)
(0.112156 -0.000827714 0)
(0.120008 -0.000728891 0)
(0.12681 -0.000617897 0)
(0.132465 -0.000501955 0)
(0.136908 -0.00038002 0)
(0.140089 -0.000252033 0)
(0.141977 -0.000122554 0)
(0.142559 4.65624e-06 0)
(0.141872 0.00013161 0)
(0.139886 0.000255779 0)
(0.136715 0.000371684 0)
(0.13241 0.00047992 0)
(0.127057 0.000578742 0)
(0.120758 0.000665676 0)
(0.113629 0.000744286 0)
(0.105793 0.000808817 0)
(0.0973757 0.000861527 0)
(0.0885063 0.000900156 0)
(0.0793124 0.000924918 0)
(0.0699244 0.000937714 0)
(0.0604646 0.000939059 0)
(0.0510463 0.000929256 0)
(0.0417746 0.000909866 0)
(0.0327433 0.000881629 0)
(0.0240347 0.000845968 0)
(0.0157191 0.000803684 0)
(0.00785768 0.000756267 0)
(0.000508822 0.000704661 0)
(-0.00630834 0.000649622 0)
(-0.012572 0.000593012 0)
(-0.0182518 0.000534605 0)
(-0.0233428 0.000475595 0)
(-0.0278378 0.000416769 0)
(-0.0317409 0.000358184 0)
(-0.0350626 0.000300798 0)
(-0.0378085 0.000245327 0)
(-0.0400058 0.000190902 0)
(-0.0416742 0.000139183 0)
(-0.0428275 8.95828e-05 0)
(-0.0434932 4.3271e-05 0)
(-0.0437058 -8.93595e-07 0)
(-0.0434861 -4.25859e-05 0)
(-0.0428624 -8.08514e-05 0)
(-0.0418591 -0.000116657 0)
(-0.0405155 -0.000149869 0)
(-0.0388577 -0.000180063 0)
(-0.0369043 -0.000207391 0)
(-0.034688 -0.000231876 0)
(-0.0322387 -0.00025377 0)
(-0.0295836 -0.00027284 0)
(-0.0267491 -0.000289256 0)
(-0.0237584 -0.000302982 0)
(-0.0206475 -0.000314279 0)
(-0.01744 -0.000322773 0)
(-0.0141528 -0.000328903 0)
(-0.0108177 -0.000332594 0)
(-0.0074569 -0.000333874 0)
(-0.00409514 -0.000333089 0)
(-0.000753376 -0.000329674 0)
(0.0025462 -0.000324516 0)
(0.00578247 -0.000317451 0)
(0.00893774 -0.000308236 0)
(0.0119924 -0.000297463 0)
(0.0149294 -0.00028507 0)
(0.0177342 -0.000271334 0)
(0.020394 -0.000256 0)
(0.0228934 -0.000239867 0)
(0.0252242 -0.000222427 0)
(0.0273776 -0.000204346 0)
(0.0293437 -0.000185739 0)
(0.0311194 -0.000166364 0)
(0.032699 -0.000146847 0)
(0.0340802 -0.000127273 0)
(0.0352639 -0.000107407 0)
(0.0362486 -8.8067e-05 0)
(0.0370388 -6.86434e-05 0)
(0.0376372 -5.00319e-05 0)
(0.0380494 -3.18004e-05 0)
(0.0382828 -1.43508e-05 0)
(0.0383433 2.12494e-06 0)
(0.0382419 1.80309e-05 0)
(0.0379841 3.2729e-05 0)
(0.0375835 4.67163e-05 0)
(0.0370486 5.93319e-05 0)
(0.0363905 7.11572e-05 0)
(0.03562 8.16252e-05 0)
(0.0347482 9.121e-05 0)
(0.033787 9.95073e-05 0)
(0.0327469 0.000106696 0)
(0.0316403 0.000112853 0)
(0.0304766 0.000117759 0)
(0.0292682 0.00012193 0)
(0.028024 0.000124827 0)
(0.0267547 0.00012687 0)
(0.0254701 0.000128052 0)
(0.0241768 0.000128284 0)
(0.0228851 0.000127931 0)
(0.0216021 0.000126741 0)
(0.020333 0.000124876 0)
(0.0190858 0.00012258 0)
(0.0178655 0.000119694 0)
(0.0166759 0.000116357 0)
(0.0155217 0.000112604 0)
(0.0144071 0.000108651 0)
(0.0133345 0.000104374 0)
(0.0123059 9.98743e-05 0)
(0.0113234 9.52273e-05 0)
(0.0103883 9.04733e-05 0)
(0.00950156 8.56546e-05 0)
(0.00866362 8.08121e-05 0)
(0.00787456 7.59771e-05 0)
(0.00713411 7.11784e-05 0)
(0.00644169 6.64488e-05 0)
(0.00579631 6.18057e-05 0)
(0.00519718 5.73177e-05 0)
(0.0046429 5.29125e-05 0)
(0.00413198 4.86908e-05 0)
(0.00366293 4.46151e-05 0)
(0.003234 4.07207e-05 0)
(0.00284341 3.70045e-05 0)
(0.00248915 3.34804e-05 0)
(0.00216943 3.01455e-05 0)
(0.00188227 2.7003e-05 0)
(0.00162572 2.40614e-05 0)
(0.00139784 2.13077e-05 0)
(0.00119666 1.87471e-05 0)
(0.00102032 1.63714e-05 0)
(0.00086694 1.41752e-05 0)
(0.000734709 1.21627e-05 0)
(0.000621905 1.03146e-05 0)
(0.000526807 8.63356e-06 0)
(0.000447829 7.10584e-06 0)
(0.000383423 5.72562e-06 0)
(0.000332116 4.49243e-06 0)
(0.000292546 3.38454e-06 0)
(0.000263353 2.41276e-06 0)
(0.000243351 1.54855e-06 0)
(0.000231354 7.94284e-07 0)
(0.000226394 1.44039e-07 0)
(0.000227665 -4.05526e-07 0)
(0.00023416 -8.70436e-07 0)
(0.000244966 -1.25691e-06 0)
(0.000259308 -1.57153e-06 0)
(0.000276487 -1.82072e-06 0)
(0.000295867 -2.01047e-06 0)
(0.000316879 -2.14666e-06 0)
(0.00033901 -2.2349e-06 0)
(0.000361804 -2.28039e-06 0)
(0.000384857 -2.28821e-06 0)
(0.000407813 -2.26299e-06 0)
(0.000430363 -2.2091e-06 0)
(0.00045224 -2.13064e-06 0)
(0.000473216 -2.03128e-06 0)
(0.000493101 -1.91454e-06 0)
(0.000511736 -1.78363e-06 0)
(0.000528993 -1.64146e-06 0)
(0.000544773 -1.49069e-06 0)
(0.000559003 -1.33364e-06 0)
(0.00057163 -1.17246e-06 0)
(0.000582623 -1.00896e-06 0)
(0.000591965 -8.44746e-07 0)
(0.000599658 -6.81277e-07 0)
(0.000605718 -5.1987e-07 0)
(0.000610178 -3.61729e-07 0)
(0.000613094 -2.07596e-07 0)
(0.000614569 -5.88323e-08 0)
(0.00061457 8.41557e-08 0)
(0.000613084 2.20167e-07 0)
(0.000610245 3.49039e-07 0)
(0.000606133 4.70533e-07 0)
(0.000600828 5.84398e-07 0)
(0.00059441 6.90439e-07 0)
(0.000586958 7.88519e-07 0)
(0.000578555 8.78575e-07 0)
(0.000569282 9.60635e-07 0)
(0.00055922 1.03477e-06 0)
(0.000548448 1.10116e-06 0)
(0.000537044 1.15998e-06 0)
(0.000525084 1.21145e-06 0)
(0.00051264 1.25588e-06 0)
(0.000499783 1.29352e-06 0)
(0.000486579 1.32467e-06 0)
(0.000473091 1.34967e-06 0)
(0.000459382 1.36884e-06 0)
(0.000445506 1.38251e-06 0)
(0.000431519 1.39102e-06 0)
(0.00041747 1.39467e-06 0)
(0.000403408 1.39379e-06 0)
(0.000387027 1.38869e-06 0)
(-0.14387 -0.00228465 0)
(-0.137034 -0.00256846 0)
(-0.127946 -0.00284068 0)
(-0.117915 -0.00311605 0)
(-0.106912 -0.00342589 0)
(-0.0949285 -0.0037054 0)
(-0.0819606 -0.00402492 0)
(-0.0680193 -0.00429383 0)
(-0.0531364 -0.00454559 0)
(-0.0373453 -0.00484579 0)
(-0.0205787 -0.00505654 0)
(-0.00321127 -0.00523169 0)
(0.0146316 -0.00545756 0)
(0.0331123 -0.00554242 0)
(0.051923 -0.00567726 0)
(0.0708742 -0.00564834 0)
(0.0897376 -0.00554639 0)
(0.108277 -0.0054803 0)
(0.126251 -0.00523639 0)
(0.14339 -0.00491556 0)
(0.159427 -0.00459867 0)
(0.17411 -0.00413529 0)
(0.187188 -0.00360806 0)
(0.198426 -0.00304989 0)
(0.207624 -0.00240749 0)
(0.214616 -0.00172988 0)
(0.219283 -0.00101199 0)
(0.221577 -0.000278938 0)
(0.221429 0.000444072 0)
(0.218677 0.00119034 0)
(0.213464 0.00192293 0)
(0.205958 0.00255982 0)
(0.196286 0.0031994 0)
(0.184634 0.0037064 0)
(0.171238 0.00421013 0)
(0.156317 0.00465789 0)
(0.140122 0.00493048 0)
(0.122927 0.00521285 0)
(0.104965 0.00542994 0)
(0.086475 0.00548515 0)
(0.0676688 0.00556108 0)
(0.0487548 0.00550125 0)
(0.0299141 0.00546007 0)
(0.0116824 0.00535531 0)
(-0.00567847 0.00519335 0)
(-0.0226055 0.00503559 0)
(-0.0390967 0.0048401 0)
(-0.054881 0.00458577 0)
(-0.0698759 0.00434722 0)
(-0.0840107 0.00408433 0)
(-0.0972356 0.00379312 0)
(-0.109527 0.00351294 0)
(-0.120865 0.00321627 0)
(-0.131246 0.00293184 0)
(-0.140661 0.00264235 0)
(-0.149133 0.00235384 0)
(-0.156675 0.00207619 0)
(-0.163266 0.00179168 0)
(-0.16893 0.00151556 0)
(-0.173671 0.00124953 0)
(-0.177515 0.000961553 0)
(-0.180499 0.000707227 0)
(-0.182555 0.000446339 0)
(-0.18367 0.000181194 0)
(-0.183965 -6.02835e-05 0)
(-0.183307 -0.000319737 0)
(-0.181751 -0.00059275 0)
(-0.179365 -0.000822216 0)
(-0.176136 -0.00109492 0)
(-0.172084 -0.00131643 0)
(-0.167276 -0.00153476 0)
(-0.161703 -0.00177725 0)
(-0.155379 -0.00198676 0)
(-0.148373 -0.00217651 0)
(-0.140685 -0.00239106 0)
(-0.132346 -0.00257165 0)
(-0.12338 -0.00277317 0)
(-0.113764 -0.00296005 0)
(-0.103535 -0.00313094 0)
(-0.0927122 -0.00331875 0)
(-0.0812621 -0.00349876 0)
(-0.0692064 -0.003675 0)
(-0.0565483 -0.00386627 0)
(-0.043242 -0.0040594 0)
(-0.0292808 -0.00425972 0)
(-0.014632 -0.00445878 0)
(0.000701472 -0.00465059 0)
(0.0166812 -0.00484492 0)
(0.0332259 -0.00502467 0)
(0.0503002 -0.00514781 0)
(0.0677746 -0.00522756 0)
(0.0854129 -0.0052559 0)
(0.102994 -0.00521387 0)
(0.120298 -0.00506909 0)
(0.137028 -0.00485203 0)
(0.152848 -0.00454039 0)
(0.167453 -0.00414244 0)
(0.180565 -0.00365009 0)
(0.19189 -0.00308005 0)
(0.201172 -0.00244209 0)
(0.208219 -0.00173613 0)
(0.212851 -0.000997415 0)
(0.214927 -0.000258183 0)
(0.214487 0.000494376 0)
(0.211406 0.00128173 0)
(0.205872 0.00201038 0)
(0.197983 0.00268655 0)
(0.187903 0.00330138 0)
(0.175861 0.00384811 0)
(0.16212 0.00430995 0)
(0.14698 0.00469098 0)
(0.130734 0.00496964 0)
(0.113694 0.00515552 0)
(0.096166 0.00526267 0)
(0.0784422 0.00527773 0)
(0.060789 0.00522618 0)
(0.043432 0.00510286 0)
(0.0265691 0.00492713 0)
(0.0103711 0.00471278 0)
(-0.00504311 0.0044654 0)
(-0.0195755 0.00419259 0)
(-0.0331716 0.00390572 0)
(-0.0457984 0.00360589 0)
(-0.0574373 0.00331433 0)
(-0.0680627 0.00301863 0)
(-0.0777153 0.00272525 0)
(-0.0864245 0.00245713 0)
(-0.0942046 0.00218301 0)
(-0.101107 0.00192719 0)
(-0.107164 0.0016797 0)
(-0.112414 0.00144625 0)
(-0.116893 0.00121995 0)
(-0.120639 0.00100475 0)
(-0.123683 0.000801279 0)
(-0.126042 0.000609275 0)
(-0.127745 0.000409932 0)
(-0.128804 0.000227537 0)
(-0.129273 4.93115e-05 0)
(-0.129127 -0.000133349 0)
(-0.128359 -0.000312211 0)
(-0.127001 -0.000495534 0)
(-0.125045 -0.000677842 0)
(-0.12247 -0.000853348 0)
(-0.119279 -0.00104663 0)
(-0.115471 -0.00122243 0)
(-0.11102 -0.00141638 0)
(-0.105941 -0.00160601 0)
(-0.10022 -0.00179538 0)
(-0.0938594 -0.00198596 0)
(-0.086865 -0.0021775 0)
(-0.079249 -0.00236423 0)
(-0.0709974 -0.0025422 0)
(-0.0621384 -0.00271964 0)
(-0.0527191 -0.00288672 0)
(-0.0427531 -0.00304189 0)
(-0.0322944 -0.0031843 0)
(-0.0213859 -0.00331072 0)
(-0.0100761 -0.00340988 0)
(0.00154592 -0.00349295 0)
(0.01339 -0.00355032 0)
(0.0253667 -0.00357577 0)
(0.0373819 -0.00356895 0)
(0.0493126 -0.00352818 0)
(0.0610457 -0.00344765 0)
(0.0724528 -0.00333019 0)
(0.0833969 -0.00317713 0)
(0.0937565 -0.00298297 0)
(0.103402 -0.0027526 0)
(0.112212 -0.0024847 0)
(0.120072 -0.00218715 0)
(0.126872 -0.00185932 0)
(0.132535 -0.00150596 0)
(0.136984 -0.00113652 0)
(0.140165 -0.000756041 0)
(0.142054 -0.000368531 0)
(0.142635 1.245e-05 0)
(0.141944 0.000394611 0)
(0.139958 0.000767524 0)
(0.136784 0.00111537 0)
(0.132475 0.00144008 0)
(0.127118 0.00173688 0)
(0.120813 0.00199871 0)
(0.113679 0.00223388 0)
(0.105836 0.00242729 0)
(0.0974109 0.00258573 0)
(0.0885347 0.00270074 0)
(0.0793346 0.00277575 0)
(0.06994 0.00281401 0)
(0.0604741 0.00281785 0)
(0.0510504 0.00278874 0)
(0.0417732 0.00273041 0)
(0.0327371 0.00264567 0)
(0.0240242 0.00253859 0)
(0.0157048 0.00241166 0)
(0.00784021 0.00226925 0)
(0.000488849 0.00211473 0)
(-0.00633047 0.0019495 0)
(-0.012596 0.00177966 0)
(-0.0182775 0.00160401 0)
(-0.0233699 0.00142651 0)
(-0.027865 0.00125043 0)
(-0.0317687 0.00107465 0)
(-0.0350902 0.000902452 0)
(-0.037836 0.000736056 0)
(-0.040033 0.000572668 0)
(-0.0417007 0.000417496 0)
(-0.0428535 0.000268682 0)
(-0.0435181 0.000129738 0)
(-0.0437295 -2.64517e-06 0)
(-0.0435088 -0.000127916 0)
(-0.0428839 -0.000242718 0)
(-0.0418794 -0.000350098 0)
(-0.0405346 -0.000449913 0)
(-0.0388755 -0.000540543 0)
(-0.0369205 -0.000622345 0)
(-0.0347027 -0.000695854 0)
(-0.0322521 -0.000761536 0)
(-0.0295954 -0.00081874 0)
(-0.0267594 -0.000867942 0)
(-0.0237672 -0.000909018 0)
(-0.0206548 -0.000943228 0)
(-0.0174457 -0.000968553 0)
(-0.014157 -0.00098691 0)
(-0.0108204 -0.000998041 0)
(-0.00745818 -0.0010019 0)
(-0.00409494 -0.000999547 0)
(-0.000751744 -0.000989295 0)
(0.00254911 -0.000973825 0)
(0.00578673 -0.00095259 0)
(0.00894328 -0.000924972 0)
(0.0119991 -0.000892637 0)
(0.0149372 -0.000855446 0)
(0.0177431 -0.000814185 0)
(0.0204037 -0.000768216 0)
(0.022904 -0.00071979 0)
(0.0252357 -0.000667434 0)
(0.0273896 -0.000613199 0)
(0.0293563 -0.00055733 0)
(0.0311325 -0.000499216 0)
(0.0327124 -0.000440649 0)
(0.034094 -0.000381874 0)
(0.0352778 -0.000322303 0)
(0.0362626 -0.000264253 0)
(0.0370528 -0.000205948 0)
(0.0376511 -0.000150149 0)
(0.0380631 -9.53636e-05 0)
(0.0382963 -4.3046e-05 0)
(0.0383565 6.41352e-06 0)
(0.0382546 5.41313e-05 0)
(0.0379964 9.82313e-05 0)
(0.0375954 0.000140221 0)
(0.0370599 0.000178063 0)
(0.0364013 0.000213559 0)
(0.0356302 0.000244957 0)
(0.0347579 0.000273727 0)
(0.033796 0.000298598 0)
(0.0327553 0.000320212 0)
(0.0316481 0.000338657 0)
(0.0304837 0.000353412 0)
(0.0292747 0.000365867 0)
(0.0280299 0.000374557 0)
(0.0267601 0.000380743 0)
(0.0254748 0.000384255 0)
(0.024181 0.000384948 0)
(0.0228888 0.000383895 0)
(0.0216053 0.000380314 0)
(0.0203357 0.000374714 0)
(0.0190881 0.000367834 0)
(0.0178673 0.000359158 0)
(0.0166774 0.000349144 0)
(0.0155229 0.000337886 0)
(0.0144079 0.000326028 0)
(0.0133351 0.000313179 0)
(0.0123061 0.00029968 0)
(0.0113234 0.000285735 0)
(0.0103881 0.000271468 0)
(0.00950122 0.000257008 0)
(0.00866313 0.000242478 0)
(0.00787394 0.00022797 0)
(0.00713337 0.00021357 0)
(0.00644086 0.000199378 0)
(0.00579541 0.000185442 0)
(0.00519621 0.000171976 0)
(0.00464189 0.000158752 0)
(0.00413095 0.000146095 0)
(0.00366189 0.00013386 0)
(0.00323295 0.000122174 0)
(0.00284237 0.000111023 0)
(0.00248813 0.000100449 0)
(0.00216843 9.0443e-05 0)
(0.0018813 8.10139e-05 0)
(0.00162479 7.21876e-05 0)
(0.00139694 6.39254e-05 0)
(0.00119582 5.62423e-05 0)
(0.00101952 4.91145e-05 0)
(0.000866189 4.25249e-05 0)
(0.000734007 3.64869e-05 0)
(0.000621254 3.09424e-05 0)
(0.000526205 2.58981e-05 0)
(0.000447275 2.13151e-05 0)
(0.000382918 1.7174e-05 0)
(0.000331658 1.34745e-05 0)
(0.000292134 1.01513e-05 0)
(0.000262984 7.23465e-06 0)
(0.000243022 4.64272e-06 0)
(0.000231064 2.37962e-06 0)
(0.000226143 4.29337e-07 0)
(0.00022745 -1.2193e-06 0)
(0.000233976 -2.61392e-06 0)
(0.000244811 -3.77321e-06 0)
(0.000259181 -4.71691e-06 0)
(0.000276385 -5.46434e-06 0)
(0.000295788 -6.03343e-06 0)
(0.000316821 -6.44184e-06 0)
(0.000338971 -6.70642e-06 0)
(0.000361782 -6.84273e-06 0)
(0.000384849 -6.86605e-06 0)
(0.000407818 -6.79022e-06 0)
(0.00043038 -6.62843e-06 0)
(0.000452267 -6.39291e-06 0)
(0.000473252 -6.09472e-06 0)
(0.000493144 -5.74437e-06 0)
(0.000511784 -5.35154e-06 0)
(0.000529046 -4.9249e-06 0)
(0.00054483 -4.4725e-06 0)
(0.000559063 -4.00128e-06 0)
(0.000571692 -3.51764e-06 0)
(0.000582685 -3.02706e-06 0)
(0.000592028 -2.53436e-06 0)
(0.000599721 -2.04389e-06 0)
(0.00060578 -1.5596e-06 0)
(0.000610239 -1.08509e-06 0)
(0.000613154 -6.22635e-07 0)
(0.000614627 -1.76271e-07 0)
(0.000614626 2.52693e-07 0)
(0.000613137 6.60737e-07 0)
(0.000610295 1.04737e-06 0)
(0.000606181 1.41186e-06 0)
(0.000600873 1.75348e-06 0)
(0.000594451 2.07161e-06 0)
(0.000586997 2.36587e-06 0)
(0.000578591 2.63604e-06 0)
(0.000569314 2.88221e-06 0)
(0.000559249 3.10462e-06 0)
(0.000548474 3.30377e-06 0)
(0.000537067 3.48022e-06 0)
(0.000525104 3.63464e-06 0)
(0.000512658 3.7679e-06 0)
(0.000499798 3.88081e-06 0)
(0.000486591 3.97424e-06 0)
(0.000473101 4.04925e-06 0)
(0.000459389 4.10673e-06 0)
(0.000445512 4.14775e-06 0)
(0.000431522 4.17327e-06 0)
(0.000417472 4.18418e-06 0)
(0.000403408 4.18154e-06 0)
(0.000387025 4.16625e-06 0)
(-0.14394 -0.00380731 0)
(-0.137108 -0.0042804 0)
(-0.128021 -0.00473415 0)
(-0.117991 -0.00519318 0)
(-0.10699 -0.00570973 0)
(-0.0950057 -0.00617571 0)
(-0.0820379 -0.00670846 0)
(-0.0680938 -0.00715692 0)
(-0.0532066 -0.0075767 0)
(-0.0374117 -0.00807723 0)
(-0.0206381 -0.00842866 0)
(-0.00326093 -0.00872119 0)
(0.0145926 -0.00909791 0)
(0.0330868 -0.00923966 0)
(0.0519124 -0.00946487 0)
(0.0708806 -0.00941689 0)
(0.0897619 -0.00924715 0)
(0.108322 -0.00913727 0)
(0.126316 -0.00873079 0)
(0.143474 -0.00819602 0)
(0.159534 -0.00766789 0)
(0.174236 -0.00689535 0)
(0.18733 -0.00601631 0)
(0.198588 -0.00508568 0)
(0.207798 -0.00401443 0)
(0.214802 -0.00288387 0)
(0.219474 -0.00168786 0)
(0.221782 -0.000459438 0)
(0.221626 0.000736971 0)
(0.218858 0.00198503 0)
(0.213646 0.00320595 0)
(0.206127 0.00426862 0)
(0.196441 0.00533519 0)
(0.184769 0.00618039 0)
(0.171355 0.00702018 0)
(0.156415 0.00776661 0)
(0.140198 0.00822079 0)
(0.122983 0.00869133 0)
(0.105003 0.00905281 0)
(0.0864948 0.00914454 0)
(0.0676724 0.0092709 0)
(0.0487437 0.00917087 0)
(0.0298875 0.00910203 0)
(0.0116477 0.0089265 0)
(-0.00571918 0.00865719 0)
(-0.0226574 0.00839418 0)
(-0.039156 0.00806803 0)
(-0.0549454 0.00764389 0)
(-0.0699456 0.00724602 0)
(-0.0840844 0.00680775 0)
(-0.0973106 0.00632239 0)
(-0.109603 0.00585564 0)
(-0.120942 0.00536106 0)
(-0.131322 0.00488748 0)
(-0.140738 0.00440432 0)
(-0.149208 0.00392283 0)
(-0.156748 0.00346026 0)
(-0.163338 0.00298777 0)
(-0.169001 0.00252691 0)
(-0.173745 0.00208108 0)
(-0.177584 0.00160382 0)
(-0.180566 0.00117902 0)
(-0.182627 0.000745786 0)
(-0.183744 0.000301934 0)
(-0.184029 -0.000100687 0)
(-0.183373 -0.000533263 0)
(-0.181817 -0.00098843 0)
(-0.17943 -0.00137035 0)
(-0.176199 -0.00182487 0)
(-0.172146 -0.0021953 0)
(-0.167337 -0.0025579 0)
(-0.161762 -0.00296034 0)
(-0.155437 -0.0033119 0)
(-0.148426 -0.0036254 0)
(-0.140743 -0.00398952 0)
(-0.132404 -0.00429193 0)
(-0.123437 -0.00462582 0)
(-0.113817 -0.00493473 0)
(-0.103585 -0.0052175 0)
(-0.0927654 -0.0055307 0)
(-0.0813167 -0.00583274 0)
(-0.0692595 -0.00612034 0)
(-0.0566047 -0.00644169 0)
(-0.0433058 -0.00676922 0)
(-0.0293404 -0.00709205 0)
(-0.0146952 -0.00743229 0)
(0.000635876 -0.00776008 0)
(0.0166188 -0.00808013 0)
(0.0331762 -0.00837978 0)
(0.0502685 -0.008576 0)
(0.0677528 -0.0087119 0)
(0.0854013 -0.00876442 0)
(0.103009 -0.00868621 0)
(0.120329 -0.00846002 0)
(0.13708 -0.00810101 0)
(0.152932 -0.00757342 0)
(0.167568 -0.00690315 0)
(0.180701 -0.00608542 0)
(0.192042 -0.00513713 0)
(0.201343 -0.00406637 0)
(0.208396 -0.00290407 0)
(0.213037 -0.00167363 0)
(0.215131 -0.000421911 0)
(0.214674 0.000824248 0)
(0.211585 0.00213819 0)
(0.206053 0.00335505 0)
(0.198148 0.00447791 0)
(0.188051 0.00550804 0)
(0.175987 0.00641591 0)
(0.162228 0.00718774 0)
(0.147062 0.00782013 0)
(0.130793 0.00828617 0)
(0.113731 0.00860093 0)
(0.0961757 0.00877193 0)
(0.0784318 0.00879858 0)
(0.0607593 0.00871162 0)
(0.0433898 0.00850813 0)
(0.0265157 0.00821728 0)
(0.0103029 0.00785229 0)
(-0.00511743 0.00744128 0)
(-0.0196541 0.00698775 0)
(-0.0332543 0.00650889 0)
(-0.0458823 0.00600914 0)
(-0.0575167 0.00552462 0)
(-0.0681406 0.00503607 0)
(-0.0777921 0.00454375 0)
(-0.0865015 0.00409204 0)
(-0.0942791 0.00363872 0)
(-0.101178 0.00321062 0)
(-0.107232 0.00279716 0)
(-0.11248 0.00240891 0)
(-0.116955 0.0020331 0)
(-0.120697 0.00167441 0)
(-0.123739 0.00133362 0)
(-0.126097 0.00101536 0)
(-0.127798 0.000687027 0)
(-0.128859 0.000379814 0)
(-0.129327 8.13668e-05 0)
(-0.129179 -0.000223612 0)
(-0.128413 -0.000525005 0)
(-0.127051 -0.000825398 0)
(-0.125095 -0.00112953 0)
(-0.122519 -0.00142009 0)
(-0.11933 -0.00174576 0)
(-0.115523 -0.00203684 0)
(-0.111074 -0.00235859 0)
(-0.105994 -0.00267559 0)
(-0.100276 -0.00299629 0)
(-0.093915 -0.00331329 0)
(-0.0869168 -0.00362872 0)
(-0.0792989 -0.00394005 0)
(-0.0710462 -0.00423628 0)
(-0.0621867 -0.00453296 0)
(-0.0527645 -0.00481126 0)
(-0.0427958 -0.0050689 0)
(-0.0323351 -0.00531362 0)
(-0.0214188 -0.00551912 0)
(-0.0101019 -0.00568538 0)
(0.00152619 -0.00582198 0)
(0.0133775 -0.00591783 0)
(0.0253624 -0.00596033 0)
(0.0373859 -0.00594936 0)
(0.049327 -0.00588076 0)
(0.0610679 -0.0057502 0)
(0.0724848 -0.0055556 0)
(0.0834417 -0.00529749 0)
(0.0938124 -0.0049723 0)
(0.103468 -0.00458843 0)
(0.112287 -0.00414189 0)
(0.120153 -0.00364612 0)
(0.126961 -0.00309945 0)
(0.132628 -0.0025128 0)
(0.13708 -0.0018984 0)
(0.140267 -0.00126045 0)
(0.142158 -0.000614028 0)
(0.142739 2.22305e-05 0)
(0.142036 0.000659541 0)
(0.140051 0.00127966 0)
(0.136873 0.00185976 0)
(0.132557 0.00240105 0)
(0.127192 0.0028944 0)
(0.120879 0.00333487 0)
(0.113735 0.00372509 0)
(0.105882 0.00404883 0)
(0.097446 0.00431165 0)
(0.0885594 0.00450251 0)
(0.0793491 0.00462762 0)
(0.0699452 0.0046914 0)
(0.0604704 0.00469802 0)
(0.0510386 0.00464932 0)
(0.0417539 0.00455192 0)
(0.0327114 0.00441059 0)
(0.0239929 0.00423187 0)
(0.0156688 0.00402022 0)
(0.00780073 0.00378282 0)
(0.000446172 0.00352504 0)
(-0.00637534 0.00324922 0)
(-0.012642 0.00296604 0)
(-0.0183243 0.0026735 0)
(-0.0234168 0.0023776 0)
(-0.0279116 0.00208391 0)
(-0.0318148 0.00179098 0)
(-0.0351349 0.00150395 0)
(-0.0378797 0.0012267 0)
(-0.0400752 0.0009541 0)
(-0.0417409 0.000695701 0)
(-0.0428921 0.000447564 0)
(-0.0435548 0.000216156 0)
(-0.0437641 -5.12287e-06 0)
(-0.0435405 -0.000213581 0)
(-0.0429133 -0.000404986 0)
(-0.0419068 -0.000583747 0)
(-0.0405598 -0.000750348 0)
(-0.0388983 -0.00090136 0)
(-0.036941 -0.00103754 0)
(-0.0347211 -0.00116015 0)
(-0.0322683 -0.00126961 0)
(-0.0296095 -0.00136496 0)
(-0.0267713 -0.00144699 0)
(-0.0237772 -0.00151522 0)
(-0.0206626 -0.00157266 0)
(-0.0174515 -0.00161462 0)
(-0.014161 -0.00164527 0)
(-0.0108224 -0.00166375 0)
(-0.00745837 -0.00167017 0)
(-0.00409327 -0.00166624 0)
(-0.000748326 -0.00164915 0)
(0.002554 -0.00162335 0)
(0.00579321 -0.00158787 0)
(0.00895124 -0.0015419 0)
(0.0120083 -0.00148797 0)
(0.0149476 -0.001426 0)
(0.0177547 -0.00135708 0)
(0.0204163 -0.00128055 0)
(0.0229174 -0.00119983 0)
(0.0252498 -0.0011125 0)
(0.0274042 -0.0010221 0)
(0.0293714 -0.000928926 0)
(0.031148 -0.000832099 0)
(0.032728 -0.000734469 0)
(0.0341097 -0.000636417 0)
(0.0352934 -0.000537177 0)
(0.036278 -0.000440424 0)
(0.0370679 -0.000343172 0)
(0.0376658 -0.00025023 0)
(0.0380773 -0.000158807 0)
(0.0383098 -7.16574e-05 0)
(0.0383694 1.08072e-05 0)
(0.0382665 9.03516e-05 0)
(0.0380078 0.000163828 0)
(0.037606 0.000233855 0)
(0.0370697 0.000296907 0)
(0.0364102 0.000356106 0)
(0.0356382 0.0004084 0)
(0.034765 0.00045639 0)
(0.0338022 0.000497718 0)
(0.0327607 0.000533947 0)
(0.0316525 0.000564568 0)
(0.0304873 0.000589252 0)
(0.0292775 0.000609856 0)
(0.0280319 0.000624323 0)
(0.0267614 0.000634786 0)
(0.0254754 0.000640538 0)
(0.024181 0.000641689 0)
(0.0228882 0.000639948 0)
(0.0216041 0.000633945 0)
(0.0203341 0.000624605 0)
(0.019086 0.000613158 0)
(0.0178649 0.000598655 0)
(0.0166746 0.000581956 0)
(0.0155198 0.000563205 0)
(0.0144047 0.000543449 0)
(0.0133316 0.000521989 0)
(0.0123025 0.000499493 0)
(0.0113197 0.000476244 0)
(0.0103843 0.000452459 0)
(0.00949739 0.000428353 0)
(0.00865928 0.000404138 0)
(0.00787011 0.00037996 0)
(0.00712958 0.000355953 0)
(0.00643713 0.000332295 0)
(0.00579177 0.000309058 0)
(0.00519267 0.000286611 0)
(0.00463846 0.000264565 0)
(0.00412764 0.000243474 0)
(0.00365871 0.000223086 0)
(0.00322992 0.000203609 0)
(0.00283948 0.000185018 0)
(0.00248539 0.000167393 0)
(0.00216585 0.000150716 0)
(0.00187888 0.000134999 0)
(0.00162252 0.000120289 0)
(0.00139483 0.000106519 0)
(0.00119385 9.3713e-05 0)
(0.0010177 8.18349e-05 0)
(0.000864512 7.08522e-05 0)
(0.000732469 6.07901e-05 0)
(0.000619847 5.15503e-05 0)
(0.000524926 4.31413e-05 0)
(0.000446117 3.55063e-05 0)
(0.000381877 2.86044e-05 0)
(0.000330726 2.24405e-05 0)
(0.000291305 1.69045e-05 0)
(0.000262252 1.20403e-05 0)
(0.000242377 7.72415e-06 0)
(0.000230504 3.95213e-06 0)
(0.000225665 7.039e-07 0)
(0.000227046 -2.0433e-06 0)
(0.000233637 -4.36687e-06 0)
(0.000244532 -6.29816e-06 0)
(0.000258956 -7.87017e-06 0)
(0.00027621 -9.11509e-06 0)
(0.000295658 -1.00628e-05 0)
(0.000316732 -1.07428e-05 0)
(0.000338918 -1.1183e-05 0)
(0.000361761 -1.14096e-05 0)
(0.000384856 -1.14478e-05 0)
(0.00040785 -1.13209e-05 0)
(0.000430433 -1.10507e-05 0)
(0.000452338 -1.06577e-05 0)
(0.000473338 -1.01602e-05 0)
(0.000493242 -9.57588e-06 0)
(0.000511893 -8.92079e-06 0)
(0.000529163 -8.20937e-06 0)
(0.000544953 -7.45505e-06 0)
(0.00055919 -6.66942e-06 0)
(0.000571821 -5.8631e-06 0)
(0.000582816 -5.04525e-06 0)
(0.000592158 -4.22388e-06 0)
(0.00059985 -3.40625e-06 0)
(0.000605908 -2.59892e-06 0)
(0.000610363 -1.80782e-06 0)
(0.000613274 -1.03694e-06 0)
(0.000614743 -2.92851e-07 0)
(0.000614737 4.22084e-07 0)
(0.000613243 1.10219e-06 0)
(0.000610395 1.7466e-06 0)
(0.000606274 2.35413e-06 0)
(0.00060096 2.92352e-06 0)
(0.000594532 3.45377e-06 0)
(0.000587072 3.94421e-06 0)
(0.000578659 4.39448e-06 0)
(0.000569376 4.80476e-06 0)
(0.000559305 5.17541e-06 0)
(0.000548524 5.5073e-06 0)
(0.000537111 5.80136e-06 0)
(0.000525142 6.05868e-06 0)
(0.00051269 6.28074e-06 0)
(0.000499825 6.46888e-06 0)
(0.000486613 6.62456e-06 0)
(0.000473119 6.74954e-06 0)
(0.000459402 6.84528e-06 0)
(0.00044552 6.91361e-06 0)
(0.000431527 6.95609e-06 0)
(0.000417473 6.97424e-06 0)
(0.000403405 6.96981e-06 0)
(0.000387019 6.94428e-06 0)
(-0.144047 -0.00532939 0)
(-0.137217 -0.0059918 0)
(-0.128133 -0.00662719 0)
(-0.118105 -0.00727004 0)
(-0.107106 -0.00799343 0)
(-0.0951216 -0.0086461 0)
(-0.082154 -0.00939236 0)
(-0.0682057 -0.0100207 0)
(-0.0533119 -0.0106089 0)
(-0.0375114 -0.0113099 0)
(-0.0207273 -0.0118009 0)
(-0.00333568 -0.0122146 0)
(0.0145339 -0.0127416 0)
(0.0330482 -0.0129404 0)
(0.0518962 -0.0132566 0)
(0.07089 -0.0131899 0)
(0.0897984 -0.0129526 0)
(0.10839 -0.0127994 0)
(0.126414 -0.0122304 0)
(0.143601 -0.0114816 0)
(0.159696 -0.0107422 0)
(0.174425 -0.00966022 0)
(0.187544 -0.00842895 0)
(0.19883 -0.00712548 0)
(0.20806 -0.00562494 0)
(0.215081 -0.00404224 0)
(0.219764 -0.00236735 0)
(0.22209 -0.000648819 0)
(0.221913 0.00104987 0)
(0.219132 0.00278306 0)
(0.213921 0.0044908 0)
(0.206381 0.00598096 0)
(0.196674 0.00747516 0)
(0.184972 0.00865891 0)
(0.171531 0.00983513 0)
(0.156561 0.0108805 0)
(0.140312 0.011516 0)
(0.123068 0.0121746 0)
(0.105059 0.0126801 0)
(0.0865243 0.0128079 0)