/*--------------------------------*- C++ -*----------------------------------*\
| =========                 |                                                 |
| \\      /  F ield         | OpenFOAM: The Open Source CFD Toolbox           |
|  \\    /   O peration     | Version:  3.0.1                                 |
|   \\  /    A nd           | Web:      www.OpenFOAM.org                      |
|    \\/     M anipulation  |                                                 |
\*---------------------------------------------------------------------------*/
FoamFile
{
    version     2.0;
    format      ascii;
    class       volScalarField;
    location    "87.4";
    object      p_rgh;
}
// * * * * * * * * * * * * * * * * * * * * * * * * * * * * * * * * * * * * * //

dimensions      [1 -1 -2 0 0 0 0];

internalField   nonuniform List<scalar> 
21420
(
-339.149
-332.006
-324.022
-315.213
-305.583
-295.128
-283.83
-271.655
-258.558
-244.482
-229.36
-213.124
-195.71
-177.05
-157.098
-135.821
-113.21
-89.2856
-64.1097
-37.7817
-10.4211
17.7897
46.6337
75.9055
105.33
134.632
163.484
191.531
218.48
243.986
267.686
289.308
308.561
325.178
338.917
349.554
356.917
360.871
361.304
358.107
351.38
341.062
327.286
310.223
290.17
267.39
242.168
214.903
186.001
155.821
124.811
93.3719
61.874
30.6642
0.0257864
-29.7617
-58.4788
-85.9583
-112.056
-136.673
-159.75
-181.262
-201.21
-219.607
-236.484
-251.929
-266.024
-278.759
-290.093
-300.043
-308.697
-316.22
-322.804
-328.705
-334.029
-338.902
-343.929
-349.017
-354.207
-359.494
-364.534
-369.316
-373.403
-376.821
-379.218
-379.892
-380.176
-377.955
-374.171
-368.834
-362.045
-353.843
-344.312
-333.478
-321.381
-308.066
-293.586
-277.974
-261.222
-243.325
-224.291
-204.141
-182.914
-160.664
-137.461
-113.397
-88.5844
-63.1594
-37.2845
-11.1424
15.0585
41.0869
66.6921
91.6027
115.527
138.158
159.186
178.294
195.172
209.539
221.143
229.769
235.267
237.386
236.369
232.027
224.401
213.613
199.812
183.167
163.887
142.212
118.406
92.7485
65.5502
37.1356
7.83759
-21.9937
-52.0168
-81.9128
-111.378
-140.143
-167.981
-194.7
-220.148
-244.216
-266.825
-287.928
-307.511
-325.584
-342.176
-357.34
-371.138
-383.644
-394.936
-405.092
-414.184
-422.274
-429.415
-435.644
-441.002
-445.506
-449.17
-452
-453.992
-455.14
-455.429
-454.844
-453.37
-450.995
-447.709
-443.507
-438.386
-432.342
-425.367
-417.454
-408.584
-398.732
-387.861
-375.924
-362.869
-348.632
-333.14
-316.313
-298.079
-278.385
-257.19
-234.483
-210.278
-184.615
-157.575
-129.262
-99.8195
-69.4276
-38.3074
-6.73246
24.9878
56.4953
87.3888
117.24
145.588
171.959
195.877
216.886
234.566
248.529
258.459
264.104
265.235
261.869
253.94
241.607
224.947
204.279
179.92
152.287
121.837
89.0703
54.5202
18.7105
-17.8193
-54.5479
-91.0048
-126.764
-161.446
-194.715
-226.309
-256.032
-283.735
-309.316
-332.721
-353.929
-372.949
-389.817
-404.586
-417.331
-428.159
-437.191
-444.563
-450.419
-454.897
-458.134
-460.251
-461.355
-461.529
-460.838
-459.329
-457.028
-453.956
-450.13
-445.565
-440.282
-434.303
-427.652
-420.358
-412.436
-403.91
-394.777
-385.031
-374.638
-363.547
-351.693
-339.001
-325.395
-310.801
-295.128
-278.311
-260.297
-241.063
-220.513
-198.534
-175.089
-150.286
-124.195
-96.8537
-68.3272
-38.7083
-8.12531
23.2162
55.0999
87.1827
119.002
150.177
180.242
208.695
235.056
258.71
279.173
295.782
307.583
314.862
321.335
323.297
320.017
312.541
301.357
286.492
268.292
247.241
223.716
198.3
171.409
143.538
115.198
86.7208
58.4726
30.7992
3.90222
-21.9804
-46.7173
-70.1697
-92.2218
-112.834
-131.964
-149.589
-165.738
-180.439
-193.757
-205.759
-216.523
-226.143
-234.713
-242.324
-249.066
-255.019
-260.252
-264.818
-268.752
-272.071
-274.773
-276.835
-278.223
-278.895
-278.569
-277.3
-274.993
-271.517
-266.759
-260.668
-253.138
-244.085
-233.498
-221.321
-207.538
-192.131
-175.09
-156.452
-136.261
-114.554
-91.399
-66.905
-41.1649
-14.3346
13.4397
42.0354
71.1073
100.215
-339.184
-332.039
-324.055
-315.245
-305.616
-295.162
-283.866
-271.693
-258.599
-244.526
-229.407
-213.175
-195.764
-177.107
-157.157
-135.882
-113.271
-89.3466
-64.1688
-37.8375
-10.4721
17.7449
46.5963
75.877
105.311
134.625
163.489
191.55
218.514
244.034
267.749
289.384
308.65
325.28
339.03
349.677
357.048
361.007
361.444
358.261
351.508
341.187
327.407
310.335
290.269
267.474
242.235
214.953
186.032
155.835
124.807
93.3528
61.8412
30.6197
-0.0284142
-29.8236
-58.5463
-86.0298
-112.13
-136.748
-159.824
-181.335
-201.282
-219.677
-236.552
-251.993
-266.085
-278.818
-290.151
-300.099
-308.749
-316.265
-322.839
-328.729
-334.047
-338.908
-343.924
-349.004
-354.19
-359.477
-364.521
-369.312
-373.408
-376.796
-379.231
-379.987
-380.173
-377.982
-374.208
-368.877
-362.093
-353.894
-344.366
-333.534
-321.439
-308.126
-293.648
-278.038
-261.288
-243.392
-224.358
-204.208
-182.981
-160.73
-137.524
-113.457
-88.6404
-63.2102
-37.3285
-11.1785
15.0314
41.0701
66.6871
91.6103
115.548
138.193
159.237
178.359
195.25
209.63
221.243
229.877
235.38
237.516
236.475
232.137
224.506
213.711
199.901
183.245
163.953
142.265
118.444
92.7731
65.5605
37.1315
7.81944
-22.0251
-52.0604
-81.9673
-111.442
-140.214
-168.058
-194.78
-220.231
-244.3
-266.909
-288.011
-307.592
-325.662
-342.251
-357.411
-371.205
-383.707
-394.996
-405.15
-414.238
-422.326
-429.465
-435.694
-441.051
-445.554
-449.218
-452.048
-454.041
-455.189
-455.478
-454.894
-453.421
-451.046
-447.76
-443.559
-438.438
-432.394
-425.42
-417.508
-408.639
-398.788
-387.919
-375.984
-362.932
-348.698
-333.209
-316.385
-298.154
-278.461
-257.268
-234.562
-210.355
-184.69
-157.647
-129.33
-99.8811
-69.4813
-38.3514
-6.76492
24.969
56.4921
87.403
117.274
145.641
172.032
195.97
216.998
234.695
248.673
258.615
264.268
265.414
262.031
254.098
241.758
225.088
204.403
180.025
152.37
121.898
89.1079
54.5348
18.7027
-17.8474
-54.5943
-91.0674
-126.84
-161.534
-194.811
-226.413
-256.14
-283.845
-309.427
-332.831
-354.038
-373.056
-389.921
-404.686
-417.427
-428.25
-437.276
-444.642
-450.492
-454.966
-458.197
-460.31
-461.411
-461.582
-460.889
-459.379
-457.077
-454.004
-450.178
-445.612
-440.328
-434.347
-427.695
-420.4
-412.479
-403.952
-394.819
-385.075
-374.684
-363.595
-351.745
-339.058
-325.456
-310.866
-295.198
-278.385
-260.374
-241.143
-220.593
-198.612
-175.165
-150.36
-124.265
-96.9185
-68.3852
-38.7577
-8.16372
23.1909
55.0902
87.1908
119.03
150.228
180.317
208.794
235.179
258.856
279.336
295.96
307.833
315.232
321.544
323.451
320.191
312.726
301.525
286.64
268.414
247.338
223.788
198.349
171.437
143.546
115.189
86.6977
58.4377
30.7548
3.85049
-22.0376
-46.7783
-70.2331
-92.2866
-112.899
-132.028
-149.651
-165.798
-180.497
-193.811
-205.809
-216.569
-226.185
-234.751
-242.358
-249.097
-255.047
-260.278
-264.842
-268.775
-272.095
-274.797
-276.861
-278.251
-278.924
-278.603
-277.339
-275.037
-271.565
-266.811
-260.723
-253.197
-244.147
-233.562
-221.387
-207.606
-192.2
-175.16
-156.521
-136.33
-114.622
-91.4649
-66.9682
-41.2246
-14.3901
13.3898
41.9924
71.0724
100.189
-339.254
-332.106
-324.12
-315.311
-305.682
-295.23
-283.937
-271.769
-258.68
-244.614
-229.501
-213.276
-195.871
-177.221
-157.275
-136.003
-113.394
-89.4684
-64.2868
-37.9489
-10.5737
17.6556
46.5219
75.8202
105.275
134.611
163.5
191.588
218.581
244.13
267.873
289.536
308.829
325.483
339.256
349.923
357.309
361.28
361.725
358.569
351.765
341.441
327.649
310.56
290.468
267.642
242.369
215.051
186.094
155.861
124.8
93.3148
61.7756
30.5305
-0.136892
-29.9474
-58.6816
-86.1729
-112.278
-136.898
-159.974
-181.482
-201.425
-219.816
-236.687
-252.122
-266.206
-278.936
-290.265
-300.209
-308.85
-316.354
-322.906
-328.773
-334.079
-338.917
-343.908
-348.973
-354.15
-359.435
-364.488
-369.293
-373.407
-376.771
-379.228
-380.139
-380.175
-378.025
-374.269
-368.95
-362.174
-353.981
-344.458
-333.629
-321.538
-308.229
-293.755
-278.147
-261.4
-243.507
-224.474
-204.324
-183.095
-160.841
-137.631
-113.557
-88.7315
-63.2902
-37.3949
-11.2288
14.9995
41.0592
66.6997
91.6486
115.614
138.288
159.361
178.513
195.431
209.836
221.47
230.118
235.63
237.796
236.716
232.382
224.743
213.933
200.104
183.426
164.109
142.395
118.547
92.8472
65.6059
37.1481
7.80778
-22.0633
-52.123
-82.0513
-111.544
-140.331
-168.186
-194.916
-220.371
-244.442
-267.05
-288.15
-307.726
-325.79
-342.373
-357.525
-371.311
-383.806
-395.087
-405.234
-414.317
-422.4
-429.535
-435.762
-441.116
-445.619
-449.282
-452.113
-454.107
-455.256
-455.547
-454.964
-453.493
-451.119
-447.834
-443.633
-438.513
-432.47
-425.497
-417.587
-408.721
-398.873
-388.008
-376.078
-363.032
-348.804
-333.321
-316.504
-298.278
-278.589
-257.398
-234.692
-210.484
-184.815
-157.766
-129.44
-99.9785
-69.563
-38.4141
-6.80422
24.9571
56.5113
87.4569
117.365
145.772
172.204
196.181
217.247
234.979
248.986
258.951
264.62
265.797
262.375
254.441
242.086
225.393
204.676
180.26
152.563
122.046
89.2107
54.5921
18.7164
-17.8736
-54.6563
-91.1611
-126.961
-161.676
-194.971
-226.585
-256.32
-284.029
-309.612
-333.016
-354.219
-373.233
-390.092
-404.849
-417.581
-428.394
-437.408
-444.763
-450.602
-455.065
-458.286
-460.391
-461.485
-461.651
-460.955
-459.442
-457.138
-454.065
-450.237
-445.67
-440.384
-434.401
-427.747
-420.45
-412.529
-403.999
-394.868
-385.127
-374.741
-363.658
-351.814
-339.135
-325.543
-310.962
-295.303
-278.498
-260.493
-241.267
-220.719
-198.736
-175.286
-150.477
-124.375
-97.0193
-68.4738
-38.8308
-8.21605
23.1633
55.0923
87.2273
119.105
150.346
180.481
209.006
235.438
259.158
279.674
296.335
308.352
315.919
321.963
323.76
320.552
313.098
301.863
286.931
268.666
247.535
223.935
198.448
171.492
143.562
115.171
86.6517
58.368
30.6661
3.74708
-22.1519
-46.9002
-70.36
-92.416
-113.029
-132.156
-149.777
-165.919
-180.612
-193.919
-205.909
-216.661
-226.27
-234.827
-242.427
-249.159
-255.104
-260.33
-264.891
-268.823
-272.143
-274.847
-276.913
-278.306
-278.983
-278.672
-277.417
-275.124
-271.66
-266.915
-260.835
-253.316
-244.272
-233.692
-221.521
-207.743
-192.339
-175.299
-156.661
-136.468
-114.758
-91.5967
-67.0947
-41.3442
-14.501
13.2899
41.9064
71.0027
100.137
-339.358
-332.207
-324.219
-315.409
-305.782
-295.333
-284.045
-271.883
-258.803
-244.745
-229.643
-213.428
-196.033
-177.392
-157.453
-136.186
-113.579
-89.6514
-64.4639
-38.1161
-10.7264
17.5214
46.41
75.7348
105.22
134.59
163.517
191.646
218.681
244.274
268.06
289.765
309.097
325.788
339.596
350.291
357.701
361.69
362.145
359.02
352.159
341.828
328.014
310.897
290.766
267.894
242.57
215.199
186.188
155.901
124.79
93.2575
61.6769
30.3966
-0.299851
-30.1333
-58.8846
-86.3878
-112.5
-137.123
-160.198
-181.703
-201.64
-220.026
-236.89
-252.315
-266.388
-279.112
-290.437
-300.373
-309.001
-316.486
-323.008
-328.842
-334.126
-338.929
-343.886
-348.926
-354.089
-359.373
-364.436
-369.265
-373.405
-376.781
-379.243
-380.275
-380.2
-378.093
-374.362
-369.06
-362.296
-354.112
-344.595
-333.772
-321.686
-308.383
-293.914
-278.311
-261.568
-243.678
-224.647
-204.496
-183.265
-161.006
-137.789
-113.706
-88.8665
-63.4085
-37.4927
-11.3023
14.9537
41.0448
66.7207
91.7085
115.715
138.434
159.551
178.747
195.706
210.148
221.813
230.484
236.008
238.209
237.092
232.756
225.102
214.27
200.412
183.701
164.347
142.594
118.704
92.9622
65.6777
37.1766
7.79394
-22.1171
-52.2132
-82.1737
-111.693
-140.503
-168.374
-195.116
-220.578
-244.652
-267.259
-288.355
-307.925
-325.98
-342.552
-357.694
-371.468
-383.951
-395.221
-405.358
-414.433
-422.508
-429.639
-435.862
-441.213
-445.714
-449.377
-452.208
-454.203
-455.355
-455.648
-455.068
-453.598
-451.226
-447.942
-443.743
-438.623
-432.582
-425.612
-417.704
-408.842
-398.999
-388.14
-376.217
-363.179
-348.961
-333.489
-316.68
-298.462
-278.78
-257.593
-234.888
-210.677
-185.002
-157.943
-129.604
-100.124
-69.6851
-38.5076
-6.86266
24.9398
56.5406
87.5385
117.503
145.97
172.462
196.499
217.623
235.406
249.458
259.457
265.149
266.359
262.905
254.965
242.582
225.855
205.089
180.616
152.856
122.272
89.3684
54.6816
18.7403
-17.9094
-54.7459
-91.2983
-127.139
-161.887
-195.207
-226.839
-256.587
-284.302
-309.887
-333.289
-354.488
-373.495
-390.345
-405.091
-417.809
-428.606
-437.604
-444.942
-450.763
-455.209
-458.416
-460.509
-461.593
-461.751
-461.05
-459.533
-457.227
-454.152
-450.322
-445.752
-440.464
-434.477
-427.82
-420.52
-412.599
-404.067
-394.939
-385.201
-374.821
-363.747
-351.914
-339.247
-325.669
-311.102
-295.456
-278.664
-260.668
-241.45
-220.905
-198.918
-175.463
-150.648
-124.536
-97.1668
-68.6031
-38.9366
-8.29097
23.1252
55.0986
87.2848
119.221
150.526
180.731
209.328
235.832
259.619
280.193
296.911
309.089
316.846
322.639
324.293
321.112
313.658
302.369
287.376
269.026
247.826
224.153
198.595
171.574
143.587
115.145
86.5823
58.2632
30.5327
3.59172
-22.3237
-47.0833
-70.5505
-92.6103
-113.224
-132.349
-149.965
-166.1
-180.784
-194.081
-206.06
-216.8
-226.396
-234.942
-242.53
-249.252
-255.188
-260.408
-264.965
-268.894
-272.215
-274.921
-276.991
-278.388
-279.07
-278.776
-277.535
-275.255
-271.803
-267.071
-261.002
-253.493
-244.458
-233.886
-221.721
-207.948
-192.547
-175.509
-156.87
-136.676
-114.961
-91.7945
-67.2845
-41.5236
-14.6675
13.14
41.7771
70.8978
100.06
-339.496
-332.341
-324.35
-315.539
-305.914
-295.469
-284.187
-272.035
-258.966
-244.92
-229.831
-213.631
-196.249
-177.619
-157.69
-136.43
-113.826
-89.8956
-64.7005
-38.3393
-10.9303
17.3422
46.2606
75.6207
105.146
134.561
163.54
191.723
218.815
244.466
268.309
290.069
309.455
326.195
340.048
350.783
358.224
362.236
362.705
359.595
352.705
342.35
328.504
311.347
291.164
268.23
242.839
215.396
186.313
155.955
124.775
93.1807
61.545
30.2176
-0.517573
-30.3816
-59.1556
-86.6745
-112.796
-137.423
-160.497
-181.997
-201.926
-220.305
-237.161
-252.573
-266.632
-279.346
-290.666
-300.593
-309.204
-316.664
-323.145
-328.935
-334.185
-338.946
-343.855
-348.862
-354.008
-359.29
-364.367
-369.224
-373.399
-376.807
-379.287
-380.396
-380.254
-378.188
-374.487
-369.208
-362.459
-354.287
-344.779
-333.962
-321.884
-308.588
-294.126
-278.529
-261.792
-243.906
-224.877
-204.726
-183.492
-161.227
-138
-113.903
-89.0467
-63.5664
-37.6233
-11.4006
14.8924
41.0256
66.7487
91.788
115.85
138.627
159.805
179.058
196.073
210.565
222.271
230.973
236.513
238.742
237.608
233.256
225.581
214.72
200.824
184.068
164.665
142.859
118.915
93.1159
65.7739
37.215
7.77582
-22.1886
-52.3333
-82.3369
-111.893
-140.732
-168.626
-195.383
-220.854
-244.932
-267.538
-288.628
-308.189
-326.233
-342.792
-357.918
-371.677
-384.144
-395.4
-405.524
-414.587
-422.654
-429.777
-435.995
-441.342
-445.841
-449.504
-452.336
-454.333
-455.487
-455.784
-455.206
-453.74
-451.37
-448.088
-443.89
-438.772
-432.732
-425.765
-417.861
-409.004
-399.168
-388.317
-376.404
-363.377
-349.172
-333.713
-316.917
-298.71
-279.036
-257.854
-235.15
-210.936
-185.253
-158.182
-129.824
-100.32
-69.8499
-38.6341
-6.94259
24.9146
56.5777
87.6454
117.685
146.232
172.805
196.921
218.122
235.974
250.086
260.132
265.853
267.081
263.632
255.671
243.245
226.47
205.639
181.09
153.247
122.573
89.5786
54.8006
18.7719
-17.9576
-54.8658
-91.4819
-127.378
-162.169
-195.522
-227.179
-256.943
-284.667
-310.254
-333.653
-354.846
-373.845
-390.683
-405.413
-418.114
-428.89
-437.865
-445.18
-450.978
-455.402
-458.59
-460.666
-461.736
-461.884
-461.176
-459.655
-457.345
-454.268
-450.435
-445.862
-440.57
-434.579
-427.918
-420.614
-412.692
-404.158
-395.032
-385.3
-374.928
-363.865
-352.046
-339.396
-325.837
-311.289
-295.661
-278.885
-260.901
-241.692
-221.15
-199.16
-175.699
-150.875
-124.751
-97.3632
-68.7752
-39.0772
-8.3908
23.0748
55.1073
87.3615
119.375
150.767
181.065
209.759
236.361
260.242
280.899
297.702
310.04
317.919
323.546
325.071
321.887
314.406
303.046
287.964
269.518
248.217
224.444
198.792
171.684
143.618
115.108
86.4892
58.1228
30.3544
3.38415
-22.5531
-47.3278
-70.8048
-92.8697
-113.484
-132.606
-150.216
-166.342
-181.014
-194.297
-206.261
-216.984
-226.564
-235.094
-242.668
-249.376
-255.301
-260.511
-265.062
-268.99
-272.31
-275.02
-277.095
-278.498
-279.184
-278.914
-277.693
-275.429
-271.995
-267.278
-261.225
-253.73
-244.707
-234.145
-221.989
-208.221
-192.825
-175.789
-157.15
-136.953
-115.233
-92.0585
-67.5377
-41.7631
-14.8897
12.9397
41.6042
70.7573
99.9561
-339.67
-332.508
-324.514
-315.702
-306.078
-295.639
-284.366
-272.224
-259.17
-245.139
-230.067
-213.884
-196.518
-177.904
-157.987
-136.735
-114.134
-90.2013
-64.9967
-38.6189
-11.1857
17.1176
46.0733
75.4775
105.053
134.525
163.567
191.819
218.982
244.706
268.621
290.45
309.902
326.704
340.614
351.398
358.879
362.919
363.404
360.296
353.401
343.009
329.12
311.911
291.662
268.651
243.174
215.642
186.468
156.021
124.756
93.0841
61.3793
29.9931
-0.790439
-30.6926
-59.4951
-87.0335
-113.167
-137.799
-160.872
-182.364
-202.284
-220.653
-237.5
-252.896
-266.936
-279.64
-290.953
-300.868
-309.458
-316.887
-323.316
-329.053
-334.257
-338.969
-343.817
-348.782
-353.905
-359.184
-364.278
-369.171
-373.388
-376.839
-379.35
-380.516
-380.338
-378.313
-374.646
-369.393
-362.663
-354.506
-345.009
-334.201
-322.131
-308.845
-294.391
-278.801
-262.072
-244.191
-225.164
-205.013
-183.776
-161.503
-138.265
-114.151
-89.2725
-63.7643
-37.7871
-11.5242
14.815
41.0008
66.7827
91.8865
116.018
138.868
160.121
179.447
196.532
211.086
222.843
231.584
237.147
239.393
238.264
233.884
226.182
215.282
201.339
184.527
165.063
143.191
119.177
93.3076
65.8936
37.2625
7.75254
-22.2785
-52.4842
-82.5416
-112.143
-141.019
-168.94
-195.717
-221.2
-245.282
-267.886
-288.97
-308.521
-326.55
-343.092
-358.199
-371.939
-384.386
-395.624
-405.731
-414.781
-422.836
-429.95
-436.162
-441.505
-446.001
-449.663
-452.496
-454.496
-455.654
-455.954
-455.381
-453.918
-451.55
-448.271
-444.075
-438.958
-432.921
-425.957
-418.059
-409.209
-399.381
-388.54
-376.638
-363.626
-349.437
-333.995
-317.215
-299.021
-279.358
-258.183
-235.479
-211.261
-185.569
-158.481
-130.101
-100.568
-70.0582
-38.7946
-7.04491
24.8807
56.6217
87.7766
117.911
146.557
173.232
197.448
218.745
236.683
250.87
260.974
266.734
267.974
264.543
256.556
244.077
227.24
206.327
181.683
153.735
122.948
89.8403
54.948
18.8099
-18.0192
-55.0173
-91.713
-127.677
-162.523
-195.918
-227.606
-257.389
-285.124
-310.714
-334.11
-355.295
-374.282
-391.106
-405.817
-418.495
-429.245
-438.192
-445.478
-451.247
-455.644
-458.808
-460.862
-461.915
-462.051
-461.334
-459.807
-457.494
-454.413
-450.577
-446
-440.703
-434.707
-428.04
-420.732
-412.807
-404.273
-395.149
-385.424
-375.063
-364.014
-352.213
-339.584
-326.047
-311.523
-295.918
-279.162
-261.193
-241.995
-221.457
-199.463
-175.995
-151.16
-125.02
-97.6092
-68.9909
-39.2539
-8.51644
23.0109
55.1172
87.4568
119.568
151.068
181.483
210.299
237.025
261.025
281.791
298.703
311.201
319.184
324.68
326.087
322.874
315.344
303.893
288.701
270.126
248.705
224.808
199.036
171.82
143.657
115.062
86.3718
57.9465
30.1307
3.12399
-22.8404
-47.6338
-71.1231
-93.1942
-113.809
-132.928
-150.53
-166.644
-181.302
-194.568
-206.512
-217.216
-226.775
-235.285
-242.839
-249.531
-255.441
-260.641
-265.184
-269.108
-272.429
-275.143
-277.226
-278.636
-279.326
-279.088
-277.89
-275.647
-272.234
-267.538
-261.504
-254.027
-245.019
-234.47
-222.323
-208.564
-193.172
-176.139
-157.499
-137.299
-115.573
-92.3886
-67.8545
-42.0627
-15.1679
12.6888
41.3875
70.5811
99.8262
-339.877
-332.709
-324.71
-315.897
-306.276
-295.843
-284.58
-272.452
-259.414
-245.402
-230.35
-214.187
-196.842
-178.245
-158.343
-137.101
-114.505
-90.5688
-65.353
-38.955
-11.4929
16.8473
45.8479
75.3049
104.94
134.481
163.599
191.933
219.183
244.993
268.994
290.907
310.438
327.315
341.293
352.136
359.664
363.739
364.244
361.135
354.237
343.802
329.862
312.589
292.26
269.157
243.577
215.938
186.654
156.099
124.733
92.9671
61.1794
29.7226
-1.11893
-31.0669
-59.9032
-87.465
-113.612
-138.25
-161.321
-182.806
-202.714
-221.071
-237.906
-253.284
-267.302
-279.991
-291.297
-301.199
-309.764
-317.155
-323.524
-329.197
-334.341
-338.996
-343.77
-348.684
-353.78
-359.054
-364.168
-369.102
-373.368
-376.874
-379.427
-380.642
-380.451
-378.468
-374.839
-369.616
-362.909
-354.769
-345.284
-334.487
-322.428
-309.152
-294.709
-279.129
-262.407
-244.533
-225.51
-205.359
-184.117
-161.835
-138.583
-114.449
-89.5442
-64.0026
-37.9845
-11.6735
14.721
40.9701
66.8225
92.0036
116.218
139.157
160.499
179.914
197.081
211.711
223.53
232.317
237.909
240.17
239.049
234.639
226.902
215.956
201.956
185.077
165.539
143.588
119.492
93.5371
66.0367
37.3187
7.72374
-22.3874
-52.6662
-82.7884
-112.445
-141.364
-169.319
-196.118
-221.615
-245.703
-268.306
-289.382
-308.919
-326.931
-343.453
-358.537
-372.253
-384.677
-395.893
-405.98
-415.013
-423.055
-430.158
-436.363
-441.701
-446.194
-449.856
-452.69
-454.693
-455.855
-456.16
-455.591
-454.133
-451.769
-448.492
-444.298
-439.184
-433.149
-426.189
-418.297
-409.455
-399.637
-388.807
-376.921
-363.926
-349.757
-334.334
-317.573
-299.396
-279.746
-258.578
-235.876
-211.652
-185.949
-158.843
-130.436
-100.866
-70.3103
-38.9894
-7.17011
24.8376
56.6723
87.932
118.18
146.945
173.742
198.08
219.491
237.534
251.811
261.985
267.791
269.051
265.633
257.616
245.077
228.165
207.154
182.395
154.32
123.399
90.1529
55.1232
18.854
-18.0951
-55.2012
-91.9926
-128.038
-162.949
-196.395
-228.119
-257.926
-285.674
-311.267
-334.66
-355.836
-374.809
-391.615
-406.303
-418.953
-429.672
-438.586
-445.836
-451.57
-455.935
-459.069
-461.098
-462.131
-462.251
-461.525
-459.99
-457.672
-454.588
-450.748
-446.167
-440.864
-434.861
-428.188
-420.874
-412.946
-404.411
-395.29
-385.572
-375.224
-364.192
-352.413
-339.809
-326.3
-311.804
-296.226
-279.495
-261.545
-242.36
-221.826
-199.828
-176.35
-151.504
-125.344
-97.9057
-69.2512
-39.4673
-8.66856
22.9327
55.128
87.5701
119.798
151.429
181.984
210.947
237.824
261.968
282.868
299.911
312.567
320.648
326.042
327.337
324.074
316.473
304.911
289.588
270.852
249.288
225.243
199.329
171.982
143.702
115.005
86.2296
57.7336
29.861
2.81078
-23.186
-48.0018
-71.5056
-93.5842
-114.2
-133.314
-150.907
-167.007
-181.647
-194.892
-206.813
-217.493
-227.027
-235.513
-243.045
-249.717
-255.61
-260.796
-265.331
-269.25
-272.572
-275.292
-277.383
-278.802
-279.495
-279.295
-278.126
-275.909
-272.521
-267.85
-261.84
-254.383
-245.393
-234.859
-222.725
-208.974
-193.589
-176.559
-157.919
-137.716
-115.981
-92.7852
-68.2351
-42.4226
-15.5022
12.387
41.1265
70.3687
99.6697
-340.12
-332.943
-324.939
-316.124
-306.506
-296.081
-284.829
-272.717
-259.698
-245.708
-230.679
-214.541
-197.219
-178.644
-158.76
-137.53
-114.938
-90.9984
-65.7696
-39.3482
-11.8522
16.531
45.5839
75.1024
104.808
134.429
163.636
192.065
219.415
245.328
269.429
291.439
311.064
328.028
342.085
352.998
360.582
364.696
365.224
362.117
355.21
344.729
330.73
313.381
292.958
269.747
244.048
216.282
186.871
156.19
124.704
92.8294
60.9448
29.4055
-1.50362
-31.5049
-60.3806
-87.9695
-114.133
-138.778
-161.846
-183.322
-203.215
-221.558
-238.379
-253.738
-267.73
-280.402
-291.698
-301.586
-310.122
-317.469
-323.768
-329.367
-334.436
-339.029
-343.715
-348.569
-353.632
-358.9
-364.036
-369.018
-373.339
-376.908
-379.517
-380.778
-380.592
-378.654
-375.066
-369.878
-363.196
-355.077
-345.606
-334.822
-322.774
-309.511
-295.079
-279.51
-262.799
-244.932
-225.913
-205.762
-184.515
-162.222
-138.954
-114.798
-89.862
-64.2814
-38.2158
-11.8487
14.6101
40.9329
66.8677
92.1387
116.45
139.492
160.939
180.457
197.722
212.439
224.331
233.173
238.799
241.078
239.962
235.52
227.743
216.743
202.675
185.718
166.093
144.05
119.858
93.8039
66.2026
37.3832
7.6891
-22.5156
-52.8799
-83.0776
-112.798
-141.768
-169.762
-196.588
-222.101
-246.195
-268.796
-289.862
-309.384
-327.376
-343.874
-358.932
-372.62
-385.017
-396.207
-406.271
-415.285
-423.311
-430.402
-436.598
-441.93
-446.419
-450.08
-452.916
-454.923
-456.09
-456.401
-455.838
-454.384
-452.024
-448.75
-444.559
-439.447
-433.416
-426.46
-418.575
-409.743
-399.936
-389.121
-377.251
-364.276
-350.13
-334.731
-317.992
-299.835
-280.199
-259.041
-236.34
-212.111
-186.394
-159.267
-130.828
-101.217
-70.6068
-39.2189
-7.31828
24.7848
56.7288
88.1109
118.491
147.397
174.336
198.815
220.362
238.527
252.91
263.166
269.027
270.313
266.903
258.852
246.245
229.244
208.118
183.225
155.002
123.923
90.5165
55.3259
18.9033
-18.1858
-55.4185
-92.3215
-128.461
-163.449
-196.954
-228.721
-258.555
-286.317
-311.914
-335.302
-356.467
-375.425
-392.21
-406.871
-419.49
-430.172
-439.045
-446.255
-451.948
-456.274
-459.374
-461.374
-462.383
-462.486
-461.747
-460.205
-457.881
-454.793
-450.948
-446.362
-441.052
-435.042
-428.361
-421.04
-413.108
-404.572
-395.454
-385.746
-375.412
-364.401
-352.647
-340.072
-326.596
-312.133
-296.587
-279.884
-261.956
-242.786
-222.257
-200.254
-176.767
-151.905
-125.723
-98.2531
-69.5565
-39.718
-8.848
22.8397
55.1389
87.7008
120.065
151.849
182.569
211.705
238.757
263.072
284.131
301.326
314.144
322.318
327.629
328.82
325.487
317.795
306.101
290.621
271.719
249.97
225.749
199.668
172.169
143.752
114.936
86.0617
57.4834
29.5449
2.44398
-23.5905
-48.4322
-71.9528
-94.0399
-114.657
-133.766
-151.347
-167.431
-182.051
-195.271
-207.166
-217.817
-227.322
-235.78
-243.285
-249.933
-255.806
-260.977
-265.501
-269.416
-272.738
-275.464
-277.565
-278.996
-279.691
-279.538
-278.402
-276.215
-272.856
-268.214
-262.231
-254.798
-245.829
-235.314
-223.193
-209.454
-194.077
-177.049
-158.409
-138.201
-116.458
-93.2483
-68.6796
-42.8432
-15.8931
12.0339
40.8208
70.1197
99.4863
-340.396
-333.211
-325.2
-316.384
-306.769
-296.351
-285.114
-273.02
-260.023
-246.058
-231.056
-214.946
-197.651
-179.1
-159.236
-138.02
-115.435
-91.4905
-66.247
-39.7989
-12.2642
16.1682
45.2809
74.8698
104.655
134.367
163.676
192.216
219.681
245.711
269.927
292.048
311.779
328.843
342.992
353.984
361.631
365.792
366.346
363.242
356.321
345.792
331.724
314.287
293.758
270.422
244.585
216.675
187.117
156.292
124.67
92.6701
60.6746
29.0411
-1.94519
-32.0072
-60.9278
-88.5473
-114.729
-139.381
-162.447
-183.911
-203.788
-222.113
-238.919
-254.259
-268.221
-280.871
-292.157
-302.029
-310.532
-317.83
-324.05
-329.563
-334.543
-339.068
-343.652
-348.435
-353.459
-358.719
-363.88
-368.914
-373.299
-376.942
-379.615
-380.925
-380.761
-378.871
-375.328
-370.178
-363.525
-355.428
-345.974
-335.204
-323.17
-309.92
-295.502
-279.946
-263.246
-245.388
-226.374
-206.222
-184.97
-162.666
-139.379
-115.197
-90.226
-64.601
-38.4812
-12.0502
14.4819
40.8888
66.9176
92.2915
116.714
139.873
161.441
181.077
198.454
213.272
225.247
234.152
239.818
242.116
241.001
236.528
228.704
217.641
203.496
186.45
166.726
144.578
120.275
94.1079
66.3913
37.4559
7.64819
-22.6636
-53.1258
-83.4098
-113.202
-142.232
-170.27
-197.126
-222.657
-246.759
-269.356
-290.412
-309.916
-327.885
-344.355
-359.383
-373.039
-385.405
-396.566
-406.604
-415.595
-423.603
-430.68
-436.866
-442.191
-446.677
-450.337
-453.175
-455.186
-456.359
-456.677
-456.12
-454.673
-452.317
-449.047
-444.858
-439.748
-433.721
-426.771
-418.894
-410.072
-400.279
-389.479
-377.628
-364.677
-350.557
-335.185
-318.471
-300.336
-280.719
-259.57
-236.872
-212.636
-186.904
-159.752
-131.278
-101.619
-70.9477
-39.4835
-7.48993
24.7224
56.7912
88.3131
118.845
147.911
175.014
199.656
221.357
239.663
254.167
264.518
270.442
271.759
268.356
260.266
247.584
230.481
209.222
184.175
155.782
124.522
90.9307
55.5555
18.9574
-18.2923
-55.6698
-92.7003
-128.948
-164.023
-197.595
-229.411
-259.277
-287.054
-312.655
-336.038
-357.19
-376.13
-392.891
-407.521
-420.103
-430.743
-439.571
-446.734
-452.38
-456.663
-459.723
-461.689
-462.67
-462.753
-462.001
-460.45
-458.12
-455.028
-451.178
-446.585
-441.268
-435.249
-428.559
-421.231
-413.294
-404.755
-395.642
-385.944
-375.628
-364.64
-352.915
-340.374
-326.935
-312.51
-297.001
-280.33
-262.427
-243.275
-222.75
-200.742
-177.245
-152.366
-126.159
-98.652
-69.9075
-40.0067
-9.05528
22.7311
55.1493
87.8482
120.369
152.328
183.236
212.571
239.826
264.338
285.579
302.946
315.932
324.201
329.444
330.534
327.115
319.31
307.464
291.8
272.718
250.752
226.327
200.053
172.38
143.806
114.855
85.8672
57.1951
29.1814
2.02294
-24.0543
-48.9254
-72.465
-94.5617
-115.179
-134.282
-151.851
-167.917
-182.512
-195.705
-207.568
-218.187
-227.659
-236.084
-243.559
-250.18
-256.03
-261.183
-265.695
-269.604
-272.928
-275.661
-277.774
-279.218
-279.914
-279.816
-278.717
-276.564
-273.24
-268.63
-262.678
-255.274
-246.329
-235.834
-223.73
-210.003
-194.634
-177.611
-158.97
-138.757
-117.004
-93.7783
-69.1885
-43.3247
-16.3408
11.6291
40.4699
69.8337
99.2753
-340.707
-333.511
-325.494
-316.675
-307.063
-296.655
-285.433
-273.36
-260.387
-246.451
-231.48
-215.401
-198.137
-179.614
-159.773
-138.573
-115.994
-92.0457
-66.7858
-40.3075
-12.7294
15.7584
44.9384
74.6063
104.482
134.296
163.72
192.384
219.979
246.141
270.486
292.732
312.583
329.76
344.012
355.094
362.813
367.026
367.609
364.51
357.572
346.991
332.846
315.309
294.659
271.183
245.19
217.117
187.394
156.406
124.63
92.4887
60.3683
28.6287
-2.44441
-32.5746
-61.5454
-89.1992
-115.401
-140.062
-163.124
-184.575
-204.433
-222.737
-239.526
-254.845
-268.776
-281.4
-292.674
-302.529
-310.997
-318.238
-324.371
-329.785
-334.66
-339.114
-343.581
-348.281
-353.261
-358.511
-363.699
-368.791
-373.246
-376.974
-379.724
-381.086
-380.956
-379.12
-375.625
-370.517
-363.895
-355.823
-346.387
-335.633
-323.614
-310.381
-295.978
-280.436
-263.749
-245.901
-226.893
-206.741
-185.482
-163.165
-139.857
-115.646
-90.6366
-64.9619
-38.7813
-12.2786
14.3359
40.8372
66.9717
92.4611
117.009
140.301
162.004
181.773
199.276
214.208
226.277
235.253
240.965
243.284
242.169
237.662
229.784
218.651
204.42
187.272
167.437
145.17
120.743
94.4487
66.6025
37.5363
7.60068
-22.8317
-53.4042
-83.7854
-113.66
-142.755
-170.843
-197.733
-223.284
-247.394
-269.988
-291.031
-310.515
-328.457
-344.896
-359.89
-373.511
-385.841
-396.968
-406.977
-415.943
-423.931
-430.993
-437.168
-442.485
-446.967
-450.626
-453.467
-455.482
-456.662
-456.987
-456.438
-454.998
-452.647
-449.381
-445.194
-440.088
-434.065
-427.121
-419.253
-410.443
-400.664
-389.882
-378.053
-365.128
-351.038
-335.697
-319.011
-300.902
-281.304
-260.167
-237.471