/*--------------------------------*- C++ -*----------------------------------*\
| =========                 |                                                 |
| \\      /  F ield         | OpenFOAM: The Open Source CFD Toolbox           |
|  \\    /   O peration     | Version:  3.0.1                                 |
|   \\  /    A nd           | Web:      www.OpenFOAM.org                      |
|    \\/     M anipulation  |                                                 |
\*---------------------------------------------------------------------------*/
FoamFile
{
    version     2.0;
    format      ascii;
    class       volVectorField;
    location    "50.8";
    object      U;
}
// * * * * * * * * * * * * * * * * * * * * * * * * * * * * * * * * * * * * * //

dimensions      [0 1 -1 0 0 0 0];

internalField   nonuniform List<vector> 
21420
(
(0.192147 -0.00112131 0)
(0.201027 -0.000926323 0)
(0.209237 -0.000701801 0)
(0.215159 -0.000466484 0)
(0.218678 -0.000222774 0)
(0.219692 2.37438e-05 0)
(0.218281 0.000265752 0)
(0.214309 0.000510787 0)
(0.207967 0.000747251 0)
(0.199361 0.000957672 0)
(0.188646 0.00116245 0)
(0.176013 0.0013513 0)
(0.161693 0.00148974 0)
(0.145938 0.00163067 0)
(0.129007 0.00171293 0)
(0.111171 0.00180187 0)
(0.0926803 0.00186713 0)
(0.0737843 0.00187162 0)
(0.0547131 0.00188843 0)
(0.0355796 0.00188393 0)
(0.016477 0.00183385 0)
(-0.00169562 0.00177755 0)
(-0.0189767 0.00172503 0)
(-0.0358496 0.00163666 0)
(-0.0519406 0.00155866 0)
(-0.0671498 0.00145747 0)
(-0.0814202 0.00136788 0)
(-0.0947179 0.00127352 0)
(-0.107024 0.00116908 0)
(-0.118341 0.0010743 0)
(-0.128678 0.000979352 0)
(-0.138053 0.000882003 0)
(-0.146491 0.000791786 0)
(-0.154022 0.000701428 0)
(-0.160676 0.000616797 0)
(-0.166484 0.000534346 0)
(-0.171474 0.000453487 0)
(-0.175674 0.000376114 0)
(-0.179109 0.000300177 0)
(-0.181803 0.000225984 0)
(-0.183779 0.000154483 0)
(-0.185014 8.67517e-05 0)
(-0.18557 1.60599e-05 0)
(-0.185382 -5.73625e-05 0)
(-0.184467 -0.000132173 0)
(-0.182837 -0.000204444 0)
(-0.180447 -0.000278171 0)
(-0.177288 -0.000357187 0)
(-0.173351 -0.000432796 0)
(-0.168581 -0.00051388 0)
(-0.162959 -0.000605294 0)
(-0.156456 -0.00068886 0)
(-0.149004 -0.000787904 0)
(-0.140637 -0.000878279 0)
(-0.131298 -0.000966572 0)
(-0.120974 -0.00107513 0)
(-0.109662 -0.00116704 0)
(-0.0973109 -0.00125185 0)
(-0.0840788 -0.00136563 0)
(-0.0699366 -0.00144486 0)
(-0.0548253 -0.00154091 0)
(-0.0388807 -0.00162002 0)
(-0.0222209 -0.00167521 0)
(-0.00492746 -0.00174015 0)
(0.0128996 -0.00178421 0)
(0.0310706 -0.00179778 0)
(0.0493971 -0.0018195 0)
(0.0677221 -0.00180428 0)
(0.0858371 -0.00178148 0)
(0.103605 -0.00173691 0)
(0.120745 -0.00165937 0)
(0.137047 -0.00156927 0)
(0.152281 -0.00146337 0)
(0.166228 -0.00131905 0)
(0.17875 -0.00116857 0)
(0.189533 -0.000995861 0)
(0.198552 -0.000808259 0)
(0.205638 -0.000598401 0)
(0.210499 -0.00038247 0)
(0.213143 -0.000156279 0)
(0.213413 6.5262e-05 0)
(0.211464 0.000298054 0)
(0.20717 0.000524501 0)
(0.200568 0.000748009 0)
(0.192021 0.00094936 0)
(0.181358 0.00113706 0)
(0.168926 0.00130942 0)
(0.154848 0.00146519 0)
(0.139336 0.00159866 0)
(0.122614 0.00171429 0)
(0.104823 0.00179976 0)
(0.086296 0.0018651 0)
(0.0672178 0.00190597 0)
(0.0478669 0.00192333 0)
(0.0285252 0.00191774 0)
(0.00936344 0.0018838 0)
(-0.00938965 0.00183325 0)
(-0.0275271 0.00176526 0)
(-0.0448825 0.00167966 0)
(-0.0613004 0.00157905 0)
(-0.0766979 0.0014751 0)
(-0.0909973 0.00136184 0)
(-0.104131 0.00125024 0)
(-0.116151 0.00113888 0)
(-0.127039 0.00102103 0)
(-0.136778 0.00090842 0)
(-0.14543 0.000808799 0)
(-0.153053 0.000711123 0)
(-0.159709 0.000614694 0)
(-0.165413 0.000517653 0)
(-0.170216 0.000435462 0)
(-0.17419 0.000356671 0)
(-0.177372 0.000277917 0)
(-0.179777 0.000199423 0)
(-0.18147 0.000131737 0)
(-0.182456 6.11835e-05 0)
(-0.182758 -9.44822e-07 0)
(-0.182343 -6.72594e-05 0)
(-0.181315 -0.000134209 0)
(-0.179613 -0.000198679 0)
(-0.177276 -0.000264782 0)
(-0.174268 -0.000332386 0)
(-0.170611 -0.000393461 0)
(-0.166321 -0.000457233 0)
(-0.161369 -0.00052389 0)
(-0.155734 -0.00058799 0)
(-0.149463 -0.000656285 0)
(-0.142486 -0.000730446 0)
(-0.134783 -0.000793069 0)
(-0.126366 -0.000872173 0)
(-0.11718 -0.000948761 0)
(-0.107211 -0.00103042 0)
(-0.0964183 -0.00110939 0)
(-0.0848069 -0.00119408 0)
(-0.0723615 -0.00127391 0)
(-0.0591098 -0.00135925 0)
(-0.0450328 -0.00142854 0)
(-0.0302198 -0.00151167 0)
(-0.0146949 -0.00156339 0)
(0.00149499 -0.00162749 0)
(0.0181615 -0.00167662 0)
(0.0352408 -0.00170973 0)
(0.0525333 -0.00171956 0)
(0.0698605 -0.00171589 0)
(0.0870293 -0.00168316 0)
(0.103762 -0.00163199 0)
(0.119859 -0.00155658 0)
(0.135041 -0.00145353 0)
(0.14905 -0.00132469 0)
(0.161656 -0.00116617 0)
(0.172559 -0.000993571 0)
(0.181599 -0.000794628 0)
(0.188555 -0.000583316 0)
(0.193279 -0.000352038 0)
(0.195635 -0.000116212 0)
(0.195601 0.000125513 0)
(0.193052 0.000372162 0)
(0.188055 0.00061208 0)
(0.180747 0.000835064 0)
(0.171242 0.00104458 0)
(0.159708 0.00124491 0)
(0.146331 0.0014076 0)
(0.131395 0.00155308 0)
(0.115144 0.00167104 0)
(0.0978697 0.00175459 0)
(0.0798685 0.00181441 0)
(0.0614224 0.00184098 0)
(0.0428479 0.00184324 0)
(0.0243307 0.00183043 0)
(0.00608651 0.00178796 0)
(-0.0116561 0.00173241 0)
(-0.0287744 0.00167086 0)
(-0.0451884 0.00158762 0)
(-0.0607641 0.00149973 0)
(-0.0754002 0.00141099 0)
(-0.0891159 0.00130934 0)
(-0.101851 0.00121344 0)
(-0.113569 0.00112234 0)
(-0.124351 0.00101927 0)
(-0.134161 0.000919489 0)
(-0.142943 0.000827703 0)
(-0.150768 0.000729247 0)
(-0.157647 0.000637656 0)
(-0.163578 0.000545604 0)
(-0.168669 0.000467014 0)
(-0.173018 0.000396353 0)
(-0.176684 0.000330336 0)
(-0.179733 0.000268346 0)
(-0.182173 0.000213011 0)
(-0.184007 0.000149597 0)
(-0.185207 9.15083e-05 0)
(-0.185811 3.26014e-05 0)
(-0.185875 -2.48098e-05 0)
(-0.18536 -7.06479e-05 0)
(-0.184267 -0.000134403 0)
(-0.182648 -0.000183401 0)
(-0.180492 -0.000242093 0)
(-0.177748 -0.000301192 0)
(-0.174409 -0.000358582 0)
(-0.170424 -0.000427551 0)
(-0.165753 -0.000500238 0)
(-0.160355 -0.000572122 0)
(-0.154208 -0.000648024 0)
(-0.147295 -0.000726747 0)
(-0.139572 -0.000803795 0)
(-0.131038 -0.000889726 0)
(-0.121661 -0.000969018 0)
(-0.111446 -0.00106201 0)
(-0.100336 -0.00113732 0)
(-0.0883444 -0.00123167 0)
(-0.0755147 -0.0013146 0)
(-0.0618523 -0.00139236 0)
(-0.0474787 -0.00145846 0)
(-0.0324556 -0.00151989 0)
(-0.0169103 -0.00157089 0)
(-0.000896879 -0.00160388 0)
(0.0155103 -0.00163446 0)
(0.0320686 -0.00165089 0)
(0.0487031 -0.00164452 0)
(0.0651941 -0.00162587 0)
(0.0814005 -0.0015871 0)
(0.0971166 -0.00152592 0)
(0.112109 -0.00144336 0)
(0.126153 -0.00133909 0)
(0.13903 -0.00121158 0)
(0.150505 -0.00106089 0)
(0.160355 -0.000888868 0)
(0.168342 -0.00069524 0)
(0.174294 -0.000480465 0)
(0.178033 -0.000260736 0)
(0.179467 -2.56918e-05 0)
(0.178607 0.000204646 0)
(0.175273 0.000446055 0)
(0.169632 0.000670756 0)
(0.16178 0.000883258 0)
(0.151874 0.0010827 0)
(0.14007 0.00125639 0)
(0.126607 0.001409 0)
(0.111737 0.00153758 0)
(0.095725 0.00163848 0)
(0.0788245 0.00170994 0)
(0.0613194 0.00175811 0)
(0.0435144 0.00177894 0)
(0.0255975 0.00177139 0)
(0.00786013 0.0017436 0)
(-0.00950106 0.00170701 0)
(-0.026366 0.00164175 0)
(-0.0425149 0.00156373 0)
(-0.0578621 0.00148943 0)
(-0.0723742 0.00138865 0)
(-0.0859239 0.00129449 0)
(-0.0984754 0.00120354 0)
(-0.110084 0.00109974 0)
(-0.120704 0.00100511 0)
(-0.130345 0.000916181 0)
(-0.139106 0.000820049 0)
(-0.146977 0.000738183 0)
(-0.154006 0.000661358 0)
(-0.160261 0.000583024 0)
(-0.165753 0.000507409 0)
(-0.17053 0.000442815 0)
(-0.174615 0.000371227 0)
(-0.178003 0.000304079 0)
(-0.180743 0.000241327 0)
(-0.18283 0.000176011 0)
(-0.184279 0.000113781 0)
(-0.185083 5.47522e-05 0)
(-0.185268 3.75125e-07 0)
(-0.184859 -7.99075e-05 0)
(-0.183871 -0.000119587 0)
(-0.182268 -0.000182565 0)
(-0.179996 -0.000242472 0)
(-0.177187 -0.000304542 0)
(-0.173717 -0.000367656 0)
(-0.169665 -0.00043176 0)
(-0.164999 -0.000499665 0)
(-0.159574 -0.000571017 0)
(-0.153423 -0.000637478 0)
(-0.146504 -0.000723375 0)
(-0.13876 -0.000817593 0)
(-0.130068 -0.000902322 0)
(-0.120385 -0.00100265 0)
(-0.109727 -0.00109374 0)
(-0.0981212 -0.00118025 0)
(-0.0855795 -0.00128431 0)
(-0.0722115 -0.00136596 0)
(-0.0580395 -0.00143738 0)
(-0.0430011 -0.00152496 0)
(-0.0272021 -0.00158093 0)
(-0.0108941 -0.00165312 0)
(0.0057839 -0.00169934 0)
(0.0229018 -0.00173512 0)
(0.0404748 -0.00177581 0)
(0.0583436 -0.0017925 0)
(0.0762929 -0.00177797 0)
(0.09408 -0.00175954 0)
(0.111519 -0.00171037 0)
(0.128332 -0.00162574 0)
(0.144244 -0.00152943 0)
(0.158994 -0.0013949 0)
(0.172325 -0.00124469 0)
(0.183999 -0.00106314 0)
(0.193753 -0.000860015 0)
(0.201434 -0.000646938 0)
(0.206899 -0.000416252 0)
(0.210006 -0.000176894 0)
(0.210716 5.19245e-05 0)
(0.209041 0.000291146 0)
(0.204891 0.000510445 0)
(0.198623 0.000721942 0)
(0.190296 0.000925503 0)
(0.180113 0.00108492 0)
(0.168322 0.00123878 0)
(0.155163 0.0013735 0)
(0.140874 0.00145523 0)
(0.125741 0.00153603 0)
(0.110007 0.0015677 0)
(0.0939127 0.0016 0)
(0.0776811 0.00161301 0)
(0.0614608 0.00158415 0)
(0.0454767 0.00156353 0)
(0.0297303 0.00152448 0)
(0.0144921 0.00146308 0)
(0.000268435 0.00140552 0)
(-0.0132396 0.00133167 0)
(-0.0262962 0.0012676 0)
(-0.0386819 0.0011995 0)
(-0.0503532 0.00112119 0)
(-0.0613003 0.00105175 0)
(-0.0715251 0.000982036 0)
(-0.0810342 0.00090773 0)
(-0.0898421 0.000840662 0)
(-0.0979633 0.000774186 0)
(-0.105409 0.000705247 0)
(-0.112189 0.000640702 0)
(-0.118311 0.000573905 0)
(-0.123778 0.000509799 0)
(-0.128589 0.000445009 0)
(-0.132741 0.00037846 0)
(-0.136227 0.000312452 0)
(-0.13904 0.000245405 0)
(-0.141178 0.000176798 0)
(-0.142622 0.000107592 0)
(-0.14337 3.96357e-05 0)
(-0.143447 -3.09118e-05 0)
(-0.142791 -0.000101441 0)
(-0.141422 -0.000172534 0)
(-0.139338 -0.000243379 0)
(-0.136536 -0.000313769 0)
(-0.133021 -0.000385062 0)
(-0.128795 -0.000454954 0)
(-0.123857 -0.000526553 0)
(-0.118211 -0.000595785 0)
(-0.111855 -0.000664348 0)
(-0.104796 -0.000736775 0)
(-0.0970269 -0.00080447 0)
(-0.0872097 -0.000871246 0)
(0.192224 -0.00336475 0)
(0.201111 -0.00277969 0)
(0.209327 -0.00210598 0)
(0.215254 -0.00139987 0)
(0.218775 -0.000667402 0)
(0.219791 7.07101e-05 0)
(0.218379 0.000796351 0)
(0.214402 0.0015327 0)
(0.208058 0.00224225 0)
(0.199444 0.00287366 0)
(0.188722 0.00348813 0)
(0.176081 0.00405481 0)
(0.16175 0.00447018 0)
(0.145986 0.00489302 0)
(0.129044 0.00513979 0)
(0.111198 0.00540664 0)
(0.0926976 0.00560236 0)
(0.0737923 0.00561574 0)
(0.0547126 0.00566606 0)
(0.0355719 0.00565248 0)
(0.0164597 0.00550265 0)
(-0.0017189 0.00533271 0)
(-0.0190018 0.00517558 0)
(-0.0358791 0.00491037 0)
(-0.0519737 0.00467634 0)
(-0.0671844 0.00437262 0)
(-0.0814565 0.00410377 0)
(-0.0947551 0.00382064 0)
(-0.107061 0.00350722 0)
(-0.118378 0.00322288 0)
(-0.128715 0.00293802 0)
(-0.138088 0.00264595 0)
(-0.146525 0.00237526 0)
(-0.154055 0.00210418 0)
(-0.160708 0.00185028 0)
(-0.166515 0.00160299 0)
(-0.171504 0.0013605 0)
(-0.175704 0.00112797 0)
(-0.179137 0.000900859 0)
(-0.181831 0.00067869 0)
(-0.183807 0.000462019 0)
(-0.185045 0.00026005 0)
(-0.1856 4.86604e-05 0)
(-0.185412 -0.000171955 0)
(-0.184499 -0.000396197 0)
(-0.182869 -0.000612922 0)
(-0.18048 -0.00083458 0)
(-0.177324 -0.00107136 0)
(-0.173389 -0.00129813 0)
(-0.168621 -0.00154131 0)
(-0.163002 -0.00181569 0)
(-0.156501 -0.00206625 0)
(-0.149052 -0.00236367 0)
(-0.140688 -0.00263397 0)
(-0.131349 -0.00289925 0)
(-0.121029 -0.00322558 0)
(-0.109718 -0.00350109 0)
(-0.0973673 -0.0037551 0)
(-0.0841356 -0.00409713 0)
(-0.0699911 -0.0043349 0)
(-0.0548779 -0.004623 0)
(-0.038932 -0.00486123 0)
(-0.0222654 -0.00502768 0)
(-0.00496591 -0.00522252 0)
(0.0128721 -0.00534807 0)
(0.0310444 -0.00539833 0)
(0.0493873 -0.00545926 0)
(0.0677203 -0.00541273 0)
(0.0858471 -0.00534687 0)
(0.103631 -0.00520636 0)
(0.120772 -0.00498568 0)
(0.137096 -0.00470983 0)
(0.152343 -0.00438635 0)
(0.166298 -0.00395815 0)
(0.178834 -0.00350866 0)
(0.189617 -0.00299246 0)
(0.198661 -0.00242028 0)
(0.205748 -0.00179555 0)
(0.210613 -0.00114963 0)
(0.213261 -0.000471241 0)
(0.213535 0.000194757 0)
(0.211579 0.000892416 0)
(0.207292 0.0015765 0)
(0.20068 0.00223972 0)
(0.192132 0.00284567 0)
(0.18146 0.00341945 0)
(0.169017 0.00392095 0)
(0.154935 0.00440116 0)
(0.139398 0.00479155 0)
(0.122674 0.00513845 0)
(0.104867 0.00540995 0)
(0.0863159 0.00559455 0)
(0.0672273 0.00571752 0)
(0.0478587 0.0057792 0)
(0.028494 0.00574467 0)
(0.00932389 0.00565134 0)
(-0.00944685 0.00550434 0)
(-0.0275999 0.00529335 0)
(-0.0449602 0.00503633 0)
(-0.0613863 0.00474487 0)
(-0.0767937 0.00442425 0)
(-0.091091 0.00408623 0)
(-0.104233 0.00374952 0)
(-0.116258 0.00340365 0)
(-0.127134 0.00305508 0)
(-0.136868 0.00273212 0)
(-0.145524 0.00242854 0)
(-0.15315 0.00212575 0)
(-0.159798 0.00183672 0)
(-0.165499 0.00156579 0)
(-0.170312 0.00130322 0)
(-0.174288 0.00106188 0)
(-0.17746 0.000825654 0)
(-0.179863 0.000612455 0)
(-0.181564 0.000389623 0)
(-0.182541 0.000180826 0)
(-0.182839 2.84381e-06 0)
(-0.182438 -0.000210517 0)
(-0.181411 -0.000403833 0)
(-0.179713 -0.000601998 0)
(-0.177369 -0.000793974 0)
(-0.174365 -0.000987508 0)
(-0.170715 -0.00118106 0)
(-0.166426 -0.00137083 0)
(-0.161476 -0.00157233 0)
(-0.155844 -0.00176988 0)
(-0.149569 -0.00197004 0)
(-0.142591 -0.00218044 0)
(-0.134904 -0.00238869 0)
(-0.126489 -0.00262152 0)
(-0.117298 -0.00284517 0)
(-0.107332 -0.00308611 0)
(-0.0965436 -0.00332775 0)
(-0.0849353 -0.00357787 0)
(-0.0724939 -0.00382217 0)
(-0.0592408 -0.00407947 0)
(-0.0451661 -0.00429552 0)
(-0.0303477 -0.00453981 0)
(-0.0148189 -0.00469734 0)
(0.00137376 -0.00489203 0)
(0.0180652 -0.00501936 0)
(0.0351316 -0.00512521 0)
(0.0524288 -0.00516654 0)
(0.06978 -0.00514303 0)
(0.086946 -0.00506168 0)
(0.103704 -0.00490118 0)
(0.119815 -0.0046685 0)
(0.135005 -0.00436439 0)
(0.149032 -0.00397779 0)
(0.161644 -0.00350987 0)
(0.172572 -0.00297624 0)
(0.181613 -0.00239117 0)
(0.188584 -0.00175173 0)
(0.193318 -0.00105642 0)
(0.195677 -0.00035125 0)
(0.195641 0.000371699 0)
(0.19309 0.00111649 0)
(0.188107 0.00182987 0)
(0.180796 0.00250804 0)
(0.171283 0.00313005 0)
(0.159739 0.00373038 0)
(0.146358 0.00422724 0)
(0.131408 0.0046611 0)
(0.115139 0.00500396 0)
(0.0978532 0.00526441 0)
(0.0798362 0.00544312 0)
(0.0613887 0.0055253 0)
(0.0428015 0.00553715 0)
(0.0242683 0.00548888 0)
(0.00602375 0.00535943 0)
(-0.0117258 0.00519889 0)
(-0.0288551 0.00501142 0)
(-0.0452728 0.00475705 0)
(-0.0608421 0.00449999 0)
(-0.0754862 0.00423565 0)
(-0.0892092 0.0039243 0)
(-0.101944 0.00364234 0)
(-0.113672 0.00335886 0)
(-0.124446 0.00304731 0)
(-0.134246 0.00276285 0)
(-0.143038 0.00248902 0)
(-0.150866 0.00218036 0)
(-0.157742 0.00191249 0)
(-0.163674 0.00163599 0)
(-0.168762 0.00140212 0)
(-0.173105 0.00118454 0)
(-0.176764 0.000995636 0)
(-0.179811 0.000815935 0)
(-0.182262 0.000636675 0)
(-0.184096 0.000445836 0)
(-0.1853 0.000276593 0)
(-0.185908 9.79292e-05 0)
(-0.18597 -8.16753e-05 0)
(-0.185462 -0.000220955 0)
(-0.184364 -0.000405802 0)
(-0.182752 -0.000555422 0)
(-0.180594 -0.000725685 0)
(-0.177855 -0.000899282 0)
(-0.174523 -0.00108978 0)
(-0.170539 -0.00128364 0)
(-0.165867 -0.00148987 0)
(-0.160474 -0.00171224 0)
(-0.15433 -0.00193852 0)
(-0.147418 -0.00217909 0)
(-0.139699 -0.00240895 0)
(-0.131172 -0.00266967 0)
(-0.121794 -0.0029058 0)
(-0.111585 -0.00319262 0)
(-0.10047 -0.00341612 0)
(-0.0884816 -0.00369402 0)
(-0.0756511 -0.00393812 0)
(-0.061987 -0.00417062 0)
(-0.0476152 -0.00438695 0)
(-0.0325777 -0.00455597 0)
(-0.0170366 -0.00472428 0)
(-0.00100163 -0.00480737 0)
(0.0154014 -0.00490832 0)
(0.0319777 -0.00495227 0)
(0.0486167 -0.00493225 0)
(0.0651177 -0.00487901 0)
(0.0813313 -0.00476127 0)
(0.0970547 -0.0045866 0)
(0.11206 -0.0043329 0)
(0.126112 -0.00402579 0)
(0.139004 -0.00363553 0)
(0.150497 -0.00318822 0)
(0.160365 -0.00266615 0)
(0.168362 -0.00209108 0)
(0.174327 -0.00144393 0)
(0.178074 -0.000783059 0)
(0.179511 -8.44987e-05 0)
(0.178651 0.000613777 0)
(0.175315 0.00133365 0)
(0.169683 0.00201034 0)
(0.161822 0.00265353 0)
(0.151901 0.00323973 0)
(0.140101 0.003771 0)
(0.12663 0.00423132 0)
(0.111742 0.00461183 0)
(0.0957215 0.00491651 0)
(0.078807 0.0051267 0)
(0.0612923 0.00527284 0)
(0.043471 0.0053357 0)
(0.0255512 0.00531126 0)
(0.00780276 0.00524207 0)
(-0.00957518 0.00511378 0)
(-0.0264405 0.00491645 0)
(-0.0425936 0.00469119 0)
(-0.0579454 0.00446433 0)
(-0.0724535 0.00416847 0)
(-0.0860092 0.00389346 0)
(-0.0985694 0.00360748 0)
(-0.110179 0.00330088 0)
(-0.120801 0.00301027 0)
(-0.130444 0.00274775 0)
(-0.139207 0.0024637 0)
(-0.147079 0.00221408 0)
(-0.154107 0.00197873 0)
(-0.160358 0.00174626 0)
(-0.165852 0.00152787 0)
(-0.170638 0.00131787 0)
(-0.174717 0.00111409 0)
(-0.178102 0.000916706 0)
(-0.180845 0.00072515 0)
(-0.182928 0.000526416 0)
(-0.184376 0.000340836 0)
(-0.185179 0.000157534 0)
(-0.185358 -7.83683e-06 0)
(-0.184929 -0.000227726 0)
(-0.183943 -0.000360122 0)
(-0.182334 -0.000545821 0)
(-0.180062 -0.000728301 0)
(-0.17725 -0.000915745 0)
(-0.173778 -0.00110347 0)
(-0.169729 -0.00130038 0)
(-0.16505 -0.00149336 0)
(-0.159629 -0.00171474 0)
(-0.15348 -0.00191418 0)
(-0.146562 -0.00216825 0)
(-0.138825 -0.00245849 0)
(-0.130124 -0.00270456 0)
(-0.120445 -0.0030075 0)
(-0.109785 -0.00328069 0)
(-0.0981807 -0.00354159 0)
(-0.0856341 -0.00385009 0)
(-0.0722683 -0.00410322 0)
(-0.0580883 -0.00431222 0)
(-0.043045 -0.00457166 0)
(-0.0272466 -0.00474725 0)
(-0.010929 -0.00495722 0)
(0.00574971 -0.00510258 0)
(0.0228746 -0.00520499 0)
(0.0404552 -0.00532733 0)
(0.0583316 -0.00537731 0)
(0.0762906 -0.00533271 0)
(0.0940887 -0.00528342 0)
(0.111539 -0.00512805 0)
(0.128361 -0.00488397 0)
(0.144291 -0.00459595 0)
(0.159053 -0.00418928 0)
(0.172394 -0.0037327 0)
(0.184073 -0.00319879 0)
(0.193844 -0.00257882 0)
(0.201531 -0.00193628 0)
(0.206993 -0.00125583 0)
(0.210115 -0.000527417 0)
(0.210822 0.000155528 0)
(0.209131 0.000873711 0)
(0.204984 0.00153104 0)
(0.198712 0.00216627 0)
(0.190377 0.00277718 0)
(0.180185 0.00325562 0)
(0.168384 0.00371724 0)
(0.155215 0.0041215 0)
(0.140916 0.00436665 0)
(0.125772 0.00460904 0)
(0.110027 0.00470394 0)
(0.0939247 0.00480087 0)
(0.0776844 0.00483971 0)
(0.0614575 0.00475309 0)
(0.0454669 0.00469113 0)
(0.0297152 0.00457386 0)
(0.0144734 0.00439002 0)
(0.000246234 0.00421643 0)
(-0.013263 0.00399512 0)
(-0.0263213 0.00380294 0)
(-0.0387082 0.00359861 0)
(-0.0503797 0.00336363 0)
(-0.061327 0.00315527 0)
(-0.0715518 0.0029461 0)
(-0.0810604 0.00272317 0)
(-0.089868 0.00252197 0)
(-0.097989 0.00232255 0)
(-0.105434 0.00211574 0)
(-0.112214 0.00192212 0)
(-0.118336 0.00172173 0)
(-0.123803 0.00152942 0)
(-0.128615 0.00133505 0)
(-0.132767 0.00113542 0)
(-0.136253 0.000937373 0)
(-0.139067 0.000736179 0)
(-0.141204 0.000530548 0)
(-0.14265 0.000322978 0)
(-0.143398 0.000118772 0)
(-0.143475 -9.27925e-05 0)
(-0.142819 -0.000304327 0)
(-0.14145 -0.000517626 0)
(-0.139366 -0.000730131 0)
(-0.136564 -0.000941296 0)
(-0.13305 -0.0011552 0)
(-0.128823 -0.00136486 0)
(-0.123885 -0.00157966 0)
(-0.118239 -0.00178735 0)
(-0.111883 -0.00199304 0)
(-0.104824 -0.00221032 0)
(-0.0970547 -0.00241342 0)
(-0.0872369 -0.00261376 0)
(0.192379 -0.00561062 0)
(0.201282 -0.00463513 0)
(0.209509 -0.00351178 0)
(0.215443 -0.00233457 0)
(0.218968 -0.00111588 0)
(0.219997 0.000118727 0)
(0.218569 0.00133044 0)
(0.214587 0.00255673 0)
(0.208238 0.00373896 0)
(0.199609 0.00479174 0)
(0.188872 0.00581633 0)
(0.176215 0.00676116 0)
(0.161863 0.00745362 0)
(0.146079 0.0081585 0)
(0.129115 0.00856966 0)
(0.111249 0.00901449 0)
(0.0927284 0.00934052 0)
(0.0738041 0.0093624 0)
(0.0547073 0.00944595 0)
(0.0355523 0.0094229 0)
(0.0164206 0.00917364 0)
(-0.00177012 0.00888902 0)
(-0.0190566 0.00862778 0)
(-0.0359426 0.0081852 0)
(-0.0520444 0.00779488 0)
(-0.0672584 0.00728826 0)
(-0.0815336 0.00683991 0)
(-0.0948339 0.00636782 0)
(-0.107139 0.00584523 0)
(-0.118455 0.0053713 0)
(-0.128791 0.00489642 0)
(-0.138162 0.00440958 0)
(-0.146597 0.00395837 0)
(-0.154124 0.00350657 0)
(-0.160775 0.00308341 0)
(-0.166579 0.00267134 0)
(-0.171566 0.00226736 0)
(-0.175764 0.00188007 0)
(-0.179196 0.00150133 0)
(-0.181887 0.0011317 0)
(-0.183861 0.000771693 0)
(-0.185107 0.000430803 0)
(-0.185658 8.08518e-05 0)
(-0.18547 -0.000286728 0)
(-0.184558 -0.000659652 0)
(-0.182927 -0.00102055 0)
(-0.18054 -0.0013915 0)
(-0.177386 -0.00178529 0)
(-0.173453 -0.00216317 0)
(-0.168687 -0.00256832 0)
(-0.163071 -0.00302592 0)
(-0.156571 -0.00344332 0)
(-0.149127 -0.00393967 0)
(-0.140764 -0.00438837 0)
(-0.131424 -0.00483148 0)
(-0.121106 -0.00537697 0)
(-0.109794 -0.00583445 0)
(-0.0974431 -0.00625822 0)
(-0.0842096 -0.00683007 0)
(-0.0700585 -0.007226 0)
(-0.0549429 -0.00770745 0)
(-0.0389907 -0.00810133 0)
(-0.0223126 -0.00837966 0)
(-0.00500443 -0.00870581 0)
(0.0128429 -0.00891986 0)
(0.0310306 -0.0089965 0)
(0.0493867 -0.00910142 0)
(0.0677318 -0.00902667 0)
(0.0858766 -0.00891266 0)
(0.103674 -0.00868384 0)
(0.120835 -0.00830849 0)
(0.137175 -0.00785155 0)
(0.152434 -0.00732322 0)
(0.166413 -0.00659624 0)
(0.178958 -0.00585309 0)
(0.18976 -0.00498731 0)
(0.198813 -0.00404153 0)
(0.205907 -0.00299549 0)
(0.210786 -0.00191516 0)
(0.21344 -0.000790597 0)
(0.213709 0.000319735 0)
(0.211741 0.00149543 0)
(0.207462 0.00262467 0)
(0.200843 0.00373927 0)
(0.192281 0.00474889 0)
(0.181585 0.00569581 0)
(0.169129 0.00654205 0)
(0.155024 0.00733137 0)
(0.139472 0.00799976 0)
(0.122723 0.00857271 0)
(0.104881 0.00901565 0)
(0.0863082 0.00933105 0)
(0.0671849 0.00953834 0)
(0.0477882 0.00962604 0)
(0.0284029 0.00958596 0)
(0.00920601 0.00942826 0)
(-0.00958757 0.00917677 0)
(-0.0277533 0.0088236 0)
(-0.045128 0.00840124 0)
(-0.0615763 0.00790777 0)
(-0.0769981 0.0073714 0)
(-0.0913031 0.00681466 0)
(-0.104448 0.00624567 0)
(-0.116471 0.00567961 0)
(-0.127336 0.00508982 0)
(-0.137067 0.00456029 0)
(-0.145723 0.00404425 0)
(-0.153339 0.00354125 0)
(-0.159984 0.00306937 0)
(-0.165692 0.00260112 0)
(-0.170501 0.00217363 0)
(-0.174475 0.00177325 0)
(-0.177643 0.00138563 0)
(-0.18005 0.00100911 0)
(-0.181749 0.000651065 0)
(-0.182719 0.000302741 0)
(-0.183011 7.99252e-06 0)
(-0.182616 -0.000347799 0)
(-0.181593 -0.000675837 0)
(-0.179887 -0.00100202 0)
(-0.17754 -0.00131546 0)
(-0.174545 -0.00165296 0)
(-0.17089 -0.00197053 0)
(-0.166598 -0.00228203 0)
(-0.161647 -0.00262045 0)
(-0.156013 -0.00294913 0)
(-0.149737 -0.00328169 0)
(-0.142765 -0.00363726 0)
(-0.135083 -0.00397813 0)
(-0.126673 -0.00436168 0)
(-0.117482 -0.0047409 0)
(-0.107514 -0.00514354 0)
(-0.0967354 -0.00554976 0)
(-0.085131 -0.00596908 0)
(-0.072684 -0.00636687 0)
(-0.0594259 -0.00679266 0)
(-0.0453473 -0.00715866 0)
(-0.0305203 -0.00756262 0)
(-0.0149857 -0.00782907 0)
(0.00121208 -0.00815147 0)
(0.0179075 -0.00837738 0)
(0.0349833 -0.00855111 0)
(0.0522995 -0.00859853 0)
(0.0696628 -0.00858389 0)
(0.0868594 -0.00843639 0)
(0.10364 -0.00816954 0)
(0.119763 -0.00778776 0)
(0.134978 -0.00727362 0)
(0.149026 -0.00663774 0)
(0.161664 -0.00584583 0)
(0.172605 -0.00496649 0)
(0.18166 -0.00398892 0)
(0.188648 -0.00291559 0)
(0.193384 -0.00176992 0)
(0.195758 -0.000576229 0)
(0.195715 0.000613651 0)
(0.193165 0.00185926 0)
(0.188192 0.00305417 0)
(0.180869 0.00418173 0)
(0.171344 0.00522488 0)
(0.159773 0.00622007 0)
(0.146372 0.00704985 0)
(0.131406 0.00777026 0)
(0.115117 0.00834951 0)
(0.0978036 0.00878099 0)
(0.079758 0.00907124 0)
(0.0612855 0.00921501 0)
(0.0426737 0.00922986 0)
(0.0241228 0.00914222 0)
(0.00586946 0.00894113 0)
(-0.0118884 0.00867645 0)
(-0.0290388 0.00835222 0)
(-0.0454595 0.0079266 0)
(-0.0610269 0.00750476 0)
(-0.075686 0.00706167 0)
(-0.0894118 0.00653984 0)
(-0.102144 0.00606965 0)
(-0.113875 0.00560123 0)
(-0.124653 0.00508087 0)
(-0.134448 0.00460708 0)
(-0.143248 0.00414654 0)
(-0.151071 0.00363233 0)
(-0.15794 0.00319042 0)
(-0.163872 0.00273112 0)
(-0.168952 0.00232731 0)
(-0.173287 0.00197983 0)
(-0.176946 0.00165613 0)
(-0.179988 0.00135128 0)
(-0.182437 0.0010642 0)
(-0.184272 0.000748377 0)
(-0.185483 0.000454093 0)
(-0.186088 0.000163792 0)
(-0.186132 -0.000135029 0)
(-0.185622 -0.00035709 0)
(-0.184528 -0.000672052 0)
(-0.182913 -0.000927341 0)
(-0.180761 -0.00120522 0)
(-0.178028 -0.00150201 0)
(-0.174691 -0.0018054 0)
(-0.170714 -0.00213496 0)
(-0.166052 -0.00248841 0)
(-0.160662 -0.0028539 0)
(-0.154521 -0.00323911 0)
(-0.147603 -0.0036279 0)
(-0.139884 -0.00401179 0)
(-0.131356 -0.00444639 0)
(-0.121981 -0.00485254 0)
(-0.111765 -0.00531107 0)
(-0.100658 -0.00569659 0)
(-0.0886808 -0.0061672 0)
(-0.0758499 -0.00656083 0)
(-0.0621785 -0.00695389 0)
(-0.0477936 -0.007303 0)
(-0.0327473 -0.00759773 0)
(-0.0171895 -0.0078659 0)
(-0.00114804 -0.00802145 0)
(0.0152646 -0.00818428 0)
(0.031856 -0.00825326 0)
(0.0485033 -0.00822847 0)
(0.0650262 -0.0081298 0)
(0.0812579 -0.00794392 0)
(0.097003 -0.00763824 0)
(0.112019 -0.00722746 0)
(0.126086 -0.00670479 0)
(0.138987 -0.00607444 0)
(0.15051 -0.00530758 0)
(0.160392 -0.00445754 0)
(0.16842 -0.00348038 0)
(0.174392 -0.00241231 0)
(0.178153 -0.00130295 0)
(0.179596 -0.000139598 0)
(0.178721 0.00101872 0)
(0.1754 0.00222406 0)
(0.169762 0.00335837 0)
(0.161884 0.00442196 0)
(0.151948 0.00540661 0)
(0.140132 0.00628689 0)
(0.126634 0.00705261 0)
(0.111727 0.00768947 0)
(0.0956768 0.00820374 0)
(0.0787407 0.00854859 0)
(0.0612105 0.0087931 0)
(0.0433654 0.00889741 0)
(0.0254173 0.0088574 0)
(0.00764875 0.00873714 0)
(-0.00973739 0.00852487 0)
(-0.0266083 0.00820001 0)
(-0.0427655 0.00782561 0)
(-0.0581296 0.00743699 0)
(-0.0726456 0.00695272 0)
(-0.0862041 0.00648472 0)
(-0.0987767 0.0060116 0)
(-0.110389 0.00549643 0)
(-0.120997 0.00502454 0)
(-0.130651 0.00458206 0)
(-0.139418 0.00409971 0)
(-0.147277 0.0036848 0)
(-0.154294 0.00330603 0)
(-0.160543 0.00291055 0)
(-0.166033 0.00254465 0)
(-0.170819 0.00220167 0)
(-0.174894 0.00185943 0)
(-0.178276 0.0015222 0)
(-0.181006 0.00120655 0)
(-0.183077 0.000880243 0)
(-0.184518 0.00056643 0)
(-0.185303 0.000261977 0)
(-0.185467 -6.30958e-06 0)
(-0.185034 -0.000383988 0)
(-0.184038 -0.000611283 0)
(-0.182422 -0.000915151 0)
(-0.180141 -0.00121024 0)
(-0.177326 -0.00152329 0)
(-0.173852 -0.00184036 0)
(-0.169797 -0.002166 0)
(-0.165121 -0.00249299 0)
(-0.159692 -0.00285472 0)
(-0.153551 -0.00319285 0)
(-0.146642 -0.00361556 0)
(-0.1389 -0.00409117 0)
(-0.130206 -0.00451155 0)
(-0.120525 -0.00501159 0)
(-0.109865 -0.0054677 0)
(-0.0982611 -0.00590241 0)
(-0.0857129 -0.00641994 0)
(-0.0723364 -0.00683609 0)
(-0.0581559 -0.00718909 0)
(-0.0431046 -0.00762217 0)
(-0.0272993 -0.00791117 0)
(-0.010976 -0.00826468 0)
(0.00571299 -0.00850469 0)
(0.0228421 -0.00867868 0)
(0.0404352 -0.00888167 0)
(0.0583267 -0.00896674 0)
(0.076301 -0.0088946 0)
(0.0941182 -0.00880404 0)
(0.11159 -0.00856162 0)
(0.128433 -0.00813536 0)
(0.144386 -0.00764948 0)
(0.159169 -0.00697946 0)
(0.172528 -0.00622575 0)
(0.184228 -0.00532979 0)
(0.194013 -0.00430025 0)
(0.201707 -0.00323415 0)
(0.207181 -0.00209134 0)
(0.210311 -0.000879896 0)
(0.211015 0.000256011 0)
(0.209296 0.00145881 0)
(0.205154 0.0025519 0)
(0.198872 0.0036127 0)
(0.190524 0.00463148 0)
(0.180311 0.00542926 0)
(0.168492 0.00619876 0)
(0.155303 0.00687264 0)
(0.140982 0.00728108 0)
(0.125818 0.00768493 0)
(0.110055 0.00784266 0)
(0.0939359 0.00800424 0)
(0.0776793 0.00806826 0)
(0.0614403 0.00792387 0)
(0.0454374 0.0078202 0)
(0.0296762 0.0076242 0)
(0.014428 0.00731885 0)
(0.000194607 0.00702702 0)
(-0.0133161 0.00665893 0)
(-0.0263771 0.0063386 0)
(-0.0387658 0.00599787 0)
(-0.0504372 0.00560605 0)
(-0.0613845 0.0052587 0)
(-0.0716087 0.00491003 0)
(-0.0811156 0.00453846 0)
(-0.0899224 0.00420312 0)
(-0.0980425 0.00387078 0)
(-0.105486 0.00352613 0)
(-0.112266 0.00320348 0)
(-0.118387 0.00286955 0)
(-0.123855 0.00254907 0)
(-0.128667 0.00222513 0)
(-0.132819 0.00189247 0)
(-0.136306 0.00156238 0)
(-0.13912 0.00122695 0)
(-0.141256 0.000884587 0)
(-0.142705 0.000538265 0)
(-0.143455 0.000198208 0)
(-0.14353 -0.000154424 0)
(-0.142875 -0.00050743 0)
(-0.141507 -0.000862755 0)
(-0.139422 -0.0012169 0)
(-0.13662 -0.00156885 0)
(-0.133106 -0.00192539 0)
(-0.128879 -0.0022748 0)
(-0.123941 -0.0026328 0)
(-0.118294 -0.00297896 0)
(-0.111939 -0.00332175 0)
(-0.10488 -0.00368391 0)
(-0.0971097 -0.00402243 0)
(-0.087291 -0.00435638 0)
(0.192612 -0.00786053 0)
(0.201537 -0.00649404 0)
(0.20978 -0.00492026 0)
(0.215728 -0.0032716 0)
(0.21926 -0.0015653 0)
(0.220301 0.000164086 0)
(0.218851 0.00187089 0)
(0.21487 0.00358299 0)
(0.208509 0.00523858 0)
(0.199856 0.00671331 0)
(0.189098 0.00814872 0)
(0.176417 0.00947225 0)
(0.162031 0.010442 0)
(0.146218 0.0114292 0)
(0.12922 0.0120046 0)
(0.111324 0.0126274 0)
(0.0927743 0.0130835 0)
(0.0738215 0.0131133 0)
(0.0546991 0.0132296 0)
(0.0355228 0.0131963 0)
(0.0163619 0.0128473 0)
(-0.00184702 0.0124483 0)
(-0.019139 0.012083 0)
(-0.036038 0.011462 0)
(-0.0521507 0.0109148 0)
(-0.0673694 0.0102047 0)
(-0.0816494 0.00957649 0)
(-0.094952 0.00891514 0)
(-0.107256 0.00818308 0)
(-0.118572 0.00751949 0)
(-0.128905 0.00685438 0)
(-0.138272 0.0061727 0)
(-0.146705 0.00554091 0)
(-0.154228 0.0049084 0)
(-0.160875 0.00431602 0)
(-0.166676 0.00373932 0)
(-0.171659 0.00317411 0)
(-0.175854 0.00263212 0)
(-0.179283 0.00210256 0)
(-0.181971 0.00158631 0)
(-0.183942 0.00108183 0)
(-0.185196 0.000600167 0)
(-0.18575 0.000105949 0)
(-0.185557 -0.000402777 0)
(-0.184645 -0.000922351 0)
(-0.183015 -0.00142775 0)
(-0.180629 -0.00194846 0)
(-0.177479 -0.00249878 0)
(-0.173549 -0.00302759 0)
(-0.168786 -0.00359463 0)
(-0.163175 -0.00423575 0)
(-0.156677 -0.00481992 0)
(-0.149239 -0.00551572 0)
(-0.140878 -0.00614098 0)
(-0.131537 -0.00676296 0)
(-0.121223 -0.00752926 0)
(-0.10991 -0.00816814 0)
(-0.0975573 -0.00876125 0)
(-0.0843218 -0.00956463 0)
(-0.0701607 -0.0101188 0)
(-0.0550407 -0.0107951 0)
(-0.0390793 -0.0113441 0)
(-0.0223843 -0.0117351 0)
(-0.00506213 -0.0121913 0)
(0.0128008 -0.012491 0)
(0.0310075 -0.0126024 0)
(0.0493822 -0.0127498 0)
(0.0677518 -0.0126419 0)
(0.0859172 -0.0124887 0)
(0.103741 -0.0121635 0)
(0.120926 -0.0116416 0)
(0.13729 -0.0110044 0)
(0.152577 -0.0102589 0)