/*--------------------------------*- C++ -*----------------------------------*\
| =========                 |                                                 |
| \\      /  F ield         | OpenFOAM: The Open Source CFD Toolbox           |
|  \\    /   O peration     | Version:  3.0.1                                 |
|   \\  /    A nd           | Web:      www.OpenFOAM.org                      |
|    \\/     M anipulation  |                                                 |
\*---------------------------------------------------------------------------*/
FoamFile
{
    version     2.0;
    format      ascii;
    class       volScalarField;
    location    "45.2";
    object      p_rgh;
}
// * * * * * * * * * * * * * * * * * * * * * * * * * * * * * * * * * * * * * //

dimensions      [1 -1 -2 0 0 0 0];

internalField   nonuniform List<scalar> 
21420
(
-85.2211
-56.4702
-26.1682
4.87939
29.8071
63.4959
98.0831
132.773
167.162
200.893
233.525
264.611
293.747
320.492
344.444
365.237
382.544
396.117
405.757
411.324
412.633
409.794
402.819
391.804
376.92
358.417
336.562
311.679
284.162
254.392
222.793
189.822
155.921
121.535
87.0997
53.0737
20.2219
-11.9508
-43.3185
-73.6031
-102.514
-129.869
-155.552
-179.481
-201.626
-221.972
-240.525
-257.306
-272.347
-285.682
-297.348
-307.386
-315.833
-322.719
-328.074
-331.926
-334.253
-335.052
-334.312
-332.074
-328.284
-322.925
-315.948
-307.344
-297.08
-285.109
-271.42
-255.995
-238.809
-219.879
-199.225
-176.875
-152.892
-127.357
-100.363
-72.0295
-42.4976
-11.9206
19.6206
51.8452
84.3523
116.957
149.388
181.351
212.519
242.544
271.065
297.72
322.138
343.966
362.885
378.602
390.868
399.484
404.305
405.15
402.148
395.211
384.401
369.86
351.768
330.35
305.885
278.696
249.148
217.64
184.599
150.469
115.701
80.7418
46.0201
11.9362
-21.1618
-52.9658
-83.2245
-111.745
-138.39
-163.067
-185.726
-206.358
-224.979
-241.623
-256.348
-269.217
-280.3
-289.673
-297.413
-303.59
-308.269
-311.535
-313.426
-313.974
-313.263
-311.33
-308.192
-303.863
-298.356
-291.673
-283.805
-274.734
-264.431
-252.865
-239.999
-225.797
-210.214
-193.21
-174.751
-154.809
-133.373
-110.445
-86.0516
-60.2471
-33.1115
-4.76512
24.6432
55.06
85.9779
117.271
148.647
179.775
210.3
239.842
268.015
294.426
318.68
340.403
359.239
374.865
386.997
395.411
399.934
400.417
396.897
389.419
378.041
362.971
344.459
322.811
298.383
271.576
242.815
212.539
181.193
149.212
117.011
84.9753
53.4588
22.7499
-6.89121
-35.2509
-62.1634
-87.5025
-111.181
-133.144
-153.369
-171.859
-188.642
-203.768
-217.302
-229.32
-239.903
-249.133
-257.078
-263.806
-269.372
-273.826
-277.202
-279.548
-280.872
-281.18
-280.519
-278.859
-276.199
-272.529
-267.827
-262.075
-255.252
-247.329
-238.278
-228.068
-216.665
-204.027
-190.11
-174.868
-158.259
-140.251
-120.821
-99.9668
-77.7046
-54.074
-29.136
-2.98197
24.2698
52.4727
81.442
110.944
140.735
170.529
200.015
228.855
256.695
283.165
307.902
330.545
350.745
368.182
382.571
393.668
401.279
405.271
405.516
402.097
395.052
384.465
370.542
353.519
333.683
311.36
286.906
260.696
233.107
204.518
175.293
145.779
116.297
87.1369
58.7393
31.0053
4.27665
-21.3074
-45.6351
-68.6337
-90.2613
-110.498
-129.342
-146.801
-162.903
-177.678
-191.162
-203.391
-214.412
-224.267
-232.994
-240.633
-247.232
-252.815
-257.391
-260.993
-263.483
-264.996
-265.515
-265.045
-263.602
-261.187
-257.775
-253.348
-247.869
-241.259
-233.468
-224.398
-213.974
-202.105
-188.68
-173.639
-156.907
-138.421
-118.156
-96.1148
-72.3243
-46.8586
-19.8214
8.55685
37.7391
68.2551
99.6379
131.507
163.526
195.32
226.493
256.707
285.563
312.676
337.721
360.353
380.278
397.224
410.966
421.331
428.192
431.344
430.207
425.394
417.139
405.455
390.56
372.679
352.063
328.98
303.755
276.673
248.056
218.242
187.545
156.285
124.763
93.2746
62.1492
31.8716
3.42339
-25.1631
-52.6843
-78.8765
-103.577
-126.629
-147.918
-167.4
-185.039
-85.3094
-56.5528
-26.2397
4.83989
29.7306
63.4496
98.0536
132.758
167.161
200.909
233.56
264.665
293.821
320.585
344.554
365.364
382.684
396.268
405.915
411.485
412.805
409.951
402.974
391.95
377.054
358.537
336.666
311.764
284.228
254.44
222.821
189.832
155.913
121.509
87.0561
53.0166
20.1715
-12.0095
-43.3875
-73.6791
-102.594
-129.951
-155.634
-179.563
-201.706
-222.051
-240.601
-257.38
-272.419
-285.751
-297.415
-307.451
-315.896
-322.781
-328.134
-331.985
-334.312
-335.11
-334.374
-332.136
-328.347
-322.989
-316.014
-307.412
-297.151
-285.182
-271.494
-256.071
-238.886
-219.957
-199.304
-176.953
-152.968
-127.432
-100.435
-72.0976
-42.5613
-11.9785
19.5694
51.8016
84.3185
116.933
149.376
181.352
212.534
242.574
271.111
297.782
322.216
344.06
362.992
378.722
390.998
399.621
404.445
405.302
402.285
395.348
384.531
369.98
351.875
330.443
305.961
278.755
249.189
217.661
184.602
150.452
115.667
80.6916
45.9556
11.8595
-21.2483
-53.0598
-83.3237
-111.848
-138.493
-163.17
-185.828
-206.457
-225.075
-241.716
-256.437
-269.303
-280.382
-289.752
-297.488
-303.662
-308.339
-311.602
-313.491
-314.035
-313.325
-311.39
-308.252
-303.922
-298.415
-291.734
-283.867
-274.797
-264.496
-252.932
-240.069
-225.868
-210.288
-193.286
-174.829
-154.89
-133.455
-110.528
-86.1333
-60.3268
-33.1882
-4.83742
24.5755
55.003
85.9288
117.233
148.622
179.765
210.304
239.864
268.054
294.482
318.754
340.493
359.344
374.984
387.128
395.55
400.083
400.56
397.038
389.555
378.168
363.086
344.559
322.894
298.448
271.621
242.84
212.545
181.182
149.185
116.969
84.9201
53.3936
22.6759
-6.97175
-35.3361
-62.2516
-87.5923
-111.271
-133.233
-153.457
-171.944
-188.724
-203.847
-217.377
-229.39
-239.97
-249.197
-257.139
-263.864
-269.429
-273.88
-277.256
-279.6
-280.921
-281.231
-280.569
-278.91
-276.251
-272.581
-267.88
-262.13
-255.307
-247.386
-238.337
-228.129
-216.728
-204.092
-190.178
-174.938
-158.331
-140.325
-120.897
-100.043
-77.7808
-54.1491
-29.2089
-3.05155
24.2047
52.4142
81.3909
110.902
140.704
170.51
200.01
228.865
256.72
283.207
307.96
330.618
350.834
368.284
382.685
393.792
401.409
405.408
405.649
402.226
395.176
384.581
370.647
353.61
333.759
311.419
286.949
260.722
233.117
204.513
175.274
145.748
116.255
87.0867
58.6796
30.9408
4.20882
-21.3773
-45.7057
-68.704
-90.3303
-110.565
-129.407
-146.864
-162.963
-177.735
-191.216
-203.443
-214.462
-224.315
-233.039
-240.677
-247.274
-252.855
-257.431
-261.03
-263.522
-265.034
-265.553
-265.083
-263.641
-261.226
-257.816
-253.391
-247.914
-241.307
-233.52
-224.454
-214.034
-202.169
-188.748
-173.711
-156.982
-138.499
-118.235
-96.1949
-72.4036
-46.9354
-19.894
8.49031
37.6768
68.2019
99.5959
131.478
163.51
195.319
226.508
256.738
285.611
312.741
337.801
360.447
380.386
397.343
411.094
421.467
428.333
431.505
430.347
425.531
417.268
405.575
390.669
372.776
352.146
329.05
303.81
276.714
248.083
218.255
187.545
156.273
124.739
93.2418
62.1074
31.8243
3.36292
-25.2289
-52.7547
-78.9509
-103.655
-126.709
-148
-167.483
-185.122
-85.4859
-56.7181
-26.3834
4.76005
29.5787
63.3577
97.995
132.728
167.161
200.942
233.63
264.775
293.969
320.772
344.776
365.618
382.965
396.57
406.232
411.809
413.147
410.266
403.284
392.242
377.322
358.776
336.873
311.935
284.361
254.535
222.879
189.852
155.896
121.457
86.9689
52.9015
20.0718
-12.1268
-43.5256
-73.831
-102.755
-130.116
-155.8
-179.727
-201.868
-222.208
-240.754
-257.528
-272.562
-285.89
-297.549
-307.581
-316.022
-322.904
-328.254
-332.103
-334.431
-335.226
-334.496
-332.257
-328.47
-323.116
-316.144
-307.546
-297.289
-285.324
-271.64
-256.22
-239.037
-220.109
-199.456
-177.104
-153.116
-127.576
-100.572
-72.2272
-42.6818
-12.0868
19.4748
51.7231
84.2601
116.896
149.363
181.367
212.578
242.648
271.218
297.922
322.389
344.264
363.225
378.98
391.277
399.915
404.747
405.621
402.582
395.641
384.811
370.241
352.111
330.65
306.136
278.894
249.29
217.725
184.627
150.441
115.62
80.6126
45.8482
11.7279
-21.3994
-53.2257
-83.4999
-112.03
-138.678
-163.354
-186.009
-206.633
-225.245
-241.879
-256.592
-269.45
-280.522
-289.885
-297.615
-303.783
-308.455
-311.713
-313.594
-314.136
-313.425
-311.487
-308.347
-304.018
-298.511
-291.831
-283.966
-274.899
-264.601
-253.041
-240.183
-225.987
-210.412
-193.415
-174.962
-155.026
-133.594
-110.667
-86.272
-60.4617
-33.317
-4.95739
24.4648
54.9132
85.855
117.181
148.596
179.767
210.338
239.931
268.155
294.619
318.925
340.698
359.58
375.247
387.413
395.851
400.398
400.875
397.344
389.851
378.445
363.338
344.781
323.081
298.598
271.733
242.913
212.581
181.182
149.152
116.907
84.8321
53.2856
22.5505
-7.11025
-35.4839
-62.4054
-87.7491
-111.428
-133.389
-153.609
-172.091
-188.865
-203.98
-217.503
-229.509
-240.082
-249.301
-257.238
-263.958
-269.518
-273.966
-277.34
-279.682
-280.999
-281.311
-280.649
-278.99
-276.332
-272.664
-267.965
-262.217
-255.397
-247.478
-238.432
-228.228
-216.831
-204.2
-190.291
-175.057
-158.455
-140.452
-121.026
-100.174
-77.911
-54.2771
-29.3327
-3.16857
24.0966
52.3191
81.3107
110.841
140.664
170.495
200.022
228.907
256.793
283.312
308.097
330.787
351.032
368.51
382.934
394.059
401.69
405.695
405.943
402.507
395.446
384.834
370.877
353.813
333.93
311.558
287.055
260.794
233.157
204.522
175.255
145.704
116.189
87.0042
58.5778
30.8286
4.08885
-21.5023
-45.8331
-68.8315
-90.4565
-110.689
-129.527
-146.979
-163.074
-177.841
-191.318
-203.541
-214.555
-224.404
-233.125
-240.76
-247.354
-252.932
-257.506
-261.103
-263.598
-265.108
-265.627
-265.158
-263.716
-261.304
-257.895
-253.475
-248.002
-241.402
-233.622
-224.563
-214.152
-202.295
-188.882
-173.853
-157.131
-138.653
-118.393
-96.354
-72.561
-47.0879
-20.0382
8.35836
37.5533
68.0965
99.5128
131.42
163.48
195.319
226.539
256.802
285.708
312.87
337.961
360.637
380.602
397.583
411.353
421.738
428.614
431.827
430.626
425.805
417.527
405.815
390.887
372.97
352.313
329.188
303.92
276.795
248.136
218.281
187.545
156.249
124.693
93.1762
62.0239
31.7293
3.2422
-25.3603
-52.8954
-79.0997
-103.81
-126.869
-148.164
-167.648
-185.288
-85.751
-56.9664
-26.6006
4.63643
29.3541
63.2211
97.9073
132.682
167.16
200.991
233.736
264.938
294.192
321.052
345.11
365.999
383.386
397.023
406.708
412.294
413.654
410.746
403.75
392.68
377.724
359.135
337.183
312.191
284.561
254.678
222.964
189.882
155.871
121.379
86.8378
52.7259
19.9247
-12.3028
-43.733
-74.0592
-102.995
-130.362
-156.048
-179.974
-202.11
-222.445
-240.984
-257.751
-272.777
-286.097
-297.749
-307.775
-316.211
-323.088
-328.435
-332.278
-334.605
-335.403
-334.68
-332.439
-328.655
-323.306
-316.339
-307.747
-297.497
-285.538
-271.859
-256.443
-239.264
-220.338
-199.684
-177.33
-153.339
-127.792
-100.778
-72.4219
-42.8626
-12.2493
19.3329
51.6052
84.1728
116.841
149.344
181.388
212.643
242.761
271.38
298.135
322.651
344.573
363.578
379.371
391.698
400.359
405.203
406.097
403.037
396.085
385.235
370.636
352.469
330.964
306.401
279.106
249.447
217.824
184.669
150.427
115.553
80.4976
45.6905
11.5338
-21.6228
-53.4714
-83.761
-112.3
-138.952
-163.626
-186.277
-206.894
-225.496
-242.12
-256.822
-269.669
-280.73
-290.082
-297.801
-303.96
-308.625
-311.874
-313.746
-314.286
-313.571
-311.63
-308.487
-304.157
-298.652
-291.974
-284.112
-275.048
-264.756
-253.203
-240.35
-226.162
-210.594
-193.605
-175.159
-155.228
-133.799
-110.874
-86.4771
-60.661
-33.5071
-5.13407
24.3027
54.7809
85.7474
117.107
148.561
179.775
210.392
240.035
268.312
294.827
319.186
341.009
359.937
375.645
387.844
396.307
400.866
401.357
397.81
390.298
378.866
363.721
345.118
323.366
298.828
271.905
243.027
212.638
181.185
149.106
116.817
84.7033
53.1267
22.3655
-7.31507
-35.7027
-62.6333
-87.9816
-111.661
-133.62
-153.834
-172.309
-189.074
-204.178
-217.689
-229.684
-240.246
-249.455
-257.384
-264.097
-269.651
-274.093
-277.463
-279.801
-281.114
-281.429
-280.765
-279.107
-276.452
-272.786
-268.09
-262.345
-255.529
-247.614
-238.573
-228.375
-216.984
-204.361
-190.459
-175.232
-158.637
-140.64
-121.218
-100.367
-78.1039
-54.4667
-29.5158
-3.34162
23.9373
52.1787
81.193
110.751
140.607
170.475
200.043
228.972
256.905
283.473
308.306
331.044
351.333
368.852
383.311
394.465
402.115
406.127
406.387
402.933
395.855
385.217
371.225
354.12
334.192
311.771
287.217
260.906
233.22
204.539
175.23
145.64
116.093
86.8819
58.4271
30.6619
3.91018
-21.6886
-46.0233
-69.0221
-90.6452
-110.874
-129.706
-147.152
-163.241
-178.001
-191.47
-203.687
-214.695
-224.538
-233.254
-240.884
-247.475
-253.048
-257.62
-261.213
-263.711
-265.22
-265.738
-265.269
-263.828
-261.42
-258.015
-253.601
-248.136
-241.545
-233.775
-224.728
-214.329
-202.484
-189.084
-174.066
-157.354
-138.884
-118.63
-96.5927
-72.7975
-47.3169
-20.2547
8.16021
37.3676
67.9381
99.388
131.333
163.434
195.317
226.585
256.897
285.853
313.064
338.202
360.922
380.927
397.942
411.74
422.146
429.035
432.294
431.053
426.22
417.915
406.175
391.215
373.26
352.564
329.397
304.084
276.917
248.215
218.319
187.545
156.212
124.623
93.0775
61.8987
31.5865
3.06108
-25.5574
-53.1067
-79.323
-104.043
-127.11
-148.409
-167.897
-185.537
-86.1048
-57.2984
-26.8934
4.46278
29.062
63.0412
97.7907
132.621
167.158
201.057
233.875
265.157
294.49
321.426
345.554
366.507
383.948
397.628
407.342
412.943
414.32
411.393
404.372
393.265
378.26
359.613
337.596
312.533
284.828
254.869
223.079
189.921
155.837
121.275
86.6626
52.486
19.7336
-12.5378
-44.0103
-74.3641
-103.316
-130.692
-156.379
-180.303
-202.433
-222.76
-241.29
-258.047
-273.063
-286.373
-298.017
-308.034
-316.462
-323.333
-328.675
-332.513
-334.838
-335.643
-334.922
-332.681
-328.902
-323.559
-316.6
-308.015
-297.774
-285.823
-272.15
-256.741
-239.566
-220.643
-199.989
-177.632
-153.635
-128.08
-101.053
-72.6821
-43.1038
-12.4664
19.1432
51.4476
84.0561
116.768
149.319
181.417
212.731
242.911
271.596
298.418
323
344.986
364.049
379.892
392.261
400.952
405.812
406.724
403.651
396.68
385.802
371.163
352.947
331.384
306.755
279.39
249.656
217.957
184.725
150.409
115.465
80.3445
45.4804
11.275
-21.9207
-53.7988
-84.109
-112.66
-139.316
-163.989
-186.633
-207.241
-225.831
-242.44
-257.127
-269.96
-281.006
-290.343
-298.05
-304.196
-308.851
-312.089
-313.949
-314.486
-313.765
-311.82
-308.673
-304.343
-298.839
-292.164
-284.306
-275.247
-264.962
-253.417
-240.573
-226.395
-210.837
-193.857
-175.42
-155.496
-134.073
-111.149
-86.7501
-60.9267
-33.7604
-5.36913
24.0869
54.6047
85.6041
117.009
148.514
179.785
210.465
240.174
268.52
295.107
319.534
341.424
360.415
376.176
388.421
396.916
401.49
401.997
398.437
390.897
379.428
364.233
345.568
323.747
299.135
272.135
243.179
212.714
181.19
149.045
116.697
84.5316
52.9148
22.1187
-7.58817
-35.9944
-62.937
-88.2916
-111.972
-133.928
-154.135
-172.6
-189.352
-204.442
-217.938
-229.918
-240.464
-249.66
-257.578
-264.281
-269.827
-274.262
-277.626
-279.959
-281.269
-281.584
-280.92
-279.264
-276.611
-272.948
-268.256
-262.516
-255.705
-247.795
-238.761
-228.571
-217.188
-204.574
-190.683
-175.466
-158.88
-140.89
-121.474
-100.625
-78.361
-54.7194
-29.7599
-3.57236
23.7252
51.9913
81.0361
110.631
140.531
170.448
200.071
229.06
257.056
283.688
308.586
331.387
351.736
369.309
383.815
395.006
402.682
406.706
406.976
403.506
396.401
385.729
371.691
354.53
334.541
312.055
287.433
261.055
233.304
204.561
175.196
145.556
115.964
86.7181
58.2265
30.4397
3.67168
-21.9373
-46.2772
-69.2765
-90.897
-111.12
-129.946
-147.383
-163.463
-178.215
-191.674
-203.882
-214.881
-224.718
-233.426
-241.051
-247.636
-253.204
-257.772
-261.362
-263.862
-265.368
-265.886
-265.417
-263.978
-261.574
-258.175
-253.769
-248.314
-241.735
-233.979
-224.948
-214.566
-202.737
-189.354
-174.35
-157.652
-139.193
-118.946
-96.9113
-73.113
-47.6226
-20.544
7.89565
37.1196
67.7265
99.2211
131.216
163.373
195.315
226.646
257.023
286.046
313.322
338.524
361.303
381.361
398.422
412.256
422.691
429.596
432.881
431.628
426.774
418.433
406.656
391.652
373.648
352.898
329.674
304.304
277.08
248.321
218.371
187.544
156.163
124.529
92.9455
61.7316
31.3954
2.81938
-25.8204
-53.3885
-79.6209
-104.354
-127.431
-148.737
-168.228
-185.87
-86.5477
-57.7146
-27.2643
4.22852
28.7123
62.8201
97.6455
132.544
167.155
201.137
234.05
265.429
294.861
321.893
346.11
367.142
384.651
398.384
408.137
413.756
415.142
412.21
405.15
393.997
378.932
360.212
338.113
312.96
285.161
255.107
223.221
189.97
155.795
121.145
86.4431
52.1816
19.4981
-12.8323
-44.3581
-74.7462
-103.719
-131.104
-156.794
-180.714
-202.838
-223.155
-241.673
-258.417
-273.421
-286.719
-298.351
-308.358
-316.777
-323.64
-328.975
-332.807
-335.129
-335.941
-335.223
-332.984
-329.211
-323.875
-316.925
-308.351
-298.12
-286.179
-272.516
-257.113
-239.944
-221.024
-200.371
-178.01
-154.007
-128.44
-101.397
-73.0079
-43.4055
-12.7381
18.9051
51.25
83.9098
116.675
149.287
181.453
212.839
243.098
271.866
298.772
323.437
345.502
364.637
380.544
392.965
401.695
406.576
407.501
404.425
397.426
386.513
371.824
353.545
331.909
307.199
279.745
249.918
218.123
184.795
150.386
115.353
80.1524
45.217
10.9507
-22.2939
-54.2089
-84.5447
-113.111
-139.772
-164.443
-187.08
-207.675
-226.249
-242.842
-257.51
-270.323
-281.351
-290.671
-298.36
-304.491
-309.133
-312.356
-314.205
-314.735
-314.008
-312.056
-308.906
-304.575
-299.073
-292.401
-284.549
-275.496
-265.22
-253.685
-240.853
-226.687
-211.141
-194.173
-175.747
-155.832
-134.415
-111.494
-87.0918
-61.2595
-34.0778
-5.6632
23.8174
54.3827
85.424
116.885
148.454
179.798
210.555
240.348
268.781
295.455
319.971
341.944
361.013
376.842
389.142
397.679
402.274
402.793
399.224
391.648
380.131
364.873
346.131
324.224
299.518
272.421
243.369
212.809
181.195
148.968
116.546
84.3162
52.649
21.8093
-7.9303
-36.3599
-63.3174
-88.6797
-112.362
-134.313
-154.511
-172.964
-189.7
-204.772
-218.249
-230.21
-240.738
-249.916
-257.82
-264.512
-270.047
-274.474
-277.831
-280.156
-281.463
-281.779
-281.113
-279.46
-276.811
-273.152
-268.464
-262.729
-255.924
-248.022
-238.996
-228.815
-217.443
-204.841
-190.962
-175.758
-159.184
-141.203
-121.793
-100.947
-78.6828
-55.0356
-30.0656
-3.86146
23.4595
51.7561
80.8396
110.481
140.435
170.415
200.106
229.169
257.243
283.956
308.936
331.815
352.239
369.881
384.446
395.684
403.392
407.431
407.708
404.225
397.086
386.369
372.272
355.044
334.977
312.409
287.703
261.24
233.408
204.589
175.152
145.449
115.803
86.5122
57.9753
30.1614
3.37285
-22.2488
-46.595
-69.595
-91.2121
-111.429
-130.245
-147.672
-163.741
-178.481
-191.929
-204.126
-215.115
-224.942
-233.641
-241.259
-247.837
-253.398
-257.962
-261.548
-264.049
-265.553
-266.071
-265.603
-264.166
-261.766
-258.374
-253.979
-248.536
-241.974
-234.233
-225.223
-214.861
-203.053
-189.691
-174.706
-158.025
-139.579
-119.341
-97.3101
-73.508
-48.0052
-20.9065
7.56452
36.8086
67.4612
99.0121
131.07
163.295
195.313
226.721
257.181
286.287
313.645
338.925
361.778
381.903
399.022
412.903
423.371
430.298
433.593
432.344
427.466
419.08
407.257
392.199
374.133
353.316
330.021
304.578
277.282
248.453
218.435
187.543
156.102
124.411
92.7801
61.5225
31.1556
2.51689
-26.1494
-53.7411
-79.9936
-104.743
-127.832
-149.146
-168.642
-186.285
-87.0801
-58.2158
-27.7157
3.91552
28.3218
62.5597
97.4719
132.451
167.15
201.233
234.258
265.756
295.307
322.453
346.777
367.905
385.496
399.293
409.092
414.734
416.127
413.19
406.085
394.876
379.738
360.931
338.734
313.472
285.56
255.392
223.392
190.029
155.743
120.988
86.1792
51.8129
19.2172
-13.1871
-44.7771
-75.2059
-104.202
-131.599
-157.292
-181.209
-203.323
-223.628
-242.132
-258.862
-273.85
-287.133
-298.752
-308.746
-317.155
-324.009
-329.336
-333.161
-335.481
-336.297
-335.583
-333.347
-329.581
-324.255
-317.316
-308.754
-298.535
-286.606
-272.954
-257.56
-240.398
-221.483
-200.829
-178.463
-154.453
-128.874
-101.811
-73.3995
-43.7682
-13.0647
18.6178
51.0127
83.7338
116.563
149.247
181.494
212.969
243.322
272.189
299.196
323.961
346.122
365.344
381.328
393.811
402.586
407.495
408.432
405.354
398.323
387.366
372.617
354.263
332.54
307.731
280.171
250.232
218.322
184.879
150.357
115.219
79.9206
44.8996
10.5602
-22.7432
-54.7025
-85.0688
-113.653
-140.321
-164.989
-187.616
-208.197
-226.752
-243.324
-257.969
-270.76
-281.766
-291.064
-298.733
-304.845
-309.471
-312.677
-314.513
-315.034
-314.298
-312.34
-309.186
-304.854
-299.354
-292.685
-284.839
-275.796
-265.53
-254.007
-241.188
-227.037
-211.506
-194.553
-176.14
-156.236
-134.826
-111.907
-87.5026
-61.6598
-34.4597
-6.01669
23.5047
54.1036
85.2065
116.736
148.382
179.812
210.663
240.556
269.094
295.874
320.494
342.568
361.73
377.641
390.009
398.595
403.217
403.747
400.168
392.551
380.976
365.641
346.808
324.797
299.979
272.765
243.596
212.922
181.201
148.874
116.364
84.0563
52.3289
21.4368
-8.34195
-36.7995
-63.7749
-89.1464
-112.83
-134.776
-154.964
-173.401
-190.118
-205.169
-218.623
-230.56
-241.066
-250.224
-258.111
-264.788
-270.312
-274.727
-278.075
-280.394
-281.697
-282.012
-281.346
-279.695
-277.05
-273.395
-268.714
-262.986
-256.188
-248.294
-239.278
-229.108
-217.749
-205.162
-191.298
-176.109
-159.549
-141.579
-122.177
-101.335
-79.0695
-55.4159
-30.4333
-4.20921
23.1396
51.4728
80.6028
110.3
140.319
170.373
200.147
229.3
257.468
284.278
309.355
332.329
352.843
370.567
385.204
396.498
404.245
408.304
408.586
405.09
397.909
387.138
372.971
355.66
335.502
312.835
288.027
261.463
233.532
204.621
175.099
145.32
115.608
86.264
57.6732
29.8267
3.01339
-22.6234
-46.9771
-69.9778
-91.5908
-111.8
-130.605
-148.019
-164.075
-178.801
-192.235
-204.419
-215.395
-225.21
-233.899
-241.509
-248.079
-253.633
-258.191
-261.772
-264.274
-265.776
-266.293
-265.825
-264.391
-261.997
-258.613
-254.231
-248.803
-242.259
-234.539
-225.552
-215.215
-203.431
-190.095
-175.133
-158.473
-140.043
-119.816
-97.7894
-73.9828
-48.4653
-21.3425
7.16683
36.4341
67.1418
98.7604
130.893
163.202
195.308
226.812
257.37
286.577
314.032
339.408
362.349
382.553
399.742
413.679
424.189
431.141
434.447
433.197
428.294
419.857
407.978
392.855
374.715
353.817
330.437
304.906
277.526
248.611
218.511
187.542
156.027
124.269
92.5806
61.2713
30.8662
2.15365
-26.5445
-54.1645
-80.4413
-105.21
-128.314
-149.638
-169.139
-186.784
-87.7023
-58.8031
-28.2496
3.51198
27.9009
62.2616
97.2698
132.341
167.142
201.344
234.5
266.136
295.827
323.108
347.556
368.797
386.482
400.354
410.207
415.878
417.277
414.331
407.177
395.903
380.68
361.77
339.458
314.07
286.026
255.724
223.589
190.096
155.683
120.805
85.8709
51.3796
18.8902
-13.6032
-45.2683
-75.7441
-104.768
-132.178
-157.873
-181.786
-203.89
-224.181
-242.669
-259.381
-274.351
-287.617
-299.219
-309.199
-317.595
-324.439
-329.757
-333.575
-335.892
-336.71
-336.001
-333.77
-330.013
-324.697
-317.772
-309.224
-299.02
-287.105
-273.466
-258.082
-240.927
-222.018
-201.364
-178.993
-154.974
-129.379
-102.295
-73.8572
-44.192
-13.4464
18.28
50.7361
83.5275
116.431
149.2
181.541
213.119
243.583
272.566
299.691
324.572
346.845
366.17
382.242
394.799
403.628
408.57
409.52
406.438
399.371
388.362
373.543
355.102
333.276
308.353
280.668
250.597
218.553
184.976
150.323
115.06
79.6485
44.5274
10.1027
-23.2693
-55.2803
-85.682
-114.286
-140.962
-165.627
-188.243
-208.806
-227.339
-243.886
-258.506
-271.269
-282.249
-291.523
-299.168
-305.259
-309.865
-313.052
-314.873
-315.383
-314.637
-312.671
-309.512
-305.18
-299.681
-293.017
-285.178
-276.145
-265.891
-254.382
-241.579
-227.445
-211.932
-194.996
-176.599
-156.708
-135.307
-112.391
-87.9829
-62.128
-34.9065
-6.43032
23.1432
53.7719
84.951
116.56
148.296
179.826
210.787
240.797
269.457
296.361
321.104
343.297
362.568
378.575
391.021
399.666
404.321
404.862
401.27
393.606
381.963
366.539
347.598
325.465
300.516
273.166
243.859
213.053
181.206
148.763
116.15
83.7509
51.9541
21.0006
-8.82368
-37.3137
-64.31
-89.6921
-113.377
-135.318
-155.492
-173.912
-190.607
-205.632
-219.059
-230.969
-241.449
-250.584
-258.451
-265.111
-270.621
-275.024
-278.361
-280.671
-281.97
-282.283
-281.617
-279.969
-277.33
-273.68
-269.005
-263.285
-256.496
-248.612
-239.607
-229.45
-218.106
-205.536
-191.69
-176.519
-159.975
-142.019
-122.626
-101.789
-79.5214
-55.8604
-30.8632
-4.61612
22.7652
51.1408
80.3253
110.088
140.183
170.323
200.194
229.451
257.729
284.652
309.844
332.929
353.549
371.369
386.088
397.449
405.243
409.325
409.611
406.098
398.871
388.036
373.788
356.38
336.113
313.331
288.404
261.721
233.676
204.657
175.036
145.168
115.38
85.9729
57.3197
29.4351
2.59294
-23.0613
-47.4237
-70.4251
-92.0331
-112.232
-131.025
-148.424
-164.464
-179.175
-192.591
-204.76
-215.723
-225.524
-234.2
-241.801
-248.361
-253.907
-258.459
-262.034
-264.535
-266.036
-266.552
-266.084
-264.654
-262.266
-258.892
-254.524
-249.113
-242.591
-234.896
-225.936
-215.629
-203.874
-190.567
-175.632
-158.997
-140.584
-120.37
-98.3494
-74.5377
-49.0036
-21.8523
6.70269
35.9951
66.7677
98.4657
130.687
163.091
195.303
226.916
257.589
286.914
314.484
339.97
363.015
383.313
400.583
414.585
425.144
432.127
435.447
434.19
429.256
420.764
408.821
393.62
375.395
354.401
330.923
305.289
277.809
248.795
218.598
187.539
155.939
124.103
92.3468
60.9778
30.5264
1.72968
-27.0058
-54.659
-80.9641
-105.755
-128.877
-150.213
-169.72
-187.367
-88.4149
-59.4772
-28.8674
3.02171
27.4441
61.9269
97.0392
132.213
167.131
201.468
234.774
266.57
296.422
323.856
348.447
369.816
387.61
401.569
411.484
417.189
418.595
415.635
408.427
397.077
381.758
362.73
340.286
314.753
286.557
256.102
223.815
190.171
155.614
120.596
85.5182
50.8806
18.5169
-14.0821
-45.8328
-76.3616
-105.416
-132.841
-158.539
-182.446
-204.538
-224.813
-243.282
-259.974
-274.924
-288.169
-299.754
-309.717
-318.098
-324.93
-330.238
-334.048
-336.362
-337.182
-336.478
-334.254
-330.506
-325.203
-318.293
-309.762
-299.574
-287.675
-274.051
-258.68
-241.533
-222.63
-201.976
-179.599
-155.57
-129.958
-102.849
-74.3814
-44.6774
-13.8838
17.891
50.4198
83.2904
116.279
149.146
181.593
213.289
243.88
272.996
300.255
325.271
347.672
367.114
383.289
395.929
404.82
409.8
410.765
407.676
400.571
389.503
374.603
356.062
334.118
309.063
281.236
251.015
218.817
185.085
150.282
114.877
79.3353
44.0996
9.57726
-23.8731
-55.9429
-86.385
-115.012
-141.696
-166.357
-188.961
-209.503
-228.011
-244.53
-259.119
-271.852
-282.802
-292.047
-299.665
-305.731
-310.314
-313.481
-315.285
-315.781
-315.024
-313.049
-309.886
-305.552
-300.055
-293.397
-285.566
-276.544
-266.304
-254.811
-242.026
-227.912
-212.419
-195.503
-177.124
-157.248
-135.857
-112.945
-88.5329
-62.6647
-35.4187
-6.90482
22.7251
53.3942
84.6572
116.357
148.197
179.842
210.928
241.072
269.872
296.918
321.802
344.129
363.526
379.643
392.18
400.892
405.585
406.139
402.53
394.814
383.093
367.566
348.502
326.229
301.129
273.623
244.16
213.201
181.209
148.635
115.903
83.4001
51.5231
20.4997
-9.3762
-37.9029
-64.9232
-90.3172
-114.004
-135.937
-156.097
-174.496
-191.165
-206.162
-219.557
-231.436
-241.886
-250.994
-258.838
-265.48
-270.974
-275.362
-278.688
-280.988
-282.281
-282.593
-281.928
-280.283
-277.649
-274.005
-269.339
-263.627
-256.847
-248.976
-239.983
-229.841
-218.515
-205.964
-192.138
-176.988
-160.463
-142.523
-123.14
-102.308
-80.039
-56.3698
-31.3557
-5.08255
22.3357
50.7595
80.0067
109.843
140.026
170.265
200.246
229.622
258.027
285.08
310.402
333.615
354.356
372.287
387.101
398.537
406.384
410.495
410.785
407.251
399.973
389.064
374.722
357.203
336.813
313.898
288.835
262.016
233.84
204.696
174.962
144.992
115.117
85.6382
56.9146
28.9861
2.11109
-23.5632
-47.9351
-70.9371
-92.5392
-112.727
-131.505
-148.887
-164.909
-179.601
-192.999
-205.151
-216.097
-225.882
-234.544
-242.134
-248.683
-254.22
-258.766
-262.334
-264.834
-266.333
-266.847
-266.38
-264.954
-262.573
-259.21
-254.859
-249.467
-242.97
-235.304
-226.375
-216.101
-204.38
-191.107
-176.202
-159.595
-141.204
-121.005
-98.9907
-75.1732
-49.6208
-22.4363
6.17221
35.4903
66.3384
98.1274
130.449
162.964
195.295
227.035
257.84
287.299
315.001
340.614
363.778
384.183
401.546
415.623
426.237
433.254
436.59
435.324
430.355
421.801
409.785
394.496
376.172
355.069
331.478
305.727
278.131
249.004
218.698
187.534
155.837
123.912
92.0779
60.6418
30.1349
1.24503
-27.5333
-55.2249
-81.5625
-106.38
-129.522
-150.87
-170.385
-188.034
-89.2183
-60.2389
-29.57
2.44587
26.9478
61.5562
96.78
132.068
167.116
201.604
235.082
267.057
297.09
324.699
349.45
370.964
388.882
402.938
412.923
418.667
420.081
417.102
409.835
398.4
382.972
363.811
341.217
315.523
287.155
256.527
224.067
190.255
155.535
120.359
85.1212
50.3142
18.0979
-14.6251
-46.4719
-77.0594
-106.148
-133.588
-159.289
-183.19
-205.268
-225.524
-243.972
-260.641
-275.568
-288.791
-300.355
-310.299
-318.664
-325.482
-330.779
-334.581
-336.891
-337.712
-337.014
-334.797
-331.061
-325.772
-318.878
-310.366
-300.197
-288.316
-274.71
-259.352
-242.216
-223.32
-202.666
-180.281
-156.241
-130.61
-103.474
-74.9725
-45.2248
-14.3774
17.4503
50.0637
83.0221
116.107
149.083
181.65
213.478
244.213
273.478
300.89
326.057
348.602
368.177
384.468
397.203
406.164
411.187
412.169
409.07
401.922
390.788
375.797
357.143
335.067
309.863
281.875
251.484
219.112
185.207
150.234
114.669
78.9801
43.6155
8.9829
-24.5556
-56.6915
-87.1785
-115.832
-142.525
-167.181
-189.769
-210.288
-228.767
-245.254
-259.81
-272.508
-283.424
-292.637
-300.225
-306.263
-310.821
-313.964
-315.749
-316.228
-315.459
-313.475
-310.306
-305.969
-300.476
-293.823
-286.001
-276.993
-266.769
-255.294
-242.53
-228.438
-212.967
-196.074
-177.715
-157.856
-136.477
-113.57
-89.1532
-63.2705
-35.9969
-7.44108
22.2494
52.9701
84.3247
116.127
148.082
179.857
211.085
241.38
270.338
297.544
322.587
345.067
364.605
380.847
393.487
402.273
407.011
407.579
403.95
396.176
384.366
368.724
349.52
327.089
301.819
274.136
244.496
213.366
181.211
148.487
115.623
83.008
51.0303
19.9334
-10.0004
-38.568
-65.6149
-91.0222
-114.711
-136.636
-156.78
-175.155
-191.795
-206.758
-220.119
-231.961
-242.378
-251.456
-259.274
-265.894
-271.371
-275.743
-279.055
-281.345
-282.632
-282.941
-282.277
-280.636
-278.008
-274.371
-269.714
-264.012
-257.243
-249.384
-240.406
-230.281
-218.974
-206.445
-192.643
-177.516
-161.013
-143.09
-123.719
-102.893
-80.6227
-56.9443
-31.9115
-5.60895
21.8506
50.3282
79.6464
109.566
139.846
170.198
200.303
229.814
258.361
285.561
311.03
334.387
355.264
373.32
388.241
399.763
407.671
411.814
412.109
408.55
401.214
390.223
375.775