/*--------------------------------*- C++ -*----------------------------------*\
| =========                 |                                                 |
| \\      /  F ield         | OpenFOAM: The Open Source CFD Toolbox           |
|  \\    /   O peration     | Version:  3.0.1                                 |
|   \\  /    A nd           | Web:      www.OpenFOAM.org                      |
|    \\/     M anipulation  |                                                 |
\*---------------------------------------------------------------------------*/
FoamFile
{
    version     2.0;
    format      ascii;
    class       volScalarField;
    location    "15.2";
    object      p;
}
// * * * * * * * * * * * * * * * * * * * * * * * * * * * * * * * * * * * * * //

dimensions      [1 -1 -2 0 0 0 0];

internalField   nonuniform List<scalar> 
21420
(
3838.52
3856.7
3868.45
3896.02
3925.67
3955.57
3985.07
4013.67
4041.04
4066.92
4091.03
4113.16
4133.14
4150.82
4166.05
4178.74
4188.8
4196.16
4200.75
4202.47
4201.38
4197.51
4190.8
4181.29
4169.03
4154.15
4136.77
4117.06
4095.27
4071.62
4046.41
4019.96
3992.59
3964.67
3936.53
3908.61
3881.67
3854.96
3829.09
3804.3
3780.78
3758.66
3738.05
3719.01
3701.58
3685.76
3671.57
3658.97
3647.93
3638.44
3630.46
3623.96
3618.93
3615.35
3613.27
3612.66
3613.53
3615.86
3619.69
3624.98
3631.73
3639.88
3649.4
3660.22
3672.27
3685.49
3699.83
3715.22
3731.62
3748.96
3767.21
3786.33
3806.27
3826.97
3848.41
3870.46
3892.13
3914.41
3937.23
3960.28
3983.27
4006.02
4028.29
4049.84
4070.41
4089.74
4107.58
4123.67
4137.75
4149.6
4159.01
4165.8
4169.82
4170.94
4169.17
4164.45
4156.84
4146.39
4133.24
4117.57
4099.58
4079.53
4057.7
4034.38
4009.92
3984.63
3958.86
3932.92
3907.14
3881.78
3857.1
3833.33
3810.62
3789.12
3768.93
3750.12
3732.7
3716.7
3702.09
3688.85
3676.92
3666.28
3656.87
3648.65
3641.58
3635.64
3630.78
3627.02
3624.32
3622.69
3622.17
3622.78
3624.5
3627.41
3631.53
3636.93
3643.64
3651.73
3661.24
3672.2
3684.66
3698.62
3714.09
3731.06
3749.47
3769.26
3790.35
3812.61
3835.9
3860.03
3884.8
3909.99
3935.35
3960.63
3985.55
4009.83
4033.2
4055.37
4076.1
4095.12
4112.22
4127.19
4139.87
4150.1
4157.79
4162.85
4165.25
4164.98
4162.07
4156.6
4148.63
4138.26
4125.65
4110.93
4094.28
4075.87
4055.9
4034.57
4012.1
3988.7
3964.58
3939.97
3915.08
3890.12
3865.32
3840.85
3816.93
3793.72
3771.41
3750.15
3730.08
3711.33
3694.02
3678.23
3664.04
3651.52
3640.68
3631.56
3624.15
3618.43
3614.35
3611.91
3611.06
3611.71
3613.8
3617.31
3622.16
3628.3
3635.7
3644.31
3654.09
3665.01
3677.06
3690.21
3704.44
3719.74
3736.09
3753.46
3771.83
3791.16
3811.38
3832.43
3854.22
3876.64
3899.56
3922.82
3946.23
3969.61
3992.72
4015.33
4037.19
4058.03
4077.58
4095.6
4111.81
4125.99
4137.9
4147.37
4154.22
4158.34
4159.6
4158.01
4153.53
4146.21
4136.12
4123.39
4108.17
4090.65
4071.07
4049.69
4026.78
4002.65
3977.6
3951.94
3926
3900.05
3874.39
3849.27
3824.92
3801.53
3779.27
3758.28
3738.66
3720.47
3703.78
3688.61
3674.97
3662.85
3652.22
3643.07
3635.35
3629.03
3624.05
3620.38
3617.97
3616.83
3616.87
3618.06
3620.42
3623.92
3628.56
3634.32
3641.23
3649.27
3658.45
3668.77
3680.23
3692.82
3706.52
3721.3
3737.15
3754
3771.81
3790.52
3810.03
3830.28
3851.14
3872.69
3894.57
3916.57
3938.59
3960.45
3981.95
4002.92
4023.12
4042.35
4060.4
4077.05
4092.1
4105.37
4116.68
4125.88
4132.85
4137.5
4139.75
4139.47
4136.71
4131.52
4123.92
4114.05
4102
4087.93
4072.04
4054.52
4035.61
4015.52
3994.52
3972.86
3950.8
3928.56
3906.39
3884.57
3865.49
3845.14
3825.49
3806.77
3789.13
3772.67
3757.46
3743.56
3731
3719.78
3709.89
3701.32
3694.03
3687.98
3683.12
3679.39
3676.75
3675.15
3674.75
3675.41
3677.12
3679.82
3683.48
3688.1
3693.67
3740.33
3758.56
3770.31
3797.9
3827.56
3857.48
3886.99
3915.61
3942.99
3968.87
3993
4015.13
4035.13
4052.81
4068.05
4080.74
4090.8
4098.17
4102.76
4104.48
4103.39
4099.52
4092.81
4083.29
4071.03
4056.14
4038.75
4019.03
3997.23
3973.57
3948.34
3921.88
3894.5
3866.56
3838.4
3810.48
3783.53
3756.81
3730.93
3706.14
3682.61
3660.5
3639.88
3620.84
3603.41
3587.6
3573.4
3560.8
3549.77
3540.28
3532.3
3525.8
3520.77
3517.2
3515.11
3514.5
3515.37
3517.7
3521.53
3526.83
3533.57
3541.73
3551.25
3562.07
3574.12
3587.34
3601.69
3617.08
3633.47
3650.82
3669.07
3688.19
3708.13
3728.84
3750.27
3772.33
3794
3816.29
3839.12
3862.17
3885.17
3907.93
3930.21
3951.77
3972.35
3991.69
4009.55
4025.64
4039.73
4051.59
4061.01
4067.8
4071.83
4072.96
4071.19
4066.47
4058.84
4048.39
4035.24
4019.55
4001.55
3981.49
3959.64
3936.31
3911.83
3886.53
3860.75
3834.8
3809
3783.64
3758.96
3735.17
3712.46
3690.96
3670.77
3651.95
3634.54
3618.54
3603.93
3590.69
3578.77
3568.13
3558.72
3550.5
3543.44
3537.49
3532.64
3528.87
3526.17
3524.55
3524.03
3524.63
3526.36
3529.26
3533.38
3538.77
3545.49
3553.57
3563.08
3574.04
3586.5
3600.46
3615.93
3632.89
3651.3
3671.1
3692.2
3714.46
3737.75
3761.89
3786.67
3811.87
3837.24
3862.53
3887.46
3911.75
3935.13
3957.32
3978.05
3997.09
4014.2
4029.18
4041.86
4052.1
4059.79
4064.85
4067.26
4066.99
4064.07
4058.6
4050.62
4040.25
4027.63
4012.9
3996.24
3977.82
3957.84
3936.51
3914.03
3890.61
3866.48
3841.86
3816.97
3792
3767.19
3742.72
3718.79
3695.58
3673.26
3651.99
3631.92
3613.17
3595.85
3580.06
3565.88
3553.35
3542.52
3533.39
3525.98
3520.26
3516.19
3513.75
3512.9
3513.55
3515.65
3519.15
3524
3530.15
3537.55
3546.16
3555.94
3566.87
3578.91
3592.06
3606.29
3621.59
3637.94
3655.32
3673.69
3693.01
3713.24
3734.29
3756.08
3778.51
3801.44
3824.7
3848.12
3871.5
3894.63
3917.25
3939.11
3959.97
3979.54
3997.56
4013.79
4027.97
4039.9
4049.37
4056.23
4060.35
4061.61
4060.02
4055.54
4048.22
4038.12
4025.38
4010.15
3992.62
3973.03
3951.64
3928.71
3904.57
3879.5
3853.84
3827.88
3801.93
3776.26
3751.13
3726.77
3703.38
3681.11
3660.12
3640.49
3622.31
3605.62
3590.45
3576.81
3564.69
3554.06
3544.91
3537.2
3530.87
3525.9
3522.23
3519.82
3518.68
3518.72
3519.92
3522.28
3525.77
3530.41
3536.18
3543.08
3551.12
3560.3
3570.62
3582.08
3594.67
3608.37
3623.16
3639
3655.86
3673.67
3692.38
3711.89
3732.14
3753.01
3774.56
3796.45
3818.46
3840.49
3862.35
3883.86
3904.83
3925.05
3944.29
3962.34
3979
3994.06
4007.34
4018.65
4027.87
4034.85
4039.49
4041.75
4041.47
4038.71
4033.51
4025.91
4016.03
4003.97
3989.9
3974
3956.47
3937.54
3917.45
3896.44
3874.77
3852.69
3830.45
3808.27
3786.44
3767.35
3747
3727.34
3708.62
3690.98
3674.51
3659.31
3645.41
3632.84
3621.62
3611.74
3603.17
3595.88
3589.84
3584.98
3581.25
3578.61
3577.01
3576.61
3577.28
3578.98
3581.68
3585.35
3589.97
3595.53
3642.06
3660.38
3672.12
3699.75
3729.45
3759.39
3788.94
3817.58
3844.98
3870.89
3895.03
3917.19
3937.19
3954.89
3970.14
3982.84
3992.91
4000.28
4004.88
4006.6
4005.52
4001.65
3994.93
3985.4
3973.13
3958.22
3940.81
3921.07
3899.24
3875.56
3850.3
3823.81
3796.4
3768.44
3740.26
3712.31
3685.34
3658.6
3632.71
3607.91
3584.38
3562.26
3541.64
3522.6
3505.17
3489.36
3475.17
3462.57
3451.55
3442.06
3434.08
3427.58
3422.56
3418.98
3416.9
3416.29
3417.15
3419.49
3423.32
3428.61
3435.36
3443.52
3453.04
3463.87
3475.92
3489.15
3503.5
3518.89
3535.29
3552.64
3570.89
3590.01
3609.96
3630.66
3652.1
3674.16
3695.86
3718.15
3740.99
3764.05
3787.07
3809.85
3832.15
3853.73
3874.33
3893.7
3911.57
3927.68
3941.8
3953.68
3963.11
3969.92
3973.95
3975.1
3973.31
3968.59
3960.96
3950.49
3937.32
3921.62
3903.59
3883.5
3861.63
3838.27
3813.77
3788.44
3762.63
3736.66
3710.84
3685.46
3660.76
3636.96
3614.24
3592.74
3572.55
3553.73
3536.32
3520.32
3505.72
3492.48
3480.56
3469.93
3460.53
3452.31
3445.25
3439.3
3434.45
3430.69
3427.99
3426.36
3425.85
3426.44
3428.16
3431.06
3435.18
3440.57
3447.28
3455.36
3464.86
3475.82
3488.27
3502.23
3517.7
3534.66
3553.08
3572.88
3593.98
3616.26
3639.56
3663.71
3688.5
3713.73
3739.12
3764.43
3789.38
3813.69
3837.1
3859.31
3880.07
3899.12
3916.25
3931.25
3943.94
3954.19
3961.89
3966.96
3969.37
3969.09
3966.17
3960.69
3952.7
3942.32
3929.68
3914.94
3898.26
3879.82
3859.83
3838.47
3815.97
3792.54
3768.4
3743.76
3718.84
3693.86
3669.03
3644.55
3620.6
3597.38
3575.05
3553.78
3533.7
3514.94
3497.62
3481.83
3467.64
3455.11
3444.28
3435.15
3427.74
3422.03
3417.96
3415.53
3414.68
3415.33
3417.44
3420.94
3425.8
3431.95
3439.35
3447.96
3457.75
3468.67
3480.72
3493.86
3508.1
3523.4
3539.75
3557.13
3575.5
3594.83
3615.05
3636.11
3657.91
3680.34
3703.29
3726.56
3750
3773.4
3796.54
3819.18
3841.07
3861.95
3881.54
3899.59
3915.83
3930.04
3941.98
3951.47
3958.34
3962.47
3963.75
3962.14
3957.66
3950.33
3940.23
3927.47
3912.22
3894.67
3875.05
3853.63
3830.68
3806.51
3781.42
3755.73
3729.75
3703.77
3678.09
3652.94
3628.57
3605.16
3582.89
3561.89
3542.26
3524.08
3507.39
3492.22
3478.58
3466.46
3455.85
3446.7
3438.99
3432.67
3427.7
3424.03
3421.63
3420.49
3420.52
3421.73
3424.09
3427.58
3432.22
3437.99
3444.89
3452.93
3462.11
3472.43
3483.89
3496.48
3510.17
3524.96
3540.81
3557.67
3575.48
3594.2
3613.72
3633.98
3654.85
3676.41
3698.31
3720.33
3742.37
3764.25
3785.79
3806.77
3827.01
3846.27
3864.34
3881.02
3896.09
3909.39
3920.71
3929.94
3936.93
3941.58
3943.85
3943.55
3940.79
3935.59
3927.99
3918.09
3906.02
3891.93
3876.01
3858.46
3839.52
3819.4
3798.37
3776.68
3754.59
3732.32
3710.13
3688.3
3669.17
3648.81
3629.15
3610.42
3592.77
3576.3
3561.1
3547.19
3534.63
3523.41
3513.53
3504.97
3497.69
3491.64
3486.79
3483.07
3480.42
3478.83
3478.43
3479.1
3480.81
3483.51
3487.18
3491.8
3497.36
3543.71
3562.15
3573.88
3601.58
3631.33
3661.32
3690.9
3719.58
3747.02
3772.95
3797.13
3819.31
3839.34
3857.06
3872.33
3885.05
3895.13
3902.5
3907.1
3908.84
3907.76
3903.88
3897.15
3887.61
3875.32
3860.39
3842.95
3823.18
3801.32
3777.59
3752.3
3725.76
3698.31
3670.31
3642.09
3614.11
3587.11
3560.35
3534.44
3509.62
3486.08
3463.95
3443.33
3424.29
3406.86
3391.05
3376.87
3364.28
3353.26
3343.77
3335.8
3329.31
3324.28
3320.71
3318.63
3318.01
3318.87
3321.22
3325.05
3330.35
3337.1
3345.26
3354.79
3365.62
3377.68
3390.91
3405.26
3420.66
3437.06
3454.41
3472.67
3491.79
3511.74
3532.45
3553.9
3575.97
3597.68
3619.99
3642.84
3665.93
3688.97
3711.77
3734.1
3755.71
3776.35
3795.75
3813.65
3829.8
3843.95
3855.86
3865.31
3872.14
3876.19
3877.35
3875.55
3870.83
3863.19
3852.7
3839.5
3823.77
3805.71
3785.58
3763.66
3740.27
3715.72
3690.35
3664.5
3638.49
3612.64
3587.23
3562.51
3538.7
3515.97
3494.46
3474.26
3455.44
3438.03
3422.04
3407.44
3394.21
3382.3
3371.68
3362.28
3354.07
3347.01
3341.07
3336.22
3332.46
3329.76
3328.13
3327.62
3328.2
3329.92
3332.82
3336.93
3342.31
3349.01
3357.08
3366.58
3377.54
3389.98
3403.94
3419.41
3436.37
3454.79
3474.6
3495.71
3518
3541.32
3565.49
3590.31
3615.56
3640.98
3666.32
3691.31
3715.66
3739.1
3761.34
3782.14
3801.22
3818.38
3833.4
3846.12
3856.39
3864.1
3869.17
3871.59
3871.3
3868.37
3862.88
3854.87
3844.47
3831.82
3817.05
3800.34
3781.88
3761.86
3740.47
3717.95
3694.49
3670.31
3645.65
3620.71
3595.7
3570.85
3546.35
3522.38
3499.14
3476.8
3455.51
3435.42
3416.65
3399.32
3383.52
3369.33
3356.8
3345.97
3336.85
3329.44
3323.73
3319.67
3317.24
3316.4
3317.06
3319.17
3322.68
3327.54
3333.7
3341.11
3349.72
3359.51
3370.43
3382.48
3395.62
3409.86
3425.16
3441.51
3458.89
3477.26
3496.59
3516.83
3537.89
3559.7
3582.15
3605.11
3628.41
3651.87
3675.29
3698.46
3721.13
3743.06
3763.97
3783.59
3801.67
3817.95
3832.19
3844.16
3853.67
3860.56
3864.7
3865.99
3864.38
3859.89
3852.55
3842.43
3829.65
3814.37
3796.79
3777.13
3755.67
3732.69
3708.47
3683.34
3657.62
3631.6
3605.59
3579.88
3554.71
3530.32
3506.9
3484.62
3463.61
3443.97
3425.78
3409.09
3393.93
3380.29
3368.18
3357.57
3348.43
3340.72
3334.41
3329.44
3325.78
3323.38
3322.24
3322.28
3323.49
3325.85
3329.35
3333.98
3339.75
3346.65
3354.69
3363.87
3374.19
3385.64
3398.23
3411.93
3426.72
3442.57
3459.43
3477.26
3495.98
3515.51
3535.77
3556.66
3578.24
3600.15
3622.2
3644.26
3666.16
3687.72
3708.73
3728.99
3748.28
3766.38
3783.09
3798.19
3811.5
3822.85
3832.09
3839.1
3843.76
3846.03
3845.74
3842.98
3837.77
3830.15
3820.24
3808.14
3794.03
3778.08
3760.51
3741.53
3721.38
3700.32
3678.6
3656.47
3634.18
3611.97
3590.12
3570.94
3550.57
3530.9
3512.16
3494.51
3478.04
3462.83
3448.92
3436.36
3425.15
3415.27
3406.72
3399.44
3393.4
3388.55
3384.84
3382.2
3380.61
3380.22
3380.89
3382.6
3385.31
3388.97
3393.6
3399.16
3445.26
3463.88
3475.61
3503.39
3533.21
3563.25
3592.89
3621.61
3649.1
3675.08
3699.29
3721.51
3741.58
3759.32
3774.61
3787.35
3797.44
3804.83
3809.43
3811.19
3810.11
3806.22
3799.48
3789.93
3777.61
3762.65
3745.18
3725.36
3703.45
3679.67
3654.32
3627.72
3600.22
3572.16
3543.89
3515.87
3488.83
3462.04
3436.1
3411.27
3387.71
3365.57
3344.95
3325.91
3308.48
3292.68
3278.5
3265.92
3254.91
3245.43
3237.46
3230.97
3225.95
3222.39
3220.3
3219.68
3220.54
3222.89
3226.72
3232.02
3238.78
3246.95
3256.48
3267.32
3279.39
3292.63
3306.98
3322.39
3338.79
3356.15
3374.41
3393.54
3413.49
3434.21
3455.66
3477.74
3499.49
3521.81
3544.68
3567.79
3590.87
3613.71
3636.07
3657.72
3678.4
3697.85
3715.8
3731.99
3746.18
3758.13
3767.62
3774.47
3778.54
3779.71
3777.91
3773.18
3765.52
3755.01
3741.78
3726
3707.89
3687.71
3665.74
3642.29
3617.68
3592.26
3566.36
3540.31
3514.41
3488.97
3464.22
3440.38
3417.64
3396.11
3375.91
3357.09
3339.69
3323.7
3309.11
3295.89
3283.99
3273.37
3263.99
3255.79
3248.73
3242.8
3237.95
3234.19
3231.49
3229.86
3229.34
3229.92
3231.64
3234.52
3238.63
3244
3250.69
3258.75
3268.24
3279.19
3291.63
3305.58
3321.05
3338.02
3356.44
3376.26
3397.39
3419.69
3443.03
3467.23
3492.09
3517.37
3542.83
3568.22
3593.25
3617.65
3641.13
3663.43
3684.26
3703.39
3720.59
3735.65
3748.39
3758.68
3766.4
3771.49
3773.9
3773.61
3770.68
3765.17
3757.14
3746.72
3734.03
3719.23
3702.49
3683.99
3663.93
3642.51
3619.94
3596.44
3572.23
3547.53
3522.56
3497.53
3472.64
3448.11
3424.12
3400.86
3378.49
3357.18
3337.08
3318.3
3300.96
3285.15
3270.95
3258.42
3247.59
3238.47
3231.07
3225.37
3221.31
3218.9
3218.06
3218.73
3220.85
3224.37
3229.24
3235.4
3242.81
3251.43
3261.22
3272.14
3284.19
3297.34
3311.57
3326.87
3343.22
3360.6
3378.98
3398.32
3418.56
3439.64
3461.46
3483.93
3506.91
3530.23
3553.72
3577.18
3600.39
3623.1
3645.07
3666.03
3685.7
3703.83
3720.15
3734.43
3746.44
3755.98
3762.89
3767.04
3768.35
3766.73
3762.24
3754.88
3744.73
3731.92
3716.6
3698.97
3679.28
3657.76
3634.72
3610.46
3585.28
3559.5
3533.44
3507.39
3481.64
3456.44
3432.02
3408.57
3386.28
3365.26
3345.61
3327.42
3310.73
3295.57
3281.94
3269.83
3259.23
3250.1
3242.4
3236.09
3231.13
3227.48
3225.09
3223.95
3224
3225.21
3227.57
3231.07
3235.7
3241.47
3248.37
3256.4
3265.58
3275.9
3287.35
3299.94
3313.64
3328.44
3344.29
3361.16
3378.99
3397.72
3417.26
3437.54
3458.45
3480.03
3501.98
3524.04
3546.13
3568.07
3589.66
3610.71
3631.01
3650.33
3668.47
3685.21
3700.35
3713.7
3725.07
3734.34
3741.36
3746.04
3748.32
3748.03
3745.26
3740.04
3732.4
3722.46
3710.34
3696.19
3680.21
3662.59
3643.57
3623.38
3602.28
3580.52
3558.35
3536.03
3513.79
3491.92
3472.67
3452.29
3432.61
3413.86
3396.19
3379.71
3364.5
3350.6
3338.04
3326.83
3316.96
3308.41
3301.14
3295.12
3290.28
3286.57
3283.94
3282.36
3281.97
3282.65
3284.36
3287.07
3290.73
3295.36
3300.93
3346.73
3365.57
3377.29
3405.18
3435.08
3465.19
3494.89
3523.68
3551.23
3577.26
3601.53
3623.79
3643.89
3661.67
3676.99
3689.76
3699.87
3707.26
3711.88
3713.65
3712.58
3708.68
3701.92
3692.34
3680
3665
3647.48
3627.62
3605.64
3581.8
3556.37
3529.71
3502.13
3474.01
3445.68
3417.6
3390.51
3363.68
3337.71
3312.85
3289.27
3267.12
3246.5
3227.45
3210.03
3194.24
3180.07
3167.5
3156.49
3147.02
3139.06
3132.58
3127.56
3124
3121.91
3121.28
3122.15
3124.5
3128.34
3133.64
3140.41
3148.58
3158.12
3168.97
3181.05
3194.29
3208.66
3224.07
3240.48
3257.84
3276.1
3295.24
3315.2
3335.92
3357.38
3379.47
3401.26
3423.61
3446.51
3469.65
3492.76
3515.65
3538.06
3559.77
3580.5
3600
3618.01
3634.26
3648.5
3660.49
3670.03
3676.91
3681
3682.19
3680.39
3675.65
3667.96
3657.42
3644.14
3628.32
3610.15
3589.91
3567.87
3544.34
3519.67
3494.18
3468.21
3442.1
3416.15
3390.66
3365.88
3342.01
3319.24
3297.71
3277.5
3258.68
3241.28
3225.3
3210.73
3197.52
3185.63
3175.02
3165.64
3157.45
3150.41
3144.48
3139.64
3135.87
3133.17
3131.55
3131.02
3131.6
3133.3
3136.18
3140.27
3145.63
3152.31
3160.37
3169.84
3180.78
3193.22
3207.16
3222.63
3239.6
3258.03
3277.86
3299
3321.33
3344.7
3368.94
3393.83
3419.16
3444.67
3470.11
3495.2
3519.66
3543.2
3565.55
3586.45
3605.63
3622.87
3637.97
3650.75
3661.07
3668.81
3673.91
3676.32
3676.03
3673.08
3667.55
3659.5
3649.04
3636.32
3621.48
3604.69
3586.15
3566.04
3544.58
3521.96
3498.42
3474.16
3449.42
3424.4
3399.33
3374.4
3349.84
3325.81
3302.52
3280.13
3258.8
3238.67
3219.88
3202.53
3186.71
3172.51
3159.97
3149.14
3140.03
3132.63
3126.93
3122.89
3120.49
3119.66
3120.34
3122.47
3126
3130.88
3137.05
3144.47
3153.09
3162.88
3173.81
3185.86
3199
3213.24
3228.54
3244.89
3262.27
3280.66
3300
3320.25
3341.34
3363.18
3385.67
3408.68
3432.03
3455.56
3479.07
3502.32
3525.09
3547.11
3568.13
3587.86
3606.04
3622.42
3636.75
3648.8
3658.38
3665.33
3669.5
3670.81
3669.2
3664.69
3657.31
3647.13
3634.28
3618.91
3601.24
3581.48
3559.9
3536.8
3512.46
3487.22
3461.38
3435.26
3409.16
3383.36
3358.12
3333.66
3310.2
3287.88
3266.84
3247.19
3229
3212.31
3197.15
3183.52
3171.42
3160.83
3151.71
3144.02
3137.72
3132.77
3129.13
3126.75
3125.62
3125.67
3126.88
3129.24
3132.74
3137.38
3143.14
3150.04
3158.07
3167.25
3177.56
3189.02
3201.61
3215.31
3230.1
3245.96
3262.84
3280.67
3299.41
3318.97
3339.27
3360.2
3381.81
3403.78
3425.88
3448
3469.98
3491.61
3512.7
3533.05
3552.42
3570.61
3587.39
3602.58
3615.96
3627.37
3636.67
3643.71
3648.41
3650.69
3650.41
3647.64
3642.39
3634.74
3624.77
3612.61
3598.42
3582.4
3564.73
3545.66
3525.41
3504.25
3482.44
3460.23
3437.87
3415.59
3393.7
3374.36
3353.97
3334.26
3315.5
3297.82
3281.33
3266.12
3252.21
3239.66
3228.45
3218.59
3210.05
3202.8
3196.78
3191.95
3188.26
3185.64
3184.06
3183.68
3184.36
3186.08
3188.79
3192.46
3197.09
3202.66
3248.11
3267.21
3278.93
3306.94
3336.94
3367.14
3396.92
3425.78
3453.4
3479.5
3503.83
3526.15
3546.3
3564.12
3579.47
3592.26
3602.4
3609.81
3614.43
3616.22
3615.15
3611.25
3604.47
3594.87
3582.49
3567.44
3549.87
3529.94
3507.89
3483.96
3458.46
3431.71
3404.05
3375.84
3347.43
3319.3
3292.14
3265.26
3239.26
3214.36
3190.77
3168.61
3147.97
3128.93
3111.52
3095.73
3081.57
3069.01
3058.02
3048.56
3040.6
3034.12
3029.11
3025.56
3023.47
3022.84
3023.7
3026.06
3029.9
3035.21
3041.98
3050.16
3059.71
3070.57
3082.66
3095.91
3110.29
3125.71
3142.13
3159.49
3177.76
3196.9
3216.87
3237.6
3259.07
3281.18
3303.02
3325.39
3348.32
3371.5
3394.66
3417.6
3440.07
3461.84
3482.64
3502.21
3520.28
3536.6
3550.91
3562.95
3572.54
3579.46
3583.58
3584.78
3582.99
3578.23
3570.52
3559.93
3546.61
3530.72
3512.48
3492.16
3470.04
3446.43
3421.67
3396.09
3370.05
3343.87
3317.86
3292.31
3267.48
3243.58
3220.79
3199.24
3179.03
3160.21
3142.82
3126.85
3112.28
3099.08
3087.21
3076.62
3067.25
3059.07
3052.04
3046.12
3041.28
3037.52
3034.82
3033.19
3032.66
3033.23
3034.93
3037.79
3041.87
3047.22
3053.88
3061.92
3071.39
3082.31
3094.74
3108.68
3124.14
3141.11
3159.55
3179.4
3200.56
3222.92
3246.33
3270.6
3295.54
3320.93
3346.5
3372
3397.16
3421.69
3445.3
3467.73
3488.69
3507.93
3525.24
3540.39
3553.21
3563.56
3571.33
3576.44
3578.85
3578.55
3575.59
3570.03
3561.95
3551.45
3538.68
3523.8
3506.96
3488.36
3468.2
3446.68
3424.01
3400.41
3376.09
3351.3
3326.23
3301.11
3276.14
3251.53
3227.47
3204.14
3181.72
3160.36
3140.21
3121.4
3104.03
3088.2
3073.99
3061.46
3050.63
3041.52
3034.13
3028.44
3024.41
3022.02
3021.2
3021.89
3024.04
3027.58
3032.47
3038.65
3046.07
3054.7
3064.49
3075.43
3087.48
3100.62
3114.85
3130.16
3146.51
3163.9
3182.29
3201.64
3221.9
3243
3264.87
3287.38
3310.43
3333.82
3357.39
3380.95
3404.26
3427.1
3449.18
3470.27
3490.07
3508.32
3524.76
3539.15
3551.26
3560.89
3567.87
3572.07
3573.39
3571.78
3567.26
3559.85
3549.64
3536.74
3521.31
3503.57
3483.74
3462.09
3438.9
3414.49
3389.17
3363.25
3337.06
3310.9
3285.04
3259.75
3235.26
3211.76
3189.42
3168.37
3148.71
3130.51
3113.82
3098.66
3085.05
3072.96
3062.37
3053.26
3045.58
3039.3
3034.36
3030.73
3028.36
3027.23
3027.29
3028.51
3030.87
3034.37
3039
3044.77
3051.66
3059.69
3068.87
3079.18
3090.63
3103.22
3116.92
3131.72
3147.58
3164.47
3182.32
3201.07
3220.65
3240.97
3261.92
3283.55
3305.56
3327.7
3349.87
3371.89
3393.57
3414.72
3435.12
3454.55
3472.79
3489.63
3504.87
3518.3
3529.76
3539.08
3546.16
3550.87
3553.17
3552.89
3550.11
3544.85
3537.16
3527.16
3514.96
3500.72
3484.64
3466.91
3447.77
3427.47
3406.25
3384.38
3362.11
3339.69
3317.37
3295.45
3276.01
3255.6
3235.87
3217.09
3199.39
3182.9
3167.68
3153.77
3141.22
3130.02
3120.17
3111.65
3104.4
3098.4
3093.59
3089.9
3087.3
3085.73
3085.35
3086.04
3087.77
3090.48
3094.15
3098.78
3104.35
3149.4
3168.79
3180.53
3208.69
3238.8
3269.1
3298.97
3327.92
3355.62
3381.8
3406.19
3428.58
3448.78
3466.65
3482.05
3494.87
3505.03
3512.46
3517.1
3518.9
3517.84
3513.92
3507.13
3497.49
3485.07
3469.98
3452.34
3432.33
3410.2
3386.18
3360.57
3333.72
3305.96
3277.66
3249.17
3220.96
3193.73
3166.79
3140.74
3115.81
3092.2
3070.02
3049.38
3030.34
3012.93
2997.16
2983.01
2970.46
2959.48
2950.03
2942.08
2935.61
2930.61
2927.05
2924.96
2924.33
2925.2
2927.55
2931.4
2936.72
2943.5
2951.69
2961.25
2972.12
2984.22
2997.49
3011.87
3027.3
3043.73
3061.1
3079.38
3098.53
3118.5
3139.25
3160.73
3182.85
3204.75
3227.14
3250.12
3273.34
3296.56
3319.56
3342.1
3363.94
3384.81
3404.46
3422.61
3439.01
3453.39
3465.51
3475.15
3482.12
3486.27
3487.48
3485.7
3480.93
3473.18
3462.55
3449.16
3433.2
3414.88
3394.47
3372.25
3348.54
3323.68
3298.01
3271.88
3245.61
3219.53
3193.92
3169.04
3145.1
3122.28
3100.71
3080.49
3061.67
3044.29
3028.33
3013.78
3000.6
2988.74
2978.17
2968.82
2960.65
2953.63
2947.71
2942.88
2939.12
2936.42
2934.79
2934.25
2934.81
2936.5
2939.35
2943.42
2948.75
2955.4
2963.42
2972.87
2983.78
2996.2
3010.13
3025.59
3042.56
3061.01
3080.88
3102.06
3124.45
3147.9
3172.22
3197.22
3222.67
3248.31
3273.89
3299.13
3323.74
3347.44
3369.95
3390.99
3410.31
3427.68
3442.89
3455.76
3466.15
3473.94
3479.07
3481.49
3481.18
3478.2
3472.61
3464.49
3453.95
3441.13
3426.19
3409.29
3390.63
3370.4
3348.81
3326.07
3302.41
3278.03
3253.17
3228.05
3202.87
3177.85
3153.19
3129.08
3105.72
3083.26
3061.87
3041.69
3022.85
3005.47
2989.63
2975.41
2962.87
2952.04
2942.93
2935.55
2929.88
2925.87
2923.49
2922.68
2923.39
2925.55
2929.1
2934
2940.19
2947.63
2956.26
2966.06
2977
2989.05
3002.2
3016.43
3031.73
3048.09
3065.48
3083.87
3103.23
3123.51
3144.63
3166.52
3189.06
3212.15
3235.59
3259.21
3282.83
3306.21
3329.12
3351.28
3372.45
3392.33
3410.66
3427.18
3441.64
3453.82
3463.5
3470.52
3474.74
3476.08
3474.48
3469.94
3462.5
3452.25
3439.29
3423.8
3405.98
3386.06
3364.32
3341.04
3316.54
3291.12
3265.12
3238.85
3212.61
3186.69
3161.34
3136.8
3113.27
3090.9
3069.83
3050.16
3031.95
3015.26
3000.11
2986.5
2974.42
2963.85
2954.76
2947.09
2940.82
2935.9
2932.28
2929.93
2928.8
2928.87
2930.09
2932.46
2935.96
2940.59
2946.35
2953.24
2961.27
2970.44
2980.75
2992.2
3004.79
3018.49
3033.3
3049.16
3066.06
3083.92
3102.69
3122.29
3142.63
3163.61
3185.27
3207.32
3229.51
3251.73
3273.8
3295.54
3316.75
3337.22
3356.71
3375.02
3391.93
3407.22
3420.71
3432.22
3441.59
3448.69
3453.43
3455.74
3455.47
3452.68
3447.39
3439.68
3429.64
3417.38
3403.08
3386.93
3369.14
3349.93
3329.55
3308.25
3286.31
3263.97
3241.5
3219.12
3197.17
3177.63
3157.18
3137.43
3118.62
3100.91
3084.41
3069.18
3055.28
3042.73
3031.54
3021.7
3013.19
3005.96
2999.98
2995.18
2991.51
2988.92
2987.36
2986.99
2987.69
2989.42
2992.13
2995.81
3000.44
3006.01
3050.6
3070.32
3082.09
3110.42
3140.65
3171.06
3201.04
3230.09
3257.88
3284.15
3308.62
3331.08
3351.35
3369.27
3384.72
3397.58
3407.77
3415.22
3419.88
3421.69
3420.64
3416.71
3409.89
3400.23
3387.76
3372.6
3354.89
3334.79
3312.56
3288.44
3262.72
3235.75
3207.88
3179.47
3150.88
3122.59
3095.27
3068.27
3042.17
3017.2
2993.55
2971.36
2950.71
2931.67
2914.27
2898.51
2884.38
2871.84
2860.87
2851.44
2843.5
2837.04
2832.04
2828.49
2826.4
2825.77
2826.63
2828.99
2832.84
2838.17
2844.96
2853.16
2862.74
2873.62
2885.73
2899.02
2913.41
2928.85
2945.29
2962.67
2980.96
3000.11
3020.1
3040.85
3062.34
3084.49
3106.45
3128.88
3151.9
3175.18
3198.45
3221.52
3244.14
3266.06
3287.02
3306.77
3325.01
3341.5
3355.96
3368.16
3377.87
3384.89
3389.08
3390.31
3388.53
3383.74
3375.96
3365.27
3351.82
3335.77
3317.36
3296.84
3274.51
3250.69
3225.72
3199.93
3173.7
3147.33
3121.17
3095.49
3070.55
3046.56
3023.71
3002.12
2981.89
2963.07
2945.69
2929.75
2915.22
2902.05
2890.22
2879.66
2870.33
2862.18
2855.17
2849.26
2844.44
2840.68
2837.98
2836.35
2835.8
2836.35
2838.03
2840.87
2844.92
2850.23
2856.85
2864.86
2874.29
2885.19
2897.59
2911.52
2926.97
2943.95
2962.41
2982.29
3003.51
3025.94
3049.43
3073.81
3098.87
3124.39
3150.11
3175.78
3201.11
3225.82
3249.61
3272.21
3293.34
3312.75
3330.19
3345.47
3358.4
3368.84
3376.66
3381.81
3384.23
3383.91
3380.91
3375.29
3367.13
3356.53
3343.66
3328.65
3311.68
3292.95
3272.64
3250.98
3228.17
3204.42
3179.98
3155.04
3129.85
3104.61
3079.53
3054.81
3030.66
3007.24
2984.74
2963.32
2943.11
2924.24
2906.84
2890.98
2876.75
2864.21
2853.38
2844.28
2836.91
2831.25
2827.25
2824.89
2824.11
2824.83
2827
2830.58
2835.49
2841.69
2849.14
2857.78
2867.59
2878.52
2890.58
2903.72
2917.95
2933.26
2949.61
2967.01
2985.41
3004.78
3025.07
3046.21
3068.13
3090.71
3113.84
3137.33
3161.02
3184.71
3208.16
3231.15
3253.41
3274.66
3294.64
3313.07
3329.68
3344.22
3356.47
3366.21
3373.28
3377.54
3378.89
3377.29
3372.73
3365.26
3354.95
3341.93
3326.37
3308.46
3288.45
3266.6
3243.22
3218.6
3193.09
3166.98
3140.62
3114.29
3088.3
3062.89
3038.3
3014.72
2992.32
2971.23
2951.54
2933.33
2916.64
2901.5
2887.9
2875.83
2865.28
2856.19
2848.55
2842.29
2837.39
2833.78
2831.44
2830.33
2830.4
2831.62
2833.99
2837.5
2842.13
2847.88
2854.77
2862.8
2871.96
2882.27
2893.72
2906.31
2920.01
2934.82
2950.7
2967.6
2985.48
3004.27
3023.89
3044.26
3065.28
3086.96
3109.06
3131.3
3153.58
3175.71
3197.52
3218.8
3239.34
3258.91
3277.3
3294.28
3309.64
3323.2
3334.76
3344.18
3351.32
3356.08
3358.4
3358.14
3355.34
3350.03
3342.28
3332.19
3319.88
3305.51
3289.29
3271.41
3252.12
3231.66
3210.28
3188.25
3165.84
3143.29
3120.85
3098.86
3079.2
3058.72
3038.94
3020.11
3002.38
2985.86
2970.62
2956.72
2944.18
2933
2923.17
2914.68
2907.47
2901.5
2896.72
2893.07
2890.49
2888.95
2888.59
2889.29
2891.03
2893.75
2897.43
2902.07
2907.64
2951.71
2971.78
2983.63
3012.12
3042.5
3073.04
3103.13
3132.3
3160.19
3186.56
3211.13
3233.66
3254.01
3271.99
3287.49
3300.39
3310.62
3318.09
3322.77
3324.6
3323.55
3319.61
3312.77
3303.06
3290.54
3275.32
3257.52
3237.33
3214.99
3190.74
3164.9
3137.8
3109.8
3081.27
3052.56
3024.18
2996.76
2969.69
2943.53
2918.52
2894.84
2872.63
2851.98
2832.94
2815.54
2799.79
2785.68
2773.16
2762.21
2752.79
2744.86
2738.41
2733.42
2729.87
2727.78
2727.14
2728.01
2730.38
2734.23
2739.57
2746.36
2754.58
2764.17
2775.07
2787.2
2800.5
2814.91
2830.36
2846.81
2864.2
2882.49
2901.65
2921.65
2942.42
2963.93
2986.09
3008.12
3030.6
3053.66
3077
3100.34
3123.49
3146.2
3168.22
3189.28
3209.12
3227.47
3244.06
3258.62
3270.9
3280.68
3287.77
3292
3293.25
3291.48
3286.67
3278.84
3268.1
3254.56
3238.42
3219.9
3199.27
3176.81
3152.87
3127.76
3101.86
3075.5
3049.03
3022.77
2997.01
2972
2947.97
2925.08
2903.47
2883.23
2864.41
2847.04
2831.11
2816.6
2803.46
2791.65
2781.11
2771.8
2763.66
2756.66
2750.77
2745.95
2742.2
2739.5
2737.87
2737.31
2737.85
2739.51
2742.33
2746.36
2751.65
2758.26
2766.24
2775.65
2786.54
2798.92
2812.84
2828.29
2845.27
2863.74
2883.65
2904.89
2927.36
2950.91
2975.35
3000.48
3026.09
3051.9
3077.67
3103.1
3127.91
3151.82
3174.52
3195.75
3215.26
3232.79
3248.15
3261.14
3271.63
3279.49
3284.65
3287.07
3286.75
3283.73
3278.07
3269.85
3259.2
3246.26
3231.18
3214.13
3195.32
3174.93
3153.18
3130.28
3106.45
3081.92
3056.91
3031.64
3006.33
2981.18
2956.4
2932.19
2908.72
2886.17
2864.71
2844.46
2825.57
2808.14
2792.27
2778.03
2765.48
2754.65
2745.56
2738.2
2732.55
2728.58
2726.24
2725.47
2726.21
2728.41
2731.99
2736.92
2743.14
2750.6
2759.25
2769.06
2780
2792.05
2805.2
2819.43
2834.74
2851.09
2868.49
2886.9
2906.28
2926.59
2947.76
2969.7
2992.32
3015.51
3039.06
3062.81
3086.58
3110.12
3133.21
3155.56
3176.92
3197
3215.53
3232.24
3246.88
3259.21
3269.02
3276.15
3280.44
3281.81
3280.21
3275.64
3268.13
3257.77
3244.67
3229.02
3211.01
3190.89
3168.93
3145.43
3120.69
3095.06
3068.84
3042.37
3015.95
2989.87
2964.39
2939.73
2916.11
2893.68
2872.56
2852.86
2834.64
2817.96
2802.82
2789.23
2777.18
2766.64
2757.57
2749.95
2743.71
2738.82
2735.23
2732.91
2731.8
2731.88
2733.11
2735.49
2738.99
2743.62
2749.37
2756.26
2764.28
2773.44
2783.74
2795.19
2807.78
2821.49
2836.3
2852.18
2869.1
2887
2905.81
2925.45
2945.85
2966.91
2988.63
3010.78
3033.08
3055.42
3077.63
3099.51
3120.87
3141.5
3161.16
3179.63
3196.69
3212.13
3225.76
3237.38
3246.85
3254.04
3258.83
3261.17
3260.91
3258.1
3252.76
3244.97
3234.83
3222.45
3208.01
3191.7
3173.73
3154.35
3133.79
3112.31
3090.2
3067.69
3045.07
3022.56
3000.53
2980.73
2960.22
2940.4
2921.54
2903.79
2887.25
2872.01
2858.11
2845.57
2834.4
2824.59
2816.12
2808.93
2802.98
2798.22
2794.59
2792.03
2790.5
2790.15
2790.87
2792.61
2795.34
2799.02
2803.66
2809.24
2852.72
2873.17
2885.15
2913.81
2944.34
2975.02
3005.25
3034.54
3062.55
3089.02
3113.69
3136.32
3156.75
3174.8
3190.35
3203.31
3213.57
3221.07
3225.77
3227.61
3226.57
3222.62
3215.75
3206.01
3193.43
3178.13
3160.23
3139.93
3117.47
3093.09
3067.11
3039.86
3011.72
2983.05
2954.22
2925.73
2898.21
2871.06
2844.83
2819.77
2796.06
2773.83
2753.17
2734.13
2716.74
2701.01
2686.91
2674.42
2663.48
2654.08
2646.17
2639.72
2634.73
2631.19
2629.11
2628.47
2629.34
2631.7
2635.56
2640.91
2647.71
2655.95
2665.55
2676.47
2688.62
2701.94
2716.36
2731.83
2748.29
2765.69
2783.99
2803.16
2823.17
2843.95
2865.47
2887.66
2909.77
2932.29
2955.4
2978.81
3002.23
3025.47
3048.28
3070.4
3091.57
3111.53
3129.99
3146.69
3161.35
3173.74
3183.61
3190.76
3195.03
3196.32
3194.54
3189.71
3181.84
3171.03
3157.41
3141.16
3122.52
3101.75
3079.16
3055.07
3029.83
3003.78
2977.3
2950.71
2924.34
2898.49
2873.41
2849.32
2826.39
2804.75
2784.5
2765.68
2748.32
2732.41
2717.92
2704.8
2693.02
2682.5
2673.21
2665.1
2658.12
2652.23
2647.42
2643.67
2640.98
2639.34
2638.77
2639.3
2640.95