/*--------------------------------*- C++ -*----------------------------------*\
| =========                 |                                                 |
| \\      /  F ield         | OpenFOAM: The Open Source CFD Toolbox           |
|  \\    /   O peration     | Version:  3.0.1                                 |
|   \\  /    A nd           | Web:      www.OpenFOAM.org                      |
|    \\/     M anipulation  |                                                 |
\*---------------------------------------------------------------------------*/
FoamFile
{
    version     2.0;
    format      ascii;
    class       surfaceScalarField;
    location    "67.6";
    object      phi;
}
// * * * * * * * * * * * * * * * * * * * * * * * * * * * * * * * * * * * * * //

dimensions      [0 3 -1 0 0 0 0];

internalField   nonuniform List<scalar> 
42423
(
-0.000183602
-1.65286e-06
-0.000181186
-2.41609e-06
-0.00017807
-3.11609e-06
-0.000174212
-3.85819e-06
-0.000169467
-4.74522e-06
-0.000163974
-5.49318e-06
-0.000157466
-6.50723e-06
-0.000150151
-7.31487e-06
-0.000141981
-8.17035e-06
-0.000132846
-9.1356e-06
-0.000122702
-1.01437e-05
-0.000111673
-1.10285e-05
-9.94825e-05
-1.21909e-05
-8.63167e-05
-1.31658e-05
-7.20136e-05
-1.43032e-05
-5.68009e-05
-1.52127e-05
-4.0813e-05
-1.59879e-05
-2.39389e-05
-1.68741e-05
-6.38592e-06
-1.7553e-05
1.16498e-05
-1.80358e-05
3.02544e-05
-1.86046e-05
4.92171e-05
-1.89627e-05
6.81818e-05
-1.89647e-05
8.70062e-05
-1.88245e-05
0.000105469
-1.84632e-05
0.000123272
-1.78029e-05
0.000140197
-1.69248e-05
0.000155908
-1.57109e-05
0.00017016
-1.42518e-05
0.000182766
-1.26064e-05
0.000193395
-1.06285e-05
0.000201965
-8.57001e-06
0.000208238
-6.27347e-06
0.00021213
-3.89192e-06
0.0002136
-1.47028e-06
0.000212485
1.11535e-06
0.000208915
3.56946e-06
0.000202977
5.93873e-06
0.000194627
8.34959e-06
0.000184305
1.03224e-05
0.000172019
1.22852e-05
0.000158111
1.39088e-05
0.000142801
1.53098e-05
0.000126174
1.66271e-05
0.000108781
1.73928e-05
9.05415e-05
1.82392e-05
7.20432e-05
1.84983e-05
5.32523e-05
1.87909e-05
3.45616e-05
1.86906e-05
1.6088e-05
1.84736e-05
-1.96252e-06
1.80505e-05
-1.94694e-05
1.75068e-05
-3.62761e-05
1.68068e-05
-5.23293e-05
1.60531e-05
-6.75074e-05
1.51781e-05
-8.17718e-05
1.42643e-05
-9.51192e-05
1.33475e-05
-0.000107468
1.23491e-05
-0.000118851
1.13823e-05
-0.000129283
1.04321e-05
-0.000138778
9.49555e-06
-0.000147404
8.62542e-06
-0.000155111
7.70704e-06
-0.000161974
6.86325e-06
-0.000168041
6.06692e-06
-0.000173212
5.17061e-06
-0.000177605
4.39361e-06
-0.000181227
3.62208e-06
-0.000183998
2.77098e-06
-0.0001861
2.10147e-06
-0.000187391
1.29122e-06
-0.000187857
4.66228e-07
-0.000187624
-2.32789e-07
-0.000186621
-1.00348e-06
-0.000184752
-1.86937e-06
-0.000182121
-2.63084e-06
-0.000178622
-3.49838e-06
-0.000174307
-4.31565e-06
-0.000169185
-5.12165e-06
-0.000163305
-5.88027e-06
-0.000156448
-6.85629e-06
-0.000148867
-7.58145e-06
-0.000140351
-8.51565e-06
-0.000131048
-9.30327e-06
-0.000120853
-1.01953e-05
-0.000109769
-1.10837e-05
-9.78119e-05
-1.19574e-05
-8.48858e-05
-1.29261e-05
-7.12148e-05
-1.3671e-05
-5.66272e-05
-1.45876e-05
-4.12392e-05
-1.53881e-05
-2.51843e-05
-1.60549e-05
-8.54689e-06
-1.66374e-05
8.56581e-06
-1.71127e-05
2.60536e-05
-1.74878e-05
4.3768e-05
-1.77144e-05
6.15257e-05
-1.77578e-05
7.92078e-05
-1.76821e-05
9.66008e-05
-1.7393e-05
0.000113514
-1.69132e-05
0.000129737
-1.62235e-05
0.000145059
-1.53218e-05
0.000159256
-1.41963e-05
0.000172087
-1.28316e-05
0.000183351
-1.12636e-05
0.000192825
-9.47418e-06
0.00020033
-7.50512e-06
0.000205711
-5.38112e-06
0.000208828
-3.11733e-06
0.000209613
-7.84729e-07
0.000208028
1.5846e-06
0.000203975
4.05313e-06
0.000197565
6.41048e-06
0.000188888
8.6769e-06
0.000178081
1.08064e-05
0.00016534
1.27409e-05
0.000150901
1.4439e-05
0.000134994
1.59077e-05
0.000117881
1.71126e-05
9.98599e-05
1.80211e-05
8.11917e-05
1.86682e-05
6.21639e-05
1.90277e-05
4.30129e-05
1.91509e-05
2.39894e-05
1.90235e-05
5.30342e-06
1.8686e-05
-1.28748e-05
1.81782e-05
-3.03806e-05
1.75058e-05
-4.70546e-05
1.6674e-05
-6.2808e-05
1.57534e-05
-7.75807e-05
1.47727e-05
-9.12753e-05
1.36947e-05
-0.000103915
1.26396e-05
-0.00011544
1.15249e-05
-0.000125903
1.04633e-05
-0.000135302
9.39915e-06
-0.000143634
8.33151e-06
-0.000150957
7.32294e-06
-0.000157412
6.45557e-06
-0.000162885
5.47284e-06
-0.000167531
4.6456e-06
-0.000171429
3.89859e-06
-0.000174552
3.12279e-06
-0.000176988
2.43593e-06
-0.000178688
1.69963e-06
-0.000179869
1.18095e-06
-0.0001804
5.31118e-07
-0.000180342
-5.81805e-08
-0.000179659
-6.82617e-07
-0.000178527
-1.13226e-06
-0.000176796
-1.73121e-06
-0.000174528
-2.26756e-06
-0.000171689
-2.83881e-06
-0.000168261
-3.42789e-06
-0.0001642
-4.06128e-06
-0.000159587
-4.61337e-06
-0.00015423
-5.35714e-06
-0.000148168
-6.06205e-06
-0.000141359
-6.80896e-06
-0.000133763
-7.59551e-06
-0.000125307
-8.45615e-06
-0.000116109
-9.19783e-06
-0.000106004
-1.01055e-05
-9.50682e-05
-1.09355e-05
-8.32178e-05
-1.18504e-05
-7.05135e-05
-1.27043e-05
-5.69193e-05
-1.35942e-05
-4.25745e-05
-1.43448e-05
-2.74268e-05
-1.51477e-05
-1.16484e-05
-1.57785e-05
4.67966e-06
-1.63281e-05
2.14983e-05
-1.68187e-05
3.85469e-05
-1.70486e-05
5.57385e-05
-1.71916e-05
7.28512e-05
-1.71127e-05
8.96712e-05
-1.682e-05
0.000105974
-1.63031e-05
0.000121521
-1.55468e-05
0.000136062
-1.45409e-05
0.000149356
-1.3294e-05
0.000161174
-1.18181e-05
0.000171195
-1.0021e-05
0.000179289
-8.09375e-06
0.000185264
-5.97497e-06
0.000188985
-3.72157e-06
0.000190355
-1.36992e-06
0.000189369
9.86088e-07
0.000185967
3.40203e-06
0.000180247
5.72014e-06
0.000172344
7.90232e-06
0.000162411
9.93362e-06
0.000150614
1.17971e-05
0.000137194
1.34196e-05
0.000122378
1.48156e-05
0.000106388
1.59905e-05
8.95363e-05
1.68514e-05
7.20528e-05
1.74835e-05
5.42035e-05
1.78493e-05
3.62419e-05
1.79615e-05
1.83479e-05
1.7894e-05
8.24614e-07
1.75233e-05
-1.61979e-05
1.70225e-05
-3.25976e-05
1.63997e-05
-4.82453e-05
1.56477e-05
-6.30582e-05
1.48129e-05
-7.70065e-05
1.39483e-05
-9.0061e-05
1.30545e-05
-0.000102169
1.21078e-05
-0.000113304
1.11348e-05
-0.000123397
1.00933e-05
-0.000132497
9.09992e-06
-0.000140585
8.08854e-06
-0.000147663
7.07773e-06
-0.00015382
6.15708e-06
-0.000159096
5.27557e-06
-0.000163552
4.45665e-06
-0.000167313
3.76032e-06
-0.000170447
3.13407e-06
-0.000173049
2.60218e-06
-0.000175199
2.1497e-06
-0.000176909
1.71019e-06
-0.000178199
1.29052e-06
-0.000179024
8.24188e-07
-0.000179352
3.28047e-07
-0.000179146
-2.05442e-07
-0.000178363
-7.83707e-07
-0.000177044
-1.31884e-06
-0.000175156
-1.88727e-06
-0.000172722
-2.43405e-06
-0.000169709
-3.01315e-06
-0.000166132
-3.57715e-06
-0.00016196
-4.17174e-06
-0.000157189
-4.77089e-06
-0.000151756
-5.43325e-06
-0.000145623
-6.13369e-06
-0.000138745
-6.87767e-06
-0.00013103
-7.71506e-06
-0.000122442
-8.58748e-06
-0.000112942
-9.49992e-06
-0.000102506
-1.04364e-05
-9.12718e-05
-1.12343e-05
-7.91101e-05
-1.21617e-05
-6.62569e-05
-1.28532e-05
-5.26689e-05
-1.3588e-05
-3.84381e-05
-1.42308e-05
-2.36743e-05
-1.47638e-05
-8.39957e-06
-1.52747e-05
7.17724e-06
-1.55768e-05
2.30916e-05
-1.59144e-05
3.91603e-05
-1.60687e-05
5.52821e-05
-1.61218e-05
7.12707e-05
-1.59886e-05
8.68658e-05
-1.55951e-05
0.000101867
-1.50008e-05
0.000116047
-1.41805e-05
0.000129096
-1.30493e-05
0.000140865
-1.17688e-05
0.000151108
-1.02425e-05
0.000159628
-8.5207e-06
0.000166285
-6.65691e-06
0.000170937
-4.6519e-06
0.000173431
-2.49391e-06
0.000173808
-3.77589e-07
0.000171966
1.84225e-06
0.000167837
4.12897e-06
0.000161604
6.23319e-06
0.000153298
8.30594e-06
0.000143158
1.01402e-05
0.00013133
1.18278e-05
0.000118185
1.31453e-05
0.000103874
1.43101e-05
8.88132e-05
1.50612e-05
7.3086e-05
1.57272e-05
5.70685e-05
1.60174e-05
4.09031e-05
1.61654e-05
2.4784e-05
1.61191e-05
9.16697e-06
1.5617e-05
-6.08603e-06
1.5253e-05
-2.05994e-05
1.45134e-05
-3.42254e-05
1.3626e-05
-4.68775e-05
1.26521e-05
-5.84987e-05
1.16212e-05
-6.90687e-05
1.057e-05
-7.87211e-05
9.65236e-06
-8.74461e-05
8.72503e-06
-9.53855e-05
7.93936e-06
-0.000102679
7.29389e-06
-0.000109291
6.61201e-06
-0.000115295
6.00364e-06
-0.000120718
5.42255e-06
-0.000125566
4.84822e-06
-0.000129931
4.36496e-06
-0.000133728
3.79755e-06
-0.000136985
3.25703e-06
-0.000139776
2.79032e-06
-0.000142059
2.28336e-06
-0.000143831
1.77237e-06
-0.000145176
1.34473e-06
-0.000146066
8.90214e-07
-0.000146558
4.91216e-07
-0.000146666
1.08316e-07
-0.000146375
-2.90493e-07
-0.000145714
-6.61805e-07
-0.000144737
-9.76248e-07
-0.000143285
-1.45284e-06
-0.000141452
-1.83264e-06
-0.000139204
-2.2483e-06
-0.000136348
-2.85545e-06
-0.00013299
-3.35847e-06
-0.000128799
-4.19037e-06
-0.000123884
-4.91532e-06
-0.00011825
-5.63434e-06
-0.00011148
-6.76977e-06
-0.000103836
-7.6438e-06
-9.52222e-05
-8.61388e-06
-8.5443e-05
-9.77926e-06
-7.47778e-05
-1.06652e-05
-6.29016e-05
-1.18762e-05
-4.9995e-05
-1.29065e-05
-3.63169e-05
-1.36781e-05
-2.16361e-05
-1.46808e-05
-6.06173e-06
-1.55744e-05
9.96637e-06
-1.60281e-05
2.65878e-05
-1.66215e-05
4.35717e-05
-1.69839e-05
6.08152e-05
-1.72435e-05
7.81092e-05
-1.7294e-05
9.51432e-05
-1.70341e-05
0.000111719
-1.6576e-05
0.000127722
-1.60029e-05
0.000142757
-1.50352e-05
0.000156716
-1.39587e-05
0.000169407
-1.26907e-05
0.000180573
-1.11662e-05
0.000190131
-9.55857e-06
0.000197884
-7.75288e-06
0.000203775
-5.89051e-06
0.000207741
-3.96622e-06
0.000209729
-1.9881e-06
0.000209743
-1.43526e-08
0.000207865
1.87874e-06
0.000204032
3.83252e-06
0.000198494
5.53813e-06
0.000191274
7.22008e-06
0.000182666
8.60773e-06
0.000172657
1.00087e-05
0.000161462
1.11954e-05
0.000149209
1.22527e-05
0.000136122
1.30874e-05
0.000122184
1.39375e-05
0.000107709
1.44752e-05
9.27142e-05
1.4995e-05
7.74558e-05
1.52584e-05
6.19584e-05
1.54974e-05
4.63015e-05
1.56569e-05
3.07347e-05
1.55668e-05
1.51961e-05
1.55386e-05
1.53128e-05
-0.000183636
-3.29981e-06
-0.000181223
-4.82915e-06
-0.00017811
-6.2288e-06
-0.000174256
-7.71213e-06
-0.000169514
-9.48757e-06
-0.000164022
-1.09848e-05
-0.000157517
-1.30128e-05
-0.0001502
-1.46316e-05
-0.000142034
-1.63363e-05
-0.000132896
-1.82735e-05
-0.000122757
-2.02832e-05
-0.000111725
-2.20602e-05
-9.95324e-05
-2.43835e-05
-8.63593e-05
-2.6339e-05
-7.20598e-05
-2.86027e-05
-5.68439e-05
-3.04287e-05
-4.08512e-05
-3.19807e-05
-2.39782e-05
-3.37471e-05
-6.41392e-06
-3.51174e-05
1.1626e-05
-3.60757e-05
3.02422e-05
-3.72209e-05
4.92151e-05
-3.79357e-05
6.81903e-05
-3.794e-05
8.70332e-05
-3.76674e-05
0.000105509
-3.69393e-05
0.000123321
-3.56149e-05
0.000140258
-3.38613e-05
0.000155982
-3.14355e-05
0.000170244
-2.85135e-05
0.000182861
-2.52239e-05
0.000193504
-2.12717e-05
0.000202085
-1.7151e-05
0.00020836
-1.25481e-05
0.000212255
-7.78682e-06
0.000213734
-2.94992e-06
0.000212605
2.24439e-06
0.000209029
7.14605e-06
0.000203092
1.18754e-05
0.000194735
1.67059e-05
0.000184402
2.06554e-05
0.000172109
2.45788e-05
0.000158188
2.78294e-05
0.00014287
3.06283e-05
0.000126229
3.3268e-05
0.000108829
3.47924e-05
9.05759e-05
3.64924e-05
7.20652e-05
3.7009e-05
5.32702e-05
3.75859e-05
3.45638e-05
3.7397e-05
1.60837e-05
3.69537e-05
-1.97446e-06
3.61086e-05
-1.94892e-05
3.50216e-05
-3.63034e-05
3.36209e-05
-5.23632e-05
3.21129e-05
-6.75464e-05
3.03614e-05
-8.18159e-05
2.85339e-05
-9.51674e-05
2.66989e-05
-0.000107522
2.4704e-05
-0.000118909
2.27685e-05
-0.000129343
2.08661e-05
-0.00013884
1.89932e-05
-0.000147471
1.72561e-05
-0.00015518
1.54159e-05
-0.000162043
1.37262e-05
-0.000168109
1.21333e-05
-0.000173287
1.03489e-05
-0.00017768
8.78585e-06
-0.000181301
7.24363e-06
-0.000184068
5.53772e-06
-0.000186172
4.20502e-06
-0.000187473
2.59279e-06
-0.00018793
9.23247e-07
-0.000187692
-4.70624e-07
-0.000186691
-2.00497e-06
-0.000184815
-3.74558e-06
-0.000182186
-5.25953e-06
-0.000178686
-6.99813e-06
-0.00017437
-8.63152e-06
-0.000169246
-1.02464e-05
-0.000163369
-1.17567e-05
-0.00015651
-1.37159e-05
-0.000148924
-1.51672e-05
-0.000140396
-1.70436e-05
-0.000131105
-1.85941e-05
-0.000120907
-2.03934e-05
-0.000109821
-2.21702e-05
-9.78554e-05
-2.39225e-05
-8.49323e-05
-2.58493e-05
-7.12502e-05
-2.73531e-05
-5.66465e-05
-2.91914e-05
-4.12511e-05
-3.07836e-05
-2.51898e-05
-3.21162e-05
-8.54721e-06
-3.32801e-05
8.58754e-06
-3.42475e-05
2.60779e-05
-3.49782e-05
4.37988e-05
-3.54354e-05
6.15642e-05
-3.55232e-05
7.92382e-05
-3.53562e-05
9.66334e-05
-3.47884e-05
0.000113553
-3.38328e-05
0.00012978
-3.24509e-05
0.000145113
-3.0655e-05
0.000159315
-2.83979e-05
0.000172159
-2.5676e-05
0.000183434
-2.25382e-05
0.000192913
-1.89538e-05
0.000200422
-1.50141e-05
0.00020581
-1.07691e-05
0.000208929
-6.23668e-06
0.000209717
-1.57211e-06
0.000208125
3.17631e-06
0.000204078
8.10013e-06
0.000197664
1.28244e-05
0.000188974
1.73669e-05
0.000178154
2.16265e-05
0.0001654
2.5494e-05
0.000150943
2.88965e-05
0.000135031
3.182e-05
0.000117894
3.4249e-05
9.98494e-05
3.60658e-05
8.11595e-05
3.73581e-05
6.21145e-05
3.80728e-05
4.29431e-05
3.83222e-05
2.3903e-05
3.80636e-05
5.20388e-06
3.7385e-05
-1.2993e-05
3.6375e-05
-3.05134e-05
3.50262e-05
-4.72013e-05
3.33618e-05
-6.297e-05
3.15221e-05
-7.77537e-05
2.95564e-05
-9.14599e-05
2.74008e-05
-0.000104102
2.52815e-05
-0.000115633
2.30564e-05
-0.00012609
2.09196e-05
-0.000135498
1.8808e-05
-0.000143839
1.66719e-05
-0.000151193
1.46766e-05
-0.000157617
1.28802e-05
-0.000163093
1.09485e-05
-0.000167729
9.28158e-06
-0.000171633
7.80271e-06
-0.000174758
6.24778e-06
-0.000177188
4.8655e-06
-0.000178921
3.43301e-06
-0.000180042
2.30189e-06
-0.00018059
1.07936e-06
-0.000180527
-1.21524e-07
-0.000179894
-1.31596e-06
-0.000178709
-2.31657e-06
-0.00017694
-3.50014e-06
-0.000174704
-4.50395e-06
-0.000171865
-5.678e-06
-0.000168432
-6.86039e-06
-0.000164367
-8.12683e-06
-0.000159746
-9.23433e-06
-0.000154391
-1.07117e-05
-0.000148329
-1.21242e-05
-0.000141503
-1.36352e-05
-0.000133907
-1.51913e-05
-0.000125449
-1.69138e-05
-0.000116259
-1.83885e-05
-0.00010615
-2.02145e-05
-9.51951e-05
-2.18903e-05
-8.3341e-05
-2.37045e-05
-7.06393e-05
-2.54061e-05
-5.70472e-05
-2.71863e-05
-4.26858e-05
-2.87062e-05
-2.75337e-05
-3.02999e-05
-1.17379e-05
-3.15743e-05
4.60171e-06
-3.26678e-05
2.14275e-05
-3.36446e-05
3.84882e-05
-3.41093e-05
5.56988e-05
-3.44023e-05
7.28299e-05
-3.42439e-05
8.96616e-05
-3.36517e-05
0.000105982
-3.26236e-05
0.000121541
-3.11064e-05
0.000136099
-2.90986e-05
0.000149402
-2.65969e-05
0.000161233
-2.3649e-05
0.000171263
-2.00508e-05
0.000179375
-1.62065e-05
0.000185363
-1.19625e-05
0.000189088
-7.44696e-06
0.000190461
-2.74289e-06
0.000189454
1.99284e-06
0.000186043
6.81349e-06
0.000180321
1.14418e-05
0.000172404
1.58193e-05
0.00016245
1.98874e-05
0.000150664
2.35827e-05
0.000137209
2.68752e-05
0.000122385
2.9639e-05
0.000106369
3.2007e-05
8.94972e-05
3.3723e-05
7.19875e-05
3.49931e-05
5.41226e-05
3.57142e-05
3.61488e-05
3.59353e-05
1.82345e-05
3.58082e-05
6.88303e-07
3.50695e-05
-1.63518e-05
3.40626e-05
-3.27597e-05
3.28076e-05
-4.84161e-05
3.13039e-05
-6.32342e-05
2.9631e-05
-7.71939e-05
2.7908e-05
-9.02474e-05
2.6108e-05
-0.000102354
2.42141e-05
-0.000113502
2.22827e-05
-0.000123603
2.01942e-05
-0.000132703
1.82005e-05
-0.000140798
1.61832e-05
-0.000147875
1.41551e-05
-0.000154007
1.2289e-05
-0.000159303
1.0572e-05
-0.000163747
8.89975e-06
-0.000167495
7.50869e-06
-0.000170625
6.26393e-06
-0.000173231
5.2086e-06
-0.000175382
4.30048e-06
-0.000177094
3.42201e-06
-0.000178383
2.57955e-06
-0.000179199
1.64042e-06
-0.000179519
6.4833e-07
-0.000179312
-4.12905e-07
-0.000178528
-1.56794e-06
-0.000177196
-2.65075e-06
-0.000175313
-3.76997e-06
-0.00017287
-4.87693e-06
-0.000169824
-6.05933e-06
-0.000166281
-7.11979e-06
-0.000162098
-8.35526e-06
-0.000157318
-9.55065e-06
-0.000151892
-1.08591e-05
-0.000145758
-1.22677e-05
-0.000138881
-1.37548e-05
-0.00013116
-1.54367e-05
-0.000122555
-1.71922e-05
-0.000113063
-1.89919e-05
-0.000102623
-2.08768e-05
-9.13876e-05
-2.24693e-05
-7.92173e-05
-2.4332e-05
-6.63622e-05
-2.57084e-05
-5.27641e-05
-2.71861e-05
-3.85207e-05
-2.84742e-05
-2.37572e-05
-2.95274e-05
-8.4585e-06
-3.05734e-05
7.10476e-06
-3.11401e-05
2.30215e-05
-3.18312e-05
3.91088e-05
-3.21561e-05
5.52409e-05
-3.22539e-05
7.12347e-05
-3.19825e-05
8.68482e-05
-3.12086e-05
0.00010185
-3.00022e-05
0.000116032
-2.83635e-05
0.000129093
-2.61094e-05
0.000140874
-2.35502e-05
0.00015113
-2.04987e-05
0.000159664
-1.70545e-05
0.000166334
-1.33271e-05
0.000170988
-9.30608e-06
0.000173508
-5.01386e-06
0.000173885
-7.547e-07
0.000172043
3.68466e-06
0.000167915
8.25671e-06
0.000161683
1.2465e-05
0.00015337
1.66189e-05
0.000143217
2.02936e-05
0.000131382
2.3662e-05
0.000118229
2.62984e-05
0.000103908
2.86311e-05
8.88336e-05
3.01358e-05
7.30996e-05
3.14612e-05
5.70753e-05
3.20417e-05
4.08969e-05
3.23437e-05
2.47706e-05
3.22454e-05
9.14762e-06
3.12399e-05
-6.12e-06
3.05206e-05
-2.06444e-05
2.90377e-05
-3.42814e-05
2.7263e-05
-4.69385e-05
2.53091e-05
-5.85606e-05
2.32433e-05
-6.91317e-05
2.11411e-05
-7.87811e-05
1.93018e-05
-8.74992e-05
1.74432e-05
-9.54358e-05
1.58759e-05
-0.000102728
1.45857e-05
-0.000109339
1.32235e-05
-0.000115344
1.20086e-05
-0.000120764
1.08423e-05
-0.000125605
9.68892e-06
-0.000129968
8.72797e-06
-0.000133764
7.59383e-06
-0.000137021
6.51438e-06
-0.000139812
5.58138e-06
-0.000142102
4.5726e-06
-0.000143871
3.54147e-06
-0.000145215
2.68885e-06
-0.000146104
1.77898e-06
-0.000146596
9.8393e-07
-0.000146706
2.18546e-07
-0.000146417
-5.79732e-07
-0.000145752
-1.32678e-06
-0.00014478
-1.94868e-06
-0.000143324
-2.90917e-06
-0.000141493
-3.66357e-06
-0.000139248
-4.49273e-06
-0.000136396
-5.70741e-06
-0.000133043
-6.7114e-06
-0.000128852
-8.38143e-06
-0.000123947
-9.82037e-06
-0.000118298
-1.12834e-05
-0.000111538
-1.35294e-05
-0.000103896
-1.52863e-05
-9.52785e-05
-1.72314e-05
-8.55009e-05
-1.95569e-05
-7.4835e-05
-2.13311e-05
-6.29516e-05
-2.37596e-05
-5.00428e-05
-2.58153e-05
-3.63625e-05
-2.73584e-05
-2.16623e-05
-2.93811e-05
-6.09299e-06
-3.11437e-05
9.93817e-06
-3.20593e-05
2.65673e-05
-3.32506e-05
4.35602e-05
-3.39768e-05
6.08165e-05
-3.44998e-05
7.812e-05
-3.45976e-05
9.51683e-05
-3.40824e-05
0.000111762
-3.31702e-05
0.000127778
-3.20182e-05
0.000142824
-3.00816e-05
0.000156789
-2.79233e-05
0.000169484
-2.53862e-05
0.000180657
-2.2339e-05
0.000190227
-1.91283e-05
0.000197992
-1.55186e-05
0.000203884
-1.17819e-05
0.000207846
-7.92896e-06
0.000209834
-3.97608e-06
0.000209849
-2.9304e-08
0.000207959
3.76848e-06
0.000204123
7.66878e-06
0.00019858
1.10813e-05
0.000191355
1.44446e-05
0.000182742
1.72214e-05
0.000172725
2.00257e-05
0.000161522
2.2398e-05
0.00014926
2.45142e-05
0.000136165
2.61827e-05
0.000122219
2.78833e-05
0.000107735
2.8959e-05
9.27345e-05
2.99958e-05
7.74691e-05
3.05238e-05
6.19651e-05
3.10014e-05
4.63017e-05
3.13202e-05
3.07296e-05
3.11389e-05
1.51866e-05
3.10816e-05
3.0632e-05
-0.000183692
-4.9462e-06
-0.00018128
-7.24072e-06
-0.000178169
-9.34043e-06
-0.000174317
-1.15635e-05
-0.000169579
-1.42263e-05
-0.000164088
-1.64758e-05
-0.000157586
-1.95141e-05
-0.00015027
-2.19475e-05
-0.000142107
-2.44995e-05
-0.000132973
-2.74083e-05
-0.000122831
-3.04247e-05
-0.000111802
-3.30895e-05
-9.96052e-05
-3.658e-05
-8.64378e-05
-3.95064e-05
-7.21272e-05
-4.29134e-05
-5.69163e-05
-4.56396e-05
-4.09151e-05
-4.7982e-05
-2.40503e-05
-5.06119e-05
-6.45942e-06
-5.27083e-05
1.16036e-05
-5.41388e-05
3.02373e-05
-5.58546e-05
4.9227e-05
-5.69254e-05
6.82226e-05
-5.69356e-05
8.7081e-05
-5.65259e-05
0.000105577
-5.54352e-05
0.000123413
-5.34509e-05
0.000140368
-5.08168e-05
0.00015612
-4.71868e-05
0.000170398
-4.27923e-05
0.000183032
-3.78579e-05
0.000193684
-3.19236e-05
0.000202274
-2.57408e-05
0.000208565
-1.8839e-05
0.000212466
-1.16881e-05
0.000213949
-4.43279e-06
0.000212792
3.40141e-06
0.000209205
1.07327e-05
0.00020327
1.78099e-05
0.000194908
2.50683e-05
0.00018455
3.10133e-05
0.000172242
3.68867e-05
0.0001583
4.17712e-05
0.000142965
4.59631e-05
0.000126301
4.9932e-05
0.000108875
5.2219e-05
9.06154e-05
5.47517e-05
7.20735e-05
5.55508e-05
5.32913e-05
5.63682e-05
3.45397e-05
5.61486e-05
1.60518e-05
5.54416e-05
-2.02134e-06
5.41818e-05
-1.9548e-05
5.25483e-05
-3.63727e-05
5.04455e-05
-5.24408e-05
4.8181e-05
-6.76288e-05
4.55494e-05
-8.19019e-05
4.2807e-05
-9.5257e-05
4.0054e-05
-0.000107612
3.70589e-05
-0.000118996
3.4153e-05
-0.000129432
3.1302e-05
-0.000138925
2.8486e-05
-0.000147556
2.58874e-05
-0.000155264
2.31238e-05
-0.000162123
2.05852e-05
-0.000168193
1.82035e-05
-0.000173375
1.55301e-05
-0.000177761
1.31723e-05
-0.000181385
1.08674e-05
-0.000184146
8.29935e-06
-0.000186253
6.31121e-06
-0.000187557
3.89683e-06
-0.000188004
1.37022e-06
-0.00018776
-7.14265e-07
-0.000186762
-3.00329e-06
-0.000184884
-5.62323e-06
-0.000182253
-7.89036e-06
-0.000178755
-1.04965e-05
-0.000174443
-1.29436e-05
-0.000169312
-1.5377e-05
-0.000163444
-1.76248e-05
-0.000156587
-2.05727e-05
-0.000149
-2.27543e-05
-0.000140452
-2.55918e-05
-0.00013118
-2.78661e-05
-0.000120981
-3.05925e-05
-0.000109904
-3.32472e-05
-9.79416e-05
-3.58848e-05
-8.50331e-05
-3.87579e-05
-7.13342e-05
-4.10521e-05
-5.67271e-05
-4.37985e-05
-4.13328e-05
-4.61779e-05
-2.52649e-05
-4.81842e-05
-8.61393e-06
-4.99311e-05
8.52611e-06
-5.13876e-05
2.60285e-05
-5.24806e-05
4.37509e-05
-5.31579e-05
6.1514e-05
-5.32864e-05
7.91933e-05
-5.30355e-05
9.66068e-05
-5.22019e-05
0.000113526
-5.07525e-05
0.00012977
-4.86946e-05
0.000145123
-4.60082e-05
0.000159329
-4.26036e-05
0.000172188
-3.85348e-05
0.000183472
-3.38226e-05
0.000192961
-2.84428e-05
0.000200477
-2.25302e-05
0.000205892
-1.61839e-05
0.000209013
-9.35796e-06
0.000209808
-2.36755e-06
0.0002082
4.78483e-06
0.000204147
1.21524e-05
0.000197721
1.92509e-05
0.00018903
2.60576e-05
0.000178187
3.24692e-05
0.000165417
3.82647e-05
0.000150933
4.33799e-05
0.000135011
4.77415e-05
0.000117828
5.1432e-05
9.97658e-05
5.41283e-05
8.10479e-05
5.6076e-05
6.19823e-05
5.71383e-05
4.27904e-05
5.75141e-05
2.37317e-05
5.71224e-05
5.03292e-06
5.60838e-05
-1.32151e-05
5.46231e-05
-3.0733e-05
5.25441e-05
-4.74333e-05
5.0062e-05
-6.32185e-05
4.73072e-05
-7.79987e-05
4.43366e-05
-9.17128e-05
4.11149e-05
-0.000104355
3.79236e-05
-0.000115899
3.46001e-05
-0.000126324
3.13452e-05
-0.000135767
2.82505e-05
-0.000144107
2.50118e-05
-0.000151477
2.20475e-05
-0.000157872
1.9275e-05
-0.000163358
1.64341e-05
-0.000168031
1.39549e-05
-0.000171885
1.16565e-05
-0.000175005
9.36768e-06
-0.00017742
7.28059e-06
-0.000179172
5.18461e-06
-0.000180233
3.36374e-06
-0.000180812
1.65839e-06
-0.000180756
-1.77632e-07
-0.000180135
-1.93688e-06
-0.000178948
-3.50409e-06
-0.000177173
-5.27487e-06
-0.000174933
-6.74419e-06
-0.0001721
-8.51069e-06
-0.000168648
-1.03127e-05
-0.000164628
-1.21465e-05
-0.000159976
-1.38865e-05
-0.000154616
-1.60722e-05
-0.000148562
-1.81774e-05
-0.000141694
-2.05036e-05
-0.000134137
-2.27479e-05
-0.000125716
-2.53351e-05
-0.000116496
-2.76088e-05
-0.000106397
-3.03137e-05
-9.54359e-05
-3.28511e-05
-8.35845e-05
-3.55559e-05
-7.08826e-05
-3.81081e-05
-5.72842e-05
-4.07847e-05
-4.29135e-05
-4.3077e-05
-2.77574e-05
-4.5456e-05
-1.19507e-05
-4.73811e-05
4.41626e-06
-4.90348e-05
2.12582e-05
-5.04866e-05
3.83311e-05
-5.11823e-05
5.55536e-05
-5.16248e-05
7.27205e-05
-5.14109e-05
8.95574e-05
-5.04887e-05
0.000105909
-4.89755e-05
0.00012149
-4.6687e-05
0.000136066
-4.3675e-05
0.000149397
-3.99274e-05
0.000161227
-3.54798e-05
0.000171295
-3.01183e-05
0.000179419
-2.43306e-05
0.000185419
-1.7963e-05
0.000189176
-1.12032e-05
0.000190531
-4.09829e-06
0.000189508
3.01539e-06
0.000186087
1.02349e-05
0.000180356
1.71729e-05
0.000172455
2.37194e-05
0.000162459
2.98838e-05
0.000150627
3.5415e-05
0.00013717
4.03322e-05
0.00012233
4.44787e-05
0.000106288
4.80485e-05
8.93892e-05
5.06222e-05
7.18601e-05
5.25222e-05
5.39755e-05
5.35987e-05
3.5954e-05
5.39567e-05
1.80447e-05
5.37175e-05
4.83477e-07
5.26306e-05
-1.65725e-05
5.11185e-05
-3.29929e-05
4.92281e-05
-4.86591e-05
4.69701e-05
-6.34818e-05
4.44536e-05
-7.74479e-05
4.18741e-05
-9.04953e-05
3.91553e-05
-0.000102611
3.63298e-05
-0.00011376
3.34313e-05
-0.000123871
3.03053e-05
-0.000132962
2.72921e-05
-0.000141059
2.42799e-05
-0.000148132
2.12275e-05
-0.000154258
1.84152e-05
-0.000159546
1.58599e-05
-0.000163985
1.3339e-05
-0.000167721
1.12447e-05
-0.000170838
9.38098e-06
-0.000173454
7.82458e-06
-0.000175594
6.4406e-06
-0.000177305
5.13251e-06
-0.000178594
3.86889e-06
-0.000179422
2.46819e-06
-0.000179744
9.71149e-07
-0.000179535
-6.22656e-07
-0.000178755
-2.34761e-06
-0.000177398
-4.0082e-06
-0.000175522
-5.64551e-06
-0.000173075
-7.32434e-06
-0.000170036
-9.09836e-06
-0.000166498
-1.06574e-05
-0.00016232
-1.25329e-05
-0.000157489
-1.43823e-05
-0.000152115
-1.62326e-05
-0.000145991
-1.83916e-05
-0.000139107
-2.06393e-05
-0.000131396
-2.31471e-05
-0.000122741
-2.58475e-05
-0.000113294
-2.84394e-05
-0.00010291
-3.12607e-05
-9.16212e-05
-3.37579e-05
-7.94533e-05
-3.64998e-05
-6.65854e-05
-3.85763e-05
-5.29768e-05
-4.07947e-05
-3.87104e-05
-4.27407e-05
-2.39497e-05
-4.42881e-05
-8.64238e-06
-4.58808e-05
6.92215e-06
-4.67047e-05
2.28454e-05
-4.77544e-05
3.89509e-05
-4.82616e-05
5.50955e-05
-4.83986e-05
7.11045e-05
-4.79916e-05
8.67489e-05
-4.6853e-05
0.000101773
-4.50264e-05
0.000115959
-4.25491e-05
0.000129047
-3.91974e-05
0.000140846
-3.53499e-05
0.000151139
-3.07911e-05
0.000159684
-2.56003e-05
0.000166375
-2.00178e-05
0.000171048
-1.39794e-05
0.000173599
-7.56422e-06
0.00017398
-1.13626e-06
0.000172124
5.54116e-06
0.000168019
1.23615e-05
0.000161784
1.86999e-05
0.000153465
2.49378e-05
0.000143297
3.04609e-05
0.000131453
3.55063e-05
0.00011828
3.94711e-05
0.000103939
4.2972e-05
8.88481e-05
4.52271e-05
7.31046e-05
4.72047e-05
5.70703e-05
4.8076e-05
4.08725e-05
4.85414e-05
2.47359e-05
4.83819e-05
9.10404e-06
4.68718e-05
-6.1941e-06
4.58187e-05
-2.07315e-05
4.35751e-05
-3.43799e-05
4.09114e-05
-4.70459e-05
3.7975e-05
-5.86683e-05
3.48658e-05
-6.92335e-05
3.17062e-05
-7.88746e-05
2.89429e-05
-8.75857e-05
2.61542e-05
-9.55158e-05
2.3806e-05
-0.000102795
2.18647e-05
-0.000109394
1.98231e-05
-0.000115391
1.80056e-05
-0.000120813
1.6264e-05
-0.000125646
1.45215e-05
-0.000130007
1.30897e-05
-0.000133802
1.13885e-05
-0.000137057
9.76919e-06
-0.000139849
8.3738e-06
-0.000142142
6.86526e-06
-0.000143905
5.30461e-06
-0.000145251
4.03434e-06
-0.000146136
2.66443e-06
-0.000146629
1.47657e-06
-0.000146736
3.25753e-07
-0.000146449
-8.66413e-07
-0.000145781
-1.99539e-06
-0.000144812
-2.91758e-06
-0.000143354
-4.36729e-06
-0.000141527
-5.49017e-06
-0.000139289
-6.73117e-06
-0.000136444
-8.55186e-06
-0.000133102
-1.00538e-05
-0.000128913
-1.25705e-05
-0.000124028
-1.47045e-05
-0.000118362
-1.69503e-05
-0.000111616
-2.02753e-05
-0.000103979
-2.29229e-05
-9.53593e-05
-2.58512e-05
-8.55848e-05
-2.93314e-05
-7.49203e-05
-3.19956e-05
-6.30286e-05
-3.56514e-05
-5.01164e-05
-3.87275e-05
-3.64334e-05
-4.10415e-05
-2.17153e-05
-4.40993e-05
-6.1416e-06
-4.67174e-05
9.89994e-06
-4.81009e-05
2.65453e-05
-4.98961e-05
4.35557e-05
-5.09872e-05
6.0835e-05
-5.17791e-05
7.81559e-05
-5.19186e-05
9.52252e-05
-5.11517e-05
0.000111837
-4.97824e-05
0.00012787
-4.80509e-05
0.000142935
-4.51462e-05
0.000156916
-4.1905e-05
0.000169637
-3.81064e-05
0.000180819
-3.35212e-05
0.0001904
-2.87094e-05
0.000198174
-2.3293e-05
0.000204073
-1.76811e-05
0.000208047
-1.19022e-05
0.000210027
-5.95603e-06
0.000210021
-2.33146e-08
0.000208103
5.68627e-06
0.000204258
1.15138e-05
0.000198705
1.6634e-05
0.000191475
2.1675e-05
0.000182849
2.5847e-05
0.00017282
3.00551e-05
0.000161605
3.36128e-05
0.000149331
3.67879e-05
0.000136222
3.92914e-05
0.000122265
4.18404e-05
0.000107769
4.34556e-05
9.27605e-05
4.50041e-05
7.74848e-05
4.57995e-05
6.1971e-05
4.65151e-05
4.62977e-05
4.69935e-05
3.07169e-05
4.67196e-05
1.51669e-05
4.66316e-05
4.59633e-05
-0.000183776
-6.59145e-06
-0.000181366
-9.65027e-06
-0.000178256
-1.24504e-05
-0.000174409
-1.5411e-05
-0.000169676
-1.89598e-05
-0.000164186
-2.19658e-05
-0.000157691
-2.6009e-05
-0.000150376
-2.92623e-05
-0.000142218
-3.26572e-05
-0.000133086
-3.65408e-05
-0.000122944
-4.05668e-05
-0.000111917
-4.41159e-05
-9.97117e-05
-4.87858e-05
-8.65582e-05
-5.266e-05
-7.223e-05
-5.72416e-05
-5.70253e-05
-6.08443e-05
-4.10104e-05
-6.39969e-05
-2.4165e-05
-6.74573e-05
-6.52817e-06
-7.03452e-05
1.15687e-05
-7.22357e-05
3.02294e-05
-7.45154e-05
4.92483e-05
-7.59443e-05
6.82687e-05
-7.5956e-05
8.71553e-05
-7.54126e-05
0.000105683
-7.39627e-05
0.00012355
-7.13186e-05
0.000140538
-6.78041e-05
0.000156324
-6.29734e-05
0.000170632
-5.70999e-05
0.00018329
-5.0516e-05
0.000193959
-4.25931e-05
0.000202566
-3.43471e-05
0.000208874
-2.51474e-05
0.000212784
-1.5598e-05
0.000214267
-5.91575e-06
0.000213074
4.59461e-06
0.000209472
1.43338e-05
0.000203538
2.3744e-05
0.00019517
3.34368e-05
0.000184771
4.14116e-05
0.000172442
4.92165e-05
0.000158468
5.57448e-05
0.000143109
6.13226e-05
0.000126411
6.66298e-05
0.000108941
6.96888e-05
9.06767e-05
7.30159e-05
7.20855e-05
7.41421e-05
5.32863e-05
7.51673e-05
3.45035e-05
7.49314e-05
1.60037e-05
7.39414e-05
-2.09217e-06
7.22776e-05
-1.96374e-05
7.00935e-05
-3.6477e-05
6.72851e-05
-5.25567e-05
6.42607e-05
-6.77521e-05
6.07447e-05
-8.20308e-05
5.70857e-05
-9.539e-05
5.34132e-05
-0.000107749
4.94183e-05
-0.000119136
4.55392e-05
-0.000129572
4.17386e-05
-0.000139066
3.79794e-05
-0.000147698
3.45198e-05
-0.000155398
3.08242e-05
-0.000162252
2.74392e-05
-0.000168324
2.42749e-05
-0.000173507
2.07133e-05
-0.000177887
1.75527e-05
-0.000181515
1.44953e-05
-0.000184269
1.10533e-05
-0.000186378
8.42017e-06
-0.000187686
5.20489e-06
-0.000188112
1.79633e-06
-0.000187862
-9.64836e-07
-0.000186868
-3.99707e-06
-0.00018499
-7.50152e-06
-0.000182358
-1.05217e-05
-0.000178856
-1.39987e-05
-0.000174559
-1.72405e-05
-0.00016945
-2.04863e-05
-0.000163552
-2.35225e-05
-0.000156707
-2.7418e-05
-0.000149122
-3.03395e-05
-0.000140571
-3.41428e-05
-0.0001313
-3.71368e-05
-0.000121096
-4.07966e-05
-0.000110043
-4.43008e-05
-9.80835e-05
-4.78439e-05
-8.51983e-05
-5.16431e-05
-7.14841e-05
-5.47663e-05
-5.68659e-05
-5.84167e-05
-4.14788e-05
-6.15652e-05
-2.54075e-05
-6.42555e-05
-8.74769e-06
-6.65909e-05
8.40236e-06
-6.85377e-05
2.5907e-05
-6.99853e-05
4.36309e-05
-7.08819e-05
6.1404e-05
-7.10595e-05
7.90867e-05
-7.07183e-05
9.65168e-05
-6.96319e-05
0.000113452
-6.76881e-05
0.000129715
-6.4957e-05
0.00014508