/*--------------------------------*- C++ -*----------------------------------*\
| =========                 |                                                 |
| \\      /  F ield         | OpenFOAM: The Open Source CFD Toolbox           |
|  \\    /   O peration     | Version:  3.0.1                                 |
|   \\  /    A nd           | Web:      www.OpenFOAM.org                      |
|    \\/     M anipulation  |                                                 |
\*---------------------------------------------------------------------------*/
FoamFile
{
    version     2.0;
    format      ascii;
    class       volVectorField;
    location    "41";
    object      U;
}
// * * * * * * * * * * * * * * * * * * * * * * * * * * * * * * * * * * * * * //

dimensions      [0 1 -1 0 0 0 0];

internalField   nonuniform List<vector> 
21420
(
(0.0724704 -0.00185977 0)
(0.0890543 -0.00186563 0)
(0.107539 -0.00181273 0)
(0.125508 -0.0017354 0)
(0.142702 -0.0016654 0)
(0.158864 -0.00153885 0)
(0.173736 -0.00141334 0)
(0.187075 -0.00124065 0)
(0.198648 -0.00105005 0)
(0.208253 -0.000852168 0)
(0.215722 -0.000629999 0)
(0.220926 -0.00039789 0)
(0.223783 -0.000157778 0)
(0.22419 7.43842e-05 0)
(0.222266 0.000310155 0)
(0.217856 0.000547119 0)
(0.211208 0.000772153 0)
(0.202405 0.000969742 0)
(0.191618 0.00116202 0)
(0.179042 0.00133805 0)
(0.164903 0.00146472 0)
(0.149452 0.00159279 0)
(0.132929 0.00169916 0)
(0.115588 0.00174742 0)
(0.0976757 0.00180331 0)
(0.0794246 0.00180455 0)
(0.0610433 0.00181628 0)
(0.0427013 0.00180807 0)
(0.0245287 0.00175461 0)
(0.00697345 0.00170931 0)
(-0.00978179 0.00165538 0)
(-0.0259389 0.00157109 0)
(-0.0413807 0.00149677 0)
(-0.0559947 0.00140208 0)
(-0.0697268 0.00131752 0)
(-0.082545 0.00122866 0)
(-0.0944316 0.00113088 0)
(-0.105389 0.00104155 0)
(-0.115426 0.000952072 0)
(-0.124557 0.00086058 0)
(-0.132807 0.000775363 0)
(-0.140201 0.000690069 0)
(-0.146768 0.00060981 0)
(-0.152533 0.000531375 0)
(-0.157522 0.000454252 0)
(-0.161756 0.00037964 0)
(-0.165248 0.000306146 0)
(-0.168027 0.000234034 0)
(-0.170101 0.000163663 0)
(-0.171433 9.6152e-05 0)
(-0.172083 2.6654e-05 0)
(-0.172038 -4.31803e-05 0)
(-0.171275 -0.000118907 0)
(-0.169811 -0.000186561 0)
(-0.167596 -0.000258179 0)
(-0.164638 -0.000338111 0)
(-0.160967 -0.000405121 0)
(-0.156507 -0.00048207 0)
(-0.151194 -0.000567893 0)
(-0.145091 -0.000645287 0)
(-0.138154 -0.000739605 0)
(-0.13032 -0.000818276 0)
(-0.12163 -0.000898462 0)
(-0.112042 -0.000995705 0)
(-0.101546 -0.00107856 0)
(-0.0902266 -0.00115736 0)
(-0.0780437 -0.00124457 0)
(-0.0650478 -0.0013194 0)
(-0.0513679 -0.00140318 0)
(-0.0368753 -0.00147561 0)
(-0.0216851 -0.00153026 0)
(-0.00590889 -0.00159286 0)
(0.0104485 -0.00163514 0)
(0.0271259 -0.00165723 0)
(0.0439933 -0.00168752 0)
(0.0609824 -0.00168538 0)
(0.0779244 -0.00168436 0)
(0.0947709 -0.00166321 0)
(0.111311 -0.0016193 0)
(0.127307 -0.00156765 0)
(0.142666 -0.00149574 0)
(0.157179 -0.00139874 0)
(0.170645 -0.00128934 0)
(0.183013 -0.00116414 0)
(0.193996 -0.00101577 0)
(0.203377 -0.000857553 0)
(0.211122 -0.000682165 0)
(0.217048 -0.000497293 0)
(0.221033 -0.000298016 0)
(0.223002 -9.74142e-05 0)
(0.22294 0.000107186 0)
(0.220685 0.000324999 0)
(0.216317 0.000535311 0)
(0.209912 0.000737836 0)
(0.201505 0.000922434 0)
(0.191291 0.00110034 0)
(0.179369 0.00125952 0)
(0.165924 0.00140192 0)
(0.151176 0.00152265 0)
(0.135324 0.00162309 0)
(0.118586 0.0016951 0)
(0.101191 0.00175009 0)
(0.0833645 0.00178894 0)
(0.0653264 0.001795 0)
(0.0472706 0.00178778 0)
(0.0293784 0.00175657 0)
(0.0118825 0.00171063 0)
(-0.0050664 0.00165923 0)
(-0.0213684 0.00158183 0)
(-0.0368916 0.00149719 0)
(-0.0515141 0.00140624 0)
(-0.0651607 0.00130544 0)
(-0.0777978 0.00120494 0)
(-0.089409 0.00110335 0)
(-0.0999733 0.000995961 0)
(-0.109545 0.000896453 0)
(-0.11814 0.000801234 0)
(-0.125721 0.000711612 0)
(-0.132393 0.000618602 0)
(-0.13821 0.000532765 0)
(-0.143163 0.000450873 0)
(-0.147331 0.000374966 0)
(-0.150733 0.000304923 0)
(-0.153393 0.000227635 0)
(-0.155365 0.000159402 0)
(-0.156662 9.7131e-05 0)
(-0.15734 3.85858e-05 0)
(-0.15746 -1.66244e-05 0)
(-0.156988 -6.8462e-05 0)
(-0.155986 -0.00012952 0)
(-0.154452 -0.000176276 0)
(-0.152421 -0.000234977 0)
(-0.149835 -0.000270294 0)
(-0.146756 -0.000326258 0)
(-0.143205 -0.000380166 0)
(-0.139137 -0.000423454 0)
(-0.134591 -0.000478089 0)
(-0.129522 -0.000526105 0)
(-0.123934 -0.000582012 0)
(-0.117776 -0.000640612 0)
(-0.111026 -0.000693801 0)
(-0.10371 -0.000755925 0)
(-0.0957565 -0.000824441 0)
(-0.0870765 -0.000893379 0)
(-0.0777105 -0.00097214 0)
(-0.0675721 -0.00103558 0)
(-0.0566606 -0.00112308 0)
(-0.0449627 -0.0011954 0)
(-0.0324841 -0.00126905 0)
(-0.0193078 -0.00134619 0)
(-0.00538805 -0.00140806 0)
(0.00919245 -0.00147663 0)
(0.0243432 -0.00152832 0)
(0.0400144 -0.00157266 0)
(0.0560683 -0.00161491 0)
(0.0724204 -0.001627 0)
(0.0888812 -0.0016342 0)
(0.105289 -0.00161372 0)
(0.1214 -0.00157771 0)
(0.137026 -0.00152212 0)
(0.151963 -0.00143582 0)
(0.165946 -0.00133127 0)
(0.17872 -0.00119738 0)
(0.190086 -0.00105261 0)
(0.199798 -0.000872785 0)
(0.207629 -0.000676649 0)
(0.213421 -0.000465782 0)
(0.216974 -0.000236231 0)
(0.218151 -3.94523e-06 0)
(0.216984 0.000232751 0)
(0.213313 0.000481872 0)
(0.207344 0.000703001 0)
(0.199155 0.000923052 0)
(0.188856 0.00111816 0)
(0.176639 0.00129389 0)
(0.162788 0.00145572 0)
(0.147482 0.0015843 0)
(0.130967 0.00168037 0)
(0.113593 0.00176468 0)
(0.0956194 0.00180506 0)
(0.0772916 0.00182416 0)
(0.0588948 0.00182897 0)
(0.0406304 0.00179858 0)
(0.0226931 0.00175477 0)
(0.00525554 0.00170133 0)
(-0.0115538 0.00163637 0)
(-0.0276601 0.00155978 0)
(-0.0429736 0.00147958 0)
(-0.0573433 0.00137637 0)
(-0.070711 0.00127698 0)
(-0.0830549 0.00117423 0)
(-0.0943565 0.00106897 0)
(-0.104621 0.000974824 0)
(-0.113915 0.000876283 0)
(-0.122321 0.000785889 0)
(-0.129852 0.000708339 0)
(-0.136561 0.000626056 0)
(-0.142461 0.00054912 0)
(-0.147564 0.00046217 0)
(-0.15188 0.000382862 0)
(-0.155404 0.000308879 0)
(-0.158149 0.000244124 0)
(-0.160215 0.000172495 0)
(-0.161673 0.000111736 0)
(-0.162497 5.97812e-05 0)
(-0.162794 3.98214e-06 0)
(-0.162615 -4.38618e-05 0)
(-0.161896 -8.92808e-05 0)
(-0.160718 -0.000146175 0)
(-0.158979 -0.00019983 0)
(-0.15665 -0.000257243 0)
(-0.153725 -0.000325459 0)
(-0.150113 -0.000390336 0)
(-0.145824 -0.000457661 0)
(-0.14085 -0.000531185 0)
(-0.135134 -0.000605156 0)
(-0.128673 -0.000673453 0)
(-0.121478 -0.000743399 0)
(-0.113547 -0.000826188 0)
(-0.104795 -0.000912195 0)
(-0.0951199 -0.00100152 0)
(-0.084539 -0.0010971 0)
(-0.0730607 -0.00118843 0)
(-0.0605875 -0.00128088 0)
(-0.0471986 -0.00136694 0)
(-0.0329453 -0.00145771 0)
(-0.0178334 -0.00153755 0)
(-0.00194845 -0.00160943 0)
(0.014632 -0.00167475 0)
(0.0317713 -0.00172247 0)
(0.0493164 -0.00175134 0)
(0.0670748 -0.00176932 0)
(0.0848438 -0.00175469 0)
(0.102386 -0.00171949 0)
(0.119451 -0.00166165 0)
(0.135779 -0.00157004 0)
(0.151093 -0.00146009 0)
(0.165119 -0.0013195 0)
(0.177574 -0.00114645 0)
(0.188179 -0.000953536 0)
(0.196713 -0.000739084 0)
(0.20298 -0.000500898 0)
(0.206785 -0.00025107 0)
(0.208042 -4.48282e-06 0)
(0.206821 0.00025444 0)
(0.20291 0.000508399 0)
(0.196559 0.000746086 0)
(0.187871 0.000969401 0)
(0.177037 0.00117679 0)
(0.164302 0.00135229 0)
(0.149927 0.00150251 0)
(0.134141 0.00162208 0)
(0.117264 0.00171484 0)
(0.0996165 0.0017902 0)
(0.0813836 0.00182612 0)
(0.0628875 0.00184263 0)
(0.0443873 0.00183016 0)
(0.026056 0.00180429 0)
(0.00812691 0.00175676 0)
(-0.0092709 0.00169277 0)
(-0.025981 0.00162581 0)
(-0.04191 0.00154295 0)
(-0.057025 0.00145473 0)
(-0.0712592 0.00136842 0)
(-0.084542 0.00127974 0)
(-0.0968675 0.00117854 0)
(-0.108222 0.00108469 0)
(-0.118642 0.000985906 0)
(-0.128086 0.000893058 0)
(-0.136498 0.000791837 0)
(-0.143986 0.000695612 0)
(-0.15055 0.000606803 0)
(-0.156174 0.000515059 0)
(-0.160846 0.000425114 0)
(-0.164622 0.000342586 0)
(-0.167573 0.000256566 0)
(-0.169657 0.000167706 0)
(-0.170885 8.6277e-05 0)
(-0.171297 2.6633e-06 0)
(-0.170731 -8.97302e-05 0)
(-0.169392 -0.000160911 0)
(-0.167214 -0.000252598 0)
(-0.164236 -0.000318479 0)
(-0.160621 -0.000389215 0)
(-0.156212 -0.000463741 0)
(-0.151168 -0.000518175 0)
(-0.145637 -0.000573793 0)
(-0.139477 -0.0006419 0)
(-0.13275 -0.00069265 0)
(-0.125441 -0.00076552 0)
(-0.117443 -0.000828416 0)
(-0.108772 -0.000888476 0)
(-0.0993478 -0.000975847 0)
(-0.089044 -0.00105556 0)
(-0.0778904 -0.00113015 0)
(-0.0658806 -0.00123109 0)
(-0.0529541 -0.00132891 0)
(-0.0390926 -0.00140472 0)
(-0.0241794 -0.00151187 0)
(-0.00863354 -0.00159258 0)
(0.00753475 -0.00167713 0)
(0.0246179 -0.00173212 0)
(0.0422356 -0.0017626 0)
(0.0601768 -0.00180183 0)
(0.0782941 -0.00179867 0)
(0.0963011 -0.00176369 0)
(0.113924 -0.00172749 0)
(0.130915 -0.00164267 0)
(0.146987 -0.00154757 0)
(0.161876 -0.00141075 0)
(0.175296 -0.0012482 0)
(0.187013 -0.00107154 0)
(0.196825 -0.000869821 0)
(0.204538 -0.000649049 0)
(0.210025 -0.000422527 0)
(0.213216 -0.000185003 0)
(0.213986 4.73349e-05 0)
(0.212345 0.000283219 0)
(0.208195 0.000522156 0)
(0.201856 0.000729509 0)
(0.193419 0.000933132 0)
(0.18306 0.0011223 0)
(0.171005 0.00126433 0)
(0.157499 0.00140529 0)
(0.142791 0.0014948 0)
(0.127145 0.00158488 0)
(0.1108 0.00165315 0)
(0.093991 0.00167044 0)
(0.0769364 0.0016938 0)
(0.0598263 0.00169934 0)
(0.0428225 0.00166408 0)
(0.0260244 0.00163878 0)
(0.00967992 0.00159747 0)
(-0.0059706 0.00153495 0)
(-0.021034 0.00147925 0)
(-0.0355453 0.00140148 0)
(-0.0493622 0.00133505 0)
(-0.0624376 0.00126346 0)
(-0.0747355 0.0011779 0)
(-0.0862342 0.0011014 0)
(-0.0969177 0.00102219 0)
(-0.106772 0.000934993 0)
(-0.115792 0.000853995 0)
(-0.123971 0.000767457 0)
(-0.131307 0.000685513 0)
(-0.137799 0.000602587 0)
(-0.143445 0.000517337 0)
(-0.148246 0.000434252 0)
(-0.152203 0.000350835 0)
(-0.155316 0.000267206 0)
(-0.157595 0.000183843 0)
(-0.159027 0.000100745 0)
(-0.159661 1.95767e-05 0)
(-0.159489 -6.2201e-05 0)
(-0.158465 -0.000143267 0)
(-0.156624 -0.00022352 0)
(-0.15346 -0.000303333 0)
(0.0724731 -0.00558015 0)
(0.0890649 -0.00559784 0)
(0.107559 -0.00543916 0)
(0.125537 -0.00520719 0)
(0.142742 -0.00499726 0)
(0.158914 -0.00461756 0)
(0.173797 -0.00424097 0)
(0.187144 -0.00372282 0)
(0.198724 -0.00315092 0)
(0.208337 -0.00255716 0)
(0.215811 -0.00189054 0)
(0.221018 -0.0011948 0)
(0.223875 -0.000477168 0)
(0.224294 0.000226697 0)
(0.222355 0.000932435 0)
(0.217947 0.00164172 0)
(0.211294 0.002317 0)
(0.202484 0.00290988 0)
(0.191689 0.00348683 0)
(0.179105 0.00401504 0)
(0.164956 0.00439508 0)
(0.149496 0.00477934 0)
(0.132963 0.00509846 0)
(0.115612 0.00524319 0)
(0.0976908 0.00541086 0)
(0.0794312 0.00541449 0)
(0.0610419 0.00544959 0)
(0.0426925 0.00542494 0)
(0.0245131 0.00526457 0)
(0.00695295 0.00512831 0)
(-0.00980604 0.00496646 0)
(-0.0259665 0.00471359 0)
(-0.0414114 0.00449056 0)
(-0.0560268 0.00420644 0)
(-0.0697604 0.00395271 0)
(-0.0825795 0.00368603 0)
(-0.0944659 0.00339266 0)
(-0.105424 0.0031247 0)
(-0.11546 0.00285621 0)
(-0.12459 0.00258168 0)
(-0.132839 0.00232608 0)
(-0.140233 0.00207024 0)
(-0.146799 0.00182951 0)
(-0.152563 0.00159424 0)
(-0.157551 0.00136303 0)
(-0.161785 0.0011393 0)
(-0.165277 0.000919052 0)
(-0.168055 0.000702229 0)
(-0.170129 0.000492313 0)
(-0.171466 0.000287007 0)
(-0.172113 8.13647e-05 0)
(-0.17207 -0.000129742 0)
(-0.171308 -0.00035605 0)
(-0.169845 -0.000559347 0)
(-0.167632 -0.000774094 0)
(-0.164676 -0.00101351 0)
(-0.161007 -0.00121576 0)
(-0.15655 -0.00144584 0)
(-0.15124 -0.00170333 0)
(-0.14514 -0.00193586 0)
(-0.138205 -0.00221858 0)
(-0.130372 -0.00245443 0)
(-0.121684 -0.00269554 0)
(-0.112098 -0.00298761 0)
(-0.101602 -0.00323616 0)
(-0.0902799 -0.00346811 0)
(-0.078099 -0.00373822 0)
(-0.0650999 -0.00396014 0)
(-0.0514148 -0.00420553 0)
(-0.0369245 -0.00443016 0)
(-0.0217255 -0.00459449 0)
(-0.00593899 -0.00477305 0)
(0.0104178 -0.00491054 0)
(0.0271057 -0.00497208 0)
(0.0439819 -0.00506214 0)
(0.0609788 -0.00505625 0)
(0.0779285 -0.00505199 0)
(0.0947851 -0.00499226 0)
(0.111334 -0.00486016 0)
(0.127336 -0.00470381 0)
(0.142712 -0.00448265 0)
(0.157226 -0.00420541 0)
(0.170706 -0.00387419 0)
(0.183087 -0.00348455 0)
(0.194065 -0.00306294 0)
(0.203471 -0.00257118 0)
(0.211214 -0.00204742 0)
(0.217148 -0.00149541 0)
(0.221134 -0.000898783 0)
(0.223112 -0.000285826 0)
(0.223043 0.000325295 0)
(0.220779 0.000977586 0)
(0.216398 0.00160369 0)
(0.209986 0.00220112 0)
(0.201581 0.0027804 0)
(0.19135 0.00330064 0)
(0.179422 0.00377427 0)
(0.165965 0.00420555 0)
(0.151206 0.00456527 0)
(0.135345 0.00487281 0)
(0.118594 0.00508233 0)
(0.101181 0.00525068 0)
(0.0833448 0.0053602 0)
(0.0653085 0.00538606 0)
(0.0472391 0.00536494 0)
(0.0293473 0.00526642 0)
(0.0118485 0.00514072 0)
(-0.00512341 0.00497198 0)
(-0.0214333 0.00473712 0)
(-0.0369565 0.00449183 0)
(-0.0515841 0.0042149 0)
(-0.0652304 0.00391767 0)
(-0.0778739 0.00361221 0)
(-0.0894821 0.00330154 0)
(-0.100044 0.00299692 0)
(-0.109621 0.00269425 0)
(-0.118212 0.00240176 0)
(-0.125796 0.00213108 0)
(-0.132468 0.0018493 0)
(-0.138276 0.0016043 0)
(-0.143238 0.00135627 0)
(-0.147414 0.00111923 0)
(-0.150818 0.000902922 0)
(-0.153471 0.000684422 0)
(-0.155438 0.000485288 0)
(-0.156742 0.000300876 0)
(-0.157419 0.000117617 0)
(-0.157541 -5.59249e-05 0)
(-0.157078 -0.000213678 0)
(-0.156069 -0.000383125 0)
(-0.154541 -0.000530817 0)
(-0.152504 -0.000704905 0)
(-0.149924 -0.00082382 0)
(-0.146849 -0.000988019 0)
(-0.143291 -0.00112594 0)
(-0.139243 -0.0012785 0)
(-0.134689 -0.00143414 0)
(-0.129623 -0.00157672 0)
(-0.124036 -0.00174936 0)
(-0.117878 -0.00191365 0)
(-0.111131 -0.00208691 0)
(-0.103819 -0.00227007 0)
(-0.095859 -0.00247282 0)
(-0.0871845 -0.00267683 0)
(-0.0778285 -0.00292187 0)
(-0.0676873 -0.00310784 0)
(-0.0567736 -0.00336529 0)
(-0.0450863 -0.00358887 0)
(-0.0326062 -0.00382063 0)
(-0.0194088 -0.00402853 0)
(-0.00549434 -0.00423059 0)
(0.00908846 -0.00443356 0)
(0.0242486 -0.00458471 0)
(0.039916 -0.00472953 0)
(0.0559952 -0.00483926 0)
(0.0723481 -0.0048825 0)
(0.0888167 -0.00490349 0)
(0.105223 -0.00485626 0)
(0.121357 -0.0047408 0)
(0.137007 -0.00456214 0)
(0.151962 -0.00430138 0)
(0.165941 -0.0040041 0)
(0.17874 -0.00360243 0)
(0.190127 -0.00314734 0)
(0.199835 -0.00263085 0)
(0.207691 -0.00203401 0)
(0.213483 -0.00139675 0)
(0.217044 -0.00071491 0)
(0.218234 -1.04087e-05 0)
(0.217057 0.000698594 0)
(0.213386 0.0014402 0)
(0.207419 0.0021115 0)
(0.199216 0.00276192 0)
(0.188916 0.00335186 0)
(0.176699 0.00389045 0)
(0.16283 0.00436244 0)
(0.14752 0.00474766 0)
(0.131 0.00505213 0)
(0.113602 0.00528466 0)
(0.095624 0.00541574 0)
(0.0772842 0.00548451 0)
(0.0588644 0.00547395 0)
(0.0406036 0.00539882 0)
(0.0226622 0.00527605 0)
(0.00521093 0.00510008 0)
(-0.0116038 0.00491338 0)
(-0.0277222 0.00467882 0)
(-0.0430404 0.00443008 0)
(-0.0574098 0.0041345 0)
(-0.070785 0.00383363 0)
(-0.0831331 0.0035167 0)
(-0.0944321 0.00319938 0)
(-0.104701 0.00292382 0)
(-0.113995 0.00262573 0)
(-0.122396 0.00236205 0)
(-0.12994 0.00212369 0)
(-0.136653 0.0018701 0)
(-0.142549 0.00163513 0)
(-0.147641 0.00140062 0)
(-0.15196 0.00116615 0)
(-0.155492 0.00092553 0)
(-0.15824 0.000731828 0)
(-0.160314 0.000510014 0)
(-0.161767 0.00032844 0)
(-0.162582 0.000190165 0)
(-0.162887 1.0473e-05 0)
(-0.162705 -0.000134014 0)
(-0.161998 -0.000280559 0)
(-0.160814 -0.000431424 0)
(-0.159082 -0.000594619 0)
(-0.156763 -0.000779373 0)
(-0.153828 -0.000964167 0)
(-0.150224 -0.00117217 0)
(-0.145935 -0.00137821 0)
(-0.140958 -0.00159203 0)
(-0.13525 -0.00181388 0)
(-0.128789 -0.00201761 0)
(-0.12161 -0.0022421 0)
(-0.113669 -0.00248364 0)
(-0.104913 -0.00273278 0)
(-0.095252 -0.00301602 0)
(-0.0846511 -0.00328134 0)
(-0.0731732 -0.00355868 0)
(-0.0607161 -0.00384876 0)
(-0.0473196 -0.00410821 0)
(-0.0330633 -0.00437459 0)
(-0.0179411 -0.00461125 0)
(-0.00204944 -0.00482569 0)
(0.014532 -0.00502267 0)
(0.0316822 -0.00516958 0)
(0.0492337 -0.00526822 0)
(0.0670111 -0.00530277 0)
(0.0847935 -0.00527567 0)
(0.102354 -0.00515756 0)
(0.119428 -0.00498392 0)
(0.135759 -0.00473354 0)
(0.15111 -0.00438251 0)
(0.165153 -0.00394943 0)
(0.177606 -0.00345228 0)
(0.188241 -0.00286357 0)
(0.196791 -0.00220844 0)
(0.203056 -0.00150619 0)
(0.20687 -0.00076334 0)
(0.208131 -1.03044e-05 0)
(0.206896 0.000754797 0)
(0.202996 0.0015216 0)
(0.196648 0.00224738 0)
(0.187942 0.00290502 0)
(0.177098 0.00352651 0)
(0.164352 0.00405519 0)
(0.149966 0.00450206 0)
(0.134181 0.00486785 0)
(0.117292 0.00515683 0)
(0.0996258 0.00536446 0)
(0.0813789 0.0054801 0)
(0.0628697 0.00552236 0)
(0.0443606 0.00549766 0)
(0.0260165 0.00541095 0)
(0.00808201 0.00526359 0)
(-0.00932326 0.00508893 0)
(-0.0260478 0.00487222 0)
(-0.0419826 0.00463076 0)
(-0.0571038 0.00436406 0)
(-0.0713375 0.00410068 0)
(-0.0846196 0.00384071 0)
(-0.0969494 0.00354273 0)
(-0.10831 0.00324898 0)
(-0.118726 0.00294978 0)
(-0.128158 0.00267721 0)
(-0.136572 0.00238841 0)
(-0.144065 0.00207501 0)
(-0.150616 0.00182471 0)
(-0.15624 0.00155033 0)
(-0.16091 0.00127314 0)
(-0.164684 0.00102819 0)
(-0.16764 0.000766325 0)
(-0.169722 0.000499239 0)
(-0.170944 0.000265528 0)
(-0.171358 7.23014e-06 0)
(-0.170788 -0.000267388 0)
(-0.169451 -0.000487678 0)
(-0.16727 -0.000758571 0)
(-0.16429 -0.00095692 0)
(-0.160671 -0.00116379 0)
(-0.156261 -0.00139048 0)
(-0.151214 -0.00155394 0)
(-0.145684 -0.00172205 0)
(-0.139522 -0.00192539 0)
(-0.132796 -0.00207861 0)
(-0.125488 -0.00229624 0)
(-0.11749 -0.00248371 0)
(-0.108821 -0.00266485 0)
(-0.0993991 -0.00292755 0)
(-0.0890963 -0.00316654 0)
(-0.0779428 -0.00338846 0)
(-0.0659359 -0.00369545 0)
(-0.0530088 -0.00398639 0)
(-0.0391446 -0.00421067 0)
(-0.0242313 -0.00453563 0)
(-0.00868065 -0.00478224 0)
(0.00749597 -0.00503246 0)
(0.0245847 -0.00519712 0)
(0.0422103 -0.00528872 0)
(0.060161 -0.00540645 0)
(0.0782885 -0.00539689 0)
(0.0963065 -0.0052921 0)
(0.113942 -0.00518364 0)
(0.130944 -0.00492917 0)
(0.147031 -0.00464322 0)
(0.161928 -0.00423626 0)
(0.175361 -0.00374537 0)
(0.187088 -0.00321415 0)
(0.196908 -0.00260918 0)
(0.204627 -0.00194934 0)
(0.210119 -0.00126611 0)
(0.213314 -0.000554553 0)
(0.214087 0.000138958 0)
(0.212435 0.000848599 0)
(0.208284 0.00156694 0)
(0.201941 0.00218896 0)
(0.193498 0.00280002 0)
(0.183131 0.00336771 0)
(0.171065 0.00379399 0)
(0.15755 0.00421682 0)
(0.142831 0.00448531 0)
(0.127175 0.00475559 0)
(0.110821 0.00496035 0)
(0.0940033 0.00501213 0)
(0.076941 0.00508216 0)
(0.0598238 0.00509866 0)
(0.0428141 0.0049928 0)
(0.02601 0.0049169 0)
(0.00966186 0.0047928 0)
(-0.00599117 0.00460506 0)
(-0.0210584 0.00443802 0)
(-0.0355715 0.00420463 0)
(-0.0493904 0.00400531 0)
(-0.0624673 0.00379051 0)
(-0.0747659 0.0035338 0)
(-0.0862656 0.00330429 0)
(-0.0969498 0.00306662 0)
(-0.106805 0.00280503 0)
(-0.115824 0.00256203 0)
(-0.124003 0.00230241 0)
(-0.131339 0.00205657 0)
(-0.137832 0.0018078 0)
(-0.143478 0.00155205 0)
(-0.148279 0.0013028 0)
(-0.152236 0.00105254 0)
(-0.155348 0.0008016 0)
(-0.157627 0.000551639 0)
(-0.15906 0.000302397 0)
(-0.159693 5.86523e-05 0)
(-0.159521 -0.000186552 0)
(-0.158497 -0.00042978 0)
(-0.156655 -0.000670537 0)
(-0.153492 -0.000909981 0)
(0.072479 -0.00930305 0)
(0.0890873 -0.00933288 0)
(0.1076 -0.00906853 0)
(0.125598 -0.00868195 0)
(0.142825 -0.00833222 0)
(0.159015 -0.00769921 0)
(0.17392 -0.00707149 0)
(0.187283 -0.00620754 0)
(0.198877 -0.00525397 0)
(0.208507 -0.004264 0)
(0.21599 -0.00315256 0)
(0.221204 -0.00199311 0)
(0.224062 -0.000800404 0)
(0.224495 0.000380517 0)
(0.222533 0.00155904 0)
(0.218126 0.00273762 0)
(0.211465 0.00386363 0)
(0.202639 0.00485213 0)
(0.19183 0.00581411 0)
(0.179229 0.00669488 0)
(0.165059 0.00732834 0)
(0.14958 0.0079689 0)
(0.133028 0.00850077 0)
(0.115656 0.00874174 0)
(0.0977164 0.00902117 0)
(0.0794393 0.00902689 0)
(0.061034 0.00908515 0)
(0.0426696 0.00904386 0)
(0.0244767 0.00877643 0)
(0.00690648 0.00854844 0)
(-0.00986003 0.00827868 0)
(-0.0260272 0.00785695 0)
(-0.0414782 0.00748502 0)
(-0.0560964 0.00701124 0)
(-0.0698329 0.00658816 0)
(-0.0826534 0.00614344 0)
(-0.0945393 0.00565435 0)
(-0.105497 0.00520768 0)
(-0.115532 0.00476012 0)
(-0.124659 0.00430243 0)
(-0.132906 0.00387652 0)
(-0.140298 0.00345019 0)
(-0.146862 0.00304903 0)
(-0.152624 0.00265706 0)
(-0.157611 0.0022714 0)
(-0.161843 0.00189907 0)
(-0.165334 0.00153232 0)
(-0.16811 0.0011717 0)
(-0.170184 0.000820439 0)
(-0.171525 0.000478401 0)
(-0.17217 0.00013688 0)
(-0.172126 -0.000217309 0)
(-0.171366 -0.00059268 0)
(-0.169901 -0.000932046 0)
(-0.16769 -0.00128943 0)
(-0.164734 -0.00168739 0)
(-0.161066 -0.00202809 0)
(-0.156611 -0.00240924 0)
(-0.151304 -0.00283865 0)
(-0.145206 -0.00322681 0)
(-0.138272 -0.00369728 0)
(-0.13044 -0.00409099 0)
(-0.121752 -0.00449254 0)
(-0.112166 -0.00497869 0)
(-0.101669 -0.00539342 0)
(-0.0903453 -0.0057802 0)
(-0.0781616 -0.00623246 0)
(-0.0651596 -0.00659976 0)
(-0.0514761 -0.00701421 0)
(-0.0369784 -0.00738274 0)
(-0.0217697 -0.00765522 0)
(-0.00598288 -0.00796233 0)
(0.0103905 -0.00818162 0)
(0.0270824 -0.00829163 0)
(0.0439701 -0.00843888 0)
(0.0609779 -0.00843322 0)
(0.0779359 -0.00842324 0)
(0.0948087 -0.00832011 0)
(0.111372 -0.0081009 0)
(0.12738 -0.00784743 0)
(0.14277 -0.00747884 0)
(0.157306 -0.00700729 0)
(0.170798 -0.00645785 0)
(0.183184 -0.0058174 0)
(0.194183 -0.00509541 0)
(0.203595 -0.00429271 0)
(0.211344 -0.00341426 0)
(0.217286 -0.00249041 0)
(0.221279 -0.00149781 0)
(0.223257 -0.000478575 0)
(0.223178 0.000541863 0)
(0.220897 0.00162811 0)
(0.216523 0.00267428 0)
(0.2101 0.00368152 0)
(0.201672 0.00462683 0)
(0.191424 0.00550353 0)
(0.179477 0.00630269 0)
(0.166005 0.00700874 0)
(0.151229 0.00761391 0)
(0.135346 0.00812514 0)
(0.118563 0.00847869 0)
(0.101131 0.0087505 0)
(0.0832795 0.00894108 0)
(0.0652215 0.00897816 0)
(0.0471382 0.00893782 0)
(0.0292396 0.00878597 0)
(0.0117246 0.00856855 0)
(-0.00525977 0.00828771 0)
(-0.021576 0.00790314 0)
(-0.0371128 0.00748579 0)
(-0.0517452 0.00702447 0)
(-0.0653943 0.00653503 0)
(-0.07804 0.00602127 0)
(-0.0896523 0.00551044 0)
(-0.100223 0.0049905 0)
(-0.109796 0.00447803 0)
(-0.118375 0.00400465 0)
(-0.125957 0.00355853 0)
(-0.132626 0.00308488 0)
(-0.138434 0.00267366 0)
(-0.143396 0.00226068 0)
(-0.147563 0.00186634 0)
(-0.150964 0.0015107 0)
(-0.153617 0.00114085 0)
(-0.155585 0.000805948 0)
(-0.156893 0.000495876 0)
(-0.157566 0.000194677 0)
(-0.157676 -9.01887e-05 0)
(-0.157213 -0.000352709 0)
(-0.156209 -0.000643658 0)
(-0.154672 -0.000886942 0)
(-0.152626 -0.00116142 0)
(-0.150047 -0.00137419 0)
(-0.146979 -0.00164268 0)
(-0.143427 -0.00188487 0)
(-0.139377 -0.00212249 0)
(-0.13483 -0.00239309 0)
(-0.129757 -0.00262776 0)
(-0.124175 -0.00291279 0)
(-0.118023 -0.00319289 0)
(-0.111278 -0.00348024 0)
(-0.103968 -0.00378523 0)
(-0.0960063 -0.00411471 0)
(-0.0873417 -0.00446784 0)
(-0.0779808 -0.00486066 0)
(-0.0678433 -0.00518535 0)
(-0.0569421 -0.0056163 0)
(-0.0452465 -0.00597675 0)
(-0.0327587 -0.0063578 0)
(-0.0195648 -0.00672799 0)
(-0.00564207 -0.0070491 0)
(0.00894553 -0.00738757 0)
(0.0241114 -0.00764561 0)
(0.0397889 -0.00787823 0)
(0.0558824 -0.00806781 0)
(0.0722469 -0.00814619 0)
(0.0887253 -0.00817479 0)
(0.105154 -0.00808434 0)
(0.121301 -0.00790636 0)
(0.136975 -0.0076119 0)
(0.151944 -0.00718399 0)
(0.165954 -0.00667178 0)
(0.178779 -0.00599981 0)
(0.190174 -0.00526471 0)
(0.199917 -0.00438021 0)
(0.207785 -0.00338617 0)
(0.213578 -0.00233139 0)
(0.217152 -0.00119133 0)
(0.218349 -1.925e-05 0)
(0.217153 0.00116437 0)
(0.213488 0.00240199 0)
(0.207517 0.00352012 0)
(0.1993 0.00460961 0)
(0.188975 0.00559298 0)
(0.176744 0.00648054 0)
(0.16286 0.00728 0)
(0.147523 0.00792116 0)
(0.13098 0.00841715 0)
(0.113568 0.00881204 0)
(0.0955648 0.00903779 0)
(0.0772015 0.00913883 0)
(0.0587654 0.0091338 0)
(0.0404799 0.00899842 0)
(0.0225274 0.0087811 0)
(0.00507732 0.00850815 0)
(-0.0117503 0.00819431 0)
(-0.0278757 0.00779462 0)
(-0.0432021 0.00738867 0)
(-0.057582 0.00689186 0)
(-0.0709632 0.00638672 0)
(-0.0833095 0.00586479 0)
(-0.0946021 0.00534227 0)
(-0.10487 0.00486571 0)
(-0.114161 0.00438181 0)
(-0.122555 0.00393887 0)
(-0.130096 0.00353915 0)
(-0.136804 0.00312157 0)
(-0.142703 0.00273249 0)
(-0.147804 0.00232995 0)
(-0.152123 0.00193137 0)
(-0.155638 0.00154322 0)
(-0.158385 0.00122618 0)
(-0.160459 0.000850943 0)
(-0.161905 0.000549318 0)
(-0.162727 0.000309804 0)
(-0.163021 1.80075e-05 0)
(-0.162833 -0.000213579 0)
(-0.162132 -0.0004655 0)
(-0.160954 -0.000730058 0)
(-0.159218 -0.000991875 0)
(-0.156899 -0.00128584 0)
(-0.153983 -0.00161867 0)
(-0.150375 -0.0019514 0)
(-0.146088 -0.00229404 0)
(-0.141112 -0.00265311 0)
(-0.135408 -0.00301496 0)
(-0.128949 -0.00337277 0)
(-0.121765 -0.00373066 0)
(-0.113823 -0.00413478 0)
(-0.10508 -0.00456095 0)
(-0.0954169 -0.00501517 0)
(-0.0848192 -0.00547622 0)
(-0.0733472 -0.00594793 0)
(-0.0608787 -0.00639865 0)
(-0.0474824 -0.00684127 0)
(-0.033223 -0.00729754 0)
(-0.0180942 -0.00768511 0)
(-0.00220232 -0.00805315 0)
(0.01439 -0.00837391 0)
(0.0315521 -0.00861952 0)
(0.0491184 -0.00877625 0)
(0.0669171 -0.00884568 0)
(0.0847317 -0.00878857 0)
(0.10231 -0.00860597 0)
(0.119405 -0.00831665 0)
(0.135772 -0.00787591 0)
(0.151143 -0.00730926 0)
(0.165199 -0.00659917 0)
(0.17768 -0.00574907 0)
(0.18833 -0.00477339 0)
(0.196892 -0.00369388 0)
(0.203177 -0.00251094 0)
(0.206998 -0.00126355 0)
(0.208258 -2.39303e-05 0)
(0.207 0.00126166 0)
(0.203104 0.0025427 0)
(0.196745 0.00374139 0)
(0.188027 0.00484741 0)
(0.17717 0.00588351 0)
(0.164399 0.00676358 0)
(0.149994 0.00750673 0)
(0.134184 0.00811946 0)
(0.117274 0.00859079 0)
(0.0995814 0.00895102 0)
(0.0813143 0.00913515 0)
(0.0627863 0.00921294 0)
(0.0442507 0.00915993 0)
(0.0258991 0.00902311 0)
(0.00795068 0.00878316 0)
(-0.00946514 0.00847677 0)
(-0.026197 0.00812176 0)
(-0.0421393 0.00772451 0)
(-0.0572614 0.00727342 0)
(-0.0714831 0.00683406 0)
(-0.0847674 0.00640576 0)
(-0.0971003 0.00590083 0)
(-0.108448 0.0054178 0)
(-0.118854 0.00492118 0)
(-0.128283 0.00445925 0)
(-0.136697 0.00397563 0)
(-0.144172 0.00346518 0)
(-0.150715 0.0030351 0)
(-0.156337 0.00258176 0)
(-0.160994 0.00212638 0)
(-0.16477 0.00171474 0)
(-0.167724 0.00127944 0)
(-0.169805 0.00083306 0)
(-0.17103 0.00043636 0)
(-0.171436 1.31739e-05 0)
(-0.170862 -0.000447857 0)
(-0.169521 -0.000809159 0)
(-0.167339 -0.00126435 0)
(-0.164352 -0.00159466 0)
(-0.160733 -0.00194288 0)
(-0.156315 -0.00231716 0)
(-0.151264 -0.0025918 0)
(-0.145733 -0.00286963 0)
(-0.13957 -0.00320886 0)
(-0.132846 -0.00346351 0)
(-0.12554 -0.00382781 0)
(-0.117544 -0.00414066 0)
(-0.108879 -0.00444151 0)
(-0.0994628 -0.00487877 0)
(-0.0891624 -0.0052767 0)
(-0.0780111 -0.00564561 0)
(-0.0660115 -0.00615859 0)
(-0.0530829 -0.00665204 0)
(-0.0392156 -0.00702471 0)
(-0.0243056 -0.00755204 0)
(-0.00874395 -0.00796941 0)
(0.00744531 -0.00838802 0)
(0.0245441 -0.00866358 0)
(0.042183 -0.0088167 0)
(0.0601505 -0.00901383 0)
(0.0782966 -0.00899836 0)
(0.0963342 -0.00882393 0)
(0.113993 -0.00864336 0)
(0.131016 -0.00821953 0)
(0.147125 -0.00774326 0)
(0.162045 -0.00706258 0)
(0.175496 -0.00624528 0)
(0.187241 -0.00536113 0)
(0.197073 -0.0043518 0)
(0.204805 -0.00325084 0)
(0.210305 -0.00211518 0)
(0.21351 -0.000925133 0)
(0.214287 0.000234432 0)
(0.212603 0.00141794 0)
(0.208461 0.00261316 0)
(0.202106 0.0036504 0)
(0.193649 0.00466917 0)
(0.183266 0.00561582 0)
(0.171179 0.00632678 0)
(0.157644 0.00703142 0)
(0.142905 0.00747872 0)
(0.12723 0.00792918 0)
(0.110857 0.00827024 0)
(0.0940221 0.0083562 0)
(0.0769445 0.00847268 0)
(0.0598137 0.0084998 0)
(0.0427927 0.00832308 0)
(0.0259769 0.00819645 0)
(0.00962186 0.00798935 0)
(-0.0060358 0.00767584 0)
(-0.0211105 0.00739745 0)
(-0.0356267 0.00700831 0)
(-0.0494493 0.006676 0)
(-0.0625291 0.00631788 0)
(-0.0748288 0.00588994 0)
(-0.0863301 0.00550734 0)
(-0.0970156 0.00511118 0)
(-0.10687 0.00467515 0)
(-0.115891 0.00427012 0)
(-0.124069 0.00383739 0)
(-0.131406 0.00342763 0)
(-0.137898 0.00301301 0)
(-0.143544 0.00258676 0)
(-0.148345 0.00217133 0)
(-0.152302 0.0017542 0)
(-0.155414 0.00133582 0)
(-0.157691 0.000919568 0)
(-0.159127 0.000503242 0)
(-0.159759 9.84382e-05 0)
(-0.159585 -0.000310916 0)
(-0.158561 -0.000716372 0)
(-0.156719 -0.00111762 0)
(-0.153555 -0.00151669 0)
(0.0724879 -0.0130302 0)
(0.0891209 -0.0130726 0)
(0.107662 -0.0127028 0)
(0.125688 -0.0121617 0)
(0.142948 -0.0116723 0)
(0.159167 -0.0107858 0)
(0.174104 -0.00990683 0)
(0.187492 -0.00869653 0)
(0.199108 -0.00736069 0)
(0.208761 -0.00597396 0)
(0.216259 -0.00441699 0)
(0.221483 -0.00279411 0)
(0.224349 -0.00112924 0)
(0.224788 0.00053956 0)
(0.222803 0.00219134 0)
(0.218397 0.00383579 0)
(0.211722 0.00541316 0)
(0.202871 0.0067979 0)
(0.192041 0.00814544 0)
(0.179416 0.00937951 0)
(0.165213 0.0102664 0)
(0.149706 0.0111634 0)
(0.133125 0.0119081 0)
(0.115722 0.0122449 0)
(0.0977546 0.012636 0)
(0.0794515 0.0126434 0)
(0.0610222 0.0127244 0)
(0.0426351 0.0126661 0)
(0.0244219 0.0122912 0)
(0.00683664 0.0119706 0)
(-0.00994108 0.011593 0)
(-0.0261184 0.0110019 0)
(-0.0415784 0.0104807 0)
(-0.056201 0.00981679 0)
(-0.0699417 0.00922403 0)
(-0.0827645 0.00860101 0)
(-0.0946494 0.0079159 0)
(-0.105606 0.0072904 0)
(-0.115639 0.00666369 0)
(-0.124764 0.00602274 0)
(-0.133008 0.00542651 0)
(-0.140396 0.00482967 0)
(-0.146957 0.00426821 0)
(-0.152716 0.00371943 0)
(-0.1577 0.00317947 0)
(-0.16193 0.00265919 0)
(-0.165418 0.0021465 0)
(-0.168192 0.00164233 0)
(-0.170265 0.00115026 0)
(-0.171611 0.000668729 0)
(-0.172261 0.000185922 0)
(-0.172212 -0.000306676 0)
(-0.171452 -0.000829037 0)
(-0.169986 -0.00130463 0)
(-0.167776 -0.00180385 0)
(-0.164824 -0.00236033 0)
(-0.161156 -0.0028415 0)
(-0.156703 -0.00337238 0)
(-0.1514 -0.00397344 0)
(-0.145305 -0.00451806 0)
(-0.138373 -0.00517542 0)
(-0.130542 -0.00572704 0)
(-0.121855 -0.00628894 0)
(-0.112269 -0.00697068 0)
(-0.101772 -0.00755219 0)
(-0.0904435 -0.00809065 0)
(-0.0782571 -0.00873053 0)
(-0.0652513 -0.00924531 0)
(-0.0515662 -0.0098204 0)
(-0.0370618 -0.0103386 0)
(-0.0218397 -0.0107251 0)
(-0.0060455 -0.0111467 0)
(0.0103431 -0.0114599 0)
(0.0270501 -0.0116129 0)
(0.0439498 -0.0118209 0)
(0.06098 -0.0118103 0)