/*--------------------------------*- C++ -*----------------------------------*\
| =========                 |                                                 |
| \\      /  F ield         | OpenFOAM: The Open Source CFD Toolbox           |
|  \\    /   O peration     | Version:  3.0.1                                 |
|   \\  /    A nd           | Web:      www.OpenFOAM.org                      |
|    \\/     M anipulation  |                                                 |
\*---------------------------------------------------------------------------*/
FoamFile
{
    version     2.0;
    format      ascii;
    class       surfaceScalarField;
    location    "95.4";
    object      phi;
}
// * * * * * * * * * * * * * * * * * * * * * * * * * * * * * * * * * * * * * //

dimensions      [0 3 -1 0 0 0 0];

internalField   nonuniform List<scalar> 
42423
(
0.00013307
-1.92533e-06
0.000135142
-2.07203e-06
0.000137446
-2.30396e-06
0.000139897
-2.45113e-06
0.000142649
-2.75229e-06
0.00014561
-2.96059e-06
0.000148922
-3.31193e-06
0.000152592
-3.67017e-06
0.000156422
-3.83054e-06
0.000160671
-4.24832e-06
0.000165387
-4.71668e-06
0.000170279
-4.89206e-06
0.000175672
-5.39308e-06
0.000181452
-5.77927e-06
0.000187801
-6.3491e-06
0.000194832
-7.03109e-06
0.000202198
-7.36597e-06
0.000210233
-8.03506e-06
0.000219119
-8.88654e-06
0.000228446
-9.32706e-06
0.000238538
-1.00916e-05
0.000249583
-1.10453e-05
0.000261115
-1.15322e-05
0.000273415
-1.23005e-05
0.000286375
-1.29594e-05
0.000300064
-1.36889e-05
0.000314494
-1.44308e-05
0.000329214
-1.47197e-05
0.00034432
-1.51063e-05
0.000359725
-1.54056e-05
0.00037498
-1.52551e-05
0.000390048
-1.50675e-05
0.000404642
-1.45941e-05
0.000418549
-1.39074e-05
0.000431578
-1.3029e-05
0.000443392
-1.18141e-05
0.000453808
-1.04165e-05
0.000462618
-8.81005e-06
0.00046962
-7.002e-06
0.000474733
-5.11341e-06
0.00047781
-3.07674e-06
0.000478842
-1.03184e-06
0.000477978
8.63454e-07
0.000474879
3.0996e-06
0.000469785
5.09372e-06
0.0004631
6.68486e-06
0.000454526
8.5733e-06
0.000444307
1.02193e-05
0.000432847
1.146e-05
0.000419992
1.28549e-05
0.000406067
1.39246e-05
0.000391263
1.48041e-05
0.000375788
1.54755e-05
0.000359901
1.58868e-05
0.000343659
1.62414e-05
0.000327325
1.63349e-05
0.000311095
1.62294e-05
0.000295081
1.60145e-05
0.000279475
1.56055e-05
0.000264393
1.50824e-05
0.000249953
1.44395e-05
0.000236244
1.37089e-05
0.000223332
1.29123e-05
0.000211247
1.2085e-05
0.000199982
1.12646e-05
0.000189553
1.04298e-05
0.000179971
9.58217e-06
0.000171213
8.7578e-06
0.000163128
8.08478e-06
0.000155516
7.61211e-06
0.000148133
7.38291e-06
0.000140569
7.56392e-06
0.000132428
8.14155e-06
0.000123678
8.7493e-06
0.000114257
9.42156e-06
0.000104486
9.77048e-06
9.45838e-05
9.90239e-06
8.48226e-05
9.76124e-06
7.56754e-05
9.14718e-06
6.72602e-05
8.41521e-06
5.97182e-05
7.54199e-06
5.31419e-05
6.57635e-06
4.75249e-05
5.61696e-06
4.28512e-05
4.67374e-06
3.91152e-05
3.73592e-06
3.63889e-05
2.72631e-06
3.46442e-05
1.74475e-06
3.39206e-05
7.2362e-07
3.42697e-05
-3.49101e-07
3.56776e-05
-1.40796e-06
3.80204e-05
-2.34274e-06
4.12752e-05
-3.2548e-06
4.53897e-05
-4.11452e-06
5.03119e-05
-4.92217e-06
5.59877e-05
-5.67579e-06
6.23655e-05
-6.37782e-06
6.94794e-05
-7.11391e-06
7.73409e-05
-7.86156e-06
8.59457e-05
-8.60473e-06
9.53495e-05
-9.40385e-06
0.000105523
-1.01738e-05
0.000116496
-1.09731e-05
0.000128334
-1.18377e-05
0.000140937
-1.2603e-05
0.000154315
-1.33781e-05
0.00016847
-1.41553e-05
0.00018325
-1.47796e-05
0.000198613
-1.53633e-05
0.000214451
-1.58375e-05
0.000230604
-1.61532e-05
0.000246981
-1.63777e-05
0.000263436
-1.64544e-05
0.000279815
-1.63797e-05
0.000295992
-1.61765e-05
0.000311846
-1.58544e-05
0.00032718
-1.53337e-05
0.000341807
-1.46276e-05
0.000355531
-1.37234e-05
0.000368169
-1.2638e-05
0.0003795
-1.13316e-05
0.000389302
-9.80218e-06
0.000397441
-8.13873e-06
0.000403684
-6.24346e-06
0.000407918
-4.23339e-06
0.00041006
-2.14204e-06
0.000410051
8.25509e-09
0.000407842
2.20966e-06
0.000403377
4.46485e-06
0.000396802
6.57427e-06
0.000388278
8.52393e-06
0.000377881
1.03971e-05
0.000365817
1.20644e-05
0.000352314
1.35028e-05
0.000337506
1.48075e-05
0.000321678
1.58279e-05
0.000305073
1.66053e-05
0.000287834
1.72389e-05
0.000270295
1.75387e-05
0.000252617
1.76783e-05
0.000234957
1.76605e-05
0.000217641
1.7316e-05
0.000200729
1.69115e-05
0.000184464
1.62646e-05
0.000169012
1.54527e-05
0.000154397
1.46145e-05
0.000140707
1.36907e-05
0.000128028
1.26788e-05
0.000116382
1.16454e-05
0.000105777
1.06048e-05
9.62207e-05
9.55684e-06
8.76563e-05
8.56433e-06
8.00636e-05
7.59276e-06
7.34666e-05
6.59696e-06
6.77964e-05
5.67017e-06
6.29718e-05
4.82468e-06
5.89754e-05
3.99635e-06
5.57715e-05
3.20393e-06
5.33196e-05
2.45187e-06
5.15151e-05
1.80452e-06
5.03443e-05
1.17076e-06
4.97087e-05
6.35594e-07
4.95613e-05
1.47442e-07
4.98007e-05
-2.39376e-07
5.03945e-05
-5.93879e-07
5.12763e-05
-8.81792e-07
5.23824e-05
-1.10607e-06
5.37199e-05
-1.33745e-06
5.52258e-05
-1.50595e-06
5.68965e-05
-1.6707e-06
5.87343e-05
-1.83781e-06
6.07101e-05
-1.97578e-06
6.28606e-05
-2.15048e-06
6.51202e-05
-2.25961e-06
6.75615e-05
-2.44132e-06
7.02038e-05
-2.64225e-06
7.30095e-05
-2.80576e-06
7.61046e-05
-3.09511e-06
7.9501e-05
-3.39637e-06
8.3147e-05
-3.64602e-06
8.71759e-05
-4.0289e-06
9.1592e-05
-4.41606e-06
9.63648e-05
-4.77282e-06
0.000101534
-5.16925e-06
0.000107161
-5.62712e-06
0.000113214
-6.05311e-06
0.000119721
-6.50669e-06
0.000126786
-7.06511e-06
0.000134408
-7.62194e-06
0.00014263
-8.22255e-06
0.00015156
-8.93002e-06
0.000161185
-9.62461e-06
0.000171502
-1.03173e-05
0.000182554
-1.10515e-05
0.000194252
-1.16983e-05
0.00020659
-1.23388e-05
0.000219484
-1.2894e-05
0.000232868
-1.33841e-05
0.000246628
-1.37596e-05
0.000260652
-1.40245e-05
0.000274824
-1.41719e-05
0.000288933
-1.41088e-05
0.000302849
-1.39169e-05
0.000316306
-1.3457e-05
0.000329128
-1.28214e-05
0.000341067
-1.19399e-05
0.000351874
-1.08063e-05
0.000361347
-9.47312e-06
0.00036925
-7.90374e-06
0.000375385
-6.13535e-06
0.000379618
-4.23241e-06
0.00038183
-2.21252e-06
0.000382025
-1.94518e-07
0.00038014
1.88487e-06
0.000376138
4.00115e-06
0.000370176
5.96195e-06
0.000362445
7.73079e-06
0.000353124
9.32111e-06
0.000342389
1.07352e-05
0.000330531
1.18578e-05
0.00031775
1.27807e-05
0.000304286
1.34645e-05
0.000290343
1.39426e-05
0.000276172
1.41713e-05
0.000261937
1.42344e-05
0.000247796
1.41414e-05
0.000233971
1.38249e-05
0.000220427
1.35436e-05
0.000207342
1.30856e-05
0.000194764
1.25775e-05
0.000182719
1.20455e-05
0.000171334
1.13846e-05
0.000160645
1.06894e-05
0.000150674
9.97019e-06
0.00014153
9.1442e-06
0.000133191
8.33867e-06
0.000125662
7.52919e-06
0.000118841
6.82148e-06
0.000112685
6.15548e-06
0.000107113
5.57256e-06
0.000102067
5.04586e-06
9.75171e-05
4.54965e-06
9.33478e-05
4.1693e-06
8.95857e-05
3.76207e-06
8.62227e-05
3.36295e-06
8.31736e-05
3.04908e-06
8.05169e-05
2.6567e-06
7.8109e-05
2.40793e-06
7.60124e-05
2.0966e-06
7.42258e-05
1.78655e-06
7.26181e-05
1.60769e-06
7.13138e-05
1.30425e-06
7.02911e-05
1.02271e-06
6.9561e-05
7.30126e-07
6.92094e-05
3.51565e-07
6.91743e-05
3.51212e-08
6.96145e-05
-4.40187e-07
7.04634e-05
-8.48946e-07
7.17547e-05
-1.29126e-06
7.35235e-05
-1.7688e-06
7.57843e-05
-2.26084e-06
7.84614e-05
-2.6771e-06
8.17253e-05
-3.26394e-06
8.55079e-05
-3.78258e-06
8.98563e-05
-4.34847e-06
9.48675e-05
-5.01114e-06
0.000100692
-5.82437e-06
0.000107226
-6.53445e-06
0.0001147
-7.47391e-06
0.00012308
-8.38025e-06
0.000132173
-9.09261e-06
0.00014211
-9.93738e-06
0.000152766
-1.06558e-05
0.000163988
-1.1222e-05
0.000175915
-1.19274e-05
0.000188593
-1.26779e-05
0.000201979
-1.3386e-05
0.000216078
-1.40989e-05
0.000230961
-1.48832e-05
0.000246515
-1.55541e-05
0.00026289
-1.63754e-05
0.000280214
-1.73238e-05
0.000298559
-1.83451e-05
0.000317688
-1.91288e-05
0.000337295
-1.96077e-05
0.000356985
-1.96904e-05
0.000376597
-1.96122e-05
0.000395631
-1.90338e-05
0.000413723
-1.80918e-05
0.000430421
-1.66989e-05
0.000445192
-1.47711e-05
0.000457787
-1.2595e-05
0.000467807
-1.00196e-05
0.000474913
-7.10688e-06
0.000477709
-2.79604e-06
0.000475786
1.92342e-06
0.000470739
5.04628e-06
0.000464059
6.67987e-06
0.000455506
8.55356e-06
0.00044507
1.0436e-05
0.000432764
1.23053e-05
0.000419107
1.36572e-05
0.000404325
1.47824e-05
0.000388551
1.57738e-05
0.000372282
1.62689e-05
0.000355679
1.66023e-05
0.00033886
1.68196e-05
0.00032219
1.66691e-05
0.00030571
1.64801e-05
0.00028967
1.60398e-05
0.000274111
1.55593e-05
0.000259081
1.503e-05
0.000244761
1.43202e-05
0.000231158
1.3603e-05
0.000218296
1.28618e-05
0.000206278
1.20185e-05
0.000195078
1.11999e-05
0.000184746
1.03319e-05
0.00017525
9.49563e-06
0.000166573
8.67676e-06
0.000158718
7.85546e-06
0.000151636
7.08148e-06
0.000145287
6.34906e-06
0.000139634
5.653e-06
0.000134616
5.01852e-06
0.000130181
4.43512e-06
0.000126263
3.91809e-06
0.000122801
3.46151e-06
0.000119741
3.05967e-06
0.000117026
2.71529e-06
0.000114602
2.42367e-06
0.000112431
2.17145e-06
0.000110479
1.95165e-06
0.000108721
1.75789e-06
0.000107151
1.57018e-06
0.000105767
1.38444e-06
0.000104585
1.18206e-06
0.000103634
9.50625e-07
0.000102944
6.90366e-07
0.000102556
3.87873e-07
0.000102536
2.03186e-08
0.000102999
-4.63588e-07
0.000103981
-9.82161e-07
0.000105526
-1.54486e-06
0.000107698
-2.17154e-06
0.00011054
-2.84213e-06
0.000114068
-3.52792e-06
0.00011835
-4.28219e-06
0.000123394
-5.04365e-06
0.000129172
-5.77803e-06
0.000135783
-6.61155e-06
0.000143139
-7.35558e-06
0.000151352
-8.21356e-06
0.000160344
-8.99202e-06
0.000169972
-9.62719e-06
0.00018042
-1.04481e-05
0.000191631
-1.1211e-05
-1.18974e-05
0.00013306
-3.8492e-06
0.00013513
-4.14206e-06
0.000137433
-4.60705e-06
0.000139883
-4.90059e-06
0.000142636
-5.50559e-06
0.000145597
-5.9218e-06
0.000148917
-6.63208e-06
0.000152589
-7.342e-06
0.000156421
-7.66243e-06
0.000160663
-8.49082e-06
0.000165372
-9.42548e-06
0.000170276
-9.79591e-06
0.000175684
-1.0801e-05
0.000181467
-1.15623e-05
0.000187813
-1.26958e-05
0.00019484
-1.40574e-05
0.000202198
-1.47241e-05
0.00021023
-1.60673e-05
0.000219114
-1.77714e-05
0.000228435
-1.86482e-05
0.000238524
-2.01801e-05
0.000249572
-2.2094e-05
0.000261092
-2.30522e-05
0.000273392
-2.46005e-05
0.000286357
-2.59246e-05
0.000300047
-2.73792e-05
0.000314493
-2.88771e-05
0.000329211
-2.94379e-05
0.000344315
-3.02101e-05
0.000359728
-3.0819e-05
0.000374987
-3.05145e-05
0.000390069
-3.01494e-05
0.000404668
-2.91937e-05
0.000418584
-2.78237e-05
0.000431622
-2.60675e-05
0.000443427
-2.36186e-05
0.000453837
-2.08267e-05
0.000462668
-1.76416e-05
0.000469681
-1.40155e-05
0.000474817
-1.02492e-05
0.000477904
-6.16377e-06
0.000478941
-2.06932e-06
0.000478069
1.73537e-06
0.000474973
6.19571e-06
0.000469885
1.01811e-05
0.000463201
1.33689e-05
0.000454625
1.71488e-05
0.0004444
2.04447e-05
0.000432934
2.29258e-05
0.000420072
2.57163e-05
0.00040614
2.78569e-05
0.000391328
2.96165e-05
0.000375844
3.09594e-05
0.000359949
3.17815e-05
0.000343701
3.24896e-05
0.00032736
3.26757e-05
0.000311123
3.24655e-05
0.000295102
3.20361e-05
0.000279491
3.12163e-05
0.000264402
3.01716e-05
0.000249954
2.88873e-05
0.000236239
2.74241e-05
0.000223322
2.58293e-05
0.000211234
2.41728e-05
0.000199968
2.25308e-05
0.000189535
2.08623e-05
0.000179948
1.9169e-05
0.00017119
1.75161e-05
0.000163108
1.61671e-05
0.000155489
1.52306e-05
0.000148108
1.47642e-05
0.000140562
1.51103e-05
0.000132438
1.62652e-05
0.000123712
1.7475e-05
0.000114311
1.88224e-05
0.000104551
1.95309e-05
9.46643e-05
1.97891e-05
8.49208e-05
1.95048e-05
7.5791e-05
1.82769e-05
6.73948e-05
1.68115e-05
5.98663e-05
1.50704e-05
5.33008e-05
1.31419e-05
4.76972e-05
1.12206e-05
4.30423e-05
9.32863e-06
3.93153e-05
7.46301e-06
3.65972e-05
5.44436e-06
3.48667e-05
3.47532e-06
3.41456e-05
1.44472e-06
3.44972e-05
-7.00682e-07
3.58988e-05
-2.80956e-06
3.82471e-05
-4.69106e-06
4.15101e-05
-6.51786e-06
4.56257e-05
-8.23004e-06
5.05554e-05
-9.85194e-06
5.62343e-05
-1.13547e-05
6.26159e-05
-1.27594e-05
6.97168e-05
-1.42148e-05
7.75783e-05
-1.57231e-05
8.61799e-05
-1.72063e-05
9.558e-05
-1.8804e-05
0.000105754
-2.03483e-05
0.000116726
-2.19444e-05
0.000128565
-2.36772e-05
0.000141174
-2.52115e-05
0.000154565
-2.67696e-05
0.000168723
-2.8313e-05
0.000183502
-2.95593e-05
0.000198881
-3.07424e-05
0.000214727
-3.16835e-05
0.000230884
-3.23102e-05
0.000247263
-3.27566e-05
0.00026372
-3.29116e-05
0.000280112
-3.27724e-05
0.000296299
-3.23636e-05
0.000312161
-3.1716e-05
0.0003275
-3.06733e-05
0.000342133
-2.92605e-05
0.000355861
-2.74512e-05
0.000368507
-2.52844e-05
0.000379845
-2.2669e-05
0.00038965
-1.96082e-05
0.000397798
-1.62863e-05
0.000404048
-1.24939e-05
0.000408282
-8.46701e-06
0.000410426
-4.28604e-06
0.000410402
3.15822e-08
0.000408181
4.43076e-06
0.00040372
8.92589e-06
0.000397141
1.31531e-05
0.000388611
1.70533e-05
0.000378213
2.07956e-05
0.000366135
2.41415e-05
0.000352614
2.70243e-05
0.000337796
2.96254e-05
0.00032196
3.16636e-05
0.000305346
3.32194e-05
0.000288093
3.44919e-05
0.00027054
3.50917e-05
0.000252848
3.53698e-05
0.00023518
3.5329e-05
0.000217863
3.46332e-05
0.000200956
3.38181e-05
0.00018468
3.25411e-05
0.000169212
3.09206e-05
0.000154593
2.92335e-05
0.000140906
2.73774e-05
0.000128227
2.53578e-05
0.000116587
2.32857e-05
0.000105979
2.12129e-05
9.64159e-05
1.91196e-05
8.78456e-05
1.71346e-05
8.0253e-05
1.51854e-05
7.36707e-05
1.31793e-05
6.80026e-05
1.13383e-05
6.31726e-05
9.65463e-06
5.91748e-05
7.99419e-06
5.59759e-05
6.40282e-06
5.35291e-05
4.89868e-06
5.17264e-05
3.60722e-06
5.05584e-05
2.33876e-06
4.99283e-05
1.26563e-06
4.97852e-05
2.90568e-07
5.00236e-05
-4.77796e-07
5.06184e-05
-1.18861e-06
5.15022e-05
-1.76564e-06
5.26011e-05
-2.20497e-06
5.39377e-05
-2.67406e-06
5.54467e-05
-3.01492e-06
5.71219e-05
-3.3459e-06
5.8967e-05
-3.68288e-06
6.09423e-05
-3.9511e-06
6.30914e-05
-4.29957e-06
6.53465e-05
-4.51467e-06
6.77851e-05
-4.87996e-06
7.04285e-05
-5.28569e-06
7.32363e-05
-5.61356e-06
7.63278e-05
-6.1866e-06
7.97201e-05
-6.78867e-06
8.33826e-05
-7.30855e-06
8.74188e-05
-8.0651e-06
9.18344e-05
-8.83173e-06
9.66019e-05
-9.54025e-06
0.000101771
-1.03384e-05
0.000107403
-1.12595e-05
0.000113455
-1.21049e-05
0.000119956
-1.3008e-05
0.000127013
-1.41222e-05
0.000134639
-1.52476e-05
0.00014287
-1.6454e-05
0.0001518
-1.78598e-05
0.000161421
-1.92457e-05
0.000171733
-2.06294e-05
0.000182784
-2.21028e-05
0.000194482
-2.33966e-05
0.000206819
-2.46763e-05
0.00021972
-2.57944e-05
0.000233112
-2.67764e-05
0.000246867
-2.7515e-05
0.000260888
-2.8046e-05
0.00027506
-2.83436e-05
0.000289162
-2.8211e-05
0.000303079
-2.78344e-05
0.000316527
-2.69054e-05
0.000329347
-2.56413e-05
0.000341284
-2.38773e-05
0.00035208
-2.16027e-05
0.000361545
-1.89383e-05
0.00036944
-1.57986e-05
0.000375567
-1.22629e-05
0.000379794
-8.45942e-06
0.000381995
-4.41374e-06
0.000382159
-3.58362e-07
0.000380242
3.80179e-06
0.000376215
8.02792e-06
0.000370233
1.19431e-05
0.000362484
1.54801e-05
0.000353135
1.86699e-05
0.00034236
2.15096e-05
0.000330467
2.37512e-05
0.000317655
2.55927e-05
0.000304167
2.69514e-05
0.000290199
2.79105e-05
0.000275995
2.83758e-05
0.000261735
2.84937e-05
0.000247577
2.83001e-05
0.000233733
2.76689e-05
0.000220171
2.71055e-05
0.000207073
2.61831e-05
0.000194475
2.51756e-05
0.000182417
2.41038e-05
0.000171021
2.27801e-05
0.000160316
2.13939e-05
0.000150341
1.99452e-05
0.000141194
1.82915e-05
0.000132845
1.66875e-05
0.000125322
1.5052e-05
0.000118503
1.36406e-05
0.000112348
1.23101e-05
0.000106788
1.11328e-05
0.000101745
1.00894e-05
9.71899e-05
9.10431e-06
9.30372e-05
8.32198e-06
8.92993e-05
7.49998e-06
8.59452e-05
6.71702e-06
8.2892e-05
6.1023e-06
8.02313e-05
5.3173e-06
7.78476e-05
4.79165e-06
7.57679e-05
4.17629e-06
7.3981e-05
3.57339e-06
7.23715e-05
3.21716e-06
7.10863e-05
2.58951e-06
7.00776e-05
2.03132e-06
6.935e-05
1.45777e-06
6.89992e-05
7.02352e-07
6.89694e-05
6.49155e-08
6.94259e-05
-8.96688e-07
7.02749e-05
-1.69802e-06
7.15706e-05
-2.58691e-06
7.33382e-05
-3.53642e-06
7.56034e-05
-4.52606e-06
7.8305e-05
-5.3787e-06
8.15672e-05
-6.52622e-06
8.53356e-05
-7.55097e-06
8.96804e-05
-8.69333e-06
9.46926e-05
-1.00234e-05
0.000100524
-1.16557e-05
0.000107073
-1.30838e-05
0.000114554
-1.49542e-05
0.000122927
-1.67536e-05
0.000132018
-1.81838e-05
0.000141945
-1.98645e-05
0.000152607
-2.13178e-05
0.000163843
-2.24583e-05
0.000175787
-2.38712e-05
0.000188482
-2.53735e-05
0.000201873
-2.67774e-05
0.000215974
-2.81994e-05
0.000230866
-2.97764e-05
0.000246427
-3.11152e-05
0.000262807
-3.27555e-05
0.000280135
-3.46522e-05
0.000298484
-3.66935e-05
0.000317618
-3.82639e-05
0.00033723
-3.92194e-05
0.000356923
-3.93839e-05
0.000376541
-3.92308e-05
0.000395568
-3.80603e-05
0.000413654
-3.61786e-05
0.00043033
-3.33753e-05
0.00044504
-2.94814e-05
0.000457557
-2.51125e-05
0.000467393
-1.98552e-05
0.000474034
-1.37487e-05
0.000476587
-5.34869e-06
0.000474989
3.52101e-06
0.000470507
9.52774e-06
0.000464076
1.31107e-05
0.000455559
1.70708e-05
0.00044512
2.08745e-05
0.000432808
2.46167e-05
0.000419144
2.73215e-05
0.000404353
2.95726e-05
0.000388571
3.15559e-05
0.000372294
3.25459e-05
0.000355684
3.32121e-05
0.000338857
3.36461e-05
0.000322182
3.33444e-05
0.000305696
3.29655e-05
0.000289652
3.20842e-05
0.000274089
3.11226e-05
0.000259055
3.00632e-05
0.000244732
2.8643e-05
0.000231127
2.72081e-05
0.000218264
2.57252e-05
0.000206244
2.4038e-05
0.000195044
2.24004e-05
0.000184711
2.06642e-05
0.000175216
1.89912e-05
0.000166539
1.73533e-05
0.000158684
1.57107e-05
0.000151603
1.41623e-05
0.000145255
1.26972e-05
0.000139603
1.13048e-05
0.000134585
1.00365e-05
0.00013015
8.87022e-06
0.000126234
7.83393e-06
0.000122774
6.92133e-06
0.000119715
6.11857e-06
0.000116999
5.43226e-06
0.000114575
4.84679e-06
0.000112406
4.34091e-06
0.000110452
3.90538e-06
0.000108693
3.51702e-06
0.000107119
3.14455e-06
0.000105731
2.77174e-06
0.000104547
2.36652e-06
0.00010359
1.90707e-06
0.000102892
1.38925e-06
0.0001025
7.79828e-07
0.000102486
3.38524e-08
0.000102944
-9.21748e-07
0.000103926
-1.96417e-06
0.000105477
-3.0951e-06
0.000107651
-4.34553e-06
0.000110494
-5.68515e-06
0.000114016
-7.05073e-06
0.000118298
-8.56374e-06
0.000123348
-1.00938e-05
0.000129123
-1.1553e-05
0.000135733
-1.3222e-05
0.000143095
-1.47176e-05
0.000151308
-1.64266e-05
0.000160301
-1.79841e-05
0.000169933
-1.92596e-05
0.000180383
-2.08981e-05
0.000191598
-2.24262e-05
-2.38006e-05
0.000133044
-5.77356e-06
0.000135117
-6.21549e-06
0.000137424
-6.91378e-06
0.000139875
-7.35122e-06
0.000142634
-8.26503e-06
0.0001456
-8.88816e-06
0.000148921
-9.95257e-06
0.000152599
-1.10203e-05
0.000156433
-1.14963e-05
0.000160683
-1.27411e-05
0.0001654
-1.41422e-05
0.000170298
-1.46935e-05
0.000175691
-1.61946e-05
0.000181468
-1.73389e-05
0.000187812
-1.90399e-05
0.000194841
-2.10867e-05
0.000202191
-2.20741e-05
0.000210214
-2.4091e-05
0.0002191
-2.66572e-05
0.00022841
-2.79586e-05
0.000238492
-3.02622e-05
0.000249545
-3.3147e-05
0.000261063
-3.45702e-05
0.000273364
-3.69024e-05
0.000286321
-3.88818e-05
0.000300013
-4.10711e-05
0.000314471
-4.3335e-05
0.00032919
-4.41576e-05
0.000344301
-4.53217e-05
0.00035974
-4.62582e-05
0.000375003
-4.57774e-05
0.000390091
-4.5238e-05
0.000404706
-4.38091e-05
0.000418634
-4.17513e-05
0.000431686
-3.91195e-05
0.000443507
-3.54403e-05
0.000453936
-3.12561e-05
0.000462785
-2.64904e-05
0.000469796
-2.1027e-05
0.000474927
-1.53803e-05
0.000478017
-9.25411e-06
0.000479072
-3.12423e-06
0.000478189
2.61808e-06
0.000475097
9.28742e-06
0.000470021
1.52569e-05
0.000463332
2.00578e-05
0.000454748
2.57327e-05
0.000444513
3.06795e-05
0.000433036
3.44033e-05
0.00042016
3.85917e-05
0.000406214
4.18033e-05
0.000391387
4.44436e-05
0.000375887
4.64587e-05
0.000359977
4.76915e-05
0.000343715
4.87514e-05
0.000327364
4.9027e-05
0.00031112
4.87096e-05
0.00029509
4.80663e-05
0.000279468
4.68383e-05
0.000264367
4.52719e-05
0.000249909
4.33452e-05
0.000236186
4.11479e-05
0.000223264
3.87509e-05
0.000211175
3.6262e-05
0.000199911
3.37943e-05
0.00018948
3.12932e-05
0.000179894
2.87553e-05
0.000171137
2.62733e-05
0.000163056
2.42478e-05
0.000155443
2.2844e-05
0.000148066
2.21411e-05
0.000140556
2.26206e-05
0.00013248
2.43409e-05
0.000123799
2.61558e-05
0.000114438
2.81837e-05
0.00010471
2.92593e-05
9.48537e-05
2.96451e-05
8.51401e-05
2.92184e-05
7.60343e-05
2.73827e-05
6.7666e-05
2.51798e-05
6.01644e-05
2.25721e-05
5.36214e-05
1.96849e-05
4.80463e-05
1.67957e-05
4.34207e-05
1.39542e-05
3.97179e-05
1.11658e-05
3.70188e-05
8.14347e-06
3.53007e-05
5.19346e-06
3.4586e-05
2.15944e-06
3.49329e-05
-1.04764e-06
3.6327e-05
-4.2036e-06
3.86768e-05
-7.04088e-06
4.19461e-05
-9.78715e-06
4.60664e-05
-1.23504e-05
5.09988e-05
-1.47843e-05
5.66857e-05
-1.70416e-05
6.30696e-05
-1.91432e-05
7.01666e-05
-2.13118e-05
7.80179e-05
-2.35744e-05
8.66139e-05
-2.58023e-05
9.60076e-05
-2.81976e-05
0.000106181
-3.05222e-05
0.000117157
-3.29201e-05
0.000128991
-3.55116e-05
0.000141597
-3.78173e-05
0.000154995
-4.01679e-05
0.000169166
-4.24836e-05
0.000183959
-4.43524e-05
0.000199343
-4.61268e-05
0.000215197
-4.75373e-05
0.000231367
-4.84808e-05
0.000247759
-4.91487e-05
0.000264221
-4.93735e-05
0.000280627
-4.91783e-05
0.000296826
-4.85627e-05
0.000312698
-4.75887e-05
0.000328049
-4.60241e-05
0.000342692
-4.39039e-05
0.00035643
-4.11895e-05
0.000369093
-3.7947e-05
0.000380448
-3.4024e-05
0.00039027
-2.94307e-05
0.000398429
-2.44456e-05
0.00040468
-1.87452e-05
0.00040891
-1.26969e-05
0.000411045
-6.42142e-06
0.000410999
7.7867e-08
0.000408756
6.67398e-06
0.000404302
1.3379e-05
0.000397722
1.97339e-05
0.000389177
2.55977e-05
0.000378762
3.12108e-05
0.000366671
3.62326e-05
0.000353132
4.05628e-05
0.000338297
4.44599e-05
0.00032244
4.75212e-05
0.000305804
4.98548e-05
0.000288535
5.1761e-05
0.000270966
5.26606e-05
0.000253258
5.30783e-05
0.000235584
5.30025e-05
0.000218256
5.19615e-05
0.000201339
5.07348e-05
0.000185067
4.88128e-05
0.000169591
4.63967e-05
0.000154956
4.38687e-05
0.000141266
4.10674e-05
0.000128594
3.80303e-05
0.000116959
3.49208e-05
0.000106351
3.18205e-05
9.67783e-05
2.86923e-05
8.82063e-05
2.57066e-05
8.06202e-05
2.27714e-05
7.40455e-05
1.9754e-05
6.83819e-05
1.70019e-05
6.35532e-05
1.44834e-05
5.95539e-05
1.19935e-05
5.63604e-05
9.59627e-06
5.39196e-05
7.33948e-06
5.21274e-05
5.39941e-06
5.09673e-05
3.49893e-06
5.03323e-05
1.90061e-06
5.01882e-05
4.34605e-07
5.0427e-05
-7.16573e-07
5.10216e-05
-1.78324e-06
5.19086e-05
-2.65258e-06
5.30138e-05
-3.31019e-06
5.43518e-05
-4.01202e-06
5.58653e-05
-4.52845e-06
5.7541e-05
-5.02155e-06
5.93855e-05
-5.52743e-06
6.13624e-05
-5.92794e-06
6.3504e-05
-6.44122e-06
6.57583e-05
-6.76891e-06
6.82008e-05
-7.32245e-06
7.08442e-05
-7.92913e-06
7.36539e-05
-8.42326e-06
7.67506e-05
-9.28329e-06
8.01381e-05
-1.01761e-05
8.37972e-05
-1.09677e-05
8.78301e-05
-1.2098e-05
9.22401e-05
-1.32418e-05
9.70133e-05
-1.43134e-05
0.000102183
-1.55084e-05
0.000107811
-1.68869e-05
0.000113859
-1.81536e-05
0.00012036
-1.95087e-05
0.000127409
-2.11709e-05
0.000135019
-2.28585e-05
0.000143245
-2.46796e-05
0.000152174
-2.67891e-05
0.000161794
-2.88654e-05
0.000172109
-3.09445e-05
0.000183161
-3.31549e-05
0.000194858
-3.5094e-05
0.000207196
-3.70142e-05
0.000220091
-3.86903e-05
0.000233476
-4.01612e-05
0.000247228
-4.12673e-05
0.000261248
-4.20658e-05
0.000275417
-4.25129e-05
0.000289515
-4.231e-05
0.000303425
-4.1744e-05
0.000316872
-4.03532e-05
0.000329685
-3.84545e-05
0.000341612
-3.58043e-05
0.000352404
-3.23952e-05
0.000361862
-2.83956e-05
0.000369742
-2.36793e-05
0.000375852
-1.83735e-05
0.000380053
-1.26601e-05
0.000382232
-6.59298e-06
0.000382359
-4.85579e-07
0.000380393
5.76723e-06
0.000376342
1.20788e-05
0.000370316
1.79695e-05
0.000362502
2.32932e-05
0.000353098
2.80742e-05
0.000342278
3.23296e-05
0.000330334
3.56953e-05
0.000317461
3.84652e-05
0.000303916
4.04963e-05
0.000289897
4.19294e-05
0.000275645
4.26275e-05
0.00026134
4.27985e-05
0.000247143
4.24975e-05
0.000233265
4.15465e-05
0.000219675
4.0696e-05
0.000206546
3.9312e-05
0.000193923
3.77985e-05
0.000181849
3.61772e-05
0.00017043
3.41993e-05
0.000159707
3.2117e-05
0.000149721
2.9931e-05
0.000140571
2.74417e-05
0.000132217
2.50411e-05
0.000124694
2.25754e-05
0.000117885
2.04498e-05
0.000111738
1.8457e-05
0.000106191
1.66796e-05
0.000101167
1.51129e-05
9.66275e-05
1.36441e-05
9.2496e-05
1.24534e-05
8.87707e-05
1.12253e-05
8.54362e-05
1.00515e-05
8.24211e-05
9.1173e-06
7.97726e-05
7.96586e-06
7.73897e-05
7.17447e-06
7.53336e-05
6.23234e-06
7.35651e-05
5.34193e-06
7.19732e-05
4.80902e-06
7.07015e-05
3.86116e-06
6.97005e-05
3.03238e-06
6.89666e-05
2.19165e-06
6.8615e-05
1.05386e-06
6.85992e-05
8.07831e-08
6.90595e-05
-1.35701e-06
6.99162e-05
-2.55478e-06
7.12275e-05
-3.89818e-06
7.30022e-05
-5.31118e-06
7.52686e-05
-6.79245e-06
7.79881e-05
-8.09827e-06
8.12337e-05
-9.7718e-06
8.49944e-05
-1.13117e-05
8.93317e-05
-1.30306e-05
9.43416e-05
-1.50333e-05
0.000100175
-1.74893e-05
0.000106738
-1.96467e-05
0.000114226
-2.24424e-05
0.000122619
-2.51466e-05
0.000131721
-2.72859e-05
0.00014161
-2.97537e-05
0.000152299
-3.20068e-05
0.000163569
-3.37278e-05
0.000175545
-3.58478e-05
0.000188274
-3.81029e-05
0.000201692
-4.01953e-05
0.000215807
-4.23146e-05
0.000230711
-4.46807e-05
0.000246285
-4.66894e-05
0.000262685
-4.91554e-05
0.000280036
-5.20037e-05
0.0002984
-5.50576e-05
0.000317548
-5.74121e-05
0.000337173
-5.88451e-05
0.000356871
-5.90822e-05
0.000376494
-5.88542e-05
0.000395522
-5.70886e-05
0.000413591
-5.42472e-05
0.000430206
-4.99913e-05
0.000444764
-4.40393e-05
0.00045698
-3.73291e-05
0.000466258
-2.91326e-05
0.000472094
-1.95854e-05
0.000474453
-7.70802e-06
0.000473673
4.30106e-06
0.00047022
1.29805e-05
0.000464141
1.91896e-05
0.000455667
2.55442e-05
0.000445228
3.13135e-05
0.000432903
3.69415e-05
0.00041922
4.10046e-05
0.00040441
4.4382e-05
0.00038861
4.73561e-05
0.000372316
4.88397e-05
0.00035569
4.98375e-05
0.000338849
5.04866e-05
0.000322162
5.0032e-05
0.000305666
4.94617e-05
0.000289612
4.81378e-05
0.000274041
4.66934e-05
0.000259002
4.51026e-05
0.000244674
4.29706e-05
0.000231065
4.08168e-05
0.000218199
3.85912e-05
0.000206178
3.60595e-05
0.000194976
3.3602e-05
0.000184643
3.09967e-05
0.000175148
2.84862e-05
0.000166473
2.60285e-05
0.00015862
2.35639e-05
0.000151541
2.12412e-05
0.000145195
1.90435e-05
0.000139545
1.69546e-05
0.00013453
1.5051e-05
0.000130099
1.33016e-05
0.000126185
1.17476e-05
0.000122728
1.03783e-05
0.000119674
9.17345e-06
0.000116961
8.14468e-06
0.000114539
7.26853e-06
0.000112371
6.50965e-06
0.000110418
5.85765e-06
0.000108659
5.27674e-06
0.000107086
4.71728e-06
0.000105696
4.16139e-06
0.00010451
3.55277e-06
0.00010355
2.86763e-06
0.000102848
2.09094e-06
0.000102452
1.17584e-06
0.000102429
5.6992e-08
0.000102886
-1.37904e-06
0.000103865
-2.94297e-06
0.000105407
-4.63706e-06
0.000107579
-6.51778e-06
0.00011042
-8.52616e-06
0.000113941
-1.05721e-05
0.000118222
-1.28447e-05
0.000123267
-1.51388e-05
0.000129041
-1.73266e-05
0.000135653
-1.98341e-05
0.000143012
-2.20763e-05
0.000151227
-2.4642e-05
0.000160225
-2.6982e-05
0.000169857
-2.88917e-05
0.000180311
-3.13523e-05
0.000191537
-3.36522e-05
-3.57112e-05
0.00013302
-7.69836e-06
0.000135098
-8.29369e-06
0.00013741
-9.22647e-06
0.000139867
-9.80754e-06
0.000142632
-1.103e-05
0.000145606
-1.18628e-05
0.000148935
-1.32813e-05
0.000152616
-1.47016e-05
0.00015646
-1.53404e-05
0.000160719
-1.70004e-05
0.00016543
-1.88529e-05
0.000170334
-1.95978e-05
0.000175731
-2.15908e-05
0.000181509
-2.31177e-05
0.000187846
-2.53768e-05
0.000194868
-2.81085e-05
0.000202205
-2.94114e-05
0.000210215
-3.21014e-05
0.000219094
-3.55361e-05
0.000228388
-3.72525e-05
0.000238461
-4.0335e-05
0.000249513
-4.42001e-05
0.000261017
-4.60737e-05
0.000273318
-4.9204e-05
0.000286272
-5.18361e-05
0.000299968
-5.47666e-05
0.000314443
-5.78104e-05
0.000329161
-5.88762e-05
0.000344287
-6.04476e-05
0.000359745
-6.17168e-05
0.00037502
-6.1052e-05
0.000390124
-6.0342e-05
0.000404752
-5.84381e-05
0.0004187
-5.56987e-05
0.000431785
-5.22049e-05
0.000443618
-4.72738e-05
0.000454061
-4.16991e-05
0.000462933
-3.5363e-05
0.00046995
-2.80434e-05
0.00047509
-2.05208e-05
0.000478178
-1.23425e-05
0.000479239
-4.18481e-06
0.000478364
3.49276e-06
0.000475289
1.23618e-05
0.000470224
2.03225e-05
0.000463529
2.67521e-05
0.000454932
3.43301e-05
0.00044468
4.09308e-05
0.000433185
4.58983e-05
0.000420289
5.14871e-05
0.000406321
5.57717e-05
0.000391471
5.92936e-05
0.000375948
6.19813e-05
0.000360016
6.36239e-05
0.000343733
6.50343e-05
0.000327363
6.53967e-05
0.000311104
6.49693e-05
0.00029506
6.41104e-05
0.000279425
6.24729e-05
0.000264312
6.0385e-05
0.000249841
5.78159e-05
0.000236107
5.48825e-05
0.000223178
5.16792e-05
0.000211088
4.83518e-05
0.00019983
4.50529e-05
0.0001894
4.17228e-05
0.000179814
3.83417e-05
0.000171057
3.50307e-05
0.000162981
3.23237e-05
0.000155376
3.04485e-05
0.000148003
2.95139e-05
0.000140544
3.00797e-05
0.000132537
3.23485e-05
0.000123926
3.47662e-05
0.000114626
3.74837e-05
0.000104946
3.89392e-05
9.5136e-05
3.94555e-05
8.54599e-05
3.88946e-05
7.63858e-05
3.64568e-05
6.80548e-05
3.35107e-05
6.05932e-05
3.00338e-05
5.40911e-05
2.6187e-05
4.8564e-05
2.23228e-05
4.39909e-05
1.85273e-05
4.0331e-05
1.48258e-05
3.76577e-05
1.08167e-05
3.59521e-05
6.89907e-06
3.52386e-05
2.87292e-06
3.55784e-05
-1.38739e-06
3.69655e-05
-5.59068e-06
3.93245e-05
-9.39992e-06
4.26002e-05
-1.30629e-05
4.6724e-05
-1.64741e-05
5.16578e-05
-1.97181e-05
5.73487e-05
-2.27326e-05
6.3743e-05
-2.55376e-05
7.08529e-05
-2.84217e-05
7.86763e-05
-3.13979e-05
8.72561e-05
-3.43821e-05
9.66402e-05
-3.75818e-05
0.000106815
-4.06969e-05
0.000117791
-4.38965e-05
0.000129617
-4.73376e-05
0.000142235
-5.04355e-05
0.000155647
-5.35793e-05
0.000169825
-5.66625e-05
0.000184643
-5.91703e-05
0.000200045
-6.15284e-05
0.000215906
-6.33986e-05
0.000232094
-6.46684e-05
0.0002485
-6.55556e-05
0.000264975
-6.58483e-05
0.000281403
-6.56058e-05
0.000297627
-6.47869e-05
0.000313517
-6.34795e-05
0.000328878
-6.13846e-05
0.000343543
-5.85697e-05
0.000357294
-5.49402e-05
0.000369965
-5.06187e-05
0.000381337
-4.53955e-05
0.000391174
-3.92683e-05
0.000399342
-3.26133e-05
0.0004056
-2.50041e-05
0.00040984
-1.69362e-05
0.000411963
-8.54503e-06
0.00041188
1.6052e-07
0.000409599
8.95533e-06
0.000405157
1.78209e-05
0.000398573
2.63174e-05