/*--------------------------------*- C++ -*----------------------------------*\
| =========                 |                                                 |
| \\      /  F ield         | OpenFOAM: The Open Source CFD Toolbox           |
|  \\    /   O peration     | Version:  3.0.1                                 |
|   \\  /    A nd           | Web:      www.OpenFOAM.org                      |
|    \\/     M anipulation  |                                                 |
\*---------------------------------------------------------------------------*/
FoamFile
{
    version     2.0;
    format      ascii;
    class       volScalarField;
    location    "37.6";
    object      p_rgh;
}
// * * * * * * * * * * * * * * * * * * * * * * * * * * * * * * * * * * * * * //

dimensions      [1 -1 -2 0 0 0 0];

internalField   nonuniform List<scalar> 
21420
(
-285.601
-283.01
-279.232
-274.243
-268.006
-260.445
-251.496
-241.092
-229.162
-215.66
-200.508
-183.649
-165.037
-144.654
-122.485
-98.5614
-72.9175
-45.6093
-16.7423
13.6066
45.1552
77.6461
110.86
144.545
178.362
211.97
244.968
276.946
307.535
336.323
362.915
386.979
408.19
426.255
440.929
452.004
459.344
462.841
462.463
458.256
450.286
438.631
423.514
405.145
383.811
359.803
333.44
305.095
275.129
243.895
211.777
179.127
146.277
113.555
81.2511
49.6347
19.0643
-10.3982
-38.7638
-65.8483
-91.52
-115.698
-138.32
-159.355
-178.789
-196.621
-212.862
-227.528
-240.645
-252.228
-262.286
-270.837
-277.882
-283.409
-287.415
-289.888
-290.788
-290.082
-287.754
-283.764
-278.072
-270.644
-261.454
-250.483
-237.725
-223.173
-206.835
-188.724
-168.859
-147.269
-123.992
-99.0754
-72.5862
-44.6034
-15.2362
15.3887
47.0743
79.5767
112.659
146.037
179.397
212.402
244.693
275.904
305.661
333.599
359.363
382.613
403.037
420.348
434.287
444.636
451.217
453.828
452.498
447.138
437.803
424.544
407.53
386.973
363.139
336.339
306.932
275.311
241.892
207.105
171.385
135.16
98.8439
62.8296
27.4893
-6.86133
-39.927
-71.4576
-101.246
-129.126
-154.976
-178.711
-200.283
-219.677
-236.908
-252.015
-265.051
-276.093
-285.222
-292.523
-298.088
-302.012
-304.372
-305.227
-304.642
-302.704
-299.418
-294.811
-288.892
-281.652
-273.075
-263.131
-251.788
-239.004
-224.742
-208.961
-191.627
-172.717
-152.214
-130.122
-106.459
-81.2633
-54.5993
-26.5532
2.75231
33.1786
64.6705
96.7193
129.185
161.771
194.136
225.902
256.666
286.003
313.477
338.649
361.096
380.412
396.237
408.26
416.222
419.908
419.212
414.147
404.784
391.197
373.646
352.42
327.867
300.392
270.44
238.485
205.018
170.532
135.509
100.406
65.6422
31.6021
-1.39181
-33.0587
-63.1759
-91.5788
-118.159
-142.855
-165.649
-186.552
-205.607
-222.871
-238.409
-252.293
-264.593
-275.378
-284.709
-292.63
-299.184
-304.4
-308.299
-310.896
-312.17
-312.104
-310.737
-308.018
-303.929
-298.44
-291.517
-283.125
-273.224
-261.771
-248.728
-234.057
-217.722
-199.703
-179.987
-158.572
-135.482
-110.757
-84.4707
-56.7213
-27.6418
2.59972
33.8057
65.7571
98.0992
130.556
162.787
194.423
225.074
254.337
281.807
307.085
329.782
349.541
366.037
378.986
388.153
393.38
394.483
391.568
384.601
373.657
358.946
340.689
319.178
294.765
267.826
238.761
207.997
175.964
143.072
109.727
76.3321
43.4895
11.008
-20.6249
-51.1409
-80.3137
-107.971
-133.998
-158.326
-180.92
-201.757
-220.827
-238.131
-253.668
-267.47
-279.55
-289.951
-298.703
-305.828
-311.346
-315.315
-317.753
-318.555
-318.064
-316.183
-312.864
-308.068
-301.742
-293.764
-284.059
-272.6
-259.294
-244.109
-227.026
-208.02
-187.094
-164.259
-139.531
-112.968
-84.6658
-54.7318
-23.3394
9.31578
42.9919
77.34
112.029
146.714
180.977
214.415
246.575
277.017
305.34
331.125
353.983
373.589
389.643
401.893
410.143
414.263
414.136
409.852
401.469
389.048
372.818
353.025
330
304.091
275.692
245.202
213.033
179.632
145.41
110.75
76.0386
41.6352
10.9507
-21.4596
-52.5378
-82.04
-109.88
-135.939
-285.647
-283.058
-279.281
-274.294
-268.06
-260.5
-251.555
-241.154
-229.228
-215.729
-200.58
-183.724
-165.115
-144.733
-122.565
-98.6416
-72.9966
-45.6866
-16.8163
13.5383
45.0935
77.5928
110.817
144.513
178.344
211.967
244.981
276.978
307.583
336.389
362.998
387.078
408.303
426.381
441.066
452.149
459.493
463
462.61
458.399
450.424
438.761
423.633
405.25
383.902
359.878
333.499
305.137
275.155
243.905
211.772
179.109
146.247
113.514
81.2012
49.5777
19.004
-10.4632
-38.8322
-65.9192
-91.5923
-115.771
-138.393
-159.427
-178.86
-196.69
-212.929
-227.595
-240.71
-252.292
-262.35
-270.9
-277.946
-283.473
-287.48
-289.954
-290.853
-290.151
-287.825
-283.837
-278.147
-270.721
-261.533
-250.563
-237.807
-223.256
-206.919
-188.808
-168.944
-147.355
-124.077
-99.1602
-72.6695
-44.684
-15.3129
15.3173
47.0099
79.5214
112.614
146.004
179.377
212.397
244.703
275.93
305.704
333.659
359.439
382.704
403.143
420.466
434.416
444.774
451.362
453.984
452.644
447.284
437.944
424.677
407.652
387.081
363.23
336.413
306.987
275.348
241.909
207.104
171.366
135.125
98.7939
62.7666
27.4148
-6.94513
-40.0184
-71.5548
-101.347
-129.23
-155.081
-178.816
-200.387
-219.778
-237.007
-252.11
-265.142
-276.18
-285.305
-292.602
-298.164
-302.084
-304.441
-305.292
-304.708
-302.767
-299.481
-294.874
-288.955
-281.717
-273.141
-263.199
-251.858
-239.077
-224.817
-209.037
-191.706
-172.798
-152.296
-130.204
-106.541
-81.3445
-54.6781
-26.6291
2.68054
33.1125
64.6137
96.6713
129.148
161.747
194.128
225.911
256.693
286.049
313.542
338.734
361.2
380.533
396.373
408.409
416.38
420.077
419.374
414.306
404.937
391.339
373.774
352.53
327.957
300.461
270.488
238.512
205.024
170.518
135.478
100.358
65.5813
31.5299
-1.47275
-33.146
-63.2675
-91.6726
-118.253
-142.948
-165.739
-186.64
-205.692
-222.952
-238.485
-252.366
-264.663
-275.445
-284.773
-292.692
-299.245
-304.461
-308.359
-310.956
-312.229
-312.165
-310.798
-308.08
-303.992
-298.505
-291.584
-283.194
-273.295
-261.844
-248.804
-234.135
-217.801
-199.784
-180.069
-158.656
-135.565
-110.839
-84.5504
-56.7974
-27.7128
2.53534
33.7498
65.7111
98.0652
130.536
162.781
194.434
225.101
254.382
281.87
307.166
329.881
349.655
366.165
379.125
388.301
393.532
394.642
391.718
384.747
373.795
359.072
340.801
319.274
294.843
267.886
238.803
208.022
175.971
143.064
109.705
76.2965
43.445
10.9537
-20.687
-51.2095
-80.3877
-108.049
-134.078
-158.406
-181
-201.837
-220.905
-238.207
-253.742
-267.542
-279.62
-290.019
-298.769
-305.893
-311.412
-315.382
-317.818
-318.616
-318.128
-316.248
-312.93
-308.137
-301.812
-293.836
-284.133
-272.676
-259.373
-244.19
-227.108
-208.104
-187.179
-164.344
-139.617
-113.053
-84.7479
-54.8099
-23.4116
9.25127
42.9388
77.2987
112.002
146.701
180.981
214.437
246.617
277.078
305.42
331.223
354.098
373.72
389.787
402.047
410.305
414.436
414.299
410.011
401.622
389.192
372.949
353.139
330.097
304.17
275.752
245.242
213.055
179.636
145.399
110.725
76.003
41.5967
10.8718
-21.5385
-52.6204
-82.1262
-109.969
-136.029
-285.741
-283.153
-279.379
-274.395
-268.166
-260.612
-251.674
-241.278
-229.36
-215.866
-200.724
-183.873
-165.269
-144.891
-122.725
-98.802
-73.1546
-45.841
-16.9641
13.4017
44.9702
77.4863
110.731
144.45
178.309
211.962
245.009
277.04
307.681
336.522
363.164
387.276
408.53
426.634
441.339
452.438
459.792
463.316
462.908
458.687
450.702
439.022
423.871
405.462
384.084
360.029
333.616
305.221
275.207
243.926
211.764
179.074
146.188
113.433
81.1017
49.464
18.884
-10.5929
-38.9687
-66.0605
-91.7362
-115.916
-138.537
-159.569
-179
-196.826
-213.062
-227.724
-240.836
-252.415
-262.471
-271.021
-278.066
-283.594
-287.603
-290.08
-290.974
-290.28
-287.957
-283.971
-278.284
-270.862
-261.676
-250.71
-237.955
-223.405
-207.07
-188.96
-169.097
-147.508
-124.229
-99.3113
-72.8175
-44.8265
-15.4476
15.1928
46.8999
79.4292
112.542
145.956
179.356
212.404
244.742
276.001
305.807
333.794
359.607
382.903
403.369
420.718
434.69
445.065
451.666
454.31
452.949
447.59
438.24
424.956
407.909
387.31
363.427
336.574
307.111
275.434
241.957
207.115
171.343
135.069
98.7091
62.6562
27.282
-7.09629
-40.1843
-71.7321
-101.532
-129.42
-155.273
-179.007
-200.575
-219.963
-237.185
-252.281
-265.306
-276.336
-285.452
-292.741
-298.296
-302.209
-304.56
-305.402
-304.818
-302.873
-299.586
-294.98
-289.061
-281.825
-273.252
-263.315
-251.978
-239.201
-224.945
-209.17
-191.843
-172.938
-152.439
-130.349
-106.685
-81.4869
-54.8161
-26.7614
2.55619
32.9987
64.5189
96.5935
129.093
161.718
194.128
225.945
256.762
286.157
313.689
338.92
361.423
380.791
396.662
408.722
416.711
420.429
419.713
414.64
405.255
391.636
374.042
352.763
328.151
300.613
270.597
238.578
205.048
170.504
135.428
100.277
65.4734
31.3996
-1.62052
-33.3064
-63.4362
-91.8456
-118.427
-143.119
-165.906
-186.8
-205.845
-223.097
-238.624
-252.497
-264.787
-275.564
-284.887
-292.802
-299.352
-304.567
-308.464
-311.061
-312.33
-312.271
-310.905
-308.189
-304.104
-298.619
-291.702
-283.317
-273.422
-261.975
-248.94
-234.275
-217.946
-199.932
-180.219
-158.808
-135.717
-110.988
-84.6954
-56.9353
-27.8407
2.42038
33.6515
65.6325
98.0104
130.508
162.783
194.467
225.169
254.486
282.01
307.341
330.09
349.896
366.433
379.415
388.608
393.847
394.972
392.03
385.05
374.081
359.334
341.034
319.474
295.008
268.014
238.894
208.077
175.992
143.054
109.665
76.2301
43.3598
10.8487
-20.8079
-51.3435
-80.5326
-108.201
-134.235
-158.565
-181.159
-201.994
-221.06
-238.358
-253.889
-267.684
-279.758
-290.153
-298.9
-306.022
-311.542
-315.516
-317.945
-318.741
-318.253
-316.377
-313.062
-308.272
-301.951
-293.98
-284.281
-272.828
-259.529
-244.349
-227.271
-208.271
-187.349
-164.515
-139.787
-113.221
-84.9115
-54.9654
-23.5555
9.12279
42.8332
77.2165
111.947
146.677
180.991
214.483
246.701
277.201
305.581
331.421
354.33
373.982
390.075
402.356
410.627
414.772
414.633
410.332
401.929
389.48
373.21
353.368
330.291
304.327
275.87
245.323
213.098
179.645
145.375
110.674
75.9316
41.518
10.7154
-21.6959
-52.7856
-82.2987
-110.147
-136.209
-285.882
-283.296
-279.526
-274.548
-268.326
-260.78
-251.851
-241.465
-229.557
-216.073
-200.94
-184.098
-165.501
-145.128
-122.966
-99.0427
-73.392
-46.0728
-17.1859
13.1961
44.7852
77.3265
110.601
144.356
178.255
211.954
245.051
277.134
307.827
336.721
363.414
387.574
408.871
427.012
441.749
452.872
460.24
463.776
463.364
459.124
451.119
439.414
424.229
405.779
384.357
360.254
333.792
305.347
275.285
243.957
211.751
179.021
146.099
113.311
80.9523
49.2933
18.7037
-10.7875
-39.1736
-66.2726
-91.9523
-116.133
-138.753
-159.783
-179.209
-197.031
-213.261
-227.918
-241.026
-252.601
-262.654
-271.202
-278.247
-283.776
-287.788
-290.269
-291.159
-290.474
-288.155
-284.173
-278.49
-271.073
-261.892
-250.929
-238.177
-223.63
-207.297
-189.189
-169.325
-147.737
-124.457
-99.5371
-73.0386
-45.0392
-15.6486
15.0073
46.7362
79.2922
112.436
145.885
179.325
212.417
244.801
276.108
305.964
334
359.86
383.202
403.711
421.098
435.103
445.505
452.123
454.794
453.416
448.054
438.687
425.378
408.296
387.655
363.724
336.818
307.3
275.565
242.032
207.135
171.31
134.988
98.5843
62.4929
27.085
-7.32077
-40.4311
-71.9957
-101.808
-129.703
-155.558
-179.292
-200.856
-220.237
-237.45
-252.535
-265.549
-276.567
-285.671
-292.948
-298.492
-302.394
-304.735
-305.568
-304.981
-303.032
-299.742
-295.136
-289.219
-281.986
-273.418
-263.486
-252.155
-239.385
-225.136
-209.368
-192.047
-173.147
-152.652
-130.563
-106.9
-81.6991
-55.0219
-26.9584
2.37119
32.829
64.3783
96.4782
129.011
161.675
194.131
225.997
256.869
286.32
313.911
339.201
361.76
381.18
397.096
409.193
417.208
420.946
420.233
415.145
405.736
392.085
374.446
353.114
328.444
300.844
270.763
238.68
205.088
170.485
135.355
100.157
65.3133
31.206
-1.84038
-33.5454
-63.6875
-92.1033
-118.685
-143.374
-166.153
-187.039
-206.073
-223.314
-238.829
-252.692
-264.972
-275.741
-285.056
-292.966
-299.511
-304.723
-308.619
-311.216
-312.482
-312.429
-311.064
-308.351
-304.27
-298.79
-291.878
-283.499
-273.611
-262.171
-249.142
-234.484
-218.161
-200.153
-180.444
-159.034
-135.943
-111.211
-84.912
-57.1411
-28.0315
2.24893
33.505
65.516
97.9294
130.466
162.787
194.52
225.273
254.643
282.221
307.605
330.405
350.258
366.837
379.852
389.07
394.321
395.464
392.502
385.506
374.512
359.729
341.386
319.777
295.256
268.207
239.032
208.159
176.024
143.038
109.606
76.1316
43.231
10.6909
-20.9894
-51.5447
-80.7501
-108.43
-134.47
-158.804
-181.397
-202.229
-221.291
-238.584
-254.109
-267.898
-279.965
-290.354
-299.096
-306.215
-311.737
-315.713
-318.134
-318.929
-318.443
-316.57
-313.26
-308.475
-302.159
-294.195
-284.502
-273.056
-259.763
-244.589
-227.517
-208.522
-187.603
-164.772
-140.043
-113.474
-85.1571
-55.1989
-23.7716
8.92973
42.6746
77.0931
111.864
146.64
181.005
214.552
246.827
277.385
305.822
331.718
354.678
374.375
390.507
402.819
411.111
415.266
415.139
410.815
402.39
389.911
373.601
353.712
330.583
304.562
276.049
245.443
213.163
179.658
145.339
110.598
75.8237
41.3974
10.4828
-21.9318
-53.0333
-82.5575
-110.413
-136.48
-286.069
-283.487
-279.722
-274.752
-268.539
-261.003
-252.087
-241.714
-229.82
-216.348
-201.228
-184.397
-165.81
-145.444
-123.286
-99.3638
-73.7089
-46.3822
-17.482
12.9213
44.5383
77.1132
110.428
144.229
178.183
211.943
245.106
277.258
308.023
336.986
363.747
387.97
409.326
427.518
442.297
453.451
460.837
464.378
463.978
459.712
451.677
439.937
424.706
406.203
384.72
360.555
334.027
305.516
275.388
243.998
211.734
178.95
145.98
113.149
80.7526
49.0654
18.4631
-11.0473
-39.4471
-66.5556
-92.2406
-116.423
-139.041
-160.067
-179.488
-197.303
-213.527
-228.177
-241.278
-252.848
-262.898
-271.444
-278.488
-284.018
-288.033
-290.518
-291.408
-290.732
-288.419
-284.443
-278.766
-271.356
-262.179
-251.222
-238.474
-223.929
-207.599
-189.493
-169.631
-148.042
-124.762
-99.8384
-73.3335
-45.3233
-15.9169
14.7595
46.5181
79.1096
112.295
145.791
179.284
212.434
244.88
276.252
306.173
334.274
360.198
383.602
404.167
421.605
435.655
446.092
452.734
455.426
454.049
448.677
439.284
425.942
408.814
388.117
364.121
337.145
307.552
275.741
242.132
207.162
171.267
134.88
98.4181
62.2751
26.8226
-7.61999
-40.76
-72.3472
-102.175
-130.08
-155.939
-179.671
-201.23
-220.602
-237.804
-252.874
-265.873
-276.875
-285.962
-293.223
-298.752
-302.64
-304.966
-305.792
-305.199
-303.243
-299.95
-295.343
-289.429
-282.2
-273.638
-263.714
-252.392
-239.631
-225.392
-209.632
-192.319
-173.426
-152.936
-130.85
-107.187
-81.9819
-55.2965
-27.2211
2.12458
32.6012
64.1918
96.3243
128.901
161.618
194.134
226.067
257.011
286.538
314.208
339.575
362.21
381.699
397.677
409.823
417.873
421.629
420.932
415.824
406.38
392.684
374.986
353.584
328.835
301.151
270.985
238.815
205.14
170.459
135.258
99.9968
65.0998
30.9477
-2.13367
-33.8641
-64.0227
-92.4469
-119.03
-143.714
-166.484
-187.357
-206.377
-223.603
-239.103
-252.951
-265.219
-275.975
-285.281
-293.183
-299.724
-304.932
-308.826
-311.42
-312.687
-312.639
-311.275
-308.567
-304.491
-299.017
-292.113
-283.742
-273.862
-262.431
-249.412
-234.763
-218.449
-200.447
-180.743
-159.337
-136.245
-111.509
-85.2008
-57.4154
-28.2862
2.02012
33.309
65.361
97.8213
130.412
162.791
194.589
225.411
254.852
282.503
307.958
330.826
350.742
367.376
380.436
389.687
394.956
396.114
393.138
386.117
375.088
360.255
341.855
320.18
295.587
268.464
239.215
208.27
176.066
143.016
109.527
76.0013
43.0576
10.4797
-21.2322
-51.8134
-81.0402
-108.735
-134.784
-159.122
-181.715
-202.544
-221.601
-238.886
-254.403
-268.183
-280.241
-290.623
-299.358
-306.472
-311.996
-315.972
-318.385
-319.184
-318.698
-316.828
-313.523
-308.745
-302.438
-294.482
-284.798
-273.361
-260.075
-244.91
-227.845
-208.856
-187.942
-165.114
-140.385
-113.811
-85.4849
-55.5107
-24.0603
8.67204
42.4624
76.928
111.753
146.591
181.024
214.643
246.995
277.63
306.143
332.113
355.141
374.9
391.084
403.437
411.757
415.922
415.809
411.465
403.007
390.487
374.124
354.17
330.971
304.876
276.286
245.604
213.249
179.674
145.291
110.495
75.6785
41.2323
10.1758
-22.2456
-53.3636
-82.9028
-110.769
-136.842
-286.303
-283.725
-279.968
-275.007
-268.805
-261.282
-252.382
-242.024
-230.149
-216.693
-201.587
-184.771
-166.197
-145.84
-123.687
-99.7654
-74.1056
-46.7695
-17.8529
12.5767
44.2295
76.8462
110.21
144.071
178.092
211.929
245.175
277.414
308.266
337.318
364.163
388.466
409.894
428.15
442.982
454.175
461.585
465.133
464.739
460.451
452.376
440.591
425.303
406.732
385.175
360.93
334.32
305.726
275.517
244.05
211.712
178.861
145.83
112.945
80.5025
48.7802
18.1617
-11.3723
-39.7894
-66.9098
-92.6014
-116.786
-139.402
-160.423
-179.837
-197.644
-213.859
-228.501
-241.594
-253.157
-263.202
-271.746
-278.789
-284.321
-288.34
-290.828
-291.724
-291.055
-288.749
-284.78
-279.111
-271.708
-262.539
-251.588
-238.845
-224.304
-207.977
-189.874
-170.013
-148.425
-125.142
-100.215
-73.7026
-45.6791
-16.2531
14.4489
46.2453
78.8808
112.117
145.673
179.232
212.455
244.978
276.43
306.434
334.617
360.621
384.101
404.738
422.24
436.345
446.827
453.499
456.21
454.846
449.458
440.033
426.647
409.462
388.695
364.618
337.553
307.867
275.96
242.257
207.194
171.212
134.745
98.2095
62.002
26.494
-7.99471
-41.1719
-72.7873
-102.635
-130.552
-156.416
-180.147
-201.699
-221.059
-238.246
-253.298
-266.278
-277.26
-286.326
-293.567
-299.078
-302.947
-305.256
-306.072
-305.47
-303.506
-300.21
-295.602
-289.691
-282.468
-273.913
-263.999
-252.688
-239.939
-225.711
-209.962
-192.66
-173.774
-153.292
-131.209
-107.545
-82.3358
-55.6406
-27.5502
1.81599
32.314
63.9594
96.131
128.763
161.546
194.137
226.153
257.188
286.81
314.578
340.044
362.772
382.349
398.403
410.612
418.706
422.484
421.8
416.676
407.187
393.434
375.662
354.171
329.324
301.536
271.261
238.984
205.205
170.426
135.136
99.7957
64.832
30.624
-2.50111
-34.2633
-64.4425
-92.877
-119.461
-144.139
-166.897
-187.755
-206.757
-223.964
-239.446
-253.275
-265.527
-276.269
-285.561
-293.455
-299.989
-305.193
-309.084
-311.675
-312.944
-312.901
-311.54
-308.837
-304.767
-299.301
-292.406
-284.046
-274.177
-262.757
-249.75
-235.112
-218.808
-200.815
-181.117
-159.715
-136.623
-111.881
-85.5625
-57.7589
-28.6053
1.73336
33.0628
65.1671
97.6856
130.343
162.797
194.676
225.584
255.114
282.855
308.399
331.353
351.348
368.05
381.166
390.459
395.752
396.921
393.936
386.882
375.808
360.915
342.442
320.684
296.001
268.785
239.442
208.407
176.118
142.989
109.428
75.8393
42.8389
10.2147
-21.5364
-52.15
-81.4031
-109.117
-135.178
-159.52
-182.113
-202.937
-221.987
-239.264
-254.77
-268.539
-280.587
-290.958
-299.685
-306.794
-312.317
-316.292
-318.702
-319.504
-319.017
-317.151
-313.853
-309.082
-302.785
-294.841
-285.167
-273.741
-260.465
-245.31
-228.254
-209.274
-188.366
-165.541
-140.812
-114.233
-85.8951
-55.9009
-24.4219
8.34956
42.196
76.7209
111.614
146.529
181.046
214.757
247.204
277.936
306.545
332.607
355.721
375.556
391.806
404.21
412.565
416.746
416.64
412.28
403.779
391.207
374.777
354.744
331.456
305.268
276.583
245.804
213.356
179.694
145.23
110.365
75.4949
41.0201
9.79645
-22.6371
-53.7766
-83.3348
-111.214
-137.294
-286.584
-284.011
-280.262
-275.312
-269.124
-261.617
-252.736
-242.397
-230.543
-217.106
-202.019
-185.22
-166.662
-146.316
-124.169
-100.248
-74.5824
-47.235
-18.2987
12.1619
43.8583
76.5252
109.949
143.879
177.982
211.911
245.257
277.6
308.558
337.715
364.662
389.061
410.577
428.909
443.804
455.045
462.484
466.041
465.651
461.338
453.217
441.377
426.02
407.368
385.721
361.381
334.671
305.978
275.671
244.11
211.684
178.753
145.65
112.7
80.2015
48.4373
17.799
-11.7628
-40.2009
-67.3353
-93.0349
-117.221
-139.835
-160.851
-180.256
-198.053
-214.258
-228.889
-241.974
-253.528
-263.567
-272.109
-279.15
-284.684
-288.707
-291.199
-292.104
-291.443
-289.145
-285.184
-279.525
-272.132
-262.97
-252.028
-239.291
-224.754
-208.432
-190.33
-170.472
-148.884
-125.6
-100.668
-74.1459
-46.1069
-16.6578
14.0747
45.9175
78.6053
111.903
145.53
179.169
212.479
245.096
276.645
306.747
335.029
361.129
384.701
405.423
423.002
437.174
447.709
454.419
457.152
455.802
450.395
440.934
427.495
410.241
389.389
365.214
338.043
308.245
276.223
242.406
207.233
171.146
134.581
97.9581
61.6731
26.0988
-8.44552
-41.6672
-73.3163
-103.188
-131.118
-156.989
-180.717
-202.261
-221.608
-238.777
-253.808
-266.764
-277.722
-286.763
-293.98
-299.468
-303.315
-305.605
-306.408
-305.794
-303.822
-300.522
-295.914
-290.005
-282.789
-274.244
-264.341
-253.043
-240.308
-226.094
-210.358
-193.069
-174.194
-153.718
-131.639
-107.976
-82.7612
-56.0543
-27.9459
1.44535
31.9673
63.6806
95.8975
128.597
161.459
194.139
226.256
257.399
287.137
315.023
340.606
363.447
383.129
399.275
411.559
419.707
423.514
422.842
417.698
408.157
394.335
376.473
354.876
329.911
301.997
271.593
239.186
205.282
170.386
134.988
99.553
64.5091
30.2342
-2.94327
-34.7438
-64.9474
-93.3941
-119.98
-144.65
-167.394
-188.233
-207.214
-224.398
-239.857
-253.665
-265.897
-276.622
-285.899
-293.781
-300.306
-305.505
-309.394
-311.981
-313.253
-313.215
-311.857
-309.16
-305.099
-299.642
-292.759
-284.41
-274.554
-263.149
-250.155
-235.53
-219.239
-201.257
-181.567
-160.169
-137.077
-112.329
-85.9971
-58.1722
-28.9892
1.38809
32.7658
64.9343
97.5218
130.259
162.802
194.778
225.79
255.427
283.277
308.928
331.985
352.074
368.86
382.044
391.388
396.709
397.889
394.896
387.802
376.674
361.707
343.146
321.289
296.498
269.17
239.715
208.572
176.179
142.955
109.308
75.6449
42.5747
9.89543
-21.9025
-52.5547
-81.839
-109.576
-135.65
-159.998
-182.59
-203.41
-222.452
-239.718
-255.211
-268.967
-281.001
-291.361
-300.077
-307.179
-312.701
-316.673
-319.082
-319.889
-319.402
-317.538
-314.248
-309.487
-303.203
-295.271
-285.611
-274.198
-260.933
-245.79
-228.746
-209.775
-188.875
-166.055
-141.325
-114.74
-86.388
-56.37
-24.8568
7.96171
41.8749
76.4711
111.445
146.453
181.072
214.892
247.455
278.303
307.027
333.201
356.417
376.344
392.673
405.139
413.537
417.739
417.635
413.259
404.707
392.073
375.561
355.432
332.038
305.738
276.938
246.044
213.484
179.717
145.156
110.207
75.2718
40.7579
9.3466
-23.1059
-54.2725
-83.8538
-111.749
-137.837
-286.912
-284.345
-280.604
-275.668
-269.497
-262.008
-253.149
-242.832
-231.002
-217.588
-202.523
-185.745
-167.204
-146.871
-124.732
-100.812
-75.1397
-47.779
-18.8199
11.6764
43.4242
76.1496
109.642
143.655
177.853
211.889
245.351
277.816
308.899
338.179
365.245
389.756
411.374
429.796
444.765
456.062
463.535
467.103
466.713
462.372
454.199
442.295
426.857
408.11
386.357
361.906
335.081
306.271
275.85
244.18
211.652
178.627
145.439
112.413
79.8491
48.0364
17.3744
-12.219
-40.6816
-67.8326
-93.5413
-117.73
-140.341
-161.35
-180.745
-198.53
-214.723
-229.342
-242.416
-253.961
-263.993
-272.531
-279.571
-285.107
-289.134
-291.632
-292.55
-291.894
-289.608
-285.657
-280.008
-272.626
-263.474
-252.541
-239.811
-225.279
-208.962
-190.863
-171.007
-149.42
-126.134
-101.197
-74.6636
-46.607
-17.1312
13.6367
45.5342
78.2826
111.652
145.362
179.095
212.507
245.232
276.894
307.112
335.509
361.721
385.401
406.223
423.892
438.142
448.74
455.495
458.254
456.915
451.489
441.986
428.486
411.15
390.199
365.911
338.615
308.685
276.529
242.579
207.277
171.067
134.389
97.6633
61.2878
25.636
-8.97307
-42.2466
-73.935
-103.834
-131.781
-157.658
-181.384
-202.918
-222.249
-239.397
-254.403
-267.332
-278.262
-287.273
-294.463
-299.923
-303.745
-306.013
-306.798
-306.172
-304.191
-300.885
-296.277
-290.372
-283.164
-274.629
-264.741
-253.458
-240.739
-226.541
-210.822
-193.546
-174.683
-154.217
-132.143
-108.48
-83.2581
-56.5382
-28.4088
1.01273
31.5621
63.3532
95.6228
128.401
161.355
194.141
226.374
257.644
287.516
315.541
341.262
364.235
384.04
400.294
412.665
420.876
424.719
424.058
418.891
409.291
395.388
377.421
355.699
330.596
302.534
271.979
239.421
205.37
170.337
134.813
99.2682
64.1306
29.7775
-3.46087
-35.3061
-65.538
-93.9987
-120.586
-145.247
-167.974
-188.791
-207.747
-224.904
-240.336
-254.119
-266.328
-277.032
-286.292
-294.161
-300.677
-305.869
-309.755
-312.34
-313.615
-313.58
-312.228
-309.538
-305.486
-300.04
-293.17
-284.836
-274.995
-263.606
-250.628
-236.019
-219.743
-201.774
-182.093
-160.7
-137.607
-112.853
-86.5052
-58.6558
-29.4385
0.983628
32.4172
64.6623
97.3294
130.16
162.807
194.897
226.03
255.792
283.769
309.546
332.722
352.923
369.805
383.07
392.472
397.828
399.02
396.015
388.877
377.685
362.633
343.969
321.995
297.078
269.618
240.032
208.763
176.249
142.914
109.168
75.4174
42.2647
9.52157
-22.3309
-53.0279
-82.3483
-110.112
-136.202
-160.556
-183.147
-203.961
-222.994
-240.248
-255.727
-269.467
-281.485
-291.831
-300.535
-307.628
-313.147
-317.117
-319.526
-320.34
-319.85
-317.991
-314.71
-309.959
-303.69
-295.772
-286.129
-274.73
-261.48
-246.35
-229.32
-210.361
-189.47
-166.655
-141.925
-115.333
-86.9639
-56.9185
-25.3658
7.50769
41.4988
76.1783
111.248
146.363
181.101
215.05
247.747
278.731
307.59
333.893
357.23
377.264
393.686
406.224
414.672
418.899
418.798
414.399
405.793
393.084
376.477
356.236
332.718
306.287
277.352
246.322
213.632
179.742
145.068
110.021
75.0077
40.4428
8.82813
-23.6517
-54.8513
-84.4601
-112.374
-138.472
-287.286
-284.725
-280.995
-276.074
-269.922
-262.454
-253.621
-243.329
-231.526
-218.138
-203.099
-186.345
-167.824
-147.507
-125.377
-101.456
-75.778
-48.402
-19.4167
11.1194
42.9266
75.719
109.29
143.396
177.703
211.862
245.458
278.062
309.287
338.709
365.911
390.55
412.286
430.81
445.865
457.225
464.737
468.321
467.926
463.555
455.324
443.346
427.814
408.959
387.086
362.507
335.549
306.605
276.054
244.259
211.613
178.481
145.196
112.083
79.4447
47.5769
16.8875
-12.741
-41.2319
-68.402
-94.1209
-118.312
-140.92
-161.92
-181.304
-199.075
-215.255
-229.86
-242.922
-254.456
-264.479
-273.013
-280.051
-285.59
-289.622
-292.126
-293.06
-292.41
-290.136
-286.197
-280.561
-273.191
-264.05
-253.129
-240.405
-225.88
-209.568
-191.473
-171.62
-150.033
-126.745
-101.803
-75.2562
-47.1798
-17.674
13.1343
45.0949
77.9121
111.363
145.168
179.008
212.537
245.387
277.178
307.529
336.057
362.398
386.2
407.138
424.91
439.249
449.92
456.727
459.516
458.189
452.741
443.19
429.62
412.191
391.126
366.707
339.269
309.188
276.878
242.775
207.325
170.976
134.167
97.3246
60.8456
25.105
-9.57799
-42.9105
-74.6438
-104.574
-132.54
-158.424
-182.148
-203.671
-222.982
-240.106
-255.084
-267.982
-278.879
-287.857
-295.014
-300.444
-304.237
-306.479
-307.244
-306.604
-304.612
-301.301
-296.692
-290.792
-283.592
-275.07
-265.197
-253.932
-241.232
-227.053
-211.352
-194.093
-175.244
-154.787
-132.719
-109.056
-83.827
-57.0925
-28.9391
0.518195
31.1259
62.9484
95.3057
128.175
161.235
194.141
226.508
257.922
287.949
316.132
342.011
365.137
385.081
401.46
413.932
422.216
426.101
425.45
420.255
410.59
396.593
378.505
356.641
331.379
303.149
272.419
239.687
205.469
170.278
134.611
98.9402
63.6956
29.253
-4.05473
-35.9509
-66.2152
-94.6914
-121.28
-145.931
-168.638
-189.429
-208.356
-225.483
-240.884
-254.638
-266.821
-277.502
-286.742
-294.596
-301.1
-306.286
-310.168
-312.75
-314.027
-313.998
-312.651
-309.97
-305.928
-300.494
-293.64
-285.322
-275.498
-264.128
-251.169
-236.578
-220.319
-202.364
-182.695
-161.307
-138.214
-113.452
-87.087
-59.21
-29.9535
0.519657
32.0161
64.3507
97.1078
130.045
162.812
195.032
226.303
256.209
284.331
310.251
333.566
353.894
370.888
384.243
393.714
399.11
400.315
397.295
390.108
378.843
363.692
344.91
322.802
297.74
270.13
240.394
208.98
176.328
142.865
109.006
75.156
41.9085
9.0926
-22.822
-53.5702
-82.9314
-110.725
-136.833
-161.195
-183.785
-204.592
-223.615
-240.853
-256.315
-270.037
-282.038
-292.367
-301.057
-308.14
-313.655
-317.622
-320.033
-320.856
-320.363
-318.507
-315.236
-310.499
-304.246
-296.345
-286.722
-275.339
-262.104
-246.991
-229.976
-211.031
-190.15
-167.342
-142.612
-116.012
-87.6233
-57.547
-25.9493
6.98665
41.0672
75.8416
111.02
146.259
181.133
215.228
248.079
279.22
308.232
334.685
358.16
378.317
394.844
407.466
415.971
420.228
420.128
415.703
407.035
394.241
377.525
357.155
333.495
306.913
277.824
246.639
213.799
179.769
144.966
109.806
74.7009
40.0723
8.24261
-24.2742
-55.5133
-85.1541
-113.09
-139.199
-287.707
-285.153
-281.435
-276.531
-270.399
-262.956
-254.151
-243.889
-232.115
-218.757
-203.748
-187.021
-168.522
-148.223
-126.102
-102.183
-76.4975
-49.1043
-20.0895
10.49
42.3651
75.2326
108.891
143.103
177.532
211.83
245.577
278.338
309.724
339.305
366.661
391.444
413.312
431.953
447.103
458.535
466.093
469.693
469.292
464.886
456.592
444.53
428.893
409.914
387.905
363.183
336.074
306.98
276.282
244.346
211.568
178.314
144.921
111.71
78.9873
47.0579
16.338
-13.3291
-41.8523
-69.0438
-94.774
-118.968
-141.572
-162.563
-181.933
-199.689
-215.853
-230.443
-243.491
-255.012
-265.027
-273.555
-280.592
-286.134
-290.171
-292.683
-293.63
-292.99
-290.73
-286.804
-281.184
-273.828
-264.699
-253.789
-241.074
-226.557
-210.25
-192.159
-172.31
-150.722
-127.434
-102.484
-75.9242
-47.8258
-18.2868
12.567
44.5992
77.4932
111.036
144.949
178.909
212.57
245.56
277.497
307.997
336.674
363.159
387.101
408.167
426.056
440.496
451.249
458.115
460.94
459.623
454.151
444.548
430.898
413.363
392.17
367.604
340.004
309.754
277.27
242.995
207.378
170.87
133.916
96.941
60.3455
24.5049
-10.2611
-43.6598
-75.4435
-105.409
-133.396
-159.288
-183.009
-204.518
-223.809
-240.905
-255.851
-268.712
-279.573
-288.513
-295.633
-301.029
-304.789
-307.003
-307.747
-307.089
-305.085
-301.768
-297.158
-291.263
-284.073
-275.565
-265.711
-254.465
-241.786
-227.629
-211.948
-194.707
-175.875
-155.43
-133.368
-109.706
-84.4685
-57.7178
-29.5374
-0.0394765
30.634
62.4897
94.9461
127.919
161.097
194.139
226.656
258.234
288.435
316.797
342.854
366.151
386.255
402.773
415.36
423.727
427.659
427.019
421.793
412.054
397.951
379.727
357.702
332.261
303.839
272.913
239.986
205.579
170.21
134.381
98.5679
63.2033
28.6599
-4.72591
-36.6789
-66.9796
-95.4729
-122.063
-146.702
-169.386
-190.148
-209.042
-226.134
-241.501
-255.222
-267.375
-278.029
-287.248
-295.084
-301.576
-306.753
-310.632
-313.212
-314.492
-314.467
-313.126
-310.456
-306.425
-301.006
-294.169
-285.869
-276.065
-264.717
-251.778
-237.207
-220.968
-203.029
-183.372
-161.992
-138.899
-114.128
-87.7432
-59.8355
-30.535
-0.0041694
31.5621
63.9983
96.8561
129.914
162.815
195.182
226.608
256.677
284.963
311.046
334.515