/*--------------------------------*- C++ -*----------------------------------*\
| =========                 |                                                 |
| \\      /  F ield         | OpenFOAM: The Open Source CFD Toolbox           |
|  \\    /   O peration     | Version:  3.0.1                                 |
|   \\  /    A nd           | Web:      www.OpenFOAM.org                      |
|    \\/     M anipulation  |                                                 |
\*---------------------------------------------------------------------------*/
FoamFile
{
    version     2.0;
    format      ascii;
    class       surfaceScalarField;
    location    "37.6";
    object      phi;
}
// * * * * * * * * * * * * * * * * * * * * * * * * * * * * * * * * * * * * * //

dimensions      [0 3 -1 0 0 0 0];

internalField   nonuniform List<scalar> 
42423
(
-0.000146945
-8.44198e-07
-0.000145508
-1.43707e-06
-0.000143508
-2.00032e-06
-0.000140927
-2.5812e-06
-0.000137668
-3.25873e-06
-0.000133754
-3.91381e-06
-0.000129087
-4.66702e-06
-0.000123646
-5.4415e-06
-0.000117669
-5.97719e-06
-0.000110676
-6.99307e-06
-0.000102946
-7.72989e-06
-9.4402e-05
-8.5438e-06
-8.47335e-05
-9.66852e-06
-7.42464e-05
-1.04872e-05
-6.26421e-05
-1.16043e-05
-5.01054e-05
-1.25367e-05
-3.68146e-05
-1.32909e-05
-2.25178e-05
-1.42969e-05
-7.28193e-06
-1.52359e-05
8.55023e-06
-1.58322e-05
2.52573e-05
-1.67072e-05
4.26661e-05
-1.74088e-05
6.04418e-05
-1.77758e-05
7.86064e-05
-1.81647e-05
9.69179e-05
-1.83116e-05
0.000115233
-1.83155e-05
0.000133366
-1.81323e-05
0.000150942
-1.75766e-05
0.000167763
-1.68205e-05
0.000183638
-1.5876e-05
0.000198256
-1.46175e-05
0.000211442
-1.31864e-05
0.000223003
-1.15609e-05
0.00023266
-9.65672e-06
0.000240307
-7.64757e-06
0.000245789
-5.48158e-06
0.000249029
-3.24059e-06
0.000249918
-8.88965e-07
0.000248481
1.43696e-06
0.000244656
3.82456e-06
0.000238637
6.01929e-06
0.000230587
8.04977e-06
0.000220641
9.94629e-06
0.000208905
1.17359e-05
0.000195568
1.33369e-05
0.000181042
1.45262e-05
0.000165253
1.57883e-05
0.000148588
1.66648e-05
0.000131372
1.72167e-05
0.000113606
1.77654e-05
9.57394e-05
1.78668e-05
7.78049e-05
1.79345e-05
5.99796e-05
1.78252e-05
4.25658e-05
1.74138e-05
2.56158e-05
1.695e-05
9.12938e-06
1.64864e-05
-6.6737e-06
1.58031e-05
-2.1742e-05
1.50683e-05
-3.60128e-05
1.42707e-05
-4.94912e-05
1.34784e-05
-6.2088e-05
1.25967e-05
-7.38858e-05
1.17978e-05
-8.48154e-05
1.09296e-05
-9.48988e-05
1.00834e-05
-0.000104149
9.24985e-06
-0.000112621
8.47267e-06
-0.000120236
7.61423e-06
-0.0001271
6.86446e-06
-0.000133172
6.07211e-06
-0.000138544
5.37214e-06
-0.000143235
4.69059e-06
-0.000147111
3.87569e-06
-0.000150296
3.18533e-06
-0.000152832
2.53638e-06
-0.00015451
1.6777e-06
-0.00015561
1.10016e-06
-0.000155804
1.94005e-07
-0.000155243
-5.60857e-07
-0.000153909
-1.33452e-06
-0.000151604
-2.30489e-06
-0.000148606
-2.99755e-06
-0.000144656
-3.95026e-06
-0.000139829
-4.82673e-06
-0.000134045
-5.78483e-06
-0.000127337
-6.70754e-06
-0.000119744
-7.59264e-06
-0.000111215
-8.52941e-06
-0.000101764
-9.45087e-06
-9.13891e-05
-1.03752e-05
-8.01324e-05
-1.12567e-05
-6.8058e-05
-1.20745e-05
-5.50888e-05
-1.29692e-05
-4.13218e-05
-1.37671e-05
-2.68296e-05
-1.44922e-05
-1.16062e-05
-1.52236e-05
4.28957e-06
-1.58958e-05
2.0798e-05
-1.65085e-05
3.77557e-05
-1.69578e-05
5.51094e-05
-1.73538e-05
7.26567e-05
-1.75474e-05
9.02345e-05
-1.75779e-05
0.000107684
-1.74501e-05
0.000124777
-1.70925e-05
0.000141356
-1.65795e-05
0.00015715
-1.57939e-05
0.000171986
-1.48357e-05
0.000185601
-1.36153e-05
0.000197817
-1.22161e-05
0.000208422
-1.06057e-05
0.000217216
-8.79354e-06
0.000224051
-6.83559e-06
0.000228791
-4.7399e-06
0.000231325
-2.53351e-06
0.000231572
-2.47074e-07
0.000229523
2.04868e-06
0.000225043
4.47964e-06
0.000218264
6.77898e-06
0.00020927
8.99411e-06
0.000198165
1.11048e-05
0.000185142
1.30224e-05
0.000170387
1.47557e-05
0.000154159
1.62275e-05
0.000136688
1.74712e-05
0.000118277
1.84112e-05
9.91302e-05
1.91463e-05
7.9574e-05
1.95561e-05
5.97968e-05
1.97772e-05
4.0048e-05
1.97487e-05
2.05693e-05
1.94787e-05
1.55435e-06
1.90149e-05
-1.68524e-05
1.84067e-05
-3.44788e-05
1.76264e-05
-5.12128e-05
1.6734e-05
-6.6969e-05
1.57561e-05
-8.16741e-05
1.4705e-05
-9.52583e-05
1.35842e-05
-0.000107705
1.24467e-05
-0.000118969
1.12644e-05
-0.000129091
1.01218e-05
-0.000138116
9.02468e-06
-0.000145973
7.85703e-06
-0.000152774
6.8015e-06
-0.000158618
5.84326e-06
-0.000163399
4.78096e-06
-0.000167291
3.89218e-06
-0.000170279
2.98823e-06
-0.000172459
2.18003e-06
-0.000173901
1.4419e-06
-0.000174619
7.17712e-07
-0.000174703
8.41618e-08
-0.000174106
-5.97418e-07
-0.000172824
-1.28194e-06
-0.000171023
-1.80065e-06
-0.000168544
-2.47856e-06
-0.00016542
-3.12408e-06
-0.000161663
-3.75785e-06
-0.000157263
-4.39972e-06
-0.000152172
-5.09082e-06
-0.000146375
-5.79708e-06
-0.000139888
-6.48656e-06
-0.000132616
-7.27241e-06
-0.000124685
-7.93087e-06
-0.00011593
-8.75552e-06
-0.00010639
-9.54011e-06
-9.60576e-05
-1.0332e-05
-8.49257e-05
-1.1132e-05
-7.29979e-05
-1.19279e-05
-6.01832e-05
-1.28147e-05
-4.67164e-05
-1.34668e-05
-3.24519e-05
-1.42647e-05
-1.74943e-05
-1.49577e-05
-1.95813e-06
-1.55362e-05
1.41372e-05
-1.60955e-05
3.07244e-05
-1.65872e-05
4.76565e-05
-1.69322e-05
6.47161e-05
-1.70597e-05
8.17715e-05
-1.70555e-05
9.8546e-05
-1.67746e-05
0.000114882
-1.63358e-05
0.000130464
-1.55828e-05
0.000145053
-1.4589e-05
0.000158396
-1.33427e-05
0.000170222
-1.18263e-05
0.00018027
-1.00478e-05
0.000188307
-8.03715e-06
0.000194155
-5.84818e-06
0.000197642
-3.4867e-06
0.000198659
-1.01721e-06
0.000197211
1.44757e-06
0.000193209
4.00189e-06
0.000186718
6.49163e-06
0.000177846
8.87127e-06
0.000166848
1.09978e-05
0.000153871
1.29773e-05
0.000139169
1.47016e-05
0.00012306
1.61093e-05
0.000105821
1.72388e-05
8.78025e-05
1.80186e-05
6.92393e-05
1.85632e-05
5.04832e-05
1.87561e-05
3.1766e-05
1.87171e-05
1.33326e-05
1.84333e-05
-4.63066e-06
1.79632e-05
-2.1877e-05
1.72463e-05
-3.82938e-05
1.64168e-05
-5.37371e-05
1.54433e-05
-6.82882e-05
1.45511e-05
-8.17143e-05
1.34261e-05
-9.41412e-05
1.24269e-05
-0.00010553
1.13886e-05
-0.000115927
1.03968e-05
-0.000125368
9.44105e-06
-0.000133843
8.47533e-06
-0.000141472
7.62919e-06
-0.000148238
6.76614e-06
-0.000154234
5.99581e-06
-0.000159498
5.26371e-06
-0.000164056
4.55834e-06
-0.000167985
3.92823e-06
-0.000171267
3.28273e-06
-0.000173891
2.62395e-06
-0.000175894
2.0029e-06
-0.000177313
1.41932e-06
-0.000178141
8.27807e-07
-0.000178435
2.9324e-07
-0.000178112
-3.22926e-07
-0.000177202
-9.09398e-07
-0.000175714
-1.48837e-06
-0.000173586
-2.12773e-06
-0.000170763
-2.82266e-06
-0.000167284
-3.47909e-06
-0.000163044
-4.2399e-06
-0.000158027
-5.01712e-06
-0.00015227
-5.75733e-06
-0.00014566
-6.60965e-06
-0.00013822
-7.44032e-06
-0.000129903
-8.3167e-06
-0.000120669
-9.23477e-06
-0.000110606
-1.00625e-05
-9.96268e-05
-1.09795e-05
-8.77901e-05
-1.18367e-05
-7.50592e-05
-1.2731e-05
-6.15139e-05
-1.35453e-05
-4.71738e-05
-1.43401e-05
-3.21353e-05
-1.50386e-05
-1.64709e-05
-1.56645e-05
-2.62963e-07
-1.62079e-05
1.63415e-05
-1.66045e-05
3.31949e-05
-1.68534e-05
5.01292e-05
-1.69344e-05
6.69551e-05
-1.6826e-05
8.35121e-05
-1.65571e-05
9.95671e-05
-1.60551e-05
0.000114894
-1.53274e-05
0.000129264
-1.43697e-05
0.000142437
-1.31729e-05
0.000154111
-1.16739e-05
0.000164132
-1.00214e-05
0.000172293
-8.16079e-06
0.000178385
-6.09257e-06
0.000182264
-3.87858e-06
0.000183852
-1.5876e-06
0.000183134
7.16986e-07
0.000180008
3.12594e-06
0.000174529
5.47983e-06
0.00016691
7.61901e-06
0.000157253
9.65696e-06
0.00014568
1.15727e-05
0.00013257
1.31098e-05
0.000118108
1.44618e-05
0.000102493
1.56152e-05
8.61884e-05
1.63044e-05
6.93176e-05
1.68707e-05
5.21453e-05
1.71723e-05
3.49879e-05
1.71573e-05
1.80891e-05
1.68988e-05
1.5858e-06
1.65032e-05
-1.4325e-05
1.59108e-05
-2.94749e-05
1.51498e-05
-4.37989e-05
1.4324e-05
-5.72888e-05
1.34898e-05
-6.98829e-05
1.25941e-05
-8.17189e-05
1.18359e-05
-9.27415e-05
1.10226e-05
-0.000103044
1.03023e-05
-0.000112689
9.64502e-06
-0.000121592
8.90336e-06
-0.000129775
8.18233e-06
-0.000137297
7.52206e-06
-0.000144034
6.73712e-06
-0.0001501
6.06634e-06
-0.000155389
5.28936e-06
-0.000159927
4.53716e-06
-0.000163783
3.85659e-06
-0.000166882
3.09864e-06
-0.000169236
2.35369e-06
-0.00017087
1.63441e-06
-0.000171733
8.63071e-07
-0.000171825
9.22919e-08
-0.00017135
-4.75409e-07
-0.000170157
-1.19249e-06
-0.000168328
-1.82917e-06
-0.00016575
-2.57849e-06
-0.000162297
-3.45309e-06
-0.00015807
-4.22667e-06
-0.00015303
-5.04056e-06
-0.00014695
-6.07916e-06
-0.00013997
-6.98085e-06
-0.00013191
-8.05927e-06
-0.000122992
-8.91794e-06
-0.000113111
-9.88153e-06
-0.00010218
-1.09313e-05
-9.02366e-05
-1.1943e-05
-7.74418e-05
-1.27949e-05
-6.34705e-05
-1.39714e-05
-4.85248e-05
-1.49457e-05
-3.26076e-05
-1.59172e-05
-1.58061e-05
-1.68016e-05
1.68587e-06
-1.74921e-05
1.9841e-05
-1.81552e-05
3.85319e-05
-1.86909e-05
5.74347e-05
-1.89029e-05
7.64596e-05
-1.90249e-05
9.53485e-05
-1.8889e-05
0.000113908
-1.85596e-05
0.000131841
-1.7933e-05
0.000148772
-1.69309e-05
0.000164533
-1.57611e-05
0.000178892
-1.43587e-05
0.00019155
-1.26589e-05
0.000202298
-1.07475e-05
0.000210993
-8.69532e-06
0.000217317
-6.32352e-06
0.000221269
-3.95253e-06
0.000222666
-1.39717e-06
0.000221573
1.09305e-06
0.000217966
3.60725e-06
0.000211797
6.1689e-06
0.000203296
8.5002e-06
0.000192751
1.05459e-05
0.000180123
1.2627e-05
0.000165757
1.43666e-05
0.000149983
1.57742e-05
0.000133057
1.69254e-05
0.000115163
1.78944e-05
9.6597e-05
1.85656e-05
7.7728e-05
1.8869e-05
5.85818e-05
1.91461e-05
3.9489e-05
1.90927e-05
2.06419e-05
1.88471e-05
2.22703e-06
1.84148e-05
-1.56836e-05
1.79106e-05
-3.29196e-05
1.7236e-05
-4.93385e-05
1.64188e-05
-6.47986e-05
1.54601e-05
-7.93257e-05
1.4527e-05
1.33813e-05
-0.000146972
-1.68384e-06
-0.000145538
-2.87134e-06
-0.000143541
-3.99762e-06
-0.000140963
-5.15892e-06
-0.000137709
-6.51296e-06
-0.000133797
-7.82558e-06
-0.000129123
-9.34135e-06
-0.000123688
-1.08761e-05
-0.000117706
-1.19596e-05
-0.000110723
-1.39763e-05
-0.000102996
-1.54573e-05
-9.44552e-05
-1.70841e-05
-8.47881e-05
-1.93357e-05
-7.42914e-05
-2.09839e-05
-6.26858e-05
-2.321e-05
-5.01608e-05
-2.50618e-05
-3.68508e-05
-2.6601e-05
-2.25545e-05
-2.85933e-05
-7.31888e-06
-3.04717e-05
8.52188e-06
-3.16731e-05
2.52367e-05
-3.34221e-05
4.26498e-05
-3.4822e-05
6.04335e-05
-3.55597e-05
7.86055e-05
-3.63368e-05
9.69267e-05
-3.6633e-05
0.000115252
-3.66414e-05
0.000133394
-3.62743e-05
0.000150983
-3.51658e-05
0.00016782
-3.36574e-05
0.000183708
-3.17643e-05
0.000198334
-2.9243e-05
0.000211528
-2.63806e-05
0.000223099
-2.3132e-05
0.000232764
-1.93218e-05
0.000240423
-1.53065e-05
0.000245903
-1.0962e-05
0.000249148
-6.48597e-06
0.000250039
-1.77992e-06
0.000248591
2.88426e-06
0.000244767
7.64856e-06
0.000238744
1.2043e-05
0.00023069
1.61032e-05
0.000220735
1.9901e-05
0.000208993
2.34782e-05
0.000195644
2.66852e-05
0.000181106
2.90645e-05
0.000165318
3.15763e-05
0.000148637
3.33457e-05
0.000131411
3.44423e-05
0.000113634
3.55421e-05
9.57572e-05
3.57441e-05
7.78183e-05
3.58733e-05
5.99827e-05
3.56608e-05
4.25593e-05
3.48372e-05
2.56001e-05
3.39091e-05
9.11098e-06
3.29755e-05
-6.69931e-06
3.16133e-05
-2.17765e-05
3.01455e-05
-3.60525e-05
2.85467e-05
-4.95406e-05
2.69666e-05
-6.21423e-05
2.51984e-05
-7.39464e-05
2.36019e-05
-8.48777e-05
2.18609e-05
-9.49625e-05
2.01682e-05
-0.000104214
1.8501e-05
-0.000112674
1.6933e-05
-0.000120299
1.52394e-05
-0.000127172
1.3737e-05
-0.000133235
1.21355e-05
-0.0001386
1.07368e-05
-0.000143294
9.38427e-06
-0.000147169
7.75117e-06
-0.000150366
6.38238e-06
-0.000152895
5.06496e-06
-0.000154576
3.359e-06
-0.000155678
2.20208e-06
-0.000155849
3.65464e-07
-0.000155309
-1.10096e-06
-0.000153978
-2.66558e-06
-0.000151691
-4.59179e-06
-0.000148672
-6.01713e-06
-0.000144706
-7.91587e-06
-0.000139893
-9.63975e-06
-0.000134111
-1.15672e-05
-0.000127404
-1.34149e-05
-0.000119808
-1.51884e-05
-0.00011128
-1.7057e-05
-0.000101819
-1.89119e-05
-9.14493e-05
-2.07454e-05
-8.01874e-05
-2.25188e-05
-6.81142e-05
-2.41478e-05
-5.51481e-05
-2.59354e-05
-4.13853e-05
-2.75301e-05
-2.68886e-05
-2.8989e-05
-1.16659e-05
-3.04465e-05
4.25546e-06
-3.18174e-05
2.07623e-05
-3.30156e-05
3.77333e-05
-3.3929e-05
5.50866e-05
-3.47073e-05
7.26464e-05
-3.51073e-05
9.0244e-05
-3.51757e-05
0.0001077
-3.49065e-05
0.000124808
-3.42001e-05
0.0001414
-3.31719e-05
0.000157213
-3.16071e-05
0.000172068
-2.96913e-05
0.000185697
-2.72441e-05
0.000197913
-2.4433e-05
0.000208528
-2.12208e-05
0.000217338
-1.76028e-05
0.000224177
-1.36754e-05
0.000228933
-9.49641e-06
0.000231484
-5.08415e-06
0.000231712
-4.74984e-07
0.000229641
4.11897e-06
0.000225165
8.95518e-06
0.000218388
1.35564e-05
0.000209387
1.79952e-05
0.000198261
2.22303e-05
0.000185224
2.60591e-05
0.000170476
2.95033e-05
0.000154207
3.24964e-05
0.00013672
3.49585e-05
0.00011829
3.68407e-05
9.91253e-05
3.83114e-05
7.95498e-05
3.91315e-05
5.97575e-05
3.95694e-05
3.99964e-05
3.95098e-05
2.05013e-05
3.89736e-05
1.46973e-06
3.80465e-05
-1.69485e-05
3.68248e-05
-3.45788e-05
3.52567e-05
-5.13277e-05
3.34829e-05
-6.7087e-05
3.15154e-05
-8.17979e-05
2.94159e-05
-9.5389e-05
2.71753e-05
-0.000107841
2.48991e-05
-0.000119108
2.25308e-05
-0.000129231
2.02453e-05
-0.00013825
1.80429e-05
-0.000146112
1.57196e-05
-0.000152929
1.36184e-05
-0.000158747
1.16614e-05
-0.000163537
9.57084e-06
-0.000167426
7.78085e-06
-0.000170413
5.97535e-06
-0.00017259
4.35701e-06
-0.000174035
2.88726e-06
-0.000174751
1.43331e-06
-0.000174832
1.6525e-07
-0.000174229
-1.2e-06
-0.000172969
-2.54203e-06
-0.000171137
-3.63294e-06
-0.000168652
-4.96371e-06
-0.000165537
-6.23932e-06
-0.000161779
-7.5158e-06
-0.000157383
-8.79547e-06
-0.000152289
-1.01851e-05
-0.000146503
-1.15833e-05
-0.000140003
-1.29862e-05
-0.000132716
-1.45591e-05
-0.000124783
-1.58647e-05
-0.000116003
-1.75358e-05
-0.000106492
-1.90512e-05
-9.61566e-05
-2.06671e-05
-8.50196e-05
-2.22691e-05
-7.3084e-05
-2.38635e-05
-6.0282e-05
-2.56169e-05
-4.67935e-05
-2.69554e-05
-3.25233e-05
-2.8535e-05
-1.7566e-05
-2.99151e-05
-2.01148e-06
-3.10909e-05
1.41018e-05
-3.22089e-05
3.06905e-05
-3.31761e-05
4.76348e-05
-3.38767e-05
6.47048e-05
-3.41299e-05
8.17838e-05
-3.41346e-05
9.85771e-05
-3.35681e-05
0.000114921
-3.26798e-05
0.000130517
-3.1179e-05
0.000145123
-2.91956e-05
0.000158486
-2.67052e-05
0.000170329
-2.36701e-05
0.00018038
-2.0099e-05
0.000188433
-1.60896e-05
0.000194293
-1.17088e-05
0.00019778
-6.97344e-06
0.00019879
-2.0276e-06
0.000197334
2.90298e-06
0.000193326
8.01034e-06
0.00018683
1.29873e-05
0.000177951
1.77498e-05
0.000166938
2.2011e-05
0.000153938
2.59775e-05
0.000139219
2.94196e-05
0.000123098
3.2231e-05
0.000105834
3.45018e-05
8.77867e-05
3.60662e-05
6.92117e-05
3.71381e-05
5.04356e-05
3.75321e-05
3.1702e-05
3.74506e-05
1.32517e-05
3.68835e-05
-4.70938e-06
3.59243e-05
-2.19673e-05
3.45042e-05
-3.83922e-05
3.28416e-05
-5.38636e-05
3.09146e-05
-6.84015e-05
2.9089e-05
-8.18422e-05
2.68668e-05
-9.4272e-05
2.48566e-05
-0.000105653
2.27699e-05
-0.000116035
2.07783e-05
-0.000125501
1.8907e-05
-0.000133973
1.6948e-05
-0.000141596
1.52517e-05
-0.000148361
1.35308e-05
-0.000154359
1.19946e-05
-0.00015962
1.0524e-05
-0.000164175
9.11333e-06
-0.000168089
7.84289e-06
-0.000171391
6.58439e-06
-0.000174012
5.24492e-06
-0.000176027
4.0182e-06
-0.000177439
2.83074e-06
-0.000178258
1.64671e-06
-0.000178551
5.86866e-07
-0.000178225
-6.4943e-07
-0.000177328
-1.80616e-06
-0.000175834
-2.98232e-06
-0.000173699
-4.26325e-06
-0.000170888
-5.63368e-06
-0.000167408
-6.95908e-06
-0.000163169
-8.47902e-06
-0.000158152
-1.00339e-05
-0.000152388
-1.15214e-05
-0.000145771
-1.32263e-05
-0.000138328
-1.48833e-05
-0.000130011
-1.66343e-05
-0.000120777
-1.84686e-05
-0.000110704
-2.01351e-05
-9.97227e-05
-2.19611e-05
-8.78825e-05
-2.36769e-05
-7.51482e-05
-2.54654e-05
-6.1592e-05
-2.71016e-05
-4.72438e-05
-2.86885e-05
-3.21998e-05
-3.00826e-05
-1.65243e-05
-3.13401e-05
-3.04912e-07
-3.24274e-05
1.63142e-05
-3.32238e-05
3.31773e-05
-3.37167e-05
5.01253e-05
-3.38825e-05
6.69661e-05
-3.36669e-05
8.35329e-05
-3.31239e-05
9.96032e-05
-3.21255e-05
0.00011495
-3.06746e-05
0.000129327
-2.87465e-05
0.000142516
-2.63621e-05
0.000154209
-2.33674e-05
0.000164236
-2.00484e-05
0.000172406
-1.63306e-05
0.000178506
-1.2193e-05
0.000182385
-7.75753e-06
0.000183977
-3.17965e-06
0.000183249
1.44481e-06
0.000180113
6.26209e-06
0.000174625
1.09675e-05
0.000166995
1.5249e-05
0.000157331
1.9321e-05
0.000145745
2.31583e-05
0.000132618
2.62373e-05
0.000118143
2.89367e-05
0.000102539
3.12183e-05
8.61959e-05
3.26478e-05
6.93155e-05
3.37511e-05
5.21596e-05
3.43281e-05
3.49588e-05
3.43581e-05
1.80491e-05
3.38084e-05
1.54296e-06
3.30093e-05
-1.43798e-05
3.18336e-05
-2.95431e-05
3.03131e-05
-4.38762e-05
2.86571e-05
-5.73659e-05
2.69796e-05
-6.99639e-05
2.51921e-05
-8.18008e-05
2.36728e-05
-9.28079e-05
2.20297e-05
-0.000103099
2.05937e-05
-0.000112741
1.92871e-05
-0.000121642
1.78042e-05
-0.000129823
1.63629e-05
-0.000137345
1.50447e-05
-0.000144079
1.34703e-05
-0.000150144
1.21322e-05
-0.000155433
1.05775e-05
-0.000159966
9.07082e-06
-0.000163822
7.71278e-06
-0.000166922
6.19834e-06
-0.000169277
4.70818e-06
-0.00017092
3.27801e-06
-0.000171787
1.73006e-06
-0.000171882
1.86883e-07
-0.000171409
-9.47884e-07
-0.000170217
-2.38525e-06
-0.000168391
-3.65445e-06
-0.00016581
-5.15963e-06
-0.000162361
-6.90259e-06
-0.000158133
-8.45413e-06
-0.000153096
-1.00777e-05
-0.000147013
-1.21625e-05
-0.000140034
-1.39602e-05
-0.000131971
-1.61219e-05
-0.000123058
-1.78311e-05
-0.00011317
-1.97691e-05
-0.000102238
-2.18633e-05
-9.03026e-05
-2.38788e-05
-7.75054e-05
-2.55922e-05
-6.35321e-05
-2.79448e-05
-4.85954e-05
-2.98826e-05
-3.26775e-05
-3.18351e-05
-1.58597e-05
-3.36195e-05
1.62012e-06
-3.4972e-05
1.97743e-05
-3.63094e-05
3.8488e-05
-3.74048e-05
5.73947e-05
-3.78097e-05
7.64275e-05
-3.80579e-05
9.53426e-05
-3.78042e-05
0.00011392
-3.71374e-05
0.000131866
-3.58784e-05
0.000148814
-3.38796e-05
0.000164589
-3.15357e-05
0.000178965
-2.87357e-05
0.000191644
-2.53377e-05
0.000202395
-2.14986e-05
0.000211102
-1.74023e-05
0.000217442
-1.26634e-05
0.000221398
-7.90891e-06
0.000222797
-2.79637e-06
0.000221695
2.1945e-06
0.000218082
7.22108e-06
0.000211913
1.23372e-05
0.000203405
1.70082e-05
0.000192848
2.11031e-05
0.000180212
2.52623e-05
0.000165833
2.87461e-05
0.000150045
3.15613e-05
0.000133107
3.38637e-05
0.0001152
3.58018e-05
9.66197e-05
3.71454e-05
7.77384e-05
3.77502e-05
5.85853e-05
3.82992e-05
3.94829e-05
3.8195e-05
2.06255e-05
3.77044e-05
2.20281e-06
3.68374e-05
-1.57079e-05
3.58212e-05
-3.29478e-05
3.44759e-05
-4.9371e-05
3.28419e-05
-6.48349e-05
3.0924e-05
-7.93649e-05
2.90569e-05
2.67639e-05
-0.000147017
-2.5235e-06
-0.000145584
-4.30455e-06
-0.000143588
-5.99386e-06
-0.000141012
-7.73481e-06
-0.000137764
-9.76075e-06
-0.000133856
-1.17338e-05
-0.000129173
-1.40249e-05
-0.000123749
-1.62998e-05
-0.000117765
-1.79436e-05
-0.000110786
-2.09548e-05
-0.000103058
-2.31855e-05
-9.45191e-05
-2.56233e-05
-8.4881e-05
-2.89739e-05
-7.43588e-05
-3.15062e-05
-6.27537e-05
-3.48152e-05
-5.02577e-05
-3.75578e-05
-3.69171e-05
-3.99417e-05
-2.26178e-05
-4.28927e-05
-7.38426e-06
-4.57053e-05
8.47674e-06
-4.75342e-05
2.52064e-05
-5.01519e-05
4.26317e-05
-5.22474e-05
6.0429e-05
-5.33571e-05
7.86161e-05
-5.45241e-05
9.69531e-05
-5.49701e-05
0.000115296
-5.49849e-05
0.000133454
-5.44317e-05
0.00015106
-5.27718e-05
0.000167915
-5.05127e-05
0.000183821
-4.76704e-05
0.000198473
-4.38953e-05
0.000211677
-3.95846e-05
0.000223261
-3.47169e-05
0.000232941
-2.9001e-05
0.000240608
-2.29743e-05
0.000246087
-1.6441e-05
0.000249346
-9.7451e-06
0.000250234
-2.66843e-06
0.000248751
4.36782e-06
0.00024494
1.14594e-05
0.000238902
1.80809e-05
0.000230842
2.41632e-05
0.000220872
2.9871e-05
0.000209117
3.52327e-05
0.00019575
4.00525e-05
0.000181183
4.36311e-05
0.000165389
4.73701e-05
0.000148692
5.00425e-05
0.000131448
5.1686e-05
0.000113654
5.33361e-05
9.57549e-05
5.36435e-05
7.7811e-05
5.38171e-05
5.99612e-05
5.35106e-05
4.25198e-05
5.22785e-05
2.5539e-05
5.08898e-05
9.05376e-06
4.94607e-05
-6.75953e-06
4.74266e-05
-2.18431e-05
4.5229e-05
-3.6121e-05
4.28246e-05
-4.96147e-05
4.04602e-05
-6.22157e-05
3.77994e-05
-7.40187e-05
3.54049e-05
-8.49487e-05
3.27908e-05
-9.50273e-05
3.02469e-05
-0.000104277
2.7751e-05
-0.000112732
2.53877e-05
-0.000120363
2.287e-05
-0.000127235
2.0609e-05
-0.000133291
1.81919e-05
-0.000138648
1.60943e-05
-0.000143346
1.40822e-05
-0.00014722
1.16251e-05
-0.000150427
9.58882e-06
-0.000152953
7.59115e-06
-0.000154631
5.03699e-06
-0.000155747
3.31769e-06
-0.000155884
5.02728e-07
-0.000155379
-1.60596e-06
-0.000154052
-3.99195e-06
-0.000151784
-6.86042e-06
-0.000148747
-9.05398e-06
-0.000144758
-1.19052e-05
-0.000139977
-1.44203e-05
-0.00013419
-1.73546e-05
-0.000127494
-2.01106e-05
-0.000119897
-2.27861e-05
-0.000111369
-2.5585e-05
-0.000101911
-2.83696e-05
-9.15396e-05
-3.11169e-05
-8.02855e-05
-3.3773e-05
-6.82072e-05
-3.62262e-05
-5.52482e-05
-3.88946e-05
-4.15045e-05
-4.12739e-05
-2.69886e-05
-4.35051e-05
-1.17641e-05
-4.56711e-05
4.15644e-06
-4.77381e-05
2.06812e-05
-4.95405e-05
3.76556e-05
-5.09036e-05
5.50183e-05
-5.20702e-05
7.25851e-05
-5.26743e-05
9.02125e-05
-5.28033e-05
0.000107664
-5.23579e-05
0.00012479
-5.13266e-05
0.000141404
-4.97861e-05
0.00015723
-4.74334e-05
0.000172098
-4.45598e-05
0.000185763
-4.09089e-05
0.000197999
-3.66694e-05
0.000208627
-3.18492e-05
0.000217445
-2.6421e-05
0.0002243
-2.05304e-05
0.000229061
-1.42577e-05
0.000231622
-7.64493e-06
0.000231849
-7.02002e-07
0.000229753
6.21418e-06
0.000225272
1.34362e-05
0.000218494
2.0335e-05
0.000209491
2.69978e-05
0.000198347
3.33735e-05
0.000185296
3.91109e-05
0.000170527
4.42715e-05
0.000154235
4.87882e-05
0.000136733
5.24607e-05
0.00011828
5.52936e-05
9.90909e-05
5.75002e-05
7.94909e-05
5.87315e-05
5.96772e-05
5.9383e-05
3.99024e-05
5.92846e-05
2.04002e-05
5.84758e-05
1.35751e-06
5.70891e-05
-1.70877e-05
5.527e-05
-3.47282e-05
5.28972e-05
-5.14854e-05
5.02401e-05
-6.72521e-05
4.72821e-05
-8.19671e-05
4.41308e-05
-9.55557e-05
4.07639e-05
-0.000108017
3.736e-05
-0.000119287
3.38009e-05
-0.00012941
3.03684e-05
-0.000138415
2.70476e-05
-0.000146288
2.35925e-05
-0.000153121
2.04519e-05
-0.000158919
1.74591e-05
-0.000163705
1.43566e-05
-0.000167587
1.16635e-05
-0.000170567
8.95506e-06
-0.000172733
6.52272e-06
-0.00017418
4.33496e-06
-0.000174886
2.1387e-06
-0.000174971
2.50148e-07
-0.000174374
-1.7971e-06
-0.000173145
-3.7708e-06
-0.000171271
-5.50686e-06
-0.000168771
-7.46399e-06
-0.000165669
-9.34108e-06
-0.000161912
-1.12723e-05
-0.000157527
-1.31814e-05
-0.000152433
-1.52785e-05
-0.00014665
-1.73663e-05
-0.000140143
-1.9493e-05
-0.0001329
-2.18028e-05
-0.00012491
-2.38543e-05
-0.000116116
-2.63304e-05
-0.000106629
-2.85383e-05
-9.62902e-05
-3.10057e-05
-8.516e-05
-3.33994e-05
-7.32216e-05
-3.58021e-05
-6.0455e-05
-3.83836e-05
-4.69236e-05
-4.0487e-05
-3.2647e-05
-4.28118e-05
-1.76995e-05
-4.48627e-05
-2.12605e-06
-4.66646e-05
1.39934e-05
-4.83285e-05
3.05957e-05
-4.97785e-05
4.75583e-05
-5.08395e-05
6.46399e-05
-5.12116e-05
8.17384e-05
-5.12333e-05
9.85475e-05
-5.03774e-05
0.000114914
-4.90469e-05
0.000130538
-4.68025e-05
0.000145164
-4.38224e-05
0.000158544
-4.00853e-05
0.00017042
-3.55462e-05
0.000180486
-3.01647e-05
0.000188558
-2.41617e-05
0.000194423
-1.75738e-05
0.000197924
-1.04749e-05
0.000198928
-3.03138e-06
0.000197453
4.37721e-06
0.000193446
1.20171e-05
0.000186956
1.94778e-05
0.000178063
2.66429e-05
0.000167025
3.30486e-05
0.000153993
3.90088e-05
0.000139253
4.41603e-05
0.000123088
4.83959e-05
0.000105822
5.17677e-05
8.77435e-05
5.41442e-05
6.91576e-05
5.57239e-05
5.03611e-05
5.63285e-05
3.16037e-05
5.62079e-05
1.31235e-05
5.53637e-05
-4.8392e-06
5.38869e-05
-2.21106e-05
5.17755e-05
-3.85479e-05
4.92789e-05
-5.40385e-05
4.64051e-05
-6.85589e-05
4.36094e-05
-8.20018e-05
4.03097e-05
-9.44302e-05
3.7285e-05
-0.000105809
3.41482e-05
-0.000116191
3.11605e-05
-0.000125661
2.83774e-05
-0.00013413
2.54168e-05
-0.000141752
2.28734e-05
-0.000148514
2.02929e-05
-0.000154506
1.79865e-05
-0.000159757
1.5775e-05
-0.00016431
1.3666e-05
-0.000168197
1.17305e-05
-0.000171533
9.92029e-06
-0.00017415
7.86186e-06
-0.000176169
6.03677e-06
-0.000177566
4.22856e-06
-0.00017837
2.45008e-06
-0.000178682
8.99164e-07
-0.000178356
-9.75436e-07
-0.000177459
-2.70327e-06
-0.000175955
-4.48642e-06
-0.000173833
-6.385e-06
-0.000171034
-8.43263e-06
-0.000167556
-1.04374e-05
-0.000163314
-1.27208e-05
-0.000158301
-1.50474e-05
-0.000152523
-1.72988e-05
-0.000145902
-1.98474e-05
-0.00013847
-2.23153e-05
-0.000130153
-2.49519e-05
-0.000120924
-2.76978e-05
-0.000110837
-3.02214e-05
-9.98514e-05
-3.29472e-05
-8.80182e-05
-3.55102e-05
-7.52787e-05
-3.8205e-05
-6.17104e-05
-4.06699e-05
-4.73747e-05
-4.30243e-05
-3.23198e-05
-4.51376e-05
-1.66431e-05
-4.70169e-05
-4.08821e-07
-4.86618e-05
1.62258e-05
-4.98585e-05
3.31045e-05
-5.05955e-05
5.00815e-05
-5.08595e-05
6.69215e-05
-5.05071e-05
8.35098e-05
-4.97123e-05
9.96053e-05
-4.82212e-05
0.000114968
-4.60372e-05
0.000129364
-4.31432e-05
0.000142564
-3.95615e-05
0.000154278
-3.50817e-05
0.000164326
-3.0097e-05
0.000172515
-2.45196e-05
0.00017863
-1.83079e-05
0.000182519
-1.1647e-05
0.000184114
-4.77504e-06
0.000183378
2.1813e-06
0.000180238
9.4021e-06
0.000174743
1.64622e-05
0.000167098
2.28936e-05
0.000157426
2.89936e-05
0.000145827
3.47574e-05
0.000132678
3.93861e-05
0.000118194
4.34207e-05
0.000102622
4.67898e-05
8.62089e-05
4.90609e-05
6.93043e-05
5.06556e-05
5.21385e-05
5.14939e-05
3.49118e-05
5.15847e-05
1.79787e-05
5.07415e-05
1.45871e-06
4.95292e-05
-1.44824e-05
4.77746e-05
-2.96569e-05
4.54876e-05
-4.39946e-05
4.29947e-05
-5.74885e-05
4.04734e-05
-7.00838e-05
3.77874e-05
-8.19091e-05
3.54981e-05
-9.29068e-05
3.30274e-05
-0.00010319
3.08765e-05
-0.00011282
2.89174e-05
-0.000121714
2.66976e-05
-0.000129887
2.45365e-05
-0.000137402
2.25592e-05
-0.00014413
2.01987e-05
-0.000150195
1.81974e-05
-0.000155476
1.58577e-05
-0.000160004
1.35997e-05
-0.000163861
1.15698e-05
-0.000166959
9.29548e-06
-0.000169304
7.05387e-06
-0.000170951
4.92458e-06
-0.000171819
2.59795e-06
-0.000171938
3.05891e-07
-0.000171468
-1.41732e-06
-0.000170276
-3.57808e-06
-0.000168456
-5.47353e-06
-0.000165873
-7.74313e-06
-0.000162429
-1.03465e-05
-0.000158203
-1.26806e-05
-0.000153172
-1.51083e-05
-0.000147086
-1.82491e-05
-0.00014011
-2.09358e-05
-0.000132059
-2.41725e-05
-0.00012314
-2.6751e-05
-0.000113245
-2.96639e-05
-0.000102315
-3.27937e-05
-9.03887e-05
-3.58048e-05
-7.75888e-05
-3.83921e-05
-6.36146e-05
-4.19191e-05
-4.86882e-05
-4.48091e-05
-3.27683e-05
-4.77551e-05
-1.59462e-05
-5.04417e-05
1.52503e-06
-5.24433e-05
1.9695e-05
-5.44795e-05
3.84155e-05
-5.61254e-05
5.73397e-05
-5.6734e-05
7.6397e-05
-5.71153e-05
9.53332e-05
-5.67405e-05
0.000113939
-5.57432e-05
0.000131916
-5.3856e-05
0.000148887
-5.08504e-05
0.000164691
-4.73397e-05
0.000179094
-4.31386e-05
0.000191792
-3.80357e-05
0.000202566
-3.22728e-05
0.000211294
-2.61309e-05
0.000217641
-1.90106e-05
0.000221605
-1.18731e-05
0.00022302
-4.21134e-06
0.000221897
3.31731e-06
0.000218266
1.08524e-05
0.000212098
1.85048e-05
0.00020358
2.55267e-05
0.000192999
3.16837e-05
0.00018035
3.79107e-05
0.000165952
4.31446e-05
0.000150143
4.73704e-05
0.00013318
5.08266e-05
0.000115251
5.37308e-05
9.66461e-05
5.57497e-05
7.77398e-05
5.66564e-05
5.8581e-05
5.7458e-05
3.94637e-05
5.73122e-05
2.05895e-05
5.65786e-05
2.15183e-06
5.52749e-05
-1.57652e-05
5.37381e-05
-3.30129e-05
5.17236e-05
-4.94423e-05
4.92712e-05
-6.4911e-05
4.63926e-05
-7.94455e-05
4.35913e-05
4.01473e-05
-0.000147085
-3.36295e-06
-0.000145653
-5.73627e-06
-0.000143658
-7.98855e-06
-0.000141086
-1.03071e-05
-0.000137847
-1.29997e-05
-0.000133947
-1.56339e-05
-0.000129249
-1.87227e-05
-0.000123841
-2.17079e-05
-0.000117853
-2.39315e-05
-0.000110884
-2.79243e-05
-0.000103153
-3.09165e-05
-9.46131e-05
-3.41632e-05
-8.5016e-05
-3.85711e-05
-7.44594e-05
-4.20629e-05
-6.28548e-05
-4.64199e-05
-5.03692e-05
-5.00435e-05
-3.70178e-05
-5.32932e-05
-2.27111e-05
-5.71996e-05
-7.47685e-06
-6.09397e-05
8.4163e-06
-6.34275e-05
2.51675e-05
-6.69032e-05
4.26072e-05
-6.96873e-05
6.04261e-05
-7.11761e-05
7.86311e-05
-7.27292e-05
9.69955e-05
-7.33347e-05
0.000115361
-7.33507e-05
0.000133544
-7.26145e-05
0.000151173
-7.04009e-05
0.00016806
-6.74001e-05
0.00018399
-6.36004e-05
0.000198673
-5.85786e-05
0.0002119
-5.28124e-05
0.000223508
-4.63245e-05
0.000233202
-3.86953e-05
0.000240888
-3.06607e-05
0.000246367
-2.19201e-05
0.000249642
-1.30203e-05
0.000250521
-3.54706e-06
0.000248994
5.89432e-06
0.000245207
1.52463e-05
0.00023914
2.4148e-05
0.000231069
3.22342e-05
0.000221076
3.98639e-05
0.000209303
4.70059e-05
0.000195908
5.34474e-05
0.0001813
5.82385e-05
0.000165495
6.3175e-05
0.000148776
6.67612e-05
0.000131503
6.89589e-05
0.000113685
7.11541e-05
9.57513e-05
7.15774e-05
7.77995e-05
7.17689e-05
5.99306e-05
7.13794e-05
4.24605e-05
6.97486e-05
2.54528e-05
6.78975e-05
8.96878e-06
6.59446e-05
-6.84953e-06
6.32449e-05
-2.19446e-05
6.03241e-05
-3.62252e-05
5.71052e-05
-4.97275e-05
5.39625e-05
-6.23296e-05
5.04015e-05
-7.41328e-05
4.72081e-05
-8.50588e-05
4.37168e-05
-9.5123e-05
4.0311e-05
-0.000104379
3.70071e-05
-0.000112819
3.38273e-05
-0.000120457
3.05088e-05
-0.00012733
2.74819e-05
-0.000133377
2.42383e-05
-0.000138723
2.14403e-05
-0.000143427
1.87867e-05
-0.000147296
1.54933e-05
-0.000150518
1.28109e-05
-0.000153043
1.0117e-05
-0.000154714
6.7072e-06
-0.000155852
4.45612e-06
-0.000155987
6.37115e-07
-0.000155485
-2.10789e-06
-0.000154168
-5.30861e-06
-0.000151919
-9.10972e-06
-0.000148862
-1.21103e-05
-0.00014488
-1.58875e-05
-0.000140099
-1.92013e-05
-0.000134319
-2.31352e-05
-0.000127633
-2.67959e-05
-0.000120027
-3.0393e-05
-0.000111505
-3.41063e-05
-0.000102053
-3.78222e-05
-9.16899e-05
-4.14799e-05
-8.0443e-05
-4.502e-05
-6.83549e-05
-4.83144e-05
-5.54065e-05
-5.18431e-05
-4.1673e-05
-5.50076e-05
-2.7139e-05
-5.80392e-05
-1.19238e-05
-6.08865e-05
4.00903e-06
-6.36711e-05
2.05448e-05
-6.60764e-05
3.75386e-05
-6.78975e-05
5.4918e-05
-6.94497e-05
7.24928e-05
-7.02494e-05
9.01203e-05
-7.04309e-05
0.000107604
-6.98416e-05
0.000124778
-6.85014e-05
0.000141401