/*--------------------------------*- C++ -*----------------------------------*\
| =========                 |                                                 |
| \\      /  F ield         | OpenFOAM: The Open Source CFD Toolbox           |
|  \\    /   O peration     | Version:  3.0.1                                 |
|   \\  /    A nd           | Web:      www.OpenFOAM.org                      |
|    \\/     M anipulation  |                                                 |
\*---------------------------------------------------------------------------*/
FoamFile
{
    version     2.0;
    format      ascii;
    class       volScalarField;
    location    "59.2";
    object      p_rgh;
}
// * * * * * * * * * * * * * * * * * * * * * * * * * * * * * * * * * * * * * //

dimensions      [1 -1 -2 0 0 0 0];

internalField   nonuniform List<scalar> 
21420
(
-209.622
-189.149
-165.916
-140.66
-113.726
-85.4343
-55.9597
-25.5245
5.67737
37.4433
69.4928
101.545
133.329
164.489
194.684
223.515
250.58
275.537
298.018
317.66
334.18
347.309
356.813
362.523
364.328
362.061
355.888
345.797
331.935
314.446
293.596
269.704
243.093
214.15
183.262
150.823
117.279
83.035
48.4592
13.9416
-20.1848
-53.6294
-86.1375
-117.505
-147.549
-176.132
-203.157
-228.547
-252.253
-274.25
-294.512
-313.026
-329.762
-344.945
-358.548
-370.579
-381.075
-390.079
-397.63
-403.772
-408.546
-411.991
-414.145
-415.04
-414.728
-413.247
-410.307
-406.054
-400.469
-393.545
-385.259
-375.589
-364.512
-351.995
-337.966
-322.352
-305.029
-286.069
-272.593
-253.781
-233.461
-211.897
-189.218
-165.376
-140.437
-114.416
-87.3551
-59.38
-30.6165
-1.29334
28.336
57.9458
87.1738
115.619
142.89
168.599
192.375
213.866
232.745
248.719
261.521
270.923
276.748
278.876
277.241
271.732
262.534
249.709
233.327
213.621
190.837
165.255
137.207
107.047
75.1651
41.9784
7.90722
-26.6234
-61.1969
-95.4144
-128.91
-161.354
-192.45
-221.953
-249.667
-275.439
-299.17
-320.802
-340.318
-357.735
-373.094
-386.445
-397.901
-407.557
-415.494
-421.805
-426.589
-429.944
-431.966
-432.747
-432.378
-430.944
-428.52
-425.17
-420.953
-415.915
-410.086
-403.484
-396.115
-387.977
-379.058
-369.338
-358.789
-347.375
-335.05
-321.746
-307.351
-291.905
-275.301
-257.478
-238.385
-217.987
-196.273
-173.257
-148.983
-123.525
-96.9901
-69.5259
-41.3136
-12.5727
16.4387
45.4301
74.0789
102.038
128.941
154.406
178.052
199.502
218.393
234.39
247.191
256.539
262.224
263.998
261.937
255.957
246.162
232.606
215.552
195.279
172.139
146.523
118.862
89.6081
59.2197
28.1507
-3.16334
-34.3149
-64.9335
-94.6943
-123.321
-150.593
-176.343
-200.445
-222.828
-243.46
-262.346
-279.529
-295.026
-309.015
-321.531
-332.669
-342.525
-351.199
-358.788
-365.381
-371.061
-375.897
-379.945
-383.255
-385.851
-387.74
-388.947
-389.454
-389.244
-388.294
-386.567
-384.017
-380.59
-376.222
-370.843
-364.38
-356.76
-347.914
-337.779
-326.3
-313.358
-298.999
-283.129
-265.708
-246.701
-226.086
-203.869
-180.08
-154.777
-128.059
-100.057
-70.9377
-40.9108
-10.2228
20.834
51.9229
82.6704
112.67
141.484
168.672
193.789
216.398
236.097
252.53
265.394
274.424
279.423
280.393
277.31
270.125
259.042
244.287
226.163
205.037
181.349
155.57
128.19
99.7173
70.6484
41.4694
12.5941
-15.6085
-42.7521
-68.5898
-92.9484
-115.707
-136.796
-156.159
-173.758
-189.684
-204.372
-218.298
-228.45
-235.262
-242.416
-249.415
-255.861
-261.622
-266.608
-270.772
-274.078
-276.511
-278.071
-278.766
-278.647
-277.326
-275.107
-272.013
-268.068
-263.284
-257.649
-251.113
-243.602
-235.012
-225.214
-214.064
-201.449
-187.06
-168.985
-150.828
-130.822
-108.872
-84.9669
-59.1848
-31.6649
-2.58423
27.8498
59.3652
91.6835
124.46
157.341
189.993
222.024
253.035
282.685
310.6
336.399
359.779
380.426
398.057
412.435
423.358
430.679
434.256
433.493
428.896
420.665
408.941
394
376.089
355.511
332.567
307.572
280.914
252.933
223.989
194.384
164.424
134.441
104.719
75.5752
-209.685
-189.218
-165.985
-140.726
-113.789
-85.4942
-56.015
-25.5741
5.63481
37.4093
69.4688
101.533
133.33
164.504
194.715
223.563
250.645
275.618
298.115
317.772
334.305
347.447
356.959
362.675
364.483
362.227
356.036
345.942
332.072
314.572
293.708
269.8
243.171
214.21
183.304
150.846
117.285
83.0249
48.4345
13.9042
-20.2331
-53.6866
-86.2016
-117.575
-147.622
-176.207
-203.234
-228.624
-252.329
-274.326
-294.587
-313.101
-329.827
-345.01
-358.612
-370.641
-381.136
-390.137
-397.686
-403.827
-408.599
-412.043
-414.195
-415.089
-414.776
-413.291
-410.355
-406.104
-400.519
-393.597
-385.312
-375.642
-364.566
-352.049
-338.021
-322.407
-305.083
-286.113
-272.649
-253.818
-233.492
-211.926
-189.247
-165.406
-140.467
-114.445
-87.3835
-59.4062
-30.6391
-1.31052
28.3263
57.9456
87.1847
115.643
142.928
168.652
192.442
213.948
232.842
248.828
261.642
271.052
276.884
279.017
277.388
271.872
262.668
249.837
233.446
213.729
190.931
165.334
137.269
107.092
75.1929
41.9884
7.89976
-26.648
-61.2374
-95.4695
-128.979
-161.433
-192.539
-222.05
-249.768
-275.544
-299.276
-320.908
-340.423
-357.837
-373.193
-386.539
-397.991
-407.643
-415.576
-421.882
-426.663
-430.014
-432.032
-432.81
-432.437
-431
-428.573
-425.22
-421.002
-415.964
-410.134
-403.532
-396.163
-388.025
-379.107
-369.389
-358.842
-347.43
-335.107
-321.806
-307.414
-291.971
-275.371
-257.55
-238.459
-218.062
-196.35
-173.333
-149.058
-123.597
-97.058
-69.5879
-41.3683
-12.618
16.4042
45.4081
74.0712
102.046
128.965
154.447
178.111
199.579
218.486
234.498
247.313
256.671
262.364
264.153
262.077
256.094
246.293
232.727
215.658
195.368
172.208
146.572
118.89
89.6159
59.2081
28.1211
-3.20927
-34.3751
-65.0057
-94.7759
-123.41
-150.687
-176.439
-200.542
-222.925
-243.554
-262.437
-279.614
-295.109
-309.093
-321.605
-332.738
-342.589
-351.259
-358.844
-365.434
-371.11
-375.944
-379.991
-383.3
-385.894
-387.784
-388.991
-389.498
-389.29
-388.341
-386.616
-384.068
-380.644
-376.279
-370.903
-364.442
-356.825
-347.982
-337.85
-326.372
-313.438
-299.078
-283.211
-265.792
-246.787
-226.174
-203.957
-180.166
-154.86
-128.138
-100.13
-71.0033
-40.967
-10.2676
20.8027
51.9069
82.6713
112.689
141.523
168.731
193.868
216.496
236.211
252.659
265.533
274.58
279.57
280.538
277.452
270.261
259.167
244.396
226.255
205.111
181.405
155.607
128.209
99.72
70.6367
41.4455
12.5607
-15.6487
-42.7966
-68.6365
-92.9961
-115.755
-136.844
-156.207
-173.806
-189.733
-204.433
-218.379
-228.395
-235.268
-242.438
-249.444
-255.893
-261.656
-266.643
-270.807
-274.114
-276.547
-278.105
-278.799
-278.675
-277.358
-275.138
-272.044
-268.1
-263.316
-257.684
-251.152
-243.646
-235.061
-225.268
-214.124
-201.519
-187.17
-169.034
-150.909
-130.908
-108.959
-85.0529
-59.2678
-31.7432
-2.65601
27.7862
59.3114
91.6411
124.431
157.325
189.993
222.039
253.066
282.733
310.665
336.48
359.875
380.535
398.179
412.567
423.497
430.825
434.416
433.633
429.03
420.793
409.061
394.109
376.184
355.592
332.632
307.622
280.948
252.953
223.995
194.378
164.408
134.416
104.686
75.5361
-209.809
-189.355
-166.123
-140.86
-113.917
-85.6141
-56.1255
-25.6731
5.54972
37.3413
69.4208
101.508
133.331
164.534
194.777
223.658
250.774
275.781
298.31
317.997
334.557
347.721
357.251
362.98
364.792
362.557
356.333
346.234
332.346
314.824
293.931
269.991
243.327
214.33
183.387
150.892
117.297
83.0045
48.3851
13.8293
-20.3297
-53.801
-86.33
-117.714
-147.768
-176.358
-203.387
-228.777
-252.482
-274.477
-294.737
-313.25
-329.958
-345.141
-358.741
-370.766
-381.257
-390.254
-397.8
-403.937
-408.705
-412.146
-414.295
-415.187
-414.87
-413.378
-410.448
-406.199
-400.617
-393.697
-385.413
-375.745
-364.669
-352.153
-338.125
-322.513
-305.186
-286.195
-272.754
-253.885
-233.546
-211.977
-189.296
-165.455
-140.516
-114.494
-87.4296
-59.448
-30.6729
-1.33286
28.3193
57.9577
87.2195
115.703
143.017
168.77
192.591
214.127
233.048
249.061
261.896
271.324
277.17
279.311
277.686
272.175
262.951
250.108
233.7
213.96
191.135
165.509
137.41
107.2
75.2663
42.0271
7.9041
-26.6771
-61.2976
-95.5585
-129.094
-161.57
-192.694
-222.219
-249.947
-275.728
-299.461
-321.092
-340.603
-358.012
-373.361
-386.697
-398.142
-407.785
-415.709
-422.007
-426.779
-430.122
-432.132
-432.902
-432.523
-431.08
-428.647
-425.289
-421.068
-416.028
-410.197
-403.594
-396.227
-388.09
-379.174
-369.458
-358.915
-347.508
-335.19
-321.896
-307.51
-292.074
-275.48
-257.666
-238.579
-218.187
-196.476
-173.46
-149.182
-123.717
-97.1701
-69.689
-41.4552
-12.6873
16.3562
45.3844
74.0754
102.08
129.032
154.549
178.248
199.749
218.69
234.732
247.574
256.952
262.66
264.481
262.368
256.386
246.571
232.984
215.886
195.563
172.364
146.688
118.965
89.6508
59.2046
28.0817
-3.28079
-34.4746
-65.1288
-94.9174
-123.565
-150.851
-176.608
-200.713
-223.093
-243.717
-262.593
-279.759
-295.249
-309.222
-321.724
-332.847
-342.689
-351.35
-358.927
-365.509
-371.18
-376.008
-380.051
-383.358
-385.948
-387.84
-389.047
-389.555
-389.35
-388.404
-386.683
-384.14
-380.721
-376.362
-370.993
-364.539
-356.928
-348.091
-337.965
-326.489
-313.568
-299.212
-283.35
-265.937
-246.936
-226.326
-204.109
-180.316
-155.006
-128.275
-100.256
-71.1146
-41.0599
-10.3379
20.7587
51.8934
82.6914
112.746
141.619
168.867
194.043
216.708
236.457
252.933
265.829
274.904
279.885
280.849
277.755
270.55
259.432
244.632
226.457
205.277
181.533
155.698
128.264
99.7425
70.6301
41.4142
12.5101
-15.7136
-42.8711
-68.7163
-93.079
-115.839
-136.93
-156.294
-173.893
-189.823
-204.549
-218.534
-228.28
-235.274
-242.48
-249.499
-255.954
-261.721
-266.711
-270.877
-274.185
-276.618
-278.174
-278.864
-278.732
-277.42
-275.2
-272.105
-268.162
-263.381
-257.754
-251.229
-243.732
-235.158
-225.375
-214.243
-201.657
-187.382
-169.139
-151.072
-131.08
-109.132
-85.2245
-59.4334
-31.8993
-2.79924
27.6593
59.2041
91.5565
124.372
157.294
189.992
222.07
253.13
282.83
310.795
336.642
360.067
380.755
398.422
412.831
423.776
431.115
434.738
433.91
429.3
421.051
409.303
394.327
376.375
355.753
332.763
307.721
281.017
252.993
224.008
194.367
164.376
134.365
104.62
75.4578
-209.996
-189.561
-166.33
-141.06
-114.107
-85.794
-56.2914
-25.8218
5.42201
37.2392
69.3486
101.47
133.332
164.579
194.869
223.801
250.968
276.025
298.603
318.334
334.934
348.133
357.69
363.437
365.256
363.044
356.784
346.675
332.758
315.201
294.265
270.277
243.561
214.509
183.51
150.962
117.314
82.9738
48.3108
13.7167
-20.4748
-53.9728
-86.5227
-117.922
-147.988
-176.584
-203.617
-229.008
-252.711
-274.703
-294.961
-313.475
-330.154
-345.337
-358.934
-370.954
-381.438
-390.43
-397.969
-404.101
-408.864
-412.3
-414.445
-415.333
-415.011
-413.509
-410.587
-406.342
-400.764
-393.847
-385.565
-375.899
-364.824
-352.309
-338.282
-322.671
-305.341
-286.323
-272.907
-253.983
-233.627
-212.053
-189.37
-165.529
-140.589
-114.567
-87.4984
-59.51
-30.723
-1.36568
28.3096
57.9768
87.2729
115.795
143.152
168.95
192.816
214.397
233.36
249.41
262.279
271.735
277.601
279.754
278.127
272.633
263.381
250.517
234.083
214.308
191.443
165.771
137.624
107.362
75.3774
42.0857
7.91105
-26.72
-61.3872
-95.6915
-129.265
-161.774
-192.925
-222.471
-250.213
-276.002
-299.738
-321.367
-340.872
-358.272
-373.611
-386.931
-398.365
-407.996
-415.906
-422.191
-426.95
-430.281
-432.279
-433.038
-432.649
-431.196
-428.755
-425.391
-421.165
-416.12
-410.288
-403.685
-396.318
-388.184
-379.271
-369.559
-359.021
-347.621
-335.311
-322.027
-307.65
-292.225
-275.642
-257.836
-238.757
-218.37
-196.663
-173.647
-149.366
-123.893
-97.3353
-69.8379
-41.5829
-12.7885
16.2868
45.3517
74.0843
102.135
129.136
154.704
178.455
200.008
218.999
235.087
247.968
257.377
263.105
264.964
262.817
256.833
246.993
233.374
216.232
195.858
172.602
146.865
119.08
89.7058
59.2022
28.0255
-3.38543
-34.6213
-65.3108
-95.1269
-123.795
-151.095
-176.859
-200.965
-223.342
-243.959
-262.824
-279.973
-295.455
-309.413
-321.9
-333.008
-342.836
-351.484
-359.048
-365.619
-371.28
-376.101
-380.139
-383.441
-386.029
-387.921
-389.128
-389.639
-389.437
-388.496
-386.78
-384.245
-380.835
-376.485
-371.125
-364.681
-357.08
-348.252
-338.135
-326.667
-313.759
-299.411
-283.557
-266.152
-247.157
-226.551
-204.335
-180.539
-155.221
-128.479
-100.443
-71.2794
-41.1971
-10.4416
20.6946
51.8749
82.7236
112.833
141.765
169.072
194.308
217.029
236.829
253.347
266.274
275.374
280.374
281.322
278.213
270.986
259.832
244.989
226.762
205.528
181.728
155.837
128.35
99.7783
70.622
41.3688
12.4353
-15.8102
-42.9823
-68.8357
-93.203
-115.966
-137.06
-156.425
-174.024
-189.958
-204.72
-218.768
-228.107
-235.286
-242.543
-249.582
-256.046
-261.818
-266.812
-270.982
-274.291
-276.724
-278.277
-278.961
-278.818
-277.513
-275.293
-272.198
-268.256
-263.479
-257.859
-251.344
-243.861
-235.303
-225.536
-214.422
-201.861
-187.689
-169.307
-151.319
-131.339
-109.393
-85.4822
-59.682
-32.1337
-3.01436
27.4688
59.0429
91.4294
124.283
157.247
189.991
222.117
253.226
282.975
310.99
336.885
360.355
381.084
398.788
413.227
424.195
431.55
435.203
434.336
429.709
421.44
409.666
394.654
376.662
355.996
332.959
307.87
281.12
253.052
224.028
194.351
164.328
134.29
104.522
75.3403
-210.244
-189.835
-166.605
-141.327
-114.362
-86.0339
-56.5127
-26.0202
5.25162
37.1029
69.252
101.419
133.333
164.639
194.993
223.992
251.227
276.351
298.993
318.784
335.437
348.682
358.275
364.046
365.876
363.678
357.398
347.265
333.309
315.705
294.711
270.659
243.872
214.749
183.676
151.054
117.337
82.9325
48.2113
13.5662
-20.6687
-54.2023
-86.7801
-118.2
-148.28
-176.886
-203.923
-229.315
-253.016
-275.005
-295.26
-313.774
-330.415
-345.6
-359.191
-371.204
-381.68
-390.664
-398.196
-404.32
-409.077
-412.506
-414.645
-415.528
-415.199
-413.686
-410.773
-406.534
-400.96
-394.046
-385.768
-376.104
-365.031
-352.517
-338.491
-322.883
-305.551
-286.501
-273.105
-254.113
-233.735
-212.154
-189.469
-165.627
-140.686
-114.664
-87.5902
-59.5929
-30.7903
-1.40973
28.2963
58.0021
87.3441
115.918
143.332
169.189
193.116
214.756
233.775
249.877
262.791
272.283
278.175
280.345
278.719
273.233
263.959
251.063
234.593
214.772
191.852
166.121
137.908
107.579
75.5245
42.1625
7.91885
-26.7784
-61.508
-95.8703
-129.496
-162.048
-193.235
-222.808
-250.569
-276.369
-300.108
-321.733
-341.231
-358.62
-373.945
-387.242
-398.663
-408.276
-416.169
-422.437
-427.179
-430.493
-432.475
-433.219
-432.816
-431.35
-428.898
-425.525
-421.293
-416.244
-410.409
-403.806
-396.44
-388.308
-379.4
-369.694
-359.163
-347.771
-335.472
-322.203
-307.835
-292.426
-275.856
-258.062
-238.993
-218.614
-196.911
-173.896
-149.611
-124.129
-97.5553
-70.0362
-41.7528
-12.9232
16.1944
45.3082
74.0963
102.208
129.274
154.911
178.732
200.354
219.411
235.56
248.494
257.945
263.7
265.583
263.436
257.436
247.558
233.895
216.695
196.252
172.919
147.101
119.234
89.7794
59.199
27.9505
-3.52499
-34.8171
-65.5535
-95.4065
-124.102
-151.42
-177.193
-201.302
-223.674
-244.281
-263.132
-280.26
-295.729
-309.667
-322.134
-333.223
-343.032
-351.661
-359.209
-365.766
-371.414
-376.225
-380.255
-383.552
-386.136
-388.029
-389.237
-389.75
-389.553
-388.618
-386.91
-384.385
-380.985
-376.648
-371.301
-364.87
-357.282
-348.467
-338.361
-326.904
-314.011
-299.675
-283.832
-266.438
-247.452
-226.851
-204.636
-180.836
-155.509
-128.751
-100.692
-71.4993
-41.3801
-10.5798
20.6091
51.8502
82.7666
112.949
141.96
169.347
194.662
217.458
237.326
253.9
266.87
275.992
281.026
281.962
278.828
271.569
260.367
245.465
227.17
205.864
181.989
156.023
128.464
99.826
70.6111
41.308
12.3351
-15.9394
-43.131
-68.9953
-93.3687
-116.134
-137.232
-156.599
-174.198
-190.138
-204.945
-219.078
-227.88
-235.302
-242.629
-249.692
-256.169
-261.949
-266.948
-271.121
-274.433
-276.865
-278.414
-279.093
-278.937
-277.638
-275.416
-272.32
-268.38
-263.609
-257.998
-251.498
-244.033
-235.496
-225.751
-214.662
-202.128
-188.07
-169.558
-151.655
-131.686
-109.741
-85.8262
-60.014
-32.4467
-3.30157
27.2144
58.8276
91.2595
124.165
157.185
189.989
222.179
253.353
283.168
311.249
337.208
360.739
381.524
399.276
413.755
424.754
432.129
435.795
434.919
430.263
421.96
410.149
395.091
377.043
356.319
333.221
308.069
281.257
253.131
224.053
194.328
164.263
134.189
104.39
75.1835
-210.555
-190.18
-166.951
-141.66
-114.681
-86.3339
-56.7896
-26.2686
5.03834
36.9321
69.1308
101.355
133.334
164.713
195.146
224.23
251.55
276.758
299.481
319.347
336.067
349.369
359.007
364.809
366.652
364.46
358.174
348.003
333.998
316.335
295.269
271.136
244.262
215.048
183.882
151.169
117.365
82.8802
48.0863
13.3774
-20.9117
-54.4898
-87.1025
-118.549
-148.647
-177.264
-204.307
-229.699
-253.398
-275.382
-295.634
-314.148
-330.742
-345.928
-359.514
-371.517
-381.983
-390.956
-398.478
-404.594
-409.342
-412.764
-414.895
-415.771
-415.433
-413.91
-411.006
-406.773
-401.205
-394.296
-386.022
-376.362
-365.291
-352.777
-338.754
-323.149
-305.817
-286.735
-273.339
-254.271
-233.87
-212.281
-189.593
-165.751
-140.809
-114.785
-87.7058
-59.6973
-30.8753
-1.46569
28.2789
58.033
87.4324
116.071
143.556
169.488
193.49
215.205
234.294
250.46
263.43
272.967
278.894
281.084
279.461
273.975
264.685
251.747
235.23
215.352
192.363
166.556
138.262
107.847
75.7068
42.2571
7.92704
-26.8527
-61.6608
-96.0954
-129.785
-162.392
-193.624
-223.231
-251.015
-276.828
-300.571
-322.193
-341.68
-359.054
-374.363
-387.633
-399.035
-408.627
-416.498
-422.744
-427.464
-430.758
-432.72
-433.446
-433.025
-431.543
-429.077
-425.694
-421.453
-416.398
-410.56
-403.956
-396.592
-388.464
-379.561
-369.862
-359.34
-347.959
-335.674
-322.424
-308.067
-292.677
-276.124
-258.345
-239.289
-218.919
-197.223
-174.208
-149.917
-124.423
-97.831
-70.2849
-41.966
-13.0922
16.0782
45.2534
74.1107
102.299
129.447
155.17
179.079
200.787
219.927
236.152
249.152
258.656
264.446
266.346
264.217
258.191
248.267
234.547
217.274
196.745
173.316
147.396
119.427
89.8711
59.1942
27.8561
-3.70034
-35.0628
-65.8577
-95.7571
-124.487
-151.827
-177.612
-201.724
-224.09
-244.685
-263.517
-280.62
-296.071
-309.984
-322.427
-333.491
-343.276
-351.884
-359.411
-365.949
-371.582
-376.38
-380.401
-383.69
-386.271
-388.164
-389.373
-389.89
-389.698
-388.771
-387.073
-384.559
-381.174
-376.852
-371.521
-365.107
-357.535
-348.735
-338.644
-327.201
-314.328
-300.004
-284.177
-266.797
-247.821
-227.227
-205.014
-181.209
-155.869
-129.091
-101.004
-71.775
-41.6096
-10.7533
20.5015
51.8185
82.8197
113.094
142.203
169.691
195.104
217.994
237.947
254.593
267.616
276.77
281.833
282.766
279.599
272.299
261.037
246.061
227.681
206.284
182.315
156.255
128.606
99.8849
70.5965
41.231
12.2089
-16.102
-43.3178
-69.1957
-93.5764
-116.346
-137.449
-156.818
-174.416
-190.361
-205.219
-219.449
-227.612
-235.327
-242.738
-249.831
-256.323
-262.112
-267.118
-271.296
-274.61
-277.042
-278.587
-279.259
-279.089
-277.794
-275.57
-272.474
-268.536
-263.771
-258.173
-251.691
-244.249
-235.738
-226.021
-214.96
-202.458
-188.488
-169.924
-152.082
-132.121
-110.178
-86.257
-60.4296
-32.8386
-3.66118
26.8959
58.558
91.0466
124.016
157.107
189.986
222.257
253.512
283.41
311.574
337.613
361.22
382.073
399.886
414.415
425.453
432.852
436.524
435.648
430.96
422.613
410.755
395.637
377.521
356.723
333.548
308.318
281.429
253.229
224.084
194.299
164.181
134.062
104.226
74.987
-210.928
-190.594
-167.366
-142.062
-115.063
-86.6942
-57.1224
-26.5673
4.78183
36.7265
68.9846
101.277
133.334
164.801
195.33
224.515
251.937
277.246
300.067
320.023
336.823
350.193
359.886
365.725
367.587
365.397
359.104
348.89
334.827
317.092
295.939
271.709
244.73
215.406
184.128
151.306
117.398
82.8166
47.9353
13.1497
-21.2044
-54.8359
-87.4902
-118.968
-149.088
-177.718
-204.768
-230.16
-253.857
-275.834
-296.081
-314.599
-331.133
-346.322
-359.901
-371.893
-382.346
-391.307
-398.818
-404.923
-409.66
-413.072
-415.195
-416.063
-415.715
-414.181
-411.286
-407.06
-401.499
-394.597
-386.328
-376.671
-365.602
-353.09
-339.069
-323.47
-306.141
-287.034
-273.603
-254.458
-234.031
-212.434
-189.742
-165.899
-140.956
-114.932
-87.845
-59.8234
-30.9781
-1.53384
28.257
58.0692
87.5377
116.255
143.825
169.846
193.939
215.743
234.916
251.159
264.196
273.788
279.755
281.97
280.353
274.863
265.555
252.568
235.994
216.046
192.976
167.078
138.686
108.169
75.924
42.3693
7.9356
-26.9437
-61.8461
-96.3672
-130.133
-162.807
-194.093
-223.74
-251.553
-277.381
-301.129
-322.745
-342.22
-359.577
-374.867
-388.101
-399.483
-409.049
-416.893
-423.112
-427.807
-431.076
-433.014
-433.717
-433.276
-431.775
-429.292
-425.896
-421.644
-416.583
-410.741
-404.137
-396.775
-388.652
-379.754
-370.063
-359.553
-348.185
-335.916
-322.69
-308.344
-292.979
-276.446
-258.686
-239.645
-219.287
-197.597
-174.583
-150.286
-124.778
-98.1628
-70.5844
-42.2229
-13.2962
15.9375
45.1864
74.1269
102.406
129.654
155.48
179.494
201.307
220.546
236.863
249.943
259.511
265.344
267.265
265.153
259.098
249.12
235.331
217.97
197.336
173.792
147.75
119.657
89.9804
59.1872
27.7414
-3.912
-35.3589
-66.2243
-96.1794
-124.95
-152.317
-178.117
-202.231
-224.591
-245.17
-263.981
-281.054
-296.481
-310.366
-322.779
-333.814
-343.571
-352.151
-359.653
-366.169
-371.783
-376.566
-380.575
-383.856
-386.433
-388.325
-389.536
-390.057
-389.872
-388.954
-387.269
-384.769
-381.4
-377.097
-371.786
-365.391
-357.839
-349.058
-338.985
-327.559
-314.708
-300.4
-284.59
-267.227
-248.264
-227.679
-205.467
-181.656
-156.303
-129.501
-101.38
-72.1069
-41.8863
-10.9628
20.3712
51.7792
82.8822
113.268
142.494
170.103
195.635
218.638
238.693
255.425
268.514
277.708
282.798
283.732
280.526
273.175
261.842
246.776
228.294
206.788
182.706
156.533
128.776
99.9546
70.5778
41.1373
12.056
-16.2984
-43.5432
-69.437
-93.8262
-116.6
-137.708
-157.081
-174.677
-190.628
-205.537
-219.842
-227.341
-235.365
-242.872
-249.999
-256.508
-262.308
-267.322
-271.505
-274.823
-277.255
-278.796
-279.459
-279.273
-277.982
-275.755
-272.658
-268.722
-263.965
-258.382
-251.921
-244.507
-236.028
-226.346
-215.319
-202.847
-188.927
-170.424
-152.603
-132.646
-110.704
-86.7749
-60.9293
-33.3099
-4.09361
26.5127
58.2335
90.7903
123.836
157.012
189.983
222.349
253.702
283.7
311.963
338.099
361.796
382.733
400.619
415.209
426.292
433.721
437.4
436.52
431.797
423.399
411.483
396.292
378.094
357.208
333.94
308.615
281.634
253.347
224.121
194.263
164.083
133.909
104.027
74.7507
-211.362
-191.078
-167.851
-142.53
-115.51
-87.1152
-57.5114
-26.9167
4.48164
36.4857
68.8128
101.185
133.334
164.903
195.544
224.847
252.389
277.816
300.75
320.812
337.706
351.157
360.913
366.796
368.68
366.492
360.188
349.925
335.795
317.976
296.722
272.377
245.276
215.823
184.416
151.465
117.435
82.7411
47.7577
12.8828
-21.5473
-55.2409
-87.9439
-119.458
-149.603
-178.249
-205.306
-230.699
-254.393
-276.362
-296.602
-315.126
-331.587
-346.783
-360.353
-372.331
-382.77
-391.716
-399.213
-405.306
-410.032
-413.433
-415.544
-416.402
-416.044
-414.498
-411.613
-407.395
-401.842
-394.947
-386.685
-377.033
-365.967
-353.456
-339.438
-323.845
-306.525
-287.408
-273.886
-254.67
-234.219
-212.612
-189.916
-166.073
-141.128
-115.103
-88.0082
-59.9716
-31.0993
-1.61461
28.2301
58.1101
87.6593
116.468
144.138
170.262
194.461
216.37
235.642
251.975
265.09
274.746
280.761
283.005
281.396
275.9
266.568
253.526
236.886
216.856
193.69
167.686
139.179
108.542
76.1758
42.4986
7.94411
-27.0519
-62.0643
-96.6861
-130.542
-163.293
-194.641
-224.337
-252.181
-278.028
-301.781
-323.391
-342.851
-360.187
-375.456
-388.647
-400.006
-409.541
-417.354
-423.543
-428.208
-431.447
-433.358
-434.035
-433.568
-432.046
-429.543
-426.131
-421.868
-416.799
-410.953
-404.349
-396.989
-388.87
-379.98
-370.299
-359.801
-348.449
-336.198
-322.999
-308.669
-293.331
-276.822
-259.083
-240.061
-219.716
-198.034
-175.022
-150.718
-125.193
-98.5514
-70.9353
-42.5242
-13.5359
15.7719
45.1066
74.1444
102.531
129.894
155.841
179.978
201.912
221.268
237.693
250.866
260.509
266.394
268.342
266.242
260.155
250.118
236.248
218.782
198.027
174.347
148.163
119.926
90.1066
59.1778
27.6061
-4.16067
-35.7064
-66.654
-96.674
-125.492
-152.89
-178.707
-202.824
-225.176
-245.737
-264.524
-281.56
-296.959
-310.811
-323.189
-334.19
-343.914
-352.462
-359.935
-366.426
-372.018
-376.783
-380.779
-384.05
-386.622
-388.513
-389.726
-390.252
-390.075
-389.168
-387.497
-385.014
-381.665
-377.383
-372.095
-365.723
-358.194
-349.435
-339.382
-327.977
-315.15
-300.862
-285.073
-267.729
-248.783
-228.207
-205.998
-182.18
-156.81
-129.98
-101.82
-72.4956
-42.2107
-11.2087
20.2176
51.7319
82.9537
113.469
142.832
170.583
196.255
219.39
239.564
256.397
269.563
278.806
283.925
284.859
281.612
274.199
262.781
247.611
229.01
207.376
183.161
156.857
128.973
100.034
70.5541
41.0261
11.8756
-16.5295
-43.8078
-69.72
-94.1182
-116.898
-138.012
-157.389
-174.982
-190.937
-205.895
-220.211
-227.107
-235.423
-243.033
-250.197
-256.725
-262.536
-267.56
-271.75
-275.071
-277.504
-279.04
-279.695
-279.492
-278.201
-275.972
-272.872
-268.939
-264.191
-258.625
-252.189
-244.807
-236.366
-226.725
-215.737
-203.296
-189.388
-171.057
-153.219
-133.261
-111.319
-87.3805
-61.5136
-33.861
-4.59935
26.0645
57.8537
90.4901
123.626
156.9
189.978
222.456
253.924
284.037
312.417
338.665
362.469
383.504
401.474
416.135
427.272
434.734
438.425
437.536
432.774
424.318
412.332
397.058
378.763
357.773
334.397
308.962
281.872
253.482
224.162
194.221
163.966
133.73
103.795
74.4743
-211.858
-191.634
-168.407
-143.066
-116.021
-87.5971
-57.957
-27.3172
4.13728
36.2091
68.6149
101.078
133.331
165.017
195.786
225.225
252.905
278.467
301.532
321.714
338.716
352.259
362.089
368.022
369.931
367.747
361.425
351.11
336.904
318.988
297.617
273.142
245.9
216.3
184.743
151.646
117.476
82.6532
47.553
12.5758
-21.941
-55.7056
-88.464
-120.019
-150.193
-178.857
-205.922
-231.316
-255.005
-276.965
-297.196
-315.731
-332.105
-347.311
-360.87
-372.832
-383.254
-392.184
-399.665
-405.743
-410.456
-413.844
-415.944
-416.79
-416.42
-414.861
-411.987
-407.778
-402.234
-395.347
-387.094
-377.447
-366.384
-353.875
-339.86
-324.275
-306.971
-287.869
-274.174
-254.907
-234.434
-212.817
-190.115
-166.272
-141.326
-115.3
-88.1956
-60.1422
-31.2391
-1.70841
28.1977
58.1554
87.7969
116.71
144.494
170.738
195.058
217.085
236.471
252.907
266.112
275.841
281.911
284.188
282.59
277.085
267.723
254.621
237.905
217.781
194.505
168.38
139.741
108.967
76.4616
42.6445
7.95181
-27.1778
-62.3157
-97.0529
-131.012
-163.851
-195.271
-225.021
-252.903
-278.769
-302.528
-324.131
-343.574
-360.886
-376.131
-389.271
-400.604
-410.105
-417.882
-424.035
-428.666
-431.872
-433.751
-434.397
-433.903
-432.355
-429.831
-426.401
-422.124
-417.045
-411.195
-404.59
-397.233
-389.12
-380.238
-370.568
-360.084
-348.75
-336.52
-323.34
-309.054
-293.735
-277.252
-259.538
-240.537
-220.208
-198.536
-175.525
-151.212
-125.67
-98.9974
-71.3382
-42.8705
-13.8116
15.5807
45.0137
74.1625
102.672
130.166
156.252
180.531
202.604
222.094
238.642
251.923
261.652
267.598
269.577
267.486
261.366
251.261
237.297
219.713
198.817
174.982
148.634
120.231
90.2493
59.1653
27.4495
-4.44732
-36.1062
-67.1478
-97.2419
-126.114
-153.548
-179.383
-203.504
-225.846
-246.386
-265.145
-282.139
-297.506
-311.32
-323.659
-334.621
-344.306
-352.818
-360.258
-366.719
-372.286
-377.031
-381.011
-384.272
-386.839
-388.729
-389.944
-390.476
-390.308
-389.413
-387.757
-385.294
-381.967
-377.71
-372.448
-366.103
-358.6
-349.866
-339.837
-328.456
-315.656
-301.391
-285.626
-268.305
-249.376
-228.812
-206.606
-182.781
-157.39
-130.529
-102.325
-72.9418
-42.5835
-11.4919
20.04
51.6758
83.0336
113.697
143.218
171.131
196.963
220.251
240.562
257.511
270.766
280.065
285.216
286.146
282.854
275.371
263.857
248.566
229.829
208.048
183.681
157.225
129.196
100.124
70.5248
40.8967
11.6671
-16.7961
-44.1122
-70.0451
-94.4532
-117.237
-138.359
-157.742
-175.332
-191.291
-206.287
-220.533
-226.926
-235.509
-243.223
-250.424
-256.973
-262.798
-267.832
-272.03
-275.356
-277.788
-279.321
-279.966
-279.744
-278.453
-276.219
-273.116
-269.186
-264.448
-258.902
-252.495
-245.15
-236.752
-227.159
-216.215
-203.805
-189.867
-171.829
-153.928
-133.965
-112.023
-88.0742
-62.1831
-34.4925
-5.17897
25.5507
57.418
90.1453
123.384
156.771
189.971
222.577
254.176
284.422
312.935
339.313
363.239
384.385
402.453
417.195
428.394
435.894
439.598
438.697
433.892
425.371
413.305
397.933
379.528
358.42
334.92
309.358
282.144
253.636
224.208
194.171
163.832
133.524
103.528
74.1575
-212.414
-192.261
-169.034
-143.67
-116.597
-88.1404
-58.4597
-27.7694
3.74817
35.8962
68.3904
100.955
133.326
165.144
196.058
225.65
253.484
279.199
302.411
322.73
339.853
353.501
363.413
369.403
371.343
369.162
362.817
352.445
338.154
320.128
298.626
274.003
246.602
216.836
185.11
151.847
117.521
82.5521
47.3205
12.228
-22.3863
-56.2306
-89.0513
-120.653
-150.859
-179.542
-206.616
-232.011
-255.695
-277.644
-297.862
-316.409
-332.689
-347.908
-361.452
-373.395
-383.798
-392.71
-400.174
-406.236
-410.933
-414.307
-416.394
-417.227
-416.843
-415.271
-412.409
-408.209
-402.675
-395.798
-387.554
-377.914
-366.855
-354.348
-340.337
-324.761
-307.48
-288.434
-274.452
-255.168
-234.676
-213.048
-190.34
-166.496
-141.549
-115.522
-88.4076
-60.3356
-31.3981
-1.81588
28.1593
58.2043
87.9499
116.981
144.894
171.272
195.729
217.89
237.403
253.956
267.262
277.074
283.204
285.519
283.934
278.419
269.021
255.853
239.051
218.821
195.422
169.158
140.373
109.444
76.781
42.8061
7.95801
-27.3217
-62.6011
-97.4684
-131.544
-164.482
-195.982
-225.793
-253.717
-279.606
-303.37
-324.966
-344.389
-361.672
-376.873
-389.992
-401.279
-410.739
-418.476
-424.59
-429.181
-432.35
-434.193
-434.806
-434.28
-432.703
-430.154
-426.703
-422.411
-417.322
-411.467
-404.862
-397.508
-389.401
-380.529
-370.871
-360.403
-349.089
-336.882
-323.725
-309.486
-294.19
-277.737
-260.051
-241.073
-220.763
-199.101
-176.092
-151.771
-126.208
-99.5012
-71.7938
-43.2627
-14.1243
15.3631
44.9068
74.1807
102.828
130.472
156.714
181.152
203.383
223.023
239.711
253.113
262.941
268.956
270.971
268.887
262.729
252.55
238.48
220.761
199.706
175.696
149.163
120.573
90.4083
59.1492
27.2706
-4.77286
-36.5591
-67.7067
-97.8839
-126.817
-154.291
-180.146
-204.271
-226.602
-247.119
-265.847
-282.791
-298.121
-311.893
-324.188
-335.106
-344.748
-353.219
-360.621
-367.049
-372.587
-377.309
-381.272
-384.521
-387.082
-388.97
-390.188