/*--------------------------------*- C++ -*----------------------------------*\
| =========                 |                                                 |
| \\      /  F ield         | OpenFOAM: The Open Source CFD Toolbox           |
|  \\    /   O peration     | Version:  3.0.1                                 |
|   \\  /    A nd           | Web:      www.OpenFOAM.org                      |
|    \\/     M anipulation  |                                                 |
\*---------------------------------------------------------------------------*/
FoamFile
{
    version     2.0;
    format      ascii;
    class       surfaceScalarField;
    location    "27.8";
    object      alphaPhi;
}
// * * * * * * * * * * * * * * * * * * * * * * * * * * * * * * * * * * * * * //

dimensions      [0 3 -1 0 0 0 0];

internalField   nonuniform List<scalar> 
42423
(
-0.000172303
3.35992e-06
-0.00017489
2.58685e-06
-0.000176786
1.89648e-06
-0.000177995
1.20885e-06
-0.00017854
5.44584e-07
-0.000178405
-1.35202e-07
-0.000177467
-9.37279e-07
-0.000175859
-1.60792e-06
-0.000173557
-2.30202e-06
-0.000170506
-3.05145e-06
-0.000166644
-3.86215e-06
-0.000162088
-4.55622e-06
-0.000156554
-5.53368e-06
-0.000150167
-6.38666e-06
-0.00014287
-7.29715e-06
-0.000134616
-8.25456e-06
-0.000125528
-9.08779e-06
-0.000115456
-1.00721e-05
-0.000104325
-1.11307e-05
-9.22365e-05
-1.20886e-05
-7.9066e-05
-1.31706e-05
-6.48509e-05
-1.42151e-05
-4.97994e-05
-1.50515e-05
-3.36773e-05
-1.61221e-05
-1.68141e-05
-1.68633e-05
8.39201e-07
-1.76533e-05
1.91745e-05
-1.83353e-05
3.7875e-05
-1.87005e-05
5.69211e-05
-1.90462e-05
7.61566e-05
-1.92355e-05
9.51681e-05
-1.90116e-05
0.000113918
-1.87502e-05
0.000132028
-1.811e-05
0.000149336
-1.73074e-05
0.000165539
-1.62031e-05
0.000180298
-1.47597e-05
0.000193481
-1.31825e-05
0.000204848
-1.13675e-05
0.000214142
-9.29426e-06
0.000221256
-7.11372e-06
0.000226014
-4.7579e-06
0.000228411
-2.39714e-06
0.000228332
7.95564e-08
0.000225733
2.59897e-06
0.00022068
5.05292e-06
0.000213345
7.33496e-06
0.000203837
9.50768e-06
0.000192269
1.15674e-05
0.000178975
1.32941e-05
0.000164073
1.49021e-05
0.000147826
1.62476e-05
0.000130496
1.733e-05
0.000112444
1.80517e-05
9.38736e-05
1.85702e-05
7.49467e-05
1.89268e-05
5.59743e-05
1.89724e-05
3.713e-05
1.88443e-05
1.86169e-05
1.85131e-05
6.64715e-07
1.79522e-05
-1.66705e-05
1.73352e-05
-3.32348e-05
1.65643e-05
-4.89819e-05
1.57471e-05
-6.37962e-05
1.48143e-05
-7.76527e-05
1.38565e-05
-9.05567e-05
1.2904e-05
-0.000102441
1.18843e-05
-0.000113331
1.08898e-05
-0.000123263
9.93184e-06
-0.000132208
8.9454e-06
-0.00014028
8.0723e-06
-0.000147437
7.15673e-06
-0.000153685
6.24801e-06
-0.00015917
5.48508e-06
-0.000163796
4.6257e-06
-0.000167573
3.77664e-06
-0.00017061
3.03741e-06
-0.000172787
2.17663e-06
-0.000174192
1.4047e-06
-0.000174822
6.30281e-07
-0.000174558
-2.63602e-07
-0.000173488
-1.07086e-06
-0.000171603
-1.885e-06
-0.000168829
-2.77366e-06
-0.000165237
-3.59214e-06
-0.000160799
-4.4383e-06
-0.00015551
-5.28855e-06
-0.000149484
-6.02664e-06
-0.000142582
-6.90188e-06
-0.000135002
-7.57991e-06
-0.000126635
-8.36697e-06
-0.000117693
-8.94192e-06
-0.000108019
-9.67465e-06
-9.77358e-05
-1.02832e-05
-8.66065e-05
-1.11294e-05
-7.47405e-05
-1.18661e-05
-6.20543e-05
-1.26862e-05
-4.85773e-05
-1.34771e-05
-3.43565e-05
-1.42209e-05
-1.94297e-05
-1.49268e-05
-3.83773e-06
-1.55921e-05
1.23558e-05
-1.61936e-05
2.92049e-05
-1.68492e-05
4.64484e-05
-1.72436e-05
6.40724e-05
-1.7624e-05
8.18621e-05
-1.77898e-05
9.96054e-05
-1.77434e-05
0.000117122
-1.75163e-05
0.000134172
-1.70509e-05
0.000150523
-1.6351e-05
0.000165957
-1.5434e-05
0.000180202
-1.42449e-05
0.00019303
-1.2828e-05
0.000204227
-1.11972e-05
0.000213551
-9.32341e-06
0.000220792
-7.24171e-06
0.000225824
-5.03191e-06
0.000228459
-2.63511e-06
0.0002287
-2.40923e-07
0.000226487
2.21278e-06
0.000221699
4.78833e-06
0.000214579
7.11971e-06
0.000205208
9.37104e-06
0.000193709
1.14984e-05
0.000180398
1.33118e-05
0.000165464
1.4934e-05
0.000149127
1.63363e-05
0.000131759
1.73686e-05
0.00011357
1.81882e-05
9.49508e-05
1.86196e-05
7.60892e-05
1.88616e-05
5.71972e-05
1.88919e-05
3.86199e-05
1.85773e-05
2.04951e-05
1.81248e-05
3.02218e-06
1.74729e-05
-1.3654e-05
1.66762e-05
-2.95406e-05
1.58866e-05
-4.44015e-05
1.48609e-05
-5.82743e-05
1.38728e-05
-7.10545e-05
1.27802e-05
-8.27333e-05
1.16789e-05
-9.32884e-05
1.05551e-05
-0.000102723
9.43456e-06
-0.00011118
8.45724e-06
-0.000118546
7.3661e-06
-0.000124909
6.36317e-06
-0.000130308
5.3988e-06
-0.000134804
4.49596e-06
-0.000138504
3.69941e-06
-0.000141465
2.9616e-06
-0.000143735
2.26929e-06
-0.000145427
1.69208e-06
-0.000146505
1.07853e-06
-0.000147141
6.36124e-07
-0.000147158
1.69004e-08
-0.000146663
-4.95005e-07
-0.00014567
-9.93406e-07
-0.000144119
-1.55064e-06
-0.000142054
-2.06498e-06
-0.000139499
-2.55536e-06
-0.000136246
-3.25241e-06
-0.000132462
-3.78428e-06
-0.00012797
-4.49223e-06
-0.000122858
-5.11191e-06
-0.000116981
-5.87757e-06
-0.000110358
-6.62231e-06
-0.000102878
-7.47996e-06
-9.46952e-05
-8.18309e-06
-8.55933e-05
-9.10194e-06
-7.56336e-05
-9.95968e-06
-6.47603e-05
-1.08734e-05
-5.2992e-05
-1.17683e-05
-4.03041e-05
-1.26879e-05
-2.67714e-05
-1.35327e-05
-1.24103e-05
-1.43612e-05
2.74151e-06
-1.51518e-05
1.86701e-05
-1.59286e-05
3.53539e-05
-1.66838e-05
5.26138e-05
-1.726e-05
7.02761e-05
-1.76623e-05
8.82208e-05
-1.79448e-05
0.000106247
-1.80264e-05
0.000124181
-1.79342e-05
0.000141699
-1.75174e-05
0.000158602
-1.69037e-05
0.000174654
-1.60519e-05
0.000189552
-1.4898e-05
0.000203018
-1.34656e-05
0.000214833
-1.18158e-05
0.000224793
-9.96007e-06
0.000232626
-7.8325e-06
0.000238204
-5.5785e-06
0.000241432
-3.22821e-06
0.000242278
-8.45249e-07
0.000240635
1.64306e-06
0.000236524
4.1106e-06
0.000230041
6.4831e-06
0.000221336
8.70445e-06
0.00021058
1.07563e-05
0.000197955
1.26245e-05
0.000183714
1.42411e-05
0.00016811
1.56043e-05
0.00015139
1.67197e-05
0.000133832
1.75579e-05
0.00011569
1.81426e-05
9.72313e-05
1.84585e-05
7.86888e-05
1.85425e-05
6.0287e-05
1.84018e-05
4.22195e-05
1.80675e-05
2.465e-05
1.75695e-05
7.70349e-06
1.69466e-05
-8.50123e-06
1.62047e-05
-2.38464e-05
1.53451e-05
-3.83117e-05
1.44654e-05
-5.18039e-05
1.34922e-05
-6.43279e-05
1.2524e-05
-7.57798e-05
1.14519e-05
-8.61676e-05
1.03877e-05
-9.5591e-05
9.42339e-06
-0.000104033
8.44237e-06
-0.000111456
7.42246e-06
-0.000118125
6.66946e-06
-0.000123771
5.64619e-06
-0.000128691
4.919e-06
-0.00013282
4.1295e-06
-0.000136081
3.26123e-06
-0.000138631
2.55014e-06
-0.00014046
1.82892e-06
-0.00014159
1.12943e-06
-0.000142133
5.43286e-07
-0.000142026
-1.07303e-07
-0.000141274
-7.52194e-07
-0.000139895
-1.37893e-06
-0.000138034
-1.86051e-06
-0.000135488
-2.54645e-06
-0.000132361
-3.12709e-06
-0.00012856
-3.80037e-06
-0.000124171
-4.38936e-06
-0.000119035
-5.13607e-06
-0.000113357
-5.67827e-06
-0.000106933
-6.42394e-06
-9.98085e-05
-7.12419e-06
-9.2012e-05
-7.7965e-06
-8.34351e-05
-8.57693e-06
-7.41533e-05
-9.28186e-06
-6.41401e-05
-1.00132e-05
-5.3357e-05
-1.07832e-05
-4.17442e-05
-1.16128e-05
-2.92542e-05
-1.249e-05
-1.61465e-05
-1.31077e-05
-2.27185e-06
-1.38747e-05
1.23323e-05
-1.46042e-05
2.76019e-05
-1.52696e-05
4.33576e-05
-1.57558e-05
5.94814e-05
-1.61238e-05
7.59799e-05
-1.64986e-05
9.25629e-05
-1.6583e-05
0.000109174
-1.66115e-05
0.000125534
-1.63602e-05
0.000141437
-1.59025e-05
0.00015662
-1.51835e-05
0.00017083
-1.42096e-05
0.000183809
-1.29792e-05
0.000195288
-1.14795e-05
0.000204953
-9.66438e-06
0.000212701
-7.74787e-06
0.000218252
-5.5513e-06
0.000221528
-3.27662e-06
0.000222368
-8.39424e-07
0.000220869
1.49878e-06
0.000216981
3.88796e-06
0.0002108
6.18063e-06
0.000202535
8.26482e-06
0.000192477
1.00579e-05
0.000180849
1.16278e-05
0.000167792
1.30569e-05
0.000153594
1.41984e-05
0.000138593
1.50004e-05
0.000122866
1.57272e-05
0.00010665
1.62158e-05
9.02051e-05
1.64451e-05
7.35783e-05
1.66267e-05
5.70832e-05
1.64951e-05
4.06526e-05
1.64306e-05
2.46046e-05
1.60479e-05
8.99637e-06
1.56083e-05
-6.19876e-06
1.51951e-05
-2.08666e-05
1.46678e-05
-3.4841e-05
1.39744e-05
-4.80774e-05
1.32364e-05
-6.04411e-05
1.23637e-05
-7.19408e-05
1.14997e-05
-8.25296e-05
1.05888e-05
-9.21745e-05
9.64489e-06
-0.000100934
8.75906e-06
-0.000108797
7.8633e-06
-0.000115797
7.00035e-06
-0.000122002
6.20497e-06
-0.000127421
5.41896e-06
-0.000132098
4.67653e-06
-0.000136077
3.97985e-06
-0.000139351
3.27401e-06
-0.000141993
2.64191e-06
-0.000143994
2.00013e-06
-0.000145326
1.33211e-06
-0.000146081
7.55313e-07
-0.000146223
1.42172e-07
-0.000145639
-5.84405e-07
-0.000144438
-1.201e-06
-0.000142502
-1.93574e-06
-0.000139994
-2.50803e-06
-0.00013682
-3.17349e-06
-0.000132944
-3.87597e-06
-0.000128378
-4.56609e-06
-0.000123072
-5.30684e-06
-0.000116862
-6.21001e-06
-0.000109917
-6.94467e-06
-0.00010199
-7.92704e-06
-9.31702e-05
-8.81973e-06
-8.35158e-05
-9.65436e-06
-7.28094e-05
-1.07064e-05
-6.12599e-05
-1.15496e-05
-4.88513e-05
-1.24086e-05
-3.54364e-05
-1.34149e-05
-2.127e-05
-1.41664e-05
-6.26545e-06
-1.50046e-05
9.36208e-06
-1.56276e-05
2.54439e-05
-1.60819e-05
4.19857e-05
-1.65418e-05
5.88983e-05
-1.69127e-05
7.58479e-05
-1.69496e-05
9.28118e-05
-1.69639e-05
0.000109627
-1.68151e-05
0.00012599
-1.63632e-05
0.000141764
-1.5774e-05
0.00015673
-1.49664e-05
0.000170688
-1.39575e-05
0.000183479
-1.2791e-05
0.000194865
-1.13861e-05
0.000204677
-9.81174e-06
0.000212733
-8.05632e-06
0.000218866
-6.13347e-06
0.000222973
-4.10704e-06
0.000224969
-1.99519e-06
0.000224812
1.56273e-07
0.000222433
2.37943e-06
0.000217697
4.73622e-06
0.000210919
6.77721e-06
0.000202065
8.85463e-06
0.000191254
1.08102e-05
0.000178798
1.24561e-05
0.000164723
1.40758e-05
0.000149448
1.52741e-05
0.000133044
1.64046e-05
0.000115667
1.73766e-05
9.7836e-05
1.78312e-05
7.95661e-05
1.82699e-05
1.83951e-05
-0.000172342
6.72956e-06
-0.00017493
5.17503e-06
-0.000176828
3.79469e-06
-0.000178044
2.42464e-06
-0.000178594
1.09456e-06
-0.000178458
-2.71877e-07
-0.000177517
-1.8782e-06
-0.000175905
-3.2195e-06
-0.000173606
-4.60116e-06
-0.000170552
-6.10576e-06
-0.000166696
-7.71819e-06
-0.000162132
-9.1198e-06
-0.000156607
-1.10591e-05
-0.000150222
-1.27717e-05
-0.000142927
-1.45917e-05
-0.000134672
-1.65101e-05
-0.000125586
-1.81733e-05
-0.000115514
-2.01445e-05
-0.000104379
-2.22658e-05
-9.22889e-05
-2.41786e-05
-7.91211e-05
-2.63384e-05
-6.49094e-05
-2.84269e-05
-4.98565e-05
-3.01044e-05
-3.37265e-05
-3.22522e-05
-1.68505e-05
-3.37394e-05
8.12723e-07
-3.53166e-05
1.91582e-05
-3.66809e-05
3.78671e-05
-3.74095e-05
5.69154e-05
-3.80945e-05
7.61645e-05
-3.84847e-05
9.51853e-05
-3.80325e-05
0.00011395
-3.75145e-05
0.000132077
-3.62378e-05
0.000149401
-3.46312e-05
0.000165614
-3.24161e-05
0.00018039
-2.95361e-05
0.000193581
-2.63732e-05
0.000204958
-2.27446e-05
0.000214258
-1.85949e-05
0.000221375
-1.42304e-05
0.000226139
-9.52151e-06
0.000228542
-4.80011e-06
0.000228458
1.62893e-07
0.000225854
5.20334e-06
0.000220801
1.01056e-05
0.000213461
1.46746e-05
0.000203947
1.90216e-05
0.000192379
2.31357e-05
0.000179065
2.66076e-05
0.000164155
2.98121e-05
0.000147892
3.25114e-05
0.000130549
3.46723e-05
0.000112486
3.61151e-05
9.39091e-05
3.7147e-05
7.49706e-05
3.78653e-05
5.59875e-05
3.79555e-05
3.71333e-05
3.76985e-05
1.86043e-05
3.70421e-05
6.4526e-07
3.59112e-05
-1.66936e-05
3.4674e-05
-3.326e-05
3.31308e-05
-4.90117e-05
3.14987e-05
-6.38289e-05
2.96315e-05
-7.76866e-05
2.77142e-05
-9.05921e-05
2.58095e-05
-0.000102474
2.37662e-05
-0.000113364
2.17797e-05
-0.000123299
1.98672e-05
-0.000132246
1.78916e-05
-0.000140319
1.61453e-05
-0.000147474
1.43118e-05
-0.00015372
1.24942e-05
-0.000159203
1.09679e-05
-0.000163825
9.24764e-06
-0.000167586
7.53772e-06
-0.000170613
6.06484e-06
-0.000172801
4.36389e-06
-0.000174201
2.80534e-06
-0.000174808
1.23694e-06
-0.000174561
-5.10812e-07
-0.000173508
-2.12376e-06
-0.000171625
-3.76866e-06
-0.000168857
-5.54179e-06
-0.000165268
-7.18097e-06
-0.000160834
-8.8718e-06
-0.00015555
-1.05729e-05
-0.000149527
-1.20502e-05
-0.00014263
-1.37991e-05
-0.000135049
-1.51608e-05
-0.000126688
-1.67276e-05
-0.000117753
-1.78775e-05
-0.000108077
-1.93507e-05
-9.77877e-05
-2.05723e-05
-8.666e-05
-2.22572e-05
-7.47995e-05
-2.37266e-05
-6.21184e-05
-2.53673e-05
-4.86649e-05
-2.69307e-05
-3.44147e-05
-2.84711e-05
-1.9485e-05
-2.98567e-05
-3.89528e-06
-3.11818e-05
1.23079e-05
-3.23968e-05
2.9172e-05
-3.37134e-05
4.64348e-05
-3.45065e-05
6.40731e-05
-3.52625e-05
8.18733e-05
-3.55901e-05
9.96291e-05
-3.54993e-05
0.000117173
-3.50604e-05
0.000134223
-3.41007e-05
0.000150587
-3.27151e-05
0.000166035
-3.0882e-05
0.000180293
-2.85032e-05
0.000193143
-2.56788e-05
0.000204351
-2.24053e-05
0.000213677
-1.86493e-05
0.000220931
-1.44954e-05
0.000225963
-1.00644e-05
0.000228601
-5.27261e-06
0.000228845
-4.84955e-07
0.000226617
4.43987e-06
0.000221829
9.57657e-06
0.000214704
1.42451e-05
0.000205324
1.87504e-05
0.000193814
2.30085e-05
0.00018048
2.66458e-05
0.00016553
2.98842e-05
0.000149179
3.2687e-05
0.000131805
3.47429e-05
0.0001136
3.63933e-05
9.49548e-05
3.72646e-05
7.60899e-05
3.77266e-05
5.71751e-05
3.78067e-05
3.85858e-05
3.71666e-05
2.04413e-05
3.62694e-05
2.96113e-06
3.49531e-05
-1.37111e-05
3.33485e-05
-2.9605e-05
3.17805e-05
-4.44813e-05
2.97372e-05
-5.83595e-05
2.7751e-05
-7.1139e-05
2.55597e-05
-8.28211e-05
2.3361e-05
-9.33818e-05
2.11158e-05
-0.000102814
1.88665e-05
-0.000111275
1.6918e-05
-0.000118646
1.4738e-05
-0.000125009
1.27261e-05
-0.000130414
1.08031e-05
-0.000134908
8.99069e-06
-0.0001386
7.39084e-06
-0.00014155
5.91229e-06
-0.000143824
4.54284e-06
-0.000145514
3.38206e-06
-0.000146599
2.1635e-06
-0.000147231
1.26856e-06
-0.000147247
3.2365e-08
-0.000146756
-9.85957e-07
-0.000145768
-1.98102e-06
-0.000144222
-3.09682e-06
-0.000142154
-4.13304e-06
-0.000139593
-5.11617e-06
-0.000136345
-6.50021e-06
-0.000132555
-7.57456e-06
-0.000128068
-8.97971e-06
-0.000122949
-1.0231e-05
-0.000117064
-1.17627e-05
-0.000110441
-1.32446e-05
-0.000102989
-1.49327e-05
-9.47823e-05
-1.63895e-05
-8.56829e-05
-1.82013e-05
-7.57085e-05
-1.99341e-05
-6.48552e-05
-2.17268e-05
-5.30771e-05
-2.35464e-05
-4.03714e-05
-2.53937e-05
-2.6836e-05
-2.70681e-05
-1.24645e-05
-2.87328e-05
2.69082e-06
-3.03072e-05
1.86227e-05
-3.18606e-05
3.53165e-05
-3.33777e-05
5.25929e-05
-3.45365e-05
7.02629e-05
-3.53324e-05
8.82242e-05
-3.59062e-05
0.00010627
-3.60724e-05
0.000124215
-3.58791e-05
0.000141746
-3.50484e-05
0.000158666
-3.3824e-05
0.000174736
-3.21219e-05
0.000189653
-2.98149e-05
0.000203131
-2.69437e-05
0.00021496
-2.36451e-05
0.000224921
-1.99211e-05
0.000232759
-1.56702e-05
0.000238346
-1.11662e-05
0.000241583
-6.46538e-06
0.000242427
-1.68862e-06
0.000240771
3.29829e-06
0.000236658
8.22417e-06
0.000230166
1.29746e-05
0.000221456
1.74152e-05
0.000210684
2.1528e-05
0.000198039
2.52692e-05
0.000183793
2.84874e-05
0.000168179
3.12185e-05
0.000151459
3.34395e-05
0.000133861
3.51556e-05
0.000115707
3.62971e-05
9.72375e-05
3.69278e-05
7.86817e-05
3.70984e-05
6.0262e-05
3.68215e-05
4.21809e-05
3.61486e-05
2.46036e-05
3.51468e-05
7.64979e-06
3.39004e-05
-8.55875e-06
3.24133e-05
-2.39094e-05
3.06958e-05
-3.83891e-05
2.89451e-05
-5.18846e-05
2.69878e-05
-6.44072e-05
2.50466e-05
-7.58662e-05
2.29108e-05
-8.62602e-05
2.07818e-05
-9.56765e-05
1.88397e-05
-0.000104125
1.68905e-05
-0.000111552
1.48496e-05
-0.000118213
1.33304e-05
-0.000123864
1.12971e-05
-0.000128799
9.85457e-06
-0.000132922
8.25228e-06
-0.000136179
6.51825e-06
-0.00013873
5.10151e-06
-0.000140549
3.64805e-06
-0.000141684
2.26418e-06
-0.000142238
1.09723e-06
-0.000142111
-2.34022e-07
-0.000141364
-1.49971e-06
-0.000140024
-2.71874e-06
-0.000138138
-3.74667e-06
-0.000135596
-5.08833e-06
-0.000132455
-6.26827e-06
-0.00012865
-7.60556e-06
-0.000124257
-8.78233e-06
-0.000119146
-1.02472e-05
-0.000113441
-1.13829e-05
-0.000107026
-1.2839e-05
-9.99103e-05
-1.42399e-05
-9.20869e-05
-1.56199e-05
-8.35164e-05
-1.71475e-05
-7.42395e-05
-1.85587e-05
-6.42218e-05
-2.00309e-05
-5.34408e-05
-2.15642e-05
-4.18138e-05
-2.32398e-05
-2.9349e-05
-2.49549e-05
-1.62062e-05
-2.62505e-05
-2.32428e-06
-2.77567e-05
1.22887e-05
-2.92173e-05
2.75628e-05
-3.05437e-05
4.33338e-05
-3.15269e-05
5.94612e-05
-3.22513e-05
7.59628e-05
-3.30003e-05
9.2569e-05
-3.31893e-05
0.000109193
-3.32354e-05
0.000125567
-3.27343e-05
0.000141491
-3.18266e-05
0.000156696
-3.03883e-05
0.000170916
-2.84299e-05
0.000183901
-2.59647e-05
0.000195395
-2.29732e-05
0.000205066
-1.93357e-05
0.000212823
-1.55051e-05
0.000218384
-1.11117e-05
0.000221661
-6.55373e-06
0.000222502
-1.68103e-06
0.000220992
3.00884e-06
0.000217098
7.78185e-06
0.000210919
1.23596e-05
0.000202643
1.65403e-05
0.000192569
2.01319e-05
0.000180925
2.32723e-05
0.000167854
2.61278e-05
0.000153642
2.84098e-05
0.000138623
3.00199e-05
0.000122881
3.14687e-05
0.000106653
3.24438e-05
9.01968e-05
3.29015e-05
7.35589e-05
3.32646e-05
5.70559e-05
3.29981e-05
4.06211e-05
3.28654e-05
2.4562e-05
3.21071e-05
8.94978e-06
3.12205e-05
-6.2504e-06
3.03953e-05
-2.09228e-05
2.93402e-05
-3.4899e-05
2.79506e-05
-4.81371e-05
2.64745e-05
-6.05028e-05
2.47295e-05
-7.20015e-05
2.29984e-05
-8.25879e-05
2.11752e-05
-9.22318e-05
1.92887e-05
-0.000100989
1.75166e-05
-0.000108853
1.57271e-05
-0.000115855
1.40021e-05
-0.000122057
1.24076e-05
-0.000127473
1.0834e-05
-0.000132148
9.35152e-06
-0.000136127
7.95936e-06
-0.000139402
6.54913e-06
-0.000142044
5.28401e-06
-0.000144048
4.00344e-06
-0.000145382
2.66653e-06
-0.000146139
1.51187e-06
-0.000146282
2.85468e-07
-0.000145692
-1.17393e-06
-0.000144491
-2.40283e-06
-0.000142555
-3.87176e-06
-0.000140042
-5.02094e-06
-0.000136882
-6.33263e-06
-0.000133
-7.75887e-06
-0.000128432
-9.13333e-06
-0.000123128
-1.06111e-05
-0.000116925
-1.24133e-05
-0.000109974
-1.38952e-05
-0.000102049
-1.58527e-05
-9.32231e-05
-1.76454e-05
-8.35715e-05
-1.9306e-05
-7.28613e-05
-2.14166e-05
-6.13075e-05
-2.31033e-05
-4.88854e-05
-2.48309e-05
-3.54755e-05
-2.68248e-05
-2.13056e-05
-2.83364e-05
-6.29515e-06
-3.00151e-05
9.3319e-06
-3.12547e-05
2.54201e-05
-3.21701e-05
4.19692e-05
-3.3091e-05
5.88942e-05
-3.38378e-05
7.5849e-05
-3.39045e-05
9.28228e-05
-3.39377e-05
0.000109647
-3.36395e-05
0.000126023
-3.27389e-05
0.000141811
-3.15628e-05
0.00015679
-2.99452e-05
0.000170754
-2.79216e-05
0.000183558
-2.55951e-05
0.000194952
-2.27799e-05
0.00020477
-1.96303e-05
0.000212833
-1.6119e-05
0.000218972
-1.22728e-05
0.000223085
-8.21994e-06
0.000225094
-4.00427e-06
0.000224933
3.17579e-07
0.000222542
4.77056e-06
0.000217804
9.47387e-06
0.000211025
1.35565e-05
0.000202163
1.77162e-05
0.000191339
2.16336e-05
0.000178874
2.49216e-05
0.000164786
2.81636e-05
0.0001495
3.05598e-05
0.000133083
3.28217e-05
0.000115694
3.47651e-05
9.78517e-05
3.56739e-05
7.95706e-05
3.65509e-05
3.68012e-05
-0.000172404
1.01027e-05
-0.000174999
7.76987e-06
-0.000176903
5.69911e-06
-0.000178119
3.64043e-06
-0.000178655
1.63063e-06
-0.000178514
-4.13473e-07
-0.000177579
-2.81268e-06
-0.00017596
-4.83853e-06
-0.000173664
-6.89792e-06
-0.000170611
-9.15818e-06
-0.000166755
-1.15747e-05
-0.000162197
-1.36776e-05
-0.000156669
-1.65873e-05
-0.000150291
-1.91491e-05
-0.000142995
-2.18883e-05
-0.000134743
-2.47618e-05
-0.000125667
-2.72493e-05
-0.000115586
-3.02256e-05
-0.000104451
-3.34006e-05
-9.23639e-05
-3.6266e-05
-7.92103e-05
-3.94922e-05
-6.50141e-05
-4.26231e-05
-4.99558e-05
-4.51627e-05
-3.3818e-05
-4.83901e-05
-1.69166e-05
-5.06409e-05
7.70934e-07
-5.30042e-05
1.91328e-05
-5.50428e-05
3.78561e-05
-5.61328e-05
5.69207e-05
-5.71591e-05
7.61893e-05
-5.77535e-05
9.5226e-05
-5.70692e-05
0.000114012
-5.63004e-05
0.000132157
-5.43831e-05
0.000149501
-5.19756e-05
0.000165737
-4.86513e-05
0.000180534
-4.43338e-05
0.000193743
-3.95823e-05
0.00020514
-3.41415e-05
0.000214452
-2.79072e-05
0.000221575
-2.13535e-05
0.000226346
-1.42922e-05
0.000228753
-7.20758e-06
0.000228656
2.60249e-07
0.000226032
7.82679e-06
0.000220978
1.51603e-05
0.000213633
2.20188e-05
0.0002041
2.85544e-05
0.000192523
3.47127e-05
0.000179186
3.99452e-05
0.000164262
4.47353e-05
0.000147967
4.88064e-05
0.000130609
5.20309e-05
0.000112522
5.42015e-05
9.39361e-05
5.5733e-05
7.4979e-05
5.68224e-05
5.59789e-05
5.69556e-05
3.71098e-05
5.65676e-05
1.85681e-05
5.55838e-05
6.03273e-07
5.3876e-05
-1.67459e-05
5.20232e-05
-3.3319e-05
4.97039e-05
-4.90747e-05
4.72544e-05
-6.38933e-05
4.445e-05
-7.77536e-05
4.15745e-05
-9.06606e-05
3.87166e-05
-0.00010254
3.56458e-05
-0.000113425
3.26648e-05
-0.000123351
2.97927e-05
-0.000132291
2.68314e-05
-0.000140364
2.42188e-05
-0.00014751
2.14578e-05
-0.000153745
1.87285e-05
-0.000159214
1.64369e-05
-0.000163834
1.38682e-05
-0.000167604
1.13071e-05
-0.000170625
9.08602e-06
-0.00017279
6.52926e-06
-0.00017419
4.20466e-06
-0.000174813
1.85995e-06
-0.00017458
-7.44172e-07
-0.000173523
-3.18007e-06
-0.00017164
-5.65169e-06
-0.000168875
-8.30718e-06
-0.000165285
-1.07714e-05
-0.000160855
-1.33018e-05
-0.000155576
-1.58519e-05
-0.000149559
-1.80676e-05
-0.000142669
-2.06894e-05
-0.000135089
-2.2741e-05
-0.000126735
-2.50811e-05
-0.000117811
-2.68013e-05
-0.000108148
-2.90144e-05
-9.78552e-05
-3.0865e-05
-8.67362e-05
-3.33762e-05
-7.48719e-05
-3.55909e-05
-6.22055e-05
-3.80338e-05
-4.87805e-05
-4.03558e-05
-3.45432e-05
-4.27084e-05
-1.95787e-05
-4.48212e-05
-3.98849e-06
-4.67721e-05
1.2216e-05
-4.86014e-05
2.90904e-05
-5.0588e-05
4.63633e-05
-5.17795e-05
6.40315e-05
-5.29307e-05
8.18494e-05
-5.34081e-05
9.96186e-05
-5.32686e-05
0.000117187
-5.26291e-05
0.000134254
-5.11676e-05
0.000150636
-4.9097e-05
0.000166097
-4.63432e-05
0.000180376
-4.2782e-05
0.000193261
-3.85645e-05
0.000204477
-3.36208e-05
0.000213818
-2.79907e-05
0.000221112
-2.17897e-05
0.000226126
-1.50783e-05
0.000228776
-7.92226e-06
0.000229042
-7.51099e-07
0.000226758
6.72336e-06
0.000221972
1.43625e-05
0.00021483
2.1387e-05
0.000205426
2.81552e-05
0.000193924
3.45105e-05
0.000180571
3.99989e-05
0.000165601
4.48542e-05
0.00014922
4.90679e-05
0.000131821
5.21412e-05
0.000113602
5.46125e-05
9.49345e-05
5.59321e-05
7.6067e-05
5.65941e-05
5.71145e-05
5.67592e-05
3.84973e-05
5.57838e-05
2.03386e-05
5.44281e-05
2.85555e-06
5.24362e-05
-1.38179e-05
5.0022e-05
-2.97145e-05
4.76771e-05
-4.46072e-05
4.46299e-05
-5.8494e-05
4.16379e-05
-7.12764e-05
3.83421e-05
-8.29508e-05
3.50354e-05
-9.35145e-05
3.16794e-05
-0.000102939
2.82915e-05
-0.0001114
2.53784e-05
-0.000118778
2.2116e-05
-0.000125138
1.90861e-05
-0.000130534
1.61992e-05
-0.000135013
1.34699e-05
-0.000138704
1.10815e-05
-0.000141654
8.86229e-06
-0.000143924
6.81326e-06
-0.000145609
5.06664e-06
-0.000146693
3.24749e-06
-0.00014732
1.89583e-06
-0.000147338
5.0251e-08
-0.000146846
-1.4782e-06
-0.000145848
-2.97832e-06
-0.00014431
-4.63564e-06
-0.000142247
-6.19551e-06
-0.000139695
-7.66846e-06
-0.000136438
-9.75748e-06
-0.000132657
-1.13552e-05
-0.000128174
-1.34623e-05
-0.000123042
-1.53633e-05
-0.000117148
-1.76566e-05
-0.00011053
-1.98629e-05
-0.000103114
-2.23483e-05
-9.4884e-05
-2.46195e-05
-8.57836e-05
-2.73017e-05
-7.58104e-05
-2.99073e-05
-6.49688e-05
-3.25684e-05
-5.31946e-05
-3.53206e-05
-4.04786e-05
-3.81097e-05
-2.69389e-05
-4.06078e-05
-1.25616e-05
-4.31101e-05
2.60038e-06
-4.54692e-05
1.85253e-05
-4.77855e-05
3.52395e-05
-5.0092e-05
5.2498e-05
-5.1795e-05
7.02011e-05
-5.30356e-05
8.81906e-05
-5.38957e-05
0.000106249
-5.41311e-05
0.000124221
-5.38505e-05
0.000141768
-5.25953e-05
0.000158702
-5.07588e-05
0.000174787
-4.82067e-05
0.000189739
-4.47666e-05
0.000203242
-4.04471e-05
0.000215085
-3.54878e-05
0.000225054
-2.98908e-05
0.000232909
-2.35252e-05
0.000238507
-1.6764e-05
0.000241754
-9.71274e-06
0.00024259
-2.52454e-06
0.000240912
4.97648e-06
0.0002368
1.23357e-05
0.000230308
1.94665e-05
0.000221582
2.61412e-05
0.0002108
3.23104e-05
0.00019813
3.79392e-05
0.000183859
4.27585e-05
0.000168226
4.68516e-05
0.000151508
5.01573e-05
0.000133865
5.27985e-05
0.000115688
5.44736e-05
9.71976e-05
5.54187e-05
7.86333e-05
5.56626e-05
6.01961e-05
5.52588e-05
4.20977e-05
5.4247e-05
2.45082e-05
5.27364e-05
7.54258e-06
5.0866e-05
-8.66138e-06
4.86172e-05
-2.40105e-05
4.60449e-05
-3.85025e-05
4.34371e-05
-5.20229e-05
4.05081e-05
-6.45471e-05
3.75709e-05
-7.59929e-05
3.43565e-05
-8.63803e-05
3.11692e-05
-9.58075e-05
2.8267e-05
-0.000104254
2.53368e-05
-0.000111666
2.22619e-05
-0.000118324
1.9988e-05
-0.000123968
1.69414e-05
-0.000128912
1.47989e-05
-0.000133034
1.23742e-05
-0.000136289
9.77316e-06
-0.000138838
7.64981e-06
-0.000140643
5.45395e-06
-0.000141789
3.40948e-06
-0.000142339
1.64717e-06
-0.000142206
-3.6706e-07
-0.000141463
-2.24199e-06
-0.000140136
-4.04619e-06
-0.000138231
-5.65178e-06
-0.000135707
-7.61256e-06
-0.000132562
-9.41264e-06
-0.000128747
-1.14209e-05
-0.000124347
-1.31826e-05
-0.000119243
-1.53505e-05
-0.000113523
-1.71032e-05
-0.000107108
-1.92545e-05
-0.00010001
-2.1337e-05
-9.21687e-05
-2.34617e-05
-8.3601e-05
-2.57153e-05
-7.43364e-05
-2.78233e-05
-6.43113e-05
-3.0056e-05
-5.35448e-05
-3.23307e-05
-4.19207e-05
-3.48639e-05
-2.94703e-05
-3.74053e-05
-1.63018e-05
-3.94191e-05
-2.41866e-06
-4.16399e-05
1.22045e-05
-4.38405e-05
2.74839e-05
-4.58231e-05
4.32661e-05
-4.73092e-05
5.94076e-05
-4.83927e-05
7.59091e-05
-4.95019e-05
9.2574e-05
-4.98542e-05
0.000109188
-4.98495e-05
0.000125577
-4.9123e-05
0.000141519
-4.77685e-05
0.000156746
-4.56154e-05
0.000171007
-4.26914e-05
0.000184002
-3.89595e-05
0.000195512
-3.4483e-05
0.0002052
-2.90243e-05
0.000212982
-2.32867e-05
0.000218544
-1.66741e-05
0.000221812
-9.82237e-06
0.000222669
-2.53797e-06
0.000221143
4.53452e-06
0.000217247
1.16781e-05
0.000211084
1.85226e-05
0.0002028
2.48246e-05
0.000192709
3.02222e-05
0.000181041
3.49406e-05
0.000167955
3.9214e-05
0.000153725
4.26397e-05
0.000138674
4.50703e-05
0.000122909
4.72334e-05
0.000106659
4.86946e-05
9.01795e-05
4.93805e-05
7.35223e-05
4.99218e-05
5.70072e-05
4.95132e-05
4.0566e-05
4.93066e-05
2.44862e-05
4.81869e-05
8.86599e-06
4.68407e-05
-6.34121e-06
4.56025e-05
-2.10186e-05
4.40176e-05
-3.50003e-05
4.19323e-05
-4.82404e-05
3.97146e-05
-6.06042e-05
3.70933e-05
-7.21004e-05
3.44946e-05
-8.26834e-05
3.17581e-05
-9.23245e-05
2.89299e-05
-0.000101079
2.62709e-05
-0.000108938
2.35865e-05
-0.000115937
2.10011e-05
-0.000122141
1.86113e-05
-0.000127553
1.6246e-05
-0.000132234
1.40325e-05
-0.000136215
1.19402e-05
-0.000139489
9.8235e-06
-0.000142129
7.92361e-06
-0.000144136
6.01117e-06
-0.000145472
4.00259e-06
-0.000146224
2.26369e-06
-0.00014637
4.30869e-07
-0.000145756
-1.78757e-06
-0.000144546
-3.61258e-06
-0.00014261
-5.80786e-06
-0.000140092
-7.53906e-06
-0.000136958
-9.46632e-06
-0.000133059
-1.16586e-05
-0.000128496
-1.36956e-05
-0.000123196
-1.59116e-05
-0.000117011
-1.85986e-05
-0.000110045
-2.08607e-05
-0.000102121
-2.37767e-05
-9.32949e-05
-2.64717e-05
-8.36464e-05
-2.89545e-05
-7.29371e-05
-3.2126e-05
-6.13813e-05
-3.46592e-05
-4.89466e-05
-3.72656e-05
-3.55373e-05
-4.02341e-05
-2.13625e-05
-4.25112e-05
-6.34305e-06
-4.50346e-05
9.2964e-06
-4.68942e-05
2.53986e-05
-4.82724e-05
4.19622e-05
-4.96546e-05
5.89044e-05
-5.078e-05
7.58732e-05
-5.08734e-05
9.28668e-05
-5.09314e-05
0.000109704
-5.04771e-05
0.000126099
-4.91336e-05
0.000141911
-4.73745e-05
0.000156912
-4.49467e-05
0.000170895
-4.19047e-05
0.000183715
-3.84147e-05
0.000195116
-3.41818e-05
0.000204949
-2.94629e-05
0.000213031
-2.42007e-05
0.000219188
-1.84304e-05
0.000223307
-1.23393e-05
0.000225313
-6.00981e-06
0.000225123
5.06983e-07
0.000222711
7.18339e-06
0.00021797
1.42145e-05
0.000211186
2.03403e-05
0.000202317
2.65848e-05
0.000191473
3.24779e-05
0.000178994
3.74003e-05
0.00016489
4.22679e-05
0.000149587
4.5863e-05
0.000133149
4.92591e-05
0.000115741
5.21729e-05
9.78785e-05
5.35368e-05
7.95776e-05
5.48518e-05
5.52274e-05
-0.000172499
1.34823e-05
-0.000175103
1.03745e-05
-0.000177015
7.61107e-06
-0.000178238
4.86298e-06
-0.000178753
2.14577e-06
-0.000178597
-5.68982e-07
-0.00017767
-3.74041e-06
-0.000176044
-6.46437e-06
-0.000173751
-9.19117e-06
-0.0001707
-1.22089e-05
-0.000166843
-1.54313e-05
-0.000162294
-1.82265e-05
-0.000156761
-2.21207e-05
-0.000150405
-2.55054e-05
-0.000143096
-2.9197e-05
-0.000134851
-3.30072e-05
-0.000125794
-3.6306e-05
-0.000115693
-4.03265e-05
-0.000104558
-4.45355e-05
-9.24767e-05
-4.83476e-05
-7.93566e-05
-5.26123e-05
-6.51364e-05
-5.68433e-05
-5.00668e-05
-6.02323e-05
-3.39445e-05
-6.45125e-05
-1.70242e-05
-6.75613e-05
7.1011e-07
-7.07385e-05
1.90951e-05
-7.34279e-05
3.78386e-05
-7.48764e-05
5.69286e-05
-7.62492e-05
7.62252e-05
-7.70501e-05
9.52877e-05
-7.61318e-05
0.000114105
-7.51179e-05
0.00013228
-7.25584e-05
0.000149661
-6.93561e-05
0.000165929
-6.49191e-05
0.000180758
-5.9163e-05
0.000193995
-5.282e-05
0.000205419
-4.55656e-05
0.000214743
-3.7231e-05
0.000221884
-2.8494e-05
0.000226666
-1.90746e-05
0.000229073
-9.61451e-06
0.000228952
3.81212e-07
0.000226303
1.04761e-05
0.000221243
2.02193e-05
0.000213892
2.937e-05
0.00020433
3.81168e-05
0.000192735
4.63077e-05
0.000179365
5.3315e-05
0.000164422
5.96777e-05
0.000148082
6.51471e-05
0.000130697
6.9416e-05
0.000112576
7.23227e-05
9.39471e-05
7.43615e-05
7.49854e-05
7.5784e-05
5.59655e-05
7.59755e-05
3.70745e-05
7.54585e-05
1.85161e-05
7.41422e-05
5.3832e-07
7.18538e-05
-1.68232e-05
6.93847e-05
-3.34019e-05
6.62825e-05
-4.91645e-05
6.30171e-05
-6.39849e-05
5.92704e-05
-7.78435e-05
5.54331e-05
-9.07506e-05
5.16236e-05
-0.000102625
4.752e-05
-0.000113508
4.3548e-05
-0.000123431
3.97157e-05
-0.00013236
3.576e-05
-0.000140425
3.2284e-05
-0.000147561
2.85935e-05
-0.000153784
2.49522e-05
-0.000159239
2.18912e-05
-0.000163843
1.84719e-05
-0.000167595
1.50591e-05
-0.00017059
1.20814e-05
-0.000172737
8.67652e-06
-0.000174175
5.64248e-06
-0.000174831
2.51539e-06
-0.000174601
-9.73801e-07
-0.000173541
-4.24009e-06
-0.000171667
-7.52608e-06
-0.000168906
-1.10684e-05
-0.000165305
-1.43725e-05
-0.000160884
-1.77223e-05
-0.000155616
-2.11208e-05
-0.000149606
-2.40772e-05
-0.000142735
-2.75603e-05
-0.000135156
-3.03206e-05
-0.00012681
-3.34269e-05
-0.000117899
-3.57126e-05
-0.000108258
-3.86556e-05
-9.79743e-05
-4.11485e-05
-8.68646e-05
-4.4486e-05
-7.4989e-05
-4.74666e-05
-6.23397e-05
-5.06831e-05
-4.89422e-05
-5.37534e-05
-3.47086e-05
-5.69421e-05
-1.97592e-05
-5.97707e-05
-4.18136e-06
-6.235e-05
1.20831e-05
-6.48659e-05
2.89802e-05
-6.74851e-05
4.62644e-05