/*--------------------------------*- C++ -*----------------------------------*\
| =========                 |                                                 |
| \\      /  F ield         | OpenFOAM: The Open Source CFD Toolbox           |
|  \\    /   O peration     | Version:  3.0.1                                 |
|   \\  /    A nd           | Web:      www.OpenFOAM.org                      |
|    \\/     M anipulation  |                                                 |
\*---------------------------------------------------------------------------*/
FoamFile
{
    version     2.0;
    format      ascii;
    class       volScalarField;
    location    "18";
    object      p_rgh;
}
// * * * * * * * * * * * * * * * * * * * * * * * * * * * * * * * * * * * * * //

dimensions      [1 -1 -2 0 0 0 0];

internalField   nonuniform List<scalar> 
22680
(
-231.268
-247.006
-261.509
-274.757
-286.751
-297.507
-307.052
-315.409
-322.61
-328.68
-333.648
-337.537
-340.368
-342.163
-342.926
-342.648
-341.295
-338.904
-335.472
-330.985
-325.446
-318.831
-311.136
-302.325
-292.394
-281.304
-269.048
-255.59
-240.925
-225.028
-207.894
-189.518
-169.901
-149.079
-127.068
-103.904
-79.666
-54.4054
-28.2305
-1.18826
26.7806
55.3251
83.9022
112.566
141.101
169.336
197.021
223.956
249.89
274.609
297.873
319.452
339.155
356.774
372.128
385.052
395.406
403.082
407.994
410.082
409.328
405.77
399.418
390.294
378.536
364.243
347.568
328.663
307.723
284.937
260.517
234.71
207.745
179.865
151.307
122.315
93.1214
63.9595
35.0499
6.68946
-20.9695
-47.9554
-74.1559
-99.397
-123.563
-146.55
-168.288
-188.718
-207.808
-225.531
-241.881
-256.855
-270.464
-282.723
-293.645
-303.258
-311.587
-318.656
-324.488
-329.115
-332.558
-334.835
-335.967
-335.98
-334.875
-332.652
-329.35
-324.962
-319.489
-312.939
-305.303
-296.576
-286.752
-275.823
-263.78
-250.607
-236.302
-220.848
-204.249
-186.494
-167.608
-147.582
-126.453
-104.261
-81.0503
-56.8725
-31.8183
-5.98315
20.5201
47.5556
75.0423
102.672
130.314
157.762
184.798
211.191
236.704
261.095
284.123
305.551
325.153
342.716
358.041
370.952
381.297
388.949
393.809
395.807
394.91
391.12
384.395
374.93
362.758
347.971
330.754
311.282
289.759
266.41
241.478
215.216
187.887
159.761
131.105
102.178
73.2334
44.5114
16.2339
-11.3971
-38.1998
-64.0178
-88.7165
-112.194
-134.365
-155.174
-174.587
-192.589
-209.186
-224.397
-238.255
-250.808
-262.104
-272.201
-281.148
-289.002
-295.801
-301.592
-306.398
-310.24
-313.132
-315.075
-316.074
-316.113
-315.204
-313.32
-310.435
-306.574
-301.712
-295.84
-288.94
-280.996
-272
-261.925
-250.76
-238.492
-225.105
-210.602
-194.982
-178.257
-160.441
-141.566
-121.655
-100.778
-78.9836
-56.3512
-32.9693
-8.96526
15.5424
40.3975
65.4367
90.4613
115.047
139.316
162.747
184.806
205.191
-231.347
-247.084
-261.585
-274.831
-286.823
-297.577
-307.12
-315.475
-322.674
-328.743
-333.709
-337.597
-340.427
-342.221
-342.985
-342.706
-341.353
-338.962
-335.53
-331.045
-325.507
-318.893
-311.2
-302.39
-292.461
-281.373
-269.119
-255.663
-241
-225.105
-207.972
-189.597
-169.981
-149.159
-127.147
-103.981
-79.7405
-54.4762
-28.2968
-1.24943
26.7252
55.2808
83.8676
112.542
141.089
169.337
197.036
223.985
249.934
274.668
297.947
319.541
339.258
356.89
372.256
385.19
395.553
403.235
408.152
410.249
409.484
405.922
399.567
390.438
378.671
364.368
347.681
328.763
307.809
285.008
260.573
234.751
207.771
179.877
151.305
122.299
93.0926
63.9192
35
6.63405
-21.0315
-48.0243
-74.2309
-99.4767
-123.646
-146.635
-168.375
-188.805
-207.895
-225.616
-241.966
-256.938
-270.545
-282.803
-293.722
-303.333
-311.661
-318.728
-324.558
-329.183
-332.625
-334.901
-336.032
-336.045
-334.936
-332.715
-329.413
-325.025
-319.552
-313.002
-305.367
-296.64
-286.817
-275.889
-263.848
-250.676
-236.372
-220.92
-204.321
-186.568
-167.681
-147.655
-126.527
-104.333
-81.1203
-56.94
-31.882
-6.04218
20.4671
47.5098
75.0045
102.643
130.296
157.756
184.805
211.212
236.74
261.145
284.188
305.63
325.247
342.824
358.161
371.083
381.438
389.098
393.964
395.966
395.07
391.278
384.558
375.077
362.899
348.102
330.873
311.388
289.849
266.485
241.535
215.256
187.91
159.767
131.094
102.152
73.1923
44.4572
16.168
-11.4731
-38.2842
-64.1087
-88.8125
-112.293
-134.466
-155.275
-174.688
-192.687
-209.281
-224.488
-238.342
-250.891
-262.181
-272.274
-281.217
-289.067
-295.863
-301.652
-306.455
-310.296
-313.187
-315.131
-316.129
-316.17
-315.261
-313.375
-310.492
-306.632
-301.771
-295.9
-289.001
-281.058
-272.063
-261.99
-250.826
-238.559
-225.173
-210.671
-195.051
-178.327
-160.51
-141.634
-121.722
-100.844
-79.0465
-56.4107
-33.0245
-9.01517
15.4994
40.3628
65.4123
90.4524
115.05
139.347
162.795
184.925
205.226
-231.505
-247.239
-261.737
-274.979
-286.967
-297.717
-307.256
-315.607
-322.803
-328.868
-333.831
-337.716
-340.544
-342.338
-343.101
-342.823
-341.47
-339.078
-335.648
-331.164
-325.629
-319.018
-311.328
-302.522
-292.597
-281.512
-269.262
-255.81
-241.15
-225.258
-208.128
-189.756
-170.14
-149.318
-127.305
-104.135
-79.8895
-54.618
-28.4296
-1.37164
26.6147
55.1919
83.7982
112.494
141.066
169.339
197.066
224.043
250.022
274.785
298.095
319.719
339.464
357.123
372.513
385.467
395.847
403.541
408.466
410.574
409.803
406.228
399.866
390.726
378.941
364.617
347.907
328.963
307.98
285.15
260.685
234.833
207.824
179.9
151.3
122.266
93.0351
63.8387
34.9
6.5236
-21.1553
-48.1622
-74.3808
-99.6358
-123.812
-146.805
-168.548
-188.978
-208.067
-225.787
-242.134
-257.103
-270.707
-282.96
-293.876
-303.483
-311.806
-318.869
-324.696
-329.318
-332.756
-335.03
-336.159
-336.171
-335.056
-332.838
-329.535
-325.147
-319.674
-313.125
-305.49
-296.765
-286.944
-276.018
-263.979
-250.811
-236.509
-221.059
-204.462
-186.71
-167.825
-147.798
-126.669
-104.474
-81.2568
-57.0714
-32.006
-6.15671
20.3645
47.4217
74.9321
102.59
130.265
157.749
184.823
211.258
236.814
261.249
284.321
305.793
325.438
343.042
358.405
371.35
381.724
389.4
394.277
396.286
395.393
391.597
384.883
375.376
363.183
348.368
331.115
311.602
290.033
266.636
241.653
215.338
187.958
159.78
131.074
102.101
73.1127
44.3513
16.0388
-11.6224
-38.4502
-64.288
-89.0017
-112.489
-134.665
-155.475
-174.885
-192.88
-209.469
-224.668
-238.513
-251.052
-262.334
-272.417
-281.352
-289.195
-295.984
-301.768
-306.567
-310.405
-313.295
-315.238
-316.237
-316.278
-315.37
-313.482
-310.603
-306.745
-301.885
-296.015
-289.119
-281.178
-272.186
-262.115
-250.954
-238.688
-225.304
-210.804
-195.185
-178.461
-160.644
-141.767
-121.853
-100.971
-79.1682
-56.5257
-33.1311
-9.11111
15.4173
40.2972
65.3672
90.4351
115.06
139.412
162.897
185.224
205.854
-231.743
-247.473
-261.965
-275.201
-287.184
-297.927
-307.46
-315.806
-322.995
-329.055
-334.014
-337.895
-340.721
-342.512
-343.274
-343
-341.646
-339.252
-335.823
-331.342
-325.811
-319.205
-311.52
-302.719
-292.8
-281.721
-269.476
-256.03
-241.375
-225.488
-208.363
-189.993
-170.379
-149.557
-127.541
-104.366
-80.1132
-54.8307
-28.6288
-1.55494
26.4492
55.058
83.6936
112.423
141.03
169.343
197.11
224.131
250.153
274.962
298.317
319.985
339.774
357.472
372.897
385.883
396.287
404.001
408.939
411.051
410.287
406.694
400.315
391.157
379.347
364.992
348.246
329.263
308.238
285.364
260.854
234.957
207.902
179.935
151.293
122.218
92.9486
63.7174
34.7496
6.35828
-21.3412
-48.3691
-74.6059
-99.8749
-124.061
-147.061
-168.807
-189.238
-208.326
-226.043
-242.386
-257.351
-270.949
-283.196
-294.106
-303.707
-312.023
-319.081
-324.903
-329.519
-332.953
-335.224
-336.35
-336.359
-335.239
-333.022
-329.717
-325.329
-319.857
-313.309
-305.676
-296.953
-287.135
-276.213
-264.177
-251.012
-236.714
-221.268
-204.674
-186.925
-168.04
-148.014
-126.884
-104.685
-81.4618
-57.2688
-32.1923
-6.32878
20.2104
47.2892
74.823
102.51
130.217
157.737
184.85
211.325
236.924
261.404
284.52
306.037
325.725
343.37
358.77
371.749
382.153
389.852
394.748
396.768
395.878
392.076
385.364
375.83
363.611
348.767
331.478
311.923
290.309
266.863
241.829
215.462
188.029
159.801
131.045
102.025
72.9929
44.1921
15.8446
-11.8467
-38.6995
-64.5572
-89.2858
-112.783
-134.964
-155.774
-175.182
-193.171
-209.75
-224.938
-238.77
-251.295
-262.563
-272.632
-281.554
-289.386
-296.166
-301.942
-306.735
-310.569
-313.457
-315.399
-316.399
-316.442
-315.534
-313.644
-310.77
-306.913
-302.055
-296.188
-289.295
-281.358
-272.37
-262.303
-251.146
-238.883
-225.502
-211.004
-195.386
-178.663
-160.845
-141.966
-122.049
-101.161
-79.3511
-56.6987
-33.2914
-9.25538
15.2938
40.1984
65.2988
90.406
115.078
139.506
163.054
185.565
206.344
-232.059
-247.784
-262.269
-275.498
-287.473
-298.208
-307.732
-316.07
-323.252
-329.305
-334.257
-338.133
-340.955
-342.743
-343.503
-343.235
-341.878
-339.484
-336.057
-331.58
-326.055
-319.454
-311.776
-302.983
-293.07
-281.999
-269.762
-256.323
-241.676
-225.795
-208.675
-190.31
-170.699
-149.876
-127.856
-104.674
-80.4117
-55.1147
-28.8948
-1.79938
26.2284
54.8788
83.5536
112.327
140.982
169.347
197.169
224.247
250.328
275.197
298.614
320.341
340.186
357.938
373.411
386.437
396.876
404.614
409.568
411.686
410.927
407.321
400.917
391.734
379.888
365.491
348.698
329.663
308.582
285.649
261.078
235.121
208.007
179.98
151.283
122.153
92.8329
63.5548
34.5481
6.13847
-21.589
-48.6454
-74.9065
-100.194
-124.394
-147.402
-169.152
-189.585
-208.672
-226.385
-242.723
-257.681
-271.271
-283.511
-294.413
-304.006
-312.314
-319.364
-325.178
-329.788
-333.216
-335.482
-336.603
-336.608
-335.485
-333.268
-329.961
-325.573
-320.101
-313.554
-305.923
-297.204
-287.39
-276.472
-264.441
-251.281
-236.988
-221.546
-204.957
-187.211
-168.328
-148.301
-127.17
-104.966
-81.7357
-57.5325
-32.4411
-6.55862
20.0043
47.112
74.677
102.402
130.154
157.721
184.886
211.416
237.072
261.61
284.786
306.361
326.107
343.806
359.257
372.282
382.725
390.456
395.375
397.41
396.526
392.717
385.998
376.44
364.183
349.3
331.961
312.352
290.677
267.166
242.063
215.627
188.124
159.827
131.005
101.923
72.8328
43.9794
15.5851
-12.1464
-39.0325
-64.9168
-89.6653
-113.175
-135.363
-156.175
-175.579
-193.558
-210.125
-225.298
-239.113
-251.62
-262.868
-272.919
-281.824
-289.641
-296.408
-302.173
-306.958
-310.788
-313.673
-315.614
-316.614
-316.659
-315.751
-313.862
-310.993
-307.138
-302.283
-296.419
-289.531
-281.598
-272.615
-262.554
-251.402
-239.143
-225.765
-211.271
-195.654
-178.932
-161.113
-142.232
-122.31
-101.416
-79.5953
-56.9298
-33.5057
-9.44811
15.1284
40.0658
65.2063
90.3644
115.101
139.627
163.261
185.998
207.053
-232.456
-248.173
-262.65
-275.869
-287.834
-298.558
-308.073
-316.401
-323.573
-329.617
-334.562
-338.431
-341.248
-343.031
-343.79
-343.527
-342.167
-339.773
-336.349
-331.878
-326.359
-319.766
-312.096
-303.312
-293.409
-282.347
-270.119
-256.689
-242.051
-226.179
-209.066
-190.707
-171.098
-150.275
-128.25
-105.06
-80.7851
-55.4701
-29.2276
-2.10517
25.9518
54.6539
83.3777
112.207
140.922
169.351
197.242
224.391
250.546
275.491
298.984
320.786
340.702
358.52
374.053
387.131
397.611
405.381
410.356
412.481
411.724
408.104
401.671
392.455
380.565
366.116
349.263
330.162
309.012
286.005
261.359
235.326
208.138
180.038
151.269
122.071
92.6874
63.3503
34.2944
5.86468
-21.8991
-48.9914
-75.2828
-100.594
-124.81
-147.829
-169.584
-190.019
-209.105
-226.813
-243.144
-258.094
-271.675
-283.904
-294.797
-304.379
-312.677
-319.717
-325.523
-330.124
-333.544
-335.805
-336.92
-336.918
-335.794
-333.574
-330.266
-325.878
-320.406
-313.861
-306.232
-297.517
-287.708
-276.795
-264.771
-251.617
-237.331
-221.895
-205.31
-187.569
-168.688
-148.661
-127.528
-105.319
-82.0788
-57.8624
-32.7527
-6.84659
19.7459
46.8895
74.4938
102.268
130.074
157.7
184.93
211.528
237.256
261.867
285.118
306.767
326.585
344.352
359.867
372.948
383.44
391.212
396.16
398.214
397.336
393.52
386.786
377.205
364.9
349.966
332.567
312.887
291.137
267.544
242.356
215.833
188.243
159.86
130.955
101.794
72.6318
43.7126
15.2599
-12.5218
-39.4497
-65.3672
-90.1405
-113.667
-135.863
-156.676
-176.075
-194.044
-210.595
-225.749
-239.542
-252.025
-263.25
-273.278
-282.162
-289.96
-296.71
-302.463
-307.238
-311.062
-313.943
-315.883
-316.883
-316.929
-316.022
-314.137
-311.27
-307.419
-302.568
-296.708
-289.824
-281.898
-272.922
-262.867
-251.722
-239.468
-226.095
-211.605
-195.99
-179.269
-161.449
-142.565
-122.638
-101.734
-79.9011
-57.2196
-33.774
-9.68962
14.9205
39.8989
65.0891
90.3086
115.128
139.77
163.518
186.491
207.834
-232.932
-248.64
-263.107
-276.315
-288.267
-298.979
-308.481
-316.797
-323.958
-329.992
-334.927
-338.789
-341.599
-343.378
-344.134
-343.874
-342.513
-340.119
-336.7
-332.234
-326.724
-320.14
-312.48
-303.707
-293.815
-282.764
-270.548
-257.129
-242.502
-226.64
-209.536
-191.183
-171.578
-150.754
-128.724
-105.524
-81.2336
-55.8972
-29.6277
-2.47266
25.6189
54.3828
83.1653
112.061
140.848
169.356
197.329
224.563
250.807
275.843
299.428
321.319
341.322
359.22
374.824
387.964
398.495
406.303
411.303
413.438
412.68
409.045
402.579
393.321
381.378
366.867
349.942
330.762
309.527
286.432
261.696
235.572
208.294
180.106
151.253
121.972
92.5119
63.1034
33.987
5.53773
-22.2715
-49.4077
-75.7352
-101.074
-125.311
-148.342
-170.104
-190.541
-209.624
-227.326
-243.649
-258.589
-272.16
-284.377
-295.258
-304.828
-313.113
-320.141
-325.936
-330.528
-333.938
-336.191
-337.301
-337.292
-336.165
-333.942
-330.632
-326.243
-320.772
-314.229
-306.604
-297.893
-288.09
-277.184
-265.167
-252.021
-237.742
-222.313
-205.735
-187.998
-169.12
-149.093
-127.958
-105.742
-82.4913
-58.2588
-33.1275
-7.19304
19.4349
46.6213
74.2731
102.105
129.977
157.675
184.982
211.662
237.475
262.176
285.516
307.254
327.159
345.008
360.598
373.748
384.299
392.119
397.103
399.18
398.31
394.487
387.733
378.12
365.762
350.766
333.294
313.531
291.689
267.998
242.707
216.079
188.385
159.898
130.894
101.639
72.3896
43.3912
14.8683
-12.9737
-39.9517
-65.909
-90.7118
-114.258
-136.464
-157.278
-176.671
-194.627
-211.159
-226.29
-240.056
-252.512
-263.708
-273.708
-282.567
-290.342
-297.072
-302.81
-307.573
-311.389
-314.267
-316.206
-317.206
-317.254
-316.348
-314.466
-311.604
-307.756
-302.91
-297.055
-290.177
-282.259
-273.291
-263.244
-252.105
-239.858
-226.492
-212.006
-196.394
-179.674
-161.853
-142.965
-123.031
-102.117
-80.2688
-57.568
-34.0969
-9.98041
14.6698
39.697
64.9462
90.2375
115.158
139.933
163.819
187.042
208.691
-233.487
-249.185
-263.64
-276.835
-288.773
-299.47
-308.958
-317.259
-324.407
-330.429
-335.353
-339.205
-342.009
-343.782
-344.535
-344.278
-342.916
-340.522
-337.109
-332.65
-327.148
-320.576
-312.928
-304.168
-294.289
-283.251
-271.048
-257.643
-243.028
-227.177
-210.084
-191.739
-172.139
-151.314
-129.278
-106.067
-81.7578
-56.3967
-30.0955
-2.90225
25.229
54.0648
82.9162
111.89
140.761
169.361
197.429
224.764
251.111
276.253
299.945
321.942
342.045
360.036
375.725
388.937
399.527
407.38
412.408
414.556
413.797
410.142
403.639
394.333
382.328
367.743
350.735
331.462
310.128
286.93
262.088
235.858
208.476
180.185
151.233
121.857
92.3058
62.8133
33.6235
5.15898
-22.7065
-49.8948
-76.2642
-101.636
-125.895
-148.941
-170.711
-191.15
-210.23
-227.926
-244.239
-259.168
-272.726
-284.928
-295.795
-305.352
-313.622
-320.636
-326.418
-330.998
-334.398
-336.642
-337.744
-337.728
-336.597
-334.37
-331.058
-326.669
-321.199
-314.658
-307.036
-298.331
-288.536
-277.637
-265.629
-252.492
-238.222
-222.802
-206.231
-188.5
-169.624
-149.597
-128.461
-106.237
-82.9734
-58.7222
-33.5661
-7.59845
19.0705
46.3074
74.0139
101.915
129.862
157.644
185.041
211.817
237.731
262.535
285.98
307.822
327.828
345.773
361.452
374.683
385.302
393.178
398.204
400.307
399.447
395.616
388.84
379.188
366.77
351.702
334.143
314.283
292.333
268.528
243.117
216.367
188.549
159.942
130.822
101.456
72.1055
43.0145
14.4098
-13.5026
-40.5391
-66.5429
-91.38
-114.949
-137.167
-157.983
-177.367
-195.308
-211.818
-226.922
-240.657
-253.08
-264.242
-274.21
-283.039
-290.786
-297.495
-303.214
-307.964
-311.771
-314.644
-316.581
-317.583
-317.633
-316.729
-314.851
-311.993
-308.149
-303.308
-297.46
-290.589
-282.679
-273.72
-263.682
-252.553
-240.315
-226.954
-212.474
-196.865
-180.146
-162.324
-143.432
-123.49
-102.564
-80.6988
-57.9755
-34.4748
-10.321
14.3755
39.4592
64.7767
90.1504
115.188
140.11
164.158
187.639
209.609
-234.122
-249.808
-264.249
-277.429
-289.351
-300.032
-309.502
-317.788
-324.921
-330.928
-335.84
-339.681
-342.476
-344.243
-344.994
-344.737
-343.375
-340.983
-337.575
-333.125
-327.634
-321.074
-313.44
-304.695
-294.831
-283.808
-271.62
-258.23
-243.63
-227.792
-210.711
-192.375
-172.78
-151.955
-129.912
-106.688
-82.3585
-56.9691
-30.6316
-3.39433
24.7809
53.6995
82.63
111.693
140.66
169.364
197.542
224.992
251.458
276.721
300.536
322.653
342.871
360.97
376.756
390.051
400.709
408.612
413.674
415.836
415.074
411.398
404.853
395.49
383.415
368.746
351.641
332.262
310.816
287.498
262.536
236.184
208.682
180.274
151.208
121.723
92.0683
62.4793
33.2038
4.72748
-23.2046
-50.4531
-76.8708
-102.279
-126.565
-149.627
-171.406
-191.847
-210.923
-228.611
-244.913
-259.829
-273.373
-285.559
-296.409
-305.95
-314.203
-321.201
-326.969
-331.536
-334.923
-337.157
-338.251
-338.226
-337.09
-334.86
-331.546
-327.156
-321.687
-315.149
-307.531
-298.832
-289.045
-278.156
-266.157
-253.03
-238.771
-223.36
-206.797
-189.073
-170.201
-150.175
-129.036
-106.804
-83.5254
-59.2531
-34.0689
-8.06352
18.6524
45.9474
73.7156
101.696
129.73
157.607
185.107
211.994
238.023
262.945
286.51
308.471
328.592
346.647
362.429
375.751
386.45
394.391
399.465
401.599
400.75
396.91
390.107
380.409
367.924
352.772
335.115
315.143
293.071
269.134
243.586
216.695
188.736
159.991
130.737
101.246
71.7789
42.5819
13.8835
-14.1093
-41.2128
-67.2696
-92.1458
-115.74
-137.972
-158.789
-178.165
-196.087
-212.572
-227.645
-241.344
-253.729
-264.853
-274.784
-283.577
-291.294
-297.977
-303.675
-308.41
-312.207
-315.075
-317.011
-318.013
-318.065
-317.164
-315.29
-312.437
-308.599
-303.763
-297.922
-291.059
-283.159
-274.211
-264.184
-253.066
-240.836
-227.484
-213.009
-197.404
-180.686
-162.863
-143.966
-124.016
-103.076
-81.1913
-58.4425
-34.9084
-10.7119
14.037
39.1846
64.5795
90.046
115.215
140.298
164.529
188.275
210.577
-234.837
-250.51
-264.935
-278.098
-290.001
-300.663
-310.115
-318.382
-325.498
-331.489
-336.387
-340.216
-343.001
-344.761
-345.509
-345.255
-343.889
-341.501
-338.1
-333.659
-328.179
-321.634
-314.015
-305.287
-295.441
-284.435
-272.264
-258.89
-244.307
-228.484
-211.417
-193.092
-173.503
-152.678
-130.627
-107.389
-83.0363
-57.6157
-31.2369
-3.94895
24.2741
53.2864
82.306
111.47
140.545
169.367
197.667
225.246
251.846
277.246
301.2
323.453
343.802
362.022
377.916
391.305
402.039
410.001
415.1
417.278
416.513
412.812
406.221
396.795
384.64
369.875
352.662
333.163
311.588
288.138
263.039
236.55
208.913
180.372
151.179
121.572
91.7991
62.1005
32.732
4.2382
-23.7667
-51.0834
-77.5559
-103.005
-127.321
-150.401
-172.189
-192.632
-211.704
-229.384
-245.672
-260.574
-274.101
-286.268
-297.1
-306.622
-314.857
-321.837
-327.589
-332.141
-335.514
-337.736
-338.82
-338.787
-337.645
-335.411
-332.093
-327.702
-322.235
-315.7
-308.087
-299.396
-289.617
-278.738
-266.75
-253.636
-239.388
-223.988
-207.435
-189.719
-170.851
-150.826
-129.683
-107.442
-84.1478
-59.8523
-34.6364
-8.58911
18.1798
45.5406
73.3779
101.447
129.579
157.564
185.18
212.191
238.349
263.405
287.105
309.201
329.453
347.632
363.53
376.955
387.744
395.757
400.886
403.054
402.218
398.369
391.535
381.785
369.224
353.978
336.21
316.111
293.901
269.815
244.112
217.063
188.946
160.044
130.64
101.007
71.4088
42.0924
13.2886
-14.7948
-41.9736
-68.0902
-93.0102
-116.634
-138.88
-159.699
-179.064
-196.966
-213.422
-228.459
-242.119
-254.46
-265.541
-275.429
-284.183
-291.865
-298.519
-304.193
-308.911
-312.697
-315.559
-317.493
-318.497
-318.552
-317.654
-315.785
-312.937
-309.104
-304.274
-298.441
-291.589
-283.7
-274.764
-264.749
-253.643
-241.423
-228.08
-213.612
-198.01
-181.295
-163.47
-144.568
-124.608
-103.653
-81.747
-58.9694
-35.3982
-11.154
13.6532
38.8722
64.3534
89.9215
115.239
140.493
164.925
188.942
211.587
-235.632
-251.29
-265.698
-278.841
-290.724
-301.365
-310.796
-319.043
-326.139
-332.113
-336.994
-340.81
-343.585
-345.337
-346.08
-345.825
-344.46
-342.077
-338.682
-334.253
-328.785
-322.256
-314.655
-305.945
-296.118
-285.131
-272.98
-259.624
-245.059
-229.254
-212.203
-193.889
-174.307
-153.483
-131.422
-108.169
-83.7917
-58.3375
-31.9133
-4.56667
23.7081
52.8249
81.9435
111.219
140.415
169.367
197.803
225.527
252.275
277.828
301.938
324.342
344.836
363.192
379.208
392.702
403.521
411.546
416.687
418.883
418.114
414.386
407.744
398.246
386.002
371.131
353.797
334.164
312.447
288.848
263.597
236.955
209.167
180.481
151.145
121.402
91.4976
61.6756
32.2087
3.68906
-24.3931
-51.7863
-78.3201
-103.815
-128.162
-151.263
-173.061
-193.506
-212.573
-230.243
-246.517
-261.402
-274.91
-287.057
-297.868
-307.369
-315.584
-322.543
-328.277
-332.813
-336.171
-338.379
-339.453
-339.41
-338.261
-336.022
-332.701
-328.31
-322.844
-316.313
-308.705
-300.022
-290.253
-279.386
-267.41
-254.31
-240.074
-224.687
-208.145
-190.437
-171.574
-151.55
-130.404
-108.154
-84.8412
-60.5203
-35.2689
-9.17579
17.6521
45.085
73.0007
101.168
129.408
157.513
185.259
212.407
238.711
263.915
287.766
310.011
330.409
348.727
364.753
378.294
389.183
397.278
402.467
404.674
403.852
399.993
393.125
383.316
370.671
355.32
337.428
317.189
294.824
270.573
244.697
217.471
189.177
160.102
130.53
100.739
70.9942
41.545
12.6242
-15.5601
-42.8226
-69.0055
-93.9741
-117.63
-139.892
-160.713
-180.066
-197.944
-214.368
-229.365
-242.98
-255.273
-266.305
-276.145
-284.856
-292.498
-299.119
-304.768
-309.466
-313.241
-316.097
-318.029
-319.034
-319.093
-318.199
-316.334
-313.492
-309.665
-304.842
-299.018
-292.177
-284.3
-275.377
-265.377
-254.284
-242.076
-228.742
-214.282
-198.685
-181.971
-164.146
-145.238
-125.268
-104.296
-82.3663
-59.5569
-35.9448
-11.6481
13.2233
38.521
64.0968
89.7773
115.255
140.69
165.341
189.635
212.627
-236.508
-252.148
-266.537
-279.659
-291.519
-302.137
-311.544
-319.769
-326.844
-332.798
-337.662
-341.463
-344.226
-345.969
-346.707
-346.45
-345.086
-342.709
-339.322
-334.905
-329.452
-322.939
-315.358
-306.668
-296.863
-285.898
-273.768
-260.432
-245.888
-230.102
-213.068
-194.768
-175.194
-154.37
-132.3
-109.03
-84.6252
-59.1345
-32.6625
-5.25202
23.0857
52.3143
81.5417
110.939
140.269
169.365
197.951
225.834
252.745
278.467
302.748
325.32
345.975
364.48
380.63
394.24
405.153
413.25
418.436
420.653
419.879
416.121
409.423
399.846
387.504
372.515
355.046
335.266
313.391
289.628
264.209
237.4
209.446
180.598
151.105
121.214
91.1634
61.2034
31.63
3.08141
-25.0837
-52.563
-79.1645
-104.709
-129.091
-152.214
-174.023
-194.469
-213.53
-231.188
-247.447
-262.313
-275.8
-287.925
-298.713
-308.191
-316.383
-323.321
-329.034
-333.551
-336.893
-339.087
-340.148
-340.096
-338.939
-336.694
-333.37
-328.977
-323.513
-316.986
-309.385
-300.71
-290.952
-280.098
-268.136
-255.05
-240.829
-225.455
-208.926
-191.227
-172.371
-152.349
-131.198
-108.938
-85.6061
-61.2578
-35.9673
-9.82401
17.068
44.5782
72.5846
100.858
129.218
157.455
185.343
212.643
239.106
264.475
288.492
310.903
331.461
349.933
366.1
379.769
390.768
398.953
404.21
406.46
405.654
401.783
394.877
385.003
372.266
356.8
338.771
318.376
295.84
271.406
245.34
217.919
189.429
160.162
130.406
100.441
70.5342
40.9389
11.8889
-16.4063
-43.7608
-70.0167
-95.0386
-118.729
-141.009
-161.831
-181.171
-199.023
-215.41
-230.363
-243.927
-256.168
-267.145
-276.933
-285.595
-293.194
-299.779
-305.398
-310.076
-313.838
-316.687
-318.617
-319.624
-319.687
-318.798
-316.939
-314.102
-310.282
-305.467
-299.653
-292.823
-284.96
-276.053
-266.067
-254.989
-242.795
-229.472
-215.019
-199.428
-182.717
-164.889
-145.976
-125.995
-105.005
-83.0497
-60.2058
-36.5486
-12.1952
12.7463
38.1295
63.8082
89.6123
115.26
140.888
165.771
190.348
213.689
-237.463
-253.085
-267.453
-280.551
-292.387
-302.979
-312.361
-320.561
-327.612
-333.545
-338.39
-342.175
-344.924
-346.658
-347.391
-347.13
-345.77
-343.398
-340.019
-335.615
-330.179
-323.685
-316.125
-307.456
-297.675
-286.734
-274.628
-261.314
-246.792
-231.028
-214.013
-195.728
-176.163
-155.34
-133.261
-109.971
-85.5375
-60.0073
-33.4841
-6.00793
22.4066
51.7536
81.0993
110.63
140.106
169.359
198.11
226.166
253.255
279.162
303.631
326.387
347.218
365.887
382.185
395.922
406.938
415.112
420.348
422.588
421.808
418.017
411.257
401.595
389.145
374.026
356.41
336.468
314.42
290.479
264.876
237.883
209.747
180.723
151.06
121.006
90.7961
60.6822
30.9836
2.42524
-25.838
-53.4146
-80.09
-105.688
-130.107
-153.253
-175.074
-195.522
-214.576
-232.222
-248.463
-263.307
-276.771
-288.873
-299.635
-309.087
-317.255
-324.169
-329.859
-334.355
-337.68
-339.859
-340.907
-340.843
-339.678
-337.427
-334.099
-329.705
-324.243
-317.72
-310.126
-301.461
-291.715
-280.874
-268.928
-255.858
-241.653
-226.295
-209.779
-192.09
-173.241
-153.221
-132.066
-109.795
-86.4432
-62.0653
-36.7325
-10.5346
16.4267
44.0204
72.1272
100.516
129.007
157.387
185.431
212.897
239.534
265.083
289.282
311.875
332.609
351.249
367.572
381.381
392.501
400.785
406.117
408.413
407.624
403.742
396.794
386.847
374.01
358.417
340.238
319.673
296.95
272.316
246.041
218.406
189.702
160.226
130.267
100.111
70.0277
40.2728
11.0815
-17.3348
-44.7896
-71.1251
-96.2051
-119.934
-142.232
-163.055
-182.381
-200.204
-216.55
-231.454
-244.963
-257.145
-268.062
-277.791
-286.4
-293.952
-300.496
-306.085
-310.74
-314.487
-317.329
-319.258
-320.268
-320.335
-319.452
-317.598
-314.768
-310.954
-306.148
-300.345
-293.528
-285.68
-276.789
-266.822
-255.759
-243.579
-230.269
-215.825
-200.24
-183.531
-165.702
-146.783
-126.789
-105.781
-83.798
-60.9168
-37.2106
-12.7963
12.2213
37.6963
63.4859
89.4243
115.25
141.083
166.209
191.076
214.766
-238.499
-254.101
-268.446
-281.519
-293.327
-303.891
-313.246
-321.418
-328.444
-334.354
-339.178
-342.945
-345.68
-347.403
-348.13
-347.87
-346.51
-344.143
-340.774
-336.384
-330.966
-324.493
-316.956
-308.311
-298.555
-287.64
-275.559
-262.271
-247.773
-232.032
-215.038
-196.77
-177.215
-156.394
-134.306
-110.994
-86.5295
-60.9566
-34.3779
-6.83283
21.6654
51.1423
80.6152
110.291
139.926
169.35
198.279
226.522
253.805
279.912
304.585
327.542
348.566
367.414
383.873
397.748
408.876
417.134
422.425
424.689
423.903
420.074
413.249
403.494
390.925
375.665
357.889
337.772
315.536
291.4
265.597
238.404
210.071
180.856
151.007
120.778
90.3955
60.1104
30.2509
1.73644
-26.6563
-54.3424
-81.0981
-106.754
-131.213
-154.383
-176.216
-196.664
-215.71
-233.342
-249.564
-264.385
-277.824
-289.9
-300.635
-310.059
-318.199
-325.087
-330.752
-335.226
-338.532
-340.695
-341.728
-341.652
-340.478
-338.221
-334.888
-330.493
-325.032
-318.514
-310.928
-302.274
-292.54
-281.715
-269.786
-256.734
-242.546
-227.205
-210.704
-193.027
-174.186
-154.168
-133.008
-110.726
-87.353
-62.9435
-37.5657
-11.3082
15.7274
43.4119
71.6261
100.142
128.773
157.31
185.523
213.169
239.996
265.74
290.138
312.927
333.854
352.676
369.169
383.13
394.382
402.774
408.186
410.534
409.765
405.869
398.875
388.851
375.904
360.173
341.831
321.081
298.154
273.302
246.8
218.932
189.996
160.291
130.113
99.749
69.4735
39.5454
10.2008
-18.3469
-45.9108
-72.3319
-97.4749
-121.244
-143.562
-164.385
-183.695
-201.486
-217.788
-232.638
-246.086
-258.203
-269.056
-278.721
-287.272
-294.771
-301.272
-306.826
-311.457
-315.19
-318.025
-319.952
-320.965
-321.038
-320.16
-318.312
-315.489
-311.683
-306.886
-301.094
-294.291
-286.46
-277.588
-267.639
-256.594
-244.43
-231.133
-216.698
-201.121
-184.414
-166.584
-147.658
-127.652
-106.624
-84.6118
-61.6907
-37.932
-13.452
11.6465
37.22
63.1283
89.2108
115.223
141.27
166.65
191.812
215.851
-239.616
-255.196
-269.515
-282.561
-294.34
-304.874
-314.198
-322.342
-329.34
-335.225
-340.026
-343.774
-346.493
-348.205
-348.926
-348.665
-347.305
-344.943
-341.586
-337.211
-331.813
-325.363
-317.85
-309.232
-299.503
-288.616
-276.563
-263.302
-248.83
-233.114
-216.143
-197.894
-178.351
-157.532
-135.434
-112.099
-87.6025
-61.9829
-35.3448
-7.72625
20.8579
50.4794
80.0881
109.92
139.726
169.335
198.457
226.901
254.394
280.717
305.612
328.786
350.018
369.061
385.694
399.718
410.969
419.318
424.667
426.958
426.165
422.295
415.4
405.544
392.846
377.433
359.484
339.177
316.738
292.39
266.371
238.962
210.416
180.995
150.947
120.528
89.9616
59.4873
29.421
1.02361
-27.5396
-55.3482
-82.19
-107.907
-132.408
-155.604
-177.45
-197.898
-216.935
-234.55
-250.752
-265.548
-278.958
-291.006
-301.711
-311.105
-319.216
-326.076
-331.715
-336.164
-339.449
-341.594
-342.612
-342.524
-341.339
-339.074
-335.738
-331.342
-325.882
-319.369
-311.792
-303.148
-293.429
-282.621
-270.71
-257.677
-243.509
-228.186
-211.7
-194.037
-175.204
-155.189
-134.026
-111.732
-88.3362
-63.8931
-38.4678
-12.1462
14.969
42.7516
71.0802
99.7323
128.517
157.221
185.617
213.458
240.489
266.445
291.057
314.06
335.194
354.214
370.89
385.017
396.411
404.92
410.421
412.824
412.077
408.167
401.123
391.014
377.949
362.069
343.55
322.6
299.452
274.365
247.616
219.497
190.309
160.357
129.941
99.3529
68.8705
38.755
9.2452
-19.4442
-47.1256
-73.6386
-98.8496
-122.663
-145.001
-165.824
-185.115
-202.872
-219.125
-233.917
-247.297
-259.344
-270.125
-279.722
-288.208
-295.652
-302.105
-307.622
-312.227
-315.944
-318.772
-320.699
-321.715
-321.794
-320.922
-319.082
-316.265
-312.467
-307.68
-301.9
-295.112
-287.3
-278.447
-268.519
-257.494
-245.347
-232.064
-217.64
-202.07
-185.366
-167.536
-148.603
-128.585
-107.535
-85.4918
-62.5283
-38.7137
-14.1637
11.0206
36.6994
62.7331
88.9692
115.176
141.446
167.088
192.552
216.937
-240.813
-256.369
-270.662
-283.678
-295.425
-305.926
-315.218
-323.331
-330.3
-336.157
-340.934
-344.661
-347.363
-349.063
-349.776
-349.515
-348.155
-345.799
-342.455
-338.096
-332.72
-326.295
-318.808
-310.219
-300.52
-289.662
-277.639
-264.408
-249.964
-234.275
-217.33
-199.101
-179.572
-158.755
-136.645
-113.288
-88.7568
-63.0877
-36.3857
-8.68933
19.9828
49.7635
79.516
109.516
139.507
169.314
198.644
227.303
255.02
281.576
306.71
330.119
351.576
370.829
387.649
401.835