/*--------------------------------*- C++ -*----------------------------------*\
| =========                 |                                                 |
| \\      /  F ield         | OpenFOAM: The Open Source CFD Toolbox           |
|  \\    /   O peration     | Version:  3.0.1                                 |
|   \\  /    A nd           | Web:      www.OpenFOAM.org                      |
|    \\/     M anipulation  |                                                 |
\*---------------------------------------------------------------------------*/
FoamFile
{
    version     2.0;
    format      ascii;
    class       volVectorField;
    location    "34.4";
    object      U;
}
// * * * * * * * * * * * * * * * * * * * * * * * * * * * * * * * * * * * * * //

dimensions      [0 1 -1 0 0 0 0];

internalField   nonuniform List<vector> 
21420
(
(0.180272 0.00171488 0)
(0.164725 0.00178649 0)
(0.146234 0.00186678 0)
(0.127175 0.00192258 0)
(0.107828 0.00191672 0)
(0.0884279 0.00192429 0)
(0.0691876 0.00187721 0)
(0.0502997 0.00184458 0)
(0.0318849 0.00179531 0)
(0.0135719 0.00170518 0)
(-0.00332357 0.00164157 0)
(-0.0187902 0.00155924 0)
(-0.0339212 0.00145267 0)
(-0.048092 0.00135928 0)
(-0.0612667 0.00125201 0)
(-0.0734372 0.00115674 0)
(-0.0846092 0.00106082 0)
(-0.0947969 0.000960238 0)
(-0.104025 0.000868705 0)
(-0.112324 0.000779203 0)
(-0.119726 0.00069001 0)
(-0.126268 0.000607385 0)
(-0.131985 0.000527748 0)
(-0.136914 0.000450303 0)
(-0.141086 0.000377091 0)
(-0.144534 0.000305886 0)
(-0.147284 0.000237281 0)
(-0.149363 0.000169874 0)
(-0.150772 0.000105166 0)
(-0.151522 4.33035e-05 0)
(-0.151642 -2.21176e-05 0)
(-0.151083 -8.97422e-05 0)
(-0.149866 -0.000155847 0)
(-0.147964 -0.000225334 0)
(-0.145363 -0.000296081 0)
(-0.142026 -0.000369563 0)
(-0.137926 -0.000448769 0)
(-0.133038 -0.000527944 0)
(-0.127311 -0.000610954 0)
(-0.120701 -0.000703892 0)
(-0.113178 -0.000793339 0)
(-0.104688 -0.000896866 0)
(-0.0951877 -0.000991843 0)
(-0.0846744 -0.00108599 0)
(-0.073075 -0.00120365 0)
(-0.0604037 -0.00129567 0)
(-0.0466878 -0.00138745 0)
(-0.0320286 -0.00150073 0)
(-0.0163836 -0.00158872 0)
(-8.23129e-05 -0.0016463 0)
(0.0168056 -0.00173749 0)
(0.0345522 -0.00178128 0)
(0.0528035 -0.00183652 0)
(0.0713891 -0.00184985 0)
(0.0900727 -0.00183602 0)
(0.108604 -0.00182101 0)
(0.126786 -0.00177025 0)
(0.144365 -0.00168773 0)
(0.161064 -0.00159765 0)
(0.176668 -0.00147101 0)
(0.190884 -0.00132937 0)
(0.203544 -0.00116748 0)
(0.214438 -0.000971647 0)
(0.223289 -0.000771667 0)
(0.230063 -0.000555324 0)
(0.234509 -0.000322921 0)
(0.236565 -8.76191e-05 0)
(0.236309 0.000151749 0)
(0.23346 0.000383058 0)
(0.228199 0.000618974 0)
(0.220667 0.000850095 0)
(0.210967 0.00105256 0)
(0.199257 0.00125054 0)
(0.185668 0.00142439 0)
(0.170485 0.00156562 0)
(0.153915 0.00169011 0)
(0.136343 0.00177737 0)
(0.117947 0.00185056 0)
(0.0988493 0.00190423 0)
(0.0795876 0.00191212 0)
(0.06017 0.00192035 0)
(0.0408528 0.00190069 0)
(0.0220162 0.0018555 0)
(0.0035956 0.00179497 0)
(-0.0142106 0.00172689 0)
(-0.0312195 0.00165351 0)
(-0.0474316 0.00155694 0)
(-0.062706 0.00146854 0)
(-0.0769691 0.00136747 0)
(-0.0902738 0.00126546 0)
(-0.102525 0.00116362 0)
(-0.113749 0.0010626 0)
(-0.123922 0.000953844 0)
(-0.133041 0.000851994 0)
(-0.141122 0.000751478 0)
(-0.148188 0.000646559 0)
(-0.15427 0.000566517 0)
(-0.15944 0.000468542 0)
(-0.163763 0.000387412 0)
(-0.167262 0.000307027 0)
(-0.169962 0.000230458 0)
(-0.171908 0.000156726 0)
(-0.173143 9.46107e-05 0)
(-0.173708 1.99291e-05 0)
(-0.173599 -3.3747e-05 0)
(-0.172878 -0.000108509 0)
(-0.171481 -0.0001669 0)
(-0.169454 -0.000234069 0)
(-0.166765 -0.000298655 0)
(-0.163382 -0.000364446 0)
(-0.159287 -0.000443799 0)
(-0.154456 -0.000515271 0)
(-0.148873 -0.00060157 0)
(-0.142447 -0.000667576 0)
(-0.135204 -0.000751306 0)
(-0.127187 -0.000839489 0)
(-0.118292 -0.000921777 0)
(-0.108561 -0.00100874 0)
(-0.0980104 -0.00109615 0)
(-0.0865461 -0.00116999 0)
(-0.0742591 -0.00125722 0)
(-0.0611689 -0.00133799 0)
(-0.0472718 -0.00141689 0)
(-0.0326269 -0.00148719 0)
(-0.0172913 -0.00155885 0)
(-0.00129864 -0.00160441 0)
(0.0152107 -0.00166026 0)
(0.0320984 -0.0016902 0)
(0.0492465 -0.00170559 0)
(0.0664917 -0.00171092 0)
(0.0836382 -0.00168636 0)
(0.100471 -0.00164951 0)
(0.116796 -0.00158715 0)
(0.13237 -0.00149942 0)
(0.146916 -0.00138078 0)
(0.160172 -0.00124543 0)
(0.171898 -0.00107658 0)
(0.181834 -0.000892125 0)
(0.189805 -0.000685761 0)
(0.195593 -0.000463992 0)
(0.1991 -0.000227971 0)
(0.200164 9.63152e-06 0)
(0.198843 0.000253356 0)
(0.194968 0.00049879 0)
(0.188788 0.000725996 0)
(0.18036 0.000944246 0)
(0.169818 0.0011448 0)
(0.157351 0.00132481 0)
(0.143205 0.00147654 0)
(0.127663 0.00160604 0)
(0.110932 0.00170795 0)
(0.0933268 0.00177859 0)
(0.0751775 0.00182276 0)
(0.0567339 0.00184032 0)
(0.0382269 0.00183234 0)
(0.019877 0.00180519 0)
(0.00191511 0.00176405 0)
(-0.0155372 0.00170281 0)
(-0.0323094 0.00162714 0)
(-0.0482842 0.00153612 0)
(-0.0633625 0.00145045 0)
(-0.0774491 0.00135014 0)
(-0.0905372 0.00124818 0)
(-0.102608 0.0011511 0)
(-0.113687 0.00105337 0)
(-0.123792 0.000952173 0)
(-0.132957 0.000862053 0)
(-0.141201 0.000776408 0)
(-0.14857 0.000689506 0)
(-0.155155 0.000613333 0)
(-0.160997 0.000538719 0)
(-0.166074 0.000470718 0)
(-0.170388 0.000389777 0)
(-0.173939 0.000317536 0)
(-0.176766 0.000249258 0)
(-0.178922 0.000181124 0)
(-0.180468 0.000123897 0)
(-0.18142 6.07955e-05 0)
(-0.181767 1.67083e-05 0)
(-0.181593 -4.47285e-05 0)
(-0.180866 -9.5949e-05 0)
(-0.179601 -0.000154238 0)
(-0.177789 -0.00020945 0)
(-0.175376 -0.00026209 0)
(-0.172415 -0.000327819 0)
(-0.168773 -0.000389565 0)
(-0.164453 -0.000462499 0)
(-0.159436 -0.000534324 0)
(-0.153651 -0.000613196 0)
(-0.147035 -0.00069664 0)
(-0.139538 -0.000785535 0)
(-0.131149 -0.00087765 0)
(-0.121844 -0.000965471 0)
(-0.111611 -0.00106178 0)
(-0.10044 -0.00115446 0)
(-0.0883309 -0.00124278 0)
(-0.0753706 -0.00133606 0)
(-0.0614971 -0.00141372 0)
(-0.0467673 -0.00149362 0)
(-0.0313268 -0.00156664 0)
(-0.0151882 -0.00163137 0)
(0.00152864 -0.00167838 0)
(0.0186763 -0.00172055 0)
(0.0361004 -0.0017379 0)
(0.0536254 -0.00173651 0)
(0.0710404 -0.00171245 0)
(0.0881257 -0.00167422 0)
(0.104666 -0.00160263 0)
(0.120391 -0.00150924 0)
(0.135033 -0.00139245 0)
(0.148365 -0.00124642 0)
(0.160094 -0.00107858 0)
(0.170035 -0.000891709 0)
(0.177991 -0.000687752 0)
(0.183843 -0.00046992 0)
(0.18743 -0.000243168 0)
(0.188685 -1.45875e-05 0)
(0.187671 0.000224336 0)
(0.184211 0.000456027 0)
(0.178474 0.000675561 0)
(0.170617 0.000881096 0)
(0.160794 0.00106017 0)
(0.14922 0.00122827 0)
(0.136119 0.00136794 0)
(0.121706 0.00149115 0)
(0.106242 0.00157825 0)
(0.0899544 0.00165045 0)
(0.0730837 0.00169599 0)
(0.0558833 0.00171714 0)
(0.0385375 0.00171741 0)
(0.0212807 0.00170414 0)
(0.00428024 0.00167005 0)
(-0.012333 0.00162276 0)
(-0.028414 0.00157479 0)
(-0.0438913 0.00149898 0)
(-0.0586444 0.00142751 0)
(-0.0726091 0.001347 0)
(-0.0857491 0.0012643 0)
(-0.0980276 0.00117753 0)
(-0.109462 0.00108847 0)
(-0.12004 0.00100519 0)
(-0.129737 0.000918005 0)
(-0.138547 0.000830231 0)
(-0.14648 0.000746151 0)
(-0.15358 0.000661576 0)
(-0.159865 0.000580466 0)
(-0.165295 0.000503002 0)
(-0.169924 0.000423093 0)
(-0.17381 0.000350455 0)
(-0.177012 0.000283095 0)
(-0.179548 0.000215797 0)
(-0.181365 0.000147948 0)
(-0.182481 8.36584e-05 0)
(-0.182997 2.01805e-05 0)
(-0.182844 -4.85679e-05 0)
(-0.182046 -0.000115164 0)
(-0.180562 -0.000172265 0)
(-0.178433 -0.000243749 0)
(-0.175626 -0.000310311 0)
(-0.17213 -0.000377719 0)
(-0.167968 -0.000449089 0)
(-0.163068 -0.000518616 0)
(-0.157474 -0.000584261 0)
(-0.151169 -0.000662648 0)
(-0.144123 -0.000729351 0)
(-0.136345 -0.000800761 0)
(-0.127848 -0.000880224 0)
(-0.118568 -0.000951149 0)
(-0.108574 -0.00103039 0)
(-0.0977162 -0.00110819 0)
(-0.0861472 -0.00118416 0)
(-0.0737328 -0.00126741 0)
(-0.0606192 -0.00134375 0)
(-0.04667 -0.00141342 0)
(-0.0319307 -0.0014875 0)
(-0.016671 -0.00156195 0)
(-0.000325916 -0.00161364 0)
(0.0167059 -0.00166331 0)
(0.0338825 -0.00169729 0)
(0.0512761 -0.00173787 0)
(0.0688973 -0.00172979 0)
(0.0864697 -0.00171959 0)
(0.103669 -0.00168537 0)
(0.120299 -0.00161826 0)
(0.136231 -0.0015208 0)
(0.151001 -0.00140072 0)
(0.164332 -0.0012532 0)
(0.176163 -0.001078 0)
(0.186044 -0.000878025 0)
(0.193856 -0.00066851 0)
(0.199488 -0.000437876 0)
(0.20268 -0.000185457 0)
(0.203416 5.47781e-05 0)
(0.20165 0.000307174 0)
(0.197291 0.000560487 0)
(0.190589 0.000778017 0)
(0.181638 0.00099344 0)
(0.170655 0.0011933 0)
(0.157873 0.00134781 0)
(0.143525 0.0014947 0)
(0.127969 0.00159152 0)
(0.111369 0.00167892 0)
(0.0940848 0.00174513 0)
(0.0763614 0.00175471 0)
(0.058486 0.00177016 0)
(0.0406645 0.00174765 0)
(0.0229447 0.00170925 0)
(0.00629592 0.00165877 0)
(-0.00945666 0.00158672 0)
(-0.0248907 0.00151694 0)
(-0.0396261 0.00143817 0)
(-0.0535482 0.00134597 0)
(-0.0666098 0.00126012 0)
(-0.0787878 0.00117195 0)
(-0.0900712 0.00107884 0)
(-0.100472 0.000992974 0)
(-0.110009 0.000905198 0)
(-0.11871 0.000824607 0)
(-0.126605 0.000746267 0)
(-0.133723 0.000668823 0)
(-0.140092 0.000596546 0)
(-0.145741 0.000525931 0)
(-0.150688 0.00045609 0)
(-0.154946 0.000388671 0)
(-0.158527 0.000320627 0)
(-0.161431 0.000252891 0)
(-0.163659 0.000184359 0)
(-0.165192 0.000115136 0)
(-0.166015 4.71128e-05 0)
(-0.166141 -2.70359e-05 0)
(-0.165488 -0.000103543 0)
(-0.164069 -0.000181044 0)
(-0.161848 -0.00025997 0)
(-0.158818 -0.000342002 0)
(-0.154957 -0.000424311 0)
(-0.150252 -0.000510015 0)
(-0.144695 -0.000594256 0)
(-0.138272 -0.000678554 0)
(-0.130981 -0.000767601 0)
(-0.122827 -0.000850916 0)
(-0.113812 -0.000932546 0)
(-0.103949 -0.00102118 0)
(-0.0932586 -0.00109814 0)
(-0.0817668 -0.00118358 0)
(-0.0695093 -0.00125281 0)
(-0.0565311 -0.00131606 0)
(-0.0428807 -0.00138949 0)
(-0.0286031 -0.00143794 0)
(-0.0133166 -0.00147555 0)
(0.00197037 -0.001546 0)
(0.017144 -0.00156376 0)
(0.0330143 -0.00159531 0)
(0.0490193 -0.00159173 0)
(0.0650025 -0.00157388 0)
(0.0808285 -0.00156518 0)
(0.096329 -0.00151611 0)
(0.113064 -0.00145033 0)
(0.180313 0.00514566 0)
(0.164757 0.00536047 0)
(0.146257 0.00560133 0)
(0.127188 0.0057687 0)
(0.107832 0.00575103 0)
(0.0884224 0.0057737 0)
(0.0691747 0.00563233 0)
(0.05028 0.00553442 0)
(0.0318591 0.00538626 0)
(0.0135439 0.00511584 0)
(-0.00335468 0.00492521 0)
(-0.0188262 0.00467797 0)
(-0.0339587 0.00435814 0)
(-0.0481306 0.0040779 0)
(-0.061305 0.00375602 0)
(-0.0734756 0.00347021 0)
(-0.0846472 0.00318243 0)
(-0.0948337 0.00288065 0)
(-0.104061 0.00260602 0)
(-0.112359 0.00233752 0)
(-0.119759 0.00206996 0)
(-0.1263 0.00182211 0)
(-0.132016 0.00158322 0)
(-0.136943 0.0013509 0)
(-0.141114 0.00113129 0)
(-0.144561 0.000917702 0)
(-0.147311 0.000711889 0)
(-0.149388 0.000510089 0)
(-0.150799 0.000316377 0)
(-0.151549 0.000129171 0)
(-0.151668 -6.63379e-05 0)
(-0.15111 -0.000268994 0)
(-0.149894 -0.000467316 0)
(-0.147993 -0.000675647 0)
(-0.145393 -0.00088809 0)
(-0.142058 -0.00110843 0)
(-0.13796 -0.00134601 0)
(-0.133073 -0.00158363 0)
(-0.127348 -0.00183258 0)
(-0.120741 -0.00211145 0)
(-0.113219 -0.00237977 0)
(-0.104733 -0.0026904 0)
(-0.0952333 -0.00297535 0)
(-0.0847217 -0.00325793 0)
(-0.0731236 -0.00361069 0)
(-0.0604523 -0.00388721 0)
(-0.0467364 -0.0041611 0)
(-0.0320775 -0.00450393 0)
(-0.0164284 -0.00476581 0)
(-0.000123067 -0.00493903 0)
(0.0167672 -0.00521344 0)
(0.0345201 -0.00534455 0)
(0.0527788 -0.00551048 0)
(0.0713724 -0.00555017 0)
(0.090065 -0.00550928 0)
(0.108607 -0.00546435 0)
(0.1268 -0.00531191 0)
(0.14439 -0.00506499 0)
(0.161101 -0.0047948 0)
(0.176719 -0.0044126 0)
(0.190946 -0.003993 0)
(0.203622 -0.00349841 0)
(0.214513 -0.00292845 0)
(0.223395 -0.0023063 0)
(0.230161 -0.00167707 0)
(0.234632 -0.000962632 0)
(0.236688 -0.000260293 0)
(0.236425 0.000454235 0)
(0.233571 0.00114856 0)
(0.228318 0.00185642 0)
(0.220782 0.00255103 0)
(0.211074 0.00315934 0)
(0.199355 0.00375095 0)
(0.185754 0.00427467 0)
(0.170561 0.0046985 0)
(0.153976 0.00507409 0)
(0.136389 0.00533273 0)
(0.117985 0.00555622 0)
(0.0988701 0.00571079 0)
(0.0795939 0.00573982 0)
(0.0601654 0.00575604 0)
(0.0408392 0.0057016 0)
(0.0219897 0.00557115 0)
(0.00356073 0.00538646 0)
(-0.0142495 0.00518616 0)
(-0.0312778 0.00495813 0)
(-0.0474928 0.00467131 0)
(-0.0627798 0.00440644 0)
(-0.0770481 0.00409294 0)
(-0.0903499 0.00380532 0)
(-0.102618 0.00349158 0)
(-0.113844 0.00317955 0)
(-0.124016 0.00286856 0)
(-0.133144 0.00255688 0)
(-0.141224 0.00225017 0)
(-0.148282 0.0019382 0)
(-0.154371 0.00169146 0)
(-0.159536 0.00139822 0)
(-0.163857 0.00117108 0)
(-0.167357 0.000916081 0)
(-0.170054 0.000693991 0)
(-0.172004 0.000464042 0)
(-0.173235 0.000277519 0)
(-0.173789 6.23848e-05 0)
(-0.173686 -0.000117987 0)
(-0.172942 -0.000313567 0)
(-0.171554 -0.000502776 0)
(-0.169526 -0.000702735 0)
(-0.166839 -0.000897571 0)
(-0.163473 -0.00111213 0)
(-0.15936 -0.00132287 0)
(-0.154535 -0.00155482 0)
(-0.148941 -0.00179876 0)
(-0.142514 -0.00200724 0)
(-0.135289 -0.00227154 0)
(-0.127248 -0.00251551 0)
(-0.118354 -0.0027594 0)
(-0.108627 -0.00302297 0)
(-0.0980661 -0.00328726 0)
(-0.0866166 -0.00351945 0)
(-0.074316 -0.00378105 0)
(-0.0612207 -0.00400684 0)
(-0.0473276 -0.00425153 0)
(-0.0326793 -0.00446555 0)
(-0.0173388 -0.0046656 0)
(-0.00134649 -0.00483293 0)
(0.0151816 -0.00496893 0)
(0.0320678 -0.00507591 0)
(0.0492229 -0.00512675 0)
(0.0664803 -0.00513138 0)
(0.0836302 -0.0050705 0)
(0.100479 -0.00495234 0)
(0.116822 -0.00475652 0)
(0.132403 -0.00449809 0)
(0.146953 -0.00414627 0)
(0.160225 -0.0037337 0)
(0.171945 -0.00324126 0)
(0.181906 -0.0026715 0)
(0.18987 -0.00206902 0)
(0.195687 -0.00137616 0)
(0.199183 -0.000687183 0)
(0.200256 3.04699e-05 0)
(0.198916 0.000759576 0)
(0.19504 0.00149217 0)
(0.188857 0.00218315 0)
(0.180411 0.0028301 0)
(0.169856 0.00343444 0)
(0.157375 0.00396574 0)
(0.143233 0.00443226 0)
(0.127674 0.00483161 0)
(0.110928 0.00511814 0)
(0.0933078 0.00534877 0)
(0.0751346 0.0054633 0)
(0.05668 0.0055201 0)
(0.0381612 0.00549069 0)
(0.0198056 0.00541799 0)
(0.00182265 0.00529209 0)
(-0.0156363 0.00509891 0)
(-0.0324056 0.00488735 0)
(-0.0483836 0.00461801 0)
(-0.0634652 0.00434412 0)
(-0.0775456 0.00405553 0)
(-0.0906431 0.00374654 0)
(-0.102721 0.0034424 0)
(-0.113792 0.00315692 0)
(-0.123891 0.002858 0)
(-0.13306 0.00258963 0)
(-0.141312 0.00232366 0)
(-0.148669 0.0020672 0)
(-0.155248 0.00184788 0)
(-0.161092 0.00160814 0)
(-0.16617 0.00141016 0)
(-0.170485 0.00116531 0)
(-0.174042 0.000953442 0)
(-0.176862 0.00074088 0)
(-0.179012 0.000551138 0)
(-0.180562 0.000363382 0)
(-0.181495 0.00018445 0)
(-0.181852 3.91751e-05 0)
(-0.181659 -0.000128543 0)
(-0.180945 -0.000293982 0)
(-0.179667 -0.000455857 0)
(-0.177861 -0.000628257 0)
(-0.175458 -0.000798174 0)
(-0.172478 -0.000979539 0)
(-0.168852 -0.00117727 0)
(-0.164519 -0.00137828 0)
(-0.159509 -0.00160397 0)
(-0.153726 -0.00184218 0)
(-0.147108 -0.0020932 0)
(-0.13962 -0.00235949 0)
(-0.131219 -0.00262906 0)
(-0.121919 -0.00290038 0)
(-0.111681 -0.00318782 0)
(-0.1005 -0.00346111 0)
(-0.0884035 -0.00373555 0)
(-0.0754313 -0.00401052 0)
(-0.0615554 -0.00423979 0)
(-0.0468422 -0.00449729 0)
(-0.0313763 -0.00469979 0)
(-0.0152319 -0.00489041 0)
(0.00148391 -0.00504213 0)
(0.0186544 -0.00515133 0)
(0.0360833 -0.00520902 0)
(0.0536083 -0.00521455 0)
(0.0710269 -0.00515146 0)
(0.0881322 -0.00502771 0)
(0.104691 -0.00480478 0)
(0.120421 -0.00453467 0)
(0.13508 -0.00417682 0)
(0.148411 -0.00374014 0)
(0.160151 -0.00323948 0)
(0.1701 -0.00267305 0)
(0.178066 -0.00206136 0)
(0.183921 -0.00140652 0)
(0.187511 -0.000734191 0)
(0.188767 -4.31441e-05 0)
(0.187732 0.000665489 0)
(0.184273 0.00136256 0)
(0.178537 0.00203396 0)
(0.170669 0.00263669 0)
(0.160847 0.00319773 0)
(0.149252 0.00369034 0)
(0.136137 0.00410078 0)
(0.121706 0.00447248 0)
(0.106227 0.00473195 0)
(0.08993 0.00495057 0)
(0.0730479 0.00508874 0)
(0.055836 0.00515548 0)
(0.0384804 0.00515811 0)
(0.0212116 0.0051115 0)
(0.00420746 0.00500943 0)
(-0.0124142 0.00487382 0)
(-0.0285028 0.00471336 0)
(-0.0439751 0.00450264 0)
(-0.0587427 0.00428236 0)
(-0.0727098 0.00403015 0)
(-0.0858527 0.00379201 0)
(-0.0981269 0.00352933 0)
(-0.109554 0.00327514 0)
(-0.120139 0.00301395 0)
(-0.129833 0.00275459 0)
(-0.138645 0.00249584 0)
(-0.146575 0.0022365 0)
(-0.153681 0.00197914 0)
(-0.159962 0.00173623 0)
(-0.165389 0.00150835 0)
(-0.170018 0.00127048 0)
(-0.173899 0.00105022 0)
(-0.177105 0.000850531 0)
(-0.179641 0.000644125 0)
(-0.181458 0.000443309 0)
(-0.182575 0.000243962 0)
(-0.183076 5.92771e-05 0)
(-0.182928 -0.000146594 0)
(-0.182123 -0.000347362 0)
(-0.180638 -0.000516593 0)
(-0.178508 -0.000733569 0)
(-0.175704 -0.000933635 0)
(-0.172213 -0.00113495 0)
(-0.168039 -0.00134734 0)
(-0.163143 -0.00155357 0)
(-0.157557 -0.00176912 0)
(-0.151232 -0.00197457 0)
(-0.144196 -0.00219068 0)
(-0.136431 -0.00241682 0)
(-0.127914 -0.00263429 0)
(-0.118644 -0.00285835 0)
(-0.108641 -0.00308981 0)
(-0.097783 -0.00332269 0)
(-0.0862114 -0.00354862 0)
(-0.0738032 -0.00381049 0)
(-0.0606739 -0.00403064 0)
(-0.0467224 -0.00424171 0)
(-0.0319821 -0.00446367 0)
(-0.0167101 -0.00468449 0)
(-0.000363594 -0.00484812 0)
(0.0166833 -0.00498732 0)
(0.0338607 -0.00509777 0)
(0.051272 -0.00520596 0)
(0.0688977 -0.00519599 0)
(0.0864853 -0.00515946 0)
(0.103692 -0.00506406 0)
(0.120345 -0.00484969 0)
(0.136286 -0.00456513 0)
(0.151062 -0.00421253 0)
(0.164419 -0.00375405 0)
(0.176259 -0.00322976 0)
(0.186139 -0.00264561 0)
(0.193973 -0.00200221 0)
(0.199609 -0.00131189 0)
(0.202805 -0.000553649 0)
(0.203541 0.000162122 0)
(0.201763 0.000920735 0)
(0.197406 0.00168127 0)
(0.190699 0.00233335 0)
(0.181741 0.00298215 0)
(0.170748 0.00357633 0)
(0.157955 0.00404318 0)
(0.143593 0.00448494 0)
(0.128025 0.00477593 0)
(0.111413 0.00503786 0)
(0.0941156 0.00523671 0)
(0.0763813 0.00526518 0)
(0.0584944 0.00531169 0)
(0.0406641 0.00524402 0)
(0.022938 0.00512822 0)
(0.00628096 0.00497694 0)
(-0.00947603 0.00476067 0)
(-0.0249149 0.00455132 0)
(-0.0396536 0.00431494 0)
(-0.0535776 0.00403818 0)
(-0.0666407 0.00378057 0)
(-0.0788195 0.00351597 0)
(-0.0901028 0.00323664 0)
(-0.100503 0.00297899 0)
(-0.11004 0.00271562 0)
(-0.11874 0.00247382 0)
(-0.126634 0.00223883 0)
(-0.133751 0.00200642 0)
(-0.14012 0.00178956 0)
(-0.145768 0.00157788 0)
(-0.150714 0.00136838 0)
(-0.154972 0.00116594 0)
(-0.158552 0.000962076 0)
(-0.161457 0.0007591 0)
(-0.163686 0.000552989 0)
(-0.165222 0.000344683 0)
(-0.166044 0.000142007 0)
(-0.16617 -8.07853e-05 0)
(-0.165519 -0.000310452 0)
(-0.1641 -0.000542977 0)
(-0.161881 -0.00077975 0)
(-0.158851 -0.00102585 0)
(-0.154991 -0.00127283 0)
(-0.150287 -0.00152993 0)
(-0.14473 -0.00178272 0)
(-0.138307 -0.00203561 0)
(-0.131016 -0.00230279 0)
(-0.122861 -0.00255276 0)
(-0.113846 -0.00279765 0)
(-0.103983 -0.00306358 0)
(-0.093291 -0.00329452 0)
(-0.0817981 -0.0035509 0)
(-0.0695387 -0.00375859 0)
(-0.0565581 -0.00394841 0)
(-0.0429053 -0.00416878 0)
(-0.0286241 -0.00431425 0)
(-0.0133377 -0.00442654 0)
(0.00195285 -0.00463894 0)
(0.0171346 -0.00469159 0)
(0.033009 -0.00478639 0)
(0.0490192 -0.0047757 0)
(0.065008 -0.00472221 0)
(0.0808406 -0.00469619 0)
(0.0963478 -0.00454901 0)
(0.113091 -0.0043517 0)
(0.180396 0.00857956 0)
(0.164821 0.00893747 0)
(0.1463 0.00933891 0)
(0.127211 0.00961779 0)
(0.107836 0.00958799 0)
(0.0884094 0.00962558 0)
(0.0691467 0.00938957 0)
(0.0502383 0.00922626 0)
(0.0318052 0.00897809 0)
(0.013486 0.00852692 0)
(-0.00341902 0.00821078 0)
(-0.0189005 0.00779747 0)
(-0.0340358 0.00726392 0)
(-0.0482099 0.00679664 0)
(-0.0613838 0.00625999 0)
(-0.0735544 0.00578351 0)
(-0.084725 0.0053038 0)
(-0.094909 0.00480075 0)
(-0.104135 0.00434297 0)
(-0.11243 0.00389541 0)
(-0.119827 0.0034495 0)
(-0.126365 0.00303642 0)
(-0.132078 0.00263832 0)
(-0.137002 0.00225116 0)
(-0.141172 0.0018852 0)
(-0.144616 0.00152935 0)
(-0.147364 0.0011866 0)
(-0.149438 0.000850739 0)
(-0.150851 0.000527263 0)
(-0.151602 0.000214501 0)
(-0.15172 -0.000110909 0)
(-0.151163 -0.000448009 0)
(-0.149947 -0.000778547 0)
(-0.148049 -0.00112564 0)
(-0.145451 -0.00147967 0)
(-0.142118 -0.00184698 0)
(-0.138023 -0.0022428 0)
(-0.133139 -0.00263895 0)
(-0.127416 -0.00305374 0)
(-0.120814 -0.00351859 0)
(-0.113294 -0.00396581 0)
(-0.104811 -0.0044836 0)
(-0.095313 -0.00495853 0)
(-0.0848027 -0.00543006 0)
(-0.0732056 -0.00601732 0)
(-0.0605323 -0.0064794 0)
(-0.0468149 -0.00693246 0)
(-0.0321541 -0.00751123 0)
(-0.0164946 -0.00794294 0)
(-0.000180291 -0.00823314 0)
(0.0167168 -0.00869119 0)
(0.0344829 -0.00890983 0)
(0.0527572 -0.00918694 0)
(0.0713663 -0.0092538 0)
(0.0900762 -0.00918538 0)
(0.108637 -0.00911123 0)
(0.126849 -0.00885757 0)
(0.144459 -0.00844526 0)
(0.16119 -0.00799385 0)
(0.176822 -0.007362 0)
(0.191073 -0.00665283 0)
(0.203759 -0.00583871 0)
(0.214672 -0.0048751 0)
(0.223557 -0.00385589 0)
(0.23034 -0.00278904 0)
(0.234821 -0.00161008 0)
(0.236883 -0.00043231 0)
(0.2366 0.000753783 0)
(0.233741 0.00191252 0)
(0.228499 0.00309387 0)
(0.220952 0.00425363 0)
(0.211233 0.00526952 0)
(0.199499 0.00625513 0)
(0.185877 0.00712771 0)
(0.170663 0.00783256 0)
(0.15406 0.00846019 0)
(0.13645 0.00889184 0)
(0.118029 0.00926133 0)
(0.0988906 0.00951975 0)
(0.079595 0.00957302 0)
(0.0601558 0.00959881 0)
(0.0408022 0.00950961 0)
(0.0219336 0.00928542 0)
(0.00348757 0.00897868 0)
(-0.0143258 0.00864453 0)
(-0.0313671 0.00826601 0)
(-0.0475954 0.00778817 0)
(-0.0628864 0.00734055 0)
(-0.0771598 0.00683046 0)
(-0.0904694 0.00633789 0)
(-0.102744 0.00581906 0)
(-0.113973 0.00530513 0)
(-0.124159 0.00477736 0)
(-0.133284 0.00425163 0)
(-0.141365 0.00376094 0)
(-0.148417 0.0032325 0)
(-0.154502 0.00282028 0)
(-0.159668 0.00234011 0)
(-0.163989 0.00194031 0)
(-0.167491 0.00153433 0)
(-0.170196 0.00115229 0)
(-0.172145 0.000776845 0)
(-0.173379 0.000457651 0)
(-0.173918 0.000103988 0)
(-0.173807 -0.000192592 0)
(-0.173066 -0.000530251 0)
(-0.171682 -0.000840187 0)
(-0.16965 -0.00116753 0)
(-0.166963 -0.00149771 0)
(-0.163597 -0.00184018 0)
(-0.159496 -0.00221488 0)
(-0.154675 -0.00258882 0)
(-0.149072 -0.00299304 0)
(-0.14265 -0.00335616 0)
(-0.135426 -0.00377223 0)
(-0.127387 -0.00419613 0)
(-0.118503 -0.00460789 0)
(-0.10877 -0.00503827 0)
(-0.0982059 -0.0054751 0)
(-0.0867462 -0.00586926 0)
(-0.0744463 -0.00629437 0)
(-0.0613608 -0.00668853 0)
(-0.0474548 -0.00708275 0)
(-0.0328053 -0.00744586 0)
(-0.0174547 -0.00778304 0)
(-0.00144924 -0.00804526 0)
(0.0150739 -0.00829635 0)
(0.0319843 -0.00846057 0)
(0.049152 -0.00854118 0)
(0.0664252 -0.00855841 0)
(0.0835951 -0.00844724 0)
(0.10046 -0.00825597 0)
(0.116825 -0.00793134 0)
(0.132421 -0.00750143 0)
(0.146994 -0.00690988 0)
(0.160279 -0.00622828 0)
(0.172027 -0.00540003 0)
(0.181998 -0.00446253 0)
(0.189984 -0.00344041 0)
(0.195807 -0.00230635 0)
(0.199307 -0.00114784 0)
(0.200393 5.15356e-05 0)
(0.199034 0.00127348 0)
(0.195158 0.00248918 0)
(0.188967 0.00363744 0)
(0.180509 0.0047233 0)
(0.169937 0.00572711 0)
(0.157441 0.00661523 0)
(0.143283 0.00738903 0)
(0.127695 0.00805407 0)
(0.110923 0.00853783 0)
(0.0932831 0.00891242 0)
(0.0750865 0.00911528 0)
(0.056615 0.00920099 0)
(0.0380861 0.00916251 0)
(0.0197085 0.00903952 0)
(0.00170542 0.00881671 0)
(-0.0157611 0.00850738 0)
(-0.0325499 0.00814496 0)
(-0.0485309 0.00768384 0)
(-0.0635991 0.00724481 0)
(-0.0776834 0.00676199 0)
(-0.0907851 0.0062458 0)
(-0.102857 0.00574126 0)
(-0.113931 0.00526172 0)
(-0.124028 0.00476268 0)
(-0.1332 0.00432005 0)
(-0.141457 0.00387073 0)
(-0.148807 0.00344633 0)
(-0.155379 0.00306648 0)
(-0.161203 0.00268733 0)
(-0.166292 0.00235461 0)
(-0.17062 0.00194517 0)
(-0.174177 0.00159164 0)
(-0.176999 0.00123588 0)
(-0.179145 0.000912029 0)
(-0.180695 0.00060856 0)
(-0.181618 0.000304643 0)
(-0.181964 7.30608e-05 0)
(-0.181786 -0.000223552 0)
(-0.181066 -0.000485771 0)
(-0.179792 -0.000764377 0)
(-0.177987 -0.00104896 0)
(-0.175578 -0.00132426 0)
(-0.172611 -0.00163694 0)
(-0.168983 -0.00195451 0)
(-0.164662 -0.00230156 0)
(-0.159654 -0.00268012 0)
(-0.15386 -0.00306269 0)
(-0.147254 -0.00349055 0)
(-0.139766 -0.00392981 0)
(-0.131366 -0.00438537 0)
(-0.122073 -0.00483564 0)
(-0.111826 -0.00530821 0)
(-0.100644 -0.00577313 0)
(-0.0885445 -0.00622522 0)
(-0.0755638 -0.00667911 0)
(-0.0616926 -0.00707311 0)
(-0.0469665 -0.00748691 0)
(-0.0314952 -0.0078361 0)
(-0.0153426 -0.00815284 0)
(0.00138189 -0.00840682 0)
(0.0185607 -0.00859575 0)
(0.0360085 -0.0086887 0)
(0.0535579 -0.00868845 0)
(0.0709928 -0.00858349 0)
(0.0881174 -0.00838301 0)
(0.104696 -0.00801589 0)
(0.120444 -0.00755916 0)
(0.135131 -0.00696134 0)
(0.148478 -0.00624296 0)
(0.160234 -0.00539398 0)
(0.170194 -0.00446548 0)
(0.178174 -0.00343706 0)
(0.184034 -0.00235549 0)
(0.187635 -0.0012136 0)
(0.188897 -7.60795e-05 0)
(0.187848 0.00112039 0)
(0.184383 0.00227519 0)
(0.178649 0.00338715 0)
(0.170765 0.0044041 0)
(0.160918 0.0053243 0)
(0.149308 0.00615092 0)
(0.13618 0.00684477 0)
(0.121725 0.00745772 0)
(0.106228 0.00789352 0)
(0.0899112 0.00825221 0)
(0.0730058 0.00848814 0)
(0.0557725 0.00859232 0)
(0.0383982 0.00859596 0)
(0.0211213 0.00851855 0)
(0.00410342 0.00835926 0)
(-0.0125178 0.00812297 0)
(-0.028607 0.00785839 0)
(-0.0440922 0.00750661 0)
(-0.0588554 0.00713364 0)
(-0.0728273 0.00673174 0)
(-0.0859791 0.00632024 0)
(-0.098254 0.00588149 0)
(-0.109685 0.00545235 0)
(-0.120271 0.005024 0)
(-0.129974 0.00459185 0)
(-0.138783 0.00415522 0)
(-0.146708 0.00372772 0)
(-0.153811 0.00330175 0)
(-0.160093 0.00289588 0)
(-0.165527 0.00251433 0)
(-0.170159 0.00211791 0)
(-0.174036 0.00174976 0)
(-0.177241 0.00141498 0)
(-0.179772 0.00107251 0)
(-0.181587 0.000744698 0)
(-0.182703 0.000403778 0)
(-0.183202 9.96595e-05 0)
(-0.183049 -0.000240832 0)
(-0.182248 -0.000580258 0)
(-0.180767 -0.00086877 0)
(-0.178641 -0.00121852 0)
(-0.175839 -0.00155673 0)
(-0.172347 -0.00189683 0)
(-0.168169 -0.00223978 0)
(-0.163276 -0.00259449 0)
(-0.157686 -0.00293656 0)
(-0.151363 -0.00329879 0)
(-0.144325 -0.00365218 0)
(-0.136556 -0.00401599 0)
(-0.128041 -0.00439766 0)
(-0.118766 -0.00476162 0)
(-0.10876 -0.00514975 0)
(-0.0979017 -0.00554117 0)
(-0.0863245 -0.00591727 0)
(-0.0739059 -0.00634593 0)
(-0.0607736 -0.00672444 0)
(-0.0468052 -0.00706754 0)
(-0.0320696 -0.00744124 0)
(-0.0167827 -0.00781137 0)
(-0.000417327 -0.00807501 0)
(0.0166321 -0.00831682 0)
(0.0338195 -0.00849847 0)
(0.0512453 -0.00868454 0)
(0.0688973 -0.00865841 0)
(0.0864942 -0.0086035 0)
(0.103729 -0.00844135 0)
(0.120406 -0.00809228 0)
(0.136367 -0.00760927 0)
(0.151168 -0.00701979 0)
(0.164544 -0.00627003 0)
(0.176404 -0.0053882 0)
(0.186305 -0.00440602 0)
(0.194151 -0.00334156 0)
(0.1998 -0.00218847 0)
(0.203006 -0.00092756 0)
(0.203741 0.000268309 0)
(0.201938 0.00153543 0)
(0.197591 0.00280217 0)
(0.190874 0.00389285 0)
(0.181901 0.0049655 0)
(0.170889 0.00598277 0)
(0.158077 0.00674933 0)
(0.143693 0.00747981 0)
(0.1281 0.00796403 0)
(0.111468 0.00839977 0)
(0.0941464 0.00873153 0)
(0.0763932 0.00877834 0)
(0.0584858 0.00885612 0)
(0.0406403 0.00874342 0)
(0.0229042 0.00854766 0)
(0.00623284 0.00829666 0)
(-0.00953096 0.00793575 0)
(-0.0249775 0.00758659 0)
(-0.0397211 0.00719233 0)
(-0.0536473 0.00673074 0)
(-0.0667122 0.00630115 0)
(-0.0788914 0.00585999 0)
(-0.0901732 0.00539427 0)
(-0.100572 0.00496477 0)
(-0.110106 0.00452574 0)
(-0.118804 0.00412271 0)
(-0.126696 0.00373112 0)
(-0.13381 0.00334372 0)
(-0.140177 0.00298233 0)
(-0.145823 0.0026297 0)
(-0.150768 0.00228059 0)
(-0.155026 0.00194333 0)
(-0.158606 0.00160354 0)
(-0.16151 0.00126544 0)
(-0.163738 0.000922529 0)
(-0.165277 0.000575202 0)
(-0.166105 0.000235425 0)
(-0.166229 -0.000134694 0)
(-0.16558 -0.000517197 0)
(-0.164163 -0.000904662 0)
(-0.161944 -0.00129933 0)
(-0.158916 -0.0017095 0)
(-0.155058 -0.00212119 0)
(-0.150354 -0.00254975 0)
(-0.144798 -0.00297113 0)
(-0.138375 -0.00339264 0)
(-0.131085 -0.00383804 0)
(-0.122929 -0.00425473 0)
(-0.113912 -0.00466295 0)
(-0.104048 -0.00510626 0)
(-0.0933539 -0.00549126 0)
(-0.081859 -0.0059187 0)
(-0.0695957 -0.00626498 0)
(-0.0566103 -0.0065815 0)
(-0.0429527 -0.00694902 0)
(-0.028664 -0.00719185 0)
(-0.0133783 -0.00737739 0)
(0.00191938 -0.00773443 0)
(0.0171176 -0.00782044 0)
(0.0330001 -0.00797887 0)
(0.0490205 -0.00796127 0)
(0.0650206 -0.00787229 0)
(0.0808662 -0.00782916 0)
(0.0963866 -0.00758395 0)
(0.113145 -0.00725519 0)
(0.180521 0.0120187 0)
(0.164915 0.0125195 0)
(0.146365 0.0130816 0)
(0.127246 0.0134718 0)
(0.107842 0.0134294 0)
(0.0883898 0.0134816 0)
(0.0691046 0.0131503 0)
(0.0501754 0.0129215 0)
(0.0317242 0.0125714 0)
(0.0133993 0.0119382 0)
(-0.00351547 0.0115 0)
(-0.0190123 0.0109183 0)
(-0.0341517 0.0101702 0)
(-0.048329 0.00951564 0)
(-0.061502 0.00876392 0)
(-0.0736726 0.00809653 0)
(-0.0848419 0.00742483 0)
(-0.0950219 0.00672031 0)
(-0.104245 0.00607931 0)
(-0.112536 0.0054526 0)
(-0.119929 0.00482833 0)
(-0.126462 0.00425005 0)
(-0.132172 0.00369277 0)
(-0.137091 0.00315086 0)
(-0.141257 0.00263864 0)
(-0.144698 0.00214077 0)
(-0.147443 0.00166153 0)
(-0.149514 0.00119272 0)
(-0.150926 0.000739904 0)
(-0.151686 0.000294715 0)
(-0.151797 -0.00015659 0)
(-0.151243 -0.000626386 0)
(-0.150027 -0.00108954 0)
(-0.148133 -0.00157531 0)
(-0.145537 -0.00207031 0)
(-0.142208 -0.00258506 0)
(-0.138118 -0.00313888 0)
(-0.133238 -0.00369353 0)
(-0.127519 -0.0042741 0)
(-0.120922 -0.00492491 0)
(-0.113407 -0.00555112 0)
(-0.104929 -0.00627609 0)
(-0.0954327 -0.006941 0)
(-0.0849243 -0.00760225 0)
(-0.0733288 -0.0084231 0)
(-0.0606521 -0.00907275 0)
(-0.0469338 -0.00970334 0)
(-0.03227 -0.0105221 0)
(-0.0165937 -0.0111214 0)
(-0.00026641 -0.0115285 0)
(0.0166406 -0.0121724 0)
(0.0344268 -0.012479 0)
(0.0527244 -0.0128672 0)
(0.0713569 -0.0129613 0)
(0.0900929 -0.0128658 0)
(0.108684 -0.0127624 0)
(0.126922 -0.0124084 0)
(0.144562 -0.0118318 0)
(0.16132 -0.0111997 0)
(0.176982 -0.0103118 0)
(0.191259 -0.00932725 0)
(0.203965 -0.00817872 0)
(0.214907 -0.00683774 0)
(0.223805 -0.00540071 0)
(0.230602 -0.00391667 0)
(0.2351 -0.0022654 0)
(0.237169 -0.00060633 0)
(0.236856 0.00107019 0)
(0.233999 0.00267431 0)
(0.22877 0.00433189 0)
(0.221206 0.0059574 0)
(0.211469 0.00738517 0)