/*--------------------------------*- C++ -*----------------------------------*\
| =========                 |                                                 |
| \\      /  F ield         | OpenFOAM: The Open Source CFD Toolbox           |
|  \\    /   O peration     | Version:  3.0.1                                 |
|   \\  /    A nd           | Web:      www.OpenFOAM.org                      |
|    \\/     M anipulation  |                                                 |
\*---------------------------------------------------------------------------*/
FoamFile
{
    version     2.0;
    format      ascii;
    class       volScalarField;
    location    "54.2";
    object      p_rgh;
}
// * * * * * * * * * * * * * * * * * * * * * * * * * * * * * * * * * * * * * //

dimensions      [1 -1 -2 0 0 0 0];

internalField   nonuniform List<scalar> 
21420
(
-32.1737
-39.3484
-68.8472
-97.8747
-125.503
-151.528
-175.808
-198.293
-218.941
-237.75
-254.746
-269.963
-283.451
-295.264
-305.458
-314.085
-321.195
-326.832
-331.039
-333.84
-335.245
-335.291
-334.014
-331.364
-327.333
-321.898
-315.032
-306.691
-296.824
-285.384
-272.309
-257.537
-241.023
-222.719
-202.602
-180.645
-156.856
-131.289
-104
-75.0778
-44.6741
-12.995
19.7368
53.2619
87.3205
121.553
155.583
189.058
221.554
252.642
281.941
309.05
333.603
355.263
373.727
388.749
400.129
407.701
411.336
410.311
405.298
396.348
383.541
367.131
347.31
324.34
298.557
270.299
239.96
207.94
174.635
140.47
105.846
71.1213
36.6586
2.83741
-28.9316
-60.55
-90.9315
-119.85
-147.158
-172.747
-196.52
-218.43
-238.448
-256.543
-272.728
-287.016
-299.425
-309.996
-318.775
-325.802
-331.139
-334.863
-337.007
-337.611
-336.777
-334.519
-330.862
-325.816
-319.38
-311.541
-302.273
-291.543
-279.313
-265.543
-250.197
-233.244
-214.664
-194.445
-172.593
-149.132
-124.105
-97.5796
-69.6471
-40.4231
-10.0527
21.3085
53.3928
85.9735
118.778
151.496
183.787
215.281
245.593
274.321
301.065
325.421
347.008
365.466
380.478
391.763
399.106
402.279
401.309
396.121
386.784
373.386
356.148
335.328
311.236
284.237
254.739
223.18
190.017
155.72
120.758
85.5821
50.6093
16.4867
-16.8613
-48.8878
-79.3638
-108.1
-134.961
-159.862
-182.763
-203.659
-222.573
-239.556
-254.672
-267.996
-279.621
-289.631
-298.113
-305.144
-310.799
-315.141
-318.227
-320.081
-320.713
-320.151
-318.404
-315.447
-311.251
-305.793
-299.043
-290.961
-281.51
-270.651
-258.344
-244.542
-229.202
-212.285
-193.749
-173.565
-151.722
-128.228
-103.116
-76.4457
-48.3185
-18.8703
11.7216
43.2718
75.4856
108.089
140.762
173.146
204.849
235.453
264.52
291.605
316.272
338.102
356.717
371.784
383.032
390.254
393.255
392.066
386.648
377.097
363.541
346.231
325.458
301.571
274.972
246.094
215.391
183.325
150.354
116.916
83.433
50.3181
17.8369
-13.685
-44.0009
-72.9145
-100.276
-125.979
-149.95
-172.149
-192.563
-211.203
-228.094
-243.274
-256.788
-268.693
-279.048
-287.909
-295.338
-301.387
-306.106
-309.545
-311.75
-312.739
-312.531
-311.183
-308.671
-304.992
-300.129
-294.061
-286.752
-278.162
-268.251
-256.969
-244.268
-230.1
-214.414
-197.178
-178.364
-157.959
-135.969
-112.429
-87.3961
-60.9548
-33.223
-4.35094
25.491
56.1691
88.9367
120.481
151.803
182.697
212.789
241.69
269.007
294.349
317.292
337.456
354.472
368.002
377.781
383.58
385.226
382.598
376.01
365.285
350.613
332.227
310.485
285.761
258.494
229.149
198.189
166.09
133.296
100.195
67.12
34.4025
8.86791
-21.3594
-50.1876
-77.4471
-103.041
-126.906
-149.025
-169.424
-188.149
-205.282
-220.912
-235.142
-248.072
-259.784
-270.347
-279.807
-288.183
-295.471
-301.641
-306.648
-310.432
-312.928
-314.027
-313.651
-311.754
-308.24
-303.029
-296.08
-287.338
-276.762
-264.323
-250.009
-233.82
-215.775
-195.93
-174.34
-151.109
-126.339
-100.16
-72.7636
-44.3092
-14.9224
16.7911
47.7289
78.1792
108.133
137.441
165.769
192.81
218.33
242.021
263.656
282.982
299.829
314.049
325.461
333.885
-32.1613
-39.4205
-68.9343
-97.9607
-125.588
-151.612
-175.892
-198.376
-219.021
-237.827
-254.821
-270.035
-283.52
-295.331
-305.521
-314.146
-321.254
-326.889
-331.094
-333.895
-335.298
-335.346
-334.069
-331.419
-327.388
-321.956
-315.091
-306.752
-296.888
-285.451
-272.38
-257.611
-241.1
-222.798
-202.683
-180.727
-156.939
-131.371
-104.08
-75.1543
-44.7462
-13.0601
19.6803
53.2158
87.2866
121.533
155.579
189.07
221.584
252.69
282.007
309.134
333.704
355.379
373.855
388.888
400.276
407.855
411.502
410.463
405.445
396.491
383.676
367.254
347.42
324.434
298.633
270.358
240
207.962
174.64
140.459
105.82
71.0822
36.6091
2.77847
-29.0035
-60.6269
-91.0126
-119.934
-147.245
-172.835
-196.608
-218.518
-238.535
-256.629
-272.812
-287.098
-299.506
-310.075
-318.852
-325.876
-331.21
-334.932
-337.073
-337.676
-336.841
-334.582
-330.925
-325.879
-319.444
-311.607
-302.34
-291.613
-279.385
-265.618
-250.274
-233.322
-214.743
-194.526
-172.674
-149.213
-124.186
-97.6579
-69.7225
-40.4944
-10.1179
21.25
53.3426
85.9335
118.75
151.481
183.787
215.297
245.626
274.373
301.135
325.508
347.112
365.586
380.611
391.907
399.257
402.441
401.463
396.272
386.929
373.521
356.27
335.433
311.324
284.306
254.787
223.207
190.025
155.709
120.728
85.5371
50.5491
16.4134
-16.9452
-48.9783
-79.4592
-108.198
-135.06
-159.961
-182.86
-203.753
-222.664
-239.643
-254.755
-268.075
-279.695
-289.701
-298.179
-305.207
-310.86
-315.2
-318.284
-320.136
-320.766
-320.206
-318.46
-315.503
-311.309
-305.852
-299.105
-291.025
-281.575
-270.718
-258.414
-244.614
-229.277
-212.362
-193.828
-173.646
-151.804
-128.311
-103.197
-76.5259
-48.3951
-18.9418
11.6579
43.2156
75.4401
108.056
140.743
173.143
204.864
235.486
264.572
291.677
316.362
338.21
356.842
371.922
383.181
390.41
393.42
392.222
386.8
377.242
363.675
346.351
325.56
301.654
275.035
246.137
215.414
183.329
150.339
116.886
83.3869
50.2624
17.7702
-13.7596
-44.0811
-72.9988
-100.363
-126.067
-150.038
-172.235
-192.648
-211.285
-228.174
-243.351
-256.862
-268.764
-279.115
-287.973
-295.4
-301.447
-306.164
-309.602
-311.805
-312.791
-312.584
-311.236
-308.724
-305.045
-300.184
-294.117
-286.81
-278.223
-268.314
-257.034
-244.336
-230.17
-214.487
-197.253
-178.44
-158.035
-136.045
-112.504
-87.469
-61.0242
-33.2877
-4.40989
25.4374
56.1163
88.9136
120.463
151.795
182.704
212.812
241.73
269.065
294.425
317.386
337.567
354.598
368.142
377.932
383.74
385.392
382.77
376.169
365.436
350.752
332.351
310.591
285.847
258.558
229.192
198.212
166.094
133.285
100.17
67.0842
34.3521
8.80031
-21.4378
-50.2685
-77.5287
-103.122
-126.986
-149.103
-169.498
-188.219
-205.346
-220.972
-235.197
-248.122
-259.831
-270.392
-279.852
-288.228
-295.516
-301.688
-306.697
-310.483
-312.981
-314.084
-313.71
-311.818
-308.306
-303.098
-296.151
-287.412
-276.838
-264.4
-250.087
-233.898
-215.853
-196.007
-174.415
-151.181
-126.407
-100.222
-72.8193
-44.3579
-14.9648
16.7617
47.708
78.1687
108.134
137.456
165.796
192.851
218.384
242.088
263.736
283.073
299.93
314.158
325.576
334.005
-32.1319
-39.5694
-69.1092
-98.1328
-125.757
-151.781
-176.059
-198.54
-219.182
-237.983
-254.971
-270.179
-283.658
-295.463
-305.648
-314.268
-321.371
-327.003
-331.205
-334.005
-335.405
-335.456
-334.177
-331.528
-327.5
-322.07
-315.21
-306.875
-297.017
-285.586
-272.521
-257.758
-241.253
-222.956
-202.846
-180.892
-157.104
-131.534
-104.239
-75.3069
-44.8904
-13.1901
19.5676
53.1238
87.2192
121.494
155.57
189.096
221.645
252.788
282.14
309.302
333.905
355.609
374.112
389.166
400.571
408.162
411.834
410.763
405.741
396.777
383.947
367.502
347.64
324.623
298.788
270.476
240.082
208.008
174.65
140.438
105.77
71.0065
36.513
2.66424
-29.1438
-60.7764
-91.1697
-120.097
-147.412
-173.004
-196.777
-218.686
-238.701
-256.791
-272.971
-287.253
-299.656
-310.22
-318.992
-326.011
-331.34
-335.058
-337.189
-337.793
-336.955
-334.693
-331.036
-325.99
-319.558
-311.723
-302.46
-291.737
-279.514
-265.751
-250.411
-233.463
-214.888
-194.672
-172.822
-149.36
-124.331
-97.7993
-69.8581
-40.6219
-10.2331
21.1482
53.2577
85.8689
118.709
151.467
183.802
215.345
245.709
274.491
301.29
325.699
347.337
365.842
380.893
392.211
399.576
402.782
401.782
396.591
387.233
373.805
356.528
335.659
311.514
284.457
254.898
223.278
190.055
155.701
120.685
85.4623
50.4594
16.2668
-17.0974
-49.1436
-79.6343
-108.379
-135.243
-160.143
-183.038
-203.926
-222.83
-239.802
-254.905
-268.217
-279.828
-289.826
-298.297
-305.318
-310.966
-315.302
-318.383
-320.232
-320.859
-320.302
-318.557
-315.601
-311.41
-305.957
-299.213
-291.136
-281.691
-270.839
-258.538
-244.744
-229.412
-212.501
-193.972
-173.794
-151.955
-128.462
-103.347
-76.672
-48.5343
-19.0707
11.5442
43.1174
75.3633
108.004
140.719
173.151
204.906
235.566
264.691
291.835
316.558
338.442
357.105
372.212
383.492
390.734
393.763
392.544
387.118
377.544
363.955
346.601
325.776
301.833
275.174
246.235
215.472
183.349
150.323
116.837
83.3075
50.1641
17.6495
-13.8957
-44.2285
-73.1539
-100.522
-126.228
-150.198
-172.394
-192.803
-211.435
-228.319
-243.49
-256.995
-268.891
-279.236
-288.09
-295.511
-301.553
-306.267
-309.701
-311.901
-312.881
-312.678
-311.328
-308.817
-305.14
-300.282
-294.218
-286.914
-278.331
-268.427
-257.152
-244.46
-230.298
-214.62
-197.39
-178.58
-158.177
-136.186
-112.643
-87.6038
-61.1525
-33.4067
-4.518
25.3397
56.0195
88.8758
120.433
151.786
182.725
212.865
241.816
269.186
294.581
317.577
337.792
354.853
368.425
378.238
384.062
385.724
383.117
376.486
365.739
351.032
332.601
310.804
286.018
258.687
229.278
198.258
166.103
133.261
100.121
67.0129
34.2523
8.66425
-21.595
-50.4304
-77.692
-103.285
-127.145
-149.258
-169.645
-188.357
-205.475
-221.091
-235.307
-248.224
-259.927
-270.483
-279.94
-288.316
-295.606
-301.781
-306.794
-310.585
-313.088
-314.197
-313.832
-311.947
-308.438
-303.236
-296.294
-287.559
-276.989
-264.555
-250.244
-234.056
-216.01
-196.161
-174.566
-151.326
-126.542
-100.347
-72.9308
-44.4555
-15.049
16.7025
47.666
78.1477
108.137
137.484
165.851
192.933
218.493
242.223
263.895
283.255
300.13
314.375
325.806
334.246
-32.0758
-39.8043
-69.3729
-98.3908
-126.012
-152.034
-176.309
-198.787
-219.423
-238.217
-255.196
-270.395
-283.865
-295.661
-305.838
-314.45
-321.547
-327.173
-331.37
-334.168
-335.566
-335.621
-334.339
-331.691
-327.666
-322.242
-315.387
-307.06
-297.21
-285.788
-272.732
-257.978
-241.483
-223.194
-203.089
-181.139
-157.352
-131.78
-104.479
-75.5358
-45.1071
-13.3854
19.3983
52.9855
87.1177
121.435
155.557
189.133
221.736
252.933
282.34
309.555
334.206
355.955
374.497
389.583
401.013
408.622
412.323
411.222
406.189
397.207
384.354
367.875
347.971
324.906
299.019
270.653
240.205
208.077
174.667
140.406
105.694
70.8927
36.3687
2.49284
-29.3541
-61.0007
-91.4055
-120.342
-147.663
-173.257
-197.03
-218.938
-238.948
-257.034
-273.208
-287.483
-299.879
-310.436
-319.2
-326.212
-331.534
-335.243
-337.364
-337.966
-337.124
-334.859
-331.2
-326.155
-319.726
-311.896
-302.638
-291.921
-279.704
-265.948
-250.615
-233.673
-215.102
-194.89
-173.041
-149.579
-124.546
-98.009
-70.059
-40.8108
-10.4036
20.998
53.1328
85.7745
118.649
151.448
183.828
215.42
245.835
274.672
301.525
325.988
347.677
366.229
381.32
392.67
400.056
403.291
402.271
397.074
387.693
374.236
356.918
336.002
311.802
284.687
255.068
223.386
190.103
155.692
120.622
85.3522
50.3185
16.0586
-17.3228
-49.3892
-79.8945
-108.648
-135.516
-160.414
-183.304
-204.183
-223.077
-240.037
-255.127
-268.427
-280.025
-290.011
-298.47
-305.482
-311.122
-315.452
-318.528
-320.373
-320.999
-320.445
-318.7
-315.747
-311.559
-306.112
-299.373
-291.302
-281.863
-271.017
-258.723
-244.936
-229.612
-212.709
-194.186
-174.015
-152.179
-128.687
-103.57
-76.8891
-48.741
-19.2617
11.3754
42.9724
75.2504
107.928
140.686
173.166
204.973
235.688
264.871
292.074
316.855
338.792
357.504
372.651
383.961
391.222
394.274
393.036
387.6
378.001
364.378
346.98
326.103
302.103
275.385
246.385
215.562
183.38
150.301
116.767
83.1904
50.0188
17.4705
-14.098
-44.4477
-73.3847
-100.76
-126.468
-150.437
-172.629
-193.033
-211.659
-228.534
-243.696
-257.193
-269.081
-279.417
-288.262
-295.676
-301.711
-306.418
-309.848
-312.044
-313.017
-312.816
-311.465
-308.955
-305.28
-300.426
-294.366
-287.068
-278.492
-268.594
-257.328
-244.643
-230.488
-214.817
-197.593
-178.788
-158.387
-136.396
-112.85
-87.8047
-61.3436
-33.5841
-4.67904
25.1944
55.8752
88.8196
120.388
151.774
182.757
212.944
241.946
269.369
294.816
317.863
338.129
355.236
368.849
378.697
384.546
386.223
383.635
376.967
366.197
351.452
332.975
311.122
286.275
258.88
229.407
198.326
166.116
133.226
100.045
66.9061
34.1055
8.45687
-21.8317
-50.6736
-77.937
-103.529
-127.385
-149.49
-169.866
-188.565
-205.668
-221.27
-235.472
-248.377
-260.07
-270.62
-280.073
-288.448
-295.741
-301.921
-306.94
-310.739
-313.249
-314.365
-314.016
-312.139
-308.636
-303.442
-296.509
-287.781
-277.216
-264.787
-250.479
-234.292
-216.245
-196.393
-174.792
-151.542
-126.746
-100.534
-73.0982
-44.6017
-15.1744
16.6123
47.6026
78.1162
108.141
137.527
165.934
193.056
218.656
242.425
264.134
283.527
300.432
314.7
326.152
334.607
-31.9781
-40.1408
-69.7268
-98.7345
-126.351
-152.371
-176.643
-199.116
-219.744
-238.529
-255.497
-270.683
-284.14
-295.925
-306.091
-314.693
-321.781
-327.401
-331.591
-334.384
-335.781
-335.839
-334.555
-331.909
-327.889
-322.47
-315.623
-307.306
-297.467
-286.057
-273.014
-258.273
-241.789
-223.511
-203.414
-181.469
-157.683
-132.109
-104.799
-75.8417
-45.3961
-13.6461
19.1722
52.8008
86.9821
121.355
155.54
189.183
221.857
253.128
282.607
309.891
334.608
356.417
375.011
390.139
401.602
409.234
412.955
411.847
406.792
397.783
384.897
368.372
348.412
325.283
299.327
270.889
240.368
208.168
174.688
140.364
105.593
70.7405
36.1756
2.26367
-29.6344
-61.3
-91.7202
-120.668
-147.997
-173.595
-197.368
-219.273
-239.279
-257.358
-273.524
-287.791
-300.178
-310.724
-319.479
-326.48
-331.792
-335.49
-337.599
-338.197
-337.347
-335.079
-331.419
-326.375
-319.95
-312.125
-302.874
-292.166
-279.958
-266.211
-250.887
-233.952
-215.387
-195.179
-173.332
-149.869
-124.833
-98.2882
-70.3264
-41.0618
-10.6315
20.7984
52.967
85.649
118.571
151.423
183.863
215.52
246.005
274.913
301.839
326.374
348.131
366.746
381.891
393.284
400.698
403.956
402.935
397.723
388.31
374.812
357.44
336.459
312.187
284.994
255.295
223.531
190.168
155.68
120.538
85.2049
50.1225
15.7895
-17.6225
-49.7163
-80.2413
-109.006
-135.878
-160.775
-183.657
-204.525
-223.406
-240.35
-255.424
-268.706
-280.288
-290.258
-298.701
-305.7
-311.33
-315.651
-318.72
-320.558
-321.187
-320.633
-318.891
-315.941
-311.759
-306.318
-299.586
-291.522
-282.092
-271.255
-258.969
-245.191
-229.878
-212.985
-194.471
-174.308
-152.477
-128.987
-103.867
-77.1782
-49.0163
-19.5162
11.1497
42.7796
75.1003
107.828
140.643
173.186
205.062
235.852
265.112
292.393
317.251
339.26
358.036
373.237
384.588
391.875
394.944
393.702
388.247
378.612
364.943
347.486
326.541
302.465
275.667
246.585
215.681
183.423
150.272
116.673
83.0345
49.8248
17.2317
-14.3676
-44.7398
-73.6921
-101.076
-126.787
-150.756
-172.943
-193.34
-211.957
-228.821
-243.971
-257.456
-269.333
-279.657
-288.491
-295.896
-301.921
-306.621
-310.044
-312.231
-313.201
-313
-311.647
-309.137
-305.466
-300.617
-294.564
-287.274
-278.706
-268.818
-257.561
-244.886
-230.742
-215.081
-197.865
-179.065
-158.667
-136.677
-113.127
-88.0725
-61.5985
-33.8207
-4.89348
25.0014
55.6831
88.7438
120.327
151.758
182.799
213.05
242.12
269.611
295.129
318.246
338.579
355.747
369.414
379.308
385.191
386.888
384.314
377.619
366.811
352.013
333.475
311.548
286.618
259.137
229.579
198.417
166.133
133.178
99.9433
66.7641
33.916
8.17356
-22.1487
-50.9981
-78.2639
-103.854
-127.705
-149.799
-170.162
-188.843
-205.926
-221.508
-235.691
-248.58
-260.26
-270.801
-280.25
-288.625
-295.921
-302.107
-307.135
-310.944
-313.463
-314.591
-314.26
-312.395
-308.901
-303.717
-296.795
-288.076
-277.52
-265.096
-250.793
-234.607
-216.559
-196.703
-175.093
-151.831
-127.018
-100.783
-73.3219
-44.7965
-15.3402
16.4892
47.5178
78.0744
108.148
137.585
166.044
193.22
218.874
242.695
264.452
283.89
300.834
315.135
326.614
335.09
-31.8171
-40.6016
-70.1718
-99.1639
-126.775
-152.792
-177.061
-199.527
-220.147
-238.918
-255.872
-271.044
-284.485
-296.255
-306.407
-314.997
-322.074
-327.684
-331.868
-334.654
-336.051
-336.11
-334.825
-332.182
-328.167
-322.756
-315.919
-307.613
-297.788
-286.393
-273.366
-258.641
-242.173
-223.907
-203.821
-181.881
-158.097
-132.519
-105.199
-76.2252
-45.7577
-13.9724
18.8888
52.5692
86.8118
121.255
155.517
189.245
222.009
253.37
282.94
310.312
335.111
356.995
375.653
390.835
402.34
410
413.731
412.63
407.551
398.506
385.576
368.993
348.963
325.755
299.713
271.184
240.572
208.281
174.714
140.31
105.466
70.5493
35.9333
1.97589
-29.9845
-61.6745
-92.1143
-121.077
-148.416
-174.018
-197.791
-219.693
-239.692
-257.763
-273.92
-288.175
-300.551
-311.086
-319.826
-326.814
-332.114
-335.796
-337.894
-338.484
-337.627
-335.354
-331.692
-326.649
-320.229
-312.411
-303.17
-292.472
-280.275
-266.54
-251.227
-234.302
-215.744
-195.541
-173.697
-150.233
-125.192
-98.6373
-70.6608
-41.3756
-10.9176
20.5488
52.7595
85.4918
118.473
151.392
183.906
215.644
246.217
275.215
302.232
326.857
348.7
367.393
382.606
394.053
401.503
404.782
403.771
398.535
389.083
375.533
358.093
337.032
312.669
285.379
255.579
223.713
190.249
155.664
120.433
85.0193
49.8707
15.4585
-17.9968
-50.1259
-80.6754
-109.455
-136.332
-161.226
-184.099
-204.954
-223.817
-240.741
-255.794
-269.056
-280.616
-290.565
-298.99
-305.973
-311.589
-315.9
-318.96
-320.792
-321.421
-320.868
-319.128
-316.183
-312.008
-306.576
-299.852
-291.798
-282.377
-271.551
-259.277
-245.511
-230.211
-213.33
-194.828
-174.675
-152.851
-129.362
-104.239
-77.5401
-49.361
-19.8349
10.8659
42.5388
74.9124
107.702
140.588
173.21
205.173
236.056
265.413
292.792
317.747
339.846
358.701
373.97
385.372
392.692
395.777
394.54
389.058
379.377
365.65
348.12
327.088
302.917
276.019
246.835
215.831
183.476
150.235
116.556
82.8515
49.569
16.9321
-14.7052
-45.1056
-74.077
-101.472
-127.187
-151.154
-173.336
-193.724
-212.329
-229.18
-244.316
-257.786
-269.647
-279.957
-288.778
-296.17
-302.183
-306.873
-310.287
-312.465
-313.432
-313.228
-311.874
-309.366
-305.699
-300.856
-294.811
-287.53
-278.973
-269.097
-257.853
-245.19
-231.059
-215.41
-198.204
-179.412
-159.017
-137.027
-113.472
-88.4079
-61.9177
-34.117
-5.16143
24.7612
55.4441
88.6467
120.246
151.737
182.851
213.181
242.336
269.915
295.52
318.724
339.141
356.386
370.122
380.074
385.998
387.72
385.154
378.438
367.582
352.717
334.1
312.08
287.046
259.457
229.793
198.529
166.154
133.118
99.8153
66.5872
33.6897
7.80761
-22.5472
-51.4043
-78.6729
-104.261
-128.105
-150.187
-170.531
-189.19
-206.249
-221.805
-235.966
-248.834
-260.498
-271.028
-280.471
-288.845
-296.145
-302.339
-307.378
-311.199
-313.731
-314.876
-314.565
-312.713
-309.232
-304.061
-297.153
-288.445
-277.899
-265.484
-251.185
-235.001
-216.952
-197.09
-175.47
-152.193
-127.358
-101.096
-73.602
-45.0399
-15.5453
16.3314
47.4113
78.022
108.155
137.657
166.182
193.425
219.145
243.031
264.85
284.344
301.336
315.679
327.193
335.695
-31.5635
-41.2188
-70.7079
-99.6782
-127.283
-153.298
-177.563
-200.021
-220.629
-239.386
-256.323
-271.476
-284.899
-296.651
-306.786
-315.361
-322.426
-328.025
-332.199
-334.978
-336.376
-336.434
-335.148
-332.508
-328.5
-323.098
-316.273
-307.982
-298.174
-286.797
-273.789
-259.083
-242.633
-224.384
-204.31
-182.376
-158.595
-133.013
-105.681
-76.6867
-46.1922
-14.3646
18.5478
52.2903
86.6065
121.134
155.49
189.319
222.19
253.661
283.34
310.817
335.715
357.688
376.424
391.67
403.225
410.918
414.664
413.567
408.462
399.375
386.392
369.739
349.626
326.322
300.175
271.538
240.816
208.415
174.745
140.244
105.312
70.3186
35.6409
1.62877
-30.404
-62.1243
-92.588
-121.568
-148.919
-174.526
-198.298
-220.198
-240.188
-258.249
-274.396
-288.637
-300.999
-311.519
-320.244
-327.216
-332.5
-336.164
-338.249
-338.829
-337.962
-335.684
-332.019
-326.979
-320.564
-312.754
-303.524
-292.839
-280.656
-266.935
-251.634
-234.721
-216.172
-195.975
-174.134
-150.669
-125.623
-99.0568
-71.0627
-41.7529
-11.2624
20.2486
52.5097
85.3023
118.354
151.354
183.958
215.793
246.47
275.578
302.704
327.438
349.383
368.17
383.464
394.977
402.472
405.774
404.773
399.512
390.013
376.399
358.878
337.719
313.248
285.841
255.919
223.93
190.346
155.645
120.305
84.7947
49.5633
15.0638
-18.4465
-50.6184
-81.1975
-109.994
-136.878
-161.767
-184.63
-205.468
-224.31
-241.211
-256.239
-269.475
-281.009
-290.935
-299.337
-306.3
-311.9
-316.198
-319.247
-321.073
-321.701
-321.15
-319.413
-316.473
-312.307
-306.884
-300.171
-292.129
-282.72
-271.906
-259.646
-245.895
-230.61
-213.744
-195.256
-175.115
-153.299
-129.814
-104.686
-77.9754
-49.7756
-20.2182
10.524
42.2487
74.686
107.55
140.521
173.238
205.306
236.301
265.774
293.272
318.342
340.549
359.501
374.851
386.315
393.676
396.778
395.545
390.031
380.298
366.5
348.88
327.745
303.461
276.441
247.135
216.009
183.538
150.19
116.414
82.6285
49.263
16.5712
-15.1117
-45.5456
-74.5397
-101.948
-127.668
-151.633
-173.808
-194.185
-212.776
-229.611
-244.729
-258.181
-270.025
-280.317
-289.122
-296.498
-302.498
-307.176
-310.578
-312.746
-313.709
-313.502
-312.146
-309.64
-305.979
-301.143
-295.108
-287.838
-279.294
-269.432
-258.202
-245.556
-231.44
-215.805
-198.612
-179.828
-159.438
-137.449
-113.888
-88.811
-62.3014
-34.4732
-5.48295
24.4748
55.1601
88.5255
120.145
151.71
182.912
213.338
242.595
270.279
295.989
319.297
339.816
357.153
370.972
380.993
386.966
388.72
386.161
379.421
368.507
353.563
334.851
312.718
287.56
259.842
230.049
198.663
166.176
133.043
99.659
66.3753
33.4356
7.34949
-23.0285
-51.8923
-79.1642
-104.751
-128.586
-150.652
-170.974
-189.606
-206.636
-222.162
-236.294
-249.138
-260.782
-271.299
-280.735
-289.109
-296.414
-302.617
-307.669
-311.506
-314.053
-315.218
-314.929
-313.094
-309.629
-304.474
-297.582
-288.888
-278.354
-265.948
-251.656
-235.475
-217.424
-197.555
-175.924
-152.628
-127.767
-101.471
-73.9388
-45.3324
-15.7883
16.1376
47.2823
77.9588
108.164
137.743
166.347
193.67
219.471
243.435
265.328
284.888
301.94
316.333
327.888
336.424
-31.2606
-41.9556
-71.3323
-100.277
-127.876
-153.889
-178.149
-200.598
-221.193
-239.932
-256.849
-271.98
-285.382
-297.113
-307.229
-315.787
-322.836
-328.423
-332.586
-335.356
-336.755
-336.811
-335.525
-332.889
-328.889
-323.498
-316.686
-308.412
-298.623
-287.268
-274.282
-259.599
-243.17
-224.94
-204.88
-182.955
-159.176
-133.589
-106.244
-77.2268
-46.7
-14.8232
18.1486
51.9635
86.3655
120.991
155.456
189.404
222.4
254
283.806
311.406
336.42
358.498
377.325
392.646
404.258
411.99
415.757
414.659
409.526
400.392
387.346
370.611
350.399
326.984
300.715
271.95
241.1
208.572
174.78
140.167
105.13
70.0478
35.2969
1.22234
-30.8932
-62.6497
-93.1417
-122.141
-149.507
-175.119
-198.891
-220.787
-240.767
-258.817
-274.951
-289.176
-301.522
-312.026
-320.731
-327.685
-332.951
-336.594
-338.663
-339.231
-338.353
-336.068
-332.401
-327.363
-320.954
-313.155
-303.938
-293.268
-281.101
-267.395
-252.11
-235.21
-216.673
-196.483
-174.646
-151.18
-126.126
-99.547
-71.5324
-42.1942
-11.6664
19.8976
52.217
85.0799
118.214
151.308
184.016
215.966
246.765
275.999
303.254
328.114
350.18
369.078
384.467
396.056
403.604
406.935
405.942
400.652
391.1
377.411
359.794
338.522
313.923
286.38
256.315
224.183
190.458
155.621
120.155
84.5302
49.2
14.6041
-18.9722
-51.1947
-81.8085
-110.625
-137.515
-162.401
-185.251
-206.069
-224.887
-241.76
-256.759
-269.964
-281.469
-291.365
-299.742
-306.682
-312.263
-316.546
-319.583
-321.401
-322.028
-321.478
-319.745
-316.813
-312.656
-307.245
-300.544
-292.515
-283.12
-272.321
-260.077
-246.344
-231.077
-214.228
-195.757
-175.629
-153.823
-130.341
-105.209
-78.4847
-50.2607
-20.667
10.1238
41.9087
74.4207
107.371
140.441
173.27
205.459
236.585
266.195
293.83
319.036
341.371
360.436
375.881
387.418
394.825
397.95
396.716
391.168
381.374
367.493
349.769
328.512
304.094
276.934
247.484
216.216
183.61
150.136
116.247
82.3644
48.9062
16.1486
-15.5875
-46.0605
-75.0808
-102.504
-128.23
-152.192
-174.359
-194.723
-213.298
-230.114
-245.212
-258.643
-270.466
-280.738
-289.523
-296.882
-302.866
-307.529
-310.919
-313.075
-314.032
-313.821
-312.463
-309.961
-306.305
-301.478
-295.454
-288.197
-279.668
-269.823
-258.611
-245.982
-231.884
-216.267
-199.088
-180.315
-159.93
-137.941
-114.374
-89.2824
-62.7501
-34.8898
-5.85819
24.1439
54.8354
88.3744
120.022
151.678
182.982
213.521
242.896
270.703
296.536
319.967
340.603
358.048
371.965
382.066
388.098
389.888
387.344
380.567
369.588
354.552
335.728
313.464
288.16
260.289
230.346
198.818
166.201
132.954
99.4759
66.1281
33.1657
6.7858
-23.5933
-52.4621
-79.7379
-105.322
-129.148
-151.196
-171.492
-190.092
-207.087
-222.579
-236.678
-249.492
-261.114
-271.615
-281.044
-289.417
-296.727
-302.942
-308.009
-311.864
-314.43
-315.617
-315.353
-313.538
-310.092
-304.956
-298.083
-289.405
-278.885
-266.491
-252.206
-236.027
-217.974
-198.099
-176.453
-153.137
-128.245
-101.91
-74.3325
-45.6739
-16.0686
15.9067
47.1302
77.8844
108.174
137.843
166.54
193.956
219.851
243.906
265.885
285.524
302.645
317.097
328.701
337.275
-30.9439
-42.7839
-72.0416
-100.959
-128.552
-154.564
-178.819
-201.258
-221.838
-240.557
-257.45
-272.557
-285.934
-297.64
-307.734
-316.272
-323.304
-328.876
-333.028
-335.789
-337.188
-337.24
-335.955
-333.324
-329.332
-323.954
-317.158
-308.904
-299.137
-287.806
-274.846
-260.189
-243.784
-225.576
-205.532
-183.617
-159.841
-134.25
-106.889
-77.8458
-47.2818
-15.3487
17.6906
51.5882
86.0884
120.826
155.416
189.5
222.64
254.386
284.339
312.08
337.226
359.425
378.356
393.763
405.441
413.216
417.008
415.906
410.744
401.555
388.438
371.608
351.283
327.74
301.331
272.421
241.424
208.749
174.818
140.077
104.921
69.7363
34.8996
0.756468
-31.4521
-63.2511
-93.7757
-122.798
-150.179
-175.799
-199.57
-221.461
-241.43
-259.467
-275.585
-289.792
-302.12
-312.605
-321.289
-328.221
-333.466
-337.086
-339.137
-339.689
-338.8
-336.506
-332.837
-327.802
-321.401
-313.613
-304.411
-293.758
-281.609
-267.922
-252.654
-235.77
-217.245
-197.065
-175.232
-151.764
-126.703
-100.108
-72.0703
-42.6999
-12.1306
19.4953
51.8808
84.824
118.052
151.253
184.082
216.163
247.1
276.48
303.882
328.888
351.093
370.116
385.615
397.291
404.9
408.265
407.278
401.957
392.345
378.569
360.843
339.44
314.695
286.995
256.768
224.472
190.584
155.592
119.981
84.225
48.7803
14.0784
-19.575
-51.8555
-82.5088
-111.348
-138.246
-163.126
-185.961
-206.757
-225.547
-242.388
-257.353
-270.524
-281.994
-291.857
-300.204
-307.118
-312.677
-316.943
-319.966
-321.777
-322.402
-321.853
-320.124
-317.2
-313.055
-307.657
-300.97
-292.956
-283.578
-272.796
-260.57
-246.856
-231.61
-214.782
-196.329
-176.217
-154.422
-130.945
-105.808
-79.0686
-50.8168
-21.1819
9.66404
41.5183
74.1156
107.165
140.348
173.304
205.633
236.908
266.675
294.469
319.829
342.31
361.505
377.059
388.679
396.142
399.292
398.057
392.469
382.606
368.63
350.785
329.39
304.819
277.497
247.881
216.452
183.69
150.072
116.053
82.0587
48.4977
15.6634
-16.1331
-46.6509
-75.7011
-103.141
-128.873
-152.833
-174.99
-195.339
-213.894
-230.69
-245.764
-259.172
-270.97
-281.218
-289.982
-297.32
-303.286
-307.934
-311.308
-313.451
-314.401
-314.185
-312.826
-310.327
-306.677
-301.86
-295.849
-288.608
-280.096
-270.27
-259.077
-246.47
-232.393
-216.795
-199.633
-180.872
-160.494
-138.505
-114.93
-89.8223
-63.2642
-35.3673
-6.28736
23.77
54.4748
88.1875
119.873
151.639
183.06
213.728
243.239
271.188
297.16
320.732
341.503
359.073
373.102
383.294
389.393
391.225
388.696
381.878
370.825
355.685
336.732
314.316
288.844
260.8
230.685
198.992
166.227
132.849
99.266
65.8447
32.8967
6.0978
-24.2417
-53.1138
-80.3942
-105.976
-129.791
-151.818
-172.085
-190.648
-207.603
-223.054
-237.115
-249.897
-261.492
-271.976
-281.395
-289.767
-297.085
-303.312
-308.397
-312.273
-314.861
-316.074
-315.837
-314.045
-310.621
-305.507
-298.655
-289.997
-279.493
-267.112
-252.836
-236.66
-218.605
-198.721
-177.06
-153.719
-128.792
-102.412
-74.7834
-46.0639
-16.3862
15.6378
46.9542
77.7983
108.185
137.957
166.759
194.282
220.284
244.445
266.522
286.252
303.451
317.972
329.631
338.249
-30.6419
-43.6838
-72.8316
-101.723
-129.313
-155.323
-179.574
-202.001
-222.563
-241.26
-258.127
-273.206
-286.554
-298.234
-308.303
-316.818
-323.831
-329.387
-333.525
-336.276
-337.675
-337.722
-336.438
-333.812
-329.831
-324.467
-317.69
-309.456
-299.715
-288.412
-275.48
-260.852
-244.476
-226.292
-206.266
-184.363
-160.591
-134.994
-107.617
-78.5444
-47.9385
-15.9416
17.173
51.1636
85.7743
120.638
155.369
189.606
222.908
254.82
284.938
312.838
338.133
360.468
379.518
395.021
406.773
414.597
418.41
417.31
412.116
402.867
389.668
372.732
352.279
328.591
302.025
272.951
241.788
208.947
174.86
139.973
104.682
69.3832
34.4481
0.230032
-32.081
-63.929
-94.49
-123.538
-150.938
-176.564
-200.335
-222.22
-242.177
-260.199
-276.299
-290.486
-302.793
-313.257
-321.917
-328.825
-334.045
-337.64
-339.67
-340.205
-339.301
-336.999
-333.327
-328.295
-321.902
-314.128
-304.942
-294.309
-282.181
-268.515
-253.267
-236.4
-217.89
-197.72
-175.892
-152.423
-127.353
-100.741
-72.677
-43.2704
-12.6557
19.0414
51.5004
84.5337
117.868
151.19
184.154
216.382
247.476
277.02
304.588
329.758
352.119
371.286
386.908
398.684
406.363
409.765
408.784
403.428
393.748
379.875
362.024
340.474
315.564
287.688
257.276
224.795
190.724
155.557
119.782
83.8782
48.3033
13.4853
-20.2558
-52.6018
-83.2994
-112.163
-139.069
-163.944
-186.761
-207.531
-226.29
-243.096
-258.022
-271.153
-282.585
-292.411
-300.724
-307.609
-313.143
-317.39
-320.398
-322.199
-322.821
-322.274
-320.551
-317.637
-313.504
-308.12
-301.45
-293.453
-284.092
-273.33
-261.124
-247.433
-232.21
-215.405
-196.974
-176.88
-155.098
-131.626
-106.484
-79.7277
-51.4448
-21.7633
9.14425
41.0765
73.7703
106.93
140.241
173.341
205.827
237.271
267.214
295.187
320.722
343.368
362.71
378.387
390.102
397.628
400.806
399.567
393.935
383.995
369.911
351.931
330.378
305.634
278.129
248.328
216.715
183.778
149.997
115.832
81.7107
48.0363
15.1147
-16.7496
-47.3174
-76.401
-103.86
-129.599