/*--------------------------------*- C++ -*----------------------------------*\
| =========                 |                                                 |
| \\      /  F ield         | OpenFOAM: The Open Source CFD Toolbox           |
|  \\    /   O peration     | Version:  3.0.1                                 |
|   \\  /    A nd           | Web:      www.OpenFOAM.org                      |
|    \\/     M anipulation  |                                                 |
\*---------------------------------------------------------------------------*/
FoamFile
{
    version     2.0;
    format      ascii;
    class       volVectorField;
    location    "61.4";
    object      U;
}
// * * * * * * * * * * * * * * * * * * * * * * * * * * * * * * * * * * * * * //

dimensions      [0 1 -1 0 0 0 0];

internalField   nonuniform List<vector> 
21420
(
(-0.120017 -0.000684994 0)
(-0.113539 -0.000776235 0)
(-0.105263 -0.000865906 0)
(-0.096053 -0.000957516 0)
(-0.0858768 -0.00105953 0)
(-0.0747144 -0.00115458 0)
(-0.0625506 -0.00126184 0)
(-0.0493839 -0.00135624 0)
(-0.0352297 -0.00144655 0)
(-0.020094 -0.00155233 0)
(-0.00406189 -0.00163149 0)
(0.0127748 -0.00169995 0)
(0.0303752 -0.00178567 0)
(0.0485996 -0.0018286 0)
(0.0672943 -0.00188798 0)
(0.0862863 -0.00189571 0)
(0.105367 -0.00187999 0)
(0.124314 -0.0018779 0)
(0.142889 -0.00181554 0)
(0.160826 -0.0017266 0)
(0.177853 -0.00164221 0)
(0.19371 -0.00150357 0)
(0.208129 -0.00134172 0)
(0.220855 -0.00117247 0)
(0.231664 -0.000968287 0)
(0.240357 -0.000752514 0)
(0.246767 -0.000516924 0)
(0.250784 -0.000272606 0)
(0.252281 -2.52274e-05 0)
(0.251369 0.000220538 0)
(0.247829 0.000476624 0)
(0.241863 0.000708192 0)
(0.233582 0.000937601 0)
(0.223123 0.0011306 0)
(0.210693 0.00132155 0)
(0.196494 0.00149747 0)
(0.180767 0.00161451 0)
(0.163791 0.00173474 0)
(0.145823 0.00183296 0)
(0.127112 0.00186918 0)
(0.10794 0.0019128 0)
(0.0885334 0.00190018 0)
(0.0691015 0.00189747 0)
(0.0498732 0.00187186 0)
(0.0310101 0.00180578 0)
(0.0126913 0.00174766 0)
(-0.0043067 0.00169096 0)
(-0.0203256 0.00159623 0)
(-0.0359122 0.00150751 0)
(-0.0505823 0.00141314 0)
(-0.0642755 0.001309 0)
(-0.0769725 0.00121062 0)
(-0.0886659 0.0011076 0)
(-0.0993633 0.00101005 0)
(-0.109077 0.0009131 0)
(-0.117832 0.000817564 0)
(-0.125662 0.000726651 0)
(-0.132581 0.000638053 0)
(-0.138631 0.00055064 0)
(-0.143834 0.000470843 0)
(-0.148238 0.000390008 0)
(-0.151884 0.000317025 0)
(-0.154805 0.000242387 0)
(-0.157002 0.000171359 0)
(-0.158481 0.000104822 0)
(-0.159277 4.39493e-05 0)
(-0.159345 -3.54081e-05 0)
(-0.158716 -9.72172e-05 0)
(-0.157392 -0.00017449 0)
(-0.15533 -0.000244354 0)
(-0.152569 -0.000311243 0)
(-0.149017 -0.000397206 0)
(-0.144631 -0.000475857 0)
(-0.13951 -0.000554638 0)
(-0.133471 -0.00065476 0)
(-0.126444 -0.000730732 0)
(-0.118527 -0.000828436 0)
(-0.109643 -0.000924767 0)
(-0.0998396 -0.00101434 0)
(-0.0891512 -0.00111115 0)
(-0.0775269 -0.00120939 0)
(-0.064901 -0.00128548 0)
(-0.0514156 -0.00137054 0)
(-0.0371745 -0.00146239 0)
(-0.022059 -0.00153038 0)
(-0.00618959 -0.00160803 0)
(0.0103796 -0.00167235 0)
(0.0275354 -0.00173277 0)
(0.045239 -0.00178349 0)
(0.0633915 -0.00181531 0)
(0.0818061 -0.00183509 0)
(0.100317 -0.0018315 0)
(0.118667 -0.00180161 0)
(0.136567 -0.00174279 0)
(0.153759 -0.00165917 0)
(0.16996 -0.00154399 0)
(0.184878 -0.00140637 0)
(0.19828 -0.00124415 0)
(0.209949 -0.00106242 0)
(0.21968 -0.000863124 0)
(0.227301 -0.000648532 0)
(0.232684 -0.000417459 0)
(0.235714 -0.000180979 0)
(0.23635 5.29377e-05 0)
(0.23459 0.000293018 0)
(0.230286 0.00053957 0)
(0.223713 0.000769191 0)
(0.214846 0.000990758 0)
(0.203831 0.00119059 0)
(0.190879 0.00137566 0)
(0.17617 0.00153344 0)
(0.15993 0.00168159 0)
(0.142409 0.00179398 0)
(0.123862 0.00188269 0)
(0.104583 0.00193775 0)
(0.0848557 0.00197424 0)
(0.0649534 0.00197788 0)
(0.0451073 0.00195732 0)
(0.0255633 0.00192028 0)
(0.00652632 0.00185998 0)
(-0.0118387 0.0017845 0)
(-0.029378 0.00169822 0)
(-0.0459851 0.00159585 0)
(-0.0615757 0.00149365 0)
(-0.0760689 0.0013888 0)
(-0.0894799 0.00127308 0)
(-0.101788 0.0011698 0)
(-0.113 0.00105486 0)
(-0.12313 0.000948021 0)
(-0.132136 0.000845246 0)
(-0.140102 0.000735603 0)
(-0.147062 0.000635669 0)
(-0.152985 0.000549938 0)
(-0.157953 0.000441939 0)
(-0.162013 0.000357488 0)
(-0.165174 0.000273325 0)
(-0.167492 0.000190815 0)
(-0.169016 0.000112924 0)
(-0.169801 4.75986e-05 0)
(-0.169885 -2.99894e-05 0)
(-0.169231 -9.90591e-05 0)
(-0.167935 -0.000153423 0)
(-0.166042 -0.000221178 0)
(-0.163526 -0.000274991 0)
(-0.160476 -0.000333098 0)
(-0.156839 -0.00038675 0)
(-0.152692 -0.000450481 0)
(-0.147943 -0.000497633 0)
(-0.142591 -0.000550775 0)
(-0.136668 -0.000609234 0)
(-0.13017 -0.000678589 0)
(-0.123004 -0.000736341 0)
(-0.115189 -0.000813153 0)
(-0.106627 -0.000878989 0)
(-0.0973416 -0.000958842 0)
(-0.0872927 -0.00103599 0)
(-0.0764574 -0.00111074 0)
(-0.0648251 -0.00119719 0)
(-0.0523435 -0.00127219 0)
(-0.0390691 -0.00135652 0)
(-0.0250294 -0.00142854 0)
(-0.0102487 -0.00149782 0)
(0.00520596 -0.00155887 0)
(0.0212095 -0.00160954 0)
(0.0376379 -0.00165175 0)
(0.0544004 -0.00166703 0)
(0.0713095 -0.00168174 0)
(0.0882087 -0.001669 0)
(0.104907 -0.0016355 0)
(0.121164 -0.00158489 0)
(0.136748 -0.00149865 0)
(0.151383 -0.00139612 0)
(0.164807 -0.00125963 0)
(0.176749 -0.00110716 0)
(0.186996 -0.000920302 0)
(0.19528 -0.000715728 0)
(0.201384 -0.000490518 0)
(0.205143 -0.000250434 0)
(0.206422 -7.1223e-06 0)
(0.205226 0.000242884 0)
(0.201389 0.000502998 0)
(0.195097 0.000744273 0)
(0.186417 0.000974015 0)
(0.175544 0.00118388 0)
(0.162644 0.00136976 0)
(0.147971 0.00153769 0)
(0.13179 0.0016699 0)
(0.114388 0.00177132 0)
(0.0961189 0.00184268 0)
(0.0773164 0.00188617 0)
(0.0582419 0.0018975 0)
(0.0391802 0.00188808 0)
(0.0203786 0.00184606 0)
(0.00204072 0.0017921 0)
(-0.015672 0.00172143 0)
(-0.0325707 0.0016323 0)
(-0.0485553 0.0015395 0)
(-0.0635736 0.00143847 0)
(-0.0775537 0.00133469 0)
(-0.0904794 0.00122947 0)
(-0.10231 0.00112012 0)
(-0.113035 0.00100925 0)
(-0.122657 0.000900548 0)
(-0.131237 0.000800119 0)
(-0.138804 0.000704528 0)
(-0.145393 0.000609413 0)
(-0.15111 0.000523395 0)
(-0.155992 0.000446932 0)
(-0.160066 0.00036868 0)
(-0.163462 0.000304782 0)
(-0.166275 0.000249514 0)
(-0.168549 0.000205668 0)
(-0.170365 0.000156614 0)
(-0.171773 0.000112914 0)
(-0.172762 7.83582e-05 0)
(-0.173301 3.41605e-05 0)
(-0.173387 -1.53136e-05 0)
(-0.172938 -7.19608e-05 0)
(-0.171853 -0.000136864 0)
(-0.170147 -0.000197738 0)
(-0.167816 -0.000264127 0)
(-0.164853 -0.000333472 0)
(-0.161227 -0.000382927 0)
(-0.156944 -0.000455082 0)
(-0.152028 -0.00051452 0)
(-0.146499 -0.00058132 0)
(-0.1403 -0.000643453 0)
(-0.133443 -0.000715837 0)
(-0.125867 -0.000782786 0)
(-0.117582 -0.000859475 0)
(-0.108536 -0.000933584 0)
(-0.0987127 -0.00100841 0)
(-0.0881114 -0.00108958 0)
(-0.0766862 -0.00117548 0)
(-0.0644072 -0.00125628 0)
(-0.051308 -0.00133664 0)
(-0.0373987 -0.00141796 0)
(-0.0227405 -0.00148802 0)
(-0.00740128 -0.00155103 0)
(0.00851787 -0.00160102 0)
(0.0248489 -0.00163573 0)
(0.0414417 -0.00165111 0)
(0.0580996 -0.00164515 0)
(0.0746099 -0.00162304 0)
(0.0907646 -0.00157424 0)
(0.106338 -0.00151102 0)
(0.121126 -0.001423 0)
(0.134898 -0.00130646 0)
(0.147388 -0.00116815 0)
(0.158364 -0.00100576 0)
(0.167573 -0.000817765 0)
(0.17479 -0.000608867 0)
(0.179832 -0.000385935 0)
(0.182527 -0.000146591 0)
(0.182803 9.3691e-05 0)
(0.180583 0.000347228 0)
(0.175838 0.000583125 0)
(0.168784 0.000811908 0)
(0.159493 0.00102608 0)
(0.148167 0.00121367 0)
(0.135086 0.0013742 0)
(0.12049 0.00151512 0)
(0.104662 0.00162764 0)
(0.0879024 0.00170358 0)
(0.0705117 0.00174769 0)
(0.0527762 0.00176835 0)
(0.0349173 0.00176337 0)
(0.017228 0.00173752 0)
(5.13452e-05 0.00170221 0)
(-0.0165714 0.00163652 0)
(-0.0325929 0.00156143 0)
(-0.0477928 0.00147887 0)
(-0.0621099 0.0013859 0)
(-0.0754964 0.00129119 0)
(-0.0878955 0.00119286 0)
(-0.0992928 0.00109144 0)
(-0.109701 0.000994146 0)
(-0.119131 0.000890851 0)
(-0.127488 0.000784803 0)
(-0.134794 0.000673052 0)
(-0.141014 0.000564443 0)
(-0.146089 0.0004541 0)
(-0.15025 0.000369732 0)
(-0.153699 0.000299622 0)
(-0.156614 0.000248137 0)
(-0.15932 0.000220262 0)
(-0.161749 0.000189007 0)
(-0.163767 0.000154543 0)
(-0.165473 0.000126217 0)
(-0.166688 7.64423e-05 0)
(-0.167327 3.67331e-05 0)
(-0.167455 -1.96066e-05 0)
(-0.166853 -8.77546e-05 0)
(-0.16559 -0.000147086 0)
(-0.16367 -0.000220449 0)
(-0.160952 -0.000307433 0)
(-0.157417 -0.000384655 0)
(-0.153118 -0.000472369 0)
(-0.147856 -0.00057225 0)
(-0.1417 -0.000662271 0)
(-0.134552 -0.000773024 0)
(-0.126347 -0.000865599 0)
(-0.117215 -0.000960603 0)
(-0.106983 -0.00107763 0)
(-0.0956601 -0.00117077 0)
(-0.08342 -0.00126239 0)
(-0.0701151 -0.00137795 0)
(-0.055866 -0.00146064 0)
(-0.0407305 -0.00156545 0)
(-0.0246466 -0.00163685 0)
(-0.0074597 -0.00169527 0)
(0.0105831 -0.00178122 0)
(0.0289398 -0.00181904 0)
(0.0475322 -0.00183373 0)
(0.0662626 -0.00186561 0)
(0.0849843 -0.00184326 0)
(0.10348 -0.00183022 0)
(0.121535 -0.00176406 0)
(0.138879 -0.0016708 0)
(0.155253 -0.00157724 0)
(0.170424 -0.00143853 0)
(0.18414 -0.00127678 0)
(0.196159 -0.00110543 0)
(0.20628 -0.000904481 0)
(0.214311 -0.000692264 0)
(0.220093 -0.000463194 0)
(0.22353 -0.000223528 0)
(0.224553 1.11807e-05 0)
(0.223279 0.000250075 0)
(0.21949 0.000492865 0)
(0.213402 0.000712702 0)
(0.205099 0.000929381 0)
(0.194723 0.00113554 0)
(0.182452 0.00129961 0)
(0.168503 0.00146487 0)
(0.153105 0.00157799 0)
(0.13651 0.00169514 0)
(0.118963 0.00179028 0)
(0.100715 0.00182527 0)
(0.0820163 0.00187065 0)
(0.0630976 0.00189342 0)
(0.044167 0.00186198 0)
(0.0253572 0.00184369 0)
(0.00702155 0.0017767 0)
(-0.0106375 0.00172882 0)
(-0.0276683 0.00166518 0)
(-0.0439669 0.00157031 0)
(-0.0594157 0.00148921 0)
(-0.0739468 0.00140064 0)
(-0.0875139 0.00129458 0)
(-0.100092 0.00120015 0)
(-0.111671 0.00109472 0)
(-0.122251 0.000999793 0)
(-0.131844 0.000904914 0)
(-0.140465 0.00080658 0)
(-0.148146 0.000716037 0)
(-0.155714 0.00062702 0)
(-0.120051 -0.00205485 0)
(-0.113575 -0.00232859 0)
(-0.1053 -0.00259761 0)
(-0.0960912 -0.00287244 0)
(-0.0859163 -0.0031785 0)
(-0.0747542 -0.00346369 0)
(-0.062591 -0.00378554 0)
(-0.0494236 -0.00406878 0)
(-0.0352681 -0.00433976 0)
(-0.0201311 -0.0046571 0)
(-0.00409585 -0.00489493 0)
(0.0127447 -0.00510027 0)
(0.0303494 -0.00535754 0)
(0.0485798 -0.00548643 0)
(0.0672812 -0.00566469 0)
(0.0862811 -0.00568797 0)
(0.105371 -0.00564088 0)
(0.124327 -0.00563474 0)
(0.142913 -0.00544766 0)
(0.160859 -0.00518085 0)
(0.177898 -0.00492774 0)
(0.193764 -0.00451177 0)
(0.208193 -0.0040262 0)
(0.220929 -0.00351834 0)
(0.231746 -0.00290558 0)
(0.240447 -0.00225803 0)
(0.246861 -0.00155043 0)
(0.250883 -0.000816227 0)
(0.252385 -7.88276e-05 0)
(0.251469 0.000660577 0)
(0.247923 0.00143 0)
(0.241955 0.0021247 0)
(0.23367 0.00281337 0)
(0.223204 0.00339255 0)
(0.210765 0.00396548 0)
(0.196558 0.00449335 0)
(0.18082 0.00484448 0)
(0.163835 0.00520525 0)
(0.145856 0.00549995 0)
(0.127136 0.00560851 0)
(0.107953 0.00573934 0)
(0.0885386 0.00570139 0)
(0.0690986 0.00569321 0)
(0.0498623 0.00561632 0)
(0.0309935 0.00541795 0)
(0.0126724 0.00524287 0)
(-0.00432998 0.00507391 0)
(-0.0203548 0.00478904 0)
(-0.0359441 0.0045229 0)
(-0.0506158 0.00423966 0)
(-0.0643099 0.00392724 0)
(-0.0770078 0.00363213 0)
(-0.0887016 0.0033229 0)
(-0.0993995 0.00303004 0)
(-0.109113 0.00273966 0)
(-0.117868 0.00245304 0)
(-0.125698 0.00217987 0)
(-0.132616 0.00191486 0)
(-0.138666 0.00165298 0)
(-0.143872 0.00141244 0)
(-0.148277 0.00116784 0)
(-0.151923 0.000952268 0)
(-0.154846 0.000727612 0)
(-0.157043 0.000513855 0)
(-0.158526 0.000314233 0)
(-0.159322 0.000131827 0)
(-0.159393 -0.000104953 0)
(-0.158768 -0.000292935 0)
(-0.157444 -0.000523438 0)
(-0.155384 -0.000729484 0)
(-0.15263 -0.000938769 0)
(-0.149072 -0.00118972 0)
(-0.144695 -0.001429 0)
(-0.139571 -0.00166425 0)
(-0.133534 -0.00195969 0)
(-0.126504 -0.00219379 0)
(-0.118589 -0.00248282 0)
(-0.109706 -0.00277853 0)
(-0.0998988 -0.00303934 0)
(-0.0892145 -0.00333563 0)
(-0.0775828 -0.00363441 0)
(-0.064947 -0.00384567 0)
(-0.0514775 -0.00412583 0)
(-0.0372106 -0.00437709 0)
(-0.0221114 -0.00460869 0)
(-0.00621778 -0.0048235 0)
(0.0103549 -0.00502021 0)
(0.0275205 -0.00520193 0)
(0.0452406 -0.00534649 0)
(0.0633925 -0.00545989 0)
(0.0818366 -0.00550387 0)
(0.100369 -0.00549154 0)
(0.118732 -0.00540695 0)
(0.136647 -0.00523213 0)
(0.153851 -0.00498105 0)
(0.170059 -0.00464857 0)
(0.184983 -0.00423524 0)
(0.198395 -0.00374793 0)
(0.210081 -0.00318835 0)
(0.219821 -0.00258502 0)
(0.227448 -0.00194199 0)
(0.232835 -0.00125431 0)
(0.235869 -0.000554018 0)
(0.23651 0.000157039 0)
(0.234734 0.000889413 0)
(0.230435 0.00162236 0)
(0.223853 0.00230397 0)
(0.21498 0.00295483 0)
(0.20397 0.00356901 0)
(0.191007 0.00413474 0)
(0.176279 0.00461436 0)
(0.160026 0.00505327 0)
(0.142484 0.00538035 0)
(0.123916 0.00564287 0)
(0.104621 0.00581488 0)
(0.0848731 0.00591895 0)
(0.0649507 0.00593269 0)
(0.0450856 0.00587581 0)
(0.0255221 0.00576829 0)
(0.00646263 0.00558153 0)
(-0.0119199 0.00535506 0)
(-0.0294744 0.00509351 0)
(-0.0460952 0.00478912 0)
(-0.0617002 0.00447647 0)
(-0.0762013 0.00417064 0)
(-0.089623 0.00382852 0)
(-0.10195 0.00350739 0)
(-0.113172 0.00316432 0)
(-0.123301 0.00283892 0)
(-0.13231 0.00254854 0)
(-0.140291 0.00220641 0)
(-0.147253 0.00190677 0)
(-0.153189 0.00164184 0)
(-0.15816 0.00132959 0)
(-0.16222 0.00107572 0)
(-0.165392 0.000821257 0)
(-0.167722 0.000565866 0)
(-0.169252 0.000332995 0)
(-0.170029 0.000135476 0)
(-0.170103 -9.19884e-05 0)
(-0.169438 -0.000280948 0)
(-0.168156 -0.000474764 0)
(-0.166251 -0.000660845 0)
(-0.163747 -0.000825463 0)
(-0.160683 -0.000996402 0)
(-0.15705 -0.0011631 0)
(-0.152892 -0.00134557 0)
(-0.148144 -0.00149123 0)
(-0.142786 -0.00165555 0)
(-0.136879 -0.00184473 0)
(-0.13036 -0.00202618 0)
(-0.123206 -0.00222965 0)
(-0.115371 -0.0024269 0)
(-0.106827 -0.00266321 0)
(-0.0975081 -0.0028684 0)
(-0.0874538 -0.00310247 0)
(-0.0766222 -0.00334579 0)
(-0.0649639 -0.00359183 0)
(-0.0524806 -0.0038234 0)
(-0.0391916 -0.0040692 0)
(-0.0251425 -0.0042853 0)
(-0.0103618 -0.00450028 0)
(0.00511301 -0.00468061 0)
(0.0211298 -0.00483177 0)
(0.0375757 -0.00495492 0)
(0.0543491 -0.00501252 0)
(0.0712746 -0.00504898 0)
(0.0881894 -0.00500826 0)
(0.1049 -0.00491452 0)
(0.121178 -0.00476157 0)
(0.136784 -0.0045028 0)
(0.151439 -0.00419201 0)
(0.16487 -0.00379836 0)
(0.176844 -0.00332144 0)
(0.187107 -0.00276089 0)
(0.195395 -0.00215393 0)
(0.201511 -0.00148371 0)
(0.205286 -0.000754403 0)
(0.206574 -2.38184e-05 0)
(0.205374 0.000729362 0)
(0.201534 0.00151029 0)
(0.195233 0.00223415 0)
(0.186541 0.00292123 0)
(0.175661 0.00355274 0)
(0.162748 0.00412005 0)
(0.148048 0.00460208 0)
(0.131854 0.00500592 0)
(0.114437 0.00532423 0)
(0.0961381 0.00553046 0)
(0.0773089 0.00565728 0)
(0.0582154 0.0056942 0)
(0.0391345 0.00567007 0)
(0.0203136 0.00554649 0)
(0.00195507 0.00537738 0)
(-0.0157704 0.0051648 0)
(-0.0326853 0.00490175 0)
(-0.0486903 0.00461935 0)
(-0.0637217 0.00431916 0)
(-0.0777111 0.00400733 0)
(-0.0906473 0.0036914 0)
(-0.102487 0.0033561 0)
(-0.113217 0.00302752 0)
(-0.122845 0.00270802 0)
(-0.13143 0.00239952 0)
(-0.139006 0.00211197 0)
(-0.145604 0.00182659 0)
(-0.151332 0.00156152 0)
(-0.156214 0.00133029 0)
(-0.160277 0.00111996 0)
(-0.163669 0.000917098 0)
(-0.166483 0.00074706 0)
(-0.168758 0.000607866 0)
(-0.170572 0.000477664 0)
(-0.171979 0.000348426 0)
(-0.172977 0.000233113 0)
(-0.173523 0.000103248 0)
(-0.173609 -5.07505e-05 0)
(-0.173153 -0.000221228 0)
(-0.17206 -0.000407692 0)
(-0.170356 -0.000596764 0)
(-0.168023 -0.000791201 0)
(-0.165044 -0.000998456 0)
(-0.161425 -0.00116161 0)
(-0.157137 -0.00135593 0)
(-0.152229 -0.00155378 0)
(-0.146685 -0.00174141 0)
(-0.140489 -0.00194174 0)
(-0.133611 -0.00214357 0)
(-0.126038 -0.00235801 0)
(-0.117737 -0.00257939 0)
(-0.108685 -0.00280497 0)
(-0.0988665 -0.00303422 0)
(-0.0882543 -0.00327917 0)
(-0.0768128 -0.00352413 0)
(-0.0645452 -0.00377616 0)
(-0.0514256 -0.00402103 0)
(-0.0374978 -0.00425205 0)
(-0.0228352 -0.00446759 0)
(-0.00748326 -0.00465464 0)
(0.00845519 -0.00479977 0)
(0.0247989 -0.00490862 0)
(0.0414051 -0.00496217 0)
(0.0580761 -0.00494516 0)
(0.0746008 -0.00487846 0)
(0.0907784 -0.00473203 0)
(0.106376 -0.0045348 0)
(0.121182 -0.00426269 0)
(0.134964 -0.00392312 0)
(0.147472 -0.00350844 0)
(0.158464 -0.00301742 0)
(0.167683 -0.00245534 0)
(0.174913 -0.00183245 0)
(0.179959 -0.00116033 0)
(0.182655 -0.000443444 0)
(0.182926 0.000263226 0)
(0.180694 0.00103124 0)
(0.175956 0.00176152 0)
(0.168885 0.00244441 0)
(0.159571 0.00307546 0)
(0.148236 0.00364224 0)
(0.135142 0.00413564 0)
(0.120523 0.0045568 0)
(0.104675 0.00486984 0)
(0.0879083 0.00510951 0)
(0.0705046 0.00524631 0)
(0.0527591 0.0053105 0)
(0.0348876 0.00528587 0)
(0.0171904 0.00521229 0)
(8.13977e-06 0.0051055 0)
(-0.0166215 0.00491254 0)
(-0.0326455 0.00468637 0)
(-0.0478542 0.00444036 0)
(-0.0621766 0.00415687 0)
(-0.0755619 0.00386951 0)
(-0.0879618 0.00357819 0)
(-0.0993607 0.00327523 0)
(-0.109767 0.00298492 0)
(-0.119203 0.00267472 0)
(-0.127564 0.00235345 0)
(-0.134868 0.00202449 0)
(-0.141092 0.00169556 0)
(-0.146161 0.00136633 0)
(-0.150317 0.00110999 0)
(-0.153755 0.000890979 0)
(-0.156658 0.00074446 0)
(-0.159358 0.000659477 0)
(-0.161783 0.000569624 0)
(-0.163802 0.00046237 0)
(-0.165507 0.000379693 0)
(-0.166728 0.000227988 0)
(-0.167364 0.000110309 0)
(-0.167493 -5.79446e-05 0)
(-0.166894 -0.000262733 0)
(-0.165632 -0.000440912 0)
(-0.163713 -0.0006612 0)
(-0.160998 -0.000923814 0)
(-0.157464 -0.00115316 0)
(-0.153166 -0.00142181 0)
(-0.147906 -0.00171694 0)
(-0.14175 -0.00198783 0)
(-0.134604 -0.00231923 0)
(-0.126399 -0.00259666 0)
(-0.117267 -0.00288172 0)
(-0.107035 -0.00323265 0)
(-0.0957114 -0.0035124 0)
(-0.0834703 -0.00378726 0)
(-0.0701638 -0.00413399 0)
(-0.0559118 -0.00438245 0)
(-0.0407735 -0.00469678 0)
(-0.024686 -0.00491117 0)
(-0.0074955 -0.00508618 0)
(0.0105527 -0.0053441 0)
(0.0289175 -0.00545743 0)
(0.0475175 -0.00550182 0)
(0.0662568 -0.0055977 0)
(0.0849874 -0.00553076 0)
(0.103494 -0.00549165 0)
(0.121559 -0.00529319 0)
(0.138913 -0.0050134 0)
(0.155299 -0.00473285 0)
(0.170479 -0.00431647 0)
(0.184203 -0.0038313 0)
(0.196233 -0.00331653 0)
(0.20636 -0.0027148 0)
(0.214398 -0.00207817 0)
(0.220185 -0.00139063 0)
(0.223623 -0.00067523 0)
(0.224659 3.89691e-05 0)
(0.223371 0.00075038 0)
(0.21958 0.00147861 0)
(0.21349 0.00213835 0)
(0.205183 0.00278868 0)
(0.1948 0.00340735 0)
(0.18252 0.00389963 0)
(0.168562 0.00439552 0)
(0.153154 0.00473489 0)
(0.136549 0.00508638 0)
(0.118993 0.00537182 0)
(0.100734 0.00547674 0)
(0.0820264 0.00561284 0)
(0.0630988 0.00568109 0)
(0.0441604 0.00558669 0)
(0.0253426 0.00553188 0)
(0.00700162 0.00533073 0)
(-0.0106624 0.00518681 0)
(-0.0276982 0.00499589 0)
(-0.0439995 0.00471123 0)
(-0.0594512 0.00446782 0)
(-0.0739844 0.00420206 0)
(-0.0875521 0.00388382 0)
(-0.100131 0.00360048 0)
(-0.111709 0.00328413 0)
(-0.122289 0.00299932 0)
(-0.131882 0.00271466 0)
(-0.140502 0.00241963 0)
(-0.148182 0.00214798 0)
(-0.155748 0.00188092 0)
(-0.12012 -0.0034243 0)
(-0.113647 -0.00388055 0)
(-0.105374 -0.00432896 0)
(-0.0961667 -0.00478707 0)
(-0.0859943 -0.00529726 0)
(-0.0748328 -0.00577271 0)
(-0.0626707 -0.00630929 0)
(-0.0495017 -0.00678158 0)
(-0.0353433 -0.00723339 0)
(-0.0202036 -0.00776219 0)
(-0.00416197 -0.00815969 0)
(0.0126867 -0.00850197 0)
(0.0303 -0.00893107 0)
(0.0485426 -0.00914616 0)
(0.0672573 -0.00944368 0)
(0.0862733 -0.00948272 0)
(0.10538 -0.00940449 0)
(0.124357 -0.0093946 0)
(0.142962 -0.00908289 0)
(0.160929 -0.00863822 0)
(0.177991 -0.00821647 0)
(0.193877 -0.00752298 0)
(0.208323 -0.00671347 0)
(0.221081 -0.00586674 0)
(0.231912 -0.00484509 0)
(0.240628 -0.00376562 0)
(0.24705 -0.0025865 0)
(0.251079 -0.00136508 0)
(0.2526 -0.000126157 0)
(0.251661 0.00110219 0)
(0.248107 0.00238478 0)
(0.242137 0.00354207 0)
(0.233841 0.00469117 0)
(0.223357 0.00565698 0)
(0.210903 0.00661219 0)
(0.196677 0.0074923 0)
(0.180917 0.0080775 0)
(0.163912 0.00867893 0)
(0.145912 0.00917014 0)
(0.127171 0.00935076 0)
(0.107968 0.00956855 0)
(0.0885356 0.00950516 0)
(0.0690791 0.00949107 0)
(0.0498267 0.00936282 0)
(0.0309465 0.00903166 0)
(0.0126213 0.00873744 0)
(-0.00438963 0.00845993 0)
(-0.0204263 0.00798239 0)
(-0.0360201 0.00753886 0)
(-0.0506945 0.00706632 0)
(-0.0643895 0.00654542 0)
(-0.077088 0.00605375 0)
(-0.0887807 0.00553805 0)
(-0.0994774 0.00505024 0)
(-0.109189 0.00456613 0)
(-0.117942 0.00408784 0)
(-0.125769 0.00363282 0)
(-0.132685 0.00319169 0)
(-0.138732 0.00275511 0)
(-0.143936 0.00235493 0)
(-0.148337 0.00194684 0)
(-0.151982 0.00158688 0)
(-0.154904 0.00121025 0)
(-0.157099 0.000857243 0)
(-0.158583 0.000523781 0)
(-0.159378 0.000219652 0)
(-0.15945 -0.000174772 0)
(-0.158823 -0.000487053 0)
(-0.157501 -0.000872553 0)
(-0.155446 -0.001218 0)
(-0.152689 -0.00156064 0)
(-0.149139 -0.0019844 0)
(-0.144764 -0.00238201 0)
(-0.139644 -0.0027769 0)
(-0.13361 -0.00326714 0)
(-0.126573 -0.00365089 0)
(-0.11867 -0.00414509 0)
(-0.109782 -0.00462692 0)
(-0.0999814 -0.00507381 0)
(-0.0892952 -0.00555693 0)
(-0.0776543 -0.00605725 0)
(-0.0650219 -0.00641968 0)
(-0.0515511 -0.00686743 0)
(-0.0372875 -0.00730449 0)
(-0.0221703 -0.00767127 0)
(-0.00627992 -0.00804482 0)
(0.0102993 -0.00836799 0)
(0.027468 -0.00867318 0)
(0.0451948 -0.00891878 0)
(0.0633665 -0.00909811 0)
(0.0818246 -0.0091825 0)
(0.100369 -0.00915619 0)
(0.118748 -0.0090138 0)
(0.136678 -0.00872531 0)
(0.153898 -0.00830272 0)
(0.170123 -0.00773997 0)
(0.185062 -0.00705076 0)
(0.198483 -0.00624406 0)
(0.210175 -0.00532023 0)
(0.219918 -0.00431789 0)
(0.22755 -0.00324221 0)
(0.23294 -0.00208735 0)
(0.235974 -0.000913337 0)
(0.2366 0.000259045 0)
(0.234792 0.00147047 0)
(0.230511 0.00269994 0)
(0.22393 0.00384408 0)
(0.215053 0.00493864 0)
(0.20403 0.00595397 0)
(0.191045 0.0068926 0)
(0.176293 0.00768382 0)
(0.160017 0.00842042 0)
(0.142454 0.00897279 0)
(0.123868 0.0094197 0)
(0.104541 0.00969888 0)
(0.0847737 0.00986642 0)
(0.0648279 0.00989892 0)
(0.044936 0.00980303 0)
(0.0253533 0.00960996 0)
(0.00627925 0.00930556 0)
(-0.012113 0.00893145 0)
(-0.0296848 0.00849268 0)
(-0.0463145 0.00798488 0)
(-0.0619167 0.00747067 0)
(-0.0764323 0.00695096 0)
(-0.0898536 0.00637902 0)
(-0.102179 0.00585265 0)
(-0.1134 0.00527349 0)
(-0.123519 0.00474208 0)
(-0.132542 0.00424256 0)
(-0.140524 0.00368335 0)
(-0.147479 0.00318997 0)
(-0.153424 0.00272914 0)
(-0.158399 0.00221975 0)
(-0.16246 0.00179451 0)
(-0.16563 0.00136922 0)
(-0.167959 0.000951657 0)
(-0.169485 0.000558166 0)
(-0.170257 0.000215731 0)
(-0.170329 -0.000158489 0)
(-0.169668 -0.000464834 0)
(-0.168382 -0.00079137 0)
(-0.166479 -0.00109349 0)
(-0.163967 -0.00137889 0)
(-0.160903 -0.00166158 0)
(-0.157269 -0.00193913 0)
(-0.153106 -0.00223551 0)
(-0.14836 -0.00248334 0)
(-0.143004 -0.00277193 0)
(-0.1371 -0.00306561 0)
(-0.130588 -0.00338483 0)
(-0.123437 -0.00370746 0)
(-0.115617 -0.00405869 0)
(-0.107057 -0.00442257 0)
(-0.0977484 -0.00478854 0)
(-0.0876908 -0.00518042 0)
(-0.0768502 -0.0055701 0)
(-0.0651874 -0.0059854 0)
(-0.0527034 -0.0063805 0)
(-0.0394056 -0.00677848 0)
(-0.025356 -0.00715036 0)
(-0.010567 -0.00750792 0)
(0.00492708 -0.00779907 0)
(0.0209577 -0.00805761 0)
(0.0374156 -0.00826189 0)
(0.0542004 -0.00835212 0)
(0.0711361 -0.00841993 0)
(0.0880692 -0.00835768 0)
(0.104792 -0.00819867 0)
(0.121091 -0.00793738 0)
(0.136721 -0.00751416 0)
(0.151396 -0.00699031 0)
(0.164863 -0.00632724 0)
(0.176869 -0.00553597 0)
(0.187146 -0.004607 0)
(0.195446 -0.00358973 0)
(0.201576 -0.00246839 0)
(0.205359 -0.00126161 0)
(0.206656 -4.73873e-05 0)
(0.205449 0.00122004 0)
(0.201611 0.00251979 0)
(0.195299 0.00372039 0)
(0.186598 0.00487325 0)
(0.175698 0.0059249 0)
(0.162761 0.00686558 0)
(0.148052 0.00767586 0)
(0.131835 0.0083615 0)
(0.114377 0.00887042 0)
(0.0960585 0.00922428 0)
(0.0771951 0.00944315 0)
(0.0580711 0.00949343 0)
(0.0389745 0.00944903 0)
(0.0201378 0.00924901 0)
(0.00176583 0.00896488 0)
(-0.0159675 0.00861328 0)
(-0.0328967 0.00817769 0)
(-0.0489175 0.00770291 0)
(-0.0639564 0.0072007 0)
(-0.0779546 0.00667966 0)
(-0.0908918 0.00615568 0)
(-0.102734 0.00559243 0)
(-0.113454 0.00504068 0)
(-0.123078 0.00452691 0)
(-0.131667 0.00400021 0)
(-0.139242 0.00352172 0)
(-0.145845 0.00304939 0)
(-0.151573 0.00260578 0)
(-0.156456 0.00221901 0)
(-0.160519 0.00186772 0)
(-0.163899 0.00152124 0)
(-0.166698 0.00124811 0)
(-0.168973 0.00101913 0)
(-0.170792 0.000789568 0)
(-0.172189 0.000579502 0)
(-0.173189 0.000394182 0)
(-0.173745 0.000169774 0)
(-0.173834 -9.39259e-05 0)
(-0.173377 -0.000367535 0)
(-0.17229 -0.000675642 0)
(-0.170578 -0.000995781 0)
(-0.168249 -0.00132694 0)
(-0.165261 -0.00165449 0)
(-0.161645 -0.00195007 0)
(-0.157364 -0.00225309 0)
(-0.152455 -0.00258476 0)
(-0.146918 -0.00290706 0)
(-0.140715 -0.00323387 0)
(-0.133834 -0.0035797 0)
(-0.126261 -0.00392703 0)
(-0.117957 -0.0043021 0)
(-0.1089 -0.00467571 0)
(-0.0990788 -0.00505744 0)
(-0.0884641 -0.00545565 0)
(-0.0770341 -0.00588133 0)
(-0.0647584 -0.0062953 0)
(-0.0516312 -0.00669825 0)
(-0.0377029 -0.00708956 0)
(-0.0230394 -0.00745084 0)
(-0.00767752 -0.00776438 0)
(0.00827275 -0.00800674 0)
(0.0246298 -0.00818568 0)
(0.0412563 -0.00826753 0)
(0.0579422 -0.00824741 0)
(0.0744904 -0.00813391 0)
(0.0906919 -0.00788645 0)
(0.106308 -0.00756635 0)
(0.121136 -0.00711649 0)
(0.134941 -0.0065455 0)
(0.147477 -0.00584772 0)
(0.158482 -0.00503637 0)
(0.167719 -0.0041011 0)
(0.174964 -0.00305457 0)
(0.180023 -0.0019361 0)
(0.182732 -0.000739158 0)
(0.183009 0.000456299 0)
(0.180763 0.00172997 0)
(0.176023 0.0029297 0)
(0.168938 0.00407422 0)
(0.159617 0.00512714 0)
(0.148272 0.00607515 0)
(0.135153 0.00689488 0)
(0.120519 0.00758737 0)
(0.104665 0.00812565 0)
(0.087881 0.00852387 0)
(0.0704635 0.00874602 0)
(0.0527101 0.00884904 0)
(0.0348289 0.0088103 0)
(0.0171216 0.00869669 0)
(-7.6696e-05 0.00851451 0)
(-0.0167134 0.00818893 0)
(-0.0327372 0.00781327 0)
(-0.0479531 0.0074024 0)
(-0.0622803 0.00692836 0)
(-0.0756619 0.00645325 0)
(-0.0880642 0.00596603 0)
(-0.0994641 0.00545924 0)
(-0.109872 0.00497755 0)
(-0.119313 0.0044593 0)
(-0.127675 0.00392968 0)
(-0.134991 0.00337195 0)
(-0.141214 0.00282713 0)
(-0.146272 0.00227774 0)
(-0.150416 0.00184487 0)
(-0.153829 0.00148136 0)
(-0.156714 0.00123362 0)
(-0.159402 0.00109823 0)
(-0.161822 0.000946355 0)
(-0.163836 0.000770155 0)
(-0.165547 0.000632373 0)
(-0.166769 0.000381689 0)
(-0.16741 0.000185521 0)
(-0.16754 -9.56013e-05 0)
(-0.166945 -0.000436793 0)
(-0.165686 -0.000733957 0)
(-0.163772 -0.00110097 0)
(-0.161061 -0.0015366 0)
(-0.157532 -0.00191534 0)
(-0.153235 -0.00235001 0)
(-0.147978 -0.0028649 0)
(-0.141826 -0.00331118 0)
(-0.134682 -0.00386487 0)
(-0.126478 -0.00432751 0)
(-0.117347 -0.00480281 0)
(-0.107117 -0.00538792 0)
(-0.0957916 -0.00585411 0)
(-0.0835491 -0.00631259 0)
(-0.0702404 -0.00689096 0)
(-0.0559832 -0.00730535 0)
(-0.0408402 -0.00782943 0)
(-0.0247464 -0.00818709 0)
(-0.00754985 -0.00847861 0)
(0.0105081 -0.00890868 0)
(0.0288874 -0.0090975 0)
(0.0475017 -0.00917192 0)
(0.0662578 -0.00933214 0)
(0.0850048 -0.00922079 0)
(0.103532 -0.00915574 0)
(0.121616 -0.00882505 0)
(0.138988 -0.00835862 0)
(0.155396 -0.00789134 0)
(0.170595 -0.00719705 0)
(0.184335 -0.00638825 0)
(0.196384 -0.00553044 0)
(0.206524 -0.00452563 0)
(0.214575 -0.00346431 0)
(0.22037 -0.00231834 0)
(0.223818 -0.00112516 0)
(0.224861 6.10179e-05 0)
(0.223551 0.00125241 0)
(0.21976 0.00246482 0)
(0.213663 0.0035651 0)
(0.205346 0.00464991 0)
(0.194951 0.00568155 0)
(0.182652 0.00650225 0)
(0.168677 0.00732904 0)
(0.153248 0.00789467 0)
(0.136624 0.00848059 0)
(0.119048 0.00895638 0)
(0.100769 0.00913101 0)
(0.0820432 0.00935768 0)
(0.0630981 0.00947128 0)
(0.0441442 0.0093136 0)
(0.0253108 0.00922226 0)
(0.00695924 0.0088865 0)
(-0.0107145 0.00864602 0)
(-0.0277599 0.00832765 0)
(-0.0440667 0.00785295 0)
(-0.0595239 0.00744704 0)
(-0.074061 0.00700387 0)
(-0.0876297 0.00647325 0)
(-0.10021 0.00600085 0)
(-0.111787 0.00547345 0)
(-0.122367 0.00499867 0)
(-0.131959 0.00452413 0)
(-0.140576 0.00403237 0)
(-0.148254 0.00357958 0)
(-0.155818 0.00313445 0)
(-0.120224 -0.00479309 0)
(-0.113754 -0.00543186 0)
(-0.105484 -0.00605973 0)
(-0.09628 -0.00670119 0)
(-0.0861113 -0.00741565 0)
(-0.0749507 -0.00808155 0)
(-0.0627903 -0.00883315 0)
(-0.0496189 -0.0094948 0)
(-0.0354562 -0.0101277 0)
(-0.0203125 -0.0108677 0)
(-0.00426136 -0.0114266 0)
(0.0125995 -0.0119061 0)
(0.0302257 -0.0125074 0)
(0.0484867 -0.0128091 0)
(0.0672215 -0.0132264 0)
(0.0862616 -0.0132816 0)
(0.105395 -0.0131726 0)
(0.124401 -0.0131595 0)
(0.143037 -0.0127233 0)
(0.161033 -0.0121008 0)
(0.178131 -0.0115105 0)
(0.194046 -0.0105393 0)
(0.20852 -0.00940537 0)
(0.221308 -0.00821945 0)
(0.232162 -0.00678815 0)
(0.2409 -0.00527634 0)
(0.247336 -0.0036252 0)
(0.251378 -0.00191523 0)
(0.252915 -0.000179387 0)
(0.251941 0.00155589 0)
(0.248391 0.00334129 0)
(0.242411 0.00496111 0)
(0.234099 0.00657229 0)
(0.223588 0.00792539 0)
(0.211109 0.00926347 0)
(0.196856 0.0104963 0)
(0.181063 0.0113156 0)
(0.164027 0.0121579 0)
(0.145996 0.0128456 0)
(0.127223 0.0130978 0)
(0.107989 0.0134021 0)
(0.0885306 0.0133135 0)
(0.0690494 0.0132923 0)
(0.049773 0.0131128 0)
(0.0308753 0.012648 0)
(0.0125447 0.0122307 0)
(-0.0044791 0.0118518 0)
(-0.0205341 0.0111767 0)
(-0.0361343 0.0105558 0)
(-0.0508127 0.00989342 0)
(-0.0645089 0.00916371 0)
(-0.0772083 0.0084757 0)
(-0.0888995 0.00775307 0)
(-0.0995947 0.00707 0)
(-0.109303 0.00639224 0)
(-0.118053 0.00572203 0)
(-0.125875 0.00508585 0)
(-0.132789 0.00446838 0)
(-0.13883 0.00385672 0)
(-0.144032 0.00329729 0)
(-0.148428 0.00272466 0)
(-0.152071 0.00222338 0)
(-0.15499 0.00169113 0)
(-0.157183 0.0011995 0)
(-0.158666 0.000733221 0)
(-0.15947 0.000300873 0)
(-0.159536 -0.000244319 0)
(-0.158907 -0.000680605 0)
(-0.15759 -0.00122207 0)
(-0.155536 -0.00170247 0)
(-0.152782 -0.00218711 0)
(-0.14924 -0.00277725 0)
(-0.144869 -0.00333532 0)
(-0.139755 -0.00389528 0)
(-0.133719 -0.00456489 0)
(-0.126684 -0.00511404 0)