/*--------------------------------*- C++ -*----------------------------------*\
| =========                 |                                                 |
| \\      /  F ield         | OpenFOAM: The Open Source CFD Toolbox           |
|  \\    /   O peration     | Version:  3.0.1                                 |
|   \\  /    A nd           | Web:      www.OpenFOAM.org                      |
|    \\/     M anipulation  |                                                 |
\*---------------------------------------------------------------------------*/
FoamFile
{
    version     2.0;
    format      ascii;
    class       volScalarField;
    location    "22.2";
    object      p_rgh;
}
// * * * * * * * * * * * * * * * * * * * * * * * * * * * * * * * * * * * * * //

dimensions      [1 -1 -2 0 0 0 0];

internalField   nonuniform List<scalar> 
21420
(
-42.9605
-69.9123
-97.3668
-124.169
-149.778
-173.952
-196.515
-217.394
-236.53
-253.91
-269.555
-283.484
-295.737
-306.356
-315.384
-322.864
-328.83
-333.317
-336.355
-337.92
-337.999
-336.541
-333.649
-329.262
-323.354
-315.896
-306.836
-296.134
-283.745
-269.611
-253.682
-235.93
-216.323
-194.857
-171.545
-146.397
-119.491
-90.9353
-60.8559
-29.4272
3.10695
36.3875
70.1231
104.222
138.321
171.993
204.821
236.423
266.38
294.287
319.796
342.566
362.298
378.74
391.673
400.928
406.394
407.982
405.205
398.501
388.015
373.847
356.208
335.338
311.503
285.004
256.197
225.457
193.163
159.715
125.521
90.9746
56.4317
22.253
-11.0564
-43.5988
-75.0359
-105.135
-133.708
-160.615
-185.73
-208.968
-230.286
-249.644
-267.02
-282.43
-295.882
-307.397
-317.021
-324.8
-330.787
-335.045
-337.641
-338.628
-338.056
-336.055
-332.634
-327.826
-321.674
-314.192
-305.354
-295.157
-283.575
-270.56
-256.078
-240.085
-222.548
-203.442
-182.749
-160.471
-136.63
-111.266
-84.4488
-56.2669
-26.8382
3.68485
35.1288
67.2682
99.8267
132.532
165.06
197.056
228.138
257.902
285.935
311.823
335.162
355.574
372.72
386.303
396.08
401.876
403.542
401.107
394.538
383.989
369.57
351.52
330.108
305.663
278.554
249.181
217.973
185.377
151.841
117.81
83.7119
49.9419
16.8692
-15.243
-46.1271
-75.5863
-103.476
-129.696
-154.189
-176.928
-197.912
-217.166
-234.722
-250.626
-264.922
-277.654
-288.866
-298.591
-306.864
-313.708
-319.14
-323.177
-325.812
-327.028
-326.837
-325.242
-322.196
-317.675
-311.662
-304.113
-295.002
-284.303
-271.959
-257.948
-242.237
-224.792
-205.592
-184.631
-161.92
-137.493
-111.409
-83.7617
-54.6804
-24.3298
7.09225
39.4911
72.2923
105.324
138.255
170.722
202.345
232.737
261.51
288.282
312.685
334.369
353.019
368.359
380.152
388.218
392.44
392.68
389.064
381.558
370.269
355.369
337.063
315.61
291.307
264.48
235.496
204.74
172.613
139.523
105.873
72.0573
38.4463
5.38287
-26.8245
-57.9051
-87.6371
-115.841
-142.375
-167.143
-190.082
-211.163
-230.383
-247.76
-263.332
-277.151
-289.272
-299.76
-308.684
-316.098
-322.056
-326.61
-329.824
-331.689
-332.2
-331.423
-329.317
-325.863
-321.009
-314.709
-306.908
-297.536
-286.519
-273.789
-259.285
-242.959
-224.777
-204.726
-182.813
-159.079
-133.597
-106.478
-77.8689
-47.9614
-16.9875
15.066
47.4066
79.9868
112.455
144.453
175.615
205.58
233.986
260.487
284.763
306.511
325.448
341.345
354.015
363.298
369.051
371.207
369.732
364.648
355.963
343.74
328.148
309.352
287.553
262.999
235.976
206.803
175.858
143.524
110.187
76.2603
42.1534
8.29428
-24.6527
-56.5204
-87.5669
-117.5
-145.978
-172.779
-197.745
-220.755
-241.745
-260.682
-277.56
-292.402
-305.25
-316.16
-325.201
-332.454
-338.01
-341.924
-344.271
-345
-344.324
-342.272
-338.902
-334.249
-328.36
-321.229
-312.876
-303.287
-292.438
-280.322
-266.912
-252.167
-236.069
-218.594
-199.71
-179.416
-157.717
-134.636
-110.237
-84.6058
-57.9075
-30.1587
-1.60723
27.5391
57.0154
86.5585
115.829
144.487
172.195
198.546
223.148
245.642
265.658
282.852
296.916
307.593
314.682
318.048
317.593
-43.0206
-69.9809
-97.441
-124.247
-149.858
-174.033
-196.596
-217.473
-236.607
-253.985
-269.627
-283.555
-295.804
-306.421
-315.447
-322.924
-328.889
-333.374
-336.411
-337.976
-338.056
-336.601
-333.708
-329.322
-323.416
-315.959
-306.902
-296.202
-283.816
-269.685
-253.758
-236.008
-216.403
-194.939
-171.627
-146.479
-119.571
-91.0123
-60.9281
-29.4927
3.05006
36.3385
70.085
104.197
138.311
171.999
204.843
236.463
266.437
294.361
319.886
342.671
362.417
378.871
391.812
401.075
406.546
408.142
405.352
398.643
388.153
373.977
356.326
335.441
311.591
285.075
256.251
225.492
193.18
159.716
125.506
90.9449
56.3889
22.1988
-11.1192
-43.6698
-75.1136
-105.218
-133.795
-160.704
-185.821
-209.059
-230.378
-249.735
-267.109
-282.518
-295.968
-307.481
-317.103
-324.879
-330.864
-335.119
-337.712
-338.694
-338.123
-336.119
-332.697
-327.888
-321.736
-314.254
-305.417
-295.221
-283.642
-270.629
-256.149
-240.159
-222.623
-203.519
-182.827
-160.55
-136.708
-111.343
-84.5235
-56.3384
-26.9055
3.62319
35.0742
67.2223
99.7913
132.509
165.051
197.063
228.161
257.943
285.995
311.902
335.258
355.687
372.848
386.443
396.23
402.032
403.707
401.261
394.688
384.132
369.702
351.637
330.209
305.746
278.618
249.225
217.998
185.382
151.828
117.78
83.6672
49.8846
16.8013
-15.3188
-46.2086
-75.6715
-103.563
-129.784
-154.276
-177.012
-197.995
-217.246
-234.799
-250.7
-264.994
-277.723
-288.933
-298.657
-306.928
-313.772
-319.203
-323.24
-325.874
-327.089
-326.901
-325.306
-322.261
-317.741
-311.73
-304.182
-295.074
-284.376
-272.035
-258.025
-242.317
-224.873
-205.675
-184.715
-162.004
-137.576
-111.49
-83.8399
-54.7539
-24.3971
7.0331
39.4419
72.2542
105.299
138.244
170.726
202.365
232.775
261.565
288.354
312.773
334.473
353.137
368.489
380.291
388.363
392.588
392.836
389.206
381.698
370.401
355.491
337.171
315.704
291.384
264.539
235.538
204.765
172.62
139.513
105.848
72.0177
38.3943
5.31994
-26.8962
-57.9839
-87.7211
-115.928
-142.464
-167.233
-190.172
-211.251
-230.47
-247.843
-263.413
-277.229
-289.346
-299.831
-308.752
-316.163
-322.119
-326.672
-329.884
-331.746
-332.26
-331.483
-329.378
-325.925
-321.073
-314.775
-306.978
-297.609
-286.595
-273.869
-259.368
-243.044
-224.864
-204.814
-182.901
-159.166
-133.681
-106.558
-77.9433
-48.0281
-17.0431
15.0137
47.3685
79.9625
112.445
144.458
175.636
205.617
234.039
260.555
284.846
306.607
325.556
341.464
354.144
363.434
369.192
371.356
369.871
364.784
356.097
343.868
328.268
309.46
287.649
263.081
236.042
206.853
175.891
143.539
110.185
76.2409
42.1179
8.24679
-24.7037
-56.5799
-87.6364
-117.577
-146.061
-172.866
-197.833
-220.845
-241.833
-260.769
-277.645
-292.484
-305.329
-316.235
-325.273
-332.522
-338.074
-341.985
-344.326
-345.056
-344.378
-342.324
-338.952
-334.299
-328.409
-321.278
-312.926
-303.338
-292.491
-280.377
-266.968
-252.225
-236.13
-218.656
-199.774
-179.481
-157.783
-134.702
-110.3
-84.6643
-57.9653
-30.2091
-1.65013
27.5048
56.9916
86.5467
115.831
144.504
172.228
198.596
223.215
245.726
265.757
282.967
297.044
307.731
314.827
318.198
317.744
-43.1409
-70.1181
-97.5894
-124.404
-150.018
-174.195
-196.757
-217.632
-236.763
-254.136
-269.773
-283.695
-295.939
-306.551
-315.572
-323.046
-329.007
-333.489
-336.523
-338.09
-338.172
-336.719
-333.825
-329.441
-323.538
-316.087
-307.034
-296.339
-283.958
-269.833
-253.911
-236.166
-216.564
-195.102
-171.79
-146.642
-119.73
-91.1659
-61.0721
-29.6235
2.93636
36.2413
70.0092
104.147
138.291
172.01
204.888
236.543
266.552
294.51
320.068
342.883
362.655
379.132
392.092
401.369
406.85
408.461
405.644
398.931
388.429
374.236
356.562
335.649
311.768
285.218
256.359
225.565
193.217
159.719
125.478
90.8882
56.3066
22.0945
-11.2406
-43.8069
-75.2632
-105.378
-133.961
-160.874
-185.993
-209.233
-230.55
-249.904
-267.276
-282.681
-296.127
-307.635
-317.252
-325.023
-331.002
-335.252
-337.839
-338.809
-338.24
-336.231
-332.806
-327.995
-321.843
-314.362
-305.528
-295.335
-283.76
-270.751
-256.275
-240.29
-222.759
-203.657
-182.969
-160.692
-136.85
-111.484
-84.6601
-56.4688
-27.0279
3.51182
34.9765
67.1417
99.7317
132.473
165.043
197.086
228.218
258.036
286.124
312.068
335.46
355.922
373.113
386.733
396.537
402.351
404.043
401.573
394.998
384.425
369.973
351.88
330.42
305.921
278.754
249.322
218.055
185.401
151.81
117.729
83.5873
49.7799
16.6758
-15.4598
-46.3609
-75.8308
-103.726
-129.947
-154.437
-177.17
-198.148
-217.393
-234.94
-250.836
-265.124
-277.848
-289.054
-298.774
-307.043
-313.885
-319.315
-323.351
-325.983
-327.199
-327.015
-325.42
-322.377
-317.861
-311.852
-304.309
-295.204
-284.51
-272.174
-258.168
-242.464
-225.025
-205.829
-184.872
-162.161
-137.732
-111.642
-83.9857
-54.8906
-24.5216
6.92422
39.3534
72.1875
105.258
138.231
170.744
202.416
232.859
261.684
288.507
312.958
334.689
353.381
368.756
380.578
388.662
392.894
393.155
389.502
381.988
370.675
355.743
337.397
315.9
291.548
264.669
235.633
204.824
172.644
139.504
105.808
71.9499
38.302
5.2063
-27.0272
-58.1286
-87.8758
-116.09
-142.63
-167.399
-190.337
-211.413
-230.627
-247.996
-263.559
-277.368
-289.479
-299.958
-308.873
-316.279
-322.231
-326.781
-329.991
-331.847
-332.365
-331.588
-329.485
-326.036
-321.189
-314.896
-307.105
-297.743
-286.736
-274.016
-259.521
-243.202
-225.026
-204.979
-183.066
-159.329
-133.84
-106.709
-78.083
-48.153
-17.1462
14.9172
47.3001
79.9211
112.432
144.475
175.684
205.697
234.15
260.697
285.017
306.804
325.777
341.706
354.403
363.707
369.476
371.649
370.157
365.06
356.365
344.125
328.508
309.678
287.841
263.244
236.174
206.951
175.956
143.569
110.181
76.2023
42.047
8.1517
-24.8052
-56.699
-87.7756
-117.732
-146.228
-173.04
-198.011
-221.023
-242.011
-260.943
-277.814
-292.648
-305.486
-316.385
-325.416
-332.657
-338.201
-342.105
-344.438
-345.167
-344.484
-342.426
-339.052
-334.397
-328.507
-321.377
-313.026
-303.441
-292.596
-280.486
-267.081
-252.342
-236.251
-218.781
-199.902
-179.611
-157.914
-134.832
-110.426
-84.7813
-58.081
-30.3099
-1.73587
27.4364
56.9438
86.523
115.834
144.537
172.294
198.696
223.349
245.894
265.957
283.196
297.299
308.007
315.118
318.498
318.045
-43.3214
-70.3241
-97.8123
-124.638
-150.259
-174.439
-197
-217.871
-236.996
-254.362
-269.992
-283.905
-296.141
-306.746
-315.76
-323.228
-329.184
-333.662
-336.69
-338.257
-338.347
-336.897
-334.001
-329.62
-323.722
-316.278
-307.232
-296.545
-284.171
-270.054
-254.14
-236.402
-216.806
-195.347
-172.036
-146.887
-119.97
-91.3966
-61.2884
-29.82
2.76527
36.0954
69.8955
104.073
138.26
172.028
204.956
236.663
266.724
294.734
320.34
343.2
363.012
379.524
392.512
401.809
407.306
408.933
406.09
399.365
388.844
374.626
356.916
335.962
312.033
285.433
256.521
225.673
193.273
159.724
125.435
90.8029
56.183
21.9382
-11.4229
-44.0124
-75.4876
-105.616
-134.21
-161.13
-186.252
-209.493
-230.807
-250.159
-267.526
-282.924
-296.365
-307.866
-317.474
-325.237
-331.208
-335.449
-338.028
-338.985
-338.414
-336.398
-332.969
-328.155
-322.003
-314.523
-305.692
-295.504
-283.936
-270.932
-256.464
-240.487
-222.961
-203.865
-183.18
-160.905
-137.063
-111.694
-84.8643
-56.6638
-27.2108
3.34543
34.8307
67.0215
99.6429
132.421
165.032
197.121
228.303
258.175
286.318
312.317
335.764
356.276
373.511
387.168
397
402.832
404.542
402.049
395.466
384.866
370.381
352.245
330.736
306.183
278.96
249.469
218.142
185.43
151.785
117.654
83.4684
49.6238
16.4884
-15.6705
-46.5884
-76.0689
-103.969
-130.191
-154.678
-177.406
-198.376
-217.613
-235.151
-251.038
-265.318
-278.035
-289.235
-298.95
-307.214
-314.053
-319.481
-323.515
-326.146
-327.366
-327.184
-325.591
-322.551
-318.039
-312.036
-304.497
-295.398
-284.711
-272.381
-258.382
-242.684
-225.251
-206.06
-185.106
-162.396
-137.965
-111.87
-84.2038
-55.0949
-24.7077
6.76079
39.222
72.0882
105.197
138.213
170.771
202.492
232.986
261.862
288.736
313.237
335.014
353.748
369.159
381.009
389.113
393.353
393.628
389.952
382.424
371.088
356.123
337.738
316.197
291.796
264.865
235.776
204.914
172.682
139.492
105.749
71.8496
38.1648
5.03702
-27.2226
-58.3444
-88.1068
-116.331
-142.877
-167.648
-190.583
-211.655
-230.863
-248.223
-263.776
-277.577
-289.678
-300.148
-309.054
-316.452
-322.397
-326.944
-330.148
-331.998
-332.521
-331.744
-329.645
-326.202
-321.36
-315.076
-307.295
-297.943
-286.946
-274.235
-259.749
-243.439
-225.268
-205.225
-183.313
-159.573
-134.077
-106.934
-78.292
-48.3399
-17.3019
14.7746
47.1982
79.8595
112.413
144.501
175.757
205.817
234.317
260.91
285.273
307.1
326.109
342.071
354.794
364.117
369.9
372.078
370.592
365.476
356.769
344.512
328.868
310.006
288.13
263.49
236.371
207.1
176.053
143.615
110.174
76.1441
41.9402
8.00722
-24.9568
-56.8776
-87.9847
-117.965
-146.478
-173.301
-198.277
-221.291
-242.277
-261.205
-278.069
-292.894
-305.722
-316.61
-325.63
-332.86
-338.391
-342.285
-344.609
-345.335
-344.643
-342.58
-339.201
-334.545
-328.654
-321.526
-313.177
-303.595
-292.755
-280.65
-267.251
-252.518
-236.433
-218.968
-200.095
-179.807
-158.112
-135.027
-110.616
-84.9575
-58.2539
-30.461
-1.86471
27.3335
56.872
86.4873
115.839
144.588
172.394
198.846
223.55
246.145
266.257
283.54
297.682
308.422
315.555
318.948
318.498
-43.5623
-70.5989
-98.1096
-124.951
-150.581
-174.763
-197.323
-218.189
-237.307
-254.664
-270.283
-284.186
-296.411
-307.006
-316.011
-323.47
-329.42
-333.892
-336.913
-338.48
-338.582
-337.133
-334.236
-329.859
-323.968
-316.532
-307.496
-296.819
-284.455
-270.349
-254.446
-236.717
-217.128
-195.674
-172.364
-147.213
-120.29
-91.7046
-61.5773
-30.0825
2.53633
35.9007
69.7436
103.974
138.22
172.05
205.046
236.823
266.954
295.032
320.703
343.623
363.489
380.046
393.071
402.397
407.913
409.546
406.696
399.95
389.399
375.146
357.389
336.378
312.387
285.719
256.737
225.817
193.346
159.73
125.379
90.6888
56.0177
21.7299
-11.6664
-44.287
-75.7872
-105.935
-134.542
-161.47
-186.597
-209.839
-231.151
-250.497
-267.859
-283.249
-296.682
-308.174
-317.771
-325.523
-331.483
-335.712
-338.277
-339.224
-338.647
-336.621
-333.186
-328.369
-322.216
-314.738
-305.911
-295.731
-284.17
-271.175
-256.717
-240.749
-223.231
-204.142
-183.462
-161.189
-137.347
-111.974
-85.1369
-56.9243
-27.4549
3.12308
34.6357
66.8611
99.5241
132.35
165.016
197.167
228.417
258.36
286.577
312.65
336.169
356.749
374.043
387.749
397.619
403.472
405.195
402.695
396.093
385.457
370.925
352.733
331.159
306.534
279.233
249.664
218.258
185.469
151.752
117.554
83.3093
49.4151
16.238
-15.9519
-46.8922
-76.3866
-104.294
-130.517
-155
-177.72
-198.68
-217.906
-235.433
-251.308
-265.577
-278.285
-289.476
-299.183
-307.442
-314.277
-319.703
-323.734
-326.364
-327.588
-327.409
-325.818
-322.784
-318.277
-312.28
-304.749
-295.657
-284.979
-272.657
-258.667
-242.979
-225.553
-206.369
-185.418
-162.71
-138.276
-112.174
-84.4949
-55.3677
-24.9562
6.54081
39.0481
71.9553
105.115
138.188
170.808
202.594
233.155
262.1
289.043
313.61
335.448
354.238
369.697
381.584
389.714
393.967
394.252
390.56
383.007
371.639
356.63
338.193
316.592
292.126
265.126
235.967
205.034
172.732
139.476
105.671
71.7156
37.9813
4.81097
-27.4833
-58.6327
-88.4152
-116.653
-143.206
-167.979
-190.912
-211.978
-231.177
-248.526
-264.067
-277.855
-289.943
-300.4
-309.295
-316.682
-322.619
-327.16
-330.357
-332.202
-332.73
-331.953
-329.858
-326.422
-321.59
-315.316
-307.548
-298.209
-287.226
-274.528
-260.054
-243.755
-225.592
-205.553
-183.643
-159.899
-134.393
-107.235
-78.5712
-48.5899
-17.5124
14.5866
47.0625
79.777
112.387
144.535
175.854
205.977
234.54
261.194
285.615
307.494
326.551
342.556
355.314
364.664
370.465
372.649
371.171
366.036
357.308
345.027
329.349
310.442
288.516
263.817
236.635
207.298
176.183
143.676
110.166
76.0662
41.797
7.8128
-25.1575
-57.1156
-88.2639
-118.276
-146.811
-173.649
-198.633
-221.649
-242.632
-261.554
-278.409
-293.223
-306.037
-316.911
-325.916
-333.131
-338.644
-342.523
-344.84
-345.557
-344.855
-342.785
-339.401
-334.743
-328.851
-321.724
-313.377
-303.801
-292.966
-280.868
-267.476
-252.752
-236.675
-219.218
-200.351
-180.068
-158.375
-135.288
-110.869
-85.1954
-58.4818
-30.6626
-2.03696
27.196
56.7758
86.4393
115.846
144.655
172.526
199.046
223.818
246.481
266.656
283.998
298.193
308.974
316.139
319.549
319.103
-43.864
-70.9429
-98.4818
-125.343
-150.983
-175.169
-197.727
-218.588
-237.696
-255.042
-270.647
-284.537
-296.749
-307.331
-316.325
-323.774
-329.715
-334.179
-337.194
-338.759
-338.873
-337.424
-334.528
-330.157
-324.274
-316.85
-307.826
-297.161
-284.81
-270.717
-254.828
-237.11
-217.531
-196.083
-172.775
-147.622
-120.691
-92.0901
-61.939
-30.4115
2.24893
35.6569
69.5534
103.849
138.168
172.078
205.158
237.022
267.241
295.404
321.157
344.152
364.085
380.7
393.772
403.133
408.671
410.306
407.456
400.685
390.095
375.796
357.98
336.899
312.83
286.077
257.006
225.997
193.438
159.737
125.308
90.5454
55.8104
21.4691
-11.9716
-44.631
-76.1625
-106.335
-134.958
-161.896
-187.029
-210.273
-231.581
-250.921
-268.276
-283.656
-297.078
-308.558
-318.142
-325.881
-331.825
-336.039
-338.588
-339.526
-338.937
-336.9
-333.457
-328.636
-322.482
-315.007
-306.185
-296.014
-284.463
-271.479
-257.032
-241.077
-223.568
-204.488
-183.814
-161.545
-137.702
-112.325
-85.4782
-57.2508
-27.7607
2.84427
34.3912
66.6599
99.3749
132.261
164.996
197.224
228.558
258.59
286.901
313.066
336.676
357.34
374.708
388.476
398.392
404.275
406.006
403.508
396.878
386.196
371.607
353.343
331.687
306.972
279.576
249.907
218.402
185.517
151.709
117.428
83.1094
49.1531
15.9242
-16.3045
-47.2729
-76.7845
-104.701
-130.925
-155.403
-178.113
-199.06
-218.272
-235.785
-251.646
-265.901
-278.596
-289.777
-299.476
-307.728
-314.557
-319.98
-324.008
-326.638
-327.865
-327.69
-326.103
-323.074
-318.575
-312.586
-305.063
-295.982
-285.314
-273.003
-259.024
-243.346
-225.93
-206.754
-185.809
-163.102
-138.666
-112.554
-84.8595
-55.7093
-25.2673
6.26305
38.8317
71.7884
105.011
138.156
170.853
202.721
233.367
262.397
289.425
314.075
335.991
354.85
370.369
382.304
390.467
394.736
395.026
391.324
383.738
372.328
357.264
338.761
317.087
292.538
265.453
236.205
205.183
172.794
139.455
105.572
71.5473
37.7511
4.52763
-27.81
-58.9937
-88.8015
-117.056
-143.619
-168.394
-191.324
-212.382
-231.57
-248.905
-264.43
-278.202
-290.274
-300.716
-309.596
-316.97
-322.896
-327.43
-330.618
-332.459
-332.989
-332.214
-330.124
-326.697
-321.876
-315.617
-307.864
-298.542
-287.576
-274.894
-260.436
-244.151
-225.997
-205.965
-184.056
-160.307
-134.789
-107.612
-78.921
-48.9036
-17.7791
14.3536
46.8927
79.6732
112.355
144.578
175.975
206.177
234.818
261.549
286.042
307.987
327.105
343.164
355.965
365.348
371.17
373.363
371.889
366.741
357.984
345.673
329.95
310.989
288.998
264.226
236.965
207.545
176.345
143.752
110.155
75.9684
41.6168
7.56612
-25.4059
-57.4129
-88.6138
-118.666
-147.229
-174.085
-199.078
-222.097
-243.077
-261.99
-278.833
-293.633
-306.431
-317.287
-326.273
-333.469
-338.961
-342.822
-345.128
-345.834
-345.119
-343.042
-339.651
-334.99
-329.096
-321.972
-313.628
-304.057
-293.231
-281.14
-267.759
-253.045
-236.979
-219.531
-200.672
-180.395
-158.704
-135.615
-111.187
-85.4964
-58.7639
-30.9148
-2.25293
27.0233
56.6548
86.3786
115.854
144.739
172.691
199.295
224.153
246.9
267.156
284.572
298.832
309.666
316.868
320.301
319.859
-44.2267
-71.3564
-98.929
-125.813
-151.467
-175.657
-198.213
-219.066
-238.163
-255.495
-271.085
-284.958
-297.154
-307.721
-316.701
-324.138
-330.068
-334.525
-337.532
-339.095
-339.218
-337.771
-334.879
-330.515
-324.642
-317.231
-308.221
-297.572
-285.236
-271.16
-255.287
-237.583
-218.014
-196.575
-173.269
-148.113
-121.172
-92.5535
-62.374
-30.8075
1.90238
35.3639
69.3248
103.699
138.105
172.111
205.293
237.261
267.585
295.851
321.702
344.787
364.801
381.485
394.613
404.015
409.58
411.22
408.368
401.568
390.933
376.578
358.69
337.525
313.361
286.507
257.33
226.213
193.547
159.745
125.221
90.3724
55.5604
21.1556
-12.3389
-45.0448
-76.6138
-106.815
-135.459
-162.409
-187.548
-210.794
-232.098
-251.431
-268.776
-284.145
-297.553
-309.02
-318.588
-326.31
-332.237
-336.433
-338.963
-339.886
-339.284
-337.234
-333.782
-328.957
-322.802
-315.329
-306.515
-296.353
-284.815
-271.844
-257.412
-241.47
-223.974
-204.905
-184.238
-161.972
-138.129
-112.746
-85.8885
-57.6436
-28.1286
2.50875
34.0967
66.4177
99.1948
132.153
164.971
197.292
228.727
258.867
287.288
313.566
337.283
358.049
375.506
389.348
399.321
405.239
406.981
404.482
397.82
387.084
372.425
354.075
332.321
307.498
279.986
250.198
218.574
185.574
151.656
117.275
82.8684
48.8374
15.5463
-16.7288
-47.7307
-77.2631
-105.189
-131.415
-155.887
-178.585
-199.517
-218.713
-236.208
-252.051
-266.29
-278.97
-290.138
-299.826
-308.07
-314.894
-320.312
-324.337
-326.968
-328.198
-328.026
-326.444
-323.422
-318.932
-312.953
-305.441
-296.371
-285.716
-273.418
-259.452
-243.788
-226.383
-207.217
-186.279
-163.574
-139.133
-113.011
-85.2979
-56.1199
-25.6412
5.92724
38.5723
71.5869
104.886
138.116
170.906
202.872
233.62
262.754
289.884
314.633
336.642
355.586
371.177
383.168
391.371
395.66
395.953
392.241
384.617
373.155
358.025
339.444
317.68
293.033
265.845
236.491
205.362
172.869
139.429
105.453
71.344
37.4737
4.18657
-28.2032
-59.428
-89.2661
-117.541
-144.115
-168.893
-191.818
-212.867
-232.042
-249.36
-264.867
-278.619
-290.672
-301.095
-309.957
-317.316
-323.229
-327.753
-330.931
-332.768
-333.299
-332.527
-330.444
-327.027
-322.22
-315.978
-308.243
-298.942
-287.997
-275.335
-260.894
-244.626
-226.484
-206.459
-184.552
-160.797
-135.265
-108.065
-79.3417
-49.2816
-18.1023
14.0754
46.6886
79.548
112.315
144.629
176.119
206.417
235.152
261.975
286.555
308.579
327.77
343.893
356.747
366.168
372.017
374.221
372.748
367.588
358.798
346.448
330.672
311.645
289.576
264.717
237.361
207.841
176.539
143.842
110.141
75.8505
41.3989
7.26354
-25.6998
-57.7696
-89.0348
-119.135
-147.732
-174.608
-199.613
-222.635
-243.611
-262.514
-279.344
-294.125
-306.903
-317.738
-326.702
-333.875
-339.343
-343.182
-345.473
-346.165
-345.435
-343.349
-339.95
-335.286
-329.39
-322.269
-313.929
-304.365
-293.548
-281.468
-268.097
-253.396
-237.343
-219.906
-201.058
-180.788
-159.1
-136.008
-111.569
-85.8605
-59.1007
-31.2177
-2.51298
26.8151
56.5087
86.3049
115.863
144.838
172.888
199.595
224.555
247.403
267.756
285.261
299.599
310.497
317.745
321.205
320.768
-44.6508
-71.8397
-99.4518
-126.363
-152.032
-176.227
-198.78
-219.624
-238.709
-256.024
-271.595
-285.449
-297.626
-308.175
-317.139
-324.562
-330.481
-334.927
-337.927
-339.488
-339.62
-338.174
-335.287
-330.932
-325.072
-317.675
-308.683
-298.052
-285.734
-271.676
-255.822
-238.135
-218.579
-197.148
-173.845
-148.686
-121.735
-93.0954
-62.8828
-31.2712
1.49586
35.0214
69.0574
103.522
138.03
172.149
205.448
237.539
267.986
296.373
322.338
345.528
365.636
382.402
395.594
405.046
410.642
412.291
409.432
402.598
391.912
377.491
359.519
338.255
313.981
287.007
257.707
226.463
193.673
159.753
125.119
90.1691
55.2671
20.789
-12.7685
-45.5288
-77.1416
-107.376
-136.043
-163.008
-188.154
-211.403
-232.702
-252.025
-269.361
-284.716
-298.108
-309.559
-319.109
-326.811
-332.717
-336.892
-339.401
-340.307
-339.689
-337.624
-334.162
-329.331
-323.174
-315.705
-306.899
-296.749
-285.225
-272.27
-257.854
-241.929
-224.448
-205.391
-184.732
-162.471
-138.628
-113.239
-86.3681
-58.1028
-28.5591
2.11624
33.7518
66.134
98.9833
132.026
164.94
197.369
228.922
259.188
287.74
314.148
337.992
358.876
376.439
390.368
400.407
406.365
408.122
405.618
398.92
388.122
373.381
354.931
333.062
308.111
280.464
250.538
218.775
185.639
151.593
117.095
82.5853
48.4672
15.1037
-17.2254
-48.2662
-77.8229
-105.761
-131.987
-156.452
-179.137
-200.051
-219.226
-236.701
-252.524
-266.744
-279.407
-290.56
-300.236
-308.47
-315.286
-320.699
-324.72
-327.352
-328.586
-328.419
-326.843
-323.829
-319.349
-313.381
-305.882
-296.825
-286.185
-273.903
-259.952
-244.303
-226.912
-207.759
-186.828
-164.125
-139.68
-113.546
-85.8104
-56.6002
-26.078
5.5353
38.2669
71.3498
104.739
138.069
170.968
203.048
233.914
263.169
290.42
315.285
337.403
356.445
372.12
384.177
392.427
396.74
397.038
393.311
385.643
374.121
358.914
340.241
318.372
293.611
266.302
236.824
205.57
172.954
139.397
105.313
71.1053
37.1485
3.78728
-28.6633
-59.9361
-89.8094
-118.108
-144.694
-169.476
-192.396
-213.434
-232.593
-249.892
-265.377
-279.106
-291.136
-301.537
-310.379
-317.719
-323.618
-328.13
-331.296
-333.129
-333.661
-332.892
-330.817
-327.412
-322.621
-316.398
-308.686
-299.409
-288.487
-275.848
-261.43
-245.18
-227.053
-207.036
-185.131
-161.37
-135.822
-108.595
-79.8337
-49.7244
-18.4826
13.7515
46.4496
79.401
112.268
144.688
176.287
206.696
235.542
262.472
287.153
309.27
328.547
344.745
357.66
367.127
373.005
375.224
373.752
368.575
359.75
347.353
331.515
312.411
290.252
265.29
237.824
208.187
176.766
143.948
110.125
75.7121
41.1424
6.90241
-26.0357
-58.186
-89.5276
-119.684
-148.32
-175.221
-200.238
-223.263
-244.234
-263.126
-279.939
-294.7
-307.455
-318.264
-327.202
-334.348
-339.788
-343.602
-345.875
-346.551
-345.803
-343.707
-340.299
-335.631
-329.733
-322.615
-314.28
-304.723
-293.917
-281.85
-268.492
-253.806
-237.767
-220.344
-201.508
-181.246
-159.562
-136.468
-112.016
-86.2877
-59.4929
-31.5718
-2.81752
26.571
56.337
86.2177
115.871
144.953
173.117
199.943
225.024
247.991
268.456
286.065
300.495
311.467
318.769
322.26
321.83
-45.137
-72.3934
-100.05
-126.993
-152.678
-176.879
-199.429
-220.263
-239.332
-256.628
-272.179
-286.011
-298.167
-308.695
-317.64
-325.048
-330.953
-335.388
-338.379
-339.938
-340.076
-338.634
-335.752
-331.409
-325.562
-318.183
-309.21
-298.6
-286.303
-272.267
-256.433
-238.766
-219.225
-197.805
-174.505
-149.343
-122.379
-93.716
-63.4659
-31.8032
1.02857
34.6291
68.7507
103.319
137.944
172.19
205.626
237.856
268.445
296.969
323.064
346.376
366.592
383.45
396.718
406.226
411.856
413.518
410.648
403.776
393.033
378.536
360.468
339.091
314.689
287.58
258.137
226.749
193.816
159.76
125.001
89.9351
54.9298
20.3689
-13.2611
-46.0838
-77.7464
-108.019
-136.713
-163.693
-188.847
-212.098
-233.392
-252.705
-270.029
-285.368
-298.742
-310.175
-319.704
-327.384
-333.267
-337.418
-339.902
-340.788
-340.151
-338.069
-334.594
-329.758
-323.6
-316.134
-307.337
-297.201
-285.694
-272.757
-258.361
-242.454
-224.99
-205.947
-185.298
-163.043
-139.199
-113.803
-86.9173
-58.6289
-29.0528
1.66622
33.356
65.8081
98.7399
131.878
164.903
197.456
229.144
259.554
288.255
314.813
338.803
359.822
377.506
391.535
401.649
407.655
409.429
406.918
400.178
389.309
374.474
355.909
333.908
308.812
281.011
250.925
219.003
185.712
151.52
116.887
82.2595
48.0418
14.5958
-17.7952
-48.8802
-78.4644
-106.415
-132.643
-157.098
-179.768
-200.661
-219.814
-237.264
-253.065
-267.263
-279.905
-291.041
-300.703
-308.926
-315.735
-321.142
-325.159
-327.792
-329.029
-328.867
-327.298
-324.294
-319.825
-313.87
-306.385
-297.344
-286.722
-274.457
-260.524
-244.892
-227.517
-208.378
-187.456
-164.756
-140.306
-114.158
-86.3976
-57.1504
-26.5779
5.10297
37.8989
71.0764
104.569
138.014
171.036
203.248
234.25
263.643
291.031
316.03
338.273
357.428
373.199
385.332
393.636
397.977
398.279
394.534
386.818
375.227
359.932
341.153
319.163
294.271
266.824
237.203
205.807
173.051
139.36
105.151
70.8307
36.7748
3.32921
-29.191
-60.5186
-90.432
-118.756
-145.358
-170.143
-193.058
-214.083
-233.223
-250.5
-265.96
-279.663
-291.667
-302.043
-310.86
-318.179
-324.061
-328.56
-331.714
-333.541
-334.073
-333.309
-331.243
-327.852
-323.08
-316.879
-309.192
-299.942
-289.049
-276.436
-262.042
-245.814
-227.704
-207.697
-185.794
-162.027
-136.46
-109.203
-80.3977
-50.2326
-18.9205
13.3813
46.1755
79.2317
112.213
144.754
176.479
207.015
235.987
263.039
287.837
310.061
329.436
345.719
358.704
368.223
374.135
376.372
374.9
369.704
360.839
348.389
332.479
313.287
291.025
265.945
238.352
208.583
177.025
144.068
110.105
75.553
40.847
6.48291
-26.4135
-58.6626
-90.093
-120.314
-148.994
-175.922
-200.953
-223.982
-244.948
-263.826
-280.62
-295.358
-308.086
-318.866
-327.774
-334.89
-340.299
-344.084
-346.334
-346.992
-346.223
-344.117
-340.698
-336.025
-330.125
-323.01
-314.681
-305.132
-294.339
-282.287
-268.943
-254.275
-238.253
-220.845
-202.023
-181.771
-160.091
-136.994
-112.528
-86.7779
-59.9416
-31.9775
-3.16707
26.2903
56.139
86.1164
115.88
145.083
173.379
200.341
225.559
248.662
269.257
286.985
301.52
312.577
319.941
323.469
323.047
-45.6856
-73.0179
-100.725
-127.702
-153.407
-177.614
-200.16
-220.983
-240.035
-257.309
-272.835
-286.643
-298.774
-309.28
-318.204
-325.593
-331.483
-335.905
-338.887
-340.444
-340.589
-339.151
-336.274
-331.945
-326.113
-318.753
-309.803
-299.216
-286.944
-272.932
-257.122
-239.476
-219.952
-198.544
-175.25
-150.083
-123.105
-94.4159
-64.1242
-32.4042
0.499719
34.1866
68.4041
103.087
137.844
172.235
205.823
238.212
268.96
297.639
323.883
347.33
367.669
384.631
397.983
407.554
413.225
414.903
412.018
405.104
394.296
379.713
361.536
340.031
315.487
288.224
258.62
227.069
193.976
159.767
124.866
89.6696
54.5471
19.8949
-13.8172
-46.7101
-78.4288
-108.744
-137.468
-164.466
-189.629
-212.881
-234.17
-253.472
-270.782
-286.103
-299.456
-310.868
-320.375
-328.028
-333.885
-338.009
-340.466
-341.328
-340.67
-338.57
-335.081
-330.237
-324.077
-316.616
-307.83
-297.709
-286.221
-273.305
-258.93
-243.045
-225.601
-206.573
-185.936
-163.687
-139.842
-114.438
-87.5364
-59.2223
-29.61
1.15779
32.9089
65.4394
98.4639
131.71
164.859
197.551
229.392
259.964
288.834
315.561
339.715
360.888
378.708
392.85
403.05
409.11
410.904
408.382
401.595
390.647
375.706
357.012
334.861
309.601
281.625
251.359
219.258
185.792
151.434
116.651
81.8901
47.5602
14.0216
-18.4389
-49.5732
-79.1883
-107.153
-133.382
-157.827
-180.478
-201.349
-220.475
-237.899
-253.672
-267.846
-280.466
-291.583
-301.229
-309.44
-316.239
-321.64
-325.653
-328.286
-329.527
-329.37
-327.81
-324.817
-320.361
-314.42
-306.951
-297.929
-287.325
-275.08
-261.167
-245.555
-228.199
-209.075
-188.163
-165.467
-141.011
-114.848
-87.0601
-57.7713
-27.1418
4.62199
37.4751
70.7659
104.376
137.95
171.112
203.471
234.627
264.176
291.719
316.868
339.252
358.535
374.414
386.634
394.998
399.372
399.678
395.911
388.142
376.473
361.078
342.18
320.054
295.014
267.411
237.63
206.072
173.158
139.316
104.966
70.5194
36.352
2.81159
-29.787
-61.1761