/*--------------------------------*- C++ -*----------------------------------*\
| =========                 |                                                 |
| \\      /  F ield         | OpenFOAM: The Open Source CFD Toolbox           |
|  \\    /   O peration     | Version:  3.0.1                                 |
|   \\  /    A nd           | Web:      www.OpenFOAM.org                      |
|    \\/     M anipulation  |                                                 |
\*---------------------------------------------------------------------------*/
FoamFile
{
    version     2.0;
    format      ascii;
    class       surfaceScalarField;
    location    "38.6";
    object      alphaPhi;
}
// * * * * * * * * * * * * * * * * * * * * * * * * * * * * * * * * * * * * * //

dimensions      [0 3 -1 0 0 0 0];

internalField   nonuniform List<scalar> 
42423
(
0.000261419
2.67994e-06
0.000256829
4.59007e-06
0.000250019
6.80942e-06
0.000240996
9.02323e-06
0.000230198
1.07982e-05
0.000217586
1.26115e-05
0.000203542
1.40447e-05
0.000188204
1.53376e-05
0.000171668
1.6536e-05
0.000154369
1.72989e-05
0.000136468
1.79009e-05
0.000118185
1.82828e-05
9.98499e-05
1.83354e-05
8.16155e-05
1.82344e-05
6.36915e-05
1.7924e-05
4.6216e-05
1.74755e-05
2.93276e-05
1.68883e-05
1.31698e-05
1.61578e-05
-2.1449e-06
1.53147e-05
-1.66587e-05
1.45138e-05
-3.0282e-05
1.36233e-05
-4.29862e-05
1.27042e-05
-5.4755e-05
1.17688e-05
-6.55897e-05
1.08346e-05
-7.55212e-05
9.93156e-06
-8.4551e-05
9.02983e-06
-9.27278e-05
8.17679e-06
-0.000100059
7.33131e-06
-0.000106574
6.51493e-06
-0.000112322
5.74766e-06
-0.000117311
4.98898e-06
-0.000121562
4.25098e-06
-0.00012513
3.56823e-06
-0.000128006
2.87566e-06
-0.000130226
2.21996e-06
-0.000131809
1.58319e-06
-0.000132783
9.74027e-07
-0.000133138
3.55368e-07
-0.000132824
-3.1405e-07
-0.000131835
-9.88863e-07
-0.00013024
-1.59511e-06
-0.000127951
-2.28936e-06
-0.000124993
-2.95795e-06
-0.000121334
-3.65867e-06
-0.000116968
-4.36571e-06
-0.000111855
-5.11329e-06
-0.000106027
-5.82832e-06
-9.93887e-05
-6.63818e-06
-9.18815e-05
-7.50722e-06
-8.36953e-05
-8.1862e-06
-7.44946e-05
-9.20073e-06
-6.44818e-05
-1.00128e-05
-5.34827e-05
-1.09991e-05
-4.14794e-05
-1.20033e-05
-2.86967e-05
-1.27827e-05
-1.49106e-05
-1.37861e-05
-1.5024e-07
-1.47604e-05
1.51433e-05
-1.52936e-05
3.12605e-05
-1.61172e-05
4.79886e-05
-1.67282e-05
6.52823e-05
-1.72936e-05
8.30787e-05
-1.77965e-05
0.000101042
-1.79632e-05
0.000119047
-1.80049e-05
0.000137061
-1.8014e-05
0.000154666
-1.76054e-05
0.000171792
-1.71264e-05
0.000188141
-1.63487e-05
0.000203547
-1.54058e-05
0.000217847
-1.43003e-05
0.000230652
-1.2805e-05
0.000241831
-1.11789e-05
0.000251175
-9.34402e-06
0.000258381
-7.20578e-06
0.000263373
-4.99249e-06
0.000265985
-2.61156e-06
0.000266301
-3.15614e-07
0.000264503
1.7978e-06
0.000260207
4.29619e-06
0.000253561
6.64615e-06
0.000244795
8.76571e-06
0.000234009
1.07856e-05
0.000221499
1.2511e-05
0.000207532
1.39666e-05
0.000192347
1.51856e-05
0.000176278
1.60691e-05
0.000159661
1.66171e-05
0.00014264
1.70205e-05
0.000125533
1.7108e-05
0.000108558
1.69747e-05
9.15682e-05
1.69898e-05
7.48699e-05
1.66984e-05
5.83455e-05
1.65244e-05
4.20866e-05
1.6259e-05
2.60973e-05
1.59893e-05
1.05022e-05
1.55951e-05
-4.65715e-06
1.51594e-05
-1.92466e-05
1.45895e-05
-3.31744e-05
1.39278e-05
-4.63038e-05
1.31294e-05
-5.86346e-05
1.23309e-05
-7.00979e-05
1.14632e-05
-8.05609e-05
1.0463e-05
-9.0059e-05
9.49806e-06
-9.85723e-05
8.51325e-06
-0.000106073
7.50107e-06
-0.000112594
6.52038e-06
-0.000118313
5.71964e-06
-0.000123081
4.76769e-06
-0.00012701
3.92859e-06
-0.000130096
3.08643e-06
-0.000132416
2.31984e-06
-0.000133959
1.54269e-06
-0.000134709
7.50479e-07
-0.000134884
1.74359e-07
-0.000134287
-5.9636e-07
-0.000132996
-1.29092e-06
-0.000131024
-1.97223e-06
-0.000128361
-2.66292e-06
-0.000124952
-3.40926e-06
-0.000120995
-3.9565e-06
-0.000116269
-4.72666e-06
-0.000110827
-5.44145e-06
-0.000104701
-6.12649e-06
-9.78365e-05
-6.86443e-06
-9.01954e-05
-7.64116e-06
-8.17753e-05
-8.42019e-06
-7.26045e-05
-9.17086e-06
-6.26474e-05
-9.95709e-06
-5.18799e-05
-1.07675e-05
-4.03044e-05
-1.15756e-05
-2.79065e-05
-1.2398e-05
-1.47205e-05
-1.31861e-05
-7.73171e-07
-1.39473e-05
1.39789e-05
-1.47522e-05
2.94738e-05
-1.54949e-05
4.55632e-05
-1.60895e-05
6.22161e-05
-1.66529e-05
7.93125e-05
-1.70965e-05
9.66837e-05
-1.73712e-05
0.000114232
-1.75482e-05
0.000131708
-1.74767e-05
0.000148954
-1.72457e-05
0.000165687
-1.67334e-05
0.000181676
-1.5989e-05
0.000196686
-1.50096e-05
0.000210474
-1.37886e-05
0.000222751
-1.22768e-05
0.000233279
-1.05281e-05
0.000241834
-8.55514e-06
0.000248217
-6.38289e-06
0.000252261
-4.04461e-06
0.000253813
-1.55177e-06
0.000252895
9.18221e-07
0.000249401
3.49377e-06
0.000243291
6.11017e-06
0.000234805
8.48609e-06
0.000223963
1.08414e-05
0.000211037
1.2926e-05
0.000196185
1.48521e-05
0.00017969
1.6495e-05
0.000161812
1.78786e-05
0.000142841
1.8971e-05
0.000123138
1.97023e-05
0.000103008
2.01304e-05
8.27087e-05
2.02991e-05
6.25585e-05
2.01501e-05
4.27999e-05
1.97586e-05
2.36581e-05
1.91419e-05
5.29178e-06
1.83663e-05
-1.22407e-05
1.75325e-05
-2.8734e-05
1.64932e-05
-4.41125e-05
1.53785e-05
-5.83584e-05
1.4246e-05
-7.13076e-05
1.29491e-05
-8.30833e-05
1.17757e-05
-9.36567e-05
1.05734e-05
-0.000103061
9.40431e-06
-0.00011142
8.35919e-06
-0.0001187
7.27966e-06
-0.000124983
6.28281e-06
-0.000130284
5.30134e-06
-0.000134747
4.46254e-06
-0.000138407
3.66021e-06
-0.000141241
2.83407e-06
-0.000143365
2.12391e-06
-0.000144816
1.45136e-06
-0.000145632
8.16137e-07
-0.000145841
2.08445e-07
-0.000145327
-5.13615e-07
-0.00014416
-1.16689e-06
-0.000142327
-1.83338e-06
-0.000139849
-2.47782e-06
-0.000136647
-3.20174e-06
-0.000132719
-3.9281e-06
-0.00012818
-4.5388e-06
-0.000122959
-5.2218e-06
-0.000117054
-5.90486e-06
-0.00011055
-6.50429e-06
-0.000103325
-7.2245e-06
-9.53681e-05
-7.9571e-06
-8.66954e-05
-8.67274e-06
-7.72338e-05
-9.46158e-06
-6.69708e-05
-1.0263e-05
-5.58953e-05
-1.10756e-05
-4.40169e-05
-1.18784e-05
-3.14321e-05
-1.25849e-05
-1.80519e-05
-1.33802e-05
-3.94023e-06
-1.41117e-05
1.08001e-05
-1.47404e-05
2.62277e-05
-1.54276e-05
4.22316e-05
-1.60039e-05
5.86897e-05
-1.64582e-05
7.5475e-05
-1.67853e-05
9.24559e-05
-1.69809e-05
0.000109479
-1.70235e-05
0.000126276
-1.67967e-05
0.000142707
-1.64314e-05
0.000158505
-1.57977e-05
0.000173404
-1.48988e-05
0.000187081
-1.36776e-05
0.000199281
-1.21998e-05
0.00020971
-1.04288e-05
0.000218124
-8.41412e-06
0.000224359
-6.23567e-06
0.000228209
-3.84965e-06
0.000229627
-1.41808e-06
0.000228511
1.11633e-06
0.000224781
3.72974e-06
0.000218506
6.27498e-06
0.000209856
8.64953e-06
0.00019892
1.09367e-05
0.000185982
1.29379e-05
0.000171285
1.46967e-05
0.000155106
1.61793e-05
0.000137779
1.73266e-05
0.000119563
1.82155e-05
0.000100786
1.87778e-05
8.17128e-05
1.90729e-05
6.27043e-05
1.90084e-05
4.39192e-05
1.87851e-05
2.56467e-05
1.82725e-05
8.05022e-06
1.75965e-05
-8.73541e-06
1.67856e-05
-2.45629e-05
1.58275e-05
-3.93905e-05
1.48275e-05
-5.31389e-05
1.37485e-05
-6.57614e-05
1.26225e-05
-7.72674e-05
1.1506e-05
-8.76545e-05
1.03871e-05
-9.69766e-05
9.32212e-06
-0.0001054
8.42393e-06
-0.000112819
7.41877e-06
-0.000119324
6.50479e-06
-0.000124981
5.65683e-06
-0.00012985
4.86942e-06
-0.000133956
4.1058e-06
-0.000137385
3.42847e-06
-0.000140138
2.75311e-06
-0.0001423
2.16224e-06
-0.000144017
1.71742e-06
-0.000145173
1.15558e-06
-0.000145828
6.55646e-07
-0.000146059
2.3086e-07
-0.000145779
-2.80356e-07
-0.000144999
-7.79419e-07
-0.000143596
-1.40305e-06
-0.000141516
-2.07977e-06
-0.00013875
-2.76615e-06
-0.000135099
-3.65139e-06
-0.000130513
-4.58576e-06
-0.000124846
-5.66676e-06
-0.000118084
-6.76154e-06
-0.000110176
-7.90872e-06
-0.000101136
-9.03984e-06
-9.1036e-05
-1.00997e-05
-7.9681e-05
-1.1355e-05
-6.71527e-05
-1.25282e-05
-5.37343e-05
-1.34185e-05
-3.93589e-05
-1.43754e-05
-2.42508e-05
-1.51081e-05
-8.55806e-06
-1.56928e-05
7.54014e-06
-1.60982e-05
2.47728e-05
-1.72327e-05
4.26364e-05
-1.78635e-05
6.11111e-05
-1.84748e-05
7.9751e-05
-1.86399e-05
9.85771e-05
-1.88261e-05
0.000117285
-1.87077e-05
0.000135738
-1.8453e-05
0.000153871
-1.8133e-05
0.000171278
-1.74069e-05
0.000187784
-1.6506e-05
0.000203228
-1.54445e-05
0.000217175
-1.39466e-05
0.000229469
-1.22946e-05
0.000239891
-1.04213e-05
0.000248051
-8.16082e-06
0.000253888
-5.83645e-06
0.000257094
-3.20618e-06
0.000257634
-5.3993e-07
0.000255955
1.67916e-06
0.000251883
4.07203e-06
0.000245753
6.12947e-06
0.000237494
8.25866e-06
0.000227088
1.04063e-05
0.000215019
1.20691e-05
0.000201298
1.37208e-05
0.000186391
1.49071e-05
0.000170384
1.60076e-05
0.000153428
1.69553e-05
0.000136004
1.74244e-05
0.000118177
1.78265e-05
0.000100116
1.80615e-05
8.21868e-05
1.79291e-05
6.44056e-05
1.77812e-05
4.71353e-05
1.72703e-05
3.03067e-05
1.68286e-05
1.40271e-05
1.62796e-05
-1.36073e-06
1.53878e-05
-1.60865e-05
1.47258e-05
-2.99974e-05
1.39109e-05
-4.30262e-05
1.30288e-05
-5.51978e-05
1.21716e-05
-6.64885e-05
1.12907e-05
-7.69414e-05
1.04529e-05
-8.65518e-05
9.6104e-06
-9.53463e-05
8.79452e-06
-0.000103355
8.00862e-06
-0.00011058
7.22545e-06
-0.000117013
6.43265e-06
-0.000122678
5.66479e-06
-0.000127568
4.89071e-06
-0.000131679
4.11045e-06
-0.000135003
3.3238e-06
-0.000137541
2.53842e-06
-0.000139276
1.73531e-06
-0.000140215
9.38229e-07
-0.000140321
1.06541e-07
-0.000139535
-7.86031e-07
-0.000137914
-1.62144e-06
-0.000135415
-2.49829e-06
-0.000132121
-3.29468e-06
-0.00012794
-4.1808e-06
-0.000122938
-5.00151e-06
-0.000117187
-5.75123e-06
-0.000110543
-6.64394e-06
-0.000103082
-7.4612e-06
-9.48648e-05
-8.21732e-06
-8.57868e-05
-9.07796e-06
-7.59527e-05
-9.8341e-06
-6.5247e-05
-1.07057e-05
-5.38481e-05
-1.13989e-05
-4.17445e-05
-1.21036e-05
-2.87461e-05
-1.29984e-05
-1.49556e-05
-1.37905e-05
-1.46308e-05
0.000261512
5.3588e-06
0.000256922
9.17959e-06
0.000250111
1.36209e-05
0.000241083
1.80511e-05
0.00023028
2.16016e-05
0.000217661
2.52302e-05
0.000203608
2.80974e-05
0.000188262
3.06841e-05
0.000171714
3.3084e-05
0.000154406
3.4607e-05
0.000136492
3.58143e-05
0.000118202
3.65727e-05
9.98559e-05
3.66818e-05
8.16123e-05
3.6478e-05
6.36804e-05
3.58559e-05
4.61983e-05
3.49576e-05
2.93044e-05
3.37822e-05
1.3141e-05
3.23212e-05
-2.17589e-06
3.06316e-05
-1.66929e-05
2.90308e-05
-3.0318e-05
2.72484e-05
-4.30247e-05
2.5411e-05
-5.47944e-05
2.35385e-05
-6.56288e-05
2.1669e-05
-7.5561e-05
1.98638e-05
-8.45917e-05
1.80605e-05
-9.27687e-05
1.63538e-05
-0.000100101
1.46638e-05
-0.000106619
1.30326e-05
-0.000112366
1.14952e-05
-0.000117356
9.97834e-06
-0.00012161
8.50488e-06
-0.000125175
7.13373e-06
-0.000128049
5.74895e-06
-0.000130269
4.44017e-06
-0.000131856
3.17054e-06
-0.000132827
1.94517e-06
-0.000133177
7.05399e-07
-0.000132866
-6.25468e-07
-0.000131878
-1.97689e-06
-0.000130296
-3.17671e-06
-0.000127996
-4.58964e-06
-0.000125033
-5.9211e-06
-0.000121381
-7.31054e-06
-0.000117019
-8.7281e-06
-0.000111902
-1.02302e-05
-0.000106079
-1.16511e-05
-9.94426e-05
-1.32745e-05
-9.19347e-05
-1.50152e-05
-8.3742e-05
-1.63788e-05
-7.45396e-05
-1.84032e-05
-6.4525e-05
-2.00274e-05
-5.35188e-05
-2.20052e-05
-4.15341e-05
-2.39881e-05
-2.87505e-05
-2.55664e-05
-1.49628e-05
-2.75738e-05
-1.97856e-07
-2.95254e-05
1.50978e-05
-3.05893e-05
3.12214e-05
-3.22407e-05
4.79565e-05
-3.34634e-05
6.52583e-05
-3.45955e-05
8.30652e-05
-3.56034e-05
0.00010104
-3.59382e-05
0.000119057
-3.6022e-05
0.000137085
-3.60415e-05
0.000154704
-3.5225e-05
0.00017185
-3.42724e-05
0.000188216
-3.27146e-05
0.000203641
-3.08311e-05
0.000217958
-2.86165e-05
0.000230766
-2.56136e-05
0.000241955
-2.23677e-05
0.000251319
-1.87082e-05
0.000258562
-1.44489e-05
0.000263583
-1.00128e-05
0.000266185
-5.21427e-06
0.000266486
-6.16576e-07
0.000264682
3.60216e-06
0.000260385
8.59361e-06
0.000253746
1.32853e-05
0.000244981
1.75299e-05
0.000234197
2.15707e-05
0.000221684
2.50235e-05
0.000207713
2.79375e-05
0.000192517
3.03821e-05
0.000176443
3.21434e-05
0.000159802
3.32587e-05
0.000142758
3.40649e-05
0.00012563
3.42358e-05
0.000108642
3.39627e-05
9.16317e-05
3.40006e-05
7.49143e-05
3.34159e-05
5.83684e-05
3.30704e-05
4.20902e-05
3.25372e-05
2.60784e-05
3.20013e-05
1.04785e-05
3.1195e-05
-4.69562e-06
3.03335e-05
-1.92913e-05
2.91852e-05
-3.32397e-05
2.78763e-05
-4.63891e-05
2.62788e-05
-5.87185e-05
2.46603e-05
-7.01702e-05
2.2915e-05
-8.06521e-05
2.09449e-05
-9.01536e-05
1.89997e-05
-9.86617e-05
1.70213e-05
-0.000106159
1.49988e-05
-0.000112698
1.30594e-05
-0.00011839
1.14115e-05
-0.00012315
9.5273e-06
-0.000127073
7.85141e-06
-0.00013016
6.17357e-06
-0.000132483
4.64273e-06
-0.000134027
3.08648e-06
-0.000134787
1.51079e-06
-0.000134945
3.32006e-07
-0.000134351
-1.19037e-06
-0.000133057
-2.58407e-06
-0.000131081
-3.94886e-06
-0.00012842
-5.32415e-06
-0.000125013
-6.81564e-06
-0.000121051
-7.91922e-06
-0.000116334
-9.44316e-06
-0.000110903
-1.08726e-05
-0.000104764
-1.22657e-05
-9.79033e-05
-1.3725e-05
-9.02708e-05
-1.52737e-05
-8.18624e-05
-1.68286e-05
-7.26852e-05
-1.83481e-05
-6.2731e-05
-1.99114e-05
-5.19637e-05
-2.15348e-05
-4.03943e-05
-2.3145e-05
-2.79998e-05
-2.47925e-05
-1.48057e-05
-2.63802e-05
-8.43962e-07
-2.79091e-05
1.39061e-05
-2.95022e-05
2.93901e-05
-3.0979e-05
4.54873e-05
-3.21867e-05
6.215e-05
-3.33157e-05
7.92521e-05
-3.41987e-05
9.66365e-05
-3.47556e-05
0.0001142
-3.51118e-05
0.000131677
-3.49535e-05
0.00014894
-3.45086e-05
0.000165688
-3.3482e-05
0.000181685
-3.19864e-05
0.000196713
-3.00374e-05
0.000210512
-2.75871e-05
0.000222817
-2.45825e-05
0.000233336
-2.10474e-05
0.000241911
-1.71296e-05
0.000248283
-1.27555e-05
0.000252331
-8.09202e-06
0.000253895
-3.11586e-06
0.000252966
1.84674e-06
0.000249467
6.99303e-06
0.000243354
1.22225e-05
0.000234863
1.69775e-05
0.00022401
2.16945e-05
0.000211068
2.58678e-05
0.000196201
2.97193e-05
0.0001797
3.29955e-05
0.000161843
3.57357e-05
0.000142822
3.79915e-05
0.000123108
3.94167e-05
0.000102976
4.02626e-05
8.26643e-05
4.06107e-05
6.24957e-05
4.03188e-05
4.27329e-05
3.95215e-05
2.35746e-05
3.83001e-05
5.18511e-06
3.67559e-05
-1.23207e-05
3.50384e-05
-2.8822e-05
3.29945e-05
-4.4199e-05
3.07555e-05
-5.84429e-05
2.849e-05
-7.14063e-05
2.59125e-05
-8.31812e-05
2.35507e-05
-9.37614e-05
2.11537e-05
-0.000103171
1.88137e-05
-0.00011151
1.66981e-05
-0.000118785
1.45547e-05
-0.00012507
1.25685e-05
-0.000130378
1.06095e-05
-0.000134816
8.90002e-06
-0.00013847
7.31403e-06
-0.000141303
5.6674e-06
-0.000143426
4.24686e-06
-0.000144878
2.90385e-06
-0.000145693
1.63089e-06
-0.000145897
4.12658e-07
-0.000145388
-1.0233e-06
-0.000144225
-2.33011e-06
-0.00014239
-3.66813e-06
-0.000139904
-4.96408e-06
-0.000136715
-6.39033e-06
-0.000132786
-7.85711e-06
-0.000128247
-9.07785e-06
-0.000123015
-1.0454e-05
-0.000117129
-1.17905e-05
-0.000110624
-1.30096e-05
-0.000103406
-1.44423e-05
-9.54595e-05
-1.59038e-05
-8.67763e-05
-1.73559e-05
-7.73105e-05
-1.89275e-05
-6.70541e-05
-2.05194e-05
-5.59914e-05
-2.21382e-05
-4.4119e-05
-2.37508e-05
-3.15111e-05
-2.51928e-05
-1.81349e-05
-2.67565e-05
-4.04984e-06
-2.81968e-05
1.07333e-05
-2.95236e-05
2.61508e-05
-3.08452e-05
4.21705e-05
-3.20236e-05
5.86279e-05
-3.29156e-05
7.54283e-05
-3.35858e-05
9.24162e-05
-3.39688e-05
0.000109445
-3.40522e-05
0.00012626
-3.36116e-05
0.000142707
-3.28786e-05
0.000158515
-3.16058e-05
0.00017344
-2.98239e-05
0.000187105
-2.73432e-05
0.000199315
-2.44091e-05
0.000209762
-2.08762e-05
0.000218183
-1.68348e-05
0.000224436
-1.24889e-05
0.000228294
-7.70756e-06
0.000229731
-2.85539e-06
0.000228576
2.27164e-06
0.000224844
7.46131e-06
0.000218562
1.25568e-05
0.000209909
1.73026e-05
0.000198958
2.18882e-05
0.00018601
2.58858e-05
0.000171303
2.94033e-05
0.000155107
3.23754e-05
0.000137757
3.46763e-05
0.000119526
3.64473e-05
0.000100751
3.75528e-05
8.16644e-05
3.81592e-05
6.26386e-05
3.80342e-05
4.38521e-05
3.75717e-05
2.55613e-05
3.65633e-05
7.9437e-06
3.52141e-05
-8.82791e-06
3.35573e-05
-2.46518e-05
3.16514e-05
-3.9477e-05
2.96527e-05
-5.3235e-05
2.75065e-05
-6.58591e-05
2.52466e-05
-7.73622e-05
2.30092e-05
-8.7749e-05
2.07739e-05
-9.7067e-05
1.86401e-05
-0.000105488
1.68452e-05
-0.000112901
1.48318e-05
-0.000119405
1.30088e-05
-0.000125061
1.13123e-05
-0.000129923
9.73172e-06
-0.000134023
8.20583e-06
-0.000137449
6.8549e-06
-0.000140199
5.50292e-06
-0.000142367
4.32967e-06
-0.000144055
3.40599e-06
-0.00014522
2.32092e-06
-0.000145871
1.30661e-06
-0.000146098
4.57348e-07
-0.000145812
-5.66436e-07
-0.000145029
-1.56239e-06
-0.000143632
-2.79988e-06
-0.000141548
-4.16387e-06
-0.000138779
-5.53459e-06
-0.000135133
-7.29736e-06
-0.000130554
-9.16511e-06
-0.000124894
-1.13258e-05
-0.000118137
-1.35186e-05
-0.000110235
-1.58114e-05
-0.000101208
-1.80664e-05
-9.1114e-05
-2.01936e-05
-7.97681e-05
-2.27008e-05
-6.72481e-05
-2.50482e-05
-5.38385e-05
-2.68281e-05
-3.94691e-05
-2.87448e-05
-2.43666e-05
-3.02106e-05
-8.71056e-06
-3.13488e-05
7.42483e-06
-3.22337e-05
2.46654e-05
-3.44734e-05
4.25341e-05
-3.57322e-05
6.10139e-05
-3.69547e-05
7.96627e-05
-3.72887e-05
9.85018e-05
-3.76654e-05
0.000117223
-3.74291e-05
0.000135686
-3.69155e-05
0.000153832
-3.62796e-05
0.000171254
-3.48291e-05
0.00018777
-3.30216e-05
0.000203233
-3.0908e-05
0.000217193
-2.7906e-05
0.000229484
-2.45863e-05
0.000239872
-2.0809e-05
0.000248009
-1.62985e-05
0.000253891
-1.17179e-05
0.000257128
-6.443e-06
0.000257676
-1.08885e-06
0.000256012
3.34317e-06
0.000251963
8.12111e-06
0.000245843
1.22498e-05
0.000237581
1.65207e-05
0.000227168
2.08193e-05
0.00021509
2.41464e-05
0.00020136
2.74508e-05
0.000186444
2.98232e-05
0.000170427
3.20248e-05
0.000153462
3.39201e-05
0.000136028
3.48579e-05
0.000118193
3.56616e-05
0.000100124
3.61313e-05
8.21874e-05
3.58653e-05
6.43978e-05
3.55708e-05
4.71217e-05
3.45464e-05
3.02888e-05
3.36614e-05
1.40059e-05
3.25624e-05
-1.38757e-06
3.07814e-05
-1.61165e-05
2.94547e-05
-3.00304e-05
2.78248e-05
-4.3062e-05
2.60605e-05
-5.52347e-05
2.43442e-05
-6.65247e-05
2.25808e-05
-7.6977e-05
2.09051e-05
-8.65952e-05
1.92286e-05
-9.5393e-05
1.75923e-05
-0.000103401
1.6017e-05
-0.000110627
1.44509e-05
-0.00011706
1.28657e-05
-0.000122723
1.13279e-05
-0.000127612
9.78e-06
-0.000131723
8.22113e-06
-0.000135049
6.64978e-06
-0.000137585
5.07462e-06
-0.000139324
3.47416e-06
-0.000140265
1.87933e-06
-0.00014037
2.11873e-07
-0.000139582
-1.57397e-06
-0.000137963
-3.2408e-06
-0.000135462
-4.9994e-06
-0.000132169
-6.58781e-06
-0.000127985
-8.3651e-06
-0.000122978
-1.00076e-05
-0.000117229
-1.15003e-05
-0.000110584
-1.3289e-05
-0.000103121
-1.49241e-05
-9.49028e-05
-1.6436e-05
-8.582e-05
-1.81608e-05
-7.59837e-05
-1.96704e-05
-6.52772e-05
-2.14123e-05
-5.38766e-05
-2.27995e-05
-4.17716e-05
-2.42086e-05
-2.87715e-05
-2.59985e-05
-1.49787e-05
-2.75833e-05
-2.92623e-05
0.000261691
8.04221e-06
0.000257095
1.3776e-05
0.000250274
2.0442e-05
0.000241233
2.70916e-05
0.000230415
3.24195e-05
0.00021778
3.78657e-05
0.000203709
4.21682e-05
0.000188344
4.60492e-05
0.000171774
4.96536e-05
0.00015445
5.19317e-05
0.000136515
5.37487e-05
0.000118215
5.48729e-05
9.985e-05
5.50467e-05
8.15914e-05
5.47366e-05
6.36469e-05
5.38003e-05
4.61545e-05
5.24501e-05
2.92523e-05
5.06844e-05
1.30807e-05
4.84928e-05
-2.24399e-06
4.59564e-05
-1.67659e-05
4.35527e-05
-3.03933e-05
4.08757e-05
-4.31014e-05
3.8119e-05
-5.48718e-05
3.53089e-05
-6.57056e-05
3.25029e-05
-7.56365e-05
2.97947e-05
-8.46656e-05
2.70896e-05
-9.28413e-05
2.45295e-05
-0.000100174
2.19963e-05
-0.000106686
1.95446e-05
-0.000112434
1.72432e-05
-0.000117426
1.49704e-05
-0.000121685
1.27638e-05
-0.000125242
1.06908e-05
-0.000128117
8.62457e-06
-0.000130339
6.66221e-06
-0.000131938
4.76959e-06
-0.000132901
2.90724e-06
-0.000133232
1.03671e-06
-0.000132916
-9.41016e-07
-0.000131929
-2.96407e-06
-0.000130356
-4.74936e-06
-0.00012805
-6.89584e-06
-0.000125081
-8.89033e-06
-0.000121437
-1.0955e-05
-0.00011708
-1.30848e-05
-0.000111959
-1.53506e-05
-0.000106144
-1.74666e-05
-9.95118e-05
-1.99067e-05
-9.2006e-05
-2.25211e-05
-8.3804e-05
-2.45808e-05
-7.46011e-05
-2.76062e-05
-6.45846e-05
-3.00439e-05
-5.35731e-05
-3.30168e-05
-4.161e-05
-3.59513e-05
-2.88256e-05
-3.83507e-05
-1.50361e-05
-4.13633e-05
-2.57963e-07
-4.43036e-05
1.50394e-05
-4.58867e-05
3.11748e-05
-4.83762e-05
4.79211e-05
-5.02097e-05
6.52355e-05
-5.19099e-05
8.30587e-05
-5.34265e-05
0.000101048
-5.39279e-05
0.000119081
-5.40549e-05
0.000137128
-5.40886e-05
0.000154772
-5.28686e-05
0.000171934
-5.14342e-05
0.00018832
-4.91015e-05
0.000203775
-4.62861e-05
0.000218127
-4.2968e-05
0.000230976
-3.84633e-05
0.000242204
-3.35947e-05
0.000251594
-2.8099e-05
0.000258853
-2.17079e-05
0.000263912
-1.50719e-05
0.000266559
-7.86077e-06
0.000266821
-8.78262e-07
0.000264951
5.47182e-06
0.000260642
1.29032e-05
0.000254011
1.9916e-05
0.000245245
2.62959e-05
0.000234462
3.2354e-05
0.000221947
3.75386e-05
0.000207969
4.19158e-05
0.00019276
4.55917e-05
0.000176683
4.82198e-05
0.00016001
4.99322e-05
0.000142946
5.11295e-05
0.000125796
5.13853e-05
0.000108761
5.09983e-05
9.17172e-05
5.10445e-05
7.49696e-05
5.01636e-05
5.83864e-05
4.96536e-05
4.20801e-05
4.88436e-05
2.60377e-05
4.80437e-05
1.04266e-05
4.68061e-05
-4.7789e-06
4.55391e-05
-1.93842e-05
4.37905e-05
-3.33636e-05
4.18557e-05
-4.65275e-05
3.94427e-05
-5.88936e-05
3.70264e-05
-7.0302e-05
3.43234e-05
-8.08305e-05
3.14734e-05
-9.03241e-05
2.84932e-05
-9.88369e-05
2.55341e-05
-0.000106334
2.24959e-05
-0.000112885
1.96109e-05
-0.000118525
1.7051e-05
-0.000123306
1.43081e-05
-0.000127224
1.17699e-05
-0.000130303
9.25185e-06
-0.000132626
6.96627e-06
-0.000134172
4.63196e-06
-0.000134976
2.31555e-06
-0.00013509
4.4576e-07
-0.000134491
-1.78965e-06
-0.000133197
-3.87838e-06
-0.000131217
-5.92811e-06
-0.000128557
-7.98512e-06
-0.000125206
-1.01659e-05
-0.000121186
-1.19398e-05
-0.00011647
-1.41587e-05
-0.000111054
-1.62892e-05
-0.00010491
-1.84091e-05
-9.80454e-05
-2.05898e-05
-9.04106e-05
-2.29084e-05
-8.20143e-05
-2.5225e-05
-7.28409e-05
-2.75214e-05
-6.28815e-05
-2.98709e-05
-5.21216e-05
-3.22947e-05
-4.05532e-05
-3.47135e-05
-2.81524e-05
-3.71934e-05
-1.49522e-05
-3.95804e-05
-9.78636e-07
-4.18827e-05
1.37788e-05
-4.42597e-05
2.92601e-05
-4.64603e-05
4.53735e-05
-4.83002e-05
6.20494e-05
-4.99916e-05
7.91645e-05
-5.13139e-05
9.65661e-05
-5.21572e-05
0.000114138
-5.26841e-05
0.000131636
-5.24511e-05
0.000148898
-5.17711e-05
0.000165688
-5.02719e-05
0.000181705
-4.80032e-05
0.000196745
-4.50774e-05
0.000210583
-4.14257e-05
0.000222898
-3.68971e-05
0.000233423
-3.15723e-05
0.000242026
-2.57328e-05
0.000248405
-1.91345e-05
0.000252466
-1.21528e-05
0.000254042
-4.69257e-06
0.000253083
2.8058e-06
0.000249568
1.05078e-05
0.000243465
1.83257e-05
0.000234944
2.54983e-05
0.000224093
3.25453e-05
0.000211127
3.88341e-05
0.000196241
4.46049e-05
0.000179722
4.95145e-05
0.000161813
5.36453e-05
0.0001428
5.70044e-05
0.000123068
5.9148e-05
0.000102903
6.04276e-05
8.25875e-05
6.09267e-05
6.23966e-05
6.05098e-05
4.26247e-05
5.92933e-05
2.34476e-05
5.74773e-05
5.02915e-06
5.51743e-05
-1.24413e-05
5.25088e-05
-2.8964e-05
4.95173e-05
-4.43634e-05
4.61549e-05
-5.85852e-05
4.27118e-05
-7.15883e-05
3.89157e-05
-8.33902e-05
3.53526e-05
-9.39593e-05
3.17228e-05
-0.000103382
2.82363e-05
-0.000111686
2.50023e-05
-0.000118952
2.18209e-05
-0.000125235
1.88507e-05
-0.000130554
1.59287e-05
-0.000134966
1.33121e-05
-0.00013861
1.09576e-05
-0.000141451
8.50841e-06
-0.000143569
6.36531e-06
-0.000145021
4.35577e-06
-0.000145829
2.4393e-06
-0.000146022
6.05201e-07
-0.000145533
-1.5123e-06
-0.000144426
-3.43684e-06
-0.000142552
-5.54274e-06
-0.000140014
-7.50189e-06
-0.000136857
-9.54751e-06
-0.000132928
-1.1786e-05
-0.000128389
-1.36164e-05
-0.000123119
-1.57247e-05
-0.000117284
-1.76252e-05
-0.000110766
-1.9527e-05
-0.000103549
-2.16602e-05
-9.56034e-05
-2.3849e-05
-8.69112e-05
-2.60481e-05
-7.74565e-05
-2.83821e-05
-6.72006e-05
-3.07754e-05
-5.61451e-05
-3.31937e-05
-4.43123e-05
-3.55837e-05
-3.16527e-05
-3.78524e-05
-1.82736e-05
-4.01355e-05
-4.19783e-06
-4.22726e-05
1.0609e-05
-4.43305e-05
2.60363e-05
-4.62725e-05
4.20726e-05
-4.806e-05
5.85484e-05
-4.93914e-05
7.53715e-05
-5.04089e-05
9.23612e-05
-5.09586e-05
0.000109388
-5.10788e-05
0.00012623
-5.04535e-05
0.000142687
-4.93356e-05
0.000158517
-4.74364e-05
0.000173473
-4.47798e-05
0.00018716
-4.10299e-05
0.000199396
-3.66456e-05
0.000209832
-3.13121e-05
0.000218315
-2.53174e-05
0.000224559
-1.87335e-05
0.000228448
-1.15965e-05
0.000229871
-4.27772e-06
0.00022869
3.45227e-06
0.000224956
1.11953e-05
0.000218676
1.88369e-05
0.00021002
2.59582e-05
0.000199036
3.28719e-05
0.000186059
3.88635e-05
0.000171328
4.41341e-05
0.000155115
4.85883e-05
0.000137739
5.20517e-05
0.000119481
5.47061e-05
0.000100697
5.63364e-05
8.16006e-05
5.72556e-05
6.25467e-05
5.70881e-05
4.37462e-05
5.63722e-05
2.54409e-05
5.48686e-05
7.8011e-06
5.2854e-05
-8.97559e-06
5.0334e-05
-2.48053e-05
4.74812e-05
-3.96619e-05
4.45093e-05
-5.34027e-05
4.12473e-05
-6.60252e-05
3.78691e-05
-7.75278e-05
3.45118e-05
-8.79194e-05
3.11654e-05
-9.72619e-05
2.79827e-05
-0.000105649
2.52328e-05
-0.000113073
2.22556e-05
-0.000119575
1.9511e-05
-0.00012522
1.69567e-05
-0.000130071
1.45831e-05
-0.000134161
1.22958e-05
-0.000137587
1.02808e-05
-0.000140339
8.25517e-06
-0.000142519
6.50978e-06
-0.000144124
5.01077e-06
-0.000145326
3.52258e-06
-0.000145974
1.95518e-06
-0.00014619
6.72624e-07
-0.000145886
-8.70374e-07
-0.000145087
-2.36042e-06
-0.000143681
-4.20618e-06
-0.000141589
-6.256e-06
-0.000138806
-8.31733e-06
-0.000135154
-1.09489e-05
-0.000130574
-1.37454e-05
-0.000124924
-1.6976e-05
-0.000118178
-2.02645e-05
-0.000110278
-2.37115e-05
-0.000101269
-2.7075e-05
-9.11949e-05
-3.02675e-05
-7.98681e-05
-3.40275e-05
-6.73621e-05
-3.75542e-05
-5.39705e-05
-4.02198e-05
-3.96128e-05
-4.31025e-05
-2.45212e-05
-4.53022e-05
-8.91072e-06
-4.69593e-05
7.24828e-06
-4.83927e-05
2.45078e-05
-5.17329e-05
4.2381e-05
-5.36055e-05
6.08759e-05
-5.54496e-05
7.95416e-05
-5.59545e-05
9.83981e-05
-5.6522e-05
0.000117138
-5.61696e-05
0.000135621
-5.53978e-05
0.000153792
-5.44504e-05
0.000171236
-5.22739e-05
0.000187764
-4.95494e-05
0.000203228
-4.63724e-05
0.000217172
-4.18496e-05
0.000229433
-3.68472e-05
0.000239787
-3.11633e-05
0.000247901
-2.4413e-05
0.000253728
-1.75444e-05
0.000256962
-9.67721e-06
0.000257624
-1.75122e-06
0.000256089
4.87805e-06
0.000252115
1.20953e-05
0.000246008
1.83567e-05
0.000237736
2.47926e-05
0.000227308
3.12474e-05
0.000215212
3.6242e-05
0.000201463
4.12003e-05
0.000186528
4.47583e-05
0.00017049
4.80623e-05
0.000153507
5.09036e-05
0.000136055
5.23094e-05
0.000118203
5.35134e-05
0.000100119
5.42161e-05
8.21686e-05
5.38153e-05
6.43662e-05
5.33732e-05
4.70796e-05
5.18329e-05
3.02407e-05
5.05003e-05
1.39588e-05
4.88444e-05
-1.45116e-06
4.61913e-05
-1.6186e-05
4.41895e-05
-3.01037e-05
4.17424e-05
-4.31362e-05
3.9093e-05
-5.53084e-05
3.65165e-05
-6.65975e-05
3.38698e-05
-7.70476e-05
3.13552e-05
-8.66636e-05
2.88446e-05
-9.546e-05
2.63887e-05
-0.000103468
2.40255e-05
-0.000110693
2.16757e-05
-0.000117125
1.92971e-05
-0.00012279
1.69935e-05
-0.000127683
1.46731e-05
-0.000131796
1.23339e-05
-0.000135124
9.97755e-06
-0.000137656
7.60644e-06
-0.000139397
5.21542e-06
-0.000140333
2.81515e-06
-0.000140431
3.10372e-07
-0.000139644
-2.36141e-06
-0.000138039
-4.84587e-06
-0.000135524
-7.51452e-06
-0.000132239
-9.87217e-06
-0.000128049
-1.25554e-05
-0.000123038
-1.50188e-05
-0.000117291
-1.72471e-05
-0.000110646
-1.99342e-05
-0.000103182
-2.23874e-05
-9.49639e-05
-2.46546e-05
-8.58742e-05
-2.72505e-05
-7.6036e-05
-2.95085e-05
-6.53305e-05
-3.21178e-05
-5.39289e-05
-3.42011e-05
-4.18226e-05
-3.63149e-05
-2.88207e-05
-3.90004e-05
-1.50245e-05
-4.13795e-05
-4.38949e-05
0.00026196
1.07325e-05
0.000257354
1.83826e-05
0.000250518
2.72775e-05
0.000241459
3.61511e-05
0.000230619
4.32594e-05
0.000217958
5.05264e-05
0.00020386
5.62661e-05
0.000188468
6.14419e-05
0.000171866
6.62549e-05
0.000154515
6.92828e-05
0.000136551
7.17135e-05
0.000118235
7.31882e-05
9.98421e-05
7.34398e-05
8.15609e-05
7.30179e-05
6.35976e-05
7.17636e-05
4.60899e-05
6.99578e-05
2.91757e-05
6.75986e-05
1.29925e-05
6.46759e-05
-2.34502e-06
6.12939e-05
-1.68763e-05
5.8084e-05
-3.05077e-05
5.45072e-05
-4.3218e-05
5.08293e-05
-5.49888e-05
4.70797e-05
-6.58217e-05
4.33358e-05
-7.57501e-05
3.9723e-05
-8.4777e-05
3.61165e-05
-9.29507e-05
3.27031e-05
-0.000100276
2.93214e-05
-0.00010679
2.60587e-05
-0.000112539
2.29926e-05
-0.000117532
1.99634e-05
-0.000121801
1.70328e-05
-0.000125347
1.42363e-05
-0.000128223
1.15009e-05
-0.000130447
8.88646e-06
-0.000132059
6.38115e-06
-0.000133003
3.85141e-06
-0.000133315
1.34911e-06
-0.000132992
-1.26465e-06
-0.000132007
-3.94862e-06
-0.000130435
-6.32122e-06
-0.000128133
-9.19869e-06
-0.000125156
-1.18671e-05
-0.000121521
-1.45894e-05
-0.000117173
-1.7433e-05
-0.000112047
-2.04767e-05
-0.000106244
-2.32693e-05
-9.96165e-05
-2.65345e-05
-9.2118e-05
-3.00197e-05
-8.38991e-05
-3.27997e-05
-7.46959e-05
-3.68094e-05
-6.46774e-05
-4.00624e-05
-5.36592e-05
-4.40349e-05
-4.17251e-05
-4.78855e-05
-2.89399e-05
-5.11359e-05
-1.51477e-05
-5.51555e-05
-3.49083e-07
-5.91023e-05
1.49528e-05
-6.11886e-05
3.11036e-05
-6.4527e-05
4.78667e-05
-6.69729e-05
6.51981e-05
-6.92413e-05
8.30446e-05
-7.12731e-05
0.00010106
-7.19434e-05
0.00011912
-7.21145e-05
0.000137194
-7.21633e-05
0.000154874
-7.05483e-05
0.000172067
-6.86272e-05
0.000188493
-6.55278e-05
0.000203991
-6.17836e-05
0.00021838
-5.73569e-05
0.000231277
-5.13611e-05
0.00024255
-4.48677e-05
0.000252001
-3.75499e-05
0.000259331
-2.9038e-05
0.000264445
-2.0186e-05
0.000267113
-1.05282e-05
0.000267312
-1.07758e-06
0.000265353
7.43072e-06
0.00026102
1.72362e-05
0.000254403
2.65333e-05
0.000245638
3.50613e-05
0.000234854
4.31382e-05
0.000222335
5.00574e-05
0.000208348
5.5903e-05
0.000193121
6.08184e-05
0.000177041
6.43003e-05
0.00016032
6.66536e-05
0.000143232
6.82171e-05
0.000126032
6.85859e-05
0.000108931
6.8099e-05
9.18451e-05
6.8131e-05
7.50497e-05
6.69591e-05
5.84072e-05
6.62962e-05
4.20518e-05
6.51991e-05
2.59544e-05
6.41411e-05
1.03122e-05
6.24484e-05
-4.91361e-06
6.07649e-05
-1.95408e-05
5.84176e-05
-3.3538e-05
5.58529e-05
-4.6733e-05
5.26376e-05
-5.9136e-05
4.94294e-05
-7.05388e-05
4.57262e-05
-8.10841e-05
4.20188e-05
-9.0577e-05
3.7986e-05
-9.9087e-05
3.40441e-05
-0.000106581
2.99899e-05