/*--------------------------------*- C++ -*----------------------------------*\
| =========                 |                                                 |
| \\      /  F ield         | OpenFOAM: The Open Source CFD Toolbox           |
|  \\    /   O peration     | Version:  3.0.1                                 |
|   \\  /    A nd           | Web:      www.OpenFOAM.org                      |
|    \\/     M anipulation  |                                                 |
\*---------------------------------------------------------------------------*/
FoamFile
{
    version     2.0;
    format      ascii;
    class       volScalarField;
    location    "8.4";
    object      p_rgh;
}
// * * * * * * * * * * * * * * * * * * * * * * * * * * * * * * * * * * * * * //

dimensions      [1 -1 -2 0 0 0 0];

internalField   nonuniform List<scalar> 
21420
(
212.335
180.657
148.008
114.77
81.4584
48.4786
17.9743
-13.1938
-44.3641
-74.6197
-103.578
-130.99
-156.711
-180.656
-202.776
-223.063
-241.525
-258.202
-273.144
-286.405
-298.046
-308.125
-316.693
-323.793
-329.456
-333.704
-336.526
-337.85
-337.678
-336.038
-332.836
-328.012
-321.515
-313.301
-303.321
-291.538
-277.934
-262.485
-245.178
-226.028
-205.055
-182.298
-157.82
-131.684
-104.015
-74.9725
-44.7163
-13.4432
18.4966
50.8439
83.6246
116.432
148.956
180.856
211.8
241.487
269.606
295.848
319.934
341.595
360.58
376.657
389.585
399.164
405.223
407.59
406.191
400.875
391.671
378.6
361.776
341.374
317.645
290.901
261.531
229.984
196.748
162.34
127.29
92.1197
57.3323
23.4038
-9.29481
-40.4168
-69.6744
-96.8504
-121.792
-144.407
-164.655
-182.538
-198.108
-211.442
-222.641
-231.821
-239.115
-244.661
-248.607
-251.062
-252.127
-251.95
-250.595
-248.127
-244.6
-240.048
-234.482
-227.906
-220.316
-211.701
-202.047
-191.336
-179.556
-166.696
-152.754
-137.736
-121.658
-104.546
-86.4448
-67.4129
-47.5277
-26.8852
-5.60179
16.2057
38.3451
60.6623
82.9659
105.052
126.704
147.698
167.806
186.803
204.467
220.589
234.977
247.456
257.874
266.107
272.064
275.683
276.909
275.788
272.326
266.607
258.717
248.791
236.983
223.477
208.481
192.219
174.929
156.858
138.254
119.359
100.411
81.6294
63.2208
45.3709
28.2449
11.9889
-3.29516
-17.5219
-30.6141
-42.5169
-53.1964
-62.6358
-70.8332
-77.8008
-83.5613
-88.147
-91.5997
-93.9684
-95.3
-95.6468
-95.0798
-93.6495
-91.4156
-88.4381
-84.777
-80.4924
-75.6453
-70.2958
-64.5039
-58.3291
-51.8303
-45.0653
-38.0912
-30.9637
-23.7376
-16.4659
-9.2006
-1.99176
5.11195
12.0667
18.829
25.3587
31.6187
37.5753
43.1982
48.4608
53.3404
57.8178
61.8779
65.5096
68.7054
71.4617
73.7789
75.6609
77.1152
78.1525
78.7866
79.0327
78.9115
78.4416
77.6449
76.5442
75.1632
73.5269
71.6606
69.5902
67.3415
64.9402
62.4116
59.7804
57.0702
54.3037
51.5024
48.6863
45.874
43.0828
40.3283
37.6244
34.9838
32.4173
29.9342
27.5425
25.2488
23.0581
20.9744
19.0004
17.138
15.3878
13.7496
12.2226
10.8049
9.49446
8.28832
7.18318
6.17538
5.26092
4.43551
3.69473
3.03392
2.44847
1.93356
1.48444
1.09607
0.763662
0.499185
0.266635
0.0779189
-0.0711469
-0.184673
-0.266498
-0.320209
-0.349156
-0.356444
-0.344957
-0.317369
-0.27616
-0.223615
-0.161835
-0.0927365
-0.0180615
0.0606232
0.141902
0.224531
0.307404
0.389552
0.470135
0.548432
0.62383
0.695819
0.763981
0.82798
0.887559
0.942529
0.992762
1.03819
1.07878
1.11456
1.14559
1.17195
1.19376
1.21117
1.22434
1.23344
1.23865
1.24019
1.23823
1.23302
1.22479
1.21375
1.20011
1.1841
1.16591
1.14577
1.12387
1.1004
1.07556
1.04954
1.02252
0.994649
0.966104
0.937032
0.907574
0.877864
0.848023
0.818166
0.788397
0.758811
0.729495
0.700527
0.671978
0.643909
0.616377
0.589429
0.563106
0.537445
0.512475
0.48822
0.464699
0.441925
0.419911
0.398661
0.378177
0.358461
0.339507
0.321309
0.303859
0.287146
0.271157
0.255878
0.241293
0.227387
0.214141
0.201537
0.189557
0.178181
0.16739
0.157165
0.147487
0.138338
0.1297
0.121555
0.113887
0.106678
0.099913
0.0935736
212.37
180.675
148.008
114.752
81.4238
48.4311
17.9261
-13.2538
-44.4331
-74.6958
-103.659
-131.073
-156.796
-180.74
-202.858
-223.142
-241.602
-258.276
-273.214
-286.472
-298.11
-308.187
-316.752
-323.85
-329.512
-333.759
-336.58
-337.905
-337.741
-336.103
-332.9
-328.078
-321.583
-313.372
-303.394
-291.613
-278.011
-262.563
-245.257
-226.107
-205.135
-182.378
-157.898
-131.759
-104.088
-75.0399
-44.7775
-13.4967
18.4503
50.8072
83.5994
116.418
148.956
180.869
211.826
241.527
269.66
295.916
320.015
341.689
360.686
376.774
389.713
399.3
405.368
407.745
406.338
401.022
391.817
378.74
361.905
341.49
317.745
290.981
261.59
230.021
196.762
162.333
127.261
92.072
57.2677
23.3256
-9.38435
-40.5149
-69.7784
-96.9579
-121.9
-144.515
-164.76
-182.641
-198.206
-211.535
-222.728
-231.903
-239.191
-244.732
-248.672
-251.12
-252.183
-252.002
-250.645
-248.174
-244.647
-240.094
-234.528
-227.953
-220.363
-211.749
-202.095
-191.386
-179.606
-166.747
-152.805
-137.788
-121.708
-104.596
-86.4928
-67.4585
-47.5702
-26.9236
-5.6352
16.1773
38.3235
60.6482
82.96
105.055
126.717
147.72
167.838
186.844
204.518
220.65
235.045
247.532
257.956
266.194
272.154
275.774
277.003
275.876
272.413
266.69
258.794
248.861
237.045
223.53
208.524
192.252
174.952
156.871
138.256
119.352
100.395
81.6065
63.1911
45.3353
28.2043
11.9453
-3.34182
-17.5708
-30.6644
-42.5679
-53.2475
-62.6864
-70.8829
-77.8492
-83.6082
-88.1921
-91.6429
-94.0094
-95.3382
-95.6834
-95.114
-93.6814
-91.4452
-88.4654
-84.802
-80.5153
-75.6658
-70.3141
-64.52
-58.343
-51.8419
-45.0748
-38.0985
-30.9689
-23.7407
-16.467
-9.19971
-1.98895
5.1166
12.0731
18.8371
25.3683
31.6297
37.5876
43.2116
48.4752
53.3556
57.8338
61.8944
65.5264
68.7224
71.4788
73.7958
75.6776
77.1315
78.1683
78.8017
79.0473
78.925
78.4544
77.6568
76.5551
75.1732
73.5358
71.6685
69.5971
67.3473
64.945
62.4155
59.7833
57.0722
54.3049
51.5027
48.6859
45.873
43.0812
40.3261
37.6218
34.9807
32.4138
29.9305
27.5386
25.2446
23.0537
20.97
18.996
17.1335
15.3833
13.7452
12.2182
10.8007
9.49032
8.28431
7.17932
6.17169
5.2574
4.43217
3.69157
3.03095
2.44568
1.93096
1.48205
1.09388
0.761545
0.497391
0.264884
0.0763474
-0.0725524
-0.185926
-0.267608
-0.321187
-0.350012
-0.357186
-0.345593
-0.317908
-0.276608
-0.223981
-0.162125
-0.092958
-0.0182211
0.0605189
0.141847
0.22452
0.307431
0.389612
0.470224
0.548545
0.623963
0.695969
0.764143
0.828153
0.887739
0.942714
0.99295
1.03838
1.07897
1.11475
1.14577
1.17213
1.19394
1.21134
1.2245
1.23359
1.2388
1.24032
1.23836
1.23314
1.2249
1.21385
1.2002
1.18418
1.16599
1.14584
1.12393
1.10045
1.07561
1.04958
1.02255
0.994676
0.966125
0.937047
0.907584
0.877869
0.848024
0.818163
0.78839
0.758801
0.729482
0.700511
0.671959
0.643888
0.616354
0.589404
0.56308
0.537418
0.512447
0.488191
0.464669
0.441896
0.419881
0.39863
0.378147
0.358431
0.339477
0.32128
0.30383
0.287117
0.271129
0.255851
0.241267
0.227361
0.214116
0.201512
0.189533
0.178158
0.167368
0.157144
0.147467
0.138318
0.129681
0.121536
0.113869
0.106661
0.0998968
0.0935581
212.441
180.711
148.007
114.716
81.3543
48.336
17.8297
-13.3738
-44.5711
-74.848
-103.821
-131.24
-156.964
-180.908
-203.023
-223.302
-241.756
-258.423
-273.355
-286.606
-298.238
-308.309
-316.871
-323.965
-329.625
-333.87
-336.69
-338.017
-337.867
-336.23
-333.028
-328.211
-321.72
-313.513
-303.54
-291.763
-278.164
-262.719
-245.415
-226.266
-205.294
-182.536
-158.053
-131.91
-104.231
-75.1735
-44.8986
-13.6023
18.3595
50.7356
83.5507
116.394
148.956
180.896
211.881
241.61
269.77
296.053
320.179
341.878
360.9
377.01
389.969
399.575
405.658
408.058
406.631
401.32
392.11
379.022
362.167
341.725
317.947
291.145
261.713
230.1
196.797
162.324
127.211
91.9847
57.1474
23.1788
-9.55323
-40.7005
-69.9752
-97.161
-122.106
-144.718
-164.959
-182.833
-198.389
-211.707
-222.889
-232.053
-239.329
-244.859
-248.789
-251.224
-252.282
-252.095
-250.731
-248.257
-244.728
-240.174
-234.608
-228.034
-220.446
-211.834
-202.182
-191.475
-179.697
-166.839
-152.898
-137.881
-121.8
-104.686
-86.5803
-67.5415
-47.6472
-26.9929
-5.69471
16.1277
38.2871
60.6264
82.9542
105.067
126.747
147.769
167.907
186.933
204.625
220.775
235.187
247.688
258.124
266.371
272.337
275.96
277.194
276.056
272.589
266.857
258.95
249.003
237.17
223.636
208.611
192.318
174.998
156.896
138.262
119.34
100.365
81.5612
63.1322
45.2647
28.1238
11.8586
-3.43464
-17.6681
-30.7644
-42.6693
-53.3491
-62.7871
-70.9819
-77.9457
-83.7016
-88.2819
-91.7288
-94.0911
-95.4144
-95.7561
-95.182
-93.7448
-91.5041
-88.5198
-84.8519
-80.5606
-75.7067
-70.3504
-64.5519
-58.3704
-51.865
-45.0935
-38.1129
-30.9791
-23.7467
-16.4689
-9.19768
-1.98308
5.12612
12.0861
18.8534
25.3877
31.6519
37.6123
43.2386
48.5042
53.3863
57.8658
61.9275
65.5602
68.7566
71.5131
73.8299
75.7112
77.1643
78.2
78.8321
79.0765
78.9523
78.4801
77.6806
76.577
75.1931
73.5538
71.6844
69.6109
67.3591
64.9548
62.4233
59.7892
57.0763
54.3073
51.5036
48.6852
45.871
43.078
40.3218
37.6165
34.9746
32.407
29.923
27.5306
25.2363
23.0451
20.9612
18.9871
17.1246
15.3744
13.7364
12.2095
10.7922
9.48206
8.27632
7.17162
6.16432
5.25036
4.42549
3.68525
3.02501
2.44012
1.92579
1.47726
1.08951
0.757405
0.493723
0.261385
0.0732114
-0.0753568
-0.188425
-0.269823
-0.323137
-0.351717
-0.358664
-0.34686
-0.31898
-0.277501
-0.224708
-0.162701
-0.093397
-0.0185365
0.0603141
0.141741
0.224501
0.307488
0.389735
0.470403
0.548772
0.624231
0.69627
0.764471
0.828501
0.888102
0.943087
0.993329
1.03876
1.07935
1.11512
1.14614
1.17248
1.19428
1.21167
1.22482
1.23389
1.23909
1.2406
1.23861
1.23338
1.22512
1.21405
1.20039
1.18435
1.16615
1.14598
1.12405
1.10056
1.0757
1.04966
1.02261
0.994729
0.966166
0.937078
0.907604
0.877879
0.848025
0.818156
0.788376
0.75878
0.729454
0.700478
0.671921
0.643846
0.616308
0.589355
0.563029
0.537364
0.512391
0.488134
0.46461
0.441836
0.419821
0.39857
0.378087
0.358371
0.339418
0.321221
0.303772
0.287061
0.271073
0.255796
0.241213
0.227309
0.214065
0.201464
0.189485
0.178112
0.167323
0.157101
0.147425
0.138278
0.129642
0.1215
0.113834
0.106627
0.0998644
0.0935272
212.547
180.764
148.006
114.661
81.2496
48.1927
17.6851
-13.5536
-44.7783
-75.0764
-104.063
-131.49
-157.217
-181.159
-203.27
-223.542
-241.987
-258.644
-273.566
-286.807
-298.43
-308.493
-317.048
-324.138
-329.795
-334.037
-336.855
-338.188
-338.053
-336.418
-333.219
-328.409
-321.925
-313.725
-303.758
-291.987
-278.394
-262.953
-245.652
-226.505
-205.533
-182.773
-158.286
-132.136
-104.446
-75.3741
-45.0805
-13.7613
18.2232
50.6281
83.4773
116.356
148.957
180.937
211.963
241.733
269.935
296.259
320.425
342.163
361.22
377.364
390.354
399.986
406.094
408.521
407.077
401.769
392.551
379.445
362.56
342.078
318.251
291.392
261.897
230.219
196.849
162.311
127.137
91.8536
56.9668
22.9584
-9.80689
-40.9791
-70.2709
-97.4663
-122.414
-145.024
-165.258
-183.121
-198.664
-211.967
-223.131
-232.278
-239.537
-245.051
-248.964
-251.382
-252.431
-252.234
-250.862
-248.383
-244.85
-240.295
-234.729
-228.156
-220.571
-211.961
-202.313
-191.608
-179.833
-166.977
-153.038
-138.02
-121.939
-104.822
-86.7118
-67.6665
-47.7632
-27.0972
-5.78453
16.053
38.2321
60.5933
82.9454
105.084
126.792
147.843
168.01
187.065
204.786
220.962
235.398
247.92
258.375
266.636
272.611
276.239
277.479
276.328
272.855
267.109
259.184
249.215
237.357
223.797
208.741
192.418
175.067
156.934
138.27
119.32
100.321
81.4931
63.0438
45.1587
28.003
11.7284
-3.57401
-17.8141
-30.9147
-42.8216
-53.5016
-62.9383
-71.1304
-78.0905
-83.8417
-88.4167
-91.8577
-94.2134
-95.529
-95.8652
-95.284
-93.84
-91.5925
-88.6014
-84.9267
-80.6286
-75.7679
-70.4049
-64.5996
-58.4115
-51.8995
-45.1215
-38.1345
-30.9943
-23.7557
-16.4719
-9.19464
-1.9743
5.1404
12.1057
18.8779
25.4168
31.6852
37.6495
43.2792
48.5478
53.4324
57.9139
61.9771
65.6109
68.8079
71.5645
73.8811
75.7615
77.2134
78.2475
78.8778
79.1201
78.9934
78.5186
77.7164
76.61
75.2231
73.5807
71.7082
69.6316
67.3767
64.9693
62.4349
59.798
57.0824
54.3108
51.5048
48.6842
45.868
43.0731
40.3153
37.6086
34.9654
32.3967
29.9119
27.5187
25.2238
23.0322
20.9479
18.9737
17.1111
15.361
13.7231
12.1965
10.7794
9.46966
8.26432
7.16008
6.15326
5.23981
4.41548
3.67578
3.0161
2.43178
1.91802
1.47007
1.08297
0.751509
0.487907
0.256127
0.0685084
-0.0795626
-0.192173
-0.273145
-0.326062
-0.354275
-0.36088
-0.34876
-0.320588
-0.278839
-0.225798
-0.163564
-0.094055
-0.0190092
0.0600073
0.141582
0.224472
0.307573
0.38992
0.470674
0.549115
0.624634
0.696722
0.764962
0.829022
0.888646
0.943646
0.993896
1.03933
1.07991
1.11568
1.14669
1.17302
1.1948
1.21217
1.2253
1.23435
1.23952
1.24101
1.239
1.23374
1.22545
1.21436
1.20067
1.18461
1.16638
1.14618
1.12423
1.10072
1.07584
1.04978
1.02271
0.994809
0.966229
0.937123
0.907634
0.877895
0.848028
0.818146
0.788354
0.758748
0.729413
0.700429
0.671865
0.643783
0.616239
0.589281
0.562951
0.537283
0.512307
0.488047
0.464522
0.441747
0.41973
0.39848
0.377997
0.358281
0.339329
0.321133
0.303685
0.286975
0.270989
0.255714
0.241134
0.227231
0.213989
0.20139
0.189414
0.178043
0.167257
0.157037
0.147363
0.138219
0.129585
0.121445
0.113781
0.106577
0.0998158
0.0934808
212.688
180.835
148.005
114.588
81.1093
48.0008
17.4923
-13.7934
-45.0549
-75.3814
-104.387
-131.825
-157.555
-181.495
-203.599
-223.861
-242.295
-258.939
-273.848
-287.076
-298.686
-308.739
-317.285
-324.368
-330.021
-334.26
-337.077
-338.418
-338.298
-336.667
-333.475
-328.673
-322.198
-314.008
-304.049
-292.286
-278.7
-263.265
-245.968
-226.823
-205.852
-183.089
-158.598
-132.437
-104.733
-75.6419
-45.3235
-13.9739
18.0416
50.4846
83.3792
116.307
148.958
180.992
212.072
241.897
270.155
296.534
320.753
342.542
361.647
377.836
390.867
400.535
406.673
409.126
407.684
402.373
393.14
380.009
363.085
342.549
318.656
291.721
262.143
230.378
196.919
162.293
127.036
91.6779
56.7252
22.6637
-10.146
-41.3514
-70.6658
-97.874
-122.826
-145.433
-165.657
-183.506
-199.031
-212.313
-223.455
-232.578
-239.814
-245.306
-249.197
-251.595
-252.63
-252.419
-251.037
-248.55
-245.012
-240.456
-234.89
-228.319
-220.737
-212.131
-202.487
-191.787
-180.015
-167.162
-153.224
-138.207
-122.125
-105.004
-86.8876
-67.8334
-47.9181
-27.2367
-5.90494
15.9535
38.1585
60.5489
82.9332
105.106
126.851
147.941
168.147
187.241
205
221.211
235.68
248.231
258.71
266.99
272.977
276.611
277.853
276.694
273.21
267.445
259.496
249.498
237.608
224.01
208.915
192.551
175.158
156.985
138.282
119.295
100.26
81.4022
62.9257
45.017
27.8417
11.5546
-3.76004
-18.009
-31.1151
-43.0248
-53.7051
-63.14
-71.3286
-78.2836
-84.0285
-88.5964
-92.0294
-94.3761
-95.6825
-96.0106
-95.4201
-93.9669
-91.7104
-88.7102
-85.0264
-80.7193
-75.8496
-70.4776
-64.6633
-58.4663
-51.9455
-45.1589
-38.1633
-31.0146
-23.7677
-16.4757
-9.19058
-1.96258
5.15945
12.1317
18.9105
25.4556
31.7297
37.699
43.3333
48.6058
53.4938
57.978
62.0433
65.6786
68.8764
71.6332
73.9492
75.8287
77.279
78.311
78.9386
79.1782
79.0482
78.57
77.7642
76.6539
75.263
73.6165
71.74
69.6592
67.4001
64.9888
62.4504
59.8097
57.0906
54.3156
51.5064
48.6829
45.8639
43.0667
40.3067
37.598
34.9532
32.383
29.897
27.5028
25.2071
23.015
20.9303
18.9558
17.0932
15.3431
13.7054
12.1791
10.7624
9.45312
8.24832
7.14468
6.1385
5.22574
4.40212
3.66315
3.00423
2.42065
1.90766
1.46049
1.07426
0.743878
0.479924
0.249109
0.0622412
-0.085168
-0.197169
-0.277572
-0.32996
-0.357683
-0.363835
-0.351293
-0.32273
-0.280621
-0.22725
-0.164714
-0.0949312
-0.0196383
0.0595993
0.141371
0.224435
0.307689
0.390167
0.471034
0.549572
0.625171
0.697325
0.765618
0.829718
0.889372
0.944392
0.994653
1.04009
1.08067
1.11643
1.14742
1.17373
1.19549
1.21284
1.22594
1.23496
1.2401
1.24155
1.23951
1.23421
1.22589
1.21476
1.20105
1.18495
1.16669
1.14646
1.12448
1.10094
1.07603
1.04994
1.02285
0.994916
0.966312
0.937184
0.907674
0.877915
0.84803
0.818132
0.788325
0.758705
0.729359
0.700363
0.671789
0.643699
0.616147
0.589183
0.562847
0.537174
0.512194
0.487932
0.464404
0.441627
0.41961
0.398359
0.377876
0.358161
0.33921
0.321015
0.30357
0.286861
0.270878
0.255605
0.241027
0.227127
0.213889
0.201292
0.189319
0.177951
0.167168
0.156951
0.147281
0.138139
0.129508
0.121371
0.11371
0.106509
0.0997511
0.0934189
212.865
180.923
148.003
114.496
80.9327
47.7593
17.2516
-14.0931
-45.4013
-75.7635
-104.792
-132.243
-157.977
-181.914
-204.011
-224.261
-242.68
-259.308
-274.2
-287.411
-299.006
-309.045
-317.58
-324.656
-330.303
-334.539
-337.355
-338.707
-338.602
-336.977
-333.794
-329.003
-322.54
-314.361
-304.414
-292.661
-279.083
-263.654
-246.363
-227.221
-206.251
-183.485
-158.987
-132.814
-105.092
-75.9773
-45.6279
-14.2406
17.8147
50.3051
83.256
116.244
148.959
181.059
212.208
242.103
270.43
296.877
321.163
343.015
362.18
378.426
391.509
401.221
407.396
409.875
408.447
403.13
393.879
380.716
363.741
343.138
319.163
292.133
262.451
230.576
197.005
162.27
126.91
91.457
56.422
22.2941
-10.571
-41.8179
-71.1606
-98.3845
-123.342
-145.944
-166.157
-183.988
-199.49
-212.746
-223.859
-232.954
-240.161
-245.625
-249.488
-251.862
-252.879
-252.65
-251.255
-248.759
-245.216
-240.657
-235.092
-228.524
-220.945
-212.344
-202.705
-192.01
-180.242
-167.393
-153.458
-138.441
-122.356
-105.231
-87.1077
-68.0425
-48.1122
-27.4116
-6.05618
15.8288
38.0663
60.493
82.9177
105.134
126.926
148.064
168.318
187.461
205.267
221.523
236.033
248.62
259.129
267.432
273.435
277.076
278.319
277.155
273.654
267.865
259.887
249.852
237.92
224.277
209.133
192.718
175.273
157.048
138.296
119.262
100.185
81.2882
62.7777
44.8395
27.6398
11.3371
-3.9929
-18.2529
-31.3659
-43.279
-53.9596
-63.3922
-71.5764
-78.5251
-84.2622
-88.8211
-92.2439
-94.5794
-95.875
-96.1922
-95.5901
-94.1256
-91.8577
-88.8463
-85.1511
-80.8327
-75.9517
-70.5685
-64.743
-58.5349
-52.0031
-45.2056
-38.1992
-31.04
-23.7827
-16.4806
-9.1855
-1.94792
5.18329
12.1643
18.9514
25.5041
31.7852
37.761
43.401
48.6785
53.5706
58.0582
62.1262
65.7632
68.962
71.719
74.0345
75.9127
77.3609
78.3903
79.0148
79.2508
79.1168
78.6342
77.8239
76.7088
75.313
73.6614
71.7796
69.6936
67.4295
65.0131
62.4698
59.8244
57.1007
54.3215
51.5083
48.6812
45.8589
43.0585
40.2958
37.5848
34.9378
32.3659
29.8783
27.483
25.1863
22.9935
20.9083
18.9335
17.0708
15.3208
13.6833
12.1573
10.7411
9.43244
8.22831
7.12542
6.12006
5.20815
4.38543
3.64737
2.98938
2.40674
1.89471
1.44851
1.06337
0.734564
0.469721
0.240342
0.0544135
-0.092171
-0.20341
-0.283103
-0.33483
-0.361942
-0.367525
-0.354457
-0.325406
-0.282847
-0.229063
-0.16615
-0.0960245
-0.0204229
0.059091
0.141109
0.22439
0.307834
0.390478
0.471487
0.550144
0.625844
0.69808
0.766438
0.830589
0.89028
0.945324
0.9956
1.04104
1.08162
1.11736
1.14834
1.17463
1.19636
1.21368
1.22674
1.23573
1.24083
1.24223
1.24014
1.23481
1.22644
1.21527
1.20151
1.18538
1.16707
1.14681
1.12479
1.10121
1.07626
1.05014
1.02301
0.995049
0.966415
0.93726
0.907724
0.877941
0.848034
0.818115
0.788289
0.758652
0.72929
0.700281
0.671694
0.643593
0.616032
0.58906
0.562717
0.537038
0.512054
0.487787
0.464257
0.441478
0.41946
0.398208
0.377726
0.358011
0.339061
0.320868
0.303425
0.286719
0.270738
0.255468
0.240894
0.226998
0.213762
0.20117
0.189201
0.177836
0.167057
0.156844
0.147178
0.13804
0.129413
0.121279
0.113622
0.106424
0.0996701
0.0933415
213.077
181.03
148.001
114.385
80.7188
47.4671
16.9629
-14.4526
-45.8177
-76.223
-105.28
-132.746
-158.485
-182.419
-204.505
-224.741
-243.142
-259.751
-274.622
-287.813
-299.39
-309.413
-317.935
-325
-330.642
-334.874
-337.69
-339.054
-338.964
-337.348
-334.176
-329.398
-322.95
-314.786
-304.851
-293.11
-279.543
-264.123
-246.837
-227.699
-206.729
-183.961
-159.454
-133.268
-105.524
-76.3805
-45.9941
-14.5619
17.5422
50.0893
83.1075
116.168
148.96
181.14
212.371
242.349
270.76
297.289
321.655
343.584
362.821
379.134
392.279
402.045
408.264
410.775
409.364
404.04
394.767
381.565
364.53
343.846
319.772
292.628
262.82
230.813
197.108
162.242
126.758
91.1905
56.0565
21.8493
-11.0826
-42.3791
-71.7556
-98.9985
-123.962
-146.559
-166.757
-184.567
-200.041
-213.266
-224.345
-233.406
-240.578
-246.008
-249.837
-252.183
-253.176
-252.927
-251.516
-249.01
-245.46
-240.898
-235.334
-228.769
-221.195
-212.6
-202.967
-192.278
-180.515
-167.67
-153.738
-138.722
-122.635
-105.505
-87.3721
-68.2938
-48.3457
-27.6221
-6.23837
15.6789
37.9552
60.4255
82.8986
105.168
127.014
148.21
168.524
187.725
205.588
221.898
236.457
249.086
259.632
267.963
273.985
277.635
278.877
277.708
274.186
268.37
260.356
250.278
238.296
224.598
209.394
192.917
175.41
157.124
138.312
119.222
100.094
81.151
62.5997
44.626
27.397
11.0757
-4.27277
-18.546
-31.6673
-43.5844
-54.2654
-63.6952
-71.8739
-78.815
-84.5427
-89.0908
-92.5015
-94.8234
-96.1062
-96.4101
-95.7942
-94.316
-92.0345
-89.0095
-85.3008
-80.9688
-76.0742
-70.6775
-64.8386
-58.6172
-52.0722
-45.2616
-38.2424
-31.0705
-23.8007
-16.4864
-9.17939
-1.93031
5.21192
12.2034
19.0004
25.5623
31.852
37.8354
43.4822
48.7657
53.6628
58.1545
62.2256
65.8648
69.0648
71.822
74.1369
76.0135
77.4593
78.4855
79.1062
79.3378
79.1992
78.7114
77.8955
76.7747
75.3729
73.7152
71.8272
69.735
67.4647
65.0422
62.493
59.842
57.1129
54.3286
51.5107
48.6791
45.8528
43.0488
40.2828
37.5688
34.9194
32.3453
29.8559
27.4591
25.1613
22.9676
20.8818
18.9067
17.0439
15.294
13.6567
12.1312
10.7156
9.40762
8.2043
7.10232
6.09792
5.18704
4.36539
3.62843
2.97157
2.39005
1.87917
1.43412
1.05028
0.723237
0.457635
0.229845
0.0450303
-0.100569
-0.210896
-0.289737
-0.340669
-0.367048
-0.37195
-0.358249
-0.328614
-0.285516
-0.231235
-0.16787
-0.0973336
-0.0213617
0.0584838
0.140797
0.224339
0.308011
0.390852
0.472031
0.550833
0.626653
0.698987
0.767424
0.831636
0.89137
0.946445
0.996737
1.04218
1.08276
1.11849
1.14944
1.1757
1.1974
1.21468
1.2277
1.23664
1.2417
1.24305
1.24091
1.23552
1.2271
1.21588
1.20207
1.18589
1.16753
1.14722
1.12515
1.10153
1.07654
1.05038
1.02321
0.995209
0.966539
0.93735
0.907784
0.877972
0.848037
0.818094
0.788246
0.758589
0.729208
0.700182
0.671581
0.643467
0.615894
0.588912
0.56256
0.536875
0.511885
0.487614
0.464081
0.441299
0.419279
0.398027
0.377545
0.357831
0.338882
0.320692
0.303251
0.286548
0.270571
0.255305
0.240734
0.226842
0.213611
0.201023
0.189058
0.177699
0.166924
0.156715
0.147054
0.137921
0.129298
0.121169
0.113516
0.106323
0.099573
0.0932486
213.324
181.154
147.998
114.254
80.4667
47.1226
16.6267
-14.8719
-46.3048
-76.7606
-105.85
-133.334
-159.078
-183.008
-205.082
-225.301
-243.682
-260.268
-275.115
-288.283
-299.837
-309.841
-318.348
-325.402
-331.036
-335.266
-338.083
-339.459
-339.385
-337.779
-334.622
-329.86
-323.429
-315.281
-305.361
-293.635
-280.079
-264.669
-247.39
-228.257
-207.288
-184.517
-160
-133.797
-106.029
-76.852
-46.4225
-14.9382
17.2239
49.8372
82.9335
116.078
148.96
181.234
212.561
242.636
271.144
297.769
322.229
344.247
363.568
379.96
393.177
403.007
409.277
411.827
410.432
405.103
395.805
382.557
365.451
344.673
320.483
293.205
263.251
231.089
197.227
162.208
126.578
90.8777
55.6278
21.3283
-11.6815
-43.0359
-72.4515
-99.7163
-124.686
-147.277
-167.459
-185.243
-200.685
-213.872
-224.913
-233.932
-241.064
-246.454
-250.245
-252.557
-253.522
-253.25
-251.821
-249.302
-245.745
-241.18
-235.616
-229.054
-221.486
-212.898
-203.272
-192.59
-180.834
-167.995
-154.066
-139.05
-122.961
-105.824
-87.6811
-68.5876
-48.6186
-27.8683
-6.45173
15.5034
37.8249
60.3462
82.8758
105.206
127.117
148.381
168.764
188.033
205.962
222.335
236.951
249.631
260.219
268.584
274.628
278.289
279.531
278.353
274.809
268.959
260.904
250.775
238.735
224.972
209.699
193.15
175.57
157.212
138.33
119.176
99.9873
80.9903
62.3912
44.3763
27.113
10.7702
-4.59989
-18.8885
-32.0193
-43.941
-54.6224
-64.0489
-72.2213
-79.1535
-84.8701
-89.4055
-92.802
-95.1085
-96.376
-96.6642
-96.0322
-94.5381
-92.2409
-89.2
-85.4754
-81.1276
-76.2172
-70.8046
-64.9501
-58.7132
-52.1528
-45.327
-38.2928
-31.1061
-23.8217
-16.4931
-9.17223
-1.90973
5.24535
12.2491
19.0577
25.6304
31.9299
37.9223
43.5771
48.8675
53.7705
58.267
62.3417
65.9834
69.1848
71.9424
74.2565
76.1312
77.5742
78.5967
79.2129
79.4394
79.2953
78.8014
77.9791
76.8516
75.4429
73.778
71.8828
69.7833
67.5057
65.0761
62.5201
59.8624
57.1271
54.3369
51.5134
48.6767
45.8456
43.0374
40.2676
37.5502
34.8978
32.3212
29.8298
27.4312
25.1321
22.9374
20.8509
18.8754
17.0124
15.2626
13.6258
12.1007
10.6858
9.37865
8.17627
7.07535
6.07208
5.16241
4.34201
3.60633
2.95078
2.37058
1.86103
1.41733
1.03496
0.709767
0.443805
0.217638
0.0340973
-0.11036
-0.219623
-0.297471
-0.347477
-0.373
-0.377107
-0.36267
-0.332352
-0.288624
-0.233766
-0.169872
-0.0988569
-0.0224531
0.0577789
0.140436
0.224282
0.30822
0.391292
0.472669
0.551638
0.627598
0.700047
0.768576
0.832858
0.892644
0.947753
0.998065
1.04351
1.08408
1.1198
1.15073
1.17696
1.19861
1.21585
1.22882
1.23771
1.24271
1.244
1.2418
1.23635
1.22788
1.2166
1.20273
1.18648
1.16807
1.1477
1.12558
1.10191
1.07687
1.05065
1.02344
0.995395
0.966684
0.937456
0.907853
0.878007
0.848041
0.81807
0.788195
0.758514
0.729112
0.700067
0.671448
0.643319
0.615733
0.588739
0.562378
0.536685
0.511688
0.487412
0.463875
0.44109
0.419069
0.397816
0.377334
0.357621
0.338674
0.320486
0.303048
0.286349
0.270375
0.255113
0.240547
0.22666
0.213434
0.200851
0.188892
0.177538
0.166769
0.156566
0.146909
0.137782
0.129164
0.12104
0.113393
0.106204
0.0994597
0.0931403
213.607
181.295
147.994
114.103
80.1752
46.7237
16.2434
-15.3509
-46.8632
-77.3771
-106.503
-134.007
-159.757
-183.682
-205.743
-225.942
-244.299
-260.858
-275.678
-288.819
-300.349
-310.331
-318.82
-325.861
-331.487
-335.713
-338.533
-339.921
-339.863
-338.272
-335.131
-330.388
-323.976
-315.847
-305.945
-294.234
-280.693
-265.294
-248.024
-228.896
-207.928
-185.152
-160.625
-134.403
-106.607
-77.3921
-46.9138
-15.3702
16.8593
49.5485
82.7335
115.975
148.959
181.34
212.777
242.963
271.583
298.318
322.885
345.006
364.423
380.905
394.204
404.106
410.435
413.03
411.654
406.319
396.994
383.693
366.507
345.62
321.297
293.866
263.743
231.403
197.362
162.167
126.37
90.5178
55.135
20.7305
-12.3687
-43.789
-73.249
-100.539
-125.516
-148.099
-168.261
-186.016
-201.421
-214.567
-225.562
-234.534
-241.619
-246.963
-250.71
-252.985
-253.917
-253.618
-252.169
-249.636
-246.069
-241.501
-235.939
-229.381
-221.819
-213.238
-203.621
-192.948
-181.199
-168.366
-154.44
-139.425
-123.333
-106.19
-88.0348
-68.9241
-48.9314
-28.1506
-6.69651
15.3022
37.6754
60.2548
82.8489
105.249
127.235
148.576
169.037
188.385
206.391
222.835
237.517
250.255
260.891
269.294
275.364
279.036
280.279
279.091
275.521
269.634
261.531
251.344
239.237
225.4
210.048
193.416
175.752
157.312
138.351
119.121
99.8645
80.8056
62.152
44.0901
26.7873
10.4206
-4.97452
-19.2806
-32.4222
-44.3492
-55.0309
-64.4536
-72.6187
-79.5406
-85.2446
-89.7653
-93.1456
-95.4345
-96.6843
-96.9545
-96.3043
-94.792
-92.4767
-89.4177
-85.675
-81.3091
-76.3806
-70.95
-65.0775
-58.8229
-52.2449
-45.4017
-38.3503
-31.1467
-23.8456
-16.5008
-9.16401
-1.88616
5.28362
12.3015
19.1232
25.7083
32.0191
38.0218
43.6857
48.984
53.8937
58.3956
62.4745
66.1191
69.3221
72.08
74.3932
76.2658
77.7056
78.7238
79.3349
79.5556
79.4051
78.9043
78.0747
76.9395
75.5228
73.8498
71.9463
69.8384
67.5526
65.1149
62.551
59.8858
57.1433
54.3463
51.5164
48.6738
45.8374
43.0243
40.2501
37.5289
34.8732
32.2937
29.7998
27.3994
25.0987
22.9028
20.8156
18.8396
16.9765
15.2268
13.5903
12.0659
10.6517
9.34552
8.14423
7.04451
6.04255
5.13426
4.31528
3.58107
2.92701
2.34833
1.8403
1.39814
1.01737
0.694159
0.428254
0.203736
0.0216198
-0.121539
-0.229589
-0.306302
-0.355249
-0.379795
-0.382994
-0.367716
-0.336619
-0.292171
-0.236652
-0.172155
-0.100593
-0.0236954
0.0569782
0.140028
0.224221
0.308463
0.391798
0.473401
0.552562
0.628682
0.701262
0.769895
0.834257
0.894102
0.94925
0.999584
1.04504
1.0856
1.1213
1.1522
1.17839
1.2
1.21718
1.2301
1.23894
1.24387
1.24509
1.24282
1.2373
1.22876
1.21741
1.20348
1.18716
1.16869
1.14826
1.12607
1.10234
1.07724
1.05097
1.0237
0.995608
0.966849
0.937576
0.907932
0.878047
0.848046
0.818041
0.788137
0.758429
0.729002
0.699934
0.671296
0.64315
0.615549
0.588542
0.56217
0.536467
0.511463
0.487181
0.463639
0.440851
0.418828
0.397574
0.377092
0.357381
0.338436
0.320251
0.302816
0.286121
0.270152
0.254895
0.240334
0.226453
0.213232
0.200655
0.188702
0.177354
0.166591
0.156394
0.146744
0.137623
0.129011
0.120893
0.113251
0.106069
0.0993301
0.0930165
213.926
181.454
147.988
113.932
79.8427
46.2674
15.8145
-15.8895
-47.4937
-78.0734
-107.241
-134.767
-160.523
-184.441
-206.487
-226.664
-244.994
-261.523
-276.311
-289.422
-300.924
-310.881
-319.35
-326.377
-331.994
-336.217
-339.04
-340.44
-340.4
-338.825
-335.704
-330.982
-324.592
-316.484
-306.603
-294.91
-281.384
-265.998
-248.737
-229.615
-208.649
-185.869
-161.329
-135.086
-107.259
-78.0015
-47.4683
-15.8584
16.4478
49.2229
82.5072
115.857
148.957
181.459
213.019
243.331
272.076
298.935
323.623
345.859
365.385
381.968
395.359
405.342
411.739
414.387
413.029
407.69
398.334
384.974
367.696
346.688
322.215
294.61
264.296
231.757
197.512
162.118
126.133
90.1096
54.5768
20.0548
-13.1452
-44.6395
-74.149
-101.466
-126.452
-149.025
-169.165
-186.888
-202.25
-215.348
-226.292
-235.211
-242.243
-247.536
-251.234
-253.466
-254.361
-254.031
-252.559
-250.01
-246.434
-241.861
-236.301
-229.747
-222.193
-213.622
-204.014
-193.35
-181.61
-168.783
-154.862
-139.848
-123.753
-106.602
-88.4337
-69.3035
-49.2842
-28.4694
-6.97301
15.075
37.5061
60.151
82.8178
105.297
127.366
148.794
169.345
188.781
206.872
223.398
238.154
250.957
261.648
270.094
276.193
279.879
281.122
279.921
276.323
270.394
262.237
251.984
239.802
225.881
210.44
193.715
175.957
157.423
138.373
119.06
99.7253
80.5967
61.8818
43.7671
26.4195
10.0266
-5.39699
-19.7226
-32.8763
-44.809
-55.491
-64.9094
-73.0661
-79.9765
-85.6661
-90.1704
-93.5323
-95.8015
-97.0313
-97.2811
-96.6104
-95.0777
-92.742
-89.6626
-85.8996
-81.5133
-76.5644
-71.1135
-65.2209
-58.9463
-52.3485
-45.4857
-38.415
-31.1923
-23.8726
-16.5093
-9.15473
-1.85961
5.32675
12.3604
19.1971
25.796
32.1196
38.1337
43.8079
49.1152
54.0325
58.5405
62.6241
66.2719
69.4767
72.235
74.5472
76.4174
77.8536
78.867
79.4722
79.6864
79.5287
79.0201
78.1823
77.0384
75.6128
73.9306
72.0177
69.9005
67.6053
65.1585
62.5858
59.912
57.1614
54.3568
51.5197
48.6706
45.8281
43.0095
40.2304
37.5049
34.8453