/*--------------------------------*- C++ -*----------------------------------*\
| =========                 |                                                 |
| \\      /  F ield         | OpenFOAM: The Open Source CFD Toolbox           |
|  \\    /   O peration     | Version:  3.0.1                                 |
|   \\  /    A nd           | Web:      www.OpenFOAM.org                      |
|    \\/     M anipulation  |                                                 |
\*---------------------------------------------------------------------------*/
FoamFile
{
    version     2.0;
    format      ascii;
    class       surfaceScalarField;
    location    "26.8";
    object      phi;
}
// * * * * * * * * * * * * * * * * * * * * * * * * * * * * * * * * * * * * * //

dimensions      [0 3 -1 0 0 0 0];

internalField   nonuniform List<scalar> 
42423
(
0.000200277
-1.08507e-05
0.000209357
-9.0796e-06
0.000216239
-6.88196e-06
0.000220796
-4.55755e-06
0.00022307
-2.27391e-06
0.000222926
1.43485e-07
0.000220343
2.58312e-06
0.000215312
5.03167e-06
0.000207842
7.4699e-06
0.000198247
9.59518e-06
0.000186725
1.15216e-05
0.000173296
1.34294e-05
0.000158451
1.4844e-05
0.000142261
1.61904e-05
0.00012508
1.71813e-05
0.000107177
1.79024e-05
8.86777e-05
1.84997e-05
6.99131e-05
1.87646e-05
5.11709e-05
1.87423e-05
3.25461e-05
1.86248e-05
1.42562e-05
1.82899e-05
-3.51093e-06
1.77671e-05
-2.06228e-05
1.71119e-05
-3.69799e-05
1.63571e-05
-5.25119e-05
1.55321e-05
-6.71398e-05
1.46279e-05
-8.08405e-05
1.37007e-05
-9.35702e-05
1.27297e-05
-0.000105341
1.17708e-05
-0.000116159
1.08177e-05
-0.00012604
9.88089e-06
-0.000134984
8.94442e-06
-0.000143053
8.06845e-06
-0.000150248
7.19597e-06
-0.000156588
6.34002e-06
-0.000162113
5.52482e-06
-0.000166859
4.74522e-06
-0.000170822
3.96387e-06
-0.000174034
3.21123e-06
-0.000176526
2.4927e-06
-0.0001783
1.77317e-06
-0.000179381
1.08104e-06
-0.000179759
3.78047e-07
-0.000179355
-4.03442e-07
-0.000178174
-1.18129e-06
-0.000176267
-1.90711e-06
-0.000173633
-2.63399e-06
-0.000170129
-3.50381e-06
-0.000165878
-4.25065e-06
-0.000160818
-5.06075e-06
-0.000154843
-5.97452e-06
-0.000148017
-6.82576e-06
-0.000140073
-7.94411e-06
-0.000131312
-8.76096e-06
-0.000121646
-9.66615e-06
-0.00011084
-1.08058e-05
-9.91309e-05
-1.17096e-05
-8.65524e-05
-1.25785e-05
-7.2868e-05
-1.36845e-05
-5.84333e-05
-1.44347e-05
-4.30197e-05
-1.54137e-05
-2.67947e-05
-1.6225e-05
-9.98097e-06
-1.68139e-05
7.36265e-06
-1.73437e-05
2.52587e-05
-1.78961e-05
4.33159e-05
-1.80573e-05
6.15084e-05
-1.81925e-05
7.9648e-05
-1.81397e-05
9.75729e-05
-1.7925e-05
0.000115086
-1.75131e-05
0.000131918
-1.68325e-05
0.000147899
-1.59804e-05
0.000162844
-1.49458e-05
0.000176377
-1.35325e-05
0.000188597
-1.22207e-05
0.000198985
-1.0388e-05
0.000207636
-8.65118e-06
0.000214232
-6.59613e-06
0.00021859
-4.35722e-06
0.00022082
-2.23081e-06
0.000220611
2.0917e-07
0.0002181
2.5115e-06
0.000213165
4.93447e-06
0.000205921
7.24412e-06
0.000196618
9.30297e-06
0.000185227
1.13912e-05
0.000171939
1.32875e-05
0.000157148
1.47911e-05
0.000140874
1.62739e-05
0.000123502
1.73724e-05
0.00010516
1.8342e-05
8.61936e-05
1.8966e-05
6.68738e-05
1.93199e-05
4.74026e-05
1.94712e-05
2.8085e-05
1.93176e-05
9.04076e-06
1.90442e-05
-9.55675e-06
1.85975e-05
-2.74e-05
1.78432e-05
-4.44664e-05
1.70665e-05
-6.05154e-05
1.60489e-05
-7.54557e-05
1.49403e-05
-8.93203e-05
1.38647e-05
-0.00010195
1.263e-05
-0.000113371
1.14204e-05
-0.000123708
1.03368e-05
-0.000132871
9.16291e-06
-0.000140972
8.10114e-06
-0.000148048
7.07627e-06
-0.000154108
6.06008e-06
-0.000159275
5.16733e-06
-0.000163573
4.29781e-06
-0.000167006
3.43275e-06
-0.000169751
2.74463e-06
-0.000171696
1.94497e-06
-0.000172968
1.27255e-06
-0.000173573
6.04528e-07
-0.000173508
-6.45082e-08
-0.000172808
-7.00375e-07
-0.000171433
-1.37497e-06
-0.000169446
-1.98697e-06
-0.000166826
-2.62003e-06
-0.000163547
-3.27838e-06
-0.000159646
-3.90159e-06
-0.000155077
-4.56892e-06
-0.000149933
-5.14361e-06
-0.000144068
-5.86515e-06
-0.000137529
-6.53931e-06
-0.000130307
-7.22217e-06
-0.000122357
-7.94972e-06
-0.000113654
-8.70298e-06
-0.000104199
-9.45517e-06
-9.39117e-05
-1.02872e-05
-8.28041e-05
-1.11077e-05
-7.08524e-05
-1.19518e-05
-5.79939e-05
-1.28585e-05
-4.4292e-05
-1.3702e-05
-2.97225e-05
-1.45695e-05
-1.43231e-05
-1.53994e-05
1.73617e-06
-1.60594e-05
1.84806e-05
-1.67445e-05
3.57626e-05
-1.72821e-05
5.34772e-05
-1.77147e-05
7.13964e-05
-1.79193e-05
8.93561e-05
-1.79597e-05
0.000107191
-1.78347e-05
0.000124659
-1.74686e-05
0.000141485
-1.68255e-05
0.000157429
-1.59439e-05
0.000172197
-1.47688e-05
0.000185483
-1.32861e-05
0.000197023
-1.15394e-05
0.000206542
-9.5195e-06
0.000213825
-7.28336e-06
0.00021876
-4.9347e-06
0.000221204
-2.44409e-06
0.000221147
5.71223e-08
0.000218543
2.6038e-06
0.00021339
5.1533e-06
0.000205873
7.51676e-06
0.000196153
9.71966e-06
0.000184427
1.17259e-05
0.00017104
1.33872e-05
0.000156119
1.49205e-05
0.000140053
1.60662e-05
0.000123061
1.69915e-05
0.000105412
1.76498e-05
8.74567e-05
1.79549e-05
6.92735e-05
1.81832e-05
5.12429e-05
1.80306e-05
3.34777e-05
1.77652e-05
1.62083e-05
1.72694e-05
-4.86836e-07
1.66951e-05
-1.64507e-05
1.59639e-05
-3.14851e-05
1.50344e-05
-4.569e-05
1.42049e-05
-5.8908e-05
1.3218e-05
-7.12388e-05
1.23308e-05
-8.26183e-05
1.13795e-05
-9.30418e-05
1.04236e-05
-0.000102588
9.54649e-06
-0.000111226
8.63753e-06
-0.000118961
7.73564e-06
-0.000125888
6.92701e-06
-0.000131998
6.10928e-06
-0.000137336
5.33843e-06
-0.000141927
4.59124e-06
-0.000145877
3.94933e-06
-0.000149135
3.25825e-06
-0.000151717
2.58235e-06
-0.000153662
1.94464e-06
-0.000154942
1.28022e-06
-0.00015556
6.174e-07
-0.00015561
5.00925e-08
-0.000154955
-6.54944e-07
-0.000153701
-1.25431e-06
-0.000151721
-1.97953e-06
-0.000149053
-2.66771e-06
-0.000145643
-3.40981e-06
-0.000141512
-4.13191e-06
-0.000136574
-4.93784e-06
-0.000130875
-5.69832e-06
-0.000124345
-6.53077e-06
-0.000116967
-7.37727e-06
-0.000108812
-8.15531e-06
-9.97673e-05
-9.04479e-06
-8.9823e-05
-9.94432e-06
-7.90935e-05
-1.07295e-05
-6.74542e-05
-1.16394e-05
-5.49741e-05
-1.24801e-05
-4.16358e-05
-1.33383e-05
-2.74728e-05
-1.4163e-05
-1.25921e-05
-1.48807e-05
3.04976e-06
-1.56419e-05
1.92779e-05
-1.62282e-05
3.60365e-05
-1.67586e-05
5.32136e-05
-1.71772e-05
7.06919e-05
-1.74783e-05
8.82498e-05
-1.75579e-05
0.0001057
-1.745e-05
0.00012289
-1.71906e-05
0.000139485
-1.65945e-05
0.00015536
-1.58757e-05
0.000170198
-1.48376e-05
0.000183832
-1.36345e-05
0.00019606
-1.22275e-05
0.000206616
-1.05556e-05
0.000215345
-8.72929e-06
0.000222047
-6.70256e-06
0.000226556
-4.50912e-06
0.000228799
-2.24262e-06
0.000228744
5.51495e-08
0.000226362
2.38224e-06
0.000221628
4.7335e-06
0.000214674
6.95393e-06
0.000205626
9.04841e-06
0.000194608
1.10175e-05
0.000181794
1.28137e-05
0.000167462
1.43323e-05
0.000151747
1.57152e-05
0.000134999
1.6748e-05
0.000117334
1.76651e-05
9.9107e-05
1.82266e-05
8.05715e-05
1.85355e-05
6.20541e-05
1.85174e-05
4.3637e-05
1.84171e-05
2.56971e-05
1.79399e-05
8.24497e-06
1.74521e-05
-8.48916e-06
1.67341e-05
-2.43488e-05
1.58597e-05
-3.92916e-05
1.49428e-05
-5.33147e-05
1.40231e-05
-6.64185e-05
1.31037e-05
-7.83878e-05
1.19693e-05
-8.93985e-05
1.10107e-05
-9.93526e-05
9.95415e-06
-0.000108426
9.07346e-06
-0.000116475
8.04908e-06
-0.000123647
7.17199e-06
-0.000129897
6.24992e-06
-0.000135403
5.50624e-06
-0.000140022
4.61834e-06
-0.000143886
3.86407e-06
-0.000146983
3.09682e-06
-0.000149396
2.41372e-06
-0.000151132
1.7358e-06
-0.000152138
1.00555e-06
-0.00015259
4.52429e-07
-0.000152493
-9.68125e-08
-0.000151705
-7.882e-07
-0.000150357
-1.34843e-06
-0.000148556
-1.80095e-06
-0.000146053
-2.50267e-06
-0.000142971
-3.08176e-06
-0.000139179
-3.79267e-06
-0.000134929
-4.24966e-06
-0.00012987
-5.05895e-06
-0.000124077
-5.79347e-06
-0.000117442
-6.63425e-06
-0.000110163
-7.27939e-06
-0.000102027
-8.13594e-06
-9.29609e-05
-9.06622e-06
-8.30161e-05
-9.94485e-06
-7.21894e-05
-1.08267e-05
-6.04485e-05
-1.1741e-05
-4.77696e-05
-1.26789e-05
-3.43174e-05
-1.34523e-05
-1.99786e-05
-1.43388e-05
-4.86822e-06
-1.51105e-05
1.08903e-05
-1.57586e-05
2.72956e-05
-1.64054e-05
4.42135e-05
-1.69179e-05
6.1471e-05
-1.72576e-05
7.88761e-05
-1.74052e-05
9.63927e-05
-1.75166e-05
0.000113617
-1.72249e-05
0.000130429
-1.68118e-05
0.000146681
-1.62517e-05
0.000161957
-1.52758e-05
0.000176164
-1.42079e-05
0.000188956
-1.27913e-05
0.000200167
-1.12111e-05
0.000209622
-9.45535e-06
0.00021696
-7.33856e-06
0.000222163
-5.20309e-06
0.000225139
-2.97537e-06
0.000225633
-4.93897e-07
0.000223726
1.90615e-06
0.000219306
4.42003e-06
0.000212688
6.61789e-06
0.000203968
8.72006e-06
0.000193139
1.0829e-05
0.000180647
1.24921e-05
0.000166598
1.40485e-05
0.000151236
1.53622e-05
0.000134897
1.63386e-05
0.000117712
1.71851e-05
0.000100119
1.75937e-05
8.22358e-05
1.78828e-05
6.41752e-05
1.80606e-05
4.64068e-05
1.77683e-05
2.89077e-05
1.74991e-05
1.17805e-05
1.71273e-05
-4.56532e-06
1.63458e-05
-2.02536e-05
1.56883e-05
-3.51377e-05
1.4884e-05
-4.91736e-05
1.40359e-05
-6.22848e-05
1.31112e-05
-7.44381e-05
1.21532e-05
-8.56293e-05
1.11912e-05
-9.58538e-05
1.02245e-05
-0.00010511
9.25577e-06
-0.000113423
8.31335e-06
-0.000120818
7.39535e-06
-0.000127309
6.49094e-06
-0.000132938
5.62856e-06
-0.000137738
4.80002e-06
-0.000141741
4.00349e-06
-0.000144967
3.22576e-06
-0.00014746
2.49295e-06
-0.000149238
1.77813e-06
-0.000150331
1.09239e-06
-0.000150788
4.5732e-07
-0.000150514
-2.73744e-07
-0.000149539
-9.75119e-07
-0.000147911
-1.62827e-06
-0.000145701
-2.20948e-06
-0.000142806
-2.89548e-06
-0.000139291
-3.51521e-06
-0.000135159
-4.13131e-06
-0.000130349
-4.81012e-06
-0.000124906
-5.44306e-06
-0.000118727
-6.17904e-06
-0.000111891
-6.83634e-06
-0.000104355
-7.53564e-06
-9.59739e-05
-8.38116e-06
-8.68267e-05
-9.14717e-06
-9.96923e-06
0.000200372
-2.17218e-05
0.000209465
-1.81734e-05
0.000216362
-1.37786e-05
0.000220952
-9.14699e-06
0.000223223
-4.54556e-06
0.000223053
3.13451e-07
0.000220462
5.17403e-06
0.000215426
1.0068e-05
0.00020795
1.49464e-05
0.00019835
1.91948e-05
0.000186819
2.30529e-05
0.000173378
2.68704e-05
0.000158523
2.96984e-05
0.000142318
3.23956e-05
0.000125126
3.43729e-05
0.000107212
3.58165e-05
8.86971e-05
3.70147e-05
6.99236e-05
3.75381e-05
5.11723e-05
3.74936e-05
3.25388e-05
3.72582e-05
1.42369e-05
3.65918e-05
-3.53238e-06
3.55364e-05
-2.06491e-05
3.42286e-05
-3.70128e-05
3.27208e-05
-5.25485e-05
3.10677e-05
-6.71785e-05
2.92579e-05
-8.08847e-05
2.7407e-05
-9.36201e-05
2.54651e-05
-0.00010539
2.3541e-05
-0.000116206
2.16334e-05
-0.000126092
1.97668e-05
-0.000135041
1.7894e-05
-0.000143107
1.61341e-05
-0.000150298
1.43865e-05
-0.000156639
1.26819e-05
-0.000162165
1.10503e-05
-0.00016691
9.49036e-06
-0.00017088
7.9333e-06
-0.000174103
6.43495e-06
-0.000176606
4.99561e-06
-0.000178366
3.53306e-06
-0.000179437
2.15154e-06
-0.000179817
7.58491e-07
-0.000179414
-8.0653e-07
-0.000178234
-2.36085e-06
-0.000176327
-3.81448e-06
-0.000173697
-5.26444e-06
-0.000170193
-7.00718e-06
-0.000165946
-8.49805e-06
-0.000160885
-1.01213e-05
-0.000154911
-1.19494e-05
-0.000148094
-1.36426e-05
-0.000140147
-1.58912e-05
-0.000131381
-1.75266e-05
-0.000121714
-1.93338e-05
-0.000110921
-2.1599e-05
-9.91967e-05
-2.34336e-05
-8.6617e-05
-2.51583e-05
-7.29345e-05
-2.73672e-05
-5.84899e-05
-2.88794e-05
-4.30783e-05
-3.08255e-05
-2.68387e-05
-3.24647e-05
-1.00318e-05
-3.36209e-05
7.32311e-06
-3.46988e-05
2.52383e-05
-3.58114e-05
4.32985e-05
-3.61177e-05
6.15006e-05
-3.63948e-05
7.96565e-05
-3.62958e-05
9.75815e-05
-3.58502e-05
0.000115103
-3.50351e-05
0.000131965
-3.36948e-05
0.000147944
-3.19593e-05
0.000162899
-2.99006e-05
0.000176458
-2.70918e-05
0.000188677
-2.44401e-05
0.000199072
-2.07828e-05
0.000207749
-1.73282e-05
0.000214344
-1.31911e-05
0.000218723
-8.73663e-06
0.000220942
-4.45005e-06
0.000220722
4.28669e-07
0.000218194
5.0396e-06
0.000213261
9.86718e-06
0.000206008
1.44972e-05
0.000196676
1.86353e-05
0.00018529
2.27769e-05
0.000172001
2.65765e-05
0.000157188
2.9604e-05
0.000140905
3.25571e-05
0.000123522
3.4755e-05
0.000105156
3.6708e-05
8.61773e-05
3.79447e-05
6.68633e-05
3.86338e-05
4.7377e-05
3.89575e-05
2.80536e-05
3.8641e-05
8.98274e-06
3.81151e-05
-9.62335e-06
3.72036e-05
-2.74698e-05
3.56897e-05
-4.45305e-05
3.41272e-05
-6.05957e-05
3.21141e-05
-7.55319e-05
2.98766e-05
-8.93939e-05
2.77267e-05
-0.000102029
2.52648e-05
-0.000113448
2.28396e-05
-0.000123784
2.06726e-05
-0.000132939
1.83183e-05
-0.000141043
1.62053e-05
-0.000148122
1.41549e-05
-0.000154182
1.21202e-05
-0.000159347
1.03325e-05
-0.000163636
8.58662e-06
-0.000167067
6.86389e-06
-0.000169812
5.48985e-06
-0.000171752
3.8842e-06
-0.000173021
2.54157e-06
-0.000173627
1.21075e-06
-0.000173555
-1.36042e-07
-0.000172851
-1.40443e-06
-0.000171479
-2.74767e-06
-0.000169494
-3.97167e-06
-0.00016688
-5.23399e-06
-0.000163603
-6.55576e-06
-0.000159705
-7.79879e-06
-0.000155141
-9.13382e-06
-0.000149979
-1.03053e-05
-0.000144114
-1.17303e-05
-0.000137573
-1.308e-05
-0.000130366
-1.44288e-05
-0.000122412
-1.59045e-05
-0.000113705
-1.74098e-05
-0.000104257
-1.89032e-05
-9.39672e-05
-2.05771e-05
-8.28588e-05
-2.22161e-05
-7.09118e-05
-2.38989e-05
-5.80524e-05
-2.5718e-05
-4.4344e-05
-2.74106e-05
-2.97794e-05
-2.91343e-05
-1.43848e-05
-3.07941e-05
1.6912e-06
-3.21355e-05
1.8443e-05
-3.34964e-05
3.57275e-05
-3.45667e-05
5.34544e-05
-3.54418e-05
7.13852e-05
-3.58503e-05
8.93523e-05
-3.5927e-05
0.000107187
-3.567e-05
0.000124657
-3.49385e-05
0.000141515
-3.36837e-05
0.000157474
-3.19029e-05
0.00017225
-2.9545e-05
0.000185553
-2.65896e-05
0.000197086
-2.30722e-05
0.000206627
-1.90602e-05
0.000213915
-1.45722e-05
0.000218845
-9.86394e-06
0.000221297
-4.89685e-06
0.000221235
1.18759e-07
0.000218619
5.22017e-06
0.000213456
1.0316e-05
0.000205936
1.50372e-05
0.000196217
1.94379e-05
0.000184489
2.34544e-05
0.00017108
2.67959e-05
0.000156141
2.98599e-05
0.000140067
3.21399e-05
0.000123063
3.39954e-05
0.000105402
3.53106e-05
8.74101e-05
3.59468e-05
6.92333e-05
3.636e-05
5.12005e-05
3.60634e-05
3.34367e-05
3.55289e-05
1.61546e-05
3.45515e-05
-5.45922e-07
3.33957e-05
-1.65111e-05
3.19291e-05
-3.15561e-05
3.00794e-05
-4.57644e-05
2.84132e-05
-5.89782e-05
2.64318e-05
-7.13043e-05
2.46569e-05
-8.26903e-05
2.27654e-05
-9.31054e-05
2.08387e-05
-0.000102645
1.9086e-05
-0.000111284
1.72771e-05
-0.000119026
1.54772e-05
-0.00012595
1.3851e-05
-0.000132056
1.22148e-05
-0.000137394
1.0677e-05
-0.000141979
9.17643e-06
-0.000145927
7.8974e-06
-0.000149193
6.52408e-06
-0.000151774
5.16336e-06
-0.000153714
3.88438e-06
-0.000154995
2.56089e-06
-0.000155614
1.23707e-06
-0.000155653
8.90058e-08
-0.000155005
-1.30324e-06
-0.000153747
-2.51283e-06
-0.000151772
-3.95404e-06
-0.000149104
-5.33598e-06
-0.000145698
-6.81579e-06
-0.000141573
-8.25681e-06
-0.00013663
-9.88074e-06
-0.000130929
-1.1399e-05
-0.000124398
-1.30621e-05
-0.000117034
-1.47418e-05
-0.000108863
-1.63255e-05
-9.98209e-05
-1.80872e-05
-8.98785e-05
-1.98867e-05
-7.91515e-05
-2.14566e-05
-6.75097e-05
-2.32812e-05
-5.502e-05
-2.49699e-05
-4.16902e-05
-2.66682e-05
-2.75304e-05
-2.83228e-05
-1.26376e-05
-2.97736e-05
3.00449e-06
-3.12841e-05
1.92419e-05
-3.24657e-05
3.60127e-05
-3.35295e-05
5.31912e-05
-3.43558e-05
7.06784e-05
-3.49656e-05
8.82502e-05
-3.51298e-05
0.000105699
-3.48985e-05
0.000122902
-3.43941e-05
0.000139515
-3.32081e-05
0.000155393
-3.17532e-05
0.00017025
-2.96945e-05
0.00018389
-2.72746e-05
0.000196129
-2.4467e-05
0.000206683
-2.11092e-05
0.000215421
-1.74674e-05
0.000222116
-1.33976e-05
0.000226635
-9.02832e-06
0.000228893
-4.50056e-06
0.000228826
1.22098e-07
0.000226433
4.77513e-06
0.000221697
9.46928e-06
0.000214742
1.39089e-05
0.000205689
1.81012e-05
0.000194661
2.20454e-05
0.000181837
2.56374e-05
0.000167492
2.86776e-05
0.000151768
3.1439e-05
0.000135018
3.34978e-05
0.000117331
3.53527e-05
9.9089e-05
3.64684e-05
8.05697e-05
3.70548e-05
6.20063e-05
3.70808e-05
4.35927e-05
3.68307e-05
2.56506e-05
3.5882e-05
8.19435e-06
3.49084e-05
-8.55172e-06
3.34802e-05
-2.44196e-05
3.17275e-05
-3.93623e-05
2.98856e-05
-5.33844e-05
2.80451e-05
-6.64998e-05
2.62192e-05
-7.84618e-05
2.39313e-05
-8.9465e-05
2.20139e-05
-9.94329e-05
1.99221e-05
-0.0001085
1.81406e-05
-0.000116542
1.60908e-05
-0.000123714
1.43446e-05
-0.000129957
1.24921e-05
-0.000135462
1.10113e-05
-0.000140082
9.23908e-06
-0.000143948
7.72944e-06
-0.000147047
6.19651e-06
-0.000149465
4.83087e-06
-0.000151187
3.45868e-06
-0.000152181
1.9993e-06
-0.000152635
9.06252e-07
-0.000152551
-1.80801e-07
-0.000151765
-1.5748e-06
-0.000150416
-2.69738e-06
-0.000148604
-3.61262e-06
-0.000146114
-4.99265e-06
-0.000143031
-6.16481e-06
-0.000139234
-7.58961e-06
-0.000134978
-8.50549e-06
-0.000129933
-1.01042e-05
-0.000124144
-1.1583e-05
-0.000117518
-1.32601e-05
-0.000110221
-1.45759e-05
-0.000102089
-1.62681e-05
-9.30241e-05
-1.81315e-05
-8.30736e-05
-1.98954e-05
-7.22531e-05
-2.16473e-05
-6.05082e-05
-2.3486e-05
-4.78421e-05
-2.53452e-05
-3.437e-05
-2.69245e-05
-2.00249e-05
-2.8684e-05
-4.91859e-06
-3.02169e-05
1.08487e-05
-3.1526e-05
2.72621e-05
-3.2819e-05
4.41865e-05
-3.38425e-05
6.14653e-05
-3.45366e-05
7.88744e-05
-3.48144e-05
9.6405e-05
-3.50474e-05
0.000113637
-3.44568e-05
0.000130457
-3.36322e-05
0.000146731
-3.25256e-05
0.000162013
-3.05585e-05
0.000176233
-2.84278e-05
0.000189042
-2.56001e-05
0.000200261
-2.24305e-05
0.00020973
-1.89244e-05
0.000217075
-1.46838e-05
0.000222282
-1.04106e-05
0.000225269
-5.96188e-06
0.000225757
-9.82646e-07
0.000223847
3.81587e-06
0.000219425
8.84244e-06
0.000212805
1.32374e-05
0.000204075
1.74501e-05
0.000193238
2.16658e-05
0.000180736
2.49943e-05
0.000166674
2.81106e-05
0.000151305
3.0731e-05
0.00013495
3.26932e-05
0.00011775
3.43847e-05
0.000100147
3.51975e-05
8.22549e-05
3.57745e-05
6.41812e-05
3.61342e-05
4.64046e-05
3.55449e-05
2.88926e-05
3.50111e-05
1.17611e-05
3.42587e-05
-4.58715e-06
3.2694e-05
-2.02821e-05
3.13833e-05
-3.51726e-05
2.97745e-05
-4.92122e-05
2.80755e-05
-6.23253e-05
2.62243e-05
-7.44827e-05
2.43107e-05
-8.5679e-05
2.23875e-05
-9.59035e-05
2.04491e-05
-0.00010516
1.8512e-05
-0.000113478
1.66313e-05
-0.000120872
1.47895e-05
-0.00012736
1.29788e-05
-0.000132992
1.12613e-05
-0.00013779
9.5979e-06
-0.000141789
8.00205e-06
-0.00014502
6.45706e-06
-0.000147513
4.98588e-06
-0.000149282
3.54705e-06
-0.000150382
2.19248e-06
-0.000150834
9.09299e-07
-0.00015056
-5.4764e-07
-0.000149581
-1.95465e-06
-0.00014795
-3.25864e-06
-0.00014574
-4.41989e-06
-0.000142843
-5.79219e-06
-0.000139326
-7.03239e-06
-0.000135195
-8.2625e-06
-0.000130383
-9.62215e-06
-0.000124938
-1.08878e-05
-0.000118759
-1.23582e-05
-0.000111922
-1.36732e-05
-0.000104387
-1.50709e-05
-9.60055e-05
-1.67624e-05
-8.68583e-05
-1.82944e-05
-1.99384e-05
0.000200548
-3.26201e-05
0.000209679
-2.7305e-05
0.000216596
-2.06955e-05
0.000221197
-1.37472e-05
0.000223503
-6.852e-06
0.000223305
5.11499e-07
0.000220658
7.82124e-06
0.000215605
1.51209e-05
0.000208114
2.24366e-05
0.000198508
2.88014e-05
0.000186957
3.46037e-05
0.000173496
4.03315e-05
0.000158624
4.45706e-05
0.000142393
4.86262e-05
0.000125187
5.15791e-05
0.000107253
5.37499e-05
8.8713e-05
5.55551e-05
6.9927e-05
5.63241e-05
5.11607e-05
5.62599e-05
3.25139e-05
5.5905e-05
1.41912e-05
5.49144e-05
-3.58617e-06
5.33138e-05
-2.07128e-05
5.13553e-05
-3.70849e-05
4.90929e-05
-5.26294e-05
4.66121e-05
-6.7266e-05
4.38945e-05
-8.09745e-05
4.11155e-05
-9.37098e-05
3.82004e-05
-0.000105484
3.53151e-05
-0.0001163
3.24498e-05
-0.000126186
2.9653e-05
-0.000135132
2.68396e-05
-0.000143196
2.41983e-05
-0.000150389
2.1579e-05
-0.000156736
1.90287e-05
-0.000162264
1.65787e-05
-0.00016701
1.42365e-05
-0.000170978
1.19016e-05
-0.000174195
9.65127e-06
-0.00017669
7.49135e-06
-0.000178448
5.29105e-06
-0.000179514
3.2172e-06
-0.000179889
1.13302e-06
-0.000179473
-1.22268e-06
-0.000178295
-3.5388e-06
-0.000176387
-5.7223e-06
-0.00017376
-7.89154e-06
-0.000170257
-1.051e-05
-0.000166015
-1.27403e-05
-0.000160953
-1.51835e-05
-0.000154979
-1.79229e-05
-0.000148177
-2.04449e-05
-0.000140223
-2.3845e-05
-0.000131455
-2.62943e-05
-0.000121788
-2.90007e-05
-0.000111009
-3.23781e-05
-9.92708e-05
-3.51722e-05
-8.66898e-05
-3.77394e-05
-7.30095e-05
-4.10476e-05
-5.85632e-05
-4.33258e-05
-4.31517e-05
-4.62372e-05
-2.6909e-05
-4.87076e-05
-1.00947e-05
-5.04353e-05
7.27099e-06
-5.20646e-05
2.52072e-05
-5.37478e-05
4.32691e-05
-5.41798e-05
6.14818e-05
-5.46077e-05
7.96542e-05
-5.44683e-05
9.75991e-05
-5.37953e-05
0.000115136
-5.2572e-05
0.000132007
-5.05664e-05
0.000148009
-4.79615e-05
0.000162978
-4.48697e-05
0.000176551
-4.06648e-05
0.000188794
-3.66835e-05
0.000199197
-3.11858e-05
0.000207897
-2.60283e-05
0.000214494
-1.97876e-05
0.000218913
-1.31557e-05
0.000221122
-6.65949e-06
0.000220891
6.59343e-07
0.000218336
7.59465e-06
0.00021341
1.47926e-05
0.000206155
2.17526e-05
0.000196806
2.79842e-05
0.000185405
3.41781e-05
0.000172101
3.98799e-05
0.000157273
4.44322e-05
0.000140975
4.8855e-05
0.000123571
5.21593e-05
0.000105167
5.51114e-05
8.61729e-05
5.6939e-05
6.68569e-05
5.79498e-05
4.73317e-05
5.84826e-05
2.80032e-05
5.79695e-05
8.90693e-06
5.72114e-05
-9.72523e-06
5.58358e-05
-2.75869e-05
5.35513e-05
-4.46608e-05
5.12011e-05
-6.07399e-05
4.81932e-05
-7.56818e-05
4.48185e-05
-8.95342e-05
4.15791e-05
-0.000102154
3.78847e-05
-0.000113572
3.42574e-05
-0.000123921
3.10222e-05
-0.000133055
2.74521e-05
-0.000141172
2.43225e-05
-0.000148248
2.1231e-05
-0.000154298
1.81701e-05
-0.000159471
1.55057e-05
-0.000163757
1.28725e-05
-0.000167177
1.02832e-05
-0.000169916
8.22912e-06
-0.000171862
5.82998e-06
-0.000173124
3.8043e-06
-0.000173728
1.81403e-06
-0.000173658
-2.05942e-07
-0.000172946
-2.11614e-06
-0.000171572
-4.12208e-06
-0.000169584
-5.95909e-06
-0.000166973
-7.84574e-06
-0.000163689
-9.8391e-06
-0.000159796
-1.16923e-05
-0.000155252
-1.36778e-05
-0.000150074
-1.54828e-05
-0.00014421
-1.75949e-05
-0.000137664
-1.96259e-05
-0.000130455
-2.16378e-05
-0.000122508
-2.38517e-05
-0.000113803
-2.61142e-05
-0.000104352
-2.8355e-05
-9.40737e-05
-3.08553e-05
-8.297e-05
-3.33199e-05
-7.1014e-05
-3.58549e-05
-5.81649e-05
-3.85672e-05
-4.44225e-05
-4.11531e-05
-2.98805e-05
-4.36764e-05
-1.44929e-05
-4.61818e-05
1.60659e-06
-4.82351e-05
1.83678e-05
-5.02577e-05
3.5671e-05
-5.187e-05
5.34081e-05
-5.31791e-05
7.13502e-05
-5.37924e-05
8.93406e-05
-5.39175e-05
0.000107196
-5.35259e-05
0.000124674
-5.2416e-05
0.000141554
-5.05646e-05
0.00015757
-4.79187e-05
0.000172341
-4.43159e-05
0.000185674
-3.99225e-05
0.000197221
-3.46196e-05
0.000206774
-2.86137e-05
0.000214085
-2.18831e-05
0.000219021
-1.47996e-05
0.000221481
-7.3572e-06
0.000221411
1.88439e-07
0.000218778
7.85294e-06
0.000213604
1.54899e-05
0.000206067
2.25746e-05
0.000196337
2.91674e-05
0.000184602
3.51901e-05
0.000171177
4.02205e-05
0.000156209
4.4828e-05
0.000140107
4.82414e-05
0.000123089
5.10133e-05
0.000105401
5.29987e-05
8.73691e-05
5.39787e-05
6.91866e-05
5.45425e-05
5.11382e-05
5.41118e-05
3.33658e-05
5.33014e-05
1.60786e-05
5.18386e-05
-6.41483e-07
5.01158e-05
-1.66284e-05
4.7916e-05
-3.16743e-05
4.51252e-05
-4.58867e-05
4.26257e-05
-5.91067e-05
3.96517e-05
-7.14257e-05
3.69759e-05
-8.28378e-05
3.41775e-05
-9.32146e-05
3.12155e-05
-0.000102765
2.86363e-05
-0.000111402
2.59138e-05
-0.000119145
2.32209e-05
-0.000126072
2.07774e-05
-0.000132165
1.83084e-05
-0.000137499
1.6011e-05
-0.000142081
1.37584e-05
-0.000146024
1.18397e-05
-0.000149287
9.78799e-06
-0.000151871
7.74731e-06
-0.000153826
5.83901e-06
-0.000155105
3.83998e-06
-0.000155744
1.87554e-06
-0.000155754
9.91473e-08
-0.000155104
-1.9531e-06
-0.000153845
-3.77158e-06
-0.00015185
-5.94897e-06
-0.000149202
-7.98457e-06
-0.00014579
-1.02278e-05
-0.000141673
-1.23736e-05
-0.000136739
-1.48149e-05
-0.000131036
-1.71023e-05
-0.000124501
-1.95969e-05
-0.000117153
-2.209e-05
-0.000108977
-2.45014e-05
-9.99298e-05
-2.71342e-05
-8.99816e-05
-2.98349e-05
-7.92557e-05
-3.21825e-05
-6.76226e-05
-3.49144e-05
-5.51235e-05
-3.7469e-05
-4.17846e-05
-4.00072e-05
-2.76267e-05
-4.24808e-05
-1.27232e-05
-4.46772e-05
2.93364e-06
-4.6941e-05
1.91724e-05
-4.87045e-05
3.59559e-05
-5.03131e-05
5.31367e-05
-5.15367e-05
7.06375e-05
-5.24665e-05
8.82273e-05
-5.27196e-05
0.0001057
-5.23709e-05
0.000122922
-5.16163e-05
0.00013955
-4.98362e-05
0.000155457
-4.76602e-05
0.000170345
-4.45829e-05
0.000183975
-4.09041e-05
0.000196253
-3.67454e-05
0.000206809
-3.16651e-05
0.000215562
-2.62212e-05
0.000222274
-2.01098e-05
0.000226785
-1.35388e-05
0.000229053
-6.76873e-06
0.000228977
1.9779e-07
0.000226564
7.18829e-06
0.000221846
1.41876e-05
0.000214868
2.08867e-05
0.000205818
2.71509e-05
0.000194784
3.30794e-05
0.000181934
3.84875e-05
0.000167569
4.30426e-05
0.000151827
4.71814e-05
0.00013503
5.02942e-05
0.000117347
5.30356e-05
9.90811e-05
5.47345e-05
8.0557e-05
5.55789e-05
6.19402e-05
5.56975e-05
4.35327e-05
5.52381e-05
2.55763e-05
5.38384e-05
8.0921e-06
5.23926e-05
-8.66824e-06
5.02405e-05
-2.45371e-05
4.75964e-05
-3.9484e-05
4.48324e-05
-5.35325e-05
4.20937e-05
-6.66262e-05
3.93129e-05
-7.86175e-05
3.59226e-05
-8.95876e-05
3.2984e-05
-9.95631e-05
2.98976e-05
-0.000108624
2.7201e-05
-0.00011666
2.41275e-05
-0.000123834
2.15182e-05
-0.00013011
1.87683e-05
-0.000135578
1.6479e-05
-0.000140186
1.38475e-05
-0.000144053
1.15965e-05
-0.000147149
9.29267e-06
-0.000149571
7.25246e-06
-0.000151298
5.18533e-06
-0.000152285
2.98645e-06
-0.000152716
1.33755e-06
-0.000152636
-2.61277e-07
-0.000151852
-2.35877e-06
-0.00015051
-4.03877e-06
-0.000148661
-5.46157e-06
-0.0001462
-7.45381e-06
-0.000143118
-9.24726e-06
-0.000139305
-1.14029e-05
-0.000135023
-1.27867e-05
-0.000130016
-1.51119e-05
-0.00012422
-1.73792e-05
-0.000117604
-1.98754e-05
-0.0001103
-2.18807e-05
-0.000102173
-2.43949e-05
-9.31111e-05
-2.71932e-05
-8.31402e-05
-2.98664e-05
-7.23294e-05
-3.24582e-05
-6.05899e-05
-3.52256e-05
-4.79322e-05
-3.8003e-05
-3.4442e-05
-4.04148e-05
-2.00958e-05
-4.30303e-05
-4.98814e-06
-4.53247e-05
1.0786e-05
-4.73003e-05
2.72014e-05
-4.92346e-05
4.41434e-05
-5.07846e-05
6.14307e-05
-5.18241e-05
7.88531e-05
-5.2237e-05
9.63994e-05
-5.25939e-05
0.000113654
-5.17117e-05
0.000130493
-5.04712e-05
0.000146773
-4.88053e-05
0.000162088
-4.58743e-05
0.000176327
-4.26669e-05
0.000189155
-3.84286e-05
0.000200394
-3.36696e-05
0.000209881
-2.84115e-05
0.000217247
-2.20497e-05
0.00022246
-1.56236e-05
0.000225465
-8.96736e-06
0.000225951
-1.46851e-06
0.000224021
5.74571e-06
0.000219595
1.32678e-05
0.000212973
1.98601e-05
0.000204224
2.61991e-05
0.000193379
3.25103e-05
0.000180857
3.75157e-05
0.000166773
4.21953e-05
0.000151402
4.61017e-05
0.000135012
4.90826e-05
0.000117789
5.16077e-05
0.000100168
5.28186e-05
8.22499e-05
5.36929e-05
6.41703e-05
5.42136e-05
4.63801e-05
5.33351e-05
2.88454e-05
5.25457e-05
1.1714e-05
5.13901e-05
-4.64325e-06
4.90513e-05
-2.03479e-05
4.70878e-05
-3.52453e-05
4.4672e-05
-4.92915e-05
4.21216e-05
-6.2409e-05
3.93417e-05
-7.45677e-05
3.64694e-05
-8.57643e-05
3.3584e-05
-9.59893e-05
3.0674e-05
-0.000105245
2.77681e-05
-0.000113559
2.49447e-05
-0.000120951
2.21816e-05
-0.000127439
1.94672e-05
-0.000133065
1.68871e-05
-0.000137861
1.43935e-05
-0.000141858
1.19998e-05
-0.00014508
9.67906e-06
-0.000147572
7.47743e-06
-0.000149346
5.32112e-06
-0.000150439
3.28511e-06
-0.000150882
1.35288e-06
-0.000150602
-8.28027e-07
-0.000149627
-2.92902e-06
-0.000147999
-4.88706e-06
-0.000145786
-6.63313e-06
-0.00014289
-8.68784e-06
-0.000139373
-1.05499e-05
-0.000135244
-1.23915e-05
-0.000130432
-1.44342e-05
-0.000124987
-1.63326e-05
-0.000118811
-1.85338e-05
-0.000111976
-2.05086e-05
-0.000104443
-2.26034e-05
-9.60644e-05
-2.51413e-05
-8.69192e-05
-2.74395e-05
-2.99054e-05
0.000200807
-4.3554e-05
0.000209994
-3.64916e-05
0.000216961
-2.76634e-05
0.000221595
-1.83807e-05
0.000223902
-9.15938e-06
0.000223654
7.59979e-07
0.000220949
1.05258e-05
0.000215873
2.01968e-05
0.000208362
2.99475e-05
0.000198746
3.84176e-05
0.000187165
4.61851e-05
0.000173674
5.38226e-05
0.000158774
5.94698e-05
0.000142507
6.48936e-05
0.000125278
6.88078e-05
0.000107315
7.17129e-05
8.87378e-05
7.41325e-05
6.99326e-05
7.51294e-05
5.1143e-05
7.50495e-05
3.24765e-05
7.45715e-05
1.41231e-05
7.32678e-05
-3.66721e-06
7.11041e-05
-2.08098e-05
6.84979e-05
-3.71965e-05
6.54795e-05
-5.27512e-05
6.21668e-05
-6.73956e-05
5.85389e-05
-8.11124e-05
5.48323e-05
-9.38497e-05
5.09376e-05
-0.000105627
4.70921e-05
-0.000116443
4.32664e-05
-0.000126329
3.95392e-05
-0.000135275
3.5785e-05
-0.000143338
3.2261e-05
-0.000150526
2.87672e-05
-0.00015687
2.53729e-05
-0.000162396
2.21049e-05
-0.000167141
1.89818e-05
-0.000171114
1.58739e-05
-0.000174337
1.28746e-05
-0.000176827
9.98092e-06
-0.000178594
7.05833e-06
-0.000179646
4.2693e-06
-0.000179993
1.47947e-06
-0.000179561
-1.65451e-06
-0.000178386
-4.71395e-06
-0.000176477
-7.63081e-06
-0.000173855
-1.05134e-05
-0.000170353
-1.40124e-05
-0.000166119
-1.69741e-05
-0.000161055
-2.02478e-05
-0.000155083
-2.38949e-05
-0.000148303
-2.72249e-05
-0.00014034
-3.18078e-05
-0.000131568
-3.5066e-05
-0.000121903
-3.86665e-05
-0.000111148
-4.31326e-05
-9.93851e-05
-4.69355e-05
-8.68025e-05
-5.03221e-05
-7.31269e-05
-5.47234e-05
-5.86793e-05
-5.77735e-05
-4.32643e-05
-6.16522e-05
-2.70184e-05
-6.49537e-05
-1.01819e-05
-6.72719e-05
7.18892e-06
-6.94356e-05
2.51493e-05
-7.17083e-05
4.32177e-05
-7.22484e-05
6.14592e-05
-7.28493e-05
7.96543e-05
-7.26635e-05
9.76135e-05
-7.17547e-05
0.000115184
-7.01431e-05
0.00013208
-6.74619e-05
0.000148099
-6.39806e-05
0.000163096
-5.98666e-05
0.000176694
-5.42634e-05
0.000188954
-4.89437e-05
0.00019938
-4.1612e-05
0.000208118
-3.47664e-05
0.000214713
-2.63824e-05
0.000219152
-1.75954e-05
0.00022137
-8.87735e-06
0.000221132
8.97461e-07
0.000218556
1.01705e-05
0.000213639
1.97096e-05
0.000206374
2.90176e-05
0.000197003
3.73553e-05
0.000185579
4.56015e-05
0.000172256
5.32031e-05
0.000157392
5.92957e-05
0.000141072
6.51751e-05
0.000123591
6.96405e-05
0.000105176
7.35267e-05
8.61541e-05
7.59608e-05
6.68278e-05
7.7276e-05
4.72667e-05
7.80437e-05
2.78827e-05
7.73536e-05
8.76698e-06
7.63271e-05
-9.85545e-06
7.44582e-05
-2.77499e-05
7.14457e-05
-4.48654e-05
6.83166e-05
-6.09421e-05
6.42699e-05
-7.58784e-05
5.97548e-05
-8.97341e-05
5.54348e-05
-0.000102354
5.05043e-05
-0.000113765
4.56689e-05
-0.000124129