/*--------------------------------*- C++ -*----------------------------------*\
| =========                 |                                                 |
| \\      /  F ield         | OpenFOAM: The Open Source CFD Toolbox           |
|  \\    /   O peration     | Version:  3.0.1                                 |
|   \\  /    A nd           | Web:      www.OpenFOAM.org                      |
|    \\/     M anipulation  |                                                 |
\*---------------------------------------------------------------------------*/
FoamFile
{
    version     2.0;
    format      ascii;
    class       volVectorField;
    location    "43.4";
    object      U;
}
// * * * * * * * * * * * * * * * * * * * * * * * * * * * * * * * * * * * * * //

dimensions      [0 1 -1 0 0 0 0];

internalField   nonuniform List<vector> 
21420
(
(-0.143554 -0.000758132 0)
(-0.136475 -0.000852693 0)
(-0.12742 -0.000944058 0)
(-0.117414 -0.00103659 0)
(-0.10643 -0.00114036 0)
(-0.0944568 -0.00123432 0)
(-0.0814922 -0.00134124 0)
(-0.0675487 -0.00143159 0)
(-0.0526588 -0.00151618 0)
(-0.0368638 -0.00161643 0)
(-0.0202055 -0.00168631 0)
(-0.00284546 -0.00174285 0)
(0.0151015 -0.00181735 0)
(0.033566 -0.00184534 0)
(0.0523514 -0.00188968 0)
(0.071265 -0.00187907 0)
(0.0900811 -0.00184426 0)
(0.108564 -0.00182142 0)
(0.126469 -0.00173876 0)
(0.14353 -0.00163083 0)
(0.159482 -0.00152516 0)
(0.174076 -0.00136989 0)
(0.187063 -0.00119404 0)
(0.198213 -0.00100922 0)
(0.20733 -0.000796245 0)
(0.214251 -0.000572464 0)
(0.218848 -0.00033503 0)
(0.221024 -9.34499e-05 0)
(0.220811 0.000145161 0)
(0.218102 0.000391059 0)
(0.212943 0.000632336 0)
(0.205522 0.000844581 0)
(0.195939 0.00105709 0)
(0.184373 0.00122876 0)
(0.171043 0.00139967 0)
(0.15616 0.00155302 0)
(0.13997 0.00164803 0)
(0.122743 0.00174734 0)
(0.104716 0.00182344 0)
(0.0861335 0.00184197 0)
(0.0672261 0.00186733 0)
(0.0482062 0.00184343 0)
(0.0292854 0.00182904 0)
(0.0110444 0.00178605 0)
(-0.00631505 0.0017235 0)
(-0.0231792 0.00166093 0)
(-0.0394598 0.00158633 0)
(-0.0549358 0.00149296 0)
(-0.0695413 0.0014063 0)
(-0.0832249 0.00131379 0)
(-0.0959529 0.00121399 0)
(-0.10772 0.00111978 0)
(-0.118528 0.00102185 0)
(-0.128391 0.000929414 0)
(-0.137322 0.000837452 0)
(-0.145346 0.000746708 0)
(-0.152488 0.000660187 0)
(-0.158767 0.000574852 0)
(-0.164214 0.000490719 0)
(-0.168838 0.000411823 0)
(-0.172685 0.000331141 0)
(-0.175789 0.00025921 0)
(-0.178101 0.000183293 0)
(-0.179626 0.000106941 0)
(-0.18045 4.26016e-05 0)
(-0.180548 -3.40298e-05 0)
(-0.1798 -0.000118538 0)
(-0.178294 -0.000183721 0)
(-0.176001 -0.000271503 0)
(-0.172907 -0.000342819 0)
(-0.169054 -0.000421044 0)
(-0.164401 -0.000507888 0)
(-0.158931 -0.000589992 0)
(-0.152603 -0.000666013 0)
(-0.145396 -0.000754464 0)
(-0.137435 -0.000830606 0)
(-0.128638 -0.000922882 0)
(-0.118949 -0.00100471 0)
(-0.108493 -0.00107699 0)
(-0.0972559 -0.00115794 0)
(-0.0852427 -0.00123957 0)
(-0.0725106 -0.00130782 0)
(-0.0589647 -0.00137414 0)
(-0.0446995 -0.00143985 0)
(-0.0298827 -0.00149957 0)
(-0.0144241 -0.00156262 0)
(0.00161557 -0.00161443 0)
(0.0181173 -0.00165702 0)
(0.0349701 -0.00168971 0)
(0.0521292 -0.00170927 0)
(0.0694086 -0.00171688 0)
(0.0866219 -0.00170009 0)
(0.103589 -0.00166471 0)
(0.120096 -0.00160451 0)
(0.135886 -0.00152533 0)
(0.150747 -0.00142433 0)
(0.164471 -0.00129757 0)
(0.176828 -0.00114846 0)
(0.187613 -0.000982671 0)
(0.19662 -0.00079828 0)
(0.203689 -0.000602948 0)
(0.208725 -0.000399985 0)
(0.211617 -0.000174827 0)
(0.212279 4.51448e-05 0)
(0.210698 0.000272601 0)
(0.206742 0.000495344 0)
(0.200651 0.000710284 0)
(0.192428 0.000919569 0)
(0.182191 0.00111157 0)
(0.170086 0.00128719 0)
(0.156309 0.00144128 0)
(0.141091 0.00157484 0)
(0.124667 0.00168143 0)
(0.107277 0.00176667 0)
(0.0891971 0.00182149 0)
(0.0706839 0.00185363 0)
(0.0519746 0.00185645 0)
(0.0333301 0.00183937 0)
(0.0149751 0.0018049 0)
(-0.00291346 0.00174459 0)
(-0.0201644 0.00167814 0)
(-0.0366537 0.00159528 0)
(-0.0522667 0.00150269 0)
(-0.0669088 0.00140387 0)
(-0.0805408 0.00129656 0)
(-0.0931039 0.001198 0)
(-0.104608 0.0010883 0)
(-0.115077 0.00098749 0)
(-0.124487 0.000882503 0)
(-0.132858 0.000780272 0)
(-0.14024 0.000685745 0)
(-0.146658 0.000591473 0)
(-0.15217 0.000503604 0)
(-0.156827 0.000414473 0)
(-0.160621 0.000342843 0)
(-0.163646 0.000265086 0)
(-0.165936 0.000188466 0)
(-0.16752 0.00012391 0)
(-0.168458 5.82383e-05 0)
(-0.168803 9.27259e-06 0)
(-0.168585 -5.26133e-05 0)
(-0.167836 -9.22559e-05 0)
(-0.166554 -0.00015229 0)
(-0.164786 -0.00019612 0)
(-0.162582 -0.000245741 0)
(-0.159854 -0.000293926 0)
(-0.156649 -0.00033579 0)
(-0.153019 -0.00038209 0)
(-0.148916 -0.000432148 0)
(-0.144312 -0.000479659 0)
(-0.139196 -0.000532126 0)
(-0.133561 -0.000595162 0)
(-0.127328 -0.000636204 0)
(-0.120489 -0.000707843 0)
(-0.113039 -0.000771247 0)
(-0.104936 -0.000835862 0)
(-0.0961589 -0.000906096 0)
(-0.0866581 -0.000972979 0)
(-0.0764308 -0.0010485 0)
(-0.0654593 -0.00112639 0)
(-0.0537737 -0.00120167 0)
(-0.0413345 -0.00126422 0)
(-0.0281544 -0.00133466 0)
(-0.0143484 -0.00140428 0)
(9.05219e-05 -0.00145936 0)
(0.0150791 -0.00150241 0)
(0.0304766 -0.001544 0)
(0.0461647 -0.00156763 0)
(0.0620126 -0.00157279 0)
(0.0778538 -0.00156902 0)
(0.0935321 -0.00153967 0)
(0.108865 -0.00150021 0)
(0.123674 -0.00143332 0)
(0.137702 -0.00134357 0)
(0.150714 -0.00123704 0)
(0.162503 -0.00109336 0)
(0.172793 -0.000937875 0)
(0.18137 -0.000763434 0)
(0.18806 -0.000564382 0)
(0.192697 -0.000355621 0)
(0.195197 -0.000137558 0)
(0.1955 7.90102e-05 0)
(0.193554 0.000304327 0)
(0.189323 0.000520963 0)
(0.182998 0.000730081 0)
(0.174699 0.000914377 0)
(0.164586 0.00108858 0)
(0.152827 0.00123959 0)
(0.139715 0.00136302 0)
(0.125479 0.00146278 0)
(0.110315 0.00154366 0)
(0.0944536 0.00159987 0)
(0.0781309 0.00163798 0)
(0.0615351 0.00165153 0)
(0.0448864 0.00164989 0)
(0.0283804 0.00162292 0)
(0.0121983 0.00158185 0)
(-0.00344641 0.00152925 0)
(-0.0184415 0.00144977 0)
(-0.0326835 0.0013771 0)
(-0.046126 0.00129224 0)
(-0.0587483 0.0012065 0)
(-0.0705247 0.00113256 0)
(-0.0814783 0.00104047 0)
(-0.0915725 0.00095987 0)
(-0.10084 0.000881286 0)
(-0.109285 0.000798874 0)
(-0.116923 0.000718055 0)
(-0.123799 0.000645206 0)
(-0.12994 0.000572034 0)
(-0.135371 0.000502898 0)
(-0.140093 0.00043741 0)
(-0.144231 0.000380609 0)
(-0.147824 0.000322801 0)
(-0.150821 0.000279667 0)
(-0.153366 0.000226569 0)
(-0.155494 0.00018634 0)
(-0.157155 0.000153199 0)
(-0.158396 9.72242e-05 0)
(-0.159181 6.03309e-05 0)
(-0.159529 1.10657e-05 0)
(-0.159435 -3.2338e-05 0)
(-0.158947 -7.30512e-05 0)
(-0.157967 -0.000112581 0)
(-0.156575 -0.000159855 0)
(-0.154756 -0.000202179 0)
(-0.15248 -0.000250064 0)
(-0.14973 -0.000296516 0)
(-0.146432 -0.000351604 0)
(-0.142613 -0.000407796 0)
(-0.138215 -0.000460971 0)
(-0.133201 -0.000528724 0)
(-0.127553 -0.000588037 0)
(-0.121235 -0.000661268 0)
(-0.114197 -0.000733259 0)
(-0.106418 -0.000806868 0)
(-0.0978346 -0.000888457 0)
(-0.0884614 -0.000977021 0)
(-0.0782429 -0.00104763 0)
(-0.0671859 -0.00113662 0)
(-0.0553185 -0.00122488 0)
(-0.0425657 -0.0013054 0)
(-0.0289752 -0.00137887 0)
(-0.0146551 -0.00146165 0)
(0.000469693 -0.00153052 0)
(0.0162934 -0.00159458 0)
(0.0326192 -0.0016446 0)
(0.049361 -0.00167931 0)
(0.0664193 -0.0016946 0)
(0.0835247 -0.0016955 0)
(0.100513 -0.00167242 0)
(0.117149 -0.00162067 0)
(0.133149 -0.00154997 0)
(0.14827 -0.00144568 0)
(0.162209 -0.00131463 0)
(0.174703 -0.00115553 0)
(0.185487 -0.000982076 0)
(0.194358 -0.000779393 0)
(0.201133 -0.000557996 0)
(0.205627 -0.000328055 0)
(0.207699 -8.74012e-05 0)
(0.207377 0.000154963 0)
(0.204514 0.000403199 0)
(0.199286 0.00063902 0)
(0.191761 0.000854369 0)
(0.18206 0.00105669 0)
(0.170508 0.00123856 0)
(0.157314 0.00138885 0)
(0.142705 0.00150897 0)
(0.127097 0.00160688 0)
(0.110767 0.00165898 0)
(0.0939318 0.00168938 0)
(0.0767242 0.00170296 0)
(0.0596623 0.0016959 0)
(0.0429242 0.00165279 0)
(0.0263356 0.00160616 0)
(0.0106032 0.00154109 0)
(-0.0041858 0.00147475 0)
(-0.0183243 0.00139127 0)
(-0.0316838 0.00129997 0)
(-0.0441912 0.00121485 0)
(-0.0557781 0.00112072 0)
(-0.0665277 0.00104209 0)
(-0.0764435 0.000953407 0)
(-0.0855154 0.000872407 0)
(-0.0939033 0.000803455 0)
(-0.101585 0.000729988 0)
(-0.108548 0.000656867 0)
(-0.114871 0.000593515 0)
(-0.120533 0.000523152 0)
(-0.125559 0.00046356 0)
(-0.129931 0.00039851 0)
(-0.133641 0.000334036 0)
(-0.136747 0.000280054 0)
(-0.139234 0.000219998 0)
(-0.141141 0.000158034 0)
(-0.142519 0.000111552 0)
(-0.14333 5.83481e-05 0)
(-0.143618 -3.19434e-06 0)
(-0.143341 -5.4119e-05 0)
(-0.142489 -0.000114475 0)
(-0.141076 -0.000168402 0)
(-0.139041 -0.000228707 0)
(-0.136344 -0.000300246 0)
(-0.132969 -0.000371202 0)
(-0.128827 -0.000446494 0)
(-0.123835 -0.000536898 0)
(-0.117973 -0.000622944 0)
(-0.111163 -0.000726891 0)
(-0.103346 -0.000823333 0)
(-0.0944887 -0.000924797 0)
(-0.0845246 -0.00104326 0)
(-0.0734481 -0.00114582 0)
(-0.0613205 -0.0012461 0)
(-0.0481002 -0.00136748 0)
(-0.0338279 -0.00145661 0)
(-0.0185738 -0.00156447 0)
(-0.00250975 -0.00163313 0)
(0.0142062 -0.0016862 0)
(0.0315494 -0.00175677 0)
(0.0493444 -0.00177843 0)
(0.0673545 -0.00177669 0)
(0.0853731 -0.00178753 0)
(0.103186 -0.00174326 0)
(0.120551 -0.00170509 0)
(0.137239 -0.00161573 0)
(0.152996 -0.00150263 0)
(0.167584 -0.00138804 0)
(0.180795 -0.00123488 0)
(0.192422 -0.0010647 0)
(0.202283 -0.000886454 0)
(0.210227 -0.000687826 0)
(0.216139 -0.000479657 0)
(0.219942 -0.000264649 0)
(0.221565 -5.32691e-05 0)
(0.22106 0.000160669 0)
(0.218293 0.000377725 0)
(0.213397 0.000587669 0)
(0.206504 0.000777272 0)
(0.197714 0.000961661 0)
(0.187175 0.00113387 0)
(0.17506 0.00126953 0)
(0.161559 0.00140563 0)
(0.146869 0.00149795 0)
(0.131196 0.00159417 0)
(0.11474 0.00167228 0)
(0.0977082 0.00170095 0)
(0.0803011 0.00173919 0)
(0.0627048 0.00175914 0)
(0.0450963 0.00173254 0)
(0.0275825 0.0017177 0)
(0.0101785 0.00165991 0)
(-0.00644828 0.00162396 0)
(-0.0222344 0.00156642 0)
(-0.0375536 0.00147812 0)
(-0.0520853 0.00140077 0)
(-0.0673882 0.00131378 0)
(-0.143589 -0.00227421 0)
(-0.136512 -0.00255794 0)
(-0.127458 -0.00283205 0)
(-0.117453 -0.00310968 0)
(-0.106469 -0.00342104 0)
(-0.0944962 -0.00370297 0)
(-0.0815317 -0.00402377 0)
(-0.0675869 -0.00429492 0)
(-0.0526949 -0.00454875 0)
(-0.0368979 -0.00484959 0)
(-0.0202357 -0.00505934 0)
(-0.00287095 -0.00522891 0)
(0.0150808 -0.00545269 0)
(0.033552 -0.00553676 0)
(0.0523449 -0.00566988 0)
(0.071267 -0.0056381 0)
(0.0900921 -0.00553374 0)
(0.108585 -0.00546532 0)
(0.126501 -0.00521735 0)
(0.143571 -0.00489352 0)
(0.159534 -0.00457654 0)
(0.174137 -0.00411064 0)
(0.187132 -0.00358302 0)
(0.198292 -0.00302849 0)
(0.207416 -0.00238934 0)
(0.214342 -0.00171757 0)
(0.218943 -0.00100363 0)
(0.221125 -0.000282558 0)
(0.220912 0.000434446 0)
(0.218192 0.00117336 0)
(0.213036 0.00189709 0)
(0.205608 0.0025343 0)
(0.19602 0.00317196 0)
(0.184445 0.00368707 0)
(0.171107 0.0041999 0)
(0.156216 0.00466003 0)
(0.140015 0.00494506 0)
(0.122778 0.00524302 0)
(0.104742 0.00547132 0)
(0.0861499 0.00552682 0)
(0.0672336 0.00560284 0)
(0.0482065 0.00553098 0)
(0.0292769 0.00548768 0)
(0.0110305 0.00535912 0)
(-0.0063322 0.00517092 0)
(-0.0232024 0.00498317 0)
(-0.0394866 0.00475936 0)
(-0.0549648 0.00447924 0)
(-0.0695725 0.00421928 0)
(-0.0832575 0.0039417 0)
(-0.095986 0.00364228 0)
(-0.107753 0.00335968 0)
(-0.118562 0.00306591 0)
(-0.128426 0.00278814 0)
(-0.137356 0.00251209 0)
(-0.14538 0.00224033 0)
(-0.152522 0.00198097 0)
(-0.158802 0.00172441 0)
(-0.16425 0.0014726 0)
(-0.168874 0.00123658 0)
(-0.172721 0.000996272 0)
(-0.175829 0.000776749 0)
(-0.178144 0.00054721 0)
(-0.179672 0.000320279 0)
(-0.180495 0.000128894 0)
(-0.180595 -0.000102292 0)
(-0.17985 -0.000354606 0)
(-0.178345 -0.000550751 0)
(-0.176054 -0.000814929 0)
(-0.172961 -0.00102791 0)
(-0.16911 -0.00126127 0)
(-0.164462 -0.00152794 0)
(-0.158987 -0.00176954 0)
(-0.152658 -0.00199445 0)
(-0.145454 -0.00226251 0)
(-0.137497 -0.00249577 0)
(-0.128692 -0.00276915 0)
(-0.118997 -0.00300951 0)
(-0.108553 -0.0032374 0)
(-0.0973068 -0.0034723 0)
(-0.0852881 -0.00371504 0)
(-0.0725576 -0.00392817 0)
(-0.059004 -0.00412371 0)
(-0.044745 -0.00432445 0)
(-0.0299182 -0.0045044 0)
(-0.0144534 -0.00468665 0)
(0.00159312 -0.00483786 0)
(0.018091 -0.00498173 0)
(0.0349574 -0.00507397 0)
(0.0521212 -0.00513069 0)
(0.0694152 -0.00514484 0)
(0.0866349 -0.0051047 0)
(0.103606 -0.00499486 0)
(0.120118 -0.0048229 0)
(0.135921 -0.00457326 0)
(0.150791 -0.00426587 0)
(0.16452 -0.00388989 0)
(0.176882 -0.00345474 0)
(0.187674 -0.00295866 0)
(0.19669 -0.00240429 0)
(0.20377 -0.00181468 0)
(0.20882 -0.00118832 0)
(0.211705 -0.000523018 0)
(0.212362 0.000124323 0)
(0.210779 0.000812635 0)
(0.206842 0.00148833 0)
(0.200753 0.00213705 0)
(0.192517 0.00275818 0)
(0.182269 0.00332991 0)
(0.170153 0.003858 0)
(0.156369 0.00432242 0)
(0.14114 0.00472281 0)
(0.124705 0.00504227 0)
(0.107305 0.00529461 0)
(0.0892116 0.00546826 0)
(0.070681 0.00556193 0)
(0.0519604 0.00556524 0)
(0.0333088 0.00551988 0)
(0.0149453 0.00541917 0)
(-0.00295825 0.00524131 0)
(-0.0202289 0.00503198 0)
(-0.0367272 0.00478186 0)
(-0.0523463 0.0045046 0)
(-0.0669921 0.00421432 0)
(-0.080627 0.00389632 0)
(-0.0931986 0.00360071 0)
(-0.104706 0.00325954 0)
(-0.115178 0.00296521 0)
(-0.124594 0.00264375 0)
(-0.132964 0.00234402 0)
(-0.14035 0.00205149 0)
(-0.146768 0.00176918 0)
(-0.152285 0.00150713 0)
(-0.15694 0.00124511 0)
(-0.160744 0.00102814 0)
(-0.163767 0.000785817 0)
(-0.166048 0.000577255 0)
(-0.167642 0.000370647 0)
(-0.168578 0.000173524 0)
(-0.168913 3.25089e-05 0)
(-0.168704 -0.00016126 0)
(-0.167956 -0.000283561 0)
(-0.166662 -0.000450083 0)
(-0.164915 -0.000593912 0)
(-0.1627 -0.000737833 0)
(-0.159977 -0.000873422 0)
(-0.156783 -0.00101707 0)
(-0.153145 -0.00114996 0)
(-0.149037 -0.0012977 0)
(-0.144436 -0.00143353 0)
(-0.13932 -0.00160297 0)
(-0.13368 -0.00178014 0)
(-0.127456 -0.00191722 0)
(-0.120615 -0.00212717 0)
(-0.113156 -0.00231104 0)
(-0.105061 -0.0025057 0)
(-0.096293 -0.0027328 0)
(-0.08679 -0.00292394 0)
(-0.0765524 -0.00314562 0)
(-0.0655686 -0.00337344 0)
(-0.0538866 -0.00360949 0)
(-0.0414386 -0.00379812 0)
(-0.0282484 -0.00400742 0)
(-0.014438 -0.00420768 0)
(8.40322e-06 -0.00437922 0)
(0.0150005 -0.00452019 0)
(0.0304067 -0.00463465 0)
(0.0461069 -0.00470717 0)
(0.0619636 -0.00471885 0)
(0.07782 -0.00470523 0)
(0.0935085 -0.00462659 0)
(0.108856 -0.00449929 0)
(0.12367 -0.00430276 0)
(0.137708 -0.00404382 0)
(0.150744 -0.00370843 0)
(0.162542 -0.00329374 0)
(0.172853 -0.00282 0)
(0.181451 -0.00228066 0)
(0.18814 -0.00169528 0)
(0.192783 -0.00107491 0)
(0.195293 -0.00041195 0)
(0.195598 0.000232349 0)
(0.193641 0.000913487 0)
(0.189418 0.00156863 0)
(0.18309 0.00218263 0)
(0.174784 0.00275408 0)
(0.16465 0.00326453 0)
(0.152883 0.00371128 0)
(0.139762 0.00408906 0)
(0.125513 0.0043896 0)
(0.110336 0.00462471 0)
(0.094465 0.00479566 0)
(0.078134 0.00492051 0)
(0.0615244 0.0049598 0)
(0.0448544 0.00495176 0)
(0.0283323 0.00486689 0)
(0.0121424 0.00474062 0)
(-0.00350405 0.00458728 0)
(-0.0185044 0.004363 0)
(-0.0327621 0.0041288 0)
(-0.0462122 0.00387182 0)
(-0.0588377 0.00362214 0)
(-0.0706197 0.00339377 0)
(-0.0815685 0.00312989 0)
(-0.0916687 0.00288623 0)
(-0.100947 0.00263241 0)
(-0.109391 0.0023953 0)
(-0.117033 0.00216119 0)
(-0.123913 0.00193484 0)
(-0.130055 0.00171619 0)
(-0.135486 0.00150592 0)
(-0.140202 0.00132789 0)
(-0.144346 0.00112832 0)
(-0.14793 0.000975913 0)
(-0.150936 0.000839562 0)
(-0.153487 0.000684996 0)
(-0.155621 0.000551158 0)
(-0.15728 0.000446757 0)
(-0.158512 0.000299832 0)
(-0.159308 0.00017198 0)
(-0.159638 4.14693e-05 0)
(-0.159552 -8.73701e-05 0)
(-0.159069 -0.00022807 0)
(-0.158093 -0.000337119 0)
(-0.156695 -0.000482027 0)
(-0.154877 -0.000605055 0)
(-0.152602 -0.000744688 0)
(-0.149853 -0.00088987 0)
(-0.146557 -0.00105738 0)
(-0.14274 -0.00122677 0)
(-0.138338 -0.00139029 0)
(-0.13332 -0.00158218 0)
(-0.127681 -0.00177919 0)
(-0.12135 -0.00197691 0)
(-0.11432 -0.00220118 0)
(-0.106538 -0.00243242 0)
(-0.0979489 -0.00267427 0)
(-0.0885654 -0.00291726 0)
(-0.0783625 -0.00315895 0)
(-0.0672856 -0.00340957 0)
(-0.0554107 -0.00367339 0)
(-0.0426545 -0.0039037 0)
(-0.029073 -0.00415357 0)
(-0.0147386 -0.00438512 0)
(0.000391335 -0.00459399 0)
(0.0162196 -0.00478231 0)
(0.0325562 -0.00494439 0)
(0.0493214 -0.00503383 0)
(0.0663706 -0.00509725 0)
(0.0835005 -0.00508842 0)
(0.100497 -0.00501978 0)
(0.117148 -0.00487533 0)
(0.133175 -0.00464268 0)
(0.148313 -0.0043372 0)
(0.162261 -0.00395067 0)
(0.174762 -0.00348251 0)
(0.185568 -0.00294799 0)
(0.194449 -0.00233712 0)
(0.201234 -0.00167518 0)
(0.205733 -0.000980214 0)
(0.207805 -0.000262485 0)
(0.207473 0.000461145 0)
(0.2046 0.00120777 0)
(0.199375 0.00191723 0)
(0.191847 0.00256527 0)
(0.182132 0.00317442 0)
(0.170562 0.00370499 0)
(0.157362 0.00415809 0)
(0.142754 0.00453267 0)
(0.127125 0.00482923 0)
(0.110779 0.00497333 0)
(0.0939433 0.00507537 0)
(0.0767247 0.00510741 0)
(0.05965 0.00508966 0)
(0.0429019 0.00495916 0)
(0.0263102 0.00481633 0)
(0.0105759 0.0046248 0)
(-0.00422058 0.00442678 0)
(-0.0183647 0.00417227 0)
(-0.0317224 0.00390489 0)
(-0.0442364 0.00364355 0)
(-0.0558222 0.00336104 0)
(-0.0665726 0.00312413 0)
(-0.0764841 0.0028627 0)
(-0.0855548 0.00261961 0)
(-0.0939431 0.00240979 0)
(-0.101623 0.00218975 0)
(-0.108584 0.00197147 0)
(-0.114908 0.00178117 0)
(-0.120569 0.00156932 0)
(-0.125593 0.00139072 0)
(-0.129965 0.00119709 0)
(-0.133673 0.0010023 0)
(-0.13678 0.000839128 0)
(-0.139266 0.000659763 0)
(-0.14117 0.000473775 0)
(-0.142548 0.000334008 0)
(-0.143362 0.000171065 0)
(-0.143647 -6.54413e-06 0)
(-0.14337 -0.000162513 0)
(-0.142519 -0.000342977 0)
(-0.141106 -0.000504884 0)
(-0.139073 -0.000685786 0)
(-0.136379 -0.000900954 0)
(-0.133007 -0.00111269 0)
(-0.128866 -0.00133898 0)
(-0.123876 -0.00161011 0)
(-0.118016 -0.00186856 0)
(-0.111209 -0.00218042 0)
(-0.103394 -0.00246984 0)
(-0.0945376 -0.0027741 0)
(-0.0845744 -0.0031292 0)
(-0.0734976 -0.00343805 0)
(-0.0613695 -0.00373887 0)
(-0.0481477 -0.0041025 0)
(-0.0338716 -0.0043701 0)
(-0.0186135 -0.00469388 0)
(-0.00254417 -0.00489948 0)
(0.0141774 -0.00505907 0)
(0.0315274 -0.00527099 0)
(0.0493305 -0.00533614 0)
(0.067349 -0.00533093 0)
(0.0853772 -0.00536346 0)
(0.103199 -0.0052307 0)
(0.120574 -0.00511627 0)
(0.137272 -0.00484819 0)
(0.153039 -0.00450882 0)
(0.167636 -0.00416507 0)
(0.180855 -0.00370555 0)
(0.192489 -0.00319483 0)
(0.202357 -0.00265997 0)
(0.210306 -0.00206379 0)
(0.216221 -0.00144014 0)
(0.220023 -0.000798578 0)
(0.221658 -0.000155203 0)
(0.221148 0.000483383 0)
(0.218373 0.00113363 0)
(0.213477 0.0017633 0)
(0.206579 0.00233226 0)
(0.197784 0.00288556 0)
(0.187239 0.00340229 0)
(0.175116 0.0038093 0)
(0.161607 0.00421767 0)
(0.146908 0.00449464 0)
(0.131228 0.0047833 0)
(0.114764 0.00501765 0)
(0.0977239 0.00510359 0)
(0.0803094 0.00521831 0)
(0.0627059 0.00527814 0)
(0.0450906 0.00519828 0)
(0.02757 0.00515376 0)
(0.0101622 0.00498047 0)
(-0.00646967 0.0048722 0)
(-0.0222621 0.00469965 0)
(-0.0375846 0.0044347 0)
(-0.0521198 0.0042026 0)
(-0.0674261 0.00394159 0)
(-0.14366 -0.00378988 0)
(-0.136586 -0.00426283 0)
(-0.127534 -0.00471975 0)
(-0.117529 -0.00518259 0)
(-0.106547 -0.00570164 0)
(-0.0945739 -0.00617165 0)
(-0.0816095 -0.00670653 0)
(-0.0676619 -0.00715868 0)
(-0.0527654 -0.00758196 0)
(-0.0369643 -0.00808365 0)
(-0.0202942 -0.00843329 0)
(-0.00291962 -0.0087166 0)
(0.0150422 -0.00908999 0)
(0.0335268 -0.00923032 0)
(0.0523348 -0.00945257 0)
(0.0712741 -0.00939981 0)
(0.0901174 -0.00922605 0)
(0.108632 -0.0091123 0)
(0.126567 -0.00869902 0)
(0.143656 -0.00815922 0)
(0.159642 -0.00763093 0)
(0.174263 -0.00685416 0)
(0.187275 -0.00597449 0)
(0.198453 -0.00504994 0)
(0.207589 -0.00398422 0)
(0.214526 -0.00286447 0)
(0.219131 -0.00167677 0)
(0.221329 -0.000464969 0)
(0.221108 0.000721832 0)
(0.21837 0.00195699 0)
(0.213217 0.0031625 0)
(0.205777 0.00422615 0)
(0.196176 0.00528923 0)
(0.184582 0.00614798 0)
(0.171227 0.00700299 0)
(0.156317 0.00777011 0)
(0.140095 0.00824513 0)
(0.122838 0.00874173 0)
(0.104782 0.0091223 0)
(0.0861705 0.00921434 0)
(0.0672359 0.00934076 0)
(0.0481939 0.00922047 0)
(0.0292466 0.00914683 0)
(0.0109893 0.00893564 0)
(-0.00638006 0.00861964 0)
(-0.0232621 0.0083064 0)
(-0.039553 0.00793313 0)
(-0.0550351 0.00746602 0)
(-0.0696468 0.00703255 0)
(-0.0833338 0.0065699 0)
(-0.0960624 0.00607064 0)
(-0.10783 0.00559954 0)
(-0.118638 0.00510978 0)
(-0.1285 0.00464706 0)
(-0.137429 0.00418689 0)
(-0.14545 0.00373403 0)
(-0.15259 0.00330251 0)
(-0.158869 0.00287336 0)
(-0.164313 0.00245489 0)
(-0.168936 0.00206171 0)
(-0.172783 0.00166024 0)
(-0.175887 0.00129429 0)
(-0.178202 0.000912774 0)
(-0.179732 0.000535673 0)
(-0.180557 0.000213584 0)
(-0.180655 -0.000172823 0)
(-0.17991 -0.000589201 0)
(-0.178404 -0.000917088 0)
(-0.176115 -0.00135777 0)
(-0.173024 -0.00171333 0)
(-0.169175 -0.00210398 0)
(-0.164528 -0.0025446 0)
(-0.159054 -0.00295048 0)
(-0.152724 -0.00332422 0)
(-0.145521 -0.00377285 0)
(-0.137564 -0.00415745 0)
(-0.128761 -0.00461569 0)
(-0.119063 -0.00502055 0)
(-0.108616 -0.00539153 0)
(-0.0973796 -0.00579365 0)
(-0.085351 -0.00619412 0)
(-0.0726138 -0.00654774 0)
(-0.0590644 -0.00687006 0)
(-0.044801 -0.00720949 0)
(-0.0299706 -0.00750621 0)
(-0.0145093 -0.00781578 0)
(0.00153633 -0.00806932 0)
(0.0180478 -0.00829933 0)
(0.0349244 -0.00845504 0)
(0.0520916 -0.00855497 0)
(0.0693897 -0.00858141 0)
(0.0866256 -0.00850665 0)
(0.10361 -0.00833045 0)
(0.120134 -0.00803421 0)
(0.135949 -0.00762558 0)
(0.150829 -0.00712072 0)
(0.164569 -0.00648873 0)
(0.176941 -0.00575437 0)
(0.187749 -0.00492902 0)
(0.196779 -0.00400267 0)
(0.203864 -0.00302321 0)
(0.208915 -0.00198412 0)
(0.211803 -0.000877233 0)
(0.212461 0.000213795 0)
(0.210858 0.00135637 0)
(0.206937 0.00247766 0)
(0.200841 0.00355795 0)
(0.192597 0.00459894 0)
(0.18234 0.00555587 0)
(0.17021 0.00643415 0)
(0.156407 0.00721019 0)
(0.14116 0.00787567 0)
(0.124702 0.00841041 0)
(0.107275 0.0088335 0)
(0.0891577 0.00911351 0)
(0.0706097 0.00926953 0)
(0.0518741 0.00928508 0)
(0.0332057 0.00920752 0)
(0.0148206 0.00903139 0)
(-0.00309944 0.00873933 0)
(-0.0203783 0.00839131 0)
(-0.0368846 0.00797518 0)
(-0.0525087 0.00751272 0)
(-0.0671663 0.00702014 0)
(-0.0808045 0.00649383 0)
(-0.0933804 0.00599771 0)
(-0.104888 0.00543774 0)
(-0.115359 0.00493341 0)
(-0.124773 0.00440818 0)
(-0.133137 0.00391079 0)
(-0.140515 0.00342427 0)
(-0.146932 0.00295347 0)
(-0.152454 0.00251258 0)
(-0.157102 0.00207553 0)
(-0.160907 0.00171764 0)
(-0.163933 0.00131296 0)
(-0.166208 0.000956294 0)
(-0.1678 0.000618866 0)
(-0.168729 0.000298917 0)
(-0.169065 3.79956e-05 0)
(-0.168851 -0.000268266 0)
(-0.168094 -0.000467221 0)
(-0.166811 -0.000754002 0)
(-0.165059 -0.000993223 0)
(-0.162845 -0.0012324 0)
(-0.160132 -0.00145331 0)
(-0.156932 -0.0016923 0)
(-0.153289 -0.00191115 0)
(-0.149185 -0.00216925 0)
(-0.144584 -0.00239523 0)
(-0.13947 -0.00265964 0)
(-0.133833 -0.00296224 0)
(-0.127611 -0.00320828 0)
(-0.120769 -0.00353589 0)
(-0.113311 -0.00385785 0)
(-0.105227 -0.00418308 0)
(-0.0964495 -0.00454599 0)
(-0.08695 -0.0048634 0)
(-0.0767211 -0.00525079 0)
(-0.065739 -0.00562685 0)
(-0.0540459 -0.00601066 0)
(-0.0415864 -0.00633194 0)
(-0.0283993 -0.00667797 0)
(-0.0145822 -0.00702691 0)
(-0.00011766 -0.00730136 0)
(0.0148844 -0.00752664 0)
(0.0302898 -0.00772261 0)
(0.0460012 -0.00785058 0)
(0.0618711 -0.00786633 0)
(0.0777437 -0.00784788 0)
(0.0934489 -0.00771089 0)
(0.10881 -0.00750291 0)
(0.12364 -0.00717606 0)
(0.137691 -0.00674067 0)
(0.150753 -0.00618858 0)
(0.162577 -0.00548368 0)
(0.172896 -0.00469717 0)
(0.181504 -0.0038106 0)
(0.188208 -0.00283319 0)
(0.192868 -0.00179182 0)
(0.195388 -0.000687716 0)
(0.195688 0.000394307 0)
(0.193706 0.00152233 0)
(0.189498 0.00260868 0)
(0.183167 0.00364582 0)
(0.17484 0.00458834 0)
(0.164691 0.00544229 0)
(0.15291 0.00619383 0)
(0.139767 0.00682109 0)
(0.125496 0.00732039 0)
(0.110303 0.00771644 0)
(0.0944164 0.00800143 0)
(0.0780696 0.00819954 0)
(0.0614414 0.00827235 0)
(0.0447537 0.00825446 0)
(0.0282171 0.00811582 0)
(0.0120152 0.007908 0)
(-0.00365173 0.00764406 0)
(-0.0186614 0.00727034 0)
(-0.0329161 0.00688481 0)
(-0.0463701 0.00646216 0)
(-0.0589988 0.00604495 0)
(-0.0707891 0.00564635 0)
(-0.0817356 0.00521122 0)
(-0.0918282 0.00481441 0)
(-0.101105 0.00439442 0)
(-0.109557 0.00399323 0)
(-0.117194 0.0035989 0)
(-0.124065 0.00322458 0)
(-0.130211 0.00285606 0)
(-0.135637 0.00250868 0)
(-0.140357 0.00221384 0)
(-0.144498 0.00188891 0)
(-0.148076 0.00162284 0)
(-0.151082 0.00140806 0)
(-0.153638 0.00113497 0)
(-0.15575 0.00091984 0)
(-0.157412 0.00075766 0)
(-0.158658 0.000491839 0)
(-0.159447 0.00028809 0)
(-0.159781 6.70243e-05 0)
(-0.159696 -0.00015692 0)
(-0.159203 -0.00037844 0)
(-0.158229 -0.000553331 0)
(-0.156832 -0.000797541 0)
(-0.155017 -0.00101483 0)
(-0.152752 -0.00124587 0)
(-0.150002 -0.00148171 0)
(-0.146711 -0.00176417 0)
(-0.142897 -0.00204164 0)
(-0.138494 -0.00231329 0)
(-0.133479 -0.00264492 0)
(-0.127829 -0.00295402 0)
(-0.121506 -0.00329912 0)
(-0.11448 -0.00367882 0)
(-0.106687 -0.00403976 0)
(-0.0980999 -0.00445318 0)
(-0.0887258 -0.00487175 0)
(-0.0785134 -0.00526102 0)
(-0.0674481 -0.00567933 0)
(-0.0555755 -0.00613492 0)
(-0.0428134 -0.00651084 0)
(-0.0292269 -0.00691189 0)
(-0.0148927 -0.00730977 0)
(0.000240254 -0.00766098 0)
(0.0160684 -0.00798096 0)
(0.0324292 -0.00822777 0)
(0.0491996 -0.00840511 0)
(0.0662662 -0.00849372 0)
(0.0834137 -0.00848174 0)
(0.100434 -0.00837064 0)
(0.117108 -0.0081239 0)
(0.133155 -0.00775196 0)
(0.148313 -0.00723622 0)
(0.162287 -0.006583 0)
(0.174808 -0.00579995 0)
(0.185631 -0.00491488 0)
(0.194534 -0.00390027 0)
(0.201327 -0.00279148 0)
(0.205831 -0.00164062 0)
(0.207918 -0.000437571 0)
(0.20757 0.000770234 0)
(0.204696 0.00201316 0)
(0.199477 0.00319886 0)
(0.191935 0.00427847 0)
(0.182212 0.00528913 0)
(0.170635 0.00618723 0)
(0.157417 0.00693623 0)
(0.142796 0.00755421 0)
(0.127143 0.00804992 0)
(0.110776 0.00829549 0)
(0.0939364 0.00845874 0)
(0.0767038 0.00851556 0)
(0.0596127 0.00848817 0)
(0.0428474 0.00826823 0)
(0.0262521 0.00802496 0)
(0.0105156 0.0077144 0)
(-0.00428955 0.0073795 0)
(-0.0184422 0.00695734 0)
(-0.0318027 0.00650751 0)
(-0.0443176 0.00607417 0)
(-0.0558972 0.00560354 0)
(-0.0666468 0.00520669 0)
(-0.0765569 0.00477116 0)
(-0.0856199 0.0043654 0)
(-0.0940035 0.00401636 0)
(-0.101682 0.00364928 0)
(-0.108641 0.00328458 0)
(-0.114963 0.00296774 0)
(-0.120622 0.00261583 0)
(-0.125644 0.00231875 0)
(-0.130017 0.00199439 0)
(-0.133721 0.0016704 0)
(-0.136826 0.00139829 0)
(-0.139312 0.00110194 0)
(-0.141213 0.000795435 0)
(-0.14259 0.00055743 0)
(-0.143409 0.000288502 0)
(-0.143692 -1.28351e-05 0)
(-0.143414 -0.000269522 0)
(-0.142564 -0.00057116 0)
(-0.141154 -0.000840944 0)
(-0.139124 -0.00114243 0)
(-0.136436 -0.00150205 0)
(-0.133067 -0.00185253 0)
(-0.12893 -0.00223054 0)
(-0.123946 -0.00268208 0)
(-0.11809 -0.0031137 0)
(-0.111289 -0.00363352 0)
(-0.103477 -0.00411602 0)
(-0.0946225 -0.00462295 0)
(-0.0846616 -0.00521452 0)
(-0.0735846 -0.0057312 0)
(-0.0614549 -0.00623292 0)
(-0.0482302 -0.00683769 0)
(-0.0339473 -0.00728442 0)
(-0.0186816 -0.00782436 0)
(-0.00260197 -0.00816719 0)
(0.0141307 -0.00843387 0)
(0.031494 -0.00878741 0)
(0.0493125 -0.00889625 0)
(0.0673469 -0.0088877 0)
(0.0853938 -0.00894205 0)
(0.103234 -0.00872087 0)
(0.120629 -0.00853028 0)
(0.137345 -0.00808338 0)
(0.153129 -0.00751762 0)
(0.167746 -0.00694459 0)
(0.180979 -0.00617849 0)
(0.192627 -0.00532692 0)
(0.202508 -0.00443521 0)
(0.210466 -0.00344163 0)
(0.216388 -0.00240193 0)
(0.220193 -0.00132997 0)
(0.221837 -0.00025535 0)
(0.22132 0.000804963 0)
(0.218533 0.00189106 0)
(0.213637 0.00294008 0)
(0.206727 0.00388879 0)
(0.197922 0.00481134 0)
(0.187364 0.00567287 0)
(0.175225 0.00635134 0)
(0.161702 0.00703211 0)
(0.146985 0.00749372 0)
(0.131289 0.00797485 0)
(0.11481 0.00836544 0)
(0.0977531 0.0085085 0)
(0.0803238 0.00869965 0)
(0.0627058 0.00879926 0)
(0.0450773 0.00866597 0)
(0.0275433 0.0085917 0)
(0.010128 0.00830296 0)
(-0.00651389 0.00812152 0)
(-0.0223187 0.00783401 0)
(-0.0376476 0.00739228 0)
(-0.0521899 0.00700528 0)
(-0.0675024 0.00657009 0)
(-0.143767 -0.00530493 0)
(-0.136696 -0.00596715 0)
(-0.127647 -0.00660697 0)
(-0.117644 -0.0072552 0)
(-0.106665 -0.0079821 0)
(-0.0946906 -0.00864042 0)
(-0.0817263 -0.00938968 0)
(-0.0677743 -0.0100232 0)
(-0.0528713 -0.0106163 0)
(-0.0370639 -0.0113192 0)
(-0.0203819 -0.0118085 0)
(-0.00299283 -0.0122073 0)
(0.014984 -0.0127306 0)
(0.0334888 -0.0129274 0)
(0.0523194 -0.0132394 0)
(0.0712846 -0.013166 0)
(0.0901553 -0.0129231 0)
(0.108701 -0.0127645 0)
(0.126666 -0.0121859 0)
(0.143784 -0.01143 0)
(0.159805 -0.0106904 0)
(0.174452 -0.00960235 0)
(0.187489 -0.00837015 0)
(0.198694 -0.00707514 0)
(0.207848 -0.00558218 0)
(0.214803 -0.00401433 0)
(0.219418 -0.00235159 0)
(0.221633 -0.000661271 0)
(0.221392 0.0010283 0)
(0.218643 0.00274323 0)
(0.213491 0.00442945 0)
(0.20603 0.00592127 0)
(0.19641 0.00741035 0)
(0.184789 0.00861312 0)
(0.171408 0.00981077 0)
(0.15647 0.0108853 0)
(0.140214 0.0115502 0)
(0.122927 0.0122455 0)
(0.104841 0.0127784 0)
(0.086201 0.0129063 0)
(0.0672391 0.0130827 0)
(0.0481745 0.0129132 0)
(0.0292013 0.0128055 0)
(0.0109276 0.0125192 0)
(-0.00645245 0.0120708 0)
(-0.0233519 0.0116316 0)
(-0.0396528 0.0111084 0)
(-0.0551409 0.0104537 0)
(-0.0697583 0.00984633 0)
(-0.0834484 0.00919866 0)
(-0.0961769 0.00849929 0)
(-0.107945 0.00783953 0)
(-0.11875 0.0071538 0)
(-0.128611 0.00650599 0)
(-0.137537 0.00586155 0)
(-0.145555 0.00522757 0)
(-0.152692 0.00462388 0)
(-0.158968 0.004022 0)
(-0.164408 0.00343691 0)
(-0.169031 0.00288666 0)
(-0.172872 0.00232565 0)
(-0.175976 0.00181213 0)
(-0.178291 0.00127908 0)
(-0.179819 0.000751833 0)
(-0.180656 0.000291202 0)
(-0.180744 -0.000246886 0)
(-0.179998 -0.00081982 0)
(-0.178493 -0.00128461 0)
(-0.176211 -0.00190228 0)
(-0.173119 -0.00239963 0)
(-0.169272 -0.0029441 0)
(-0.164631 -0.00356544 0)
(-0.159154 -0.00413417 0)
(-0.152825 -0.0046518 0)