/*--------------------------------*- C++ -*----------------------------------*\
| =========                 |                                                 |
| \\      /  F ield         | OpenFOAM: The Open Source CFD Toolbox           |
|  \\    /   O peration     | Version:  3.0.1                                 |
|   \\  /    A nd           | Web:      www.OpenFOAM.org                      |
|    \\/     M anipulation  |                                                 |
\*---------------------------------------------------------------------------*/
FoamFile
{
    version     2.0;
    format      ascii;
    class       volScalarField;
    location    "25.6";
    object      p;
}
// * * * * * * * * * * * * * * * * * * * * * * * * * * * * * * * * * * * * * //

dimensions      [1 -1 -2 0 0 0 0];

internalField   nonuniform List<scalar> 
21420
(
3543.05
3548.05
3554.55
3562.57
3572.12
3583.27
3596.05
3610.51
3626.7
3644.64
3664.34
3685.82
3709.06
3734.02
3760.65
3788.87
3818.56
3849.58
3881.66
3914.35
3947.95
3981.87
4015.73
4049.16
4081.75
4113.08
4142.73
4170.3
4195.42
4217.76
4236.99
4252.83
4265.07
4273.51
4278.04
4278.47
4274.9
4267.37
4255.93
4240.82
4222.2
4200.37
4175.63
4148.29
4118.76
4087.43
4054.69
4020.94
3986.63
3952.15
3918.02
3885.98
3853.43
3821.6
3790.92
3761.64
3733.92
3707.89
3683.63
3661.19
3640.61
3621.87
3604.97
3589.87
3576.54
3564.94
3555.03
3546.79
3540.18
3535.17
3531.69
3529.66
3529.18
3530.5
3533.46
3538.01
3544.16
3551.86
3561.15
3572.03
3584.44
3598.41
3613.95
3631.01
3649.59
3669.69
3691.27
3714.3
3738.77
3764.64
3791.81
3820.22
3849.73
3880.2
3911.44
3943.2
3975.21
4007.16
4038.72
4069.52
4099.19
4127.35
4153.61
4177.6
4198.97
4217.38
4232.53
4244.17
4252.07
4256.09
4256.02
4251.98
4243.9
4231.84
4215.97
4196.5
4173.69
4147.88
4119.45
4088.8
4056.39
4022.67
3988.1
3953.14
3918.2
3883.69
3849.98
3817.36
3786.11
3756.43
3728.5
3702.44
3678.32
3656.18
3636.04
3617.87
3601.63
3587.26
3574.7
3563.86
3554.67
3547.03
3540.87
3536.1
3532.64
3530.45
3529.51
3529.72
3531.1
3533.65
3537.38
3542.33
3548.55
3556.08
3564.97
3575.3
3587.12
3600.49
3615.46
3632.09
3650.38
3670.37
3692.05
3715.39
3740.36
3766.89
3794.85
3824.12
3854.55
3885.82
3917.7
3949.89
3982.03
4013.75
4044.65
4074.32
4102.34
4128.31
4151.82
4172.53
4190.11
4204.29
4214.84
4221.57
4224.38
4223.17
4218.02
4209.01
4196.2
4179.81
4160.08
4137.3
4111.82
4083.98
4054.19
4022.85
3990.38
3957.17
3923.63
3890.12
3856.97
3824.51
3792.98
3762.61
3733.59
3706.05
3680.13
3655.89
3633.38
3612.65
3593.69
3576.5
3561.04
3547.28
3535.19
3524.74
3515.89
3508.59
3502.81
3498.5
3495.63
3494.2
3494.1
3495.33
3497.87
3501.71
3506.84
3513.26
3520.98
3530.03
3540.44
3552.23
3565.43
3580.07
3596.2
3613.82
3632.95
3653.59
3675.74
3699.36
3724.39
3750.73
3778.82
3807.49
3837.1
3867.41
3898.18
3929.08
3959.82
3990.03
4019.35
4047.4
4073.8
4098.16
4120.13
4139.35
4155.51
4168.33
4177.58
4183.09
4184.66
4182.38
4176.14
4166.04
4152.18
4134.77
4114.07
4090.37
4064.03
4035.44
4005.02
3973.2
3940.44
3907.15
3873.72
3840.5
3807.74
3775.83
3753.51
3726.06
3700.07
3675.81
3653.36
3632.73
3613.92
3596.89
3581.58
3567.92
3555.84
3545.26
3536.13
3528.38
3521.96
3516.84
3513
3510.42
3509.12
3509.17
3510.78
3513.8
3518.26
3524.16
3531.5
3540.28
3550.52
3562.24
3575.45
3590.17
3606.43
3624.22
3643.58
3664.49
3686.92
3710.83
3736.15
3762.79
3790.61
3819.46
3849.21
3879.72
3910.75
3942.03
3973.33
4004.35
4034.8
4064.33
4092.61
4119.33
4144.17
4166.76
4186.84
4204.09
4218.26
4229.11
4236.45
4240
4239.24
4234.57
4226.08
4213.73
4197.71
4178.22
4155.52
4129.96
4101.89
4071.73
4039.96
4007.02
3973.38
3939.52
3905.93
3873.13
3842
3816.45
3788.55
3762.21
3737.8
3444.9
3449.89
3456.39
3464.41
3473.96
3485.1
3497.88
3512.34
3528.53
3546.46
3566.16
3587.64
3610.88
3635.84
3662.47
3690.69
3720.39
3751.41
3783.51
3816.2
3849.81
3883.75
3917.62
3951.07
3983.67
4015.02
4044.69
4072.27
4097.42
4119.77
4139.01
4154.87
4167.12
4175.56
4180.1
4180.53
4176.95
4169.41
4157.97
4142.84
4124.22
4102.37
4077.61
4050.25
4020.71
3989.36
3956.6
3922.84
3888.51
3854.01
3819.86
3787.83
3755.27
3723.43
3692.74
3663.46
3635.74
3609.71
3585.45
3563.01
3542.43
3523.7
3506.8
3491.7
3478.37
3466.77
3456.87
3448.62
3442.01
3437.01
3433.52
3431.5
3431.03
3432.34
3435.3
3439.85
3446
3453.7
3463
3473.87
3486.28
3500.25
3515.79
3532.85
3551.42
3571.52
3593.1
3616.14
3640.61
3666.47
3693.64
3722.05
3751.57
3782.05
3813.29
3845.06
3877.08
3909.05
3940.62
3971.44
4001.13
4029.31
4055.58
4079.59
4100.98
4119.4
4134.56
4146.21
4154.12
4158.15
4158.09
4154.03
4145.95
4133.89
4118
4098.51
4075.69
4049.87
4021.41
3990.75
3958.32
3924.58
3889.99
3855
3820.06
3785.54
3751.81
3719.19
3687.92
3658.24
3630.31
3604.25
3580.13
3558
3537.86
3519.69
3503.45
3489.08
3476.53
3465.69
3456.5
3448.87
3442.71
3437.95
3434.49
3432.3
3431.36
3431.57
3432.95
3435.5
3439.24
3444.18
3450.39
3457.92
3466.81
3477.14
3488.96
3502.32
3517.29
3533.91
3552.21
3572.19
3593.87
3617.21
3642.19
3668.71
3696.68
3725.96
3756.39
3787.67
3819.56
3851.76
3883.92
3915.66
3946.58
3976.26
4004.3
4030.28
4053.82
4074.54
4092.14
4106.33
4116.88
4123.62
4126.44
4125.22
4120.07
4111.05
4098.23
4081.83
4062.09
4039.3
4013.79
3985.94
3956.13
3924.77
3892.28
3859.06
3825.5
3791.98
3758.82
3726.35
3694.81
3664.44
3635.41
3607.88
3581.95
3557.71
3535.21
3514.47
3495.52
3478.32
3462.86
3449.11
3437.03
3426.58
3417.73
3410.43
3404.65
3400.34
3397.48
3396.05
3395.94
3397.18
3399.72
3403.56
3408.69
3415.1
3422.83
3431.88
3442.28
3454.06
3467.26
3481.91
3498.03
3515.65
3534.78
3555.42
3577.57
3601.19
3626.22
3652.56
3680.66
3709.33
3738.95
3769.27
3800.04
3830.96
3861.71
3891.94
3921.27
3949.34
3975.76
4000.14
4022.12
4041.36
4057.53
4070.36
4079.63
4085.14
4086.72
4084.42
4078.18
4068.08
4054.21
4036.79
4016.07
3992.36
3965.99
3937.39
3906.95
3875.12
3842.34
3809.03
3775.59
3742.36
3709.59
3677.67
3655.33
3627.87
3601.89
3577.63
3555.18
3534.55
3515.75
3498.72
3483.41
3469.75
3457.67
3447.1
3437.97
3430.22
3423.81
3418.69
3414.85
3412.27
3410.97
3411.01
3412.62
3415.65
3420.11
3426.01
3433.34
3442.12
3452.36
3464.08
3477.29
3492.01
3508.26
3526.06
3545.42
3566.32
3588.75
3612.66
3637.99
3664.63
3692.45
3721.3
3751.06
3781.58
3812.62
3843.91
3875.22
3906.25
3936.71
3966.26
3994.55
4021.29
4046.14
4068.75
4088.84
4106.11
4120.29
4131.15
4138.49
4142.06
4141.29
4136.62
4128.12
4115.77
4099.73
4080.24
4057.52
4031.94
4003.85
3973.67
3941.88
3908.92
3875.26
3841.39
3807.78
3774.98
3743.84
3718.25
3690.35
3664.01
3639.6
3346.68
3351.67
3358.17
3366.18
3375.73
3386.87
3399.64
3414.1
3430.28
3448.21
3467.9
3489.38
3512.61
3537.58
3564.22
3592.44
3622.15
3653.17
3685.29
3718
3751.63
3785.59
3819.5
3852.98
3885.62
3917
3946.71
3974.33
3999.5
4021.89
4041.16
4057.04
4069.31
4077.77
4082.31
4082.76
4079.16
4071.61
4060.15
4045
4026.35
4004.47
3979.67
3952.28
3922.7
3891.32
3858.52
3824.73
3790.36
3755.83
3721.64
3689.65
3657.05
3625.19
3594.49
3565.2
3537.47
3511.44
3487.18
3464.75
3444.17
3425.44
3408.54
3393.45
3380.13
3368.54
3358.64
3350.39
3343.79
3338.78
3335.29
3333.28
3332.82
3334.13
3337.08
3341.63
3347.78
3355.48
3364.78
3375.65
3388.06
3402.03
3417.56
3434.62
3453.19
3473.29
3494.87
3517.9
3542.37
3568.23
3595.41
3623.83
3653.35
3683.85
3715.1
3746.89
3778.94
3810.93
3842.53
3873.38
3903.1
3931.32
3957.63
3981.67
4003.09
4021.54
4036.73
4048.4
4056.33
4060.36
4060.32
4056.24
4048.16
4036.08
4020.17
4000.65
3977.8
3951.94
3923.44
3892.74
3860.27
3826.49
3791.86
3756.85
3721.87
3687.32
3653.58
3620.93
3589.66
3559.97
3532.03
3505.97
3481.85
3459.72
3439.59
3421.42
3405.19
3390.83
3378.28
3367.46
3358.28
3350.66
3344.5
3339.75
3336.29
3334.11
3333.17
3333.38
3334.76
3337.3
3341.04
3345.98
3352.19
3359.71
3368.6
3378.92
3390.73
3404.09
3419.05
3435.67
3453.96
3473.94
3495.61
3518.96
3543.93
3570.46
3598.44
3627.73
3658.18
3689.47
3721.39
3753.61
3785.8
3817.57
3848.52
3878.25
3906.32
3932.34
3955.91
3976.67
3994.29
4008.51
4019.08
4025.83
4028.66
4027.43
4022.27
4013.24
4000.4
3983.98
3964.2
3941.38
3915.84
3887.95
3858.11
3826.71
3794.19
3760.94
3727.35
3693.8
3660.62
3628.13
3596.58
3566.2
3537.16
3509.62
3483.69
3459.45
3436.95
3416.22
3397.26
3380.07
3364.62
3350.87
3338.79
3328.35
3319.5
3312.21
3306.44
3302.13
3299.27
3297.84
3297.74
3298.97
3301.52
3305.36
3310.48
3316.9
3324.62
3333.67
3344.06
3355.85
3369.04
3383.68
3399.8
3417.41
3436.54
3457.18
3479.33
3502.95
3527.98
3554.33
3582.43
3611.11
3640.75
3671.09
3701.88
3732.83
3763.6
3793.86
3823.23
3851.33
3877.78
3902.2
3924.21
3943.48
3959.68
3972.54
3981.82
3987.35
3988.94
3986.62
3980.38
3970.26
3956.37
3938.92
3918.18
3894.43
3868.03
3839.39
3808.91
3777.04
3744.23
3710.88
3677.43
3644.18
3611.4
3579.45
3557.08
3529.61
3503.62
3479.37
3456.91
3436.3
3417.5
3400.48
3385.17
3371.52
3359.45
3348.89
3339.76
3332.01
3325.6
3320.49
3316.65
3314.07
3312.77
3312.8
3314.41
3317.44
3321.9
3327.8
3335.13
3343.91
3354.14
3365.86
3379.06
3393.78
3410.03
3427.82
3447.18
3468.09
3490.51
3514.42
3539.76
3566.4
3594.23
3623.1
3652.87
3683.4
3714.46
3745.77
3777.1
3808.16
3838.64
3868.22
3896.54
3923.31
3948.19
3970.83
3990.94
4008.24
4022.44
4033.32
4040.68
4044.29
4043.49
4038.82
4030.31
4017.94
4001.88
3982.36
3959.61
3933.99
3905.86
3875.64
3843.81
3810.82
3777.12
3743.22
3709.59
3676.76
3645.63
3619.95
3592.05
3565.71
3541.3
3248.41
3253.4
3259.89
3267.89
3277.43
3288.57
3301.33
3315.78
3331.96
3349.88
3369.57
3391.04
3414.27
3439.24
3465.88
3494.11
3523.83
3554.87
3587.02
3619.74
3653.41
3687.42
3721.37
3754.9
3787.59
3819.03
3848.79
3876.46
3901.69
3924.12
3943.43
3959.35
3971.65
3980.13
3984.67
3985.14
3981.52
3973.95
3962.47
3947.29
3928.59
3906.67
3881.82
3854.38
3824.74
3793.3
3760.46
3726.61
3692.2
3657.62
3623.36
3591.43
3558.78
3526.89
3496.17
3466.86
3439.13
3413.09
3388.84
3366.4
3345.83
3327.11
3310.22
3295.13
3281.81
3270.23
3260.34
3252.1
3245.5
3240.49
3237
3235
3234.55
3235.86
3238.81
3243.36
3249.51
3257.21
3266.5
3277.37
3289.78
3303.74
3319.27
3336.33
3354.9
3374.99
3396.57
3419.6
3444.07
3469.93
3497.12
3525.54
3555.08
3585.59
3616.87
3648.69
3680.77
3712.8
3744.45
3775.35
3805.12
3833.38
3859.74
3883.84
3905.3
3923.8
3939.03
3950.73
3958.68
3962.72
3962.7
3958.61
3950.51
3938.41
3922.47
3902.91
3880
3854.09
3825.53
3794.77
3762.24
3728.4
3693.72
3658.66
3623.63
3589.05
3555.27
3522.61
3491.31
3461.61
3433.67
3407.6
3383.48
3361.36
3341.23
3323.08
3306.86
3292.51
3279.97
3269.16
3259.99
3252.38
3246.24
3241.49
3238.04
3235.87
3234.92
3235.14
3236.52
3239.06
3242.79
3247.73
3253.93
3261.44
3270.32
3280.63
3292.44
3305.79
3320.74
3337.35
3355.63
3375.61
3397.28
3420.63
3445.6
3472.14
3500.13
3529.43
3559.9
3591.22
3623.17
3655.44
3687.67
3719.49
3750.49
3780.27
3808.4
3834.47
3858.09
3878.9
3896.57
3910.82
3921.42
3928.19
3931.03
3929.81
3924.62
3915.57
3902.71
3886.24
3866.43
3843.56
3817.96
3790.02
3760.12
3728.68
3696.1
3662.8
3629.17
3595.58
3562.37
3529.85
3498.28
3467.88
3438.83
3411.29
3385.35
3361.11
3338.61
3317.89
3298.94
3281.75
3266.31
3252.57
3240.49
3230.06
3221.21
3213.93
3208.16
3203.85
3201.01
3199.58
3199.48
3200.72
3203.26
3207.1
3212.23
3218.64
3226.35
3235.4
3245.79
3257.57
3270.75
3285.39
3301.5
3319.11
3338.23
3358.87
3381.02
3404.64
3429.68
3456.04
3484.14
3512.84
3542.5
3572.87
3603.69
3634.68
3665.49
3695.79
3725.21
3753.36
3779.87
3804.33
3826.4
3845.71
3861.96
3874.85
3884.16
3889.7
3891.32
3888.97
3882.73
3872.59
3858.67
3841.18
3820.39
3796.59
3770.13
3741.43
3710.9
3678.98
3646.11
3612.72
3579.23
3545.95
3513.16
3481.18
3458.75
3431.25
3405.27
3381.02
3358.57
3337.96
3319.17
3302.16
3286.87
3273.23
3261.16
3250.61
3241.49
3233.75
3227.34
3222.23
3218.4
3215.82
3214.51
3214.52
3216.15
3219.18
3223.64
3229.53
3236.86
3245.64
3255.86
3267.58
3280.78
3295.49
3311.73
3329.52
3348.88
3369.78
3392.21
3416.12
3441.46
3468.11
3495.96
3524.83
3554.63
3585.18
3616.26
3647.6
3678.97
3710.06
3740.59
3770.21
3798.57
3825.39
3850.31
3872.99
3893.15
3910.49
3924.72
3935.63
3943.01
3946.68
3945.84
3941.18
3932.65
3920.25
3904.16
3884.59
3861.8
3836.12
3807.94
3777.66
3745.77
3712.72
3678.97
3645.02
3611.34
3578.48
3547.36
3521.56
3493.66
3467.31
3442.9
3150.07
3155.06
3161.55
3169.54
3179.07
3190.2
3202.95
3217.39
3233.56
3251.47
3271.15
3292.62
3315.85
3340.82
3367.46
3395.7
3425.43
3456.5
3488.68
3521.43
3555.15
3589.21
3623.22
3656.82
3689.58
3721.09
3750.93
3778.67
3803.96
3826.46
3845.83
3861.8
3874.13
3882.64
3887.19
3887.68
3884.04
3876.45
3864.93
3849.7
3830.95
3808.97
3784.05
3756.54
3726.83
3695.32
3662.4
3628.49
3594.01
3559.36
3525.02
3493.16
3460.45
3428.51
3397.77
3368.44
3340.7
3314.66
3290.41
3267.98
3247.41
3228.7
3211.82
3196.74
3183.43
3171.86
3161.97
3153.74
3147.14
3142.13
3138.65
3136.67
3136.22
3137.53
3140.48
3145.03
3151.17
3158.87
3168.16
3179.03
3191.44
3205.4
3220.92
3237.97
3256.54
3276.62
3298.2
3321.23
3345.69
3371.56
3398.76
3427.19
3456.75
3487.29
3518.6
3550.46
3582.58
3614.66
3646.37
3677.33
3707.17
3735.5
3761.93
3786.09
3807.62
3826.18
3841.46
3853.2
3861.19
3865.25
3865.25
3861.14
3853.02
3840.89
3824.9
3805.28
3782.31
3756.32
3727.69
3696.85
3664.23
3630.32
3595.57
3560.44
3525.35
3490.72
3456.9
3424.2
3392.89
3363.17
3335.21
3309.14
3285.03
3262.91
3242.79
3224.65
3208.44
3194.11
3181.59
3170.8
3161.64
3154.04
3147.92
3143.18
3139.74
3137.58
3136.64
3136.85
3138.23
3140.77
3144.5
3149.43
3155.62
3163.12
3171.99
3182.29
3194.08
3207.42
3222.36
3238.96
3257.23
3277.2
3298.87
3322.22
3347.2
3373.74
3401.75
3431.07
3461.56
3492.93
3524.92
3557.24
3589.53
3621.41
3652.49
3682.34
3710.54
3736.69
3760.38
3781.25
3798.97
3813.27
3823.91
3830.7
3833.55
3832.34
3827.14
3818.05
3805.15
3788.64
3768.76
3745.83
3720.16
3692.15
3662.18
3630.66
3598.01
3564.65
3530.96
3497.32
3464.07
3431.52
3399.92
3369.5
3340.43
3312.88
3286.94
3262.69
3240.2
3219.48
3200.53
3183.36
3167.92
3154.19
3142.13
3131.7
3122.86
3115.58
3109.82
3105.53
3102.69
3101.26
3101.17
3102.41
3104.96
3108.79
3113.92
3120.32
3128.04
3137.08
3147.46
3159.23
3172.41
3187.03
3203.14
3220.74
3239.85
3260.49
3282.64
3306.26
3331.31
3357.69
3385.77
3414.5
3444.2
3474.6
3505.47
3536.5
3567.37
3597.74
3627.22
3655.44
3682.01
3706.55
3728.68
3748.06
3764.36
3777.29
3786.64
3792.2
3793.85
3791.49
3785.23
3775.06
3761.1
3743.56
3722.7
3698.83
3672.3
3643.53
3612.92
3580.92
3547.99
3514.54
3481
3447.68
3414.87
3382.86
3360.33
3332.82
3306.83
3282.59
3260.15
3239.55
3220.77
3203.77
3188.49
3174.87
3162.81
3152.27
3143.16
3135.43
3129.03
3123.93
3120.1
3117.52
3116.21
3116.2
3117.83
3120.86
3125.32
3131.21
3138.54
3147.31
3157.53
3169.24
3182.43
3197.13
3213.37
3231.15
3250.5
3271.41
3293.83
3317.75
3343.1
3369.76
3397.62
3426.52
3456.34
3486.92
3518.04
3549.42
3580.83
3611.97
3642.55
3672.22
3700.65
3727.52
3752.5
3775.25
3795.46
3812.85
3827.13
3838.07
3845.49
3849.2
3848.35
3843.69
3835.13
3822.7
3806.57
3786.94
3764.08
3738.33
3710.07
3679.71
3647.74
3614.62
3580.79
3546.78
3513.05
3480.15
3449.02
3423.07
3395.16
3368.81
3344.39
3051.68
3056.66
3063.14
3071.13
3080.65
3091.76
3104.5
3118.93
3135.09
3152.99
3172.66
3194.12
3217.35
3242.32
3268.96
3297.22
3326.97
3358.06
3390.28
3423.07
3456.85
3490.98
3525.07
3558.75
3591.6
3623.2
3653.12
3680.95
3706.33
3728.91
3748.35
3764.38
3776.76
3785.3
3789.88
3790.37
3786.72
3779.09
3767.53
3752.24
3733.42
3711.36
3686.36
3658.76
3628.97
3597.37
3564.36
3530.37
3495.8
3461.06
3426.61
3394.86
3362.06
3330.07
3299.29
3269.95
3242.2
3216.15
3191.9
3169.47
3148.91
3130.21
3113.34
3098.27
3084.98
3073.41
3063.54
3055.31
3048.72
3043.72
3040.24
3038.27
3037.83
3039.15
3042.09
3046.64
3052.78
3060.48
3069.77
3080.63
3093.03
3106.99
3122.51
3139.56
3158.12
3178.19
3199.76
3222.79
3247.26
3273.12
3300.33
3328.78
3358.36
3388.93
3420.28
3452.18
3484.37
3516.52
3548.3
3579.33
3609.25
3637.67
3664.19
3688.43
3710.04
3728.67
3744.02
3755.82
3763.85
3767.93
3767.94
3763.84
3755.69
3743.51
3727.47
3707.78
3684.72
3658.64
3629.91
3598.97
3566.26
3532.24
3497.4
3462.19
3427.03
3392.34
3358.46
3325.72
3294.38
3264.64
3236.67
3210.59
3186.48
3164.37
3144.27
3126.14
3109.95
3095.64
3083.14
3072.36
3063.23
3055.65
3049.54
3044.81
3041.39
3039.24
3038.3
3038.52
3039.9
3042.44
3046.16
3051.08
3057.26
3064.74
3073.6
3083.88
3095.65
3108.98
3123.91
3140.5
3158.76
3178.72
3200.38
3223.73
3248.71
3275.27
3303.29
3332.65
3363.17
3394.58
3426.63
3459.01
3491.38
3523.34
3554.51
3584.45
3612.74
3638.98
3662.76
3683.71
3701.5
3715.86
3726.54
3733.37
3736.22
3735.02
3729.8
3720.68
3707.73
3691.15
3671.2
3648.19
3622.44
3594.33
3564.27
3532.66
3499.93
3466.49
3432.73
3399.03
3365.72
3333.12
3301.49
3271.04
3241.96
3214.39
3188.44
3164.19
3141.7
3120.99
3102.06
3084.89
3069.47
3055.75
3043.7
3033.28
3024.45
3017.18
3011.43
3007.14
3004.32
3002.89
3002.8
3004.05
3006.6
3010.44
3015.56
3021.96
3029.67
3038.7
3049.07
3060.83
3074
3088.61
3104.71
3122.3
3141.41
3162.04
3184.18
3207.81
3232.87
3259.28
3287.33
3316.11
3345.84
3376.3
3407.22
3438.31
3469.25
3499.69
3529.26
3557.56
3584.22
3608.84
3631.06
3650.51
3666.88
3679.88
3689.27
3694.86
3696.52
3694.16
3687.88
3677.67
3663.66
3646.05
3625.12
3601.16
3574.54
3545.67
3514.97
3482.88
3449.86
3416.34
3382.74
3349.37
3316.54
3284.49
3261.83
3234.29
3208.31
3184.07
3161.64
3141.05
3122.29
3105.31
3090.04
3076.44
3064.4
3053.88
3044.78
3037.06
3030.67
3025.57
3021.74
3019.17
3017.86
3017.82
3019.46
3022.5
3026.95
3032.83
3040.16
3048.92
3059.13
3070.83
3084.01
3098.71
3114.94
3132.72
3152.06
3172.96
3195.39
3219.32
3244.67
3271.35
3299.23
3328.15
3358
3388.62
3419.78
3451.21
3482.68
3513.88
3544.52
3574.27
3602.77
3629.71
3654.77
3677.59
3697.87
3715.33
3729.66
3740.66
3748.1
3751.85
3751.02
3746.34
3737.76
3725.29
3709.1
3689.4
3666.46
3640.62
3612.26
3581.8
3549.74
3516.51
3482.6
3448.51
3414.71
3381.75
3350.63
3324.49
3296.57
3270.21
3245.79
2953.24
2958.21
2964.68
2972.65
2982.16
2993.26
3005.99
3020.4
3036.54
3054.42
3074.09
3095.54
3118.77
3143.73
3170.39
3198.65
3228.43
3259.56
3291.83
3324.66
3358.51
3392.72
3426.9
3460.68
3493.63
3525.34
3555.38
3583.31
3608.8
3631.47
3651
3667.1
3679.54
3688.12
3692.72
3693.22
3689.55
3681.88
3670.27
3654.91
3636.01
3613.86
3588.76
3561.05
3531.15
3499.44
3466.33
3432.24
3397.57
3362.72
3328.15
3296.51
3263.6
3231.55
3200.73
3171.37
3143.61
3117.56
3093.3
3070.89
3050.33
3031.64
3014.79
2999.73
2986.45
2974.9
2965.04
2956.83
2950.24
2945.24
2941.77
2939.82
2939.39
2940.7
2943.64
2948.19
2954.33
2962.03
2971.31
2982.17
2994.57
3008.52
3024.04
3041.08
3059.63
3079.7
3101.26
3124.29
3148.75
3174.62
3201.84
3230.3
3259.91
3290.51
3321.91
3353.88
3386.13
3418.36
3450.23
3481.36
3511.38
3539.9
3566.52
3590.87
3612.57
3631.29
3646.72
3658.58
3666.66
3670.77
3670.8
3666.69
3658.51
3646.28
3630.17
3610.39
3587.24
3561.04
3532.2
3501.13
3468.3
3434.17
3399.22
3363.9
3328.66
3293.89
3259.96
3227.17
3195.78
3166.02
3138.04
3111.96
3087.85
3065.75
3045.66
3027.55
3011.39
2997.1
2984.62
2973.86
2964.75
2957.2
2951.11
2946.4
2943
2940.86
2939.92
2940.15
2941.53
2944.06
2947.77
2952.68
2958.84
2966.31
2975.15
2985.41
2997.17
3010.48
3025.39
3041.96
3060.21
3080.16
3101.82
3125.16
3150.15
3176.72
3204.77
3234.15
3264.72
3296.18
3328.3
3360.76
3393.21
3425.28
3456.55
3486.6
3515.01
3541.35
3565.23
3586.28
3604.16
3618.59
3629.33
3636.19
3639.06
3637.86
3632.62
3623.45
3610.44
3593.79
3573.76
3550.64
3524.79
3496.57
3466.4
3434.68
3401.85
3368.31
3334.47
3300.69
3267.32
3234.66
3202.99
3172.51
3143.4
3115.82
3089.86
3065.62
3043.13
3022.42
3003.5
2986.35
2970.94
2957.24
2945.2
2934.79
2925.98
2918.72
2912.98
2908.71
2905.89
2904.47
2904.39
2905.64
2908.19
2912.03
2917.14
2923.54
2931.24
2940.26
2950.63
2962.37
2975.53
2990.13
3006.21
3023.79
3042.89
3063.52
3085.66
3109.29
3134.37
3160.81
3188.83
3217.66
3247.44
3277.95
3308.94
3340.11
3371.13
3401.66
3431.32
3459.73
3486.49
3511.22
3533.54
3553.08
3569.53
3582.6
3592.04
3597.67
3599.35
3597
3590.68
3580.43
3566.35
3548.67
3527.64
3503.58
3476.85
3447.87
3417.04
3384.85
3351.73
3318.12
3284.44
3251.02
3218.16
3186.09
3163.22
3135.68
3109.7
3085.48
3063.06
3042.48
3023.73
3006.77
2991.53
2977.95
2965.93
2955.42
2946.34
2938.63
2932.25
2927.16
2923.33
2920.76
2919.45
2919.41
2921.04
2924.08
2928.52
2934.4
2941.72
2950.47
2960.68
2972.37
2985.54
3000.22
3016.44
3034.21
3053.55
3074.45
3096.88
3120.81
3146.18
3172.88
3200.78
3229.73
3259.61
3290.28
3321.49
3352.98
3384.51
3415.79
3446.51
3476.34
3504.93
3531.96
3557.11
3580.02
3600.39
3617.92
3632.32
3643.37
3650.87
3654.65
3653.83
3649.15
3640.53
3628.01
3611.76
3591.97
3568.93
3542.99
3514.51
3483.93
3451.75
3418.41
3384.39
3350.19
3316.31
3283.3
3252.16
3225.82
3197.88
3171.51
3147.08
2854.73
2859.69
2866.15
2874.12
2883.61
2894.69
2907.4
2921.79
2937.92
2955.79
2975.44
2996.89
3020.11
3045.07
3071.73
3100.01
3129.81
3160.98
3193.31
3226.19
3260.13
3294.43
3328.72
3362.62
3395.69
3427.53
3457.69
3485.75
3511.35
3534.14
3553.77
3569.96
3582.47
3591.1
3595.72
3596.23
3592.54
3584.82
3573.15
3557.72
3538.72
3516.46
3491.23
3463.4
3433.37
3401.54
3368.31
3334.1
3299.32
3264.35
3229.61
3198.13
3165.08
3132.96
3102.1
3072.71
3044.93
3018.88
2994.63
2972.22
2951.67
2933
2916.16
2901.12
2887.85
2876.32
2866.47
2858.27
2851.7
2846.7
2843.24
2841.3
2840.88
2842.2
2845.14
2849.68
2855.82
2863.52
2872.8
2883.65
2896.05
2910
2925.5
2942.53
2961.08
2981.14
3002.69
3025.72
3050.17
3076.05
3103.28
3131.76
3161.4
3192.05
3223.5
3255.54
3287.87
3320.19
3352.16
3383.4
3413.54
3442.18
3468.92
3493.39
3515.21
3534.03
3549.55
3561.49
3569.63
3573.78
3573.82
3569.71
3561.48
3549.2
3533.01
3513.13
3489.86
3463.53
3434.55
3403.34
3370.37
3336.1
3301.02
3265.59
3230.24
3195.39
3161.38
3128.53
3097.1
3067.31
3039.31
3013.23
2989.13
2967.04
2946.97
2928.88
2912.74
2898.48
2886.02
2875.3
2866.22
2858.69
2852.62
2847.93
2844.55
2842.43
2841.5
2841.73
2843.11
2845.63
2849.33
2854.23
2860.37
2867.82
2876.64
2886.88
2898.62
2911.9
2926.8
2943.35
2961.58
2981.53
3003.17
3026.52
3051.52
3078.1
3106.17
3135.59
3166.2
3197.73
3229.93
3262.48
3295.04
3327.22
3358.61
3388.79
3417.33
3443.8
3467.8
3488.96
3506.95
3521.46
3532.26
3539.16
3542.05
3540.86
3535.6
3526.37
3513.29
3496.56
3476.42
3453.19
3427.21
3398.87
3368.57
3336.73
3303.77
3270.12
3236.18
3202.31
3168.86
3136.15
3104.42
3073.91
3044.77
3017.17
2991.21
2966.96
2944.48
2923.78
2904.87
2887.74
2872.34
2858.65
2846.63
2836.24
2827.44
2820.19
2814.47
2810.21
2807.4
2805.99
2805.92
2807.18
2809.73
2813.57
2818.68
2825.07
2832.76
2841.77
2852.12
2863.85
2876.99
2891.58
2907.65
2925.22
2944.31
2964.93
2987.06
3010.7
3035.79
3062.27
3090.26
3119.15
3148.99
3179.56
3210.63
3241.88
3273
3303.63
3333.41
3361.94
3388.83
3413.67
3436.11
3455.76
3472.31
3485.46
3494.96
3500.63
3502.33
3499.98
3493.64
3483.33
3469.18
3451.4
3430.26
3406.08
3379.22
3350.11
3319.15
3286.83
3253.59
3219.87
3186.1
3152.62
3119.73
3087.67
3064.51
3036.98
3011.01
2986.8
2964.39
2943.83
2925.1
2908.16
2892.95
2879.39
2867.4
2856.91
2847.84
2840.15
2833.78
2828.7
2824.88
2822.31
2820.99
2820.94
2822.57
2825.6
2830.04
2835.92
2843.23
2851.97
2862.17
2873.84
2887
2901.67
2917.88
2935.64
2954.98
2975.87
2998.3
3022.24
3047.62
3074.34
3102.26
3131.25
3161.18
3191.9
3223.17
3254.73
3286.34
3317.7
3348.51
3378.44
3407.13
3434.27
3459.53
3482.54
3503.01
3520.63
3535.11
3546.23
3553.77
3557.59
3556.8
3552.11
3543.45
3530.88
3514.54
3494.66
3471.5
3445.43
3416.81
3386.1
3353.77
3320.31
3286.16
3251.85
3217.87
3184.78
3153.63
3127.05
3099.1
3072.71
3048.27
2756.17
2761.12
2767.56
2775.51
2784.99
2796.05
2808.74
2823.12
2839.22
2857.07
2876.71
2898.15
2921.36
2946.33
2972.99
3001.29
3031.12
3062.34
3094.73
3127.67
3161.7
3196.12
3230.53
3264.56
3297.77
3329.76
3360.07
3388.27
3414.01
3436.92
3456.67
3472.95
3485.54
3494.23
3498.87
3499.39
3495.69
3487.92
3476.18
3460.65
3441.54
3419.15
3393.79
3365.82
3335.65
3303.67
3270.3
3235.96
3201.04
3165.94
3131.01
3099.71
3066.5
3034.3
3003.39
2973.97
2946.18
2920.12
2895.87
2873.46
2852.93
2834.27
2817.45
2802.44
2789.19
2777.67
2767.84
2759.65
2753.09
2748.1
2744.66
2742.72
2742.31
2743.63
2746.58
2751.12
2757.26
2764.95
2774.23
2785.08
2797.47
2811.41
2826.9
2843.93
2862.46
2882.51
2904.06
2927.08
2951.53
2977.41
3004.65
3033.16
3062.84
3093.53
3125.04
3157.16
3189.58
3222.01
3254.1
3285.47
3315.74
3344.52
3371.4
3396
3417.95
3436.89
3452.52
3464.55
3472.75
3476.94
3477
3472.88
3464.61
3452.26
3435.98
3415.98
3392.58
3366.1
3336.96
3305.59
3272.46
3238.04
3202.81
3167.25
3131.78
3096.82
3062.73
3029.82
2998.34
2968.52
2940.5
2914.41
2890.31
2868.24
2848.19
2830.13
2814.01
2799.78
2787.36
2776.67
2767.62
2760.12
2754.08
2749.42
2746.06
2743.94
2743.02
2743.26
2744.64
2747.16
2750.84
2755.72
2761.85
2769.28
2778.07
2788.29
2800
2813.26
2828.14
2844.67
2862.88
2882.81
2904.45
2927.8
2952.8
2979.4
3007.5
3036.96
3067.63
3099.23
3131.52
3164.18
3196.85
3229.16
3260.7
3291.02
3319.71
3346.33
3370.47
3391.76
3409.86
3424.47
3435.34
3442.3
3445.21
3444.01
3438.72
3429.44
3416.28
3399.44
3379.19
3355.83
3329.71
3301.22
3270.77
3238.79
3205.7
3171.92
3137.86
3103.89
3070.36
3037.57
3005.79
2975.23
2946.07
2918.45
2892.47
2868.22
2845.74
2825.06
2806.17
2789.05
2773.68
2760.01
2748
2737.63
2728.84
2721.61
2715.9
2711.66
2708.86
2707.46
2707.4
2708.67
2711.22
2715.06
2720.17
2726.55
2734.23
2743.23
2753.56
2765.27
2778.4
2792.97
2809.02
2826.58
2845.65
2866.26
2888.4
2912.04
2937.14
2963.65
2991.64
3020.59
3050.48
3081.13
3112.28
3143.63
3174.86
3205.62
3235.53
3264.19
3291.22
3316.2
3338.77
3358.55
3375.22
3388.46
3398.03
3403.75
3405.47
3403.13
3396.75
3386.37
3372.14
3354.26
3332.99
3308.67
3281.67
3252.39
3221.29
3188.82
3155.44
3121.6
3087.73
3054.17
3021.25
2989.25
2965.66
2938.19
2912.24
2888.03
2865.64
2845.1
2826.4
2809.48
2794.3
2780.76
2768.8
2758.34
2749.29
2741.62
2735.26
2730.18
2726.37
2723.8
2722.49
2722.43
2724.05
2727.08
2731.51
2737.38
2744.68
2753.41
2763.6
2775.26
2788.4
2803.06
2819.25
2837
2856.33
2877.22
2899.65
2923.6
2948.99
2975.74
3003.69
3032.71
3062.69
3093.47
3124.81
3156.45
3188.15
3219.61
3250.53
3280.57
3309.38
3336.64
3362.02
3385.15
3405.73
3423.45
3438.03
3449.22
3456.82
3460.69
3459.91
3455.22
3446.52
3433.88
3417.45
3397.46
3374.17
3347.95
3319.18
3288.3
3255.82
3222.2
3187.91
3153.46
3119.37
3086.2
3055.02
3028.2
3000.22
2973.81
2949.35
2657.54
2662.49
2668.92
2676.85
2686.31
2697.35
2710.02
2724.37
2740.45
2758.28
2777.9
2799.33
2822.54
2847.5
2874.18
2902.49
2932.35
2963.62
2996.09
3029.09
3063.23
3097.78
3132.32
3166.5
3199.88
3232.02
3262.5
3290.86
3316.75
3339.82
3359.69
3376.09
3388.76
3397.51
3402.19
3402.72
3398.99
3391.17
3379.34
3363.71
3344.47
3321.95
3296.44
3268.3
3237.96
3205.83
3172.3
3137.81
3102.75
3067.49
3032.36
3001.23
2967.85
2935.56
2904.6
2875.15
2847.34
2821.27
2797.02
2774.63
2754.12
2735.47
2718.67
2703.68
2690.45
2678.95
2669.14
2660.97
2654.42
2649.44
2646.01
2644.09
2643.69
2645.01
2647.96
2652.5
2658.63
2666.33
2675.59
2686.44
2698.82
2712.75
2728.24
2745.25
2763.78
2783.81
2805.35
2828.37
2852.82
2878.7
2905.95
2934.49
2964.21
2994.96
3026.54
3058.74
3091.27
3123.82
3156.04
3187.55
3217.97
3246.91
3273.94
3298.7
3320.8
3339.87
3355.62
3367.75
3376.02
3380.26
3380.34
3376.21
3367.9
3355.47
3339.08
3318.96
3295.4
3268.76
3239.44
3207.89
3174.57
3139.98
3104.58
3068.87
3033.27
2998.2
2964.01
2931.03
2899.5
2869.63
2841.6
2815.5
2791.41
2769.35
2749.32
2731.29
2715.21
2701.01
2688.63
2677.97
2668.95
2661.49
2655.48
2650.85
2647.51
2645.42
2644.51
2644.75
2646.12
2648.64
2652.31
2657.17
2663.28
2670.68
2679.45
2689.64
2701.32
2714.56
2729.4
2745.91
2764.11
2784.02
2805.65
2828.99
2854
2880.62
2908.75
2938.27
2968.99
3000.68
3033.07
3065.85
3098.65
3131.11
3162.8
3193.29
3222.15
3248.93
3273.23
3294.67
3312.9
3327.62
3338.58
3345.59
3348.52
3347.32
3342.01
3332.66
3319.41
3302.46
3282.07
3258.56
3232.28
3203.63
3173.01
3140.87
3107.62
3073.7
3039.51
3005.43
2971.8
2938.93
2907.09
2876.48
2847.29
2819.64
2793.66
2769.41
2746.93
2726.26
2707.38
2690.29
2674.94
2661.29
2649.3
2638.95
2630.18
2622.97
2617.27
2613.05
2610.27
2608.88
2608.83
2610.1
2612.66
2616.49
2621.6
2627.97
2635.64
2644.62
2654.94
2666.64
2679.74
2694.3
2710.33
2727.87
2746.93
2767.53
2789.66
2813.31
2838.43
2864.97
2892.96
2921.96
2951.92
2982.66
3013.9
3045.36
3076.72
3107.62
3137.67
3166.49
3193.67
3218.82
3241.54
3261.46
3278.25
3291.6
3301.25
3307.03
3308.77
3306.43
3300.01
3289.56
3275.23
3257.23
3235.83
3211.34
3184.18
3154.73
3123.45
3090.82
3057.28
3023.31
2989.32
2955.68
2922.72
2890.81
2866.69
2839.31
2813.38
2789.19
2766.81
2746.29
2727.61
2710.73
2695.58
2682.08
2670.14
2659.7
2650.69
2643.03
2636.69
2631.62
2627.81
2625.25
2623.93
2623.86
2625.47
2628.5
2632.93
2638.78
2646.07
2654.8
2664.96
2676.61
2689.74
2704.38
2720.56
2738.29
2757.61
2778.5
2800.93
2824.89
2850.3
2877.07
2905.05
2934.12
2964.16
2995.01
3026.42
3058.15
3089.95
3121.52
3152.56
3182.73
3211.67
3239.07
3264.58
3287.84
3308.55
3326.39
3341.08
3352.35
3360.02
3363.92
3363.18
3358.48
3349.74
3337.02
3320.5
3300.37
3276.93
3250.54
3221.6
3190.54
3157.88
3124.09
3089.63
3055.03
3020.81
2987.56
2956.34
2929.25
2901.24
2874.81
2850.34
2558.87
2563.79
2570.21
2578.13
2587.56
2598.58
2611.22
2625.55
2641.6
2659.41
2679.01
2700.43
2723.63
2748.59
2775.28
2803.61
2833.51
2864.84
2897.38
2930.45
2964.72
2999.4
3034.1
3068.45
3102
3134.33
3164.99
3193.53
3219.59
3242.82
3262.84
3279.36
3292.14
3300.95
3305.67
3306.2
3302.45
3294.57
3282.65
3266.9
3247.53
3224.84
3199.16
3170.85
3140.33
3108.01
3074.31
3039.65
3004.43
2969.01
2933.66
2902.7
2869.12
2836.74
2805.73
2776.25
2748.42
2722.34
2698.1
2675.71
2655.21
2636.59
2619.81
2604.84
2591.64
2580.17
2570.37
2562.22
2555.69
2550.72
2547.3
2545.39
2545
2546.33
2549.28
2553.82
2559.95
2567.64
2576.9
2587.74
2600.12
2614.04
2629.51
2646.52
2665.04
2685.06
2706.58
2729.59
2754.04
2779.92
2807.19
2835.76
2865.52
2896.33
2927.99
2960.29
2992.93
3025.62
3057.98
3089.65
3120.24
3149.35
3176.56
3201.49
3223.75
3242.98
3258.86
3271.1
3279.45
3283.75
3283.85
3279.71
3271.35
3258.83
3242.33
3222.06
3198.33
3171.5
3141.98
3110.22
3076.7
3041.91
3006.34
2970.45
2934.71
2899.51
2865.22
2832.16