/*--------------------------------*- C++ -*----------------------------------*\
| =========                 |                                                 |
| \\      /  F ield         | OpenFOAM: The Open Source CFD Toolbox           |
|  \\    /   O peration     | Version:  3.0.1                                 |
|   \\  /    A nd           | Web:      www.OpenFOAM.org                      |
|    \\/     M anipulation  |                                                 |
\*---------------------------------------------------------------------------*/
FoamFile
{
    version     2.0;
    format      ascii;
    class       volScalarField;
    location    "25.6";
    object      p_rgh;
}
// * * * * * * * * * * * * * * * * * * * * * * * * * * * * * * * * * * * * * //

dimensions      [1 -1 -2 0 0 0 0];

internalField   nonuniform List<scalar> 
21420
(
-331.896
-326.899
-320.396
-312.379
-302.829
-291.683
-278.905
-264.436
-248.247
-230.314
-210.613
-189.134
-165.895
-140.932
-114.297
-86.0795
-56.3857
-25.3738
6.71421
39.4028
73.0003
106.922
140.78
174.215
206.799
238.13
267.783
295.346
320.473
342.813
362.039
377.885
390.12
398.561
403.09
403.517
399.952
392.417
380.983
365.865
347.252
325.421
300.675
273.339
243.813
212.48
179.735
145.993
111.68
77.2044
43.0652
11.0265
-21.5229
-53.351
-84.0312
-113.314
-141.032
-167.063
-191.322
-213.759
-234.343
-253.076
-269.98
-285.082
-298.412
-310.009
-319.917
-328.164
-334.774
-339.778
-343.263
-345.292
-345.77
-344.455
-341.499
-336.946
-330.801
-323.096
-313.803
-302.933
-290.519
-276.55
-261.012
-243.955
-225.38
-205.282
-183.701
-160.668
-136.199
-110.339
-83.1661
-54.761
-25.2494
5.22449
36.4586
68.2188
100.229
132.181
163.74
194.543
224.214
252.374
278.635
302.627
323.995
342.404
357.554
369.189
377.094
381.116
381.049
377.002
368.928
356.87
340.998
321.522
298.718
272.912
244.477
213.832
181.421
147.701
113.131
78.1632
43.2284
8.72257
-24.9914
-57.6099
-88.8653
-118.542
-146.472
-172.536
-196.656
-218.788
-238.93
-257.102
-273.344
-287.714
-300.275
-311.111
-320.305
-327.94
-334.102
-338.868
-342.33
-344.524
-345.466
-345.254
-343.875
-341.326
-337.589
-332.64
-326.426
-318.896
-310.002
-299.673
-287.85
-274.483
-259.51
-242.887
-224.594
-204.607
-182.93
-159.583
-134.611
-108.088
-80.1209
-50.8525
-20.4218
10.8455
42.7273
74.9139
107.056
138.777
169.679
199.347
227.368
253.332
276.848
297.559
315.142
329.321
339.865
346.601
349.411
348.2
343.049
334.039
321.228
304.838
285.109
262.335
236.848
209.014
179.224
147.885
115.41
82.2047
48.661
15.1479
-17.9951
-50.4633
-81.9887
-112.358
-141.383
-168.915
-194.843
-219.084
-241.585
-262.319
-281.278
-298.475
-313.934
-327.69
-339.778
-350.227
-359.083
-366.382
-372.158
-376.474
-379.339
-380.77
-380.877
-379.644
-377.1
-373.263
-368.135
-361.718
-353.995
-344.941
-334.536
-322.751
-309.549
-294.901
-278.779
-261.16
-242.029
-221.382
-199.235
-175.618
-150.59
-124.246
-96.1553
-67.4877
-37.8769
-7.5614
23.1993
54.1072
84.8403
115.051
144.372
172.424
198.821
223.187
245.155
264.375
280.535
293.357
302.613
308.123
309.687
307.407
301.168
291.068
277.213
259.803
239.101
215.408
189.064
160.478
130.059
98.2439
65.4825
32.1875
-1.23223
-34.454
-67.2166
-99.1256
-121.448
-148.895
-174.884
-199.138
-221.595
-242.219
-261.029
-278.059
-293.372
-307.031
-319.115
-329.688
-338.823
-346.575
-352.99
-358.106
-361.946
-364.529
-365.827
-365.776
-364.17
-361.149
-356.688
-350.79
-343.45
-334.671
-324.431
-312.709
-299.499
-284.778
-268.524
-250.727
-231.366
-210.459
-188.035
-164.125
-138.799
-112.156
-84.3411
-55.4945
-25.7395
4.7732
35.7994
67.0815
98.3823
129.402
159.845
189.38
217.66
244.384
269.216
291.813
311.887
329.145
343.311
354.162
361.5
365.047
364.291
359.625
351.127
338.779
322.756
303.274
280.572
255.009
226.938
196.779
165.007
132.069
98.4269
64.5743
30.9796
-1.81676
-32.9501
-58.504
-86.403
-112.742
-137.146
-331.954
-326.958
-320.457
-312.442
-302.894
-291.75
-278.974
-264.508
-248.321
-230.39
-210.691
-189.213
-165.975
-141.012
-114.376
-86.1564
-56.4587
-25.4412
6.65606
39.3508
72.9604
106.896
140.77
174.22
206.823
238.172
267.842
295.422
320.567
342.923
362.163
378.021
390.266
398.713
403.246
403.681
400.104
392.564
381.123
365.993
347.366
325.521
300.758
273.404
243.86
212.509
179.747
145.988
111.658
77.1645
43.0062
10.9841
-21.5806
-53.4194
-84.1063
-113.393
-141.114
-167.145
-191.404
-213.841
-234.423
-253.155
-270.056
-285.156
-298.484
-310.079
-319.984
-328.23
-334.839
-339.844
-343.33
-345.355
-345.825
-344.512
-341.559
-337.007
-330.862
-323.158
-313.865
-302.996
-290.583
-276.616
-261.079
-244.023
-225.449
-205.353
-183.773
-160.741
-136.273
-110.412
-83.2375
-54.8297
-25.3136
5.16666
36.4082
68.1783
100.199
132.165
163.739
194.557
224.245
252.423
278.701
302.709
324.093
342.517
357.68
369.326
377.24
381.266
381.206
377.151
369.074
357.008
341.125
321.634
298.814
272.989
244.534
213.87
181.439
147.699
113.111
78.1269
43.1773
8.65878
-25.0657
-57.6925
-88.9541
-118.635
-146.568
-172.632
-196.752
-218.883
-239.021
-257.191
-273.43
-287.795
-300.353
-311.184
-320.375
-328.006
-334.164
-338.927
-342.388
-344.577
-345.519
-345.307
-343.928
-341.38
-337.644
-332.696
-326.485
-318.957
-310.066
-299.741
-287.921
-274.557
-259.586
-242.966
-224.675
-204.689
-183.013
-159.666
-134.693
-108.168
-80.1971
-50.9228
-20.486
10.7907
42.6839
74.8838
107.041
138.778
169.698
199.383
227.423
253.405
276.939
297.666
315.263
329.454
340.007
346.749
349.569
348.348
343.194
334.178
321.359
304.956
285.213
262.422
236.918
209.066
179.258
147.901
115.409
82.1878
48.6297
15.1039
-18.0499
-50.5271
-82.0597
-112.434
-141.463
-168.998
-194.927
-219.168
-241.669
-262.402
-281.359
-298.554
-314.011
-327.765
-339.85
-350.297
-359.151
-366.448
-372.223
-376.537
-379.398
-380.829
-380.935
-379.701
-377.157
-373.32
-368.193
-361.777
-354.054
-345.002
-334.6
-322.816
-309.616
-294.971
-278.85
-261.233
-242.104
-221.458
-199.311
-175.693
-150.663
-124.318
-96.2226
-67.5511
-37.9323
-7.60742
23.1642
54.0845
84.8313
115.057
144.395
172.464
198.879
223.262
245.246
264.481
280.655
293.489
302.754
308.27
309.845
307.551
301.313
291.206
277.341
259.918
239.201
215.49
189.128
160.524
130.085
98.2529
65.4748
32.1646
-1.26696
-34.498
-67.2655
-99.1872
-121.525
-148.981
-174.969
-199.223
-221.678
-242.299
-261.106
-278.132
-293.442
-307.097
-319.178
-329.748
-338.88
-346.63
-353.044
-358.158
-361.997
-364.58
-365.879
-365.836
-364.226
-361.203
-356.742
-350.845
-343.506
-334.728
-324.49
-312.77
-299.562
-284.842
-268.59
-250.794
-231.434
-210.527
-188.103
-164.192
-138.864
-112.22
-84.3994
-55.5479
-25.7869
4.73329
35.7682
67.0601
98.372
129.404
159.86
189.409
217.704
244.443
269.289
291.901
311.989
329.26
343.438
354.298
361.645
365.212
364.44
359.774
351.272
338.916
322.881
303.385
280.668
255.087
226.996
196.818
165.026
132.068
98.4087
64.54
30.9319
-1.87484
-33.0067
-58.6019
-86.5015
-112.842
-137.247
-332.07
-327.077
-320.578
-312.567
-303.024
-291.884
-279.113
-264.652
-248.47
-230.544
-210.848
-189.372
-166.135
-141.172
-114.535
-86.3101
-56.6048
-25.576
6.53994
39.2467
72.8806
106.844
140.748
174.232
206.869
238.254
267.961
295.576
320.755
343.142
362.411
378.294
390.558
399.018
403.555
404.008
400.408
392.859
381.402
366.25
347.595
325.719
300.923
273.533
243.954
212.567
179.77
145.978
111.614
77.0848
42.8875
10.9003
-21.6959
-53.5564
-84.2566
-113.551
-141.276
-167.31
-191.569
-214.003
-234.582
-253.31
-270.207
-285.302
-298.625
-310.216
-320.117
-328.36
-334.967
-339.972
-343.461
-345.475
-345.934
-344.623
-341.674
-337.122
-330.978
-323.275
-313.983
-303.115
-290.704
-276.738
-261.204
-244.15
-225.579
-205.485
-183.907
-160.876
-136.409
-110.547
-83.3684
-54.9552
-25.4298
5.06325
36.3197
68.1094
100.154
132.146
163.749
194.599
224.319
252.531
278.844
302.885
324.302
342.755
357.945
369.612
377.543
381.575
381.534
377.461
369.376
357.295
341.39
321.871
299.017
273.156
244.662
213.958
181.487
147.709
113.084
78.0671
43.0881
8.54453
-25.2008
-57.844
-89.1179
-118.807
-146.745
-172.811
-196.929
-219.057
-239.191
-257.354
-273.586
-287.944
-300.493
-311.317
-320.5
-328.123
-334.275
-339.033
-342.489
-344.669
-345.613
-345.4
-344.021
-341.474
-337.742
-332.797
-326.591
-319.069
-310.183
-299.864
-288.051
-274.692
-259.727
-243.111
-224.825
-204.842
-183.168
-159.822
-134.846
-108.317
-80.3386
-51.053
-20.6039
10.6913
42.6075
74.8336
107.02
138.79
169.744
199.466
227.543
253.561
277.129
297.889
315.515
329.729
340.3
347.055
349.886
348.658
343.494
334.466
321.628
305.202
285.429
262.606
237.067
209.179
179.334
147.942
115.416
82.1632
48.5762
15.0252
-18.15
-50.6449
-82.1919
-112.577
-141.613
-169.153
-195.085
-219.327
-241.826
-262.556
-281.51
-298.701
-314.154
-327.902
-339.983
-350.426
-359.276
-366.57
-372.341
-376.652
-379.506
-380.938
-381.041
-379.805
-377.261
-373.423
-368.298
-361.884
-354.163
-345.114
-334.716
-322.936
-309.74
-295.099
-278.983
-261.369
-242.242
-221.599
-199.452
-175.833
-150.798
-124.449
-96.3493
-67.6681
-38.0333
-7.68987
23.1035
54.0485
84.8228
115.079
144.449
172.552
199.002
223.419
245.437
264.703
280.904
293.762
303.044
308.571
310.168
307.848
301.61
291.489
277.603
260.155
239.408
215.662
189.263
160.622
130.145
98.2769
65.4648
32.1242
-1.33148
-34.5811
-67.3585
-99.3042
-121.676
-149.148
-175.137
-199.388
-221.839
-242.456
-261.257
-278.277
-293.58
-307.228
-319.302
-329.866
-338.994
-346.739
-353.149
-358.262
-362.099
-364.68
-365.982
-365.951
-364.336
-361.31
-356.851
-350.955
-343.618
-334.843
-324.608
-312.891
-299.687
-284.971
-268.722
-250.928
-231.57
-210.664
-188.24
-164.326
-138.995
-112.346
-84.5161
-55.655
-25.8814
4.6536
35.7058
67.0174
98.3516
129.408
159.89
189.467
217.791
244.56
269.437
292.078
312.194
329.491
343.691
354.571
361.933
365.545
364.737
360.074
351.562
339.189
323.133
303.609
280.859
255.242
227.112
196.894
165.063
132.068
98.3722
64.4713
30.8363
-1.99131
-33.1209
-58.7971
-86.6984
-113.042
-137.45
-332.244
-327.255
-320.761
-312.755
-303.218
-292.085
-279.322
-264.869
-248.693
-230.774
-211.083
-189.611
-166.376
-141.412
-114.772
-86.541
-56.8242
-25.7784
6.36505
39.0906
72.7607
106.766
140.715
174.249
206.938
238.377
268.138
295.807
321.036
343.472
362.784
378.703
390.996
399.476
404.021
404.493
400.868
393.302
381.821
366.635
347.939
326.018
301.17
273.728
244.094
212.655
179.805
145.962
111.548
76.9654
42.7083
10.7754
-21.8696
-53.7624
-84.4824
-113.789
-141.52
-167.556
-191.815
-214.246
-234.821
-253.543
-270.433
-285.521
-298.838
-310.422
-320.317
-328.554
-335.158
-340.164
-343.653
-345.652
-346.103
-344.793
-341.846
-337.296
-331.152
-323.45
-314.16
-303.293
-290.884
-276.921
-261.392
-244.339
-225.772
-205.683
-184.107
-161.077
-136.611
-110.748
-83.5635
-55.1421
-25.6027
4.90951
36.1885
68.0078
100.086
132.118
163.765
194.662
224.432
252.696
279.06
303.152
324.617
343.114
358.343
370.043
377.998
382.043
382.023
377.931
369.834
357.729
341.79
322.228
299.324
273.408
244.856
214.091
181.561
147.724
113.045
77.9786
42.9554
8.37414
-25.4025
-58.0703
-89.3627
-119.065
-147.009
-173.078
-197.194
-219.318
-239.444
-257.598
-273.819
-288.166
-300.704
-311.515
-320.686
-328.299
-334.44
-339.191
-342.638
-344.808
-345.754
-345.538
-344.158
-341.615
-337.886
-332.947
-326.748
-319.235
-310.357
-300.048
-288.244
-274.893
-259.936
-243.329
-225.048
-205.07
-183.4
-160.053
-135.075
-108.54
-80.5497
-51.2472
-20.7794
10.5436
42.494
74.7597
106.99
138.809
169.816
199.592
227.725
253.797
277.417
298.225
315.893
330.143
340.742
347.514
350.353
349.133
343.95
334.9
322.035
305.571
285.755
262.883
237.292
209.35
179.45
148.005
115.428
82.1272
48.497
14.9081
-18.2994
-50.8209
-82.3893
-112.791
-141.838
-169.386
-195.321
-219.564
-242.062
-262.788
-281.737
-298.921
-314.366
-328.108
-340.181
-350.618
-359.462
-366.751
-372.517
-376.822
-379.667
-381.1
-381.199
-379.96
-377.414
-373.577
-368.453
-362.043
-354.325
-345.28
-334.888
-323.114
-309.925
-295.29
-279.18
-261.571
-242.449
-221.808
-199.663
-176.042
-150.999
-124.642
-96.5411
-67.8424
-38.1835
-7.81211
23.0138
53.9959
84.8113
115.113
144.532
172.686
199.188
223.656
245.724
265.037
281.28
294.172
303.481
309.024
310.648
308.3
302.059
291.916
277.998
260.511
239.718
215.921
189.467
160.769
130.235
98.3134
65.4501
32.0639
-1.42847
-34.7059
-67.4975
-99.4762
-121.907
-149.401
-175.389
-199.636
-222.082
-242.692
-261.484
-278.495
-293.787
-307.425
-319.489
-330.044
-339.164
-346.903
-353.308
-358.417
-362.252
-364.83
-366.136
-366.127
-364.502
-361.472
-357.014
-351.121
-343.787
-335.015
-324.785
-313.072
-299.874
-285.164
-268.92
-251.129
-231.774
-210.87
-188.445
-164.528
-139.191
-112.535
-84.6919
-55.8158
-26.0235
4.53384
35.612
66.9532
98.3207
129.414
159.936
189.555
217.923
244.736
269.658
292.343
312.501
329.837
344.071
354.979
362.363
366.029
365.19
360.528
351.997
339.6
323.511
303.945
281.146
255.474
227.286
197.009
165.119
132.067
98.3174
64.3679
30.6925
-2.16675
-33.2939
-59.0888
-86.9934
-113.342
-137.753
-332.476
-327.492
-321.004
-313.006
-303.477
-292.353
-279.6
-265.157
-248.991
-231.081
-211.397
-189.93
-166.697
-141.733
-115.089
-86.8491
-57.1171
-26.0487
6.13019
38.8824
72.6007
106.661
140.671
174.271
207.031
238.542
268.376
296.115
321.412
343.912
363.281
379.248
391.58
400.088
404.644
405.133
401.488
393.895
382.381
367.149
348.398
326.416
301.501
273.987
244.282
212.771
179.852
145.942
111.46
76.8064
42.4676
10.61
-22.1022
-54.038
-84.7841
-114.106
-141.846
-167.885
-192.144
-214.571
-235.14
-253.854
-270.735
-285.814
-299.121
-310.696
-320.583
-328.813
-335.412
-340.418
-343.904
-345.887
-346.333
-345.021
-342.076
-337.528
-331.385
-323.684
-314.396
-303.532
-291.125
-277.166
-261.641
-244.592
-226.029
-205.946
-184.374
-161.345
-136.882
-111.016
-83.8237
-55.3913
-25.833
4.70405
36.0134
67.8722
99.9969
132.082
163.787
194.747
224.583
252.915
279.348
303.508
325.038
343.594
358.875
370.619
378.606
382.669
382.667
378.564
370.445
358.308
342.323
322.705
299.735
273.745
245.114
214.269
181.659
147.745
112.993
77.8601
42.7779
8.14646
-25.672
-58.3726
-89.6896
-119.408
-147.363
-173.434
-197.548
-219.665
-239.782
-257.923
-274.131
-288.462
-300.985
-311.78
-320.936
-328.533
-334.661
-339.4
-342.836
-344.994
-345.94
-345.722
-344.342
-341.802
-338.079
-333.147
-326.958
-319.456
-310.59
-300.292
-288.501
-275.161
-260.216
-243.618
-225.347
-205.375
-183.708
-160.362
-135.38
-108.836
-80.8314
-51.5066
-21.0135
10.3467
42.3426
74.6609
106.951
138.834
169.911
199.76
227.967
254.111
277.8
298.673
316.398
330.695
341.331
348.127
350.972
349.764
344.563
335.481
322.577
306.064
286.19
263.254
237.593
209.577
179.605
148.088
115.443
82.0788
48.391
14.7517
-18.4988
-51.0558
-82.6527
-113.076
-142.138
-169.696
-195.637
-219.881
-242.376
-263.097
-282.038
-299.214
-314.65
-328.382
-340.446
-350.875
-359.711
-366.992
-372.752
-377.048
-379.883
-381.316
-381.408
-380.166
-377.619
-373.782
-368.66
-362.254
-354.54
-345.502
-335.118
-323.352
-310.171
-295.545
-279.442
-261.841
-242.725
-222.088
-199.944
-176.319
-151.268
-124.892
-96.8048
-68.0749
-38.3838
-7.975
22.8941
53.9257
84.7963
115.159
144.643
172.865
199.436
223.973
246.108
265.483
281.781
294.72
304.063
309.629
311.274
308.915
302.66
292.486
278.526
260.987
240.133
216.265
189.738
160.965
130.355
98.3618
65.4299
31.9829
-1.55868
-34.8733
-67.6824
-99.6988
-122.221
-149.739
-175.725
-199.967
-222.406
-243.006
-261.787
-278.784
-294.063
-307.687
-319.737
-330.281
-339.39
-347.12
-353.519
-358.624
-362.455
-365.031
-366.34
-366.353
-364.72
-361.686
-357.231
-351.341
-344.011
-335.244
-325.021
-313.315
-300.124
-285.421
-269.183
-251.398
-232.047
-211.144
-188.718
-164.797
-139.452
-112.786
-84.927
-56.0309
-26.2134
4.37379
35.4867
66.8673
98.2793
129.421
159.996
189.671
218.097
244.971
269.953
292.697
312.911
330.298
344.579
355.524
362.937
366.648
365.804
361.135
352.579
340.149
324.016
304.393
281.528
255.784
227.519
197.162
165.193
132.066
98.2439
64.2294
30.4999
-2.4019
-33.5275
-59.4761
-87.3864
-113.742
-138.158
-332.766
-327.788
-321.309
-313.32
-303.801
-292.688
-279.947
-265.517
-249.364
-231.464
-211.789
-190.328
-167.098
-142.134
-115.485
-87.2348
-57.4838
-26.3869
5.83443
38.622
72.4001
106.529
140.616
174.298
207.146
238.747
268.672
296.5
321.882
344.462
363.903
379.931
392.311
400.853
405.425
405.924
402.267
394.638
383.08
367.792
348.972
326.913
301.913
274.311
244.516
212.916
179.909
145.916
111.35
76.6082
42.1641
10.405
-22.3949
-54.384
-85.162
-114.503
-142.254
-168.297
-192.555
-214.977
-235.539
-254.243
-271.113
-286.18
-299.476
-311.039
-320.916
-329.138
-335.73
-340.734
-344.214
-346.182
-346.621
-345.308
-342.365
-337.818
-331.676
-323.976
-314.692
-303.83
-291.427
-277.472
-261.953
-244.909
-226.351
-206.276
-184.707
-161.681
-137.22
-111.352
-84.1495
-55.7033
-26.1212
4.446
35.794
67.702
99.8845
132.035
163.813
194.852
224.772
253.19
279.709
303.954
325.563
344.193
359.541
371.34
379.367
383.454
383.466
379.36
371.21
359.033
342.991
323.302
300.247
274.165
245.436
214.491
181.78
147.77
112.927
77.711
42.5551
7.86094
-26.0097
-58.7514
-90.0991
-119.838
-147.805
-173.88
-197.991
-220.1
-240.205
-258.331
-274.52
-288.832
-301.336
-312.111
-321.247
-328.826
-334.936
-339.662
-343.082
-345.231
-346.173
-345.951
-344.572
-342.036
-338.32
-333.397
-327.22
-319.732
-310.88
-300.598
-288.822
-275.497
-260.565
-243.981
-225.72
-205.757
-184.095
-160.749
-135.763
-109.207
-81.1843
-51.8322
-21.3066
10.1001
42.1527
74.5364
106.9
138.866
170.03
199.97
228.269
254.504
278.28
299.233
317.03
331.386
342.068
348.894
351.75
350.548
345.331
336.208
323.256
306.681
286.734
263.716
237.968
209.861
179.798
148.192
115.461
82.0176
48.2579
14.5554
-18.749
-51.3502
-82.9827
-113.432
-142.514
-170.084
-196.031
-220.277
-242.769
-263.483
-282.415
-299.58
-315.004
-328.725
-340.776
-351.195
-360.022
-367.294
-373.045
-377.329
-380.156
-381.585
-381.67
-380.424
-377.875
-374.039
-368.92
-362.518
-354.81
-345.78
-335.406
-323.649
-310.479
-295.863
-279.771
-262.178
-243.069
-222.437
-200.296
-176.667
-151.605
-125.195
-97.1441
-68.3659
-38.6345
-8.17908
22.7438
53.837
84.777
115.215
144.781
173.088
199.746
224.369
246.587
266.04
282.407
295.405
304.793
310.387
312.049
309.692
303.412
293.199
279.187
261.583
240.651
216.696
190.078
161.209
130.504
98.4216
65.4037
31.881
-1.72281
-35.084
-67.9143
-99.9647
-122.625
-150.163
-176.145
-200.38
-222.811
-243.399
-262.165
-279.147
-294.407
-308.014
-320.048
-330.576
-339.673
-347.392
-353.783
-358.882
-362.71
-365.283
-366.594
-366.63
-364.99
-361.954
-357.502
-351.617
-344.292
-335.531
-325.316
-313.618
-300.436
-285.742
-269.513
-251.734
-232.387
-211.487
-189.06
-165.134
-139.78
-113.1
-85.2213
-56.3005
-26.4515
4.17316
35.3294
66.7594
98.2269
129.429
160.07
189.816
218.316
245.263
270.322
293.139
313.423
330.876
345.213
356.205
363.655
367.401
366.57
361.894
353.306
340.835
324.647
304.953
282.007
256.171
227.809
197.353
165.286
132.064
98.1516
64.0552
30.2577
-2.69757
-33.8242
-59.9575
-87.8771
-114.241
-138.665
-333.114
-328.144
-321.674
-313.696
-304.19
-293.091
-280.364
-265.95
-249.811
-231.925
-212.261
-190.806
-167.58
-142.617
-115.962
-87.6984
-57.9247
-26.7932
5.47735
38.3084
72.1586
106.371
140.548
174.331
207.283
238.993
269.028
296.962
322.446
345.122
364.649
380.751
393.19
401.772
406.366
406.871
403.203
395.531
383.921
368.564
349.661
327.51
302.408
274.7
244.797
213.09
179.978
145.885
111.219
76.3712
41.7962
10.1612
-22.749
-54.8013
-85.6169
-114.98
-142.744
-168.792
-193.048
-215.465
-236.018
-254.71
-271.566
-286.619
-299.901
-311.451
-321.315
-329.526
-336.112
-341.112
-344.583
-346.538
-346.969
-345.654
-342.711
-338.166
-332.026
-324.327
-315.046
-304.187
-291.788
-277.838
-262.328
-245.289
-226.737
-206.671
-185.108
-162.084
-137.626
-111.755
-84.5413
-56.0784
-26.4677
4.1349
35.5297
67.4967
99.7486
131.979
163.845
194.978
224.998
253.518
280.142
304.488
326.194
344.913
360.34
372.205
380.281
384.397
384.424
380.317
372.131
359.904
343.794
324.018
300.863
274.67
245.823
214.756
181.926
147.799
112.847
77.5307
42.2864
7.517
-26.4163
-59.2071
-90.5917
-120.356
-148.336
-174.417
-198.523
-220.623
-240.713
-258.82
-274.988
-289.277
-301.757
-312.509
-321.621
-329.177
-335.267
-339.975
-343.376
-345.515
-346.452
-346.226
-344.847
-342.316
-338.609
-333.698
-327.535
-320.064
-311.229
-300.966
-289.208
-275.9
-260.985
-244.416
-226.168
-206.215
-184.558
-161.213
-136.222
-109.654
-81.609
-52.2242
-21.6593
9.80313
41.9236
74.3862
106.839
138.903
170.172
200.222
228.631
254.976
278.856
299.906
317.789
332.217
342.953
349.816
352.687
351.487
346.253
337.082
324.071
307.421
287.387
264.272
238.418
210.202
180.029
148.316
115.482
81.9431
48.0971
14.3187
-19.0503
-51.7045
-83.3797
-113.861
-142.966
-170.55
-196.506
-220.752
-243.241
-263.947
-282.868
-300.019
-315.43
-329.136
-341.174
-351.58
-360.395
-367.655
-373.396
-377.667
-380.485
-381.908
-381.985
-380.733
-378.182
-374.346
-369.23
-362.834
-355.134
-346.114
-335.75
-324.006
-310.849
-296.246
-280.165
-262.583
-243.483
-222.858
-200.718
-177.086
-152.01
-125.565
-97.548
-68.7154
-38.9359
-8.42495
22.5625
53.7296
84.7529
115.283
144.945
173.355
200.118
224.844
247.163
266.709
283.16
296.227
305.669
311.298
312.976
310.626
304.315
294.057
279.981
262.299
241.274
217.212
190.485
161.502
130.682
98.4923
65.3709
31.7575
-1.92166
-35.3386
-68.1947
-100.263
-123.13
-150.676
-176.65
-200.877
-223.297
-243.871
-262.62
-279.581
-294.821
-308.406
-320.421
-330.931
-340.012
-347.718
-354.1
-359.192
-363.016
-365.587
-366.899
-366.945
-365.31
-362.274
-357.827
-351.948
-344.629
-335.876
-325.67
-313.982
-300.811
-286.128
-269.909
-252.138
-232.797
-211.899
-189.471
-165.538
-140.173
-113.475
-85.5751
-56.625
-26.7379
3.93167
35.14
66.6292
98.1634
129.439
160.159
189.99
218.577
245.615
270.763
293.67
314.038
331.569
345.974
357.023
364.517
368.299
367.485
362.802
354.18
341.661
325.405
305.625
282.581
256.636
228.157
197.582
165.396
132.06
98.04
63.8445
29.9647
-3.05435
-34.1868
-60.532
-88.4651
-114.841
-139.273
-333.52
-328.558
-322.099
-314.134
-304.644
-293.561
-280.85
-266.455
-250.334
-232.463
-212.811
-191.365
-168.143
-143.18
-116.518
-88.2403
-58.4405
-27.2683
5.05894
37.9406
71.8754
106.184
140.468
174.367
207.443
239.28
269.442
297.5
323.103
345.892
365.52
381.708
394.216
402.846
407.465
407.977
404.294
396.575
384.903
369.465
350.466
328.207
302.985
275.153
245.124
213.291
180.058
145.848
111.066
76.0965
41.3627
9.87868
-23.1665
-55.2911
-86.1493
-115.539
-143.316
-169.37
-193.625
-216.035
-236.577
-255.255
-272.095
-287.131
-300.397
-311.931
-321.781
-329.98
-336.556
-341.55
-345.01
-346.954
-347.376
-346.059
-343.115
-338.572
-332.434
-324.736
-315.459
-304.605
-292.21
-278.266
-262.765
-245.732
-227.188
-207.132
-185.576
-162.555
-138.1
-112.226
-84.9998
-56.517
-26.8731
3.77047
35.2202
67.2559
99.5886
131.911
163.88
195.124
225.26
253.901
280.646
305.111
326.931
345.754
361.274
373.215
381.349
385.501
385.544
381.431
373.207
360.921
344.731
324.854
301.582
275.258
246.274
215.066
182.095
147.831
112.751
77.3185
41.9712
7.114
-26.8924
-59.7404
-91.1678
-120.961
-148.958
-175.043
-199.146
-221.234
-241.306
-259.391
-275.534
-289.796
-302.249
-312.973
-322.057
-329.587
-335.653
-340.34
-343.721
-345.847
-346.777
-346.547
-345.168
-342.643
-338.946
-334.048
-327.903
-320.451
-311.636
-301.394
-289.659
-276.371
-261.476
-244.925
-226.691
-206.749
-185.1
-161.756
-136.759
-110.176
-82.1059
-52.6833
-22.0722
9.45537
41.6547
74.2095
106.765
138.945
170.336
200.514
229.053
255.525
279.529
300.692
318.675
333.187
343.988
350.893
353.783
352.585
347.327
338.104
325.024
308.286
288.15
264.92
238.942
210.599
180.298
148.459
115.506
81.8549
47.9082
14.041
-19.4033
-52.1195
-83.8441
-114.363
-143.494
-171.095
-197.06
-221.308
-243.793
-264.489
-283.397
-300.533
-315.927
-329.616
-341.637
-352.029
-360.83
-368.077
-373.805
-378.061
-380.87
-382.283
-382.351
-381.094
-378.541
-374.705
-369.593
-363.203
-355.511
-346.503
-336.153
-324.423
-311.28
-296.692
-280.625
-263.056
-243.967
-223.349
-201.211
-177.575
-152.485
-126.006
-98.0111
-69.1232
-39.2884
-8.71301
22.3497
53.603
84.7235
115.36
145.137
173.667
200.552
225.399
247.835
267.49
284.039
297.188
306.692
312.364
314.062
311.714
305.371
295.059
280.909
263.135
242
217.815
190.96
161.843
130.89
98.5734
65.3308
31.612
-2.15623
-35.6381
-68.5241
-100.581
-123.748
-151.278
-177.239
-201.456
-223.865
-244.423
-263.15
-280.088
-295.303
-308.864
-320.855
-331.344
-340.407
-348.099
-354.469
-359.553
-363.373
-365.941
-367.256
-367.31
-365.682
-362.648
-358.205
-352.334
-345.022
-336.278
-326.083
-314.407
-301.249
-286.579
-270.372
-252.61
-233.274
-212.38
-189.951
-166.011
-140.632
-113.913
-85.9891
-57.0046
-27.0731
3.64896
34.918
66.4764
98.0883
129.449
160.262
190.192
218.881
246.024
271.279
294.288
314.755
332.378
346.864
357.979
365.523
369.344
368.549
363.86
355.201
342.625
326.29
306.41
283.252
257.177
228.563
197.848
165.524
132.055
97.9086
63.5965
29.6192
-3.47192
-34.6196
-61.198
-89.1501
-115.541
-139.983
-333.984
-329.032
-322.585
-314.635
-305.162
-294.098
-281.407
-267.033
-250.932
-233.078
-213.44
-192.004
-168.787
-143.824
-117.155
-88.861
-59.0317
-27.8129
4.57894
37.5176
71.5501
105.969
140.376
174.408
207.624
239.607
269.915
298.116
323.855
346.773
366.517
382.804
395.39
404.076
408.724
409.242
405.54
397.77
386.027
370.496
351.387
329.003
303.644
275.67
245.496
213.521
180.147
145.806
110.892
75.7851
40.8649
9.55526
-23.65
-55.8546
-86.76
-116.178
-143.972
-170.031
-194.284
-216.686
-237.216
-255.879
-272.699
-287.716
-300.964
-312.48
-322.313
-330.498
-337.063
-342.049
-345.497
-347.43
-347.843
-346.523
-343.577
-339.036
-332.9
-325.203
-315.931
-305.082
-292.692
-278.755
-263.264
-246.239
-227.703
-207.659
-186.111
-163.095
-138.642
-112.764
-85.5256
-57.0195
-27.3383
3.35238
34.865
66.9789
99.4042
131.833
163.918
195.29
225.56
254.338
281.222
305.823
327.773
346.716
362.341
374.371
382.571
386.765
386.826
382.706
374.439
362.086
345.803
325.811
302.404
275.931
246.789
215.419
182.286
147.866
112.641
77.0738
41.6086
6.65116
-27.4385
-60.352
-91.8281
-121.654
-149.669
-175.761
-199.858
-221.933
-241.985
-260.044
-276.159
-290.39
-302.812
-313.503
-322.555
-330.055
-336.094
-340.756
-344.115
-346.227
-347.147
-346.912
-345.535
-343.016
-339.331
-334.449
-328.323
-320.893
-312.101
-301.884
-290.173
-276.909
-262.037
-245.506
-227.289
-207.361
-185.721
-162.378
-137.374
-110.774
-82.6756
-53.2103
-22.5457
9.05633
41.3454
74.0053
106.68
138.991
170.523
200.848
229.535
256.154
280.298
301.59
319.689
334.297
345.172
352.127
355.038
353.84
348.555
339.274
326.113
309.276
289.022
265.66
239.542
211.052
180.604
148.622
115.531
81.7524
47.6905
13.7217
-19.8087
-52.5957
-84.3764
-114.938
-144.099
-171.72
-197.694
-221.944
-244.424
-265.11
-284.002
-301.12
-316.494
-330.164
-342.168
-352.543
-361.327
-368.56
-374.273
-378.513
-381.309
-382.712
-382.77
-381.506
-378.95
-375.115
-370.007
-363.625
-355.943
-346.948
-336.613
-324.899
-311.773
-297.202
-281.152
-263.597
-244.52
-223.91
-201.776
-178.136
-153.031
-126.52
-98.5335
-69.5895
-39.6926
-9.04371
22.1046
53.4567
84.6882
115.447
145.354
174.021
201.046
226.032
248.602
268.384
285.045
298.288
307.864
313.584
315.305
312.958
306.579
296.206
281.971
264.091
242.829
218.504
191.503
162.232
131.127
98.6642
65.2828
31.4437
-2.42777
-35.984
-68.9039
-100.902
-124.499
-151.967
-177.913
-202.119
-224.515
-245.053
-263.757
-280.668
-295.854
-309.387
-321.351
-331.816
-340.859
-348.533
-354.891
-359.966
-363.78
-366.347
-367.664
-367.724
-366.105
-363.074
-358.638
-352.775
-345.472
-336.737
-326.555
-314.893
-301.749
-287.094
-270.9
-253.15
-233.821
-212.93
-190.5
-166.552
-141.158
-114.414
-86.4633
-57.4395
-27.4573
3.32464
34.663
66.3004
98.0013
129.46
160.379
190.422
219.228
246.491
271.868
294.995
315.575
333.303
347.881
359.072
366.674
370.536
369.763
365.069
356.37
343.729
327.304
307.309
284.019
257.797
229.027
198.152
165.67
132.048
97.7569
63.3102
29.2196
-3.95092
-35.1265
-61.954
-89.9319
-116.341
-140.796
-334.505
-329.565
-323.132
-315.199
-305.745
-294.702
-282.032
-267.682
-251.605
-233.771
-214.149
-192.723
-169.512
-144.551
-117.874
-89.561
-59.6991
-28.4278
4.03683
37.0381
71.1819
105.725
140.269
174.452
207.826
239.973
270.447
298.808
324.702
347.765
367.64
384.038
396.713
405.462
410.144
410.668
406.942
399.117
387.292
371.657
352.423
329.899
304.386
276.251
245.914
213.777
180.247
145.756
110.698
75.4388
40.3081
9.18432
-24.203
-56.4932
-87.4497
-116.9
-144.711
-170.776
-195.027
-217.42
-237.936
-256.58
-273.38
-288.375
-301.601
-313.098
-322.912
-331.081
-337.634
-342.609
-346.044
-347.966
-348.368
-347.045
-344.098
-339.558
-333.424
-325.729
-316.462
-305.619
-293.235
-279.305
-263.826
-246.809
-228.283
-208.252
-186.714
-163.703
-139.253
-113.371
-86.119
-57.5864
-27.8641
2.87985
34.4636
66.6649
99.1946
131.742
163.96
195.475
225.895
254.829
281.869
306.624
328.721
347.799
363.544
375.673
383.948
388.189
388.27
384.141
375.828
363.399
347.011
326.889
303.33
276.689
247.368
215.815
182.5
147.904
112.513
76.7959
41.1978
6.12761
-28.0555
-61.0426
-92.5734
-122.436
-150.472
-176.57
-200.661
-222.72
-242.749
-260.78
-276.862
-291.059
-303.445
-314.101
-323.116
-330.581
-336.589
-341.223
-344.559
-346.654
-347.562
-347.323
-345.947
-343.434
-339.763
-334.9
-328.795
-321.39
-312.625
-302.436
-290.752
-277.515
-262.668
-246.161
-227.963
-208.05
-186.42
-163.079
-138.068
-111.449
-83.319
-53.8068
-23.0796
8.60523
40.9951
73.7731
106.582
139.041
170.732
201.222
230.077
256.86
281.163
302.602
320.831
335.547
346.506
353.516
356.454
355.255
349.939
340.591
327.341
310.391
290.004
266.494
240.216
211.562
180.948
148.803
115.557
81.635
47.4434
13.3599
-20.2674
-53.1336
-84.9773
-115.586
-144.782
-172.423
-198.409
-222.661
-245.135
-265.808
-284.684
-301.781
-317.133
-330.781
-342.764
-353.12
-361.887
-369.103
-374.799
-379.022
-381.803
-383.194
-383.241
-381.969
-379.41
-375.577
-370.473
-364.098
-356.428
-347.448
-337.13
-325.435
-312.328
-297.776
-281.744
-264.206
-245.142
-224.543
-202.412