/*--------------------------------*- C++ -*----------------------------------*\
| =========                 |                                                 |
| \\      /  F ield         | OpenFOAM: The Open Source CFD Toolbox           |
|  \\    /   O peration     | Version:  3.0.1                                 |
|   \\  /    A nd           | Web:      www.OpenFOAM.org                      |
|    \\/     M anipulation  |                                                 |
\*---------------------------------------------------------------------------*/
FoamFile
{
    version     2.0;
    format      ascii;
    class       surfaceScalarField;
    location    "99";
    object      phi;
}
// * * * * * * * * * * * * * * * * * * * * * * * * * * * * * * * * * * * * * //

dimensions      [0 3 -1 0 0 0 0];

internalField   nonuniform List<scalar> 
42423
(
0.000216952
-1.1767e-05
0.000229175
-1.2223e-05
0.00024198
-1.28049e-05
0.000255165
-1.31852e-05
0.000268961
-1.37956e-05
0.000283126
-1.41648e-05
0.000297802
-1.46764e-05
0.000312873
-1.50714e-05
0.000327987
-1.51134e-05
0.000343331
-1.53449e-05
0.000358834
-1.55031e-05
0.000374045
-1.52107e-05
0.000389028
-1.49834e-05
0.000403576
-1.4548e-05
0.000417518
-1.39418e-05
0.000430747
-1.32287e-05
0.000442894
-1.2147e-05
0.00045384
-1.0946e-05
0.000463401
-9.56164e-06
0.000471327
-7.92574e-06
0.000477489
-6.16201e-06
0.000481735
-4.2458e-06
0.000483932
-2.19674e-06
0.000484047
-1.15237e-07
0.000481953
2.09373e-06
0.00047762
4.33313e-06
0.00047137
6.24959e-06
0.000462948
8.42166e-06
0.000452738
1.02104e-05
0.000441099
1.16386e-05
0.000427859
1.324e-05
0.000413469
1.43901e-05
0.000398174
1.52957e-05
0.000382226
1.59481e-05
0.00036599
1.62351e-05
0.000349449
1.65415e-05
0.000332903
1.65462e-05
0.000316627
1.62758e-05
0.000300625
1.60016e-05
0.000285115
1.55101e-05
0.0002702
1.49148e-05
0.00025598
1.42204e-05
0.00024254
1.344e-05
0.00022988
1.266e-05
0.000218085
1.17945e-05
0.000207183
1.09027e-05
0.00019717
1.00127e-05
0.000188083
9.08682e-06
0.000179919
8.16381e-06
0.000172666
7.25304e-06
0.000166321
6.34561e-06
0.000160854
5.46715e-06
0.00015623
4.62353e-06
0.000152393
3.8376e-06
0.00014927
3.12246e-06
0.000146791
2.47918e-06
0.00014488
1.91121e-06
0.000143432
1.44736e-06
0.000142362
1.07036e-06
0.000141568
7.94074e-07
0.000140962
6.05434e-07
0.000140481
4.81042e-07
0.000140053
4.28454e-07
0.000139645
4.08031e-07
0.000139277
3.67923e-07
0.000138929
3.4755e-07
0.000138631
2.98789e-07
0.000138421
2.09687e-07
0.000138299
1.22439e-07
0.000138256
4.24664e-08
0.000138234
2.19937e-08
0.000138108
1.26145e-07
0.00013773
3.78192e-07
0.000136817
9.1286e-07
0.000135369
1.4476e-06
0.000133452
1.91766e-06
0.000131334
2.11706e-06
0.000129116
2.21817e-06
0.000127279
1.8375e-06
0.00012591
1.36868e-06
0.000125259
6.50648e-07
0.000125982
-7.22576e-07
0.000128003
-2.02127e-06
0.000131119
-3.11539e-06
0.000135202
-4.08381e-06
0.000140312
-5.10981e-06
0.000146546
-6.23367e-06
0.000153945
-7.39964e-06
0.000162522
-8.57691e-06
0.000172222
-9.69987e-06
0.000182988
-1.07659e-05
0.000194742
-1.17544e-05
0.000207418
-1.26758e-05
0.000220963
-1.35453e-05
0.000235227
-1.42642e-05
0.00025002
-1.47926e-05
0.000265156
-1.51363e-05
0.000280489
-1.53335e-05
0.000295866
-1.5377e-05
0.000311083
-1.52165e-05
0.000325961
-1.4878e-05
0.00034031
-1.4349e-05
0.000353905
-1.35952e-05
0.000366592
-1.26872e-05
0.000378218
-1.16268e-05
0.000388617
-1.03987e-05
0.000397698
-9.08069e-06
0.000405273
-7.57492e-06
0.000411179
-5.90674e-06
0.000415406
-4.2271e-06
0.000417827
-2.42053e-06
0.000418486
-6.5948e-07
0.000417398
1.08758e-06
0.000414486
2.91223e-06
0.000409854
4.63201e-06
0.000403603
6.25124e-06
0.000395888
7.71494e-06
0.000386803
9.08509e-06
0.00037653
1.02723e-05
0.000365208
1.13219e-05
0.000352958
1.22503e-05
0.000339928
1.30296e-05
0.000326263
1.36655e-05
0.000312097
1.41655e-05
0.000297592
1.45051e-05
0.000282923
1.46694e-05
0.000268166
1.47566e-05
0.000253488
1.46776e-05
0.000239007
1.44812e-05
0.000224818
1.4189e-05
0.000211055
1.37631e-05
0.000197717
1.33385e-05
0.000184953
1.27635e-05
0.000172717
1.22365e-05
0.000161028
1.16886e-05
0.000150001
1.10269e-05
0.000139459
1.05423e-05
0.000129493
9.96531e-06
0.000120074
9.41913e-06
0.00011114
8.93393e-06
0.000102803
8.33686e-06
9.49575e-05
7.84588e-06
8.76757e-05
7.2818e-06
8.11019e-05
6.57386e-06
7.50911e-05
6.01079e-06
6.97019e-05
5.38919e-06
6.50287e-05
4.67314e-06
6.09818e-05
4.04693e-06
5.7516e-05
3.46579e-06
5.46875e-05
2.82853e-06
5.2437e-05
2.25047e-06
5.07179e-05
1.71905e-06
4.95459e-05
1.17206e-06
4.89368e-05
6.09052e-07
4.88725e-05
6.43684e-08
4.93821e-05
-5.09629e-07
5.05475e-05
-1.16539e-06
5.23668e-05
-1.81927e-06
5.4797e-05
-2.43026e-06
5.78622e-05
-3.06516e-06
6.16106e-05
-3.74846e-06
6.60541e-05
-4.44351e-06
7.1153e-05
-5.09885e-06
7.69234e-05
-5.77039e-06
8.3368e-05
-6.44466e-06
9.05017e-05
-7.13363e-06
9.82902e-05
-7.78852e-06
0.000106693
-8.4028e-06
0.000115738
-9.04505e-06
0.000125359
-9.6207e-06
0.000135501
-1.01427e-05
0.000146218
-1.07168e-05
0.000157418
-1.12003e-05
0.000169066
-1.16478e-05
0.000181255
-1.2189e-05
0.000193929
-1.26736e-05
0.00020704
-1.31117e-05
0.000220644
-1.36034e-05
0.000234718
-1.40737e-05
0.000249105
-1.43879e-05
0.000263839
-1.47334e-05
0.000278848
-1.50096e-05
0.000293949
-1.5101e-05
0.000309053
-1.51035e-05
0.000324088
-1.50352e-05
0.000338886
-1.47984e-05
0.000353326
-1.44398e-05
0.000367296
-1.39698e-05
0.000380552
-1.32567e-05
0.000392984
-1.24313e-05
0.000404369
-1.13852e-05
0.000414512
-1.01435e-05
0.000423197
-8.68481e-06
0.000430228
-7.03084e-06
0.000435435
-5.20737e-06
0.000438615
-3.17948e-06
0.000439695
-1.08038e-06
0.000438629
1.06628e-06
0.000435174
3.45428e-06
0.000429485
5.68881e-06
0.000421672
7.81356e-06
0.000411851
9.82083e-06
0.000400228
1.16226e-05
0.000386975
1.32533e-05
0.00037234
1.46351e-05
0.000356572
1.57672e-05
0.00033992
1.66526e-05
0.00032257
1.73499e-05
0.000304842
1.77279e-05
0.000286924
1.79176e-05
0.000269066
1.78585e-05
0.000251534
1.75316e-05
0.000234477
1.70566e-05
0.000218173
1.63048e-05
0.000202742
1.54311e-05
0.000188326
1.44155e-05
0.000174986
1.334e-05
0.00016277
1.22161e-05
0.000151668
1.11018e-05
0.000141713
9.95507e-06
0.000132827
8.88558e-06
0.000124983
7.84456e-06
0.000118157
6.8256e-06
0.000112315
5.84191e-06
0.000107369
4.94633e-06
0.000103299
4.06956e-06
0.000100087
3.21201e-06
9.76422e-05
2.44522e-06
9.59506e-05
1.69161e-06
9.49471e-05
1.00345e-06
9.45747e-05
3.72422e-07
9.48265e-05
-2.51794e-07
9.56206e-05
-7.94135e-07
9.69513e-05
-1.33066e-06
9.86433e-05
-1.692e-06
0.000100649
-2.0058e-06
0.00010287
-2.22109e-06
0.000105206
-2.33626e-06
0.000107676
-2.46957e-06
0.000110169
-2.49333e-06
0.000112648
-2.47901e-06
0.0001151
-2.45177e-06
0.000117522
-2.42176e-06
0.000120005
-2.4827e-06
0.000122474
-2.46963e-06
0.000125128
-2.65416e-06
0.000127908
-2.77934e-06
0.000130959
-3.05164e-06
0.000134299
-3.33989e-06
0.000137936
-3.63625e-06
0.000141966
-4.03015e-06
0.000146447
-4.4818e-06
0.000151343
-4.8953e-06
0.000156749
-5.40664e-06
0.000162661
-5.91125e-06
0.000169221
-6.5599e-06
0.000176418
-7.19777e-06
0.000184213
-7.79511e-06
0.00019273
-8.51685e-06
0.000202022
-9.29176e-06
0.000212065
-1.00428e-05
0.000222917
-1.08527e-05
0.000234602
-1.16844e-05
0.000246982
-1.238e-05
0.000260056
-1.30739e-05
0.000273795
-1.3739e-05
0.000288
-1.42059e-05
0.000302434
-1.44334e-05
0.000317198
-1.4764e-05
0.00033181
-1.46126e-05
0.000346331
-1.45211e-05
0.000360618
-1.42863e-05
0.000374021
-1.3404e-05
0.000386779
-1.27581e-05
0.000398916
-1.2137e-05
0.000410114
-1.11979e-05
0.000420344
-1.023e-05
0.000429587
-9.24277e-06
0.000437639
-8.05282e-06
0.000444462
-6.82229e-06
0.000449979
-5.5177e-06
0.000454124
-4.14504e-06
0.000456773
-2.64901e-06
0.000456909
-1.35871e-07
0.000454225
2.68371e-06
0.000449372
4.85363e-06
0.000442944
6.42716e-06
0.000434869
8.07578e-06
0.000424786
1.00825e-05
0.000412886
1.18997e-05
0.00039931
1.35763e-05
0.000384196
1.51141e-05
0.000368071
1.61245e-05
0.000351244
1.68276e-05
0.000334
1.7244e-05
0.00031686
1.71399e-05
0.000300055
1.68043e-05
0.000283824
1.6231e-05
0.000268418
1.54059e-05
0.000253897
1.45212e-05
0.000240394
1.35034e-05
0.000227882
1.25115e-05
0.000216334
1.15482e-05
0.000205756
1.05775e-05
0.000196077
9.67895e-06
0.000187239
8.83803e-06
0.000179215
8.02423e-06
0.000171941
7.27382e-06
0.000165389
6.55218e-06
0.000159512
5.87712e-06
0.000154278
5.23411e-06
0.000149662
4.61616e-06
0.000145628
4.03419e-06
0.000142143
3.4847e-06
0.000139174
2.96939e-06
0.000136678
2.49509e-06
0.000134614
2.06421e-06
0.000132937
1.67694e-06
0.000131601
1.3363e-06
0.000130566
1.03497e-06
0.000129795
7.70763e-07
0.000129262
5.33281e-07
0.000128951
3.11098e-07
0.000128844
1.07317e-07
0.000128996
-1.52822e-07
0.000129431
-4.34544e-07
0.00013014
-7.08685e-07
0.000131238
-1.09807e-06
0.00013278
-1.54208e-06
0.000134723
-1.9429e-06
0.000137288
-2.56521e-06
0.000140537
-3.2491e-06
0.000144349
-3.81176e-06
0.000148976
-4.62776e-06
0.000154341
-5.36415e-06
0.000160631
-6.29078e-06
0.000167874
-7.24307e-06
0.000175763
-7.88861e-06
0.000184622
-8.85889e-06
0.000194501
-9.87931e-06
0.000204975
-1.04736e-05
0.000216367
-1.13927e-05
0.000228482
-1.21143e-05
0.000241423
-1.29413e-05
0.000255185
-1.37621e-05
0.000269371
-1.41864e-05
0.000284175
-1.48036e-05
0.000299617
-1.54416e-05
0.000315288
-1.5672e-05
0.000331271
-1.5983e-05
0.000347307
-1.60357e-05
0.000363383
-1.60762e-05
0.000379294
-1.59107e-05
0.000394685
-1.5391e-05
0.000409476
-1.47916e-05
0.000423497
-1.40207e-05
-1.34687e-05
0.000216928
-2.35339e-05
0.000229153
-2.44479e-05
0.000241967
-2.56187e-05
0.000255152
-2.63702e-05
0.000268944
-2.75879e-05
0.000283114
-2.83353e-05
0.000297795
-2.93568e-05
0.00031288
-3.01565e-05
0.000328017
-3.02512e-05
0.000343383
-3.0711e-05
0.000358887
-3.10067e-05
0.000374106
-3.04305e-05
0.000389089
-2.99657e-05
0.000403643
-2.91023e-05
0.000417596
-2.78946e-05
0.000430839
-2.64727e-05
0.000442986
-2.4294e-05
0.000453925
-2.18843e-05
0.000463513
-1.91506e-05
0.000471439
-1.58518e-05
0.000477608
-1.23308e-05
0.000481864
-8.50201e-06
0.000484049
-4.38162e-06
0.000484156
-2.22642e-07
0.00048205
4.20028e-06
0.000477718
8.66512e-06
0.000471469
1.2498e-05
0.000463041
1.68501e-05
0.00045282
2.04316e-05
0.000441169
2.3289e-05
0.000427918
2.64907e-05
0.000413517
2.87916e-05
0.000398206
3.06064e-05
0.000382245
3.19094e-05
0.000365996
3.24837e-05
0.000349441
3.30965e-05
0.000332885
3.31022e-05
0.000316608
3.25528e-05
0.000300605
3.2005e-05
0.000285093
3.10219e-05
0.000270177
2.98308e-05
0.000255955
2.84424e-05
0.000242513
2.68813e-05
0.000229853
2.53205e-05
0.000218058
2.35892e-05
0.000207156
2.18048e-05
0.000197146
2.00228e-05
0.000188061
1.81718e-05
0.000179898
1.63268e-05
0.000172646
1.45047e-05
0.000166303
1.26887e-05
0.000160838
1.09323e-05
0.000156215
9.24708e-06
0.000152378
7.67389e-06
0.000149261
6.23966e-06
0.000146786
4.9543e-06
0.000144874
3.82297e-06
0.000143427
2.89444e-06
0.00014236
2.13768e-06
0.000141568
1.58549e-06
0.000140965
1.20848e-06
0.000140484
9.62015e-07
0.000140056
8.56732e-07
0.000139648
8.15772e-07
0.000139279
7.36871e-07
0.00013893
6.97068e-07
0.000138628
6.01002e-07
0.000138415
4.22097e-07
0.000138289
2.48625e-07
0.000138242
8.93092e-08
0.000138218
4.60306e-08
0.000138091
2.53264e-07
0.000137717
7.52497e-07
0.000136809
1.82072e-06
0.00013537
2.88678e-06
0.000133467
3.8199e-06
0.000131371
4.21336e-06
0.000129169
4.42023e-06
0.000127343
3.66325e-06
0.000125992
2.72024e-06
0.000125354
1.28842e-06
0.000126106
-1.4746e-06
0.000128154
-4.06995e-06
0.000131279
-6.23957e-06
0.000135371
-8.17642e-06
0.000140497
-1.02354e-05
0.000146752
-1.24892e-05
0.000154166
-1.48136e-05
0.000162748
-1.71592e-05
0.00017245
-1.9402e-05
0.000183216
-2.15319e-05
0.000194975
-2.35136e-05
0.000207657
-2.53576e-05
0.000221209
-2.70981e-05
0.000235481
-2.85356e-05
0.000250279
-2.95912e-05
0.000265414
-3.0271e-05
0.000280745
-3.06649e-05
0.000296122
-3.07548e-05
0.000311348
-3.04427e-05
0.000326232
-2.97619e-05
0.000340593
-2.87098e-05
0.000354206
-2.72085e-05
0.000366907
-2.53881e-05
0.000378547
-2.32676e-05
0.000388952
-2.08035e-05
0.000398035
-1.81637e-05
0.000405612
-1.51518e-05
0.000411526
-1.18211e-05
0.000415765
-8.46662e-06
0.000418188
-4.84382e-06
0.00041884
-1.31137e-06
0.000417745
2.18282e-06
0.000414831
5.82613e-06
0.000410188
9.27441e-06
0.000403934
1.25054e-05
0.000396211
1.54374e-05
0.000387114
1.81823e-05
0.000376841
2.05455e-05
0.000365521
2.26419e-05
0.000353262
2.45092e-05
0.000340213
2.60779e-05
0.000326539
2.73395e-05
0.000312381
2.83242e-05
0.000297871
2.90143e-05
0.000283188
2.93524e-05
0.000268426
2.95191e-05
0.00025375
2.93535e-05
0.000239263
2.89682e-05
0.00022506
2.83922e-05
0.000211291
2.75318e-05
0.000197952
2.66779e-05
0.00018519
2.55255e-05
0.00017295
2.4476e-05
0.000161268
2.33708e-05
0.000150243
2.20515e-05
0.000139697
2.10886e-05
0.000129725
1.99374e-05
0.000120307
1.88368e-05
0.000111373
1.78676e-05
0.000103032
1.66784e-05
9.51895e-05
1.56882e-05
8.79255e-05
1.45458e-05
8.13423e-05
1.31571e-05
7.53062e-05
1.20469e-05
6.9921e-05
1.07744e-05
6.52621e-05
9.33201e-06
6.12094e-05
8.09966e-06
5.77367e-05
6.93842e-06
5.49097e-05
5.6556e-06
5.2656e-05
4.50417e-06
5.09275e-05
3.44749e-06
4.97518e-05
2.34781e-06
4.91474e-05
1.21338e-06
4.90867e-05
1.25135e-07
4.95966e-05
-1.01953e-06
5.07584e-05
-2.32723e-06
5.25704e-05
-3.63126e-06
5.50002e-05
-4.86005e-06
5.80685e-05
-6.13345e-06
6.18221e-05
-7.50206e-06
6.6261e-05
-8.88247e-06
7.13612e-05
-1.0199e-05
7.71361e-05
-1.15453e-05
8.35782e-05
-1.28868e-05
9.07141e-05
-1.42695e-05
9.85002e-05
-1.55746e-05
0.00010691
-1.68128e-05
0.000115958
-1.80928e-05
0.00012558
-1.92428e-05
0.000135725
-2.02875e-05
0.000146438
-2.14295e-05
0.000157646
-2.24084e-05
0.000169297
-2.32992e-05
0.000181492
-2.43842e-05
0.000194177
-2.53588e-05
0.000207289
-2.62232e-05
0.000220894
-2.72084e-05
0.000234961
-2.81411e-05
0.000249352
-2.87784e-05
0.000264086
-2.94683e-05
0.000279093
-3.00164e-05
0.000294204
-3.02124e-05
0.000309321
-3.02205e-05
0.000324361
-3.00752e-05
0.000339166
-2.96031e-05
0.000353604
-2.88786e-05
0.000367576
-2.79418e-05
0.000380843
-2.65235e-05
0.000393274
-2.48621e-05
0.000404668
-2.27797e-05
0.000414821
-2.02967e-05
0.000423524
-1.73876e-05
0.000430573
-1.40802e-05
0.000435789
-1.04235e-05
0.000438977
-6.36705e-06
0.000440058
-2.16152e-06
0.000438969
2.15523e-06
0.000435518
6.90497e-06
0.00042984
1.13665e-05
0.00042202
1.56336e-05
0.000412199
1.96418e-05
0.000400557
2.32642e-05
0.000387283
2.6528e-05
0.000372647
2.92704e-05
0.000356871
3.15438e-05
0.000340205
3.33181e-05
0.000322849
3.47057e-05
0.000305111
3.54661e-05
0.000287173
3.58561e-05
0.000269295
3.57356e-05
0.000251745
3.50816e-05
0.000234676
3.41256e-05
0.000218356
3.26247e-05
0.000202914
3.08736e-05
0.000188471
2.88586e-05
0.00017509
2.67207e-05
0.000162862
2.44439e-05
0.000151757
2.22075e-05
0.000141782
1.993e-05
0.000132873
1.77946e-05
0.000125008
1.57096e-05
0.000118159
1.36747e-05
0.000112302
1.16987e-05
0.000107349
9.89908e-06
0.000103266
8.15291e-06
0.000100031
6.44684e-06
9.75712e-05
4.90489e-06
9.58649e-05
3.39785e-06
9.48503e-05
2.01811e-06
9.44628e-05
7.59955e-07
9.46986e-05
-4.87637e-07
9.54839e-05
-1.57945e-06
9.67946e-05
-2.64134e-06
9.84665e-05
-3.36388e-06
0.000100462
-4.00129e-06
0.000102673
-4.43193e-06
0.000105004
-4.66723e-06
0.00010745
-4.91624e-06
0.000109927
-4.96975e-06
0.000112394
-4.94587e-06
0.00011484
-4.89809e-06
0.000117264
-4.8461e-06
0.000119732
-4.95055e-06
0.00012218
-4.9174e-06
0.000124822
-5.29587e-06
0.000127597
-5.55453e-06
0.000130639
-6.09364e-06
0.000133963
-6.66367e-06
0.000137601
-7.27417e-06
0.000141638
-8.06725e-06
0.000146115
-8.9588e-06
0.000150996
-9.77634e-06
0.000156401
-1.08119e-05
0.000162321
-1.18312e-05
0.000168873
-1.31118e-05
0.000176066
-1.43911e-05
0.000183877
-1.56062e-05
0.000192408
-1.70481e-05
0.000201716
-1.85997e-05
0.000211778
-2.01046e-05
0.000222639
-2.17138e-05
0.000234346
-2.33919e-05
0.000246764
-2.47974e-05
0.000259855
-2.61656e-05
0.0002736
-2.7484e-05
0.000287822
-2.84282e-05
0.000302285
-2.88961e-05
0.000317063
-2.95421e-05
0.000331692
-2.92416e-05
0.000346209
-2.90383e-05
0.000360469
-2.85463e-05
0.000373901
-2.68363e-05
0.000386658
-2.55156e-05
0.000398773
-2.42514e-05
0.00041002
-2.24451e-05
0.000420299
-2.05094e-05
0.000429493
-1.8437e-05
0.000437495
-1.60546e-05
0.000444287
-1.36145e-05
0.000449747
-1.0978e-05
0.000453756
-8.15389e-06
0.000456121
-5.01465e-06
0.00045621
-2.2445e-07
0.000453801
5.09265e-06
0.00044924
9.41476e-06
0.000442933
1.27332e-05
0.000434874
1.61348e-05
0.000424787
2.01702e-05
0.000412879
2.38068e-05
0.000399295
2.71603e-05
0.000384173
3.02362e-05
0.000368041
3.22563e-05
0.000351207
3.36616e-05
0.000333958
3.44932e-05
0.000316814
3.42841e-05
0.000300007
3.36109e-05
0.000283775
3.24631e-05
0.000268369
3.08121e-05
0.000253849
2.90414e-05
0.000240347
2.70052e-05
0.000227838
2.50209e-05
0.000216292
2.30942e-05
0.000205717
2.11527e-05
0.00019604
1.93557e-05
0.000187204
1.76742e-05
0.000179181
1.60469e-05
0.000171908
1.45466e-05
0.000165357
1.31038e-05
0.000159479
1.17542e-05
0.000154244
1.04696e-05
0.000149626
9.23411e-06
0.000145591
8.06892e-06
0.000142108
6.96821e-06
0.000139139
5.93774e-06
0.000136645
4.98954e-06
0.000134582
4.12735e-06
0.000132904
3.35482e-06
0.000131568
2.67252e-06
0.00013053
2.07257e-06
0.000129759
1.54208e-06
0.000129225
1.0667e-06
0.00012891
6.26722e-07
0.000128803
2.13777e-07
0.000128953
-3.02406e-07
0.000129385
-8.66671e-07
0.000130097
-1.42105e-06
0.000131192
-2.19254e-06
0.00013273
-3.08048e-06
0.000134666
-3.87897e-06
0.000137229
-5.12759e-06
0.000140465
-6.48506e-06
0.000144276
-7.62299e-06
0.00014891
-9.26164e-06
0.000154271
-1.07251e-05
0.000160557
-1.25771e-05
0.000167787
-1.44735e-05
0.000175681
-1.57818e-05
0.000184547
-1.77252e-05
0.000194423
-1.97556e-05
0.000204897
-2.09475e-05
0.000216298
-2.27943e-05
0.000228407
-2.42231e-05
0.000241349
-2.5883e-05
0.000255123
-2.75361e-05
0.000269316
-2.83795e-05
0.000284125
-2.96127e-05
0.000299569
-3.08864e-05
0.00031523
-3.13333e-05
0.000331211
-3.19635e-05
0.00034727
-3.20947e-05
0.000363364
-3.21704e-05
0.000379287
-3.18342e-05
0.00039469
-3.07942e-05
0.000409492
-2.9594e-05
0.00042354
-2.80683e-05
-2.69407e-05
0.000216884
-3.53047e-05
0.000229114
-3.6678e-05
0.000241935
-3.844e-05
0.000255135
-3.95702e-05
0.00026894
-4.13933e-05
0.000283127
-4.25218e-05
0.000297819
-4.40498e-05
0.000312919
-4.52565e-05
0.000328067
-4.53988e-05
0.000343437
-4.60809e-05
0.000358956
-4.65261e-05
0.000374195
-4.56693e-05
0.000389204
-4.49755e-05
0.000403774
-4.36723e-05
0.000417741
-4.18617e-05
0.000431
-3.97314e-05
0.000443159
-3.64534e-05
0.000454106
-3.28316e-05
0.000463701
-2.87454e-05
0.000471633
-2.37836e-05
0.000477806
-1.85045e-05
0.000482081
-1.27763e-05
0.000484275
-6.57607e-06
0.000484353
-3.00724e-07
0.000482199
6.35445e-06
0.00047787
1.29939e-05
0.00047162
1.87481e-05
0.000463178
2.52913e-05
0.000452943
3.0667e-05
0.000441277
3.49553e-05
0.000428003
3.97638e-05
0.00041358
4.32148e-05
0.000398249
4.59377e-05
0.000382268
4.78904e-05
0.000366
4.87514e-05
0.000349426
4.9671e-05
0.000332852
4.96754e-05
0.000316563
4.88426e-05
0.000300548
4.80196e-05
0.000285027
4.6543e-05
0.000270104
4.47535e-05
0.000255879
4.26675e-05
0.000242437
4.03235e-05
0.000229777
3.79806e-05
0.000217984
3.53825e-05
0.000207082
3.27058e-05
0.000197075
3.00308e-05
0.000187995
2.72516e-05
0.00017984
2.44819e-05
0.000172597
2.17476e-05
0.000166261
1.90241e-05
0.000160801
1.63924e-05
0.00015618
1.38679e-05
0.000152346
1.15079e-05
0.000149232
9.35399e-06
0.000146763
7.42311e-06
0.00014486
5.72605e-06
0.000143421
4.33331e-06
0.00014236
3.19924e-06
0.000141569
2.37607e-06
0.000140966
1.81104e-06
0.000140488
1.44051e-06
0.000140064
1.28112e-06
0.000139657
1.22211e-06
0.000139289
1.10485e-06
0.000138942
1.04388e-06
0.00013864
9.03125e-07
0.000138425
6.37794e-07
0.000138296
3.77729e-07
0.000138241
1.43709e-07
0.000138212
7.47899e-08
0.000138086
3.79228e-07
0.000137721
1.11838e-06
0.000136821
2.71985e-06
0.000135401
4.30726e-06
0.000133528
5.69247e-06
0.00013146
6.28153e-06
0.000129274
6.60659e-06
0.000127484
5.45332e-06
0.000126187
4.01726e-06
0.000125577
1.89827e-06
0.000126357
-2.25448e-06
0.000128422
-6.13521e-06
0.000131563
-9.38087e-06
0.00013569
-1.23031e-05
0.000140847
-1.53924e-05
0.000147123
-1.8766e-05
0.000154551
-2.22411e-05
0.000163135
-2.57433e-05
0.000172835
-2.91022e-05
0.000183605
-3.23019e-05
0.000195374
-3.52826e-05
0.000208068
-3.80522e-05
0.000221632
-4.06618e-05
0.00023591
-4.28144e-05
0.00025071
-4.43912e-05
0.000265847
-4.54082e-05
0.000281173
-4.5991e-05
0.000296554
-4.61356e-05
0.000311787
-4.56755e-05
0.000326694
-4.46691e-05
0.000341069
-4.30851e-05
0.000354693
-4.08326e-05
0.00036741
-3.8105e-05
0.000379064
-3.49223e-05
0.000389493
-3.12327e-05
0.000398599
-2.72693e-05
0.000406176
-2.27295e-05
0.000412103
-1.7748e-05
0.000416352
-1.27154e-05
0.000418786
-7.27875e-06
0.000419443
-1.96765e-06
0.000418311
3.31465e-06
0.00041539
8.7463e-06
0.000410741
1.39232e-05
0.000404478
1.87691e-05
0.000396753
2.31618e-05
0.000387654
2.72813e-05
0.000377372
3.08275e-05
0.000366038
3.39755e-05
0.000353769
3.6778e-05
0.000340717
3.91307e-05
0.00032704
4.10162e-05
0.000312866
4.24975e-05
0.000298349
4.35317e-05
0.000283666
4.40357e-05
0.000268895
4.42896e-05
0.000254207
4.40421e-05
0.000239707
4.34677e-05
0.000225499
4.25998e-05
0.000211733
4.12986e-05
0.00019839
4.00205e-05
0.000185629
3.82864e-05
0.000173392
3.67131e-05
0.000161711
3.50514e-05
0.000150683
3.30795e-05
0.000140139
3.16329e-05
0.00013017
2.99059e-05
0.00012075
2.8257e-05
0.000111822
2.6796e-05
0.00010348
2.50202e-05
9.56355e-05
2.35324e-05
8.83726e-05
2.18088e-05
8.17912e-05
1.97384e-05
7.5763e-05
1.80751e-05
7.03783e-05
1.61591e-05
6.57018e-05
1.40085e-05
6.16481e-05
1.21534e-05
5.81876e-05
1.03988e-05
5.53581e-05
8.48517e-06
5.30898e-05
6.77239e-06
5.13546e-05
5.18274e-06
5.01777e-05
3.52469e-06
4.95726e-05
1.81847e-06
4.95145e-05
1.83277e-07
5.00282e-05
-1.53321e-06
5.1186e-05
-3.48506e-06
5.29878e-05
-5.43307e-06
5.54102e-05
-7.28244e-06
5.84751e-05
-9.19836e-06
6.22315e-05
-1.12585e-05
6.66692e-05
-1.33201e-05
7.17595e-05
-1.52893e-05
7.75277e-05
-1.73135e-05
8.3973e-05
-1.93322e-05
9.11125e-05
-2.1409e-05
9.88923e-05
-2.33543e-05
0.0001073
-2.52207e-05
0.000116349
-2.71418e-05
0.000125971
-2.88645e-05
0.000136123
-3.04394e-05
0.000146835
-3.21421e-05
0.000158037
-3.36096e-05
0.000169693
-3.49557e-05
0.000181892
-3.65829e-05
0.000194574
-3.80413e-05
0.000207685
-3.93341e-05
0.000221287
-4.08105e-05
0.000235355
-4.22095e-05
0.000249749
-4.31718e-05
0.000264493
-4.42126e-05
0.000279509
-4.50321e-05
0.000294624
-4.53281e-05
0.000309746
-4.53418e-05
0.000324791
-4.51204e-05
0.000339601
-4.4414e-05
0.000354058
-4.33349e-05
0.000368035
-4.19194e-05
0.000381311
-3.98e-05
0.000393758
-3.73084e-05
0.000405159
-3.41815e-05
0.000415329
-3.04661e-05
0.000424039
-2.60977e-05
0.000431105
-2.11464e-05
0.000436332
-1.56503e-05
0.000439535
-9.5701e-06
0.000440625
-3.25219e-06
0.000439494
3.2867e-06
0.000436043
1.03552e-05
0.000430379
1.70309e-05
0.000422553
2.34594e-05
0.000412715
2.94793e-05
0.000401059
3.49199e-05
0.000387782
3.98053e-05
0.000373132
4.39203e-05
0.000357329
4.73465e-05
0.000340645
5.00021e-05
0.000323276
5.20746e-05
0.000305517
5.32259e-05
0.000287555
5.38174e-05
0.000269666
5.36251e-05
0.000252091
5.26559e-05
0.000234989
5.12281e-05
0.000218639
4.89744e-05
0.000203162
4.63508e-05
0.000188699
4.33218e-05
0.000175303
4.01161e-05
0.000163045
3.67024e-05
0.000151902
3.33501e-05
0.000141907
2.99251e-05
0.000132973
2.67292e-05
0.00012508
2.3602e-05
0.000118203
2.05521e-05
0.000112319
1.75827e-05
0.000107337
1.48804e-05
0.000103232
1.22582e-05
9.99796e-05
9.69939e-06
9.74907e-05
7.39381e-06
9.57495e-05
5.13908e-06
9.47047e-05
3.0629e-06
9.42876e-05
1.17701e-06
9.4499e-05
-6.99038e-07
9.52574e-05
-2.33781e-06
9.65404e-05
-3.92432e-06
9.81761e-05
-4.99963e-06
0.00010014
-5.96552e-06
0.000102325
-6.61675e-06
0.000104633
-6.97493e-06
0.000107053
-7.33593e-06
0.000109497
-7.41437e-06
0.000111938
-7.38678e-06
0.000114371
-7.33093e-06
0.000116776
-7.25147e-06
0.000119209
-7.38291e-06
0.000121643
-7.35208e-06
0.000124274
-7.9266e-06
0.000127026
-8.30638e-06
0.000130058
-9.12574e-06
0.000133373
-9.97842e-06
0.000137002
-1.0903e-05
0.000141014
-1.208e-05
0.000145486
-1.34307e-05
0.000150369
-1.46587e-05
0.000155778
-1.62214e-05
0.00016169
-1.77432e-05
0.000168251
-1.96731e-05
0.000175451
-2.15905e-05
0.000183277
-2.34329e-05
0.000191824
-2.5595e-05
0.000201155
-2.79308e-05
0.000211248
-3.01968e-05
0.000222121
-3.25869e-05
0.000233839
-3.51109e-05
0.000246284
-3.72422e-05
0.000259414
-3.92952e-05
0.00027321
-4.12803e-05
0.00028747
-4.26889e-05
0.000301969
-4.33949e-05
0.000316775
-4.43479e-05
0.000331434
-4.39009e-05
0.000345906
-4.35105e-05
0.000360094
-4.27339e-05
0.000373591
-4.03336e-05
0.000386427
-3.83518e-05
0.000398534
-3.63586e-05
0.000409746
-3.36571e-05
0.000420003
-3.07667e-05
0.000429196
-2.76297e-05
0.000437169
-2.40277e-05
0.000443868
-2.03137e-05
0.000449204
-1.63137e-05
0.000453012
-1.19629e-05
0.000454991
-6.99314e-06
0.000454917
-1.50686e-07
0.000453019
6.9904e-06
0.000449067
1.33666e-05
0.000442951
1.88491e-05
0.000434915
2.41707e-05
0.000424815
3.02705e-05
0.00041289
3.57319e-05
0.000399286
4.07636e-05
0.000384145
4.53776e-05
0.000367995
4.8406e-05
0.000351145
5.05114e-05
0.000333883
5.17553e-05
0.00031673
5.14378e-05
0.000299911
5.04295e-05
0.000283682
4.86917e-05
0.000268275
4.62193e-05
0.000253756
4.35603e-05
0.000240258
4.05037e-05
0.000227753
3.75257e-05
0.000216212
3.4635e-05
0.000205642
3.1723e-05
0.000195969
2.90281e-05
0.000187137
2.65063e-05
0.000179118
2.40663e-05
0.000171847
2.18174e-05
0.000165297
1.96538e-05
0.000159421
1.763e-05
0.000154186
1.57051e-05
0.000149568
1.38514e-05
0.000145535
1.21026e-05
0.000142051
1.04521e-05
0.000139083
8.90553e-06
0.000136589
7.4832e-06
0.000134526
6.19114e-06
0.000132848
5.03282e-06
0.000131513
4.00763e-06
0.00013048
3.10496e-06
0.000129714
2.3086e-06
0.000129183
1.59693e-06
0.000128866
9.43634e-07
0.000128755
3.25531e-07
0.00012891
-4.57251e-07
0.000129341
-1.29852e-06
0.000130048
-2.12804e-06
0.00013114
-3.28425e-06
0.000132673
-4.61337e-06
0.000134599
-5.80498e-06
0.000137154
-7.68241e-06
0.000140389
-9.72037e-06
0.000144188
-1.14219e-05
0.000148816
-1.38896e-05
0.000154173
-1.60826e-05
0.000160458
-1.88618e-05
0.000167692
-2.17074e-05
0.000175583
-2.36728e-05
0.000184442
-2.6584e-05
0.000194319
-2.96333e-05
0.000204791
-3.14197e-05
0.000216185
-3.41885e-05
0.0002283
-3.63379e-05
0.000241251
-3.88344e-05
0.000255023
-4.13081e-05
0.000269202
-4.25585e-05
0.000284017
-4.44274e-05
0.000299465
-4.63347e-05
0.00031513
-4.69986e-05
0.000331124
-4.79578e-05
0.000347195
-4.81656e-05
0.000363294
-4.82693e-05
0.000379224
-4.77646e-05
0.000394638
-4.62081e-05
0.000409481
-4.44372e-05
0.00042359
-4.21777e-05
-4.04552e-05
0.000216817
-4.7081e-05
0.000229061
-4.89224e-05
0.000241897
-5.12757e-05
0.000255111
-5.27843e-05
0.000268936
-5.52184e-05
0.000283145
-5.67312e-05
0.000297863
-5.87676e-05
0.000312985
-6.03788e-05
0.000328159
-6.05726e-05
0.000343557
-6.14787e-05
0.000359105
-6.2075e-05
0.00037437
-6.0934e-05
0.00038939
-5.99959e-05
0.000403988
-5.82699e-05
0.000417971
-5.58451e-05
0.000431258
-5.30181e-05
0.000443422
-4.86173e-05
0.000454378
-4.37878e-05
0.000463999
-3.83668e-05
0.000471927
-3.17121e-05
0.000478111
-2.46884e-05
0.000482405
-1.70699e-05
0.000484586
-8.7577e-06
0.000484624
-3.38896e-07
0.000482422
8.55656e-06
0.0004781
1.7316e-05
0.000471844
2.50042e-05
0.000463384
3.37513e-05
0.000453125
4.09262e-05
0.000441432
4.66477e-05
0.00042813
5.30663e-05
0.000413674
5.76706e-05
0.00039831
6.1302e-05
0.000382297
6.39035e-05
0.000366
6.50479e-05
0.000349398
6.62733e-05
0.0003328
6.62733e-05
0.000316494
6.51487e-05
0.000300464
6.40499e-05
0.00028493
6.20764e-05
0.000269997
5.96862e-05
0.000255766
5.68991e-05
0.000242322
5.37673e-05
0.000229661
5.06414e-05
0.000217868
4.71753e-05
0.000206971
4.3603e-05
0.000196967
4.00349e-05
0.000187893
3.63264e-05
0.000179744
3.263e-05
0.000172509
2.89828e-05
0.000166182
2.53509e-05
0.00016073
2.18446e-05
0.000156117
1.84815e-05
0.00015229
1.5334e-05
0.000149186
1.24589e-05
0.000146728
9.88104e-06
0.000144837
7.61662e-06
0.000143409
5.76105e-06
0.000142358
4.25059e-06
0.000141578
3.15583e-06
0.000140983
2.40624e-06
0.000140506
1.91721e-06
0.000140082
1.7053e-06
0.000139673
1.63092e-06
0.000139306
1.47233e-06
0.000138967
1.38299e-06
0.00013867
1.1997e-06
0.000138443
8.6532e-07
0.000138301
5.19484e-07
0.00013824
2.04017e-07
0.000138205
1.10306e-07
0.000138078
5.05694e-07
0.000137735
1.46229e-06
0.000136863
3.59094e-06
0.000135477
5.69412e-06
0.000133639
7.52994e-06
0.000131604
8.31695e-06
0.00012945
8.76058e-06
0.000127696
7.20698e-06
0.000126462
5.25104e-06
0.000125916
2.44408e-06
0.00012675
-3.08838e-06
0.000128825
-8.21014e-06
0.000131984
-1.254e-05
0.000136164
-1.64831e-05
0.000141377
-2.06049e-05
0.000147686
-2.50754e-05
0.00015512
-2.96755e-05
0.000163702
-3.43248e-05
0.000173403
-3.88032e-05
0.000184187
-4.30863e-05
0.000195982
-4.70781e-05
0.00020871
-5.07801e-05
0.000222294
-5.42459e-05
0.000236576
-5.70967e-05
0.000251366
-5.91811e-05
0.000266509
-6.05519e-05
0.000281816
-6.12982e-05
0.000297193
-6.15124e-05
0.000312442
-6.0925e-05
0.000327373
-5.96e-05
0.00034177
-5.74827e-05
0.000355415
-5.4477e-05
0.000368159
-5.08499e-05
0.000379841
-4.66044e-05
0.000390303
-4.16948e-05
0.000399431
-3.63971e-05
0.000407028
-3.03267e-05
0.000412972
-2.36918e-05
0.000417236
-1.69798e-05
0.000419684
-9.72668e-06
0.000420345
-2.62895e-06
0.000419183
4.47669e-06
0.000416253
1.16756e-05
0.000411595
1.85814e-05
0.000405322
2.50417e-05
0.000397571
3.09125e-05
0.000388458
3.63945e-05
0.000378164
4.11212e-05
0.000366809
4.53303e-05
0.000354526
4.90617e-05
0.000341458
5.21988e-05
0.000327764
5.47092e-05
0.000313581
5.66808e-05
0.000299052
5.80605e-05
0.000284359
5.87291e-05
0.000269577
5.90714e-05
0.000254875
5.87443e-05
0.000240368
5.79748e-05
0.000226152
5.68153e-05
0.000212373
5.50781e-05