/*--------------------------------*- C++ -*----------------------------------*\
| =========                 |                                                 |
| \\      /  F ield         | OpenFOAM: The Open Source CFD Toolbox           |
|  \\    /   O peration     | Version:  3.0.1                                 |
|   \\  /    A nd           | Web:      www.OpenFOAM.org                      |
|    \\/     M anipulation  |                                                 |
\*---------------------------------------------------------------------------*/
FoamFile
{
    version     2.0;
    format      ascii;
    class       volVectorField;
    location    "89.2";
    object      U;
}
// * * * * * * * * * * * * * * * * * * * * * * * * * * * * * * * * * * * * * //

dimensions      [0 1 -1 0 0 0 0];

internalField   nonuniform List<vector> 
21420
(
(0.11501 -0.000604942 0)
(0.120525 -0.000643798 0)
(0.127196 -0.000681804 0)
(0.134289 -0.000723176 0)
(0.141843 -0.000774955 0)
(0.149911 -0.000826287 0)
(0.15855 -0.000890245 0)
(0.167816 -0.000952527 0)
(0.177761 -0.00101818 0)
(0.188427 -0.00109827 0)
(0.199846 -0.00116983 0)
(0.212027 -0.00123934 0)
(0.224963 -0.00132292 0)
(0.238618 -0.00138495 0)
(0.252932 -0.00145943 0)
(0.267821 -0.00150414 0)
(0.283161 -0.0015322 0)
(0.29881 -0.00157153 0)
(0.314609 -0.00156831 0)
(0.33036 -0.00154236 0)
(0.345858 -0.00152457 0)
(0.360908 -0.00146079 0)
(0.375286 -0.00137484 0)
(0.388776 -0.00128999 0)
(0.40118 -0.0011667 0)
(0.412303 -0.00103806 0)
(0.421968 -0.000881309 0)
(0.430014 -0.000711195 0)
(0.436297 -0.000531873 0)
(0.440694 -0.000340374 0)
(0.443138 -0.000135381 0)
(0.443563 5.73274e-05 0)
(0.442053 0.000266988 0)
(0.438296 0.000468716 0)
(0.432601 0.000661361 0)
(0.424973 0.000854575 0)
(0.415533 0.00101408 0)
(0.404467 0.00117121 0)
(0.391951 0.00131892 0)
(0.378171 0.00141355 0)
(0.363385 0.00151074 0)
(0.347844 0.00155571 0)
(0.331822 0.00159869 0)
(0.315556 0.00162385 0)
(0.299251 0.00160095 0)
(0.283151 0.00157696 0)
(0.267439 0.00153857 0)
(0.252254 0.00146894 0)
(0.237739 0.00140137 0)
(0.223978 0.00132717 0)
(0.211027 0.0012382 0)
(0.198926 0.00115526 0)
(0.187685 0.00106615 0)
(0.177296 0.000983987 0)
(0.167731 0.00090511 0)
(0.158951 0.000827296 0)
(0.150912 0.000757178 0)
(0.143557 0.000693044 0)
(0.136826 0.000632604 0)
(0.130674 0.000578982 0)
(0.125055 0.000527265 0)
(0.119956 0.00047739 0)
(0.115366 0.000429613 0)
(0.111248 0.000384627 0)
(0.107655 0.000340258 0)
(0.104645 0.000301808 0)
(0.102247 0.000261421 0)
(0.10044 0.000226519 0)
(0.0988656 0.000213688 0)
(0.097079 0.000222907 0)
(0.0947371 0.00025831 0)
(0.0917242 0.000303363 0)
(0.087656 0.000344772 0)
(0.0819506 0.000440025 0)
(0.0755173 0.000537551 0)
(0.069275 0.000551183 0)
(0.0636886 0.000546383 0)
(0.0584069 0.000499792 0)
(0.0541664 0.00038788 0)
(0.0511371 0.000299247 0)
(0.0488959 0.000198233 0)
(0.0477096 9.33611e-05 0)
(0.0476357 -3.36258e-05 0)
(0.0488559 -0.000138135 0)
(0.0512806 -0.000249736 0)
(0.0549136 -0.000365955 0)
(0.0598015 -0.000488253 0)
(0.0659388 -0.00060817 0)
(0.0732641 -0.00072781 0)
(0.0816695 -0.000840836 0)
(0.0911541 -0.000952569 0)
(0.10178 -0.00105357 0)
(0.113454 -0.00113538 0)
(0.126023 -0.00121776 0)
(0.139352 -0.00128336 0)
(0.153226 -0.00133791 0)
(0.167471 -0.00139547 0)
(0.182069 -0.00145711 0)
(0.197087 -0.00149991 0)
(0.212473 -0.00154169 0)
(0.228182 -0.00157695 0)
(0.2442 -0.0016053 0)
(0.260413 -0.00161875 0)
(0.27672 -0.00161623 0)
(0.292934 -0.0016033 0)
(0.308908 -0.00156199 0)
(0.324423 -0.00151004 0)
(0.339315 -0.00144008 0)
(0.353369 -0.00134681 0)
(0.366384 -0.00122979 0)
(0.378166 -0.00110117 0)
(0.388528 -0.000952912 0)
(0.397311 -0.00078836 0)
(0.404357 -0.000602535 0)
(0.409492 -0.000410902 0)
(0.412601 -0.000208321 0)
(0.413647 -2.41346e-06 0)
(0.412699 0.000206463 0)
(0.409414 0.000416625 0)
(0.404218 0.000608375 0)
(0.397142 0.000805302 0)
(0.38822 0.000960406 0)
(0.377743 0.001119 0)
(0.365822 0.00124994 0)
(0.352623 0.00136098 0)
(0.338381 0.00146215 0)
(0.323259 0.00153449 0)
(0.307429 0.00159965 0)
(0.291079 0.00164667 0)
(0.274379 0.00166905 0)
(0.257458 0.00168233 0)
(0.240512 0.00167376 0)
(0.223773 0.00165853 0)
(0.20723 0.00162174 0)
(0.191087 0.00157239 0)
(0.175517 0.00151683 0)
(0.16055 0.0014526 0)
(0.146287 0.00137049 0)
(0.132865 0.0012993 0)
(0.120168 0.00121235 0)
(0.108329 0.00113433 0)
(0.0974119 0.00103518 0)
(0.0874222 0.000946891 0)
(0.0783245 0.00085305 0)
(0.070147 0.000772486 0)
(0.0627884 0.000689196 0)
(0.0562579 0.000603902 0)
(0.0505731 0.000524774 0)
(0.045655 0.000456053 0)
(0.0414169 0.000384232 0)
(0.0378526 0.000322334 0)
(0.03494 0.000258315 0)
(0.0326548 0.000197927 0)
(0.0309791 0.000136671 0)
(0.0299018 8.13499e-05 0)
(0.0293761 2.44186e-05 0)
(0.029439 -2.69126e-05 0)
(0.0300527 -8.73934e-05 0)
(0.0312117 -0.000140109 0)
(0.0329284 -0.000198897 0)
(0.035221 -0.000253957 0)
(0.0380856 -0.000312678 0)
(0.0414932 -0.000364977 0)
(0.0454695 -0.000419436 0)
(0.0500174 -0.000475148 0)
(0.0551104 -0.000525651 0)
(0.0607182 -0.000585604 0)
(0.0668856 -0.00062674 0)
(0.0735118 -0.000685884 0)
(0.0806555 -0.00072935 0)
(0.0882222 -0.000770264 0)
(0.096226 -0.000812222 0)
(0.104641 -0.000862397 0)
(0.113529 -0.000903966 0)
(0.122889 -0.000943374 0)
(0.13266 -0.000999653 0)
(0.142934 -0.0010421 0)
(0.15366 -0.00109826 0)
(0.164957 -0.00114146 0)
(0.176737 -0.00118357 0)
(0.188971 -0.00124027 0)
(0.201683 -0.00128006 0)
(0.214775 -0.00132008 0)
(0.2283 -0.00136022 0)
(0.24222 -0.00139134 0)
(0.256395 -0.00141803 0)
(0.270786 -0.00143803 0)
(0.285354 -0.00145172 0)
(0.300027 -0.00145189 0)
(0.314668 -0.00144679 0)
(0.329148 -0.00142339 0)
(0.343293 -0.00137798 0)
(0.356891 -0.00130959 0)
(0.369699 -0.00122097 0)
(0.381423 -0.00110086 0)
(0.391816 -0.000955923 0)
(0.400638 -0.000786264 0)
(0.407649 -0.000598261 0)
(0.412651 -0.000392028 0)
(0.415483 -0.000172096 0)
(0.416087 5.03862e-05 0)
(0.414458 0.000288556 0)
(0.410265 0.000505435 0)
(0.404031 0.000725314 0)
(0.395756 0.00091859 0)
(0.385572 0.00109598 0)
(0.373711 0.00125276 0)
(0.360431 0.0013806 0)
(0.345948 0.00148174 0)
(0.330577 0.00155659 0)
(0.314575 0.00162649 0)
(0.298011 0.00164574 0)
(0.281367 0.00166157 0)
(0.264752 0.00164173 0)
(0.248311 0.00160106 0)
(0.232429 0.00155343 0)
(0.217144 0.00147437 0)
(0.202645 0.00139101 0)
(0.189149 0.0012905 0)
(0.176693 0.00117754 0)
(0.165415 0.00106821 0)
(0.155328 0.000943095 0)
(0.146413 0.000829564 0)
(0.138582 0.000726358 0)
(0.131794 0.000619802 0)
(0.12605 0.000519785 0)
(0.121271 0.000438183 0)
(0.117308 0.000351885 0)
(0.114095 0.000277393 0)
(0.11162 0.000211339 0)
(0.109809 0.000155256 0)
(0.108543 9.65871e-05 0)
(0.107798 5.51461e-05 0)
(0.107459 7.59908e-06 0)
(0.107532 -2.8971e-05 0)
(0.10797 -5.15814e-05 0)
(0.108643 -7.21975e-05 0)
(0.109442 -7.6765e-05 0)
(0.11022 -8.76013e-05 0)
(0.111009 -6.96041e-05 0)
(0.111585 -5.30525e-05 0)
(0.111948 -2.57449e-05 0)
(0.112093 6.96808e-06 0)
(0.111901 2.04168e-05 0)
(0.111553 4.28471e-05 0)
(0.111106 5.23885e-05 0)
(0.110592 3.48021e-05 0)
(0.110262 2.8186e-05 0)
(0.110146 -2.15149e-06 0)
(0.110329 -3.80213e-05 0)
(0.110883 -6.64184e-05 0)
(0.111824 -0.00011997 0)
(0.113225 -0.000149804 0)
(0.115023 -0.000203936 0)
(0.117331 -0.000253987 0)
(0.120171 -0.000299004 0)
(0.123518 -0.000365355 0)
(0.127572 -0.000433005 0)
(0.132294 -0.000497091 0)
(0.137622 -0.000575617 0)
(0.143728 -0.000649513 0)
(0.150543 -0.000734158 0)
(0.158006 -0.000816136 0)
(0.16636 -0.0009041 0)
(0.175632 -0.00100407 0)
(0.18595 -0.00109893 0)
(0.197447 -0.00120397 0)
(0.210194 -0.00129625 0)
(0.22419 -0.00138352 0)
(0.239388 -0.00145937 0)
(0.255571 -0.00149968 0)
(0.272084 -0.00153194 0)
(0.288574 -0.001568 0)
(0.30535 -0.0015939 0)
(0.322422 -0.00159434 0)
(0.339427 -0.00157025 0)
(0.356166 -0.00153931 0)
(0.372583 -0.00148529 0)
(0.388434 -0.00141555 0)
(0.403624 -0.00132765 0)
(0.417934 -0.00120862 0)
(0.430899 -0.00106138 0)
(0.442165 -0.000896543 0)
(0.451223 -0.000700843 0)
(0.457464 -0.00048376 0)
(0.460549 -0.000185892 0)
(0.461014 0.00021757 0)
(0.459195 0.000569743 0)
(0.453945 0.000836206 0)
(0.445362 0.00105862 0)
(0.434051 0.00130111 0)
(0.420175 0.00154177 0)
(0.404099 0.00171404 0)
(0.386483 0.0018493 0)
(0.367623 0.00194799 0)
(0.348063 0.00197613 0)
(0.328378 0.00197302 0)
(0.308833 0.00194549 0)
(0.289799 0.00187272 0)
(0.27151 0.00179351 0)
(0.254109 0.00169092 0)
(0.237719 0.00159224 0)
(0.222317 0.0014935 0)
(0.207935 0.00138693 0)
(0.194572 0.00128898 0)
(0.182166 0.00119489 0)
(0.170701 0.00109928 0)
(0.160141 0.00101157 0)
(0.150447 0.000924122 0)
(0.141587 0.000843338 0)
(0.133514 0.000766253 0)
(0.126197 0.000691235 0)
(0.119595 0.000622161 0)
(0.113661 0.000557689 0)
(0.108348 0.000497503 0)
(0.103604 0.000443446 0)
(0.0993757 0.000394433 0)
(0.0956073 0.000351357 0)
(0.0922456 0.000313518 0)
(0.0892421 0.00028013 0)
(0.0865541 0.000250844 0)
(0.0841476 0.000224549 0)
(0.0819995 0.000199716 0)
(0.0800997 0.000175475 0)
(0.0784515 0.000149681 0)
(0.0770728 0.00012133 0)
(0.0759999 8.90746e-05 0)
(0.0752722 5.12903e-05 0)
(0.0749315 8.15656e-06 0)
(0.0750667 -4.12593e-05 0)
(0.0757682 -9.87089e-05 0)
(0.0770725 -0.000163125 0)
(0.0790599 -0.000233489 0)
(0.0818001 -0.000310844 0)
(0.085343 -0.000392604 0)
(0.0897369 -0.000480357 0)
(0.0950125 -0.000569699 0)
(0.101208 -0.000660083 0)
(0.108346 -0.000756202 0)
(0.116423 -0.000848126 0)
(0.125443 -0.000938068 0)
(0.135399 -0.00103484 0)
(0.146267 -0.00112027 0)
(0.158018 -0.00121357 0)
(0.170614 -0.00129131 0)
(0.184008 -0.00136175 0)
(0.198147 -0.00144314 0)
(0.212962 -0.0015004 0)
(0.228373 -0.00154679 0)
(0.244291 -0.001606 0)
(0.26061 -0.00163107 0)
(0.277208 -0.00166791 0)
(0.293951 -0.00166581 0)
(0.310678 -0.00164603 0)
(0.327231 -0.00163582 0)
(0.343416 -0.00158092 0)
(0.360411 -0.00150651 0)
(0.114996 -0.00181475 0)
(0.120509 -0.00193127 0)
(0.12718 -0.00204525 0)
(0.134271 -0.00216934 0)
(0.141822 -0.00232464 0)
(0.149888 -0.00247863 0)
(0.158525 -0.00267053 0)
(0.167789 -0.00285739 0)
(0.177732 -0.00305442 0)
(0.188397 -0.00329471 0)
(0.199815 -0.00350948 0)
(0.211997 -0.00371807 0)
(0.224933 -0.00396891 0)
(0.238591 -0.00415522 0)
(0.252908 -0.00437867 0)
(0.267802 -0.00451291 0)
(0.283148 -0.00459717 0)
(0.298803 -0.00471532 0)
(0.314609 -0.00470569 0)
(0.330367 -0.00462786 0)
(0.345875 -0.0045746 0)
(0.360932 -0.00438323 0)
(0.375319 -0.00412533 0)
(0.388818 -0.0038708 0)
(0.401229 -0.00350091 0)
(0.41236 -0.00311496 0)
(0.422031 -0.00264443 0)
(0.430082 -0.0021343 0)
(0.436371 -0.00159599 0)
(0.440773 -0.00101797 0)
(0.443211 -0.000419546 0)
(0.443665 0.000181085 0)
(0.442124 0.000802127 0)
(0.438374 0.00140557 0)
(0.432677 0.00198423 0)
(0.425047 0.00256416 0)
(0.415601 0.00304283 0)
(0.404528 0.00351434 0)
(0.392004 0.00395763 0)
(0.378214 0.00424153 0)
(0.36342 0.00453317 0)
(0.347868 0.00466807 0)
(0.331837 0.004797 0)
(0.315562 0.00487245 0)
(0.299249 0.00480366 0)
(0.283143 0.00473159 0)
(0.267425 0.00461632 0)
(0.252235 0.00440733 0)
(0.237716 0.0042045 0)
(0.223952 0.00398183 0)
(0.211 0.00371482 0)
(0.198898 0.00346592 0)
(0.187658 0.00319853 0)
(0.17727 0.00295198 0)
(0.167706 0.00271535 0)
(0.158928 0.00248178 0)
(0.150891 0.00227133 0)
(0.143537 0.00207919 0)
(0.136808 0.00189815 0)
(0.130657 0.00173688 0)
(0.125039 0.00158215 0)
(0.11994 0.00143265 0)
(0.115349 0.00128865 0)
(0.11123 0.00115483 0)
(0.107635 0.00102077 0)
(0.104623 0.000907133 0)
(0.10222 0.000785205 0)
(0.100413 0.000679468 0)
(0.0988466 0.000644311 0)
(0.0970659 0.000668389 0)
(0.0947373 0.000775241 0)
(0.0917237 0.000908716 0)
(0.0876836 0.0010305 0)
(0.0820025 0.00131949 0)
(0.0755771 0.00161323 0)
(0.0693597 0.00164976 0)
(0.0637699 0.00163259 0)
(0.0585112 0.00149095 0)
(0.054277 0.00116104 0)
(0.0512692 0.000899421 0)
(0.0490464 0.000594828 0)
(0.0478757 0.000273838 0)
(0.0478214 -0.000103696 0)
(0.0490714 -0.00042266 0)
(0.0515162 -0.000749837 0)
(0.0551635 -0.0010935 0)
(0.0600472 -0.00147149 0)
(0.0661792 -0.00183538 0)
(0.0735099 -0.00218649 0)
(0.081918 -0.00252161 0)
(0.0913939 -0.00286367 0)
(0.102025 -0.00316798 0)
(0.113697 -0.00341986 0)
(0.126293 -0.00364507 0)
(0.139613 -0.00384609 0)
(0.153471 -0.00402554 0)
(0.167722 -0.00418702 0)
(0.182336 -0.00434987 0)
(0.197344 -0.00450785 0)
(0.212728 -0.00463638 0)
(0.228453 -0.00474169 0)
(0.24447 -0.00481595 0)
(0.260697 -0.00485628 0)
(0.276994 -0.00485299 0)
(0.293226 -0.00479547 0)
(0.309185 -0.00470287 0)
(0.324724 -0.00453708 0)
(0.33963 -0.00431305 0)
(0.353681 -0.00404406 0)
(0.366701 -0.00369662 0)
(0.378487 -0.0033048 0)
(0.388863 -0.00286375 0)
(0.397656 -0.00235776 0)
(0.404697 -0.00181728 0)
(0.409838 -0.00122895 0)
(0.412952 -0.000622899 0)
(0.413998 -1.41745e-05 0)
(0.413033 0.000615373 0)
(0.409742 0.00125344 0)
(0.40456 0.0018396 0)
(0.397459 0.00238686 0)
(0.388563 0.00289978 0)
(0.378052 0.00334063 0)
(0.366127 0.0037536 0)
(0.352925 0.00409469 0)
(0.338665 0.00438169 0)
(0.323553 0.00462076 0)
(0.307709 0.00479925 0)
(0.291341 0.00492679 0)
(0.274646 0.00501575 0)
(0.257712 0.00504812 0)
(0.240765 0.00502198 0)
(0.224012 0.00496625 0)
(0.207464 0.00486943 0)
(0.191316 0.00472497 0)
(0.17575 0.00455168 0)
(0.160774 0.00435006 0)
(0.146507 0.00412134 0)
(0.133074 0.00389242 0)
(0.120394 0.00365484 0)
(0.108522 0.00337279 0)
(0.097628 0.00311608 0)
(0.0876207 0.00283633 0)
(0.0785317 0.00257297 0)
(0.0703416 0.00231144 0)
(0.06298 0.0020571 0)
(0.0564544 0.00180579 0)
(0.0507746 0.00157761 0)
(0.0458547 0.00136449 0)
(0.0416242 0.00116199 0)
(0.0380514 0.000962714 0)
(0.0351417 0.000771415 0)
(0.0328587 0.000596202 0)
(0.0311856 0.000412248 0)
(0.0301065 0.00024341 0)
(0.0295844 6.42836e-05 0)
(0.0296489 -0.000100198 0)
(0.0302766 -0.000256255 0)
(0.0314303 -0.00042756 0)
(0.0331604 -0.00058896 0)
(0.0354468 -0.000761362 0)
(0.0383034 -0.000929021 0)
(0.0417166 -0.00109688 0)
(0.0456982 -0.00125977 0)
(0.0502407 -0.00143943 0)
(0.0553376 -0.00158535 0)
(0.0609652 -0.00175731 0)
(0.0671076 -0.00190594 0)
(0.0737641 -0.00204591 0)
(0.0808894 -0.00218585 0)
(0.0884512 -0.00231889 0)
(0.0964567 -0.00244901 0)
(0.104881 -0.00258039 0)
(0.113762 -0.00272222 0)
(0.123113 -0.00283997 0)
(0.132894 -0.00298928 0)
(0.143147 -0.00312699 0)
(0.153883 -0.00328688 0)
(0.165162 -0.003425 0)
(0.176917 -0.00357528 0)
(0.189148 -0.0037104 0)
(0.201842 -0.00384286 0)
(0.214921 -0.00396815 0)
(0.228437 -0.00408051 0)
(0.242348 -0.00416178 0)
(0.256499 -0.00425462 0)
(0.270886 -0.00431147 0)
(0.285431 -0.00435573 0)
(0.300095 -0.00435581 0)
(0.314731 -0.00433097 0)
(0.329195 -0.00426601 0)
(0.34333 -0.00413543 0)
(0.356924 -0.00393331 0)
(0.369723 -0.00365541 0)
(0.381451 -0.00329665 0)
(0.39184 -0.00287116 0)
(0.400657 -0.00236013 0)
(0.40766 -0.0017922 0)
(0.412652 -0.00116952 0)
(0.41547 -0.000514323 0)
(0.416059 0.000141792 0)
(0.414374 0.000851246 0)
(0.410217 0.00154992 0)
(0.403955 0.00216916 0)
(0.395651 0.00275817 0)
(0.385456 0.00328696 0)
(0.37358 0.0037522 0)
(0.360278 0.00413952 0)
(0.345782 0.00444697 0)
(0.3304 0.00469331 0)
(0.31436 0.00486028 0)
(0.297799 0.004937 0)
(0.281131 0.00496981 0)
(0.264536 0.00494437 0)
(0.248067 0.00480458 0)
(0.232164 0.00466348 0)
(0.216882 0.00444643 0)
(0.202394 0.00417823 0)
(0.188902 0.00387903 0)
(0.17644 0.0035255 0)
(0.165147 0.0031753 0)
(0.155081 0.00283434 0)
(0.146179 0.00250026 0)
(0.138346 0.00216195 0)
(0.131574 0.00186091 0)
(0.12584 0.00157713 0)
(0.121062 0.00130527 0)
(0.117122 0.00107203 0)
(0.113908 0.00083168 0)
(0.111447 0.00063998 0)
(0.109633 0.000462393 0)
(0.108375 0.000300819 0)
(0.107625 0.000168631 0)
(0.107294 3.19044e-05 0)
(0.107374 -7.70156e-05 0)
(0.107807 -0.00016624 0)
(0.108478 -0.000230157 0)
(0.109284 -0.000238582 0)
(0.110086 -0.000246206 0)
(0.110853 -0.000210272 0)
(0.111457 -0.000136502 0)
(0.111824 -7.76751e-05 0)
(0.111946 1.09323e-05 0)
(0.111747 6.37413e-05 0)
(0.111401 0.000127964 0)
(0.110948 0.00014769 0)
(0.110438 0.000115614 0)
(0.110092 7.95685e-05 0)
(0.109979 8.21286e-06 0)
(0.110137 -0.000118542 0)
(0.110696 -0.000208219 0)
(0.111655 -0.000334905 0)
(0.113024 -0.000469325 0)
(0.114829 -0.000600811 0)
(0.117142 -0.000752932 0)
(0.119977 -0.000905103 0)
(0.123313 -0.00110518 0)
(0.12737 -0.0012942 0)
(0.1321 -0.00148586 0)
(0.137436 -0.00172467 0)
(0.143537 -0.00194422 0)
(0.150373 -0.00216942 0)
(0.157814 -0.00245551 0)
(0.166153 -0.00273386 0)
(0.175442 -0.00300616 0)
(0.185768 -0.00330612 0)
(0.197271 -0.00361608 0)
(0.210031 -0.00387372 0)
(0.224048 -0.00414157 0)
(0.239238 -0.00438261 0)
(0.255457 -0.00448756 0)
(0.271974 -0.00460867 0)
(0.288497 -0.00470981 0)
(0.305297 -0.00477699 0)
(0.322377 -0.00477642 0)
(0.339395 -0.0047189 0)
(0.356161 -0.00461334 0)
(0.372581 -0.0044639 0)
(0.388464 -0.00424241 0)
(0.403665 -0.00398459 0)
(0.417983 -0.00362174 0)
(0.430955 -0.0031829 0)
(0.442223 -0.00268145 0)
(0.451285 -0.00208306 0)
(0.457539 -0.00143077 0)
(0.460667 -0.000532873 0)
(0.461137 0.00065011 0)
(0.459206 0.00169297 0)
(0.453953 0.00248596 0)
(0.445392 0.00316875 0)
(0.434085 0.00390442 0)
(0.420202 0.00462481 0)
(0.404115 0.00514338 0)
(0.386489 0.00554826 0)
(0.367617 0.00584625 0)
(0.348046 0.00592574 0)
(0.328353 0.00592961 0)
(0.308801 0.0058194 0)
(0.289763 0.00560959 0)
(0.27147 0.00537839 0)
(0.254068 0.0050724 0)
(0.237678 0.0047767 0)
(0.222277 0.0044805 0)
(0.207896 0.00416079 0)
(0.194534 0.0038669 0)
(0.18213 0.00358461 0)
(0.170666 0.00329779 0)
(0.160108 0.00303471 0)
(0.150415 0.00277235 0)
(0.141556 0.00252995 0)
(0.133485 0.00229869 0)
(0.126169 0.0020736 0)
(0.119569 0.00186634 0)
(0.113637 0.00167293 0)
(0.108326 0.00149237 0)
(0.103584 0.00133022 0)
(0.0993578 0.00118328 0)
(0.0955914 0.00105412 0)
(0.0922317 0.000940505 0)
(0.0892299 0.000840249 0)
(0.0865432 0.000752474 0)
(0.0841377 0.00067372 0)
(0.0819899 0.000599299 0)
(0.0800898 0.000526525 0)
(0.0784409 0.000449388 0)
(0.0770608 0.000364453 0)
(0.0759859 0.000267465 0)
(0.0752561 0.000154114 0)
(0.0749126 2.53449e-05 0)
(0.0750452 -0.000123442 0)
(0.0757441 -0.000295714 0)
(0.0770454 -0.000488938 0)
(0.0790303 -0.000700183 0)
(0.081768 -0.000932295 0)
(0.0853091 -0.00117761 0)
(0.0897013 -0.00144089 0)
(0.0949759 -0.00170891 0)
(0.101171 -0.00198017 0)
(0.108308 -0.0022686 0)
(0.116386 -0.00254443 0)
(0.125406 -0.00281424 0)
(0.135363 -0.0031046 0)
(0.146232 -0.00336092 0)
(0.157984 -0.00364088 0)
(0.170582 -0.00387411 0)
(0.183978 -0.00408546 0)
(0.198119 -0.00432971 0)
(0.212938 -0.00450159 0)
(0.228353 -0.00464082 0)
(0.244275 -0.00481847 0)
(0.260598 -0.00489371 0)
(0.277202 -0.00500433 0)
(0.293951 -0.00499808 0)
(0.310685 -0.00493877 0)
(0.327245 -0.0049082 0)
(0.343438 -0.00474354 0)
(0.360442 -0.0045203 0)
(0.114968 -0.00302435 0)
(0.120479 -0.0032184 0)
(0.127147 -0.00340823 0)
(0.134235 -0.00361495 0)
(0.141782 -0.00387369 0)
(0.149844 -0.00413034 0)
(0.158475 -0.00445018 0)
(0.167735 -0.00476169 0)
(0.177676 -0.00509029 0)
(0.188337 -0.00549092 0)
(0.199754 -0.0058491 0)
(0.211938 -0.00619706 0)
(0.224876 -0.00661543 0)
(0.238539 -0.0069264 0)
(0.252862 -0.00729915 0)
(0.267766 -0.0075232 0)
(0.283123 -0.00766393 0)
(0.298791 -0.00786118 0)
(0.314612 -0.00784537 0)
(0.330386 -0.00771572 0)
(0.345911 -0.00762713 0)
(0.360985 -0.00730817 0)
(0.375387 -0.00687818 0)
(0.388904 -0.00645395 0)
(0.401329 -0.00583729 0)
(0.412477 -0.00519382 0)
(0.422159 -0.00440938 0)
(0.430219 -0.00355898 0)
(0.436519 -0.00266015 0)
(0.440926 -0.00170003 0)
(0.443383 -0.000694009 0)
(0.443841 0.000296088 0)
(0.442265 0.0013388 0)
(0.438527 0.00234118 0)
(0.432827 0.00330796 0)
(0.425189 0.00427539 0)
(0.415729 0.00507363 0)
(0.404642 0.00585988 0)
(0.392101 0.00659912 0)
(0.378292 0.00707237 0)
(0.363478 0.0075586 0)
(0.347907 0.00778331 0)
(0.331856 0.0079981 0)
(0.315563 0.00812365 0)
(0.299234 0.00800868 0)
(0.283112 0.00788817 0)
(0.267381 0.00769564 0)
(0.252183 0.0073469 0)
(0.237656 0.00700847 0)
(0.223887 0.00663698 0)
(0.210933 0.00619163 0)
(0.19883 0.00577652 0)
(0.187591 0.00533066 0)
(0.177205 0.00491957 0)
(0.167644 0.00452502 0)
(0.15887 0.00413559 0)
(0.150838 0.00378461 0)
(0.143489 0.00346453 0)
(0.136765 0.00316309 0)
(0.130618 0.00289429 0)
(0.125002 0.00263631 0)
(0.119904 0.00238776 0)
(0.115315 0.00214802 0)
(0.111197 0.00192381 0)
(0.107601 0.00170182 0)
(0.104586 0.00151222 0)
(0.102181 0.0013107 0)
(0.100378 0.00113389 0)
(0.0988263 0.00107186 0)
(0.0970666 0.00111332 0)
(0.0947678 0.0012913 0)
(0.091767 0.0015184 0)
(0.0877731 0.00171641 0)
(0.0821447 0.00217798 0)
(0.0757469 0.0026735 0)
(0.0695499 0.00274285 0)
(0.0639924 0.00271858 0)
(0.0587658 0.00248166 0)
(0.0545359 0.00192979 0)
(0.0515475 0.00148611 0)
(0.04935 0.000980017 0)
(0.048206 0.000452229 0)
(0.0481833 -0.000178842 0)
(0.0494998 -0.000706612 0)
(0.0519753 -0.00125405 0)
(0.0556409 -0.00182655 0)
(0.0605138 -0.00244514 0)
(0.0666333 -0.00305237 0)
(0.0739594 -0.00364521 0)
(0.082366 -0.00420792 0)
(0.0918482 -0.00477269 0)
(0.102486 -0.00527942 0)
(0.114162 -0.00569221 0)
(0.126744 -0.00608144 0)
(0.140066 -0.0064105 0)
(0.153925 -0.00670176 0)
(0.168165 -0.00698873 0)
(0.182768 -0.0072626 0)
(0.197782 -0.00750719 0)
(0.213176 -0.00771972 0)
(0.2289 -0.00790105 0)
(0.244921 -0.00803249 0)
(0.261145 -0.00809942 0)
(0.277451 -0.00809052 0)
(0.293684 -0.0080027 0)
(0.309659 -0.00783313 0)
(0.325211 -0.00756055 0)
(0.34012 -0.00720279 0)
(0.354191 -0.00673423 0)
(0.367224 -0.00616229 0)
(0.379013 -0.00551587 0)
(0.389401 -0.00476929 0)
(0.398203 -0.00393546 0)
(0.405252 -0.00302241 0)
(0.410395 -0.00205368 0)
(0.413518 -0.00104189 0)
(0.41457 -1.99531e-05 0)
(0.413566 0.00103076 0)
(0.410288 0.00208759 0)
(0.405113 0.00306367 0)
(0.39801 0.0039927 0)
(0.38909 0.00482333 0)
(0.378578 0.00558658 0)
(0.366632 0.00625354 0)
(0.353418 0.00682649 0)
(0.339149 0.00730347 0)
(0.324018 0.00769481 0)
(0.308175 0.0080038 0)
(0.291794 0.00821731 0)
(0.275083 0.00836133 0)
(0.258141 0.00841437 0)
(0.241187 0.00837099 0)
(0.22442 0.00827966 0)
(0.20786 0.00811331 0)
(0.191706 0.00787175 0)
(0.176149 0.00759213 0)
(0.161152 0.00724578 0)
(0.146876 0.00686758 0)
(0.133444 0.00648835 0)
(0.120758 0.00608106 0)
(0.108901 0.0056365 0)
(0.0979853 0.00518568 0)
(0.087972 0.00472953 0)
(0.0788764 0.0042797 0)
(0.0706972 0.0038567 0)
(0.0633476 0.00343114 0)
(0.056827 0.00301086 0)
(0.0511502 0.00262748 0)
(0.0462303 0.0022743 0)
(0.041995 0.00193258 0)
(0.0384228 0.00160962 0)
(0.0355157 0.00128595 0)
(0.0332374 0.000992125 0)
(0.0315687 0.000685075 0)
(0.0304941 0.00040518 0)
(0.0299738 0.000115909 0)
(0.0300369 -0.000162501 0)
(0.0306591 -0.000431782 0)
(0.0318169 -0.000711221 0)
(0.0335445 -0.000988967 0)
(0.035832 -0.00127131 0)
(0.0386839 -0.00155128 0)
(0.0421125 -0.00181761 0)
(0.0460842 -0.00211017 0)
(0.0506361 -0.00238359 0)
(0.0557216 -0.00264863 0)
(0.0613454 -0.00292825 0)
(0.0675029 -0.00316316 0)
(0.0741405 -0.00342656 0)
(0.0812791 -0.00364172 0)
(0.0888495 -0.00385771 0)
(0.0968478 -0.00408784 0)
(0.10527 -0.00430125 0)
(0.114151 -0.00452707 0)
(0.123478 -0.00473937 0)
(0.133243 -0.004982 0)
(0.143485 -0.00521195 0)
(0.154199 -0.00548372 0)
(0.165467 -0.00570784 0)
(0.177219 -0.00593665 0)
(0.189416 -0.00619428 0)
(0.20209 -0.00639273 0)
(0.215142 -0.00660773 0)
(0.228633 -0.00679731 0)
(0.242519 -0.00694127 0)
(0.256648 -0.00707792 0)
(0.271005 -0.00718296 0)
(0.285532 -0.00725134 0)
(0.300162 -0.00726588 0)
(0.314776 -0.00721727 0)
(0.329219 -0.00710913 0)
(0.343349 -0.0068818 0)
(0.356928 -0.00656318 0)
(0.369722 -0.00609126 0)
(0.38144 -0.00549093 0)
(0.391815 -0.00478555 0)
(0.400617 -0.00392556 0)
(0.407594 -0.00299121 0)
(0.412568 -0.00194771 0)
(0.415372 -0.000850389 0)
(0.415934 0.000249274 0)
(0.414182 0.00142944 0)
(0.410017 0.0025637 0)
(0.403745 0.00362699 0)
(0.395404 0.00460068 0)
(0.385176 0.00548858 0)
(0.373272 0.00625976 0)
(0.359942 0.00690767 0)
(0.345417 0.00741483 0)
(0.330007 0.00781981 0)
(0.313957 0.00811595 0)
(0.297377 0.00823077 0)
(0.280698 0.0082919 0)
(0.26407 0.00822684 0)
(0.247604 0.00801692 0)
(0.231685 0.00776929 0)
(0.216379 0.0073964 0)
(0.201896 0.00695867 0)
(0.188411 0.00646158 0)
(0.17596 0.00588468 0)
(0.164678 0.00531085 0)
(0.15461 0.00471403 0)
(0.145719 0.00415723 0)
(0.137909 0.00361279 0)
(0.131151 0.00309414 0)
(0.12543 0.00261354 0)
(0.120677 0.00218068 0)
(0.116742 0.0017697 0)
(0.113539 0.0013856 0)
(0.111083 0.00106109 0)
(0.109281 0.000771681 0)
(0.108026 0.000491783 0)
(0.107278 0.000277388 0)
(0.106955 4.77765e-05 0)
(0.107041 -0.000141029 0)
(0.10749 -0.000265397 0)
(0.108173 -0.000372813 0)
(0.108979 -0.000404058 0)
(0.109782 -0.000421622 0)
(0.110565 -0.000352347 0)
(0.111169 -0.000245273 0)
(0.111547 -0.000129277 0)
(0.111678 2.57461e-05 0)
(0.111463 0.000105946 0)
(0.111112 0.000214997 0)
(0.110651 0.0002508 0)
(0.110121 0.000184428 0)
(0.109783 0.000139618 0)
(0.109644 -3.11562e-06 0)
(0.1098 -0.000185692 0)
(0.11036 -0.000343745 0)
(0.1113 -0.000573847 0)
(0.112679 -0.000767628 0)
(0.114472 -0.00101488 0)
(0.116793 -0.00124991 0)
(0.119628 -0.00150541 0)
(0.122961 -0.00184011 0)
(0.127017 -0.00215742 0)
(0.131745 -0.0024803 0)
(0.13708 -0.00288277 0)
(0.143178 -0.00325553 0)
(0.149998 -0.00364389 0)
(0.157446 -0.0040835 0)
(0.165778 -0.00454518 0)
(0.17507 -0.00501129 0)
(0.185407 -0.00550434 0)
(0.196908 -0.00603031 0)
(0.209678 -0.00646651 0)
(0.223724 -0.00690124 0)
(0.23895 -0.00728952 0)
(0.255186 -0.00749104 0)
(0.271729 -0.00767727 0)
(0.288285 -0.0078562 0)
(0.305127 -0.00798163 0)
(0.322251 -0.00797498 0)
(0.339306 -0.00786682 0)
(0.356098 -0.00769549 0)
(0.372559 -0.00742528 0)
(0.38847 -0.00707835 0)
(0.403703 -0.00663909 0)
(0.418052 -0.00603095 0)
(0.431043 -0.00530107 0)
(0.44233 -0.00444492 0)
(0.451406 -0.00341947 0)
(0.457686 -0.00231201 0)
(0.460887 -0.000871841 0)
(0.461314 0.00104528 0)
(0.45923 0.00271359 0)
(0.453981 0.0040728 0)
(0.445445 0.0052688 0)
(0.434139 0.00650761 0)
(0.420237 0.00771178 0)
(0.404128 0.00857542 0)
(0.386477 0.00925101 0)
(0.367581 0.00974583 0)
(0.347993 0.00988288 0)
(0.328278 0.00987097 0)
(0.308711 0.00974053 0)
(0.289673 0.0093638 0)
(0.271373 0.00896707 0)
(0.253971 0.00845445 0)
(0.237581 0.00796091 0)
(0.222183 0.00746698 0)
(0.207807 0.00693405 0)
(0.194449 0.00644421 0)
(0.182049 0.00597373 0)
(0.170589 0.00549575 0)
(0.160034 0.00505729 0)
(0.150346 0.00462008 0)
(0.14149 0.00421611 0)
(0.133422 0.00383065 0)
(0.12611 0.00345546 0)
(0.119514 0.00311001 0)
(0.113586 0.00278766 0)
(0.10828 0.0024867 0)
(0.103543 0.00221645 0)
(0.0993207 0.0019716 0)
(0.0955587 0.00175637 0)
(0.092203 0.00156707 0)
(0.0892048 0.00140016 0)
(0.086521 0.00125395 0)
(0.0841173 0.00112283 0)
(0.0819704 0.000999064 0)
(0.08007 0.00087785 0)
(0.0784195 0.000749602 0)
(0.0770367 0.000608311 0)
(0.0759582 0.000446821 0)
(0.075224 0.000257833 0)
(0.0748751 4.2972e-05 0)
(0.0750028 -0.000204686 0)
(0.0756964 -0.000491787 0)
(0.0769918 -0.000813757 0)
(0.0789717 -0.00116612 0)
(0.0817047 -0.00155312 0)
(0.0852421 -0.00196209 0)
(0.0896308 -0.00240093 0)
(0.0949035 -0.00284764 0)
(0.101098 -0.0033001 0)
(0.108234 -0.00378098 0)
(0.116311 -0.00424086 0)
(0.125333 -0.0046906 0)
(0.135291 -0.00517467 0)
(0.146163 -0.00560196 0)
(0.157917 -0.0060687 0)
(0.170519 -0.00645753 0)
(0.18392 -0.00680988 0)
(0.198066 -0.00721715 0)
(0.212891 -0.00750385 0)
(0.228314 -0.00773603 0)
(0.244243 -0.00803231 0)
(0.260576 -0.00815788 0)
(0.277191 -0.00834252 0)
(0.293952 -0.00833229 0)
(0.310699 -0.00823355 0)
(0.327274 -0.0081828 0)
(0.343482 -0.00790849 0)
(0.360503 -0.0075365 0)
(0.114925 -0.0042336 0)
(0.120434 -0.00450495 0)
(0.127098 -0.00477044 0)
(0.134181 -0.00505965 0)
(0.141721 -0.00542172 0)
(0.149777 -0.00578103 0)
(0.158401 -0.00622879 0)
(0.167655 -0.00666504 0)
(0.17759 -0.00712556 0)
(0.188247 -0.00768674 0)
(0.199664 -0.00818868 0)
(0.211849 -0.00867652 0)
(0.22479 -0.0092629 0)
(0.23846 -0.00969901 0)
(0.252793 -0.0102217 0)
(0.267711 -0.010536 0)
(0.283086 -0.0107337 0)
(0.298774 -0.0110105 0)
(0.314617 -0.0109889 0)
(0.330414 -0.0108075 0)
(0.345965 -0.0106838 0)
(0.361063 -0.0102373 0)
(0.375488 -0.00963501 0)
(0.389033 -0.00904098 0)
(0.401479 -0.0081773 0)
(0.412651 -0.00727608 0)
(0.422351 -0.00617727 0)
(0.430427 -0.00498584 0)
(0.436743 -0.00372817 0)
(0.441162 -0.00238177 0)
(0.443637 -0.000984036 0)
(0.444092 0.00042605 0)
(0.442486 0.00187776 0)
(0.438758 0.00327528 0)
(0.433051 0.0046332 0)
(0.425403 0.00598932 0)
(0.415921 0.00710779 0)
(0.404813 0.00820939 0)
(0.392248 0.00924517 0)
(0.378409 0.00990794 0)
(0.363566 0.010589 0)
(0.347964 0.0109034 0)
(0.331884 0.0112039 0)
(0.315563 0.0113792 0)
(0.29921 0.0112176 0)
(0.283066 0.011048 0)
(0.267315 0.0107776 0)
(0.252104 0.0102885 0)
(0.237566 0.00981385 0)
(0.22379 0.00929299 0)
(0.210833 0.00866882 0)
(0.198728 0.00808708 0)
(0.187491 0.00746241 0)
(0.177107 0.00688649 0)
(0.167551 0.00633378 0)
(0.158784 0.00578829 0)
(0.150758 0.00529678 0)
(0.143417 0.00484871 0)
(0.1367 0.00442662 0)
(0.130558 0.00405048 0)
(0.124947 0.0036902 0)
(0.119851 0.00334254 0)
(0.115263 0.00300644 0)
(0.111147 0.00269304 0)
(0.107551 0.00238187 0)
(0.10453 0.00211722 0)
(0.102122 0.00183685 0)
(0.100324 0.00158928 0)
(0.0987979 0.0015004 0)
(0.0970666 0.00155465 0)
(0.09481 0.0018046 0)
(0.0918301 0.00212926 0)
(0.0879072 0.00239728 0)
(0.0823589 0.0030131 0)
(0.0760139 0.00372427 0)
(0.0698321 0.00382038 0)
(0.0643249 0.003786 0)
(0.0591252 0.00346026 0)
(0.0549065 0.00269407 0)
(0.0519495 0.00207261 0)
(0.0497877 0.00135738 0)
(0.0486919 0.00061524 0)
(0.0487395 -0.000265845 0)
(0.0501434 -0.00100253 0)
(0.0526708 -0.00176195 0)
(0.0563488 -0.00255425 0)
(0.0612016 -0.00342296 0)
(0.0673044 -0.00427291 0)
(0.0746237 -0.00510222 0)
(0.0830343 -0.0058972 0)
(0.0925274 -0.00668132 0)
(0.103171 -0.00739183 0)
(0.114841 -0.00799082 0)
(0.127419 -0.0085297 0)
(0.140726 -0.00897533 0)
(0.154578 -0.00938959 0)
(0.168826 -0.00978119 0)
(0.183421 -0.010156 0)
(0.198425 -0.0105051 0)
(0.213821 -0.0108188 0)
(0.229551 -0.0110768 0)
(0.245578 -0.0112474 0)
(0.261805 -0.0113424 0)
(0.278121 -0.01133 0)
(0.294361 -0.0112016 0)
(0.310353 -0.0109794 0)