/*--------------------------------*- C++ -*----------------------------------*\
| =========                 |                                                 |
| \\      /  F ield         | OpenFOAM: The Open Source CFD Toolbox           |
|  \\    /   O peration     | Version:  3.0.1                                 |
|   \\  /    A nd           | Web:      www.OpenFOAM.org                      |
|    \\/     M anipulation  |                                                 |
\*---------------------------------------------------------------------------*/
FoamFile
{
    version     2.0;
    format      ascii;
    class       surfaceScalarField;
    location    "75.8";
    object      phi;
}
// * * * * * * * * * * * * * * * * * * * * * * * * * * * * * * * * * * * * * //

dimensions      [0 3 -1 0 0 0 0];

internalField   nonuniform List<scalar> 
42423
(
-0.000171157
3.49031e-06
-0.000173887
2.7304e-06
-0.000175952
2.06451e-06
-0.00017737
1.41764e-06
-0.000178149
7.79092e-07
-0.000178213
6.39411e-08
-0.000177589
-6.23577e-07
-0.000176283
-1.30636e-06
-0.000174371
-1.91186e-06
-0.000171667
-2.70359e-06
-0.000168299
-3.36858e-06
-0.000164152
-4.14668e-06
-0.000159137
-5.01475e-06
-0.000153303
-5.83404e-06
-0.000146606
-6.69736e-06
-0.000138984
-7.62184e-06
-0.000130592
-8.39218e-06
-0.000121173
-9.41892e-06
-0.000110821
-1.03521e-05
-9.9508e-05
-1.13129e-05
-8.70688e-05
-1.24393e-05
-7.35997e-05
-1.34691e-05
-5.92514e-05
-1.43483e-05
-4.3953e-05
-1.52984e-05
-2.77528e-05
-1.62003e-05
-1.08189e-05
-1.69339e-05
6.90734e-06
-1.77263e-05
2.50088e-05
-1.81015e-05
4.35718e-05
-1.8563e-05
6.24367e-05
-1.88649e-05
8.1172e-05
-1.87354e-05
9.96786e-05
-1.85066e-05
0.000117693
-1.80144e-05
0.000135043
-1.73498e-05
0.00015141
-1.63676e-05
0.000166494
-1.50835e-05
0.000180149
-1.36553e-05
0.000192092
-1.19429e-05
0.000202107
-1.00147e-05
0.000210101
-7.99449e-06
0.000215826
-5.72519e-06
0.000219284
-3.45799e-06
0.000220302
-1.01815e-06
0.000218821
1.48099e-06
0.00021495
3.87144e-06
0.000208863
6.08674e-06
0.000200552
8.31115e-06
0.000190211
1.03413e-05
0.000178061
1.21498e-05
0.000164318
1.37428e-05
0.00014922
1.5098e-05
0.000132884
1.63355e-05
0.000115695
1.71894e-05
9.78871e-05
1.78079e-05
7.96148e-05
1.82723e-05
6.12215e-05
1.83932e-05
4.27562e-05
1.84653e-05
2.46237e-05
1.81325e-05
6.73684e-06
1.78868e-05
-1.05193e-05
1.72561e-05
-2.71106e-05
1.65913e-05
-4.29974e-05
1.58868e-05
-5.80126e-05
1.50152e-05
-7.21314e-05
1.41189e-05
-8.53683e-05
1.32368e-05
-9.75936e-05
1.22253e-05
-0.000108847
1.12535e-05
-0.000119136
1.0289e-05
-0.000128446
9.30966e-06
-0.000136966
8.52004e-06
-0.00014453
7.56439e-06
-0.000151239
6.70889e-06
-0.000157246
6.0066e-06
-0.000162356
5.11041e-06
-0.000166623
4.26676e-06
-0.000170271
3.6486e-06
-0.000172987
2.71517e-06
-0.00017502
2.03309e-06
-0.000176353
1.33293e-06
-0.000176851
4.98508e-07
-0.000176638
-2.13179e-07
-0.000175655
-9.82753e-07
-0.000173939
-1.71645e-06
-0.000171417
-2.52168e-06
-0.000168131
-3.28565e-06
-0.000164003
-4.12816e-06
-0.000159093
-4.90981e-06
-0.00015333
-5.76332e-06
-0.000146759
-6.57138e-06
-0.000139319
-7.44008e-06
-0.000130982
-8.33659e-06
-0.000121823
-9.1593e-06
-0.000111757
-1.00661e-05
-0.000100822
-1.09344e-05
-8.90513e-05
-1.17712e-05
-7.65313e-05
-1.252e-05
-6.32503e-05
-1.3281e-05
-4.92425e-05
-1.40078e-05
-3.45397e-05
-1.47028e-05
-1.91814e-05
-1.53584e-05
-3.24257e-06
-1.59389e-05
1.32101e-05
-1.64527e-05
3.01084e-05
-1.68984e-05
4.73025e-05
-1.71941e-05
6.4696e-05
-1.73936e-05
8.20621e-05
-1.73661e-05
9.92567e-05
-1.71946e-05
0.000116059
-1.68019e-05
0.000132269
-1.621e-05
0.000147688
-1.54195e-05
0.000162029
-1.43412e-05
0.000175163
-1.31341e-05
0.000186854
-1.16911e-05
0.000196873
-1.00186e-05
0.000205067
-8.19466e-06
0.000211252
-6.18497e-06
0.000215308
-4.0558e-06
0.000217112
-1.80342e-06
0.000216663
4.48859e-07
0.000213841
2.82202e-06
0.000208664
5.17668e-06
0.000201254
7.4097e-06
0.000191723
9.53148e-06
0.000180206
1.15162e-05
0.00016694
1.32668e-05
0.000152119
1.48206e-05
0.000136027
1.60919e-05
0.000118888
1.71389e-05
0.000100999
1.78888e-05
8.26018e-05
1.83973e-05
6.39151e-05
1.86867e-05
4.52207e-05
1.86943e-05
2.67104e-05
1.85103e-05
8.55952e-06
1.81509e-05
-9.01347e-06
1.7573e-05
-2.5915e-05
1.69015e-05
-4.20191e-05
1.61041e-05
-5.72008e-05
1.51817e-05
-7.14436e-05
1.42428e-05
-8.46026e-05
1.31589e-05
-9.67166e-05
1.21141e-05
-0.000107729
1.10119e-05
-0.000117686
9.9574e-06
-0.000126587
8.9007e-06
-0.000134464
7.87722e-06
-0.000141373
6.90872e-06
-0.000147359
5.98627e-06
-0.000152447
5.0878e-06
-0.000156757
4.31042e-06
-0.000160278
3.52103e-06
-0.000163075
2.79729e-06
-0.000165174
2.09868e-06
-0.0001666
1.42573e-06
-0.000167543
9.42842e-07
-0.000167867
3.23917e-07
-0.000167636
-2.30501e-07
-0.000166895
-7.40703e-07
-0.0001656
-1.29568e-06
-0.000163756
-1.84343e-06
-0.000161464
-2.2925e-06
-0.000158581
-2.88243e-06
-0.000155152
-3.42904e-06
-0.000151127
-4.02555e-06
-0.000146489
-4.63825e-06
-0.00014118
-5.30893e-06
-0.000135205
-5.97457e-06
-0.000128478
-6.72736e-06
-0.000121101
-7.37659e-06
-0.000112944
-8.15745e-06
-0.000104028
-8.91522e-06
-9.43662e-05
-9.66228e-06
-8.39057e-05
-1.04606e-05
-7.26338e-05
-1.12719e-05
-6.06278e-05
-1.20059e-05
-4.77801e-05
-1.28477e-05
-3.41782e-05
-1.3602e-05
-1.98295e-05
-1.43487e-05
-4.7645e-06
-1.5065e-05
1.08364e-05
-1.56009e-05
2.69932e-05
-1.61569e-05
4.35337e-05
-1.65404e-05
6.03004e-05
-1.67668e-05
7.71156e-05
-1.68152e-05
9.37708e-05
-1.66552e-05
0.000110042
-1.62716e-05
0.000125702
-1.56596e-05
0.000140485
-1.47831e-05
0.000154142
-1.36576e-05
0.00016642
-1.22773e-05
0.000177026
-1.06067e-05
0.000185791
-8.76481e-06
0.000192489
-6.69792e-06
0.000196997
-4.50778e-06
0.000199166
-2.16894e-06
0.000198991
1.74339e-07
0.000196414
2.57746e-06
0.00019143
4.98357e-06
0.000184239
7.19086e-06
0.000174902
9.33731e-06
0.000163681
1.12209e-05
0.000150775
1.29062e-05
0.000136448
1.43265e-05
0.000120941
1.55075e-05
0.000104509
1.64317e-05
8.73648e-05
1.71441e-05
6.98292e-05
1.75356e-05
5.20573e-05
1.77719e-05
3.43406e-05
1.77166e-05
1.67976e-05
1.7543e-05
-2.43094e-07
1.70406e-05
-1.66246e-05
1.63814e-05
-3.22506e-05
1.5626e-05
-4.68936e-05
1.4643e-05
-6.05819e-05
1.36883e-05
-7.32477e-05
1.26657e-05
-8.49573e-05
1.17097e-05
-9.57052e-05
1.07479e-05
-0.000105577
9.87168e-06
-0.000114578
9.00137e-06
-0.000122777
8.19866e-06
-0.000130185
7.40766e-06
-0.000136849
6.66427e-06
-0.000142744
5.89521e-06
-0.000147961
5.21697e-06
-0.000152492
4.53066e-06
-0.00015641
3.91865e-06
-0.000159744
3.33317e-06
-0.000162516
2.77222e-06
-0.000164768
2.25247e-06
-0.000166534
1.76601e-06
-0.000167844
1.30958e-06
-0.000168665
8.21257e-07
-0.00016902
3.54608e-07
-0.000168853
-1.66371e-07
-0.000168162
-6.9121e-07
-0.000166891
-1.27082e-06
-0.000165083
-1.80814e-06
-0.000162683
-2.40053e-06
-0.000159697
-2.98557e-06
-0.000156086
-3.61089e-06
-0.00015195
-4.13611e-06
-0.000147124
-4.82567e-06
-0.000141642
-5.48281e-06
-0.000135472
-6.16978e-06
-0.000128717
-6.75491e-06
-0.000121209
-7.50772e-06
-0.000113044
-8.16561e-06
-0.000104174
-8.86974e-06
-9.45763e-05
-9.59765e-06
-8.42091e-05
-1.03672e-05
-7.31805e-05
-1.10286e-05
-6.13818e-05
-1.17987e-05
-4.89113e-05
-1.24706e-05
-3.58441e-05
-1.30672e-05
-2.22292e-05
-1.36149e-05
-8.17198e-06
-1.40573e-05
6.29066e-06
-1.44627e-05
2.10701e-05
-1.47795e-05
3.60755e-05
-1.50054e-05
5.12427e-05
-1.51672e-05
6.64225e-05
-1.51799e-05
8.14164e-05
-1.49939e-05
9.59954e-05
-1.4579e-05
0.000109978
-1.39827e-05
0.000123025
-1.30473e-05
0.000134958
-1.19323e-05
0.000145586
-1.06281e-05
0.000154686
-9.09993e-06
0.000162039
-7.35299e-06
0.000167634
-5.59557e-06
0.000171359
-3.72484e-06
0.000172959
-1.5997e-06
0.000172724
2.34311e-07
0.000170495
2.22952e-06
0.000166445
4.04976e-06
0.000160575
5.86986e-06
0.000153113
7.46163e-06
0.000144314
8.79909e-06
0.000134153
1.01615e-05
0.000123123
1.103e-05
0.000111399
1.17241e-05
9.91823e-05
1.22162e-05
8.64474e-05
1.27349e-05
7.31376e-05
1.33097e-05
5.93943e-05
1.37433e-05
4.51629e-05
1.42314e-05
3.06277e-05
1.45352e-05
1.59538e-05
1.46739e-05
1.30045e-06
1.46533e-05
-1.30648e-05
1.43652e-05
-2.71294e-05
1.40646e-05
-4.06136e-05
1.34842e-05
-5.34303e-05
1.28166e-05
-6.55417e-05
1.21114e-05
-7.68618e-05
1.13201e-05
-8.7383e-05
1.05212e-05
-9.71257e-05
9.74271e-06
-0.000106057
8.93105e-06
-0.000114199
8.14268e-06
-0.000121576
7.37668e-06
-0.000128186
6.61013e-06
-0.000134076
5.88925e-06
-0.000139233
5.15738e-06
-0.000143685
4.45215e-06
-0.00014746
3.77522e-06
-0.00015055
3.08943e-06
-0.000152948
2.39803e-06
-0.000154665
1.71693e-06
-0.00015568
1.01561e-06
-0.000156043
3.62855e-07
-0.000155819
-2.24308e-07
-0.00015506
-7.58895e-07
-0.000153727
-1.33336e-06
-0.000151798
-1.92851e-06
-0.000149195
-2.60344e-06
-0.000145915
-3.2792e-06
-0.000141874
-4.04137e-06
-0.00013712
-4.75357e-06
-0.00013167
-5.45043e-06
-0.000125315
-6.35557e-06
-0.000118138
-7.17634e-06
-0.000110223
-7.91499e-06
-0.00010123
-8.99361e-06
-9.14312e-05
-9.79838e-06
-8.05539e-05
-1.08773e-05
-6.87833e-05
-1.17707e-05
-5.61747e-05
-1.26086e-05
-4.26192e-05
-1.35555e-05
-2.80895e-05
-1.45297e-05
-1.28501e-05
-1.52394e-05
3.24873e-06
-1.60988e-05
2.01009e-05
-1.68522e-05
3.73987e-05
-1.72978e-05
5.5194e-05
-1.77954e-05
7.3227e-05
-1.8033e-05
9.14727e-05
-1.82457e-05
0.000109665
-1.81927e-05
0.000127449
-1.77839e-05
0.00014475
-1.73008e-05
0.000161308
-1.65582e-05
0.000176791
-1.54828e-05
0.000191091
-1.42997e-05
0.000203888
-1.27971e-05
0.000215006
-1.11184e-05
0.000224198
-9.19218e-06
0.000231347
-7.14837e-06
0.000236245
-4.8986e-06
0.000238847
-2.60138e-06
0.000238921
-7.41174e-08
0.000236547
2.3738e-06
0.000231666
4.88089e-06
0.000224607
7.05927e-06
0.000215358
9.24905e-06
0.000203975
1.13822e-05
0.000190943
1.30326e-05
0.000176273
1.46697e-05
1.61023e-05
-0.000171195
6.98994e-06
-0.000173927
5.46212e-06
-0.000175994
4.13165e-06
-0.000177413
2.8368e-06
-0.000178191
1.557e-06
-0.000178255
1.28128e-07
-0.000177633
-1.24528e-06
-0.000176328
-2.61156e-06
-0.00017442
-3.82049e-06
-0.00017172
-5.40332e-06
-0.000168342
-6.74672e-06
-0.000164206
-8.28278e-06
-0.000159193
-1.00273e-05
-0.000153364
-1.16635e-05
-0.000146657
-1.34041e-05
-0.000139035
-1.52437e-05
-0.000130644
-1.67834e-05
-0.000121226
-1.88368e-05
-0.000110875
-2.0703e-05
-9.95598e-05
-2.26283e-05
-8.71205e-05
-2.48786e-05
-7.3648e-05
-2.69416e-05
-5.9299e-05
-2.86973e-05
-4.39927e-05
-3.06047e-05
-2.77888e-05
-3.24042e-05
-1.08416e-05
-3.38812e-05
6.8806e-06
-3.54485e-05
2.49913e-05
-3.62123e-05
4.35687e-05
-3.71404e-05
6.24418e-05
-3.77382e-05
8.11837e-05
-3.74772e-05
9.9708e-05
-3.7031e-05
0.000117735
-3.6041e-05
0.000135093
-3.47085e-05
0.000151472
-3.27469e-05
0.000166571
-3.01819e-05
0.000180239
-2.73234e-05
0.000192189
-2.38932e-05
0.000202209
-2.00346e-05
0.00021021
-1.59956e-05
0.000215939
-1.14538e-05
0.000219402
-6.92173e-06
0.000220423
-2.03872e-06
0.000218933
2.9712e-06
0.000215059
7.74462e-06
0.000208973
1.21729e-05
0.000200659
1.6625e-05
0.00019031
2.06903e-05
0.00017815
2.43101e-05
0.000164397
2.74953e-05
0.000149289
3.02063e-05
0.000132946
3.26789e-05
0.000115744
3.4391e-05
9.79277e-05
3.5624e-05
7.96424e-05
3.65576e-05
6.12426e-05
3.6793e-05
4.2762e-05
3.69458e-05
2.46279e-05
3.62666e-05
6.7238e-06
3.57909e-05
-1.05436e-05
3.45235e-05
-2.71448e-05
3.31925e-05
-4.30422e-05
3.17842e-05
-5.80631e-05
3.00361e-05
-7.21885e-05
2.82443e-05
-8.5428e-05
2.64763e-05
-9.76585e-05
2.44559e-05
-0.000108915
2.25097e-05
-0.000119209
2.05835e-05
-0.000128508
1.86088e-05
-0.000137028
1.70399e-05
-0.000144593
1.51294e-05
-0.000151308
1.34237e-05
-0.000157307
1.20058e-05
-0.000162416
1.02195e-05
-0.00016669
8.54079e-06
-0.000170335
7.29348e-06
-0.000173046
5.42597e-06
-0.000175077
4.06401e-06
-0.000176416
2.6719e-06
-0.000176915
9.97522e-07
-0.000176698
-4.29848e-07
-0.000175713
-1.96814e-06
-0.000173999
-3.43047e-06
-0.000171478
-5.04214e-06
-0.00016819
-6.57462e-06
-0.000164047
-8.27063e-06
-0.000159143
-9.8143e-06
-0.000153373
-1.15328e-05
-0.000146797
-1.31474e-05
-0.000139355
-1.48818e-05
-0.000131013
-1.66793e-05
-0.000121846
-1.83262e-05
-0.000111772
-2.01399e-05
-0.000100829
-2.18778e-05
-8.90432e-05
-2.35565e-05
-7.65183e-05
-2.5045e-05
-6.32332e-05
-2.65661e-05
-4.92174e-05
-2.80237e-05
-3.45147e-05
-2.94055e-05
-1.91499e-05
-3.07231e-05
-3.20438e-06
-3.18845e-05
1.3256e-05
-3.29131e-05
3.01561e-05
-3.37986e-05
4.7356e-05
-3.4394e-05
6.47541e-05
-3.47917e-05
8.21343e-05
-3.47464e-05
9.93411e-05
-3.44015e-05
0.000116154
-3.36145e-05
0.000132377
-3.24331e-05
0.000147802
-3.0845e-05
0.000162154
-2.86935e-05
0.000175302
-2.62816e-05
0.000187
-2.33892e-05
0.000197021
-2.00394e-05
0.000205219
-1.63929e-05
0.000211407
-1.23736e-05
0.000215464
-8.11201e-06
0.000217256
-3.59643e-06
0.000216794
9.11381e-07
0.000213954
5.66157e-06
0.000208766
1.03644e-05
0.000201331
1.48446e-05
0.000191793
1.90696e-05
0.000180245
2.30647e-05
0.000166946
2.65654e-05
0.0001521
2.96665e-05
0.000135984
3.2208e-05
0.000118824
3.42991e-05
0.000100902
3.58107e-05
8.24731e-05
3.6826e-05
6.3762e-05
3.73978e-05
4.50447e-05
3.74116e-05
2.65138e-05
3.70412e-05
8.35168e-06
3.63129e-05
-9.23913e-06
3.51638e-05
-2.61336e-05
3.37959e-05
-4.22877e-05
3.22582e-05
-5.74868e-05
3.03807e-05
-7.17161e-05
2.84721e-05
-8.48779e-05
2.63207e-05
-9.69846e-05
2.42208e-05
-0.000108006
2.20335e-05
-0.000117956
1.99075e-05
-0.000126863
1.78078e-05
-0.00013473
1.57433e-05
-0.000141628
1.3807e-05
-0.000147591
1.19499e-05
-0.000152723
1.02192e-05
-0.000157007
8.59459e-06
-0.000160504
7.01764e-06
-0.000163317
5.61083e-06
-0.000165405
4.18601e-06
-0.000166858
2.87865e-06
-0.000167758
1.84332e-06
-0.000168073
6.38739e-07
-0.000167831
-4.72638e-07
-0.000167071
-1.49997e-06
-0.000165764
-2.60294e-06
-0.000163912
-3.69548e-06
-0.00016162
-4.58454e-06
-0.000158733
-5.76942e-06
-0.000155291
-6.87135e-06
-0.00015126
-8.05633e-06
-0.000146611
-9.28683e-06
-0.000141287
-1.06334e-05
-0.000135315
-1.19466e-05
-0.000128604
-1.34387e-05
-0.000121193
-1.47871e-05
-0.000113038
-1.63125e-05
-0.00010412
-1.78335e-05
-9.4444e-05
-1.93382e-05
-8.3979e-05
-2.09256e-05
-7.27032e-05
-2.25478e-05
-6.06791e-05
-2.403e-05
-4.78221e-05
-2.57048e-05
-3.42101e-05
-2.7214e-05
-1.98418e-05
-2.8717e-05
-4.78076e-06
-3.01261e-05
1.08285e-05
-3.12102e-05
2.69995e-05
-3.2328e-05
4.35539e-05
-3.30949e-05
6.03257e-05
-3.35387e-05
7.71514e-05
-3.3641e-05
9.3824e-05
-3.33279e-05
0.000110103
-3.25509e-05
0.000125779
-3.13356e-05
0.000140571
-2.95752e-05
0.000154228
-2.73146e-05
0.000166503
-2.45528e-05
0.000177117
-2.12208e-05
0.000185881
-1.75282e-05
0.000192574
-1.33917e-05
0.000197069
-9.0022e-06
0.00019923
-4.33017e-06
0.000199038
3.66124e-07
0.000196463
5.15222e-06
0.00019144
1.00068e-05
0.000184217
1.4414e-05
0.000174868
1.86862e-05
0.000163647
2.24414e-05
0.000150696
2.58573e-05
0.000136346
2.86767e-05
0.000120807
3.10463e-05
0.000104387
3.28514e-05
8.71936e-05
3.43376e-05
6.96532e-05
3.50759e-05
5.18564e-05
3.55686e-05
3.40897e-05
3.54833e-05
1.65595e-05
3.50732e-05
-5.03062e-07
3.41031e-05
-1.68993e-05
3.27776e-05
-3.25162e-05
3.12429e-05
-4.71647e-05
2.92915e-05
-6.08284e-05
2.7352e-05
-7.35252e-05
2.53624e-05
-8.52098e-05
2.33942e-05
-9.59659e-05
2.15039e-05
-0.000105821
1.97267e-05
-0.000114826
1.80061e-05
-0.000123017
1.63903e-05
-0.000130416
1.48066e-05
-0.000137075
1.33231e-05
-0.000142974
1.17942e-05
-0.000148175
1.04183e-05
-0.000152699
9.05431e-06
-0.000156609
7.8282e-06
-0.000159921
6.64528e-06
-0.000162693
5.54474e-06
-0.000164936
4.49485e-06
-0.000166705
3.53578e-06
-0.000167999
2.60344e-06
-0.000168789
1.61081e-06
-0.000169164
7.29398e-07
-0.000168989
-3.41321e-07
-0.000168288
-1.39164e-06
-0.00016701
-2.54921e-06
-0.000165198
-3.6204e-06
-0.000162792
-4.80651e-06
-0.000159798
-5.97927e-06
-0.000156181
-7.22827e-06
-0.00015204
-8.27626e-06
-0.000147204
-9.66194e-06
-0.000141722
-1.09647e-05
-0.000135562
-1.23298e-05
-0.000128779
-1.35382e-05
-0.000121272
-1.50148e-05
-0.000113102
-1.63352e-05
-0.00010423
-1.77421e-05
-9.46366e-05
-1.9191e-05
-8.42673e-05
-2.07365e-05
-7.32387e-05
-2.20572e-05
-6.14335e-05
-2.3604e-05
-4.89596e-05
-2.49445e-05
-3.58971e-05
-2.61297e-05
-2.22843e-05
-2.72277e-05
-8.22052e-06
-2.81211e-05
6.23894e-06
-2.89222e-05
2.1029e-05
-2.95696e-05
3.60497e-05
-3.00262e-05
5.12273e-05
-3.03448e-05
6.64095e-05
-3.03622e-05
8.14097e-05
-2.99941e-05
9.60018e-05
-2.91712e-05
0.000110002
-2.79833e-05
0.000123066
-2.6111e-05
0.000135009
-2.38748e-05
0.000145644
-2.12639e-05
0.000154766
-1.82218e-05
0.000162106
-1.46926e-05
0.000167709
-1.11985e-05
0.000171446
-7.46243e-06
0.000173042
-3.1956e-06
0.0001728
4.7606e-07
0.000170568
4.46156e-06
0.00016652
8.09797e-06
0.000160642
1.17474e-05
0.000153193
1.49107e-05
0.000144351
1.76413e-05
0.00013419
2.03224e-05
0.000123152
2.20681e-05
0.000111419
2.34569e-05
9.91968e-05
2.44384e-05
8.6462e-05
2.54696e-05
7.31588e-05
2.66129e-05
5.9415e-05
2.74871e-05
4.51802e-05
2.84662e-05
3.06396e-05
2.90757e-05
1.59574e-05
2.93561e-05
1.29582e-06
2.93149e-05
-1.30736e-05
2.87346e-05
-2.71413e-05
2.81324e-05
-4.0628e-05
2.69709e-05
-5.34464e-05
2.5635e-05
-6.55591e-05
2.42242e-05
-7.68798e-05
2.26408e-05
-8.74012e-05
2.10426e-05
-9.71439e-05
1.94854e-05
-0.000106074
1.78613e-05
-0.000114217
1.62854e-05
-0.000121595
1.47547e-05
-0.000128205
1.32203e-05
-0.000134094
1.17784e-05
-0.000139252
1.03155e-05
-0.000143704
8.90354e-06
-0.000147471
7.54199e-06
-0.000150556
6.17482e-06
-0.000152962
4.80431e-06
-0.00015469
3.44467e-06
-0.000155712
2.03792e-06
-0.000156077
7.27083e-07
-0.000155855
-4.45624e-07
-0.000155099
-1.51561e-06
-0.00015377
-2.66166e-06
-0.000151845
-3.85383e-06
-0.000149245
-5.20337e-06
-0.000145961
-6.56321e-06
-0.000141932
-8.07001e-06
-0.000137172
-9.51347e-06
-0.000131717
-1.0906e-05
-0.000125369
-1.27035e-05
-0.000118189
-1.43561e-05
-0.000110254
-1.58505e-05
-0.000101282
-1.79658e-05
-9.14816e-05
-1.95984e-05
-8.06014e-05
-2.17575e-05
-6.88303e-05
-2.35418e-05
-5.62175e-05
-2.52215e-05
-4.26626e-05
-2.71105e-05
-2.81259e-05
-2.90664e-05
-1.29034e-05
-3.0462e-05
3.21083e-06
-3.22131e-05
2.00695e-05
-3.37109e-05
3.73734e-05
-3.46017e-05
5.51771e-05
-3.55991e-05
7.32185e-05
-3.60745e-05
9.14748e-05
-3.65021e-05
0.000109683
-3.64008e-05
0.000127483
-3.55841e-05
0.00014479
-3.46078e-05
0.000161362
-3.31302e-05
0.000176857
-3.09776e-05
0.000191167
-2.86102e-05
0.000203972
-2.56019e-05
0.000215095
-2.2242e-05
0.000224298
-1.83949e-05
0.000231449
-1.42998e-05
0.000236347
-9.79589e-06
0.00023896
-5.21447e-06
0.000239025
-1.40144e-07
0.000236643
4.75662e-06
0.000231762
9.76134e-06
0.000224699
1.41218e-05
0.000215442
1.85063e-05
0.00020405
2.27745e-05
0.000191007
2.60753e-05
0.000176326
2.93504e-05
3.22171e-05
-0.000171255
1.04923e-05
-0.000173991
8.19823e-06
-0.000176063
6.20373e-06
-0.000177484
4.25776e-06
-0.000178259
2.33241e-06
-0.000178316
1.84402e-07
-0.000177686
-1.87505e-06
-0.000176382
-3.91553e-06
-0.000174474
-5.72827e-06
-0.000171785
-8.0923e-06
-0.000168397
-1.01353e-05
-0.000164258
-1.24211e-05
-0.000159252
-1.50335e-05
-0.000153449
-1.74661e-05
-0.000146724
-2.01297e-05
-0.000139104
-2.28635e-05
-0.000130715
-2.51723e-05
-0.000121302
-2.82503e-05
-0.000110957
-3.10481e-05
-9.96355e-05
-3.39494e-05
-8.72015e-05
-3.73127e-05
-7.37245e-05
-4.04187e-05
-5.93777e-05
-4.30441e-05
-4.406e-05
-4.59225e-05
-2.78485e-05
-4.86158e-05
-1.08896e-05
-5.08401e-05
6.8502e-06
-5.31884e-05
2.49825e-05
-5.43446e-05
4.35696e-05
-5.57275e-05
6.2454e-05
-5.66227e-05
8.12164e-05
-5.62396e-05
9.97568e-05
-5.55715e-05
0.000117799
-5.40834e-05
0.000135182
-5.20915e-05
0.000151589
-4.9154e-05
0.000166697
-4.52894e-05
0.000180382
-4.10089e-05
0.000192346
-3.58569e-05
0.00020237
-3.0059e-05
0.000210384
-2.40097e-05
0.000216115
-1.71848e-05
0.000219591
-1.03979e-05
0.000220618
-3.0656e-06
0.000219103
4.48587e-06
0.000215229
1.16187e-05
0.000209139
1.82629e-05
0.000200819
2.49456e-05
0.000190455
3.10544e-05
0.000178277
3.64881e-05
0.000164503
4.12689e-05
0.000149368
4.53417e-05
0.000133017
4.90295e-05
0.000115793
5.1615e-05
9.79625e-05
5.34544e-05
7.96553e-05
5.48648e-05
6.12455e-05
5.52028e-05
4.27408e-05
5.54505e-05
2.46063e-05
5.44011e-05
6.67706e-06
5.37201e-05
-1.06006e-05
5.18011e-05
-2.72102e-05
4.98021e-05
-4.31166e-05
4.76907e-05
-5.814e-05
4.50594e-05
-7.22656e-05
4.23699e-05
-8.55075e-05
3.97182e-05
-9.77418e-05
3.66901e-05
-0.000108996
3.3764e-05
-0.000119291
3.08788e-05
-0.000128572
2.78897e-05
-0.000137092
2.55595e-05
-0.000144659
2.2697e-05
-0.000151379
2.01432e-05
-0.000157372
1.79989e-05
-0.000162483
1.53299e-05
-0.000166757
1.28151e-05
-0.000170395
1.09319e-05
-0.000173106
8.1369e-06
-0.000175134
6.09191e-06
-0.000176487
4.02489e-06
-0.000176982
1.49222e-06
-0.000176762
-6.49305e-07
-0.000175779
-2.95183e-06
-0.000174071
-5.13802e-06
-0.000171551
-7.56276e-06
-0.000168261
-9.86422e-06
-0.000164111
-1.24203e-05
-0.000159214
-1.47113e-05
-0.000153441
-1.73057e-05
-0.00014687
-1.97187e-05
-0.000139433
-2.23186e-05
-0.000131089
-2.50235e-05
-0.000121925
-2.74901e-05
-0.000111848
-3.02172e-05
-0.000100908
-3.28177e-05
-8.91348e-05
-3.53298e-05
-7.65928e-05
-3.7587e-05
-6.33102e-05
-3.98487e-05
-4.92967e-05
-4.20373e-05
-3.45982e-05
-4.4104e-05
-1.92395e-05
-4.60819e-05
-3.30128e-06
-4.78227e-05
1.31692e-05
-4.93836e-05
3.00783e-05
-5.07076e-05
4.72892e-05
-5.1605e-05
6.46832e-05
-5.21858e-05
8.20668e-05
-5.213e-05
9.92826e-05
-5.16174e-05
0.000116104
-5.04361e-05
0.000132339
-4.86676e-05
0.000147785
-4.62916e-05
0.000162161
-4.30692e-05
0.000175314
-3.94348e-05
0.000187044
-3.51199e-05
0.000197079
-3.0074e-05
0.000205289
-2.46034e-05
0.000211486
-1.85702e-05
0.000215549
-1.21753e-05
0.000217356
-5.40317e-06
0.000216861
1.40673e-06
0.000214012
8.50972e-06
0.000208846
1.55309e-05
0.000201373
2.23176e-05
0.000191822
2.862e-05
0.000180247
3.46399e-05
0.000166929
3.9883e-05
0.000152054
4.45419e-05
0.000135911
4.83514e-05
0.000118729
5.14809e-05
0.000100779
5.37605e-05
8.23245e-05
5.52802e-05
6.35882e-05
5.61342e-05
4.48472e-05
5.61525e-05
2.6301e-05
5.55873e-05
8.1216e-06
5.44923e-05
-9.49729e-06
5.27826e-05
-2.6402e-05
5.07007e-05
-4.2585e-05
4.84411e-05
-5.779e-05
4.55857e-05
-7.20195e-05
4.27017e-05
-8.51956e-05
3.94967e-05
-9.72898e-05
3.6315e-05
-0.000108313
3.30566e-05
-0.000118248
2.98423e-05
-0.000127179
2.67393e-05
-0.000135018
2.35822e-05
-0.000141881
2.06702e-05
-0.000147855
1.79238e-05
-0.000153022
1.53858e-05
-0.000157303
1.28753e-05
-0.00016075
1.04654e-05
-0.000163599
8.45947e-06
-0.000165691
6.27804e-06
-0.000167162
4.34948e-06
-0.00016803
2.71104e-06
-0.000168332
9.41264e-07
-0.000168094
-7.10892e-07
-0.000167316
-2.27819e-06
-0.000166009
-3.90972e-06
-0.000164216
-5.48811e-06
-0.000161865
-6.93595e-06
-0.000158963
-8.6713e-06
-0.000155505
-1.03298e-05
-0.000151498
-1.20633e-05
-0.000146842
-1.3942e-05
-0.000141525
-1.59511e-05
-0.000135554
-1.79174e-05
-0.00012887
-2.01224e-05
-0.000121445
-2.22127e-05
-0.000113254
-2.4503e-05
-0.000104363
-2.67252e-05
-9.46713e-05
-2.90297e-05
-8.42135e-05
-3.13834e-05
-7.29549e-05
-3.38064e-05
-6.09102e-05
-3.60748e-05
-4.80528e-05
-3.85623e-05
-3.43774e-05
-4.08894e-05
-2.00709e-05
-4.30236e-05
-5.01641e-06
-4.51807e-05
1.06324e-05
-4.68592e-05
2.68232e-05
-4.85188e-05
4.33922e-05
-4.96639e-05
6.01867e-05
-5.03332e-05
7.70248e-05
-5.04792e-05
9.37338e-05
-5.00369e-05
0.000110019
-4.88365e-05
0.000125742
-4.70586e-05
0.000140537
-4.43697e-05
0.000154211
-4.09886e-05
0.0001665
-3.68424e-05
0.000177172
-3.18924e-05
0.000185917
-2.62732e-05
0.000192619
-2.00937e-05
0.000197115
-1.3499e-05
0.000199279
-6.49407e-06
0.000199069
5.76527e-07
0.000196484
7.73686e-06
0.00019145
1.50411e-05
0.000184206
2.16576e-05
0.000174839
2.80535e-05
0.000163614
3.3666e-05
0.000150635
3.88365e-05
0.000136294
4.3017e-05
0.000120681
4.66591e-05
0.000104192
4.93411e-05
8.70178e-05
5.15114e-05
6.94275e-05
5.26663e-05
5.16361e-05
5.336e-05
3.38454e-05
5.32739e-05
1.63018e-05
5.26169e-05
-7.82854e-07
5.11877e-05
-1.71975e-05
4.91923e-05
-3.28097e-05
4.6855e-05
-4.74742e-05
4.3956e-05
-6.11015e-05
4.09793e-05
-7.38248e-05
3.80856e-05
-8.54694e-05
3.50389e-05
-9.62705e-05
3.2305e-05
-0.000106099
2.95548e-05
-0.000115105
2.70126e-05
-0.000123294
2.45791e-05
-0.000130695
2.22077e-05
-0.00013734
1.99685e-05
-0.000143241
1.76947e-05
-0.000148438
1.56152e-05
-0.000152969
1.35851e-05
-0.000156864
1.17232e-05
-0.000160127
9.90855e-06
-0.000162929
8.3466e-06
-0.000165164
6.73022e-06
-0.00016694
5.31159e-06
-0.000168237
3.90027e-06
-0.000169003
2.37718e-06
-0.000169399
1.12541e-06
-0.000169223
-5.17447e-07
-0.00016853
-2.08483e-06
-0.000167255
-3.82394e-06
-0.000165423
-5.45237e-06
-0.000163025
-7.2052e-06
-0.000160037
-8.96727e-06
-0.000156463
-1.08015e-05
-0.000152275
-1.24645e-05
-0.000147406
-1.45308e-05
-0.000141964
-1.64067e-05
-0.000135826
-1.84682e-05
-0.000129019
-2.0345e-05
-0.00012148
-2.25539e-05
-0.000113336
-2.44789e-05
-0.000104464
-2.66146e-05
-9.4864e-05
-2.8791e-05
-8.44824e-05
-3.11181e-05
-7.34534e-05
-3.30862e-05
-6.16482e-05
-3.54093e-05
-4.91166e-05
-3.74761e-05
-3.61063e-05
-3.914e-05
-2.24902e-05
-4.08439e-05
-8.37842e-06
-4.22329e-05
6.07515e-06
-4.33758e-05
2.08774e-05
-4.43718e-05
3.59149e-05
-4.50637e-05
5.11062e-05
-4.55361e-05
6.63218e-05
-4.55779e-05
8.13529e-05
-4.50252e-05
9.59739e-05
-4.37922e-05
0.000109994
-4.20037e-05
0.000123088
-3.92052e-05
0.000135057
-3.58437e-05
0.000145709
-3.19154e-05
0.000154859
-2.73717e-05
0.000162206
-2.20401e-05
0.000167819
-1.68117e-05
0.000171533
-1.11762e-05
0.000173157
-4.81965e-06
0.000172913
7.19836e-07
0.000170678
6.69613e-06
0.000166636
1.214e-05
0.00016074
1.76435e-05
0.000153302
2.23488e-05
0.000144393
2.65499e-05
0.000134232
3.04836e-05
0.000123176
3.31241e-05
0.000111427
3.52063e-05
9.91921e-05
3.66731e-05
8.6456e-05
3.82057e-05
7.31687e-05
3.99001e-05
5.94286e-05
4.12272e-05
4.51885e-05
4.27062e-05
3.06381e-05
4.36261e-05
1.59417e-05
4.40525e-05
1.26699e-06
4.39896e-05
-1.31109e-05
4.31124e-05
-2.71861e-05
4.22076e-05
-4.0678e-05
4.04627e-05
-5.34996e-05
3.84566e-05
-6.56146e-05
3.63392e-05
-7.69354e-05
3.39615e-05
-8.7456e-05
3.15632e-05
-9.71969e-05
2.92263e-05
-0.000106124
2.67883e-05
-0.000114265
2.44265e-05
-0.000121638
2.21276e-05
-0.000128244
1.98268e-05
-0.000134132
1.76659e-05
-0.000139284
1.54674e-05
-0.000143725
1.33453e-05
-0.00014749
1.13068e-05
-0.000150572
9.25692e-06
-0.000152972
7.204e-06
-0.000154701
5.17413e-06
-0.000155733
3.06962e-06
-0.000156115
1.10881e-06
-0.000155904
-6.56278e-07
-0.000155149
-2.27062e-06
-0.000153827
-3.98432e-06
-0.000151903
-5.77723e-06
-0.000149306
-7.80038e-06
-0.000146018
-9.85116e-06
-0.000142006
-1.20824e-05
-0.000137243
-1.42767e-05
-0.000131784
-1.63642e-05
-0.000125444
-1.90444e-05
-0.000118263
-2.1537e-05
-0.000110308
-2.38054e-05
-0.000101356
-2.69175e-05
-9.15576e-05
-2.9397e-05
-8.06741e-05
-3.2641e-05
-6.89056e-05
-3.53104e-05
-5.62873e-05
-3.78398e-05
-4.27355e-05
-4.06622e-05
-2.819e-05
-4.3612e-05
-1.29934e-05
-4.56586e-05
3.15345e-06
-4.836e-05
2.00227e-05
-5.05802e-05
3.73388e-05
-5.19179e-05
5.51599e-05
-5.34202e-05
7.32152e-05
-5.41299e-05
9.14899e-05
-5.47768e-05
0.000109717
-5.46279e-05
0.000127537
-5.34044e-05
0.000144865
-5.19359e-05
0.000161461
-4.97263e-05
0.000176971
-4.64877e-05
0.000191299
-4.29382e-05
0.000204117
-3.84192e-05
0.000215254
-3.33795e-05
0.000224461
-2.76018e-05
0.000231617
-2.14562e-05
0.000236518
-1.46962e-05
0.000239136
-7.83324e-06
0.000239195
-1.98745e-07
0.000236803
7.14838e-06
0.000231934
1.46308e-05
0.000224867
2.11884e-05
0.000215597
2.77756e-05
0.000204189
3.41828e-05
0.000191129
3.91358e-05
0.000176429
4.40502e-05
4.83525e-05
-0.000171346
1.40003e-05
-0.000174092
1.09437e-05
-0.000176169
8.28148e-06
-0.000177593
5.68152e-06
-0.000178358
3.09689e-06
-0.0001784
2.27301e-07
-0.000177764
-2.51152e-06
-0.000176462
-5.21727e-06
-0.000174556
-7.63446e-06
-0.000171891
-1.07572e-05
-0.000168482
-1.35446e-05
-0.000164339
-1.65642e-05
-0.00015934
-2.00325e-05
-0.00015357
-2.32356e-05
-0.000146825
-2.68754e-05
-0.000139208
-3.04802e-05
-0.000130822
-3.35584e-05
-0.000121416
-3.76563e-05
-0.000111079
-4.13848e-05
-9.97489e-05
-4.52797e-05
-8.73235e-05
-4.97381e-05
-7.38395e-05
-5.39027e-05
-5.94987e-05
-5.73849e-05
-4.41613e-05
-6.126e-05
-2.79389e-05
-6.48382e-05
-1.09625e-05
-6.78165e-05
6.8007e-06
-7.09516e-05
2.4956e-05
-7.24999e-05
4.35731e-05
-7.43447e-05
6.24765e-05
-7.55261e-05
8.12638e-05
-7.5027e-05
9.98325e-05
-7.41403e-05
0.000117902
-7.21529e-05
0.00013532
-6.95097e-05
0.000151752
-6.55862e-05
0.000166885
-6.04218e-05
0.000180599
-5.47237e-05
0.000192582
-4.78398e-05
0.000202615
-4.00916e-05
0.000210644
-3.20392e-05
0.000216381
-2.29214e-05
0.000219872
-1.38894e-05
0.000220896
-4.08969e-06
0.000219361
6.02154e-06
0.00021549
1.54893e-05
0.000209389
2.4364e-05
0.000201057
3.32771e-05
0.000190671
4.14411e-05
0.000178466
4.86921e-05
0.000164661
5.50744e-05
0.000149488
6.0515e-05
0.000133123
6.53938e-05
0.000115866
6.88725e-05
9.80143e-05
7.13058e-05
7.96737e-05
7.32054e-05
6.12493e-05
7.36272e-05
4.27073e-05
7.39925e-05
2.45273e-05
7.2581e-05
6.60629e-06
7.16412e-05
-1.06866e-05
6.9094e-05
-2.73085e-05
6.64239e-05
-4.32294e-05
6.36116e-05
-5.82558e-05
6.00857e-05
-7.2386e-05
5.65001e-05
-8.56314e-05
5.29636e-05
-9.78657e-05
4.89244e-05
-0.000109119
4.50174e-05
-0.00011942
4.11798e-05
-0.000128689
3.7159e-05
-0.000137191
3.40615e-05
-0.000144763
3.02681e-05
-0.000151484
2.6865e-05
-0.000157466
2.39805e-05
-0.00016258
2.04441e-05
-0.000166858
1.70934e-05
-0.00017049
1.45635e-05
-0.0001732
1.08472e-05
-0.000175226
8.11772e-06
-0.000176595
5.39424e-06
-0.000177085
1.9821e-06
-0.000176864
-8.70275e-07
-0.000175889
-3.92712e-06
-0.000174182
-6.84493e-06
-0.000171665
-1.00799e-05
-0.000168373
-1.31566e-05
-0.000164218
-1.65752e-05
-0.000159329
-1.95998e-05
-0.000153555
-2.30799e-05
-0.000146988
-2.62854e-05
-0.000139563
-2.97437e-05
-0.000131256
-3.33312e-05
-0.000122066
-3.66802e-05
-0.00011199
-4.02929e-05
-0.000101052
-4.37559e-05
-8.92941e-05
-4.70877e-05
-7.67387e-05
-5.01424e-05
-6.34646e-05
-5.31228e-05
-4.94584e-05
-5.60435e-05
-3.47705e-05
-5.8792e-05
-1.94174e-05
-6.1435e-05
-3.49306e-06
-6.37472e-05