/*--------------------------------*- C++ -*----------------------------------*\
| =========                 |                                                 |
| \\      /  F ield         | OpenFOAM: The Open Source CFD Toolbox           |
|  \\    /   O peration     | Version:  3.0.1                                 |
|   \\  /    A nd           | Web:      www.OpenFOAM.org                      |
|    \\/     M anipulation  |                                                 |
\*---------------------------------------------------------------------------*/
FoamFile
{
    version     2.0;
    format      ascii;
    class       surfaceScalarField;
    location    "11";
    object      phi;
}
// * * * * * * * * * * * * * * * * * * * * * * * * * * * * * * * * * * * * * //

dimensions      [0 3 -1 0 0 0 0];

internalField   nonuniform List<scalar> 
42423
(
0.000100924
-1.67377e-05
0.000117531
-1.66074e-05
0.000133645
-1.61144e-05
0.000148925
-1.52812e-05
0.000163374
-1.44494e-05
0.000176629
-1.32552e-05
0.000188525
-1.1896e-05
0.000198754
-1.02294e-05
0.000207056
-8.3024e-06
0.000213236
-6.18046e-06
0.000217177
-3.941e-06
0.000218752
-1.5753e-06
0.000217812
9.39582e-07
0.000214203
3.60853e-06
0.000208009
6.19401e-06
0.000199386
8.62291e-06
0.000188283
1.11027e-05
0.000175128
1.31541e-05
0.000160109
1.5019e-05
0.000143321
1.67877e-05
0.000125332
1.79894e-05
0.000106314
1.90175e-05
8.65315e-05
1.97822e-05
6.65761e-05
1.99553e-05
4.65875e-05
1.99885e-05
2.70856e-05
1.95018e-05
8.3331e-06
1.87524e-05
-9.64943e-06
1.79824e-05
-2.62274e-05
1.65778e-05
-4.1447e-05
1.52195e-05
-5.51968e-05
1.37498e-05
-6.73631e-05
1.21662e-05
-7.79352e-05
1.0572e-05
-8.68741e-05
8.9389e-06
-9.41586e-05
7.2844e-06
-9.97702e-05
5.61163e-06
-0.000103668
3.89822e-06
-0.000105892
2.22398e-06
-0.000106529
6.36906e-07
-0.000105989
-5.40579e-07
-0.000104425
-1.564e-06
-0.000101894
-2.53061e-06
-9.85223e-05
-3.37197e-06
-9.44465e-05
-4.07585e-06
-8.98085e-05
-4.63795e-06
-8.47912e-05
-5.01733e-06
-7.95236e-05
-5.26756e-06
-7.40975e-05
-5.42616e-06
-6.86601e-05
-5.4374e-06
-6.32963e-05
-5.36381e-06
-5.80436e-05
-5.25273e-06
-5.2993e-05
-5.05059e-06
-4.81434e-05
-4.84959e-06
-4.35365e-05
-4.60689e-06
-3.91631e-05
-4.37341e-06
-3.49477e-05
-4.21544e-06
-3.08042e-05
-4.14352e-06
-2.66844e-05
-4.11975e-06
-2.26319e-05
-4.0525e-06
-1.86821e-05
-3.94981e-06
-1.48286e-05
-3.8535e-06
-1.10679e-05
-3.76072e-06
-7.37657e-06
-3.69133e-06
-3.70598e-06
-3.67059e-06
-6.82548e-08
-3.63773e-06
3.51071e-06
-3.57897e-06
7.08417e-06
-3.57347e-06
1.06821e-05
-3.59794e-06
1.43118e-05
-3.62972e-06
1.79613e-05
-3.6495e-06
2.16075e-05
-3.64616e-06
2.52223e-05
-3.61478e-06
2.87619e-05
-3.5396e-06
3.21863e-05
-3.42446e-06
3.54389e-05
-3.25264e-06
3.84703e-05
-3.03131e-06
4.12287e-05
-2.75848e-06
4.36702e-05
-2.44145e-06
4.57582e-05
-2.08803e-06
4.74493e-05
-1.69113e-06
4.87581e-05
-1.30879e-06
4.96559e-05
-8.97766e-07
5.01274e-05
-4.71533e-07
5.02053e-05
-7.79201e-08
4.98708e-05
3.34502e-07
4.91703e-05
7.00533e-07
4.81422e-05
1.02809e-06
4.68051e-05
1.33715e-06
4.52244e-05
1.58062e-06
4.34293e-05
1.79513e-06
4.14321e-05
1.99715e-06
3.93077e-05
2.12446e-06
3.70413e-05
2.26638e-06
3.47055e-05
2.33575e-06
3.23244e-05
2.38111e-06
2.99233e-05
2.40108e-06
2.75275e-05
2.39585e-06
2.51628e-05
2.36468e-06
2.28494e-05
2.31337e-06
2.05936e-05
2.25578e-06
1.84031e-05
2.19051e-06
1.62687e-05
2.13444e-06
1.41828e-05
2.08584e-06
1.21309e-05
2.05196e-06
1.01017e-05
2.02912e-06
8.07499e-06
2.02676e-06
6.03741e-06
2.03758e-06
3.97444e-06
2.06297e-06
1.88691e-06
2.08752e-06
-2.18106e-07
2.10502e-06
-2.34734e-06
2.12923e-06
-4.47916e-06
2.13182e-06
-6.5865e-06
2.10733e-06
-8.68268e-06
2.09618e-06
-1.07165e-05
2.03381e-06
-1.26662e-05
1.94974e-06
-1.45104e-05
1.84418e-06
-1.62264e-05
1.71594e-06
-1.77721e-05
1.54573e-06
-1.91231e-05
1.351e-06
-2.02422e-05
1.11909e-06
-2.11231e-05
8.80908e-07
-2.17165e-05
5.93378e-07
-2.20152e-05
2.98739e-07
-2.19958e-05
-1.93874e-08
-2.16492e-05
-3.46633e-07
-2.09701e-05
-6.79126e-07
-1.99554e-05
-1.01466e-06
-1.8601e-05
-1.3544e-06
-1.692e-05
-1.681e-06
-1.49377e-05
-1.98229e-06
-1.26632e-05
-2.2745e-06
-1.01333e-05
-2.52996e-06
-7.37921e-06
-2.75406e-06
-4.45425e-06
-2.92496e-06
-1.38966e-06
-3.06459e-06
1.76072e-06
-3.15038e-06
4.95504e-06
-3.19433e-06
8.14423e-06
-3.18919e-06
1.12899e-05
-3.14567e-06
1.43664e-05
-3.07647e-06
1.73505e-05
-2.98408e-06
2.02257e-05
-2.87522e-06
2.29738e-05
-2.74816e-06
2.55964e-05
-2.62254e-06
2.80907e-05
-2.49432e-06
3.04627e-05
-2.37197e-06
3.26982e-05
-2.23558e-06
3.48085e-05
-2.11027e-06
3.6789e-05
-1.98049e-06
3.86261e-05
-1.83712e-06
4.03226e-05
-1.69644e-06
4.18413e-05
-1.51878e-06
4.3187e-05
-1.3457e-06
4.43515e-05
-1.16447e-06
4.52828e-05
-9.31291e-07
4.59975e-05
-7.1473e-07
4.64839e-05
-4.86428e-07
4.671e-05
-2.26019e-07
4.66904e-05
1.95669e-08
4.64206e-05
2.69805e-07
4.59072e-05
5.13351e-07
4.51438e-05
7.63444e-07
4.41592e-05
9.84619e-07
4.2949e-05
1.21018e-06
4.15453e-05
1.40364e-06
3.99649e-05
1.58043e-06
3.82233e-05
1.74158e-06
3.63556e-05
1.86768e-06
3.43548e-05
2.00084e-06
3.22706e-05
2.08421e-06
3.01101e-05
2.16046e-06
2.78935e-05
2.21663e-06
2.56223e-05
2.27116e-06
2.33301e-05
2.29224e-06
2.10167e-05
2.31341e-06
1.86894e-05
2.32728e-06
1.63531e-05
2.3363e-06
1.40106e-05
2.3425e-06
1.16651e-05
2.34548e-06
9.31333e-06
2.35177e-06
6.95619e-06
2.35714e-06
4.60012e-06
2.35607e-06
2.22592e-06
2.3742e-06
-1.4614e-07
2.37205e-06
-2.51933e-06
2.37319e-06
-4.88011e-06
2.36078e-06
-7.21245e-06
2.33233e-06
-9.52178e-06
2.30933e-06
-1.1806e-05
2.28418e-06
-1.40041e-05
2.19813e-06
-1.61117e-05
2.10761e-06
-1.81031e-05
1.99141e-06
-1.99588e-05
1.85568e-06
-2.1644e-05
1.68521e-06
-2.31199e-05
1.47585e-06
-2.43805e-05
1.26067e-06
-2.53798e-05
9.99226e-07
-2.60915e-05
7.11735e-07
-2.64946e-05
4.03094e-07
-2.65686e-05
7.39843e-08
-2.62906e-05
-2.78024e-07
-2.56473e-05
-6.43306e-07
-2.46258e-05
-1.02143e-06
-2.32233e-05
-1.40252e-06
-2.14575e-05
-1.76583e-06
-1.93006e-05
-2.1569e-06
-1.67712e-05
-2.52942e-06
-1.38854e-05
-2.88575e-06
-1.066e-05
-3.22547e-06
-7.14109e-06
-3.51889e-06
-3.33091e-06
-3.81018e-06
7.22958e-07
-4.05387e-06
4.97915e-06
-4.25619e-06
9.39365e-06
-4.41451e-06
1.39158e-05
-4.52215e-06
1.84941e-05
-4.57832e-06
2.30748e-05
-4.58069e-06
2.76009e-05
-4.52609e-06
3.20157e-05
-4.41478e-06
3.62608e-05
-4.24512e-06
4.02791e-05
-4.01836e-06
4.40165e-05
-3.73739e-06
4.74227e-05
-3.40623e-06
5.04494e-05
-3.02668e-06
5.30564e-05
-2.60695e-06
5.52016e-05
-2.14521e-06
5.68568e-05
-1.65525e-06
5.80012e-05
-1.14436e-06
5.86174e-05
-6.16288e-07
5.87017e-05
-8.42651e-08
5.82522e-05
4.49476e-07
5.72729e-05
9.79291e-07
5.57775e-05
1.49545e-06
5.37924e-05
1.98507e-06
5.13421e-05
2.45026e-06
4.84619e-05
2.88025e-06
4.51871e-05
3.27475e-06
4.15627e-05
3.62436e-06
3.76346e-05
3.92815e-06
3.34556e-05
4.17896e-06
2.90701e-05
4.38545e-06
2.45303e-05
4.53983e-06
1.98933e-05
4.63704e-06
1.52048e-05
4.68846e-06
1.05168e-05
4.68795e-06
5.87197e-06
4.64487e-06
1.32022e-06
4.55173e-06
-3.108e-06
4.42822e-06
-7.37213e-06
4.26412e-06
-1.14406e-05
4.06847e-06
-1.52862e-05
3.84563e-06
-1.88838e-05
3.59751e-06
-2.2214e-05
3.33028e-06
-2.52598e-05
3.04572e-06
-2.80094e-05
2.74961e-06
-3.04516e-05
2.44224e-06
-3.25807e-05
2.12905e-06
-3.43928e-05
1.81211e-06
-3.5888e-05
1.4952e-06
-3.70676e-05
1.1796e-06
-3.79335e-05
8.65904e-07
-3.8499e-05
5.65476e-07
-3.87654e-05
2.66442e-07
-3.87418e-05
-2.36506e-08
-3.84391e-05
-3.02647e-07
-3.7866e-05
-5.73098e-07
-3.70362e-05
-8.29839e-07
-3.5975e-05
-1.06118e-06
-3.46799e-05
-1.29511e-06
-3.31731e-05
-1.50678e-06
-3.14863e-05
-1.68681e-06
-2.96238e-05
-1.86254e-06
-2.76073e-05
-2.01647e-06
-2.54578e-05
-2.14947e-06
-2.31849e-05
-2.27296e-06
-2.08249e-05
-2.36002e-06
-1.83947e-05
-2.43018e-06
-1.59119e-05
-2.48277e-06
-1.34124e-05
-2.49948e-06
-1.09213e-05
-2.49113e-06
-8.46175e-06
-2.45956e-06
-6.05935e-06
-2.4024e-06
-3.7274e-06
-2.33194e-06
-1.4836e-06
-2.2438e-06
6.35307e-07
-2.1189e-06
2.62137e-06
-1.98606e-06
4.45329e-06
-1.83191e-06
6.1156e-06
-1.66232e-06
7.59439e-06
-1.47879e-06
8.88044e-06
-1.28604e-06
9.967e-06
-1.08656e-06
1.08511e-05
-8.84112e-07
1.15336e-05
-6.82524e-07
1.20185e-05
-4.8488e-07
1.23152e-05
-2.96681e-07
1.24381e-05
-1.22919e-07
1.24008e-05
3.72973e-08
1.22108e-05
1.90003e-07
1.18864e-05
3.24422e-07
1.14472e-05
4.39201e-07
1.09131e-05
5.34139e-07
1.03036e-05
6.09444e-07
9.63821e-06
6.65425e-07
8.9351e-06
7.0311e-07
8.21152e-06
7.23584e-07
7.48311e-06
7.28409e-07
6.76378e-06
7.19335e-07
6.0654e-06
6.98385e-07
5.39769e-06
6.67703e-07
4.76822e-06
6.29479e-07
4.18239e-06
5.85832e-07
3.64365e-06
5.38736e-07
3.1537e-06
4.89952e-07
2.71271e-06
4.4099e-07
2.31962e-06
3.93092e-07
1.97239e-06
3.47234e-07
1.66826e-06
3.04132e-07
1.40399e-06
2.64273e-07
1.17605e-06
2.27942e-07
9.80798e-07
1.95249e-07
8.14625e-07
1.66173e-07
6.74041e-07
1.40585e-07
5.5576e-07
1.18282e-07
4.56749e-07
9.90114e-08
3.74257e-07
8.24929e-08
3.05822e-07
6.84355e-08
2.49271e-07
5.6551e-08
2.02708e-07
4.65633e-08
1.64494e-07
3.82148e-08
1.33224e-07
3.12705e-08
1.07705e-07
2.55196e-08
8.69291e-08
2.07758e-08
7.00526e-08
1.68768e-08
5.63707e-08
1.36822e-08
4.52986e-08
1.10723e-08
3.63532e-08
8.94561e-09
2.91368e-08
7.21666e-09
2.33229e-08
5.814e-09
1.86449e-08
4.67821e-09
1.48849e-08
3.76011e-09
1.18658e-08
3.01918e-09
9.44379e-09
2.42212e-09
7.50219e-09
1.94169e-09
5.94659e-09
1.55568e-09
4.70067e-09
1.24599e-09
3.70281e-09
9.97923e-10
2.90329e-09
7.99578e-10
2.26201e-09
6.41332e-10
1.74664e-09
5.15412e-10
1.33112e-09
4.15562e-10
9.94412e-10
3.36743e-10
7.19536e-10
2.74909e-10
4.92758e-10
2.26809e-10
3.02962e-10
1.89826e-10
1.41142e-10
1.6185e-10
1.41156e-10
0.000100935
-3.34829e-05
0.000117552
-3.32244e-05
0.000133679
-3.2243e-05
0.00014898
-3.05832e-05
0.00016346
-2.89298e-05
0.000176721
-2.65165e-05
0.000188618
-2.37943e-05
0.000198864
-2.04754e-05
0.000207198
-1.66375e-05
0.00021342
-1.24034e-05
0.000217346
-7.86749e-06
0.000218902
-3.13136e-06
0.000217949
1.89242e-06
0.000214332
7.22498e-06
0.000208133
1.23925e-05
0.000199505
1.72503e-05
0.000188393
2.22145e-05
0.000175227
2.63189e-05
0.000160196
3.00499e-05
0.000143394
3.35893e-05
0.000125389
3.5994e-05
0.000106356
3.80508e-05
8.6557e-05
3.95806e-05
6.65859e-05
3.99262e-05
4.65822e-05
3.99919e-05
2.7065e-05
3.90188e-05
8.29384e-06
3.75234e-05
-9.69174e-06
3.59678e-05
-2.6272e-05
3.3158e-05
-4.14947e-05
3.0442e-05
-5.52469e-05
2.75019e-05
-6.74138e-05
2.43331e-05
-7.79846e-05
2.11427e-05
-8.69201e-05
1.78743e-05
-9.4201e-05
1.45652e-05
-9.9811e-05
1.12216e-05
-0.000103714
7.80099e-06
-0.000105938
4.44811e-06
-0.00010657
1.26884e-06
-0.00010603
-1.08076e-06
-0.000104467
-3.12707e-06
-0.000101936
-5.06169e-06
-9.85611e-05
-6.74656e-06
-9.44805e-05
-8.15648e-06
-8.98379e-05
-9.28055e-06
-8.48163e-05
-1.0039e-05
-7.95447e-05
-1.05392e-05
-7.41147e-05
-1.08561e-05
-6.8674e-05
-1.08782e-05
-6.33072e-05
-1.07306e-05
-5.8052e-05
-1.05079e-05
-5.2999e-05
-1.01036e-05
-4.81475e-05
-9.70109e-06
-4.3539e-05
-9.21538e-06
-3.91645e-05
-8.74791e-06
-3.49479e-05
-8.43205e-06
-3.0803e-05
-8.28846e-06
-2.66825e-05
-8.24022e-06
-2.26292e-05
-8.10585e-06
-1.86786e-05
-7.90041e-06
-1.48249e-05
-7.70721e-06
-1.10644e-05
-7.52118e-06
-7.37371e-06
-7.38204e-06
-3.70312e-06
-7.34119e-06
-6.39998e-08
-7.27685e-06
3.51289e-06
-7.15586e-06
7.08655e-06
-7.14713e-06
1.06857e-05
-7.19711e-06
1.43168e-05
-7.26077e-06
1.79676e-05
-7.30035e-06
2.16149e-05
-7.2934e-06
2.5231e-05
-7.23094e-06
2.87727e-05
-7.08127e-06
3.21991e-05
-6.85088e-06
3.54536e-05
-6.50718e-06
3.84864e-05
-6.06406e-06
4.12464e-05
-5.51848e-06
4.36881e-05
-4.88314e-06
4.57767e-05
-4.17668e-06
4.74685e-05
-3.38293e-06
4.87755e-05
-2.61583e-06
4.9671e-05
-1.79324e-06
5.01405e-05
-9.41076e-07
5.02171e-05
-1.54504e-07
4.988e-05
6.7161e-07
4.91777e-05
1.40285e-06
4.81476e-05
2.05819e-06
4.68082e-05
2.67648e-06
4.52277e-05
3.16111e-06
4.34245e-05
3.59839e-06
4.14308e-05
3.99081e-06
3.92998e-05
4.25546e-06
3.70358e-05
4.53035e-06
3.46944e-05
4.67716e-06
3.23104e-05
4.76516e-06
2.99059e-05
4.80554e-06
2.75077e-05
4.79406e-06
2.51439e-05
4.72849e-06
2.28286e-05
4.6286e-06
2.0573e-05
4.51143e-06
1.83819e-05
4.38154e-06
1.62475e-05
4.26888e-06
1.41613e-05
4.17205e-06
1.21103e-05
4.1029e-06
1.00828e-05
4.0566e-06
8.05639e-06
4.05321e-06
6.01969e-06
4.07426e-06
3.95652e-06
4.12613e-06
1.86977e-06
4.17427e-06
-2.34837e-07
4.20962e-06
-2.36416e-06
4.25855e-06
-4.49107e-06
4.25872e-06
-6.60317e-06
4.21943e-06
-8.69914e-06
4.19215e-06
-1.07325e-05
4.0672e-06
-1.26833e-05
3.90054e-06
-1.45274e-05
3.68819e-06
-1.62432e-05
3.43176e-06
-1.779e-05
3.09255e-06
-1.91406e-05
2.70161e-06
-2.02613e-05
2.23979e-06
-2.11393e-05
1.75893e-06
-2.17327e-05
1.18672e-06
-2.20305e-05
5.96538e-07
-2.20103e-05
-3.9535e-08
-2.16627e-05
-6.94216e-07
-2.09812e-05
-1.36071e-06
-1.99654e-05
-2.03046e-06
-1.86089e-05
-2.71088e-06
-1.69254e-05
-3.36449e-06
-1.49413e-05
-3.96635e-06
-1.26641e-05
-4.55179e-06
-1.01314e-05
-5.06262e-06
-7.37726e-06
-5.50819e-06
-4.44529e-06
-5.85692e-06
-1.37737e-06
-6.13251e-06
1.7751e-06
-6.30285e-06
4.97405e-06
-6.39327e-06
8.16642e-06
-6.38157e-06
1.13126e-05
-6.2918e-06
1.4391e-05
-6.15496e-06
1.73763e-05
-5.96933e-06
2.0253e-05
-5.75194e-06
2.30013e-05
-5.49647e-06
2.56236e-05
-5.24482e-06
2.81181e-05
-4.9888e-06
3.04905e-05
-4.74439e-06
3.27253e-05
-4.47043e-06
3.48359e-05
-4.22087e-06
3.68166e-05
-3.9611e-06
3.86528e-05
-3.67335e-06
4.03496e-05
-3.39323e-06
4.18678e-05
-3.037e-06
4.32133e-05
-2.69124e-06
4.43779e-05
-2.32903e-06
4.53079e-05
-1.86134e-06
4.60227e-05
-1.42945e-06
4.65092e-05
-9.73006e-07
4.67333e-05
-4.50118e-07
4.67115e-05
4.13789e-08
4.64404e-05
5.40924e-07
4.59248e-05
1.029e-06
4.51605e-05
1.52769e-06
4.4176e-05
1.96911e-06
4.29618e-05
2.42441e-06
4.1556e-05
2.80944e-06
3.99729e-05
3.1635e-06
3.82301e-05
3.48441e-06
3.63595e-05
3.73825e-06
3.4357e-05
4.00329e-06
3.22707e-05
4.17055e-06
3.01081e-05
4.32305e-06
2.78911e-05
4.43365e-06
2.5618e-05
4.54428e-06
2.33243e-05
4.58587e-06
2.10096e-05
4.62813e-06
1.86804e-05
4.65647e-06
1.63435e-05
4.67324e-06
1.40016e-05
4.68436e-06
1.16551e-05
4.69201e-06
9.3025e-06
4.70432e-06
6.94532e-06
4.71431e-06
4.5893e-06
4.71209e-06
2.21415e-06
4.74934e-06
-1.59508e-07
4.74571e-06
-2.53235e-06
4.74603e-06
-4.89282e-06
4.72124e-06
-7.22609e-06
4.6656e-06
-9.54044e-06
4.62368e-06
-1.18203e-05
4.56401e-06
-1.40192e-05
4.39705e-06
-1.61273e-05
4.21574e-06
-1.81202e-05
3.9843e-06
-1.99761e-05
3.71156e-06
-2.16612e-05
3.37029e-06
-2.3139e-05
2.95361e-06
-2.43967e-05
2.51841e-06
-2.53959e-05
1.99841e-06
-2.61094e-05
1.42527e-06
-2.65122e-05
8.0584e-07
-2.65855e-05
1.47255e-07
-2.63072e-05
-5.5631e-07
-2.56634e-05
-1.28708e-06
-2.4641e-05
-2.04387e-06
-2.32374e-05
-2.80606e-06
-2.14709e-05
-3.53237e-06
-1.93101e-05
-4.31772e-06
-1.67786e-05
-5.06089e-06
-1.38918e-05
-5.77262e-06
-1.06644e-05
-6.45284e-06
-7.1441e-06
-7.0392e-06
-3.32992e-06
-7.62437e-06
7.26763e-07
-8.11056e-06
4.98517e-06
-8.51461e-06
9.4032e-06
-8.83255e-06
1.3929e-05
-9.048e-06
1.8509e-05
-9.15827e-06
2.30931e-05
-9.1648e-06
2.76219e-05
-9.05489e-06
3.20387e-05
-8.8316e-06
3.62875e-05
-8.49395e-06
4.03083e-05
-8.03917e-06
4.40472e-05
-7.47632e-06
4.74555e-05
-6.81451e-06
5.04839e-05
-6.05512e-06
5.30916e-05
-5.21468e-06
5.52376e-05
-4.2912e-06
5.68939e-05
-3.31155e-06
5.80379e-05
-2.28836e-06
5.86537e-05
-1.23214e-06
5.87373e-05
-1.67864e-07
5.82855e-05
9.01256e-07
5.73043e-05
1.96048e-06
5.58076e-05
2.99215e-06
5.38203e-05
3.97237e-06
5.13674e-05
4.90312e-06
4.84848e-05
5.76288e-06
4.5207e-05
6.5525e-06
4.15794e-05
7.25196e-06
3.76491e-05
7.85836e-06
3.34658e-05
8.36225e-06
2.90764e-05
8.77491e-06
2.4533e-05
9.08316e-06
1.98935e-05
9.2766e-06
1.52019e-05
9.37995e-06
1.0511e-05
9.37886e-06
5.86365e-06
9.29223e-06
1.30933e-06
9.10605e-06
-3.12147e-06
8.85901e-06
-7.38788e-06
8.53052e-06
-1.14578e-05
8.1384e-06
-1.5305e-05
7.69282e-06
-1.89037e-05
7.19622e-06
-2.22354e-05
6.66188e-06
-2.52821e-05
6.09241e-06
-2.80322e-05
5.49976e-06
-3.0475e-05
4.88499e-06
-3.26043e-05
4.25834e-06
-3.44167e-05
3.6245e-06
-3.5912e-05
2.99054e-06
-3.70914e-05
2.35892e-06
-3.79564e-05
1.73093e-06
-3.85216e-05
1.13065e-06
-3.87871e-05
5.31972e-07
-3.87632e-05
-4.75461e-08
-3.84594e-05
-6.06451e-07
-3.78861e-05
-1.14641e-06
-3.70547e-05
-1.66127e-06
-3.59927e-05
-2.12318e-06
-3.46969e-05
-2.59091e-06
-3.31886e-05
-3.01499e-06
-3.15003e-05
-3.37514e-06
-2.96365e-05
-3.72635e-06
-2.76185e-05
-4.03447e-06
-2.54678e-05
-4.30019e-06
-2.31935e-05
-4.54722e-06
-2.08318e-05
-4.72174e-06
-1.84001e-05
-4.86183e-06
-1.59173e-05
-4.96564e-06
-1.34151e-05
-5.00164e-06
-1.09219e-05
-4.98434e-06
-8.46006e-06
-4.92139e-06
-6.05522e-06
-4.80724e-06
-3.72361e-06
-4.66355e-06
-1.47811e-06
-4.4893e-06
6.42792e-07
-4.2398e-06
2.63025e-06
-3.97352e-06
4.46332e-06
-3.66498e-06
6.12669e-06
-3.32567e-06
7.60647e-06
-2.95857e-06
8.89322e-06
-2.57279e-06
9.98025e-06
-2.17358e-06
1.08647e-05
-1.76855e-06
1.15474e-05
-1.36525e-06
1.20322e-05
-9.69687e-07
1.23286e-05
-5.9306e-07
1.24512e-05
-2.45506e-07
1.24133e-05
7.51938e-08
1.22225e-05
3.80795e-07
1.18972e-05
6.49761e-07
1.14571e-05
8.79334e-07
1.09219e-05
1.06925e-06
1.03115e-05
1.21989e-06
9.64507e-06
1.33186e-06
8.94098e-06
1.40721e-06
8.21644e-06
1.44812e-06
7.48714e-06
1.45772e-06
6.76698e-06
1.4395e-06
6.06785e-06
1.39752e-06
5.3995e-06
1.33606e-06
4.76946e-06
1.25952e-06
4.18316e-06
1.17213e-06
3.64405e-06
1.07785e-06
3.1538e-06
9.80201e-07
2.71259e-06
8.82205e-07
2.31934e-06
7.86347e-07
1.972e-06
6.94577e-07
1.6678e-06
6.0833e-07
1.4035e-06
5.28579e-07
1.17555e-06
4.55889e-07
9.80317e-07
3.90485e-07
8.14172e-07
3.3232e-07
6.73623e-07
2.81136e-07
5.55381e-07
2.36525e-07
4.56412e-07
1.97982e-07
3.73961e-07
1.64945e-07
3.05564e-07
1.36833e-07
2.4905e-07
1.13066e-07
2.0252e-07
9.30942e-08
1.64335e-07
7.64009e-08
1.3309e-07
6.25158e-08
1.07593e-07
5.10174e-08
8.68362e-08
4.1533e-08
6.99758e-08
3.37376e-08
5.63075e-08
2.73509e-08
4.52468e-08
2.21334e-08
3.63109e-08
1.78819e-08
2.91023e-08
1.44256e-08
2.32949e-08
1.16216e-08
1.86222e-08
9.35121e-09
1.48666e-08
7.51596e-09
1.18511e-08
6.03488e-09
9.43195e-09
4.84141e-09
7.4927e-09
3.8811e-09
5.93901e-09
3.10951e-09
4.69464e-09
2.49049e-09
3.69803e-09
1.99464e-09
2.89952e-09
1.59819e-09
2.25905e-09
1.28188e-09
1.74435e-09
1.0302e-09
1.32936e-09
8.30616e-10
9.93093e-10
6.73076e-10
7.18578e-10
5.49486e-10
4.92099e-10
4.53348e-10
3.02555e-10
3.79432e-10
1.40953e-10
3.23512e-10
2.82122e-10
0.000100962
-5.02455e-05
0.000117604
-4.98664e-05
0.000133763
-4.84032e-05
0.000149091
-4.5912e-05
0.0001636
-4.34393e-05
0.000176902
-3.98196e-05
0.000188841
-3.57341e-05
0.000199127
-3.07618e-05
0.000207478
-2.49894e-05
0.000213699
-1.8625e-05
0.000217664
-1.18327e-05
0.000219236
-4.70413e-06
0.000218208
2.91986e-06
0.000214537
1.08961e-05
0.000208328
1.86007e-05
0.000199693
2.58851e-05
0.000188563
3.33437e-05
0.000175379
3.95028e-05
0.000160326
4.51018e-05
0.0001435
5.04152e-05
0.000125469
5.40249e-05
0.000106408
5.71113e-05
8.65813e-05
5.94072e-05
6.65831e-05
5.99243e-05
4.65533e-05
6.00215e-05
2.70096e-05
5.85624e-05
8.20087e-06
5.63319e-05
-9.78936e-06
5.39579e-05
-2.63791e-05
4.97475e-05
-4.16113e-05
4.5674e-05
-5.53701e-05
4.12606e-05
-6.75382e-05
3.65011e-05
-7.81043e-05
3.17087e-05
-8.70286e-05
2.67986e-05
-9.42937e-05
2.18302e-05
-9.98843e-05
1.68122e-05
-0.000103771
1.16876e-05
-0.000105995
6.67209e-06
-0.000106643
1.91701e-06
-0.000106111
-1.61305e-06
-0.000104541
-4.6966e-06
-0.000102002
-7.60143e-06
-9.86183e-05
-1.01299e-05
-9.45288e-05
-1.2246e-05
-8.98771e-05
-1.39322e-05
-8.48467e-05
-1.50695e-05
-7.95665e-05
-1.58194e-05
-7.41283e-05
-1.62943e-05
-6.86799e-05
-1.63266e-05
-6.33062e-05
-1.61044e-05
-5.80448e-05
-1.57694e-05
-5.29865e-05
-1.51619e-05
-4.81306e-05
-1.4557e-05
-4.35186e-05
-1.38274e-05
-3.91415e-05
-1.3125e-05
-3.49232e-05
-1.26503e-05
-3.07772e-05
-1.24345e-05
-2.66559e-05
-1.23615e-05
-2.26026e-05
-1.21592e-05
-1.86524e-05
-1.18505e-05
-1.48006e-05
-1.1559e-05
-1.10423e-05
-1.12795e-05
-7.3554e-06
-1.1069e-05
-3.68901e-06
-1.10076e-05
-5.02735e-08
-1.09156e-05
3.52068e-06
-1.07268e-05
7.09106e-06
-1.07175e-05
1.06883e-05
-1.07944e-05
1.43181e-05
-1.08906e-05
1.7969e-05
-1.09512e-05
2.16173e-05
-1.09417e-05
2.52344e-05
-1.0848e-05
2.8778e-05
-1.06249e-05
3.22064e-05
-1.02793e-05
3.54636e-05
-9.76447e-06
3.84993e-05
-9.09974e-06
4.12632e-05
-8.28232e-06
4.37066e-05
-7.32655e-06
4.57964e-05
-6.26651e-06
4.74902e-05
-5.07674e-06
4.87984e-05
-3.92403e-06
4.9694e-05
-2.6888e-06
5.01627e-05
-1.40987e-06
5.02401e-05
-2.31864e-07
4.99017e-05
1.00997e-06
4.91985e-05
2.10604e-06
4.81656e-05
3.09109e-06
4.68256e-05
4.01649e-06
4.52446e-05
4.74213e-06
4.34368e-05
5.40617e-06
4.14433e-05
5.98433e-06
3.93081e-05
6.39062e-06
3.70427e-05
6.79577e-06
3.46982e-05
7.02164e-06
3.2311e-05
7.15242e-06
2.99043e-05
7.21218e-06
2.75026e-05
7.19576e-06
2.51377e-05
7.09341e-06
2.28222e-05
6.94404e-06
2.05665e-05
6.76716e-06
1.83751e-05
6.57297e-06
1.62422e-05
6.40175e-06
1.41575e-05
6.25667e-06
1.21075e-05
6.15291e-06
1.00805e-05
6.08358e-06
8.05501e-06
6.07874e-06
6.0198e-06
6.10948e-06
3.95714e-06
6.18878e-06
1.87013e-06
6.26127e-06
-2.35144e-07
6.31489e-06
-2.36558e-06
6.38898e-06
-4.48736e-06
6.38049e-06
-6.60589e-06
6.33796e-06
-8.70512e-06
6.29137e-06
-1.07398e-05
6.10188e-06
-1.26927e-05
5.85339e-06
-1.45383e-05
5.53378e-06
-1.62573e-05
5.15082e-06
-1.78065e-05
4.64167e-06
-1.91598e-05
4.05495e-06
-2.02849e-05
3.36483e-06
-2.11617e-05
2.63575e-06
-2.1757e-05
1.782e-06
-2.20561e-05
8.95725e-07
-2.20363e-05
-5.94225e-08
-2.16881e-05
-1.04241e-06
-2.10084e-05
-2.04039e-06
-1.99918e-05
-3.047e-06
-1.86348e-05
-4.06789e-06
-1.69502e-05
-5.04919e-06
-1.49642e-05
-5.95234e-06
-1.26854e-05
-6.83055e-06
-1.01498e-05
-7.59821e-06
-7.38804e-06
-8.26997e-06
-4.4556e-06
-8.78937e-06
-1.38455e-06
-9.20357e-06
1.77238e-06
-9.45978e-06
4.97321e-06
-9.5941e-06
8.16732e-06
-9.57568e-06
1.13185e-05
-9.44302e-06
1.43984e-05
-9.23485e-06
1.73854e-05
-8.95634e-06
2.02614e-05
-8.6279e-06
2.30121e-05
-8.24716e-06
2.56339e-05
-7.8666e-06
2.81308e-05
-7.48574e-06
3.05003e-05
-7.11389e-06
3.27363e-05
-6.70643e-06
3.48491e-05
-6.33362e-06
3.68274e-05
-5.93947e-06
3.86652e-05
-5.51113e-06
4.03642e-05
-5.0922e-06
4.18827e-05
-4.55555e-06
4.32293e-05
-4.03777e-06
4.43905e-05
-3.49028e-06
4.53251e-05
-2.7959e-06
4.60411e-05
-2.14549e-06
4.65298e-05
-1.46171e-06
4.6754e-05
-6.74286e-07
4.67322e-05
6.31827e-08
4.64608e-05
8.12264e-07
4.59421e-05
1.5477e-06
4.51779e-05
2.29191e-06
4.41918e-05
2.95519e-06
4.29764e-05
3.63977e-06
4.15704e-05
4.21546e-06
3.99853e-05
4.74865e-06
3.82397e-05
5.23001e-06
3.63672e-05
5.61069e-06
3.43635e-05
6.00703e-06
3.22751e-05
6.25889e-06
3.01116e-05
6.48653e-06
2.78945e-05
6.65077e-06
2.56195e-05
6.81931e-06
2.33245e-05
6.88087e-06
2.10098e-05
6.94283e-06
1.8681e-05
6.98521e-06
1.63438e-05
7.0104e-06
1.40013e-05
7.02692e-06
1.16545e-05
7.03883e-06
9.30166e-06
7.05712e-06
6.94566e-06
7.0703e-06
4.58921e-06
7.06854e-06
2.21298e-06
7.12556e-06
-1.60425e-07
7.11911e-06
-2.53342e-06
7.11902e-06
-4.89575e-06
7.08356e-06
-7.22903e-06
6.99887e-06
-9.55033e-06
6.94497e-06
-1.18269e-05
6.8406e-06
-1.40274e-05
6.59753e-06
-1.61363e-05
6.32462e-06
-1.81323e-05
5.98028e-06
-1.99902e-05
5.56943e-06
-2.16773e-05
5.05746e-06
-2.31592e-05
4.43543e-06
-2.44177e-05
3.77689e-06
-2.54189e-05
2.99961e-06
-2.61346e-05
2.14104e-06
-2.65397e-05
1.21086e-06
-2.66141e-05
2.21696e-07
-2.63362e-05
-8.34202e-07
-2.56931e-05
-1.93025e-06
-2.46736e-05
-3.06337e-06
-2.32669e-05
-4.21273e-06
-2.14993e-05
-5.30001e-06
-1.934e-05
-6.47703e-06
-1.68077e-05
-7.59316e-06
-1.39184e-05
-8.66193e-06
-1.06913e-05
-9.68001e-06
-7.1656e-06
-1.05649e-05
-3.34942e-06
-1.14406e-05
7.10723e-07
-1.21707e-05
4.97415e-06
-1.2778e-05
9.3956e-06
-1.3254e-05
1.39247e-05
-1.35772e-05
1.8509e-05
-1.37425e-05
2.30974e-05
-1.37532e-05
2.76313e-05
-1.35888e-05
3.20526e-05
-1.32529e-05
3.63054e-05
-1.27468e-05
4.03311e-05
-1.20648e-05
4.40751e-05
-1.12203e-05
4.7487e-05
-1.02264e-05
5.05177e-05
-9.08587e-06
5.31277e-05
-7.82472e-06
5.52767e-05
-6.44018e-06
5.69354e-05
-4.97033e-06
5.80809e-05
-3.43385e-06
5.8697e-05
-1.8482e-06
5.87797e-05
-2.50639e-07
5.83269e-05
1.35403e-06
5.73445e-05
2.94289e-06
5.58459e-05
4.49071e-06
5.3856e-05
5.96232e-06
5.14002e-05
7.35888e-06
4.85152e-05
8.64791e-06
4.52352e-05
9.83243e-06
4.16033e-05
1.08839e-05
3.76707e-05
1.17909e-05
3.34809e-05
1.2552e-05
2.90871e-05
1.31687e-05
2.45405e-05
1.36298e-05
1.98966e-05
1.39205e-05
1.52018e-05
1.40747e-05
1.0507e-05
1.40737e-05
5.85606e-06
1.39431e-05
1.29895e-06
1.36631e-05
-3.1345e-06
1.32924e-05
-7.40358e-06
1.27996e-05
-1.14761e-05
1.22109e-05
-1.53252e-05
1.15419e-05
-1.8925e-05
1.07961e-05
-2.22581e-05
9.99495e-06
-2.53061e-05
9.14034e-06
-2.80567e-05
8.25043e-06
-3.05002e-05
7.32844e-06
-3.26299e-05
6.38803e-06
-3.44424e-05
5.43704e-06
-3.5937e-05
4.48514e-06
-3.7116e-05
3.53788e-06
-3.79814e-05
2.59633e-06
-3.85457e-05
1.69495e-06
-3.881e-05
7.96201e-07
-3.87852e-05
-7.22747e-08
-3.84803e-05
-9.1134e-07
-3.79062e-05
-1.72057e-06
-3.70736e-05
-2.49383e-06
-3.60107e-05
-3.18613e-06
-3.47139e-05
-3.8877e-06
-3.32047e-05
-4.52421e-06
-3.15142e-05
-5.06561e-06
-2.96489e-05
-5.59168e-06
-2.7629e-05
-6.05435e-06
-2.54763e-05
-6.45285e-06
-2.32019e-05
-6.82162e-06
-2.08383e-05
-7.08536e-06
-1.84052e-05
-7.29497e-06
-1.59229e-05
-7.44789e-06
-1.34171e-05
-7.50744e-06
-1.09211e-05
-7.48039e-06
-8.45628e-06
-7.38617e-06
-6.04861e-06
-7.2149e-06
-3.71757e-06
-6.99459e-06
-1.46942e-06
-6.73744e-06
6.53743e-07
-6.36296e-06
2.64294e-06
-5.96271e-06
4.47774e-06
-5.49978e-06
6.14259e-06
-4.99051e-06
7.62362e-06
-4.4396e-06
8.91137e-06
-3.86054e-06
9.99915e-06
-3.26135e-06
1.08841e-05
-2.6535e-06
1.15671e-05
-2.0482e-06
1.20523e-05
-1.45487e-06
1.23488e-05
-8.89597e-07
1.24705e-05
-3.67213e-07
1.24311e-05
1.14627e-07
1.22389e-05
5.72937e-07
1.19121e-05
9.76565e-07
1.14705e-05
1.32094e-06
1.09339e-05
1.60591e-06
1.03218e-05
1.83193e-06
9.65383e-06
1.99988e-06
8.94818e-06
2.11286e-06
8.22216e-06
2.17415e-06
7.49147e-06
2.18841e-06
6.77004e-06
2.16093e-06
6.0698e-06
2.09776e-06
5.40048e-06
2.00538e-06
4.76965e-06
1.89035e-06
4.18271e-06
1.75907e-06
3.64311e-06
1.61745e-06
3.15251e-06
1.4708e-06
2.71106e-06
1.32365e-06
2.31768e-06
1.17973e-06
1.97029e-06
1.04197e-06
1.6661e-06
9.12514e-07
1.40186e-06
7.92821e-07
1.17402e-06
6.83739e-07
9.78902e-07
5.85601e-07
8.12889e-07
4.98335e-07
6.72476e-07
4.2155e-07
5.54369e-07
3.54633e-07
4.55529e-07
2.96824e-07
3.73197e-07
2.47278e-07
3.04911e-07
2.0512e-07
2.48494e-07
1.69484e-07
2.02051e-07
1.39538e-07
1.63941e-07
1.14511e-07
1.32762e-07
9.36957e-08
1.07321e-07
7.64593e-08
8.66115e-08
6.22427e-08
6.9791e-08
5.05585e-08
5.61561e-08
4.09863e-08
4.51232e-08
3.31667e-08
3.62102e-08
2.67952e-08
2.90206e-08
2.16156e-08
2.32288e-08
1.74137e-08
1.85688e-08
1.40115e-08
1.48235e-08
1.12614e-08
1.18165e-08
9.04212e-09
9.40423e-09
7.25383e-09
7.47054e-09
5.81494e-09
5.92134e-09
4.65884e-09
4.6806e-09
3.73134e-09
3.68692e-09
2.98842e-09
2.89077e-09
2.39443e-09
2.25221e-09
1.92052e-09
1.73905e-09
1.54343e-09
1.32532e-09
1.24442e-09
9.90065e-10
1.00839e-09
7.16383e-10
8.23226e-10
4.90595e-10
6.79194e-10
3.0163e-10
5.68456e-10
1.40522e-10
4.84676e-10
4.22655e-10
0.000101001
-6.70329e-05
0.000117681
-6.65473e-05
0.000133886
-6.46087e-05
0.000149265
-6.12913e-05
0.000163827
-5.80025e-05
0.000177186
-5.31792e-05
0.000189188
-4.7737e-05
0.000199516
-4.10898e-05
0.000207922
-3.33956e-05
0.000214168
-2.48721e-05
0.000218132
-1.57974e-05
0.000219695
-6.26754e-06
0.000218584
4.03083e-06
0.000214844
1.46358e-05
0.000208621
2.48231e-05
0.000199974
3.45314e-05
0.000188819
4.44984e-05
0.000175606
5.27155e-05
0.000160522
6.01851e-05
0.000143659
6.72776e-05
0.000125589
7.20952e-05
0.000106487
7.6213e-05
8.66176e-05
7.92762e-05
6.65786e-05
7.99631e-05
4.65096e-05
8.00903e-05
2.69261e-05
7.81458e-05
8.05619e-06
7.52017e-05
-9.93593e-06
7.19498e-05
-2.65395e-05
6.6351e-05
-4.17858e-05
6.09202e-05
-5.5554e-05
5.50286e-05
-6.77231e-05
4.86701e-05
-7.82804e-05
4.22659e-05
-8.71852e-05
3.57033e-05
-9.4419e-05
2.9064e-05
-9.99726e-05
2.23657e-05
-0.000103843
1.5558e-05
-0.000106083
8.9121e-06
-0.000106759
2.59306e-06
-0.000106234
-2.13863e-06
-0.000104654
-6.27669e-06
-0.000102101
-1.01543e-05
-9.87042e-05
-1.35266e-05
-9.46012e-05
-1.63489e-05
-8.9936e-05
-1.85974e-05
-8.48923e-05
-2.01132e-05
-7.95994e-05
-2.11123e-05
-7.41489e-05
-2.17448e-05
-6.8689e-05
-2.17865e-05
-6.33049e-05
-2.14885e-05
-5.80341e-05
-2.10402e-05
-5.29679e-05
-2.02281e-05
-4.81053e-05
-1.94195e-05
-4.3488e-05
-1.84447e-05
-3.91071e-05
-1.7506e-05
-3.48863e-05
-1.68711e-05
-3.07387e-05
-1.65821e-05
-2.66162e-05
-1.6484e-05
-2.25627e-05
-1.62128e-05
-1.86133e-05
-1.58e-05
-1.47643e-05
-1.5408e-05
-1.10094e-05
-1.50343e-05
-7.32797e-06
-1.47504e-05
-3.66759e-06
-1.4668e-05
-2.94084e-08
-1.45538e-05
3.53183e-06
-1.42881e-05
7.09752e-06
-1.42832e-05
1.06921e-05
-1.4389e-05
1.43205e-05
-1.4519e-05
1.7971e-05
-1.46017e-05
2.16203e-05
-1.4591e-05
2.52391e-05
-1.44668e-05
2.87856e-05
-1.41714e-05
3.22172e-05
-1.37109e-05
3.54791e-05
-1.30264e-05
3.8519e-05
-1.21397e-05
4.12882e-05
-1.10515e-05
4.37355e-05
-9.77384e-06
4.58288e-05
-8.3598e-06
4.75254e-05
-6.77336e-06
4.88358e-05
-5.23446e-06
4.97325e-05
-3.58545e-06
5.01998e-05
-1.87719e-06
5.02754e-05
-3.07489e-07
4.9934e-05
1.35141e-06
4.92309e-05
2.80905e-06
4.81931e-05
4.12896e-06
4.68537e-05
5.3559e-06
4.52722e-05
6.32359e-06
4.34571e-05
7.22129e-06
4.14615e-05
7.97988e-06
3.93211e-05
8.53098e-06
3.70558e-05
9.06106e-06
3.47066e-05
9.37086e-06
3.23104e-05
9.54862e-06
2.9901e-05
9.62163e-06
2.74986e-05
9.5981e-06
2.51316e-05
9.46045e-06
2.28132e-05
9.26242e-06
2.05582e-05
9.02214e-06
1.83671e-05
8.76405e-06
1.62354e-05
8.53344e-06
1.41523e-05
8.33977e-06
1.21039e-05
8.2013e-06
1.00791e-05
8.10843e-06
8.05436e-06
8.10345e-06
6.02059e-06
8.14324e-06
3.9583e-06
8.25107e-06
1.87114e-06
8.34843e-06
-2.34919e-07
8.42094e-06
-2.36647e-06
8.52053e-06
-4.48964e-06
8.50366e-06
-6.61731e-06
8.46562e-06
-8.71347e-06
8.38753e-06
-1.07514e-05
8.13981e-06
-1.27074e-05
7.80942e-06