/*--------------------------------*- C++ -*----------------------------------*\
| =========                 |                                                 |
| \\      /  F ield         | OpenFOAM: The Open Source CFD Toolbox           |
|  \\    /   O peration     | Version:  3.0.1                                 |
|   \\  /    A nd           | Web:      www.OpenFOAM.org                      |
|    \\/     M anipulation  |                                                 |
\*---------------------------------------------------------------------------*/
FoamFile
{
    version     2.0;
    format      ascii;
    class       surfaceScalarField;
    location    "66.6";
    object      alphaPhi;
}
// * * * * * * * * * * * * * * * * * * * * * * * * * * * * * * * * * * * * * //

dimensions      [0 3 -1 0 0 0 0];

internalField   nonuniform List<scalar> 
42423
(
0.00023682
4.19799e-06
0.000230816
6.00405e-06
0.000222676
8.14068e-06
0.000212428
1.02479e-05
0.000200541
1.18864e-05
0.000186993
1.35484e-05
0.000172175
1.4818e-05
0.000156255
1.59195e-05
0.000139401
1.6854e-05
0.000121992
1.74096e-05
0.000104204
1.77879e-05
8.62349e-05
1.79691e-05
6.83753e-05
1.78596e-05
5.07266e-05
1.76487e-05
3.35669e-05
1.71597e-05
1.69079e-05
1.6659e-05
9.34459e-07
1.59734e-05
-1.43153e-05
1.52498e-05
-2.8766e-05
1.44507e-05
-4.23519e-05
1.35859e-05
-5.5034e-05
1.26821e-05
-6.68214e-05
1.17874e-05
-7.76966e-05
1.08752e-05
-8.76674e-05
9.9708e-06
-9.67625e-05
9.09508e-06
-0.000104988
8.22536e-06
-0.000112391
7.40304e-06
-0.000119003
6.6122e-06
-0.00012484
5.83663e-06
-0.000129941
5.10099e-06
-0.000134328
4.38748e-06
-0.000138031
3.70279e-06
-0.000141074
3.04289e-06
-0.000143472
2.39863e-06
-0.000145234
1.76155e-06
-0.000146392
1.15757e-06
-0.000146924
5.32626e-07
-0.000146799
-1.25164e-07
-0.000146029
-7.70536e-07
-0.000144558
-1.47093e-06
-0.000142424
-2.13355e-06
-0.000139556
-2.86779e-06
-0.000136026
-3.5307e-06
-0.000131725
-4.30076e-06
-0.000126639
-5.08542e-06
-0.000120798
-5.84191e-06
-0.000114154
-6.64322e-06
-0.000106547
-7.60751e-06
-9.8075e-05
-8.47188e-06
-8.87652e-05
-9.30975e-06
-7.84644e-05
-1.03009e-05
-6.72303e-05
-1.12341e-05
-5.50509e-05
-1.21794e-05
-4.17517e-05
-1.32992e-05
-2.78892e-05
-1.38626e-05
-1.29156e-05
-1.49737e-05
2.83892e-06
-1.57545e-05
1.91075e-05
-1.62686e-05
3.60518e-05
-1.69443e-05
5.33881e-05
-1.73363e-05
7.10808e-05
-1.76927e-05
8.89829e-05
-1.79021e-05
0.000106752
-1.77695e-05
0.000124254
-1.75014e-05
0.00014135
-1.70961e-05
0.000157623
-1.62732e-05
0.000172984
-1.53611e-05
0.000187137
-1.41535e-05
0.000199922
-1.27848e-05
0.000211202
-1.12801e-05
0.000220667
-9.46479e-06
0.000228242
-7.57509e-06
0.000233811
-5.56853e-06
0.000237173
-3.3626e-06
0.000238363
-1.18985e-06
0.000237262
1.10081e-06
0.000233969
3.29335e-06
0.000228465
5.50371e-06
0.000220846
7.61969e-06
0.000211246
9.59949e-06
0.000199827
1.14191e-05
0.000186767
1.30599e-05
0.000172303
1.44643e-05
0.000156625
1.56782e-05
0.000140024
1.66016e-05
0.000122731
1.72924e-05
0.000105
1.77314e-05
8.70896e-05
1.79107e-05
6.90902e-05
1.79996e-05
5.13287e-05
1.77616e-05
3.3802e-05
1.75267e-05
1.66441e-05
1.7158e-05
-1.27449e-08
1.66568e-05
-1.6115e-05
1.61022e-05
-3.15614e-05
1.54464e-05
-4.6265e-05
1.47035e-05
-6.01533e-05
1.38883e-05
-7.3141e-05
1.29876e-05
-8.51908e-05
1.20497e-05
-9.62385e-05
1.10476e-05
-0.000106259
1.00201e-05
-0.000115257
8.99783e-06
-0.000123238
7.98102e-06
-0.000130256
7.01849e-06
-0.000136319
6.06251e-06
-0.000141499
5.18006e-06
-0.000145816
4.31752e-06
-0.00014931
3.49382e-06
-0.000152039
2.72818e-06
-0.000154007
1.96867e-06
-0.000155257
1.24944e-06
-0.000155792
5.35169e-07
-0.000155614
-1.78474e-07
-0.000154725
-8.88194e-07
-0.000153113
-1.61229e-06
-0.000150774
-2.33931e-06
-0.00014774
-3.03352e-06
-0.000143995
-3.74488e-06
-0.000139473
-4.522e-06
-0.000134187
-5.28645e-06
-0.000128135
-6.05214e-06
-0.000121361
-6.77389e-06
-0.000113824
-7.53761e-06
-0.000105531
-8.29219e-06
-9.64681e-05
-9.06329e-06
-8.65872e-05
-9.88097e-06
-7.60908e-05
-1.04965e-05
-6.47661e-05
-1.13248e-05
-5.26998e-05
-1.20663e-05
-3.98854e-05
-1.28145e-05
-2.63047e-05
-1.35808e-05
-1.21301e-05
-1.41747e-05
2.78002e-06
-1.49102e-05
1.82716e-05
-1.54917e-05
3.43112e-05
-1.60397e-05
5.07796e-05
-1.64685e-05
6.7503e-05
-1.67234e-05
8.43901e-05
-1.68872e-05
0.000101208
-1.68184e-05
0.00011779
-1.65819e-05
0.000133898
-1.61077e-05
0.000149268
-1.53698e-05
0.000163707
-1.44397e-05
0.0001769
-1.31925e-05
0.000188625
-1.17252e-05
0.000198655
-1.00304e-05
0.000206785
-8.13035e-06
0.000212831
-6.04556e-06
0.000216626
-3.79503e-06
0.000218105
-1.47865e-06
0.000217167
9.3768e-07
0.000213785
3.38196e-06
0.000207917
5.86752e-06
0.000199746
8.1713e-06
0.000189379
1.03669e-05
0.000176998
1.23813e-05
0.000162747
1.42507e-05
0.000146954
1.57925e-05
0.000129838
1.71159e-05
0.000111707
1.81311e-05
9.28579e-05
1.88493e-05
7.35716e-05
1.92864e-05
5.41525e-05
1.9419e-05
3.48733e-05
1.92792e-05
1.59345e-05
1.89389e-05
-2.44579e-06
1.83802e-05
-2.00891e-05
1.76433e-05
-3.6885e-05
1.67959e-05
-5.27317e-05
1.58467e-05
-6.75552e-05
1.48235e-05
-8.13238e-05
1.37686e-05
-9.39488e-05
1.2625e-05
-0.000105546
1.15971e-05
-0.00011601
1.04644e-05
-0.000125452
9.44201e-06
-0.000133855
8.40245e-06
-0.000141266
7.41177e-06
-0.000147713
6.44696e-06
-0.000153224
5.51077e-06
-0.000157889
4.66487e-06
-0.000161738
3.84878e-06
-0.000164814
3.07621e-06
-0.000167167
2.35287e-06
-0.000168863
1.69612e-06
-0.00016993
1.06669e-06
-0.000170366
4.36211e-07
-0.000170285
-8.04594e-08
-0.000169583
-7.02134e-07
-0.000168363
-1.22073e-06
-0.000166574
-1.78805e-06
-0.000164342
-2.23204e-06
-0.000161502
-2.84009e-06
-0.000158038
-3.46434e-06
-0.00015394
-4.09811e-06
-0.000149172
-4.76765e-06
-0.000143906
-5.26596e-06
-0.000137954
-5.95229e-06
-0.000131368
-6.58571e-06
-0.000124098
-7.27024e-06
-0.000116072
-8.02614e-06
-0.000107205
-8.86764e-06
-9.74099e-05
-9.79469e-06
-8.67737e-05
-1.06362e-05
-7.51985e-05
-1.15752e-05
-6.27761e-05
-1.24225e-05
-4.95503e-05
-1.32259e-05
-3.55269e-05
-1.40235e-05
-2.0955e-05
-1.45719e-05
-5.68995e-06
-1.52651e-05
1.00907e-05
-1.57807e-05
2.63282e-05
-1.62376e-05
4.29115e-05
-1.65834e-05
5.96946e-05
-1.67831e-05
7.6442e-05
-1.67475e-05
9.29711e-05
-1.65292e-05
0.000108998
-1.60265e-05
0.000124266
-1.52685e-05
0.000138493
-1.42273e-05
0.000151434
-1.29411e-05
0.000162823
-1.13886e-05
0.000172385
-9.56176e-06
0.000179919
-7.53421e-06
0.000185262
-5.34308e-06
0.000188242
-2.97996e-06
0.000188782
-5.40776e-07
0.000186886
1.89588e-06
0.000182506
4.3802e-06
0.000175705
6.80143e-06
0.000166692
9.01301e-06
0.000155613
1.10784e-05
0.000142718
1.28951e-05
0.000128262
1.44565e-05
0.000112492
1.57693e-05
9.57109e-05
1.67812e-05
7.82134e-05
1.74975e-05
6.0283e-05
1.79303e-05
4.22062e-05
1.80768e-05
2.42219e-05
1.79843e-05
6.56305e-06
1.76588e-05
-1.0607e-05
1.717e-05
-2.71393e-05
1.65323e-05
-4.2879e-05
1.57397e-05
-5.7782e-05
1.4903e-05
-7.17863e-05
1.40043e-05
-8.48715e-05
1.30853e-05
-9.69955e-05
1.2124e-05
-0.000108214
1.1219e-05
-0.000118596
1.03816e-05
-0.000128108
9.51236e-06
-0.000136894
8.78629e-06
-0.000144968
8.07321e-06
-0.000152349
7.38145e-06
-0.000159039
6.69041e-06
-0.000165014
5.97548e-06
-0.000170226
5.2115e-06
-0.00017468
4.4544e-06
-0.000178345
3.66519e-06
-0.00018123
2.88498e-06
-0.000183373
2.14397e-06
-0.000184822
1.4489e-06
-0.000185649
8.27478e-07
-0.000185863
2.13682e-07
-0.000185495
-3.6719e-07
-0.000184566
-9.29648e-07
-0.000183032
-1.53302e-06
-0.000180914
-2.11846e-06
-0.000178205
-2.70866e-06
-0.000174877
-3.32808e-06
-0.000170884
-3.993e-06
-0.00016616
-4.72302e-06
-0.000160716
-5.44424e-06
-0.000154511
-6.2047e-06
-0.000147381
-7.13001e-06
-0.000139479
-7.90275e-06
-0.00013066
-8.81859e-06
-0.000120945
-9.71514e-06
-0.000110237
-1.07082e-05
-9.85314e-05
-1.17051e-05
-8.56834e-05
-1.2848e-05
-7.16051e-05
-1.40783e-05
-5.63772e-05
-1.5228e-05
-3.98839e-05
-1.64932e-05
-2.21425e-05
-1.77415e-05
-3.34635e-06
-1.87962e-05
1.65333e-05
-1.98797e-05
3.69367e-05
-2.04035e-05
5.73468e-05
-2.04101e-05
7.75892e-05
-2.02424e-05
9.72091e-05
-1.96199e-05
0.000116038
-1.88285e-05
0.000133822
-1.7784e-05
0.000150158
-1.63365e-05
0.000164906
-1.47475e-05
0.000177822
-1.29169e-05
0.000188519
-1.06965e-05
0.000196922
-8.40259e-06
0.000202783
-5.86144e-06
0.000205844
-3.06151e-06
0.000206158
-3.13543e-07
0.000204152
2.00599e-06
0.000199743
4.40894e-06
0.00019286
6.88328e-06
0.000183474
9.38558e-06
0.000171952
1.15222e-05
0.000158486
1.34656e-05
0.000143214
1.5272e-05
0.000126671
1.65437e-05
0.000109062
1.76082e-05
9.07428e-05
1.83195e-05
7.20423e-05
1.87005e-05
5.31423e-05
1.89e-05
3.43003e-05
1.8842e-05
1.59424e-05
1.8358e-05
-2.10317e-06
1.80455e-05
-1.9418e-05
1.73148e-05
-3.59637e-05
1.65458e-05
-5.16274e-05
1.56637e-05
-6.63949e-05
1.47675e-05
-8.01902e-05
1.37953e-05
-9.29906e-05
1.28004e-05
-0.000104816
1.18255e-05
-0.000115637
1.08204e-05
-0.000125462
9.82536e-06
-0.000134347
8.88562e-06
-0.000142311
7.96372e-06
-0.000149363
7.05151e-06
-0.000155548
6.18511e-06
-0.000160895
5.34673e-06
-0.000165432
4.53776e-06
-0.000169201
3.76833e-06
-0.000172206
3.005e-06
-0.000174469
2.26305e-06
-0.000176026
1.55779e-06
-0.000176892
8.6528e-07
-0.000177102
2.09904e-07
-0.000176571
-5.30444e-07
-0.000175372
-1.19896e-06
-0.000173541
-1.83126e-06
-0.000170944
-2.59662e-06
-0.000167677
-3.26758e-06
-0.000163784
-3.89297e-06
-0.000159012
-4.77225e-06
-0.000153571
-5.4409e-06
-0.000147199
-6.37159e-06
-0.0001401
-7.0993e-06
-0.000132139
-7.96086e-06
-0.000123055
-9.08359e-06
-0.000113011
-1.00445e-05
-0.000101997
-1.10139e-05
-8.97754e-05
-1.22215e-05
-7.65561e-05
-1.32193e-05
-6.21406e-05
-1.44155e-05
-4.67356e-05
-1.5405e-05
-3.04579e-05
-1.62777e-05
-1.30478e-05
-1.74101e-05
5.3418e-06
-1.83896e-05
-1.87655e-05
0.000236911
8.39585e-06
0.000230906
1.20087e-05
0.000222762
1.62847e-05
0.000212509
2.05015e-05
0.000200616
2.37793e-05
0.000187059
2.71049e-05
0.000172232
2.96455e-05
0.000156302
3.18494e-05
0.000139436
3.37192e-05
0.000122017
3.48295e-05
0.000104219
3.55851e-05
8.62384e-05
3.59501e-05
6.83728e-05
3.57252e-05
5.07139e-05
3.53075e-05
3.35496e-05
3.43241e-05
1.68803e-05
3.33283e-05
9.06747e-07
3.1947e-05
-1.43456e-05
3.05022e-05
-2.87992e-05
2.89042e-05
-4.23869e-05
2.71736e-05
-5.50705e-05
2.53657e-05
-6.68605e-05
2.35774e-05
-7.77374e-05
2.17522e-05
-8.77084e-05
1.99418e-05
-9.68031e-05
1.81898e-05
-0.000105029
1.64511e-05
-0.000112432
1.48062e-05
-0.000119047
1.3227e-05
-0.000124883
1.16729e-05
-0.000129982
1.01999e-05
-0.000134369
8.77429e-06
-0.000138073
7.4067e-06
-0.000141116
6.086e-06
-0.000143518
4.80106e-06
-0.000145286
3.52925e-06
-0.000146442
2.31334e-06
-0.00014697
1.06091e-06
-0.000146849
-2.46241e-07
-0.000146085
-1.53509e-06
-0.000144616
-2.93977e-06
-0.000142481
-4.26866e-06
-0.000139607
-5.74103e-06
-0.000136064
-7.07359e-06
-0.000131771
-8.59436e-06
-0.000126684
-1.01727e-05
-0.000120838
-1.16874e-05
-0.000114197
-1.32839e-05
-0.000106591
-1.5214e-05
-9.81217e-05
-1.69411e-05
-8.88197e-05
-1.86118e-05
-7.85208e-05
-2.05998e-05
-6.72857e-05
-2.24693e-05
-5.51091e-05
-2.43561e-05
-4.18057e-05
-2.66026e-05
-2.79484e-05
-2.77199e-05
-1.29803e-05
-2.99418e-05
2.793e-06
-3.15278e-05
1.90687e-05
-3.25444e-05
3.60219e-05
-3.38976e-05
5.33691e-05
-3.46835e-05
7.10729e-05
-3.53965e-05
8.89886e-05
-3.58179e-05
0.000106769
-3.55499e-05
0.000124282
-3.50148e-05
0.000141392
-3.4206e-05
0.000157676
-3.25566e-05
0.000173047
-3.07326e-05
0.00018721
-2.83168e-05
0.000200007
-2.55812e-05
0.000211288
-2.25613e-05
0.000220767
-1.89446e-05
0.000228357
-1.5165e-05
0.000233921
-1.11318e-05
0.000237286
-6.72831e-06
0.000238479
-2.38206e-06
0.000237371
2.20875e-06
0.000234074
6.59018e-06
0.000228566
1.1012e-05
0.000220939
1.52466e-05
0.000211333
1.92055e-05
0.000199908
2.28441e-05
0.000186836
2.61323e-05
0.000172359
2.89408e-05
0.000156676
3.13613e-05
0.000140069
3.32091e-05
0.000122772
3.45899e-05
0.000105031
3.54722e-05
8.71169e-05
3.58252e-05
6.91146e-05
3.6002e-05
5.13555e-05
3.55209e-05
3.38229e-05
3.50595e-05
1.66608e-05
3.43202e-05
-7.09428e-11
3.33178e-05
-1.61076e-05
3.22098e-05
-3.15639e-05
3.09026e-05
-4.62797e-05
2.94193e-05
-6.01788e-05
2.77873e-05
-7.31692e-05
2.5978e-05
-8.52185e-05
2.40989e-05
-9.62699e-05
2.20989e-05
-0.000106299
2.00489e-05
-0.000115301
1.80004e-05
-0.000123283
1.5963e-05
-0.000130304
1.40391e-05
-0.000136368
1.21261e-05
-0.000141546
1.03582e-05
-0.000145864
8.63585e-06
-0.000149358
6.98723e-06
-0.000152081
5.45175e-06
-0.000154048
3.93503e-06
-0.000155296
2.49811e-06
-0.000155831
1.06964e-06
-0.000155657
-3.52276e-07
-0.000154771
-1.77474e-06
-0.000153162
-3.22128e-06
-0.000150825
-4.67607e-06
-0.000147797
-6.06192e-06
-0.00014406
-7.48171e-06
-0.000139539
-9.04294e-06
-0.00013426
-1.05655e-05
-0.000128221
-1.20915e-05
-0.000121458
-1.35368e-05
-0.000113922
-1.50733e-05
-0.000105631
-1.65836e-05
-9.65732e-05
-1.81208e-05
-8.67351e-05
-1.97191e-05
-7.62187e-05
-2.10129e-05
-6.48996e-05
-2.2644e-05
-5.28349e-05
-2.41311e-05
-4.00393e-05
-2.56102e-05
-2.64958e-05
-2.71243e-05
-1.22832e-05
-2.83874e-05
2.62462e-06
-2.98181e-05
1.81051e-05
-3.09722e-05
3.41438e-05
-3.20784e-05
5.06047e-05
-3.29295e-05
6.73331e-05
-3.3452e-05
8.42172e-05
-3.37713e-05
0.000101044
-3.36449e-05
0.000117637
-3.31754e-05
0.000133759
-3.22302e-05
0.000149152
-3.07621e-05
0.00016362
-2.89086e-05
0.000176792
-2.63645e-05
0.000188556
-2.34892e-05
0.000198604
-2.00779e-05
0.000206734
-1.62613e-05
0.000212788
-1.20988e-05
0.000216594
-7.60158e-06
0.000218055
-2.94001e-06
0.000217122
1.87077e-06
0.000213738
6.76642e-06
0.000207897
1.17082e-05
0.00019973
1.63384e-05
0.000189366
2.07308e-05
0.000176991
2.47562e-05
0.000162741
2.85002e-05
0.000146936
3.15979e-05
0.000129814
3.42379e-05
0.000111681
3.62645e-05
9.28229e-05
3.7707e-05
7.35298e-05
3.85794e-05
5.41011e-05
3.88478e-05
3.48175e-05
3.85628e-05
1.58809e-05
3.78756e-05
-2.5167e-06
3.67778e-05
-2.01638e-05
3.52904e-05
-3.69646e-05
3.35967e-05
-5.28091e-05
3.16913e-05
-6.76343e-05
2.96488e-05
-8.14035e-05
2.75378e-05
-9.40337e-05
2.52553e-05
-0.000105612
2.31754e-05
-0.000116083
2.09356e-05
-0.000125521
1.88803e-05
-0.000133915
1.67959e-05
-0.000141325
1.48219e-05
-0.000147773
1.28953e-05
-0.000153281
1.10189e-05
-0.000157955
9.33846e-06
-0.000161793
7.68718e-06
-0.000164874
6.15712e-06
-0.000167232
4.71085e-06
-0.000168924
3.38781e-06
-0.00016999
2.13304e-06
-0.000170423
8.69427e-07
-0.000170346
-1.58345e-07
-0.000169649
-1.39909e-06
-0.000168439
-2.43067e-06
-0.000166661
-3.56527e-06
-0.000164436
-4.45769e-06
-0.000161596
-5.67986e-06
-0.000158142
-6.9188e-06
-0.000154051
-8.1891e-06
-0.000149289
-9.52885e-06
-0.000144026
-1.0529e-05
-0.000138089
-1.18902e-05
-0.000131523
-1.31513e-05
-0.000124257
-1.45366e-05
-0.000116232
-1.60506e-05
-0.000107363
-1.77369e-05
-9.75973e-05
-1.95604e-05
-8.69606e-05
-2.1273e-05
-7.53883e-05
-2.31475e-05
-6.29818e-05
-2.48291e-05
-4.97651e-05
-2.64427e-05
-3.57223e-05
-2.80663e-05
-2.11601e-05
-2.91341e-05
-5.89773e-06
-3.05276e-05
9.89113e-06
-3.15696e-05
2.61391e-05
-3.24856e-05
4.27238e-05
-3.31681e-05
5.95254e-05
-3.35848e-05
7.62738e-05
-3.3496e-05
9.28262e-05
-3.30817e-05
0.000108877
-3.2077e-05
0.000124142
-3.05341e-05
0.000138389
-2.8474e-05
0.000151342
-2.58948e-05
0.000162731
-2.27774e-05
0.000172336
-1.91666e-05
0.000179885
-1.50836e-05
0.000185227
-1.06855e-05
0.00018821
-5.96295e-06
0.000188767
-1.09734e-06
0.000186875
3.78786e-06
0.000182508
8.74722e-06
0.000175708
1.36008e-05
0.000166692
1.80292e-05
0.000155617
2.21536e-05
0.000142712
2.58002e-05
0.000128248
2.89199e-05
0.000112488
3.15298e-05
9.56886e-05
3.35805e-05
7.81828e-05
3.50034e-05
6.02472e-05
3.58659e-05
4.21663e-05
3.61578e-05
2.4167e-05
3.59836e-05
6.49822e-06
3.53276e-05
-1.06632e-05
3.43315e-05
-2.71942e-05
3.30633e-05
-4.29396e-05
3.14851e-05
-5.78465e-05
2.98099e-05
-7.18522e-05
2.80101e-05
-8.49383e-05
2.61714e-05
-9.70599e-05
2.42456e-05
-0.000108269
2.24283e-05
-0.000118656
2.07686e-05
-0.000128173
1.90294e-05
-0.000136957
1.75705e-05
-0.00014504
1.61559e-05
-0.000152422
1.47644e-05
-0.000159109
1.33772e-05
-0.00016509
1.1956e-05
-0.000170315
1.04375e-05
-0.000174777
8.91613e-06
-0.000178441
7.32976e-06
-0.000181332
5.77568e-06
-0.000183474
4.28696e-06
-0.00018492
2.89509e-06
-0.000185748
1.65545e-06
-0.000185957
4.22502e-07
-0.000185557
-7.67147e-07
-0.000184645
-1.8408e-06
-0.000183112
-3.06612e-06
-0.00018098
-4.24977e-06
-0.000178283
-5.40556e-06
-0.000174951
-6.66069e-06
-0.000170955
-7.98807e-06
-0.000166238
-9.44039e-06
-0.000160804
-1.08781e-05
-0.000154583
-1.24257e-05
-0.000147457
-1.42556e-05
-0.000139556
-1.58043e-05
-0.000130736
-1.76379e-05
-0.000121025
-1.9426e-05
-0.000110313
-2.14209e-05
-9.86111e-05
-2.34068e-05
-8.57664e-05
-2.56928e-05
-7.16907e-05
-2.8154e-05
-5.64602e-05
-3.04585e-05
-3.99615e-05
-3.2992e-05
-2.22171e-05
-3.54859e-05
-3.4091e-06
-3.76042e-05
1.64851e-05
-3.97739e-05
3.6903e-05
-4.08214e-05
5.73293e-05
-4.08364e-05
7.7589e-05
-4.05022e-05
9.72202e-05
-3.9251e-05
0.000116066
-3.76739e-05
0.000133872
-3.55907e-05
0.000150223
-3.26874e-05
0.000164988
-2.95126e-05
0.000177923
-2.58516e-05
0.000188632
-2.14065e-05
0.000197045
-1.68151e-05
0.000202918
-1.17344e-05
0.00020598
-6.12401e-06
0.000206292
-6.2557e-07
0.000204286
4.01211e-06
0.00019988
8.81477e-06
0.000192992
1.37714e-05
0.000183597
1.8781e-05
0.000172063
2.30561e-05
0.000158583
2.69448e-05
0.000143294
3.05615e-05
0.000126734
3.31039e-05
0.000109117
3.52245e-05
9.07808e-05
3.66559e-05
7.20676e-05
3.74137e-05
5.31579e-05
3.78097e-05
3.42978e-05
3.77021e-05
1.59339e-05
3.67218e-05
-2.10891e-06
3.60883e-05
-1.94238e-05
3.46296e-05
-3.5975e-05
3.3097e-05
-5.16437e-05
3.13324e-05
-6.64146e-05
2.95384e-05
-8.02127e-05
2.75934e-05
-9.30143e-05
2.5602e-05
-0.000104835
2.36465e-05
-0.000115653
2.16384e-05
-0.00012549
1.96624e-05
-0.000134379
1.77747e-05
-0.00014234
1.59238e-05
-0.000149393
1.41054e-05
-0.000155575
1.23664e-05
-0.00016092
1.06922e-05
-0.000165462
9.07984e-06
-0.000169233
7.53947e-06
-0.000172238
6.00936e-06
-0.000174501
4.52614e-06
-0.000176063
3.12033e-06
-0.000176927
1.72948e-06
-0.000177139
4.21456e-07
-0.000176608
-1.06141e-06
-0.000175408
-2.39901e-06
-0.000173577
-3.66185e-06
-0.00017098
-5.19358e-06
-0.000167714
-6.5343e-06
-0.000163821
-7.78561e-06
-0.00015905
-9.54359e-06
-0.000153612
-1.08784e-05
-0.00014724
-1.27435e-05
-0.000140144
-1.4196e-05
-0.000132179
-1.59259e-05
-0.000123102
-1.81601e-05
-0.000113057
-2.00894e-05
-0.000102044
-2.20269e-05
-8.98201e-05
-2.44456e-05
-7.65993e-05
-2.64401e-05
-6.21787e-05
-2.88362e-05
-4.67715e-05
-3.08121e-05
-3.04915e-05
-3.25578e-05
-1.30799e-05
-3.48217e-05
5.31961e-06
-3.67891e-05
-3.75369e-05
0.000237085
1.26002e-05
0.000231072
1.80222e-05
0.000222916
2.44407e-05
0.000212648
3.07695e-05
0.000200738
3.56885e-05
0.000187165
4.06787e-05
0.000172317
4.44931e-05
0.000156367
4.77994e-05
0.000139481
5.06052e-05
0.000122042
5.22685e-05
0.000104229
5.33978e-05
8.62285e-05
5.39509e-05
6.83537e-05
5.36001e-05
5.0678e-05
5.29832e-05
3.35071e-05
5.1495e-05
1.68202e-05
5.00152e-05
8.45625e-07
4.79215e-05
-1.4412e-05
4.57598e-05
-2.88704e-05
4.33627e-05
-4.24613e-05
4.07645e-05
-5.51471e-05
3.80515e-05
-6.69384e-05
3.53686e-05
-7.78155e-05
3.26293e-05
-8.77873e-05
2.99135e-05
-9.6882e-05
2.72845e-05
-0.000105108
2.46774e-05
-0.000112511
2.22091e-05
-0.000119126
1.98414e-05
-0.000124958
1.75054e-05
-0.000130057
1.52984e-05
-0.000134442
1.31598e-05
-0.000138144
1.11086e-05
-0.000141185
9.12745e-06
-0.000143587
7.2026e-06
-0.000145351
5.29337e-06
-0.000146508
3.47007e-06
-0.000147038
1.59114e-06
-0.000146923
-3.61029e-07
-0.00014616
-2.29863e-06
-0.000144685
-4.41482e-06
-0.000142555
-6.39803e-06
-0.000139679
-8.61704e-06
-0.000136116
-1.06365e-05
-0.000131831
-1.28793e-05
-0.000126742
-1.52623e-05
-0.000120893
-1.75361e-05
-0.000114256
-1.99212e-05
-0.000106652
-2.28181e-05
-9.81871e-05
-2.54061e-05
-8.88939e-05
-2.7905e-05
-7.85982e-05
-3.08956e-05
-6.73604e-05
-3.3707e-05
-5.5188e-05
-3.65286e-05
-4.18768e-05
-3.99138e-05
-2.80125e-05
-4.15842e-05
-1.30455e-05
-4.49089e-05
2.73735e-06
-4.73107e-05
1.90219e-05
-4.8829e-05
3.59871e-05
-5.08628e-05
5.33493e-05
-5.20458e-05
7.10704e-05
-5.31177e-05
8.90079e-05
-5.37554e-05
0.000106809
-5.3351e-05
0.000124339
-5.25449e-05
0.000141469
-5.13358e-05
0.000157769
-4.88566e-05
0.000173157
-4.61213e-05
0.000187337
-4.24967e-05
0.000200145
-3.83886e-05
0.000211439
-3.38556e-05
0.000220926
-2.84313e-05
0.000228524
-2.27633e-05
0.000234094
-1.67022e-05
0.000237462
-1.00955e-05
0.000238662
-3.58244e-06
0.000237544
3.32625e-06
0.000234237
9.89781e-06
0.000228725
1.65237e-05
0.00022109
2.28823e-05
0.000211472
2.88236e-05
0.00020003
3.42855e-05
0.000186941
3.9222e-05
0.000172449
4.34325e-05
0.000156745
4.70655e-05
0.000140117
4.98373e-05
0.000122798
5.1909e-05
0.000105036
5.32343e-05
8.71155e-05
5.37462e-05
6.90934e-05
5.40243e-05
5.13094e-05
5.3305e-05
3.3775e-05
5.25941e-05
1.6596e-05
5.14993e-05
-7.58642e-08
4.99897e-05
-1.61944e-05
4.83283e-05
-3.16659e-05
4.63741e-05
-4.63981e-05
4.41514e-05
-6.03156e-05
4.17048e-05
-7.33243e-05
3.89866e-05
-8.53904e-05
3.61649e-05
-9.64505e-05
3.31589e-05
-0.000106487
3.00855e-05
-0.000115502
2.70147e-05
-0.000123505
2.39662e-05
-0.00013053
2.10645e-05
-0.000136592
1.8188e-05
-0.000141762
1.55278e-05
-0.00014608
1.29543e-05
-0.000149568
1.04751e-05
-0.000152272
8.15516e-06
-0.000154267
5.93012e-06
-0.000155509
3.74035e-06
-0.000156029
1.58927e-06
-0.000155851
-5.29726e-07
-0.000154958
-2.66823e-06
-0.000153319
-4.85997e-06
-0.000151027
-6.96855e-06
-0.000148022
-9.06682e-06
-0.000144268
-1.12357e-05
-0.000139748
-1.35629e-05
-0.000134474
-1.58402e-05
-0.000128435
-1.81305e-05
-0.000121663
-2.0309e-05
-0.000114126
-2.26101e-05
-0.000105828
-2.48815e-05
-9.6784e-05
-2.71648e-05
-8.69684e-05
-2.95347e-05
-7.64255e-05
-3.15559e-05
-6.51071e-05
-3.39625e-05
-5.30343e-05
-3.62039e-05
-4.02407e-05
-3.84038e-05
-2.67112e-05
-4.06538e-05
-1.24785e-05
-4.26202e-05
2.42794e-06
-4.47246e-05
1.79159e-05
-4.64602e-05
3.39548e-05
-4.81174e-05
5.04205e-05
-4.93953e-05
6.71651e-05
-5.01966e-05
8.40557e-05
-5.06619e-05
0.000100897
-5.04864e-05
0.000117512
-4.97906e-05
0.000133651
-4.83692e-05
0.000149064
-4.61752e-05
0.000163552
-4.33962e-05
0.000176747
-3.95593e-05
0.000188514
-3.52566e-05
0.000198604
-3.01682e-05
0.000206744
-2.4401e-05
0.000212814
-1.81686e-05
0.000216643
-1.14305e-05
0.000218088
-4.38525e-06
0.000217135
2.823e-06
0.000213724
1.0178e-05
0.000207908
1.75234e-05
0.00019975
2.4497e-05
0.000189374
3.11064e-05
0.000176948
3.71823e-05
0.000162705
4.27432e-05
0.000146884
4.74183e-05
0.000129745
5.13769e-05
0.000111586
5.44237e-05
9.2714e-05
5.65792e-05
7.34303e-05
5.78632e-05
5.39517e-05
5.83263e-05
3.46347e-05
5.78798e-05
1.56937e-05
5.68166e-05
-2.73015e-06
5.52017e-05
-2.03925e-05
5.29528e-05
-3.72112e-05
5.04154e-05
-5.30522e-05
4.75323e-05
-6.78776e-05
4.44742e-05
-8.16377e-05
4.12979e-05
-9.42954e-05
3.79131e-05
-0.000105864
3.47441e-05
-0.000116343
3.14144e-05
-0.000125772
2.83091e-05
-0.000134165
2.51889e-05
-0.000141577
2.22341e-05
-0.000148025
1.93434e-05
-0.000153515
1.65089e-05
-0.000158213
1.40366e-05
-0.000162026
1.15003e-05
-0.000165111
9.24172e-06
-0.000167458
7.05828e-06
-0.000169147
5.07663e-06
-0.000170203
3.18901e-06
-0.000170625
1.29089e-06
-0.000170549
-2.3403e-07
-0.000169855
-2.09257e-06
-0.000168596
-3.6901e-06
-0.00016692
-5.24154e-06
-0.000164652
-6.72518e-06
-0.000161808
-8.524e-06
-0.000158349
-1.03778e-05
-0.000154256
-1.22819e-05
-0.000149541
-1.42446e-05
-0.000144239
-1.58309e-05
-0.000138312
-1.78172e-05
-0.000131749
-1.97138e-05
-0.000124487
-2.17993e-05
-0.000116465
-2.40721e-05
-0.000107565
-2.66369e-05
-9.78296e-05
-2.92961e-05
-8.71852e-05
-3.19175e-05
-7.56283e-05
-3.47044e-05
-6.3212e-05
-3.72455e-05
-5.00044e-05
-3.96503e-05
-3.59908e-05
-4.20799e-05
-2.13913e-05
-4.37337e-05
-6.13457e-06
-4.57844e-05
9.67529e-06
-4.73795e-05
2.59443e-05
-4.87546e-05
4.25314e-05
-4.97554e-05
5.93274e-05
-5.03808e-05
7.61098e-05
-5.02785e-05
9.26867e-05
-4.96586e-05
0.000108739
-4.81289e-05
0.000124046
-4.58413e-05
0.000138326
-4.27545e-05
0.000151304
-3.88733e-05
0.000162707
-3.41795e-05
0.000172315
-2.87751e-05
0.00017991
-2.26792e-05
0.00018527
-1.60448e-05
0.000188252
-8.94589e-06
0.000188815
-1.66044e-06
0.000186903
5.70016e-06
0.000182517
1.31328e-05
0.000175739
2.03787e-05
0.00016671
2.70586e-05
0.000155615
3.32485e-05
0.000142688
3.87271e-05
0.000128208
4.34003e-05
0.000112423
4.73147e-05
9.55837e-05
5.04193e-05
7.80568e-05
5.25303e-05
6.01049e-05
5.38178e-05
4.20092e-05
5.42534e-05
2.39982e-05
5.39946e-05
6.30057e-06
5.30252e-05
-1.08724e-05
5.15044e-05
-2.74085e-05
4.95995e-05
-4.31634e-05
4.724e-05
-5.80698e-05
4.47163e-05
-7.20753e-05
4.20157e-05
-8.51591e-05
3.92552e-05
-9.73019e-05
3.63885e-05
-0.000108508
3.36341e-05
-0.000118878
3.11388e-05
-0.000128408
2.85599e-05
-0.000137183
2.63456e-05
-0.000145247
2.42194e-05
-0.000152626
2.21444e-05
-0.000159325
2.00763e-05
-0.000165313
1.79441e-05
-0.000170539
1.56631e-05
-0.000174996
1.3374e-05
-0.000178653
1.09869e-05
-0.000181544
8.66618e-06
-0.000183667
6.41021e-06
-0.000185105
4.33333e-06
-0.00018591
2.4609e-06
-0.000186098
6.11362e-07
-0.000185686
-1.17979e-06
-0.000184767
-2.75907e-06
-0.000183227
-4.60641e-06
-0.000181092
-6.38405e-06
-0.000178386
-8.11125e-06
-0.000175051
-9.99529e-06
-0.000171052
-1.1987e-05
-0.000166333
-1.41597e-05
-0.000160918
-1.62929e-05
-0.00015468
-1.86632e-05
-0.00014756
-2.13761e-05
-0.000139656
-2.37085e-05
-0.000130833
-2.64605e-05
-0.000121133
-2.91264e-05
-0.000110422
-3.21312e-05
-9.8729e-05
-3.51001e-05
-8.58903e-05
-3.85315e-05
-7.18244e-05
-4.22199e-05
-5.66237e-05
-4.56592e-05
-4.00877e-05
-4.9528e-05
-2.23371e-05
-5.32366e-05
-3.50944e-06
-5.64319e-05
1.6411e-05
-5.96944e-05
3.68594e-05
-6.12699e-05
5.73141e-05
-6.12912e-05
7.76013e-05
-6.07895e-05
9.72605e-05
-5.89102e-05
0.000116133
-5.65462e-05
0.000133967
-5.34246e-05
0.000150342
-4.90632e-05
0.000165132
-4.43024e-05
0.00017809
-3.88099e-05
0.000188808
-3.21239e-05
0.000197227
-2.52344e-05
0.000203071
-1.7578e-05
0.000206172
-9.22562e-06
0.000206491
-9.44725e-07
0.000204485
6.0185e-06
0.000200084
1.32155e-05
0.000193186
2.06695e-05
0.000183773
2.81944e-05
0.000172219
3.46095e-05
0.000158714
4.04499e-05
0.000143391
4.58851e-05
0.000126816
4.96789e-05
0.000109178
5.28616e-05
9.08129e-05
5.50214e-05
7.20805e-05
5.61461e-05
5.31564e-05
5.67338e-05
3.42892e-05
5.65693e-05
1.58898e-05
5.51212e-05
-2.15836e-06
5.41365e-05
-1.9478e-05
5.19493e-05
-3.60328e-05
4.96517e-05
-5.17027e-05
4.70023e-05
-6.64734e-05
4.43091e-05
-8.02715e-05
4.13916e-05
-9.30708e-05
3.84013e-05
-0.000104891
3.54666e-05
-0.000115708
3.24559e-05
-0.000125552
2.95059e-05
-0.000134435
2.66583e-05
-0.000142391
2.38797e-05
-0.000149445
2.11594e-05
-0.000155628
1.85486e-05
-0.000160971
1.60353e-05
-0.000165509
1.36184e-05
-0.000169279
1.1309e-05
-0.000172283
9.01297e-06
-0.000174545
6.7882e-06
-0.000176119
4.69431e-06
-0.00017698
2.59129e-06
-0.000177188
6.29132e-07
-0.000176658
-1.59162e-06
-0.000175459
-3.59776e-06
-0.00017363
-5.49068e-06
-0.000171035
-7.78921e-06
-0.000167769
-9.7998e-06
-0.000163878
-1.16772e-05
-0.00015911
-1.43113e-05
-0.000153676
-1.63123e-05
-0.000147306
-1.91138e-05
-0.000140213
-2.12884e-05
-0.000132243
-2.38963e-05
-0.000123178
-2.72252e-05
-0.000113133
-3.01336e-05
-0.000102124
-3.30367e-05
-8.98976e-05
-3.66717e-05
-7.66763e-05
-3.96614e-05
-6.22488e-05
-4.32637e-05
-4.68395e-05
-4.62215e-05
-3.05564e-05
-4.88408e-05
-1.31435e-05
-5.22346e-05
5.27592e-06
-5.52085e-05
-5.63198e-05
0.000237347
1.68143e-05
0.00023132
2.40487e-05
0.000223146
3.26146e-05
0.000212856
4.10591e-05
0.000200923
4.76222e-05
0.000187323
5.42783e-05
0.000172446
5.93705e-05
0.000156466
6.37796e-05
0.000139549
6.75221e-05
0.00012208
6.97372e-05
0.000104244
7.12332e-05
8.62147e-05
7.19805e-05
6.83249e-05
7.14899e-05
5.0625e-05
7.06831e-05
3.34434e-05
6.86767e-05
1.67315e-05
6.67271e-05
7.53697e-07
6.38993e-05
-1.45129e-05
6.10263e-05
-2.89787e-05
5.78285e-05
-4.2574e-05
5.43598e-05
-5.52634e-05
5.07409e-05
-6.7057e-05
4.71622e-05
-7.79345e-05
4.35068e-05
-8.79049e-05
3.98839e-05
-9.69994e-05
3.63791e-05
-0.000105225
3.29026e-05
-0.000112629
2.96135e-05
-0.000119245
2.64573e-05
-0.000125071
2.3332e-05
-0.000130167
2.03942e-05
-0.000134551
1.75439e-05
-0.000138252
1.48088e-05
-0.000141292
1.21675e-05
-0.000143691
9.60217e-06
-0.000145455
7.05719e-06
-0.000146611
4.62619e-06
-0.000147143
2.12309e-06
-0.000147022
-4.82122e-07
-0.000146241
-3.08026e-06
-0.000144766
-5.88913e-06
-0.000142639
-8.52489e-06
-0.000139766
-1.14906e-05
-0.000136197
-1.4205e-05
-0.000131924
-1.71528e-05
-0.000126831
-2.03554e-05
-0.00012098
-2.33873e-05
-0.000114347
-2.65539e-05
-0.000106746
-3.04188e-05
-9.82871e-05
-3.38652e-05
-8.90066e-05
-3.71855e-05
-7.8715e-05
-4.11872e-05
-6.74739e-05
-4.49481e-05
-5.53073e-05
-4.86952e-05
-4.19856e-05
-5.32356e-05
-2.80806e-05
-5.54891e-05
-1.31446e-05
-5.9845e-05
2.65303e-06
-6.31084e-05
1.895e-05
-6.5126e-05
3.59334e-05
-6.78463e-05
5.33177e-05
-6.943e-05
7.1067e-05
-7.08671e-05
8.90355e-05
-7.17239e-05
0.000106867
-7.11825e-05
0.000124425
-7.0103e-05
0.000141586
-6.84971e-05
0.000157911
-6.51817e-05
0.000173328
-6.15378e-05
0.000187525
-5.66939e-05
0.000200352
-5.12156e-05
0.000211664
-4.51678e-05
0.000221165
-3.79323e-05
0.000228773
-3.03716e-05
0.000234356
-2.22852e-05
0.000237721
-1.34605e-05
0.000238922
-4.78363e-06
0.000237794
4.4548e-06
0.000234482
1.32092e-05
0.000228963
2.20434e-05
0.00022131
3.05344e-05
0.000211676
3.84582e-05
0.000200211
4.5751e-05
0.000187093
5.23398e-05
0.000172576
5.79497e-05
0.000156839
6.28023e-05
0.000140179
6.64974e-05
0.000122834
6.9254e-05
0.000105034
7.10345e-05
8.7068e-05
7.17126e-05
6.90376e-05
7.20548e-05
5.12253e-05
7.11174e-05
3.36751e-05
7.01443e-05
1.64745e-05
6.86999e-05
-2.27213e-07
6.66914e-05
-1.63683e-05
6.44694e-05
-3.18656e-05
6.18713e-05
-4.66265e-05
5.89122e-05
-6.057e-05
5.56482e-05
-7.3595e-05
5.20115e-05
-8.56783e-05
4.82481e-05
-9.67532e-05
4.42338e-05
-0.00010682
4.01516e-05
-0.000115845
3.60399e-05