/*--------------------------------*- C++ -*----------------------------------*\
| =========                 |                                                 |
| \\      /  F ield         | OpenFOAM: The Open Source CFD Toolbox           |
|  \\    /   O peration     | Version:  3.0.1                                 |
|   \\  /    A nd           | Web:      www.OpenFOAM.org                      |
|    \\/     M anipulation  |                                                 |
\*---------------------------------------------------------------------------*/
FoamFile
{
    version     2.0;
    format      ascii;
    class       volScalarField;
    location    "57.6";
    object      p_rgh;
}
// * * * * * * * * * * * * * * * * * * * * * * * * * * * * * * * * * * * * * //

dimensions      [1 -1 -2 0 0 0 0];

internalField   nonuniform List<scalar> 
21420
(
-324.073
-319.387
-313.288
-305.765
-296.791
-286.302
-274.251
-260.579
-245.245
-228.218
-209.463
-188.953
-166.687
-142.681
-116.967
-89.6077
-60.6884
-30.3328
1.2711
33.8941
67.4339
101.532
135.857
170.081
203.803
236.64
268.172
297.983
325.707
350.954
373.348
392.58
408.365
420.468
428.71
432.971
433.098
429.258
421.426
409.71
394.31
375.468
353.456
328.581
301.227
271.769
240.589
208.119
174.755
140.885
106.91
73.1816
40.0202
7.86832
-22.7902
-52.4801
-80.9022
-107.842
-133.181
-156.841
-178.77
-198.96
-217.401
-234.116
-249.131
-262.472
-274.178
-284.279
-292.8
-299.77
-305.207
-309.127
-311.544
-312.422
-311.773
-309.682
-306.077
-300.951
-294.284
-286.057
-276.264
-264.905
-251.965
-237.439
-221.342
-203.657
-184.391
-163.57
-141.199
-117.296
-91.9136
-65.1099
-36.9604
-7.5782
22.9198
54.3036
86.3671
118.861
151.495
183.954
215.9
246.974
276.811
305.043
331.308
355.255
376.552
394.894
410.005
421.649
429.631
433.807
433.989
430.286
422.65
411.112
395.837
377.015
354.901
329.799
302.058
272.062
240.222
206.964
172.721
137.919
102.971
68.263
34.155
0.969993
-31.0123
-61.5505
-90.4471
-117.549
-142.744
-165.959
-187.155
-206.326
-223.489
-238.687
-251.982
-263.445
-273.156
-281.202
-287.665
-292.616
-296.123
-298.259
-299.051
-298.518
-296.723
-293.674
-289.368
-283.804
-276.967
-268.836
-259.381
-248.567
-236.359
-222.714
-207.591
-190.949
-172.759
-152.994
-131.643
-108.717
-84.2405
-58.269
-30.8815
-2.18615
27.6723
58.5329
90.1428
122.244
154.549
186.729
218.419
249.23
278.751
306.562
332.24
355.372
375.568
392.47
405.765
415.197
420.572
421.692
418.638
411.344
399.924
384.543
365.451
342.953
317.412
289.24
258.889
226.826
193.528
159.465
125.084
90.7982
56.9845
23.9689
-7.96348
-38.563
-67.6276
-94.9991
-120.568
-144.268
-166.072
-185.995
-204.07
-220.347
-234.89
-247.763
-259.028
-268.745
-276.97
-283.755
-289.147
-293.181
-295.895
-297.318
-297.449
-296.282
-293.863
-290.154
-285.143
-278.811
-271.134
-262.087
-251.643
-239.774
-226.459
-211.676
-195.411
-177.653
-158.396
-137.643
-115.402
-91.6965
-66.5728
-40.094
-12.3607
16.4994
46.3268
76.9249
108.048
139.396
170.657
201.483
231.49
260.273
287.413
312.49
335.092
354.83
371.346
384.325
393.504
398.688
399.669
396.524
389.218
377.814
362.518
343.581
321.324
296.116
268.377
238.562
207.139
174.595
141.432
108.15
75.2975
43.0271
11.4909
-19.032
-48.2591
-75.9906
-102.096
-126.481
-149.107
-169.947
-188.995
-206.263
-221.768
-235.557
-247.682
-258.206
-267.207
-274.763
-280.959
-285.882
-289.605
-292.205
-293.729
-294.19
-293.769
-292.33
-289.843
-286.282
-281.565
-275.595
-268.266
-259.438
-248.993
-236.8
-222.742
-206.752
-188.771
-168.773
-146.787
-122.875
-97.1417
-69.7505
-40.8904
-10.7993
20.1666
51.5935
83.5115
115.407
146.896
177.56
206.998
234.857
260.759
284.343
305.319
323.419
338.412
350.134
358.468
363.354
364.69
362.58
357.081
348.333
336.461
321.66
304.131
284.115
261.848
237.584
211.608
184.192
155.609
126.166
96.1489
65.9456
36.151
18.0404
-9.56883
-36.8537
-63.1452
-324.128
-319.442
-313.345
-305.824
-296.852
-286.365
-274.317
-260.648
-245.317
-228.292
-209.539
-189.03
-166.766
-142.76
-117.045
-89.6847
-60.7624
-30.4025
1.20743
33.8375
67.3871
101.496
135.835
170.074
203.812
236.666
268.216
298.045
325.786
351.05
373.461
392.707
408.504
420.616
428.865
433.129
433.265
429.407
421.573
409.849
394.437
375.581
353.554
328.662
301.29
271.814
240.616
208.129
174.749
140.863
106.875
73.1341
39.9623
7.80835
-22.8576
-52.5532
-80.979
-107.921
-133.261
-156.921
-178.849
-199.037
-217.477
-234.19
-249.202
-262.541
-274.245
-284.345
-292.864
-299.833
-305.269
-309.189
-311.606
-312.482
-311.837
-309.746
-306.141
-301.016
-294.35
-286.124
-276.332
-264.975
-252.036
-237.511
-221.415
-203.731
-184.467
-163.647
-141.277
-117.374
-91.9915
-65.1864
-37.0344
-7.6479
22.8549
54.2462
86.3188
118.823
151.469
183.942
215.903
246.992
276.845
305.094
331.376
355.338
376.65
395.005
410.128
421.783
429.772
433.954
434.14
430.429
422.791
411.246
395.961
377.126
354.996
329.877
302.117
272.103
240.243
206.967
172.706
137.888
102.925
68.2042
34.085
0.890618
-31.099
-61.6429
-90.5434
-117.648
-142.843
-166.058
-187.253
-206.422
-223.581
-238.776
-252.067
-263.526
-273.233
-281.276
-287.735
-292.683
-296.189
-298.323
-299.112
-298.577
-296.783
-293.735
-289.429
-283.865
-277.03
-268.9
-259.446
-248.635
-236.429
-222.787
-207.665
-191.026
-172.838
-153.074
-131.725
-108.799
-84.3218
-58.3488
-30.9583
-2.25895
27.6053
58.4727
90.0918
122.204
154.522
186.716
218.422
249.251
278.79
306.62
332.317
355.467
375.68
392.597
405.905
415.347
420.728
421.857
418.791
411.495
400.067
384.674
365.567
343.051
317.49
289.298
258.926
226.842
193.525
159.444
125.047
90.7473
56.9217
23.8961
-8.04437
-38.6499
-67.7186
-95.0924
-120.662
-144.361
-166.163
-186.083
-204.155
-220.428
-234.967
-247.837
-259.099
-268.813
-277.036
-283.819
-289.209
-293.242
-295.955
-297.378
-297.506
-296.341
-293.923
-290.215
-285.204
-278.873
-271.197
-262.153
-251.709
-239.842
-226.529
-211.747
-195.484
-177.727
-158.471
-137.718
-115.478
-91.7723
-66.6474
-40.1664
-12.4298
16.4353
46.2693
76.876
108.009
139.369
170.644
201.485
231.51
260.311
287.47
312.565
335.186
354.941
371.473
384.464
393.654
398.844
399.832
396.679
389.369
377.957
362.649
343.697
321.422
296.195
268.436
238.601
207.158
174.594
141.413
108.114
75.2598
42.9789
11.4312
-19.0995
-48.332
-76.0669
-102.174
-126.56
-149.186
-170.025
-189.071
-206.337
-221.84
-235.625
-247.747
-258.267
-267.265
-274.818
-281.01
-285.93
-289.65
-292.248
-293.77
-294.228
-293.81
-292.371
-289.886
-286.328
-281.614
-275.649
-268.325
-259.503
-249.064
-236.876
-222.823
-206.836
-188.857
-168.86
-146.874
-122.96
-97.2229
-69.8263
-40.9587
-10.8584
20.1184
51.5564
83.4882
115.399
146.903
177.584
207.039
234.915
260.833
284.432
305.422
323.533
338.536
350.264
358.602
363.489
364.831
362.71
357.208
348.453
336.572
321.76
304.22
284.191
261.912
237.636
211.647
184.219
155.624
126.169
96.141
65.9256
36.1179
17.9953
-9.62686
-36.9206
-63.2188
-324.237
-319.553
-313.459
-305.942
-296.974
-286.492
-274.449
-260.785
-245.459
-228.439
-209.69
-189.185
-166.922
-142.918
-117.202
-89.8386
-60.9105
-30.5419
1.08025
33.7243
67.2937
101.426
135.791
170.06
203.83
236.717
268.303
298.168
325.945
351.244
373.687
392.961
408.783
420.914
429.175
433.444
433.595
429.71
421.867
410.127
394.693
375.808
353.749
328.823
301.416
271.904
240.67
208.149
174.736
140.82
106.804
73.0393
39.8467
7.68865
-22.9924
-52.6991
-81.1324
-108.079
-133.421
-157.08
-179.006
-199.191
-217.627
-234.335
-249.342
-262.677
-274.377
-284.473
-292.988
-299.955
-305.39
-309.309
-311.724
-312.597
-311.958
-309.866
-306.262
-301.14
-294.475
-286.249
-276.46
-265.105
-252.167
-237.645
-221.551
-203.868
-184.606
-163.788
-141.418
-117.515
-92.1322
-65.3241
-37.1666
-7.77137
22.7411
54.1478
86.2387
118.764
151.435
183.935
215.925
247.045
276.93
305.212
331.525
355.519
376.861
395.243
410.389
422.063
430.067
434.257
434.459
430.731
423.086
411.528
396.222
377.36
355.2
330.046
302.25
272.198
240.301
206.987
172.692
137.841
102.848
68.102
33.9607
0.747812
-31.2563
-61.8112
-90.7191
-117.828
-143.025
-166.238
-187.43
-206.595
-223.748
-238.936
-252.219
-263.669
-273.369
-281.404
-287.856
-292.799
-296.3
-298.431
-299.214
-298.678
-296.885
-293.835
-289.529
-283.967
-277.134
-269.008
-259.557
-248.75
-236.549
-222.911
-207.794
-191.159
-172.976
-153.215
-131.868
-108.943
-84.4649
-58.4891
-31.093
-2.38573
27.4898
58.3707
90.0078
122.142
154.485
186.708
218.446
249.308
278.884
306.751
332.486
355.672
375.919
392.867
406.2
415.661
421.054
422.201
419.112
411.812
400.366
384.949
365.811
343.26
317.66
289.427
259.013
226.889
193.533
159.416
124.987
90.659
56.8096
23.764
-8.19243
-38.8099
-67.8867
-95.265
-120.835
-144.532
-166.33
-186.244
-204.309
-220.575
-235.107
-247.971
-259.226
-268.935
-277.153
-283.932
-289.318
-293.348
-296.059
-297.481
-297.604
-296.442
-294.025
-290.318
-285.309
-278.981
-271.308
-262.266
-251.826
-239.962
-226.652
-211.873
-195.612
-177.858
-158.605
-137.853
-115.613
-91.9076
-66.7801
-40.2951
-12.5519
16.323
46.1701
76.7934
107.947
139.33
170.633
201.505
231.564
260.401
287.597
312.731
335.387
355.177
371.739
384.756
393.965
399.165
400.169
397
389.681
378.252
362.919
343.935
321.625
296.36
268.561
238.684
207.201
174.599
141.378
108.045
75.189
42.8857
11.3148
-19.2318
-48.4751
-76.2171
-102.328
-126.716
-149.341
-170.179
-189.221
-206.483
-221.981
-235.761
-247.876
-258.389
-267.38
-274.925
-281.111
-286.024
-289.739
-292.333
-293.852
-294.306
-293.89
-292.453
-289.97
-286.418
-281.713
-275.758
-268.444
-259.634
-249.205
-237.027
-222.983
-207.003
-189.03
-169.034
-147.048
-123.13
-97.385
-69.9774
-41.0951
-10.9764
20.0223
51.4823
83.4418
115.382
146.919
177.633
207.121
235.031
260.981
284.61
305.628
323.762
338.783
350.525
358.871
363.759
365.111
362.969
357.462
348.691
336.792
321.96
304.397
284.345
262.041
237.739
211.726
184.272
155.654
126.176
96.1251
65.8857
36.0517
17.9053
-9.74296
-37.0546
-63.366
-324.401
-319.72
-313.631
-306.118
-297.157
-286.683
-274.648
-260.992
-245.673
-228.66
-209.917
-189.417
-167.157
-143.154
-117.437
-90.0695
-61.1329
-30.7511
0.889159
33.5544
67.1533
101.32
135.725
170.039
203.856
236.795
268.434
298.352
326.183
351.534
374.026
393.343
409.201
421.36
429.64
433.918
434.085
430.17
422.31
410.545
395.076
376.149
354.043
329.066
301.606
272.039
240.752
208.178
174.717
140.756
106.698
72.897
39.6733
7.50871
-23.1949
-52.9183
-81.3626
-108.316
-133.661
-157.319
-179.242
-199.422
-217.852
-234.553
-249.553
-262.881
-274.575
-284.665
-293.176
-300.139
-305.571
-309.489
-311.901
-312.773
-312.14
-310.047
-306.445
-301.324
-294.662
-286.438
-276.652
-265.299
-252.364
-237.845
-221.753
-204.073
-184.814
-163.998
-141.63
-117.727
-92.3425
-65.5297
-37.3639
-7.95559
22.572
54.0017
86.1201
118.678
151.385
183.926
215.96
247.127
277.06
305.39
331.752
355.793
377.179
395.602
410.784
422.488
430.513
434.713
434.937
431.19
423.533
411.954
396.616
377.715
355.509
330.303
302.453
272.344
240.39
207.021
172.673
137.774
102.736
67.9512
33.7768
0.536249
-31.4897
-62.061
-90.9801
-118.095
-143.295
-166.507
-187.694
-206.851
-223.996
-239.173
-252.445
-263.882
-273.57
-281.595
-288.036
-292.97
-296.465
-298.588
-299.363
-298.829
-297.034
-293.983
-289.678
-284.118
-277.289
-269.167
-259.721
-248.921
-236.726
-223.095
-207.986
-191.358
-173.18
-153.424
-132.081
-109.157
-84.6775
-58.6975
-31.2931
-2.57406
27.3183
58.2197
89.8839
122.051
154.431
186.697
218.483
249.397
279.028
306.951
332.742
355.983
376.281
393.275
406.646
416.135
421.545
422.714
419.601
412.291
400.818
385.364
366.18
343.575
317.917
289.623
259.147
226.962
193.548
159.377
124.899
90.5286
56.6435
23.5679
-8.41246
-39.048
-68.1369
-95.5218
-121.093
-144.787
-166.579
-186.484
-204.538
-220.794
-235.315
-248.169
-259.415
-269.115
-277.326
-284.098
-289.479
-293.505
-296.212
-297.632
-297.75
-296.594
-294.177
-290.472
-285.466
-279.141
-271.472
-262.435
-252
-240.141
-226.834
-212.059
-195.803
-178.053
-158.803
-138.054
-115.815
-92.1088
-66.9776
-40.4867
-12.7334
16.1564
46.0228
76.6708
107.855
139.274
170.618
201.537
231.646
260.538
287.79
312.98
335.692
355.533
372.141
385.196
394.433
399.649
400.673
397.487
390.151
378.697
363.326
344.295
321.931
296.608
268.749
238.81
207.266
174.605
141.326
107.94
75.0847
42.7458
11.1399
-19.4305
-48.6901
-76.4425
-102.56
-126.95
-149.575
-170.409
-189.446
-206.702
-222.193
-235.964
-248.07
-258.572
-267.552
-275.087
-281.262
-286.166
-289.874
-292.46
-293.973
-294.427
-294.012
-292.575
-290.097
-286.554
-281.86
-275.92
-268.622
-259.829
-249.418
-237.254
-223.223
-207.254
-189.288
-169.296
-147.308
-123.384
-97.6283
-70.2044
-41.2998
-11.1536
19.8778
51.3712
83.3721
115.357
146.941
177.705
207.244
235.204
261.204
284.878
305.937
324.106
339.155
350.917
359.275
364.164
365.527
363.363
357.844
349.049
337.123
322.26
304.664
284.575
262.233
237.895
211.843
184.353
155.698
126.186
96.1013
65.8259
35.9523
17.7699
-9.91745
-37.2557
-63.587
-324.619
-319.943
-313.859
-306.354
-297.402
-286.937
-274.912
-261.267
-245.958
-228.955
-210.22
-189.726
-167.471
-143.47
-117.751
-90.3775
-61.4298
-31.0307
0.633475
33.3279
66.9658
101.179
135.636
170.01
203.892
236.898
268.607
298.598
326.5
351.921
374.477
393.853
409.759
421.956
430.261
434.55
434.729
430.791
422.902
411.102
395.587
376.603
354.434
329.389
301.858
272.219
240.86
208.217
174.691
140.67
106.557
72.7069
39.4425
7.26806
-23.4655
-53.2108
-81.67
-108.632
-133.981
-157.638
-179.558
-199.73
-218.152
-234.843
-249.834
-263.153
-274.839
-284.922
-293.426
-300.385
-305.813
-309.729
-312.137
-313.009
-312.381
-310.288
-306.688
-301.571
-294.911
-286.69
-276.908
-265.559
-252.627
-238.112
-222.023
-204.346
-185.092
-164.279
-141.912
-118.01
-92.6231
-65.804
-37.6272
-8.20178
22.3468
53.8071
85.9621
118.562
151.319
183.914
216.006
247.236
277.233
305.629
332.056
356.16
377.605
396.082
411.312
423.054
431.109
435.325
435.567
431.809
424.132
412.524
397.143
378.19
355.921
330.647
302.723
272.538
240.508
207.066
172.648
137.684
102.587
67.7503
33.5318
0.254484
-31.8007
-62.3939
-91.3278
-118.452
-143.654
-166.864
-188.046
-207.193
-224.325
-239.488
-252.745
-264.166
-273.838
-281.848
-288.275
-293.198
-296.684
-298.797
-299.565
-299.03
-297.231
-294.179
-289.877
-284.319
-277.495
-269.378
-259.939
-249.147
-236.961
-223.34
-208.241
-191.622
-173.452
-153.703
-132.364
-109.442
-84.9608
-58.975
-31.5599
-2.82512
27.0896
58.0183
89.719
121.929
154.36
186.683
218.532
249.516
279.219
307.218
333.084
356.398
376.765
393.819
407.241
416.769
422.201
423.389
420.264
412.932
401.422
385.919
366.673
343.997
318.261
289.884
259.325
227.059
193.567
159.324
124.781
90.3548
56.4222
23.3066
-8.70576
-39.3654
-68.4705
-95.8642
-121.437
-145.127
-166.91
-186.803
-204.843
-221.085
-235.592
-248.432
-259.667
-269.356
-277.556
-284.32
-289.693
-293.713
-296.416
-297.831
-297.948
-296.795
-294.379
-290.677
-285.675
-279.355
-271.691
-262.66
-252.231
-240.378
-227.078
-212.309
-196.058
-178.313
-159.067
-138.321
-116.084
-92.3769
-67.2409
-40.7419
-12.9751
15.9343
45.8264
76.5071
107.733
139.199
170.598
201.579
231.756
260.72
288.048
313.313
336.098
356.008
372.677
385.783
395.058
400.296
401.338
398.141
390.78
379.29
363.869
344.775
322.339
296.939
268.999
238.977
207.353
174.613
141.257
107.797
74.9477
42.5584
10.906
-19.6961
-48.9773
-76.7434
-102.869
-127.262
-149.886
-170.717
-189.747
-206.995
-222.476
-236.235
-248.328
-258.817
-267.782
-275.303
-281.464
-286.355
-290.052
-292.63
-294.135
-294.589
-294.172
-292.737
-290.266
-286.735
-282.057
-276.136
-268.86
-260.089
-249.7
-237.557
-223.543
-207.588
-189.633
-169.645
-147.655
-123.723
-97.9531
-70.5075
-41.5733
-11.3904
19.6843
51.2228
83.279
115.323
146.971
177.802
207.408
235.436
261.501
285.236
306.348
324.564
339.65
351.439
359.813
364.705
366.074
363.894
358.354
349.527
337.564
322.661
305.019
284.882
262.491
238.101
212
184.46
155.758
126.2
96.0694
65.7465
35.8201
17.5887
-10.1507
-37.5243
-63.882
-324.891
-320.221
-314.144
-306.649
-297.707
-287.255
-275.243
-261.611
-246.314
-229.323
-210.599
-190.113
-167.864
-143.864
-118.143
-90.763
-61.8014
-31.3811
0.312686
33.0446
66.7309
101.001
135.525
169.973
203.935
237.027
268.824
298.905
326.897
352.405
375.043
394.49
410.457
422.701
431.039
435.342
435.526
431.573
423.645
411.8
396.225
377.172
354.923
329.793
302.173
272.443
240.995
208.266
174.658
140.561
106.38
72.469
39.1543
6.966
-23.8048
-53.5771
-82.0545
-109.027
-134.381
-158.037
-179.952
-200.116
-218.527
-235.207
-250.186
-263.493
-275.169
-285.242
-293.738
-300.692
-306.116
-310.028
-312.431
-313.306
-312.682
-310.589
-306.992
-301.879
-295.222
-287.006
-277.228
-265.884
-252.955
-238.446
-222.361
-204.687
-185.44
-164.63
-142.264
-118.364
-92.9745
-66.1474
-37.9571
-8.51108
22.0658
53.5637
85.7642
118.418
151.236
183.899
216.065
247.372
277.45
305.927
332.435
356.618
378.137
396.682
411.972
423.764
431.855
436.092
436.349
432.588
424.882
413.237
397.803
378.784
356.438
331.077
303.061
272.782
240.657
207.122
172.617
137.571
102.401
67.4987
33.225
-0.0982615
-32.19
-62.8105
-91.7631
-118.898
-144.104
-167.311
-188.486
-207.621
-224.738
-239.883
-253.12
-264.52
-274.173
-282.164
-288.574
-293.482
-296.957
-299.057
-299.818
-299.28
-297.478
-294.425
-290.124
-284.571
-277.752
-269.642
-260.212
-249.431
-237.256
-223.647
-208.559
-191.952
-173.793
-154.051
-132.719
-109.798
-85.3155
-59.3223
-31.894
-3.13955
26.8029
57.7659
89.5125
121.777
154.271
186.665
218.593
249.663
279.458
307.551
333.511
356.918
377.37
394.5
407.986
417.562
423.024
424.226
421.099
413.735
402.179
386.613
367.29
344.524
318.69
290.211
259.548
227.18
193.59
159.258
124.634
90.1368
56.145
22.9792
-9.07309
-39.7628
-68.8881
-96.2928
-121.868
-145.552
-167.324
-187.202
-205.224
-221.448
-235.939
-248.762
-259.981
-269.656
-277.844
-284.597
-289.961
-293.974
-296.671
-298.079
-298.197
-297.046
-294.631
-290.932
-285.936
-279.622
-271.965
-262.941
-252.519
-240.675
-227.382
-212.62
-196.376
-178.637
-159.397
-138.656
-116.42
-92.7123
-67.5707
-41.0614
-13.2774
15.6561
45.5802
76.3014
107.58
139.105
170.572
201.63
231.893
260.948
288.37
313.73
336.607
356.603
373.348
386.518
395.841
401.108
402.166
398.963
391.568
380.033
364.548
345.375
322.849
297.353
269.312
239.186
207.461
174.623
141.169
107.617
74.7772
42.3229
10.6125
-20.029
-49.3371
-77.1201
-103.256
-127.653
-150.276
-171.102
-190.124
-207.361
-222.83
-236.574
-248.65
-259.122
-268.07
-275.572
-281.716
-286.591
-290.275
-292.841
-294.337
-294.793
-294.373
-292.939
-290.477
-286.96
-282.303
-276.406
-269.157
-260.415
-250.054
-237.936
-223.944
-208.007
-190.064
-170.082
-148.09
-124.148
-98.3597
-70.887
-41.9158
-11.6873
19.4413
51.0371
83.1622
115.28
147.008
177.922
207.613
235.725
261.872
285.683
306.863
325.138
340.27
352.093
360.487
365.384
366.75
364.562
358.991
350.125
338.116
323.161
305.463
285.266
262.812
238.359
212.195
184.593
155.832
126.216
96.0296
65.6476
35.6551
17.361
-10.4434
-37.8607
-64.2514
-325.219
-320.555
-314.487
-307.002
-298.073
-287.636
-275.64
-262.023
-246.742
-229.766
-211.054
-190.578
-168.335
-144.338
-118.615
-91.2261
-62.2482
-31.8026
-0.0735563
32.7042
66.4481
100.787
135.391
169.928
203.987
237.18
269.084
299.273
327.373
352.986
375.721
395.255
411.296
423.597
431.973
436.294
436.48
432.513
424.538
412.637
396.993
377.855
355.511
330.277
302.551
272.712
241.157
208.323
174.618
140.43
106.166
72.1827
38.8088
6.60163
-24.2131
-54.0174
-82.5166
-109.502
-134.862
-158.516
-180.425
-200.579
-218.977
-235.643
-250.608
-263.902
-275.565
-285.627
-294.113
-301.06
-306.479
-310.387
-312.785
-313.662
-313.042
-310.951
-307.357
-302.248
-295.596
-287.385
-277.613
-266.273
-253.349
-238.848
-222.767
-205.097
-185.857
-165.052
-142.688
-118.789
-93.3969
-66.5601
-38.3537
-8.88369
21.7284
53.2707
85.5258
118.245
151.136
183.88
216.134
247.535
277.71
306.285
332.891
357.168
378.777
397.403
412.765
424.616
432.752
437.015
437.286
433.524
425.785
414.094
398.596
379.497
357.058
331.594
303.467
273.074
240.835
207.19
172.578
137.434
102.175
67.1956
32.8558
-0.522575
-32.6583
-63.3115
-92.2863
-119.434
-144.644
-167.849
-189.014
-208.135
-225.233
-240.357
-253.57
-264.946
-274.575
-282.543
-288.932
-293.823
-297.283
-299.37
-300.122
-299.58
-297.773
-294.72
-290.421
-284.873
-278.06
-269.959
-260.54
-249.771
-237.609
-224.015
-208.941
-192.349
-174.202
-154.47
-133.145
-110.226
-85.7418
-59.7396
-32.2958
-3.51779
26.4576
57.4618
89.2638
121.593
154.162
186.642
218.666
249.84
279.745
307.95
334.024
357.541
378.096
395.318
408.881
418.515
424.014
425.23
422.102
414.7
403.088
387.447
368.031
345.158
319.206
290.603
259.815
227.324
193.618
159.177
124.456
89.8739
55.8113
22.5851
-9.51516
-40.2409
-69.3903
-96.8081
-122.386
-146.063
-167.822
-187.682
-205.683
-221.885
-236.354
-249.158
-260.358
-270.016
-278.189
-284.93
-290.282
-294.286
-296.976
-298.378
-298.497
-297.346
-294.933
-291.24
-286.25
-279.943
-272.294
-263.278
-252.866
-241.031
-227.748
-212.994
-196.758
-179.027
-159.794
-139.057
-116.825
-93.1153
-67.9672
-41.4455
-13.6409
15.3212
45.2835
76.0534
107.395
138.991
170.541
201.692
232.057
261.221
288.756
314.23
337.218
357.317
374.154
387.401
396.782
402.084
403.158
399.951
392.516
380.925
365.363
346.096
323.462
297.849
269.686
239.436
207.59
174.634
141.063
107.399
74.5724
42.0383
10.2588
-20.4299
-49.7698
-77.5728
-103.721
-128.122
-150.744
-171.564
-190.576
-207.8
-223.255
-236.981
-249.038
-259.489
-268.415
-275.896
-282.018
-286.875
-290.542
-293.093
-294.581
-295.037
-294.614
-293.18
-290.729
-287.231
-282.597
-276.73
-269.514
-260.806
-250.479
-238.391
-224.426
-208.51
-190.583
-170.607
-148.612
-124.659
-98.8486
-71.3434
-42.3279
-12.0446
19.1485
50.8137
83.0213
115.229
147.052
178.066
207.858
236.072
262.317
286.22
307.482
325.827
341.015
352.879
361.297
366.201
367.561
365.363
359.755
350.842
338.779
323.762
305.996
285.726
263.198
238.669
212.43
184.753
155.92
126.236
95.9818
65.5295
35.458
17.086
-10.7962
-38.2656
-64.6954
-325.6
-320.944
-314.886
-307.414
-298.5
-288.08
-276.104
-262.505
-247.241
-230.283
-211.585
-191.12
-168.885
-144.892
-119.166
-91.7672
-62.7704
-32.2957
-0.52562
32.3059
66.1168
100.536
135.233
169.875
204.046
237.359
269.387
299.702
327.928
353.664
376.513
396.149
412.275
424.642
433.064
437.407
437.594
433.609
425.583
413.616
397.888
378.652
356.196
330.843
302.991
273.025
241.344
208.389
174.57
140.277
105.916
71.8478
38.406
6.174
-24.691
-54.5321
-83.0566
-110.058
-135.424
-159.076
-180.977
-201.119
-219.502
-236.152
-251.101
-264.379
-276.027
-286.075
-294.551
-301.489
-306.902
-310.806
-313.199
-314.077
-313.461
-311.373
-307.783
-302.679
-296.032
-287.827
-278.063
-266.728
-253.809
-239.316
-223.24
-205.576
-186.344
-165.544
-143.183
-119.286
-93.8906
-67.0425
-38.8173
-9.31926
21.3331
52.9276
85.2467
118.041
151.018
183.858
216.215
247.724
278.012
306.703
333.422
357.81
379.523
398.245
413.691
425.611
433.799
438.095
438.381
434.615
426.84
415.095
399.523
380.33
357.782
332.197
303.941
273.414
241.042
207.267
172.532
137.273
101.911
66.8403
32.4235
-1.01925
-33.2062
-63.8974
-92.8982
-120.06
-145.275
-168.476
-189.631
-208.735
-225.811
-240.91
-254.095
-265.443
-275.044
-282.985
-289.351
-294.221
-297.664
-299.735
-300.478
-299.929
-298.118
-295.064
-290.768
-285.225
-278.42
-270.328
-260.923
-250.168
-238.022
-224.444
-209.388
-192.813
-174.68
-154.96
-133.643
-110.727
-86.2399
-60.2274
-32.7659
-3.96037
26.053
57.1055
88.9726
121.377
154.034
186.614
218.75
250.044
280.078
308.416
334.623
358.269
378.944
396.274
409.927
419.629
425.171
426.405
423.271
415.828
404.151
388.422
368.896
345.897
319.808
291.06
260.126
227.491
193.649
159.081
124.247
89.5655
55.4204
22.1237
-10.0326
-40.8003
-69.9779
-97.4106
-122.991
-146.66
-168.403
-188.241
-206.218
-222.395
-236.839
-249.619
-260.798
-270.437
-278.593
-285.318
-290.657
-294.65
-297.332
-298.728
-298.845
-297.696
-295.286
-291.598
-286.616
-280.317
-272.677
-263.672
-253.271
-241.448
-228.175
-213.431
-197.204
-179.482
-160.257
-139.526
-117.297
-93.5863
-68.431
-41.8946
-14.0661
14.9292
44.9357
75.7624
107.177
138.856
170.502
201.762
232.246
261.539
289.206
314.813
337.93
358.15
375.096
388.432
397.882
403.226
404.318
401.103
393.625
381.967
366.316
346.939
324.178
298.428
270.122
239.728
207.74
174.646
140.939
107.144
74.333
41.7034
9.84418
-20.8993
-50.2761
-78.1021
-104.264
-128.67
-151.29
-172.103
-191.104
-208.313
-223.75
-237.456
-249.49
-259.917
-268.818
-276.273
-282.371
-287.205
-290.853
-293.387
-294.866
-295.322
-294.894
-293.461
-291.022
-287.545
-282.941
-277.107
-269.929
-261.261
-250.974
-238.922
-224.989
-209.098
-191.189
-171.22
-149.223
-125.256
-99.4203
-71.8771
-42.81
-12.463
18.8054
50.5521
82.8559
115.167
147.102
178.233
208.144
236.476
262.837
286.846
308.204
326.632
341.885
353.796
362.243
367.157
368.509
366.295
360.646
351.68
339.552
324.464
306.618
286.263
263.647
239.03
212.703
184.939
156.023
126.259
95.9261
65.3926
35.2291
16.7625
-11.2099
-38.7393
-65.2145
-326.036
-321.388
-315.342
-307.885
-298.988
-288.588
-276.634
-263.055
-247.811
-230.873
-212.192
-191.74
-169.514
-145.526
-119.797
-92.3865
-63.3686
-32.8609
-1.04399
31.8492
65.7364
100.247
135.051
169.812
204.112
237.561
269.732
300.191
328.561
354.439
377.419
397.171
413.396
425.839
434.312
438.681
438.87
434.861
426.779
414.736
398.913
379.564
356.98
331.489
303.494
273.382
241.558
208.464
174.513
140.099
105.628
71.4634
37.9455
5.68206
-25.2389
-55.1217
-83.6749
-110.694
-136.067
-159.717
-181.609
-201.737
-220.103
-236.734
-251.664
-264.923
-276.555
-286.588
-295.051
-301.98
-307.386
-311.284
-313.673
-314.552
-313.94
-311.854
-308.269
-303.171
-296.531
-288.332
-278.576
-267.248
-254.336
-239.851
-223.78
-206.124
-186.901
-166.107
-143.749
-119.855
-94.4552
-67.5948
-39.3486
-9.8182
20.8794
52.534
84.9262
117.806
150.882
183.83
216.305
247.939
278.358
307.179
334.029
358.544
380.376
399.208
414.75
426.75
434.998
439.331
439.634
435.862
428.048
416.241
400.583
381.284
358.61
332.886
304.482
273.802
241.278
207.353
172.477
137.088
101.607
66.4321
31.9273
-1.58892
-33.8345
-64.5688
-93.5992
-120.778
-145.999
-169.195
-190.337
-209.421
-226.473
-241.543
-254.696
-266.011
-275.58
-283.491
-289.829
-294.676
-298.099
-300.153
-300.884
-300.327
-298.512
-295.457
-291.164
-285.627
-278.831
-270.751
-261.361
-250.621
-238.494
-224.935
-209.899
-193.343
-175.226
-155.521
-134.212
-111.301
-86.8102
-60.7865
-33.3048
-4.46787
25.5888
56.6966
88.638
121.129
153.886
186.581
218.844
250.277
280.458
308.948
335.307
359.101
379.915
397.367
411.123
420.905
426.496
427.751
424.609
417.119
405.368
389.537
369.886
346.743
320.496
291.582
260.48
227.68
193.682
158.97
124.006
89.2109
54.9716
21.5943
-10.6262
-41.4417
-70.6515
-98.1011
-123.684
-147.345
-169.069
-188.882
-206.83
-222.978
-237.394
-250.147
-261.301
-270.917
-279.054
-285.762
-291.086
-295.067
-297.74
-299.127
-299.242
-298.096
-295.69
-292.008
-287.034
-280.744
-273.115
-264.122
-253.735
-241.924
-228.663
-213.931
-197.715
-180.002
-160.787
-140.063
-117.838
-94.1255
-68.9622
-42.4089
-14.5538
14.4794
44.5366
75.4274
106.927
138.701
170.456
201.84
232.462
261.9
289.719
315.479
338.745
359.104
376.173
389.613
399.14
404.534
405.647
402.421
394.895
383.16
367.406
347.903
324.997
299.09
270.619
240.061
207.911
174.659
140.796
106.848
74.059
41.3171
9.36756
-21.438
-50.8564
-78.7083
-104.886
-129.297
-151.915
-172.721
-191.709
-208.899
-224.317
-237.999
-250.007
-260.406
-269.278
-276.704
-282.774
-287.582
-291.207
-293.723
-295.19
-295.648
-295.211
-293.78
-291.357
-287.904
-283.332
-277.538
-270.404
-261.783
-251.541
-239.529
-225.632
-209.772
-191.882
-171.922
-149.922
-125.939
-100.075
-72.4889
-43.3628
-12.9431
18.4115
50.2518
82.6656
115.096
147.159
178.423
208.47
236.939
263.432
287.563
309.031
327.553
342.881
354.846
363.327
368.252
369.595
367.359
361.665
352.638
340.437
325.266
307.329
286.877
264.161
239.442
213.014
185.151
156.139
126.284
95.8624
65.2371
34.9691
16.3894
-11.6858
-39.2827
-65.8091
-326.526
-321.887
-315.855
-308.414
-299.538
-289.159
-277.23
-263.674
-248.453
-231.539
-212.876
-192.439
-170.224
-146.239
-120.508
-93.0843
-64.0432
-33.4989
-1.62926
31.3333
65.306
99.9198
134.844
169.74
204.185
237.788
270.119
300.741
329.274
355.311
378.439
398.323
414.658
427.188
435.72
440.118
440.307
436.27
428.127
415.998
400.067
380.592
357.862
332.215
304.059
273.782
241.797
208.546
174.448
139.898
105.302
71.0289
37.4271
5.12478
-25.8573
-55.7865
-84.3721
-111.412
-136.792
-160.439
-182.321
-202.432
-220.779
-237.389
-252.297
-265.536
-277.148
-287.164
-295.614
-302.532
-307.93
-311.821
-314.206
-315.087
-314.478
-312.396
-308.816
-303.725
-297.092
-288.901
-279.154
-267.833
-254.928
-240.453
-224.388
-206.741
-187.527
-166.74
-144.387
-120.496
-95.0908
-68.2175
-39.9483
-10.3811
20.3664
52.0891
84.5636
117.541
150.727
183.798
216.406
248.181
278.745
307.715
334.712
359.37
381.337
400.293
415.943
428.033
436.349
440.726
441.047
437.266
429.409
417.533
401.779
382.358
359.543
333.662
305.09
274.238
241.541
207.449
172.414
136.876
101.263
65.9703
31.3663
-2.23241
-34.5438
-65.3267
-94.39
-121.587
-146.814
-170.005
-191.133
-210.195
-227.219
-242.256
-255.373
-266.651
-276.183
-284.059
-290.367
-295.188
-298.588
-300.624
-301.341
-300.775
-298.955
-295.9
-291.61
-286.08
-279.293
-271.227
-261.853
-251.132
-239.025
-225.488
-210.474
-193.939
-175.842
-156.153
-134.854
-111.947
-87.4531
-61.4174
-33.9131
-5.04114
25.064
56.2345
88.2593
120.847
153.717
186.541
218.947
250.537
280.884
309.545
336.076
360.037
381.007
398.599
412.472
422.343
427.991
429.269
426.117
418.576
406.74
390.794
371.001
347.696
321.27
292.169
260.876
227.892
193.717
158.842
123.732
88.8091
54.4644
20.9961
-11.2967
-42.166
-71.412
-98.8803
-124.467
-148.116
-169.819
-189.603
-207.519
-223.634
-238.018
-250.74
-261.867
-271.458
-279.573
-286.261
-291.568
-295.536
-298.197
-299.577
-299.691
-298.545
-296.144
-292.47
-287.504
-281.225
-273.608
-264.629
-254.256
-242.459
-229.213
-214.494
-198.289
-180.589
-161.383
-140.668
-118.447
-94.7333
-69.5615
-42.9891
-15.1045
13.9711
44.0854
75.0477
106.642
138.523