/*--------------------------------*- C++ -*----------------------------------*\
| =========                 |                                                 |
| \\      /  F ield         | OpenFOAM: The Open Source CFD Toolbox           |
|  \\    /   O peration     | Version:  3.0.1                                 |
|   \\  /    A nd           | Web:      www.OpenFOAM.org                      |
|    \\/     M anipulation  |                                                 |
\*---------------------------------------------------------------------------*/
FoamFile
{
    version     2.0;
    format      ascii;
    class       surfaceScalarField;
    location    "65.2";
    object      phi;
}
// * * * * * * * * * * * * * * * * * * * * * * * * * * * * * * * * * * * * * //

dimensions      [0 3 -1 0 0 0 0];

internalField   nonuniform List<scalar> 
42423
(
-4.21238e-05
-1.26475e-05
-2.82029e-05
-1.39209e-05
-1.30626e-05
-1.51404e-05
2.87149e-06
-1.59342e-05
1.9757e-05
-1.68856e-05
3.71957e-05
-1.74388e-05
5.53791e-05
-1.81835e-05
7.39529e-05
-1.85739e-05
9.25933e-05
-1.86405e-05
0.000111339
-1.8746e-05
0.000129881
-1.85421e-05
0.000147857
-1.79762e-05
0.000165196
-1.73382e-05
0.000181545
-1.63491e-05
0.000196642
-1.50978e-05
0.000210246
-1.3604e-05
0.000222097
-1.18505e-05
0.00023201
-9.91306e-06
0.000239764
-7.75443e-06
0.000245203
-5.43862e-06
0.000248248
-3.04562e-06
0.000248928
-6.79602e-07
0.000247049
1.87882e-06
0.000242687
4.36239e-06
0.000235954
6.7321e-06
0.000227045
8.9089e-06
0.000216129
1.09161e-05
0.000203244
1.28848e-05
0.000188748
1.44964e-05
0.00017289
1.58581e-05
0.000155849
1.70409e-05
0.000137951
1.78981e-05
0.000119448
1.85033e-05
0.000100563
1.88845e-05
8.14798e-05
1.90833e-05
6.24038e-05
1.90759e-05
4.35901e-05
1.88138e-05
2.52283e-05
1.83617e-05
7.44615e-06
1.77821e-05
-9.72337e-06
1.71695e-05
-2.61272e-05
1.64038e-05
-4.1699e-05
1.55718e-05
-5.64064e-05
1.47074e-05
-7.01727e-05
1.37663e-05
-8.29994e-05
1.28267e-05
-9.48838e-05
1.18844e-05
-0.000105828
1.09446e-05
-0.000115827
9.99838e-06
-0.000124942
9.1156e-06
-0.000133151
8.20873e-06
-0.000140451
7.2995e-06
-0.000146935
6.48403e-06
-0.000152554
5.61944e-06
-0.000157383
4.82858e-06
-0.000161403
4.02044e-06
-0.000164628
3.22486e-06
-0.000167107
2.4789e-06
-0.000168823
1.71562e-06
-0.000169748
9.25694e-07
-0.000169963
2.14487e-07
-0.000169235
-7.27788e-07
-0.00016777
-1.46496e-06
-0.000165501
-2.26884e-06
-0.000162371
-3.13002e-06
-0.000158378
-3.99318e-06
-0.000153631
-4.74698e-06
-0.000147824
-5.80663e-06
-0.000141345
-6.4795e-06
-0.000133768
-7.57691e-06
-0.00012524
-8.52793e-06
-0.000115813
-9.42709e-06
-0.000105439
-1.03738e-05
-9.40935e-05
-1.13458e-05
-8.20041e-05
-1.20895e-05
-6.89545e-05
-1.30497e-05
-5.50881e-05
-1.38664e-05
-4.03796e-05
-1.47086e-05
-2.48321e-05
-1.55476e-05
-8.62031e-06
-1.62118e-05
8.1482e-06
-1.67686e-05
2.54311e-05
-1.7283e-05
4.31178e-05
-1.76868e-05
6.11036e-05
-1.79858e-05
7.92649e-05
-1.81614e-05
9.73558e-05
-1.80909e-05
0.000115369
-1.80137e-05
0.000132922
-1.75525e-05
0.000149988
-1.70665e-05
0.000166216
-1.62274e-05
0.000181328
-1.51126e-05
0.000195079
-1.37509e-05
0.000207173
-1.20946e-05
0.000217362
-1.01888e-05
0.000225443
-8.08079e-06
0.000231173
-5.72969e-06
0.00023452
-3.34743e-06
0.000235423
-9.03097e-07
0.000233814
1.60894e-06
0.000229698
4.11556e-06
0.000223186
6.51279e-06
0.000214322
8.8633e-06
0.00020332
1.10021e-05
0.00019031
1.30103e-05
0.000175513
1.47972e-05
0.000159099
1.6413e-05
0.000141369
1.77307e-05
0.000122603
1.87655e-05
0.00010307
1.95329e-05
8.30506e-05
2.00197e-05
6.2813e-05
2.02377e-05
4.26306e-05
2.01824e-05
2.27508e-05
1.98798e-05
3.38525e-06
1.93655e-05
-1.52863e-05
1.86715e-05
-3.31932e-05
1.7907e-05
-5.01031e-05
1.69098e-05
-6.60084e-05
1.59053e-05
-8.07765e-05
1.47681e-05
-9.44302e-05
1.36537e-05
-0.000107035
1.26046e-05
-0.000118425
1.13901e-05
-0.000128729
1.03041e-05
-0.000137903
9.174e-06
-0.000146033
8.12961e-06
-0.000153123
7.09087e-06
-0.000159206
6.08227e-06
-0.000164421
5.21519e-06
-0.000168661
4.2397e-06
-0.000172043
3.38283e-06
-0.000174604
2.56031e-06
-0.000176371
1.76765e-06
-0.000177414
1.043e-06
-0.000177735
3.20944e-07
-0.000177425
-3.10246e-07
-0.000176405
-1.01976e-06
-0.000174775
-1.63067e-06
-0.000172463
-2.31215e-06
-0.000169551
-2.91156e-06
-0.000165995
-3.55612e-06
-0.000161759
-4.23637e-06
-0.000156896
-4.86234e-06
-0.000151303
-5.59312e-06
-0.000145041
-6.26173e-06
-0.000137984
-7.05769e-06
-0.000130173
-7.81075e-06
-0.00012154
-8.6328e-06
-0.000112084
-9.45616e-06
-0.000101749
-1.03356e-05
-9.05349e-05
-1.12136e-05
-7.84301e-05
-1.21049e-05
-6.5457e-05
-1.29731e-05
-5.16478e-05
-1.38093e-05
-3.70391e-05
-1.46087e-05
-2.1693e-05
-1.53462e-05
-5.76876e-06
-1.59243e-05
1.07504e-05
-1.65192e-05
2.76511e-05
-1.69008e-05
4.48576e-05
-1.72066e-05
6.22086e-05
-1.7351e-05
7.94361e-05
-1.72275e-05
9.63975e-05
-1.69615e-05
0.000112864
-1.64667e-05
0.000128628
-1.57636e-05
0.00014338
-1.47525e-05
0.000156916
-1.3536e-05
0.000168989
-1.20725e-05
0.000179327
-1.03389e-05
0.000187662
-8.33504e-06
0.000193881
-6.21886e-06
0.000197796
-3.91519e-06
0.000199276
-1.48003e-06
0.000198375
9.01729e-07
0.000194968
3.40704e-06
0.000189097
5.87068e-06
0.000180953
8.14343e-06
0.000170644
1.03096e-05
0.000158375
1.22686e-05
0.000144321
1.40544e-05
0.000128789
1.55319e-05
0.000112014
1.67743e-05
9.43186e-05
1.76958e-05
7.5934e-05
1.83845e-05
5.71488e-05
1.87852e-05
3.82252e-05
1.89236e-05
1.9408e-05
1.88172e-05
9.56162e-07
1.84518e-05
-1.69837e-05
1.79398e-05
-3.42976e-05
1.7314e-05
-5.09491e-05
1.66514e-05
-6.67196e-05
1.57705e-05
-8.15819e-05
1.48623e-05
-9.53944e-05
1.38125e-05
-0.000108132
1.2738e-05
-0.000119707
1.1575e-05
-0.000130164
1.04569e-05
-0.000139581
9.41687e-06
-0.000147986
8.40532e-06
-0.000155469
7.48287e-06
-0.000162095
6.62567e-06
-0.000167884
5.78886e-06
-0.00017296
5.07574e-06
-0.0001773
4.34036e-06
-0.00018093
3.62987e-06
-0.000183875
2.94541e-06
-0.000186199
2.32344e-06
-0.000187788
1.5895e-06
-0.000188744
9.55651e-07
-0.000188996
2.52535e-07
-0.00018856
-4.36213e-07
-0.000187428
-1.13269e-06
-0.000185769
-1.65807e-06
-0.000183469
-2.30045e-06
-0.000180538
-2.93073e-06
-0.00017705
-3.48857e-06
-0.000172927
-4.12234e-06
-0.00016816
-4.76786e-06
-0.000162859
-5.3005e-06
-0.00015682
-6.03928e-06
-0.000150071
-6.74867e-06
-0.000142694
-7.37755e-06
-0.000134523
-8.17038e-06
-0.000125588
-8.93524e-06
-0.000115872
-9.71632e-06
-0.000105303
-1.05689e-05
-9.39283e-05
-1.13746e-05
-8.16856e-05
-1.22427e-05
-6.85625e-05
-1.31231e-05
-5.47342e-05
-1.38283e-05
-4.01086e-05
-1.46257e-05
-2.47861e-05
-1.53225e-05
-8.81623e-06
-1.597e-05
7.48925e-06
-1.63055e-05
2.41378e-05
-1.66486e-05
4.09507e-05
-1.68129e-05
5.76995e-05
-1.67488e-05
7.42221e-05
-1.65227e-05
9.03095e-05
-1.60874e-05
0.000105717
-1.5407e-05
0.000120211
-1.44946e-05
0.000133513
-1.33023e-05
0.000145377
-1.18637e-05
0.000155546
-1.01693e-05
0.000163792
-8.24555e-06
0.000169951
-6.15933e-06
0.000173877
-3.92628e-06
0.000175427
-1.54986e-06
0.000174658
7.69193e-07
0.000171476
3.18158e-06
0.000165899
5.57732e-06
0.000158111
7.78796e-06
0.000148208
9.90253e-06
0.000136388
1.18204e-05
0.000122817
1.35712e-05
0.000107804
1.50123e-05
9.16184e-05
1.6186e-05
7.45305e-05
1.7088e-05
5.67647e-05
1.77657e-05
3.86791e-05
1.80856e-05
2.04748e-05
1.82043e-05
2.37575e-06
1.80991e-05
-1.54043e-05
1.778e-05
-3.27245e-05
1.73202e-05
-4.94042e-05
1.66797e-05
-6.53629e-05
1.59587e-05
-8.04993e-05
1.51364e-05
-9.47364e-05
1.4237e-05
-0.000108041
1.33048e-05
-0.00012037
1.23291e-05
-0.000131589
1.12192e-05
-0.000141797
1.02073e-05
-0.000151048
9.25131e-06
-0.000159209
8.16118e-06
-0.000166335
7.12543e-06
-0.000172454
6.11939e-06
-0.000177574
5.11985e-06
-0.000181679
4.10499e-06
-0.000184843
3.16451e-06
-0.000187018
2.17427e-06
-0.000188273
1.25579e-06
-0.000188692
4.18737e-07
-0.000188176
-5.16097e-07
-0.000186799
-1.37695e-06
-0.000184776
-2.02319e-06
-0.000182148
-2.62801e-06
-0.000179011
-3.13703e-06
-0.000175529
-3.48145e-06
-0.000171694
-3.83561e-06
-0.000167525
-4.169e-06
-0.000163138
-4.3873e-06
-0.000158352
-4.78609e-06
-0.00015332
-5.03129e-06
-0.000147952
-5.36873e-06
-0.000142102
-5.84965e-06
-0.000135776
-6.32578e-06
-0.000129
-6.7764e-06
-0.000121431
-7.56871e-06
-0.000113094
-8.33735e-06
-0.000103995
-9.09846e-06
-9.38636e-05
-1.01317e-05
-8.28749e-05
-1.09888e-05
-7.06902e-05
-1.21847e-05
-5.73943e-05
-1.3296e-05
-4.31749e-05
-1.42195e-05
-2.79337e-05
-1.52412e-05
-1.17528e-05
-1.6181e-05
4.97646e-06
-1.67293e-05
2.24499e-05
-1.74735e-05
4.02591e-05
-1.78093e-05
5.83472e-05
-1.80881e-05
7.64568e-05
-1.81097e-05
9.41459e-05
-1.76892e-05
0.000111262
-1.71156e-05
0.000127533
-1.62716e-05
0.000142608
-1.50746e-05
0.000156319
-1.37117e-05
0.000168385
-1.20656e-05
0.000178677
-1.02926e-05
0.000186966
-8.28836e-06
0.000193062
-6.09592e-06
0.000196911
-3.84977e-06
0.000198455
-1.54403e-06
0.00019762
8.3559e-07
0.000194503
3.11611e-06
0.000189069
5.43436e-06
0.000181667
7.40166e-06
0.000172409
9.25797e-06
0.0001614
1.1009e-05
0.00014907
1.23299e-05
0.000135561
1.35089e-05
0.000121079
1.44825e-05
0.000105877
1.52023e-05
9.01005e-05
1.57761e-05
7.39695e-05
1.6131e-05
5.77618e-05
1.62077e-05
4.1552e-05
1.62098e-05
2.53981e-05
1.61539e-05
9.45677e-06
1.59413e-05
-6.04467e-06
1.55014e-05
-2.11408e-05
1.50961e-05
-3.57912e-05
1.46504e-05
-4.98976e-05
1.41063e-05
-6.33831e-05
1.34855e-05
-7.62418e-05
1.28587e-05
-8.84e-05
1.21583e-05
-9.98685e-05
1.14685e-05
-0.000110585
1.07168e-05
-0.000120514
9.92863e-06
-0.000129653
9.13918e-06
-0.00013796
8.30709e-06
-0.000145417
7.45685e-06
-0.000152017
6.60028e-06
-0.000157745
5.72714e-06
-0.0001626
4.85588e-06
-0.000166578
3.97771e-06
-0.000169676
3.0982e-06
-0.000171912
2.236e-06
1.37152e-06
-4.21616e-05
-2.52961e-05
-2.82371e-05
-2.78456e-05
-1.30979e-05
-3.02798e-05
2.83887e-06
-3.18711e-05
1.97273e-05
-3.37742e-05
3.7174e-05
-3.48856e-05
5.53648e-05
-3.63745e-05
7.39471e-05
-3.71562e-05
9.25972e-05
-3.72908e-05
0.000111361
-3.75099e-05
0.00012993
-3.71112e-05
0.000147929
-3.59754e-05
0.000165265
-3.46747e-05
0.000181615
-3.26988e-05
0.000196726
-3.02092e-05
0.000210353
-2.72308e-05
0.000222211
-2.37088e-05
0.000232125
-1.98275e-05
0.000239885
-1.55144e-05
0.000245339
-1.08927e-05
0.000248401
-6.10796e-06
0.000249076
-1.35492e-06
0.000247172
3.78326e-06
0.000242806
8.7287e-06
0.000236068
1.34696e-05
0.000227161
1.78157e-05
0.000216227
2.18499e-05
0.000203335
2.57771e-05
0.000188829
2.90018e-05
0.000172955
3.1732e-05
0.000155901
3.40952e-05
0.00013799
3.58086e-05
0.000119474
3.70198e-05
0.000100583
3.77753e-05
8.14904e-05
3.81758e-05
6.24124e-05
3.81539e-05
4.3583e-05
3.76431e-05
2.52118e-05
3.6733e-05
7.42133e-06
3.55725e-05
-9.74932e-06
3.43401e-05
-2.61564e-05
3.28109e-05
-4.17323e-05
3.11476e-05
-5.64441e-05
2.94193e-05
-7.02157e-05
2.75379e-05
-8.30452e-05
2.56561e-05
-9.49327e-05
2.3772e-05
-0.000105879
2.18906e-05
-0.000115878
1.99977e-05
-0.000124994
1.82318e-05
-0.000133202
1.64165e-05
-0.000140505
1.4603e-05
-0.000146991
1.29698e-05
-0.000152616
1.12438e-05
-0.000157443
9.65641e-06
-0.000161468
8.04449e-06
-0.000164693
6.44999e-06
-0.000167173
4.9592e-06
-0.00016889
3.43246e-06
-0.000169815
1.85077e-06
-0.000170027
4.26187e-07
-0.000169307
-1.44778e-06
-0.000167848
-2.92324e-06
-0.00016557
-4.54707e-06
-0.000162444
-6.25611e-06
-0.000158452
-7.98553e-06
-0.000153704
-9.49491e-06
-0.000147896
-1.16145e-05
-0.000141421
-1.29549e-05
-0.000133837
-1.51603e-05
-0.000125305
-1.70608e-05
-0.000115878
-1.88533e-05
-0.000105505
-2.07476e-05
-9.41539e-05
-2.26966e-05
-8.20711e-05
-2.41724e-05
-6.90097e-05
-2.61113e-05
-5.51411e-05
-2.77351e-05
-4.04242e-05
-2.94256e-05
-2.48623e-05
-3.11095e-05
-8.6613e-06
-3.24129e-05
8.11889e-06
-3.35489e-05
2.54033e-05
-3.45675e-05
4.30922e-05
-3.53758e-05
6.11027e-05
-3.59965e-05
7.92686e-05
-3.63274e-05
9.73915e-05
-3.6214e-05
0.000115398
-3.60205e-05
0.000132966
-3.51204e-05
0.000150046
-3.41463e-05
0.00016629
-3.24722e-05
0.00018143
-3.02525e-05
0.000195202
-2.75228e-05
0.000207312
-2.42043e-05
0.000217505
-2.03827e-05
0.000225589
-1.61647e-05
0.000231326
-1.14661e-05
0.000234677
-6.69901e-06
0.000235579
-1.80533e-06
0.000233953
3.23557e-06
0.000229821
8.24699e-06
0.000223301
1.3033e-05
0.000214432
1.77319e-05
0.000203424
2.20106e-05
0.000190396
2.60376e-05
0.000175575
2.96181e-05
0.000159152
3.28367e-05
0.000141415
3.5467e-05
0.000122635
3.75455e-05
0.000103078
3.90906e-05
8.30368e-05
4.00605e-05
6.27897e-05
4.04848e-05
4.26032e-05
4.03689e-05
2.27079e-05
3.97751e-05
3.31759e-06
3.87558e-05
-1.53576e-05
3.73467e-05
-3.32719e-05
3.58212e-05
-5.01964e-05
3.38343e-05
-6.61053e-05
3.18142e-05
-8.0886e-05
2.95489e-05
-9.45427e-05
2.73104e-05
-0.000107155
2.5217e-05
-0.000118552
2.27868e-05
-0.00012886
2.06126e-05
-0.00013804
1.83539e-05
-0.000146146
1.62358e-05
-0.000153269
1.42134e-05
-0.000159349
1.21628e-05
-0.000164572
1.04382e-05
-0.000168818
8.48579e-06
-0.0001722
6.76393e-06
-0.00017477
5.13075e-06
-0.000176549
3.54621e-06
-0.000177586
2.08088e-06
-0.00017791
6.44013e-07
-0.000177603
-6.16431e-07
-0.000176592
-2.03165e-06
-0.000174959
-3.26281e-06
-0.000172666
-4.60588e-06
-0.000169738
-5.83971e-06
-0.000166171
-7.12267e-06
-0.000161959
-8.44887e-06
-0.000157101
-9.72008e-06
-0.000151509
-1.11851e-05
-0.000145244
-1.25264e-05
-0.000138147
-1.41546e-05
-0.000130384
-1.55743e-05
-0.000121739
-1.72776e-05
-0.00011228
-1.89157e-05
-0.000101937
-2.06787e-05
-9.06643e-05
-2.24859e-05
-7.86183e-05
-2.4151e-05
-6.56263e-05
-2.59652e-05
-5.18218e-05
-2.76139e-05
-3.72022e-05
-2.92284e-05
-2.18515e-05
-3.0697e-05
-5.90562e-06
-3.18704e-05
1.06155e-05
-3.30405e-05
2.75475e-05
-3.38329e-05
4.47686e-05
-3.44278e-05
6.21345e-05
-3.4717e-05
7.93777e-05
-3.44709e-05
9.63565e-05
-3.39405e-05
0.00011284
-3.29505e-05
0.000128623
-3.15462e-05
0.000143407
-2.95367e-05
0.000156941
-2.70706e-05
0.000169025
-2.41562e-05
0.000179373
-2.06872e-05
0.000187729
-1.66914e-05
0.000193965
-1.24547e-05
0.000197892
-7.84221e-06
0.000199372
-2.96017e-06
0.000198458
1.81526e-06
0.000195053
6.8122e-06
0.000189183
1.17412e-05
0.000181032
1.62935e-05
0.000170714
2.06283e-05
0.000158425
2.45569e-05
0.000144373
2.81068e-05
0.000128828
3.1077e-05
0.000112039
3.35628e-05
9.43201e-05
3.54147e-05
7.59228e-05
3.67819e-05
5.71202e-05
3.75878e-05
3.81889e-05
3.78548e-05
1.93635e-05
3.76426e-05
8.86975e-07
3.69283e-05
-1.70657e-05
3.58925e-05
-3.43798e-05
3.46281e-05
-5.10434e-05
3.3315e-05
-6.68285e-05
3.15557e-05
-8.16998e-05
2.97336e-05
-9.55228e-05
2.76355e-05
-0.000108268
2.5483e-05
-0.000119851
2.31582e-05
-0.000130309
2.09151e-05
-0.000139715
1.88222e-05
-0.000148136
1.68266e-05
-0.00015562
1.49674e-05
-0.000162247
1.32526e-05
-0.000168039
1.15806e-05
-0.000173128
1.01648e-05
-0.000177473
8.68574e-06
-0.000181107
7.2639e-06
-0.00018405
5.88834e-06
-0.00018638
4.65348e-06
-0.000187981
3.19056e-06
-0.000188931
1.90477e-06
-0.000189186
5.07916e-07
-0.000188749
-8.73712e-07
-0.000187665
-2.21645e-06
-0.000185957
-3.36582e-06
-0.000183657
-4.60037e-06
-0.00018074
-5.84793e-06
-0.000177248
-6.98097e-06
-0.000173129
-8.24112e-06
-0.000168352
-9.54481e-06
-0.000163046
-1.06065e-05
-0.000157021
-1.20638e-05
-0.000150296
-1.34737e-05
-0.000142882
-1.47921e-05
-0.000134717
-1.63358e-05
-0.000125774
-1.78773e-05
-0.000116036
-1.94544e-05
-0.000105491
-2.11148e-05
-9.40952e-05
-2.27701e-05
-8.1849e-05
-2.44889e-05
-6.87132e-05
-2.6259e-05
-5.48717e-05
-2.76699e-05
-4.02446e-05
-2.92529e-05
-2.49131e-05
-3.06541e-05
-8.96998e-06
-3.19132e-05
7.39169e-06
-3.26673e-05
2.4065e-05
-3.33221e-05
4.08847e-05
-3.36327e-05
5.76553e-05
-3.35196e-05
7.4189e-05
-3.30565e-05
9.02885e-05
-3.2187e-05
0.000105702
-3.08205e-05
0.000120213
-2.90053e-05
0.00013354
-2.66301e-05
0.000145425
-2.37483e-05
0.000155606
-2.03513e-05
0.000163871
-1.65104e-05
0.000170032
-1.232e-05
0.000173953
-7.84792e-06
0.000175506
-3.10303e-06
0.000174732
1.5435e-06
0.000171553
6.36087e-06
0.000165962
1.11679e-05
0.00015817
1.55802e-05
0.000148253
1.98188e-05
0.000136411
2.3663e-05
0.000122838
2.71441e-05
0.000107803
3.00466e-05
9.1594e-05
3.23953e-05
7.44784e-05
3.42035e-05
5.67193e-05
3.55249e-05
3.86191e-05
3.61857e-05
2.04094e-05
3.6414e-05
2.31301e-06
3.61954e-05
-1.54768e-05
3.55698e-05
-3.27952e-05
3.46386e-05
-4.94796e-05
3.3364e-05
-6.54324e-05
3.19115e-05
-8.05728e-05
3.02768e-05
-9.48055e-05
2.84698e-05
-0.000108113
2.66124e-05
-0.000120445
2.4661e-05
-0.000131674
2.24481e-05
-0.000141878
2.04112e-05
-0.000151116
1.84894e-05
-0.000159278
1.63235e-05
-0.000166407
1.42545e-05
-0.000172522
1.22339e-05
-0.000177647
1.02451e-05
-0.000181755
8.21249e-06
-0.000184922
6.33151e-06
-0.000187095
4.34789e-06
-0.000188354
2.51424e-06
-0.000188762
8.27452e-07
-0.000188242
-1.03609e-06
-0.000186863
-2.75596e-06
-0.000184836
-4.0511e-06
-0.000182199
-5.26414e-06
-0.000179059
-6.27777e-06
-0.000175578
-6.96181e-06
-0.000171736
-7.6776e-06
-0.000167563
-8.34189e-06
-0.000163176
-8.77485e-06
-0.000158389
-9.57346e-06
-0.000153354
-1.00659e-05
-0.000147993
-1.07297e-05
-0.000142148
-1.16951e-05
-0.000135825
-1.26481e-05
-0.000129052
-1.35496e-05
-0.000121488
-1.51329e-05
-0.000113153
-1.66722e-05
-0.000104058
-1.81937e-05
-9.39315e-05
-2.02583e-05
-8.29394e-05
-2.19809e-05
-7.07552e-05
-2.43689e-05
-5.74449e-05
-2.66064e-05
-4.32288e-05
-2.84356e-05
-2.79841e-05
-3.0486e-05
-1.17985e-05
-3.23666e-05
4.93985e-06
-3.34678e-05
2.24246e-05
-3.49584e-05
4.02474e-05
-3.56321e-05
5.83496e-05
-3.61903e-05
7.64696e-05
-3.62297e-05
9.41726e-05
-3.53923e-05
0.000111305
-3.42477e-05
0.000127595
-3.25623e-05
0.000142688
-3.0167e-05
0.000156417
-2.74414e-05
0.000168485
-2.41339e-05
0.000178778
-2.05853e-05
0.000187075
-1.65859e-05
0.00019318
-1.22002e-05
0.000197045
-7.71532e-06
0.00019861
-3.10858e-06
0.000197751
1.69438e-06
0.00019461
6.25645e-06
0.000189172
1.08723e-05
0.000181763
1.48112e-05
0.000172498
1.85231e-05
0.000161478
2.20288e-05
0.000149136
2.46719e-05
0.000135615
2.70292e-05
0.000121122
2.8976e-05
0.000105912
3.04123e-05
9.01255e-05
3.15623e-05
7.39846e-05
3.22719e-05
5.77684e-05
3.24239e-05
4.1555e-05
3.24232e-05
2.53941e-05
3.23148e-05
9.44577e-06
3.18896e-05
-6.0564e-06
3.10036e-05
-2.11566e-05
3.01963e-05
-3.58113e-05
2.93051e-05
-4.99201e-05
2.82151e-05
-6.34099e-05
2.69753e-05
-7.62727e-05
2.57215e-05
-8.8433e-05
2.43186e-05
-9.99038e-05
2.29393e-05
-0.000110624
2.14367e-05
-0.000120552
1.98569e-05
-0.000129689
1.82762e-05
-0.000137998
1.66166e-05
-0.000145456
1.4914e-05
-0.000152055
1.31998e-05
-0.000157782
1.14536e-05
-0.000162637
9.71161e-06
-0.000166615
7.95541e-06
-0.000169712
6.19553e-06
-0.000171949
4.47292e-06
2.73993e-06
-4.22355e-05
-3.79487e-05
-2.83036e-05
-4.17776e-05
-1.31672e-05
-4.54164e-05
2.77972e-06
-4.78182e-05
1.96804e-05
-5.0675e-05
3.71429e-05
-5.23483e-05
5.53529e-05
-5.45846e-05
7.39607e-05
-5.57642e-05
9.26342e-05
-5.59644e-05
0.000111426
-5.63018e-05
0.000130011
-5.56964e-05
0.000148023
-5.39879e-05
0.000165386
-5.20371e-05
0.000181769
-4.90817e-05
0.000196902
-4.53429e-05
0.000210541
-4.08698e-05
0.000222408
-3.55755e-05
0.000232343
-2.97634e-05
0.00024012
-2.32906e-05
0.000245584
-1.63576e-05
0.000248639
-9.16316e-06
0.000249294
-2.00973e-06
0.000247358
5.71891e-06
0.000242985
1.31023e-05
0.000236235
2.02198e-05
0.000227321
2.67292e-05
0.000216369
3.28019e-05
0.000203467
3.86794e-05
0.000188953
4.35153e-05
0.000173049
4.76363e-05
0.000155971
5.11727e-05
0.000138039
5.37407e-05
0.000119498
5.55607e-05
0.000100597
5.66761e-05
8.14893e-05
5.72838e-05
6.24176e-05
5.72256e-05
4.35547e-05
5.65059e-05
2.51662e-05
5.51215e-05
7.36027e-06
5.33784e-05
-9.81211e-06
5.15125e-05
-2.62258e-05
4.92245e-05
-4.18071e-05
4.6729e-05
-5.65233e-05
4.41354e-05
-7.0298e-05
4.13126e-05
-8.3127e-05
3.84852e-05
-9.50152e-05
3.56601e-05
-0.000105963
3.2838e-05
-0.000115963
2.99978e-05
-0.00012508
2.7349e-05
-0.000133285
2.46217e-05
-0.000140587
2.19048e-05
-0.000147072
1.94549e-05
-0.0001527
1.68717e-05
-0.000157523
1.44791e-05
-0.00016155
1.2072e-05
-0.000164773
9.67249e-06
-0.000167255
7.44126e-06
-0.000168978
5.15599e-06
-0.000169894
2.76699e-06
-0.000170089
6.20959e-07
-0.000169374
-2.16279e-06
-0.000167925
-4.37243e-06
-0.000165646
-6.82581e-06
-0.000162518
-9.38398e-06
-0.000158526
-1.19781e-05
-0.000153781
-1.424e-05
-0.00014797
-1.74249e-05
-0.000141496
-1.94289e-05
-0.000133914
-2.27424e-05
-0.000125376
-2.55993e-05
-0.000115953
-2.82764e-05
-0.000105576
-3.11239e-05
-9.42248e-05
-3.40483e-05
-8.21469e-05
-3.62503e-05
-6.90811e-05
-3.91772e-05
-5.52118e-05
-4.16045e-05
-4.04864e-05
-4.41511e-05
-2.48995e-05
-4.66966e-05
-8.70858e-06
-4.86039e-05
8.06382e-06
-5.03214e-05
2.53616e-05
-5.18653e-05
4.30604e-05
-5.30749e-05
6.10898e-05
-5.40259e-05
7.926e-05
-5.44978e-05
9.74072e-05
-5.43612e-05
0.000115424
-5.40374e-05
0.000133006
-5.27026e-05
0.000150101
-5.12417e-05
0.00016638
-4.8751e-05
0.000181543
-4.54155e-05
0.00019533
-4.13104e-05
0.000207458
-3.63319e-05
0.000217672
-3.05972e-05
0.000225746
-2.42388e-05
0.000231494
-1.72143e-05
0.000234848
-1.00531e-05
0.000235721
-2.67797e-06
0.000234061
4.89484e-06
0.000229922
1.23866e-05
0.000223397
1.95576e-05
0.000214499
2.66298e-05
0.000203465
3.30443e-05
0.000190419
3.90845e-05
0.000175579
4.4458e-05
0.000159147
4.92683e-05
0.000141377
5.32367e-05
0.000122563
5.63598e-05
0.00010298
5.86732e-05
8.29248e-05
6.01159e-05
6.26551e-05
6.07545e-05
4.24427e-05
6.05814e-05
2.25285e-05
5.96893e-05
3.12155e-06
5.81628e-05
-1.55983e-05
5.60667e-05
-3.3496e-05
5.37189e-05
-5.04368e-05
5.07752e-05
-6.63375e-05
4.77149e-05
-8.11379e-05
4.43493e-05
-9.48196e-05
4.09921e-05
-0.000107405
3.78026e-05
-0.000118804
3.41854e-05
-0.000129098
3.0907e-05
-0.000138271
2.75269e-05
-0.000146377
2.43419e-05
-0.000153508
2.13443e-05
-0.000159611
1.8266e-05
-0.000164805
1.56316e-05
-0.000169057
1.27382e-05
-0.000172434
1.01412e-05
-0.000175005
7.70122e-06
-0.000176785
5.32681e-06
-0.000177822
3.1179e-06
-0.000178145
9.66177e-07
-0.000177819
-9.4249e-07
-0.000176814
-3.0362e-06
-0.000175173
-4.90393e-06
-0.000172903
-6.87564e-06
-0.000169971
-8.77186e-06
-0.000166359
-1.07352e-05
-0.000162195
-1.26127e-05
-0.000157343
-1.45719e-05
-0.000151757
-1.67712e-05
-0.000145493
-1.87907e-05
-0.000138394
-2.12536e-05
-0.000130625
-2.33431e-05
-0.000121975
-2.5928e-05
-0.000112514
-2.83766e-05
-0.000102176
-3.10164e-05
-9.09015e-05
-3.37609e-05
-7.88507e-05
-3.62019e-05
-6.58688e-05
-3.89472e-05
-5.20575e-05
-4.14253e-05
-3.74114e-05
-4.38746e-05
-2.20797e-05
-4.60288e-05
-6.09736e-06
-4.78528e-05
1.04341e-05
-4.95721e-05
2.73804e-05
-5.07793e-05
4.46125e-05
-5.166e-05
6.19817e-05
-5.20864e-05
7.92606e-05
-5.17498e-05
9.62669e-05
-5.09469e-05
0.000112766
-4.945e-05
0.000128559
-4.73391e-05
0.000143366
-4.4344e-05
0.000156921
-4.06251e-05
0.000169029
-3.62652e-05
0.000179386
-3.10436e-05
0.000187777
-2.50828e-05
0.000194017
-1.86948e-05
0.00019793
-1.17558e-05
0.000199445
-4.47483e-06
0.000198511
2.74969e-06
0.000195081
1.02419e-05
0.000189228
1.75936e-05
0.00018106
2.44617e-05
0.000170731
3.09569e-05
0.000158407
3.68812e-05
0.000144387
4.21266e-05
0.000128794
4.66706e-05
0.000112007
5.03495e-05
9.4216e-05
5.32055e-05
7.5801e-05
5.51968e-05
5.69792e-05
5.64095e-05
3.80271e-05
5.68069e-05
1.92225e-05
5.64472e-05
6.95113e-07
5.54558e-05
-1.7273e-05
5.38606e-05
-3.46179e-05
5.1973e-05
-5.12456e-05
4.99428e-05
-6.70439e-05
4.7354e-05
-8.19284e-05
4.46181e-05
-9.57669e-05
4.1474e-05
-0.000108517
3.82331e-05
-0.00012011
3.47513e-05
-0.000130569
3.13738e-05
-0.000139932
2.81855e-05
-0.000148374
2.52679e-05
-0.000155844
2.24374e-05
-0.000162462
1.98707e-05
-0.000168285
1.74041e-05
-0.000173356
1.52359e-05
-0.000177698
1.3028e-05
-0.000181337
1.09024e-05
-0.000184288
8.83963e-06
-0.000186613
6.97832e-06
-0.000188225
4.80199e-06
-0.000189168
2.84794e-06
-0.000189416
7.55975e-07
-0.000188963
-1.32645e-06
-0.000187902
-3.27753e-06
-0.000186167
-5.10081e-06
-0.00018387
-6.8971e-06
-0.000180967
-8.75171e-06
-0.000177475
-1.04728e-05
-0.000173358
-1.23582e-05
-0.000168631
-1.42714e-05
-0.000163267
-1.59708e-05
-0.000157246
-1.8084e-05
-0.00015054
-2.01798e-05
-0.000143113
-2.22191e-05
-0.000134942
-2.45073e-05
-0.000126005
-2.68144e-05
-0.000116215
-2.92439e-05
-0.000105726
-3.1604e-05
-9.43296e-05
-3.41668e-05
-8.2068e-05
-3.67507e-05
-6.89246e-05
-3.94024e-05
-5.50794e-05
-4.15151e-05
-4.04439e-05
-4.38885e-05
-2.51045e-05
-4.59935e-05
-9.17929e-06
-4.78385e-05
7.21575e-06
-4.90624e-05
2.39052e-05
-5.00116e-05
4.07375e-05
-5.0465e-05
5.75332e-05
-5.03154e-05
7.40842e-05
-4.96076e-05
9.0202e-05
-4.83049e-05
0.000105637
-4.62551e-05
0.000120169
-4.35379e-05
0.00013352
-3.99812e-05
0.000145431
-3.56588e-05
0.000155629
-3.05493e-05
0.000163909
-2.4791e-05
0.00017008
-1.84908e-05
0.000173994
-1.17622e-05
0.000175564
-4.67356e-06
0.000174769
2.33892e-06
0.000171581
9.54893e-06
0.000165982
1.67668e-05
0.000158185
2.3377e-05
0.000148262
2.97417e-05
0.000136391
3.55335e-05
0.000122795
4.07403e-05
0.000107735
4.51065e-05
9.15026e-05
4.86279e-05
7.43593e-05
5.13467e-05
5.66046e-05
5.32795e-05
3.84934e-05
5.42969e-05
2.02834e-05
5.46239e-05
2.20461e-06
5.42742e-05
-1.56203e-05
5.33947e-05
-3.29117e-05
5.193e-05
-4.96175e-05
5.00698e-05
-6.55801e-05
4.78741e-05
-8.07039e-05
4.54005e-05
-9.49354e-05
4.27013e-05
-0.000108233
3.99098e-05
-0.000120558
3.6986e-05
-0.0001318
3.36906e-05
-0.000142001
3.06117e-05
-0.000151222
2.77104e-05
-0.000159382
2.44839e-05
-0.000166518
2.13903e-05
-0.000172623
1.83385e-05
-0.00017775
1.53729e-05
-0.000181852
1.23141e-05
-0.000185031
9.5108e-06
-0.00018721
6.52664e-06
-0.000188465
3.7694e-06
-0.000188848
1.21066e-06
-0.000188314
-1.57107e-06
-0.000186925
-4.14422e-06
-0.000184894
-6.08194e-06
-0.000182246
-7.91212e-06
-0.000179094
-9.42983e-06
-0.000175615
-1.04414e-05
-0.000171764
-1.1528e-05
-0.000167585
-1.2521e-05
-0.000163199
-1.31608e-05
-0.000158411
-1.43616e-05
-0.000153375
-1.5102e-05
-0.000148025
-1.60797e-05
-0.000142187
-1.75337e-05
-0.000135871
-1.89632e-05
-0.000129107
-2.0314e-05
-0.000121551
-2.26893e-05
-0.00011322
-2.50026e-05
-0.000104135
-2.72795e-05
-9.40171e-05
-3.03758e-05
-8.30216e-05
-3.29765e-05
-7.08424e-05
-3.65482e-05
-5.75166e-05
-3.99323e-05
-4.33036e-05
-4.26487e-05
-2.80555e-05
-4.57342e-05
-1.18627e-05
-4.85595e-05
4.89038e-06
-5.02209e-05
2.23953e-05
-5.24634e-05
4.02363e-05
-5.34733e-05
5.83595e-05
-5.43136e-05
7.65036e-05
-5.43739e-05
9.42305e-05
-5.31194e-05
0.000111387
-5.14046e-05
0.000127704
-4.8879e-05
0.000142814
-4.52772e-05
0.000156562
-4.11895e-05
0.000168652
-3.62237e-05
0.000178966
-3.08998e-05
0.000187289
-2.49082e-05
0.000193412
-1.83235e-05
0.000197276
-1.15797e-05
0.000198833
-4.66577e-06
0.000197938
2.59002e-06
0.000194774
9.41944e-06
0.00018933
1.6317e-05
0.000181905
2.22355e-05
0.000172628
2.78e-05
0.000161594
3.30633e-05
0.000149229
3.70368e-05
0.000135689
4.05693e-05
0.000121177
4.34879e-05
0.000105955
4.56337e-05
9.01534e-05
4.73642e-05
7.39976e-05
4.84277e-05
5.7767e-05
4.86544e-05
4.15498e-05
4.86403e-05
2.53786e-05
4.84859e-05
9.42203e-06
4.78462e-05
-6.09052e-06
4.65161e-05
-2.1199e-05
4.53047e-05
-3.58596e-05
4.39658e-05
-4.99738e-05
4.23293e-05
-6.34668e-05
4.04683e-05
-7.63318e-05
3.85865e-05
-8.84947e-05
3.64814e-05
-9.99666e-05
3.44112e-05
-0.000110686
3.21563e-05
-0.000120616
2.97866e-05
-0.000129754
2.74143e-05
-0.000138063
2.49257e-05
-0.00014552
2.23712e-05
-0.00015212
1.97994e-05
-0.000157846
1.71802e-05
-0.000162702
1.45675e-05
-0.000166681
1.19341e-05
-0.000169779
9.29388e-06
-0.000172024
6.71717e-06
4.10185e-06
-4.23466e-05
-5.0607e-05
-2.84045e-05
-5.57199e-05
-1.32717e-05
-6.05494e-05
2.69119e-06
-6.37812e-05
1.96107e-05
-6.75947e-05
3.70993e-05
-6.98371e-05
5.53395e-05
-7.28249e-05
7.39811e-05
-7.4406e-05
9.269e-05
-7.46734e-05
0.00011152
-7.51322e-05
0.000130141
-7.4317e-05
0.000148192
-7.20393e-05
0.000165587
-6.94319e-05
0.000182003
-6.54978e-05
0.000197159
-6.04994e-05
0.000210831
-5.45415e-05
0.000222725
-4.747e-05
0.000232686
-3.97247e-05
0.000240467
-3.10714e-05
0.000245937
-2.18282e-05
0.000249008
-1.22334e-05
0.000249636
-2.63797e-06
0.000247646
7.7083e-06
0.000243257
1.7492e-05
0.000236486
2.69902e-05
0.00022756
3.56555e-05
0.000216582
4.37796e-05
0.000203664
5.15975e-05
0.000189144
5.80349e-05
0.00017319
6.35903e-05
0.000156077
6.82859e-05
0.000138112
7.17052e-05
0.000119535
7.41373e-05
0.000100618
7.55931e-05
8.14866e-05
7.64156e-05
6.24049e-05
7.63073e-05
4.35137e-05
7.53971e-05
2.50987e-05
7.35365e-05
7.27014e-06
7.1207e-05
-9.90612e-06
6.86887e-05
-2.63301e-05
6.56484e-05
-4.19196e-05
6.23184e-05
-5.66427e-05
5.88586e-05
-7.04241e-05
5.5094e-05
-8.3254e-05
5.13151e-05
-9.5144e-05
4.75502e-05
-0.000106092
4.37858e-05
-0.000116092
3.99977e-05
-0.000125208
3.64653e-05
-0.000133413
3.28261e-05
-0.000140717
2.92095e-05
-0.000147198
2.59359e-05
-0.000152837
2.25103e-05
-0.000157652
1.92942e-05
-0.000161682
1.61018e-05
-0.000164904
1.28942e-05
-0.000167385
9.92249e-06
-0.000169111
6.88203e-06
-0.000170017
3.67255e-06
-0.000170191
7.95759e-07
-0.000169478
-2.87644e-06
-0.000168048
-5.80184e-06
-0.000165763
-9.11136e-06
-0.000162632
-1.25145e-05
-0.000158641
-1.59694e-05
-0.000153897
-1.89844e-05
-0.000148109
-2.32124e-05
-0.00014161
-2.59279e-05
-0.00013403
-3.03229e-05
-0.000125482
-3.41476e-05
-0.000116067
-3.76916e-05
-0.000105687
-4.15037e-05
-9.43331e-05
-4.54021e-05
-8.22671e-05
-4.83164e-05
-6.91898e-05
-5.22545e-05
-5.53191e-05
-5.54753e-05
-4.05787e-05
-5.88916e-05
-2.49459e-05
-6.23294e-05
-8.78679e-06
-6.47632e-05
7.98394e-06
-6.70923e-05
2.52982e-05
-6.91797e-05
4.3015e-05
-7.07917e-05
6.10763e-05
-7.20874e-05
7.92422e-05
-7.26638e-05
9.74282e-05
-7.25473e-05
0.000115444
-7.20536e-05
0.000133063
-7.03214e-05
0.000150173
-6.83516e-05
0.000166482
-6.50598e-05
0.000181679
-6.06131e-05
0.000195493
-5.51248e-05
0.000207639
-4.8478e-05
0.000217905
-4.08629e-05
0.000225941
-3.22744e-05
0.000231697
-2.29708e-05
0.000235046
-1.34018e-05
0.000235884
-3.5161e-06
0.000234189
6.58977e-06
0.000230044
1.65312e-05
0.000223458
2.61432e-05
0.000214565
3.55235e-05
0.00020351
4.40993e-05
0.000190431
5.21625e-05
0.000175545
5.93443e-05
0.00015909