/*--------------------------------*- C++ -*----------------------------------*\
| =========                 |                                                 |
| \\      /  F ield         | OpenFOAM: The Open Source CFD Toolbox           |
|  \\    /   O peration     | Version:  3.0.1                                 |
|   \\  /    A nd           | Web:      www.OpenFOAM.org                      |
|    \\/     M anipulation  |                                                 |
\*---------------------------------------------------------------------------*/
FoamFile
{
    version     2.0;
    format      ascii;
    class       volVectorField;
    location    "65.2";
    object      U;
}
// * * * * * * * * * * * * * * * * * * * * * * * * * * * * * * * * * * * * * //

dimensions      [0 1 -1 0 0 0 0];

internalField   nonuniform List<vector> 
21420
(
(-0.0497181 -0.00133296 0)
(-0.0374659 -0.00143915 0)
(-0.0223998 -0.00152383 0)
(-0.00648549 -0.00160602 0)
(0.00998515 -0.00169397 0)
(0.0272342 -0.0017502 0)
(0.0451874 -0.00182301 0)
(0.0636306 -0.00185055 0)
(0.0823683 -0.00185735 0)
(0.101204 -0.00187827 0)
(0.119923 -0.00184198 0)
(0.138276 -0.0017805 0)
(0.156011 -0.00172752 0)
(0.172875 -0.00161667 0)
(0.188606 -0.00150774 0)
(0.202954 -0.00134883 0)
(0.215674 -0.00116951 0)
(0.22654 -0.000982885 0)
(0.23536 -0.000767689 0)
(0.241976 -0.000540677 0)
(0.246276 -0.000303322 0)
(0.248139 -6.84571e-05 0)
(0.247652 0.000174179 0)
(0.244655 0.000416484 0)
(0.239245 0.000652862 0)
(0.231583 0.000864655 0)
(0.221787 0.00107149 0)
(0.210027 0.00126619 0)
(0.196509 0.00141319 0)
(0.181473 0.00156044 0)
(0.165149 0.00168843 0)
(0.147785 0.00175708 0)
(0.129641 0.00183316 0)
(0.110962 0.00185244 0)
(0.0919749 0.00188037 0)
(0.0728697 0.00188786 0)
(0.0538493 0.00184939 0)
(0.0350738 0.00181737 0)
(0.0166872 0.00176773 0)
(-0.000571957 0.00169323 0)
(-0.016892 0.00162449 0)
(-0.0327614 0.00153519 0)
(-0.0478269 0.00145394 0)
(-0.062018 0.00136659 0)
(-0.0752914 0.00126893 0)
(-0.0876362 0.00117852 0)
(-0.0990471 0.00108665 0)
(-0.109528 0.000992022 0)
(-0.119097 0.00090303 0)
(-0.12777 0.000814712 0)
(-0.135566 0.000727 0)
(-0.142506 0.000643752 0)
(-0.148619 0.000560171 0)
(-0.153928 0.000480826 0)
(-0.158428 0.000400932 0)
(-0.162159 0.000321635 0)
(-0.165135 0.000246993 0)
(-0.167325 0.00017068 0)
(-0.168716 9.18787e-05 0)
(-0.16936 2.09256e-05 0)
(-0.169191 -6.63564e-05 0)
(-0.168211 -0.000139795 0)
(-0.166414 -0.000220203 0)
(-0.163749 -0.000309531 0)
(-0.160238 -0.000389519 0)
(-0.15589 -0.000471528 0)
(-0.150662 -0.000575342 0)
(-0.144489 -0.000648715 0)
(-0.137405 -0.000758042 0)
(-0.129385 -0.000849475 0)
(-0.120481 -0.000940056 0)
(-0.110644 -0.0010357 0)
(-0.099764 -0.00113105 0)
(-0.0879983 -0.00120611 0)
(-0.0753248 -0.00130213 0)
(-0.0618426 -0.00138413 0)
(-0.0476014 -0.0014679 0)
(-0.032523 -0.00155062 0)
(-0.0167615 -0.00161232 0)
(3.5071e-05 -0.00166804 0)
(0.0174343 -0.00172342 0)
(0.0349543 -0.00175539 0)
(0.052726 -0.0017874 0)
(0.0707459 -0.00180476 0)
(0.0888415 -0.00179584 0)
(0.106764 -0.00178693 0)
(0.124504 -0.00174258 0)
(0.14177 -0.00169437 0)
(0.158323 -0.0016071 0)
(0.17398 -0.00149605 0)
(0.188427 -0.00136156 0)
(0.201334 -0.0012013 0)
(0.212461 -0.00100981 0)
(0.221572 -0.000799846 0)
(0.228489 -0.000567567 0)
(0.23303 -0.000331723 0)
(0.235091 -8.93639e-05 0)
(0.234767 0.000157801 0)
(0.23184 0.000407666 0)
(0.226444 0.000647649 0)
(0.218767 0.000881029 0)
(0.208836 0.00109067 0)
(0.196803 0.00128861 0)
(0.182877 0.00146751 0)
(0.167261 0.00163196 0)
(0.150171 0.00176218 0)
(0.131902 0.00185822 0)
(0.112737 0.00193591 0)
(0.0929498 0.00198652 0)
(0.0728229 0.00201154 0)
(0.0526015 0.00200227 0)
(0.0325743 0.00196776 0)
(0.0129451 0.00192199 0)
(-0.00609791 0.00185572 0)
(-0.0243679 0.00177861 0)
(-0.0417556 0.00167551 0)
(-0.0581391 0.00157971 0)
(-0.0734767 0.00146275 0)
(-0.0877185 0.00135339 0)
(-0.100815 0.00125032 0)
(-0.11278 0.00112784 0)
(-0.123627 0.00102202 0)
(-0.133371 0.000910993 0)
(-0.142024 0.000806849 0)
(-0.149627 0.000704168 0)
(-0.156246 0.00060421 0)
(-0.161865 0.000515867 0)
(-0.166548 0.000422735 0)
(-0.170372 0.000336086 0)
(-0.173341 0.000251556 0)
(-0.175502 0.000176576 0)
(-0.176886 0.000104624 0)
(-0.177574 2.92392e-05 0)
(-0.177569 -2.90039e-05 0)
(-0.176896 -0.000100385 0)
(-0.175573 -0.000160691 0)
(-0.173611 -0.000227552 0)
(-0.170995 -0.000287843 0)
(-0.167771 -0.000354294 0)
(-0.163866 -0.000418416 0)
(-0.159296 -0.000481413 0)
(-0.154084 -0.000554685 0)
(-0.148157 -0.000622978 0)
(-0.141527 -0.000698541 0)
(-0.134103 -0.000774774 0)
(-0.125852 -0.000854559 0)
(-0.116793 -0.000936241 0)
(-0.106896 -0.00102414 0)
(-0.0961566 -0.00111232 0)
(-0.0844957 -0.00119678 0)
(-0.0719469 -0.00128616 0)
(-0.0585449 -0.00136956 0)
(-0.0443339 -0.00144564 0)
(-0.0293891 -0.00151855 0)
(-0.0137433 -0.00158163 0)
(0.00251035 -0.00163492 0)
(0.019231 -0.00167293 0)
(0.0363046 -0.00170603 0)
(0.0535597 -0.00172175 0)
(0.0708614 -0.00170634 0)
(0.0879825 -0.00167956 0)
(0.104696 -0.00163177 0)
(0.120797 -0.00156073 0)
(0.136073 -0.00146259 0)
(0.15025 -0.00134369 0)
(0.163067 -0.00119361 0)
(0.174262 -0.00102311 0)
(0.183627 -0.00082602 0)
(0.190923 -0.000613038 0)
(0.195961 -0.000390352 0)
(0.198672 -0.000145897 0)
(0.198951 9.05187e-05 0)
(0.196749 0.000338875 0)
(0.192065 0.0005832 0)
(0.185058 0.000808442 0)
(0.175809 0.00102058 0)
(0.164495 0.00121825 0)
(0.15132 0.00139403 0)
(0.136518 0.00154198 0)
(0.120333 0.00166484 0)
(0.103087 0.0017534 0)
(0.0850459 0.0018223 0)
(0.0664517 0.00186312 0)
(0.0475868 0.00188095 0)
(0.0287142 0.00186425 0)
(0.0100989 0.0018292 0)
(-0.00809299 0.00178128 0)
(-0.0257456 0.00171627 0)
(-0.042715 0.00165129 0)
(-0.0589151 0.00156559 0)
(-0.0742483 0.00147292 0)
(-0.0885856 0.00137058 0)
(-0.101838 0.00126251 0)
(-0.113959 0.00115053 0)
(-0.12497 0.001038 0)
(-0.134887 0.000932898 0)
(-0.143762 0.000831976 0)
(-0.151705 0.000744108 0)
(-0.158788 0.000658663 0)
(-0.16503 0.0005734 0)
(-0.170457 0.000502167 0)
(-0.175138 0.000430696 0)
(-0.179115 0.00036104 0)
(-0.182424 0.000292039 0)
(-0.185058 0.000229703 0)
(-0.187002 0.000158337 0)
(-0.188253 9.56533e-05 0)
(-0.188853 2.44461e-05 0)
(-0.188746 -4.18611e-05 0)
(-0.188007 -0.000112856 0)
(-0.186586 -0.000163007 0)
(-0.184567 -0.000228238 0)
(-0.181963 -0.0002907 0)
(-0.178737 -0.000342563 0)
(-0.174941 -0.000408821 0)
(-0.170544 -0.000470674 0)
(-0.165504 -0.000528193 0)
(-0.159791 -0.000600356 0)
(-0.15343 -0.000665538 0)
(-0.146363 -0.000730899 0)
(-0.138569 -0.000809904 0)
(-0.130035 -0.000885332 0)
(-0.120712 -0.000961684 0)
(-0.110576 -0.00104683 0)
(-0.0995978 -0.001126 0)
(-0.0877829 -0.00121532 0)
(-0.0751493 -0.00129666 0)
(-0.0616795 -0.00137154 0)
(-0.0473908 -0.00144878 0)
(-0.0324194 -0.00151678 0)
(-0.0168283 -0.0015841 0)
(-0.000664372 -0.00161612 0)
(0.0158851 -0.00165065 0)
(0.0326005 -0.00166599 0)
(0.0493849 -0.00166162 0)
(0.0660348 -0.00163775 0)
(0.0823422 -0.00159452 0)
(0.09809 -0.00152493 0)
(0.113047 -0.00143357 0)
(0.126963 -0.00131597 0)
(0.139555 -0.00117815 0)
(0.150582 -0.00100778 0)
(0.159813 -0.000816563 0)
(0.167014 -0.000613597 0)
(0.17206 -0.000388074 0)
(0.174809 -0.000151411 0)
(0.175195 7.81907e-05 0)
(0.173182 0.000312445 0)
(0.168748 0.00055295 0)
(0.162062 0.000774879 0)
(0.153173 0.000980392 0)
(0.142283 0.0011742 0)
(0.129574 0.00134736 0)
(0.115273 0.00148569 0)
(0.0996603 0.00160645 0)
(0.0830008 0.00169543 0)
(0.0655754 0.00176287 0)
(0.0476562 0.00179236 0)
(0.0295037 0.00180829 0)
(0.0113488 0.00179571 0)
(-0.00658547 0.00176139 0)
(-0.0241266 0.0017189 0)
(-0.0411174 0.00165817 0)
(-0.0574161 0.0015831 0)
(-0.0729357 0.00150054 0)
(-0.0876003 0.00141304 0)
(-0.10134 0.0013216 0)
(-0.114063 0.00122402 0)
(-0.125796 0.00111534 0)
(-0.136592 0.00101349 0)
(-0.146297 0.000920564 0)
(-0.154914 0.000809359 0)
(-0.162538 0.000706419 0)
(-0.169149 0.000607484 0)
(-0.174736 0.000507413 0)
(-0.179311 0.000406187 0)
(-0.182876 0.000314338 0)
(-0.185489 0.000214613 0)
(-0.187078 0.000124746 0)
(-0.187757 4.33075e-05 0)
(-0.187605 -4.77016e-05 0)
(-0.186591 -0.000129458 0)
(-0.184915 -0.000190683 0)
(-0.1827 -0.000249457 0)
(-0.179981 -0.000297525 0)
(-0.176925 -0.000330677 0)
(-0.17357 -0.000365974 0)
(-0.169848 -0.000398074 0)
(-0.165765 -0.000422093 0)
(-0.161311 -0.000462281 0)
(-0.15645 -0.000488719 0)
(-0.151353 -0.00052582 0)
(-0.145809 -0.000579278 0)
(-0.139701 -0.000624531 0)
(-0.133134 -0.000677821 0)
(-0.125904 -0.000756306 0)
(-0.117898 -0.000826401 0)
(-0.109146 -0.000901888 0)
(-0.0994625 -0.00100511 0)
(-0.0888042 -0.00109005 0)
(-0.0771599 -0.00120833 0)
(-0.064455 -0.00130613 0)
(-0.0507866 -0.00139703 0)
(-0.0360925 -0.00150882 0)
(-0.0203141 -0.00158956 0)
(-0.00406581 -0.0016454 0)
(0.0126965 -0.00172763 0)
(0.0302137 -0.00175771 0)
(0.0480609 -0.00179509 0)
(0.0660406 -0.00178346 0)
(0.083843 -0.00174177 0)
(0.101185 -0.00169888 0)
(0.117829 -0.00160881 0)
(0.133488 -0.00149058 0)
(0.14789 -0.00136245 0)
(0.160797 -0.00119866 0)
(0.171997 -0.00102208 0)
(0.181296 -0.000821367 0)
(0.188544 -0.000606442 0)
(0.193622 -0.000384953 0)
(0.19644 -0.00015561 0)
(0.196941 6.48468e-05 0)
(0.195172 0.000288078 0)
(0.191048 0.000512927 0)
(0.184867 0.000707917 0)
(0.176724 0.000896373 0)
(0.166802 0.00106943 0)
(0.155321 0.00120007 0)
(0.142517 0.00132696 0)
(0.128612 0.00143378 0)
(0.113839 0.00149331 0)
(0.0984248 0.00155493 0)
(0.0825685 0.0015982 0)
(0.0664519 0.00160033 0)
(0.0502315 0.0016106 0)
(0.0340093 0.00158628 0)
(0.0178426 0.00157348 0)
(0.00219305 0.00154226 0)
(-0.0129219 0.0014929 0)
(-0.0277646 0.00145362 0)
(-0.0421328 0.0014067 0)
(-0.0559501 0.00133953 0)
(-0.0691627 0.0012819 0)
(-0.0817238 0.00120746 0)
(-0.0935923 0.00114128 0)
(-0.104731 0.00107029 0)
(-0.115106 0.00098785 0)
(-0.124688 0.000910841 0)
(-0.133454 0.000830391 0)
(-0.14138 0.000743301 0)
(-0.148452 0.00065926 0)
(-0.154655 0.00057099 0)
(-0.159984 0.000484903 0)
(-0.164431 0.00039791 0)
(-0.167997 0.000309957 0)
(-0.170683 0.000223164 0)
(-0.172618 0.000136171 0)
(-0.0497566 -0.00399893 0)
(-0.037504 -0.00431761 0)
(-0.0224366 -0.00457178 0)
(-0.00651851 -0.00481847 0)
(0.00995651 -0.00508217 0)
(0.0272094 -0.00525104 0)
(0.0451676 -0.00546966 0)
(0.0636178 -0.00555239 0)
(0.0823633 -0.00557286 0)
(0.101208 -0.00563574 0)
(0.119936 -0.00552689 0)
(0.138298 -0.00534247 0)
(0.156045 -0.00518361 0)
(0.172917 -0.00485106 0)
(0.18866 -0.00452426 0)
(0.203017 -0.00404744 0)
(0.215745 -0.0035094 0)
(0.22662 -0.00294946 0)
(0.235446 -0.00230368 0)
(0.242066 -0.00162232 0)
(0.246365 -0.00091505 0)
(0.248243 -0.000200922 0)
(0.247752 0.000523972 0)
(0.244745 0.00124985 0)
(0.239336 0.00195879 0)
(0.231668 0.00259436 0)
(0.221866 0.00321516 0)
(0.210099 0.00379937 0)
(0.196571 0.00424043 0)
(0.181527 0.00468228 0)
(0.165194 0.00506629 0)
(0.147819 0.00527219 0)
(0.129666 0.00550042 0)
(0.110978 0.0055582 0)
(0.0919822 0.00564192 0)
(0.0728693 0.00566432 0)
(0.0538419 0.00554891 0)
(0.0350592 0.0054529 0)
(0.0166681 0.00530401 0)
(-0.000594187 0.00507947 0)
(-0.0169182 0.00487389 0)
(-0.0327896 0.00460588 0)
(-0.0478574 0.00436202 0)
(-0.0620501 0.0040999 0)
(-0.075324 0.00380697 0)
(-0.0876694 0.00353568 0)
(-0.0990806 0.00326004 0)
(-0.109561 0.00297622 0)
(-0.11913 0.00270917 0)
(-0.127803 0.00244445 0)
(-0.135598 0.00218128 0)
(-0.142538 0.00193141 0)
(-0.148651 0.00168104 0)
(-0.153961 0.00144231 0)
(-0.158461 0.00120326 0)
(-0.162194 0.000965249 0)
(-0.16517 0.000740774 0)
(-0.167363 0.000512455 0)
(-0.168758 0.00027651 0)
(-0.169402 6.41666e-05 0)
(-0.169236 -0.000198574 0)
(-0.168257 -0.000418145 0)
(-0.166463 -0.000660814 0)
(-0.163802 -0.000927906 0)
(-0.160293 -0.00116827 0)
(-0.155948 -0.00141446 0)
(-0.15072 -0.00172482 0)
(-0.144554 -0.00194963 0)
(-0.137467 -0.00227202 0)
(-0.129449 -0.00254886 0)
(-0.120541 -0.00281663 0)
(-0.110713 -0.00311345 0)
(-0.0998191 -0.00338957 0)
(-0.0880602 -0.00362096 0)
(-0.0753789 -0.00390949 0)
(-0.061893 -0.00414791 0)
(-0.0476549 -0.00440559 0)
(-0.0325636 -0.00464887 0)
(-0.0168111 -0.00484404 0)
(1.14098e-06 -0.00500726 0)
(0.017416 -0.00515697 0)
(0.0349223 -0.00527763 0)
(0.0527111 -0.00536587 0)
(0.0707453 -0.00541263 0)
(0.0888537 -0.00539175 0)
(0.106786 -0.005359 0)
(0.12454 -0.00522888 0)
(0.141823 -0.00507873 0)
(0.158382 -0.0048342 0)
(0.174062 -0.00450412 0)
(0.188534 -0.00409568 0)
(0.201465 -0.00359863 0)
(0.212598 -0.00303151 0)
(0.221712 -0.00240405 0)
(0.228635 -0.00170412 0)
(0.233181 -0.000995124 0)
(0.235248 -0.000270548 0)
(0.234915 0.000479968 0)
(0.231965 0.00122816 0)
(0.22656 0.00193827 0)
(0.218877 0.00263523 0)
(0.208945 0.00327693 0)
(0.196899 0.00387694 0)
(0.182955 0.0044083 0)
(0.167317 0.00488195 0)
(0.150221 0.00527024 0)
(0.131947 0.00558795 0)
(0.112758 0.00581903 0)
(0.0929472 0.00595881 0)
(0.0728023 0.00601911 0)
(0.0525799 0.00600364 0)
(0.0325432 0.0059216 0)
(0.0128888 0.00576357 0)
(-0.00616639 0.00555381 0)
(-0.024442 0.00532437 0)
(-0.0418358 0.00503372 0)
(-0.0582355 0.004733 0)
(-0.0735752 0.00439545 0)
(-0.0878271 0.00406464 0)
(-0.100934 0.00375148 0)
(-0.1129 0.00339269 0)
(-0.123755 0.0030684 0)
(-0.133505 0.00273122 0)
(-0.142162 0.00241429 0)
(-0.149769 0.00211112 0)
(-0.156387 0.00180885 0)
(-0.162011 0.0015546 0)
(-0.166705 0.00126093 0)
(-0.170527 0.00100674 0)
(-0.173497 0.000765918 0)
(-0.175674 0.000525939 0)
(-0.177065 0.000310149 0)
(-0.177743 9.95313e-05 0)
(-0.17775 -9.15975e-05 0)
(-0.177077 -0.000304036 0)
(-0.175759 -0.000483206 0)
(-0.173802 -0.000683818 0)
(-0.171191 -0.000866098 0)
(-0.167971 -0.00105828 0)
(-0.164069 -0.00126036 0)
(-0.159509 -0.00144692 0)
(-0.154289 -0.00166095 0)
(-0.14836 -0.00186233 0)
(-0.141728 -0.00210038 0)
(-0.134304 -0.00231798 0)
(-0.12605 -0.00256731 0)
(-0.116997 -0.00281485 0)
(-0.107089 -0.00307352 0)
(-0.0963475 -0.0033377 0)
(-0.084694 -0.00359818 0)
(-0.0721252 -0.00385986 0)
(-0.0587168 -0.00410484 0)
(-0.0445168 -0.00434973 0)
(-0.0295539 -0.00456447 0)
(-0.0138818 -0.00473605 0)
(0.00236825 -0.00491712 0)
(0.0191132 -0.00503169 0)
(0.0361981 -0.00511737 0)
(0.0534728 -0.00516001 0)
(0.0707871 -0.00512486 0)
(0.0879242 -0.00504836 0)
(0.10466 -0.00489977 0)
(0.120773 -0.00469115 0)
(0.13606 -0.00439077 0)
(0.150261 -0.0040264 0)
(0.163089 -0.00359444 0)
(0.174303 -0.00307622 0)
(0.183685 -0.00248012 0)
(0.190983 -0.00185546 0)
(0.196047 -0.00116263 0)
(0.198759 -0.000439001 0)
(0.199039 0.000262628 0)
(0.196829 0.0010141 0)
(0.192152 0.0017482 0)
(0.185143 0.00242283 0)
(0.175885 0.00307092 0)
(0.164559 0.00365291 0)
(0.151378 0.00418393 0)
(0.136562 0.00462419 0)
(0.120364 0.00498786 0)
(0.103104 0.00526757 0)
(0.0850447 0.00547622 0)
(0.0664339 0.00559256 0)
(0.0475561 0.00562799 0)
(0.0286787 0.00560105 0)
(0.0100398 0.00549379 0)
(-0.0081689 0.00533519 0)
(-0.0258197 0.00515329 0)
(-0.0428033 0.00495744 0)
(-0.0590168 0.00469126 0)
(-0.0743593 0.00442273 0)
(-0.088705 0.00410928 0)
(-0.101966 0.00379181 0)
(-0.114097 0.00344426 0)
(-0.125108 0.00311238 0)
(-0.135026 0.00280108 0)
(-0.143905 0.00250403 0)
(-0.151856 0.00222816 0)
(-0.158941 0.00196901 0)
(-0.165181 0.00172105 0)
(-0.170614 0.00151329 0)
(-0.175309 0.00129207 0)
(-0.179289 0.00107883 0)
(-0.182596 0.000877498 0)
(-0.185235 0.000692189 0)
(-0.187187 0.000473214 0)
(-0.188444 0.000283858 0)
(-0.189036 7.841e-05 0)
(-0.18894 -0.000132634 0)
(-0.188188 -0.000328199 0)
(-0.186773 -0.000493113 0)
(-0.184756 -0.000687076 0)
(-0.182152 -0.000868149 0)
(-0.17894 -0.00103958 0)
(-0.175141 -0.00122536 0)
(-0.170745 -0.00141868 0)
(-0.16569 -0.00157186 0)
(-0.159986 -0.00179602 0)
(-0.153636 -0.00200768 0)
(-0.146551 -0.00219365 0)
(-0.138764 -0.00243303 0)
(-0.130217 -0.00265779 0)
(-0.120896 -0.00289015 0)
(-0.11076 -0.00314376 0)
(-0.0997703 -0.00338398 0)
(-0.0879482 -0.00363825 0)
(-0.0753153 -0.00390981 0)
(-0.0618185 -0.00411307 0)
(-0.0475295 -0.00434888 0)
(-0.0325588 -0.00456196 0)
(-0.0169493 -0.00474689 0)
(-0.000766543 -0.00485564 0)
(0.0157859 -0.00495445 0)
(0.032527 -0.00500195 0)
(0.0493262 -0.00498249 0)
(0.0659832 -0.00491784 0)
(0.0823106 -0.00478667 0)
(0.0980664 -0.00458452 0)
(0.113035 -0.00431638 0)
(0.126972 -0.00396152 0)
(0.139591 -0.00352803 0)
(0.15063 -0.003028 0)
(0.15987 -0.00245415 0)
(0.16709 -0.0018299 0)
(0.172133 -0.00116575 0)
(0.174883 -0.000460551 0)
(0.175271 0.000224089 0)
(0.173253 0.000946181 0)
(0.168816 0.001662 0)
(0.162122 0.00231713 0)
(0.15323 0.00294882 0)
(0.14232 0.0035191 0)
(0.129602 0.00403617 0)
(0.115287 0.00447198 0)
(0.0996476 0.00481747 0)
(0.0829742 0.0050902 0)
(0.0655361 0.00528789 0)
(0.047609 0.00538277 0)
(0.02944 0.00541538 0)
(0.0112838 0.00538145 0)
(-0.00664769 0.00529381 0)
(-0.0241974 0.00515718 0)
(-0.041191 0.00495979 0)
(-0.0574831 0.00475055 0)
(-0.0730035 0.00450837 0)
(-0.0876697 0.00423981 0)
(-0.101409 0.00396275 0)
(-0.114131 0.00367208 0)
(-0.125865 0.00334548 0)
(-0.136661 0.00304451 0)
(-0.146366 0.00275552 0)
(-0.154977 0.00243088 0)
(-0.162603 0.00212631 0)
(-0.169212 0.00181962 0)
(-0.174797 0.00152523 0)
(-0.179374 0.00122084 0)
(-0.182938 0.000938728 0)
(-0.185551 0.000645053 0)
(-0.187141 0.000375984 0)
(-0.187816 0.000126673 0)
(-0.18766 -0.000140694 0)
(-0.186646 -0.000387385 0)
(-0.184966 -0.000574145 0)
(-0.182742 -0.00074716 0)
(-0.180023 -0.000893497 0)
(-0.176964 -0.000993164 0)
(-0.173603 -0.00109635 0)
(-0.169882 -0.00119602 0)
(-0.165797 -0.00126539 0)
(-0.161346 -0.00138742 0)
(-0.156485 -0.00146484 0)
(-0.15139 -0.00157789 0)
(-0.145847 -0.00173706 0)
(-0.139742 -0.00187452 0)
(-0.133175 -0.00203202 0)
(-0.12595 -0.00226856 0)
(-0.117946 -0.00247691 0)
(-0.109197 -0.0027021 0)
(-0.099515 -0.00301604 0)
(-0.0888588 -0.00327063 0)
(-0.0772166 -0.00362538 0)
(-0.0645107 -0.00391912 0)
(-0.0508407 -0.0041914 0)
(-0.0361426 -0.00452658 0)
(-0.020358 -0.00476882 0)
(-0.00410456 -0.00493693 0)
(0.0126644 -0.0051831 0)
(0.03019 -0.0052747 0)
(0.0480484 -0.00538642 0)
(0.0660387 -0.00535136 0)
(0.0838518 -0.0052264 0)
(0.101206 -0.00509796 0)
(0.117861 -0.00482762 0)
(0.133531 -0.00447333 0)
(0.147944 -0.00408944 0)
(0.160862 -0.00359639 0)
(0.172071 -0.00306649 0)
(0.181376 -0.00246421 0)
(0.188629 -0.00181893 0)
(0.193711 -0.001158 0)
(0.196527 -0.000476429 0)
(0.197045 0.000202868 0)
(0.195254 0.000866668 0)
(0.191134 0.00153905 0)
(0.184945 0.00212427 0)
(0.176796 0.00268977 0)
(0.166866 0.00320909 0)
(0.155376 0.00360105 0)
(0.142562 0.00398176 0)
(0.128649 0.00430222 0)
(0.113866 0.00448075 0)
(0.0984445 0.00466556 0)
(0.0825809 0.0047953 0)
(0.0664578 0.00480159 0)
(0.0502318 0.00483234 0)
(0.0340051 0.00475925 0)
(0.0178326 0.00472102 0)
(0.00217942 0.00462695 0)
(-0.0129369 0.00447898 0)
(-0.0277828 0.00436109 0)
(-0.0421537 0.00422035 0)
(-0.0559728 0.00401879 0)
(-0.0691875 0.00384588 0)
(-0.08175 0.00362256 0)
(-0.0936203 0.003424 0)
(-0.104761 0.003211 0)
(-0.115136 0.00296368 0)
(-0.12472 0.00273263 0)
(-0.133486 0.00249128 0)
(-0.141413 0.00222999 0)
(-0.148485 0.00197786 0)
(-0.15469 0.00171304 0)
(-0.160018 0.00145478 0)
(-0.164466 0.00119379 0)
(-0.168031 0.000929927 0)
(-0.170717 0.000669551 0)
(-0.172652 0.000408563 0)
(-0.0498331 -0.00666513 0)
(-0.0375793 -0.00719655 0)
(-0.0225091 -0.00762066 0)
(-0.00658316 -0.008032 0)
(0.0099008 -0.00847131 0)
(0.0271616 -0.0087533 0)
(0.0451301 -0.00911823 0)
(0.0635942 -0.00925642 0)
(0.0823554 -0.0092908 0)
(0.101218 -0.009396 0)
(0.119964 -0.00921468 0)
(0.138345 -0.00890739 0)
(0.156114 -0.00864279 0)
(0.173006 -0.00808845 0)
(0.188771 -0.00754378 0)
(0.203145 -0.0067488 0)
(0.215889 -0.00585172 0)
(0.226783 -0.00491817 0)
(0.23562 -0.00384147 0)
(0.242249 -0.00270577 0)
(0.246553 -0.00152368 0)
(0.248445 -0.000330366 0)
(0.247948 0.000871833 0)
(0.244923 0.00208441 0)
(0.239516 0.00326579 0)
(0.231835 0.00432575 0)
(0.22202 0.00536115 0)
(0.210238 0.00633514 0)
(0.19669 0.00707038 0)
(0.181627 0.00780716 0)
(0.165275 0.00844723 0)
(0.147879 0.00879025 0)
(0.129707 0.00917051 0)
(0.110999 0.00926658 0)
(0.0919869 0.00940589 0)
(0.0728587 0.00944294 0)
(0.0538171 0.00925045 0)
(0.0350197 0.00909046 0)
(0.0166195 0.0088424 0)
(-0.000648881 0.00846542 0)
(-0.0169805 0.00812418 0)
(-0.0328559 0.00767725 0)
(-0.047928 0.00727047 0)
(-0.0621233 0.00683338 0)
(-0.0753978 0.00634516 0)
(-0.0877437 0.00589278 0)
(-0.0991545 0.00543335 0)
(-0.109633 0.00496025 0)
(-0.119201 0.0045152 0)
(-0.127873 0.00407394 0)
(-0.135665 0.00363555 0)
(-0.142604 0.00321925 0)
(-0.148716 0.00280187 0)
(-0.154023 0.00240429 0)
(-0.158524 0.00200632 0)
(-0.162255 0.00160863 0)
(-0.165227 0.00123636 0)
(-0.167424 0.00085599 0)
(-0.168824 0.000461607 0)
(-0.169465 0.000105868 0)
(-0.169298 -0.000329813 0)
(-0.16832 -0.000696241 0)
(-0.166526 -0.00110204 0)
(-0.163868 -0.00154621 0)
(-0.160361 -0.00194675 0)
(-0.156017 -0.00235724 0)
(-0.150791 -0.00287564 0)
(-0.144623 -0.00324546 0)
(-0.137548 -0.0037913 0)
(-0.129525 -0.00424814 0)
(-0.120618 -0.00469746 0)
(-0.110784 -0.00518408 0)
(-0.099894 -0.00565459 0)
(-0.0881305 -0.00603246 0)
(-0.075447 -0.00651307 0)
(-0.0619655 -0.00692064 0)
(-0.0477243 -0.00734354 0)
(-0.0326288 -0.00775431 0)
(-0.0168618 -0.00806845 0)
(-4.68252e-05 -0.00834467 0)
(0.0173645 -0.00860818 0)
(0.0348921 -0.00878776 0)
(0.0526766 -0.00895376 0)
(0.0707319 -0.00901975 0)
(0.0888532 -0.00899834 0)
(0.106804 -0.00893612 0)
(0.124571 -0.00871526 0)
(0.14186 -0.00847711 0)
(0.158452 -0.00805622 0)
(0.174159 -0.00750055 0)
(0.188647 -0.00682485 0)
(0.201592 -0.006005 0)
(0.212738 -0.00505606 0)
(0.221861 -0.00400573 0)
(0.228783 -0.00284488 0)
(0.233327 -0.00166184 0)
(0.235403 -0.00044272 0)
(0.235035 0.000796311 0)
(0.232052 0.0020431 0)
(0.226663 0.00323547 0)
(0.218965 0.00440406 0)
(0.208998 0.00546192 0)
(0.196927 0.00645633 0)
(0.182968 0.00734666 0)
(0.167321 0.00814799 0)
(0.150203 0.00880573 0)
(0.131891 0.00931323 0)
(0.112669 0.00969334 0)
(0.0928398 0.00993631 0)
(0.0726794 0.0100454 0)
(0.0524327 0.0100144 0)
(0.0323705 0.00986044 0)
(0.0127016 0.00960993 0)
(-0.00635848 0.00927105 0)
(-0.0246548 0.00888851 0)
(-0.0420667 0.00838985 0)
(-0.0584689 0.00788731 0)
(-0.0738181 0.00732629 0)
(-0.088071 0.00677777 0)
(-0.101188 0.00625419 0)
(-0.113155 0.00564725 0)
(-0.124001 0.00511235 0)
(-0.133745 0.00454886 0)
(-0.142393 0.00402674 0)
(-0.150004 0.00353051 0)
(-0.156618 0.00301787 0)
(-0.162245 0.0025912 0)
(-0.166941 0.00210443 0)
(-0.170761 0.0016783 0)
(-0.173729 0.00127139 0)
(-0.175904 0.000884811 0)
(-0.177307 0.000518543 0)
(-0.177978 0.000159094 0)
(-0.177976 -0.000149379 0)
(-0.177302 -0.000499367 0)
(-0.175984 -0.000808201 0)
(-0.174035 -0.00113925 0)
(-0.171427 -0.00144664 0)
(-0.168215 -0.00177015 0)
(-0.164309 -0.00208629 0)
(-0.159751 -0.00240519 0)
(-0.154543 -0.00277223 0)
(-0.14861 -0.0031027 0)
(-0.141984 -0.0035118 0)
(-0.134547 -0.00385557 0)
(-0.126294 -0.00428517 0)
(-0.117236 -0.00468321 0)
(-0.107334 -0.00512566 0)
(-0.0965918 -0.00557942 0)
(-0.0849291 -0.00598186 0)
(-0.0723627 -0.00643406 0)
(-0.058964 -0.00684516 0)
(-0.044762 -0.00724687 0)
(-0.0297856 -0.00760683 0)
(-0.0141028 -0.00790524 0)
(0.00217424 -0.0081894 0)
(0.0189359 -0.00838489 0)
(0.0360183 -0.00853809 0)
(0.0533124 -0.0086072 0)
(0.0706472 -0.00855012 0)
(0.0878037 -0.00841489 0)
(0.104559 -0.00816744 0)
(0.120695 -0.00782131 0)
(0.135999 -0.00732558 0)
(0.150215 -0.00671145 0)
(0.163066 -0.00598827 0)
(0.174306 -0.00512939 0)
(0.183703 -0.00413912 0)
(0.191018 -0.00308737 0)
(0.196092 -0.00194552 0)
(0.198808 -0.000736053 0)
(0.19909 0.000447335 0)
(0.19687 0.00169266 0)
(0.192201 0.00291258 0)
(0.185179 0.00404406 0)
(0.175905 0.00511543 0)
(0.164563 0.00609259 0)
(0.151363 0.00696861 0)
(0.136533 0.00771287 0)
(0.120319 0.00832323 0)
(0.103026 0.00878967 0)
(0.084932 0.00912238 0)
(0.0663038 0.00932028 0)
(0.0474096 0.00939492 0)
(0.0285057 0.00933109 0)
(0.00985201 0.00916093 0)
(-0.00836244 0.00890447 0)
(-0.026022 0.00859219 0)
(-0.0430147 0.00825764 0)
(-0.059235 0.00782531 0)
(-0.0745847 0.0073741 0)
(-0.0889429 0.00685605 0)
(-0.102215 0.0063206 0)
(-0.114349 0.00574382 0)
(-0.125363 0.00518876 0)
(-0.135277 0.00466397 0)
(-0.14415 0.0041749 0)
(-0.152091 0.00371083 0)
(-0.159169 0.00328351 0)
(-0.1654 0.00287491 0)
(-0.170841 0.00252242 0)
(-0.175537 0.00215095 0)
(-0.179517 0.00180183 0)
(-0.182824 0.0014614 0)
(-0.18547 0.00115521 0)
(-0.187425 0.000795707 0)
(-0.188688 0.000473009 0)
(-0.189276 0.000128672 0)
(-0.189164 -0.000213661 0)
(-0.188412 -0.000545147 0)
(-0.186989 -0.000837041 0)
(-0.184975 -0.00113642 0)
(-0.182375 -0.0014477 0)
(-0.179169 -0.00172719 0)
(-0.175376 -0.00204054 0)
(-0.170967 -0.00235857 0)
(-0.165921 -0.00263973 0)
(-0.160216 -0.00298924 0)
(-0.153864 -0.00333344 0)
(-0.146795 -0.00366901 0)
(-0.138997 -0.00404699 0)
(-0.130448 -0.00443221 0)
(-0.121132 -0.00482695 0)
(-0.110992 -0.00522278 0)
(-0.100007 -0.00564597 0)
(-0.0881905 -0.00607548 0)
(-0.0755334 -0.0065057 0)
(-0.0620281 -0.006857 0)
(-0.0477388 -0.00725459 0)
(-0.0327637 -0.00759696 0)
(-0.0171408 -0.00790806 0)
(-0.000952655 -0.00810226 0)
(0.0156103 -0.00826251 0)
(0.0323688 -0.00833884 0)
(0.0491824 -0.00831335 0)
(0.0658588 -0.00819622 0)
(0.082206 -0.00797975 0)
(0.09798 -0.00764169 0)
(0.11297 -0.00719065 0)
(0.126927 -0.00660298 0)
(0.139566 -0.00589092 0)
(0.150633 -0.00504536 0)
(0.159888 -0.00409426 0)
(0.167122 -0.00305577 0)
(0.172176 -0.00194445 0)
(0.174925 -0.00076939 0)
(0.17531 0.000380629 0)
(0.173277 0.00157777 0)
(0.168842 0.00277012 0)
(0.162137 0.00386695 0)
(0.153241 0.0049141 0)
(0.142323 0.00587149 0)
(0.129578 0.00673944 0)
(0.115231 0.00745385 0)
(0.0995703 0.00803624 0)
(0.0828767 0.00848573 0)
(0.0654229 0.00880891 0)
(0.0474854 0.00897483 0)
(0.0293152 0.00903136 0)
(0.0111544 0.00897377 0)
(-0.00678596 0.00882511 0)
(-0.0243343 0.00858497 0)
(-0.0413179 0.00827774 0)
(-0.057614 0.00792308 0)
(-0.0731342 0.00750876 0)
(-0.0877936 0.00706537 0)
(-0.101528 0.00660959 0)
(-0.114246 0.00612115 0)
(-0.12598 0.0055771 0)
(-0.136766 0.00507195 0)
(-0.146468 0.00459348 0)
(-0.155076 0.00405192 0)
(-0.162698 0.00353915 0)
(-0.169302 0.0030345 0)
(-0.174887 0.00254228 0)
(-0.179453 0.00203469 0)
(-0.18302 0.00157047 0)
(-0.185637 0.00107558 0)
(-0.187224 0.000628373 0)
(-0.187893 0.000210653 0)
(-0.187733 -0.000237175 0)
(-0.186712 -0.000648157 0)
(-0.185021 -0.000956981 0)
(-0.182788 -0.00124844 0)
(-0.180061 -0.0014897 0)
(-0.176999 -0.00165424 0)
(-0.173632 -0.00183024 0)
(-0.169907 -0.00199305 0)
(-0.165824 -0.00210895 0)
(-0.161374 -0.00231235 0)
(-0.156516 -0.00244243 0)
(-0.151425 -0.00262748 0)
(-0.145886 -0.00289479 0)
(-0.139786 -0.00312216 0)
(-0.133225 -0.00338589 0)
(-0.126007 -0.00377893 0)
(-0.118009 -0.00412843 0)
(-0.109266 -0.00450708 0)
(-0.0995891 -0.00502483 0)
(-0.0889375 -0.00544984 0)
(-0.0773002 -0.00604127 0)
(-0.0645936 -0.00653369 0)
(-0.0509197 -0.00698459 0)
(-0.0362166 -0.00754483 0)
(-0.0204214 -0.00794911 0)
(-0.00415855 -0.00823049 0)
(0.0126214 -0.00864168 0)
(0.0301645 -0.00879373 0)
(0.0480421 -0.00898047 0)
(0.0660517 -0.00892277 0)
(0.0838846 -0.00871433 0)
(0.101262 -0.00850022 0)
(0.117938 -0.0080497 0)
(0.133628 -0.0074587 0)
(0.148063 -0.0068186 0)
(0.160998 -0.00599695 0)
(0.172223 -0.00511348 0)
(0.18154 -0.00411017 0)
(0.188801 -0.00303536 0)
(0.19389 -0.00193162 0)
(0.196716 -0.00079174 0)
(0.197232 0.000336349 0)
(0.195416 0.00144945 0)
(0.1913 0.00256648 0)
(0.185098 0.00354259 0)
(0.176935 0.00448548 0)
(0.16699 0.00535144 0)
(0.155479 0.00600479 0)
(0.142649 0.00663935 0)
(0.128717 0.0071734 0)
(0.113917 0.00747066 0)
(0.0984789 0.0077785 0)
(0.0826009 0.00799444 0)
(0.066465 0.00800458 0)
(0.050228 0.00805566 0)
(0.0339927 0.00793328 0)
(0.0178089 0.00786969 0)
(0.0021488 0.00771253 0)
(-0.01297 0.00746597 0)
(-0.027822 0.00726932 0)
(-0.0421979 0.00703465 0)
(-0.0560204 0.00669861 0)
(-0.0692391 0.00641039 0)
(-0.0818041 0.00603811 0)
(-0.0936778 0.00570714 0)
(-0.104821 0.00535209 0)
(-0.115198 0.00493982 0)
(-0.124784 0.00455468 0)
(-0.133553 0.00415238 0)
(-0.14148 0.00371686 0)
(-0.148554 0.00329658 0)
(-0.154758 0.00285517 0)
(-0.160087 0.0024247 0)
(-0.164535 0.00198969 0)
(-0.1681 0.00154988 0)
(-0.170786 0.0011159 0)
(-0.17272 0.000680881 0)
(-0.049948 -0.00933172 0)
(-0.0376923 -0.0100763 0)
(-0.0226179 -0.0106711 0)
(-0.00668012 -0.0112471 0)
(0.00981716 -0.0118621 0)
(0.0270897 -0.012258 0)
(0.0450736 -0.01277 0)
(0.0635587 -0.0129641 0)
(0.0823434 -0.0130128 0)
(0.101232 -0.0131609 0)
(0.120006 -0.0129073 0)
(0.138416 -0.0124773 0)
(0.156218 -0.0121072 0)
(0.173138 -0.0113308 0)
(0.188937 -0.0105683 0)
(0.203339 -0.00945478 0)
(0.216106 -0.00819816 0)
(0.227027 -0.00689049 0)
(0.235882 -0.00538218 0)
(0.242524 -0.00379151 0)
(0.246837 -0.0021395 0)
(0.24875 -0.000461545 0)
(0.248232 0.00123657 0)
(0.245194 0.00292208 0)
(0.239786 0.00457477 0)
(0.232085 0.0060601 0)
(0.222251 0.00751089 0)
(0.210447 0.00887519 0)
(0.196868 0.0099046 0)
(0.181778 0.0109371 0)
(0.165396 0.0118333 0)
(0.147969 0.0123132 0)
(0.129768 0.0128453 0)
(0.111032 0.0129793 0)
(0.0919939 0.0131739 0)
(0.0728423 0.0132251 0)
(0.0537796 0.0129552 0)
(0.0349604 0.0127313 0)
(0.0165462 0.0123843 0)
(-0.000731201 0.0118516 0)
(-0.017074 0.0113759 0)
(-0.0329555 0.0107499 0)
(-0.048034 0.0101796 0)
(-0.0622334 0.00956722 0)
(-0.0755087 0.00888371 0)
(-0.0878553 0.00824985 0)
(-0.0992654 0.00760643 0)
(-0.109742 0.00694408 0)
(-0.119308 0.00632092 0)
(-0.127977 0.00570346 0)
(-0.135766 0.00508964 0)
(-0.142703 0.00450713 0)
(-0.148812 0.00392385 0)
(-0.154117 0.00336556 0)
(-0.158617 0.00280992 0)
(-0.162345 0.00225288 0)
(-0.165315 0.00173173 0)
(-0.167515 0.00120044 0)
(-0.16892 0.000647233 0)
(-0.169565 0.000140545 0)
(-0.169393 -0.000461335 0)
(-0.168414 -0.00097189 0)
(-0.166622 -0.00154394 0)
(-0.163968 -0.00216489 0)
(-0.160463 -0.00272581 0)
(-0.156123 -0.00330011 0)
(-0.150897 -0.00402517 0)
(-0.14473 -0.0045473 0)
(-0.137665 -0.0053059 0)
(-0.129644 -0.00595203 0)
(-0.120732 -0.00657367 0)
(-0.110898 -0.00726269 0)
(-0.100005 -0.00791753 0)
(-0.0882418 -0.00844511 0)
(-0.0755554 -0.00912694 0)
(-0.0620713 -0.0096851 0)
(-0.0478347 -0.0102897 0)