/*--------------------------------*- C++ -*----------------------------------*\
| =========                 |                                                 |
| \\      /  F ield         | OpenFOAM: The Open Source CFD Toolbox           |
|  \\    /   O peration     | Version:  3.0.1                                 |
|   \\  /    A nd           | Web:      www.OpenFOAM.org                      |
|    \\/     M anipulation  |                                                 |
\*---------------------------------------------------------------------------*/
FoamFile
{
    version     2.0;
    format      ascii;
    class       volScalarField;
    location    "9.6";
    object      p;
}
// * * * * * * * * * * * * * * * * * * * * * * * * * * * * * * * * * * * * * //

dimensions      [1 -1 -2 0 0 0 0];

internalField   nonuniform List<scalar> 
21420
(
3570.53
3576.07
3583.18
3591.88
3602.2
3614.22
3627.98
3643.51
3660.81
3679.85
3700.57
3722.87
3746.63
3771.66
3797.78
3824.74
3852.29
3880.12
3908.1
3935.89
3963.23
3989.85
4015.48
4039.87
4062.77
4083.98
4103.29
4120.53
4135.56
4148.25
4158.49
4166.19
4171.29
4173.65
4173.99
4171.61
4166.46
4158.52
4147.82
4134.48
4118.6
4100.36
4079.95
4057.61
4033.62
4008.28
3981.91
3954.85
3927.44
3900.06
3873.7
3847.37
3821.71
3796.98
3773.37
3751.01
3730
3710.44
3692.39
3675.87
3660.93
3647.58
3635.85
3625.73
3617.25
3610.4
3605.19
3601.56
3599.51
3599.07
3600.16
3602.71
3606.64
3611.87
3618.33
3625.98
3634.76
3644.64
3655.58
3667.55
3680.55
3694.56
3709.57
3725.57
3742.56
3760.54
3779.49
3799.39
3820.21
3841.89
3864.37
3887.55
3911.29
3935.44
3959.79
3984.13
4008.2
4031.72
4054.38
4075.89
4095.92
4114.18
4130.36
4144.21
4155.47
4163.93
4169.45
4171.89
4171.22
4167.4
4160.54
4150.71
4138.06
4122.82
4105.24
4085.6
4064.23
4041.46
4017.64
3993.11
3968.19
3943.2
3918.42
3894.09
3870.44
3847.64
3825.83
3805.14
3785.63
3767.38
3750.41
3734.75
3720.39
3707.33
3695.54
3685.01
3675.7
3667.6
3660.66
3654.88
3650.22
3646.68
3644.22
3642.87
3642.61
3643.43
3645.34
3648.35
3652.47
3657.71
3664.08
3671.6
3680.27
3690.11
3701.1
3713.25
3726.54
3740.94
3756.41
3772.91
3790.38
3808.73
3827.88
3847.71
3868.1
3888.91
3909.96
3931.1
3952.13
3972.86
3993.1
4012.62
4031.24
4048.75
4064.95
4079.68
4092.76
4104.05
4113.42
4120.79
4126.08
4129.25
4130.28
4129.22
4126.09
4120.98
4113.98
4105.22
4094.83
4082.99
4069.88
4055.69
4040.63
4024.91
4008.72
3992.29
3975.79
3959.41
3943.33
3927.69
3912.64
3898.3
3884.78
3872.12
3860.39
3849.66
3839.95
3831.28
3823.66
3817.09
3811.54
3807.01
3803.46
3800.84
3799.13
3798.27
3798.22
3798.93
3800.35
3802.43
3805.11
3808.35
3812.09
3816.29
3820.88
3825.83
3831.09
3836.59
3842.3
3848.17
3854.16
3860.21
3866.29
3872.35
3878.36
3884.28
3890.08
3895.71
3901.15
3906.37
3911.35
3916.05
3920.47
3924.58
3928.36
3931.82
3934.93
3937.69
3940.1
3942.16
3943.87
3945.23
3946.25
3946.95
3947.33
3947.41
3947.19
3946.71
3945.97
3944.99
3943.79
3942.39
3940.8
3939.06
3937.17
3935.16
3933.05
3930.85
3928.58
3926.27
3923.92
3921.56
3919.19
3916.83
3914.49
3912.19
3909.93
3907.73
3905.58
3903.5
3901.49
3899.56
3897.71
3895.95
3894.27
3892.67
3891.16
3889.74
3888.41
3887.16
3886
3884.92
3883.92
3882.99
3882.14
3881.36
3880.65
3880
3879.42
3878.89
3878.42
3878
3877.63
3877.3
3877.01
3876.76
3876.54
3876.36
3876.2
3876.07
3875.97
3875.88
3875.81
3875.76
3875.73
3875.7
3875.69
3875.69
3875.7
3875.71
3875.73
3875.76
3875.78
3875.81
3875.84
3875.87
3875.9
3875.93
3875.96
3875.99
3876.02
3876.05
3876.07
3876.09
3876.11
3876.12
3876.14
3876.15
3876.15
3876.16
3876.16
3876.16
3876.16
3876.16
3876.15
3876.14
3876.13
3876.12
3876.11
3876.09
3876.07
3876.05
3876.03
3876.01
3875.99
3875.97
3875.94
3472.37
3477.9
3485.01
3493.71
3504.03
3516.05
3529.81
3545.33
3562.63
3581.67
3602.39
3624.7
3648.46
3673.5
3699.63
3726.6
3754.16
3782
3809.98
3837.79
3865.14
3891.78
3917.41
3941.81
3964.73
3985.94
4005.26
4022.51
4037.55
4050.24
4060.49
4068.19
4073.29
4075.66
4076
4073.62
4068.47
4060.52
4049.82
4036.47
4020.59
4002.34
3981.92
3959.56
3935.56
3910.21
3883.82
3856.75
3829.32
3801.93
3775.56
3749.22
3723.56
3698.83
3675.21
3652.84
3631.84
3612.28
3594.22
3577.7
3562.76
3549.41
3537.68
3527.56
3519.08
3512.24
3507.03
3503.39
3501.35
3500.91
3502
3504.55
3508.49
3513.72
3520.19
3527.83
3536.62
3546.5
3557.44
3569.41
3582.41
3596.42
3611.42
3627.42
3644.42
3662.39
3681.35
3701.25
3722.06
3743.75
3766.23
3789.41
3813.16
3837.32
3861.68
3886.03
3910.11
3933.64
3956.32
3977.84
3997.88
4016.15
4032.35
4046.2
4057.47
4065.95
4071.47
4073.92
4073.24
4069.42
4062.56
4052.71
4040.06
4024.81
4007.21
3987.56
3966.18
3943.39
3919.55
3895.01
3870.08
3845.08
3820.29
3795.95
3772.3
3749.49
3727.68
3706.98
3687.48
3669.22
3652.26
3636.59
3622.24
3609.18
3597.39
3586.86
3577.55
3569.45
3562.52
3556.73
3552.08
3548.54
3546.08
3544.72
3544.47
3545.29
3547.2
3550.21
3554.32
3559.56
3565.93
3573.45
3582.12
3591.96
3602.96
3615.11
3628.39
3642.79
3658.27
3674.77
3692.24
3710.59
3729.75
3749.58
3769.97
3790.79
3811.85
3832.99
3854.03
3874.77
3895.01
3914.55
3933.17
3950.69
3966.91
3981.64
3994.72
4006.02
4015.4
4022.77
4028.06
4031.24
4032.27
4031.2
4028.07
4022.96
4015.95
4007.18
3996.78
3984.94
3971.82
3957.62
3942.55
3926.82
3910.63
3894.18
3877.68
3861.29
3845.21
3829.57
3814.51
3800.16
3786.64
3773.98
3762.25
3751.52
3741.81
3733.14
3725.52
3718.95
3713.4
3708.87
3705.32
3702.71
3700.99
3700.14
3700.1
3700.81
3702.23
3704.3
3706.99
3710.23
3713.97
3718.17
3722.77
3727.72
3732.97
3738.48
3744.19
3750.07
3756.05
3762.11
3768.19
3774.26
3780.27
3786.19
3791.98
3797.62
3803.06
3808.28
3813.26
3817.96
3822.38
3826.49
3830.28
3833.73
3836.84
3839.6
3842.02
3844.07
3845.78
3847.14
3848.17
3848.86
3849.24
3849.32
3849.1
3848.62
3847.88
3846.9
3845.69
3844.29
3842.71
3840.96
3839.08
3837.06
3834.95
3832.75
3830.48
3828.17
3825.82
3823.46
3821.09
3818.73
3816.39
3814.09
3811.83
3809.62
3807.48
3805.4
3803.39
3801.46
3799.61
3797.84
3796.16
3794.57
3793.06
3791.64
3790.31
3789.06
3787.9
3786.81
3785.81
3784.89
3784.04
3783.26
3782.55
3781.9
3781.32
3780.79
3780.32
3779.9
3779.53
3779.2
3778.91
3778.66
3778.44
3778.26
3778.1
3777.97
3777.87
3777.78
3777.71
3777.66
3777.63
3777.6
3777.59
3777.59
3777.6
3777.61
3777.63
3777.65
3777.68
3777.71
3777.74
3777.77
3777.8
3777.83
3777.86
3777.89
3777.92
3777.95
3777.97
3777.99
3778.01
3778.02
3778.04
3778.05
3778.05
3778.06
3778.06
3778.06
3778.06
3778.06
3778.05
3778.04
3778.03
3778.02
3778.01
3777.99
3777.97
3777.95
3777.93
3777.91
3777.89
3777.87
3777.84
3374.15
3379.68
3386.78
3395.47
3405.79
3417.8
3431.56
3447.08
3464.38
3483.42
3504.15
3526.46
3550.24
3575.29
3601.43
3628.42
3655.99
3683.86
3711.86
3739.68
3767.06
3793.72
3819.38
3843.8
3866.74
3887.97
3907.31
3924.57
3939.62
3952.33
3962.58
3970.3
3975.4
3977.78
3978.12
3975.74
3970.59
3962.63
3951.92
3938.56
3922.66
3904.39
3883.94
3861.56
3837.53
3812.15
3785.74
3758.64
3731.19
3703.77
3677.39
3651.03
3625.36
3600.61
3576.98
3554.61
3533.6
3514.04
3495.98
3479.47
3464.52
3451.18
3439.44
3429.33
3420.85
3414.01
3408.8
3405.17
3403.13
3402.7
3403.79
3406.35
3410.28
3415.52
3421.99
3429.64
3438.43
3448.31
3459.25
3471.22
3484.22
3498.23
3513.23
3529.24
3546.23
3564.2
3583.15
3603.06
3623.88
3645.57
3668.05
3691.24
3715
3739.17
3763.55
3787.92
3812.02
3835.58
3858.28
3879.83
3899.9
3918.2
3934.42
3948.3
3959.59
3968.08
3973.61
3976.07
3975.38
3971.56
3964.69
3954.83
3942.15
3926.88
3909.25
3889.58
3868.16
3845.35
3821.48
3796.91
3771.95
3746.93
3722.12
3697.78
3674.11
3651.29
3629.47
3608.77
3589.26
3571.01
3554.04
3538.38
3524.03
3510.97
3499.19
3488.66
3479.36
3471.25
3464.32
3458.54
3453.89
3450.35
3447.89
3446.54
3446.28
3447.1
3449.01
3452.02
3456.13
3461.37
3467.74
3475.26
3483.93
3493.76
3504.76
3516.91
3530.2
3544.6
3560.07
3576.58
3594.05
3612.42
3631.57
3651.42
3671.82
3692.65
3713.72
3734.88
3755.93
3776.69
3796.95
3816.5
3835.15
3852.68
3868.91
3883.66
3896.76
3908.06
3917.45
3924.83
3930.13
3933.3
3934.34
3933.26
3930.13
3925
3917.99
3909.2
3898.79
3886.93
3873.8
3859.58
3844.49
3828.74
3812.53
3796.07
3779.55
3763.16
3747.06
3731.41
3716.34
3701.99
3688.46
3675.8
3664.07
3653.33
3643.62
3634.95
3627.33
3620.76
3615.22
3610.69
3607.14
3604.53
3602.83
3601.98
3601.94
3602.65
3604.07
3606.16
3608.84
3612.09
3615.84
3620.04
3624.64
3629.6
3634.85
3640.36
3646.08
3651.96
3657.94
3664
3670.09
3676.16
3682.17
3688.1
3693.89
3699.53
3704.97
3710.2
3715.18
3719.88
3724.3
3728.41
3732.2
3735.66
3738.77
3741.53
3743.94
3746
3747.71
3749.07
3750.09
3750.79
3751.17
3751.24
3751.03
3750.54
3749.79
3748.81
3747.61
3746.21
3744.62
3742.87
3740.98
3738.97
3736.86
3734.66
3732.39
3730.07
3727.72
3725.36
3722.99
3720.63
3718.29
3715.99
3713.73
3711.52
3709.37
3707.29
3705.28
3703.35
3701.5
3699.74
3698.06
3696.46
3694.95
3693.53
3692.2
3690.95
3689.79
3688.71
3687.71
3686.78
3685.93
3685.15
3684.44
3683.8
3683.21
3682.69
3682.22
3681.79
3681.42
3681.09
3680.81
3680.56
3680.34
3680.16
3680
3679.87
3679.76
3679.68
3679.61
3679.56
3679.53
3679.5
3679.49
3679.49
3679.5
3679.51
3679.53
3679.55
3679.58
3679.61
3679.64
3679.67
3679.7
3679.73
3679.76
3679.79
3679.82
3679.85
3679.87
3679.89
3679.91
3679.92
3679.94
3679.95
3679.95
3679.96
3679.96
3679.96
3679.96
3679.96
3679.95
3679.94
3679.93
3679.92
3679.91
3679.89
3679.87
3679.85
3679.83
3679.81
3679.79
3679.77
3679.74
3275.86
3281.39
3288.49
3297.17
3307.48
3319.48
3333.23
3348.75
3366.05
3385.1
3405.83
3428.16
3451.95
3477.02
3503.18
3530.19
3557.8
3585.69
3613.73
3641.58
3669
3695.69
3721.38
3745.83
3768.8
3790.07
3809.43
3826.72
3841.78
3854.51
3864.78
3872.5
3877.62
3880
3880.35
3877.97
3872.81
3864.85
3854.12
3840.74
3824.81
3806.51
3786.03
3763.61
3739.54
3714.12
3687.66
3660.52
3633.04
3605.59
3579.18
3552.79
3527.1
3502.34
3478.7
3456.32
3435.3
3415.74
3397.68
3381.16
3366.22
3352.88
3341.14
3331.03
3322.56
3315.71
3310.5
3306.88
3304.86
3304.42
3305.52
3308.09
3312.03
3317.27
3323.75
3331.41
3340.19
3350.08
3361.02
3372.99
3385.99
3400
3415
3431
3447.99
3465.97
3484.92
3504.82
3525.65
3547.34
3569.84
3593.04
3616.82
3641.01
3665.41
3689.81
3713.95
3737.54
3760.28
3781.87
3801.98
3820.32
3836.58
3850.49
3861.81
3870.32
3875.86
3878.34
3877.64
3873.82
3866.93
3857.05
3844.34
3829.03
3811.37
3791.65
3770.19
3747.33
3723.42
3698.81
3673.82
3648.76
3623.93
3599.56
3575.87
3553.04
3531.21
3510.51
3490.99
3472.74
3455.77
3440.11
3425.76
3412.71
3400.93
3390.41
3381.11
3373.01
3366.09
3360.31
3355.66
3352.12
3349.66
3348.31
3348.05
3348.87
3350.78
3353.78
3357.9
3363.13
3369.5
3377.02
3385.69
3395.52
3406.51
3418.66
3431.95
3446.36
3461.84
3478.35
3495.83
3514.2
3533.37
3553.22
3573.64
3594.49
3615.58
3636.76
3657.84
3678.62
3698.9
3718.48
3737.15
3754.71
3770.97
3785.74
3798.86
3810.18
3819.59
3826.97
3832.28
3835.45
3836.49
3835.4
3832.26
3827.12
3820.09
3811.28
3800.85
3788.97
3775.81
3761.57
3746.45
3730.68
3714.45
3697.96
3681.42
3665.01
3648.89
3633.22
3618.15
3603.78
3590.25
3577.58
3565.85
3555.11
3545.39
3536.72
3529.11
3522.54
3517
3512.48
3508.93
3506.33
3504.62
3503.78
3503.75
3504.47
3505.9
3507.98
3510.68
3513.93
3517.68
3521.89
3526.5
3531.46
3536.72
3542.24
3547.96
3553.84
3559.83
3565.9
3571.99
3578.06
3584.08
3590.01
3595.81
3601.45
3606.9
3612.12
3617.11
3621.82
3626.24
3630.35
3634.14
3637.6
3640.71
3643.47
3645.88
3647.94
3649.65
3651.01
3652.03
3652.73
3653.1
3653.17
3652.96
3652.47
3651.72
3650.74
3649.53
3648.13
3646.54
3644.79
3642.9
3640.88
3638.77
3636.56
3634.29
3631.98
3629.62
3627.26
3624.88
3622.52
3620.19
3617.88
3615.62
3613.41
3611.26
3609.18
3607.17
3605.24
3603.39
3601.63
3599.94
3598.35
3596.84
3595.42
3594.09
3592.84
3591.68
3590.6
3589.6
3588.67
3587.82
3587.05
3586.34
3585.69
3585.11
3584.58
3584.11
3583.69
3583.32
3582.99
3582.7
3582.45
3582.24
3582.05
3581.9
3581.77
3581.66
3581.58
3581.51
3581.46
3581.42
3581.4
3581.39
3581.39
3581.4
3581.41
3581.43
3581.45
3581.48
3581.51
3581.54
3581.57
3581.6
3581.63
3581.66
3581.69
3581.72
3581.75
3581.77
3581.79
3581.81
3581.82
3581.84
3581.85
3581.85
3581.86
3581.86
3581.86
3581.86
3581.86
3581.85
3581.84
3581.83
3581.82
3581.81
3581.79
3581.77
3581.75
3581.73
3581.71
3581.69
3581.67
3581.64
3177.52
3183.04
3190.12
3198.8
3209.09
3221.09
3234.84
3250.35
3267.65
3286.7
3307.44
3329.78
3353.59
3378.69
3404.88
3431.93
3459.58
3487.5
3515.58
3543.48
3570.94
3597.68
3623.42
3647.91
3670.92
3692.23
3711.62
3728.94
3744.04
3756.78
3767.07
3774.81
3779.93
3782.34
3782.69
3780.32
3775.15
3767.17
3756.42
3743.01
3727.05
3708.71
3688.18
3665.71
3641.59
3616.11
3589.6
3562.41
3534.87
3507.38
3480.93
3454.51
3428.79
3404.01
3380.35
3357.96
3336.94
3317.37
3299.31
3282.79
3267.85
3254.51
3242.78
3232.67
3224.19
3217.35
3212.14
3208.53
3206.52
3206.09
3207.2
3209.77
3213.73
3218.98
3225.46
3233.12
3241.91
3251.8
3262.74
3274.72
3287.72
3301.72
3316.73
3332.72
3349.71
3367.69
3386.64
3406.54
3427.37
3449.07
3471.58
3494.8
3518.6
3542.82
3567.26
3591.7
3615.88
3639.52
3662.31
3683.95
3704.12
3722.51
3738.82
3752.78
3764.14
3772.68
3778.24
3780.73
3780.03
3776.2
3769.29
3759.37
3746.63
3731.27
3713.55
3693.78
3672.26
3649.34
3625.38
3600.71
3575.67
3550.57
3525.7
3501.3
3477.59
3454.74
3432.9
3412.18
3392.67
3374.41
3357.45
3341.79
3327.44
3314.4
3302.62
3292.11
3282.82
3274.72
3267.8
3262.03
3257.38
3253.84
3251.39
3250.04
3249.78
3250.6
3252.51
3255.51
3259.62
3264.85
3271.22
3278.73
3287.4
3297.23
3308.22
3320.37
3333.66
3348.07
3363.55
3380.07
3397.56
3415.94
3435.13
3455
3475.44
3496.3
3517.43
3538.63
3559.74
3580.56
3600.88
3620.49
3639.19
3656.79
3673.08
3687.88
3701.02
3712.37
3721.8
3729.2
3734.51
3737.69
3738.72
3737.62
3734.47
3729.31
3722.26
3713.43
3702.97
3691.05
3677.86
3663.58
3648.44
3632.63
3616.36
3599.84
3583.27
3566.84
3550.7
3535.01
3519.92
3505.54
3492
3479.32
3467.58
3456.84
3447.12
3438.45
3430.84
3424.27
3418.74
3414.22
3410.68
3408.09
3406.39
3405.55
3405.53
3406.25
3407.69
3409.79
3412.49
3415.75
3419.51
3423.72
3428.34
3433.31
3438.58
3444.1
3449.83
3455.72
3461.72
3467.79
3473.89
3479.97
3485.99
3491.93
3497.73
3503.38
3508.83
3514.06
3519.05
3523.76
3528.18
3532.3
3536.09
3539.55
3542.66
3545.43
3547.84
3549.9
3551.6
3552.96
3553.98
3554.68
3555.05
3555.12
3554.9
3554.41
3553.66
3552.67
3551.47
3550.06
3548.47
3546.71
3544.82
3542.8
3540.68
3538.47
3536.2
3533.88
3531.53
3529.16
3526.78
3524.42
3522.08
3519.77
3517.51
3515.3
3513.15
3511.07
3509.06
3507.13
3505.28
3503.51
3501.83
3500.24
3498.73
3497.31
3495.98
3494.73
3493.57
3492.49
3491.49
3490.56
3489.71
3488.93
3488.23
3487.58
3487
3486.47
3486
3485.58
3485.21
3484.88
3484.6
3484.35
3484.13
3483.95
3483.79
3483.66
3483.56
3483.47
3483.41
3483.36
3483.32
3483.3
3483.29
3483.29
3483.3
3483.31
3483.33
3483.35
3483.38
3483.41
3483.44
3483.47
3483.5
3483.53
3483.57
3483.59
3483.62
3483.65
3483.67
3483.69
3483.71
3483.72
3483.74
3483.75
3483.76
3483.76
3483.76
3483.76
3483.76
3483.76
3483.75
3483.74
3483.73
3483.72
3483.71
3483.69
3483.67
3483.66
3483.64
3483.61
3483.59
3483.57
3483.54
3079.12
3084.62
3091.7
3100.36
3110.64
3122.63
3136.36
3151.87
3169.17
3188.23
3208.98
3231.34
3255.17
3280.3
3306.53
3333.62
3361.32
3389.29
3417.42
3445.38
3472.9
3499.69
3525.49
3550.04
3573.1
3594.45
3613.89
3631.25
3646.37
3659.15
3669.46
3677.22
3682.36
3684.77
3685.14
3682.77
3677.59
3669.59
3658.82
3645.38
3629.38
3610.98
3590.4
3567.86
3543.67
3518.13
3491.54
3464.28
3436.68
3409.14
3382.64
3356.18
3330.42
3305.61
3281.94
3259.54
3238.51
3218.93
3200.87
3184.35
3169.41
3156.07
3144.34
3134.23
3125.76
3118.93
3113.72
3110.12
3108.12
3107.69
3108.82
3111.41
3115.37
3120.63
3127.12
3134.79
3143.59
3153.48
3164.43
3176.4
3189.4
3203.41
3218.41
3234.4
3251.39
3269.36
3288.31
3308.22
3329.05
3350.76
3373.29
3396.53
3420.36
3444.61
3469.09
3493.58
3517.82
3541.52
3564.38
3586.09
3606.33
3624.78
3641.15
3655.17
3666.57
3675.15
3680.74
3683.24
3682.55
3678.71
3671.76
3661.81
3649.01
3633.6
3615.81
3595.96
3574.37
3551.38
3527.34
3502.61
3477.51
3452.36
3427.44
3403
3379.26
3356.39
3334.53
3313.81
3294.28
3276.03
3259.06
3243.41
3229.07
3216.03
3204.27
3193.76
3184.47
3176.39
3169.47
3163.7
3159.06
3155.52
3153.08
3151.73
3151.47
3152.28
3154.19
3157.19
3161.3
3166.53
3172.89
3180.4
3189.06
3198.89
3209.88
3222.03
3235.32
3249.73
3265.22
3281.75
3299.25
3317.65
3336.85
3356.74
3377.21
3398.1
3419.26
3440.5
3461.65
3482.51
3502.87
3522.52
3541.27
3558.91
3575.24
3590.08
3603.26
3614.64
3624.08
3631.5
3636.82
3640
3641.04
3639.93
3636.76
3631.58
3624.5
3615.64
3605.14
3593.18
3579.95
3565.63
3550.44
3534.58
3518.28
3501.72
3485.12
3468.65
3452.48
3436.77
3421.65
3407.26
3393.71
3381.02
3369.27
3358.52
3348.81
3340.14
3332.53
3325.97
3320.44
3315.93
3312.4
3309.81
3308.12
3307.3
3307.28
3308.01
3309.46
3311.57
3314.28
3317.55
3321.32
3325.54
3330.17
3335.15
3340.43
3345.96
3351.7
3357.59
3363.6
3369.68
3375.78
3381.87
3387.91
3393.85
3399.66
3405.31
3410.77
3416.01
3421
3425.71
3430.14
3434.26
3438.06
3441.52
3444.63
3447.4
3449.81
3451.87
3453.57
3454.93
3455.95
3456.64
3457.01
3457.08
3456.85
3456.36
3455.61
3454.62
3453.4
3451.99
3450.4
3448.64
3446.74
3444.72
3442.59
3440.39
3438.11
3435.79
3433.43
3431.06
3428.68
3426.31
3423.97
3421.66
3419.4
3417.19
3415.04
3412.96
3410.95
3409.01
3407.16
3405.4
3403.71
3402.12
3400.61
3399.19
3397.86
3396.61
3395.45
3394.37
3393.37
3392.45
3391.6
3390.82
3390.11
3389.47
3388.89
3388.36
3387.89
3387.47
3387.1
3386.77
3386.49
3386.24
3386.02
3385.84
3385.69
3385.56
3385.45
3385.37
3385.3
3385.26
3385.22
3385.2
3385.19
3385.19
3385.2
3385.21
3385.23
3385.25
3385.28
3385.31
3385.34
3385.37
3385.4
3385.44
3385.47
3385.49
3385.52
3385.55
3385.57
3385.59
3385.61
3385.62
3385.64
3385.65
3385.66
3385.66
3385.66
3385.66
3385.66
3385.66
3385.65
3385.64
3385.63
3385.62
3385.61
3385.59
3385.57
3385.56
3385.54
3385.51
3385.49
3385.47
3385.44
2980.65
2986.14
2993.2
3001.85
3012.12
3024.1
3037.82
3053.32
3070.61
3089.67
3110.44
3132.82
3156.68
3181.85
3208.13
3235.28
3263.03
3291.06
3319.26
3347.28
3374.86
3401.72
3427.59
3452.21
3475.33
3496.74
3516.23
3533.63
3548.8
3561.61
3571.95
3579.74
3584.89
3587.31
3587.7
3585.33
3580.14
3572.13
3561.33
3547.84
3531.79
3513.33
3492.68
3470.07
3445.8
3420.16
3393.5
3366.16
3338.48
3310.87
3284.31
3257.8
3232.01
3207.17
3183.47
3161.05
3140.01
3120.43
3102.36
3085.84
3070.9
3057.56
3045.84
3035.74
3027.27
3020.44
3015.24
3011.64
3009.65
3009.24
3010.39
3012.99
3016.97
3022.24
3028.74
3036.42
3045.22
3055.12
3066.07
3078.04
3091.04
3105.04
3120.04
3136.03
3153.02
3170.99
3189.94
3209.85
3230.69
3252.41
3274.95
3298.22
3322.08
3346.37
3370.91
3395.46
3419.76
3443.53
3466.48
3488.27
3508.59
3527.12
3543.57
3557.65
3569.11
3577.74
3583.37
3585.88
3585.19
3581.33
3574.35
3564.35
3551.5
3536.01
3518.14
3498.2
3476.52
3453.44
3429.32
3404.51
3379.34
3354.12
3329.15
3304.67
3280.89
3257.99
3236.11
3215.37
3195.84
3177.58
3160.62
3144.98
3130.64
3117.61
3105.86
3095.36
3086.08
3078
3071.1
3065.33
3060.69
3057.16
3054.72
3053.38
3053.11
3053.93
3055.83
3058.83
3062.93
3068.15
3074.51
3082.01
3090.67
3100.5
3111.49
3123.64
3136.93
3151.35
3166.85
3183.38
3200.9
3219.31
3238.54
3258.46
3278.95
3299.88
3321.07
3342.36
3363.56
3384.46
3404.88
3424.59
3443.39
3461.07
3477.45
3492.34
3505.56
3516.97
3526.45
3533.89
3539.22
3542.41
3543.43
3542.32
3539.13
3533.92
3526.81
3517.9
3507.36
3495.36
3482.07
3467.7
3452.46
3436.55
3420.2
3403.6
3386.95
3370.44
3354.24
3338.5
3323.36
3308.94
3295.38
3282.67
3270.92
3260.17
3250.45
3241.78
3234.18
3227.62
3222.1
3217.6
3214.07
3211.49
3209.82
3209
3209
3209.75
3211.21
3213.32
3216.05
3219.32
3223.11
3227.34
3231.98
3236.97
3242.26
3247.8
3253.55
3259.46
3265.48
3271.57
3277.68
3283.78
3289.82
3295.77
3301.59
3307.25
3312.72
3317.96
3322.96
3327.68
3332.11
3336.24
3340.03
3343.5
3346.61
3349.38
3351.79
3353.85
3355.55
3356.91
3357.93
3358.61
3358.98
3359.04
3358.82
3358.32
3357.56
3356.57
3355.35
3353.93
3352.34
3350.57
3348.67
3346.64
3344.51
3342.3
3340.02
3337.69
3335.33
3332.96
3330.58
3328.21
3325.86
3323.55
3321.29
3319.07
3316.92
3314.84
3312.83
3310.89
3309.04
3307.27
3305.59
3304
3302.49
3301.07
3299.74
3298.49
3297.33
3296.25
3295.25
3294.33
3293.48
3292.71
3292
3291.35
3290.77
3290.25
3289.78
3289.36
3288.99
3288.66
3288.38
3288.13
3287.92
3287.74
3287.58
3287.45
3287.35
3287.27
3287.2
3287.15
3287.12
3287.1
3287.09
3287.09
3287.09
3287.11
3287.13
3287.15
3287.18
3287.21
3287.24
3287.27
3287.3
3287.34
3287.37
3287.39
3287.42
3287.45
3287.47
3287.49
3287.51
3287.52
3287.54
3287.55
3287.56
3287.56
3287.56
3287.57
3287.56
3287.56
3287.55
3287.54
3287.53
3287.52
3287.51
3287.49
3287.47
3287.46
3287.44
3287.41
3287.39
3287.37
3287.34
2882.13
2887.6
2894.64
2903.28
2913.53
2925.49
2939.19
2954.69
2971.98
2991.05
3011.83
3034.23
3058.13
3083.35
3109.68
3136.89
3164.7
3192.8
3221.07
3249.17
3276.84
3303.78
3329.72
3354.42
3377.62
3399.09
3418.65
3436.1
3451.31
3464.16
3474.54
3482.36
3487.53
3489.96
3490.37
3488
3482.8
3474.76
3463.93
3450.4
3434.28
3415.76
3395.02
3372.32
3347.95
3322.22
3295.46
3268.02
3240.26
3212.58
3185.94
3159.37
3133.53
3108.66
3084.93
3062.5
3041.44
3021.85
3003.79
2987.27
2972.33
2958.99
2947.27
2937.17
2928.71
2921.88
2916.69
2913.11
2911.13
2910.74
2911.9
2914.52
2918.51
2923.8
2930.31
2938
2946.81
2956.71
2967.66
2979.64
2992.64
3006.64
3021.63
3037.62
3054.6
3072.57
3091.52
3111.43
3132.28
3154.02
3176.58
3199.87
3223.77
3248.12
3272.71
3297.33
3321.71
3345.57
3368.6
3390.49
3410.91
3429.53
3446.07
3460.23
3471.76
3480.45
3486.11
3488.64
3487.96
3484.08
3477.06
3467
3454.08
3438.5
3420.54
3400.5
3378.72
3355.53
3331.31
3306.41
3281.15
3255.86
3230.82
3206.29
3182.47
3159.54
3137.64
3116.88
3097.35
3079.08
3062.13
3046.48
3032.16
3019.14
3007.39
2996.9
2987.64
2979.57
2972.67
2966.92
2962.29
2958.76
2956.32
2954.98
2954.71
2955.53
2957.42
2960.42
2964.52
2969.74
2976.09
2983.59
2992.24
3002.06
3013.05
3025.2
3038.5
3052.92
3068.42
3084.97
3102.5
3120.94
3140.19
3160.14
3180.67
3201.64
3222.88
3244.22
3265.47
3286.43
3306.9
3326.67
3345.53
3363.28
3379.72
3394.66
3407.93
3419.38
3428.89
3436.35
3441.7
3444.89
3445.92
3444.79
3441.57
3436.34
3429.18
3420.23
3409.64
3397.58
3384.23
3369.8
3354.5
3338.54
3322.12
3305.47
3288.77
3272.22
3255.97
3240.2
3225.03
3210.58
3197.01
3184.29
3172.53
3161.77
3152.05
3143.38
3135.78
3129.23
3123.72
3119.22
3115.71
3113.15
3111.48
3110.68
3110.69
3111.45
3112.92
3115.05
3117.79
3121.08
3124.88
3129.13
3133.78
3138.78
3144.09
3149.64
3155.4
3161.32
3167.36
3173.46
3179.58
3185.69
3191.74
3197.7
3203.53
3209.2
3214.67
3219.93
3224.93
3229.66
3234.09
3238.22
3242.02
3245.49
3248.61
3251.38
3253.79
3255.84
3257.55
3258.9
3259.92
3260.6
3260.96
3261.02
3260.79
3260.29
3259.53
3258.53
3257.31
3255.88
3254.28
3252.51
3250.6
3248.57
3246.44
3244.22
3241.93
3239.6
3237.24
3234.86
3232.47
3230.1
3227.75
3225.44
3223.17
3220.96
3218.8
3216.72
3214.71
3212.77
3210.92
3209.15
3207.47
3205.87
3204.37
3202.95
3201.62
3200.37
3199.21
3198.13
3197.13
3196.21
3195.36
3194.59
3193.88
3193.24
3192.66
3192.13
3191.67
3191.25
3190.88
3190.55
3190.27
3190.02
3189.81
3189.63
3189.47
3189.35
3189.24
3189.16
3189.1
3189.05
3189.01
3188.99
3188.98
3188.98
3188.99
3189.01
3189.03
3189.05
3189.08
3189.11
3189.14
3189.17
3189.2
3189.24
3189.27
3189.3
3189.32
3189.35
3189.37
3189.39
3189.41
3189.42
3189.44
3189.45
3189.46
3189.46
3189.47
3189.47
3189.46
3189.46
3189.45
3189.44
3189.43
3189.42
3189.41
3189.39
3189.37
3189.36
3189.34
3189.31
3189.29
3189.27
3189.24
2783.54
2789
2796.02
2804.63
2814.86
2826.8
2840.5
2855.98
2873.27
2892.34
2913.14
2935.58
2959.52
2984.78
3011.17
3038.45
3066.35
3094.52
3122.88
3151.07
3178.83
3205.86
3231.9
3256.68
3279.96
3301.51
3321.14
3338.65
3353.92
3366.81
3377.23
3385.08
3390.27
3392.72
3393.14
3390.78
3385.57
3377.51
3366.63
3353.05
3336.86
3318.26
3297.43
3274.62
3250.15
3224.3
3197.43
3169.89
3142.02
3114.26
3087.54
3060.9
3035.01
3010.09
2986.34
2963.88
2942.81
2923.21
2905.14
2888.62
2873.69
2860.35
2848.63
2838.54
2830.08
2823.26
2818.08
2814.51
2812.54
2812.17
2813.36
2815.99
2820.01
2825.31
2831.83
2839.54
2848.36
2858.26
2869.21
2881.19
2894.19
2908.19
2923.18
2939.17
2956.14
2974.11
2993.06
3012.97
3033.83
3055.58
3078.16
3101.49
3125.44
3149.84
3174.5
3199.2
3223.67
3247.63
3270.77
3292.76
3313.29
3332.02
3348.66
3362.91
3374.52
3383.27
3388.97
3391.52
3390.84
3386.94
3379.88
3369.76
3356.75
3341.08
3323.02
3302.86
3280.95
3257.65
3233.32
3208.3
3182.95
3157.58
3132.46
3107.87
3084
3061.03
3039.11
3018.34
2998.79
2980.53
2963.57
2947.94
2933.62
2920.61
2908.88
2898.4
2889.15
2881.1
2874.21
2868.46
2863.83
2860.31
2857.88
2856.53
2856.27
2857.08
2858.98
2861.97
2866.06
2871.27
2877.62
2885.11
2893.76
2903.58
2914.57
2926.72
2940.02
2954.44
2969.96
2986.52
3004.07
3022.52
3041.8
3061.79
3082.36
3103.38
3124.67
3146.06
3167.38
3188.4
3208.95
3228.79
3247.72
3265.54
3282.04
3297.04
3310.36
3321.86
3331.41
3338.9
3344.27
3347.46
3348.48
3347.34
3344.1
3338.82
3331.62
3322.62
3311.98
3299.85
3286.43
3271.94
3256.56
3240.53
3224.05
3207.33
3190.58
3173.97
3157.68
3141.87
3126.67
3112.19
3098.61
3085.87
3074.09
3063.33
3053.61
3044.94
3037.34
3030.8
3025.3
3020.81
3017.31
3014.76
3013.12
3012.33
3012.35
3013.13
3014.62
3016.76
3019.51
3022.82
3026.63
3030.9
3035.57
3040.58
3045.9
3051.47
3057.25
3063.18
3069.23
3075.34
3081.48
3087.6
3093.67
3099.64
3105.48
3111.16
3116.64
3121.9
3126.91
3131.65
3136.09
3140.22
3144.03
3147.5
3150.62
3153.39
3155.8
3157.85
3159.56
3160.91
3161.92
3162.6
3162.96
3163.02
3162.78
3162.27
3161.5
3160.5
3159.27
3157.84
3156.23
3154.46
3152.54
3150.5
3148.36
3146.14
3143.85
3141.51
3139.14
3136.76
3134.37
3131.99
3129.64
3127.33
3125.05
3122.84
3120.68
3118.6
3116.58
3114.65
3112.79
3111.02
3109.34
3107.75
3106.24
3104.82
3103.49
3102.24
3101.08
3100
3099.01
3098.09
3097.24
3096.47
3095.76
3095.12
3094.54
3094.02
3093.55
3093.13
3092.76
3092.44
3092.16
3091.91
3091.7
3091.52
3091.37
3091.24
3091.14
3091.05
3090.99
3090.94
3090.91
3090.89
3090.88
3090.88
3090.89
3090.91
3090.93
3090.95
3090.98
3091.01
3091.04
3091.07
3091.1
3091.14
3091.17
3091.2
3091.22
3091.25
3091.27
3091.29
3091.31
3091.33
3091.34
3091.35
3091.36
3091.36
3091.37
3091.37
3091.36
3091.36
3091.35
3091.35
3091.33
3091.32
3091.31
3091.29
3091.28
3091.26
3091.24
3091.21
3091.19
3091.17
3091.14
2684.89
2690.33
2697.33
2705.92
2716.13
2728.05
2741.73
2757.2
2774.48
2793.56
2814.38
2836.85
2860.83
2886.16
2912.62
2939.98
2967.96
2996.22
3024.68
3052.96
3080.82
3107.96
3134.1
3158.98
3182.36
3204
3223.7
3241.28
3256.61
3269.56
3280.02
3287.9
3293.12
3295.59
3296.03
3293.67
3288.45
3280.36
3269.44
3255.79
3239.53
3220.83
3199.9
3176.97
3152.38
3126.4
3099.41
3071.74
3043.76
3015.9
2989.09
2962.38
2936.43
2911.46
2887.67
2865.19
2844.11
2824.5
2806.43
2789.91
2774.98
2761.64
2749.93
2739.84
2731.39
2724.58
2719.4
2715.85
2713.89
2713.54
2714.76
2717.42
2721.45
2726.77
2733.31
2741.03
2749.86
2759.76
2770.72
2782.71
2795.7
2809.7
2824.68
2840.66
2857.64
2875.6
2894.55
2914.47
2935.33
2957.1
2979.71
3003.07
3027.07
3051.53
3076.27
3101.06
3125.63
3149.7
3172.96
3195.08
3215.73
3234.58
3251.33
3265.69
3277.39
3286.21
3291.96
3294.54
3293.86
3289.93
3282.82
3272.63
3259.53
3243.75
3225.56
3205.27
3183.23
3159.8
3135.33
3110.2
3084.74
3059.26
3034.07
3009.41
2985.49
2962.48
2940.52
2919.73
2900.18
2881.91
2864.96
2849.33
2835.03
2822.03
2810.31
2799.85
2790.61
2782.57
2775.69
2769.96
2765.34
2761.82
2759.39
2758.05
2757.78
2758.6
2760.49
2763.47
2767.56
2772.77
2779.1
2786.59
2795.23
2805.05
2816.03
2828.18
2841.48
2855.91
2871.44
2888.02
2905.59
2924.07
2943.38
2963.41
2984.02
3005.09
3026.44
3047.9
3069.28
3090.39
3111.01
3130.93
3149.94
3167.83
3184.41
3199.48
3212.87
3224.42
3234.01
3241.53
3246.92
3250.12
3251.13
3249.97
3246.7
3241.39
3234.14
3225.08
3214.36
3202.16
3188.67
3174.1
3158.64
3142.53
3125.98
3109.19
3092.37
3075.71
3059.37
3043.51
3028.27
3013.76
3000.17
2987.4
2975.62
2964.84
2955.12
2946.46
2938.86
2932.33
2926.83
2922.36
2918.88
2916.34
2914.71
2913.94
2913.98
2914.78
2916.28
2918.45
2921.22
2924.54
2928.37
2932.65
2937.34
2942.37
2947.71
2953.29
2959.08
2965.03
2971.1
2977.22
2983.38
2989.51
2995.59
3001.58
3007.43
3013.12
3018.61
3023.88
3028.9
3033.64
3038.09
3042.23
3046.04
3049.51
3052.64
3055.41
3057.82
3059.88
3061.58
3062.93
3063.94
3064.61
3064.97
3065.02
3064.78
3064.26
3063.49
3062.48
3061.24
3059.8
3058.19
3056.41
3054.48
3052.44
3050.29
3048.06
3045.76
3043.42
3041.05
3038.66
3036.26
3033.88
3031.53
3029.21
3026.94
3024.72
3022.56
3020.47
3018.45
3016.52
3014.66
3012.89
3011.21
3009.62
3008.11
3006.69
3005.36
3004.11
3002.95
3001.88
3000.88
2999.96
2999.11
2998.34
2997.64
2997
2996.42
2995.9
2995.43
2995.02
2994.65
2994.33
2994.04
2993.8
2993.59
2993.41
2993.26
2993.13
2993.03
2992.95
2992.89
2992.84
2992.81
2992.79
2992.78
2992.78
2992.79
2992.8
2992.82
2992.85
2992.88
2992.91
2992.94
2992.97
2993
2993.04
2993.07
2993.1
2993.12
2993.15
2993.17
2993.19
2993.21
2993.23
2993.24
2993.25
2993.26
2993.26
2993.27
2993.27
2993.27
2993.26
2993.25
2993.25
2993.24
2993.22
2993.21
2993.19
2993.18
2993.16
2993.14
2993.12
2993.09
2993.07
2993.05
2586.18
2591.6
2598.58
2607.14
2617.32
2629.22
2642.88
2658.34
2675.62
2694.7
2715.54
2738.05
2762.08
2787.47
2814.01
2841.46
2869.53
2897.9
2926.46
2954.86
2982.83
3010.09
3036.34
3061.33
3084.81
3106.55
3126.34
3143.99
3159.39
3172.39
3182.9
3190.83
3196.08
3198.57
3199.03
3196.68
3191.44
3183.32
3172.35
3158.63
3142.29
3123.48
3102.43
3079.38
3054.64
3028.53
3001.39
2973.59
2945.49
2917.52
2890.6
2863.81
2837.79
2812.77
2788.95
2766.44
2745.34
2725.72
2707.65
2691.13
2676.2
2662.87
2651.16
2641.07
2632.63
2625.83
2620.66
2617.12
2615.18
2614.86
2616.1
2618.79
2622.84
2628.18
2634.74
2642.47
2651.31
2661.22
2672.19
2684.18
2697.17
2711.16
2726.14
2742.12
2759.09
2777.05
2795.99
2815.92
2836.79
2858.57
2881.21
2904.62
2928.67
2953.2
2978.03
3002.91
3027.6
3051.8
3075.19
3097.44
3118.23
3137.22
3154.1
3168.57
3180.37
3189.27
3195.07
3197.68
3197
3193.05
3185.88
3175.61
3162.41
3146.5
3128.18
3107.75
3085.55
3061.97
3037.36
3012.09
2986.51
2960.93
2935.64
2910.91
2886.92