/*--------------------------------*- C++ -*----------------------------------*\
| =========                 |                                                 |
| \\      /  F ield         | OpenFOAM: The Open Source CFD Toolbox           |
|  \\    /   O peration     | Version:  3.0.1                                 |
|   \\  /    A nd           | Web:      www.OpenFOAM.org                      |
|    \\/     M anipulation  |                                                 |
\*---------------------------------------------------------------------------*/
FoamFile
{
    version     2.0;
    format      ascii;
    class       volScalarField;
    location    "23.8";
    object      p;
}
// * * * * * * * * * * * * * * * * * * * * * * * * * * * * * * * * * * * * * //

dimensions      [1 -1 -2 0 0 0 0];

internalField   nonuniform List<scalar> 
22680
(
3506.74
3503.25
3500.95
3499.83
3499.86
3501.03
3503.31
3506.69
3511.17
3516.75
3523.48
3531.31
3540.24
3550.27
3561.42
3573.69
3587.08
3601.61
3617.27
3634.09
3652.07
3671.22
3691.55
3713.06
3735.71
3759.5
3784.36
3810.24
3837.07
3864.75
3893.23
3922.3
3952.45
3982.4
4012.33
4042.12
4071.52
4100.33
4128.3
4155.18
4180.73
4204.69
4226.83
4246.9
4264.68
4279.96
4292.55
4302.29
4309.03
4312.69
4313.2
4310.48
4304.64
4295.68
4283.65
4268.69
4250.98
4230.67
4207.99
4183.17
4156.47
4128.16
4098.52
4067.83
4036.4
4004.48
3972.37
3940.31
3908.54
3877.29
3846.88
3821.08
3792.94
3765.9
3740.19
3715.9
3693.08
3671.77
3651.97
3633.67
3616.85
3601.48
3587.52
3574.91
3563.6
3553.56
3544.72
3537.05
3530.51
3525.08
3520.73
3517.45
3515.23
3514.07
3513.98
3514.99
3517.11
3520.35
3524.74
3530.33
3537.14
3545.19
3554.51
3565.12
3577.04
3590.27
3604.83
3620.7
3637.89
3656.37
3676.14
3697.15
3719.37
3742.76
3767.24
3792.76
3819.22
3846.53
3874.56
3903.21
3932.31
3961.7
3991.2
4020.63
4049.73
4078.29
4106.08
4132.87
4158.42
4182.52
4204.93
4225.46
4243.89
4260.06
4273.8
4284.98
4293.49
4299.24
4302.17
4302.24
4299.45
4293.73
4285.28
4274.08
4260.21
4243.81
4225
4203.96
4180.87
4155.92
4129.34
4101.35
4072.21
4042.16
4011.45
3980.35
3949.1
3917.94
3887.11
3856.82
3827.29
3798.69
3771.17
3744.88
3719.93
3696.41
3674.39
3653.93
3635.04
3617.73
3602.02
3587.88
3575.3
3564.26
3554.71
3546.62
3539.96
3534.67
3530.7
3528
3526.52
3526.19
3526.98
3528.82
3531.68
3535.51
3540.3
3546.01
3552.63
3560.17
3568.59
3577.92
3588.17
3599.36
3611.53
3624.7
3638.91
3654.2
3670.61
3688.14
3706.82
3726.67
3747.67
3769.82
3793.09
3817.44
3842.81
3869.12
3896.28
3924.16
3952.64
3981.54
4010.67
4039.81
4068.76
4097.26
4125.07
4151.95
4177.65
4201.96
4224.67
4245.47
4264.53
4281.4
4296.31
3408.57
3405.08
3402.79
3401.67
3401.7
3402.87
3405.15
3408.53
3413.01
3418.59
3425.32
3433.15
3442.08
3452.11
3463.26
3475.53
3488.91
3503.44
3519.1
3535.92
3553.9
3573.05
3593.38
3614.88
3637.54
3661.33
3686.19
3712.07
3738.9
3766.59
3795.08
3824.16
3854.31
3884.27
3914.21
3944.01
3973.43
4002.25
4030.23
4057.14
4082.7
4106.68
4128.83
4148.92
4166.71
4182.01
4194.61
4204.35
4211.11
4214.77
4215.28
4212.56
4206.71
4197.75
4185.71
4170.75
4153.01
4132.69
4110
4085.16
4058.45
4030.12
4000.46
3969.75
3938.3
3906.37
3874.25
3842.17
3810.39
3779.12
3748.67
3722.92
3694.75
3667.71
3641.99
3617.7
3594.88
3573.57
3553.77
3535.48
3518.66
3503.3
3489.33
3476.73
3465.43
3455.38
3446.55
3438.89
3432.35
3426.92
3422.57
3419.29
3417.07
3415.91
3415.82
3416.83
3418.95
3422.18
3426.58
3432.16
3438.97
3447.02
3456.34
3466.95
3478.87
3492.1
3506.65
3522.52
3539.71
3558.2
3577.96
3598.98
3621.2
3644.59
3669.08
3694.59
3721.06
3748.37
3776.41
3805.07
3834.17
3863.58
3893.09
3922.53
3951.63
3980.21
4008.01
4034.81
4060.38
4084.49
4106.92
4127.45
4145.9
4162.08
4175.83
4187.02
4195.54
4201.3
4204.23
4204.3
4201.5
4195.8
4187.33
4176.13
4162.25
4145.84
4127.02
4105.97
4082.86
4057.9
4031.3
4003.3
3974.14
3944.07
3913.35
3882.23
3850.97
3819.8
3788.96
3758.66
3729.12
3700.51
3672.98
3646.69
3621.73
3598.21
3576.2
3555.73
3536.84
3519.54
3503.82
3489.69
3477.11
3466.07
3456.52
3448.44
3441.78
3436.49
3432.53
3429.83
3428.35
3428.03
3428.81
3430.66
3433.52
3437.36
3442.15
3447.86
3454.48
3462.02
3470.44
3479.77
3490.02
3501.21
3513.37
3526.54
3540.75
3556.04
3572.44
3589.97
3608.65
3628.49
3649.5
3671.65
3694.92
3719.27
3744.64
3770.95
3798.12
3826.01
3854.49
3883.4
3912.54
3941.7
3970.66
3999.17
4027
4053.9
4079.61
4103.94
4126.65
4147.49
4166.53
4183.32
4197.92
3310.33
3306.85
3304.56
3303.44
3303.47
3304.64
3306.92
3310.31
3314.79
3320.37
3327.1
3334.93
3343.86
3353.89
3365.03
3377.3
3390.69
3405.21
3420.87
3437.68
3455.66
3474.81
3495.13
3516.63
3539.29
3563.08
3587.94
3613.83
3640.67
3668.37
3696.87
3725.96
3756.13
3786.11
3816.08
3845.9
3875.34
3904.2
3932.21
3959.14
3984.73
4008.75
4030.93
4051.05
4068.87
4084.19
4096.82
4106.58
4113.35
4117.02
4117.53
4114.82
4108.96
4099.98
4087.93
4072.95
4055.19
4034.84
4012.12
3987.25
3960.5
3932.13
3902.44
3871.7
3840.21
3808.25
3776.1
3743.99
3712.19
3680.89
3650.37
3624.72
3596.48
3569.42
3543.69
3519.4
3496.58
3475.28
3455.48
3437.19
3420.38
3405.02
3391.07
3378.47
3367.18
3357.14
3348.31
3340.65
3334.12
3328.7
3324.35
3321.07
3318.85
3317.68
3317.59
3318.6
3320.72
3323.95
3328.34
3333.93
3340.73
3348.77
3358.09
3368.7
3380.61
3393.84
3408.4
3424.27
3441.46
3459.94
3479.71
3500.73
3522.96
3546.35
3570.84
3596.37
3622.84
3650.16
3678.22
3706.88
3736
3765.42
3794.96
3824.42
3853.55
3882.14
3909.97
3936.8
3962.4
3986.53
4008.99
4029.55
4048.02
4064.22
4078
4089.2
4097.74
4103.5
4106.44
4106.52
4103.72
4098.03
4089.53
4078.32
4064.43
4047.99
4029.15
4008.07
3984.94
3959.94
3933.32
3905.28
3876.09
3845.99
3815.25
3784.1
3752.81
3721.61
3690.75
3660.43
3630.88
3602.25
3574.71
3548.41
3523.45
3499.92
3477.9
3457.43
3438.54
3421.25
3405.53
3391.4
3378.83
3367.79
3358.25
3350.18
3343.52
3338.24
3334.28
3331.59
3330.12
3329.8
3330.59
3332.44
3335.31
3339.15
3343.94
3349.65
3356.28
3363.82
3372.24
3381.57
3391.81
3403
3415.15
3428.32
3442.52
3457.8
3474.2
3491.73
3510.4
3530.24
3551.25
3573.39
3596.67
3621.02
3646.4
3672.72
3699.89
3727.8
3756.3
3785.23
3814.39
3843.57
3872.56
3901.1
3928.96
3955.89
3981.63
4005.99
4028.72
4049.61
4068.61
4085.35
4099.88
3212.02
3208.54
3206.26
3205.14
3205.18
3206.35
3208.64
3212.02
3216.51
3222.09
3228.82
3236.64
3245.58
3255.6
3266.75
3279.01
3292.39
3306.91
3322.57
3339.37
3357.35
3376.49
3396.81
3418.31
3440.97
3464.76
3489.63
3515.53
3542.38
3570.08
3598.6
3627.71
3657.91
3687.92
3717.92
3747.78
3777.26
3806.16
3834.21
3861.2
3886.83
3910.9
3933.13
3953.29
3971.16
3986.52
3999.18
4008.97
4015.76
4019.45
4019.97
4017.26
4011.38
4002.39
3990.31
3975.3
3957.51
3937.11
3914.34
3889.43
3862.62
3834.2
3804.46
3773.67
3742.13
3710.12
3677.92
3645.78
3613.94
3582.59
3551.98
3526.44
3498.12
3471.04
3445.3
3421
3398.19
3376.88
3357.09
3338.81
3322.01
3306.66
3292.72
3280.13
3268.85
3258.83
3250.01
3242.36
3235.83
3230.41
3226.07
3222.79
3220.57
3219.4
3219.31
3220.32
3222.43
3225.65
3230.04
3235.62
3242.42
3250.46
3259.77
3270.38
3282.29
3295.52
3310.07
3325.94
3343.13
3361.62
3381.39
3402.41
3424.64
3448.04
3472.54
3498.08
3524.56
3551.9
3579.97
3608.66
3637.8
3667.25
3696.81
3726.3
3755.47
3784.1
3811.96
3838.83
3864.47
3888.65
3911.14
3931.74
3950.25
3966.48
3980.29
3991.53
4000.08
4005.87
4008.82
4008.9
4006.1
4000.41
3991.89
3980.66
3966.74
3950.28
3931.4
3910.29
3887.11
3862.07
3835.39
3807.31
3778.08
3747.93
3717.14
3685.95
3654.62
3623.39
3592.49
3562.15
3532.56
3503.91
3476.36
3450.04
3425.07
3401.54
3379.51
3359.04
3340.15
3322.86
3307.15
3293.03
3280.46
3269.43
3259.9
3251.83
3245.18
3239.91
3235.96
3233.29
3231.82
3231.51
3232.31
3234.17
3237.04
3240.89
3245.69
3251.4
3258.03
3265.57
3273.99
3283.31
3293.55
3304.73
3316.88
3330.03
3344.23
3359.5
3375.89
3393.41
3412.08
3431.92
3452.92
3475.07
3498.35
3522.7
3548.09
3574.42
3601.61
3629.53
3658.06
3687.02
3716.21
3745.43
3774.46
3803.04
3830.95
3857.92
3883.71
3908.12
3930.88
3951.81
3970.78
3987.47
4001.91
3113.64
3110.17
3107.89
3106.79
3106.83
3108
3110.29
3113.68
3118.17
3123.74
3130.48
3138.3
3147.24
3157.26
3168.4
3180.66
3194.04
3208.55
3224.2
3241
3258.96
3278.1
3298.42
3319.91
3342.57
3366.36
3391.24
3417.15
3444.01
3471.74
3500.27
3529.4
3559.65
3589.7
3619.74
3649.65
3679.19
3708.14
3736.26
3763.3
3789.01
3813.13
3835.43
3855.65
3873.58
3888.99
3901.7
3911.53
3918.35
3922.06
3922.58
3919.88
3913.99
3904.96
3892.86
3877.8
3859.96
3839.51
3816.68
3791.7
3764.82
3736.33
3706.52
3675.66
3644.05
3611.98
3579.73
3547.53
3515.63
3484.24
3453.52
3428.09
3399.67
3372.56
3346.81
3322.51
3299.69
3278.39
3258.61
3240.34
3223.55
3208.22
3194.29
3181.72
3170.45
3160.44
3151.63
3143.99
3137.48
3132.06
3127.72
3124.45
3122.23
3121.06
3120.97
3121.97
3124.07
3127.29
3131.67
3137.24
3144.03
3152.07
3161.38
3171.98
3183.89
3197.11
3211.66
3227.53
3244.72
3263.21
3282.99
3304.02
3326.26
3349.66
3374.17
3399.72
3426.22
3453.58
3481.67
3510.39
3539.56
3569.04
3598.65
3628.18
3657.39
3686.07
3713.99
3740.91
3766.6
3790.83
3813.38
3834.03
3852.59
3868.87
3882.72
3893.99
3902.57
3908.38
3911.35
3911.44
3908.63
3902.94
3894.41
3883.15
3869.2
3852.69
3833.77
3812.6
3789.36
3764.27
3737.53
3709.39
3680.09
3649.88
3619.03
3587.79
3556.4
3525.12
3494.18
3463.8
3434.18
3405.5
3377.92
3351.58
3326.6
3303.05
3281.03
3260.55
3241.67
3224.37
3208.67
3194.56
3182
3170.98
3161.45
3153.4
3146.76
3141.51
3137.57
3134.91
3133.46
3133.16
3133.97
3135.84
3138.72
3142.58
3147.38
3153.1
3159.74
3167.26
3175.68
3185
3195.23
3206.41
3218.55
3231.69
3245.88
3261.14
3277.52
3295.03
3313.69
3333.52
3354.52
3376.67
3399.95
3424.31
3449.71
3476.05
3503.27
3531.21
3559.78
3588.77
3618.01
3647.28
3676.36
3705
3732.97
3760
3785.85
3810.31
3833.13
3854.11
3873.08
3889.78
3904.09
3015.19
3011.73
3009.46
3008.36
3008.41
3009.59
3011.88
3015.28
3019.77
3025.34
3032.08
3039.9
3048.83
3058.85
3069.99
3082.24
3095.61
3110.12
3125.76
3142.55
3160.51
3179.64
3199.95
3221.44
3244.1
3267.9
3292.78
3318.7
3345.58
3373.33
3401.89
3431.04
3461.36
3491.45
3521.54
3551.52
3581.12
3610.15
3638.34
3665.46
3691.24
3715.45
3737.82
3758.13
3776.13
3791.61
3804.37
3814.26
3821.11
3824.84
3825.38
3822.67
3816.77
3807.71
3795.57
3780.46
3762.55
3742.04
3719.13
3694.06
3667.1
3638.52
3608.62
3577.67
3545.98
3513.83
3481.5
3449.24
3417.28
3385.83
3355.01
3329.62
3301.13
3273.98
3248.22
3223.91
3201.1
3179.8
3160.03
3141.77
3125
3109.68
3095.77
3083.22
3071.97
3061.98
3053.19
3045.56
3039.06
3033.66
3029.32
3026.05
3023.83
3022.66
3022.56
3023.56
3025.65
3028.86
3033.23
3038.8
3045.58
3053.61
3062.91
3073.5
3085.41
3098.63
3113.18
3129.05
3146.24
3164.73
3184.51
3205.55
3227.8
3251.21
3275.74
3301.31
3327.82
3355.21
3383.33
3412.07
3441.28
3470.81
3500.47
3530.05
3559.32
3588.06
3616.04
3643.03
3668.79
3693.09
3715.7
3736.42
3755.04
3771.37
3785.27
3796.59
3805.21
3811.05
3814.04
3814.13
3811.33
3805.63
3797.08
3785.78
3771.79
3755.23
3736.25
3715.02
3691.71
3666.54
3639.72
3611.5
3582.13
3551.85
3520.92
3489.6
3458.16
3426.81
3395.82
3365.38
3335.72
3307
3279.39
3253.03
3228.03
3204.48
3182.44
3161.97
3143.08
3125.8
3110.1
3095.99
3083.45
3072.44
3062.93
3054.89
3048.27
3043.03
3039.11
3036.46
3035.02
3034.75
3035.57
3037.45
3040.34
3044.21
3049.02
3054.75
3061.39
3068.91
3077.33
3086.64
3096.86
3108.03
3120.15
3133.29
3147.46
3162.71
3179.07
3196.57
3215.23
3235.05
3256.04
3278.19
3301.48
3325.85
3351.26
3377.62
3404.86
3432.84
3461.44
3490.48
3519.78
3549.11
3578.25
3606.97
3635.01
3662.12
3688.05
3712.59
3735.47
3756.5
3775.46
3792.17
3806.36
2916.67
2913.23
2910.97
2909.88
2909.93
2911.12
2913.41
2916.81
2921.3
2926.88
2933.61
2941.44
2950.37
2960.38
2971.51
2983.76
2997.13
3011.62
3027.26
3044.04
3061.99
3081.11
3101.41
3122.9
3145.56
3169.36
3194.25
3220.19
3247.09
3274.86
3303.45
3332.64
3363.02
3393.16
3423.32
3453.37
3483.05
3512.17
3540.46
3567.67
3593.55
3617.85
3640.32
3660.72
3678.81
3694.37
3707.2
3717.14
3724.04
3727.8
3728.35
3725.65
3719.72
3710.63
3698.43
3683.27
3665.29
3644.68
3621.68
3596.51
3569.45
3540.77
3510.75
3479.7
3447.91
3415.67
3383.25
3350.91
3318.88
3287.36
3256.46
3231.04
3202.48
3175.31
3149.53
3125.22
3102.4
3081.11
3061.35
3043.11
3026.36
3011.06
2997.17
2984.65
2973.42
2963.45
2954.68
2947.07
2940.58
2935.18
2930.86
2927.59
2925.37
2924.2
2924.1
2925.08
2927.16
2930.37
2934.73
2940.28
2947.05
2955.07
2964.37
2974.96
2986.86
3000.07
3014.62
3030.49
3047.68
3066.18
3085.96
3107.01
3129.26
3152.7
3177.24
3202.82
3229.37
3256.78
3284.93
3313.72
3342.97
3372.55
3402.27
3431.92
3461.26
3490.07
3518.13
3545.2
3571.04
3595.42
3618.11
3638.9
3657.6
3674
3687.96
3699.33
3708
3713.88
3716.89
3717
3714.19
3708.48
3699.9
3688.56
3674.52
3657.9
3638.86
3617.54
3594.15
3568.89
3541.98
3513.66
3484.19
3453.82
3422.8
3391.41
3359.88
3328.46
3297.4
3266.9
3237.19
3208.43
3180.78
3154.39
3129.37
3105.8
3083.76
3063.28
3044.4
3027.12
3011.44
2997.34
2984.81
2973.81
2964.31
2956.29
2949.69
2944.47
2940.57
2937.94
2936.53
2936.27
2937.11
2939
2941.91
2945.79
2950.61
2956.34
2962.99
2970.51
2978.92
2988.23
2998.44
3009.59
3021.71
3034.82
3048.98
3064.21
3080.56
3098.04
3116.69
3136.51
3157.49
3179.64
3202.93
3227.31
3252.73
3279.12
3306.39
3334.41
3363.06
3392.16
3421.52
3450.92
3480.15
3508.96
3537.09
3564.29
3590.31
3614.94
3637.89
3658.99
3677.94
3694.69
3708.73
2818.09
2814.65
2812.4
2811.32
2811.39
2812.58
2814.88
2818.28
2822.78
2828.35
2835.09
2842.91
2851.84
2861.85
2872.98
2885.22
2898.58
2913.06
2928.68
2945.46
2963.4
2982.51
3002.8
3024.28
3046.94
3070.74
3095.65
3121.6
3148.53
3176.33
3204.96
3234.2
3264.63
3294.84
3325.08
3355.22
3385
3414.22
3442.61
3469.93
3495.92
3520.34
3542.92
3563.42
3581.62
3597.27
3610.19
3620.2
3627.15
3630.94
3631.51
3628.8
3622.86
3613.72
3601.47
3586.22
3568.16
3547.46
3524.35
3499.06
3471.88
3443.07
3412.93
3381.76
3349.85
3317.49
3284.97
3252.54
3220.44
3188.84
3157.86
3132.35
3103.74
3076.53
3050.75
3026.42
3003.61
2982.32
2962.57
2944.35
2927.62
2912.35
2898.49
2885.99
2874.79
2864.85
2856.1
2848.51
2842.03
2836.65
2832.33
2829.07
2826.85
2825.68
2825.57
2826.55
2828.62
2831.81
2836.16
2841.7
2848.46
2856.47
2865.75
2876.33
2888.23
2901.44
2915.98
2931.85
2949.04
2967.55
2987.34
3008.39
3030.66
3054.11
3078.67
3104.28
3130.85
3158.29
3186.49
3215.32
3244.63
3274.27
3304.05
3333.78
3363.2
3392.1
3420.25
3447.41
3473.34
3497.82
3520.61
3541.49
3560.27
3576.75
3590.78
3602.22
3610.94
3616.86
3619.89
3620.02
3617.21
3611.48
3602.88
3591.49
3577.39
3560.71
3541.57
3520.17
3496.68
3471.31
3444.29
3415.87
3386.29
3355.81
3324.69
3293.19
3261.57
3230.07
3198.92
3168.36
3138.59
3109.77
3082.08
3055.66
3030.61
3007.03
2984.98
2964.5
2945.62
2928.35
2912.68
2898.59
2886.07
2875.09
2865.62
2857.61
2851.03
2845.83
2841.96
2839.36
2837.96
2837.72
2838.59
2840.5
2843.42
2847.31
2852.14
2857.89
2864.53
2872.06
2880.47
2889.77
2899.97
2911.1
2923.2
2936.29
2950.43
2965.65
2981.98
2999.45
3018.08
3037.89
3058.87
3081.02
3104.31
3128.7
3154.14
3180.55
3207.86
3235.92
3264.63
3293.79
3323.23
3352.73
3382.05
3410.95
3439.19
3466.5
3492.63
3517.36
3540.4
3561.57
3580.54
3597.3
3611.22
2719.43
2716.01
2713.78
2712.71
2712.78
2713.98
2716.29
2719.7
2724.19
2729.77
2736.51
2744.33
2753.25
2763.26
2774.38
2786.62
2799.96
2814.44
2830.05
2846.81
2864.73
2883.83
2904.11
2925.59
2948.24
2972.05
2996.97
3022.94
3049.9
3077.74
3106.41
3135.71
3166.18
3196.49
3226.82
3257.06
3286.94
3316.28
3344.79
3372.24
3398.36
3422.91
3445.61
3466.25
3484.55
3500.32
3513.33
3523.42
3530.43
3534.26
3534.85
3532.14
3526.17
3516.98
3504.66
3489.34
3471.17
3450.36
3427.12
3401.7
3374.38
3345.43
3315.15
3283.83
3251.79
3219.31
3186.67
3154.13
3121.94
3090.26
3059.21
3033.55
3004.89
2977.66
2951.86
2927.53
2904.71
2883.44
2863.7
2845.5
2828.8
2813.56
2799.73
2787.26
2776.09
2766.17
2757.45
2749.88
2743.42
2738.06
2733.75
2730.49
2728.27
2727.1
2726.98
2727.95
2730.01
2733.19
2737.52
2743.05
2749.79
2757.79
2767.06
2777.64
2789.52
2802.73
2817.27
2833.14
2850.33
2868.84
2888.64
2909.7
2931.98
2955.45
2980.03
3005.67
3032.27
3059.75
3087.99
3116.88
3146.25
3175.95
3205.82
3235.64
3265.14
3294.14
3322.4
3349.66
3375.71
3400.29
3423.18
3444.17
3463.04
3479.62
3493.74
3505.25
3514.03
3519.99
3523.06
3523.2
3520.39
3514.65
3506.02
3494.57
3480.41
3463.64
3444.41
3422.9
3399.3
3373.81
3346.67
3318.11
3288.41
3257.8
3226.57
3194.96
3163.23
3131.63
3100.4
3069.75
3039.91
3011.04
2983.3
2956.84
2931.76
2908.16
2886.1
2865.62
2846.75
2829.48
2813.82
2799.75
2787.25
2776.29
2766.83
2758.85
2752.3
2747.12
2743.28
2740.7
2739.33
2739.12
2740.01
2741.94
2744.88
2748.78
2753.63
2759.38
2766.03
2773.56
2781.96
2791.25
2801.44
2812.56
2824.63
2837.71
2851.82
2867.01
2883.32
2900.78
2919.39
2939.19
2960.16
2982.31
3005.61
3030.01
3055.47
3081.92
3109.26
3137.38
3166.15
3195.39
3224.92
3254.51
3283.94
3312.96
3341.32
3368.76
3395
3419.85
3443
3464.25
3483.25
3499.99
3513.84
2620.7
2617.3
2615.08
2614.03
2614.12
2615.33
2617.64
2621.05
2625.54
2631.12
2637.86
2645.69
2654.61
2664.61
2675.72
2687.95
2701.28
2715.75
2731.34
2748.09
2765.99
2785.08
2805.35
2826.82
2849.47
2873.28
2898.22
2924.21
2951.2
2979.08
3007.81
3037.18
3067.68
3098.1
3128.53
3158.89
3188.9
3218.37
3247.01
3274.6
3300.87
3325.56
3348.41
3369.18
3387.63
3403.51
3416.63
3426.81
3433.89
3437.77
3438.37
3435.66
3429.66
3420.41
3408.02
3392.6
3374.33
3353.38
3330.01
3304.44
3276.96
3247.84
3217.4
3185.93
3153.73
3121.11
3088.34
3055.68
3023.38
2991.63
2960.52
2934.62
2905.94
2878.69
2852.87
2828.53
2805.72
2784.45
2764.73
2746.55
2729.88
2714.68
2700.88
2688.45
2677.31
2667.43
2658.73
2651.19
2644.75
2639.4
2635.1
2631.85
2629.64
2628.46
2628.34
2629.29
2631.33
2634.5
2638.82
2644.32
2651.06
2659.04
2668.3
2678.86
2690.74
2703.94
2718.48
2734.34
2751.54
2770.05
2789.86
2810.93
2833.24
2856.72
2881.32
2906.99
2933.63
2961.15
2989.45
3018.39
3047.83
3077.62
3107.56
3137.48
3167.1
3196.21
3224.57
3251.96
3278.12
3302.83
3325.84
3346.95
3365.93
3382.62
3396.83
3408.42
3417.27
3423.28
3426.39
3426.55
3423.74
3417.98
3409.3
3397.8
3383.56
3366.7
3347.37
3325.74
3302
3276.38
3249.1
3220.4
3190.55
3159.81
3128.44
3096.7
3064.86
3033.15
3001.81
2971.08
2941.16
2912.22
2884.43
2857.92
2832.82
2809.2
2787.12
2766.64
2747.77
2730.52
2714.87
2700.82
2688.34
2677.4
2667.96
2660.01
2653.48
2648.34
2644.52
2641.97
2640.64
2640.45
2641.36
2643.32
2646.28
2650.2
2655.06
2660.82
2667.48
2675.01
2683.41
2692.69
2702.86
2713.96
2726.01
2739.06
2753.15
2768.32
2784.6
2802.03
2820.63
2840.42
2861.39
2883.53
2906.83
2931.25
2956.73
2983.21
3010.6
3038.77
3067.62
3096.95
3126.58
3156.28
3185.83
3214.99
3243.48
3271.06
3297.44
3322.42
3345.69
3367.04
3386.07
3402.79
3416.57
2521.9
2518.52
2516.32
2515.28
2515.39
2516.6
2518.93
2522.34
2526.84
2532.41
2539.16
2546.98
2555.9
2565.89
2577
2589.22
2602.54
2616.99
2632.57
2649.3
2667.19
2686.26
2706.52
2727.97
2750.62
2774.44
2799.39
2825.41
2852.43
2880.36
2909.14
2938.6
2969.14
2999.67
3030.22
3060.7
3090.85
3120.47
3149.27
3177.02
3203.44
3228.29
3251.3
3272.23
3290.83
3306.85
3320.09
3330.36
3337.52
3341.45
3342.08
3339.36
3333.33
3324.03
3311.55
3296.02
3277.62
3256.54
3233
3207.27
3179.61
3150.31
3119.69
3088.04
3055.68
3022.89
2989.98
2957.19
2924.78
2892.95
2861.81
2835.56
2806.89
2779.62
2753.78
2729.43
2706.62
2685.36
2665.66
2647.51
2630.87
2615.7
2601.95
2589.56
2578.46
2568.61
2559.95
2552.43
2546.02
2540.69
2536.4
2533.15
2530.94
2529.76
2529.63
2530.56
2532.59
2535.74
2540.04
2545.53
2552.25
2560.22
2569.47
2580.01
2591.88
2605.08
2619.61
2635.47
2652.67
2671.19
2691.01
2712.09
2734.41
2757.92
2782.55
2808.25
2834.93
2862.5
2890.85
2919.86
2949.37
2979.25
3009.29
3039.32
3069.05
3098.28
3126.78
3154.3
3180.6
3205.44
3228.59
3249.82
3268.93
3285.73
3300.05
3311.73
3320.66
3326.73
3329.88
3330.06
3327.25
3321.46
3312.75
3301.18
3286.85
3269.89
3250.44
3228.68
3204.8
3179.02
3151.59
3122.73
3092.73
3061.83
3030.31
2998.43
2966.45
2934.62
2903.17
2872.34
2842.33
2813.32
2785.47
2758.91
2733.77
2710.13
2688.05
2667.56
2648.7
2631.46
2615.83
2601.79
2589.33
2578.42
2569.01
2561.08
2554.58
2549.47
2545.69
2543.18
2541.88
2541.72
2542.66
2544.65
2547.63
2551.57
2556.44
2562.22
2568.88
2576.41
2584.8
2594.07
2604.23
2615.31
2627.33
2640.35
2654.41
2669.55
2685.81
2703.22
2721.8
2741.57
2762.53
2784.67
2807.98
2832.41
2857.92
2884.43
2911.87
2940.11
2969.03
2998.46
3028.2
3058.03
3087.72
3117.02
3145.66
3173.4
3199.93
3225.05
3248.46
3269.91
3289.01
3305.71
3319.41
2423.04
2419.68
2417.5
2416.48
2416.59
2417.82
2420.15
2423.57
2428.07
2433.65
2440.4
2448.22
2457.13
2467.12
2478.22
2490.42
2503.73
2518.16
2533.73
2550.44
2568.31
2587.36
2607.61
2629.05
2651.7
2675.53
2700.49
2726.54
2753.6
2781.57
2810.42
2839.95
2870.56
2901.21
2931.88
2962.51
2992.81
3022.58
3051.55
3079.48
3106.08
3131.11
3154.3
3175.4
3194.16
3210.33
3223.71
3234.09
3241.33
3245.31
3245.97
3243.25
3237.18
3227.81
3215.24
3199.6
3181.06
3159.82
3136.11
3110.19
3082.33
3052.84
3022.02
2990.18
2957.63
2924.66
2891.58
2858.65
2826.12
2794.2
2763.07
2736.36
2707.74
2680.45
2654.59
2630.23
2607.42
2586.17
2566.5
2548.38
2531.77
2516.65
2502.94
2490.59
2479.53
2469.72
2461.1
2453.61
2447.23
2441.91
2437.64
2434.4
2432.18
2431
2430.86
2431.78
2433.79
2436.92
2441.2
2446.67
2453.37
2461.32
2470.55
2481.09
2492.95
2506.14
2520.66
2536.53
2553.73
2572.25
2592.08
2613.18
2635.52
2659.05
2683.71
2709.44
2736.16
2763.79
2792.2
2821.28
2850.88
2880.85
2911
2941.15
2971.01
3000.38
3029.02
3056.68
3083.13
3108.12
3131.42
3152.8
3172.04
3188.97
3203.4
3215.18
3224.2
3230.34
3233.53
3233.73
3230.92
3225.11
3216.35
3204.71
3190.29
3173.21
3153.63
3131.72
3107.69
3081.74
3054.13
3025.1
2994.92
2963.86
2932.17
2900.14
2868.01
2836.05
2804.48
2773.53
2743.43
2714.33
2686.41
2659.81
2634.63
2610.97
2588.87
2568.39
2549.53
2532.3
2516.69
2502.68
2490.24
2479.35
2469.97
2462.07
2455.61
2450.53
2446.79
2444.31
2443.05
2442.93
2443.9
2445.92
2448.92
2452.89
2457.78
2463.56
2470.23
2477.76
2486.15
2495.41
2505.54
2516.6
2528.59
2541.58
2555.61
2570.72
2586.95
2604.33
2622.89
2642.64
2663.6
2685.74
2709.05
2733.5
2759.03
2785.58
2813.08
2841.39
2870.4
2899.93
2929.8
2959.77
2989.61
3019.07
3047.88
3075.78
3102.47
3127.76
3151.32
3172.89
3192.07
3208.74
3222.38
2324.1
2320.77
2318.61
2317.61
2317.74
2318.98
2321.32
2324.74
2329.24
2334.82
2341.57
2349.4
2358.31
2368.28
2379.37
2391.56
2404.86
2419.28
2434.82
2451.51
2469.36
2488.39
2508.62
2530.06
2552.7
2576.53
2601.51
2627.59
2654.69
2682.72
2711.63
2741.25
2771.93
2802.71
2833.52
2864.3
2894.77
2924.72
2953.87
2981.99
3008.78
3034
3057.39
3078.69
3097.62
3113.97
3127.49
3137.99
3145.32
3149.36
3150.04
3147.32
3141.21
3131.77
3119.1
3103.33
3084.64
3063.22
3039.32
3013.2
2985.14
2955.43
2924.39
2892.33
2859.57
2826.42
2793.16
2760.07
2727.41
2695.39
2664.26
2637.08
2608.49
2581.18
2555.29
2530.93
2508.11
2486.88
2467.23
2449.14
2432.58
2417.5
2403.84
2391.54
2380.53
2370.76
2362.18
2354.73
2348.37
2343.07
2338.82
2335.59
2333.37
2332.18
2332.03
2332.93
2334.93
2338.04
2342.29
2347.74
2354.42
2362.35
2371.57
2382.09
2393.94
2407.12
2421.64
2437.5
2454.71
2473.24
2493.07
2514.19
2536.55
2560.1
2584.8
2610.57
2637.34
2665.02
2693.5
2722.66
2752.35
2782.42
2812.69
2842.97
2872.97
2902.49
2931.28
2959.11
2985.72
3010.88
3034.34
3055.87
3075.27
3092.33
3106.89
3118.78
3127.89
3134.1
3137.35
3137.57
3134.76
3128.93
3120.11
3108.39
3093.87
3076.67
3056.94
3034.87
3010.66
2984.54
2956.74
2927.52
2897.15
2865.89
2834.03
2801.82
2769.54
2737.43
2705.72
2674.66
2644.45
2615.27
2587.27
2560.61
2535.4
2511.71
2489.6
2469.11
2450.26
2433.04
2417.45
2403.46
2391.05
2380.19
2370.84
2362.98
2356.55
2351.52
2347.81
2345.38
2344.15
2344.07
2345.08
2347.13
2350.16
2354.15
2359.06
2364.85
2371.53
2379.06
2387.44
2396.69
2406.81
2417.83
2429.8
2442.75
2456.75
2471.82
2488.02
2505.37
2523.91
2543.64
2564.58
2586.72
2610.04
2634.5
2660.07
2686.66
2714.22
2742.61
2771.71
2801.36
2831.36
2861.48
2891.49
2921.12
2950.11
2978.2
3005.08
3030.54
3054.27
3075.98
3095.24
3111.92
3125.47
2225.1
2221.79
2219.66
2218.67
2218.82
2220.07
2222.42
2225.85
2230.36
2235.94
2242.69
2250.51
2259.42
2269.39
2280.46
2292.64
2305.92
2320.32
2335.84
2352.51
2370.34
2389.35
2409.56
2430.98
2453.62
2477.46
2502.46
2528.57
2555.71
2583.8
2612.78
2642.49
2673.26
2704.17
2735.13
2766.08
2796.73
2826.87
2856.22
2884.54
2911.54
2936.98
2960.58
2982.08
3001.22
3017.74
3031.42
3042.06
3049.49
3053.6
3054.31
3051.57
3045.43
3035.91
3023.13
3007.22
2988.36
2966.76
2942.65
2916.31
2888.01
2858.07
2826.79
2794.5
2761.52
2728.16
2694.71
2661.44
2628.63
2596.5
2565.34
2537.72
2509.14
2481.8
2455.9
2431.52
2408.71
2387.49
2367.87
2349.81
2333.3
2318.27
2304.66
2292.41
2281.46
2271.74
2263.19
2255.78
2249.45
2244.18
2239.94
2236.71
2234.5
2233.3
2233.14
2234.03
2236
2239.08
2243.32
2248.74
2255.4
2263.31
2272.51
2283.02
2294.85
2308.02
2322.54
2338.4
2355.61
2374.14
2393.99
2415.13
2437.51
2461.09
2485.82
2511.63
2538.45
2566.19
2594.74
2623.99
2653.77
2683.96
2714.35
2744.78
2774.93
2804.61
2833.57
2861.57
2888.37
2913.7
2937.33
2959.04
2978.6
2995.81
3010.51
3022.52
3031.73
3038.03
3041.33
3041.58
3038.77
3032.9
3024.03
3012.23
2997.59
2980.25
2960.37
2938.13
2913.73
2887.41
2859.4
2829.97
2799.39
2767.94
2735.88
2703.49
2671.03
2638.76
2606.91
2575.72
2545.39
2516.11
2488.04
2461.32
2436.06
2412.34
2390.22
2369.73
2350.89
2333.69
2318.12
2304.16
2291.77
2280.94
2271.63
2263.8
2257.41
2252.42
2248.76
2246.38
2245.2
2245.16
2246.2
2248.28
2251.35
2255.36
2260.29
2266.1
2272.78
2280.31
2288.69
2297.92
2308.02
2319.01
2330.95
2343.86
2357.82
2372.85
2389.01
2406.34
2424.85
2444.57
2465.49
2487.63
2510.96
2535.44
2561.03
2587.67
2615.29
2643.76
2672.97
2702.75
2732.89
2763.17
2793.36
2823.19
2852.38
2880.66
2907.74
2933.4
2957.3
2979.16
2998.53
3015.24
3028.7
2126.02
2122.75
2120.64
2119.68
2119.84
2121.1
2123.46
2126.9
2131.41
2136.99
2143.75
2151.57
2160.47
2170.43
2181.49
2193.66
2206.92
2221.3
2236.8
2253.45
2271.25
2290.23
2310.42
2331.83
2354.46
2378.31
2403.33
2429.48
2456.67
2484.81
2513.86
2543.66
2574.54
2605.59
2636.72
2667.85
2698.68
2729.04
2758.6
2787.15
2814.37
2840.04
2863.87
2885.6
2904.95
2921.67
2935.52
2946.3
2953.84
2958.02
2958.76
2956.02
2949.83
2940.23
2927.33
2911.27
2892.23
2870.42
2846.09
2819.51
2790.96
2760.76
2729.23
2696.69
2663.47
2629.88
2596.22
2562.77
2529.8
2497.54
2466.32
2438.3
2409.69
2382.33
2356.4
2332
2309.19
2288
2268.4
2250.39
2233.92
2218.94
2205.39
2193.2
2182.31
2172.64
2164.14
2156.76
2150.47
2145.22
2141
2137.78
2135.57
2134.37
2134.19
2135.06
2137.01
2140.07
2144.28
2149.67
2156.3
2164.19
2173.37
2183.87
2195.69
2208.85
2223.36
2239.22
2256.43
2274.97
2294.83
2315.99
2338.39
2362
2386.77
2412.62
2439.49
2467.3
2495.93
2525.27
2555.16
2585.46
2616
2646.58
2676.89
2706.74
2735.89
2764.08
2791.07
2816.59
2840.42
2862.31
2882.04
2899.42
2914.26
2926.41
2935.73
2942.11
2945.47
2945.75
2942.94
2937.05
2928.11
2916.21
2901.46
2883.97
2863.92
2841.49
2816.89
2790.35
2762.12
2732.46
2701.66
2669.99
2637.72
2605.13
2572.49
2540.04
2508.04
2476.7
2446.26
2416.87
2388.72
2361.93
2336.63
2312.88
2290.74
2270.25
2251.42
2234.24
2218.69
2204.76
2192.41
2181.61
2172.33
2164.54
2158.2
2153.25
2149.64
2147.3
2146.17
2146.18
2147.27
2149.38
2152.48
2156.52
2161.47
2167.29
2173.98
2181.52
2189.89
2199.11
2209.18
2220.14
2232.04
2244.91
2258.82
2273.82
2289.94
2307.23
2325.71
2345.41
2366.33
2388.46
2411.79
2436.29
2461.91
2488.6
2516.29
2544.85
2574.17
2604.08
2634.39
2664.85
2695.23
2725.26
2754.66
2783.17
2810.45
2836.32
2860.42
2882.45
2901.94
2918.69
2932.07
2026.88
2023.64
2021.56
2020.61
2020.79
2022.07
2024.44
2027.89
2032.4
2037.98
2044.75
2052.57
2061.46
2071.41
2082.46
2094.62
2107.86
2122.22
2137.69
2154.31
2172.09
2191.04
2211.21
2232.6
2255.22
2279.07
2304.12
2330.3
2357.54
2385.75
2414.88
2444.78
2475.77
2506.98
2538.27
2569.59
2600.64
2631.22
2661.02
2689.8
2717.27
2743.19
2767.26
2789.23
2808.82
2825.75
2839.79
2850.72
2858.38
2862.63
2863.41
2860.66
2854.42
2844.73
2831.7
2815.48
2796.25
2774.22
2749.65
2722.8
2693.99
2663.52
2631.71
2598.9
2565.42
2531.58
2497.69
2464.04
2430.9
2398.51
2367.2
2338.81
2310.16
2282.75
2256.79
2232.39
2209.58
2188.4
2168.83
2150.86
2134.45
2119.53
2106.04
2093.92
2083.08
2073.47
2065.02
2057.69
2051.42
2046.21
2042
2038.8
2036.58
2035.37
2035.18
2036.03
2037.96
2040.99
2045.16
2050.53
2057.14
2065
2074.16
2084.64
2096.45
2109.6
2124.1
2139.96
2157.17
2175.72
2195.6
2216.77
2239.2
2262.84
2287.64
2313.55
2340.48
2368.35
2397.06
2426.5
2456.5
2486.94
2517.61
2548.37
2578.86
2608.89
2638.23
2666.63
2693.82
2719.56
2743.58
2765.67
2785.59
2803.15
2818.15
2830.44
2839.88
2846.35
2849.78
2850.09
2847.28
2841.35
2832.35
2820.35
2805.47
2787.83
2767.6
2744.96
2720.14
2693.36
2664.89
2635
2603.95
2572.05
2539.55
2506.75
2473.9
2441.27
2409.1
2377.62
2347.04
2317.54
2289.3
2262.45
2237.09
2213.31
2191.16
2170.67
2151.85
2134.69
2119.17
2105.27
2092.95
2082.18
2072.94
2065.2
2058.9
2054
2050.45
2048.16
2047.08
2047.14
2048.27
2050.43
2053.56
2057.62
2062.59
2068.44
2075.14
2082.68
2091.04
2100.24
2110.29
2121.22
2133.07
2145.9
2159.76
2174.71
2190.8
2208.05
2226.5
2246.17
2267.08
2289.21
2312.54
2337.06
2362.72
2389.46
2417.22
2445.87
2475.32
2505.37
2535.85
2566.5
2597.09
2627.35
2656.98
2685.72
2713.23
2739.31
2763.62
2785.83
2805.46
2822.27
2835.59
1927.67
1924.46
1922.41
1921.49
1921.69
1922.98
1925.36
1928.82
1933.34
1938.91
1945.69
1953.51
1962.4
1972.33
1983.37
1995.51
2008.73
2023.07
2038.52
2055.11
2072.85
2091.78
2111.92
2133.29
2155.9
2179.76
2204.83
2231.05
2258.35
2286.62
2315.84
2345.84
2376.94
2408.31
2439.79
2471.32
2502.6
2533.41
2563.46
2592.49
2620.23
2646.41
2670.75
2692.98
2712.81
2729.97
2744.21
2755.31
2763.09
2767.43
2768.25
2765.49
2759.19
2749.41
2736.25
2719.84
2700.41
2678.14
2653.31
2626.19
2597.09
2566.32
2534.22
2501.12
2467.36
2433.26
2399.13
2365.26
2331.93
2299.39
2267.96
2239.24
2210.53
2183.07
2157.08
2132.66
2109.85
2088.69
2069.16
2051.24
2034.88
2020.03
2006.61
1994.55
1983.78
1974.23
1965.83
1958.55
1952.32
1947.13
1942.95
1939.75
1937.54
1936.32
1936.11
1936.94
1938.84
1941.84
1945.99