/*--------------------------------*- C++ -*----------------------------------*\
| =========                 |                                                 |
| \\      /  F ield         | OpenFOAM: The Open Source CFD Toolbox           |
|  \\    /   O peration     | Version:  3.0.1                                 |
|   \\  /    A nd           | Web:      www.OpenFOAM.org                      |
|    \\/     M anipulation  |                                                 |
\*---------------------------------------------------------------------------*/
FoamFile
{
    version     2.0;
    format      ascii;
    class       surfaceScalarField;
    location    "10.2";
    object      alphaPhi;
}
// * * * * * * * * * * * * * * * * * * * * * * * * * * * * * * * * * * * * * //

dimensions      [0 3 -1 0 0 0 0];

internalField   nonuniform List<scalar> 
42423
(
-3.85164e-05
1.43483e-05
-5.20275e-05
1.3511e-05
-6.48083e-05
1.27808e-05
-7.67811e-05
1.19727e-05
-8.78275e-05
1.10463e-05
-9.80151e-05
1.01876e-05
-0.000107271
9.25588e-06
-0.000115645
8.37388e-06
-0.000123131
7.4858e-06
-0.000129731
6.60009e-06
-0.000135506
5.77535e-06
-0.000140451
4.94468e-06
-0.000144542
4.09134e-06
-0.000147831
3.28829e-06
-0.000150342
2.51171e-06
-0.000152052
1.70906e-06
-0.00015303
9.78502e-07
-0.000153108
7.7699e-08
-0.000152362
-7.45852e-07
-0.000150858
-1.50402e-06
-0.000148535
-2.3229e-06
-0.000145469
-3.06635e-06
-0.000141647
-3.8218e-06
-0.000137012
-4.63536e-06
-0.000131636
-5.37554e-06
-0.000125451
-6.18523e-06
-0.000118574
-6.87675e-06
-0.000111016
-7.5585e-06
-0.000102708
-8.30759e-06
-9.38255e-05
-8.88287e-06
-8.4417e-05
-9.4086e-06
-7.43912e-05
-1.0026e-05
-6.39891e-05
-1.04022e-05
-5.30982e-05
-1.0891e-05
-4.19252e-05
-1.11732e-05
-3.05429e-05
-1.13824e-05
-1.87688e-05
-1.17743e-05
-6.70884e-06
-1.20601e-05
5.44658e-06
-1.21556e-05
1.77211e-05
-1.22748e-05
2.98047e-05
-1.20838e-05
4.1576e-05
-1.17715e-05
5.27371e-05
-1.11612e-05
6.3034e-05
-1.02971e-05
7.23122e-05
-9.27838e-06
8.04266e-05
-8.11454e-06
8.72415e-05
-6.81507e-06
9.27159e-05
-5.47467e-06
9.67361e-05
-4.02039e-06
9.92741e-05
-2.53819e-06
0.00010051
-1.23597e-06
0.000100588
-7.84008e-08
9.99259e-05
6.61954e-07
9.84014e-05
1.52436e-06
9.59241e-05
2.47711e-06
9.25254e-05
3.39851e-06
8.83878e-05
4.1374e-06
8.36878e-05
4.69978e-06
7.85791e-05
5.10852e-06
7.31872e-05
5.39174e-06
6.76261e-05
5.56094e-06
6.20063e-05
5.61964e-06
5.63921e-05
5.61414e-06
5.08759e-05
5.51608e-06
4.5508e-05
5.36776e-06
4.0355e-05
5.15294e-06
3.54599e-05
4.89503e-06
3.08519e-05
4.60793e-06
2.65538e-05
4.29803e-06
2.25759e-05
3.97793e-06
1.89174e-05
3.6584e-06
1.55592e-05
3.35815e-06
1.25014e-05
3.05776e-06
9.71603e-06
2.78538e-06
7.16772e-06
2.54828e-06
4.86607e-06
2.30162e-06
2.74319e-06
2.12287e-06
8.45816e-07
1.89736e-06
-9.85008e-07
1.83081e-06
-2.69107e-06
1.70604e-06
-4.27536e-06
1.58429e-06
-5.75402e-06
1.47864e-06
-7.13817e-06
1.38414e-06
-8.44107e-06
1.30289e-06
-9.67651e-06
1.23543e-06
-1.08494e-05
1.17292e-06
-1.19622e-05
1.11272e-06
-1.30464e-05
1.08423e-06
-1.40464e-05
1.00004e-06
-1.50122e-05
9.65713e-07
-1.58895e-05
8.77299e-07
-1.66432e-05
7.53751e-07
-1.73206e-05
6.774e-07
-1.78422e-05
5.21567e-07
-1.8168e-05
3.25784e-07
-1.82933e-05
1.25309e-07
-1.81897e-05
-1.03645e-07
-1.78342e-05
-3.55459e-07
-1.71935e-05
-6.40766e-07
-1.6263e-05
-9.30535e-07
-1.50292e-05
-1.23376e-06
-1.34958e-05
-1.53339e-06
-1.1662e-05
-1.83386e-06
-9.53868e-06
-2.12333e-06
-7.13179e-06
-2.40691e-06
-4.46491e-06
-2.66689e-06
-1.56311e-06
-2.90182e-06
1.53143e-06
-3.09456e-06
4.79489e-06
-3.26347e-06
8.19579e-06
-3.40092e-06
1.16715e-05
-3.47575e-06
1.51869e-05
-3.5154e-06
1.86965e-05
-3.50963e-06
2.21448e-05
-3.44829e-06
2.5485e-05
-3.34019e-06
2.86797e-05
-3.19479e-06
3.16781e-05
-2.99839e-06
3.44534e-05
-2.77533e-06
3.69743e-05
-2.52094e-06
3.92129e-05
-2.23856e-06
4.11544e-05
-1.94148e-06
4.27946e-05
-1.64021e-06
4.41347e-05
-1.34016e-06
4.51773e-05
-1.04259e-06
4.59434e-05
-7.661e-07
4.64481e-05
-5.04778e-07
4.67209e-05
-2.72782e-07
4.67779e-05
-5.70534e-08
4.66511e-05
1.2683e-07
4.63502e-05
3.00918e-07
4.58766e-05
4.73584e-07
4.52498e-05
6.26805e-07
4.44639e-05
7.85817e-07
4.35178e-05
9.46088e-07
4.24031e-05
1.1147e-06
4.11174e-05
1.28568e-06
3.96506e-05
1.46686e-06
3.80056e-05
1.64497e-06
3.61779e-05
1.82771e-06
3.41744e-05
2.00351e-06
3.20166e-05
2.15773e-06
2.97222e-05
2.2944e-06
2.73149e-05
2.40731e-06
2.48099e-05
2.50498e-06
2.22423e-05
2.56756e-06
1.96368e-05
2.60556e-06
1.70252e-05
2.61155e-06
1.44162e-05
2.60899e-06
1.18431e-05
2.5731e-06
9.32351e-06
2.5196e-06
6.86669e-06
2.45681e-06
4.49289e-06
2.37379e-06
2.18599e-06
2.3069e-06
-2.27158e-08
2.2087e-06
-2.12931e-06
2.10659e-06
-4.17408e-06
2.04476e-06
-6.11335e-06
1.93926e-06
-7.95588e-06
1.84253e-06
-9.728e-06
1.77211e-06
-1.14068e-05
1.67876e-06
-1.29972e-05
1.59043e-06
-1.44883e-05
1.49113e-06
-1.58967e-05
1.40835e-06
-1.71989e-05
1.30219e-06
-1.8396e-05
1.1971e-06
-1.94709e-05
1.07492e-06
-2.04014e-05
9.30432e-07
-2.11819e-05
7.80494e-07
-2.17784e-05
5.96467e-07
-2.22031e-05
4.24735e-07
-2.23998e-05
1.96665e-07
-2.23576e-05
-4.22292e-08
-2.20559e-05
-3.01666e-07
-2.14973e-05
-5.5868e-07
-2.06254e-05
-8.71921e-07
-1.94391e-05
-1.18625e-06
-1.79282e-05
-1.51097e-06
-1.60837e-05
-1.84447e-06
-1.39016e-05
-2.1822e-06
-1.13828e-05
-2.51879e-06
-8.53705e-06
-2.84579e-06
-5.37679e-06
-3.16028e-06
-1.90688e-06
-3.46994e-06
1.79364e-06
-3.70056e-06
5.73595e-06
-3.94234e-06
9.86828e-06
-4.13236e-06
1.41479e-05
-4.27962e-06
1.85239e-05
-4.37611e-06
2.29379e-05
-4.41397e-06
2.73353e-05
-4.39743e-06
3.16533e-05
-4.31803e-06
3.58338e-05
-4.18058e-06
3.98124e-05
-3.97868e-06
4.35343e-05
-3.72186e-06
4.69388e-05
-3.40462e-06
4.99733e-05
-3.03445e-06
5.25918e-05
-2.61859e-06
5.47519e-05
-2.16017e-06
5.64209e-05
-1.66902e-06
5.7569e-05
-1.14809e-06
5.81742e-05
-6.05239e-07
5.82325e-05
-5.84122e-08
5.77387e-05
4.93854e-07
5.66985e-05
1.04015e-06
5.51207e-05
1.57777e-06
5.30299e-05
2.09075e-06
5.04535e-05
2.5763e-06
4.74257e-05
3.02786e-06
4.39864e-05
3.4392e-06
4.01826e-05
3.80383e-06
3.60615e-05
4.12109e-06
3.16763e-05
4.38516e-06
2.70822e-05
4.59402e-06
2.23347e-05
4.7475e-06
1.74894e-05
4.8453e-06
1.25966e-05
4.8928e-06
7.70986e-06
4.88668e-06
2.88079e-06
4.82905e-06
-1.8457e-06
4.72647e-06
-6.42762e-06
4.58191e-06
-1.0827e-05
4.3994e-06
-1.50102e-05
4.1831e-06
-1.89476e-05
3.93747e-06
-2.26124e-05
3.66471e-06
-2.59816e-05
3.36919e-06
-2.90397e-05
3.05816e-06
-3.17739e-05
2.73412e-06
-3.41732e-05
2.3993e-06
-3.6231e-05
2.05779e-06
-3.79454e-05
1.71439e-06
-3.93148e-05
1.36939e-06
-4.03426e-05
1.02779e-06
-4.10334e-05
6.90814e-07
-4.14013e-05
3.67888e-07
-4.14518e-05
5.04795e-08
-4.11957e-05
-2.56069e-07
-4.06431e-05
-5.52606e-07
-3.98112e-05
-8.3188e-07
-3.87127e-05
-1.09858e-06
-3.73619e-05
-1.35078e-06
-3.57777e-05
-1.5842e-06
-3.39719e-05
-1.80584e-06
-3.19664e-05
-2.00542e-06
-2.97727e-05
-2.19377e-06
-2.74141e-05
-2.35861e-06
-2.49045e-05
-2.50958e-06
-2.22664e-05
-2.63807e-06
-1.95148e-05
-2.75163e-06
-1.66716e-05
-2.84327e-06
-1.37535e-05
-2.91806e-06
-1.07786e-05
-2.97491e-06
-7.76746e-06
-3.01116e-06
-4.73669e-06
-3.03079e-06
-1.70557e-06
-3.03113e-06
1.30879e-06
-3.01437e-06
4.28775e-06
-2.97897e-06
7.21661e-06
-2.92887e-06
1.00786e-05
-2.86199e-06
1.28586e-05
-2.78004e-06
1.55407e-05
-2.68213e-06
1.81117e-05
-2.57094e-06
2.05592e-05
-2.44752e-06
2.28713e-05
-2.31209e-06
2.50378e-05
-2.16658e-06
2.70477e-05
-2.00988e-06
2.8894e-05
-1.84627e-06
3.05709e-05
-1.67688e-06
3.20742e-05
-1.50334e-06
3.33981e-05
-1.3239e-06
3.45364e-05
-1.13829e-06
3.54907e-05
-9.54324e-07
3.62632e-05
-7.72517e-07
3.68554e-05
-5.92192e-07
3.72703e-05
-4.14958e-07
3.75149e-05
-2.44593e-07
3.75974e-05
-8.24694e-08
3.74974e-05
9.99978e-08
3.72321e-05
2.65337e-07
3.68113e-05
4.2072e-07
3.6245e-05
5.66349e-07
3.55424e-05
7.02627e-07
3.47134e-05
8.28997e-07
3.37685e-05
9.44826e-07
3.2719e-05
1.04951e-06
3.15765e-05
1.14255e-06
3.03529e-05
1.22352e-06
2.90608e-05
1.29217e-06
2.77125e-05
1.34831e-06
2.63205e-05
1.39194e-06
2.48974e-05
1.42314e-06
2.34552e-05
1.44215e-06
2.20059e-05
1.44933e-06
2.05607e-05
1.44518e-06
1.91304e-05
1.43031e-06
1.7725e-05
1.40544e-06
1.63536e-05
1.37142e-06
1.50244e-05
1.32918e-06
1.37446e-05
1.27976e-06
1.25204e-05
1.22423e-06
1.13567e-05
1.16372e-06
1.02573e-05
1.09933e-06
9.22514e-06
1.03219e-06
8.26181e-06
9.63331e-07
7.36804e-06
8.93767e-07
6.54363e-06
8.24414e-07
5.78752e-06
7.56104e-07
5.09795e-06
6.89565e-07
4.47253e-06
6.25422e-07
3.90834e-06
5.64187e-07
3.40208e-06
5.06262e-07
2.95013e-06
4.51943e-07
2.54871e-06
4.01423e-07
2.19391e-06
3.54804e-07
1.8818e-06
3.12106e-07
1.60852e-06
2.73277e-07
1.37031e-06
2.38206e-07
1.16358e-06
2.06734e-07
9.8491e-07
1.78667e-07
8.31124e-07
1.53784e-07
6.99274e-07
1.31849e-07
5.86658e-07
1.12616e-07
4.90818e-07
9.5839e-08
4.09541e-07
8.12762e-08
3.40845e-07
6.86945e-08
2.82971e-07
5.78732e-08
2.34365e-07
4.86055e-08
1.93664e-07
4.07008e-08
1.59678e-07
3.39848e-08
1.31378e-07
2.82998e-08
1.07873e-07
2.35045e-08
8.83992e-08
1.94733e-08
7.23036e-08
1.60952e-08
5.90301e-08
1.3273e-08
4.81077e-08
1.09221e-08
3.91383e-08
8.96904e-09
3.17872e-08
7.35079e-09
2.57736e-08
6.01324e-09
2.0863e-08
4.91031e-09
1.68599e-08
4.00288e-09
1.36017e-08
3.2579e-09
1.0954e-08
2.64755e-09
8.80529e-09
2.1485e-09
7.06388e-09
1.74124e-09
5.65416e-09
1.40955e-09
4.5141e-09
1.13992e-09
3.59277e-09
9.21194e-10
2.84851e-09
7.44139e-10
2.24724e-09
6.01163e-10
1.76111e-09
4.86024e-10
1.36741e-09
3.93612e-10
1.04758e-09
3.19746e-10
7.86481e-10
2.61019e-10
5.71749e-10
2.14657e-10
3.93273e-10
1.78404e-10
2.42782e-10
1.50421e-10
1.13523e-10
1.29185e-10
1.13421e-10
-3.85481e-05
2.86983e-05
-5.20607e-05
2.70236e-05
-6.48437e-05
2.55638e-05
-7.68181e-05
2.3947e-05
-8.78668e-05
2.2095e-05
-9.80575e-05
2.03782e-05
-0.000107317
1.85154e-05
-0.0001157
1.67563e-05
-0.000123208
1.49943e-05
-0.000129825
1.32168e-05
-0.000135582
1.15322e-05
-0.000140509
9.87184e-06
-0.000144601
8.18306e-06
-0.000147886
6.57319e-06
-0.000150398
5.02387e-06
-0.00015211
3.42122e-06
-0.000153086
1.9537e-06
-0.000153161
1.53094e-07
-0.000152417
-1.49015e-06
-0.000150913
-3.00798e-06
-0.00014859
-4.64533e-06
-0.000145525
-6.13212e-06
-0.000141703
-7.64333e-06
-0.000137068
-9.27078e-06
-0.000131692
-1.07515e-05
-0.000125506
-1.23712e-05
-0.000118629
-1.37546e-05
-0.000111069
-1.51185e-05
-0.000102759
-1.66173e-05
-9.3874e-05
-1.77682e-05
-8.44627e-05
-1.88201e-05
-7.44335e-05
-2.00554e-05
-6.40277e-05
-2.08083e-05
-5.31324e-05
-2.17865e-05
-4.19552e-05
-2.23507e-05
-3.0569e-05
-2.27689e-05
-1.87912e-05
-2.35524e-05
-6.72371e-06
-2.41279e-05
5.43758e-06
-2.43172e-05
1.77124e-05
-2.455e-05
2.98006e-05
-2.41723e-05
4.1582e-05
-2.35533e-05
5.27615e-05
-2.23411e-05
6.30818e-05
-2.06179e-05
7.24129e-05
-1.86098e-05
8.05674e-05
-1.62694e-05
8.73963e-05
-1.36444e-05
9.2844e-05
-1.09227e-05
9.68332e-05
-8.01e-06
9.93628e-05
-5.06821e-06
0.000100592
-2.46556e-06
0.000100666
-1.52267e-07
9.99974e-05
1.32964e-06
9.84662e-05
3.05521e-06
9.59819e-05
4.9611e-06
9.25757e-05
6.80434e-06
8.84305e-05
8.28225e-06
8.37233e-05
9.40662e-06
7.86076e-05
1.02239e-05
7.32088e-05
1.07902e-05
6.76419e-05
1.11276e-05
6.20154e-05
1.1246e-05
5.63961e-05
1.12332e-05
5.08751e-05
1.10369e-05
4.55057e-05
1.0737e-05
4.03489e-05
1.03097e-05
3.5452e-05
9.79178e-06
3.08429e-05
9.21685e-06
2.65443e-05
8.59655e-06
2.25661e-05
7.95606e-06
1.89072e-05
7.3173e-06
1.55511e-05
6.71414e-06
1.24905e-05
6.11826e-06
9.70526e-06
5.57062e-06
7.15497e-06
5.09853e-06
4.85422e-06
4.60234e-06
2.73679e-06
4.24027e-06
8.34055e-07
3.80007e-06
-1.00076e-06
3.6656e-06
-2.70762e-06
3.41289e-06
-4.29329e-06
3.16994e-06
-5.77283e-06
2.95817e-06
-7.1568e-06
2.76809e-06
-8.46026e-06
2.60635e-06
-9.69668e-06
2.47183e-06
-1.08697e-05
2.34598e-06
-1.19855e-05
2.22843e-06
-1.30685e-05
2.16728e-06
-1.40703e-05
2.00182e-06
-1.50382e-05
1.93357e-06
-1.59134e-05
1.75251e-06
-1.6678e-05
1.51834e-06
-1.73493e-05
1.3487e-06
-1.78709e-05
1.04315e-06
-1.82008e-05
6.55626e-07
-1.83289e-05
2.53424e-07
-1.82278e-05
-2.04775e-07
-1.78695e-05
-7.1378e-07
-1.72304e-05
-1.27995e-06
-1.62991e-05
-1.86183e-06
-1.50652e-05
-2.46765e-06
-1.35314e-05
-3.06726e-06
-1.16974e-05
-3.66786e-06
-9.57188e-06
-4.24887e-06
-7.16185e-06
-4.81696e-06
-4.493e-06
-5.33577e-06
-1.58667e-06
-5.80817e-06
1.50893e-06
-6.19019e-06
4.77522e-06
-6.52979e-06
8.18029e-06
-6.80601e-06
1.16589e-05
-6.95444e-06
1.51788e-05
-7.0353e-06
1.86917e-05
-7.02257e-06
2.21445e-05
-6.90108e-06
2.5489e-05
-6.68477e-06
2.86859e-05
-6.39171e-06
3.16873e-05
-5.99978e-06
3.44668e-05
-5.55487e-06
3.69897e-05
-5.04382e-06
3.92313e-05
-4.48019e-06
4.11765e-05
-3.88676e-06
4.2817e-05
-3.28074e-06
4.41579e-05
-2.68102e-06
4.52011e-05
-2.0859e-06
4.59672e-05
-1.5322e-06
4.64741e-05
-1.01168e-06
4.67465e-05
-5.45195e-07
4.68032e-05
-1.13748e-07
4.66767e-05
2.53249e-07
4.63768e-05
6.00864e-07
4.59033e-05
9.47074e-07
4.52775e-05
1.25256e-06
4.44917e-05
1.57161e-06
4.35468e-05
1.89092e-06
4.24335e-05
2.22802e-06
4.11479e-05
2.57124e-06
3.968e-05
2.93476e-06
3.8038e-05
3.28693e-06
3.62103e-05
3.65547e-06
3.42033e-05
4.01044e-06
3.20445e-05
4.31651e-06
2.97481e-05
4.59081e-06
2.734e-05
4.81544e-06
2.48325e-05
5.01246e-06
2.22626e-05
5.13742e-06
1.96546e-05
5.21358e-06
1.70415e-05
5.22462e-06
1.44301e-05
5.22039e-06
1.18551e-05
5.14807e-06
9.3334e-06
5.0413e-06
6.87419e-06
4.91602e-06
4.49973e-06
4.74824e-06
2.19075e-06
4.61586e-06
-1.98293e-08
4.41927e-06
-2.1271e-06
4.21385e-06
-4.17411e-06
4.09176e-06
-6.11422e-06
3.87936e-06
-7.95711e-06
3.6854e-06
-9.73203e-06
3.54702e-06
-1.1413e-05
3.35968e-06
-1.30045e-05
3.18193e-06
-1.44981e-05
2.98472e-06
-1.59066e-05
2.8168e-06
-1.72028e-05
2.59844e-06
-1.8409e-05
2.4033e-06
-1.94859e-05
2.15179e-06
-2.04185e-05
1.86297e-06
-2.11997e-05
1.56172e-06
-2.17978e-05
1.19449e-06
-2.22246e-05
8.51527e-07
-2.24229e-05
3.94898e-07
-2.23833e-05
-8.18601e-08
-2.20806e-05
-6.04349e-07
-2.15228e-05
-1.11656e-06
-2.0652e-05
-1.74269e-06
-1.94665e-05
-2.37187e-06
-1.79565e-05
-3.02099e-06
-1.61117e-05
-3.68925e-06
-1.39283e-05
-4.36566e-06
-1.14084e-05
-5.03882e-06
-8.56145e-06
-5.69275e-06
-5.39902e-06
-6.32277e-06
-1.92712e-06
-6.94191e-06
1.7761e-06
-7.40384e-06
5.72017e-06
-7.88648e-06
9.85685e-06
-8.26911e-06
1.41406e-05
-8.56343e-06
1.85192e-05
-8.75476e-06
2.29369e-05
-8.83179e-06
2.7339e-05
-8.79955e-06
3.16611e-05
-8.64027e-06
3.58453e-05
-8.36486e-06
3.98281e-05
-7.96147e-06
4.35528e-05
-7.44672e-06
4.6962e-05
-6.81382e-06
5.00013e-05
-6.07385e-06
5.26247e-05
-5.24203e-06
5.47866e-05
-4.32215e-06
5.64553e-05
-3.33782e-06
5.76055e-05
-2.29839e-06
5.82122e-05
-1.21196e-06
5.82706e-05
-1.16901e-07
5.77765e-05
9.87864e-07
5.67361e-05
2.08054e-06
5.51582e-05
3.15559e-06
5.30659e-05
4.18299e-06
5.04879e-05
5.15425e-06
4.74585e-05
6.05723e-06
4.40167e-05
6.88089e-06
4.02097e-05
7.61075e-06
3.60857e-05
8.24512e-06
3.16982e-05
8.77258e-06
2.7101e-05
9.19114e-06
2.23498e-05
9.49869e-06
1.75011e-05
9.69396e-06
1.26053e-05
9.78855e-06
7.71494e-06
9.77705e-06
2.88346e-06
9.66049e-06
-1.84663e-06
9.45654e-06
-6.43181e-06
9.16706e-06
-1.08329e-05
8.80047e-06
-1.5019e-05
8.36921e-06
-1.89585e-05
7.87694e-06
-2.26249e-05
7.33104e-06
-2.59959e-05
6.74025e-06
-2.90564e-05
6.11858e-06
-3.17921e-05
5.4698e-06
-3.41916e-05
4.79885e-06
-3.62503e-05
4.1164e-06
-3.79655e-05
3.42962e-06
-3.93352e-05
2.73903e-06
-4.03642e-05
2.05679e-06
-4.10559e-05
1.38256e-06
-4.14226e-05
7.3449e-07
-4.14727e-05
1.00643e-07
-4.1217e-05
-5.11798e-07
-4.06634e-05
-1.10624e-06
-3.98308e-05
-1.66453e-06
-3.8732e-05
-2.19733e-06
-3.73804e-05
-2.70245e-06
-3.57954e-05
-3.16915e-06
-3.39889e-05
-3.61242e-06
-3.19829e-05
-4.01138e-06
-2.97878e-05
-4.3889e-06
-2.7428e-05
-4.71844e-06
-2.49175e-05
-5.0201e-06
-2.22781e-05
-5.2775e-06
-1.9525e-05
-5.50476e-06
-1.66804e-05
-5.68784e-06
-1.37612e-05
-5.8373e-06
-1.0785e-05
-5.95118e-06
-7.77239e-06
-6.02375e-06
-4.74003e-06
-6.06317e-06
-1.7078e-06
-6.06339e-06
1.30785e-06
-6.03003e-06
4.28836e-06
-5.95949e-06
7.21854e-06
-5.85908e-06
1.00818e-05
-5.72523e-06
1.28629e-05
-5.56121e-06
1.55466e-05
-5.36579e-06
1.81188e-05
-5.14321e-06
2.05676e-05
-4.89634e-06
2.28811e-05
-4.62554e-06
2.50488e-05
-4.3343e-06
2.70601e-05
-4.02124e-06
2.89077e-05
-3.69392e-06
3.05858e-05
-3.35493e-06
3.20912e-05
-3.00881e-06
3.34159e-05
-2.64858e-06
3.45541e-05
-2.2765e-06
3.55091e-05
-1.90936e-06
3.62822e-05
-1.54556e-06
3.68748e-05
-1.18486e-06
3.72901e-05
-8.30203e-07
3.75349e-05
-4.89475e-07
3.76174e-05
-1.64975e-07
3.75171e-05
2.00289e-07
3.72514e-05
5.311e-07
3.68304e-05
8.41711e-07
3.62637e-05
1.13302e-06
3.55606e-05
1.40566e-06
3.47311e-05
1.65849e-06
3.37857e-05
1.89023e-06
3.27356e-05
2.09967e-06
3.15923e-05
2.28581e-06
3.0368e-05
2.44782e-06
2.9075e-05
2.58517e-06
2.77258e-05
2.6975e-06
2.6333e-05
2.78478e-06
2.49089e-05
2.84719e-06
2.34658e-05
2.88522e-06
2.20156e-05
2.89959e-06
2.05695e-05
2.89129e-06
1.91382e-05
2.86152e-06
1.77319e-05
2.81176e-06
1.63597e-05
2.74368e-06
1.50297e-05
2.65917e-06
1.37491e-05
2.56028e-06
1.25242e-05
2.44917e-06
1.13598e-05
2.32808e-06
1.02599e-05
2.19926e-06
9.2272e-06
2.0649e-06
8.2634e-06
1.92713e-06
7.36922e-06
1.78794e-06
6.54445e-06
1.64918e-06
5.78805e-06
1.5125e-06
5.09824e-06
1.37937e-06
4.47262e-06
1.25104e-06
3.90827e-06
1.12853e-06
3.40189e-06
1.01264e-06
2.94985e-06
9.03974e-07
2.54837e-06
8.02906e-07
2.19352e-06
7.09646e-07
1.88139e-06
6.24231e-07
1.60811e-06
5.46558e-07
1.36991e-06
4.76404e-07
1.16319e-06
4.13452e-07
9.84544e-07
3.57312e-07
8.30784e-07
3.07543e-07
6.98961e-07
2.6367e-07
5.86373e-07
2.25203e-07
4.90562e-07
1.91649e-07
4.09313e-07
1.62524e-07
3.40644e-07
1.37362e-07
2.82795e-07
1.15721e-07
2.34211e-07
9.71878e-08
1.9353e-07
8.13805e-08
1.59563e-07
6.79505e-08
1.3128e-07
5.65826e-08
1.07789e-07
4.6994e-08
8.83281e-08
3.89334e-08
7.22436e-08
3.21789e-08
5.89797e-08
2.65361e-08
4.80654e-08
2.18356e-08
3.9103e-08
1.79308e-08
3.17578e-08
1.46954e-08
2.57493e-08
1.20212e-08
2.08429e-08
9.81618e-09
1.68433e-08
8.00202e-09
1.35882e-08
6.51266e-09
1.09429e-08
5.29248e-09
8.7962e-09
4.2948e-09
7.05647e-09
3.48066e-09
5.64816e-09
2.81758e-09
4.50924e-09
2.27858e-09
3.58886e-09
1.84134e-09
2.84537e-09
1.48741e-09
2.24473e-09
1.2016e-09
1.75913e-09
9.71448e-10
1.36586e-09
7.8672e-10
1.04638e-09
6.39069e-10
7.85572e-10
5.21679e-10
5.71084e-10
4.29005e-10
3.92812e-10
3.56534e-10
2.42495e-10
3.00591e-10
1.13386e-10
2.58151e-10
2.26709e-10
-3.8614e-05
4.30545e-05
-5.21323e-05
4.05418e-05
-6.49229e-05
3.83542e-05
-7.69073e-05
3.59314e-05
-8.79688e-05
3.31563e-05
-9.81657e-05
3.0575e-05
-0.000107425
2.77749e-05
-0.000115817
2.51481e-05
-0.000123328
2.25056e-05
-0.000129937
1.98252e-05
-0.000135697
1.72928e-05
-0.000140617
1.47915e-05
-0.000144702
1.22681e-05
-0.000148
9.87071e-06
-0.000150501
7.52515e-06
-0.000152205
5.12441e-06
-0.00015319
2.9393e-06
-0.000153248
2.11253e-07
-0.00015248
-2.2586e-06
-0.000150975
-4.51338e-06
-0.000148652
-6.96821e-06
-0.000145586
-9.19781e-06
-0.000141765
-1.14648e-05
-0.000137129
-1.39065e-05
-0.000131753
-1.61279e-05
-0.000125566
-1.85582e-05
-0.000118686
-2.0634e-05
-0.000111124
-2.26806e-05
-0.000102812
-2.49301e-05
-9.39227e-05
-2.66574e-05
-8.45066e-05
-2.82364e-05
-7.44712e-05
-3.0091e-05
-6.40581e-05
-3.12215e-05
-5.31544e-05
-3.26905e-05
-4.19688e-05
-3.35366e-05
-3.05749e-05
-3.4163e-05
-1.87904e-05
-3.53372e-05
-6.71679e-06
-3.62019e-05
5.45056e-06
-3.64849e-05
1.77346e-05
-3.68344e-05
2.98396e-05
-3.62777e-05
4.16427e-05
-3.53567e-05
5.28485e-05
-3.35473e-05
6.31948e-05
-3.09644e-05
7.25526e-05
-2.7968e-05
8.07252e-05
-2.44423e-05
8.75502e-05
-2.04698e-05
9.30017e-05
-1.63746e-05
9.70089e-05
-1.20176e-05
9.95539e-05
-7.61358e-06
0.000100762
-3.6744e-06
0.000100788
-1.78688e-07
0.000100087
2.03072e-06
9.854e-05
4.60191e-06
9.60404e-05
7.46038e-06
9.26192e-05
1.02251e-05
8.84603e-05
1.24408e-05
8.37409e-05
1.41257e-05
7.86147e-05
1.53498e-05
7.32068e-05
1.61978e-05
6.76337e-05
1.67004e-05
6.19994e-05
1.688e-05
5.63763e-05
1.68561e-05
5.08516e-05
1.65614e-05
4.54839e-05
1.61046e-05
4.03235e-05
1.547e-05
3.54248e-05
1.46903e-05
3.08158e-05
1.38258e-05
2.65174e-05
1.28948e-05
2.254e-05
1.19334e-05
1.88815e-05
1.09757e-05
1.5531e-05
1.00646e-05
1.24661e-05
9.18313e-06
9.68198e-06
8.35466e-06
7.13026e-06
7.65021e-06
4.8323e-06
6.90026e-06
2.72598e-06
6.34656e-06
8.17989e-07
5.70803e-06
-1.02188e-06
5.50544e-06
-2.72689e-06
5.11788e-06
-4.31037e-06
4.75341e-06
-5.78841e-06
4.4362e-06
-7.1701e-06
4.14976e-06
-8.47063e-06
3.90686e-06
-9.70509e-06
3.70628e-06
-1.08766e-05
3.51747e-06
-1.1994e-05
3.34587e-06
-1.30741e-05
3.24734e-06
-1.40765e-05
3.00421e-06
-1.50462e-05
2.9032e-06
-1.59206e-05
2.62698e-06
-1.66926e-05
2.29028e-06
-1.73621e-05
2.01816e-06
-1.78836e-05
1.56468e-06
-1.82175e-05
9.89466e-07
-1.83478e-05
3.83709e-07
-1.82501e-05
-3.02483e-07
-1.7893e-05
-1.07092e-06
-1.72543e-05
-1.91867e-06
-1.63237e-05
-2.79248e-06
-1.50906e-05
-3.70068e-06
-1.35554e-05
-4.60252e-06
-1.17205e-05
-5.50274e-06
-9.59419e-06
-6.37525e-06
-7.18338e-06
-7.22779e-06
-4.51321e-06
-8.00597e-06
-1.60301e-06
-8.71841e-06
1.49547e-06
-9.2887e-06
4.76457e-06
-9.79892e-06
8.17302e-06
-1.02145e-05
1.16551e-05
-1.04365e-05
1.51789e-05
-1.05592e-05
1.86961e-05
-1.05398e-05
2.21519e-05
-1.03569e-05
2.55007e-05
-1.00335e-05
2.8701e-05
-9.59203e-06
3.17048e-05
-9.00365e-06
3.44867e-05
-8.33678e-06
3.70114e-05
-7.56855e-06
3.92539e-05
-6.72272e-06
4.11999e-05
-5.83278e-06
4.28414e-05
-4.92223e-06
4.41812e-05
-4.02084e-06
4.52233e-05
-3.12808e-06
4.59894e-05
-2.29833e-06
4.64925e-05
-1.51482e-06
4.67635e-05
-8.16168e-07
4.68184e-05
-1.68686e-07
4.669e-05
3.81638e-07
4.63896e-05
9.01214e-07
4.59151e-05
1.42157e-06
4.52887e-05
1.87899e-06
4.45041e-05
2.35613e-06
4.35612e-05
2.83381e-06
4.24472e-05
3.34199e-06
4.11617e-05
3.85677e-06
3.96947e-05
4.40177e-06
3.80496e-05
4.93205e-06
3.62198e-05
5.48518e-06
3.42156e-05
6.01466e-06
3.2055e-05
6.4771e-06
2.97572e-05
6.88859e-06
2.73452e-05
7.22746e-06
2.48379e-05
7.51969e-06
2.22653e-05
7.71006e-06
1.9658e-05
7.82088e-06
1.70395e-05
7.84304e-06
1.44282e-05
7.83177e-06
1.18532e-05
7.72302e-06
9.32736e-06
7.56712e-06
6.86835e-06
7.37502e-06
4.49419e-06
7.12239e-06
2.18363e-06
6.92642e-06
-2.81636e-08
6.63105e-06
-2.14188e-06
6.32756e-06
-4.18261e-06
6.13247e-06
-6.12251e-06
5.81925e-06
-7.96328e-06
5.52616e-06
-9.73909e-06
5.32281e-06
-1.14193e-05
5.03992e-06
-1.30107e-05
4.77329e-06
-1.45076e-05
4.48155e-06
-1.59149e-05
4.22414e-06
-1.72116e-05
3.89513e-06
-1.84192e-05
3.61083e-06
-1.94965e-05
3.22908e-06
-2.04307e-05
2.79713e-06
-2.12148e-05
2.34579e-06
-2.1813e-05
1.79267e-06
-2.22429e-05
1.28141e-06
-2.2443e-05
5.95041e-07
-2.24047e-05
-1.20231e-07
-2.2101e-05
-9.08054e-07
-2.1547e-05
-1.67059e-06
-2.06772e-05
-2.61259e-06
-1.94925e-05
-3.55664e-06
-1.79823e-05
-4.53119e-06
-1.61377e-05
-5.53385e-06
-1.39551e-05
-6.54838e-06
-1.14344e-05
-7.55952e-06
-8.58652e-06
-8.54072e-06
-5.42153e-06
-9.48782e-06
-1.9458e-06
-1.04177e-05
1.75691e-06
-1.11066e-05
5.70515e-06
-1.18348e-05
9.846e-06
-1.241e-05
1.41331e-05
-1.28506e-05
1.85164e-05
-1.31381e-05
2.29391e-05
-1.32546e-05
2.73446e-05
-1.32052e-05
3.16721e-05
-1.29678e-05
3.58624e-05
-1.25553e-05
3.98494e-05
-1.19485e-05
4.35779e-05
-1.11753e-05
4.69907e-05
-1.02267e-05
5.00341e-05
-9.11732e-06
5.26608e-05
-7.86875e-06
5.48258e-05
-6.48723e-06
5.64966e-05
-5.00867e-06
5.76476e-05
-3.44946e-06
5.82555e-05
-1.81995e-06
5.83147e-05
-1.76163e-07
5.78198e-05
1.48273e-06
5.67767e-05
3.1236e-06
5.5198e-05
4.73423e-06
5.31042e-05
6.27667e-06
5.05228e-05
7.73557e-06
4.74897e-05
9.09032e-06
4.40445e-05
1.0326e-05
4.02343e-05
1.14209e-05
3.61061e-05
1.23733e-05
3.17137e-05
1.31649e-05
2.71127e-05
1.37921e-05
2.23576e-05
1.42537e-05
1.75042e-05
1.45473e-05
1.26043e-05
1.46885e-05
7.70973e-06
1.46716e-05
2.87461e-06
1.44956e-05
-1.85804e-06
1.41892e-05
-6.44654e-06
1.37555e-05
-1.08505e-05
1.32044e-05
-1.5039e-05
1.25578e-05
-1.89801e-05
1.1818e-05
-2.26485e-05
1.09994e-05
-2.6022e-05
1.01137e-05
-2.90835e-05
9.18005e-06
-3.18187e-05
8.20496e-06
-3.42188e-05
7.19895e-06
-3.62776e-05
6.17522e-06
-3.79927e-05
5.14472e-06
-3.93621e-05
4.10841e-06
-4.03903e-05
3.08494e-06
-4.10823e-05
2.07453e-06
-4.14485e-05
1.10072e-06
-4.14976e-05
1.49744e-07
-4.12403e-05
-7.691e-07
-4.06853e-05
-1.66127e-06
-3.9851e-05
-2.49884e-06
-3.87516e-05
-3.29673e-06
-3.73986e-05
-4.0555e-06
-3.58125e-05
-4.75525e-06
-3.40052e-05
-5.41976e-06
-3.19975e-05
-6.01908e-06
-2.98013e-05
-6.58515e-06
-2.74395e-05
-7.08026e-06
-2.49278e-05
-7.53177e-06
-2.22867e-05
-7.91863e-06
-1.9532e-05
-8.25948e-06
-1.66862e-05
-8.5337e-06
-1.37653e-05
-8.75821e-06
-1.07877e-05
-8.92879e-06
-7.77375e-06
-9.03769e-06
-4.7396e-06
-9.09734e-06
-1.70619e-06
-9.09681e-06
1.31057e-06
-9.04681e-06
4.29275e-06
-8.9417e-06
7.22407e-06
-8.79041e-06
1.00885e-05
-8.58964e-06
1.28705e-05
-8.34329e-06
1.55556e-05
-8.0509e-06
1.81292e-05
-7.71679e-06
2.05788e-05
-7.34594e-06
2.28933e-05
-6.94003e-06
2.50616e-05
-6.50262e-06
2.70738e-05
-6.03347e-06
2.89224e-05
-5.54258e-06
3.06009e-05
-5.0334e-06
3.21071e-05
-4.51508e-06
3.34331e-05
-3.97454e-06
3.4572e-05
-3.41541e-06
3.55274e-05
-2.86473e-06
3.63007e-05
-2.3189e-06
3.68934e-05
-1.77761e-06
3.73082e-05
-1.24496e-06
3.75524e-05
-7.33712e-07
3.76339e-05
-2.46487e-07
3.75326e-05
3.01597e-07
3.72659e-05
7.97808e-07
3.68444e-05
1.26321e-06
3.62772e-05
1.7002e-06
3.55736e-05
2.10926e-06
3.47435e-05
2.48861e-06
3.37974e-05
2.83632e-06
3.27465e-05
3.15057e-06
3.16024e-05
3.42987e-06
3.03773e-05
3.67297e-06
2.90834e-05
3.87904e-06
2.77333e-05
4.04758e-06
2.63395e-05
4.17853e-06
2.49146e-05
4.27217e-06
2.34705e-05
4.32923e-06
2.20194e-05
4.35077e-06
2.05724e-05
4.33828e-06
1.91403e-05
4.2936e-06
1.77331e-05
4.2189e-06
1.63601e-05
4.11671e-06
1.50294e-05
3.98986e-06
1.37483e-05
3.84142e-06
1.25228e-05
3.67466e-06
1.13579e-05
3.49292e-06
1.02576e-05
3.29958e-06
9.22457e-06
3.09793e-06
8.26053e-06
2.89117e-06
7.36618e-06
2.68229e-06
6.5413e-06
2.47405e-06
5.78486e-06
2.26895e-06
5.09505e-06
2.06918e-06
4.46949e-06
1.87661e-06
3.90524e-06
1.69278e-06
3.39898e-06
1.5189e-06
2.9471e-06
1.35585e-06
2.54579e-06
1.20422e-06
2.19113e-06
1.0643e-06
1.87919e-06
9.36166e-07
1.6061e-06
8.19647e-07
1.36809e-06
7.14413e-07
1.16155e-06
6.19987e-07
9.83079e-07
5.35782e-07
8.29484e-07
4.61136e-07
6.97815e-07
3.95337e-07
5.85368e-07
3.37648e-07
4.89686e-07
2.87329e-07
4.08553e-07
2.43655e-07
3.39988e-07
2.05925e-07
2.82231e-07
1.73477e-07
2.3373e-07
1.45688e-07
1.9312e-07
1.21989e-07
1.59216e-07
1.01854e-07
1.30986e-07
8.48114e-08
1.07542e-07
7.0437e-08
8.81211e-08
5.83537e-08
7.20706e-08
4.82287e-08
5.88356e-08
3.97704e-08
4.79458e-08
3.27248e-08
3.9004e-08
2.6872e-08
3.16761e-08
2.20227e-08
2.5682e-08
1.80148e-08
2.07877e-08
1.471e-08
1.67981e-08
1.19912e-08
1.35513e-08
9.75916e-09
1.09128e-08
7.93058e-09
8.77179e-09
6.43549e-09
7.0367e-09
5.21546e-09
5.63219e-09
4.22182e-09
4.49638e-09
3.41415e-09
3.57855e-09
2.75896e-09
2.83714e-09
2.22862e-09
2.2382e-09
1.80036e-09
1.75398e-09
1.4555e-09
1.36184e-09
1.17871e-09
1.04329e-09
9.57473e-10
7.83243e-10
7.81584e-10
5.69386e-10
6.42729e-10
3.91642e-10
5.34145e-10
2.41772e-10
4.50323e-10
1.13046e-10
3.86741e-10
3.39662e-10
-3.87129e-05
5.74201e-05
-5.22411e-05
5.407e-05
-6.50442e-05
5.11573e-05
-7.70415e-05
4.79286e-05
-8.81143e-05
4.4229e-05
-9.83239e-05
4.07846e-05
-0.000107597
3.70482e-05
-0.000115992
3.35431e-05
-0.0001235
3.00132e-05
-0.000130112
2.6437e-05
-0.000135879
2.30598e-05
-0.000140806
1.97184e-05
-0.000144889
1.63515e-05
-0.000148184
1.31657e-05
-0.000150686
1.00264e-05
-0.000152375
6.81428e-06
-0.000153322
3.88588e-06
-0.000153352
2.407e-07
-0.000152574
-3.03604e-06
-0.000151067
-6.02029e-06
-0.000148744
-9.29167e-06
-0.000145678
-1.22633e-05
-0.000141857
-1.52863e-05
-0.000137221
-1.85426e-05
-0.000131844
-2.15051e-05
-0.000125655
-2.47469e-05
-0.000118774
-2.75157e-05
-0.000111208
-3.02461e-05
-0.000102891
-3.32475e-05
-9.39961e-05
-3.55523e-05
-8.45727e-05
-3.766e-05
-7.4528e-05
-4.01359e-05
-6.41042e-05
-4.16456e-05
-5.31877e-05
-4.36072e-05
-4.19895e-05
-4.4735e-05
-3.05841e-05
-4.55687e-05
-1.87896e-05
-4.7132e-05
-6.70694e-06
-4.82848e-05
5.46958e-06
-4.86617e-05
1.77687e-05
-4.91339e-05
2.98985e-05
-4.84078e-05
4.17411e-05
-4.71996e-05
5.30028e-05
-4.48093e-05
6.33967e-05
-4.13587e-05
7.27782e-05
-3.73498e-05
8.09643e-05
-3.26288e-05
8.78081e-05
-2.73138e-05
9.32873e-05
-2.18542e-05
9.73301e-05
-1.60607e-05
9.98847e-05
-1.01686e-05
0.000101025
-4.81454e-06
0.000100966
-1.20198e-07
0.00010022
2.77592e-06
9.865e-05
6.1717e-06
9.61276e-05
9.98251e-06
9.26842e-05
1.36682e-05
8.85046e-05
1.662e-05
8.37664e-05
1.88636e-05
7.86248e-05
2.04912e-05
7.32033e-05
2.16191e-05
6.76224e-05
2.2281e-05
6.19752e-05
2.25271e-05
5.63462e-05
2.24849e-05
5.08162e-05
2.20911e-05
4.54477e-05
2.14729e-05
4.02862e-05
2.06314e-05
3.53839e-05
1.95925e-05
3.0775e-05
1.84347e-05
2.64771e-05
1.71925e-05
2.25007e-05
1.59097e-05
1.88429e-05
1.46336e-05
1.5501e-05
1.34064e-05
1.24296e-05
1.22546e-05
9.64707e-06
1.11371e-05
7.09484e-06
1.02024e-05
4.79931e-06
9.19576e-06
2.71571e-06
8.43013e-06
7.94628e-07
7.6291e-06
-1.05284e-06
7.35288e-06
-2.75622e-06
6.82124e-06
-4.33631e-06
6.33348e-06
-5.81049e-06
5.91037e-06
-7.18903e-06
5.52829e-06
-8.48712e-06
5.20493e-06
-9.71856e-06
4.93772e-06
-1.0886e-05
4.68487e-06
-1.2005e-05
4.46486e-06
-1.30812e-05
4.32357e-06
-1.40844e-05
4.00735e-06
-1.50572e-05
3.87604e-06
-1.59322e-05
3.50192e-06
-1.67117e-05
3.06974e-06
-1.73793e-05
2.68579e-06
-1.78996e-05
2.08495e-06
-1.82447e-05
1.33459e-06
-1.83781e-05
5.17052e-07
-1.82803e-05
-4.0027e-07
-1.79251e-05
-1.42614e-06
-1.72902e-05
-2.55355e-06
-1.63592e-05
-3.72351e-06
-1.51265e-05
-4.9334e-06
-1.35912e-05
-6.1379e-06
-1.17552e-05
-7.33871e-06
-9.62779e-06
-8.50272e-06
-7.21415e-06
-9.64145e-06
-4.54218e-06
-1.0678e-05
-1.62689e-06
-1.16337e-05
1.47446e-06
-1.23901e-05
4.74874e-06
-1.30732e-05
8.16256e-06
-1.36283e-05
1.16503e-05
-1.39242e-05
1.51801e-05
-1.4089e-05
1.87028e-05
-1.40625e-05
2.21639e-05
-1.3818e-05
2.55176e-05
-1.33873e-05
2.8723e-05
-1.27975e-05
3.17311e-05