/*--------------------------------*- C++ -*----------------------------------*\
| =========                 |                                                 |
| \\      /  F ield         | OpenFOAM: The Open Source CFD Toolbox           |
|  \\    /   O peration     | Version:  3.0.1                                 |
|   \\  /    A nd           | Web:      www.OpenFOAM.org                      |
|    \\/     M anipulation  |                                                 |
\*---------------------------------------------------------------------------*/
FoamFile
{
    version     2.0;
    format      ascii;
    class       volScalarField;
    location    "22.8";
    object      p_rgh;
}
// * * * * * * * * * * * * * * * * * * * * * * * * * * * * * * * * * * * * * //

dimensions      [1 -1 -2 0 0 0 0];

internalField   nonuniform List<scalar> 
21420
(
379.194
395.192
407.449
415.874
420.43
420.86
417.208
409.611
398.179
383.014
364.33
342.397
317.545
290.099
260.439
228.921
195.935
161.924
127.253
92.296
57.4854
29.584
-3.60421
-35.8634
-66.8732
-96.4494
-124.471
-150.829
-175.467
-198.346
-219.444
-238.763
-256.322
-272.143
-286.26
-298.708
-309.521
-318.734
-326.374
-332.47
-337.037
-340.039
-341.489
-341.39
-339.74
-336.481
-331.591
-325.063
-316.832
-306.862
-295.14
-281.599
-266.234
-249.028
-229.951
-209.023
-186.283
-161.764
-135.551
-107.77
-78.5332
-48.0069
-16.3844
15.8826
48.4939
81.5293
114.705
147.621
179.925
211.252
241.241
269.569
295.888
319.863
341.191
359.584
374.766
386.48
394.558
398.806
399.057
395.442
387.997
376.685
361.634
343.066
321.245
296.437
268.965
239.222
207.588
174.452
140.247
105.387
70.2829
35.3342
0.914638
-32.6334
-65.0007
-95.9194
-125.166
-152.571
-178.004
-201.393
-222.712
-241.962
-259.19
-274.452
-287.822
-299.382
-309.212
-317.395
-324.004
-329.107
-332.772
-335.005
-335.829
-335.337
-333.496
-330.306
-325.771
-319.888
-312.637
-304.001
-293.96
-282.486
-269.54
-255.087
-239.09
-221.508
-202.302
-181.438
-158.9
-134.696
-108.854
-81.4376
-52.5496
-22.3314
9.04263
41.3987
74.3063
107.516
140.68
173.415
205.319
235.97
264.948
291.842
316.252
337.813
356.186
371.079
382.25
389.515
392.738
391.865
386.909
378.007
365.23
348.816
329.034
306.195
280.651
252.786
223.005
191.72
159.342
126.275
92.9081
59.5941
26.6622
-5.58929
-36.9213
-67.1178
-95.9977
-123.413
-149.258
-173.453
-195.939
-216.684
-235.672
-252.911
-268.414
-282.201
-294.308
-304.78
-313.662
-320.996
-326.82
-331.189
-334.122
-335.624
-335.736
-334.482
-331.834
-327.783
-322.309
-315.381
-306.962
-297.014
-285.499
-272.377
-257.61
-241.167
-223.036
-203.208
-181.691
-158.516
-133.736
-107.435
-79.7218
-50.7358
-20.6638
10.4571
42.0682
74.0726
106.165
138.017
169.279
199.594
228.59
255.905
281.176
304.045
324.187
341.298
355.107
365.39
371.962
374.67
373.493
368.386
359.452
346.747
330.47
310.84
288.138
262.693
234.863
205.036
173.627
141.061
107.759
74.1336
40.5828
7.46788
-24.8776
-56.1969
-86.254
-114.865
-141.9
-167.267
-190.908
-212.803
-232.962
-251.402
-268.163
-283.292
-296.836
-308.849
-319.372
-328.439
-336.078
-342.303
-347.137
-350.556
-352.506
-353.123
-352.294
-349.925
-345.98
-340.405
-333.139
-324.15
-313.384
-300.791
-286.361
-270.082
-251.958
-232.025
-210.365
-187.095
-162.389
-136.46
-109.639
-82.1745
-45.259
-13.4215
18.9741
51.5873
84.0594
116.071
147.366
177.636
206.565
233.885
259.284
282.457
303.144
321.062
335.974
347.65
355.878
360.503
361.537
359.397
353.435
343.61
330.112
313.079
292.676
269.18
242.861
214.051
183.182
150.634
116.87
82.3164
47.4168
12.618
-21.7522
-55.0356
-85.4262
-115.729
-144.633
-171.8
-197.035
-220.224
-241.32
-260.312
-277.225
-292.116
-305.056
-316.13
-325.43
-333.052
-339.091
-343.641
-346.761
-348.518
-348.911
-348.054
-345.967
-342.699
-338.256
-332.659
-325.924
-318.017
-308.913
-298.592
-287.006
-274.118
-259.89
-244.307
-227.366
-209.105
-189.65
379.316
395.327
407.593
416.025
420.583
421.025
417.36
409.763
398.32
383.144
364.446
342.497
317.628
290.164
260.486
228.951
195.949
161.922
127.238
92.2694
57.4441
29.5254
-3.67338
-35.9376
-66.9506
-96.5288
-124.551
-150.91
-175.548
-198.426
-219.521
-238.839
-256.395
-272.214
-286.329
-298.775
-309.586
-318.797
-326.436
-332.53
-337.096
-340.098
-341.55
-341.454
-339.803
-336.544
-331.656
-325.13
-316.901
-306.933
-295.213
-281.675
-266.311
-249.107
-230.031
-209.104
-186.364
-161.843
-135.628
-107.844
-78.6025
-48.0708
-16.4412
15.8355
48.4561
81.5026
114.691
147.621
179.939
211.281
241.286
269.629
295.963
319.953
341.296
359.702
374.895
386.618
394.704
398.961
399.207
395.592
388.143
376.822
361.759
343.179
321.342
296.516
269.026
239.265
207.613
174.458
140.236
105.36
70.2403
35.2782
0.846648
-32.7115
-65.0869
-96.0118
-125.263
-152.67
-178.104
-201.492
-222.808
-242.055
-259.279
-274.537
-287.902
-299.459
-309.285
-317.464
-324.071
-329.171
-332.834
-335.064
-335.89
-335.397
-333.556
-330.366
-325.831
-319.948
-312.699
-304.064
-294.025
-282.552
-269.609
-255.158
-239.164
-221.584
-202.38
-181.518
-158.982
-134.778
-108.936
-81.5174
-52.6259
-22.4023
8.97934
41.3441
74.2633
107.486
140.665
173.417
205.338
236.007
265.004
291.916
316.344
337.922
356.31
371.215
382.395
389.668
392.899
392.016
387.057
378.148
365.362
348.934
329.136
306.28
280.717
252.834
223.035
191.732
159.337
126.255
92.8739
59.5479
26.6058
-5.65407
-36.9926
-67.1942
-96.0777
-123.496
-149.342
-173.536
-196.023
-216.766
-235.752
-252.99
-268.491
-282.275
-294.38
-304.85
-313.73
-321.061
-326.884
-331.251
-334.183
-335.683
-335.796
-334.542
-331.894
-327.844
-322.372
-315.446
-307.029
-297.083
-285.57
-272.451
-257.686
-241.245
-223.115
-203.288
-181.772
-158.597
-133.816
-107.512
-79.7947
-50.8032
-20.7226
10.4008
42.0235
74.0395
106.145
138.011
169.287
199.618
228.631
255.962
281.249
304.135
324.291
341.415
355.235
365.527
372.106
374.823
373.638
368.529
359.589
346.876
330.587
310.942
288.225
262.762
234.914
205.069
173.641
141.058
107.739
74.0991
40.535
7.40885
-24.9457
-56.2721
-86.3342
-114.949
-141.985
-167.352
-190.992
-212.886
-233.042
-251.479
-268.237
-283.363
-296.904
-308.915
-319.435
-328.501
-336.139
-342.364
-347.197
-350.617
-352.567
-353.187
-352.359
-349.992
-346.049
-340.476
-333.212
-324.226
-313.462
-300.871
-286.442
-270.163
-252.038
-232.105
-210.442
-187.168
-162.455
-136.517
-109.68
-82.1976
-45.3378
-13.481
18.9351
51.5635
84.0487
116.072
147.381
177.664
206.607
233.94
259.353
282.54
303.241
321.171
336.094
347.78
356.017
360.65
361.689
359.538
353.575
343.749
330.245
313.203
292.786
269.276
242.939
214.112
183.224
150.657
116.874
82.302
47.3854
12.5712
-21.8102
-55.1004
-85.5069
-115.816
-144.723
-171.894
-197.129
-220.317
-241.412
-260.4
-277.309
-292.197
-305.132
-316.201
-325.498
-333.115
-339.15
-343.697
-346.814
-348.568
-348.961
-348.101
-346.013
-342.744
-338.301
-332.705
-325.97
-318.065
-308.962
-298.643
-287.059
-274.174
-259.948
-244.367
-227.428
-209.169
-189.716
379.561
395.596
407.882
416.326
420.889
421.354
417.668
410.066
398.602
383.403
364.677
342.697
317.794
290.295
260.581
229.01
195.975
161.919
127.207
92.2161
57.3613
29.4083
-3.81188
-36.086
-67.1054
-96.6878
-124.713
-151.072
-175.709
-198.584
-219.677
-238.99
-256.541
-272.356
-286.466
-298.908
-309.715
-318.923
-326.559
-332.651
-337.213
-340.215
-341.674
-341.581
-339.928
-336.671
-331.786
-325.264
-317.039
-307.075
-295.359
-281.825
-266.465
-249.264
-230.189
-209.264
-186.523
-162.001
-135.781
-107.99
-78.7394
-48.1967
-16.553
15.7429
48.3824
81.4513
114.665
147.622
179.969
211.341
241.377
269.751
296.116
320.136
341.508
359.941
375.158
386.901
395
399.273
399.519
395.902
388.442
377.105
362.02
343.413
321.545
296.686
269.16
239.363
207.674
174.483
140.227
105.318
70.1691
35.1802
0.724917
-32.8534
-65.2447
-96.1819
-125.441
-152.853
-178.287
-201.674
-222.985
-242.227
-259.443
-274.693
-288.05
-299.598
-309.417
-317.59
-324.191
-329.287
-332.945
-335.169
-335.998
-335.503
-333.661
-330.472
-325.939
-320.058
-312.81
-304.178
-294.142
-282.673
-269.734
-255.288
-239.299
-221.724
-202.525
-181.667
-159.134
-134.932
-109.088
-81.6661
-52.7676
-22.5332
8.86325
41.2457
74.188
107.437
140.646
173.43
205.386
236.092
265.126
292.075
316.538
338.149
356.566
371.496
382.696
389.982
393.23
392.328
387.364
378.441
365.634
349.179
329.351
306.46
280.861
252.941
223.105
191.767
159.338
126.225
92.8168
59.4668
26.5043
-5.77219
-37.1239
-67.3354
-96.2261
-123.649
-149.498
-173.693
-196.178
-216.92
-235.903
-253.137
-268.634
-282.413
-294.513
-304.979
-313.854
-321.181
-327.001
-331.365
-334.294
-335.789
-335.907
-334.651
-332.005
-327.958
-322.488
-315.565
-307.153
-297.212
-285.703
-272.588
-257.827
-241.391
-223.264
-203.439
-181.924
-158.748
-133.964
-107.656
-79.9306
-50.9284
-20.8309
10.2984
41.9442
73.9834
106.114
138.008
169.314
199.677
228.723
256.087
281.407
304.324
324.51
341.661
355.504
365.814
372.405
375.141
373.936
368.826
359.874
347.144
330.831
311.158
288.409
262.912
235.028
205.146
173.682
141.064
107.712
74.0418
40.4511
7.30232
-25.0705
-56.4109
-86.4832
-115.104
-142.143
-167.511
-191.149
-213.039
-233.191
-251.622
-268.375
-283.494
-297.031
-309.036
-319.553
-328.615
-336.252
-342.477
-347.309
-350.73
-352.684
-353.306
-352.48
-350.118
-346.18
-340.612
-333.353
-324.371
-313.611
-301.025
-286.598
-270.321
-252.196
-232.26
-210.593
-187.311
-162.584
-136.627
-109.759
-82.2399
-45.4943
-13.598
18.8592
51.5179
84.029
116.077
147.411
177.721
206.691
234.052
259.492
282.707
303.434
321.389
336.335
348.041
356.294
360.945
361.992
359.819
353.854
344.027
330.513
313.45
293.008
269.467
243.097
214.233
183.308
150.702
116.881
82.2733
47.3227
12.4776
-21.9264
-55.2302
-85.6683
-115.989
-144.905
-172.08
-197.317
-220.504
-241.594
-260.576
-277.478
-292.357
-305.284
-316.345
-325.632
-333.241
-339.268
-343.807
-346.919
-348.668
-349.06
-348.196
-346.104
-342.834
-338.39
-332.795
-326.062
-318.16
-309.06
-298.745
-287.166
-274.286
-260.065
-244.488
-227.553
-209.298
-189.846
379.929
396
408.315
416.78
421.349
421.84
418.136
410.519
399.026
383.792
365.024
342.996
318.043
290.491
260.723
229.099
196.014
161.913
127.161
92.1358
57.2382
29.2317
-4.02016
-36.3088
-67.3377
-96.9265
-124.955
-151.315
-175.95
-198.822
-219.909
-239.216
-256.761
-272.568
-286.672
-299.107
-309.909
-319.112
-326.744
-332.831
-337.39
-340.39
-341.861
-341.769
-340.116
-336.862
-331.981
-325.464
-317.245
-307.287
-295.577
-282.05
-266.695
-249.498
-230.428
-209.504
-186.763
-162.237
-136.01
-108.21
-78.945
-48.3856
-16.721
15.6033
48.2717
81.3742
114.627
147.624
180.014
211.431
241.514
269.934
296.346
320.411
341.826
360.3
375.552
387.324
395.445
399.731
399.993
396.369
388.893
377.531
362.413
343.766
321.853
296.942
269.363
239.511
207.768
174.523
140.215
105.258
70.0639
35.0346
0.543714
-33.0649
-65.4803
-96.4359
-125.708
-153.126
-178.562
-201.945
-223.251
-242.483
-259.687
-274.925
-288.27
-299.807
-309.614
-317.777
-324.37
-329.46
-333.111
-335.327
-336.16
-335.662
-333.819
-330.631
-326.1
-320.221
-312.976
-304.348
-294.317
-282.853
-269.921
-255.483
-239.501
-221.934
-202.742
-181.891
-159.362
-135.161
-109.317
-81.8887
-52.9797
-22.7291
8.68922
41.0991
74.0758
107.364
140.618
173.451
205.46
236.22
265.31
292.314
316.831
338.491
356.953
371.92
383.15
390.454
393.717
392.807
387.831
378.884
366.045
349.55
329.674
306.732
281.079
253.102
223.211
191.82
159.341
126.182
92.7325
59.3464
26.3532
-5.94819
-37.3196
-67.5462
-96.4475
-123.877
-149.73
-173.926
-196.41
-217.149
-236.128
-253.357
-268.847
-282.619
-294.713
-305.171
-314.039
-321.361
-327.176
-331.535
-334.458
-335.952
-336.071
-334.815
-332.171
-328.127
-322.662
-315.744
-307.338
-297.404
-285.902
-272.794
-258.039
-241.609
-223.487
-203.665
-182.151
-158.975
-134.187
-107.871
-80.1338
-51.1155
-20.9936
10.147
41.8265
73.9002
106.069
138.005
169.356
199.767
228.862
256.276
281.645
304.609
324.84
342.031
355.908
366.245
372.855
375.612
374.39
369.276
360.305
347.548
331.199
311.485
288.688
263.139
235.201
205.263
173.745
141.074
107.673
73.9571
40.3265
7.14375
-25.2564
-56.618
-86.7055
-115.336
-142.38
-167.748
-191.383
-213.268
-233.413
-251.836
-268.58
-283.691
-297.219
-309.217
-319.728
-328.787
-336.42
-342.644
-347.476
-350.896
-352.862
-353.484
-352.662
-350.307
-346.376
-340.815
-333.564
-324.59
-313.835
-301.255
-286.832
-270.558
-252.433
-232.494
-210.818
-187.526
-162.779
-136.793
-109.878
-82.2986
-45.7342
-13.7731
18.7458
51.4497
83.9996
116.085
147.457
177.806
206.816
234.219
259.701
282.956
303.723
321.716
336.696
348.432
356.711
361.387
362.44
360.246
354.277
344.446
330.914
313.821
293.341
269.755
243.334
214.416
183.433
150.77
116.893
82.2301
47.2283
12.337
-22.1011
-55.4251
-85.9103
-116.248
-145.177
-172.36
-197.599
-220.784
-241.868
-260.841
-277.732
-292.599
-305.512
-316.559
-325.834
-333.43
-339.445
-343.972
-347.075
-348.82
-349.208
-348.337
-346.241
-342.97
-338.525
-332.932
-326.201
-318.302
-309.208
-298.898
-287.326
-274.453
-260.239
-244.669
-227.741
-209.49
-190.041
380.419
396.539
408.894
417.385
421.965
422.479
418.764
411.124
399.591
384.31
365.487
343.396
318.375
290.751
260.912
229.216
196.066
161.904
127.099
92.0281
57.0771
28.9935
-4.29895
-36.6063
-67.6478
-97.2449
-125.278
-151.639
-176.273
-199.14
-220.22
-239.518
-257.054
-272.852
-286.947
-299.373
-310.167
-319.364
-326.991
-333.073
-337.626
-340.628
-342.108
-342.017
-340.366
-337.115
-332.241
-325.732
-317.52
-307.571
-295.868
-282.35
-267.003
-249.812
-230.745
-209.824
-187.083
-162.552
-136.317
-108.503
-79.2195
-48.6376
-16.9454
15.4163
48.1236
81.2711
114.574
147.626
180.074
211.551
241.697
270.178
296.652
320.777
342.25
360.779
376.077
387.89
396.039
400.34
400.625
396.995
389.495
378.1
362.937
344.237
322.263
297.284
269.633
239.709
207.892
174.576
140.2
105.178
69.9232
34.8402
0.301679
-33.3473
-65.7949
-96.775
-126.063
-153.491
-178.929
-202.308
-223.605
-242.824
-260.014
-275.235
-288.563
-300.084
-309.877
-318.027
-324.609
-329.69
-333.33
-335.542
-336.375
-335.873
-334.03
-330.843
-326.314
-320.439
-313.198
-304.576
-294.551
-283.094
-270.17
-255.742
-239.771
-222.215
-203.032
-182.188
-159.666
-135.468
-109.621
-82.186
-53.263
-22.9908
8.45573
40.9042
73.9259
107.266
140.58
173.479
205.558
236.392
265.556
292.634
317.221
338.948
357.468
372.486
383.755
391.084
394.356
393.452
388.458
379.475
366.594
350.044
330.106
307.094
281.369
253.318
223.353
191.891
159.344
126.125
92.6198
59.1855
26.1515
-6.18317
-37.5809
-67.8277
-96.7431
-124.183
-150.04
-174.237
-196.719
-217.455
-236.429
-253.65
-269.131
-282.894
-294.979
-305.428
-314.286
-321.6
-327.408
-331.76
-334.676
-336.171
-336.29
-335.034
-332.392
-328.353
-322.893
-315.983
-307.584
-297.66
-286.167
-273.068
-258.322
-241.9
-223.785
-203.966
-182.454
-159.277
-134.484
-108.158
-80.4053
-51.3657
-21.2131
9.94691
41.6695
73.7891
106.009
138
169.412
199.886
229.047
256.527
281.963
304.99
325.28
342.525
356.447
366.821
373.456
376.226
375.008
369.881
360.881
348.088
331.691
311.92
289.06
263.442
235.432
205.42
173.828
141.087
107.62
73.8439
40.1601
6.93197
-25.5047
-56.8946
-87.0024
-115.646
-142.696
-168.065
-191.696
-213.574
-233.709
-252.121
-268.853
-283.953
-297.47
-309.459
-319.962
-329.015
-336.645
-342.868
-347.697
-351.116
-353.098
-353.719
-352.905
-350.559
-346.638
-341.085
-333.846
-324.881
-314.134
-301.563
-287.145
-270.875
-252.748
-232.805
-211.12
-187.812
-163.039
-137.017
-110.037
-82.3667
-46.0647
-14.0059
18.5956
51.359
83.9604
116.095
147.518
177.919
206.984
234.442
259.98
283.29
304.109
322.152
337.178
348.954
357.266
361.973
363.028
360.829
354.849
345.007
331.45
314.317
293.785
270.138
243.65
214.659
183.6
150.861
116.908
82.1719
47.1018
12.1489
-22.3347
-55.6854
-86.233
-116.595
-145.541
-172.733
-197.976
-221.158
-242.234
-261.195
-278.071
-292.92
-305.817
-316.846
-326.102
-333.682
-339.682
-344.193
-347.282
-349.024
-349.403
-348.526
-346.424
-343.15
-338.704
-333.113
-326.385
-318.492
-309.404
-299.103
-287.54
-274.677
-260.472
-244.911
-227.991
-209.748
-190.302
381.033
397.214
409.617
418.142
422.738
423.269
419.554
411.878
400.298
384.959
366.066
343.895
318.79
291.077
261.147
229.363
196.131
161.893
127.021
91.8932
56.8799
28.691
-4.6491
-36.9788
-68.0358
-97.6433
-125.682
-152.045
-176.676
-199.537
-220.609
-239.896
-257.421
-273.207
-287.29
-299.706
-310.49
-319.679
-327.299
-333.375
-337.923
-340.927
-342.414
-342.327
-340.678
-337.433
-332.566
-326.066
-317.864
-307.926
-296.232
-282.725
-267.387
-250.204
-231.143
-210.224
-187.483
-162.947
-136.7
-108.869
-79.563
-48.9528
-17.2266
15.1815
47.9379
81.1417
114.509
147.628
180.148
211.7
241.925
270.483
297.035
321.235
342.781
361.377
376.734
388.597
396.784
401.105
401.409
397.778
390.248
378.811
363.592
344.826
322.776
297.711
269.971
239.957
208.048
174.641
140.18
105.076
69.7466
34.5964
-0.00179778
-33.7013
-66.189
-97.2
-126.509
-153.948
-179.389
-202.762
-224.048
-243.251
-260.422
-275.623
-288.931
-300.431
-310.206
-318.34
-324.908
-329.976
-333.605
-335.811
-336.643
-336.138
-334.294
-331.108
-326.583
-320.711
-313.476
-304.86
-294.843
-283.395
-270.482
-256.067
-240.108
-222.565
-203.394
-182.561
-160.047
-135.852
-110.003
-82.5582
-53.6179
-23.3191
8.16182
40.6609
73.7378
107.143
140.531
173.513
205.68
236.605
265.863
293.033
317.709
339.519
358.113
373.193
384.512
391.873
395.155
394.257
389.243
380.215
367.28
350.663
330.646
307.548
281.731
253.587
223.531
191.979
159.349
126.052
92.4782
58.9836
25.8987
-6.47772
-37.9084
-68.1802
-97.113
-124.564
-150.428
-174.626
-197.107
-217.838
-236.805
-254.016
-269.487
-283.238
-295.311
-305.748
-314.595
-321.898
-327.699
-332.041
-334.95
-336.445
-336.563
-335.307
-332.669
-328.635
-323.183
-316.281
-307.893
-297.98
-286.499
-273.411
-258.676
-242.264
-224.156
-204.344
-182.834
-159.655
-134.856
-108.518
-80.7453
-51.6795
-21.4904
9.6984
41.473
73.6498
105.933
137.994
169.481
200.035
229.278
256.842
282.36
305.466
325.831
343.142
357.122
367.542
374.207
376.989
375.783
370.638
361.603
348.764
332.307
312.465
289.525
263.82
235.72
205.616
173.932
141.103
107.553
73.7016
39.9512
6.66641
-25.816
-57.2412
-87.3744
-116.034
-143.091
-168.461
-192.088
-213.956
-234.079
-252.478
-269.196
-284.282
-297.785
-309.761
-320.255
-329.3
-336.925
-343.147
-347.974
-351.392
-353.384
-354.013
-353.208
-350.874
-346.965
-341.424
-334.198
-325.245
-314.508
-301.949
-287.536
-271.27
-253.143
-233.195
-211.498
-188.171
-163.366
-137.299
-110.238
-82.4343
-46.4962
-14.2952
18.4095
51.2463
83.9115
116.107
147.593
178.061
207.193
234.72
260.329
283.706
304.592
322.698
337.781
349.607
357.96
362.701
363.756
361.566
355.571
345.712
332.121
314.937
294.34
270.618
244.045
214.963
183.809
150.974
116.926
82.0985
46.9425
11.9132
-22.628
-56.0113
-86.6364
-117.028
-145.996
-173.201
-198.448
-221.625
-242.691
-261.637
-278.494
-293.323
-306.197
-317.203
-326.438
-333.997
-339.977
-344.469
-347.544
-349.279
-349.645
-348.761
-346.653
-343.375
-338.929
-333.34
-326.615
-318.729
-309.65
-299.358
-287.806
-274.956
-260.763
-245.213
-228.304
-210.069
-190.628
381.77
398.024
410.485
419.052
423.671
424.215
420.499
412.782
401.147
385.737
366.761
344.494
319.288
291.468
261.429
229.539
196.207
161.878
126.927
91.7315
56.6494
28.3206
-5.0716
-37.4267
-68.5019
-98.1219
-126.167
-152.532
-177.159
-200.013
-221.075
-240.35
-257.86
-273.632
-287.701
-300.105
-310.878
-320.057
-327.669
-333.738
-338.28
-341.288
-342.779
-342.697
-341.052
-337.813
-332.957
-326.466
-318.276
-308.351
-296.669
-283.176
-267.848
-250.674
-231.62
-210.705
-187.964
-163.421
-137.162
-109.31
-79.9759
-49.3312
-17.5648
14.8984
47.7141
80.9858
114.429
147.629
180.237
211.879
242.198
270.848
297.494
321.785
343.418
362.095
377.523
389.448
397.679
402.028
402.349
398.716
391.152
379.665
364.379
345.534
323.391
298.224
270.377
240.253
208.233
174.719
140.154
104.953
69.5336
34.3026
-0.367089
-34.1272
-66.6633
-97.711
-127.045
-154.497
-179.941
-203.308
-224.581
-243.765
-260.913
-276.089
-289.372
-300.848
-310.601
-318.715
-325.266
-330.32
-333.935
-336.135
-336.964
-336.455
-334.61
-331.427
-326.905
-321.037
-313.809
-305.202
-295.194
-283.756
-270.857
-256.456
-240.513
-222.986
-203.829
-183.009
-160.504
-136.313
-110.461
-83.0058
-54.0448
-23.7145
7.80678
40.3689
73.511
106.994
140.472
173.553
205.825
236.861
266.231
293.512
318.295
340.204
358.887
374.043
385.421
392.821
396.117
395.222
390.185
381.105
368.104
351.406
331.294
308.092
282.165
253.91
223.742
192.084
159.353
125.963
92.3071
58.7403
25.5942
-6.83237
-38.3022
-68.6043
-97.5579
-125.023
-150.894
-175.094
-197.572
-218.298
-237.256
-254.456
-269.913
-283.651
-295.71
-306.133
-314.966
-322.257
-328.047
-332.379
-335.281
-336.774
-336.89
-335.635
-333.001
-328.973
-323.53
-316.639
-308.264
-298.364
-286.897
-273.823
-259.101
-242.702
-224.603
-204.797
-183.29
-160.11
-135.303
-108.95
-81.1546
-52.0573
-21.8262
9.40116
41.2366
73.4817
105.841
137.986
169.563
200.213
229.556
257.219
282.836
306.038
326.492
343.884
357.933
368.407
375.11
377.909
376.711
371.547
362.47
349.575
333.046
313.119
290.083
264.274
236.065
205.85
174.056
141.121
107.471
73.5297
39.6993
6.34667
-26.191
-57.6583
-87.8217
-116.5
-143.567
-168.937
-192.558
-214.416
-234.524
-252.906
-269.607
-284.675
-298.162
-310.124
-320.606
-329.643
-337.262
-343.481
-348.306
-351.725
-353.721
-354.365
-353.571
-351.252
-347.357
-341.83
-334.621
-325.682
-314.957
-302.411
-288.007
-271.746
-253.618
-233.663
-211.952
-188.602
-163.759
-137.639
-110.483
-82.5065
-47.0243
-14.6384
18.1883
51.1117
83.8528
116.122
147.684
178.23
207.444
235.054
260.748
284.206
305.172
323.353
338.505
350.391
358.794
363.572
364.63
362.454
356.444
346.561
332.928
315.681
295.007
271.194
244.52
215.327
184.06
151.109
116.947
82.0095
46.7497
11.6295
-22.9819
-56.4037
-87.1206
-117.549
-146.543
-173.763
-199.014
-222.187
-243.24
-262.168
-279.002
-293.806
-306.653
-317.633
-326.841
-334.375
-340.331
-344.8
-347.858
-349.583
-349.934
-349.042
-346.928
-343.645
-339.198
-333.612
-326.892
-319.013
-309.944
-299.665
-288.126
-275.291
-261.113
-245.576
-228.679
-210.456
-191.02
382.63
398.969
411.5
420.116
424.762
425.32
421.598
413.836
402.137
386.646
367.572
345.194
319.869
291.923
261.758
229.743
196.295
161.859
126.815
91.5428
56.3897
27.877
-5.56751
-37.9503
-69.0465
-98.6811
-126.734
-153.101
-177.724
-200.57
-221.619
-240.88
-258.374
-274.128
-288.182
-300.57
-311.33
-320.498
-328.101
-334.162
-338.699
-341.708
-343.204
-343.127
-341.488
-338.257
-333.412
-326.934
-318.758
-308.848
-297.179
-283.702
-268.387
-251.223
-232.177
-211.267
-188.525
-163.975
-137.701
-109.825
-80.4585
-49.7731
-17.9603
14.5666
47.4515
80.8027
114.334
147.631
180.34
212.087
242.516
271.274
298.029
322.426
344.161
362.934
378.444
390.441
398.724
403.108
403.447
399.809
392.208
380.662
365.299
346.361
324.109
298.821
270.849
240.598
208.449
174.809
140.124
104.808
69.2839
33.9581
-0.79484
-34.6257
-67.2183
-98.3087
-127.672
-155.14
-180.586
-203.946
-225.202
-244.364
-261.486
-276.633
-289.886
-301.334
-311.061
-319.153
-325.684
-330.721
-334.321
-336.514
-337.337
-336.826
-334.98
-331.799
-327.281
-321.418
-314.197
-305.6
-295.603
-284.178
-271.294
-256.911
-240.986
-223.476
-204.337
-183.532
-161.038
-136.852
-110.997
-83.5291
-54.544
-24.1775
7.38983
40.0277
73.2449
106.819
140.402
173.598
205.994
237.159
266.659
294.07
318.978
341.004
359.792
375.036
386.483
393.929
397.244
396.349
391.283
382.145
369.067
352.274
332.051
308.727
282.672
254.286
223.989
192.205
159.356
125.859
92.106
58.4549
25.2376
-7.24751
-38.763
-69.1
-98.0779
-125.559
-151.439
-175.641
-198.116
-218.835
-237.783
-254.97
-270.412
-284.133
-296.176
-306.582
-315.399
-322.675
-328.452
-332.773
-335.667
-337.157
-337.27
-336.017
-333.388
-329.368
-323.935
-317.057
-308.696
-298.812
-287.362
-274.303
-259.598
-243.212
-225.125
-205.326
-183.823
-160.641
-135.825
-109.455
-81.6334
-52.4997
-22.2207
9.05461
40.9599
73.2845
105.733
137.976
169.658
200.419
229.878
257.659
283.392
306.705
327.263
344.75
358.879
369.417
376.165
378.985
377.793
372.608
363.483
350.523
333.909
313.883
290.734
264.804
236.467
206.122
174.2
141.141
107.375
73.3277
39.4038
5.97212
-26.6302
-58.1465
-88.345
-117.045
-144.122
-169.493
-193.107
-214.952
-235.044
-253.406
-270.086
-285.135
-298.602
-310.547
-321.015
-330.042
-337.655
-343.871
-348.694
-352.113
-354.112
-354.775
-353.995
-351.693
-347.815
-342.305
-335.114
-326.192
-315.482
-302.95
-288.556
-272.301
-254.173
-234.21
-212.483
-189.105
-164.221
-138.041
-110.777
-82.603
-47.63
-15.0321
17.9334
50.9557
83.7843
116.139
147.789
178.427
207.737
235.444
261.236
284.791
305.85
324.118
339.35
351.307
359.768
364.588
365.654
363.493
357.468
347.554
333.87
316.551
295.785
271.867
245.073
215.753
184.352
151.266
116.97
81.9041
46.523
11.2969
-23.3975
-56.8633
-87.6854
-118.158
-147.182
-174.42
-199.677
-222.844
-243.882
-262.788
-279.596
-294.369
-307.186
-318.134
-327.311
-334.815
-340.744
-345.187
-348.225
-349.937
-350.271
-349.369
-347.247
-343.959
-339.513
-333.929
-327.214
-319.345
-310.287
-300.023
-288.499
-275.681
-261.52
-245.999
-229.118
-210.906
-191.477
383.613
400.051
412.661
421.334
426.012
426.584
422.851
415.04
403.27
387.686
368.5
345.994
320.533
292.443
262.132
229.974
196.393
161.835
126.685
91.327
56.1069
27.3531
-6.13781
-38.5499
-69.6699
-99.3211
-127.383
-153.752
-178.371
-201.206
-222.242
-241.485
-258.96
-274.696
-288.73
-301.101
-311.846
-321.001
-328.594
-334.647
-339.178
-342.188
-343.687
-343.617
-341.986
-338.764
-333.933
-327.468
-319.307
-309.415
-297.762
-284.303
-269.003
-251.851
-232.814
-211.909
-189.167
-164.609
-138.318
-110.416
-81.0115
-50.279
-18.413
14.1859
47.1493
80.5917
114.226
147.632
180.456
212.325
242.878
271.76
298.64
323.159
345.011
363.892
379.497
391.577
399.921
404.346
404.704
401.058
393.417
381.802
366.351
347.307
324.93
299.504
271.389
240.992
208.694
174.91
140.088
104.641
68.9969
33.5624
-1.2857
-35.1973
-67.8548
-98.9939
-128.391
-155.875
-181.325
-204.676
-225.914
-245.05
-262.14
-277.255
-290.475
-301.889
-311.587
-319.652
-326.161
-331.178
-334.762
-336.946
-337.764
-337.248
-335.402
-332.224
-327.711
-321.854
-314.641
-306.055
-296.071
-284.66
-271.794
-257.43
-241.526
-224.038
-204.918
-184.131
-161.649
-137.469
-111.611
-84.1286
-55.1162
-24.7089
6.91042
39.6369
72.9386
106.617
140.319
173.648
206.185
237.498
267.149
294.708
319.76
341.919
360.826
376.172
387.698
395.197
398.534
397.638
392.539
383.336
370.169
353.266
332.916
309.452
283.25
254.714
224.269
192.342
159.358
125.737
91.8742
58.1268
24.8282
-7.72362
-39.2913
-69.668
-98.6737
-126.172
-152.062
-176.266
-198.738
-219.449
-238.385
-255.557
-270.982
-284.685
-296.709
-307.096
-315.894
-323.153
-328.915
-333.224
-336.108
-337.594
-337.705
-336.454
-333.83
-329.82
-324.398
-317.534
-309.19
-299.324
-287.893
-274.853
-260.165
-243.795
-225.721
-205.931
-184.433
-161.248
-136.423
-110.033
-82.1822
-53.0071
-22.6743
8.65808
40.6424
73.0578
105.608
137.963
169.766
200.655
230.247
258.161
284.026
307.467
328.145
345.74
359.962
370.574
377.372
380.218
379.032
373.821
364.643
351.608
334.897
314.756
291.479
265.409
236.926
206.433
174.364
141.163
107.263
73.0949
39.0638
5.54199
-27.1342
-58.7064
-88.9447
-117.67
-144.758
-170.13
-193.736
-215.566
-235.638
-253.978
-270.634
-285.66
-299.105
-311.031
-321.482
-330.498
-338.103
-344.316
-349.138
-352.557
-354.553
-355.244
-354.479
-352.197
-348.339
-342.847
-335.678
-326.775
-316.082
-303.568
-289.185
-272.935
-254.808
-234.836
-213.091
-189.682
-164.752
-138.504
-111.125
-82.7399
-48.2981
-15.472
17.6461
50.7786
83.7058
116.158
147.908
178.652
208.07
235.889
261.793
285.459
306.624
324.993
340.316
352.354
360.881
365.749
366.827
364.684
358.643
348.693
334.95
317.547
296.677
272.636
245.706
216.239
184.685
151.444
116.995
81.7816
46.2619
10.9142
-23.8763
-57.3906
-88.331
-118.855
-147.914
-175.172
-200.435
-223.595
-244.616
-263.497
-280.274
-295.014
-307.794
-318.706
-327.848
-335.319
-341.216
-345.63
-348.644
-350.339
-350.656
-349.742
-347.611
-344.319
-339.872
-334.291
-327.583
-319.722
-310.679
-300.431
-288.925
-276.128
-261.986
-246.483
-229.619
-211.422
-192
384.721
401.269
413.969
422.706
427.422
428.009
424.261
416.397
404.546
388.857
369.544
346.895
321.28
293.027
262.551
230.233
196.502
161.805
126.536
91.0832
55.8094
26.7388
-6.78315
-39.2259
-70.3724
-100.042
-128.114
-154.485
-179.099
-201.923
-222.943
-242.166
-259.62
-275.334
-289.348
-301.699
-312.427
-321.567
-329.149
-335.193
-339.718
-342.728
-344.23
-344.167
-342.545
-339.333
-334.518
-328.068
-319.926
-310.054
-298.419
-284.979
-269.697
-252.558
-233.532
-212.632
-189.89
-165.324
-139.015
-111.082
-81.6355
-50.8496
-18.9225
13.7556
46.8066
80.3521
114.101
147.631
180.586
212.592
243.285
272.307
299.326
323.982
345.967
364.97
380.683
392.857
401.271
405.741
406.119
402.465
394.779
383.087
367.536
348.372
325.854
300.272
271.996
241.434
208.968
175.023
140.045
104.452
68.6717
33.1149
-1.84035
-35.8429
-68.5735
-99.7674
-129.201
-156.705
-182.158
-205.498
-226.716
-245.823
-262.878
-277.955
-291.136
-302.515
-312.178
-320.214
-326.697
-331.693
-335.258
-337.431
-338.243
-337.724
-335.877
-332.702
-328.194
-322.344
-315.141
-306.566
-296.596
-285.203
-272.356
-258.014
-242.134
-224.669
-205.573
-184.805
-162.338
-138.164
-112.303
-84.8049
-55.762
-25.3093
6.36768
39.1958
72.5913
106.388
140.225
173.703
206.399
237.879
267.699
295.426
320.639
342.949
361.991
377.451
389.068
396.627
399.99
399.091
393.953
384.677
371.41
354.383
333.89
310.268
283.9
255.195
224.582
192.494
159.359
125.598
91.6111
57.7552
24.3653
-8.26142
-39.8877
-70.3087
-99.3456
-126.864
-152.765
-176.971
-199.438
-220.141
-239.064
-256.218
-271.623
-285.306
-297.308
-307.673
-316.45
-323.69
-329.436
-333.731
-336.605
-338.084
-338.194
-336.945
-334.327
-330.327
-324.918
-318.071
-309.746
-299.9
-288.491
-275.472
-260.804
-244.452
-226.393
-206.614
-185.12
-161.933
-137.097
-110.686
-82.8016
-53.5802
-23.1876
8.21087
40.2835
72.8008
105.465
137.946
169.885
200.918
230.66
258.725
284.74
308.326
329.139
346.855
361.182
371.876
378.733
381.609