/*--------------------------------*- C++ -*----------------------------------*\
| =========                 |                                                 |
| \\      /  F ield         | OpenFOAM: The Open Source CFD Toolbox           |
|  \\    /   O peration     | Version:  3.0.1                                 |
|   \\  /    A nd           | Web:      www.OpenFOAM.org                      |
|    \\/     M anipulation  |                                                 |
\*---------------------------------------------------------------------------*/
FoamFile
{
    version     2.0;
    format      ascii;
    class       volScalarField;
    location    "15.8";
    object      p_rgh;
}
// * * * * * * * * * * * * * * * * * * * * * * * * * * * * * * * * * * * * * //

dimensions      [1 -1 -2 0 0 0 0];

internalField   nonuniform List<scalar> 
22680
(
-322.387
-327.721
-332.041
-335.35
-337.663
-338.98
-339.312
-338.569
-336.784
-333.954
-330.072
-325.13
-319.111
-312.004
-303.783
-294.438
-283.953
-272.293
-259.436
-245.366
-230.051
-213.492
-195.659
-176.562
-156.19
-134.57
-111.715
-87.683
-62.5284
-36.3574
-9.28944
18.5911
47.2112
76.0854
105.131
134.193
163.003
191.367
219.011
245.725
271.232
295.315
317.713
338.222
356.619
372.724
386.366
397.401
405.713
411.209
413.824
413.59
410.465
404.468
395.65
384.146
370.065
353.553
334.783
313.937
291.234
266.882
241.13
214.213
186.383
157.881
128.953
99.8277
70.7279
41.8439
13.5704
-14.2869
-41.388
-67.6057
-92.8349
-116.983
-139.979
-161.766
-182.308
-201.58
-219.569
-236.272
-251.692
-265.839
-278.723
-290.36
-300.765
-309.957
-317.954
-324.774
-330.442
-334.975
-338.392
-340.718
-341.968
-342.139
-341.317
-339.427
-336.453
-332.387
-327.209
-320.905
-313.446
-304.817
-294.987
-283.931
-271.626
-258.06
-243.213
-227.08
-209.66
-190.955
-170.99
-149.778
-127.372
-103.802
-79.1511
-53.4825
-26.9142
0.452171
28.5941
57.2666
86.1951
115.155
143.985
172.497
200.474
227.646
253.768
278.606
301.936
323.536
343.197
360.727
375.959
388.741
398.947
406.478
411.263
413.214
412.431
408.847
402.486
393.369
381.605
367.299
350.578
331.601
310.547
287.617
263.031
237.024
209.842
181.737
152.966
123.779
94.4216
65.1226
36.0838
7.23254
-20.7531
-47.9212
-74.1538
-99.3418
-123.398
-146.25
-167.848
-188.154
-207.152
-224.837
-241.217
-256.305
-270.107
-282.668
-294.016
-304.162
-313.168
-321.054
-327.845
-333.576
-338.267
-341.95
-344.616
-346.295
-346.984
-346.644
-345.306
-342.921
-339.465
-334.89
-329.156
-322.208
-313.996
-304.47
-293.584
-281.293
-267.557
-252.349
-235.653
-217.453
-197.763
-176.604
-154.004
-130.027
-104.729
-78.2178
-50.5856
-21.9784
7.47706
37.6198
68.5481
99.4748
130.41
161.161
191.535
221.288
250.158
277.901
304.297
329.149
352.27
373.549
392.854
409.954
425.669
-322.444
-327.777
-332.096
-335.404
-337.717
-339.034
-339.364
-338.623
-336.839
-334.01
-330.129
-325.189
-319.171
-312.066
-303.847
-294.505
-284.022
-272.364
-259.51
-245.442
-230.129
-213.571
-195.74
-176.644
-156.274
-134.653
-111.798
-87.7644
-62.6068
-36.4311
-9.35695
18.531
47.1619
76.047
105.104
134.178
163.001
191.38
219.039
245.768
271.29
295.389
317.803
338.326
356.736
372.853
386.506
397.55
405.869
411.371
413.996
413.749
410.62
404.62
395.797
384.284
370.193
353.669
334.885
314.024
291.305
266.938
241.171
214.239
186.393
157.878
128.937
99.7996
70.6897
41.7995
13.5095
-14.3516
-41.4577
-67.6796
-92.9121
-117.062
-140.06
-161.848
-182.39
-201.66
-219.648
-236.35
-251.769
-265.914
-278.797
-290.432
-300.835
-310.026
-318.021
-324.839
-330.506
-335.038
-338.455
-340.78
-342.028
-342.194
-341.377
-339.488
-336.515
-332.45
-327.273
-320.97
-313.514
-304.887
-295.058
-284.004
-271.702
-258.137
-243.291
-227.159
-209.741
-191.036
-171.071
-149.859
-127.451
-103.88
-79.2266
-53.5541
-26.9805
0.393192
28.539
57.2227
86.1618
115.132
143.976
172.501
200.492
227.679
253.816
278.67
302.015
323.629
343.303
360.846
376.088
388.88
399.094
406.631
411.419
413.376
412.586
409.001
402.635
393.513
381.741
367.424
350.692
331.702
310.634
287.689
263.088
237.065
209.867
181.748
152.962
123.762
94.3912
65.0811
36.032
7.17385
-20.819
-47.9928
-74.23
-99.4213
-123.48
-146.334
-167.931
-188.237
-207.234
-224.917
-241.296
-256.381
-270.18
-282.739
-294.085
-304.229
-313.233
-321.117
-327.905
-333.635
-338.324
-342.007
-344.672
-346.352
-347.039
-346.701
-345.365
-342.982
-339.529
-334.957
-329.225
-322.28
-314.071
-304.549
-293.667
-281.378
-267.645
-252.439
-235.744
-217.546
-197.856
-176.696
-154.095
-130.115
-104.814
-78.2975
-50.6593
-22.0449
7.41914
37.5708
68.5122
99.4497
130.398
161.162
191.552
221.319
250.204
277.962
304.372
329.236
352.367
373.654
392.972
410.007
425.323
-322.558
-327.889
-332.205
-335.512
-337.824
-339.14
-339.471
-338.732
-336.948
-334.121
-330.243
-325.305
-319.291
-312.191
-303.976
-294.638
-284.159
-272.507
-259.656
-245.593
-230.284
-213.73
-195.902
-176.809
-156.44
-134.821
-111.964
-87.9272
-62.7637
-36.5788
-9.49201
18.4106
47.063
75.9702
105.05
134.149
162.998
191.405
219.093
245.854
271.407
295.537
317.982
338.534
356.971
373.113
386.787
397.849
406.182
411.694
414.334
414.07
410.931
404.925
396.091
384.56
370.448
353.899
335.088
314.198
291.449
267.051
241.253
214.29
186.415
157.871
128.904
99.7432
70.613
41.7089
13.3893
-14.4808
-41.597
-67.8274
-93.0666
-117.221
-140.221
-162.011
-182.552
-201.822
-219.808
-236.506
-251.922
-266.064
-278.944
-290.576
-300.976
-310.163
-318.155
-324.971
-330.635
-335.164
-338.579
-340.904
-342.149
-342.307
-341.497
-339.609
-336.638
-332.575
-327.402
-321.102
-313.649
-305.026
-295.201
-284.151
-271.852
-258.291
-243.448
-227.318
-209.902
-191.198
-171.233
-150.021
-127.611
-104.036
-79.3772
-53.6968
-27.1129
0.275623
28.4293
57.1353
86.0954
115.088
143.957
172.51
200.529
227.746
253.914
278.797
302.172
323.815
343.516
361.084
376.349
389.159
399.389
406.936
411.73
413.699
412.897
409.309
402.934
393.801
382.012
367.675
350.92
331.904
310.808
287.834
263.201
237.147
209.918
181.768
152.953
123.726
94.3304
64.998
35.9283
7.05661
-20.9506
-48.1361
-74.3823
-99.5802
-123.644
-146.499
-168.098
-188.403
-207.398
-225.078
-241.452
-256.534
-270.328
-282.882
-294.223
-304.363
-313.361
-321.241
-328.026
-333.753
-338.44
-342.12
-344.784
-346.465
-347.15
-346.816
-345.482
-343.103
-339.655
-335.088
-329.363
-322.424
-314.222
-304.707
-293.83
-281.547
-267.82
-252.618
-235.926
-217.73
-198.041
-176.88
-154.276
-130.291
-104.982
-78.4565
-50.8065
-22.1774
7.30375
37.4733
68.4405
99.4
130.374
161.166
191.585
221.382
250.298
278.084
304.522
329.412
352.563
373.867
393.184
410.173
425.296
-322.73
-328.056
-332.37
-335.675
-337.984
-339.299
-339.634
-338.895
-337.113
-334.288
-330.413
-325.48
-319.471
-312.377
-304.169
-294.838
-284.366
-272.72
-259.877
-245.819
-230.517
-213.968
-196.145
-177.056
-156.69
-135.072
-112.214
-88.1716
-62.9993
-36.8007
-9.6948
18.2297
46.9146
75.8547
104.969
134.106
162.994
191.443
219.175
245.982
271.583
295.76
318.25
338.846
357.324
373.502
387.208
398.297
406.65
412.178
414.828
414.559
411.404
405.384
396.532
384.975
370.83
354.244
335.392
314.459
291.665
267.22
241.375
214.366
186.447
157.861
128.855
99.6584
70.4974
41.5704
13.2113
-14.6744
-41.8061
-68.0494
-93.2984
-117.46
-140.464
-162.255
-182.797
-202.064
-220.046
-236.741
-252.153
-266.29
-279.165
-290.792
-301.187
-310.37
-318.357
-325.167
-330.827
-335.353
-338.766
-341.089
-342.329
-342.483
-341.677
-339.791
-336.823
-332.764
-327.594
-321.299
-313.852
-305.234
-295.415
-284.371
-272.077
-258.521
-243.683
-227.557
-210.143
-191.441
-171.477
-150.264
-127.851
-104.271
-79.6034
-53.9114
-27.3117
0.0989285
28.2648
57.0041
85.9953
115.021
143.928
172.522
200.585
227.846
254.059
278.989
302.409
324.094
343.836
361.442
376.739
389.577
399.83
407.395
412.197
414.178
413.372
409.775
403.384
394.233
382.419
368.052
351.262
332.207
311.069
288.05
263.371
237.27
209.994
181.798
152.94
123.672
94.2391
64.8731
35.7724
6.88068
-21.1483
-48.3513
-74.611
-99.8189
-123.889
-146.749
-168.348
-188.652
-207.643
-225.318
-241.687
-256.762
-270.55
-283.096
-294.43
-304.563
-313.554
-321.428
-328.207
-333.929
-338.613
-342.29
-344.952
-346.633
-347.314
-346.989
-345.659
-343.285
-339.844
-335.286
-329.57
-322.641
-314.449
-304.944
-294.076
-281.802
-268.082
-252.887
-236.2
-218.007
-198.319
-177.155
-154.547
-130.555
-105.236
-78.6952
-51.0274
-22.3765
7.13051
37.327
68.3322
99.3254
130.338
161.172
191.635
221.477
250.437
278.268
304.748
329.677
352.856
374.185
393.496
410.467
425.419
-322.959
-328.28
-332.589
-335.891
-338.197
-339.511
-339.85
-339.111
-337.331
-334.511
-330.64
-325.714
-319.712
-312.626
-304.427
-295.105
-284.642
-273.005
-260.171
-246.122
-230.827
-214.286
-196.47
-177.386
-157.024
-135.407
-112.547
-88.4978
-63.314
-37.0972
-9.96572
17.9879
46.7164
75.7005
104.861
134.047
162.988
191.493
219.284
246.153
271.816
296.057
318.608
339.262
357.795
374.022
387.771
398.894
407.276
412.823
415.479
415.213
412.041
405.999
397.121
385.529
371.341
354.705
335.799
314.807
291.952
267.445
241.538
214.467
186.489
157.847
128.788
99.5448
70.3424
41.3823
12.9763
-14.9324
-42.0851
-68.3456
-93.6077
-117.778
-140.788
-162.581
-183.122
-202.387
-220.365
-237.054
-252.46
-266.591
-279.459
-291.08
-301.469
-310.645
-318.625
-325.43
-331.084
-335.605
-339.015
-341.335
-342.568
-342.715
-341.917
-340.035
-337.07
-333.015
-327.851
-321.562
-314.123
-305.513
-295.701
-284.664
-272.377
-258.829
-243.997
-227.876
-210.465
-191.766
-171.803
-150.588
-128.17
-104.583
-79.9051
-54.1979
-27.5777
-0.137736
28.0461
56.8286
85.8613
114.932
143.89
172.539
200.659
227.979
254.254
279.244
302.724
324.467
344.263
361.918
377.259
390.136
400.419
408.007
412.822
414.807
414.009
410.399
403.986
394.809
382.963
368.555
351.718
332.612
311.417
288.338
263.598
237.434
210.095
181.838
152.922
123.6
94.1169
64.7058
35.5641
6.64585
-21.4123
-48.6385
-74.9162
-100.137
-124.216
-147.081
-168.682
-188.984
-207.971
-225.639
-242
-257.067
-270.846
-283.382
-294.706
-304.831
-313.812
-321.677
-328.448
-334.165
-338.844
-342.517
-345.176
-346.857
-347.534
-347.22
-345.894
-343.528
-340.097
-335.549
-329.846
-322.929
-314.751
-305.259
-294.404
-282.142
-268.432
-253.245
-236.565
-218.377
-198.689
-177.524
-154.909
-130.907
-105.574
-79.0139
-51.3224
-22.6423
6.89921
37.1321
68.1865
99.2258
130.291
161.18
191.701
221.603
250.624
278.513
305.05
330.029
353.249
374.609
393.91
410.888
425.676
-323.245
-328.559
-332.863
-336.161
-338.463
-339.777
-340.118
-339.382
-337.605
-334.789
-330.924
-326.005
-320.012
-312.936
-304.748
-295.438
-284.987
-273.362
-260.538
-246.5
-231.215
-214.683
-196.875
-177.798
-157.441
-135.826
-112.963
-88.9063
-63.7079
-37.4689
-10.3056
17.685
46.4684
75.5073
104.726
133.973
162.98
191.555
219.42
246.366
272.108
296.428
319.056
339.783
358.383
374.671
388.474
399.642
408.058
413.628
416.294
416.028
412.839
406.77
397.859
386.221
371.979
355.281
336.307
315.242
292.311
267.726
241.741
214.594
186.541
157.829
128.705
99.402
70.1475
41.1442
12.6842
-15.2551
-42.4343
-68.7163
-93.9949
-118.177
-141.194
-162.99
-183.53
-202.791
-220.763
-237.446
-252.844
-266.967
-279.827
-291.44
-301.821
-310.988
-318.961
-325.758
-331.405
-335.92
-339.325
-341.641
-342.869
-343.013
-342.219
-340.339
-337.378
-333.329
-328.171
-321.891
-314.461
-305.86
-296.058
-285.03
-272.753
-259.213
-244.389
-228.274
-210.868
-192.172
-172.21
-150.993
-128.57
-104.974
-80.2826
-54.5568
-27.9115
-0.436753
27.7747
56.6089
85.693
114.82
143.841
172.558
200.751
228.146
254.496
279.563
303.118
324.933
344.797
362.514
377.911
390.834
401.156
408.772
413.605
415.594
414.803
411.179
404.74
395.531
383.642
369.183
352.289
333.118
311.853
288.699
263.881
237.638
210.221
181.888
152.899
123.509
93.9634
64.4958
35.303
6.35164
-21.743
-48.9983
-75.2984
-100.536
-124.626
-147.497
-169.099
-189.399
-208.381
-226.041
-242.392
-257.448
-271.215
-283.739
-295.052
-305.165
-314.134
-321.988
-328.75
-334.459
-339.132
-342.8
-345.456
-347.136
-347.811
-347.508
-346.187
-343.831
-340.412
-335.879
-330.19
-323.29
-315.129
-305.654
-294.814
-282.566
-268.87
-253.694
-237.022
-218.839
-199.152
-177.984
-155.363
-131.348
-105.996
-79.4131
-51.6917
-22.9752
6.60942
36.8884
68.0029
99.1011
130.231
161.189
191.782
221.761
250.856
278.819
305.426
330.469
353.741
375.139
394.431
411.434
426.072
-323.588
-328.894
-333.191
-336.485
-338.783
-340.095
-340.439
-339.705
-337.932
-335.122
-331.265
-326.355
-320.373
-313.309
-305.135
-295.838
-285.401
-273.789
-260.979
-246.953
-231.68
-215.16
-197.362
-178.293
-157.942
-136.33
-113.464
-89.3975
-64.1816
-37.9165
-10.7157
17.3209
46.1703
75.2748
104.563
133.884
162.969
191.629
219.583
246.622
272.458
296.873
319.593
340.408
359.09
375.452
389.319
400.54
408.997
414.596
417.273
417.006
413.799
407.698
398.745
387.053
372.745
355.973
336.917
315.764
292.741
268.063
241.984
214.744
186.603
157.806
128.604
99.2294
69.912
40.8555
12.3348
-15.6426
-42.854
-69.1619
-94.4601
-118.656
-141.681
-163.48
-184.019
-203.276
-221.242
-237.916
-253.305
-267.418
-280.269
-291.872
-302.243
-311.401
-319.364
-326.152
-331.79
-336.297
-339.696
-342.007
-343.231
-343.378
-342.581
-340.704
-337.747
-333.705
-328.556
-322.286
-314.866
-306.277
-296.486
-285.47
-273.205
-259.675
-244.859
-228.752
-211.352
-192.659
-172.698
-151.479
-129.051
-105.444
-80.7365
-54.9885
-28.3137
-0.799984
27.4515
56.3446
85.4902
114.685
143.781
172.581
200.86
228.345
254.787
279.945
303.59
325.492
345.437
363.229
378.693
391.673
402.041
409.692
414.546
416.543
415.756
412.115
405.646
396.397
384.458
369.939
352.974
333.725
312.375
289.131
264.22
237.882
210.371
181.947
152.871
123.399
93.7784
64.2425
34.9891
5.99738
-22.141
-49.4309
-75.7578
-101.015
-125.118
-147.997
-169.601
-189.898
-208.873
-226.523
-242.862
-257.905
-271.659
-284.167
-295.466
-305.566
-314.52
-322.361
-329.111
-334.811
-339.478
-343.139
-345.792
-347.469
-348.145
-347.852
-346.539
-344.195
-340.79
-336.273
-330.604
-323.723
-315.583
-306.127
-295.306
-283.076
-269.395
-254.233
-237.571
-219.394
-199.709
-178.538
-155.907
-131.878
-106.505
-79.8931
-52.1357
-23.3757
6.26055
36.5956
67.7812
98.951
130.159
161.199
191.88
221.95
251.135
279.187
305.879
330.997
354.333
375.776
395.06
412.097
426.604
-323.987
-329.284
-333.574
-336.862
-339.156
-340.467
-340.813
-340.082
-338.314
-335.51
-331.662
-326.763
-320.793
-313.744
-305.585
-296.304
-285.884
-274.288
-261.494
-247.483
-232.224
-215.716
-197.93
-178.872
-158.528
-136.918
-114.05
-89.972
-64.7357
-38.4404
-11.1969
16.8948
45.8217
75.0026
104.371
133.779
162.955
191.713
219.771
246.919
272.866
297.392
320.219
341.138
359.914
376.363
390.305
401.589
410.095
415.725
418.417
418.148
414.92
408.783
399.781
388.024
373.64
356.781
337.628
316.373
293.244
268.456
242.268
214.92
186.674
157.778
128.484
99.0265
69.6354
40.5156
11.9273
-16.0955
-43.3446
-69.6828
-95.0039
-119.216
-142.25
-164.053
-184.59
-203.842
-221.8
-238.464
-253.843
-267.945
-280.784
-292.376
-302.735
-311.882
-319.834
-326.611
-332.239
-336.737
-340.129
-342.433
-343.654
-343.801
-343.004
-341.13
-338.179
-334.144
-329.004
-322.746
-315.339
-306.763
-296.986
-285.983
-273.732
-260.213
-245.408
-229.31
-211.917
-193.228
-173.269
-152.047
-129.613
-105.993
-81.2673
-55.4933
-28.7845
-1.22813
27.0756
56.0354
85.2521
114.526
143.71
172.607
200.987
228.576
255.125
280.391
304.142
326.144
346.185
364.064
379.606
392.652
403.075
410.766
415.646
417.656
416.868
413.208
406.704
397.409
385.411
370.821
353.774
334.434
312.985
289.636
264.616
238.167
210.546
182.015
152.836
123.269
93.5612
63.9454
34.6221
5.58222
-22.6068
-49.937
-76.2949
-101.575
-125.694
-148.581
-170.187
-190.48
-209.447
-227.085
-243.411
-258.439
-272.176
-284.668
-295.95
-306.033
-314.971
-322.796
-329.532
-335.222
-339.88
-343.533
-346.183
-347.859
-348.536
-348.253
-346.949
-344.618
-341.231
-336.734
-331.086
-324.229
-316.112
-306.68
-295.881
-283.671
-270.009
-254.862
-238.213
-220.042
-200.359
-179.184
-156.544
-132.497
-107.099
-80.4544
-52.6549
-23.8444
5.85179
36.2535
67.5209
98.7749
130.073
161.211
191.994
222.169
251.46
279.615
306.406
331.615
355.025
376.521
395.801
412.866
427.284
-324.444
-329.73
-334.011
-337.292
-339.582
-340.892
-341.239
-340.512
-338.749
-335.953
-332.115
-327.228
-321.273
-314.241
-306.1
-296.838
-286.436
-274.859
-262.082
-248.088
-232.845
-216.353
-198.58
-179.533
-159.197
-137.592
-114.72
-90.6304
-65.3709
-39.0413
-11.7501
16.4056
45.4223
74.6904
104.151
133.657
162.938
191.809
219.985
247.258
273.332
297.985
320.936
341.972
360.858
377.405
391.433
402.789
411.35
417.018
419.726
419.454
416.204
410.025
400.966
389.136
374.664
357.704
338.442
317.07
293.817
268.905
242.59
215.119
186.754
157.745
128.346
98.7925
69.3168
40.1239
11.4613
-16.6142
-43.9067
-70.2795
-95.6266
-119.856
-142.901
-164.708
-185.244
-204.489
-222.438
-239.091
-254.457
-268.547
-281.373
-292.952
-303.299
-312.433
-320.372
-327.136
-332.752
-337.24
-340.623
-342.92
-344.138
-344.283
-343.487
-341.617
-338.671
-334.645
-329.517
-323.272
-315.879
-307.319
-297.558
-286.571
-274.334
-260.829
-246.036
-229.948
-212.563
-193.879
-173.922
-152.698
-130.256
-106.622
-81.8754
-56.0716
-29.3241
-1.72144
26.6459
55.6805
84.9781
114.342
143.627
172.635
201.131
228.84
255.512
280.901
304.771
326.89
347.04
365.02
380.65
393.773
404.258
411.995
416.905
418.93
418.139
414.458
407.915
398.567
386.501
371.829
354.689
335.244
313.682
290.213
265.068
238.492
210.745
182.091
152.795
123.119
93.3111
63.6041
34.2015
5.10519
-23.1411
-50.5171
-76.9103
-102.217
-126.353
-149.249
-170.858
-191.147
-210.104
-227.729
-244.038
-259.049
-272.768
-285.24
-296.503
-306.567
-315.486
-323.293
-330.014
-335.691
-340.339
-343.984
-346.63
-348.304
-348.984
-348.709
-347.417
-345.101
-341.734
-337.26
-331.638
-324.807
-316.716
-307.311
-296.538
-284.352
-270.711
-255.582
-238.946
-220.783
-201.103
-179.925
-157.273
-133.207
-107.78
-81.0975
-53.25
-24.382
5.3827
35.8613
67.2219
98.5722
129.974
161.223
192.123
222.419
251.831
280.105
307.01
332.321
355.818
377.374
396.662
413.736
428.097
-324.957
-330.231
-334.503
-337.776
-340.061
-341.369
-341.718
-340.995
-339.239
-336.452
-332.625
-327.752
-321.813
-314.8
-306.679
-297.438
-287.057
-275.501
-262.744
-248.769
-233.545
-217.069
-199.311
-180.277
-159.952
-138.352
-115.477
-91.3732
-66.088
-39.7201
-12.3758
15.852
44.9711
74.3375
103.901
133.519
162.917
191.914
220.224
247.637
273.855
298.651
321.742
342.911
361.92
378.578
392.704
404.141
412.765
418.474
421.201
420.927
417.65
411.425
402.301
390.389
375.817
358.744
339.358
317.853
294.462
269.408
242.953
215.342
186.842
157.705
128.187
98.5266
68.9555
39.6798
10.936
-17.1993
-44.5408
-70.9525
-96.3288
-120.579
-143.636
-165.446
-185.98
-205.219
-223.157
-239.797
-255.149
-269.224
-282.036
-293.6
-303.932
-313.052
-320.976
-327.726
-333.329
-337.805
-341.179
-343.468
-344.682
-344.824
-344.031
-342.163
-339.225
-335.209
-330.094
-323.863
-316.487
-307.944
-298.201
-287.232
-275.011
-261.522
-246.743
-230.667
-213.29
-194.613
-174.657
-153.43
-130.98
-107.332
-82.5614
-56.7243
-29.9329
-2.27717
26.1583
55.2788
84.6675
114.133
143.533
172.664
201.291
229.136
255.945
281.473
305.48
327.73
348.003
366.096
381.826
395.036
405.59
413.381
418.325
420.367
419.571
415.866
409.28
399.872
387.729
372.966
355.72
336.157
314.466
290.861
265.575
238.856
210.967
182.174
152.747
122.948
93.0273
63.2189
33.7259
4.56523
-23.7448
-51.1719
-77.6046
-102.94
-127.096
-150.003
-171.614
-191.898
-210.844
-228.453
-244.744
-259.735
-273.433
-285.883
-297.125
-307.167
-316.064
-323.852
-330.556
-336.219
-340.855
-344.49
-347.132
-348.804
-349.487
-349.221
-347.942
-345.644
-342.3
-337.852
-332.258
-325.457
-317.396
-308.021
-297.277
-285.118
-271.502
-256.393
-239.772
-221.618
-201.942
-180.759
-158.095
-134.007
-108.548
-81.823
-53.9216
-24.9891
4.8526
35.4181
66.8837
98.3423
129.861
161.235
192.267
222.698
252.248
280.656
307.689
333.116
356.712
378.338
397.649
414.727
429.032
-325.527
-330.787
-335.048
-338.313
-340.593
-341.899
-342.25
-341.532
-339.782
-337.005
-333.191
-328.333
-322.413
-315.421
-307.323
-298.105
-287.748
-276.214
-263.48
-249.526
-234.322
-217.865
-200.125
-181.106
-160.792
-139.197
-116.319
-92.2009
-66.8877
-40.4777
-13.0747
15.2318
44.4676
73.9435
103.622
133.362
162.891
192.029
220.487
248.057
274.435
299.392
322.638
343.955
363.101
379.884
394.119
405.646
414.339
420.095
422.843
422.566
419.261
412.985
403.787
391.782
377.1
359.901
340.376
318.723
295.178
269.967
243.353
215.588
186.937
157.659
128.009
98.228
68.5507
39.1824
10.3506
-17.8516
-45.2477
-71.7024
-97.1111
-121.383
-144.453
-166.268
-186.8
-206.03
-223.956
-240.582
-255.918
-269.977
-282.772
-294.32
-304.636
-313.739
-321.648
-328.382
-333.97
-338.432
-341.795
-344.077
-345.286
-345.429
-344.634
-342.771
-339.839
-335.835
-330.734
-324.52
-317.163
-308.639
-298.916
-287.966
-275.764
-262.293
-247.529
-231.466
-214.099
-195.428
-175.475
-154.246
-131.787
-108.122
-83.3258
-57.452
-30.6121
-2.895
25.6114
54.8294
84.3194
113.899
143.425
172.694
201.467
229.463
256.426
282.108
306.267
328.663
349.073
367.292
383.135
396.441
407.073
414.922
419.905
421.964
421.165
417.432
410.799
401.323
389.096
374.23
356.866
337.172
315.338
291.582
266.138
239.26
211.211
182.265
152.691
122.755
92.709
62.789
33.1943
3.96143
-24.4186
-51.9022
-78.3785
-103.746
-127.923
-150.842
-172.455
-192.734
-211.667
-229.259
-245.53
-260.498
-274.173
-286.599
-297.816
-307.834
-316.707
-324.473
-331.157
-336.804
-341.427
-345.052
-347.689
-349.36
-350.046
-349.788
-348.524
-346.247
-342.927
-338.509
-332.946
-326.179
-318.152
-308.811
-298.099
-285.971
-272.381
-257.295
-240.691
-222.548
-202.875
-181.688
-159.01
-134.898
-109.404
-82.6316
-54.6704
-25.6663
4.26037
34.9233
66.5057
98.0844
129.733
161.246
192.425
223.008
252.71
281.268
308.444
334.001
357.708
379.413
398.763
415.849
430.085
-326.153
-331.398
-335.647
-338.903
-341.177
-342.481
-342.834
-342.12
-340.379
-337.612
-333.812
-328.972
-323.072
-316.103
-308.031
-298.839
-288.507
-276.999
-264.289
-250.36
-235.178
-218.742
-201.02
-182.018
-161.717
-140.13
-117.249
-93.1144
-67.7709
-41.316
-13.8476
14.5436
43.9111
73.5078
103.312
133.187
162.86
192.152
220.774
248.517
275.071
300.206
323.623
345.104
364.402
381.322
395.677
407.304
416.075
421.882
424.653
424.372
421.037
414.703
405.426
393.318
378.513
361.175
341.497
319.681
295.965
270.58
243.793
215.856
187.04
157.604
127.808
97.8958
68.1012
38.6309
9.70404
-18.5719
-46.028
-72.53
-97.9741
-122.271
-145.354
-167.174
-187.702
-206.923
-224.835
-241.445
-256.764
-270.805
-283.583
-295.112
-305.411
-314.496
-322.387
-329.103
-334.675
-339.122
-342.473
-344.745
-345.95
-346.095
-345.298
-343.438
-340.514
-336.523
-331.437
-325.243
-317.906
-309.403
-299.702
-288.774
-276.594
-263.142
-248.395
-232.346
-214.99
-196.326
-176.376
-155.144
-132.676
-108.994
-84.1693
-58.2558
-31.3629
-3.57617
25.0047
54.3313
83.933
113.637
143.303
172.725
201.658
229.821
256.954
282.806
307.133
329.69
350.252
368.61
384.577
397.989
408.708
416.622
421.646
423.725
422.92
419.158
412.472
402.923
390.601
375.622
358.128
338.289
316.298
292.374
266.757
239.702
211.479
182.362
152.626
122.539
92.3555
62.3122
32.6066
3.29299
-25.1635
-52.7088
-79.2328
-104.635
-128.835
-151.767
-173.383
-193.655
-212.574
-230.146
-246.394
-261.338
-274.987
-287.386
-298.577
-308.568
-317.414
-325.156
-331.818
-337.447
-342.056
-345.67
-348.302
-349.97
-350.659
-350.411
-349.164
-346.909
-343.617
-339.231
-333.704
-326.973
-318.984
-309.68
-299.004
-286.909
-273.349
-258.289
-241.704
-223.573
-203.904
-182.712
-160.02
-135.881
-110.348
-83.5242
-55.4972
-26.4145
3.60495
34.376
66.087
97.7978
129.59
161.256
192.597
223.348
253.217
281.941
309.275
334.976
358.807
380.602
400.004
417.103
431.264
-326.836
-332.064
-336.299
-339.546
-341.813
-343.115
-343.47
-342.762
-341.029
-338.274
-334.489
-329.668
-323.791
-316.848
-308.803
-299.639
-289.336
-277.856
-265.173
-251.269
-236.112
-219.699
-201.998
-183.014
-162.728
-141.15
-118.267
-94.115
-68.7387
-42.2358
-14.6973
13.7864
43.3011
73.0296
102.971
132.993
162.822
192.282
221.084
249.017
275.764
301.093
324.699
346.359
365.823
382.892
397.38
409.116
417.972
423.835
426.633
426.348
422.978
416.583
407.217
394.996
380.057
362.565
342.72
320.725
296.823
271.248
244.27
216.145
187.148
157.54
127.586
97.5287
67.606
38.0242
8.9954
-19.3612
-46.8827
-73.4361
-98.9185
-123.241
-146.34
-168.165
-188.689
-207.899
-225.796
-242.388
-257.688
-271.709
-284.467
-295.977
-306.256
-315.322
-323.193
-329.89
-335.443
-339.874
-343.211
-345.474
-346.674
-346.821
-346.021
-344.164
-341.25
-337.272
-332.205
-326.031
-318.716
-310.237
-300.561
-289.657
-277.499
-264.068
-249.339
-233.306
-215.963
-197.307
-177.361
-156.127
-133.649
-109.947
-85.0929
-59.1362
-32.1861
-4.32307
24.3384
53.7835
83.5072
113.347
143.166
172.756
201.864
230.208
257.528
283.567
308.077
330.811
351.539
370.05
386.153
399.68
410.494
418.479
423.55
425.651
424.839
421.045
414.301
404.671
392.246
377.143
359.507
339.509
317.346
293.239
267.431
240.183
211.768
182.464
152.551
122.3
91.9656
61.7871
31.962
2.55887
-25.9806
-53.5926
-80.1682
-105.609
-129.834
-152.778
-174.397
-194.661
-213.565
-231.115
-247.337
-262.255
-275.875
-288.245
-299.407
-309.368
-318.185
-325.9
-332.538
-338.148
-342.742
-346.343
-348.969
-350.636
-351.328
-351.089
-349.86
-347.629
-344.369
-340.018
-334.53
-327.839
-319.892
-310.629
-299.992
-287.934
-274.407
-259.374
-242.811
-224.693
-205.029
-183.833
-161.124
-136.957
-111.383
-84.5016
-56.4032
-27.2343
2.88597
33.7747
65.6267
97.4815
129.431
161.264
192.783
223.717
253.77
282.676
310.182
336.042
360.01
381.907
401.372
418.491
432.575
-327.573
-332.784
-337.005
-340.241
-342.501
-343.8
-344.158
-343.456
-341.732
-338.99
-335.222
-330.422
-324.569
-317.654
-309.639
-300.507
-290.235
-278.784
-266.131
-252.255
-237.125
-220.737
-203.058
-184.094
-163.825
-142.258
-119.373
-95.2035
-69.792
-43.2384
-15.6259
12.9587
42.6373
72.5085
102.598
132.779
162.777
192.419
221.416
249.555
276.513
302.053
325.864
347.719
367.364
384.597
399.227
411.084
420.032
425.957
428.783
428.493
425.086
418.624
409.161
396.818
381.732
364.074
344.046
321.856
297.752
271.97
244.784
216.456
187.261
157.467
127.34
97.1256
67.064
37.3614
8.22353
-20.2203
-47.8126
-74.4215
-99.9451
-124.296
-147.41
-169.24
-189.759
-208.957
-226.837
-243.41
-258.688
-272.688
-285.424
-296.914
-307.171
-316.216
-324.066
-330.742
-336.275
-340.688
-344.01
-346.263
-347.458
-347.601
-346.803
-344.951
-342.047
-338.084
-333.035
-326.884
-319.593
-311.141
-301.491
-290.613
-278.48
-265.073
-250.364
-234.348
-217.018
-198.372
-178.43
-157.193
-134.706
-110.984
-86.0974
-60.0943
-33.0823
-5.14037
23.6141
53.1854
83.041
113.028
143.012
172.785
202.083
230.626
258.148
284.39
309.099
332.026
352.935
371.612
387.862
401.516
412.433
420.495
425.617
427.741
426.922
423.092
416.286
406.568
394.031
378.794
361.003
340.832
318.481
294.175
268.161
240.702
212.077
182.571
152.466
122.035
91.538
61.2126
31.2598
1.75781
-26.8709
-54.5548
-81.1858
-106.667
-130.919
-153.878
-175.499
-195.754
-214.641
-232.166
-248.36
-263.248
-276.838
-289.175
-300.306
-310.235
-319.019
-326.706
-333.317
-338.906
-343.483
-347.072
-349.69
-351.355
-352.05
-351.822
-350.612
-348.409
-345.182
-340.87
-335.424
-328.778
-320.875
-311.657
-301.063
-289.046
-275.555
-260.552
-244.012
-225.909
-206.251
-185.05
-162.324
-138.126
-112.507
-85.5651
-57.3892
-28.1267
2.10266
33.1185
65.1236
97.1346
129.254
161.27
192.982
224.115
254.368
283.471
311.166
337.2
361.317
383.327
402.868
420.013
434.025
-328.367
-333.558
-337.763
-340.988
-343.241
-344.537
-344.897
-344.201
-342.488
-339.76
-336.01
-331.232
-325.407
-318.522
-310.54
-301.441
-291.202
-279.785
-267.163
-253.318
-238.217
-221.856
-204.202
-185.26
-165.009
-143.455
-120.57
-96.3808
-70.9321
-44.3252
-16.6355
12.0579
41.9194
71.9436
102.192
132.544
162.723
192.562
221.768
250.131
277.317
303.087
327.12
349.185
369.025
386.435
401.221
413.207
422.256
428.247
431.104
430.81
427.364
420.828
411.261
398.783
383.539
365.701
345.475
323.075
298.751
272.745
245.335
216.786
187.378
157.383
127.068
96.6853
66.4739
36.6412
7.38722
-21.1506
-48.8189
-75.4871
-101.055
-125.436
-148.567
-170.401
-190.914
-210.099
-227.96
-244.511
-259.766
-273.743
-286.456
-297.923
-308.158
-317.18
-325.006
-331.66
-337.171
-341.563
-344.87
-347.111
-348.3
-348.448
-347.645
-345.797
-342.903
-338.956
-333.929
-327.802
-320.538
-312.114
-302.493
-291.643
-279.537
-266.155
-251.469
-235.471
-218.156
-199.52
-179.583
-158.345
-135.847
-112.105
-87.1837
-61.1312
-34.0528
-6.02815
22.8297
52.5356
82.5332
112.679
142.842
172.812
202.316
231.072
258.813
285.275
310.201
333.335
354.44
373.296
389.707
403.498
414.525
422.672
427.848
429.997
429.171
425.302
418.428
408.616
395.957
380.574
362.616
342.259
319.705
295.183
268.945
241.258
212.408
182.682
152.368
121.744
91.0714
60.589
30.497
0.888349
-27.8357
-55.5963
-82.2864
-107.811
-132.091
-155.065
-176.688
-196.934
-215.801
-233.299
-249.462
-264.318
-277.875
-290.178
-301.274
-311.168
-319.918
-327.572
-334.156
-339.722
-344.28
-347.855
-350.466
-352.129
-352.827
-352.61
-351.42
-349.246
-346.057
-341.788
-336.388
-329.789
-321.935
-312.765
-302.218
-290.245
-276.792
-261.823
-245.308
-227.221
-207.57
-186.364
-163.621
-139.391
-113.723
-86.7157
-58.4562
-29.0927
1.25408
32.4061
64.5765
96.7559
129.06
161.271
193.192
224.541
255.011
284.328
312.227
338.448
362.729
384.866
404.493
421.65
435.619
-329.215
-334.386
-338.574
-341.787
-344.032
-345.325
-345.688
-344.999
-343.296
-340.583
-336.853
-332.1
-326.304
-319.452
-311.506
-302.443
-292.24
-280.857
-268.27
-254.457
-239.387
-223.055
-205.428
-186.51
-166.28
-144.741
-121.857
-97.6478
-72.1597
-45.4984
-17.727
11.0802
41.1468
71.3343
101.753
132.286
162.659
192.709
222.14
250.743
278.176
304.194
328.465
350.758
370.808
388.408
403.362
415.488
424.646
430.709
433.599
433.3
429.81
423.196
413.515
400.894
385.479
367.446
347.008
324.38
299.82
273.573
245.921
217.135
187.498
157.286
126.771
96.2063