/*--------------------------------*- C++ -*----------------------------------*\
| =========                 |                                                 |
| \\      /  F ield         | OpenFOAM: The Open Source CFD Toolbox           |
|  \\    /   O peration     | Version:  3.0.1                                 |
|   \\  /    A nd           | Web:      www.OpenFOAM.org                      |
|    \\/     M anipulation  |                                                 |
\*---------------------------------------------------------------------------*/
FoamFile
{
    version     2.0;
    format      ascii;
    class       surfaceScalarField;
    location    "60.4";
    object      alphaPhi;
}
// * * * * * * * * * * * * * * * * * * * * * * * * * * * * * * * * * * * * * //

dimensions      [0 3 -1 0 0 0 0];

internalField   nonuniform List<scalar> 
42423
(
0.000128977
1.76406e-05
0.000111037
1.79402e-05
9.26694e-05
1.83675e-05
7.40487e-05
1.86206e-05
5.55866e-05
1.84622e-05
3.72648e-05
1.83218e-05
1.93938e-05
1.7871e-05
2.13302e-06
1.72608e-05
-1.46057e-05
1.67387e-05
-3.04704e-05
1.58647e-05
-4.54451e-05
1.49746e-05
-5.94573e-05
1.40122e-05
-7.24731e-05
1.30159e-05
-8.44975e-05
1.20244e-05
-9.55255e-05
1.1028e-05
-0.000105573
1.00473e-05
-0.000114668
9.09473e-06
-0.000122816
8.14844e-06
-0.000130061
7.24514e-06
-0.000136432
6.37112e-06
-0.000141952
5.51999e-06
-0.000146667
4.71497e-06
-0.000150614
3.94681e-06
-0.000153806
3.1921e-06
-0.000156263
2.45699e-06
-0.000158008
1.74526e-06
-0.000159064
1.05584e-06
-0.000159485
4.20624e-07
-0.000159131
-3.53578e-07
-0.00015805
-1.08172e-06
-0.000156286
-1.76367e-06
-0.000153763
-2.52253e-06
-0.000150518
-3.24501e-06
-0.000146485
-4.0335e-06
-0.00014166
-4.82478e-06
-0.000136121
-5.53899e-06
-0.000129639
-6.48233e-06
-0.000122322
-7.31716e-06
-0.000114198
-8.12396e-06
-0.00010504
-9.1576e-06
-9.49855e-05
-1.00547e-05
-8.38125e-05
-1.1173e-05
-7.17035e-05
-1.2109e-05
-5.87201e-05
-1.29834e-05
-4.45631e-05
-1.41571e-05
-2.93937e-05
-1.51694e-05
-1.35331e-05
-1.58606e-05
3.31901e-06
-1.68522e-05
2.09547e-05
-1.76357e-05
3.90476e-05
-1.8093e-05
5.77381e-05
-1.86905e-05
7.66816e-05
-1.89436e-05
9.57874e-05
-1.91058e-05
0.000114902
-1.91142e-05
0.00013354
-1.86384e-05
0.000151623
-1.80834e-05
0.000168942
-1.73189e-05
0.000185046
-1.61043e-05
0.000199822
-1.47753e-05
0.000212964
-1.31428e-05
0.000224327
-1.13623e-05
0.000233731
-9.40442e-06
0.000240858
-7.12708e-06
0.000245717
-4.859e-06
0.000248216
-2.49939e-06
0.000248222
-5.78516e-09
0.000245793
2.42921e-06
0.000240827
4.96545e-06
0.00023354
7.28701e-06
0.000224012
9.52806e-06
0.000212432
1.15799e-05
0.000198958
1.34747e-05
0.000183821
1.51364e-05
0.000167278
1.65433e-05
0.000149629
1.76491e-05
0.000131092
1.85366e-05
0.000112018
1.90747e-05
9.2585e-05
1.94326e-05
7.30817e-05
1.95033e-05
5.37482e-05
1.93335e-05
3.47389e-05
1.90092e-05
1.63329e-05
1.84061e-05
-1.38199e-06
1.77149e-05
-1.83571e-05
1.69751e-05
-3.44287e-05
1.60715e-05
-4.94475e-05
1.50188e-05
-6.3451e-05
1.40034e-05
-7.63603e-05
1.29091e-05
-8.82172e-05
1.18568e-05
-9.90114e-05
1.0794e-05
-0.000108844
9.83234e-06
-0.000117723
8.87925e-06
-0.000125668
7.94469e-06
-0.000132694
7.02596e-06
-0.000138815
6.12065e-06
-0.000144067
5.25131e-06
-0.000148442
4.37476e-06
-0.000152002
3.56052e-06
-0.000154807
2.80474e-06
-0.000156803
1.99598e-06
-0.00015803
1.22682e-06
-0.000158608
5.78086e-07
-0.000158451
-1.56849e-07
-0.000157617
-8.34499e-07
-0.000156087
-1.52994e-06
-0.000153928
-2.15927e-06
-0.000151071
-2.8569e-06
-0.000147539
-3.5317e-06
-0.000143294
-4.24519e-06
-0.000138407
-4.88703e-06
-0.000132663
-5.74449e-06
-0.00012627
-6.39271e-06
-0.000119033
-7.23745e-06
-0.000111007
-8.02566e-06
-0.00010216
-8.84736e-06
-9.24706e-05
-9.68923e-06
-8.19834e-05
-1.04872e-05
-7.06443e-05
-1.13392e-05
-5.85473e-05
-1.20971e-05
-4.56608e-05
-1.28865e-05
-3.20163e-05
-1.36446e-05
-1.76898e-05
-1.43266e-05
-2.71234e-06
-1.49775e-05
1.28604e-05
-1.55728e-05
2.89542e-05
-1.60938e-05
4.54539e-05
-1.64999e-05
6.22757e-05
-1.68219e-05
7.92507e-05
-1.69751e-05
9.62451e-05
-1.69944e-05
0.000113069
-1.68243e-05
0.000129539
-1.64703e-05
0.000145422
-1.5883e-05
0.000160481
-1.50588e-05
0.000174497
-1.40158e-05
0.000187116
-1.26192e-05
0.000198191
-1.10748e-05
0.000207433
-9.24187e-06
0.000214648
-7.21503e-06
0.000219643
-4.99584e-06
0.000222309
-2.66596e-06
0.000222587
-2.77244e-07
0.000220402
2.18402e-06
0.000215717
4.68563e-06
0.000208573
7.14377e-06
0.000199161
9.4119e-06
0.00018763
1.15312e-05
0.000174176
1.3454e-05
0.000158951
1.52243e-05
0.00014227
1.66812e-05
0.000124377
1.78935e-05
0.000105586
1.87903e-05
8.61667e-05
1.94194e-05
6.64056e-05
1.97611e-05
4.65846e-05
1.9821e-05
2.69364e-05
1.96482e-05
7.76263e-06
1.91738e-05
-1.07651e-05
1.85278e-05
-2.84397e-05
1.76745e-05
-4.51556e-05
1.6716e-05
-6.07971e-05
1.56415e-05
-7.52948e-05
1.44976e-05
-8.86123e-05
1.33175e-05
-0.000100763
1.21507e-05
-0.00011169
1.09271e-05
-0.000121471
9.78087e-06
-0.000130197
8.72652e-06
-0.000137815
7.61718e-06
-0.000144448
6.63302e-06
-0.000150144
5.69611e-06
-0.000154953
4.80929e-06
-0.000159053
4.10035e-06
-0.00016232
3.26683e-06
-0.000164899
2.57886e-06
-0.000166793
1.89372e-06
-0.000168115
1.32268e-06
-0.000168815
7.00105e-07
-0.000168956
1.40463e-07
-0.000168531
-4.25338e-07
-0.000167538
-9.92149e-07
-0.000165988
-1.55036e-06
-0.000163972
-2.0164e-06
-0.000161396
-2.57557e-06
-0.000158303
-3.09279e-06
-0.000154664
-3.63891e-06
-0.000150494
-4.17008e-06
-0.000145764
-4.73055e-06
-0.000140509
-5.25494e-06
-0.000134679
-5.82938e-06
-0.000128155
-6.52438e-06
-0.000120969
-7.18601e-06
-0.000112964
-8.00491e-06
-0.0001042
-8.76473e-06
-9.45828e-05
-9.61677e-06
-8.41216e-05
-1.04613e-05
-7.28806e-05
-1.1241e-05
-6.08201e-05
-1.20606e-05
-4.79295e-05
-1.28907e-05
-3.42099e-05
-1.37197e-05
-1.96595e-05
-1.45504e-05
-4.37626e-06
-1.52834e-05
1.15238e-05
-1.59001e-05
2.79958e-05
-1.64721e-05
4.48859e-05
-1.68902e-05
6.19456e-05
-1.70598e-05
7.90507e-05
-1.71052e-05
9.59374e-05
-1.68868e-05
0.000112365
-1.6428e-05
0.000128041
-1.56756e-05
0.000142704
-1.46637e-05
0.000156033
-1.33285e-05
0.000167781
-1.17477e-05
0.000177766
-9.98547e-06
0.000185726
-7.96034e-06
0.000191568
-5.84189e-06
0.00019519
-3.62234e-06
0.000196381
-1.19028e-06
0.000195226
1.15424e-06
0.000191592
3.63437e-06
0.000185527
6.06462e-06
0.000177173
8.35368e-06
0.000166632
1.05415e-05
0.000154118
1.25137e-05
0.000139906
1.42117e-05
0.000124218
1.56879e-05
0.000107396
1.68226e-05
8.97237e-05
1.76721e-05
7.15144e-05
1.82093e-05
5.30678e-05
1.84466e-05
3.46355e-05
1.84323e-05
1.64853e-05
1.81502e-05
-1.2254e-06
1.77107e-05
-1.83379e-05
1.71124e-05
-3.46504e-05
1.63126e-05
-5.00941e-05
1.54437e-05
-6.46008e-05
1.45067e-05
-7.81198e-05
1.3519e-05
-9.06647e-05
1.25449e-05
-0.000102218
1.15537e-05
-0.000112784
1.05654e-05
-0.000122353
9.56901e-06
-0.000130932
8.57897e-06
-0.000138573
7.64091e-06
-0.000145378
6.80564e-06
-0.000151366
5.98817e-06
-0.00015666
5.29339e-06
-0.000161243
4.58361e-06
-0.000165211
3.96797e-06
-0.000168571
3.35989e-06
-0.000171366
2.79512e-06
-0.000173584
2.21797e-06
-0.000175245
1.66126e-06
-0.000176361
1.11546e-06
-0.000176909
5.48389e-07
-0.000176932
2.32273e-08
-0.000176409
-5.23077e-07
-0.000175414
-9.94429e-07
-0.000173925
-1.48901e-06
-0.000171957
-1.96769e-06
-0.000169451
-2.50575e-06
-0.000166385
-3.06604e-06
-0.000162673
-3.71246e-06
-0.000158329
-4.34395e-06
-0.00015322
-5.10866e-06
-0.000147449
-5.77046e-06
-0.000140926
-6.52314e-06
-0.000133583
-7.34247e-06
-0.000125506
-8.07711e-06
-0.000116579
-8.92703e-06
-0.00010678
-9.7986e-06
-9.60623e-05
-1.07177e-05
-8.43953e-05
-1.1667e-05
-7.19339e-05
-1.24614e-05
-5.85326e-05
-1.34013e-05
-4.43439e-05
-1.41888e-05
-2.94393e-05
-1.49046e-05
-1.38293e-05
-1.561e-05
2.45099e-06
-1.62804e-05
1.95098e-05
-1.70589e-05
3.71136e-05
-1.76039e-05
5.52574e-05
-1.81438e-05
7.36648e-05
-1.84074e-05
9.23449e-05
-1.86802e-05
0.000110963
-1.86181e-05
0.000129145
-1.81825e-05
0.00014643
-1.72843e-05
0.000162328
-1.58988e-05
0.000176273
-1.39447e-05
0.000188009
-1.17358e-05
0.000197126
-9.11726e-06
0.000203522
-6.39632e-06
0.00020694
-3.41731e-06
0.00020723
-2.9007e-07
0.000205118
2.11188e-06
0.000200244
4.87341e-06
0.000192599
7.64552e-06
0.000182492
1.01064e-05
0.000170069
1.24227e-05
0.000155635
1.44348e-05
0.000139613
1.60213e-05
0.000122294
1.73194e-05
0.000104128
1.81656e-05
8.53303e-05
1.87979e-05
6.62062e-05
1.91241e-05
4.7096e-05
1.91103e-05
2.81996e-05
1.88964e-05
9.72506e-06
1.84745e-05
-8.15007e-06
1.78751e-05
-2.52587e-05
1.71087e-05
-4.14763e-05
1.62175e-05
-5.68185e-05
1.53422e-05
-7.12201e-05
1.44015e-05
-8.46188e-05
1.33987e-05
-9.70533e-05
1.24345e-05
-0.000108504
1.14502e-05
-0.000118957
1.04538e-05
-0.000128456
9.49852e-06
-0.000137008
8.55207e-06
-0.000144655
7.64665e-06
-0.000151409
6.75458e-06
-0.000157298
5.88829e-06
-0.000162348
5.05073e-06
-0.000166587
4.23833e-06
-0.000170043
3.45651e-06
-0.000172744
2.70125e-06
-0.000174693
1.94815e-06
-0.000175881
1.18875e-06
-0.000176349
4.67695e-07
-0.000176094
-2.5484e-07
-0.000175142
-9.51847e-07
-0.000173503
-1.63889e-06
-0.000171012
-2.49163e-06
-0.000167748
-3.26413e-06
-0.000163817
-3.93081e-06
-0.000158964
-4.85289e-06
-0.000153384
-5.5802e-06
-0.000146822
-6.5619e-06
-0.000139461
-7.3606e-06
-0.000131287
-8.174e-06
-0.000122062
-9.22523e-06
-0.000111993
-1.00688e-05
-0.000101076
-1.09171e-05
-8.90661e-05
-1.20104e-05
-7.62255e-05
-1.28406e-05
-6.23576e-05
-1.3868e-05
-4.75985e-05
-1.47591e-05
-3.20587e-05
-1.55399e-05
-1.55059e-05
-1.65529e-05
1.83086e-06
-1.73368e-05
1.96766e-05
-1.78458e-05
3.81821e-05
-1.85055e-05
5.69325e-05
-1.87505e-05
7.59535e-05
-1.90211e-05
9.48753e-05
-1.89219e-05
0.000113323
-1.8448e-05
0.000131254
-1.79306e-05
0.00014834
-1.70865e-05
-1.62161e-05
0.000129
3.52888e-05
0.000111052
3.5888e-05
9.26767e-05
3.67427e-05
7.40483e-05
3.7249e-05
5.55781e-05
3.69324e-05
3.72474e-05
3.66525e-05
1.93686e-05
3.57498e-05
2.1004e-06
3.45289e-05
-1.4638e-05
3.34771e-05
-3.05056e-05
3.17323e-05
-4.54845e-05
2.99534e-05
-5.95005e-05
2.80283e-05
-7.25172e-05
2.60325e-05
-8.45418e-05
2.4049e-05
-9.55716e-05
2.20578e-05
-0.000105622
2.00972e-05
-0.000114715
1.81877e-05
-0.000122862
1.62957e-05
-0.000130108
1.44914e-05
-0.000136477
1.27404e-05
-0.000141998
1.10403e-05
-0.000146715
9.43231e-06
-0.000150667
7.89855e-06
-0.000153856
6.38145e-06
-0.000156311
4.91142e-06
-0.000158054
3.48872e-06
-0.000159112
2.11378e-06
-0.000159527
8.35961e-07
-0.000159176
-7.0528e-07
-0.000158102
-2.15577e-06
-0.000156331
-3.53394e-06
-0.000153811
-5.04332e-06
-0.000150567
-6.48891e-06
-0.000146537
-8.06337e-06
-0.000141717
-9.64446e-06
-0.000136173
-1.10831e-05
-0.000129692
-1.29634e-05
-0.000122374
-1.46357e-05
-0.00011425
-1.62473e-05
-0.000105091
-1.83172e-05
-9.50366e-05
-2.01089e-05
-8.38705e-05
-2.23391e-05
-7.17501e-05
-2.42295e-05
-5.8772e-05
-2.59615e-05
-4.46126e-05
-2.83166e-05
-2.94391e-05
-3.03429e-05
-1.35709e-05
-3.17289e-05
3.27861e-06
-3.37017e-05
2.09188e-05
-3.5276e-05
3.90202e-05
-3.61944e-05
5.77187e-05
-3.73891e-05
7.66744e-05
-3.78993e-05
9.57912e-05
-3.82227e-05
0.000114922
-3.82447e-05
0.000133573
-3.72895e-05
0.000151673
-3.61833e-05
0.000169005
-3.46516e-05
0.000185124
-3.22233e-05
0.000199912
-2.95627e-05
0.000213065
-2.62962e-05
0.00022444
-2.27373e-05
0.000233861
-1.88254e-05
0.000240998
-1.42642e-05
0.000245847
-9.70802e-06
0.000248351
-5.00334e-06
0.00024835
-5.74819e-09
0.000245909
4.87039e-06
0.000240943
9.93212e-06
0.000233656
1.45734e-05
0.000224124
1.90606e-05
0.000212532
2.31715e-05
0.000199049
2.6958e-05
0.000183899
3.02863e-05
0.000167343
3.30986e-05
0.000149677
3.53159e-05
0.000131125
3.70881e-05
0.000112036
3.81643e-05
9.25879e-05
3.88802e-05
7.30732e-05
3.9018e-05
5.3733e-05
3.86738e-05
3.47163e-05
3.8026e-05
1.62988e-05
3.68236e-05
-1.42531e-06
3.5439e-05
-1.83957e-05
3.39454e-05
-3.44665e-05
3.21422e-05
-4.94877e-05
3.004e-05
-6.34932e-05
2.80088e-05
-7.63977e-05
2.58135e-05
-8.82518e-05
2.37108e-05
-9.90406e-05
2.15826e-05
-0.000108873
1.96641e-05
-0.000117757
1.77635e-05
-0.000125706
1.58939e-05
-0.000132739
1.4058e-05
-0.000138866
1.22479e-05
-0.000144118
1.05036e-05
-0.000148496
8.75256e-06
-0.000152044
7.10785e-06
-0.000154853
5.61347e-06
-0.000156856
3.99941e-06
-0.000158087
2.45758e-06
-0.000158661
1.15158e-06
-0.000158503
-3.14681e-07
-0.000157666
-1.67135e-06
-0.000156138
-3.05794e-06
-0.00015398
-4.31773e-06
-0.000151124
-5.71253e-06
-0.000147592
-7.06443e-06
-0.000143335
-8.50181e-06
-0.000138444
-9.77796e-06
-0.000132705
-1.14839e-05
-0.000126314
-1.27832e-05
-0.000119078
-1.44733e-05
-0.000111053
-1.60511e-05
-0.000102208
-1.76923e-05
-9.25174e-05
-1.938e-05
-8.20339e-05
-2.09708e-05
-7.07006e-05
-2.26725e-05
-5.85985e-05
-2.41992e-05
-4.57168e-05
-2.57683e-05
-3.20767e-05
-2.72848e-05
-1.77559e-05
-2.86475e-05
-2.77664e-06
-2.99568e-05
1.2794e-05
-3.11435e-05
2.8888e-05
-3.2188e-05
4.53894e-05
-3.30013e-05
6.22031e-05
-3.36357e-05
7.91776e-05
-3.39497e-05
9.61707e-05
-3.39877e-05
0.000113003
-3.36562e-05
0.000129473
-3.29404e-05
0.000145359
-3.17697e-05
0.000160418
-3.01182e-05
0.00017444
-2.80379e-05
0.000187065
-2.52437e-05
0.000198139
-2.21491e-05
0.000207375
-1.84776e-05
0.000214601
-1.44413e-05
0.000219626
-1.0021e-05
0.000222288
-5.32806e-06
0.000222571
-5.60516e-07
0.000220357
4.39854e-06
0.000215642
9.39973e-06
0.000208524
1.42619e-05
0.000199113
1.88229e-05
0.000187573
2.30719e-05
0.000174088
2.69381e-05
0.000158869
3.04435e-05
0.00014218
3.33708e-05
0.000124287
3.57863e-05
0.000105491
3.75859e-05
8.60623e-05
3.88482e-05
6.63056e-05
3.95178e-05
4.64944e-05
3.96322e-05
2.68193e-05
3.93233e-05
7.64114e-06
3.8352e-05
-1.0886e-05
3.70549e-05
-2.85707e-05
3.53592e-05
-4.52825e-05
3.34278e-05
-6.09265e-05
3.12855e-05
-7.54233e-05
2.89945e-05
-8.87128e-05
2.6607e-05
-0.000100883
2.43211e-05
-0.000111807
2.18509e-05
-0.000121583
1.95565e-05
-0.000130305
1.7449e-05
-0.000137922
1.52341e-05
-0.000144551
1.32616e-05
-0.000150239
1.13843e-05
-0.000155036
9.60614e-06
-0.000159136
8.20035e-06
-0.0001624
6.53081e-06
-0.000164962
5.14112e-06
-0.00016686
3.7916e-06
-0.000168183
2.6464e-06
-0.000168885
1.40188e-06
-0.000169013
2.68531e-07
-0.00016858
-8.58089e-07
-0.000167583
-1.98978e-06
-0.00016603
-3.10347e-06
-0.00016402
-4.02657e-06
-0.00016145
-5.14559e-06
-0.000158362
-6.18014e-06
-0.000154716
-7.28513e-06
-0.000150542
-8.34406e-06
-0.000145816
-9.45647e-06
-0.000140567
-1.05043e-05
-0.000134738
-1.16579e-05
-0.000128217
-1.30456e-05
-0.00012105
-1.43526e-05
-0.000113041
-1.60139e-05
-0.000104276
-1.75304e-05
-9.46649e-05
-1.92277e-05
-8.42127e-05
-2.09136e-05
-7.29741e-05
-2.24796e-05
-6.09175e-05
-2.41172e-05
-4.80323e-05
-2.5776e-05
-3.43237e-05
-2.74284e-05
-1.97795e-05
-2.90946e-05
-4.50876e-06
-3.05542e-05
1.14043e-05
-3.18133e-05
2.78812e-05
-3.29491e-05
4.47761e-05
-3.37852e-05
6.18411e-05
-3.41249e-05
7.89479e-05
-3.42122e-05
9.5835e-05
-3.37739e-05
0.000112272
-3.28652e-05
0.000127947
-3.13505e-05
0.000142624
-2.93411e-05
0.000155968
-2.66728e-05
0.000167726
-2.35059e-05
0.000177701
-1.99598e-05
0.000185676
-1.59359e-05
0.000191519
-1.16844e-05
0.000195105
-7.20927e-06
0.00019633
-2.41462e-06
0.000195207
2.27694e-06
0.000191573
7.26791e-06
0.000185486
1.21523e-05
0.00017713
1.67087e-05
0.00016661
2.10621e-05
0.000154067
2.50563e-05
0.00013983
2.84492e-05
0.000124137
3.13802e-05
0.000107305
3.36553e-05
8.9629e-05
3.53476e-05
7.1418e-05
3.64203e-05
5.2964e-05
3.69006e-05
3.45261e-05
3.68702e-05
1.63636e-05
3.63127e-05
-1.35454e-06
3.54288e-05
-1.84654e-05
3.42233e-05
-3.47748e-05
3.2622e-05
-5.02145e-05
3.08834e-05
-6.47177e-05
2.90099e-05
-7.82291e-05
2.70304e-05
-9.07746e-05
2.50904e-05
-0.000102325
2.31037e-05
-0.000112883
2.11235e-05
-0.000122455
1.91416e-05
-0.000131033
1.7157e-05
-0.000138676
1.52837e-05
-0.000145466
1.35959e-05
-0.000151431
1.19531e-05
-0.000156722
1.0584e-05
-0.000161307
9.16859e-06
-0.000165276
7.93783e-06
-0.000168635
6.7187e-06
-0.000171428
5.58769e-06
-0.000173645
4.4351e-06
-0.000175306
3.32248e-06
-0.000176423
2.23226e-06
-0.000176972
1.09743e-06
-0.000176996
4.74537e-08
-0.000176475
-1.04364e-06
-0.000175477
-1.99231e-06
-0.000173983
-2.98299e-06
-0.000172024
-3.92708e-06
-0.000169529
-4.99968e-06
-0.000166468
-6.12745e-06
-0.000162761
-7.4195e-06
-0.00015841
-8.69432e-06
-0.000153316
-1.02024e-05
-0.000147538
-1.15481e-05
-0.000141011
-1.30505e-05
-0.000133666
-1.46867e-05
-0.000125584
-1.61598e-05
-0.000116658
-1.78529e-05
-0.000106858
-1.95984e-05
-9.61408e-05
-2.14347e-05
-8.4464e-05
-2.33438e-05
-7.1997e-05
-2.49284e-05
-5.86e-05
-2.67983e-05
-4.43985e-05
-2.83903e-05
-2.94926e-05
-2.98106e-05
-1.38804e-05
-3.12222e-05
2.405e-06
-3.25659e-05
1.94709e-05
-3.41249e-05
3.70755e-05
-3.52086e-05
5.52207e-05
-3.62891e-05
7.36369e-05
-3.68237e-05
9.2326e-05
-3.73694e-05
0.000110957
-3.72493e-05
0.000129161
-3.63858e-05
0.000146474
-3.45975e-05
0.000162401
-3.18267e-05
0.000176376
-2.79194e-05
0.000188135
-2.34946e-05
0.000197265
-1.82474e-05
0.000203673
-1.28047e-05
0.000207115
-6.85898e-06
0.000207396
-5.7097e-07
0.000205265
4.24238e-06
0.000200387
9.75106e-06
0.000192733
1.52999e-05
0.000182614
2.02255e-05
0.000170176
2.48604e-05
0.000155726
2.88843e-05
0.00013969
3.20576e-05
0.000122355
3.46547e-05
0.000104174
3.63459e-05
8.53623e-05
3.76099e-05
6.62254e-05
3.82609e-05
4.71033e-05
3.82323e-05
2.81949e-05
3.78047e-05
9.70522e-06
3.69642e-05
-8.16759e-06
3.57479e-05
-2.52775e-05
3.42186e-05
-4.14965e-05
3.24366e-05
-5.68398e-05
3.06855e-05
-7.12425e-05
2.88042e-05
-8.46421e-05
2.67984e-05
-9.70752e-05
2.48676e-05
-0.000108522
2.28974e-05
-0.000118978
2.09089e-05
-0.00012848
1.90013e-05
-0.000137031
1.71025e-05
-0.000144675
1.52913e-05
-0.000151434
1.35132e-05
-0.000157325
1.17794e-05
-0.000162379
1.01048e-05
-0.000166618
8.47716e-06
-0.000170073
6.91132e-06
-0.000172769
5.39747e-06
-0.00017472
3.89894e-06
-0.00017592
2.38863e-06
-0.000176384
9.31883e-07
-0.000176133
-5.05646e-07
-0.00017518
-1.90467e-06
-0.000173543
-3.27618e-06
-0.000171057
-4.97816e-06
-0.000167791
-6.53e-06
-0.000163863
-7.8588e-06
-0.000159011
-9.70444e-06
-0.000153432
-1.11591e-05
-0.00014687
-1.31247e-05
-0.000139509
-1.47215e-05
-0.000131336
-1.63472e-05
-0.000122106
-1.84546e-05
-0.000112037
-2.01382e-05
-0.000101123
-2.18314e-05
-8.91064e-05
-2.40269e-05
-7.6268e-05
-2.56792e-05
-6.23931e-05
-2.7743e-05
-4.76367e-05
-2.95156e-05
-3.20931e-05
-3.10837e-05
-1.55414e-05
-3.31047e-05
1.80064e-06
-3.4679e-05
1.96448e-05
-3.56901e-05
3.81537e-05
-3.70146e-05
5.69128e-05
-3.75098e-05
7.59399e-05
-3.80484e-05
9.48672e-05
-3.78494e-05
0.000113326
-3.69065e-05
0.000131273
-3.58786e-05
0.000148382
-3.41949e-05
-3.24437e-05
0.000129042
5.29553e-05
0.000111077
5.38527e-05
9.26855e-05
5.51344e-05
7.40415e-05
5.58929e-05
5.55556e-05
5.54183e-05
3.72089e-05
5.49992e-05
1.93163e-05
5.36424e-05
2.0331e-06
5.18121e-05
-1.47099e-05
5.02202e-05
-3.05833e-05
4.76057e-05
-4.55666e-05
4.49367e-05
-5.95847e-05
4.20464e-05
-7.26039e-05
3.90517e-05
-8.46302e-05
3.60753e-05
-9.56606e-05
3.30883e-05
-0.000105713
3.01495e-05
-0.000114803
2.72773e-05
-0.000122949
2.44418e-05
-0.000130195
2.17381e-05
-0.000136558
1.91029e-05
-0.00014208
1.65621e-05
-0.000146793
1.41452e-05
-0.000150741
1.18464e-05
-0.00015393
9.57105e-06
-0.000156397
7.37866e-06
-0.000158136
5.22758e-06
-0.0001592
3.17727e-06
-0.000159594
1.2299e-06
-0.000159234
-1.0647e-06
-0.000158158
-3.23208e-06
-0.000156386
-5.30603e-06
-0.000153868
-7.56156e-06
-0.000150628
-9.72904e-06
-0.0001466
-1.20914e-05
-0.000141802
-1.44425e-05
-0.00013624
-1.66442e-05
-0.000129761
-1.94431e-05
-0.000122444
-2.19522e-05
-0.000114324
-2.43678e-05
-0.000105166
-2.74751e-05
-9.51138e-05
-3.01612e-05
-8.39671e-05
-3.34857e-05
-7.18242e-05
-3.63725e-05
-5.8855e-05
-3.89307e-05
-4.46922e-05
-4.24795e-05
-2.95129e-05
-4.55223e-05
-1.36336e-05
-4.76083e-05
3.21793e-06
-5.05533e-05
2.0865e-05
-5.29232e-05
3.89749e-05
-5.43044e-05
5.76864e-05
-5.61007e-05
7.66546e-05
-5.68676e-05
9.57942e-05
-5.73623e-05
0.00011495
-5.74001e-05
0.000133625
-5.59651e-05
0.000151757
-5.43157e-05
0.000169108
-5.20018e-05
0.000185254
-4.837e-05
0.000200048
-4.43568e-05
0.00021322
-3.94686e-05
0.00022461
-3.41273e-05
0.000234055
-2.82699e-05
0.000241236
-2.14451e-05
0.000246069
-1.45419e-05
0.000248575
-7.50898e-06
0.000248552
1.7595e-08
0.000246087
7.33521e-06
0.000241119
1.48999e-05
0.000233828
2.18637e-05
0.000224288
2.86014e-05
0.000212673
3.47858e-05
0.000199178
4.04536e-05
0.000184008
4.5456e-05
0.000167436
4.96705e-05
0.000149745
5.30069e-05
0.000131171
5.5662e-05
0.00011206
5.72756e-05
9.2591e-05
5.83491e-05
7.30587e-05
5.85503e-05
5.37009e-05
5.80316e-05
3.46675e-05
5.70594e-05
1.62372e-05
5.52539e-05
-1.49559e-06
5.31718e-05
-1.8465e-05
5.09148e-05
-3.45547e-05
4.8232e-05
-4.95799e-05
4.5065e-05
-6.35863e-05
4.20151e-05
-7.64925e-05
3.87195e-05
-8.83477e-05
3.55659e-05
-9.91461e-05
3.23808e-05
-0.000108983
2.95009e-05
-0.00011788
2.66607e-05
-0.000125833
2.38464e-05
-0.000132868
2.10929e-05
-0.000139001
1.83806e-05
-0.000144265
1.57668e-05
-0.000148673
1.31605e-05
-0.0001522
1.06354e-05
-0.000154988
8.40066e-06
-0.000157019
6.03025e-06
-0.000158288
3.72702e-06
-0.000158846
1.70951e-06
-0.000158695
-4.66183e-07
-0.000157864
-2.50194e-06
-0.000156327
-4.59537e-06
-0.000154173
-6.47179e-06
-0.000151316
-8.56936e-06
-0.000147783
-1.05971e-05
-0.000143519
-1.27659e-05
-0.000138622
-1.46749e-05
-0.000132938
-1.71685e-05
-0.000126509
-1.92119e-05
-0.000119275
-2.17071e-05
-0.000111241
-2.40861e-05
-0.000102395
-2.65381e-05
-9.26614e-05
-2.91135e-05
-8.22255e-05
-3.14067e-05
-7.0907e-05
-3.39911e-05
-5.87678e-05
-3.63386e-05
-4.59001e-05
-3.8636e-05
-3.22537e-05
-4.09313e-05
-1.79266e-05
-4.29746e-05
-2.9401e-06
-4.49434e-05
1.26425e-05
-4.67262e-05
2.8737e-05
-4.82825e-05
4.52497e-05
-4.95141e-05
6.20729e-05
-5.0459e-05
7.90621e-05
-5.09389e-05
9.607e-05
-5.09957e-05
0.00011292
-5.05067e-05
0.000129407
-4.94267e-05
0.000145314
-4.76774e-05
0.000160387
-4.51907e-05
0.000174402
-4.20529e-05
0.000187059
-3.79014e-05
0.00019815
-3.32396e-05
0.000207401
-2.77285e-05
0.000214639
-2.16801e-05
0.000219685
-1.50672e-05
0.000222352
-7.99473e-06
0.000222643
-8.52116e-07
0.00022039
6.65153e-06
0.000215673
1.41175e-05
0.000208552
2.13822e-05
0.000199134
2.82407e-05
0.000187573
3.46336e-05
0.00017406
4.04504e-05
0.00015884
4.56637e-05
0.000142118
5.00925e-05
0.000124201
5.37038e-05
0.000105377
5.64096e-05
8.59326e-05
5.82925e-05
6.61878e-05
5.92625e-05
4.63247e-05
5.94953e-05
2.66584e-05
5.89895e-05
7.44342e-06
5.7567e-05
-1.10927e-05
5.5591e-05
-2.87945e-05
5.30611e-05
-4.55138e-05
5.0147e-05
-6.11523e-05
4.6924e-05
-7.56556e-05
4.34978e-05
-8.89277e-05
3.98792e-05
-0.000101124
3.65169e-05
-0.000112047
3.27742e-05
-0.00012184
2.93502e-05
-0.000130536
2.61446e-05
-0.000138154
2.28526e-05
-0.000144788
1.98955e-05
-0.000150476
1.70723e-05
-0.0001553
1.44294e-05
-0.000159354
1.22549e-05
-0.00016261
9.78655e-06
-0.000165134
7.66503e-06
-0.000167105
5.76335e-06
-0.000168393
3.93382e-06
-0.000169095
2.10399e-06
-0.000169212
3.85909e-07
-0.000168779
-1.29176e-06
-0.000167771
-2.99745e-06
-0.00016622
-4.65452e-06
-0.000164225
-6.02172e-06
-0.000161654
-7.71619e-06
-0.000158567
-9.26719e-06
-0.000154912
-1.09405e-05
-0.000150739
-1.2517e-05
-0.000145954
-1.4241e-05
-0.000140756
-1.57027e-05
-0.000134932
-1.7482e-05
-0.000128417
-1.95603e-05
-0.00012128
-2.14901e-05
-0.000113285
-2.40093e-05
-0.000104439
-2.63762e-05
-9.48691e-05
-2.87975e-05
-8.44267e-05
-3.1356e-05
-7.31708e-05
-3.37356e-05
-6.11181e-05
-3.617e-05
-4.82349e-05
-3.86593e-05
-3.45287e-05
-4.11347e-05
-1.99887e-05
-4.36346e-05
-4.71763e-06
-4.58254e-05
1.12237e-05
-4.77547e-05
2.77135e-05
-4.94389e-05
4.46272e-05
-5.06991e-05
6.17199e-05
-5.12177e-05
7.885e-05
-5.13423e-05
9.57444e-05
-5.06684e-05
0.000112225
-4.93458e-05
0.000127885
-4.70105e-05
0.000142579
-4.4035e-05
0.000155959
-4.00536e-05
0.000167771
-3.53172e-05
0.000177719
-2.99078e-05
0.000185701
-2.39183e-05
0.000191549
-1.75327e-05
0.000195139
-1.0799e-05
0.00019637
-3.64647e-06
0.000195212
3.43503e-06
0.000191603
1.08767e-05
0.000185517
1.82389e-05
0.000177149
2.50761e-05
0.000166619
3.15918e-05
0.000154055
3.76211e-05
0.000139787
4.27166e-05
0.000124073
4.70947e-05
0.000107215
5.05128e-05
8.95213e-05
5.30412e-05
7.12934e-05
5.46481e-05
5.28207e-05
5.53733e-05
3.43683e-05
5.53226e-05
1.61843e-05
5.44967e-05
-1.56971e-06
5.31828e-05
-1.86672e-05
5.13208e-05
-3.49878e-05
4.89426e-05
-5.04285e-05
4.63241e-05
-6.49345e-05
4.35159e-05
-7.84558e-05
4.05517e-05
-9.10071e-05
3.76417e-05
-0.000102554
3.4651e-05
-0.000113098
3.16672e-05
-0.000122686
2.87291e-05
-0.000131261
2.57324e-05
-0.000138911
2.29341e-05
-0.000145683
2.03676e-05
-0.000151626
1.78964e-05
-0.000156922
1.58799e-05
-0.000161484
1.37303e-05
-0.00016547
1.19236e-05
-0.000168818
1.00668e-05
-0.000171625
8.39474e-06
-0.00017384
6.65052e-06
-0.000175505
4.98745e-06
-0.000176621
3.34844e-06
-0.000177171
1.64716e-06
-0.000177186
6.3225e-08
-0.000176656
-1.57354e-06
-0.000175649
-2.99948e-06
-0.000174166
-4.46622e-06
-0.000172205
-5.88747e-06
-0.000169712
-7.49282e-06
-0.000166639
-9.2005e-06
-0.000162949
-1.11092e-05
-0.000158587
-1.30558e-05
-0.000153498
-1.52917e-05
-0.000147694
-1.73513e-05
-0.000141154
-1.95905e-05
-0.000133806
-2.20341e-05
-0.000125712
-2.42544e-05
-0.000116781
-2.67834e-05
-0.000106979
-2.94002e-05
-9.6264e-05
-3.21498e-05
-8.45932e-05
-3.50145e-05
-7.21034e-05
-3.74182e-05
-5.87089e-05
-4.01928e-05
-4.44826e-05
-4.26166e-05
-2.95769e-05
-4.47163e-05
-1.39624e-05
-4.68368e-05
2.32477e-06
-4.88531e-05
1.93973e-05
-5.11975e-05
3.70097e-05
-5.2821e-05
5.51572e-05
-5.44366e-05
7.35815e-05
-5.52481e-05
9.22841e-05
-5.60721e-05
0.000110946
-5.59116e-05
0.000129184
-5.46231e-05
0.000146542
-5.19563e-05
0.00016252
-4.78046e-05
0.00017654
-4.19392e-05
0.000188345
-3.53003e-05
0.000197513
-2.7415e-05
0.000203944
-1.92357e-05
0.000207399
-1.03142e-05
0.000207647
-8.1907e-07
0.00020549
6.39923e-06
0.000200605
1.46364e-05
0.000192934
2.29708e-05
0.000182793
3.03667e-05
0.000170326
3.73273e-05
0.000155854
4.33555e-05
0.000139792
4.81198e-05
0.000122428
5.20184e-05
0.000104223
5.45514e-05
8.53872e-05
5.64455e-05
6.62286e-05
5.74194e-05
4.70886e-05
5.73723e-05
2.81607e-05
5.67326e-05
9.63434e-06
5.54905e-05
-8.22389e-06
5.36061e-05
-2.53395e-05
5.13342e-05
-4.15631e-05
4.86602e-05
-5.69091e-05
4.60315e-05
-7.13128e-05
4.32078e-05
-8.47121e-05
4.01977e-05
-9.71437e-05
3.72992e-05
-0.000108589
3.43426e-05
-0.00011904
3.13604e-05
-0.000128538
2.84985e-05
-0.000137084
2.56493e-05
-0.000144725
2.29323e-05
-0.000151478
2.0266e-05
-0.000157364
1.76656e-05
-0.000162422
1.51624e-05
-0.000166659
1.27138e-05
-0.000170112
1.03644e-05
-0.00017281
8.09598e-06
-0.000174765
5.8534e-06
-0.000175968
3.5914e-06
-0.000176435
1.39947e-06
-0.00017619
-7.50699e-07
-0.000175236
-2.8589e-06
-0.000173599
-4.91298e-06
-0.000171121
-7.45637e-06
-0.000167852
-9.79928e-06
-0.000163917
-1.17931e-05
-0.000159072
-1.45495e-05
-0.000153496
-1.67354e-05
-0.000146942
-1.96793e-05
-0.00013958
-2.20835e-05
-0.000131413
-2.45136e-05
-0.000122179
-2.7689e-05
-0.000112109
-3.02079e-05
-0.000101195
-3.27456e-05
-8.91778e-05
-3.60444e-05
-7.63395e-05
-3.85176e-05
-6.24584e-05
-4.16242e-05
-4.77059e-05
-4.42682e-05
-3.21565e-05
-4.66332e-05
-1.56021e-05
-4.96593e-05
1.7493e-06
-5.20305e-05
1.96e-05
-5.35409e-05
3.81155e-05
-5.55303e-05
5.68832e-05
-5.62777e-05
7.59272e-05
-5.70925e-05
9.48743e-05
-5.67967e-05
0.000113353
-5.53849e-05
0.000131325
-5.38515e-05
0.000148464
-5.13342e-05
-4.86941e-05
0.000129105
7.06492e-05
0.000111115
7.18432e-05
9.26985e-05
7.3551e-05
7.40312e-05
7.45602e-05
5.55217e-05
7.39277e-05
3.71528e-05
7.33681e-05
1.92397e-05
7.15555e-05
1.93321e-06
6.91186e-05
-1.4817e-05
6.69704e-05
-3.06995e-05
6.34882e-05
-4.56902e-05
5.99274e-05
-5.97134e-05
5.60696e-05
-7.27358e-05
5.20741e-05
-8.4764e-05
4.81034e-05
-9.57975e-05
4.41217e-05
-0.000105849
4.02015e-05
-0.000114935
3.63625e-05
-0.000123079
3.25859e-05
-0.000130325
2.89846e-05
-0.000136681
2.54585e-05
-0.000142205
2.2086e-05
-0.000146911
1.88521e-05
-0.000150859
1.57943e-05
-0.000154051
1.27627e-05
-0.000156522
9.84976e-06
-0.000158258
6.96379e-06
-0.000159316
4.23523e-06
-0.000159694
1.60774e-06
-0.000159322
-1.43715e-06
-0.000158243
-4.31062e-06
-0.000156467
-7.08187e-06
-0.000153954
-1.00751e-05
-0.000150725
-1.29582e-05
-0.000146693
-1.61228e-05
-0.000141921
-1.92145e-05
-0.000136341
-2.22251e-05
-0.000129864
-2.59201e-05
-0.000122551
-2.92649e-05
-0.000114434
-3.24849e-05
-0.000105279
-3.66296e-05
-9.523e-05
-4.02106e-05
-8.40919e-05
-4.46239e-05
-7.19365e-05
-4.85279e-05
-5.89798e-05
-5.18875e-05
-4.48122e-05
-5.66471e-05
-2.96256e-05
-6.0709e-05
-1.37292e-05
-6.35047e-05
3.12628e-06
-6.74088e-05
2.0784e-05
-7.0581e-05
3.89048e-05
-7.24252e-05
5.7636e-05
-7.4832e-05
7.66235e-05
-7.58552e-05
9.57966e-05
-7.65354e-05
0.00011499
-7.65936e-05
0.000133708
-7.46833e-05
0.000151879
-7.24868e-05
0.000169254
-6.93769e-05
0.000185424
-6.45395e-05
0.000200252
-5.91854e-05
0.000213456
-5.26724e-05
0.000224875
-4.55468e-05
0.000234348
-3.77428e-05
0.000241549
-2.86455e-05
0.000246392
-1.9385e-05
0.000248902
-1.00197e-05
0.000248851
6.84002e-08
0.000246356
9.83023e-06
0.000241383
1.98734e-05
0.000234085
2.91612e-05
0.000224531
3.81551e-05
0.000212883
4.6434e-05
0.000199373
5.39635e-05
0.00018417
6.06588e-05
0.000167567
6.62738e-05
0.000149846
7.0728e-05
0.000131237
7.42708e-05
0.000112096
7.64168e-05
9.25934e-05
7.78515e-05
7.30315e-05
7.81122e-05
5.36522e-05
7.7411e-05
3.45967e-05
7.61149e-05
1.61388e-05
7.37118e-05
-1.61251e-06
7.0923e-05
-1.85819e-05
6.78841e-05
-3.4692e-05
6.4342e-05
-4.97307e-05
6.01035e-05
-6.37442e-05
5.60285e-05
-7.66517e-05
5.16269e-05
-8.84994e-05
4.74133e-05
-9.93337e-05
4.3215e-05
-0.000109214
3.93807e-05
-0.000118083
3.55303e-05
-0.000126049
3.18123e-05
-0.000133083
2.81259e-05
-0.000139235
2.45332e-05
-0.000144505
2.10359e-05
-0.000148945
1.76007e-05
-0.00015251
1.42007e-05
-0.000155262
1.11518e-05
-0.000157273
8.04144e-06
-0.000158611
5.06522e-06
-0.000159153