/*--------------------------------*- C++ -*----------------------------------*\
| =========                 |                                                 |
| \\      /  F ield         | OpenFOAM: The Open Source CFD Toolbox           |
|  \\    /   O peration     | Version:  3.0.1                                 |
|   \\  /    A nd           | Web:      www.OpenFOAM.org                      |
|    \\/     M anipulation  |                                                 |
\*---------------------------------------------------------------------------*/
FoamFile
{
    version     2.0;
    format      ascii;
    class       volScalarField;
    location    "83.2";
    object      p;
}
// * * * * * * * * * * * * * * * * * * * * * * * * * * * * * * * * * * * * * //

dimensions      [1 -1 -2 0 0 0 0];

internalField   nonuniform List<scalar> 
21420
(
3605.11
3621.33
3638.9
3657.86
3678.25
3700.08
3723.35
3748.04
3774.14
3801.6
3830.34
3860.25
3891.19
3922.95
3955.31
3987.98
4020.62
4052.94
4084.54
4115.01
4144.02
4171.17
4196.07
4218.4
4237.82
4254.05
4266.82
4275.94
4281.26
4282.71
4280.23
4273.17
4262.29
4247.77
4229.72
4208.47
4184.34
4157.63
4128.69
4097.97
4065.86
4032.77
3999.1
3965.2
3931.46
3898.2
3865.69
3834.18
3803.88
3774.96
3747.56
3721.77
3697.69
3675.35
3654.78
3636
3618.98
3603.7
3590.08
3578.07
3567.57
3558.5
3550.76
3544.25
3538.88
3534.58
3531.31
3529.04
3527.75
3527.41
3527.97
3529.43
3531.85
3535.24
3539.57
3544.66
3550.28
3556.27
3562.57
3569.15
3576.1
3583.71
3592.48
3602.69
3614.38
3627.76
3642.87
3659.72
3678.27
3698.43
3720.1
3743.14
3767.43
3792.79
3819.04
3845.98
3873.43
3901.19
3929.08
3956.84
3984.23
4010.95
4036.69
4061.16
4084.04
4105.01
4123.79
4140.09
4153.65
4164.26
4171.72
4175.9
4176.71
4173.97
4167.96
4158.61
4146.01
4130.37
4111.9
4090.83
4067.44
4042.02
4014.88
3986.32
3956.69
3926.31
3895.53
3864.66
3834.03
3803.94
3774.67
3746.44
3719.47
3693.93
3669.93
3647.55
3626.85
3607.83
3590.49
3574.79
3560.7
3548.14
3537.11
3527.44
3519.06
3511.91
3505.89
3500.91
3496.89
3493.76
3491.46
3489.93
3489.14
3489.07
3489.69
3491
3493
3495.71
3499.13
3503.3
3508.25
3514
3520.58
3528.02
3536.34
3545.58
3555.75
3566.87
3578.99
3592.14
3606.39
3621.8
3638.44
3656.38
3675.68
3696.38
3718.5
3742.04
3766.95
3793.13
3820.42
3848.63
3877.48
3906.68
3935.87
3964.65
3992.62
4019.36
4044.41
4067.36
4087.79
4105.29
4119.52
4130.16
4136.97
4139.61
4138.33
4132.84
4123.22
4109.61
4092.24
4071.38
4047.37
4020.62
3991.57
3960.72
3928.53
3895.52
3862.14
3828.84
3796.03
3764.04
3733.17
3703.65
3675.65
3649.28
3624.6
3601.65
3580.41
3560.84
3542.87
3526.42
3511.39
3497.68
3485.19
3473.82
3463.49
3454.11
3445.6
3437.91
3431
3424.85
3419.46
3414.83
3410.99
3407.93
3405.7
3404.32
3403.83
3404.27
3405.72
3408.21
3411.81
3416.58
3422.56
3429.8
3438.37
3448.35
3459.83
3472.91
3487.69
3504.26
3522.68
3542.97
3565.15
3589.18
3614.98
3642.44
3671.41
3701.67
3733
3765.13
3797.74
3830.48
3862.98
3894.84
3925.64
3954.96
3982.33
4007.4
4029.97
4049.82
4066.56
4079.93
4089.72
4095.72
4098.18
4097.66
4093.18
4084.61
4073.01
4058.81
4042.27
4023.73
4003.55
3982.05
3959.51
3936.24
3912.43
3888.34
3864.11
3839.94
3816.03
3792.5
3769.53
3747.28
3725.85
3705.4
3686.03
3667.82
3650.84
3635.12
3620.7
3607.58
3595.75
3585.17
3575.8
3567.6
3560.51
3554.48
3549.42
3545.3
3542.05
3539.62
3537.98
3537.08
3536.91
3537.48
3538.91
3541.17
3544.3
3548.4
3553.52
3559.75
3567.17
3575.87
3585.95
3597.45
3610.41
3624.9
3640.92
3658.48
3677.56
3698.13
3720.15
3743.56
3768.26
3794.12
3821.05
3848.85
3877.31
3906.25
3935.39
3964.48
3993.2
4021.22
4048.29
4074.1
4098.3
4120.66
4140.88
4158.69
4173.83
4186.07
4195.23
4201.16
4203.7
3506.95
3523.18
3540.74
3559.7
3580.09
3601.92
3625.19
3649.88
3675.98
3703.44
3732.19
3762.1
3793.04
3824.81
3857.18
3889.86
3922.52
3954.85
3986.46
4016.95
4045.97
4073.14
4098.06
4120.4
4139.84
4156.07
4168.86
4177.98
4183.31
4184.76
4182.3
4175.21
4164.33
4149.8
4131.74
4110.48
4086.33
4059.6
4030.65
3999.9
3967.78
3934.67
3900.99
3867.08
3833.33
3800.05
3767.53
3736.01
3705.71
3676.79
3649.38
3623.6
3599.51
3577.17
3556.61
3537.83
3520.81
3505.53
3491.91
3479.9
3469.41
3460.35
3452.61
3446.1
3440.74
3436.44
3433.17
3430.9
3429.61
3429.27
3429.83
3431.29
3433.71
3437.11
3441.44
3446.53
3452.16
3458.16
3464.46
3471.04
3477.98
3485.6
3494.36
3504.57
3516.25
3529.63
3544.73
3561.58
3580.13
3600.29
3621.95
3644.99
3669.28
3694.64
3720.9
3747.84
3775.29
3803.06
3830.96
3858.73
3886.13
3912.86
3938.62
3963.11
3986
4006.98
4025.77
4042.08
4055.66
4066.28
4073.75
4077.93
4078.74
4076.01
4069.98
4060.63
4048.03
4032.38
4013.89
3992.81
3969.41
3943.97
3916.81
3888.24
3858.59
3828.2
3797.4
3766.52
3735.88
3705.78
3676.5
3648.27
3621.29
3595.75
3571.75
3549.37
3528.67
3509.65
3492.31
3476.62
3462.53
3449.97
3438.95
3429.28
3420.91
3413.76
3407.74
3402.77
3398.75
3395.62
3393.32
3391.8
3391.01
3390.94
3391.55
3392.86
3394.87
3397.57
3401
3405.16
3410.11
3415.86
3422.44
3429.87
3438.2
3447.43
3457.6
3468.72
3480.84
3493.99
3508.23
3523.64
3540.27
3558.21
3577.5
3598.2
3620.32
3643.87
3668.78
3694.96
3722.26
3750.47
3779.34
3808.55
3837.75
3866.56
3894.55
3921.3
3946.38
3969.35
3989.79
4007.31
4021.55
4032.2
4039.02
4041.68
4040.37
4034.89
4025.26
4011.65
3994.26
3973.38
3949.35
3922.58
3893.51
3862.63
3830.43
3797.4
3764
3730.69
3697.87
3665.87
3635
3605.47
3577.47
3551.1
3526.42
3503.47
3482.23
3462.67
3444.7
3428.25
3413.23
3399.52
3387.04
3375.68
3365.35
3355.97
3347.46
3339.77
3332.87
3326.72
3321.32
3316.7
3312.85
3309.8
3307.56
3306.18
3305.68
3306.13
3307.57
3310.06
3313.66
3318.43
3324.4
3331.64
3340.21
3350.18
3361.66
3374.74
3389.51
3406.08
3424.49
3444.79
3466.97
3490.99
3516.8
3544.27
3573.24
3603.51
3634.85
3666.99
3699.61
3732.36
3764.88
3796.75
3827.58
3856.91
3884.3
3909.38
3931.98
3951.84
3968.6
3981.98
3991.78
3997.8
4000.29
3999.72
3995.21
3986.65
3975.05
3960.84
3944.29
3925.73
3905.55
3884.03
3861.48
3838.2
3814.37
3790.26
3766.02
3741.84
3717.92
3694.39
3671.4
3649.14
3627.72
3607.26
3587.88
3569.67
3552.69
3536.97
3522.55
3509.43
3497.6
3487.02
3477.66
3469.46
3462.37
3456.34
3451.29
3447.17
3443.92
3441.49
3439.85
3438.95
3438.79
3439.35
3440.78
3443.03
3446.17
3450.26
3455.38
3461.6
3469.02
3477.72
3487.79
3499.28
3512.25
3526.74
3542.76
3560.31
3579.39
3599.96
3621.98
3645.39
3670.1
3695.97
3722.9
3750.7
3779.17
3808.12
3837.28
3866.38
3895.11
3923.14
3950.22
3976.04
4000.26
4022.63
4042.86
4060.69
4075.84
4088.09
4097.26
4103.19
4105.73
3408.75
3424.96
3442.53
3461.49
3481.87
3503.7
3526.96
3551.66
3577.76
3605.22
3633.97
3663.89
3694.85
3726.63
3759.02
3791.72
3824.4
3856.77
3888.41
3918.92
3947.98
3975.18
4000.13
4022.5
4041.97
4058.23
4071.04
4080.17
4085.51
4086.97
4084.53
4077.4
4066.5
4051.95
4033.88
4012.59
3988.41
3961.65
3932.66
3901.88
3869.72
3836.58
3802.86
3768.92
3735.15
3701.86
3669.31
3637.78
3607.47
3578.54
3551.13
3525.34
3501.25
3478.91
3458.35
3439.57
3422.56
3407.28
3393.68
3381.68
3371.19
3362.13
3354.4
3347.9
3342.55
3338.25
3334.98
3332.72
3331.43
3331.09
3331.65
3333.11
3335.54
3338.94
3343.28
3348.38
3354.02
3360.03
3366.33
3372.9
3379.84
3387.47
3396.23
3406.43
3418.1
3431.47
3446.56
3463.4
3481.94
3502.1
3523.76
3546.8
3571.09
3596.45
3622.71
3649.66
3677.12
3704.91
3732.82
3760.62
3788.04
3814.79
3840.58
3865.09
3888.01
3909.03
3927.84
3944.18
3957.78
3968.41
3975.9
3980.09
3980.9
3978.2
3972.13
3962.77
3950.16
3934.48
3915.97
3894.87
3871.44
3845.97
3818.78
3790.18
3760.5
3730.08
3699.25
3668.35
3637.69
3607.57
3578.27
3550.02
3523.04
3497.49
3473.48
3451.11
3430.41
3411.4
3394.07
3378.38
3364.29
3351.74
3340.73
3331.07
3322.71
3315.57
3309.55
3304.59
3300.58
3297.45
3295.16
3293.64
3292.85
3292.78
3293.4
3294.7
3296.71
3299.41
3302.83
3307
3311.94
3317.69
3324.26
3331.69
3340.01
3349.25
3359.41
3370.53
3382.63
3395.78
3410.02
3425.42
3442.04
3459.97
3479.26
3499.95
3522.07
3545.62
3570.54
3596.72
3624.04
3652.27
3681.17
3710.4
3739.63
3768.47
3796.5
3823.29
3848.41
3871.42
3891.89
3909.45
3923.72
3934.39
3941.23
3943.93
3942.57
3937.1
3927.46
3913.82
3896.4
3875.48
3851.42
3824.6
3795.5
3764.58
3732.34
3699.27
3665.84
3632.5
3599.65
3567.64
3536.75
3507.22
3479.21
3452.83
3428.16
3405.22
3383.99
3364.43
3346.47
3330.03
3315.02
3301.32
3288.84
3277.49
3267.17
3257.79
3249.29
3241.61
3234.7
3228.55
3223.16
3218.53
3214.68
3211.63
3209.39
3208
3207.5
3207.94
3209.38
3211.87
3215.46
3220.22
3226.19
3233.43
3241.99
3251.95
3263.42
3276.49
3291.26
3307.82
3326.23
3346.52
3368.7
3392.73
3418.55
3446.02
3475
3505.29
3536.65
3568.81
3601.46
3634.24
3666.78
3698.69
3729.55
3758.92
3786.34
3811.46
3834.09
3853.98
3870.77
3884.18
3894
3900.07
3902.61
3901.93
3897.38
3888.83
3877.24
3863.01
3846.43
3827.85
3807.63
3786.09
3763.51
3740.2
3716.35
3692.21
3667.95
3643.75
3619.81
3596.25
3573.25
3550.98
3529.54
3509.07
3489.69
3471.47
3454.49
3438.77
3424.35
3411.23
3399.4
3388.82
3379.47
3371.27
3364.19
3358.16
3353.12
3349
3345.76
3343.33
3341.69
3340.79
3340.63
3341.19
3342.61
3344.87
3347.99
3352.08
3357.19
3363.4
3370.82
3379.51
3389.57
3401.06
3414.03
3428.51
3444.53
3462.08
3481.16
3501.73
3523.75
3547.17
3571.88
3597.75
3624.69
3652.51
3681
3709.96
3739.14
3768.26
3797.02
3825.08
3852.19
3878.03
3902.28
3924.68
3944.93
3962.78
3977.96
3990.23
3999.41
4005.35
4007.9
3310.48
3326.7
3344.26
3363.21
3383.59
3405.41
3428.68
3453.37
3479.47
3506.94
3535.7
3565.63
3596.6
3628.41
3660.83
3693.56
3726.28
3758.69
3790.37
3820.94
3850.04
3877.29
3902.29
3924.71
3944.22
3960.51
3973.35
3982.51
3987.86
3989.33
3986.91
3979.73
3968.81
3954.25
3936.14
3914.81
3890.58
3863.77
3834.73
3803.89
3771.67
3738.48
3704.73
3670.74
3636.93
3603.61
3571.04
3539.49
3509.16
3480.22
3452.8
3427.01
3402.92
3380.58
3360.02
3341.24
3324.24
3308.97
3295.37
3283.38
3272.91
3263.87
3256.15
3249.66
3244.31
3240.03
3236.76
3234.5
3233.21
3232.86
3233.43
3234.89
3237.32
3240.73
3245.09
3250.21
3255.86
3261.88
3268.19
3274.75
3281.68
3289.32
3298.08
3308.27
3319.92
3333.28
3348.35
3365.18
3383.71
3403.86
3425.52
3448.56
3472.85
3498.22
3524.48
3551.45
3578.92
3606.73
3634.66
3662.49
3689.94
3716.74
3742.57
3767.12
3790.08
3811.14
3830
3846.37
3860
3870.67
3878.18
3882.38
3883.2
3880.51
3874.41
3865.04
3852.4
3836.7
3818.15
3797
3773.53
3748.02
3720.78
3692.14
3662.41
3631.95
3601.08
3570.14
3539.44
3509.3
3479.97
3451.71
3424.71
3399.15
3375.14
3352.77
3332.07
3313.07
3295.74
3280.07
3265.99
3253.45
3242.46
3232.81
3224.46
3217.33
3211.32
3206.37
3202.37
3199.25
3196.96
3195.45
3194.66
3194.59
3195.21
3196.52
3198.52
3201.22
3204.64
3208.79
3213.73
3219.47
3226.04
3233.47
3241.79
3251.01
3261.17
3272.28
3284.38
3297.52
3311.75
3327.13
3343.75
3361.67
3380.94
3401.63
3423.75
3447.3
3472.22
3498.43
3525.76
3554.02
3582.95
3612.23
3641.51
3670.4
3698.48
3725.33
3750.51
3773.57
3794.11
3811.71
3826.03
3836.74
3843.59
3846.34
3844.94
3839.46
3829.8
3816.13
3798.67
3777.7
3753.57
3726.7
3697.53
3666.55
3634.25
3601.12
3567.65
3534.27
3501.38
3469.34
3438.43
3408.89
3380.87
3354.5
3329.83
3306.89
3285.67
3266.12
3248.18
3231.75
3216.75
3203.07
3190.6
3179.26
3168.95
3159.58
3151.09
3143.41
3136.5
3130.35
3124.96
3120.33
3116.48
3113.42
3111.18
3109.79
3109.29
3109.72
3111.14
3113.63
3117.22
3121.97
3127.93
3135.16
3143.71
3153.66
3165.12
3178.18
3192.93
3209.48
3227.88
3248.17
3270.35
3294.39
3320.21
3347.7
3376.7
3407.02
3438.41
3470.6
3503.28
3536.1
3568.69
3600.65
3631.56
3660.98
3688.46
3713.63
3736.32
3756.26
3773.09
3786.53
3796.39
3802.52
3805.11
3804.31
3799.7
3791.17
3779.57
3765.31
3748.7
3730.07
3709.82
3688.23
3665.6
3642.25
3618.36
3594.19
3569.89
3545.65
3521.69
3498.1
3475.08
3452.78
3431.33
3410.84
3391.45
3373.22
3356.23
3340.52
3326.09
3312.98
3301.15
3290.58
3281.23
3273.04
3265.97
3259.95
3254.91
3250.8
3247.56
3245.14
3243.5
3242.61
3242.44
3243
3244.42
3246.66
3249.78
3253.86
3258.96
3265.16
3272.56
3281.24
3291.3
3302.78
3315.74
3330.21
3346.23
3363.78
3382.85
3403.43
3425.46
3448.88
3473.59
3499.48
3526.44
3554.28
3582.79
3611.78
3640.99
3670.14
3698.93
3727.03
3754.18
3780.07
3804.35
3826.79
3847.09
3864.97
3880.18
3892.48
3901.69
3907.64
3910.19
3212.16
3228.37
3245.93
3264.87
3285.25
3307.07
3330.33
3355.02
3381.12
3408.59
3437.36
3467.31
3498.31
3530.15
3562.6
3595.38
3628.16
3660.62
3692.36
3722.99
3752.16
3779.48
3804.54
3827.02
3846.58
3862.93
3875.8
3884.99
3890.36
3891.84
3889.42
3882.23
3871.28
3856.67
3838.53
3817.14
3792.85
3765.97
3736.85
3705.94
3673.65
3640.4
3606.57
3572.54
3538.67
3505.31
3472.71
3441.13
3410.78
3381.82
3354.39
3328.59
3304.5
3282.16
3261.61
3242.84
3225.84
3210.58
3197
3185.03
3174.57
3165.54
3157.84
3151.37
3146.04
3141.76
3138.5
3136.24
3134.95
3134.6
3135.17
3136.63
3139.06
3142.49
3146.86
3152
3157.68
3163.72
3170.03
3176.59
3183.5
3191.15
3199.91
3210.08
3221.72
3235.05
3250.11
3266.92
3285.44
3305.58
3327.24
3350.27
3374.56
3399.94
3426.21
3453.19
3480.69
3508.52
3536.49
3564.35
3591.85
3618.7
3644.58
3669.19
3692.21
3713.32
3732.23
3748.66
3762.34
3773.04
3780.58
3784.81
3785.63
3782.96
3776.83
3767.43
3754.76
3739.01
3720.42
3699.22
3675.69
3650.12
3622.82
3594.11
3564.33
3533.81
3502.88
3471.89
3441.15
3410.97
3381.61
3353.32
3326.31
3300.73
3276.72
3254.35
3233.66
3214.66
3197.35
3181.69
3167.63
3155.1
3144.12
3134.49
3126.16
3119.04
3113.06
3108.11
3104.12
3101.02
3098.74
3097.23
3096.45
3096.38
3097
3098.3
3100.3
3103
3106.41
3110.56
3115.49
3121.23
3127.79
3135.21
3143.52
3152.74
3162.89
3174
3186.08
3199.21
3213.42
3228.79
3245.4
3263.3
3282.56
3303.24
3325.36
3348.91
3373.84
3400.06
3427.42
3455.73
3484.7
3514.04
3543.38
3572.33
3600.49
3627.42
3652.67
3675.82
3696.43
3714.1
3728.47
3739.23
3746.11
3748.9
3747.48
3741.99
3732.3
3718.58
3701.06
3680.02
3655.81
3628.86
3599.61
3568.54
3536.16
3502.96
3469.42
3435.99
3403.05
3370.97
3340.04
3310.48
3282.46
3256.08
3231.41
3208.49
3187.28
3167.74
3149.82
3133.42
3118.43
3104.77
3092.32
3080.99
3070.69
3061.34
3052.85
3045.18
3038.28
3032.13
3026.73
3022.1
3018.25
3015.19
3012.94
3011.54
3011.03
3011.45
3012.87
3015.34
3018.92
3023.67
3029.62
3036.84
3045.37
3055.31
3066.75
3079.79
3094.53
3111.07
3129.46
3149.75
3171.93
3195.97
3221.81
3249.31
3278.34
3308.69
3340.11
3372.35
3405.08
3437.96
3470.61
3502.64
3533.61
3563.11
3590.65
3615.9
3638.65
3658.66
3675.55
3689.05
3698.95
3705.13
3707.78
3706.86
3702.18
3693.67
3682.05
3667.75
3651.08
3632.4
3612.09
3590.45
3567.77
3544.36
3520.42
3496.19
3471.85
3447.56
3423.56
3399.94
3376.88
3354.56
3333.07
3312.57
3293.16
3274.92
3257.93
3242.21
3227.79
3214.68
3202.85
3192.29
3182.95
3174.77
3167.71
3161.69
3156.67
3152.57
3149.34
3146.92
3145.29
3144.39
3144.23
3144.79
3146.2
3148.43
3151.54
3155.6
3160.68
3166.87
3174.26
3182.93
3192.97
3204.44
3217.38
3231.85
3247.86
3265.41
3284.49
3305.06
3327.09
3350.52
3375.25
3401.15
3428.13
3456
3484.54
3513.57
3542.81
3572.02
3600.86
3629
3656.21
3682.14
3706.48
3728.98
3749.32
3767.26
3782.52
3794.86
3804.09
3810.06
3812.62
3113.79
3129.99
3147.54
3166.48
3186.85
3208.66
3231.91
3256.6
3282.71
3310.19
3338.97
3368.94
3399.97
3431.85
3464.35
3497.18
3530.02
3562.56
3594.38
3625.08
3654.33
3681.73
3706.87
3729.43
3749.06
3765.47
3778.39
3787.62
3793.02
3794.5
3792.07
3784.88
3773.89
3759.23
3741.03
3719.58
3695.2
3668.24
3639.03
3608.03
3575.65
3542.31
3508.41
3474.3
3440.38
3406.96
3374.32
3342.7
3312.33
3283.35
3255.91
3230.1
3206.01
3183.67
3163.12
3144.36
3127.37
3112.13
3098.56
3086.61
3076.17
3067.17
3059.49
3053.03
3047.71
3043.45
3040.2
3037.94
3036.65
3036.3
3036.87
3038.32
3040.76
3044.21
3048.61
3053.78
3059.48
3065.54
3071.86
3078.4
3085.28
3092.97
3101.72
3111.88
3123.49
3136.8
3151.83
3168.63
3187.13
3207.26
3228.91
3251.94
3276.23
3301.61
3327.9
3354.9
3382.42
3410.28
3438.29
3466.21
3493.77
3520.67
3546.62
3571.3
3594.39
3615.58
3634.56
3651.04
3664.78
3675.53
3683.11
3687.37
3688.19
3685.53
3679.39
3669.95
3657.23
3641.44
3622.78
3601.51
3577.91
3552.27
3524.89
3496.11
3466.25
3435.66
3404.67
3373.61
3342.81
3312.58
3283.18
3254.86
3227.82
3202.24
3178.22
3155.85
3135.16
3116.18
3098.88
3083.24
3069.19
3056.69
3045.72
3036.12
3027.8
3020.71
3014.74
3009.82
3005.85
3002.76
3000.48
2998.98
2998.21
2998.14
2998.75
3000.06
3002.05
3004.75
3008.15
3012.3
3017.22
3022.94
3029.49
3036.91
3045.21
3054.43
3064.57
3075.66
3087.74
3100.85
3115.04
3130.4
3146.98
3164.86
3184.11
3204.78
3226.89
3250.44
3275.39
3301.63
3329.03
3357.38
3386.41
3415.82
3445.24
3474.28
3502.53
3529.55
3554.91
3578.15
3598.85
3616.61
3631.05
3641.87
3648.79
3651.61
3650.2
3644.68
3634.94
3621.17
3603.57
3582.45
3558.14
3531.08
3501.73
3470.56
3438.08
3404.79
3371.17
3337.66
3304.67
3272.55
3241.58
3212
3183.96
3157.58
3132.93
3110.01
3088.82
3069.3
3051.4
3035.02
3020.06
3006.42
2993.99
2982.68
2972.4
2963.06
2954.59
2946.92
2940.02
2933.87
2928.48
2923.84
2919.98
2916.92
2914.67
2913.26
2912.74
2913.15
2914.55
2917.01
2920.58
2925.32
2931.26
2938.46
2946.98
2956.9
2968.32
2981.33
2996.06
3012.58
3030.96
3051.24
3073.42
3097.47
3123.32
3150.86
3179.91
3210.3
3241.77
3274.07
3306.86
3339.81
3372.53
3404.64
3435.7
3465.29
3492.92
3518.26
3541.1
3561.19
3578.16
3591.71
3601.67
3607.91
3610.59
3609.6
3604.85
3596.33
3584.68
3570.32
3553.59
3534.84
3514.46
3492.75
3469.99
3446.52
3422.51
3398.22
3373.81
3349.48
3325.42
3301.75
3278.65
3256.3
3234.78
3214.26
3194.83
3176.58
3159.58
3143.85
3129.43
3116.32
3104.51
3093.95
3084.62
3076.45
3069.4
3063.4
3058.39
3054.3
3051.08
3048.67
3047.04
3046.15
3045.99
3046.54
3047.94
3050.16
3053.25
3057.3
3062.36
3068.53
3075.9
3084.55
3094.57
3106.03
3118.97
3133.43
3149.43
3166.98
3186.05
3206.63
3228.67
3252.1
3276.84
3302.77
3329.77
3357.67
3386.25
3415.32
3444.62
3473.89
3502.79
3530.99
3558.26
3584.27
3608.67
3631.23
3651.65
3669.65
3684.96
3697.35
3706.62
3712.62
3715.18
3015.36
3031.56
3049.09
3068.03
3088.39
3110.19
3133.44
3158.13
3184.23
3211.72
3240.52
3270.51
3301.58
3333.5
3366.06
3398.96
3431.88
3464.5
3496.41
3527.21
3556.56
3584.05
3609.29
3631.94
3651.65
3668.13
3681.12
3690.4
3695.82
3697.32
3694.87
3687.67
3676.64
3661.92
3643.66
3622.12
3597.65
3570.58
3541.26
3510.15
3477.67
3444.22
3410.23
3376.04
3342.04
3308.56
3275.87
3244.21
3213.81
3184.81
3157.35
3131.53
3107.43
3085.1
3064.55
3045.8
3028.83
3013.6
3000.06
2988.12
2977.71
2968.73
2961.08
2954.65
2949.35
2945.1
2941.86
2939.6
2938.31
2937.96
2938.53
2939.98
2942.42
2945.9
2950.33
2955.52
2961.26
2967.35
2973.68
2980.2
2987.02
2994.77
3003.52
3013.65
3025.24
3038.51
3053.52
3070.29
3088.77
3108.89
3130.53
3153.56
3177.85
3203.24
3229.54
3256.56
3284.11
3312.02
3340.08
3368.05
3395.68
3422.66
3448.69
3473.46
3496.63
3517.9
3536.96
3553.53
3567.33
3578.15
3585.77
3590.05
3590.89
3588.23
3582.08
3572.6
3559.83
3543.97
3525.23
3503.89
3480.2
3454.46
3427
3398.13
3368.18
3337.5
3306.42
3275.29
3244.43
3214.13
3184.68
3156.33
3129.26
3103.66
3079.64
3057.27
3036.59
3017.62
3000.34
2984.72
2970.7
2958.22
2947.26
2937.7
2929.41
2922.33
2916.39
2911.49
2907.53
2904.46
2902.2
2900.7
2899.94
2899.87
2900.49
2901.79
2903.78
2906.47
2909.86
2914
2918.92
2924.62
2931.16
2938.57
2946.87
2956.07
2966.2
2977.28
2989.34
3002.43
3016.61
3031.94
3048.5
3066.36
3085.59
3106.24
3128.35
3151.9
3176.86
3203.14
3230.58
3258.98
3288.09
3317.58
3347.09
3376.24
3404.6
3431.74
3457.21
3480.57
3501.38
3519.24
3533.78
3544.66
3551.63
3554.48
3553.09
3547.52
3537.74
3523.9
3506.21
3484.98
3460.56
3433.38
3403.89
3372.6
3340.01
3306.61
3272.89
3239.29
3206.23
3174.05
3143.04
3113.44
3085.39
3059.01
3034.36
3011.46
2990.28
2970.8
2952.92
2936.57
2921.63
2908.02
2895.61
2884.33
2874.07
2864.75
2856.29
2848.63
2841.74
2835.59
2830.19
2825.55
2821.69
2818.62
2816.36
2814.94
2814.41
2814.8
2816.19
2818.64
2822.19
2826.92
2832.85
2840.03
2848.53
2858.43
2869.82
2882.81
2897.51
2914.01
2932.38
2952.65
2974.84
2998.9
3024.77
3052.32
3081.42
3111.85
3143.39
3175.75
3208.62
3241.64
3274.46
3306.66
3337.83
3367.52
3395.26
3420.71
3443.66
3463.85
3480.91
3494.54
3504.55
3510.85
3513.56
3512.52
3507.7
3499.15
3487.45
3473.03
3456.22
3437.39
3416.93
3395.12
3372.29
3348.73
3324.64
3300.27
3275.8
3251.39
3227.27
3203.55
3180.4
3158
3136.46
3115.9
3096.45
3078.18
3061.17
3045.44
3031.02
3017.92
3006.11
2995.56
2986.25
2978.1
2971.06
2965.07
2960.07
2956
2952.79
2950.39
2948.77
2947.88
2947.71
2948.26
2949.65
2951.86
2954.93
2958.95
2964
2970.14
2977.49
2986.12
2996.13
3007.57
3020.49
3034.94
3050.94
3068.48
3087.55
3108.13
3130.17
3153.62
3178.38
3204.33
3231.36
3259.3
3287.92
3317.05
3346.42
3375.75
3404.72
3433
3460.35
3486.43
3510.92
3533.56
3554.06
3572.13
3587.52
3599.96
3609.27
3615.3
3617.88
2916.88
2933.06
2950.59
2969.51
2989.87
3011.66
3034.9
3059.59
3085.69
3113.19
3142.01
3172.03
3203.14
3235.12
3267.74
3300.72
3333.73
3366.45
3398.47
3429.38
3458.84
3486.45
3511.79
3534.55
3554.37
3570.93
3583.99
3593.32
3598.78
3600.28
3597.83
3590.61
3579.54
3564.75
3546.4
3524.77
3500.19
3473
3443.55
3412.32
3379.71
3346.14
3312.04
3277.75
3243.66
3210.11
3177.36
3145.66
3115.22
3086.19
3058.71
3032.88
3008.78
2986.44
2965.9
2947.16
2930.21
2915
2901.48
2889.57
2879.19
2870.24
2862.62
2856.21
2850.94
2846.71
2843.47
2841.22
2839.93
2839.58
2840.15
2841.59
2844.04
2847.55
2852.02
2857.25
2863.03
2869.15
2875.48
2881.99
2888.73
2896.56
2905.31
2915.41
2926.95
2940.19
2955.17
2971.91
2990.37
3010.48
3032.11
3055.13
3079.43
3104.82
3131.14
3158.19
3185.78
3213.73
3241.85
3269.89
3297.59
3324.67
3350.79
3375.65
3398.93
3420.3
3439.45
3456.11
3470
3480.88
3488.55
3492.88
3493.73
3491.06
3484.9
3475.36
3462.53
3446.6
3427.78
3406.34
3382.55
3356.71
3329.14
3300.16
3270.11
3239.32
3208.15
3176.93
3145.99
3115.63
3086.12
3057.72
3030.63
3005.01
2980.98
2958.61
2937.94
2918.98
2901.73
2886.13
2872.14
2859.69
2848.75
2839.22
2830.96
2823.91
2818
2813.12
2809.19
2806.13
2803.89
2802.4
2801.64
2801.57
2802.19
2803.49
2805.47
2808.16
2811.55
2815.67
2820.58
2826.27
2832.8
2840.19
2848.48
2857.68
2867.8
2878.86
2890.9
2903.97
2918.12
2933.42
2949.96
2967.79
2987
3007.64
3029.73
3053.29
3078.27
3104.58
3132.07
3160.54
3189.72
3219.31
3248.94
3278.21
3306.7
3333.97
3359.58
3383.08
3404.02
3422
3436.64
3447.61
3454.64
3457.52
3456.14
3450.54
3440.7
3426.77
3408.98
3387.62
3363.07
3335.74
3306.11
3274.67
3241.94
3208.41
3174.57
3140.88
3107.73
3075.49
3044.44
3014.8
2986.74
2960.36
2935.71
2912.83
2891.68
2872.22
2854.38
2838.06
2823.16
2809.57
2797.2
2785.94
2775.7
2766.4
2757.96
2750.31
2743.42
2737.28
2731.87
2727.23
2723.36
2720.29
2718.02
2716.59
2716.04
2716.42
2717.79
2720.22
2723.76
2728.47
2734.38
2741.55
2750.02
2759.89
2771.25
2784.21
2798.89
2815.36
2833.72
2853.98
2876.17
2900.24
2926.13
2953.72
2982.86
3013.35
3044.95
3077.39
3110.34
3143.47
3176.39
3208.71
3240
3269.81
3297.68
3323.26
3346.33
3366.65
3383.81
3397.53
3407.61
3413.96
3416.7
3415.61
3410.72
3402.14
3390.38
3375.88
3358.98
3340.05
3319.48
3297.58
3274.65
3250.99
3226.8
3202.35
3177.79
3153.3
3129.11
3105.33
3082.12
3059.67
3038.09
3017.49
2998.02
2979.74
2962.71
2946.98
2932.56
2919.46
2907.66
2897.13
2887.83
2879.69
2872.67
2866.71
2861.72
2857.66
2854.47
2852.08
2850.46
2849.58
2849.41
2849.95
2851.33
2853.52
2856.57
2860.57
2865.59
2871.71
2879.03
2887.64
2897.62
2909.04
2921.95
2936.38
2952.37
2969.91
2988.98
3009.56
3031.61
3055.07
3079.85
3105.83
3132.9
3160.88
3189.56
3218.75
3248.19
3277.6
3306.66
3335.03
3362.46
3388.64
3413.22
3435.96
3456.55
3474.72
3490.18
3502.69
3512.06
3518.12
3520.72
2818.34
2834.52
2852.03
2870.94
2891.29
2913.07
2936.3
2960.98
2987.09
3014.6
3043.44
3073.5
3104.65
3136.69
3169.39
3202.46
3235.57
3268.41
3300.55
3331.58
3361.17
3388.91
3414.39
3437.26
3457.19
3473.86
3487
3496.39
3501.88
3503.4
3500.94
3493.7
3482.58
3467.72
3449.28
3427.52
3402.82
3375.49
3345.9
3314.51
3281.76
3248.06
3213.83
3179.43
3145.24
3111.61
3078.79
3047.03
3016.55
2987.49
2960
2934.16
2910.05
2887.71
2867.18
2848.45
2831.52
2816.33
2802.84
2790.96
2780.61
2771.7
2764.1
2757.73
2752.49
2748.28
2745.05
2742.8
2741.51
2741.16
2741.72
2743.16
2745.62
2749.16
2753.68
2758.94
2764.77
2770.93
2777.28
2783.76
2790.42
2798.34
2807.08
2817.14
2828.65
2841.84
2856.78
2873.49
2891.93
2912.02
2933.64
2956.66
2980.95
3006.36
3032.7
3059.77
3087.4
3115.41
3143.59
3171.71
3199.51
3226.68
3252.92
3277.89
3301.28
3322.76
3342.03
3358.79
3372.77
3383.73
3391.47
3395.83
3396.7
3394.03
3387.85
3378.26
3365.36
3349.34
3330.42
3308.87
3284.96
3259.01
3231.31
3202.21
3172.04
3141.14
3109.86
3078.54
3047.51
3017.07
2987.5
2959.04
2931.92
2906.28
2882.23
2859.87
2839.21
2820.27
2803.04
2787.47
2773.51
2761.09
2750.17
2740.7
2732.46
2725.45
2719.57
2714.71
2710.81
2707.77
2705.54
2704.07
2703.31
2703.25
2703.87
2705.17
2707.14
2709.82
2713.2
2717.31
2722.2
2727.88
2734.4
2741.78
2750.05
2759.24
2769.35
2780.39
2792.42
2805.46
2819.58
2834.85
2851.35
2869.16
2888.34
2908.96
2931.05
2954.61
2979.61
3005.95
3033.49
3062.04
3091.32
3121.02
3150.77
3180.18
3208.82
3236.25
3262.02
3285.67
3306.77
3324.89
3339.65
3350.71
3357.8
3360.72
3359.35
3353.71
3343.81
3329.79
3311.87
3290.37
3265.66
3238.16
3208.36
3176.76
3143.87
3110.19
3076.22
3042.42
3009.18
2976.86
2945.76
2916.09
2888.01
2861.62
2836.99
2814.12
2793
2773.58
2755.77
2739.49
2724.63
2711.07
2698.73
2687.51
2677.3
2668.02
2659.6
2651.96
2645.08
2638.93
2633.53
2628.88
2625.01
2621.92
2619.65
2618.21
2617.64
2618
2619.35
2621.76
2625.28
2629.97
2635.87
2643.01
2651.46
2661.29
2672.62
2685.55
2700.19
2716.64
2734.97
2755.23
2777.42
2801.5
2827.42
2855.05
2884.23
2914.79
2946.46
2978.99
3012.05
3045.28
3078.33
3110.77
3142.2
3172.16
3200.18
3225.9
3249.12
3269.57
3286.86
3300.67
3310.83
3317.24
3320.01
3318.87
3313.92
3305.28
3293.45
3278.86
3261.86
3242.82
3222.14
3200.12
3177.07
3153.3
3129.01
3104.45
3079.8
3055.22
3030.95
3007.09
2983.82
2961.31
2939.68
2919.05
2899.55
2881.24
2864.2
2848.46
2834.05
2820.95
2809.17
2798.65
2789.36
2781.25
2774.25
2768.3
2763.34
2759.3
2756.12
2753.74
2752.13
2751.25
2751.08
2751.62
2752.98
2755.15
2758.18
2762.15
2767.14
2773.23
2780.52
2789.1
2799.05
2810.45
2823.34
2837.76
2853.74
2871.27
2890.34
2910.93
2932.98
2956.46
2981.26
3007.27
3034.38
3062.41
3091.15
3120.42
3149.94
3179.44
3208.6
3237.07
3264.61
3290.9
3315.59
3338.43
3359.13
3377.4
3392.95
3405.55
3414.97
3421.08
3423.69
2719.75
2735.91
2753.42
2772.31
2792.64
2814.42
2837.64
2862.32
2888.43
2915.95
2944.81
2974.9
3006.11
3038.22
3071
3104.17
3137.4
3170.37
3202.65
3233.82
3263.55
3291.44
3317.07
3340.08
3360.14
3376.92
3390.15
3399.61
3405.15
3406.68
3404.2
3396.94
3385.76
3370.82
3352.27
3330.39
3305.54
3278.06
3248.3
3216.75
3183.83
3149.98
3115.61
3081.08
3046.78
3013.06
2980.16
2948.34
2917.82
2888.72
2861.2
2835.35
2811.23
2788.9
2768.38
2749.66
2732.75
2717.59
2704.13
2692.28
2681.97
2673.09
2665.54
2659.21
2653.99
2649.8
2646.59
2644.34
2643.05
2642.7
2643.26
2644.69
2647.16
2650.73
2655.31
2660.62
2666.49
2672.7
2679.06
2685.53
2692.1
2700.11
2708.84
2718.86
2730.32
2743.46
2758.36
2775.04
2793.45
2813.51
2835.12
2858.14
2882.44
2907.85
2934.21
2961.32
2989
3017.06
3045.32
3073.53
3101.43
3128.71
3155.07
3180.17
3203.69
3225.3
3244.69
3261.56
3275.64
3286.69
3294.5
3298.91
3299.81
3297.14
3290.92
3281.27
3268.29
3252.18
3233.15
3211.48
3187.44
3161.35
3133.52
3104.28
3073.97
3042.95
3011.54
2980.11
2948.97
2918.44
2888.8
2860.29
2833.13
2807.46
2783.41
2761.05
2740.4
2721.49
2704.28
2688.74
2674.81
2662.44
2651.54
2642.12
2633.91
2626.94
2621.09
2616.27
2612.39
2609.38
2607.17
2605.71
2604.96
2604.9
2605.52
2606.82
2608.79
2611.46
2614.82
2618.93
2623.8
2629.46
2635.96
2643.32
2651.59
2660.76
2670.85
2681.88
2693.88
2706.89
2720.98
2736.22
2752.69
2770.46
2789.61
2810.21
2832.29
2855.85
2880.87
2907.25
2934.86
2963.49
2992.88
3022.71
3052.6
3082.17
3110.98
3138.58
3164.53
3188.36
3209.62
3227.9
3242.79
3253.97
3261.13
3264.1
3262.73
3257.05
3247.07
3232.94
3214.89
3193.23
3168.34
3140.65
3110.66
3078.87
3045.8
3011.96
2977.84
2943.91
2910.56
2878.16
2847
2817.29
2789.2
2762.81
2738.19
2715.35
2694.25
2674.87
2657.1
2640.86
2626.04
2612.53
2600.23
2589.03
2578.86
2569.61
2561.21
2553.59
2546.71
2540.56
2535.15
2530.5
2526.62
2523.53
2521.24
2519.78
2519.2
2519.54
2520.86
2523.25
2526.75
2531.42
2537.3
2544.42
2552.84
2562.64
2573.92
2586.81
2601.42
2617.84
2636.15
2656.4
2678.59
2702.69
2728.63
2756.3
2785.54
2816.16
2847.93
2880.56
2913.73
2947.09
2980.26
3012.86
3044.44
3074.56
3102.74
3128.63
3152.02
3172.63
3190.05
3203.98
3214.23
3220.7
3223.5
3222.31
3217.3
3208.59
3196.68
3181.98
3164.86
3145.69
3124.88
3102.74
3079.56
3055.67
3031.25
3006.58
2981.81
2957.14
2932.77
2908.84
2885.49
2862.92
2841.23
2820.56
2801.02
2782.69
2765.64
2749.9
2735.48
2722.39
2710.62
2700.12
2690.85
2682.76
2675.78
2669.86
2664.91
2660.89
2657.73
2655.37
2653.77
2652.9
2652.73
2653.25
2654.6
2656.75
2659.75
2663.69
2668.64
2674.69
2681.95
2690.5
2700.43
2711.8
2724.67
2739.07
2755.04
2772.57
2791.63
2812.22
2834.29
2857.78
2882.61
2908.65
2935.81
2963.9
2992.71
3022.06
3051.67
3081.28
3110.55
3139.13
3166.79
3193.19
3218.01
3240.97
3261.79
3280.17
3295.84
3308.52
3318.01
3324.16
3326.8
2621.11
2637.25
2654.74
2673.63
2693.94
2715.7
2738.92
2763.58
2789.7
2817.23
2846.11
2876.25
2907.52
2939.7
2972.58
3005.86
3039.22
3072.34
3104.77
3136.1
3165.99
3194.05
3219.83
3243
3263.2
3280.11
3293.44
3302.98
3308.56
3310.11
3307.62
3300.32
3289.09
3274.05
3255.39
3233.37
3208.35
3180.69
3150.75
3119.02
3085.92
3051.89
3017.37
2982.7
2948.28
2914.45
2881.46
2849.58
2819.01
2789.88
2762.33
2736.46
2712.34
2690.01
2669.49
2650.8
2633.91
2618.77
2605.35
2593.54
2583.27
2574.44
2566.93
2560.63
2555.45
2551.29
2548.09
2545.84
2544.55
2544.19
2544.75
2546.17
2548.65
2552.26
2556.92
2562.27
2568.2
2574.45
2580.84
2587.29
2593.85
2601.88
2610.58
2620.56
2631.96
2645.05
2659.9
2676.54
2694.92
2714.97
2736.56
2759.57
2783.87
2809.3
2835.68
2862.83
2890.55
2918.68
2947.02
2975.33
3003.34
3030.76
3057.25
3082.49
3106.15
3127.9
3147.43
3164.43
3178.63
3189.78
3197.67
3202.13
3203.05
3200.38
3194.13
3184.41
3171.35
3155.12
3135.97
3114.16
3089.98
3063.74
3035.76
3006.37
2975.91
2944.74
2913.19
2881.63
2850.39
2819.76
2790.04