/*--------------------------------*- C++ -*----------------------------------*\
| =========                 |                                                 |
| \\      /  F ield         | OpenFOAM: The Open Source CFD Toolbox           |
|  \\    /   O peration     | Version:  3.0.1                                 |
|   \\  /    A nd           | Web:      www.OpenFOAM.org                      |
|    \\/     M anipulation  |                                                 |
\*---------------------------------------------------------------------------*/
FoamFile
{
    version     2.0;
    format      ascii;
    class       volScalarField;
    location    "95.4";
    object      p_rgh;
}
// * * * * * * * * * * * * * * * * * * * * * * * * * * * * * * * * * * * * * //

dimensions      [1 -1 -2 0 0 0 0];

internalField   nonuniform List<scalar> 
21420
(
-263.196
-248.606
-232.24
-214.08
-194.102
-172.274
-148.588
-123.078
-95.8025
-66.8356
-36.3403
-4.69808
28.2971
62.1683
96.6351
131.349
165.943
200.047
233.223
265.023
295.05
322.882
348.112
370.415
389.475
405.024
416.843
424.767
428.617
428.361
424.055
415.829
403.748
388.039
368.931
346.702
321.705
294.291
264.83
233.744
201.431
168.297
134.713
101.035
67.5974
34.8791
3.55275
-27.1929
-56.8579
-85.218
-112.137
-137.514
-161.283
-183.404
-203.852
-222.627
-239.738
-255.191
-269.015
-281.226
-291.845
-300.889
-308.364
-314.281
-318.65
-321.432
-322.613
-322.237
-320.264
-316.681
-311.45
-304.559
-295.99
-285.702
-273.683
-259.929
-244.427
-227.186
-208.206
-187.508
-165.135
-141.145
-115.595
-88.5663
-60.1499
-30.4653
0.346136
32.1034
64.5543
97.4574
130.537
163.49
195.989
227.69
258.23
287.241
314.349
339.192
361.424
380.717
396.782
409.364
418.246
423.247
424.256
421.242
414.229
403.2
388.31
369.73
347.707
322.539
294.577
264.218
231.894
198.058
163.173
127.697
92.0736
56.7181
22.0383
-11.6769
-44.1144
-75.0317
-104.238
-131.591
-156.99
-180.378
-201.728
-221.038
-238.338
-253.676
-267.106
-278.703
-288.547
-296.714
-303.282
-308.331
-311.941
-314.147
-314.984
-314.544
-312.812
-309.798
-305.489
-299.86
-292.872
-284.486
-274.654
-263.321
-250.435
-235.945
-219.813
-202.001
-182.483
-161.246
-138.302
-113.68
-87.4389
-59.6666
-30.4851
-0.0498043
31.4528
63.7844
96.6703
129.811
162.872
195.486
227.261
257.783
286.632
313.382
337.624
358.966
377.047
391.554
402.217
408.842
411.215
409.426
403.386
393.179
378.969
360.987
339.527
314.938
287.614
257.977
226.466
193.53
159.616
125.161
90.5912
56.3406
22.7185
-9.92031
-41.3051
-71.2203
-99.5004
-126.024
-150.71
-173.511
-194.411
-213.421
-230.572
-245.916
-259.51
-271.419
-281.707
-290.43
-297.65
-303.416
-307.77
-310.766
-312.416
-312.722
-311.767
-309.53
-306.015
-301.217
-295.118
-287.692
-278.904
-268.714
-257.081
-243.964
-229.329
-213.138
-195.366
-176.003
-155.041
-132.489
-108.378
-82.7558
-55.6945
-27.3029
2.27964
32.879
64.2894
96.2228
128.377
160.42
191.987
222.692
252.131
279.895
305.573
328.762
349.069
366.13
379.615
389.247
394.813
396.12
393.193
386.04
374.718
359.441
340.468
318.127
292.799
264.908
234.91
203.284
170.514
137.092
103.571
70.1606
37.2454
5.17673
-25.7469
-55.3132
-83.3477
-109.709
-134.33
-157.144
-178.12
-197.254
-214.565
-230.091
-243.89
-256.025
-266.577
-275.622
-283.253
-289.52
-294.484
-298.098
-300.512
-301.762
-301.892
-300.938
-298.945
-295.915
-291.823
-286.643
-280.318
-272.772
-263.922
-253.657
-241.871
-228.453
-213.281
-196.267
-177.332
-156.411
-133.51
-108.669
-81.9595
-53.5127
-23.4671
8.01734
37.4111
70.2676
103.244
135.95
168.02
199.021
228.52
256.149
281.509
304.246
324.069
340.705
353.936
363.601
369.604
371.802
370.192
364.903
356.098
343.934
328.662
310.561
289.914
267.042
242.246
215.841
188.168
159.538
130.249
100.607
70.8896
41.5015
12.52
-16.0942
-44.0363
-71.1148
-97.1521
-122.012
-145.572
-167.718
-188.357
-207.399
-224.778
-240.476
-254.483
-263.266
-248.679
-232.317
-214.159
-194.184
-172.358
-148.673
-123.163
-95.8852
-66.9149
-36.4143
-4.76483
28.2386
62.1196
96.5983
131.326
165.936
200.058
233.252
265.071
295.117
322.967
348.214
370.532
389.606
405.166
416.994
424.924
428.786
428.516
424.207
415.974
403.884
388.162
369.039
346.795
321.781
294.349
264.87
233.767
201.436
168.287
134.689
100.999
67.552
34.825
3.48967
-27.2606
-56.9294
-85.2923
-112.213
-137.591
-161.359
-183.48
-203.926
-222.699
-239.808
-255.26
-269.082
-281.292
-291.909
-300.952
-308.427
-314.344
-318.713
-321.493
-322.677
-322.301
-320.329
-316.748
-311.518
-304.629
-296.062
-285.774
-273.757
-260.005
-244.504
-227.264
-208.285
-187.587
-165.214
-141.223
-115.672
-88.6413
-60.2222
-30.5341
0.282659
32.0464
64.5054
97.418
130.509
163.475
195.989
227.705
258.262
287.29
314.415
339.275
361.523
380.831
396.908
409.5
418.391
423.404
424.406
421.391
414.376
403.34
388.439
369.847
347.808
322.622
294.641
264.262
231.918
198.063
163.159
127.666
92.027
56.6575
21.967
-11.7579
-44.2025
-75.125
-104.335
-131.689
-157.089
-180.476
-201.823
-221.131
-238.428
-253.762
-267.189
-278.782
-288.623
-296.786
-303.351
-308.397
-312.004
-314.206
-315.044
-314.603
-312.871
-309.857
-305.549
-299.922
-292.937
-284.553
-274.723
-263.393
-250.509
-236.022
-219.892
-202.083
-182.566
-161.33
-138.386
-113.764
-87.5206
-59.7452
-30.5592
-0.1182
31.3928
63.7337
96.6306
129.784
162.859
195.49
227.282
257.823
286.69
313.459
337.72
359.078
377.176
391.695
402.369
409
411.384
409.581
403.541
393.325
379.103
361.107
339.629
315.022
287.679
258.022
226.491
193.536
159.604
125.133
90.5466
56.2854
22.651
-9.99643
-41.3877
-71.3072
-99.59
-126.115
-150.8
-173.6
-194.498
-213.505
-230.654
-245.994
-259.585
-271.491
-281.776
-290.497
-297.714
-303.478
-307.831
-310.826
-312.472
-312.779
-311.823
-309.586
-306.071
-301.275
-295.177
-287.753
-278.967
-268.779
-257.148
-244.034
-229.4
-213.211
-195.441
-176.079
-155.118
-132.567
-108.455
-82.8312
-55.7676
-27.372
2.21664
32.8233
64.2425
96.1875
128.355
160.412
191.995
222.717
252.174
279.956
305.653
328.859
349.183
366.259
379.757
389.4
394.978
396.28
393.351
386.193
374.862
359.572
340.583
318.223
292.876
264.964
234.946
203.299
170.509
137.069
103.538
70.1131
37.1864
5.1089
-25.8212
-55.3917
-83.4287
-109.792
-134.412
-157.225
-178.199
-197.331
-214.639
-230.162
-243.958
-256.089
-266.638
-275.68
-283.308
-289.572
-294.532
-298.145
-300.557
-301.805
-301.934
-300.98
-298.987
-295.958
-291.867
-286.689
-280.367
-272.825
-263.98
-253.719
-241.938
-228.526
-213.359
-196.349
-177.417
-156.498
-133.598
-108.756
-82.0442
-53.5936
-23.5442
7.94437
37.3765
70.2413
103.23
135.951
168.038
199.057
228.573
256.22
281.597
304.349
324.186
340.833
354.073
363.743
369.748
371.954
370.331
365.039
356.225
344.05
328.764
310.651
289.989
267.102
242.291
215.873
188.186
159.544
130.244
100.59
70.8632
41.4697
12.4807
-16.1401
-44.0879
-71.1711
-97.2125
-122.076
-145.639
-167.787
-188.428
-207.472
-224.851
-240.549
-254.557
-263.408
-248.827
-232.47
-214.318
-194.348
-172.526
-148.842
-123.332
-96.0505
-67.0736
-36.5621
-4.89845
28.1215
62.0223
96.5249
131.28
165.921
200.078
233.31
265.166
295.25
323.137
348.418
370.767
389.868
405.45
417.295
425.237
429.125
428.824
424.512
416.264
404.155
388.409
369.257
346.98
321.932
294.464
264.949
233.811
201.448
168.267
134.641
100.928
67.4613
34.717
3.36362
-27.396
-57.0725
-85.4408
-112.364
-137.743
-161.511
-183.63
-204.074
-222.843
-239.949
-255.397
-269.215
-281.422
-292.037
-301.078
-308.551
-314.468
-318.836
-321.613
-322.803
-322.427
-320.457
-316.877
-311.651
-304.764
-296.2
-285.916
-273.902
-260.151
-244.653
-227.415
-208.435
-187.737
-165.364
-141.371
-115.817
-88.7824
-60.3576
-30.6618
0.165848
31.9431
64.4184
97.3504
130.464
163.456
195.999
227.747
258.338
287.4
314.559
339.453
361.732
381.069
397.172
409.785
418.691
423.726
424.716
421.701
414.679
403.63
388.709
370.09
348.02
322.799
294.781
264.362
231.979
198.084
163.144
127.616
91.9462
56.5492
21.8373
-11.9066
-44.3652
-75.2976
-104.514
-131.871
-157.271
-180.656
-201.999
-221.302
-238.593
-253.92
-267.339
-278.925
-288.757
-296.913
-303.472
-308.513
-312.114
-314.308
-315.148
-314.705
-312.973
-309.96
-305.654
-300.03
-293.049
-284.671
-274.846
-263.521
-250.642
-236.16
-220.035
-202.23
-182.716
-161.482
-138.539
-113.915
-87.6682
-59.8868
-30.6921
-0.239887
31.2879
63.6471
96.5658
129.745
162.849
195.511
227.338
257.915
286.82
313.627
337.924
359.317
377.445
391.99
402.683
409.326
411.729
409.904
403.86
393.628
379.383
361.357
339.845
315.2
287.817
258.121
226.551
193.558
159.591
125.087
90.469
56.1856
22.5273
-10.1371
-41.541
-71.4691
-99.757
-126.284
-150.969
-173.767
-194.661
-213.662
-230.805
-246.138
-259.723
-271.622
-281.901
-290.617
-297.829
-303.59
-307.939
-310.932
-312.571
-312.881
-311.924
-309.686
-306.173
-301.378
-295.283
-287.862
-279.08
-268.896
-257.27
-244.16
-229.53
-213.345
-195.579
-176.219
-155.26
-132.709
-108.597
-82.9694
-55.9011
-27.4975
2.10306
32.7245
64.161
96.1291
128.322
160.409
192.024
222.779
252.272
280.09
305.823
329.064
349.422
366.529
380.054
389.717
395.309
396.617
393.679
386.51
375.16
359.843
340.822
318.425
293.038
265.085
235.025
203.337
170.508
137.03
103.479
70.0248
37.0744
4.97913
-25.9643
-55.5435
-83.5859
-109.952
-134.571
-157.383
-178.354
-197.482
-214.785
-230.301
-244.091
-256.215
-266.757
-275.793
-283.414
-289.674
-294.626
-298.238
-300.645
-301.89
-302.016
-301.061
-299.069
-296.041
-291.953
-286.78
-280.465
-272.93
-264.094
-253.843
-242.072
-228.67
-213.513
-196.511
-177.587
-156.672
-133.774
-108.93
-82.2129
-53.7548
-23.6979
7.79813
37.3085
70.1891
103.201
135.953
168.074
199.128
228.681
256.362
281.773
304.556
324.42
341.089
354.347
364.028
370.037
372.257
370.611
365.312
356.478
344.281
328.97
310.829
290.138
267.222
242.382
215.936
188.223
159.555
130.232
100.557
70.8106
41.4059
12.4021
-16.232
-44.191
-71.2838
-97.3334
-122.204
-145.773
-167.925
-188.57
-207.616
-224.997
-240.696
-254.704
-263.62
-249.048
-232.701
-214.557
-194.594
-172.777
-149.097
-123.586
-96.2988
-67.3118
-36.7845
-5.09864
27.9458
61.8761
96.4144
131.211
165.9
200.109
233.396
265.31
295.45
323.392
348.724
371.12
390.262
405.877
417.748
425.706
429.625
429.294
424.972
416.701
404.563
388.779
369.585
347.259
322.158
294.637
265.068
233.878
201.464
168.238
134.57
100.821
67.3251
34.5545
3.17452
-27.5992
-57.2871
-85.6638
-112.592
-137.972
-161.74
-183.855
-204.295
-223.059
-240.159
-255.603
-269.416
-281.618
-292.229
-301.267
-308.738
-314.653
-319.021
-321.794
-322.992
-322.616
-320.648
-317.072
-311.85
-304.968
-296.407
-286.128
-274.118
-260.372
-244.877
-227.64
-208.661
-187.962
-165.588
-141.593
-116.035
-88.9939
-60.5607
-30.8532
-0.00917399
31.7886
64.2884
97.2495
130.397
163.429
196.016
227.812
258.452
287.566
314.778
339.722
362.049
381.429
397.57
410.214
419.144
424.2
425.194
422.173
415.137
404.068
389.116
370.458
348.341
323.067
294.992
264.514
232.071
198.118
163.122
127.543
91.8268
56.3878
21.6454
-12.1278
-44.6074
-75.5546
-104.78
-132.142
-157.543
-180.924
-202.261
-221.557
-238.838
-254.153
-267.562
-279.136
-288.957
-297.103
-303.652
-308.684
-312.276
-314.461
-315.302
-314.855
-313.123
-310.113
-305.809
-300.19
-293.216
-284.845
-275.029
-263.711
-250.84
-236.366
-220.248
-202.448
-182.939
-161.709
-138.767
-114.141
-87.8885
-60.0979
-30.8901
-0.420536
31.1316
63.5185
96.4702
129.688
162.835
195.545
227.424
258.056
287.017
313.881
338.232
359.676
377.851
392.434
403.156
409.817
412.243
410.397
404.342
394.086
379.805
361.734
340.17
315.469
288.027
258.271
226.643
193.594
159.573
125.02
90.3597
56.0314
22.3431
-10.3467
-41.7696
-71.7105
-100.006
-126.536
-151.221
-174.015
-194.903
-213.896
-231.029
-246.353
-259.928
-271.818
-282.087
-290.795
-298.001
-303.755
-308.101
-311.09
-312.719
-313.033
-312.074
-309.836
-306.323
-301.531
-295.44
-288.025
-279.249
-269.071
-257.451
-244.348
-229.725
-213.545
-195.784
-176.428
-155.472
-132.922
-108.808
-83.1758
-56.1001
-27.6842
1.93368
32.5773
64.0402
96.043
128.275
160.405
192.068
222.874
252.419
280.292
306.079
329.375
349.783
366.937
380.5
390.193
395.801
397.13
394.176
386.989
375.609
360.252
341.182
318.73
293.283
265.268
235.146
203.396
170.506
136.973
103.391
69.8927
36.9068
4.7847
-26.1787
-55.771
-83.8216
-110.192
-134.811
-157.62
-178.587
-197.707
-215.002
-230.511
-244.29
-256.404
-266.937
-275.962
-283.573
-289.827
-294.768
-298.377
-300.776
-302.017
-302.14
-301.183
-299.191
-296.167
-292.083
-286.917
-280.612
-273.088
-264.264
-254.028
-242.273
-228.887
-213.744
-196.755
-177.841
-156.933
-134.037
-109.191
-82.4661
-53.9967
-23.9285
7.57481
37.21
70.1103
103.158
135.955
168.127
199.235
228.841
256.576
282.037
304.866
324.771
341.474
354.758
364.456
370.47
372.707
371.035
365.723
356.86
344.628
329.279
311.097
290.362
267.402
242.519
216.031
188.278
159.573
130.215
100.508
70.7316
41.3101
12.2841
-16.37
-44.3459
-71.453
-97.5148
-122.396
-145.973
-168.132
-188.782
-207.833
-225.216
-240.917
-254.925
-263.902
-249.344
-233.009
-214.875
-194.923
-173.113
-149.437
-123.925
-96.6301
-67.6299
-37.083
-5.36466
27.7114
61.6809
96.2668
131.119
165.87
200.15
233.511
265.5
295.717
323.731
349.132
371.59
390.786
406.447
418.353
426.332
430.273
429.932
425.59
417.285
405.107
389.273
370.021
347.63
322.46
294.868
265.227
233.966
201.486
168.198
134.474
100.678
67.1431
34.3373
2.9223
-27.8703
-57.5736
-85.9613
-112.896
-138.278
-162.044
-184.155
-204.59
-223.348
-240.441
-255.877
-269.683
-281.879
-292.484
-301.518
-308.986
-314.901
-319.266
-322.038
-323.243
-322.868
-320.904
-317.333
-312.116
-305.239
-296.684
-286.411
-274.407
-260.666
-245.175
-227.941
-208.963
-188.263
-165.888
-141.889
-116.325
-89.2759
-60.8317
-31.1091
-0.243136
31.5822
64.1146
97.1144
130.308
163.391
196.037
227.897
258.605
287.789
315.069
340.081
362.471
381.91
398.102
410.787
419.749
424.822
425.836
422.808
415.751
404.654
389.659
370.95
348.77
323.426
295.274
264.718
232.194
198.163
163.093
127.445
91.6677
56.1757
21.3862
-12.423
-44.9304
-75.8974
-105.135
-132.503
-157.904
-181.282
-202.611
-221.896
-239.165
-254.465
-267.859
-279.418
-289.223
-297.355
-303.891
-308.911
-312.491
-314.667
-315.506
-315.055
-313.323
-310.315
-306.016
-300.403
-293.439
-285.078
-275.272
-263.964
-251.103
-236.64
-220.532
-202.74
-183.237
-162.011
-139.07
-114.442
-88.1824
-60.3797
-31.1543
-0.660685
30.922
63.3467
96.3425
129.611
162.816
195.591
227.538
258.243
287.28
314.219
338.644
360.156
378.392
393.027
403.789
410.474
412.92
411.062
404.987
394.697
380.369
362.237
340.605
315.828
288.307
258.471
226.765
193.64
159.549
124.93
90.2127
55.8266
22.0971
-10.6265
-42.0747
-72.0328
-100.338
-126.873
-151.557
-174.346
-195.226
-214.209
-231.329
-246.64
-260.201
-272.078
-282.335
-291.034
-298.231
-303.976
-308.315
-311.297
-312.92
-313.235
-312.273
-310.035
-306.524
-301.735
-295.65
-288.241
-279.474
-269.305
-257.694
-244.6
-229.984
-213.811
-196.058
-176.707
-155.754
-133.205
-109.09
-83.4513
-56.3656
-27.9331
1.70738
32.3807
63.879
95.9281
128.213
160.401
192.127
223
252.617
280.562
306.422
329.789
350.266
367.481
381.097
390.83
396.46
397.809
394.842
387.628
376.21
360.799
341.663
319.137
293.61
265.512
235.306
203.474
170.505
136.896
103.273
69.7162
36.6826
4.52493
-26.4651
-56.0749
-84.1361
-110.512
-135.131
-157.937
-178.898
-198.009
-215.293
-230.789
-244.556
-256.657
-267.176
-276.187
-283.786
-290.03
-294.959
-298.562
-300.952
-302.186
-302.305
-301.346
-299.354
-296.334
-292.256
-287.1
-280.807
-273.298
-264.492
-254.275
-242.541
-229.176
-214.053
-197.081
-178.18
-157.281
-134.389
-109.54
-82.8041
-54.3194
-24.2361
7.26865
37.086
70.0044
103.099
135.957
168.198
199.378
229.056
256.861
282.389
305.28
325.239
341.988
355.306
365.028
371.049
373.297
371.607
366.271
357.369
345.091
329.691
311.454
290.661
267.642
242.701
216.157
188.351
159.596
130.191
100.442
70.6265
41.182
12.1264
-16.5543
-44.5525
-71.6787
-97.7568
-122.651
-146.24
-168.408
-189.066
-208.122
-225.508
-241.211
-255.219
-264.256
-249.713
-233.393
-215.273
-195.333
-173.534
-149.862
-124.349
-97.0447
-68.0282
-37.4583
-5.69658
27.4181
61.4364
96.0814
131.003
165.833
200.2
233.654
265.739
296.05
324.156
349.643
372.178
391.443
407.16
419.108
427.116
431.074
430.732
426.364
418.016
405.787
389.891
370.566
348.094
322.838
295.156
265.425
234.076
201.513
168.147
134.354
100.498
66.915
34.0649
2.60691
-28.2095
-57.9321
-86.3336
-113.276
-138.66
-162.425
-184.531
-204.959
-223.708
-240.792
-256.219
-270.016
-282.205
-292.804
-301.832
-309.297
-315.209
-319.571
-322.346
-323.556
-323.183
-321.223
-317.658
-312.447
-305.578
-297.03
-286.765
-274.769
-261.034
-245.548
-228.318
-209.34
-188.639
-166.263
-142.259
-116.689
-89.6286
-61.1709
-31.4298
-0.5367
31.3237
63.8967
96.9447
130.195
163.344
196.064
228.004
258.796
288.066
315.433
340.53
362.999
382.511
398.767
411.505
420.506
425.601
426.636
423.604
416.519
405.387
390.34
371.565
349.307
323.874
295.627
264.971
232.348
198.22
163.056
127.323
91.4679
55.9102
21.0605
-12.7931
-45.3351
-76.3269
-105.58
-132.956
-158.357
-181.73
-203.049
-222.32
-239.574
-254.856
-268.23
-279.77
-289.556
-297.67
-304.19
-309.195
-312.76
-314.927
-315.761
-315.306
-313.574
-310.568
-306.275
-300.671
-293.717
-285.369
-275.575
-264.28
-251.433
-236.984
-220.887
-203.105
-183.61
-162.39
-139.451
-114.819
-88.5505
-60.7329
-31.4851
-0.961681
30.6588
63.1312
96.1822
129.515
162.792
195.647
227.681
258.477
287.608
314.641
339.158
360.757
379.07
393.769
404.581
411.296
413.76
411.9
405.795
395.462
381.074
362.867
341.148
316.276
288.657
258.721
226.917
193.698
159.518
124.817
90.0267
55.5708
21.7885
-10.9774
-42.4569
-72.4365
-100.755
-127.294
-151.978
-174.761
-195.63
-214.6
-231.704
-246.999
-260.543
-272.405
-282.646
-291.332
-298.517
-304.252
-308.583
-311.556
-313.175
-313.487
-312.522
-310.284
-306.775
-301.991
-295.913
-288.513
-279.755
-269.597
-257.997
-244.914
-230.308
-214.145
-196.4
-177.056
-156.107
-133.56
-109.442
-83.7967
-56.6981
-28.2451
1.4235
32.1336
63.6769
95.7839
128.134
160.394
192.2
223.158
252.863
280.9
306.851
330.307
350.869
368.162
381.844
391.627
397.286
398.653
395.679
388.429
376.961
361.483
342.265
319.646
294.019
265.817
235.507
203.572
170.502
136.798
103.126
69.4945
36.4013
4.19925
-26.8237
-56.4555
-84.5299
-110.913
-135.532
-158.333
-179.286
-198.386
-215.657
-231.138
-244.888
-256.972
-267.474
-276.47
-284.053
-290.283
-295.2
-298.793
-301.171
-302.397
-302.51
-301.549
-299.559
-296.542
-292.473
-287.328
-281.051
-273.561
-264.776
-254.584
-242.876
-229.538
-214.439
-197.488
-178.605
-157.717
-134.83
-109.976
-83.227
-54.7229
-24.6202
6.87532
36.94
69.8702
103.025
135.959
168.285
199.556
229.323
257.217
282.83
305.798
325.824
342.63
355.992
365.743
371.774
374.027
372.327
366.955
358.005
345.67
330.205
311.901
291.035
267.941
242.928
216.315
188.442
159.624
130.162
100.359
70.4953
41.0213
11.9285
-16.7852
-44.8112
-71.9612
-98.0596
-122.971
-146.574
-168.754
-189.421
-208.483
-225.874
-241.579
-255.587
-264.68
-250.156
-233.855
-215.751
-195.826
-174.038
-150.373
-124.859
-97.543
-68.5071
-37.9105
-6.09508
27.0653
61.1421
95.8579
130.862
165.788
200.259
233.826
266.025
296.449
324.666
350.256
372.885
392.231
408.016
420.016
428.058
432.035
431.689
427.292
418.895
406.605
390.633
371.221
348.651
323.291
295.501
265.662
234.208
201.545
168.086
134.208
100.281
66.6403
33.7368
2.22831
-28.617
-58.3629
-86.781
-113.732
-139.119
-162.882
-184.982
-205.401
-224.141
-241.214
-256.63
-270.417
-282.597
-293.187
-302.209
-309.669
-315.579
-319.938
-322.716
-323.93
-323.561
-321.607
-318.047
-312.845
-305.986
-297.446
-287.189
-275.202
-261.475
-245.996
-228.769
-209.792
-189.091
-166.713
-142.704
-117.126
-90.0521
-61.5785
-31.8155
-0.890539
31.0128
63.6343
96.7399
130.058
163.286
196.094
228.131
259.025
288.399
315.871
341.068
363.634
383.234
399.566
412.367
421.415
426.539
427.594
424.559
417.444
406.268
391.158
372.303
349.951
324.413
296.051
265.276
232.532
198.286
163.011
127.174
91.2268
55.5896
20.6686
-13.2386
-45.8223
-76.8436
-106.116
-133.5
-158.902
-182.268
-203.575
-222.83
-240.065
-255.325
-268.676
-280.194
-289.957
-298.049
-304.549
-309.536
-313.083
-315.239
-316.066
-315.606
-313.875
-310.872
-306.587
-300.993
-294.052
-285.719
-275.94
-264.661
-251.83
-237.396
-221.313
-203.543
-184.059
-162.845
-139.908
-115.272
-88.9935
-61.1577
-31.8831
-1.32393
30.3413
62.8712
95.9885
129.398
162.762
195.713
227.851
258.757
288.001
315.149
339.776
361.478
379.884
394.661
405.532
412.285
414.766
412.908
406.767
396.382
381.92
363.623
341.799
316.814
289.076
259.02
227.098
193.767
159.479
124.68
89.8009
55.2632
21.4168
-11.4001
-42.9171
-72.9222
-101.256
-127.801
-152.484
-175.26
-196.116
-215.07
-232.155
-247.43
-260.954
-272.796
-283.02
-291.69
-298.861
-304.584
-308.905
-311.866
-313.48
-313.79
-312.822
-310.583
-307.077
-302.299
-296.228
-288.838
-280.093
-269.948
-258.361
-245.292
-230.698
-214.546
-196.812
-177.475
-156.532
-133.987
-109.866
-84.2122
-57.098
-28.6207
1.08146
31.8356
63.4331
95.6099
128.038
160.385
192.286
223.347
253.158
281.304
307.365
330.929
351.594
368.98
382.741
392.584
398.281
399.665
396.685
389.393
377.864
362.305
342.988
320.258
294.51
266.182
235.747
203.688
170.498
136.68
102.949
69.2273
36.0622
3.80711
-27.255
-56.9132
-85.0031
-111.395
-136.013
-158.808
-179.752
-198.839
-216.093
-231.557
-245.287
-257.352
-267.833
-276.809
-284.374
-290.587
-295.489
-299.068
-301.434
-302.65
-302.757
-301.793
-299.803
-296.792
-292.732
-287.601
-281.343
-273.876
-265.117
-254.954
-243.279
-229.972
-214.902
-197.977
-179.115
-158.242
-135.359
-110.5
-83.7352
-55.2074
-25.0799
6.41023
36.7559
69.7057
102.934
135.961
168.39
199.768
229.644
257.644
283.359
306.42
326.528
343.402
356.817
366.602
372.649
374.902
373.191
367.776
358.77
346.366
330.824
312.436
291.483
268.301
243.201
216.503
188.55
159.657
130.126
100.26
70.338
40.8277
11.6903
-17.0627
-45.1222
-72.3006
-98.4234
-123.355
-146.975
-169.169
-189.847
-208.917
-226.313
-242.021
-256.029
-265.175
-250.672
-234.393
-216.309
-196.402
-174.628
-150.97
-125.455
-98.1254
-69.0668
-38.4395
-6.56103
26.6524
60.7974
95.5956
130.697
165.733
200.328
234.025
266.358
296.915
325.261
350.971
373.709
393.151
409.015
421.076
429.158
433.157
432.803
428.374
419.921
407.559
391.5
371.985
349.301
323.82
295.903
265.938
234.36
201.581
168.012
134.037
100.025
66.318
33.3526
1.78644
-29.0931
-58.8664
-87.3037
-114.265
-139.656
-163.415
-185.509
-205.918
-224.646
-241.706
-257.11
-270.884
-283.053
-293.634
-302.649
-310.104
-316.011
-320.366
-323.147
-324.366
-324.002
-322.054
-318.502
-313.31
-306.461
-297.931
-287.685
-275.708
-261.99
-246.518
-229.296
-210.32
-189.619
-167.238
-143.224
-117.635
-90.5465
-62.0545
-32.2667
-1.30512
30.649
63.3267
96.4993
129.897
163.217
196.129
228.277
259.291
288.787
316.381
341.697
364.375
384.077
400.499
413.373
422.478
427.637
428.713
425.673
418.524
407.297
392.114
373.166
350.704
325.041
296.545
265.63
232.746
198.362
162.956
126.999
90.9435
55.2131
20.2098
-13.7602
-46.3925
-77.4483
-106.742
-134.136
-159.538
-182.897
-204.19
-223.426
-240.639
-255.874
-269.197
-280.688
-290.425
-298.491
-304.968
-309.933
-313.46
-315.604
-316.422
-315.957
-314.225
-311.227
-306.95
-301.369
-294.443
-286.127
-276.366
-265.106
-252.294
-237.878
-221.811
-204.056
-184.583
-163.378
-140.443
-115.803
-89.5117
-61.6547
-32.3491
-1.74803
29.9688
62.5663
95.7609
129.259
162.725
195.788
228.048
259.083
288.459
315.74
340.496
362.319
380.834
395.703
406.644
413.442
415.943
414.082
407.903
397.456
382.909
364.507
342.56
317.442
289.565
259.369
227.309
193.845
159.433
124.518
89.5348
54.903
20.981
-11.8954
-43.4559
-73.4905
-101.842
-128.394
-153.076
-175.843
-196.685
-215.619
-232.682
-247.933
-261.434
-273.253
-283.457
-292.108
-299.263
-304.972
-309.281
-312.23
-313.838
-314.144
-313.171
-310.932
-307.43
-302.657
-296.596
-289.219
-280.488
-270.358
-258.787
-245.732
-231.153
-215.015
-197.292
-177.965
-157.028
-134.486
-110.361
-84.6983
-57.5659
-29.0605
0.680624
31.4858
63.1473
95.4056
127.924
160.374
192.386
223.566
253.502
281.775
307.965
331.655
352.439
369.934
383.789
393.703
399.445
400.848
397.858
390.519
378.92
363.264
343.833
320.971
295.082
266.608
236.026
203.822
170.492
136.539
102.742
68.9137
35.6645
3.34794
-27.7597
-57.4486
-85.5562
-111.958
-136.575
-159.364
-180.296
-199.367
-216.602
-232.047
-245.753
-257.794
-268.25
-277.205
-284.749
-290.943
-295.826
-299.389
-301.74
-302.945
-303.045
-302.077
-300.088
-297.083
-293.034
-287.92
-281.683
-274.242
-265.515
-255.387
-243.748
-230.479
-215.442
-198.548
-179.711
-158.854
-135.978
-111.112
-84.3291
-55.7731
-25.6143
5.88292
36.5228
69.5088
102.825
135.961
168.512
200.016
230.019
258.142
283.976
307.145
327.349
344.304
357.78
367.606
373.671
375.924
374.195
368.734
359.662
347.178
331.545
313.061
292.006
268.719
243.518
216.723
188.676
159.695
130.083
100.143
70.1546
40.6007
11.4113
-17.3874
-45.4856
-72.6971
-98.8483
-123.804
-147.444
-169.653
-190.344
-209.424
-226.826
-242.537
-256.545
-265.741
-251.263
-235.009
-216.947
-197.06
-175.302
-151.654
-126.137
-98.7922
-69.7077
-39.0454
-7.0954
26.1786
60.4014
95.2938
130.506
165.668
200.404
234.252
266.738
297.448
325.942
351.789
374.653
394.204
410.159
422.29
430.417
434.439
434.076
429.611
421.096
408.652
392.491
372.859
350.044
324.423
296.362
266.252
234.533
201.62
167.927
133.839
99.7304
65.9464
32.9127
1.28135
-29.6382
-59.443
-87.9021
-114.875
-140.27
-164.026
-186.112
-206.509
-225.224
-242.268
-257.658
-271.419
-283.575
-294.146
-303.151
-310.601
-316.503
-320.857
-323.64
-324.864
-324.505
-322.565
-319.021
-313.841
-307.004
-298.485
-288.252
-276.287
-262.58
-247.116
-229.898
-210.924
-190.223
-167.84
-143.818
-118.217
-91.1123
-62.5994
-32.7836
-1.78125
30.2319
62.9735
96.2225
129.711
163.137
196.167
228.444
259.594
289.23
316.963
342.416
365.222
385.042
401.567
414.526
423.695
428.895
429.992
426.946
419.762
408.474
393.208
374.154
351.565
325.759
297.109
266.034
232.989
198.448
162.892
126.796
90.6172
54.78
19.6831
-14.3587
-47.0465
-78.1416
-107.459
-134.865
-160.268
-183.617
-204.895
-224.109
-241.295
-256.501
-269.794
-281.253
-290.959
-298.997
-305.447
-310.387
-313.893
-316.021
-316.828
-316.358
-314.625
-311.632
-307.366
-301.798
-294.89
-286.594
-276.854
-265.615
-252.825
-238.429
-222.381
-204.643
-185.184
-163.987
-141.055
-116.41
-90.1057
-62.2245
-32.8837
-2.23482
29.5409
62.216
95.4986
129.099
162.681
195.873
228.272
259.454
288.982
316.415
341.32
363.282
381.921
396.895
407.917
414.767
417.292
415.426
409.203
398.686
384.042
365.517
343.43
318.159
290.123
259.766
227.548
193.933
159.378
124.331
89.2277
54.4891
20.4804
-12.4639
-44.0743
-74.142
-102.513
-129.074
-153.753
-176.51
-197.335
-216.247
-233.285
-248.509
-261.983
-273.776
-283.957
-292.586
-299.722
-305.416
-309.711
-312.647
-314.247
-314.547
-313.571
-311.331
-307.832
-303.068
-297.018
-289.654
-280.94
-270.827
-259.274
-246.237
-231.674
-215.552
-197.842
-178.526
-157.597
-135.057
-110.929
-85.2553
-58.1024
-29.5652
0.220464
31.084
62.818
95.1705
127.793
160.359
192.499
223.815
253.894
282.313
308.649
332.484
353.406
371.027
384.988
394.985
400.778
402.203
399.2
391.809
380.128
364.363
344.799
321.787
295.736
267.095
236.344
203.975
170.485
136.374
102.504
68.5526
35.2075
2.82097
-28.3384
-58.062
-86.1898
-112.602
-137.219
-159.999
-180.918
-199.971
-217.185
-232.606
-246.286
-258.3
-268.728
-277.658
-285.178
-291.35
-296.21
-299.755
-302.089
-303.282
-303.373
-302.401
-300.414
-297.415
-293.378
-288.282
-282.072
-274.661
-265.969
-255.88
-244.285
-231.058
-216.06
-199.202
-180.393
-159.556
-136.687
-111.814
-85.0091
-56.4202
-26.2225
5.2984
36.2344
69.2774
102.697
135.959
168.649
200.299
230.446
258.712
284.682
307.976
328.289
345.336
358.882
368.755
374.843
377.094
375.343
369.829
360.683
348.107
332.37
313.774
292.603
269.198
243.88
216.973
188.819
159.738
130.033
100.008
69.9448
40.34
11.091
-17.7594
-45.9018
-73.151
-99.3346
-124.318
-147.98
-170.208
-190.913
-210.003
-227.413
-243.127
-257.136
-266.377
-251.928
-235.701
-217.665
-197.802
-176.062
-152.424
-126.906
-99.5441
-70.4302
-39.7281
-7.69947
25.6429
59.9536
94.9516
130.288
165.594
200.489
234.506
267.165
298.047
326.707
352.711
375.715
395.39
411.448
423.656
431.834
435.883
435.509
431.004
422.42
409.882
393.608
373.842
350.88
325.102
296.878
266.605
234.727
201.662
167.829
133.613
99.3955
65.522
32.4187
0.713117
-30.2525
-60.0932
-88.5767
-115.563
-140.961
-164.713
-186.791
-207.174
-225.873
-242.901
-258.275
-272.019
-284.161
-294.721
-303.717
-311.159
-317.058
-321.409
-324.195
-325.423
-325.071
-323.139
-319.605
-314.438
-307.615
-299.11
-288.89
-276.939
-263.243
-247.789
-230.576
-211.604
-190.903
-168.517
-144.487
-118.873
-91.7497
-63.2133
-33.3665
-2.3198
29.7611
62.574
95.9089
129.5
163.044
196.208
228.631
259.934
289.728
317.619
343.225
366.176
386.129
402.77
415.825
425.067
430.314
431.434
428.381
421.156
409.802
394.441
375.266
352.534
326.568
297.744
266.488
233.261
198.542
162.817
126.565
90.2469
54.289
19.0879
-15.0353
-47.7853
-78.9244
-108.269
-135.687
-161.09
-184.429
-205.688
-224.879
-242.035
-257.208
-270.467
-281.889
-291.561
-299.567
-305.986
-310.899
-314.38
-316.49
-317.286
-316.809
-315.076
-312.089
-307.833
-302.282
-295.393
-287.119
-277.403
-266.189
-253.422
-239.049
-223.023
-205.304
-185.861
-164.674
-141.746
-117.096
-90.776
-62.8678
-33.4874
-2.78545
29.0571
61.8194
95.2008
128.917
162.629
195.966
228.522
259.871
289.57
317.174
342.247
364.367
383.147
398.24
409.353
416.261
418.812
416.939
410.669
400.073
385.318
366.656
344.41
318.966
290.75
260.212
227.816
194.03
159.313
124.118
88.8787
54.0205
19.914
-13.1068
-44.773
-74.8778
-103.271
-129.84
-154.518
-177.263
-198.069
-216.955
-233.964
-249.157
-262.601
-274.365
-284.519
-293.125
-300.239
-305.915
-310.194
-313.117
-314.708
-315.001
-314.021
-311.781
-308.286
-303.53
-297.492
-290.144
-281.448
-271.356
-259.823
-246.806
-232.262
-216.156
-198.462
-179.159
-158.237
-135.701
-111.57
-85.8838
-58.7083
-30.1354
-0.299579
30.6293
62.4441
94.9041
127.643
160.34
192.623
224.093
254.333
282.917
309.419
333.417
354.495