/*--------------------------------*- C++ -*----------------------------------*\
| =========                 |                                                 |
| \\      /  F ield         | OpenFOAM: The Open Source CFD Toolbox           |
|  \\    /   O peration     | Version:  3.0.1                                 |
|   \\  /    A nd           | Web:      www.OpenFOAM.org                      |
|    \\/     M anipulation  |                                                 |
\*---------------------------------------------------------------------------*/
FoamFile
{
    version     2.0;
    format      ascii;
    class       volScalarField;
    location    "69.4";
    object      p;
}
// * * * * * * * * * * * * * * * * * * * * * * * * * * * * * * * * * * * * * //

dimensions      [1 -1 -2 0 0 0 0];

internalField   nonuniform List<scalar> 
21420
(
3612.1
3629.48
3648.75
3669.88
3692.84
3717.61
3744.16
3772.39
3802.21
3833.48
3866
3899.57
3933.96
3968.83
4003.85
4038.62
4072.71
4105.74
4137.25
4166.82
4194.06
4218.56
4239.95
4257.92
4272.17
4282.48
4288.7
4290.63
4288.31
4281.77
4271.15
4256.57
4238.26
4216.52
4191.65
4164.01
4134.02
4102.08
4068.6
4034.03
3998.74
3963.08
3927.41
3898.48
3864.59
3831.78
3800.33
3770.4
3742.11
3715.58
3690.86
3667.98
3646.96
3627.79
3610.47
3594.94
3581.17
3569.14
3558.79
3550.09
3543.01
3537.55
3533.67
3531.39
3530.74
3531.7
3534.22
3538.36
3544.14
3551.55
3560.63
3571.41
3583.88
3598.05
3613.94
3631.55
3650.86
3671.84
3694.45
3718.64
3744.36
3771.52
3800.01
3829.72
3860.53
3892.31
3925.03
3957.99
3991.04
4023.93
4056.35
4087.94
4118.35
4147.19
4174.09
4198.68
4220.61
4239.56
4255.24
4267.38
4275.79
4280.3
4280.76
4277.2
4269.63
4258.06
4242.64
4223.56
4201.07
4175.49
4147.16
4116.49
4083.91
4049.88
4014.87
3979.32
3943.69
3908.39
3873.79
3840.24
3808
3777.33
3748.4
3721.36
3696.31
3673.3
3652.35
3633.47
3616.62
3601.75
3588.8
3577.69
3568.36
3560.73
3554.7
3550.2
3547.15
3545.49
3545.18
3546.13
3548.33
3551.75
3556.39
3562.25
3569.36
3577.73
3587.41
3598.44
3610.87
3624.76
3640.15
3657.09
3675.62
3695.77
3717.54
3740.93
3765.9
3792.38
3820.29
3849.5
3879.83
3911.1
3943.05
3975.4
4007.84
4040.03
4071.61
4102.19
4131.36
4158.72
4183.87
4206.41
4225.97
4242.2
4254.82
4263.58
4268.29
4268.77
4265.1
4257.28
4245.36
4229.57
4210.14
4187.39
4161.69
4133.42
4103.04
4070.98
4037.71
4003.68
3969.34
3935.09
3901.35
3868.43
3836.64
3806.23
3777.38
3750.24
3724.89
3701.39
3679.76
3660.01
3642.11
3626.03
3611.69
3599.05
3588.03
3578.55
3570.54
3563.96
3558.73
3554.83
3552.21
3550.84
3550.7
3551.79
3554.07
3557.54
3562.22
3568.12
3575.25
3583.64
3593.3
3604.27
3616.57
3630.23
3645.3
3661.81
3679.8
3699.28
3720.25
3742.71
3766.63
3791.94
3818.56
3846.37
3875.24
3904.99
3935.41
3966.23
3997.17
4027.95
4058.21
4087.61
4115.75
4142.24
4166.68
4188.64
4207.76
4223.68
4236.07
4244.7
4249.37
4249.92
4246.44
4238.89
4227.36
4212.06
4193.23
4171.18
4146.25
4118.87
4089.45
4058.46
4026.37
3993.63
3960.69
3927.99
3895.86
3864.57
3834.39
3805.55
3778.23
3752.54
3728.58
3706.4
3686.01
3667.4
3650.53
3635.38
3621.89
3609.97
3599.57
3590.61
3583
3576.67
3571.59
3567.72
3565.09
3563.6
3563.19
3563.8
3565.38
3567.88
3571.3
3575.63
3580.9
3587.14
3594.42
3602.81
3612.4
3623.3
3635.66
3649.56
3665.14
3682.5
3701.71
3722.79
3745.76
3770.52
3796.99
3824.97
3854.18
3884.1
3914.98
3946.33
3977.75
4008.83
4039.16
4068.36
4096.04
4121.82
4145.37
4166.34
4184.46
4199.47
4211.17
4219.43
4224.19
4225.31
4222.86
4217
4207.86
4195.61
4180.47
4162.71
4142.61
4120.46
4096.58
4071.27
4044.81
4017.53
3989.68
3961.54
3933.36
3905.37
3877.8
3851.01
3825.14
3799.83
3775.42
3752.08
3729.91
3709.02
3689.48
3671.32
3654.56
3513.92
3531.31
3550.57
3571.7
3594.66
3619.43
3645.98
3674.21
3704.04
3735.31
3767.84
3801.41
3835.81
3870.7
3905.74
3940.52
3974.63
4007.67
4039.21
4068.79
4096.05
4120.57
4141.98
4159.95
4174.22
4184.54
4190.76
4192.7
4190.37
4183.83
4173.19
4158.6
4140.29
4118.53
4093.64
4065.98
4035.97
4004.01
3970.52
3935.93
3900.63
3864.96
3829.27
3800.31
3766.41
3733.6
3702.15
3672.21
3643.93
3617.4
3592.67
3569.8
3548.78
3529.61
3512.29
3496.76
3483
3470.97
3460.62
3451.92
3444.85
3439.38
3435.51
3433.23
3432.57
3433.53
3436.05
3440.2
3445.97
3453.38
3462.47
3473.24
3485.71
3499.88
3515.77
3533.38
3552.69
3573.67
3596.27
3620.47
3646.19
3673.35
3701.84
3731.56
3762.37
3794.16
3826.89
3859.85
3892.92
3925.82
3958.25
3989.86
4020.29
4049.14
4076.06
4100.67
4122.62
4141.58
4157.27
4169.42
4177.84
4182.36
4182.81
4179.25
4171.68
4160.1
4144.67
4125.58
4103.08
4077.47
4049.13
4018.44
3985.84
3951.79
3916.75
3881.19
3845.54
3810.23
3775.62
3742.06
3709.82
3679.14
3650.21
3623.17
3598.12
3575.11
3554.16
3535.28
3518.43
3503.56
3490.62
3479.52
3470.19
3462.56
3456.53
3452.04
3448.99
3447.33
3447.03
3447.98
3450.18
3453.6
3458.24
3464.1
3471.2
3479.57
3489.25
3500.27
3512.71
3526.59
3541.98
3558.92
3577.45
3597.59
3619.36
3642.75
3667.72
3694.21
3722.12
3751.33
3781.67
3812.95
3844.91
3877.27
3909.72
3941.93
3973.52
4004.12
4033.31
4060.69
4085.86
4108.41
4127.99
4144.24
4156.87
4165.63
4170.35
4170.83
4167.16
4159.33
4147.4
4131.6
4112.16
4089.39
4063.67
4035.38
4004.98
3972.9
3939.61
3905.56
3871.2
3836.95
3803.19
3770.26
3738.47
3708.05
3679.2
3652.05
3626.7
3603.2
3581.58
3561.83
3543.93
3527.85
3513.52
3500.88
3489.86
3480.39
3472.38
3465.8
3460.58
3456.68
3454.06
3452.68
3452.55
3453.64
3455.92
3459.39
3464.07
3469.97
3477.1
3485.49
3495.15
3506.11
3518.41
3532.07
3547.14
3563.65
3581.63
3601.11
3622.08
3644.54
3668.46
3693.77
3720.39
3748.21
3777.09
3806.84
3837.28
3868.1
3899.06
3929.84
3960.12
3989.53
4017.7
4044.21
4068.66
4090.64
4109.78
4125.71
4138.11
4146.75
4151.43
4151.98
4148.49
4140.94
4129.4
4114.09
4095.25
4073.17
4048.23
4020.82
3991.39
3960.38
3928.27
3895.51
3862.56
3829.84
3797.71
3766.4
3736.22
3707.38
3680.05
3654.36
3630.4
3608.22
3587.84
3569.22
3552.36
3537.22
3523.72
3511.81
3501.42
3492.46
3484.85
3478.52
3473.44
3469.58
3466.95
3465.46
3465.05
3465.67
3467.25
3469.75
3473.16
3477.49
3482.76
3489
3496.27
3504.66
3514.25
3525.14
3537.49
3551.39
3566.96
3584.32
3603.53
3624.61
3647.57
3672.34
3698.81
3726.8
3756.02
3785.94
3816.84
3848.2
3879.64
3910.74
3941.08
3970.3
3998
4023.79
4047.35
4068.34
4086.47
4101.49
4113.2
4121.47
4126.23
4127.35
4124.89
4119.02
4109.88
4097.62
4082.46
4064.7
4044.58
4022.41
3998.52
3973.19
3946.73
3919.43
3891.57
3863.43
3835.24
3807.24
3779.66
3752.86
3727
3701.68
3677.27
3653.92
3631.75
3610.85
3591.31
3573.15
3556.39
3415.67
3433.05
3452.31
3473.44
3496.39
3521.17
3547.72
3575.96
3605.79
3637.07
3669.61
3703.2
3737.62
3772.53
3807.6
3842.42
3876.56
3909.64
3941.21
3970.84
3998.13
4022.69
4044.13
4062.13
4076.42
4086.76
4092.99
4094.95
4092.59
4086.05
4075.39
4060.78
4042.44
4020.65
3995.72
3968.03
3937.98
3905.98
3872.45
3837.83
3802.5
3766.81
3731.09
3702.09
3668.17
3635.34
3603.88
3573.95
3545.66
3519.13
3494.41
3471.53
3450.52
3431.36
3414.04
3398.52
3384.76
3372.73
3362.38
3353.69
3346.62
3341.16
3337.28
3335.01
3334.35
3335.3
3337.83
3341.97
3347.74
3355.15
3364.23
3375
3387.47
3401.64
3417.52
3435.13
3454.44
3475.42
3498.03
3522.23
3547.95
3575.11
3603.61
3633.33
3664.15
3695.95
3728.71
3761.69
3794.77
3827.7
3860.16
3891.81
3922.26
3951.15
3978.11
4002.75
4024.73
4043.72
4059.43
4071.61
4080.04
4084.58
4085.03
4081.46
4073.88
4062.29
4046.84
4027.72
4005.19
3979.55
3951.16
3920.43
3887.8
3853.71
3818.63
3783.03
3747.36
3712.02
3677.39
3643.8
3611.55
3580.86
3551.93
3524.88
3499.83
3476.82
3455.88
3437.01
3420.16
3405.3
3392.36
3381.27
3371.95
3364.33
3358.31
3353.82
3350.77
3349.13
3348.82
3349.78
3351.98
3355.4
3360.04
3365.9
3372.99
3381.36
3391.03
3402.06
3414.48
3428.36
3443.74
3460.68
3479.2
3499.34
3521.11
3544.5
3569.47
3595.96
3623.88
3653.1
3683.45
3714.75
3746.73
3779.11
3811.59
3843.83
3875.45
3906.08
3935.31
3962.73
3987.93
4010.52
4030.13
4046.41
4059.06
4067.84
4072.58
4073.07
4069.38
4061.54
4049.59
4033.76
4014.29
3991.49
3965.73
3937.41
3906.96
3874.84
3841.52
3807.44
3773.04
3738.76
3704.98
3672.03
3640.22
3609.79
3580.93
3553.78
3528.43
3504.93
3483.31
3463.57
3445.68
3429.6
3415.28
3402.65
3391.63
3382.16
3374.17
3367.59
3362.37
3358.47
3355.85
3354.48
3354.35
3355.44
3357.72
3361.19
3365.87
3371.77
3378.9
3387.28
3396.94
3407.9
3420.19
3433.85
3448.91
3465.42
3483.4
3502.87
3523.84
3546.3
3570.22
3595.54
3622.17
3650
3678.88
3708.65
3739.1
3769.95
3800.93
3831.74
3862.05
3891.49
3919.69
3946.23
3970.72
3992.74
4011.91
4027.87
4040.3
4048.95
4053.64
4054.21
4050.7
4043.14
4031.59
4016.25
3997.38
3975.27
3950.29
3922.84
3893.37
3862.32
3830.17
3797.38
3764.4
3731.65
3699.5
3668.18
3637.98
3609.13
3581.79
3556.1
3532.14
3509.97
3489.58
3470.98
3454.12
3438.98
3425.49
3413.59
3403.2
3394.25
3386.65
3380.32
3375.24
3371.39
3368.77
3367.28
3366.87
3367.49
3369.07
3371.58
3374.99
3379.32
3384.58
3390.82
3398.08
3406.46
3416.04
3426.93
3439.26
3453.15
3468.71
3486.06
3505.26
3526.34
3549.31
3574.08
3600.56
3628.56
3657.8
3687.74
3718.67
3750.05
3781.52
3812.65
3843.02
3872.28
3900.01
3925.84
3949.43
3970.45
3988.6
4003.64
4015.37
4023.64
4028.4
4029.54
4027.06
4021.18
4012.01
3999.73
3984.56
3966.76
3946.62
3924.42
3900.5
3875.15
3848.66
3821.34
3793.46
3765.3
3737.09
3709.07
3681.49
3654.68
3628.8
3603.48
3579.06
3555.71
3533.53
3512.63
3493.09
3474.92
3458.16
3317.34
3334.71
3353.97
3375.09
3398.04
3422.82
3449.37
3477.62
3507.46
3538.76
3571.31
3604.93
3639.38
3674.33
3709.45
3744.31
3778.51
3811.64
3843.27
3872.95
3900.3
3924.92
3946.4
3964.45
3978.77
3989.14
3995.38
3997.37
3994.98
3988.42
3977.74
3963.1
3944.71
3922.87
3897.9
3870.14
3840.04
3807.98
3774.41
3739.73
3704.36
3668.63
3632.88
3603.79
3569.85
3537.01
3505.54
3475.6
3447.31
3420.77
3396.05
3373.18
3352.17
3333.02
3315.71
3300.19
3286.44
3274.42
3264.08
3255.39
3248.33
3242.87
3238.99
3236.72
3236.06
3237.01
3239.53
3243.68
3249.44
3256.85
3265.92
3276.69
3289.15
3303.32
3319.2
3336.81
3356.12
3377.09
3399.71
3423.91
3449.64
3476.8
3505.31
3535.05
3565.88
3597.69
3630.49
3663.5
3696.61
3729.58
3762.08
3793.77
3824.28
3853.22
3880.22
3904.92
3926.94
3945.98
3961.73
3973.94
3982.39
3986.94
3987.41
3983.83
3976.24
3964.62
3949.14
3929.98
3907.4
3881.71
3853.27
3822.48
3789.78
3755.63
3720.5
3684.85
3649.13
3613.75
3579.09
3545.48
3513.2
3482.5
3453.55
3426.51
3401.45
3378.45
3357.51
3338.64
3321.81
3306.96
3294.03
3282.95
3273.64
3266.03
3260.02
3255.54
3252.5
3250.87
3250.56
3251.53
3253.73
3257.15
3261.79
3267.64
3274.74
3283.1
3292.76
3303.78
3316.2
3330.07
3345.44
3362.37
3380.89
3401.02
3422.79
3446.18
3471.15
3497.65
3525.58
3554.81
3585.18
3616.5
3648.51
3680.93
3713.45
3745.73
3777.4
3808.08
3837.36
3864.83
3890.09
3912.73
3932.39
3948.71
3961.4
3970.21
3974.96
3975.47
3971.76
3963.9
3951.93
3936.06
3916.54
3893.69
3867.87
3839.49
3808.98
3776.81
3743.43
3709.29
3674.85
3640.53
3606.71
3573.73
3541.89
3511.45
3482.58
3455.43
3430.08
3406.58
3384.96
3365.23
3347.34
3331.27
3316.97
3304.35
3293.34
3283.88
3275.89
3269.32
3264.11
3260.22
3257.6
3256.23
3256.11
3257.2
3259.47
3262.95
3267.62
3273.52
3280.64
3289.02
3298.67
3309.63
3321.91
3335.57
3350.62
3367.12
3385.1
3404.57
3425.54
3448
3471.92
3497.24
3523.88
3551.72
3580.62
3610.41
3640.89
3671.77
3702.78
3733.64
3763.99
3793.48
3821.73
3848.33
3872.87
3894.95
3914.17
3930.17
3942.63
3951.31
3956.02
3956.61
3953.07
3945.49
3933.91
3918.54
3899.62
3877.47
3852.43
3824.92
3795.39
3764.28
3732.07
3699.23
3666.2
3633.42
3601.23
3569.88
3539.67
3510.8
3483.46
3457.77
3433.81
3411.64
3391.26
3372.66
3355.82
3340.68
3327.2
3315.31
3304.93
3295.99
3288.39
3282.07
3277
3273.15
3270.54
3269.06
3268.66
3269.28
3270.87
3273.37
3276.78
3281.11
3286.36
3292.59
3299.85
3308.21
3317.78
3328.65
3340.97
3354.85
3370.39
3387.72
3406.92
3427.99
3450.96
3475.74
3502.23
3530.26
3559.51
3589.48
3620.45
3651.87
3683.39
3714.57
3744.99
3774.29
3802.08
3827.95
3851.59
3872.65
3890.84
3905.92
3917.66
3925.96
3930.71
3931.86
3929.36
3923.46
3914.27
3901.95
3886.74
3868.91
3848.72
3826.49
3802.53
3777.14
3750.61
3723.25
3695.34
3667.15
3638.91
3610.88
3583.27
3556.45
3530.56
3505.22
3480.79
3457.43
3435.25
3414.34
3394.8
3376.63
3359.87
3218.93
3236.3
3255.55
3276.66
3299.61
3324.39
3350.94
3379.2
3409.05
3440.37
3472.95
3506.61
3541.1
3576.1
3611.27
3646.2
3680.47
3713.68
3745.39
3775.14
3802.57
3827.25
3848.8
3866.91
3881.28
3891.68
3897.94
3899.95
3897.54
3890.96
3880.24
3865.55
3847.11
3825.2
3800.16
3772.33
3742.15
3710.02
3676.37
3641.63
3606.21
3570.43
3534.63
3505.43
3471.45
3438.6
3407.12
3377.17
3348.87
3322.33
3297.61
3274.75
3253.75
3234.6
3217.3
3201.8
3188.06
3176.04
3165.71
3157.03
3149.97
3144.51
3140.65
3138.38
3137.71
3138.66
3141.18
3145.32
3151.08
3158.48
3167.55
3178.32
3190.77
3204.93
3220.81
3238.41
3257.72
3278.7
3301.31
3325.52
3351.25
3378.43
3406.95
3436.7
3467.55
3499.38
3532.22
3565.27
3598.43
3631.45
3664.01
3695.76
3726.33
3755.34
3782.42
3807.18
3829.27
3848.36
3864.16
3876.41
3884.9
3889.46
3889.95
3886.36
3878.75
3867.1
3851.58
3832.37
3809.72
3783.96
3755.44
3724.57
3691.8
3657.57
3622.37
3586.65
3550.86
3515.43
3480.72
3447.07
3414.77
3384.05
3355.09
3328.04
3302.98
3279.98
3259.05
3240.2
3223.38
3208.54
3195.63
3184.56
3175.27
3167.67
3161.67
3157.21
3154.18
3152.56
3152.26
3153.23
3155.43
3158.85
3163.49
3169.34
3176.43
3184.78
3194.44
3205.44
3217.85
3231.71
3247.08
3263.99
3282.5
3302.63
3324.39
3347.78
3372.76
3399.26
3427.21
3456.46
3486.85
3518.21
3550.26
3582.72
3615.29
3647.63
3679.37
3710.11
3739.47
3767.01
3792.34
3815.06
3834.78
3851.16
3863.9
3872.74
3877.5
3878.03
3874.31
3866.43
3854.42
3838.5
3818.92
3795.99
3770.1
3741.64
3711.05
3678.8
3645.34
3611.14
3576.63
3542.25
3508.38
3475.36
3443.5
3413.03
3384.15
3356.99
3331.64
3308.14
3286.53
3266.81
3248.93
3232.88
3218.58
3205.98
3194.99
3185.54
3177.56
3171
3165.8
3161.91
3159.3
3157.94
3157.81
3158.9
3161.18
3164.65
3169.33
3175.22
3182.34
3190.71
3200.35
3211.3
3223.58
3237.23
3252.28
3268.77
3286.73
3306.2
3327.16
3349.63
3373.55
3398.88
3425.53
3453.39
3482.31
3512.13
3542.65
3573.57
3604.63
3635.53
3665.95
3695.5
3723.82
3750.49
3775.1
3797.25
3816.54
3832.6
3845.11
3853.83
3858.55
3859.16
3855.61
3848
3836.39
3820.97
3801.99
3779.76
3754.65
3727.06
3697.45
3666.26
3633.98
3601.07
3567.98
3535.15
3502.91
3471.53
3441.29
3412.4
3385.05
3359.35
3335.39
3313.23
3292.86
3274.27
3257.44
3242.32
3228.85
3216.97
3206.6
3197.67
3190.09
3183.78
3178.71
3174.87
3172.27
3170.8
3170.41
3171.03
3172.62
3175.12
3178.54
3182.86
3188.11
3194.33
3201.57
3209.92
3219.46
3230.32
3242.61
3256.47
3271.99
3289.31
3308.49
3329.56
3352.53
3377.32
3403.83
3431.88
3461.17
3491.17
3522.19
3553.67
3585.25
3616.49
3646.98
3676.35
3704.2
3730.14
3753.84
3774.96
3793.2
3808.32
3820.09
3828.4
3833.16
3834.32
3831.8
3825.88
3816.65
3804.29
3789.03
3771.14
3750.9
3728.61
3704.59
3679.15
3652.57
3625.17
3597.22
3568.98
3540.71
3512.65
3485.02
3458.18
3432.27
3406.91
3382.47
3359.1
3336.9
3315.99
3296.44
3278.27
3261.51
3120.45
3137.81
3157.05
3178.15
3201.1
3225.87
3252.43
3280.7
3310.57
3341.91
3374.53
3408.22
3442.77
3477.83
3513.08
3548.09
3582.45
3615.75
3647.55
3677.4
3704.92
3729.69
3751.33
3769.51
3783.93
3794.37
3800.66
3802.68
3800.27
3793.66
3782.89
3768.14
3749.63
3727.65
3702.51
3674.59
3644.31
3612.09
3578.35
3543.54
3508.04
3472.2
3436.36
3407
3372.98
3340.11
3308.61
3278.65
3250.35
3223.81
3199.09
3176.23
3155.24
3136.11
3118.82
3103.33
3089.6
3077.6
3067.28
3058.61
3051.55
3046.1
3042.23
3039.97
3039.29
3040.24
3042.76
3046.89
3052.65
3060.04
3069.11
3079.87
3092.31
3106.47
3122.35
3139.95
3159.25
3180.23
3202.84
3227.06
3252.8
3279.98
3308.52
3338.29
3369.15
3401.02
3433.92
3467.01
3500.22
3533.31
3565.94
3597.77
3628.42
3657.52
3684.68
3709.53
3731.7
3750.87
3766.73
3779.03
3787.56
3792.14
3792.65
3789.05
3781.41
3769.73
3754.15
3734.87
3712.15
3686.3
3657.69
3626.72
3593.84
3559.52
3524.22
3488.41
3452.55
3417.05
3382.29
3348.59
3316.26
3285.51
3256.54
3229.48
3204.42
3181.42
3160.51
3141.66
3124.86
3110.04
3097.15
3086.1
3076.83
3069.24
3063.26
3058.81
3055.81
3054.19
3053.9
3054.88
3057.09
3060.51
3065.14
3070.99
3078.07
3086.41
3096.06
3107.05
3119.45
3133.29
3148.64
3165.55
3184.05
3204.17
3225.92
3249.31
3274.29
3300.81
3328.77
3358.04
3388.47
3419.86
3451.96
3484.48
3517.12
3549.53
3581.35
3612.18
3641.62
3669.26
3694.68
3717.48
3737.29
3753.74
3766.54
3775.43
3780.22
3780.76
3777.03
3769.11
3757.05
3741.07
3721.41
3698.4
3672.41
3643.85
3613.16
3580.81
3547.26
3512.97
3478.38
3443.93
3410
3376.93
3345.03
3314.53
3285.64
3258.47
3233.11
3209.62
3188.02
3168.3
3150.45
3134.41
3120.13
3107.54
3096.57
3087.14
3079.18
3072.63
3067.43
3063.55
3060.95
3059.6
3059.47
3060.56
3062.84
3066.31
3070.98
3076.87
3083.98
3092.34
3101.98
3112.92
3125.19
3138.83
3153.86
3170.34
3188.3
3207.76
3228.72
3251.19
3275.11
3300.45
3327.12
3355
3383.95
3413.8
3444.37
3475.34
3506.46
3537.43
3567.92
3597.56
3625.96
3652.72
3677.42
3699.66
3719.03
3735.16
3747.74
3756.5
3761.25
3761.86
3758.31
3750.67
3739.01
3723.52
3704.47
3682.15
3656.95
3629.27
3599.55
3568.26
3535.88
3502.89
3469.72
3436.83
3404.54
3373.11
3342.83
3313.93
3286.56
3260.86
3236.9
3214.74
3194.38
3175.81
3158.99
3143.88
3130.43
3118.57
3108.21
3099.3
3091.73
3085.43
3080.37
3076.55
3073.96
3072.5
3072.12
3072.75
3074.34
3076.85
3080.26
3084.57
3089.81
3096.02
3103.25
3111.58
3121.1
3131.92
3144.19
3158.02
3173.52
3190.81
3209.98
3231.04
3254.01
3278.81
3305.35
3333.44
3362.77
3392.81
3423.89
3455.44
3487.09
3518.42
3548.99
3578.44
3606.38
3632.4
3656.18
3677.37
3695.68
3710.84
3722.66
3730.99
3735.76
3736.91
3734.38
3728.42
3719.14
3706.73
3691.41
3673.45
3653.14
3630.78
3606.7
3581.19
3554.55
3527.09
3499.08
3470.8
3442.49
3414.38
3386.73
3359.87
3333.93
3308.55
3284.09
3260.71
3238.5
3217.58
3198.02
3179.85
3163.09
3021.9
3039.24
3058.46
3079.56
3102.5
3127.27
3153.84
3182.12
3212.02
3243.39
3276.04
3309.78
3344.39
3379.53
3414.87
3449.98
3484.44
3517.85
3549.77
3579.73
3607.36
3632.25
3653.98
3672.24
3686.74
3697.23
3703.55
3705.59
3703.17
3696.52
3685.69
3670.88
3652.28
3630.2
3604.96
3576.92
3546.53
3514.2
3480.35
3445.44
3409.85
3373.95
3338.06
3308.48
3274.43
3241.54
3210.03
3180.05
3151.74
3125.2
3100.49
3077.63
3056.65
3037.54
3020.26
3004.79
2991.07
2979.08
2968.77
2960.11
2953.07
2947.62
2943.76
2941.49
2940.82
2941.76
2944.28
2948.41
2954.16
2961.54
2970.6
2981.35
2993.79
3007.94
3023.81
3041.4
3060.71
3081.68
3104.3
3128.52
3154.27
3181.47
3210.03
3239.81
3270.71
3302.6
3335.58
3368.72
3402
3435.16
3467.87
3499.8
3530.55
3559.76
3587.02
3611.97
3634.24
3653.49
3669.43
3681.8
3690.37
3694.98
3695.5
3691.91
3684.23
3672.5
3656.86
3637.5
3614.69
3588.73
3560
3528.91
3495.92
3461.47
3426.06
3390.15
3354.2
3318.61
3283.78
3250.04
3217.66
3186.88
3157.89
3130.82
3105.77
3082.77
3061.87
3043.04
3026.26
3011.46
2998.59
2987.57
2978.31
2970.75
2964.8
2960.36
2957.38
2955.78
2955.49
2956.48
2958.69
2962.12
2966.75
2972.59
2979.66
2987.99
2997.62
3008.6
3020.98
3034.81
3050.14
3067.03
3085.52
3105.63
3127.38
3150.76
3175.75
3202.28
3230.26
3259.56
3290.03
3321.47
3353.63
3386.22
3418.93
3451.43
3483.35
3514.28
3543.83
3571.58
3597.11
3620.02
3639.92
3656.46
3669.33
3678.28
3683.1
3683.65
3679.91
3671.95
3659.84
3643.77
3624.02
3600.91
3574.8
3546.12
3515.32
3482.85
3449.18
3414.79
3380.11
3345.57
3311.56
3278.43
3246.48
3215.96
3187.04
3159.86
3134.5
3111.02
3089.43
3069.72
3051.88
3035.86
3021.61
3009.04
2998.09
2988.68
2980.74
2974.2
2969.01
2965.15
2962.55
2961.2
2961.09
2962.18
2964.45
2967.92
2972.59
2978.47
2985.57
2993.93
3003.56
3014.49
3026.75
3040.37
3055.39
3071.86
3089.8
3109.25
3130.21
3152.68
3176.61
3201.96
3228.64
3256.55
3285.54
3315.43
3346.06
3377.08
3408.28
3439.33
3469.9
3499.64
3528.14
3555.01
3579.82
3602.17
3621.64
3637.86
3650.51
3659.32
3664.1
3664.73
3661.17
3653.49
3641.77
3626.21
3607.07
3584.65
3559.33
3531.53
3501.69
3470.28
3437.79
3404.69
3371.42
3338.46
3306.11
3274.63
3244.31
3215.38
3188
3162.29
3138.33
3116.18
3095.83
3077.27
3060.47
3045.38
3031.95
3020.1
3009.77
3000.87
2993.32
2987.03
2981.99
2978.18
2975.6
2974.16
2973.79
2974.43
2976.02
2978.53
2981.94
2986.25
2991.48
2997.67
3004.88
3013.18
3022.68
3033.47
3045.71
3059.5
3074.97
3092.24
3111.38
3132.44
3155.41
3180.23
3206.79
3234.92
3264.3
3294.39
3325.55
3357.19
3388.93
3420.35
3451.02
3480.58
3508.61
3534.74
3558.61
3579.88
3598.26
3613.49
3625.35
3633.72
3638.49
3639.63
3637.09
3631.09
3621.76
3609.27
3593.88
3575.85
3555.46
3533.01
3508.84
3483.25
3456.54
3429.01
3400.94
3372.6
3344.24
3316.09
3288.39
3261.52
3235.54
3210.14
3185.66
3162.26
3140.04
3119.11
3099.54
3081.37
3064.6
2923.26
2940.59
2959.8
2980.88
3003.82
3028.59
3055.17
3083.46
3113.38
3144.78
3177.48
3211.28
3245.96
3281.2
3316.64
3351.86
3386.45
3419.99
3452.04
3482.14
3509.9
3534.91
3556.76
3575.12
3589.7
3600.25
3606.61
3608.66
3606.23
3599.53
3588.65
3573.75
3555.05
3532.86
3507.49
3479.32
3448.8
3416.34
3382.37
3347.33
3311.65
3275.68
3239.75
3209.87
3175.81
3142.9
3111.36
3081.37
3053.05
3026.5
3001.79
2978.95
2957.99
2938.88
2921.62
2906.17
2892.47
2880.5
2870.2
2861.55
2854.52
2849.08
2845.22
2842.96
2842.28
2843.21
2845.73
2849.85
2855.6
2862.97
2872.02
2882.76
2895.19
2909.33
2925.2
2942.79
2962.09
2983.06
3005.68
3029.91
3055.68
3082.89
3111.46
3141.27
3172.2
3204.13
3237.2
3270.4
3303.75
3337
3369.81
3401.85
3432.72
3462.05
3489.43
3514.5
3536.88
3556.24
3572.27
3584.71
3593.33
3597.98
3598.52
3594.92
3587.21
3575.43
3559.71
3540.26
3517.33
3491.25
3462.38
3431.16
3398.02
3363.44
3327.9
3291.87
3255.8
3220.12
3185.22
3151.41
3118.98
3088.17
3059.16
3032.08
3007.02
2984.04
2963.15
2944.34
2927.58
2912.8
2899.96
2888.96
2879.74
2872.2
2866.27
2861.86
2858.89
2857.31
2857.04
2858.03
2860.25
2863.68
2868.3
2874.14
2881.2
2889.52
2899.13
2910.1
2922.45
2936.26
2951.58
2968.45
2986.92
3007.02
3028.76
3052.15
3077.14
3103.68
3131.68
3161.02
3191.53
3223.02
3255.26
3287.92
3320.73
3353.33
3385.36
3416.42
3446.09
3473.97
3499.63
3522.66
3542.68
3559.32
3572.28
3581.28
3586.14
3586.71
3582.96
3574.95
3562.77
3546.62
3526.76
3503.52
3477.28
3448.46
3417.51
3384.91
3351.11
3316.59
3281.8
3247.16
3213.06
3179.87
3147.86
3117.3
3088.36
3061.17
3035.81
3012.33
2990.75
2971.06
2953.24
2937.25
2923.01
2910.48
2899.55
2890.16
2882.24
2875.71
2870.55
2866.69
2864.1
2862.76
2862.65
2863.74
2866.02
2869.48
2874.15
2880.02
2887.12
2895.46
2905.08
2916
2928.24
2941.85
2956.86
2973.31
2991.24
3010.68
3031.64
3054.1
3078.04
3103.4
3130.11
3158.05
3187.07
3217.01
3247.71
3278.8
3310.08
3341.22
3371.9
3401.75
3430.37
3457.37
3482.31
3504.78
3524.37
3540.69
3553.43
3562.3
3567.12
3567.76
3564.19
3556.46
3544.68
3529.03
3509.78
3487.24
3461.79
3433.85
3403.86
3372.32
3339.69
3306.47
3273.1
3240.05
3207.62
3176.08
3145.72
3116.76
3089.35
3063.63
3039.68
3017.54
2997.2
2978.66
2961.88
2946.81
2933.4
2921.58
2911.27
2902.39
2894.86
2888.59
2883.55
2879.76
2877.21
2875.78
2875.42
2876.07
2877.67
2880.18
2883.59
2887.89
2893.11
2899.28
2906.47
2914.74
2924.2
2934.96
2947.16
2960.91
2976.34
2993.59
3012.71
3033.75
3056.73
3081.56
3108.16
3136.34
3165.77
3195.92
3227.16
3258.9
3290.75
3322.29
3353.07
3382.75
3410.9
3437.14
3461.12
3482.5
3500.97
3516.27
3528.19
3536.58
3541.36
3542.5
3539.94
3533.89
3524.49
3511.93
3496.45
3478.32
3457.84
3435.29
3411.03
3385.35
3358.55
3330.94
3302.8
3274.39
3245.96
3217.76
3190.02
3163.12
3137.11
3111.68
3087.17
3063.75
3041.51
3020.57
3001
2982.82
2966.05
2824.56
2841.86
2861.05
2882.13
2905.05
2929.82
2956.41
2984.72
3014.67
3046.11
3078.85
3112.72
3147.49
3182.83
3218.39
3253.74
3288.47
3322.16
3354.36
3384.61
3412.52
3437.68
3459.66
3478.14
3492.81
3503.43
3509.83
3511.9
3509.46
3502.71
3491.76
3476.76
3457.95
3435.63
3410.12
3381.8
3351.12
3318.51
3284.39
3249.23
3213.43
3177.37
3141.43
3111.16
3077.11
3044.17
3012.61
2982.6
2954.27
2927.72
2903.02
2880.19
2859.23
2840.15
2822.91
2807.48
2793.8
2781.85
2771.57
2762.93
2755.9
2750.47
2746.63
2744.36
2743.68
2744.61
2747.12
2751.24
2756.97
2764.33
2773.38
2784.11
2796.52
2810.65
2826.51
2844.1
2863.39
2884.37
2906.99
2931.23
2957.01
2984.24
3012.84
3042.67
3073.63
3105.6
3138.77
3172.04
3205.48
3238.83
3271.76
3303.92
3334.93
3364.39
3391.92
3417.12
3439.63
3459.11
3475.24
3487.77
3496.45
3501.14
3501.7
3498.09
3490.34
3478.5
3462.7
3443.13
3420.08
3393.85
3364.84
3333.45
3300.15
3265.41
3229.72
3193.55
3157.36
3121.58
3086.58
3052.7
3020.22
2989.37
2960.33
2933.24
2908.18
2885.2
2864.33
2845.55
2828.81
2814.07
2801.25
2790.28
2781.09
2773.58
2767.68
2763.3
2760.35
2758.79
2758.53
2759.54
2761.76
2765.19
2769.81
2775.64
2782.69
2790.99
2800.59
2811.53
2823.87
2837.65
2852.95
2869.8
2888.25
2908.34
2930.07
2953.45
2978.45
3005.01
3033.04
3062.42
3092.98
3124.53
3156.84
3189.6
3222.51
3255.23
3287.39
3318.58
3348.4
3376.43
3402.23
3425.41
3445.56
3462.32
3475.37
3484.45
3489.36
3489.94
3486.17
3478.11
3465.85
3449.6
3429.61
3406.23
3379.84
3350.86
3319.75
3286.99
3253.04
3218.38
3183.45
3148.7
3114.51
3081.23
3049.17
3018.56
2989.59
2962.39
2937.03
2913.56
2891.99
2872.32
2854.52
2838.55
2824.35
2811.84
2800.95
2791.58
2783.68
2777.18
2772.02
2768.18
2765.61
2764.28
2764.17
2765.26
2767.54
2771
2775.66
2781.52
2788.61
2796.94
2806.55
2817.45
2829.68
2843.27
2858.26
2874.7
2892.61
2912.04
2932.99
2955.46
2979.4
3004.78
3031.51
3059.48
3088.55
3118.55
3149.32
3180.5
3211.86
3243.12
3273.92
3303.89
3332.65
3359.79
3384.88
3407.49
3427.22
3443.66
3456.5
3465.44
3470.31
3470.96
3467.37
3459.59
3447.74
3431.99
3412.61
3389.94
3364.33
3336.23
3306.08
3274.38
3241.6
3208.23
3174.74
3141.59
3109.07
3077.47
3047.05
3018.06
2990.63
2964.9
2940.95
2918.81
2898.5
2879.98
2863.22
2848.18
2834.79
2822.99
2812.71
2803.86
2796.35
2790.1
2785.06
2781.3
2778.77
2777.36
2777.02
2777.68
2779.28
2781.79
2785.2
2789.5
2794.7
2800.86
2808.01
2816.25
2825.68
2836.39
2848.55
2862.25
2877.64
2894.85
2913.95
2934.98
2957.96
2982.81
3009.44
3037.68
3067.19
3097.4
3128.74
3160.59
3192.56
3224.23
3255.15
3284.96
3313.25
3339.62
3363.73
3385.22
3403.79
3419.17
3431.15
3439.58
3444.38
3445.51
3442.92
3436.81
3427.34
3414.7
3399.12
3380.88
3360.28
3337.63
3313.26
3287.47
3260.57
3232.87
3204.64
3176.16
3147.66
3119.4
3091.61
3064.68
3038.62
3013.16
2988.62
2965.18
2942.93
2921.97
2902.39
2884.2
2867.43
2725.77
2743.05
2762.23
2783.29
2806.2
2830.97
2857.57
2885.9
2915.88
2947.36
2980.16
3014.1
3048.96
3084.42
3120.11
3155.62
3190.5
3224.36
3256.73
3287.16
3315.24
3340.56
3362.69
3381.3
3396.08
3406.78
3413.22
3415.31
3412.85
3406.05
3395.01
3379.91
3360.97
3338.5
3312.83
3284.35
3253.49
3220.71
3186.44
3151.12
3115.19
3079.04
3043.09
3012.37
2978.33
2945.37
2913.78
2883.74
2855.4
2828.85
2804.15
2781.33
2760.4
2741.34
2724.12
2708.71
2695.06
2683.12
2672.86
2664.24
2657.23
2651.8
2647.96
2645.7
2645.01
2645.94
2648.45
2652.56
2658.28
2665.63
2674.66
2685.38
2697.78
2711.9
2727.75
2745.33
2764.62
2785.6
2808.23
2832.48
2858.27
2885.52
2914.14
2944.01
2975
3007.02
3040.3
3073.66
3107.19
3140.65
3173.71
3206.01
3237.17
3266.8
3294.48
3319.84
3342.49
3362.1
3378.35
3390.97
3399.73
3404.46
3405.04
3401.42
3393.63
3381.72
3365.82
3346.14
3322.94
3296.55
3267.36
3235.79
3202.31
3167.39
3131.53
3095.2
3058.87
3022.97
2987.87
2953.91
2921.37
2890.48
2861.41
2834.3
2809.25
2786.28
2765.43
2746.67
2729.96
2715.25
2702.47
2691.53
2682.37
2674.9
2669.03
2664.67
2661.76
2660.22
2659.98
2660.99
2663.22
2666.65
2671.27
2677.09
2684.13
2692.41
2701.99
2712.91
2725.22
2738.98
2754.25
2771.08
2789.51
2809.58
2831.3
2854.68
2879.69
2906.27
2934.33
2963.74
2994.36
3025.99
3058.39
3091.25
3124.28
3157.13
3189.43
3220.78
3250.77
3278.96
3304.93
3328.26
3348.56
3365.46
3378.62
3387.79
3392.74
3393.34
3389.56
3381.44
3369.09
3352.71
3332.59
3309.04
3282.48
3253.32
3222.03
3189.09
3154.97
3120.15
3085.08
3050.2
3015.9
2982.53
2950.4
2919.74
2890.74
2863.53
2838.17
2814.7
2793.15
2773.5
2755.73
2739.79
2725.62
2713.14
2702.28
2692.94
2685.07
2678.59
2673.45
2669.62
2667.06
2665.74
2665.64
2666.73
2669.01
2672.47
2677.12
2682.97
2690.05
2698.37
2707.97
2718.85
2731.06
2744.63
2759.6
2776.02
2793.92
2813.34
2834.28
2856.74
2880.7
2906.09
2932.85
2960.86
2989.98
3020.03
3050.9
3082.16
3113.64
3145.01
3175.94
3206.06
3234.98
3262.28
3287.53
3310.31
3330.19
3346.77
3359.71
3368.74
3373.66
3374.33
3370.72
3362.88
3350.94
3335.08
3315.57
3292.73
3266.96
3238.67
3208.34
3176.45
3143.5
3109.98
3076.35
3043.09
3010.47
2978.79
2948.31
2919.28
2891.82
2866.09
2842.14
2820.02
2799.72
2781.22
2764.49
2749.47
2736.11
2724.35
2714.09
2705.27
2697.78
2691.55
2686.53
2682.8
2680.29
2678.9
2678.57
2679.25
2680.86
2683.37
2686.78
2691.06
2696.25
2702.39
2709.51
2717.72
2727.1
2737.77
2749.87
2763.52
2778.87
2796.04
2815.1
2836.12
2859.1
2883.97
2910.65
2938.95
2968.53
2998.82
3030.27
3062.25
3094.36
3126.17
3157.24
3187.2
3215.65
3242.17
3266.42
3288.04
3306.72
3322.2
3334.25
3342.73
3347.54
3348.66
3346.04
3339.87
3330.32
3317.57
3301.88
3283.53
3262.8
3240.02
3215.52
3189.62
3162.61
3134.8
3106.48
3077.91
3049.33
3021
2993.16
2966.2
2940.09
2914.59
2890.02
2866.55
2844.28
2823.31
2803.72
2785.52
2768.74
2626.91
2644.16
2663.32
2684.36
2707.27
2732.04
2758.64
2787
2817.01
2848.54
2881.4
2915.42
2950.39
2985.97
3021.82
3057.49
3092.55
3126.59
3159.15
3189.77
3218.05
3243.55
3265.85
3284.6
3299.5
3310.29
3316.79
3318.89
3316.41
3309.56
3298.43
3283.21
3264.12
3241.49
3215.64
3186.96
3155.92
3122.95
3088.49
3053.01
3016.93
2980.67
2944.69
2913.52
2879.48
2846.49
2814.86
2784.81
2756.45
2729.9
2705.2
2682.4
2661.49
2642.45
2625.26
2609.87
2596.24
2584.33
2574.09
2565.49
2558.49
2553.07
2549.24
2546.98
2546.29
2547.21
2549.71
2553.81
2559.52
2566.86
2575.88
2586.58
2598.97
2613.08
2628.92
2646.49
2665.78
2686.75
2709.39
2733.65
2759.45
2786.73
2815.38
2845.27
2876.3
2908.38
2941.8
2975.23
3008.87
3042.46
3075.66
3108.13
3139.46
3169.25
3197.11
3222.64
3245.46
3265.22
3281.6
3294.32
3303.16
3307.94
3308.54
3304.92
3297.08
3285.09
3269.08
3249.27
3225.91
3199.34
3169.95
3138.18
3104.5
3069.38
3033.33
2996.83
2960.34
2924.31
2889.09
2855.04
2822.43
2791.49
2762.4
2735.28
2710.22