/*--------------------------------*- C++ -*----------------------------------*\
| =========                 |                                                 |
| \\      /  F ield         | OpenFOAM: The Open Source CFD Toolbox           |
|  \\    /   O peration     | Version:  3.0.1                                 |
|   \\  /    A nd           | Web:      www.OpenFOAM.org                      |
|    \\/     M anipulation  |                                                 |
\*---------------------------------------------------------------------------*/
FoamFile
{
    version     2.0;
    format      ascii;
    class       volScalarField;
    location    "69.4";
    object      p_rgh;
}
// * * * * * * * * * * * * * * * * * * * * * * * * * * * * * * * * * * * * * //

dimensions      [1 -1 -2 0 0 0 0];

internalField   nonuniform List<scalar> 
21420
(
-262.855
-245.466
-226.196
-205.066
-182.111
-157.336
-130.79
-102.556
-72.7358
-41.4683
-8.94799
24.6212
59.0064
93.881
128.904
163.67
197.763
230.789
262.305
291.872
319.109
343.614
365.002
382.965
397.218
407.532
413.749
415.677
413.358
406.821
396.195
381.616
363.313
341.57
316.701
289.061
259.07
227.128
193.654
159.08
123.793
88.1319
52.4595
23.5261
-10.3623
-43.1735
-74.6237
-104.554
-132.836
-159.368
-184.092
-206.971
-227.99
-247.156
-264.485
-280.013
-293.778
-305.815
-316.165
-324.862
-331.936
-337.405
-341.283
-343.557
-344.215
-343.254
-340.733
-336.587
-330.812
-323.403
-314.319
-303.541
-291.071
-276.901
-261.012
-243.404
-224.091
-203.117
-180.51
-156.315
-130.598
-103.446
-74.9604
-45.2502
-14.4483
17.3288
50.042
82.9924
116.037
148.922
181.33
212.918
243.317
272.15
299.043
323.628
345.554
364.497
380.166
392.306
400.709
405.219
405.67
402.112
394.542
382.964
367.543
348.463
325.977
300.39
272.062
241.392
208.814
174.785
139.767
104.219
68.5877
33.286
-1.30881
-34.8651
-67.098
-97.7707
-126.697
-153.736
-178.789
-201.801
-222.747
-241.63
-258.483
-273.354
-286.305
-297.41
-306.739
-314.376
-320.406
-324.904
-327.958
-329.617
-329.923
-328.97
-326.773
-323.351
-318.713
-312.851
-305.75
-297.378
-287.699
-276.67
-264.236
-250.346
-234.957
-218.015
-199.483
-179.338
-157.566
-134.179
-109.21
-82.7231
-54.814
-25.6105
4.72127
35.9976
67.9492
100.297
132.737
164.93
196.508
227.085
256.26
283.624
308.772
331.311
350.871
367.108
379.727
388.484
393.198
393.679
390.01
382.187
370.272
354.478
335.054
312.307
286.602
258.34
227.954
195.897
162.627
128.6
94.2562
60.0139
26.2701
-6.64822
-38.4357
-68.8481
-97.6942
-124.838
-150.187
-173.686
-195.311
-215.063
-232.962
-249.05
-263.38
-276.023
-287.047
-296.526
-304.53
-311.117
-316.341
-320.245
-322.865
-324.239
-324.378
-323.284
-321.01
-317.533
-312.851
-306.953
-299.822
-291.436
-281.774
-270.809
-258.511
-244.844
-229.774
-213.263
-195.28
-175.803
-154.827
-132.366
-108.451
-83.1418
-56.5219
-28.7056
0.162032
29.9075
60.337
91.1506
122.097
152.87
183.137
212.534
240.679
267.174
291.609
313.581
332.703
348.617
361.016
369.646
374.326
374.879
371.406
363.857
352.336
337.042
318.221
296.17
271.253
243.87
214.457
183.474
151.386
118.654
85.7183
53.0156
20.8975
-10.3981
-40.576
-69.4097
-96.7318
-122.419
-146.377
-168.555
-188.944
-207.557
-224.418
-239.569
-253.067
-264.98
-275.379
-284.339
-291.948
-298.282
-303.364
-307.231
-309.857
-311.353
-311.761
-311.147
-309.568
-307.067
-303.65
-299.32
-294.054
-287.809
-280.533
-272.143
-262.551
-251.647
-239.295
-225.387
-209.813
-192.453
-173.243
-152.156
-129.195
-104.428
-77.9637
-49.9826
-20.7725
9.14517
40.0341
71.3769
102.801
133.885
164.208
193.409
221.093
246.872
270.416
291.39
309.507
324.517
336.22
344.484
349.237
350.357
347.912
342.045
332.907
320.658
305.518
287.763
267.662
245.508
221.63
196.316
169.863
142.577
114.73
86.5944
58.412
30.4183
2.85032
-23.9438
-49.8058
-75.1175
-99.528
-122.869
-145.04
-165.935
-185.473
-203.634
-220.392
-262.931
-245.544
-226.276
-205.148
-182.194
-157.419
-130.871
-102.636
-72.8117
-41.5393
-9.01271
24.5648
58.9606
93.8481
128.886
163.669
197.779
230.823
262.358
291.944
319.2
343.722
365.127
383.104
397.368
407.691
413.913
415.852
413.518
406.978
396.345
381.754
363.437
341.679
316.792
289.133
259.123
227.162
193.671
159.08
123.78
88.1066
52.4206
23.4632
-10.4356
-43.2511
-74.7045
-104.637
-132.92
-159.453
-184.176
-207.054
-228.071
-247.235
-264.561
-280.087
-293.849
-305.884
-316.232
-324.928
-332.001
-337.469
-341.346
-343.62
-344.277
-343.319
-340.798
-336.653
-330.879
-323.471
-314.389
-303.612
-291.145
-276.975
-261.088
-243.48
-224.168
-203.194
-180.587
-156.392
-130.673
-103.52
-75.0309
-45.3176
-14.5122
17.2698
49.9947
82.9539
116.008
148.906
181.328
212.931
243.347
272.197
299.107
323.708
345.65
364.609
380.29
392.44
400.852
405.373
405.817
402.258
394.685
383.101
367.669
348.577
326.074
300.47
272.123
241.433
208.835
174.786
139.75
104.185
68.5378
33.2227
-1.38346
-34.9489
-67.1888
-97.8665
-126.796
-153.837
-178.89
-201.901
-222.845
-241.725
-258.575
-273.443
-286.391
-297.491
-306.816
-314.45
-320.477
-324.972
-328.023
-329.678
-329.983
-329.03
-326.832
-323.41
-318.772
-312.911
-305.812
-297.442
-287.765
-276.738
-264.307
-250.421
-235.034
-218.094
-199.565
-179.421
-157.651
-134.263
-109.293
-82.8048
-54.8923
-25.684
4.65431
35.9382
67.8998
100.259
132.712
164.92
196.514
227.108
256.301
283.683
308.85
331.407
350.983
367.235
379.866
388.632
393.354
393.836
390.161
382.333
370.41
354.604
335.164
312.4
286.676
258.394
227.989
195.912
162.623
128.578
94.2189
59.9625
26.2063
-6.722
-38.5172
-68.935
-97.7846
-124.93
-150.279
-173.778
-195.401
-215.15
-233.047
-249.132
-263.459
-276.097
-287.118
-296.594
-304.595
-311.179
-316.401
-320.304
-322.923
-324.296
-324.432
-323.34
-321.065
-317.59
-312.909
-307.011
-299.881
-291.497
-281.836
-270.874
-258.577
-244.912
-229.844
-213.336
-195.355
-175.879
-154.904
-132.443
-108.527
-83.2158
-56.5928
-28.7722
0.101265
29.8538
60.2922
91.1163
122.074
152.861
183.142
212.556
240.718
267.231
291.683
313.673
332.812
348.741
361.152
369.791
374.476
375.038
371.553
364.001
352.471
337.166
318.329
296.262
271.326
243.924
214.491
183.488
151.382
118.632
85.6819
52.9672
20.8384
-10.4654
-40.6495
-69.4874
-96.8121
-122.5
-146.458
-168.634
-189.021
-207.631
-224.49
-239.637
-253.132
-265.041
-275.438
-284.395
-292.001
-298.333
-303.412
-307.276
-309.9
-311.393
-311.8
-311.184
-309.605
-307.104
-303.687
-299.358
-294.093
-287.85
-280.579
-272.192
-262.605
-251.706
-239.359
-225.457
-209.888
-192.532
-173.325
-152.239
-129.278
-104.509
-78.0394
-50.0508
-20.8335
9.09249
39.9942
71.3512
102.79
133.89
164.23
193.448
221.149
246.944
270.503
291.492
309.621
324.642
336.353
344.621
349.375
350.5
348.043
342.173
333.026
320.765
305.613
287.845
267.73
245.563
221.671
196.344
169.879
142.581
114.724
86.5784
58.3873
30.3862
2.81219
-23.9859
-49.8535
-75.1694
-99.5834
-122.927
-145.101
-165.997
-185.537
-203.698
-220.456
-263.083
-245.701
-226.437
-205.312
-182.359
-157.584
-131.035
-102.795
-72.9634
-41.6815
-9.14215
24.4522
58.869
93.7822
128.85
163.665
197.81
230.891
262.464
292.088
319.381
343.94
365.377
383.383
397.67
408.01
414.241
416.201
413.84
407.295
396.643
382.031
363.686
341.896
316.974
289.277
259.229
227.231
193.705
159.081
123.753
88.0563
52.3434
23.3367
-10.5824
-43.4064
-74.866
-104.803
-133.089
-159.623
-184.345
-207.22
-228.233
-247.393
-264.714
-280.235
-293.992
-306.022
-316.367
-325.059
-332.129
-337.596
-341.47
-343.745
-344.4
-343.448
-340.926
-336.782
-331.011
-323.606
-314.525
-303.751
-291.286
-277.119
-261.233
-243.627
-224.316
-203.342
-180.734
-156.536
-130.814
-103.657
-75.162
-45.4416
-14.6284
17.1644
49.9137
82.8908
115.967
148.89
181.34
212.975
243.423
272.308
299.253
323.887
345.861
364.849
380.555
392.726
401.153
405.687
406.137
402.568
394.988
383.39
367.937
348.818
326.284
300.645
272.26
241.531
208.893
174.805
139.731
104.132
68.4541
33.1123
-1.51618
-35.0997
-67.3533
-98.0409
-126.977
-154.021
-179.074
-202.083
-223.023
-241.898
-258.741
-273.603
-286.543
-297.635
-306.953
-314.58
-320.6
-325.089
-328.134
-329.781
-330.086
-329.129
-326.93
-323.508
-318.87
-313.011
-305.915
-297.549
-287.877
-276.855
-264.429
-250.548
-235.166
-218.232
-199.707
-179.567
-157.798
-134.411
-109.44
-82.9468
-55.0276
-25.8097
4.54171
35.8405
67.8221
100.205
132.684
164.921
196.547
227.175
256.403
283.822
309.025
331.617
351.225
367.506
380.162
388.945
393.678
394.172
390.481
382.643
370.702
354.871
335.4
312.601
286.839
258.518
228.073
195.957
162.631
128.551
94.1598
59.8752
26.0942
-6.8539
-38.6645
-69.0931
-97.9495
-125.098
-150.448
-173.945
-195.566
-215.31
-233.201
-249.28
-263.599
-276.231
-287.244
-296.714
-304.709
-311.289
-316.507
-320.406
-323.023
-324.395
-324.526
-323.436
-321.161
-317.686
-313.006
-307.11
-299.983
-291.602
-281.944
-270.985
-258.692
-245.032
-229.968
-213.464
-195.486
-176.013
-155.04
-132.578
-108.661
-83.3458
-56.7168
-28.8875
-0.00248673
29.7641
60.2205
91.0654
122.046
152.86
183.171
212.617
240.813
267.361
291.85
313.875
333.047
349.006
361.44
370.097
374.792
375.369
371.863
364.304
352.756
337.426
318.559
296.458
271.485
244.043
214.57
183.528
151.384
118.6
85.6187
52.8793
20.7285
-10.5924
-40.7895
-69.6363
-96.9667
-122.657
-146.614
-168.789
-189.172
-207.776
-224.629
-239.771
-253.259
-265.162
-275.552
-284.503
-292.104
-298.431
-303.507
-307.365
-309.986
-311.473
-311.877
-311.258
-309.677
-307.175
-303.759
-299.432
-294.171
-287.933
-280.668
-272.29
-262.712
-251.823
-239.487
-225.596
-210.037
-192.69
-173.489
-152.406
-129.444
-104.669
-78.1903
-50.1871
-20.9547
8.98751
39.9148
71.3
102.77
133.901
164.274
193.526
221.26
247.088
270.679
291.696
309.85
324.892
336.617
344.894
349.65
350.787
348.306
342.429
333.263
320.981
305.805
288.01
267.868
245.673
221.753
196.401
169.911
142.59
114.711
86.5463
58.3379
30.3219
2.73587
-24.0702
-49.949
-75.2731
-99.6942
-123.044
-145.222
-166.121
-185.663
-203.827
-220.586
-263.311
-245.936
-226.679
-205.558
-182.608
-157.833
-131.28
-103.033
-73.1912
-41.8949
-9.3366
24.283
58.7314
93.6831
128.795
163.66
197.857
230.993
262.623
292.304
319.654
344.266
365.752
383.801
398.123
408.488
414.733
416.718
414.328
407.772
397.092
382.447
364.06
342.221
317.246
289.493
259.388
227.335
193.755
159.083
123.711
87.9808
52.2297
23.1445
-10.8034
-43.6394
-75.1084
-105.052
-133.342
-159.877
-184.598
-207.469
-228.477
-247.63
-264.943
-280.456
-294.207
-306.23
-316.568
-325.256
-332.322
-337.785
-341.657
-343.93
-344.588
-343.64
-341.117
-336.976
-331.208
-323.807
-314.729
-303.96
-291.499
-277.336
-261.452
-243.848
-224.538
-203.564
-180.954
-156.753
-131.026
-103.863
-75.3583
-45.6271
-14.8018
17.0069
49.7935
82.7977
115.906
148.867
181.361
213.042
243.541
272.477
299.473
324.159
346.181
365.212
380.957
393.159
401.61
406.154
406.624
403.04
395.446
383.828
368.343
349.184
326.603
300.911
272.469
241.68
208.983
174.836
139.706
104.056
68.3312
32.9493
-1.71258
-35.3233
-67.5976
-98.2999
-127.245
-154.294
-179.348
-202.354
-223.287
-242.155
-258.988
-273.839
-286.768
-297.848
-307.156
-314.772
-320.782
-325.261
-328.297
-329.934
-330.238
-329.276
-327.074
-323.652
-319.015
-313.159
-306.067
-297.707
-288.042
-277.026
-264.608
-250.737
-235.363
-218.435
-199.917
-179.782
-158.016
-134.63
-109.656
-83.1567
-55.2276
-25.995
4.37578
35.6973
67.7087
100.126
132.644
164.925
196.599
227.279
256.56
284.034
309.291
331.936
351.593
367.918
380.609
389.419
394.165
394.678
390.968
383.113
371.144
355.275
335.758
312.906
287.087
258.707
228.202
196.028
162.646
128.513
94.0738
59.7468
25.9286
-7.04932
-38.883
-69.3279
-98.1947
-125.348
-150.699
-174.194
-195.81
-215.548
-233.43
-249.499
-263.808
-276.428
-287.432
-296.892
-304.878
-311.451
-316.663
-320.558
-323.171
-324.539
-324.665
-323.578
-321.302
-317.829
-313.15
-307.257
-300.134
-291.757
-282.103
-271.15
-258.863
-245.209
-230.152
-213.654
-195.681
-176.212
-155.241
-132.779
-108.859
-83.5383
-56.9001
-29.0578
-0.155687
29.6322
60.1158
90.9916
122.008
152.862
183.217
212.71
240.958
267.559
292.103
314.181
333.403
349.406
361.876
370.559
375.269
375.863
372.335
364.761
353.187
337.82
318.908
296.755
271.725
244.224
214.691
183.589
151.388
118.552
85.525
52.7484
20.5643
-10.7824
-40.9991
-69.8594
-97.1984
-122.893
-146.85
-169.02
-189.397
-207.994
-224.839
-239.971
-253.45
-265.343
-275.724
-284.666
-292.258
-298.578
-303.649
-307.499
-310.113
-311.593
-311.991
-311.369
-309.786
-307.283
-303.868
-299.544
-294.288
-288.058
-280.802
-272.436
-262.873
-251.999
-239.68
-225.805
-210.262
-192.926
-173.735
-152.656
-129.692
-104.911
-78.4172
-50.3921
-21.1366
8.82997
39.7954
71.223
102.738
133.918
164.34
193.643
221.428
247.304
270.942
292.002
310.194
325.266
337.014
345.305
350.062
351.212
348.706
342.814
333.62
321.304
306.093
288.258
268.074
245.838
221.877
196.485
169.958
142.602
114.692
86.4981
58.2636
30.2252
2.62118
-24.1969
-50.0922
-75.4288
-99.8604
-123.219
-145.403
-166.308
-185.854
-204.019
-220.78
-263.615
-246.25
-227.001
-205.887
-182.939
-158.164
-131.607
-103.351
-73.4952
-42.1797
-9.59644
24.0569
58.5474
93.5505
128.722
163.653
197.92
231.13
262.835
292.592
320.016
344.701
366.253
384.358
398.727
409.126
415.39
417.395
414.988
408.41
397.692
383.001
364.558
342.654
317.609
289.78
259.6
227.473
193.822
159.085
123.656
87.8804
52.0831
22.8829
-11.0991
-43.9503
-75.4319
-105.385
-133.68
-160.217
-184.935
-207.802
-228.802
-247.945
-265.249
-280.752
-294.492
-306.506
-316.837
-325.518
-332.579
-338.038
-341.905
-344.176
-344.841
-343.896
-341.373
-337.235
-331.471
-324.075
-315.002
-304.238
-291.784
-277.624
-261.744
-244.142
-224.834
-203.861
-181.249
-157.042
-131.309
-104.138
-75.6203
-45.8748
-15.0332
16.7965
49.6333
82.6732
115.825
148.837
181.387
213.132
243.698
272.703
299.769
324.522
346.608
365.698
381.493
393.738
402.219
406.779
407.269
403.675
396.06
384.413
368.886
349.674
327.03
301.267
272.749
241.88
209.103
174.878
139.673
103.954
68.1675
32.7323
-1.97436
-35.6213
-67.9232
-98.6452
-127.603
-154.657
-179.712
-202.714
-223.64
-242.497
-259.317
-274.154
-287.068
-298.133
-307.426
-315.028
-321.023
-325.49
-328.513
-330.139
-330.439
-329.471
-327.265
-323.843
-319.208
-313.355
-306.269
-297.917
-288.261
-277.255
-264.847
-250.988
-235.624
-218.706
-200.197
-180.069
-158.307
-134.921
-109.944
-83.4364
-55.4937
-26.2419
4.15469
35.5066
67.5581
100.021
132.592
164.931
196.67
227.417
256.77
284.317
309.648
332.362
352.085
368.468
381.207
390.053
394.817
395.347
391.623
383.741
371.735
355.815
336.236
313.314
287.419
258.96
228.375
196.123
162.666
128.463
93.9593
59.5756
25.7079
-7.3098
-39.1743
-69.641
-98.5214
-125.682
-151.034
-174.525
-196.135
-215.864
-233.735
-249.791
-264.086
-276.691
-287.681
-297.128
-305.104
-311.667
-316.871
-320.759
-323.367
-324.73
-324.854
-323.766
-321.489
-318.018
-313.342
-307.453
-300.334
-291.963
-282.316
-271.369
-259.09
-245.445
-230.397
-213.906
-195.941
-176.478
-155.509
-133.047
-109.124
-83.7949
-57.1444
-29.2847
-0.359952
29.4558
59.9774
90.8935
121.957
152.864
183.278
212.836
241.152
267.824
292.441
314.59
333.878
349.94
362.459
371.177
375.906
376.517
372.973
365.373
353.763
338.347
319.374
297.152
272.047
244.467
214.853
183.671
151.394
118.488
85.3995
52.5738
20.345
-11.0361
-41.2789
-70.1572
-97.5078
-123.207
-147.163
-169.329
-189.698
-208.285
-225.118
-240.238
-253.704
-265.585
-275.953
-284.883
-292.465
-298.775
-303.838
-307.679
-310.283
-311.753
-312.144
-311.516
-309.93
-307.426
-304.012
-299.692
-294.443
-288.223
-280.98
-272.631
-263.087
-252.234
-239.936
-226.084
-210.56
-193.242
-174.063
-152.99
-130.025
-105.233
-78.7204
-50.6663
-21.3795
8.61983
39.6359
71.1201
102.696
133.94
164.429
193.798
221.651
247.593
271.293
292.41
310.652
325.766
337.544
345.854
350.614
351.769
349.246
343.327
334.095
321.736
306.476
288.588
268.349
246.057
222.041
196.597
170.02
142.619
114.666
86.4335
58.1642
30.0961
2.4679
-24.3659
-50.2832
-75.6364
-100.082
-123.452
-145.646
-166.557
-186.108
-204.276
-221.039
-263.996
-246.642
-227.403
-206.297
-183.354
-158.579
-132.016
-103.749
-73.8757
-42.5363
-9.922
23.7734
58.3165
93.384
128.63
163.643
197.998
231.299
263.1
292.952
320.47
345.244
366.878
385.055
399.482
409.924
416.213
418.234
415.819
409.208
398.443
383.694
365.181
343.197
318.062
290.14
259.865
227.644
193.905
159.086
123.585
87.7548
51.9082
22.5468
-11.4704
-44.3394
-75.8365
-105.801
-134.103
-160.642
-185.357
-208.217
-229.208
-248.34
-265.632
-281.122
-294.85
-306.852
-317.173
-325.845
-332.9
-338.354
-342.216
-344.485
-345.157
-344.214
-341.692
-337.558
-331.8
-324.411
-315.343
-304.585
-292.139
-277.985
-262.109
-244.51
-225.204
-204.231
-181.616
-157.404
-131.663
-104.482
-75.9483
-46.1853
-15.3228
16.5327
49.4327
82.517
115.724
148.799
181.421
213.243
243.893
272.985
300.138
324.976
347.143
366.305
382.164
394.461
402.982
407.563
408.069
404.473
396.829
385.145
369.566
350.286
327.564
301.713
273.098
242.13
209.253
174.93
139.632
103.826
67.962
32.4604
-2.30245
-35.9946
-68.3309
-99.0774
-128.051
-155.113
-180.169
-203.165
-224.081
-242.924
-259.729
-274.548
-287.443
-298.489
-307.763
-315.347
-321.325
-325.776
-328.782
-330.397
-330.69
-329.714
-327.505
-324.082
-319.448
-313.601
-306.521
-298.179
-288.535
-277.541
-265.147
-251.301
-235.95
-219.045
-200.547
-180.427
-158.67
-135.285
-110.304
-83.7866
-55.8269
-26.5513
3.87735
35.2677
67.3694
99.8897
132.526
164.938
196.757
227.59
257.033
284.672
310.093
332.895
352.7
369.156
381.955
390.846
395.635
396.179
392.447
384.529
372.475
356.49
336.834
313.824
287.834
259.276
228.592
196.242
162.69
128.399
93.8154
59.3608
25.4312
-7.63618
-39.5392
-70.0332
-98.9305
-126.1
-151.453
-174.94
-196.542
-216.26
-234.117
-250.156
-264.434
-277.02
-287.992
-297.424
-305.385
-311.936
-317.131
-321.01
-323.612
-324.968
-325.09
-324.001
-321.723
-318.254
-313.582
-307.698
-300.585
-292.22
-282.582
-271.643
-259.374
-245.74
-230.702
-214.222
-196.266
-176.81
-155.845
-133.382
-109.454
-84.1162
-57.4503
-29.5688
-0.616099
29.2347
59.8041
90.7703
121.892
152.866
183.354
212.993
241.394
268.156
292.863
315.102
334.473
350.609
363.188
371.951
376.706
377.327
373.775
366.141
354.485
339.006
319.957
297.649
272.449
244.77
215.054
183.773
151.401
118.407
85.2418
52.3547
20.0701
-11.3541
-41.6292
-70.5301
-97.8954
-123.6
-147.556
-169.715
-190.074
-208.649
-225.468
-240.572
-254.023
-265.887
-276.239
-285.154
-292.723
-299.021
-304.077
-307.905
-310.495
-311.953
-312.335
-311.7
-310.111
-307.605
-304.193
-299.878
-294.638
-288.431
-281.203
-272.875
-263.354
-252.527
-240.257
-226.432
-210.934
-193.637
-174.473
-153.408
-130.44
-105.636
-79.1003
-51.0106
-21.6836
8.35688
39.4359
70.9909
102.643
133.968
164.538
193.992
221.93
247.954
271.732
292.92
311.225
326.391
338.208
346.54
351.306
352.458
349.926
343.969
334.691
322.276
306.955
289
268.693
246.331
222.246
196.737
170.098
142.639
114.633
86.3523
58.0395
29.9343
2.27573
-24.5774
-50.522
-75.8962
-100.36
-123.744
-145.949
-166.869
-186.425
-204.598
-221.362
-264.452
-247.113
-227.887
-206.79
-183.852
-159.077
-132.508
-104.227
-74.3329
-42.965
-10.3136
23.4318
58.0383
93.183
128.519
163.63
198.09
231.502
263.417
293.383
321.014
345.897
367.63
385.893
400.39
410.883
417.202
419.238
416.816
410.165
399.345
384.526
365.929
343.848
318.607
290.572
260.182
227.85
194.003
159.086
123.499
87.6036
51.7114
22.129
-11.918
-44.8068
-76.3225
-106.301
-134.611
-161.152
-185.864
-208.716
-229.696
-248.814
-266.091
-281.565
-295.278
-307.267
-317.576
-326.238
-333.285
-338.733
-342.59
-344.858
-345.534
-344.594
-342.075
-337.945
-332.195
-324.813
-315.752
-305.003
-292.566
-278.418
-262.547
-244.952
-225.648
-204.676
-182.058
-157.838
-132.088
-104.894
-76.3426
-46.5592
-15.6712
16.2156
49.1916
82.3286
115.6
148.751
181.459
213.377
244.128
273.324
300.58
325.521
347.784
367.035
382.971
395.331
403.899
408.507
409.029
405.431
397.755
386.025
370.382
351.022
328.205
302.247
273.518
242.431
209.433
174.991
139.581
103.671
67.714
32.1327
-2.69751
-36.4439
-68.8214
-99.5972
-128.589
-155.66
-180.716
-203.707
-224.61
-243.438
-260.223
-275.02
-287.894
-298.916
-308.168
-315.73
-321.687
-326.119
-329.106
-330.708
-330.99
-330.006
-327.792
-324.368
-319.737
-313.896
-306.825
-298.493
-288.863
-277.884
-265.507
-251.678
-236.342
-219.453
-200.968
-180.858
-159.107
-135.724
-110.737
-84.2079
-56.2276
-26.9236
3.54304
34.9799
67.1421
99.731
132.446
164.946
196.861
227.797
257.347
285.096
310.627
333.535
353.439
369.982
382.854
391.799
396.619
397.176
393.437
385.476
373.364
357.302
337.552
314.436
288.332
259.655
228.851
196.383
162.718
128.322
93.6415
59.1016
25.0981
-8.02921
-39.9786
-70.505
-99.4225
-126.601
-151.956
-175.438
-197.031
-216.735
-234.576
-250.595
-264.851
-277.415
-288.366
-297.779
-305.723
-312.26
-317.443
-321.312
-323.905
-325.254
-325.372
-324.283
-322.005
-318.538
-313.87
-307.992
-300.886
-292.53
-282.901
-271.972
-259.715
-246.094
-231.069
-214.602
-196.657
-177.208
-156.248
-133.785
-109.852
-84.5026
-57.8183
-29.9108
-0.924309
28.968
59.5955
90.6214
121.814
152.868
183.445
213.18
241.684
268.553
293.37
315.716
335.187
351.412
364.064
372.881
377.667
378.3
374.739
367.063
355.351
339.798
320.657
298.245
272.932
245.133
215.296
183.894
151.408
118.309
85.0511
52.0903
19.7393
-11.7367
-42.0506
-70.9785
-98.3613
-124.073
-148.027
-170.178
-190.526
-209.086
-225.887
-240.973
-254.406
-266.25
-276.582
-285.479
-293.032
-299.317
-304.364
-308.175
-310.749
-312.192
-312.564
-311.922
-310.328
-307.82
-304.41
-300.101
-294.871
-288.679
-281.47
-273.167
-263.674
-252.878
-240.642
-226.85
-211.383
-194.111
-174.966
-153.91
-130.94
-106.122
-79.5576
-51.4255
-22.049
8.04077
39.1952
70.8351
102.579
134
164.67
194.225
222.264
248.386
272.259
293.534
311.913
327.142
339.005
347.365
352.139
353.284
350.741
344.738
335.405
322.924
307.53
289.495
269.105
246.66
222.493
196.905
170.192
142.663
114.593
86.2543
57.8891
29.7394
2.04423
-24.8313
-50.8087
-76.2082
-100.693
-124.094
-146.312
-167.243
-186.806
-204.983
-221.751
-264.985
-247.663
-228.451
-207.365
-184.434
-159.659
-133.082
-104.786
-74.8672
-43.4662
-10.7716
23.0312
57.712
92.9469
128.387
163.614
198.197
231.738
263.786
293.886
321.649
346.659
368.507
386.871
401.45
412.003
418.359
420.411
417.979
411.283
400.399
385.498
366.802
344.607
319.242
291.075
260.551
228.088
194.116
159.084
123.397
87.4265
51.5012
21.6193
-12.4423
-45.3526
-76.8902
-106.884
-135.204
-161.748
-186.456
-209.299
-230.265
-249.367
-266.626
-282.082
-295.778
-307.751
-318.046
-326.697
-333.734
-339.175
-343.026
-345.293
-345.974
-345.037
-342.521
-338.398
-332.656
-325.282
-316.23
-305.49
-293.064
-278.924
-263.059
-245.468
-226.168
-205.196
-182.574
-158.346
-132.585
-105.376
-76.8035
-46.9968
-16.0795
15.8451
48.9098
82.1079
115.455
148.694
181.504
213.531
244.4
273.718
301.097
326.156
348.533
367.887
383.913
396.347
404.97
409.612
410.15
406.548
398.836
387.052
371.335
351.881
328.953
302.871
274.007
242.78
209.641
175.062
139.52
103.489
67.4228
31.7486
-3.16031
-36.9698
-69.3955
-100.205
-129.219
-156.3
-181.357
-204.34
-225.229
-244.038
-260.8
-275.572
-288.419
-299.416
-308.641
-316.178
-322.11
-326.519
-329.484
-331.07
-331.339
-330.347
-328.128
-324.702
-320.074
-314.24
-307.179
-298.861
-289.246
-278.285
-265.927
-252.117
-236.8
-219.929
-201.46
-181.362
-159.618
-136.236
-111.243
-84.7005
-56.6967
-27.3596
3.15096
34.6432
66.8756
99.5446
132.351
164.954
196.981
228.038
257.714
285.591
311.251
334.283
354.301
370.947
383.905
392.912
397.77
398.341
394.591
386.583
374.403
358.25
338.39
315.151
288.913
260.097
229.152
196.547
162.75
128.23
93.4371
58.7973
24.7075
-8.48972
-40.4929
-71.0573
-99.9981
-127.188
-152.544
-176.021
-197.602
-217.291
-235.111
-251.108
-265.338
-277.877
-288.803
-298.192
-306.117
-312.638
-317.807
-321.665
-324.249
-325.589
-325.7
-324.611
-322.334
-318.869
-314.206
-308.336
-301.238
-292.891
-283.273
-272.357
-260.113
-246.507
-231.498
-215.046
-197.114
-177.674
-156.719
-134.256
-110.317
-84.9545
-58.2488
-30.3112
-1.28489
28.6551
59.3512
90.4461
121.721
152.868
183.549
213.397
242.021
269.016
293.96
316.432
336.021
352.35
365.088
373.968
378.792
379.436
375.864
368.142
356.364
340.722
321.475
298.941
273.496
245.557
215.577
184.035
151.415
118.193
84.8268
51.78
19.352
-12.1843
-42.5436
-71.5031
-98.906
-124.625
-148.578
-170.72
-191.054
-209.595
-226.377
-241.441
-254.853
-266.674
-276.984
-285.858
-293.393
-299.662
-304.701
-308.49
-311.044
-312.471
-312.831
-312.179
-310.58
-308.07
-304.662
-300.36
-295.142
-288.966
-281.782
-273.507
-264.048
-253.288
-241.09
-227.339
-211.907
-194.665
-175.543
-154.498
-131.525
-106.69
-80.0928
-51.9118
-22.4759
7.67094
38.9131
70.6522
102.503
134.037
164.823
194.496
222.654
248.891
272.873
294.25
312.717
328.019
339.936
348.329
353.114
354.252
351.69
345.637
336.24
323.681
308.201
290.073
269.586
247.043
222.779
197.099
170.299
142.689
114.546
86.1392
57.7129
29.5109
1.77283
-25.1276
-51.1434
-76.5727
-101.082
-124.504
-146.737
-167.68
-187.251
-205.434
-222.205
-265.594
-248.292
-229.097
-208.024
-185.099
-160.325
-133.74
-105.426
-75.4789
-44.0406
-11.2966
22.571
57.3368
92.6751
128.236
163.595
198.318
232.007
264.208
294.461
322.374
347.529
369.511
387.99
402.663
413.285
419.682
421.751
419.307
412.563
401.605
386.61
367.8
345.476
319.967
291.649
260.972
228.359
194.244
159.08
123.278
87.2223
51.2845
21.009
-13.0431
-45.977
-77.5397
-107.553
-135.883
-162.43
-187.134
-209.965
-230.916
-249.999
-267.238
-282.674
-296.35
-308.304
-318.583
-327.221
-334.247
-339.681
-343.526
-345.791
-346.476
-345.543
-343.03
-338.914
-333.183
-325.819
-316.776
-306.048
-293.633
-279.502
-263.643
-246.058
-226.762
-205.79
-183.164
-158.926
-133.153
-105.927
-77.3312
-47.4985
-16.5479
15.4204
48.5867
81.8547
115.287
148.627
181.552
213.707
244.71
274.168
301.687
326.883
349.39
368.862
384.991
397.51
406.195
410.877
411.434
407.824
400.074
388.229
372.426
352.865
329.809
303.584
274.566
243.179
209.879
175.141
139.449
103.279
67.0875
31.3073
-3.69172
-37.5733
-70.0537
-100.902
-129.94
-157.032
-182.09
-205.065
-225.938
-244.724
-261.461
-276.204
-289.021
-299.987
-309.181
-316.689
-322.593
-326.976
-329.918
-331.484
-331.739
-330.736
-328.511
-325.083
-320.459
-314.632
-307.583
-299.281
-289.684
-278.743
-266.407
-252.619
-237.324
-220.474
-202.022
-181.938
-160.204
-136.823
-111.823
-85.2649
-57.2346
-27.8598
2.70117
34.2563
66.5692
99.3295
132.241
164.961
197.117
228.311
258.131
286.156
311.963
335.137
355.288
372.052
385.107
394.187
399.089
399.676
395.911
387.85
375.592
359.335
339.35
315.969
289.577
260.601
229.496
196.732
162.784
128.123
93.2014
58.4472
24.2588
-9.01847
-41.083
-71.6906
-100.658
-127.86
-153.218
-176.687
-198.256
-217.926
-235.724
-251.694
-265.896
-278.405
-289.301
-298.666
-306.567
-313.069
-318.223
-322.067
-324.641
-325.972
-326.078
-324.987
-322.709
-319.247
-314.591
-308.728
-301.64
-293.305
-283.699
-272.796
-260.568
-246.98
-231.988
-215.553
-197.636
-178.208
-157.258
-134.796
-110.849
-85.4722
-58.7425
-30.7702
-1.69847
28.2945
59.0714
90.2439
121.614
152.867
183.666
213.643
242.405
269.544
294.635
317.251
336.975
353.423
366.26
375.213
380.08
380.738
377.15
369.378
357.524
341.781
322.411
299.738
274.14
246.04
215.897
184.194
151.421
118.059
84.5683
51.4228
18.9078
-12.6978
-43.1087
-72.1043
-99.5299
-125.258
-149.208
-171.341
-191.657
-210.178
-226.936
-241.976
-255.364
-267.159
-277.442
-286.292
-293.805
-300.056
-305.087
-308.849
-311.381
-312.789
-313.136
-312.474
-310.868
-308.356
-304.949
-300.655
-295.451
-289.294
-282.137
-273.896
-264.474
-253.756
-241.604
-227.897
-212.506
-195.299
-176.203
-155.17
-132.195
-107.341
-80.7067
-52.4704
-22.9646
7.24672
38.5891
70.4417
102.415
134.078
164.996
194.805
223.099
249.469
273.577
295.069
313.637
329.023
341.002
349.433
354.231
355.36
352.773
346.664
337.194
324.547
308.968
290.733
270.135
247.48
223.106
197.321
170.422
142.719
114.491
86.0067
57.5107
29.2483
1.46081
-25.4661
-51.5262
-76.9898
-101.528
-124.972
-147.224
-168.179
-187.76
-205.949
-222.724
-266.28
-248.999
-229.825
-208.765
-185.849
-161.076
-134.481
-106.147
-76.1686
-44.6887
-11.8898
22.0503
56.9118
92.3667
128.063
163.571
198.453
232.308
264.68
295.106
323.19
348.51
370.642
389.251
404.03
414.73
421.174
423.259
420.801
414.004
402.964
387.863
368.924
346.453
320.784
292.295
261.445
228.663
194.385
159.073
123.141
86.9885
51.036
20.3215
-13.719
-46.68
-78.2714
-108.306
-136.648
-163.198
-187.896
-210.715
-231.649
-250.71
-267.927
-283.339
-296.992
-308.926
-319.187
-327.809
-334.824
-340.249
-344.088
-346.352
-347.039
-346.11
-343.603
-339.496
-333.775
-326.422
-317.39
-306.675
-294.273
-280.153
-264.301
-246.722
-227.431
-206.46
-183.829
-159.58
-133.794
-106.547
-77.9261
-48.0644
-17.077
14.9404
48.2215
81.5689
115.096
148.549
181.605
213.903
245.057
274.673
302.351
327.702
350.354
369.96
386.205
398.82
407.577
412.304
412.88
409.262
401.469
389.555
373.656
353.973
330.774
304.387
275.195
243.627
210.144
175.228
139.366
103.039
66.7072
30.8081
-4.29277
-38.2554
-70.797
-101.688
-130.753
-157.859
-182.917
-205.882
-226.737
-245.497
-262.204
-276.915
-289.698
-300.629
-309.79
-317.264
-323.137
-327.49
-330.405
-331.95
-332.188
-331.173
-328.941
-325.512
-320.892
-315.074
-308.038
-299.753
-290.177
-279.259
-266.948
-253.185
-237.915
-221.087
-202.656
-182.588
-160.863
-137.484
-112.478
-85.9017
-57.8421
-28.4244
2.1927
33.8182
66.2222
99.085
132.114
164.967
197.267
228.617
258.6
286.791
312.764
336.099
356.399
373.296
386.461
395.625
400.577
401.182
397.398
389.28
376.932
360.558
340.431
316.889
290.324
261.168
229.881
196.94
162.821
128
92.9334
58.0504
23.7511
-9.61639
-41.7499
-72.4059
-101.403
-128.618
-153.977
-177.439
-198.993
-218.642
-236.415
-252.355
-266.524
-278.999
-289.863
-299.198
-307.074
-313.555
-318.691
-322.521
-325.083
-326.403
-326.503
-325.409
-323.131
-319.673
-315.024
-309.17
-302.093
-293.77
-284.178
-273.291
-261.081
-247.512
-232.541
-216.125
-198.225
-178.809
-157.866
-135.404
-111.45
-86.0564
-59.2998
-31.2885
-2.16542
27.8865
58.7546
90.0142
121.49
152.864
183.797
213.919
242.836
270.137
295.394