/*--------------------------------*- C++ -*----------------------------------*\
| =========                 |                                                 |
| \\      /  F ield         | OpenFOAM: The Open Source CFD Toolbox           |
|  \\    /   O peration     | Version:  3.0.1                                 |
|   \\  /    A nd           | Web:      www.OpenFOAM.org                      |
|    \\/     M anipulation  |                                                 |
\*---------------------------------------------------------------------------*/
FoamFile
{
    version     2.0;
    format      ascii;
    class       volVectorField;
    location    "64.4";
    object      U;
}
// * * * * * * * * * * * * * * * * * * * * * * * * * * * * * * * * * * * * * //

dimensions      [0 1 -1 0 0 0 0];

internalField   nonuniform List<vector> 
21420
(
(0.169936 0.00168127 0)
(0.154713 0.00174552 0)
(0.136682 0.00181731 0)
(0.118157 0.00186544 0)
(0.0994019 0.00185628 0)
(0.0806361 0.00185938 0)
(0.0620547 0.00181245 0)
(0.0438282 0.00177929 0)
(0.0260229 0.00173157 0)
(0.0088343 0.00164211 0)
(-0.00734421 0.00157663 0)
(-0.0226484 0.00149725 0)
(-0.0371978 0.00139745 0)
(-0.0508423 0.00130991 0)
(-0.063551 0.00120906 0)
(-0.0753146 0.00111937 0)
(-0.0861373 0.001029 0)
(-0.0960306 0.000933752 0)
(-0.105016 0.000847054 0)
(-0.113118 0.000761943 0)
(-0.120365 0.000676416 0)
(-0.126785 0.000596892 0)
(-0.132408 0.000519636 0)
(-0.137262 0.000443754 0)
(-0.141373 0.000371485 0)
(-0.144765 0.000300491 0)
(-0.147458 0.000231536 0)
(-0.149473 0.000163368 0)
(-0.150798 9.79889e-05 0)
(-0.151462 3.33966e-05 0)
(-0.151466 -3.49699e-05 0)
(-0.150776 -0.000104252 0)
(-0.149403 -0.000173114 0)
(-0.147323 -0.000244541 0)
(-0.144519 -0.000317373 0)
(-0.140957 -0.000392649 0)
(-0.136617 -0.000473204 0)
(-0.131476 -0.000553732 0)
(-0.125485 -0.000636369 0)
(-0.118612 -0.000729673 0)
(-0.110824 -0.000818126 0)
(-0.102066 -0.000919357 0)
(-0.0923179 -0.0010121 0)
(-0.0815514 -0.00110502 0)
(-0.0696983 -0.00121895 0)
(-0.0567252 -0.00131131 0)
(-0.0427058 -0.00140025 0)
(-0.0276949 -0.00151907 0)
(-0.0116352 -0.00160944 0)
(0.00461971 -0.00165604 0)
(0.0213645 -0.00175432 0)
(0.0392419 -0.00180099 0)
(0.0576754 -0.0018606 0)
(0.0765059 -0.00187742 0)
(0.0954661 -0.00186498 0)
(0.114292 -0.00185386 0)
(0.132782 -0.00180396 0)
(0.150653 -0.00172035 0)
(0.167622 -0.00162621 0)
(0.183432 -0.00149711 0)
(0.197834 -0.00134645 0)
(0.210574 -0.00118066 0)
(0.221462 -0.000977136 0)
(0.230294 -0.000769256 0)
(0.236948 -0.00054479 0)
(0.241264 -0.000307518 0)
(0.243153 -7.35063e-05 0)
(0.242693 0.000169293 0)
(0.239672 0.000408439 0)
(0.234318 0.000644666 0)
(0.226691 0.0008705 0)
(0.216835 0.00107406 0)
(0.204981 0.00126691 0)
(0.191287 0.00144221 0)
(0.176009 0.00158313 0)
(0.159378 0.00170411 0)
(0.141684 0.00178976 0)
(0.123149 0.00186772 0)
(0.104045 0.00191149 0)
(0.0846835 0.00192827 0)
(0.0651977 0.00192652 0)
(0.0458402 0.00190117 0)
(0.0268734 0.00185268 0)
(0.00846654 0.0018014 0)
(-0.0093276 0.00172497 0)
(-0.0263427 0.00164483 0)
(-0.0424393 0.00154689 0)
(-0.0575617 0.00144707 0)
(-0.0716441 0.00134717 0)
(-0.0846541 0.00123934 0)
(-0.0966161 0.00113522 0)
(-0.107545 0.00103594 0)
(-0.117476 0.000937393 0)
(-0.126412 0.000840074 0)
(-0.134368 0.000746936 0)
(-0.141385 0.000653029 0)
(-0.147477 0.000562082 0)
(-0.152651 0.000470894 0)
(-0.156942 0.000383596 0)
(-0.160382 0.000297243 0)
(-0.162995 0.000213362 0)
(-0.164792 0.000140916 0)
(-0.165814 6.42502e-05 0)
(-0.166108 -2.173e-06 0)
(-0.165634 -8.05524e-05 0)
(-0.16449 -0.000147347 0)
(-0.162625 -0.000220456 0)
(-0.16006 -0.000290892 0)
(-0.156772 -0.00035868 0)
(-0.152739 -0.000434724 0)
(-0.14795 -0.00050868 0)
(-0.142424 -0.000592619 0)
(-0.136075 -0.000672462 0)
(-0.128899 -0.00074766 0)
(-0.120914 -0.000830347 0)
(-0.112089 -0.000915538 0)
(-0.10243 -0.000999947 0)
(-0.0919513 -0.00108026 0)
(-0.0806333 -0.00115796 0)
(-0.0684897 -0.00124164 0)
(-0.055595 -0.00131757 0)
(-0.0419672 -0.00138344 0)
(-0.0276677 -0.00144993 0)
(-0.0127129 -0.00151285 0)
(0.00285732 -0.00156776 0)
(0.0189341 -0.00162011 0)
(0.0354359 -0.00165341 0)
(0.0522491 -0.00168172 0)
(0.0692662 -0.00169221 0)
(0.0863363 -0.00168889 0)
(0.103266 -0.00166454 0)
(0.119868 -0.00162654 0)
(0.135962 -0.00156131 0)
(0.151287 -0.00147509 0)
(0.165588 -0.00135818 0)
(0.178632 -0.00122395 0)
(0.190166 -0.00106202 0)
(0.199947 -0.000877634 0)
(0.207793 -0.000670736 0)
(0.213512 -0.000460679 0)
(0.216974 -0.000228511 0)
(0.218081 4.75311e-06 0)
(0.216857 0.000240546 0)
(0.213084 0.000493122 0)
(0.206948 0.000721897 0)
(0.198525 0.00093829 0)
(0.187972 0.00115179 0)
(0.175399 0.00134284 0)
(0.161003 0.00151226 0)
(0.145037 0.00165351 0)
(0.127778 0.00176895 0)
(0.109491 0.00186091 0)
(0.0904425 0.00191995 0)
(0.07091 0.00195185 0)
(0.0512008 0.00195038 0)
(0.0316031 0.00194236 0)
(0.012314 0.00188852 0)
(-0.00641066 0.00182714 0)
(-0.0244067 0.00174503 0)
(-0.0415242 0.00165204 0)
(-0.0576527 0.00154918 0)
(-0.0727159 0.00144104 0)
(-0.0866597 0.00132701 0)
(-0.0994538 0.00121217 0)
(-0.111111 0.00110315 0)
(-0.121602 0.000987516 0)
(-0.130999 0.000878565 0)
(-0.139337 0.000774736 0)
(-0.146667 0.000681592 0)
(-0.153071 0.00058837 0)
(-0.158554 0.000506378 0)
(-0.163208 0.000424685 0)
(-0.167095 0.000345207 0)
(-0.170188 0.000263272 0)
(-0.172527 0.000206785 0)
(-0.174235 0.000137754 0)
(-0.175315 7.42359e-05 0)
(-0.175773 2.3236e-05 0)
(-0.175626 -4.05863e-05 0)
(-0.17494 -9.755e-05 0)
(-0.173688 -0.000159887 0)
(-0.171852 -0.000208192 0)
(-0.169437 -0.000265648 0)
(-0.166441 -0.000318157 0)
(-0.162886 -0.000380302 0)
(-0.158758 -0.000433978 0)
(-0.154025 -0.00050117 0)
(-0.148643 -0.000568121 0)
(-0.142595 -0.000636064 0)
(-0.135854 -0.0006981 0)
(-0.128429 -0.000767817 0)
(-0.120328 -0.000835952 0)
(-0.1115 -0.000923425 0)
(-0.101821 -0.000993874 0)
(-0.0913347 -0.0010901 0)
(-0.0799458 -0.00117146 0)
(-0.0676135 -0.0012621 0)
(-0.0544662 -0.00134579 0)
(-0.0405505 -0.00141506 0)
(-0.0259279 -0.0014794 0)
(-0.0106862 -0.00153771 0)
(0.00509247 -0.00159224 0)
(0.021352 -0.00162905 0)
(0.0379522 -0.00166019 0)
(0.0547688 -0.00167912 0)
(0.0716793 -0.00167256 0)
(0.0884421 -0.00164793 0)
(0.104797 -0.00159017 0)
(0.120484 -0.00151657 0)
(0.135239 -0.00141063 0)
(0.1488 -0.00127783 0)
(0.160938 -0.00112027 0)
(0.171384 -0.000947425 0)
(0.179931 -0.000752009 0)
(0.186403 -0.000532858 0)
(0.190619 -0.000299378 0)
(0.192442 -6.45071e-05 0)
(0.191899 0.000174813 0)
(0.18881 0.000423617 0)
(0.183327 0.00066087 0)
(0.175535 0.000882713 0)
(0.165543 0.00109075 0)
(0.153577 0.00127559 0)
(0.139836 0.00144805 0)
(0.124571 0.00158187 0)
(0.108075 0.0016895 0)
(0.0906544 0.00176509 0)
(0.0726155 0.00181025 0)
(0.0542725 0.00183276 0)
(0.03585 0.00182459 0)
(0.0176086 0.00179742 0)
(-0.000224177 0.00174258 0)
(-0.0174864 0.00168334 0)
(-0.0340409 0.00160328 0)
(-0.0497599 0.00151922 0)
(-0.0645947 0.00142167 0)
(-0.078467 0.00133254 0)
(-0.0913718 0.00123281 0)
(-0.103345 0.00114234 0)
(-0.114388 0.0010507 0)
(-0.124512 0.000967895 0)
(-0.13379 0.000874923 0)
(-0.142214 0.00079137 0)
(-0.149804 0.000713149 0)
(-0.156586 0.000629696 0)
(-0.162522 0.000549647 0)
(-0.16766 0.000470336 0)
(-0.172003 0.000394739 0)
(-0.175566 0.000316675 0)
(-0.178424 0.000251743 0)
(-0.180646 0.000194557 0)
(-0.182306 0.00013889 0)
(-0.183464 9.09065e-05 0)
(-0.184132 5.08697e-05 0)
(-0.184327 -4.12628e-06 0)
(-0.184011 -5.8315e-05 0)
(-0.183171 -0.000118194 0)
(-0.181734 -0.000173221 0)
(-0.179692 -0.000224506 0)
(-0.177056 -0.000293994 0)
(-0.17381 -0.000353134 0)
(-0.169907 -0.000414665 0)
(-0.165402 -0.000476062 0)
(-0.160222 -0.000539372 0)
(-0.154337 -0.000619706 0)
(-0.147668 -0.000689462 0)
(-0.140239 -0.00077907 0)
(-0.131955 -0.000863329 0)
(-0.122639 -0.000950126 0)
(-0.11252 -0.00104321 0)
(-0.101518 -0.00114151 0)
(-0.0894346 -0.00122473 0)
(-0.0765121 -0.00132685 0)
(-0.0628732 -0.00139614 0)
(-0.0484149 -0.0014735 0)
(-0.0333341 -0.00154176 0)
(-0.017718 -0.00160371 0)
(-0.0002155 -0.00165941 0)
(0.0185581 -0.00171537 0)
(0.0373136 -0.00177453 0)
(0.0564987 -0.00180672 0)
(0.0759568 -0.00183487 0)
(0.0955109 -0.00183278 0)
(0.114732 -0.00178732 0)
(0.133107 -0.00170928 0)
(0.150168 -0.00157618 0)
(0.165295 -0.00139545 0)
(0.178194 -0.00118979 0)
(0.188597 -0.000953104 0)
(0.196337 -0.00069759 0)
(0.201332 -0.000428846 0)
(0.20339 -0.00013838 0)
(0.202819 0.000132862 0)
(0.199632 0.000419312 0)
(0.193869 0.000700777 0)
(0.18561 0.000938331 0)
(0.175008 0.00116636 0)
(0.162222 0.00137229 0)
(0.147615 0.00152279 0)
(0.131485 0.00166507 0)
(0.114199 0.00175109 0)
(0.0961051 0.00183047 0)
(0.0774155 0.00187999 0)
(0.058513 0.00187981 0)
(0.0396414 0.00187867 0)
(0.0209233 0.00185678 0)
(0.0017615 0.00179586 0)
(-0.0171387 0.00173149 0)
(-0.0346506 0.00164096 0)
(-0.0511 0.00155652 0)
(-0.0665155 0.00146361 0)
(-0.0808599 0.00135739 0)
(-0.0941329 0.00125836 0)
(-0.106343 0.00115696 0)
(-0.117492 0.00105117 0)
(-0.127605 0.000952658 0)
(-0.136713 0.000852995 0)
(-0.14485 0.000760491 0)
(-0.152057 0.000670676 0)
(-0.158368 0.000582793 0)
(-0.163821 0.000500238 0)
(-0.168449 0.000420443 0)
(-0.172281 0.000342804 0)
(-0.175341 0.000267978 0)
(-0.17765 0.000193895 0)
(-0.179215 0.000120127 0)
(-0.180043 4.87666e-05 0)
(-0.180204 -2.04673e-05 0)
(-0.179637 -9.09688e-05 0)
(-0.17836 -0.000161683 0)
(-0.176369 -0.000233623 0)
(-0.173657 -0.000305276 0)
(-0.170207 -0.000378178 0)
(-0.166007 -0.000454187 0)
(-0.161043 -0.000530001 0)
(-0.155294 -0.000610648 0)
(-0.148741 -0.000690296 0)
(-0.14136 -0.000771855 0)
(-0.133123 -0.000861544 0)
(-0.124005 -0.00094734 0)
(-0.113986 -0.00103449 0)
(-0.103041 -0.00113334 0)
(-0.0911568 -0.00122227 0)
(-0.0783276 -0.00132475 0)
(-0.0645567 -0.00141118 0)
(-0.0498724 -0.00149277 0)
(-0.0342686 -0.0015901 0)
(-0.0174096 -0.00165764 0)
(-0.000276418 -0.00172336 0)
(0.0170669 -0.00179594 0)
(0.0352737 -0.00182431 0)
(0.053836 -0.00186902 0)
(0.0725484 -0.00186003 0)
(0.0911745 -0.00182758 0)
(0.109496 -0.00180732 0)
(0.127259 -0.0017269 0)
(0.146074 -0.00162241 0)
(0.169974 0.0050448 0)
(0.154742 0.00523751 0)
(0.136701 0.00545287 0)
(0.118167 0.00559723 0)
(0.0994034 0.00556966 0)
(0.0806295 0.00557889 0)
(0.0620414 0.005438 0)
(0.0438089 0.00533845 0)
(0.0259974 0.00519507 0)
(0.00880596 0.00492689 0)
(-0.00737486 0.00473009 0)
(-0.0226825 0.00449192 0)
(-0.0372329 0.00419247 0)
(-0.0508785 0.00392978 0)
(-0.063587 0.00362722 0)
(-0.0753508 0.0033581 0)
(-0.0861732 0.00308695 0)
(-0.0960654 0.00280119 0)
(-0.10505 0.00254108 0)
(-0.113151 0.00228574 0)
(-0.120396 0.00202913 0)
(-0.126816 0.00179056 0)
(-0.132438 0.00155879 0)
(-0.137291 0.00133114 0)
(-0.141401 0.00111434 0)
(-0.144792 0.000901354 0)
(-0.147484 0.000694523 0)
(-0.149499 0.000490075 0)
(-0.150826 0.000293836 0)
(-0.151488 0.000100776 0)
(-0.151493 -0.000104914 0)
(-0.150804 -0.000312678 0)
(-0.149431 -0.000519254 0)
(-0.147352 -0.000733461 0)
(-0.14455 -0.000952 0)
(-0.140989 -0.00117782 0)
(-0.136651 -0.00141941 0)
(-0.131511 -0.00166102 0)
(-0.125522 -0.00190899 0)
(-0.118651 -0.00218877 0)
(-0.110864 -0.0024542 0)
(-0.102108 -0.00275791 0)
(-0.0923619 -0.00303622 0)
(-0.0815966 -0.00331486 0)
(-0.0697451 -0.00365679 0)
(-0.0567719 -0.00393398 0)
(-0.0427535 -0.00420051 0)
(-0.0277437 -0.0045578 0)
(-0.0116765 -0.00482728 0)
(0.00458155 -0.00496884 0)
(0.0213262 -0.00526352 0)
(0.0392098 -0.00540405 0)
(0.0576508 -0.00558274 0)
(0.0764897 -0.00563266 0)
(0.0954572 -0.00559717 0)
(0.114295 -0.00556315 0)
(0.132796 -0.00541223 0)
(0.15068 -0.00516033 0)
(0.167657 -0.00488553 0)
(0.183486 -0.00448823 0)
(0.197893 -0.00404755 0)
(0.210652 -0.00353918 0)
(0.22155 -0.00292909 0)
(0.230391 -0.0023055 0)
(0.237046 -0.00164714 0)
(0.241381 -0.000918657 0)
(0.243272 -0.00022132 0)
(0.242804 0.000508656 0)
(0.23978 0.00122545 0)
(0.234431 0.0019328 0)
(0.2268 0.00261186 0)
(0.216937 0.00322161 0)
(0.205076 0.00380358 0)
(0.19137 0.00432744 0)
(0.176081 0.00475012 0)
(0.159436 0.00511552 0)
(0.14173 0.00537012 0)
(0.123181 0.00560563 0)
(0.104062 0.00573567 0)
(0.0846889 0.00578541 0)
(0.0651907 0.00578087 0)
(0.0458214 0.00570011 0)
(0.0268514 0.0055592 0)
(0.00843429 0.00539995 0)
(-0.00935593 0.00517704 0)
(-0.0263786 0.00493261 0)
(-0.0424719 0.00464615 0)
(-0.0576008 0.00434097 0)
(-0.0716774 0.00403425 0)
(-0.084678 0.00372141 0)
(-0.0966384 0.00341208 0)
(-0.107569 0.00310598 0)
(-0.117501 0.00280677 0)
(-0.126439 0.00251183 0)
(-0.134399 0.00223365 0)
(-0.141424 0.00194461 0)
(-0.147519 0.00167615 0)
(-0.152694 0.00140357 0)
(-0.156984 0.00115041 0)
(-0.16042 0.000896828 0)
(-0.163029 0.000652046 0)
(-0.164839 0.000419572 0)
(-0.165863 0.000178824 0)
(-0.166146 3.76252e-06 0)
(-0.165683 -0.00023823 0)
(-0.164542 -0.000445567 0)
(-0.162673 -0.000659042 0)
(-0.160105 -0.00087675 0)
(-0.156816 -0.00108103 0)
(-0.152781 -0.00130726 0)
(-0.148 -0.00153691 0)
(-0.142458 -0.00176727 0)
(-0.136115 -0.00201057 0)
(-0.128945 -0.00224349 0)
(-0.120962 -0.0024947 0)
(-0.112138 -0.00274662 0)
(-0.10248 -0.00299746 0)
(-0.0920111 -0.00326085 0)
(-0.0806858 -0.003477 0)
(-0.0685459 -0.0037178 0)
(-0.0556561 -0.00394718 0)
(-0.0420383 -0.00415788 0)
(-0.0277468 -0.0043582 0)
(-0.0127929 -0.00454615 0)
(0.00278116 -0.00469971 0)
(0.0188565 -0.00485067 0)
(0.0353536 -0.004958 0)
(0.0521624 -0.00504401 0)
(0.069178 -0.00507712 0)
(0.0862417 -0.00506418 0)
(0.103168 -0.0050065 0)
(0.119784 -0.00487922 0)
(0.13588 -0.004683 0)
(0.1512 -0.0044221 0)
(0.165498 -0.00408963 0)
(0.178559 -0.00365807 0)
(0.190088 -0.0031893 0)
(0.199866 -0.0026391 0)
(0.207712 -0.00201709 0)
(0.213443 -0.00137766 0)
(0.216915 -0.000692878 0)
(0.218038 1.59293e-05 0)
(0.216795 0.000721879 0)
(0.213013 0.00147746 0)
(0.206885 0.00215649 0)
(0.198476 0.00282525 0)
(0.18791 0.00345643 0)
(0.175325 0.00402654 0)
(0.160916 0.00453037 0)
(0.144947 0.00495946 0)
(0.127681 0.00530609 0)
(0.109385 0.00557356 0)
(0.0903343 0.00575586 0)
(0.0708048 0.00585019 0)
(0.0510904 0.005861 0)
(0.0314873 0.00581224 0)
(0.0122031 0.00567567 0)
(-0.00653347 0.00547632 0)
(-0.0245286 0.0052378 0)
(-0.041652 0.00495587 0)
(-0.057773 0.004652 0)
(-0.0728387 0.00431788 0)
(-0.0867732 0.00398281 0)
(-0.0995673 0.00363514 0)
(-0.111227 0.00329871 0)
(-0.121716 0.00295617 0)
(-0.131101 0.00263588 0)
(-0.139435 0.00232785 0)
(-0.146765 0.00203927 0)
(-0.15316 0.00176073 0)
(-0.158639 0.00151506 0)
(-0.16329 0.00126273 0)
(-0.167165 0.00102568 0)
(-0.170248 0.000798445 0)
(-0.172597 0.000614469 0)
(-0.174305 0.000404824 0)
(-0.175372 0.000217129 0)
(-0.175821 7.54458e-05 0)
(-0.175675 -0.000128469 0)
(-0.174986 -0.000290118 0)
(-0.173742 -0.000479045 0)
(-0.171908 -0.000632373 0)
(-0.169486 -0.000793914 0)
(-0.166494 -0.00095382 0)
(-0.162945 -0.00114119 0)
(-0.158824 -0.00131917 0)
(-0.154081 -0.00150512 0)
(-0.148699 -0.00169717 0)
(-0.14266 -0.00190524 0)
(-0.135926 -0.00209417 0)
(-0.128512 -0.0023071 0)
(-0.120423 -0.00251831 0)
(-0.111587 -0.00275326 0)
(-0.101924 -0.00298796 0)
(-0.0914408 -0.0032718 0)
(-0.0800505 -0.00350847 0)
(-0.0677302 -0.00378413 0)
(-0.054587 -0.00402998 0)
(-0.0406864 -0.00425608 0)
(-0.0260645 -0.00443481 0)
(-0.010822 -0.0046087 0)
(0.0049569 -0.00477555 0)
(0.0212174 -0.004885 0)
(0.0378092 -0.00498617 0)
(0.05463 -0.00503435 0)
(0.0715426 -0.00501506 0)
(0.0882999 -0.00494631 0)
(0.104652 -0.00479229 0)
(0.120367 -0.00454146 0)
(0.135137 -0.00422531 0)
(0.1487 -0.00383911 0)
(0.160842 -0.00337453 0)
(0.171303 -0.00284068 0)
(0.179862 -0.00224245 0)
(0.186328 -0.00159403 0)
(0.190539 -0.000909915 0)
(0.192393 -0.000192386 0)
(0.191847 0.000531188 0)
(0.188754 0.00126828 0)
(0.183281 0.00198272 0)
(0.175486 0.00265028 0)
(0.165488 0.00326704 0)
(0.153515 0.0038313 0)
(0.139763 0.00433647 0)
(0.124498 0.00474458 0)
(0.107995 0.00506318 0)
(0.0905696 0.00529009 0)
(0.0725261 0.00542803 0)
(0.0541775 0.00549548 0)
(0.0357469 0.00547222 0)
(0.0174988 0.00538177 0)
(-0.000332249 0.0052352 0)
(-0.0176007 0.00504129 0)
(-0.0341453 0.00480854 0)
(-0.0498655 0.00455702 0)
(-0.0646994 0.00427991 0)
(-0.0785748 0.00398817 0)
(-0.0914683 0.0037025 0)
(-0.103447 0.00342093 0)
(-0.114486 0.00313837 0)
(-0.124606 0.00289591 0)
(-0.133872 0.00262586 0)
(-0.142288 0.00237785 0)
(-0.149878 0.00213842 0)
(-0.156654 0.00188951 0)
(-0.162593 0.00165151 0)
(-0.167732 0.00141001 0)
(-0.172074 0.00117701 0)
(-0.175628 0.000950166 0)
(-0.178483 0.000761068 0)
(-0.180709 0.00057613 0)
(-0.182367 0.000415825 0)
(-0.183529 0.000263748 0)
(-0.1842 0.000136844 0)
(-0.184395 -1.82084e-05 0)
(-0.184078 -0.000165924 0)
(-0.183242 -0.00033997 0)
(-0.18182 -0.000524215 0)
(-0.179781 -0.000679482 0)
(-0.177143 -0.000879775 0)
(-0.173892 -0.00104423 0)
(-0.169999 -0.0012422 0)
(-0.165494 -0.0014361 0)
(-0.160311 -0.00162598 0)
(-0.154424 -0.00186402 0)
(-0.147747 -0.00206436 0)
(-0.140319 -0.00233499 0)
(-0.132036 -0.00258976 0)
(-0.122716 -0.00284886 0)
(-0.112596 -0.00313346 0)
(-0.101589 -0.00342325 0)
(-0.0895059 -0.00367928 0)
(-0.0765765 -0.00397961 0)
(-0.0629327 -0.00419036 0)
(-0.048472 -0.00441737 0)
(-0.0333877 -0.00462953 0)
(-0.0177686 -0.00481958 0)
(-0.00025732 -0.00497082 0)
(0.0185107 -0.00515072 0)
(0.0372763 -0.00531937 0)
(0.0564656 -0.00542216 0)
(0.0759343 -0.00550353 0)
(0.0954982 -0.00550175 0)
(0.114738 -0.00536888 0)
(0.133139 -0.00512512 0)
(0.15022 -0.00473535 0)
(0.165368 -0.00419149 0)
(0.178282 -0.00357492 0)
(0.188707 -0.00285141 0)
(0.196448 -0.00210052 0)
(0.201461 -0.00127612 0)
(0.203522 -0.00041481 0)
(0.202941 0.000397019 0)
(0.19975 0.00125847 0)
(0.19399 0.00210235 0)
(0.185724 0.0028141 0)
(0.175111 0.0035013 0)
(0.162313 0.00410962 0)
(0.147693 0.00456787 0)
(0.131549 0.00499584 0)
(0.11425 0.00525467 0)
(0.0961436 0.00549268 0)
(0.0774411 0.00564121 0)
(0.0585279 0.00564072 0)
(0.0396468 0.00563699 0)
(0.020919 0.00557127 0)
(0.00174818 0.00538847 0)
(-0.0171598 0.00519485 0)
(-0.0346762 0.00492322 0)
(-0.0511297 0.00466986 0)
(-0.0665484 0.00439106 0)
(-0.0808945 0.00407232 0)
(-0.0941689 0.00377514 0)
(-0.10638 0.00347086 0)
(-0.117528 0.00315349 0)
(-0.127641 0.00285801 0)
(-0.136748 0.002559 0)
(-0.144885 0.00228142 0)
(-0.15209 0.00201198 0)
(-0.1584 0.00174829 0)
(-0.163852 0.00150057 0)
(-0.168479 0.00126109 0)
(-0.17231 0.00102821 0)
(-0.175369 0.000803865 0)
(-0.177679 0.000581363 0)
(-0.179245 0.000360364 0)
(-0.180072 0.000147325 0)
(-0.180231 -6.15563e-05 0)
(-0.179666 -0.000273014 0)
(-0.178389 -0.0004851 0)
(-0.176398 -0.000701062 0)
(-0.173687 -0.000915895 0)
(-0.170237 -0.00113457 0)
(-0.166038 -0.00136257 0)
(-0.161074 -0.00158999 0)
(-0.155327 -0.00183191 0)
(-0.148775 -0.00207083 0)
(-0.141394 -0.00231548 0)
(-0.133158 -0.00258455 0)
(-0.124041 -0.00284193 0)
(-0.114024 -0.0031034 0)
(-0.103079 -0.00339997 0)
(-0.0911948 -0.00366679 0)
(-0.0783659 -0.0039743 0)
(-0.0645938 -0.00423363 0)
(-0.0499075 -0.00447852 0)
(-0.0343018 -0.00477056 0)
(-0.0174411 -0.00497364 0)
(-0.000303228 -0.00517039 0)
(0.0170469 -0.00538828 0)
(0.0352599 -0.00547355 0)
(0.0538296 -0.00560785 0)
(0.0725504 -0.00558092 0)
(0.0911856 -0.00548365 0)
(0.109517 -0.00542295 0)
(0.12729 -0.0051817 0)
(0.146117 -0.00486824 0)
(0.17005 0.0084114 0)
(0.154799 0.00873243 0)
(0.136739 0.00909133 0)
(0.118186 0.0093318 0)
(0.0994044 0.0092855 0)
(0.0806145 0.00930066 0)
(0.0620129 0.00906549 0)
(0.0437684 0.00889933 0)
(0.0259443 0.00865955 0)
(0.00874721 0.00821314 0)
(-0.00743832 0.00788425 0)
(-0.022753 0.00748709 0)
(-0.0373052 0.00698778 0)
(-0.050953 0.00654978 0)
(-0.0636611 0.00604537 0)
(-0.075425 0.00559671 0)
(-0.0862467 0.00514465 0)
(-0.0961367 0.00466836 0)
(-0.105119 0.0042348 0)
(-0.113219 0.00380918 0)
(-0.120461 0.00338149 0)
(-0.126878 0.00298389 0)
(-0.132499 0.00259761 0)
(-0.13735 0.00221823 0)
(-0.141458 0.00185694 0)
(-0.144847 0.00150207 0)
(-0.147537 0.00115753 0)
(-0.149549 0.000817256 0)
(-0.150881 0.000489203 0)
(-0.151543 0.000168318 0)
(-0.151547 -0.000175336 0)
(-0.150858 -0.000520911 0)
(-0.149486 -0.0008653 0)
(-0.147409 -0.00122207 0)
(-0.144609 -0.00158637 0)
(-0.141051 -0.00196262 0)
(-0.136715 -0.00236516 0)
(-0.131577 -0.00276766 0)
(-0.125591 -0.00318149 0)
(-0.118723 -0.0036474 0)
(-0.110938 -0.00408996 0)
(-0.102185 -0.00459619 0)
(-0.09244 -0.00506035 0)
(-0.0816757 -0.00552452 0)
(-0.0698256 -0.00609475 0)
(-0.0568508 -0.00655692 0)
(-0.0428327 -0.00700067 0)
(-0.0278231 -0.00759828 0)
(-0.0117396 -0.00804319 0)
(0.00452619 -0.00828395 0)
(0.0212721 -0.00877522 0)
(0.0391701 -0.00900895 0)
(0.0576263 -0.00930715 0)
(0.0764809 -0.00939104 0)
(0.0954659 -0.00933104 0)
(0.114324 -0.00927524 0)
(0.132844 -0.00902584 0)
(0.150748 -0.00860577 0)
(0.167748 -0.00814348 0)
(0.183596 -0.00748643 0)
(0.198023 -0.00674387 0)
(0.210794 -0.00591028 0)
(0.221713 -0.00488883 0)
(0.230561 -0.00384601 0)
(0.237231 -0.00273914 0)
(0.241573 -0.00152916 0)
(0.243467 -0.000368064 0)
(0.242981 0.000845865 0)
(0.239954 0.00204267 0)
(0.23461 0.00322232 0)
(0.226969 0.00435483 0)
(0.217095 0.0053725 0)
(0.205216 0.006341 0)
(0.191493 0.00721552 0)
(0.176183 0.00791715 0)
(0.159519 0.00853168 0)
(0.141793 0.0089585 0)
(0.123221 0.00934484 0)
(0.104081 0.0095646 0)
(0.0846888 0.00964494 0)
(0.0651746 0.00963816 0)
(0.0457855 0.00950365 0)
(0.0268089 0.00926774 0)
(0.00837912 0.00900477 0)
(-0.00942665 0.00862674 0)
(-0.0264525 0.008224 0)
(-0.0425638 0.00774065 0)
(-0.0576902 0.0072347 0)
(-0.0717674 0.00673139 0)
(-0.0847771 0.00619961 0)
(-0.0967451 0.00568292 0)
(-0.107681 0.00517671 0)
(-0.117618 0.0046808 0)
(-0.126556 0.00419388 0)
(-0.134524 0.00373062 0)
(-0.141557 0.00325249 0)
(-0.147664 0.00280131 0)
(-0.152849 0.00234698 0)
(-0.15715 0.00191651 0)
(-0.160592 0.00148549 0)
(-0.163202 0.00108365 0)
(-0.165023 0.000703754 0)
(-0.166049 0.000312963 0)
(-0.166354 -9.23672e-06 0)
(-0.1659 -0.000404581 0)
(-0.164753 -0.000745766 0)
(-0.16288 -0.00109639 0)
(-0.160309 -0.00145687 0)
(-0.15702 -0.00180412 0)
(-0.152987 -0.00218129 0)
(-0.148198 -0.00255605 0)
(-0.14267 -0.00295744 0)
(-0.136329 -0.00334978 0)
(-0.129152 -0.00374269 0)
(-0.121172 -0.0041554 0)
(-0.112348 -0.00457956 0)
(-0.102684 -0.00499562 0)
(-0.0922076 -0.00541623 0)
(-0.080891 -0.00580017 0)
(-0.0687565 -0.0062064 0)
(-0.055858 -0.00658057 0)
(-0.04223 -0.00692248 0)
(-0.0279351 -0.00725726 0)
(-0.0129739 -0.0075694 0)
(0.00259659 -0.00783879 0)
(0.0186809 -0.00809063 0)
(0.0351862 -0.00826462 0)
(0.0520102 -0.00840077 0)
(0.069038 -0.00846565 0)
(0.0861143 -0.00844263 0)
(0.103058 -0.00833593 0)
(0.119691 -0.00813167 0)
(0.1358 -0.00780473 0)
(0.151129 -0.00737635 0)
(0.165444 -0.00681635 0)
(0.178517 -0.006103 0)
(0.190065 -0.00531 0)
(0.199858 -0.00439383 0)
(0.207712 -0.00336656 0)
(0.213448 -0.00230471 0)
(0.216938 -0.00115358 0)
(0.218069 2.77061e-05 0)
(0.216805 0.0012148 0)
(0.213026 0.00245566 0)
(0.206902 0.00359956 0)
(0.198488 0.00470889 0)
(0.187903 0.00576638 0)
(0.175299 0.00670942 0)
(0.160874 0.00755793 0)
(0.144879 0.00826799 0)
(0.127586 0.00885351 0)
(0.109266 0.00929252 0)
(0.0902007 0.00959542 0)
(0.0706535 0.00975101 0)
(0.0509292 0.00977782 0)
(0.0312993 0.00969398 0)
(0.0119968 0.00945088 0)
(-0.00674644 0.00913494 0)
(-0.024758 0.00872967 0)
(-0.0418863 0.00826237 0)
(-0.0580106 0.00774673 0)
(-0.0730737 0.00719838 0)
(-0.0870174 0.00663691 0)
(-0.0998191 0.00605682 0)
(-0.111476 0.00549462 0)
(-0.121963 0.00493647 0)
(-0.131352 0.00438858 0)
(-0.139687 0.00387963 0)
(-0.147017 0.00339224 0)
(-0.153399 0.00292885 0)
(-0.15887 0.00253489 0)
(-0.163515 0.00210554 0)
(-0.167383 0.00171397 0)
(-0.17046 0.0013294 0)
(-0.172815 0.00102476 0)
(-0.17453 0.000674636 0)
(-0.175586 0.000367177 0)
(-0.176031 0.000113395 0)
(-0.175882 -0.000210041 0)
(-0.175199 -0.000487373 0)
(-0.173959 -0.00080349 0)
(-0.172114 -0.00104577 0)
(-0.169688 -0.00132463 0)
(-0.16671 -0.00159667 0)
(-0.16316 -0.00190606 0)
(-0.159021 -0.00218873 0)
(-0.15428 -0.00250148 0)
(-0.148908 -0.00283461 0)
(-0.142868 -0.00317311 0)
(-0.136139 -0.00348841 0)
(-0.128732 -0.00384223 0)
(-0.120645 -0.00419479 0)
(-0.11181 -0.0045923 0)
(-0.102144 -0.00497947 0)
(-0.0916638 -0.00544724 0)
(-0.0802678 -0.00584924 0)
(-0.0679522 -0.00630787 0)
(-0.0548074 -0.00671831 0)
(-0.0408985 -0.00709444 0)
(-0.0262794 -0.00738619 0)
(-0.0110326 -0.00768313 0)
(0.00476071 -0.00795844 0)
(0.0210358 -0.00814384 0)
(0.0376319 -0.00830953 0)
(0.0544692 -0.00839329 0)
(0.0713925 -0.00835516 0)
(0.0881599 -0.00824653 0)
(0.104538 -0.00797456 0)
(0.120264 -0.00757363 0)
(0.135048 -0.00706192 0)
(0.148643 -0.00639723 0)
(0.160803 -0.00561228 0)
(0.171277 -0.0047426 0)
(0.179855 -0.00374353 0)
(0.186329 -0.00266547 0)
(0.190555 -0.00151024 0)
(0.192416 -0.000321654 0)
(0.191856 0.000876934 0)
(0.188769 0.00211479 0)
(0.183299 0.00331099 0)
(0.175486 0.00440977 0)
(0.165483 0.00545502 0)
(0.153492 0.00639292 0)
(0.139715 0.00723183 0)
(0.124429 0.00790251 0)
(0.107913 0.00844915 0)
(0.0904629 0.00881628 0)
(0.0724086 0.00905577 0)
(0.054034 0.00916709 0)
(0.0355842 0.00911826 0)
(0.0173166 0.00898174 0)
(-0.000530069 0.00872162 0)
(-0.0178049 0.00840363 0)
(-0.0343593 0.00801689 0)
(-0.0500979 0.00760042 0)
(-0.0649432 0.00711913 0)
(-0.0788116 0.006647 0)
(-0.0917056 0.00617297 0)
(-0.103682 0.0056995 0)
(-0.114715 0.00524196 0)
(-0.124837 0.00482739 0)
(-0.134102 0.00437269 0)
(-0.14251 0.00396052 0)
(-0.150104 0.00355912 0)
(-0.156872 0.00314439 0)
(-0.162811 0.00275658 0)
(-0.167957 0.002348 0)
(-0.172295 0.00196028 0)
(-0.175848 0.00158992 0)
(-0.178701 0.00126199 0)
(-0.180918 0.00096071 0)
(-0.18257 0.00069141 0)
(-0.183722 0.000446404 0)
(-0.184392 0.000240296 0)
(-0.18459 -2.86248e-05 0)
(-0.18428 -0.000279986 0)
(-0.183447 -0.000573683 0)
(-0.182012 -0.000864037 0)
(-0.179968 -0.0011384 0)
(-0.177329 -0.00146182 0)
(-0.174073 -0.00175031 0)
(-0.170173 -0.00207624 0)
(-0.165651 -0.00239067 0)
(-0.160459 -0.0027032 0)
(-0.154564 -0.00310179 0)
(-0.147878 -0.00344962 0)
(-0.140449 -0.00389631 0)
(-0.132166 -0.00431423 0)
(-0.122841 -0.00475012 0)
(-0.112715 -0.00522543 0)
(-0.101702 -0.00570898 0)
(-0.0896147 -0.00613032 0)
(-0.0766763 -0.00662877 0)
(-0.0630243 -0.00699133 0)
(-0.0485649 -0.00736593 0)
(-0.0334708 -0.00771222 0)
(-0.0178425 -0.00803211 0)
(-0.000336625 -0.00828564 0)
(0.0184313 -0.00858257 0)
(0.0371991 -0.00887005 0)
(0.0563998 -0.00903658 0)
(0.0758822 -0.00917587 0)
(0.0954712 -0.00917203 0)
(0.114743 -0.00895158 0)
(0.133183 -0.00855174 0)
(0.150308 -0.00789588 0)
(0.165493 -0.0069918 0)
(0.178433 -0.00596547 0)
(0.188882 -0.00475992 0)
(0.196641 -0.0035 0)
(0.201668 -0.00214011 0)
(0.203743 -0.000684411 0)
(0.203134 0.00066478 0)
(0.199948 0.00210019 0)
(0.194191 0.00350601 0)
(0.185909 0.00469535 0)
(0.175274 0.00582975 0)
(0.162454 0.00688352 0)
(0.147813 0.00762534 0)
(0.131643 0.00833164 0)
(0.11432 0.00876186 0)
(0.0961894 0.00915838 0)
(0.0774632 0.00940566 0)
(0.0585309 0.00940511 0)
(0.0396328 0.00939751 0)
(0.0208883 0.00928751 0)
(0.0017014 0.00898359 0)
(-0.0172198 0.00865934 0)
(-0.0347433 0.00820633 0)
(-0.0512032 0.00778382 0)
(-0.0666264 0.00731889 0)
(-0.0809743 0.00678739 0)
(-0.0942503 0.00629183 0)
(-0.106461 0.00578448 0)
(-0.117608 0.00525546 0)
(-0.127719 0.00476293 0)
(-0.136823 0.00426454 0)
(-0.144957 0.00380183 0)
(-0.15216 0.0033528 0)
(-0.158467 0.00291333 0)
(-0.163916 0.0025004 0)
(-0.168541 0.00210118 0)
(-0.172369 0.00171284 0)
(-0.175426 0.00133896 0)
(-0.177734 0.000969327 0)
(-0.179304 0.00060162 0)
(-0.180133 0.000247371 0)
(-0.180286 -0.000102636 0)
(-0.179722 -0.000455128 0)
(-0.178445 -0.000808546 0)
(-0.176455 -0.00116846 0)
(-0.173744 -0.00152644 0)
(-0.170296 -0.00189085 0)
(-0.166098 -0.00227079 0)
(-0.161136 -0.00264977 0)
(-0.15539 -0.00305293 0)
(-0.14884 -0.0034511 0)
(-0.141461 -0.00385883 0)
(-0.133228 -0.00430728 0)
(-0.124112 -0.00473627 0)
(-0.114096 -0.00517209 0)
(-0.103153 -0.00566647 0)
(-0.0912689 -0.00611131 0)
(-0.0784404 -0.00662406 0)
(-0.064666 -0.00705644 0)
(-0.0499758 -0.00746496 0)
(-0.0343662 -0.00795182 0)
(-0.017502 -0.00829147 0)
(-0.000354849 -0.00861859 0)
(0.0170087 -0.00898222 0)
(0.0352344 -0.00912475 0)
(0.0538184 -0.00934905 0)
(0.0725562 -0.00930441 0)
(0.0912094 -0.00914247 0)
(0.109562 -0.00904156 0)
(0.127354 -0.00863947 0)
(0.146202 -0.00811706 0)
(0.170164 0.0117831 0)
(0.154884 0.0122322 0)
(0.136795 0.0127346 0)
(0.118214 0.013071 0)
(0.0994058 0.0130054 0)
(0.0805919 0.0130262 0)
(0.0619701 0.0126962 0)
(0.0437073 0.0124632 0)
(0.0258647 0.0121256 0)
(0.00865905 0.0115017 0)
(-0.00753365 0.0110397 0)
(-0.0228587 0.0104831 0)
(-0.0374137 0.00978367 0)
(-0.0510647 0.00917006 0)
(-0.0637723 0.00846353 0)
(-0.0755365 0.00783512 0)
(-0.086357 0.00720198 0)
(-0.0962436 0.00653512 0)
(-0.105224 0.00592798 0)
(-0.11332 0.00533207 0)
(-0.120559 0.00473328 0)
(-0.126973 0.00417664 0)
(-0.13259 0.0036359 0)
(-0.137437 0.00310484 0)
(-0.141543 0.00259917 0)
(-0.144929 0.00210264 0)
(-0.147617 0.00162077 0)
(-0.149625 0.00114567 0)
(-0.150958 0.000686274 0)
(-0.151629 0.000231553 0)
(-0.151628 -0.000247159 0)
(-0.15094 -0.000728789 0)
(-0.149569 -0.00121131 0)
(-0.147495 -0.00171022 0)
(-0.144698 -0.00222031 0)
(-0.141142 -0.00274676 0)
(-0.136811 -0.00331013 0)
(-0.131676 -0.00387255 0)
(-0.125693 -0.00445405 0)
(-0.118831 -0.00510524 0)
(-0.111048 -0.00572513 0)
(-0.1023 -0.00643392 0)
(-0.0925571 -0.00708437 0)
(-0.0817944 -0.00773384 0)
(-0.0699465 -0.00853287 0)
(-0.0569691 -0.00918022 0)
(-0.0429517 -0.009801 0)
(-0.0279421 -0.0106412 0)
(-0.0118346 -0.0112565 0)
(0.00444239 -0.0116035 0)
(0.0211908 -0.0122903 0)
(0.0391101 -0.0126177 0)
(0.0575895 -0.0130354 0)
(0.0764677 -0.0131533 0)
(0.0954785 -0.0130707 0)
(0.114366 -0.0129931 0)
(0.132916 -0.0126444 0)
(0.150851 -0.0120568 0)
(0.167883 -0.0114125 0)
(0.183762 -0.0104869 0)
(0.198215 -0.00945177 0)
(0.211013 -0.0082823 0)
(0.221958 -0.00685335 0)
(0.230818 -0.00538627 0)
(0.237501 -0.00384351 0)
(0.241856 -0.00214752 0)
(0.243756 -0.000508103 0)
(0.243241 0.001204 0)
(0.240218 0.00286111 0)
(0.234877 0.00451273 0)
(0.227221 0.00610096 0)
(0.21733 0.0075251 0)
(0.205428 0.00888424 0)