/*--------------------------------*- C++ -*----------------------------------*\
| =========                 |                                                 |
| \\      /  F ield         | OpenFOAM: The Open Source CFD Toolbox           |
|  \\    /   O peration     | Version:  3.0.1                                 |
|   \\  /    A nd           | Web:      www.OpenFOAM.org                      |
|    \\/     M anipulation  |                                                 |
\*---------------------------------------------------------------------------*/
FoamFile
{
    version     2.0;
    format      ascii;
    class       surfaceScalarField;
    location    "16.6";
    object      phi;
}
// * * * * * * * * * * * * * * * * * * * * * * * * * * * * * * * * * * * * * //

dimensions      [0 3 -1 0 0 0 0];

internalField   nonuniform List<scalar> 
44922
(
0.000208697
5.39464e-06
0.000201852
6.84465e-06
0.00019344
8.41208e-06
0.000183767
9.67346e-06
0.000172742
1.10246e-05
0.000160742
1.19997e-05
0.000147659
1.30835e-05
0.000133879
1.37797e-05
0.000119299
1.45801e-05
0.000104264
1.50349e-05
8.87692e-05
1.5495e-05
7.30887e-05
1.56805e-05
5.72927e-05
1.5796e-05
4.15958e-05
1.56969e-05
2.60345e-05
1.55613e-05
1.0721e-05
1.53136e-05
-4.21223e-06
1.49332e-05
-1.87195e-05
1.45072e-05
-3.26996e-05
1.39801e-05
-4.61587e-05
1.34591e-05
-5.90133e-05
1.28546e-05
-7.12624e-05
1.22491e-05
-8.28489e-05
1.15865e-05
-9.37839e-05
1.09349e-05
-0.000104021
1.02375e-05
-0.000113585
9.56335e-06
-0.000122443
8.85778e-06
-0.000130624
8.18105e-06
-0.000138112
7.4886e-06
-0.000144938
6.82582e-06
-0.000151097
6.15931e-06
-0.00015662
5.52247e-06
-0.000161511
4.89139e-06
-0.000165802
4.29082e-06
-0.000169507
3.70497e-06
-0.000172643
3.13565e-06
-0.00017523
2.58784e-06
-0.000177284
2.05366e-06
-0.000178817
1.53324e-06
-0.000179838
1.02057e-06
-0.000180361
5.23108e-07
-0.000180387
2.57437e-08
-0.000179945
-4.41668e-07
-0.000179001
-9.43876e-07
-0.000177579
-1.42182e-06
-0.000175616
-1.96342e-06
-0.000173158
-2.45847e-06
-0.000170115
-3.04273e-06
-0.000166576
-3.53877e-06
-0.000162406
-4.16987e-06
-0.000157736
-4.67047e-06
-0.000152501
-5.23455e-06
-0.000146582
-5.91884e-06
-0.000140112
-6.47059e-06
-0.000132916
-7.19559e-06
-0.00012517
-7.7461e-06
-0.000116677
-8.49334e-06
-0.000107596
-9.08089e-06
-9.7779e-05
-9.81684e-06
-8.7404e-05
-1.0375e-05
-7.62841e-05
-1.11199e-05
-6.46457e-05
-1.16385e-05
-5.2279e-05
-1.23666e-05
-3.94374e-05
-1.28416e-05
-2.59402e-05
-1.34972e-05
-1.20543e-05
-1.38859e-05
2.36039e-06
-1.44147e-05
1.70736e-05
-1.47132e-05
3.21505e-05
-1.50769e-05
4.74523e-05
-1.53017e-05
6.27287e-05
-1.52765e-05
7.80522e-05
-1.53235e-05
9.31941e-05
-1.51419e-05
0.000108134
-1.49395e-05
0.000122629
-1.44956e-05
0.000136631
-1.40018e-05
0.000149895
-1.32638e-05
0.000162359
-1.24646e-05
0.000173802
-1.14424e-05
0.000184192
-1.039e-05
0.000193272
-9.0803e-06
0.000201056
-7.78408e-06
0.000207333
-6.2766e-06
0.000212135
-4.80217e-06
0.000215303
-3.16793e-06
0.000216892
-1.58941e-06
0.000216799
9.34137e-08
0.000215061
1.73746e-06
0.000211698
3.36337e-06
0.000206697
5.00087e-06
0.000200156
6.5414e-06
0.000192153
8.00309e-06
0.00018282
9.333e-06
0.000172231
1.05884e-05
0.000160532
1.16994e-05
0.000147838
1.26943e-05
0.000134316
1.35212e-05
0.000120031
1.42852e-05
0.000105225
1.4806e-05
8.99414e-05
1.52838e-05
7.44399e-05
1.55016e-05
5.87307e-05
1.57091e-05
4.30726e-05
1.56581e-05
2.74746e-05
1.5598e-05
1.21539e-05
1.53206e-05
-2.84502e-06
1.4999e-05
-1.74471e-05
1.4602e-05
-3.15883e-05
1.41412e-05
-4.5158e-05
1.35698e-05
-5.8122e-05
1.2964e-05
-7.05023e-05
1.23802e-05
-8.21407e-05
1.16384e-05
-9.3226e-05
1.10853e-05
-0.000103483
1.02567e-05
-0.00011321
9.72685e-06
-0.000122085
8.87502e-06
-0.000130432
8.34754e-06
-0.000137947
7.51522e-06
-0.000144966
7.01869e-06
-0.000151146
6.18029e-06
-0.00015687
5.72343e-06
-0.000161762
4.89206e-06
-0.000166159
4.3968e-06
-0.000169936
3.77713e-06
-0.00017314
3.20407e-06
-0.000175659
2.51969e-06
-0.000177667
2.00745e-06
-0.000179235
1.56829e-06
-0.000180196
9.6115e-07
-0.000180718
5.21673e-07
-0.000180669
-4.88562e-08
-0.000180119
-5.50257e-07
-0.000179045
-1.07351e-06
-0.000177457
-1.58889e-06
-0.000175317
-2.14001e-06
-0.000172662
-2.6549e-06
-0.000169434
-3.22755e-06
-0.000165657
-3.77679e-06
-0.000161285
-4.37218e-06
-0.000156351
-4.93386e-06
-0.000150809
-5.54248e-06
-0.00014467
-6.13914e-06
-0.00013787
-6.79965e-06
-0.000130458
-7.41156e-06
-0.000122382
-8.07615e-06
-0.000113635
-8.74736e-06
-0.000104261
-9.37359e-06
-9.42069e-05
-1.00545e-05
-8.35378e-05
-1.0669e-05
-7.22108e-05
-1.1327e-05
-6.02749e-05
-1.1936e-05
-4.77866e-05
-1.24882e-05
-3.47511e-05
-1.30355e-05
-2.12382e-05
-1.35129e-05
-7.2663e-06
-1.39719e-05
7.06138e-06
-1.43277e-05
2.17061e-05
-1.46447e-05
3.65878e-05
-1.48817e-05
5.16029e-05
-1.50151e-05
6.6667e-05
-1.50641e-05
8.16562e-05
-1.49892e-05
9.6459e-05
-1.48028e-05
0.000110929
-1.44698e-05
0.000124954
-1.40249e-05
0.000138309
-1.33555e-05
0.000150924
-1.26151e-05
0.000162605
-1.16809e-05
0.000173196
-1.05906e-05
0.000182604
-9.40802e-06
0.000190615
-8.01122e-06
0.000197175
-6.56017e-06
0.000202106
-4.93101e-06
0.000205387
-3.28093e-06
0.000206886
-1.49899e-06
0.000206664
2.21806e-07
0.000204526
2.13814e-06
0.000200623
3.90324e-06
0.000194851
5.77233e-06
0.000187466
7.38461e-06
0.000178325
9.14071e-06
0.000167652
1.06737e-05
0.000155451
1.22009e-05
0.00014216
1.32905e-05
0.000127751
1.44094e-05
0.00011242
1.53303e-05
9.64937e-05
1.59267e-05
7.99888e-05
1.65049e-05
6.33176e-05
1.66712e-05
4.6478e-05
1.68395e-05
2.98657e-05
1.66123e-05
1.3519e-05
1.63468e-05
-2.27725e-06
1.57962e-05
-1.73997e-05
1.51224e-05
-3.16843e-05
1.42846e-05
-4.50111e-05
1.33268e-05
-5.73141e-05
1.2303e-05
-6.84972e-05
1.11831e-05
-7.85416e-05
1.00444e-05
-8.74651e-05
8.92349e-06
-9.52791e-05
7.81399e-06
-0.00010216
6.88092e-06
-0.000108005
5.84513e-06
-0.000112841
4.83601e-06
-0.000116804
3.96256e-06
-0.000120138
3.33461e-06
-0.000123241
3.1023e-06
-0.000125621
2.37998e-06
-0.000127787
2.16595e-06
-0.000129478
1.69133e-06
-0.000131077
1.59953e-06
-0.00013236
1.28234e-06
-0.000133577
1.21684e-06
-0.000134401
8.24237e-07
-0.00013504
6.39072e-07
-0.000135141
1.01113e-07
-0.000135042
-9.87101e-08
-0.000134198
-8.44182e-07
-0.000132822
-1.37612e-06
-0.000130531
-2.29093e-06
-0.000127329
-3.20232e-06
-0.000122868
-4.46093e-06
-0.000116866
-6.0019e-06
-0.000109716
-7.15021e-06
-0.000100955
-8.76099e-06
-1.72635e-05
-8.36912e-05
0.000208786
1.0792e-05
0.000201938
1.36929e-05
0.000193521
1.68293e-05
0.000183842
1.93525e-05
0.000172811
2.20555e-05
0.000160804
2.40068e-05
0.000147711
2.6176e-05
0.000133922
2.7569e-05
0.000119332
2.91695e-05
0.000104288
3.00795e-05
8.87845e-05
3.09984e-05
7.30956e-05
3.13694e-05
5.72914e-05
3.16001e-05
4.15871e-05
3.14013e-05
2.60201e-05
3.11282e-05
1.07006e-05
3.06331e-05
-4.23581e-06
2.98695e-05
-1.87452e-05
2.90166e-05
-3.27273e-05
2.79622e-05
-4.6188e-05
2.69198e-05
-5.90438e-05
2.57105e-05
-7.12937e-05
2.4499e-05
-8.28809e-05
2.31736e-05
-9.38162e-05
2.18703e-05
-0.000104054
2.0475e-05
-0.000113617
1.91266e-05
-0.000122474
1.77151e-05
-0.000130655
1.63615e-05
-0.000138142
1.49761e-05
-0.000144967
1.36508e-05
-0.000151125
1.23175e-05
-0.000156647
1.10438e-05
-0.000161537
9.78175e-06
-0.000165827
8.58101e-06
-0.000169531
7.40892e-06
-0.000172666
6.27055e-06
-0.000175253
5.17504e-06
-0.000177307
4.10685e-06
-0.000178841
3.06774e-06
-0.000179865
2.04425e-06
-0.00018039
1.04868e-06
-0.000180418
5.34903e-08
-0.000179978
-8.81836e-07
-0.000179036
-1.8854e-06
-0.000177614
-2.84422e-06
-0.000175649
-3.92848e-06
-0.000173192
-4.91503e-06
-0.000170151
-6.08441e-06
-0.000166614
-7.07535e-06
-0.000162445
-8.33937e-06
-0.000157775
-9.34016e-06
-0.000152543
-1.04669e-05
-0.000146622
-1.18393e-05
-0.000140154
-1.29384e-05
-0.000132957
-1.43928e-05
-0.000125213
-1.54904e-05
-0.000116715
-1.69906e-05
-0.000107636
-1.81601e-05
-9.78196e-05
-1.96335e-05
-8.74433e-05
-2.07513e-05
-7.63185e-05
-2.22446e-05
-6.46813e-05
-2.32756e-05
-5.23117e-05
-2.47363e-05
-3.947e-05
-2.56834e-05
-2.59704e-05
-2.69969e-05
-1.20798e-05
-2.77765e-05
2.33524e-06
-2.88297e-05
1.70509e-05
-2.94288e-05
3.21323e-05
-3.01584e-05
4.74409e-05
-3.06103e-05
6.27228e-05
-3.05584e-05
7.80535e-05
-3.06541e-05
9.32038e-05
-3.02923e-05
0.000108153
-2.98885e-05
0.000122657
-2.89994e-05
0.000136669
-2.8014e-05
0.000149939
-2.65342e-05
0.000162415
-2.49406e-05
0.000173866
-2.28934e-05
0.000184263
-2.0787e-05
0.000193351
-1.8168e-05
0.000201146
-1.55797e-05
0.000207426
-1.25556e-05
0.000212234
-9.61035e-06
0.000215404
-6.33821e-06
0.000216999
-3.18445e-06
0.000216902
1.9015e-07
0.00021516
3.48007e-06
0.000211799
6.72427e-06
0.000206792
1.00081e-05
0.000200251
1.30817e-05
0.000192244
1.60103e-05
0.000182905
1.86717e-05
0.000172309
2.11844e-05
0.000160605
2.34037e-05
0.000147898
2.54015e-05
0.000134368
2.70512e-05
0.000120072
2.85805e-05
0.000105258
2.96205e-05
8.99642e-05
3.05776e-05
7.44537e-05
3.1012e-05
5.87348e-05
3.1428e-05
4.30712e-05
3.13218e-05
2.74699e-05
3.11993e-05
1.21461e-05
3.06444e-05
-2.86462e-06
3.00097e-05
-1.74743e-05
2.92117e-05
-3.16212e-05
2.82881e-05
-4.5193e-05
2.71416e-05
-5.81602e-05
2.59312e-05
-7.05421e-05
2.47621e-05
-8.21774e-05
2.32737e-05
-9.32681e-05
2.21761e-05
-0.000103525
2.05136e-05
-0.000113253
1.94547e-05
-0.000122129
1.77507e-05
-0.000130479
1.66982e-05
-0.000137989
1.50248e-05
-0.000145011
1.40413e-05
-0.000151191
1.23599e-05
-0.000156915
1.14478e-05
-0.000161805
9.78126e-06
-0.000166207
8.79894e-06
-0.000169984
7.55392e-06
-0.000173184
6.40446e-06
-0.000175702
5.03761e-06
-0.000177709
4.01481e-06
-0.000179278
3.13715e-06
-0.000180241
1.92399e-06
-0.000180758
1.03917e-06
-0.00018071
-9.74833e-08
-0.000180159
-1.10151e-06
-0.000179086
-2.1463e-06
-0.000177497
-3.17771e-06
-0.000175358
-4.27926e-06
-0.000172703
-5.30995e-06
-0.000169476
-6.45424e-06
-0.000165697
-7.5553e-06
-0.000161328
-8.74143e-06
-0.000156399
-9.86311e-06
-0.000150853
-1.10887e-05
-0.000144715
-1.22773e-05
-0.000137917
-1.35972e-05
-0.000130504
-1.48244e-05
-0.000122427
-1.61534e-05
-0.00011368
-1.74944e-05
-0.000104306
-1.87473e-05
-9.42481e-05
-2.01126e-05
-8.35771e-05
-2.13401e-05
-7.22507e-05
-2.26534e-05
-6.03115e-05
-2.38751e-05
-4.78223e-05
-2.49775e-05
-3.47838e-05
-2.6074e-05
-2.12639e-05
-2.70329e-05
-7.28982e-06
-2.7946e-05
7.04808e-06
-2.86656e-05
2.16997e-05
-2.92963e-05
3.65879e-05
-2.97699e-05
5.161e-05
-3.00371e-05
6.66822e-05
-3.01364e-05
8.16787e-05
-2.99857e-05
9.64909e-05
-2.9615e-05
0.00011097
-2.89487e-05
0.000125004
-2.80595e-05
0.000138369
-2.67203e-05
0.000150994
-2.52402e-05
0.000162683
-2.33699e-05
0.000173286
-2.1193e-05
0.000182703
-1.88252e-05
0.00019072
-1.60287e-05
0.000197288
-1.31281e-05
0.000202223
-9.86539e-06
0.000205509
-6.56724e-06
0.000207012
-3.00262e-06
0.000206782
4.52717e-07
0.000204634
4.28594e-06
0.000200734
7.80322e-06
0.00019496
1.15458e-05
0.000187572
1.47728e-05
0.000178422
1.82904e-05
0.000167739
2.13569e-05
0.000155529
2.44115e-05
0.00014223
2.65886e-05
0.000127807
2.88325e-05
0.000112466
3.06719e-05
9.6526e-05
3.18664e-05
8.0008e-05
3.30229e-05
6.33242e-05
3.3355e-05
4.64713e-05
3.36925e-05
2.98469e-05
3.32367e-05
1.34889e-05
3.27048e-05
-2.31278e-06
3.15979e-05
-1.74394e-05
3.02491e-05
-3.1731e-05
2.85761e-05
-4.50706e-05
2.66665e-05
-5.7381e-05
2.46134e-05
-6.85642e-05
2.23663e-05
-7.86103e-05
2.00905e-05
-8.75299e-05
1.78431e-05
-9.53396e-05
1.56236e-05
-0.000102214
1.37552e-05
-0.000108049
1.16802e-05
-0.000112891
9.67794e-06
-0.000116871
7.94276e-06
-0.000120197
6.66038e-06
-0.000123282
6.18692e-06
-0.000125647
4.74565e-06
-0.000127814
4.33293e-06
-0.000129495
3.37203e-06
-0.000131095
3.19961e-06
-0.000132378
2.56572e-06
-0.000133595
2.43334e-06
-0.000134417
1.64653e-06
-0.000135059
1.281e-06
-0.000135165
2.07031e-07
-0.000135072
-1.9163e-07
-0.000134238
-1.67846e-06
-0.000132873
-2.74124e-06
-0.000130591
-4.573e-06
-0.000127401
-6.39144e-06
-0.000122986
-8.87646e-06
-0.000116571
-1.24173e-05
-0.000107063
-1.66582e-05
-9.26456e-05
-2.31779e-05
-4.48059e-05
-6.51033e-05
0.000208962
1.61972e-05
0.000202104
2.05509e-05
0.000193675
2.52584e-05
0.000183982
2.90456e-05
0.000172936
3.31015e-05
0.000160914
3.60287e-05
0.000147805
3.92853e-05
0.000133998
4.13755e-05
0.000119391
4.37764e-05
0.00010433
4.51414e-05
8.88095e-05
4.65185e-05
7.31048e-05
4.70742e-05
5.72851e-05
4.74198e-05
4.1567e-05
4.71194e-05
2.59897e-05
4.67056e-05
1.0659e-05
4.59637e-05
-4.28432e-06
4.48129e-05
-1.88005e-05
4.35328e-05
-3.27877e-05
4.19494e-05
-4.62524e-05
4.03845e-05
-5.91112e-05
3.85693e-05
-7.1363e-05
3.67508e-05
-8.29512e-05
3.47618e-05
-9.3887e-05
3.28062e-05
-0.000104124
3.0712e-05
-0.000113686
2.8689e-05
-0.000122542
2.6571e-05
-0.000130721
2.454e-05
-0.000138206
2.2461e-05
-0.000145027
2.04723e-05
-0.000151182
1.84721e-05
-0.000156699
1.65614e-05
-0.000161586
1.46683e-05
-0.000165873
1.28676e-05
-0.000169573
1.11095e-05
-0.000172706
9.40309e-06
-0.000175291
7.76058e-06
-0.000177344
6.15966e-06
-0.000178879
4.6032e-06
-0.000179908
3.07306e-06
-0.000180439
1.5791e-06
-0.000180471
8.5431e-08
-0.000180034
-1.31817e-06
-0.000179096
-2.82342e-06
-0.000177673
-4.26745e-06
-0.000175704
-5.8973e-06
-0.000173252
-7.36759e-06
-0.000170212
-9.12387e-06
-0.000166679
-1.06084e-05
-0.000162511
-1.25074e-05
-0.000157843
-1.40087e-05
-0.000152614
-1.56961e-05
-0.000146691
-1.77619e-05
-0.000140228
-1.94015e-05
-0.000133028
-2.15923e-05
-0.000125287
-2.32315e-05
-0.000116781
-2.54973e-05
-0.000107721
-2.72195e-05
-9.78916e-05
-2.94631e-05
-8.75136e-05
-3.11293e-05
-7.63869e-05
-3.33713e-05
-6.47452e-05
-3.49173e-05
-5.23699e-05
-3.71116e-05
-3.95293e-05
-3.8524e-05
-2.60254e-05
-4.05008e-05
-1.21265e-05
-4.16754e-05
2.29174e-06
-4.32479e-05
1.70131e-05
-4.41502e-05
3.21036e-05
-4.52489e-05
4.74241e-05
-4.59309e-05
6.2716e-05
-4.58503e-05
7.80578e-05
-4.59959e-05
9.32259e-05
-4.54604e-05
0.000108191
-4.48533e-05
0.000122709
-4.35173e-05
0.000136739
-4.20441e-05
0.000150022
-3.98177e-05
0.000162518
-3.74361e-05
0.000173986
-3.43614e-05
0.000184392
-3.1193e-05
0.000193493
-2.72694e-05
0.000201308
-2.33944e-05
0.000207592
-1.884e-05
0.000212409
-1.44269e-05
0.000215583
-9.51235e-06
0.000217183
-4.7848e-06
0.000217078
2.9522e-07
0.000215328
5.23034e-06
0.000211973
1.0079e-05
0.000206955
1.50261e-05
0.000200414
1.96225e-05
0.000192398
2.40263e-05
0.00018305
2.80196e-05
0.00017244
3.17949e-05
0.000160724
3.51196e-05
0.000147997
3.81289e-05
0.00013445
4.05982e-05
0.000120138
4.28922e-05
0.000105308
4.44503e-05
8.99983e-05
4.58874e-05
7.44716e-05
4.65388e-05
5.87364e-05
4.71632e-05
4.30666e-05
4.69916e-05
2.74586e-05
4.68073e-05
1.21263e-05
4.59767e-05
-2.90355e-06
4.50396e-05
-1.7524e-05
4.38321e-05
-3.16842e-05
4.24484e-05
-4.52573e-05
4.07146e-05
-5.8231e-05
3.89049e-05
-7.06137e-05
3.71448e-05
-8.22508e-05
3.49108e-05
-9.33414e-05
3.32666e-05
-0.000103599
3.07711e-05
-0.000113328
2.91839e-05
-0.000122204
2.66266e-05
-0.00013056
2.50542e-05
-0.000138058
2.25231e-05
-0.000145088
2.10712e-05
-0.000151266
1.85381e-05
-0.000157002
1.71832e-05
-0.000161882
1.46614e-05
-0.0001663
1.3217e-05
-0.000170045
1.12993e-05
-0.000173238
9.59705e-06
-0.000175766
7.56576e-06
-0.000177771
6.0193e-06
-0.000179343
4.71004e-06
-0.000180311
2.89128e-06
-0.00018082
1.54853e-06
-0.000180771
-1.46909e-07
-0.000180217
-1.65497e-06
-0.000179145
-3.21852e-06
-0.000177557
-4.76575e-06
-0.000175419
-6.41684e-06
-0.000172764
-7.96535e-06
-0.000169539
-9.67895e-06
-0.000165756
-1.13384e-05
-0.000161395
-1.31026e-05
-0.000156472
-1.47856e-05
-0.000150923
-1.66385e-05
-0.000144787
-1.84131e-05
-0.000137994
-2.03901e-05
-0.00013058
-2.22387e-05
-0.000122502
-2.42315e-05
-0.000113756
-2.62404e-05
-0.000104382
-2.8121e-05
-9.43186e-05
-3.01758e-05
-8.36452e-05
-3.20135e-05
-7.23212e-05
-3.39775e-05
-6.03763e-05
-3.582e-05
-4.78861e-05
-3.74677e-05
-3.48438e-05
-3.91162e-05
-2.13132e-05
-4.05634e-05
-7.33401e-06
-4.19252e-05
7.02221e-06
-4.30218e-05
2.16864e-05
-4.39605e-05
3.65852e-05
-4.46688e-05
5.1618e-05
-4.50699e-05
6.67047e-05
-4.52231e-05
8.17144e-05
-4.49954e-05
9.65427e-05
-4.44433e-05
0.000111039
-4.34449e-05
0.000125091
-4.21112e-05
0.000138476
-4.0106e-05
0.000151117
-3.78805e-05
0.000162822
-3.50749e-05
0.000173446
-3.1817e-05
0.00018288
-2.82599e-05
0.00019091
-2.40579e-05
0.000197491
-1.97099e-05
0.000202433
-1.4807e-05
0.000205727
-9.8611e-06
0.000207236
-4.51182e-06
0.00020698
7.08885e-07
0.000204821
6.4446e-06
0.00020093
1.16939e-05
0.000195155
1.73212e-05
0.000187759
2.21684e-05
0.000178597
2.74523e-05
0.000167895
3.20594e-05
0.000155666
3.66401e-05
0.000142353
3.99016e-05
0.000127907
4.32788e-05
0.000112545
4.60345e-05
9.65801e-05
4.78308e-05
8.00382e-05
4.95649e-05
6.33297e-05
5.00635e-05
4.64539e-05
5.05683e-05
2.98103e-05
4.98802e-05
1.34358e-05
4.90793e-05
-2.37322e-06
4.74069e-05
-1.75108e-05
4.53866e-05
-3.18225e-05
4.28879e-05
-4.51824e-05
4.00264e-05
-5.7505e-05
3.69359e-05
-6.86879e-05
3.35492e-05
-7.87376e-05
3.01402e-05
-8.76474e-05
2.67529e-05
-9.54429e-05
2.34191e-05
-0.000102303
2.06156e-05
-0.000108105
1.74819e-05
-0.000112956
1.45291e-05
-0.000117027
1.20135e-05
-0.000120349
9.98282e-06
-0.000123355
9.19226e-06
-0.000125691
7.08169e-06
-0.000127851
6.49313e-06
-0.000129512
5.03301e-06
-0.000131122
4.81016e-06
-0.000132402
3.84543e-06
-0.000133615
3.64634e-06
-0.00013443
2.46124e-06
-0.000135078
1.9297e-06
-0.000135212
3.40271e-07
-0.000135124
-2.79464e-07
-0.000134309
-2.4935e-06
-0.000132969
-4.08089e-06
-0.000130717
-6.82506e-06
-0.000127575
-9.53313e-06
-0.000123278
-1.31734e-05
-0.000117389
-1.83071e-05
-0.00010899
-2.50567e-05
-9.23578e-05
-3.98104e-05
-7.58687e-05
-6.12949e-05
0.000209226
2.16144e-05
0.000202354
2.74236e-05
0.000193907
3.3705e-05
0.000184193
3.87596e-05
0.000173126
4.41692e-05
0.00016108
4.80741e-05
0.000147946
5.24198e-05
0.000134113
5.5208e-05
0.00011948
5.84095e-05
0.000104392
6.0229e-05
8.88468e-05
6.20639e-05
7.31184e-05
6.28026e-05
5.7275e-05
6.32632e-05
4.15362e-05
6.28582e-05
2.59437e-05
6.22981e-05
1.05965e-05
6.1311e-05
-4.3573e-06
5.97666e-05
-1.88839e-05
5.80594e-05
-3.28791e-05
5.59446e-05
-4.63501e-05
5.38555e-05
-5.92139e-05
5.14331e-05
-7.14691e-05
4.9006e-05
-8.30595e-05
4.63522e-05
-9.39967e-05
4.37433e-05
-0.000104234
4.09492e-05
-0.000113796
3.82508e-05
-0.00012265
3.54257e-05
-0.000130827
3.27162e-05
-0.000138308
2.99428e-05
-0.000145126
2.729e-05
-0.000151276
2.46223e-05
-0.000156789
2.2074e-05
-0.000161671
1.95504e-05
-0.000165953
1.71495e-05
-0.00016965
1.48061e-05
-0.000172779
1.25321e-05
-0.000175361
1.03434e-05
-0.000177413
8.21101e-06
-0.000178949
6.13928e-06
-0.000179982
4.10615e-06
-0.000180517
2.11438e-06
-0.000180552
1.2009e-07
-0.000180119
-1.75141e-06
-0.000179183
-3.75928e-06
-0.00017776
-5.69003e-06
-0.000175793
-7.86438e-06
-0.000173341
-9.81971e-06
-0.000170304
-1.21606e-05
-0.000166776
-1.41367e-05
-0.00016261
-1.66731e-05
-0.000157943
-1.86754e-05
-0.000152719
-2.09208e-05
-0.000146794
-2.36866e-05
-0.000140337
-2.58582e-05
-0.000133135
-2.87944e-05
-0.000125399
-3.09681e-05
-0.000116891
-3.40052e-05
-0.000107842
-3.62679e-05
-9.79995e-05
-3.93058e-05
-8.7619e-05
-4.15099e-05
-7.64895e-05
-4.45008e-05
-6.48386e-05
-4.65682e-05
-5.24519e-05
-4.94983e-05
-3.96175e-05
-5.13584e-05
-2.61075e-05
-5.40108e-05
-1.21963e-05
-5.55865e-05
2.2277e-06
-5.7672e-05
1.69597e-05
-5.88822e-05
3.20648e-05
-6.0354e-05
4.74021e-05
-6.12682e-05
6.271e-05
-6.11582e-05
7.80729e-05
-6.13587e-05
9.32601e-05
-6.06476e-05
0.000108252
-5.98448e-05
0.000122791
-5.80572e-05
0.000136848
-5.61003e-05
0.000150153
-5.3123e-05
0.000162676
-4.99596e-05
0.000174177
-4.58618e-05
0.000184591
-4.16076e-05
0.000193711
-3.63888e-05
0.000201536
-3.12196e-05
0.00020785
-2.51544e-05
0.000212675
-1.92514e-05
0.000215854
-1.26916e-05
0.000217459
-6.39012e-06
0.000217346
4.08859e-07
0.000215589
6.98757e-06
0.000212238
1.34299e-05
0.000207209
2.00549e-05
0.000200659
2.61722e-05
0.000192629
3.20561e-05
0.000183265
3.73842e-05
0.000172631
4.24286e-05
0.000160897
4.68534e-05
0.000148143
5.08826e-05
0.00013457
5.41714e-05
0.000120235
5.72276e-05
0.000105382
5.93033e-05
9.00466e-05
6.12225e-05
7.44986e-05
6.20868e-05
5.87364e-05
6.29254e-05
4.30515e-05
6.26765e-05
2.74277e-05
6.24311e-05
1.20774e-05
6.1327e-05
-2.97908e-06
6.0096e-05
-1.75968e-05
5.84498e-05
-3.17764e-05
5.6628e-05
-4.53506e-05
5.42888e-05
-5.83362e-05
5.18905e-05
-7.07279e-05
4.95365e-05
-8.23618e-05
4.65447e-05
-9.34561e-05
4.43609e-05
-0.000103704
4.10194e-05
-0.000113442
3.89219e-05
-0.000122311
3.54949e-05
-0.000130679
3.3423e-05
-0.000138184
3.00278e-05
-0.000145204
2.80909e-05
-0.000151379
2.47136e-05
-0.000157107
2.29107e-05
-0.000161995
1.95499e-05
-0.000166435
1.76565e-05
-0.000170118
1.49824e-05
-0.000173331
1.28104e-05
-0.000175869
1.01032e-05
-0.000177864
8.01447e-06
-0.000179435
6.28144e-06
-0.000180409
3.86537e-06
-0.000180911
2.0508e-06
-0.00018086
-1.9844e-07
-0.000180305
-2.20977e-06
-0.000179233
-4.29071e-06
-0.000177647
-6.35169e-06
-0.000175511
-8.55236e-06
-0.000172855
-1.0622e-05
-0.000169633
-1.29005e-05
-0.000165843
-1.51285e-05
-0.000161502
-1.74437e-05
-0.00015658
-1.9708e-05
-0.000151026
-2.21919e-05
-0.000144893
-2.45462e-05
-0.000138107
-2.7176e-05
-0.000130691
-2.96553e-05
-0.000122608
-3.23143e-05
-0.000113881
-3.49671e-05
-0.000104493
-3.7509e-05
-9.44375e-05
-4.02316e-05
-8.37419e-05
-4.27091e-05
-7.24249e-05
-4.52945e-05
-6.04721e-05
-4.77728e-05
-4.79794e-05
-4.99604e-05
-3.49299e-05
-5.21658e-05
-2.13859e-05
-5.41074e-05
-7.39857e-06
-5.59126e-05
6.97601e-06
-5.73964e-05
2.16573e-05
-5.86418e-05
3.65656e-05
-5.95771e-05
5.16159e-05
-6.01202e-05
6.67271e-05
-6.03343e-05
8.17551e-05
-6.00235e-05
9.66097e-05
-5.92979e-05
0.00011113
-5.79654e-05
0.000125208
-5.61894e-05
0.000138629
-5.3527e-05
0.000151286
-5.05367e-05
0.000163018
-4.68078e-05
0.000173673
-4.24715e-05
0.000183131
-3.7718e-05
0.000191179
-3.21057e-05
0.000197784
-2.63146e-05
0.000202743
-1.97663e-05
0.000206041
-1.31591e-05
0.00020756
-6.03081e-06
0.000207267
1.00214e-06
0.000205106
8.6048e-06
0.000201226
1.55748e-05
0.000195445
2.31014e-05
0.000188038
2.95758e-05
0.000178861
3.66295e-05
0.000168128
4.27921e-05
0.000155873
4.8895e-05
0.000142538
5.32368e-05
0.000128058
5.77588e-05
0.000112662
6.143e-05
9.66598e-05
6.38334e-05
8.00776e-05
6.6147e-05
6.33368e-05
6.68043e-05
4.64276e-05
6.74775e-05
2.97538e-05
6.6554e-05
1.33515e-05
6.54816e-05
-2.47233e-06
6.32307e-05
-1.76379e-05
6.05521e-05
-3.19745e-05
5.72245e-05
-4.53483e-05
5.34002e-05
-5.76901e-05
4.92777e-05
-6.88754e-05
4.47345e-05
-7.89318e-05
4.01966e-05
-8.78262e-05
3.56474e-05
-9.55975e-05
3.11904e-05
-0.000102445
2.7463e-05
-0.000108213
2.32498e-05
-0.000113048
1.93639e-05
-0.000117224
1.619e-05
-0.000120552
1.33108e-05
-0.000123457
1.20972e-05
-0.000125753
9.37762e-06
-0.000127888
8.62812e-06
-0.00012955
6.69465e-06
-0.000131186
6.44631e-06
-0.000132434
5.09409e-06
-0.000133638
4.85004e-06
-0.000134443
3.26632e-06
-0.000135127
2.61334e-06
-0.000135309
5.22645e-07
-0.000135206
-3.82462e-07
-0.000134412
-3.28788e-06
-0.000133111
-5.382e-06
-0.000130906
-9.02949e-06
-0.000127791
-1.26489e-05
-0.000123487
-1.74773e-05
-0.000117708
-2.40853e-05
-0.00010931
-3.3455e-05
-9.54717e-05
-5.36488e-05
-0.000102688
-6.8652e-05
0.000209579
2.70476e-05
0.000202687
3.43159e-05
0.000194217
4.21748e-05
0.000184477
4.84997e-05
0.000173388
5.52577e-05
0.000161302
6.01605e-05
0.000148133
6.55884e-05
0.000134266
6.90753e-05
0.000119598
7.30777e-05
0.000104476
7.53512e-05
8.88964e-05
7.76431e-05
7.31362e-05
7.85628e-05
5.726e-05
7.91394e-05
4.14939e-05
7.86244e-05
2.58818e-05
7.79101e-05
1.05129e-05
7.66798e-05
-4.45494e-06
7.47345e-05
-1.89956e-05
7.26001e-05
-3.3002e-05
6.99509e-05
-4.64821e-05
6.73356e-05
-5.93529e-05
6.43039e-05
-7.16135e-05
6.12666e-05
-8.32078e-05
5.79466e-05
-9.41476e-05
5.46831e-05
-0.000104386
5.11878e-05
-0.000113948
4.78126e-05
-0.000122802
4.42798e-05
-0.000130976
4.08905e-05
-0.000138456
3.74222e-05
-0.00014527
3.41043e-05
-0.000151416
3.07686e-05
-0.000156924
2.75816e-05
-0.000161802
2.44282e-05
-0.000166079
2.14266e-05
-0.000169771
1.84983e-05
-0.000172895
1.56565e-05
-0.000175475
1.29228e-05
-0.000177522
1.02581e-05
-0.000179057
7.67411e-06
-0.00018009
5.13942e-06
-0.000180626
2.65086e-06
-0.000180661
1.54445e-07
-0.00018023
-2.18212e-06
-0.000179296
-4.69382e-06
-0.000177873
-7.11264e-06
-0.000175912
-9.82543e-06
-0.00017346
-1.22716e-05
-0.000170426
-1.51944e-05
-0.000166904
-1.76591e-05
-0.000162741
-2.08362e-05
-0.000158076
-2.33405e-05
-0.000152857
-2.61395e-05
-0.000146931
-2.96126e-05
-0.000140482
-3.23071e-05
-0.000133278
-3.59989e-05
-0.000125546
-3.87001e-05
-0.000117039
-4.25116e-05
-0.000107998
-4.53088e-05
-9.81432e-05
-4.9161e-05
-8.77807e-05
-5.18724e-05
-7.66262e-05
-5.56553e-05
-6.49565e-05
-5.82379e-05
-5.25628e-05
-6.18921e-05
-3.97333e-05
-6.41878e-05
-2.62163e-05
-6.75278e-05
-1.22892e-05
-6.95136e-05
2.14426e-06
-7.21054e-05
1.68925e-05
-7.36305e-05
3.20181e-05
-7.54796e-05
4.73765e-05
-7.66266e-05
6.27081e-05
-7.64898e-05
7.81033e-05
-7.67539e-05
9.33154e-05
-7.58598e-05
0.000108338
-7.48673e-05
0.00012291
-7.26289e-05
0.000136999
-7.01896e-05
0.000150336
-6.64605e-05
0.000162893
-6.25163e-05
0.000174424
-5.7393e-05
0.000184866
-5.20488e-05
0.00019401
-4.55337e-05
0.000201855
-3.90642e-05
0.000208208
-3.15074e-05
0.000213034
-2.40775e-05
0.000216225
-1.58826e-05
0.000217833
-7.99778e-06
0.000217717
5.24679e-07
0.000215952
8.75303e-06
0.000212593
1.67887e-05
0.000207551
2.50971e-05
0.000200985
3.27381e-05
0.000192936
4.0105e-05
0.000183546
4.67739e-05
0.000172865
5.31095e-05
0.000161123
5.85956e-05
0.000148336
6.36696e-05
0.000134728
6.77792e-05
0.000120362
7.15942e-05
0.000105479
7.41861e-05
9.01098e-05
7.65917e-05
7.4531e-05
7.76657e-05
5.87369e-05
7.87195e-05
4.30222e-05
7.83911e-05
2.73686e-05
7.80847e-05
1.20028e-05
7.66928e-05
-3.08059e-06
7.51793e-05
-1.77019e-05
7.30712e-05
-3.19187e-05
7.08448e-05
-4.54805e-05
6.78507e-05
-5.84766e-05
6.48865e-05
-7.08753e-05
6.19352e-05
-8.25225e-05
5.81919e-05
-9.36121e-05
5.54505e-05
-0.000103854
5.12615e-05
-0.0001136
4.86681e-05
-0.000122452
4.43464e-05
-0.000130831
4.18024e-05
-0.000138335
3.75316e-05
-0.000145351
3.51065e-05
-0.000151524
3.08866e-05
-0.000157234
2.86205e-05
-0.000162141
2.44576e-05
-0.000166587
2.21021e-05
-0.000170232
1.86275e-05
-0.000173479
1.60576e-05
-0.000176006
1.26298e-05
-0.000177991
9.99929e-06
-0.000179541
7.83184e-06
-0.000180532
4.85665e-06
-0.000181028
2.54615e-06
-0.000180978
-2.48263e-07
-0.000180427
-2.76095e-06
-0.000179349
-5.36842e-06
-0.000177766
-7.93496e-06
-0.000175633
-1.06852e-05
-0.000172971
-1.32844e-05
-0.000169753
-1.61177e-05
-0.000165973
-1.89085e-05
-0.000161649
-2.17678e-05
-0.00015672
-2.46368e-05
-0.000151177
-2.77357e-05
-0.000145028
-3.06944e-05
-0.000138256
-3.39479e-05
-0.000130838
-3.70743e-05
-0.000122743
-4.0409e-05
-0.000114043
-4.3667e-05
-0.000104643
-4.69092e-05
-9.45972e-05
-5.02772e-05
-8.38655e-05
-5.34407e-05
-7.25632e-05
-5.65968e-05
-6.06211e-05
-5.9715e-05
-4.81032e-05
-6.24783e-05
-3.50427e-05
-6.52263e-05
-2.14724e-05
-6.76777e-05
-7.48561e-06
-6.98993e-05
6.90433e-06
-7.17863e-05
2.16025e-05
-7.33399e-05
3.65344e-05
-7.4509e-05
5.1608e-05
-7.51939e-05
6.67358e-05
-7.54621e-05
8.17901e-05
-7.50778e-05
9.66834e-05
-7.41912e-05
0.000111236
-7.25178e-05
0.000125348
-7.03012e-05
0.000138809
-6.69884e-05
0.000151484
-6.32113e-05
0.000163264
-5.85878e-05
0.000173956
-5.31635e-05
0.00018344
-4.72024e-05
0.000191521
-4.01864e-05
0.000198152
-3.29463e-05
0.000203122
-2.47365e-05
0.000206444
-1.64811e-05
0.000207972
-7.5581e-06
0.000207669
1.30487e-06
0.000205507
1.07671e-05
0.000201621
1.94602e-05
0.000195826
2.88965e-05
0.000188406
3.69963e-05
0.000179212
4.58229e-05
0.000168451
5.35536e-05
0.000156146
6.11997e-05
0.000142782
6.66004e-05
0.000128258
7.22836e-05
0.000112819
7.68691e-05
9.67711e-05
7.98809e-05
8.01371e-05
8.2781e-05
6.33314e-05
8.361e-05
4.63866e-05
8.44223e-05
2.96542e-05
8.32864e-05
1.32308e-05
8.1905e-05
-2.62069e-06
7.90821e-05
-1.78235e-05
7.57549e-05
-3.21858e-05
7.15868e-05
-4.55732e-05
6.67876e-05
-5.79363e-05
6.16408e-05
-6.91328e-05
5.5931e-05
-7.91959e-05
5.02597e-05
-8.80785e-05
4.453e-05
-9.58277e-05
3.89395e-05
-0.000102661
3.42959e-05
-0.000108384
2.89736e-05
-0.000113188
2.41675e-05
-0.000117412
2.04144e-05
-0.000120731
1.66289e-05
-0.00012357
1.49363e-05
-0.00012583
1.16374e-05
-0.000127945
1.07435e-05
-0.00012961
8.35935e-06
-0.000131247
8.08322e-06
-0.00013247
6.31771e-06
-0.000133678
6.0576e-06
-0.00013449
4.07818e-06
-0.00013522
3.34365e-06
-0.000135427
7.2961e-07
-0.000135318
-4.91416e-07
-0.000134554
-4.05218e-06
-0.000133293
-6.64296e-06
-0.000131142
-1.11801e-05
-0.00012804
-1.57505e-05
-0.000123757
-2.17601e-05
-0.00011819
-2.96532e-05
-0.00010974
-4.1905e-05
-9.68404e-05
-6.6548e-05
-0.000126471
-7.30581e-05
0.00021002
3.25009e-05
0.000203103
4.12328e-05
0.000194604
5.06741e-05
0.000184833
5.82705e-05
0.000173702
6.63881e-05
0.000161577
7.22855e-05
0.000148369
7.87964e-05
0.000134457
8.29879e-05
0.000119745
8.77896e-05
0.000104579
9.05169e-05
8.89579e-05
9.32644e-05
7.3158e-05
9.43627e-05
5.72389e-05
9.50585e-05
4.14385e-05
9.44247e-05
2.58035e-05
9.35452e-05
1.04051e-05
9.20782e-05
-4.5774e-06
8.97171e-05
-1.91358e-05
8.71585e-05
-3.31562e-05
8.39713e-05
-4.66478e-05
8.08272e-05
-5.95276e-05
7.71837e-05
-7.17953e-05
7.35343e-05
-8.33948e-05
6.95461e-05
-9.43381e-05
6.56264e-05
-0.000104579
6.14284e-05
-0.000114141
5.73749e-05
-0.000122995
5.31336e-05
-0.000131167
4.90626e-05
-0.000138644
4.48991e-05
-0.000145454
4.09146e-05
-0.000151596
3.69106e-05
-0.000157099
3.30847e-05
-0.000161971
2.93002e-05
-0.000166242
2.56978e-05
-0.000169929
2.21848e-05
-0.000173048
1.87754e-05
-0.000175622
1.54973e-05
-0.000177665
1.23008e-05
-0.000179196
9.20521e-06
-0.000180228
6.17128e-06
-0.000180763
3.18633e-06
-0.000180796
1.8733e-07
-0.000180365
-2.61347e-06
-0.000179436
-5.62327e-06
-0.000178012
-8.53636e-06
-0.00017606
-1.17772e-05
-0.000173615
-1.4717e-05
-0.000170584
-1.82254e-05
-0.000167062
-2.1181e-05
-0.000162902