/*--------------------------------*- C++ -*----------------------------------*\
| =========                 |                                                 |
| \\      /  F ield         | OpenFOAM: The Open Source CFD Toolbox           |
|  \\    /   O peration     | Version:  3.0.1                                 |
|   \\  /    A nd           | Web:      www.OpenFOAM.org                      |
|    \\/     M anipulation  |                                                 |
\*---------------------------------------------------------------------------*/
FoamFile
{
    version     2.0;
    format      ascii;
    class       surfaceScalarField;
    location    "99.8";
    object      phi;
}
// * * * * * * * * * * * * * * * * * * * * * * * * * * * * * * * * * * * * * //

dimensions      [0 3 -1 0 0 0 0];

internalField   nonuniform List<scalar> 
42423
(
-0.000154488
3.7605e-06
-0.000157545
3.05705e-06
-0.000159968
2.42323e-06
-0.000161775
1.80653e-06
-0.00016298
1.20495e-06
-0.000163589
6.08776e-07
-0.000163518
-7.05719e-08
-0.000162782
-7.36072e-07
-0.000161459
-1.32318e-06
-0.000159396
-2.06261e-06
-0.000156615
-2.7812e-06
-0.000153251
-3.36385e-06
-0.000149009
-4.2424e-06
-0.000144003
-5.00536e-06
-0.000138114
-5.88937e-06
-0.000131394
-6.71997e-06
-0.00012393
-7.4645e-06
-0.00011547
-8.45987e-06
-0.000106065
-9.40518e-06
-9.57729e-05
-1.02917e-05
-8.43081e-05
-1.14648e-05
-7.18735e-05
-1.24346e-05
-5.85799e-05
-1.32936e-05
-4.42082e-05
-1.43717e-05
-2.8941e-05
-1.52673e-05
-1.27736e-05
-1.61674e-05
4.15294e-06
-1.69266e-05
2.16458e-05
-1.7493e-05
3.97266e-05
-1.80808e-05
5.82316e-05
-1.85051e-05
7.68107e-05
-1.85791e-05
9.54017e-05
-1.85911e-05
0.000113709
-1.83073e-05
0.000131546
-1.78371e-05
0.000148653
-1.7107e-05
0.000164665
-1.60116e-05
0.000179437
-1.4772e-05
0.000192735
-1.32989e-05
0.000204314
-1.1579e-05
0.00021401
-9.69555e-06
0.000221597
-7.58747e-06
0.000227025
-5.42795e-06
0.000230168
-3.1426e-06
0.000230855
-6.87092e-07
0.000229218
1.637e-06
0.000225194
4.02321e-06
0.000218872
6.32216e-06
0.000210475
8.39739e-06
0.000200178
1.02968e-05
0.00018809
1.20881e-05
0.000174422
1.36681e-05
0.000159426
1.49958e-05
0.000143325
1.61006e-05
0.000126416
1.69091e-05
0.000108894
1.75218e-05
9.10227e-05
1.78716e-05
7.30058e-05
1.80168e-05
5.50166e-05
1.79892e-05
3.7174e-05
1.78426e-05
1.98051e-05
1.73688e-05
3.01708e-06
1.6788e-05
-1.3311e-05
1.6328e-05
-2.88684e-05
1.55574e-05
-4.36046e-05
1.47362e-05
-5.75306e-05
1.39259e-05
-7.05417e-05
1.30111e-05
-8.26164e-05
1.20747e-05
-9.37704e-05
1.1154e-05
-0.000103965
1.01944e-05
-0.000113367
9.40182e-06
-0.00012183
8.46316e-06
-0.000129434
7.60439e-06
-0.000136238
6.80329e-06
-0.000142276
6.03853e-06
-0.000147497
5.2205e-06
-0.000152032
4.53553e-06
-0.000155755
3.72267e-06
-0.000158804
3.04936e-06
-0.00016118
2.37593e-06
-0.000162792
1.61226e-06
-0.000163729
9.36834e-07
-0.000163978
2.49029e-07
-0.000163497
-4.81529e-07
-0.000162266
-1.23046e-06
-0.000160272
-1.99394e-06
-0.000157474
-2.79826e-06
-0.000153929
-3.54456e-06
-0.000149522
-4.40755e-06
-0.000144304
-5.21816e-06
-0.000138229
-6.07434e-06
-0.000131261
-6.96894e-06
-0.000123345
-7.9153e-06
-0.000114509
-8.83601e-06
-0.000104759
-9.74985e-06
-9.41519e-05
-1.06075e-05
-8.27648e-05
-1.13871e-05
-7.06609e-05
-1.21039e-05
-5.79279e-05
-1.27331e-05
-4.45172e-05
-1.34107e-05
-3.04652e-05
-1.4052e-05
-1.57713e-05
-1.4694e-05
-4.70335e-07
-1.5301e-05
1.5364e-05
-1.58344e-05
3.17231e-05
-1.63592e-05
4.84489e-05
-1.67258e-05
6.54469e-05
-1.6998e-05
8.25691e-05
-1.71222e-05
9.96553e-05
-1.70863e-05
0.000116523
-1.68675e-05
0.000132964
-1.64412e-05
0.000148769
-1.58056e-05
0.00016373
-1.49607e-05
0.000177627
-1.38969e-05
0.000190262
-1.26349e-05
0.000201426
-1.11647e-05
0.000210947
-9.52044e-06
0.000218631
-7.68451e-06
0.000224346
-5.71527e-06
0.000227962
-3.61589e-06
0.000229417
-1.45512e-06
0.000228687
7.30625e-07
0.000225691
2.99589e-06
0.000220439
5.25121e-06
0.000213064
7.37501e-06
0.000203623
9.44181e-06
0.000192344
1.12781e-05
0.000179405
1.29398e-05
0.000164938
1.44664e-05
0.000149257
1.56809e-05
0.000132576
1.66811e-05
0.000115152
1.74238e-05
9.7197e-05
1.79553e-05
7.89909e-05
1.82061e-05
6.07213e-05
1.82696e-05
4.26144e-05
1.81069e-05
2.48166e-05
1.77978e-05
7.53946e-06
1.72771e-05
-9.12322e-06
1.66627e-05
-2.50244e-05
1.59011e-05
-4.00711e-05
1.50467e-05
-5.42085e-05
1.41374e-05
-6.73553e-05
1.31468e-05
-7.94721e-05
1.21168e-05
-9.05282e-05
1.10561e-05
-0.000100555
1.00268e-05
-0.000109585
9.02967e-06
-0.000117597
8.01234e-06
-0.000124623
7.02611e-06
-0.000130764
6.14132e-06
-0.000136023
5.25828e-06
-0.000140472
4.44902e-06
-0.000144162
3.69068e-06
-0.000147133
2.97042e-06
-0.000149428
2.2952e-06
-0.000151082
1.6544e-06
-0.00015225
1.16733e-06
-0.000152838
5.88391e-07
-0.000152892
5.40017e-08
-0.000152452
-4.40562e-07
-0.000151504
-9.47707e-07
-0.000150007
-1.49656e-06
-0.000148104
-1.90295e-06
-0.000145627
-2.47723e-06
-0.000142591
-3.03669e-06
-0.000138951
-3.6392e-06
-0.000134827
-4.12462e-06
-0.000130014
-4.81318e-06
-0.000124573
-5.44011e-06
-0.000118459
-6.11494e-06
-0.000111609
-6.84952e-06
-0.000104058
-7.55086e-06
-9.57156e-05
-8.34265e-06
-8.66518e-05
-9.06384e-06
-7.6798e-05
-9.8538e-06
-6.61104e-05
-1.06876e-05
-5.46339e-05
-1.14765e-05
-4.23196e-05
-1.23144e-05
-2.92022e-05
-1.31174e-05
-1.53172e-05
-1.3885e-05
-6.9383e-07
-1.46234e-05
1.45735e-05
-1.52674e-05
3.04498e-05
-1.58763e-05
4.67875e-05
-1.63378e-05
6.34725e-05
-1.66851e-05
8.03239e-05
-1.68515e-05
9.71639e-05
-1.68401e-05
0.000113806
-1.66422e-05
0.000129967
-1.61611e-05
0.000145438
-1.54711e-05
0.000159951
-1.4513e-05
0.000173248
-1.32972e-05
0.000185074
-1.18263e-05
0.000195174
-1.01001e-05
0.000203318
-8.14339e-06
0.000209328
-6.00997e-06
0.000213065
-3.73746e-06
0.000214406
-1.34058e-06
0.000213343
1.06211e-06
0.000209825
3.51861e-06
0.000203923
5.90156e-06
0.00019578
8.14274e-06
0.000185555
1.02248e-05
0.000173446
1.21094e-05
0.000159693
1.37528e-05
0.000144544
1.51493e-05
0.000128344
1.61994e-05
0.000111309
1.70358e-05
9.38103e-05
1.74982e-05
7.60275e-05
1.77828e-05
5.82152e-05
1.78122e-05
4.05435e-05
1.76717e-05
2.31452e-05
1.73983e-05
6.22285e-06
1.69223e-05
-1.01699e-05
1.63928e-05
-2.58355e-05
1.56656e-05
-4.07253e-05
1.48898e-05
-5.46933e-05
1.3968e-05
-6.77965e-05
1.31032e-05
-7.99202e-05
1.21237e-05
-9.10908e-05
1.11706e-05
-0.000101327
1.02359e-05
-0.000110638
9.31138e-06
-0.000119206
8.56809e-06
-0.000126904
7.69786e-06
-0.000133803
6.89899e-06
-0.000139956
6.15262e-06
-0.000145319
5.36301e-06
-0.000149925
4.6064e-06
-0.000153804
3.87893e-06
-0.000157077
3.27308e-06
-0.000159693
2.61576e-06
-0.000161732
2.03887e-06
-0.000163265
1.53318e-06
-0.000164322
1.05747e-06
-0.000164953
6.30475e-07
-0.000165101
1.47888e-07
-0.000164775
-3.26315e-07
-0.000163879
-8.95942e-07
-0.000162335
-1.54397e-06
-0.000160245
-2.08952e-06
-0.000157377
-2.86825e-06
-0.000153789
-3.58749e-06
-0.000149427
-4.36252e-06
-0.0001443
-5.12728e-06
-0.000138402
-5.89769e-06
-0.000131748
-6.65356e-06
-0.000124375
-7.37362e-06
-0.000116285
-8.09025e-06
-0.000107472
-8.81249e-06
-9.78635e-05
-9.60862e-06
-8.75546e-05
-1.03089e-05
-7.64441e-05
-1.11105e-05
-6.4476e-05
-1.19682e-05
-5.16753e-05
-1.28007e-05
-3.80298e-05
-1.36455e-05
-2.36558e-05
-1.43741e-05
-8.62458e-06
-1.50313e-05
6.89839e-06
-1.5523e-05
2.27889e-05
-1.58906e-05
3.89026e-05
-1.61137e-05
5.51038e-05
-1.62013e-05
7.1225e-05
-1.61212e-05
8.71279e-05
-1.5903e-05
0.000102617
-1.54892e-05
0.000117438
-1.48207e-05
0.000131365
-1.39272e-05
0.000144126
-1.27614e-05
0.000155437
-1.1311e-05
0.000165063
-9.62649e-06
0.000172734
-7.67099e-06
0.0001783
-5.56589e-06
0.00018166
-3.36002e-06
0.000182799
-1.13842e-06
0.000181871
9.27996e-07
0.000178608
3.26248e-06
0.000173425
5.18262e-06
0.000166379
7.04657e-06
0.00015759
8.7891e-06
0.000147176
1.04132e-05
0.000135623
1.15535e-05
0.000122898
1.27251e-05
0.000109235
1.36627e-05
9.48275e-05
1.44074e-05
7.95656e-05
1.52618e-05
6.37353e-05
1.58303e-05
4.73678e-05
1.63674e-05
3.06808e-05
1.6687e-05
1.39769e-05
1.67038e-05
-2.7053e-06
1.66822e-05
-1.89677e-05
1.62624e-05
-3.4728e-05
1.57603e-05
-4.97362e-05
1.50082e-05
-6.39299e-05
1.41936e-05
-7.72829e-05
1.3353e-05
-8.97059e-05
1.24231e-05
-0.000101196
1.149e-05
-0.000111778
1.05817e-05
-0.000121407
9.62948e-06
-0.000130112
8.70453e-06
-0.000137914
7.80225e-06
-0.000144805
6.89139e-06
-0.000150834
6.02873e-06
-0.000155979
5.14511e-06
-0.000160254
4.27499e-06
-0.000163695
3.44115e-06
-0.000166249
2.55363e-06
-0.000167878
1.6292e-06
-0.000168623
7.4479e-07
-0.000168538
-8.49978e-08
-0.000167774
-7.64112e-07
-0.000166244
-1.52947e-06
-0.000163898
-2.34681e-06
-0.0001607
-3.19728e-06
-0.000156651
-4.0496e-06
-0.000151601
-5.04962e-06
-0.000145634
-5.9672e-06
-0.000138586
-7.04828e-06
-0.000130551
-8.03436e-06
-0.000121586
-8.9652e-06
-0.000111485
-1.0101e-05
-0.000100343
-1.11419e-05
-8.83e-05
-1.20433e-05
-7.49521e-05
-1.3348e-05
-6.06588e-05
-1.42933e-05
-4.53081e-05
-1.53508e-05
-2.89967e-05
-1.63115e-05
-1.20053e-05
-1.69914e-05
5.77176e-06
-1.77771e-05
2.41352e-05
-1.83635e-05
4.28497e-05
-1.87145e-05
6.19274e-05
-1.90778e-05
8.11487e-05
-1.92214e-05
0.000100084
-1.89351e-05
0.00011868
-1.85961e-05
0.000136629
-1.79495e-05
0.000153712
-1.70828e-05
0.000169677
-1.59651e-05
0.00018415
-1.44726e-05
0.000196993
-1.28434e-05
0.000207989
-1.09959e-05
0.000216866
-8.87738e-06
0.000223512
-6.64583e-06
0.000227792
-4.27999e-06
0.000229577
-1.78534e-06
0.000228885
6.9244e-07
0.000225564
3.32046e-06
0.000219822
5.7419e-06
0.00021176
8.06215e-06
0.000201388
1.03718e-05
0.000189066
1.23219e-05
0.000174851
1.42155e-05
0.000159207
1.56438e-05
0.000142206
1.70004e-05
0.000124002
1.82047e-05
0.000105189
1.8813e-05
8.57686e-05
1.94201e-05
1.96984e-05
-0.00015452
7.52627e-06
-0.000157578
6.1151e-06
-0.000160006
4.8504e-06
-0.000161818
3.61924e-06
-0.000163025
2.41146e-06
-0.000163631
1.21492e-06
-0.00016356
-1.41546e-07
-0.000162822
-1.47377e-06
-0.000161502
-2.64356e-06
-0.000159442
-4.12293e-06
-0.000156661
-5.56184e-06
-0.0001533
-6.72451e-06
-0.000149056
-8.48728e-06
-0.000144052
-1.00086e-05
-0.000138165
-1.17766e-05
-0.000131443
-1.34418e-05
-0.00012398
-1.49274e-05
-0.000115519
-1.69212e-05
-0.000106105
-1.88196e-05
-9.58124e-05
-2.05841e-05
-8.4358e-05
-2.29192e-05
-7.19191e-05
-2.48736e-05
-5.86241e-05
-2.65887e-05
-4.42518e-05
-2.87442e-05
-2.8982e-05
-3.05371e-05
-1.28158e-05
-3.23337e-05
4.12057e-06
-3.38631e-05
2.16204e-05
-3.49929e-05
3.97115e-05
-3.61719e-05
5.82242e-05
-3.70179e-05
7.68134e-05
-3.71684e-05
9.54154e-05
-3.71932e-05
0.000113736
-3.66278e-05
0.000131586
-3.56878e-05
0.000148705
-3.42262e-05
0.000164733
-3.20392e-05
0.000179519
-2.95584e-05
0.000192825
-2.66044e-05
0.000204409
-2.31636e-05
0.000214112
-1.9399e-05
0.000221705
-1.51806e-05
0.000227137
-1.08599e-05
0.000230284
-6.28939e-06
0.000230973
-1.37642e-06
0.000229327
3.28304e-06
0.000225303
8.04738e-06
0.000218981
1.26434e-05
0.000210578
1.68006e-05
0.000200273
2.06021e-05
0.000188176
2.41852e-05
0.000174498
2.73452e-05
0.000159489
3.00055e-05
0.00014338
3.22094e-05
0.000126461
3.38276e-05
0.00010893
3.5053e-05
9.10496e-05
3.57519e-05
7.30296e-05
3.60368e-05
5.50266e-05
3.59921e-05
3.71737e-05
3.56955e-05
1.97925e-05
3.47499e-05
2.99359e-06
3.35869e-05
-1.33457e-05
3.26672e-05
-2.89137e-05
3.11255e-05
-4.36562e-05
2.94786e-05
-5.75881e-05
2.78578e-05
-7.06015e-05
2.60245e-05
-8.26788e-05
2.4152e-05
-9.38375e-05
2.23127e-05
-0.000104039
2.03963e-05
-0.000113435
1.87972e-05
-0.000121898
1.69262e-05
-0.00012949
1.51967e-05
-0.000136297
1.36105e-05
-0.000142343
1.20845e-05
-0.000147561
1.04383e-05
-0.000152096
9.07024e-06
-0.000155821
7.4478e-06
-0.000158875
6.10324e-06
-0.000161236
4.73693e-06
-0.000162849
3.22582e-06
-0.000163792
1.8793e-06
-0.000164062
5.1912e-07
-0.000163564
-9.79119e-07
-0.000162332
-2.46333e-06
-0.000160332
-3.99358e-06
-0.000157531
-5.5993e-06
-0.000153982
-7.0935e-06
-0.000149569
-8.82068e-06
-0.000144348
-1.04392e-05
-0.000138266
-1.21561e-05
-0.000131294
-1.39408e-05
-0.000123374
-1.58353e-05
-0.000114537
-1.76734e-05
-0.000104772
-1.95152e-05
-9.41512e-05
-2.12281e-05
-8.27504e-05
-2.2788e-05
-7.06526e-05
-2.42017e-05
-5.78912e-05
-2.54945e-05
-4.44721e-05
-2.683e-05
-3.04122e-05
-2.8112e-05
-1.5717e-05
-2.93893e-05
-4.05075e-07
-3.0613e-05
1.54489e-05
-3.16885e-05
3.18249e-05
-3.27353e-05
4.85652e-05
-3.34662e-05
6.55709e-05
-3.40038e-05
8.27086e-05
-3.42601e-05
9.98033e-05
-3.41811e-05
0.000116684
-3.37486e-05
0.000133135
-3.28918e-05
0.000148945
-3.1616e-05
0.000163908
-2.99237e-05
0.000177809
-2.77982e-05
0.000190448
-2.52736e-05
0.000201613
-2.23299e-05
0.000211136
-1.90439e-05
0.000218822
-1.53708e-05
0.000224533
-1.14255e-05
0.00022814
-7.22354e-06
0.000229593
-2.90784e-06
0.000228837
1.48589e-06
0.000225815
6.01819e-06
0.000220551
1.05152e-05
0.000213151
1.47749e-05
0.000203678
1.89146e-05
0.000192373
2.25825e-05
0.000179382
2.59307e-05
0.0001649
2.89488e-05
0.000149182
3.13991e-05
0.00013247
3.33925e-05
0.00011502
3.48742e-05
9.70472e-05
3.59278e-05
7.8813e-05
3.64403e-05
6.05158e-05
3.65668e-05
4.23794e-05
3.62433e-05
2.45697e-05
3.56073e-05
7.25836e-06
3.45885e-05
-9.37755e-06
3.32985e-05
-2.53387e-05
3.18623e-05
-4.03614e-05
3.00694e-05
-5.45442e-05
2.83202e-05
-6.76485e-05
2.62511e-05
-7.98058e-05
2.42741e-05
-9.08861e-05
2.21364e-05
-0.000100927
2.00679e-05
-0.000109932
1.80344e-05
-0.000117928
1.60082e-05
-0.000124979
1.40774e-05
-0.000131082
1.22438e-05
-0.000136351
1.05276e-05
-0.000140774
8.87221e-06
-0.000144453
7.36964e-06
-0.000147381
5.89824e-06
-0.000149674
4.58768e-06
-0.000151409
3.39e-06
-0.000152515
2.27276e-06
-0.00015308
1.15337e-06
-0.000153127
1.01428e-07
-0.000152667
-9.00733e-07
-0.000151692
-1.92258e-06
-0.000150225
-2.96355e-06
-0.000148289
-3.83874e-06
-0.000145793
-4.9734e-06
-0.00014273
-6.09966e-06
-0.000139098
-7.27101e-06
-0.000134967
-8.25628e-06
-0.000130144
-9.63592e-06
-0.000124697
-1.0887e-05
-0.000118575
-1.22371e-05
-0.000111716
-1.37084e-05
-0.000104153
-1.51136e-05
-9.57852e-05
-1.67109e-05
-8.67364e-05
-1.81127e-05
-7.68742e-05
-1.97161e-05
-6.61747e-05
-2.13871e-05
-5.46829e-05
-2.29685e-05
-4.23591e-05
-2.46383e-05
-2.92328e-05
-2.62439e-05
-1.53449e-05
-2.77731e-05
-7.09405e-07
-2.9259e-05
1.45726e-05
-3.05495e-05
3.0456e-05
-3.17599e-05
4.68024e-05
-3.26843e-05
6.34921e-05
-3.33749e-05
8.03494e-05
-3.37089e-05
9.71981e-05
-3.3689e-05
0.000113844
-3.32881e-05
0.000130006
-3.23233e-05
0.000145483
-3.09485e-05
0.000160003
-2.90328e-05
0.000173303
-2.65972e-05
0.00018512
-2.36438e-05
0.000195216
-2.01966e-05
0.000203356
-1.62827e-05
0.000209361
-1.20155e-05
0.000213084
-7.46007e-06
0.000214403
-2.65977e-06
0.00021332
2.14416e-06
0.000209775
7.0641e-06
0.000203851
1.18252e-05
0.00019571
1.62838e-05
0.000185433
2.05012e-05
0.000173294
2.42482e-05
0.000159516
2.75316e-05
0.000144338
3.03269e-05
0.000128097
3.24406e-05
0.000111062
3.40707e-05
9.35674e-05
3.49925e-05
7.57372e-05
3.56128e-05
5.79222e-05
3.56271e-05
4.0231e-05
3.53629e-05
2.28397e-05
3.47895e-05
5.9012e-06
3.38607e-05
-1.04817e-05
3.27756e-05
-2.61574e-05
3.13413e-05
-4.10432e-05
2.97755e-05
-5.50495e-05
2.79742e-05
-6.81061e-05
2.61598e-05
-8.01585e-05
2.4176e-05
-9.13669e-05
2.2379e-05
-0.000101609
2.04778e-05
-0.000110955
1.86573e-05
-0.000119467
1.70799e-05
-0.000127143
1.53745e-05
-0.000134053
1.38087e-05
-0.000140189
1.22886e-05
-0.000145536
1.07104e-05
-0.000150099
9.16864e-06
-0.000154035
7.81542e-06
-0.000157272
6.51022e-06
-0.000159871
5.21418e-06
-0.000161898
4.06612e-06
-0.000163425
3.06042e-06
-0.000164467
2.09903e-06
-0.000165081
1.24438e-06
-0.000165233
3.00262e-07
-0.000164895
-6.64864e-07
-0.000163999
-1.7918e-06
-0.000162474
-3.06845e-06
-0.000160351
-4.21296e-06
-0.000157484
-5.73531e-06
-0.000153882
-7.18903e-06
-0.00014954
-8.70476e-06
-0.00014441
-1.02575e-05
-0.000138507
-1.18008e-05
-0.00013185
-1.33099e-05
-0.000124479
-1.47447e-05
-0.000116392
-1.61781e-05
-0.000107575
-1.76292e-05
-9.79676e-05
-1.92161e-05
-8.7684e-05
-2.05926e-05
-7.65566e-05
-2.2238e-05
-6.45783e-05
-2.39466e-05
-5.17678e-05
-2.56114e-05
-3.81143e-05
-2.7299e-05
-2.37315e-05
-2.8757e-05
-8.68924e-06
-3.00736e-05
6.84431e-06
-3.10566e-05
2.27473e-05
-3.17937e-05
3.88709e-05
-3.22374e-05
5.50789e-05
-3.24094e-05
7.12182e-05
-3.22606e-05
8.71346e-05
-3.18195e-05
0.000102637
-3.09912e-05
0.000117472
-2.9656e-05
0.000131408
-2.78636e-05
0.000144183
-2.55362e-05
0.000155505
-2.26328e-05
0.000165136
-1.92584e-05
0.000172823
-1.53582e-05
0.000178394
-1.11369e-05
0.000181748
-6.71398e-06
0.000182888
-2.27863e-06
0.00018196
1.85581e-06
0.000178694
6.52855e-06
0.000173505
1.0372e-05
0.000166448
1.41034e-05
0.000157657
1.75802e-05
0.000147227
2.08423e-05
0.00013566
2.31212e-05
0.000122928
2.5457e-05
0.000109296
2.72942e-05
9.48593e-05
2.88443e-05
7.95933e-05
3.05278e-05
6.37578e-05
3.16657e-05
4.73847e-05
3.27405e-05
3.06886e-05
3.33831e-05
1.39765e-05
3.34159e-05
-2.71449e-06
3.33731e-05
-1.89814e-05
3.25292e-05
-3.47459e-05
3.15249e-05
-4.97568e-05
3.00191e-05
-6.39521e-05
2.83889e-05
-7.73062e-05
2.6707e-05
-8.97297e-05
2.48465e-05
-0.00010122
2.29802e-05
-0.000111802
2.11634e-05
-0.000121431
1.92586e-05
-0.000130135
1.74088e-05
-0.000137935
1.56026e-05
-0.000144824
1.37805e-05
-0.000150853
1.20577e-05
-0.000156
1.02912e-05
-0.000160277
8.55194e-06
-0.000163709
6.87343e-06
-0.000166247
5.09231e-06
-0.000167881
3.26302e-06
-0.000168647
1.51089e-06
-0.000168578
-1.54939e-07
-0.000167819
-1.52301e-06
-0.000166296
-3.05196e-06
-0.000163949
-4.69409e-06
-0.000160756
-6.39006e-06
-0.00015671
-8.09614e-06
-0.000151663
-1.00959e-05
-0.0001457
-1.19309e-05
-0.000138644
-1.41039e-05
-0.000130611
-1.60673e-05
-0.000121647
-1.79299e-05
-0.000111542
-2.02055e-05
-0.000100395
-2.22897e-05
-8.8326e-05
-2.41119e-05
-7.50042e-05
-2.66699e-05
-6.07104e-05
-2.85871e-05
-4.53522e-05
-3.0709e-05
-2.90353e-05
-3.26285e-05
-1.20396e-05
-3.39872e-05
5.73672e-06
-3.55536e-05
2.41075e-05
-3.67345e-05
4.28314e-05
-3.74385e-05
6.19196e-05
-3.8166e-05
8.11537e-05
-3.84557e-05
0.0001001
-3.78816e-05
0.000118709
-3.72052e-05
0.000136671
-3.5911e-05
0.00015377
-3.41826e-05
0.000169753
-3.19483e-05
0.000184232
-2.89513e-05
0.000197082
-2.56942e-05
0.000208091
-2.20045e-05
0.000216978
-1.77648e-05
0.000223632
-1.32997e-05
0.00022792
-8.56795e-06
0.00022971
-3.57511e-06
0.000229002
1.40019e-06
0.000225674
6.64753e-06
0.000219933
1.14831e-05
0.000211864
1.61308e-05
0.000201483
2.07531e-05
0.00018915
2.46546e-05
0.000174921
2.84445e-05
0.000159266
3.12987e-05
0.000142253
3.40137e-05
0.000124035
3.64221e-05
0.00010521
3.76377e-05
8.57784e-05
3.88521e-05
3.94078e-05
-0.000154577
1.12941e-05
-0.000157637
9.17575e-06
-0.000160066
7.27862e-06
-0.000161879
5.43266e-06
-0.000163089
3.62121e-06
-0.000163688
1.81413e-06
-0.00016361
-2.19259e-07
-0.000162872
-2.21215e-06
-0.000161552
-3.96357e-06
-0.000159496
-6.17867e-06
-0.000156736
-8.32204e-06
-0.000153351
-1.01097e-05
-0.000149109
-1.27288e-05
-0.000144109
-1.50094e-05
-0.000138221
-1.76645e-05
-0.000131505
-2.0158e-05
-0.000124042
-2.23898e-05
-0.000115585
-2.53784e-05
-0.000106178
-2.82274e-05
-9.58867e-05
-3.08749e-05
-8.44405e-05
-3.43655e-05
-7.19952e-05
-3.7319e-05
-5.86969e-05
-3.98871e-05
-4.43223e-05
-4.31188e-05
-2.90518e-05
-4.58078e-05
-1.28961e-05
-4.84894e-05
4.08068e-06
-5.084e-05
2.15917e-05
-5.2504e-05
3.97005e-05
-5.42809e-05
5.82292e-05
-5.55467e-05
7.68343e-05
-5.57736e-05
9.54528e-05
-5.58118e-05
0.000113793
-5.49681e-05
0.000131662
-5.35568e-05
0.000148797
-5.13614e-05
0.00016484
-4.80822e-05
0.000179645
-4.43636e-05
0.000192972
-3.99314e-05
0.000204572
-3.47637e-05
0.000214285
-2.91121e-05
0.000221881
-2.2777e-05
0.000227318
-1.62973e-05
0.000230475
-9.44621e-06
0.000231171
-2.07282e-06
0.000229496
4.95812e-06
0.000225474
1.20691e-05
0.000219155
1.89626e-05
0.00021074
2.52153e-05
0.000200417
3.09252e-05
0.000188298
3.6304e-05
0.000174604
4.10399e-05
0.000159565
4.50444e-05
0.000143444
4.83305e-05
0.000126509
5.07624e-05
0.000108962
5.25999e-05
9.10683e-05
5.36453e-05
7.30532e-05
5.40519e-05
5.50155e-05
5.40297e-05
3.71502e-05
5.35608e-05
1.9746e-05
5.21542e-05
2.91801e-06
5.04148e-05
-1.34125e-05
4.89977e-05
-2.89857e-05
4.66987e-05
-4.37313e-05
4.42242e-05
-5.76642e-05
4.17907e-05
-7.0678e-05
3.90382e-05
-8.27569e-05
3.62309e-05
-9.39194e-05
3.34752e-05
-0.00010412
3.0597e-05
-0.000113512
2.81889e-05
-0.000121971
2.53849e-05
-0.000129546
2.2772e-05
-0.000136356
2.04204e-05
-0.000142407
1.81354e-05
-0.000147626
1.56575e-05
-0.000152165
1.36088e-05
-0.000155887
1.11702e-05
-0.000158944
9.16038e-06
-0.000161288
7.08136e-06
-0.000162908
4.84518e-06
-0.000163853
2.8247e-06
-0.000164144
8.09902e-07
-0.000163644
-1.47964e-06
-0.000162406
-3.70057e-06
-0.000160404
-5.9955e-06
-0.000157605
-8.39882e-06
-0.000154054
-1.06439e-05
-0.000149635
-1.32404e-05
-0.000144414
-1.56598e-05
-0.000138336
-1.8234e-05
-0.00013137
-2.09072e-05
-0.000123457
-2.37484e-05
-0.00011461
-2.65203e-05
-0.000104852
-2.92737e-05
-9.42292e-05
-3.18506e-05
-8.28252e-05
-3.4192e-05
-7.07137e-05
-3.63133e-05
-5.79507e-05
-3.82576e-05
-4.45283e-05
-4.02525e-05
-3.04705e-05
-4.21698e-05
-1.57745e-05
-4.40854e-05
-4.52297e-07
-4.59353e-05
1.54041e-05
-4.7545e-05
3.17874e-05
-4.91187e-05
4.85285e-05
-5.02074e-05
6.55388e-05
-5.10141e-05
8.26783e-05
-5.13998e-05
9.97867e-05
-5.12896e-05
0.000116669
-5.06305e-05
0.000133129
-4.93522e-05
0.000148953
-4.74405e-05
0.000163934
-4.49049e-05
0.000177852
-4.17165e-05
0.000190502
-3.79234e-05
0.000201673
-3.35012e-05
0.000211198
-2.8569e-05
0.000218891
-2.30634e-05
0.000224613
-1.71476e-05
0.000228218
-1.08292e-05
0.000229669
-4.3584e-06
0.000228897
2.2574e-06
0.000225857
9.05786e-06
0.000220582
1.57901e-05
0.00021315
2.22071e-05
0.000203669
2.83955e-05
0.000192339
3.39124e-05
0.000179295
3.89747e-05
0.00016481
4.34341e-05
0.000149079
4.71302e-05
0.000132336
5.01348e-05
0.000114848
5.23621e-05
9.68491e-05
5.39269e-05
7.85841e-05
5.47053e-05
6.02653e-05
5.48856e-05
4.21012e-05
5.44073e-05
2.43124e-05
5.3396e-05
6.92594e-06
5.19749e-05
-9.7317e-06
4.99562e-05
-2.57063e-05
4.78369e-05
-4.07773e-05
4.51403e-05
-5.49267e-05
4.24696e-05
-6.80129e-05
3.93373e-05
-8.02014e-05
3.64625e-05
-9.12849e-05
3.32199e-05
-0.000101341
3.01239e-05
-0.000110322
2.70159e-05
-0.000118272
2.39574e-05
-0.000125351
2.11573e-05
-0.000131466
1.83581e-05
-0.000136725
1.57868e-05
-0.000141133
1.32799e-05
-0.000144761
1.09975e-05
-0.000147721
8.85874e-06
-0.00015009
6.95677e-06
-0.000151778
5.07825e-06
-0.000152876
3.36998e-06
-0.000153432
1.70935e-06
-0.000153457
1.26874e-07
-0.000152989
-1.36879e-06
-0.000151944
-2.96782e-06
-0.000150544
-4.36354e-06
-0.000148585
-5.79793e-06
-0.000146094
-7.46357e-06
-0.000142984
-9.21047e-06
-0.000139458
-1.07965e-05
-0.000135264
-1.24503e-05
-0.000130441
-1.44592e-05
-0.000124993
-1.63349e-05
-0.000118871
-1.83596e-05
-0.000112009
-2.05697e-05
-0.000104427
-2.26963e-05
-9.60772e-05
-2.50605e-05
-8.70497e-05
-2.71402e-05
-7.71624e-05
-2.96035e-05
-6.64651e-05
-3.20845e-05
-5.49643e-05
-3.44693e-05
-4.26368e-05
-3.69659e-05
-2.95158e-05
-3.93649e-05
-1.55235e-05
-4.17654e-05
-9.74326e-07
-4.38083e-05
1.43286e-05
-4.58525e-05
3.02439e-05
-4.76753e-05
4.65781e-05
-4.90186e-05
6.33008e-05
-5.00977e-05
8.01747e-05
-5.05829e-05
9.70492e-05
-5.05636e-05
0.000113719
-4.99582e-05
0.000129896
-4.84999e-05
0.00014539
-4.64427e-05
0.000159921
-4.35645e-05
0.000173235
-3.99105e-05
0.000185064
-3.54733e-05
0.000195171
-3.03034e-05
0.000203322
-2.44347e-05
0.000209334
-1.80272e-05
0.000213058
-1.11839e-05
0.000214385
-3.98663e-06
0.000213316
3.21227e-06
0.000209718
1.06624e-05
0.000203775
1.77682e-05
0.000195628
2.44305e-05
0.000185312
3.08168e-05
0.000173183
3.63773e-05
0.000159319
4.13954e-05
0.000144131
4.55154e-05
0.000127838
4.87332e-05
0.000110791
5.11176e-05
9.32304e-05
5.25531e-05
7.54173e-05
5.34259e-05
5.76285e-05
5.34159e-05
3.98915e-05
5.30999e-05
2.25235e-05
5.21574e-05
5.53131e-06
5.08529e-05
-1.08465e-05
4.91533e-05
-2.65417e-05
4.70365e-05
-4.14194e-05
4.46533e-05
-5.54344e-05
4.19892e-05
-6.84756e-05
3.9201e-05
-8.05228e-05
3.62232e-05
-9.17248e-05
3.3581e-05
-0.000101962
3.07153e-05
-0.00011131
2.80048e-05
-0.000119802
2.55719e-05
-0.000127483
2.30558e-05
-0.000134396
2.0722e-05
-0.000140518
1.84106e-05
-0.000145864
1.60564e-05
-0.000150456
1.37597e-05
-0.00015437
1.17299e-05
-0.00015759
9.7305e-06
-0.000160176
7.79951e-06
-0.000162192
6.08268e-06
-0.000163709
4.57766e-06
-0.000164745
3.13413e-06
-0.000165354
1.85344e-06
-0.000165524
4.70342e-07
-0.000165182
-1.00678e-06
-0.000164282
-2.69113e-06
-0.000162788
-4.5624e-06
-0.000160636
-6.36547e-06
-0.00015779
-8.58173e-06
-0.000154134
-1.0845e-05
-0.000149845
-1.29938e-05
-0.000144707
-1.53949e-05
-0.000138804
-1.77044e-05
-0.000132139
-1.99745e-05
-0.000124773
-2.21112e-05
-0.000116672
-2.4279e-05
-0.000107845
-2.6456e-05
-9.82895e-05
-2.87716e-05
-8.79912e-05
-3.08909e-05
-7.68438e-05
-3.33854e-05
-6.48509e-05
-3.59396e-05
-5.20196e-05
-3.84427e-05
-3.83455e-05
-4.09732e-05
-2.39408e-05
-4.31617e-05
-8.87285e-06
-4.51417e-05
6.68433e-06
-4.66139e-05
2.26074e-05
-4.77168e-05
3.87545e-05
-4.83845e-05
5.49863e-05
-4.86414e-05
7.11571e-05
-4.84315e-05
8.71017e-05
-4.77642e-05
0.000102618
-4.65071e-05
0.000117486
-4.45245e-05
0.000131447
-4.1825e-05
0.000144249
-3.83377e-05
0.000155596
-3.39805e-05
0.000165243
-2.89054e-05
0.000172956
-2.3071e-05
0.00017853
-1.6711e-05
0.000181876
-1.00605e-05
0.000183023
-3.42506e-06
0.000182102
2.77678e-06
0.00017883
9.79982e-06
0.000173626
1.5576e-05
0.000166551
2.11782e-05
0.000157756
2.63757e-05
0.000147296
3.13024e-05
0.000135703
3.47138e-05
0.00012296
3.81998e-05
0.000109358
4.08962e-05
9.48894e-05
4.33127e-05
7.9621e-05
4.57961e-05
6.37764e-05
4.75103e-05
4.73927e-05
4.91241e-05
3.06817e-05
5.0094e-05
1.39554e-05
5.01422e-05
-2.74964e-06
5.00781e-05
-1.90272e-05
4.88067e-05
-3.47992e-05
4.72969e-05
-4.98157e-05
4.50355e-05
-6.40139e-05
4.25872e-05
-7.73703e-05
4.00633e-05
-8.97941e-05
3.72703e-05
-0.000101283
3.44688e-05
-0.000111862
3.17431e-05
-0.000121488
2.88842e-05
-0.000130191
2.61116e-05
-0.000137987
2.3399e-05
-0.000144871
2.06646e-05
-0.000150893
1.80799e-05
-0.000156034
1.54315e-05
-0.000160301
1.28191e-05
-0.000163725
1.02972e-05
-0.000166273
7.64085e-06
-0.000167916
4.90565e-06
-0.000168686
2.28152e-06
-0.000168633
-2.07975e-07
-0.000167884
-2.27191e-06
-0.00016637
-4.56632e-06
-0.000164023
-7.04166e-06
-0.000160834
-9.57816e-06
-0.00015679
-1.21409e-05
-0.000151747
-1.51382e-05
-0.000145791
-1.78878e-05
-0.000138743
-2.11514e-05
-0.000130703
-2.41069e-05
-0.000121742
-2.68909e-05
-0.000111634
-3.03144e-05
-0.000100477
-3.34464e-05
-8.83807e-05
-3.62082e-05
-7.50897e-05
-3.9961e-05
-6.07916e-05
-4.28852e-05
-4.54265e-05
-4.60743e-05
-2.9103e-05
-4.8952e-05
-1.21003e-05
-5.099e-05
5.67927e-06
-5.33333e-05
2.4064e-05
-5.51193e-05
4.28049e-05
-5.61796e-05
6.19117e-05
-5.72729e-05
8.11708e-05
-5.77149e-05
0.000100137
-5.68478e-05
0.000118766
-5.58343e-05
0.000136748
-5.38931e-05
0.000153866
-5.13009e-05
0.000169877
-4.7959e-05
0.000184379
-4.34538e-05
0.000197245
-3.85601e-05
0.000208265
-3.3025e-05
0.000217162
-2.66615e-05
0.00022383
-1.99677e-05
0.000228119
-1.28576e-05
0.000229917
-5.37243e-06
0.000229189
2.1276e-06
0.000225854
9.98258e-06
0.000220115
1.72223e-05
0.000212036
2.42089e-05
0.000201642
3.11478e-05
0.000189292
3.70041e-05
0.000175042
4.26946e-05
0.000159369
4.69713e-05
0.000142334
5.10487e-05
0.000124095
5.46607e-05
0.00010525
5.64833e-05
8.57962e-05
5.83056e-05
5.91373e-05
-0.00015466
1.50642e-05
-0.000157727
1.22426e-05
-0.000160159
9.71053e-06
-0.000161976
7.24922e-06
-0.000163186
4.83166e-06
-0.000163771
2.39919e-06
-0.000163685
-3.05603e-07
-0.000162946
-2.95074e-06
-0.000161627
-5.28234e-06
-0.000159577
-8.22947e-06
-0.00015684
-1.10583e-05
-0.000153429
-1.35214e-05
-0.00014919
-1.69676e-05
-0.000144192
-2.00074e-05
-0.000138307
-2.35491e-05
-0.000131601
-2.68641e-05
-0.00012414
-2.98508e-05
-0.000115687
-3.38314e-05
-0.000106284
-3.76305e-05
-9.59995e-05
-4.11598e-05
-8.45764e-05
-4.57886e-05
-7.2108e-05
-4.97874e-05
-5.88039e-05
-5.31913e-05
-4.44269e-05
-5.74958e-05
-2.91568e-05
-6.1078e-05
-1.30371e-05
-6.46092e-05
4.02104e-06
-6.78982e-05
2.15479e-05
-7.0031e-05
3.96826e-05
-7.24156e-05
5.82305e-05
-7.40947e-05
7.68582e-05
-7.44014e-05
9.55011e-05
-7.44548e-05
0.000113874
-7.33412e-05
0.000131776
-7.14585e-05
0.00014894
-6.85262e-05
0.000165009
-6.4151e-05
0.00017984
-5.91946e-05
0.00019319
-5.32811e-05
0.000204809
-4.63827e-05
0.00021454
-3.88433e-05
0.000222147
-3.03838e-05
0.000227593
-2.17434e-05
0.000230759
-1.26125e-05
0.000231461
-2.77469e-06
0.000229749
6.66957e-06
0.000225736
1.60821e-05
0.000219419
2.52793e-05
0.000210987
3.36473e-05
0.000200636
4.1276e-05
0.000188482
4.84583e-05
0.000174761
5.47607e-05
0.000159681
6.01245e-05
0.000143539
6.44721e-05
0.00012658
6.77219e-05
0.000109009
7.01701e-05
9.10967e-05
7.15577e-05
7.30744e-05
7.20742e-05
5.49981e-05
7.21059e-05
3.71191e-05
7.14398e-05
1.96768e-05
6.95964e-05
2.81559e-06
6.72761e-05
-1.35143e-05
6.53276e-05
-2.90962e-05
6.22805e-05
-4.38471e-05
5.89751e-05
-5.77854e-05
5.57291e-05
-7.07966e-05
5.20494e-05
-8.28712e-05
4.83054e-05
-9.40466e-05
4.46506e-05
-0.000104244
4.07943e-05
-0.000113629
3.75742e-05
-0.000122082
3.38379e-05
-0.000129623
3.03134e-05
-0.000136445
2.72418e-05
-0.000142505
2.41957e-05
-0.000147725
2.08774e-05
-0.000152266
1.81497e-05
-0.000155985
1.48888e-05
-0.000159048
1.2224e-05
-0.000161409
9.44209e-06
-0.000163013
6.44937e-06
-0.00016399
3.80136e-06
-0.00016427
1.09002e-06
-0.000163759
-1.99064e-06
-0.000162521
-4.93887e-06
-0.000160516
-7.99996e-06
-0.000157718
-1.11971e-05
-0.000154169
-1.41932e-05
-0.000149745
-1.76644e-05
-0.000144525
-2.08792e-05
-0.000138453
-2.43069e-05
-0.000131501
-2.78585e-05
-0.0001236
-3.16492e-05
-0.000114725
-3.53959e-05
-0.00010499
-3.90082e-05
-9.43643e-05
-4.24767e-05
-8.29613e-05
-4.55951e-05
-7.08239e-05
-4.84508e-05
-5.80846e-05
-5.0997e-05
-4.46669e-05
-5.36703e-05
-3.06142e-05
-5.62226e-05
-1.59224e-05
-5.87773e-05
-6.08323e-07
-6.12494e-05