/*--------------------------------*- C++ -*----------------------------------*\
| =========                 |                                                 |
| \\      /  F ield         | OpenFOAM: The Open Source CFD Toolbox           |
|  \\    /   O peration     | Version:  3.0.1                                 |
|   \\  /    A nd           | Web:      www.OpenFOAM.org                      |
|    \\/     M anipulation  |                                                 |
\*---------------------------------------------------------------------------*/
FoamFile
{
    version     2.0;
    format      ascii;
    class       surfaceScalarField;
    location    "27.4";
    object      alphaPhi;
}
// * * * * * * * * * * * * * * * * * * * * * * * * * * * * * * * * * * * * * //

dimensions      [0 3 -1 0 0 0 0];

internalField   nonuniform List<scalar> 
44922
(
-0.00012599
-7.7659e-06
-0.000117465
-8.52427e-06
-0.000108318
-9.14781e-06
-9.84176e-05
-9.90003e-06
-8.7929e-05
-1.04886e-05
-7.66561e-05
-1.12729e-05
-6.48273e-05
-1.18288e-05
-5.22864e-05
-1.2541e-05
-3.92738e-05
-1.30126e-05
-2.56119e-05
-1.36619e-05
-1.15367e-05
-1.40753e-05
3.07748e-06
-1.46141e-05
1.80835e-05
-1.50061e-05
3.35888e-05
-1.55052e-05
4.93649e-05
-1.57762e-05
6.50671e-05
-1.57022e-05
8.08249e-05
-1.57578e-05
9.6341e-05
-1.55161e-05
0.000111636
-1.5295e-05
0.000126422
-1.47859e-05
0.000140685
-1.42632e-05
0.000154185
-1.34995e-05
0.000166847
-1.26627e-05
0.000178494
-1.16468e-05
0.000189035
-1.05411e-05
0.000198295
-9.25978e-06
0.000206177
-7.88236e-06
0.000212589
-6.4119e-06
0.000217433
-4.84357e-06
0.000220648
-3.21519e-06
0.00022218
-1.5321e-06
0.000222059
1.20775e-07
0.000220301
1.75801e-06
0.000216897
3.40414e-06
0.000211846
5.05086e-06
0.000205282
6.5642e-06
0.000197185
8.09668e-06
0.00018776
9.42501e-06
0.000177
1.07606e-05
0.00016515
1.18498e-05
0.000152228
1.29216e-05
0.000138463
1.37655e-05
0.000123963
1.44999e-05
0.000108865
1.50985e-05
9.33334e-05
1.55312e-05
7.75312e-05
1.58022e-05
6.14978e-05
1.60334e-05
4.5452e-05
1.60458e-05
2.94281e-05
1.60238e-05
1.36587e-05
1.57694e-05
-1.90878e-06
1.55675e-05
-1.71022e-05
1.51934e-05
-3.18476e-05
1.47454e-05
-4.61067e-05
1.4259e-05
-5.98036e-05
1.3697e-05
-7.29189e-05
1.31153e-05
-8.5395e-05
1.24762e-05
-9.72271e-05
1.18321e-05
-0.00010837
1.11433e-05
-0.000118827
1.04571e-05
-0.000128568
9.74074e-06
-0.000137598
9.02933e-06
-0.000145885
8.28785e-06
-0.000153445
7.55975e-06
-0.000160256
6.81129e-06
-0.000166321
6.06457e-06
-0.000171632
5.31125e-06
-0.000176192
4.55978e-06
-0.000179995
3.80256e-06
-0.000183056
3.061e-06
-0.000185362
2.30599e-06
-0.000186939
1.57771e-06
-0.000187837
8.97197e-07
-0.000188046
2.09467e-07
-0.000187588
-4.57838e-07
-0.000186418
-1.17059e-06
-0.000184671
-1.74641e-06
-0.000182256
-2.41548e-06
-0.000179348
-2.90775e-06
-0.000175806
-3.54211e-06
-0.000171846
-3.95996e-06
-0.00016731
-4.53577e-06
-0.00016239
-4.91978e-06
-0.000156903
-5.48723e-06
-0.000151072
-5.83101e-06
-0.000144717
-6.35528e-06
-0.000137993
-6.72427e-06
-0.000130773
-7.21912e-06
-0.000123052
-7.72118e-06
-0.000115054
-7.99857e-06
-0.000106497
-8.55675e-06
-9.7562e-05
-8.935e-06
-8.80964e-05
-9.46564e-06
-7.82179e-05
-9.87843e-06
-6.77594e-05
-1.04585e-05
-5.69407e-05
-1.08187e-05
-4.55426e-05
-1.13982e-05
-3.37504e-05
-1.17922e-05
-2.14643e-05
-1.22861e-05
-8.8201e-06
-1.26442e-05
4.26475e-06
-1.30849e-05
1.76494e-05
-1.33846e-05
3.139e-05
-1.37406e-05
4.53162e-05
-1.39262e-05
5.94573e-05
-1.41411e-05
7.36333e-05
-1.41761e-05
8.78324e-05
-1.41991e-05
0.000101892
-1.406e-05
0.00011572
-1.3828e-05
0.000129169
-1.34489e-05
0.000142141
-1.29716e-05
0.000154466
-1.23246e-05
0.00016598
-1.15149e-05
0.00017659
-1.06092e-05
0.0001861
-9.51014e-06
0.00019444
-8.34025e-06
0.000201433
-6.99256e-06
0.00020703
-5.59758e-06
0.000211066
-4.03577e-06
0.00021355
-2.48439e-06
0.000214314
-7.64091e-07
0.000213456
8.58324e-07
0.000210761
2.69483e-06
0.000206407
4.35413e-06
0.000200307
6.10043e-06
0.000192621
7.68581e-06
0.000183315
9.30618e-06
0.000172599
1.07152e-05
0.00016052
1.20792e-05
0.000147284
1.32361e-05
0.000133028
1.42561e-05
0.000117928
1.50997e-05
0.000102151
1.57769e-05
8.58867e-05
1.62647e-05
6.93097e-05
1.6577e-05
5.25899e-05
1.67198e-05
3.591e-05
1.66798e-05
1.93949e-05
1.65151e-05
3.22895e-06
1.61659e-05
-1.25137e-05
1.57426e-05
-2.76951e-05
1.51815e-05
-4.22497e-05
1.45546e-05
-5.60876e-05
1.38379e-05
-6.91694e-05
1.30817e-05
-8.14555e-05
1.22861e-05
-9.29432e-05
1.14877e-05
-0.000103611
1.06679e-05
-0.000113464
9.8532e-06
-0.000122533
9.06884e-06
-0.000130832
8.29898e-06
-0.000138385
7.55287e-06
-0.000145225
6.84014e-06
-0.000151364
6.13874e-06
-0.000156815
5.45101e-06
-0.000161632
4.8167e-06
-0.000165842
4.21068e-06
-0.000169434
3.59158e-06
-0.000172473
3.03918e-06
-0.000174965
2.49227e-06
-0.000176956
1.99078e-06
-0.000178437
1.48128e-06
-0.000179459
1.02144e-06
-0.000180079
6.20573e-07
-0.000180211
1.31357e-07
-0.000179891
-3.20132e-07
-0.000179113
-7.7792e-07
-0.000177928
-1.1849e-06
-0.000176222
-1.70582e-06
-0.000174045
-2.17676e-06
-0.000171342
-2.70378e-06
-0.000168172
-3.16931e-06
-0.000164521
-3.65166e-06
-0.000160328
-4.19235e-06
-0.000155636
-4.69212e-06
-0.00015048
-5.15594e-06
-0.000144766
-5.71401e-06
-0.000138487
-6.2789e-06
-0.000131661
-6.82639e-06
-0.000124256
-7.40508e-06
-0.000116447
-7.80865e-06
-0.000108035
-8.41262e-06
-9.91209e-05
-8.91375e-06
-8.96182e-05
-9.50273e-06
-7.95697e-05
-1.00484e-05
-6.89765e-05
-1.05932e-05
-5.78354e-05
-1.11412e-05
-4.61688e-05
-1.16666e-05
-3.40106e-05
-1.21582e-05
-2.14422e-05
-1.25685e-05
-8.41584e-06
-1.30263e-05
4.87684e-06
-1.32927e-05
1.85128e-05
-1.3636e-05
3.23325e-05
-1.38197e-05
4.63254e-05
-1.39929e-05
6.03754e-05
-1.405e-05
7.4428e-05
-1.40526e-05
8.83848e-05
-1.39568e-05
0.000102153
-1.37678e-05
0.000115614
-1.34619e-05
0.000128643
-1.30288e-05
0.000141061
-1.24176e-05
0.000152786
-1.17249e-05
0.000163651
-1.0865e-05
0.000173546
-9.89573e-06
0.000182352
-8.8054e-06
0.000189905
-7.55333e-06
0.000196138
-6.23253e-06
0.000200933
-4.79509e-06
0.000204292
-3.35913e-06
0.000206099
-1.80695e-06
0.000206413
-3.1461e-07
0.000205178
1.23524e-06
0.00020251
2.66758e-06
0.00019835
4.16059e-06
0.000193057
5.29299e-06
0.000187021
6.03616e-06
0.000180118
6.90222e-06
0.00016985
1.02686e-05
0.00015404
1.58097e-05
0.000132861
2.11791e-05
0.0001104
2.24608e-05
9.17627e-05
1.86374e-05
7.62929e-05
1.54698e-05
5.78528e-05
1.84401e-05
2.08762e-05
3.69766e-05
-0.000126028
-1.55294e-05
-0.000117505
-1.70475e-05
-0.000108359
-1.82943e-05
-9.84576e-05
-1.98011e-05
-8.79745e-05
-2.09717e-05
-7.6698e-05
-2.25494e-05
-6.48657e-05
-2.36611e-05
-5.23232e-05
-2.50834e-05
-3.93074e-05
-2.60284e-05
-2.5643e-05
-2.73263e-05
-1.15664e-05
-2.81519e-05
3.05294e-06
-2.92335e-05
1.8063e-05
-3.00162e-05
3.35738e-05
-3.10161e-05
4.93565e-05
-3.15588e-05
6.50657e-05
-3.14114e-05
8.08312e-05
-3.15233e-05
9.63547e-05
-3.10396e-05
0.000111658
-3.05979e-05
0.00012645
-2.95789e-05
0.000140722
-2.85343e-05
0.00015423
-2.70084e-05
0.000166902
-2.53339e-05
0.000178555
-2.33005e-05
0.000189103
-2.10886e-05
0.000198369
-1.85259e-05
0.00020626
-1.57738e-05
0.000212678
-1.28294e-05
0.000217524
-9.69011e-06
0.000220744
-6.4346e-06
0.000222283
-3.07137e-06
0.000222159
2.44418e-07
0.000220402
3.51522e-06
0.000217004
6.80274e-06
0.000211951
1.01036e-05
0.000205377
1.31377e-05
0.000197275
1.6199e-05
0.000187844
1.88556e-05
0.000177075
2.15304e-05
0.000165218
2.37067e-05
0.000152286
2.58527e-05
0.000138516
2.75364e-05
0.000124005
2.90104e-05
0.000108897
3.02069e-05
9.33556e-05
3.10721e-05
7.75472e-05
3.16105e-05
6.15051e-05
3.20755e-05
4.54489e-05
3.2102e-05
2.94197e-05
3.20531e-05
1.3643e-05
3.15461e-05
-1.9266e-06
3.11371e-05
-1.71246e-05
3.03915e-05
-3.18745e-05
2.94952e-05
-4.61375e-05
2.85221e-05
-5.98378e-05
2.73973e-05
-7.29556e-05
2.6233e-05
-8.54342e-05
2.49547e-05
-9.72693e-05
2.36672e-05
-0.000108415
2.22889e-05
-0.000118875
2.0917e-05
-0.000128616
1.94817e-05
-0.000137648
1.80613e-05
-0.000145938
1.65777e-05
-0.000153498
1.51198e-05
-0.000160312
1.36256e-05
-0.000166377
1.21298e-05
-0.000171688
1.06217e-05
-0.000176248
9.12035e-06
-0.000180053
7.60697e-06
-0.000183116
6.1244e-06
-0.000185425
4.61528e-06
-0.000187006
3.15838e-06
-0.0001879
1.7911e-06
-0.000188101
4.10387e-07
-0.000187642
-9.17134e-07
-0.00018647
-2.34254e-06
-0.000184724
-3.4923e-06
-0.000182304
-4.83491e-06
-0.000179395
-5.81756e-06
-0.000175853
-7.08415e-06
-0.000171893
-7.92002e-06
-0.00016735
-9.07804e-06
-0.000162434
-9.83563e-06
-0.000156947
-1.09746e-05
-0.000151121
-1.16576e-05
-0.000144759
-1.2717e-05
-0.000138035
-1.34481e-05
-0.000130812
-1.44425e-05
-0.000123101
-1.54322e-05
-0.000115095
-1.6004e-05
-0.000106539
-1.71129e-05
-9.7602e-05
-1.78721e-05
-8.81362e-05
-1.89314e-05
-7.82567e-05
-1.97579e-05
-6.77999e-05
-2.09153e-05
-5.69787e-05
-2.164e-05
-4.55789e-05
-2.2798e-05
-3.37855e-05
-2.35857e-05
-2.15006e-05
-2.45711e-05
-8.85401e-06
-2.52908e-05
4.2371e-06
-2.6176e-05
1.76271e-05
-2.67747e-05
3.13716e-05
-2.74851e-05
4.53048e-05
-2.78594e-05
5.94508e-05
-2.82871e-05
7.36327e-05
-2.8358e-05
8.78382e-05
-2.84046e-05
0.00010191
-2.81313e-05
0.000115743
-2.7661e-05
0.000129196
-2.69026e-05
0.000142176
-2.59515e-05
0.000154514
-2.46624e-05
0.000166039
-2.30398e-05
0.000176661
-2.12317e-05
0.000186182
-1.9031e-05
0.000194538
-1.66964e-05
0.00020154
-1.39947e-05
0.00020715
-1.12069e-05
0.000211189
-8.0747e-06
0.000213679
-4.97479e-06
0.000214444
-1.52955e-06
0.000213572
1.73033e-06
0.000210873
5.39412e-06
0.000206524
8.70344e-06
0.000200421
1.22036e-05
0.000192731
1.53751e-05
0.000183426
1.86113e-05
0.000172691
2.14507e-05
0.0001606
2.41701e-05
0.000147356
2.64803e-05
0.000133089
2.85231e-05
0.000117978
3.02102e-05
0.000102185
3.15699e-05
8.59075e-05
3.25423e-05
6.93178e-05
3.31667e-05
5.25865e-05
3.34511e-05
3.58972e-05
3.33691e-05
1.93735e-05
3.30388e-05
3.19957e-06
3.23399e-05
-1.255e-05
3.14922e-05
-2.77395e-05
3.0371e-05
-4.22983e-05
2.91133e-05
-5.6142e-05
2.76817e-05
-6.92253e-05
2.61651e-05
-8.15207e-05
2.45815e-05
-9.30036e-05
2.29706e-05
-0.000103675
2.1339e-05
-0.00011353
1.97086e-05
-0.000122601
1.81401e-05
-0.000130899
1.65968e-05
-0.00013845
1.51038e-05
-0.000145288
1.36776e-05
-0.000151423
1.22737e-05
-0.000156868
1.08961e-05
-0.000161677
9.62621e-06
-0.000165887
8.42041e-06
-0.00016948
7.18431e-06
-0.000172517
6.07672e-06
-0.000175011
4.98634e-06
-0.000177003
3.98302e-06
-0.000178491
2.96912e-06
-0.000179521
2.05063e-06
-0.000180138
1.23798e-06
-0.00018027
2.63505e-07
-0.000179948
-6.42636e-07
-0.000179175
-1.55086e-06
-0.000177989
-2.37104e-06
-0.000176286
-3.40824e-06
-0.000174105
-4.35766e-06
-0.000171403
-5.40625e-06
-0.000168248
-6.32377e-06
-0.00016458
-7.32012e-06
-0.00016039
-8.38187e-06
-0.000155705
-9.37786e-06
-0.000150546
-1.03143e-05
-0.000144837
-1.14229e-05
-0.000138558
-1.25581e-05
-0.000131726
-1.36589e-05
-0.00012432
-1.48106e-05
-0.000116523
-1.56054e-05
-0.00010812
-1.68163e-05
-9.91971e-05
-1.78365e-05
-8.96715e-05
-1.90284e-05
-7.9644e-05
-2.00759e-05
-6.90471e-05
-2.11902e-05
-5.79042e-05
-2.22841e-05
-4.62362e-05
-2.33346e-05
-3.40708e-05
-2.43236e-05
-2.15032e-05
-2.51361e-05
-8.47145e-06
-2.60581e-05
4.82861e-06
-2.65928e-05
1.84782e-05
-2.72856e-05
3.23058e-05
-2.76473e-05
4.63123e-05
-2.79995e-05
6.03721e-05
-2.81098e-05
7.44337e-05
-2.81143e-05
8.8403e-05
-2.79261e-05
0.000102183
-2.75476e-05
0.000115656
-2.69349e-05
0.000128696
-2.60687e-05
0.000141118
-2.484e-05
0.000152848
-2.34546e-05
0.000163717
-2.17343e-05
0.000173618
-1.97968e-05
0.000182433
-1.76202e-05
0.000189992
-1.51127e-05
0.000196233
-1.24738e-05
0.000201033
-9.59518e-06
0.000204401
-6.7265e-06
0.000206212
-3.61789e-06
0.000206525
-6.27545e-07
0.000205275
2.48491e-06
0.000202623
5.31888e-06
0.000198518
8.26601e-06
0.000193139
1.0672e-05
0.000186608
1.25676e-05
0.000179568
1.39421e-05
0.000171271
1.85649e-05
0.000159333
2.77481e-05
0.000143523
3.69887e-05
0.000128289
3.76947e-05
0.000117038
2.9889e-05
0.000107085
2.54227e-05
8.82716e-05
3.72534e-05
4.53873e-05
6.37605e-05
-0.000126103
-2.32914e-05
-0.00011758
-2.55701e-05
-0.000108434
-2.744e-05
-9.853e-05
-2.97056e-05
-8.80466e-05
-3.14551e-05
-7.67642e-05
-3.38319e-05
-6.49359e-05
-3.54894e-05
-5.23918e-05
-3.76276e-05
-3.93709e-05
-3.90492e-05
-2.57027e-05
-4.09945e-05
-1.16242e-05
-4.22304e-05
3.00571e-06
-4.38634e-05
1.80273e-05
-4.50378e-05
3.35528e-05
-4.65415e-05
4.93508e-05
-4.73569e-05
6.50735e-05
-4.71341e-05
8.08533e-05
-4.73031e-05
9.63906e-05
-4.65769e-05
0.000111706
-4.59137e-05
0.000126514
-4.4386e-05
0.000140797
-4.28175e-05
0.000154319
-4.05305e-05
0.000167002
-3.80172e-05
0.000178667
-3.4965e-05
0.000189224
-3.16459e-05
0.000198498
-2.77998e-05
0.000206399
-2.3675e-05
0.000212824
-1.92545e-05
0.000217677
-1.45427e-05
0.000220899
-9.65699e-06
0.000222445
-4.61744e-06
0.000222324
3.65271e-07
0.000220573
5.26661e-06
0.000217184
1.01914e-05
0.000212127
1.51607e-05
0.000205542
1.97225e-05
0.00019743
2.43111e-05
0.00018799
2.82956e-05
0.000177204
3.23167e-05
0.000165334
3.55768e-05
0.000152385
3.8801e-05
0.000138607
4.13148e-05
0.000124074
4.35435e-05
0.000108948
4.53332e-05
9.3388e-05
4.66316e-05
7.75686e-05
4.74299e-05
6.15113e-05
4.81328e-05
4.54366e-05
4.81767e-05
2.93978e-05
4.80919e-05
1.36084e-05
4.73354e-05
-1.96669e-06
4.67122e-05
-1.71736e-05
4.55984e-05
-3.19311e-05
4.42527e-05
-4.6201e-05
4.2792e-05
-5.99067e-05
4.1103e-05
-7.30285e-05
3.93548e-05
-8.5511e-05
3.74372e-05
-9.73513e-05
3.55076e-05
-0.0001085
3.34373e-05
-0.000118963
3.13806e-05
-0.000128704
2.92226e-05
-0.000137741
2.70984e-05
-0.000146033
2.48691e-05
-0.000153591
2.2678e-05
-0.00016041
2.04449e-05
-0.000166478
1.81972e-05
-0.000171788
1.59327e-05
-0.000176349
1.36813e-05
-0.000180157
1.14142e-05
-0.000183227
9.19431e-06
-0.000185545
6.93334e-06
-0.00018713
4.74381e-06
-0.000188015
2.67569e-06
-0.000188188
5.84128e-07
-0.000187715
-1.38999e-06
-0.000186539
-3.51856e-06
-0.000184792
-5.23964e-06
-0.000182367
-7.25992e-06
-0.000179452
-8.7325e-06
-0.00017591
-1.06261e-05
-0.000171952
-1.18786e-05
-0.000167403
-1.36264e-05
-0.000162489
-1.47502e-05
-0.000157
-1.64628e-05
-0.000151175
-1.74827e-05
-0.000144809
-1.90835e-05
-0.000138087
-2.01702e-05
-0.000130857
-2.16726e-05
-0.000123161
-2.31279e-05
-0.000115148
-2.40173e-05
-0.000106594
-2.56665e-05
-9.76552e-05
-2.6811e-05
-8.81913e-05
-2.83954e-05
-7.83111e-05
-2.96381e-05
-6.78556e-05
-3.13709e-05
-5.70324e-05
-3.24632e-05
-4.56322e-05
-3.41982e-05
-3.38375e-05
-3.53804e-05
-2.15536e-05
-3.6855e-05
-8.90289e-06
-3.79415e-05
4.20014e-06
-3.9279e-05
1.75994e-05
-4.01739e-05
3.13514e-05
-4.12372e-05
4.52952e-05
-4.18032e-05
5.94529e-05
-4.24448e-05
7.36424e-05
-4.25475e-05
8.78619e-05
-4.26242e-05
0.000101947
-4.22167e-05
0.000115783
-4.14967e-05
0.000129242
-4.03616e-05
0.000142229
-3.89389e-05
0.000154583
-3.70159e-05
0.000166118
-3.45747e-05
0.000176764
-3.18774e-05
0.000186302
-2.85693e-05
0.000194689
-2.50834e-05
0.000201705
-2.10107e-05
0.000207331
-1.68335e-05
0.000211369
-1.21125e-05
0.000213868
-7.47329e-06
0.000214621
-2.28328e-06
0.000213724
2.62779e-06
0.000211025
8.09343e-06
0.000206685
1.30431e-05
0.000200579
1.83097e-05
0.000192894
2.30596e-05
0.000183564
2.79412e-05
0.000172807
3.22078e-05
0.000160699
3.62779e-05
0.000147447
3.9733e-05
0.000133155
4.28145e-05
0.000118033
4.53327e-05
0.000102214
4.73882e-05
8.5918e-05
4.88384e-05
6.93116e-05
4.9773e-05
5.25625e-05
5.02001e-05
3.58569e-05
5.00747e-05
1.93216e-05
4.9574e-05
3.1343e-06
4.85272e-05
-1.26283e-05
4.72548e-05
-2.783e-05
4.55726e-05
-4.23845e-05
4.36679e-05
-5.62433e-05
4.15405e-05
-6.93272e-05
3.92489e-05
-8.16332e-05
3.68875e-05
-9.31104e-05
3.44477e-05
-0.000103784
3.2013e-05
-0.000113644
2.95679e-05
-0.000122724
2.72203e-05
-0.000131026
2.48985e-05
-0.000138574
2.26518e-05
-0.000145404
2.05079e-05
-0.00015153
1.83996e-05
-0.000156966
1.6332e-05
-0.000161764
1.44244e-05
-0.000165968
1.26242e-05
-0.000169562
1.07785e-05
-0.000172597
9.11226e-06
-0.000175094
7.48267e-06
-0.000177086
5.97552e-06
-0.000178584
4.46729e-06
-0.000179629
3.09491e-06
-0.000180245
1.85384e-06
-0.00018037
3.88807e-07
-0.000180033
-9.79885e-07
-0.000179271
-2.3122e-06
-0.000178077
-3.56558e-06
-0.000176384
-5.10125e-06
-0.000174196
-6.54564e-06
-0.000171496
-8.10647e-06
-0.000168348
-9.47104e-06
-0.00016466
-1.10082e-05
-0.00016047
-1.25724e-05
-0.0001558
-1.4048e-05
-0.000150627
-1.54873e-05
-0.000144925
-1.7125e-05
-0.000138644
-1.88387e-05
-0.0001318
-2.05031e-05
-0.00012441
-2.21999e-05
-0.000116612
-2.34036e-05
-0.000108222
-2.52063e-05
-9.93183e-05
-2.67404e-05
-8.97627e-05
-2.8584e-05
-7.97623e-05
-3.00763e-05
-6.91273e-05
-3.18252e-05
-5.79804e-05
-3.34309e-05
-4.63086e-05
-3.50064e-05
-3.4135e-05
-3.64973e-05
-2.15689e-05
-3.77022e-05
-8.52351e-06
-3.91035e-05
4.77882e-06
-3.98951e-05
1.8449e-05
-4.09558e-05
3.22873e-05
-4.14856e-05
4.63194e-05
-4.20317e-05
6.0395e-05
-4.21853e-05
7.44687e-05
-4.2188e-05
8.84501e-05
-4.19076e-05
0.000102241
-4.13382e-05
0.000115721
-4.04152e-05
0.000128781
-3.9129e-05
0.000141205
-3.72637e-05
0.000152941
-3.51903e-05
0.000163811
-3.26053e-05
0.000173712
-2.96978e-05
0.000182538
-2.6446e-05
0.000190102
-2.26762e-05
0.000196354
-1.87256e-05
0.000201159
-1.44006e-05
0.000204542
-1.01096e-05
0.000206361
-5.4369e-06
0.000206678
-9.44119e-07
0.000205415
3.74776e-06
0.000202764
7.96912e-06
0.000198659
1.23717e-05
0.000193318
1.60122e-05
0.000186684
1.92021e-05
0.000179449
2.11768e-05
0.000172022
2.59926e-05
0.000164007
3.57626e-05
0.000153972
4.70241e-05
0.000141666
5.00005e-05
0.000128633
4.29213e-05
0.000114687
3.93691e-05
0.000101396
5.05443e-05
6.06466e-05
8.61366e-05
-0.000126214
-3.10511e-05
-0.000117693
-3.40917e-05
-0.000108548
-3.65842e-05
-9.86387e-05
-3.96154e-05
-8.81401e-05
-4.19537e-05
-7.68668e-05
-4.51052e-05
-6.50409e-05
-4.73153e-05
-5.24941e-05
-5.01744e-05
-3.94659e-05
-5.20774e-05
-2.57916e-05
-5.46688e-05
-1.17093e-05
-5.63128e-05
2.93457e-06
-5.85072e-05
1.79731e-05
-6.00763e-05
3.35194e-05
-6.20879e-05
4.93392e-05
-6.31766e-05
6.50827e-05
-6.28777e-05
8.08847e-05
-6.3105e-05
9.64433e-05
-6.21355e-05
0.00011178
-6.12509e-05
0.00012661
-5.92154e-05
0.000140912
-5.71198e-05
0.000154457
-5.40758e-05
0.000167161
-5.07211e-05
0.000178844
-4.66478e-05
0.000189419
-4.22206e-05
0.000198705
-3.70866e-05
0.000206624
-3.15936e-05
0.000213062
-2.56923e-05
0.000217925
-1.94056e-05
0.000221152
-1.28846e-05
0.000222702
-6.16732e-06
0.000222585
4.82891e-07
0.000220839
7.01203e-06
0.000217457
1.35734e-05
0.000212391
2.02268e-05
0.000205791
2.63227e-05
0.000197663
3.24394e-05
0.000188209
3.77494e-05
0.000177398
4.31275e-05
0.000165508
4.74671e-05
0.000152534
5.17746e-05
0.000138751
5.50977e-05
0.000124177
5.81172e-05
0.000109026
6.0485e-05
9.34375e-05
6.22196e-05
7.76008e-05
6.32666e-05
6.1521e-05
6.42126e-05
4.54198e-05
6.42778e-05
2.93656e-05
6.41461e-05
1.3558e-05
6.31429e-05
-2.02807e-06
6.22983e-05
-1.72471e-05
6.08175e-05
-3.2016e-05
5.90216e-05
-4.62958e-05
5.70717e-05
-6.00094e-05
5.48166e-05
-7.31364e-05
5.24818e-05
-8.56237e-05
4.99245e-05
-9.7471e-05
4.73548e-05
-0.000108623
4.45888e-05
-0.000119091
4.18493e-05
-0.000128832
3.89639e-05
-0.000137875
3.61412e-05
-0.00014617
3.31635e-05
-0.000153733
3.02412e-05
-0.00016055
2.72625e-05
-0.000166619
2.42661e-05
-0.00017193
2.12436e-05
-0.000176492
1.82434e-05
-0.000180304
1.52257e-05
-0.000183379
1.2269e-05
-0.000185703
9.25807e-06
-0.000187291
6.33156e-06
-0.000188166
3.55029e-06
-0.000188317
7.34946e-07
-0.000187827
-1.87948e-06
-0.000186645
-4.70103e-06
-0.000184896
-6.98824e-06
-0.000182462
-9.69373e-06
-0.000179542
-1.16531e-05
-0.000175998
-1.417e-05
-0.00017204
-1.58361e-05
-0.000167488
-1.81791e-05
-0.00016257
-1.96675e-05
-0.000157081
-2.19527e-05
-0.000151256
-2.33073e-05
-0.000144885
-2.54546e-05
-0.000138166
-2.68894e-05
-0.000130919
-2.89193e-05
-0.000123249
-3.07974e-05
-0.000115227
-3.20393e-05
-0.000106677
-3.42165e-05
-9.77362e-05
-3.57523e-05
-8.82737e-05
-3.78579e-05
-7.83933e-05
-3.95185e-05
-6.794e-05
-4.18242e-05
-5.71136e-05
-4.32896e-05
-4.57122e-05
-4.55996e-05
-3.39169e-05
-4.71757e-05
-2.16336e-05
-4.91383e-05
-8.97661e-06
-5.05985e-05
4.13999e-06
-5.23957e-05
1.75501e-05
-5.3584e-05
3.13137e-05
-5.50008e-05
4.52689e-05
-5.57585e-05
5.94443e-05
-5.66203e-05
7.36504e-05
-5.67535e-05
8.78895e-05
-5.68634e-05
0.000101977
-5.63041e-05
0.000115839
-5.53587e-05
0.000129327
-5.385e-05
0.000142313
-5.19248e-05
0.000154685
-4.93874e-05
0.000166241
-4.61313e-05
0.000176917
-4.25524e-05
0.000186475
-3.81275e-05
0.000194902
-3.35111e-05
0.000201934
-2.80422e-05
0.000207589
-2.24885e-05
0.000211628
-1.61514e-05
0.000214135
-9.9799e-06
0.00021488
-3.02916e-06
0.000213962
3.54659e-06
0.000211256
1.07989e-05
0.000206937
1.73621e-05
0.000200826
2.4421e-05
0.000193123
3.07621e-05
0.000183748
3.73166e-05
0.000172986
4.29696e-05
0.000160854
4.841e-05
0.000147585
5.30023e-05
0.000133262
5.71367e-05
0.000118114
6.04814e-05
0.000102264
6.32377e-05
8.59393e-05
6.51633e-05
6.93074e-05
6.64049e-05
5.25323e-05
6.69752e-05
3.58036e-05
6.68034e-05
1.92465e-05
6.61312e-05
3.03724e-06
6.47364e-05
-1.2741e-05
6.3033e-05
-2.79616e-05
6.07932e-05
-4.25287e-05
5.8235e-05
-5.63887e-05
5.54005e-05
-6.94623e-05
5.23226e-05
-8.17851e-05
4.92103e-05
-9.32616e-05
4.59241e-05
-0.000103939
4.26902e-05
-0.000113801
3.94305e-05
-0.000122889
3.63077e-05
-0.000131197
3.32069e-05
-0.000138745
3.01991e-05
-0.000145561
2.73246e-05
-0.000151677
2.45149e-05
-0.000157109
2.17647e-05
-0.000161912
1.92275e-05
-0.000166089
1.68007e-05
-0.000169685
1.43747e-05
-0.000172718
1.2145e-05
-0.000175213
9.978e-06
-0.000177202
7.96391e-06
-0.000178707
5.97232e-06
-0.000179758
4.14604e-06
-0.000180371
2.46704e-06
-0.000180482
4.99856e-07
-0.000180163
-1.29902e-06
-0.000179425
-3.04982e-06
-0.000178165
-4.82605e-06
-0.000176508
-6.7585e-06
-0.000174326
-8.72766e-06
-0.000171623
-1.08095e-05
-0.000168478
-1.26153e-05
-0.000164773
-1.47139e-05
-0.000160583
-1.67624e-05
-0.000155919
-1.87121e-05
-0.000150743
-2.06632e-05
-0.00014505
-2.28179e-05
-0.000138767
-2.51212e-05
-0.000131886
-2.73849e-05
-0.000124526
-2.95594e-05
-0.000116741
-3.11883e-05
-0.000108371
-3.35768e-05
-9.94619e-05
-3.56494e-05
-8.98973e-05
-3.81487e-05
-7.99031e-05
-4.00705e-05
-6.9231e-05
-4.24973e-05
-5.80824e-05
-4.45795e-05
-4.64053e-05
-4.66835e-05
-3.42175e-05
-4.86851e-05
-2.16573e-05
-5.02624e-05
-8.59208e-06
-5.21688e-05
4.71097e-06
-5.31982e-05
1.84067e-05
-5.46516e-05
3.22493e-05
-5.53282e-05
4.63121e-05
-5.60946e-05
6.04095e-05
-5.62827e-05
7.44988e-05
-5.62773e-05
8.84902e-05
-5.5899e-05
0.000102307
-5.51552e-05
0.000115803
-5.39113e-05
0.00012889
-5.22158e-05
0.000141325
-4.9699e-05
0.000153076
-4.69413e-05
0.000163958
-4.34869e-05
0.000173858
-3.95981e-05
0.000182698
-3.52853e-05
0.000190275
-3.02533e-05
0.000196546
-2.49974e-05
0.000201349
-1.92028e-05
0.00020475
-1.35114e-05
0.00020658
-7.26619e-06
0.000206917
-1.28193e-06
0.000205633
5.03255e-06
0.000202991
1.06102e-05
0.000198867
1.64965e-05
0.00019352
2.13583e-05
0.000186857
2.58651e-05
0.000179426
2.86076e-05
0.000172081
3.33377e-05
0.000165455
4.23888e-05
0.000158505
5.39743e-05
0.000149154
5.93509e-05
0.000136023
5.60529e-05
0.000120381
5.50107e-05
0.000105089
6.58365e-05
7.8769e-05
8.69665e-05
-0.000126363
-3.88077e-05
-0.000117843
-4.2612e-05
-0.000108701
-4.57259e-05
-9.87857e-05
-4.95308e-05
-8.82767e-05
-5.24628e-05
-7.70093e-05
-5.63726e-05
-6.51804e-05
-5.91441e-05
-5.26299e-05
-6.27249e-05
-3.95919e-05
-6.51155e-05
-2.59093e-05
-6.83514e-05
-1.18205e-05
-7.04016e-05
2.83921e-06
-7.31669e-05
1.78995e-05
-7.51367e-05
3.34722e-05
-7.76606e-05
4.93192e-05
-7.90237e-05
6.50904e-05
-7.86489e-05
8.09221e-05
-7.89367e-05
9.65099e-05
-7.77234e-05
0.000111878
-7.66189e-05
0.000126739
-7.40768e-05
0.000141076
-7.14565e-05
0.000154649
-6.76484e-05
0.000167383
-6.34554e-05
0.000179094
-5.83588e-05
0.000189696
-5.28229e-05
0.000199008
-4.63987e-05
0.000206948
-3.95336e-05
0.000213404
-3.21483e-05
0.000218281
-2.4282e-05
0.000221519
-1.61229e-05
0.000223072
-7.72107e-06
0.000222957
5.98859e-07
0.000221209
8.75989e-06
0.000217824
1.69579e-05
0.000212744
2.53071e-05
0.000206124
3.29422e-05
0.000197973
4.0591e-05
0.000188481
4.72415e-05
0.000177658
5.39501e-05
0.00016574
5.93853e-05
0.000152733
6.47819e-05
0.000138922
6.89083e-05
0.000124315
7.2724e-05
0.000109134
7.56666e-05
9.35051e-05
7.78481e-05
7.76439e-05
7.91278e-05
6.15347e-05
8.03218e-05
4.53996e-05
8.04129e-05
2.9324e-05
8.02217e-05
1.34925e-05
7.89744e-05
-2.10998e-06
7.79008e-05
-1.73451e-05
7.60526e-05
-3.2129e-05
7.38054e-05
-4.64211e-05
7.13638e-05
-6.01448e-05
6.85404e-05
-7.32777e-05
6.56147e-05
-8.57696e-05
6.24164e-05
-9.76248e-05
5.921e-05
-0.00010878
5.57438e-05
-0.000119253
5.23226e-05
-0.000129005
4.87154e-05
-0.000138045
4.51813e-05
-0.000146342
4.14606e-05
-0.000153912
3.78117e-05
-0.000160725
3.40754e-05
-0.000166795
3.03358e-05
-0.000172105
2.65541e-05
-0.000176667
2.28053e-05
-0.000180482
1.904e-05
-0.000183556
1.5343e-05
-0.00018588
1.1583e-05
-0.000187466
7.91717e-06
-0.000188334
4.41822e-06
-0.000188481
8.81931e-07
-0.000187978
-2.38297e-06
-0.000186785
-5.89338e-06
-0.000185023
-8.75053e-06
-0.000182589
-1.21277e-05
-0.000179662
-1.45801e-05
-0.000176114
-1.7718e-05
-0.000172154
-1.97961e-05
-0.000167597
-2.27358e-05
-0.000162677
-2.45878e-05
-0.000157185
-2.74444e-05
-0.00015136
-2.91322e-05
-0.000144983
-3.18315e-05
-0.00013827
-3.36025e-05
-0.000130996
-3.61933e-05
-0.000123363
-3.84306e-05
-0.000115335
-4.00678e-05
-0.000106788
-4.27634e-05
-9.78438e-05
-4.46965e-05
-8.83834e-05
-4.73183e-05
-7.85037e-05
-4.93982e-05
-6.80535e-05
-5.22745e-05
-5.72219e-05
-5.41212e-05
-4.58172e-05
-5.70043e-05
-3.40225e-05
-5.89705e-05
-2.17407e-05
-6.14201e-05
-9.07725e-06
-6.3262e-05
4.0527e-06
-6.55256e-05
1.74738e-05
-6.70052e-05
3.12501e-05
-6.8777e-05
4.52176e-05
-6.9726e-05
5.94143e-05
-7.0817e-05
7.36472e-05
-7.09863e-05
8.79056e-05
-7.11218e-05
0.000102012
-7.04101e-05
0.000115906
-6.9253e-05
0.000129431
-6.73749e-05
0.000142435
-6.49292e-05
0.000154822
-6.17743e-05
0.00016642
-5.77291e-05
0.000177124
-5.32561e-05
0.000186714
-4.7718e-05
0.000195182
-4.1979e-05
0.000202236
-3.50964e-05
0.000207913
-2.81656e-05
0.000211959
-2.01975e-05
0.000214468
-1.24887e-05
0.000215238
-3.79871e-06
0.000214322
4.46192e-06
0.000211607
1.3514e-05
0.000207289
2.16798e-05
0.000201165
3.05459e-05
0.000193431
3.84952e-05
0.000184031
4.67172e-05
0.000173251
5.37494e-05
0.000161082
6.05784e-05
0.000147791
6.62933e-05
0.000133423
7.15052e-05
0.000118228
7.56758e-05
0.000102343
7.91232e-05
8.59761e-05
8.15301e-05
6.93114e-05
8.30696e-05
5.24951e-05
8.37914e-05
3.5738e-05
8.35605e-05
1.91484e-05
8.27207e-05
2.9049e-06
8.09799e-05
-1.29094e-05
7.88473e-05
-2.81343e-05
7.60181e-05
-4.27315e-05
7.28323e-05
-5.65882e-05
6.92571e-05
-6.9668e-05
6.54024e-05
-8.19876e-05
6.15299e-05
-9.34643e-05
5.74008e-05
-0.000104138
5.33643e-05
-0.000114008
4.92997e-05
-0.00012309
4.53906e-05
-0.000131391
4.15071e-05
-0.000138946
3.77549e-05
-0.000145751
3.41296e-05
-0.000151863
3.06263e-05
-0.000157293
2.71951e-05
-0.000162088
2.40227e-05
-0.000166252
2.0964e-05
-0.000169841
1.79645e-05
-0.000172871
1.51742e-05
-0.000175359
1.24663e-05
-0.000177337
9.94186e-06
-0.000178849
7.48453e-06
-0.000179897
5.19429e-06
-0.000180499
3.06885e-06
-0.000180587
5.87988e-07
-0.000180293
-1.59361e-06
-0.000179569
-3.77398e-06
-0.000178301
-6.09365e-06
-0.00017664
-8.42005e-06
-0.000174475
-1.08919e-05
-0.000171795
-1.34896e-05
-0.000168627
-1.57833e-05
-0.000164893
-1.84478e-05
-0.000160725
-2.09303e-05
-0.000156062
-2.33753e-05
-0.000150879
-2.58465e-05
-0.000145206
-2.84913e-05
-0.000138921
-3.14056e-05
-0.000132028
-3.42775e-05
-0.000124677
-3.69105e-05
-0.000116915
-3.89508e-05
-0.000108553
-4.19391e-05
-9.96162e-05
-4.45859e-05
-9.0077e-05
-4.76879e-05
-8.00705e-05
-5.0077e-05
-6.9363e-05
-5.32049e-05
-5.82301e-05
-5.57123e-05
-4.65384e-05
-5.83753e-05
-3.43382e-05
-6.08854e-05
-2.17725e-05
-6.2828e-05
-8.69151e-06
-6.52498e-05
4.61394e-06
-6.65036e-05
1.83413e-05
-6.83789e-05
3.21819e-05
-6.91688e-05
4.6275e-05
-7.01877e-05
6.03931e-05
-7.04008e-05
7.45061e-05
-7.03903e-05
8.85042e-05
-6.98971e-05
0.000102347
-6.89977e-05
0.0001159
-6.74642e-05
0.000128982
-6.52983e-05
0.000141466
-6.21825e-05
0.000153251
-5.87268e-05
0.000164161
-5.43964e-05
0.000174081
-4.95183e-05
0.000182941
-4.4146e-05
0.000190533
-3.78448e-05
0.000196832
-3.12964e-05
0.000201646
-2.40169e-05
0.000205056
-1.69211e-05
0.000206888
-9.09879e-06
0.000207226
-1.61947e-06
0.000205948
6.30982e-06
0.000203277
1.32818e-05
0.000199105
2.06684e-05
0.000193775
2.66882e-05
0.000187113
3.25271e-05
0.000179656
3.60643e-05
0.000172367
4.06268e-05
0.00016605
4.87056e-05
0.000159643
6.03819e-05
0.000150883
6.81104e-05
0.000138165
6.87713e-05
0.00012243
7.07451e-05
0.000106977
8.12895e-05
9.45655e-05
9.11807e-05
-0.000126549
-4.65602e-05
-0.000118031
-5.11306e-05
-0.000108893
-5.48635e-05
-9.89738e-05
-5.945e-05
-8.8456e-05
-6.29806e-05
-7.719e-05
-6.76386e-05
-6.53542e-05
-7.09799e-05
-5.27988e-05
-7.52803e-05
-3.97485e-05
-7.81657e-05
-2.6055e-05
-8.2045e-05
-1.19567e-05
-8.44999e-05
2.71954e-06
-8.78432e-05
1.78071e-05
-9.02242e-05
3.34122e-05
-9.32656e-05
4.92941e-05
-9.49057e-05
6.50982e-05
-9.44529e-05
8.09669e-05
-9.48054e-05
9.65912e-05
-9.33477e-05
0.000111998
-9.20255e-05
0.000126899
-8.89784e-05
0.000141277
-8.58341e-05
0.000154889
-8.126e-05
0.000167662
-7.62285e-05
0.00017941
-7.01076e-05
0.00019005
-6.34624e-05
0.000199403
-5.57516e-05
0.000207366
-4.74965e-05
0.000213842
-3.86249e-05
0.000218735
-2.91748e-05
0.000221985
-1.93727e-05
0.000223547
-9.28282e-06
0.000223433
7.12599e-07
0.00022168
1.05131e-05
0.000218282
2.03556e-05
0.000213185
3.04039e-05
0.000206543
3.95846e-05
0.000198363
4.87708e-05
0.000188833
5.67718e-05
0.000177987
6.47959e-05
0.000166021
7.13511e-05
0.000152982
7.78207e-05
0.000139129
8.2762e-05
0.000124488
8.7365e-05
0.000109279
9.08749e-05
9.35935e-05
9.35338e-05
7.76981e-05
9.50233e-05
6.15531e-05
9.64668e-05
4.5376e-05
9.659e-05
2.92751e-05
9.63226e-05