/*--------------------------------*- C++ -*----------------------------------*\
| =========                 |                                                 |
| \\      /  F ield         | OpenFOAM: The Open Source CFD Toolbox           |
|  \\    /   O peration     | Version:  3.0.1                                 |
|   \\  /    A nd           | Web:      www.OpenFOAM.org                      |
|    \\/     M anipulation  |                                                 |
\*---------------------------------------------------------------------------*/
FoamFile
{
    version     2.0;
    format      ascii;
    class       volScalarField;
    location    "7";
    object      p_rgh;
}
// * * * * * * * * * * * * * * * * * * * * * * * * * * * * * * * * * * * * * //

dimensions      [1 -1 -2 0 0 0 0];

internalField   nonuniform List<scalar> 
21420
(
171.968
203.901
235.231
265.449
294.138
320.716
344.772
365.881
383.712
398.011
408.572
415.252
417.809
415.668
409.505
399.632
386.084
369.105
348.964
325.964
300.456
272.774
243.275
212.358
180.385
147.747
114.784
81.8203
49.158
17.4598
-13.007
-42.9142
-71.8143
-99.4674
-125.706
-150.382
-173.38
-194.599
-213.949
-231.36
-246.77
-260.125
-271.388
-280.538
-287.574
-292.516
-295.333
-296.071
-294.791
-291.609
-286.577
-279.804
-271.401
-261.475
-250.13
-237.483
-223.647
-208.72
-192.807
-176.004
-158.396
-140.063
-121.07
-101.488
-81.3871
-60.8271
-39.8705
-18.5981
2.87519
24.4309
46.1664
67.905
89.5081
110.838
131.749
152.083
171.668
190.322
207.847
224.047
238.725
251.69
262.76
271.768
278.572
283.061
285.158
284.822
282.049
276.891
269.394
259.674
247.865
234.125
218.65
201.66
183.386
164.079
143.997
123.402
102.556
81.7137
61.1172
40.9868
21.5224
2.90212
-14.7209
-31.2187
-46.4878
-60.4478
-73.0411
-84.2324
-94.005
-102.356
-109.296
-114.851
-119.056
-121.962
-123.609
-124.052
-123.374
-121.626
-118.88
-115.204
-110.671
-105.355
-99.3327
-92.6774
-85.466
-77.775
-69.6794
-61.2535
-52.5705
-43.702
-34.7171
-25.6837
-16.6674
-7.73165
1.05621
9.65646
18.0081
26.0591
33.7616
41.0721
47.9508
54.3627
60.2771
65.6684
70.5162
74.8053
78.5257
81.673
84.2482
86.257
87.7109
88.6262
89.021
88.9223
88.355
87.3491
85.9355
84.1482
82.0223
79.5937
76.8995
73.9771
70.8635
67.5949
64.2068
60.7328
57.205
53.6535
50.1058
46.5873
43.1207
39.7266
36.4227
33.2247
30.1456
27.1963
24.3856
21.7201
19.2048
16.8429
14.6359
12.5842
10.6867
8.94126
7.34467
5.893
4.58165
3.40532
2.3583
1.43574
0.628717
-0.0718054
-0.671186
-1.17608
-1.59355
-1.93069
-2.1944
-2.3915
-2.52868
-2.61224
-2.64819
-2.64224
-2.5997
-2.52556
-2.42453
-2.30094
-2.15881
-2.00185
-1.83343
-1.65661
-1.47415
-1.2885
-1.10186
-0.916146
-0.733039
-0.554009
-0.380308
-0.212985
-0.0529831
0.0991361
0.24303
0.378231
0.504415
0.621394
0.729091
0.827519
0.91677
0.996999
1.06842
1.13129
1.18591
1.2326
1.27172
1.30365
1.32878
1.34749
1.36022
1.36735
1.3693
1.36645
1.3592
1.34791
1.33293
1.31464
1.29335
1.26939
1.2431
1.21476
1.18467
1.15309
1.1203
1.08652
1.05198
1.0169
0.981451
0.94582
0.910167
0.874637
0.83936
0.804457
0.77003
0.736175
0.702971
0.67049
0.638791
0.607927
0.577938
0.548859
0.520717
0.49353
0.467313
0.442072
0.417811
0.394527
0.372214
0.350862
0.330457
0.310984
0.292424
0.274756
0.257957
0.242004
0.226871
0.212531
0.198958
0.186124
0.174
0.162559
0.151773
0.141612
0.13205
0.12306
0.114613
0.106684
0.0992464
0.0922759
0.0857479
0.0796389
0.073926
0.0685875
0.0636021
0.0589496
0.0546107
0.0505669
0.0468004
0.0432944
0.0400329
0.0370005
0.0341829
0.0315662
0.0291376
0.0268846
0.0247957
0.0228599
0.0210669
0.0194071
0.0178712
0.0164506
0.0151373
0.0139238
0.0128029
0.011768
0.0108129
0.00993189
0.00911944
0.00837054
0.00768049
0.00704489
0.00645968
0.00592103
0.00542544
0.00496962
0.00455052
0.00416532
0.00381141
0.00348636
0.00318792
0.00291402
0.00266273
0.00243228
0.00222104
0.00202748
0.00185022
0.00168798
0.00153957
0.00140391
0.00128001
0.00116697
0.00106396
0.000970245
0.000885165
0.000808148
0.000738638
171.961
203.911
235.259
265.495
294.204
320.8
344.873
365.998
383.843
398.153
408.722
415.406
417.988
415.822
409.655
399.772
386.212
369.219
349.063
326.047
300.523
272.824
243.309
212.375
180.388
147.735
114.759
81.7851
49.1147
17.4075
-13.0673
-42.9792
-71.884
-99.5411
-125.783
-150.461
-173.461
-194.682
-214.033
-231.445
-246.856
-260.211
-271.474
-280.623
-287.658
-292.598
-295.413
-296.149
-294.868
-291.681
-286.646
-279.87
-271.463
-261.534
-250.184
-237.534
-223.695
-208.765
-192.849
-176.044
-158.434
-140.099
-121.103
-101.519
-81.4167
-60.8546
-39.8958
-18.6209
2.85592
24.4145
46.1541
67.8974
89.5056
110.841
131.759
152.1
171.693
190.355
207.889
224.097
238.784
251.758
262.835
271.85
278.66
283.152
285.253
284.914
282.14
276.979
269.477
259.751
247.934
234.186
218.702
201.701
183.417
164.098
144.005
123.4
102.544
81.6931
61.0883
40.9508
21.4801
2.8548
-14.7723
-31.2732
-46.5445
-60.5059
-73.0998
-84.2912
-94.0632
-102.413
-109.352
-114.905
-119.109
-122.012
-123.656
-124.097
-123.416
-121.666
-118.917
-115.239
-110.703
-105.384
-99.3589
-92.7008
-85.4865
-77.7927
-69.6943
-61.2656
-52.5799
-43.7086
-34.7211
-25.6851
-16.6663
-7.72811
1.06195
9.66447
18.0182
26.0712
33.7756
41.0879
47.968
54.3813
60.2968
65.6891
70.5376
74.8272
78.548
81.6953
84.2703
86.2787
87.732
88.6465
89.0406
88.9405
88.3722
87.365
85.9501
84.1614
82.034
79.6039
76.9082
73.9844
70.8693
67.5993
64.2098
60.7346
57.2056
53.653
50.1044
46.5849
43.1175
39.7227
36.4183
33.2198
30.1403
27.1907
24.3797
21.714
19.1986
16.8366
14.6297
12.578
10.6806
8.93532
7.33889
5.88742
4.57629
3.40019
2.35343
1.43119
0.624419
-0.075829
-0.674932
-1.17955
-1.59674
-1.9336
-2.19703
-2.39387
-2.5308
-2.61412
-2.64985
-2.64369
-2.60095
-2.52663
-2.42542
-2.30167
-2.1594
-2.00231
-1.83377
-1.65684
-1.47428
-1.28855
-1.10183
-0.916046
-0.732881
-0.553801
-0.380058
-0.212705
-0.0526766
0.0994622
0.243373
0.378586
0.504777
0.621759
0.729456
0.82788
0.917125
0.997346
1.06876
1.13162
1.18622
1.2329
1.27201
1.30392
1.32903
1.34773
1.36044
1.36756
1.36949
1.36662
1.35936
1.34805
1.33307
1.31475
1.29345
1.26949
1.24318
1.21483
1.18472
1.15314
1.12034
1.08655
1.05201
1.01691
0.981457
0.945821
0.910161
0.874626
0.839345
0.804437
0.770007
0.736148
0.702942
0.670458
0.638758
0.607891
0.577901
0.548822
0.520678
0.493491
0.467274
0.442033
0.417772
0.394489
0.372176
0.350824
0.330421
0.310948
0.292389
0.274722
0.257924
0.241972
0.22684
0.212501
0.198929
0.186096
0.173974
0.162534
0.151748
0.141589
0.132028
0.123038
0.114592
0.106664
0.0992281
0.0922585
0.0857315
0.0796234
0.0739114
0.0685736
0.063589
0.0589373
0.0545991
0.050556
0.0467902
0.0432848
0.0400239
0.0369921
0.034175
0.0315588
0.0291306
0.0268781
0.0247896
0.0228543
0.0210617
0.0194022
0.0178666
0.0164464
0.0151334
0.0139201
0.0127995
0.0117649
0.01081
0.00992919
0.00911693
0.00836822
0.00767834
0.00704291
0.00645784
0.00591934
0.00542387
0.00496817
0.00454918
0.00416409
0.00381027
0.00348531
0.00318695
0.00291313
0.00266191
0.00243153
0.00222034
0.00202684
0.00184963
0.00168743
0.00153906
0.00140345
0.00127959
0.00116658
0.0010636
0.000969911
0.000884857
0.000807863
0.000738376
171.948
203.931
235.316
265.59
294.336
320.97
345.078
366.235
384.107
398.438
409.023
415.716
418.349
416.131
409.956
400.052
386.468
369.449
349.263
326.215
300.657
272.925
243.376
212.411
180.393
147.712
114.71
81.715
49.0283
17.3028
-13.1878
-43.1091
-72.0232
-99.6884
-125.937
-150.62
-173.624
-194.848
-214.202
-231.616
-247.028
-260.384
-271.647
-280.794
-287.826
-292.761
-295.572
-296.305
-295.023
-291.826
-286.783
-280
-271.586
-261.649
-250.292
-237.635
-223.789
-208.853
-192.931
-176.12
-158.505
-140.165
-121.165
-101.577
-81.4705
-60.9041
-39.9406
-18.6605
2.8233
24.388
46.1358
67.8884
89.5071
110.854
131.785
152.141
171.749
190.428
207.98
224.206
238.91
251.9
262.992
272.021
278.84
283.34
285.449
285.102
282.327
277.16
269.649
259.91
248.077
234.311
218.808
201.787
183.481
164.14
144.025
123.399
102.523
81.6539
61.0326
40.8806
21.3976
2.762
-14.8733
-31.3805
-46.6563
-60.6205
-73.2158
-84.4072
-94.1782
-102.526
-109.463
-115.012
-119.212
-122.111
-123.749
-124.187
-123.5
-121.745
-118.99
-115.307
-110.766
-105.442
-99.4106
-92.7468
-85.5269
-77.8274
-69.7235
-61.2893
-52.5981
-43.7215
-34.7287
-25.6876
-16.6637
-7.72066
1.07381
9.68084
18.0388
26.0958
33.8039
41.1196
48.0028
54.4187
60.3366
65.7307
70.5807
74.8713
78.5926
81.74
84.3146
86.3223
87.7744
88.6873
89.0799
88.9772
88.4067
87.3969
85.9794
84.1878
82.0575
79.6245
76.9258
73.999
70.8809
67.6082
64.216
60.7382
57.207
53.6521
50.1015
46.5803
43.1113
39.7151
36.4095
33.21
30.1297
27.1794
24.3679
21.7019
19.1863
16.8242
14.6173
12.5658
10.6686
8.92351
7.3274
5.87633
4.56562
3.38997
2.34375
1.42215
0.615873
-0.0838311
-0.682382
-1.18645
-1.60307
-1.93938
-2.20227
-2.39859
-2.53502
-2.61787
-2.65315
-2.64657
-2.60343
-2.52875
-2.4272
-2.30313
-2.16057
-2.00321
-1.83443
-1.65728
-1.47453
-1.28863
-1.10176
-0.915842
-0.732562
-0.553383
-0.379556
-0.21214
-0.0520642
0.100115
0.24406
0.379296
0.505502
0.62249
0.730185
0.828603
0.917835
0.998039
1.06943
1.13226
1.18684
1.23349
1.27257
1.30446
1.32953
1.3482
1.36088
1.36797
1.36986
1.36697
1.35967
1.34834
1.33333
1.31499
1.29366
1.26967
1.24334
1.21497
1.18484
1.15324
1.12041
1.08661
1.05205
1.01694
0.981472
0.945822
0.910152
0.874606
0.839316
0.804399
0.769962
0.736097
0.702885
0.670396
0.638692
0.607823
0.57783
0.548748
0.520603
0.493415
0.467197
0.441956
0.417696
0.394413
0.372101
0.35075
0.330348
0.310877
0.292319
0.274654
0.257858
0.241908
0.226778
0.212441
0.198872
0.186041
0.17392
0.162483
0.151699
0.141542
0.131984
0.122996
0.114552
0.106626
0.0991918
0.0922242
0.0856989
0.0795925
0.0738822
0.0685461
0.0635631
0.0589129
0.0545761
0.0505343
0.0467698
0.0432657
0.040006
0.0369753
0.0341593
0.0315441
0.0291169
0.0268653
0.0247777
0.0228431
0.0210513
0.0193925
0.0178576
0.0164379
0.0151256
0.0139129
0.0127927
0.0117586
0.0108042
0.0099238
0.00911194
0.00836359
0.00767406
0.00703895
0.00645418
0.00591595
0.00542075
0.00496528
0.00454652
0.00416163
0.003808
0.00348322
0.00318502
0.00291135
0.00266027
0.00243002
0.00221895
0.00202556
0.00184845
0.00168634
0.00153806
0.00140252
0.00127874
0.00116579
0.00106288
0.000969244
0.000884242
0.000807295
0.000737852
171.927
203.962
235.401
265.731
294.535
321.224
345.385
366.591
384.504
398.866
409.474
416.179
418.865
416.602
410.412
400.472
386.852
369.793
349.562
326.467
300.859
273.076
243.477
212.464
180.4
147.677
114.637
81.6095
48.8986
17.1454
-13.3684
-43.3039
-72.2322
-99.9094
-126.167
-150.859
-173.869
-195.098
-214.456
-231.873
-247.286
-260.643
-271.905
-281.051
-288.079
-293.005
-295.809
-296.543
-295.254
-292.043
-286.989
-280.195
-271.77
-261.822
-250.454
-237.786
-223.93
-208.984
-193.053
-176.234
-158.611
-140.265
-121.258
-101.664
-81.5515
-60.9786
-40.0082
-18.7202
2.77387
24.3481
46.1081
67.8746
89.509
110.874
131.825
152.202
171.834
190.537
208.115
224.367
239.098
252.113
263.228
272.276
279.111
283.621
285.738
285.389
282.608
277.431
269.906
260.148
248.291
234.499
218.967
201.915
183.576
164.202
144.055
123.398
102.492
81.5951
60.949
40.7752
21.2737
2.62263
-15.025
-31.5416
-46.8241
-60.7926
-73.3898
-84.5814
-94.3509
-102.696
-109.628
-115.173
-119.367
-122.259
-123.888
-124.321
-123.627
-121.863
-119.101
-115.41
-110.86
-105.528
-99.4882
-92.816
-85.5876
-77.8796
-69.7673
-61.3248
-52.6254
-43.7407
-34.7401
-25.6912
-16.6598
-7.7095
1.09162
9.7054
18.0697
26.1327
33.8464
41.1671
48.055
54.4749
60.3962
65.7931
70.6453
74.9374
78.6595
81.8071
84.3812
86.3876
87.838
88.7485
89.1386
89.0323
88.4584
87.4449
86.0233
84.2275
82.0928
79.6553
76.9522
74.0209
70.8985
67.6215
64.2253
60.7437
57.2089
53.6508
50.0972
46.5733
43.102
39.7037
36.3964
33.1953
30.1138
27.1626
24.3503
21.6838
19.1678
16.8056
14.5987
12.5473
10.6504
8.90578
7.31017
5.85969
4.54962
3.37465
2.32922
1.40857
0.603053
-0.0958375
-0.69356
-1.19679
-1.61258
-1.94805
-2.21013
-2.40567
-2.54135
-2.62348
-2.6581
-2.65088
-2.60716
-2.53192
-2.42986
-2.30532
-2.16232
-2.00456
-1.83542
-1.65795
-1.47491
-1.28875
-1.10165
-0.915535
-0.732083
-0.552755
-0.378802
-0.211289
-0.0511486
0.101095
0.245091
0.380363
0.506589
0.623586
0.731279
0.829686
0.9189
0.999079
1.07044
1.13324
1.18778
1.23439
1.27342
1.30526
1.33029
1.34891
1.36154
1.36858
1.37043
1.36749
1.36015
1.34877
1.33372
1.31534
1.29397
1.26995
1.24358
1.21517
1.18502
1.15338
1.12053
1.0867
1.05211
1.01698
0.981493
0.945825
0.910137
0.874576
0.839272
0.804343
0.769895
0.73602
0.702799
0.670304
0.638594
0.607719
0.577723
0.548638
0.520491
0.493301
0.467082
0.441841
0.417581
0.394298
0.371988
0.350639
0.330238
0.31077
0.292215
0.274552
0.257759
0.241812
0.226685
0.212352
0.198785
0.185958
0.173841
0.162406
0.151626
0.141473
0.131917
0.122933
0.114492
0.106569
0.0991373
0.0921725
0.0856501
0.0795463
0.0738385
0.0685049
0.0635242
0.0588762
0.0545416
0.0505019
0.0467393
0.0432371
0.0399791
0.0369501
0.0341357
0.0315221
0.0290963
0.026846
0.0247597
0.0228263
0.0210356
0.0193779
0.017844
0.0164253
0.0151138
0.0139019
0.0127826
0.0117492
0.0107955
0.00991571
0.00910445
0.00835666
0.00766764
0.00703301
0.00644868
0.00591088
0.00541606
0.00496095
0.00454252
0.00415794
0.0038046
0.00348008
0.00318213
0.00290868
0.00265781
0.00242775
0.00221686
0.00202363
0.00184668
0.00168471
0.00153656
0.00140114
0.00127746
0.00116462
0.00106179
0.000968243
0.000883319
0.000806444
0.000737067
171.9
204.002
235.515
265.92
294.8
321.564
345.795
367.065
385.032
399.438
410.075
416.796
419.505
417.237
411.019
401.032
387.364
370.252
349.962
326.802
301.127
273.277
243.612
212.534
180.409
147.629
114.538
81.4683
48.7255
16.9355
-13.6091
-43.5638
-72.5111
-100.204
-126.475
-151.177
-174.195
-195.431
-214.794
-232.215
-247.631
-260.989
-272.251
-281.393
-288.415
-293.331
-296.126
-296.861
-295.559
-292.332
-287.264
-280.455
-272.015
-262.052
-250.67
-237.988
-224.118
-209.159
-193.216
-176.386
-158.754
-140.398
-121.383
-101.781
-81.6597
-61.0782
-40.0985
-18.8002
2.70748
24.2947
46.0711
67.856
89.5112
110.899
131.876
152.283
171.946
190.682
208.295
224.583
239.348
252.397
263.542
272.616
279.472
283.996
286.118
285.774
282.985
277.793
270.249
260.465
248.578
234.751
219.179
202.085
183.704
164.285
144.095
123.395
102.45
81.5163
60.8371
40.6343
21.1081
2.43655
-15.2276
-31.7567
-47.0482
-61.0222
-73.6221
-84.8138
-94.5813
-102.922
-109.85
-115.388
-119.574
-122.456
-124.075
-124.5
-123.795
-122.021
-119.248
-115.547
-110.986
-105.642
-99.5916
-92.9081
-85.6685
-77.9492
-69.8257
-61.3721
-52.6618
-43.7664
-34.7552
-25.6961
-16.6547
-7.69464
1.11538
9.73815
18.1109
26.1819
33.903
41.2306
48.1245
54.5498
60.4758
65.8764
70.7315
75.0256
78.7488
81.8965
84.4699
86.4748
87.9227
88.8301
89.2166
89.106
88.5274
87.5088
86.0818
84.2804
82.1399
79.6964
76.9873
74.0501
70.9218
67.6392
64.2376
60.751
57.2115
53.649
50.0915
46.564
43.0895
39.6885
36.3788
33.1757
30.0926
27.14
24.3268
21.6596
19.1432
16.7808
14.5739
12.5228
10.6262
8.88212
7.28719
5.83749
4.52828
3.35421
2.30984
1.39048
0.585964
-0.111848
-0.708466
-1.21058
-1.62525
-1.95961
-2.22062
-2.41511
-2.54978
-2.63097
-2.66469
-2.65664
-2.61213
-2.53616
-2.43341
-2.30823
-2.16465
-2.00636
-1.83674
-1.65884
-1.47541
-1.2889
-1.1015
-0.915124
-0.731444
-0.551917
-0.377796
-0.21015
-0.0499293
0.102401
0.246466
0.381785
0.50804
0.625048
0.732739
0.831131
0.92032
1.00047
1.07178
1.13454
1.18903
1.23558
1.27456
1.30633
1.33129
1.34985
1.36241
1.36939
1.37118
1.36818
1.36079
1.34935
1.33424
1.31581
1.29439
1.27032
1.2439
1.21545
1.18525
1.15357
1.12068
1.08682
1.0522
1.01704
0.981522
0.945828
0.910118
0.874535
0.839213
0.804268
0.769805
0.735917
0.702686
0.670181
0.638462
0.607581
0.577579
0.54849
0.52034
0.493149
0.466929
0.441687
0.417427
0.394146
0.371837
0.350491
0.330093
0.310627
0.292075
0.274416
0.257627
0.241684
0.226561
0.212232
0.19867
0.185847
0.173735
0.162305
0.151529
0.14138
0.131828
0.122848
0.114411
0.106492
0.0990648
0.0921037
0.0855849
0.0794847
0.0737803
0.0684499
0.0634723
0.0588273
0.0544956
0.0504586
0.0466987
0.0431989
0.0399433
0.0369166
0.0341043
0.0314927
0.0290688
0.0268203
0.0247357
0.0228039
0.0210148
0.0193585
0.0178259
0.0164085
0.0150982
0.0138874
0.0127691
0.0117367
0.0107839
0.00990493
0.00909446
0.00834741
0.00765908
0.00702509
0.00644136
0.00590411
0.0054098
0.00495518
0.00453719
0.00415302
0.00380006
0.00347589
0.00317827
0.00290512
0.00265453
0.00242473
0.00221408
0.00202107
0.00184432
0.00168254
0.00153456
0.00139929
0.00127576
0.00116305
0.00106035
0.000966909
0.000882088
0.000805309
0.00073602
171.865
204.051
235.656
266.156
295.132
321.989
346.308
367.658
385.693
400.152
410.828
417.569
420.291
418.024
411.774
401.732
388.005
370.827
350.461
327.221
301.463
273.528
243.779
212.622
180.42
147.57
114.415
81.2906
48.5086
16.6728
-13.9097
-43.8887
-72.8599
-100.573
-126.86
-151.575
-174.603
-195.847
-215.217
-232.643
-248.062
-261.421
-272.682
-281.822
-288.836
-293.74
-296.527
-297.256
-295.939
-292.693
-287.608
-280.78
-272.322
-262.341
-250.94
-238.24
-224.353
-209.378
-193.42
-176.576
-158.931
-140.564
-121.539
-101.926
-81.795
-61.2029
-40.2116
-18.9003
2.62393
24.2279
46.0245
67.8324
89.5137
110.931
131.941
152.383
172.085
190.863
208.521
224.853
239.662
252.752
263.935
273.042
279.923
284.465
286.595
286.254
283.457
278.247
270.677
260.861
248.935
235.065
219.445
202.299
183.863
164.389
144.144
123.392
102.397
81.4175
60.697
40.4579
20.9008
2.20355
-15.4811
-32.0259
-47.3285
-61.3094
-73.9126
-85.1045
-94.8694
-103.206
-110.126
-115.656
-119.832
-122.702
-124.31
-124.723
-124.006
-122.219
-119.433
-115.717
-111.143
-105.786
-99.721
-93.0234
-85.7696
-78.0362
-69.8987
-61.4313
-52.7073
-43.7984
-34.7741
-25.7022
-16.6483
-7.67606
1.14511
9.7791
18.1624
26.2435
33.9738
41.3099
48.2115
54.6436
60.5752
65.9806
70.8393
75.1359
78.8604
82.0084
84.5809
86.5838
88.0288
88.9321
89.314
89.1983
88.6137
87.5887
86.1551
84.3466
82.1987
79.7478
77.0312
74.0865
70.951
67.6614
64.2531
60.7601
57.2146
53.6468
50.0842
46.5523
43.0739
39.6695
36.3567
33.1512
30.066
27.1119
24.2974
21.6293
19.1124
16.7498
14.5429
12.492
10.596
8.85254
7.25845
5.80974
4.5016
3.32865
2.28558
1.36787
0.56461
-0.131865
-0.727101
-1.22782
-1.64109
-1.97406
-2.23371
-2.4269
-2.56032
-2.64032
-2.67293
-2.66382
-2.61833
-2.54144
-2.43784
-2.31187
-2.16756
-2.00861
-1.83839
-1.65994
-1.47603
-1.28909
-1.10132
-0.914608
-0.730642
-0.550868
-0.376535
-0.208721
-0.0484069
0.104034
0.248187
0.383565
0.509854
0.626877
0.734565
0.832939
0.922096
1.0022
1.07347
1.13616
1.19059
1.23707
1.27597
1.30767
1.33255
1.35103
1.36351
1.37041
1.37212
1.36905
1.36158
1.35008
1.3349
1.3164
1.29491
1.27078
1.2443
1.21579
1.18554
1.15381
1.12088
1.08697
1.05231
1.01711
0.981557
0.945832
0.910093
0.874485
0.839139
0.804173
0.769692
0.735788
0.702543
0.670026
0.638298
0.607409
0.5774
0.548306
0.520152
0.492958
0.466737
0.441495
0.417236
0.393956
0.371649
0.350305
0.32991
0.310448
0.291901
0.274246
0.257462
0.241524
0.226407
0.212083
0.198527
0.185709
0.173602
0.162177
0.151407
0.141263
0.131717
0.122742
0.114311
0.106397
0.098974
0.0920177
0.0855034
0.0794076
0.0737075
0.0683811
0.0634074
0.0587662
0.0544381
0.0504045
0.0466478
0.0431512
0.0398985
0.0368746
0.034065
0.0314559
0.0290344
0.0267882
0.0247057
0.022776
0.0209887
0.0193342
0.0178033
0.0163874
0.0150786
0.0138692
0.0127522
0.011721
0.0107693
0.00989146
0.00908198
0.00833586
0.00764838
0.0070152
0.00643221
0.00589565
0.00540199
0.00494796
0.00453053
0.00414687
0.00379439
0.00347066
0.00317345
0.00290068
0.00265044
0.00242096
0.0022106
0.00201787
0.00184137
0.00167982
0.00153205
0.00139699
0.00127363
0.00116109
0.00105854
0.000965242
0.000880551
0.000803891
0.000734712
171.822
204.109
235.824
266.438
295.53
322.498
346.923
368.37
386.488
401.011
411.732
418.499
421.23
418.962
412.676
402.572
388.774
371.516
351.06
327.724
301.866
273.83
243.98
212.726
180.433
147.497
114.265
81.0759
48.2472
16.357
-14.2698
-44.2789
-73.2789
-101.016
-127.323
-152.053
-175.093
-196.347
-215.724
-233.156
-248.579
-261.94
-273.201
-282.336
-289.343
-294.232
-297.01
-297.729
-296.393
-293.127
-288.02
-281.171
-272.691
-262.687
-251.264
-238.542
-224.635
-209.641
-193.665
-176.805
-159.145
-140.764
-121.725
-102.101
-81.9575
-61.3525
-40.3475
-19.0206
2.52307
24.1474
45.9684
67.8038
89.5164
110.969
132.018
152.503
172.253
191.081
208.791
225.176
240.037
253.178
264.406
273.553
280.465
285.029
287.168
286.83
284.025
278.792
271.192
261.337
249.365
235.442
219.764
202.555
184.054
164.514
144.203
123.388
102.333
81.2983
60.5283
40.2455
20.6514
1.92344
-15.7858
-32.3494
-47.6653
-61.6545
-74.2616
-85.4536
-95.2154
-103.546
-110.458
-115.978
-120.142
-122.998
-124.593
-124.991
-124.258
-122.456
-119.654
-115.922
-111.332
-105.958
-99.8762
-93.1617
-85.891
-78.1407
-69.9864
-61.5023
-52.7619
-43.8369
-34.7969
-25.7095
-16.6405
-7.65374
1.18082
9.82826
18.2244
26.3174
34.0589
41.4051
48.316
54.7561
60.6947
66.1057
70.9687
75.2683
78.9945
82.1428
84.7141
86.7147
88.1561
89.0547
89.431
89.309
88.7172
87.6846
86.2429
84.426
82.2693
79.8095
77.0839
74.1302
70.986
67.6879
64.2715
60.7709
57.2184
53.644
50.0755
46.5382
43.0551
39.6465
36.3303
33.1218
30.0341
27.078
24.2621
21.593
19.0754
16.7125
14.5057
12.4551
10.5597
8.81703
7.22396
5.77642
4.46958
3.29798
2.25639
1.34079
0.538996
-0.155888
-0.749466
-1.24851
-1.6601
-1.9914
-2.24943
-2.44105
-2.57297
-2.65154
-2.68282
-2.67244
-2.62577
-2.54778
-2.44315
-2.31623
-2.17105
-2.0113
-1.84036
-1.66127
-1.47677
-1.28932
-1.10109
-0.913986
-0.729676
-0.549606
-0.375019
-0.206997
-0.0465821
0.105997
0.250254
0.385703
0.512034
0.629073
0.736757
0.835108
0.924228
1.00428
1.07549
1.13811
1.19246
1.23886
1.27767
1.30928
1.33407
1.35245
1.36483
1.37163
1.37325
1.37009
1.36253
1.35094
1.33568
1.3171
1.29554
1.27133
1.24478
1.2162
1.18589
1.1541
1.12111
1.08714
1.05244
1.01719
0.9816
0.945837
0.910063
0.874424
0.83905
0.80406
0.769557
0.735634
0.702372
0.669841
0.638101
0.607202
0.577185
0.548085
0.519927
0.492729
0.466506
0.441264
0.417005
0.393727
0.371423
0.350082
0.329691
0.310234
0.291691
0.274042
0.257264
0.241332
0.226221
0.211904
0.198354
0.185543
0.173443
0.162025
0.151261
0.141124
0.131584
0.122615
0.11419
0.106282
0.0988652
0.0919145
0.0854057
0.0793151
0.0736201
0.0682986
0.0633297
0.0586929
0.0543691
0.0503396
0.0465869
0.0430939
0.0398448
0.0368243
0.0340179
0.0314118
0.0289932
0.0267497
0.0246697
0.0227424
0.0209574
0.019305
0.0177761
0.0163622
0.0150551
0.0138474
0.012732
0.0117022
0.0107519
0.00987531
0.00906701
0.00832199
0.00763556
0.00700333
0.00642124
0.00588551
0.00539262
0.00493931
0.00452254
0.0041395
0.00378759
0.00346439
0.00316767
0.00289535
0.00264553
0.00241643
0.00220643
0.00201403
0.00183783
0.00167656
0.00152905
0.00139422
0.00127108
0.00115874
0.00105637
0.000963243
0.000878707
0.00080219
0.000733143
171.77
204.176
236.02
266.767
295.994
323.093
347.642
369.202
387.415
402.014
412.789
419.585
422.324
420.051
413.723
403.552
389.672
372.321
351.759
328.31
302.335
274.18
244.214
212.847
180.447
147.412
114.089
80.8232
47.9399
15.9883
-14.6891
-44.7344
-73.7684
-101.534
-127.863
-152.611
-175.665
-196.93
-216.317
-233.756
-249.184
-262.547
-273.806
-282.936
-289.934
-294.809
-297.574
-298.279
-296.923
-293.632
-288.501
-281.627
-273.12
-263.091
-251.642
-238.895
-224.964
-209.948
-193.951
-177.071
-159.393
-140.996
-121.943
-102.304
-82.1472
-61.5274
-40.5063
-19.161
2.40475
24.0531
45.9026
67.77
89.519
111.012
132.107
152.643
172.447
191.334
209.105
225.554
240.476
253.675
264.957
274.149
281.098
285.688
287.839
287.502
284.686
279.428
271.793
261.893
249.867
235.883
220.136
202.854
184.276
164.658
144.272
123.382
102.258
81.1586
60.3307
39.997
20.3598
1.59593
-16.142
-32.7275
-48.0589
-62.0577
-74.6692
-85.8614
-95.6194
-103.943
-110.845
-116.354
-120.504
-123.344
-124.922
-125.304
-124.553
-122.733
-119.912
-116.162
-111.552
-106.159
-100.057
-93.3231
-86.0326
-78.2625
-70.0886
-61.5852
-52.8257
-43.8818
-34.8234
-25.718
-16.6314
-7.62767
1.22252
9.88563
18.2967
26.4036
34.1583
41.5164
48.438
54.8875
60.8342
66.2517
71.1198
75.4229
79.151
82.2997
84.8697
86.8676
88.3047
89.1978
89.5675
89.4382
88.8381
87.7966
86.3455
84.5186
82.3517
79.8814
77.1453
74.1812
71.0268
67.7188
64.293
60.7836
57.2228
53.6407
50.0653
46.5218
43.0332
39.6197
36.2993
33.0874
29.9969
27.0385
24.2208
21.5505
19.0322
16.6689
14.4622
12.412
10.5173
8.77559
7.18371
5.73753
4.43219
3.26219
2.22221
1.3093
0.509122
-0.183922
-0.775561
-1.27264
-1.68227
-2.01163
-2.26776
-2.45755
-2.58771
-2.66462
-2.69434
-2.6825
-2.63445
-2.55517
-2.44934
-2.32131
-2.17511
-2.01444
-1.84265
-1.6628
-1.47763
-1.28958
-1.10082
-0.913254
-0.728545
-0.548129
-0.373247
-0.204979
-0.0444522
0.108289
0.252669
0.3882
0.514579
0.631638
0.739316
0.837641
0.926717
1.00671
1.07785
1.14039
1.19464
1.24094
1.27965
1.31115
1.33583
1.3541
1.36637
1.37306
1.37457
1.3713
1.36364
1.35195
1.3366
1.31793
1.29627
1.27197
1.24534
1.21669
1.18629
1.15444
1.12138
1.08735
1.05259
1.01729
0.981649
0.945842
0.910028
0.874353
0.838946
0.803927
0.769399
0.735453
0.702172
0.669625
0.63787
0.60696
0.576934
0.547827
0.519663
0.492462
0.466237
0.440995
0.416737
0.39346
0.371159
0.349822
0.329436
0.309984
0.291447
0.273805
0.257033
0.241108
0.226004
0.211695
0.198153
0.185349
0.173257
0.161847
0.151091
0.140961
0.131429
0.122467
0.114049
0.106148
0.0987382
0.0917941
0.0852917
0.0792073
0.0735182
0.0682024
0.0632389
0.0586074
0.0542886
0.050264
0.0465158
0.0430272
0.0397822
0.0367656
0.0339629
0.0313604
0.0289451
0.0267047
0.0246278
0.0227033
0.0209209
0.019271
0.0177445
0.0163328
0.0150278
0.013822
0.0127084
0.0116803
0.0107316
0.00985647
0.00904956
0.00830583
0.00762059
0.00698949
0.00640844
0.00587368
0.00538169
0.00492921
0.00451322
0.0041309
0.00377966
0.00345707
0.00316092
0.00288913
0.0026398
0.00241116
0.00220157
0.00200955
0.00183371
0.00167276
0.00152555
0.00139099
0.00126811
0.001156
0.00105384
0.000960912
0.000876557
0.000800207
0.000731313
171.71
204.251
236.243
267.143
296.525
323.774
348.464
370.153
388.477
403.163
413.999
420.828
423.576
421.291
414.918
404.671
390.698
373.24
352.559
328.98
302.871
274.581
244.48
212.983
180.462
147.312
113.885
80.5315
47.5843
15.5678
-15.1671
-45.2553
-74.3287
-102.126
-128.48
-153.249
-176.32
-197.597
-216.995
-234.441
-249.874
-263.24
-274.498
-283.623
-290.611
-295.47
-298.22
-298.906
-297.528
-294.21
-289.051
-282.148
-273.612
-263.552
-252.074
-239.298
-225.34
-210.298
-194.277
-177.375
-159.678
-141.262
-122.192
-102.537
-82.3641
-61.7274
-40.6882
-19.3218
2.26885
23.9449
45.8269
67.7307
89.5213
111.061
132.208
152.802
172.669
191.622
209.464
225.985
240.977
254.244
265.588
274.831
281.822
286.442
288.608
288.271
285.443
280.157
272.481
262.529
250.442
236.387
220.562
203.195
184.53
164.824
144.349
123.375
102.171
80.9981
60.1039
39.7121
20.0255
1.2207
-16.55
-33.1604
-48.5094
-62.5191
-75.1356
-86.3278
-96.0815
-104.397
-111.289
-116.783
-120.918
-123.739
-125.299
-125.661
-124.89
-123.049
-120.208
-116.435
-111.804
-106.389
-100.264
-93.5076
-86.1944
-78.4019
-70.2055
-61.6798
-52.8985
-43.9331
-34.8536
-25.7277
-16.621
-7.59779
1.27023
9.95126
18.3794
26.5023
34.2719
41.6436
48.5776
55.0379
60.9937
66.4188
71.2927
75.5998
79.3301
82.4791
85.0477
87.0424
88.4747
89.3614
89.7236
89.5859
88.9764
87.9246
86.4627
84.6245
82.4459
79.9637
77.2155
74.2395
71.0734
67.7541
64.3175
60.7979
57.2276
53.6369
50.0535
46.5029
43.008
39.589
36.2639
33.048
29.9542
26.9932
24.1736
21.5019
18.9828
16.6192
14.4125
12.3628
10.4688
8.7282
7.13768
5.69307
4.38944
3.2213
2.18302
1.27342
0.474982
-0.215968
-0.805388
-1.30022
-1.70761
-2.03474
-2.2887
-2.4764
-2.60455
-2.67956
-2.70749
-2.69397
-2.64435
-2.5636
-2.4564
-2.32711
-2.17975
-2.01801
-1.84526
-1.66455
-1.4786
-1.28987
-1.1005
-0.912411
-0.727246
-0.546436
-0.371216
-0.202667
-0.0420133
0.110914
0.255433
0.391058
0.517491
0.634571
0.742243
0.840538
0.929564
1.00949
1.08054
1.14299
1.19714
1.24333
1.28192
1.31329
1.33785
1.35599
1.36813
1.37469
1.37608
1.37269
1.36491
1.35311
1.33765
1.31887
1.29711
1.27271
1.24598
1.21724
1.18676
1.15482
1.12168
1.08759
1.05276
1.0174
0.981704
0.945847
0.909987
0.874271
0.838827
0.803775
0.769217
0.735247
0.701943
0.669377
0.637607
0.606683
0.576647
0.547531
0.519362
0.492157
0.46593
0.440686
0.416429
0.393155
0.370857
0.349525
0.329144
0.309698
0.291168
0.273533
0.256769
0.240852
0.225757
0.211456
0.197922
0.185128
0.173044
0.161643
0.150896
0.140775
0.131251
0.122298
0.113889
0.105995
0.0985931
0.0916565
0.0851614
0.079084
0.0734017
0.0680925
0.0631352
0.0585098
0.0541967
0.0501775
0.0464345
0.0429509
0.0397107
0.0366985
0.0339001
0.0313016
0.0288901
0.0266534
0.0245799
0.0226586
0.0208792
0.0192322
0.0177084
0.0162991
0.0149965
0.013793
0.0126814
0.0116553
0.0107084
0.00983495
0.00902962
0.00828737
0.00760351
0.00697368
0.00639382
0.00586017
0.00536921
0.00491769
0.00450258
0.00412108
0.0037706
0.00344872
0.00315322
0.00288204
0.00263326
0.00240513
0.00219602
0.00200444
0.00182899
0.00166842
0.00152155
0.00138731
0.00126471
0.00115287
0.00105096
0.000958249
0.000874101
0.000797942
0.000729224
171.639
204.333
236.492
267.564
297.121
324.539
349.389
371.225
389.673
404.457
415.362
422.23
424.986
422.685
416.261
405.931
391.854
374.276
353.458
329.734
303.473
275.03
244.778
213.135
180.476
147.198
113.654
80.1995
47.1759
15.0986
-15.7033
-45.8419
-74.96
-102.794
-129.177
-153.968
-177.056
-198.348
-217.757
-235.213
-250.652
-264.02
-275.277
-284.397
-291.373
-296.216
-298.947
-299.612
-298.208
-294.86
-289.67
-282.734
-274.165
-264.072
-252.56
-239.752
-225.763
-210.692
-194.644
-177.718
-159.997
-141.562
-122.472
-102.799
-82.6082
-61.9527
-40.8931
-19.5032
2.11517
23.8228
45.7411
67.6858
89.5232
111.116
132.321
152.98
172.918
191.947
209.867
226.469
241.541
254.884
266.297
275.6
282.638
287.292
289.474
289.137
286.295
280.978
273.256
263.246
251.089
236.954
221.041
203.579
184.815
165.01
144.436
123.366
102.072
80.8162
59.8475
39.3902
19.6482
0.797373
-17.0101
-33.6484
-49.0171
-63.039
-75.6611
-86.8533
-96.602
-104.908
-111.788
-117.267
-121.383