/*--------------------------------*- C++ -*----------------------------------*\
| =========                 |                                                 |
| \\      /  F ield         | OpenFOAM: The Open Source CFD Toolbox           |
|  \\    /   O peration     | Version:  3.0.1                                 |
|   \\  /    A nd           | Web:      www.OpenFOAM.org                      |
|    \\/     M anipulation  |                                                 |
\*---------------------------------------------------------------------------*/
FoamFile
{
    version     2.0;
    format      ascii;
    class       volScalarField;
    location    "30";
    object      p_rgh;
}
// * * * * * * * * * * * * * * * * * * * * * * * * * * * * * * * * * * * * * //

dimensions      [1 -1 -2 0 0 0 0];

internalField   nonuniform List<scalar> 
22680
(
-833.989
-856.966
-877.277
-895.618
-911.931
-926.208
-938.502
-948.894
-957.46
-964.299
-969.496
-973.156
-975.377
-976.262
-975.916
-974.431
-971.879
-968.352
-963.878
-958.523
-952.246
-945.071
-936.874
-927.636
-917.145
-905.361
-892.003
-877.061
-860.215
-841.564
-820.785
-798.195
-773.478
-747.323
-719.575
-689.583
-659.251
-627.377
-596.657
-565.394
-536.755
-508.662
-484.294
-461.613
-443.329
-427.908
-416.942
-409.742
-406.591
-407.42
-411.791
-419.401
-430.174
-443.01
-458.133
-473.861
-490.754
-507.09
-522.709
-538.562
-551.189
-558.268
-565.115
-572.806
-574.733
-572.116
-564.86
-554.718
-541.895
-528.397
-515.682
-506.022
-501.466
-502.852
-511.027
-525.531
-546.275
-571.697
-600.84
-632.091
-664.151
-696.07
-726.479
-756.052
-782.337
-806.515
-835.903
-827.12
-848.066
-863.179
-875.908
-885.823
-891.829
-893.701
-890.854
-882.803
-868.674
-849.694
-824.962
-796.025
-762.179
-726.016
-686.951
-647.95
-609.679
-576.399
-529.888
-502.31
-478.527
-461.53
-451.225
-448.559
-453.368
-465.731
-485.729
-513.965
-551.642
-597.851
-648.746
-702.291
-757.525
-815.756
-878.961
-947.836
-1018.2
-1084.02
-1141.95
-1190.69
-1231.81
-1266.23
-1294.86
-1317.65
-1334.03
-1344.37
-1348.94
-1347.84
-1341.41
-1329.72
-1312.89
-1291.17
-1264.86
-1234.65
-1201.56
-1166.59
-1130.18
-1092.89
-1056.21
-1021.39
-988.16
-956.466
-926.979
-900.491
-877.65
-858.212
-842.331
-830.343
-822.517
-818.978
-819.734
-825.105
-834.699
-848.026
-864.647
-884.065
-905.586
-928.226
-950.725
-972.729
-994.617
-1016.96
-1041.17
-1068.57
-1098.86
-1131.82
-1166.62
-1201.18
-1233.72
-1263.77
-1290.12
-1312.25
-1329.84
-1344.02
-1354.99
-1363.39
-1369.61
-1373.92
-1376.47
-1377.46
-1377.45
-1377.05
-1376.93
-1377.9
-1380.51
-1384.92
-1390.47
-1396.75
-1403.53
-1410.47
-1418.19
-1427.71
-1438.66
-1450.99
-1463.1
-1470.21
-1469.74
-1464.69
-1458.25
-1440.94
-1412.92
-1385.16
-1357.27
-1328.22
-1297.68
-1265.45
-1231.87
-1198.1
-1163.65
-1133.14
-1106.34
-1085.67
-1073.44
-1066.28
-1057.11
-993.041
-862.611
-834.152
-857.122
-877.434
-895.775
-912.083
-926.353
-938.641
-949.026
-957.585
-964.417
-969.608
-973.262
-975.476
-976.356
-976.005
-974.515
-971.958
-968.428
-963.952
-958.596
-952.32
-945.148
-936.957
-927.727
-917.247
-905.477
-892.136
-877.214
-860.389
-841.761
-821.008
-798.442
-773.749
-747.618
-719.883
-689.901
-659.577
-627.706
-596.989
-565.726
-537.088
-508.99
-484.618
-461.926
-443.632
-428.199
-417.221
-410.01
-406.851
-407.677
-412.051
-419.667
-430.452
-443.302
-458.447
-474.196
-491.114
-507.44
-523.225
-538.855
-551.072
-559.112
-566.139
-573.476
-575.337
-572.755
-565.521
-555.399
-542.584
-529.09
-516.376
-506.717
-502.164
-503.553
-511.736
-526.248
-547.003
-572.431
-601.573
-632.811
-664.845
-696.725
-727.086
-756.6
-782.806
-806.907
-835.932
-827.804
-848.442
-863.498
-876.196
-886.099
-892.11
-893.994
-891.161
-883.116
-868.989
-850.018
-825.278
-796.317
-762.434
-726.22
-687.094
-648.019
-609.67
-576.355
-529.672
-502.095
-478.247
-461.176
-450.811
-448.163
-452.985
-465.315
-485.282
-513.531
-551.295
-597.678
-648.731
-702.337
-757.464
-815.606
-878.808
-947.856
-1018.53
-1084.57
-1142.55
-1191.17
-1232.18
-1266.55
-1295.18
-1317.97
-1334.36
-1344.7
-1349.24
-1348.11
-1341.67
-1329.96
-1313.12
-1291.41
-1265.08
-1234.82
-1201.68
-1166.65
-1130.21
-1092.89
-1056.13
-1021.25
-988.004
-956.318
-926.833
-900.321
-877.454
-858
-842.095
-830.095
-822.274
-818.724
-819.482
-824.864
-834.454
-847.803
-864.482
-883.962
-905.538
-928.239
-950.776
-972.786
-994.644
-1016.95
-1041.1
-1068.44
-1098.68
-1131.74
-1166.67
-1201.25
-1233.87
-1263.99
-1290.39
-1312.39
-1330.07
-1344.22
-1355.19
-1363.56
-1369.75
-1374.04
-1376.56
-1377.52
-1377.48
-1377.05
-1376.89
-1377.84
-1380.46
-1384.91
-1390.48
-1396.77
-1403.53
-1410.45
-1418.15
-1427.61
-1438.58
-1450.82
-1463.13
-1470.48
-1469.97
-1464.92
-1458.58
-1440.94
-1412.89
-1385.2
-1357.35
-1328.35
-1297.8
-1265.59
-1232.05
-1198.33
-1163.95
-1133.51
-1106.65
-1086.26
-1074.28
-1068.23
-1058.53
-996.812
-871.291
-834.477
-857.433
-877.749
-896.089
-912.386
-926.644
-938.917
-949.289
-957.835
-964.654
-969.832
-973.474
-975.676
-976.544
-976.182
-974.682
-972.117
-968.58
-964.099
-958.741
-952.468
-945.303
-937.123
-927.909
-917.452
-905.71
-892.403
-877.519
-860.738
-842.157
-821.453
-798.937
-774.293
-748.208
-720.498
-690.537
-660.228
-628.365
-597.654
-566.39
-537.755
-509.648
-485.266
-462.553
-444.239
-428.78
-417.778
-410.547
-407.371
-408.191
-412.571
-420.198
-431.008
-443.887
-459.076
-474.866
-491.834
-508.172
-524.035
-539.396
-550.853
-560.452
-567.827
-574.762
-576.552
-574.033
-566.843
-556.761
-543.964
-530.477
-517.766
-508.109
-503.563
-504.958
-513.155
-527.682
-548.459
-573.9
-603.04
-634.252
-666.235
-698.035
-728.301
-757.697
-783.747
-807.698
-836.072
-829.089
-849.187
-864.132
-876.771
-886.652
-892.673
-894.578
-891.769
-883.727
-869.642
-850.674
-825.913
-796.903
-762.949
-726.633
-687.38
-648.149
-609.629
-576.245
-529.204
-501.611
-477.621
-460.457
-450.038
-447.328
-452.17
-464.497
-484.463
-512.734
-550.563
-597.295
-648.668
-702.42
-757.436
-815.385
-878.572
-947.991
-1019.23
-1085.63
-1143.7
-1192.19
-1233
-1267.29
-1295.91
-1318.74
-1335.11
-1345.38
-1349.87
-1348.72
-1342.27
-1330.55
-1313.67
-1291.9
-1265.5
-1235.13
-1201.88
-1166.76
-1130.22
-1092.82
-1055.97
-1021.03
-987.787
-956.055
-926.494
-899.924
-877.009
-857.545
-841.635
-829.618
-821.757
-818.175
-818.969
-824.37
-834.019
-847.434
-864.171
-883.723
-905.406
-928.253
-950.936
-972.981
-994.776
-1016.98
-1041
-1068.2
-1098.42
-1131.61
-1166.75
-1201.41
-1234.18
-1264.39
-1290.86
-1312.7
-1330.48
-1344.6
-1355.54
-1363.87
-1370.02
-1374.25
-1376.7
-1377.6
-1377.49
-1376.99
-1376.76
-1377.68
-1380.32
-1384.81
-1390.42
-1396.79
-1403.59
-1410.44
-1418.04
-1427.24
-1437.94
-1450.55
-1463.69
-1471.75
-1471.46
-1466.43
-1459.83
-1441.35
-1412.99
-1385.09
-1357.52
-1328.59
-1298.01
-1265.83
-1232.34
-1198.75
-1164.53
-1134.12
-1107.16
-1087.08
-1075.68
-1071.75
-1061.86
-1003.73
-877.628
-834.969
-857.897
-878.22
-896.559
-912.841
-927.079
-939.332
-949.683
-958.21
-965.009
-970.168
-973.791
-975.976
-976.827
-976.448
-974.933
-972.355
-968.807
-964.32
-958.96
-952.691
-945.535
-937.372
-928.182
-917.759
-906.058
-892.802
-877.976
-861.262
-842.75
-822.122
-799.679
-775.109
-749.093
-721.422
-691.492
-661.207
-629.354
-598.652
-567.386
-538.756
-510.637
-486.239
-463.493
-445.149
-429.653
-418.615
-411.352
-408.152
-408.963
-413.351
-420.995
-431.841
-444.764
-460.019
-475.874
-492.919
-509.306
-525.251
-540.32
-551.667
-562.405
-570.096
-576.65
-578.39
-575.952
-568.829
-558.808
-546.039
-532.562
-519.854
-510.2
-505.665
-507.069
-515.286
-529.838
-550.647
-576.107
-605.243
-636.416
-668.321
-700.002
-730.126
-759.345
-785.163
-808.901
-836.425
-830.872
-850.287
-865.08
-877.633
-887.477
-893.513
-895.448
-892.673
-884.663
-870.64
-851.665
-826.869
-797.776
-763.706
-727.237
-687.801
-648.335
-609.547
-576.111
-528.614
-500.981
-476.805
-459.464
-448.934
-446.16
-450.973
-463.324
-483.268
-511.553
-549.522
-596.753
-648.634
-702.627
-757.405
-815.06
-878.241
-948.224
-1020.35
-1087.31
-1145.51
-1193.76
-1234.28
-1268.44
-1297.03
-1319.89
-1336.28
-1346.45
-1350.85
-1349.66
-1343.18
-1331.46
-1314.55
-1292.72
-1266.23
-1235.69
-1202.27
-1167.01
-1130.36
-1092.84
-1055.81
-1020.73
-987.467
-955.707
-926.085
-899.443
-876.456
-856.964
-841.019
-828.965
-821.051
-817.404
-818.254
-823.695
-833.401
-846.884
-863.733
-883.427
-905.294
-928.344
-951.217
-973.308
-994.981
-1017.03
-1040.86
-1067.89
-1098.1
-1131.5
-1166.88
-1201.69
-1234.68
-1265.03
-1291.54
-1313.37
-1331.15
-1345.2
-1356.09
-1364.35
-1370.42
-1374.58
-1376.98
-1377.79
-1377.56
-1376.94
-1376.61
-1377.49
-1380.17
-1384.73
-1390.41
-1396.81
-1403.62
-1410.29
-1417.52
-1426.35
-1437.5
-1450.99
-1465.87
-1474.41
-1473.66
-1468.34
-1461.53
-1442.79
-1413.61
-1385.15
-1357.63
-1328.9
-1298.33
-1266.19
-1232.77
-1199.34
-1165.29
-1134.85
-1107.79
-1088.02
-1077.61
-1075.81
-1067.85
-1011.44
-884.98
-835.627
-858.513
-878.847
-897.185
-913.447
-927.659
-939.885
-950.209
-958.709
-965.482
-970.616
-974.215
-976.375
-977.203
-976.803
-975.267
-972.672
-969.11
-964.615
-959.252
-952.987
-945.843
-937.703
-928.545
-918.167
-906.521
-893.334
-878.585
-861.959
-843.541
-823.013
-800.67
-776.198
-750.276
-722.656
-692.767
-662.513
-630.675
-599.986
-568.717
-540.093
-511.957
-487.539
-464.75
-446.364
-430.819
-419.731
-412.426
-409.193
-409.993
-414.391
-422.058
-432.953
-445.934
-461.276
-477.218
-494.371
-510.845
-526.898
-541.823
-553.562
-564.758
-572.787
-579.114
-580.849
-578.514
-571.483
-561.544
-548.811
-535.348
-522.645
-512.995
-508.472
-509.888
-518.133
-532.716
-553.57
-579.054
-608.186
-639.307
-671.108
-702.629
-732.562
-761.546
-787.059
-810.531
-837.074
-833.07
-851.73
-866.336
-878.781
-888.581
-894.632
-896.609
-893.891
-885.941
-871.984
-853.003
-828.17
-798.957
-764.717
-728.042
-688.355
-648.567
-609.43
-575.888
-527.874
-500.19
-475.746
-458.142
-447.449
-444.611
-449.428
-461.796
-481.688
-510.009
-548.12
-596.046
-648.637
-702.951
-757.412
-814.598
-877.714
-948.465
-1021.85
-1089.66
-1148.01
-1195.87
-1235.91
-1269.89
-1298.46
-1321.39
-1337.81
-1347.91
-1352.19
-1350.94
-1344.42
-1332.67
-1315.68
-1293.78
-1267.19
-1236.45
-1202.79
-1167.33
-1130.51
-1092.84
-1055.6
-1020.36
-987.079
-955.287
-925.549
-898.785
-875.698
-856.173
-840.19
-828.091
-820.106
-816.438
-817.3
-822.762
-832.548
-846.167
-863.183
-883.046
-905.108
-928.419
-951.532
-973.697
-995.288
-1017.14
-1040.68
-1067.44
-1097.67
-1131.25
-1167
-1202.09
-1235.35
-1265.88
-1292.45
-1314.35
-1332.08
-1346.06
-1356.88
-1365.05
-1371.04
-1375.11
-1377.36
-1378.08
-1377.7
-1376.91
-1376.43
-1377.27
-1380.01
-1384.62
-1390.34
-1396.78
-1403.51
-1409.64
-1416.39
-1425.66
-1438.01
-1452.49
-1467.77
-1477.31
-1476.46
-1470.59
-1462.94
-1443.3
-1414.48
-1385.63
-1358.13
-1329.35
-1298.82
-1266.69
-1233.41
-1200.13
-1166.27
-1135.72
-1108.59
-1089.21
-1079.9
-1081.59
-1075.42
-1019.71
-891.909
-836.454
-859.28
-879.63
-897.967
-914.203
-928.383
-940.575
-950.865
-959.332
-966.074
-971.176
-974.744
-976.875
-977.674
-977.246
-975.685
-973.068
-969.489
-964.983
-959.615
-953.356
-946.228
-938.116
-928.998
-918.676
-907.099
-893.998
-879.345
-862.83
-844.529
-824.128
-801.91
-777.561
-751.756
-724.2
-694.364
-664.15
-632.33
-601.655
-570.384
-541.769
-513.611
-489.167
-466.323
-447.886
-432.278
-421.129
-413.77
-410.496
-411.28
-415.692
-423.388
-434.343
-447.396
-462.848
-478.902
-496.192
-512.793
-528.991
-543.917
-555.949
-567.602
-575.946
-582.156
-583.929
-581.721
-574.808
-564.973
-552.287
-538.842
-526.145
-516.499
-511.992
-513.422
-521.7
-536.323
-557.232
-582.748
-611.874
-642.929
-674.6
-705.919
-735.613
-764.304
-789.442
-812.602
-838.071
-835.626
-853.501
-867.892
-880.207
-889.957
-896.039
-898.067
-895.425
-887.542
-873.651
-854.663
-829.778
-800.429
-766.021
-729.075
-689.038
-648.861
-609.314
-575.523
-527.086
-499.208
-474.357
-456.519
-445.618
-442.714
-447.531
-459.845
-479.664
-508.032
-546.385
-595.18
-648.719
-703.436
-757.399
-813.936
-876.981
-948.719
-1023.74
-1092.63
-1151.14
-1198.47
-1237.93
-1271.68
-1300.24
-1323.24
-1339.68
-1349.69
-1353.83
-1352.49
-1345.93
-1334.15
-1317.08
-1295.05
-1268.32
-1237.33
-1203.38
-1167.68
-1130.67
-1092.8
-1055.32
-1019.85
-986.53
-954.71
-924.832
-897.912
-874.7
-855.143
-839.113
-826.951
-818.891
-815.212
-816.081
-821.582
-831.462
-845.225
-862.443
-882.513
-904.835
-928.494
-951.941
-974.233
-995.701
-1017.26
-1040.44
-1066.9
-1097.13
-1130.89
-1167.07
-1202.58
-1236.21
-1266.95
-1293.62
-1315.58
-1333.23
-1347.09
-1357.84
-1365.9
-1371.75
-1375.68
-1377.76
-1378.39
-1377.88
-1376.87
-1376.23
-1376.99
-1379.77
-1384.33
-1389.79
-1395.94
-1402.33
-1408.36
-1415.43
-1425.47
-1438.91
-1453.48
-1470.09
-1481.23
-1480.29
-1473.43
-1464.33
-1443.31
-1414.89
-1386.11
-1358.68
-1330.02
-1299.54
-1267.51
-1234.39
-1201.19
-1167.53
-1136.7
-1109.56
-1090.59
-1082.72
-1088.18
-1084.77
-1029.07
-897.824
-837.451
-860.194
-880.573
-898.906
-915.11
-929.251
-941.401
-951.652
-960.08
-966.783
-971.847
-975.378
-977.473
-978.238
-977.778
-976.187
-973.544
-969.943
-965.424
-960.051
-953.799
-946.688
-938.61
-929.54
-919.286
-907.791
-894.792
-880.255
-863.873
-845.715
-825.465
-803.399
-779.2
-753.536
-726.057
-696.284
-666.119
-634.32
-603.662
-572.388
-543.785
-515.603
-491.127
-468.215
-449.715
-434.032
-422.809
-415.384
-412.059
-412.826
-417.254
-424.984
-436.011
-449.151
-464.735
-480.924
-498.383
-515.149
-531.539
-546.57
-558.88
-570.971
-579.592
-585.774
-587.631
-585.578
-578.811
-569.103
-556.474
-543.051
-530.361
-520.719
-516.23
-517.675
-525.993
-540.664
-561.64
-587.194
-616.314
-647.288
-678.8
-709.875
-739.281
-767.621
-792.316
-815.125
-839.448
-838.506
-855.589
-869.741
-881.91
-891.602
-897.721
-899.816
-897.274
-889.473
-875.662
-856.664
-831.711
-802.222
-767.622
-730.365
-689.928
-649.275
-609.152
-574.893
-526.322
-498.016
-472.688
-454.499
-443.416
-440.43
-445.21
-457.498
-477.229
-505.634
-544.218
-594.102
-648.875
-704.06
-757.368
-813.022
-875.964
-948.943
-1026.03
-1096.29
-1154.98
-1201.6
-1240.31
-1273.78
-1302.34
-1325.49
-1341.96
-1351.8
-1355.77
-1354.33
-1347.73
-1335.91
-1318.74
-1296.62
-1269.73
-1238.44
-1204.08
-1168.07
-1130.85
-1092.75
-1054.97
-1019.22
-985.83
-953.974
-923.95
-896.866
-873.506
-853.883
-837.775
-825.563
-817.433
-813.731
-814.609
-820.153
-830.126
-844.053
-861.518
-881.881
-904.548
-928.615
-952.468
-974.935
-996.209
-1017.4
-1040.13
-1066.23
-1096.43
-1130.45
-1167.09
-1203.16
-1237.26
-1268.3
-1295.1
-1317.05
-1334.59
-1348.33
-1358.98
-1366.9
-1372.57
-1376.32
-1378.25
-1378.72
-1378.07
-1376.78
-1375.95
-1376.63
-1379.29
-1383.5
-1388.68
-1395.22
-1401.87
-1407.97
-1415.09
-1426.09
-1439.71
-1454.6
-1473.39
-1486.7
-1484.8
-1477.13
-1465.78
-1442.85
-1414.84
-1386.33
-1359.27
-1330.87
-1300.5
-1268.6
-1235.66
-1202.61
-1168.96
-1137.84
-1110.69
-1092.06
-1085.7
-1093.97
-1095.37
-1036.98
-902.135
-838.622
-861.248
-881.678
-900.001
-916.167
-930.262
-942.364
-952.568
-960.95
-967.609
-972.63
-976.118
-978.172
-978.896
-978.398
-976.771
-974.098
-970.473
-965.938
-960.559
-954.314
-947.224
-939.185
-930.17
-919.994
-908.596
-895.717
-881.316
-865.09
-847.097
-827.027
-805.139
-781.115
-755.618
-728.229
-698.531
-668.422
-636.649
-606.01
-574.733
-546.145
-517.936
-493.421
-470.429
-451.855
-436.083
-424.772
-417.269
-413.885
-414.63
-419.076
-426.848
-437.958
-451.2
-466.937
-483.286
-500.946
-517.916
-534.543
-549.776
-562.38
-574.871
-583.746
-589.969
-591.956
-590.09
-583.498
-573.942
-561.382
-547.985
-535.302
-525.666
-521.194
-522.656
-531.02
-545.746
-566.801
-592.4
-621.512
-652.391
-683.715
-714.502
-743.571
-771.5
-795.688
-818.113
-841.221
-841.69
-857.986
-871.878
-883.886
-893.514
-899.679
-901.854
-899.438
-891.735
-878.003
-858.992
-833.998
-804.372
-769.526
-731.879
-690.979
-649.759
-608.95
-573.94
-525.698
-496.66
-470.72
-452.134
-440.808
-437.761
-442.505
-454.765
-474.38
-502.832
-541.624
-592.791
-649.123
-704.878
-757.412
-811.911
-874.67
-949.135
-1028.81
-1100.72
-1159.53
-1205.25
-1243.01
-1276.19
-1304.82
-1328.14
-1344.66
-1354.32
-1358.03
-1356.44
-1349.81
-1337.99
-1320.76
-1298.48
-1271.4
-1239.76
-1204.93
-1168.54
-1131.03
-1092.68
-1054.58
-1018.49
-985.004
-953.162
-922.968
-895.676
-872.136
-852.45
-836.279
-823.957
-815.734
-811.982
-812.853
-818.454
-828.576
-842.718
-860.464
-881.156
-904.212
-928.771
-953.118
-975.763
-996.843
-1017.58
-1039.78
-1065.43
-1095.57
-1129.91
-1167.06
-1203.84
-1238.49
-1269.87
-1296.8
-1318.75
-1336.19
-1349.79
-1360.35
-1368.04
-1373.46
-1377
-1378.77
-1379.1
-1378.25
-1376.69
-1375.64
-1376.13
-1378.63
-1382.84
-1388.76
-1395.26
-1401.79
-1408.18
-1415.43
-1426.4
-1440.71
-1457.08
-1477.14
-1493.27
-1490.68
-1482.63
-1467.29
-1441.85
-1414.33
-1386.47
-1359.94
-1331.97
-1301.78
-1270.08
-1237.37
-1204.41
-1170.69
-1139.18
-1111.93
-1093.56
-1088.61
-1099.07
-1104.84
-1043.6
-904.955
-839.97
-862.439
-882.948
-901.255
-917.373
-931.414
-943.462
-953.614
-961.944
-968.552
-973.523
-976.963
-978.969
-979.649
-979.107
-977.44
-974.731
-971.077
-966.524
-961.139
-954.902
-947.834
-939.839
-930.888
-920.8
-909.512
-896.77
-882.525
-866.478
-848.676
-828.812
-807.129
-783.309
-758.004
-730.719
-701.106
-671.064
-639.32
-608.701
-577.421
-548.852
-520.613
-496.052
-472.968
-454.308
-438.434
-427.02
-419.427
-415.973
-416.693
-421.161
-428.98
-440.183
-453.541
-469.453
-485.988
-503.881
-521.094
-538.007
-553.533
-566.526
-579.315
-588.423
-594.746
-596.909
-595.264
-588.878
-579.5
-567.021
-553.653
-540.978
-531.348
-526.894
-528.373
-536.787
-551.577
-572.724
-598.374
-627.478
-658.245
-689.352
-719.805
-748.487
-775.947
-799.564
-821.573
-843.396
-845.165
-860.684
-874.295
-886.13
-895.692
-901.915
-904.187
-901.92
-894.328
-880.695
-861.706
-836.678
-806.88
-771.753
-733.694
-692.222
-650.35
-608.715
-572.626
-525.158
-495.099
-468.473
-449.416
-437.787
-434.646
-439.403
-451.645
-471.108
-499.57
-538.629
-591.193
-649.531
-706.037
-757.56
-810.495
-873.013
-949.284
-1032.14
-1106.08
-1164.95
-1209.46
-1245.97
-1278.85
-1307.66
-1331.23
-1347.79
-1357.23
-1360.65
-1358.91
-1352.19
-1340.35
-1323.05
-1300.62
-1273.35
-1241.31
-1205.91
-1169.07
-1131.25
-1092.57
-1054.12
-1017.65
-984.09
-952.237
-921.854
-894.321
-870.571
-850.841
-834.566
-822.11
-813.775
-809.977
-810.883
-816.537
-826.814
-841.203
-859.271
-880.334
-903.845
-928.966
-953.855
-976.756
-997.632
-1017.82
-1039.35
-1064.49
-1094.51
-1129.2
-1167.01
-1204.6
-1239.91
-1271.67
-1298.78
-1320.76
-1338.09
-1351.57
-1361.86
-1369.25
-1374.39
-1377.68
-1379.29
-1379.48
-1378.42
-1376.59
-1375.18
-1375.55
-1378.53
-1383.51
-1389.48
-1396.01
-1402.39
-1408.27
-1415.2
-1426.6
-1442.03
-1460.1
-1481.77
-1500.7
-1499.23
-1489.8
-1468.74
-1440.08
-1413.31
-1386.53
-1360.69
-1333.31
-1303.42
-1271.99
-1239.57
-1206.59
-1172.65
-1140.75
-1113.27
-1094.89
-1091.04
-1103.5
-1112.95
-1049.12
-905.386
-841.501
-863.763
-884.387
-902.666
-918.727
-932.707
-944.694
-954.788
-963.06
-969.612
-974.527
-977.913
-979.866
-980.494
-979.904
-978.191
-975.443
-971.757
-967.183
-961.789
-955.561
-948.518
-940.572
-931.69
-921.703
-910.539
-897.951
-883.881
-868.036
-850.45
-830.82
-809.373
-785.784
-760.697
-733.528
-704.013
-674.047
-642.336
-611.738
-580.455
-551.91
-523.641
-499.025
-475.833
-457.075
-441.086
-429.555
-421.858
-418.324
-419.016
-423.508
-431.38
-442.688
-456.176
-472.283
-489.03
-507.189
-524.683
-541.931
-557.836
-571.368
-584.311
-593.635
-600.109
-602.494
-601.106
-594.962
-585.788
-573.403
-560.069
-547.402
-537.778
-533.34
-534.835
-543.305
-558.166
-579.418
-605.127
-634.221
-664.861
-695.718
-725.792
-754.033
-780.965
-803.949
-825.514
-845.975
-848.925
-863.676
-876.985
-888.636
-898.132
-904.426
-906.813
-904.72
-897.263
-883.764
-864.792
-839.717
-809.685
-774.241
-735.718
-693.684
-651.042
-608.491
-570.961
-524.75
-493.359
-465.899
-446.318
-434.38
-431.17
-435.946
-448.159
-467.402
-495.795
-535.175
-589.402
-650.248
-707.587
-757.842
-808.696
-870.884
-949.318
-1036.06
-1112.46
-1171.29
-1214.26
-1249.22
-1281.73
-1310.78
-1334.7
-1351.35
-1360.53
-1363.6
-1361.63
-1354.84
-1343
-1325.63
-1303
-1275.49
-1243.05
-1207.03
-1169.65
-1131.49
-1092.47
-1053.61
-1016.7
-983.015
-951.219
-920.635
-892.824
-868.832
-848.998
-832.613
-820.019
-811.599
-807.761
-808.674
-814.385
-824.823
-839.469
-857.897
-879.406
-903.436
-929.168
-954.705
-977.938
-998.601
-1018.12
-1038.87
-1063.38
-1093.24
-1128.33
-1166.94
-1205.47
-1241.54
-1273.75
-1301.08
-1323.11
-1340.33
-1353.64
-1363.57
-1370.56
-1375.38
-1378.35
-1379.79
-1379.83
-1378.58
-1376.5
-1375.03
-1375.41
-1378.42
-1383.24
-1389.08
-1395.53
-1401.85
-1407.7
-1414.58
-1426.89
-1443.75
-1463.18
-1487.23
-1509.48
-1510.66
-1498.77
-1470.48
-1437.86
-1411.99
-1386.59
-1361.67
-1334.94
-1305.41
-1274.34
-1242.2
-1209.09
-1174.86
-1142.46
-1114.51
-1096.06
-1092.72
-1106.5
-1117.41
-1051.78
-904.339
-843.222
-865.223
-886
-904.235
-920.229
-934.14
-946.06
-956.089
-964.298
-970.787
-975.642
-978.968
-980.863
-981.434
-980.79
-979.025
-976.233
-972.511
-967.914
-962.51
-956.291
-949.275
-941.382
-932.578
-922.701
-911.674
-899.258
-885.384
-869.765
-852.42
-833.053
-811.869
-788.542
-763.701
-736.661
-707.256
-677.377
-645.703
-615.123
-583.839
-555.325
-527.024
-502.344
-479.03
-460.161
-444.043
-432.379
-424.564
-420.939
-421.598
-426.118
-434.05
-445.472
-459.104
-475.426
-492.413
-510.87
-528.681
-546.315
-562.681
-577.03
-589.859
-599.392
-606.065
-608.719
-607.626
-601.76
-592.82
-580.543
-567.247
-554.589
-544.971
-540.546
-542.055
-550.585
-565.523
-586.896
-612.671
-641.755
-672.249
-702.823
-732.467
-760.216
-786.557
-808.848
-829.944
-848.952
-852.966
-866.957
-879.942
-891.4
-900.83
-907.209
-909.732
-907.862
-900.582
-887.229
-868.274
-843.113
-812.843
-777.052
-738.01
-695.336
-651.909
-608.321
-569.317
-524.085
-491.319
-462.995
-442.878
-430.586
-427.312
-432.094
-444.272
-463.238
-491.552
-531.315
-587.323
-651.342
-709.642
-758.366
-806.445
-868.189
-949.212
-1040.7
-1120.06
-1178.67
-1219.64
-1252.63
-1284.84
-1314.23
-1338.56
-1355.32
-1364.2
-1366.84
-1364.63
-1357.75
-1345.91
-1328.5
-1305.66
-1277.86
-1244.97
-1208.29
-1170.3
-1131.73
-1092.35
-1053.03
-1015.64
-981.793
-950.042
-919.286
-891.17
-866.87
-846.928
-830.44
-817.684
-809.158
-805.286
-806.223
-811.979
-822.568
-837.491
-856.315
-878.328
-902.951
-929.388
-955.682
-979.329
-999.793
-1018.54
-1038.31
-1062.07
-1091.71
-1127.24
-1166.82
-1206.44
-1243.38
-1276.13
-1303.73
-1325.81
-1342.91
-1355.98
-1365.51
-1372.01
-1376.35
-1379.01
-1380.27
-1380.18
-1378.81
-1376.63
-1375.03
-1375.23
-1378.12
-1382.72
-1388.32
-1394.49
-1400.57
-1406.49
-1413.63
-1427.19
-1445.91
-1467.05
-1493.15
-1519.86
-1525.81
-1509.8
-1473.08
-1435.64
-1410.26
-1386.63
-1362.62
-1336.71
-1307.74
-1277.12
-1245.21
-1211.95
-1177.37
-1144.31
-1115.81
-1097.01
-1093.59
-1107.65
-1118.53
-1051.89
-900.826
-845.14
-866.871
-887.794
-905.96
-921.876
-935.712
-947.559
-957.517
-965.657
-972.078
-976.866
-980.127
-981.958
-982.467
-981.763
-979.943
-977.102
-973.339
-968.717
-963.301
-957.092
-950.104
-942.268
-933.548
-923.792
-912.916
-900.69
-887.031
-871.662
-854.585
-835.51
-814.621
-791.586
-767.019
-740.121
-710.839
-681.057
-649.424
-618.861
-587.576
-559.102
-530.771
-506.014
-482.561
-463.568
-447.308
-435.495
-427.545
-423.817
-424.441
-428.991
-436.992
-448.536
-462.326
-478.881
-496.135
-514.922
-533.089
-551.157
-568.052
-583.718
-595.946
-605.703
-612.62
-615.592
-614.835
-609.286
-600.61
-588.457
-575.204
-562.554
-552.941
-548.524
-550.046
-558.638
-573.662
-595.169
-621.017
-650.091
-680.421
-710.676
-739.839
-767.039
-792.728
-814.267
-834.871
-852.322
-857.285
-870.523
-883.16
-894.416
-903.782
-910.273
-912.973
-911.352
-904.262
-891.063
-872.122
-846.896
-816.357
-780.187
-740.561
-697.171
-652.844
-608.169
-567.601
-523.338
-489.081
-459.773
-438.967
-426.331
-422.977
-427.883
-440.029
-458.695
-486.815
-527.007
-584.881
-652.875
-712.283
-759.127
-803.605
-864.799
-948.884
-1046.08
-1129.09
-1187.25
-1225.47
-1256.13
-1288.1
-1318.04
-1342.9
-1359.73
-1368.21
-1370.36
-1367.87
-1360.93
-1349.14
-1331.73
-1308.67
-1280.54
-1247.17
-1209.73
-1170.98
-1131.95
-1092.21
-1052.42
-1014.46
-980.394
-948.713
-917.797
-889.351
-864.705
-844.616
-828.017
-815.094
-806.459
-802.545
-803.501
-809.306
-820.043
-835.267
-854.534
-877.103
-902.409
-929.64
-956.793
-980.963
-1001.25
-1019.08
-1037.67
-1060.51
-1089.84
-1125.87
-1166.57
-1207.49
-1245.48
-1278.85
-1306.74
-1328.87
-1345.84
-1358.62
-1367.71
-1373.65
-1377.48
-1379.74
-1380.74
-1380.53
-1379.01
-1376.74
-1375.01
-1375.04
-1377.79
-1382.06
-1387.27
-1392.99
-1398.74
-1404.83
-1412.38
-1427.47
-1448.23
-1471.49
-1499.41
-1531.64
-1544.97
-1522.63
-1477.14
-1433.09
-1408.04
-1386.74
-1363.66
-1338.78
-1310.47
-1280.33
-1248.62
-1215.13
-1180.16
-1146.31
-1116.99
-1097.38
-1093.49
-1106.95
-1117.24
-1048.41
-895.156
-847.263
-868.985
-889.774
-907.841
-923.667
-937.42
-949.189
-959.072
-967.136
-973.484
-978.2
-981.39
-983.152
-983.594
-982.826
-980.944
-978.049
-974.242
-969.591
-964.163
-957.962
-951.005
-943.229
-934.599
-924.974
-914.263
-902.244
-888.821
-873.726
-856.944
-838.192
-817.63
-794.92
-770.655
-743.91
-714.765
-685.094
-653.507
-622.955
-591.671
-563.247
-534.889
-510.04
-486.431
-467.301
-450.885
-438.905
-430.804
-426.961
-427.545
-432.13
-440.207
-451.881
-465.842
-482.647
-500.198
-519.347
-537.905
-556.453
-573.906
-590.677
-602.542
-612.577
-619.783
-623.121
-622.742
-617.554
-609.176
-597.164
-583.958
-571.315
-561.708
-557.291
-558.821
-567.478
-582.594
-604.252
-630.182
-659.245
-689.39
-719.287
-747.915
-774.509
-799.48
-820.21
-840.303
-856.074
-861.88
-874.368
-886.631
-897.679
-906.992
-913.614
-916.515
-915.176
-908.307
-895.289
-876.376
-851.073
-820.257
-783.681
-743.425
-699.255
-653.958
-608.096
-566.139
-522.144
-486.526
-456.245
-434.776
-421.704
-418.373
-423.261
-435.433
-453.706
-481.518
-522.216
-582.018
-655.021
-715.761
-760.157
-800.008
-860.503
-948.236
-1052.38
-1139.95
-1197.33
-1231.41
-1259.59
-1291.51
-1322.2
-1347.75
-1364.67
-1372.67
-1374.23
-1371.41
-1364.39
-1352.68
-1335.32
-1312.04
-1283.51
-1249.56
-1211.31
-1171.69
-1132.17
-1092.06
-1051.77
-1013.2
-978.843
-947.207
-916.185
-887.392
-862.331
-842.079
-825.407
-812.265
-803.466
-799.54
-800.522
-806.354
-817.261
-832.831
-852.591
-875.801
-901.813
-929.907
-958.049
-982.883
-1003.01
-1019.77
-1036.92
-1058.64
-1087.57
-1124.13
-1166.12
-1208.68
-1247.87
-1281.91
-1310.12
-1332.3
-1349.14
-1361.6
-1370.2
-1375.57
-1378.79
-1380.51
-1381.26
-1380.76
-1379.14
-1376.89
-1375.09
-1374.91
-1377.42
-1381.23
-1385.91
-1391.02
-1396.33
-1402.71
-1410.69
-1427.55
-1450.61
-1475.95
-1505.68
-1544.41
-1565.81
-1538.22
-1483.87
-1429.32
-1405.61
-1387.01
-1364.94
-1341.14
-1313.58
-1283.91
-1252.35
-1218.61
-1183.12
-1148.22
-1117.85
-1097.1
-1092.09
-1104.09
-1112.87
-1041.1
-889.278
-849.584
-871.383
-891.933
-909.875
-925.601
-939.264
-950.949
-960.751
-968.735
-975.004
-979.643
-982.757
-984.445
-984.815
-983.976
-982.028
-979.074
-975.218
-970.535
-965.093
-958.902
-951.975
-944.263
-935.729
-926.246
-915.712
-903.918
-890.752
-875.956
-859.496
-841.097
-820.897
-798.546
-774.615
-748.034
-719.04
-689.494
-657.958
-627.407
-596.128
-567.766
-539.388
-514.43
-490.645
-471.363
-454.778
-442.611
-434.342
-430.37
-430.911
-435.535
-443.696
-455.506
-469.652
-486.721
-504.601
-524.142
-543.127
-562.2
-580.217
-597.531
-609.627
-620.022
-627.563
-631.319
-631.362
-626.582
-618.537
-606.686
-593.531
-580.893
-571.29
-566.865
-568.396
-577.12
-592.335
-614.161
-640.179
-669.232
-699.172
-728.671
-756.705
-782.631
-806.816
-826.682
-846.251
-860.195
-866.75
-878.49
-890.35
-901.181
-910.448
-917.227
-920.362
-919.349
-912.735
-899.923
-881.047
-855.682
-824.55
-787.536
-746.587
-701.571
-655.21
-608.138
-564.801
-520.67
-483.732
-452.349
-430.098
-416.568
-413.12
-418.341
-430.547
-448.312
-475.685
-516.862
-578.712
-657.989
-720.352
-761.442
-795.525
-855.147
-947.216
-1059.75
-1152.91
-1209.06
-1237.56
-1262.88
-1294.95
-1326.72
-1353.14
-1370.14
-1377.53
-1378.41
-1375.23
-1368.17
-1356.52
-1339.23
-1315.72
-1286.7
-1252.16
-1213.05
-1172.44
-1132.32
-1091.89
-1051.07
-1011.84
-977.161
-945.603
-914.488
-885.304
-859.781
-839.334
-822.595
-809.2
-800.218
-796.264
-797.232
-803.163
-814.24
-830.158
-850.461
-874.335
-901.134
-930.198
-959.492
-985.12
-1005.15
-1020.66
-1036.05
-1056.41
-1084.79
-1121.99
-1165.5
-1209.98
-1250.55
-1285.37
-1313.88
-1336.11
-1352.81
-1364.92
-1372.93
-1377.71
-1380.26
-1381.45
-1381.79
-1381
-1379.24
-1377.05
-1375.2
-1374.82
-1377.04
-1380.24
-1384.27
-1388.61
-1393.31
-1399.72
-1408.82
-1427.37
-1453.02
-1480.28
-1511.89
-1557.35
-1587.16
-1557.95
-1490.74
-1424.28
-1403.59
-1387.33
-1366.25
-1343.59
-1316.97
-1287.65
-1256.4
-1222.26
-1186.11
-1150.08
-1118.43
-1096.2
-1089.58
-1099.46
-1104.98
-1030.24
-882.865
-852.09
-874.103
-894.259
-912.057
-927.673
-941.242
-952.838
-962.554
-970.453
-976.638
-981.195
-984.228
-985.837
-986.129
-985.215
-983.195
-980.177
-976.269
-971.551
-966.093
-959.91
-953.013
-945.368
-936.937
-927.605
-917.262
-905.71
-892.822
-878.35
-862.24
-844.228
-824.424
-802.469
-778.905
-752.497
-723.669
-694.263
-662.784
-632.22
-600.952
-572.668
-544.279
-519.188
-495.206
-475.757
-458.992
-446.616
-438.16
-434.045
-434.539
-439.207
-447.464
-459.414
-473.757
-491.1
-509.344
-529.307
-548.753
-568.397
-586.986
-604.772
-617.214
-628.051
-635.972
-640.196
-640.708
-636.388
-628.714
-617.045
-603.946
-591.311
-581.711
-577.264
-578.79
-587.579
-602.9
-624.916
-651.03
-680.073
-709.78
-738.835
-766.214
-791.41
-814.74
-833.693
-852.731
-864.669
-871.887
-882.881
-894.304
-904.912
-914.146
-921.112
-924.523
-923.879
-917.561
-904.985
-886.155
-860.714
-829.266
-791.792
-750.098
-704.178
-656.687
-608.295
-563.592
-518.871
-480.624
-448.137
-425.127
-411.118
-407.78
-413.057
-425.296
-442.498
-469.156
-510.909
-574.903
-661.967
-726.3
-763.102
-789.975
-848.518
-945.73
-1068.34