/*--------------------------------*- C++ -*----------------------------------*\
| =========                 |                                                 |
| \\      /  F ield         | OpenFOAM: The Open Source CFD Toolbox           |
|  \\    /   O peration     | Version:  3.0.1                                 |
|   \\  /    A nd           | Web:      www.OpenFOAM.org                      |
|    \\/     M anipulation  |                                                 |
\*---------------------------------------------------------------------------*/
FoamFile
{
    version     2.0;
    format      ascii;
    class       volVectorField;
    location    "67.6";
    object      U;
}
// * * * * * * * * * * * * * * * * * * * * * * * * * * * * * * * * * * * * * //

dimensions      [0 1 -1 0 0 0 0];

internalField   nonuniform List<vector> 
21420
(
(-0.158596 -0.000129967 0)
(-0.157115 -0.000191975 0)
(-0.154862 -0.000254958 0)
(-0.151963 -0.000319655 0)
(-0.148398 -0.000387681 0)
(-0.14414 -0.000457304 0)
(-0.139161 -0.000531886 0)
(-0.133428 -0.000607513 0)
(-0.126905 -0.000685933 0)
(-0.119559 -0.000772229 0)
(-0.111357 -0.000856823 0)
(-0.102266 -0.000943256 0)
(-0.0922602 -0.00104071 0)
(-0.0813198 -0.00113011 0)
(-0.0694345 -0.00123212 0)
(-0.0566076 -0.00132025 0)
(-0.0428555 -0.00140378 0)
(-0.0282024 -0.00150244 0)
(-0.012649 -0.00157215 0)
(0.00359661 -0.00164085 0)
(0.0204623 -0.00171692 0)
(0.0379475 -0.00175309 0)
(0.0558269 -0.00177139 0)
(0.0739339 -0.00180643 0)
(0.0920785 -0.00178693 0)
(0.110047 -0.00177945 0)
(0.127619 -0.00171651 0)
(0.144546 -0.00162948 0)
(0.160582 -0.00154586 0)
(0.175501 -0.00141522 0)
(0.189064 -0.00126407 0)
(0.201049 -0.00110544 0)
(0.211265 -0.00091731 0)
(0.21954 -0.000719538 0)
(0.22574 -0.000506026 0)
(0.229783 -0.000283986 0)
(0.231593 -6.15101e-05 0)
(0.23119 0.000160275 0)
(0.228418 0.000391253 0)
(0.22343 0.000598711 0)
(0.216365 0.000805619 0)
(0.207327 0.000980624 0)
(0.196499 0.00115375 0)
(0.184044 0.00131486 0)
(0.170161 0.00142689 0)
(0.155094 0.00153977 0)
(0.139042 0.00163495 0)
(0.122259 0.00167881 0)
(0.104923 0.00172501 0)
(0.0872496 0.00175592 0)
(0.0695445 0.00173718 0)
(0.0518069 0.00172859 0)
(0.034294 0.00168669 0)
(0.0172215 0.00164851 0)
(0.00116127 0.00159712 0)
(-0.0140921 0.00152671 0)
(-0.0290676 0.00145856 0)
(-0.0433275 0.0013819 0)
(-0.0568002 0.00129634 0)
(-0.069455 0.00121404 0)
(-0.0812675 0.00112509 0)
(-0.0922456 0.00104182 0)
(-0.102361 0.000955591 0)
(-0.111619 0.000868808 0)
(-0.120065 0.000789324 0)
(-0.127657 0.000705593 0)
(-0.134419 0.000624632 0)
(-0.14037 0.000547295 0)
(-0.145507 0.000465825 0)
(-0.149914 0.000393775 0)
(-0.153577 0.000316683 0)
(-0.156403 0.000234996 0)
(-0.158459 0.000170871 0)
(-0.159788 9.3839e-05 0)
(-0.160371 1.80652e-05 0)
(-0.16019 -5.25204e-05 0)
(-0.159275 -0.00013773 0)
(-0.157535 -0.000208528 0)
(-0.155105 -0.000282296 0)
(-0.151909 -0.000364476 0)
(-0.147974 -0.000438218 0)
(-0.143217 -0.000509358 0)
(-0.137648 -0.000584846 0)
(-0.131379 -0.000662746 0)
(-0.124296 -0.000739916 0)
(-0.11644 -0.00082369 0)
(-0.107782 -0.000897572 0)
(-0.0983419 -0.00098749 0)
(-0.0879644 -0.00106761 0)
(-0.0766689 -0.00115751 0)
(-0.0645919 -0.00124176 0)
(-0.0516371 -0.00132193 0)
(-0.0378827 -0.00139769 0)
(-0.0234331 -0.00146368 0)
(-0.00832681 -0.00152353 0)
(0.00733801 -0.00157907 0)
(0.0235101 -0.00161892 0)
(0.0400657 -0.00165266 0)
(0.0568586 -0.00167967 0)
(0.0738286 -0.00168815 0)
(0.0908327 -0.00168134 0)
(0.107689 -0.00165993 0)
(0.124242 -0.0016244 0)
(0.140332 -0.00156209 0)
(0.155732 -0.00148541 0)
(0.170205 -0.00138137 0)
(0.183547 -0.00126199 0)
(0.195557 -0.00111491 0)
(0.206004 -0.000948745 0)
(0.214686 -0.000771908 0)
(0.221471 -0.000571359 0)
(0.226183 -0.000362738 0)
(0.228693 -0.000139214 0)
(0.228952 9.08804e-05 0)
(0.226844 0.000328536 0)
(0.222296 0.000560089 0)
(0.215538 0.000782668 0)
(0.206565 0.00099108 0)
(0.195525 0.00119522 0)
(0.182595 0.00137138 0)
(0.168 0.00151919 0)
(0.151983 0.00165367 0)
(0.134791 0.00175392 0)
(0.116697 0.00182957 0)
(0.0979715 0.00188116 0)
(0.0788814 0.00190472 0)
(0.0596674 0.00190342 0)
(0.0405757 0.00189054 0)
(0.0217878 0.00183935 0)
(0.0035162 0.00178572 0)
(-0.0140708 0.00170588 0)
(-0.0308783 0.00161695 0)
(-0.0467483 0.0015336 0)
(-0.0616319 0.00142822 0)
(-0.0755072 0.00132392 0)
(-0.0882555 0.00121169 0)
(-0.0999178 0.00110283 0)
(-0.110478 0.000996753 0)
(-0.119938 0.00088311 0)
(-0.128351 0.000785566 0)
(-0.135734 0.000682514 0)
(-0.142182 0.000593296 0)
(-0.147729 0.000499988 0)
(-0.152391 0.000434346 0)
(-0.1563 0.00034764 0)
(-0.159487 0.000278594 0)
(-0.161941 0.000213301 0)
(-0.16374 0.000145291 0)
(-0.164916 8.7794e-05 0)
(-0.165497 2.02506e-05 0)
(-0.165456 -2.1436e-05 0)
(-0.16484 -9.03802e-05 0)
(-0.163659 -0.000141397 0)
(-0.161925 -0.000200303 0)
(-0.159592 -0.000258968 0)
(-0.156669 -0.000321509 0)
(-0.153065 -0.00038603 0)
(-0.148794 -0.000456341 0)
(-0.143845 -0.000526212 0)
(-0.138141 -0.000601113 0)
(-0.131671 -0.00067863 0)
(-0.12443 -0.000755081 0)
(-0.116388 -0.000840072 0)
(-0.107498 -0.000928127 0)
(-0.09773 -0.00100374 0)
(-0.0871434 -0.00109925 0)
(-0.0756682 -0.00117216 0)
(-0.0633279 -0.0012618 0)
(-0.0501951 -0.00134141 0)
(-0.0362514 -0.00141788 0)
(-0.0215751 -0.00149268 0)
(-0.0061592 -0.00155418 0)
(0.00985106 -0.00161167 0)
(0.0263349 -0.00165822 0)
(0.0431733 -0.00168166 0)
(0.060196 -0.00168622 0)
(0.0771836 -0.00167991 0)
(0.0939718 -0.00165437 0)
(0.110382 -0.00159728 0)
(0.126127 -0.00151681 0)
(0.140935 -0.00141428 0)
(0.154546 -0.00128221 0)
(0.166708 -0.00112901 0)
(0.177212 -0.000949877 0)
(0.185822 -0.000751988 0)
(0.192343 -0.0005363 0)
(0.196601 -0.00030857 0)
(0.19846 -6.73143e-05 0)
(0.197905 0.000180214 0)
(0.194752 0.000433806 0)
(0.189194 0.000663458 0)
(0.18136 0.000882879 0)
(0.171413 0.00109 0)
(0.159561 0.00126566 0)
(0.146021 0.0014191 0)
(0.131006 0.00155106 0)
(0.114787 0.00166545 0)
(0.0976223 0.00174287 0)
(0.0797374 0.00180088 0)
(0.0613901 0.00183069 0)
(0.0428416 0.00184446 0)
(0.0243111 0.0018264 0)
(0.00607067 0.00178894 0)
(-0.0116649 0.00173988 0)
(-0.0287746 0.00166062 0)
(-0.0451112 0.00158052 0)
(-0.0605666 0.00148569 0)
(-0.0750752 0.00139239 0)
(-0.0885846 0.00128809 0)
(-0.101092 0.00118993 0)
(-0.112579 0.00108936 0)
(-0.123072 0.000990248 0)
(-0.132562 0.000897508 0)
(-0.141066 0.000790287 0)
(-0.148628 0.00070983 0)
(-0.155278 0.0006147 0)
(-0.161042 0.000532723 0)
(-0.165998 0.000451908 0)
(-0.17018 0.000374971 0)
(-0.173584 0.000304791 0)
(-0.176311 0.000239994 0)
(-0.178396 0.000174802 0)
(-0.179862 0.000109431 0)
(-0.180677 5.97494e-05 0)
(-0.180927 -2.28547e-06 0)
(-0.180599 -5.95158e-05 0)
(-0.179693 -0.000116741 0)
(-0.178238 -0.000180709 0)
(-0.176138 -0.000228366 0)
(-0.173461 -0.000292574 0)
(-0.170168 -0.000354108 0)
(-0.16626 -0.000422683 0)
(-0.161692 -0.000484303 0)
(-0.156441 -0.000555629 0)
(-0.15047 -0.000623711 0)
(-0.143786 -0.000701936 0)
(-0.136348 -0.000772907 0)
(-0.128131 -0.000856944 0)
(-0.11909 -0.000932255 0)
(-0.109215 -0.00102028 0)
(-0.0985394 -0.00110583 0)
(-0.0869933 -0.00118245 0)
(-0.0746125 -0.00126166 0)
(-0.0614865 -0.00133669 0)
(-0.0476192 -0.00140791 0)
(-0.0331154 -0.00146579 0)
(-0.0180616 -0.00151506 0)
(-0.00254749 -0.00155577 0)
(0.0133312 -0.00159082 0)
(0.0294285 -0.00159985 0)
(0.0455992 -0.00160304 0)
(0.061688 -0.00159142 0)
(0.077543 -0.00155177 0)
(0.0928891 -0.00148976 0)
(0.107484 -0.00140216 0)
(0.121076 -0.00128882 0)
(0.133373 -0.00114341 0)
(0.144106 -0.000982901 0)
(0.15309 -0.000798072 0)
(0.16012 -0.000593766 0)
(0.165044 -0.000378562 0)
(0.167721 -0.000151591 0)
(0.168074 8.27489e-05 0)
(0.166085 0.000318214 0)
(0.161726 0.000547139 0)
(0.155159 0.000765329 0)
(0.146431 0.00096963 0)
(0.135743 0.00115718 0)
(0.123396 0.00130936 0)
(0.109555 0.00144185 0)
(0.0944656 0.00155192 0)
(0.0785817 0.00161635 0)
(0.0619521 0.00166327 0)
(0.0451219 0.0016809 0)
(0.0283925 0.00166481 0)
(0.0117676 0.00162303 0)
(-0.00412692 0.00157818 0)
(-0.019298 0.00150491 0)
(-0.0337935 0.00141451 0)
(-0.0473906 0.0013241 0)
(-0.0600182 0.00122305 0)
(-0.0716621 0.00112573 0)
(-0.0824191 0.00103772 0)
(-0.0922675 0.000945518 0)
(-0.101285 0.00086617 0)
(-0.109629 0.000793173 0)
(-0.117241 0.000718537 0)
(-0.124146 0.000648376 0)
(-0.130378 0.000584661 0)
(-0.135946 0.000515422 0)
(-0.140904 0.000456969 0)
(-0.1452 0.000393719 0)
(-0.148863 0.000334941 0)
(-0.151979 0.000282171 0)
(-0.154516 0.00022607 0)
(-0.156522 0.000173776 0)
(-0.15806 0.00012983 0)
(-0.159116 8.23332e-05 0)
(-0.159719 3.87878e-05 0)
(-0.159913 -9.89626e-08 0)
(-0.159664 -4.51484e-05 0)
(-0.159023 -8.38099e-05 0)
(-0.157936 -0.000128107 0)
(-0.156369 -0.000177366 0)
(-0.154321 -0.00022732 0)
(-0.151713 -0.000284925 0)
(-0.148468 -0.00035342 0)
(-0.144539 -0.000424936 0)
(-0.139832 -0.000509941 0)
(-0.134276 -0.000594034 0)
(-0.12779 -0.000687227 0)
(-0.120288 -0.000796032 0)
(-0.111736 -0.000897189 0)
(-0.102102 -0.00100181 0)
(-0.0913298 -0.00112312 0)
(-0.0794402 -0.00122363 0)
(-0.0664862 -0.00134448 0)
(-0.0524848 -0.00143414 0)
(-0.0375631 -0.00151224 0)
(-0.0218103 -0.00160687 0)
(-0.00536264 -0.0016596 0)
(0.0115878 -0.00169255 0)
(0.0289285 -0.00173932 0)
(0.0464505 -0.00173293 0)
(0.0639194 -0.00173579 0)
(0.0811146 -0.00168556 0)
(0.0977816 -0.00161118 0)
(0.113684 -0.00153972 0)
(0.128603 -0.00142278 0)
(0.14231 -0.00128628 0)
(0.154599 -0.00114507 0)
(0.165293 -0.000974651 0)
(0.174227 -0.000792128 0)
(0.181276 -0.000602177 0)
(0.186351 -0.000400995 0)
(0.1894 -0.000195109 0)
(0.190355 4.2725e-06 0)
(0.189328 0.000204616 0)
(0.186211 0.000402093 0)
(0.181186 0.000590205 0)
(0.174344 0.000768455 0)
(0.165818 0.000921639 0)
(0.155761 0.00107052 0)
(0.144343 0.00118658 0)
(0.131741 0.00130114 0)
(0.118134 0.00140003 0)
(0.103702 0.00145887 0)
(0.0886242 0.00152276 0)
(0.0730649 0.00157119 0)
(0.0571863 0.00157936 0)
(0.0411333 0.00159712 0)
(0.0249866 0.00157682 0)
(0.00874366 0.00156702 0)
(-0.00697022 0.00154969 0)
(-0.0220675 0.00149528 0)
(-0.0369187 0.00145161 0)
(-0.0528955 0.00139726 0)
(-0.15862 -0.00038989 0)
(-0.15714 -0.000575954 0)
(-0.154887 -0.000764871 0)
(-0.15199 -0.000958934 0)
(-0.148425 -0.001163 0)
(-0.144169 -0.00137184 0)
(-0.139191 -0.00159557 0)
(-0.13346 -0.00182243 0)
(-0.126938 -0.00205768 0)
(-0.119593 -0.00231656 0)
(-0.111392 -0.00257035 0)
(-0.102302 -0.00282968 0)
(-0.0922978 -0.00312206 0)
(-0.0813576 -0.00339029 0)
(-0.0694729 -0.00369636 0)
(-0.0566452 -0.00396083 0)
(-0.0428916 -0.00421151 0)
(-0.0282366 -0.00450766 0)
(-0.0126817 -0.00471959 0)
(0.00356789 -0.00492008 0)
(0.0204393 -0.00515119 0)
(0.0379299 -0.00525988 0)
(0.0558158 -0.00531486 0)
(0.0739302 -0.00542011 0)
(0.0920829 -0.00536164 0)
(0.110061 -0.00533933 0)
(0.127642 -0.00515049 0)
(0.144577 -0.00488941 0)
(0.160625 -0.00463859 0)
(0.175552 -0.00424665 0)
(0.189123 -0.00379317 0)
(0.201117 -0.00331681 0)
(0.211339 -0.00275362 0)
(0.219622 -0.00215852 0)
(0.225825 -0.00151711 0)
(0.229873 -0.000851005 0)
(0.231687 -0.000186043 0)
(0.231281 0.000480614 0)
(0.228501 0.00117397 0)
(0.223515 0.00179616 0)
(0.216446 0.00241724 0)
(0.207402 0.00294243 0)
(0.196568 0.0034619 0)
(0.184106 0.00394535 0)
(0.170215 0.00428146 0)
(0.155139 0.00462016 0)
(0.139079 0.00490566 0)
(0.122288 0.00503731 0)
(0.104944 0.00517576 0)
(0.087263 0.00526848 0)
(0.0695508 0.00521239 0)
(0.0518078 0.00518605 0)
(0.0342893 0.00506057 0)
(0.0172115 0.00494595 0)
(0.00114684 0.00479201 0)
(-0.01411 0.00458082 0)
(-0.0290895 0.00437608 0)
(-0.0433526 0.00414638 0)
(-0.0568273 0.00388937 0)
(-0.0694849 0.0036426 0)
(-0.0812989 0.00337613 0)
(-0.092279 0.00312598 0)
(-0.102397 0.0028673 0)
(-0.111657 0.00260698 0)
(-0.120103 0.00236917 0)
(-0.127698 0.00211831 0)
(-0.134463 0.00187318 0)
(-0.140415 0.00164113 0)
(-0.145553 0.00139858 0)
(-0.149962 0.00118209 0)
(-0.15363 0.000948363 0)
(-0.156454 0.00070487 0)
(-0.158508 0.000514036 0)
(-0.159845 0.00028594 0)
(-0.160427 5.37266e-05 0)
(-0.16025 -0.000162719 0)
(-0.15933 -0.00040977 0)
(-0.157602 -0.000632067 0)
(-0.15516 -0.000843703 0)
(-0.151967 -0.00108933 0)
(-0.148033 -0.00131523 0)
(-0.143272 -0.0015245 0)
(-0.137716 -0.0017676 0)
(-0.131434 -0.00198929 0)
(-0.124349 -0.00221624 0)
(-0.116493 -0.00246686 0)
(-0.107835 -0.00269913 0)
(-0.0983889 -0.00297083 0)
(-0.0879955 -0.00319929 0)
(-0.0767128 -0.00347558 0)
(-0.0646235 -0.00372364 0)
(-0.051664 -0.00397483 0)
(-0.0378962 -0.00419905 0)
(-0.0234334 -0.00439503 0)
(-0.00832237 -0.00457558 0)
(0.00734891 -0.00474023 0)
(0.0235171 -0.00486315 0)
(0.040069 -0.00496874 0)
(0.0568748 -0.00503662 0)
(0.0738521 -0.00506239 0)
(0.0908568 -0.00504195 0)
(0.107711 -0.00498633 0)
(0.124278 -0.00487504 0)
(0.140378 -0.00469076 0)
(0.155783 -0.0044567 0)
(0.170262 -0.00415199 0)
(0.183618 -0.00378745 0)
(0.195634 -0.00335013 0)
(0.206085 -0.00286263 0)
(0.214792 -0.00231072 0)
(0.221577 -0.00171976 0)
(0.226299 -0.00108507 0)
(0.228813 -0.000409825 0)
(0.22906 0.000257292 0)
(0.226937 0.000972016 0)
(0.222406 0.00168307 0)
(0.215639 0.00235063 0)
(0.206658 0.00298509 0)
(0.195593 0.00357753 0)
(0.182651 0.00410926 0)
(0.168044 0.00456992 0)
(0.151994 0.00495775 0)
(0.134786 0.00526634 0)
(0.116676 0.00549858 0)
(0.0979283 0.00564606 0)
(0.0788144 0.00571325 0)
(0.0595806 0.00570893 0)
(0.040467 0.00566836 0)
(0.0216676 0.00552351 0)
(0.0033827 0.00535231 0)
(-0.0142206 0.00512326 0)
(-0.0310426 0.00485547 0)
(-0.0469267 0.00459711 0)
(-0.0618212 0.00429075 0)
(-0.0757021 0.00396863 0)
(-0.0884625 0.00363639 0)
(-0.100126 0.00330237 0)
(-0.110692 0.00298924 0)
(-0.120151 0.00265061 0)
(-0.128567 0.00235912 0)
(-0.135957 0.00204844 0)
(-0.142406 0.00177825 0)
(-0.147947 0.00150191 0)
(-0.152611 0.00129386 0)
(-0.156513 0.00104047 0)
(-0.159698 0.000836982 0)
(-0.162147 0.000635825 0)
(-0.163934 0.000440952 0)
(-0.165115 0.000257958 0)
(-0.165688 6.71549e-05 0)
(-0.165659 -7.95896e-05 0)
(-0.165031 -0.00026425 0)
(-0.163854 -0.000432804 0)
(-0.162101 -0.00059845 0)
(-0.159775 -0.000785935 0)
(-0.156838 -0.000963853 0)
(-0.153239 -0.00117099 0)
(-0.148948 -0.00136699 0)
(-0.143997 -0.00158447 0)
(-0.138287 -0.00180858 0)
(-0.131807 -0.00203191 0)
(-0.124566 -0.00227197 0)
(-0.116521 -0.00251512 0)
(-0.107635 -0.00278611 0)
(-0.0978588 -0.00301916 0)
(-0.0872651 -0.00330295 0)
(-0.0757853 -0.00352192 0)
(-0.0634435 -0.00378602 0)
(-0.0503073 -0.00402935 0)
(-0.0363526 -0.00425798 0)
(-0.0216639 -0.00448245 0)
(-0.00624592 -0.00467489 0)
(0.00978639 -0.00484066 0)
(0.0262864 -0.00496492 0)
(0.0431274 -0.00505 0)
(0.0601539 -0.00507244 0)
(0.0771687 -0.00504723 0)
(0.0939764 -0.00495735 0)
(0.110391 -0.00479048 0)
(0.126149 -0.00456061 0)
(0.140976 -0.00424201 0)
(0.1546 -0.00385402 0)
(0.166779 -0.00338612 0)
(0.177285 -0.00285562 0)
(0.185905 -0.00226426 0)
(0.192435 -0.0016168 0)
(0.196701 -0.000914841 0)
(0.198551 -0.000205238 0)
(0.197983 0.000531797 0)
(0.194827 0.00129242 0)
(0.189271 0.00199774 0)
(0.18142 0.00265631 0)
(0.171452 0.00326461 0)
(0.159587 0.00379507 0)
(0.146031 0.00426271 0)
(0.130996 0.00465907 0)
(0.114759 0.00499362 0)
(0.097573 0.0052328 0)
(0.0796693 0.00540844 0)
(0.0613037 0.00550837 0)
(0.0427283 0.00553335 0)
(0.0241841 0.00547964 0)
(0.0059311 0.00536653 0)
(-0.0118222 0.00521302 0)
(-0.0289411 0.00498356 0)
(-0.0452868 0.00474792 0)
(-0.0607609 0.0044614 0)
(-0.0752817 0.00417125 0)
(-0.0887937 0.0038716 0)
(-0.1013 0.00356814 0)
(-0.112785 0.0032733 0)
(-0.123283 0.00296214 0)
(-0.132777 0.0026911 0)
(-0.141282 0.00237151 0)
(-0.148846 0.00212789 0)
(-0.155492 0.00183823 0)
(-0.161251 0.00160213 0)
(-0.166203 0.00135152 0)
(-0.170383 0.00112323 0)
(-0.173782 0.000913041 0)
(-0.176502 0.000720027 0)
(-0.178591 0.000513573 0)
(-0.180045 0.000331115 0)
(-0.180862 0.000174071 0)
(-0.181101 -7.39252e-06 0)
(-0.180772 -0.000183771 0)
(-0.179869 -0.000356899 0)
(-0.178394 -0.000542451 0)
(-0.176304 -0.0006927 0)
(-0.173609 -0.000880837 0)
(-0.170324 -0.00107089 0)
(-0.16639 -0.00125265 0)
(-0.161835 -0.00146017 0)
(-0.156574 -0.00166834 0)
(-0.150604 -0.00187857 0)
(-0.143918 -0.002096 0)
(-0.136485 -0.00233192 0)
(-0.128254 -0.00257104 0)
(-0.119209 -0.00280038 0)
(-0.109332 -0.00305814 0)
(-0.098653 -0.00331846 0)
(-0.0871023 -0.00354356 0)
(-0.0747185 -0.00379632 0)
(-0.0615827 -0.00402297 0)
(-0.0477032 -0.0042218 0)
(-0.0332019 -0.00440351 0)
(-0.0181446 -0.00455564 0)
(-0.00261108 -0.00467003 0)
(0.013275 -0.0047651 0)
(0.0293741 -0.00480716 0)
(0.0455511 -0.00482193 0)
(0.0616533 -0.00476896 0)
(0.0775139 -0.00465371 0)
(0.0928707 -0.00447196 0)
(0.107477 -0.00421108 0)
(0.12108 -0.00386223 0)
(0.133386 -0.00344378 0)
(0.144143 -0.00294763 0)
(0.153133 -0.00239328 0)
(0.160171 -0.00178774 0)
(0.16511 -0.00113643 0)
(0.167798 -0.000455283 0)
(0.168157 0.000242637 0)
(0.166166 0.000948753 0)
(0.161816 0.0016485 0)
(0.155241 0.00229644 0)
(0.146513 0.00290545 0)
(0.135821 0.00346999 0)
(0.123457 0.00393661 0)
(0.109605 0.00432545 0)
(0.0945093 0.00465719 0)
(0.0786083 0.00484941 0)
(0.0619719 0.00499427 0)
(0.0451253 0.00504381 0)
(0.0283818 0.00499452 0)
(0.0117522 0.00487223 0)
(-0.00415102 0.00473581 0)
(-0.0193337 0.00451788 0)
(-0.0338329 0.00424326 0)
(-0.047435 0.00397078 0)
(-0.0600622 0.00367146 0)
(-0.0717065 0.00338176 0)
(-0.0824651 0.00310905 0)
(-0.092308 0.00283678 0)
(-0.101325 0.00260003 0)
(-0.109668 0.00238018 0)
(-0.117278 0.00215402 0)
(-0.12418 0.00194727 0)
(-0.130414 0.0017531 0)
(-0.135979 0.00154587 0)
(-0.140936 0.00137211 0)
(-0.145232 0.00118218 0)
(-0.148893 0.00100397 0)
(-0.152008 0.000846055 0)
(-0.154543 0.000678034 0)
(-0.156547 0.000520181 0)
(-0.158085 0.000387464 0)
(-0.15914 0.000245434 0)
(-0.159741 0.000118729 0)
(-0.159935 1.12215e-07 0)
(-0.159686 -0.000134976 0)
(-0.159045 -0.000251172 0)
(-0.157959 -0.000383996 0)
(-0.156394 -0.00053228 0)
(-0.154348 -0.000681669 0)
(-0.151743 -0.000854445 0)
(-0.148501 -0.00105969 0)
(-0.144575 -0.00127464 0)
(-0.139871 -0.00152942 0)
(-0.134317 -0.00178177 0)
(-0.127835 -0.00206133 0)
(-0.120335 -0.00238782 0)
(-0.111784 -0.0026914 0)
(-0.102151 -0.00300528 0)
(-0.0913785 -0.00336933 0)
(-0.0794878 -0.00367099 0)
(-0.0665323 -0.00403373 0)
(-0.0525267 -0.00430276 0)
(-0.0376005 -0.00453719 0)
(-0.0218429 -0.00482132 0)
(-0.00538848 -0.00497922 0)
(0.0115693 -0.00507827 0)
(0.0289182 -0.0052187 0)
(0.0464488 -0.00519964 0)
(0.0639274 -0.00520832 0)
(0.081132 -0.00505765 0)
(0.097808 -0.00483451 0)
(0.113721 -0.00462017 0)
(0.128648 -0.0042693 0)
(0.142363 -0.00385967 0)
(0.154661 -0.00343595 0)
(0.16536 -0.00292465 0)
(0.1743 -0.00237689 0)
(0.181354 -0.0018068 0)
(0.18643 -0.00120334 0)
(0.189477 -0.000590219 0)
(0.190442 1.70206e-05 0)
(0.189407 0.000615056 0)
(0.186286 0.00120665 0)
(0.181258 0.00177101 0)
(0.174412 0.00230588 0)
(0.165878 0.00276551 0)
(0.155816 0.00321223 0)
(0.14439 0.00356042 0)
(0.131781 0.0039041 0)
(0.118167 0.0042008 0)
(0.103728 0.00437729 0)
(0.0886438 0.00456893 0)
(0.0730782 0.00471422 0)
(0.0571934 0.00473867 0)
(0.0411347 0.00479192 0)
(0.0249825 0.00473098 0)
(0.00873548 0.00470164 0)
(-0.00698305 0.00464943 0)
(-0.0220852 0.00448619 0)
(-0.0369404 0.00435518 0)
(-0.0529214 0.00419211 0)
(-0.158669 -0.000649662 0)
(-0.157189 -0.000959776 0)
(-0.154938 -0.00127457 0)
(-0.152042 -0.00159794 0)
(-0.14848 -0.00193801 0)
(-0.144225 -0.00228603 0)
(-0.139251 -0.00265887 0)
(-0.133522 -0.00303694 0)
(-0.127002 -0.00342903 0)
(-0.119661 -0.00386051 0)
(-0.111462 -0.00428355 0)
(-0.102374 -0.00471585 0)
(-0.0923717 -0.00520324 0)
(-0.0814318 -0.00565041 0)
(-0.069548 -0.00616071 0)
(-0.0567184 -0.00660173 0)
(-0.0429613 -0.00701974 0)
(-0.0283029 -0.00751359 0)
(-0.0127437 -0.00787006 0)
(0.00351407 -0.00819873 0)
(0.0203962 -0.00858694 0)
(0.0378981 -0.00876847 0)
(0.0557974 -0.00886043 0)
(0.073927 -0.00903622 0)
(0.0920962 -0.00893891 0)
(0.110093 -0.00890203 0)
(0.127692 -0.00858731 0)
(0.144646 -0.00815213 0)
(0.160714 -0.00773416 0)
(0.175658 -0.00708074 0)
(0.189245 -0.00632462 0)
(0.201257 -0.00553071 0)
(0.211492 -0.00459088 0)
(0.219787 -0.0035994 0)
(0.225998 -0.00252947 0)
(0.230052 -0.00141931 0)
(0.231875 -0.000306185 0)
(0.231456 0.000799108 0)
(0.228665 0.00195738 0)
(0.223678 0.0029944 0)
(0.2166 0.00403053 0)
(0.207542 0.00490636 0)
(0.196694 0.00577242 0)
(0.184216 0.00657843 0)
(0.170307 0.00713866 0)
(0.155214 0.00770323 0)
(0.139136 0.00817893 0)
(0.122327 0.00839853 0)
(0.104968 0.00862863 0)
(0.0872691 0.00878292 0)
(0.0695421 0.00869024 0)
(0.0517884 0.00864434 0)
(0.0342592 0.00843584 0)
(0.0171715 0.00824438 0)
(0.00109882 0.00798842 0)
(-0.0141642 0.00763569 0)
(-0.0291498 0.00729412 0)
(-0.0434166 0.00691179 0)
(-0.0568928 0.00648334 0)
(-0.069553 0.00607178 0)
(-0.0813674 0.00562728 0)
(-0.0923467 0.00521032 0)
(-0.102465 0.00477957 0)
(-0.111722 0.00434552 0)
(-0.120168 0.00394856 0)
(-0.127761 0.00353004 0)
(-0.134524 0.00312339 0)
(-0.140477 0.00273665 0)
(-0.145615 0.00232939 0)
(-0.150024 0.00196928 0)
(-0.153692 0.00157875 0)
(-0.156509 0.00118243 0)
(-0.158568 0.000852779 0)
(-0.159914 0.00047425 0)
(-0.160487 8.93341e-05 0)
(-0.16031 -0.000267698 0)
(-0.159397 -0.000685527 0)
(-0.157663 -0.00104833 0)
(-0.155229 -0.00141277 0)
(-0.152032 -0.00181696 0)
(-0.1481 -0.00219595 0)
(-0.143337 -0.00253792 0)
(-0.137784 -0.00294178 0)
(-0.131501 -0.0033191 0)
(-0.124426 -0.00370042 0)
(-0.116562 -0.00410919 0)
(-0.107907 -0.00450185 0)
(-0.0984535 -0.00494332 0)
(-0.0880751 -0.00534004 0)
(-0.0767957 -0.00579336 0)
(-0.0647056 -0.00620657 0)
(-0.0517439 -0.00662014 0)
(-0.0379707 -0.00699938 0)
(-0.0235019 -0.00732355 0)
(-0.0083937 -0.00762456 0)
(0.00727689 -0.00790132 0)
(0.0234452 -0.00810193 0)
(0.0399887 -0.00827891 0)
(0.0567888 -0.00839731 0)
(0.0737666 -0.00844091 0)
(0.0907729 -0.00841013 0)
(0.107636 -0.00831056 0)
(0.124219 -0.00812562 0)
(0.140329 -0.00782102 0)
(0.155744 -0.00743734 0)
(0.170236 -0.00692103 0)
(0.183606 -0.00631124 0)
(0.195638 -0.00558629 0)
(0.20611 -0.00476433 0)
(0.214836 -0.00385746 0)
(0.221632 -0.00286817 0)
(0.226358 -0.00181385 0)
(0.228874 -0.000692309 0)
(0.229122 0.000440636 0)
(0.226989 0.00163532 0)
(0.222467 0.0028041 0)
(0.215686 0.00391501 0)
(0.206695 0.00497475 0)
(0.195621 0.00596942 0)
(0.182655 0.00685785 0)
(0.168025 0.0076196 0)
(0.151953 0.00827254 0)
(0.134713 0.00877778 0)
(0.116582 0.0091624 0)
(0.0978142 0.00942189 0)
(0.0786758 0.00953169 0)
(0.0594211 0.0095272 0)
(0.0402783 0.00944804 0)
(0.0214647 0.00920184 0)
(0.0031786 0.0089265 0)
(-0.0144474 0.00855642 0)
(-0.0312836 0.00810034 0)
(-0.0471801 0.00766056 0)
(-0.0620903 0.00714881 0)
(-0.075967 0.00661067 0)
(-0.0887321 0.00607526 0)
(-0.100401 0.00550541 0)
(-0.110965 0.0049843 0)
(-0.120428 0.00441984 0)
(-0.128845 0.00392909 0)
(-0.136234 0.00341667 0)
(-0.142684 0.00296218 0)
(-0.148203 0.002504 0)
(-0.152862 0.00215761 0)
(-0.156769 0.00173088 0)
(-0.159939 0.00138294 0)
(-0.162382 0.00107552 0)
(-0.164176 0.000723916 0)
(-0.165357 0.000432957 0)
(-0.165926 0.000119143 0)
(-0.165895 -0.000134193 0)
(-0.165281 -0.000445435 0)
(-0.164095 -0.000712123 0)
(-0.162346 -0.00100504 0)
(-0.160016 -0.00130899 0)
(-0.157079 -0.00161679 0)
(-0.153467 -0.00194248 0)
(-0.149177 -0.00228293 0)
(-0.144234 -0.00264802 0)
(-0.13852 -0.00300464 0)
(-0.132034 -0.00338715 0)
(-0.124796 -0.00378145 0)
(-0.116765 -0.0042057 0)
(-0.107874 -0.00463817 0)
(-0.0981041 -0.00502947 0)
(-0.0875183 -0.00550232 0)
(-0.07603 -0.0058677 0)
(-0.0636879 -0.00631909 0)
(-0.0505404 -0.00671566 0)
(-0.0365819 -0.00710009 0)
(-0.0218859 -0.00747109 0)
(-0.0064562 -0.00779143 0)
(0.00957937 -0.00806231 0)
(0.0260835 -0.00828924 0)
(0.042948 -0.00842188 0)
(0.0600033 -0.00845099 0)
(0.0770351 -0.00841096 0)
(0.0938602 -0.00827402 0)
(0.110296 -0.00799079 0)
(0.126075 -0.00759845 0)
(0.14092 -0.00708001 0)
(0.154567 -0.00642036 0)
(0.166768 -0.00565323 0)
(0.177297 -0.00475942 0)
(0.185939 -0.00377048 0)
(0.192483 -0.00269105 0)
(0.196752 -0.00153272 0)
(0.198608 -0.0003395 0)
(0.19803 0.000892828 0)
(0.194877 0.00216229 0)
(0.189312 0.00332868 0)
(0.181449 0.00442854 0)
(0.171464 0.00544802 0)
(0.159576 0.00633429 0)
(0.146001 0.00710992 0)
(0.130944 0.00777433 0)
(0.114683 0.00832411 0)
(0.0974751 0.0087279 0)
(0.0795484 0.00901338 0)
(0.0611608 0.00917724 0)
(0.0425626 0.00922858 0)
(0.0239948 0.00914233 0)
(0.00572447 0.00895487 0)
(-0.0120485 0.00868858 0)
(-0.0291763 0.00831285 0)
(-0.0455335 0.00791242 0)
(-0.0610206 0.00743686 0)
(-0.0755416 0.0069497 0)
(-0.0890578 0.00645417 0)
(-0.101559 0.00594489 0)
(-0.113048 0.00546294 0)
(-0.123537 0.00494111 0)
(-0.133039 0.00448717 0)
(-0.14154 0.0039555 0)
(-0.149106 0.00354142 0)
(-0.155746 0.00306275 0)
(-0.161506 0.00267741 0)
(-0.166457 0.00224169 0)
(-0.170617 0.00187084 0)
(-0.174019 0.00153513 0)
(-0.176742 0.00119067 0)
(-0.178826 0.000865202 0)
(-0.180274 0.000552408 0)
(-0.181086 0.000291114 0)
(-0.181328 -1.85401e-05 0)
(-0.180992 -0.000307271 0)
(-0.180087 -0.000596046 0)
(-0.178611 -0.000898303 0)
(-0.176511 -0.00115169 0)
(-0.173833 -0.0014721 0)
(-0.170544 -0.00178156 0)
(-0.166625 -0.0021019 0)
(-0.162061 -0.00243123 0)
(-0.156798 -0.00277314 0)
(-0.150838 -0.00313362 0)
(-0.144157 -0.00350397 0)
(-0.136723 -0.00387485 0)
(-0.128499 -0.00428082 0)
(-0.119454 -0.00467022 0)
(-0.109577 -0.00510388 0)
(-0.09889 -0.00553941 0)
(-0.0873373 -0.00591084 0)
(-0.074949 -0.00632547 0)
(-0.0618072 -0.00669378 0)
(-0.047929 -0.00703969 0)
(-0.0334201 -0.00733765 0)
(-0.0183495 -0.00759294 0)
(-0.00280778 -0.00778164 0)
(0.0130846 -0.00795147 0)
(0.0292022 -0.00800819 0)
(0.0453866 -0.00803568 0)
(0.0615039 -0.00795875 0)
(0.077386 -0.00775553 0)
(0.0927644 -0.00745903 0)
(0.107398 -0.00702136 0)
(0.121025 -0.00644653 0)
(0.133361 -0.00573776 0)
(0.144143 -0.00491614 0)
(0.153158 -0.00399822 0)
(0.160221 -0.00298026 0)
(0.165179 -0.00189849 0)
(0.16789 -0.000762013 0)
(0.168265 0.000408985 0)
(0.166269 0.0015869 0)
(0.16193 0.00274253 0)
(0.155357 0.00382794 0)
(0.146628 0.00484849 0)
(0.135919 0.00578767 0)
(0.123538 0.00656248 0)
(0.109672 0.00721174 0)
(0.0945615 0.00776537 0)
(0.0786389 0.00808765 0)
(0.0619819 0.00832487 0)
(0.0451149 0.00841283 0)
(0.0283487 0.00832961 0)
(0.0117055 0.00812218 0)
(-0.00420396 0.00789634 0)
(-0.0194084 0.00753373 0)
(-0.0339112 0.00707587 0)
(-0.0475206 0.00662135 0)
(-0.0601514 0.00612048 0)
(-0.0717897 0.00563457 0)
(-0.0825453 0.00518294 0)
(-0.0923806 0.00472688 0)
(-0.101391 0.00433303 0)
(-0.109732 0.00396559 0)
(-0.117337 0.00358968 0)
(-0.124238 0.00324348 0)
(-0.130469 0.00292229 0)
(-0.136031 0.00257572 0)
(-0.140986 0.00228737 0)
(-0.145281 0.00197 0)
(-0.148939 0.00167268 0)
(-0.152052 0.00140955 0)
(-0.154586 0.00113162 0)
(-0.156586 0.000870603 0)
(-0.158122 0.000651425 0)
(-0.159175 0.000414572 0)
(-0.159775 0.000195703 0)
(-0.159969 2.52681e-07 0)
(-0.15972 -0.000225115 0)
(-0.159079 -0.000418084 0)
(-0.157994 -0.000639084 0)
(-0.156434 -0.000888476 0)
(-0.154392 -0.00113541 0)
(-0.151791 -0.00142326 0)
(-0.148557 -0.00176457 0)
(-0.144636 -0.00212429 0)
(-0.139938 -0.00254798 0)
(-0.134391 -0.00296872 0)
(-0.127913 -0.00343471 0)
(-0.120419 -0.00397907 0)
(-0.111871 -0.00448529 0)
(-0.102238 -0.00500862 0)
(-0.091466 -0.00561563 0)
(-0.0795733 -0.00611871 0)
(-0.0666148 -0.00672394 0)
(-0.0526012 -0.00717249 0)
(-0.0376662 -0.00756348 0)
(-0.0218991 -0.00803745 0)
(-0.00543183 -0.00830073 0)
(0.0115401 -0.00846621 0)
(0.028905 -0.00870051 0)
(0.0464525 -0.00866895 0)
(0.0639502 -0.00868362 0)
(0.081173 -0.00843249 0)
(0.0978666 -0.00806053 0)
(0.113799 -0.0077033 0)
(0.128743 -0.00711834 0)
(0.142473 -0.00643531 0)
(0.154788 -0.00572886 0)
(0.165498 -0.00487629 0)
(0.174448 -0.00396297 0)
(0.18151 -0.00301248 0)
(0.186591 -0.00200664 0)
(0.18964 -0.000983697 0)
(0.190611 2.77258e-05 0)
(0.189561 0.001028 0)
(0.186435 0.00201263 0)
(0.181401 0.00295319 0)
(0.174546 0.00384501 0)
(0.165999 0.00461125 0)
(0.155924 0.00535599 0)
(0.144482 0.00593635 0)
(0.13186 0.00650918 0)
(0.118232 0.0070037 0)
(0.103779 0.00729774 0)
(0.0886813 0.00761706 0)
(0.0731032 0.00785914 0)
(0.057206 0.00789971 0)
(0.041136 0.00798838 0)
(0.0249731 0.00788668 0)
(0.00871791 0.00783784 0)
(-0.00700984 0.00775035 0)
(-0.0221215 0.00747824 0)
(-0.0369848 0.00725981 0)
(-0.0529737 0.00698792 0)
(-0.158741 -0.00090928 0)
(-0.157263 -0.00134333 0)
(-0.155014 -0.00178389 0)
(-0.15212 -0.0022365 0)
(-0.148562 -0.0027125 0)
(-0.144311 -0.00319963 0)
(-0.13934 -0.00372151 0)
(-0.133615 -0.00425079 0)
(-0.127099 -0.00479971 0)
(-0.119762 -0.0054038 0)
(-0.111567 -0.00599617 0)
(-0.102481 -0.00660159 0)
(-0.0924826 -0.00728415 0)
(-0.0815431 -0.00791039 0)
(-0.0696606 -0.00862522 0)
(-0.0568282 -0.0092431 0)
(-0.043066 -0.00982878 0)
(-0.0284027 -0.0105204 0)
(-0.0128368 -0.0110205 0)
(0.0034334 -0.0114817 0)
(0.0203313 -0.0120253 0)
(0.0378505 -0.0122801 0)
(0.0557697 -0.0124095 0)
(0.0739222 -0.0126564 0)
(0.092116 -0.0125205 0)
(0.110142 -0.0124694 0)
(0.127768 -0.0120289 0)
(0.144748 -0.0114195 0)
(0.160848 -0.0108345 0)
(0.175818 -0.00991932 0)
(0.189429 -0.0088603 0)
(0.201468 -0.00774802 0)
(0.211722 -0.00643213 0)
(0.220036 -0.0050436 0)
(0.226259 -0.00354528 0)
(0.230322 -0.00199131 0)
(0.232158 -0.000430868 0)
(0.23171 0.00113327 0)
(0.228915 0.00274298 0)
(0.223924 0.00419415 0)
(0.216832 0.0056465 0)
(0.207752 0.00687375 0)
(0.196883 0.00808678 0)
(0.184381 0.00921577 0)
(0.170444 0.0100002 0)
(0.155325 0.0107907 0)
(0.139221 0.0114565 0)
(0.122384 0.0117644 0)
(0.105002 0.0120852 0)
(0.0872781 0.0123003 0)
(0.0695286 0.012173 0)
(0.0517589 0.0121044 0)
(0.0342137 0.0118137 0)
(0.0171111 0.0115447 0)
(0.0010263 0.0111873 0)
(-0.0142457 0.0106919 0)
(-0.0292402 0.0102136 0)
(-0.0435131 0.00967839 0)
(-0.0569918 0.00907782 0)
(-0.0696554 0.0085012 0)
(-0.0814693 0.00787907 0)
(-0.0924491 0.00729473 0)
(-0.102567 0.00669124 0)
(-0.11182 0.00608452 0)
(-0.120265 0.00552938 0)
(-0.127858 0.00494237 0)
(-0.134618 0.00437265 0)
(-0.140574 0.00383053 0)
(-0.145705 0.00326058 0)
(-0.150115 0.00275663 0)
(-0.153789 0.00220549 0)
(-0.156599 0.00165986 0)
(-0.158655 0.00119219 0)