/*--------------------------------*- C++ -*----------------------------------*\
| =========                 |                                                 |
| \\      /  F ield         | OpenFOAM: The Open Source CFD Toolbox           |
|  \\    /   O peration     | Version:  3.0.1                                 |
|   \\  /    A nd           | Web:      www.OpenFOAM.org                      |
|    \\/     M anipulation  |                                                 |
\*---------------------------------------------------------------------------*/
FoamFile
{
    version     2.0;
    format      ascii;
    class       volScalarField;
    location    "37.4";
    object      p_rgh;
}
// * * * * * * * * * * * * * * * * * * * * * * * * * * * * * * * * * * * * * //

dimensions      [1 -1 -2 0 0 0 0];

internalField   nonuniform List<scalar> 
21420
(
-242.592
-230.099
-216.149
-200.708
-183.74
-165.179
-144.993
-123.166
-99.7032
-74.6322
-48.0152
-19.9458
9.45923
40.0112
71.5094
103.7
136.31
169.06
201.602
233.571
264.62
294.341
322.323
348.218
371.662
392.326
409.918
424.176
434.91
441.969
445.258
444.62
440.267
432.137
420.356
405.112
386.638
365.188
341.05
314.582
286.137
256.093
224.814
192.67
160.04
127.265
94.6543
62.4859
30.9928
0.355344
-29.2778
-53.7003
-80.4625
-105.666
-129.268
-151.259
-171.64
-190.413
-207.587
-223.181
-237.226
-249.758
-260.807
-270.407
-278.585
-285.36
-290.747
-294.752
-297.394
-298.72
-298.659
-296.93
-293.676
-288.893
-282.558
-274.665
-265.161
-254.019
-241.222
-226.757
-210.603
-192.755
-173.225
-151.995
-129.131
-104.68
-78.6985
-51.3653
-23.0085
4.84449
34.7044
65.8657
97.7603
129.953
162.054
193.699
224.523
254.165
282.257
308.429
332.315
353.57
371.872
386.931
398.495
406.351
410.345
410.261
406.269
398.247
386.254
370.452
351.035
328.259
302.433
273.911
243.098
210.416
176.307
141.229
105.632
69.9484
34.5844
-0.0855593
-33.7272
-66.0478
-96.8292
-125.882
-153.068
-178.293
-201.5
-222.672
-241.814
-258.957
-274.143
-287.427
-298.874
-308.557
-316.54
-322.895
-327.691
-330.993
-332.873
-333.37
-332.497
-330.349
-326.929
-322.239
-316.28
-309.044
-300.5
-290.618
-279.346
-266.638
-252.453
-236.743
-219.469
-200.602
-180.129
-158.054
-134.408
-109.253
-82.6933
-54.8977
-25.0407
4.89796
35.6736
66.9744
98.4896
129.888
160.81
190.877
219.695
246.855
271.949
294.581
314.372
330.963
344.047
353.371
358.738
359.926
357.056
350.022
338.917
323.912
305.25
283.223
258.176
230.498
200.607
168.938
135.946
102.083
67.7966
33.5146
-0.362222
-33.4685
-65.4892
-96.1686
-125.289
-152.689
-178.256
-201.922
-223.652
-243.45
-261.339
-277.364
-291.583
-304.065
-314.883
-324.108
-331.815
-338.068
-342.935
-346.477
-348.749
-349.783
-349.602
-348.276
-345.791
-342.152
-337.348
-331.353
-324.139
-315.664
-305.879
-294.731
-282.167
-268.136
-252.589
-235.479
-216.778
-196.47
-174.551
-151.047
-126.008
-99.5151
-71.6797
-42.6279
-12.6453
18.069
49.2383
80.5456
111.639
142.136
171.633
199.71
225.95
249.94
271.289
289.631
304.649
316.07
323.68
327.291
326.855
322.351
313.875
301.495
285.443
265.987
243.451
218.201
190.632
161.173
130.272
98.362
65.8616
33.1543
0.594602
-31.29
-59.3627
-87.3646
-114.092
-139.213
-162.561
-184.015
-203.52
-221.048
-236.64
-250.349
-262.268
-272.521
-281.246
-288.554
-294.581
-299.427
-303.191
-305.935
-307.708
-308.544
-308.416
-307.189
-304.94
-301.453
-296.763
-290.789
-283.512
-274.892
-264.868
-253.376
-240.333
-225.67
-209.32
-191.196
-171.247
-149.471
-125.851
-100.47
-73.4165
-44.788
-14.5136
16.5139
48.3987
80.8139
113.435
145.886
177.791
208.814
238.571
266.692
292.862
316.75
338.06
356.522
371.898
384.01
392.711
397.905
399.414
397.29
391.592
382.392
369.771
353.939
335.09
313.485
289.413
263.171
235.067
205.461
174.695
143.125
111.096
78.9458
47.0268
15.6692
-14.6229
-43.7618
-72.0228
-98.9525
-124.357
-148.063
-169.951
-189.983
-208.133
-242.649
-230.159
-216.212
-200.774
-183.809
-165.25
-145.066
-123.241
-99.7785
-74.7069
-48.0882
-20.0158
9.39403
39.9523
71.4582
103.658
136.279
169.041
201.598
233.582
264.647
294.385
322.385
348.297
371.757
392.435
410.04
424.309
435.051
442.116
445.407
444.78
440.407
432.275
420.487
405.232
386.744
365.28
341.125
314.641
286.179
256.117
224.823
192.664
160.02
127.232
94.612
62.4357
30.9373
0.29754
-29.3392
-53.7812
-80.5434
-105.745
-129.344
-151.333
-171.712
-190.483
-207.655
-223.247
-237.29
-249.82
-260.867
-270.466
-278.642
-285.416
-290.803
-294.809
-297.452
-298.777
-298.713
-296.986
-293.734
-288.953
-282.62
-274.728
-265.226
-254.084
-241.288
-226.825
-210.672
-192.825
-173.295
-152.066
-129.202
-104.75
-78.7654
-51.4256
-23.0544
4.75773
34.6343
65.8093
97.7157
129.92
162.034
193.693
224.534
254.192
282.302
308.491
332.395
353.665
371.982
387.054
398.629
406.494
410.492
410.421
406.412
398.39
386.39
370.577
351.146
328.354
302.51
273.969
243.136
210.433
176.305
141.209
105.595
69.8953
34.5179
-0.163511
-33.8141
-66.1418
-96.9281
-125.984
-153.172
-178.396
-201.602
-222.772
-241.911
-259.05
-274.234
-287.513
-298.957
-308.637
-316.616
-322.968
-327.761
-331.06
-332.939
-333.431
-332.558
-330.409
-326.989
-322.299
-316.341
-309.106
-300.564
-290.684
-279.415
-266.709
-252.527
-236.819
-219.547
-200.682
-180.211
-158.135
-134.489
-109.332
-82.7671
-54.9678
-25.1112
4.83432
35.6213
66.9336
98.4614
129.874
160.812
190.896
219.731
246.91
272.023
294.673
314.481
331.087
344.185
353.518
358.891
360.091
357.206
350.171
339.057
324.041
305.363
283.319
258.253
230.555
200.643
168.955
135.944
102.063
67.7599
33.463
-0.426735
-33.5434
-65.5724
-96.2579
-125.382
-152.784
-178.352
-202.017
-223.746
-243.541
-261.427
-277.448
-291.664
-304.142
-314.956
-324.178
-331.881
-338.132
-342.996
-346.536
-348.806
-349.836
-349.656
-348.33
-345.845
-342.206
-337.403
-331.41
-324.198
-315.725
-305.943
-294.797
-282.236
-268.208
-252.664
-235.557
-216.858
-196.551
-174.633
-151.128
-126.087
-99.5916
-71.7517
-42.6937
-12.7027
18.0216
49.2029
80.5239
111.632
142.147
171.661
199.758
226.016
250.025
271.39
289.749
304.78
316.212
323.829
327.45
327.005
322.499
314.017
301.626
285.561
266.088
243.533
218.265
190.676
161.198
130.279
98.3524
65.8374
33.1178
0.547951
-31.3419
-59.4298
-87.4356
-114.165
-139.287
-162.636
-184.09
-203.593
-221.118
-236.706
-250.411
-262.325
-272.573
-281.295
-288.599
-294.622
-299.466
-303.229
-305.972
-307.744
-308.579
-308.451
-307.227
-304.983
-301.5
-296.809
-290.837
-283.562
-274.946
-264.926
-253.439
-240.399
-225.741
-209.395
-191.274
-171.328
-149.553
-125.933
-100.55
-73.4935
-44.8653
-14.5728
16.4584
48.3536
80.7813
113.416
145.881
177.801
208.841
238.614
266.75
292.936
316.838
338.161
356.635
372.021
384.141
392.848
398.044
399.562
397.427
391.727
382.521
369.891
354.048
335.187
313.568
289.482
263.224
235.105
205.483
174.703
143.119
111.076
78.9139
46.9839
15.617
-14.6807
-43.8276
-72.0946
-99.0291
-124.437
-148.145
-170.035
-190.067
-208.217
-242.764
-230.28
-216.338
-200.906
-183.946
-165.392
-145.213
-123.39
-99.929
-74.8564
-48.2342
-20.1559
9.26361
39.8345
71.3558
103.574
136.217
169.003
201.588
233.603
264.701
294.475
322.509
348.454
371.946
392.654
410.285
424.575
435.334
442.409
445.704
445.096
440.689
432.553
420.749
405.471
386.958
365.463
341.276
314.758
286.262
256.167
224.841
192.651
159.98
127.168
94.5275
62.3353
30.8264
0.182025
-29.4609
-53.9437
-80.7053
-105.901
-129.497
-151.482
-171.857
-190.623
-207.791
-223.378
-237.417
-249.943
-260.987
-270.582
-278.755
-285.527
-290.912
-294.92
-297.565
-298.888
-298.817
-297.094
-293.846
-289.068
-282.737
-274.848
-265.348
-254.21
-241.415
-226.954
-210.801
-192.955
-173.427
-152.198
-129.334
-104.881
-78.8891
-51.5353
-23.1342
4.59517
34.5066
65.7094
97.6395
129.867
162.007
193.696
224.568
254.261
282.405
308.629
332.567
353.87
372.217
387.316
398.912
406.793
410.799
410.751
406.714
398.69
386.676
370.842
351.383
328.56
302.679
274.1
243.227
210.485
176.318
141.185
105.537
69.8069
34.4027
-0.301256
-33.9696
-66.3111
-97.107
-126.168
-153.359
-178.582
-201.786
-222.952
-242.085
-259.218
-274.394
-287.666
-299.104
-308.775
-316.748
-323.094
-327.881
-331.176
-333.05
-333.533
-332.662
-330.512
-327.09
-322.401
-316.445
-309.213
-300.675
-290.799
-279.535
-266.835
-252.658
-236.955
-219.689
-200.827
-180.359
-158.284
-134.637
-109.475
-82.9003
-55.0789
-25.2536
4.72046
35.5301
66.8651
98.418
129.859
160.828
190.947
219.818
247.033
272.184
294.87
314.712
331.348
344.472
353.824
359.209
360.43
357.519
350.481
339.35
324.31
305.602
283.523
258.419
230.682
200.73
169.003
135.953
102.037
67.7
33.3735
-0.541751
-33.679
-65.7246
-96.4219
-125.554
-152.96
-178.529
-202.192
-223.917
-243.707
-261.586
-277.6
-291.809
-304.28
-315.087
-324.301
-331.998
-338.243
-343.103
-346.639
-348.905
-349.928
-349.75
-348.422
-345.937
-342.299
-337.499
-331.51
-324.302
-315.833
-306.057
-294.917
-282.362
-268.34
-252.801
-235.699
-217.004
-196.7
-174.783
-151.278
-126.234
-99.733
-71.8842
-42.8141
-12.8063
17.9378
49.1428
80.4913
111.631
142.179
171.73
199.863
226.159
250.204
271.604
289.994
305.052
316.506
324.138
327.78
327.316
322.806
314.31
301.899
285.806
266.301
243.71
218.402
190.774
161.259
130.303
98.3436
65.7994
33.0546
0.464203
-31.4365
-59.555
-87.5694
-114.304
-139.43
-162.781
-184.233
-203.733
-221.254
-236.835
-250.531
-262.437
-272.676
-281.388
-288.685
-294.702
-299.542
-303.302
-306.043
-307.816
-308.649
-308.518
-307.302
-305.07
-301.592
-296.9
-290.931
-283.663
-275.053
-265.042
-253.562
-240.532
-225.883
-209.544
-191.431
-171.49
-149.717
-126.096
-100.709
-73.6467
-45.0162
-14.6942
16.3475
48.2638
80.7163
113.379
145.873
177.823
208.894
238.699
266.867
293.083
317.015
338.364
356.862
372.268
384.403
393.121
398.321
399.858
397.701
391.999
382.778
370.131
354.266
335.38
313.734
289.619
263.331
235.181
205.529
174.719
143.107
111.037
78.8502
46.898
15.5124
-14.7965
-43.959
-72.2382
-99.1824
-124.598
-148.311
-170.203
-190.236
-208.384
-242.936
-230.46
-216.528
-201.104
-184.152
-165.605
-145.432
-123.614
-100.155
-75.0808
-48.4535
-20.3662
9.06787
39.6576
71.2021
103.448
136.123
168.946
201.573
233.635
264.783
294.608
322.694
348.69
372.23
392.982
410.652
424.975
435.758
442.85
446.15
445.562
441.121
432.97
421.141
405.831
387.277
365.738
341.502
314.933
286.387
256.242
224.867
192.632
159.92
127.072
94.4004
62.1845
30.6596
0.0087583
-29.6409
-54.1902
-80.9485
-106.136
-129.725
-151.705
-172.074
-190.833
-207.995
-223.575
-237.608
-250.127
-261.165
-270.755
-278.925
-285.694
-291.077
-295.086
-297.734
-299.052
-298.976
-297.257
-294.015
-289.241
-282.914
-275.028
-265.533
-254.398
-241.605
-227.146
-210.996
-193.151
-173.623
-152.396
-129.533
-105.076
-79.0748
-51.6997
-23.2516
4.35038
34.3166
65.561
97.5265
129.788
161.968
193.701
224.622
254.365
282.562
308.839
332.828
354.18
372.573
387.71
399.339
407.244
411.264
411.241
407.177
399.143
387.108
371.242
351.742
328.871
302.936
274.3
243.368
210.565
176.34
141.153
105.453
69.6771
34.2325
-0.505118
-34.2
-66.5624
-97.3727
-126.443
-153.637
-178.86
-202.06
-223.219
-242.344
-259.467
-274.632
-287.894
-299.32
-308.981
-316.943
-323.28
-328.059
-331.346
-333.215
-333.685
-332.816
-330.663
-327.239
-322.552
-316.598
-309.37
-300.839
-290.969
-279.713
-267.022
-252.853
-237.158
-219.898
-201.043
-180.578
-158.506
-134.856
-109.688
-83.0985
-55.2362
-25.4728
4.55162
35.3953
66.7642
98.3547
129.838
160.854
191.024
219.949
247.22
272.426
295.168
315.059
331.742
344.905
354.286
359.688
360.936
357.998
350.95
339.793
324.716
305.963
283.831
258.671
230.874
200.863
169.076
135.969
101.999
67.6123
33.2412
-0.712241
-33.8805
-65.9509
-96.666
-125.81
-153.222
-178.793
-202.453
-224.173
-243.954
-261.824
-277.827
-292.024
-304.485
-315.28
-324.485
-332.172
-338.409
-343.26
-346.79
-349.05
-350.065
-349.889
-348.559
-346.074
-342.438
-337.641
-331.657
-324.455
-315.994
-306.226
-295.095
-282.548
-268.536
-253.005
-235.91
-217.222
-196.922
-175.008
-151.501
-126.453
-99.9438
-72.0818
-42.9929
-12.9602
17.8136
49.0543
80.444
111.63
142.229
171.833
200.023
226.375
250.475
271.927
290.365
305.463
316.949
324.603
328.267
327.791
323.273
314.754
302.312
286.177
266.622
243.977
218.611
190.923
161.352
130.342
98.3321
65.7435
32.961
0.339266
-31.5778
-59.7423
-87.7696
-114.513
-139.644
-162.997
-184.449
-203.944
-221.457
-237.027
-250.711
-262.604
-272.829
-281.528
-288.815
-294.822
-299.656
-303.411
-306.151
-307.923
-308.754
-308.62
-307.415
-305.203
-301.731
-297.037
-291.074
-283.814
-275.214
-265.214
-253.747
-240.73
-226.094
-209.769
-191.665
-171.732
-149.963
-126.341
-100.949
-73.8763
-45.2384
-14.8811
16.1807
48.1289
80.6187
113.322
145.86
177.856
208.974
238.827
267.042
293.305
317.279
338.669
357.202
372.638
384.797
393.531
398.737
400.295
398.118
392.408
383.164
370.49
354.593
335.67
313.983
289.824
263.491
235.295
205.597
174.743
143.089
110.979
78.7543
46.769
15.355
-14.9701
-44.1563
-72.4538
-99.4126
-124.839
-148.559
-170.454
-190.488
-208.634
-243.166
-230.701
-216.78
-201.367
-184.427
-165.889
-145.725
-123.912
-100.456
-75.3802
-48.7464
-20.6467
8.80662
39.4215
70.9969
103.28
135.997
168.87
201.553
233.677
264.892
294.786
322.942
349.005
372.609
393.419
411.141
425.507
436.324
443.437
446.746
446.172
441.706
433.528
421.666
406.31
387.704
366.105
341.804
315.167
286.553
256.341
224.902
192.606
159.839
126.943
94.2304
61.9828
30.4366
-0.222381
-29.876
-54.5241
-81.2731
-106.449
-130.03
-152.002
-172.363
-191.114
-208.266
-223.838
-237.863
-250.374
-261.404
-270.987
-279.151
-285.915
-291.296
-295.306
-297.957
-299.269
-299.192
-297.476
-294.24
-289.472
-283.15
-275.269
-265.779
-254.649
-241.859
-227.403
-211.255
-193.412
-173.886
-152.661
-129.797
-105.338
-79.3237
-51.9197
-23.4054
4.02027
34.0646
65.3638
97.3759
129.683
161.917
193.708
224.693
254.505
282.771
309.119
333.176
354.594
373.047
388.238
399.909
407.847
411.886
411.884
407.805
399.751
387.686
371.776
352.222
329.286
303.28
274.568
243.556
210.673
176.371
141.109
105.342
69.504
34.0057
-0.776808
-34.5071
-66.8974
-97.7269
-126.809
-154.007
-179.23
-202.425
-223.575
-242.689
-259.799
-274.949
-288.197
-299.609
-309.254
-317.204
-323.528
-328.295
-331.573
-333.432
-333.891
-333.021
-330.864
-327.438
-322.752
-316.803
-309.58
-301.057
-291.196
-279.949
-267.27
-253.112
-237.428
-220.178
-201.331
-180.871
-158.801
-135.149
-109.973
-83.3638
-55.4431
-25.768
4.32766
35.2159
66.63
98.2705
129.81
160.89
191.127
220.124
247.469
272.75
295.565
315.524
332.269
345.483
354.903
360.328
361.598
358.647
351.577
340.385
325.259
306.445
284.243
259.007
231.132
201.039
169.174
135.991
101.948
67.4952
33.0647
-0.93964
-34.1493
-66.2526
-96.9916
-126.151
-153.572
-179.144
-202.801
-224.513
-244.283
-262.14
-278.129
-292.311
-304.757
-315.538
-324.729
-332.404
-338.629
-343.47
-346.99
-349.242
-350.252
-350.073
-348.74
-346.256
-342.622
-337.83
-331.853
-324.66
-316.208
-306.451
-295.332
-282.797
-268.796
-253.276
-236.191
-217.512
-197.218
-175.307
-151.799
-126.745
-100.225
-72.3458
-43.2306
-13.1654
17.6479
48.9363
80.3809
111.629
142.296
171.972
200.236
226.664
250.837
272.359
290.859
306.012
317.54
325.223
328.903
328.436
323.901
315.348
302.863
286.673
267.052
244.334
218.889
191.123
161.476
130.394
98.3166
65.6688
32.8359
0.171867
-31.7665
-59.9921
-88.0368
-114.792
-139.93
-163.285
-184.736
-204.225
-221.728
-237.285
-250.952
-262.827
-273.034
-281.715
-288.987
-294.982
-299.807
-303.556
-306.293
-308.065
-308.895
-308.761
-307.571
-305.379
-301.911
-297.218
-291.263
-284.015
-275.429
-265.444
-253.994
-240.995
-226.377
-210.068
-191.978
-172.056
-150.292
-126.668
-101.269
-74.1822
-45.5279
-15.1383
15.9572
47.9487
80.4882
113.246
145.842
177.899
209.08
238.997
267.275
293.6
317.632
339.075
357.656
373.132
385.322
394.078
399.293
400.869
398.681
392.953
383.679
370.97
355.029
336.057
314.315
290.098
263.704
235.447
205.688
174.775
143.064
110.9
78.6262
46.5966
15.1444
-15.2015
-44.4194
-72.7415
-99.7198
-125.16
-148.889
-170.79
-190.824
-208.968
-243.453
-231.002
-217.096
-201.697
-184.77
-166.244
-146.091
-124.285
-100.832
-75.7549
-49.1133
-20.9977
8.47957
39.1258
70.7398
103.069
135.839
168.774
201.527
233.729
265.027
295.009
323.251
349.399
373.082
393.966
411.753
426.174
437.032
444.173
447.492
446.924
442.445
434.228
422.322
406.91
388.238
366.563
342.181
315.46
286.76
256.464
224.945
192.574
159.738
126.782
94.0171
61.7298
30.1567
-0.5118
-30.1612
-54.9505
-81.6792
-106.84
-130.41
-152.373
-172.724
-191.465
-208.606
-224.167
-238.181
-250.681
-261.702
-271.277
-279.434
-286.193
-291.571
-295.58
-298.232
-299.539
-299.463
-297.75
-294.521
-289.761
-283.446
-275.57
-266.086
-254.962
-242.177
-227.725
-211.58
-193.739
-174.214
-152.991
-130.129
-105.664
-79.6372
-52.1967
-23.595
3.60336
33.7515
65.1179
97.1876
129.552
161.853
193.718
224.782
254.679
283.033
309.47
333.612
355.112
373.641
388.897
400.623
408.602
412.664
412.679
408.598
400.513
388.411
372.445
352.822
329.807
303.71
274.902
243.791
210.807
176.408
141.055
105.202
69.2871
33.7215
-1.11722
-34.8918
-67.317
-98.1703
-127.267
-154.471
-179.693
-202.881
-224.02
-243.12
-260.214
-275.346
-288.575
-299.97
-309.597
-317.529
-323.839
-328.591
-331.856
-333.701
-334.151
-333.277
-331.115
-327.687
-323.003
-317.058
-309.843
-301.329
-291.479
-280.246
-267.58
-253.436
-237.765
-220.527
-201.69
-181.237
-159.17
-135.516
-110.33
-83.6981
-55.7231
-26.1168
4.04935
34.9914
66.4615
98.1647
129.775
160.933
191.256
220.342
247.78
273.155
296.061
316.106
332.927
346.206
355.676
361.131
362.419
359.466
352.364
341.127
325.939
307.048
284.758
259.427
231.453
201.26
169.296
136.017
101.884
67.3482
32.8432
-1.22474
-34.4863
-66.6306
-97.3995
-126.578
-154.009
-179.584
-203.236
-224.939
-244.696
-262.536
-278.507
-292.671
-305.098
-315.861
-325.035
-332.693
-338.904
-343.733
-347.241
-349.481
-350.486
-350.303
-348.966
-346.483
-342.853
-338.066
-332.099
-324.915
-316.476
-306.733
-295.628
-283.108
-269.122
-253.615
-236.543
-217.874
-197.589
-175.681
-152.172
-127.111
-100.577
-72.677
-43.5276
-13.4226
17.4401
48.7881
80.3014
111.627
142.379
172.145
200.503
227.025
251.29
272.898
291.478
306.698
318.28
326
329.696
329.241
324.688
316.092
303.553
287.293
267.589
244.779
219.238
191.373
161.631
130.458
98.2966
65.5745
32.6786
-0.0390137
-32.0034
-60.3047
-88.3714
-115.14
-140.287
-163.647
-185.096
-204.576
-222.067
-237.607
-251.253
-263.106
-273.29
-281.948
-289.202
-295.181
-299.995
-303.737
-306.47
-308.242
-309.073
-308.945
-307.776
-305.596
-302.133
-297.444
-291.5
-284.266
-275.697
-265.732
-254.303
-241.326
-226.73
-210.442
-192.37
-172.461
-150.703
-127.077
-101.67
-74.5645
-45.884
-15.4671
15.6766
47.723
80.3246
113.151
145.819
177.953
209.213
239.21
267.567
293.968
318.074
339.584
358.223
373.749
385.979
394.762
399.99
401.577
399.39
393.635
384.323
371.57
355.575
336.541
314.73
290.441
263.971
235.637
205.802
174.815
143.033
110.801
78.4655
46.3804
14.8799
-15.4904
-44.7485
-73.1015
-100.104
-125.562
-149.303
-171.21
-191.245
-209.386
-243.798
-231.364
-217.475
-202.092
-185.183
-166.671
-146.53
-124.733
-101.285
-76.2052
-49.5546
-21.4196
8.08639
38.7702
70.4304
102.814
135.649
168.658
201.495
233.79
265.189
295.275
323.622
349.871
373.651
394.622
412.488
426.974
437.882
445.056
448.39
447.824
443.333
435.071
423.111
407.63
388.879
367.113
342.633
315.81
287.008
256.611
224.995
192.534
159.616
126.587
93.7601
61.4247
29.8193
-0.860556
-30.4898
-55.4765
-82.167
-107.309
-130.867
-152.819
-173.158
-191.886
-209.014
-224.562
-238.563
-251.05
-262.059
-271.624
-279.773
-286.526
-291.899
-295.908
-298.559
-299.865
-299.789
-298.081
-294.859
-290.108
-283.8
-275.931
-266.455
-255.339
-242.559
-228.111
-211.97
-194.131
-174.608
-153.389
-130.527
-106.057
-80.0161
-52.5326
-23.8212
3.0999
33.3789
64.8239
96.9612
129.394
161.774
193.728
224.888
254.887
283.347
309.89
334.136
355.734
374.353
389.689
401.482
409.509
413.601
413.631
409.551
401.43
389.281
373.249
353.544
330.431
304.226
275.303
244.072
210.968
176.452
140.988
105.033
69.0255
33.3793
-1.52707
-35.355
-67.8214
-98.7035
-127.817
-155.029
-180.249
-203.429
-224.555
-243.638
-260.712
-275.822
-289.03
-300.403
-310.008
-317.92
-324.211
-328.945
-332.195
-334.024
-334.465
-333.583
-331.416
-327.985
-323.303
-317.364
-310.157
-301.655
-291.819
-280.601
-267.953
-253.826
-238.17
-220.947
-202.122
-181.677
-159.614
-135.957
-110.759
-84.1028
-56.0789
-26.5177
3.71715
34.7215
66.2585
98.0368
129.732
160.985
191.41
220.604
248.153
273.641
296.657
316.805
333.718
347.075
356.604
362.097
363.402
360.45
353.309
342.018
326.756
307.773
285.376
259.931
231.839
201.525
169.441
136.049
101.807
67.1706
32.5761
-1.56826
-34.8918
-67.0855
-97.89
-127.092
-154.535
-180.112
-203.759
-225.45
-245.191
-263.011
-278.96
-293.102
-305.507
-316.248
-325.401
-333.041
-339.234
-344.047
-347.541
-349.768
-350.767
-350.578
-349.238
-346.756
-343.129
-338.35
-332.393
-325.222
-316.797
-307.071
-295.983
-283.482
-269.513
-254.022
-236.966
-218.31
-198.034
-176.131
-152.621
-127.551
-101
-73.0759
-43.8844
-13.7323
17.1896
48.6091
80.205
111.623
142.478
172.352
200.823
227.458
251.833
273.547
292.22
307.523
319.17
326.934
330.652
330.207
325.632
316.987
304.383
288.037
268.234
245.314
219.655
191.673
161.817
130.534
98.2716
65.4601
32.4887
-0.294152
-32.2893
-60.6804
-88.7737
-115.559
-140.717
-164.081
-185.529
-204.998
-222.475
-237.994
-251.614
-263.441
-273.596
-282.228
-289.459
-295.419
-300.22
-303.953
-306.681
-308.455
-309.289
-309.17
-308.028
-305.855
-302.397
-297.715
-291.784
-284.567
-276.019
-266.077
-254.674
-241.723
-227.155
-210.892
-192.841
-172.947
-151.196
-127.569
-102.151
-75.0237
-46.3087
-15.8662
15.3383
47.4514
80.1276
113.036
145.792
178.017
209.371
239.465
267.917
294.411
318.604
340.194
358.905
374.491
386.768
395.585
400.83
402.425
400.24
394.453
385.097
372.29
356.23
337.122
315.228
290.852
264.29
235.864
205.937
174.862
142.995
110.682
78.2719
46.1199
14.5607
-15.8366
-45.1438
-73.5341
-100.566
-126.045
-149.801
-171.714
-191.751
-209.888
-244.2
-231.785
-217.917
-202.553
-185.664
-167.169
-147.043
-125.257
-101.813
-76.7314
-50.0706
-21.9129
7.62662
38.3542
70.0683
102.516
135.426
168.522
201.457
233.861
265.377
295.585
324.054
350.423
374.314
395.389
413.346
427.909
438.875
446.089
449.441
448.875
444.366
436.055
424.032
408.471
389.627
367.756
343.16
316.219
287.298
256.782
225.053
192.486
159.471
126.358
93.4587
61.0667
29.4232
-1.27089
-30.8513
-56.1122
-82.7357
-107.856
-131.401
-153.339
-173.664
-192.377
-209.489
-225.023
-239.008
-251.481
-262.476
-272.03
-280.169
-286.914
-292.283
-296.289
-298.941
-300.244
-300.168
-298.468
-295.254
-290.512
-284.214
-276.353
-266.886
-255.779
-243.004
-228.561
-212.425
-194.59
-175.068
-153.852
-130.993
-106.517
-80.4619
-52.9306
-24.0855
2.51124
32.9491
64.4822
96.6966
129.21
161.682
193.739
225.012
255.13
283.712
310.379
334.747
356.46
375.185
390.614
402.484
410.569
414.697
414.743
410.661
402.502
390.297
374.188
354.386
331.16
304.828
275.77
244.399
211.155
176.503
140.909
104.833
68.7186
32.9781
-2.00711
-35.8972
-68.4114
-99.3272
-128.461
-155.681
-180.899
-204.07
-225.18
-244.243
-261.293
-276.379
-289.56
-300.908
-310.488
-318.377
-324.645
-329.359
-332.59
-334.401
-334.831
-333.94
-331.767
-328.333
-323.654
-317.721
-310.524
-302.036
-292.216
-281.017
-268.388
-254.28
-238.643
-221.437
-202.627
-182.192
-160.133
-136.472
-111.262
-84.5788
-56.5097
-26.9722
3.33122
34.4059
66.0203
97.8863
129.681
161.043
191.587
220.908
248.587
274.207
297.352
317.62
334.642
348.089
357.688
363.226
364.551
361.597
354.415
343.059
327.709
308.618
286.098
260.52
232.288
201.833
169.61
136.084
101.715
66.9618
32.2625
-1.97099
-35.3667
-67.618
-98.4639
-127.693
-155.15
-180.729
-204.37
-226.048
-245.769
-263.567
-279.49
-293.606
-305.984
-316.7
-325.829
-333.446
-339.619
-344.415
-347.892
-350.105
-351.093
-350.899
-349.555
-347.074
-343.452
-338.681
-332.735
-325.579
-317.173
-307.465
-296.398
-283.918
-269.97
-254.498
-237.46
-218.819
-198.554
-176.656
-153.145
-128.065
-101.495
-73.5434
-44.3013
-14.0952
16.8958
48.3988
80.0913
111.618
142.592
172.593
201.195
227.963
252.468
274.303
293.088
308.486
320.208
328.026
331.771
331.333
326.733
318.034
305.351
288.907
268.988
245.938
220.141
192.022
162.032
130.621
98.2409
65.325
32.2655
-0.593003
-32.6266
-61.1196
-89.2438
-116.049
-141.22
-164.589
-186.034
-205.492
-222.951
-238.445
-252.036
-263.832
-273.954
-282.554
-289.759
-295.697
-300.481
-304.204
-306.927
-308.701
-309.541
-309.436
-308.324
-306.155
-302.703
-298.03
-292.114
-284.918
-276.394
-266.48
-255.106
-242.186
-227.65
-211.416
-193.391
-173.515
-151.773
-128.145
-102.715
-75.5605
-46.8037
-16.3347
14.9422
47.1335
79.8967
112.9
145.759
178.091
209.556
239.762
268.325
294.927
319.222
340.906
359.701
375.357
387.689
396.546
401.813
403.416
401.229
395.407
386
373.132
356.994
337.8
315.809
291.332
264.663
236.129
206.095
174.916
142.95
110.542
78.0448
45.8143
14.1858
-16.2393
-45.6056
-74.0397
-101.106
-126.61
-150.382
-172.303
-192.341
-210.475
-244.659
-232.267
-218.422
-203.081
-186.213
-167.738
-147.63
-125.855
-102.417
-77.3339
-50.6618
-22.4783
7.09978
37.8775
69.6531
102.174
135.169
168.364
201.411
233.94
265.591
295.939
324.548
351.053
375.073
396.265
414.328
428.978
440.012
447.27
450.644
450.078
445.545
437.183
425.086
409.434
390.482
368.489
343.763
316.687
287.627
256.976
225.118
192.43
159.305
126.095
93.1123
60.655
28.9672
-1.74519
-31.2723
-56.8317
-83.3838
-108.48
-132.01
-153.934
-174.243
-192.938
-210.033
-225.549
-239.517
-251.973
-262.953
-272.493
-280.621
-287.357
-292.721
-296.724
-299.375
-300.677
-300.602
-298.91
-295.705
-290.974
-284.687
-276.837
-267.379
-256.282
-243.514
-229.077
-212.946
-195.114
-175.594
-154.383
-131.526
-107.044
-80.976
-53.395
-24.3932
1.84304
32.4651
64.0934
96.3935
128.998
161.575
193.751
225.152
255.406
284.13
310.938
335.445
357.291
376.136
391.673
403.631
411.782
415.952
416.017
411.929
403.73
391.46
375.263
355.35
331.993
305.517
276.305
244.773
211.368
176.559
140.817
104.604
68.3658
32.5173
-2.55804
-36.519
-69.0878
-100.042
-129.198
-156.427
-181.643
-204.803
-225.895
-244.935
-261.958
-277.015
-290.167
-301.485
-311.037
-318.899
-325.141
-329.832
-333.042
-334.833
-335.249
-334.348
-332.168
-328.731
-324.054
-318.129
-310.943
-302.471
-292.67
-281.491
-268.885
-254.8
-239.184
-221.998
-203.204
-182.781
-160.728
-137.063
-111.839
-85.1272
-57.0146
-27.4825
2.89143
34.0443
65.7463
97.7125
129.621
161.109
191.789
221.255
249.083
274.854
298.147
318.553
335.7
349.251
358.93
364.52
365.868
362.909
355.68
344.251
328.801
309.585
286.923
261.192
232.8
202.183
169.802
136.122
101.608
66.7209
31.9021
-2.43382
-35.9118
-68.2288
-99.1219
-128.382
-155.854
-181.436
-205.07
-226.731
-246.431
-264.201
-280.096
-294.182
-306.53
-317.216
-326.318
-333.91
-340.06
-344.834
-348.293
-350.489
-351.466
-351.265
-349.917
-347.437
-343.821
-339.059
-333.127
-325.988
-317.602
-307.916
-296.872
-284.417
-270.492
-255.042
-238.025
-219.402
-199.149
-177.258
-153.745
-128.653
-102.062
-74.0804
-44.7784
-14.5119
16.558
48.1563
79.9595
111.61
142.721
172.866
201.619
228.54
253.193
275.169
294.081
309.588
321.398
329.276
333.053
332.622
327.994
319.232
306.461
289.903
269.85
246.65
220.697
192.421
162.276
130.719
98.2039
65.1685
32.0081
-0.93528
-33.0174
-61.623
-89.7822
-116.61
-141.795
-165.171
-186.613
-206.057
-223.496
-238.962
-252.519
-264.278
-274.362
-282.926
-290.1
-296.013
-300.779
-304.49
-307.207
-308.982
-309.829
-309.745
-308.666
-306.496
-303.05
-298.389
-292.491
-285.32
-276.822
-266.94
-255.6
-242.717
-228.216
-212.017
-194.021
-174.166
-152.433
-128.805
-103.361
-76.1759
-47.3701
-16.8721
14.4878
46.7687
79.6314
112.744
145.72
178.174
209.766
240.101
268.792
295.517
319.929
341.72
360.611
376.348
388.743
397.645
402.938
404.552
402.356
396.498
387.033
374.094
357.869
338.575
316.473
291.88
265.089
236.431
206.275
174.977
142.897
110.381
77.7837
45.463
13.7536
-16.6977
-46.1343
-74.6187
-101.724
-127.256
-151.047
-172.978
-193.017
-211.145
-245.175
-232.809
-218.99
-203.675
-186.832
-168.38
-148.29
-126.53
-103.098
-78.0132
-51.3286
-23.1163
6.50529
37.3393
69.184
101.787
134.878
168.184
201.358
234.027
265.83
296.337
325.104
351.761
375.927
397.252
415.433
430.183
441.292
448.602
452
451.433
446.872
438.453
426.273
410.518
391.445
369.315
344.441
317.212
287.997
257.193
225.19
192.365
159.116
125.797
92.7201
60.1886
28.4497
-2.28605
-31.769
-57.6195
-84.1094
-109.181
-132.695
-154.603
-174.894
-193.57
-210.645
-226.141
-240.089
-252.526
-263.489
-273.014
-281.129
-287.855
-293.214
-297.213
-299.863
-301.165
-301.089
-299.408
-296.213
-291.494
-285.221
-277.381
-267.934
-256.848
-244.088
-229.657
-213.532
-195.704
-176.186
-154.98
-132.127
-107.638
-81.56
-53.9309
-24.7602
1.11069
31.9308
63.6583
96.0517
128.759
161.453
193.761
225.308
255.716
284.598
311.567
336.231
358.225
377.208
392.865
404.922
413.149
417.367
417.453
413.358
405.114
392.771
376.474
356.436
332.932
306.292
276.905
245.192
211.606
176.621
140.71
104.343
67.966
31.996
-3.18072
-37.2214
-69.8514
-100.848
-130.03
-157.269
-182.482
-205.629
-226.701
-245.714
-262.707
-277.731
-290.851
-302.135
-311.655
-319.486
-325.699
-330.364
-333.55
-335.32
-335.719
-334.806
-332.618
-329.179
-324.504
-318.587
-311.415
-302.961
-293.181
-282.026
-269.445
-255.385
-239.793
-222.63
-203.855
-183.444
-161.398
-137.73
-112.49
-85.7492
-57.5925
-28.0507
2.39738
33.6361
65.436
97.5146
129.551
161.18
192.014
221.643
249.641
275.582
299.041
319.603
336.891
350.56
360.329
365.979
367.353
364.386
357.108
345.595
330.031
310.674
287.852
261.948
233.375
202.577
170.017
136.163
101.485
66.4471
31.4938
-2.95777
-36.5278
-68.9186
-99.865
-129.159
-156.648
-182.234
-205.858
-227.501
-247.176
-264.916
-280.778
-294.83
-307.144
-317.797
-326.869
-334.431
-340.555
-345.306
-348.744
-350.922
-351.887
-351.677
-350.324
-347.845
-344.235
-339.483
-333.567
-326.448
-318.084
-308.424
-297.405
-284.978
-271.079
-255.655
-238.662
-220.058
-199.82
-177.936
-154.421
-129.318
-102.703
-74.6872
-45.3169
-14.9834
16.1754
47.8813
79.8088
111.6
142.864