/*--------------------------------*- C++ -*----------------------------------*\
| =========                 |                                                 |
| \\      /  F ield         | OpenFOAM: The Open Source CFD Toolbox           |
|  \\    /   O peration     | Version:  3.0.1                                 |
|   \\  /    A nd           | Web:      www.OpenFOAM.org                      |
|    \\/     M anipulation  |                                                 |
\*---------------------------------------------------------------------------*/
FoamFile
{
    version     2.0;
    format      ascii;
    class       volScalarField;
    location    "36.6";
    object      p;
}
// * * * * * * * * * * * * * * * * * * * * * * * * * * * * * * * * * * * * * //

dimensions      [1 -1 -2 0 0 0 0];

internalField   nonuniform List<scalar> 
21420
(
4338.28
4331.76
4321.48
4307.59
4290.28
4269.8
4246.42
4220.48
4192.3
4162.26
4130.75
4098.14
4064.84
4031.22
3997.64
3964.45
3931.99
3900.73
3873.72
3845.21
3817.74
3791.71
3767.27
3744.49
3723.4
3703.99
3686.23
3670.1
3655.56
3642.56
3631.06
3621.02
3612.38
3605.14
3599.24
3594.69
3591.46
3589.57
3589.06
3589.93
3592.18
3595.88
3601.09
3607.86
3616.24
3626.3
3638.1
3651.69
3667.13
3684.46
3703.7
3724.86
3747.9
3772.79
3799.45
3827.76
3857.59
3888.64
3920.8
3953.87
3987.52
4021.41
4055.2
4088.52
4121.03
4152.33
4182.08
4209.91
4235.47
4258.45
4278.53
4295.44
4308.96
4318.88
4325.05
4327.3
4325.66
4320.04
4310.51
4297.2
4280.27
4259.93
4236.46
4210.14
4181.33
4150.39
4117.71
4083.68
4048.72
4013.22
3977.58
3942.16
3907.32
3873.4
3840.67
3809.39
3779.79
3752.02
3726.22
3702.46
3680.78
3661.19
3643.66
3628.15
3614.59
3602.91
3593.04
3584.9
3578.44
3573.61
3570.33
3568.6
3568.41
3569.71
3572.47
3576.72
3582.45
3589.68
3598.41
3608.66
3620.45
3633.78
3648.68
3665.15
3683.2
3702.83
3724.04
3746.79
3771.07
3796.82
3823.97
3852.44
3882.09
3912.77
3944.29
3976.39
4008.79
4041.18
4073.22
4104.54
4134.75
4163.42
4190.17
4214.58
4236.27
4254.87
4270.08
4281.6
4289.21
4292.74
4292.12
4287.29
4278.34
4265.33
4248.47
4227.99
4204.22
4177.51
4148.29
4116.98
4084.05
4049.98
4015.22
3980.23
3945.44
3911.24
3877.96
3845.91
3815.31
3786.35
3759.16
3733.82
3710.4
3688.9
3669.31
3651.61
3635.77
3621.71
3609.39
3598.74
3589.69
3582.18
3576.15
3571.54
3568.3
3566.41
3565.86
3566.57
3568.55
3571.8
3576.34
3582.18
3589.36
3597.93
3607.92
3619.38
3632.35
3646.88
3663
3680.76
3700.18
3721.24
3743.95
3768.25
3794.07
3821.33
3849.9
3879.61
3910.29
3941.81
3973.69
4005.74
4037.62
4068.97
4099.39
4128.5
4155.86
4181.09
4203.78
4223.58
4240.15
4253.21
4262.52
4267.93
4269.26
4266.61
4259.93
4249.34
4235
4217.15
4196.08
4172.12
4145.63
4117.03
4086.72
4055.13
4022.68
3989.77
3956.78
3924.07
3891.95
3860.7
3830.56
3801.72
3774.35
3748.57
3724.45
3702.07
3681.45
3662.59
3645.49
3630.13
3616.46
3604.46
3594.08
3585.26
3577.97
3572.16
3567.8
3564.82
3563.23
3563.02
3564.14
3566.57
3570.33
3575.42
3581.83
3589.59
3598.72
3609.22
3621.12
3634.44
3649.21
3665.43
3683.14
3702.34
3723.03
3745.19
3768.79
3793.8
3820.1
3847.63
3876.27
3905.95
3936.81
3967.71
3998.66
4029.44
4059.75
4089.23
4117.52
4144.22
4168.96
4191.36
4211.07
4227.76
4241.16
4250.99
4257.08
4259.28
4257.23
4251.17
4241.24
4227.58
4210.44
4190.08
4166.83
4141.07
4113.2
4083.63
4052.81
4021.17
3989.15
3957.12
3925.47
3894.79
3865.28
3836.57
3808.9
3782.51
3757.54
3734.1
3712.23
3691.95
3673.27
3656.18
3640.65
3626.66
3614.18
3603.19
3593.67
3585.6
3578.98
3573.8
3570.05
3567.77
3566.99
3567.85
3570.24
3574.2
3579.72
3586.79
3595.43
3605.64
3617.42
3630.77
3645.67
3662.1
3680.04
3699.46
3720.29
3742.49
3765.92
3790.42
3815.73
3841.03
3861.27
4240.34
4233.8
4223.51
4209.62
4192.29
4171.8
4148.41
4122.45
4094.25
4064.19
4032.66
4000.04
3966.73
3933.09
3899.51
3866.3
3833.82
3802.54
3775.57
3747.04
3719.57
3693.53
3669.09
3646.32
3625.22
3605.81
3588.06
3571.94
3557.4
3544.4
3532.9
3522.86
3514.23
3506.98
3501.09
3496.54
3493.31
3491.42
3490.91
3491.77
3494.02
3497.72
3502.93
3509.7
3518.08
3528.13
3539.93
3553.51
3568.95
3586.28
3605.52
3626.67
3649.72
3674.61
3701.27
3729.59
3759.42
3790.48
3822.65
3855.73
3889.39
3923.29
3957.09
3990.43
4022.95
4054.27
4084.03
4111.88
4137.46
4160.45
4180.54
4197.47
4211
4220.93
4227.1
4229.36
4227.71
4222.09
4212.56
4199.24
4182.29
4161.94
4138.45
4112.12
4083.29
4052.33
4019.63
3985.59
3950.61
3915.1
3879.44
3844.01
3809.16
3775.22
3742.49
3711.21
3681.6
3653.83
3628.02
3604.26
3582.59
3563
3545.47
3529.97
3516.41
3504.73
3494.86
3486.73
3480.28
3475.45
3472.17
3470.44
3470.25
3471.55
3474.31
3478.56
3484.29
3491.52
3500.25
3510.5
3522.28
3535.61
3550.51
3566.98
3585.03
3604.66
3625.86
3648.62
3672.9
3698.65
3725.8
3754.27
3783.92
3814.62
3846.15
3878.25
3910.66
3943.07
3975.13
4006.46
4036.68
4065.38
4092.14
4116.57
4138.28
4156.9
4172.12
4183.65
4191.27
4194.81
4194.18
4189.35
4180.4
4167.38
4150.5
4130.01
4106.22
4079.49
4050.24
4018.91
3985.97
3951.87
3917.1
3882.1
3847.29
3813.08
3779.79
3747.73
3717.12
3688.16
3660.97
3635.63
3612.21
3590.71
3571.13
3553.43
3537.59
3523.54
3511.22
3500.57
3491.53
3484.02
3477.99
3473.39
3470.15
3468.26
3467.71
3468.42
3470.4
3473.65
3478.18
3484.03
3491.21
3499.77
3509.76
3521.21
3534.18
3548.71
3564.83
3582.59
3602
3623.07
3645.77
3670.07
3695.9
3723.17
3751.73
3781.45
3812.14
3843.67
3875.56
3907.62
3939.51
3970.88
4001.32
4030.44
4057.83
4083.07
4105.78
4125.6
4142.18
4155.25
4164.57
4169.98
4171.32
4168.66
4161.98
4151.38
4137.03
4119.17
4098.08
4074.1
4047.6
4018.97
3988.65
3957.04
3924.57
3891.65
3858.65
3825.93
3793.8
3762.54
3732.39
3703.55
3676.18
3650.39
3626.28
3603.89
3583.27
3564.42
3547.32
3531.95
3518.29
3506.3
3495.91
3487.1
3479.81
3474
3469.64
3466.66
3465.08
3464.87
3465.99
3468.42
3472.18
3477.26
3483.67
3491.43
3500.56
3511.06
3522.96
3536.28
3551.04
3567.27
3584.98
3604.17
3624.86
3647.03
3670.63
3695.63
3721.93
3749.46
3778.12
3807.8
3838.67
3869.58
3900.54
3931.34
3961.66
3991.16
4019.46
4046.18
4070.94
4093.36
4113.08
4129.79
4143.19
4153.03
4159.14
4161.34
4159.28
4153.21
4143.28
4129.61
4112.46
4092.08
4068.81
4043.03
4015.14
3985.56
3954.72
3923.06
3891.02
3858.99
3827.32
3796.63
3767.12
3738.4
3710.73
3684.34
3659.37
3635.93
3614.06
3593.78
3575.1
3558.01
3542.48
3528.5
3516.02
3505.03
3495.51
3487.44
3480.82
3475.64
3471.9
3469.62
3468.83
3469.69
3472.08
3476.04
3481.56
3488.63
3497.27
3507.47
3519.26
3532.61
3547.5
3563.93
3581.88
3601.29
3622.13
3644.33
3667.76
3692.27
3717.58
3742.89
3763.14
4142.54
4136
4125.69
4111.77
4094.43
4073.9
4050.48
4024.49
3996.25
3966.16
3934.6
3901.94
3868.6
3834.94
3801.33
3768.1
3735.59
3704.27
3677.39
3648.81
3621.31
3595.27
3570.83
3548.06
3526.97
3507.57
3489.82
3473.7
3459.17
3446.18
3434.68
3424.64
3416.02
3408.77
3402.88
3398.33
3395.1
3393.22
3392.7
3393.56
3395.8
3399.5
3404.7
3411.47
3419.84
3429.89
3441.68
3455.26
3470.69
3488.02
3507.26
3528.4
3551.45
3576.34
3603.01
3631.33
3661.17
3692.25
3724.44
3757.53
3791.22
3825.15
3858.97
3892.34
3924.89
3956.25
3986.04
4013.92
4039.53
4062.56
4082.67
4099.62
4113.17
4123.12
4129.3
4131.59
4129.91
4124.29
4114.75
4101.41
4084.44
4064.06
4040.54
4014.17
3985.31
3954.32
3921.58
3887.51
3852.5
3816.95
3781.26
3745.8
3710.94
3676.98
3644.23
3612.93
3583.31
3555.54
3529.73
3505.97
3484.3
3464.72
3447.2
3431.7
3418.15
3406.49
3396.62
3388.5
3382.05
3377.22
3373.95
3372.22
3372.04
3373.33
3376.09
3380.34
3386.07
3393.3
3402.03
3412.27
3424.05
3437.38
3452.28
3468.74
3486.79
3506.42
3527.62
3550.38
3574.66
3600.41
3627.57
3656.04
3685.71
3716.41
3747.96
3780.08
3812.51
3844.95
3877.04
3908.41
3938.66
3967.39
3994.19
4018.66
4040.4
4059.05
4074.29
4085.85
4093.49
4097.05
4096.4
4091.57
4082.6
4069.57
4052.66
4032.14
4008.31
3981.55
3952.26
3920.89
3887.9
3853.77
3818.96
3783.93
3749.09
3714.86
3681.55
3649.47
3618.85
3589.89
3562.69
3537.36
3513.94
3492.44
3472.86
3455.18
3439.34
3425.29
3412.98
3402.34
3393.3
3385.8
3379.78
3375.18
3371.94
3370.06
3369.51
3370.22
3372.19
3375.44
3379.98
3385.82
3393
3401.55
3411.53
3422.99
3435.95
3450.47
3466.59
3484.35
3503.75
3524.82
3547.52
3571.83
3597.66
3624.93
3653.51
3683.23
3713.93
3745.49
3777.4
3809.48
3841.41
3872.8
3903.28
3932.44
3959.86
3985.14
4007.89
4027.73
4044.35
4057.44
4066.78
4072.2
4073.55
4070.87
4064.18
4053.56
4039.19
4021.3
4000.18
3976.16
3949.63
3920.96
3890.6
3858.96
3826.46
3793.5
3760.48
3727.73
3695.59
3664.31
3634.15
3605.3
3577.92
3552.13
3528.02
3505.64
3485.02
3466.16
3449.07
3433.71
3420.06
3408.06
3397.68
3388.88
3381.59
3375.79
3371.43
3368.45
3366.87
3366.67
3367.78
3370.22
3373.97
3379.06
3385.47
3393.22
3402.35
3412.85
3424.74
3438.06
3452.82
3469.04
3486.75
3505.94
3526.63
3548.79
3572.39
3597.4
3623.7
3651.24
3679.9
3709.59
3740.49
3771.42
3802.4
3833.22
3863.57
3893.1
3921.44
3948.2
3972.99
3995.44
4015.2
4031.93
4045.36
4055.22
4061.34
4063.57
4061.48
4055.41
4045.46
4031.77
4014.59
3994.18
3970.88
3945.06
3917.13
3887.52
3856.64
3824.95
3792.88
3760.81
3729.13
3698.43
3668.9
3640.18
3612.49
3586.1
3561.12
3537.68
3515.81
3495.54
3476.87
3459.78
3444.25
3430.27
3417.8
3406.81
3397.29
3389.23
3382.61
3377.43
3373.68
3371.4
3370.62
3371.47
3373.86
3377.82
3383.33
3390.4
3399.04
3409.25
3421.03
3434.38
3449.27
3465.7
3483.65
3503.06
3523.9
3546.1
3569.54
3594.05
3619.37
3644.69
3664.98
4044.9
4038.34
4028.01
4014.06
3996.68
3976.11
3952.64
3926.6
3898.31
3868.17
3836.55
3803.85
3770.46
3736.76
3703.11
3669.85
3637.29
3605.9
3579.15
3550.51
3522.99
3496.94
3472.5
3449.73
3428.65
3409.25
3391.51
3375.4
3360.87
3347.89
3336.4
3326.37
3317.75
3310.51
3304.62
3300.07
3296.85
3294.96
3294.44
3295.29
3297.53
3301.22
3306.42
3313.18
3321.54
3331.58
3343.36
3356.93
3372.35
3389.67
3408.91
3430.05
3453.1
3477.99
3504.66
3533
3562.86
3593.95
3626.17
3659.29
3693.01
3726.98
3760.84
3794.26
3826.86
3858.26
3888.11
3916.03
3941.7
3964.76
3984.92
4001.9
4015.49
4025.46
4031.66
4033.96
4032.26
4026.64
4017.08
4003.71
3986.71
3966.3
3942.73
3916.31
3887.39
3856.35
3823.56
3789.43
3754.37
3718.78
3683.05
3647.55
3612.65
3578.66
3545.89
3514.57
3484.94
3457.16
3431.35
3407.59
3385.93
3366.35
3348.85
3333.36
3319.82
3308.16
3298.31
3290.19
3283.75
3278.93
3275.66
3273.95
3273.76
3275.05
3277.81
3282.06
3287.79
3295.02
3303.74
3313.98
3325.76
3339.09
3353.97
3370.44
3388.48
3408.11
3429.31
3452.06
3476.34
3502.1
3529.27
3557.75
3587.43
3618.15
3649.72
3681.87
3714.34
3746.82
3778.95
3810.37
3840.68
3869.46
3896.32
3920.84
3942.63
3961.33
3976.61
3988.2
3995.86
3999.45
3998.78
3993.95
3984.97
3971.9
3954.96
3934.39
3910.51
3883.69
3854.34
3822.9
3789.86
3755.67
3720.81
3685.72
3650.84
3616.57
3583.24
3551.13
3520.5
3491.53
3464.33
3439
3415.58
3394.09
3374.52
3356.84
3341.01
3326.98
3314.68
3304.04
3295.02
3287.52
3281.51
3276.91
3273.68
3271.81
3271.25
3271.96
3273.94
3277.19
3281.72
3287.56
3294.73
3303.28
3313.25
3324.7
3337.66
3352.17
3368.28
3386.03
3405.43
3426.5
3449.2
3473.51
3499.35
3526.62
3555.21
3584.96
3615.68
3647.27
3679.21
3711.33
3743.3
3774.74
3805.28
3834.48
3861.96
3887.3
3910.09
3929.99
3946.64
3959.77
3969.13
3974.57
3975.94
3973.23
3966.53
3955.89
3941.48
3923.55
3902.38
3878.31
3851.72
3823
3792.58
3760.89
3728.34
3695.34
3662.27
3629.5
3597.32
3566.02
3535.84
3506.98
3479.59
3453.8
3429.68
3407.3
3386.68
3367.84
3350.75
3335.4
3321.75
3309.76
3299.39
3290.59
3283.31
3277.51
3273.16
3270.19
3268.61
3268.41
3269.52
3271.96
3275.72
3280.8
3287.2
3294.96
3304.08
3314.57
3326.46
3339.78
3354.53
3370.75
3388.45
3407.64
3428.33
3450.49
3474.09
3499.1
3525.41
3552.96
3581.63
3611.33
3642.27
3673.23
3704.24
3735.1
3765.49
3795.07
3823.46
3850.27
3875.11
3897.62
3917.42
3934.2
3947.67
3957.56
3963.69
3965.95
3963.83
3957.75
3947.78
3934.07
3916.85
3896.38
3873.03
3847.16
3819.17
3789.5
3758.57
3726.82
3694.7
3662.59
3630.89
3600.17
3570.62
3541.88
3514.19
3487.78
3462.8
3439.36
3417.49
3397.23
3378.56
3361.48
3345.96
3331.98
3319.51
3308.53
3299.02
3290.96
3284.33
3279.15
3275.41
3273.13
3272.34
3273.19
3275.58
3279.54
3285.05
3292.11
3300.75
3310.95
3322.73
3336.08
3350.98
3367.41
3385.35
3404.77
3425.61
3447.82
3471.26
3495.78
3521.11
3546.45
3566.79
3947.41
3940.83
3930.47
3916.48
3899.04
3878.41
3854.89
3828.78
3800.42
3770.21
3738.52
3705.75
3672.31
3638.55
3604.86
3571.54
3538.93
3507.44
3480.87
3452.13
3424.58
3398.52
3374.09
3351.32
3330.25
3310.86
3293.13
3277.03
3262.51
3249.54
3238.06
3228.04
3219.43
3212.19
3206.31
3201.76
3198.54
3196.65
3196.13
3196.96
3199.2
3202.88
3208.07
3214.82
3223.17
3233.2
3244.97
3258.53
3273.94
3291.25
3310.48
3331.62
3354.66
3379.56
3406.24
3434.59
3464.47
3495.59
3527.84
3561.01
3594.77
3628.79
3662.71
3696.19
3728.85
3760.32
3790.23
3818.22
3843.94
3867.07
3887.28
3904.31
3917.94
3927.94
3934.16
3936.49
3934.78
3929.14
3919.56
3906.16
3889.11
3868.64
3845.01
3818.52
3789.54
3758.42
3725.56
3691.37
3656.24
3620.58
3584.79
3549.25
3514.3
3480.27
3447.46
3416.13
3386.48
3358.69
3332.87
3309.12
3287.46
3267.9
3250.41
3234.93
3221.41
3209.77
3199.93
3191.83
3185.39
3180.58
3177.32
3175.61
3175.42
3176.71
3179.48
3183.72
3189.45
3196.67
3205.39
3215.63
3227.4
3240.72
3255.61
3272.06
3290.11
3309.73
3330.93
3353.68
3377.96
3403.72
3430.89
3459.39
3489.09
3519.84
3551.44
3583.63
3616.15
3648.68
3680.87
3712.36
3742.73
3771.59
3798.52
3823.11
3844.97
3863.74
3879.07
3890.7
3898.4
3902
3901.35
3896.5
3887.49
3874.38
3857.39
3836.75
3812.8
3785.9
3756.47
3724.96
3691.83
3657.56
3622.63
3587.48
3552.55
3518.23
3484.85
3452.72
3422.07
3393.08
3365.88
3340.55
3317.13
3295.65
3276.09
3258.43
3242.61
3228.59
3216.3
3205.68
3196.67
3189.18
3183.18
3178.59
3175.37
3173.5
3172.95
3173.66
3175.64
3178.89
3183.41
3189.24
3196.4
3204.95
3214.91
3226.35
3239.3
3253.8
3269.9
3287.64
3307.04
3328.1
3350.81
3375.12
3400.96
3428.25
3456.86
3486.63
3517.38
3549
3580.99
3613.16
3645.19
3676.7
3707.3
3736.58
3764.13
3789.53
3812.4
3832.36
3849.07
3862.24
3871.64
3877.09
3878.48
3875.76
3869.04
3858.36
3843.9
3825.92
3804.68
3780.54
3753.88
3725.08
3694.59
3662.83
3630.21
3597.15
3564.03
3531.21
3498.99
3467.66
3437.46
3408.58
3381.18
3355.38
3331.26
3308.89
3288.28
3269.43
3252.35
3237.01
3223.37
3211.4
3201.04
3192.24
3184.98
3179.18
3174.83
3171.87
3170.3
3170.09
3171.21
3173.65
3177.41
3182.48
3188.89
3196.64
3205.76
3216.24
3228.13
3241.43
3256.18
3272.39
3290.09
3309.27
3329.96
3352.12
3375.72
3400.73
3427.05
3454.61
3483.29
3513.01
3544.01
3575
3606.06
3636.97
3667.42
3697.07
3725.52
3752.4
3777.31
3799.89
3819.75
3836.59
3850.11
3860.04
3866.2
3868.47
3866.35
3860.25
3850.24
3836.49
3819.21
3798.69
3775.27
3749.32
3721.25
3691.5
3660.5
3628.69
3596.5
3564.34
3532.59
3501.86
3472.29
3443.52
3415.81
3389.39
3364.41
3340.97
3319.1
3298.84
3280.18
3263.11
3247.6
3233.63
3221.17
3210.19
3200.68
3192.62
3186.01
3180.83
3177.08
3174.8
3174
3174.85
3177.24
3181.2
3186.7
3193.77
3202.4
3212.6
3224.38
3237.72
3252.61
3269.05
3286.99
3306.41
3327.26
3349.47
3372.92
3397.45
3422.8
3448.16
3468.57
3850.08
3843.47
3833.07
3819.02
3801.52
3780.82
3757.22
3731.02
3702.58
3672.28
3640.51
3607.66
3574.14
3540.32
3506.56
3473.19
3440.51
3408.9
3382.54
3353.69
3326.1
3300.03
3275.6
3252.84
3231.77
3212.39
3194.68
3178.59
3164.09
3151.13
3139.66
3129.65
3121.05
3113.82
3107.94
3103.4
3100.18
3098.29
3097.76
3098.59
3100.82
3104.49
3109.67
3116.4
3124.74
3134.75
3146.51
3160.05
3175.44
3192.74
3211.96
3233.1
3256.14
3281.04
3307.74
3336.11
3366
3397.16
3429.46
3462.67
3496.49
3530.57
3564.57
3598.12
3630.86
3662.41
3692.4
3720.47
3746.28
3769.48
3789.76
3806.85
3820.53
3830.57
3836.82
3839.16
3837.46
3831.8
3822.18
3808.74
3791.63
3771.09
3747.38
3720.82
3691.74
3660.54
3627.59
3593.31
3558.1
3522.36
3486.5
3450.89
3415.88
3381.81
3348.96
3317.6
3287.93
3260.12
3234.3
3210.55
3188.9
3169.36
3151.88
3136.42
3122.92
3111.3
3101.48
3093.39
3086.97
3082.16
3078.92
3077.21
3077.02
3078.32
3081.08
3085.33
3091.05
3098.27
3106.98
3117.22
3128.98
3142.3
3157.17
3173.62
3191.66
3211.28
3232.47
3255.23
3279.51
3305.27
3332.46
3360.97
3390.69
3421.47
3453.11
3485.35
3517.93
3550.53
3582.8
3614.36
3644.83
3673.78
3700.8
3725.48
3747.43
3766.27
3781.67
3793.36
3801.09
3804.71
3804.07
3799.21
3790.16
3777.01
3759.95
3739.24
3715.2
3688.2
3658.67
3627.05
3593.82
3559.46
3524.43
3489.2
3454.2
3419.82
3386.39
3354.23
3323.55
3294.55
3267.34
3242.01
3218.6
3197.13
3177.59
3159.93
3144.13
3130.13
3117.86
3107.26
3098.26
3090.79
3084.79
3080.21
3077.01
3075.14
3074.59
3075.31
3077.29
3080.53
3085.05
3090.87
3098.03
3106.56
3116.51
3127.93
3140.87
3155.36
3171.46
3189.18
3208.57
3229.63
3252.33
3276.65
3302.51
3329.81
3358.44
3388.24
3419.02
3450.7
3482.74
3514.97
3547.07
3578.66
3609.35
3638.72
3666.36
3691.86
3714.81
3734.85
3751.63
3764.86
3774.3
3779.78
3781.18
3778.45
3771.7
3760.97
3746.46
3728.4
3707.09
3682.86
3656.1
3627.21
3596.63
3564.77
3532.07
3498.94
3465.76
3432.88
3400.61
3369.24
3339.01
3310.11
3282.7
3256.89
3232.77
3210.39
3189.79
3170.95
3153.89
3138.56
3124.93
3112.97
3102.62
3093.84
3086.58
3080.8
3076.45
3073.5
3071.94
3071.73
3072.85
3075.29
3079.04
3084.12
3090.52
3098.26
3107.38
3117.86
3129.73
3143.03
3157.77
3173.98
3191.66
3210.84
3231.52
3253.68
3277.28
3302.3
3328.62
3356.2
3384.9
3414.64
3445.7
3476.75
3507.86
3538.83
3569.36
3599.08
3627.62
3654.59
3679.59
3702.25
3722.2
3739.1
3752.68
3762.66
3768.86
3771.15
3769.02
3762.9
3752.85
3739.04
3721.7
3701.09
3677.58
3651.54
3623.38
3593.54
3562.44
3530.54
3498.28
3466.04
3434.25
3403.5
3373.89
3345.1
3317.36
3290.93
3265.94
3242.5
3220.64
3200.39
3181.74
3164.67
3149.18
3135.22
3122.76
3111.8
3102.29
3094.24
3087.62
3082.44
3078.7
3076.41
3075.61
3076.46
3078.84
3082.79
3088.3
3095.35
3103.98
3114.18
3125.95
3139.3
3154.19
3170.62
3188.56
3207.98
3228.84
3251.06
3274.52
3299.07
3324.44
3349.82
3370.33
3752.9
3746.26
3735.8
3721.69
3704.12
3683.33
3659.63
3633.34
3604.79
3574.39
3542.52
3509.57
3475.96
3442.06
3408.23
3374.79
3342.03
3310.28
3284.16
3255.17
3227.54
3201.46
3177.03
3154.27
3133.22
3113.85
3096.15
3080.08
3065.6
3052.65
3041.2
3031.2
3022.61
3015.39
3009.52
3004.98
3001.76
2999.87
2999.33
3000.15
3002.38
3006.04
3011.2
3017.92
3026.23
3036.23
3047.97
3061.5
3076.87
3094.16
3113.36
3134.5
3157.54
3182.44
3209.15
3237.54
3267.47
3298.67
3331.02
3364.29
3398.18
3432.34
3466.41
3500.06
3532.89
3564.54
3594.63
3622.8
3648.7
3671.99
3692.36
3709.52
3723.26
3733.35
3739.63
3741.99
3740.29
3734.61
3724.95
3711.45
3694.28
3673.66
3649.85
3623.19
3594.01
3562.7
3529.64
3495.26
3459.94
3424.12
3388.17
3352.48
3317.41
3283.28
3250.38
3218.98
3189.28
3161.46
3135.64
3111.89
3090.25
3070.72
3053.27
3037.84
3024.36
3012.76
3002.96
2994.89
2988.48
2983.69
2980.45
2978.76
2978.57
2979.86
2982.63
2986.87
2992.6
2999.81
3008.51
3018.74
3030.5
3043.8
3058.67
3075.12
3093.14
3112.76
3133.95
3156.7
3180.98
3206.75
3233.95
3262.48
3292.23
3323.05
3354.74
3387.04
3419.69
3452.36
3484.72
3516.39
3546.96
3576.02
3603.15
3627.94
3649.99
3668.93
3684.42
3696.17
3703.95
3707.59
3706.97
3702.09
3693
3679.78
3662.64
3641.84
3617.69
3590.57
3560.92
3529.18
3495.83
3461.35
3426.22
3390.89
3355.8
3321.35
3287.86
3255.65
3224.95
3195.93
3168.71
3143.38
3119.99
3098.53
3079
3061.36
3045.58
3031.6
3019.35
3008.77
2999.78
2992.33
2986.35
2981.79
2978.59
2976.74
2976.19
2976.91
2978.89
2982.13
2986.64
2992.45
2999.59
3008.11
3018.05
3029.46
3042.38
3056.86
3072.94
3090.65
3110.03
3131.08
3153.79
3178.11
3203.98
3231.3
3259.96
3289.79
3320.61
3352.36
3384.45
3416.77
3448.96
3480.64
3511.43
3540.91
3568.66
3594.27
3617.33
3637.46
3654.33
3667.63
3677.12
3682.63
3684.03
3681.3
3674.51
3663.73
3649.15
3631
3609.59
3585.26
3558.39
3529.39
3498.69
3466.73
3433.93
3400.71
3367.44
3334.5
3302.18
3270.76
3240.49
3211.57
3184.14
3158.32
3134.2
3111.82
3091.22
3072.4
3055.34
3040.03
3026.42
3014.47
3004.14
2995.37
2988.12
2982.35
2978.02
2975.08
2973.52
2973.31
2974.43
2976.87
2980.63
2985.7
2992.09
2999.84
3008.94
3019.41
3031.28
3044.57
3059.3
3075.49
3093.17
3112.34
3133.02
3155.17
3178.78
3203.8
3230.13
3257.73
3286.45
3316.21
3347.36
3378.46
3409.63
3440.69
3471.3
3501.12
3529.76
3556.83
3581.94
3604.7
3624.75
3641.74
3655.39
3665.43
3671.67
3673.97
3671.85
3665.7
3655.6
3641.73
3624.3
3603.6
3579.98
3553.83
3525.56
3495.6
3464.39
3432.39
3400.03
3367.71
3335.85
3305.08
3275.44
3246.61
3218.84
3192.39
3167.4
3143.96
3122.11
3101.86
3083.22
3066.17
3050.69
3036.74
3024.3
3013.34
3003.84
2995.79
2989.18
2984
2980.26
2977.97
2977.15
2978
2980.39
2984.33
2989.83
2996.88
3005.51
3015.7
3027.47
3040.81
3055.7
3072.13
3090.07
3109.49
3130.35
3152.58
3176.06
3200.62
3226.02
3251.43
3272.06
3655.88
3649.19
3638.68
3624.5
3606.83
3585.95
3562.14
3535.73
3507.05
3476.53
3444.54
3411.48
3377.76
3343.77
3309.85
3276.34
3243.5
3211.59
3185.7
3156.56
3128.9
3102.81
3078.38
3055.63
3034.59
3015.24
2997.56
2981.51
2967.04
2954.12
2942.69
2932.7
2924.12
2916.91
2911.05
2906.51
2903.29
2901.4
2900.86
2901.67
2903.88
2907.52
2912.67
2919.37
2927.66
2937.64
2949.36
2962.86
2978.22
2995.49
3014.68
3035.81
3058.85
3083.76
3110.48
3138.9
3168.86
3200.11
3232.52
3265.86
3299.83
3334.08
3368.25
3402
3434.95
3466.71
3496.92
3525.2
3551.21
3574.61
3595.07
3612.32
3626.13
3636.28
3642.6
3644.97
3643.28
3637.57
3627.87
3614.31
3597.05
3576.33
3552.42
3525.64
3496.34
3464.9
3431.72
3397.21
3361.78
3325.85
3289.8
3254.02
3218.87
3184.67
3151.72
3120.27
3090.54
3062.71
3036.88
3013.14
2991.51
2972
2954.57
2939.17
2925.71
2914.14
2904.36
2896.32
2889.93
2885.15
2881.93
2880.24
2880.06
2881.35
2884.12
2888.36
2894.08
2901.28
2909.98
2920.2
2931.95
2945.24
2960.1
2976.54
2994.56
3014.17
3035.35
3058.1
3082.39
3108.17
3135.37
3163.93
3193.71
3224.57
3256.32
3288.69
3321.42
3354.19
3386.66
3418.44
3449.13
3478.32
3505.58
3530.5
3552.67
3571.72
3587.3
3599.13
3606.96
3610.64
3610.02
3605.13
3595.99
3582.7
3565.47
3544.56
3520.28
3493.03
3463.23
3431.35
3397.85
3363.24
3327.98
3292.54
3257.35
3222.81
3189.26
3157
3126.26
3097.22
3070
3044.67
3021.28
2999.84
2980.33
2962.72
2946.96
2932.99
2920.77
2910.21
2901.25
2893.82
2887.85
2883.3
2880.12
2878.27
2877.73
2878.45
2880.44
2883.67
2888.18
2893.97
2901.1
2909.61
2919.53
2930.92
2943.82
2958.28
2974.35
2992.05
3011.42
3032.46
3055.17
3079.5
3105.38
3132.72
3161.41
3191.28
3222.14
3253.97
3286.14
3318.55
3350.84
3382.64
3413.55
3443.15
3471.03
3496.76
3519.95
3540.19
3557.16
3570.54
3580.09
3585.63
3587.05
3584.31
3577.47
3566.63
3551.97
3533.72
3512.19
3487.74
3460.74
3431.61
3400.78
3368.7
3335.78
3302.45
3269.1
3236.07
3203.68
3172.21
3141.9
3112.95
3085.5
3059.67
3035.54
3013.17
2992.58
2973.77
2956.73
2941.43
2927.84
2915.91
2905.59
2896.84
2889.61
2883.85
2879.53
2876.6
2875.04
2874.84
2875.97
2878.41
2882.16
2887.23
2893.62
2901.35
2910.45
2920.91
2932.77
2946.05
2960.76
2976.95
2994.61
3013.77
3034.44
3056.59
3080.21
3105.23
3131.58
3159.19
3187.94
3217.73
3248.98
3280.14
3311.39
3342.53
3373.25
3403.18
3431.94
3459.13
3484.37
3507.25
3527.41
3544.5
3558.24
3568.35
3574.63
3576.95
3574.84
3568.65
3558.49
3544.55
3527.03
3506.21
3482.47
3456.18
3427.77
3397.69
3366.35
3334.23
3301.75
3269.33
3237.4
3206.62
3176.93
3148.05
3120.25
3093.79
3068.79
3045.34
3023.5
3003.26
2984.64
2967.6
2952.13
2938.2
2925.77
2914.82
2905.33
2897.29
2890.68
2885.5
2881.76
2879.47
2878.64
2879.49
2881.87
2885.81
2891.3
2898.34
2906.96
2917.15
2928.91
2942.25
2957.14
2973.57
2991.51
3010.94
3031.81
3054.05
3077.54
3102.12
3127.54
3152.99
3173.75
3559.01
3552.28
3541.7
3527.43
3509.67
3488.66
3464.73
3438.18
3409.37
3378.7
3346.58
3313.39
3279.55
3245.45
3211.44
3177.84
3144.91
3112.87
3087.13
3057.88
3030.18
3004.08
2979.65
2956.91
2935.89
2916.56
2898.9
2882.87
2868.43
2855.52
2844.11
2834.14
2825.57
2818.38
2812.52
2807.99
2804.77
2802.88
2802.33
2803.13
2805.32
2808.95
2814.08
2820.76
2829.03
2838.98
2850.67
2864.16
2879.49
2896.74
2915.92
2937.03
2960.08
2984.99
3011.73
3040.18
3070.17
3101.49
3133.96
3167.38
3201.44
3235.79
3270.08
3303.95
3337.02
3368.92
3399.25
3427.67
3453.8
3477.32
3497.9
3515.25
3529.14
3539.35
3545.72
3548.11
3546.42
3540.69
3530.94
3517.3
3499.95
3479.12
3455.08
3428.16
3398.72
3367.14
3333.82
3299.18
3263.61
3227.55
3191.39
3155.5
3120.26
3085.99
3052.97
3021.48
2991.71
2963.86
2938.03
2914.29
2892.68
2873.19
2855.79
2840.41
2826.99
2815.45
2805.7
2797.68
2791.31
2786.55
2783.34
2781.66
2781.49
2782.78
2785.55
2789.79
2795.5
2802.7
2811.39
2821.6
2833.34
2846.62
2861.47
2877.89
2895.91
2915.51
2936.69
2959.44
2983.72
3009.51
3036.73
3065.31
3095.13
3126.04
3157.85
3190.3
3223.13
3256.01
3288.59
3320.51
3351.34
3380.68
3408.09
3433.15
3455.46
3474.63
3490.32
3502.24
3510.14
3513.85
3513.25
3508.33
3499.14
3485.77
3468.44
3447.39
3422.97
3395.56
3365.6
3333.55
3299.9
3265.13
3229.72
3194.15
3158.84
3124.21
3090.59
3058.27
3027.49
2998.43
2971.2
2945.87
2922.49
2901.06
2881.57
2863.99
2848.25
2834.32
2822.12
2811.59
2802.66
2795.25
2789.3
2784.77
2781.6
2779.76
2779.23
2779.95
2781.93
2785.17
2789.66
2795.45
2802.56
2811.04
2820.95
2832.32
2845.2
2859.64
2875.69
2893.37
2912.73
2933.77
2956.48
2980.81
3006.71
3034.07
3062.8
3092.72
3123.64
3155.53
3187.79
3220.3
3252.71
3284.64
3315.69
3345.44
3373.46
3399.34
3422.67
3443.04
3460.12
3473.6
3483.22
3488.8
3490.23
3487.47
3480.59
3469.68
3454.92
3436.56
3414.9
3390.3
3363.15
3333.87
3302.9
3270.67
3237.63
3204.18
3170.71
3137.6
3105.13
3073.6
3043.24
3014.25
2986.78
2960.94
2936.81
2914.44
2893.86
2875.06
2858.04
2842.76
2829.19
2817.28
2806.98
2798.25
2791.04
2785.29
2780.98
2778.06
2776.52
2776.32
2777.45
2779.89
2783.64
2788.7
2795.09
2802.82
2811.9
2822.35
2834.19
2847.46
2862.17
2878.33
2895.99
2915.14
2935.8
2957.95
2981.56
3006.59
3032.96
3060.59
3089.36
3119.19
3150.56
3181.79
3213.12
3244.36
3275.2
3305.26
3334.16
3361.49
3386.87
3409.89
3430.18
3447.39
3461.23
3471.41
3477.75
3480.1
3477.98
3471.75
3461.53
3447.5
3429.87
3408.92
3385.03
3358.6
3330.04
3299.8
3268.32
3236.05
3203.45
3170.91
3138.89
3108.11
3078.36
3049.43
3021.59
2995.1
2970.09
2946.65
2924.81
2904.59
2885.98
2868.97
2853.51
2839.59
2827.18
2816.24
2806.76
2798.72
2792.12
2786.94
2783.2
2780.91
2780.08
2780.92
2783.29
2787.22
2792.71
2799.75
2808.36
2818.54
2830.3
2843.63
2858.52
2874.94
2892.89
2912.32
2933.19
2955.45
2978.96
3003.56
3029.01
3054.5
3075.42
3462.3
3455.51
3444.86
3430.49
3412.62
3391.48
3367.4
3340.7
3311.73
3280.91
3248.63
3215.3
3181.32
3147.1
3112.98
3079.29
3046.28
3014.13
2988.45
2959.11
2931.37
2905.27
2880.84
2858.12
2837.11
2817.8
2800.16
2784.16
2769.74
2756.86
2745.47
2735.52
2726.97
2719.79
2713.94
2709.41
2706.2
2704.31
2703.75
2704.53
2706.71
2710.33
2715.43
2722.08
2730.32
2740.25
2751.91
2765.37
2780.68
2797.91
2817.07
2838.17
2861.21
2886.14
2912.9
2941.38
2971.42
3002.8
3035.34
3068.85
3103.02
3137.48
3171.9
3205.9
3239.12
3271.16
3301.65
3330.21
3356.49
3380.14
3400.84
3418.3
3432.29
3442.57
3448.99
3451.41
3449.72
3443.96
3434.15
3420.43
3402.98
3382.02
3357.84
3330.77
3301.17
3269.43
3235.95
3201.14
3165.43
3129.23
3092.93
3056.93
3021.59
2987.23
2954.14
2922.59
2892.79
2864.92
2839.08
2815.34
2793.75
2774.29
2756.92
2741.58
2728.2
2716.69
2706.97
2698.98
2692.63
2687.89
2684.7
2683.03
2682.86
2684.16
2686.92
2691.16
2696.87
2704.05
2712.74
2722.93
2734.66
2747.93
2762.77
2779.18
2797.18
2816.77
2837.95
2860.7
2884.98
2910.78
2938.02
2966.62
2996.48
3027.45
3059.34
3091.88
3124.81
3157.81
3190.53
3222.6
3253.59
3283.09
3310.67
3335.89
3358.36
3377.68
3393.49
3405.51
3413.49
3417.24
3416.64
3411.7
3402.45
3388.99
3371.54
3350.35
3325.76
3298.18
3268.03
3235.79
3201.95
3167.01
3131.44
3095.72
3060.29
3025.55
2991.83
2959.45
2928.63
2899.54
2872.3
2846.98
2823.61
2802.21
2782.74
2765.18
2749.48
2735.57
2723.41
2712.91
2704
2696.62
2690.69
2686.18
2683.02
2681.2
2680.67
2681.4
2683.38
2686.61
2691.1
2696.86
2703.96
2712.42
2722.31
2733.66
2746.52
2760.94
2776.96
2794.63
2813.97
2835
2857.71
2882.05
2907.96
2935.36
2964.12
2994.09
3025.09
3057.04
3089.41
3122.04
3154.58
3186.65
3217.86
3247.77
3275.96
3302.01
3325.49
3346.01
3363.22
3376.8
3386.5
3392.13
3393.57
3390.8
3383.87
3372.87
3358.01
3339.52
3317.71
3292.95
3265.63
3236.18
3205.04
3172.65
3139.46
3105.87
3072.29
3039.07
3006.52
2974.92
2944.51
2915.48
2887.98
2862.13
2838
2815.64
2795.07
2776.28
2759.28
2744.02
2730.47
2718.58
2708.31
2699.6
2692.4
2686.68
2682.38
2679.47
2677.94
2677.75
2678.88
2681.32
2685.07
2690.12
2696.5
2704.22
2713.29
2723.73
2735.56
2748.82
2763.51
2779.66
2797.3
2816.44
2837.09
2859.23
2882.85
2907.89
2934.27
2961.93
2990.72
3020.59
3052.09
3083.4
3114.82
3146.19
3177.15
3207.36
3236.42
3263.91
3289.44
3312.62
3333.06
3350.4
3364.35
3374.62
3381.02
3383.4
3381.27
3375.01
3364.72
3350.58
3332.82
3311.73
3287.69
3261.08
3232.34
3201.94
3170.29
3137.87
3105.12
3072.45
3040.33
3009.54
2979.74
2950.74
2922.86
2896.35
2871.33
2847.89
2826.06
2805.85
2787.26
2770.26
2754.83
2740.93
2728.53
2717.61
2708.14
2700.11
2693.5
2688.33
2684.59
2682.29
2681.45
2682.29
2684.65
2688.58
2694.06
2701.08
2709.69
2719.86
2731.62
2744.95
2759.83
2776.25
2794.2
2813.64
2834.52
2856.78
2880.31
2904.95
2930.43
2955.96
2977.06
3365.74
3358.9
3348.16
3333.69
3315.68
3294.41
3270.16
3243.3
3214.15
3183.15
3150.7
3117.2
3083.08
3048.72
3014.49
2980.69
2947.59
2915.35
2889.66
2860.25
2832.49
2806.37
2781.95
2759.24
2738.25
2718.97
2701.36
2685.38
2670.99
2658.14
2646.77
2636.84
2628.31
2621.14
2615.31
2610.79
2607.58
2605.68
2605.11
2605.87
2608.05
2611.64
2616.72
2623.34
2631.55
2641.45
2653.08
2666.51
2681.78
2698.99
2718.13
2739.23
2762.27
2787.2
2813.98
2842.5
2872.58
2904.04
2936.66
2970.27
3004.55
3039.15
3073.7
3107.86
3141.24
3173.44
3204.1
3232.82
3259.26
3283.06
3303.9
3321.49
3335.58
3345.95
3352.42
3354.87
3353.18
3347.38
3337.51
3323.7
3306.13
3285.03
3260.69
3233.45
3203.68
3171.76
3138.1
3103.12
3067.24
3030.88
2994.44
2958.31
2922.85
2888.39
2855.23
2823.62
2793.78
2765.87
2740.03
2716.3
2694.73
2675.3
2657.97
2642.67
2629.32
2617.85
2608.17
2600.21
2593.89
2589.17
2585.99
2584.33
2584.17
2585.47
2588.24
2592.47
2598.17
2605.35
2614.02
2624.21
2635.92
2649.18
2664
2680.4
2698.39
2717.97
2739.14
2761.88
2786.17
2811.98
2839.24