/*--------------------------------*- C++ -*----------------------------------*\
| =========                 |                                                 |
| \\      /  F ield         | OpenFOAM: The Open Source CFD Toolbox           |
|  \\    /   O peration     | Version:  3.0.1                                 |
|   \\  /    A nd           | Web:      www.OpenFOAM.org                      |
|    \\/     M anipulation  |                                                 |
\*---------------------------------------------------------------------------*/
FoamFile
{
    version     2.0;
    format      ascii;
    class       volScalarField;
    location    "26.8";
    object      p_rgh;
}
// * * * * * * * * * * * * * * * * * * * * * * * * * * * * * * * * * * * * * //

dimensions      [1 -1 -2 0 0 0 0];

internalField   nonuniform List<scalar> 
22680
(
414.448
426.372
435.526
441.855
445.31
445.845
443.355
437.852
429.436
418.177
404.122
387.397
368.132
346.499
322.678
296.876
269.36
240.38
210.217
179.142
147.438
115.369
83.2032
51.1862
19.5779
-11.386
-42.8011
-72.022
-100.215
-127.216
-152.889
-177.14
-199.891
-221.096
-240.72
-258.751
-275.191
-290.052
-303.36
-315.145
-325.447
-334.309
-341.778
-347.901
-352.725
-356.298
-358.662
-359.857
-359.921
-358.882
-356.766
-353.592
-349.384
-344.132
-337.822
-330.454
-322.033
-312.528
-301.941
-290.239
-277.414
-263.435
-248.294
-231.97
-214.455
-195.745
-175.841
-154.757
-132.511
-109.143
-84.6836
-59.1987
-32.7767
-5.50361
22.4913
51.0831
80.0805
109.351
138.689
167.887
196.704
224.908
252.243
278.463
303.311
326.543
347.917
367.206
384.209
398.727
410.607
419.712
425.938
429.216
429.505
426.805
421.096
412.51
401.107
386.986
370.323
351.287
330.071
306.889
281.966
255.542
227.861
199.168
169.71
139.733
109.473
79.1546
48.9914
19.1814
-10.0944
-38.6648
-66.4085
-93.1939
-118.916
-143.485
-166.83
-188.895
-209.639
-229.032
-247.056
-263.701
-278.967
-292.858
-305.39
-316.569
-326.414
-334.938
-342.154
-348.075
-352.715
-356.082
-358.185
-359.033
-358.633
-356.998
-354.131
-350.031
-344.701
-338.175
-330.457
-321.561
-311.508
-300.318
-288.012
-274.61
-260.134
-244.603
-228.033
-210.441
-191.844
-172.249
-151.672
-130.133
-107.656
-84.2725
-60.0265
-34.9753
-9.19184
17.2378
44.2031
71.5774
99.2416
127.97
155.768
183.36
210.564
237.157
262.91
287.587
310.952
332.768
352.803
370.833
386.644
400.036
410.833
418.876
424.04
426.222
425.361
421.369
414.366
404.336
391.339
375.518
357.023
336.042
312.792
287.518
260.492
232
202.342
171.822
140.74
109.388
78.0464
46.9789
16.4256
-13.3959
-42.2939
-70.1049
-96.6964
-121.96
-145.815
-168.203
-189.092
-208.468
-226.333
-242.704
-257.611
-271.094
-283.201
-293.984
-303.464
-311.701
-318.824
-324.792
-329.498
-332.255
-330.588
414.582
426.515
435.677
442.012
445.472
446.009
443.53
438.014
429.596
418.33
404.267
387.532
368.255
346.609
322.773
296.956
269.423
240.426
210.247
179.156
147.436
115.353
83.1735
51.1434
19.5219
-11.4509
-42.8671
-72.0945
-100.296
-127.303
-152.98
-177.234
-199.986
-221.193
-240.817
-258.847
-275.285
-290.145
-303.45
-315.232
-325.532
-334.391
-341.857
-347.976
-352.798
-356.367
-358.729
-359.922
-359.983
-358.943
-356.826
-353.651
-349.443
-344.19
-337.88
-330.513
-322.093
-312.59
-302.004
-290.304
-277.48
-263.503
-248.364
-232.042
-214.528
-195.819
-175.916
-154.832
-132.586
-109.217
-84.7553
-59.2675
-32.8416
-5.56356
22.4376
51.0369
80.0433
109.324
138.674
167.884
196.715
224.933
252.283
278.518
303.382
326.629
348.018
367.321
384.336
398.866
410.756
419.869
426.101
429.381
429.672
426.972
421.261
412.664
401.254
387.124
370.449
351.4
330.17
306.973
282.034
255.593
227.895
199.187
169.713
139.722
109.448
79.1176
48.9432
19.1235
-10.1607
-38.7373
-66.4868
-93.2766
-119.002
-143.573
-166.919
-188.985
-209.729
-229.121
-247.144
-263.788
-279.053
-292.943
-305.472
-316.65
-326.494
-335.016
-342.231
-348.151
-352.79
-356.156
-358.259
-359.106
-358.707
-357.071
-354.203
-350.102
-344.772
-338.245
-330.526
-321.629
-311.575
-300.384
-288.077
-274.675
-260.198
-244.666
-228.096
-210.504
-191.906
-172.312
-151.735
-130.196
-107.719
-84.3348
-60.0875
-35.0342
-9.24766
17.1858
44.156
71.5353
99.193
127.956
155.749
183.351
210.567
237.174
262.941
287.633
311.013
332.844
352.895
370.939
386.764
400.169
410.978
419.03
424.201
426.388
425.529
421.544
414.528
404.495
391.49
375.659
357.151
336.156
312.889
287.599
260.555
232.045
202.368
171.83
140.731
109.363
78.0063
46.9255
16.3605
-13.471
-42.3775
-70.195
-96.7915
-122.059
-145.915
-168.304
-189.193
-208.568
-226.431
-242.799
-257.702
-271.18
-283.282
-294.065
-303.545
-311.781
-318.925
-324.917
-329.607
-332.629
-332.701
414.851
426.803
435.981
442.328
445.796
446.336
443.878
438.338
429.916
418.636
404.556
387.801
368.501
346.829
322.963
297.115
269.549
240.519
210.306
179.183
147.432
115.321
83.114
51.0578
19.4097
-11.5857
-42.9944
-72.2393
-100.458
-127.477
-153.163
-177.422
-200.178
-221.387
-241.01
-259.039
-275.474
-290.33
-303.63
-315.407
-325.701
-334.554
-342.014
-348.127
-352.943
-356.507
-358.863
-360.052
-360.109
-359.065
-356.946
-353.77
-349.56
-344.304
-337.998
-330.633
-322.214
-312.713
-302.13
-290.433
-277.613
-263.639
-248.504
-232.185
-214.674
-195.967
-176.065
-154.982
-132.735
-109.364
-84.8984
-59.405
-32.9714
-5.68335
22.3304
50.9448
79.969
109.27
138.643
167.878
196.736
224.983
252.364
278.63
303.524
326.802
348.22
367.551
384.592
399.144
411.053
420.182
426.426
429.713
430.007
427.302
421.594
412.974
401.55
387.402
370.705
351.63
330.371
307.144
282.173
255.701
227.971
199.23
169.726
139.706
109.405
79.0506
48.8543
19.0152
-10.286
-38.8751
-66.6361
-93.4346
-119.166
-143.742
-167.091
-189.158
-209.903
-229.293
-247.315
-263.956
-279.218
-293.104
-305.631
-316.806
-326.647
-335.166
-342.379
-348.297
-352.934
-356.299
-358.4
-359.247
-358.847
-357.21
-354.341
-350.237
-344.908
-338.379
-330.658
-321.759
-311.704
-300.51
-288.201
-274.797
-260.319
-244.786
-228.215
-210.624
-192.026
-172.432
-151.855
-130.316
-107.838
-84.4532
-60.2034
-35.1458
-9.35328
17.0877
44.0679
71.4578
99.1037
127.93
155.715
183.338
210.579
237.212
263.008
287.729
311.139
333.001
353.083
371.157
387.01
400.441
411.273
419.345
424.531
426.727
425.871
421.898
414.861
404.819
391.8
375.948
357.415
336.39
313.092
287.768
260.688
232.141
202.428
171.853
140.72
109.32
77.9341
46.8266
16.2381
-13.6136
-42.5369
-70.3675
-96.9739
-122.248
-146.109
-168.499
-189.387
-208.759
-226.618
-242.981
-257.877
-271.346
-283.438
-294.218
-303.7
-311.924
-319.056
-324.988
-329.651
-332.586
-332.752
415.254
427.235
436.437
442.803
446.283
446.827
444.387
438.831
430.397
419.095
404.99
388.206
368.87
347.158
323.249
297.353
269.738
240.658
210.395
179.223
147.427
115.272
83.0245
50.9294
19.2408
-11.797
-43.1764
-72.4565
-100.701
-127.739
-153.437
-177.705
-200.466
-221.677
-241.301
-259.327
-275.757
-290.607
-303.9
-315.67
-325.955
-334.799
-342.249
-348.353
-353.16
-356.716
-359.064
-360.246
-360.297
-359.249
-357.125
-353.947
-349.735
-344.476
-338.175
-330.811
-322.395
-312.898
-302.319
-290.627
-277.811
-263.844
-248.713
-232.399
-214.893
-196.189
-176.289
-155.206
-132.959
-109.584
-85.1133
-59.6115
-33.1662
-5.86325
22.1694
50.8062
79.8574
109.189
138.596
167.869
196.769
225.059
252.485
278.797
303.738
327.061
348.523
367.897
384.975
399.562
411.5
420.653
426.914
430.211
430.509
427.799
422.089
413.443
401.996
387.821
371.089
351.975
330.674
307.401
282.383
255.862
228.084
199.296
169.747
139.683
109.342
78.9506
48.7213
18.8531
-10.4733
-39.0813
-66.8596
-93.6712
-119.413
-143.995
-167.349
-189.417
-210.162
-229.551
-247.57
-264.208
-279.465
-293.347
-305.869
-317.039
-326.876
-335.391
-342.6
-348.516
-353.15
-356.513
-358.612
-359.458
-359.056
-357.418
-354.546
-350.441
-345.111
-338.58
-330.855
-321.954
-311.896
-300.7
-288.387
-274.981
-260.5
-244.965
-228.394
-210.802
-192.204
-172.611
-152.035
-130.496
-108.017
-84.6303
-60.3767
-35.3129
-9.5114
16.941
43.9362
71.344
98.9789
127.883
155.664
183.319
210.597
237.271
263.109
287.874
311.33
333.238
353.366
371.485
387.381
400.851
411.718
419.818
425.026
427.237
426.386
422.422
415.368
405.308
392.266
376.383
357.812
336.744
313.398
288.022
260.888
232.286
202.518
171.89
140.705
109.257
77.8262
46.6788
16.055
-13.827
-42.7755
-70.6259
-97.2473
-122.532
-146.398
-168.791
-189.678
-209.046
-226.899
-243.253
-258.138
-271.595
-283.672
-294.444
-303.921
-312.13
-319.253
-325.24
-329.931
-333.071
-333.862
415.792
427.812
437.046
443.436
446.932
447.484
445.052
439.492
431.038
419.707
405.57
388.745
369.363
347.597
323.63
297.671
269.99
240.843
210.513
179.277
147.419
115.207
82.9051
50.7582
19.0154
-12.0933
-43.4051
-72.7463
-101.026
-128.088
-153.803
-178.082
-200.851
-222.064
-241.688
-259.71
-276.135
-290.977
-304.261
-316.02
-326.293
-335.125
-342.563
-348.655
-353.45
-356.994
-359.332
-360.505
-360.548
-359.493
-357.364
-354.183
-349.967
-344.708
-338.411
-331.049
-322.636
-313.144
-302.571
-290.886
-278.076
-264.116
-248.993
-232.685
-215.185
-196.485
-176.588
-155.506
-133.257
-109.879
-85.4001
-59.8871
-33.4264
-6.10348
21.9542
50.6211
79.7083
109.081
138.534
167.857
196.811
225.16
252.646
279.02
304.022
327.407
348.928
368.357
385.487
400.119
412.096
421.28
427.565
430.876
431.178
428.462
422.744
414.075
402.592
388.379
371.602
352.436
331.077
307.744
282.663
256.078
228.235
199.384
169.773
139.653
109.258
78.8169
48.5436
18.6367
-10.7234
-39.357
-67.1581
-93.9871
-119.742
-144.333
-167.692
-189.764
-210.508
-229.895
-247.91
-264.543
-279.794
-293.67
-306.186
-317.35
-327.181
-335.691
-342.896
-348.807
-353.438
-356.798
-358.895
-359.738
-359.335
-357.694
-354.82
-350.715
-345.382
-338.847
-331.119
-322.215
-312.152
-300.952
-288.636
-275.225
-260.742
-245.205
-228.632
-211.04
-192.442
-172.849
-152.275
-130.736
-108.256
-84.8666
-60.6079
-35.5359
-9.72264
16.7449
43.7607
71.1954
98.8528
127.78
155.592
183.293
210.622
237.349
263.243
288.068
311.584
333.555
353.744
371.923
387.876
401.398
412.31
420.449
425.687
427.918
427.074
423.114
416.048
405.961
392.888
376.963
358.341
337.216
313.805
288.36
261.155
232.479
202.638
171.938
140.684
109.172
77.6819
46.4811
15.8102
-14.1121
-43.0941
-70.9709
-97.6122
-122.911
-146.785
-169.181
-190.067
-209.429
-227.273
-243.617
-258.488
-271.929
-283.988
-294.746
-304.202
-312.402
-319.511
-325.428
-330.17
-333.34
-334.597
416.465
428.533
437.807
444.228
447.745
448.307
445.88
440.316
431.839
420.474
406.295
389.419
369.978
348.147
324.107
298.069
270.306
241.074
210.661
179.344
147.41
115.124
82.7554
50.5442
18.7344
-12.4713
-43.6844
-73.1104
-101.433
-128.525
-154.261
-178.554
-201.331
-222.549
-242.172
-260.19
-276.608
-291.44
-304.712
-316.457
-326.716
-335.533
-342.956
-349.032
-353.812
-357.342
-359.667
-360.828
-360.861
-359.798
-357.663
-354.478
-350.257
-344.998
-338.704
-331.345
-322.937
-313.452
-302.886
-291.209
-278.408
-264.458
-249.343
-233.043
-215.55
-196.856
-176.962
-155.882
-133.631
-110.247
-85.7591
-60.2321
-33.7521
-6.40434
21.6844
50.389
79.5212
108.945
138.455
167.842
196.864
225.285
252.847
279.298
304.378
327.838
349.434
368.933
386.126
400.816
412.841
422.065
428.379
431.708
432.016
429.294
423.559
414.865
403.339
389.078
372.243
353.012
331.582
308.172
283.012
256.346
228.423
199.493
169.806
139.614
109.151
78.649
48.3207
18.3653
-11.0366
-39.7025
-67.5319
-94.3829
-120.153
-144.756
-168.122
-190.197
-210.941
-230.326
-248.336
-264.962
-280.207
-294.075
-306.582
-317.738
-327.562
-336.065
-343.265
-349.172
-353.799
-357.154
-359.248
-360.089
-359.683
-358.04
-355.162
-351.055
-345.72
-339.181
-331.449
-322.54
-312.473
-301.267
-288.946
-275.531
-261.044
-245.504
-228.93
-211.337
-192.74
-173.148
-152.575
-131.037
-108.556
-85.1623
-60.8972
-35.8152
-9.9875
16.4988
43.5411
71.012
98.7264
127.616
155.498
183.26
210.651
237.445
263.41
288.309
311.902
333.949
354.216
372.47
388.494
402.082
413.052
421.239
426.514
428.77
427.937
423.977
416.901
406.78
393.666
377.689
359.004
337.806
314.315
288.784
261.488
232.72
202.787
171.997
140.658
109.065
77.5006
46.2331
15.5034
-14.4695
-43.4931
-71.4031
-98.0692
-123.385
-147.269
-169.669
-190.552
-209.908
-227.742
-244.071
-258.925
-272.346
-284.386
-295.121
-304.547
-312.742
-319.841
-325.818
-330.544
-333.801
-335.467
417.272
429.398
438.721
445.179
448.722
449.296
446.872
441.304
432.799
421.394
407.165
390.229
370.718
348.807
324.679
298.546
270.684
241.35
210.837
179.423
147.397
115.025
82.5752
50.2875
18.3992
-12.9065
-44.0395
-73.5509
-101.924
-129.05
-154.811
-179.122
-201.909
-223.131
-242.753
-260.766
-277.175
-291.996
-305.253
-316.982
-327.224
-336.023
-343.427
-349.485
-354.247
-357.76
-360.07
-361.216
-361.237
-360.163
-358.021
-354.83
-350.606
-345.347
-339.056
-331.701
-323.298
-313.821
-303.264
-291.597
-278.806
-264.867
-249.762
-233.472
-215.988
-197.3
-177.412
-156.333
-134.08
-110.69
-86.1906
-60.6469
-34.1437
-6.76624
21.3595
50.1095
79.2957
108.781
138.359
167.822
196.927
225.435
253.087
279.631
304.805
328.357
350.042
369.625
386.895
401.653
413.737
423.008
429.357
432.707
433.023
430.293
424.539
415.813
404.238
389.918
373.013
353.703
332.188
308.687
283.431
256.669
228.649
199.623
169.845
139.566
109.022
78.4466
48.0521
18.0385
-11.4136
-40.1181
-67.9816
-94.8587
-120.649
-145.264
-168.638
-190.717
-211.461
-230.842
-248.847
-265.465
-280.701
-294.56
-307.058
-318.204
-328.02
-336.515
-343.708
-349.609
-354.231
-357.582
-359.672
-360.51
-360.101
-358.454
-355.574
-351.463
-346.126
-339.582
-331.845
-322.931
-312.857
-301.646
-289.318
-275.898
-261.406
-245.863
-229.287
-211.694
-193.097
-173.507
-152.936
-131.397
-108.915
-85.5176
-61.2446
-36.1512
-10.3064
16.2027
43.2769
70.7923
98.597
127.395
155.383
183.219
210.686
237.56
263.61
288.598
312.283
334.423
354.782
373.126
389.236
402.903
413.943
422.188
427.508
429.793
428.974
425.014
417.922
407.764
394.601
378.561
359.8
338.514
314.927
289.292
261.888
233.009
202.966
172.068
140.625
108.935
77.2819
45.9342
15.1339
-14.8996
-43.9731
-71.923
-98.6188
-123.955
-147.851
-170.255
-191.136
-210.484
-228.305
-244.618
-259.451
-272.847
-284.862
-295.569
-304.959
-313.149
-320.234
-326.225
-330.969
-334.304
-336.341
418.215
430.409
439.788
446.29
449.864
450.453
448.03
442.454
433.919
422.469
408.181
391.175
371.582
349.578
325.347
299.103
271.125
241.672
211.042
179.515
147.381
114.908
82.3643
49.9876
18.0111
-13.3934
-44.4769
-74.0699
-102.498
-129.665
-155.455
-179.785
-202.584
-223.811
-243.432
-261.439
-277.838
-292.644
-305.885
-317.595
-327.817
-336.594
-343.976
-350.013
-354.754
-358.247
-360.539
-361.669
-361.675
-360.59
-358.438
-355.241
-351.013
-345.755
-339.467
-332.115
-323.72
-314.252
-303.704
-292.049
-279.271
-265.345
-250.252
-233.974
-216.499
-197.82
-177.936
-156.859
-134.604
-111.207
-86.6948
-61.1317
-34.6018
-7.18975
20.979
49.7819
79.0313
108.589
138.247
167.798
196.999
225.609
253.368
280.02
305.302
328.962
350.75
370.432
387.792
402.63
414.783
424.109
430.499
433.875
434.199
431.462
425.683
416.92
405.287
390.898
373.912
354.51
332.895
309.287
283.92
257.044
228.911
199.773
169.889
139.508
108.87
78.2088
47.7372
17.6557
-11.855
-40.6043
-68.5075
-95.4152
-121.227
-145.858
-169.242
-191.324
-212.068
-231.446
-249.444
-266.053
-281.279
-295.127
-307.613
-318.748
-328.554
-337.04
-344.225
-350.119
-354.735
-358.081
-360.167
-361.001
-360.589
-358.939
-356.055
-351.943
-346.6
-340.05
-332.307
-323.387
-313.306
-302.087
-289.753
-276.326
-261.829
-246.282
-229.703
-212.11
-193.514
-173.926
-153.356
-131.819
-109.335
-85.9325
-61.6508
-36.5441
-10.6797
15.8562
42.9671
70.5335
98.4302
127.15
155.248
183.171
210.725
237.693
263.842
288.933
312.726
334.974
355.442
373.892
390.103
403.862
414.983
423.297
428.669
430.989
430.187
426.226
419.115
408.915
395.694
379.58
360.729
339.342
315.641
289.885
262.354
233.346
203.174
172.149
140.586
108.782
77.0252
45.5838
14.701
-15.4029
-44.5348
-72.5311
-99.2614
-124.621
-148.531
-170.94
-191.818
-211.157
-228.963
-245.256
-260.065
-273.433
-285.418
-296.092
-305.438
-313.621
-320.691
-326.705
-331.466
-334.875
-337.226
419.293
431.565
441.009
447.561
451.17
451.777
449.353
443.769
435.2
423.698
409.344
392.257
372.569
350.459
326.111
299.74
271.628
242.04
211.276
179.618
147.361
114.773
82.122
49.6441
17.5705
-13.9326
-44.9967
-74.669
-103.158
-130.369
-156.191
-180.544
-203.356
-224.588
-244.208
-262.209
-278.595
-293.386
-306.608
-318.296
-328.494
-337.247
-344.604
-350.616
-355.333
-358.804
-361.074
-362.186
-362.176
-361.077
-358.915
-355.711
-351.478
-346.22
-339.935
-332.588
-324.201
-314.743
-304.208
-292.566
-279.803
-265.892
-250.813
-234.548
-217.084
-198.414
-178.537
-157.462
-135.205
-111.799
-87.2722
-61.687
-35.127
-7.67541
20.5425
49.4056
78.7275
108.367
138.116
167.769
197.08
225.806
253.687
280.464
305.871
329.654
351.561
371.356
388.819
403.749
415.98
425.369
431.806
435.211
435.545
432.799
426.994
418.186
406.488
392.02
374.941
355.434
333.704
309.972
284.478
257.473
229.209
199.945
169.938
139.441
108.695
77.9352
47.3752
17.2164
-12.3616
-41.1617
-69.1103
-96.0528
-121.89
-146.539
-169.932
-192.02
-212.763
-232.136
-250.126
-266.725
-281.939
-295.774
-308.247
-319.37
-329.164
-337.639
-344.815
-350.702
-355.311
-358.651
-360.732
-361.562
-361.146
-359.492
-356.604
-352.489
-347.141
-340.585
-332.836
-323.908
-313.819
-302.592
-290.25
-276.815
-262.311
-246.76
-230.179
-212.586
-193.991
-174.404
-153.837
-132.301
-109.816
-86.4076
-62.1163
-36.9941
-11.108
15.459
42.6106
70.2333
98.2182
126.887
155.094
183.114
210.769
237.843
264.105
289.316
313.231
335.604
356.196
374.767
391.093
404.958
416.173
424.565
429.998
432.359
431.575
427.613
420.479
410.232
396.945
380.746
361.793
340.288
316.458
290.563
262.887
233.731
203.41
172.241
140.539
108.606
76.7298
45.1812
14.2039
-15.9802
-45.179
-73.2281
-99.9978
-125.384
-149.31
-171.724
-192.599
-211.926
-229.715
-245.986
-260.768
-274.104
-286.053
-296.685
-305.989
-314.157
-321.224
-327.248
-332.029
-335.509
-338.12
420.507
432.867
442.383
448.993
452.641
453.269
450.845
445.248
436.642
425.083
410.653
393.476
373.682
351.452
326.971
300.456
272.194
242.452
211.537
179.733
147.337
114.619
81.8481
49.257
17.0772
-14.529
-45.5953
-75.3492
-103.903
-131.164
-157.022
-181.399
-204.226
-225.464
-245.083
-263.075
-279.449
-294.221
-307.421
-319.085
-329.256
-337.981
-345.31
-351.295
-355.985
-359.43
-361.677
-362.767
-362.739
-361.624
-359.45
-356.238
-352.001
-346.743
-340.462
-333.12
-324.743
-315.296
-304.774
-293.147
-280.401
-266.506
-251.444
-235.193
-217.743
-199.083
-179.213
-158.14
-135.881
-112.467
-87.9234
-62.3137
-35.72
-8.2239
20.0493
48.9798
78.3837
108.115
137.967
167.735
197.169
226.027
254.045
280.962
306.511
330.433
352.474
372.395
389.975
405.009
417.329
426.788
433.279
436.717
437.062
434.306
428.471
419.612
407.841
393.284
376.1
356.474
334.614
310.744
285.106
257.954
229.544
200.136
169.991
139.363
108.496
77.6249
46.9657
16.7197
-12.9341
-41.791
-69.7907
-96.7722
-122.638
-147.306
-170.711
-192.803
-213.545
-232.914
-250.895
-267.482
-282.682
-296.503
-308.96
-320.069
-329.849
-338.314
-345.48
-351.358
-355.959
-359.293
-361.368
-362.193
-361.773
-360.115
-357.223
-353.103
-347.749
-341.187
-333.431
-324.494
-314.397
-303.16
-290.808
-277.365
-262.854
-247.298
-230.714
-213.12
-194.527
-174.943
-154.379
-132.844
-110.357
-86.9434
-62.6414
-37.5018
-11.5917
15.01
42.2065
69.8898
97.9579
126.607
154.923
183.049
210.816
238.01
264.4
289.745
313.798
336.312
357.044
375.752
392.208
406.193
417.513
425.994
431.495
433.902
433.141
429.176
422.016
411.716
398.354
382.059
362.992
341.355
317.379
291.327
263.486
234.163
203.675
172.342
140.484
108.406
76.3949
44.7255
13.6421
-16.6326
-45.9065
-74.0147
-100.829
-126.245
-150.188
-172.608
-193.478
-212.794
-230.563
-246.809
-261.56
-274.86
-286.768
-297.349
-306.613
-314.756
-321.831
-327.855
-332.655
-336.213
-339.033
421.856
434.314
443.913
450.586
454.279
454.931
452.511
446.895
438.247
426.623
412.11
394.832
374.919
352.557
327.927
301.252
272.823
242.909
211.825
179.858
147.308
114.447
81.542
48.8267
16.5309
-15.1838
-46.273
-76.1117
-104.736
-132.05
-157.948
-182.352
-205.195
-226.439
-246.056
-264.039
-280.397
-295.149
-308.325
-319.962
-330.103
-338.798
-346.095
-352.048
-356.709
-360.125
-362.346
-363.412
-363.363
-362.232
-360.045
-356.823
-352.582
-347.323
-341.047
-333.71
-325.343
-315.909
-305.404
-293.794
-281.066
-267.19
-252.146
-235.911
-218.476
-199.828
-179.965
-158.896
-136.634
-113.21
-88.649
-63.0123
-36.3814
-8.83593
19.4987
48.504
77.9988
107.831
137.798
167.694
197.266
226.271
254.442
281.515
307.221
331.298
353.489
373.551
391.262
406.411
418.83
428.369
434.918
438.393
438.751
435.985
430.116
421.199
409.347
394.691
377.389
357.631
335.625
311.601
285.803
258.488
229.914
200.346
170.048
139.273
108.271
77.277
46.5075
16.1649
-13.5736
-42.4929
-70.5497
-97.574
-123.471
-148.16
-171.577
-193.674
-214.416
-233.778
-251.749
-268.323
-283.508
-297.312
-309.753
-320.846
-330.611
-339.063
-346.218
-352.086
-356.679
-360.005
-362.075
-362.894
-362.469
-360.807
-357.911
-353.786
-348.426
-341.857
-334.091
-325.146
-315.038
-303.791
-291.429
-277.976
-263.457
-247.895
-231.308
-213.714
-195.122
-175.542
-154.981
-133.448
-110.96
-87.5402
-63.2265
-38.0682
-12.131
14.5083
41.7536
69.5014
97.652
126.307
154.732
182.975
210.866
238.193
264.725
290.219
314.427
337.098
357.986
376.847
393.448
407.567
419.005
427.585
433.163
435.621
434.884
430.917
423.727
413.369
399.924
383.522
364.326
342.542
318.403
292.175
264.152
234.642
203.968
172.453
140.422
108.18
76.0197
44.2158
13.0145
-17.3609
-46.7182
-74.8919
-101.755
-127.205
-151.166
-173.592
-194.457
-213.759
-231.507
-247.724
-262.441
-275.701
-287.563
-298.086
-307.308
-315.411
-322.508
-328.531
-333.34
-336.976
-339.956
423.342
435.908
445.598
452.341
456.083
456.761
454.351
448.708
440.014
428.32
413.715
396.325
376.282
353.773
328.98
302.129
273.514
243.411
212.139
179.992
147.273
114.254
81.2029
48.3525
15.931
-15.897
-47.0309
-76.9575
-105.656
-133.028
-158.969
-183.402
-206.262
-227.514
-247.128
-265.101
-281.442
-296.171
-309.32
-320.927
-331.036
-339.696
-346.959
-352.878
-357.504
-360.89
-363.081
-364.122
-364.05
-362.9
-360.698
-357.466
-353.219
-347.961
-341.69
-334.36
-326.004
-316.583
-306.095
-294.504
-281.798
-267.941
-252.918
-236.702
-219.283
-200.648
-180.794
-159.729
-137.464
-114.03
-89.4497
-63.7834
-37.1117
-9.51232
18.89
47.9779
77.5713
107.515
137.609
167.646
197.37
226.537
254.877
282.123
308.002
332.25
354.606
374.824
392.679
407.956
420.484
430.111
436.725
440.241
440.613
437.834
431.929
422.947
411.007
396.241
378.81
358.905
336.739
312.544
286.57
259.074
230.319
200.576
170.107
139.172
108.021
76.8906
45.9998
15.5508
-14.2811
-43.2685
-71.3882
-98.459
-124.39
-149.102
-172.533
-194.635
-215.375
-234.731
-252.69
-269.249
-284.417
-298.203
-310.626
-321.701
-331.45
-339.887
-347.029
-352.886
-357.47
-360.789
-362.852
-363.666
-363.236
-361.568
-358.667
-354.537
-349.17
-342.593
-334.819
-325.863
-315.744
-304.485
-292.111
-278.648
-264.12
-248.551
-231.962
-214.367
-195.778
-176.202
-155.644
-134.114
-111.624
-88.1983
-63.8722
-38.6938
-12.7265
13.9526
41.2508
69.0668
97.3009
125.984
154.523
182.891
210.917
238.391
265.079
290.738
315.116
337.961
359.021
378.051
394.812
409.079
420.649
429.338
435.001
437.516
436.806
432.837
425.613
415.191
401.654
385.134
365.797
343.85
319.53
293.109
264.884
235.168
204.288
172.573
140.349
107.928
75.603
43.6511
12.3201
-18.1662
-47.6151
-75.8608
-102.778
-128.263
-152.245
-174.676
-195.537
-214.822
-232.547
-248.734
-263.413
-276.629
-288.439
-298.901
-308.072
-316.119
-323.25
-329.277
-334.093
-337.801
-340.9
424.964
437.65
447.438
454.259
458.055
458.762
456.357
450.689
441.944
430.174
415.468
397.956
377.771
355.102
330.13
303.085
274.267
243.956
212.48
180.135
147.231
114.04
80.83
47.8336
15.2778
-16.6715
-47.8694
-77.8875
-106.664
-134.099
-160.086
-184.551
-207.429
-228.688
-248.3
-266.261
-282.583
-297.287
-310.406
-321.98
-332.053
-340.676
-347.901
-353.782
-358.372
-361.723
-363.883
-364.895
-364.798
-363.627
-361.41
-358.167
-353.915
-348.656
-342.39
-335.068
-326.723
-317.318
-306.85
-295.28
-282.596
-268.762
-253.762
-237.566
-220.164
-201.543
-181.7
-160.639
-138.372
-114.928
-90.3259
-64.6279
-37.9119
-10.254
18.2221
47.4006
77.0999
107.166
137.4
167.59
197.481
226.825
255.349
282.784
308.853
333.289
355.826
376.214
394.228
409.645
422.293
432.016
438.701
442.261
442.649
439.857
433.91
424.859
412.822
397.935
380.362
360.297
337.955
313.574
287.405
259.711
230.76
200.823
170.168
139.057
107.743
76.4645
45.4415
14.8766
-15.0546
-44.1216
-72.3075
-99.4281
-125.396
-150.132
-173.578
-195.685
-216.423
-235.771
-253.718
-270.26
-285.409
-299.175
-311.577
-322.633
-332.364
-340.785
-347.914
-353.76
-358.334
-361.644
-363.699
-364.507
-364.071
-362.399
-359.493
-355.359
-349.983
-343.396
-335.613
-326.646
-316.515
-305.242
-292.855
-279.38
-264.843
-249.267
-232.674
-215.078
-196.492
-176.921
-156.368
-134.84
-112.35
-88.9185
-64.579
-39.379
-13.3794
13.3423
40.6971
68.5848
96.9059
125.635
154.293
182.796
210.97
238.603
265.463
291.302
315.866
338.9
360.15
379.365
396.303
410.732
422.445
431.255
437.011
439.589
438.909
434.936
427.676
417.184
403.547
386.897
367.404
345.279
320.762
294.129
265.682
235.74
204.635
172.7
140.267
107.649
75.1439
43.0302
11.5576
-19.0499
-48.5982
-76.9226
-103.898
-129.422
-153.426
-175.863
-196.716
-215.985
-233.684
-249.837
-264.476
-277.645
-289.397
-299.795
-308.905
-316.879
-324.056
-330.089
-334.915
-338.681
-341.865
426.723
439.538
449.435
456.34
460.195
460.933
458.529
452.839
444.04
432.186
417.371
399.726
379.387
356.543
331.378
304.122
275.082
244.545
212.845
180.286
147.181
113.804
80.4222
47.269
14.5698
-17.5086
-48.7878
-78.9024
-107.763
-135.264
-161.301
-185.799
-208.697
-229.962
-249.571
-267.519
-283.821
-298.498
-311.584
-323.121
-333.156
-341.738
-348.922
-354.761
-359.312
-362.626
-364.751
-365.732
-365.608
-364.415
-362.18
-358.925
-354.666
-349.408
-343.147
-335.836
-327.502
-318.114
-307.666
-296.12
-283.461
-269.652
-254.676
-238.502
-221.12
-202.515
-182.683
-161.628
-139.358
-115.903
-91.2785
-65.5466
-38.7829
-11.0619
17.4939
46.7708
76.5836
106.783
137.168
167.525
197.597
227.134
255.858
283.499
309.775
334.414
357.149
377.723
395.908
411.477
424.256
434.086
440.847
444.455
444.86
442.054
436.062
426.934
414.793
399.774
382.047
361.807
339.273
314.689
288.31
260.4
231.234
201.087
170.23
138.929
107.438
75.9976
44.8311
14.1411
-15.8922
-45.0567
-73.3085
-100.482
-126.489
-151.252
-174.712
-196.825
-217.561
-236.899
-254.832
-271.356
-286.485
-300.228
-312.608
-323.642
-333.353
-341.758
-348.872
-354.706
-359.269
-362.57
-364.617
-365.418
-364.977
-363.298
-360.387
-356.248
-350.862
-344.267
-336.473
-327.495
-317.35
-306.063
-293.661
-280.174
-265.625
-250.042
-233.445
-215.849
-197.266
-177.7
-157.153
-135.629
-113.138
-89.7009
-65.3472
-40.1244
-14.0909
12.6764
40.0914
68.0542
96.4643
125.261
154.043
182.689
211.022
238.829
265.874
291.908
316.676
339.916
361.372
380.788
397.919
412.525
424.395
433.337
439.195
441.841
441.194
437.217
429.917
419.349
405.602
388.812
369.15
346.83
322.099
295.235
266.547
236.358
205.008
172.835
140.173
107.342
74.6411
42.352
10.7255
-20.0135
-49.669
-78.0786
-105.117
-130.683
-154.709
-177.152
-197.998
-217.247
-234.918
-251.036
-265.631
-278.748
-290.439
-300.768
-309.812
-317.698
-324.924
-330.96
-335.806
-339.615
-342.862
428.619
441.575
451.588
458.586
462.505
463.277
460.871
455.159
446.301
434.357
419.424
401.635
381.13
358.098
332.723
305.24
275.96
245.175
213.234
180.444
147.122
113.544
79.9785
46.6577
13.8056
-18.4101
-49.7861
-80.0031
-108.952
-136.524
-162.613
-187.147
-210.065
-231.338
-250.942
-268.876
-285.155
-299.803
-312.854
-324.352
-334.344
-342.882
-350.021
-355.816
-360.324
-363.597
-365.684
-366.632
-366.479
-365.261
-363.007
-359.74
-355.475
-350.217
-343.962
-336.66
-328.341
-318.971
-308.546
-297.025
-284.392
-270.611
-255.661
-239.512
-222.151
-203.564
-183.744
-162.695
-140.423
-116.956
-92.3083
-66.5403
-39.7257
-11.9372
16.7042
46.0862
76.022
106.366
136.912
167.45
197.718
227.463
256.404
284.268
310.767
335.626
358.574
379.351
397.72
413.456
426.375
436.319
443.165
446.824
447.248
444.427
438.385
429.175
416.92
401.759
383.865
363.435
340.695
315.891
289.282
261.14
231.742
201.368
170.293
138.785
107.103
75.4888
44.1673
13.343
-16.8011
-46.069
-74.3922
-101.623
-127.671
-152.462
-175.938
-198.056
-218.789
-238.117
-256.034
-272.538
-287.644
-301.363
-313.718
-324.729
-334.419
-342.805
-349.904
-355.724
-360.276
-363.567
-365.605
-366.399
-365.952
-364.268
-361.35
-357.204
-351.811
-345.205
-337.4
-328.409
-318.249
-306.946
-294.529
-281.027
-266.467
-250.875
-234.274
-216.678
-198.099
-178.54
-158
-136.48
-113.99
-90.546
-66.1777
-40.9306
-14.8619
11.9544
39.4326
67.4741
95.9739
124.859
153.77
182.57
211.073
239.066
266.311
292.557
317.544
341.008
362.687
382.322
399.661
414.459
426.499
435.584
441.553
444.273
443.662
439.681
432.338
421.688
407.822
390.88
371.035
348.505
323.541
296.427
267.477
237.023
205.407
172.975
140.067
107.005
74.0935
41.615
9.82204
-21.058
-50.829
-79.3301
-106.435
-132.046
-156.096
-178.545
-199.381
-218.609
-236.249
-252.329
-266.879
-279.941
-291.566
-301.821
-310.792
-318.597
-325.836
-331.873
-336.771
-340.594
-343.894
430.652
443.76
453.9
460.997
464.985
465.794
463.393
457.65
448.729
436.688
421.628
403.685
383
359.767
334.168
306.439
276.899
245.848
213.646
180.607
147.053
113.259
79.4978
45.998
12.9838
-19.3776
-50.864
-81.1904
-110.233
-137.88
-164.024
-188.596
-211.535
-232.815
-252.414
-270.333
-286.587
-301.202
-314.215
-325.671
-335.617
-344.108
-351.198
-356.946
-361.407
-364.637
-366.684
-367.595
-367.411
-366.167
-363.893
-360.611
-356.34
-351.082
-344.834
-337.542
-329.238
-319.889
-309.487
-297.994
-285.39
-271.639
-256.718
-240.595
-223.258
-204.69
-184.884
-163.841
-141.568
-118.088
-93.416
-67.6101
-40.7413
-12.8811
15.8518
45.3455
75.4137
105.912
136.632
167.364
197.843
227.811
256.986