/*--------------------------------*- C++ -*----------------------------------*\
| =========                 |                                                 |
| \\      /  F ield         | OpenFOAM: The Open Source CFD Toolbox           |
|  \\    /   O peration     | Version:  3.0.1                                 |
|   \\  /    A nd           | Web:      www.OpenFOAM.org                      |
|    \\/     M anipulation  |                                                 |
\*---------------------------------------------------------------------------*/
FoamFile
{
    version     2.0;
    format      ascii;
    class       volVectorField;
    location    "63.4";
    object      U;
}
// * * * * * * * * * * * * * * * * * * * * * * * * * * * * * * * * * * * * * //

dimensions      [0 1 -1 0 0 0 0];

internalField   nonuniform List<vector> 
21420
(
(-0.119 -0.000625871 0)
(-0.113099 -0.000712664 0)
(-0.105482 -0.000798706 0)
(-0.09697 -0.000886961 0)
(-0.0875289 -0.000984728 0)
(-0.0771362 -0.0010769 0)
(-0.0657738 -0.0011804 0)
(-0.0534342 -0.00127307 0)
(-0.0401242 -0.00136279 0)
(-0.0258523 -0.00146762 0)
(-0.0106258 -0.0015504 0)
(0.00539357 -0.0016165 0)
(0.0221413 -0.00170676 0)
(0.0396019 -0.00175633 0)
(0.0576008 -0.00182224 0)
(0.0759776 -0.00183899 0)
(0.0945373 -0.00183341 0)
(0.113069 -0.00184245 0)
(0.131349 -0.00179215 0)
(0.149114 -0.00171547 0)
(0.166099 -0.00164497 0)
(0.182045 -0.0015186 0)
(0.196681 -0.00136822 0)
(0.209744 -0.00121203 0)
(0.221004 -0.0010177 0)
(0.230247 -0.000812255 0)
(0.237294 -0.000583961 0)
(0.242014 -0.000344627 0)
(0.244272 -0.00010029 0)
(0.244105 0.000141419 0)
(0.241412 0.00039481 0)
(0.236212 0.000631117 0)
(0.228698 0.000863554 0)
(0.218965 0.00106235 0)
(0.207204 0.00125897 0)
(0.193606 0.00144142 0)
(0.178405 0.00156699 0)
(0.161875 0.00169529 0)
(0.144264 0.00180185 0)
(0.125828 0.00184667 0)
(0.106841 0.00189824 0)
(0.0875515 0.00189439 0)
(0.0681823 0.0018985 0)
(0.0489329 0.00188074 0)
(0.030012 0.00181979 0)
(0.0117564 0.0017621 0)
(-0.00545613 0.00170674 0)
(-0.0218777 0.0016155 0)
(-0.0376878 0.00153173 0)
(-0.0526148 0.00144057 0)
(-0.0665895 0.00133882 0)
(-0.0795922 0.00124256 0)
(-0.0916119 0.00114092 0)
(-0.102656 0.00104537 0)
(-0.112732 0.000949839 0)
(-0.121861 0.000854763 0)
(-0.130077 0.000765044 0)
(-0.137395 0.000676007 0)
(-0.143838 0.000589855 0)
(-0.149443 0.000505972 0)
(-0.154241 0.000426336 0)
(-0.158263 0.000350194 0)
(-0.161491 0.000274398 0)
(-0.163941 0.000195442 0)
(-0.165652 0.000127839 0)
(-0.166584 5.59353e-05 0)
(-0.16677 -2.42074e-05 0)
(-0.166182 -9.43142e-05 0)
(-0.164824 -0.000178696 0)
(-0.162697 -0.000251548 0)
(-0.159804 -0.000326227 0)
(-0.156093 -0.000414415 0)
(-0.151554 -0.000493283 0)
(-0.146285 -0.000574465 0)
(-0.140103 -0.000664058 0)
(-0.133002 -0.000734347 0)
(-0.125128 -0.000829946 0)
(-0.116341 -0.000917463 0)
(-0.106817 -0.000999123 0)
(-0.0963629 -0.00108903 0)
(-0.0849548 -0.00116525 0)
(-0.072799 -0.00124137 0)
(-0.0598725 -0.0013283 0)
(-0.0460967 -0.00140615 0)
(-0.0315883 -0.00148342 0)
(-0.0163102 -0.00156031 0)
(-0.000200755 -0.00161833 0)
(0.0165713 -0.00168271 0)
(0.0338427 -0.00174357 0)
(0.0516092 -0.00178677 0)
(0.0697292 -0.00180205 0)
(0.0879573 -0.00180419 0)
(0.106048 -0.0017755 0)
(0.123742 -0.00172567 0)
(0.140781 -0.0016475 0)
(0.15689 -0.00154091 0)
(0.171803 -0.00141769 0)
(0.185324 -0.00126314 0)
(0.1972 -0.00108676 0)
(0.207208 -0.000896261 0)
(0.21522 -0.000688963 0)
(0.221091 -0.000472144 0)
(0.224674 -0.000238239 0)
(0.225872 -2.87152e-06 0)
(0.224738 0.000233451 0)
(0.221037 0.000480723 0)
(0.214973 0.000718241 0)
(0.206617 0.000943051 0)
(0.196067 0.00114861 0)
(0.183503 0.00133823 0)
(0.169134 0.00150629 0)
(0.15318 0.00165 0)
(0.135926 0.00177535 0)
(0.117626 0.00186057 0)
(0.0985722 0.00191576 0)
(0.0790757 0.00194806 0)
(0.0594141 0.0019516 0)
(0.0398124 0.00193367 0)
(0.0204961 0.00190128 0)
(0.00168904 0.00183781 0)
(-0.0164555 0.00176182 0)
(-0.0337922 0.00167607 0)
(-0.050213 0.00158465 0)
(-0.065644 0.00147941 0)
(-0.0800301 0.00137134 0)
(-0.0933312 0.00126822 0)
(-0.105532 0.00115101 0)
(-0.116623 0.0010433 0)
(-0.126592 0.000943532 0)
(-0.135509 0.000828762 0)
(-0.143394 0.000728792 0)
(-0.150226 0.000634297 0)
(-0.156109 0.000534862 0)
(-0.161085 0.000449448 0)
(-0.165149 0.000363734 0)
(-0.1684 0.00028029 0)
(-0.170876 0.000212054 0)
(-0.172597 0.000133599 0)
(-0.173614 7.11027e-05 0)
(-0.173996 6.90355e-06 0)
(-0.173746 -5.57266e-05 0)
(-0.172906 -0.000110948 0)
(-0.171501 -0.000166848 0)
(-0.169543 -0.000223495 0)
(-0.167013 -0.000271602 0)
(-0.163941 -0.000334419 0)
(-0.160263 -0.000391592 0)
(-0.155988 -0.000455899 0)
(-0.151075 -0.000519224 0)
(-0.14553 -0.000591911 0)
(-0.139244 -0.000647537 0)
(-0.132263 -0.000724322 0)
(-0.124569 -0.000799851 0)
(-0.116127 -0.000875874 0)
(-0.106895 -0.000954124 0)
(-0.0968469 -0.00103317 0)
(-0.08597 -0.0011203 0)
(-0.0742719 -0.00120914 0)
(-0.0617 -0.00128439 0)
(-0.0482544 -0.00136416 0)
(-0.0340696 -0.00144772 0)
(-0.0191385 -0.00151393 0)
(-0.00354562 -0.00156995 0)
(0.0125979 -0.00162299 0)
(0.0291705 -0.00166402 0)
(0.046051 -0.00168303 0)
(0.0630568 -0.00168397 0)
(0.0800007 -0.00167237 0)
(0.0966866 -0.00162929 0)
(0.112825 -0.00156822 0)
(0.128208 -0.00148111 0)
(0.142583 -0.00136634 0)
(0.155693 -0.00122595 0)
(0.167252 -0.00106724 0)
(0.177048 -0.000876456 0)
(0.184852 -0.000665224 0)
(0.190448 -0.000440293 0)
(0.193678 -0.000201308 0)
(0.194507 3.28839e-05 0)
(0.192944 0.000279385 0)
(0.18881 0.000527203 0)
(0.182351 0.000756291 0)
(0.17365 0.000969886 0)
(0.162817 0.00117241 0)
(0.150051 0.00135106 0)
(0.13566 0.00150415 0)
(0.119902 0.00162245 0)
(0.103061 0.00170881 0)
(0.0854508 0.00177611 0)
(0.0673657 0.00182122 0)
(0.0490221 0.00182748 0)
(0.0306919 0.00181099 0)
(0.0126087 0.00177407 0)
(-0.0050901 0.00173055 0)
(-0.0222366 0.00167075 0)
(-0.0386855 0.00159569 0)
(-0.0543561 0.00151372 0)
(-0.0691874 0.00142732 0)
(-0.0830871 0.00133298 0)
(-0.0960197 0.00123515 0)
(-0.107958 0.00113328 0)
(-0.118886 0.00103136 0)
(-0.128783 0.00093393 0)
(-0.137642 0.000826198 0)
(-0.145511 0.000735994 0)
(-0.152436 0.000642987 0)
(-0.158529 0.000562584 0)
(-0.16388 0.000502339 0)
(-0.168553 0.000427153 0)
(-0.172605 0.000372517 0)
(-0.176052 0.00031007 0)
(-0.178889 0.000248664 0)
(-0.181091 0.000187521 0)
(-0.182674 0.000125117 0)
(-0.183586 6.51064e-05 0)
(-0.183895 2.23369e-06 0)
(-0.183575 -6.12289e-05 0)
(-0.182644 -0.000120491 0)
(-0.18116 -0.000178415 0)
(-0.179035 -0.000240083 0)
(-0.176325 -0.000293021 0)
(-0.17306 -0.000353618 0)
(-0.169167 -0.000414637 0)
(-0.164666 -0.000478745 0)
(-0.15953 -0.000541439 0)
(-0.15371 -0.000605746 0)
(-0.14721 -0.00068024 0)
(-0.139986 -0.00075026 0)
(-0.132038 -0.000826643 0)
(-0.123277 -0.000906196 0)
(-0.113737 -0.000981822 0)
(-0.103411 -0.00106503 0)
(-0.0922557 -0.00114155 0)
(-0.0803245 -0.00122544 0)
(-0.0675968 -0.00129739 0)
(-0.0541521 -0.0013696 0)
(-0.040008 -0.00144162 0)
(-0.0252032 -0.00149247 0)
(-0.00982426 -0.00154821 0)
(0.00600531 -0.00158503 0)
(0.0221627 -0.00161289 0)
(0.038502 -0.00162223 0)
(0.0548516 -0.00162013 0)
(0.0710451 -0.00158904 0)
(0.0868455 -0.0015382 0)
(0.102014 -0.00146599 0)
(0.116331 -0.00136983 0)
(0.129549 -0.00124906 0)
(0.141421 -0.00109886 0)
(0.151696 -0.000935134 0)
(0.160175 -0.000746061 0)
(0.166637 -0.000534978 0)
(0.170926 -0.000312709 0)
(0.17289 -7.91617e-05 0)
(0.172502 0.000159869 0)
(0.169592 0.000403671 0)
(0.164326 0.000632021 0)
(0.156805 0.000861274 0)
(0.147113 0.00106365 0)
(0.135478 0.00124125 0)
(0.122132 0.0013987 0)
(0.107356 0.00152833 0)
(0.0914255 0.00163406 0)
(0.0745848 0.00170543 0)
(0.0571549 0.00175936 0)
(0.0393872 0.00177995 0)
(0.0215356 0.00176923 0)
(0.00387851 0.00173987 0)
(-0.01336 0.00169987 0)
(-0.0299931 0.00162875 0)
(-0.0459228 0.00154888 0)
(-0.0610339 0.00145902 0)
(-0.0752133 0.00136278 0)
(-0.0883848 0.00126105 0)
(-0.100475 0.00115216 0)
(-0.1114 0.0010411 0)
(-0.1212 0.000926247 0)
(-0.12988 0.000809401 0)
(-0.137353 0.000695873 0)
(-0.143679 0.000588495 0)
(-0.148962 0.000485106 0)
(-0.153281 0.000391446 0)
(-0.156774 0.000314802 0)
(-0.159532 0.000240154 0)
(-0.161665 0.000180465 0)
(-0.16337 0.000137801 0)
(-0.164646 8.9208e-05 0)
(-0.165493 4.46685e-05 0)
(-0.165943 1.25799e-05 0)
(-0.165943 -3.09932e-05 0)
(-0.165579 -5.67502e-05 0)
(-0.164863 -9.1388e-05 0)
(-0.163726 -0.00012989 0)
(-0.16225 -0.000157532 0)
(-0.160431 -0.000192429 0)
(-0.158199 -0.000235801 0)
(-0.15558 -0.000277014 0)
(-0.152548 -0.000322801 0)
(-0.148964 -0.000380086 0)
(-0.144797 -0.000434509 0)
(-0.140008 -0.0005105 0)
(-0.134516 -0.000580352 0)
(-0.128249 -0.000658304 0)
(-0.121074 -0.000756643 0)
(-0.11293 -0.000845177 0)
(-0.103836 -0.000939768 0)
(-0.0937006 -0.00105988 0)
(-0.0824759 -0.00115974 0)
(-0.0701506 -0.00127989 0)
(-0.0567283 -0.00137378 0)
(-0.0423421 -0.00145987 0)
(-0.0270345 -0.00156504 0)
(-0.0109026 -0.00163085 0)
(0.00574565 -0.00167288 0)
(0.0228758 -0.00173521 0)
(0.0404203 -0.00174453 0)
(0.0580773 -0.00176251 0)
(0.075627 -0.00172813 0)
(0.0927966 -0.00166731 0)
(0.109334 -0.00160879 0)
(0.12501 -0.00150295 0)
(0.139569 -0.00137462 0)
(0.152783 -0.00123989 0)
(0.164453 -0.0010731 0)
(0.174394 -0.000897336 0)
(0.182451 -0.000701246 0)
(0.188512 -0.000496316 0)
(0.192506 -0.000287162 0)
(0.194374 -7.74611e-05 0)
(0.194131 0.000134037 0)
(0.191692 0.000342496 0)
(0.187171 0.000544246 0)
(0.180736 0.000734766 0)
(0.172508 0.000897575 0)
(0.162653 0.0010553 0)
(0.151355 0.00117786 0)
(0.138815 0.00129761 0)
(0.125229 0.00139989 0)
(0.110794 0.00146008 0)
(0.0957064 0.00152411 0)
(0.0801417 0.00157176 0)
(0.0642669 0.00157961 0)
(0.0482334 0.00159636 0)
(0.0321669 0.00157694 0)
(0.0160232 0.00156807 0)
(0.000330503 0.00154788 0)
(-0.0148342 0.00149766 0)
(-0.0297553 0.00145881 0)
(-0.0441826 0.00141099 0)
(-0.0580332 0.00133999 0)
(-0.0712398 0.00127838 0)
(-0.0837426 0.00119787 0)
(-0.0954912 0.00112562 0)
(-0.106443 0.00104797 0)
(-0.116556 0.000958415 0)
(-0.12581 0.000874441 0)
(-0.135186 0.00078686 0)
(-0.119033 -0.00187747 0)
(-0.113133 -0.00213786 0)
(-0.105518 -0.00239599 0)
(-0.0970067 -0.00266076 0)
(-0.0875669 -0.00295409 0)
(-0.0771747 -0.00323064 0)
(-0.0658131 -0.00354119 0)
(-0.0534732 -0.00381924 0)
(-0.0401624 -0.00408842 0)
(-0.02589 -0.00440297 0)
(-0.0106598 -0.00465156 0)
(0.00536298 -0.00484971 0)
(0.022113 -0.00512082 0)
(0.0395793 -0.0052696 0)
(0.0575843 -0.00546741 0)
(0.0759686 -0.00551773 0)
(0.0945364 -0.00550109 0)
(0.113078 -0.00552836 0)
(0.131367 -0.00537748 0)
(0.149142 -0.00514743 0)
(0.166138 -0.00493602 0)
(0.182095 -0.00455688 0)
(0.196739 -0.00410568 0)
(0.209814 -0.00363705 0)
(0.221082 -0.00305394 0)
(0.230333 -0.00243738 0)
(0.237385 -0.0017518 0)
(0.242109 -0.00103375 0)
(0.244374 -0.00030236 0)
(0.244208 0.000423103 0)
(0.241504 0.00118473 0)
(0.236305 0.0018934 0)
(0.228788 0.00259108 0)
(0.219047 0.00318777 0)
(0.207279 0.0037777 0)
(0.193673 0.00432518 0)
(0.178462 0.00470188 0)
(0.161922 0.00508689 0)
(0.144301 0.00540659 0)
(0.125855 0.005541 0)
(0.106858 0.00569569 0)
(0.0875598 0.00568407 0)
(0.0681823 0.00569633 0)
(0.0489248 0.00564302 0)
(0.0299967 0.00545995 0)
(0.0117381 0.00528688 0)
(-0.00547803 0.00512057 0)
(-0.0219049 0.00484681 0)
(-0.0377178 0.00459559 0)
(-0.0526468 0.00432206 0)
(-0.0666226 0.00401661 0)
(-0.0796265 0.00372805 0)
(-0.0916463 0.00342308 0)
(-0.10269 0.00313635 0)
(-0.112767 0.0028499 0)
(-0.121896 0.0025646 0)
(-0.130113 0.00229549 0)
(-0.137431 0.00202857 0)
(-0.143874 0.00177058 0)
(-0.14948 0.00151876 0)
(-0.154279 0.00127968 0)
(-0.158303 0.00105071 0)
(-0.161534 0.000822178 0)
(-0.163984 0.000586065 0)
(-0.165699 0.000383202 0)
(-0.166632 0.000168106 0)
(-0.16682 -7.16206e-05 0)
(-0.166236 -0.000284922 0)
(-0.164875 -0.000534451 0)
(-0.162754 -0.000754864 0)
(-0.15986 -0.000977172 0)
(-0.156154 -0.00124314 0)
(-0.151614 -0.00147972 0)
(-0.146347 -0.00172154 0)
(-0.14016 -0.00199075 0)
(-0.133063 -0.0022049 0)
(-0.12519 -0.00249075 0)
(-0.116402 -0.00275206 0)
(-0.106877 -0.0029988 0)
(-0.09642 -0.00326317 0)
(-0.0850053 -0.00349364 0)
(-0.0728573 -0.00373339 0)
(-0.0599243 -0.00398494 0)
(-0.0461443 -0.00422294 0)
(-0.0316294 -0.00445257 0)
(-0.016339 -0.0046791 0)
(-0.000231968 -0.00486288 0)
(0.016557 -0.0050535 0)
(0.0338423 -0.00522684 0)
(0.0516163 -0.00536042 0)
(0.0697439 -0.005413 0)
(0.0879908 -0.00541907 0)
(0.106101 -0.00533884 0)
(0.123812 -0.00518345 0)
(0.140861 -0.00494529 0)
(0.156973 -0.00463269 0)
(0.171901 -0.00424667 0)
(0.185427 -0.00378493 0)
(0.197301 -0.00326772 0)
(0.207315 -0.00269779 0)
(0.215336 -0.00206825 0)
(0.221209 -0.0014119 0)
(0.22479 -0.00072081 0)
(0.225991 -2.04791e-05 0)
(0.224852 0.000708352 0)
(0.221144 0.00144481 0)
(0.215077 0.00214213 0)
(0.206722 0.00282905 0)
(0.196169 0.0034489 0)
(0.183596 0.00402164 0)
(0.169205 0.00451968 0)
(0.153232 0.00495021 0)
(0.135957 0.00532147 0)
(0.117642 0.00556644 0)
(0.0985826 0.00575001 0)
(0.0790717 0.00585533 0)
(0.0593886 0.00586194 0)
(0.0397707 0.00580634 0)
(0.0204319 0.00569123 0)
(0.00161268 0.00551116 0)
(-0.0165398 0.00529203 0)
(-0.0338933 0.00503618 0)
(-0.0503336 0.00474826 0)
(-0.0657661 0.00444204 0)
(-0.0801566 0.00412645 0)
(-0.0934713 0.00380477 0)
(-0.105679 0.00345435 0)
(-0.116774 0.00312533 0)
(-0.126751 0.00283437 0)
(-0.135679 0.00248156 0)
(-0.143559 0.00218203 0)
(-0.150396 0.00191425 0)
(-0.156292 0.00160011 0)
(-0.161271 0.00134301 0)
(-0.165338 0.00109341 0)
(-0.16859 0.000841699 0)
(-0.171071 0.000630233 0)
(-0.172793 0.000400423 0)
(-0.17381 0.000213407 0)
(-0.17419 1.57183e-05 0)
(-0.17394 -0.000161672 0)
(-0.1731 -0.00033088 0)
(-0.1717 -0.00049982 0)
(-0.169741 -0.000671679 0)
(-0.16722 -0.000827963 0)
(-0.164129 -0.00100068 0)
(-0.16046 -0.00117984 0)
(-0.156175 -0.00136243 0)
(-0.151271 -0.00156268 0)
(-0.145706 -0.0017711 0)
(-0.139424 -0.00195023 0)
(-0.132448 -0.0021763 0)
(-0.124756 -0.00240257 0)
(-0.116307 -0.00262714 0)
(-0.107071 -0.00286868 0)
(-0.0970128 -0.00310622 0)
(-0.0861209 -0.00335819 0)
(-0.0744266 -0.00363603 0)
(-0.0618354 -0.00385167 0)
(-0.048393 -0.00410833 0)
(-0.03418 -0.00433679 0)
(-0.0192439 -0.00453982 0)
(-0.00365484 -0.00472463 0)
(0.0125069 -0.004874 0)
(0.0290983 -0.00498047 0)
(0.0459824 -0.00505223 0)
(0.0629996 -0.00506605 0)
(0.0799654 -0.00501869 0)
(0.0966533 -0.00489942 0)
(0.112816 -0.00470772 0)
(0.128217 -0.00444502 0)
(0.14261 -0.00410465 0)
(0.155733 -0.00369041 0)
(0.167323 -0.00319144 0)
(0.177119 -0.0026294 0)
(0.184931 -0.00200397 0)
(0.19054 -0.00132422 0)
(0.19378 -0.000611471 0)
(0.194615 0.000101541 0)
(0.193039 0.000841786 0)
(0.188898 0.00156806 0)
(0.182448 0.00226652 0)
(0.17374 0.00292058 0)
(0.162888 0.00351615 0)
(0.150113 0.00405015 0)
(0.135705 0.00450137 0)
(0.119933 0.00486976 0)
(0.103075 0.00514043 0)
(0.0854355 0.00533472 0)
(0.0673252 0.00544851 0)
(0.048974 0.00546882 0)
(0.0306396 0.00543388 0)
(0.0125448 0.00534262 0)
(-0.00517855 0.00519766 0)
(-0.0223415 0.00500591 0)
(-0.0387925 0.00479403 0)
(-0.0544733 0.00454537 0)
(-0.0693163 0.00428086 0)
(-0.0832282 0.0039953 0)
(-0.0961684 0.00370164 0)
(-0.108116 0.00340472 0)
(-0.119055 0.00309815 0)
(-0.128958 0.00280424 0)
(-0.137819 0.00247878 0)
(-0.145685 0.00220008 0)
(-0.152607 0.00194251 0)
(-0.158704 0.00169136 0)
(-0.164064 0.00149683 0)
(-0.168738 0.0012891 0)
(-0.172798 0.00111615 0)
(-0.176246 0.000931354 0)
(-0.179082 0.000748109 0)
(-0.181287 0.000564586 0)
(-0.182871 0.000364914 0)
(-0.183783 0.000197512 0)
(-0.184092 4.45055e-06 0)
(-0.183773 -0.000181843 0)
(-0.182837 -0.000369906 0)
(-0.181347 -0.000532777 0)
(-0.179225 -0.000717759 0)
(-0.176511 -0.000880706 0)
(-0.173247 -0.00106982 0)
(-0.169344 -0.00124504 0)
(-0.164842 -0.00144012 0)
(-0.159702 -0.00162231 0)
(-0.153899 -0.00183048 0)
(-0.147373 -0.00203496 0)
(-0.140156 -0.00226143 0)
(-0.132195 -0.00248677 0)
(-0.123435 -0.00271198 0)
(-0.113889 -0.00295809 0)
(-0.103551 -0.00319159 0)
(-0.0924018 -0.0034443 0)
(-0.0804375 -0.00365869 0)
(-0.0677243 -0.00389942 0)
(-0.0542639 -0.00411758 0)
(-0.040109 -0.00432386 0)
(-0.0252935 -0.00447639 0)
(-0.00991049 -0.0046422 0)
(0.00592557 -0.00476052 0)
(0.022095 -0.00485207 0)
(0.0384484 -0.00487175 0)
(0.0548176 -0.00485497 0)
(0.071018 -0.00477261 0)
(0.0868307 -0.00462364 0)
(0.102017 -0.00440628 0)
(0.116353 -0.00410923 0)
(0.12958 -0.00374814 0)
(0.141454 -0.00331297 0)
(0.151756 -0.00280373 0)
(0.160241 -0.00223627 0)
(0.166708 -0.00161014 0)
(0.171003 -0.000939814 0)
(0.172964 -0.00023162 0)
(0.172563 0.000470565 0)
(0.169654 0.00120937 0)
(0.164388 0.00190752 0)
(0.156848 0.00257751 0)
(0.147154 0.00318198 0)
(0.135519 0.00373247 0)
(0.122156 0.00419737 0)
(0.107369 0.00457845 0)
(0.0914332 0.00490356 0)
(0.0745853 0.00512169 0)
(0.0571442 0.00527792 0)
(0.0393675 0.00533471 0)
(0.021515 0.00531392 0)
(0.00384749 0.00522568 0)
(-0.0133995 0.00509512 0)
(-0.0300336 0.00488727 0)
(-0.0459721 0.00465266 0)
(-0.0610882 0.00437825 0)
(-0.0752677 0.00408791 0)
(-0.0884432 0.00378257 0)
(-0.100531 0.00345661 0)
(-0.11146 0.00312786 0)
(-0.121264 0.00277798 0)
(-0.129944 0.00243144 0)
(-0.137416 0.00208534 0)
(-0.14374 0.00176663 0)
(-0.149019 0.00145656 0)
(-0.153333 0.00117773 0)
(-0.156825 0.000943868 0)
(-0.159578 0.00071864 0)
(-0.161704 0.000542232 0)
(-0.163407 0.000410344 0)
(-0.164682 0.000267163 0)
(-0.165527 0.000132794 0)
(-0.165972 3.95561e-05 0)
(-0.165974 -9.38318e-05 0)
(-0.165607 -0.000169571 0)
(-0.164891 -0.000273379 0)
(-0.163754 -0.000389387 0)
(-0.162277 -0.000471939 0)
(-0.160458 -0.000576615 0)
(-0.158228 -0.000707883 0)
(-0.155611 -0.000830068 0)
(-0.152579 -0.000966812 0)
(-0.148997 -0.0011404 0)
(-0.144834 -0.00130341 0)
(-0.140048 -0.00153145 0)
(-0.134558 -0.00174059 0)
(-0.128293 -0.00197439 0)
(-0.12112 -0.00226941 0)
(-0.112979 -0.00253446 0)
(-0.103887 -0.00281963 0)
(-0.0937531 -0.00317982 0)
(-0.0825277 -0.00347898 0)
(-0.0702012 -0.00383981 0)
(-0.0567765 -0.00412156 0)
(-0.042387 -0.00437993 0)
(-0.027075 -0.00469551 0)
(-0.0109361 -0.00489303 0)
(0.00571889 -0.00501919 0)
(0.0228563 -0.00520639 0)
(0.0404096 -0.00523448 0)
(0.0580768 -0.00528862 0)
(0.0756365 -0.00518546 0)
(0.0928158 -0.00500295 0)
(0.109364 -0.00482728 0)
(0.12505 -0.00450997 0)
(0.139618 -0.00412486 0)
(0.152841 -0.00372058 0)
(0.164519 -0.00322 0)
(0.174467 -0.00269256 0)
(0.182529 -0.00210407 0)
(0.188593 -0.00148886 0)
(0.19259 -0.000860754 0)
(0.194462 -0.000234545 0)
(0.194218 0.000401614 0)
(0.19177 0.00102788 0)
(0.187248 0.00163303 0)
(0.180809 0.00220485 0)
(0.172574 0.00269336 0)
(0.162712 0.0031666 0)
(0.151405 0.0035343 0)
(0.138858 0.00389356 0)
(0.125264 0.00420044 0)
(0.110821 0.00438095 0)
(0.0957265 0.004573 0)
(0.0801552 0.00471591 0)
(0.0642742 0.0047394 0)
(0.0482351 0.00478962 0)
(0.0321636 0.00473132 0)
(0.0160153 0.00470479 0)
(0.000318295 0.00464392 0)
(-0.0148498 0.00449327 0)
(-0.0297743 0.00437675 0)
(-0.0442049 0.00423327 0)
(-0.0580578 0.00402023 0)
(-0.071267 0.00383535 0)
(-0.0837714 0.00359381 0)
(-0.095522 0.00337703 0)
(-0.106475 0.00314405 0)
(-0.11659 0.00287536 0)
(-0.125845 0.00262341 0)
(-0.135221 0.00236064 0)
(-0.119098 -0.00312864 0)
(-0.113202 -0.00356265 0)
(-0.105588 -0.0039929 0)
(-0.0970794 -0.00443424 0)
(-0.0876421 -0.00492322 0)
(-0.0772508 -0.00538423 0)
(-0.0658907 -0.00590195 0)
(-0.0535499 -0.00636554 0)
(-0.0402372 -0.00681429 0)
(-0.0259637 -0.00733864 0)
(-0.0107259 -0.00775329 0)
(0.00530396 -0.00808425 0)
(0.022059 -0.00853655 0)
(0.0395369 -0.00878468 0)
(0.0575541 -0.00911466 0)
(0.0759534 -0.0091988 0)
(0.0945377 -0.00917134 0)
(0.113098 -0.0092172 0)
(0.131407 -0.00896584 0)
(0.149201 -0.00858245 0)
(0.166221 -0.00823028 0)
(0.182197 -0.00759823 0)
(0.196861 -0.00684598 0)
(0.209957 -0.00606474 0)
(0.22124 -0.00509256 0)
(0.230508 -0.00406475 0)
(0.237569 -0.00292212 0)
(0.242299 -0.00172605 0)
(0.244582 -0.000498218 0)
(0.244408 0.000702642 0)
(0.241685 0.00197643 0)
(0.236489 0.00315638 0)
(0.228963 0.00432018 0)
(0.219206 0.00531586 0)
(0.207422 0.00629916 0)
(0.193799 0.00721196 0)
(0.178565 0.00783984 0)
(0.162005 0.00848165 0)
(0.144364 0.00901453 0)
(0.125897 0.00923829 0)
(0.106879 0.00949594 0)
(0.0875629 0.00947629 0)
(0.0681683 0.00949644 0)
(0.0488944 0.00940742 0)
(0.029952 0.00910171 0)
(0.0116872 0.00881337 0)
(-0.00553585 0.00853505 0)
(-0.0219728 0.00807883 0)
(-0.0377909 0.00766 0)
(-0.0527233 0.00720383 0)
(-0.0667003 0.00669445 0)
(-0.0797053 0.00621378 0)
(-0.0917241 0.0057053 0)
(-0.102767 0.00522735 0)
(-0.112842 0.00474991 0)
(-0.121969 0.00427434 0)
(-0.130183 0.00382632 0)
(-0.137499 0.0033812 0)
(-0.143941 0.00295088 0)
(-0.149545 0.00253162 0)
(-0.15434 0.00213261 0)
(-0.158363 0.00175166 0)
(-0.161594 0.00137084 0)
(-0.164043 0.000976192 0)
(-0.165757 0.000639673 0)
(-0.166694 0.000281614 0)
(-0.16688 -0.000121699 0)
(-0.166295 -0.000471996 0)
(-0.164937 -0.000892071 0)
(-0.162817 -0.00125796 0)
(-0.159924 -0.00162895 0)
(-0.156221 -0.00207314 0)
(-0.151682 -0.00246509 0)
(-0.146418 -0.00287237 0)
(-0.140223 -0.00331298 0)
(-0.133132 -0.00367969 0)
(-0.125263 -0.00414956 0)
(-0.116478 -0.00459128 0)
(-0.106948 -0.00500405 0)
(-0.0964932 -0.00543557 0)
(-0.0850702 -0.00582442 0)
(-0.0729323 -0.00622244 0)
(-0.0599948 -0.00664108 0)
(-0.0462173 -0.00704263 0)
(-0.0316936 -0.00741986 0)
(-0.0164036 -0.00780476 0)
(-0.000285694 -0.00810724 0)
(0.0165082 -0.00842334 0)
(0.0337933 -0.00871516 0)
(0.051578 -0.008942 0)
(0.0697205 -0.00902815 0)
(0.0879861 -0.00903196 0)
(0.106119 -0.00889505 0)
(0.123841 -0.00863941 0)
(0.140902 -0.0082455 0)
(0.157022 -0.00771933 0)
(0.171954 -0.00708387 0)
(0.18549 -0.00630911 0)
(0.197369 -0.00544137 0)
(0.207391 -0.00449524 0)
(0.215418 -0.00345012 0)
(0.221293 -0.00235845 0)
(0.224881 -0.00119997 0)
(0.226085 -2.94437e-05 0)
(0.224916 0.00117888 0)
(0.221207 0.00240519 0)
(0.215148 0.00358193 0)
(0.206788 0.00472052 0)
(0.196219 0.00574812 0)
(0.183628 0.00670273 0)
(0.16921 0.00753857 0)
(0.153212 0.00825709 0)
(0.135912 0.00887356 0)
(0.117577 0.00929581 0)
(0.0984922 0.00959126 0)
(0.0789544 0.00975398 0)
(0.0592481 0.00976971 0)
(0.0396111 0.00967887 0)
(0.020259 0.00949554 0)
(0.00141992 0.00919132 0)
(-0.016744 0.00882431 0)
(-0.0341073 0.00839141 0)
(-0.0505599 0.00791968 0)
(-0.066008 0.0074031 0)
(-0.0804008 0.00687056 0)
(-0.0937151 0.00634301 0)
(-0.105922 0.00576174 0)
(-0.117011 0.00522065 0)
(-0.126995 0.00471939 0)
(-0.135915 0.00413736 0)
(-0.143788 0.00364191 0)
(-0.150638 0.00318828 0)
(-0.15654 0.00267017 0)
(-0.161508 0.00223369 0)
(-0.165581 0.00183779 0)
(-0.168827 0.00139974 0)
(-0.171304 0.00105566 0)
(-0.17303 0.000670124 0)
(-0.174045 0.00035422 0)
(-0.174421 2.87473e-05 0)
(-0.174174 -0.000269955 0)
(-0.173336 -0.000559312 0)
(-0.171925 -0.000826294 0)
(-0.169968 -0.00111979 0)
(-0.167437 -0.00137561 0)
(-0.164351 -0.00167174 0)
(-0.160679 -0.00196399 0)
(-0.156405 -0.00227592 0)
(-0.151502 -0.00260625 0)
(-0.145931 -0.00293962 0)
(-0.139654 -0.00326351 0)
(-0.132686 -0.00362429 0)
(-0.125001 -0.00400829 0)
(-0.116547 -0.00437374 0)
(-0.107317 -0.00478126 0)
(-0.0972505 -0.00517526 0)
(-0.0863654 -0.00560792 0)
(-0.0746507 -0.00605361 0)
(-0.0620522 -0.00642637 0)
(-0.0486102 -0.00684404 0)
(-0.0343898 -0.0072302 0)
(-0.0194444 -0.00756883 0)
(-0.00384452 -0.00787036 0)
(0.0123234 -0.0081247 0)
(0.0289169 -0.00831465 0)
(0.0458154 -0.00842457 0)
(0.0628509 -0.0084433 0)
(0.079838 -0.00836522 0)
(0.096547 -0.00816433 0)
(0.112728 -0.00785191 0)
(0.128155 -0.00741543 0)
(0.14257 -0.0068446 0)
(0.155715 -0.00614792 0)
(0.167317 -0.00532929 0)
(0.177134 -0.00439027 0)
(0.18497 -0.0033368 0)
(0.190596 -0.00220817 0)
(0.193848 -0.00102098 0)
(0.194683 0.000168129 0)
(0.193077 0.00140241 0)
(0.18895 0.0026174 0)
(0.182492 0.00378705 0)
(0.173769 0.00486389 0)
(0.162907 0.00586462 0)
(0.150115 0.00675641 0)
(0.135687 0.00750908 0)
(0.119886 0.00812924 0)
(0.102992 0.00856579 0)
(0.0853307 0.00889639 0)
(0.0671991 0.00909345 0)
(0.0488352 0.00912473 0)
(0.0304865 0.00906361 0)
(0.0123672 0.00890482 0)
(-0.00537542 0.00865855 0)
(-0.0225446 0.00834345 0)
(-0.0390073 0.00799305 0)
(-0.0546982 0.00757407 0)
(-0.0695406 0.00714 0)
(-0.0834549 0.00666654 0)
(-0.0963986 0.00617609 0)
(-0.108353 0.00567554 0)
(-0.119294 0.00516197 0)
(-0.129206 0.00466713 0)
(-0.138062 0.00413006 0)
(-0.145925 0.00367242 0)
(-0.152852 0.00324361 0)
(-0.15893 0.00281542 0)
(-0.164285 0.0024994 0)
(-0.16896 0.00214789 0)
(-0.173019 0.00186147 0)
(-0.176476 0.00154641 0)
(-0.179302 0.00123757 0)
(-0.181509 0.000951916 0)
(-0.183092 0.00060956 0)
(-0.18401 0.000341455 0)
(-0.184322 6.26572e-08 0)
(-0.184 -0.000311044 0)
(-0.183048 -0.000613013 0)
(-0.181569 -0.000897879 0)
(-0.179445 -0.00118151 0)
(-0.176739 -0.00148112 0)
(-0.173461 -0.00177516 0)
(-0.169563 -0.002081 0)
(-0.165055 -0.00238992 0)
(-0.159931 -0.00271917 0)
(-0.15412 -0.00303112 0)
(-0.147596 -0.00339988 0)
(-0.140372 -0.00376738 0)
(-0.132413 -0.00414466 0)
(-0.123659 -0.0045246 0)
(-0.114102 -0.00491868 0)
(-0.103768 -0.00532939 0)
(-0.0926129 -0.00572768 0)
(-0.0806583 -0.00611504 0)
(-0.0679336 -0.00649704 0)
(-0.0544681 -0.0068545 0)
(-0.0403101 -0.00720102 0)
(-0.0254949 -0.00747724 0)
(-0.0101049 -0.0077429 0)
(0.00573738 -0.00793965 0)
(0.0219266 -0.00808391 0)
(0.0382953 -0.00811749 0)
(0.0546776 -0.00810531 0)
(0.0709051 -0.0079578 0)
(0.0867344 -0.00770477 0)
(0.101943 -0.00734003 0)
(0.116296 -0.00685435 0)
(0.129536 -0.00625658 0)
(0.141437 -0.00551783 0)
(0.151757 -0.00467242 0)
(0.160258 -0.00373557 0)
(0.166741 -0.00268078 0)
(0.171039 -0.00156334 0)
(0.173004 -0.00038987 0)
(0.172597 0.00078861 0)
(0.169687 0.00201786 0)
(0.164422 0.00317701 0)
(0.15688 0.0042983 0)
(0.147178 0.00530871 0)
(0.135532 0.00621807 0)
(0.122158 0.00699836 0)
(0.107363 0.00764157 0)
(0.0914108 0.00817389 0)
(0.074555 0.0085414 0)
(0.0571033 0.00879907 0)
(0.039314 0.00889697 0)
(0.0214513 0.00885609 0)
(0.00377714 0.00870861 0)
(-0.0134756 0.00849624 0)
(-0.0301193 0.00815102 0)
(-0.046065 0.00775212 0)
(-0.0611824 0.00729819 0)
(-0.075361 0.00681335 0)
(-0.0885389 0.00630565 0)
(-0.100628 0.00576254 0)
(-0.111557 0.00521358 0)
(-0.121364 0.00463638 0)
(-0.130047 0.0040508 0)
(-0.137509 0.00347799 0)
(-0.143832 0.00294645 0)
(-0.149108 0.00242803 0)
(-0.153408 0.00196261 0)
(-0.156894 0.0015722 0)
(-0.159636 0.00119674 0)
(-0.161752 0.000901874 0)
(-0.163448 0.000681941 0)
(-0.164721 0.000443306 0)
(-0.165563 0.000220149 0)
(-0.166004 6.53014e-05 0)
(-0.166003 -0.000155879 0)
(-0.165635 -0.000283312 0)
(-0.164918 -0.000455685 0)
(-0.163781 -0.000648652 0)
(-0.162304 -0.000786293 0)
(-0.160487 -0.000959784 0)
(-0.158262 -0.00117811 0)
(-0.155648 -0.00138023 0)
(-0.152618 -0.00161196 0)
(-0.149041 -0.00190169 0)
(-0.144884 -0.00217105 0)
(-0.140106 -0.00255269 0)
(-0.134621 -0.002899 0)
(-0.128361 -0.00328956 0)
(-0.121194 -0.0037813 0)
(-0.113057 -0.00422142 0)
(-0.103969 -0.00470025 0)
(-0.0938396 -0.00530026 0)
(-0.0826132 -0.00579817 0)
(-0.070285 -0.00640014 0)
(-0.056856 -0.00687006 0)
(-0.0424606 -0.00730116 0)
(-0.0271406 -0.00782717 0)
(-0.0109884 -0.00815681 0)
(0.00567927 -0.0083674 0)
(0.0228304 -0.00868009 0)
(0.0404007 -0.00872693 0)
(0.0580873 -0.00881768 0)
(0.0756658 -0.00864565 0)
(0.0928632 -0.00834147 0)
(0.109433 -0.00804861 0)
(0.125137 -0.00751965 0)
(0.139721 -0.00687761 0)
(0.152964 -0.00620367 0)
(0.164654 -0.00536906 0)
(0.174617 -0.00448965 0)
(0.182687 -0.00350858 0)
(0.188757 -0.00248296 0)
(0.192756 -0.00143629 0)
(0.194638 -0.000385071 0)
(0.194388 0.000668143 0)
(0.191924 0.00171488 0)
(0.187401 0.00272311 0)
(0.180952 0.00367679 0)
(0.172701 0.00449125 0)
(0.162826 0.00528018 0)
(0.151502 0.00589306 0)
(0.13894 0.00649185 0)
(0.125331 0.00700334 0)
(0.110872 0.00730403 0)
(0.0957638 0.00762396 0)
(0.0801795 0.007862 0)
(0.0642862 0.0079009 0)
(0.0482361 0.00798447 0)
(0.0321547 0.00788711 0)
(0.0159972 0.00784283 0)
(0.000291905 0.00774108 0)
(-0.0148827 0.00748984 0)
(-0.0298141 0.0072956 0)
(-0.0442509 0.00705638 0)
(-0.0581083 0.0067012 0)
(-0.0713226 0.00639297 0)
(-0.0838302 0.00599029 0)
(-0.0955847 0.0056289 0)
(-0.106541 0.00524051 0)
(-0.116657 0.0047926 0)
(-0.125915 0.00437261 0)
(-0.135293 0.00393458 0)
(-0.119197 -0.00437914 0)
(-0.113304 -0.00498679 0)
(-0.105695 -0.00558921 0)
(-0.0971884 -0.00620718 0)
(-0.087755 -0.00689192 0)
(-0.077365 -0.00753757 0)
(-0.066007 -0.00826265 0)
(-0.053665 -0.00891206 0)
(-0.0403494 -0.00954052 0)
(-0.0260744 -0.0102747 0)
(-0.0108252 -0.0108553 0)
(0.0052152 -0.0113218 0)
(0.0219777 -0.0119551 0)
(0.0394731 -0.0123028 0)
(0.0575086 -0.0127654 0)
(0.0759306 -0.0128837 0)
(0.0945395 -0.0128459 0)
(0.113129 -0.0129109 0)
(0.131466 -0.0125593 0)
(0.14929 -0.0120226 0)
(0.166345 -0.0115299 0)
(0.182351 -0.0106447 0)
(0.197042 -0.00959107 0)
(0.210171 -0.00849693 0)
(0.221477 -0.0071351 0)
(0.23077 -0.00569558 0)
(0.237847 -0.00409526 0)
(0.24259 -0.00242189 0)
(0.244891 -0.000710369 0)
(0.244697 0.0010042 0)
(0.241964 0.00277156 0)
(0.236766 0.0044208 0)
(0.229225 0.00605211 0)
(0.219443 0.00744798 0)
(0.207636 0.00882505 0)
(0.193987 0.0101037 0)
(0.17872 0.0109829 0)
(0.16213 0.0118816 0)
(0.144457 0.0126278 0)
(0.125959 0.0129404 0)
(0.106911 0.0133008 0)
(0.0875674 0.0132728 0)
(0.0681471 0.0133003 0)
(0.0488485 0.0131753 0)
(0.0298847 0.0127465 0)
(0.0116105 0.0123427 0)
(-0.00562292 0.0119509 0)
(-0.022075 0.0113122 0)
(-0.0379007 0.0107254 0)
(-0.0528381 0.0100862 0)
(-0.0668169 0.00937266 0)
(-0.0798234 0.00869966 0)
(-0.0918408 0.00798764 0)
(-0.102883 0.00731819 0)
(-0.112956 0.00664969 0)
(-0.122078 0.00598379 0)
(-0.13029 0.00535697 0)
(-0.137602 0.00473317 0)
(-0.144041 0.00413115 0)
(-0.149641 0.00354565 0)
(-0.154433 0.00298521 0)
(-0.158453 0.00245436 0)
(-0.161685 0.00191959 0)
(-0.164129 0.00136829 0)
(-0.165846 0.000896401 0)
(-0.166793 0.00038869 0)
(-0.16697 -0.000176229 0)
(-0.166387 -0.000657692 0)
(-0.165031 -0.00124945 0)
(-0.162912 -0.00176098 0)
(-0.160023 -0.00228181 0)
(-0.156321 -0.00290282 0)
(-0.151787 -0.00345547 0)
(-0.146522 -0.00401852 0)
(-0.140324 -0.00463819 0)