/*--------------------------------*- C++ -*----------------------------------*\
| =========                 |                                                 |
| \\      /  F ield         | OpenFOAM: The Open Source CFD Toolbox           |
|  \\    /   O peration     | Version:  3.0.1                                 |
|   \\  /    A nd           | Web:      www.OpenFOAM.org                      |
|    \\/     M anipulation  |                                                 |
\*---------------------------------------------------------------------------*/
FoamFile
{
    version     2.0;
    format      ascii;
    class       volVectorField;
    location    "89.6";
    object      U;
}
// * * * * * * * * * * * * * * * * * * * * * * * * * * * * * * * * * * * * * //

dimensions      [0 1 -1 0 0 0 0];

internalField   nonuniform List<vector> 
21420
(
(0.0669968 0.000271285 0)
(0.064742 0.000208312 0)
(0.0629525 0.000146257 0)
(0.0617807 8.58782e-05 0)
(0.0612026 2.79573e-05 0)
(0.0611938 -2.68936e-05 0)
(0.0617208 -7.85318e-05 0)
(0.0627533 -0.000126563 0)
(0.0642524 -0.000170932 0)
(0.066188 -0.000213022 0)
(0.0685312 -0.000252412 0)
(0.0712695 -0.000290688 0)
(0.0744007 -0.000330554 0)
(0.0779329 -0.00037071 0)
(0.0818899 -0.000415613 0)
(0.0863048 -0.000463027 0)
(0.0912286 -0.000515135 0)
(0.0967192 -0.000575807 0)
(0.102833 -0.000640363 0)
(0.109639 -0.000710726 0)
(0.117206 -0.000791629 0)
(0.125587 -0.000874134 0)
(0.134839 -0.000960029 0)
(0.145009 -0.00105697 0)
(0.156124 -0.00114821 0)
(0.168198 -0.00125009 0)
(0.181226 -0.00134077 0)
(0.195181 -0.00142372 0)
(0.210018 -0.00151894 0)
(0.225678 -0.00159082 0)
(0.242062 -0.00164673 0)
(0.259059 -0.00171736 0)
(0.276553 -0.00175001 0)
(0.294402 -0.00179426 0)
(0.312471 -0.00180019 0)
(0.330573 -0.00178131 0)
(0.348506 -0.00177145 0)
(0.366104 -0.00172174 0)
(0.383153 -0.00164648 0)
(0.399421 -0.00156946 0)
(0.414696 -0.00145571 0)
(0.428765 -0.00132908 0)
(0.441401 -0.00117388 0)
(0.452396 -0.000998231 0)
(0.461564 -0.00080753 0)
(0.468717 -0.00060265 0)
(0.473712 -0.000376681 0)
(0.476454 -0.000146119 0)
(0.476928 6.81371e-05 0)
(0.475217 0.000313874 0)
(0.470872 0.000538553 0)
(0.464379 0.000755365 0)
(0.455739 0.000947604 0)
(0.44516 0.00112997 0)
(0.432839 0.00130793 0)
(0.418902 0.0014441 0)
(0.40361 0.00156597 0)
(0.387214 0.00167344 0)
(0.369922 0.00173803 0)
(0.352014 0.0017898 0)
(0.333774 0.00180416 0)
(0.315499 0.00179947 0)
(0.297456 0.00177107 0)
(0.279893 0.00171532 0)
(0.263111 0.00163928 0)
(0.247331 0.00154696 0)
(0.232526 0.00144783 0)
(0.218508 0.00136893 0)
(0.204973 0.0013191 0)
(0.191572 0.00130935 0)
(0.178047 0.00133058 0)
(0.164168 0.00136648 0)
(0.149308 0.00139403 0)
(0.132565 0.00153962 0)
(0.115536 0.00164168 0)
(0.0995967 0.0016202 0)
(0.0845091 0.00158022 0)
(0.0702991 0.00145906 0)
(0.0581211 0.00127084 0)
(0.0478868 0.0010843 0)
(0.0394945 0.000892356 0)
(0.0327939 0.000726346 0)
(0.0275994 0.000548282 0)
(0.0238865 0.000414068 0)
(0.0211113 0.000294646 0)
(0.0193186 0.000193796 0)
(0.0182603 0.000106471 0)
(0.0179291 3.331e-05 0)
(0.0182107 -3.36372e-05 0)
(0.0190998 -9.57065e-05 0)
(0.0205034 -0.000160243 0)
(0.0225652 -0.000225377 0)
(0.0252409 -0.000280746 0)
(0.0284936 -0.000341724 0)
(0.0323678 -0.000393052 0)
(0.0368377 -0.000431189 0)
(0.0418133 -0.000472621 0)
(0.0471407 -0.000531843 0)
(0.0528078 -0.000576327 0)
(0.058874 -0.00062178 0)
(0.065383 -0.000671559 0)
(0.0724311 -0.000727788 0)
(0.0800368 -0.000788058 0)
(0.0882536 -0.000842227 0)
(0.0970462 -0.000903488 0)
(0.106418 -0.000959418 0)
(0.116345 -0.00101041 0)
(0.126818 -0.00106151 0)
(0.137811 -0.00111968 0)
(0.149319 -0.00116385 0)
(0.161307 -0.00121044 0)
(0.173748 -0.00125649 0)
(0.186643 -0.00130123 0)
(0.199967 -0.0013411 0)
(0.213699 -0.00137745 0)
(0.227769 -0.00141084 0)
(0.242134 -0.00143774 0)
(0.25676 -0.00145912 0)
(0.271532 -0.00146116 0)
(0.286324 -0.00147117 0)
(0.301094 -0.00145462 0)
(0.315646 -0.00142189 0)
(0.329764 -0.00137598 0)
(0.343329 -0.00130009 0)
(0.356094 -0.00121808 0)
(0.367866 -0.00111055 0)
(0.378417 -0.000980465 0)
(0.387571 -0.000834683 0)
(0.395141 -0.00065946 0)
(0.400921 -0.000486843 0)
(0.404878 -0.00029164 0)
(0.406799 -9.71346e-05 0)
(0.406799 9.75972e-05 0)
(0.404759 0.000308457 0)
(0.400593 0.000506541 0)
(0.394548 0.000685088 0)
(0.386713 0.000871056 0)
(0.377076 0.00102629 0)
(0.365951 0.00118002 0)
(0.353414 0.00130598 0)
(0.339557 0.0014296 0)
(0.324644 0.00152108 0)
(0.308929 0.00159827 0)
(0.292542 0.00164656 0)
(0.275752 0.00168064 0)
(0.258722 0.00169604 0)
(0.241656 0.00168393 0)
(0.224848 0.00164856 0)
(0.208476 0.00160491 0)
(0.192625 0.00153981 0)
(0.177453 0.00146662 0)
(0.163109 0.00137941 0)
(0.149695 0.00128367 0)
(0.137286 0.00117829 0)
(0.125955 0.00107241 0)
(0.115692 0.000962736 0)
(0.106559 0.000857857 0)
(0.0985026 0.000747565 0)
(0.0914813 0.000647815 0)
(0.0854568 0.000549207 0)
(0.0803715 0.000461573 0)
(0.0761484 0.000378479 0)
(0.0726713 0.000310767 0)
(0.0698631 0.000248955 0)
(0.0676559 0.000194734 0)
(0.0659544 0.00015264 0)
(0.0646568 0.000104985 0)
(0.0637756 8.05918e-05 0)
(0.0631815 4.10288e-05 0)
(0.0629119 1.42467e-05 0)
(0.0628751 -7.08024e-06 0)
(0.0630741 -2.67157e-05 0)
(0.0634706 -5.43097e-05 0)
(0.0640948 -7.54599e-05 0)
(0.064957 -8.54562e-05 0)
(0.0659462 -0.000112901 0)
(0.0671453 -0.000126468 0)
(0.0684901 -0.000151925 0)
(0.0701023 -0.000172642 0)
(0.0719518 -0.000184357 0)
(0.0739869 -0.000215399 0)
(0.0762998 -0.000240699 0)
(0.0788142 -0.000260947 0)
(0.0815683 -0.000286282 0)
(0.0846322 -0.000309996 0)
(0.0879206 -0.000337312 0)
(0.0914388 -0.000363656 0)
(0.0952413 -0.000395163 0)
(0.0993956 -0.000424275 0)
(0.10391 -0.000462595 0)
(0.108827 -0.000511918 0)
(0.114256 -0.00056754 0)
(0.120269 -0.00062418 0)
(0.126973 -0.000697349 0)
(0.134416 -0.000773432 0)
(0.142623 -0.000856063 0)
(0.151663 -0.000937581 0)
(0.16155 -0.00101825 0)
(0.17226 -0.00110213 0)
(0.183804 -0.00118205 0)
(0.196132 -0.00127215 0)
(0.2093 -0.0013394 0)
(0.223246 -0.0014186 0)
(0.237909 -0.00149443 0)
(0.253267 -0.00155878 0)
(0.269249 -0.00161177 0)
(0.285685 -0.00165305 0)
(0.30245 -0.0016747 0)
(0.319304 -0.00166769 0)
(0.336054 -0.00165948 0)
(0.352535 -0.00160696 0)
(0.368389 -0.00153441 0)
(0.383278 -0.00143439 0)
(0.397075 -0.00128427 0)
(0.409308 -0.00112813 0)
(0.419701 -0.000935161 0)
(0.428077 -0.000714534 0)
(0.43414 -0.00048046 0)
(0.437701 -0.000222676 0)
(0.43866 1.99331e-05 0)
(0.437139 0.000283721 0)
(0.432748 0.000557545 0)
(0.426041 0.000788147 0)
(0.417037 0.000999788 0)
(0.405929 0.00120058 0)
(0.392997 0.00136216 0)
(0.378558 0.00150545 0)
(0.362849 0.00161631 0)
(0.346107 0.0016954 0)
(0.328694 0.00174474 0)
(0.310953 0.00177747 0)
(0.29304 0.00177534 0)
(0.275231 0.00175994 0)
(0.257662 0.0017222 0)
(0.240546 0.00166199 0)
(0.224108 0.00159555 0)
(0.208463 0.00151 0)
(0.193748 0.00142343 0)
(0.179936 0.00131057 0)
(0.167232 0.00120887 0)
(0.155549 0.00110693 0)
(0.144828 0.00100852 0)
(0.135092 0.000928545 0)
(0.126156 0.000840298 0)
(0.118002 0.000768192 0)
(0.110596 0.000710375 0)
(0.103749 0.000636185 0)
(0.0975656 0.000586637 0)
(0.0919657 0.000526971 0)
(0.0869356 0.000462836 0)
(0.0825223 0.000415807 0)
(0.0787087 0.000340246 0)
(0.075572 0.000285586 0)
(0.0730458 0.00021786 0)
(0.0711474 0.000155499 0)
(0.0698506 0.000107696 0)
(0.0690289 5.13663e-05 0)
(0.0687729 1.03114e-06 0)
(0.0689998 -4.1715e-05 0)
(0.0696673 -9.78235e-05 0)
(0.0707821 -0.000143257 0)
(0.0723038 -0.000192613 0)
(0.0740239 -0.000228913 0)
(0.0761027 -0.000253673 0)
(0.0785002 -0.000280699 0)
(0.0811626 -0.000303773 0)
(0.0842091 -0.000341221 0)
(0.0877954 -0.000372443 0)
(0.0922021 -0.000410114 0)
(0.0973176 -0.000445285 0)
(0.102678 -0.000477573 0)
(0.108203 -0.000517821 0)
(0.113997 -0.000555372 0)
(0.120295 -0.000612151 0)
(0.127306 -0.000685973 0)
(0.13506 -0.000748834 0)
(0.14347 -0.000822833 0)
(0.152752 -0.000906646 0)
(0.162971 -0.0009864 0)
(0.174047 -0.00108593 0)
(0.186483 -0.00119711 0)
(0.200541 -0.00130296 0)
(0.21598 -0.0014151 0)
(0.232892 -0.00153055 0)
(0.250972 -0.00162272 0)
(0.2701 -0.00171776 0)
(0.290241 -0.00178708 0)
(0.310905 -0.00183802 0)
(0.331973 -0.0018595 0)
(0.352953 -0.00184171 0)
(0.373368 -0.00179652 0)
(0.393059 -0.00172817 0)
(0.411472 -0.00161682 0)
(0.428246 -0.00148243 0)
(0.443177 -0.00133301 0)
(0.45585 -0.00111534 0)
(0.466106 -0.000929546 0)
(0.473765 -0.000702722 0)
(0.47858 -0.000441676 0)
(0.480632 -0.000106252 0)
(0.480589 0.000215027 0)
(0.478401 0.000429857 0)
(0.473587 0.000617564 0)
(0.46639 0.00080596 0)
(0.457211 0.00100312 0)
(0.446105 0.00120264 0)
(0.43326 0.00135039 0)
(0.418966 0.00149508 0)
(0.403453 0.00158923 0)
(0.387045 0.00167322 0)
(0.36991 0.00174222 0)
(0.352309 0.00176059 0)
(0.33454 0.00177414 0)
(0.316744 0.0017742 0)
(0.29913 0.00173386 0)
(0.281884 0.00169733 0)
(0.26514 0.00163021 0)
(0.249031 0.00156757 0)
(0.233625 0.00149752 0)
(0.219016 0.00140643 0)
(0.205279 0.00132145 0)
(0.192437 0.00123339 0)
(0.18052 0.00113559 0)
(0.169537 0.00104587 0)
(0.159466 0.000952928 0)
(0.150277 0.000869249 0)
(0.141915 0.000790672 0)
(0.134324 0.000715101 0)
(0.127438 0.000649262 0)
(0.121185 0.000590357 0)
(0.115495 0.000536298 0)
(0.110305 0.000490335 0)
(0.105553 0.000449978 0)
(0.101189 0.000412756 0)
(0.0971739 0.00038028 0)
(0.09348 0.00034891 0)
(0.0900924 0.000319724 0)
(0.0870088 0.000290066 0)
(0.0842387 0.000258045 0)
(0.0818007 0.000224219 0)
(0.0797224 0.000187082 0)
(0.0780386 0.000145936 0)
(0.076788 0.000101116 0)
(0.0760074 5.19307e-05 0)
(0.075733 -1.05438e-06 0)
(0.076003 -5.83171e-05 0)
(0.076878 -0.000118978 0)
(0.0783813 -0.00018214 0)
(0.0805398 -0.000247593 0)
(0.0833727 -0.00031557 0)
(0.0868966 -0.000384256 0)
(0.0911245 -0.000455472 0)
(0.0960665 -0.00052618 0)
(0.101733 -0.000597229 0)
(0.108136 -0.000672599 0)
(0.115276 -0.000745375 0)
(0.124359 -0.000817922 0)
(0.0669719 0.000813854 0)
(0.0647171 0.000624914 0)
(0.0629282 0.00043871 0)
(0.0617573 0.000257545 0)
(0.0611801 8.37148e-05 0)
(0.0611724 -8.06285e-05 0)
(0.0617012 -0.000235779 0)
(0.0627348 -0.000379837 0)
(0.0642352 -0.000512917 0)
(0.0661718 -0.000639139 0)
(0.0685155 -0.000757291 0)
(0.071254 -0.000872003 0)
(0.0743846 -0.000991589 0)
(0.0779159 -0.00111208 0)
(0.0818713 -0.00124666 0)
(0.0862843 -0.00138879 0)
(0.091206 -0.00154512 0)
(0.0966939 -0.00172715 0)
(0.102805 -0.00192085 0)
(0.109608 -0.00213194 0)
(0.117172 -0.00237465 0)
(0.125551 -0.00262216 0)
(0.134802 -0.0028799 0)
(0.144971 -0.0031708 0)
(0.156085 -0.0034446 0)
(0.168158 -0.00375031 0)
(0.181187 -0.00402237 0)
(0.195145 -0.00427132 0)
(0.209983 -0.0045571 0)
(0.225646 -0.00477279 0)
(0.242035 -0.00494059 0)
(0.259037 -0.00515269 0)
(0.276536 -0.00525055 0)
(0.294391 -0.00538353 0)
(0.312466 -0.00540123 0)
(0.330575 -0.00534472 0)
(0.348516 -0.00531546 0)
(0.366122 -0.00516613 0)
(0.383179 -0.00494033 0)
(0.399456 -0.00470975 0)
(0.414742 -0.00436652 0)
(0.428818 -0.00399039 0)
(0.441464 -0.00352216 0)
(0.452468 -0.00299379 0)
(0.461642 -0.00242489 0)
(0.468806 -0.00180169 0)
(0.473796 -0.00114232 0)
(0.476551 -0.000448076 0)
(0.477053 0.000215644 0)
(0.475296 0.000943106 0)
(0.470962 0.00161444 0)
(0.464472 0.00226592 0)
(0.455828 0.00284312 0)
(0.445245 0.0033904 0)
(0.432918 0.00392448 0)
(0.418973 0.0043331 0)
(0.403673 0.00469872 0)
(0.387269 0.00502125 0)
(0.369967 0.00521532 0)
(0.352049 0.00537071 0)
(0.333799 0.00541376 0)
(0.315514 0.00540009 0)
(0.29746 0.00531421 0)
(0.279888 0.00514748 0)
(0.263094 0.00491965 0)
(0.247306 0.00464345 0)
(0.2325 0.00434554 0)
(0.218485 0.00410608 0)
(0.204961 0.0039582 0)
(0.191568 0.00392749 0)
(0.178056 0.00399171 0)
(0.164178 0.00409973 0)
(0.149356 0.00418005 0)
(0.132645 0.00461009 0)
(0.115608 0.00492668 0)
(0.0996878 0.00485997 0)
(0.0846039 0.00473726 0)
(0.0704097 0.00437044 0)
(0.0582411 0.00380756 0)
(0.0480245 0.00325381 0)
(0.0396526 0.0026781 0)
(0.0329697 0.00217354 0)
(0.0277933 0.00164057 0)
(0.0241037 0.00123414 0)
(0.0213534 0.000880467 0)
(0.0195807 0.000584364 0)
(0.0185247 0.000314151 0)
(0.0181895 9.12098e-05 0)
(0.0184753 -0.000104204 0)
(0.0193677 -0.000284946 0)
(0.0207609 -0.000483276 0)
(0.022826 -0.000678668 0)
(0.025491 -0.000857054 0)
(0.0287669 -0.00102195 0)
(0.032642 -0.00117052 0)
(0.0370945 -0.00130179 0)
(0.0420619 -0.00142932 0)
(0.0474042 -0.00157615 0)
(0.0530698 -0.00172404 0)
(0.0591224 -0.00186999 0)
(0.0656412 -0.00202685 0)
(0.0726803 -0.00219063 0)
(0.0802994 -0.00236046 0)
(0.0884984 -0.00253861 0)
(0.0973046 -0.00269847 0)
(0.106662 -0.00287245 0)
(0.116582 -0.00304205 0)
(0.127064 -0.00319078 0)
(0.138059 -0.00335272 0)
(0.149569 -0.00349632 0)
(0.161551 -0.0036294 0)
(0.173984 -0.00377915 0)
(0.186886 -0.00390126 0)
(0.200214 -0.00402147 0)
(0.213943 -0.00413695 0)
(0.228015 -0.00423425 0)
(0.242377 -0.00431385 0)
(0.257013 -0.00436638 0)
(0.271778 -0.00440706 0)
(0.286584 -0.00440223 0)
(0.301355 -0.00436062 0)
(0.31591 -0.00426605 0)
(0.330042 -0.00413009 0)
(0.343601 -0.00393078 0)
(0.356394 -0.00365932 0)
(0.36818 -0.003322 0)
(0.378726 -0.00294531 0)
(0.3879 -0.00248627 0)
(0.395447 -0.00199469 0)
(0.401265 -0.00145042 0)
(0.405217 -0.000876863 0)
(0.407144 -0.000291336 0)
(0.407137 0.000290905 0)
(0.405087 0.000916745 0)
(0.400925 0.00151403 0)
(0.394881 0.00206969 0)
(0.387039 0.00260231 0)
(0.377412 0.00309102 0)
(0.366255 0.00352237 0)
(0.353738 0.00394433 0)
(0.339849 0.00427743 0)
(0.324936 0.00456279 0)
(0.309205 0.00478514 0)
(0.292815 0.00494965 0)
(0.276012 0.00504925 0)
(0.258961 0.00508402 0)
(0.241882 0.00504196 0)
(0.225072 0.004948 0)
(0.208689 0.00480985 0)
(0.19284 0.00462888 0)
(0.177655 0.00440052 0)
(0.163305 0.00413441 0)
(0.149889 0.00385236 0)
(0.137481 0.00353787 0)
(0.126146 0.00321947 0)
(0.115885 0.00288293 0)
(0.106752 0.00255358 0)
(0.0987106 0.0022452 0)
(0.0916888 0.00193686 0)
(0.0856786 0.00165365 0)
(0.0805948 0.00138473 0)
(0.0763665 0.0011448 0)
(0.072895 0.000930463 0)
(0.0700965 0.000748572 0)
(0.0678888 0.000572349 0)
(0.0661867 0.000448043 0)
(0.0649149 0.000318257 0)
(0.06401 0.000215627 0)
(0.0634412 0.000128706 0)
(0.0631628 4.91132e-05 0)
(0.0631177 -2.41981e-05 0)
(0.0633132 -9.51272e-05 0)
(0.0637189 -0.000156762 0)
(0.0643445 -0.000230945 0)
(0.0651908 -0.000270851 0)
(0.066193 -0.000332187 0)
(0.0673717 -0.000379511 0)
(0.0687204 -0.000451328 0)
(0.0703283 -0.000504687 0)
(0.0721498 -0.000575105 0)
(0.0741762 -0.000647287 0)
(0.0764732 -0.00071748 0)
(0.0789705 -0.000786573 0)
(0.0817076 -0.000868192 0)
(0.0847665 -0.00092146 0)
(0.0880269 -0.00100546 0)
(0.0915344 -0.00108672 0)
(0.0953176 -0.00118195 0)
(0.0994448 -0.0012767 0)
(0.103944 -0.00138434 0)
(0.108843 -0.00152676 0)
(0.114246 -0.00169171 0)
(0.120242 -0.00187761 0)
(0.12692 -0.00209322 0)
(0.134345 -0.00231099 0)
(0.142536 -0.00256154 0)
(0.151565 -0.00280884 0)
(0.161435 -0.00305899 0)
(0.172136 -0.00330565 0)
(0.183655 -0.00354804 0)
(0.195987 -0.00379121 0)
(0.209125 -0.00403632 0)
(0.22305 -0.00426299 0)
(0.23771 -0.00447824 0)
(0.253073 -0.00467082 0)
(0.26904 -0.00483886 0)
(0.285489 -0.00495156 0)
(0.302234 -0.00501943 0)
(0.319096 -0.00503624 0)
(0.335873 -0.00496808 0)
(0.352358 -0.00482213 0)
(0.368232 -0.0045928 0)
(0.383119 -0.00430965 0)
(0.396926 -0.00387218 0)
(0.409181 -0.00338338 0)
(0.419599 -0.00280861 0)
(0.427982 -0.00214521 0)
(0.434052 -0.00142897 0)
(0.437623 -0.00066823 0)
(0.438609 7.96944e-05 0)
(0.437073 0.000857151 0)
(0.432672 0.00164339 0)
(0.425978 0.00236273 0)
(0.416974 0.00300783 0)
(0.405857 0.00358078 0)
(0.392932 0.00410037 0)
(0.378475 0.00451431 0)
(0.362766 0.0048593 0)
(0.346013 0.00509161 0)
(0.328602 0.00524716 0)
(0.310846 0.00533101 0)
(0.292928 0.00533233 0)
(0.275104 0.00528779 0)
(0.257521 0.00517064 0)
(0.240403 0.00500324 0)
(0.223956 0.00479328 0)
(0.208296 0.00452365 0)
(0.19356 0.00425044 0)
(0.179773 0.0039427 0)
(0.167048 0.00362386 0)
(0.155371 0.00333936 0)
(0.144669 0.00303841 0)
(0.134925 0.00277919 0)
(0.125973 0.00251905 0)
(0.117822 0.00230865 0)
(0.110413 0.00211765 0)
(0.103579 0.00191732 0)
(0.0973841 0.00175273 0)
(0.091793 0.00159493 0)
(0.0867433 0.00139542 0)
(0.0823178 0.00123112 0)
(0.0785259 0.00104385 0)
(0.0753699 0.000844412 0)
(0.0728391 0.000658455 0)
(0.0709479 0.000474815 0)
(0.0696537 0.000320515 0)
(0.068824 0.000148049 0)
(0.0685656 2.95511e-06 0)
(0.0687985 -0.000121348 0)
(0.0694791 -0.0002898 0)
(0.0705843 -0.000437036 0)
(0.0721298 -0.000547909 0)
(0.0738504 -0.000670926 0)
(0.0759073 -0.000777958 0)
(0.0783108 -0.000842973 0)
(0.0809834 -0.000919204 0)
(0.0840348 -0.00103544 0)
(0.0876199 -0.00111644 0)
(0.092056 -0.00121259 0)
(0.09716 -0.00133971 0)
(0.102537 -0.00142367 0)
(0.108061 -0.00155396 0)
(0.113866 -0.00167951 0)
(0.120184 -0.00184413 0)
(0.12721 -0.0020426 0)
(0.134956 -0.00224754 0)
(0.143382 -0.00245917 0)
(0.15266 -0.00272279 0)
(0.162882 -0.00296242 0)
(0.173965 -0.00325992 0)
(0.186404 -0.00359048 0)
(0.200462 -0.0039075 0)
(0.215894 -0.00424525 0)
(0.232804 -0.00458867 0)
(0.250883 -0.00486522 0)
(0.270008 -0.00515651 0)
(0.29015 -0.00536111 0)
(0.310828 -0.00550379 0)
(0.331895 -0.00558422 0)
(0.352897 -0.00551905 0)
(0.373322 -0.00539788 0)
(0.393035 -0.00518556 0)
(0.411464 -0.00483854 0)
(0.428251 -0.00445703 0)
(0.443204 -0.00395619 0)
(0.455882 -0.00339194 0)
(0.466163 -0.00275506 0)
(0.473832 -0.00207293 0)
(0.478672 -0.00134216 0)
(0.480762 -0.000350034 0)
(0.48068 0.00059528 0)
(0.478443 0.001266 0)
(0.473657 0.00184004 0)
(0.466471 0.00241569 0)
(0.457293 0.0030092 0)
(0.446181 0.00360841 0)
(0.433327 0.00405192 0)
(0.419022 0.00448615 0)
(0.403498 0.00476867 0)
(0.387081 0.00502065 0)
(0.369935 0.00522764 0)
(0.352325 0.0052827 0)
(0.334547 0.00532327 0)
(0.316743 0.00532338 0)
(0.299122 0.00520227 0)
(0.281869 0.00509261 0)
(0.26512 0.00489115 0)
(0.249007 0.00470317 0)
(0.233597 0.00449295 0)
(0.218985 0.00421958 0)
(0.205246 0.00396456 0)
(0.192402 0.00370029 0)
(0.180486 0.00340682 0)
(0.169503 0.0031376 0)
(0.159434 0.00285872 0)
(0.150246 0.00260764 0)
(0.141886 0.00237186 0)
(0.134297 0.00214513 0)
(0.127414 0.00194764 0)
(0.121163 0.00177088 0)
(0.115477 0.00160876 0)
(0.110288 0.00147093 0)
(0.105538 0.00134981 0)
(0.101176 0.00123823 0)
(0.0971617 0.00114087 0)
(0.0934685 0.00104678 0)
(0.0900809 0.000959142 0)
(0.0869969 0.000870207 0)
(0.0842259 0.000774186 0)
(0.0817868 0.000672741 0)
(0.0797071 0.000561376 0)
(0.0780217 0.000437951 0)
(0.0767694 0.000303409 0)
(0.0759874 0.000156066 0)
(0.0757105 -3.20245e-06 0)
(0.0759795 -0.000174647 0)
(0.0768535 -0.00035676 0)
(0.0783556 -0.000546368 0)
(0.0805132 -0.000742744 0)
(0.0833454 -0.000946666 0)
(0.0868687 -0.00115272 0)
(0.0910961 -0.00136637 0)
(0.0960378 -0.0015785 0)
(0.101704 -0.00179164 0)
(0.108107 -0.00201775 0)
(0.115246 -0.00223608 0)
(0.124329 -0.00245372 0)
(0.0669219 0.00135638 0)
(0.0646674 0.00104141 0)
(0.0628795 0.000730953 0)
(0.0617104 0.000428914 0)
(0.0611353 0.000139373 0)
(0.0611296 -0.000135049 0)
(0.061662 -0.000393601 0)
(0.0626982 -0.000633601 0)
(0.0642012 -0.000855274 0)
(0.0661396 -0.00106551 0)
(0.0684846 -0.00126232 0)
(0.0712234 -0.00145329 0)
(0.0743531 -0.00165243 0)
(0.0778826 -0.00185314 0)
(0.0818349 -0.00207721 0)
(0.0862443 -0.00231393 0)
(0.0911617 -0.00257435 0)
(0.0966443 -0.00287771 0)
(0.10275 -0.00320054 0)
(0.109549 -0.00355242 0)
(0.117108 -0.00395698 0)
(0.125483 -0.00436964 0)
(0.13473 -0.0047993 0)
(0.144896 -0.00528435 0)
(0.15601 -0.00574092 0)
(0.168082 -0.00625069 0)
(0.181114 -0.00670435 0)
(0.195076 -0.00711958 0)
(0.209919 -0.00759618 0)
(0.225589 -0.00795591 0)
(0.241986 -0.00823575 0)
(0.258998 -0.00858966 0)
(0.276508 -0.00875275 0)
(0.294376 -0.00897471 0)
(0.312464 -0.0090044 0)
(0.330587 -0.00891016 0)
(0.348545 -0.00886205 0)
(0.366166 -0.00861293 0)
(0.383239 -0.00823667 0)
(0.399535 -0.00785268 0)
(0.414838 -0.00728061 0)
(0.428934 -0.00665105 0)
(0.441594 -0.00587528 0)
(0.452614 -0.00499448 0)
(0.461806 -0.0040386 0)
(0.468972 -0.00301416 0)
(0.473984 -0.00189468 0)
(0.476751 -0.000748608 0)
(0.47725 0.000350454 0)
(0.475437 0.00157336 0)
(0.471128 0.0026871 0)
(0.464635 0.00377718 0)
(0.45598 0.00474041 0)
(0.445384 0.005653 0)
(0.433041 0.00654352 0)
(0.419078 0.00722468 0)
(0.403761 0.00783405 0)
(0.387337 0.00837179 0)
(0.370016 0.00869535 0)
(0.352078 0.00895448 0)
(0.333807 0.00902634 0)
(0.315501 0.00900333 0)
(0.297429 0.00885974 0)
(0.279839 0.0085816 0)
(0.263027 0.00820339 0)
(0.247226 0.00774304 0)
(0.232421 0.00724441 0)
(0.218419 0.00684325 0)
(0.204918 0.00659334 0)
(0.19155 0.00654133 0)
(0.178069 0.00664871 0)
(0.16421 0.00683157 0)
(0.149459 0.00697265 0)
(0.132814 0.0076525 0)
(0.115781 0.00819894 0)
(0.0998743 0.00809217 0)
(0.0848237 0.00789195 0)
(0.0706627 0.00728172 0)
(0.0585088 0.00634278 0)
(0.0483085 0.00541375 0)
(0.0399642 0.00445432 0)
(0.0333125 0.00361826 0)
(0.0281646 0.00272793 0)
(0.0245303 0.00205157 0)
(0.0218259 0.00146019 0)
(0.0200871 0.000967493 0)
(0.0190356 0.000528199 0)
(0.0186948 0.000157877 0)
(0.0189784 -0.00017191 0)
(0.0198675 -0.000478341 0)
(0.0212661 -0.000803852 0)
(0.0233341 -0.00113113 0)
(0.0260048 -0.0014187 0)
(0.0292673 -0.00170411 0)
(0.0331401 -0.00195356 0)
(0.0375935 -0.00216381 0)
(0.042553 -0.00238554 0)
(0.0478819 -0.00263974 0)
(0.0535432 -0.00287505 0)
(0.0596031 -0.0031127 0)
(0.0661164 -0.00337337 0)
(0.0731556 -0.00364998 0)
(0.080761 -0.00393991 0)
(0.088959 -0.0042275 0)
(0.0977544 -0.0045047 0)
(0.107104 -0.00479388 0)
(0.117032 -0.00505968 0)
(0.127507 -0.00532292 0)
(0.138494 -0.00559316 0)
(0.150008 -0.00582267 0)
(0.161986 -0.00605454 0)
(0.174415 -0.00629286 0)
(0.187313 -0.00650589 0)
(0.200638 -0.00670349 0)
(0.214365 -0.00689125 0)
(0.228434 -0.00705775 0)
(0.242799 -0.00719262 0)
(0.257433 -0.0072834 0)
(0.272206 -0.00733435 0)
(0.28701 -0.0073509 0)
(0.301791 -0.00727366 0)
(0.316356 -0.00711743 0)
(0.330507 -0.00688048 0)
(0.344085 -0.00654113 0)
(0.35689 -0.00609137 0)
(0.368673 -0.00555439 0)
(0.379241 -0.00490265 0)
(0.388418 -0.00415734 0)
(0.395985 -0.00332004 0)
(0.401802 -0.00243364 0)
(0.405759 -0.00146135 0)
(0.407702 -0.000476805 0)
(0.407676 0.00048034 0)
(0.405613 0.00153365 0)
(0.401452 0.00251896 0)
(0.395409 0.0034508 0)
(0.38757 0.00433951 0)
(0.377926 0.00514624 0)
(0.366761 0.00588293 0)
(0.354216 0.00656104 0)
(0.340327 0.00713617 0)
(0.325403 0.00760722 0)
(0.309652 0.00798321 0)
(0.293231 0.00824617 0)
(0.276406 0.00841662 0)
(0.259347 0.00847818 0)
(0.242263 0.00841074 0)
(0.225445 0.00824916 0)
(0.209052 0.00801984 0)
(0.193187 0.00771161 0)
(0.17799 0.00733963 0)
(0.163634 0.00689363 0)
(0.150215 0.00642118 0)
(0.137809 0.00589535 0)
(0.126477 0.00536319 0)
(0.116221 0.00481224 0)
(0.107091 0.00426267 0)
(0.099048 0.00373882 0)
(0.0920363 0.00322848 0)
(0.0860327 0.00274931 0)
(0.0809591 0.00230485 0)
(0.0767331 0.00190157 0)
(0.0732842 0.00155941 0)
(0.0704867 0.00123717 0)
(0.0682949 0.000966665 0)
(0.0665914 0.000745422 0)
(0.0653141 0.000526674 0)
(0.0644297 0.000374605 0)
(0.0638464 0.000203061 0)
(0.063575 7.78829e-05 0)
(0.0635431 -3.34802e-05 0)
(0.0637369 -0.000161474 0)
(0.0641407 -0.000266309 0)
(0.0647721 -0.000375836 0)
(0.0656047 -0.00045375 0)
(0.0665877 -0.000555211 0)
(0.0677585 -0.000632179 0)
(0.0690902 -0.000755357 0)
(0.0706761 -0.000850705 0)
(0.0725007 -0.000937174 0)
(0.0745019 -0.00108187 0)
(0.0767771 -0.00118954 0)
(0.0792504 -0.00130474 0)
(0.0819615 -0.00143628 0)
(0.0849881 -0.00154124 0)
(0.0882255 -0.00166752 0)
(0.091696 -0.00180774 0)
(0.095457 -0.00195854 0)
(0.099546 -0.00212554 0)
(0.104008 -0.00230324 0)
(0.10886 -0.00254641 0)
(0.11423 -0.00280675 0)
(0.120189 -0.00312548 0)
(0.126831 -0.00348775 0)
(0.134226 -0.0038453 0)
(0.14238 -0.00426964 0)
(0.15138 -0.00467207 0)
(0.161218 -0.00509176 0)
(0.171879 -0.00550716 0)
(0.183364 -0.00591139 0)
(0.195664 -0.00632019 0)
(0.20878 -0.00671063 0)
(0.22267 -0.00710266 0)
(0.23731 -0.00746417 0)
(0.252658 -0.00779218 0)
(0.268622 -0.00805992 0)
(0.285053 -0.00826495 0)
(0.301798 -0.00837083 0)
(0.318689 -0.00837269 0)
(0.335456 -0.00830361 0)
(0.351973 -0.00802851 0)
(0.367854 -0.00767208 0)
(0.382785 -0.00717795 0)
(0.396624 -0.00644742 0)
(0.408897 -0.00564879 0)
(0.419347 -0.00469179 0)
(0.427765 -0.00357186 0)
(0.433838 -0.0024059 0)
(0.437429 -0.00112151 0)
(0.438435 0.000122272 0)
(0.436856 0.00143377 0)
(0.432492 0.00275883 0)
(0.425799 0.00393699 0)
(0.416784 0.0050104 0)
(0.405668 0.00598246 0)
(0.392723 0.00682469 0)
(0.378258 0.00753118 0)
(0.362538 0.00809389 0)
(0.345771 0.00848562 0)
(0.328339 0.00874062 0)
(0.310566 0.00889037 0)
(0.292634 0.00888679 0)
(0.274789 0.00880954 0)
(0.257193 0.00862238 0)
(0.240059 0.00832825 0)
(0.223602 0.00798911 0)
(0.207942 0.00755355 0)
(0.1932 0.00709423 0)
(0.179396 0.00656377 0)
(0.166675 0.00604285 0)
(0.154997 0.00555126 0)
(0.1443 0.00505405 0)
(0.134576 0.00463605 0)
(0.125625 0.00419966 0)
(0.117476 0.0038459 0)
(0.110077 0.00353522 0)
(0.103231 0.00318553 0)
(0.0970534 0.00292901 0)
(0.0914488 0.00264647 0)
(0.0863916 0.0023287 0)
(0.0819711 0.00206339 0)
(0.0781604 0.00172479 0)
(0.0750113 0.00141979 0)
(0.0724729 0.00109189 0)
(0.0705888 0.000790501 0)
(0.0693046 0.000539537 0)
(0.0684769 0.000254409 0)
(0.0682187 6.70158e-06 0)
(0.0684587 -0.00020428 0)
(0.0691391 -0.000490653 0)
(0.0702467 -0.000735279 0)
(0.0717821 -0.000941502 0)
(0.0735141 -0.00112169 0)
(0.0755753 -0.00128122 0)
(0.0779786 -0.0014037 0)
(0.0806641 -0.00152801 0)
(0.0837197 -0.00171937 0)
(0.0872977 -0.0018668 0)
(0.0917482 -0.00202767 0)
(0.0968853 -0.00222479 0)
(0.102267 -0.00238362 0)
(0.107797 -0.00259163 0)
(0.113625 -0.00279464 0)
(0.119964 -0.00307682 0)
(0.127008 -0.00341774 0)
(0.134782 -0.00374742 0)
(0.143215 -0.00410739 0)
(0.152505 -0.00453613 0)
(0.162741 -0.00493589 0)
(0.173828 -0.00543498 0)
(0.186275 -0.00598178 0)
(0.200339 -0.0065107 0)
(0.215764 -0.00707422 0)
(0.232675 -0.00764916 0)
(0.250758 -0.00810842 0)
(0.269875 -0.00859189 0)
(0.290029 -0.00893978 0)
(0.310714 -0.00917947 0)
(0.3318 -0.00930517 0)
(0.352829 -0.00920601 0)
(0.373268 -0.0089948 0)
(0.39301 -0.00864405 0)
(0.411474 -0.00806242 0)
(0.42828 -0.00739451 0)
(0.443256 -0.00658768 0)
(0.455961 -0.00558215 0)
(0.466259 -0.00460215 0)
(0.473953 -0.00341545 0)
(0.478838 -0.0021762 0)
(0.480976 -0.000625516 0)
(0.480819 0.000932902 0)
(0.478524 0.00204001 0)
(0.47378 0.00304312 0)
(0.466612 0.00402503 0)
(0.457432 0.00501696 0)
(0.446307 0.00601658 0)
(0.433436 0.00675621 0)
(0.419112 0.00748024 0)
(0.403568 0.00795113 0)
(0.387131 0.00837103 0)
(0.369966 0.00871589 0)
(0.352338 0.00880735 0)
(0.334544 0.00887469 0)
(0.316724 0.00887461 0)
(0.299092 0.00867243 0)
(0.281828 0.0084894 0)
(0.26507 0.00815335 0)
(0.248949 0.00783982 0)
(0.233532 0.00748919 0)
(0.218917 0.00703332 0)
(0.205173 0.00660805 0)
(0.192328 0.00616734 0)
(0.180412 0.00567797 0)
(0.16943 0.00522905 0)
(0.159364 0.00476406 0)
(0.15018 0.00434545 0)
(0.141824 0.00395238 0)
(0.134242 0.00357444 0)
(0.127364 0.00324531 0)
(0.121118 0.00295073 0)
(0.115437 0.00268062 0)
(0.110254 0.00245102 0)
(0.105507 0.00224922 0)
(0.101148 0.00206344 0)
(0.0971364 0.00190135 0)
(0.0934446 0.00174472 0)
(0.0900573 0.00159856 0)
(0.0869725 0.0014504 0)
(0.0842 0.00129049 0)
(0.0817585 0.00112155 0)
(0.079676 0.000936053 0)
(0.0779876 0.000730372 0)
(0.0767321 0.000506071 0)
(0.075947 0.000260367 0)
(0.075666 -4.81309e-06 0)
(0.0759328 -0.000290537 0)
(0.0768046 -0.000594143 0)
(0.0783044 -0.000910355 0)
(0.0804603 -0.00123772 0)
(0.0832911 -0.00157761 0)
(0.0868135 -0.00192105 0)
(0.0910397 -0.00227717 0)
(0.0959808 -0.00263071 0)
(0.101647 -0.00298594 0)
(0.108048 -0.00336278 0)
(0.115187 -0.00372666 0)
(0.124269 -0.0040894 0)
(0.0668469 0.00189884 0)
(0.0645929 0.00145769 0)
(0.0628065 0.00102284 0)
(0.06164 0.000599779 0)
(0.0610679 0.000194528 0)
(0.0610658 -0.000190696 0)
(0.0616032 -0.00055241 0)
(0.0626433 -0.000888169 0)
(0.0641502 -0.00119826 0)
(0.0660914 -0.00149231 0)
(0.0684383 -0.00176754 0)
(0.0711776 -0.00203461 0)
(0.0743058 -0.00231296 0)
(0.0778326 -0.00259362 0)
(0.0817803 -0.00290691 0)
(0.0861843 -0.00323799 0)
(0.0910952 -0.00360237 0)
(0.0965699 -0.00402698 0)
(0.102668 -0.00447886 0)
(0.10946 -0.00497162 0)
(0.11701 -0.00553814 0)
(0.125379 -0.00611614 0)
(0.134622 -0.00671795 0)
(0.144784 -0.00739745 0)
(0.155897 -0.00803709 0)
(0.167969 -0.00875133 0)
(0.181004 -0.00938701 0)
(0.194972 -0.0099689 0)
(0.209822 -0.0106367 0)
(0.225504 -0.011141 0)
(0.241914 -0.0115331 0)
(0.258939 -0.0120291 0)
(0.276466 -0.0122577 0)
(0.294353 -0.012569 0)
(0.312461 -0.012611 0)
(0.330605 -0.0124793 0)
(0.348587 -0.0124123 0)
(0.366233 -0.0120641 0)
(0.38333 -0.011537 0)
(0.399655 -0.0109999 0)
(0.414983 -0.0101989 0)
(0.429108 -0.00931801 0)
(0.441792 -0.00823106 0)
(0.452834 -0.00699841 0)
(0.462048 -0.00566277 0)
(0.469232 -0.00422152 0)
(0.474265 -0.00266509 0)
(0.477047 -0.00106746 0)
(0.477523 0.000514217 0)
(0.475661 0.00220746 0)
(0.47138 0.00375586 0)
(0.46488 0.00528995 0)
(0.456208 0.0066407 0)
(0.445591 0.00791927 0)
(0.433226 0.00916674 0)
(0.419235 0.0101207 0)
(0.403891 0.010974 0)
(0.387438 0.011727 0)
(0.370088 0.01218 0)
(0.35212 0.012543 0)
(0.333818 0.0126438 0)
(0.315481 0.0126115 0)
(0.297382 0.0124087 0)
(0.279766 0.0120192 0)
(0.262927 0.0114915 0)
(0.247105 0.0108474 0)
(0.232302 0.0101452 0)
(0.218318 0.00957767 0)
(0.204854 0.00922508 0)
(0.191524 0.00914799 0)
(0.178087 0.00929854 0)
(0.164255 0.00955913 0)
(0.149613 0.00977084 0)
(0.133066 0.0106503 0)
(0.116053 0.0114629 0)
(0.100153 0.0113145 0)
(0.0851576 0.011031 0)
(0.0710296 0.0101794 0)
(0.0588966 0.00887059 0)
(0.0487209 0.00757192 0)
(0.0404148 0.00622518 0)
(0.0338136 0.00505142 0)
(0.028726 0.00380053 0)
(0.0251746 0.00284905 0)
(0.0225424 0.00202853 0)
(0.0208431 0.00135058 0)
(0.0197895 0.00073752 0)
(0.0194434 0.000220016 0)
(0.0197235 -0.000239183 0)
(0.0206136 -0.000673329 0)
(0.0220227 -0.00112499 0)
(0.0240949 -0.00157927 0)
(0.0267565 -0.00199679 0)
(0.0300183 -0.0023967 0)
(0.0338759 -0.00273541 0)
(0.0383121 -0.00303925 0)
(0.0432785 -0.00334548 0)