/*--------------------------------*- C++ -*----------------------------------*\
| =========                 |                                                 |
| \\      /  F ield         | OpenFOAM: The Open Source CFD Toolbox           |
|  \\    /   O peration     | Version:  3.0.1                                 |
|   \\  /    A nd           | Web:      www.OpenFOAM.org                      |
|    \\/     M anipulation  |                                                 |
\*---------------------------------------------------------------------------*/
FoamFile
{
    version     2.0;
    format      ascii;
    class       volScalarField;
    location    "27";
    object      p_rgh;
}
// * * * * * * * * * * * * * * * * * * * * * * * * * * * * * * * * * * * * * //

dimensions      [1 -1 -2 0 0 0 0];

internalField   nonuniform List<scalar> 
22680
(
471.584
484.027
491.893
495.013
492.932
485.317
472.341
453.766
429.593
400.139
365.287
326.02
282.148
235.098
184.858
132.75
79.7398
25.8516
-28.2813
-82.7923
-137.381
-192.258
-247.332
-302.81
-358.658
-415.04
-471.871
-529.262
-587.013
-645.19
-703.431
-761.768
-819.646
-877.07
-933.334
-987.713
-1040.17
-1089.96
-1136.98
-1180.61
-1221.36
-1259.22
-1291.6
-1319.64
-1343.87
-1364.55
-1381.81
-1396.05
-1407.33
-1416.1
-1422.41
-1426.7
-1429.19
-1430.05
-1429.33
-1427.31
-1423.8
-1419.24
-1413.26
-1406.43
-1398.2
-1388.53
-1376.47
-1362.67
-1346.36
-1328.76
-1308.79
-1288.47
-1267.02
-1246.34
-1225.9
-1204
-1197.22
-1184.04
-1184.55
-1193.77
-1218.98
-1254.89
-1315.63
-1377.52
-1455.43
-1532.72
-1612.98
-1684.81
-1747.61
-1797.98
-1836.61
-1864.36
-1881.48
-1890.2
-1892.48
-1890.44
-1884.67
-1876.62
-1867.16
-1856.8
-1845.85
-1834.47
-1822.69
-1810.45
-1797.41
-1783.5
-1768
-1750.95
-1731.4
-1709.54
-1684.43
-1656.51
-1625.18
-1591.13
-1554.19
-1515.14
-1474.34
-1432.5
-1390.12
-1347.93
-1306.32
-1265.8
-1226.72
-1189.31
-1153.74
-1120.12
-1088.6
-1059.37
-1032.83
-1009.52
-989.854
-973.855
-961.82
-954.105
-951.359
-954.297
-963.351
-978.605
-999.842
-1026.42
-1057.6
-1092.3
-1129.21
-1167.29
-1205.57
-1243.11
-1279.13
-1312.94
-1343.9
-1371.64
-1395.87
-1416.53
-1433.73
-1447.78
-1459.16
-1467.93
-1474.46
-1479.18
-1482.1
-1483.25
-1482.77
-1480.83
-1477.36
-1472.61
-1466.72
-1459.87
-1452.18
-1443.74
-1434.69
-1425.28
-1415.64
-1405.93
-1396.17
-1386.35
-1376.44
-1366.44
-1356.37
-1346.26
-1336.14
-1326.03
-1315.94
-1305.85
-1295.73
-1285.56
-1275.29
-1264.83
-1254.13
-1243.08
-1231.6
-1219.61
-1207.04
-1193.82
-1179.9
-1165.24
-1149.78
-1133.48
-1116.26
-1098.04
-1078.73
-1058.24
-1036.56
-1013.72
-989.83
-965.073
-939.717
-914.125
-888.732
-863.86
-839.594
-815.938
-793.114
-771.83
-752.731
-736.351
-723.719
-715.637
-712.682
-715.246
-723.662
-738.134
-758.578
-783.951
-812.091
-839.72
-864.956
-890.843
-923.322
-964.844
-1003.78
471.775
484.25
492.148
495.296
493.233
485.637
472.668
454.084
429.895
400.417
365.529
326.226
282.31
235.222
184.944
132.804
79.771
25.8678
-28.2726
-82.7847
-137.37
-192.242
-247.308
-302.778
-358.62
-414.998
-471.827
-529.218
-586.972
-645.157
-703.408
-761.759
-819.654
-877.098
-933.383
-987.783
-1040.26
-1090.07
-1137.12
-1180.77
-1221.49
-1259.2
-1291.69
-1319.77
-1344.02
-1364.7
-1381.96
-1396.21
-1407.49
-1416.26
-1422.57
-1426.86
-1429.35
-1430.2
-1429.48
-1427.45
-1423.92
-1419.36
-1413.36
-1406.51
-1398.26
-1388.59
-1376.53
-1362.73
-1346.4
-1328.8
-1308.82
-1288.45
-1267.03
-1246.33
-1225.81
-1203.88
-1196.95
-1183.9
-1184.28
-1193.59
-1218.82
-1254.9
-1315.88
-1378.03
-1456.21
-1533.69
-1614.08
-1685.94
-1748.68
-1798.93
-1837.39
-1864.95
-1881.92
-1890.49
-1892.71
-1890.58
-1884.76
-1876.67
-1867.18
-1856.81
-1845.87
-1834.49
-1822.72
-1810.49
-1797.46
-1783.56
-1768.08
-1751.05
-1731.53
-1709.68
-1684.6
-1656.71
-1625.4
-1591.31
-1554.32
-1515.24
-1474.41
-1432.58
-1390.19
-1347.98
-1306.35
-1265.76
-1226.62
-1189.21
-1153.65
-1120.03
-1088.47
-1059.19
-1032.61
-1009.33
-989.642
-973.635
-961.58
-953.798
-951.002
-953.949
-963.043
-978.329
-999.605
-1026.22
-1057.44
-1092.21
-1129.22
-1167.36
-1205.68
-1243.21
-1279.25
-1313.08
-1344.06
-1371.84
-1396.09
-1416.73
-1433.91
-1447.91
-1459.25
-1468.01
-1474.51
-1479.24
-1482.16
-1483.33
-1482.85
-1480.88
-1477.39
-1472.63
-1466.73
-1459.88
-1452.2
-1443.77
-1434.69
-1425.25
-1415.61
-1405.89
-1396.13
-1386.33
-1376.43
-1366.42
-1356.36
-1346.25
-1336.14
-1326.04
-1315.93
-1305.82
-1295.7
-1285.54
-1275.29
-1264.85
-1254.15
-1243.11
-1231.62
-1219.63
-1207.05
-1193.84
-1179.94
-1165.29
-1149.84
-1133.52
-1116.29
-1098.08
-1078.78
-1058.32
-1036.64
-1013.78
-989.87
-965.098
-939.732
-914.129
-888.718
-863.839
-839.549
-815.862
-793.021
-771.691
-752.57
-736.147
-723.513
-715.436
-712.462
-715.001
-723.392
-737.859
-758.375
-783.87
-812.079
-839.908
-865.19
-890.95
-923.334
-965.269
-1004.52
472.158
484.695
492.656
495.861
493.833
486.283
473.321
454.722
430.499
400.972
366.015
326.638
282.635
235.469
185.118
132.911
79.833
25.8997
-28.2555
-82.7699
-137.35
-192.208
-247.26
-302.715
-358.545
-414.912
-471.738
-529.129
-586.891
-645.089
-703.362
-761.742
-819.669
-877.154
-933.482
-987.921
-1040.44
-1090.29
-1137.39
-1181.1
-1221.78
-1259.16
-1291.87
-1320.04
-1344.31
-1365
-1382.27
-1396.52
-1407.81
-1416.58
-1422.89
-1427.18
-1429.67
-1430.51
-1429.77
-1427.72
-1424.17
-1419.58
-1413.55
-1406.67
-1398.4
-1388.71
-1376.64
-1362.83
-1346.5
-1328.89
-1308.87
-1288.41
-1267.05
-1246.32
-1225.62
-1203.64
-1196.4
-1183.63
-1183.74
-1193.22
-1218.48
-1254.92
-1316.38
-1379.05
-1457.79
-1535.66
-1616.3
-1688.22
-1750.83
-1800.83
-1838.94
-1866.11
-1882.83
-1891.05
-1893.2
-1890.89
-1884.96
-1876.82
-1867.29
-1856.9
-1845.94
-1834.56
-1822.76
-1810.55
-1797.59
-1783.75
-1768.35
-1751.38
-1731.92
-1710.11
-1685.05
-1657.14
-1625.81
-1591.71
-1554.72
-1515.58
-1474.69
-1432.76
-1390.28
-1348.03
-1306.35
-1265.74
-1226.58
-1189.09
-1153.45
-1119.78
-1088.2
-1058.86
-1032.22
-1008.92
-989.217
-973.191
-961.074
-953.243
-950.4
-953.285
-962.371
-977.717
-999.086
-1025.85
-1057.22
-1092.13
-1129.23
-1167.46
-1205.85
-1243.49
-1279.6
-1313.48
-1344.48
-1372.24
-1396.46
-1417.08
-1434.23
-1448.21
-1459.52
-1468.24
-1474.73
-1479.45
-1482.35
-1483.49
-1482.98
-1481.03
-1477.55
-1472.77
-1466.86
-1459.98
-1452.27
-1443.82
-1434.74
-1425.3
-1415.64
-1405.92
-1396.15
-1386.34
-1376.43
-1366.43
-1356.37
-1346.25
-1336.13
-1326.02
-1315.93
-1305.84
-1295.73
-1285.57
-1275.3
-1264.87
-1254.17
-1243.15
-1231.69
-1219.71
-1207.14
-1193.93
-1180.02
-1165.36
-1149.93
-1133.65
-1116.43
-1098.23
-1078.92
-1058.44
-1036.76
-1013.91
-990.004
-965.222
-939.829
-914.189
-888.744
-863.841
-839.511
-815.772
-792.832
-771.458
-752.257
-735.728
-723.022
-714.906
-711.891
-714.4
-722.803
-737.329
-758.004
-783.743
-812.164
-840.186
-865.508
-890.982
-922.952
-964.431
-1004.87
472.731
485.363
493.418
496.704
494.738
487.252
474.3
455.679
431.407
401.806
366.742
327.255
283.122
235.839
185.376
133.072
79.9245
25.9463
-28.2308
-82.7483
-137.32
-192.158
-247.189
-302.62
-358.432
-414.784
-471.604
-528.995
-586.77
-644.988
-703.292
-761.715
-819.692
-877.237
-933.629
-988.128
-1040.71
-1090.62
-1137.78
-1181.57
-1222.19
-1259.26
-1292.17
-1320.45
-1344.75
-1365.46
-1382.73
-1396.99
-1408.28
-1417.06
-1423.37
-1427.66
-1430.14
-1430.97
-1430.2
-1428.13
-1424.54
-1419.91
-1413.84
-1406.91
-1398.6
-1388.89
-1376.82
-1362.99
-1346.65
-1329.01
-1308.96
-1288.35
-1267.03
-1246.37
-1225.35
-1203.28
-1195.54
-1183.24
-1182.92
-1192.66
-1217.97
-1254.96
-1317.13
-1380.61
-1460.17
-1538.63
-1619.66
-1691.64
-1754.06
-1803.67
-1841.26
-1867.84
-1884.13
-1892
-1894.02
-1891.44
-1885.34
-1877.09
-1867.5
-1857.06
-1846.08
-1834.71
-1822.98
-1810.81
-1797.91
-1784.13
-1768.81
-1751.88
-1732.51
-1710.75
-1685.75
-1657.87
-1626.57
-1592.44
-1555.37
-1516.11
-1475.12
-1433.09
-1390.53
-1348.18
-1306.43
-1265.77
-1226.54
-1188.98
-1153.25
-1119.49
-1087.83
-1058.42
-1031.7
-1008.29
-988.542
-972.499
-960.348
-952.442
-949.5
-952.349
-961.484
-976.924
-998.43
-1025.35
-1056.9
-1092.02
-1129.31
-1167.72
-1206.23
-1243.95
-1280.15
-1314.1
-1345.16
-1372.92
-1397.1
-1417.68
-1434.78
-1448.69
-1459.95
-1468.63
-1475.11
-1479.8
-1482.67
-1483.77
-1483.24
-1481.27
-1477.8
-1473.03
-1467.09
-1460.19
-1452.45
-1443.95
-1434.84
-1425.37
-1415.7
-1405.98
-1396.23
-1386.42
-1376.53
-1366.53
-1356.47
-1346.35
-1336.23
-1326.12
-1316.02
-1305.92
-1295.81
-1285.66
-1275.42
-1265
-1254.32
-1243.3
-1231.85
-1219.89
-1207.33
-1194.12
-1180.22
-1165.58
-1150.14
-1133.86
-1116.64
-1098.45
-1079.18
-1058.72
-1037.04
-1014.17
-990.229
-965.421
-940.004
-914.323
-888.825
-863.869
-839.494
-815.652
-792.557
-771.017
-751.757
-735.073
-722.277
-714.06
-710.97
-713.44
-721.835
-736.509
-757.407
-783.459
-812.318
-840.48
-865.853
-890.965
-922.479
-964.955
-1005.37
473.494
486.252
494.431
497.824
495.954
488.539
475.606
456.956
432.619
402.919
367.713
328.077
283.769
236.331
185.719
133.283
80.044
26.0062
-28.1998
-82.7209
-137.28
-192.092
-247.094
-302.493
-358.281
-414.612
-471.425
-528.816
-586.606
-644.852
-703.199
-761.678
-819.722
-877.348
-933.823
-988.401
-1041.07
-1091.05
-1138.28
-1182.14
-1222.72
-1259.6
-1292.63
-1321.01
-1345.33
-1366.06
-1383.35
-1397.62
-1408.92
-1417.7
-1424.02
-1428.31
-1430.77
-1431.58
-1430.79
-1428.67
-1425.04
-1420.35
-1414.22
-1407.23
-1398.87
-1389.13
-1377.05
-1363.2
-1346.84
-1329.18
-1309.09
-1288.29
-1266.88
-1246.53
-1224.98
-1202.8
-1194.32
-1182.78
-1181.83
-1191.92
-1217.29
-1255.01
-1318.15
-1382.71
-1463.38
-1542.64
-1624.17
-1696.24
-1758.37
-1807.46
-1844.35
-1870.14
-1885.83
-1893.36
-1895.03
-1892.1
-1885.8
-1877.42
-1867.75
-1857.25
-1846.24
-1834.86
-1823.18
-1811.07
-1798.27
-1784.58
-1769.39
-1752.59
-1733.36
-1711.67
-1686.75
-1658.86
-1627.54
-1593.34
-1556.21
-1516.87
-1475.74
-1433.56
-1390.86
-1348.44
-1306.62
-1265.85
-1226.49
-1188.81
-1153
-1119.17
-1087.41
-1057.87
-1031
-1007.48
-987.658
-971.59
-959.403
-951.389
-948.345
-951.1
-960.267
-975.832
-997.513
-1024.67
-1056.51
-1091.9
-1129.46
-1168.04
-1206.69
-1244.55
-1280.87
-1314.91
-1346.02
-1373.81
-1398
-1418.53
-1435.56
-1449.38
-1460.51
-1469.09
-1475.56
-1480.21
-1483.09
-1484.2
-1483.64
-1481.65
-1478.14
-1473.31
-1467.33
-1460.41
-1452.65
-1444.16
-1435.02
-1425.51
-1415.81
-1406.05
-1396.29
-1386.49
-1376.6
-1366.61
-1356.54
-1346.42
-1336.29
-1326.18
-1316.08
-1306
-1295.9
-1285.76
-1275.52
-1265.12
-1254.46
-1243.46
-1232.03
-1220.08
-1207.54
-1194.35
-1180.45
-1165.81
-1150.38
-1134.12
-1116.94
-1098.78
-1079.51
-1059.05
-1037.36
-1014.48
-990.531
-965.687
-940.209
-914.461
-888.896
-863.874
-839.433
-815.519
-792.23
-770.528
-751.065
-734.186
-721.269
-712.968
-709.801
-712.219
-720.645
-735.391
-756.544
-783.019
-812.423
-840.889
-866.155
-890.757
-921.792
-963.813
-1005.48
474.446
487.362
495.695
499.225
497.48
490.144
477.239
458.555
434.136
404.312
368.928
329.105
284.577
236.943
186.144
133.543
80.1893
26.0774
-28.164
-82.6889
-137.232
-192.01
-246.975
-302.333
-358.091
-414.396
-471.201
-528.591
-586.401
-644.68
-703.08
-761.631
-819.759
-877.484
-934.064
-988.74
-1041.51
-1091.57
-1138.89
-1182.82
-1223.38
-1260.12
-1293.27
-1321.72
-1346.07
-1366.81
-1384.12
-1398.4
-1409.71
-1418.5
-1424.82
-1429.11
-1431.57
-1432.35
-1431.52
-1429.35
-1425.66
-1420.91
-1414.7
-1407.63
-1399.21
-1389.44
-1377.35
-1363.47
-1347.08
-1329.39
-1309.24
-1288.23
-1267.18
-1246.26
-1224.52
-1202.2
-1192.62
-1182.38
-1180.48
-1190.98
-1216.43
-1255.08
-1319.42
-1385.4
-1467.45
-1547.73
-1629.87
-1702.02
-1763.78
-1812.21
-1848.21
-1873.05
-1888
-1895.06
-1896.24
-1892.89
-1886.34
-1877.8
-1868.01
-1857.44
-1846.39
-1835.03
-1823.39
-1811.36
-1798.67
-1785.09
-1770.09
-1753.42
-1734.33
-1712.74
-1687.92
-1660.04
-1628.72
-1594.44
-1557.22
-1517.73
-1476.48
-1434.19
-1391.33
-1348.75
-1306.79
-1265.88
-1226.36
-1188.55
-1152.63
-1118.69
-1086.82
-1057.17
-1030.15
-1006.46
-986.592
-970.498
-958.263
-950.093
-946.841
-949.487
-958.715
-974.442
-996.349
-1023.79
-1055.98
-1091.74
-1129.6
-1168.41
-1207.24
-1245.26
-1281.74
-1315.91
-1347.1
-1374.9
-1399.08
-1419.55
-1436.48
-1450.19
-1461.16
-1469.64
-1476.07
-1480.69
-1483.58
-1484.68
-1484.08
-1482.06
-1478.53
-1473.64
-1467.62
-1460.65
-1452.88
-1444.36
-1435.19
-1425.63
-1415.89
-1406.11
-1396.33
-1386.52
-1376.64
-1366.66
-1356.62
-1346.5
-1336.37
-1326.25
-1316.16
-1306.08
-1295.98
-1285.86
-1275.64
-1265.25
-1254.61
-1243.64
-1232.24
-1220.31
-1207.79
-1194.61
-1180.73
-1166.1
-1150.68
-1134.43
-1117.28
-1099.14
-1079.9
-1059.45
-1037.74
-1014.84
-990.855
-965.974
-940.446
-914.622
-888.968
-863.863
-839.345
-815.334
-791.829
-769.923
-750.238
-733.143
-720.056
-711.634
-708.373
-710.708
-719.08
-733.927
-755.407
-782.431
-812.461
-841.317
-866.366
-890.452
-921.034
-963.516
-1005.56
475.586
488.691
497.211
500.91
499.314
492.071
479.201
460.478
435.961
405.986
370.386
330.339
285.544
237.674
186.648
133.848
80.3575
26.1575
-28.1255
-82.6537
-137.177
-191.912
-246.833
-302.141
-357.863
-414.135
-470.929
-528.318
-586.152
-644.473
-702.937
-761.573
-819.801
-877.647
-934.354
-989.146
-1042.04
-1092.2
-1139.61
-1183.62
-1224.18
-1260.74
-1294.06
-1322.58
-1346.96
-1367.72
-1385.04
-1399.34
-1410.67
-1419.47
-1425.78
-1430.07
-1432.52
-1433.27
-1432.4
-1430.17
-1426.4
-1421.58
-1415.28
-1408.11
-1399.61
-1389.8
-1377.7
-1363.78
-1347.38
-1329.64
-1309.44
-1288.2
-1267.73
-1245.77
-1223.96
-1201.51
-1190.52
-1181.89
-1178.85
-1189.85
-1215.4
-1255.17
-1320.96
-1388.7
-1472.44
-1553.96
-1636.81
-1709.03
-1770.31
-1817.92
-1852.86
-1876.59
-1890.66
-1897.07
-1897.65
-1893.84
-1887
-1878.25
-1868.33
-1857.71
-1846.63
-1835.28
-1823.69
-1811.74
-1799.2
-1785.77
-1770.93
-1754.4
-1735.5
-1714.02
-1689.31
-1661.43
-1630.09
-1595.71
-1558.38
-1518.75
-1477.33
-1434.86
-1391.82
-1349.07
-1306.94
-1265.86
-1226.19
-1188.21
-1152.14
-1118.07
-1086.08
-1056.31
-1029.13
-1005.23
-985.309
-969.201
-956.913
-948.495
-945.021
-947.533
-956.822
-972.75
-994.937
-1022.72
-1055.31
-1091.49
-1129.74
-1168.85
-1207.9
-1246.1
-1282.76
-1317.1
-1348.39
-1376.22
-1400.37
-1420.74
-1437.55
-1451.11
-1461.96
-1470.35
-1476.72
-1481.28
-1484.14
-1485.23
-1484.59
-1482.53
-1478.97
-1474.05
-1467.97
-1460.95
-1453.13
-1444.57
-1435.35
-1425.74
-1415.96
-1406.14
-1396.37
-1386.6
-1376.74
-1366.76
-1356.69
-1346.56
-1336.43
-1326.32
-1316.23
-1306.16
-1296.07
-1285.95
-1275.74
-1265.39
-1254.79
-1243.84
-1232.46
-1220.56
-1208.09
-1194.93
-1181.06
-1166.43
-1151.02
-1134.79
-1117.69
-1099.58
-1080.36
-1059.91
-1038.22
-1015.3
-991.28
-966.341
-940.734
-914.822
-889.082
-863.891
-839.273
-815.105
-791.313
-769.171
-749.259
-731.948
-718.637
-710.038
-706.617
-708.837
-717.15
-732.136
-753.998
-781.626
-812.452
-841.754
-866.529
-889.965
-920.247
-962.694
-1005.28
476.912
490.239
498.977
502.88
501.457
494.322
481.496
462.727
438.095
407.944
372.09
331.777
286.668
238.52
187.23
134.197
80.5454
26.2434
-28.0867
-82.6171
-137.115
-191.8
-246.667
-301.916
-357.594
-413.829
-470.61
-527.997
-585.859
-644.227
-702.766
-761.503
-819.848
-877.836
-934.69
-989.62
-1042.65
-1092.93
-1140.45
-1184.54
-1225.12
-1261.57
-1295.03
-1323.59
-1347.99
-1368.77
-1386.11
-1400.43
-1411.78
-1420.59
-1426.91
-1431.2
-1433.64
-1434.36
-1433.42
-1431.12
-1427.28
-1422.36
-1415.96
-1408.68
-1400.09
-1390.21
-1378.11
-1364.15
-1347.72
-1329.93
-1309.67
-1288.16
-1268.31
-1245.26
-1223.34
-1200.74
-1188.51
-1180.83
-1176.97
-1188.5
-1214.19
-1255.29
-1322.77
-1392.67
-1478.39
-1561.39
-1645.05
-1717.31
-1777.99
-1824.6
-1858.27
-1880.74
-1893.76
-1899.39
-1899.3
-1894.97
-1887.8
-1878.83
-1868.75
-1858.04
-1846.92
-1835.58
-1824.06
-1812.21
-1799.81
-1786.52
-1771.88
-1755.51
-1736.82
-1715.46
-1690.9
-1663.07
-1631.75
-1597.27
-1559.79
-1519.91
-1478.26
-1435.61
-1392.34
-1349.41
-1307.15
-1265.92
-1226.05
-1187.87
-1151.64
-1117.42
-1085.29
-1055.34
-1027.92
-1003.81
-983.824
-967.722
-955.315
-946.614
-942.864
-945.205
-954.608
-970.781
-993.283
-1021.47
-1054.55
-1091.28
-1129.99
-1169.43
-1208.71
-1247.12
-1283.97
-1318.47
-1349.88
-1377.74
-1401.85
-1422.16
-1438.84
-1452.24
-1462.9
-1471.18
-1477.47
-1481.98
-1484.83
-1485.89
-1485.19
-1483.09
-1479.52
-1474.54
-1468.4
-1461.33
-1453.46
-1444.86
-1435.58
-1425.89
-1416.05
-1406.24
-1396.48
-1386.72
-1376.87
-1366.88
-1356.81
-1346.68
-1336.52
-1326.4
-1316.31
-1306.24
-1296.16
-1286.07
-1275.9
-1265.59
-1255.03
-1244.13
-1232.79
-1220.91
-1208.43
-1195.28
-1181.43
-1166.82
-1151.44
-1135.23
-1118.14
-1100.08
-1080.9
-1060.49
-1038.79
-1015.85
-991.778
-966.778
-941.092
-915.082
-889.259
-863.971
-839.222
-814.88
-790.704
-768.298
-748.04
-730.553
-716.932
-708.127
-704.529
-706.592
-714.894
-730.04
-752.332
-780.547
-812.223
-842.02
-866.672
-889.329
-919.514
-962.592
-1005.33
478.423
492.003
500.995
505.136
503.911
496.9
484.125
465.306
440.542
410.188
374.039
333.419
287.948
239.479
187.884
134.583
80.7488
26.3317
-28.0504
-82.5813
-137.048
-191.673
-246.477
-301.657
-357.285
-413.476
-470.241
-527.627
-585.519
-643.942
-702.567
-761.419
-819.9
-878.05
-935.074
-990.161
-1043.35
-1093.77
-1141.41
-1185.59
-1226.22
-1262.66
-1296.17
-1324.76
-1349.18
-1369.98
-1387.34
-1401.68
-1413.05
-1421.88
-1428.2
-1432.5
-1434.92
-1435.6
-1434.61
-1432.22
-1428.28
-1423.25
-1416.73
-1409.33
-1400.63
-1390.69
-1378.57
-1364.57
-1348.12
-1330.26
-1309.94
-1288.12
-1268.88
-1244.8
-1222.69
-1199.91
-1186.46
-1179.25
-1174.87
-1186.95
-1212.81
-1255.47
-1324.88
-1397.35
-1485.38
-1570.11
-1654.65
-1726.91
-1786.84
-1832.27
-1864.46
-1885.49
-1897.31
-1902
-1901.13
-1896.22
-1888.68
-1879.45
-1869.19
-1858.36
-1847.18
-1835.84
-1824.38
-1812.65
-1800.44
-1787.33
-1772.94
-1756.79
-1738.37
-1717.19
-1692.79
-1664.99
-1633.68
-1599.07
-1561.42
-1521.31
-1479.4
-1436.49
-1392.97
-1349.85
-1307.42
-1266.01
-1225.92
-1187.52
-1151.1
-1116.72
-1084.44
-1054.23
-1026.51
-1002.16
-982.135
-966.024
-953.508
-944.482
-940.404
-942.545
-952.071
-968.535
-991.41
-1020.05
-1053.7
-1091.05
-1130.28
-1170.11
-1209.67
-1248.3
-1285.37
-1320.09
-1351.62
-1379.51
-1403.59
-1423.8
-1440.33
-1453.54
-1463.99
-1472.12
-1478.32
-1482.78
-1485.62
-1486.7
-1485.94
-1483.78
-1480.17
-1475.14
-1468.92
-1461.78
-1453.86
-1445.23
-1435.88
-1426.11
-1416.22
-1406.35
-1396.58
-1386.84
-1377.03
-1367.06
-1356.97
-1346.82
-1336.67
-1326.55
-1316.46
-1306.4
-1296.33
-1286.25
-1276.12
-1265.85
-1255.34
-1244.47
-1233.16
-1221.32
-1208.87
-1195.75
-1181.89
-1167.29
-1151.92
-1135.76
-1118.72
-1100.7
-1081.57
-1061.17
-1039.45
-1016.47
-992.347
-967.28
-941.515
-915.418
-889.468
-864.068
-839.203
-814.605
-790.045
-767.234
-746.657
-728.914
-714.967
-705.919
-702.098
-704.038
-712.304
-727.606
-750.263
-779.166
-811.665
-842.059
-866.522
-888.668
-918.879
-961.791
-1005.83
480.118
493.984
503.263
507.678
506.678
499.808
487.091
468.216
443.304
412.719
376.235
335.266
289.383
240.548
188.608
135.003
80.9632
26.4183
-28.0199
-82.5487
-136.978
-191.533
-246.263
-301.364
-356.935
-413.076
-469.822
-527.205
-585.132
-643.616
-702.337
-761.321
-819.955
-878.29
-935.506
-990.77
-1044.14
-1094.71
-1142.49
-1186.77
-1227.47
-1263.97
-1297.48
-1326.08
-1350.51
-1371.34
-1388.72
-1403.09
-1414.48
-1423.33
-1429.66
-1433.96
-1436.37
-1437
-1435.94
-1433.45
-1429.4
-1424.26
-1417.61
-1410.06
-1401.24
-1391.23
-1379.1
-1365.03
-1348.57
-1330.63
-1310.24
-1288.06
-1269.41
-1244.43
-1222.01
-1199.08
-1184.31
-1177.16
-1172.59
-1185.18
-1211.23
-1255.66
-1327.25
-1402.82
-1493.47
-1580.21
-1665.7
-1737.9
-1796.91
-1840.93
-1871.4
-1890.82
-1901.28
-1904.88
-1903.16
-1897.61
-1889.64
-1880.1
-1869.63
-1858.68
-1847.44
-1836.12
-1824.77
-1813.18
-1801.18
-1788.3
-1774.19
-1758.28
-1740.14
-1719.15
-1694.93
-1667.18
-1635.86
-1601.12
-1563.29
-1522.89
-1480.68
-1437.51
-1393.7
-1350.35
-1307.75
-1266.18
-1225.84
-1187.14
-1150.51
-1115.93
-1083.44
-1052.98
-1024.93
-1000.26
-980.174
-964.107
-951.539
-942.107
-937.623
-939.509
-949.188
-965.999
-989.3
-1018.47
-1052.75
-1090.79
-1130.63
-1170.88
-1210.7
-1249.61
-1286.96
-1321.92
-1353.61
-1381.54
-1405.59
-1425.69
-1442.04
-1455.03
-1465.24
-1473.19
-1479.26
-1483.68
-1486.51
-1487.57
-1486.74
-1484.49
-1480.85
-1475.77
-1469.49
-1462.27
-1454.29
-1445.61
-1436.19
-1426.33
-1416.35
-1406.44
-1396.66
-1386.95
-1377.18
-1367.23
-1357.16
-1347
-1336.83
-1326.69
-1316.6
-1306.54
-1296.48
-1286.44
-1276.34
-1266.12
-1255.64
-1244.82
-1233.55
-1221.74
-1209.33
-1196.23
-1182.41
-1167.84
-1152.49
-1136.34
-1119.33
-1101.37
-1082.29
-1061.93
-1040.22
-1017.2
-993.012
-967.872
-942.016
-915.778
-889.696
-864.175
-839.167
-814.324
-789.32
-766.096
-745.11
-727.043
-712.736
-703.403
-699.389
-701.155
-709.364
-724.757
-747.836
-777.483
-810.876
-841.963
-866.216
-887.971
-918.393
-961.384
-1006.71
481.993
496.178
505.781
510.507
509.759
503.049
490.4
471.464
446.385
415.54
378.679
337.317
290.969
241.724
189.396
135.451
81.1832
26.4986
-27.9989
-82.5218
-136.907
-191.379
-246.026
-301.036
-356.542
-412.626
-469.352
-526.73
-584.695
-643.247
-702.076
-761.206
-820.012
-878.554
-935.986
-991.449
-1045.03
-1095.75
-1143.69
-1188.08
-1228.88
-1265.52
-1298.97
-1327.56
-1352
-1372.84
-1390.26
-1404.65
-1416.07
-1424.94
-1431.28
-1435.59
-1437.99
-1438.57
-1437.43
-1434.83
-1430.66
-1425.39
-1418.59
-1410.88
-1401.92
-1391.82
-1379.68
-1365.55
-1349.08
-1331.04
-1310.58
-1287.96
-1269.92
-1244.13
-1221.34
-1198.34
-1182.01
-1173.73
-1170.9
-1183.22
-1209.5
-1255.97
-1329.95
-1409.17
-1502.78
-1591.83
-1678.29
-1750.35
-1808.23
-1850.61
-1879.12
-1896.71
-1905.67
-1908.05
-1905.37
-1899.11
-1890.68
-1880.82
-1870.13
-1859.07
-1847.79
-1836.51
-1825.27
-1813.84
-1802.06
-1789.41
-1775.58
-1759.94
-1742.12
-1721.34
-1697.33
-1669.64
-1638.35
-1603.46
-1565.42
-1524.71
-1482.15
-1438.67
-1394.54
-1350.97
-1308.17
-1266.34
-1225.7
-1186.68
-1149.8
-1115.01
-1082.32
-1051.6
-1023.18
-998.108
-977.971
-961.996
-949.379
-939.506
-934.533
-936.083
-945.952
-963.172
-986.978
-1016.68
-1051.66
-1090.53
-1131.05
-1171.73
-1211.88
-1251.08
-1288.74
-1323.98
-1355.88
-1383.85
-1407.81
-1427.77
-1443.91
-1456.66
-1466.6
-1474.36
-1480.32
-1484.71
-1487.51
-1488.51
-1487.62
-1485.29
-1481.62
-1476.47
-1470.09
-1462.77
-1454.72
-1445.99
-1436.51
-1426.53
-1416.47
-1406.5
-1396.72
-1387.04
-1377.31
-1367.39
-1357.31
-1347.14
-1336.95
-1326.8
-1316.71
-1306.66
-1296.63
-1286.62
-1276.57
-1266.4
-1255.98
-1245.2
-1233.97
-1222.2
-1209.83
-1196.77
-1182.97
-1168.42
-1153.09
-1136.96
-1119.98
-1102.07
-1083.06
-1062.75
-1041.04
-1017.99
-993.746
-968.522
-942.553
-916.182
-889.96
-864.307
-839.135
-814.003
-788.564
-764.841
-743.368
-724.872
-710.27
-700.635
-696.359
-697.946
-706.022
-721.517
-745.037
-775.456
-810.025
-841.58
-865.741
-887.21
-917.938
-961.054
-1008.11
484.047
498.586
508.549
513.625
513.157
506.627
494.055
475.052
449.789
418.654
381.373
339.572
292.704
243.001
190.242
135.922
81.4028
26.5674
-27.9916
-82.5039
-136.836
-191.214
-245.764
-300.671
-356.105
-412.127
-468.827
-526.199
-584.205
-642.832
-701.781
-761.074
-820.069
-878.843
-936.514
-992.197
-1046
-1096.91
-1145.01
-1189.53
-1230.45
-1267.29
-1300.62
-1329.19
-1353.63
-1374.5
-1391.94
-1406.37
-1417.81
-1426.71
-1433.07
-1437.38
-1439.78
-1440.31
-1439.08
-1436.34
-1432.05
-1426.64
-1419.68
-1411.79
-1402.67
-1392.47
-1380.32
-1366.11
-1349.64
-1331.48
-1310.95
-1287.81
-1270.41
-1243.93
-1220.66
-1197.86
-1179.59
-1170.32
-1168.37
-1181.09
-1207.55
-1256.3
-1332.92
-1416.48
-1513.39
-1605.08
-1692.52
-1764.33
-1820.85
-1861.32
-1887.57
-1903.13
-1910.43
-1911.48
-1907.79
-1900.8
-1891.9
-1881.66
-1870.72
-1859.52
-1848.19
-1836.93
-1825.79
-1814.53
-1803
-1790.64
-1777.15
-1761.82
-1744.33
-1723.81
-1700.04
-1672.41
-1641.09
-1606.01
-1567.72
-1526.67
-1483.75
-1439.97
-1395.48
-1351.59
-1308.57
-1266.52
-1225.58
-1186.18
-1149.02
-1114.01
-1081.11
-1050.1
-1021.28
-995.705
-975.514
-959.696
-947.056
-936.637
-931.084
-932.264
-942.371
-960.076
-984.398
-1014.69
-1050.46
-1090.26
-1131.56
-1172.75
-1213.2
-1252.7
-1290.73
-1326.3
-1358.37
-1386.37
-1410.26
-1430.05
-1445.95
-1458.43
-1468.09
-1475.61
-1481.43
-1485.8
-1488.62
-1489.6
-1488.62
-1486.19
-1482.47
-1477.25
-1470.78
-1463.36
-1455.23
-1446.44
-1436.86
-1426.77
-1416.62
-1406.61
-1396.82
-1387.17
-1377.49
-1367.59
-1357.51
-1347.33
-1337.12
-1326.96
-1316.85
-1306.8
-1296.77
-1286.78
-1276.8
-1266.69
-1256.33
-1245.6
-1234.43
-1222.71
-1210.37
-1197.34
-1183.56
-1169.03
-1153.72
-1137.61
-1120.71
-1102.88
-1083.94
-1063.66
-1041.94
-1018.85
-994.535
-969.222
-943.144
-916.638
-890.259
-864.456
-839.102
-813.644
-787.76
-763.496
-741.499
-722.523
-707.56
-697.574
-693.031
-694.351
-702.292
-717.918
-741.861
-773.103
-808.85
-841.023
-865.182
-886.616
-917.813
-961.223
-1009.74
486.277
501.207
511.568
517.033
516.875
510.546
498.06
478.987
453.521
422.065
384.316
342.029
294.586
244.375
191.142
136.407
81.6153
26.6189
-28.0026
-82.4982
-136.767
-191.038
-245.478
-300.27
-355.624
-411.575
-468.247
-525.611
-583.661
-642.369
-701.45
-760.922
-820.127
-879.155
-937.09
-993.016
-1047.07
-1098.18
-1146.46
-1191.11
-1232.16
-1269.25
-1302.42
-1330.97
-1355.41
-1376.3
-1393.77
-1408.24
-1419.72
-1428.64
-1435.02
-1439.35
-1441.74
-1442.22
-1440.89
-1438
-1433.57
-1428
-1420.87
-1412.79
-1403.49
-1393.18
-1381.02
-1366.72
-1350.27
-1331.96
-1311.35
-1287.59
-1270.91
-1243.81
-1219.96
-1197.94
-1177.01
-1166.92
-1164.92
-1178.84
-1205.47
-1256.79
-1336.23
-1424.87
-1525.49
-1620.18
-1708.56
-1779.95
-1834.81
-1873.05
-1896.75
-1910.06
-1915.61
-1915.18
-1910.38
-1902.61
-1893.18
-1882.55
-1871.34
-1859.99
-1848.58
-1837.32
-1826.3
-1815.24
-1803.99
-1791.93
-1778.81
-1763.85
-1746.76
-1726.53
-1702.99
-1675.42
-1644.07
-1608.78
-1570.22
-1528.78
-1485.45
-1441.32
-1396.45
-1352.26
-1309.04
-1266.75
-1225.48
-1185.62
-1148.13
-1112.89
-1079.75
-1048.44
-1019.21
-993.023
-972.803
-957.224
-944.583
-933.515
-927.252
-927.976
-938.397
-956.666
-981.582
-1012.49
-1049.11
-1090.03
-1132.22
-1173.91
-1214.69
-1254.49
-1292.88
-1328.83
-1361.12
-1389.15
-1412.91
-1432.53
-1448.19
-1460.35
-1469.68
-1476.92
-1482.6
-1486.97
-1489.82
-1490.81
-1489.76
-1487.19
-1483.4
-1478.12
-1471.53
-1464.01
-1455.79
-1446.93
-1437.27
-1427.05
-1416.79
-1406.72
-1396.92
-1387.31
-1377.7
-1367.85
-1357.77
-1347.58
-1337.34
-1327.16
-1317.04
-1306.98
-1296.97
-1287.01
-1277.07
-1267.02
-1256.73
-1246.1
-1234.98
-1223.3
-1210.99
-1197.99
-1184.23
-1169.71
-1154.42
-1138.36
-1121.51
-1103.76
-1084.92
-1064.69
-1042.95
-1019.8
-995.39
-969.977
-943.789
-917.144
-890.595
-864.619
-839.06
-813.217
-786.921
-762.035
-739.468
-719.962
-704.575
-694.22
-689.366
-690.383
-698.169
-713.955
-738.201
-770.283
-807.392
-840.321
-864.471
-886.072
-917.965
-961.909
-1012.5
488.679
504.042
514.838
520.73
520.914
514.811
502.422
483.273
457.585
425.776
387.511
344.688
296.61
245.841
192.087
136.899
81.8129
26.6468
-28.0369
-82.5084
-136.704
-190.851
-245.166
-299.829
-355.096
-410.97
-467.61
-524.963
-583.059
-641.856
-701.08
-760.748
-820.183
-879.491
-937.714
-993.907
-1048.23
-1099.56
-1148.03
-1192.83
-1234.01
-1271.31
-1304.37
-1332.9
-1357.34
-1378.25
-1395.76
-1410.27
-1421.78
-1430.74
-1437.15
-1441.49
-1443.89
-1444.3
-1442.86
-1439.8
-1435.22
-1429.49
-1422.17
-1413.89
-1404.39
-1393.95
-1381.77
-1367.38
-1350.96
-1332.47
-1311.78
-1287.28
-1271.46
-1243.78
-1219.19
-1199.31
-1174.2
-1163.36
-1160.6
-1176.53
-1203.16
-1257.37
-1339.85
-1434.48
-1539.21
-1637.26
-1726.43
-1797.24
-1850.12
-1885.85
-1906.66
-1917.48
-1921.14
-1919.09
-1913.14
-1904.54
-1894.54
-1883.46
-1871.96
-1860.46
-1848.97
-1837.72
-1826.82
-1815.97
-1805.01
-1793.3
-1780.57
-1766.03
-1749.36
-1729.45
-1706.17
-1678.67
-1647.3
-1611.8
-1572.94
-1531.07
-1487.26
-1442.76
-1397.5
-1352.97
-1309.55
-1267.02
-1225.41
-1185.02
-1147.19
-1111.73
-1078.35
-1046.68
-1016.95
-990.01
-969.794
-954.542
-941.961
-930.19
-923.059
-923.172
-934.01
-952.958
-978.528
-1010.07
-1047.65
-1089.85
-1133.06
-1175.25
-1216.29
-1256.4
-1295.22
-1331.59
-1364.11
-1392.18
-1415.84
-1435.28
-1450.65
-1462.48
-1471.44
-1478.32
-1483.81
-1488.21
-1491.12
-1492.09
-1490.97
-1488.27
-1484.43
-1479.09
-1472.39
-1464.73
-1456.4
-1447.46
-1437.72
-1427.36
-1416.96
-1406.83
-1397.05
-1387.48
-1377.94
-1368.13
-1358.03
-1347.82
-1337.56
-1327.37
-1317.25
-1307.19
-1297.19
-1287.27
-1277.38
-1267.41
-1257.2
-1246.62
-1235.56
-1223.95
-1211.7
-1198.72
-1184.97
-1170.47
-1155.2
-1139.17
-1122.39
-1104.75
-1086
-1065.83
-1044.06
-1020.82
-996.305
-970.79
-944.505
-917.702
-890.978
-864.815
-839.017
-812.764
-786.009
-760.466
-737.301
-717.21
-701.313
-690.588
-685.346
-686.026
-693.675
-709.556
-733.822
-766.737
-805.446
-839.313
-863.73
-885.825
-918.496
-962.839
-1015.33
491.249
507.089
518.359
524.717
525.278
519.425
507.147
487.918
461.987
429.791
390.96
347.549
298.774
247.392
193.071
137.389
81.9873
26.644
-28.0999
-82.5386
-136.648
-190.656
-244.829
-299.348
-354.521
-410.311
-466.914
-524.252
-582.397
-641.289
-700.669
-760.55
-820.235
-879.848
-938.387
-994.87
-1049.49
-1101.05
-1149.74
-1194.69
-1236
-1273.41
-1306.46
-1334.97
-1359.41
-1380.35
-1397.89
-1412.45
-1424
-1433
-1439.44
-1443.81
-1446.22
-1446.56
-1445
-1441.74
-1437
-1431.1
-1423.57
-1415.07
-1405.36
-1394.77
-1382.58
-1368.07
-1351.73
-1333.02
-1312.21
-1286.82
-1272.13
-1243.81
-1218.24
-1199.36
-1171.08
-1159.59
-1155.16
-1174.32
-1200.78
-1258.17
-1343.78
-1445.43
-1554.68
-1656.56
-1746.54
-1816.5
-1866.92
-1899.66
-1917.19
-1925.27
-1927.34
-1923.23
-1916.07
-1906.59
-1895.97
-1884.4
-1872.6
-1860.92
-1849.34
-1838.1
-1827.34
-1816.73
-1806.08
-1794.76
-1782.45
-1768.36
-1752.14
-1732.6
-1709.62
-1682.24
-1650.87
-1615.15
-1575.94
-1533.6
-1489.25
-1444.3
-1398.59
-1353.69
-1310.07
-1267.32
-1225.37
-1184.43
-1146.19
-1110.51
-1076.87
-1044.83
-1014.59
-986.707
-966.493
-951.747
-939.289
-926.728
-918.535
-917.895
-929.186
-948.966
-975.237
-1007.46
-1046.04
-1089.76
-1134.08
-1176.75
-1218.01
-1258.42
-1297.71
-1334.59
-1367.43
-1395.53
-1419.03
-1438.26
-1453.32
-1464.77
-1473.34
-1479.8
-1485.11
-1489.55
-1492.5
-1493.45
-1492.25
-1489.42
-1485.5