/*--------------------------------*- C++ -*----------------------------------*\
| =========                 |                                                 |
| \\      /  F ield         | OpenFOAM: The Open Source CFD Toolbox           |
|  \\    /   O peration     | Version:  3.0.1                                 |
|   \\  /    A nd           | Web:      www.OpenFOAM.org                      |
|    \\/     M anipulation  |                                                 |
\*---------------------------------------------------------------------------*/
FoamFile
{
    version     2.0;
    format      ascii;
    class       surfaceScalarField;
    location    "24.4";
    object      phi;
}
// * * * * * * * * * * * * * * * * * * * * * * * * * * * * * * * * * * * * * //

dimensions      [0 3 -1 0 0 0 0];

internalField   nonuniform List<scalar> 
42423
(
0.000107166
1.75095e-05
8.93271e-05
1.78387e-05
7.09849e-05
1.83422e-05
5.23238e-05
1.8661e-05
3.37443e-05
1.85795e-05
1.52188e-05
1.85255e-05
-2.89278e-06
1.81115e-05
-2.05099e-05
1.76171e-05
-3.74125e-05
1.69026e-05
-5.34676e-05
1.60551e-05
-6.86422e-05
1.51746e-05
-8.28489e-05
1.42067e-05
-9.60382e-05
1.31893e-05
-0.000108219
1.21812e-05
-0.000119376
1.11565e-05
-0.000129538
1.01621e-05
-0.000138698
9.16051e-06
-0.000146876
8.17708e-06
-0.000154137
7.26153e-06
-0.00016049
6.35335e-06
-0.000165953
5.46238e-06
-0.000170589
4.63658e-06
-0.000174433
3.84323e-06
-0.000177508
3.07486e-06
-0.000179846
2.33835e-06
-0.000181464
1.6186e-06
-0.000182426
9.61792e-07
-0.0001827
2.73965e-07
-0.000182207
-4.93267e-07
-0.000181024
-1.18255e-06
-0.000179153
-1.87105e-06
-0.000176478
-2.67572e-06
-0.000173156
-3.322e-06
-0.000169001
-4.1544e-06
-0.000164027
-4.97478e-06
-0.00015833
-5.69681e-06
-0.000151666
-6.66338e-06
-0.000144153
-7.5136e-06
-0.000135848
-8.30462e-06
-0.000126432
-9.4161e-06
-0.000116117
-1.03155e-05
-0.00010473
-1.13863e-05
-9.22945e-05
-1.24359e-05
-7.90282e-05
-1.32664e-05
-6.47629e-05
-1.42653e-05
-4.94498e-05
-1.53132e-05
-3.34574e-05
-1.59924e-05
-1.66459e-05
-1.68115e-05
9.7217e-07
-1.76182e-05
1.89423e-05
-1.79702e-05
3.73901e-05
-1.84479e-05
5.59329e-05
-1.85429e-05
7.45273e-05
-1.85944e-05
9.29904e-05
-1.84632e-05
0.00011092
-1.79299e-05
0.000128173
-1.7253e-05
0.000144558
-1.63847e-05
0.000159748
-1.519e-05
0.00017365
-1.39024e-05
0.000185876
-1.22257e-05
0.000196373
-1.04973e-05
0.000205087
-8.71423e-06
0.00021153
-6.44333e-06
0.000215839
-4.30884e-06
0.00021794
-2.1014e-06
0.000217516
4.24041e-07
0.00021475
2.76585e-06
0.000209691
5.05937e-06
0.0002024
7.29123e-06
0.000192931
9.46864e-06
0.000181541
1.13905e-05
0.000168327
1.32138e-05
0.000153433
1.48935e-05
0.000137206
1.62275e-05
0.000119893
1.73126e-05
0.000101645
1.82483e-05
8.2892e-05
1.87527e-05
6.35757e-05
1.93162e-05
4.42601e-05
1.93156e-05
2.49442e-05
1.93159e-05
5.89431e-06
1.90499e-05
-1.27564e-05
1.86508e-05
-3.07555e-05
1.7999e-05
-4.80636e-05
1.73081e-05
-6.4472e-05
1.64084e-05
-7.99318e-05
1.54598e-05
-9.44641e-05
1.45323e-05
-0.000107819
1.33552e-05
-0.000120064
1.22443e-05
-0.000131188
1.11244e-05
-0.0001412
1.00121e-05
-0.000150071
8.87111e-06
-0.000157701
7.62932e-06
-0.000164253
6.55236e-06
-0.000169713
5.46006e-06
-0.000174123
4.41004e-06
-0.000177608
3.48459e-06
-0.000180232
2.62396e-06
-0.000182009
1.77756e-06
-0.000183073
1.06427e-06
-0.000183316
2.42504e-07
-0.000182877
-4.38888e-07
-0.000181873
-1.00405e-06
-0.000180097
-1.77615e-06
-0.000177781
-2.31582e-06
-0.00017491
-2.87119e-06
-0.000171374
-3.53571e-06
-0.000167305
-4.06955e-06
-0.000162564
-4.74057e-06
-0.000157147
-5.41674e-06
-0.000151158
-5.98968e-06
-0.000144413
-6.74503e-06
-0.000136966
-7.44628e-06
-0.000128745
-8.22187e-06
-0.000119781
-8.96412e-06
-0.000110053
-9.72798e-06
-9.9509e-05
-1.05436e-05
-8.81481e-05
-1.13609e-05
-7.59992e-05
-1.2149e-05
-6.30563e-05
-1.2943e-05
-4.93282e-05
-1.37281e-05
-3.4788e-05
-1.45403e-05
-1.95072e-05
-1.52809e-05
-3.64127e-06
-1.5866e-05
1.2828e-05
-1.64694e-05
2.98144e-05
-1.69865e-05
4.71274e-05
-1.73131e-05
6.46294e-05
-1.75021e-05
8.21231e-05
-1.74938e-05
9.93903e-05
-1.72673e-05
0.000116198
-1.68081e-05
0.000132301
-1.61024e-05
0.000147413
-1.51124e-05
0.000161265
-1.38526e-05
0.000173597
-1.23318e-05
0.000184176
-1.05787e-05
0.000192755
-8.57932e-06
0.00019917
-6.41526e-06
0.000203271
-4.10064e-06
0.000204934
-1.6637e-06
0.000204212
7.22582e-07
0.000200967
3.24447e-06
0.000195267
5.70026e-06
0.000187275
7.99214e-06
0.00017711
1.01651e-05
0.000164983
1.21262e-05
0.000151142
1.3841e-05
0.000135758
1.53847e-05
0.000119133
1.6625e-05
0.000101594
1.75383e-05
8.34237e-05
1.81705e-05
6.49159e-05
1.85077e-05
4.63573e-05
1.85587e-05
2.80464e-05
1.83109e-05
1.01565e-05
1.78899e-05
-7.15756e-06
1.73141e-05
-2.37756e-05
1.66181e-05
-3.95866e-05
1.5811e-05
-5.45106e-05
1.4924e-05
-6.84739e-05
1.39632e-05
-8.15304e-05
1.30566e-05
-9.35902e-05
1.20598e-05
-0.000104776
1.11862e-05
-0.000115028
1.02516e-05
-0.000124393
9.36524e-06
-0.000132865
8.47134e-06
-0.0001405
7.63488e-06
-0.000147276
6.7763e-06
-0.000153231
5.95481e-06
-0.000158406
5.17524e-06
-0.000162871
4.46518e-06
-0.000166642
3.77065e-06
-0.000169791
3.14918e-06
-0.000172197
2.40611e-06
-0.000173973
1.77643e-06
-0.000175051
1.07721e-06
-0.000175463
4.12195e-07
-0.000175376
-8.68676e-08
-0.000174503
-8.7324e-07
-0.000173
-1.50306e-06
-0.000170882
-2.11733e-06
-0.00016806
-2.82279e-06
-0.000164577
-3.48241e-06
-0.000160317
-4.25994e-06
-0.000155284
-5.03296e-06
-0.000149465
-5.81902e-06
-0.000142752
-6.71357e-06
-0.000135247
-7.50435e-06
-0.000126809
-8.43802e-06
-0.000117453
-9.35637e-06
-0.000107153
-1.03005e-05
-9.59253e-05
-1.12273e-05
-8.37554e-05
-1.21699e-05
-7.06836e-05
-1.30718e-05
-5.67298e-05
-1.39539e-05
-4.1983e-05
-1.47468e-05
-2.64925e-05
-1.54906e-05
-1.03181e-05
-1.61744e-05
6.36219e-06
-1.66804e-05
2.35156e-05
-1.71534e-05
4.09401e-05
-1.74245e-05
5.85295e-05
-1.75894e-05
7.60902e-05
-1.75608e-05
9.34508e-05
-1.73606e-05
0.000110384
-1.69334e-05
0.000126705
-1.63212e-05
0.000142207
-1.55015e-05
0.000156639
-1.44326e-05
0.000169802
-1.31632e-05
0.000181471
-1.1669e-05
0.000191458
-9.98702e-06
0.000199545
-8.08717e-06
0.00020557
-6.02494e-06
0.00020942
-3.84945e-06
0.000211001
-1.58075e-06
0.000210339
6.61901e-07
0.000207346
2.99275e-06
0.000202001
5.34472e-06
0.000194465
7.53581e-06
0.000184878
9.58759e-06
0.000173356
1.1522e-05
0.000160203
1.31525e-05
0.000145581
1.46222e-05
0.000129891
1.56903e-05
0.000113263
1.66272e-05
9.59067e-05
1.73567e-05
7.82031e-05
1.77036e-05
6.02299e-05
1.79732e-05
4.23419e-05
1.7888e-05
2.46422e-05
1.76996e-05
7.31215e-06
1.73301e-05
-9.40946e-06
1.67216e-05
-2.54595e-05
1.60501e-05
-4.07244e-05
1.52649e-05
-5.52011e-05
1.44767e-05
-6.87534e-05
1.35523e-05
-8.1359e-05
1.26056e-05
-9.29747e-05
1.16157e-05
-0.000103638
1.06633e-05
-0.00011324
9.60179e-06
-0.000121879
8.63954e-06
-0.000129521
7.6412e-06
-0.000136305
6.78433e-06
-0.000142047
5.74198e-06
-0.000146913
4.8662e-06
-0.000150917
4.00387e-06
-0.00015405
3.13268e-06
-0.000156507
2.45756e-06
-0.000158188
1.68128e-06
-0.000159118
9.29697e-07
-0.000159454
3.36268e-07
-0.000159231
-2.23484e-07
-0.000158318
-9.13127e-07
-0.00015668
-1.63793e-06
-0.000154489
-2.19087e-06
-0.000151679
-2.81046e-06
-0.000148216
-3.46278e-06
-0.000144122
-4.09343e-06
-0.000139379
-4.74376e-06
-0.00013396
-5.41884e-06
-0.000127843
-6.11659e-06
-0.000121016
-6.82706e-06
-0.000113416
-7.59984e-06
-0.000105099
-8.31702e-06
-9.59622e-05
-9.13712e-06
-8.59698e-05
-9.99242e-06
-7.52093e-05
-1.07605e-05
-6.35067e-05
-1.17026e-05
-5.10042e-05
-1.25026e-05
-3.75825e-05
-1.34217e-05
-2.33751e-05
-1.42074e-05
-8.41281e-06
-1.49623e-05
7.33138e-06
-1.57442e-05
2.36979e-05
-1.63666e-05
4.06214e-05
-1.69235e-05
5.79658e-05
-1.73445e-05
7.55569e-05
-1.75911e-05
9.32124e-05
-1.76556e-05
0.000110713
-1.75005e-05
0.00012794
-1.72276e-05
0.000144619
-1.66792e-05
0.000160564
-1.59441e-05
0.000175524
-1.49606e-05
0.000189191
-1.36673e-05
0.000201375
-1.21836e-05
0.000211941
-1.05662e-05
0.000220525
-8.58367e-06
0.000227105
-6.5803e-06
0.000231501
-4.39609e-06
0.000233699
-2.19848e-06
0.000233632
6.75974e-08
0.000231139
2.49269e-06
0.000226363
4.77633e-06
0.00021948
6.88235e-06
0.000210545
8.93537e-06
0.000199677
1.0868e-05
0.000187039
1.26378e-05
0.000172896
1.41425e-05
0.000157562
1.53347e-05
0.000141107
1.64546e-05
0.00012378
1.73274e-05
0.000105925
1.78546e-05
8.78103e-05
1.81148e-05
6.95384e-05
1.8272e-05
5.12999e-05
1.82384e-05
3.33735e-05
1.79265e-05
1.60464e-05
1.73271e-05
-7.47026e-07
1.67935e-05
-1.67858e-05
1.60387e-05
-3.1975e-05
1.51893e-05
-4.62077e-05
1.42327e-05
-5.94066e-05
1.31989e-05
-7.154e-05
1.21334e-05
-8.25635e-05
1.10235e-05
-9.2488e-05
9.92451e-06
-0.000101307
8.81948e-06
-0.00010902
7.71228e-06
-0.000115688
6.66834e-06
-0.000121353
5.66446e-06
-0.00012603
4.67735e-06
-0.000129764
3.73417e-06
-0.000132637
2.87333e-06
-0.000134711
2.07325e-06
-0.000136015
1.30434e-06
-0.000136594
5.78626e-07
-0.000136466
-1.27426e-07
-0.000135637
-8.29264e-07
-0.000134154
-1.48302e-06
-0.000132082
-2.07231e-06
-0.000129442
-2.63974e-06
-0.000126191
-3.25071e-06
-0.000122387
-3.80416e-06
-0.000118022
-4.36473e-06
-0.000113084
-4.93833e-06
-0.000107567
-5.51649e-06
-0.000101365
-6.20254e-06
-9.45157e-05
-6.84928e-06
-8.71577e-05
-7.35797e-06
-7.89968e-05
-8.16096e-06
-7.00518e-05
-8.94503e-06
-6.05696e-05
-9.48224e-06
-5.02429e-05
-1.03267e-05
-3.92443e-05
-1.09986e-05
-2.72765e-05
-1.19678e-05
-1.46568e-05
-1.26198e-05
-1.39613e-06
-1.32607e-05
1.26834e-05
-1.40796e-05
2.74847e-05
-1.48014e-05
4.2836e-05
-1.53513e-05
5.87831e-05
-1.59472e-05
7.5092e-05
-1.63089e-05
9.17466e-05
-1.66547e-05
0.000108412
-1.66658e-05
0.000124822
-1.64092e-05
0.000140923
-1.6101e-05
0.000156372
-1.545e-05
-1.48468e-05
0.000107189
3.50261e-05
8.93435e-05
3.56847e-05
7.09933e-05
3.66924e-05
5.2324e-05
3.73303e-05
3.37352e-05
3.71683e-05
1.52023e-05
3.70585e-05
-2.91467e-06
3.62285e-05
-2.05367e-05
3.52391e-05
-3.74444e-05
3.38102e-05
-5.35059e-05
3.21166e-05
-6.86878e-05
3.03565e-05
-8.28968e-05
2.84156e-05
-9.60906e-05
2.63832e-05
-0.000108275
2.43657e-05
-0.000119429
2.23107e-05
-0.00012959
2.03225e-05
-0.000138751
1.83213e-05
-0.000146931
1.63574e-05
-0.000154195
1.45252e-05
-0.000160547
1.27056e-05
-0.000166014
1.09291e-05
-0.000170656
9.27853e-06
-0.000174495
7.68218e-06
-0.000177562
6.14216e-06
-0.000179908
4.68455e-06
-0.000181536
3.24654e-06
-0.000182488
1.91382e-06
-0.000182754
5.40064e-07
-0.000182259
-9.88129e-07
-0.000181078
-2.36421e-06
-0.000179207
-3.74218e-06
-0.000176534
-5.34803e-06
-0.000173212
-6.64446e-06
-0.000169064
-8.30241e-06
-0.000164085
-9.95422e-06
-0.000158389
-1.13921e-05
-0.000151728
-1.33243e-05
-0.000144214
-1.50284e-05
-0.000135908
-1.661e-05
-0.000126496
-1.88288e-05
-0.000116179
-2.06322e-05
-0.000104789
-2.27769e-05
-9.23548e-05
-2.48698e-05
-7.90852e-05
-2.6536e-05
-6.48144e-05
-2.85363e-05
-4.95019e-05
-3.06258e-05
-3.35038e-05
-3.19906e-05
-1.66797e-05
-3.36358e-05
9.40006e-07
-3.5238e-05
1.89159e-05
-3.59463e-05
3.73771e-05
-3.69093e-05
5.59293e-05
-3.70953e-05
7.45306e-05
-3.71958e-05
9.30107e-05
-3.69435e-05
0.000110959
-3.58782e-05
0.00012821
-3.45046e-05
0.000144606
-3.27808e-05
0.000159822
-3.04062e-05
0.000173737
-2.78168e-05
0.000185961
-2.44503e-05
0.00019647
-2.10068e-05
0.0002052
-1.74438e-05
0.000211643
-1.28869e-05
0.000215962
-8.62773e-06
0.000218068
-4.20735e-06
0.000217639
8.52831e-07
0.000214876
5.5292e-06
0.000209818
1.01166e-05
0.00020252
1.45891e-05
0.000193044
1.8945e-05
0.000181643
2.27913e-05
0.000168415
2.64415e-05
0.000153512
2.97963e-05
0.000137288
3.2452e-05
0.000119943
3.46577e-05
0.000101679
3.65115e-05
8.29196e-05
3.75125e-05
6.35823e-05
3.86536e-05
4.42572e-05
3.86407e-05
2.49201e-05
3.8653e-05
5.86244e-06
3.81076e-05
-1.28133e-05
3.73265e-05
-3.0831e-05
3.60167e-05
-4.81506e-05
3.46277e-05
-6.45739e-05
3.28317e-05
-8.00328e-05
3.09188e-05
-9.45383e-05
2.90378e-05
-0.000107922
2.67385e-05
-0.000120173
2.44953e-05
-0.000131297
2.22487e-05
-0.000141296
2.00109e-05
-0.000150181
1.77564e-05
-0.000157804
1.52528e-05
-0.000164353
1.31004e-05
-0.000169805
1.09121e-05
-0.000174218
8.82356e-06
-0.000177724
6.99038e-06
-0.000180317
5.21746e-06
-0.000182099
3.55872e-06
-0.000183156
2.12138e-06
-0.000183394
4.8069e-07
-0.000182949
-8.84308e-07
-0.000181939
-2.01333e-06
-0.000180153
-3.56222e-06
-0.000177836
-4.63312e-06
-0.000174969
-5.73784e-06
-0.000171432
-7.0728e-06
-0.000167359
-8.14329e-06
-0.00016262
-9.47895e-06
-0.000157218
-1.08188e-05
-0.000151214
-1.19941e-05
-0.000144466
-1.34933e-05
-0.000137015
-1.48966e-05
-0.00012879
-1.64477e-05
-0.000119823
-1.79302e-05
-0.000110095
-1.94563e-05
-9.9554e-05
-2.10849e-05
-8.81857e-05
-2.27294e-05
-7.60271e-05
-2.43077e-05
-6.30816e-05
-2.58887e-05
-4.93568e-05
-2.74531e-05
-3.48124e-05
-2.90848e-05
-1.95345e-05
-3.0559e-05
-3.66333e-06
-3.17374e-05
1.28282e-05
-3.29611e-05
2.98194e-05
-3.39778e-05
4.71434e-05
-3.46373e-05
6.46461e-05
-3.5005e-05
8.2152e-05
-3.49999e-05
9.94414e-05
-3.4557e-05
0.000116251
-3.36176e-05
0.000132368
-3.22199e-05
0.000147499
-3.02436e-05
0.000161357
-2.77107e-05
0.000173693
-2.46676e-05
0.000184285
-2.11715e-05
0.000192876
-1.71697e-05
0.00019929
-1.28303e-05
0.000203401
-8.21135e-06
0.00020507
-3.33307e-06
0.000204325
1.46747e-06
0.000201078
6.49212e-06
0.00019537
1.1408e-05
0.000187365
1.59966e-05
0.000177182
2.03482e-05
0.00016504
2.42685e-05
0.000151186
2.76947e-05
0.000135796
3.07742e-05
0.000119143
3.3278e-05
0.000101591
3.50903e-05
8.34047e-05
3.6357e-05
6.48849e-05
3.70275e-05
4.63052e-05
3.71383e-05
2.7983e-05
3.66331e-05
1.00877e-05
3.57852e-05
-7.2334e-06
3.46352e-05
-2.38486e-05
3.32333e-05
-3.96909e-05
3.16533e-05
-5.46102e-05
2.98433e-05
-6.85637e-05
2.79167e-05
-8.16188e-05
2.61117e-05
-9.369e-05
2.4131e-05
-0.000104874
2.237e-05
-0.000115129
2.05064e-05
-0.00012449
1.87272e-05
-0.00013296
1.69405e-05
-0.000140586
1.52609e-05
-0.00014737
1.35609e-05
-0.000153327
1.19114e-05
-0.00015849
1.0338e-05
-0.000162946
8.92178e-06
-0.000166719
7.54392e-06
-0.00016987
6.2993e-06
-0.000172275
4.8113e-06
-0.000174056
3.55803e-06
-0.000175128
2.14853e-06
-0.000175528
8.12346e-07
-0.000175444
-1.70401e-07
-0.00017457
-1.74768e-06
-0.000173051
-3.02156e-06
-0.000170935
-4.23363e-06
-0.000168125
-5.63341e-06
-0.000164638
-6.96902e-06
-0.00016038
-8.51786e-06
-0.000155339
-1.00742e-05
-0.000149515
-1.16431e-05
-0.000142805
-1.34231e-05
-0.000135303
-1.50068e-05
-0.000126863
-1.68778e-05
-0.000117508
-1.87118e-05
-0.000107203
-2.06052e-05
-9.59649e-05
-2.24657e-05
-8.37918e-05
-2.43431e-05
-7.07189e-05
-2.61447e-05
-5.67603e-05
-2.79126e-05
-4.2007e-05
-2.95001e-05
-2.65126e-05
-3.09851e-05
-1.03344e-05
-3.23527e-05
6.34713e-06
-3.3362e-05
2.35121e-05
-3.43185e-05
4.09543e-05
-3.48668e-05
5.85512e-05
-3.51865e-05
7.61205e-05
-3.51302e-05
9.34891e-05
-3.47293e-05
0.000110435
-3.38795e-05
0.000126763
-3.26489e-05
0.000142278
-3.10166e-05
0.000156729
-2.88841e-05
0.000169897
-2.63314e-05
0.000181565
-2.33371e-05
0.000191561
-1.99829e-05
0.00019966
-1.61863e-05
0.000205682
-1.2047e-05
0.000209548
-7.71562e-06
0.000211134
-3.16676e-06
0.000210443
1.35302e-06
0.000207451
5.98522e-06
0.000202101
1.06942e-05
0.000194549
1.50879e-05
0.000184946
1.91907e-05
0.000173418
2.30499e-05
0.000160257
2.63133e-05
0.000145612
2.9267e-05
0.00012992
3.13821e-05
0.000113268
3.32799e-05
9.58897e-05
3.47347e-05
7.81699e-05
3.54233e-05
6.01909e-05
3.59523e-05
4.2288e-05
3.57909e-05
2.45831e-05
3.54045e-05
7.24042e-06
3.46728e-05
-9.48521e-06
3.34473e-05
-2.55468e-05
3.21117e-05
-4.08214e-05
3.05395e-05
-5.5283e-05
2.89382e-05
-6.88436e-05
2.71128e-05
-8.14609e-05
2.5223e-05
-9.30773e-05
2.32321e-05
-0.000103738
2.13239e-05
-0.000113333
1.91966e-05
-0.000121972
1.72792e-05
-0.000129635
1.53036e-05
-0.000136397
1.35462e-05
-0.000142131
1.1476e-05
-0.000146996
9.73192e-06
-0.000150999
8.00648e-06
-0.000154127
6.26063e-06
-0.000156589
4.91925e-06
-0.000158268
3.36058e-06
-0.000159193
1.85529e-06
-0.000159523
6.66242e-07
-0.000159302
-4.44582e-07
-0.000158387
-1.82805e-06
-0.000156739
-3.28598e-06
-0.000154547
-4.38301e-06
-0.000151748
-5.60968e-06
-0.000148275
-6.93545e-06
-0.00014418
-8.18909e-06
-0.000139431
-9.49293e-06
-0.000134007
-1.08424e-05
-0.000127889
-1.22346e-05
-0.000121067
-1.36494e-05
-0.000113476
-1.51904e-05
-0.000105154
-1.66391e-05
-9.60048e-05
-1.82866e-05
-8.60024e-05
-1.99949e-05
-7.52518e-05
-2.15111e-05
-6.35547e-05
-2.33998e-05
-5.10475e-05
-2.50099e-05
-3.7623e-05
-2.68463e-05
-2.34165e-05
-2.8414e-05
-8.44417e-06
-2.99347e-05
7.30992e-06
-3.14984e-05
2.36777e-05
-3.27345e-05
4.06154e-05
-3.38613e-05
5.79745e-05
-3.47037e-05
7.55541e-05
-3.51708e-05
9.32289e-05
-3.53305e-05
0.000110741
-3.5013e-05
0.000127979
-3.4465e-05
0.000144669
-3.337e-05
0.000160617
-3.1892e-05
0.00017559
-2.99335e-05
0.00018928
-2.73571e-05
0.000201473
-2.43766e-05
0.000212041
-2.11345e-05
0.000220629
-1.71713e-05
0.000227211
-1.31627e-05
0.000231614
-8.79945e-06
0.000233835
-4.41912e-06
0.00023376
1.4245e-07
0.00023126
4.99256e-06
0.000226487
9.54883e-06
0.000219606
1.37638e-05
0.000210661
1.78797e-05
0.000199783
2.17463e-05
0.000187135
2.52863e-05
0.000172982
2.82947e-05
0.000157637
3.06799e-05
0.000141172
3.29194e-05
0.000123829
3.46705e-05
0.000105963
3.57211e-05
8.78379e-05
3.62396e-05
6.95565e-05
3.65534e-05
5.13037e-05
3.64913e-05
3.33681e-05
3.58621e-05
1.60339e-05
3.46612e-05
-7.67984e-07
3.35953e-05
-1.68149e-05
3.20856e-05
-3.20104e-05
3.03848e-05
-4.62486e-05
2.84708e-05
-5.94519e-05
2.64023e-05
-7.15923e-05
2.42738e-05
-8.26237e-05
2.20549e-05
-9.25452e-05
1.9846e-05
-0.000101363
1.76369e-05
-0.00010908
1.54293e-05
-0.000115752
1.33404e-05
-0.000121412
1.13251e-05
-0.000126084
9.34924e-06
-0.000129822
7.47182e-06
-0.0001327
5.75102e-06
-0.000134768
4.14164e-06
-0.000136065
2.6015e-06
-0.000136644
1.15785e-06
-0.000136513
-2.59076e-07
-0.000135683
-1.65893e-06
-0.000134197
-2.96893e-06
-0.000132122
-4.14706e-06
-0.000129484
-5.2778e-06
-0.000126232
-6.50279e-06
-0.000122425
-7.61134e-06
-0.000118071
-8.71864e-06
-0.000113123
-9.88648e-06
-0.000107607
-1.10323e-05
-0.000101405
-1.24044e-05
-9.45551e-05
-1.36997e-05
-8.71931e-05
-1.472e-05
-7.90337e-05
-1.63204e-05
-7.00899e-05
-1.78888e-05
-6.06108e-05
-1.89615e-05
-5.02801e-05
-2.06574e-05
-3.92728e-05
-2.2006e-05
-2.73108e-05
-2.39299e-05
-1.46886e-05
-2.52421e-05
-1.4292e-06
-2.65201e-05
1.26441e-05
-2.8153e-05
2.74522e-05
-2.96095e-05
4.28092e-05
-3.07085e-05
5.87535e-05
-3.18916e-05
7.50694e-05
-3.26249e-05
9.17228e-05
-3.33083e-05
0.000108398
-3.33411e-05
0.000124825
-3.28364e-05
0.000140936
-3.22117e-05
0.000156403
-3.09177e-05
-2.97067e-05
0.000107234
5.256e-05
8.9371e-05
5.35475e-05
7.10043e-05
5.50591e-05
5.23189e-05
5.60157e-05
3.37126e-05
5.57746e-05
1.51666e-05
5.56045e-05
-2.96403e-06
5.43591e-05
-2.05976e-05
5.28727e-05
-3.75136e-05
5.07263e-05
-5.35817e-05
4.81847e-05
-6.87691e-05
4.55439e-05
-8.29837e-05
4.26302e-05
-9.61809e-05
3.95804e-05
-0.000108366
3.65505e-05
-0.000119521
3.3466e-05
-0.000129687
3.04881e-05
-0.000138853
2.74874e-05
-0.000147033
2.45377e-05
-0.000154295
2.17875e-05
-0.000160648
1.90588e-05
-0.000166113
1.63933e-05
-0.000170749
1.39153e-05
-0.000174592
1.15251e-05
-0.00017766
9.20995e-06
-0.000180006
7.03037e-06
-0.000181623
4.86366e-06
-0.000182561
2.85203e-06
-0.000182821
8.00273e-07
-0.000182315
-1.4947e-06
-0.000181133
-3.54645e-06
-0.000179264
-5.61041e-06
-0.000176597
-8.01587e-06
-0.00017327
-9.97163e-06
-0.00016912
-1.24519e-05
-0.000164148
-1.49268e-05
-0.000158457
-1.70831e-05
-0.000151801
-1.99798e-05
-0.000144285
-2.25447e-05
-0.000135982
-2.49131e-05
-0.000126575
-2.82359e-05
-0.000116255
-3.09519e-05
-0.000104865
-3.41676e-05
-9.2435e-05
-3.72995e-05
-7.91601e-05
-3.9811e-05
-6.48853e-05
-4.28113e-05
-4.95729e-05
-4.59383e-05
-3.35636e-05
-4.80001e-05
-1.67274e-05
-5.04722e-05
8.99569e-07
-5.28651e-05
1.88834e-05
-5.39302e-05
3.73571e-05
-5.53831e-05
5.59221e-05
-5.56605e-05
7.45394e-05
-5.58132e-05
9.30341e-05
-5.54383e-05
0.000110999
-5.38428e-05
0.000128271
-5.17774e-05
0.000144679
-4.91883e-05
0.000159905
-4.56328e-05
0.000173849
-4.1761e-05
0.000186082
-3.66829e-05
0.000196603
-3.15283e-05
0.000205338
-2.61785e-05
0.000211789
-1.93383e-05
0.000216114
-1.29529e-05
0.000218233
-6.32681e-06
0.000217804
1.28262e-06
0.000215046
8.28618e-06
0.000209993
1.51697e-05
0.000202685
2.18975e-05
0.000193199
2.84312e-05
0.000181784
3.42059e-05
0.000168534
3.9691e-05
0.000153614
4.47164e-05
0.000137394
4.86718e-05
0.000120007
5.20449e-05
0.000101719
5.47994e-05
8.29488e-05
5.62831e-05
6.35787e-05
5.80236e-05
4.42451e-05
5.79743e-05
2.48806e-05
5.80175e-05
5.81486e-06
5.71734e-05
-1.28798e-05
5.60211e-05
-3.09215e-05
5.40584e-05
-4.82471e-05
5.19533e-05
-6.46789e-05
4.92636e-05
-8.01432e-05
4.63831e-05
-9.46457e-05
4.35402e-05
-0.000108041
4.01335e-05
-0.000120287
3.67418e-05
-0.00013141
3.33717e-05
-0.000141414
3.0015e-05
-0.00015031
2.66523e-05
-0.000157923
2.28653e-05
-0.000164465
1.96426e-05
-0.000169918
1.63653e-05
-0.000174326
1.32311e-05
-0.000177837
1.05021e-05
-0.000180402
7.78212e-06
-0.000182204
5.36048e-06
-0.000183268
3.18551e-06
-0.000183496
7.08835e-07
-0.000183039
-1.34163e-06
-0.000182031
-3.02081e-06
-0.000180227
-5.36635e-06
-0.000177901
-6.95933e-06
-0.000175045
-8.59378e-06
-0.000171518
-1.06002e-05
-0.000167449
-1.22119e-05
-0.000162706
-1.42219e-05
-0.000157319
-1.62061e-05
-0.000151305
-1.80078e-05
-0.000144561
-2.02376e-05
-0.000137111
-2.23468e-05
-0.000128884
-2.46746e-05
-0.000119919
-2.68951e-05
-0.000110195
-2.91804e-05
-9.9645e-05
-3.16352e-05
-8.82801e-05
-3.40944e-05
-7.6128e-05
-3.64599e-05
-6.3173e-05
-3.88438e-05
-4.94429e-05
-4.11834e-05
-3.49019e-05
-4.36259e-05
-1.96149e-05
-4.58462e-05
-3.74148e-06
-4.7611e-05
1.27645e-05
-4.94672e-05
2.97702e-05
-5.09838e-05
4.71091e-05
-5.19763e-05
6.46378e-05
-5.25339e-05
8.21563e-05
-5.25186e-05
9.94593e-05
-5.186e-05
0.000116295
-5.04531e-05
0.000132427
-4.83529e-05
0.000147582
-4.53985e-05
0.000161474
-4.16031e-05
0.000173821
-3.70145e-05
0.000184427
-3.17779e-05
0.000193037
-2.5779e-05
0.000199482
-1.92758e-05
0.000203579
-1.2308e-05
0.000205258
-5.01236e-06
0.000204493
2.23239e-06
0.000201237
9.74801e-06
0.000195528
1.71167e-05
0.000187516
2.40089e-05
0.000177309
3.05542e-05
0.000165139
3.64384e-05
0.000151264
4.157e-05
0.000135827
4.62116e-05
0.000119189
4.99157e-05
0.000101618
5.26608e-05
8.33746e-05
5.46007e-05
6.4854e-05
5.5548e-05
4.6261e-05
5.57314e-05
2.79255e-05
5.49685e-05
1.00101e-05
5.37006e-05
-7.32057e-06
5.19659e-05
-2.39431e-05
4.98558e-05
-3.97935e-05
4.75036e-05
-5.47171e-05
4.4767e-05
-6.86654e-05
4.1865e-05
-8.17136e-05
3.91599e-05
-9.37801e-05
3.61976e-05
-0.000104961
3.35511e-05
-0.000115218
3.07636e-05
-0.000124581
2.80902e-05
-0.000133053
2.54118e-05
-0.000140674
2.28818e-05
-0.000147462
2.03488e-05
-0.000153425
1.78753e-05
-0.000158594
1.55068e-05
-0.000163024
1.33514e-05
-0.000166794
1.13142e-05
-0.000169958
9.46301e-06
-0.000172365
7.21825e-06
-0.000174147
5.34032e-06
-0.000175231
3.23208e-06
-0.000175619
1.20103e-06
-0.000175533
-2.56472e-07
-0.000174649
-2.63254e-06
-0.000173111
-4.55889e-06
-0.000171028
-6.31666e-06
-0.000168226
-8.43611e-06
-0.000164731
-1.04636e-05
-0.000160485
-1.27638e-05
-0.000155439
-1.51205e-05
-0.000149618
-1.7464e-05
-0.000142909
-2.01323e-05
-0.000135402
-2.2514e-05
-0.000126967
-2.53129e-05
-0.000117614
-2.80641e-05
-0.000107317
-3.09026e-05
-9.60823e-05
-3.37004e-05
-8.38947e-05
-3.65308e-05
-7.08118e-05
-3.92277e-05
-5.68576e-05
-4.18668e-05
-4.20934e-05
-4.42644e-05
-2.65885e-05
-4.64901e-05
-1.04085e-05
-4.85328e-05
6.29652e-06
-5.00672e-05
2.34608e-05
-5.14829e-05
4.09166e-05
-5.23227e-05
5.85352e-05
-5.28052e-05
7.61165e-05
-5.27116e-05
9.35015e-05
-5.21143e-05
0.000110472
-5.08498e-05
0.000126816
-4.89938e-05
0.000142342
-4.65419e-05
0.000156808
-4.33507e-05
0.000170007
-3.95302e-05
0.000181694
-3.50246e-05
0.000191699
-2.99881e-05
0.00019981
-2.42967e-05
0.000205843
-1.80802e-05
0.000209704
-1.15769e-05
0.000211303
-4.76536e-06
0.000210601
2.05454e-06
0.000207594
8.99171e-06
0.000202244
1.60449e-05
0.000194685
2.26469e-05
0.000185071
2.88048e-05
0.00017352
3.46003e-05
0.000160339
3.94946e-05
0.000145674
4.39319e-05
0.000129952
4.71037e-05
0.000113296
4.99361e-05
9.58913e-05
5.21393e-05
7.81473e-05
5.31674e-05
6.01559e-05
5.39437e-05
4.22313e-05
5.37155e-05
2.45204e-05
5.31154e-05
7.15616e-06
5.20371e-05
-9.57598e-06
5.01794e-05
-2.56381e-05
4.81738e-05
-4.09122e-05
4.58137e-05
-5.53625e-05
4.33886e-05
-6.89291e-05
4.06794e-05
-8.15623e-05
3.78563e-05
-9.31845e-05
3.48543e-05
-0.000103843
3.19825e-05
-0.000113432
2.87851e-05
-0.000122073
2.59204e-05
-0.000129744
2.29746e-05
-0.000136505
2.03071e-05
-0.000142243
1.72145e-05
-0.000147089
1.45773e-05
-0.000151083
1.20004e-05
-0.000154215
9.39281e-06
-0.000156691
7.39574e-06
-0.000158362
5.03091e-06
-0.00015929
2.78352e-06
-0.000159611
9.86974e-07
-0.000159386
-6.69666e-07
-0.000158472
-2.74139e-06
-0.000156835
-4.92354e-06
-0.000154621
-6.59722e-06
-0.000151835
-8.39515e-06
-0.000148359
-1.0411e-05
-0.000144269
-1.22797e-05
-0.000139524
-1.42375e-05
-0.000134103
-1.62633e-05
-0.000127959
-1.83793e-05
-0.000121156
-2.04521e-05
-0.000113572
-2.27743e-05
-0.000105257
-2.49546e-05
-9.61134e-05
-2.743e-05
-8.61019e-05
-3.00064e-05
-7.53533e-05
-3.22597e-05
-6.36508e-05
-3.51024e-05
-5.11123e-05
-3.75485e-05
-3.77228e-05
-4.02359e-05
-2.35112e-05
-4.26257e-05
-8.51214e-06
-4.49338e-05
7.23977e-06
-4.72504e-05
2.36254e-05
-4.91202e-05
4.05864e-05
-5.08224e-05
5.79487e-05
-5.20661e-05
7.55336e-05
-5.27558e-05
9.32165e-05
-5.30134e-05
0.000110746
-5.25428e-05
0.000128007
-5.17258e-05
0.000144716
-5.00789e-05
0.000160688
-4.7864e-05
0.000175671
-4.49168e-05
0.000189372
-4.10587e-05
0.000201592
-3.65962e-05
0.00021218
-3.17224e-05
0.000220763
-2.57548e-05
0.000227361
-1.97602e-05
0.000231766
-1.32053e-05
0.000233999
-6.65173e-06
0.00023393
2.10737e-07
0.000231417
7.50572e-06
0.000226653
1.43131e-05
0.000219778
2.06388e-05
0.000210813
2.68446e-05
0.000199914
3.26449e-05
0.00018725
3.79506e-05
0.000173088
4.24567e-05
0.000157721
4.60471e-05
0.00014124
4.93995e-05
0.000123872
5.20389e-05
0.00010599
5.36028e-05
8.78468e-05
5.4383e-05
6.95525e-05
5.48476e-05
5.12769e-05
5.47669e-05
3.33328e-05
5.38061e-05
1.59857e-05
5.20084e-05
-8.29922e-07
5.0411e-05
-1.6889e-05
4.81447e-05
-3.20922e-05
4.5588e-05
-4.63365e-05
4.27152e-05
-5.95457e-05
3.96116e-05
-7.16915e-05
3.64195e-05
-8.27241e-05
3.30875e-05
-9.26439e-05
2.97658e-05
-0.000101466
2.64585e-05
-0.000109184
2.31475e-05
-0.000115847
2.00037e-05
-0.000121504
1.69825e-05
-0.000126178
1.40232e-05
-0.000129914
1.12075e-05
-0.000132781
8.61782e-06
-0.000134846
6.20673e-06
-0.000136146
3.90152e-06
-0.000136727
1.73853e-06
-0.000136572
-4.13272e-07
-0.000135736
-2.49519e-06
-0.000134241
-4.46419e-06
-0.000132166
-6.22188e-06
-0.00012953
-7.91352e-06
-0.000126273
-9.76028e-06
-0.00012247
-1.14147e-05
-0.000118139
-1.30495e-05
-0.000113167
-1.48583e-05
-0.000107651
-1.65482e-05
-0.000101458
-1.85971e-05
-9.46017e-05
-2.05564e-05
-8.72393e-05
-2.20825e-05
-7.90842e-05
-2.44755e-05
-7.01358e-05
-2.68372e-05
-6.06507e-05
-2.84466e-05
-5.03297e-05
-3.09785e-05
-3.9334e-05
-3.30019e-05
-2.73687e-05
-3.58952e-05
-1.47419e-05
-3.7869e-05
-1.4746e-06
-3.97875e-05
1.26045e-05
-4.22322e-05
2.74079e-05
-4.44129e-05
4.27665e-05
-4.60671e-05
5.87119e-05
-4.78371e-05
7.50324e-05
-4.89455e-05
9.17006e-05
-4.99765e-05
0.000108386
-5.00267e-05
0.000124829
-4.9279e-05
0.000140968
-4.8351e-05
0.000156465
-4.64147e-05
-4.45932e-05
0.0001073
7.01197e-05
8.94123e-05
7.14356e-05
7.10207e-05
7.34506e-05
5.23112e-05
7.47252e-05
3.36786e-05
7.44073e-05
1.51129e-05
7.41702e-05
-3.03847e-06
7.25104e-05
-2.06899e-05
7.05241e-05
-3.76206e-05
6.7657e-05
-5.37007e-05
6.42647e-05
-6.88972e-05
6.07404e-05
-8.31188e-05
5.68519e-05
-9.6319e-05
5.27806e-05
-0.000108509
4.87402e-05
-0.000119668
4.46256e-05
-0.000129837
4.06563e-05
-0.000139004
3.6655e-05
-0.000147189
3.27224e-05
-0.000154449
2.90477e-05
-0.000160802
2.54117e-05
-0.000166274
2.18651e-05
-0.000170905
1.85465e-05
-0.000174745
1.53653e-05
-0.000177811
1.22756e-05
-0.000180155
9.375e-06
-0.000181771
6.47884e-06
-0.000182695
3.77629e-06
-0.000182934
1.03896e-06
-0.000182399
-2.0298e-06
-0.000181215
-4.72983e-06
-0.000179351
-7.47412e-06
-0.000176694
-1.06732e-05
-0.000173357
-1.33091e-05
-0.000169207
-1.66021e-05
-0.000164243
-1.98907e-05
-0.000158557
-2.27685e-05
-0.000151911
-2.66266e-05
-0.000144392
-3.00631e-05
-0.000136092
-3.3213e-05
-0.000126694
-3.76343e-05
-0.00011637
-4.12763e-05
-0.00010498
-4.55577e-05
-9.2556e-05
-4.97234e-05
-7.92736e-05
-5.30935e-05
-6.49924e-05
-5.70926e-05
-4.96801e-05
-6.12507e-05
-3.36549e-05
-6.40253e-05
-1.68006e-05
-6.73266e-05
8.37821e-07
-7.05036e-05
1.88327e-05
-7.19252e-05
3.7321e-05
-7.38716e-05
5.59045e-05
-7.42441e-05
7.45443e-05
-7.44531e-05
9.30724e-05
-7.39666e-05
0.00011106
-7.18302e-05
0.000128347
-6.9065e-05
0.000144785
-6.56261e-05
0.000160036
-6.08846e-05
0.000174003
-5.57277e-05
0.00018625
-4.89303e-05
0.000196813
-4.20916e-05
0.000205541
-3.49061e-05
0.000212005
-2.58024e-05
0.000216345
-1.72933e-05
0.000218472
-8.45349e-06
0.000218047
1.70702e-06
0.00021531
1.10229e-05
0.000210258
2.02223e-05
0.000202929
2.92265e-05
0.000193427
3.7933e-05
0.000181995
4.56381e-05
0.000168712
5.29733e-05
0.000153764
5.96651e-05
0.000137519
6.49166e-05
0.000120096
6.94679e-05
0.000101776
7.31193e-05
8.29768e-05
7.5082e-05
6.35709e-05
7.74295e-05
4.42207e-05
7.73245e-05
2.48165e-05
7.74216e-05
5.74246e-06
7.62474e-05
-1.29761e-05
7.47397e-05
-3.10576e-05
7.21399e-05
-4.8391e-05
6.92868e-05
-6.48347e-05
6.57072e-05
-8.03113e-05
6.18597e-05
-9.48145e-05
5.80435e-05
-0.000108222
5.35414e-05
-0.000120471
4.89904e-05
-0.000131601
4.45015e-05
-0.000141605
4.00195e-05
-0.000150506
3.5553e-05
-0.000158103
3.04626e-05
-0.000164631
2.61699e-05
-0.000170081
2.18154e-05
-0.000174499
1.76489e-05
-0.000178007
1.40104e-05
-0.000180503
1.02778e-05
-0.000182349
7.20732e-06
-0.000183433
4.26952e-06
-0.000183645
9.19933e-07