/*--------------------------------*- C++ -*----------------------------------*\
| =========                 |                                                 |
| \\      /  F ield         | OpenFOAM: The Open Source CFD Toolbox           |
|  \\    /   O peration     | Version:  3.0.1                                 |
|   \\  /    A nd           | Web:      www.OpenFOAM.org                      |
|    \\/     M anipulation  |                                                 |
\*---------------------------------------------------------------------------*/
FoamFile
{
    version     2.0;
    format      ascii;
    class       volScalarField;
    location    "83.4";
    object      p_rgh;
}
// * * * * * * * * * * * * * * * * * * * * * * * * * * * * * * * * * * * * * //

dimensions      [1 -1 -2 0 0 0 0];

internalField   nonuniform List<scalar> 
21420
(
-261.449
-245.002
-226.701
-206.556
-184.598
-160.837
-135.312
-108.119
-79.349
-49.1273
-17.651
14.8004
48.1899
82.1382
116.328
150.376
183.891
216.516
247.829
277.404
304.865
329.804
351.825
370.609
385.864
397.353
404.891
408.269
407.046
401.671
392.328
379.099
362.219
341.943
318.559
292.399
263.867
233.346
201.243
167.992
133.996
99.6342
65.2384
31.2633
-0.428225
-32.3905
-63.3432
-93.0002
-121.179
-147.743
-172.606
-195.714
-217.034
-236.565
-254.314
-270.308
-284.584
-297.179
-308.14
-317.508
-325.33
-331.644
-336.478
-339.863
-341.792
-342.056
-340.884
-338.229
-334.084
-328.412
-321.148
-312.254
-301.686
-289.397
-275.357
-259.536
-241.917
-222.502
-201.301
-178.361
-153.751
-127.542
-99.8343
-70.7489
-40.4268
-9.02225
23.2513
56.0979
89.2676
122.465
155.357
187.585
218.77
248.527
276.473
302.241
325.479
345.864
363.106
376.953
387.197
393.681
396.226
394.911
389.638
380.478
367.509
350.899
330.856
307.633
281.535
252.915
222.162
189.695
155.95
121.368
86.3844
51.4168
16.8543
-16.9499
-49.6903
-81.1022
-110.97
-139.123
-165.436
-189.824
-212.234
-232.646
-251.064
-267.514
-282.036
-294.685
-305.523
-314.618
-322.037
-327.858
-332.172
-335.025
-336.457
-336.596
-335.456
-333.073
-329.477
-324.67
-318.651
-311.409
-302.914
-293.126
-282.002
-269.498
-255.564
-240.147
-223.201
-204.686
-184.577
-162.863
-139.56
-114.708
-88.3796
-60.6922
-31.8433
-1.23358
29.5821
61.1243
93.0568
125.059
156.79
187.887
217.965
246.622
273.447
298.031
319.977
338.903
354.462
366.354
374.335
378.189
377.86
373.288
364.572
351.775
335.128
314.898
291.414
265.056
236.241
205.408
173.015
139.521
105.379
71.0291
36.8896
3.34737
-29.2529
-60.6205
-90.5197
-118.774
-145.26
-169.903
-192.668
-213.545
-232.554
-249.734
-265.141
-278.844
-290.918
-301.448
-310.512
-318.184
-324.527
-329.6
-333.458
-336.133
-337.64
-337.998
-337.24
-335.341
-332.29
-328.065
-322.635
-315.962
-308.01
-298.741
-288.112
-276.077
-262.597
-247.64
-231.173
-213.166
-193.604
-172.484
-149.814
-125.627
-99.981
-72.9588
-44.6825
-15.2958
14.9874
45.9292
77.2634
108.688
139.868
170.435
199.999
228.148
254.462
278.523
299.935
318.327
333.366
344.771
352.321
355.793
355.203
350.46
341.648
328.876
312.361
292.374
269.244
243.348
215.111
184.986
153.442
120.948
87.9653
54.9274
22.288
-9.65637
-40.7064
-70.5848
-99.0838
-126.033
-151.329
-174.891
-196.678
-216.675
-234.894
-251.366
-266.156
-279.332
-290.986
-301.202
-310.064
-317.632
-323.935
-328.98
-332.803
-335.411
-336.703
-336.784
-335.633
-333.186
-329.386
-324.178
-317.478
-309.206
-299.286
-287.599
-274.068
-258.618
-241.191
-221.776
-200.392
-177.079
-151.9
-124.991
-96.4717
-66.3844
-31.1526
1.63395
35.0415
68.8958
102.918
136.695
169.834
201.902
232.468
261.15
287.543
311.26
331.977
349.383
363.22
373.283
379.417
381.517
379.749
373.948
364.215
350.707
333.634
313.264
289.893
263.869
235.564
205.351
173.671
140.935
107.532
73.8791
40.3573
7.3247
-24.7498
-54.9314
-85.0074
-113.846
-141.212
-166.979
-191.061
-213.402
-233.977
-252.773
-269.802
-285.12
-298.788
-261.523
-245.079
-226.781
-206.637
-184.68
-160.919
-135.394
-108.199
-79.4251
-49.1988
-17.7165
14.7431
48.1412
82.1011
116.304
150.368
183.899
216.541
247.873
277.467
304.947
329.903
351.941
370.74
386.008
397.506
405.052
408.451
407.204
401.824
392.474
379.235
362.342
342.051
318.651
292.472
263.922
233.383
201.262
167.994
133.982
99.6061
65.1984
31.2142
-0.49179
-32.4603
-63.4181
-93.0789
-121.26
-147.825
-172.688
-195.795
-217.114
-236.643
-254.389
-270.381
-284.655
-297.247
-308.205
-317.571
-325.391
-331.703
-336.536
-339.921
-341.849
-342.114
-340.942
-338.289
-334.146
-328.476
-321.214
-312.323
-301.758
-289.472
-275.434
-259.615
-241.998
-222.584
-201.382
-178.443
-153.832
-127.621
-99.9104
-70.8212
-40.4944
-9.08358
23.1977
56.0534
89.2337
122.443
155.349
187.593
218.794
248.568
276.531
302.316
325.57
345.97
363.225
377.083
387.335
393.825
396.38
395.053
389.78
380.614
367.638
351.017
330.96
307.721
281.606
252.967
222.196
189.71
155.946
121.346
86.3466
51.3648
16.7899
-17.0245
-49.7731
-81.1913
-111.063
-139.219
-165.534
-189.921
-212.331
-232.74
-251.156
-267.603
-282.122
-294.768
-305.602
-314.694
-322.11
-327.929
-332.24
-335.086
-336.519
-336.656
-335.515
-333.131
-329.534
-324.728
-318.71
-311.469
-302.976
-293.19
-282.068
-269.568
-255.636
-240.222
-223.279
-204.766
-184.658
-162.946
-139.642
-114.789
-88.4577
-60.764
-31.8932
-1.3185
29.5224
61.077
93.0215
125.037
156.783
187.896
217.991
246.666
273.509
298.112
320.076
339.019
354.592
366.497
374.487
378.351
378.014
373.441
364.719
351.912
335.251
315.005
291.503
265.126
236.29
205.438
173.025
139.512
105.352
70.9865
36.833
3.2789
-29.331
-60.7057
-90.6096
-118.866
-145.353
-169.996
-192.759
-213.634
-232.64
-249.817
-265.22
-278.918
-290.99
-301.516
-310.576
-318.245
-324.586
-329.656
-333.513
-336.187
-337.691
-338.051
-337.292
-335.395
-332.344
-328.12
-322.692
-316.021
-308.071
-298.805
-288.177
-276.144
-262.667
-247.713
-231.247
-213.242
-193.682
-172.563
-149.893
-125.706
-100.057
-73.0322
-44.7515
-15.3581
14.9329
45.8842
77.2299
108.668
139.863
170.446
200.027
228.194
254.527
278.607
300.037
318.444
333.497
344.913
352.471
355.954
355.354
350.611
341.791
329.009
312.481
292.478
269.329
243.414
215.157
185.012
153.448
120.936
87.9374
54.8857
22.2363
-9.71742
-40.7748
-70.659
-99.1614
-126.113
-151.409
-174.971
-196.757
-216.752
-234.968
-251.437
-266.222
-279.394
-291.045
-301.257
-310.117
-317.683
-323.985
-329.03
-332.854
-335.46
-336.753
-336.836
-335.688
-333.244
-329.447
-324.243
-317.547
-309.278
-299.361
-287.678
-274.15
-258.702
-241.276
-221.862
-200.479
-177.164
-151.982
-125.071
-96.5492
-66.4779
-31.1987
1.57779
34.9943
68.8619
102.9
136.692
169.849
201.935
232.52
261.221
287.631
311.366
332.097
349.517
363.365
373.435
379.574
381.683
379.9
374.097
364.358
350.84
333.754
313.369
289.981
263.94
235.616
205.385
173.688
140.934
107.516
73.8501
40.316
7.27323
-24.8052
-55.001
-85.0811
-113.923
-141.291
-167.059
-191.141
-213.481
-234.055
-252.849
-269.876
-285.192
-298.857
-261.672
-245.232
-226.939
-206.799
-184.844
-161.083
-135.557
-108.357
-79.5773
-49.342
-17.8476
14.6283
48.0437
82.0269
116.258
150.351
183.915
216.592
247.96
277.591
305.109
330.103
352.174
371.002
386.295
397.811
405.373
408.813
407.519
402.131
392.767
379.508
362.588
342.267
318.834
292.62
264.033
233.457
201.299
167.997
133.954
99.5499
65.1183
31.1158
-0.618809
-32.5999
-63.568
-93.2361
-121.422
-147.989
-172.852
-195.957
-217.273
-236.798
-254.539
-270.526
-284.794
-297.382
-308.334
-317.696
-325.512
-331.821
-336.652
-340.036
-341.96
-342.229
-341.057
-338.407
-334.267
-328.602
-321.345
-312.458
-301.899
-289.618
-275.585
-259.77
-242.154
-222.742
-201.54
-178.6
-153.986
-127.771
-100.055
-70.9579
-40.6207
-9.19683
23.1005
55.9755
89.1776
122.412
155.347
187.621
218.856
248.664
276.662
302.481
325.767
346.197
363.478
377.358
387.626
394.126
396.7
395.351
390.079
380.901
367.908
351.264
331.18
307.909
281.759
253.085
222.275
189.751
155.951
121.316
86.2848
51.2747
16.6755
-17.1592
-49.924
-81.3543
-111.234
-139.395
-165.712
-190.1
-212.506
-232.912
-251.323
-267.765
-282.277
-294.916
-305.743
-314.828
-322.238
-328.051
-332.356
-335.191
-336.625
-336.758
-335.613
-333.228
-329.631
-324.825
-318.81
-311.572
-303.082
-293.301
-282.184
-269.689
-255.763
-240.355
-223.416
-204.908
-184.804
-163.093
-139.789
-114.933
-88.5967
-60.8909
-31.9735
-1.47344
29.4205
60.9998
92.9679
125.01
156.785
187.93
218.059
246.771
273.651
298.292
320.291
339.267
354.87
366.798
374.805
378.693
378.336
373.762
365.027
352.199
335.511
315.233
291.694
265.277
236.402
205.509
173.057
139.507
105.312
70.9151
36.7335
3.15598
-29.4729
-60.8615
-90.7747
-119.036
-145.525
-170.167
-192.926
-213.796
-232.797
-249.967
-265.362
-279.052
-291.116
-301.635
-310.688
-318.351
-324.687
-329.753
-333.607
-336.278
-337.778
-338.141
-337.382
-335.486
-332.438
-328.217
-322.792
-316.124
-308.179
-298.917
-288.293
-276.265
-262.793
-247.842
-231.381
-213.379
-193.822
-172.705
-150.036
-125.847
-100.195
-73.1641
-44.8745
-15.468
14.8386
45.8092
77.1778
108.642
139.866
170.482
200.099
228.303
254.673
278.79
300.254
318.694
333.774
345.211
352.783
356.287
355.669
350.924
342.09
329.287
312.732
292.696
269.511
243.556
215.258
185.073
153.469
120.922
87.8899
54.8102
22.1404
-9.83245
-40.9049
-70.801
-99.3109
-126.268
-151.565
-175.126
-196.91
-216.902
-235.112
-251.575
-266.353
-279.517
-291.16
-301.366
-310.221
-317.784
-324.084
-329.129
-332.953
-335.556
-336.853
-336.941
-335.798
-333.359
-329.569
-324.372
-317.682
-309.42
-299.512
-287.835
-274.312
-258.869
-241.447
-222.035
-200.651
-177.335
-152.148
-125.229
-96.7033
-66.6596
-31.2955
1.46487
34.8999
68.7942
102.862
136.688
169.88
202.003
232.624
261.362
287.808
311.576
332.338
349.785
363.654
373.74
379.89
382.014
380.202
374.395
364.644
351.106
333.994
313.578
290.158
264.081
235.721
205.453
173.721
140.934
107.485
73.7918
40.2332
7.17029
-24.9166
-55.14
-85.2285
-114.077
-141.449
-167.219
-191.301
-213.639
-234.21
-253.001
-270.023
-285.334
-298.995
-261.894
-245.463
-227.176
-207.042
-185.09
-161.33
-135.801
-108.596
-79.8057
-49.5568
-18.0445
14.4556
47.8971
81.9155
116.187
150.326
183.939
216.667
248.09
277.779
305.353
330.402
352.524
371.396
386.725
398.27
405.853
409.344
407.999
402.595
393.206
379.917
362.958
342.592
319.109
292.841
264.199
233.568
201.356
168.002
133.911
99.4655
64.9979
30.9678
-0.809379
-32.8093
-63.793
-93.4721
-121.665
-148.235
-173.098
-196.201
-217.512
-237.031
-254.765
-270.744
-285.004
-297.584
-308.529
-317.884
-325.694
-331.998
-336.824
-340.207
-342.13
-342.401
-341.23
-338.583
-334.449
-328.791
-321.54
-312.661
-302.11
-289.837
-275.81
-260.001
-242.39
-222.978
-201.777
-178.835
-154.218
-127.996
-100.271
-71.1625
-40.8096
-9.36601
22.9559
55.8597
89.0947
122.367
155.344
187.665
218.95
248.81
276.86
302.73
326.065
346.539
363.86
377.772
388.065
394.58
397.178
395.806
390.531
381.335
368.316
351.638
331.512
308.195
281.993
253.263
222.397
189.816
155.96
121.274
86.1943
51.1416
16.506
-17.3591
-50.1482
-81.5967
-111.489
-139.658
-165.978
-190.365
-212.768
-233.168
-251.572
-268.004
-282.507
-295.136
-305.953
-315.027
-322.428
-328.232
-332.528
-335.349
-336.781
-336.908
-335.759
-333.372
-329.773
-324.969
-318.957
-311.724
-303.239
-293.464
-282.356
-269.869
-255.952
-240.551
-223.62
-205.118
-185.019
-163.311
-140.007
-115.147
-88.8027
-61.0803
-32.1145
-1.67979
29.2721
60.8869
92.8906
124.972
156.791
187.984
218.165
246.931
273.867
298.564
320.617
339.643
355.289
367.253
375.285
379.199
378.829
374.25
365.493
352.634
335.904
315.577
291.983
265.508
236.572
205.619
173.109
139.502
105.255
70.8102
36.5864
2.97375
-29.6837
-61.0932
-91.0202
-119.29
-145.781
-170.421
-193.176
-214.038
-233.03
-250.189
-265.573
-279.251
-291.303
-301.811
-310.854
-318.508
-324.836
-329.897
-333.746
-336.413
-337.909
-338.274
-337.516
-335.621
-332.576
-328.36
-322.939
-316.277
-308.338
-299.083
-288.465
-276.444
-262.979
-248.035
-231.579
-213.583
-194.031
-172.916
-150.248
-126.057
-100.4
-73.3597
-45.0562
-15.6308
14.6997
45.6992
77.1022
108.606
139.874
170.54
200.209
228.468
254.894
279.067
300.584
319.071
334.192
345.661
353.255
356.784
356.149
351.4
342.543
329.708
313.111
293.026
269.785
243.772
215.412
185.166
153.503
120.901
87.8196
54.6978
21.9972
-10.0045
-41.0996
-71.0139
-99.535
-126.499
-151.799
-175.36
-197.141
-217.127
-235.329
-251.782
-266.549
-279.701
-291.333
-301.529
-310.377
-317.934
-324.233
-329.278
-333.101
-335.7
-337.002
-337.097
-335.962
-333.532
-329.751
-324.565
-317.887
-309.637
-299.737
-288.07
-274.556
-259.12
-241.703
-222.294
-200.911
-177.59
-152.395
-125.466
-96.9329
-66.9257
-31.4472
1.29365
34.7578
68.6924
102.807
136.682
169.926
202.104
232.78
261.573
288.073
311.892
332.7
350.186
364.088
374.198
380.362
382.503
380.66
374.846
365.073
351.505
334.354
313.893
290.422
264.292
235.877
205.555
173.77
140.933
107.438
73.7042
40.109
7.01582
-25.0846
-55.3485
-85.4497
-114.307
-141.686
-167.458
-191.54
-213.876
-234.443
-253.228
-270.244
-285.548
-299.202
-262.191
-245.77
-227.493
-207.366
-185.418
-161.659
-136.127
-108.914
-80.1105
-49.8435
-18.3072
14.2242
47.7014
81.7664
116.093
150.293
183.97
216.768
248.264
278.028
305.679
330.801
352.991
371.921
387.299
398.882
406.492
410.021
408.649
403.219
393.794
380.463
363.451
343.025
319.475
293.136
264.42
233.715
201.431
168.009
133.854
99.3523
64.8368
30.7702
-1.06361
-33.0889
-64.0933
-93.7871
-121.989
-148.564
-173.427
-196.526
-217.831
-237.341
-255.066
-271.035
-285.284
-297.853
-308.789
-318.135
-325.937
-332.233
-337.055
-340.434
-342.357
-342.63
-341.46
-338.818
-334.692
-329.042
-321.801
-312.931
-302.392
-290.129
-276.112
-260.31
-242.703
-223.294
-202.094
-179.15
-154.527
-128.297
-100.56
-71.4353
-41.0619
-9.59209
22.7631
55.7052
88.9841
122.307
155.341
187.724
219.076
249.005
277.125
303.063
326.463
346.997
364.371
378.326
388.651
395.186
397.804
396.423
391.136
381.915
368.861
352.138
331.957
308.576
282.306
253.502
222.559
189.903
155.973
121.217
86.0738
50.9642
16.28
-17.6258
-50.4471
-81.9198
-111.829
-140.008
-166.332
-190.718
-213.117
-233.51
-251.903
-268.323
-282.813
-295.428
-306.232
-315.292
-322.68
-328.472
-332.754
-335.562
-336.989
-337.107
-335.952
-333.563
-329.963
-325.161
-319.153
-311.926
-303.448
-293.681
-282.584
-270.108
-256.202
-240.812
-223.891
-205.398
-185.306
-163.601
-140.297
-115.433
-89.0775
-61.335
-32.3242
-1.93269
29.0767
60.737
92.7878
124.921
156.799
188.057
218.307
247.145
274.156
298.927
321.052
340.145
355.85
367.861
375.927
379.861
379.499
374.906
366.116
353.216
336.43
316.036
292.369
265.816
236.799
205.766
173.177
139.495
105.178
70.6703
36.3901
2.73064
-29.9647
-61.4023
-91.3477
-119.627
-146.122
-170.76
-193.508
-214.361
-233.34
-250.486
-265.854
-279.516
-291.553
-302.045
-311.075
-318.717
-325.036
-330.089
-333.93
-336.591
-338.085
-338.451
-337.693
-335.801
-332.76
-328.55
-323.135
-316.481
-308.551
-299.303
-288.695
-276.682
-263.227
-248.292
-231.844
-213.855
-194.309
-173.197
-150.531
-126.337
-100.673
-73.6204
-45.298
-15.848
14.5147
45.5529
77.0016
108.558
139.886
170.616
200.356
228.69
255.191
279.438
301.025
319.576
334.751
346.263
353.885
357.437
356.799
352.036
343.148
330.27
313.618
293.468
270.153
244.059
215.618
185.29
153.549
120.872
87.7256
54.5478
21.8059
-10.2342
-41.3597
-71.298
-99.8342
-126.808
-152.112
-175.671
-197.448
-217.427
-235.619
-252.058
-266.81
-279.947
-291.564
-301.747
-310.585
-318.135
-324.43
-329.475
-333.299
-335.893
-337.202
-337.306
-336.181
-333.763
-329.995
-324.822
-318.159
-309.923
-300.038
-288.384
-274.881
-259.454
-242.044
-222.639
-201.256
-177.931
-152.726
-125.782
-97.2367
-67.268
-31.6623
1.06217
34.5674
68.5563
102.732
136.673
169.988
202.238
232.988
261.854
288.427
312.313
333.182
350.722
364.666
374.808
380.992
383.142
381.283
375.45
365.647
352.038
334.835
314.312
290.775
264.574
236.086
205.691
173.835
140.932
107.375
73.5869
39.9432
6.80976
-25.31
-55.6266
-85.7447
-114.615
-142.002
-167.778
-191.86
-214.193
-234.754
-253.532
-270.539
-285.833
-299.477
-262.562
-246.155
-227.889
-207.771
-185.829
-162.071
-136.535
-109.312
-80.492
-50.2022
-18.636
13.9333
47.4559
81.5795
115.975
150.25
184.009
216.893
248.481
278.339
306.085
331.3
353.574
372.578
388.017
399.647
407.289
410.838
409.46
404.001
394.53
381.147
364.068
343.567
319.933
293.504
264.696
233.899
201.524
168.016
133.781
99.2099
64.6345
30.5223
-1.38157
-33.4389
-64.4692
-94.1814
-122.395
-148.975
-173.838
-196.933
-218.23
-237.73
-255.442
-271.398
-285.634
-298.19
-309.113
-318.448
-326.24
-332.528
-337.342
-340.715
-342.639
-342.915
-341.748
-339.113
-334.995
-329.357
-322.127
-313.27
-302.744
-290.494
-276.489
-260.696
-243.096
-223.689
-202.489
-179.543
-154.913
-128.673
-100.921
-71.7766
-41.378
-9.87564
22.5216
55.5115
88.8452
122.231
155.336
187.798
219.233
249.248
277.456
303.479
326.96
347.57
365.009
379.019
389.385
395.947
398.579
397.203
391.894
382.641
369.544
352.764
332.514
309.054
282.696
253.801
222.763
190.011
155.989
121.145
85.9224
50.7416
15.9967
-17.9599
-50.8216
-82.3246
-112.255
-140.446
-166.775
-191.161
-213.554
-233.937
-252.317
-268.723
-283.196
-295.794
-306.581
-315.624
-322.996
-328.772
-333.036
-335.831
-337.249
-337.356
-336.195
-333.801
-330.2
-325.401
-319.398
-312.178
-303.709
-293.954
-282.869
-270.407
-256.515
-241.139
-224.231
-205.749
-185.665
-163.964
-140.66
-115.79
-89.4221
-61.6562
-32.6034
-2.23323
28.8342
60.5494
92.6587
124.858
156.809
188.147
218.484
247.412
274.517
299.382
321.597
340.773
356.552
368.622
376.73
380.685
380.338
375.729
366.898
353.944
337.088
316.612
292.853
266.201
237.084
205.949
173.262
139.487
105.082
70.4946
36.1439
2.42575
-30.3169
-61.7897
-91.758
-120.05
-146.548
-171.183
-193.923
-214.764
-233.728
-250.857
-266.206
-279.848
-291.865
-302.339
-311.352
-318.979
-325.285
-330.328
-334.16
-336.813
-338.307
-338.672
-337.915
-336.026
-332.991
-328.787
-323.38
-316.736
-308.816
-299.58
-288.982
-276.981
-263.537
-248.613
-232.175
-214.195
-194.656
-173.549
-150.885
-126.688
-101.015
-73.9468
-45.601
-16.1204
14.2828
45.3695
76.8752
108.497
139.899
170.712
200.54
228.966
255.562
279.902
301.577
320.207
335.45
347.017
354.675
358.248
357.618
352.833
343.906
330.974
314.253
294.02
270.612
244.419
215.875
185.444
153.605
120.836
87.6071
54.3595
21.5659
-10.5221
-41.6855
-71.6538
-100.209
-127.194
-152.502
-176.061
-197.833
-217.802
-235.981
-252.404
-267.137
-280.255
-291.852
-302.019
-310.845
-318.386
-324.676
-329.721
-333.544
-336.135
-337.452
-337.567
-336.455
-334.051
-330.299
-325.145
-318.499
-310.283
-300.414
-288.776
-275.287
-259.872
-242.471
-223.071
-201.689
-178.358
-153.14
-126.178
-97.613
-67.6705
-31.9573
0.768088
34.3282
68.3854
102.638
136.661
170.064
202.405
233.247
262.206
288.868
312.839
333.785
351.392
365.39
375.572
381.78
383.933
382.069
376.208
366.367
352.705
335.435
314.837
291.216
264.926
236.347
205.86
173.915
140.929
107.296
73.4394
39.7355
6.55198
-25.5937
-55.9745
-86.1138
-114.999
-142.397
-168.178
-192.26
-214.589
-235.143
-253.911
-270.907
-286.19
-299.822
-263.008
-246.616
-228.364
-208.258
-186.322
-162.565
-137.025
-109.79
-80.9504
-50.6333
-19.031
13.582
47.1601
81.3541
115.832
150.198
184.054
217.043
248.741
278.713
306.573
331.899
354.275
373.368
388.88
400.565
408.246
411.813
410.43
404.937
395.413
381.967
364.81
344.217
320.483
293.946
265.027
234.119
201.636
168.024
133.694
99.0376
64.3904
30.2236
-1.76334
-33.8596
-64.9209
-94.6551
-122.882
-149.468
-174.332
-197.421
-218.708
-238.196
-255.893
-271.834
-286.054
-298.594
-309.502
-318.824
-326.603
-332.881
-337.687
-341.053
-342.975
-343.256
-342.093
-339.465
-335.36
-329.733
-322.517
-313.676
-303.167
-290.933
-276.941
-261.161
-243.567
-224.164
-202.965
-180.016
-155.378
-129.125
-101.355
-72.1868
-41.7583
-10.2171
22.2311
55.2781
88.6774
122.139
155.329
187.885
219.42
249.539
277.852
303.978
327.558
348.257
365.776
379.851
390.267
396.861
399.508
398.138
392.805
383.514
370.364
353.516
333.183
309.627
283.166
254.159
223.006
190.141
156.007
121.058
85.7394
50.4732
15.6552
-18.3623
-51.2723
-82.8115
-112.767
-140.973
-167.308
-191.692
-214.078
-234.449
-252.815
-269.202
-283.656
-296.234
-307
-316.023
-323.375
-329.132
-333.374
-336.155
-337.56
-337.655
-336.485
-334.087
-330.485
-325.688
-319.692
-312.48
-304.022
-294.281
-283.212
-270.766
-256.89
-241.531
-224.639
-206.171
-186.096
-164.401
-141.097
-116.22
-89.8371
-62.0446
-32.9513
-2.58372
28.5445
60.3235
92.5027
124.781
156.82
188.255
218.695
247.733
274.95
299.927
322.25
341.527
357.395
369.537
377.697
381.679
381.345
376.716
367.837
354.819
337.879
317.303
293.433
266.663
237.424
206.169
173.364
139.475
104.966
70.2822
35.8471
2.05824
-30.7411
-62.256
-92.2517
-120.559
-147.062
-171.693
-194.423
-215.249
-234.195
-251.302
-266.628
-280.246
-292.239
-302.691
-311.684
-319.293
-325.584
-330.615
-334.436
-337.081
-338.573
-338.937
-338.181
-336.296
-333.268
-329.072
-323.675
-317.043
-309.135
-299.911
-289.327
-277.34
-263.91
-248.998
-232.572
-214.604
-195.074
-173.973
-151.31
-127.11
-101.426
-74.3394
-45.9658
-16.4487
14.0035
45.1483
76.7224
108.423
139.914
170.825
200.76
229.297
256.006
280.458
302.24
320.966
336.291
347.923
355.626
359.223
358.602
353.79
344.818
331.82
315.015
294.683
271.164
244.851
216.183
185.629
153.671
120.792
87.4636
54.1323
21.2768
-10.8683
-42.0776
-72.0816
-100.66
-127.659
-152.972
-176.529
-198.294
-218.253
-236.416
-252.819
-267.53
-280.624
-292.199
-302.345
-311.155
-318.687
-324.97
-330.016
-333.837
-336.427
-337.752
-337.88
-336.783
-334.397
-330.665
-325.531
-318.908
-310.715
-300.865
-289.247
-275.775
-260.374
-242.983
-223.59
-202.208
-178.87
-153.638
-126.652
-98.0604
-68.1181
-32.3477
0.409149
34.0394
68.1795
102.524
136.646
170.154
202.606
233.559
262.628
289.399
313.471
334.51
352.196
366.26
376.489
382.726
384.883
383.015
377.12
367.232
353.506
336.157
315.467
291.745
265.349
236.659
206.063
174.011
140.925
107.199
73.261
39.4861
6.24231
-25.9369
-56.3924
-86.5572
-115.461
-142.871
-168.658
-192.74
-215.064
-235.609
-254.366
-271.349
-286.618
-300.236
-263.528
-247.155
-228.919
-208.826
-186.898
-163.143
-137.597
-110.349
-81.486
-51.1369
-19.4928
13.1693
46.8134
81.0898
115.664
150.137
184.106
217.216
249.043
279.148
307.142
332.598
355.093
374.29
389.887
401.638
409.362
412.952
411.559
406.029
396.446
382.926
365.675
344.976
321.124
294.461
265.413
234.375
201.765
168.033
133.59
98.8348
64.1038
29.8734
-2.20907
-34.3513
-65.449
-95.2088
-123.452
-150.045
-174.909
-197.991
-219.267
-238.74
-256.42
-272.343
-286.544
-299.065
-309.956
-319.262
-327.027
-333.293
-338.089
-341.447
-343.367
-343.651
-342.495
-339.877
-335.784
-330.172
-322.973
-314.151
-303.661
-291.445
-277.47
-261.702
-244.117
-224.717
-203.52
-180.568
-155.92
-129.652
-101.861
-72.6659
-42.2031
-10.6172
21.8913
55.0046
88.4804
122.03
155.32
187.986
219.638
249.879
278.314
304.561
328.255
349.06
366.671
380.823
391.298
397.929
400.594
399.229
393.87
384.534
371.322
354.394
333.964
310.297
283.713
254.576
223.29
190.29
156.027
120.956
85.5241
50.1582
15.2551
-18.8336
-51.8
-83.3813
-113.365
-141.589
-167.931
-192.314
-214.692
-235.049
-253.396
-269.763
-284.194
-296.748
-307.489
-316.488
-323.817
-329.551
-333.77
-336.533
-337.922
-338.003
-336.825
-334.421
-330.817
-326.024
-320.034
-312.833
-304.388
-294.663
-283.612
-271.185
-257.329
-241.989
-225.116
-206.663
-186.6
-164.912
-141.609
-116.723
-90.323
-62.5015
-33.3667
-2.98648
28.2073
60.0587
92.3193
124.689
156.831
188.379
218.94
248.106
275.454
300.563
323.013
342.408
358.38
370.607
378.826
382.841
382.52
377.868
368.936
355.841
338.803
318.11
294.109
267.202
237.821
206.424
173.481
139.46
104.828
70.0326
35.4989
1.62723
-31.2382
-62.8019
-92.8296
-121.154
-147.662
-172.289
-195.007
-215.816
-234.741
-251.823
-267.122
-280.712
-292.677
-303.102
-312.072
-319.66
-325.933
-330.95
-334.759
-337.395
-338.883
-339.245
-338.492
-336.612
-333.592
-329.405
-324.02
-317.401
-309.508
-300.298
-289.73
-277.759
-264.345
-249.449
-233.037
-215.082
-195.562
-174.468
-151.808
-127.603
-101.907
-74.7988
-46.393
-16.8336
13.6763
44.8887
76.5424
108.335
139.93
170.957
201.015
229.683
256.525
281.108
303.014
321.851
337.273
348.981
356.737
360.362
359.749
354.909
345.883
332.809
315.906
295.457
271.807
245.354
216.542
185.844
153.747
120.738
87.2941
53.8652
20.9382
-11.2735
-42.5367
-72.5819
-101.187
-128.202
-153.52
-177.076
-198.834
-218.779
-236.923
-253.304
-267.988
-281.055
-292.603
-302.726
-311.518
-319.038
-325.313
-330.359
-334.179
-336.769
-338.102
-338.245
-337.167
-334.801
-331.091
-325.982
-319.384
-311.214
-301.392
-289.796
-276.344
-260.96
-243.582
-224.196
-202.815
-179.469
-154.221
-127.207
-98.5787
-68.6133
-32.8315
-0.0163652
33.7003
67.938
102.39
136.628
170.259
202.839
233.921
263.119
290.017
314.208
335.355
353.136
367.276
377.561
383.83
385.993
384.118
378.186
368.243
354.442
336.999
316.202
292.363
265.842
237.023
206.299
174.123
140.919
107.085
73.051
39.1941
5.88051
-26.3407
-56.8805
-87.0751
-116.001
-143.426
-169.219
-193.301
-215.619
-236.154
-254.898
-271.865
-287.117
-300.718
-264.122
-247.771
-229.554
-209.476
-187.557
-163.805
-138.252
-110.989
-82.0993
-51.7135
-20.0209
12.6937
46.4149
80.7857
115.47
150.065
184.165
217.413
249.387
279.644
307.792
333.397
356.029
375.345
391.041
402.865
410.639
414.255
412.849
407.277
397.626
384.022
366.666
345.844
321.856
295.05
265.853
234.667
201.911
168.041
133.47
98.6006
63.7736
29.4708
-2.71904
-34.9147
-66.0538
-95.8429
-124.104
-150.706
-175.569
-198.643
-219.906
-239.362
-257.023
-272.924
-287.104
-299.604
-310.475
-319.763
-327.512
-333.764
-338.548
-341.899
-343.816
-344.103
-342.953
-340.347
-336.269
-330.674
-323.493
-314.693
-304.226
-292.031
-278.074
-262.322
-244.746
-225.351
-204.155
-181.2
-156.541
-130.256
-102.441
-73.2146
-42.7129
-11.0765
21.5017
54.6905
88.2536
121.904
155.308
188.099
219.885
250.265
278.842
305.227
329.053
349.979
367.696
381.936
392.477
399.152
401.839
400.476
395.088
385.702
372.418
355.398
334.857
311.063
284.339
255.053
223.614
190.46
156.048
120.836
85.2757
49.7958
14.7955
-19.3747
-52.4053
-84.0346
-114.052
-142.294
-168.645
-193.026
-215.394
-235.735
-254.061
-270.404
-284.808
-297.335
-308.049
-317.021
-324.323
-330.031
-334.223
-336.965
-338.336
-338.402
-337.213
-334.803
-331.198
-326.408
-320.426
-313.236
-304.807
-295.1
-284.069
-271.664
-257.831
-242.514
-225.662
-207.227
-187.178
-165.498
-142.194
-117.3
-90.8804
-63.0274
-33.8492
-3.44307
27.8221
59.7547
92.108
124.583
156.842
188.519
219.219
248.531
276.03
301.289
323.886
343.416
359.507
371.831
380.12
384.174
383.864
379.187
370.194
357.011
339.86
319.033
294.883
267.817
238.274
206.715
173.613
139.442
104.669
69.7452
35.0979
1.13208
-31.8093
-63.4284
-93.4924
-121.836
-148.349
-172.971
-195.676
-216.465
-235.365
-252.419
-267.687
-281.245
-293.177
-303.572
-312.515
-320.079
-326.332
-331.332
-335.127
-337.754
-339.237
-339.598
-338.847
-336.973
-333.961
-329.786
-324.415
-317.811
-309.933
-300.742
-290.191
-278.239
-264.843
-249.964
-233.569
-215.628
-196.121
-175.036
-152.378
-128.168
-102.459
-75.3257
-46.8832
-17.2757
13.3007
44.5899
76.3346
108.233
139.947
171.105
201.305
230.123
257.118
281.85
303.898
322.865
338.397
350.192
358.01
361.668
361.061
356.19
347.103
333.941
316.925
296.343
272.543
245.93
216.952
186.089
153.832
120.675
87.0976
53.5572
20.5495
-11.7381
-43.0633
-73.1551
-101.791
-128.823
-154.148
-177.701
-199.451
-219.381
-237.504
-253.859
-268.513
-281.548
-293.064
-303.16
-311.932
-319.437
-325.704
-330.749
-334.568
-337.16
-338.502
-338.663
-337.605
-335.262
-331.579
-326.498
-319.929
-311.786
-301.995
-290.424
-276.996
-261.63
-244.266
-224.89
-203.509
-180.155
-154.887
-127.842
-99.1683
-69.1556
-33.4091
-0.509788
33.3104
67.6603
102.235
136.605
170.378
203.105
234.335
263.681
290.724
315.052
336.322
354.211
368.438
378.787
385.095
387.266
385.38
379.407
369.4
355.513
337.962
317.043
293.069
266.404
237.439
206.567
174.249
140.91
106.953
72.8088
38.8588
5.46633
-26.8064
-57.4387
-87.6678
-116.619
-144.061
-169.861
-193.943
-216.254
-236.777
-255.506
-272.455
-287.688
-301.27
-264.791
-248.464
-230.269
-210.208
-188.3
-164.55
-138.991
-111.71
-82.7906
-52.3639
-20.617
12.1554
45.9638
80.4411
115.251
149.983
184.228
217.632
249.772
280.202
308.522
334.296
357.084
376.534
392.34
404.247
412.077
415.723
414.3
408.681
398.956
385.257
367.782
346.821
322.681
295.712
266.347
234.993
202.074
168.048
133.333
98.3346
63.398
29.0154
-3.29368
-35.5501
-66.736
-96.5579
-124.839
-151.45
-176.312
-199.377
-220.626
-240.062
-257.701
-273.579
-287.734
-300.211
-311.059
-320.326
-328.057
-334.293
-339.064
-342.407
-344.323
-344.61
-343.469
-340.875
-336.815
-331.238
-324.078
-315.303
-304.862
-292.691
-278.755
-263.02
-245.454
-226.065
-204.872
-181.911
-157.24
-130.935
-103.093
-73.8333
-43.2882
-11.5959
21.062
54.3353
87.9964
121.76
155.293
188.225
220.162
250.7
279.435
305.976
329.951
351.014
368.851
383.189
393.807
400.531
403.242
401.88
396.46
387.018
373.654
356.53
335.863
311.926
285.043
255.589
223.977
190.65
156.069
120.699
84.9936
49.385
14.2754
-19.9864
-53.0893
-84.7724
-114.826
-143.09
-169.449
-193.828
-216.185
-236.508
-254.811
-271.126
-285.501
-297.997
-308.679
-317.62
-324.892
-330.571
-334.734
-337.452
-338.801
-338.85
-337.649
-335.232
-331.625
-326.84
-320.866
-313.69
-305.279
-295.592
-284.583
-272.203
-258.396
-243.105
-226.276
-207.863
-187.829
-166.158
-142.855
-117.951
-91.5102
-63.6232
-34.3992
-3.95465
27.3882
59.4108
91.868
124.461
156.853
188.674
219.531
249.008
276.677
302.106
324.868
344.551
360.777
373.211
381.579
385.678
385.38
380.673
371.612
358.33
341.051
320.072
295.755
268.509
238.782
207.04
173.76
139.419
104.487
69.4189
34.6434
0.571696
-32.4556
-64.1366
-94.2409
-122.606
-149.125
-173.74
-196.43
-217.197
-236.069
-253.091
-268.323
-281.844
-293.74
-304.101
-313.013
-320.551
-326.781
-331.762
-335.543
-338.158
-339.635
-339.995
-339.246
-337.379
-334.377
-330.214
-324.859
-318.272
-310.413
-301.241
-290.71
-278.779
-265.403
-250.544
-234.168
-216.245
-196.751
-175.675
-153.02
-128.806
-103.081