/*--------------------------------*- C++ -*----------------------------------*\
| =========                 |                                                 |
| \\      /  F ield         | OpenFOAM: The Open Source CFD Toolbox           |
|  \\    /   O peration     | Version:  3.0.1                                 |
|   \\  /    A nd           | Web:      www.OpenFOAM.org                      |
|    \\/     M anipulation  |                                                 |
\*---------------------------------------------------------------------------*/
FoamFile
{
    version     2.0;
    format      ascii;
    class       surfaceScalarField;
    location    "45.4";
    object      alphaPhi;
}
// * * * * * * * * * * * * * * * * * * * * * * * * * * * * * * * * * * * * * //

dimensions      [0 3 -1 0 0 0 0];

internalField   nonuniform List<scalar> 
42423
(
-0.00013789
-7.53481e-06
-0.000129284
-8.60602e-06
-0.000119749
-9.53525e-06
-0.000109282
-1.04674e-05
-9.76282e-05
-1.16537e-05
-8.50164e-05
-1.26119e-05
-7.1295e-05
-1.37215e-05
-5.66318e-05
-1.46632e-05
-4.12161e-05
-1.54158e-05
-2.48593e-05
-1.63569e-05
-7.6769e-06
-1.71824e-05
9.99116e-06
-1.76681e-05
2.82956e-05
-1.83045e-05
4.69883e-05
-1.86928e-05
6.59043e-05
-1.89161e-05
8.48739e-05
-1.89697e-05
0.000103473
-1.85991e-05
0.00012158
-1.81074e-05
0.000138979
-1.73987e-05
0.000155289
-1.63097e-05
0.000170311
-1.50224e-05
0.000183823
-1.3512e-05
0.000195477
-1.16545e-05
0.000205182
-9.70439e-06
0.00021268
-7.49825e-06
0.000217816
-5.13672e-06
0.000220548
-2.73136e-06
0.000220753
-2.05519e-07
0.000218496
2.25742e-06
0.000213778
4.71795e-06
0.000206567
7.21097e-06
0.000197186
9.38019e-06
0.000185785
1.14013e-05
0.000172564
1.32208e-05
0.000157745
1.48197e-05
0.000141582
1.61625e-05
0.000124271
1.73107e-05
0.000106225
1.80457e-05
8.75538e-05
1.86716e-05
6.85458e-05
1.9008e-05
4.95374e-05
1.90084e-05
3.07105e-05
1.88269e-05
1.22126e-05
1.84978e-05
-5.78728e-06
1.79999e-05
-2.31521e-05
1.73648e-05
-3.97876e-05
1.66355e-05
-5.55853e-05
1.57976e-05
-7.04779e-05
1.48926e-05
-8.44324e-05
1.39545e-05
-9.74229e-05
1.29904e-05
-0.000109406
1.19834e-05
-0.000120418
1.10122e-05
-0.000130462
1.00438e-05
-0.000139583
9.12067e-06
-0.000147765
8.18224e-06
-0.000155036
7.27096e-06
-0.000161455
6.41908e-06
-0.00016702
5.56471e-06
-0.000171745
4.72519e-06
-0.000175645
3.89999e-06
-0.000178769
3.12414e-06
-0.000181162
2.39291e-06
-0.000182769
1.60672e-06
-0.000183621
8.52209e-07
-0.000183851
2.30043e-07
-0.000183212
-6.39232e-07
-0.000181753
-1.45879e-06
-0.000179603
-2.15007e-06
-0.000176599
-3.0044e-06
-0.000172757
-3.84206e-06
-0.000168159
-4.59814e-06
-0.000162695
-5.46345e-06
-0.000156378
-6.31757e-06
-0.000149188
-7.18959e-06
-0.000141222
-7.96639e-06
-0.000132375
-8.84662e-06
-0.000122585
-9.79074e-06
-0.000111957
-1.0628e-05
-0.000100517
-1.14393e-05
-8.83049e-05
-1.22127e-05
-7.52646e-05
-1.30404e-05
-6.1509e-05
-1.37557e-05
-4.70364e-05
-1.44727e-05
-3.18542e-05
-1.51823e-05
-1.60002e-05
-1.58542e-05
4.50965e-07
-1.64513e-05
1.73887e-05
-1.69379e-05
3.47709e-05
-1.73823e-05
5.24552e-05
-1.76844e-05
7.02375e-05
-1.77824e-05
8.79658e-05
-1.77283e-05
0.000105406
-1.744e-05
0.000122301
-1.68957e-05
0.000138407
-1.61052e-05
0.000153489
-1.50823e-05
0.000167285
-1.37958e-05
0.000179578
-1.22938e-05
0.000190152
-1.05735e-05
0.000198831
-8.67896e-06
0.000205427
-6.59603e-06
0.000209852
-4.42517e-06
0.000211999
-2.14658e-06
0.000211829
1.69345e-07
0.000209289
2.54e-06
0.000204327
4.96201e-06
0.000197115
7.21225e-06
0.00018772
9.39518e-06
0.000176249
1.14713e-05
0.000162941
1.33071e-05
0.000147947
1.49941e-05
0.000131586
1.63609e-05
0.000114092
1.74944e-05
9.57581e-05
1.83338e-05
7.67977e-05
1.89603e-05
5.75378e-05
1.92598e-05
3.82324e-05
1.93054e-05
1.91163e-05
1.9116e-05
4.29926e-07
1.86864e-05
-1.76887e-05
1.81187e-05
-3.49865e-05
1.72978e-05
-5.14391e-05
1.64526e-05
-6.68646e-05
1.54255e-05
-8.12437e-05
1.43791e-05
-9.45612e-05
1.33175e-05
-0.000106761
1.21998e-05
-0.000117874
1.11132e-05
-0.000127901
1.00267e-05
-0.000136935
9.03418e-06
-0.000144914
7.97905e-06
-0.000151906
6.99149e-06
-0.000157954
6.04788e-06
-0.000163099
5.14579e-06
-0.000167435
4.33585e-06
-0.000170905
3.46932e-06
-0.000173652
2.74794e-06
-0.000175717
2.06497e-06
-0.000177056
1.33817e-06
-0.000177788
7.32322e-07
-0.000177863
7.54776e-08
-0.000177405
-4.58346e-07
-0.000176345
-1.0599e-06
-0.000174777
-1.56862e-06
-0.000172603
-2.17386e-06
-0.000169903
-2.69974e-06
-0.000166638
-3.26489e-06
-0.000162817
-3.82152e-06
-0.000158438
-4.37881e-06
-0.000153516
-4.92234e-06
-0.000147976
-5.53951e-06
-0.000141868
-6.10839e-06
-0.000135029
-6.83925e-06
-0.00012759
-7.43812e-06
-0.000119418
-8.17211e-06
-0.000110461
-8.95739e-06
-0.000100735
-9.72613e-06
-9.02034e-05
-1.05317e-05
-7.88484e-05
-1.13551e-05
-6.67036e-05
-1.2145e-05
-5.37487e-05
-1.29549e-05
-4.00116e-05
-1.37373e-05
-2.56004e-05
-1.44112e-05
-1.0553e-05
-1.50475e-05
5.05954e-06
-1.56127e-05
2.11562e-05
-1.60968e-05
3.75506e-05
-1.63945e-05
5.41153e-05
-1.65648e-05
7.06729e-05
-1.65577e-05
8.70131e-05
-1.63404e-05
0.000102911
-1.58984e-05
0.000118188
-1.52763e-05
0.000132581
-1.43935e-05
0.000145886
-1.33048e-05
0.000157789
-1.19033e-05
0.000168111
-1.03223e-05
0.000176599
-8.48815e-06
0.000183087
-6.48797e-06
0.000187434
-4.34679e-06
0.000189511
-2.07765e-06
0.000189266
2.44598e-07
0.000186704
2.56239e-06
0.00018181
4.89415e-06
0.000174738
7.07214e-06
0.000165598
9.13959e-06
0.000154596
1.10017e-05
0.000141938
1.26579e-05
0.000127885
1.40534e-05
0.000112594
1.52904e-05
9.64319e-05
1.61623e-05
7.96004e-05
1.68314e-05
6.23797e-05
1.72207e-05
4.50161e-05
1.73635e-05
2.77259e-05
1.72902e-05
1.07356e-05
1.69903e-05
-5.74749e-06
1.64831e-05
-2.15766e-05
1.58291e-05
-3.65962e-05
1.50196e-05
-5.07379e-05
1.41417e-05
-6.39597e-05
1.32217e-05
-7.62592e-05
1.22996e-05
-8.77038e-05
1.14445e-05
-9.8256e-05
1.05522e-05
-0.000108024
9.76794e-06
-0.000117067
9.04324e-06
-0.000125259
8.19156e-06
-0.000132666
7.40734e-06
-0.000139269
6.60301e-06
-0.000145159
5.88976e-06
-0.000150288
5.1288e-06
-0.000154745
4.45781e-06
-0.000158545
3.8e-06
-0.000161733
3.18771e-06
-0.000164372
2.63852e-06
-0.000166388
2.01654e-06
-0.000167917
1.52868e-06
-0.000168908
9.90561e-07
-0.000169436
5.28347e-07
-0.00016947
3.38981e-08
-0.000169053
-4.16322e-07
-0.000168158
-8.95739e-07
-0.000166782
-1.37583e-06
-0.000164916
-1.86604e-06
-0.000162599
-2.31717e-06
-0.000159811
-2.78816e-06
-0.00015657
-3.24016e-06
-0.00015279
-3.7808e-06
-0.00014851
-4.2795e-06
-0.000143653
-4.85775e-06
-0.000138208
-5.44485e-06
-0.000132126
-6.08132e-06
-0.000125439
-6.68756e-06
-0.000118061
-7.37791e-06
-0.000110045
-8.01652e-06
-0.000101304
-8.74024e-06
-9.19178e-05
-9.3866e-06
-8.17566e-05
-1.01613e-05
-7.08865e-05
-1.08702e-05
-5.92613e-05
-1.16253e-05
-4.6941e-05
-1.23203e-05
-3.38921e-05
-1.3049e-05
-2.02833e-05
-1.36089e-05
-6.0401e-06
-1.42433e-05
8.69191e-06
-1.47321e-05
2.38464e-05
-1.51546e-05
3.9301e-05
-1.54548e-05
5.49101e-05
-1.56091e-05
7.04289e-05
-1.55189e-05
8.57572e-05
-1.53284e-05
0.000100662
-1.49046e-05
0.000114954
-1.42925e-05
0.000128427
-1.34732e-05
0.000140846
-1.24191e-05
0.000152022
-1.11763e-05
0.000161756
-9.73354e-06
0.000169858
-8.10239e-06
0.000176152
-6.29366e-06
0.000180543
-4.3916e-06
0.00018288
-2.33718e-06
0.000183118
-2.38457e-07
0.000181257
1.86174e-06
0.000177246
4.01093e-06
0.000171212
6.03322e-06
0.000163264
7.94785e-06
0.000153562
9.70209e-06
0.000142284
1.12774e-05
0.000129652
1.26322e-05
0.000115906
1.37457e-05
0.000101252
1.46535e-05
8.60344e-05
1.52177e-05
7.04102e-05
1.56241e-05
5.46914e-05
1.57187e-05
3.90837e-05
1.56076e-05
2.37844e-05
1.52993e-05
8.76434e-06
1.502e-05
-5.49911e-06
1.42634e-05
-1.91529e-05
1.36538e-05
-3.20303e-05
1.28774e-05
-4.41136e-05
1.20833e-05
-5.52787e-05
1.11651e-05
-6.55485e-05
1.02699e-05
-7.48634e-05
9.3149e-06
-8.33082e-05
8.44481e-06
-9.08779e-05
7.56969e-06
-9.77385e-05
6.86063e-06
-0.000103841
6.10263e-06
-0.000109331
5.48968e-06
-0.000114363
5.03226e-06
-0.000118875
4.51175e-06
-0.00012293
4.05562e-06
-0.000126616
3.68509e-06
-0.000129864
3.24829e-06
-0.000132798
2.93439e-06
-0.00013531
2.51159e-06
-0.000137398
2.0878e-06
-0.000139175
1.77764e-06
-0.00014054
1.36525e-06
-0.000141539
9.98483e-07
-0.000142131
5.9234e-07
-0.000142403
2.71945e-07
-0.000142194
-2.09733e-07
-0.000141638
-5.55561e-07
-0.000140592
-1.04611e-06
-0.000139121
-1.47071e-06
-0.000137277
-1.84373e-06
-0.000134742
-2.53504e-06
-0.000131747
-2.99515e-06
-0.000128136
-3.61139e-06
-0.00012379
-4.3462e-06
-0.000118764
-5.02567e-06
-0.000112842
-5.92178e-06
-0.000106136
-6.70636e-06
-9.85694e-05
-7.5666e-06
-8.99585e-05
-8.6109e-06
-8.04621e-05
-9.49648e-06
-7.00145e-05
-1.04476e-05
-5.85987e-05
-1.14159e-05
-4.60986e-05
-1.25001e-05
-3.26586e-05
-1.34401e-05
-1.82463e-05
-1.44123e-05
-3.19463e-06
-1.50518e-05
1.26405e-05
-1.58352e-05
2.91441e-05
-1.65036e-05
4.59978e-05
-1.68537e-05
6.32696e-05
-1.72719e-05
8.06107e-05
-1.73412e-05
9.79795e-05
-1.73688e-05
0.000115094
-1.71143e-05
0.000131685
-1.65909e-05
0.000147568
-1.58834e-05
0.000162559
-1.49916e-05
0.000176387
-1.38276e-05
0.000188874
-1.24874e-05
0.000199856
-1.09819e-05
0.000209118
-9.26222e-06
0.000216571
-7.45259e-06
0.000222055
-5.48432e-06
0.000225496
-3.44079e-06
0.000226883
-1.38674e-06
0.000226209
6.73619e-07
0.000223435
2.77428e-06
0.000218629
4.80595e-06
0.00021178
6.84807e-06
0.000203195
8.58524e-06
0.00019291
1.02849e-05
0.000181181
1.1729e-05
0.000168167
1.30141e-05
0.000153841
1.43256e-05
0.000138632
1.52089e-05
0.000122638
1.59946e-05
0.00010596
1.66776e-05
8.89404e-05
1.70197e-05
7.15742e-05
1.73662e-05
5.41622e-05
1.7412e-05
3.67896e-05
1.73726e-05
1.95689e-05
1.72207e-05
2.73665e-06
1.68322e-05
-1.38643e-05
1.6601e-05
1.5975e-05
-0.00013793
-1.50652e-05
-0.000129328
-1.7209e-05
-0.000119795
-1.90684e-05
-0.000109329
-2.09333e-05
-9.76777e-05
-2.33049e-05
-8.50636e-05
-2.52261e-05
-7.13405e-05
-2.74446e-05
-5.66727e-05
-2.93312e-05
-4.12544e-05
-3.08342e-05
-2.48911e-05
-3.27203e-05
-7.70333e-06
-3.43704e-05
9.96568e-06
-3.53373e-05
2.82773e-05
-3.66163e-05
4.69839e-05
-3.73995e-05
6.59151e-05
-3.78474e-05
8.48933e-05
-3.79481e-05
0.000103506
-3.72118e-05
0.000121634
-3.62355e-05
0.000139041
-3.48058e-05
0.000155359
-3.26284e-05
0.000170391
-3.00539e-05
0.00018392
-2.70416e-05
0.000195594
-2.3328e-05
0.000205305
-1.94157e-05
0.000212802
-1.49955e-05
0.000217941
-1.02759e-05
0.000220676
-5.46638e-06
0.000220881
-4.10534e-07
0.000218615
4.5236e-06
0.000213894
9.4388e-06
0.00020668
1.44244e-05
0.000197291
1.87697e-05
0.000185878
2.28133e-05
0.000172649
2.645e-05
0.000157817
2.9652e-05
0.000141646
3.23335e-05
0.000124323
3.46337e-05
0.000106261
3.61072e-05
8.75817e-05
3.7351e-05
6.8561e-05
3.80287e-05
4.95417e-05
3.80277e-05
3.0705e-05
3.76635e-05
1.21983e-05
3.70045e-05
-5.80558e-06
3.60038e-05
-2.31772e-05
3.47364e-05
-3.98204e-05
3.32787e-05
-5.56222e-05
3.15994e-05
-7.05175e-05
2.97879e-05
-8.44776e-05
2.79145e-05
-9.74713e-05
2.59842e-05
-0.000109461
2.39729e-05
-0.000120479
2.20301e-05
-0.000130522
2.00869e-05
-0.000139641
1.82402e-05
-0.000147829
1.63696e-05
-0.000155108
1.45497e-05
-0.000161525
1.28362e-05
-0.000167089
1.11291e-05
-0.000171821
9.457e-06
-0.00017572
7.79872e-06
-0.000178839
6.24361e-06
-0.000181233
4.78712e-06
-0.000182845
3.21788e-06
-0.0001837
1.70715e-06
-0.000183923
4.53074e-07
-0.000183282
-1.27979e-06
-0.000181823
-2.91819e-06
-0.000179673
-4.29944e-06
-0.00017667
-6.00823e-06
-0.000172828
-7.68406e-06
-0.000168228
-9.19808e-06
-0.000162761
-1.09302e-05
-0.000156447
-1.26321e-05
-0.000149253
-1.43829e-05
-0.000141282
-1.59383e-05
-0.000132431
-1.76976e-05
-0.000122643
-1.95784e-05
-0.000112015
-2.12564e-05
-0.000100568
-2.28862e-05
-8.83555e-05
-2.44255e-05
-7.53097e-05
-2.60863e-05
-6.15507e-05
-2.75148e-05
-4.70769e-05
-2.89467e-05
-3.18852e-05
-3.03741e-05
-1.60288e-05
-3.17107e-05
4.29574e-07
-3.29098e-05
1.73759e-05
-3.38843e-05
3.47668e-05
-3.47734e-05
5.2463e-05
-3.53807e-05
7.0256e-05
-3.55755e-05
8.79931e-05
-3.54655e-05
0.00010544
-3.48864e-05
0.000122339
-3.37955e-05
0.000138461
-3.22264e-05
0.000153559
-3.01807e-05
0.000167352
-2.75892e-05
0.000179656
-2.4597e-05
0.00019024
-2.11575e-05
0.000198918
-1.73573e-05
0.000205523
-1.32013e-05
0.000209956
-8.85793e-06
0.000212104
-4.29443e-06
0.000211926
3.46967e-07
0.000209381
5.08519e-06
0.000204428
9.91499e-06
0.000197217
1.44229e-05
0.000187809
1.88028e-05
0.000176331
2.29493e-05
0.000163009
2.66295e-05
0.000148004
2.99986e-05
0.000131627
3.27377e-05
0.00011412
3.50016e-05
9.57766e-05
3.66773e-05
7.68013e-05
3.79356e-05
5.75193e-05
3.85419e-05
3.82096e-05
3.86151e-05
1.90767e-05
3.8249e-05
3.83761e-07
3.73794e-05
-1.77497e-05
3.62521e-05
-3.50646e-05
3.46127e-05
-5.1526e-05
3.2914e-05
-6.69609e-05
3.08604e-05
-8.13476e-05
2.87658e-05
-9.46666e-05
2.66365e-05
-0.000106868
2.44011e-05
-0.000117987
2.22327e-05
-0.00012802
2.00595e-05
-0.000137047
1.80609e-05
-0.000145031
1.59631e-05
-0.000152027
1.39874e-05
-0.000158075
1.20962e-05
-0.000163232
1.03031e-05
-0.000167565
8.66815e-06
-0.000171034
6.93849e-06
-0.000173781
5.49501e-06
-0.000175849
4.13324e-06
-0.00017719
2.67874e-06
-0.000177919
1.46203e-06
-0.000177998
1.53966e-07
-0.000177502
-9.54617e-07
-0.000176471
-2.09057e-06
-0.000174891
-3.14855e-06
-0.000172736
-4.32929e-06
-0.000170035
-5.40079e-06
-0.00016677
-6.52968e-06
-0.000162958
-7.63367e-06
-0.000158584
-8.75304e-06
-0.000153648
-9.85749e-06
-0.000148108
-1.10803e-05
-0.000142
-1.22164e-05
-0.000135153
-1.36858e-05
-0.00012773
-1.4861e-05
-0.000119549
-1.6354e-05
-0.000110592
-1.79139e-05
-0.000100868
-1.94506e-05
-9.03388e-05
-2.10607e-05
-7.89738e-05
-2.27203e-05
-6.68175e-05
-2.43013e-05
-5.38557e-05
-2.59169e-05
-4.01266e-05
-2.74664e-05
-2.56949e-05
-2.88431e-05
-1.06369e-05
-3.01056e-05
4.99015e-06
-3.12399e-05
2.10914e-05
-3.21982e-05
3.74927e-05
-3.2796e-05
5.40782e-05
-3.31505e-05
7.06429e-05
-3.31226e-05
8.69996e-05
-3.26973e-05
0.000102908
-3.18069e-05
0.0001182
-3.05689e-05
0.000132607
-2.88002e-05
0.000145919
-2.66175e-05
0.000157835
-2.38187e-05
0.000168176
-2.06636e-05
0.000176681
-1.69931e-05
0.000183179
-1.29862e-05
0.000187529
-8.69745e-06
0.000189614
-4.16301e-06
0.000189364
4.94936e-07
0.000186797
5.1287e-06
0.000181901
9.79086e-06
0.000174825
1.41476e-05
0.000165685
1.82793e-05
0.000154672
2.20152e-05
0.000141993
2.53359e-05
0.000127914
2.81325e-05
0.000112625
3.058e-05
9.64477e-05
3.23392e-05
7.96046e-05
3.36745e-05
6.23738e-05
3.44515e-05
4.49967e-05
3.47406e-05
2.76915e-05
3.45954e-05
1.06852e-05
3.39966e-05
-5.8158e-06
3.29841e-05
-2.16544e-05
3.16676e-05
-3.66814e-05
3.00466e-05
-5.08253e-05
2.82856e-05
-6.40497e-05
2.64462e-05
-7.63564e-05
2.46063e-05
-8.7798e-05
2.28862e-05
-9.83569e-05
2.11111e-05
-0.000108148
1.95594e-05
-0.000117172
1.80668e-05
-0.000125368
1.63873e-05
-0.000132781
1.48213e-05
-0.000139387
1.3209e-05
-0.000145276
1.17786e-05
-0.000150414
1.02665e-05
-0.000154875
8.91854e-06
-0.00015867
7.59577e-06
-0.000161832
6.34918e-06
-0.000164496
5.30226e-06
-0.000166516
4.03667e-06
-0.000168043
3.0555e-06
-0.00016904
1.98751e-06
-0.000169567
1.0557e-06
-0.000169607
7.38866e-08
-0.000169171
-8.5195e-07
-0.000168283
-1.78386e-06
-0.000166896
-2.76345e-06
-0.000165041
-3.72063e-06
-0.00016273
-4.62793e-06
-0.000159931
-5.58728e-06
-0.000156697
-6.47486e-06
-0.000152918
-7.5593e-06
-0.000148633
-8.56474e-06
-0.000143785
-9.70601e-06
-0.000138337
-1.08923e-05
-0.000132257
-1.21619e-05
-0.000125571
-1.33735e-05
-0.000118191
-1.47577e-05
-0.000110165
-1.60424e-05
-0.00010145
-1.74553e-05
-9.20303e-05
-1.88066e-05
-8.18696e-05
-2.03221e-05
-7.09917e-05
-2.17481e-05
-5.93612e-05
-2.3256e-05
-4.70426e-05
-2.46391e-05
-3.39774e-05
-2.61142e-05
-2.03638e-05
-2.72226e-05
-6.10244e-06
-2.85048e-05
8.63016e-06
-2.94648e-05
2.37965e-05
-3.0321e-05
3.92612e-05
-3.09196e-05
5.48751e-05
-3.12232e-05
7.04145e-05
-3.10585e-05
8.57473e-05
-3.06613e-05
0.000100665
-2.9822e-05
0.000114966
-2.85944e-05
0.000128447
-2.69536e-05
0.000140884
-2.48564e-05
0.000152081
-2.23737e-05
0.000161828
-1.9481e-05
0.000169935
-1.62096e-05
0.000176239
-1.25974e-05
0.000180633
-8.78569e-06
0.000182963
-4.66753e-06
0.000183211
-4.86559e-07
0.000181343
3.7299e-06
0.000177324
8.02971e-06
0.000171279
1.20781e-05
0.000163323
1.59038e-05
0.000153618
1.94067e-05
0.000142361
2.25337e-05
0.000129676
2.5317e-05
0.000115918
2.7504e-05
0.000101266
2.93052e-05
8.60384e-05
3.04454e-05
7.04251e-05
3.12373e-05
5.46729e-05
3.14708e-05
3.90626e-05
3.12179e-05
2.37622e-05
3.05996e-05
8.72914e-06
3.0053e-05
-5.54425e-06
2.85368e-05
-1.92014e-05
2.73109e-05
-3.20795e-05
2.57555e-05
-4.41665e-05
2.41704e-05
-5.53405e-05
2.2339e-05
-6.5607e-05
2.05364e-05
-7.493e-05
1.86379e-05
-8.33671e-05
1.68819e-05
-9.09375e-05
1.51401e-05
-9.78008e-05
1.3724e-05
-0.000103898
1.22002e-05
-0.000109387
1.09781e-05
-0.000114415
1.00606e-05
-0.000118921
9.01713e-06
-0.000122974
8.1095e-06
-0.00012666
7.371e-06
-0.00012991
6.49832e-06
-0.00013284
5.86389e-06
-0.000135356
5.02737e-06
-0.000137453
4.18471e-06
-0.000139219
3.54416e-06
-0.000140585
2.73076e-06
-0.000141571
1.98526e-06
-0.000142177
1.19827e-06
-0.00014245
5.44455e-07
-0.00014224
-4.19971e-07
-0.000141707
-1.08809e-06
-0.00014064
-2.11335e-06
-0.00013917
-2.94018e-06
-0.000137315
-3.69904e-06
-0.000134793
-5.05725e-06
-0.000131801
-5.98701e-06
-0.000128189
-7.22318e-06
-0.000123845
-8.69004e-06
-0.000118818
-1.00531e-05
-0.000112899
-1.18403e-05
-0.000106196
-1.34101e-05
-9.86277e-05
-1.51347e-05
-9.00238e-05
-1.72148e-05
-8.05176e-05
-1.90028e-05
-7.00717e-05
-2.08936e-05
-5.86382e-05
-2.28494e-05
-4.61481e-05
-2.49903e-05
-3.27048e-05
-2.68835e-05
-1.82877e-05
-2.88295e-05
-3.23029e-06
-3.01092e-05
1.26105e-05
-3.16762e-05
2.91217e-05
-3.30149e-05
4.59822e-05
-3.37143e-05
6.3263e-05
-3.45528e-05
8.06133e-05
-3.46916e-05
9.79984e-05
-3.4754e-05
0.000115133
-3.42493e-05
0.000131733
-3.31906e-05
0.000147624
-3.17745e-05
0.000162623
-2.99912e-05
0.00017646
-2.76644e-05
0.000188954
-2.49813e-05
0.000199948
-2.19757e-05
0.000209215
-1.85302e-05
0.000216676
-1.49133e-05
0.000222164
-1.09727e-05
0.000225613
-6.88899e-06
0.000227014
-2.78854e-06
0.00022633
1.35741e-06
0.000223538
5.56627e-06
0.000218728
9.61624e-06
0.000211876
1.36998e-05
0.000203284
1.71774e-05
0.000192993
2.05759e-05
0.000181254
2.34672e-05
0.000168234
2.60347e-05
0.000153902
2.86576e-05
0.000138678
3.04324e-05
0.000122675
3.19977e-05
0.000105987
3.3366e-05
8.89588e-05
3.40475e-05
7.15837e-05
3.47412e-05
5.4164e-05
3.48316e-05
3.67834e-05
3.47531e-05
1.95558e-05
3.44482e-05
2.71945e-06
3.36685e-05
-1.38886e-05
3.3209e-05
3.19557e-05
-0.000138003
-2.25936e-05
-0.000129403
-2.58093e-05
-0.000119871
-2.86003e-05
-0.000109405
-3.1399e-05
-9.77592e-05
-3.49513e-05
-8.51403e-05
-3.78452e-05
-7.14168e-05
-4.11682e-05
-5.67408e-05
-4.40073e-05
-4.13138e-05
-4.62613e-05
-2.49443e-05
-4.90899e-05
-7.74492e-06
-5.15699e-05
9.95423e-06
-5.30366e-05
2.82778e-05
-5.494e-05
4.70058e-05
-5.61276e-05
6.59541e-05
-5.67959e-05
8.49459e-05
-5.694e-05
0.000103585
-5.58511e-05
0.00012173
-5.43804e-05
0.000139153
-5.22293e-05
0.000155502
-4.8977e-05
0.000170547
-4.50991e-05
0.0001841
-4.0595e-05
0.000195787
-3.50157e-05
0.000205505
-2.9133e-05
0.000213021
-2.25125e-05
0.000218173
-1.54274e-05
0.000220912
-8.20579e-06
0.0002211
-5.98891e-07
0.000218803
6.82093e-06
0.000214073
1.41688e-05
0.000206856
2.16416e-05
0.000197451
2.81746e-05
0.000186017
3.42468e-05
0.000172775
3.96919e-05
0.000157921
4.45056e-05
0.000141735
4.85194e-05
0.000124397
5.19723e-05
0.000106301
5.42032e-05
8.76097e-05
5.6042e-05
6.85695e-05
5.70688e-05
4.95304e-05
5.70668e-05
3.06765e-05
5.65173e-05
1.21539e-05
5.5527e-05
-5.85859e-06
5.40163e-05
-2.32399e-05
5.21177e-05
-3.9892e-05
4.99308e-05
-5.57003e-05
4.74077e-05
-7.06003e-05
4.46878e-05
-8.45652e-05
4.18795e-05
-9.75636e-05
3.89826e-05
-0.000109553
3.59627e-05
-0.000120568
3.30448e-05
-0.000130616
3.01344e-05
-0.000139736
2.73601e-05
-0.000147916
2.45506e-05
-0.000155193
2.18257e-05
-0.000161614
1.92577e-05
-0.000167173
1.66885e-05
-0.000171893
1.4177e-05
-0.000175801
1.17062e-05
-0.000178914
9.35702e-06
-0.000181306
7.17865e-06
-0.000182924
4.83592e-06
-0.00018377
2.55372e-06
-0.00018397
6.52835e-07
-0.000183348
-1.90177e-06
-0.000181884
-4.38273e-06
-0.000179736
-6.44766e-06
-0.000176738
-9.00595e-06
-0.000172893
-1.15289e-05
-0.000168293
-1.37984e-05
-0.000162832
-1.63909e-05
-0.000156516
-1.89484e-05
-0.000149335
-2.15644e-05
-0.000141351
-2.39216e-05
-0.000132493
-2.65563e-05
-0.000122715
-2.93562e-05
-0.000112085
-3.18868e-05
-0.000100632
-3.4339e-05
-8.84243e-05
-3.66333e-05
-7.53702e-05
-3.91406e-05
-6.16152e-05
-4.127e-05
-4.71378e-05
-4.34243e-05
-3.19394e-05
-4.55727e-05
-1.60824e-05
-4.75678e-05
3.81499e-07
-4.93738e-05
1.73356e-05
-5.08386e-05
3.474e-05
-5.21779e-05
5.24379e-05
-5.30786e-05
7.02475e-05
-5.33852e-05
8.80002e-05
-5.32182e-05
0.000105462
-5.23482e-05
0.000122379
-5.07129e-05
0.000138514
-4.83607e-05
0.000153619
-4.52858e-05
0.000167426
-4.13966e-05
0.000179741
-3.69117e-05
0.000190352
-3.17686e-05
0.00019903
-2.60354e-05
0.000205643
-1.98139e-05
0.000210082
-1.32967e-05
0.000212233
-6.44609e-06
0.000212035
5.45483e-07
0.000209472
7.64787e-06
0.000204526
1.48603e-05
0.000197306
2.16432e-05
0.000187879
2.82302e-05
0.000176421
3.44068e-05
0.000163048
4.00031e-05
0.000148034
4.5012e-05
0.00013163
4.91419e-05
0.000114101
5.25308e-05
9.57264e-05
5.50515e-05
7.67343e-05
5.69276e-05
5.74199e-05
5.78563e-05
3.80704e-05
5.79646e-05
1.89708e-05
5.73486e-05
2.46653e-07
5.61035e-05
-1.79036e-05
5.44024e-05
-3.52293e-05
5.19384e-05
-5.16924e-05
4.93771e-05
-6.71396e-05
4.63077e-05
-8.15303e-05
4.31565e-05
-9.48538e-05
3.99601e-05
-0.000107064
3.66113e-05
-0.000118177
3.33458e-05
-0.000128213
3.00949e-05
-0.000137228
2.70765e-05
-0.000145205
2.39395e-05
-0.000152193
2.09759e-05
-0.000158251
1.81538e-05
-0.000163407
1.54595e-05
-0.000167733
1.29941e-05
-0.000171211
1.04159e-05
-0.000173944
8.22849e-06
-0.000176015
6.20416e-06
-0.000177356
4.01949e-06
-0.000178077
2.18371e-06
-0.000178154
2.30875e-07
-0.000177649
-1.46013e-06
-0.000176628
-3.11168e-06
-0.000175022
-4.75396e-06
-0.000172884
-6.46801e-06
-0.000170189
-8.09539e-06
-0.000166922
-9.797e-06
-0.000163113
-1.14427e-05
-0.000158738
-1.31283e-05
-0.000153807
-1.47884e-05
-0.00014827
-1.66172e-05
-0.000142161
-1.83254e-05
-0.000135329
-2.05176e-05
-0.000127898
-2.22918e-05
-0.000119716
-2.45362e-05
-0.000110758
-2.68719e-05
-0.000101045
-2.91641e-05
-9.05076e-05
-3.15979e-05
-7.91345e-05
-3.40934e-05
-6.69909e-05
-3.6445e-05
-5.40187e-05
-3.88893e-05
-4.02899e-05
-4.11953e-05
-2.58507e-05
-4.32824e-05
-1.07723e-05
-4.51842e-05
4.86532e-06
-4.68776e-05
2.09902e-05
-4.83232e-05
3.74009e-05
-4.92068e-05
5.40068e-05
-4.97566e-05
7.05765e-05
-4.96924e-05
8.69605e-05
-4.90814e-05
0.000102881
-4.77276e-05
0.000118195
-4.58827e-05
0.000132618
-4.32239e-05
0.000145934
-3.9934e-05
0.000157879
-3.57638e-05
0.000168243
-3.10271e-05
0.000176758
-2.55088e-05
0.00018327
-1.94978e-05
0.00018764
-1.30678e-05
0.00018971
-6.23311e-06
0.000189462
7.42752e-07
0.00018688
7.71061e-06
0.000181981
1.46897e-05
0.00017489
2.12382e-05
0.000165741
2.74288e-05
0.000154711
3.30451e-05
0.000142016
3.80303e-05
0.000127902
4.22464e-05
0.000112604
4.58778e-05
9.64092e-05
4.85344e-05
7.95477e-05
5.05359e-05
6.22932e-05
5.17059e-05
4.48976e-05
5.21362e-05
2.75692e-05
5.19238e-05
1.05515e-05
5.10142e-05
-5.96078e-06
4.94964e-05
-2.18051e-05
4.7512e-05
-3.68518e-05
4.50933e-05
-5.09966e-05
4.24304e-05
-6.42217e-05
3.96713e-05
-7.65277e-05
3.69122e-05
-8.7964e-05
3.43225e-05
-9.85379e-05
3.16849e-05
-0.000108332
2.93536e-05
-0.000117333
2.70675e-05
-0.000125523
2.45774e-05
-0.000132945
2.22431e-05
-0.00013955
1.98148e-05
-0.000145427
1.76554e-05
-0.000150571
1.54104e-05
-0.000155033
1.33806e-05
-0.000158827
1.139e-05
-0.000161984
9.50599e-06
-0.000164648
7.96613e-06
-0.000166674
6.06217e-06
-0.000168198
4.57947e-06
-0.000169193
2.98316e-06
-0.000169698
1.56031e-06
-0.000169752
1.2777e-07
-0.000169312
-1.2921e-06
-0.000168431
-2.66493e-06
-0.000167025
-4.16858e-06
-0.000165193
-5.55346e-06
-0.00016287
-6.95097e-06
-0.000160074
-8.38331e-06
-0.000156836
-9.71226e-06
-0.000153064
-1.13313e-05
-0.000148785
-1.28442e-05
-0.000143942
-1.45485e-05
-0.000138496
-1.63388e-05
-0.000132419
-1.82389e-05
-0.000125731
-2.00616e-05
-0.000118354
-2.21345e-05
-0.000110314
-2.40821e-05
-0.000101621
-2.61489e-05
-9.21842e-05
-2.82434e-05
-8.201e-05
-3.04963e-05
-7.11345e-05
-3.26236e-05
-5.95048e-05
-3.48858e-05
-4.71867e-05
-3.69573e-05
-3.41356e-05
-3.91654e-05
-2.05059e-05
-4.08525e-05
-6.22884e-06
-4.27819e-05
8.51317e-06
-4.42069e-05
2.36881e-05
-4.54961e-05
3.91622e-05
-4.63938e-05
5.47678e-05
-4.68289e-05
7.03426e-05
-4.66333e-05
8.5684e-05
-4.60028e-05
0.000100626
-4.47637e-05
0.000114951
-4.29204e-05
0.000128437
-4.04394e-05
0.000140902
-3.73209e-05
0.00015211
-3.35828e-05
0.000161875
-2.92458e-05
0.00017
-2.43343e-05
0.000176314
-1.89118e-05
0.000180717
-1.31883e-05
0.000183044
-6.99531e-06
0.000183288
-7.30226e-07
0.000181404
5.6132e-06
0.000177386
1.20475e-05
0.000171339
1.81251e-05
0.000163375
2.38679e-05
0.000153655
2.91265e-05
0.000142386
3.38019e-05
0.00012968
3.80235e-05
0.000115916
4.12674e-05
0.000101258
4.39634e-05
8.60119e-05
4.56911e-05
7.04398e-05
4.68092e-05
5.46252e-05
4.72853e-05
3.90025e-05
4.68405e-05
2.37118e-05
4.58902e-05
8.66695e-06
4.50979e-05
-5.61341e-06
4.28172e-05
-1.92824e-05
4.098e-05
-3.21653e-05
3.86383e-05
-4.42499e-05
3.6255e-05
-5.54336e-05
3.35227e-05
-6.56897e-05
3.07926e-05
-7.50286e-05
2.79768e-05
-8.34569e-05
2.53102e-05
-9.10242e-05
2.27074e-05
-9.7881e-05
2.05808e-05
-0.000103963
1.8282e-05
-0.000109443
1.64583e-05
-0.000114469
1.50865e-05
-0.000118966
1.35142e-05
-0.000123016
1.2159e-05
-0.000126698
1.10538e-05
-0.000129946
9.74584e-06
-0.000132873
8.79136e-06
-0.000135395
7.54902e-06
-0.0001375
6.28968e-06
-0.000139254
5.29784e-06
-0.000140621
4.09774e-06
-0.000141599
2.96321e-06
-0.000142211
1.81122e-06
-0.000142485
8.18202e-07
-0.000142272
-6.33329e-07
-0.000141742
-1.61807e-06
-0.000140675
-3.1807e-06
-0.000139208
-4.40716e-06
-0.000137344
-5.5626e-06
-0.000134836
-7.5655e-06
-0.000131853
-8.97003e-06
-0.000128241
-1.08346e-05
-0.000123905
-1.30263e-05
-0.000118878
-1.50804e-05
-0.000112966
-1.77527e-05
-0.000106272
-2.01042e-05
-9.87021e-05
-2.27043e-05
-9.01157e-05
-2.58013e-05
-8.0595e-05
-2.85236e-05
-7.01533e-05
-3.13353e-05
-5.87043e-05
-3.42986e-05
-4.62207e-05
-3.7474e-05
-3.27738e-05
-4.03304e-05
-1.8352e-05
-4.32515e-05
-3.2875e-06
-4.51738e-05
1.2569e-05
-4.75327e-05
2.90981e-05
-4.95442e-05
4.59724e-05
-5.05887e-05
6.32723e-05
-5.18528e-05
8.06385e-05
-5.20579e-05
9.80426e-05
-5.21582e-05
0.000115198
-5.1405e-05
0.000131816
-4.98082e-05
0.00014773
-4.76889e-05
0.000162748
-4.50099e-05
0.000176611
-4.15275e-05
0.000189121
-3.74911e-05
0.000200133
-3.29879e-05
0.000209406
-2.78034e-05
0.000216881
-2.23886e-05
0.000222392
-1.64837e-05
0.00022585
-1.0347e-05
0.000227244
-4.18198e-06
0.000226517
2.08379e-06
0.000223695
8.38803e-06
0.000218875
1.44368e-05
0.000212017
2.05576e-05
0.000203412
2.57816e-05
0.000193112
3.08766e-05
0.000181358
3.5221e-05
0.000168323
3.90693e-05
0.000153978
4.30025e-05
0.000138738
4.5672e-05
0.000122723
4.80125e-05
0.000106019
5.00702e-05
8.89794e-05
5.10873e-05
7.15913e-05
5.21293e-05
5.41606e-05
5.22622e-05
3.67672e-05
5.21464e-05
1.95278e-05
5.16876e-05
2.68455e-06
5.05116e-05
-1.39385e-05
4.98319e-05
4.79468e-05
-0.000138112
-3.0119e-05
-0.000129516
-3.44058e-05
-0.000119986
-3.81303e-05
-0.000109521
-4.18646e-05
-9.78817e-05
-4.65903e-05
-8.52557e-05
-5.04713e-05
-7.15312e-05
-5.48928e-05
-5.68427e-05
-5.86959e-05
-4.14042e-05
-6.17e-05
-2.50233e-05
-6.5471e-05
-7.80822e-06
-6.87851e-05
9.93365e-06
-7.07786e-05
2.82845e-05
-7.3291e-05
4.704e-05
-7.48832e-05
6.60137e-05
-7.57697e-05
8.50326e-05
-7.5959e-05
0.000103706
-7.45242e-05
0.000121873
-7.25478e-05
0.00013933
-6.96869e-05
0.000155714
-6.53612e-05
0.000170783
-6.0168e-05
0.000184371
-5.41833e-05
0.000196085
-4.6729e-05
0.000205817
-3.88654e-05
0.000213357
-3.00528e-05
0.000218525
-2.05952e-05
0.000221255
-1.09356e-05
0.000221423
-7.66883e-07
0.00021909
9.15293e-06
0.000214344
1.8915e-05
0.000207119
2.88667e-05
0.000197691
3.76026e-05
0.000186226
4.5712e-05
0.000172964
5.29537e-05
0.000158078
5.9391e-05
0.000141869
6.47283e-05
0.000124511
6.93303e-05
0.00010636
7.23541e-05
8.76514e-05
7.4751e-05
6.8583e-05
7.61372e-05
4.95138e-05
7.61359e-05
3.06341e-05
7.5397e-05
1.20878e-05
7.40732e-05
-5.93867e-06
7.20427e-05
-2.33358e-05
6.95148e-05
-4.00026e-05
6.65975e-05
-5.58194e-05
6.32246e-05
-7.07277e-05
5.95961e-05
-8.4699e-05
5.58508e-05
-9.77004e-05
5.1984e-05
-0.000109696
4.79579e-05
-0.000120709
4.40585e-05
-0.000130757
4.01825e-05
-0.000139877
3.64793e-05
-0.000148055
3.27287e-05
-0.000155332
2.91025e-05
-0.000161753
2.56791e-05
-0.000167304
2.22399e-05
-0.000172014
1.88866e-05
-0.000175932
1.56244e-05
-0.000179043
1.24672e-05
-0.000181433
9.56877e-06
-0.000183058
6.46079e-06
-0.000183895
3.39115e-06
-0.00018404
7.9748e-07
-0.000183449
-2.49271e-06
-0.000181983
-5.84829e-06
-0.00017983
-8.60129e-06
-0.00017684
-1.19959e-05
-0.000172997
-1.53715e-05
-0.000168395
-1.84012e-05
-0.00016294
-2.18456e-05
-0.000156623
-2.5265e-05
-0.000149462
-2.87256e-05
-0.000141458
-3.19261e-05
-0.000132582
-3.54325e-05
-0.000122824
-3.91141e-05
-0.000112194
-4.25171e-05
-0.00010073
-4.58034e-05
-8.85279e-05
-4.88352e-05
-7.54655e-05
-5.22031e-05
-6.17154e-05
-5.50202e-05
-4.7233e-05
-5.79068e-05
-3.20284e-05
-6.07774e-05
-1.61692e-05
-6.34272e-05
3.0501e-07
-6.58481e-05
1.72658e-05
-6.77995e-05
3.46883e-05
-6.96004e-05
5.23918e-05
-7.07822e-05
7.02235e-05
-7.1217e-05
8.79946e-05
-7.09892e-05
0.000105482
-6.98352e-05
0.000122423
-6.76543e-05
0.000138581
-6.45188e-05
0.000153684
-6.03885e-05
0.000167519
-5.52316e-05
0.000179851
-4.9244e-05
0.000190474
-4.23915e-05
0.00019918
-3.47414e-05
0.000205802
-2.6436e-05
0.000210247
-1.77413e-05
0.000212393
-8.59196e-06
0.000212173
7.65462e-07