/*--------------------------------*- C++ -*----------------------------------*\
| =========                 |                                                 |
| \\      /  F ield         | OpenFOAM: The Open Source CFD Toolbox           |
|  \\    /   O peration     | Version:  3.0.1                                 |
|   \\  /    A nd           | Web:      www.OpenFOAM.org                      |
|    \\/     M anipulation  |                                                 |
\*---------------------------------------------------------------------------*/
FoamFile
{
    version     2.0;
    format      ascii;
    class       surfaceScalarField;
    location    "45.4";
    object      phi;
}
// * * * * * * * * * * * * * * * * * * * * * * * * * * * * * * * * * * * * * //

dimensions      [0 3 -1 0 0 0 0];

internalField   nonuniform List<scalar> 
42423
(
-0.000140048
-7.31641e-06
-0.000131671
-8.3772e-06
-0.000122373
-9.2982e-06
-0.000112148
-1.02255e-05
-0.000100743
-1.14047e-05
-8.838e-05
-1.2363e-05
-7.49033e-05
-1.34767e-05
-6.0478e-05
-1.44254e-05
-4.52872e-05
-1.51908e-05
-2.91374e-05
-1.61499e-05
-1.21413e-05
-1.69961e-05
5.36979e-06
-1.75112e-05
2.35523e-05
-1.81825e-05
4.21645e-05
-1.86123e-05
6.10521e-05
-1.88876e-05
8.00482e-05
-1.89961e-05
9.87293e-05
-1.86812e-05
0.000116983
-1.82541e-05
0.000134596
-1.76129e-05
0.000151184
-1.6588e-05
0.000166554
-1.53701e-05
0.000180482
-1.39281e-05
0.000192612
-1.21298e-05
0.000202845
-1.02334e-05
0.000210917
-8.07234e-06
0.000216662
-5.74462e-06
0.000220024
-3.36224e-06
0.000220878
-8.53977e-07
0.000219273
1.60502e-06
0.000215186
4.08671e-06
0.000208564
6.62235e-06
0.000199737
8.82705e-06
0.000188838
1.08986e-05
0.000176067
1.27711e-05
0.000161637
1.44295e-05
0.000145796
1.58416e-05
0.000128742
1.70535e-05
0.000110887
1.78557e-05
9.2338e-05
1.85486e-05
7.33931e-05
1.89449e-05
5.43885e-05
1.90046e-05
3.55148e-05
1.88736e-05
1.69244e-05
1.85904e-05
-1.20369e-06
1.8128e-05
-1.87386e-05
1.75349e-05
-3.55704e-05
1.68318e-05
-5.15841e-05
1.60137e-05
-6.67081e-05
1.5124e-05
-8.09052e-05
1.4197e-05
-9.4144e-05
1.32389e-05
-0.000106379
1.22348e-05
-0.000117642
1.12631e-05
-0.000127934
1.0292e-05
-0.000137299
9.36464e-06
-0.000145719
8.42042e-06
-0.000153222
7.50302e-06
-0.000159866
6.64426e-06
-0.000165649
5.78292e-06
-0.000170587
4.9374e-06
-0.000174693
4.10677e-06
-0.00017802
3.32635e-06
-0.000180611
2.59138e-06
-0.000182413
1.80166e-06
-0.000183454
1.04099e-06
-0.00018388
4.2585e-07
-0.000183438
-4.42015e-07
-0.000182176
-1.26213e-06
-0.000180223
-1.95265e-06
-0.000177418
-2.80474e-06
-0.000173781
-3.63713e-06
-0.00016939
-4.39108e-06
-0.000164137
-5.25323e-06
-0.000158034
-6.10238e-06
-0.000151063
-6.97168e-06
-0.000143316
-7.74698e-06
-0.00013469
-8.62548e-06
-0.000125121
-9.5691e-06
-0.000114715
-1.04061e-05
-0.000103496
-1.12195e-05
-9.14986e-05
-1.19971e-05
-7.86682e-05
-1.28305e-05
-6.51151e-05
-1.35532e-05
-5.08334e-05
-1.42817e-05
-3.5828e-05
-1.50055e-05
-2.01351e-05
-1.5693e-05
-3.84994e-06
-1.62852e-05
1.29856e-05
-1.68356e-05
3.02723e-05
-1.72867e-05
4.78982e-05
-1.7626e-05
6.56668e-05
-1.77688e-05
8.34312e-05
-1.77644e-05
0.000100962
-1.75306e-05
0.000118006
-1.70445e-05
0.000134321
-1.63148e-05
0.000149674
-1.53534e-05
0.000163802
-1.41283e-05
0.000176488
-1.26855e-05
0.000187508
-1.10204e-05
0.000196683
-9.17548e-06
0.000203818
-7.13455e-06
0.000208815
-4.9969e-06
0.000211557
-2.74243e-06
0.000211984
-4.27124e-07
0.00021007
1.91404e-06
0.000205715
4.35463e-06
0.000199082
6.63386e-06
0.000190236
8.84572e-06
0.000179273
1.09631e-05
0.000166423
1.28496e-05
0.000151828
1.45948e-05
0.000135802
1.60261e-05
0.000118574
1.72277e-05
0.000100437
1.81371e-05
8.16038e-05
1.88334e-05
6.24027e-05
1.9201e-05
4.3092e-05
1.93107e-05
2.39114e-05
1.91805e-05
5.10117e-06
1.88103e-05
-1.31718e-05
1.82729e-05
-3.06681e-05
1.74963e-05
-4.73484e-05
1.66802e-05
-6.3023e-05
1.56746e-05
-7.76658e-05
1.46427e-05
-9.12554e-05
1.35896e-05
-0.000103731
1.24753e-05
-0.000115118
1.13876e-05
-0.000125415
1.0297e-05
-0.000134713
9.29747e-06
-0.000142946
8.23317e-06
-0.000150182
7.23552e-06
-0.000156462
6.28095e-06
-0.00016183
5.36768e-06
-0.000166376
4.54613e-06
-0.000170045
3.66844e-06
-0.000172981
2.93668e-06
-0.000175225
2.24366e-06
-0.000176732
1.50694e-06
-0.00017762
8.88073e-07
-0.000177852
2.317e-07
-0.000177543
-3.08606e-07
-0.000176629
-9.14558e-07
-0.000175203
-1.4256e-06
-0.000173172
-2.03082e-06
-0.000170618
-2.55434e-06
-0.000167502
-3.11611e-06
-0.000163834
-3.66772e-06
-0.000159615
-4.21869e-06
-0.00015486
-4.75558e-06
-0.000149495
-5.36513e-06
-0.000143568
-5.92705e-06
-0.000136917
-6.65086e-06
-0.000129674
-7.24264e-06
-0.000121703
-7.97097e-06
-0.000112953
-8.75082e-06
-0.000103437
-9.51567e-06
-9.31174e-05
-1.03196e-05
-8.19741e-05
-1.11434e-05
-7.00375e-05
-1.19366e-05
-5.72838e-05
-1.27537e-05
-4.37376e-05
-1.35462e-05
-2.95025e-05
-1.42352e-05
-1.46113e-05
-1.48913e-05
8.69178e-07
-1.54805e-05
1.68637e-05
-1.59945e-05
3.31917e-05
-1.63282e-05
4.97315e-05
-1.65398e-05
6.6311e-05
-1.65795e-05
8.27252e-05
-1.64143e-05
9.87533e-05
-1.60282e-05
0.000114219
-1.54661e-05
0.000128864
-1.46452e-05
0.000142484
-1.36196e-05
0.000154764
-1.22802e-05
0.000165522
-1.07577e-05
0.000174499
-8.97678e-06
0.00018152
-7.02171e-06
0.000186436
-4.916e-06
0.000189107
-2.67121e-06
0.000189457
-3.50049e-07
0.000187512
1.94535e-06
0.000183211
4.30094e-06
0.000176698
6.51269e-06
0.00016808
8.61814e-06
0.00015755
1.05301e-05
0.000145305
1.22445e-05
0.000131601
1.37038e-05
0.000116594
1.50077e-05
0.000100646
1.59479e-05
8.39619e-05
1.66838e-05
6.68244e-05
1.71374e-05
4.9484e-05
1.73404e-05
3.21618e-05
1.73221e-05
1.50904e-05
1.70714e-05
-1.51637e-06
1.66068e-05
-1.75047e-05
1.59883e-05
-3.27122e-05
1.52074e-05
-4.70632e-05
1.4351e-05
-6.05092e-05
1.3446e-05
-7.30422e-05
1.2533e-05
-8.47239e-05
1.16818e-05
-9.55136e-05
1.07897e-05
-0.000105516
1.00025e-05
-0.000114788
9.27217e-06
-0.000123202
8.41364e-06
-0.000130823
7.62135e-06
-0.000137631
6.80809e-06
-0.000143717
6.08509e-06
-0.00014903
5.31382e-06
-0.000153663
4.63222e-06
-0.000157626
3.9639e-06
-0.000160969
3.34214e-06
-0.000163752
2.78352e-06
-0.000165906
2.15373e-06
-0.000167566
1.65971e-06
-0.000168681
1.11523e-06
-0.000169326
6.45652e-07
-0.00016948
1.53492e-07
-0.000169181
-2.99384e-07
-0.000168402
-7.78933e-07
-0.000167145
-1.25689e-06
-0.000165401
-1.74358e-06
-0.000163211
-2.19013e-06
-0.000160556
-2.65556e-06
-0.000157453
-3.10211e-06
-0.000153817
-3.63662e-06
-0.000149688
-4.12866e-06
-0.000144988
-4.70053e-06
-0.000139707
-5.28089e-06
-0.000133797
-5.9098e-06
-0.000127288
-6.50897e-06
-0.000120095
-7.19273e-06
-0.00011227
-7.82517e-06
-0.000103726
-8.54439e-06
-9.45374e-05
-9.18853e-06
-8.45752e-05
-9.9622e-06
-7.39024e-05
-1.06728e-05
-6.247e-05
-1.14324e-05
-5.03352e-05
-1.21348e-05
-3.74604e-05
-1.28748e-05
-2.401e-05
-1.34505e-05
-9.90474e-06
-1.41053e-05
4.7123e-06
-1.46171e-05
1.97815e-05
-1.50693e-05
3.51855e-05
-1.5404e-05
5.07831e-05
-1.55977e-05
6.63342e-05
-1.55511e-05
8.17419e-05
-1.54078e-05
9.67768e-05
-1.50349e-05
0.000111253
-1.44761e-05
0.000124964
-1.37115e-05
0.000137677
-1.27127e-05
0.000149201
-1.15237e-05
0.000159332
-1.01316e-05
0.000167879
-8.54661e-06
0.000174656
-6.77696e-06
0.000179562
-4.90586e-06
0.000182435
-2.87326e-06
0.00018321
-7.74928e-07
0.000181903
1.30672e-06
0.000178435
3.46825e-06
0.000172912
5.52295e-06
0.000165443
7.46865e-06
0.000156178
9.2648e-06
0.000145289
1.08892e-05
0.00013299
1.22987e-05
0.00011952
1.34703e-05
0.000105082
1.44379e-05
9.00195e-05
1.50623e-05
7.44929e-05
1.55266e-05
5.88171e-05
1.56757e-05
4.32022e-05
1.56149e-05
2.78524e-05
1.53498e-05
1.27483e-05
1.51041e-05
-1.63012e-06
1.43784e-05
-1.54259e-05
1.37957e-05
-2.84621e-05
1.30362e-05
-4.07183e-05
1.22562e-05
-5.20676e-05
1.13494e-05
-6.25272e-05
1.04595e-05
-7.20358e-05
9.50859e-06
-8.06738e-05
8.63803e-06
-8.84356e-05
7.76178e-06
-9.54839e-05
7.04825e-06
-0.000101769
6.28555e-06
-0.000107437
5.66804e-06
-0.000112641
5.20375e-06
-0.000117318
4.677e-06
-0.000121534
4.21587e-06
-0.000125373
3.83899e-06
-0.00012877
3.39693e-06
-0.000131847
3.07722e-06
-0.000134496
2.6486e-06
-0.000136716
2.22032e-06
-0.000138621
1.90474e-06
-0.000140109
1.48768e-06
-0.000141226
1.11701e-06
-0.000141931
7.05238e-07
-0.000142315
3.84343e-07
-0.000142234
-8.07433e-08
-0.000141801
-4.33472e-07
-0.000140883
-9.18019e-07
-0.000139546
-1.33693e-06
-0.000137841
-1.70533e-06
-0.000135458
-2.38315e-06
-0.000132623
-2.83419e-06
-0.000129184
-3.43946e-06
-0.000125023
-4.16114e-06
-0.000120194
-4.82894e-06
-0.000114482
-5.71162e-06
-0.000107998
-6.48414e-06
-0.000100663
-7.33544e-06
-9.22917e-05
-8.37108e-06
-8.30421e-05
-9.24963e-06
-7.28432e-05
-1.0199e-05
-6.16745e-05
-1.11687e-05
-4.94184e-05
-1.22561e-05
-3.62121e-05
-1.32063e-05
-2.20224e-05
-1.41898e-05
-7.17409e-06
-1.48483e-05
8.48932e-06
-1.56635e-05
2.48482e-05
-1.63589e-05
4.15906e-05
-1.67424e-05
5.87936e-05
-1.72031e-05
7.611e-05
-1.73164e-05
9.35047e-05
-1.73948e-05
0.000110699
-1.71941e-05
0.00012742
-1.67217e-05
0.000143493
-1.60725e-05
0.000158732
-1.52387e-05
0.000172858
-1.41265e-05
0.000185698
-1.28402e-05
0.000197082
-1.13839e-05
0.000206788
-9.70566e-06
0.00021472
-7.93206e-06
0.000220712
-5.99256e-06
0.00022468
-3.96824e-06
0.000226602
-1.92182e-06
0.000226468
1.34349e-07
0.000224254
2.21338e-06
0.000219977
4.27762e-06
0.000213629
6.3472e-06
0.000205512
8.1174e-06
0.000195656
9.85595e-06
0.000184315
1.13412e-05
0.000171642
1.26731e-05
0.000157608
1.40336e-05
0.000142643
1.49649e-05
0.000126842
1.5801e-05
0.000110305
1.65369e-05
9.33763e-05
1.69287e-05
7.60511e-05
1.73252e-05
5.86341e-05
1.7417e-05
4.12031e-05
1.74309e-05
2.3864e-05
1.73391e-05
6.84445e-06
1.70195e-05
-9.84059e-06
1.6685e-05
1.61464e-05
-0.000140088
-1.46283e-05
-0.000131714
-1.67512e-05
-0.000122418
-1.85941e-05
-0.000112195
-2.04492e-05
-0.000100793
-2.28066e-05
-8.84276e-05
-2.47282e-05
-7.49495e-05
-2.69549e-05
-6.05197e-05
-2.88553e-05
-4.53266e-05
-3.0384e-05
-2.91706e-05
-3.2306e-05
-1.21694e-05
-3.39975e-05
5.34257e-06
-3.50232e-05
2.35317e-05
-3.63718e-05
4.21575e-05
-3.72382e-05
6.106e-05
-3.77902e-05
8.00645e-05
-3.80008e-05
9.87589e-05
-3.73757e-05
0.000117033
-3.65287e-05
0.000134655
-3.52342e-05
0.000151252
-3.3185e-05
0.000166631
-3.07495e-05
0.000180577
-2.78739e-05
0.000192725
-2.42788e-05
0.000202966
-2.04741e-05
0.000211038
-1.61442e-05
0.000216785
-1.14922e-05
0.00022015
-6.72731e-06
0.000221008
-1.71209e-06
0.000219393
3.22028e-06
0.000215303
8.17702e-06
0.000208679
1.32459e-05
0.000199843
1.76629e-05
0.000188934
2.18075e-05
0.000176155
2.55504e-05
0.000161713
2.88714e-05
0.000145863
3.16915e-05
0.000128797
3.41194e-05
0.000110925
3.57273e-05
9.23688e-05
3.71051e-05
7.3411e-05
3.79026e-05
5.43952e-05
3.80203e-05
3.55116e-05
3.77572e-05
1.69121e-05
3.71899e-05
-1.22035e-06
3.62605e-05
-1.87621e-05
3.50766e-05
-3.56015e-05
3.36713e-05
-5.16197e-05
3.20318e-05
-6.67465e-05
3.02508e-05
-8.09493e-05
2.83998e-05
-9.41917e-05
2.64812e-05
-0.000106433
2.44758e-05
-0.000117702
2.2532e-05
-0.000127993
2.05836e-05
-0.000137357
1.87282e-05
-0.000145782
1.6846e-05
-0.000153293
1.50138e-05
-0.000159935
1.32867e-05
-0.000165718
1.15656e-05
-0.000170662
9.88142e-06
-0.000174768
8.21235e-06
-0.00017809
6.64812e-06
-0.000180682
5.18394e-06
-0.000182488
3.60795e-06
-0.000183532
2.08494e-06
-0.00018395
8.4394e-07
-0.000183508
-8.84785e-07
-0.000182245
-2.5249e-06
-0.000180293
-3.90463e-06
-0.000177489
-5.60891e-06
-0.000173852
-7.27419e-06
-0.000169459
-8.784e-06
-0.000164203
-1.05096e-05
-0.000158103
-1.22017e-05
-0.000151128
-1.39471e-05
-0.000143376
-1.54994e-05
-0.000134746
-1.72552e-05
-0.00012518
-1.9135e-05
-0.000114774
-2.08125e-05
-0.000103547
-2.24466e-05
-9.15497e-05
-2.39941e-05
-7.87139e-05
-2.56664e-05
-6.51576e-05
-2.71096e-05
-5.08749e-05
-2.85645e-05
-3.58601e-05
-3.00203e-05
-2.01641e-05
-3.13891e-05
-3.86965e-06
-3.25799e-05
1.29716e-05
-3.3677e-05
3.02659e-05
-3.45811e-05
4.79032e-05
-3.52635e-05
6.56824e-05
-3.55481e-05
8.34555e-05
-3.55376e-05
0.000100992
-3.50676e-05
0.000118041
-3.40931e-05
0.000134371
-3.26454e-05
0.000149741
-3.0723e-05
0.000163867
-2.82543e-05
0.000176562
-2.53806e-05
0.000187593
-2.20515e-05
0.000196768
-1.83507e-05
0.000203912
-1.42787e-05
0.000208917
-1.0002e-05
0.00021166
-5.4859e-06
0.000212082
-8.49761e-07
0.000210161
3.83508e-06
0.000205815
8.70084e-06
0.000199184
1.32646e-05
0.000190327
1.77031e-05
0.000179357
2.19324e-05
0.000166493
2.57141e-05
0.000151888
2.91997e-05
0.000135846
3.20678e-05
0.000118606
3.44678e-05
0.000100459
3.62837e-05
8.16107e-05
3.76816e-05
6.23874e-05
3.84242e-05
4.30722e-05
3.86259e-05
2.38749e-05
3.83778e-05
5.05733e-06
3.76278e-05
-1.32302e-05
3.65604e-05
-3.07443e-05
3.50104e-05
-4.74337e-05
3.33697e-05
-6.3118e-05
3.13589e-05
-7.77686e-05
2.92933e-05
-9.13599e-05
2.71809e-05
-0.000103837
2.49521e-05
-0.000115231
2.27816e-05
-0.000125534
2.06003e-05
-0.000134824
1.85876e-05
-0.000143062
1.64714e-05
-0.000150302
1.44755e-05
-0.000156584
1.25623e-05
-0.000161963
1.07468e-05
-0.000166505
9.08866e-06
-0.000170174
7.33672e-06
-0.00017311
5.87245e-06
-0.000175356
4.49048e-06
-0.000176866
3.01641e-06
-0.000177752
1.77402e-06
-0.000177986
4.65499e-07
-0.000177639
-6.54773e-07
-0.000176754
-1.80018e-06
-0.000175317
-2.86237e-06
-0.000173305
-4.04316e-06
-0.000170749
-5.11014e-06
-0.000167633
-6.23212e-06
-0.000163975
-7.32608e-06
-0.00015976
-8.43293e-06
-0.000154992
-9.52398e-06
-0.000149626
-1.07315e-05
-0.000143699
-1.18538e-05
-0.000137041
-1.33089e-05
-0.000129814
-1.447e-05
-0.000121833
-1.59517e-05
-0.000113083
-1.75006e-05
-0.00010357
-1.90295e-05
-9.3253e-05
-2.06363e-05
-8.20997e-05
-2.22968e-05
-7.01519e-05
-2.38845e-05
-5.73915e-05
-2.55142e-05
-4.38536e-05
-2.70843e-05
-2.95982e-05
-2.84908e-05
-1.46969e-05
-2.97927e-05
7.97707e-07
-3.09752e-05
1.67966e-05
-3.19936e-05
3.31313e-05
-3.2663e-05
4.96916e-05
-3.31002e-05
6.62779e-05
-3.3166e-05
8.27083e-05
-3.28448e-05
9.87463e-05
-3.20663e-05
0.000114228
-3.09483e-05
0.000128887
-2.93038e-05
0.000142514
-2.72472e-05
0.000154806
-2.45725e-05
0.000165583
-2.15347e-05
0.000174577
-1.79707e-05
0.000181609
-1.40542e-05
0.00018653
-9.83653e-06
0.000189208
-5.34998e-06
0.000189556
-6.97776e-07
0.000187605
3.89588e-06
0.000183302
8.60455e-06
0.000176787
1.30275e-05
0.000168169
1.72357e-05
0.000157628
2.10715e-05
0.000145363
2.45088e-05
0.000131634
2.7433e-05
0.000116627
3.00144e-05
0.000100665
3.19103e-05
8.39691e-05
3.33792e-05
6.68215e-05
3.4285e-05
4.94674e-05
3.46944e-05
3.21301e-05
3.46594e-05
1.50424e-05
3.4159e-05
-1.58251e-06
3.32316e-05
-1.75807e-05
3.19865e-05
-3.27958e-05
3.04225e-05
-4.71492e-05
2.87044e-05
-6.05982e-05
2.68949e-05
-7.31385e-05
2.50732e-05
-8.48176e-05
2.33609e-05
-9.5614e-05
2.15861e-05
-0.00010564
2.00285e-05
-0.000114893
1.85247e-05
-0.000123311
1.68315e-05
-0.000130939
1.52493e-05
-0.00013775
1.36192e-05
-0.000143834
1.21693e-05
-0.000149157
1.06365e-05
-0.000153792
9.26726e-06
-0.000157751
7.9235e-06
-0.000161067
6.65806e-06
-0.000163876
5.59225e-06
-0.000166033
4.31098e-06
-0.000167691
3.31749e-06
-0.000168813
2.23701e-06
-0.000169458
1.29068e-06
-0.000169616
3.12129e-07
-0.000169298
-6.17878e-07
-0.000168526
-1.55044e-06
-0.000167258
-2.52543e-06
-0.000165526
-3.47558e-06
-0.000163342
-4.37396e-06
-0.000160676
-5.32215e-06
-0.000157579
-6.19873e-06
-0.000153945
-7.27094e-06
-0.00014981
-8.263e-06
-0.000145119
-9.39152e-06
-0.000139836
-1.05644e-05
-0.000133927
-1.18188e-05
-0.00012742
-1.30163e-05
-0.000120225
-1.43873e-05
-0.000112391
-1.56596e-05
-0.000103872
-1.70636e-05
-9.46499e-05
-1.84103e-05
-8.46884e-05
-1.99238e-05
-7.4008e-05
-2.13532e-05
-6.25705e-05
-2.287e-05
-5.04375e-05
-2.42679e-05
-3.75468e-05
-2.57657e-05
-2.40918e-05
-2.69056e-05
-9.96927e-06
-2.82279e-05
4.64847e-06
-2.92349e-05
1.97294e-05
-3.01503e-05
3.51432e-05
-3.0818e-05
5.07455e-05
-3.12001e-05
6.63169e-05
-3.11226e-05
8.17291e-05
-3.082e-05
9.67765e-05
-3.00825e-05
0.000111262
-2.89617e-05
0.000124981
-2.74303e-05
0.000137711
-2.54436e-05
0.000149256
-2.30687e-05
0.000159402
-2.02774e-05
0.000167954
-1.70984e-05
0.000174741
-1.35644e-05
0.00017965
-9.81472e-06
0.000182516
-5.73972e-06
0.000183304
-1.56237e-06
0.00018199
2.62068e-06
0.000178513
6.94474e-06
0.000172979
1.10564e-05
0.000165503
1.4945e-05
0.000156236
1.85317e-05
0.000145368
2.17569e-05
0.000133017
2.46495e-05
0.000119534
2.69531e-05
0.000105098
2.8874e-05
9.00262e-05
3.01345e-05
7.45104e-05
3.10423e-05
5.88011e-05
3.13851e-05
4.31832e-05
3.12327e-05
2.7832e-05
3.0701e-05
1.27147e-05
3.02213e-05
-1.67333e-06
2.87664e-05
-1.54728e-05
2.75952e-05
-2.85099e-05
2.60734e-05
-4.07701e-05
2.45163e-05
-5.21284e-05
2.27077e-05
-6.25849e-05
2.0916e-05
-7.21016e-05
1.90253e-05
-8.07321e-05
1.72686e-05
-8.84947e-05
1.55244e-05
-9.55456e-05
1.40991e-05
-0.000101826
1.25662e-05
-0.000107493
1.13349e-05
-0.000112693
1.04036e-05
-0.000117364
9.34774e-06
-0.000121578
8.43005e-06
-0.000125418
7.6788e-06
-0.000128816
6.79559e-06
-0.000131889
6.14964e-06
-0.000134542
5.30139e-06
-0.000136771
4.44967e-06
-0.000138665
3.79845e-06
-0.000140153
2.97561e-06
-0.000141258
2.22236e-06
-0.000141978
1.42508e-06
-0.000142364
7.70949e-07
-0.000142282
-1.63488e-07
-0.00014187
-8.45617e-07
-0.000140931
-1.85702e-06
-0.000139595
-2.67271e-06
-0.000137878
-3.42217e-06
-0.000135508
-4.75362e-06
-0.000132677
-5.6651e-06
-0.000129237
-6.87931e-06
-0.000125078
-8.3199e-06
-0.000120247
-9.65961e-06
-0.000114539
-1.142e-05
-0.000108058
-1.29656e-05
-0.000100721
-1.46723e-05
-9.2357e-05
-1.67351e-05
-8.30979e-05
-1.85088e-05
-7.29007e-05
-2.03962e-05
-6.17147e-05
-2.23549e-05
-4.94687e-05
-2.45022e-05
-3.62593e-05
-2.64157e-05
-2.20648e-05
-2.83844e-05
-7.21089e-06
-2.97023e-05
8.45776e-06
-3.13322e-05
2.48238e-05
-3.2725e-05
4.15727e-05
-3.34915e-05
5.87846e-05
-3.4415e-05
7.611e-05
-3.46419e-05
9.35207e-05
-3.48057e-05
0.000110735
-3.44086e-05
0.000127466
-3.34523e-05
0.000143546
-3.21529e-05
0.000158793
-3.04855e-05
0.000172928
-2.82625e-05
0.000185775
-2.56871e-05
0.000197171
-2.278e-05
0.000206883
-1.94175e-05
0.000214823
-1.58726e-05
0.00022082
-1.19896e-05
0.000224796
-7.94424e-06
0.000226731
-3.85722e-06
0.000226591
2.74788e-07
0.000224359
4.44543e-06
0.000220077
8.55957e-06
0.000213726
1.26975e-05
0.000205602
1.62413e-05
0.00019574
1.97178e-05
0.00018439
2.26914e-05
0.000171711
2.53525e-05
0.000157671
2.80734e-05
0.000142691
2.99444e-05
0.000126882
3.16104e-05
0.000110334
3.30846e-05
9.3397e-05
3.38655e-05
7.60628e-05
3.46593e-05
5.86382e-05
3.48416e-05
4.11994e-05
3.48696e-05
2.3854e-05
3.46845e-05
6.83172e-06
3.40417e-05
-9.86291e-06
3.33796e-05
3.22997e-05
-0.00014016
-2.19381e-05
-0.000131789
-2.51226e-05
-0.000122494
-2.78887e-05
-0.000112271
-3.06725e-05
-0.000100874
-3.42036e-05
-8.85046e-05
-3.70978e-05
-7.50263e-05
-4.04332e-05
-6.05888e-05
-4.32929e-05
-4.53875e-05
-4.55855e-05
-2.92258e-05
-4.84678e-05
-1.22141e-05
-5.10092e-05
5.32717e-06
-5.25647e-05
2.35282e-05
-5.4573e-05
4.2175e-05
-5.58851e-05
6.10943e-05
-5.67096e-05
8.0112e-05
-5.70186e-05
9.88327e-05
-5.60965e-05
0.000117124
-5.48199e-05
0.000134761
-5.28718e-05
0.000151388
-4.98118e-05
0.000166781
-4.61428e-05
0.000180751
-4.18438e-05
0.000192914
-3.64427e-05
0.000203162
-3.07216e-05
0.000211254
-2.42367e-05
0.000217015
-1.72529e-05
0.000220383
-1.00953e-05
0.000221235
-2.56419e-06
0.000219584
4.87088e-06
0.000215483
1.22783e-05
0.000208857
1.98713e-05
0.000200007
2.65132e-05
0.000189077
3.27371e-05
0.000176285
3.8342e-05
0.000161822
4.33342e-05
0.000145958
4.75562e-05
0.000128876
5.1201e-05
0.00011097
5.36332e-05
9.24015e-05
5.56735e-05
7.34239e-05
5.68802e-05
5.4388e-05
5.70562e-05
3.54868e-05
5.66583e-05
1.68712e-05
5.58055e-05
-1.27028e-06
5.44019e-05
-1.88224e-05
5.26287e-05
-3.56712e-05
5.05201e-05
-5.16962e-05
4.80567e-05
-6.68281e-05
4.53828e-05
-8.10361e-05
4.26078e-05
-9.42832e-05
3.97283e-05
-0.000106525
3.67173e-05
-0.000117791
3.3798e-05
-0.000128087
3.08796e-05
-0.000137451
2.80924e-05
-0.00014587
2.52653e-05
-0.000153378
2.25219e-05
-0.000160025
1.99334e-05
-0.000165803
1.73432e-05
-0.000170735
1.48137e-05
-0.000174849
1.23265e-05
-0.000178165
9.96379e-06
-0.000180755
7.77372e-06
-0.000182568
5.42099e-06
-0.000183604
3.12176e-06
-0.000183998
1.23771e-06
-0.000183574
-1.30911e-06
-0.000182306
-3.79292e-06
-0.000180355
-5.8555e-06
-0.000177557
-8.40707e-06
-0.000173917
-1.09141e-05
-0.000169524
-1.31773e-05
-0.000164273
-1.57601e-05
-0.000158172
-1.83026e-05
-0.000151209
-2.09106e-05
-0.000143445
-2.32633e-05
-0.000134808
-2.58924e-05
-0.000125252
-2.86911e-05
-0.000114844
-3.12209e-05
-0.000103611
-3.36793e-05
-9.1619e-05
-3.59862e-05
-7.87751e-05
-3.85104e-05
-6.5223e-05
-4.06618e-05
-5.0937e-05
-4.28506e-05
-3.59157e-05
-4.50417e-05
-2.02176e-05
-4.70873e-05
-3.90694e-06
-4.88906e-05
1.29306e-05
-5.05147e-05
3.0236e-05
-5.18866e-05
4.78745e-05
-5.29021e-05
6.56698e-05
-5.33436e-05
8.3458e-05
-5.33259e-05
0.00010101
-5.26197e-05
0.000118076
-5.1159e-05
0.000134419
-4.89891e-05
0.000149796
-4.60993e-05
0.000163936
-4.23946e-05
0.000176642
-3.80874e-05
0.000187701
-3.31102e-05
0.000196876
-2.75264e-05
0.000204029
-2.14308e-05
0.00020904
-1.50138e-05
0.000211786
-8.23215e-06
0.000212196
-1.25945e-06
0.000210253
5.77785e-06
0.000205914
1.30402e-05
0.000199276
1.99024e-05
0.0001904
2.65791e-05
0.000179451
3.28806e-05
0.000166536
3.86289e-05
0.000151923
4.38131e-05
0.000135854
4.81365e-05
0.000118592
5.17299e-05
0.000100415
5.4461e-05
8.15493e-05
5.65469e-05
6.22934e-05
5.76802e-05
4.29381e-05
5.79812e-05
2.37739e-05
5.75419e-05
4.92338e-06
5.64783e-05
-1.33803e-05
5.48641e-05
-3.09063e-05
5.25364e-05
-4.75981e-05
5.00615e-05
-6.32953e-05
4.70561e-05
-7.79504e-05
4.39484e-05
-9.15467e-05
4.07772e-05
-0.000104033
3.74382e-05
-0.000115421
3.41696e-05
-0.000125727
3.09063e-05
-0.000135006
2.78667e-05
-0.000143237
2.47022e-05
-0.000150469
2.17081e-05
-0.00015676
1.88532e-05
-0.000162139
1.61251e-05
-0.000166675
1.36249e-05
-0.000170351
1.10132e-05
-0.000173273
8.79448e-06
-0.000175522
6.73939e-06
-0.000177032
4.52618e-06
-0.000177912
2.65384e-06
-0.000178143
6.9621e-07
-0.000177787
-1.01046e-06
-0.000176911
-2.67638e-06
-0.000175448
-4.32485e-06
-0.000173453
-6.03891e-06
-0.000170903
-7.65953e-06
-0.000167784
-9.35092e-06
-0.000164129
-1.09815e-05
-0.000159914
-1.26482e-05
-0.00015515
-1.42881e-05
-0.000149787
-1.60939e-05
-0.00014386
-1.77814e-05
-0.000137216
-1.99522e-05
-0.000129981
-2.17052e-05
-0.000122
-2.39325e-05
-0.000113249
-2.62519e-05
-0.000103747
-2.85323e-05
-9.34219e-05
-3.09611e-05
-8.22609e-05
-3.34579e-05
-7.0326e-05
-3.58194e-05
-5.75555e-05
-3.82848e-05
-4.40181e-05
-4.06218e-05
-2.97557e-05
-4.27533e-05
-1.48346e-05
-4.4714e-05
6.69713e-07
-4.64796e-05
1.66921e-05
-4.80162e-05
3.30359e-05
-4.90069e-05
4.96162e-05
-4.96807e-05
6.6207e-05
-4.9757e-05
8.26644e-05
-4.93023e-05
9.87142e-05
-4.81163e-05
0.000114217
-4.64516e-05
0.000128893
-4.39792e-05
0.000142524
-4.08788e-05
0.000154846
-3.68946e-05
0.000165646
-3.23342e-05
0.000174651
-2.69762e-05
0.000181697
-2.11009e-05
0.000186638
-1.47775e-05
0.000189301
-8.01314e-06
0.000189658
-1.05495e-06
0.000187689
5.86536e-06
0.000183383
1.29104e-05
0.000176855
1.95553e-05
0.000168229
2.58621e-05
0.000157671
3.16284e-05
0.000145391
3.67889e-05
0.000131627
4.11968e-05
0.000116612
4.50294e-05
0.000100632
4.78911e-05
8.39175e-05
5.00933e-05
6.67459e-05
5.14565e-05
4.93728e-05
5.20675e-05
3.20119e-05
5.20203e-05
1.49123e-05
5.12586e-05
-1.72451e-06
4.98684e-05
-1.77291e-05
4.79911e-05
-3.29643e-05
4.56577e-05
-4.73192e-05
4.30592e-05
-6.07693e-05
4.0345e-05
-7.33092e-05
3.76131e-05
-8.49835e-05
3.50351e-05
-9.57951e-05
3.23978e-05
-0.000105824
3.00574e-05
-0.000115054
2.77546e-05
-0.000123466
2.5244e-05
-0.000131102
2.28853e-05
-0.000137913
2.04301e-05
-0.000143985
1.82415e-05
-0.000149314
1.59655e-05
-0.000153951
1.39036e-05
-0.000157909
1.18816e-05
-0.00016122
9.96924e-06
-0.000164029
8.40108e-06
-0.000166191
6.4735e-06
-0.000167846
4.972e-06
-0.000168967
3.3576e-06
-0.00016959
1.91397e-06
-0.000169761
4.83232e-07
-0.000169438
-9.40613e-07
-0.000168674
-2.31509e-06
-0.000167387
-3.81164e-06
-0.000165677
-5.18594e-06
-0.000163481
-6.57007e-06
-0.000160817
-7.98572e-06
-0.000157718
-9.29809e-06
-0.00015409
-1.08987e-05
-0.000149962
-1.23916e-05
-0.000145276
-1.40768e-05
-0.000139994
-1.5847e-05
-0.000134088
-1.77243e-05
-0.000127579
-1.95258e-05
-0.000120387
-2.1579e-05
-0.000112539
-2.35076e-05
-0.000104042
-2.55611e-05
-9.48037e-05
-2.76486e-05
-8.48291e-05
-2.98985e-05
-7.41513e-05
-3.20311e-05
-6.27149e-05
-3.43065e-05
-5.05827e-05
-3.64002e-05
-3.77064e-05
-3.86421e-05
-2.42357e-05
-4.03764e-05
-1.00982e-05
-4.23655e-05
4.52868e-06
-4.38619e-05
1.9618e-05
-4.52398e-05
3.50409e-05
-4.6241e-05
5.06345e-05
-4.67938e-05
6.6241e-05
-4.67292e-05
8.16614e-05
-4.62406e-05
9.6733e-05
-4.51541e-05
0.000111242
-4.34713e-05
0.000124966
-4.11545e-05
0.000137725
-3.82019e-05
0.000149281
-3.46256e-05
0.000159445
-3.0441e-05
0.000168015
-2.56682e-05
0.000174813
-2.03631e-05
0.000179731
-1.47329e-05
0.000182595
-8.60341e-06
0.000183384
-2.35161e-06
0.000182052
3.95245e-06
0.000178576
1.04213e-05
0.000173042
1.65901e-05
0.000165558
2.24285e-05
0.000156277
2.78131e-05
0.000145397
3.26363e-05
0.000133025
3.70218e-05
0.000119537
4.0441e-05
0.000105095
4.33165e-05
9.00043e-05
4.52248e-05
7.45294e-05
4.65171e-05
5.87573e-05
4.71571e-05
4.31266e-05
4.68634e-05
2.77843e-05
4.60433e-05
1.26544e-05
4.53512e-05
-1.74123e-06
4.3162e-05
-1.55521e-05
4.1406e-05
-2.85942e-05
3.91155e-05
-4.08525e-05
3.67745e-05
-5.22206e-05
3.40759e-05
-6.26672e-05
3.13626e-05
-7.21996e-05
2.85577e-05
-8.08216e-05
2.58905e-05
-8.85812e-05
2.32839e-05
-9.56257e-05
2.11437e-05
-0.000101891
1.88312e-05
-0.00010755
1.69936e-05
-0.000112747
1.56011e-05
-0.00011741
1.40103e-05
-0.000121619
1.26399e-05
-0.000125456
1.15155e-05
-0.000128852
1.01917e-05
-0.000131923
9.22006e-06
-0.000134581
7.96001e-06
-0.000136819
6.68694e-06
-0.0001387
5.67943e-06
-0.000140189
4.46497e-06
-0.000141286
3.31891e-06
-0.000142014
2.15394e-06
-0.000142404
1.16049e-06
-0.000142316
-2.51401e-07
-0.000141904
-1.25743e-06
-0.000140965
-2.79634e-06
-0.000139631
-4.00622e-06
-0.000137906
-5.14719e-06
-0.00013555
-7.11039e-06
-0.000132728
-8.48725e-06
-0.000129288
-1.03188e-05
-0.000125137
-1.24711e-05
-0.000120306
-1.44901e-05
-0.000114604
-1.71221e-05
-0.000108133
-1.94372e-05
-0.000100795
-2.20103e-05
-9.24483e-05
-2.50816e-05
-8.3175e-05
-2.77822e-05
-7.29824e-05
-3.05888e-05
-6.17811e-05
-3.35563e-05
-4.95419e-05
-3.67415e-05
-3.63294e-05
-3.96283e-05
-2.21305e-05
-4.25834e-05
-7.27015e-06
-4.45628e-05
8.41359e-06
-4.7016e-05
2.4797e-05
-4.91085e-05
4.15594e-05
-5.0254e-05
5.87899e-05
-5.16457e-05
7.61309e-05
-5.1983e-05
9.35603e-05
-5.22352e-05
0.000110795
-5.16435e-05
0.000127543
-5.02005e-05
0.000143647
-4.82565e-05
0.000158913
-4.57515e-05
0.000173075
-4.24246e-05
0.000185938
-3.85503e-05
0.000197352
-3.41947e-05
0.00020707
-2.9135e-05
0.000215025
-2.38282e-05
0.000221045
-1.80098e-05
0.000225032
-1.19308e-05
0.000226961
-5.78614e-06
0.000226787
4.48111e-07
0.000224519
6.71367e-06
0.000220225
1.28533e-05
0.000213869
1.9053e-05
0.000205734
2.43768e-05
0.000195863
2.95891e-05
0.000184497
3.40569e-05
0.000171804
3.80457e-05
0.000157751
4.21261e-05
0.000142755
4.49398e-05
0.000126934
4.74316e-05
0.000110371
4.96481e-05
9.34216e-05
5.08144e-05
7.60745e-05
5.20064e-05
5.86388e-05
5.22772e-05
4.11877e-05
5.23206e-05
2.38318e-05
5.20403e-05
6.80674e-06
5.10667e-05
-9.90873e-06
5.00949e-05
4.84656e-05
-0.000140268
-2.92449e-05
-0.000131901
-3.349e-05
-0.000122609
-3.71812e-05
-0.000112386
-4.08953e-05
-0.000100997
-4.5593e-05
-8.86205e-05
-4.94741e-05
-7.51417e-05
-5.39121e-05
-6.06923e-05
-5.77425e-05
-4.54801e-05
-6.07978e-05
-2.93076e-05
-6.46403e-05
-1.22821e-05
-6.80349e-05
5.30049e-06
-7.01474e-05
2.35289e-05
-7.28015e-05
4.22025e-05
-7.45589e-05
6.11466e-05
-7.56538e-05
8.0191e-05
-7.60631e-05
9.89451e-05
-7.48508e-05
0.000117258
-7.31333e-05
0.00013493
-7.05431e-05
0.000151592
-6.64741e-05
0.000167009
-6.15601e-05
0.000181014
-5.58491e-05
0.000193204
-4.8633e-05
0.000203468
-4.09855e-05
0.000211585
-3.23537e-05
0.000217364
-2.30313e-05
0.000220726
-1.34582e-05
0.000221573
-3.411e-06
0.00021988
6.56428e-06
0.000215756
1.64021e-05
0.000209125
2.65023e-05
0.000200253
3.53852e-05
0.000189292
4.36975e-05
0.000176481
5.11531e-05
0.000161987
5.78283e-05
0.0001461
6.34435e-05
0.000128998
6.83023e-05
0.000111037
7.1594e-05
9.24504e-05
7.42605e-05
7.3444e-05
7.58867e-05
5.43774e-05
7.61228e-05
3.54498e-05
7.55858e-05
1.68102e-05
7.4445e-05
-1.34564e-06
7.25578e-05
-1.89147e-05
7.01977e-05
-3.57787e-05
6.73841e-05
-5.18129e-05
6.40909e-05
-6.69536e-05
6.05235e-05
-8.11684e-05
5.68226e-05
-9.4419e-05
5.29789e-05
-0.000106666
4.89646e-05
-0.000117932
4.50632e-05
-0.000128228
4.11763e-05
-0.000137592
3.7456e-05
-0.000146009
3.36819e-05
-0.000153518
3.00309e-05
-0.000160164
2.658e-05
-0.000165934
2.31131e-05
-0.000170856
1.97358e-05
-0.000174981
1.64512e-05
-0.000178293
1.32762e-05
-0.000180882
1.03621e-05
-0.000182701
7.24012e-06
-0.000183732
4.15301e-06
-0.00018407
1.57618e-06
-0.000183674
-1.70511e-06
-0.000182405
-5.06217e-06
-0.000180449
-7.81186e-06
-0.000177658
-1.11975e-05
-0.000174021
-1.45517e-05
-0.000169625
-1.7573e-05
-0.000164381
-2.10047e-05
-0.000158279
-2.44037e-05
-0.000151336
-2.78537e-05
-0.000143552
-3.10482e-05
-0.000134897
-3.45468e-05
-0.000125361
-3.82273e-05
-0.000114953
-4.1629e-05
-0.000103709
-4.49233e-05
-9.17233e-05
-4.79722e-05
-7.88714e-05
-5.13623e-05
-6.53245e-05
-5.42087e-05
-5.10338e-05
-5.71414e-05
-3.60069e-05
-6.00687e-05
-2.03045e-05
-6.27899e-05
-3.95384e-06
-6.52414e-05
1.28592e-05
-6.73279e-05
3.01794e-05
-6.92069e-05
4.78229e-05
-7.05457e-05
6.56399e-05
-7.11608e-05
8.34459e-05
-7.1132e-05
0.000101022
-7.01964e-05
0.000118112
-6.82486e-05
0.000134479
-6.53567e-05
0.000149853
-6.14734e-05
0.000164021
-5.65625e-05
0.000176746
-5.08122e-05
0.000187817
-4.41813e-05
0.000197021
-3.67309e-05
0.000204184
-2.85937e-05
0.000209203
-2.00327e-05
0.000211946
-1.09758e-05