/*--------------------------------*- C++ -*----------------------------------*\
| =========                 |                                                 |
| \\      /  F ield         | OpenFOAM: The Open Source CFD Toolbox           |
|  \\    /   O peration     | Version:  3.0.1                                 |
|   \\  /    A nd           | Web:      www.OpenFOAM.org                      |
|    \\/     M anipulation  |                                                 |
\*---------------------------------------------------------------------------*/
FoamFile
{
    version     2.0;
    format      ascii;
    class       surfaceScalarField;
    location    "24.6";
    object      alphaPhi;
}
// * * * * * * * * * * * * * * * * * * * * * * * * * * * * * * * * * * * * * //

dimensions      [0 3 -1 0 0 0 0];

internalField   nonuniform List<scalar> 
42423
(
0.00020578
7.19807e-06
0.00019681
8.97083e-06
0.000185785
1.10247e-05
0.000172799
1.29859e-05
0.000158347
1.4452e-05
0.000142433
1.59137e-05
0.000125422
1.70113e-05
0.0001075
1.79217e-05
8.89954e-05
1.85049e-05
7.01297e-05
1.88657e-05
5.11153e-05
1.90143e-05
3.22571e-05
1.88583e-05
1.36571e-05
1.86e-05
-4.40124e-06
1.80583e-05
-2.18293e-05
1.74281e-05
-3.85629e-05
1.67335e-05
-5.44543e-05
1.58914e-05
-6.94437e-05
1.49894e-05
-8.35047e-05
1.4061e-05
-9.65851e-05
1.30804e-05
-0.000108687
1.21015e-05
-0.00011982
1.11332e-05
-0.000129984
1.01645e-05
-0.000139204
9.21966e-06
-0.000147512
8.30833e-06
-0.000154921
7.40878e-06
-0.000161443
6.52231e-06
-0.000167129
5.68577e-06
-0.000171995
4.86538e-06
-0.000176075
4.0801e-06
-0.00017938
3.30534e-06
-0.000181943
2.56316e-06
-0.000183757
1.81399e-06
-0.000184878
1.12062e-06
-0.000185301
4.23438e-07
-0.000184949
-3.52513e-07
-0.000183759
-1.19014e-06
-0.000181877
-1.88202e-06
-0.000179236
-2.64021e-06
-0.000175704
-3.53259e-06
-0.000171458
-4.24568e-06
-0.000166278
-5.17989e-06
-0.000160241
-6.03726e-06
-0.000153345
-6.89615e-06
-0.000145462
-7.88297e-06
-0.000136731
-8.73116e-06
-0.000127106
-9.6252e-06
-0.000116328
-1.07776e-05
-0.000104634
-1.1694e-05
-9.21138e-05
-1.25203e-05
-7.83947e-05
-1.37192e-05
-6.3952e-05
-1.44427e-05
-4.84444e-05
-1.55077e-05
-3.2061e-05
-1.63834e-05
-1.51296e-05
-1.69315e-05
2.48321e-06
-1.76129e-05
2.06454e-05
-1.81623e-05
3.89921e-05
-1.83467e-05
5.75045e-05
-1.85125e-05
7.59358e-05
-1.84314e-05
9.40834e-05
-1.81477e-05
0.000111882
-1.77985e-05
0.000128854
-1.69718e-05
0.00014492
-1.60667e-05
0.000159883
-1.49629e-05
0.000173331
-1.34484e-05
0.00018529
-1.19589e-05
0.000195481
-1.0191e-05
0.000203727
-8.24572e-06
0.000209902
-6.17491e-06
0.000213816
-3.91461e-06
0.00021546
-1.64414e-06
0.000214882
5.78703e-07
0.000211973
2.90899e-06
0.000206676
5.29628e-06
0.000199101
7.57537e-06
0.000189466
9.63492e-06
0.000177826
1.16398e-05
0.000164379
1.34471e-05
0.000149439
1.49401e-05
0.000133196
1.62431e-05
0.000115819
1.73766e-05
9.78011e-05
1.80184e-05
7.91183e-05
1.86828e-05
6.02062e-05
1.89122e-05
4.123e-05
1.89762e-05
2.22604e-05
1.89696e-05
3.6823e-06
1.85781e-05
-1.4388e-05
1.80703e-05
-3.18744e-05
1.74865e-05
-4.86089e-05
1.67345e-05
-6.44669e-05
1.5858e-05
-7.93315e-05
1.48646e-05
-9.32215e-05
1.389e-05
-0.000106011
1.27892e-05
-0.000117671
1.166e-05
-0.000128255
1.05842e-05
-0.00013772
9.46481e-06
-0.000146211
8.49103e-06
-0.000153596
7.38559e-06
-0.000159885
6.28875e-06
-0.000165279
5.39384e-06
-0.000169882
4.60349e-06
-0.000173479
3.59671e-06
-0.000176393
2.91413e-06
-0.000178592
2.19921e-06
-0.000180045
1.45252e-06
-0.000180889
8.44488e-07
-0.000181071
1.81912e-07
-0.000180614
-4.57702e-07
-0.000179533
-1.08071e-06
-0.000177826
-1.70703e-06
-0.00017544
-2.38559e-06
-0.00017237
-3.07072e-06
-0.000168673
-3.6962e-06
-0.000164273
-4.39992e-06
-0.000159144
-5.12911e-06
-0.000153272
-5.87209e-06
-0.000146722
-6.55057e-06
-0.000139392
-7.32986e-06
-0.00013125
-8.14216e-06
-0.000122307
-8.9431e-06
-0.000112482
-9.82443e-06
-0.000101908
-1.05741e-05
-9.04074e-05
-1.1501e-05
-7.80448e-05
-1.23626e-05
-6.48042e-05
-1.32407e-05
-5.07097e-05
-1.40946e-05
-3.57855e-05
-1.49242e-05
-2.00794e-05
-1.57063e-05
-3.64806e-06
-1.64314e-05
1.34409e-05
-1.70891e-05
3.10678e-05
-1.7627e-05
4.90337e-05
-1.7966e-05
6.72248e-05
-1.81912e-05
8.54553e-05
-1.82307e-05
0.00010341
-1.79552e-05
0.000120909
-1.74988e-05
0.000137655
-1.67456e-05
0.000153366
-1.57116e-05
0.00016775
-1.43846e-05
0.000180525
-1.27742e-05
0.000191419
-1.08947e-05
0.000200217
-8.79805e-06
0.000206743
-6.52635e-06
0.000210889
-4.1461e-06
0.000212554
-1.6646e-06
0.000211759
7.9535e-07
0.000208415
3.34313e-06
0.000202582
5.83294e-06
0.00019446
8.12197e-06
0.000184244
1.02161e-05
0.000172035
1.22087e-05
0.000158226
1.3809e-05
0.000142959
1.52671e-05
0.000126499
1.646e-05
0.000109196
1.73028e-05
9.12965e-05
1.78999e-05
7.30532e-05
1.82433e-05
5.47514e-05
1.83018e-05
3.64812e-05
1.82703e-05
1.86205e-05
1.78606e-05
1.21898e-06
1.74016e-05
-1.55405e-05
1.67595e-05
-3.16243e-05
1.60838e-05
-4.68445e-05
1.52202e-05
-6.12179e-05
1.43734e-05
-7.46722e-05
1.34543e-05
-8.71767e-05
1.25045e-05
-9.87658e-05
1.15891e-05
-0.000109371
1.06056e-05
-0.000119092
9.72036e-06
-0.000127972
8.87994e-06
-0.000135858
7.88662e-06
-0.000142869
7.01054e-06
-0.00014902
6.15125e-06
-0.000154365
5.34508e-06
-0.0001591
4.73439e-06
-0.000162949
3.84987e-06
-0.000166158
3.20875e-06
-0.000168766
2.60763e-06
-0.000170628
1.86258e-06
-0.00017189
1.26187e-06
-0.000172467
5.7631e-07
-0.000172368
-9.86757e-08
-0.000171647
-7.20892e-07
-0.000170156
-1.49117e-06
-0.000167982
-2.17343e-06
-0.000165107
-2.87543e-06
-0.000161437
-3.66945e-06
-0.000156983
-4.45455e-06
-0.000151724
-5.2586e-06
-0.000145586
-6.1384e-06
-0.000138628
-6.95816e-06
-0.000130785
-7.84327e-06
-0.000122069
-8.71565e-06
-0.000112492
-9.57676e-06
-0.000102009
-1.04829e-05
-9.0668e-05
-1.13414e-05
-7.84538e-05
-1.22142e-05
-6.53864e-05
-1.30674e-05
-5.15735e-05
-1.38129e-05
-3.69628e-05
-1.46108e-05
-2.16294e-05
-1.53334e-05
-5.61175e-06
-1.60177e-05
1.0958e-05
-1.65698e-05
2.80428e-05
-1.70849e-05
4.5514e-05
-1.74713e-05
6.32324e-05
-1.77185e-05
8.10114e-05
-1.7779e-05
9.86782e-05
-1.76669e-05
0.000116057
-1.73786e-05
0.000132919
-1.6862e-05
0.00014898
-1.60613e-05
0.000164048
-1.50683e-05
0.0001779
-1.38521e-05
0.000190354
-1.24542e-05
0.000201074
-1.07201e-05
0.000209898
-8.82323e-06
0.000216649
-6.75159e-06
0.000221127
-4.47778e-06
0.000223326
-2.19875e-06
0.000223107
2.18322e-07
0.00022055
2.55724e-06
0.000215662
4.88774e-06
0.000208542
7.1208e-06
0.000199373
9.16835e-06
0.000188235
1.11377e-05
0.000175355
1.28809e-05
0.000161031
1.43236e-05
0.000145408
1.56232e-05
0.000128766
1.66422e-05
0.000111331
1.7435e-05
9.34191e-05
1.79115e-05
7.52284e-05
1.81907e-05
5.6964e-05
1.82644e-05
3.88892e-05
1.80748e-05
2.11735e-05
1.77157e-05
3.92214e-06
1.72513e-05
-1.26247e-05
1.65468e-05
-2.84151e-05
1.57905e-05
-4.3372e-05
1.49569e-05
-5.73819e-05
1.40099e-05
-7.03317e-05
1.29498e-05
-8.22776e-05
1.19459e-05
-9.31079e-05
1.08303e-05
-0.0001029
9.79174e-06
-0.000111717
8.81732e-06
-0.000119461
7.74457e-06
-0.000126201
6.73993e-06
-0.000132074
5.87211e-06
-0.000137137
5.06313e-06
-0.000141311
4.17459e-06
-0.000144647
3.33549e-06
-0.000147154
2.50704e-06
-0.000149018
1.86433e-06
-0.000150151
1.13331e-06
-0.000150629
4.77351e-07
-0.000150431
-1.97794e-07
-0.000149655
-7.75685e-07
-0.000148205
-1.44976e-06
-0.000146133
-2.07253e-06
-0.000143494
-2.63882e-06
-0.000140188
-3.30588e-06
-0.000136222
-3.96603e-06
-0.000131768
-4.45451e-06
-0.000126469
-5.29883e-06
-0.000120437
-6.03186e-06
-0.000113724
-6.71308e-06
-0.00010622
-7.50409e-06
-9.7796e-05
-8.42368e-06
-8.8557e-05
-9.23904e-06
-7.84167e-05
-1.01403e-05
-6.72111e-05
-1.12056e-05
-5.50397e-05
-1.21714e-05
-4.20254e-05
-1.30143e-05
-2.79629e-05
-1.40626e-05
-1.30385e-05
-1.49244e-05
2.67635e-06
-1.57149e-05
1.94028e-05
-1.67265e-05
3.68644e-05
-1.74617e-05
5.49485e-05
-1.80841e-05
7.35229e-05
-1.85744e-05
9.22859e-05
-1.87631e-05
0.000111065
-1.87792e-05
0.000129725
-1.86602e-05
0.000147857
-1.81324e-05
0.000165356
-1.74984e-05
0.000181878
-1.65221e-05
0.000197247
-1.53696e-05
0.000211272
-1.40247e-05
0.000223577
-1.23053e-05
0.00023406
-1.04824e-05
0.000242566
-8.50598e-06
0.000248824
-6.25829e-06
0.000252731
-3.90708e-06
0.000254055
-1.32368e-06
0.000253093
9.61366e-07
0.000250088
3.00548e-06
0.000245049
5.03825e-06
0.000238154
6.89539e-06
0.000229308
8.84584e-06
0.000218477
1.08313e-05
0.000206063
1.24133e-05
0.000192098
1.39649e-05
0.000176673
1.54249e-05
0.00016023
1.64432e-05
0.000142829
1.74017e-05
0.000124806
1.80222e-05
0.00010632
1.84866e-05
8.74655e-05
1.88543e-05
6.86463e-05
1.88192e-05
4.99847e-05
1.86616e-05
3.16584e-05
1.83263e-05
1.39588e-05
1.76995e-05
-3.12868e-06
1.70875e-05
-1.93077e-05
1.6179e-05
-3.45413e-05
1.52336e-05
-4.8708e-05
1.41667e-05
-6.17194e-05
1.30114e-05
-7.35638e-05
1.18444e-05
-8.42056e-05
1.06418e-05
-9.36679e-05
9.46232e-06
-0.000101968
8.2996e-06
-0.000109144
7.17628e-06
-0.000115253
6.10967e-06
-0.000120336
5.08264e-06
-0.000124457
4.12048e-06
-0.00012767
3.213e-06
-0.000130033
2.36374e-06
-0.000131612
1.57853e-06
-0.000132451
8.39445e-07
-0.000132583
1.32075e-07
-0.000132022
-5.61444e-07
-0.000130879
-1.14277e-06
-0.000129093
-1.78629e-06
-0.000126732
-2.36087e-06
-0.000123881
-2.85067e-06
-0.000120422
-3.4591e-06
-0.000116437
-3.98493e-06
-0.000111951
-4.48659e-06
-0.00010685
-5.10072e-06
-0.000101208
-5.6416e-06
-9.48528e-05
-6.35559e-06
-8.79241e-05
-6.92871e-06
-8.04228e-05
-7.50131e-06
-7.21457e-05
-8.27706e-06
-6.31445e-05
-9.0012e-06
-5.33797e-05
-9.76479e-06
-4.27306e-05
-1.06491e-05
-3.13095e-05
-1.14211e-05
-1.88978e-05
-1.24117e-05
-5.44121e-06
-1.34565e-05
8.56953e-06
-1.40107e-05
2.3442e-05
-1.48724e-05
3.89039e-05
-1.54619e-05
-1.60515e-05
0.000205869
1.43979e-05
0.000196895
1.79445e-05
0.000185865
2.20545e-05
0.000172872
2.59791e-05
0.000158412
2.89122e-05
0.000142487
3.18384e-05
0.000125467
3.40317e-05
0.000107533
3.58548e-05
8.9017e-05
3.70213e-05
7.01384e-05
3.77443e-05
5.1122e-05
3.80308e-05
3.22494e-05
3.77308e-05
1.36383e-05
3.7211e-05
-4.42177e-06
3.61185e-05
-2.18557e-05
3.4862e-05
-3.85962e-05
3.34741e-05
-5.44914e-05
3.17866e-05
-6.94839e-05
2.99819e-05
-8.35495e-05
2.81267e-05
-9.66352e-05
2.61661e-05
-0.00010874
2.42065e-05
-0.000119876
2.22694e-05
-0.000130041
2.03296e-05
-0.000139261
1.84388e-05
-0.000147567
1.66145e-05
-0.000154974
1.48157e-05
-0.000161496
1.30447e-05
-0.000167185
1.1375e-05
-0.000172062
9.74197e-06
-0.000176146
8.16438e-06
-0.000179443
6.60238e-06
-0.000182006
5.12622e-06
-0.000183828
3.63582e-06
-0.000184942
2.23486e-06
-0.000185355
8.35701e-07
-0.000185001
-7.06337e-07
-0.000183816
-2.37528e-06
-0.000181933
-3.76423e-06
-0.000179299
-5.27418e-06
-0.000175765
-7.06712e-06
-0.000171519
-8.4916e-06
-0.000166338
-1.0361e-05
-0.000160308
-1.20673e-05
-0.000153421
-1.37833e-05
-0.000145527
-1.57768e-05
-0.000136794
-1.74639e-05
-0.000127164
-1.92552e-05
-0.000116391
-2.15507e-05
-0.000104697
-2.33887e-05
-9.21717e-05
-2.50454e-05
-7.84616e-05
-2.74294e-05
-6.40067e-05
-2.88978e-05
-4.84991e-05
-3.10154e-05
-3.21065e-05
-3.27762e-05
-1.51737e-05
-3.38643e-05
2.44779e-06
-3.52346e-05
2.06257e-05
-3.63403e-05
3.89831e-05
-3.67043e-05
5.75028e-05
-3.70323e-05
7.59527e-05
-3.68814e-05
9.41193e-05
-3.63144e-05
0.000111933
-3.56124e-05
0.000128913
-3.39515e-05
0.000144995
-3.21493e-05
0.00015998
-2.99481e-05
0.000173437
-2.69059e-05
0.000185408
-2.39295e-05
0.00019561
-2.03928e-05
0.000203858
-1.6494e-05
0.000210043
-1.23602e-05
0.000213969
-7.84098e-06
0.000215639
-3.3141e-06
0.00021505
1.16813e-06
0.000212116
5.84206e-06
0.000206816
1.05967e-05
0.000199234
1.51569e-05
0.000189595
1.92746e-05
0.000177941
2.32932e-05
0.000164481
2.69075e-05
0.000149525
2.98966e-05
0.000133263
3.25049e-05
0.000115868
3.47714e-05
9.78285e-05
3.60581e-05
7.91258e-05
3.73855e-05
6.02023e-05
3.78358e-05
4.12119e-05
3.79666e-05
2.22347e-05
3.79469e-05
3.64656e-06
3.71663e-05
-1.44313e-05
3.61481e-05
-3.19249e-05
3.49801e-05
-4.86718e-05
3.34814e-05
-6.45344e-05
3.17205e-05
-7.94063e-05
2.97366e-05
-9.32928e-05
2.77765e-05
-0.000106092
2.55881e-05
-0.00011776
2.33282e-05
-0.000128349
2.11735e-05
-0.000137804
1.89198e-05
-0.000146301
1.69881e-05
-0.000153698
1.47819e-05
-0.000159977
1.25678e-05
-0.000165349
1.07668e-05
-0.000169944
9.19801e-06
-0.000173541
7.19375e-06
-0.000176454
5.82665e-06
-0.000178651
4.39685e-06
-0.000180101
2.90262e-06
-0.000180949
1.69189e-06
-0.000181133
3.66275e-07
-0.000180676
-9.14321e-07
-0.000179588
-2.16871e-06
-0.000177869
-3.42652e-06
-0.000175486
-4.76877e-06
-0.000172418
-6.13872e-06
-0.000168723
-7.39122e-06
-0.000164323
-8.79972e-06
-0.000159199
-1.02533e-05
-0.00015332
-1.17508e-05
-0.000146766
-1.3105e-05
-0.000139442
-1.46538e-05
-0.000131299
-1.62849e-05
-0.000122358
-1.78842e-05
-0.000112529
-1.96539e-05
-0.00010195
-2.11531e-05
-9.04511e-05
-2.29997e-05
-7.80855e-05
-2.47283e-05
-6.48513e-05
-2.6475e-05
-5.07524e-05
-2.81937e-05
-3.58118e-05
-2.9865e-05
-2.01077e-05
-3.14104e-05
-3.67613e-06
-3.28632e-05
1.34214e-05
-3.41868e-05
3.10611e-05
-3.52669e-05
4.90285e-05
-3.59335e-05
6.72237e-05
-3.63866e-05
8.5468e-05
-3.64752e-05
0.000103441
-3.59286e-05
0.000120954
-3.50114e-05
0.00013771
-3.35017e-05
0.000153432
-3.14341e-05
0.000167829
-2.87819e-05
0.000180614
-2.55594e-05
0.000191519
-2.17995e-05
0.000200322
-1.76012e-05
0.000206855
-1.30594e-05
0.000210983
-8.27467e-06
0.00021266
-3.34129e-06
0.000211854
1.60064e-06
0.000208507
6.68995e-06
0.000202667
1.16734e-05
0.000194534
1.62547e-05
0.000184311
2.04391e-05
0.000172078
2.44417e-05
0.000158238
2.76487e-05
0.000142948
3.05579e-05
0.000126494
3.29131e-05
0.00010922
3.4577e-05
9.12757e-05
3.58444e-05
7.30272e-05
3.64918e-05
5.4713e-05
3.66161e-05
3.64235e-05
3.65598e-05
1.85586e-05
3.57255e-05
1.15851e-06
3.48017e-05
-1.56044e-05
3.35224e-05
-3.16991e-05
3.21786e-05
-4.69249e-05
3.0446e-05
-6.13031e-05
2.87516e-05
-7.47585e-05
2.69097e-05
-8.72649e-05
2.5011e-05
-9.88424e-05
2.31666e-05
-0.00010944
2.12032e-05
-0.000119169
1.94497e-05
-0.000128055
1.77661e-05
-0.00013594
1.57709e-05
-0.000142948
1.40193e-05
-0.000149099
1.23022e-05
-0.000154433
1.06791e-05
-0.000159162
9.46306e-06
-0.00016301
7.69764e-06
-0.000166216
6.41489e-06
-0.000168824
5.21606e-06
-0.000170689
3.72676e-06
-0.000171951
2.52451e-06
-0.000172524
1.14874e-06
-0.000172412
-2.10308e-07
-0.000171691
-1.44156e-06
-0.000170215
-2.96707e-06
-0.000168038
-4.35109e-06
-0.000165154
-5.75896e-06
-0.000161494
-7.32998e-06
-0.000157034
-8.91459e-06
-0.000151766
-1.05268e-05
-0.000145637
-1.22669e-05
-0.00013868
-1.39154e-05
-0.000130826
-1.56969e-05
-0.000122114
-1.74278e-05
-0.000112536
-1.91546e-05
-0.000102051
-2.09681e-05
-9.07192e-05
-2.26736e-05
-7.85034e-05
-2.44301e-05
-6.54257e-05
-2.61452e-05
-5.16028e-05
-2.76359e-05
-3.69956e-05
-2.92181e-05
-2.1665e-05
-3.06641e-05
-5.63915e-06
-3.20437e-05
1.09401e-05
-3.31491e-05
2.80386e-05
-3.41835e-05
4.55084e-05
-3.49412e-05
6.32342e-05
-3.54444e-05
8.10303e-05
-3.55752e-05
9.87068e-05
-3.53435e-05
0.000116093
-3.47646e-05
0.000132955
-3.37243e-05
0.000149032
-3.21391e-05
0.000164118
-3.01538e-05
0.000177979
-2.77137e-05
0.000190439
-2.49144e-05
0.000201162
-2.14424e-05
0.000209997
-1.76584e-05
0.00021675
-1.35044e-05
0.000221231
-8.95961e-06
0.000223436
-4.40391e-06
0.000223199
4.5598e-07
0.000220634
5.12237e-06
0.000215746
9.77479e-06
0.000208611
1.42564e-05
0.000199431
1.83485e-05
0.000188298
2.22707e-05
0.000175398
2.57801e-05
0.00016107
2.86519e-05
0.00014541
3.12834e-05
0.000128757
3.32955e-05
0.000111322
3.48699e-05
9.34053e-05
3.5828e-05
7.5199e-05
3.63971e-05
5.69231e-05
3.65403e-05
3.88303e-05
3.61676e-05
2.11085e-05
3.54376e-05
3.85915e-06
3.45007e-05
-1.26904e-05
3.30963e-05
-2.84953e-05
3.15954e-05
-4.34573e-05
2.99189e-05
-5.74684e-05
2.8021e-05
-7.0415e-05
2.58965e-05
-8.23591e-05
2.389e-05
-9.31946e-05
2.16657e-05
-0.000102976
1.95736e-05
-0.000111798
1.76392e-05
-0.000119544
1.54903e-05
-0.000126278
1.34736e-05
-0.000132142
1.17369e-05
-0.000137213
1.01342e-05
-0.000141387
8.34827e-06
-0.000144718
6.66609e-06
-0.000147219
5.00879e-06
-0.000149079
3.72381e-06
-0.000150203
2.25772e-06
-0.000150682
9.5616e-07
-0.000150486
-3.94163e-07
-0.000149703
-1.55872e-06
-0.000148251
-2.90166e-06
-0.000146189
-4.13425e-06
-0.000143546
-5.28186e-06
-0.000140236
-6.61594e-06
-0.000136259
-7.94252e-06
-0.000131808
-8.9057e-06
-0.000126516
-1.0591e-05
-0.000120485
-1.20628e-05
-0.000113763
-1.34348e-05
-0.000106266
-1.50017e-05
-9.78419e-05
-1.68474e-05
-8.85954e-05
-1.84855e-05
-7.84638e-05
-2.02719e-05
-6.72578e-05
-2.24117e-05
-5.50812e-05
-2.4348e-05
-4.20702e-05
-2.60254e-05
-2.80086e-05
-2.81242e-05
-1.30768e-05
-2.98563e-05
2.63322e-06
-3.1425e-05
1.93592e-05
-3.34525e-05
3.68298e-05
-3.49324e-05
5.49141e-05
-3.61686e-05
7.34946e-05
-3.7155e-05
9.22607e-05
-3.75293e-05
0.000111046
-3.75645e-05
0.000129717
-3.73313e-05
0.000147856
-3.62712e-05
0.000165367
-3.50096e-05
0.000181892
-3.30475e-05
0.00019725
-3.07273e-05
0.000211278
-2.80534e-05
0.000223577
-2.46047e-05
0.000234045
-2.09499e-05
0.000242529
-1.69897e-05
0.000248735
-1.24644e-05
0.000252678
-7.8508e-06
0.000254081
-2.72625e-06
0.000253134
1.90823e-06
0.000250157
5.98248e-06
0.000245142
1.0053e-05
0.000238248
1.37892e-05
0.000229399
1.76951e-05
0.000218562
2.1668e-05
0.000206142
2.4833e-05
0.00019217
2.79373e-05
0.000176736
3.08584e-05
0.000160284
3.28955e-05
0.000142873
3.48127e-05
0.000124841
3.60533e-05
0.000106344
3.69836e-05
8.74808e-05
3.77179e-05
6.86501e-05
3.76498e-05
4.9987e-05
3.73247e-05
3.16437e-05
3.66696e-05
1.39266e-05
3.54167e-05
-3.15734e-06
3.41714e-05
-1.93431e-05
3.23648e-05
-3.45828e-05
3.04733e-05
-4.87548e-05
2.83387e-05
-6.17694e-05
2.6026e-05
-7.36153e-05
2.36903e-05
-8.42607e-05
2.12872e-05
-9.37241e-05
1.89257e-05
-0.000102026
1.66017e-05
-0.000109204
1.43542e-05
-0.00011531
1.22154e-05
-0.00012039
1.01625e-05
-0.000124513
8.24362e-06
-0.000127728
6.42792e-06
-0.000130087
4.72343e-06
-0.00013166
3.15144e-06
-0.000132496
1.67517e-06
-0.000132627
2.63199e-07
-0.000132065
-1.12348e-06
-0.000130924
-2.2841e-06
-0.000129136
-3.57386e-06
-0.000126771
-4.72665e-06
-0.000123921
-5.70044e-06
-0.000120463
-6.91665e-06
-0.000116473
-7.97516e-06
-0.000111986
-8.97317e-06
-0.000106878
-1.02094e-05
-0.000101246
-1.1273e-05
-9.48962e-05
-1.27057e-05
-8.7958e-05
-1.38669e-05
-8.0458e-05
-1.50013e-05
-7.21781e-05
-1.6557e-05
-6.31807e-05
-1.79985e-05
-5.34142e-05
-1.95313e-05
-4.27635e-05
-2.12998e-05
-3.13404e-05
-2.28442e-05
-1.89349e-05
-2.48172e-05
-5.48175e-06
-2.69097e-05
8.53706e-06
-2.80295e-05
2.34131e-05
-2.97484e-05
3.8879e-05
-3.09279e-05
-3.21089e-05
0.000206038
2.1608e-05
0.000197052
2.69307e-05
0.000186007
3.30994e-05
0.000172996
3.89895e-05
0.000158518
4.33911e-05
0.000142571
4.77854e-05
0.000125532
5.10697e-05
0.00010758
5.38077e-05
8.90422e-05
5.55587e-05
7.01413e-05
5.66452e-05
5.11282e-05
5.70439e-05
3.22263e-05
5.66327e-05
1.35966e-05
5.58408e-05
-4.47303e-06
5.41881e-05
-2.19188e-05
5.23077e-05
-3.86676e-05
5.0223e-05
-5.45701e-05
4.76891e-05
-6.957e-05
4.49817e-05
-8.36392e-05
4.21959e-05
-9.67266e-05
3.92535e-05
-0.000108833
3.63134e-05
-0.00011997
3.34061e-05
-0.000130138
3.04971e-05
-0.000139354
2.76556e-05
-0.000147658
2.49181e-05
-0.000155068
2.22256e-05
-0.000161591
1.95675e-05
-0.000167283
1.70668e-05
-0.000172155
1.46147e-05
-0.000176232
1.22416e-05
-0.000179535
9.90446e-06
-0.000182103
7.69441e-06
-0.00018392
5.4527e-06
-0.000185026
3.34093e-06
-0.00018542
1.2303e-06
-0.00018506
-1.06641e-06
-0.000183876
-3.55976e-06
-0.000181993
-5.64664e-06
-0.00017937
-7.89725e-06
-0.00017583
-1.06076e-05
-0.000171583
-1.27382e-05
-0.000166404
-1.554e-05
-0.000160382
-1.80894e-05
-0.00015351
-2.06561e-05
-0.000145601
-2.36855e-05
-0.000136868
-2.61965e-05
-0.000127237
-2.88869e-05
-0.000116468
-3.23193e-05
-0.000104773
-3.50837e-05
-9.22454e-05
-3.75735e-05
-7.8545e-05
-4.11298e-05
-6.40734e-05
-4.33695e-05
-4.85659e-05
-4.6523e-05
-3.21619e-05
-4.91803e-05
-1.5224e-05
-5.08023e-05
2.40865e-06
-5.28674e-05
2.05999e-05
-5.45317e-05
3.89737e-05
-5.50782e-05
5.75113e-05
-5.55701e-05
7.5977e-05
-5.53472e-05
9.41643e-05
-5.45019e-05
0.000112005
-5.34533e-05
0.000129007
-5.09536e-05
0.000145106
-4.82486e-05
0.000160111
-4.49528e-05
0.00017358
-4.0375e-05
0.000185579
-3.59293e-05
0.000195806
-3.06192e-05
0.000204064
-2.47527e-05
0.000210267
-1.85636e-05
0.000214207
-1.17802e-05
0.000215874
-4.98165e-06
0.00021526
1.78199e-06
0.000212309
8.79295e-06
0.000207005
1.59006e-05
0.000199413
2.27487e-05
0.000189766
2.89221e-05
0.000178093
3.49658e-05
0.000164622
4.03787e-05
0.000149645
4.48739e-05
0.000133354
4.8796e-05
0.000115936
5.21891e-05
9.78844e-05
5.41101e-05
7.91591e-05
5.61108e-05
6.02171e-05
5.67778e-05
4.12052e-05
5.69786e-05
2.22103e-05
5.69418e-05
3.61019e-06
5.57664e-05
-1.44795e-05
5.42378e-05
-3.19875e-05
5.24882e-05
-4.87537e-05
5.02476e-05
-6.46241e-05
4.75909e-05
-7.95032e-05
4.46158e-05
-9.33855e-05
4.16588e-05
-0.000106203
3.84057e-05
-0.000117871
3.49965e-05
-0.000128467
3.17694e-05
-0.000137924
2.83767e-05
-0.000146426
2.54895e-05
-0.000153825
2.21813e-05
-0.000160101
1.88443e-05
-0.000165463
1.61283e-05
-0.00017005
1.37852e-05
-0.000173628
1.07719e-05
-0.000176542
8.74079e-06
-0.000178745
6.5997e-06
-0.000180191
4.34817e-06
-0.000181036
2.53682e-06
-0.000181222
5.52733e-07
-0.000180766
-1.37076e-06
-0.000179686
-3.24849e-06
-0.00017796
-5.15257e-06
-0.000175571
-7.1579e-06
-0.000172508
-9.20174e-06
-0.000168815
-1.10845e-05
-0.000164423
-1.31917e-05
-0.000159297
-1.53791e-05
-0.000153422
-1.76252e-05
-0.000146858
-1.96693e-05
-0.000139532
-2.19799e-05
-0.000131395
-2.44222e-05
-0.00012246
-2.68189e-05
-0.000112636
-2.94784e-05
-0.000102047
-3.17415e-05
-9.0532e-05
-3.45152e-05
-7.81826e-05
-3.70777e-05
-6.49472e-05
-3.97105e-05
-5.08411e-05
-4.23e-05
-3.59053e-05
-4.48009e-05
-2.01895e-05
-4.71265e-05
-3.74588e-06
-4.93069e-05
1.33599e-05
-5.12928e-05
3.09968e-05
-5.29039e-05
4.89934e-05
-5.39303e-05
6.72076e-05
-5.46009e-05
8.54739e-05
-5.47417e-05
0.000103466
-5.39209e-05
0.000120996
-5.25413e-05
0.000137777
-5.02827e-05
0.000153524
-4.71816e-05
0.000167943
-4.32011e-05
0.00018074
-3.83566e-05
0.000191673
-3.27326e-05
0.00020049
-2.64179e-05
0.000207034
-1.96035e-05
0.000211157
-1.23976e-05
0.000212845
-5.02946e-06
0.000212022
2.42325e-06
0.000208666
1.00461e-05
0.000202819
1.75197e-05
0.000194661
2.44125e-05
0.000184417
3.0683e-05
0.000172179
3.66801e-05
0.000158309
4.15186e-05
0.000142994
4.58734e-05
0.000126532
4.9375e-05
0.000109236
5.18727e-05
9.12615e-05
5.38188e-05
7.29944e-05
5.47588e-05
5.46844e-05
5.49261e-05
3.63788e-05
5.48654e-05
1.85022e-05
5.36022e-05
1.09289e-06
5.22109e-05
-1.56924e-05
5.03077e-05
-3.17871e-05
4.82733e-05
-4.70183e-05
4.56773e-05
-6.13981e-05
4.31313e-05
-7.48594e-05
4.03711e-05
-8.7373e-05
3.75247e-05
-9.89428e-05
3.47363e-05
-0.00010954
3.18003e-05
-0.000119261
2.91707e-05
-0.000128153
2.66583e-05
-0.000136048
2.36661e-05
-0.000143054
2.10251e-05
-0.000149207
1.8455e-05
-0.000154533
1.60055e-05
-0.00015926
1.41903e-05
-0.000163097
1.15344e-05
-0.000166299
9.61634e-06
-0.000168915
7.83264e-06
-0.000170787
5.59893e-06
-0.000172055
3.79214e-06
-0.000172622
1.71542e-06
-0.000172503
-3.28936e-07
-0.000171778
-2.16637e-06
-0.000170295
-4.45046e-06
-0.000168133
-6.51325e-06
-0.000165253
-8.63829e-06
-0.000161591
-1.09921e-05
-0.000157147
-1.33593e-05
-0.000151873
-1.58001e-05
-0.000145734
-1.84066e-05
-0.000138782
-2.08666e-05
-0.000130935
-2.35445e-05
-0.000122213
-2.61494e-05
-0.000112637
-2.87313e-05
-0.000102147
-3.14581e-05
-9.08109e-05
-3.40095e-05
-7.8604e-05
-3.6637e-05
-6.55277e-05
-3.92216e-05
-5.16888e-05
-4.14748e-05
-3.70852e-05
-4.38217e-05
-2.17452e-05
-4.60042e-05
-5.71949e-06
-4.80695e-05
1.08783e-05
-4.9747e-05
2.79932e-05
-5.12984e-05
4.54665e-05
-5.24146e-05
6.32025e-05
-5.31805e-05
8.10165e-05
-5.33894e-05
9.87148e-05
-5.30418e-05
0.00011613
-5.21797e-05
0.000133015
-5.06095e-05
0.000149094
-4.82185e-05
0.000164183
-4.52423e-05
0.000178079
-4.16104e-05
0.00019057
-3.74047e-05
0.000201301
-3.21743e-05
0.000210143
-2.64997e-05
0.000216919
-2.02808e-05
0.000221402
-1.34429e-05
0.000223624
-6.62579e-06
0.000223363
7.16738e-07
0.000220765
7.7205e-06
0.000215889
1.46512e-05
0.000208746
2.13987e-05
0.00019955
2.75444e-05
0.00018841
3.3411e-05
0.000175484
3.87059e-05
0.000161168
4.29677e-05
0.000145456
4.69955e-05
0.000128775
4.99764e-05
0.000111317
5.23282e-05
9.33978e-05
5.37472e-05
7.51915e-05
5.46034e-05
5.68993e-05
5.48325e-05
3.87877e-05
5.42792e-05
2.10503e-05
5.3175e-05
3.78384e-06
5.17672e-05
-1.27729e-05
4.96531e-05
-2.85806e-05
4.74032e-05
-4.35534e-05
4.48918e-05
-5.75831e-05
4.20507e-05
-7.05283e-05
3.88418e-05
-8.24736e-05
3.58353e-05
-9.33199e-05
3.2512e-05
-0.000103091
2.93444e-05
-0.000111916
2.64643e-05
-0.000119662
2.32369e-05
-0.000126391
2.02026e-05
-0.000132232
1.75781e-05
-0.000137321
1.52232e-05
-0.000141487
1.25143e-05
-0.000144806
9.98418e-06
-0.000147304
7.50722e-06
-0.00014918
5.59943e-06
-0.0001503
3.37842e-06
-0.000150768
1.42441e-06
-0.000150574
-5.88591e-07
-0.000149786
-2.34635e-06
-0.000148338
-4.35009e-06
-0.000146284
-6.18802e-06
-0.000143632
-7.93399e-06
-0.000140326
-9.9221e-06
-0.000136334
-1.1934e-05
-0.000131882
-1.33584e-05
-0.000126603
-1.58692e-05
-0.000120568
-1.80985e-05
-0.000113837
-2.01651e-05
-0.000106341
-2.2498e-05
-9.79184e-05
-2.52702e-05
-8.86699e-05
-2.77341e-05
-7.85444e-05
-3.03974e-05
-6.73263e-05
-3.36299e-05
-5.51374e-05
-3.65369e-05
-4.2134e-05
-3.90288e-05
-2.80722e-05
-4.21861e-05
-1.31307e-05
-4.47978e-05
2.57284e-06
-4.71287e-05
1.93043e-05
-5.01841e-05
3.67759e-05
-5.2404e-05
5.48681e-05
-5.42609e-05
7.3458e-05
-5.57451e-05
9.22361e-05
-5.63075e-05
0.000111031
-5.63592e-05
0.000129714
-5.60146e-05
0.000147863
-5.44209e-05
0.000165381
-5.25274e-05
0.000181915
-4.95815e-05
0.000197276
-4.60886e-05
0.000211292
-4.20694e-05
0.000223568
-3.68808e-05
0.000233993
-3.13746e-05
0.000242431
-2.54279e-05
0.00024858
-1.86135e-05
0.000252446
-1.17169e-05
0.000253861
-4.14106e-06
0.00025309
2.67918e-06
0.000250268
8.80369e-06
0.000245297
1.50246e-05
0.000238401
2.06845e-05
0.000229542
2.65539e-05
0.000218694
3.25165e-05
0.00020626
3.72665e-05
0.000192273
4.19248e-05
0.000176823
4.63083e-05
0.000160354
4.93647e-05
0.000142925
5.22411e-05
0.000124879
5.40991e-05
0.000106362
5.55011e-05
8.74823e-05
5.65973e-05
6.86321e-05
5.65e-05
4.99764e-05
5.59804e-05
3.15956e-05
5.50503e-05
1.38451e-05
5.31672e-05
-3.22993e-06
5.12464e-05
-1.94251e-05
4.856e-05
-3.46723e-05
4.57205e-05
-4.88499e-05
4.25162e-05
-6.18681e-05
3.90443e-05
-7.37181e-05
3.55403e-05
-8.43676e-05
3.19367e-05
-9.38302e-05
2.83883e-05
-0.000102129
2.49004e-05
-0.000109298
2.15236e-05
-0.000115403
1.83202e-05
-0.000120482
1.52413e-05
-0.0001246
1.23616e-05
-0.000127807
9.63554e-06
-0.000130163
7.07908e-06
-0.000131734
4.72263e-06
-0.000132566
2.50641e-06
-0.000132687
3.84677e-07
-0.000132112
-1.69874e-06
-0.000130963
-3.43298e-06
-0.000129176
-5.36037e-06
-0.000126811
-7.09172e-06
-0.00012395
-8.56139e-06
-0.000120495
-1.03717e-05
-0.00011651
-1.19601e-05
-0.000112024
-1.34597e-05
-0.000106922
-1.53113e-05
-0.000101296
-1.68993e-05
-9.49438e-05
-1.90575e-05
-8.80053e-05
-2.08054e-05
-8.05111e-05
-2.24955e-05
-7.22289e-05
-2.48392e-05
-6.3241e-05
-2.69864e-05
-5.34734e-05
-2.92989e-05
-4.28227e-05
-3.19505e-05
-3.13979e-05
-3.42691e-05
-1.90019e-05
-3.72132e-05
-5.56235e-06
-4.03492e-05
8.47517e-06
-4.20671e-05
2.3358e-05
-4.46312e-05
3.88315e-05
-4.64014e-05
-4.81758e-05
0.000206292
2.88336e-05
0.000197287
3.59358e-05
0.00018622
4.41667e-05
0.000173183
5.20256e-05
0.000158677
5.78978e-05
0.000142696
6.37658e-05
0.000125631
6.8135e-05
0.000107649
7.17897e-05
8.90798e-05
7.4128e-05
7.01458e-05
7.55792e-05
5.11312e-05
7.60586e-05
3.21918e-05
7.55721e-05
1.35345e-05
7.4498e-05
-4.54959e-06
7.22722e-05
-2.20129e-05
6.9771e-05
-3.87766e-05
6.69867e-05
-5.46909e-05
6.36034e-05
-6.96984e-05
5.99893e-05
-8.37754e-05
5.62729e-05
-9.68701e-05
5.23482e-05
-0.000108979
4.84225e-05
-0.000120118
4.45451e-05
-0.000130287
4.06664e-05
-0.000139501
3.68693e-05
-0.000147805
3.32217e-05
-0.000155217
2.96378e-05
-0.000161737
2.60874e-05
-0.000167425
2.27549e-05
-0.000172299
1.9489e-05
-0.000176381
1.63235e-05
-0.000179686
1.32096e-05
-0.000182255
1.02632e-05
-0.000184073
7.27108e-06
-0.000185171
4.4389e-06
-0.00018553
1.58896e-06
-0.00018515
-1.44629e-06
-0.000183968
-4.7416e-06
-0.000182083
-7.53188e-06
-0.000179474
-1.05061e-05
-0.000175929
-1.41528e-05
-0.00017168
-1.69873e-05
-0.000166505
-2.07153e-05
-0.000160494
-2.40999e-05
-0.000153633
-2.75178e-05
-0.000145713
-3.16054e-05
-0.000136981
-3.49289e-05
-0.000127347
-3.85201e-05
-0.000116585
-4.30818e-05
-0.00010489
-4.67789e-05
-9.2357e-05
-5.01063e-05
-7.86748e-05
-5.48121e-05
-6.41748e-05
-5.78696e-05
-4.86666e-05
-6.20313e-05
-3.22454e-05
-6.56016e-05
-1.53016e-05
-6.77462e-05
2.35044e-06
-7.05195e-05
2.05637e-05
-7.27451e-05
3.89554e-05
-7.347e-05
5.75191e-05
-7.4134e-05
7.60179e-05
-7.38461e-05
9.42379e-05
-7.2722e-05
0.000112107
-7.13223e-05
0.00012914
-6.79867e-05
0.000145272
-6.4381e-05
0.000160306
-5.99874e-05
0.000173799
-5.38681e-05
0.000185839
-4.79691e-05
0.000196084
-4.08638e-05
0.000204373
-3.30423e-05
0.000210611
-2.48018e-05
0.000214563
-1.57319e-05
0.000216228
-6.64715e-06
0.000215578
2.43195e-06
0.000212599
1.17722e-05
0.000207289
2.12109e-05
0.000199683
3.03538e-05
0.000190023
3.85821e-05
0.000178314
4.66755e-05
0.000164827
5.38651e-05
0.000149823
5.98781e-05
0.000133499
6.51199e-05
0.00011605
6.96382e-05
9.79605e-05
7.21999e-05
7.9207e-05
7.48644e-05
6.02413e-05
7.57435e-05
4.11835e-05
7.60364e-05
2.21616e-05
7.59638e-05
3.55256e-06
7.43755e-05
-1.45512e-05
7.23416e-05
-3.20801e-05
7.00171e-05
-4.88792e-05
6.70467e-05
-6.47719e-05
6.34836e-05
-7.96861e-05
5.953e-05
-9.35231e-05
5.54957e-05
-0.000106355
5.12374e-05
-0.000118042
4.6684e-05
-0.000128639
4.23658e-05
-0.000138082
3.78198e-05
-0.000146612
3.40194e-05
-0.000154025
2.95945e-05
-0.000160278
2.50973e-05
-0.000165652
2.15021e-05
-0.000170192
1.83255e-05