/*--------------------------------*- C++ -*----------------------------------*\
| =========                 |                                                 |
| \\      /  F ield         | OpenFOAM: The Open Source CFD Toolbox           |
|  \\    /   O peration     | Version:  3.0.1                                 |
|   \\  /    A nd           | Web:      www.OpenFOAM.org                      |
|    \\/     M anipulation  |                                                 |
\*---------------------------------------------------------------------------*/
FoamFile
{
    version     2.0;
    format      ascii;
    class       volScalarField;
    location    "24.6";
    object      p;
}
// * * * * * * * * * * * * * * * * * * * * * * * * * * * * * * * * * * * * * //

dimensions      [1 -1 -2 0 0 0 0];

internalField   nonuniform List<scalar> 
21420
(
4269.16
4255.88
4239.07
4218.94
4195.72
4169.74
4141.35
4110.94
4078.87
4045.59
4011.52
3977.05
3942.62
3908.81
3877.25
3845.02
3813.84
3784
3755.68
3729.03
3704.15
3681.09
3659.89
3640.56
3623.08
3607.42
3593.54
3581.4
3570.94
3562.12
3554.88
3549.18
3544.98
3542.23
3540.98
3541.2
3542.79
3545.83
3550.33
3556.3
3563.78
3572.8
3583.41
3595.65
3609.56
3625.19
3642.59
3661.76
3682.71
3705.46
3729.95
3756.11
3783.85
3813.02
3843.41
3874.74
3905.07
3937.39
3970.25
4003.13
4035.64
4067.41
4098.03
4127.19
4154.52
4179.68
4202.37
4222.27
4239.1
4252.62
4262.61
4268.88
4271.21
4269.88
4264.63
4255.51
4242.55
4225.87
4205.7
4182.32
4156.04
4127.21
4096.24
4063.54
4029.53
3994.62
3959.2
3923.61
3887.41
3852.44
3818.9
3786.85
3756.43
3727.79
3701.05
3676.32
3653.66
3633.11
3614.7
3598.38
3584.11
3571.81
3561.41
3552.81
3545.91
3540.64
3536.9
3534.61
3533.75
3534.27
3536.09
3539.22
3543.64
3549.35
3556.35
3564.68
3574.34
3585.37
3597.78
3611.64
3626.95
3643.75
3662.06
3681.9
3703.28
3726.19
3750.62
3776.51
3803.81
3832.41
3862.17
3892.96
3924.48
3956.52
3988.75
4020.85
4052.42
4083.07
4112.37
4139.91
4165.25
4188.01
4207.81
4224.32
4237.27
4246.42
4251.6
4252.64
4249.65
4242.53
4231.42
4216.46
4197.9
4176.03
4151.18
4123.74
4094.14
4062.82
4030.22
3996.79
3962.95
3929.11
3895.64
3862.88
3831.07
3800.45
3771.22
3743.55
3717.53
3693.25
3670.74
3650.03
3631.09
3613.91
3598.43
3584.62
3572.41
3561.74
3552.55
3544.8
3538.44
3533.45
3529.76
3527.39
3526.34
3526.6
3528.15
3531.03
3535.28
3540.93
3548.01
3556.57
3566.65
3578.3
3591.56
3606.45
3622.99
3641.21
3661.08
3682.59
3705.7
3730.34
3756.43
3783.86
3812.48
3842.13
3872.58
3903.62
3934.98
3966.37
3997.47
4027.95
4057.45
4085.6
4112.02
4136.36
4158.25
4177.35
4193.35
4206.01
4215.08
4220.4
4221.83
4219.38
4213.01
4202.84
4188.97
4171.59
4150.95
4127.33
4101.09
4072.56
4042.16
4010.28
3977.34
3943.76
3909.94
3876.24
3843.03
3810.61
3779.26
3749.2
3720.63
3693.69
3668.5
3645.13
3623.63
3603.99
3586.22
3570.28
3556.12
3543.7
3532.94
3523.8
3516.19
3510.07
3505.36
3502.03
3500.04
3499.35
3499.91
3501.72
3504.78
3509.1
3514.67
3521.55
3529.76
3539.33
3550.3
3562.72
3576.63
3592.06
3609.04
3627.58
3647.64
3669.17
3692.11
3716.32
3742.01
3777
3807.81
3839.29
3871.54
3904.3
3937.29
3970.17
4002.51
4033.97
4064.09
4092.46
4118.66
4142.28
4162.98
4180.41
4194.28
4204.36
4210.41
4212.54
4211.66
4206.87
4198.19
4185.91
4170.17
4151.16
4129.1
4104.28
4077.06
4047.72
4016.68
3984.25
3950.83
3916.86
3882.64
3848.52
3814.84
3782.15
3754.71
3725.22
3697.1
3670.72
3646.27
3623.9
3603.67
3585.61
3569.7
3555.89
3544.13
3534.33
3526.42
3520.28
3515.83
3512.98
3511.68
3511.86
3513.42
3516.29
3520.42
3525.77
3532.31
3540.06
3548.99
3559.11
3570.44
3582.99
3596.82
3611.95
3628.4
3646.22
3665.43
3686.05
3708.05
3731.34
3755.63
3777.37
3798.97
3823.89
3850.46
4171.21
4157.91
4141.09
4120.94
4097.71
4071.72
4043.31
4012.87
3980.79
3947.5
3913.41
3878.93
3844.48
3810.66
3779.09
3746.85
3715.66
3685.82
3657.49
3630.85
3605.96
3582.91
3561.71
3542.38
3524.9
3509.24
3495.37
3483.23
3472.78
3463.96
3456.72
3451.02
3446.82
3444.08
3442.83
3443.04
3444.63
3447.67
3452.17
3458.14
3465.62
3474.64
3485.24
3497.48
3511.39
3527.02
3544.41
3563.58
3584.53
3607.28
3631.77
3657.93
3685.68
3714.85
3745.25
3776.59
3806.92
3839.25
3872.12
3905.02
3937.55
3969.33
3999.97
4029.14
4056.49
4081.67
4104.37
4124.28
4141.12
4154.65
4164.65
4170.93
4173.27
4171.93
4166.69
4157.56
4144.59
4127.9
4107.71
4084.31
4058.02
4029.18
3998.19
3965.46
3931.44
3896.51
3861.08
3825.48
3789.25
3754.27
3720.72
3688.67
3658.25
3629.6
3602.86
3578.12
3555.46
3534.92
3516.51
3500.2
3485.93
3473.63
3463.24
3454.64
3447.75
3442.48
3438.74
3436.46
3435.59
3436.12
3437.94
3441.07
3445.49
3451.19
3458.2
3466.53
3476.19
3487.21
3499.62
3513.47
3528.78
3545.58
3563.89
3583.73
3605.11
3628.02
3652.44
3678.34
3705.64
3734.24
3764.01
3794.8
3826.34
3858.38
3890.63
3922.74
3954.33
3985
4014.32
4041.87
4067.23
4090.01
4109.83
4126.36
4139.32
4148.48
4153.66
4154.71
4151.7
4144.59
4133.46
4118.5
4099.92
4078.03
4053.16
4025.71
3996.09
3964.75
3932.13
3898.68
3864.83
3830.97
3797.48
3764.72
3732.9
3702.27
3673.05
3645.37
3619.35
3595.07
3572.56
3551.85
3532.92
3515.73
3500.26
3486.45
3474.24
3463.58
3454.39
3446.64
3440.29
3435.29
3431.61
3429.24
3428.19
3428.44
3429.99
3432.88
3437.12
3442.77
3449.85
3458.41
3468.49
3480.14
3493.39
3508.27
3524.82
3543.03
3562.9
3584.42
3607.53
3632.17
3658.26
3685.69
3714.32
3743.97
3774.44
3805.48
3836.85
3868.26
3899.37
3929.87
3959.38
3987.54
4013.99
4038.34
4060.24
4079.36
4095.38
4108.04
4117.12
4122.45
4123.88
4121.43
4115.06
4104.89
4091
4073.61
4052.95
4029.32
4003.06
3974.51
3944.09
3912.19
3879.24
3845.65
3811.81
3778.1
3744.87
3712.45
3681.09
3651.03
3622.45
3595.51
3570.32
3546.95
3525.44
3505.81
3488.04
3472.1
3457.95
3445.53
3434.78
3425.63
3418.03
3411.91
3407.21
3403.88
3401.89
3401.2
3401.76
3403.57
3406.63
3410.94
3416.52
3423.4
3431.61
3441.17
3452.14
3464.56
3478.47
3493.89
3510.87
3529.41
3549.47
3571
3593.94
3618.15
3643.82
3678.86
3709.65
3741.14
3773.39
3806.17
3839.17
3872.07
3904.42
3935.9
3966.04
3994.43
4020.65
4044.29
4065
4082.45
4096.32
4106.41
4112.47
4114.61
4113.7
4108.92
4100.23
4087.95
4072.19
4053.17
4031.1
4006.26
3979.02
3949.67
3918.61
3886.16
3852.73
3818.74
3784.51
3750.38
3716.68
3683.99
3656.52
3627.03
3598.9
3572.52
3548.08
3525.71
3505.48
3487.42
3471.51
3457.71
3445.95
3436.16
3428.25
3422.11
3417.67
3414.82
3413.52
3413.71
3415.27
3418.14
3422.27
3427.62
3434.17
3441.91
3450.84
3460.96
3472.29
3484.84
3498.67
3513.79
3530.24
3548.06
3567.27
3587.89
3609.89
3633.18
3657.46
3679.24
3700.82
3725.74
3752.31
4073.41
4060.09
4043.24
4023.06
3999.8
3973.77
3945.33
3914.85
3882.74
3849.41
3815.28
3780.78
3746.3
3712.47
3680.86
3648.61
3617.41
3587.56
3559.23
3532.58
3507.7
3484.64
3463.45
3444.12
3426.64
3410.99
3397.12
3384.99
3374.54
3365.73
3358.5
3352.8
3348.6
3345.87
3344.62
3344.82
3346.41
3349.45
3353.95
3359.92
3367.4
3376.41
3387.01
3399.24
3413.14
3428.77
3446.16
3465.32
3486.27
3509.02
3533.51
3559.68
3587.43
3616.61
3647.03
3678.4
3708.71
3741.07
3773.97
3806.9
3839.46
3871.27
3901.94
3931.14
3958.53
3983.73
4006.46
4026.41
4043.27
4056.82
4066.84
4073.13
4075.49
4074.14
4068.9
4059.75
4046.77
4030.06
4009.84
3986.41
3960.08
3931.2
3900.18
3867.41
3833.35
3798.4
3762.94
3727.32
3691.02
3656.03
3622.47
3590.41
3559.97
3531.32
3504.57
3479.83
3457.18
3436.64
3418.23
3401.93
3387.67
3375.38
3364.99
3356.4
3349.52
3344.25
3340.53
3338.25
3337.39
3337.91
3339.74
3342.86
3347.28
3352.99
3359.99
3368.32
3377.97
3388.99
3401.41
3415.25
3430.56
3447.35
3465.65
3485.49
3506.86
3529.77
3554.2
3580.1
3607.4
3636.01
3665.79
3696.6
3728.15
3760.21
3792.49
3824.63
3856.26
3886.96
3916.31
3943.9
3969.3
3992.11
4011.96
4028.52
4041.51
4050.68
4055.88
4056.95
4053.92
4046.8
4035.65
4020.66
4002.06
3980.13
3955.23
3927.73
3898.08
3866.7
3834.04
3800.56
3766.67
3732.79
3699.28
3666.5
3634.66
3604.03
3574.79
3547.11
3521.09
3496.8
3474.3
3453.59
3434.66
3417.49
3402.02
3388.22
3376.02
3365.35
3356.18
3348.43
3342.08
3337.09
3333.4
3331.03
3329.99
3330.24
3331.79
3334.67
3338.91
3344.55
3351.63
3360.18
3370.26
3381.9
3395.15
3410.03
3426.57
3444.78
3464.65
3486.17
3509.28
3533.93
3560.02
3587.46
3616.09
3645.76
3676.24
3707.31
3738.7
3770.13
3801.27
3831.8
3861.34
3889.54
3916.01
3940.4
3962.34
3981.48
3997.53
4010.21
4019.31
4024.66
4026.1
4023.62
4017.25
4007.07
3993.16
3975.75
3955.06
3931.4
3905.1
3876.52
3846.06
3814.13
3781.14
3747.51
3713.64
3679.91
3646.66
3614.22
3582.84
3552.77
3524.19
3497.24
3472.05
3448.68
3427.18
3407.55
3389.79
3373.85
3359.71
3347.29
3336.55
3327.41
3319.81
3313.7
3309
3305.67
3303.69
3302.99
3303.56
3305.37
3308.43
3312.74
3318.32
3325.19
3333.39
3342.96
3353.92
3366.33
3380.23
3395.66
3412.63
3431.17
3451.23
3472.77
3495.71
3519.91
3545.54
3580.68
3611.44
3642.93
3675.21
3708.01
3741.04
3773.96
3806.35
3837.87
3868.04
3896.47
3922.73
3946.4
3967.14
3984.61
3998.51
4008.62
4014.71
4016.86
4015.9
4011.1
4002.42
3990.12
3974.34
3955.3
3933.19
3908.32
3881.05
3851.66
3820.56
3788.09
3754.62
3720.6
3686.34
3652.19
3618.48
3585.79
3558.24
3528.75
3500.62
3474.23
3449.78
3427.41
3407.19
3389.14
3373.23
3359.44
3347.69
3337.91
3330
3323.88
3319.44
3316.6
3315.31
3315.5
3317.07
3319.94
3324.07
3329.43
3335.97
3343.71
3352.64
3362.76
3374.09
3386.64
3400.46
3415.58
3432.02
3449.84
3469.05
3489.66
3511.66
3534.95
3559.22
3581.08
3602.6
3627.52
3654.11
3975.75
3962.4
3945.51
3925.29
3901.98
3875.9
3847.4
3816.87
3784.7
3751.32
3717.15
3682.6
3648.09
3614.23
3582.57
3550.3
3519.08
3489.22
3460.88
3434.23
3409.34
3386.29
3365.1
3345.78
3328.31
3312.67
3298.81
3286.68
3276.24
3267.44
3260.21
3254.52
3250.33
3247.6
3246.35
3246.55
3248.14
3251.18
3255.68
3261.64
3269.11
3278.12
3288.71
3300.94
3314.83
3330.45
3347.83
3366.99
3387.94
3410.68
3435.17
3461.34
3489.1
3518.3
3548.75
3580.15
3610.44
3642.85
3675.8
3708.77
3741.37
3773.23
3803.95
3833.2
3860.63
3885.88
3908.66
3928.64
3945.54
3959.13
3969.17
3975.48
3977.87
3976.5
3971.26
3962.1
3949.09
3932.35
3912.09
3888.61
3862.23
3833.29
3802.21
3769.39
3735.28
3700.27
3664.78
3629.12
3592.74
3557.72
3524.14
3492.06
3461.61
3432.95
3406.2
3381.45
3358.8
3338.27
3319.86
3303.57
3289.32
3277.05
3266.67
3258.1
3251.22
3245.97
3242.25
3239.98
3239.13
3239.66
3241.48
3244.61
3249.03
3254.73
3261.74
3270.05
3279.71
3290.72
3303.13
3316.97
3332.26
3349.05
3367.35
3387.18
3408.55
3431.46
3455.89
3481.79
3509.1
3537.72
3567.51
3598.33
3629.92
3662.01
3694.33
3726.51
3758.19
3788.94
3818.36
3846
3871.46
3894.32
3914.22
3930.82
3943.84
3953.05
3958.26
3959.35
3956.29
3949.16
3937.99
3922.97
3904.32
3882.34
3857.38
3829.83
3800.11
3768.67
3735.96
3702.42
3668.49
3634.57
3601.02
3568.22
3536.36
3505.7
3476.46
3448.77
3422.74
3398.46
3375.96
3355.26
3336.34
3319.17
3303.71
3289.92
3277.73
3267.07
3257.9
3250.16
3243.82
3238.83
3235.15
3232.78
3231.74
3231.98
3233.53
3236.41
3240.64
3246.28
3253.35
3261.89
3271.96
3283.6
3296.84
3311.72
3328.25
3346.46
3366.33
3387.84
3410.96
3435.61
3461.72
3489.17
3517.81
3547.5
3578.01
3609.1
3640.52
3671.99
3703.17
3733.74
3763.33
3791.58
3818.11
3842.54
3864.53
3883.72
3899.81
3912.52
3921.65
3927.01
3928.48
3925.97
3919.6
3909.39
3895.46
3878.01
3857.27
3833.56
3807.21
3778.58
3748.06
3716.08
3683.04
3649.36
3615.45
3581.68
3548.4
3515.93
3484.53
3454.44
3425.85
3398.9
3373.7
3350.33
3328.83
3309.21
3291.45
3275.53
3261.39
3248.99
3238.25
3229.12
3221.53
3215.43
3210.73
3207.42
3205.44
3204.74
3205.31
3207.12
3210.18
3214.49
3220.06
3226.93
3235.12
3244.68
3255.63
3268.04
3281.93
3297.35
3314.32
3332.86
3352.91
3374.46
3397.4
3421.6
3447.17
3482.46
3513.16
3544.67
3576.98
3609.81
3642.89
3675.86
3708.3
3739.87
3770.09
3798.57
3824.89
3848.61
3869.39
3886.91
3900.84
3910.97
3917.1
3919.26
3918.25
3913.43
3904.75
3892.43
3876.62
3857.53
3835.39
3810.46
3783.14
3753.7
3722.55
3690.03
3656.51
3622.44
3588.14
3553.95
3520.21
3487.52
3459.87
3430.37
3402.24
3375.84
3351.4
3329.03
3308.81
3290.76
3274.87
3261.09
3249.35
3239.58
3231.69
3225.58
3221.15
3218.32
3217.04
3217.24
3218.82
3221.69
3225.83
3231.18
3237.73
3245.47
3254.4
3264.51
3275.83
3288.38
3302.19
3317.31
3333.75
3351.56
3370.76
3391.37
3413.37
3436.66
3460.91
3482.88
3504.33
3529.26
3555.87
3878.24
3864.84
3847.91
3827.63
3804.25
3778.1
3749.53
3718.93
3686.69
3653.24
3619.01
3584.4
3549.84
3515.94
3484.21
3451.91
3420.68
3390.79
3362.45
3335.79
3310.9
3287.85
3266.67
3247.36
3229.9
3214.27
3200.42
3188.31
3177.88
3169.08
3161.87
3156.19
3152
3149.28
3148.03
3148.22
3149.81
3152.85
3157.35
3163.3
3170.77
3179.76
3190.35
3202.56
3216.44
3232.05
3249.42
3268.58
3289.52
3312.26
3336.75
3362.93
3390.71
3419.93
3450.41
3481.85
3512.13
3544.59
3577.6
3610.63
3643.29
3675.21
3705.99
3735.31
3762.8
3788.11
3810.95
3830.99
3847.94
3861.57
3871.65
3877.98
3880.4
3879.03
3873.78
3864.6
3851.55
3834.76
3814.45
3790.91
3764.45
3735.44
3704.29
3671.39
3637.21
3602.14
3566.59
3530.89
3494.38
3459.34
3425.74
3393.63
3363.17
3334.49
3307.73
3282.98
3260.33
3239.8
3221.41
3205.13
3190.9
3178.64
3168.28
3159.72
3152.86
3147.63
3143.92
3141.66
3140.82
3141.34
3143.18
3146.3
3150.72
3156.43
3163.42
3171.74
3181.38
3192.39
3204.79
3218.62
3233.91
3250.69
3268.98
3288.8
3310.17
3333.07
3357.5
3383.4
3410.72
3439.35
3469.17
3500.02
3531.64
3563.78
3596.15
3628.39
3660.13
3690.96
3720.44
3748.17
3773.7
3796.63
3816.6
3833.26
3846.33
3855.56
3860.8
3861.9
3858.82
3851.68
3840.47
3825.4
3806.7
3784.65
3759.61
3731.98
3702.19
3670.67
3637.89
3604.28
3570.29
3536.31
3502.71
3469.88
3437.99
3407.31
3378.05
3350.35
3324.32
3300.04
3277.54
3256.85
3237.94
3220.78
3205.34
3191.56
3179.37
3168.73
3159.57
3151.84
3145.5
3140.51
3136.84
3134.48
3133.43
3133.67
3135.22
3138.09
3142.32
3147.95
3155.01
3163.54
3173.6
3185.23
3198.47
3213.33
3229.86
3248.07
3267.93
3289.44
3312.56
3337.22
3363.34
3390.8
3419.47
3449.19
3479.72
3510.85
3542.32
3573.83
3605.07
3635.7
3665.35
3693.67
3720.26
3744.76
3766.81
3786.07
3802.21
3814.97
3824.13
3829.51
3830.99
3828.48
3822.1
3811.86
3797.88
3780.38
3759.59
3735.81
3709.39
3680.68
3650.1
3618.04
3584.94
3551.2
3517.22
3483.4
3450.08
3417.57
3386.15
3356.03
3327.43
3300.47
3275.27
3251.9
3230.41
3210.79
3193.05
3177.13
3163.01
3150.62
3139.89
3130.78
3123.2
3117.1
3112.42
3109.11
3107.13
3106.44
3107.01
3108.82
3111.88
3116.18
3121.75
3128.61
3136.8
3146.35
3157.29
3169.68
3183.57
3198.98
3215.95
3234.48
3254.53
3276.09
3299.03
3323.22
3348.72
3384.19
3414.83
3446.36
3478.71
3511.59
3544.72
3577.75
3610.26
3641.9
3672.2
3700.75
3727.14
3750.93
3771.77
3789.34
3803.31
3813.48
3819.65
3821.82
3820.76
3815.92
3807.23
3794.88
3779.02
3759.88
3737.67
3712.69
3685.29
3655.79
3624.57
3591.98
3558.4
3524.27
3489.91
3455.67
3421.89
3389.2
3361.41
3331.91
3303.76
3277.36
3252.91
3230.54
3210.33
3192.3
3176.42
3162.65
3150.93
3141.18
3133.31
3127.21
3122.8
3119.98
3118.71
3118.92
3120.51
3123.4
3127.54
3132.89
3139.44
3147.18
3156.1
3166.21
3177.53
3190.07
3203.88
3218.98
3235.41
3253.21
3272.41
3293.02
3315.02
3338.31
3362.54
3384.65
3405.99
3430.93
3457.57
3780.88
3767.43
3750.43
3730.07
3706.62
3680.38
3651.72
3621.03
3588.7
3555.16
3520.85
3486.17
3451.55
3417.6
3385.78
3353.46
3322.2
3292.29
3263.93
3237.27
3212.38
3189.33
3168.15
3148.85
3131.41
3115.79
3101.96
3089.86
3079.45
3070.66
3063.46
3057.79
3053.61
3050.9
3049.65
3049.83
3051.43
3054.47
3058.95
3064.9
3072.36
3081.34
3091.92
3104.12
3117.98
3133.58
3150.94
3170.08
3191.02
3213.75
3238.25
3264.44
3292.23
3321.48
3352
3383.51
3413.75
3446.29
3479.37
3512.47
3545.21
3577.21
3608.07
3637.46
3665.04
3690.43
3713.34
3733.45
3750.47
3764.15
3774.28
3780.63
3783.07
3781.72
3776.46
3767.25
3754.16
3737.31
3716.92
3693.3
3666.76
3637.66
3606.41
3573.42
3539.15
3504
3468.39
3432.63
3395.97
3360.89
3327.25
3295.12
3264.63
3235.93
3209.16
3184.41
3161.76
3141.24
3122.87
3106.6
3092.39
3080.15
3069.82
3061.28
3054.44
3049.22
3045.53
3043.28
3042.46
3042.98
3044.82
3047.95
3052.36
3058.07
3065.06
3073.37
3083
3094
3106.39
3120.21
3135.49
3152.26
3170.54
3190.35
3211.71
3234.62
3259.04
3284.95
3312.28
3340.93
3370.77
3401.65
3433.31
3465.51
3497.94
3530.26
3562.08
3593
3622.58
3650.4
3676.02
3699.05
3719.09
3735.83
3748.96
3758.23
3763.49
3764.61
3761.53
3754.35
3743.1
3727.97
3709.19
3687.06
3661.93
3634.2
3604.31
3572.7
3539.82
3506.13
3472.06
3438.01
3404.35
3371.48
3339.54
3308.84
3279.56
3251.85
3225.81
3201.53
3179.04
3158.36
3139.46
3122.32
3106.89
3093.13
3080.96
3070.33
3061.18
3053.46
3047.13
3042.15
3038.48
3036.13
3035.07
3035.31
3036.85
3039.72
3043.94
3049.56
3056.61
3065.13
3075.18
3086.8
3100.02
3114.88
3131.4
3149.6
3169.46
3190.97
3214.09
3238.76
3264.89
3292.38
3321.07
3350.82
3381.39
3412.57
3444.09
3475.66
3506.97
3537.67
3567.41
3595.8
3622.48
3647.07
3669.2
3688.53
3704.74
3717.56
3726.76
3732.16
3733.66
3731.15
3724.74
3714.46
3700.44
3682.88
3662.01
3638.15
3611.64
3582.85
3552.17
3520.02
3486.83
3453.01
3418.97
3385.08
3351.7
3319.15
3287.69
3257.55
3228.92
3201.95
3176.75
3153.38
3131.9
3112.29
3094.56
3078.66
3064.55
3052.18
3041.47
3032.37
3024.8
3018.72
3014.05
3010.75
3008.78
3008.09
3008.66
3010.48
3013.53
3017.83
3023.39
3030.24
3038.42
3047.95
3058.89
3071.27
3085.14
3100.54
3117.5
3136.02
3156.08
3177.64
3200.6
3224.79
3250.19
3285.87
3316.43
3347.99
3380.39
3413.33
3446.53
3479.64
3512.23
3543.96
3574.35
3603
3629.48
3653.35
3674.27
3691.91
3705.94
3716.15
3722.36
3724.53
3723.44
3718.57
3709.85
3697.46
3681.55
3662.34
3640.06
3614.99
3587.51
3557.92
3526.62
3493.94
3460.28
3426.07
3391.64
3357.34
3323.52
3290.82
3262.86
3233.36
3205.2
3178.79
3154.33
3131.97
3111.76
3093.74
3077.88
3064.13
3052.43
3042.7
3034.85
3028.78
3024.39
3021.59
3020.32
3020.55
3022.16
3025.05
3029.2
3034.56
3041.11
3048.84
3057.76
3067.87
3079.18
3091.71
3105.51
3120.6
3137.02
3154.81
3174
3194.6
3216.6
3239.9
3264.12
3286.39
3307.59
3332.55
3359.22
3683.66
3670.15
3653.07
3632.63
3609.08
3582.73
3553.97
3523.17
3490.72
3457.09
3422.68
3387.91
3353.22
3319.21
3287.29
3254.93
3223.64
3193.71
3165.33
3138.66
3113.77
3090.73
3069.56
3050.27
3032.84
3017.24
3003.42
2991.34
2980.95
2972.18
2964.99
2959.33
2955.16
2952.46
2951.21
2951.39
2952.99
2956.02
2960.51
2966.45
2973.89
2982.86
2993.42
3005.6
3019.45
3035.03
3052.38
3071.51
3092.44
3115.17
3139.67
3165.87
3193.68
3222.96
3253.54
3285.12
3315.32
3347.95
3381.12
3414.31
3447.14
3479.22
3510.18
3539.67
3567.34
3592.83
3615.83
3636.02
3653.12
3666.87
3677.04
3683.43
3685.9
3684.56
3679.29
3670.05
3656.91
3639.99
3619.52
3595.8
3569.15
3539.94
3508.57
3475.47
3441.09
3405.85
3370.16
3334.34
3297.48
3262.37
3228.69
3196.53
3166.01
3137.29
3110.51
3085.75
3063.1
3042.6
3024.23
3007.99
2993.8
2981.59
2971.28
2962.77
2955.96
2950.75
2947.08
2944.85
2944.03
2944.57
2946.41
2949.54
2953.96
2959.65
2966.64
2974.94
2984.57
2995.55
3007.93
3021.74
3037.01
3053.76
3072.03
3091.84
3113.19
3136.09
3160.51
3186.42
3213.76
3242.44
3272.31
3303.23
3334.94
3367.21
3399.72
3432.12
3464.05
3495.07
3524.76
3552.69
3578.43
3601.56
3621.71
3638.53
3651.73
3661.06
3666.35
3667.49
3664.4
3657.18
3645.88
3630.68
3611.81
3589.57
3564.33
3536.49
3506.48
3474.75
3441.76
3407.96
3373.8
3339.67
3305.93
3273.02
3241.03
3210.29
3180.99
3153.26
3127.23
3102.95
3080.46
3059.79
3040.91
3023.78
3008.37
2994.63
2982.48
2971.87
2962.74
2955.03
2948.71
2943.73
2940.07
2937.72
2936.67
2936.9
2938.44
2941.3
2945.51
2951.11
2958.15
2966.66
2976.69
2988.3
3001.5
3016.35
3032.86
3051.05
3070.91
3092.42
3115.55
3140.23
3166.38
3193.88
3222.61
3252.39
3283.01
3314.25
3345.83
3377.48
3408.87
3439.66
3469.49
3497.98
3524.76
3549.45
3571.68
3591.1
3607.39
3620.28
3629.53
3634.97
3636.48
3633.98
3627.54
3617.22
3603.13
3585.49
3564.54
3540.58
3513.97
3485.06
3454.27
3422.02
3388.73
3354.81
3320.68
3286.71
3253.27
3220.66
3189.16
3158.99
3130.34
3103.36
3078.15
3054.79
3033.31
3013.71
2996
2980.12
2966.03
2953.67
2942.98
2933.9
2926.35
2920.28
2915.62
2912.33
2910.37
2909.69
2910.26
2912.08
2915.13
2919.42
2924.98
2931.82
2939.98
2949.5
2960.42
2972.78
2986.64
3002.03
3018.98
3037.49
3057.55
3079.13
3102.1
3126.29
3151.6
3187.48
3217.97
3249.56
3282.03
3315.04
3348.33
3381.53
3414.22
3446.06
3476.56
3505.32
3531.9
3555.88
3576.89
3594.61
3608.7
3618.96
3625.21
3627.39
3626.28
3621.37
3612.63
3600.19
3584.2
3564.91
3542.54
3517.37
3489.79
3460.1
3428.69
3395.91
3362.15
3327.85
3293.34
3258.97
3225.09
3192.38
3164.23
3134.72
3106.54
3080.11
3055.65
3033.29
3013.1
2995.09
2979.25
2965.53
2953.85
2944.15
2936.32
2930.28
2925.91
2923.13
2921.88
2922.13
2923.75
2926.66
2930.81
2936.17
2942.72
2950.46
2959.38
2969.47
2980.78
2993.3
3007.08
3022.16
3038.56
3056.34
3075.52
3096.12
3118.12
3141.42
3165.64
3188.07
3209.13
3234.11
3260.82
3586.6
3573.01
3555.84
3535.3
3511.63
3485.16
3456.27
3425.34
3392.77
3359.02
3324.5
3289.63
3254.85
3220.77
3188.74
3156.33
3125
3095.05
3066.65
3039.97
3015.08
2992.04
2970.88
2951.61
2934.19
2918.61
2904.82
2892.76
2882.38
2873.63
2866.46
2860.81
2856.66
2853.96
2852.72
2852.89
2854.49
2857.52
2862
2867.93
2875.36
2884.31
2894.85
2907.02
2920.85
2936.41
2953.75
2972.86
2993.78
3016.51
3041.01
3067.22
3095.05
3124.37
3155.01
3186.69
3216.82
3249.57
3282.85
3316.14
3349.07
3381.26
3412.33
3441.93
3469.71
3495.31
3518.42
3538.71
3555.89
3569.72
3579.96
3586.39
3588.89
3587.57
3582.28
3573
3559.79
3542.79
3522.23
3498.39
3471.62
3442.28
3410.78
3377.55
3343.05
3307.69
3271.91
3236.01
3198.93
3163.77
3130.06
3097.85
3067.3
3038.56
3011.76
2987
2964.35
2943.85
2925.51
2909.29
2895.13
2882.95
2872.67
2864.19
2857.4
2852.23
2848.57
2846.36
2845.56
2846.1
2847.95
2851.08
2855.5
2861.19
2868.17
2876.46
2886.08
2897.05
2909.42
2923.21
2938.46
2955.2
2973.46
2993.25
3014.59
3037.48
3061.91
3087.83
3115.18
3143.88
3173.79
3204.75
3236.53
3268.87
3301.47
3333.98
3366.02
3397.17
3426.99
3455.05
3480.93
3504.19
3524.45
3541.37
3554.65
3564.05
3569.38
3570.52
3567.43
3560.17
3548.81
3533.52
3514.55
3492.19
3466.82
3438.84
3408.69
3376.82
3343.7
3309.78
3275.51
3241.28
3207.46
3174.5
3142.45
3111.67
3082.34
3054.6
3028.56
3004.28
2981.8
2961.14
2942.28
2925.17
2909.79
2896.06
2883.94
2873.34
2864.23
2856.54
2850.23
2845.27
2841.61
2839.26
2838.21
2838.44
2839.97
2842.82
2847.02
2852.61
2859.63
2868.13
2878.14
2889.73
2902.92
2917.75
2934.25
2952.43
2972.29
2993.8
3016.93
3041.62
3067.79
3095.32
3124.08
3153.91
3184.59
3215.89
3247.55
3279.28
3310.76
3341.66
3371.6
3400.21
3427.11
3451.91
3474.26
3493.78
3510.17
3523.14
3532.45
3537.93
3539.46
3536.96
3530.49
3520.11
3505.96
3488.23
3467.17
3443.1
3416.36
3387.33
3356.41
3324.03
3290.62
3256.59
3222.36
3188.3
3154.78
3122.11
3090.56
3060.35
3031.67
3004.68
2979.46
2956.1
2934.63
2915.06
2897.35
2881.5
2867.43
2855.09
2844.43
2835.37
2827.84
2821.78
2817.15
2813.87
2811.92
2811.24
2811.82
2813.63
2816.68
2820.97
2826.52
2833.34
2841.49
2850.99
2861.89
2874.24
2888.08
2903.45
2920.39
2938.9
2958.96
2980.54
3003.53
3027.73
3052.98
3088.99
3119.43
3151.08
3183.62
3216.72
3250.1
3283.41
3316.22
3348.18
3378.82
3407.71
3434.42
3458.52
3479.64
3497.44
3511.62
3521.94
3528.23
3530.41
3529.28
3524.33
3515.55
3503.05
3486.98
3467.6
3445.12
3419.84
3392.14
3362.32
3330.79
3297.89
3264.02
3229.62
3195
3160.55
3126.61
3093.87
3065.52
3035.98
3007.78
2981.34
2956.88
2934.52
2914.34
2896.35
2880.53
2866.84
2855.2
2845.52
2837.73
2831.71
2827.37
2824.62
2823.37
2823.65
2825.29
2828.21
2832.37
2837.74
2844.29
2852.03
2860.94
2871.03
2882.32
2894.83
2908.6
2923.66
2940.05
2957.81
2976.98
2997.57
3019.57
3042.89
3067.12
3089.71
3110.59
3135.61
3162.38
3489.68
3476.01
3458.74
3438.07
3414.27
3387.67
3358.63
3327.55
3294.84
3260.95
3226.3
3191.32
3156.45
3122.28
3090.12
3057.66
3026.29
2996.3
2967.89
2941.19
2916.3
2893.26
2872.12
2852.86
2835.47
2819.91
2806.14
2794.1
2783.75
2775.02
2767.86
2762.24
2758.09
2755.41
2754.17
2754.34
2755.94
2758.96
2763.43
2769.35
2776.76
2785.7
2796.22
2808.37
2822.18
2837.72
2855.03
2874.13
2895.04
2917.76
2942.27
2968.49
2996.35
3025.71
3056.41
3088.2
3118.26
3151.15
3184.55
3217.95
3251
3283.32
3314.51
3344.25
3372.15
3397.88
3421.11
3441.51
3458.79
3472.71
3483.02
3489.5
3492.03
3490.73
3485.42
3476.1
3462.83
3445.73
3425.05
3401.09
3374.17
3344.68
3313.03
3279.65
3245
3209.52
3173.64
3137.66
3100.31
3065.11
3031.35
2999.1
2968.5
2939.73
2912.91
2888.15
2865.5
2845.02
2826.7
2810.51
2796.38
2784.24
2773.99
2765.54
2758.79
2753.64
2750.01
2747.82
2747.03
2747.58
2749.44
2752.58
2756.99
2762.68
2769.65
2777.93
2787.53
2798.49
2810.84
2824.62
2839.85
2856.57
2874.82
2894.6
2915.93
2938.81
2963.23
2989.16
3016.53
3045.25
3075.2
3106.22
3138.06
3170.49
3203.2
3235.83
3268
3299.29
3329.26
3357.48
3383.5
3406.91
3427.31
3444.34
3457.72
3467.19
3472.56
3473.72
3470.62
3463.32
3451.88
3436.5
3417.41
3394.91
3369.39
3341.25
3310.94
3278.92
3245.65
3211.59
3177.2
3142.86
3108.95
3075.91
3043.8
3012.98
2983.61
2955.86
2929.81
2905.53
2883.06
2862.42
2843.57
2826.49
2811.13
2797.43
2785.33
2774.76
2765.67
2758
2751.7
2746.75
2743.1
2740.75
2739.7
2739.93
2741.45
2744.29
2748.48
2754.05
2761.05
2769.53
2779.53
2791.09
2804.26
2819.08
2835.57
2853.74
2873.59
2895.1
2918.24
2942.95
2969.13
2996.7
3025.5
3055.38
3086.12
3117.49
3149.23
3181.06
3212.66
3243.67
3273.74
3302.48
3329.52
3354.46
3376.93
3396.58
3413.08
3426.14
3435.52
3441.04
3442.59
3440.09
3433.59
3423.15
3408.91
3391.08
3369.91
3345.7
3318.82
3289.65
3258.58
3226.06
3192.51
3158.35
3124
3089.84
3056.23
3023.5
2991.88
2961.63
2932.93
2905.91
2880.69
2857.33
2835.88
2816.32
2798.64
2782.8
2768.76
2756.45
2745.81
2736.77
2729.27
2723.23
2718.61
2715.35
2713.41
2712.74
2713.32
2715.14
2718.18
2722.46
2728
2734.81
2742.94
2752.42
2763.31
2775.63
2789.45
2804.81
2821.73
2840.23
2860.29
2881.89
2904.89
2929.11
2954.34
2990.38
3020.82
3052.54
3085.17
3118.37
3151.86
3185.3
3218.24
3250.34
3281.12
3310.16
3337.02
3361.26
3382.5
3400.42
3414.68
3425.06
3431.4
3433.6
3432.44
3427.45
3418.62
3406.04
3389.89
3370.39
3347.79
3322.38
3294.55
3264.59
3232.92
3199.89
3165.89
3131.36
3096.63
3062.08
3028.07
2995.28
2966.72
2937.16
2908.93
2882.48
2858
2835.65
2815.48
2797.52
2781.73
2768.06
2756.46
2746.82
2739.06
2733.07
2728.77
2726.04
2724.81
2725.13
2726.78
2729.72
2733.89
2739.27
2745.82
2753.55
2762.45
2772.54
2783.82
2796.31
2810.07
2825.11
2841.48
2859.23
2878.38
2898.96
2920.96
2944.29
2968.57
2991.29
3011.98
3037.05
3063.89
3392.92
3379.15
3361.76
3340.96
3317.01
3290.25
3261.05
3229.81
3196.93
3162.88
3128.09
3092.98
3058
3023.73
2991.44
2958.92
2927.5
2897.47
2869.03
2842.32
2817.43
2794.4
2773.27
2754.03
2736.67
2721.13
2707.39
2695.38
2685.05
2676.34
2669.21
2663.6
2659.47
2656.8
2655.56
2655.73
2657.33
2660.35
2664.81
2670.72
2678.11
2687.03
2697.53
2709.65
2723.44
2738.95
2756.24
2775.32
2796.22
2818.93
2843.44
2869.68
2897.57
2926.98
2957.76
2989.67
3019.64
3052.69
3086.23
3119.76
3152.94
3185.39
3216.73
3246.61
3274.66
3300.53
3323.89
3344.42
3361.82
3375.84
3386.23
3392.77
3395.33
3394.05
3388.73
3379.35
3366
3348.8
3327.99
3303.88
3276.81
3247.15
3215.32
3181.77
3146.97
3111.33
3075.34
3039.27
3001.61
2966.37
2932.56
2900.25
2869.62
2840.81
2813.97
2789.2
2766.56
2746.09
2727.8
2711.64
2697.55
2685.44
2675.24
2666.83
2660.11
2654.99
2651.39
2649.23
2648.45
2649.02
2650.88
2654.02
2658.43
2664.11
2671.08
2679.34
2688.93
2699.87
2712.2
2725.96
2741.18
2757.88
2776.1
2795.87
2817.19
2840.06
2864.48
2890.42
2917.8
2946.55
2976.55
3007.63
3039.55
3072.08
3104.9
3137.67
3169.99
3201.44
3231.59
3259.98
3286.17
3309.74
3330.28
3347.45
3360.94
3370.49
3375.91
3377.09
3373.98
3366.62
3355.11
3339.61
3320.38
3297.74
3272.05
3243.73
3213.24
3181.04
3147.6
3113.39
3078.85
3044.39
3010.38
2977.25
2945.08
2914.21
2884.81
2857.03
2830.97
2806.69
2784.24
2763.61
2744.79
2727.74
2712.41
2698.74
2686.66
2676.12
2667.05
2659.4
2653.12
2648.17
2644.54
2642.2
2641.14
2641.36
2642.88
2645.7
2649.88
2655.43
2662.42
2670.87
2680.84
2692.39
2705.54
2720.34
2736.81
2754.97
2774.82
2796.33
2819.47
2844.19
2870.41
2898
2926.85
2956.78
2987.6
3019.05
3050.89
3082.83
3114.55
3145.69
3175.91
3204.8
3231.99
3257.09
3279.71
3299.5
3316.11
3329.28
3338.74
3344.31
3345.88
3343.38
3336.84
3326.33
3312
3294.06
3272.75
3248.4
3221.36
3192.02
3160.79
3128.11
3094.4
3060.09
3025.61
2991.34
2957.62
2924.81
2893.13
2862.83
2834.09
2807.06
2781.84
2758.48
2737.04
2717.5
2699.84
2684.03
2670.02
2657.74
2647.13
2638.12
2630.64
2624.63
2620.03
2616.78
2614.86
2614.2
2614.78
2616.59
2619.63
2623.9
2629.43
2636.23
2644.34
2653.8
2664.66
2676.96
2690.75
2706.09
2723
2741.49
2761.55
2783.16
2806.19
2830.45
2855.69
2891.66
2922.13
2953.94
2986.67
3019.99
3053.6
3087.17
3120.27
3152.53
3183.48
3212.69
3239.72
3264.1
3285.49
3303.53
3317.88
3328.35
3334.73
3336.94
3335.76
3330.73
3321.84
3309.18
3292.92
3273.3
3250.56
3225.01
3197.02
3166.9
3135.08
3101.9
3067.75
3033.08
2998.22
2963.56
2929.47
2896.63
2867.84
2838.25
2809.99
2783.51
2759.03
2736.68
2716.53
2698.59
2682.84
2669.21
2657.64
2648.04
2640.32
2634.37
2630.1
2627.41
2626.2
2626.55
2628.23
2631.18
2635.36
2640.74
2647.29
2655.02
2663.92
2673.99
2685.27
2697.75
2711.48
2726.5
2742.85
2760.58
2779.72
2800.29
2822.28
2845.63
2869.96
2892.81
2913.3
2938.43
2965.35
3296.3
3282.42
3264.91
3243.95
3219.84
3192.9
3163.52
3132.09
3099.04
3064.81
3029.86
2994.61
2959.51
2925.13
2892.69
2860.11
2828.62
2798.56
2770.1
2743.37
2718.48
2695.46
2674.34
2655.13
2637.79
2622.28
2608.57
2596.59
2586.29
2577.61
2570.49
2564.9
2560.79
2558.13
2556.9
2557.07
2558.67
2561.68
2566.13
2572.02
2579.39
2588.29
2598.76
2610.86
2624.62
2640.11
2657.37
2676.44
2697.31
2720.02
2744.54
2770.79
2798.71
2828.16
2859.03
2891.09
2920.96
2954.19
2987.88
3021.55
3054.88
3087.49
3118.98
3149.02
3177.23
3203.26
3226.77
3247.44
3264.97
3279.11
3289.58
3296.19
3298.8
3297.53
3292.19
3282.76
3269.32
3252
3231.05
3206.78
3179.52
3149.68
3117.66
3083.92
3048.93
3013.14
2977.01
2940.86
2902.84
2867.57
2833.69
2801.33
2770.64
2741.8
2714.94
2690.16
2667.53
2647.08
2628.81
2612.68
2598.63
2586.57
2576.41
2568.05
2561.37
2556.29
2552.71
2550.58
2549.82
2550.4
2552.27
2555.41
2559.82
2565.5
2572.45
2580.7
2590.27
2601.2
2613.51
2627.24
2642.44
2659.12
2677.33
2697.07
2718.38