/*--------------------------------*- C++ -*----------------------------------*\
| =========                 |                                                 |
| \\      /  F ield         | OpenFOAM: The Open Source CFD Toolbox           |
|  \\    /   O peration     | Version:  3.0.1                                 |
|   \\  /    A nd           | Web:      www.OpenFOAM.org                      |
|    \\/     M anipulation  |                                                 |
\*---------------------------------------------------------------------------*/
FoamFile
{
    version     2.0;
    format      ascii;
    class       surfaceScalarField;
    location    "36.8";
    object      alphaPhi;
}
// * * * * * * * * * * * * * * * * * * * * * * * * * * * * * * * * * * * * * //

dimensions      [0 3 -1 0 0 0 0];

internalField   nonuniform List<scalar> 
42423
(
0.000215485
-1.31299e-05
0.000227197
-1.17123e-05
0.00023711
-9.91323e-06
0.000245
-7.88969e-06
0.000250816
-5.81614e-06
0.000254388
-3.57213e-06
0.000255768
-1.38011e-06
0.000254818
9.49875e-07
0.000251367
3.4517e-06
0.000245591
5.77514e-06
0.000237629
7.96186e-06
0.000227511
1.01187e-05
0.000215661
1.185e-05
0.000202074
1.35865e-05
0.000187239
1.4835e-05
0.000171204
1.60352e-05
0.00015414
1.70637e-05
0.000136565
1.75752e-05
0.000118536
1.80294e-05
0.000100242
1.82936e-05
8.20724e-05
1.81695e-05
6.40138e-05
1.80586e-05
4.6432e-05
1.75819e-05
2.9243e-05
1.7189e-05
1.28492e-05
1.63938e-05
-2.9524e-06
1.58016e-05
-1.79631e-05
1.50107e-05
-3.21248e-05
1.41617e-05
-4.542e-05
1.32952e-05
-5.78266e-05
1.24067e-05
-6.93323e-05
1.15057e-05
-7.99556e-05
1.06233e-05
-8.97264e-05
9.77081e-06
-9.86449e-05
8.91854e-06
-0.000106766
8.12061e-06
-0.000114089
7.32394e-06
-0.000120652
6.56228e-06
-0.000126495
5.8428e-06
-0.000131595
5.10055e-06
-0.000136009
4.41423e-06
-0.000139779
3.76938e-06
-0.000142885
3.10592e-06
-0.000145354
2.46917e-06
-0.000147171
1.81682e-06
-0.000148358
1.18687e-06
-0.000148941
5.83818e-07
-0.000148819
-1.2195e-07
-0.000147981
-8.38871e-07
-0.000146431
-1.54965e-06
-0.000144199
-2.23215e-06
-0.000141147
-3.05179e-06
-0.000137331
-3.81579e-06
-0.000132658
-4.67344e-06
-0.000127046
-5.61157e-06
-0.000120688
-6.35825e-06
-0.000113296
-7.39224e-06
-0.000104881
-8.41477e-06
-9.56806e-05
-9.20063e-06
-8.523e-05
-1.04506e-05
-7.39037e-05
-1.13264e-05
-6.13732e-05
-1.25305e-05
-4.78053e-05
-1.3568e-05
-3.33727e-05
-1.44327e-05
-1.80027e-05
-1.53701e-05
-1.6292e-06
-1.63736e-05
1.5319e-05
-1.69483e-05
3.29605e-05
-1.76416e-05
5.10144e-05
-1.8054e-05
6.93788e-05
-1.83645e-05
8.79465e-05
-1.85678e-05
0.00010633
-1.83841e-05
0.000124391
-1.80607e-05
0.000141941
-1.75497e-05
0.00015872
-1.67793e-05
0.000174467
-1.57475e-05
0.000188905
-1.44382e-05
0.000202004
-1.30983e-05
0.000213475
-1.14714e-05
0.000223063
-9.58837e-06
0.000230637
-7.57338e-06
0.00023613
-5.49314e-06
0.000239376
-3.2465e-06
0.000240257
-8.80536e-07
0.00023889
1.36708e-06
0.000235144
3.74599e-06
0.000229147
5.99698e-06
0.000220991
8.15672e-06
0.000210789
1.02017e-05
0.000198726
1.20635e-05
0.000184964
1.37619e-05
0.000169744
1.52201e-05
0.000153283
1.64613e-05
0.000135723
1.756e-05
0.000117394
1.83291e-05
9.84901e-05
1.89037e-05
7.92646e-05
1.92255e-05
5.9879e-05
1.93856e-05
4.05732e-05
1.93058e-05
2.15303e-05
1.90429e-05
2.9123e-06
1.8618e-05
-1.50677e-05
1.798e-05
-3.23072e-05
1.72395e-05
-4.86613e-05
1.63541e-05
-6.4046e-05
1.53847e-05
-7.8411e-05
1.4365e-05
-9.16662e-05
1.32552e-05
-0.000103944
1.22778e-05
-0.000115088
1.11436e-05
-0.000125179
1.00919e-05
-0.000134253
9.07377e-06
-0.000142314
8.06044e-06
-0.000149384
7.07087e-06
-0.000155521
6.13673e-06
-0.00016081
5.28885e-06
-0.00016517
4.35966e-06
-0.000168693
3.52286e-06
-0.000171373
2.68034e-06
-0.000173228
1.85545e-06
-0.000174301
1.07272e-06
-0.000174585
2.84143e-07
-0.000174081
-5.04755e-07
-0.000172756
-1.32481e-06
-0.00017067
-2.0857e-06
-0.000167754
-2.91639e-06
-0.000164117
-3.6365e-06
-0.000159663
-4.45391e-06
-0.000154437
-5.22657e-06
-0.000148466
-5.97109e-06
-0.000141743
-6.72316e-06
-0.000134245
-7.49802e-06
-0.000125988
-8.25659e-06
-0.000116985
-9.00313e-06
-0.000107204
-9.78161e-06
-9.66488e-05
-1.05549e-05
-8.53435e-05
-1.13054e-05
-7.32539e-05
-1.20897e-05
-6.04164e-05
-1.28376e-05
-4.68361e-05
-1.35804e-05
-3.24793e-05
-1.43569e-05
-1.75077e-05
-1.49717e-05
-1.87616e-06
-1.56317e-05
1.42701e-05
-1.61463e-05
3.08404e-05
-1.65705e-05
4.77188e-05
-1.68785e-05
6.4773e-05
-1.70543e-05
8.1777e-05
-1.70042e-05
9.86234e-05
-1.68465e-05
0.000114979
-1.63556e-05
0.00013068
-1.57018e-05
0.000145426
-1.47459e-05
0.000159011
-1.35848e-05
0.000171158
-1.21469e-05
0.000181665
-1.05075e-05
0.000190296
-8.63058e-06
0.000196895
-6.59899e-06
0.000201278
-4.38316e-06
0.000203285
-2.00701e-06
0.000202929
3.55166e-07
0.000200078
2.85122e-06
0.000194722
5.35597e-06
0.000187007
7.71508e-06
0.000177057
9.94963e-06
0.000165055
1.20018e-05
0.000151164
1.38915e-05
0.000135653
1.55105e-05
0.000118841
1.68125e-05
0.00010101
1.78307e-05
8.2457e-05
1.85528e-05
6.34426e-05
1.90144e-05
4.42686e-05
1.91739e-05
2.52087e-05
1.90599e-05
6.53603e-06
1.86726e-05
-1.16086e-05
1.81446e-05
-2.89943e-05
1.73857e-05
-4.55707e-05
1.65765e-05
-6.12247e-05
1.56539e-05
-7.58578e-05
1.46331e-05
-8.95271e-05
1.36693e-05
-0.000102078
1.25508e-05
-0.000113607
1.1529e-05
-0.000124014
1.04075e-05
-0.000133325
9.31063e-06
-0.000141603
8.27813e-06
-0.000148902
7.29864e-06
-0.000155271
6.36874e-06
-0.00016079
5.51923e-06
-0.000165558
4.76868e-06
-0.000169601
4.04293e-06
-0.000172856
3.25412e-06
-0.000175386
2.53075e-06
-0.000177253
1.86682e-06
-0.000178576
1.32253e-06
-0.000179259
6.83284e-07
-0.000179416
1.57229e-07
-0.000179096
-3.20559e-07
-0.000178266
-8.29262e-07
-0.000176874
-1.39209e-06
-0.000174874
-1.99999e-06
-0.000172367
-2.50784e-06
-0.000169194
-3.17275e-06
-0.000165361
-3.83264e-06
-0.000160844
-4.51688e-06
-0.000155746
-5.09876e-06
-0.00014984
-5.90591e-06
-0.000143171
-6.66913e-06
-0.000135532
-7.63879e-06
-0.00012715
-8.38178e-06
-0.000117755
-9.39556e-06
-0.000107403
-1.03514e-05
-9.61571e-05
-1.12462e-05
-8.39579e-05
-1.21993e-05
-7.09447e-05
-1.30132e-05
-5.70368e-05
-1.3908e-05
-4.23113e-05
-1.47256e-05
-2.68305e-05
-1.54809e-05
-1.06641e-05
-1.61664e-05
6.0507e-06
-1.67149e-05
2.31919e-05
-1.71413e-05
4.05837e-05
-1.73919e-05
5.8035e-05
-1.74514e-05
7.53158e-05
-1.72808e-05
9.22703e-05
-1.69547e-05
0.000108569
-1.62983e-05
0.000124056
-1.54872e-05
0.000138385
-1.4329e-05
0.00015133
-1.29454e-05
0.000162633
-1.13029e-05
0.000172078
-9.44555e-06
0.000179472
-7.39406e-06
0.000184687
-5.21439e-06
0.000187568
-2.88121e-06
0.000188143
-5.75501e-07
0.000186373
1.76985e-06
0.000182174
4.199e-06
0.000175786
6.38802e-06
0.000167277
8.50867e-06
0.000156834
1.04436e-05
0.000144646
1.21876e-05
0.0001309
1.37461e-05
0.000115907
1.49933e-05
9.99123e-05
1.59942e-05
8.31936e-05
1.67187e-05
6.59684e-05
1.72252e-05
4.84596e-05
1.75088e-05
3.09257e-05
1.75339e-05
1.35551e-05
1.73706e-05
-3.49374e-06
1.70488e-05
-2.00824e-05
1.65887e-05
-3.60699e-05
1.59875e-05
-5.13551e-05
1.52852e-05
-6.58411e-05
1.44859e-05
-7.94551e-05
1.3614e-05
-9.21947e-05
1.27396e-05
-0.000104034
1.18398e-05
-0.000114966
1.09313e-05
-0.000125028
1.00624e-05
-0.0001343
9.27185e-06
-0.000142665
8.36478e-06
-0.000150205
7.54005e-06
-0.000156985
6.78027e-06
-0.000163005
6.01976e-06
-0.000168251
5.2461e-06
-0.000172744
4.4932e-06
-0.000176543
3.79936e-06
-0.00017969
3.14712e-06
-0.000182062
2.37203e-06
-0.000183738
1.6761e-06
-0.000184823
1.08447e-06
-0.000185233
4.10916e-07
-0.000184894
-3.3979e-07
-0.000183907
-9.86843e-07
-0.000182136
-1.77074e-06
-0.000179643
-2.49242e-06
-0.000176475
-3.16787e-06
-0.000172428
-4.04758e-06
-0.000167599
-4.82841e-06
-0.000161892
-5.70691e-06
-0.000155317
-6.5756e-06
-0.000147874
-7.44254e-06
-0.000139346
-8.52802e-06
-0.000129823
-9.52294e-06
-0.00011909
-1.07338e-05
-0.000107197
-1.1892e-05
-9.42487e-05
-1.29488e-05
-8.01652e-05
-1.40836e-05
-6.50993e-05
-1.5066e-05
-4.93383e-05
-1.5761e-05
-3.27652e-05
-1.65731e-05
-1.56486e-05
-1.71167e-05
2.06667e-06
-1.77153e-05
2.03858e-05
-1.83192e-05
3.89219e-05
-1.85361e-05
5.76702e-05
-1.87484e-05
7.64681e-05
-1.87979e-05
9.49292e-05
-1.84612e-05
0.00011297
-1.80409e-05
0.000130317
-1.73471e-05
0.000146589
-1.62718e-05
0.00016165
-1.50611e-05
0.000175082
-1.34321e-05
0.000186745
-1.16633e-05
0.000196399
-9.65396e-06
0.000203708
-7.30907e-06
0.000208598
-4.88975e-06
0.000210874
-2.27631e-06
0.000210586
2.87927e-07
0.000208019
2.56736e-06
0.00020303
4.98895e-06
0.000195864
7.16606e-06
0.000186427
9.43675e-06
0.000174865
1.15622e-05
0.000161555
1.33093e-05
0.000146584
1.49715e-05
0.000130192
1.63913e-05
0.000112808
1.7384e-05
9.46423e-05
1.81661e-05
7.60187e-05
1.86235e-05
5.71309e-05
1.88878e-05
3.82501e-05
1.88808e-05
1.9671e-05
1.85791e-05
1.37648e-06
1.82945e-05
-1.62946e-05
1.7671e-05
-3.31824e-05
1.68879e-05
-4.92089e-05
1.60265e-05
-6.42736e-05
1.50646e-05
-7.8359e-05
1.40854e-05
-9.13906e-05
1.30316e-05
-0.000103368
1.19776e-05
-0.000114332
1.09642e-05
-0.000124298
9.96601e-06
-0.00013328
8.98145e-06
-0.000141337
8.05672e-06
-0.000148513
7.17689e-06
-0.000154843
6.33002e-06
-0.000160362
5.51877e-06
-0.000165103
4.74059e-06
-0.000169103
3.9998e-06
-0.000172362
3.25914e-06
-0.000174901
2.53898e-06
-0.00017673
1.8294e-06
-0.000177866
1.1363e-06
-0.000178334
4.67674e-07
-0.000178058
-2.76444e-07
-0.00017705
-1.00775e-06
-0.000175383
-1.66686e-06
-0.000173038
-2.34463e-06
-0.000169954
-3.08471e-06
-0.000166183
-3.77044e-06
-0.00016172
-4.46357e-06
-0.000156431
-5.28873e-06
-0.000150387
-6.04367e-06
-0.000143454
-6.93327e-06
-0.000135702
-7.75157e-06
-0.000127075
-8.62764e-06
-0.000117362
-9.71323e-06
-0.000106655
-1.07061e-05
-1.17568e-05
0.000215559
-2.62768e-05
0.000227298
-2.34516e-05
0.00023723
-1.98456e-05
0.000245137
-1.57962e-05
0.000250969
-1.16482e-05
0.000254554
-7.15766e-06
0.000255932
-2.75744e-06
0.000254944
1.93739e-06
0.000251482
6.91371e-06
0.000245701
1.15562e-05
0.000237736
1.59262e-05
0.000227612
2.02432e-05
0.000215752
2.371e-05
0.000202153
2.71848e-05
0.000187305
2.96831e-05
0.000171262
3.20786e-05
0.000154185
3.41405e-05
0.000136595
3.5165e-05
0.000118558
3.6067e-05
0.000100252
3.65993e-05
8.20755e-05
3.6346e-05
6.40074e-05
3.61267e-05
4.642e-05
3.51692e-05
2.92233e-05
3.43857e-05
1.28262e-05
3.27908e-05
-2.98039e-06
3.16082e-05
-1.7994e-05
3.00243e-05
-3.2159e-05
2.83266e-05
-4.54564e-05
2.65926e-05
-5.78635e-05
2.48138e-05
-6.93716e-05
2.30137e-05
-7.9997e-05
2.12488e-05
-8.97692e-05
1.9543e-05
-9.86898e-05
1.78391e-05
-0.000106809
1.62395e-05
-0.000114133
1.46478e-05
-0.000120697
1.3127e-05
-0.000126536
1.16816e-05
-0.00013164
1.02043e-05
-0.000136056
8.83018e-06
-0.000139823
7.53684e-06
-0.000142929
6.212e-06
-0.000145399
4.93862e-06
-0.000147221
3.63925e-06
-0.000148415
2.38044e-06
-0.000148993
1.16231e-06
-0.00014887
-2.45237e-07
-0.000148027
-1.68147e-06
-0.000146482
-3.09508e-06
-0.000144254
-4.45989e-06
-0.000141207
-6.0988e-06
-0.000137391
-7.63207e-06
-0.000132726
-9.33882e-06
-0.000127109
-1.12282e-05
-0.000120774
-1.26934e-05
-0.000113358
-1.48082e-05
-0.000104949
-1.68242e-05
-9.57547e-05
-1.8395e-05
-8.52959e-05
-2.09095e-05
-7.39769e-05
-2.26455e-05
-6.14394e-05
-2.50682e-05
-4.7874e-05
-2.71335e-05
-3.34374e-05
-2.88694e-05
-1.80571e-05
-3.07507e-05
-1.68512e-06
-3.27457e-05
1.52747e-05
-3.39084e-05
3.2928e-05
-3.5295e-05
5.09803e-05
-3.61065e-05
6.936e-05
-3.67443e-05
8.79464e-05
-3.71545e-05
0.000106341
-3.67784e-05
0.000124409
-3.61296e-05
0.000141973
-3.51131e-05
0.000158762
-3.35686e-05
0.000174517
-3.15027e-05
0.000188968
-2.88899e-05
0.000202096
-2.62265e-05
0.00021357
-2.2945e-05
0.000223164
-1.91824e-05
0.000230751
-1.51609e-05
0.000236252
-1.0994e-05
0.000239498
-6.49249e-06
0.000240383
-1.76592e-06
0.000239008
2.74227e-06
0.000235256
7.49846e-06
0.000229252
1.20006e-05
0.000221094
1.63151e-05
0.0002109
2.03963e-05
0.000198807
2.41557e-05
0.000185032
2.75376e-05
0.000169794
3.04578e-05
0.000153319
3.29363e-05
0.000135742
3.51371e-05
0.000117406
3.66652e-05
9.84954e-05
3.78147e-05
7.92787e-05
3.84423e-05
5.98547e-05
3.88097e-05
4.05362e-05
3.86244e-05
2.14856e-05
3.80936e-05
2.86567e-06
3.7238e-05
-1.51253e-05
3.59711e-05
-3.23735e-05
3.44877e-05
-4.87227e-05
3.27034e-05
-6.4105e-05
3.0767e-05
-7.84743e-05
2.87343e-05
-9.17402e-05
2.65211e-05
-0.000104014
2.45516e-05
-0.000115166
2.22953e-05
-0.000125251
2.01771e-05
-0.000134318
1.8141e-05
-0.000142377
1.61196e-05
-0.000149447
1.4141e-05
-0.000155584
1.22732e-05
-0.000160883
1.05882e-05
-0.000165246
8.72213e-06
-0.000168762
7.03885e-06
-0.00017144
5.35887e-06
-0.000173291
3.70587e-06
-0.000174376
2.15843e-06
-0.000174658
5.66034e-07
-0.00017416
-1.00326e-06
-0.000172837
-2.64761e-06
-0.000170752
-4.17119e-06
-0.000167837
-5.83073e-06
-0.000164201
-7.27287e-06
-0.000159751
-8.90448e-06
-0.000154529
-1.04485e-05
-0.000148556
-1.19435e-05
-0.000141834
-1.34456e-05
-0.000134334
-1.49983e-05
-0.000126088
-1.65025e-05
-0.000117084
-1.80073e-05
-0.000107303
-1.9562e-05
-9.675e-05
-2.11085e-05
-8.54464e-05
-2.26091e-05
-7.33524e-05
-2.41838e-05
-6.05187e-05
-2.56714e-05
-4.69351e-05
-2.71641e-05
-3.25776e-05
-2.87145e-05
-1.76016e-05
-2.99479e-05
-1.96844e-06
-3.1265e-05
1.41868e-05
-3.23018e-05
3.0781e-05
-3.31648e-05
4.76592e-05
-3.37569e-05
6.47073e-05
-3.41025e-05
8.1732e-05
-3.40291e-05
9.85904e-05
-3.3705e-05
0.000114953
-3.27187e-05
0.000130664
-3.14126e-05
0.000145425
-2.95071e-05
0.000159024
-2.71842e-05
0.000171189
-2.43123e-05
0.000181711
-2.10297e-05
0.00019035
-1.72696e-05
0.000196953
-1.32017e-05
0.000201343
-8.77372e-06
0.000203356
-4.01946e-06
0.000202994
7.17019e-07
0.000200138
5.70708e-06
0.000194789
1.0705e-05
0.000187075
1.54288e-05
0.000177117
1.99077e-05
0.000165093
2.40253e-05
0.000151199
2.77855e-05
0.000135683
3.1026e-05
0.00011886
3.36357e-05
0.00010102
3.56706e-05
8.24464e-05
3.71267e-05
6.3417e-05
3.80438e-05
4.42343e-05
3.83566e-05
2.51728e-05
3.81215e-05
6.48052e-06
3.7365e-05
-1.16661e-05
3.62912e-05
-2.90658e-05
3.47854e-05
-4.56321e-05
3.31428e-05
-6.12949e-05
3.13168e-05
-7.59273e-05
2.92656e-05
-8.96015e-05
2.73436e-05
-0.000102155
2.51044e-05
-0.000113679
2.30532e-05
-0.000124084
2.08127e-05
-0.000133398
1.86239e-05
-0.000141672
1.65526e-05
-0.000148971
1.45973e-05
-0.000155334
1.27317e-05
-0.000160851
1.10365e-05
-0.00016562
9.53821e-06
-0.000169671
8.09361e-06
-0.000172923
6.50612e-06
-0.000175455
5.06271e-06
-0.00017732
3.73211e-06
-0.00017864
2.64262e-06
-0.000179323
1.36538e-06
-0.000179491
3.25361e-07
-0.000179171
-6.40041e-07
-0.000178343
-1.65791e-06
-0.000176952
-2.78269e-06
-0.000174971
-3.98111e-06
-0.000172448
-5.03085e-06
-0.000169279
-6.34145e-06
-0.000165453
-7.65867e-06
-0.000160963
-9.0068e-06
-0.000155848
-1.02146e-05
-0.000149945
-1.18088e-05
-0.000143277
-1.3337e-05
-0.000135675
-1.52406e-05
-0.000127251
-1.68055e-05
-0.00011786
-1.87876e-05
-0.000107518
-2.06931e-05
-9.62694e-05
-2.24949e-05
-8.40448e-05
-2.4424e-05
-7.10498e-05
-2.60083e-05
-5.71448e-05
-2.7813e-05
-4.24196e-05
-2.94509e-05
-2.6928e-05
-3.09726e-05
-1.07535e-05
-3.23411e-05
5.96806e-06
-3.34366e-05
2.31241e-05
-3.42974e-05
4.05292e-05
-3.47972e-05
5.79729e-05
-3.48952e-05
7.52831e-05
-3.45912e-05
9.22359e-05
-3.39076e-05
0.000108556
-3.26181e-05
0.000124046
-3.09782e-05
0.000138394
-2.86768e-05
0.000151358
-2.59097e-05
0.000162669
-2.26143e-05
0.00017212
-1.88961e-05
0.000179543
-1.48173e-05
0.000184741
-1.04121e-05
0.000187626
-5.76708e-06
0.000188199
-1.14802e-06
0.000186415
3.55336e-06
0.000182231
8.38311e-06
0.000175839
1.27797e-05
0.000167325
1.70226e-05
0.000156878
2.08913e-05
0.000144672
2.43931e-05
0.000130921
2.74968e-05
0.000115918
2.9997e-05
9.99144e-05
3.19975e-05
8.31872e-05
3.34459e-05
6.59383e-05
3.4474e-05
4.84346e-05
3.50125e-05
3.08912e-05
3.50773e-05
1.35182e-05
3.47436e-05
-3.53646e-06
3.41034e-05
-2.01331e-05
3.31854e-05
-3.61301e-05
3.19844e-05
-5.14132e-05
3.05684e-05
-6.59015e-05
2.89742e-05
-7.95204e-05
2.72329e-05
-9.22627e-05
2.54819e-05
-0.000104105
2.36826e-05
-0.000115037
2.18632e-05
-0.000125087
2.01127e-05
-0.000134359
1.85433e-05
-0.00014273
1.67361e-05
-0.000150277
1.5087e-05
-0.000157054
1.35566e-05
-0.000163067
1.20332e-05
-0.00016832
1.04996e-05
-0.000172817
8.9903e-06
-0.000176611
7.59298e-06
-0.000179765
6.30102e-06
-0.000182143
4.75028e-06
-0.000183816
3.34934e-06
-0.000184895
2.16309e-06
-0.00018531
8.26586e-07
-0.000184974
-6.76036e-07
-0.000183983
-1.97713e-06
-0.000182217
-3.53697e-06
-0.000179733
-4.97683e-06
-0.000176556
-6.34401e-06
-0.000172508
-8.09573e-06
-0.000167681
-9.65562e-06
-0.000161978
-1.14094e-05
-0.000155401
-1.3153e-05
-0.000147957
-1.48863e-05
-0.000139433
-1.70522e-05
-0.000129911
-1.90455e-05
-0.000119177
-2.14673e-05
-0.000107282
-2.3787e-05
-9.43277e-05
-2.59035e-05
-8.02387e-05
-2.81726e-05
-6.51653e-05
-3.01394e-05
-4.93982e-05
-3.15282e-05
-3.2814e-05
-3.31574e-05
-1.56941e-05
-3.42367e-05
2.02698e-06
-3.54366e-05
2.03544e-05
-3.66468e-05
3.88968e-05
-3.70786e-05
5.76524e-05
-3.75041e-05
7.64602e-05
-3.76058e-05
9.4932e-05
-3.69331e-05
0.000112984
-3.60934e-05
0.000130348
-3.47107e-05
0.00014663
-3.25545e-05
0.000161693
-3.01234e-05
0.000175135
-2.6875e-05
0.000186823
-2.33507e-05
0.00019649
-1.93219e-05
0.000203777
-1.45955e-05
0.000208657
-9.77001e-06
0.000210968
-4.58727e-06
0.000210687
5.68827e-07
0.000208129
5.1247e-06
0.000203153
9.9654e-06
0.000195986
1.43324e-05
0.00018654
1.88831e-05
0.000174966
2.31358e-05
0.000161643
2.66322e-05
0.000146665
2.99499e-05
0.000130259
3.27966e-05
0.000112859
3.47844e-05
9.46912e-05
3.63336e-05
7.60508e-05
3.72638e-05
5.7139e-05
3.77996e-05
3.8251e-05
3.77687e-05
1.96644e-05
3.71657e-05
1.3638e-06
3.65951e-05
-1.63033e-05
3.53381e-05
-3.31971e-05
3.37817e-05
-4.92313e-05
3.20606e-05
-6.42976e-05
3.01309e-05
-7.83875e-05
2.81753e-05
-9.14255e-05
2.60696e-05
-0.000103406
2.39579e-05
-0.000114365
2.19236e-05
-0.000124332
1.99332e-05
-0.000133316
1.79652e-05
-0.000141371
1.6112e-05
-0.000148548
1.43537e-05
-0.000154879
1.2661e-05
-0.000160399
1.10385e-05
-0.000165138
9.48004e-06
-0.000169135
7.99659e-06
-0.000172397
6.52052e-06
-0.000174937
5.07941e-06
-0.000176767
3.65956e-06
-0.000177906
2.27475e-06
-0.000178369
9.31197e-07
-0.000178095
-5.50776e-07
-0.000177086
-2.01647e-06
-0.00017542
-3.33313e-06
-0.000173075
-4.68933e-06
-0.00016999
-6.16969e-06
-0.00016622
-7.54071e-06
-0.000161757
-8.92682e-06
-0.000156468
-1.0577e-05
-0.000150424
-1.20876e-05
-0.000143491
-1.38662e-05
-0.000135741
-1.55021e-05
-0.000127114
-1.72543e-05
-0.000117402
-1.94256e-05
-0.000106696
-2.14117e-05
-2.35138e-05
0.000215705
-3.94554e-05
0.000227475
-3.52222e-05
0.000237433
-2.98038e-05
0.00024536
-2.37228e-05
0.000251216
-1.7504e-05
0.000254815
-1.07567e-05
0.000256208
-4.15027e-06
0.00025517
2.97451e-06
0.000251661
1.04233e-05
0.000245866
1.73513e-05
0.000237895
2.38967e-05
0.000227761
3.03771e-05
0.000215881
3.55901e-05
0.000202263
4.08026e-05
0.000187391
4.4555e-05
0.000171335
4.81346e-05
0.000154239
5.12362e-05
0.000136624
5.27806e-05
0.000118574
5.41164e-05
0.00010025
5.49236e-05
8.20623e-05
5.45334e-05
6.39801e-05
5.42088e-05
4.63838e-05
5.27655e-05
2.9177e-05
5.15925e-05
1.27739e-05
4.9194e-05
-3.04547e-06
4.74275e-05
-1.80629e-05
4.50418e-05
-3.22307e-05
4.24944e-05
-4.55311e-05
3.9893e-05
-5.79432e-05
3.72259e-05
-6.94503e-05
3.45208e-05
-8.00737e-05
3.18722e-05
-8.98451e-05
2.93143e-05
-9.87635e-05
2.67575e-05
-0.000106882
2.43582e-05
-0.000114204
2.19697e-05
-0.000120764
1.96873e-05
-0.000126605
1.75218e-05
-0.000131717
1.53163e-05
-0.000136135
1.32487e-05
-0.000139895
1.12967e-05
-0.000143
9.31684e-06
-0.00014547
7.40913e-06
-0.000147292
5.46106e-06
-0.000148485
3.57304e-06
-0.000149056
1.73388e-06
-0.00014893
-3.71882e-07
-0.000148078
-2.53359e-06
-0.000146537
-4.63599e-06
-0.000144313
-6.6838e-06
-0.000141273
-9.13868e-06
-0.000137454
-1.1451e-05
-0.000132803
-1.39901e-05
-0.00012718
-1.68517e-05
-0.000120855
-1.90177e-05
-0.000113431
-2.22329e-05
-0.000105026
-2.52285e-05
-9.5842e-05
-2.75796e-05
-8.53762e-05
-3.13754e-05
-7.40638e-05
-3.3958e-05
-6.1531e-05
-3.76011e-05
-4.7956e-05
-4.07087e-05
-3.35153e-05
-4.33103e-05
-1.8121e-05
-4.6145e-05
-1.75096e-06
-4.9116e-05
1.52174e-05
-5.08769e-05
3.28805e-05
-5.29583e-05
5.09479e-05
-5.41741e-05
6.93489e-05
-5.51455e-05
8.79405e-05
-5.57462e-05
0.000106354
-5.5192e-05
0.000124436
-5.42114e-05
0.000142021
-5.26985e-05
0.000158816
-5.03635e-05
0.000174597
-4.72845e-05
0.00018907
-4.33629e-05
0.00020222
-3.93765e-05
0.000213706
-3.44308e-05
0.000223314
-2.87911e-05
0.000230929
-2.2776e-05
0.00023643
-1.64945e-05
0.00023968
-9.74233e-06
0.000240564
-2.64993e-06
0.000239167
4.13921e-06
0.00023541
1.12553e-05
0.0002294
1.80107e-05
0.000221235
2.44803e-05
0.000211031
3.06009e-05
0.000198912
3.62748e-05
0.000185113
4.13364e-05
0.000169851
4.57197e-05
0.000153335
4.94532e-05
0.000135759
5.27132e-05
0.000117411
5.50135e-05
9.84663e-05
5.6759e-05
7.92105e-05
5.76982e-05
5.97811e-05
5.82391e-05
4.0439e-05
5.79665e-05
2.13696e-05
5.7163e-05
2.73713e-06
5.58704e-05
-1.52623e-05
5.39705e-05
-3.25212e-05
5.17467e-05
-4.88761e-05
4.90583e-05
-6.4265e-05
4.61559e-05
-7.86411e-05
4.31105e-05
-9.19204e-05
3.98005e-05
-0.000104164
3.6795e-05
-0.000115326
3.34578e-05
-0.000125415
3.0266e-05
-0.000134482
2.72076e-05
-0.000142538
2.41758e-05
-0.000149611
2.12142e-05
-0.000155731
1.83933e-05
-0.000161026
1.5883e-05
-0.000165397
1.30934e-05
-0.000168919
1.05606e-05
-0.000171595
8.03479e-06
-0.000173439
5.54963e-06
-0.000174532
3.2515e-06
-0.000174793
8.27562e-07
-0.000174299
-1.49726e-06
-0.000172979
-3.96761e-06
-0.000170887
-6.26367e-06
-0.000167971
-8.7469e-06
-0.000164327
-1.09167e-05
-0.000159882
-1.33494e-05
-0.000154667
-1.56642e-05
-0.000148692
-1.79182e-05
-0.00014197
-2.01674e-05
-0.000134456
-2.25122e-05
-0.000126212
-2.47469e-05
-0.00011721
-2.70096e-05
-0.000107436
-2.93354e-05
-9.68816e-05
-3.16633e-05
-8.55821e-05
-3.39087e-05
-7.34846e-05
-3.62814e-05
-6.06466e-05
-3.85095e-05
-4.70608e-05
-4.07499e-05
-3.27094e-05
-4.3066e-05
-1.77119e-05
-4.49455e-05
-2.07984e-06
-4.68972e-05
1.40873e-05
-4.8469e-05
3.06769e-05
-4.97546e-05
4.75825e-05
-5.06626e-05
6.4632e-05
-5.11522e-05
8.16765e-05
-5.10737e-05
9.85621e-05
-5.05908e-05
0.000114947
-4.91041e-05
0.000130684
-4.71495e-05
0.000145459
-4.4282e-05
0.000159071
-4.07966e-05
0.000171268
-3.65088e-05
0.000181809
-3.15713e-05
0.00019045
-2.59108e-05
0.000197069
-1.98207e-05
0.000201472
-1.31772e-05
0.000203489
-6.03676e-06
0.000203111
1.09528e-06
0.000200248
8.57046e-06
0.00019491
1.60422e-05
0.000187192
2.31474e-05
0.00017722
2.98796e-05
0.000165166
3.6079e-05
0.000151256
4.16955e-05
0.000135732
4.65499e-05
0.000118875
5.04926e-05
0.000101017
5.35281e-05
8.24132e-05
5.57309e-05
6.33556e-05
5.71013e-05
4.41498e-05
5.75623e-05
2.50645e-05
5.72068e-05
6.35173e-06
5.60777e-05
-1.18013e-05
5.44442e-05
-2.92148e-05
5.21989e-05
-4.57869e-05
4.97149e-05
-6.14667e-05
4.69966e-05
-7.60928e-05
4.38917e-05
-8.97656e-05
4.10164e-05
-0.000102323
3.76619e-05
-0.000113846
3.45756e-05
-0.000124262
3.12287e-05
-0.000133574
2.79359e-05
-0.000141821
2.47999e-05
-0.000149127
2.19032e-05
-0.000155481
1.90863e-05
-0.000161007
1.65617e-05
-0.000165761
1.42927e-05
-0.000169815
1.21474e-05
-0.000173069
9.76067e-06
-0.000175595
7.58842e-06
-0.000177444
5.58098e-06
-0.000178766
3.96431e-06
-0.00017945
2.04923e-06
-0.000179627
5.02601e-07
-0.000179303
-9.63591e-07
-0.000178463
-2.49812e-06
-0.000177076
-4.16963e-06
-0.00017512
-5.93691e-06
-0.000172572
-7.57917e-06
-0.000169406
-9.50796e-06
-0.000165576
-1.14885e-05
-0.00016111
-1.34732e-05
-0.000155982
-1.53418e-05
-0.000150086
-1.77057e-05
-0.000143424
-1.99992e-05
-0.00013585
-2.28145e-05
-0.0001274
-2.52556e-05
-0.000118006
-2.81813e-05
-0.000107674
-3.10251e-05
-9.64089e-05
-3.376e-05
-8.41688e-05
-3.66642e-05
-7.1185e-05
-3.89922e-05
-5.72808e-05
-4.17173e-05
-4.25554e-05
-4.41764e-05
-2.7057e-05
-4.6471e-05
-1.08774e-05
-4.85207e-05
5.86295e-06
-5.01771e-05
2.30369e-05
-5.14714e-05
4.04645e-05
-5.22249e-05
5.79202e-05
-5.2351e-05
7.52432e-05
-5.19142e-05
9.22101e-05
-5.08746e-05
0.000108582
-4.89901e-05
0.000124071
-4.64676e-05
0.000138439
-4.30444e-05
0.000151423
-3.88944e-05
0.000162759
-3.39503e-05
0.000172234
-2.83706e-05
0.000179655
-2.22391e-05
0.000184857
-1.56136e-05
0.000187748
-8.65816e-06
0.000188322
-1.72268e-06
0.000186514
5.36168e-06
0.000182341
1.25561e-05
0.000175945
1.91759e-05
0.000167416
2.55513e-05
0.000156955
3.13526e-05
0.000144724
3.66234e-05
0.000130963
4.1258e-05
0.000115934
4.50257e-05
9.99057e-05
4.8026e-05
8.31553e-05
5.01962e-05
6.58742e-05
5.17552e-05
4.83654e-05
5.25212e-05
3.08034e-05
5.26393e-05
1.34143e-05
5.21327e-05
-3.65043e-06
5.11681e-05
-2.02587e-05
4.97937e-05
-3.62649e-05
4.79906e-05
-5.15604e-05
4.58639e-05
-6.60477e-05
4.34616e-05
-7.96657e-05
4.08509e-05
-9.24082e-05
3.82245e-05
-0.000104251
3.55258e-05
-0.000115194
3.28058e-05
-0.000125259
3.01779e-05
-0.000134512
2.77958e-05
-0.000142881
2.51057e-05
-0.000150418
2.26242e-05
-0.000157188
2.03258e-05
-0.000163206
1.80516e-05
-0.000168463
1.57568e-05
-0.000172942
1.34697e-05
-0.000176728
1.13785e-05
-0.000179888
9.46151e-06
-0.000182276
7.13856e-06
-0.000183941
5.01448e-06
-0.000185003
3.22465e-06
-0.000185413
1.237e-06
-0.00018507
-1.01901e-06
-0.000184067
-2.98061e-06
-0.000182308
-5.29567e-06
-0.00017983
-7.45461e-06
-0.000176642
-9.53173e-06
-0.0001726
-1.21383e-05
-0.000167773
-1.44822e-05
-0.000162072
-1.71099e-05
-0.0001555
-1.97254e-05
-0.000148061
-2.23249e-05
-0.000139543
-2.55704e-05
-0.000130026
-2.85627e-05
-0.000119293
-3.22001e-05
-0.000107394
-3.5686e-05
-9.44356e-05
-3.88622e-05
-8.03378e-05
-4.22705e-05
-6.52529e-05
-4.52244e-05
-4.94755e-05
-4.73058e-05
-3.28766e-05
-4.97563e-05
-1.57478e-05
-5.13656e-05
1.9769e-06
-5.31614e-05
2.03182e-05
-5.49881e-05
3.8874e-05
-5.56346e-05
5.76419e-05
-5.62722e-05
7.64666e-05
-5.64306e-05
9.49573e-05
-5.5424e-05
0.00011303
-5.4166e-05
0.000130402
-5.20834e-05
0.000146706
-4.88582e-05
0.000161791
-4.52088e-05
0.000175248
-4.03318e-05
0.000186933
-3.50355e-05
0.000196583
-2.89723e-05
0.000203865
-2.18777e-05
0.000208751
-1.46559e-05
0.000211075
-6.91135e-06
0.000210815
8.28423e-07
0.0002083
7.63998e-06
0.000203341
1.49236e-05
0.00019617
2.15041e-05
0.000186712
2.83405e-05
0.000175111
3.47369e-05
0.000161756
3.99871e-05
0.000146772
4.49337e-05
0.000130345
4.92239e-05
0.000112918
5.22108e-05
9.47359e-05
5.45161e-05
7.60749e-05
5.59248e-05
5.7145e-05
5.67294e-05
3.82314e-05
5.66823e-05
1.96372e-05
5.57599e-05
1.32094e-06
5.49113e-05
-1.63513e-05
5.30103e-05
-3.32548e-05
5.06852e-05
-4.92983e-05
4.81041e-05
-6.43652e-05
4.51978e-05
-7.84556e-05
4.22657e-05
-9.14953e-05
3.91092e-05
-0.00010348
3.59423e-05
-0.000114435
3.28792e-05
-0.000124401
2.98984e-05
-0.000133382
2.69462e-05
-0.000141435
2.41651e-05
-0.000148607
2.15259e-05
-0.000154937
1.89914e-05
-0.000160456
1.6557e-05
-0.000165194
1.42184e-05
-0.00016919
1.19923e-05
-0.000172447
9.7782e-06
-0.000174992
7.62352e-06
-0.000176818
5.48553e-06
-0.00017796
3.41689e-06
-0.000178422
1.39385e-06
-0.000178148
-8.2508e-07
-0.000177139
-3.02553e-06
-0.000175473
-4.99882e-06
-0.000173127
-7.03523e-06
-0.000170043
-9.25364e-06
-0.000166275
-1.13095e-05
-0.000161812
-1.33892e-05
-0.000156528
-1.58616e-05
-0.000150486
-1.81296e-05
-0.000143557
-2.07954e-05
-0.00013581
-2.32486e-05
-0.000127186
-2.58782e-05
-0.000117478
-2.91335e-05
-0.000106776
-3.21143e-05
-3.52691e-05
0.000215917
-5.26744e-05
0.000227748
-4.70532e-05
0.000237751
-3.98072e-05
0.000245718
-3.16897e-05
0.000251614
-2.34005e-05
0.000255245
-1.4387e-05
0.000256628
-5.53325e-06
0.000255505
4.09747e-06
0.00025193
1.39979e-05
0.000246114
2.31667e-05
0.000238133
3.18781e-05
0.000227987
4.05231e-05
0.000216075
4.75021e-05
0.000202429
5.44484e-05
0.000187521
5.9463e-05
0.000171445
6.42106e-05
0.000154322
6.83589e-05
0.000136667
7.04358e-05
0.000118599
7.21848e-05
0.000100247
7.32754e-05
8.20424e-05
7.27379e-05
6.39403e-05
7.23108e-05
4.63292e-05
7.03766e-05
2.91097e-05
6.8812e-05
1.26952e-05
6.56084e-05
-3.14342e-06
6.32661e-05
-1.81668e-05
6.00651e-05
-3.23397e-05
5.66673e-05
-4.56441e-05
5.31974e-05
-5.80623e-05
4.96441e-05
-6.95736e-05
4.60321e-05
-8.01925e-05
4.24911e-05
-8.9962e-05
3.90838e-05
-9.8878e-05
3.56735e-05
-0.000106994
3.24744e-05
-0.000114314
2.92897e-05
-0.000120872
2.62451e-05
-0.00012671
2.33595e-05
-0.000131832
2.04388e-05
-0.000136253
1.76698e-05
-0.000140004
1.50474e-05
-0.000143107
1.24201e-05
-0.00014558
9.88171e-06
-0.000147401
7.28252e-06
-0.000148596
4.7676e-06
-0.000149149
2.28708e-06
-0.000149014
-5.07121e-07
-0.000148155
-3.39213e-06
-0.00014662
-6.17111e-06
-0.000144402
-8.90205e-06
-0.000141373
-1.21674e-05
-0.00013755
-1.52737e-05
-0.000132888
-1.86526e-05
-0.000127286
-2.24535e-05
-0.000120969
-2.53348e-05
-0.000113542
-2.96599e-05
-0.000105145
-3.36256e-05
-9.59742e-05
-3.67508e-05
-8.54971e-05
-4.18526e-05
-7.41965e-05
-4.52587e-05
-6.16671e-05
-5.01306e-05
-4.80837e-05
-5.42922e-05
-3.36363e-05
-5.77579e-05
-1.82103e-05
-6.15712e-05
-1.85365e-06
-6.54728e-05
1.5128e-05
-6.78587e-05
3.28102e-05
-7.06406e-05
5.08937e-05
-7.22578e-05
6.93279e-05
-7.35799e-05
8.79334e-05
-7.43518e-05
0.000106367
-7.3626e-05
0.000124476
-7.23199e-05
0.000142092
-7.03153e-05
0.000158903
-6.71746e-05
0.000174713
-6.30946e-05
0.000189218
-5.78684e-05
0.000202404
-5.25626e-05
0.000213908
-4.59343e-05
0.000223534
-3.84177e-05
0.000231226
-3.0468e-05
0.000236697
-2.19653e-05
0.000239946
-1.29917e-05
0.000240832
-3.53599e-06
0.000239408
5.5641e-06
0.000235642
1.50214e-05
0.000229615
2.40377e-05
0.000221428
3.26675e-05
0.00021121
4.08183e-05
0.000199052
4.84331e-05
0.000185225
5.51636e-05
0.000169931
6.1014e-05
0.000153368
6.60162e-05
0.000135769
7.03125e-05
0.0001174
7.33824e-05
9.84175e-05
7.57414e-05
7.91258e-05
7.69899e-05
5.96639e-05
7.7701e-05
4.02984e-05
7.73321e-05
2.11952e-05
7.62662e-05
2.53365e-06
7.4532e-05
-1.5475e-05
7.19792e-05
-3.27495e-05
6.90212e-05
-4.91075e-05
6.54163e-05
-6.44937e-05
6.15421e-05
-7.88868e-05
5.75036e-05
-9.21789e-05