/*--------------------------------*- C++ -*----------------------------------*\
| =========                 |                                                 |
| \\      /  F ield         | OpenFOAM: The Open Source CFD Toolbox           |
|  \\    /   O peration     | Version:  3.0.1                                 |
|   \\  /    A nd           | Web:      www.OpenFOAM.org                      |
|    \\/     M anipulation  |                                                 |
\*---------------------------------------------------------------------------*/
FoamFile
{
    version     2.0;
    format      ascii;
    class       surfaceScalarField;
    location    "36.8";
    object      phi;
}
// * * * * * * * * * * * * * * * * * * * * * * * * * * * * * * * * * * * * * //

dimensions      [0 3 -1 0 0 0 0];

internalField   nonuniform List<scalar> 
42423
(
0.000211765
-1.35271e-05
0.000223938
-1.21727e-05
0.000234371
-1.04328e-05
0.00024283
-8.4592e-06
0.000249256
-6.42651e-06
0.000253469
-4.21327e-06
0.000255496
-2.02608e-06
0.0002552
2.95584e-07
0.000252451
2.74869e-06
0.000247333
5.11835e-06
0.000239983
7.35021e-06
0.00023043
9.55216e-06
0.000219092
1.13384e-05
0.000205956
1.31362e-05
0.000191504
1.44514e-05
0.000175784
1.572e-05
0.000158962
1.68224e-05
0.000141559
1.74025e-05
0.000123636
1.79229e-05
0.000105384
1.82527e-05
8.71976e-05
1.81859e-05
6.90733e-05
1.81242e-05
5.13786e-05
1.76947e-05
3.40431e-05
1.73355e-05
1.7471e-05
1.65721e-05
1.48686e-06
1.59842e-05
-1.376e-05
1.52468e-05
-2.8165e-05
1.44051e-05
-4.17084e-05
1.35434e-05
-5.43668e-05
1.26584e-05
-6.61242e-05
1.17574e-05
-7.69968e-05
1.08726e-05
-8.70124e-05
1.00156e-05
-9.61697e-05
9.15735e-06
-0.000104522
8.35272e-06
-0.000112071
7.54854e-06
-0.000118851
6.7795e-06
-0.000124904
6.05311e-06
-0.000130208
5.30485e-06
-0.000134821
4.61282e-06
-0.000138784
3.96306e-06
-0.000142081
3.29626e-06
-0.000144738
2.6572e-06
-0.000146742
2.0039e-06
-0.000148113
1.37141e-06
-0.000148882
7.68405e-07
-0.000148966
8.47803e-08
-0.000148334
-6.3201e-07
-0.000146993
-1.34152e-06
-0.000144972
-2.02099e-06
-0.000142141
-2.83071e-06
-0.000138555
-3.58584e-06
-0.000134121
-4.43423e-06
-0.000128763
-5.35813e-06
-0.000122663
-6.10022e-06
-0.000115538
-7.12442e-06
-0.000107404
-8.13418e-06
-9.84875e-05
-8.91682e-06
-8.83258e-05
-1.01618e-05
-7.72909e-05
-1.10349e-05
-6.50489e-05
-1.22421e-05
-5.17647e-05
-1.32842e-05
-3.7604e-05
-1.41608e-05
-2.24863e-05
-1.51178e-05
-6.34323e-06
-1.61431e-05
1.04032e-05
-1.67465e-05
2.78836e-05
-1.74804e-05
4.58196e-05
-1.79361e-05
6.4117e-05
-1.82975e-05
8.26723e-05
-1.85554e-05
0.000101102
-1.84301e-05
0.000119271
-1.81688e-05
0.000136994
-1.77232e-05
0.000154011
-1.70171e-05
0.000170063
-1.6052e-05
0.000184869
-1.48062e-05
0.000198396
-1.35271e-05
0.000210356
-1.19596e-05
0.000220485
-1.01291e-05
0.000228644
-8.15975e-06
0.000234762
-6.11753e-06
0.000238662
-3.90069e-06
0.000240197
-1.53429e-06
0.000239498
6.98639e-07
0.000236431
3.06672e-06
0.000231068
5.36287e-06
0.000223516
7.55236e-06
0.000213876
9.63982e-06
0.000202323
1.15528e-05
0.000189013
1.33096e-05
0.000174183
1.48307e-05
0.000158046
1.6137e-05
0.000140743
1.73025e-05
0.000122604
1.81386e-05
0.000103826
1.8778e-05
8.46638e-05
1.91626e-05
6.52817e-05
1.93821e-05
4.59232e-05
1.93584e-05
2.67759e-05
1.91474e-05
8.00628e-06
1.87696e-05
-1.01649e-05
1.81711e-05
-2.76307e-05
1.74658e-05
-4.42395e-05
1.66089e-05
-5.99003e-05
1.56608e-05
-7.45556e-05
1.46553e-05
-8.81098e-05
1.35542e-05
-0.00010069
1.25797e-05
-0.000112134
1.14442e-05
-0.000122522
1.03881e-05
-0.000131885
9.36298e-06
-0.000140226
8.34115e-06
-0.000147568
7.34241e-06
-0.000153968
6.39947e-06
-0.000159511
5.54276e-06
-0.000164116
4.60557e-06
-0.000167878
3.76194e-06
-0.000170792
2.91343e-06
-0.000172875
2.0837e-06
-0.000174164
1.28821e-06
-0.000174667
5.03311e-07
-0.000174379
-2.87799e-07
-0.000173267
-1.11167e-06
-0.000171393
-1.87462e-06
-0.000168687
-2.70614e-06
-0.00016526
-3.42664e-06
-0.000161016
-4.24425e-06
-0.000156
-5.01581e-06
-0.000150241
-5.75898e-06
-0.000143731
-6.50968e-06
-0.000136449
-7.28255e-06
-0.000128411
-8.03804e-06
-0.000119629
-8.78184e-06
-0.000110072
-9.55732e-06
-9.97437e-05
-1.0328e-05
-8.86668e-05
-1.1077e-05
-7.68052e-05
-1.18616e-05
-6.41935e-05
-1.26118e-05
-5.08326e-05
-1.33609e-05
-3.66853e-05
-1.41474e-05
-2.19073e-05
-1.47781e-05
-6.44589e-06
-1.54614e-05
9.54967e-06
-1.59956e-05
2.60058e-05
-1.64562e-05
4.28116e-05
-1.68059e-05
5.98409e-05
-1.70294e-05
7.68741e-05
-1.70333e-05
9.38101e-05
-1.6936e-05
0.00011032
-1.65097e-05
0.000126244
-1.59247e-05
0.000141283
-1.50391e-05
0.000155232
-1.39483e-05
0.000167811
-1.25795e-05
0.000178816
-1.10054e-05
0.000188004
-9.18761e-06
0.000195211
-7.20726e-06
0.000200244
-5.03325e-06
0.000202931
-2.68646e-06
0.000203258
-3.27626e-07
0.000201122
2.13617e-06
0.000196455
4.66674e-06
0.000189395
7.06005e-06
0.000180061
9.33447e-06
0.00016862
1.14407e-05
0.000155224
1.33955e-05
0.000140136
1.50885e-05
0.000123665
1.64706e-05
0.000106094
1.75714e-05
8.77174e-05
1.83763e-05
6.87992e-05
1.89181e-05
4.96457e-05
1.91535e-05
3.05368e-05
1.91089e-05
1.17534e-05
1.87833e-05
-6.55387e-06
1.83073e-05
-2.41462e-05
1.75923e-05
-4.09636e-05
1.68175e-05
-5.68842e-05
1.59206e-05
-7.18024e-05
1.49182e-05
-8.57675e-05
1.3965e-05
-9.86191e-05
1.28516e-05
-0.000110449
1.18297e-05
-0.000121152
1.07037e-05
-0.000130752
9.59976e-06
-0.000139311
8.55865e-06
-0.000146879
7.56827e-06
-0.000153505
6.62637e-06
-0.00015927
5.76446e-06
-0.000164271
5.00066e-06
-0.000168532
4.26168e-06
-0.000171993
3.46058e-06
-0.000174719
2.72649e-06
-0.000176773
2.05376e-06
-0.000178275
1.50151e-06
-0.000179124
8.49273e-07
-0.000179447
3.23342e-07
-0.000179289
-1.57953e-07
-0.00017862
-6.69641e-07
-0.000177387
-1.23258e-06
-0.000175549
-1.83785e-06
-0.000173208
-2.34137e-06
-0.000170208
-3.00013e-06
-0.000166556
-3.65149e-06
-0.000162231
-4.3255e-06
-0.000157333
-4.89753e-06
-0.000151639
-5.69378e-06
-0.000145193
-6.44654e-06
-0.000137787
-7.40579e-06
-0.000129648
-8.13937e-06
-0.000120502
-9.14557e-06
-0.000110407
-1.00949e-05
-9.94206e-05
-1.09869e-05
-8.74805e-05
-1.19401e-05
-7.47219e-05
-1.27586e-05
-6.10586e-05
-1.36634e-05
-4.65629e-05
-1.44957e-05
-3.12905e-05
-1.52725e-05
-1.53048e-05
-1.59857e-05
1.26435e-06
-1.65692e-05
1.83014e-05
-1.70372e-05
3.56388e-05
-1.73374e-05
5.3091e-05
-1.74523e-05
7.0434e-05
-1.7343e-05
8.75176e-05
-1.70837e-05
0.000104015
-1.64979e-05
0.000119775
-1.57598e-05
0.00013445
-1.46751e-05
0.000147813
-1.3363e-05
0.000159601
-1.1788e-05
0.000169592
-9.9913e-06
0.000177584
-7.99143e-06
0.000183436
-5.85222e-06
0.000186982
-3.5466e-06
0.000188223
-1.24065e-06
0.000187135
1.08792e-06
0.000183609
3.52655e-06
0.000177848
5.76046e-06
0.000169927
7.92126e-06
0.000160017
9.90947e-06
0.000148302
1.17155e-05
0.000134959
1.3343e-05
0.000120295
1.46633e-05
0.000104557
1.57386e-05
8.80198e-05
1.65368e-05
7.09063e-05
1.71135e-05
5.34434e-05
1.74628e-05
3.58961e-05
1.75473e-05
1.84595e-05
1.74366e-05
1.29952e-06
1.716e-05
-1.5438e-05
1.67375e-05
-3.1605e-05
1.6167e-05
-4.70942e-05
1.54891e-05
-6.18025e-05
1.47083e-05
-7.56528e-05
1.38503e-05
-8.86382e-05
1.29854e-05
-0.00010073
1.20915e-05
-0.000111916
1.1186e-05
-0.000122233
1.03175e-05
-0.000131758
9.52447e-06
-0.000140371
8.61351e-06
-0.000148155
7.78429e-06
-0.000155174
7.01842e-06
-0.000161425
6.25142e-06
-0.000166896
5.47119e-06
-0.000171608
4.71194e-06
-0.000175621
4.01242e-06
-0.000178975
3.35391e-06
-0.000181548
2.57335e-06
-0.00018342
1.87186e-06
-0.000184689
1.26881e-06
-0.000185288
5.99163e-07
-0.000185136
-1.5163e-07
-0.000184335
-8.01366e-07
-0.00018275
-1.58492e-06
-0.000180447
-2.30345e-06
-0.00017747
-2.97679e-06
-0.000173619
-3.85101e-06
-0.000168992
-4.62639e-06
-0.000163494
-5.49869e-06
-0.000157135
-6.359e-06
-0.000149914
-7.22065e-06
-0.000141614
-8.29968e-06
-0.000132326
-9.28885e-06
-0.000121829
-1.04966e-05
-0.000110179
-1.16505e-05
-9.74708e-05
-1.27079e-05
-8.36224e-05
-1.38485e-05
-6.87836e-05
-1.48389e-05
-5.32333e-05
-1.55503e-05
-3.68471e-05
-1.63863e-05
-1.99013e-05
-1.69459e-05
-2.4027e-06
-1.74987e-05
1.58314e-05
-1.82342e-05
3.42539e-05
-1.84225e-05
5.29379e-05
-1.86841e-05
7.17356e-05
-1.87978e-05
9.02655e-05
-1.85299e-05
0.00010845
-1.81843e-05
0.000126017
-1.75668e-05
0.000142583
-1.65666e-05
0.000158014
-1.54314e-05
0.000171889
-1.3875e-05
0.000184062
-1.21732e-05
0.000194287
-1.02248e-05
0.00020222
-7.93233e-06
0.000207775
-5.55602e-06
0.000210758
-2.98294e-06
0.000210994
-2.36098e-07
0.000209068
1.92642e-06
0.000204703
4.36535e-06
0.000198149
6.55321e-06
0.000189304
8.84569e-06
0.000178279
1.10241e-05
0.000165452
1.28272e-05
0.000150896
1.45564e-05
0.000134842
1.60542e-05
0.000117722
1.71195e-05
9.97431e-05
1.79789e-05
8.12347e-05
1.85083e-05
6.23938e-05
1.88409e-05
4.34886e-05
1.89052e-05
2.48117e-05
1.86769e-05
6.33128e-06
1.84804e-05
-1.1459e-05
1.77903e-05
-2.85493e-05
1.70902e-05
-4.48209e-05
1.62716e-05
-6.0153e-05
1.53321e-05
-7.45189e-05
1.43658e-05
-8.78367e-05
1.33178e-05
-0.0001001
1.22638e-05
-0.000111348
1.12475e-05
-0.00012159
1.02422e-05
-0.000130839
9.24836e-06
-0.000139153
8.31427e-06
-0.000146577
7.42381e-06
-0.000153143
6.56629e-06
-0.000158889
5.74602e-06
-0.000163848
4.95912e-06
-0.000168059
4.21128e-06
-0.000171524
3.46466e-06
-0.000174263
2.73944e-06
-0.000176292
2.02826e-06
-0.00017762
1.32783e-06
-0.000178273
6.53519e-07
-0.000178198
-7.48121e-08
-0.000177389
-8.09478e-07
-0.000175914
-1.4749e-06
-0.000173761
-2.15281e-06
-0.000170874
-2.88696e-06
-0.000167305
-3.56938e-06
-0.000163047
-4.25775e-06
-0.000157976
-5.07083e-06
-0.000152159
-5.81684e-06
-0.000145468
-6.69173e-06
-0.000137968
-7.49981e-06
-0.000129603
-8.3652e-06
-0.000120168
-9.43451e-06
-0.000109751
-1.04173e-05
-1.14605e-05
0.000211836
-2.70708e-05
0.000224036
-2.4372e-05
0.000234488
-2.08848e-05
0.000242964
-1.69355e-05
0.000249406
-1.28693e-05
0.000253634
-8.44053e-06
0.000255655
-4.0474e-06
0.000255328
6.22473e-07
0.000252568
5.50894e-06
0.000247444
1.02422e-05
0.000240091
1.47025e-05
0.000230534
1.91096e-05
0.000219186
2.26864e-05
0.000206038
2.6284e-05
0.000191574
2.89155e-05
0.000175846
3.14481e-05
0.00015901
3.36578e-05
0.000141593
3.48195e-05
0.000123662
3.58543e-05
0.000105397
3.65177e-05
8.72032e-05
3.63792e-05
6.90691e-05
3.62583e-05
5.13685e-05
3.53952e-05
3.40251e-05
3.46789e-05
1.74487e-05
3.31485e-05
1.45846e-06
3.19743e-05
-1.37903e-05
3.04955e-05
-2.81985e-05
2.88133e-05
-4.17441e-05
2.7089e-05
-5.44032e-05
2.53175e-05
-6.61631e-05
2.35172e-05
-7.70378e-05
2.17473e-05
-8.70549e-05
2.00326e-05
-9.62142e-05
1.83167e-05
-0.000104565
1.67038e-05
-0.000112114
1.50971e-05
-0.000118896
1.35614e-05
-0.000124945
1.21023e-05
-0.000130253
1.06129e-05
-0.000134867
9.22733e-06
-0.000138829
7.92424e-06
-0.000142125
6.59267e-06
-0.000144783
5.31467e-06
-0.000146792
4.01329e-06
-0.00014817
2.74963e-06
-0.000148934
1.53176e-06
-0.000149016
1.67436e-07
-0.000148381
-1.2671e-06
-0.000147044
-2.67897e-06
-0.000145027
-4.03761e-06
-0.000142201
-5.65666e-06
-0.000138615
-7.17213e-06
-0.000134189
-8.86032e-06
-0.000128826
-1.07213e-05
-0.000122749
-1.21773e-05
-0.000115601
-1.42724e-05
-0.000107472
-1.62629e-05
-9.85617e-05
-1.78273e-05
-8.83919e-05
-2.03318e-05
-7.73645e-05
-2.20624e-05
-6.51157e-05
-2.4491e-05
-5.18343e-05
-2.65657e-05
-3.76699e-05
-2.83254e-05
-2.25422e-05
-3.02456e-05
-6.40091e-06
-3.22846e-05
1.03568e-05
-3.35044e-05
2.78485e-05
-3.49724e-05
4.57829e-05
-3.58707e-05
6.4095e-05
-3.66098e-05
8.26688e-05
-3.71294e-05
0.000101109
-3.68705e-05
0.000119286
-3.63459e-05
0.000137022
-3.54601e-05
0.00015405
-3.40444e-05
0.000170109
-3.21116e-05
0.000184928
-2.96258e-05
0.000198486
-2.70843e-05
0.000210448
-2.3922e-05
0.000220583
-2.02641e-05
0.000228757
-1.6334e-05
0.000234882
-1.22432e-05
0.000238782
-7.8006e-06
0.000240326
-3.07814e-06
0.000239617
1.40704e-06
0.000236542
6.14141e-06
0.000231174
1.07307e-05
0.000223621
1.51057e-05
0.000213989
1.9272e-05
0.000202408
2.31339e-05
0.000189085
2.66327e-05
0.000174236
2.96788e-05
0.000158086
3.22876e-05
0.000140766
3.46222e-05
0.00012262
3.62842e-05
0.000103835
3.75634e-05
8.4681e-05
3.83165e-05
6.52604e-05
3.88026e-05
4.58891e-05
3.87297e-05
2.67339e-05
3.83026e-05
7.96209e-06
3.75414e-05
-1.02202e-05
3.63535e-05
-2.76949e-05
3.49405e-05
-4.42992e-05
3.32131e-05
-5.99578e-05
3.13195e-05
-7.46178e-05
2.93153e-05
-8.81829e-05
2.71194e-05
-0.000100759
2.51557e-05
-0.000112211
2.28967e-05
-0.000122593
2.07696e-05
-0.000131949
1.87196e-05
-0.000140289
1.66811e-05
-0.000147631
1.46842e-05
-0.000154031
1.27988e-05
-0.000159584
1.1096e-05
-0.000164192
9.21382e-06
-0.000167947
7.51689e-06
-0.000170858
5.8248e-06
-0.000172938
4.16281e-06
-0.000174239
2.59002e-06
-0.000174739
1.00329e-06
-0.000174458
-5.68791e-07
-0.000173349
-2.22146e-06
-0.000171474
-3.74908e-06
-0.00016877
-5.41022e-06
-0.000165344
-6.85311e-06
-0.000161103
-8.48508e-06
-0.000156092
-1.0027e-05
-0.000150331
-1.15193e-05
-0.000143822
-1.30187e-05
-0.000136538
-1.45673e-05
-0.000128511
-1.60654e-05
-0.000119728
-1.75648e-05
-0.000110172
-1.91134e-05
-9.98452e-05
-2.06546e-05
-8.877e-05
-2.21522e-05
-7.69043e-05
-2.37274e-05
-6.42965e-05
-2.52198e-05
-5.09326e-05
-2.6725e-05
-3.67849e-05
-2.82952e-05
-2.20029e-05
-2.95602e-05
-6.54091e-06
-3.09236e-05
9.46404e-06
-3.20007e-05
2.59437e-05
-3.29361e-05
4.27491e-05
-3.36114e-05
5.97721e-05
-3.40526e-05
7.68258e-05
-3.40871e-05
9.37734e-05
-3.38838e-05
0.00011029
-3.30269e-05
0.000126224
-3.18583e-05
0.000141278
-3.00935e-05
0.000155241
-2.79114e-05
0.000167839
-2.51776e-05
0.000178859
-2.20257e-05
0.000188056
-1.83842e-05
0.000195267
-1.44188e-05
0.000200308
-1.00744e-05
0.000203
-5.37804e-06
0.000203325
-6.527e-07
0.000201182
4.2788e-06
0.000196522
9.32673e-06
0.000189465
1.41172e-05
0.000180122
1.86764e-05
0.000168661
2.29025e-05
0.000155263
2.6793e-05
0.00014017
3.01817e-05
0.000123689
3.29517e-05
0.000106108
3.51519e-05
8.77108e-05
3.67736e-05
6.87774e-05
3.78515e-05
4.9615e-05
3.83159e-05
3.05041e-05
3.82197e-05
1.17009e-05
3.75866e-05
-6.60879e-06
3.6617e-05
-2.42154e-05
3.51989e-05
-4.10231e-05
3.36251e-05
-5.69529e-05
3.18505e-05
-7.18708e-05
2.9836e-05
-8.58409e-05
2.79352e-05
-9.86955e-05
2.57062e-05
-0.00011052
2.36546e-05
-0.000121222
2.14052e-05
-0.000130824
1.92023e-05
-0.000139379
1.71137e-05
-0.000146948
1.51366e-05
-0.000153568
1.32469e-05
-0.000159331
1.15271e-05
-0.000164333
1.00023e-05
-0.000168602
8.53098e-06
-0.00017206
6.91898e-06
-0.000174788
5.45422e-06
-0.00017684
4.10569e-06
-0.000178339
3.00074e-06
-0.000179188
1.69795e-06
-0.000179521
6.56661e-07
-0.000179365
-3.14492e-07
-0.000178696
-1.33878e-06
-0.000177464
-2.46377e-06
-0.000175645
-3.65692e-06
-0.000173289
-4.69793e-06
-0.000170293
-5.99617e-06
-0.000166648
-7.2963e-06
-0.000162349
-8.62419e-06
-0.000157435
-9.81225e-06
-0.000151744
-1.13845e-05
-0.000145299
-1.28918e-05
-0.00013793
-1.47747e-05
-0.000129749
-1.63205e-05
-0.000120607
-1.82873e-05
-0.000110522
-2.01798e-05
-9.95332e-05
-2.19761e-05
-8.75681e-05
-2.39053e-05
-7.48279e-05
-2.54989e-05
-6.11679e-05
-2.73235e-05
-4.66727e-05
-2.89909e-05
-3.13898e-05
-3.05555e-05
-1.53963e-05
-3.19793e-05
1.17909e-06
-3.31447e-05
1.82307e-05
-3.40889e-05
3.55812e-05
-3.4688e-05
5.30255e-05
-3.48967e-05
7.03977e-05
-3.47153e-05
8.74794e-05
-3.41655e-05
0.000103999
-3.30172e-05
0.000119762
-3.15234e-05
0.000134456
-2.93689e-05
0.000147838
-2.67451e-05
0.000159635
-2.35849e-05
0.000169631
-1.9988e-05
0.000177652
-1.60125e-05
0.000183488
-1.16886e-05
0.00018704
-7.09778e-06
0.000188281
-2.4822e-06
0.000187178
2.19063e-06
0.000183666
7.03917e-06
0.000177903
1.1523e-05
0.000169977
1.58472e-05
0.000160064
1.98225e-05
0.000148331
2.34485e-05
0.000134983
2.66903e-05
0.00012031
2.93367e-05
0.000104562
3.14863e-05
8.8017e-05
3.3082e-05
7.08796e-05
3.42508e-05
5.34216e-05
3.49209e-05
3.58645e-05
3.51043e-05
1.84252e-05
3.48759e-05
1.25915e-06
3.43261e-05
-1.54867e-05
3.34833e-05
-3.16634e-05
3.23438e-05
-4.71507e-05
3.09764e-05
-6.18616e-05
2.94192e-05
-7.57171e-05
2.77057e-05
-8.87053e-05
2.59736e-05
-0.0001008
2.4186e-05
-0.000111986
2.23725e-05
-0.000122292
2.0623e-05
-0.000131816
1.90488e-05
-0.000140436
1.72337e-05
-0.000148228
1.55755e-05
-0.000155242
1.40328e-05
-0.000161487
1.24967e-05
-0.000166966
1.09499e-05
-0.000171682
9.42767e-06
-0.000175688
8.01913e-06
-0.000179049
6.71467e-06
-0.000181628
5.15269e-06
-0.000183498
3.74103e-06
-0.000184761
2.53237e-06
-0.000185364
1.20204e-06
-0.000185216
-2.9923e-07
-0.000184412
-1.60631e-06
-0.000182831
-3.16537e-06
-0.000180536
-4.59901e-06
-0.000177551
-5.9618e-06
-0.000173699
-7.70256e-06
-0.000169074
-9.25154e-06
-0.00016358
-1.09929e-05
-0.000157219
-1.27198e-05
-0.000149997
-1.44424e-05
-0.000141701
-1.65954e-05
-0.000132413
-1.85772e-05
-0.000121917
-2.09927e-05
-0.000110264
-2.33038e-05
-9.75504e-05
-2.54214e-05
-8.36968e-05
-2.77022e-05
-6.88508e-05
-2.9685e-05
-5.32946e-05
-3.11066e-05
-3.68973e-05
-3.27837e-05
-1.99459e-05
-3.38973e-05
-2.41839e-06
-3.50262e-05
1.58011e-05
-3.64537e-05
3.42269e-05
-3.68484e-05
5.29173e-05
-3.73746e-05
7.17245e-05
-3.76051e-05
9.02648e-05
-3.70703e-05
0.00010846
-3.63799e-05
0.000126043
-3.51497e-05
0.000142621
-3.31442e-05
0.000158054
-3.08647e-05
0.00017194
-2.7761e-05
0.000184136
-2.437e-05
0.000194375
-2.04638e-05
0.000202287
-1.58438e-05
0.000207834
-1.11035e-05
0.000210852
-6.00063e-06
0.000211097
-4.80999e-07
0.000209176
3.84715e-06
0.000204823
8.71809e-06
0.000198272
1.31036e-05
0.000189418
1.76999e-05
0.000178383
2.20589e-05
0.000165543
2.56673e-05
0.00015098
2.91196e-05
0.000134912
3.21221e-05
0.000117776
3.42553e-05
9.97949e-05
3.59597e-05
8.12697e-05
3.70335e-05
6.24051e-05
3.77055e-05
4.34928e-05
3.78174e-05
2.48091e-05
3.73606e-05
6.31347e-06
3.6976e-05
-1.14658e-05
3.55695e-05
-2.85626e-05
3.4187e-05
-4.48422e-05
3.25512e-05
-6.01764e-05
3.06663e-05
-7.4547e-05
2.87364e-05
-8.78713e-05
2.66421e-05
-0.000100138
2.45305e-05
-0.000111381
2.24904e-05
-0.000121624
2.04856e-05
-0.000130875
1.8499e-05
-0.000139188
1.66272e-05
-0.000146612
1.48476e-05
-0.000153179
1.31336e-05
-0.000158926
1.14929e-05
-0.000163884
9.91707e-06
-0.000168092
8.41954e-06
-0.000171559
6.93152e-06
-0.0001743
5.48021e-06
-0.000176328
4.05663e-06
-0.000177659
2.65835e-06
-0.000178309
1.30381e-06
-0.000178235
-1.48716e-07
-0.000177425
-1.61954e-06
-0.000175951
-2.94923e-06
-0.000173798
-4.30575e-06
-0.00017091
-5.77426e-06
-0.000167341
-7.13866e-06
-0.000163084
-8.51523e-06
-0.000158013
-1.01413e-05
-0.000152196
-1.1634e-05
-0.000145505
-1.33832e-05
-0.000138006
-1.49986e-05
-0.000129642
-1.67293e-05
-0.000120208
-1.88681e-05
-0.000109791
-2.08339e-05
-2.29212e-05
0.000211977
-4.06459e-05
0.000224207
-3.66027e-05
0.000234685
-3.1363e-05
0.000243182
-2.54325e-05
0.000249649
-1.93366e-05
0.000253891
-1.26826e-05
0.000255935
-6.09096e-06
0.000255573
9.84538e-07
0.000252753
8.32872e-06
0.000247611
1.53836e-05
0.000240254
2.20602e-05
0.000230687
2.8676e-05
0.00021932
3.40538e-05
0.000206153
3.94509e-05
0.000191665
4.34031e-05
0.000175924
4.71888e-05
0.00015907
5.05125e-05
0.000141627
5.22625e-05
0.000123683
5.37979e-05
0.000105399
5.48018e-05
8.7194e-05
5.45839e-05
6.90454e-05
5.44069e-05
5.1335e-05
5.31056e-05
3.3981e-05
5.20329e-05
1.73966e-05
4.97329e-05
1.39393e-06
4.7977e-05
-1.38584e-05
4.57478e-05
-2.82696e-05
4.32244e-05
-4.18184e-05
4.06378e-05
-5.44825e-05
3.79815e-05
-6.62417e-05
3.52764e-05
-7.71146e-05
3.26202e-05
-8.71309e-05
3.00489e-05
-9.62882e-05
2.74741e-05
-0.000104639
2.50547e-05
-0.000112186
2.26436e-05
-0.000118963
2.03389e-05
-0.000125014
1.81528e-05
-0.00013033
1.59289e-05
-0.000134947
1.38443e-05
-0.0001389
1.18779e-05
-0.000142196
9.88777e-06
-0.000144854
7.9731e-06
-0.000146863
6.02198e-06
-0.000148241
4.12751e-06
-0.000148998
2.28883e-06
-0.000149075
2.44686e-07
-0.000148431
-1.9107e-06
-0.000147098
-4.01229e-06
-0.000145085
-6.05055e-06
-0.000142266
-8.47558e-06
-0.000138677
-1.07611e-05
-0.000134265
-1.32722e-05
-0.000128895
-1.60915e-05
-0.000122829
-1.82437e-05
-0.000115673
-2.14289e-05
-0.000107549
-2.43866e-05
-9.86485e-05
-2.67278e-05
-8.8472e-05
-3.05084e-05
-7.74515e-05
-3.3083e-05
-6.52077e-05
-3.67349e-05
-5.19172e-05
-3.98564e-05
-3.77491e-05
-4.24936e-05
-2.26081e-05
-4.53868e-05
-6.46853e-06
-4.84243e-05
1.02969e-05
-5.027e-05
2.77979e-05
-5.24736e-05
4.57468e-05
-5.38198e-05
6.40797e-05
-5.49428e-05
8.26584e-05
-5.57083e-05
0.000101118
-5.53299e-05
0.000119307
-5.45357e-05
0.000137066
-5.32187e-05
0.000154099
-5.10773e-05
0.000170185
-4.81979e-05
0.000185026
-4.44669e-05
0.000198605
-4.06635e-05
0.000210579
-3.58969e-05
0.00022073
-3.04143e-05
0.000228932
-2.45365e-05
0.000235058
-1.83693e-05
0.000238958
-1.17007e-05
0.000240512
-4.63243e-06
0.000239787
2.13179e-06
0.000236696
9.23229e-06
0.000231325
1.61021e-05
0.000223766
2.26647e-05
0.000214124
2.89134e-05
0.000202517
3.47411e-05
0.000189171
3.99786e-05
0.000174299
4.45509e-05
0.000158106
4.84799e-05
0.000140788
5.19411e-05
0.00012263
5.4442e-05
0.000103811
5.63821e-05
8.46177e-05
5.75097e-05
6.51915e-05
5.82288e-05
4.57963e-05
5.81249e-05
2.66219e-05
5.7477e-05
7.83691e-06
5.63264e-05
-1.03542e-05
5.45445e-05
-2.78402e-05
5.24266e-05
-4.44507e-05
4.98236e-05
-6.01165e-05
4.69852e-05
-7.47837e-05
4.39825e-05
-8.83626e-05
4.06983e-05
-0.000100909
3.77018e-05
-0.000112372
3.43602e-05
-0.000122757
3.11549e-05
-0.000132114
2.80756e-05
-0.000140451
2.50181e-05
-0.000147795
2.20289e-05
-0.000154178
1.91817e-05
-0.000159727
1.66447e-05
-0.000164344
1.38309e-05
-0.000168105
1.12775e-05
-0.000171013
8.73308e-06
-0.000173084
6.23426e-06
-0.000174396
3.90205e-06
-0.000174876
1.48249e-06
-0.000174598
-8.46286e-07
-0.000173491
-3.32873e-06
-0.000171609
-5.63069e-06
-0.000168903
-8.11613e-06
-0.00016547
-1.02869e-05
-0.000161235
-1.27202e-05
-0.00015623
-1.5032e-05
-0.000150467
-1.7282e-05
-0.000143959
-1.95271e-05
-0.00013666
-2.18657e-05
-0.000128634
-2.40911e-05
-0.000119854
-2.63458e-05
-0.000110305
-2.86624e-05
-9.99768e-05
-3.09824e-05
-8.89059e-05
-3.32232e-05
-7.70368e-05
-3.55966e-05
-6.44249e-05
-3.78318e-05
-5.10593e-05
-4.00907e-05
-3.69181e-05
-4.24365e-05
-2.21155e-05
-4.4363e-05
-6.65629e-06
-4.6383e-05
9.36123e-06
-4.80184e-05
2.58362e-05
-4.94111e-05
4.26684e-05
-5.04437e-05
5.96924e-05
-5.10768e-05
7.67653e-05
-5.11601e-05
9.37397e-05
-5.08584e-05
0.000110279
-4.95661e-05
0.000126238
-4.7818e-05
0.000141306
-4.51617e-05
0.000155282
-4.18876e-05
0.000167912
-3.78071e-05
0.000178952
-3.30658e-05
0.000188151
-2.75836e-05
0.00019538
-2.16475e-05
0.000200435
-1.51295e-05
0.00020313
-8.07399e-06
0.000203447
-9.69634e-07
0.000201292
6.43381e-06
0.000196644
1.39749e-05
0.000189585
2.11765e-05
0.00018023
2.8031e-05
0.000168739
3.43936e-05
0.000155326
4.02061e-05
0.000140224
4.52828e-05
0.00012371
4.94662e-05
0.000106112
5.27498e-05
8.7684e-05
5.52014e-05
6.87221e-05
5.68134e-05
4.9536e-05
5.75019e-05
3.04009e-05
5.73548e-05
1.15765e-05
5.64109e-05
-6.74036e-06
5.49338e-05
-2.43615e-05
5.282e-05
-4.11756e-05
5.04392e-05
-5.71231e-05
4.77979e-05
-7.20352e-05
4.47482e-05
-8.60044e-05
4.19044e-05
-9.88633e-05
3.85651e-05
-0.000110687
3.54783e-05
-0.0001214
3.21178e-05
-0.000131001
2.88036e-05
-0.000139529
2.56419e-05
-0.000147105
2.27123e-05
-0.000153717
1.98593e-05
-0.000159488
1.72978e-05
-0.000164474
1.49887e-05
-0.000168747
1.28034e-05
-0.000172208
1.03798e-05
-0.000174929
8.1755e-06
-0.000176964
6.14113e-06
-0.000178464
4.50089e-06
-0.000179316
2.54991e-06
-0.000179658
9.98413e-07
-0.000179497
-4.75565e-07
-0.000178816
-2.01975e-06
-0.000177588
-3.6914e-06
-0.000175795
-5.45088e-06
-0.000173413
-7.07994e-06
-0.000170419
-8.99019e-06
-0.00016677
-1.09449e-05
-0.000162495
-1.28993e-05
-0.000157569
-1.47384e-05
-0.000151884
-1.70692e-05
-0.000145445
-1.93313e-05
-0.000138104
-2.21157e-05
-0.000129896
-2.45278e-05
-0.000120753
-2.74305e-05
-0.000110678
-3.0255e-05
-9.96727e-05
-3.29815e-05
-8.76926e-05
-3.58854e-05
-7.4964e-05
-3.82277e-05
-6.13052e-05
-4.09823e-05
-4.68104e-05
-4.34858e-05
-3.15212e-05
-4.58448e-05
-1.55234e-05
-4.79771e-05
1.06986e-06
-4.97381e-05
1.81393e-05
-5.11584e-05
3.55118e-05
-5.20606e-05
5.29678e-05
-5.23528e-05
7.03523e-05
-5.20999e-05
8.74478e-05
-5.12611e-05
0.000104019
-4.95884e-05
0.000119781
-4.72856e-05
0.000134495
-4.40826e-05
0.000147897
-4.01479e-05
0.000159719
-3.5407e-05
0.000169741
-3.00095e-05
0.000177761
-2.40332e-05
0.000183602
-1.75296e-05
0.000187159
-1.06541e-05
0.00018841
-3.73405e-06
0.000187281
3.31999e-06
0.000183776
1.05441e-05
0.000178011
1.72877e-05
0.000170072
2.37867e-05
0.000160146
2.97484e-05
0.000148388
3.52057e-05
0.000135031
4.00479e-05
0.000120332
4.4035e-05
0.00010456
4.72592e-05
8.79908e-05
4.96507e-05
7.08209e-05
5.14207e-05
5.33573e-05
5.23844e-05
3.57811e-05
5.26804e-05
1.83251e-05
5.23319e-05
1.14834e-06
5.15028e-05
-1.56097e-05
5.02413e-05
-3.17962e-05
4.85303e-05
-4.72963e-05
4.64765e-05
-6.20066e-05
4.41296e-05
-7.58614e-05
4.15605e-05
-8.88502e-05
3.89624e-05
-0.000100945
3.62812e-05
-0.000112143
3.35701e-05
-0.000122464
3.09435e-05
-0.000131969
2.85542e-05
-0.000140588
2.58522e-05
-0.000148369
2.3357e-05
-0.000155376
2.10401e-05
-0.000161627
1.87468e-05
-0.000167109
1.64321e-05
-0.000171807
1.41257e-05
-0.000175806
1.20178e-05
-0.000179173
1.0082e-05
-0.000181762
7.74167e-06
-0.000183622
5.6015e-06
-0.000184872
3.7823e-06
-0.000185469
1.79884e-06
-0.000185313
-4.55431e-07
-0.000184495
-2.42467e-06
-0.000182922
-4.73838e-06
-0.000180633
-6.88813e-06
-0.000177636
-8.95826e-06
-0.00017379
-1.15486e-05
-0.000169165
-1.38763e-05
-0.000163673
-1.64854e-05
-0.000157317
-1.90757e-05
-0.000150101
-2.16589e-05
-0.000141811
-2.48851e-05
-0.000132528
-2.78602e-05
-0.000122033
-3.14881e-05
-0.000110376
-3.49608e-05
-9.76588e-05
-3.81386e-05
-8.37967e-05
-4.15643e-05
-6.89396e-05
-4.45422e-05
-5.33735e-05
-4.66727e-05
-3.69615e-05
-4.91958e-05
-1.99974e-05
-5.08616e-05
-2.43638e-06
-5.25874e-05
1.57663e-05
-5.46565e-05
3.42005e-05
-5.52827e-05
5.29021e-05
-5.60763e-05
7.17257e-05
-5.64288e-05
9.02846e-05
-5.56294e-05
0.0001085
-5.45956e-05
0.000126093
-5.27426e-05
0.000142692
-4.97429e-05
0.000158148
-4.63213e-05
0.000172049
-4.16617e-05
0.000184245
-3.6566e-05
0.000194468
-3.06876e-05
0.000202377
-2.37525e-05
0.00020793
-1.66568e-05
0.000210958
-9.02911e-06
0.00021122
-7.42538e-07
0.000209337
5.73007e-06
0.000205009
1.30461e-05
0.000198458
1.96539e-05
0.000189594
2.6564e-05
0.000178533
3.312e-05
0.000165662
3.85386e-05
0.000151093
4.36883e-05
0.000135003
4.82119e-05
0.000117841
5.14171e-05
9.98453e-05
5.39557e-05
8.12991e-05
5.55797e-05
6.24162e-05
5.65883e-05
4.3479e-05
5.67546e-05
2.47889e-05
5.60507e-05
6.27418e-06
5.54907e-05
-1.15084e-05
5.33521e-05
-2.86176e-05
5.12961e-05
-4.49078e-05
4.88413e-05
-6.02434e-05
4.60019e-05
-7.46149e-05
4.31079e-05
-8.79412e-05
3.99684e-05
-0.000100212
3.68016e-05
-0.000111452
3.37297e-05
-0.000121693
3.07273e-05
-0.000130941
2.77471e-05
-0.000139252
2.49378e-05
-0.000146671
2.22667e-05
-0.000153238
1.97e-05
-0.000158983
1.72386e-05
-0.00016394
1.48738e-05
-0.000168147
1.26267e-05
-0.00017161
1.03946e-05
-0.000174354
8.22441e-06
-0.000176377
6.07977e-06
-0.000177711
3.99175e-06
-0.000178362
1.95508e-06
-0.000178288
-2.22665e-07
-0.000177478
-2.43007e-06
-0.000176004
-4.42302e-06
-0.00017385
-6.46e-06
-0.000170963
-8.66067e-06
-0.000167395
-1.07066e-05
-0.000163139
-1.27719e-05
-0.000158072
-1.52082e-05
-0.000152256
-1.74493e-05
-0.000145569
-2.00709e-05
-0.000138074
-2.24933e-05
-0.000129713
-2.50906e-05
-0.000120284
-2.82971e-05
-0.00010987
-3.12472e-05
-3.43798e-05
0.00021218
-5.42611e-05
0.000224471
-4.88932e-05
0.000234994
-4.18866e-05
0.000243532
-3.39704e-05
0.000250041
-2.58455e-05
0.000254316
-1.69577e-05
0.000256358
-8.1333e-06
0.000255924
1.41817e-06
0.000253029
1.12245e-05
0.000247865
2.05469e-05
0.000240497
2.94283e-05
0.000230919
3.82539e-05
0.000219521
4.5452e-05
0.000206326
5.26453e-05
0.000191803
5.79262e-05
0.000176042
6.29496e-05
0.000159161
6.73942e-05
0.000141678
6.97452e-05
0.000123715
7.1761e-05
0.000105403
7.3114e-05
8.718e-05
7.28065e-05
6.90107e-05
7.25761e-05
5.12844e-05
7.08319e-05
3.3917e-05
6.94002e-05
1.73184e-05
6.63315e-05
1.29714e-06
6.39982e-05
-1.3961e-05
6.10059e-05
-2.83775e-05
5.76409e-05
-4.19305e-05
5.41909e-05
-5.46009e-05
5.06519e-05
-6.63644e-05
4.70399e-05
-7.72333e-05
4.34891e-05
-8.7248e-05
4.00635e-05
-9.64031e-05
3.66292e-05
-0.000104752
3.34032e-05
-0.000112296
3.01882e-05
-0.000119071
2.71139e-05
-0.000125119
2.42007e-05
-0.000130445
2.1255e-05
-0.000135065
1.84637e-05
-0.000139009
1.58223e-05
-0.000142303
1.31812e-05
-0.000144963
1.06334e-05
-0.000146971
8.0303e-06
-0.000148353
5.50939e-06
-0.000149098
3.03333e-06
-0.000149163
3.10213e-07
-0.000148509
-2.56517e-06
-0.000147181
-5.34039e-06
-0.000145173
-8.05807e-06
-0.000142365
-1.12835e-05
-0.000138772
-1.4354e-05
-0.000134349
-1.76952e-05
-0.000129001
-2.14402e-05
-0.000122942
-2.43028e-05
-0.000115783
-2.85876e-05
-0.000107667
-3.25029e-05
-9.87801e-05
-3.56148e-05
-8.85927e-05
-4.06959e-05
-7.75843e-05
-4.40915e-05
-6.53445e-05
-4.89749e-05
-5.20462e-05
-5.31549e-05
-3.78722e-05
-5.66677e-05
-2.27003e-05
-6.05589e-05
-6.57371e-06
-6.4551e-05
1.02038e-05
-6.70476e-05
2.77229e-05
-6.99928e-05
4.56874e-05
-7.17844e-05
6.40524e-05
-7.33081e-05
8.26447e-05
-7.43007e-05
0.000101124
-7.38093e-05
0.00011934
-7.27517e-05
0.00013713
-7.10088e-05
0.000154179
-6.81265e-05
0.000170293
-6.43124e-05
0.000185167
-5.93407e-05
0.000198782
-5.42791e-05
0.000210775
-4.78903e-05
0.000220944
-4.0583e-05
0.000229224
-3.28167e-05
0.000235322
-2.4467e-05
0.000239223
-1.56027e-05
0.000240782
-6.19075e-06
0.000240032
2.88096e-06
0.000236928
1.2337e-05
0.000231543
2.14868e-05
0.000223963
3.02441e-05
0.00021431
3.85666e-05
0.000202664
4.63867e-05
0.00018929
5.33523e-05
0.000174386
5.9455e-05
0.000158148
6.47181e-05
0.000140806
6.92833e-05
0.000122627
7.26207e-05
0.00010377
7.52393e-05
8.45404e-05
7.67391e-05
6.50812e-05
7.76881e-05
4.56621e-05
7.7544e-05
2.64533e-05
7.66858e-05
7.63836e-06
7.51413e-05
-1.05626e-05
7.27455e-05
-2.8065e-05
6.9929e-05
-4.46794e-05
6.64381e-05
-6.03434e-05
6.26492e-05