/*--------------------------------*- C++ -*----------------------------------*\
| =========                 |                                                 |
| \\      /  F ield         | OpenFOAM: The Open Source CFD Toolbox           |
|  \\    /   O peration     | Version:  3.0.1                                 |
|   \\  /    A nd           | Web:      www.OpenFOAM.org                      |
|    \\/     M anipulation  |                                                 |
\*---------------------------------------------------------------------------*/
FoamFile
{
    version     2.0;
    format      ascii;
    class       surfaceScalarField;
    location    "91";
    object      phi;
}
// * * * * * * * * * * * * * * * * * * * * * * * * * * * * * * * * * * * * * //

dimensions      [0 3 -1 0 0 0 0];

internalField   nonuniform List<scalar> 
42423
(
9.55045e-05
-1.82224e-05
0.000113891
-1.83869e-05
0.000132031
-1.81397e-05
0.000149589
-1.75582e-05
0.000166572
-1.69832e-05
0.000182557
-1.59847e-05
0.000197423
-1.48664e-05
0.00021083
-1.34065e-05
0.000222534
-1.17045e-05
0.000232282
-9.74776e-06
0.000239872
-7.59012e-06
0.000245224
-5.35172e-06
0.000248141
-2.91772e-06
0.000248579
-4.37368e-07
0.000246549
2.02915e-06
0.000241906
4.64352e-06
0.000234778
7.12815e-06
0.000225475
9.30308e-06
0.000214092
1.13829e-05
0.00020075
1.33413e-05
0.00018584
1.49105e-05
0.000169636
1.62036e-05
0.00015216
1.74767e-05
0.000133871
1.82885e-05
0.000115086
1.87846e-05
9.59702e-05
1.91163e-05
7.67513e-05
1.92189e-05
5.77816e-05
1.89697e-05
3.90153e-05
1.87663e-05
2.07493e-05
1.82661e-05
3.28476e-06
1.74645e-05
-1.36333e-05
1.6918e-05
-2.96753e-05
1.6042e-05
-4.47942e-05
1.51189e-05
-5.89626e-05
1.41684e-05
-7.21522e-05
1.31896e-05
-8.43424e-05
1.21903e-05
-9.55628e-05
1.12203e-05
-0.000105798
1.02349e-05
-0.000115076
9.27809e-06
-0.000123446
8.37031e-06
-0.000130926
7.4797e-06
-0.000137548
6.62237e-06
-0.000143333
5.78504e-06
-0.000148322
4.98895e-06
-0.000152532
4.21006e-06
-0.000156011
3.47904e-06
-0.000158758
2.74645e-06
-0.000160819
2.06174e-06
-0.000162182
1.36268e-06
-0.000162822
6.39526e-07
-0.000162792
-2.94469e-08
-0.000161987
-8.05272e-07
-0.000160524
-1.46265e-06
-0.000158355
-2.16926e-06
-0.000155405
-2.94998e-06
-0.000151725
-3.68058e-06
-0.000147354
-4.37087e-06
-0.000142031
-5.32276e-06
-0.000135994
-6.0372e-06
-0.000128924
-7.0699e-06
-0.000120971
-7.95323e-06
-0.000112143
-8.82738e-06
-0.000102168
-9.97533e-06
-9.12467e-05
-1.09212e-05
-7.94149e-05
-1.18318e-05
-6.64317e-05
-1.29832e-05
-5.25284e-05
-1.39033e-05
-3.76274e-05
-1.4901e-05
-2.17601e-05
-1.58673e-05
-5.0783e-06
-1.66819e-05
1.2147e-05
-1.72253e-05
3.00671e-05
-1.79202e-05
4.83268e-05
-1.82597e-05
6.68533e-05
-1.85265e-05
8.536e-05
-1.85067e-05
0.00010379
-1.843e-05
0.000121878
-1.80878e-05
0.000139404
-1.75257e-05
0.000156117
-1.6713e-05
0.000171846
-1.57293e-05
0.000186304
-1.44585e-05
0.000199295
-1.29905e-05
0.00021066
-1.13651e-05
0.000220145
-9.48565e-06
0.000227628
-7.4826e-06
0.000232964
-5.33625e-06
0.000236063
-3.09836e-06
0.000236896
-8.33191e-07
0.000235516
1.37937e-06
0.000231822
3.69399e-06
0.000225899
5.92373e-06
0.000217795
8.10347e-06
0.000207532
1.02636e-05
0.000195332
1.21991e-05
0.000181345
1.39879e-05
0.000165806
1.55383e-05
0.00014895
1.68566e-05
0.000131069
1.78804e-05
0.000112393
1.86762e-05
9.32446e-05
1.91484e-05
7.38538e-05
1.93908e-05
5.44553e-05
1.93985e-05
3.52908e-05
1.91645e-05
1.65794e-05
1.87113e-05
-1.5822e-06
1.81616e-05
-1.89567e-05
1.73745e-05
-3.54551e-05
1.64984e-05
-5.09978e-05
1.55427e-05
-6.5513e-05
1.45152e-05
-7.89632e-05
1.34502e-05
-9.13532e-05
1.239e-05
-0.00010266
1.13069e-05
-0.000112919
1.02587e-05
-0.000122153
9.234e-06
-0.000130404
8.25078e-06
-0.000137751
7.3473e-06
-0.000144173
6.42178e-06
-0.000149697
5.52488e-06
-0.000154385
4.68728e-06
-0.000158252
3.86739e-06
-0.000161346
3.09434e-06
-0.000163683
2.33615e-06
-0.000165252
1.56958e-06
-0.000166039
7.86492e-07
-0.000166186
1.47529e-07
-0.000165541
-6.45087e-07
-0.000164202
-1.33952e-06
-0.00016211
-2.09121e-06
-0.000159298
-2.81203e-06
-0.0001559
-3.39877e-06
-0.000151739
-4.16063e-06
-0.000146887
-4.85163e-06
-0.000141372
-5.51532e-06
-0.000135111
-6.26152e-06
-0.000128142
-6.96852e-06
-0.000120453
-7.68891e-06
-0.000111949
-8.50441e-06
-0.000102645
-9.30388e-06
-9.26199e-05
-1.0025e-05
-8.16931e-05
-1.09268e-05
-6.9816e-05
-1.18771e-05
-5.72443e-05
-1.25717e-05
-4.37747e-05
-1.34696e-05
-2.93962e-05
-1.43785e-05
-1.43209e-05
-1.50754e-05
1.517e-06
-1.58379e-05
1.80343e-05
-1.65173e-05
3.50909e-05
-1.70566e-05
5.25359e-05
-1.7445e-05
7.02499e-05
-1.77141e-05
8.80695e-05
-1.78196e-05
0.000105681
-1.76112e-05
0.000122956
-1.72757e-05
0.000139633
-1.6677e-05
0.00015544
-1.58068e-05
0.000170137
-1.46967e-05
0.000183491
-1.3354e-05
0.000195158
-1.16678e-05
0.000204982
-9.82376e-06
0.000212756
-7.77369e-06
0.000218223
-5.46754e-06
0.000221292
-3.06882e-06
0.000221889
-5.9669e-07
0.000219991
1.89831e-06
0.000215475
4.51519e-06
0.000208521
6.95454e-06
0.000199159
9.36196e-06
0.000187684
1.14749e-05
0.00017428
1.34041e-05
0.000159213
1.50668e-05
0.000142784
1.64291e-05
0.000125237
1.75469e-05
0.000106894
1.8343e-05
8.80274e-05
1.88667e-05
6.89823e-05
1.90451e-05
4.99391e-05
1.90432e-05
3.11455e-05
1.87936e-05
1.28204e-05
1.83251e-05
-4.89203e-06
1.77124e-05
-2.18625e-05
1.69705e-05
-3.79621e-05
1.60997e-05
-5.3123e-05
1.51608e-05
-6.73073e-05
1.41843e-05
-8.04578e-05
1.31506e-05
-9.25818e-05
1.21239e-05
-0.000103692
1.111e-05
-0.000113772
1.00805e-05
-0.000122856
9.08422e-06
-0.000130963
8.10624e-06
-0.000138186
7.22373e-06
-0.000144525
6.33815e-06
-0.000150063
5.53808e-06
-0.000154899
4.83659e-06
-0.000159113
4.21371e-06
-0.000162693
3.57964e-06
-0.000165669
2.97657e-06
-0.000167982
2.31333e-06
-0.000169612
1.62918e-06
-0.000170575
9.63175e-07
-0.000170937
3.61983e-07
-0.000170625
-3.12123e-07
-0.000169732
-8.93179e-07
-0.000168188
-1.54325e-06
-0.000166041
-2.14745e-06
-0.000163284
-2.75732e-06
-0.000159876
-3.40796e-06
-0.000155955
-3.92029e-06
-0.000151446
-4.50886e-06
-0.000146287
-5.15974e-06
-0.000140687
-5.59997e-06
-0.000134296
-6.39117e-06
-0.000127098
-7.19709e-06
-0.000119196
-7.90253e-06
-0.000110332
-8.86423e-06
-0.000100543
-9.78888e-06
-8.98459e-05
-1.06969e-05
-7.82127e-05
-1.16332e-05
-6.57371e-05
-1.24756e-05
-5.23654e-05
-1.33717e-05
-3.81466e-05
-1.42189e-05
-2.31681e-05
-1.49785e-05
-7.4874e-06
-1.56807e-05
8.82201e-06
-1.63094e-05
2.56523e-05
-1.68303e-05
4.28501e-05
-1.71978e-05
6.02616e-05
-1.74115e-05
7.76778e-05
-1.74162e-05
9.48628e-05
-1.7185e-05
0.000111604
-1.6741e-05
0.000127625
-1.60211e-05
0.000142649
-1.50237e-05
0.000156398
-1.375e-05
0.000168626
-1.22276e-05
0.00017901
-1.03839e-05
0.000187396
-8.38643e-06
0.000193516
-6.11966e-06
0.000197233
-3.71702e-06
0.000198446
-1.2129e-06
0.000197183
1.26305e-06
0.00019334
3.84249e-06
0.000187069
6.27108e-06
0.000178544
8.52526e-06
0.000167932
1.06118e-05
0.000155504
1.24278e-05
0.000141478
1.40268e-05
0.000126169
1.53087e-05
0.000109787
1.63822e-05
9.26361e-05
1.71506e-05
7.49598e-05
1.76762e-05
5.69711e-05
1.79888e-05
3.88991e-05
1.8072e-05
2.09582e-05
1.79409e-05
3.27691e-06
1.76813e-05
-1.39398e-05
1.72167e-05
-3.05708e-05
1.6631e-05
-4.65072e-05
1.59364e-05
-6.16559e-05
1.51487e-05
-7.59767e-05
1.43208e-05
-8.94061e-05
1.34294e-05
-0.000101941
1.25351e-05
-0.000113553
1.1612e-05
-0.000124224
1.0671e-05
-0.000134026
9.80175e-06
-0.000142893
8.86677e-06
-0.000150879
7.98642e-06
-0.00015808
7.20048e-06
-0.000164462
6.38291e-06
-0.000170034
5.57202e-06
-0.000174786
4.7515e-06
-0.000178738
3.95252e-06
-0.000181858
3.11904e-06
-0.00018423
2.37233e-06
-0.000185845
1.61491e-06
-0.000186796
9.51146e-07
-0.00018712
3.24092e-07
-0.000186687
-4.32626e-07
-0.000185589
-1.0986e-06
-0.000183724
-1.86466e-06
-0.000180963
-2.76085e-06
-0.000177382
-3.58134e-06
-0.000172661
-4.7212e-06
-0.000166876
-5.78514e-06
-0.00016004
-6.83513e-06
-0.000152131
-7.9091e-06
-0.000143433
-8.69826e-06
-0.000134148
-9.28544e-06
-0.000123995
-1.01529e-05
-0.000113246
-1.07488e-05
-0.000101613
-1.16329e-05
-8.91547e-05
-1.24585e-05
-7.58802e-05
-1.32745e-05
-6.15805e-05
-1.42997e-05
-4.62842e-05
-1.52963e-05
-3.02738e-05
-1.60105e-05
-1.32717e-05
-1.70022e-05
4.57885e-06
-1.78505e-05
2.30578e-05
-1.84789e-05
4.21736e-05
-1.91158e-05
6.14853e-05
-1.93117e-05
8.09327e-05
-1.94474e-05
0.000100201
-1.92687e-05
0.000118873
-1.86715e-05
0.00013683
-1.79572e-05
0.000153762
-1.69321e-05
0.000169281
-1.55185e-05
0.000183264
-1.39833e-05
0.000195372
-1.21078e-05
0.000205463
-1.00909e-05
0.000213346
-7.88303e-06
0.000218799
-5.45282e-06
0.000221752
-2.9531e-06
0.000222092
-3.40732e-07
0.000220131
1.96171e-06
0.000215939
4.19112e-06
0.000209461
6.4789e-06
0.000200936
8.52415e-06
0.000190361
1.05756e-05
0.000177825
1.25355e-05
0.000163662
1.4163e-05
0.000148155
1.55077e-05
0.00013141
1.67449e-05
0.000113768
1.76421e-05
9.55124e-05
1.82551e-05
7.6939e-05
1.85734e-05
5.81558e-05
1.87831e-05
3.93924e-05
1.87634e-05
2.08966e-05
1.84957e-05
2.91247e-06
1.79841e-05
-1.46718e-05
1.75843e-05
-3.15075e-05
1.68357e-05
-4.75878e-05
1.60803e-05
-6.27953e-05
1.52074e-05
-7.70667e-05
1.42715e-05
-9.03921e-05
1.33254e-05
-0.000102729
1.23368e-05
-0.000114098
1.13689e-05
-0.000124488
1.03897e-05
-0.000133897
9.40907e-06
-0.000142371
8.47438e-06
-0.000149912
7.5406e-06
-0.000156542
6.63039e-06
-0.000162298
5.75653e-06
-0.000167217
4.91804e-06
-0.00017132
4.10338e-06
-0.000174627
3.30709e-06
-0.000177156
2.52925e-06
-0.00017892
1.7634e-06
-0.000179938
1.01852e-06
-0.00018023
2.91689e-07
-0.000179717
-5.12731e-07
-0.000178425
-1.29216e-06
-0.000176374
-2.0512e-06
-0.000173563
-2.81066e-06
-0.000169947
-3.61619e-06
-0.000165549
-4.39747e-06
-5.22538e-06
9.5505e-05
-3.64521e-05
0.000113902
-3.67843e-05
0.000132053
-3.62907e-05
0.000149629
-3.51338e-05
0.000166632
-3.39872e-05
0.000182627
-3.19794e-05
0.00019751
-2.97497e-05
0.000210948
-2.68442e-05
0.000222656
-2.34124e-05
0.000232408
-1.94998e-05
0.000240027
-1.52094e-05
0.000245374
-1.0699e-05
0.000248278
-5.82116e-06
0.000248713
-8.73131e-07
0.000246676
4.06677e-06
0.000242028
9.29103e-06
0.000234892
1.42638e-05
0.000225584
1.86115e-05
0.000214191
2.27753e-05
0.000200842
2.6691e-05
0.000185917
2.98355e-05
0.000169703
3.24171e-05
0.000152206
3.49739e-05
0.000133908
3.65868e-05
0.000115113
3.75786e-05
9.59853e-05
3.82444e-05
7.6754e-05
3.84503e-05
5.77688e-05
3.79548e-05
3.90033e-05
3.75318e-05
2.07268e-05
3.65425e-05
3.25322e-06
3.4938e-05
-1.36634e-05
3.38347e-05
-2.97087e-05
3.20872e-05
-4.48318e-05
3.02421e-05
-5.90044e-05
2.8341e-05
-7.2197e-05
2.63822e-05
-8.43884e-05
2.43816e-05
-9.56102e-05
2.24421e-05
-0.000105851
2.04756e-05
-0.000115126
1.85536e-05
-0.000123498
1.67417e-05
-0.000130975
1.49571e-05
-0.000137595
1.32418e-05
-0.000143381
1.15718e-05
-0.000148371
9.97822e-06
-0.000152584
8.42341e-06
-0.000156061
6.95631e-06
-0.000158809
5.49438e-06
-0.000160873
4.12561e-06
-0.000162233
2.72301e-06
-0.000162877
1.28338e-06
-0.000162849
-5.7476e-08
-0.000162041
-1.61387e-06
-0.000160581
-2.92266e-06
-0.000158411
-4.33864e-06
-0.000155466
-5.89469e-06
-0.000151784
-7.36309e-06
-0.000147421
-8.73364e-06
-0.000142095
-1.06485e-05
-0.000136066
-1.2067e-05
-0.000128994
-1.41412e-05
-0.000121044
-1.59035e-05
-0.000112222
-1.76492e-05
-0.000102242
-1.99554e-05
-9.13152e-05
-2.18483e-05
-7.94779e-05
-2.36692e-05
-6.64957e-05
-2.59654e-05
-5.25932e-05
-2.78058e-05
-3.76861e-05
-2.98082e-05
-2.18084e-05
-3.17451e-05
-5.1379e-06
-3.33524e-05
1.21159e-05
-3.44792e-05
3.00405e-05
-3.58448e-05
4.83131e-05
-3.65323e-05
6.684e-05
-3.70534e-05
8.53645e-05
-3.70313e-05
0.000103799
-3.68651e-05
0.000121905
-3.61937e-05
0.00013944
-3.50602e-05
0.000156166
-3.34392e-05
0.000171913
-3.14761e-05
0.000186388
-2.89339e-05
0.00019939
-2.59924e-05
0.000210767
-2.27419e-05
0.000220267
-1.89858e-05
0.000227759
-1.49753e-05
0.000233109
-1.0686e-05
0.000236215
-6.20483e-06
0.000237061
-1.67859e-06
0.000235679
2.76115e-06
0.00023199
7.38347e-06
0.000226073
1.18406e-05
0.000217974
1.62017e-05
0.00020771
2.05285e-05
0.000195511
2.43971e-05
0.000181518
2.79818e-05
0.000165981
3.10748e-05
0.000149098
3.37398e-05
0.000131209
3.57691e-05
0.000112522
3.73634e-05
9.33685e-05
3.83018e-05
7.39636e-05
3.87956e-05
5.45425e-05
3.88197e-05
3.53556e-05
3.83515e-05
1.66318e-05
3.74351e-05
-1.54582e-06
3.63393e-05
-1.89307e-05
3.47594e-05
-3.5438e-05
3.30058e-05
-5.10012e-05
3.11059e-05
-6.55172e-05
2.90311e-05
-7.89728e-05
2.69058e-05
-9.13688e-05
2.47861e-05
-0.000102686
2.2624e-05
-0.000112955
2.05274e-05
-0.000122191
1.84707e-05
-0.000130447
1.65067e-05
-0.000137802
1.47021e-05
-0.000144236
1.2856e-05
-0.000149774
1.10629e-05
-0.000154469
9.38149e-06
-0.000158345
7.74402e-06
-0.000161454
6.20279e-06
-0.000163797
4.67946e-06
-0.000165384
3.15673e-06
-0.000166179
1.58083e-06
-0.000166335
3.03566e-07
-0.000165708
-1.27215e-06
-0.000164376
-2.67081e-06
-0.000162302
-4.165e-06
-0.000159497
-5.61796e-06
-0.000156108
-6.78749e-06
-0.000151967
-8.30114e-06
-0.000147063
-9.75631e-06
-0.000141615
-1.09628e-05
-0.000135372
-1.25044e-05
-0.000128366
-1.39751e-05
-0.000120732
-1.53224e-05
-0.000112248
-1.69884e-05
-0.000102943
-1.86089e-05
-9.29382e-05
-2.00301e-05
-8.20066e-05
-2.18585e-05
-7.02202e-05
-2.36635e-05
-5.75594e-05
-2.52325e-05
-4.40778e-05
-2.69513e-05
-2.97299e-05
-2.87265e-05
-1.46277e-05
-3.01775e-05
1.22615e-06
-3.16918e-05
1.77568e-05
-3.3048e-05
3.48106e-05
-3.41104e-05
5.22939e-05
-3.49283e-05
7.00238e-05
-3.54441e-05
8.78548e-05
-3.56506e-05
0.000105497
-3.52535e-05
0.000122802
-3.45806e-05
0.000139498
-3.33734e-05
0.000155332
-3.16405e-05
0.00017006
-2.94248e-05
0.000183424
-2.6718e-05
0.000195156
-2.33995e-05
0.000204989
-1.96569e-05
0.00021276
-1.55446e-05
0.00021827
-1.09777e-05
0.000221361
-6.16052e-06
0.000221979
-1.21429e-06
0.000220069
3.80854e-06
0.000215554
9.02994e-06
0.000208575
1.39331e-05
0.000199245
1.86926e-05
0.000187787
2.29327e-05
0.000174361
2.68305e-05
0.000159284
3.01428e-05
0.000142838
3.28756e-05
0.000125286
3.50984e-05
0.00010694
3.66892e-05
8.80614e-05
3.77454e-05
6.90019e-05
3.81047e-05
4.99463e-05
3.80988e-05
3.11427e-05
3.75972e-05
1.28041e-05
3.66637e-05
-4.92248e-06
3.5439e-05
-2.18991e-05
3.39471e-05
-3.79998e-05
3.22003e-05
-5.31697e-05
3.03308e-05
-6.73687e-05
2.83833e-05
-8.053e-05
2.63119e-05
-9.26603e-05
2.42542e-05
-0.000103787
2.22365e-05
-0.000113875
2.01687e-05
-0.000122972
1.81815e-05
-0.000131093
1.62268e-05
-0.000138317
1.44483e-05
-0.000144672
1.2693e-05
-0.00015022
1.10855e-05
-0.000155034
9.6509e-06
-0.000159289
8.46874e-06
-0.000162892
7.18234e-06
-0.000165868
5.9523e-06
-0.000168188
4.63392e-06
-0.000169834
3.27513e-06
-0.000170818
1.9469e-06
-0.000171182
7.26632e-07
-0.000170891
-6.03653e-07
-0.000169995
-1.78867e-06
-0.000168467
-3.07171e-06
-0.000166304
-4.31012e-06
-0.000163574
-5.48797e-06
-0.000160193
-6.78853e-06
-0.000156261
-7.85248e-06
-0.000151762
-9.00795e-06
-0.000146678
-1.02431e-05
-0.000141008
-1.127e-05
-0.000134624
-1.27759e-05
-0.000127419
-1.44021e-05
-0.000119518
-1.58032e-05
-0.000110583
-1.77994e-05
-0.000100861
-1.9511e-05
-9.01261e-05
-2.14316e-05
-7.8513e-05
-2.32463e-05
-6.60219e-05
-2.49667e-05
-5.26231e-05
-2.67705e-05
-3.84219e-05
-2.84201e-05
-2.34335e-05
-2.9967e-05
-7.72784e-06
-3.13864e-05
8.60756e-06
-3.26449e-05
2.54586e-05
-3.36814e-05
4.26785e-05
-3.44177e-05
6.01128e-05
-3.4846e-05
7.75384e-05
-3.48418e-05
9.47567e-05
-3.44033e-05
0.000111524
-3.35086e-05
0.000127571
-3.2068e-05
0.000142621
-3.00731e-05
0.000156392
-2.7521e-05
0.000168648
-2.44841e-05
0.000179056
-2.07924e-05
0.000187448
-1.67777e-05
0.000193583
-1.22553e-05
0.000197329
-7.46324e-06
0.000198563
-2.44615e-06
0.000197285
2.54075e-06
0.000193441
7.68638e-06
0.000187172
1.25398e-05
0.000178645
1.70529e-05
0.000168016
2.12406e-05
0.000155569
2.48742e-05
0.000141523
2.80732e-05
0.00012619
3.06417e-05
0.000109798
3.27742e-05
9.26286e-05
3.432e-05
7.4936e-05
3.53689e-05
5.69334e-05
3.59914e-05
3.88452e-05
3.61601e-05
2.0897e-05
3.58891e-05
3.21317e-06
3.53651e-05
-1.40105e-05
3.44404e-05
-3.06484e-05
3.32689e-05
-4.65948e-05
3.18828e-05
-6.17492e-05
3.03031e-05
-7.60638e-05
2.86354e-05
-8.94947e-05
2.68603e-05
-0.00010203
2.50699e-05
-0.000113641
2.32237e-05
-0.000124316
2.13454e-05
-0.00013411
1.95965e-05
-0.000142977
1.77336e-05
-0.000150964
1.59728e-05
-0.000158168
1.44049e-05
-0.000164547
1.27618e-05
-0.000170121
1.11466e-05
-0.000174872
9.50164e-06
-0.000178823
7.90435e-06
-0.000181945
6.24052e-06
-0.000184319
4.74637e-06
-0.000185945
3.24117e-06
-0.000186887
1.89297e-06
-0.0001872
6.36603e-07
-0.000186774
-8.57798e-07
-0.000185674
-2.19901e-06
-0.000183811
-3.72718e-06
-0.000181055
-5.51687e-06
-0.000177479
-7.15745e-06
-0.00017276
-9.4403e-06
-0.000166974
-1.15718e-05
-0.000160133
-1.36757e-05
-0.000152218
-1.58244e-05
-0.000143515
-1.74013e-05
-0.000134222
-1.85784e-05
-0.000124069
-2.03053e-05
-0.000113321
-2.14976e-05
-0.000101683
-2.32705e-05
-8.9226e-05
-2.49155e-05
-7.59535e-05
-2.6547e-05
-6.16516e-05
-2.86017e-05
-4.63431e-05
-3.06047e-05
-3.03289e-05
-3.20248e-05
-1.33222e-05
-3.40089e-05
4.53619e-06
-3.57089e-05
2.30208e-05
-3.69635e-05
4.21434e-05
-3.82385e-05
6.1463e-05
-3.86313e-05
8.09177e-05
-3.89022e-05
0.000100197
-3.85484e-05
0.000118883
-3.73576e-05
0.000136848
-3.59214e-05
0.000153787
-3.38719e-05
0.000169319
-3.10499e-05
0.000183295
-2.79601e-05
0.000195393
-2.42053e-05
0.000205503
-2.02015e-05
0.000213413
-1.57928e-05
0.000218876
-1.09155e-05
0.000221835
-5.91237e-06
0.000222176
-6.82205e-07
0.000220217
3.92163e-06
0.000216041
8.36621e-06
0.000209567
1.29536e-05
0.000201032
1.70587e-05
0.000190451
2.11564e-05
0.000177903
2.50835e-05
0.000163732
2.8334e-05
0.000148214
3.1026e-05
0.000131459
3.35e-05
0.000113805
3.52956e-05
9.55373e-05
3.65231e-05
7.6952e-05
3.71588e-05
5.8162e-05
3.75731e-05
3.93886e-05
3.75368e-05
2.08823e-05
3.7002e-05
2.89193e-06
3.59745e-05
-1.46907e-05
3.5167e-05
-3.15311e-05
3.3676e-05
-4.76125e-05
3.21617e-05
-6.2824e-05
3.0419e-05
-7.70973e-05
2.85448e-05
-9.04265e-05
2.66545e-05
-0.000102764
2.46746e-05
-0.000114134
2.27389e-05
-0.000124524
2.0779e-05
-0.000133932
1.88179e-05
-0.000142406
1.69481e-05
-0.000149948
1.50824e-05
-0.00015658
1.32626e-05
-0.000162336
1.15124e-05
-0.00016725
9.83215e-06
-0.000171353
8.20593e-06
-0.000174663
6.61715e-06
-0.000177192
5.05877e-06
-0.000178957
3.52852e-06
-0.000179975
2.03659e-06
-0.000180264
5.80449e-07
-0.000179751
-1.02558e-06
-0.000178458
-2.58535e-06
-0.000176407
-4.10276e-06
-0.000173596
-5.62134e-06
-0.00016998
-7.23236e-06
-0.000165582
-8.79492e-06
-1.0451e-05
9.55092e-05
-5.46996e-05
0.00011393
-5.52054e-05
0.000132106
-5.44664e-05
0.000149711
-5.27394e-05
0.000166741
-5.10173e-05
0.00018277
-4.80085e-05
0.00019769
-4.46694e-05
0.000211143
-4.02969e-05
0.000222881
-3.51513e-05
0.000232663
-2.92816e-05
0.000240281
-2.28271e-05
0.000245642
-1.60599e-05
0.000248562
-8.74197e-06
0.000248966
-1.27693e-06
0.000246877
6.15583e-06
0.00024222
1.39485e-05
0.000235065
2.14182e-05
0.000225746
2.79308e-05
0.000214335
3.41859e-05
0.000200971
4.00548e-05
0.000186022
4.47847e-05
0.000169793
4.86464e-05
0.000152263
5.25039e-05
0.00013395
5.48996e-05
0.000115141
5.63875e-05
9.59934e-05
5.73918e-05
7.67413e-05
5.77023e-05
5.77278e-05
5.69683e-05
3.89668e-05
5.62927e-05
2.06745e-05
5.48348e-05
3.18154e-06
5.2431e-05
-1.37361e-05
5.07523e-05
-2.97864e-05
4.81375e-05
-4.49132e-05
4.53688e-05
-5.90871e-05
4.25149e-05
-7.22828e-05
3.95779e-05
-8.44721e-05
3.65709e-05
-9.56933e-05
3.36632e-05
-0.000105929
3.07111e-05
-0.00011521
2.78345e-05
-0.000123578
2.51097e-05
-0.000131053
2.24325e-05
-0.000137672
1.98609e-05
-0.000143459
1.73584e-05
-0.000148444
1.49636e-05
-0.00015266
1.26394e-05
-0.000156132
1.0428e-05
-0.000158877
8.23928e-06
-0.000160942
6.19069e-06
-0.000162299
4.07975e-06
-0.000162937
1.92214e-06
-0.000162907
-8.80895e-08
-0.000162095
-2.4252e-06
-0.000160638
-4.38013e-06
-0.000158467
-6.50914e-06
-0.000155528
-8.83423e-06
-0.000151844
-1.10472e-05
-0.000147489
-1.30888e-05
-0.000142161
-1.59767e-05
-0.000136139
-1.80883e-05
-0.000129067
-2.12131e-05
-0.000121124
-2.3847e-05
-0.000112298
-2.64751e-05
-0.000102326
-2.99272e-05
-9.13911e-05
-3.27836e-05
-7.95514e-05
-3.55089e-05
-6.65693e-05
-3.89475e-05
-5.26685e-05
-4.17067e-05
-3.77591e-05
-4.47176e-05
-2.18659e-05
-4.76383e-05
-5.20951e-06
-5.00089e-05
1.20714e-05
-5.17601e-05
3.00071e-05
-5.37805e-05
4.82958e-05
-5.48211e-05
6.68156e-05
-5.55733e-05
8.53739e-05
-5.55896e-05
0.000103807
-5.52985e-05
0.000121946
-5.43328e-05
0.000139489
-5.26029e-05
0.000156249
-5.01994e-05
0.000172015
-4.72423e-05
0.000186506
-4.3425e-05
0.000199526
-3.90124e-05
0.000210918
-3.41341e-05
0.000220438
-2.8506e-05
0.000227944
-2.24809e-05
0.000233309
-1.60513e-05
0.000236416
-9.31152e-06
0.000237254
-2.51677e-06
0.000235852
4.16296e-06
0.000232159
1.10768e-05
0.000226238
1.7761e-05
0.000218141
2.42996e-05
0.000207866
3.08032e-05
0.000195647
3.66162e-05
0.000181638
4.19906e-05
0.00016607
4.66431e-05
0.000149168
5.06419e-05
0.000131241
5.36958e-05
0.000112519
5.60852e-05
9.33326e-05
5.74885e-05
7.38994e-05
5.82288e-05
5.44628e-05
5.82562e-05
3.523e-05
5.75843e-05
1.64693e-05
5.61959e-05
-1.70926e-06
5.45178e-05
-1.91288e-05
5.21789e-05
-3.56509e-05
4.95279e-05
-5.12093e-05
4.66643e-05
-6.57448e-05
4.35666e-05
-7.92125e-05
4.03735e-05
-9.16149e-05
3.71885e-05
-0.000102935
3.39443e-05
-0.000113199
3.07912e-05
-0.000122454
2.77257e-05
-0.000130688
2.47404e-05
-0.00013805
2.20648e-05
-0.000144485
1.92911e-05
-0.000150027
1.66047e-05
-0.000154717
1.40714e-05
-0.000158607
1.16341e-05
-0.000161721
9.31681e-06
-0.000164072
7.02979e-06
-0.000165645
4.73061e-06
-0.000166502
2.43694e-06
-0.0001666
4.02048e-07
-0.000165976
-1.89576e-06
-0.000164633
-4.01404e-06
-0.000162565
-6.23357e-06
-0.000159812
-8.37089e-06
-0.000156371
-1.02286e-05
-0.000152246
-1.2426e-05
-0.00014734
-1.46622e-05
-0.0001419
-1.64031e-05
-0.000135666
-1.87378e-05
-0.000128632
-2.10097e-05
-0.000121046
-2.29079e-05
-0.000112583
-2.54518e-05
-0.000103358
-2.78339e-05
-9.32697e-05
-3.01183e-05
-8.2354e-05
-3.27743e-05
-7.0582e-05
-3.54354e-05
-5.79099e-05
-3.79047e-05
-4.43787e-05
-4.04824e-05
-3.00748e-05
-4.30305e-05
-1.49595e-05
-4.52928e-05
9.18322e-07
-4.75697e-05
1.74445e-05
-4.95742e-05
3.45272e-05
-5.11932e-05
5.20211e-05
-5.24222e-05
6.97719e-05
-5.3195e-05
8.75911e-05
-5.34698e-05
0.000105272
-5.29348e-05
0.000122609
-5.1917e-05
0.000139334
-5.00984e-05
0.000155199
-4.75059e-05
0.000169978
-4.42043e-05
0.000183331
-4.00707e-05
0.000195109
-3.51775e-05
0.00020497
-2.95174e-05
0.000212745
-2.33205e-05
0.000218306
-1.65381e-05
0.000221397
-9.25137e-06
0.000222004
-1.82144e-06
0.000220079
5.73351e-06
0.000215558
1.3551e-05
0.000208555
2.09352e-05
0.000199225
2.80225e-05
0.000187752
3.44062e-05
0.000174321
4.02613e-05
0.000159258
4.5206e-05
0.000142737
4.93964e-05
0.000125152
5.26834e-05
0.000106783
5.50579e-05
8.78848e-05
5.6644e-05
6.88046e-05
5.71849e-05
4.97329e-05
5.71705e-05
3.09216e-05
5.64084e-05
1.25569e-05
5.50283e-05
-5.17967e-06
5.31756e-05
-2.21662e-05
5.09336e-05
-3.82766e-05
4.83108e-05
-5.34535e-05
4.55077e-05
-6.76571e-05
4.25869e-05
-8.08213e-05
3.94761e-05
-9.29112e-05
3.63441e-05
-0.000104081
3.34066e-05
-0.000114173
3.02602e-05
-0.000123276
2.72851e-05
-0.000131409
2.43593e-05
-0.000138569
2.16083e-05
-0.000144973
1.90972e-05
-0.000150519
1.66317e-05
-0.000155323
1.4455e-05
-0.000159583
1.27285e-05
-0.000163188
1.07872e-05
-0.000166166
8.9306e-06
-0.000168492
6.95991e-06
-0.000170143
4.92557e-06
-0.000171133
2.93757e-06
-0.00017149
1.08298e-06
-0.000171211
-8.82065e-07
-0.000170307
-2.69285e-06
-0.000168794
-4.58498e-06
-0.000166572
-6.5316e-06
-0.000163883
-8.1775e-06
-0.000160526
-1.01452e-05
-0.000156584
-1.17946e-05
-0.000152101
-1.34915e-05
-0.000147038
-1.53059e-05
-0.000141347
-1.69611e-05
-0.000134977
-1.91453e-05
-0.000127854
-2.15257e-05
-0.000119872
-2.37846e-05
-0.000110944
-2.6728e-05
-0.000101219
-2.92359e-05
-9.04174e-05
-3.2233e-05
-7.88719e-05
-3.47919e-05
-6.63634e-05
-3.74752e-05
-5.28801e-05
-4.02539e-05
-3.874e-05
-4.25602e-05
-2.37401e-05
-4.49669e-05
-8.0136e-06
-4.71129e-05
8.36318e-06
-4.90217e-05
2.52155e-05
-5.05338e-05
4.2441e-05
-5.16432e-05
5.99137e-05
-5.23187e-05
7.73415e-05
-5.22697e-05
9.45914e-05
-5.16532e-05
0.000111378
-5.02957e-05
0.000127456
-4.81456e-05
0.000142527
-4.51445e-05
0.000156338
-4.13319e-05
0.000168593
-3.67388e-05
0.000179037
-3.12367e-05
0.000187445
-2.5186e-05
0.000193608
-1.84177e-05
0.000197367
-1.12226e-05
0.000198609
-3.68782e-06
0.000197307
3.84284e-06
0.000193454
1.15387e-05
0.000187182
1.88122e-05
0.000178641
2.55941e-05
0.000167982
3.18988e-05
0.000155503
3.7354e-05
0.000141436
4.21399e-05
0.00012607
4.60075e-05
0.000109664
4.91802e-05
9.24825e-05
5.15016e-05
7.47741e-05
5.30773e-05
5.67765e-05
5.39889e-05
3.8653e-05
5.42836e-05
2.06928e-05
5.38493e-05
3.03044e-06
5.30275e-05
-1.42259e-05
5.16967e-05
-3.086e-05
4.99031e-05
-4.67979e-05
4.78207e-05
-6.19503e-05
4.54555e-05
-7.62551e-05
4.29402e-05
-8.96817e-05
4.02869e-05
-0.000102205
3.75934e-05
-0.000113798
3.48167e-05
-0.000124471
3.20186e-05
-0.000134254
2.93792e-05
-0.000143115
2.65942e-05
-0.000151086
2.39444e-05
-0.000158282
2.16005e-05
-0.000164655
1.91353e-05
-0.000170249
1.67405e-05
-0.000175001
1.4253e-05
-0.000178941
1.18448e-05
-0.000182074
9.3729e-06
-0.000184458
7.13071e-06
-0.000186085
4.86863e-06
-0.000187009
2.81626e-06
-0.00018729
9.17912e-07
-0.000186864
-1.2842e-06
-0.000185768
-3.29464e-06
-0.000183909
-5.58616e-06
-0.000181159
-8.26698e-06
-0.000177596
-1.07207e-05
-0.000172883
-1.41525e-05
-0.000167095
-1.73606e-05
-0.000160246
-2.05245e-05
-0.000152315
-2.37546e-05
-0.000143604
-2.6113e-05
-0.000134304
-2.78787e-05
-0.000124151
-3.04576e-05
-0.000113405
-3.22445e-05
-0.000101768
-3.49074e-05
-8.93127e-05
-3.73705e-05
-7.60419e-05
-3.98178e-05
-6.17388e-05
-4.29048e-05
-4.64152e-05
-4.59284e-05
-3.03953e-05
-4.80447e-05
-1.33844e-05
-5.10199e-05
4.47935e-06
-5.35727e-05
2.29779e-05
-5.54622e-05
4.21176e-05
-5.73783e-05
6.14543e-05
-5.7968e-05
8.09278e-05
-5.83758e-05
0.000100227
-5.78477e-05
0.000118929
-5.60593e-05
0.000136908
-5.3901e-05
0.000153858
-5.08215e-05
0.00016939
-4.65819e-05
0.000183376
-4.19459e-05
0.000195485
-3.63146e-05
0.000205588
-3.03047e-05
0.000213473
-2.36779e-05
0.000218899
-1.63413e-05
0.000221864
-8.87743e-06
0.00022226
-1.07834e-06
0.000220353
5.82854e-06
0.000216214
1.25051e-05
0.000209743
1.94246e-05
0.000201197
2.56048e-05
0.000190599
3.17544e-05
0.000178026
3.76558e-05
0.000163843
4.25171e-05
0.000148304
4.65649e-05
0.000131531
5.02734e-05
0.000113861
5.2965e-05
9.55664e-05
5.4818e-05
7.69589e-05
5.57662e-05
5.81584e-05
5.63737e-05
3.93688e-05
5.63264e-05
2.08464e-05
5.55244e-05
2.842e-06
5.39789e-05
-1.47443e-05
5.27532e-05
-3.15898e-05
5.05216e-05
-4.76771e-05
4.8249e-05
-6.28922e-05
4.5634e-05
-7.71681e-05
4.28207e-05
-9.04972e-05
3.99836e-05
-0.000102836
3.70135e-05
-0.000114205
3.41081e-05
-0.000124596
3.11698e-05
-0.000134002
2.82242e-05
-0.000142475
2.54203e-05
-0.000150014
2.26219e-05
-0.000156644
1.98921e-05
-0.000162398
1.72667e-05
-0.00016731
1.47439e-05
-0.000171407
1.23029e-05
-0.000174712
9.92214e-06
-0.00017724
7.587e-06
-0.00017901
5.29867e-06
-0.000180032
3.05828e-06
-0.000180319
8.67641e-07
-0.000179807
-1.53741e-06
-0.000178515
-3.87752e-06
-0.000176464
-6.1532e-06
-0.000173655
-8.4309e-06
-0.00017004
-1.08468e-05
-0.000165645
-1.31902e-05
-1.56744e-05
9.55139e-05
-7.29721e-05
0.000113971
-7.36624e-05
0.000132185
-7.26809e-05
0.000149835
-7.03896e-05
0.000166913
-6.80956e-05
0.000182988
-6.40835e-05
0.000197955
-5.9636e-05
0.000211453
-5.37954e-05
0.000223231
-4.69293e-05
0.000233043
-3.90931e-05
0.000240685
-3.04699e-05
0.000246062
-2.14366e-05
0.000248978
-1.16584e-05
0.000249339
-1.6379e-06
0.000247186
8.30901e-06
0.000242512
1.86223e-05
0.000235325
2.86053e-05
0.000225989
3.7267e-05
0.000214551
4.56237e-05
0.000201166
5.344e-05
0.000186181
5.97699e-05
0.000169927
6.48995e-05
0.000152351
7.00802e-05
0.000134014
7.32373e-05
0.000115182
7.52194e-05
9.60054e-05
7.6568e-05
7.67234e-05
7.69842e-05
5.76707e-05
7.6021e-05
3.89122e-05
7.50512e-05
2.05981e-05
7.31489e-05
3.07617e-06
6.9953e-05
-1.38452e-05
6.76737e-05
-2.99029e-05
6.41953e-05
-4.50368e-05
6.05026e-05
-5.92148e-05
5.66929e-05
-7.24151e-05
5.27783e-05
-8.4602e-05
4.87578e-05
-9.58212e-05
4.48824e-05
-0.000106055
4.09453e-05
-0.000115345
3.71245e-05
-0.000123703
3.34671e-05
-0.000131175
2.99042e-05
-0.00013779
2.6476e-05
-0.000143575
2.3144e-05
-0.000148558
1.99464e-05
-0.000152771
1.68527e-05
-0.000156243
1.39e-05
-0.000158984
1.098e-05
-0.000161046
8.25294e-06
-0.000162401
5.43475e-06
-0.000163035
2.55581e-06
-0.000162997
-1.25739e-07
-0.000162179
-3.24393e-06
-0.000160725
-5.83357e-06
-0.000158553
-8.68115e-06
-0.000155622
-1.17659e-05
-0.000151935
-1.47335e-05
-0.000147592
-1.74322e-05
-0.00014226
-2.13085e-05
-0.000136252
-2.4096e-05
-0.000129178
-2.82871e-05
-0.000121244
-3.17811e-05
-0.000112401
-3.5318e-05
-0.000102462
-3.98666e-05
-9.15089e-05
-4.37368e-05
-7.96578e-05
-4.73601e-05
-6.66796e-05
-5.19257e-05
-5.27818e-05
-5.56046e-05
-3.7869e-05
-5.96304e-05
-2.19487e-05
-6.35587e-05
-5.31172e-06
-6.66459e-05
1.20026e-05
-6.90745e-05
2.99587e-05
-7.17366e-05
4.82637e-05
-7.31261e-05
6.67998e-05
-7.41094e-05
8.53852e-05
-7.41752e-05
0.000103829
-7.37428e-05
0.000122011
-7.25147e-05
0.000139578
-7.01692e-05
0.000156375
-6.69971e-05
0.00017217
-6.30367e-05
0.000186688
-5.79433e-05
0.000199728
-5.20528e-05
0.000211143
-4.55485e-05
0.000220691
-3.80547e-05
0.00022821
-2.99996e-05
0.000233572
-2.14136e-05
0.000236693
-1.24323e-05
0.000237524
-3.34766e-06
0.000236085
5.60179e-06
0.00023238
1.47823e-05
0.000226449
2.36919e-05
0.000218307
3.24411e-05
0.000208051
4.10589e-05
0.000195793
4.88747e-05
0.00018175
5.60336e-05
0.000166128
6.22649e-05
0.000149188
6.75817e-05
0.000131217
7.16667e-05
0.000112448
7.48542e-05
9.32009e-05
7.67356e-05
7.37139e-05
7.77158e-05
5.42278e-05
7.77423e-05
3.49567e-05
7.68554e-05
1.61319e-05
7.50207e-05
-2.0477e-06