/*--------------------------------*- C++ -*----------------------------------*\
| =========                 |                                                 |
| \\      /  F ield         | OpenFOAM: The Open Source CFD Toolbox           |
|  \\    /   O peration     | Version:  3.0.1                                 |
|   \\  /    A nd           | Web:      www.OpenFOAM.org                      |
|    \\/     M anipulation  |                                                 |
\*---------------------------------------------------------------------------*/
FoamFile
{
    version     2.0;
    format      ascii;
    class       surfaceScalarField;
    location    "17.2";
    object      phi;
}
// * * * * * * * * * * * * * * * * * * * * * * * * * * * * * * * * * * * * * //

dimensions      [0 3 -1 0 0 0 0];

internalField   nonuniform List<scalar> 
42423
(
-5.41362e-05
-1.37139e-05
-3.91473e-05
-1.4989e-05
-2.31808e-05
-1.59666e-05
-6.39814e-06
-1.67828e-05
1.14603e-05
-1.78586e-05
2.97331e-05
-1.82729e-05
4.8565e-05
-1.8832e-05
6.75874e-05
-1.90225e-05
8.64745e-05
-1.88872e-05
0.000105194
-1.87198e-05
0.000123465
-1.82707e-05
0.000140884
-1.74194e-05
0.000157268
-1.63846e-05
0.000172371
-1.51027e-05
0.000186008
-1.36366e-05
0.000197876
-1.18683e-05
0.000207666
-9.79064e-06
0.000215264
-7.59808e-06
0.000220568
-5.30343e-06
0.000223348
-2.7801e-06
0.000223667
-3.18954e-07
0.000221489
2.17782e-06
0.000216682
4.80675e-06
0.000209589
7.09239e-06
0.000200174
9.41575e-06
0.000188826
1.13481e-05
0.000175614
1.32114e-05
0.000160767
1.48474e-05
0.000144669
1.60973e-05
0.000127481
1.71878e-05
0.000109393
1.80882e-05
9.07543e-05
1.86388e-05
7.18922e-05
1.88621e-05
5.28432e-05
1.90491e-05
3.3893e-05
1.89502e-05
1.53439e-05
1.8549e-05
-2.79817e-06
1.81421e-05
-2.03551e-05
1.75569e-05
-3.71699e-05
1.68148e-05
-5.31609e-05
1.59911e-05
-6.82674e-05
1.51065e-05
-8.24324e-05
1.4165e-05
-9.56473e-05
1.32149e-05
-0.000107875
1.22278e-05
-0.000119136
1.12605e-05
-0.000129452
1.03166e-05
-0.000138814
9.36159e-06
-0.000147238
8.42408e-06
-0.000154775
7.53768e-06
-0.000161444
6.66834e-06
-0.000167252
5.80789e-06
-0.000172244
4.99269e-06
-0.000176417
4.17248e-06
-0.000179806
3.38889e-06
-0.000182393
2.58697e-06
-0.000184204
1.81077e-06
-0.000185293
1.08971e-06
-0.000185616
3.22742e-07
-0.000185053
-5.63397e-07
-0.000183743
-1.30969e-06
-0.000181592
-2.15129e-06
-0.000178666
-2.92591e-06
-0.000174888
-3.77794e-06
-0.000170258
-4.62945e-06
-0.000164792
-5.46643e-06
-0.000158532
-6.2599e-06
-0.000151325
-7.20665e-06
-0.000143341
-7.98418e-06
-0.000134427
-8.91426e-06
-0.000124565
-9.86244e-06
-0.000113831
-1.0734e-05
-0.000102239
-1.1592e-05
-8.98017e-05
-1.24371e-05
-7.66118e-05
-1.31899e-05
-6.25399e-05
-1.40721e-05
-4.78273e-05
-1.47126e-05
-3.22625e-05
-1.55649e-05
-1.61373e-05
-1.61253e-05
5.45805e-07
-1.66832e-05
1.77579e-05
-1.72122e-05
3.52917e-05
-1.75338e-05
5.30353e-05
-1.77437e-05
7.0902e-05
-1.78668e-05
8.87378e-05
-1.78359e-05
0.000106284
-1.75463e-05
0.000123346
-1.70616e-05
0.000139637
-1.62912e-05
0.000154884
-1.52476e-05
0.000168928
-1.40436e-05
0.000181509
-1.25813e-05
0.000192345
-1.08365e-05
0.000201212
-8.86641e-06
0.000207909
-6.69744e-06
0.000212414
-4.50531e-06
0.000214563
-2.1484e-06
0.000214446
1.16646e-07
0.000211884
2.56178e-06
0.000206946
4.9385e-06
0.000199778
7.16777e-06
0.000190396
9.38149e-06
0.000179045
1.13514e-05
0.000166042
1.30024e-05
0.000151383
1.46593e-05
0.000135478
1.59047e-05
0.000118577
1.69013e-05
0.000100748
1.78289e-05
8.23634e-05
1.83846e-05
6.35916e-05
1.87718e-05
4.4657e-05
1.89345e-05
2.58211e-05
1.88359e-05
7.19857e-06
1.86226e-05
-1.09707e-05
1.81693e-05
-2.85877e-05
1.7617e-05
-4.54891e-05
1.69014e-05
-6.1527e-05
1.60379e-05
-7.66566e-05
1.51296e-05
-9.08047e-05
1.4148e-05
-0.000103841
1.30368e-05
-0.000115883
1.20414e-05
-0.000126806
1.09228e-05
-0.000136669
9.86344e-06
-0.00014547
8.80092e-06
-0.000153224
7.75374e-06
-0.000160016
6.79194e-06
-0.000165849
5.83338e-06
-0.000170791
4.94216e-06
-0.000174837
4.04594e-06
-0.000178062
3.22452e-06
-0.000180433
2.37092e-06
-0.000182031
1.59878e-06
-0.000182901
8.69277e-07
-0.000183087
1.86317e-07
-0.000182415
-6.71841e-07
-0.000181051
-1.3647e-06
-0.000179016
-2.03451e-06
-0.000176197
-2.81896e-06
-0.000172574
-3.62293e-06
-0.000168159
-4.41548e-06
-0.000162905
-5.25422e-06
-0.000156893
-6.01201e-06
-0.000149967
-6.9252e-06
-0.000142157
-7.81075e-06
-0.000133503
-8.6534e-06
-0.00012388
-9.6233e-06
-0.00011339
-1.04902e-05
-0.00010203
-1.136e-05
-8.9758e-05
-1.22719e-05
-7.65437e-05
-1.32143e-05
-6.24584e-05
-1.40854e-05
-4.75565e-05
-1.49019e-05
-3.19908e-05
-1.55658e-05
-1.57808e-05
-1.62101e-05
1.0985e-06
-1.68793e-05
1.83578e-05
-1.72594e-05
3.5871e-05
-1.75133e-05
5.36264e-05
-1.77554e-05
7.12955e-05
-1.76692e-05
8.88695e-05
-1.75741e-05
0.000106069
-1.71999e-05
0.000122544
-1.64753e-05
0.000138317
-1.5773e-05
0.000153022
-1.4705e-05
0.000166543
-1.35209e-05
0.000178662
-1.21186e-05
0.000189228
-1.0566e-05
0.000198051
-8.8236e-06
0.000204951
-6.89944e-06
0.000209788
-4.83778e-06
0.000212529
-2.74045e-06
0.000213044
-5.15841e-07
0.000211255
1.78909e-06
0.000207306
3.94912e-06
0.000201006
6.30045e-06
0.000192367
8.63884e-06
0.000181767
1.05994e-05
0.000169225
1.2542e-05
0.000155102
1.41236e-05
0.000139227
1.58747e-05
0.000121971
1.72561e-05
0.000103748
1.82223e-05
8.46374e-05
1.91111e-05
6.49708e-05
1.96666e-05
4.51012e-05
1.98695e-05
2.52302e-05
1.98711e-05
5.69059e-06
1.95396e-05
-1.33075e-05
1.89981e-05
-3.1565e-05
1.82575e-05
-4.88539e-05
1.72889e-05
-6.50946e-05
1.62407e-05
-8.01444e-05
1.50498e-05
-9.39376e-05
1.37932e-05
-0.000106459
1.25217e-05
-0.000117782
1.13222e-05
-0.000127778
9.99633e-06
-0.000136613
8.83531e-06
-0.000144307
7.6939e-06
-0.00015096
6.6528e-06
-0.000156603
5.64327e-06
-0.000161388
4.78479e-06
-0.000165298
3.91049e-06
-0.000168475
3.17697e-06
-0.000170971
2.49544e-06
-0.000172861
1.89037e-06
-0.000174156
1.29511e-06
-0.000174842
6.86046e-07
-0.000175136
2.9365e-07
-0.000174885
-2.51368e-07
-0.000174106
-7.78238e-07
-0.000172851
-1.25584e-06
-0.000171065
-1.78536e-06
-0.000168742
-2.32294e-06
-0.000165843
-2.89948e-06
-0.000162349
-3.49397e-06
-0.000158155
-4.19379e-06
-0.000153219
-4.93628e-06
-0.000147575
-5.64349e-06
-0.000141002
-6.57311e-06
-0.000133432
-7.57029e-06
-0.000124939
-8.49322e-06
-0.000115361
-9.57808e-06
-0.000104787
-1.05736e-05
-9.30449e-05
-1.17426e-05
-8.01698e-05
-1.28751e-05
-6.63271e-05
-1.38428e-05
-5.15264e-05
-1.48007e-05
-3.54853e-05
-1.60412e-05
-1.86442e-05
-1.68412e-05
-7.9866e-07
-1.78457e-05
1.75598e-05
-1.83586e-05
3.62845e-05
-1.87248e-05
5.54056e-05
-1.91212e-05
7.45075e-05
-1.91019e-05
9.33487e-05
-1.88413e-05
0.000111788
-1.84396e-05
0.000129447
-1.76587e-05
0.000146112
-1.66653e-05
0.000161455
-1.53426e-05
0.000175271
-1.38163e-05
0.000187345
-1.20745e-05
0.000197417
-1.00721e-05
0.000205275
-7.85831e-06
0.000210862
-5.58689e-06
0.000214027
-3.16489e-06
0.00021471
-6.83254e-07
0.000213054
1.65568e-06
0.000208864
4.18991e-06
0.000202624
6.24069e-06
0.000194157
8.46677e-06
0.00018357
1.05865e-05
0.000171394
1.21765e-05
0.000157584
1.38099e-05
0.000142403
1.51812e-05
0.000126028
1.63743e-05
0.000108973
1.70547e-05
9.12769e-05
1.76964e-05
7.30757e-05
1.82012e-05
5.47108e-05
1.83649e-05
3.63326e-05
1.83782e-05
1.80759e-05
1.82567e-05
1.30137e-07
1.79458e-05
-1.73181e-05
1.74483e-05
-3.42197e-05
1.69015e-05
-5.03814e-05
1.61618e-05
-6.58138e-05
1.54324e-05
-8.03607e-05
1.45469e-05
-9.39999e-05
1.36391e-05
-0.000106736
1.27359e-05
-0.000118422
1.16861e-05
-0.000129205
1.07836e-05
-0.000139007
9.80106e-06
-0.000147836
8.82908e-06
-0.000155673
7.83778e-06
-0.000162517
6.84369e-06
-0.000168412
5.89475e-06
-0.000173356
4.94425e-06
-0.000177409
4.05268e-06
-0.000180557
3.14801e-06
-0.000182778
2.22086e-06
-0.000184142
1.36411e-06
-0.000184601
4.5963e-07
-0.000184204
-3.9783e-07
-0.000183
-1.20366e-06
-0.000180918
-2.08157e-06
-0.000178063
-2.85573e-06
-0.000174386
-3.6769e-06
-0.000169937
-4.44853e-06
-0.000164734
-5.20365e-06
-0.000158721
-6.01218e-06
-0.000151911
-6.80998e-06
-0.000144177
-7.73437e-06
-0.000135639
-8.53838e-06
-0.000126341
-9.29785e-06
-0.000116191
-1.01499e-05
-0.000105195
-1.09957e-05
-9.34527e-05
-1.17426e-05
-8.08841e-05
-1.25687e-05
-6.75491e-05
-1.33349e-05
-5.36079e-05
-1.39413e-05
-3.90007e-05
-1.46073e-05
-2.38246e-05
-1.51761e-05
-7.941e-06
-1.58837e-05
8.36102e-06
-1.63021e-05
2.48863e-05
-1.65254e-05
4.1653e-05
-1.67667e-05
5.85584e-05
-1.69054e-05
7.52717e-05
-1.67134e-05
9.17841e-05
-1.65125e-05
0.000107845
-1.60611e-05
0.000123317
-1.54724e-05
0.000138022
-1.47046e-05
0.000151665
-1.36432e-05
0.000164126
-1.24607e-05
0.000175274
-1.11479e-05
0.000184846
-9.57262e-06
0.000192762
-7.91616e-06
0.000198822
-6.05957e-06
0.000202993
-4.17095e-06
0.000205163
-2.17043e-06
0.000205233
-6.95531e-08
0.000203243
1.98971e-06
0.00019914
4.10295e-06
0.00019297
6.16993e-06
0.000184997
7.97349e-06
0.00017527
9.72659e-06
0.000164053
1.12173e-05
0.000151465
1.25878e-05
0.000137629
1.38353e-05
0.000122929
1.47008e-05
0.000107531
1.53978e-05
9.16044e-05
1.59263e-05
7.52892e-05
1.63152e-05
5.88242e-05
1.6465e-05
4.24687e-05
1.63555e-05
2.64111e-05
1.60577e-05
1.05761e-05
1.58349e-05
-4.63688e-06
1.5213e-05
-1.92715e-05
1.46346e-05
-3.32098e-05
1.39384e-05
-4.6357e-05
1.31472e-05
-5.86869e-05
1.23298e-05
-7.0143e-05
1.14561e-05
-8.06843e-05
1.05413e-05
-9.03193e-05
9.63502e-06
-9.90276e-05
8.70831e-06
-0.000106836
7.80851e-06
-0.00011375
6.91413e-06
-0.000119782
6.0313e-06
-0.000124963
5.18178e-06
-0.000129314
4.35052e-06
-0.00013285
3.5359e-06
-0.000135598
2.74844e-06
-0.00013759
1.99169e-06
-0.000138854
1.26436e-06
-0.000139374
5.19534e-07
-0.000139133
-2.40774e-07
-0.000138161
-9.72385e-07
-1.67479e-06
-5.4173e-05
-2.74292e-05
-3.91834e-05
-2.99788e-05
-2.3208e-05
-3.19423e-05
-6.43364e-06
-3.35574e-05
1.14352e-05
-3.57276e-05
2.97133e-05
-3.65512e-05
4.85556e-05
-3.76746e-05
6.75983e-05
-3.80654e-05
8.65165e-05
-3.78057e-05
0.000105261
-3.74642e-05
0.000123527
-3.65372e-05
0.000140946
-3.4838e-05
0.000157342
-3.27809e-05
0.000172458
-3.02192e-05
0.000186113
-2.72916e-05
0.000197993
-2.37483e-05
0.000207788
-1.95862e-05
0.000215392
-1.52024e-05
0.000220708
-1.06195e-05
0.000223492
-5.56376e-06
0.000223805
-6.31923e-07
0.000221616
4.36631e-06
0.000216804
9.61836e-06
0.000209706
1.41904e-05
0.000200285
1.88369e-05
0.000188927
2.27057e-05
0.000175706
2.6433e-05
0.000160843
2.97103e-05
0.000144733
3.22065e-05
0.000127536
3.43853e-05
0.000109434
3.61899e-05
9.07814e-05
3.72915e-05
7.19077e-05
3.77358e-05
5.28532e-05
3.81035e-05
3.38968e-05
3.79066e-05
1.53341e-05
3.71117e-05
-2.81475e-06
3.62909e-05
-2.03776e-05
3.51197e-05
-3.72e-05
3.36372e-05
-5.31994e-05
3.19905e-05
-6.83086e-05
3.02157e-05
-8.24768e-05
2.83331e-05
-9.57012e-05
2.64392e-05
-0.000107934
2.44603e-05
-0.000119198
2.2525e-05
-0.000129514
2.06324e-05
-0.000138872
1.87192e-05
-0.000147299
1.68515e-05
-0.000154839
1.50773e-05
-0.000161512
1.33419e-05
-0.000167325
1.16207e-05
-0.000172316
9.98323e-06
-0.000176484
8.34096e-06
-0.000179877
6.78127e-06
-0.000182466
5.17599e-06
-0.00018428
3.62488e-06
-0.000185373
2.18346e-06
-0.000185695
6.44735e-07
-0.000185132
-1.12714e-06
-0.000183825
-2.61661e-06
-0.000181672
-4.30373e-06
-0.000178742
-5.85629e-06
-0.000174965
-7.55491e-06
-0.000170334
-9.26101e-06
-0.000164863
-1.0937e-05
-0.000158604
-1.25195e-05
-0.000151398
-1.4412e-05
-0.000143421
-1.5961e-05
-0.000134499
-1.78373e-05
-0.000124631
-1.97296e-05
-0.000113892
-2.14731e-05
-0.00010229
-2.31947e-05
-8.98537e-05
-2.48733e-05
-7.66628e-05
-2.6381e-05
-6.25975e-05
-2.81375e-05
-4.78716e-05
-2.94386e-05
-3.22997e-05
-3.11369e-05
-1.61695e-05
-3.22557e-05
5.15265e-07
-3.33681e-05
1.77355e-05
-3.44326e-05
3.52798e-05
-3.50783e-05
5.30244e-05
-3.54885e-05
7.08935e-05
-3.57361e-05
8.87383e-05
-3.56809e-05
0.000106304
-3.51117e-05
0.000123372
-3.41302e-05
0.000139671
-3.25904e-05
0.000154934
-3.0511e-05
0.000168991
-2.81e-05
0.000181581
-2.51717e-05
0.000192432
-2.16879e-05
0.000201303
-1.77376e-05
0.000208009
-1.34037e-05
0.000212533
-9.0293e-06
0.00021469
-4.30541e-06
0.000214564
2.42201e-07
0.000211992
5.13368e-06
0.000207048
9.88231e-06
0.000199889
1.43273e-05
0.000190499
1.8771e-05
0.000179128
2.27222e-05
0.000166122
2.60083e-05
0.000151466
2.9315e-05
0.000135552
3.18194e-05
0.000118638
3.38151e-05
0.000100791
3.56762e-05
8.24014e-05
3.67737e-05
6.36217e-05
3.75515e-05
4.4675e-05
3.78811e-05
2.58315e-05
3.76794e-05
7.19899e-06
3.72551e-05
-1.09766e-05
3.63448e-05
-2.85969e-05
3.52373e-05
-4.54997e-05
3.38042e-05
-6.15454e-05
3.20836e-05
-7.66836e-05
3.02678e-05
-9.08389e-05
2.83033e-05
-0.000103877
2.60745e-05
-0.000115918
2.40831e-05
-0.000126846
2.18506e-05
-0.00013671
1.97271e-05
-0.00014551
1.76017e-05
-0.000153264
1.55072e-05
-0.000160049
1.35769e-05
-0.000165887
1.16714e-05
-0.000170833
9.88856e-06
-0.000174875
8.08762e-06
-0.000178104
6.45371e-06
-0.000180475
4.74159e-06
-0.000182066
3.19009e-06
-0.000182937
1.74021e-06
-0.00018313
3.7965e-07
-0.000182451
-1.35094e-06
-0.000181093
-2.72258e-06
-0.000179054
-4.07436e-06
-0.000176226
-5.64698e-06
-0.000172612
-7.23642e-06
-0.000168202
-8.82609e-06
-0.000162953
-1.05025e-05
-0.000156938
-1.2027e-05
-0.000150018
-1.38457e-05
-0.00014221
-1.56186e-05
-0.000133556
-1.73075e-05
-0.000123942
-1.92376e-05
-0.000113445
-2.09873e-05
-0.000102086
-2.27187e-05
-8.98173e-05
-2.45408e-05
-7.66078e-05
-2.64239e-05
-6.25423e-05
-2.81509e-05
-4.76088e-05
-2.98355e-05
-3.20405e-05
-3.11343e-05
-1.58225e-05
-3.24282e-05
1.06186e-06
-3.37638e-05
1.83251e-05
-3.45228e-05
3.58432e-05
-3.50315e-05
5.36001e-05
-3.55124e-05
7.128e-05
-3.53493e-05
8.88649e-05
-3.51592e-05
0.00010607
-3.4405e-05
0.00012256
-3.29652e-05
0.00013835
-3.15631e-05
0.000153062
-2.94174e-05
0.000166597
-2.70557e-05
0.000178722
-2.42441e-05
0.000189301
-2.11447e-05
0.00019814
-1.76629e-05
0.000205036
-1.37954e-05
0.000209888
-9.69078e-06
0.000212648
-5.50022e-06
0.00021315
-1.01815e-06
0.000211352
3.5872e-06
0.000207409
7.89165e-06
0.000201119
1.25906e-05
0.000192468
1.72899e-05
0.000181866
2.12015e-05
0.000169312
2.50959e-05
0.000155184
2.82512e-05
0.000139315
3.17444e-05
0.000122047
3.45235e-05
0.000103812
3.64576e-05
8.46828e-05
3.82403e-05
6.50088e-05
3.93406e-05
4.51266e-05
3.97517e-05
2.52424e-05
3.97553e-05
5.69293e-06
3.9089e-05
-1.33211e-05
3.80121e-05
-3.15889e-05
3.65253e-05
-4.8883e-05
3.45831e-05
-6.51284e-05
3.24861e-05
-8.01843e-05
3.01056e-05
-9.3981e-05
2.75899e-05
-0.000106502
2.50426e-05
-0.000117828
2.26482e-05
-0.000127818
1.99869e-05
-0.000136648
1.76653e-05
-0.000144343
1.53884e-05
-0.000151
1.331e-05
-0.000156647
1.12903e-05
-0.000161425
9.56232e-06
-0.00016533
7.81597e-06
-0.000168501
6.34743e-06
-0.000170994
4.98827e-06
-0.000172892
3.7888e-06
-0.000174195
2.59797e-06
-0.000174873
1.36457e-06
-0.000175159
5.78853e-07
-0.000174904
-5.06181e-07
-0.000174133
-1.54933e-06
-0.000172878
-2.5105e-06
-0.000171097
-3.56604e-06
-0.000168774
-4.64621e-06
-0.000165879
-5.79499e-06
-0.000162394
-6.97908e-06
-0.000158206
-8.3819e-06
-0.000153266
-9.8755e-06
-0.000147621
-1.12887e-05
-0.000141058
-1.31362e-05
-0.000133486
-1.51421e-05
-0.000125006
-1.69736e-05
-0.000115425
-1.91593e-05
-0.00010485
-2.11482e-05
-9.31249e-05
-2.34683e-05
-8.02369e-05
-2.57632e-05
-6.63921e-05
-2.76877e-05
-5.15928e-05
-2.96002e-05
-3.55565e-05
-3.20777e-05
-1.87071e-05
-3.36908e-05
-8.53539e-07
-3.56994e-05
1.75104e-05
-3.67227e-05
3.62496e-05
-3.74642e-05
5.5382e-05
-3.82538e-05
7.4496e-05
-3.82162e-05
9.33506e-05
-3.7696e-05
0.000111803
-3.68923e-05
0.00012947
-3.53261e-05
0.000146157
-3.33522e-05
0.000161512
-3.0698e-05
0.000175338
-2.76426e-05
0.000187423
-2.41593e-05
0.000197498
-2.01467e-05
0.000205383
-1.57441e-05
0.000210985
-1.11886e-05
0.000214147
-6.32723e-06
0.000214825
-1.36144e-06
0.000213161
3.31939e-06
0.000208979
8.37202e-06
0.000202736
1.2484e-05
0.000194258
1.69447e-05
0.000183662
2.11824e-05
0.000171476
2.43617e-05
0.00015766
2.76256e-05
0.000142466
3.03755e-05
0.000126085
3.27554e-05
0.000109015
3.41246e-05
9.13143e-05
3.53971e-05
7.31102e-05
3.64053e-05
5.47388e-05
3.67362e-05
3.635e-05
3.6767e-05
1.80935e-05
3.65132e-05
1.32666e-07
3.59066e-05
-1.73288e-05
3.49097e-05
-3.42395e-05
3.38123e-05
-5.04001e-05
3.23223e-05
-6.58274e-05
3.08598e-05
-8.03864e-05
2.91059e-05
-9.40401e-05
2.72928e-05
-0.000106778
2.54733e-05
-0.000118449
2.33579e-05
-0.000129245
2.15788e-05
-0.000139057
1.96138e-05
-0.000147875
1.76467e-05
-0.000155706
1.56686e-05
-0.000162555
1.36928e-05
-0.000168458
1.17979e-05
-0.00017341
9.89596e-06
-0.000177461
8.10447e-06
-0.00018061
6.29686e-06
-0.000182835
4.44591e-06
-0.000184199
2.72796e-06
-0.000184657
9.17232e-07
-0.000184263
-7.92043e-07
-0.000183056
-2.41032e-06
-0.000180973
-4.16484e-06
-0.00017812
-5.70876e-06
-0.000174443
-7.35323e-06
-0.000169998
-8.89376e-06
-0.000164801
-1.04013e-05
-0.000158789
-1.20234e-05
-0.000151981
-1.36183e-05
-0.000144246
-1.54697e-05
-0.000135703
-1.70807e-05
-0.000126402
-1.85993e-05
-0.000116253
-2.02994e-05
-0.000105255
-2.19937e-05
-9.35131e-05
-2.34842e-05
-8.09432e-05
-2.51387e-05
-6.76032e-05
-2.66749e-05
-5.36633e-05
-2.78812e-05
-3.90497e-05
-2.92209e-05
-2.386e-05
-3.03659e-05
-7.98192e-06
-3.17618e-05
8.33266e-06
-3.26167e-05
2.48665e-05
-3.30593e-05
4.16414e-05
-3.35416e-05
5.85569e-05
-3.38211e-05
7.52785e-05
-3.3435e-05
9.18079e-05
-3.30419e-05
0.000107881
-3.21341e-05
0.00012336
-3.09518e-05
0.000138075
-2.94197e-05
0.000151729
-2.72969e-05
0.000164201
-2.49331e-05
0.000175362
-2.23085e-05
0.000184955
-1.91655e-05
0.000192877
-1.58389e-05
0.000198929
-1.21111e-05
0.000203103
-8.34511e-06
0.000205278
-4.3462e-06
0.000205348
-1.39156e-07
0.00020335
3.98731e-06
0.000199248
8.20493e-06
0.000193073
1.23447e-05
0.000185093
1.59539e-05
0.000175358
1.94614e-05
0.000164132
2.24433e-05
0.000151538
2.51815e-05
0.000137689
2.76843e-05
0.000122976
2.94138e-05
0.000107566
3.08076e-05
9.1633e-05
3.18598e-05
7.5308e-05
3.26401e-05
5.88365e-05
3.29365e-05
4.2466e-05
3.2726e-05
2.63991e-05
3.21245e-05
1.05588e-05
3.16752e-05
-4.65625e-06
3.0428e-05
-1.92963e-05
2.92746e-05
-3.32398e-05
2.78819e-05
-4.63917e-05
2.6299e-05
-5.87254e-05
2.46635e-05
-7.01841e-05
2.29149e-05
-8.07282e-05
2.10853e-05
-9.03666e-05
1.92734e-05
-9.90759e-05
1.74176e-05
-0.000106885
1.56175e-05
-0.000113797
1.38265e-05
-0.000119829
1.20635e-05
-0.000125012
1.03648e-05
-0.000129364
8.70221e-06
-0.000132897
7.06887e-06
-0.000135639
5.49066e-06
-0.000137628
3.98011e-06
-0.000138891
2.52722e-06
-0.000139406
1.03541e-06
-0.000139164
-4.83556e-07
-0.000138188
-1.94758e-06
-3.35231e-06
-5.42439e-05
-4.11497e-05
-3.92522e-05
-4.49707e-05
-2.32638e-05
-4.79309e-05
-6.50373e-06
-5.03177e-05
1.14042e-05
-5.36358e-05
2.97062e-05
-5.48534e-05
4.85747e-05
-5.65432e-05
6.76394e-05
-5.71302e-05
8.65691e-05
-5.67356e-05
0.000105327
-5.62218e-05
0.000123616
-5.48271e-05
0.000141064
-5.2286e-05
0.000157492
-4.92094e-05
0.000172646
-4.53732e-05
0.000186325
-4.09705e-05
0.000198209
-3.56319e-05
0.000208012
-2.93903e-05
0.00021564
-2.28303e-05
0.000220972
-1.5951e-05
0.000223751
-8.34365e-06
0.000224031
-9.11337e-07
0.000221805
6.59244e-06
0.000216982
1.44406e-05
0.000209873
2.12998e-05
0.000200446
2.82637e-05
0.000189073
3.4078e-05
0.000175841
3.96651e-05
0.000160948
4.46038e-05
0.000144817
4.83372e-05
0.000127603
5.15986e-05
0.000109479
5.43139e-05
9.08038e-05
5.59669e-05
7.19063e-05
5.66333e-05
5.28477e-05
5.7162e-05
3.38977e-05
5.68566e-05
1.52985e-05
5.57108e-05
-2.86554e-06
5.44549e-05
-2.04395e-05
5.26937e-05
-3.72703e-05
5.0468e-05
-5.32782e-05
4.79983e-05
-6.8396e-05
4.53335e-05
-8.25659e-05
4.25031e-05
-9.57903e-05
3.96636e-05
-0.000108023
3.66934e-05
-0.000119286
3.37874e-05
-0.000129607
3.09537e-05
-0.000138964
2.80764e-05
-0.00014739
2.52771e-05
-0.000154926
2.2613e-05
-0.000161594
2.00106e-05
-0.000167409
1.74359e-05
-0.000172404
1.49781e-05
-0.000176567
1.25036e-05
-0.000179957
1.01711e-05
-0.000182544
7.76342e-06
-0.000184357
5.43799e-06
-0.000185447
3.27319e-06
-0.000185759
9.56313e-07
-0.000185196
-1.68996e-06
-0.000183891
-3.92172e-06
-0.000181736
-6.45855e-06
-0.000178801
-8.79171e-06
-0.000175028
-1.13274e-05
-0.000170401
-1.3888e-05
-0.000164934
-1.64043e-05
-0.000158673
-1.87806e-05
-0.00015147
-2.16153e-05
-0.000143502
-2.39282e-05
-0.000134574
-2.67657e-05
-0.000124701
-2.96031e-05
-0.000113958
-3.22161e-05
-0.000102349
-3.4803e-05
-8.9915e-05
-3.73079e-05
-7.67214e-05
-3.95746e-05
-6.26663e-05
-4.21927e-05
-4.79233e-05
-4.41818e-05
-3.23358e-05
-4.67245e-05
-1.62012e-05
-4.83904e-05
4.88884e-07
-5.00584e-05
1.77157e-05
-5.16595e-05
3.52685e-05
-5.26313e-05
5.30025e-05
-5.32226e-05
7.09049e-05
-5.36387e-05
8.87607e-05
-5.35368e-05
0.000106346
-5.26977e-05
0.000123443
-5.12271e-05
0.00013976
-4.89071e-05
0.00015505
-4.58012e-05
0.000169137
-4.2187e-05
0.000181745
-3.77798e-05
0.000192612
-3.25557e-05
0.000201487
-2.66126e-05
0.000208208
-2.01248e-05
0.000212739
-1.35604e-05
0.000214893
-6.45959e-06
0.000214766
3.69672e-07
0.000212165
7.73425e-06
0.000207213
1.48344e-05
0.000200059
2.14813e-05
0.000190638
2.81917e-05
0.000179243
3.41174e-05
0.000166226
3.90251e-05
0.000151559
4.39823e-05
0.000135636
4.77415e-05
0.000118712
5.07395e-05
0.000100833
5.35551e-05
8.2426e-05
5.51808e-05
6.36236e-05
5.63539e-05
4.46638e-05
5.68409e-05
2.58085e-05
5.65346e-05
7.16043e-06
5.59032e-05
-1.10316e-05
5.45369e-05
-2.8659e-05
5.28647e-05
-4.55682e-05
5.07134e-05
-6.16179e-05
4.81333e-05
-7.67637e-05
4.54137e-05
-9.09279e-05
4.24675e-05
-0.000103963
3.91098e-05
-0.000116008
3.61276e-05
-0.000126931
3.27737e-05
-0.000136796
2.95921e-05
-0.000145592
2.63976e-05
-0.000153355
2.32707e-05
-0.000160112
2.03341e-05
-0.000165947
1.75055e-05
-0.000170899
1.48415e-05
-0.000174939
1.21274e-05
-0.000178164
9.67894e-06
-0.000180532
7.10889e-06
-0.000182117
4.77537e-06
-0.000182991
2.61367e-06
-0.000183177
5.65664e-07
-0.000182505
-2.02277e-06
-0.000181147
-4.08023e-06
-0.000179111
-6.11054e-06
-0.000176282
-8.47607e-06
-0.00017266
-1.08585e-05
-0.00016825
-1.32358e-05
-0.000163004
-1.57483e-05
-0.000156998
-1.80331e-05
-0.000150091
-2.07531e-05
-0.000142282
-2.34278e-05
-0.000133621
-2.59682e-05
-0.000124015
-2.88441e-05
-0.000113502
-3.15001e-05
-0.000102153
-3.40681e-05
-8.98896e-05
-3.68042e-05
-7.66731e-05
-3.96406e-05
-6.26235e-05
-4.22006e-05
-4.76556e-05
-4.48036e-05
-3.20884e-05
-4.67016e-05
-1.5869e-05
-4.86477e-05
1.03115e-06
-5.06641e-05
1.82998e-05
-5.17916e-05
3.58334e-05
-5.25652e-05
5.36034e-05
-5.32825e-05
7.12987e-05
-5.30447e-05
8.89022e-05
-5.27628e-05
0.000106121
-5.16235e-05
0.000122626
-4.94707e-05
0.000138442
-4.73792e-05
0.000153164
-4.41395e-05
0.000166715
-4.06069e-05
0.000178864
-3.63936e-05
0.000189462
-3.17429e-05
0.000198304
-2.65042e-05
0.000205209
-2.07007e-05
0.000210061
-1.45429e-05
0.00021284
-8.27937e-06
0.000213343
-1.52088e-06
0.000211518
5.4117e-06
0.000207577
1.18324e-05
0.000201294
1.88741e-05
0.00019262
2.59634e-05
0.000182014
3.18077e-05
0.000169434
3.76761e-05
0.000155292
4.23931e-05
0.000139416
4.76201e-05
0.000122141
5.17983e-05
0.000103876
5.4723e-05
8.47138e-05
5.74021e-05
6.50162e-05
5.90382e-05
4.5106e-05
5.96619e-05
2.52065e-05
5.96548e-05
5.64605e-06
5.86495e-05
-1.33812e-05
5.70394e-05
-3.16624e-05
5.48065e-05
-4.89744e-05
5.1895e-05
-6.52268e-05
4.87386e-05
-8.02914e-05
4.51702e-05
-9.40957e-05
4.13943e-05
-0.000106609
3.75561e-05
-0.000117924
3.39632e-05
-0.000127902
2.9965e-05
-0.000136723
2.64856e-05
-0.000144413
2.30786e-05
-0.000151077
1.9974e-05
-0.000156716
1.69298e-05
-0.000161488
1.43344e-05
-0.000165386
1.17137e-05
-0.000168546
9.50742e-06
-0.000171031
7.47333e-06
-0.000172932
5.68967e-06
-0.000174245
3.91053e-06
-0.000174911
2.03125e-06
-0.000175201
8.68117e-07
-0.000174937
-7.70164e-07
-0.000174156
-2.33025e-06
-0.000172901
-3.76535e-06
-0.000171127
-5.33963e-06
-0.000168813
-6.96078e-06
-0.000165917
-8.69126e-06
-0.000162446
-1.04493e-05
-0.000158258
-1.25703e-05
-0.00015333
-1.48038e-05
-0.000147691
-1.69275e-05
-0.000141128
-1.9699e-05
-0.000133545
-2.27252e-05
-0.000125089
-2.54299e-05
-0.000115502
-2.87463e-05
-0.000104931
-3.17195e-05
-9.32184e-05
-3.51811e-05
-8.0307e-05
-3.86748e-05
-6.64803e-05
-4.15146e-05
-5.16744e-05
-4.44062e-05
-3.56335e-05
-4.81188e-05
-1.87776e-05
-5.05468e-05
-8.9783e-07
-5.35794e-05
1.74753e-05
-5.5096e-05
3.6237e-05
-5.62261e-05
5.53934e-05
-5.74103e-05
7.45244e-05
-5.73474e-05
9.33962e-05
-5.6568e-05
0.000111874
-5.53702e-05
0.000129556
-5.3008e-05
0.00014628
-5.0077e-05
0.00016166
-4.60781e-05
0.000175498
-4.14807e-05
0.000187599
-3.62601e-05
0.000197694
-3.0242e-05
0.000205589
-2.36398e-05
0.000211193
-1.67923e-05
0.000214365
-9.49946e-06
0.000215035
-2.03187e-06
0.000213343
5.01217e-06
0.000209149
1.25651e-05
0.000202894
1.87397e-05
0.000194409
2.54289e-05
0.000183792
3.17995e-05
0.000171587
3.6567e-05
0.00015775
4.14619e-05
0.000142528
4.5598e-05
0.000126162
4.91206e-05
0.000109063
5.12235e-05
9.13376e-05
5.31229e-05
7.3115e-05
5.46278e-05
5.4734e-05
5.51172e-05
3.63266e-05
5.51743e-05
1.80519e-05
5.47879e-05
8.73781e-08
5.38711e-05
-1.73663e-05
5.23634e-05
-3.42928e-05
5.07388e-05
-5.04704e-05
4.84999e-05
-6.58961e-05
4.62855e-05
-8.04561e-05
4.36659e-05
-9.41114e-05
4.09481e-05
-0.000106863
3.82249e-05
-0.00011853
3.50252e-05
-0.000129327
3.23759e-05
-0.000139141
2.94271e-05
-0.000147963
2.64685e-05
-0.000155782
2.3488e-05
-0.00016263
2.05407e-05
-0.000168534
1.77025e-05
-0.000173506
1.48674e-05
-0.000177531
1.21293e-05
-0.000180679
9.44473e-06
-0.000182925
6.69243e-06
-0.000184272
4.0753e-06
-0.000184724
1.36831e-06
-0.000184329
-1.18679e-06
-0.000183123
-3.61636e-06
-0.000181038
-6.25009e-06
-0.000178183
-8.5631e-06
-0.000174506
-1.10301e-05
-0.000170058
-1.33422e-05
-0.000164868
-1.55914e-05
-0.000158852
-1.80396e-05
-0.000152035
-2.04351e-05
-0.000144307
-2.31973e-05
-0.000135764
-2.56244e-05
-0.000126463
-2.78995e-05
-0.000116312
-3.04513e-05
-0.000105311
-3.2994e-05
-9.35733e-05
-3.52222e-05
-8.09993e-05
-3.77127e-05
-6.76573e-05
-4.0017e-05
-5.37174e-05
-4.18212e-05
-3.90984e-05
-4.38399e-05
-2.38958e-05
-4.55686e-05
-8.01794e-06
-4.76397e-05
8.30189e-06
-4.89366e-05
2.48453e-05
-4.96029e-05
4.16332e-05
-5.03296e-05
5.85675e-05
-5.07554e-05
7.53021e-05
-5.01696e-05
9.18444e-05
-4.95843e-05
0.00010793
-4.82199e-05
0.000123425
-4.64468e-05
0.000138158
-4.41529e-05
0.00015183
-4.09688e-05
0.000164325
-3.74288e-05
0.000175511
-3.34939e-05
0.000185109
-2.87638e-05
0.000193039
-2.37687e-05
0.000199105
-1.81775e-05
0.000203296
-1.25364e-05
0.000205475
-6.52539e-06
0.000205523
-1.8663e-07
0.000203501
6.0091e-06
0.000199401
1.23049e-05
0.000193218
1.85272e-05
0.000185227
2.39451e-05
0.00017548
2.9209e-05
0.00016424
3.36831e-05
0.000151631
3.77896e-05
0.000137771
4.1545e-05
0.000123037
4.41477e-05
0.000107605
4.62389e-05
9.16611e-05
4.78042e-05
7.53215e-05
4.89797e-05
5.88474e-05
4.94106e-05
4.24464e-05
4.9127e-05
2.63628e-05
4.82081e-05
1.05172e-05
4.75208e-05
-4.70565e-06
4.56509e-05
-1.93552e-05
4.39241e-05
-3.33067e-05
4.18334e-05
-4.64649e-05
3.94572e-05
-5.88037e-05
3.70024e-05
-7.02662e-05
3.43773e-05
-8.08116e-05
3.16307e-05
-9.04499e-05
2.89118e-05
-9.91603e-05
2.6128e-05
-0.00010697
2.3427e-05
-0.000113882
2.07391e-05
-0.00011991
1.80907e-05
-0.000125086
1.55412e-05
-0.000129433
1.30487e-05
-0.000132966
1.06021e-05
-0.000135707
8.23193e-06
-0.000137692
5.96451e-06
-0.000138954
3.78949e-06
-0.000139465
1.54669e-06
-0.000139219
-7.30153e-07
-0.000138241
-2.92536e-06
-5.03192e-06
-5.43506e-05
-5.48778e-05
-3.93557e-05
-5.99658e-05
-2.33465e-05
-6.39404e-05
-6.57255e-06
-6.70919e-05
1.13543e-05
-7.15628e-05
2.96822e-05
-7.31815e-05
4.8584e-05
-7.54452e-05
6.76885e-05
-7.62349e-05
8.66599e-05
-7.57072e-05
0.000105461
-7.5023e-05
0.000123795
-7.31617e-05
0.000141288
-6.97783e-05
0.000157751
-6.56728e-05
0.000172931
-6.05533e-05
0.000186631
-5.46712e-05
0.000198555
-4.75558e-05
0.000208382
-3.92177e-05
0.000216016
-3.04641e-05
0.000221353
-2.12884e-05
0.000224137
-1.11279e-05
0.000224377
-1.15166e-06
0.000222092
8.87736e-06
0.00021725
1.92829e-05
0.000210123
2.84266e-05
0.000200687
3.77e-05
0.000189292
4.54729e-05
0.000176047
5.29094e-05
0.000161105
5.95459e-05
0.000144942
6.45007e-05
0.000127705
6.88356e-05
0.000109547
7.24713e-05
9.08376e-05
7.46764e-05
7.19052e-05
7.55657e-05
5.28387e-05
7.62284e-05
3.39075e-05
7.57877e-05
1.52451e-05
7.43733e-05
-2.945e-06
7.2645e-05
-2.05376e-05
7.02863e-05
-3.73823e-05
6.73126e-05
-5.34e-05
6.40159e-05
-6.85242e-05
6.04577e-05
-8.27013e-05
5.66802e-05
-9.59319e-05
5.28941e-05
-0.000108166
4.89273e-05
-0.000119425
4.50467e-05
-0.000129746
4.12745e-05
-0.000139104
3.74346e-05
-0.000147531
3.37037e-05
-0.000155064
3.01467e-05
-0.000161732
2.66782e-05
-0.000167542
2.32458e-05
-0.000172532
1.99683e-05
-0.000176695
1.66666e-05
-0.000180086
1.35621e-05
-0.000182669
1.03467e-05
-0.000184481
7.24958e-06
-0.000185568
4.36047e-06
-0.000185864
1.25195e-06
-0.000185292
-2.26158e-06
-0.000183991
-5.22335e-06
-0.000181835
-8.61447e-06
-0.000178892
-1.17348e-05
-0.000175128
-1.50908e-05
-0.000170501
-1.85149e-05
-0.000165037
-2.18689e-05
-0.000158779
-2.50388e-05
-0.000151581
-2.8813e-05
-0.000143636
-3.18736e-05
-0.000134689
-3.57121e-05
-0.000124804
-3.94881e-05
-0.000114059
-4.29613e-05
-0.000102446
-4.64168e-05
-9.0011e-05
-4.97426e-05
-7.68089e-05
-5.27768e-05
-6.27647e-05
-5.6237e-05
-4.80081e-05
-5.89385e-05
-3.23933e-05
-6.23395e-05
-1.626e-05
-6.45238e-05
4.34305e-07
-6.67529e-05
1.76984e-05
-6.89238e-05
3.52586e-05
-7.01917e-05
5.29925e-05
-7.09566e-05
7.09355e-05
-7.15818e-05
8.88147e-05
-7.14161e-05
0.000106422
-7.0305e-05
0.000123558
-6.83633e-05
0.00013988
-6.5229e-05
0.000155236
-6.11578e-05
0.000169339
-5.62897e-05
0.000181968
-5.04088e-05
0.000192882
-4.34706e-05
0.000201772
-3.55021e-05
0.000208504
-2.68566e-05
0.000213052
-1.81091e-05
0.000215188
-8.5955e-06
0.000215064
4.93556e-07
0.000212438
1.03597e-05
0.000207459
1.98137e-05
0.00020032
2.86202e-05
0.00019086
3.7652e-05
0.00017942
4.55573e-05
0.000166379
5.20659e-05
0.0001517
5.86614e-05
0.000135773