/*--------------------------------*- C++ -*----------------------------------*\
| =========                 |                                                 |
| \\      /  F ield         | OpenFOAM: The Open Source CFD Toolbox           |
|  \\    /   O peration     | Version:  3.0.1                                 |
|   \\  /    A nd           | Web:      www.OpenFOAM.org                      |
|    \\/     M anipulation  |                                                 |
\*---------------------------------------------------------------------------*/
FoamFile
{
    version     2.0;
    format      ascii;
    class       surfaceScalarField;
    location    "40.2";
    object      phi;
}
// * * * * * * * * * * * * * * * * * * * * * * * * * * * * * * * * * * * * * //

dimensions      [0 3 -1 0 0 0 0];

internalField   nonuniform List<scalar> 
42423
(
-2.26339e-05
1.62963e-05
-3.8112e-05
1.54781e-05
-5.28265e-05
1.47146e-05
-6.66908e-05
1.38643e-05
-7.95983e-05
1.29075e-05
-9.1596e-05
1.19977e-05
-0.000102627
1.10313e-05
-0.00011275
1.01223e-05
-0.000121962
9.21235e-06
-0.000130265
8.30323e-06
-0.000137711
7.44602e-06
-0.000144326
6.61435e-06
-0.00015013
5.80402e-06
-0.000155165
5.03561e-06
-0.000159467
4.30208e-06
-0.000163053
3.58622e-06
-0.000165945
2.89171e-06
-0.000168161
2.21599e-06
-0.000169708
1.54673e-06
-0.000170632
9.24214e-07
-0.000170904
2.72062e-07
-0.000170493
-4.11632e-07
-0.000169433
-1.05912e-06
-0.000167663
-1.77072e-06
-0.000165281
-2.38166e-06
-0.000162081
-3.19975e-06
-0.000158178
-3.90312e-06
-0.000153595
-4.58284e-06
-0.00014814
-5.45515e-06
-0.000141887
-6.25364e-06
-0.000134863
-7.0241e-06
-0.00012686
-8.00224e-06
-0.000117979
-8.88131e-06
-0.000108154
-9.82539e-06
-9.73996e-05
-1.07541e-05
-8.56859e-05
-1.17137e-05
-7.3036e-05
-1.26499e-05
-5.94319e-05
-1.36042e-05
-4.50147e-05
-1.44172e-05
-2.97208e-05
-1.5294e-05
-1.3668e-05
-1.60528e-05
3.15131e-06
-1.68193e-05
2.05884e-05
-1.74372e-05
3.82983e-05
-1.77099e-05
5.63088e-05
-1.80105e-05
7.4468e-05
-1.81592e-05
9.24449e-05
-1.79769e-05
0.000110141
-1.76959e-05
0.000127376
-1.72358e-05
0.000143821
-1.64446e-05
0.000159358
-1.55373e-05
0.000173702
-1.43438e-05
0.000186713
-1.30108e-05
0.000198201
-1.14885e-05
0.000207937
-9.73595e-06
0.000215828
-7.891e-06
0.000221745
-5.91672e-06
0.000225576
-3.83123e-06
0.000227292
-1.7156e-06
0.000226814
4.77727e-07
0.000224177
2.63642e-06
0.000219418
4.75905e-06
0.000212657
6.76171e-06
0.000204029
8.62738e-06
0.00019367
1.03593e-05
0.000181717
1.19532e-05
0.000168384
1.33325e-05
0.000153842
1.45417e-05
0.000138361
1.54817e-05
0.000122
1.63608e-05
0.00010511
1.68899e-05
8.79287e-05
1.71813e-05
7.0431e-05
1.74977e-05
5.29706e-05
1.74604e-05
3.57722e-05
1.71984e-05
1.87592e-05
1.7013e-05
2.39156e-06
1.63676e-05
-1.35402e-05
1.59317e-05
-2.88172e-05
1.5277e-05
-4.3286e-05
1.44688e-05
-5.70021e-05
1.37161e-05
-6.98847e-05
1.28827e-05
-8.18202e-05
1.19355e-05
-9.28688e-05
1.10486e-05
-0.000102975
1.0106e-05
-0.000112147
9.17256e-06
-0.000120361
8.21322e-06
-0.00012763
7.2698e-06
-0.000134023
6.39301e-06
-0.000139515
5.49153e-06
-0.000144148
4.63335e-06
-0.000148005
3.85716e-06
-0.000151068
3.0628e-06
-0.00015338
2.31182e-06
-0.000154971
1.59049e-06
-0.000155851
8.80857e-07
-0.000156067
2.15305e-07
-0.000155598
-4.69013e-07
-0.000154508
-1.09007e-06
-0.000152901
-1.60645e-06
-0.000150653
-2.24811e-06
-0.00014778
-2.87351e-06
-0.000144424
-3.35546e-06
-0.000140424
-4.00056e-06
-0.000135852
-4.57145e-06
-0.000130667
-5.18528e-06
-0.000124844
-5.8229e-06
-0.000118505
-6.33937e-06
-0.00011147
-7.03417e-06
-0.000103788
-7.68223e-06
-9.54703e-05
-8.31795e-06
-8.64587e-05
-9.0117e-06
-7.67376e-05
-9.72108e-06
-6.63196e-05
-1.04181e-05
-5.51947e-05
-1.11249e-05
-4.33474e-05
-1.18473e-05
-3.08167e-05
-1.25307e-05
-1.77142e-05
-1.31026e-05
-3.93724e-06
-1.3777e-05
1.03929e-05
-1.43302e-05
2.52685e-05
-1.48756e-05
4.06246e-05
-1.53562e-05
5.63301e-05
-1.57056e-05
7.23083e-05
-1.59783e-05
8.84866e-05
-1.61784e-05
0.000104624
-1.61376e-05
0.000120643
-1.6019e-05
0.000136293
-1.56501e-05
0.000151382
-1.50885e-05
0.000165726
-1.43442e-05
0.00017908
-1.33545e-05
0.0001912
-1.21196e-05
0.000201898
-1.06979e-05
0.000210893
-8.99509e-06
0.000218019
-7.1266e-06
0.000223104
-5.08454e-06
0.000226019
-2.91516e-06
0.00022669
-6.71205e-07
0.000225078
1.61182e-06
0.000221054
4.0237e-06
0.000214743
6.31157e-06
0.000206256
8.48685e-06
0.000195686
1.057e-05
0.000183254
1.24315e-05
0.000169142
1.41125e-05
0.000153583
1.55585e-05
0.00013682
1.67639e-05
0.00011904
1.77798e-05
0.000100625
1.84147e-05
8.18022e-05
1.88227e-05
6.28112e-05
1.8991e-05
4.39479e-05
1.88633e-05
2.53233e-05
1.86246e-05
7.27679e-06
1.80465e-05
-1.00921e-05
1.73688e-05
-2.67223e-05
1.66303e-05
-4.2383e-05
1.56607e-05
-5.70585e-05
1.46755e-05
-7.06561e-05
1.35976e-05
-8.31447e-05
1.24886e-05
-9.46141e-05
1.14694e-05
-0.000104982
1.03677e-05
-0.000114357
9.37485e-06
-0.000122694
8.33733e-06
-0.000130124
7.43044e-06
-0.00013674
6.61587e-06
-0.000142505
5.76504e-06
-0.000147474
4.9683e-06
-0.000151702
4.22809e-06
-0.000155156
3.45458e-06
-0.000158006
2.84941e-06
-0.000160086
2.0807e-06
-0.000161517
1.4303e-06
-0.000162317
7.99733e-07
-0.000162511
1.94938e-07
-0.000162169
-3.42595e-07
-0.00016125
-9.1869e-07
-0.000159739
-1.51136e-06
-0.000157636
-2.10267e-06
-0.000154927
-2.70912e-06
-0.000151628
-3.2995e-06
-0.000147655
-3.9721e-06
-0.000143034
-4.62171e-06
-0.000137715
-5.31888e-06
-0.000131668
-6.04674e-06
-0.000125019
-6.64884e-06
-0.000117605
-7.41433e-06
-0.000109469
-8.13602e-06
-0.0001005
-8.96867e-06
-9.06546e-05
-9.84582e-06
-7.99036e-05
-1.0751e-05
-6.82179e-05
-1.16858e-05
-5.57212e-05
-1.24967e-05
-4.23306e-05
-1.33907e-05
-2.81191e-05
-1.42115e-05
-1.31965e-05
-1.49227e-05
2.47298e-06
-1.56695e-05
1.8782e-05
-1.6309e-05
3.5665e-05
-1.6883e-05
5.29631e-05
-1.72982e-05
7.05334e-05
-1.75703e-05
8.8135e-05
-1.76016e-05
0.000105488
-1.73536e-05
0.000122359
-1.68708e-05
0.00013844
-1.60811e-05
0.000153517
-1.50771e-05
0.000167257
-1.37392e-05
0.000179438
-1.21816e-05
0.000189817
-1.03794e-05
0.000198116
-8.29835e-06
0.000204199
-6.08346e-06
0.000207906
-3.70683e-06
0.000209144
-1.23852e-06
0.000207886
1.25807e-06
0.000204015
3.87121e-06
0.000197661
6.35366e-06
0.000188968
8.69305e-06
0.000178027
1.0941e-05
0.000165222
1.28052e-05
0.000150719
1.4503e-05
0.000134865
1.58543e-05
0.000117908
1.69568e-05
0.00010012
1.77876e-05
8.18006e-05
1.83194e-05
6.31889e-05
1.86116e-05
4.4576e-05
1.86129e-05
2.61305e-05
1.84456e-05
8.10454e-06
1.80259e-05
-9.34235e-06
1.74469e-05
-2.60696e-05
1.67272e-05
-4.19734e-05
1.59038e-05
-5.69578e-05
1.49844e-05
-7.09667e-05
1.40089e-05
-8.40086e-05
1.30419e-05
-9.60219e-05
1.20132e-05
-0.000107065
1.10435e-05
-0.000117168
1.01025e-05
-0.000126358
9.19046e-06
-0.000134625
8.2664e-06
-0.000142
7.37495e-06
-0.000148502
6.50244e-06
-0.000154158
5.6562e-06
-0.000159014
4.85608e-06
-0.000163075
4.06066e-06
-0.000166391
3.31619e-06
-0.000168986
2.59466e-06
-0.000170913
1.92737e-06
-0.000172179
1.26614e-06
-0.000172792
6.12813e-07
-0.00017276
-3.19916e-08
-0.000172062
-6.98276e-07
-0.000170673
-1.38874e-06
-0.000168617
-2.05675e-06
-0.000165938
-2.67819e-06
-0.000162533
-3.40533e-06
-0.000158461
-4.07182e-06
-0.000153629
-4.83199e-06
-0.000148065
-5.56391e-06
-0.000141727
-6.33877e-06
-0.000134609
-7.11766e-06
-0.000126704
-7.90488e-06
-0.000117998
-8.70584e-06
-0.000108464
-9.53463e-06
-9.80997e-05
-1.0364e-05
-8.70214e-05
-1.10782e-05
-7.50922e-05
-1.19293e-05
-6.23502e-05
-1.2742e-05
-4.87904e-05
-1.35598e-05
-3.45043e-05
-1.42862e-05
-1.95475e-05
-1.49568e-05
-3.85442e-06
-1.56931e-05
1.22838e-05
-1.61382e-05
2.88392e-05
-1.65555e-05
4.57585e-05
-1.69194e-05
6.28132e-05
-1.70547e-05
7.9901e-05
-1.70879e-05
9.68478e-05
-1.69468e-05
0.000113409
-1.65615e-05
0.000129319
-1.59098e-05
0.00014458
-1.52608e-05
0.00015866
-1.40803e-05
0.000171455
-1.27948e-05
0.000182591
-1.11366e-05
0.000191746
-9.1547e-06
0.000198861
-7.11477e-06
0.000203506
-4.64557e-06
0.000205559
-2.05259e-06
0.000205007
5.51927e-07
0.000201772
3.23526e-06
0.000195884
5.88775e-06
0.000187485
8.39862e-06
0.000176743
1.07423e-05
0.000164019
1.27234e-05
0.000149592
1.44273e-05
0.000133716
1.5876e-05
0.000116738
1.69784e-05
9.90143e-05
1.77232e-05
8.08824e-05
1.81319e-05
6.26737e-05
1.82087e-05
4.44984e-05
1.81752e-05
2.67435e-05
1.77549e-05
9.42711e-06
1.73163e-05
-7.14854e-06
1.65756e-05
-2.29367e-05
1.57882e-05
-3.78621e-05
1.49254e-05
-5.18346e-05
1.39725e-05
-6.48224e-05
1.29878e-05
-7.68412e-05
1.20188e-05
-8.78753e-05
1.1034e-05
-9.79803e-05
1.0105e-05
-0.000107175
9.19461e-06
-0.000115509
8.33421e-06
-0.000123035
7.52623e-06
-0.000129808
6.77311e-06
-0.000135837
6.02865e-06
-0.000141179
5.342e-06
-0.000145853
4.67378e-06
-0.000149886
4.03319e-06
-0.000153284
3.39797e-06
-0.00015606
2.77565e-06
-0.000158189
2.12927e-06
-0.00015967
1.48072e-06
-0.000160481
8.11474e-07
-0.000160594
1.12413e-07
-0.000159902
-6.91359e-07
-0.000158413
-1.48965e-06
-0.000156142
-2.27028e-06
-0.000153002
-3.14031e-06
-0.000148974
-4.02772e-06
-0.000144067
-4.90689e-06
-0.000138168
-5.89991e-06
-0.00013134
-6.82751e-06
-0.000123647
-7.69254e-06
-0.000114938
-8.70953e-06
-0.000105318
-9.62e-06
-9.46825e-05
-1.06355e-05
-8.31489e-05
-1.15337e-05
-7.08625e-05
-1.22864e-05
-5.76154e-05
-1.32472e-05
-4.36662e-05
-1.39492e-05
-2.90864e-05
-1.45798e-05
-1.38587e-05
-1.52278e-05
1.72818e-06
-1.55869e-05
1.77837e-05
-1.60556e-05
3.40604e-05
-1.62767e-05
5.03711e-05
-1.63108e-05
6.67233e-05
-1.63523e-05
8.29355e-05
-1.62122e-05
9.87413e-05
-1.58058e-05
0.000114056
-1.53146e-05
0.000128624
-1.45685e-05
0.000142289
-1.36649e-05
0.000154817
-1.25275e-05
0.000165988
-1.1171e-05
0.000175677
-9.68976e-06
0.000183679
-8.00139e-06
-6.33778e-06
-2.26647e-05
3.25959e-05
-3.81453e-05
3.09587e-05
-5.28624e-05
2.94316e-05
-6.67293e-05
2.77312e-05
-7.96385e-05
2.58167e-05
-9.16374e-05
2.39966e-05
-0.00010267
2.20636e-05
-0.000112793
2.02457e-05
-0.000122006
1.84253e-05
-0.00013031
1.6607e-05
-0.000137758
1.4894e-05
-0.000144376
1.32321e-05
-0.000150179
1.16071e-05
-0.000155213
1.00698e-05
-0.000159519
8.6083e-06
-0.000163102
7.16897e-06
-0.000165991
5.78125e-06
-0.00016821
4.43447e-06
-0.000169757
3.09411e-06
-0.000170681
1.84752e-06
-0.00017095
5.41475e-07
-0.000170537
-8.2474e-07
-0.000169479
-2.11727e-06
-0.000167713
-3.53647e-06
-0.000165328
-4.76661e-06
-0.000162127
-6.40074e-06
-0.000158227
-7.80335e-06
-0.000153643
-9.16631e-06
-0.000148189
-1.09096e-05
-0.000141936
-1.25071e-05
-0.000134913
-1.40469e-05
-0.000126912
-1.60032e-05
-0.000118032
-1.77609e-05
-0.000108205
-1.96524e-05
-9.74369e-05
-2.15226e-05
-8.57378e-05
-2.34129e-05
-7.30845e-05
-2.53032e-05
-5.94769e-05
-2.72119e-05
-4.50589e-05
-2.88352e-05
-2.97585e-05
-3.05945e-05
-1.37011e-05
-3.21103e-05
3.12254e-06
-3.3643e-05
2.05675e-05
-3.48822e-05
3.8285e-05
-3.54275e-05
5.6308e-05
-3.60335e-05
7.44762e-05
-3.63275e-05
9.2463e-05
-3.59638e-05
0.000110172
-3.54049e-05
0.00012742
-3.44842e-05
0.000143873
-3.28978e-05
0.000159423
-3.10874e-05
0.000173773
-2.8694e-05
0.000186792
-2.60293e-05
0.000198294
-2.29908e-05
0.000208035
-1.94767e-05
0.00021593
-1.57857e-05
0.000221852
-1.18393e-05
0.000225682
-7.66169e-06
0.000227405
-3.4377e-06
0.000226924
9.58327e-07
0.000224285
5.27556e-06
0.000219526
9.51813e-06
0.000212761
1.35258e-05
0.000204128
1.72609e-05
0.00019376
2.07266e-05
0.000181798
2.39157e-05
0.000168456
2.66748e-05
0.000153914
2.90832e-05
0.000138409
3.09872e-05
0.000122038
3.27309e-05
0.00010514
3.37884e-05
8.79464e-05
3.43747e-05
7.04353e-05
3.50087e-05
5.29666e-05
3.49291e-05
3.57563e-05
3.44086e-05
1.87407e-05
3.40287e-05
2.35819e-06
3.275e-05
-1.35822e-05
3.18722e-05
-2.88666e-05
3.05614e-05
-4.33414e-05
2.89436e-05
-5.70611e-05
2.74357e-05
-6.99473e-05
2.57688e-05
-8.18815e-05
2.38696e-05
-9.29356e-05
2.21027e-05
-0.000103039
2.02095e-05
-0.000112209
1.83421e-05
-0.000120432
1.64362e-05
-0.000127702
1.45399e-05
-0.000134093
1.27846e-05
-0.000139586
1.09844e-05
-0.00014422
9.26717e-06
-0.000148082
7.7196e-06
-0.000151156
6.13633e-06
-0.000153463
4.61901e-06
-0.000155056
3.18301e-06
-0.00015594
1.7653e-06
-0.000156149
4.2403e-07
-0.000155679
-9.38353e-07
-0.00015459
-2.17925e-06
-0.000152982
-3.21468e-06
-0.000150737
-4.49369e-06
-0.000147863
-5.74681e-06
-0.000144508
-6.71062e-06
-0.000140502
-8.00649e-06
-0.000135929
-9.14492e-06
-0.000130738
-1.03756e-05
-0.000124925
-1.16366e-05
-0.000118568
-1.26964e-05
-0.000111536
-1.40659e-05
-0.000103856
-1.53619e-05
-9.55314e-05
-1.6643e-05
-8.65183e-05
-1.80248e-05
-7.67979e-05
-1.94416e-05
-6.63784e-05
-2.08377e-05
-5.52466e-05
-2.22567e-05
-4.33964e-05
-2.36976e-05
-3.08591e-05
-2.5068e-05
-1.7756e-05
-2.62058e-05
-3.9783e-06
-2.75548e-05
1.03662e-05
-2.86748e-05
2.52469e-05
-2.97564e-05
4.06066e-05
-3.07159e-05
5.63105e-05
-3.14096e-05
7.23011e-05
-3.19689e-05
8.84857e-05
-3.23632e-05
0.000104628
-3.22798e-05
0.000120658
-3.20496e-05
0.000136308
-3.12998e-05
0.000151408
-3.01887e-05
0.000165761
-2.86975e-05
0.000179126
-2.67192e-05
0.000191248
-2.42423e-05
0.000201946
-2.13959e-05
0.00021097
-1.80186e-05
0.000218085
-1.42416e-05
0.000223174
-1.01744e-05
0.000226102
-5.84257e-06
0.00022676
-1.32976e-06
0.000225139
3.2331e-06
0.000221111
8.05103e-06
0.000214802
1.26212e-05
0.000206305
1.69837e-05
0.000195716
2.11589e-05
0.000183272
2.48752e-05
0.000169146
2.82386e-05
0.00015357
3.11343e-05
0.000136795
3.35388e-05
0.000119007
3.55675e-05
0.000100587
3.68352e-05
8.17318e-05
3.76775e-05
6.27312e-05
3.79916e-05
4.38388e-05
3.77557e-05
2.52291e-05
3.72343e-05
7.16941e-06
3.61061e-05
-1.02245e-05
3.47627e-05
-2.68426e-05
3.32483e-05
-4.25061e-05
3.13241e-05
-5.71781e-05
2.93475e-05
-7.07731e-05
2.71927e-05
-8.32753e-05
2.49908e-05
-9.47369e-05
2.29309e-05
-0.000105097
2.07283e-05
-0.000114465
1.87428e-05
-0.000122806
1.66781e-05
-0.000130259
1.48829e-05
-0.000136852
1.32089e-05
-0.000142615
1.1528e-05
-0.000147574
9.92756e-06
-0.000151802
8.45642e-06
-0.000155266
6.9184e-06
-0.000158098
5.68134e-06
-0.000160187
4.16982e-06
-0.00016162
2.86312e-06
-0.000162412
1.59202e-06
-0.000162596
3.79076e-07
-0.000162265
-6.7374e-07
-0.000161327
-1.85647e-06
-0.000159813
-3.02586e-06
-0.00015771
-4.2059e-06
-0.000155001
-5.41769e-06
-0.000151697
-6.60387e-06
-0.000147735
-7.93349e-06
-0.000143108
-9.24873e-06
-0.00013778
-1.06477e-05
-0.000131734
-1.20922e-05
-0.000125089
-1.32944e-05
-0.000117678
-1.48254e-05
-0.000109541
-1.6273e-05
-0.000100572
-1.79377e-05
-9.07221e-05
-1.96954e-05
-7.99743e-05
-2.14988e-05
-6.82959e-05
-2.33643e-05
-5.57778e-05
-2.50148e-05
-4.23897e-05
-2.67789e-05
-2.81776e-05
-2.84236e-05
-1.32489e-05
-2.98515e-05
2.41909e-06
-3.13375e-05
1.8734e-05
-3.26241e-05
3.56324e-05
-3.37815e-05
5.29478e-05
-3.46136e-05
7.05216e-05
-3.51442e-05
8.81311e-05
-3.52112e-05
0.000105486
-3.47089e-05
0.000122369
-3.37532e-05
0.000138471
-3.21835e-05
0.000153565
-3.01709e-05
0.000167302
-2.74766e-05
0.000179497
-2.43766e-05
0.000189878
-2.07602e-05
0.000198191
-1.66119e-05
0.000204275
-1.21672e-05
0.00020799
-7.42262e-06
0.000209225
-2.47318e-06
0.000207948
2.53475e-06
0.000204071
7.7481e-06
0.000197708
1.27164e-05
0.00018899
1.74109e-05
0.000178071
2.18607e-05
0.000165245
2.56312e-05
0.000150731
2.90169e-05
0.00013486
3.17252e-05
0.000117902
3.39145e-05
0.000100073
3.56166e-05
8.17399e-05
3.66523e-05
6.3124e-05
3.72275e-05
4.4496e-05
3.72409e-05
2.6038e-05
3.69035e-05
8.02426e-06
3.60396e-05
-9.44718e-06
3.49183e-05
-2.61827e-05
3.34627e-05
-4.20876e-05
3.18088e-05
-5.70756e-05
2.99723e-05
-7.10893e-05
2.80226e-05
-8.41267e-05
2.60793e-05
-9.61407e-05
2.40271e-05
-0.00010718
2.20833e-05
-0.000117272
2.01939e-05
-0.000126471
1.83894e-05
-0.000134735
1.65303e-05
-0.000142102
1.47417e-05
-0.000148604
1.30048e-05
-0.000154267
1.13192e-05
-0.000159115
9.70393e-06
-0.000163175
8.12082e-06
-0.000166494
6.63563e-06
-0.000169077
5.17752e-06
-0.000171006
3.85562e-06
-0.000172279
2.53931e-06
-0.000172888
1.22223e-06
-0.000172855
-6.50162e-08
-0.000172154
-1.39899e-06
-0.000170755
-2.78834e-06
-0.000168694
-4.11726e-06
-0.000166019
-5.35401e-06
-0.000162614
-6.80962e-06
-0.000158542
-8.14454e-06
-0.000153708
-9.66605e-06
-0.000148146
-1.11259e-05
-0.000141804
-1.26806e-05
-0.00013468
-1.42412e-05
-0.000126775
-1.58103e-05
-0.000118076
-1.74052e-05
-0.000108544
-1.90663e-05
-9.81769e-05
-2.07311e-05
-8.70969e-05
-2.21582e-05
-7.51629e-05
-2.38633e-05
-6.24181e-05
-2.54869e-05
-4.88652e-05
-2.71126e-05
-3.45646e-05
-2.85869e-05
-1.95988e-05
-2.99227e-05
-3.8907e-06
-3.14012e-05
1.22487e-05
-3.22777e-05
2.88156e-05
-3.31224e-05
4.57389e-05
-3.38427e-05
6.28076e-05
-3.41234e-05
7.99008e-05
-3.41811e-05
9.68623e-05
-3.39084e-05
0.00011344
-3.31397e-05
0.00012936
-3.18291e-05
0.000144632
-3.05332e-05
0.000158714
-2.81622e-05
0.000171524
-2.56054e-05
0.000182679
-2.2291e-05
0.000191856
-1.83318e-05
0.000198982
-1.42411e-05
0.000203632
-9.29541e-06
0.000205691
-4.11178e-06
0.000205135
1.10812e-06
0.000201896
6.47439e-06
0.000196011
1.17723e-05
0.000187605
1.68045e-05
0.00017685
2.14971e-05
0.000164114
2.54602e-05
0.000149672
2.88685e-05
0.000133777
3.17708e-05
0.000116786
3.39699e-05
9.90492e-05
3.54599e-05
8.09073e-05
3.62738e-05
6.26848e-05
3.64312e-05
4.44962e-05
3.63638e-05
2.67344e-05
3.55167e-05
9.4058e-06
3.46449e-05
-7.17491e-06
3.31563e-05
-2.29692e-05
3.15824e-05
-3.78985e-05
2.98546e-05
-5.18753e-05
2.79493e-05
-6.48665e-05
2.59789e-05
-7.68866e-05
2.4039e-05
-8.79207e-05
2.2068e-05
-9.80256e-05
2.02099e-05
-0.000107223
1.83916e-05
-0.000115555
1.66669e-05
-0.000123083
1.50535e-05
-0.000129854
1.35441e-05
-0.000135882
1.20571e-05
-0.000141223
1.06832e-05
-0.000145896
9.34602e-06
-0.000149929
8.06709e-06
-0.000153331
6.79923e-06
-0.00015611
5.55522e-06
-0.000158238
4.25728e-06
-0.00015972
2.96229e-06
-0.000160536
1.62759e-06
-0.000160646
2.22864e-07
-0.000159952
-1.38533e-06
-0.000158464
-2.9779e-06
-0.000156199
-4.53578e-06
-0.000153058
-6.28073e-06
-0.000149029
-8.05725e-06
-0.000144125
-9.81087e-06
-0.000138223
-1.1802e-05
-0.000131395
-1.36549e-05
-0.000123701
-1.53865e-05
-0.000114988
-1.74229e-05
-0.000105366
-1.92419e-05
-9.47305e-05
-2.12712e-05
-8.31925e-05
-2.30716e-05
-7.09048e-05
-2.45741e-05
-5.76541e-05
-2.64979e-05
-4.36986e-05
-2.79047e-05
-2.91129e-05
-2.91657e-05
-1.38824e-05
-3.04583e-05
1.70975e-06
-3.11791e-05
1.7772e-05
-3.21178e-05
3.40543e-05
-3.25591e-05
5.03689e-05
-3.26254e-05
6.67279e-05
-3.27114e-05
8.29452e-05
-3.24295e-05
9.87574e-05
-3.16181e-05
0.000114079
-3.06361e-05
0.000128652
-2.91415e-05
0.000142323
-2.73368e-05
0.000154861
-2.50654e-05
0.000166038
-2.23481e-05
0.000175735
-1.93866e-05
0.000183749
-1.60152e-05
-1.26796e-05
-2.27269e-05
4.89028e-05
-3.82131e-05
4.64448e-05
-5.29346e-05
4.41532e-05
-6.6805e-05
4.16016e-05
-7.97168e-05
3.87286e-05
-9.17182e-05
3.59979e-05
-0.000102752
3.30975e-05
-0.000112876
3.03699e-05
-0.000122088
2.76371e-05
-0.000130391
2.49105e-05
-0.000137839
2.2342e-05
-0.000144453
1.98456e-05
-0.000150256
1.74099e-05
-0.000155289
1.51034e-05
-0.000159594
1.29133e-05
-0.000163177
1.07511e-05
-0.000166065
8.66954e-06
-0.000168283
6.65288e-06
-0.000169831
4.64235e-06
-0.000170745
2.76118e-06
-0.000171002
7.98529e-07
-0.000170589
-1.2384e-06
-0.000169532
-3.17425e-06
-0.000167779
-5.28865e-06
-0.000165387
-7.15918e-06
-0.000162179
-9.60817e-06
-0.000158282
-1.17013e-05
-0.000153703
-1.37453e-05
-0.000148251
-1.63609e-05
-0.000141999
-1.8759e-05
-0.000134979
-2.10671e-05
-0.000126982
-2.40003e-05
-0.000118104
-2.66387e-05
-0.000108274
-2.94823e-05
-9.75018e-05
-3.22952e-05
-8.58146e-05
-3.51002e-05
-7.31545e-05
-3.79634e-05
-5.95468e-05
-4.08196e-05
-4.51277e-05
-4.32543e-05
-2.98181e-05
-4.59042e-05
-1.37539e-05
-4.81745e-05
3.08157e-06
-5.04786e-05
2.05452e-05
-5.23458e-05
3.82666e-05
-5.3149e-05
5.63061e-05
-5.4073e-05
7.44942e-05
-5.45156e-05
9.24896e-05
-5.39593e-05
0.000110216
-5.31315e-05
0.000127487
-5.17547e-05
0.000143946
-4.93572e-05
0.00015952
-4.66613e-05
0.000173885
-4.30589e-05
0.000186911
-3.90559e-05
0.00019843
-3.45098e-05
0.000208184
-2.92303e-05
0.000216089
-2.36912e-05
0.000222016
-1.77666e-05
0.000225841
-1.14867e-05
0.00022757
-5.16688e-06
0.000227084
1.44495e-06
0.000224437
7.922e-06
0.000219682
1.42733e-05
0.000212913
2.02951e-05
0.000204268
2.59056e-05
0.000193887
3.1107e-05
0.00018191
3.58932e-05
0.000168551
4.00334e-05
0.000154015
4.36191e-05
0.000138465
4.65371e-05
0.000122083
4.91135e-05
0.000105173
5.0698e-05
8.79643e-05
5.15837e-05
7.04314e-05
5.25416e-05
5.29505e-05
5.241e-05
3.57267e-05
5.16324e-05
1.87085e-05
5.10468e-05
2.31124e-06
4.91473e-05
-1.36419e-05
4.78253e-05
-2.8937e-05
4.58565e-05
-4.34144e-05
4.34209e-05
-5.71366e-05
4.1158e-05
-7.00308e-05
3.8663e-05
-8.19702e-05
3.5809e-05
-9.30322e-05
3.31646e-05
-0.000103135
3.03124e-05
-0.000112302
2.75092e-05
-0.000120538
2.4672e-05
-0.000127802
2.18036e-05
-0.000134191
1.9174e-05
-0.000139695
1.64886e-05
-0.00014433
1.39014e-05
-0.000148183
1.15732e-05
-0.000151267
9.21986e-06
-0.000153582
6.93441e-06
-0.000155184
4.78482e-06
-0.000156069
2.65069e-06
-0.000156271
6.25558e-07
-0.000155799
-1.41037e-06
-0.000154709
-3.26879e-06
-0.000153098
-4.82627e-06
-0.000150866
-6.72511e-06
-0.000147999
-8.61466e-06
-0.000144635
-1.00741e-05
-0.000140641
-1.20002e-05
-0.000136062
-1.37243e-05
-0.000130866
-1.55716e-05
-0.000125094
-1.74083e-05
-0.000118703
-1.90874e-05
-0.000111667
-2.11024e-05
-0.000103995
-2.3034e-05
-9.56371e-05
-2.50008e-05
-8.66502e-05
-2.70118e-05
-7.69314e-05
-2.91605e-05
-6.65105e-05
-3.12586e-05
-5.53827e-05
-3.33846e-05
-4.35275e-05
-3.55528e-05
-3.09952e-05
-3.76004e-05
-1.78834e-05
-3.93176e-05
-4.10065e-06
-4.13376e-05
1.02572e-05
-4.30327e-05
2.51441e-05
-4.46434e-05
4.05212e-05
-4.6093e-05
5.62206e-05
-4.71091e-05
7.2224e-05
-4.79724e-05
8.83991e-05
-4.85384e-05
0.000104569
-4.845e-05
0.000120597
-4.80771e-05
0.000136288
-4.69911e-05
0.000151406
-4.53069e-05
0.000165781
-4.3073e-05
0.00017917
-4.01079e-05
0.000191311
-3.6383e-05
0.000202009
-3.20941e-05
0.000211038
-2.7048e-05
0.00021818
-2.13841e-05
0.000223286
-1.528e-05
0.000226245
-8.80214e-06
0.000226882
-1.96598e-06
0.000225233
4.8815e-06
0.000221205
1.2079e-05
0.000214895
1.89309e-05
0.000206389
2.54895e-05
0.000195784
3.17646e-05
0.000183319
3.73396e-05
0.000169171
4.23868e-05
0.000153576
4.67288e-05
0.000136787
5.03277e-05
0.000118974
5.33812e-05
0.000100542
5.52667e-05
8.16472e-05
5.65725e-05
6.26338e-05
5.70049e-05
4.3704e-05
5.66854e-05
2.50994e-05
5.58389e-05
7.02433e-06
5.41811e-05
-1.04064e-05
5.21934e-05
-2.70041e-05
4.9846e-05
-4.26769e-05
4.6997e-05
-5.73532e-05
4.40238e-05
-7.09466e-05
4.07861e-05
-8.34542e-05
3.74983e-05
-9.49018e-05
3.43784e-05
-0.000105257
3.10834e-05
-0.00011462
2.81059e-05
-0.000122958
2.50162e-05
-0.00013044
2.23649e-05
-0.000137006
1.97745e-05
-0.000142769
1.72912e-05
-0.000147718
1.48769e-05
-0.00015195
1.2688e-05
-0.000155444
1.04127e-05
-0.000158238
8.47515e-06
-0.000160334
6.2663e-06
-0.000161772
4.30029e-06
-0.000162571
2.39113e-06
-0.000162742
5.50812e-07
-0.000162413
-1.00281e-06
-0.000161468
-2.80217e-06
-0.000159959
-4.5342e-06
-0.00015782
-6.34531e-06
-0.000155148
-8.08918e-06
-0.000151838
-9.91461e-06
-0.000147879
-1.18919e-05
-0.000143255
-1.38729e-05
-0.000137914
-1.5989e-05
-0.000131895
-1.81113e-05
-0.000125247
-1.9942e-05
-0.000117837
-2.22359e-05
-0.000109686
-2.44243e-05
-0.000100725
-2.68983e-05
-9.08751e-05
-2.95455e-05
-8.01382e-05
-3.22358e-05
-6.84748e-05
-3.50277e-05
-5.58917e-05
-3.75981e-05
-4.25357e-05
-4.01349e-05
-2.83295e-05
-4.26299e-05
-1.33859e-05
-4.47952e-05
2.29432e-06
-4.70178e-05
1.86215e-05
-4.89513e-05
3.55148e-05
-5.06749e-05
5.28552e-05
-5.19541e-05
7.04469e-05
-5.2736e-05
8.80591e-05
-5.28235e-05
0.000105463
-5.21125e-05
0.000122362
-5.06524e-05
0.00013849
-4.83125e-05
0.000153615
-4.5295e-05
0.00016737
-4.12319e-05
0.000179578
-3.6585e-05
0.000189969
-3.11516e-05
0.000198322
-2.49648e-05
0.000204401
-1.82459e-05
0.000208124
-1.1146e-05
0.000209366
-3.71537e-06
0.000208061
3.83946e-06
0.00020418
1.16293e-05
0.00019781
1.90865e-05
0.000189086
2.61344e-05
0.000178178
3.27691e-05
0.000165298
3.85113e-05
0.000150757
4.35579e-05
0.000134859
4.76231e-05
0.000117857
5.09164e-05
0.000100032
5.34412e-05
8.16746e-05
5.50097e-05
6.30411e-05
5.58609e-05
4.4385e-05
5.58969e-05
2.59067e-05
5.53818e-05
7.90818e-06
5.40381e-05
-9.59255e-06
5.2419e-05
-2.63433e-05
5.02134e-05
-4.2235e-05
4.77004e-05
-5.72282e-05
4.49655e-05
-7.12529e-05
4.20474e-05
-8.4281e-05
3.91074e-05
-9.62952e-05
3.60413e-05
-0.000107339
3.31271e-05
-0.000117429
3.02836e-05
-0.000126624
2.75852e-05
-0.000134895
2.48009e-05
-0.00014226
2.21072e-05
-0.000148737
1.94815e-05
-0.000154417
1.69989e-05
-0.000159267
1.45537e-05
-0.00016332
1.21742e-05
-0.000166649
9.96489e-06
-0.000169229
7.75716e-06
-0.000171161
5.78791e-06
-0.000172433
3.81114e-06
-0.000173034
1.82309e-06
-0.000173004
-9.46267e-08
-0.000172291
-2.11268e-06
-0.000170894
-4.18511e-06
-0.000168838
-6.17305e-06
-0.000166166
-8.02615e-06
-0.000162767
-1.02088e-05
-0.000158685
-1.2226e-05
-0.00015386
-1.44917e-05
-0.000148298
-1.66878e-05
-0.000141952
-1.90262e-05
-0.000134826
-2.13676e-05
-0.000126903
-2.37328e-05
-0.000118228
-2.60806e-05
-0.0001087
-2.85942e-05
-9.83219e-05
-3.11093e-05
-8.72351e-05
-3.3245e-05
-7.52999e-05
-3.57985e-05
-6.25516e-05
-3.82354e-05
-4.89938e-05
-4.06705e-05
-3.46692e-05
-4.29116e-05
-1.97086e-05
-4.48833e-05
-4.01227e-06
-4.70976e-05
1.2176e-05
-4.8466e-05
2.87573e-05
-4.97037e-05
4.56933e-05
-5.07789e-05
6.27819e-05
-5.1212e-05
7.98866e-05
-5.12859e-05
9.68748e-05
-5.08966e-05
0.000113463
-4.97282e-05
0.000129396
-4.77615e-05
0.000144699
-4.58364e-05
0.0001588
-4.22638e-05
0.000171639
-3.84447e-05
0.000182806
-3.34572e-05
0.00019201
-2.75359e-05
0.00019916
-2.13911e-05
0.000203818
-1.39534e-05
0.00020589
-6.18467e-06
0.000205327
1.67129e-06
0.000202081
9.72025e-06
0.000196205
1.76481e-05
0.000187787
2.5223e-05
0.000177011
3.22725e-05
0.00016425
3.82213e-05
0.000149782
4.33371e-05
0.000133849
4.77034e-05
0.00011684
5.0979e-05
9.90808e-05
5.32188e-05
8.09292e-05
5.44254e-05
6.26766e-05
5.46838e-05
4.44658e-05
5.45746e-05
2.66942e-05
5.32883e-05
9.34627e-06
5.19928e-05
-7.23981e-06
4.97424e-05
-2.30419e-05
4.73845e-05
-3.79766e-05
4.47894e-05
-5.19568e-05
4.19295e-05
-6.49485e-05
3.89706e-05
-7.69698e-05
3.60602e-05
-8.80032e-05
3.31015e-05
-9.81029e-05
3.03096e-05
-0.000107298
2.75863e-05
-0.000115631
2.50003e-05
-0.000123163
2.25851e-05
-0.000129928
2.03098e-05
-0.00013595
1.80791e-05
-0.000141289
1.60215e-05
-0.000145962
1.4019e-05
-0.000150001
1.21066e-05
-0.000153403
1.02013e-05
-0.000156178
8.32961e-06
-0.000158309
6.3889e-06
-0.000159792
4.4455e-06
-0.000160601
2.43593e-06
-0.000160706
3.28337e-07
-0.000160014
-2.07727e-06
-0.000158529
-4.46271e-06
-0.000156275
-6.79037e-06
-0.000153124
-9.43208e-06
-0.000149103
-1.20779e-05
-0.000144207
-1.47072e-05
-0.000138298
-1.77106e-05
-0.000131469
-2.04838e-05
-0.000123771
-2.30849e-05
-0.000115056
-2.61379e-05
-0.000105438
-2.88602e-05
-9.47964e-05
-3.19125e-05
-8.32596e-05
-3.46084e-05
-7.09677e-05
-3.6866e-05
-5.77155e-05
-3.97501e-05
-4.37524e-05
-4.18679e-05
-2.91585e-05
-4.37596e-05
-1.39245e-05
-4.56923e-05
1.68829e-06
-4.67919e-05
1.77627e-05
-4.81923e-05
3.4057e-05
-4.88535e-05
5.03821e-05
-4.89506e-05
6.67492e-05
-4.90786e-05
8.29724e-05
-4.86528e-05
9.8792e-05
-4.74377e-05
0.000114122
-4.59665e-05
0.000128706
-4.37256e-05
0.000142386
-4.10165e-05
0.000154936
-3.7616e-05
0.000166131
-3.35427e-05
0.000175846
-2.91019e-05
0.000183882
-2.40509e-05
-1.90368e-05
-2.28203e-05
6.52204e-05
-3.83149e-05
6.19394e-05
-5.30437e-05
5.8882e-05
-6.69197e-05
5.54776e-05
-7.98356e-05
5.16446e-05
-9.18397e-05
4.8002e-05
-0.000102875
4.41333e-05
-0.000113001
4.04958e-05
-0.000122211
3.68465e-05
-0.000130514
3.32134e-05
-0.000137963
2.97916e-05
-0.000144572
2.64543e-05
-0.000150374
2.32114e-05
-0.000155408
2.01375e-05
-0.000159714
1.72195e-05
-0.000163293
1.43302e-05
-0.000166177
1.15532e-05
-0.000168396
8.87183e-06
-0.000169946
6.19252e-06
-0.000170851
3.66623e-06
-0.000171089
1.03626e-06
-0.000170666
-1.66139e-06
-0.00016961
-4.2294e-06
-0.00016788
-7.01926e-06
-0.000165476
-9.56301e-06
-0.000162258
-1.28266e-05
-0.000158365
-1.55942e-05
-0.000153791
-1.83189e-05
-0.000148344
-2.18076e-05
-0.000142096
-2.50075e-05
-0.000135079
-2.80838e-05
-0.000127087
-3.19922e-05
-0.000118215
-3.55111e-05
-0.000108378
-3.9319e-05
-9.76036e-05
-4.30699e-05
-8.59343e-05
-4.67695e-05
-7.32618e-05
-5.06359e-05
-5.96521e-05
-5.44294e-05
-4.52348e-05
-5.76717e-05
-2.99072e-05
-6.12318e-05
-1.38326e-05
-6.42492e-05
3.02094e-06
-6.73321e-05
2.05021e-05
-6.98271e-05
3.82406e-05
-7.08875e-05
5.63048e-05
-7.21373e-05
7.45239e-05
-7.27348e-05
9.2531e-05
-7.19665e-05
0.000110286
-7.08864e-05
0.000127591
-6.90601e-05
0.000144058
-6.58242e-05
0.000159663
-6.22666e-05
0.000174044
-5.74392e-05
0.000187093
-5.21056e-05
0.000198635
-4.60516e-05
0.000208402
-3.89973e-05
0.000216333
-3.16228e-05
0.000222265
-2.36984e-05
0.000226078
-1.52996e-05
0.000227808
-6.89703e-06
0.000227315
1.93803e-06
0.000224669
1.05677e-05
0.000219918
1.90249e-05
0.00021314
2.70733e-05
0.000204478
3.45676e-05
0.000194077
4.15079e-05
0.000182076
4.78933e-05
0.000168693
5.34172e-05
0.000154132
5.81797e-05
0.00013855
6.21189e-05
0.000122149
6.5514e-05
0.000105226
6.76215e-05
8.79891e-05
6.88205e-05
7.0426e-05
7.01047e-05
5.29273e-05
6.99087e-05
3.56813e-05
6.88784e-05
1.8664e-05
6.80641e-05
2.23678e-06
6.55745e-05
-1.3732e-05
6.3794e-05
-2.90411e-05
6.11656e-05
-4.35306e-05
5.79104e-05
-5.72764e-05
5.49037e-05
-7.01617e-05
5.15484e-05
-8.21099e-05
4.77572e-05
-9.3182e-05
4.42367e-05
-0.000103281
4.04117e-05
-0.000112439
3.66666e-05
-0.000120708
3.29409e-05
-0.000127968
2.90642e-05
-0.000134333
2.55388e-05
-0.000139865
2.20201e-05
-0.000144501
1.85375e-05
-0.000148334
1.54067e-05
-0.000151446
1.23316e-05
-0.000153767
9.25578e-06
-0.000155382
6.39897e-06
-0.00015627
3.5393e-06
-0.000156461
8.16312e-07
-0.000155988
-1.88328e-06
-0.000154939
-4.31764e-06
-0.00015328
-6.48539e-06
-0.000151066
-8.93915e-06