/*--------------------------------*- C++ -*----------------------------------*\
| =========                 |                                                 |
| \\      /  F ield         | OpenFOAM: The Open Source CFD Toolbox           |
|  \\    /   O peration     | Version:  3.0.1                                 |
|   \\  /    A nd           | Web:      www.OpenFOAM.org                      |
|    \\/     M anipulation  |                                                 |
\*---------------------------------------------------------------------------*/
FoamFile
{
    version     2.0;
    format      ascii;
    class       surfaceScalarField;
    location    "23.4";
    object      alphaPhi;
}
// * * * * * * * * * * * * * * * * * * * * * * * * * * * * * * * * * * * * * //

dimensions      [0 3 -1 0 0 0 0];

internalField   nonuniform List<scalar> 
42423
(
-0.000139763
-7.45303e-06
-0.000131175
-8.58836e-06
-0.00012162
-9.55498e-06
-0.000111079
-1.05413e-05
-9.92895e-05
-1.17895e-05
-8.65717e-05
-1.27179e-05
-7.26092e-05
-1.39625e-05
-5.7623e-05
-1.49863e-05
-4.18624e-05
-1.57606e-05
-2.50953e-05
-1.67672e-05
-7.53938e-06
-1.7556e-05
1.05733e-05
-1.81128e-05
2.9324e-05
-1.87507e-05
4.84834e-05
-1.91595e-05
6.78672e-05
-1.93839e-05
8.72736e-05
-1.94064e-05
0.000106264
-1.89903e-05
0.000124714
-1.84502e-05
0.000142442
-1.77284e-05
0.000158987
-1.65442e-05
0.000174188
-1.52013e-05
0.000187856
-1.36682e-05
0.000199644
-1.17882e-05
0.000209402
-9.75824e-06
0.000216996
-7.59337e-06
0.000222247
-5.25189e-06
0.000225
-2.75225e-06
0.000225203
-2.03009e-07
0.00022289
2.31242e-06
0.000218057
4.8336e-06
0.000210793
7.26302e-06
0.000201323
9.4706e-06
0.00018975
1.15733e-05
0.000176412
1.3337e-05
0.000161467
1.49451e-05
0.000145165
1.63019e-05
0.000127722
1.74432e-05
0.000109548
1.81741e-05
9.07337e-05
1.88143e-05
7.16444e-05
1.90893e-05
5.25738e-05
1.90706e-05
3.36161e-05
1.89577e-05
1.49544e-05
1.86618e-05
-3.16863e-06
1.8123e-05
-2.0645e-05
1.74764e-05
-3.73918e-05
1.67468e-05
-5.32922e-05
1.59004e-05
-6.82774e-05
1.49852e-05
-8.23328e-05
1.40555e-05
-9.53868e-05
1.3054e-05
-0.000107445
1.20578e-05
-0.000118554
1.11089e-05
-0.000128671
1.0117e-05
-0.000137888
9.2176e-06
-0.000146171
8.28265e-06
-0.000153566
7.39541e-06
-0.000160116
6.5493e-06
-0.000165812
5.69611e-06
-0.000170704
4.89209e-06
-0.000174811
4.10735e-06
-0.000178111
3.29975e-06
-0.000180712
2.60118e-06
-0.000182523
1.81058e-06
-0.000183557
1.03405e-06
-0.000183912
3.54878e-07
-0.000183417
-4.94446e-07
-0.000182168
-1.24918e-06
-0.000180079
-2.08924e-06
-0.000177102
-2.97701e-06
-0.000173408
-3.69409e-06
-0.000168816
-4.592e-06
-0.000163372
-5.44346e-06
-0.000157088
-6.28451e-06
-0.000150048
-7.03977e-06
-0.000142019
-8.02896e-06
-0.000133205
-8.81397e-06
-0.000123445
-9.75994e-06
-0.000112869
-1.05761e-05
-0.000101464
-1.14059e-05
-8.92583e-05
-1.22054e-05
-7.628e-05
-1.29783e-05
-6.25216e-05
-1.37585e-05
-4.80344e-05
-1.44872e-05
-3.28301e-05
-1.52044e-05
-1.70322e-05
-1.57979e-05
-6.52459e-07
-1.63798e-05
1.6165e-05
-1.68176e-05
3.33782e-05
-1.72132e-05
5.08329e-05
-1.74548e-05
6.8358e-05
-1.75251e-05
8.58066e-05
-1.74488e-05
0.000102882
-1.70755e-05
0.000119437
-1.65553e-05
0.000135292
-1.58551e-05
0.000150155
-1.48626e-05
0.000163835
-1.36804e-05
0.000176036
-1.22012e-05
0.000186576
-1.05401e-05
0.000195222
-8.6455e-06
0.000201785
-6.56378e-06
0.000206186
-4.40058e-06
0.000208285
-2.09952e-06
0.000208001
2.84804e-07
0.000205385
2.61581e-06
0.000200259
5.12588e-06
0.000192814
7.44466e-06
0.000183145
9.66925e-06
0.000171375
1.17696e-05
0.000157739
1.36359e-05
0.000142426
1.53131e-05
0.000125714
1.67118e-05
0.000107917
1.77968e-05
8.92624e-05
1.86548e-05
7.00523e-05
1.92101e-05
5.06201e-05
1.94322e-05
3.11953e-05
1.94248e-05
1.20398e-05
1.91555e-05
-6.62735e-06
1.86672e-05
-2.4593e-05
1.79656e-05
-4.17186e-05
1.71256e-05
-5.79724e-05
1.62538e-05
-7.31208e-05
1.51484e-05
-8.72108e-05
1.409e-05
-0.000100151
1.29398e-05
-0.000112018
1.1867e-05
-0.000122693
1.06757e-05
-0.000132316
9.62248e-06
-0.000140867
8.55081e-06
-0.000148381
7.51481e-06
-0.000154923
6.54196e-06
-0.000160522
5.59855e-06
-0.000165215
4.69296e-06
-0.000169109
3.89421e-06
-0.000172274
3.16477e-06
-0.000174678
2.40443e-06
-0.000176412
1.73328e-06
-0.000177524
1.11198e-06
-0.000178077
5.52924e-07
-0.000178094
1.76423e-08
-0.000177598
-4.95972e-07
-0.000176534
-1.0639e-06
-0.000174977
-1.55766e-06
-0.000172942
-2.03449e-06
-0.00017035
-2.59238e-06
-0.000167263
-3.0869e-06
-0.000163541
-3.72243e-06
-0.00015908
-4.46045e-06
-0.000153961
-5.1191e-06
-0.000148023
-5.9386e-06
-0.000141231
-6.79186e-06
-0.000133692
-7.539e-06
-0.000125136
-8.55567e-06
-0.000115751
-9.38519e-06
-0.000105393
-1.03582e-05
-9.40308e-05
-1.1362e-05
-8.17311e-05
-1.22998e-05
-6.84372e-05
-1.32939e-05
-5.41818e-05
-1.42555e-05
-3.90979e-05
-1.50839e-05
-2.31523e-05
-1.59457e-05
-6.49577e-06
-1.66566e-05
1.07592e-05
-1.7255e-05
2.84995e-05
-1.77405e-05
4.6534e-05
-1.80346e-05
6.46876e-05
-1.81536e-05
8.27351e-05
-1.80476e-05
0.000100462
-1.77269e-05
0.000117569
-1.71073e-05
0.000133879
-1.63098e-05
0.0001491
-1.52209e-05
0.000162984
-1.38841e-05
0.000175292
-1.23087e-05
0.000185722
-1.043e-05
0.000194155
-8.43272e-06
0.000200434
-6.27931e-06
0.000204442
-4.00751e-06
0.000206143
-1.70186e-06
0.000205433
7.10793e-07
0.000202378
3.0545e-06
0.000197011
5.36699e-06
0.000189463
7.54773e-06
0.000179907
9.55664e-06
0.000168493
1.1414e-05
0.000155429
1.30634e-05
0.000140927
1.45018e-05
0.000125224
1.5703e-05
0.000108578
1.66463e-05
9.12086e-05
1.73694e-05
7.33925e-05
1.78161e-05
5.53245e-05
1.8068e-05
3.72272e-05
1.80972e-05
1.93526e-05
1.78746e-05
1.79473e-06
1.75578e-05
-1.5244e-05
1.70388e-05
-3.16502e-05
1.64062e-05
-4.73208e-05
1.56706e-05
-6.21371e-05
1.48162e-05
-7.60595e-05
1.39225e-05
-8.90106e-05
1.29511e-05
-0.00010098
1.19689e-05
-0.000112039
1.10593e-05
-0.000122049
1.00097e-05
-0.000131116
9.06732e-06
-0.000139233
8.11743e-06
-0.000146489
7.25532e-06
-0.000152811
6.32218e-06
-0.000158279
5.46804e-06
-0.000162953
4.67431e-06
-0.000166816
3.86328e-06
-0.000169918
3.10123e-06
-0.000172257
2.33971e-06
-0.000173877
1.61948e-06
-0.000174855
9.77915e-07
-0.000175117
2.62183e-07
-0.000174731
-3.86518e-07
-0.000173684
-1.04608e-06
-0.00017189
-1.79423e-06
-0.000169508
-2.3823e-06
-0.000166422
-3.08633e-06
-0.000162606
-3.81518e-06
-0.000158193
-4.41349e-06
-0.000152944
-5.24874e-06
-0.000147013
-5.93163e-06
-0.000140292
-6.72072e-06
-0.000132595
-7.69749e-06
-0.000124035
-8.56002e-06
-0.00011458
-9.45423e-06
-0.000104212
-1.03688e-05
-9.29908e-05
-1.12208e-05
-8.09389e-05
-1.2052e-05
-6.80305e-05
-1.29084e-05
-5.43206e-05
-1.37099e-05
-3.97925e-05
-1.45281e-05
-2.46172e-05
-1.51754e-05
-8.72884e-06
-1.58884e-05
7.74013e-06
-1.6469e-05
2.46615e-05
-1.69214e-05
4.19375e-05
-1.72761e-05
5.93933e-05
-1.74558e-05
7.68824e-05
-1.74892e-05
9.4175e-05
-1.72927e-05
0.000111077
-1.69023e-05
0.000127361
-1.62841e-05
0.000142784
-1.54224e-05
0.000157178
-1.4394e-05
0.000170279
-1.31019e-05
0.00018194
-1.16604e-05
0.000191858
-9.91858e-06
0.000199861
-8.00296e-06
0.000205857
-5.99604e-06
0.000209643
-3.78607e-06
0.000211071
-1.42807e-06
0.000210231
8.39746e-07
0.000207099
3.13197e-06
0.000201614
5.4858e-06
0.000193927
7.68673e-06
0.000184214
9.71319e-06
0.000172604
1.16097e-05
0.000159399
1.32046e-05
0.000144784
1.46153e-05
0.000129048
1.57357e-05
0.000112446
1.6602e-05
9.52342e-05
1.72118e-05
7.76648e-05
1.75694e-05
6.00006e-05
1.76642e-05
4.24116e-05
1.75889e-05
2.51233e-05
1.72884e-05
8.28156e-06
1.68417e-05
-7.99421e-06
1.62758e-05
-2.36281e-05
1.56339e-05
-3.84329e-05
1.48048e-05
-5.24058e-05
1.39729e-05
-6.55401e-05
1.31343e-05
-7.77995e-05
1.22594e-05
-8.9056e-05
1.12566e-05
-9.94642e-05
1.04081e-05
-0.000109013
9.54905e-06
-0.000117571
8.55809e-06
-0.000125353
7.78186e-06
-0.000132231
6.87807e-06
-0.000138228
5.99713e-06
-0.00014345
5.22219e-06
-0.000147833
4.38221e-06
-0.000151435
3.60279e-06
-0.000154255
2.81998e-06
-0.000156268
2.01242e-06
-0.000157581
1.31325e-06
-0.000157978
3.96952e-07
-0.000157656
-3.21619e-07
-0.000156413
-1.24301e-06
-0.000154472
-1.94097e-06
-0.000151814
-2.65838e-06
-0.000148336
-3.47761e-06
-0.000144131
-4.20595e-06
-0.000139106
-5.02408e-06
-0.000133352
-5.75448e-06
-0.000126762
-6.59036e-06
-0.000119476
-7.28578e-06
-0.000111362
-8.11368e-06
-0.000102483
-8.8793e-06
-9.29258e-05
-9.55704e-06
-8.23836e-05
-1.05423e-05
-7.1423e-05
-1.09606e-05
-5.9647e-05
-1.17761e-05
-4.70564e-05
-1.25905e-05
-3.39616e-05
-1.30949e-05
-2.02246e-05
-1.3737e-05
-5.91896e-06
-1.43056e-05
9.0487e-06
-1.49677e-05
2.4558e-05
-1.55094e-05
4.03933e-05
-1.58353e-05
5.6618e-05
-1.62248e-05
7.31232e-05
-1.65052e-05
8.96366e-05
-1.65134e-05
0.000106214
-1.6577e-05
0.000122592
-1.63784e-05
0.000138597
-1.60051e-05
0.000154122
-1.55252e-05
0.000168784
-1.46615e-05
0.000182463
-1.36795e-05
0.000195024
-1.25608e-05
0.000206082
-1.10584e-05
0.000215528
-9.44626e-06
0.000223165
-7.63639e-06
0.000228871
-5.70659e-06
0.000232501
-3.62974e-06
0.000233919
-1.41803e-06
0.000232997
9.21618e-07
0.000229687
3.31031e-06
0.000223931
5.75643e-06
0.00021601
7.92097e-06
0.000206013
9.99699e-06
0.00019399
1.20229e-05
0.000180343
1.36465e-05
0.000165311
1.50319e-05
0.000149132
1.61794e-05
0.000132007
1.71251e-05
0.000114302
1.77044e-05
9.63391e-05
1.79633e-05
7.82728e-05
1.80663e-05
6.03337e-05
1.79392e-05
4.27812e-05
1.75524e-05
2.57758e-05
1.70054e-05
9.48607e-06
1.62897e-05
-6.06658e-06
1.55526e-05
-2.06998e-05
1.46332e-05
-3.43478e-05
1.3648e-05
-4.69997e-05
1.26519e-05
-5.8625e-05
1.16253e-05
-6.92151e-05
1.05902e-05
-7.88011e-05
9.58593e-06
-8.74015e-05
8.60043e-06
-9.50693e-05
7.66776e-06
-0.000101837
6.7673e-06
-0.000107744
5.90772e-06
-0.000112846
5.10213e-06
4.26775e-06
-0.000139805
-1.49011e-05
-0.00013122
-1.71737e-05
-0.000121668
-1.91074e-05
-0.000111128
-2.10808e-05
-9.93401e-05
-2.3578e-05
-8.66193e-05
-2.54387e-05
-7.26582e-05
-2.79238e-05
-5.76679e-05
-2.99766e-05
-4.19125e-05
-3.15161e-05
-2.51302e-05
-3.35496e-05
-7.56631e-06
-3.51199e-05
1.05478e-05
-3.6227e-05
2.9317e-05
-3.752e-05
4.84838e-05
-3.83264e-05
6.78689e-05
-3.87691e-05
8.7288e-05
-3.88256e-05
0.000106294
-3.79967e-05
0.000124765
-3.69206e-05
0.000142505
-3.5469e-05
0.000159058
-3.30972e-05
0.000174281
-3.04241e-05
0.000187958
-2.73454e-05
0.000199749
-2.35799e-05
0.000209533
-1.95419e-05
0.000217139
-1.51991e-05
0.00022238
-1.04938e-05
0.000225133
-5.50532e-06
0.000225334
-4.03954e-07
0.000223011
4.63525e-06
0.000218177
9.6682e-06
0.000210911
1.45292e-05
0.000201432
1.89495e-05
0.000189848
2.31569e-05
0.000176499
2.66858e-05
0.000161546
2.98985e-05
0.00014523
3.26172e-05
0.000127773
3.49007e-05
0.000109589
3.63584e-05
9.07615e-05
3.76413e-05
7.16621e-05
3.81886e-05
5.25821e-05
3.81505e-05
3.36159e-05
3.79238e-05
1.49415e-05
3.73362e-05
-3.18463e-06
3.62491e-05
-2.06676e-05
3.49593e-05
-3.7421e-05
3.35002e-05
-5.33272e-05
3.18065e-05
-6.83172e-05
2.99752e-05
-8.23768e-05
2.8115e-05
-9.54358e-05
2.61129e-05
-0.0001075
2.41222e-05
-0.00011861
2.22191e-05
-0.00012873
2.02364e-05
-0.000137952
1.84398e-05
-0.000146241
1.65718e-05
-0.000153638
1.47926e-05
-0.000160193
1.31038e-05
-0.000165888
1.13916e-05
-0.000170781
9.78469e-06
-0.000174888
8.21437e-06
-0.000178184
6.59593e-06
-0.000180783
5.20026e-06
-0.000182602
3.62889e-06
-0.000183648
2.08042e-06
-0.000183988
6.94543e-07
-0.000183512
-9.70285e-07
-0.000182244
-2.51708e-06
-0.000180152
-4.18099e-06
-0.00017718
-5.94901e-06
-0.000173478
-7.39603e-06
-0.000168887
-9.18351e-06
-0.000163445
-1.08852e-05
-0.00015716
-1.25702e-05
-0.000150115
-1.4084e-05
-0.00014208
-1.6064e-05
-0.000133269
-1.76254e-05
-0.000123493
-1.95366e-05
-0.000112933
-2.11356e-05
-0.000101525
-2.28142e-05
-8.93095e-05
-2.44209e-05
-7.63355e-05
-2.59524e-05
-6.25763e-05
-2.75178e-05
-4.80892e-05
-2.89745e-05
-3.28804e-05
-3.04133e-05
-1.70806e-05
-3.15978e-05
-7.08356e-07
-3.27522e-05
1.61174e-05
-3.36434e-05
3.33497e-05
-3.44456e-05
5.0809e-05
-3.49143e-05
6.83449e-05
-3.50611e-05
8.58043e-05
-3.49082e-05
0.000102888
-3.41588e-05
0.000119464
-3.31314e-05
0.000135326
-3.17177e-05
0.0001502
-2.97362e-05
0.000163898
-2.73792e-05
0.00017611
-2.44132e-05
0.000186656
-2.10863e-05
0.000195323
-1.73123e-05
0.000201896
-1.31369e-05
0.000206299
-8.80379e-06
0.000208416
-4.2168e-06
0.000208128
5.73151e-07
0.000205503
5.24087e-06
0.000200382
1.02461e-05
0.000192933
1.48942e-05
0.00018326
1.93422e-05
0.000171474
2.35556e-05
0.00015782
2.72901e-05
0.000142503
3.06296e-05
0.000125791
3.34237e-05
0.000107977
3.56104e-05
8.93089e-05
3.73233e-05
7.00798e-05
3.84392e-05
5.06231e-05
3.8889e-05
3.11901e-05
3.88577e-05
1.20373e-05
3.83083e-05
-6.63217e-06
3.73367e-05
-2.46183e-05
3.59517e-05
-4.17588e-05
3.42662e-05
-5.80215e-05
3.25166e-05
-7.31789e-05
3.03059e-05
-8.72727e-05
2.81838e-05
-0.000100212
2.58793e-05
-0.000112068
2.37229e-05
-0.000122751
2.13591e-05
-0.00013238
1.9251e-05
-0.000140933
1.71038e-05
-0.000148447
1.50292e-05
-0.000154988
1.3083e-05
-0.000160586
1.11957e-05
-0.000165278
9.38583e-06
-0.000169167
7.78314e-06
-0.000172335
6.33252e-06
-0.000174744
4.81311e-06
-0.00017648
3.46942e-06
-0.000177592
2.22426e-06
-0.000178135
1.09537e-06
-0.000178155
3.78832e-08
-0.000177664
-9.87255e-07
-0.000176596
-2.13121e-06
-0.000175037
-3.11669e-06
-0.000173011
-4.06067e-06
-0.00017042
-5.18326e-06
-0.000167334
-6.17285e-06
-0.000163628
-7.4286e-06
-0.000159171
-8.91819e-06
-0.000154043
-1.02465e-05
-0.000148111
-1.1871e-05
-0.000141316
-1.35871e-05
-0.000133787
-1.50675e-05
-0.000125231
-1.7112e-05
-0.000115838
-1.87782e-05
-0.000105487
-2.07093e-05
-9.41373e-05
-2.27118e-05
-8.18211e-05
-2.46161e-05
-6.85283e-05
-2.65868e-05
-5.42648e-05
-2.8519e-05
-3.9185e-05
-3.01639e-05
-2.32379e-05
-3.18928e-05
-6.55852e-06
-3.33361e-05
1.07036e-05
-3.45172e-05
2.84578e-05
-3.54947e-05
4.65096e-05
-3.60865e-05
6.46705e-05
-3.63147e-05
8.27219e-05
-3.60991e-05
0.000100466
-3.54707e-05
0.000117602
-3.42436e-05
0.000133917
-3.2625e-05
0.000149145
-3.04495e-05
0.00016305
-2.77889e-05
0.000175382
-2.46406e-05
0.000185817
-2.08648e-05
0.000194255
-1.68709e-05
0.00020054
-1.25648e-05
0.000204561
-8.02855e-06
0.00020628
-3.42065e-06
0.000205553
1.43777e-06
0.000202498
6.10939e-06
0.000197132
1.07327e-05
0.000189575
1.51046e-05
0.000180012
1.91194e-05
0.000168593
2.28335e-05
0.000155523
2.61331e-05
0.000141006
2.90193e-05
0.000125288
3.14209e-05
0.000108631
3.33027e-05
9.12485e-05
3.4752e-05
7.34179e-05
3.56467e-05
5.5344e-05
3.6142e-05
3.72359e-05
3.62053e-05
1.93514e-05
3.57592e-05
1.78192e-06
3.51273e-05
-1.52633e-05
3.4084e-05
-3.16713e-05
3.28142e-05
-4.73605e-05
3.13598e-05
-6.21892e-05
2.9645e-05
-7.61141e-05
2.78474e-05
-8.90666e-05
2.59037e-05
-0.000101031
2.39337e-05
-0.00011209
2.21175e-05
-0.000122103
2.00229e-05
-0.000131179
1.81433e-05
-0.000139295
1.62337e-05
-0.000146546
1.45058e-05
-0.000152875
1.26518e-05
-0.000158342
1.09349e-05
-0.00016301
9.34185e-06
-0.000166879
7.73319e-06
-0.000169987
6.20843e-06
-0.000172326
4.67913e-06
-0.000173949
3.24242e-06
-0.000174926
1.95506e-06
-0.000175181
5.16856e-07
-0.000174793
-7.74145e-07
-0.00017376
-2.07966e-06
-0.000171958
-3.59589e-06
-0.000169573
-4.7672e-06
-0.000166493
-6.16684e-06
-0.000162692
-7.61611e-06
-0.000158285
-8.81995e-06
-0.000153026
-1.05083e-05
-0.00014709
-1.18672e-05
-0.000140367
-1.3444e-05
-0.000132686
-1.53792e-05
-0.000124125
-1.71206e-05
-0.000114671
-1.89085e-05
-0.000104303
-2.07362e-05
-9.30811e-05
-2.24433e-05
-8.10324e-05
-2.41008e-05
-6.81182e-05
-2.58226e-05
-5.4401e-05
-2.74272e-05
-3.98961e-05
-2.90331e-05
-2.46951e-05
-3.03764e-05
-8.7951e-06
-3.17884e-05
7.68602e-06
-3.29502e-05
2.46143e-05
-3.38498e-05
4.19039e-05
-3.45658e-05
5.93678e-05
-3.49197e-05
7.68641e-05
-3.49856e-05
9.41664e-05
-3.4595e-05
0.000111103
-3.38391e-05
0.000127388
-3.25686e-05
0.000142824
-3.08594e-05
0.00015724
-2.88094e-05
0.000170348
-2.62102e-05
0.000182017
-2.33298e-05
0.000191951
-1.98519e-05
0.000199975
-1.60275e-05
0.000205984
-1.20051e-05
0.000209763
-7.56472e-06
0.000211193
-2.8579e-06
0.000210347
1.6852e-06
0.000207221
6.25805e-06
0.000201729
1.09775e-05
0.000194032
1.53837e-05
0.00018432
1.94247e-05
0.000172704
2.32262e-05
0.000159483
2.64253e-05
0.000144852
2.92469e-05
0.000129102
3.14859e-05
0.000112487
3.32168e-05
9.52664e-05
3.44321e-05
7.76868e-05
3.5149e-05
6.00085e-05
3.53425e-05
4.24054e-05
3.5192e-05
2.51039e-05
3.45899e-05
8.2545e-06
3.36911e-05
-8.02711e-06
3.25574e-05
-2.36681e-05
3.12749e-05
-3.84827e-05
2.96195e-05
-5.24605e-05
2.79507e-05
-6.56002e-05
2.6274e-05
-7.78613e-05
2.45206e-05
-8.9118e-05
2.25132e-05
-9.95317e-05
2.08219e-05
-0.000109084
1.91011e-05
-0.000117641
1.71156e-05
-0.000125415
1.5556e-05
-0.000132305
1.37674e-05
-0.000138303
1.19954e-05
-0.000143519
1.04382e-05
-0.000147903
8.76585e-06
-0.000151499
7.1995e-06
-0.000154323
5.64407e-06
-0.000156343
4.03243e-06
-0.000157651
2.62121e-06
-0.000158043
7.88972e-07
-0.000157724
-6.41248e-07
-0.000156476
-2.49092e-06
-0.000154528
-3.88884e-06
-0.000151875
-5.3112e-06
-0.0001484
-6.95293e-06
-0.000144186
-8.41984e-06
-0.000139168
-1.00418e-05
-0.000133411
-1.15117e-05
-0.000126824
-1.3177e-05
-0.000119536
-1.45744e-05
-0.000111424
-1.62256e-05
-0.000102539
-1.77641e-05
-9.29724e-05
-1.91238e-05
-8.24386e-05
-2.10761e-05
-7.14709e-05
-2.19283e-05
-5.96996e-05
-2.35474e-05
-4.71038e-05
-2.51864e-05
-3.40055e-05
-2.61932e-05
-2.02613e-05
-2.74812e-05
-5.94571e-06
-2.86213e-05
9.0166e-06
-2.993e-05
2.4531e-05
-3.10239e-05
4.03733e-05
-3.16776e-05
5.66046e-05
-3.24561e-05
7.31177e-05
-3.30184e-05
8.96456e-05
-3.30414e-05
0.000106232
-3.31633e-05
0.000122613
-3.27596e-05
0.000138627
-3.20193e-05
0.000154167
-3.10653e-05
0.000168842
-2.9336e-05
0.000182543
-2.7381e-05
0.000195113
-2.5131e-05
0.000206172
-2.21176e-05
0.000215639
-1.89125e-05
0.000223308
-1.53063e-05
0.000229024
-1.14219e-05
0.000232635
-7.24069e-06
0.000234049
-2.8324e-06
0.00023312
1.85059e-06
0.000229809
6.6208e-06
0.000224047
1.15183e-05
0.00021612
1.58481e-05
0.000206111
2.00064e-05
0.000194079
2.40541e-05
0.000180423
2.73026e-05
0.000165377
3.00778e-05
0.000149186
3.23708e-05
0.000132046
3.42645e-05
0.000114332
3.54186e-05
9.63534e-05
3.59422e-05
7.82762e-05
3.61434e-05
6.03268e-05
3.58886e-05
4.27652e-05
3.5114e-05
2.5752e-05
3.40187e-05
9.45798e-06
3.25837e-05
-6.10064e-06
3.11113e-05
-2.07358e-05
2.92684e-05
-3.43867e-05
2.72988e-05
-4.70404e-05
2.53056e-05
-5.86665e-05
2.32513e-05
-6.92562e-05
2.11799e-05
-7.88416e-05
1.91713e-05
-8.74407e-05
1.71995e-05
-9.51061e-05
1.53332e-05
-0.000101871
1.35324e-05
-0.000107777
1.18131e-05
-0.000112879
1.02042e-05
8.53219e-06
-0.000139881
-2.23467e-05
-0.000131298
-2.57568e-05
-0.000121748
-2.86577e-05
-0.000111209
-3.16197e-05
-9.94231e-05
-3.53641e-05
-8.66965e-05
-3.81654e-05
-7.27396e-05
-4.18807e-05
-5.77442e-05
-4.49722e-05
-4.19949e-05
-4.72655e-05
-2.51894e-05
-5.03552e-05
-7.61404e-06
-5.26954e-05
1.05209e-05
-5.4362e-05
2.93043e-05
-5.63035e-05
4.85011e-05
-5.75233e-05
6.79093e-05
-5.81774e-05
8.73436e-05
-5.826e-05
0.000106366
-5.70189e-05
0.000124858
-5.5413e-05
0.000142628
-5.32391e-05
0.000159196
-4.96652e-05
0.000174436
-4.56645e-05
0.000188139
-4.10484e-05
0.000199943
-3.53836e-05
0.000209728
-2.93273e-05
0.000217353
-2.28246e-05
0.000222615
-1.5755e-05
0.00022537
-8.26122e-06
0.000225544
-5.77201e-07
0.000223194
6.98453e-06
0.000218359
1.45031e-05
0.000211085
2.18035e-05
0.000201592
2.84419e-05
0.000189993
3.47567e-05
0.000176624
4.00547e-05
0.000161662
4.48598e-05
0.000145318
4.89611e-05
0.000127837
5.23817e-05
0.000109634
5.45617e-05
9.07845e-05
5.64906e-05
7.1671e-05
5.73021e-05
5.25713e-05
5.72502e-05
3.35918e-05
5.69033e-05
1.48942e-05
5.60337e-05
-3.23917e-06
5.43824e-05
-2.07314e-05
5.24516e-05
-3.74924e-05
5.02611e-05
-5.34043e-05
4.77184e-05
-6.83993e-05
4.49702e-05
-8.24651e-05
4.21808e-05
-9.5528e-05
3.91758e-05
-0.000107592
3.61866e-05
-0.000118705
3.33321e-05
-0.000128825
3.03564e-05
-0.000138039
2.76536e-05
-0.000146326
2.48582e-05
-0.000153722
2.21893e-05
-0.000160278
1.96593e-05
-0.000165971
1.70846e-05
-0.00017086
1.46733e-05
-0.000174967
1.23214e-05
-0.000178267
9.89628e-06
-0.000180866
7.79949e-06
-0.000182688
5.45075e-06
-0.000183724
3.11641e-06
-0.000184059
1.02905e-06
-0.000183584
-1.44495e-06
-0.00018231
-3.79111e-06
-0.000180225
-6.26602e-06
-0.000177253
-8.92114e-06
-0.000173547
-1.11017e-05
-0.000168957
-1.37739e-05
-0.000163512
-1.63298e-05
-0.000157224
-1.88583e-05
-0.000150192
-2.11163e-05
-0.000142159
-2.40976e-05
-0.000133339
-2.64447e-05
-0.000123559
-2.93172e-05
-0.00011301
-3.16847e-05
-0.000101602
-3.42225e-05
-8.93724e-05
-3.66501e-05
-7.63981e-05
-3.89268e-05
-6.26471e-05
-4.12689e-05
-4.81601e-05
-4.34616e-05
-3.29476e-05
-4.56259e-05
-1.71493e-05
-4.73962e-05
-7.60468e-07
-4.91412e-05
1.60773e-05
-5.04813e-05
3.33203e-05
-5.16888e-05
5.07975e-05
-5.23915e-05
6.83445e-05
-5.26083e-05
8.58256e-05
-5.23894e-05
0.000102917
-5.12507e-05
0.000119515
-4.97293e-05
0.000135403
-4.76058e-05
0.000150291
-4.46241e-05
0.000164014
-4.11022e-05
0.000176247
-3.66467e-05
0.000186797
-3.16361e-05
0.000195473
-2.59883e-05
0.000202057
-1.97214e-05
0.000206461
-1.32077e-05
0.000208593
-6.34868e-06
0.000208283
8.83301e-07
0.000205648
7.87564e-06
0.000200547
1.53468e-05
0.000193078
2.23629e-05
0.000183398
2.90228e-05
0.000171602
3.5351e-05
0.000157928
4.09641e-05
0.00014258
4.59776e-05
0.000125839
5.01652e-05
0.000108006
5.3443e-05
8.93301e-05
5.59995e-05
7.00765e-05
5.76928e-05
5.05903e-05
5.83751e-05
3.11368e-05
5.83113e-05
1.19669e-05
5.74782e-05
-6.71917e-06
5.60228e-05
-2.47042e-05
5.39368e-05
-4.18561e-05
5.14181e-05
-5.81403e-05
4.88008e-05
-7.33001e-05
4.54656e-05
-8.7398e-05
4.22818e-05
-0.000100352
3.88329e-05
-0.000112189
3.55604e-05
-0.000122867
3.20367e-05
-0.000132494
2.88781e-05
-0.000141041
2.56511e-05
-0.000148553
2.25415e-05
-0.000155093
1.96224e-05
-0.000160686
1.67889e-05
-0.000165373
1.40727e-05
-0.000169256
1.16662e-05
-0.000172422
9.4989e-06
-0.000174823
7.21448e-06
-0.000176549
5.19472e-06
-0.000177665
3.34047e-06
-0.000178207
1.63769e-06
-0.000178229
5.90368e-08
-0.00017773
-1.48559e-06
-0.000176673
-3.1883e-06
-0.000175109
-4.68063e-06
-0.000173071
-6.09874e-06
-0.000170491
-7.76351e-06
-0.000167409
-9.25474e-06
-0.00016371
-1.11282e-05
-0.000159257
-1.33704e-05
-0.000154132
-1.5372e-05
-0.000148207
-1.7796e-05
-0.000141413
-2.03814e-05
-0.000133884
-2.25967e-05
-0.000125331
-2.56644e-05
-0.000115944
-2.81657e-05
-0.000105589
-3.10643e-05
-9.42463e-05
-3.40543e-05
-8.19158e-05
-3.69467e-05
-6.8617e-05
-3.98857e-05
-5.43529e-05
-4.27831e-05
-3.92722e-05
-4.52447e-05
-2.33202e-05
-4.78449e-05
-6.6361e-06
-5.00202e-05
1.06494e-05
-5.18027e-05
2.84222e-05
-5.32676e-05
4.65006e-05
-5.4165e-05
6.46873e-05
-5.45014e-05
8.27491e-05
-5.41609e-05
0.000100501
-5.32231e-05
0.000117658
-5.14008e-05
0.000133998
-4.89647e-05
0.00014924
-4.56918e-05
0.000163158
-4.1707e-05
0.000175526
-3.70079e-05
0.000185979
-3.13182e-05
0.000194412
-2.5304e-05
0.000200704
-1.8857e-05
0.000204722
-1.20461e-05
0.000206458
-5.15714e-06
0.000205716
2.17932e-06
0.000202646
9.17936e-06
0.00019728
1.60994e-05
0.00018971
2.26742e-05
0.000180142
2.86871e-05
0.000168685
3.42901e-05
0.000155608
3.92106e-05
0.000141081
4.3546e-05
0.000125337
4.71648e-05
0.000108655
4.99847e-05
9.12545e-05
5.21528e-05
7.34029e-05
5.34983e-05
5.5314e-05
5.42308e-05
3.7191e-05
5.43284e-05
1.92946e-05
5.36555e-05
1.71632e-06
5.27056e-05
-1.53474e-05
5.11477e-05
-3.17598e-05
4.92267e-05
-4.74439e-05
4.7044e-05
-6.22831e-05
4.44841e-05
-7.62208e-05
4.17851e-05
-8.91842e-05
3.88672e-05
-0.000101145
3.58949e-05
-0.000112201
3.31727e-05
-0.000122214
3.00366e-05
-0.000131279
2.72084e-05
-0.000139397
2.43517e-05
-0.000146646
2.17542e-05
-0.000152974
1.89794e-05
-0.000158441
1.64025e-05
-0.000163109
1.40098e-05
-0.00016697
1.15944e-05
-0.000170064
9.30214e-06
-0.000172403
7.01772e-06
-0.000174036
4.87572e-06
-0.000175012
2.93127e-06
-0.000175268
7.72264e-07
-0.000174882
-1.15973e-06
-0.000173846
-3.11586e-06
-0.000172044
-5.3975e-06
-0.000169656
-7.15541e-06
-0.000166573
-9.24965e-06
-0.000162777
-1.14121e-05
-0.000158366
-1.32316e-05
-0.000153107
-1.57671e-05
-0.000147185
-1.77888e-05
-0.000140454
-2.01756e-05
-0.000132777
-2.30561e-05
-0.000124219
-2.56781e-05
-0.00011476
-2.83676e-05
-0.0001044
-3.10963e-05
-9.31855e-05
-3.36582e-05
-8.11211e-05
-3.61651e-05
-6.82074e-05
-3.87365e-05
-5.44949e-05
-4.11397e-05
-3.99922e-05
-4.35358e-05
-2.47792e-05
-4.55896e-05
-8.86852e-06
-4.76991e-05
7.64618e-06
-4.9465e-05
2.459e-05
-5.07937e-05
4.18893e-05
-5.18651e-05
5.93681e-05
-5.23986e-05
7.68874e-05
-5.2505e-05
9.41874e-05
-5.1895e-05
0.000111153
-5.08052e-05
0.000127453
-4.88684e-05
0.000142897
-4.63036e-05
0.000157331
-4.32429e-05
0.000170462
-3.93411e-05
0.00018215
-3.50181e-05
0.000192087
-2.97893e-05
0.000200111
-2.4051e-05
0.000206145
-1.80394e-05
0.000209934
-1.13541e-05
0.000211368
-4.29194e-06
0.000210504
2.54894e-06
0.00020738
9.38243e-06
0.00020188
1.64772e-05
0.000194163
2.31006e-05
0.000184437
2.91508e-05
0.000172806
3.48567e-05
0.000159566
3.96659e-05
0.000144908
4.39044e-05
0.000129139
4.72546e-05
0.000112498
4.98583e-05
9.52614e-05
5.16682e-05
7.76678e-05
5.27426e-05
5.9973e-05
5.30372e-05
4.23537e-05
5.28114e-05
2.50406e-05
5.1903e-05
8.18697e-06
5.05447e-05
-8.10635e-06
4.88507e-05
-2.37466e-05
4.69152e-05
-3.85797e-05
4.44525e-05
-5.25529e-05
4.19239e-05
-6.56941e-05
3.94152e-05
-7.79654e-05
3.67919e-05
-8.92176e-05
3.37654e-05
-9.96258e-05
3.12302e-05
-0.00010918
2.86551e-05
-0.000117741
2.56767e-05
-0.000125499
2.33141e-05
-0.000132398
2.06663e-05
-0.000138387
1.79849e-05
-0.000143594
1.56455e-05
-0.000147989
1.316e-05
-0.000151574
1.07848e-05
-0.000154403
8.47289e-06
-0.000156418
6.04788e-06
-0.000157726
3.92903e-06
-0.000158113
1.17587e-06
-0.000157788
-9.6587e-07
-0.000156545
-3.73407e-06
-0.000154594
-5.8401e-06
-0.000151934
-7.97093e-06
-0.000148467
-1.04203e-05
-0.00014423
-1.2657e-05
-0.000139229
-1.5042e-05
-0.000133467
-1.72736e-05
-0.000126885
-1.976e-05
-0.000119594
-2.18654e-05
-0.000111489
-2.43304e-05
-0.000102596
-2.66568e-05
-9.30151e-05
-2.87048e-05
-8.24962e-05
-3.1595e-05
-7.15217e-05
-3.29028e-05
-5.97596e-05
-3.53095e-05
-4.71591e-05
-3.7787e-05
-3.40562e-05
-3.92961e-05
-2.03057e-05
-4.12317e-05
-5.98386e-06
-4.29431e-05
8.98253e-06
-4.48965e-05
2.45028e-05
-4.65442e-05
4.03531e-05
-4.75279e-05
5.65979e-05
-4.87009e-05
7.31214e-05
-4.95419e-05
8.9659e-05
-4.9579e-05
0.000106268
-4.97722e-05
0.000122668
-4.91602e-05
0.000138695
-4.80456e-05
0.00015426
-4.6631e-05
0.000168953
-4.40291e-05
0.000182674
-4.11016e-05
0.000195273
-3.773e-05
0.000206344
-3.3189e-05
0.000215814
-2.83825e-05
0.000223496
-2.2988e-05
0.00022925
-1.7176e-05
0.000232899
-1.08903e-05
0.000234316
-4.24875e-06
0.000233331
2.83509e-06
0.000229997
9.95477e-06
0.000224219
1.72962e-05
0.000216282
2.37857e-05
0.000206251
3.00369e-05
0.000194208
3.60973e-05
0.000180539
4.09717e-05
0.000165468
4.51483e-05
0.000149252
4.8587e-05
0.000132095
5.14209e-05
0.000114367
5.31466e-05
9.63595e-05
5.39501e-05
7.82643e-05
5.42386e-05
6.02982e-05
5.38547e-05
4.27221e-05
5.26901e-05
2.56968e-05
5.10439e-05
9.39774e-06
4.88828e-05
-6.17528e-06
4.66843e-05
-2.08157e-05
4.39088e-05
-3.44712e-05
4.09543e-05
-4.71263e-05
3.79607e-05
-5.87518e-05
3.48768e-05
-6.93396e-05
3.17678e-05
-7.8922e-05
2.87537e-05
-8.75177e-05
2.57951e-05
-9.51788e-05
2.29943e-05
-0.00010194
2.0294e-05
-0.000107842
1.77151e-05
-0.000112942
1.5304e-05
1.2791e-05
-0.000139996
-2.97888e-05
-0.000131416
-3.43366e-05
-0.000121869
-3.8205e-05
-0.00011133
-4.21579e-05
-9.95483e-05
-4.71463e-05
-8.68122e-05
-5.09016e-05
-7.28618e-05
-5.58312e-05
-5.78586e-05
-5.99754e-05
-4.21005e-05
-6.30237e-05
-2.52791e-05
-6.71767e-05
-7.68634e-06
-7.02883e-05
1.04887e-05
-7.25372e-05
2.92999e-05
-7.51147e-05
4.85226e-05
-7.67461e-05
6.79618e-05
-7.76167e-05
8.74296e-05
-7.77279e-05
0.000106485
-7.60746e-05
0.000125008
-7.39359e-05
0.00014281
-7.10416e-05
0.00015941
-6.62651e-05
0.00017468
-6.09345e-05
0.000188409
-5.47776e-05
0.00020024
-4.72144e-05
0.000210046
-3.91335e-05
0.000217686
-3.04645e-05
0.000222959
-2.10281e-05
0.000225725
-1.10271e-05
0.000225864
-7.16183e-07
0.000223474
9.37374e-06
0.000218635
1.93427e-05
0.000211346
2.90918e-05
0.000201833
3.79547e-05
0.000190209
4.63808e-05
0.00017681
5.34539e-05
0.000161841
5.9829e-05
0.000145449
6.53525e-05
0.000127934
6.9897e-05
0.000109701
7.27942e-05
9.0819e-05
7.5373e-05
7.16849e-05
7.64362e-05
5.25547e-05
7.63804e-05
3.35556e-05
7.59023e-05
1.48238e-05
7.47656e-05
-3.31971e-06
7.25259e-05
-2.08278e-05
6.99596e-05
-3.76039e-05
6.70373e-05
-5.35263e-05
6.36408e-05
-6.85298e-05
5.99737e-05
-8.26005e-05
5.62515e-05
-9.56663e-05
5.22416e-05
-0.000107734
4.82541e-05
-0.000118847
4.44458e-05
-0.000128968
4.04773e-05
-0.00013818
3.68656e-05
-0.000146465
3.31432e-05
-0.000153857
2.9581e-05
-0.000160416
2.62177e-05
-0.000166103
2.27724e-05
-0.000170992
1.95622e-05
-0.000175102
1.64313e-05
-0.000178398
1.31923e-05
-0.000180995
1.03965e-05
-0.000182799
7.25412e-06
-0.000183848
4.16583e-06
-0.000184175
1.35634e-06
-0.000183696
-1.92481e-06
-0.00018241
-5.07647e-06
-0.000180333
-8.34342e-06
-0.000177362
-1.18925e-05
-0.000173653
-1.48102e-05
-0.000169069
-1.83576e-05
-0.000163619
-2.17802e-05
-0.000157328
-2.5149e-05
-0.000150304
-2.81406e-05
-0.00014227
-3.21318e-05
-0.000133452
-3.52627e-05
-0.00012367
-3.90991e-05
-0.000113128
-4.22269e-05
-0.000101711
-4.56396e-05
-8.94707e-05
-4.88907e-05
-7.65086e-05
-5.18891e-05
-6.2758e-05
-5.50196e-05
-4.82641e-05
-5.79556e-05
-3.30467e-05
-6.08435e-05
-1.7248e-05
-6.3195e-05
-8.41583e-07
-6.55477e-05
1.60212e-05
-6.73441e-05
3.32739e-05
-6.89415e-05
5.07694e-05
-6.98871e-05
6.83452e-05
-7.01842e-05
8.58619e-05
-6.99062e-05
0.000102973
-6.83616e-05
0.000119599
-6.63558e-05
0.0001355
-6.35069e-05
0.000150425
-5.95494e-05
0.000164185
-5.48622e-05
0.000176432
-4.88934e-05
0.000187017
-4.22211e-05
0.000195726
-3.46977e-05
0.000202302
-2.62968e-05
0.0002067
-1.76061e-05
0.000208858
-8.50725e-06
0.000208527
1.21488e-06
0.000205884