/*--------------------------------*- C++ -*----------------------------------*\
| =========                 |                                                 |
| \\      /  F ield         | OpenFOAM: The Open Source CFD Toolbox           |
|  \\    /   O peration     | Version:  3.0.1                                 |
|   \\  /    A nd           | Web:      www.OpenFOAM.org                      |
|    \\/     M anipulation  |                                                 |
\*---------------------------------------------------------------------------*/
FoamFile
{
    version     2.0;
    format      ascii;
    class       volVectorField;
    location    "23.4";
    object      U;
}
// * * * * * * * * * * * * * * * * * * * * * * * * * * * * * * * * * * * * * //

dimensions      [0 1 -1 0 0 0 0];

internalField   nonuniform List<vector> 
21420
(
(-0.147036 -0.000755111 0)
(-0.140216 -0.000853437 0)
(-0.131135 -0.000948269 0)
(-0.12107 -0.00104438 0)
(-0.109988 -0.00115201 0)
(-0.0978812 -0.00124944 0)
(-0.0847466 -0.00136013 0)
(-0.0705977 -0.00145365 0)
(-0.0554681 -0.00154127 0)
(-0.0393957 -0.00164504 0)
(-0.0223801 -0.00171746 0)
(-0.00467531 -0.00177845 0)
(0.0135821 -0.00185491 0)
(0.0324195 -0.00188465 0)
(0.0516026 -0.00193009 0)
(0.0709283 -0.00192049 0)
(0.0901616 -0.00188603 0)
(0.109059 -0.00186216 0)
(0.127375 -0.00177913 0)
(0.144833 -0.00166992 0)
(0.161163 -0.00156125 0)
(0.176113 -0.00140409 0)
(0.189429 -0.00122558 0)
(0.200878 -0.00103664 0)
(0.210262 -0.000820353 0)
(0.217418 -0.00059262 0)
(0.222219 -0.000351555 0)
(0.224612 -0.00010712 0)
(0.224566 0.000137902 0)
(0.221938 0.000388053 0)
(0.216789 0.000634563 0)
(0.209335 0.000850966 0)
(0.199675 0.00106773 0)
(0.18799 0.00124255 0)
(0.174501 0.00141642 0)
(0.159421 0.00157244 0)
(0.143008 0.0016697 0)
(0.125522 0.00176935 0)
(0.107226 0.00184678 0)
(0.0883564 0.00186627 0)
(0.069111 0.00188947 0)
(0.0497906 0.001867 0)
(0.0306978 0.00184993 0)
(0.0121997 0.0018094 0)
(-0.00538052 0.00174518 0)
(-0.0223335 0.00168143 0)
(-0.0387891 0.0016052 0)
(-0.0544419 0.00151126 0)
(-0.0692191 0.00142322 0)
(-0.0830658 0.00132966 0)
(-0.0959501 0.00122942 0)
(-0.107874 0.00113476 0)
(-0.118844 0.00103698 0)
(-0.128882 0.000945325 0)
(-0.137994 0.000854567 0)
(-0.146212 0.000765274 0)
(-0.153574 0.000680434 0)
(-0.160093 0.000596469 0)
(-0.165799 0.000514574 0)
(-0.17069 0.000436691 0)
(-0.1748 0.000356794 0)
(-0.178159 0.000285164 0)
(-0.18072 0.00020597 0)
(-0.182494 0.000126525 0)
(-0.183501 6.09711e-05 0)
(-0.183772 -1.91699e-05 0)
(-0.183136 -9.91465e-05 0)
(-0.181703 -0.000181554 0)
(-0.179526 -0.000270267 0)
(-0.176426 -0.000340931 0)
(-0.172487 -0.000429188 0)
(-0.167759 -0.000518368 0)
(-0.162236 -0.000597452 0)
(-0.155789 -0.000673808 0)
(-0.148397 -0.000776667 0)
(-0.140267 -0.000851829 0)
(-0.131347 -0.000944751 0)
(-0.121378 -0.00102684 0)
(-0.110553 -0.00110802 0)
(-0.0991398 -0.00118847 0)
(-0.0867773 -0.00126713 0)
(-0.0735607 -0.00134003 0)
(-0.0596436 -0.00141869 0)
(-0.0450124 -0.00148761 0)
(-0.0297626 -0.00154964 0)
(-0.0138532 -0.00161334 0)
(0.00266493 -0.00164942 0)
(0.019592 -0.00169787 0)
(0.0368096 -0.0017269 0)
(0.0542525 -0.00173795 0)
(0.0717083 -0.0017391 0)
(0.0890364 -0.00170353 0)
(0.106004 -0.00165925 0)
(0.122412 -0.00159744 0)
(0.138069 -0.00150617 0)
(0.152717 -0.00139359 0)
(0.166067 -0.00125617 0)
(0.177988 -0.00109672 0)
(0.188198 -0.000913103 0)
(0.196365 -0.000715946 0)
(0.202557 -0.000503682 0)
(0.206556 -0.000279229 0)
(0.208112 -4.75536e-05 0)
(0.207424 0.000184104 0)
(0.204266 0.000434987 0)
(0.198692 0.000670755 0)
(0.190833 0.000892565 0)
(0.180734 0.00110573 0)
(0.168607 0.00130033 0)
(0.154653 0.00147374 0)
(0.139065 0.00161606 0)
(0.122137 0.00172975 0)
(0.104155 0.00182769 0)
(0.0854308 0.0018905 0)
(0.0662309 0.00192127 0)
(0.0468221 0.00193064 0)
(0.0274931 0.00190708 0)
(0.00845346 0.00186366 0)
(-0.0100658 0.0017985 0)
(-0.0278408 0.00172535 0)
(-0.0447557 0.00163871 0)
(-0.060726 0.00153345 0)
(-0.0756795 0.00143103 0)
(-0.0895299 0.00131613 0)
(-0.102238 0.00120841 0)
(-0.113831 0.00109137 0)
(-0.124325 0.000986102 0)
(-0.133705 0.000882166 0)
(-0.142045 0.000776887 0)
(-0.149375 0.000680705 0)
(-0.155717 0.000583356 0)
(-0.161162 0.000492243 0)
(-0.165772 0.000411956 0)
(-0.169521 0.000336284 0)
(-0.172499 0.000262667 0)
(-0.174785 0.000193068 0)
(-0.176415 0.000133563 0)
(-0.177453 7.54458e-05 0)
(-0.177964 1.85883e-05 0)
(-0.177895 -2.96679e-05 0)
(-0.177269 -8.53685e-05 0)
(-0.176225 -0.00013661 0)
(-0.174581 -0.000180663 0)
(-0.172423 -0.000236078 0)
(-0.169817 -0.000287169 0)
(-0.166627 -0.000346204 0)
(-0.162819 -0.000414219 0)
(-0.158233 -0.000483419 0)
(-0.152896 -0.000564185 0)
(-0.146877 -0.000648296 0)
(-0.139986 -0.000719762 0)
(-0.132149 -0.000816491 0)
(-0.123482 -0.000900203 0)
(-0.113918 -0.000998627 0)
(-0.103379 -0.00109612 0)
(-0.0918527 -0.00118849 0)
(-0.0793433 -0.0012892 0)
(-0.0658202 -0.00138347 0)
(-0.0514338 -0.00147102 0)
(-0.0361632 -0.00155393 0)
(-0.0200723 -0.00162902 0)
(-0.00329601 -0.00169899 0)
(0.0140888 -0.00174538 0)
(0.0318929 -0.00178287 0)
(0.0499674 -0.00179957 0)
(0.0680989 -0.00179671 0)
(0.086079 -0.00176672 0)
(0.103685 -0.00171771 0)
(0.120685 -0.00164804 0)
(0.136772 -0.00154539 0)
(0.151753 -0.00141938 0)
(0.165362 -0.00127415 0)
(0.1773 -0.00109351 0)
(0.187352 -0.000900312 0)
(0.195359 -0.000689716 0)
(0.201257 -0.00046541 0)
(0.204875 -0.000244361 0)
(0.206053 -3.26153e-06 0)
(0.204935 0.00022852 0)
(0.2014 0.000462859 0)
(0.195585 0.000682499 0)
(0.18768 0.000887821 0)
(0.177777 0.00107606 0)
(0.166058 0.00124542 0)
(0.152727 0.0013947 0)
(0.138008 0.00152425 0)
(0.122155 0.00162311 0)
(0.105373 0.00170285 0)
(0.0878936 0.00175473 0)
(0.070022 0.00178781 0)
(0.0519935 0.00179434 0)
(0.0339742 0.00178033 0)
(0.0161524 0.0017547 0)
(-0.00128275 0.00170862 0)
(-0.0182322 0.00164789 0)
(-0.034511 0.00157792 0)
(-0.0499881 0.00149985 0)
(-0.0646387 0.00141126 0)
(-0.0783868 0.00131484 0)
(-0.0911755 0.00121825 0)
(-0.102967 0.0011277 0)
(-0.113778 0.00102251 0)
(-0.123619 0.000926932 0)
(-0.132511 0.00083711 0)
(-0.14049 0.000746319 0)
(-0.147532 0.000653746 0)
(-0.153696 0.00057096 0)
(-0.159051 0.000490671 0)
(-0.163563 0.000405183 0)
(-0.167262 0.00033274 0)
(-0.170226 0.000256665 0)
(-0.172461 0.000185303 0)
(-0.173956 0.000120416 0)
(-0.174775 4.71673e-05 0)
(-0.175015 -1.74684e-05 0)
(-0.174485 -8.42917e-05 0)
(-0.17322 -0.000152474 0)
(-0.171377 -0.000216523 0)
(-0.168846 -0.000282532 0)
(-0.165645 -0.000354065 0)
(-0.161777 -0.000413735 0)
(-0.157126 -0.000491433 0)
(-0.151824 -0.000565921 0)
(-0.145816 -0.000642632 0)
(-0.138818 -0.00073718 0)
(-0.13092 -0.000821556 0)
(-0.122195 -0.000911515 0)
(-0.112532 -0.000997916 0)
(-0.102097 -0.00108485 0)
(-0.0907282 -0.00116857 0)
(-0.078434 -0.00125047 0)
(-0.0654139 -0.0013342 0)
(-0.0515929 -0.00141776 0)
(-0.0369842 -0.0014801 0)
(-0.021622 -0.00155452 0)
(-0.00560707 -0.00161515 0)
(0.0109294 -0.00166432 0)
(0.0279291 -0.00170176 0)
(0.0452299 -0.0017273 0)
(0.0626661 -0.00173605 0)
(0.0801272 -0.00171967 0)
(0.0973771 -0.00169108 0)
(0.114123 -0.00164008 0)
(0.130243 -0.00155489 0)
(0.145497 -0.00146397 0)
(0.159655 -0.00134349 0)
(0.172541 -0.00120616 0)
(0.183886 -0.00103718 0)
(0.193441 -0.000853185 0)
(0.201131 -0.000664116 0)
(0.206746 -0.000447607 0)
(0.210062 -0.000213927 0)
(0.211026 9.95417e-06 0)
(0.209775 0.000236477 0)
(0.206169 0.000473888 0)
(0.200278 0.000697207 0)
(0.192219 0.000903096 0)
(0.182134 0.00109381 0)
(0.170237 0.00126019 0)
(0.156774 0.00140893 0)
(0.141946 0.00152848 0)
(0.126051 0.00162258 0)
(0.10937 0.0016908 0)
(0.0921266 0.0017319 0)
(0.0745592 0.00175035 0)
(0.0569443 0.00174974 0)
(0.0394751 0.00172487 0)
(0.0223105 0.00168624 0)
(0.00558007 0.00163548 0)
(-0.0105105 0.00157311 0)
(-0.0258552 0.00149461 0)
(-0.0405088 0.00141362 0)
(-0.0543116 0.00133305 0)
(-0.0671456 0.0012457 0)
(-0.0791678 0.00114576 0)
(-0.0903073 0.00106288 0)
(-0.100452 0.000978389 0)
(-0.109783 0.000879704 0)
(-0.11826 0.000800422 0)
(-0.125772 0.000711464 0)
(-0.132516 0.000625701 0)
(-0.138423 0.00054722 0)
(-0.143475 0.000464316 0)
(-0.147818 0.000385708 0)
(-0.151282 0.000306942 0)
(-0.154012 0.000226305 0)
(-0.156027 0.000156717 0)
(-0.157146 6.60363e-05 0)
(-0.157526 -5.52982e-07 0)
(-0.157113 -9.04433e-05 0)
(-0.155927 -0.00015875 0)
(-0.153991 -0.000232019 0)
(-0.151234 -0.000315181 0)
(-0.147669 -0.000384586 0)
(-0.143383 -0.000464361 0)
(-0.138304 -0.000543598 0)
(-0.132352 -0.000619037 0)
(-0.125743 -0.000690493 0)
(-0.118281 -0.000773577 0)
(-0.11007 -0.000847221 0)
(-0.101103 -0.000926145 0)
(-0.0913073 -0.00100382 0)
(-0.0809034 -0.00105882 0)
(-0.0696753 -0.00114317 0)
(-0.0576442 -0.00120978 0)
(-0.0451161 -0.00126871 0)
(-0.0319315 -0.00134097 0)
(-0.0179896 -0.00139276 0)
(-0.00376439 -0.00146941 0)
(0.0109111 -0.00151217 0)
(0.0262727 -0.00154592 0)
(0.0420703 -0.00159766 0)
(0.0582447 -0.00161964 0)
(0.0746405 -0.00162515 0)
(0.0911329 -0.00164293 0)
(0.107597 -0.00162239 0)
(0.12385 -0.00160605 0)
(0.13973 -0.00155233 0)
(0.155022 -0.00147566 0)
(0.169501 -0.00139489 0)
(0.182974 -0.00127951 0)
(0.195219 -0.00114239 0)
(0.206012 -0.000993675 0)
(0.215172 -0.00081804 0)
(0.222515 -0.000630582 0)
(0.227894 -0.000425658 0)
(0.231204 -0.000209114 0)
(0.232264 8.94681e-06 0)
(0.23108 0.000233232 0)
(0.227456 0.000469011 0)
(0.221626 0.000685123 0)
(0.213624 0.000899123 0)
(0.203559 0.00110475 0)
(0.191616 0.0012667 0)
(0.17801 0.0014297 0)
(0.162983 0.00153833 0)
(0.146811 0.00164938 0)
(0.129757 0.00173553 0)
(0.112106 0.00175937 0)
(0.0941399 0.00178977 0)
(0.0761078 0.00179538 0)
(0.0582379 0.00174892 0)
(0.0407212 0.00171159 0)
(0.0236226 0.00163159 0)
(0.00741066 0.00156063 0)
(-0.00773848 0.00148228 0)
(-0.0220596 0.00137913 0)
(-0.0354898 0.00128679 0)
(-0.0479342 0.00118984 0)
(-0.0593657 0.00108264 0)
(-0.0697831 0.000985214 0)
(-0.0792003 0.000883191 0)
(-0.0876429 0.000790227 0)
(-0.095144 0.000699829 0)
(-0.101739 0.000610362 0)
(-0.107475 0.000527741 0)
(-0.113096 0.000448202 0)
(-0.147073 -0.00226514 0)
(-0.140255 -0.00256016 0)
(-0.131175 -0.00284468 0)
(-0.121111 -0.00313306 0)
(-0.11003 -0.00345598 0)
(-0.0979224 -0.00374832 0)
(-0.0847879 -0.00408047 0)
(-0.0706376 -0.00436107 0)
(-0.0555059 -0.00462404 0)
(-0.0394315 -0.0049354 0)
(-0.0224123 -0.00515302 0)
(-0.00470262 -0.00533562 0)
(0.0135602 -0.00556523 0)
(0.0324042 -0.00565468 0)
(0.051595 -0.00579115 0)
(0.0709294 -0.00576239 0)
(0.090172 -0.00565907 0)
(0.10908 -0.00558758 0)
(0.127406 -0.00533849 0)
(0.144874 -0.00501084 0)
(0.161216 -0.00468488 0)
(0.176175 -0.00421332 0)
(0.1895 -0.00367766 0)
(0.200957 -0.0031111 0)
(0.210348 -0.00246177 0)
(0.217511 -0.00177725 0)
(0.222315 -0.00105443 0)
(0.224716 -0.000322169 0)
(0.224669 0.00041301 0)
(0.222029 0.0011645 0)
(0.216885 0.00190371 0)
(0.209425 0.00255336 0)
(0.199759 0.00320388 0)
(0.188065 0.00372843 0)
(0.174568 0.00425011 0)
(0.159479 0.00471828 0)
(0.143055 0.00501009 0)
(0.12556 0.00530904 0)
(0.107254 0.00554134 0)
(0.0883753 0.00559971 0)
(0.0691212 0.00566936 0)
(0.0497934 0.0056018 0)
(0.0306921 0.00555083 0)
(0.0121887 0.00542856 0)
(-0.00539567 0.00523601 0)
(-0.0223546 0.00504479 0)
(-0.0388139 0.00481603 0)
(-0.0544691 0.00453419 0)
(-0.0692486 0.00427005 0)
(-0.083097 0.00398943 0)
(-0.0959822 0.00368858 0)
(-0.107907 0.00340443 0)
(-0.118877 0.00311163 0)
(-0.128915 0.00283668 0)
(-0.138029 0.00256404 0)
(-0.146246 0.00229578 0)
(-0.153609 0.00204255 0)
(-0.16013 0.00178854 0)
(-0.165837 0.00154506 0)
(-0.170731 0.00130806 0)
(-0.174841 0.00107024 0)
(-0.178201 0.0008561 0)
(-0.180765 0.00062146 0)
(-0.182543 0.000382586 0)
(-0.183552 0.000183015 0)
(-0.183828 -5.97849e-05 0)
(-0.183194 -0.000301674 0)
(-0.18176 -0.00054245 0)
(-0.179583 -0.000809512 0)
(-0.176486 -0.001022 0)
(-0.172549 -0.00128784 0)
(-0.167819 -0.00155542 0)
(-0.162302 -0.00179783 0)
(-0.155857 -0.0020263 0)
(-0.148454 -0.00232138 0)
(-0.140325 -0.00255355 0)
(-0.131409 -0.00283692 0)
(-0.121438 -0.0030791 0)
(-0.110614 -0.00332466 0)
(-0.0991952 -0.00357079 0)
(-0.086827 -0.00379465 0)
(-0.0736233 -0.00403185 0)
(-0.0596911 -0.00424712 0)
(-0.0450751 -0.00446893 0)
(-0.0298166 -0.00464704 0)
(-0.0138977 -0.00483348 0)
(0.00260065 -0.00496414 0)
(0.0195474 -0.00509277 0)
(0.0367796 -0.00517787 0)
(0.0542246 -0.00521548 0)
(0.0717005 -0.00520602 0)
(0.0890218 -0.00511789 0)
(0.106006 -0.00498021 0)
(0.122431 -0.00479216 0)
(0.138101 -0.00452135 0)
(0.152766 -0.00419099 0)
(0.166126 -0.00376881 0)
(0.178055 -0.00330125 0)
(0.188278 -0.00275247 0)
(0.196459 -0.00214387 0)
(0.202652 -0.00151599 0)
(0.206667 -0.000843354 0)
(0.208241 -0.000128043 0)
(0.207548 0.000549702 0)
(0.204389 0.00130295 0)
(0.198813 0.00200374 0)
(0.190956 0.00267816 0)
(0.180846 0.0033191 0)
(0.1687 0.00388835 0)
(0.154733 0.00440882 0)
(0.13915 0.0048519 0)
(0.122216 0.00520547 0)
(0.104211 0.00547935 0)
(0.0854765 0.00567317 0)
(0.0662523 0.005766 0)
(0.0468235 0.00578386 0)
(0.0274943 0.00572551 0)
(0.00845607 0.0056029 0)
(-0.0100728 0.00540959 0)
(-0.0278763 0.00516617 0)
(-0.044794 0.00492223 0)
(-0.0607769 0.00460044 0)
(-0.0757376 0.00428785 0)
(-0.0895826 0.00395148 0)
(-0.102288 0.00363391 0)
(-0.113884 0.00327739 0)
(-0.124383 0.00296057 0)
(-0.13377 0.00263899 0)
(-0.142107 0.00232993 0)
(-0.14944 0.00203378 0)
(-0.15578 0.00175081 0)
(-0.161225 0.00147966 0)
(-0.165831 0.00123354 0)
(-0.169579 0.00101595 0)
(-0.17256 0.000784779 0)
(-0.174846 0.000582201 0)
(-0.176485 0.000390927 0)
(-0.177517 0.000221967 0)
(-0.178018 6.61109e-05 0)
(-0.177956 -8.82337e-05 0)
(-0.177342 -0.00026142 0)
(-0.176278 -0.000402087 0)
(-0.174651 -0.000547772 0)
(-0.17249 -0.000709777 0)
(-0.169884 -0.000851355 0)
(-0.166707 -0.00104108 0)
(-0.162917 -0.00126025 0)
(-0.158316 -0.00144597 0)
(-0.152984 -0.00168642 0)
(-0.146961 -0.00193642 0)
(-0.140074 -0.00215749 0)
(-0.132251 -0.00246241 0)
(-0.123572 -0.00269976 0)
(-0.114011 -0.00298557 0)
(-0.103476 -0.00328989 0)
(-0.0919487 -0.00356887 0)
(-0.079435 -0.00386963 0)
(-0.0659165 -0.00416002 0)
(-0.0515162 -0.00440635 0)
(-0.0362684 -0.00467882 0)
(-0.0201543 -0.00489682 0)
(-0.00335456 -0.00508157 0)
(0.0140223 -0.00524614 0)
(0.0318493 -0.00534447 0)
(0.0499373 -0.00540363 0)
(0.0680803 -0.00538997 0)
(0.0860546 -0.00532161 0)
(0.103695 -0.00515393 0)
(0.120713 -0.00493955 0)
(0.136804 -0.00464237 0)
(0.151791 -0.0042672 0)
(0.165429 -0.00381899 0)
(0.177382 -0.00328094 0)
(0.187445 -0.00270175 0)
(0.19546 -0.00207418 0)
(0.201349 -0.00141203 0)
(0.204999 -0.000724047 0)
(0.206175 -6.57934e-06 0)
(0.20505 0.000681885 0)
(0.201523 0.00138305 0)
(0.195705 0.00204762 0)
(0.187789 0.00265786 0)
(0.17788 0.00322879 0)
(0.16616 0.00374078 0)
(0.152818 0.0041883 0)
(0.138081 0.00456584 0)
(0.12222 0.00487323 0)
(0.105426 0.00511004 0)
(0.0879307 0.00526576 0)
(0.070051 0.00536173 0)
(0.0520136 0.00539196 0)
(0.0339832 0.00534454 0)
(0.0161505 0.00526373 0)
(-0.00129879 0.00512369 0)
(-0.0182448 0.00494903 0)
(-0.0345346 0.00473937 0)
(-0.0500327 0.00448924 0)
(-0.0646881 0.00422829 0)
(-0.0784379 0.00394471 0)
(-0.0912254 0.00365401 0)
(-0.103018 0.00338468 0)
(-0.113825 0.00307188 0)
(-0.123678 0.00278948 0)
(-0.132575 0.00250119 0)
(-0.140544 0.00224548 0)
(-0.14759 0.00196195 0)
(-0.153762 0.00170668 0)
(-0.159111 0.00146756 0)
(-0.163617 0.00122891 0)
(-0.167327 0.000995027 0)
(-0.170292 0.000765273 0)
(-0.172529 0.000549969 0)
(-0.174028 0.000357894 0)
(-0.174846 0.000145384 0)
(-0.175076 -4.47206e-05 0)
(-0.174555 -0.000243088 0)
(-0.173299 -0.000471136 0)
(-0.171439 -0.000637706 0)
(-0.168922 -0.000850883 0)
(-0.165724 -0.00106426 0)
(-0.161863 -0.00124219 0)
(-0.157226 -0.00149597 0)
(-0.151896 -0.00168133 0)
(-0.145902 -0.00192025 0)
(-0.138912 -0.00221313 0)
(-0.131012 -0.00246625 0)
(-0.122283 -0.00273134 0)
(-0.112629 -0.0030053 0)
(-0.102192 -0.00325178 0)
(-0.0908176 -0.00350107 0)
(-0.0785358 -0.00376327 0)
(-0.0654999 -0.00399624 0)
(-0.0516741 -0.00424388 0)
(-0.0370739 -0.00445198 0)
(-0.0217007 -0.00466246 0)
(-0.00567365 -0.00484635 0)
(0.0108728 -0.00499554 0)
(0.0278784 -0.00511295 0)
(0.0451933 -0.00517909 0)
(0.0626314 -0.00520742 0)
(0.0800956 -0.00517504 0)
(0.0973766 -0.00506978 0)
(0.114145 -0.00490485 0)
(0.130255 -0.00468189 0)
(0.145536 -0.00439016 0)
(0.159709 -0.0040286 0)
(0.172611 -0.00362714 0)
(0.183957 -0.00312577 0)
(0.193519 -0.00257273 0)
(0.201238 -0.0019842 0)
(0.206857 -0.00133675 0)
(0.210173 -0.000643136 0)
(0.21114 3.04296e-05 0)
(0.209889 0.00070319 0)
(0.20629 0.00142 0)
(0.200388 0.00208738 0)
(0.192325 0.00270407 0)
(0.182245 0.00328901 0)
(0.170333 0.00378307 0)
(0.156855 0.00422548 0)
(0.142013 0.00458523 0)
(0.126103 0.00486577 0)
(0.109415 0.0050708 0)
(0.0921612 0.00520458 0)
(0.0745817 0.00525042 0)
(0.0569494 0.00524814 0)
(0.0394696 0.0051789 0)
(0.0222911 0.00505851 0)
(0.0055569 0.00490284 0)
(-0.010539 0.0047204 0)
(-0.0258927 0.00448388 0)
(-0.0405493 0.00423938 0)
(-0.0543636 0.00399475 0)
(-0.0672009 0.00373654 0)
(-0.0792187 0.00344266 0)
(-0.090358 0.00319014 0)
(-0.10051 0.00293303 0)
(-0.109838 0.00264184 0)
(-0.118312 0.00240425 0)
(-0.125827 0.00213743 0)
(-0.132572 0.00187716 0)
(-0.138475 0.00163906 0)
(-0.143529 0.00139394 0)
(-0.147872 0.00115784 0)
(-0.151332 0.000920597 0)
(-0.154064 0.000681416 0)
(-0.156085 0.00046455 0)
(-0.157197 0.000200866 0)
(-0.157579 -2.52101e-06 0)
(-0.157163 -0.00026967 0)
(-0.155978 -0.000476365 0)
(-0.154042 -0.000695258 0)
(-0.151286 -0.000946383 0)
(-0.147721 -0.0011527 0)
(-0.143433 -0.00139234 0)
(-0.138354 -0.00163116 0)
(-0.132402 -0.00185574 0)
(-0.125792 -0.00206924 0)
(-0.11833 -0.00232109 0)
(-0.110117 -0.00254199 0)
(-0.101151 -0.00277895 0)
(-0.0913528 -0.00301087 0)
(-0.0809468 -0.00317696 0)
(-0.0697202 -0.00342927 0)
(-0.0576873 -0.00362932 0)
(-0.0451558 -0.00380605 0)
(-0.0319696 -0.00402335 0)
(-0.0180277 -0.00417884 0)
(-0.00379961 -0.00440769 0)
(0.0108802 -0.0045366 0)
(0.0262443 -0.00463806 0)
(0.0420459 -0.00479344 0)
(0.0582255 -0.00485915 0)
(0.0746259 -0.0048762 0)
(0.0911254 -0.00492952 0)
(0.107596 -0.00486788 0)
(0.123858 -0.00481917 0)
(0.139746 -0.00465785 0)
(0.155048 -0.00442776 0)
(0.169536 -0.00418615 0)
(0.183019 -0.00383929 0)
(0.195272 -0.00342811 0)
(0.206075 -0.00298175 0)
(0.21524 -0.00245748 0)
(0.222593 -0.00189197 0)
(0.227978 -0.00127325 0)
(0.231294 -0.000625814 0)
(0.232359 2.30699e-05 0)
(0.231169 0.000698287 0)
(0.227545 0.00140702 0)
(0.221714 0.00205559 0)
(0.213708 0.00269788 0)
(0.203637 0.00331493 0)
(0.191684 0.00380091 0)
(0.178069 0.00429007 0)
(0.163031 0.004616 0)
(0.146848 0.00494924 0)
(0.129784 0.0052077 0)
(0.112122 0.00527913 0)
(0.0941449 0.00537031 0)
(0.0761031 0.00538705 0)
(0.0582251 0.00524754 0)
(0.0407006 0.00513551 0)
(0.0235959 0.00489546 0)
(0.00737947 0.00468218 0)
(-0.00777272 0.0044471 0)
(-0.022096 0.00413759 0)
(-0.0355281 0.0038605 0)
(-0.0479736 0.00356958 0)
(-0.0594047 0.00324791 0)
(-0.0698218 0.00295559 0)
(-0.0792378 0.00264949 0)
(-0.0876794 0.00237058 0)
(-0.0951792 0.00209938 0)
(-0.101773 0.00183098 0)
(-0.107507 0.00158313 0)
(-0.113127 0.00134453 0)
(-0.147146 -0.00377472 0)
(-0.140331 -0.00426652 0)
(-0.131253 -0.0047408 0)
(-0.12119 -0.00522152 0)
(-0.110111 -0.00575988 0)
(-0.0980029 -0.00624728 0)
(-0.0848684 -0.00680109 0)
(-0.0707151 -0.00726897 0)
(-0.055579 -0.00770757 0)
(-0.0395003 -0.00822658 0)
(-0.0224736 -0.00858969 0)
(-0.0047538 -0.00889431 0)
(0.0135201 -0.00927744 0)
(0.0323777 -0.00942687 0)
(0.051584 -0.0096548 0)
(0.0709361 -0.00960707 0)
(0.0901973 -0.00943502 0)
(0.109127 -0.00931616 0)
(0.127473 -0.00890099 0)
(0.144961 -0.00835485 0)
(0.161325 -0.00781158 0)
(0.176303 -0.00702538 0)
(0.189645 -0.00613232 0)
(0.201121 -0.00518759 0)
(0.210524 -0.00410509 0)
(0.217697 -0.00296425 0)
(0.222508 -0.00175603 0)
(0.224923 -0.000532192 0)
(0.224869 0.000685106 0)
(0.22221 0.00194196 0)
(0.217069 0.00317367 0)
(0.209597 0.00425765 0)
(0.199918 0.00534249 0)
(0.188205 0.00621702 0)
(0.17469 0.00708668 0)
(0.159582 0.00786722 0)
(0.143136 0.00835365 0)
(0.125621 0.00885182 0)
(0.107295 0.00923886 0)
(0.0883951 0.00933575 0)
(0.069123 0.00945187 0)
(0.0497803 0.00933867 0)
(0.0306618 0.00925441 0)
(0.0121474 0.00904856 0)
(-0.00544487 0.00872819 0)
(-0.0224151 0.00840932 0)
(-0.0388811 0.00802765 0)
(-0.0545403 0.0075577 0)
(-0.0693235 0.00711715 0)
(-0.0831739 0.00664934 0)
(-0.0960589 0.0061478 0)
(-0.107983 0.00567437 0)
(-0.118952 0.00518603 0)
(-0.128988 0.00472756 0)
(-0.138099 0.00427402 0)
(-0.146315 0.00382707 0)
(-0.153676 0.00340419 0)
(-0.160194 0.00298186 0)
(-0.165899 0.0025741 0)
(-0.170791 0.00218251 0)
(-0.1749 0.00178409 0)
(-0.178259 0.00142803 0)
(-0.180828 0.00103675 0)
(-0.182606 0.000638023 0)
(-0.183615 0.000303871 0)
(-0.183886 -9.64122e-05 0)
(-0.183256 -0.000504606 0)
(-0.181828 -0.000905135 0)
(-0.179647 -0.00135028 0)
(-0.176553 -0.00170669 0)
(-0.172618 -0.0021452 0)
(-0.167884 -0.0025904 0)
(-0.162368 -0.0029941 0)
(-0.155928 -0.00337526 0)
(-0.148535 -0.00387885 0)
(-0.140393 -0.00425556 0)
(-0.131477 -0.00472874 0)
(-0.121508 -0.00512877 0)
(-0.11069 -0.0055441 0)
(-0.0992653 -0.00595286 0)
(-0.0868902 -0.0063268 0)
(-0.0736886 -0.00671454 0)
(-0.0597689 -0.0070803 0)
(-0.0451424 -0.00744773 0)
(-0.0298906 -0.00775399 0)
(-0.0139633 -0.00805557 0)
(0.00255449 -0.00826703 0)
(0.0194965 -0.00849876 0)
(0.0367495 -0.00863374 0)
(0.0542058 -0.00869077 0)
(0.0716939 -0.0086862 0)
(0.0890369 -0.0085321 0)
(0.106022 -0.00831068 0)
(0.122466 -0.00798951 0)
(0.138169 -0.00753392 0)
(0.152848 -0.00698697 0)
(0.166224 -0.00628931 0)
(0.178176 -0.00548813 0)
(0.188404 -0.00459196 0)
(0.196593 -0.00358636 0)
(0.20279 -0.00252549 0)
(0.206813 -0.00140012 0)
(0.208393 -0.000228543 0)
(0.2077 0.000920417 0)
(0.204552 0.00217541 0)
(0.198971 0.00334334 0)
(0.191099 0.00446302 0)
(0.180981 0.00553364 0)
(0.168826 0.006496 0)
(0.154833 0.00735679 0)
(0.139215 0.00808619 0)
(0.122265 0.0086693 0)
(0.10425 0.00914319 0)
(0.0854903 0.00946111 0)
(0.0662375 0.00961558 0)
(0.0467854 0.00964498 0)
(0.0274357 0.00954353 0)
(0.00837517 0.00933188 0)
(-0.0101586 0.00901611 0)
(-0.0279568 0.00862741 0)
(-0.0449055 0.00820438 0)
(-0.0608962 0.00766531 0)
(-0.075856 0.00714708 0)
(-0.0897012 0.00658286 0)
(-0.102411 0.0060451 0)
(-0.114003 0.00546075 0)
(-0.124494 0.00493819 0)
(-0.133881 0.0044044 0)
(-0.142215 0.00387848 0)
(-0.149546 0.00339277 0)
(-0.155887 0.00291861 0)
(-0.161323 0.0024611 0)
(-0.165918 0.00205779 0)
(-0.169676 0.00168788 0)
(-0.172651 0.00130738 0)
(-0.174922 0.000969786 0)
(-0.176557 0.000656749 0)
(-0.177596 0.000366469 0)
(-0.178089 0.000109098 0)
(-0.178028 -0.000151278 0)
(-0.177417 -0.000433737 0)
(-0.176363 -0.000678875 0)
(-0.174717 -0.000908067 0)
(-0.172559 -0.00118257 0)
(-0.169961 -0.00142414 0)
(-0.166795 -0.00172865 0)
(-0.163001 -0.0020908 0)
(-0.158411 -0.00241869 0)
(-0.153081 -0.00281684 0)
(-0.147061 -0.00323265 0)
(-0.140176 -0.00359109 0)
(-0.132348 -0.00409456 0)
(-0.123682 -0.00451179 0)
(-0.114129 -0.00498659 0)
(-0.103577 -0.00547715 0)
(-0.0920602 -0.00595415 0)
(-0.0795354 -0.00644272 0)
(-0.0660113 -0.00693199 0)
(-0.0516212 -0.00734904 0)
(-0.0363608 -0.0077869 0)
(-0.0202465 -0.0081656 0)
(-0.00343887 -0.00848164 0)
(0.0139634 -0.00874332 0)
(0.0318046 -0.00892283 0)
(0.0499256 -0.00900231 0)
(0.0680825 -0.0089812 0)
(0.0860687 -0.00886196 0)
(0.103718 -0.0086049 0)
(0.120763 -0.0082368 0)
(0.136876 -0.00773273 0)
(0.15187 -0.00711902 0)
(0.165533 -0.00637471 0)
(0.177521 -0.00546499 0)
(0.187589 -0.00450656 0)
(0.195603 -0.00346083 0)
(0.201498 -0.00234778 0)
(0.205148 -0.00122058 0)
(0.206342 -1.4539e-05 0)
(0.205193 0.00114151 0)
(0.201673 0.00231508 0)
(0.195849 0.00341563 0)
(0.187917 0.00443169 0)
(0.177986 0.00538175 0)
(0.166252 0.00623219 0)
(0.15291 0.00698563 0)
(0.13815 0.00762411 0)
(0.12226 0.00812093 0)
(0.105446 0.00851801 0)
(0.087936 0.00878128 0)
(0.0700348 0.00893649 0)
(0.0519787 0.00898852 0)
(0.0339348 0.00890593 0)
(0.0160957 0.00878014 0)
(-0.0013729 0.00854203 0)
(-0.0183307 0.00824365 0)
(-0.0346191 0.0079019 0)
(-0.0501196 0.00749234 0)
(-0.0647905 0.00705446 0)
(-0.0785514 0.00657214 0)
(-0.091333 0.00608797 0)
(-0.103128 0.00563753 0)
(-0.113938 0.00511471 0)
(-0.123782 0.00464835 0)
(-0.132674 0.00417393 0)
(-0.14065 0.00373673 0)
(-0.147688 0.00327773 0)
(-0.153859 0.00284578 0)
(-0.159213 0.00244274 0)
(-0.163717 0.00203758 0)
(-0.167411 0.00166246 0)
(-0.170371 0.00128084 0)
(-0.172608 0.000921548 0)
(-0.174118 0.000592344 0)
(-0.174936 0.000238448 0)
(-0.175167 -8.41324e-05 0)
(-0.174646 -0.000407023 0)
(-0.173388 -0.000776789 0)
(-0.171533 -0.00107484 0)
(-0.169008 -0.00141575 0)
(-0.16581 -0.00176891 0)
(-0.161954 -0.00206827 0)
(-0.157304 -0.00247938 0)
(-0.151991 -0.00282409 0)
(-0.146006 -0.00321044 0)
(-0.139013 -0.00367576 0)
(-0.131115 -0.00411054 0)
(-0.122378 -0.00455173 0)
(-0.112724 -0.00499769 0)
(-0.102306 -0.00543271 0)
(-0.0909196 -0.00584242 0)
(-0.0786264 -0.0062621 0)
(-0.0656055 -0.00667491 0)
(-0.0517696 -0.00707486 0)
(-0.037161 -0.00741644 0)
(-0.0218014 -0.00778445 0)
(-0.00574705 -0.00808409 0)
(0.0108283 -0.00831813 0)
(0.0278437 -0.00852306 0)
(0.0451666 -0.00863657 0)
(0.06262 -0.00868151 0)
(0.0801043 -0.00861166 0)
(0.0973786 -0.00847202 0)
(0.114173 -0.00818677 0)
(0.130312 -0.00779477 0)
(0.145589 -0.0073297 0)
(0.159785 -0.00672182 0)
(0.172721 -0.00603113 0)
(0.184077 -0.00520808 0)
(0.193642 -0.00429333 0)
(0.20136 -0.00331723 0)
(0.206998 -0.00222908 0)
(0.210326 -0.00107668 0)
(0.211296 4.51252e-05 0)
(0.210035 0.00118123 0)
(0.206448 0.00237313 0)
(0.200532 0.00348229 0)
(0.192452 0.00450652 0)
(0.182357 0.00548093 0)
(0.170431 0.00631334 0)
(0.156929 0.00704865 0)
(0.142066 0.00764266 0)
(0.126141 0.00811573 0)
(0.109426 0.00845527 0)
(0.0921549 0.00866892 0)
(0.0745654 0.00876018 0)
(0.0569103 0.00875208 0)
(0.0394169 0.00863233 0)
(0.0222318 0.00843415 0)
(0.00548926 0.00817296 0)
(-0.0106148 0.00787204 0)
(-0.0259784 0.00747737 0)
(-0.0406335 0.00706836 0)
(-0.0544427 0.0066632 0)
(-0.0672958 0.00622989 0)
(-0.0793116 0.00573318 0)
(-0.0904333 0.00531966 0)
(-0.100594 0.00489246 0)
(-0.109922 0.00440052 0)
(-0.118384 0.00400343 0)
(-0.125903 0.00356668 0)
(-0.132647 0.00312734 0)
(-0.138537 0.00273377 0)
(-0.143598 0.00232443 0)
(-0.147939 0.00192557 0)
(-0.151394 0.00153887 0)
(-0.154129 0.0011348 0)
(-0.15615 0.00077757 0)
(-0.157263 0.000334989 0)
(-0.157643 -5.41114e-06 0)
(-0.157226 -0.000451667 0)
(-0.156036 -0.000795177 0)
(-0.154101 -0.00115833 0)
(-0.151346 -0.00157649 0)
(-0.147785 -0.00192432 0)
(-0.143494 -0.00231906 0)
(-0.138414 -0.00271724 0)
(-0.132463 -0.00309213 0)
(-0.125851 -0.00345186 0)
(-0.118392 -0.00386855 0)
(-0.110176 -0.00423676 0)
(-0.101212 -0.00463244 0)
(-0.0914104 -0.0050166 0)
(-0.0810005 -0.00529577 0)
(-0.0697779 -0.00571383 0)
(-0.0577433 -0.00604966 0)
(-0.0452067 -0.00634402 0)
(-0.0320174 -0.00670598 0)
(-0.0180771 -0.0069662 0)
(-0.00384467 -0.00734564 0)
(0.0108428 -0.0075615 0)
(0.0262108 -0.00773086 0)
(0.0420189 -0.00799029 0)
(0.0582068 -0.0081002 0)
(0.0746168 -0.00812838 0)
(0.091128 -0.00821786 0)
(0.107611 -0.00811579 0)
(0.123889 -0.00803446 0)
(0.139792 -0.00776588 0)
(0.155109 -0.00738244 0)
(0.169616 -0.00697956 0)
(0.183115 -0.00640215 0)
(0.195384 -0.00571621 0)
(0.206205 -0.00497214 0)
(0.215384 -0.00409751 0)
(0.222749 -0.00315693 0)
(0.228143 -0.00212768 0)
(0.23147 -0.0010469 0)
(0.232553 4.26208e-05 0)
(0.23134 0.00116689 0)
(0.22772 0.00234679 0)
(0.221885 0.00342725 0)
(0.21387 0.00449863 0)
(0.203787 0.00552743 0)
(0.191814 0.00633777 0)
(0.178181 0.00715351 0)
(0.163121 0.00769686 0)
(0.146917 0.00825246 0)
(0.129831 0.00868325 0)
(0.112147 0.00880198 0)
(0.0941495 0.00895376 0)
(0.076089 0.00898138 0)
(0.0581951 0.00874843 0)
(0.0406553 0.0085615 0)
(0.0235388 0.00816121 0)
(0.00731377 0.0078044 0)
(-0.00784417 0.00741264 0)
(-0.0221715 0.00689658 0)
(-0.0356072 0.00643452 0)
(-0.0480544 0.0059494 0)
(-0.0594846 0.00541308 0)
(-0.0699009 0.00492571 0)
(-0.0793142 0.00441544 0)
(-0.0877535 0.00395052 0)
(-0.0952505 0.00349846 0)
(-0.10184 0.00305113 0)
(-0.107571 0.00263804 0)
(-0.113188 0.00224041 0)
(-0.147257 -0.00528365 0)
(-0.140445 -0.00597227 0)
(-0.13137 -0.00663642 0)
(-0.121309 -0.00730966 0)
(-0.110232 -0.00806364 0)
(-0.0981238 -0.00874636 0)
(-0.0849893 -0.00952218 0)
(-0.0708315 -0.0101776 0)
(-0.0556887 -0.0107923 0)
(-0.0396036 -0.0115192 0)
(-0.0225657 -0.0120275 0)
(-0.00483078 -0.0124559 0)
(0.0134597 -0.0129931 0)
(0.0323378 -0.0132027 0)
(0.0515674 -0.0135227 0)
(0.070946 -0.0134564 0)
(0.0902352 -0.0132159 0)
(0.109197 -0.01305 0)
(0.127573 -0.0124687 0)
(0.145091 -0.011704 0)
(0.16149 -0.0109434 0)
(0.176496 -0.00984219 0)
(0.189863 -0.00859128 0)
(0.201366 -0.00726804 0)
(0.210788 -0.00575136 0)
(0.217979 -0.00415374 0)
(0.222798 -0.00246575 0)
(0.225233 -0.00074777 0)
(0.225162 0.000979529 0)
(0.222485 0.00272302 0)
(0.217348 0.00444527 0)
(0.209855 0.005965 0)
(0.200157 0.00748501 0)
(0.188415 0.00870997 0)
(0.174874 0.00992788 0)
(0.159737 0.0110212 0)
(0.143258 0.0117024 0)
(0.125711 0.0123997 0)
(0.107355 0.0129413 0)
(0.0884246 0.0130761 0)
(0.0691254 0.0132388 0)
(0.0497605 0.0130789 0)
(0.0306159 0.0129625 0)
(0.0120852 0.0126705 0)
(-0.00551874 0.0122228 0)
(-0.0225063 0.0117758 0)
(-0.0389826 0.0112407 0)
(-0.0546476 0.0105822 0)
(-0.0694362 0.00996478 0)
(-0.0832894 0.00930969 0)
(-0.0961742 0.00860724 0)
(-0.108098 0.00794408 0)
(-0.119064 0.00726054 0)
(-0.129098 0.00661889 0)
(-0.138206 0.00598356 0)
(-0.146418 0.00535846 0)
(-0.153775 0.00476702 0)
(-0.160292 0.00417404 0)
(-0.165992 0.00360489 0)
(-0.170886 0.00305583 0)
(-0.174988 0.00249834 0)
(-0.178347 0.00199994 0)
(-0.18092 0.00145223 0)
(-0.182696 0.000895892 0)
(-0.18372 0.000420637 0)
(-0.183977 -0.000136277 0)
(-0.183353 -0.000709602 0)
(-0.181927 -0.00126519 0)
(-0.179744 -0.00188981 0)
(-0.176656 -0.00239005 0)
(-0.172725 -0.00300519 0)
(-0.167985 -0.00363023 0)
(-0.16247 -0.00419521 0)
(-0.156043 -0.00472609 0)
(-0.148643 -0.00542469 0)