/*--------------------------------*- C++ -*----------------------------------*\
| =========                 |                                                 |
| \\      /  F ield         | OpenFOAM: The Open Source CFD Toolbox           |
|  \\    /   O peration     | Version:  3.0.1                                 |
|   \\  /    A nd           | Web:      www.OpenFOAM.org                      |
|    \\/     M anipulation  |                                                 |
\*---------------------------------------------------------------------------*/
FoamFile
{
    version     2.0;
    format      ascii;
    class       volVectorField;
    location    "19";
    object      U;
}
// * * * * * * * * * * * * * * * * * * * * * * * * * * * * * * * * * * * * * //

dimensions      [0 1 -1 0 0 0 0];

internalField   nonuniform List<vector> 
22680
(
(0.0724925 -0.00187292 0)
(0.0876207 -0.00187411 0)
(0.103263 -0.00182263 0)
(0.118543 -0.00178909 0)
(0.133307 -0.001703 0)
(0.147403 -0.00163119 0)
(0.160675 -0.00151116 0)
(0.172973 -0.00140026 0)
(0.184153 -0.0012493 0)
(0.194078 -0.00110177 0)
(0.202624 -0.000925135 0)
(0.209682 -0.000747188 0)
(0.215159 -0.000552093 0)
(0.21898 -0.000353534 0)
(0.221097 -0.000148258 0)
(0.221453 5.61401e-05 0)
(0.220107 0.000261244 0)
(0.217007 0.000466747 0)
(0.212244 0.00065943 0)
(0.205869 0.000850485 0)
(0.197968 0.00101903 0)
(0.188646 0.00118938 0)
(0.17802 0.00132513 0)
(0.166224 0.0014677 0)
(0.153399 0.0015657 0)
(0.139695 0.00167571 0)
(0.125266 0.00173464 0)
(0.110266 0.00180966 0)
(0.094851 0.00183111 0)
(0.07917 0.00187107 0)
(0.0633682 0.00185897 0)
(0.0475807 0.00186622 0)
(0.0319361 0.0018263 0)
(0.0165804 0.00180536 0)
(0.00151814 0.00177341 0)
(-0.0131712 0.00170383 0)
(-0.0273183 0.00165137 0)
(-0.0408964 0.00157139 0)
(-0.0538725 0.00150691 0)
(-0.0662175 0.001422 0)
(-0.0779117 0.00135078 0)
(-0.0889436 0.00126529 0)
(-0.0993089 0.00119135 0)
(-0.109009 0.0011081 0)
(-0.118052 0.00103434 0)
(-0.126446 0.000954952 0)
(-0.134206 0.000883172 0)
(-0.141345 0.000808351 0)
(-0.14788 0.000739511 0)
(-0.153827 0.000669376 0)
(-0.159204 0.000603888 0)
(-0.164026 0.000539564 0)
(-0.168309 0.000475883 0)
(-0.172069 0.000414945 0)
(-0.175319 0.000355086 0)
(-0.178074 0.000296993 0)
(-0.180348 0.000240008 0)
(-0.182147 0.000184358 0)
(-0.183484 0.000128595 0)
(-0.184342 7.50743e-05 0)
(-0.184748 2.08494e-05 0)
(-0.184695 -3.47278e-05 0)
(-0.184162 -9.27356e-05 0)
(-0.183152 -0.000149518 0)
(-0.181649 -0.000210177 0)
(-0.179639 -0.000269636 0)
(-0.177107 -0.00033482 0)
(-0.174035 -0.000397197 0)
(-0.170408 -0.000467516 0)
(-0.166224 -0.00053058 0)
(-0.161451 -0.000598284 0)
(-0.156058 -0.000676941 0)
(-0.150042 -0.000744595 0)
(-0.143379 -0.000830264 0)
(-0.136068 -0.000899421 0)
(-0.128078 -0.000991692 0)
(-0.11939 -0.00106288 0)
(-0.110018 -0.00115903 0)
(-0.0999527 -0.00122452 0)
(-0.0891524 -0.00132423 0)
(-0.0777161 -0.0013903 0)
(-0.0655826 -0.00147959 0)
(-0.0527906 -0.00153858 0)
(-0.0394565 -0.00162024 0)
(-0.0255858 -0.00166906 0)
(-0.0112714 -0.00173089 0)
(0.00359136 -0.00177178 0)
(0.0187925 -0.00180762 0)
(0.034166 -0.00182788 0)
(0.049642 -0.00183011 0)
(0.0651233 -0.00182753 0)
(0.0804775 -0.00180416 0)
(0.0955829 -0.00177651 0)
(0.110367 -0.00172282 0)
(0.124664 -0.00166522 0)
(0.138354 -0.00158495 0)
(0.151331 -0.00149528 0)
(0.163465 -0.00138381 0)
(0.174624 -0.00126703 0)
(0.184694 -0.0011269 0)
(0.193577 -0.00098141 0)
(0.201164 -0.000818552 0)
(0.207372 -0.000657137 0)
(0.21213 -0.000475967 0)
(0.215393 -0.000301694 0)
(0.217157 -0.000118497 0)
(0.217403 5.4473e-05 0)
(0.216119 0.000238689 0)
(0.213331 0.00041244 0)
(0.209156 0.000575214 0)
(0.203616 0.000730079 0)
(0.196861 0.000869169 0)
(0.188915 0.00100635 0)
(0.179943 0.00111659 0)
(0.170024 0.00122968 0)
(0.159317 0.00130828 0)
(0.147898 0.00139308 0)
(0.135918 0.00144393 0)
(0.123481 0.00149925 0)
(0.110668 0.00152588 0)
(0.097687 0.00155689 0)
(0.0845943 0.00155268 0)
(0.0713521 0.00157578 0)
(0.0581283 0.00155344 0)
(0.0450787 0.00154492 0)
(0.0321546 0.00152577 0)
(0.0193257 0.00151319 0)
(0.0066367 0.00148696 0)
(-0.00573316 0.00145546 0)
(-0.017933 0.00143083 0)
(-0.0298355 0.00139259 0)
(-0.0414872 0.00136625 0)
(-0.0528385 0.00132515 0)
(-0.0639298 0.00129672 0)
(-0.0747191 0.00126122 0)
(-0.0852519 0.00122774 0)
(-0.0954908 0.00119832 0)
(-0.105415 0.0011583 0)
(-0.115113 0.00112667 0)
(-0.124448 0.00108971 0)
(-0.133482 0.00104631 0)
(-0.142164 0.00101076 0)
(-0.150484 0.000958533 0)
(-0.158384 0.000910971 0)
(-0.165813 0.000852677 0)
(-0.172747 0.00078998 0)
(-0.179105 0.000716598 0)
(-0.184845 0.000639463 0)
(-0.189901 0.000558669 0)
(-0.19423 0.000467361 0)
(-0.197783 0.000372977 0)
(-0.200525 0.000269714 0)
(-0.202371 0.000160092 0)
(-0.203237 6.46902e-05 0)
(-0.203392 -4.14074e-05 0)
(-0.202491 -0.000156314 0)
(-0.200695 -0.000265975 0)
(-0.197956 -0.000374291 0)
(-0.194316 -0.000483292 0)
(-0.189819 -0.000590846 0)
(-0.184365 -0.000688557 0)
(-0.178034 -0.000797801 0)
(-0.17094 -0.00089461 0)
(-0.162957 -0.000981751 0)
(-0.154262 -0.00107608 0)
(-0.144889 -0.00115241 0)
(-0.134718 -0.00123849 0)
(-0.123895 -0.00131972 0)
(-0.112376 -0.00140058 0)
(-0.100263 -0.0014731 0)
(-0.0874914 -0.00155496 0)
(-0.0740214 -0.00162443 0)
(-0.0599646 -0.00170127 0)
(-0.0453642 -0.00176875 0)
(-0.0301166 -0.00184076 0)
(-0.0143637 -0.00189246 0)
(0.00193539 -0.00196176 0)
(0.0187017 -0.0019969 0)
(0.0357944 -0.00204588 0)
(0.0531507 -0.00206442 0)
(0.0706636 -0.00207252 0)
(0.0880418 -0.0020431 0)
(0.105124 -0.0020182 0)
(0.122044 -0.00196793 0)
(0.138296 -0.00189575 0)
(0.153988 -0.00181376 0)
(0.168793 -0.00169797 0)
(0.182649 -0.0015809 0)
(0.195358 -0.00143041 0)
(0.20678 -0.00127727 0)
(0.216817 -0.00109628 0)
(0.225289 -0.000910674 0)
(0.232129 -0.000707902 0)
(0.237208 -0.000498185 0)
(0.240503 -0.000281909 0)
(0.241924 -6.16075e-05 0)
(0.241558 0.000155629 0)
(0.239201 0.000382843 0)
(0.234997 0.000601939 0)
(0.2291 0.000810291 0)
(0.221363 0.00101635 0)
(0.212011 0.00120007 0)
(0.201191 0.00134257 0)
(0.189357 0.00148235 0)
(0.176268 0.00161636 0)
(0.162112 0.00173 0)
(0.147202 0.00179719 0)
(0.131728 0.00186857 0)
(0.115884 0.00189009 0)
(0.0998151 0.00191851 0)
(0.0836228 0.00191001 0)
(0.0675554 0.00189438 0)
(0.0517723 0.00183276 0)
(0.0365777 0.00176275 0)
(0.0221409 0.00164297 0)
(0.0086403 0.00152703 0)
(-0.00346529 0.00133623 0)
(-0.0139635 0.0011554 0)
(-0.0226784 0.000930755 0)
(-0.0297327 0.000862379 0)
(-0.0367306 0.00124158 0)
(-0.0461212 0.00168361 0)
(-0.0621394 0.000274151 0)
(-0.0760449 -0.00321896 0)
(-0.0680851 -0.0127284 0)
(0.0724972 -0.00561963 0)
(0.087633 -0.00562331 0)
(0.103283 -0.00546887 0)
(0.118572 -0.00536831 0)
(0.133345 -0.00511002 0)
(0.14745 -0.00489463 0)
(0.160729 -0.00453445 0)
(0.173037 -0.00420175 0)
(0.184223 -0.00374877 0)
(0.194156 -0.00330609 0)
(0.202707 -0.00277608 0)
(0.209772 -0.00224214 0)
(0.215252 -0.00165668 0)
(0.219076 -0.00106086 0)
(0.221193 -0.000445303 0)
(0.221553 0.000169584 0)
(0.220203 0.000784071 0)
(0.217101 0.0014006 0)
(0.212334 0.00197873 0)
(0.205955 0.00255208 0)
(0.198048 0.00305781 0)
(0.18872 0.00356899 0)
(0.178086 0.00397629 0)
(0.166283 0.00440409 0)
(0.153448 0.0046981 0)
(0.139736 0.00502815 0)
(0.125297 0.00520494 0)
(0.11029 0.00543 0)
(0.0948661 0.0054943 0)
(0.0791771 0.00561415 0)
(0.0633678 0.00557776 0)
(0.0475732 0.00559944 0)
(0.0319226 0.00547961 0)
(0.0165616 0.00541682 0)
(0.00149425 0.00532067 0)
(-0.013199 0.00511181 0)
(-0.0273496 0.00495443 0)
(-0.0409296 0.00471442 0)
(-0.0539078 0.00452092 0)
(-0.0662536 0.00426613 0)
(-0.0779488 0.0040524 0)
(-0.0889806 0.00379588 0)
(-0.0993461 0.00357403 0)
(-0.109046 0.00332426 0)
(-0.118088 0.00310296 0)
(-0.126481 0.00286478 0)
(-0.13424 0.00264942 0)
(-0.141378 0.00242496 0)
(-0.147913 0.00221843 0)
(-0.153859 0.00200803 0)
(-0.159235 0.00181157 0)
(-0.164056 0.0016186 0)
(-0.168338 0.00142756 0)
(-0.172097 0.00124478 0)
(-0.175347 0.00106523 0)
(-0.178101 0.00089092 0)
(-0.180374 0.000720091 0)
(-0.182173 0.000552987 0)
(-0.18351 0.000386209 0)
(-0.18437 0.000225865 0)
(-0.184775 6.35699e-05 0)
(-0.184722 -0.000104117 0)
(-0.18419 -0.000278068 0)
(-0.183181 -0.000448447 0)
(-0.181678 -0.000630247 0)
(-0.179669 -0.00080874 0)
(-0.177139 -0.00100427 0)
(-0.174068 -0.00119141 0)
(-0.170442 -0.00140224 0)
(-0.166259 -0.00159163 0)
(-0.161488 -0.0017947 0)
(-0.156097 -0.00203064 0)
(-0.150082 -0.00223365 0)
(-0.14342 -0.00249061 0)
(-0.136111 -0.00269821 0)
(-0.128123 -0.00297499 0)
(-0.119436 -0.00318841 0)
(-0.110063 -0.00347752 0)
(-0.0999988 -0.00367354 0)
(-0.0891995 -0.00397276 0)
(-0.0777606 -0.00417088 0)
(-0.0656254 -0.00443931 0)
(-0.0528321 -0.00461665 0)
(-0.0394949 -0.00486225 0)
(-0.0256188 -0.00500694 0)
(-0.0113017 -0.00519454 0)
(0.00356716 -0.00531665 0)
(0.018776 -0.00542414 0)
(0.0341549 -0.00548671 0)
(0.0496395 -0.00549059 0)
(0.065129 -0.0054826 0)
(0.0804909 -0.00541323 0)
(0.0956053 -0.00533184 0)
(0.110398 -0.0051712 0)
(0.124704 -0.00499816 0)
(0.138402 -0.00475676 0)
(0.151389 -0.0044885 0)
(0.163532 -0.00415053 0)
(0.174699 -0.0038021 0)
(0.184777 -0.00337985 0)
(0.193664 -0.00294924 0)
(0.201257 -0.00245825 0)
(0.207469 -0.00197138 0)
(0.212231 -0.00142826 0)
(0.2155 -0.000903649 0)
(0.217265 -0.000354518 0)
(0.217509 0.000164337 0)
(0.216209 0.000719882 0)
(0.213425 0.00123837 0)
(0.209246 0.00172799 0)
(0.203699 0.00219181 0)
(0.19694 0.00261072 0)
(0.188985 0.00302056 0)
(0.180009 0.00335171 0)
(0.170079 0.00368949 0)
(0.159367 0.00392898 0)
(0.147936 0.00418196 0)
(0.135952 0.00433271 0)
(0.123504 0.00450109 0)
(0.110687 0.00457911 0)
(0.0976915 0.00466952 0)
(0.0846022 0.00466293 0)
(0.0713455 0.00473095 0)
(0.0581184 0.00465771 0)
(0.045069 0.00464226 0)
(0.0321424 0.00457756 0)
(0.0193095 0.00454079 0)
(0.00661493 0.00446147 0)
(-0.00575566 0.00436633 0)
(-0.0179581 0.00429173 0)
(-0.0298611 0.00417864 0)
(-0.0415142 0.00409806 0)
(-0.052867 0.00397664 0)
(-0.0639589 0.00388941 0)
(-0.0747501 0.00378509 0)
(-0.0852834 0.00368277 0)
(-0.0955242 0.00359486 0)
(-0.10545 0.00347529 0)
(-0.115148 0.00337864 0)
(-0.124486 0.00327095 0)
(-0.133521 0.00313732 0)
(-0.142204 0.00303618 0)
(-0.150529 0.00287513 0)
(-0.158431 0.00273252 0)
(-0.165866 0.00255559 0)
(-0.1728 0.00237165 0)
(-0.179162 0.00215196 0)
(-0.184904 0.0019156 0)
(-0.189964 0.00167396 0)
(-0.194296 0.00140012 0)
(-0.197849 0.0011193 0)
(-0.20059 0.000808227 0)
(-0.202445 0.000484166 0)
(-0.203316 0.000203204 0)
(-0.20346 -0.000128572 0)
(-0.202561 -0.000469815 0)
(-0.200761 -0.000798533 0)
(-0.198018 -0.00112372 0)
(-0.194375 -0.00145217 0)
(-0.189869 -0.00177695 0)
(-0.184412 -0.00206756 0)
(-0.178083 -0.00239743 0)
(-0.17099 -0.00269127 0)
(-0.163013 -0.0029531 0)
(-0.154322 -0.0032314 0)
(-0.144948 -0.00346152 0)
(-0.134774 -0.00371412 0)
(-0.123944 -0.00396032 0)
(-0.112419 -0.00420193 0)
(-0.100304 -0.00442389 0)
(-0.0875285 -0.00466743 0)
(-0.0740544 -0.00487433 0)
(-0.0599956 -0.00510352 0)
(-0.0453921 -0.00530951 0)
(-0.0301409 -0.00552448 0)
(-0.0143857 -0.00567688 0)
(0.001916 -0.00588858 0)
(0.0186884 -0.00599155 0)
(0.0357846 -0.00614031 0)
(0.0531499 -0.00619466 0)
(0.0706723 -0.00622239 0)
(0.0880601 -0.00613198 0)
(0.105148 -0.00605575 0)
(0.122082 -0.00590563 0)
(0.138343 -0.00568824 0)
(0.154044 -0.00544643 0)
(0.168859 -0.00509733 0)
(0.182726 -0.00474318 0)
(0.195443 -0.00429173 0)
(0.206873 -0.00383134 0)
(0.216914 -0.00329257 0)
(0.225392 -0.00273183 0)
(0.232241 -0.00212088 0)
(0.237329 -0.00149177 0)
(0.240633 -0.000839641 0)
(0.242058 -0.000179106 0)
(0.241684 0.000465795 0)
(0.239316 0.0011535 0)
(0.235119 0.00180933 0)
(0.229218 0.00243198 0)
(0.221475 0.00305016 0)
(0.21211 0.00360023 0)
(0.201269 0.00402333 0)
(0.189416 0.0044436 0)
(0.176322 0.0048501 0)
(0.162156 0.00519836 0)
(0.147241 0.00539357 0)
(0.131756 0.00560502 0)
(0.115906 0.00567311 0)
(0.099827 0.00576275 0)
(0.0836223 0.00573301 0)
(0.0675438 0.00568385 0)
(0.0517495 0.00550025 0)
(0.0365449 0.00529185 0)
(0.0220942 0.00493599 0)
(0.0085766 0.00457808 0)
(-0.00354041 0.0040169 0)
(-0.0140514 0.00348105 0)
(-0.0228956 0.00278806 0)
(-0.0302073 0.0024019 0)
(-0.0361776 0.00277641 0)
(-0.0400139 0.00409719 0)
(-0.0433595 0.00512823 0)
(-0.0464377 0.00644435 0)
(-0.0329991 0.0127209 0)
(0.0725067 -0.00936897 0)
(0.0876577 -0.00937538 0)
(0.103323 -0.00911806 0)
(0.11863 -0.00895066 0)
(0.133419 -0.00852011 0)
(0.147543 -0.00816122 0)
(0.160838 -0.00756068 0)
(0.173164 -0.0070061 0)
(0.184363 -0.00625082 0)
(0.194312 -0.0055128 0)
(0.202874 -0.00462907 0)
(0.209951 -0.00373877 0)
(0.215437 -0.00276245 0)
(0.219269 -0.00176896 0)
(0.221387 -0.000743039 0)
(0.221754 0.000284558 0)
(0.220393 0.0013098 0)
(0.21729 0.00233532 0)
(0.212515 0.00329941 0)
(0.206129 0.00425557 0)
(0.198207 0.00509883 0)
(0.188868 0.00595116 0)
(0.178216 0.00663017 0)
(0.166399 0.00734345 0)
(0.153546 0.0078335 0)
(0.139819 0.00838366 0)
(0.125361 0.00867827 0)
(0.110337 0.00905343 0)
(0.0948956 0.00916037 0)
(0.0791908 0.00936007 0)
(0.0633664 0.0092991 0)
(0.0475576 0.00933506 0)
(0.0318949 0.00913504 0)
(0.0165231 0.00903037 0)
(0.00144561 0.00886927 0)
(-0.0132555 0.00852085 0)
(-0.027413 0.00825843 0)
(-0.0409968 0.00785817 0)
(-0.0539793 0.00753545 0)
(-0.0663265 0.00711061 0)
(-0.0780238 0.00675418 0)
(-0.0890553 0.00632648 0)
(-0.0994212 0.00595662 0)
(-0.10912 0.00554024 0)
(-0.118161 0.00517134 0)
(-0.126552 0.00477432 0)
(-0.13431 0.00441536 0)
(-0.141446 0.00404124 0)
(-0.147979 0.00369702 0)
(-0.153923 0.00334636 0)
(-0.159297 0.00301892 0)
(-0.164117 0.00269733 0)
(-0.168397 0.00237896 0)
(-0.172154 0.00207439 0)
(-0.175402 0.00177523 0)
(-0.178155 0.00148485 0)
(-0.180427 0.00120025 0)
(-0.182225 0.000921971 0)
(-0.18356 0.000644848 0)
(-0.184424 0.000376759 0)
(-0.18483 0.000104161 0)
(-0.184776 -0.000173823 0)
(-0.184244 -0.000463117 0)
(-0.183236 -0.000747148 0)
(-0.181735 -0.00104978 0)
(-0.179728 -0.00134749 0)
(-0.177199 -0.00167333 0)
(-0.17413 -0.00198529 0)
(-0.170507 -0.00233645 0)
(-0.166325 -0.00265246 0)
(-0.161555 -0.00299082 0)
(-0.156167 -0.00338409 0)
(-0.150153 -0.0037224 0)
(-0.143494 -0.00415075 0)
(-0.136186 -0.00449703 0)
(-0.128201 -0.00495813 0)
(-0.119514 -0.00531349 0)
(-0.11014 -0.00579661 0)
(-0.100076 -0.00612423 0)
(-0.0892773 -0.00662042 0)
(-0.0778328 -0.00695326 0)
(-0.0656945 -0.00739926 0)
(-0.0528977 -0.00769666 0)
(-0.039555 -0.00810562 0)
(-0.0256705 -0.0083475 0)
(-0.0113484 -0.0086622 0)
(0.00353087 -0.00886252 0)
(0.0187513 -0.00904269 0)
(0.0341395 -0.00914818 0)
(0.0496372 -0.00915556 0)
(0.0651396 -0.00914251 0)
(0.0805129 -0.00902588 0)
(0.0956415 -0.0088904 0)
(0.110449 -0.00862098 0)
(0.124769 -0.00833453 0)
(0.138481 -0.00793189 0)
(0.151483 -0.00748544 0)
(0.163639 -0.00692096 0)
(0.174819 -0.00634074 0)
(0.18491 -0.00563612 0)
(0.193809 -0.00491744 0)
(0.201409 -0.00409828 0)
(0.207629 -0.00328803 0)
(0.212401 -0.00238495 0)
(0.215676 -0.00150946 0)
(0.217446 -0.000591797 0)
(0.217678 0.000280959 0)
(0.216359 0.0012036 0)
(0.213578 0.00206459 0)
(0.209391 0.00287843 0)
(0.203836 0.00365547 0)
(0.197071 0.00435253 0)
(0.1891 0.00503803 0)
(0.180116 0.00558693 0)
(0.170169 0.00615486 0)
(0.159446 0.00655014 0)
(0.147995 0.0069732 0)
(0.136007 0.00722613 0)
(0.123532 0.00750655 0)
(0.110715 0.0076314 0)
(0.0976859 0.00779096 0)
(0.0845998 0.00777471 0)
(0.0713252 0.00788186 0)
(0.0581115 0.00776827 0)
(0.0450541 0.00773529 0)
(0.0321201 0.00762785 0)
(0.0192852 0.00756533 0)
(0.00657605 0.00743645 0)
(-0.00578793 0.00727761 0)
(-0.0179973 0.00715217 0)
(-0.0298972 0.00696373 0)
(-0.0415544 0.00682863 0)
(-0.0529063 0.00662877 0)
(-0.0639968 0.00648109 0)
(-0.0747914 0.00631054 0)
(-0.0853226 0.00613576 0)
(-0.095566 0.00599039 0)
(-0.105491 0.00579463 0)
(-0.115187 0.0056277 0)
(-0.124532 0.00545613 0)
(-0.133566 0.00523217 0)
(-0.142254 0.0050568 0)
(-0.150585 0.00479374 0)
(-0.15849 0.00456071 0)
(-0.165932 0.00425765 0)
(-0.172871 0.0039493 0)
(-0.179239 0.00358551 0)
(-0.184983 0.00319563 0)
(-0.190049 0.00279187 0)
(-0.194385 0.00233413 0)
(-0.19794 0.00186442 0)
(-0.200673 0.00135348 0)
(-0.202559 0.000813804 0)
(-0.203458 0.000333194 0)
(-0.20356 -0.000221753 0)
(-0.202667 -0.00078708 0)
(-0.200861 -0.00133591 0)
(-0.198112 -0.00187921 0)
(-0.194461 -0.00242753 0)
(-0.189945 -0.00296865 0)
(-0.184489 -0.00345151 0)
(-0.178172 -0.00399572 0)
(-0.171086 -0.00448286 0)
(-0.16312 -0.00491943 0)
(-0.154438 -0.00538464 0)
(-0.145065 -0.0057682 0)
(-0.134885 -0.00618771 0)
(-0.124047 -0.00660044 0)
(-0.11251 -0.00700595 0)
(-0.10039 -0.0073733 0)
(-0.0876079 -0.00777978 0)
(-0.0741284 -0.00812541 0)
(-0.0600747 -0.00850862 0)
(-0.0454591 -0.00884816 0)
(-0.0302016 -0.00921164 0)
(-0.0144461 -0.00946432 0)
(0.001859 -0.00981767 0)
(0.0186425 -0.00999146 0)
(0.035745 -0.0102348 0)
(0.0531244 -0.01033 0)
(0.07067 -0.0103717 0)
(0.0880769 -0.0102213 0)
(0.105167 -0.0101026 0)
(0.122131 -0.00984304 0)
(0.13841 -0.0094891 0)
(0.154134 -0.00907879 0)
(0.168968 -0.00849915 0)
(0.182853 -0.00790849 0)
(0.195585 -0.00715764 0)
(0.207028 -0.00638788 0)
(0.217079 -0.00549015 0)
(0.225572 -0.00455654 0)
(0.232441 -0.0035411 0)
(0.237552 -0.00249409 0)
(0.240869 -0.00140562 0)
(0.242302 -0.000297343 0)
(0.241895 0.000788749 0)
(0.239524 0.00192301 0)
(0.235332 0.0030159 0)
(0.229416 0.00405656 0)
(0.221655 0.00508434 0)
(0.212293 0.00600649 0)
(0.201428 0.00671068 0)
(0.189494 0.00741912 0)
(0.176385 0.00809248 0)
(0.162195 0.00866278 0)
(0.147291 0.00898959 0)
(0.131788 0.00934699 0)
(0.115935 0.00945663 0)
(0.09983 0.00960563 0)
(0.0836085 0.00955733 0)
(0.0675074 0.00947641 0)
(0.0517016 0.0091717 0)
(0.0364771 0.00882477 0)
(0.0219901 0.00822776 0)
(0.00844948 0.00762838 0)
(-0.00370031 0.00670383 0)
(-0.0142451 0.00581586 0)
(-0.0230626 0.00471848 0)
(-0.0303717 0.00396522 0)
(-0.0364568 0.00385372 0)
(-0.0402961 0.00374011 0)
(-0.0429103 0.00186217 0)
(-0.0455354 -0.00367077 0)
(-0.0175315 -0.0144718 0)
(0.0725209 -0.0131227 0)
(0.0876947 -0.0131323 0)
(0.103384 -0.0127721 0)
(0.118718 -0.0125382 0)
(0.13353 -0.0119353 0)
(0.147683 -0.011433 0)
(0.161 -0.0105918 0)
(0.173354 -0.00981522 0)
(0.184573 -0.00875721 0)
(0.194547 -0.00772349 0)
(0.203124 -0.00648546 0)
(0.21022 -0.00523821 0)
(0.215716 -0.00387024 0)
(0.219558 -0.00247845 0)
(0.221679 -0.001041 0)
(0.222054 0.000401288 0)
(0.220679 0.00183867 0)
(0.217575 0.00327135 0)
(0.212787 0.00462248 0)
(0.206388 0.00596222 0)
(0.198446 0.00714355 0)
(0.18909 0.00833759 0)
(0.178413 0.0092886 0)
(0.166575 0.0102878 0)
(0.153693 0.0109739 0)
(0.139942 0.0117443 0)
(0.125456 0.0121567 0)
(0.110407 0.0126819 0)
(0.0949398 0.0128312 0)
(0.0792113 0.0131106 0)
(0.063364 0.0130247 0)
(0.047534 0.0130746 0)
(0.0318533 0.012794 0)
(0.0164652 0.0126472 0)
(0.00137244 0.0124202 0)
(-0.0133403 0.0119318 0)
(-0.0275081 0.011564 0)
(-0.0410977 0.0110031 0)
(-0.0540867 0.0105508 0)
(-0.0664359 0.00995565 0)
(-0.0781363 0.00945621 0)
(-0.0891673 0.00885712 0)
(-0.0995339 0.00833905 0)
(-0.10923 0.00775593 0)
(-0.118271 0.00723931 0)
(-0.126659 0.0066834 0)
(-0.134415 0.00618078 0)
(-0.141548 0.00565698 0)
(-0.148078 0.00517505 0)
(-0.154019 0.00468415 0)
(-0.159391 0.00422572 0)
(-0.164208 0.00377554 0)
(-0.168485 0.00332991 0)
(-0.17224 0.00290358 0)
(-0.175486 0.00248477 0)
(-0.178237 0.00207858 0)
(-0.180506 0.00168034 0)
(-0.182303 0.00129091 0)
(-0.183636 0.000904286 0)
(-0.184503 0.000527075 0)
(-0.184911 0.000141603 0)
(-0.184855 -0.000244564 0)
(-0.184326 -0.000647338 0)
(-0.183319 -0.00104541 0)
(-0.181821 -0.00146867 0)
(-0.179815 -0.00188568 0)
(-0.17729 -0.00234179 0)
(-0.174224 -0.00277861 0)
(-0.170603 -0.0032699 0)
(-0.166424 -0.00371217 0)
(-0.161656 -0.00418675 0)
(-0.156272 -0.00473712 0)
(-0.15026 -0.00521057 0)
(-0.143605 -0.00581045 0)
(-0.136299 -0.00629605 0)
(-0.128318 -0.00694069 0)
(-0.119631 -0.00743774 0)
(-0.110255 -0.00811512 0)
(-0.100191 -0.00857896 0)
(-0.0893948 -0.00926537 0)
(-0.0779423 -0.00973732 0)
(-0.0657987 -0.0103595 0)
(-0.052998 -0.0107791 0)
(-0.0396458 -0.0113506 0)
(-0.0257493 -0.0116906 0)
(-0.0114193 -0.0121365 0)
(0.00347472 -0.0124065 0)
(0.0187132 -0.0126634 0)
(0.0341172 -0.0128144 0)
(0.0496315 -0.0128218 0)
(0.065155 -0.0128062 0)
(0.0805462 -0.0126442 0)
(0.0956947 -0.0124524 0)
(0.110524 -0.0120764 0)
(0.124867 -0.0116752 0)
(0.138599 -0.0111113 0)
(0.151626 -0.0104856 0)
(0.163797 -0.00969712 0)
(0.175 -0.00888119 0)
(0.185107 -0.0078963 0)
(0.194025 -0.00689018 0)
(0.201637 -0.00574172 0)
(0.20787 -0.00460452 0)
(0.212652 -0.00334416 0)
(0.215935 -0.00211449 0)
(0.217707 -0.000829642 0)
(0.217928 0.000407411 0)
(0.21659 0.00168955 0)
(0.213813 0.00289043 0)
(0.209619 0.00403212 0)
(0.204038 0.00512099 0)
(0.197271 0.00609866 0)
(0.189268 0.00705982 0)
(0.180281 0.00782395 0)
(0.1703 0.00862419 0)
(0.159573 0.00917817 0)
(0.148079 0.00976773 0)
(0.136086 0.0101248 0)
(0.123571 0.0105155 0)
(0.110766 0.0106896 0)
(0.0976831 0.0109141 0)
(0.0845959 0.0108809 0)
(0.0713056 0.0110488 0)
(0.0581132 0.0108703 0)
(0.045016 0.0108259 0)
(0.032072 0.0106812 0)
(0.0192683 0.0105962 0)
(0.00650276 0.0104126 0)
(-0.00581365 0.0101899 0)
(-0.0180669 0.0100117 0)
(-0.0299397 0.0097488 0)
(-0.0416179 0.00955705 0)
(-0.0529563 0.00928591 0)
(-0.0640497 0.00907202 0)
(-0.0748528 0.00883508 0)
(-0.0853749 0.00858773 0)
(-0.0956249 0.00838305 0)
(-0.105547 0.0081196 0)
(-0.115245 0.00787527 0)
(-0.124595 0.00764044 0)
(-0.133635 0.00733478 0)
(-0.142323 0.00707561 0)
(-0.150663 0.00671817 0)
(-0.158574 0.00638519 0)
(-0.166028 0.00596189 0)
(-0.172974 0.00552727 0)
(-0.179348 0.00502321 0)
(-0.185101 0.00447597 0)
(-0.190176 0.00390952 0)
(-0.194516 0.00327078 0)
(-0.19808 0.00261288 0)
(-0.200809 0.00190417 0)
(-0.202709 0.00115758 0)
(-0.20366 0.000444881 0)
(-0.203713 -0.000313861 0)
(-0.202826 -0.00110499 0)
(-0.201016 -0.00187316 0)
(-0.198262 -0.00263844 0)
(-0.194602 -0.00340336 0)
(-0.190076 -0.00415977 0)
(-0.184623 -0.00483126 0)
(-0.178315 -0.00558674 0)
(-0.171234 -0.00626752 0)
(-0.163267 -0.00687989 0)
(-0.15459 -0.0075286 0)
(-0.14522 -0.00808187 0)
(-0.13503 -0.00866239 0)
(-0.124193 -0.00924302 0)
(-0.112632 -0.00980927 0)
(-0.100524 -0.0103311 0)
(-0.0877172 -0.0108884 0)
(-0.0742397 -0.0113769 0)
(-0.0602005 -0.0119141 0)
(-0.045551 -0.0123897 0)
(-0.0303009 -0.012901 0)
(-0.0145385 -0.013254 0)
(0.00178056 -0.0137471 0)
(0.0185634 -0.0139895 0)
(0.0356959 -0.0143341 0)
(0.0530802 -0.014469 0)
(0.0706773 -0.0145281 0)
(0.0881011 -0.0143135 0)
(0.10519 -0.0141491 0)
(0.122222 -0.0137912 0)
(0.138503 -0.0132897 0)
(0.15428 -0.0127199 0)
(0.169126 -0.0119066 0)
(0.183043 -0.0110793 0)
(0.195801 -0.0100246 0)
(0.207261 -0.0089477 0)
(0.217337 -0.00769291 0)
(0.225841 -0.00638706 0)
(0.232743 -0.00496794 0)
(0.237866 -0.00350423 0)
(0.241208 -0.0019744 0)
(0.242653 -0.000419128 0)
(0.242207 0.00112669 0)
(0.239841 0.00269721 0)
(0.235628 0.00421981 0)
(0.22972 0.00568939 0)
(0.221927 0.00711719 0)
(0.212558 0.00841683 0)
(0.201711 0.00943279 0)
(0.189598 0.0104118 0)
(0.176491 0.01133 0)
(0.162263 0.0121345 0)
(0.147375 0.0125842 0)
(0.131852 0.0130888 0)
(0.115987 0.0132427 0)
(0.0998025 0.0134563 0)
(0.083579 0.0133865 0)
(0.0674693 0.0132776 0)
(0.0516261 0.0128444 0)
(0.0363811 0.0123679 0)
(0.0217885 0.0115311 0)
(0.00825502 0.0106894 0)
(-0.00394534 0.00940641 0)
(-0.0145534 0.00815832 0)
(-0.0233678 0.00660581 0)
(-0.0306546 0.00548974 0)
(-0.0362139 0.00522352 0)
(-0.0389525 0.005263 0)
(-0.041303 0.00447125 0)
(-0.0416893 0.00101661 0)
(-0.0234025 -0.00266937 0)
(0.0725396 -0.0168826 0)
(0.087744 -0.0168959 0)
(0.103465 -0.016433 0)
(0.118834 -0.016133 0)
(0.133679 -0.0153576 0)
(0.14787 -0.0147121 0)
(0.161217 -0.0136297 0)
(0.173608 -0.012631 0)
(0.184853 -0.0112696 0)
(0.19486 -0.00993978 0)
(0.203458 -0.00834662 0)
(0.210579 -0.00674162 0)
(0.216088 -0.00498092 0)
(0.219944 -0.00318991 0)
(0.222069 -0.0013398 0)
(0.222449 0.00051874 0)
(0.221063 0.0023701 0)
(0.217956 0.00420969 0)
(0.213149 0.00594898 0)
(0.206735 0.00767333 0)
(0.198765 0.00919346 0)
(0.189386 0.01073 0)
(0.178674 0.0119534 0)
(0.166808 0.013239 0)
(0.153889 0.0141214 0)
(0.140106 0.0151123 0)
(0.125583 0.0156421 0)
(0.110501 0.0163174 0)
(0.0949987 0.0165088 0)
(0.0792385 0.0168675 0)
(0.0633608 0.0167562 0)
(0.0475025 0.0168198 0)
(0.0317976 0.0164577 0)
(0.0163878 0.0162687 0)
(0.00127452 0.0159743 0)
(-0.0134536 0.0153457 0)
(-0.0276352 0.0148719 0)
(-0.0412324 0.0141498 0)
(-0.0542299 0.0135674 0)
(-0.066582 0.0128014 0)
(-0.0782864 0.0121586 0)
(-0.0893167 0.0113878 0)
(-0.0996842 0.0107213 0)
(-0.109378 0.0099712 0)
(-0.118417 0.00930672 0)
(-0.126801 0.00859183 0)
(-0.134555 0.00794547 0)
(-0.141683 0.00727196 0)
(-0.148211 0.0066523 0)
(-0.154147 0.00602117 0)
(-0.159516 0.00543178 0)
(-0.16433 0.00485303 0)
(-0.168603 0.00428014 0)
(-0.172355 0.00373211 0)
(-0.175597 0.00319378 0)
(-0.178345 0.00267207 0)
(-0.180612 0.00215999 0)
(-0.182407 0.00165953 0)
(-0.18374 0.00116338 0)
(-0.184607 0.000677289 0)
(-0.185017 0.000179273 0)
(-0.184961 -0.000316297 0)
(-0.184434 -0.000830112 0)
(-0.183429 -0.00134305 0)
(-0.181935 -0.00188679 0)
(-0.179932 -0.00242312 0)
(-0.177412 -0.00300947 0)
(-0.174348 -0.00357116 0)
(-0.170733 -0.00420255 0)
(-0.166555 -0.00477045 0)
(-0.161791 -0.00538229 0)
(-0.156412 -0.0060889 0)
(-0.150403 -0.0066983 0)
(-0.143753 -0.00746949 0)
(-0.13645 -0.00809555 0)
(-0.128473 -0.00892248 0)
(-0.119788 -0.00956009 0)
(-0.11041 -0.0104323 0)
(-0.100345 -0.0110375 0)
(-0.0895504 -0.0119092 0)
(-0.0780904 -0.0125228 0)
(-0.0659379 -0.01332 0)
(-0.0531339 -0.0138631 0)
(-0.0397667 -0.0145981 0)
(-0.0258574 -0.0150359 0)
(-0.0115128 -0.0156193 0)
(0.00339859 -0.0159473 0)
(0.0186608 -0.0162863 0)
(0.0340878 -0.0164856 0)
(0.0496217 -0.0164885 0)
(0.0651752 -0.0164771 0)
(0.0805898 -0.016268 0)
(0.0957678 -0.0160189 0)
(0.110626 -0.0155364 0)
(0.124997 -0.0150254 0)
(0.138756 -0.0142918 0)
(0.151818 -0.0134919 0)
(0.164009 -0.0124755 0)
(0.175245 -0.0114304 0)
(0.185371 -0.0101564 0)
(0.194316 -0.00887167 0)
(0.201942 -0.00738351 0)
(0.208192 -0.00592742 0)
(0.212985 -0.00430111 0)
(0.216269 -0.00272333 0)
(0.218046 -0.00106236 0)
(0.218265 0.000530617 0)
(0.216912 0.00218659 0)
(0.214122 0.00371648 0)
(0.209933 0.00519448 0)
(0.204302 0.00659692 0)
(0.197546 0.00784518 0)
(0.18948 0.00909421 0)
(0.180512 0.0100625 0)
(0.170457 0.0111044 0)
(0.159749 0.0118015 0)
(0.148187 0.0125814 0)
(0.136195 0.013018 0)
(0.123641 0.0135439 0)
(0.11083 0.0137455 0)
(0.0977041 0.0140566 0)
(0.0846027 0.0139821 0)
(0.0712715 0.0142154 0)
(0.0581331 0.0139672 0)
(0.0449377 0.0139343 0)
(0.0320123 0.0137317 0)
(0.0192407 0.0136282 0)
(0.00640884 0.0133941 0)
(-0.00583481 0.0130987 0)
(-0.0181616 0.0128792 0)
(-0.0299837 0.0125296 0)
(-0.0417013 0.0122894 0)
(-0.0530197 0.011944 0)
(-0.0641171 0.0116684 0)
(-0.0749266 0.0113555 0)
(-0.0854356 0.0110449 0)
(-0.0956965 0.0107663 0)
(-0.105616 0.0104518 0)
(-0.115319 0.0101206 0)
(-0.12467 0.00982523 0)
(-0.133724 0.0094447 0)
(-0.142411 0.00909483 0)
(-0.150765 0.00864574 0)
(-0.15868 0.0082093 0)
(-0.166153 0.00766889 0)
(-0.173106 0.00710645 0)
(-0.17949 0.0064627 0)
(-0.185261 0.00576197 0)
(-0.190345 0.00502848 0)
(-0.194689 0.00421076 0)
(-0.198272 0.00335982 0)
(-0.201006 0.00245577 0)
(-0.202901 0.00150756 0)
(-0.203895 0.000565261 0)
(-0.203927 -0.000414999 0)
(-0.203038 -0.0014188 0)
(-0.201232 -0.00241136 0)
(-0.198475 -0.00339353 0)
(-0.194809 -0.00437412 0)
(-0.190268 -0.00534417 0)
(-0.184821 -0.00621251 0)
(-0.178509 -0.00717209 0)
(-0.171427 -0.00804356 0)
(-0.163451 -0.00885856 0)
(-0.154761 -0.009664 0)
(-0.145399 -0.010411 0)
(-0.13519 -0.0111446 0)
(-0.124372 -0.0118773 0)
(-0.11278 -0.0126207 0)
(-0.100699 -0.0132844 0)
(-0.087846 -0.0140025 0)
(-0.0743892 -0.0146236 0)
(-0.0603615 -0.0153194 0)
(-0.045667 -0.0159403 0)
(-0.0304432 -0.0165868 0)
(-0.0146622 -0.0170484 0)
(0.00169371 -0.0176796 0)
(0.0184507 -0.0179841 0)
(0.0356494 -0.0184432 0)
(0.053017 -0.0186087 0)
(0.0706995 -0.0187001 0)
(0.0881227 -0.0183981 0)
(0.105236 -0.0182062 0)
(0.122357 -0.0177532 0)
(0.138622 -0.0170947 0)
(0.154484 -0.0163741 0)
(0.169332 -0.0153142 0)
(0.183307 -0.0142651 0)
(0.196086 -0.0128937 0)
(0.207569 -0.0115171 0)
(0.217687 -0.00989838 0)
(0.226189 -0.00822151 0)
(0.233151 -0.00640241 0)
(0.238256 -0.00450847 0)
(0.241639 -0.00254767 0)
(0.243085 -0.000530333 0)
(0.242619 0.00146235 0)
(0.240275 0.00347805 0)
(0.236001 0.00543953 0)
(0.230119 0.00731398 0)
(0.222278 0.00916986 0)
(0.212891 0.0108319 0)
(0.202101 0.0121606 0)
(0.189787 0.0134487 0)
(0.176655 0.0145514 0)
(0.162378 0.0156126 0)
(0.147534 0.0161744 0)
(0.13192 0.0168431 0)
(0.116066 0.0170346 0)
(0.0997598 0.0173335 0)
(0.0835648 0.0172138 0)
(0.0674137 0.0170835 0)
(0.05152 0.016527 0)
(0.0362099 0.015928 0)
(0.0215113 0.0148554 0)
(0.00799827 0.0137674 0)
(-0.00428783 0.0121043 0)
(-0.0149493 0.0105103 0)
(-0.0237107 0.0084945 0)
(-0.0308967 0.00693304 0)
(-0.0363609 0.00613165 0)
(-0.0387311 0.0052022 0)
(-0.0419014 0.00240755 0)
(-0.04081 -0.00526359 0)
(-0.0248221 -0.0159647 0)
(0.0725629 -0.0206503 0)
(0.0878054 -0.0206681 0)
(0.103565 -0.0201027 0)
(0.11898 -0.019737 0)
(0.133865 -0.018789 0)
(0.148103 -0.0180004 0)
(0.161489 -0.0166765 0)
(0.173926 -0.0154553 0)
(0.185204 -0.0137899 0)
(0.195252 -0.0121633 0)
(0.203876 -0.0102139 0)
(0.211028 -0.00825014 0)
(0.216554 -0.00609543 0)
(0.220427 -0.00390388 0)
(0.222558 -0.00163973 0)
(0.22294 0.000637795 0)
(0.221548 0.00290181 0)
(0.218432 0.00515131 0)
(0.213602 0.00727992 0)
(0.207169 0.00939017 0)
(0.199165 0.0112501 0)
(0.189757 0.0131301 0)
(0.179002 0.0146264 0)
(0.1671 0.0161992 0)
(0.154134 0.0172779 0)
(0.140311 0.0184898 0)
(0.125741 0.0191367 0)
(0.110619 0.0199621 0)
(0.0950722 0.0201951 0)
(0.0792722 0.0206329 0)
(0.0633565 0.0204954 0)
(0.0474627 0.020572 0)
(0.0317277 0.0201277 0)
(0.0162905 0.0198958 0)
(0.00115167 0.0195328 0)
(-0.0135954 0.0187633 0)
(-0.0277943 0.0181828 0)
(-0.041401 0.0172986 0)
(-0.0544093 0.0165855 0)
(-0.0667647 0.0156481 0)
(-0.0784743 0.0148614 0)