/*--------------------------------*- C++ -*----------------------------------*\
| =========                 |                                                 |
| \\      /  F ield         | OpenFOAM: The Open Source CFD Toolbox           |
|  \\    /   O peration     | Version:  3.0.1                                 |
|   \\  /    A nd           | Web:      www.OpenFOAM.org                      |
|    \\/     M anipulation  |                                                 |
\*---------------------------------------------------------------------------*/
FoamFile
{
    version     2.0;
    format      ascii;
    class       volScalarField;
    location    "16.8";
    object      p;
}
// * * * * * * * * * * * * * * * * * * * * * * * * * * * * * * * * * * * * * //

dimensions      [1 -1 -2 0 0 0 0];

internalField   nonuniform List<scalar> 
21420
(
4257.24
4273.31
4285.64
4294.13
4298.73
4299.17
4295.46
4287.75
4276.17
4260.78
4241.8
4219.51
4194.24
4166.31
4136.12
4104.03
4070.45
4035.83
4000.59
3965.15
3930.09
3901.29
3868.08
3835.55
3804.22
3774.34
3746.08
3719.53
3694.78
3671.84
3650.75
3631.49
3614.03
3598.35
3584.4
3572.15
3561.55
3552.57
3545.16
3539.29
3534.94
3532.14
3530.87
3531.12
3532.88
3536.23
3541.15
3547.68
3555.87
3565.78
3577.42
3590.86
3606.12
3623.24
3642.26
3663.15
3685.9
3710.46
3736.77
3764.72
3794.17
3824.97
3856.9
3889.63
3922.95
3956.7
3990.56
4024.15
4057.14
4089.16
4119.86
4148.9
4175.93
4200.61
4222.63
4241.68
4257.48
4269.8
4278.4
4283.16
4283.9
4280.67
4273.48
4262.36
4247.48
4229.06
4207.33
4182.61
4155.26
4125.65
4094.18
4061.27
4027.35
3992.81
3958.06
3923.47
3889.38
3856.08
3823.83
3792.84
3763.29
3735.31
3709
3684.49
3661.8
3640.96
3622.01
3604.92
3589.71
3576.38
3564.87
3555.16
3547.2
3540.97
3536.41
3533.52
3532.3
3532.67
3534.66
3538.28
3543.54
3550.45
3559.05
3569.34
3581.35
3595.1
3610.59
3627.82
3646.79
3667.48
3689.87
3713.92
3739.56
3766.74
3795.33
3825.22
3856.25
3888.22
3920.91
3954.08
3987.43
4020.65
4053.4
4085.31
4116
4145.1
4172.22
4197
4219.1
4238.19
4253.99
4266.26
4274.84
4279.57
4280.34
4277.19
4270.17
4259.33
4244.83
4226.86
4205.67
4181.56
4154.86
4125.97
4095.28
4063.19
4030.11
3996.45
3962.59
3928.86
3895.72
3863.14
3831.48
3800.93
3771.63
3743.71
3717.26
3692.33
3669.02
3647.37
3627.39
3609.13
3592.63
3577.94
3565.07
3554.04
3544.86
3537.54
3532.07
3528.46
3526.75
3526.81
3528.68
3532.31
3537.69
3544.78
3553.54
3563.96
3576.02
3589.66
3604.88
3621.63
3639.9
3659.67
3680.91
3703.6
3727.72
3753.22
3780.07
3808.2
3837.52
3867.9
3899.2
3931.23
3963.77
3996.55
4029.27
4061.61
4093.18
4123.6
4152.48
4179.4
4203.95
4225.77
4244.5
4259.83
4271.47
4279.2
4282.88
4282.44
4277.8
4269.1
4256.38
4239.85
4219.77
4196.42
4170.18
4141.45
4110.68
4078.33
4044.87
4010.76
3976.44
3942.31
3908.73
3875.98
3844.31
3813.95
3785.03
3757.66
3731.88
3707.73
3685.28
3664.48
3645.28
3627.67
3611.65
3597.17
3584.2
3572.74
3562.74
3554.19
3547.07
3541.38
3537.11
3534.29
3532.97
3533.11
3534.79
3538.07
3543
3549.64
3558.05
3568.27
3580.35
3594.33
3610.25
3628.11
3647.93
3669.69
3693.35
3718.85
3746.08
3774.93
3805.23
3836.78
3869.28
3902.47
3936.19
3970.08
4003.78
4036.92
4069.13
4100.05
4129.28
4156.49
4181.31
4203.43
4222.54
4238.37
4250.72
4259.39
4264.24
4265.16
4262.08
4255.02
4244.17
4229.64
4211.66
4190.5
4166.46
4139.92
4111.26
4080.87
4049.2
4016.65
3983.6
3950.42
3917.44
3885.11
3859.49
3829.82
3801.13
3773.81
3748.05
3723.94
3701.54
3680.89
3661.99
3644.83
3629.39
3615.62
3603.5
3592.98
3584
3576.51
3570.46
3565.81
3562.52
3560.59
3560.26
3561.23
3563.53
3567.1
3571.95
3578.06
3585.41
3594.02
3603.89
3615.01
3627.4
3641.04
3655.92
3672
3689.24
3707.57
3726.85
4159.26
4175.35
4187.68
4196.18
4200.78
4201.24
4197.51
4189.8
4178.21
4162.81
4143.82
4121.51
4096.22
4068.28
4038.07
4005.96
3972.36
3937.73
3902.47
3867.01
3831.92
3803.16
3769.92
3737.38
3706.04
3676.16
3647.89
3621.35
3596.6
3573.66
3552.57
3533.31
3515.85
3500.18
3486.23
3473.98
3463.39
3454.4
3447
3441.13
3436.78
3433.98
3432.71
3432.96
3434.72
3438.06
3442.99
3449.51
3457.71
3467.61
3479.25
3492.68
3507.94
3525.06
3544.08
3564.97
3587.71
3612.28
3638.6
3666.54
3696
3726.81
3758.74
3791.49
3824.81
3858.58
3892.45
3926.05
3959.05
3991.09
4021.81
4050.86
4077.9
4102.6
4124.63
4143.7
4159.52
4171.84
4180.45
4185.22
4185.95
4182.72
4175.53
4164.4
4149.52
4131.07
4109.33
4084.6
4057.23
4027.6
3996.11
3963.19
3929.24
3894.69
3859.93
3825.33
3791.23
3757.92
3725.66
3694.66
3665.11
3637.13
3610.81
3586.3
3563.62
3542.78
3523.83
3506.74
3491.54
3478.2
3466.7
3456.99
3449.03
3442.8
3438.24
3435.36
3434.14
3434.51
3436.5
3440.11
3445.37
3452.29
3460.88
3471.17
3483.18
3496.93
3512.41
3529.64
3548.61
3569.3
3591.69
3615.74
3641.39
3668.57
3697.16
3727.06
3758.09
3790.07
3822.77
3855.95
3889.31
3922.54
3955.31
3987.24
4017.94
4047.06
4074.19
4098.99
4121.11
4140.21
4156.02
4168.3
4176.89
4181.63
4182.39
4179.24
4172.22
4161.37
4146.85
4128.87
4107.67
4083.54
4056.83
4027.92
3997.21
3965.1
3932.01
3898.34
3864.46
3830.72
3797.57
3764.98
3733.32
3702.76
3673.46
3645.54
3619.08
3594.15
3570.84
3549.19
3529.22
3510.95
3494.46
3479.77
3466.9
3455.86
3446.68
3439.37
3433.89
3430.29
3428.58
3428.64
3430.51
3434.14
3439.52
3446.61
3455.38
3465.8
3477.85
3491.5
3506.71
3523.46
3541.74
3561.5
3582.74
3605.43
3629.55
3655.06
3681.91
3710.04
3739.36
3769.74
3801.05
3833.09
3865.64
3898.43
3931.16
3963.51
3995.1
4025.54
4054.44
4081.37
4105.94
4127.78
4146.52
4161.87
4173.52
4181.26
4184.95
4184.5
4179.86
4171.15
4158.42
4141.88
4121.78
4098.42
4072.15
4043.41
4012.62
3980.25
3946.77
3912.64
3878.31
3844.17
3810.57
3777.81
3746.14
3715.77
3686.85
3659.48
3633.7
3609.55
3587.1
3566.31
3547.11
3529.51
3513.49
3499.01
3486.04
3474.58
3464.59
3456.03
3448.91
3443.22
3438.95
3436.14
3434.81
3434.94
3436.63
3439.9
3444.83
3451.47
3459.87
3470.09
3482.17
3496.15
3512.06
3529.92
3549.74
3571.5
3595.17
3620.67
3647.91
3676.76
3707.06
3738.61
3771.13
3804.33
3838.06
3871.96
3905.68
3938.83
3971.06
4001.99
4031.24
4058.46
4083.3
4105.43
4124.56
4140.4
4152.76
4161.43
4166.29
4167.22
4164.12
4157.07
4146.21
4131.66
4113.68
4092.5
4068.45
4041.89
4013.21
3982.8
3951.11
3918.54
3885.48
3852.29
3819.3
3786.94
3761.34
3731.65
3702.95
3675.63
3649.87
3625.76
3603.36
3582.71
3563.81
3546.66
3531.22
3517.46
3505.34
3494.82
3485.84
3478.35
3472.3
3467.65
3464.37
3462.43
3462.11
3463.08
3465.38
3468.95
3473.8
3479.91
3487.26
3495.87
3505.74
3516.86
3529.25
3542.89
3557.76
3573.85
3591.09
3609.41
3628.7
4061.4
4077.51
4089.87
4098.38
4102.99
4103.47
4099.73
4092.01
4080.4
4064.97
4045.95
4023.61
3998.29
3970.31
3940.06
3907.92
3874.29
3839.62
3804.33
3768.84
3733.68
3704.99
3671.69
3639.13
3607.78
3577.9
3549.63
3523.08
3498.33
3475.4
3454.31
3435.05
3417.61
3401.93
3387.99
3375.75
3365.16
3356.18
3348.77
3342.91
3338.56
3335.76
3334.49
3334.73
3336.5
3339.84
3344.76
3351.28
3359.47
3369.37
3381
3394.43
3409.69
3426.8
3445.81
3466.71
3489.45
3514.02
3540.34
3568.29
3597.76
3628.58
3660.53
3693.29
3726.63
3760.42
3794.32
3827.95
3860.98
3893.05
3923.79
3952.88
3979.96
4004.68
4026.75
4045.84
4061.68
4074.02
4082.66
4087.44
4088.17
4084.93
4077.73
4066.59
4051.68
4033.21
4011.43
3986.67
3959.26
3929.59
3898.07
3865.11
3831.13
3796.55
3761.76
3727.14
3693.02
3659.69
3627.42
3596.41
3566.86
3538.87
3512.55
3488.04
3465.36
3444.52
3425.57
3408.49
3393.28
3379.95
3368.46
3358.75
3350.79
3344.57
3340.01
3337.14
3335.91
3336.28
3338.27
3341.88
3347.14
3354.05
3362.64
3372.93
3384.94
3398.68
3414.16
3431.39
3450.36
3471.05
3493.44
3517.49
3543.14
3570.32
3598.93
3628.83
3659.88
3691.87
3724.59
3757.79
3791.17
3824.43
3857.23
3889.18
3919.93
3949.08
3976.24
4001.08
4023.22
4042.36
4058.19
4070.49
4079.09
4083.84
4084.6
4081.44
4074.41
4063.55
4049.01
4031
4009.77
3985.61
3958.86
3929.92
3899.17
3867.02
3833.9
3800.2
3766.29
3732.53
3699.37
3666.77
3635.09
3604.53
3575.22
3547.29
3520.84
3495.9
3472.6
3450.95
3430.97
3412.71
3396.21
3381.52
3368.65
3357.61
3348.43
3341.12
3335.64
3332.05
3330.33
3330.4
3332.27
3335.91
3341.28
3348.37
3357.14
3367.56
3379.62
3393.27
3408.48
3425.23
3443.5
3463.27
3484.51
3507.2
3531.32
3556.83
3583.68
3611.82
3641.14
3671.54
3702.85
3734.9
3767.47
3800.28
3833.04
3865.42
3897.04
3927.52
3956.45
3983.42
4008.03
4029.9
4048.67
4064.05
4075.72
4083.48
4087.18
4086.72
4082.08
4073.36
4060.61
4044.04
4023.91
4000.51
3974.21
3945.42
3914.59
3882.18
3848.66
3814.5
3780.14
3745.97
3712.36
3679.58
3647.9
3617.52
3588.6
3561.23
3535.45
3511.3
3488.86
3468.07
3448.87
3431.27
3415.26
3400.78
3387.82
3376.36
3366.37
3357.82
3350.7
3345.01
3340.74
3337.93
3336.59
3336.72
3338.4
3341.67
3346.6
3353.23
3361.63
3371.84
3383.92
3397.89
3413.8
3431.66
3451.47
3473.24
3496.9
3522.4
3549.65
3578.51
3608.82
3640.39
3672.93
3706.14
3739.9
3773.82
3807.57
3840.75
3873.01
3903.97
3933.26
3960.51
3985.39
4007.55
4026.7
4042.57
4054.94
4063.63
4068.5
4069.44
4066.32
4059.26
4048.38
4033.82
4015.81
3994.6
3970.51
3943.92
3915.2
3884.76
3853.03
3820.43
3787.35
3754.13
3721.11
3688.71
3663.14
3633.41
3604.7
3577.37
3551.61
3527.5
3505.11
3484.46
3465.56
3448.41
3432.98
3419.22
3407.11
3396.59
3387.62
3380.13
3374.09
3369.45
3366.16
3364.23
3363.9
3364.88
3367.18
3370.75
3375.6
3381.71
3389.06
3397.67
3407.53
3418.66
3431.04
3444.68
3459.56
3475.64
3492.88
3511.21
3530.49
3963.67
3979.82
3992.2
4000.73
4005.35
4005.86
4002.1
3994.37
3982.73
3967.27
3948.21
3925.82
3900.45
3872.41
3842.11
3809.91
3776.23
3741.51
3706.18
3670.63
3635.39
3606.77
3573.4
3540.81
3509.44
3479.55
3451.27
3424.73
3399.98
3377.05
3355.97
3336.72
3319.28
3303.62
3289.68
3277.45
3266.86
3257.89
3250.49
3244.63
3240.29
3237.49
3236.2
3236.45
3238.22
3241.55
3246.47
3252.99
3261.17
3271.06
3282.69
3296.11
3311.36
3328.46
3347.47
3368.36
3391.11
3415.68
3442
3469.96
3499.45
3530.29
3562.26
3595.04
3628.41
3662.24
3696.17
3729.85
3762.92
3795.03
3825.83
3854.96
3882.08
3906.86
3928.96
3948.1
3963.98
3976.35
3985.01
3989.8
3990.56
3987.3
3980.08
3968.92
3953.97
3935.46
3913.64
3888.82
3861.36
3831.64
3800.06
3767.05
3733.02
3698.39
3663.56
3628.9
3594.75
3561.4
3529.11
3498.09
3468.52
3440.52
3414.2
3389.69
3367.01
3346.18
3327.23
3310.15
3294.96
3281.63
3270.14
3260.44
3252.49
3246.27
3241.72
3238.85
3237.62
3237.99
3239.97
3243.59
3248.84
3255.75
3264.33
3274.62
3286.62
3300.36
3315.84
3333.07
3352.04
3372.73
3395.12
3419.17
3444.82
3472.01
3500.62
3530.54
3561.6
3593.62
3626.37
3659.59
3693.01
3726.32
3759.15
3791.16
3821.95
3851.15
3878.37
3903.25
3925.45
3944.62
3960.49
3972.82
3981.44
3986.2
3986.97
3983.8
3976.75
3965.86
3951.3
3933.25
3911.97
3887.76
3860.96
3831.96
3801.16
3768.96
3735.79
3702.04
3668.1
3634.31
3601.11
3568.49
3536.8
3506.22
3476.91
3448.98
3422.52
3397.58
3374.27
3352.62
3332.64
3314.38
3297.88
3283.19
3270.33
3259.29
3250.11
3242.8
3237.33
3233.74
3232.01
3232.09
3233.96
3237.6
3242.98
3250.07
3258.84
3269.26
3281.32
3294.97
3310.18
3326.94
3345.21
3364.97
3386.21
3408.9
3433.02
3458.53
3485.39
3513.53
3542.87
3573.27
3604.6
3636.68
3669.27
3702.12
3734.92
3767.34
3799.01
3829.54
3858.53
3885.55
3910.21
3932.13
3950.95
3966.37
3978.07
3985.85
3989.58
3989.1
3984.46
3975.72
3962.94
3946.33
3926.15
3902.7
3876.34
3847.49
3816.6
3784.13
3750.55
3716.34
3681.94
3647.73
3614.09
3581.29
3549.59
3519.2
3490.27
3462.9
3437.12
3412.98
3390.54
3369.76
3350.57
3332.98
3316.97
3302.49
3289.54
3278.08
3268.09
3259.54
3252.43
3246.74
3242.47
3239.66
3238.31
3238.44
3240.11
3243.38
3248.29
3254.92
3263.31
3273.52
3285.58
3299.55
3315.45
3333.31
3353.12
3374.88
3398.55
3424.05
3451.31
3480.18
3510.52
3542.11
3574.67
3607.91
3641.7
3675.67
3709.45
3742.68
3774.99
3806
3835.34
3862.64
3887.56
3909.76
3928.95
3944.86
3957.26
3965.97
3970.85
3971.82
3968.66
3961.6
3950.7
3936.11
3918.06
3896.8
3872.66
3846.01
3817.24
3786.75
3754.97
3722.32
3689.19
3655.93
3622.87
3590.42
3564.88
3535.1
3506.37
3479.03
3453.27
3429.16
3406.77
3386.13
3367.24
3350.09
3334.66
3320.92
3308.81
3298.3
3289.34
3281.86
3275.83
3271.19
3267.91
3265.97
3265.65
3266.64
3268.93
3272.51
3277.35
3283.46
3290.81
3299.41
3309.28
3320.4
3332.79
3346.42
3361.3
3377.38
3394.62
3412.95
3432.24
3866.05
3882.25
3894.68
3903.24
3907.87
3908.41
3904.63
3896.89
3885.2
3869.7
3850.58
3828.13
3802.69
3774.58
3744.2
3711.93
3678.18
3643.4
3608
3572.39
3537.04
3508.51
3475.04
3442.41
3411.03
3381.12
3352.84
3326.3
3301.55
3278.63
3257.55
3238.31
3220.88
3205.23
3191.31
3179.08
3168.5
3159.54
3152.14
3146.29
3141.96
3139.16
3137.86
3138.1
3139.87
3143.2
3148.12
3154.63
3162.8
3172.68
3184.29
3197.71
3212.95
3230.05
3249.05
3269.94
3292.68
3317.26
3343.59
3371.56
3401.07
3431.93
3463.93
3496.74
3530.16
3564.03
3598.02
3631.75
3664.87
3697.05
3727.9
3757.1
3784.29
3809.12
3831.29
3850.48
3866.41
3878.82
3887.51
3892.31
3893.09
3889.82
3882.58
3871.39
3856.4
3837.83
3815.95
3791.07
3763.53
3733.74
3702.08
3669
3634.91
3600.21
3565.33
3530.62
3496.43
3463.04
3430.72
3399.68
3370.11
3342.1
3315.78
3291.27
3268.59
3247.76
3228.81
3211.74
3196.55
3183.23
3171.75
3162.05
3154.12
3147.9
3143.36
3140.49
3139.26
3139.63
3141.62
3145.23
3150.48
3157.38
3165.96
3176.24
3188.24
3201.97
3217.45
3234.67
3253.63
3274.33
3296.72
3320.77
3346.43
3373.62
3402.25
3432.19
3463.27
3495.32
3528.1
3561.37
3594.84
3628.19
3661.09
3693.16
3724.02
3753.29
3780.57
3805.52
3827.78
3847.01
3862.92
3875.29
3883.94
3888.71
3889.5
3886.31
3879.24
3868.32
3853.71
3835.61
3814.27
3790
3763.13
3734.06
3703.18
3670.91
3637.68
3603.87
3569.87
3536.04
3502.81
3470.16
3438.45
3407.85
3378.52
3350.59
3324.12
3299.19
3275.88
3254.23
3234.25
3215.98
3199.49
3184.79
3171.93
3160.89
3151.71
3144.4
3138.93
3135.35
3133.62
3133.7
3135.58
3139.22
3144.6
3151.7
3160.47
3170.9
3182.96
3196.61
3211.82
3228.57
3246.85
3266.61
3287.85
3310.54
3334.66
3360.17
3387.03
3415.18
3444.53
3474.95
3506.31
3538.41
3571.04
3603.94
3636.78
3669.27
3701
3731.59
3760.66
3787.75
3812.49
3834.48
3853.36
3868.82
3880.57
3888.38
3892.13
3891.65
3887
3878.23
3865.41
3848.75
3828.51
3804.99
3778.55
3749.62
3718.65
3686.1
3652.44
3618.16
3583.7
3549.44
3515.76
3482.93
3451.21
3420.8
3391.86
3364.49
3338.71
3314.58
3292.15
3271.37
3252.19
3234.61
3218.61
3204.14
3191.19
3179.74
3169.76
3161.22
3154.1
3148.41
3144.14
3141.33
3139.97
3140.1
3141.76
3145.01
3149.92
3156.54
3164.92
3175.11
3187.17
3201.13
3217.02
3234.87
3254.68
3276.44
3300.11
3325.63
3352.89
3381.78
3412.14
3443.76
3476.36
3509.64
3543.47
3577.49
3611.34
3644.62
3676.99
3708.07
3737.47
3764.84
3789.82
3812.09
3831.33
3847.29
3859.72
3868.47
3873.36
3874.34
3871.17
3864.09
3853.16
3838.52
3820.42
3799.1
3774.89
3748.17
3719.33
3688.76
3656.91
3624.2
3591.01
3557.71
3524.59
3492.08
3466.54
3436.72
3407.96
3380.62
3354.85
3330.74
3308.35
3287.72
3268.84
3251.7
3236.28
3222.55
3210.45
3199.95
3191
3183.53
3177.51
3172.87
3169.6
3167.66
3167.34
3168.34
3170.64
3174.21
3179.06
3185.16
3192.51
3201.11
3210.98
3222.09
3234.48
3248.11
3262.98
3279.06
3296.3
3314.63
3333.93
3768.56
3784.83
3797.3
3805.9
3810.55
3811.1
3807.33
3799.55
3787.82
3772.25
3753.07
3730.54
3705.01
3676.82
3646.35
3613.98
3580.14
3545.29
3509.81
3474.11
3438.66
3410.18
3376.62
3343.94
3312.53
3282.61
3254.32
3227.78
3203.03
3180.12
3159.05
3139.83
3122.41
3106.77
3092.86
3080.64
3070.08
3061.12
3053.73
3047.89
3043.56
3040.76
3039.46
3039.7
3041.47
3044.79
3049.7
3056.2
3064.36
3074.23
3085.83
3099.23
3114.46
3131.55
3150.55
3171.43
3194.17
3218.75
3245.09
3273.09
3302.61
3333.51
3365.55
3398.4
3431.87
3465.8
3499.84
3533.64
3566.84
3599.09
3630.02
3659.3
3686.56
3711.48
3733.72
3752.98
3768.97
3781.44
3790.16
3794.99
3795.78
3792.51
3785.24
3774
3758.96
3740.32
3718.36
3693.39
3665.77
3635.88
3604.14
3570.97
3536.78
3502.01
3467.06
3432.29
3398.05
3364.63
3332.27
3301.21
3271.61
3243.6
3217.27
3192.76
3170.08
3149.25
3130.31
3113.25
3098.07
3084.76
3073.29
3063.6
3055.67
3049.47
3044.94
3042.07
3040.84
3041.21
3043.2
3046.8
3052.05
3058.94
3067.52
3077.79
3089.78
3103.51
3118.98
3136.2
3155.16
3175.85
3198.24
3222.3
3247.96
3275.17
3303.81
3333.77
3364.89
3396.97
3429.79
3463.11
3496.64
3530.06
3563.03
3595.18
3626.12
3655.48
3682.85
3707.88
3730.21
3749.51
3765.49
3777.91
3786.59
3791.37
3792.17
3788.98
3781.88
3770.92
3756.26
3738.09
3716.68
3692.32
3665.36
3636.2
3605.23
3572.88
3539.56
3505.68
3471.62
3437.73
3404.45
3371.76
3340.03
3309.41
3280.07
3252.13
3225.66
3200.72
3177.41
3155.75
3135.77
3117.51
3101.01
3086.32
3073.45
3062.42
3053.24
3045.93
3040.47
3036.89
3035.16
3035.25
3037.13
3040.78
3046.16
3053.26
3062.03
3072.46
3084.52
3098.18
3113.39
3130.15
3148.42
3168.18
3189.42
3212.11
3236.23
3261.74
3288.61
3316.77
3346.13
3376.58
3407.96
3440.1
3472.78
3505.73
3538.64
3571.2
3603.01
3633.69
3662.84
3690.03
3714.85
3736.93
3755.89
3771.42
3783.22
3791.07
3794.84
3794.37
3789.71
3780.9
3768.03
3751.31
3730.98
3707.37
3680.84
3651.8
3620.73
3588.08
3554.33
3519.97
3485.43
3451.11
3417.37
3384.5
3352.76
3322.33
3293.38
3266
3240.23
3216.1
3193.68
3172.92
3153.75
3136.18
3120.19
3105.73
3092.79
3081.35
3071.37
3062.83
3055.72
3050.03
3045.76
3042.94
3041.58
3041.69
3043.34
3046.59
3051.48
3058.08
3066.45
3076.63
3088.68
3102.63
3118.51
3136.35
3156.16
3177.92
3201.59
3227.11
3254.4
3283.31
3313.69
3345.35
3378
3411.32
3445.21
3479.3
3513.21
3546.57
3579.03
3610.18
3639.67
3667.12
3692.18
3714.52
3733.83
3749.84
3762.33
3771.11
3776.03
3777.02
3773.83
3766.72
3755.75
3741.06
3722.89
3701.5
3677.2
3650.39
3621.46
3590.8
3558.87
3526.07
3492.81
3459.45
3426.27
3393.69
3368.14
3338.26
3309.48
3282.12
3256.35
3232.24
3209.86
3189.23
3170.36
3153.23
3137.83
3124.11
3112.03
3101.54
3092.6
3085.14
3079.13
3074.51
3071.24
3069.3
3068.99
3069.99
3072.3
3075.87
3080.71
3086.82
3094.16
3102.76
3112.62
3123.74
3136.12
3149.75
3164.62
3180.7
3197.93
3216.26
3235.56
3671.19
3687.53
3700.07
3708.71
3713.38
3713.96
3710.19
3702.37
3690.58
3674.95
3655.68
3633.05
3607.43
3579.12
3548.54
3516.07
3482.12
3447.17
3411.59
3375.81
3340.25
3311.78
3278.12
3245.39
3213.95
3184.01
3155.72
3129.17
3104.43
3081.53
3060.47
3041.26
3023.86
3008.23
2994.34
2982.14
2971.59
2962.64
2955.26
2949.43
2945.11
2942.31
2941
2941.24
2943
2946.32
2951.22
2957.71
2965.85
2975.7
2987.3
3000.68
3015.9
3032.98
3051.96
3072.84
3095.58
3120.17
3146.52
3174.53
3204.09
3235.02
3267.1
3300
3333.53
3367.54
3401.66
3435.54
3468.82
3501.16
3532.19
3561.56
3588.92
3613.92
3636.25
3655.6
3671.66
3684.19
3692.97
3697.82
3698.63
3695.35
3688.04
3676.76
3661.65
3642.93
3620.88
3595.81
3568.07
3538.07
3506.22
3472.94
3438.66
3403.79
3368.76
3333.91
3299.61
3266.14
3233.75
3202.65
3173.04
3145.01
3118.68
3094.16
3071.49
3050.67
3031.74
3014.69
2999.51
2986.21
2974.75
2965.08
2957.16
2950.97
2946.45
2943.59
2942.36
2942.73
2944.71
2948.31
2953.55
2960.44
2969
2979.27
2991.25
3004.97
3020.44
3037.65
3056.61
3077.29
3099.69
3123.75
3149.42
3176.64
3205.3
3235.29
3266.44
3298.57
3331.44
3364.83
3398.43
3431.92
3464.98
3497.23
3528.27
3557.73
3585.2
3610.33
3632.76
3652.15
3668.19
3680.67
3689.39
3694.2
3695
3691.8
3684.67
3673.66
3658.93
3640.68
3619.18
3594.72
3567.66
3538.39
3507.31
3474.85
3441.44
3407.47
3373.33
3339.38
3306.03
3273.31
3241.54
3210.91
3181.55
3153.59
3127.12
3102.17
3078.86
3057.21
3037.23
3018.97
3002.46
2987.77
2974.91
2963.87
2954.7
2947.39
2941.94
2938.36
2936.63
2936.72
2938.61
2942.26
2947.65
2954.75
2963.53
2973.96
2986.03
2999.68
3014.9
3031.66
3049.93
3069.69
3090.92
3113.61
3137.73
3163.25
3190.12
3218.3
3247.68
3278.15
3309.56
3341.75
3374.48
3407.5
3440.49
3473.13
3505.04
3535.82
3565.09
3592.38
3617.32
3639.49
3658.55
3674.16
3686.03
3693.93
3697.72
3697.26
3692.57
3683.72
3670.79
3653.99
3633.57
3609.85
3583.2
3554.05
3522.85
3490.08
3456.22
3421.75
3387.12
3352.72
3318.93
3286.01
3254.23
3223.79
3194.82
3167.44
3141.67
3117.55
3095.15
3074.4
3055.24
3037.68
3021.7
3007.26
2994.32
2982.89
2972.92
2964.39
2957.28
2951.59
2947.32
2944.49
2943.12
2943.23
2944.86
2948.09
2952.97
2959.56
2967.91
2978.08
2990.11
3004.04
3019.92
3037.75
3057.55
3079.31
3102.98
3128.52
3155.82
3184.76
3215.18
3246.88
3279.58
3312.96
3346.92
3381.09
3415.08
3448.54
3481.08
3512.34
3541.92
3569.47
3594.63
3617.05
3636.44
3652.53
3665.08
3673.9
3678.84
3679.84
3676.65
3669.51
3658.49
3643.74
3625.49
3604
3579.6
3552.68
3523.64
3492.87
3460.84
3427.94
3394.6
3361.16
3327.91
3295.25
3269.67
3239.73
3210.92
3183.55
3157.77
3133.66
3111.29
3090.67
3071.81
3054.7
3039.31
3025.6
3013.54
3003.07
2994.14
2986.7
2980.7
2976.09
2972.83
2970.9
2970.58
2971.59
2973.9
2977.48
2982.32
2988.42
2995.76
3004.36
3014.22
3025.33
3037.7
3051.33
3066.2
3082.27
3099.51
3117.84
3137.15
3573.95
3590.37
3602.98
3611.67
3616.38
3616.97
3613.2
3605.34
3593.48
3577.77
3558.4
3535.67
3509.92
3481.49
3450.78
3418.18
3384.11
3349.04
3313.36
3277.47
3241.79
3213.3
3179.55
3146.77
3115.29
3085.34
3057.03
3030.48
3005.75
2982.85
2961.81
2942.62
2925.23
2909.63
2895.75
2883.57
2873.03
2864.1
2856.73
2850.91
2846.59
2843.79
2842.49
2842.72
2844.48
2847.79
2852.67
2859.15
2867.28
2877.11
2888.69
2902.06
2917.26
2934.32
2953.3
2974.17
2996.91
3021.5
3047.87
3075.9
3105.49
3136.46
3168.6
3201.56
3235.16
3269.24
3303.46
3337.43
3370.82
3403.26
3434.4
3463.88
3491.35
3516.46
3538.9
3558.34
3574.49
3587.09
3595.92
3600.81
3601.64
3598.35
3591
3579.66
3564.47
3545.66
3523.5
3498.3
3470.44
3440.31
3408.33
3374.93
3340.53
3305.55
3270.42
3235.49
3201.12
3167.59
3135.15
3104.02
3074.39
3046.34
3020
2995.49
2972.82
2952.01
2933.08
2916.04
2900.88
2887.59
2876.14
2866.49
2858.59
2852.4
2847.89
2845.04
2843.81
2844.18
2846.16
2849.76
2854.99
2861.87
2870.42
2880.68
2892.65
2906.36
2921.82
2939.03
2957.98
2978.67
3001.06
3025.12
3050.81
3078.04
3106.73
3136.74
3167.94
3200.11
3233.05
3266.51
3300.19
3333.78
3366.94
3399.3
3430.46
3460.04
3487.63
3512.88
3535.41
3554.9
3571.03
3583.57
3592.34
3597.17
3597.99
3594.78
3587.6
3576.53
3561.73
3543.4
3521.79
3497.21
3470.02
3440.63
3409.42
3376.84
3343.31
3309.23
3275.01
3240.98
3207.57
3174.8
3142.99
3112.33
3082.95
3054.99
3028.5
3003.55
2980.24
2958.59
2938.61
2920.34
2903.84
2889.15
2876.28
2865.25
2856.08
2848.77
2843.33
2839.76
2838.03
2838.12
2840.02
2843.68
2849.07
2856.17
2864.96
2875.4
2887.46
2901.12
2916.34
2933.1
2951.37
2971.13
2992.36
3015.05
3039.17
3064.69
3091.57
3119.76
3149.16
3179.67
3211.12
3243.36
3276.15
3309.24
3342.32
3375.07
3407.09
3438
3467.39
3494.81
3519.87
3542.17
3561.34
3577.05
3588.98
3596.94
3600.76
3600.31
3595.6
3586.7
3573.7
3556.8
3536.28
3512.43
3485.64
3456.34
3425
3392.09
3358.1
3323.51
3288.77
3254.29
3220.43
3187.46
3155.64
3125.16
3096.19
3068.8
3043.03
3018.93
2996.54
2975.8
2956.66
2939.11
2923.15
2908.72
2895.8
2884.37
2874.41
2865.89
2858.78
2853.09
2848.82
2845.99
2844.61
2844.7
2846.32
2849.53
2854.4
2860.96
2869.3
2879.45
2891.46
2905.38
2921.24
2939.06
2958.86
2980.61
3004.29
3029.84
3057.16
3086.13
3116.59
3148.34
3181.12
3214.55
3248.6
3282.85
3316.95
3350.51
3383.16
3414.54
3444.23
3471.89
3497.16
3519.69
3539.18
3555.35
3567.97
3576.84
3581.81
3582.82
3579.63
3572.44
3561.37
3546.54
3528.19
3506.6
3482.08
3455.04
3425.86
3394.97
3362.81
3329.81
3296.36
3262.83
3229.51
3196.76
3171.13
3141.12
3112.28
3084.89
3059.11
3035
3012.63
2992.03
2973.18
2956.08
2940.71
2927.03
2914.98
2904.53
2895.62
2888.2
2882.21
2877.62
2874.37
2872.44
2872.13
2873.14
2875.46
2879.04
2883.88
2889.97
2897.31
2905.9
2915.76
2926.86
2939.24
2952.86
2967.73
2983.8
3001.04
3019.37
3038.68
3476.82
3493.35
3506.04
3514.79
3519.54
3520.14
3516.37
3508.46
3496.53
3480.73
3461.25
3438.39
3412.5
3383.92
3353.06
3320.32
3286.11
3250.91
3215.11
3179.1
3143.3
3114.77
3080.91
3048.06
3016.55
2986.57
2958.26
2931.71
2906.98
2884.1
2863.08
2843.9
2826.53
2810.95
2797.1
2784.93
2774.41
2765.49
2758.14
2752.32
2748.02
2745.22
2743.91
2744.14
2745.89
2749.19
2754.07
2760.53
2768.64
2778.45
2790.01
2803.36
2818.54
2835.59
2854.55
2875.42
2898.16
2922.75
2949.14
2977.2
3006.82
3037.84
3070.04
3103.07
3136.75
3170.92
3205.24
3239.32
3272.82
3305.39
3336.65
3366.25
3393.85
3419.09
3441.65
3461.2
3477.45
3490.14
3499.03
3503.96
3504.81
3501.51
3494.12
3482.71
3467.43
3448.51
3426.22
3400.89
3372.88
3342.6
3310.47
3276.92
3242.39
3207.29
3172.04
3137.02
3102.57
3068.97
3036.48
3005.32
2975.65
2947.6
2921.24
2896.73
2874.07
2853.26
2834.34
2817.32
2802.17
2788.89
2777.46
2767.83
2759.94
2753.77
2749.27
2746.42
2745.2
2745.57
2747.55
2751.14
2756.36
2763.23
2771.77
2782.01
2793.98
2807.68
2823.13
2840.33
2859.28
2879.96
2902.35
2926.42
2952.12
2979.37
3008.08
3038.13
3069.37
3101.61
3134.62
3168.16
3201.93
3235.63
3268.91
3301.39
3332.68
3362.4
3390.13
3415.51
3438.18
3457.77
3474
3486.63
3495.44
3500.31
3501.13
3497.9
3490.68
3479.55
3464.66
3446.22
3424.49
3399.78
3372.46
3342.91
3311.56
3278.84
3245.17
3210.98
3176.65
3142.54
3109.05
3076.22
3044.38
3013.68
2984.28
2956.31
2929.82
2904.86
2881.55
2859.9
2839.91
2821.65
2805.14
2790.45
2777.58
2766.56
2757.38
2750.08
2744.64
2741.08
2739.36
2739.46
2741.36
2745.02
2750.42
2757.53
2766.32
2776.76
2788.84
2802.5
2817.72
2834.47
2852.74
2872.5
2893.73
2916.42
2940.54
2966.06
2992.96
3021.16
3050.58
3081.13
3112.62
3144.92
3177.79
3210.97
3244.15
3277.01
3309.17
3340.21
3369.74
3397.32
3422.52
3444.96
3464.25
3480.07
3492.09
3500.11
3503.96
3503.52
3498.79
3489.83
3476.75
3459.75
3439.09
3415.1
3388.16
3358.7
3327.19
3294.12
3259.97
3225.24
3190.39
3155.81
3121.86
3088.83
3056.97
3026.46
2997.47
2970.08
2944.32
2920.23
2897.85
2877.14
2858.01
2840.48
2824.54
2810.12
2797.21
2785.8
2775.85
2767.33
2760.23
2754.54
2750.27
2747.43
2746.03
2746.11
2747.72
2750.91
2755.75
2762.3
2770.61
2780.74
2792.74
2806.64
2822.48
2840.29
2860.08
2881.83
2905.52
2931.08
2958.42
2987.43
3017.93
3049.74
3082.59
3116.1
3150.24
3184.6
3218.81
3252.49
3285.27
3316.77
3346.6
3374.39
3399.79
3422.44
3442.04
3458.31
3471
3479.92
3484.94
3485.96
3482.75
3475.53
3464.39
3449.47
3431.02
3409.3
3384.64
3357.45
3328.13
3297.1
3264.8
3231.66
3198.1
3164.47
3131.06
3098.22
3072.52
3042.43
3013.56
2986.16
2960.36
2936.26
2913.9
2893.31
2874.48
2857.4
2842.05
2828.38
2816.36
2805.93
2797.04
2789.64
2783.67
2779.09
2775.85
2773.93
2773.62
2774.65
2776.97
2780.55
2785.39
2791.48
2798.81
2807.4
2817.25
2828.35
2840.72
2854.34
2869.2
2885.27
2902.51
2920.84
2940.15
3379.82
3396.46
3409.25
3418.07
3422.85
3423.48
3419.69
3411.73
3399.73
3383.82
3364.22
3341.21
3315.17
3286.42
3255.4
3222.49
3188.12
3152.78
3116.85
3080.71
3044.77
3016.16
2982.19
2949.28
2917.73
2887.73
2859.4
2832.85
2808.13
2785.26
2764.25
2745.1
2727.76
2712.2
2698.37
2686.23
2675.73
2666.83
2659.49
2653.68
2649.39
2646.59
2645.28
2645.5
2647.24
2650.54
2655.39
2661.84
2669.93
2679.72
2691.25
2704.58
2719.74
2736.77
2755.72
2776.58
2799.32
2823.92
2850.32
2878.41
2908.08
2939.15
2971.41
3004.52
3038.29
3072.58
3107
3141.21
3174.84
3207.54
3238.94
3268.69
3296.43
3321.81
3344.5
3364.18
3380.54
3393.33
3402.29
3407.27
3408.14
3404.82
3397.39
3385.9
3370.52
3351.47
3329.05
3303.56
3275.39
3244.94
3212.64
3178.93
3144.24
3109.01
3073.63
3038.5
3003.96
2970.29
2937.74
2906.53
2876.84
2848.76
2822.41
2797.89
2775.24
2754.43
2735.52
2718.51
2703.38
2690.12
2678.71
2669.1
2661.23
2655.07
2650.59
2647.75
2646.52
2646.9
2648.87
2652.45
2657.66
2664.52
2673.05
2683.28
2695.23
2708.93
2724.37
2741.56
2760.5
2781.18
2803.57
2827.65
2853.35
2880.63
2909.37
2939.46
2970.75
3003.05
3036.14
3069.77
3103.65
3137.47
3170.88
3203.51
3234.95
3264.83
3292.71
3318.24
3341.05
3360.77
3377.11
3389.82
3398.7
3403.6
3404.43
3401.19
3393.92
3382.71
3367.73
3349.17
3327.3
3302.44
3274.95
3245.24
3213.73
3180.85
3147.03
3112.71
3078.26
3044.06
3010.48
2977.59
2945.7
2914.97
2885.54
2857.55
2831.05
2806.09
2782.78
2761.13
2741.14
2722.88
2706.37
2691.67
2678.81
2667.78
2658.62
2651.32
2645.89
2642.33
2640.61
2640.72
2642.63
2646.3
2651.7
2658.82
2667.61
2678.06
2690.14
2703.8
2719.03
2735.79
2754.05
2773.81
2795.04
2817.72
2841.84
2867.37
2894.27
2922.49
2951.95
2982.53
3014.07
3046.43
3079.38
3112.66
3145.97
3178.96
3211.26
3242.46
3272.15
3299.9
3325.26
3347.85
3367.29
3383.23
3395.36
3403.45
3407.34
3406.9
3402.15
3393.12
3379.95
3362.83
3342.03
3317.87
3290.75
3261.11
3229.41
3196.16
3161.84
3126.96
3091.97
3057.27
3023.24
2990.14
2958.22
2927.69
2898.68
2871.28
2845.53
2821.45
2799.1
2778.4
2759.29
2741.79
2725.86
2711.46
2698.56
2687.16
2677.23
2668.72
2661.62
2655.94
2651.66
2648.81
2647.4
2647.47
2649.05
2652.22
2657.04
2663.56
2671.85
2681.96
2693.93
2707.81
2723.64
2741.44
2761.21
2782.97
2806.66
2832.23
2859.6
2888.65
2919.2
2951.08
2984.01
3017.6
3051.84
3086.32
3120.66
3154.48
3187.4
3219.05
3249.03
3276.97
3302.51
3325.29
3345.02
3361.39
3374.17
3383.16
3388.22
3389.25
3386.03
3378.76
3367.55
3352.54
3333.96
3312.1
3287.29
3259.94
3230.45
3199.25
3166.79
3133.51
3099.82
3066.08
3032.58
2999.64
2973.83
2943.66
2914.76
2887.34
2861.54
2837.44
2815.09
2794.51
2775.7
2758.64
2743.31
2729.67
2717.67
2707.27
2698.4
2691.02
2685.07
2680.51
2677.29
2675.37
2675.07
2676.1
2678.43
2682.01
2686.85
2692.94
2700.26
2708.85
2718.69
2729.79
2742.15
2755.76
2770.62
2786.69
2803.92
2822.25
2841.58
3282.94
3299.71
3312.6
3321.5
3326.33
3326.98
3323.17
3315.16
3303.07
3287.04
3267.3
3244.14
3217.92
3188.99
3157.77
3124.68
3090.14
3054.64
3018.56
2982.28
2946.21
2917.48
2883.39
2850.42
2818.82
2788.8
2760.46
2733.91
2709.19
2686.34
2665.35
2646.22
2628.91
2613.37
2599.57
2587.46
2576.98
2568.1
2560.77
2554.98
2550.69
2547.9
2546.59
2546.81
2548.54
2551.82
2556.66
2563.09
2571.16
2580.92
2592.43
2605.73
2620.87
2637.88
2656.81
2677.66
2700.4
2725.01
2751.43
2779.55
2809.26
2840.4
2872.73
2905.93
2939.8
2974.2
3008.75
3043.09
3076.87
3109.72
3141.28
3171.19
3199.09
3224.62
3247.46
3267.28
3283.77
3296.66
3305.71
3310.74
3311.63
3308.3
3300.81
3289.24
3273.75
3254.56
3231.97
3206.31
3177.96
3147.32
3114.84
3080.95
3046.09
3010.7
2975.19
2939.93
2905.3
2871.54
2838.93
2807.67
2777.94
2749.85
2723.48
2698.97
2676.32
2655.52
2636.63
2619.63
2604.52
2591.28
2579.88
2570.29
2562.45
2556.31
2551.84
2549.01
2547.79
2548.16
2550.13
2553.7
2558.9
2565.75
2574.27
2584.48
2596.42
2610.1
2625.53
2642.71