/*--------------------------------*- C++ -*----------------------------------*\
| =========                 |                                                 |
| \\      /  F ield         | OpenFOAM: The Open Source CFD Toolbox           |
|  \\    /   O peration     | Version:  3.0.1                                 |
|   \\  /    A nd           | Web:      www.OpenFOAM.org                      |
|    \\/     M anipulation  |                                                 |
\*---------------------------------------------------------------------------*/
FoamFile
{
    version     2.0;
    format      ascii;
    class       volScalarField;
    location    "50.2";
    object      p;
}
// * * * * * * * * * * * * * * * * * * * * * * * * * * * * * * * * * * * * * //

dimensions      [1 -1 -2 0 0 0 0];

internalField   nonuniform List<scalar> 
21420
(
3839.17
3810.63
3782.23
3754.79
3728.7
3704.16
3681.3
3660.18
3640.84
3623.29
3607.49
3593.43
3581.05
3570.31
3561.17
3553.57
3547.49
3542.88
3539.71
3538.01
3537.75
3538.88
3541.47
3545.51
3551.03
3558.07
3566.67
3576.88
3588.75
3602.34
3617.69
3634.85
3653.86
3674.73
3697.45
3722.03
3748.4
3776.47
3806.15
3837.27
3869.6
3902.7
3936.61
3970.9
4005.25
4039.26
4072.51
4104.65
4135.23
4163.85
4190.15
4213.77
4234.41
4251.77
4265.62
4275.78
4282.12
4284.5
4282.85
4277.21
4267.7
4254.41
4237.54
4217.34
4194.07
4168.04
4139.61
4109.16
4077.1
4043.82
4009.73
3975.24
3940.71
3906.55
3873.19
3840.61
3809.12
3778.94
3750.29
3723.29
3698.07
3674.71
3653.25
3633.74
3616.18
3600.57
3586.91
3575.15
3565.26
3557.2
3550.91
3546.32
3543.39
3542.06
3542.25
3543.9
3546.96
3551.41
3557.23
3564.41
3572.97
3582.91
3594.27
3607.08
3621.36
3637.17
3654.52
3673.43
3693.91
3715.96
3739.54
3764.62
3791.12
3818.97
3848.04
3878.18
3909.24
3940.98
3973.16
4005.51
4037.71
4069.44
4100.32
4129.97
4157.98
4183.96
4207.5
4228.22
4245.77
4259.84
4270.17
4276.55
4278.79
4276.95
4270.93
4260.82
4246.76
4228.95
4207.65
4183.2
4155.95
4126.31
4094.72
4061.63
4027.5
3992.8
3957.96
3923.41
3889.55
3856.7
3825.16
3795.17
3766.91
3740.5
3716.03
3693.53
3673
3654.42
3637.73
3622.87
3609.76
3598.33
3588.48
3580.14
3573.25
3567.74
3563.54
3560.61
3558.93
3558.47
3559.22
3561.15
3564.27
3568.62
3574.21
3581.09
3589.28
3598.82
3609.77
3622.18
3636.08
3651.51
3668.52
3687.13
3707.36
3729.22
3752.67
3777.7
3804.21
3832.12
3861.28
3891.53
3922.66
3954.4
3986.46
4018.52
4050.23
4081.23
4111.12
4139.5
4165.97
4190.11
4211.55
4229.92
4244.89
4256.17
4263.56
4266.87
4266.03
4261.05
4252.01
4239.01
4222.29
4202.12
4178.83
4152.79
4124.42
4094.14
4062.41
4029.66
3996.33
3962.84
3929.56
3896.86
3865.04
3834.38
3805.09
3777.36
3751.31
3727.04
3704.61
3684.03
3665.3
3648.4
3633.27
3619.86
3608.1
3597.94
3589.29
3582.09
3576.27
3571.77
3568.54
3566.53
3565.71
3566.08
3567.55
3570.15
3573.88
3578.74
3584.76
3591.94
3600.34
3609.98
3620.91
3633.16
3646.78
3661.81
3678.29
3696.24
3715.69
3736.64
3759.07
3782.94
3808.18
3834.69
3862.36
3891.03
3920.54
3950.99
3981.41
4011.76
4041.74
4071.03
4099.28
4126.11
4151.14
4173.99
4194.31
4211.73
4225.95
4236.7
4243.75
4246.91
4246.13
4241.35
4232.72
4220.26
4204.15
4184.7
4162.23
4137.1
4109.74
4080.6
4050.1
4018.69
3986.79
3954.8
3923.14
3892.31
3864.52
3836.21
3808.86
3782.86
3758.4
3735.58
3714.46
3695.01
3677.23
3661.05
3646.41
3633.24
3621.46
3610.98
3601.74
3593.68
3586.74
3580.9
3576.13
3572.43
3569.8
3568.3
3567.96
3568.82
3570.92
3574.33
3579.09
3585.25
3592.85
3601.94
3612.54
3624.69
3638.4
3653.66
3670.44
3688.73
3708.46
3729.57
3751.98
3775.56
3800.2
3825.72
3852.36
3879.2
3906.4
3933.7
3960.86
3987.58
4013.61
4038.71
4062.6
4085.04
4105.77
4124.55
4141.17
4155.37
4166.92
3741.01
3712.46
3684.06
3656.61
3630.52
3605.98
3583.12
3562
3542.67
3525.12
3509.32
3495.26
3482.88
3472.15
3463.01
3455.41
3449.33
3444.72
3441.56
3439.86
3439.59
3440.73
3443.31
3447.35
3452.87
3459.91
3468.51
3478.72
3490.58
3504.16
3519.51
3536.67
3555.68
3576.54
3599.27
3623.84
3650.21
3678.29
3707.97
3739.1
3771.44
3804.55
3838.47
3872.77
3907.13
3941.16
3974.43
4006.58
4037.18
4065.82
4092.14
4115.78
4136.42
4153.8
4167.66
4177.83
4184.17
4186.56
4184.9
4179.25
4169.74
4156.44
4139.56
4119.34
4096.06
4070.02
4041.57
4011.1
3979.02
3945.72
3911.62
3877.11
3842.57
3808.4
3775.03
3742.44
3710.94
3680.77
3652.1
3625.11
3599.89
3576.52
3555.06
3535.56
3518
3502.39
3488.73
3476.97
3467.08
3459.02
3452.74
3448.16
3445.23
3443.9
3444.09
3445.74
3448.8
3453.26
3459.07
3466.26
3474.81
3484.75
3496.11
3508.91
3523.2
3539
3556.35
3575.26
3595.74
3617.78
3641.37
3666.44
3692.95
3720.8
3749.88
3780.03
3811.09
3842.84
3875.03
3907.39
3939.61
3971.35
4002.25
4031.91
4059.94
4085.94
4109.49
4130.23
4147.8
4161.88
4172.22
4178.61
4180.86
4179
4172.98
4162.87
4148.79
4130.97
4109.66
4085.19
4057.92
4028.26
3996.65
3963.54
3929.39
3894.67
3859.82
3825.26
3791.38
3758.52
3726.98
3696.98
3668.71
3642.31
3617.84
3595.34
3574.82
3556.24
3539.55
3524.7
3511.59
3500.16
3490.32
3481.98
3475.1
3469.58
3465.39
3462.46
3460.78
3460.32
3461.07
3463
3466.12
3470.47
3476.06
3482.93
3491.12
3500.66
3511.61
3524.01
3537.91
3553.35
3570.35
3588.96
3609.19
3631.04
3654.5
3679.52
3706.04
3733.95
3763.12
3793.37
3824.51
3856.27
3888.33
3920.41
3952.14
3983.15
4013.06
4041.46
4067.94
4092.11
4113.56
4131.94
4146.92
4158.22
4165.62
4168.93
4168.09
4163.1
4154.06
4141.05
4124.31
4104.13
4080.82
4054.76
4026.37
3996.08
3964.32
3931.56
3898.21
3864.7
3831.42
3798.7
3766.87
3736.2
3706.91
3679.17
3653.13
3628.86
3606.42
3585.85
3567.12
3550.22
3535.09
3521.69
3509.94
3499.77
3491.13
3483.93
3478.11
3473.62
3470.39
3468.38
3467.57
3467.93
3469.4
3472
3475.73
3480.59
3486.61
3493.79
3502.19
3511.83
3522.76
3535
3548.62
3563.65
3580.12
3598.08
3617.53
3638.48
3660.91
3684.77
3710.01
3736.53
3764.2
3792.87
3822.4
3852.86
3883.29
3913.65
3943.65
3972.96
4001.22
4028.06
4053.11
4075.98
4096.31
4113.75
4127.98
4138.74
4145.8
4148.97
4148.2
4143.41
4134.76
4122.3
4106.18
4086.71
4064.23
4039.08
4011.7
3982.54
3952.02
3920.59
3888.67
3856.67
3824.99
3794.14
3766.38
3738.05
3710.69
3684.69
3660.22
3637.41
3616.28
3596.84
3579.06
3562.88
3548.25
3535.08
3523.3
3512.83
3503.59
3495.53
3488.6
3482.76
3477.99
3474.28
3471.65
3470.15
3469.81
3470.67
3472.77
3476.18
3480.94
3487.09
3494.69
3503.78
3514.38
3526.53
3540.24
3555.49
3572.28
3590.56
3610.3
3631.41
3653.82
3677.4
3702.05
3727.58
3754.21
3781.07
3808.28
3835.59
3862.75
3889.49
3915.53
3940.64
3964.54
3986.99
4007.74
4026.53
4043.16
4057.37
4068.92
3642.78
3614.21
3585.81
3558.35
3532.26
3507.71
3484.86
3463.74
3444.41
3426.86
3411.08
3397.02
3384.65
3373.92
3364.78
3357.19
3351.11
3346.51
3343.34
3341.65
3341.38
3342.51
3345.1
3349.13
3354.65
3361.69
3370.28
3380.48
3392.34
3405.91
3421.26
3438.42
3457.42
3478.28
3501
3525.57
3551.95
3580.03
3609.72
3640.85
3673.21
3706.35
3740.29
3774.61
3809
3843.06
3876.37
3908.56
3939.19
3967.86
3994.21
4017.89
4038.56
4055.96
4069.85
4080.03
4086.38
4088.78
4087.09
4081.45
4071.92
4058.61
4041.7
4021.46
3998.15
3972.07
3943.58
3913.08
3880.96
3847.63
3813.49
3778.96
3744.39
3710.2
3676.81
3644.21
3612.69
3582.51
3553.84
3526.84
3501.62
3478.25
3456.79
3437.29
3419.74
3404.13
3390.47
3378.72
3368.84
3360.78
3354.5
3349.92
3347
3345.68
3345.87
3347.52
3350.59
3355.04
3360.86
3368.04
3376.59
3386.53
3397.88
3410.68
3424.97
3440.77
3458.11
3477.02
3497.5
3519.54
3543.12
3568.2
3594.72
3622.57
3651.65
3681.81
3712.89
3744.66
3776.87
3809.25
3841.5
3873.27
3904.2
3933.9
3961.97
3988
4011.59
4032.36
4049.95
4064.06
4074.42
4080.83
4083.1
4081.22
4075.19
4065.07
4050.97
4033.12
4011.78
3987.27
3959.96
3930.26
3898.61
3865.46
3831.28
3796.52
3761.64
3727.05
3693.15
3660.27
3628.71
3598.71
3570.43
3544.03
3519.56
3497.06
3476.54
3457.97
3441.3
3426.45
3413.35
3401.93
3392.09
3383.77
3376.88
3371.37
3367.18
3364.26
3362.58
3362.13
3362.87
3364.8
3367.92
3372.27
3377.85
3384.72
3392.9
3402.44
3413.39
3425.79
3439.68
3455.11
3472.11
3490.71
3510.94
3532.79
3556.25
3581.28
3607.8
3635.72
3664.9
3695.16
3726.32
3758.09
3790.19
3822.29
3854.05
3885.09
3915.03
3943.47
3969.99
3994.19
4015.68
4034.09
4049.1
4060.42
4067.83
4071.16
4070.31
4065.32
4056.26
4043.23
4026.47
4006.25
3982.9
3956.81
3928.38
3898.04
3866.25
3833.45
3800.07
3766.53
3733.22
3700.48
3668.64
3637.95
3608.65
3580.91
3554.86
3530.59
3508.16
3487.59
3468.87
3451.97
3436.85
3423.45
3411.71
3401.55
3392.91
3385.72
3379.9
3375.41
3372.19
3370.18
3369.38
3369.74
3371.21
3373.81
3377.54
3382.4
3388.41
3395.59
3403.98
3413.62
3424.54
3436.79
3450.4
3465.42
3481.89
3499.84
3519.29
3540.24
3562.67
3586.54
3611.79
3638.31
3665.99
3694.67
3724.21
3754.7
3785.16
3815.53
3845.56
3874.9
3903.19
3930.07
3955.15
3978.05
3998.41
4015.88
4030.14
4040.92
4047.99
4051.18
4050.41
4045.62
4036.95
4024.48
4008.33
3988.83
3966.31
3941.12
3913.71
3884.5
3853.95
3822.48
3790.53
3758.5
3726.79
3695.89
3668.19
3639.83
3612.45
3586.43
3561.97
3539.15
3518.03
3498.59
3480.82
3464.65
3450.03
3436.87
3425.09
3414.63
3405.4
3397.34
3390.41
3384.57
3379.8
3376.1
3373.47
3371.97
3371.62
3372.47
3374.57
3377.97
3382.73
3388.87
3396.47
3405.55
3416.15
3428.3
3442
3457.26
3474.05
3492.33
3512.07
3533.19
3555.6
3579.19
3603.85
3629.4
3656.02
3682.9
3710.13
3737.47
3764.65
3791.41
3817.47
3842.6
3866.53
3889
3909.77
3928.58
3945.23
3959.46
3971.02
3544.49
3515.9
3487.48
3460.01
3433.91
3409.37
3386.51
3365.4
3346.08
3328.54
3312.76
3298.71
3286.35
3275.62
3266.49
3258.91
3252.84
3248.23
3245.08
3243.38
3243.1
3244.24
3246.83
3250.86
3256.37
3263.4
3271.98
3282.18
3294.03
3307.59
3322.93
3340.08
3359.07
3379.93
3402.65
3427.22
3453.6
3481.69
3511.39
3542.54
3574.92
3608.09
3642.06
3676.42
3710.86
3744.97
3778.33
3810.57
3841.25
3869.98
3896.38
3920.1
3940.82
3958.26
3972.17
3982.37
3988.74
3991.16
3989.45
3983.79
3974.25
3960.91
3943.97
3923.68
3900.32
3874.19
3845.65
3815.1
3782.92
3749.54
3715.36
3680.77
3646.17
3611.95
3578.53
3545.9
3514.37
3484.17
3455.49
3428.48
3403.26
3379.89
3358.44
3338.94
3321.39
3305.79
3292.13
3280.39
3270.51
3262.47
3256.19
3251.63
3248.71
3247.4
3247.6
3249.25
3252.32
3256.78
3262.6
3269.77
3278.32
3288.25
3299.6
3312.4
3326.67
3342.47
3359.81
3378.71
3399.18
3421.22
3444.81
3469.89
3496.41
3524.27
3553.37
3583.55
3614.64
3646.43
3678.67
3711.09
3743.38
3775.2
3806.17
3835.93
3864.05
3890.13
3913.78
3934.6
3952.24
3966.39
3976.78
3983.2
3985.5
3983.6
3977.57
3967.42
3953.29
3935.39
3914
3889.44
3862.08
3832.32
3800.61
3767.4
3733.16
3698.35
3663.42
3628.79
3594.85
3561.95
3530.37
3500.35
3472.07
3445.65
3421.19
3398.7
3378.19
3359.63
3342.96
3328.13
3315.04
3303.63
3293.8
3285.49
3278.61
3273.11
3268.93
3266.01
3264.33
3263.88
3264.62
3266.55
3269.67
3274.01
3279.6
3286.46
3294.64
3304.17
3315.11
3327.5
3341.38
3356.8
3373.8
3392.4
3412.62
3434.47
3457.93
3482.96
3509.49
3537.42
3566.62
3596.9
3628.08
3659.89
3692.01
3724.16
3755.96
3787.06
3817.05
3845.54
3872.11
3896.37
3917.91
3936.37
3951.42
3962.77
3970.21
3973.56
3972.69
3967.69
3958.61
3945.55
3928.74
3908.47
3885.08
3858.92
3830.43
3800.04
3768.2
3735.34
3701.91
3668.33
3634.98
3602.21
3570.34
3539.63
3510.31
3482.56
3456.51
3432.24
3409.81
3389.24
3370.53
3353.64
3338.53
3325.14
3313.41
3303.26
3294.63
3287.45
3281.64
3277.16
3273.94
3271.94
3271.14
3271.5
3272.98
3275.58
3279.3
3284.16
3290.17
3297.34
3305.73
3315.36
3326.28
3338.51
3352.12
3367.13
3383.6
3401.54
3420.99
3441.93
3464.37
3488.24
3513.49
3540.03
3567.72
3596.42
3625.98
3656.52
3687
3717.41
3747.48
3776.86
3805.2
3832.13
3857.26
3880.21
3900.62
3918.13
3932.43
3943.24
3950.34
3953.55
3952.78
3948
3939.29
3926.79
3910.61
3891.07
3868.49
3843.24
3815.77
3786.51
3755.89
3724.38
3692.38
3660.3
3628.53
3597.57
3569.96
3541.54
3514.13
3488.11
3463.64
3440.82
3419.7
3400.28
3382.51
3366.36
3351.74
3338.6
3326.83
3316.38
3307.16
3299.11
3292.18
3286.34
3281.58
3277.87
3275.24
3273.73
3273.37
3274.22
3276.32
3279.71
3284.46
3290.6
3298.19
3307.27
3317.86
3330.01
3343.71
3358.96
3375.75
3394.04
3413.78
3434.9
3457.32
3480.93
3505.6
3531.19
3557.78
3584.7
3611.96
3639.33
3666.55
3693.34
3719.44
3744.6
3768.55
3791.07
3811.87
3830.71
3847.39
3861.65
3873.23
3446.13
3417.52
3389.07
3361.59
3335.49
3310.94
3288.09
3266.98
3247.66
3230.14
3214.37
3200.33
3187.98
3177.27
3168.14
3160.57
3154.5
3149.91
3146.75
3145.06
3144.77
3145.92
3148.5
3152.52
3158.03
3165.05
3173.63
3183.81
3195.65
3209.2
3224.53
3241.66
3260.65
3281.5
3304.21
3328.79
3355.17
3383.27
3412.99
3444.16
3476.56
3509.79
3543.8
3578.21
3612.7
3646.88
3680.3
3712.61
3743.37
3772.17
3798.64
3822.42
3843.2
3860.68
3874.63
3884.87
3891.25
3893.69
3891.96
3886.29
3876.72
3863.34
3846.35
3826.01
3802.59
3776.39
3747.78
3717.15
3684.9
3651.45
3617.21
3582.56
3547.91
3513.65
3480.19
3447.53
3415.97
3385.75
3357.06
3330.04
3304.82
3281.45
3260
3240.5
3222.96
3207.37
3193.72
3181.98
3172.12
3164.08
3157.82
3153.26
3150.37
3149.06
3149.26
3150.92
3154
3158.46
3164.28
3171.45
3179.99
3189.92
3201.26
3214.05
3228.31
3244.1
3261.43
3280.33
3300.8
3322.84
3346.42
3371.51
3398.04
3425.91
3455.02
3485.22
3516.35
3548.17
3580.45
3612.92
3645.26
3677.13
3708.18
3738
3766.2
3792.35
3816.07
3836.96
3854.66
3868.86
3879.29
3885.74
3888.06
3886.14
3880.1
3869.92
3855.74
3837.8
3816.34
3791.71
3764.26
3734.43
3702.63
3669.35
3635.03
3600.15
3565.16
3530.47
3496.49
3463.55
3431.94
3401.9
3373.61
3347.19
3322.73
3300.25
3279.75
3261.2
3244.55
3229.73
3216.66
3205.27
3195.46
3187.16
3180.29
3174.8
3170.62
3167.71
3166.04
3165.59
3166.33
3168.26
3171.38
3175.71
3181.29
3188.15
3196.31
3205.84
3216.77
3229.15
3243.02
3258.43
3275.42
3294.01
3314.23
3336.07
3359.54
3384.57
3411.11
3439.06
3468.27
3498.58
3529.79
3561.64
3593.82
3626.01
3657.88
3689.04
3719.1
3747.66
3774.31
3798.64
3820.25
3838.77
3853.88
3865.28
3872.74
3876.11
3875.25
3870.23
3861.11
3848.01
3831.15
3810.81
3787.34
3761.12
3732.55
3702.08
3670.15
3637.23
3603.73
3570.09
3536.69
3503.88
3471.97
3441.23
3411.9
3384.13
3358.07
3333.8
3311.38
3290.82
3272.12
3255.24
3240.14
3226.77
3215.05
3204.92
3196.3
3189.13
3183.33
3178.86
3175.65
3173.65
3172.86
3173.22
3174.7
3177.3
3181.02
3185.87
3191.87
3199.05
3207.43
3217.05
3227.95
3240.18
3253.78
3268.79
3285.24
3303.18
3322.62
3343.56
3366
3389.88
3415.14
3441.69
3469.4
3498.12
3527.71
3558.3
3588.83
3619.28
3649.4
3678.85
3707.25
3734.24
3759.44
3782.46
3802.93
3820.5
3834.85
3845.71
3852.84
3856.07
3855.31
3850.52
3841.79
3829.25
3813.02
3793.41
3770.76
3745.44
3717.88
3688.54
3657.85
3626.26
3594.2
3562.06
3530.23
3499.17
3471.69
3443.19
3415.75
3389.7
3365.23
3342.42
3321.3
3301.89
3284.14
3268
3253.4
3240.27
3228.52
3218.08
3208.86
3200.82
3193.91
3188.07
3183.31
3179.6
3176.97
3175.46
3175.08
3175.93
3178.01
3181.4
3186.14
3192.27
3199.85
3208.92
3219.51
3231.65
3245.34
3260.6
3277.38
3295.68
3315.42
3336.55
3358.98
3382.61
3407.3
3432.92
3459.51
3486.47
3513.77
3541.18
3568.44
3595.27
3621.42
3646.62
3670.63
3693.18
3714.03
3732.92
3749.64
3763.93
3775.54
3347.72
3319.06
3290.59
3263.09
3236.98
3212.43
3189.58
3168.48
3149.17
3131.66
3115.9
3101.88
3089.54
3078.84
3069.73
3062.17
3056.11
3051.52
3048.38
3046.68
3046.39
3047.53
3050.11
3054.13
3059.63
3066.64
3075.2
3085.37
3097.19
3110.73
3126.04
3143.17
3162.14
3182.98
3205.69
3230.27
3256.65
3284.77
3314.5
3345.7
3378.14
3411.43
3445.49
3479.96
3514.53
3548.78
3582.3
3614.69
3645.55
3674.43
3700.98
3724.85
3745.69
3763.24
3777.24
3787.51
3793.92
3796.37
3794.64
3788.94
3779.33
3765.91
3748.86
3728.45
3704.95
3678.66
3649.96
3619.24
3586.91
3553.37
3519.04
3484.33
3449.61
3415.29
3381.79
3349.09
3317.5
3287.26
3258.55
3231.52
3206.29
3182.92
3161.47
3141.98
3124.45
3108.87
3095.23
3083.5
3073.65
3065.63
3059.38
3054.84
3051.95
3050.66
3050.87
3052.54
3055.62
3060.08
3065.9
3073.07
3081.61
3091.53
3102.86
3115.63
3129.89
3145.67
3162.99
3181.88
3202.34
3224.38
3247.97
3273.06
3299.59
3327.49
3356.62
3386.84
3418
3449.87
3482.2
3514.72
3547.13
3579.08
3610.21
3640.12
3668.4
3694.65
3718.46
3739.43
3757.21
3771.48
3781.95
3788.44
3790.77
3788.86
3782.79
3772.57
3758.34
3740.32
3718.79
3694.06
3666.52
3636.59
3604.69
3571.31
3536.9
3501.93
3466.86
3432.1
3398.06
3365.07
3333.43
3303.37
3275.06
3248.64
3224.18
3201.71
3181.23
3162.69
3146.06
3131.27
3118.22
3106.84
3097.05
3088.76
3081.92
3076.43
3072.27
3069.37
3067.7
3067.25
3067.99
3069.92
3073.03
3077.36
3082.93
3089.78
3097.93
3107.45
3118.36
3130.73
3144.59
3160
3176.97
3195.55
3215.76
3237.61
3261.07
3286.11
3312.66
3340.63
3369.87
3400.21
3431.46
3463.37
3495.6
3527.86
3559.8
3591.05
3621.19
3649.85
3676.59
3701
3722.7
3741.31
3756.48
3767.93
3775.43
3778.82
3777.96
3772.93
3763.77
3750.61
3733.68
3713.26
3689.7
3663.38
3634.71
3604.14
3572.13
3539.11
3505.54
3471.82
3438.35
3405.48
3373.53
3342.77
3313.4
3285.63
3259.56
3235.29
3212.87
3192.32
3173.63
3156.77
3141.69
3128.33
3116.63
3106.51
3097.9
3090.75
3084.97
3080.5
3077.3
3075.32
3074.53
3074.89
3076.37
3078.97
3082.69
3087.54
3093.54
3100.7
3109.07
3118.68
3129.58
3141.79
3155.38
3170.37
3186.82
3204.75
3224.18
3245.12
3267.56
3291.45
3316.72
3343.29
3371.02
3399.77
3429.39
3460.06
3490.63
3521.15
3551.33
3580.86
3609.34
3636.41
3661.69
3684.79
3705.34
3722.98
3737.4
3748.32
3755.49
3758.74
3758
3753.2
3744.44
3731.84
3715.55
3695.87
3673.13
3647.71
3620.05
3590.61
3559.82
3528.15
3496.01
3463.79
3431.88
3400.69
3373.38
3344.77
3317.28
3291.22
3266.74
3243.93
3222.83
3203.42
3185.69
3169.57
3154.99
3141.88
3130.15
3119.72
3110.53
3102.5
3095.59
3089.76
3084.99
3081.29
3078.66
3077.13
3076.75
3077.58
3079.66
3083.04
3087.77
3093.88
3101.45
3110.51
3121.09
3133.22
3146.92
3162.17
3178.95
3197.25
3217
3238.14
3260.59
3284.23
3308.95
3334.61
3361.2
3388.21
3415.56
3443.02
3470.33
3497.22
3523.42
3548.68
3572.74
3595.35
3616.26
3635.2
3651.97
3666.31
3677.96
3249.23
3220.53
3192.03
3164.51
3138.39
3113.83
3090.99
3069.9
3050.61
3033.1
3017.37
3003.36
2991.04
2980.35
2971.26
2963.71
2957.66
2953.08
2949.94
2948.24
2947.95
2949.09
2951.67
2955.68
2961.17
2968.16
2976.71
2986.86
2998.67
3012.19
3027.48
3044.59
3063.55
3084.38
3107.09
3131.66
3158.06
3186.18
3215.94
3247.18
3279.66
3313.01
3347.14
3381.69
3416.35
3450.69
3484.31
3516.81
3547.77
3576.76
3603.42
3627.38
3648.31
3665.93
3679.99
3690.3
3696.74
3699.2
3697.47
3691.74
3682.09
3668.61
3651.49
3630.99
3607.4
3581.01
3552.2
3521.38
3488.93
3455.29
3420.87
3386.06
3351.26
3316.89
3283.33
3250.58
3218.95
3188.68
3159.95
3132.91
3107.67
3084.3
3062.86
3043.38
3025.85
3010.28
2996.66
2984.95
2975.11
2967.1
2960.87
2956.35
2953.48
2952.19
2952.42
2954.1
2957.19
2961.65
2967.47
2974.64
2983.17
2993.08
3004.4
3017.16
3031.41
3047.17
3064.48
3083.36
3103.82
3125.85
3149.44
3174.54
3201.09
3228.99
3258.15
3288.41
3319.61
3351.53
3383.92
3416.51
3449
3481.04
3512.26
3542.28
3570.67
3597.03
3620.95
3642.03
3659.89
3674.24
3684.77
3691.3
3693.65
3691.75
3685.64
3675.37
3661.08
3642.98
3621.35
3596.51
3568.86
3538.8
3506.79
3473.28
3438.76
3403.68
3368.52
3333.68
3299.57
3266.52
3234.84
3204.75
3176.43
3150
3125.54
3103.09
3082.62
3064.11
3047.5
3032.73
3019.7
3008.35
2998.58
2990.31
2983.48
2978.02
2973.86
2970.97
2969.31
2968.87
2969.61
2971.53
2974.64
2978.96
2984.53
2991.36
2999.5
3009
3019.9
3032.26
3046.1
3061.49
3078.45
3097.02
3117.22
3139.07
3162.53
3187.58
3214.14
3242.13
3271.4
3301.79
3333.09
3365.05
3397.36
3429.7
3461.73
3493.07
3523.33
3552.09
3578.94
3603.46
3625.27
3643.96
3659.22
3670.74
3678.29
3681.69
3680.85
3675.78
3666.58
3653.35
3636.34
3615.82
3592.15
3565.72
3536.93
3506.24
3474.11
3440.99
3407.32
3373.51
3339.97
3307.03
3275.03
3244.22
3214.83
3187.03
3160.96
3136.69
3114.27
3093.73
3075.06
3058.22
3043.16
3029.82
3018.14
3008.04
2999.45
2992.31
2986.55
2982.1
2978.91
2976.94
2976.15
2976.52
2978
2980.6
2984.32
2989.16
2995.15
3002.31
3010.67
3020.27
3031.15
3043.35
3056.92
3071.9
3088.33
3106.25
3125.68
3146.62
3169.05
3192.95
3218.24
3244.82
3272.59
3301.37
3331.03
3361.79
3392.42
3423.01
3453.27
3482.88
3511.46
3538.63
3564.01
3587.21
3607.85
3625.59
3640.08
3651.07
3658.29
3661.58
3660.84
3656.03
3647.24
3634.58
3618.21
3598.43
3575.58
3550.05
3522.26
3492.7
3461.81
3430.03
3397.8
3365.49
3333.47
3302.14
3275.02
3246.29
3218.75
3192.66
3168.17
3145.37
3124.28
3104.89
3087.17
3071.08
3056.52
3043.43
3031.73
3021.32
3012.14
3004.13
2997.23
2991.4
2986.64
2982.93
2980.3
2978.76
2978.37
2979.19
2981.25
2984.62
2989.33
2995.44
3002.99
3012.04
3022.61
3034.73
3048.42
3063.67
3080.46
3098.76
3118.52
3139.67
3162.13
3185.8
3210.54
3236.24
3262.85
3289.92
3317.33
3344.84
3372.22
3399.17
3425.44
3450.77
3474.9
3497.58
3518.55
3537.56
3554.39
3568.79
3580.48
3150.69
3121.93
3093.4
3065.85
3039.71
3015.16
2992.32
2971.24
2951.96
2934.47
2918.75
2904.77
2892.47
2881.8
2872.72
2865.18
2859.15
2854.58
2851.45
2849.75
2849.45
2850.6
2853.17
2857.17
2862.65
2869.63
2878.16
2888.29
2900.07
2913.58
2928.85
2945.94
2964.88
2985.7
3008.4
3032.97
3059.37
3087.52
3117.31
3148.58
3181.11
3214.55
3248.75
3283.38
3318.14
3352.6
3386.34
3418.97
3450.05
3479.17
3505.94
3530.01
3551.04
3568.75
3582.88
3593.25
3599.72
3602.19
3600.46
3594.7
3584.99
3571.45
3554.25
3533.65
3509.94
3483.43
3454.5
3423.55
3390.98
3357.21
3322.67
3287.76
3252.87
3218.43
3184.81
3152
3120.33
3090.02
3061.27
3034.22
3008.97
2985.6
2964.16
2944.69
2927.17
2911.62
2898.01
2886.32
2876.5
2868.51
2862.29
2857.79
2854.94
2853.67
2853.92
2855.61
2858.7
2863.17
2868.99
2876.16
2884.68
2894.57
2905.88
2918.62
2932.86
2948.61
2965.9
2984.77
3005.22
3027.25
3050.84
3075.95
3102.51
3130.44
3159.62
3189.92
3221.17
3253.14
3285.6
3318.28
3350.86
3383.01
3414.34
3444.48
3473
3499.49
3523.54
3544.73
3562.71
3577.14
3587.75
3594.32
3596.69
3594.79
3588.66
3578.33
3563.96
3545.76
3524.01
3499.05
3471.26
3441.06
3408.91
3375.27
3340.61
3305.41
3270.13
3235.2
3201
3167.89
3136.16
3106.04
3077.7
3051.27
3026.82
3004.37
2983.92
2965.44
2948.86
2934.11
2921.12
2909.79
2900.05
2891.81
2885
2879.55
2875.41
2872.53
2870.88
2870.43
2871.18
2873.09
2876.2
2880.52
2886.07
2892.89
2901.01
2910.49
2921.38
2933.72
2947.55
2962.92
2979.86
2998.42
3018.61
3040.45
3063.91
3088.97
3115.55
3143.56
3172.87
3203.31
3234.67
3266.7
3299.09
3331.53
3363.66
3395.12
3425.49
3454.38
3481.36
3506.02
3527.94
3546.75
3562.1
3573.7
3581.3
3584.73
3583.89
3578.8
3569.54
3556.24
3539.12
3518.5
3494.7
3468.13
3439.2
3408.38
3376.12
3342.87
3309.08
3275.17
3241.54
3208.52
3176.46
3145.6
3116.18
3088.36
3062.27
3038
3015.6
2995.07
2976.41
2959.59
2944.55
2931.24
2919.58
2909.51
2900.95
2893.83
2888.08
2883.65
2880.47
2878.51
2877.73
2878.1
2879.59
2882.19
2885.91
2890.74
2896.72
2903.86
2912.21
2921.8
2932.66
2944.85
2958.4
2973.37
2989.78
3007.69
3027.11
3048.04
3070.48
3094.38
3119.69
3146.3
3174.1
3202.92
3232.62
3263.49
3294.19
3324.85
3355.21
3384.93
3413.62
3440.9
3466.4
3489.71
3510.47
3528.31
3542.9
3553.96
3561.24
3564.57
3563.84
3559.02
3550.19
3537.46
3521
3501.11
3478.14
3452.46
3424.54
3394.84
3363.81
3331.91
3299.56
3267.15
3235.03
3203.51
3176.61
3147.74
3120.13
3094.02
3069.53
3046.73
3025.65
3006.28
2988.59
2972.52
2957.99
2944.93
2933.25
2922.87
2913.71
2905.71
2898.82
2893.01
2888.25
2884.54
2881.9
2880.35
2879.94
2880.75
2882.8
2886.15
2890.85
2896.94
2904.48
2913.51
2924.07
2936.18
2949.86
2965.1
2981.89
3000.2
3019.97
3041.14
3063.62
3087.31
3112.09
3137.83
3164.46
3191.59
3219.07
3246.65
3274.1
3301.14
3327.48
3352.89
3377.1
3399.86
3420.91
3440
3456.9
3471.36
3483.1
3052.07
3023.26
2994.68
2967.11
2940.96
2916.4
2893.56
2872.5
2853.23
2835.77
2820.07
2806.11
2793.83
2783.18
2774.12
2766.6
2760.58
2756.02
2752.9
2751.21
2750.91
2752.05
2754.61
2758.6
2764.07
2771.03
2779.54
2789.65
2801.41
2814.89
2830.14
2847.2
2866.13
2886.93
2909.62
2934.2
2960.61
2988.77
3018.59
3049.91
3082.49
3116.02
3150.31
3185.05
3219.92
3254.51
3288.39
3321.16
3352.39
3381.65
3408.56
3432.75
3453.9
3471.7
3485.92
3496.34
3502.85
3505.34
3503.6
3497.8
3488.04
3474.42
3457.12
3436.41
3412.57
3385.93
3356.85
3325.75
3293.04
3259.14
3224.47
3189.44
3154.44
3119.93
3086.23
3053.36
3021.63
2991.28
2962.51
2935.44
2910.18
2886.81
2865.38
2845.91
2828.41
2812.88
2799.29
2787.61
2777.81
2769.84
2763.65
2759.17
2756.34
2755.09
2755.35
2757.06
2760.16
2764.64
2770.45
2777.61
2786.12
2796.01
2807.3
2820.03
2834.24
2849.98
2867.26
2886.11
2906.56
2928.58
2952.17
2977.29
3003.86
3031.81
3061.03
3091.37
3122.67
3154.71
3187.26
3220.02
3252.71
3284.98
3316.45
3346.73
3375.4
3402.04
3426.22
3447.56
3465.66
3480.19
3490.88
3497.5
3499.91
3498.01
3491.83
3481.45
3466.98
3448.67
3426.79
3401.69
3373.74
3343.38
3311.06
3277.26
3242.45
3207.12
3171.71
3136.66
3102.37
3069.19
3037.4
3007.24
2978.88
2952.45
2928
2905.57
2885.15
2866.69
2850.14
2835.43
2822.47
2811.17
2801.46
2793.24
2786.45
2781.02
2776.9
2774.04
2772.39
2771.95
2772.7
2774.61
2777.72
2782.02
2787.55
2794.36
2802.47
2811.93
2822.8
2835.12
2848.93
2864.28
2881.21
2899.75
2919.93
2941.76
2965.23
2990.29
3016.89
3044.93
3074.28
3104.77
3136.19
3168.32
3200.8
3233.35
3265.6
3297.19
3327.7
3356.73
3383.86
3408.66
3430.73
3449.67
3465.13
3476.81
3484.48
3487.94
3487.1
3481.98
3472.66
3459.26
3442.04
3421.28
3397.34
3370.61
3341.53
3310.55
3278.13
3244.74
3210.82
3176.79
3143.05
3109.95
3077.82
3046.91
3017.45
2989.6
2963.5
2939.23
2916.84
2896.33
2877.69
2860.89
2845.88
2832.59
2820.96
2810.92
2802.38
2795.28
2789.56
2785.14
2781.99
2780.04
2779.27
2779.64
2781.13
2783.73
2787.44
2792.27
2798.24
2805.37
2813.7
2823.27
2834.12
2846.29
2859.82
2874.77
2891.17
2909.06
2928.47
2949.4
2971.84
2995.75
3021.07
3047.72
3075.55
3104.42
3134.16
3165.16
3195.93
3226.69
3257.16
3287
3315.81
3343.23
3368.85
3392.3
3413.19
3431.14
3445.84
3456.99
3464.34
3467.71
3467
3462.17
3453.29
3440.48
3423.92
3403.91
3380.78
3354.95
3326.86
3297
3265.82
3233.78
3201.31
3168.78
3136.54
3104.82
3078.15
3049.11
3021.44
2995.31
2970.81
2948.01
2926.94
2907.6
2889.94
2873.89
2859.4
2846.37
2834.72
2824.36
2815.23
2807.25
2800.37
2794.57
2789.81
2786.1
2783.45
2781.89
2781.47
2782.26
2784.29
2787.63
2792.31
2798.38
2805.9
2814.92
2825.46
2837.56
2851.23
2866.47
2883.26
2901.57
2921.35
2942.54
2965.04
2988.76
3013.58
3039.37
3066.04
3093.24
3120.78
3148.45
3175.99
3203.11
3229.54
3255.04
3279.34
3302.19
3323.34
3342.51
3359.5
3374.03
3385.83
2953.39
2924.51
2895.89
2868.29
2842.12
2817.55
2794.73
2773.67
2754.43
2736.99
2721.31
2707.38
2695.12
2684.5
2675.46
2667.96
2661.95
2657.41
2654.3
2652.6
2652.3
2653.44
2656
2659.98
2665.42
2672.37
2680.86
2690.94
2702.67
2716.12
2731.35
2748.39
2767.29
2788.08
2810.76
2835.34
2861.76
2889.94
2919.8
2951.16
2983.81
3017.44
3051.83
3086.68
3121.69
3156.42
3190.45
3223.38
3254.78
3284.2
3311.26
3335.6
3356.87
3374.79
3389.09
3399.59
3406.13
3408.64
3406.89
3401.06
3391.24
3377.53
3360.12
3339.28
3315.3
3288.5
3259.26
3228
3195.12
3161.07
3126.25
3091.08
3055.96
3021.37
2987.58
2954.64
2922.86
2892.46
2863.66
2836.57
2811.31
2787.94
2766.51
2747.06
2729.57
2714.05
2700.48
2688.83
2679.05
2671.1
2664.94
2660.48
2657.68
2656.45
2656.73
2658.45
2661.57
2666.05
2671.86
2679.02
2687.52
2697.38
2708.66
2721.37
2735.56
2751.28
2768.54
2787.39
2807.82
2829.84
2853.43
2878.55
2905.14
2933.12
2962.37
2992.76
3024.12
3056.24
3088.88
3121.75
3154.56
3186.96
3218.58
3249.02
3277.85
3304.66
3329.01
3350.5
3368.74
3383.39
3394.17
3400.85
3403.29
3401.39
3395.17
3384.71
3370.15
3351.71
3329.68
3304.41
3276.29
3245.75
3213.25
3179.27
3144.29
3108.79
3073.24
3038.07
3003.68
2970.41
2938.56
2908.35
2879.97
2853.53
2829.09
2806.68
2786.28
2767.86
2751.34
2736.67
2723.74
2712.49
2702.8
2694.62
2687.86
2682.45
2678.35
2675.49
2673.86
2673.43
2674.17
2676.09
2679.18
2683.47
2688.99
2695.78
2703.87
2713.31
2724.16
2736.45
2750.24
2765.57
2782.48
2801
2821.17
2843
2866.46
2891.54
2918.16
2946.23
2975.63
3006.18
3037.67
3069.89
3102.48
3135.15
3167.54
3199.27
3229.95
3259.14
3286.44
3311.4
3333.62
3352.71
3368.3
3380.08
3387.82
3391.32
3390.48
3385.33
3375.93
3362.43
3345.08
3324.17
3300.07
3273.17
3243.9
3212.75
3180.16
3146.61
3112.53
3078.37
3044.52
3011.32
2979.11
2948.14
2918.63
2890.76
2864.65
2840.38
2817.99
2797.5
2778.89
2762.12
2747.14
2733.88
2722.28
2712.26
2703.76
2696.69
2690.98
2686.59
2683.45
2681.52
2680.76
2681.14
2682.63
2685.23
2688.94
2693.76
2699.71
2706.83
2715.15
2724.7
2735.53
2747.67
2761.19
2776.11
2792.49
2810.36
2829.76
2850.68
2873.13
2897.05
2922.4
2949.07
2976.94
3005.86
3035.65
3066.81
3097.65
3128.53
3159.11
3189.08
3218.04
3245.61
3271.38
3294.98
3316.01
3334.1
3348.92
3360.17
3367.6
3371.02
3370.33
3365.48
3356.55
3343.65
3326.97
3306.81
3283.52
3257.51
3229.24
3199.19
3167.84
3135.65
3103.03
3070.38
3038
3006.09
2979.61
2950.4
2922.67
2896.51
2872
2849.21
2828.16
2808.84
2791.21
2775.21
2760.75
2747.76
2736.14
2725.81
2716.7
2708.74
2701.88
2696.08
2691.33
2687.62
2684.96
2683.39
2682.95
2683.73
2685.74
2689.05
2693.71
2699.76
2707.26
2716.26
2726.79
2738.87
2752.54
2767.78
2784.57
2802.88
2822.67
2843.88
2866.41
2890.15
2915.01
2940.86
2967.57
2994.85
3022.48
3050.24
3077.87
3105.09
3131.62
3157.22
3181.62
3204.58
3225.83
3245.1
3262.18
3276.79
3288.66
2854.65
2825.69
2797.02
2769.38
2743.19
2718.63
2695.81
2674.77
2655.54
2638.13
2622.49
2608.57
2596.35
2585.75
2576.74
2569.26
2563.27
2558.74
2555.64
2553.95
2553.65
2554.78
2557.33
2561.29
2566.72
2573.64
2582.11
2592.16
2603.87
2617.29
2632.48
2649.5
2668.38
2689.15
2711.82
2736.39
2762.82
2791.03
2820.92
2852.35
2885.07
2918.8
2953.3
2988.28
3023.43
3058.33
3092.53
3125.64
3157.22
3186.82
3214.05
3238.55
3259.97
3278.01
3292.41
3302.98
3309.58
3312.1
3310.35
3304.47
3294.58
3280.78
3263.25
3242.26
3218.12
3191.15
3161.73
3130.28
3097.22
3062.99
3028.01
2992.69
2957.44
2922.75
2888.87
2855.85
2824
2793.56
2764.72
2737.62
2712.34
2688.98
2667.56
2648.11
2630.64
2615.15
2601.6
2589.97
2580.21
2572.29
2566.16
2561.73
2558.95
2557.75
2558.05
2559.79
2562.92
2567.4
2573.22
2580.37
2588.85
2598.7
2609.96
2622.65
2636.82
2652.51
2669.76
2688.59
2709.01
2731.03
2754.62
2779.75
2806.36
2834.36
2863.65
2894.1
2925.53
2957.73
2990.46
3023.46
3056.4
3088.95
3120.73
3151.35
3180.37
3207.36
3231.89
3253.55
3271.95
3286.73
3297.62
3304.37
3306.84