/*--------------------------------*- C++ -*----------------------------------*\
| =========                 |                                                 |
| \\      /  F ield         | OpenFOAM: The Open Source CFD Toolbox           |
|  \\    /   O peration     | Version:  3.0.1                                 |
|   \\  /    A nd           | Web:      www.OpenFOAM.org                      |
|    \\/     M anipulation  |                                                 |
\*---------------------------------------------------------------------------*/
FoamFile
{
    version     2.0;
    format      ascii;
    class       volScalarField;
    location    "24";
    object      p;
}
// * * * * * * * * * * * * * * * * * * * * * * * * * * * * * * * * * * * * * //

dimensions      [1 -1 -2 0 0 0 0];

internalField   nonuniform List<scalar> 
22680
(
3619.39
3607.47
3596.82
3587.42
3579.23
3572.2
3566.29
3561.43
3557.59
3554.72
3552.78
3551.73
3551.55
3552.21
3553.71
3556.01
3559.14
3563.11
3567.92
3573.6
3580.16
3587.65
3596.08
3605.51
3615.96
3627.48
3640.12
3653.9
3668.86
3685.02
3702.41
3721.02
3740.86
3761.89
3784.1
3807.43
3831.78
3857.07
3883.18
3909.99
3937.34
3965.37
3993.37
4021.29
4048.86
4075.91
4102.15
4127.36
4151.25
4173.59
4194.13
4212.66
4229
4242.99
4254.49
4263.39
4269.61
4273.12
4273.87
4271.9
4267.21
4259.94
4250.14
4237.9
4223.35
4206.65
4187.96
4167.46
4145.33
4121.75
4096.92
4071.06
4044.36
4017.03
3989.26
3961.24
3933.15
3905.15
3877.37
3849.93
3826.13
3800.31
3775.47
3751.68
3729.01
3707.54
3687.33
3668.45
3650.92
3634.79
3620.07
3606.79
3594.93
3584.5
3575.49
3567.89
3561.67
3556.81
3553.29
3551.07
3550.13
3550.43
3551.93
3554.6
3558.37
3563.21
3569.07
3575.92
3583.7
3592.37
3601.89
3612.26
3623.44
3635.42
3648.18
3661.73
3676.05
3691.15
3707.03
3723.68
3741.09
3759.28
3778.24
3797.94
3818.37
3839.52
3861.33
3883.77
3906.77
3930.26
3954.16
3978.36
4002.71
4027.07
4051.3
4075.2
4098.6
4121.27
4142.99
4163.54
4182.69
4200.21
4215.88
4229.48
4240.83
4249.76
4256.11
4259.77
4260.65
4258.67
4253.85
4246.23
4235.85
4222.79
4207.19
4189.22
4169.07
4146.98
4123.17
4097.92
4071.5
4044.19
4016.26
3988
3959.68
3931.54
3903.85
3876.8
3850.61
3825.43
3801.39
3778.59
3757.11
3737.01
3718.3
3701
3685.08
3670.51
3657.25
3645.23
3634.4
3624.67
3616
3608.32
3601.56
3595.7
3590.68
3586.48
3583.09
3580.49
3578.68
3577.67
3577.45
3578.06
3579.5
3581.83
3585.02
3589.14
3594.23
3600.32
3607.46
3615.68
3625.03
3635.55
3647.25
3660.15
3674.27
3689.6
3706.12
3723.82
3742.67
3762.59
3783.53
3805.42
3828.16
3851.63
3875.73
3900.3
3925.18
3950.1
3974.31
3998.6
4022.22
4044.45
4065.18
3521.2
3509.29
3498.64
3489.25
3481.06
3474.04
3468.12
3463.27
3459.43
3456.56
3454.63
3453.58
3453.4
3454.07
3455.56
3457.87
3460.99
3464.96
3469.77
3475.45
3482.01
3489.5
3497.92
3507.35
3517.8
3529.32
3541.95
3555.73
3570.68
3586.85
3604.23
3622.84
3642.68
3663.71
3685.93
3709.25
3733.61
3758.9
3785.02
3811.84
3839.19
3867.24
3895.24
3923.17
3950.76
3977.82
4004.08
4029.3
4053.2
4075.56
4096.12
4114.66
4131.01
4145.01
4156.52
4165.43
4171.66
4175.17
4175.93
4173.95
4169.27
4161.98
4152.17
4139.93
4125.36
4108.65
4089.95
4069.43
4047.29
4023.7
3998.86
3972.98
3946.27
3918.93
3891.14
3863.11
3835.01
3807.01
3779.23
3751.79
3727.93
3702.12
3677.29
3653.5
3630.83
3609.36
3589.15
3570.26
3552.73
3536.6
3521.89
3508.6
3496.75
3486.32
3477.31
3469.71
3463.49
3458.63
3455.11
3452.9
3451.96
3452.26
3453.77
3456.43
3460.21
3465.05
3470.92
3477.77
3485.55
3494.22
3503.75
3514.11
3525.29
3537.27
3550.04
3563.58
3577.91
3593.01
3608.88
3625.52
3642.94
3661.13
3680.08
3699.78
3720.22
3741.36
3763.17
3785.61
3808.61
3832.11
3856.02
3880.22
3904.57
3928.95
3953.18
3977.1
4000.51
4023.19
4044.93
4065.49
4084.66
4102.19
4117.88
4131.5
4142.86
4151.8
4158.16
4161.82
4162.71
4160.74
4155.91
4148.28
4137.9
4124.82
4109.21
4091.23
4071.07
4048.96
4025.14
3999.87
3973.43
3946.09
3918.15
3889.87
3861.54
3833.39
3805.68
3778.63
3752.42
3727.24
3703.19
3680.39
3658.91
3638.81
3620.11
3602.81
3586.89
3572.33
3559.07
3547.06
3536.22
3526.51
3517.84
3510.16
3503.41
3497.55
3492.53
3488.33
3484.94
3482.34
3480.54
3479.52
3479.31
3479.91
3481.36
3483.68
3486.87
3490.99
3496.07
3502.16
3509.29
3517.52
3526.86
3537.38
3549.08
3561.98
3576.09
3591.42
3607.95
3625.65
3644.49
3664.42
3685.37
3707.25
3730
3753.48
3777.58
3802.16
3827.05
3852.01
3876.19
3900.54
3924.18
3946.48
3967.08
3422.93
3411.03
3400.39
3391
3382.82
3375.81
3369.9
3365.05
3361.22
3358.36
3356.42
3355.38
3355.21
3355.87
3357.37
3359.67
3362.8
3366.77
3371.57
3377.25
3383.81
3391.29
3399.71
3409.13
3419.57
3431.09
3443.71
3457.49
3472.44
3488.6
3505.98
3524.59
3544.42
3565.46
3587.67
3611
3635.36
3660.67
3686.8
3713.63
3741
3769.06
3797.09
3825.04
3852.65
3879.75
3906.03
3931.29
3955.22
3977.61
3998.19
4016.76
4033.14
4047.16
4058.69
4067.61
4073.85
4077.37
4078.13
4076.16
4071.48
4064.16
4054.33
4042.07
4027.49
4010.76
3992.03
3971.49
3949.31
3925.7
3900.83
3874.92
3848.18
3820.82
3793.01
3764.96
3736.84
3708.82
3681.04
3653.63
3629.64
3603.85
3579.02
3555.23
3532.55
3511.08
3490.87
3471.98
3454.45
3438.32
3423.61
3410.33
3398.47
3388.05
3379.04
3371.44
3365.23
3360.37
3356.86
3354.65
3353.72
3354.03
3355.54
3358.21
3361.99
3366.84
3372.71
3379.57
3387.35
3396.02
3405.55
3415.92
3427.1
3439.08
3451.84
3465.39
3479.71
3494.81
3510.68
3527.32
3544.73
3562.92
3581.87
3601.57
3622
3643.15
3664.96
3687.4
3710.4
3733.9
3757.82
3782.04
3806.41
3830.8
3855.06
3879
3902.43
3925.14
3946.91
3967.5
3986.7
4004.27
4019.98
4033.63
4045.02
4053.98
4060.35
4064.03
4064.92
4062.97
4058.12
4050.48
4040.09
4027
4011.36
3993.35
3973.16
3951.02
3927.16
3901.86
3875.38
3848.01
3820.03
3791.73
3763.36
3735.18
3707.45
3680.38
3654.16
3628.96
3604.9
3582.1
3560.62
3540.51
3521.81
3504.52
3488.61
3474.05
3460.81
3448.8
3437.98
3428.28
3419.62
3411.94
3405.2
3399.34
3394.33
3390.14
3386.75
3384.15
3382.34
3381.33
3381.11
3381.71
3383.16
3385.48
3388.67
3392.78
3397.86
3403.94
3411.07
3419.29
3428.63
3439.14
3450.83
3463.73
3477.85
3493.17
3509.7
3527.41
3546.25
3566.18
3587.13
3609.03
3631.78
3655.27
3679.39
3703.98
3728.9
3753.94
3778.04
3802.5
3826.19
3848.7
3869.32
3324.58
3312.68
3302.06
3292.68
3284.51
3277.51
3271.61
3266.78
3262.95
3260.1
3258.17
3257.13
3256.96
3257.63
3259.13
3261.43
3264.57
3268.53
3273.33
3279
3285.55
3293.02
3301.44
3310.85
3321.28
3332.79
3345.41
3359.17
3374.12
3390.27
3407.64
3426.25
3446.08
3467.12
3489.34
3512.68
3537.05
3562.37
3588.52
3615.37
3642.76
3670.85
3698.91
3726.9
3754.55
3781.68
3808.01
3833.31
3857.29
3879.73
3900.36
3918.96
3935.38
3949.43
3960.99
3969.94
3976.19
3979.72
3980.48
3978.51
3973.83
3966.48
3956.63
3944.35
3929.74
3912.97
3894.2
3873.62
3851.4
3827.74
3802.83
3776.88
3750.11
3722.7
3694.86
3666.78
3638.64
3610.59
3582.8
3555.41
3531.26
3505.51
3480.67
3456.88
3434.2
3412.72
3392.5
3373.61
3356.08
3339.96
3325.24
3311.96
3300.12
3289.69
3280.69
3273.1
3266.89
3262.04
3258.53
3256.33
3255.41
3255.72
3257.24
3259.92
3263.71
3268.56
3274.44
3281.31
3289.1
3297.77
3307.31
3317.68
3328.86
3340.84
3353.6
3367.15
3381.47
3396.56
3412.42
3429.06
3446.47
3464.66
3483.6
3503.3
3523.73
3544.87
3566.68
3589.13
3612.14
3635.65
3659.58
3683.81
3708.21
3732.63
3756.91
3780.89
3804.36
3827.11
3848.93
3869.57
3888.81
3906.43
3922.18
3935.87
3947.3
3956.29
3962.7
3966.39
3967.3
3965.35
3960.5
3952.85
3942.43
3929.31
3913.64
3895.59
3875.36
3853.16
3829.25
3803.89
3777.36
3749.94
3721.91
3693.55
3665.14
3636.92
3609.16
3582.05
3555.8
3530.59
3506.52
3483.7
3462.22
3442.12
3423.42
3406.14
3390.24
3375.7
3362.46
3350.48
3339.67
3329.98
3321.33
3313.67
3306.94
3301.09
3296.09
3291.9
3288.51
3285.92
3284.11
3283.1
3282.88
3283.47
3284.92
3287.23
3290.41
3294.52
3299.59
3305.66
3312.78
3320.99
3330.33
3340.83
3352.52
3365.42
3379.53
3394.85
3411.38
3429.09
3447.94
3467.87
3488.83
3510.73
3533.5
3557
3581.14
3605.76
3630.71
3655.8
3679.93
3704.5
3728.26
3750.8
3771.67
3226.14
3214.26
3203.65
3194.29
3186.14
3179.14
3173.26
3168.44
3164.63
3161.78
3159.86
3158.84
3158.67
3159.34
3160.84
3163.15
3166.28
3170.24
3175.03
3180.7
3187.24
3194.71
3203.11
3212.51
3222.93
3234.43
3247.03
3260.79
3275.72
3291.87
3309.24
3327.84
3347.67
3368.71
3390.94
3414.28
3438.67
3464.01
3490.17
3517.05
3544.48
3572.59
3600.7
3628.74
3656.44
3683.63
3710.02
3735.38
3759.43
3781.92
3802.61
3821.27
3837.73
3851.83
3863.42
3872.4
3878.68
3882.22
3882.99
3881.01
3876.31
3868.96
3859.07
3846.75
3832.1
3815.28
3796.47
3775.83
3753.56
3729.84
3704.87
3678.87
3652.04
3624.58
3596.7
3568.58
3540.39
3512.32
3484.52
3457.15
3432.8
3407.08
3382.25
3358.44
3335.75
3314.27
3294.05
3275.16
3257.63
3241.5
3226.79
3213.51
3201.67
3191.25
3182.26
3174.67
3168.47
3163.63
3160.13
3157.94
3157.03
3157.35
3158.88
3161.56
3165.37
3170.23
3176.13
3183
3190.8
3199.48
3209.02
3219.39
3230.58
3242.56
3255.32
3268.86
3283.17
3298.26
3314.12
3330.76
3348.16
3366.34
3385.27
3404.97
3425.39
3446.54
3468.35
3490.8
3513.82
3537.35
3561.3
3585.55
3609.97
3634.43
3658.76
3682.78
3706.3
3729.11
3750.98
3771.69
3791
3808.67
3824.49
3838.24
3849.71
3858.75
3865.19
3868.91
3869.83
3867.88
3863.04
3855.37
3844.92
3831.76
3816.05
3797.94
3777.64
3755.38
3731.4
3705.97
3679.37
3651.87
3623.78
3595.35
3566.88
3538.61
3510.79
3483.65
3457.37
3432.13
3408.04
3385.21
3363.73
3343.63
3324.94
3307.66
3291.78
3277.25
3264.04
3252.07
3241.29
3231.61
3222.99
3215.34
3208.63
3202.79
3197.8
3193.61
3190.23
3187.63
3185.83
3184.81
3184.59
3185.19
3186.63
3188.92
3192.1
3196.2
3201.26
3207.32
3214.43
3222.63
3231.96
3242.45
3254.14
3267.03
3281.14
3296.46
3312.99
3330.7
3349.55
3369.49
3390.46
3412.38
3435.16
3458.68
3482.84
3507.49
3532.49
3557.67
3581.79
3606.51
3630.36
3653.15
3674.23
3127.62
3115.75
3105.16
3095.82
3087.69
3080.71
3074.85
3070.04
3066.25
3063.42
3061.51
3060.49
3060.33
3061.01
3062.51
3064.82
3067.95
3071.9
3076.69
3082.35
3088.88
3096.33
3104.73
3114.11
3124.52
3136
3148.59
3162.33
3177.26
3193.39
3210.75
3229.35
3249.18
3270.22
3292.45
3315.81
3340.21
3365.57
3391.77
3418.68
3446.15
3474.3
3502.46
3530.56
3558.33
3585.59
3612.05
3637.49
3661.61
3684.19
3704.95
3723.68
3740.2
3754.36
3765.99
3775.01
3781.32
3784.87
3785.65
3783.66
3778.95
3771.57
3761.65
3749.27
3734.57
3717.7
3698.82
3678.11
3655.77
3631.98
3606.94
3580.87
3553.98
3526.46
3498.52
3470.34
3442.11
3414
3386.18
3358.83
3334.27
3308.57
3283.73
3259.92
3237.22
3215.73
3195.51
3176.61
3159.08
3142.96
3128.25
3114.98
3103.14
3092.73
3083.74
3076.17
3069.97
3065.14
3061.65
3059.47
3058.57
3058.91
3060.45
3063.15
3066.96
3071.85
3077.76
3084.64
3092.44
3101.13
3110.68
3121.06
3132.25
3144.23
3156.99
3170.53
3184.83
3199.92
3215.77
3232.4
3249.79
3267.96
3286.89
3306.58
3327
3348.15
3369.96
3392.42
3415.45
3438.99
3462.96
3487.25
3511.71
3536.21
3560.59
3584.67
3608.26
3631.14
3653.08
3673.87
3693.25
3711
3726.89
3740.71
3752.26
3761.34
3767.83
3771.58
3772.52
3770.58
3765.73
3758.04
3747.55
3734.35
3718.58
3700.4
3680.03
3657.68
3633.62
3608.09
3581.4
3553.82
3525.63
3497.13
3468.58
3440.24
3412.36
3385.17
3358.84
3333.58
3309.47
3286.63
3265.13
3245.04
3226.35
3209.09
3193.23
3178.72
3165.53
3153.59
3142.83
3133.18
3124.58
3116.96
3110.26
3104.44
3099.45
3095.28
3091.9
3089.31
3087.5
3086.49
3086.26
3086.86
3088.29
3090.57
3093.74
3097.83
3102.88
3108.93
3116.02
3124.21
3133.52
3144.01
3155.68
3168.56
3182.67
3197.99
3214.52
3232.23
3251.09
3271.04
3292.03
3313.96
3336.76
3360.3
3384.5
3409.19
3434.23
3459.52
3483.65
3508.54
3532.51
3555.53
3576.86
3029.01
3017.17
3006.6
2997.28
2989.17
2982.22
2976.38
2971.59
2967.81
2965
2963.1
2962.09
2961.94
2962.63
2964.13
2966.44
2969.57
2973.52
2978.3
2983.95
2990.47
2997.91
3006.29
3015.66
3026.04
3037.51
3050.08
3063.81
3078.71
3094.84
3112.19
3130.78
3150.6
3171.65
3193.89
3217.26
3241.68
3267.07
3293.3
3320.26
3347.77
3375.97
3404.2
3432.37
3460.21
3487.56
3514.11
3539.65
3563.86
3586.52
3607.38
3626.18
3642.79
3657
3668.7
3677.76
3684.1
3687.68
3688.46
3686.47
3681.73
3674.33
3664.36
3651.93
3637.16
3620.22
3601.26
3580.47
3558.05
3534.18
3509.05
3482.9
3455.92
3428.33
3400.32
3372.08
3343.79
3315.64
3287.79
3260.45
3235.66
3209.98
3185.14
3161.32
3138.61
3117.11
3096.87
3077.98
3060.45
3044.32
3029.62
3016.35
3004.52
2994.12
2985.15
2977.58
2971.39
2966.58
2963.1
2960.93
2960.04
2960.4
2961.95
2964.67
2968.5
2973.4
2979.33
2986.22
2994.04
3002.74
3012.3
3022.68
3033.87
3045.85
3058.61
3072.14
3086.45
3101.52
3117.37
3133.98
3151.37
3169.53
3188.45
3208.13
3228.55
3249.69
3271.51
3293.97
3317.02
3340.58
3364.58
3388.9
3413.41
3437.96
3462.4
3486.55
3510.22
3533.18
3555.22
3576.1
3595.58
3613.42
3629.4
3643.31
3654.92
3664.08
3670.62
3674.41
3675.37
3673.44
3668.59
3660.87
3650.34
3637.08
3621.23
3602.98
3582.51
3560.06
3535.89
3510.26
3483.46
3455.77
3427.48
3398.88
3370.24
3341.82
3313.87
3286.61
3260.24
3234.93
3210.8
3187.94
3166.44
3146.34
3127.67
3110.43
3094.58
3080.11
3066.94
3055.03
3044.3
3034.69
3026.11
3018.52
3011.84
3006.03
3001.06
2996.9
2993.53
2990.94
2989.13
2988.11
2987.88
2988.48
2989.9
2992.17
2995.33
2999.4
3004.44
3010.47
3017.55
3025.72
3035.02
3045.49
3057.15
3070.03
3084.13
3099.45
3115.98
3133.69
3152.56
3172.52
3193.52
3215.47
3238.29
3261.87
3286.1
3310.83
3335.93
3361.3
3385.54
3410.58
3434.69
3457.98
3479.58
2930.32
2918.5
2907.96
2898.67
2890.58
2883.66
2877.84
2873.08
2869.32
2866.52
2864.64
2863.65
2863.51
2864.2
2865.71
2868.02
2871.15
2875.09
2879.86
2885.5
2892
2899.43
2907.79
2917.14
2927.51
2938.95
2951.5
2965.21
2980.1
2996.21
3013.54
3032.13
3051.95
3073
3095.25
3118.63
3143.08
3168.5
3194.77
3221.78
3249.35
3277.59
3305.9
3334.16
3362.09
3389.54
3416.2
3441.84
3466.17
3488.94
3509.89
3528.8
3545.48
3559.78
3571.54
3580.65
3587.03
3590.63
3591.42
3589.42
3584.67
3577.22
3567.21
3554.71
3539.87
3522.84
3503.8
3482.91
3460.39
3436.42
3411.19
3384.94
3357.88
3330.2
3302.1
3273.79
3245.44
3217.23
3189.35
3161.99
3137
3111.32
3086.47
3062.63
3039.91
3018.39
2998.15
2979.25
2961.72
2945.6
2930.9
2917.64
2905.82
2895.43
2886.46
2878.91
2872.74
2867.93
2864.47
2862.32
2861.45
2861.82
2863.39
2866.13
2869.98
2874.9
2880.84
2887.76
2895.59
2904.3
2913.87
2924.26
2935.45
2947.43
2960.18
2973.72
2988.01
3003.08
3018.91
3035.52
3052.89
3071.05
3089.96
3109.63
3130.04
3151.18
3173
3195.47
3218.54
3242.12
3266.15
3290.51
3315.07
3339.68
3364.2
3388.43
3412.19
3435.25
3457.39
3478.38
3497.97
3515.93
3532.01
3546.01
3557.72
3566.96
3573.56
3577.4
3578.38
3576.46
3571.6
3563.85
3553.27
3539.95
3524.02
3505.66
3485.09
3462.53
3438.23
3412.47
3385.54
3357.73
3329.32
3300.6
3271.85
3243.34
3215.3
3187.97
3161.54
3136.2
3112.03
3089.15
3067.64
3047.55
3028.89
3011.67
2995.85
2981.4
2968.28
2956.4
2945.71
2936.13
2927.59
2920.02
2913.37
2907.58
2902.63
2898.47
2895.11
2892.52
2890.72
2889.69
2889.46
2890.05
2891.46
2893.72
2896.87
2900.92
2905.94
2911.95
2919.01
2927.16
2936.45
2946.9
2958.55
2971.42
2985.52
3000.83
3017.36
3035.08
3053.96
3073.93
3094.95
3116.92
3139.77
3163.38
3187.65
3212.44
3237.6
3263.03
3287.45
3312.63
3336.91
3360.46
3382.35
2831.54
2819.75
2809.24
2799.98
2791.93
2785.03
2779.24
2774.5
2770.77
2768
2766.14
2765.16
2765.03
2765.73
2767.24
2769.55
2772.68
2776.61
2781.38
2787
2793.49
2800.89
2809.23
2818.56
2828.91
2840.33
2852.85
2866.54
2881.41
2897.5
2914.82
2933.4
2953.22
2974.27
2996.53
3019.93
3044.41
3069.86
3096.18
3123.24
3150.88
3179.18
3207.58
3235.93
3263.97
3291.53
3318.31
3344.08
3368.53
3391.42
3412.49
3431.51
3448.3
3462.68
3474.52
3483.69
3490.12
3493.74
3494.54
3492.53
3487.75
3480.27
3470.19
3457.62
3442.69
3425.57
3406.42
3385.43
3362.79
3338.7
3313.36
3287.01
3259.84
3232.06
3203.87
3175.47
3147.04
3118.78
3090.84
3063.47
3038.27
3012.59
2987.72
2963.86
2941.12
2919.59
2899.34
2880.44
2862.9
2846.78
2832.09
2818.84
2807.03
2796.65
2787.7
2780.15
2774
2769.21
2765.77
2763.63
2762.78
2763.17
2764.77
2767.52
2771.4
2776.34
2782.31
2789.24
2797.09
2805.82
2815.39
2825.79
2836.98
2848.96
2861.71
2875.24
2889.53
2904.59
2920.41
2937
2954.37
2972.5
2991.4
3011.07
3031.48
3052.61
3074.44
3096.92
3119.99
3143.61
3167.67
3192.08
3216.7
3241.38
3265.98
3290.31
3314.17
3337.34
3359.61
3380.72
3400.44
3418.52
3434.73
3448.84
3460.65
3469.97
3476.64
3480.54
3481.56
3479.64
3474.78
3467
3456.36
3442.95
3426.93
3408.47
3387.77
3365.07
3340.63
3314.73
3287.65
3259.69
3231.14
3202.3
3173.43
3144.8
3116.67
3089.26
3062.76
3037.37
3013.17
2990.27
2968.75
2948.66
2930.02
2912.81
2897.03
2882.61
2869.52
2857.69
2847.04
2837.5
2829
2821.46
2814.84
2809.08
2804.14
2800
2796.64
2794.06
2792.26
2791.23
2791
2791.57
2792.97
2795.22
2798.35
2802.39
2807.38
2813.38
2820.41
2828.54
2837.81
2848.25
2859.88
2872.74
2886.83
2902.14
2918.67
2936.4
2955.28
2975.27
2996.31
3018.31
3041.19
3064.84
3089.15
3114
3139.22
3164.72
3189.35
3214.68
3239.15
3262.97
3285.17
2732.68
2720.92
2710.44
2701.22
2693.2
2686.34
2680.58
2675.87
2672.17
2669.42
2667.58
2666.61
2666.5
2667.21
2668.72
2671.04
2674.16
2678.09
2682.84
2688.45
2694.92
2702.31
2710.62
2719.92
2730.24
2741.64
2754.14
2767.8
2782.65
2798.72
2816.03
2834.59
2854.4
2875.46
2897.73
2921.16
2945.66
2971.16
2997.52
3024.64
3052.36
3080.73
3109.23
3137.69
3165.84
3193.53
3220.44
3246.35
3270.95
3293.98
3315.19
3334.32
3351.22
3365.71
3377.63
3386.87
3393.35
3397
3397.81
3395.8
3390.98
3383.45
3373.31
3360.65
3345.63
3328.4
3309.13
3288.02
3265.25
3241.04
3215.57
3189.09
3161.8
3133.91
3105.61
3077.12
3048.61
3020.27
2992.28
2964.87
2939.47
2913.78
2888.88
2865.01
2842.24
2820.7
2800.44
2781.53
2764
2747.88
2733.2
2719.95
2708.15
2697.79
2688.85
2681.32
2675.18
2670.41
2666.99
2664.87
2664.04
2664.45
2666.07
2668.86
2672.76
2677.73
2683.71
2690.67
2698.54
2707.28
2716.87
2727.27
2738.47
2750.45
2763.2
2776.72
2791
2806.05
2821.86
2838.44
2855.78
2873.91
2892.79
2912.45
2932.85
2953.98
2975.81
2998.3
3021.4
3045.04
3069.14
3093.61
3118.29
3143.05
3167.74
3192.18
3216.15
3239.46
3261.86
3283.11
3302.97
3321.19
3337.54
3351.78
3363.71
3373.13
3379.89
3383.84
3384.9
3382.99
3378.12
3370.29
3359.59
3346.1
3329.97
3311.38
3290.54
3267.69
3243.1
3217.03
3189.79
3161.67
3132.96
3103.96
3074.96
3046.21
3017.97
2990.46
2963.89
2938.45
2914.21
2891.28
2869.75
2849.67
2831.04
2813.86
2798.11
2783.74
2770.69
2758.91
2748.3
2738.81
2730.35
2722.85
2716.26
2710.53
2705.61
2701.48
2698.13
2695.56
2693.75
2692.72
2692.48
2693.05
2694.44
2696.68
2699.78
2703.8
2708.77
2714.74
2721.75
2729.86
2739.1
2749.52
2761.14
2773.99
2788.07
2803.37
2819.91
2837.64
2856.54
2876.54
2897.6
2919.63
2942.54
2966.23
2990.6
3015.51
3040.81
3066.4
3091.22
3116.73
3141.4
3165.5
3188.03
2633.73
2622.01
2611.57
2602.38
2594.4
2587.58
2581.86
2577.18
2573.51
2570.78
2568.97
2568.02
2567.92
2568.64
2570.16
2572.48
2575.6
2579.52
2584.26
2589.85
2596.3
2603.66
2611.95
2621.23
2631.52
2642.88
2655.35
2668.99
2683.81
2699.86
2717.15
2735.7
2755.51
2776.57
2798.85
2822.3
2846.84
2872.38
2898.8
2925.99
2953.78
2982.24
3010.85
3039.43
3067.71
3095.54
3122.6
3148.67
3173.42
3196.61
3217.97
3237.24
3254.27
3268.86
3280.88
3290.2
3296.73
3300.42
3301.24
3299.21
3294.37
3286.79
3276.57
3263.82
3248.69
3231.34
3211.94
3190.68
3167.78
3143.42
3117.81
3091.19
3063.77
3035.75
3007.34
2978.74
2950.13
2921.72
2893.66
2866.2
2840.62
2814.89
2789.97
2766.06
2743.28
2721.72
2701.45
2682.54
2665
2648.89
2634.21
2620.98
2609.19
2598.84
2589.92
2582.4
2576.29
2571.53
2568.13
2566.04
2565.23
2565.67
2567.31
2570.12
2574.06
2579.05
2585.07
2592.05
2599.94
2608.7
2618.3
2628.71
2639.91
2651.89
2664.64
2678.15
2692.42
2707.46
2723.25
2739.82
2757.15
2775.26
2794.13
2813.77
2834.16
2855.29
2877.12
2899.62
2922.74
2946.41
2970.56
2995.09
3019.84
3044.69
3069.49
3094.04
3118.15
3141.6
3164.15
3185.56
3205.58
3223.96
3240.46
3254.84
3266.9
3276.43
3283.28
3287.3
3288.4
3286.51
3281.62
3273.75
3262.98
3249.39
3233.14
3214.41
3193.42
3170.4
3145.62
3119.37
3091.95
3063.64
3034.76
3005.6
2976.44
2947.56
2919.2
2891.59
2864.92
2839.44
2815.14
2792.19
2770.65
2750.57
2731.97
2714.82
2699.1
2684.77
2671.78
2660.04
2649.49
2640.05
2631.64
2624.19
2617.63
2611.92
2607.03
2602.92
2599.58
2597.01
2595.2
2594.17
2593.93
2594.48
2595.86
2598.08
2601.17
2605.16
2610.11
2616.04
2623.03
2631.11
2640.33
2650.73
2662.33
2675.16
2689.23
2704.53
2721.07
2738.81
2757.72
2777.74
2798.82
2820.88
2843.83
2867.57
2891.99
2916.97
2942.35
2968.05
2993.06
3018.77
3043.67
3068.04
3090.92
2534.7
2523.02
2512.62
2503.48
2495.54
2488.76
2483.07
2478.44
2474.79
2472.1
2470.31
2469.39
2469.3
2470.03
2471.56
2473.88
2476.99
2480.9
2485.63
2491.2
2497.63
2504.97
2513.23
2522.47
2532.73
2544.06
2556.49
2570.1
2584.9
2600.92
2618.19
2636.73
2656.53
2677.6
2699.9
2723.37
2747.94
2773.53
2800.01
2827.27
2855.15
2883.71
2912.44
2941.15
2969.57
2997.56
3024.79
3051.03
3075.95
3099.31
3120.83
3140.26
3157.42
3172.14
3184.26
3193.67
3200.26
3203.99
3204.83
3202.78
3197.91
3190.26
3179.96
3167.11
3151.86
3134.38
3114.83
3093.43
3070.37
3045.85
3020.08
2993.31
2965.74
2937.58
2909.04
2880.32
2851.62
2823.11
2794.98
2767.46
2741.7
2715.93
2690.97
2667.04
2644.23
2622.66
2602.37
2583.45
2565.91
2549.81
2535.14
2521.91
2510.14
2499.8
2490.9
2483.41
2477.31
2472.58
2469.2
2467.13
2466.35
2466.81
2468.49
2471.33
2475.29
2480.32
2486.37
2493.38
2501.29
2510.07
2519.68
2530.1
2541.31
2553.29
2566.03
2579.54
2593.8
2608.82
2624.6
2641.14
2658.46
2676.55
2695.4
2715.03
2735.41
2756.54
2778.37
2800.88
2824.02
2847.73
2871.93
2896.52
2921.36
2946.3
2971.21
2995.89
3020.15
3043.75
3066.47
3088.05
3108.25
3126.81
3143.47
3158.02
3170.22
3179.88
3186.82
3190.92
3192.06
3190.19
3185.28
3177.37
3166.52
3152.83
3136.44
3117.56
3096.39
3073.18
3048.21
3021.76
2994.13
2965.63
2936.56
2907.21
2877.89
2848.85
2820.36
2792.63
2765.87
2740.33
2715.98
2693
2671.45
2651.38
2632.79
2615.67
2600
2585.72
2572.78
2561.1
2550.61
2541.23
2532.87
2525.46
2518.95
2513.27
2508.4
2504.31
2500.98
2498.41
2496.61
2495.58
2495.32
2495.87
2497.23
2499.43
2502.5
2506.47
2511.38
2517.29
2524.24
2532.29
2541.48
2551.86
2563.44
2576.26
2590.32
2605.62
2622.16
2639.9
2658.82
2678.87
2699.98
2722.07
2745.06
2768.85
2793.33
2818.38
2843.85
2869.67
2894.87
2920.8
2945.95
2970.6
2993.82
2435.58
2423.94
2413.59
2404.49
2396.6
2389.87
2384.23
2379.63
2376.02
2373.36
2371.6
2370.7
2370.63
2371.37
2372.91
2375.23
2378.34
2382.24
2386.95
2392.5
2398.91
2406.22
2414.45
2423.66
2433.88
2445.17
2457.57
2471.14
2485.91
2501.91
2519.16
2537.68
2557.48
2578.54
2600.86
2624.36
2648.97
2674.61
2701.16
2728.5
2756.46
2785.14
2813.99
2842.84
2871.42
2899.58
2926.99
2953.42
2978.54
3002.09
3023.79
3043.38
3060.7
3075.55
3087.78
3097.28
3103.94
3107.71
3108.57
3106.51
3101.59
3093.89
3083.49
3070.53
3055.15
3037.52
3017.82
2996.25
2973.01
2948.32
2922.39
2895.45
2867.71
2839.41
2810.73
2781.88
2753.06
2724.45
2696.23
2668.65
2642.71
2616.89
2591.9
2567.93
2545.09
2523.5
2503.2
2484.27
2466.74
2450.63
2435.97
2422.76
2411
2400.68
2391.8
2384.33
2378.25
2373.55
2370.19
2368.15
2367.39
2367.89
2369.6
2372.47
2376.47
2381.53
2387.61
2394.66
2402.59
2411.39
2421.02
2431.45
2442.66
2454.64
2467.38
2480.87
2495.12
2510.13
2525.89
2542.42
2559.71
2577.78
2596.62
2616.23
2636.61
2657.73
2679.56
2702.09
2725.25
2748.99
2773.24
2797.91
2822.83
2847.88
2872.91
2897.74
2922.15
2945.93
2968.83
2990.6
3010.99
3029.74
3046.59
3061.31
3073.67
3083.47
3090.52
3094.7
3095.89
3094.04
3089.11
3081.15
3070.21
3056.4
3039.88
3020.82
2999.46
2976.05
2950.86
2924.19
2896.34
2867.62
2838.33
2808.79
2779.28
2750.08
2721.44
2693.59
2666.72
2641.13
2616.72
2593.7
2572.14
2552.08
2533.51
2516.43
2500.8
2486.58
2473.7
2462.09
2451.66
2442.34
2434.04
2426.69
2420.21
2414.58
2409.73
2405.65
2402.34
2399.77
2397.97
2396.94
2396.68
2397.21
2398.56
2400.74
2403.78
2407.72
2412.6
2418.47
2425.39
2433.41
2442.57
2452.92
2464.48
2477.28
2491.33
2506.63
2523.16
2540.92
2559.85
2579.92
2601.06
2623.19
2646.23
2670.07
2694.61
2719.74
2745.31
2771.27
2796.65
2822.82
2848.22
2873.17
2896.73
2336.38
2324.79
2314.49
2305.44
2297.6
2290.91
2285.32
2280.77
2277.2
2274.57
2272.84
2271.96
2271.92
2272.67
2274.21
2276.54
2279.64
2283.53
2288.22
2293.75
2300.14
2307.41
2315.61
2324.78
2334.96
2346.21
2358.58
2372.11
2386.84
2402.82
2420.04
2438.55
2458.34
2479.41
2501.74
2525.27
2549.92
2575.62
2602.24
2629.66
2657.73
2686.52
2715.52
2744.52
2773.26
2801.61
2829.22
2855.86
2881.19
2904.94
2926.84
2946.61
2964.09
2979.09
2991.45
3001.04
3007.78
3011.6
3012.47
3010.4
3005.43
2997.66
2987.16
2974.08
2958.56
2940.77
2920.9
2899.14
2875.72
2850.84
2824.72
2797.6
2769.69
2741.22
2712.39
2683.4
2654.45
2625.73
2597.42
2569.76
2543.66
2517.78
2492.74
2468.73
2445.86
2424.25
2403.94
2385
2367.47
2351.37
2336.72
2323.52
2311.78
2301.48
2292.62
2285.17
2279.11
2274.43
2271.1
2269.09
2268.37
2268.9
2270.64
2273.55
2277.58
2282.68
2288.8
2295.87
2303.84
2312.66
2322.31
2332.75
2343.97
2355.95
2368.68
2382.17
2396.4
2411.39
2427.14
2443.64
2460.91
2478.96
2497.78
2517.38
2537.74
2558.85
2580.69
2603.22
2626.41
2650.19
2674.5
2699.25
2724.26
2749.43
2774.6
2799.57
2824.16
2848.12
2871.22
2893.21
2913.81
2932.76
2949.82
2964.73
2977.26
2987.2
2994.38
2998.64
2999.89
2998.05
2993.11
2985.09
2974.06
2960.12
2943.44
2924.2
2902.63
2879
2853.58
2826.66
2798.57
2769.61
2740.1
2710.34
2680.63
2651.25
2622.45
2594.46
2567.47
2541.83
2517.35
2494.3
2472.73
2452.67
2434.13
2417.09
2401.52
2387.35
2374.54
2363
2352.64
2343.39
2335.15
2327.85
2321.43
2315.83
2311.01
2306.96
2303.65
2301.09
2299.29
2298.25
2297.98
2298.51
2299.83
2301.99
2305.01
2308.92
2313.76
2319.6
2326.48
2334.46
2343.59
2353.91
2365.45
2378.23
2392.27
2407.56
2424.1
2441.86
2460.81
2480.9
2502.07
2524.24
2547.33
2571.23
2595.84
2621.06
2646.71
2672.78
2698.44
2724.82
2750.48
2775.74
2799.64
2237.09
2225.55
2215.3
2206.31
2198.53
2191.89
2186.35
2181.85
2178.32
2175.73
2174.03
2173.18
2173.15
2173.92
2175.47
2177.8
2180.9
2184.78
2189.45
2194.96
2201.31
2208.56
2216.71
2225.85
2235.98
2247.19
2259.51
2273.01
2287.7
2303.65
2320.85
2339.34
2359.11
2380.19
2402.53
2426.1
2450.8
2476.55
2503.25
2530.77
2558.95
2587.85
2617
2646.17
2675.09
2703.64
2731.47
2758.34
2783.89
2807.87
2829.97
2849.94
2867.6
2882.75
2895.25
2904.95
2911.77
2915.64
2916.52
2914.44
2909.43
2901.57
2890.98
2877.76
2862.09
2844.12
2824.07
2802.11
2778.49
2753.41
2727.08
2699.76
2671.67
2643.02
2614.02
2584.88
2555.8
2526.96
2498.55
2470.8
2444.54
2418.59
2393.5
2369.45
2346.55
2324.91
2304.59
2285.64
2268.11
2252.01
2237.37
2224.19
2212.47
2202.19
2193.35
2185.92
2179.9
2175.24
2171.94
2169.96
2169.27
2169.83
2171.61
2174.57
2178.64
2183.78
2189.93
2197.05
2205.04
2213.89
2223.56
2234.01
2245.23
2257.21
2269.94
2283.41
2297.63
2312.61
2328.33
2344.81
2362.06
2380.09
2398.88
2418.46
2438.81
2459.91
2481.75
2504.3
2527.51
2551.34
2575.71
2600.54
2625.65
2650.94
2676.25
2701.4
2726.17
2750.33
2773.65
2795.86
2816.69
2835.87
2853.14
2868.26
2880.97
2891.08
2898.39
2902.75
2904.06
2902.24
2897.28
2889.2
2878.06
2863.99
2847.14
2827.7
2805.91
2782.03
2756.35
2729.18
2700.82
2671.6
2641.84
2611.85
2581.92
2552.35
2523.38
2495.25
2468.12
2442.44
2417.87
2394.79
2373.2
2353.16
2334.65
2317.66
2302.13
2288.03
2275.29
2263.83
2253.55
2244.37
2236.2
2228.97
2222.6
2217.03
2212.25
2208.21
2204.92
2202.37
2200.56
2199.52
2199.24
2199.76
2201.06
2203.2
2206.19
2210.06
2214.87
2220.67
2227.51
2235.45
2244.54
2254.83
2266.35
2279.11
2293.13
2308.42
2324.95
2342.72
2361.69
2381.81
2403.01
2425.22
2448.36
2472.32
2497.01
2522.31
2548.07
2574.24
2600.2
2626.79
2652.72
2678.31
2702.53
2137.71
2126.23
2116.04
2107.11
2099.38
2092.81
2087.32
2082.87
2079.39
2076.84
2075.17
2074.35
2074.35
2075.13
2076.69
2079.02
2082.11
2085.98
2090.63
2096.11
2102.44
2109.64
2117.76
2126.85
2136.94
2148.1
2160.38
2173.83
2188.49
2204.4
2221.57
2240.04
2259.81
2280.88
2303.25
2326.84
2351.59
2377.41
2404.19
2431.81
2460.11
2489.13
2518.46
2547.8
2576.91
2605.67
2633.73
2660.85
2686.65
2710.86
2733.2
2753.37
2771.22
2786.55
2799.19
2809.01
2815.92
2819.84
2820.74
2818.64
2813.58
2805.64
2794.93
2781.57
2765.73
2747.58
2727.32
2705.16
2681.32
2656.02
2629.47
2601.94
2573.65
2544.81
2515.63
2486.33
2457.1
2428.13
2399.61
2371.77
2345.34
2319.33
2294.17
2270.08
2247.14
2225.48
2205.14
2186.19
2168.65
2152.57
2137.94
2124.77
2113.07
2102.81
2094
2086.6
2080.6
2075.97
2072.7
2070.76
2070.1
2070.7
2072.52
2075.52
2079.63
2084.82
2091.01
2098.17
2106.2
2115.07
2124.76
2135.22
2146.45
2158.43
2171.15
2184.61
2198.82
2213.77
2229.47
2245.93
2263.15
2281.15
2299.93
2319.48
2339.81
2360.91
2382.75
2405.31
2428.55
2452.42
2476.86
2501.78
2527
2552.42
2577.89
2603.21
2628.18
2652.56
2676.11
2698.56
2719.64
2739.06
2756.57
2771.91
2784.83
2795.11
2802.56
2807.03
2808.4
2806.6
2801.62
2793.47
2782.23
2768.01
2750.97
2731.31
2709.28
2685.14
2659.19
2631.73
2603.1
2573.6
2543.57
2513.33
2483.17
2453.38
2424.23
2395.95
2368.72
2342.9
2318.29
2295.17
2273.57
2253.54
2235.06
2218.12
2202.66
2188.63
2175.96
2164.58
2154.39
2145.29
2137.2
2130.03
2123.71
2118.19
2113.44
2109.43
2106.15
2103.6
2101.8
2100.75
2100.46
2100.96
2102.25
2104.36
2107.32
2111.15
2115.92
2121.67
2128.47
2136.37
2145.42
2155.68
2167.17
2179.91
2193.92
2209.19
2225.73
2243.51
2262.5
2282.64
2303.88
2326.14
2349.33
2373.36
2398.12
2423.52
2449.38
2475.67
2501.91
2528.73
2554.94
2580.86
2605.41
2038.25
2026.83
2016.7
2007.84
2000.17
1993.66
1988.23
1983.83
1980.4
1977.89
1976.27
1975.48
1975.49
1976.3
1977.86
1980.19
1983.28
1987.13
1991.77
1997.22
2003.51
2010.68
2018.76
2027.8
2037.84
2048.95
2061.17
2074.58
2089.2
2105.07
2122.21
2140.66
2160.42
2181.49
2203.88
2227.51
2252.31
2278.2
2305.06
2332.78
2361.21
2390.37
2419.87
2449.4
2478.72
2507.71
2536.02
2563.4
2589.46
2613.93
2636.51
2656.91
2674.97
2690.47
2703.27
2713.22
2720.22
2724.2
2725.12
2723
2717.89
2709.85
2699.02
2685.51
2669.49
2651.14
2630.67
2608.28
2584.2
2558.67
2531.89
2504.14
2475.63
2446.58
2417.22
2387.74
2358.35
2329.25
2300.61
2272.66
2246.08
2219.98
2194.76
2170.62
2147.65
2125.95
2105.6
2086.64
2069.11
2053.03
2038.41
2025.27
2013.58
2003.35
1994.56
1987.19
1981.22
1976.63
1973.39
1971.48
1970.86
1971.5
1973.36