/*--------------------------------*- C++ -*----------------------------------*\
| =========                 |                                                 |
| \\      /  F ield         | OpenFOAM: The Open Source CFD Toolbox           |
|  \\    /   O peration     | Version:  3.0.1                                 |
|   \\  /    A nd           | Web:      www.OpenFOAM.org                      |
|    \\/     M anipulation  |                                                 |
\*---------------------------------------------------------------------------*/
FoamFile
{
    version     2.0;
    format      ascii;
    class       volScalarField;
    location    "36.6";
    object      p;
}
// * * * * * * * * * * * * * * * * * * * * * * * * * * * * * * * * * * * * * //

dimensions      [1 -1 -2 0 0 0 0];

internalField   nonuniform List<scalar> 
21420
(
4322.78
4318.68
4310.87
4299.47
4284.63
4266.56
4245.5
4221.75
4195.58
4167.38
4137.49
4106.27
4074.14
4041.45
4008.56
3975.82
3943.52
3911.97
3881.44
3852.32
3826.81
3800.71
3775.91
3752.66
3731.07
3711.15
3692.87
3676.23
3661.17
3647.64
3635.59
3624.97
3615.72
3607.8
3601.15
3595.75
3591.57
3588.59
3586.83
3586.3
3587.01
3588.97
3592.25
3596.89
3602.94
3610.48
3619.57
3630.3
3642.73
3656.94
3672.98
3690.9
3710.71
3732.41
3756
3781.43
3808.66
3836.21
3865.79
3896.48
3928.18
3960.55
3993.25
4025.98
4058.36
4090
4120.55
4149.63
4176.87
4201.9
4224.38
4244.01
4260.52
4273.65
4283.18
4288.76
4290.52
4288.54
4282.84
4273.25
4259.87
4242.84
4222.37
4198.72
4172.22
4143.22
4112.14
4079.38
4045.36
4010.53
3975.28
3940.06
3905.21
3871.04
3836.96
3805.16
3774.87
3746.26
3719.45
3694.57
3671.65
3650.73
3631.78
3614.79
3599.69
3586.41
3574.88
3565.03
3556.79
3550.09
3544.88
3541.09
3538.71
3537.72
3538.07
3539.76
3542.8
3547.2
3552.98
3560.17
3568.8
3578.91
3590.54
3603.73
3618.51
3634.92
3652.97
3672.67
3694.02
3717
3741.59
3767.7
3795.26
3824.2
3854.25
3885.27
3917.01
3949.21
3981.54
4013.65
4045.16
4075.67
4104.75
4131.99
4156.98
4179.3
4198.59
4214.51
4226.78
4235.17
4239.49
4239.67
4235.7
4227.65
4215.57
4199.68
4180.22
4157.5
4131.85
4103.66
4073.36
4041.39
4008.19
3974.21
3939.89
3905.65
3871.86
3838.96
3807.11
3776.62
3747.68
3720.45
3694.99
3671.37
3649.59
3629.65
3611.52
3595.15
3580.5
3567.52
3556.16
3546.35
3538.06
3531.24
3525.82
3521.76
3519.03
3517.61
3517.43
3518.48
3520.77
3524.29
3529.05
3535.08
3542.39
3551.04
3561.06
3572.49
3585.39
3599.81
3615.79
3633.37
3652.58
3673.43
3695.91
3719.99
3745.63
3772.75
3801.22
3830.89
3861.55
3892.97
3924.87
3956.92
3988.75
4019.97
4050.16
4078.9
4105.74
4130.25
4152.03
4170.71
4185.95
4197.48
4205.09
4208.57
4207.97
4203.23
4194.45
4181.75
4165.39
4145.63
4122.81
4097.3
4069.51
4039.86
4008.78
3976.71
3944.05
3911.2
3878.54
3846.4
3815.06
3784.78
3755.77
3728.17
3702.12
3677.69
3654.92
3633.84
3614.44
3596.71
3580.62
3566.14
3553.22
3541.82
3531.91
3523.45
3516.39
3510.7
3506.35
3503.32
3501.63
3501.2
3502.06
3504.23
3507.72
3512.55
3518.74
3526.34
3535.39
3545.97
3558.15
3572.01
3587.64
3605.1
3624.39
3645.62
3668.61
3693.13
3718.26
3743.24
3783.21
3816.72
3852.92
3890.17
3927.93
3965.96
4003.78
4041
4077.13
4111.68
4144.17
4174.1
4201
4224.5
4244.21
4259.81
4271.03
4277.88
4280.58
4279.14
4273.38
4263.64
4250.15
4233.14
4212.94
4189.85
4164.27
4136.54
4107.06
4076.28
4044.53
4012.21
3979.71
3947.33
3915.42
3884.2
3854.6
3826.34
3798.8
3772.4
3747.39
3723.89
3701.99
3681.73
3663.12
3646.17
3630.88
3617.24
3605.24
3594.87
3586.13
3579
3573.49
3569.57
3567.26
3566.59
3567.5
3570.02
3574.13
3579.8
3587
3595.72
3605.94
3617.66
3630.85
3645.5
3661.6
3679.12
3698.04
3718.35
3740.01
3762.99
3787.2
3811.82
3818
4224.84
4220.72
4212.91
4201.5
4186.65
4168.56
4147.5
4123.72
4097.54
4069.32
4039.41
4008.18
3976.03
3943.33
3910.43
3877.67
3845.37
3813.81
3783.26
3754.13
3728.66
3702.54
3677.73
3654.49
3632.89
3612.97
3594.7
3578.06
3563
3549.48
3537.43
3526.82
3517.57
3509.65
3503
3497.6
3493.42
3490.44
3488.68
3488.15
3488.86
3490.82
3494.1
3498.73
3504.78
3512.31
3521.41
3532.13
3544.55
3558.76
3574.8
3592.71
3612.52
3634.22
3657.81
3683.25
3710.46
3738.05
3767.62
3798.32
3830.03
3862.41
3895.12
3927.87
3960.26
3991.92
4022.49
4051.59
4078.84
4103.88
4126.38
4146.03
4162.55
4175.69
4185.23
4190.81
4192.58
4190.6
4184.89
4175.3
4161.91
4144.87
4124.39
4100.72
4074.2
4045.19
4014.09
3981.31
3947.27
3912.42
3877.16
3841.92
3807.05
3772.87
3738.79
3706.98
3676.69
3648.07
3621.26
3596.38
3573.46
3552.54
3533.6
3516.61
3501.51
3488.23
3476.71
3466.86
3458.63
3451.93
3446.72
3442.94
3440.56
3439.57
3439.92
3441.61
3444.64
3449.04
3454.82
3462.01
3470.63
3480.74
3492.38
3505.56
3520.34
3536.75
3554.79
3574.49
3595.84
3618.83
3643.41
3669.53
3697.09
3726.03
3756.09
3787.12
3818.87
3851.08
3883.42
3915.55
3947.07
3977.6
4006.7
4033.96
4058.97
4081.31
4100.62
4116.55
4128.83
4137.23
4141.55
4141.73
4137.75
4129.7
4117.61
4101.71
4082.24
4059.49
4033.82
4005.62
3975.3
3943.3
3910.09
3876.09
3841.76
3807.5
3773.7
3740.79
3708.93
3678.43
3649.5
3622.26
3596.81
3573.19
3551.41
3531.47
3513.34
3496.98
3482.33
3469.35
3457.99
3448.19
3439.9
3433.08
3427.67
3423.61
3420.88
3419.46
3419.28
3420.33
3422.62
3426.14
3430.9
3436.93
3444.24
3452.88
3462.9
3474.33
3487.23
3501.64
3517.62
3535.2
3554.4
3575.25
3597.73
3621.82
3647.46
3674.57
3703.05
3732.73
3763.4
3794.83
3826.74
3858.8
3890.65
3921.89
3952.1
3980.85
4007.71
4032.24
4054.04
4072.74
4087.99
4099.53
4107.15
4110.64
4110.03
4105.28
4096.49
4083.79
4067.41
4047.63
4024.79
3999.27
3971.46
3941.79
3910.69
3878.6
3845.93
3813.07
3780.39
3748.24
3716.9
3686.61
3657.59
3630
3603.95
3579.51
3556.75
3535.67
3516.27
3498.54
3482.45
3467.97
3455.05
3443.66
3433.75
3425.29
3418.23
3412.55
3408.19
3405.17
3403.48
3403.05
3403.91
3406.08
3409.57
3414.4
3420.59
3428.18
3437.23
3447.81
3459.98
3473.84
3489.47
3506.92
3526.21
3547.45
3570.44
3594.97
3620.13
3645.16
3684.96
3718.53
3754.77
3792.04
3829.81
3867.86
3905.69
3942.93
3979.08
4013.64
4046.15
4076.11
4103.03
4126.54
4146.26
4161.87
4173.11
4179.98
4182.65
4181.19
4175.43
4165.69
4152.19
4135.16
4114.94
4091.83
4066.24
4038.49
4008.99
3978.2
3946.43
3914.09
3881.58
3849.19
3817.27
3786.04
3756.44
3728.18
3700.62
3674.22
3649.21
3625.72
3603.82
3583.55
3564.95
3548
3532.71
3519.08
3507.08
3496.71
3487.96
3480.84
3475.32
3471.4
3469.1
3468.42
3469.34
3471.86
3475.97
3481.63
3488.84
3497.55
3507.78
3519.5
3532.69
3547.34
3563.44
3580.96
3599.88
3620.18
3641.84
3664.82
3689.03
3713.65
3719.91
4127.04
4122.91
4115.09
4103.66
4088.79
4070.68
4049.58
4025.78
3999.56
3971.31
3941.37
3910.1
3877.92
3845.19
3812.27
3779.49
3747.16
3715.58
3685.02
3655.84
3630.45
3604.3
3579.47
3556.23
3534.64
3514.72
3496.46
3479.82
3464.77
3451.25
3439.22
3428.6
3419.36
3411.44
3404.8
3399.41
3395.23
3392.25
3390.49
3389.96
3390.66
3392.62
3395.89
3400.52
3406.56
3414.09
3423.18
3433.89
3446.31
3460.51
3476.54
3494.45
3514.26
3535.95
3559.54
3584.97
3612.18
3639.83
3669.4
3700.1
3731.83
3764.23
3796.97
3829.74
3862.17
3893.86
3924.46
3953.59
3980.88
4005.96
4028.49
4048.16
4064.71
4077.87
4087.42
4093.02
4094.79
4092.83
4087.11
4077.5
4064.09
4047.03
4026.52
4002.82
3976.26
3947.21
3916.08
3883.26
3849.19
3814.3
3779.01
3743.74
3708.84
3674.64
3640.56
3608.72
3578.42
3549.79
3522.98
3498.1
3475.18
3454.27
3435.33
3418.35
3403.25
3389.99
3378.47
3368.63
3360.4
3353.71
3348.5
3344.72
3342.35
3341.36
3341.71
3343.4
3346.44
3350.83
3356.6
3363.79
3372.41
3382.52
3394.14
3407.32
3422.1
3438.5
3456.54
3476.24
3497.59
3520.57
3545.16
3571.28
3598.85
3627.8
3657.87
3688.91
3720.69
3752.92
3785.29
3817.44
3849
3879.57
3908.71
3936
3961.05
3983.42
4002.76
4018.73
4031.03
4039.44
4043.79
4043.95
4039.97
4031.9
4019.8
4003.87
3984.36
3961.58
3935.88
3907.63
3877.27
3845.24
3811.99
3777.96
3743.59
3709.3
3675.49
3642.55
3610.68
3580.17
3551.23
3523.99
3498.54
3474.92
3453.15
3433.22
3415.09
3398.74
3384.09
3371.12
3359.76
3349.97
3341.69
3334.87
3329.46
3325.4
3322.68
3321.26
3321.08
3322.13
3324.42
3327.94
3332.7
3338.72
3346.03
3354.67
3364.68
3376.1
3389
3403.41
3419.38
3436.95
3456.15
3477
3499.47
3523.56
3549.21
3576.33
3604.82
3634.5
3665.19
3696.65
3728.58
3760.67
3792.55
3823.82
3854.07
3882.87
3909.76
3934.33
3956.17
3974.89
3990.18
4001.74
4009.37
4012.88
4012.24
4007.49
3998.69
3985.96
3969.55
3949.74
3926.87
3901.3
3873.46
3843.75
3812.62
3780.49
3747.79
3714.9
3682.2
3650.03
3618.67
3588.37
3559.34
3531.75
3505.69
3481.26
3458.49
3437.42
3418.03
3400.3
3384.22
3369.74
3356.83
3345.44
3335.54
3327.08
3320.02
3314.34
3309.99
3306.97
3305.27
3304.84
3305.71
3307.87
3311.36
3316.19
3322.37
3329.96
3339.01
3349.58
3361.75
3375.6
3391.22
3408.67
3427.96
3449.2
3472.2
3496.75
3521.97
3547.1
3586.56
3620.26
3656.57
3693.87
3731.67
3769.75
3807.61
3844.88
3881.08
3915.68
3948.23
3978.22
4005.18
4028.72
4048.47
4064.1
4075.38
4082.28
4084.88
4083.4
4077.64
4067.88
4054.35
4037.29
4017.05
3993.9
3968.27
3940.48
3910.95
3880.12
3848.33
3815.96
3783.42
3751.01
3719.07
3687.83
3658.22
3629.94
3602.38
3575.98
3550.96
3527.47
3505.57
3485.31
3466.7
3449.76
3434.48
3420.84
3408.84
3398.48
3389.73
3382.61
3377.09
3373.18
3370.88
3370.2
3371.11
3373.64
3377.75
3383.41
3390.62
3399.33
3409.56
3421.28
3434.47
3449.12
3465.22
3482.74
3501.66
3521.96
3543.61
3566.58
3590.77
3615.41
3621.85
4029.39
4025.24
4017.41
4005.95
3991.05
3972.9
3951.76
3927.91
3901.65
3873.34
3843.35
3812.03
3779.81
3747.03
3714.07
3681.25
3648.9
3617.29
3586.7
3557.45
3532.2
3505.98
3481.14
3457.9
3436.31
3416.4
3398.14
3381.52
3366.48
3352.97
3340.94
3330.33
3321.1
3313.19
3306.55
3301.16
3296.99
3294.01
3292.25
3291.71
3292.41
3294.36
3297.63
3302.25
3308.28
3315.8
3324.88
3335.58
3347.99
3362.18
3378.2
3396.1
3415.9
3437.6
3461.18
3486.62
3513.8
3541.55
3571.11
3601.83
3633.58
3666.02
3698.79
3731.61
3764.08
3795.82
3826.47
3855.65
3882.99
3908.12
3930.69
3950.41
3967
3980.19
3989.76
3995.39
3997.16
3995.22
3989.48
3979.85
3966.42
3949.32
3928.76
3905.01
3878.41
3849.3
3818.11
3785.24
3751.12
3716.18
3680.84
3645.52
3610.58
3576.33
3542.26
3510.39
3480.07
3451.43
3424.62
3399.73
3376.82
3355.91
3336.98
3320.01
3304.93
3291.67
3280.16
3270.34
3262.11
3255.43
3250.23
3246.46
3244.09
3243.1
3243.45
3245.14
3248.17
3252.56
3258.33
3265.51
3274.13
3284.23
3295.85
3309.02
3323.79
3340.18
3358.22
3377.91
3399.26
3422.24
3446.83
3472.96
3500.53
3529.5
3559.59
3590.65
3622.46
3654.72
3687.13
3719.34
3750.95
3781.57
3810.76
3838.12
3863.22
3885.65
3905.04
3921.04
3933.38
3941.82
3946.19
3946.33
3942.35
3934.26
3922.13
3906.16
3886.61
3863.78
3838.01
3809.71
3779.29
3747.2
3713.89
3679.81
3645.39
3611.06
3577.21
3544.25
3512.35
3481.83
3452.88
3425.64
3400.18
3376.57
3354.81
3334.88
3316.77
3300.42
3285.79
3272.82
3261.47
3251.69
3243.41
3236.6
3231.2
3227.15
3224.43
3223.01
3222.83
3223.88
3226.17
3229.69
3234.45
3240.46
3247.77
3256.4
3266.4
3277.82
3290.7
3305.1
3321.07
3338.63
3357.83
3378.67
3401.14
3425.23
3450.88
3478.01
3506.52
3536.22
3566.93
3598.42
3630.39
3662.52
3694.45
3725.78
3756.09
3784.94
3811.89
3836.52
3858.4
3877.18
3892.5
3904.09
3911.74
3915.28
3914.62
3909.86
3901.03
3888.27
3871.82
3851.96
3829.03
3803.41
3775.5
3745.74
3714.55
3682.38
3649.63
3616.7
3583.96
3551.76
3520.38
3490.06
3461.02
3433.42
3407.36
3382.93
3360.17
3339.1
3319.71
3301.99
3285.92
3271.45
3258.54
3247.16
3237.26
3228.81
3221.76
3216.08
3211.73
3208.72
3207.02
3206.59
3207.45
3209.62
3213.1
3217.92
3224.1
3231.69
3240.73
3251.29
3263.45
3277.29
3292.9
3310.34
3329.63
3350.87
3373.88
3398.47
3423.77
3449.06
3488.01
3521.9
3558.32
3595.67
3633.51
3671.64
3709.55
3746.87
3783.13
3817.78
3850.39
3880.44
3907.45
3931.04
3950.83
3966.5
3977.82
3984.74
3987.28
3985.77
3980
3970.22
3956.66
3939.55
3919.26
3896.05
3870.37
3842.53
3812.94
3782.06
3750.22
3717.81
3685.23
3652.78
3620.81
3589.55
3559.93
3531.64
3504.07
3477.66
3452.64
3429.14
3407.25
3386.99
3368.39
3351.45
3336.17
3322.54
3310.54
3300.18
3291.44
3284.32
3278.8
3274.89
3272.6
3271.9
3272.82
3275.35
3279.47
3285.13
3292.33
3301.05
3311.28
3322.99
3336.18
3350.83
3366.93
3384.45
3403.37
3423.67
3445.32
3468.27
3492.44
3517.08
3523.82
3931.89
3927.73
3919.86
3908.38
3893.43
3875.23
3854.03
3830.12
3803.79
3775.41
3745.35
3713.97
3681.68
3648.85
3615.84
3582.98
3550.58
3518.94
3488.3
3458.97
3433.89
3407.59
3382.73
3359.48
3337.9
3318
3299.76
3283.14
3268.12
3254.62
3242.6
3232.01
3222.78
3214.88
3208.25
3202.87
3198.7
3195.72
3193.96
3193.41
3194.11
3196.06
3199.31
3203.93
3209.94
3217.45
3226.51
3237.2
3249.59
3263.77
3279.79
3297.67
3317.47
3339.16
3362.74
3388.17
3415.34
3443.2
3472.75
3503.49
3535.28
3567.76
3600.59
3633.46
3666
3697.8
3728.52
3757.77
3785.17
3810.36
3833
3852.78
3869.42
3882.65
3892.25
3897.9
3899.71
3897.77
3892.01
3882.35
3868.88
3851.73
3831.12
3807.31
3780.63
3751.46
3720.19
3687.25
3653.05
3618.05
3582.64
3547.26
3512.27
3477.97
3443.89
3411.99
3381.63
3352.98
3326.16
3301.27
3278.36
3257.46
3238.55
3221.59
3206.52
3193.28
3181.79
3171.98
3163.77
3157.09
3151.9
3148.13
3145.77
3144.78
3145.13
3146.82
3149.85
3154.24
3160
3167.17
3175.78
3185.87
3197.48
3210.65
3225.41
3241.79
3259.82
3279.51
3300.85
3323.84
3348.42
3374.56
3402.15
3431.13
3461.24
3492.34
3524.19
3556.5
3588.97
3621.23
3652.91
3683.6
3712.87
3740.31
3765.48
3787.98
3807.44
3823.5
3835.88
3844.35
3848.73
3848.89
3844.89
3836.77
3824.6
3808.58
3788.97
3766.06
3740.22
3711.84
3681.35
3649.18
3615.79
3581.64
3547.16
3512.78
3478.87
3445.88
3413.95
3383.4
3354.44
3327.2
3301.74
3278.14
3256.38
3236.47
3218.37
3202.03
3187.41
3174.46
3163.12
3153.34
3145.08
3138.27
3132.88
3128.84
3126.13
3124.71
3124.53
3125.59
3127.87
3131.39
3136.14
3142.15
3149.45
3158.07
3168.06
3179.47
3192.34
3206.73
3222.69
3240.24
3259.43
3280.26
3302.74
3326.83
3352.48
3379.62
3408.15
3437.88
3468.62
3500.15
3532.17
3564.36
3596.36
3627.75
3658.13
3687.06
3714.09
3738.8
3760.76
3779.59
3794.97
3806.6
3814.28
3817.83
3817.17
3812.39
3803.53
3790.72
3774.21
3754.29
3731.28
3705.59
3677.6
3647.76
3616.5
3584.26
3551.44
3518.46
3485.68
3453.44
3422.02
3391.69
3362.63
3335.01
3308.95
3284.52
3261.77
3240.7
3221.32
3203.62
3187.55
3173.09
3160.19
3148.82
3138.93
3130.48
3123.44
3117.76
3113.42
3110.41
3108.71
3108.28
3109.14
3111.31
3114.79
3119.6
3125.78
3133.35
3142.38
3152.93
3165.08
3178.9
3194.51
3211.94
3231.23
3252.47
3275.5
3300.13
3325.54
3351.02
3389.33
3423.47
3460.02
3497.44
3535.34
3573.52
3611.5
3648.89
3685.22
3719.96
3752.64
3782.77
3809.85
3833.5
3853.34
3869.06
3880.43
3887.37
3889.87
3888.31
3882.53
3872.72
3859.1
3841.93
3821.57
3798.29
3772.53
3744.62
3714.96
3684.02
3652.11
3619.64
3587.01
3554.51
3522.5
3491.21
3461.59
3433.27
3405.69
3379.27
3354.24
3330.74
3308.85
3288.59
3270
3253.07
3237.79
3224.17
3212.18
3201.82
3193.08
3185.96
3180.45
3176.54
3174.25
3173.55
3174.47
3177.01
3181.12
3186.79
3193.99
3202.71
3212.93
3224.65
3237.84
3252.49
3268.58
3286.1
3305.02
3325.31
3346.95
3369.89
3394.04
3418.67
3425.81
3834.54
3830.36
3822.46
3810.93
3795.93
3777.67
3756.4
3732.41
3705.99
3677.53
3647.39
3615.92
3583.55
3550.64
3517.57
3484.66
3452.21
3420.53
3389.84
3360.4
3335.52
3309.12
3284.24
3260.99
3239.42
3219.53
3201.3
3184.7
3169.69
3156.21
3144.2
3133.62
3124.41
3116.52
3109.9
3104.52
3100.36
3097.39
3095.62
3095.07
3095.76
3097.7
3100.95
3105.55
3111.55
3119.04
3128.08
3138.75
3151.13
3165.29
3181.29
3199.16
3218.95
3240.63
3264.22
3289.64
3316.79
3344.78
3374.32
3405.09
3436.93
3469.47
3502.36
3535.3
3567.91
3599.79
3630.6
3659.93
3687.42
3712.7
3735.41
3755.26
3771.96
3785.25
3794.89
3800.58
3802.42
3800.48
3794.69
3785
3771.48
3754.28
3733.59
3709.7
3682.94
3653.67
3622.32
3589.28
3555
3519.91
3484.42
3448.96
3413.91
3379.53
3345.45
3313.5
3283.12
3254.44
3227.61
3202.72
3179.82
3158.93
3140.03
3123.09
3108.04
3094.82
3083.35
3073.55
3065.36
3058.7
3053.51
3049.76
3047.4
3046.42
3046.77
3048.45
3051.48
3055.86
3061.62
3068.78
3077.38
3087.46
3099.05
3112.21
3126.96
3143.33
3161.35
3181.03
3202.37
3225.35
3249.95
3276.09
3303.7
3332.69
3362.84
3393.98
3425.87
3458.25
3490.78
3523.12
3554.89
3585.67
3615.04
3642.56
3667.83
3690.42
3709.96
3726.09
3738.53
3747.04
3751.44
3751.61
3747.59
3739.43
3727.21
3711.13
3691.44
3668.45
3642.52
3614.04
3583.44
3551.17
3517.69
3483.45
3448.9
3414.44
3380.47
3347.43
3315.47
3284.9
3255.92
3228.67
3203.22
3179.62
3157.88
3137.98
3119.89
3103.57
3088.96
3076.03
3064.7
3054.94
3046.68
3039.89
3034.51
3030.48
3027.78
3026.36
3026.19
3027.24
3029.53
3033.04
3037.79
3043.79
3051.08
3059.69
3069.67
3081.06
3093.92
3108.29
3124.23
3141.78
3160.95
3181.78
3204.25
3228.34
3254.01
3281.16
3309.71
3339.47
3370.26
3401.84
3433.92
3466.19
3498.26
3529.75
3560.22
3589.25
3616.38
3641.17
3663.22
3682.14
3697.58
3709.26
3716.97
3720.54
3719.88
3715.08
3706.17
3693.31
3676.73
3656.72
3633.62
3607.83
3579.75
3549.81
3518.46
3486.13
3453.24
3420.19
3387.35
3355.06
3323.6
3293.24
3264.16
3236.53
3210.47
3186.04
3163.29
3142.23
3122.87
3105.17
3089.12
3074.67
3061.78
3050.42
3040.54
3032.1
3025.07
3019.4
3015.06
3012.06
3010.35
3009.92
3010.78
3012.94
3016.42
3021.23
3027.39
3034.96
3043.98
3054.52
3066.65
3080.45
3096.04
3113.47
3132.75
3153.99
3177.04
3201.72
3227.25
3252.97
3290.52
3324.98
3361.68
3399.17
3437.14
3475.4
3513.46
3550.94
3587.36
3622.2
3654.98
3685.2
3712.37
3736.1
3756.01
3771.78
3783.2
3790.16
3792.63
3791.04
3785.22
3775.36
3761.67
3744.43
3723.98
3700.61
3674.76
3646.76
3617.02
3585.99
3554
3521.46
3488.76
3456.2
3424.14
3392.82
3363.18
3334.84
3307.24
3280.8
3255.77
3232.27
3210.38
3190.13
3171.54
3154.62
3139.35
3125.73
3113.74
3103.39
3094.66
3087.54
3082.03
3078.13
3075.83
3075.13
3076.06
3078.6
3082.72
3088.38
3095.59
3104.3
3114.53
3126.24
3139.43
3154.08
3170.18
3187.69
3206.61
3226.89
3248.53
3271.44
3295.55
3320.15
3327.86
3737.33
3733.14
3725.2
3713.62
3698.55
3680.21
3658.86
3634.77
3608.26
3579.69
3549.45
3517.88
3485.42
3452.42
3419.27
3386.29
3353.79
3322.06
3291.31
3261.74
3237.08
3210.57
3185.67
3162.42
3140.86
3120.98
3102.77
3086.19
3071.2
3057.73
3045.75
3035.19
3025.99
3018.11
3011.5
3006.13
3001.97
2999
2997.24
2996.68
2997.36
2999.29
3002.52
3007.11
3013.09
3020.56
3029.59
3040.24
3052.59
3066.73
3082.71
3100.57
3120.34
3142.02
3165.61
3191.03
3218.16
3246.27
3275.83
3306.63
3338.52
3371.13
3404.1
3437.13
3469.83
3501.81
3532.72
3562.15
3589.74
3615.12
3637.92
3657.86
3674.64
3687.99
3697.68
3703.44
3705.29
3703.35
3697.53
3687.81
3674.23
3656.95
3636.18
3612.19
3585.33
3555.95
3524.49
3491.34
3456.95
3421.76
3386.17
3350.62
3315.48
3281.03
3246.94
3214.93
3184.51
3155.82
3128.97
3104.08
3081.19
3060.31
3041.43
3024.51
3009.48
2996.28
2984.84
2975.06
2966.88
2960.24
2955.07
2951.33
2948.98
2947.99
2948.35
2950.03
2953.06
2957.43
2963.18
2970.33
2978.91
2988.98
3000.56
3013.7
3028.44
3044.8
3062.81
3082.48
3103.81
3126.79
3151.39
3177.54
3205.17
3234.19
3264.37
3295.56
3327.52
3359.96
3392.58
3425.02
3456.88
3487.77
3517.25
3544.89
3570.27
3592.97
3612.61
3628.83
3641.33
3649.89
3654.31
3654.49
3650.46
3642.26
3629.97
3613.81
3594.03
3570.93
3544.89
3516.29
3485.57
3453.19
3419.59
3385.25
3350.6
3316.06
3282.02
3248.92
3216.91
3186.31
3157.32
3130.06
3104.61
3081.02
3059.29
3039.41
3021.34
3005.04
2990.45
2977.53
2966.22
2956.47
2948.23
2941.45
2936.08
2932.07
2929.37
2927.96
2927.79
2928.85
2931.13
2934.64
2939.38
2945.37
2952.65
2961.25
2971.21
2982.59
2995.43
3009.79
3025.71
3043.24
3062.4
3083.22
3105.69
3129.79
3155.46
3182.63
3211.21
3241.01
3271.84
3303.48
3335.64
3367.99
3400.16
3431.76
3462.35
3491.49
3518.73
3543.65
3565.8
3584.81
3600.34
3612.08
3619.83
3623.42
3622.76
3617.93
3608.97
3596.03
3579.36
3559.25
3536.05
3510.15
3481.95
3451.9
3420.44
3388
3355.02
3321.88
3288.97
3256.62
3225.12
3194.72
3165.62
3137.98
3111.91
3087.48
3064.74
3043.69
3024.34
3006.66
2990.62
2976.18
2963.31
2951.97
2942.1
2933.67
2926.64
2920.98
2916.65
2913.65
2911.94
2911.51
2912.37
2914.53
2918
2922.8
2928.96
2936.51
2945.51
2956.03
2968.14
2981.93
2997.5
3014.91
3034.2
3055.44
3078.51
3103.25
3128.92
3154.86
3191.63
3226.43
3263.29
3300.88
3338.93
3377.27
3415.43
3453.02
3489.55
3524.51
3557.41
3587.75
3615.02
3638.85
3658.84
3674.67
3686.15
3693.12
3695.57
3693.93
3688.07
3678.15
3664.39
3647.04
3626.49
3603.02
3577.06
3548.94
3519.1
3487.97
3455.89
3423.26
3390.48
3357.85
3325.72
3294.37
3264.71
3236.34
3208.72
3182.26
3157.22
3133.72
3111.83
3091.59
3073.01
3056.09
3040.83
3027.22
3015.24
3004.9
2996.17
2989.05
2983.55
2979.65
2977.36
2976.65
2977.59
2980.13
2984.25
2989.91
2997.12
3005.84
3016.06
3027.77
3040.96
3055.61
3071.7
3089.22
3108.13
3128.41
3150.03
3172.93
3196.98
3221.51
3229.96
3640.28
3636.07
3628.08
3616.44
3601.3
3582.87
3561.41
3537.22
3510.58
3481.9
3451.53
3419.85
3387.27
3354.18
3320.94
3287.88
3255.31
3223.52
3192.72
3163.01
3138.57
3111.94
3087.01
3063.77
3042.22
3022.36
3004.17
2987.61
2972.64
2959.2
2947.23
2936.69
2927.51
2919.65
2913.05
2907.69
2903.54
2900.58
2898.81
2898.24
2898.91
2900.84
2904.05
2908.62
2914.58
2922.02
2931.02
2941.65
2953.97
2968.09
2984.05
3001.89
3021.66
3043.33
3066.91
3092.34
3119.47
3147.69
3177.27
3208.12
3240.07
3272.76
3305.82
3338.94
3371.76
3403.85
3434.87
3464.42
3492.13
3517.62
3540.54
3560.58
3577.45
3590.87
3600.63
3606.46
3608.32
3606.37
3600.53
3590.76
3577.12
3559.75
3538.88
3514.78
3487.8
3458.3
3426.7
3393.42
3358.91
3323.6
3287.9
3252.25
3217.01
3182.47
3148.36
3116.29
3085.83
3057.1
3030.25
3005.35
2982.46
2961.6
2942.74
2925.85
2910.85
2897.68
2886.26
2876.51
2868.35
2861.73
2856.57
2852.84
2850.5
2849.52
2849.88
2851.56
2854.58
2858.94
2864.68
2871.81
2880.39
2890.44
2902
2915.13
2929.85
2946.19
2964.19
2983.85
3005.18
3028.16
3052.76
3078.92
3106.57
3135.61
3165.85
3197.09
3229.12
3261.65
3294.36
3326.9
3358.89
3389.9
3419.52
3447.3
3472.81
3495.63
3515.38
3531.7
3544.29
3552.9
3557.35
3557.54
3553.49
3545.23
3532.88
3516.63
3496.73
3473.52
3447.34
3418.6
3387.74
3355.22
3321.49
3287.03
3252.26
3217.63
3183.51
3150.33
3118.27
3087.64
3058.63
3031.36
3005.92
2982.34
2960.62
2940.76
2922.71
2906.43
2891.87
2878.97
2867.68
2857.94
2849.72
2842.96
2837.6
2833.6
2830.92
2829.51
2829.35
2830.41
2832.69
2836.19
2840.93
2846.91
2854.17
2862.75
2872.69
2884.05
2896.87
2911.21
2927.12
2944.63
2963.78
2984.59
3007.05
3031.15
3056.83
3084.03
3112.63
3142.48
3173.37
3205.09
3237.33
3269.78
3302.07
3333.79
3364.51
3393.79
3421.17
3446.21
3468.49
3487.62
3503.24
3515.05
3522.85
3526.46
3525.8
3520.93
3511.91
3498.9
3482.13
3461.9
3438.57
3412.53
3384.19
3354.01
3322.42
3289.87
3256.78
3223.54
3190.55
3158.13
3126.57
3096.13
3067
3039.35
3013.27
2988.84
2966.11
2945.08
2925.74
2908.07
2892.05
2877.63
2864.78
2853.45
2843.59
2835.18
2828.16
2822.5
2818.19
2815.19
2813.48
2813.05
2813.91
2816.06
2819.53
2824.32
2830.46
2838
2846.99
2857.49
2869.58
2883.34
2898.89
2916.29
2935.56
2956.81
2979.9
3004.71
3030.53
3056.72
3092.63
3127.83
3164.87
3202.55
3240.69
3279.14
3317.41
3355.12
3391.79
3426.88
3459.92
3490.4
3517.8
3541.74
3561.82
3577.73
3589.26
3596.25
3598.68
3597
3591.08
3581.09
3567.23
3549.78
3529.11
3505.51
3479.42
3451.18
3421.21
3389.96
3357.77
3325.04
3292.16
3259.45
3227.25
3195.86
3166.18
3137.77
3110.12
3083.64
3058.59
3035.09
3013.21
2992.97
2974.4
2957.5
2942.25
2928.65
2916.68
2906.34
2897.61
2890.51
2885.01
2881.11
2878.82
2878.11
2879.05
2881.59
2885.72
2891.39
2898.59
2907.31
2917.53
2929.25
2942.43
2957.08
2973.17
2990.69
3009.59
3029.87
3051.48
3074.34
3098.34
3122.75
3132.12
3543.38
3539.14
3531.1
3519.39
3504.16
3485.63
3464.06
3439.74
3412.97
3384.14
3353.64
3321.82
3289.12
3255.91
3222.57
3189.42
3156.78
3124.93
3094.07
3064.26
3039.93
3013.22
2988.28
2965.04
2943.51
2923.67
2905.5
2888.96
2874.01
2860.6
2848.66
2838.14
2828.98
2821.14
2814.55
2809.2
2805.06
2802.1
2800.33
2799.75
2800.42
2802.33
2805.52
2810.07
2816.01
2823.42
2832.4
2842.99
2855.29
2869.38
2885.31
2903.13
2922.88
2944.55
2968.13
2993.57
3020.7
3049.02
3078.63
3109.53
3141.56
3174.34
3207.5
3240.74
3273.68
3305.9
3337.06
3366.75
3394.59
3420.21
3443.26
3463.41
3480.38
3493.9
3503.73
3509.65
3511.51
3509.56
3503.69
3493.86
3480.15
3462.68
3441.7
3417.47
3390.35
3360.7
3328.96
3295.53
3260.88
3225.43
3189.6
3153.82
3118.48
3083.84
3049.7
3017.56
2987.05
2958.3
2931.43
2906.53
2883.65
2862.81
2843.97
2827.11
2812.14
2799
2787.61
2777.89
2769.76
2763.15
2758.02
2754.3
2751.97
2750.99
2751.35
2753.03
2756.05
2760.4
2766.12
2773.25
2781.8
2791.83
2803.38
2816.49
2831.19
2847.52
2865.5
2885.15
2906.47
2929.44
2954.05
2980.23
3007.9
3036.98
3067.26
3098.57
3130.67
3163.3
3196.12
3228.79
3260.91
3292.07
3321.84
3349.77
3375.43
3398.4
3418.29
3434.72
3447.39
3456.07
3460.56
3460.76
3456.68
3448.37
3435.93
3419.57
3399.55
3376.19
3349.86
3320.97
3289.95
3257.27
3223.39
3188.78
3153.89
3119.14
3084.94
3051.67
3019.56
2988.89
2959.85
2932.58
2907.14
2883.57
2861.87
2842.03
2824.01
2807.75
2793.21
2780.34
2769.07
2759.36
2751.16
2744.41
2739.07
2735.09
2732.41
2731.02
2730.86
2731.92
2734.2
2737.7
2742.42
2748.39
2755.64
2764.2
2774.12
2785.46
2798.25
2812.57
2828.45
2845.94
2865.08
2885.88
2908.34
2932.43
2958.13
2985.35
3013.99
3043.89
3074.85
3106.64
3138.99
3171.56
3203.97
3235.83
3266.71
3296.14
3323.68
3348.88
3371.3
3390.55
3406.28
3418.18
3426.03
3429.67
3429.01
3424.1
3415.01
3401.9
3385.01
3364.65
3341.17
3314.98
3286.49
3256.15
3224.42
3191.73
3158.51
3125.17
3092.07
3059.57
3027.96
2997.47
2968.31
2940.64
2914.55
2890.13
2867.4
2846.39
2827.07
2809.42
2793.42
2779.02
2766.18
2754.87
2745.03
2736.63
2729.62
2723.98
2719.67
2716.68
2714.97
2714.54
2715.4
2717.55
2721
2725.78
2731.91
2739.44
2748.41
2758.88
2770.94
2784.68
2800.2
2817.58
2836.85
2858.1
2881.22
2906.09
2932.07
2958.58
2993.48
3029.19
3066.4
3104.18
3142.44
3181
3219.4
3257.25
3294.08
3329.33
3362.53
3393.16
3420.7
3444.77
3464.96
3480.95
3492.55
3499.56
3501.97
3500.24
3494.26
3484.18
3470.22
3452.64
3431.83
3408.09
3381.85
3353.46
3323.35
3291.96
3259.65
3226.8
3193.82
3161.01
3128.72
3097.28
3067.58
3039.14
3011.46
2984.96
2959.89
2936.39
2914.51
2894.28
2875.73
2858.83
2843.6
2830
2818.05
2807.71
2799
2791.89
2786.4
2782.51
2780.22
2779.51
2780.45
2783
2787.13
2792.8
2800.01
2808.72
2818.95
2830.65
2843.84
2858.48
2874.58
2892.09
2910.99
2931.26
2952.86
2975.69
2999.63
3023.9
3034.31
3446.64
3442.36
3434.27
3422.47
3407.15
3388.5
3366.8
3342.33
3315.41
3286.43
3255.77
3223.81
3190.96
3157.62
3124.16
3090.92
3058.19
3026.27
2995.36
2965.48
2941.16
2914.41
2889.46
2866.23
2844.71
2824.9
2806.75
2790.24
2775.33
2761.94
2750.03
2739.53
2730.4
2722.57
2716.01
2710.67
2706.53
2703.57
2701.8
2701.21
2701.87
2703.77
2706.94
2711.46
2717.38
2724.76
2733.7
2744.26
2756.53
2770.59
2786.49
2804.29
2824.02
2845.68
2869.26
2894.71
2921.86
2950.26
2979.92
3010.89
3043
3075.89
3109.16
3142.53
3175.61
3207.97
3239.28
3269.12
3297.12
3322.89
3346.08
3366.36
3383.45
3397.06
3406.98
3413
3414.85
3412.9
3407
3397.12
3383.32
3365.75
3344.63
3320.26
3292.98
3263.17
3231.25
3197.67
3162.85
3127.24
3091.27
3055.36
3019.9
2985.15
2950.97
2918.76
2888.19
2859.4
2832.52
2807.61
2784.75
2763.93
2745.12
2728.29
2713.36
2700.25
2688.9
2679.2
2671.1
2664.52
2659.41
2655.7
2653.38
2652.42
2652.77
2654.45
2657.46
2661.8
2667.51
2674.62
2683.15
2693.17
2704.69
2717.78
2732.46
2748.77
2766.73
2786.37
2807.68
2830.65
2855.26
2881.46
2909.16
2938.27
2968.61
2999.99
3032.18
3064.91
3097.86
3130.67
3162.95
3194.27
3224.21
3252.32
3278.15
3301.29
3321.32
3337.88
3350.66
3359.4
3363.93
3364.14
3360.03
3351.66
3339.13
3322.65
3302.49
3278.97
3252.47
3223.4
3192.2
3159.34
3125.29
3090.52
3055.49
3020.61
2986.3
2952.94
2920.77
2890.05
2860.99
2833.71
2808.27
2784.72
2763.04
2743.23
2725.24
2709.01
2694.49
2681.64
2670.4
2660.71
2652.53
2645.81
2640.49
2636.52
2633.86
2632.47
2632.32
2633.38
2635.66
2639.15
2643.86
2649.82
2657.05
2665.59
2675.49
2686.8
2699.57
2713.86
2729.72
2747.19
2766.3
2787.09
2809.54
2833.64
2859.35
2886.59
2915.28
2945.23
2976.27
3008.16
3040.62
3073.31
3105.88
3137.9
3168.94
3198.55
3226.27
3251.64
3274.22
3293.62
3309.47
3321.47
3329.38
3333.05
3332.38
3327.43
3318.26
3305.04
3288.02
3267.51
3243.87
3217.5
3188.83
3158.32
3126.42
3093.58
3060.22
3026.75
2993.55
2960.96
2929.27
2898.73
2869.54
2841.85
2815.76
2791.34
2768.62
2747.62
2728.32
2710.7
2694.72
2680.34
2667.53
2656.23
2646.41
2638.02
2631.03
2625.4
2621.1
2618.12
2616.41
2615.97
2616.83
2618.98
2622.42
2627.19
2633.31
2640.81
2649.76
2660.21
2672.24
2685.95
2701.44
2718.8
2738.06
2759.31
2782.47
2807.39
2833.54
2860.39
2894.24
2930.52
2967.89
3005.79
3044.16
3082.86
3121.4
3159.41
3196.41
3231.84
3265.22
3296.02
3323.73
3347.94
3368.26
3384.35
3396
3403.04
3405.43
3403.65
3397.6
3387.43
3373.34
3355.62
3334.65
3310.74
3284.34
3255.79
3225.51
3193.98
3161.52
3128.54
3095.44
3062.52
3030.14
2998.64
2968.94
2940.44
2912.72
2886.19
2861.12
2837.61
2815.74
2795.52
2776.98
2760.1
2744.87
2731.29
2719.35
2709.02
2700.31
2693.22
2687.73
2683.84
2681.55
2680.85
2681.8
2684.35
2688.48
2694.15
2701.36
2710.08
2720.3
2732
2745.18
2759.83
2775.92
2793.43
2812.33
2832.6
2854.17
2876.98
2900.85
2924.97
2936.49
3350.04
3345.73
3337.57
3325.69
3310.26
3291.48
3269.63
3245.01
3217.92
3188.77
3157.93
3125.8
3092.8
3059.31
3025.72
2992.36
2959.54
2927.55
2896.59
2866.67
2842.27
2815.5
2790.55
2767.34
2745.84
2726.05
2707.93
2691.46
2676.57
2663.22
2651.33
2640.87
2631.76
2623.95
2617.41
2612.08
2607.95
2605
2603.23
2602.63
2603.28
2605.16
2608.31
2612.8
2618.69
2626.03
2634.94
2645.46
2657.69
2671.72
2687.59
2705.36
2725.08
2746.72
2770.31
2795.77
2822.94
2851.42
2881.13
2912.18
2944.39
2977.39
3010.79
3044.3
3077.53
3110.06
3141.54
3171.55
3199.72
3225.66
3249
3269.42
3286.64
3300.37
3310.38
3316.49
3318.36
3316.4
3310.47
3300.53
3286.64
3268.94
3247.68
3223.15
3195.69
3165.7
3133.6
3099.83
3064.83
3029.05
2992.91
2956.86
2921.26
2886.39
2852.16
2819.86
2789.24
2760.42
2733.51
2708.61
2685.76
2664.96
2646.18
2629.39
2614.5
2601.43
2590.11
2580.46
2572.38
2565.83
2560.74
2557.05
2554.75
2553.78
2554.14
2555.82
2558.82
2563.15
2568.85
2575.93
2584.45
2594.43
2605.94
2619
2633.66
2649.94
2667.89
2687.51
2708.81
2731.78