/*--------------------------------*- C++ -*----------------------------------*\
| =========                 |                                                 |
| \\      /  F ield         | OpenFOAM: The Open Source CFD Toolbox           |
|  \\    /   O peration     | Version:  3.0.1                                 |
|   \\  /    A nd           | Web:      www.OpenFOAM.org                      |
|    \\/     M anipulation  |                                                 |
\*---------------------------------------------------------------------------*/
FoamFile
{
    version     2.0;
    format      ascii;
    class       surfaceScalarField;
    location    "75.8";
    object      phi;
}
// * * * * * * * * * * * * * * * * * * * * * * * * * * * * * * * * * * * * * //

dimensions      [0 3 -1 0 0 0 0];

internalField   nonuniform List<scalar> 
42423
(
-0.000183021
3.51254e-06
-0.000185749
2.72762e-06
-0.000187805
2.0556e-06
-0.000189191
1.3865e-06
-0.000189919
7.27807e-07
-0.000189987
6.79281e-08
-0.000189283
-7.0439e-07
-0.000187868
-1.41462e-06
-0.000185847
-2.02062e-06
-0.000182989
-2.85799e-06
-0.000179356
-3.63365e-06
-0.000175008
-4.34725e-06
-0.000169764
-5.2445e-06
-0.000163612
-6.15201e-06
-0.00015648
-7.13156e-06
-0.000148463
-8.01743e-06
-0.000139595
-8.8676e-06
-0.000129638
-9.95765e-06
-0.000118669
-1.09685e-05
-0.000106774
-1.18949e-05
-9.36626e-05
-1.31119e-05
-7.95957e-05
-1.4067e-05
-6.45814e-05
-1.50143e-05
-4.86049e-05
-1.59766e-05
-3.17513e-05
-1.68536e-05
-1.40355e-05
-1.77159e-05
4.22858e-06
-1.82642e-05
2.28751e-05
-1.86466e-05
4.19311e-05
-1.9056e-05
6.11421e-05
-1.92111e-05
8.01185e-05
-1.89765e-05
9.87786e-05
-1.86602e-05
0.000116848
-1.80698e-05
0.000134031
-1.7183e-05
0.000150094
-1.60628e-05
0.000164742
-1.4648e-05
0.000177788
-1.30466e-05
0.000189015
-1.12264e-05
0.000198212
-9.19692e-06
0.000205197
-6.9858e-06
0.000209894
-4.69663e-06
0.000212184
-2.2897e-06
0.000212073
1.10114e-07
0.000209457
2.6166e-06
0.00020443
5.02695e-06
0.000197176
7.25344e-06
0.00018779
9.3857e-06
0.000176474
1.13165e-05
0.000163381
1.3093e-05
0.000148773
1.46082e-05
0.000132897
1.58754e-05
0.000115913
1.69839e-05
9.82533e-05
1.766e-05
7.99074e-05
1.83458e-05
6.14027e-05
1.85047e-05
4.26039e-05
1.87988e-05
2.40662e-05
1.85377e-05
5.73574e-06
1.83305e-05
-1.21261e-05
1.78619e-05
-2.94473e-05
1.73211e-05
-4.60578e-05
1.66105e-05
-6.19134e-05
1.58556e-05
-7.68759e-05
1.49625e-05
-9.09274e-05
1.40515e-05
-0.000104071
1.31437e-05
-0.000116205
1.21337e-05
-0.000127348
1.11427e-05
-0.000137569
1.02217e-05
-0.000146769
9.20019e-06
-0.000155089
8.31948e-06
-0.000162452
7.36307e-06
-0.000168892
6.43997e-06
-0.000174511
5.61929e-06
-0.000179206
4.69499e-06
-0.00018299
3.78332e-06
-0.00018592
2.92999e-06
-0.000187913
1.99335e-06
-0.000189171
1.2582e-06
-0.000189583
4.11713e-07
-0.00018918
-4.03052e-07
-0.000187932
-1.24767e-06
-0.000185913
-2.01874e-06
-0.000182977
-2.93593e-06
-0.00017937
-3.60792e-06
-0.000174931
-4.43814e-06
-0.000169639
-5.29248e-06
-0.00016346
-6.17909e-06
-0.000156515
-6.94456e-06
-0.000148716
-7.79944e-06
-0.000140126
-8.59023e-06
-0.000130793
-9.33222e-06
-0.00012081
-9.98397e-06
-0.00011012
-1.069e-05
-9.87454e-05
-1.13743e-05
-8.66718e-05
-1.20736e-05
-7.38896e-05
-1.27822e-05
-6.034e-05
-1.35497e-05
-4.61572e-05
-1.41828e-05
-3.11928e-05
-1.49645e-05
-1.56437e-05
-1.55491e-05
5.53114e-07
-1.61969e-05
1.72797e-05
-1.67267e-05
3.44115e-05
-1.71318e-05
5.18089e-05
-1.73975e-05
6.93062e-05
-1.74974e-05
8.66703e-05
-1.73641e-05
0.000103747
-1.7077e-05
0.000120311
-1.65638e-05
0.000136099
-1.5788e-05
0.000150939
-1.48396e-05
0.000164562
-1.36234e-05
0.000176728
-1.21665e-05
0.000187222
-1.04936e-05
0.000195837
-8.61506e-06
0.000202391
-6.55428e-06
0.00020671
-4.31917e-06
0.000208679
-1.96908e-06
0.000208258
4.21177e-07
0.000205398
2.86e-06
0.000200093
5.30438e-06
0.000192458
7.63504e-06
0.000182626
9.83241e-06
0.000170795
1.18307e-05
0.00015716
1.36349e-05
0.000141989
1.51709e-05
0.000125474
1.6515e-05
0.00010799
1.74838e-05
8.9751e-05
1.82395e-05
7.10059e-05
1.8745e-05
5.20458e-05
1.89601e-05
3.31539e-05
1.8892e-05
1.45034e-05
1.86505e-05
-3.76535e-06
1.82687e-05
-2.13406e-05
1.75752e-05
-3.81617e-05
1.68211e-05
-5.4192e-05
1.60303e-05
-6.91714e-05
1.49794e-05
-8.32053e-05
1.4034e-05
-9.61048e-05
1.28995e-05
-0.000107969
1.18644e-05
-0.000118842
1.08729e-05
-0.000128608
9.76631e-06
-0.000137414
8.80595e-06
-0.000145227
7.81244e-06
-0.000152128
6.90147e-06
-0.000158163
6.03475e-06
-0.000163362
5.19885e-06
-0.000167773
4.41118e-06
-0.00017147
3.69657e-06
-0.000174464
2.99457e-06
-0.00017682
2.35533e-06
-0.00017855
1.73091e-06
-0.000179673
1.12228e-06
-0.000180217
5.44326e-07
-0.00018014
-7.67665e-08
-0.000179548
-5.92325e-07
-0.000178334
-1.21357e-06
-0.000176543
-1.79143e-06
-0.000174154
-2.38951e-06
-0.000171139
-3.0143e-06
-0.000167446
-3.69334e-06
-0.000163149
-4.29673e-06
-0.000158156
-4.99282e-06
-0.000152502
-5.65452e-06
-0.000146137
-6.36443e-06
-0.000139038
-7.09994e-06
-0.000131216
-7.82156e-06
-0.000122635
-8.58086e-06
-0.000113239
-9.39596e-06
-0.000103067
-1.01718e-05
-9.20331e-05
-1.10344e-05
-8.02168e-05
-1.18163e-05
-6.75429e-05
-1.2674e-05
-5.40943e-05
-1.34486e-05
-3.98456e-05
-1.42488e-05
-2.49422e-05
-1.49034e-05
-9.36689e-06
-1.55754e-05
6.70343e-06
-1.60704e-05
2.32124e-05
-1.6509e-05
3.99998e-05
-1.67876e-05
5.68724e-05
-1.68727e-05
7.36495e-05
-1.67771e-05
9.01134e-05
-1.6464e-05
0.000106024
-1.59107e-05
0.000121158
-1.51344e-05
0.000135291
-1.41329e-05
0.000148166
-1.28744e-05
0.000159546
-1.13805e-05
0.000169236
-9.68965e-06
0.000177
-7.76436e-06
0.000182693
-5.69338e-06
0.000186161
-3.46739e-06
0.000187281
-1.12071e-06
0.000186113
1.16811e-06
0.000182574
3.53921e-06
0.000176751
5.82245e-06
0.000168797
7.95454e-06
0.000158816
9.98087e-06
0.000147057
1.17586e-05
0.000133761
1.32967e-05
0.000119147
1.46132e-05
0.000103468
1.56796e-05
8.69159e-05
1.65517e-05
6.97954e-05
1.71205e-05
5.22887e-05
1.75067e-05
3.4705e-05
1.75837e-05
1.72311e-05
1.74738e-05
5.11551e-08
1.718e-05
-1.66773e-05
1.67284e-05
-3.27331e-05
1.60558e-05
-4.80626e-05
1.53294e-05
-6.26e-05
1.45375e-05
-7.6245e-05
1.36449e-05
-8.90453e-05
1.28003e-05
-0.000100876
1.18307e-05
-0.00011179
1.09137e-05
-0.000121835
1.00449e-05
-0.000130931
9.09648e-06
-0.000139141
8.21021e-06
-0.000146463
7.32129e-06
-0.000152999
6.53685e-06
-0.000158745
5.74557e-06
-0.000163757
5.01243e-06
-0.000168082
4.32488e-06
-0.000171724
3.64166e-06
-0.000174793
3.06921e-06
-0.000177259
2.46587e-06
-0.000179223
1.96366e-06
-0.00018064
1.41701e-06
-0.000181524
8.83999e-07
-0.000181886
3.62502e-07
-0.000181718
-1.6862e-07
-0.000180955
-7.63097e-07
-0.000179598
-1.35651e-06
-0.000177718
-1.87959e-06
-0.00017525
-2.46877e-06
-0.000172172
-3.0778e-06
-0.000168499
-3.6734e-06
-0.000164173
-4.32538e-06
-0.000159248
-4.92525e-06
-0.000153632
-5.61599e-06
-0.00014747
-6.1618e-06
-0.000140613
-6.85731e-06
-0.0001331
-7.51251e-06
-0.000124917
-8.18288e-06
-0.000116027
-8.89066e-06
-0.000106568
-9.4588e-06
-9.64284e-05
-1.01397e-05
-8.56033e-05
-1.08252e-05
-7.41429e-05
-1.14604e-05
-6.20545e-05
-1.20885e-05
-4.93483e-05
-1.27062e-05
-3.61176e-05
-1.32307e-05
-2.23285e-05
-1.37892e-05
-8.04154e-06
-1.4287e-05
6.63583e-06
-1.46774e-05
2.16315e-05
-1.49957e-05
3.67958e-05
-1.51644e-05
5.19772e-05
-1.51814e-05
6.69945e-05
-1.50174e-05
8.16504e-05
-1.46559e-05
9.57653e-05
-1.4115e-05
0.000109054
-1.3289e-05
0.000121395
-1.2341e-05
0.000132545
-1.11499e-05
0.000142281
-9.73577e-06
0.000150398
-8.1175e-06
0.00015679
-6.3915e-06
0.000161315
-4.52548e-06
0.000163817
-2.50232e-06
0.000164318
-5.01021e-07
0.000162809
1.50933e-06
0.000159209
3.5999e-06
0.000153705
5.50438e-06
0.000146366
7.3388e-06
0.000137494
8.87153e-06
0.000127151
1.03435e-05
0.000115847
1.13042e-05
0.000103519
1.23272e-05
9.07076e-05
1.28117e-05
7.75693e-05
1.31383e-05
6.4267e-05
1.33023e-05
5.07236e-05
1.35434e-05
3.71324e-05
1.35911e-05
2.34796e-05
1.36528e-05
9.83497e-06
1.36446e-05
-3.56201e-06
1.3397e-05
-1.67354e-05
1.31734e-05
-2.95572e-05
1.28218e-05
-4.18531e-05
1.22959e-05
-5.36221e-05
1.1769e-05
-6.47072e-05
1.10851e-05
-7.5085e-05
1.03778e-05
-8.47582e-05
9.67324e-06
-9.36498e-05
8.89158e-06
-0.000101758
8.10792e-06
-0.000109131
7.37301e-06
-0.000115726
6.59487e-06
-0.000121599
5.8735e-06
-0.00012677
5.17059e-06
-0.000131264
4.49439e-06
-0.000135153
3.88903e-06
-0.000138475
3.32212e-06
-0.000141313
2.83778e-06
-0.000143696
2.38347e-06
-0.000145637
1.94011e-06
-0.000147204
1.56737e-06
-0.00014844
1.23621e-06
-0.000149346
9.05952e-07
-0.000149941
5.95332e-07
-0.000150171
2.29031e-07
-0.000149992
-1.7847e-07
-0.0001494
-5.92317e-07
-0.000148398
-1.00197e-06
-0.000146741
-1.65636e-06
-0.000144524
-2.21717e-06
-0.000141603
-2.92091e-06
-0.000137927
-3.67677e-06
-0.000133457
-4.46936e-06
-0.000128029
-5.42832e-06
-0.000121748
-6.2812e-06
-0.000114519
-7.22828e-06
-0.000106163
-8.35641e-06
-9.68288e-05
-9.3343e-06
-8.64087e-05
-1.04201e-05
-7.49477e-05
-1.1461e-05
-6.26134e-05
-1.23344e-05
-4.93287e-05
-1.32847e-05
-3.51153e-05
-1.42134e-05
-2.02686e-05
-1.48467e-05
-4.76367e-06
-1.5505e-05
1.1417e-05
-1.61807e-05
2.78382e-05
-1.64212e-05
4.45562e-05
-1.6718e-05
6.1283e-05
-1.67269e-05
7.7865e-05
-1.6582e-05
9.41618e-05
-1.62969e-05
0.000109884
-1.57222e-05
0.000124862
-1.49779e-05
0.000138962
-1.41004e-05
0.000151963
-1.30008e-05
0.0001637
-1.17368e-05
0.000174059
-1.0359e-05
0.000182877
-8.81861e-06
0.00019008
-7.20221e-06
0.000195539
-5.45963e-06
0.000199271
-3.73164e-06
0.000201168
-1.89708e-06
0.000201184
-1.60445e-08
0.000199275
1.90856e-06
0.00019547
3.80471e-06
0.000189982
5.48855e-06
0.000182819
7.16328e-06
0.000174035
8.78354e-06
0.000163911
1.01241e-05
0.000152439
1.14716e-05
1.2714e-05
-0.000183057
7.03185e-06
-0.000185786
5.45705e-06
-0.000187845
4.11412e-06
-0.000189238
2.77992e-06
-0.000189973
1.46281e-06
-0.000190038
1.32953e-07
-0.000189329
-1.4137e-06
-0.000187915
-2.82853e-06
-0.000185897
-4.03823e-06
-0.000183034
-5.72117e-06
-0.000179409
-7.25857e-06
-0.000175063
-8.69417e-06
-0.000169822
-1.04852e-05
-0.000163668
-1.23064e-05
-0.000156537
-1.42622e-05
-0.000148519
-1.60358e-05
-0.00013965
-1.77361e-05
-0.000129694
-1.99141e-05
-0.000118731
-2.19309e-05
-0.000106829
-2.37973e-05
-9.3716e-05
-2.62252e-05
-7.96413e-05
-2.81419e-05
-6.46278e-05
-3.00279e-05
-4.86483e-05
-3.19563e-05
-3.1788e-05
-3.3714e-05
-1.40676e-05
-3.54364e-05
4.20233e-06
-3.65342e-05
2.28623e-05
-3.73067e-05
4.19289e-05
-3.81228e-05
6.11462e-05
-3.84285e-05
8.01368e-05
-3.79672e-05
9.88095e-05
-3.73331e-05
0.00011689
-3.61503e-05
0.000134086
-3.43795e-05
0.000150168
-3.2145e-05
0.000164827
-2.9307e-05
0.000177881
-2.61007e-05
0.000189116
-2.24617e-05
0.00019832
-1.84012e-05
0.000205312
-1.39777e-05
0.00021001
-9.39439e-06
0.000212307
-4.58734e-06
0.000212199
2.18523e-07
0.000209569
5.24649e-06
0.000204543
1.00522e-05
0.000197285
1.45118e-05
0.000187893
1.8778e-05
0.000176571
2.26384e-05
0.000163469
2.61947e-05
0.000148848
2.92294e-05
0.000132964
3.17584e-05
0.000115967
3.39811e-05
9.83001e-05
3.5327e-05
7.99393e-05
3.67065e-05
6.14273e-05
3.70166e-05
4.26171e-05
3.7609e-05
2.407e-05
3.70847e-05
5.73254e-06
3.66679e-05
-1.21439e-05
3.57383e-05
-2.94732e-05
3.46504e-05
-4.60912e-05
3.32285e-05
-6.19552e-05
3.17196e-05
-7.69243e-05
2.99316e-05
-9.09859e-05
2.81131e-05
-0.000104137
2.6295e-05
-0.000116273
2.42698e-05
-0.000127419
2.22881e-05
-0.000137642
2.04448e-05
-0.000146837
1.83955e-05
-0.000155157
1.66393e-05
-0.000162524
1.47296e-05
-0.000168965
1.28816e-05
-0.000174584
1.12381e-05
-0.000179283
9.39367e-06
-0.000183071
7.57206e-06
-0.000185999
5.85714e-06
-0.000187983
3.97755e-06
-0.00018924
2.51534e-06
-0.000189653
8.2505e-07
-0.000189249
-8.07876e-07
-0.000188003
-2.49324e-06
-0.000185969
-4.05231e-06
-0.000183038
-5.86777e-06
-0.000179428
-7.21717e-06
-0.000174988
-8.8787e-06
-0.000169693
-1.05872e-05
-0.000163505
-1.23672e-05
-0.000156559
-1.38911e-05
-0.000148756
-1.56023e-05
-0.000140151
-1.7195e-05
-0.000130808
-1.86754e-05
-0.000120819
-1.99726e-05
-0.00011013
-2.13791e-05
-9.87563e-05
-2.27484e-05
-8.66784e-05
-2.41515e-05
-7.3896e-05
-2.55648e-05
-6.03419e-05
-2.71039e-05
-4.61629e-05
-2.83619e-05
-3.11939e-05
-2.99337e-05
-1.56495e-05
-3.10936e-05
5.48239e-07
-3.23948e-05
1.72818e-05
-3.34604e-05
3.44154e-05
-3.42656e-05
5.18137e-05
-3.47959e-05
6.93251e-05
-3.5009e-05
8.67019e-05
-3.4741e-05
0.000103781
-3.41562e-05
0.000120357
-3.31399e-05
0.000136156
-3.15878e-05
0.000151001
-2.96845e-05
0.000164637
-2.72591e-05
0.000176818
-2.43474e-05
0.000187314
-2.09902e-05
0.000195935
-1.72361e-05
0.000202492
-1.31119e-05
0.000206828
-8.65527e-06
0.000208796
-3.93703e-06
0.000208355
8.62261e-07
0.000205481
5.7341e-06
0.000200164
1.06209e-05
0.000192516
1.52832e-05
0.000182666
1.96819e-05
0.000170822
2.36746e-05
0.000157171
2.72868e-05
0.000141971
3.03709e-05
0.000125441
3.30449e-05
0.000107927
3.49971e-05
8.966e-05
3.65068e-05
7.09004e-05
3.75046e-05
5.19332e-05
3.79273e-05
3.30088e-05
3.78164e-05
1.43162e-05
3.7343e-05
-3.94425e-06
3.65292e-05
-2.15424e-05
3.51733e-05
-3.8406e-05
3.36847e-05
-5.44128e-05
3.20371e-05
-6.94077e-05
2.99744e-05
-8.34351e-05
2.80613e-05
-9.63596e-05
2.5824e-05
-0.000108216
2.37208e-05
-0.000119079
2.1736e-05
-0.000128863
1.95503e-05
-0.000137646
1.75893e-05
-0.000145462
1.56282e-05
-0.000152357
1.37962e-05
-0.00015839
1.20674e-05
-0.00016358
1.03897e-05
-0.000167994
8.8251e-06
-0.000171689
7.39101e-06
-0.000174675
5.98123e-06
-0.000176992
4.67163e-06
-0.000178754
3.4932e-06
-0.000179868
2.23596e-06
-0.000180401
1.07765e-06
-0.000180306
-1.71829e-07
-0.000179717
-1.18125e-06
-0.000178493
-2.43744e-06
-0.000176688
-3.59657e-06
-0.000174308
-4.77011e-06
-0.000171289
-6.03259e-06
-0.00016761
-7.37293e-06
-0.000163296
-8.61024e-06
-0.000158261
-1.00283e-05
-0.000152645
-1.12707e-05
-0.000146271
-1.27379e-05
-0.000139171
-1.41999e-05
-0.000131339
-1.56534e-05
-0.000122761
-1.71598e-05
-0.000113352
-1.88041e-05
-0.000103168
-2.03565e-05
-9.21396e-05
-2.20626e-05
-8.032e-05
-2.3636e-05
-6.76456e-05
-2.53485e-05
-5.41874e-05
-2.69069e-05
-3.99376e-05
-2.84986e-05
-2.50217e-05
-2.98194e-05
-9.43966e-06
-3.11576e-05
6.65471e-06
-3.21649e-05
2.31651e-05
-3.30195e-05
3.99627e-05
-3.35853e-05
5.68524e-05
-3.37624e-05
7.36382e-05
-3.35629e-05
9.01179e-05
-3.29439e-05
0.000106047
-3.18401e-05
0.000121182
-3.02694e-05
0.000135326
-2.82773e-05
0.000148215
-2.5763e-05
0.000159598
-2.27635e-05
0.000169296
-1.93884e-05
0.00017706
-1.55284e-05
0.000182756
-1.13887e-05
0.000186223
-6.93491e-06
0.000187344
-2.24168e-06
0.000186155
2.35722e-06
0.000182601
7.09257e-06
0.000176768
1.16559e-05
0.000168785
1.59374e-05
0.0001588
1.99655e-05
0.000147028
2.35306e-05
0.000133708
2.66168e-05
0.000119092
2.92292e-05
0.000103373
3.13985e-05
8.68001e-05
3.31245e-05
6.96679e-05
3.42526e-05
5.21526e-05
3.50219e-05
3.4545e-05
3.51913e-05
1.70487e-05
3.49702e-05
-1.5394e-07
3.43826e-05
-1.68712e-05
3.34457e-05
-3.29409e-05
3.21255e-05
-4.82853e-05
3.06738e-05
-6.28216e-05
2.90738e-05
-7.64635e-05
2.72869e-05
-8.92573e-05
2.55942e-05
-0.000101099
2.36727e-05
-0.000112038
2.18524e-05
-0.000122056
2.00626e-05
-0.000131151
1.81921e-05
-0.000139354
1.64127e-05
-0.00014667
1.46376e-05
-0.000153194
1.3061e-05
-0.000158942
1.14935e-05
-0.000163952
1.0022e-05
-0.000168269
8.64243e-06
-0.000171873
7.24516e-06
-0.000174959
6.15535e-06
-0.000177414
4.92133e-06
-0.000179369
3.91842e-06
-0.000180794
2.84209e-06
-0.000181679
1.76899e-06
-0.000182013
6.96619e-07
-0.00018187
-3.12063e-07
-0.000181094
-1.53867e-06
-0.000179737
-2.71348e-06
-0.000177862
-3.75463e-06
-0.000175385
-4.94661e-06
-0.000172301
-6.16169e-06
-0.000168626
-7.34777e-06
-0.000164304
-8.64729e-06
-0.000159366
-9.86353e-06
-0.00015375
-1.12319e-05
-0.000147593
-1.23191e-05
-0.000140737
-1.37135e-05
-0.000133226
-1.50232e-05
-0.000125042
-1.63672e-05
-0.000116147
-1.77853e-05
-0.000106694
-1.89123e-05
-9.65446e-05
-2.0289e-05
-8.57152e-05
-2.16546e-05
-7.425e-05
-2.29257e-05
-6.21726e-05
-2.4166e-05
-4.94702e-05
-2.54086e-05
-3.62325e-05
-2.64685e-05
-2.24324e-05
-2.75894e-05
-8.13341e-06
-2.85861e-05
6.55646e-06
-2.93674e-05
2.15697e-05
-3.0009e-05
3.67487e-05
-3.03434e-05
5.19443e-05
-3.03772e-05
6.69784e-05
-3.00515e-05
8.16503e-05
-2.9328e-05
9.5778e-05
-2.82427e-05
0.000109086
-2.65974e-05
0.000121437
-2.46913e-05
0.000132601
-2.23145e-05
0.000142344
-1.94784e-05
0.000150479
-1.62529e-05
0.000156878
-1.27908e-05
0.000161409
-9.05645e-06
0.000163923
-5.01612e-06
0.000164417
-9.95352e-07
0.000162901
3.02539e-06
0.000159301
7.20008e-06
0.000153795
1.10102e-05
0.000146457
1.46764e-05
0.000137569
1.77593e-05
0.000127221
2.06923e-05
0.000115883
2.26422e-05
0.000103554
2.4656e-05
9.07332e-05
2.56322e-05
7.75868e-05
2.62847e-05
6.42761e-05
2.66129e-05
5.07354e-05
2.70841e-05
3.71415e-05
2.7185e-05
2.34929e-05
2.73015e-05
9.83594e-06
2.73015e-05
-3.5687e-06
2.68016e-05
-1.675e-05
2.63547e-05
-2.9578e-05
2.56498e-05
-4.18778e-05
2.45957e-05
-5.36516e-05
2.35427e-05
-6.47403e-05
2.21739e-05
-7.51191e-05
2.07565e-05
-8.47963e-05
1.93505e-05
-9.36927e-05
1.7788e-05
-0.000101803
1.62184e-05
-0.000109179
1.4749e-05
-0.000115772
1.31882e-05
-0.000121649
1.17496e-05
-0.00012682
1.03417e-05
-0.000131308
8.98225e-06
-0.000135198
7.77988e-06
-0.000138522
6.6457e-06
-0.000141356
5.67156e-06
-0.00014373
4.75732e-06
-0.000145674
3.88441e-06
-0.000147241
3.13407e-06
-0.000148477
2.47274e-06
-0.000149383
1.81177e-06
-0.000149972
1.18398e-06
-0.000150207
4.64226e-07
-0.000150032
-3.52785e-07
-0.000149454
-1.17054e-06
-0.000148435
-2.02105e-06
-0.000146787
-3.3045e-06
-0.000144573
-4.43096e-06
-0.000141657
-5.83737e-06
-0.000137979
-7.35476e-06
-0.000133514
-8.93411e-06
-0.000128087
-1.08553e-05
-0.000121807
-1.25612e-05
-0.000114576
-1.44593e-05
-0.000106221
-1.67121e-05
-9.68864e-05
-1.86686e-05
-8.64639e-05
-2.08426e-05
-7.49969e-05
-2.29281e-05
-6.26606e-05
-2.46707e-05
-4.9373e-05
-2.65723e-05
-3.51513e-05
-2.84352e-05
-2.02991e-05
-2.9699e-05
-4.79125e-06
-3.10129e-05
1.13987e-05
-3.23707e-05
2.78322e-05
-3.28547e-05
4.45566e-05
-3.34425e-05
6.12925e-05
-3.34628e-05
7.78909e-05
-3.31804e-05
9.41944e-05
-3.26005e-05
0.000109925
-3.14528e-05
0.000124919
-2.99724e-05
0.000139026
-2.82067e-05
0.000152031
-2.60059e-05
0.000163774
-2.34803e-05
0.000174141
-2.07264e-05
0.000182964
-1.76412e-05
0.000190172
-1.44107e-05
0.000195633
-1.09201e-05
0.000199367
-7.46591e-06
0.000201263
-3.79344e-06
0.000201274
-2.67458e-08
0.000199355
3.82672e-06
0.000195548
7.61193e-06
0.000190055
1.09815e-05
0.000182885
1.4333e-05
0.000174095
1.75741e-05
0.000163964
2.02545e-05
0.000152486
2.29501e-05
2.54361e-05
-0.000183117
1.05543e-05
-0.000185852
8.19185e-06
-0.000187913
6.1754e-06
-0.000189309
4.1759e-06
-0.000190037
2.19072e-06
-0.000190092
1.88322e-07
-0.000189383
-2.12295e-06
-0.00018797
-4.24136e-06
-0.000185955
-6.05378e-06
-0.000183095
-8.58161e-06
-0.000179467
-1.0886e-05
-0.000175122
-1.30393e-05
-0.000169894
-1.57133e-05
-0.000163732
-1.84688e-05
-0.000156605
-2.13892e-05
-0.000148596
-2.40446e-05
-0.000139726
-2.6606e-05
-0.000129772
-2.98687e-05
-0.000118829
-3.2874e-05
-0.00010691
-3.5716e-05
-9.37966e-05
-3.93387e-05
-7.97173e-05
-4.22213e-05
-6.46979e-05
-4.50473e-05
-4.87199e-05
-4.79345e-05
-3.18477e-05
-5.05863e-05
-1.4122e-05
-5.31623e-05
4.17266e-06
-5.4829e-05
2.28485e-05
-5.59827e-05
4.19308e-05
-5.72053e-05
6.11699e-05
-5.76678e-05
8.01781e-05
-5.69755e-05
9.88676e-05
-5.60227e-05
0.000116968
-5.42511e-05
0.000134193
-5.16048e-05
0.000150294
-4.82455e-05
0.000164967
-4.39801e-05
0.000178039
-3.91729e-05
0.000189286
-3.37093e-05
0.000198503
-2.76184e-05
0.000205508
-2.09822e-05
0.000210207
-1.40941e-05
0.000212511
-6.89145e-06
0.000212384
3.45591e-07
0.000209735
7.89511e-06
0.000204717
1.50708e-05
0.000197451
2.17769e-05
0.000188043
2.81866e-05
0.00017671
3.39707e-05
0.000163601
3.93038e-05
0.000148947
4.38836e-05
0.000133049
4.76561e-05
0.000116029
5.10011e-05
9.83482e-05
5.30079e-05
7.99644e-05
5.50903e-05
6.1427e-05
5.55539e-05
4.26166e-05
5.64194e-05
2.4043e-05
5.56582e-05
5.69961e-06
5.50113e-05
-1.21942e-05
5.36321e-05
-2.95344e-05
5.19905e-05
-4.61599e-05
4.98541e-05
-6.20339e-05
4.75935e-05
-7.70083e-05
4.4906e-05
-9.10724e-05
4.21771e-05
-0.000104225
3.94477e-05
-0.000116368
3.64123e-05
-0.000127515
3.34353e-05
-0.000137734
3.06643e-05
-0.000146918
2.75791e-05
-0.00015525
2.49712e-05
-0.000162615
2.20952e-05
-0.000169057
1.93237e-05
-0.000174678
1.68591e-05
-0.000179379
1.40942e-05
-0.000183164
1.13569e-05
-0.000186092
8.78577e-06
-0.000188076
5.96069e-06
-0.000189327
3.76634e-06
-0.000189732
1.23008e-06
-0.000189323
-1.21656e-06
-0.000188076
-3.73973e-06
-0.000186031
-6.09748e-06
-0.000183107
-8.79214e-06
-0.000179502
-1.08226e-05
-0.000175062
-1.33186e-05
-0.00016976
-1.58887e-05
-0.000163587
-1.85401e-05
-0.000156632
-2.08465e-05
-0.000148828
-2.34064e-05
-0.000140223
-2.57996e-05
-0.00013088
-2.8019e-05
-0.000120894
-2.99583e-05
-0.000110205
-3.20679e-05
-9.88377e-05
-3.41162e-05
-8.67733e-05
-3.6216e-05
-7.39967e-05
-3.83415e-05
-6.04484e-05
-4.06522e-05
-4.62804e-05
-4.25301e-05
-3.1317e-05
-4.48972e-05
-1.57745e-05
-4.66362e-05
4.37515e-07
-4.86069e-05
1.7156e-05
-5.0179e-05
3.4293e-05
-5.14027e-05
5.17038e-05
-5.22069e-05
6.92039e-05
-5.25092e-05
8.66081e-05
-5.21454e-05
0.0001037
-5.12484e-05
0.000120289
-4.97289e-05
0.000136113
-4.74118e-05
0.000150979
-4.45502e-05
0.000164629
-4.09101e-05
0.000176847
-3.65647e-05
0.000187354
-3.14977e-05
0.000195983
-2.58651e-05
0.000202544
-1.96734e-05
0.000206894
-1.30049e-05
0.000208855
-5.8977e-06
0.000208421
1.29572e-06
0.000205524
8.63144e-06
0.000200188
1.5956e-05
0.000192533
2.2938e-05
0.000182682
2.95335e-05
0.000170822
3.55349e-05
0.000157144
4.09645e-05
0.000141911
4.56036e-05
0.000125364
4.95915e-05
0.000107817
5.25447e-05
8.95185e-05
5.4805e-05
7.07354e-05
5.62876e-05
5.17903e-05
5.68724e-05
3.28068e-05
5.67999e-05
1.40849e-05
5.60649e-05
-4.18706e-06
5.48011e-05
-2.18144e-05
5.28007e-05
-3.87029e-05
5.05732e-05
-5.47069e-05
4.80411e-05
-6.9714e-05
4.49815e-05
-8.3708e-05
4.20553e-05
-9.66748e-05
3.87908e-05
-0.000108568
3.56136e-05
-0.000119388
3.25561e-05
-0.000129163
2.93253e-05
-0.000137941
2.63673e-05
-0.000145754
2.34414e-05
-0.000152633
2.06755e-05
-0.000158655
1.80896e-05
-0.000163835
1.55689e-05
-0.000168264
1.32544e-05
-0.000171961
1.10882e-05
-0.000174945
8.96487e-06
-0.000177258
6.98477e-06
-0.000179013
5.24819e-06
-0.000180126
3.349e-06
-0.000180653
1.60426e-06
-0.00018058
-2.44644e-07
-0.000179965
-1.79582e-06
-0.000178728
-3.67492e-06
-0.000176887
-5.43706e-06
-0.000174542
-7.11556e-06
-0.000171527
-9.04711e-06
-0.000167869
-1.10311e-05
-0.000163547
-1.29319e-05
-0.00015851
-1.50655e-05
-0.000152898
-1.6883e-05
-0.000146524
-1.91116e-05
-0.000139438
-2.12863e-05
-0.000131597
-2.34943e-05
-0.000123006
-2.57515e-05
-0.000113614
-2.81955e-05
-0.000103421
-3.05501e-05
-9.23958e-05
-3.30878e-05
-8.05704e-05
-3.54614e-05
-6.78985e-05
-3.80205e-05
-5.4436e-05
-4.03695e-05
-4.02014e-05
-4.27333e-05
-2.52557e-05
-4.47652e-05
-9.6711e-06
-4.67423e-05
6.46894e-06
-4.8305e-05
2.29817e-05
-4.95325e-05
3.9793e-05
-5.03967e-05
5.67014e-05
-5.06709e-05
7.35044e-05
-5.0366e-05
9.00056e-05
-4.94452e-05
0.000105958
-4.77928e-05
0.000121114
-4.54254e-05
0.000135274
-4.24372e-05
0.000148204
-3.86928e-05
0.000159591
-3.41513e-05
0.000169307
-2.91044e-05
0.000177084
-2.33057e-05
0.000182796
-1.70999e-05
0.000186247
-1.03866e-05
0.000187395
-3.38966e-06
0.000186172
3.5802e-06
0.00018261
1.06542e-05
0.000176775
1.74907e-05
0.000168762
2.39502e-05
0.000158776
2.99515e-05
0.00014699
3.53164e-05
0.000133631
3.9976e-05
0.000118958
4.39019e-05
0.000103206
4.71508e-05
8.66457e-05
4.96849e-05
6.9504e-05
5.13943e-05
5.20077e-05
5.25182e-05
3.43468e-05
5.28522e-05
1.68219e-05
5.24951e-05
-4.02772e-07
5.16072e-05
-1.71279e-05
5.01708e-05
-3.32076e-05
4.82052e-05
-4.85604e-05
4.60266e-05
-6.31042e-05
4.36176e-05
-7.67464e-05
4.09291e-05
-8.94959e-05
3.83436e-05
-0.000101378
3.55549e-05
-0.000112322
3.27964e-05
-0.00012233
3.007e-05
-0.000131429
2.72916e-05
-0.000139624
2.46073e-05
-0.000146938
2.19517e-05
-0.000153416
1.95392e-05
-0.000159187
1.72651e-05
-0.000164193
1.50274e-05
-0.000168508
1.29575e-05
-0.000172136
1.08729e-05
-0.00017521
9.22977e-06
-0.000177663
7.37422e-06
-0.000179572
5.82732e-06
-0.00018103
4.29987e-06
-0.000181926
2.66541e-06
-0.000182228
9.98352e-07
-0.000182106
-4.34005e-07
-0.000181328
-2.31692e-06
-0.000180031
-4.00971e-06
-0.000178114
-5.67257e-06
-0.000175625
-7.43532e-06
-0.000172548
-9.23814e-06
-0.000168869
-1.10276e-05
-0.000164558
-1.29575e-05
-0.000159617
-1.48054e-05
-0.000154062
-1.67868e-05
-0.000147852
-1.85284e-05
-0.000140992
-2.05741e-05
-0.000133487
-2.25279e-05
-0.0001253
-2.45541e-05
-0.000116435
-2.66505e-05
-0.00010695
-2.83979e-05
-9.67925e-05
-3.04462e-05
-8.59687e-05
-3.24785e-05
-7.44542e-05
-3.44402e-05
-6.24223e-05
-3.61979e-05
-4.972e-05
-3.8111e-05
-3.64631e-05
-3.97254e-05
-2.26476e-05
-4.1405e-05
-8.31537e-06
-4.29184e-05
6.38427e-06
-4.40671e-05
2.14196e-05
-4.50445e-05
3.66381e-05
-4.55621e-05
5.18501e-05
-4.55893e-05
6.69142e-05
-4.51157e-05
8.16137e-05
-4.40276e-05
9.5752e-05
-4.23811e-05
0.000109098
-3.99435e-05
0.000121472
-3.70659e-05
0.000132661
-3.35033e-05
0.000142411
-2.92285e-05
0.000150569
-2.4411e-05
0.00015699
-1.92119e-05
0.000161536
-1.36025e-05
0.000164066
-7.5461e-06
0.000164567
-1.49578e-06
0.000163037
4.55517e-06
0.000159437
1.08e-05
0.000153925
1.65223e-05
0.000146594
2.20065e-05
0.000137673
2.66803e-05
0.000127322
3.10437e-05
0.000115925
3.40393e-05
0.000103586
3.69947e-05
9.07476e-05
3.84706e-05
7.75882e-05
3.9444e-05
6.4263e-05
3.99381e-05
5.07349e-05
4.06122e-05
3.71363e-05
4.07836e-05
2.34965e-05
4.09412e-05
9.82433e-06
4.09737e-05
-3.59104e-06
4.0217e-05
-1.67809e-05
3.95446e-05
-2.96147e-05
3.84836e-05
-4.19201e-05
3.69011e-05
-5.37005e-05
3.53231e-05
-6.47917e-05
3.32651e-05
-7.51736e-05
3.11383e-05
-8.48554e-05
2.90323e-05
-9.37538e-05
2.66864e-05
-0.000101863
2.43278e-05
-0.000109243
2.2129e-05
-0.000115832
1.97765e-05
-0.000121713
1.76313e-05
-0.000126886
1.5514e-05
-0.00013136
1.34563e-05
-0.000135247
1.16667e-05
-0.00013857
9.96942e-06
-0.000141405
8.50624e-06
-0.000143773
7.12491e-06
-0.000145717
5.82841e-06
-0.00014728
4.69785e-06
-0.000148517
3.70945e-06
-0.000149426
2.72048e-06
-0.00015001
1.76785e-06
-0.000150241
6.95605e-07
-0.000150066
-5.28042e-07
-0.0001495
-1.73661e-06
-0.000148473
-3.0477e-06
-0.000146833
-4.94423e-06
-0.000144626
-6.63868e-06
-0.00014172
-8.74347e-06
-0.000138042
-1.10325e-05
-0.000133583
-1.33925e-05
-0.000128161
-1.62774e-05
-0.000121888
-1.88348e-05
-0.000114654
-2.16933e-05
-0.0001063
-2.50658e-05
-9.69663e-05
-2.80024e-05
-8.65467e-05
-3.12621e-05
-7.50721e-05
-3.44027e-05
-6.27332e-05
-3.70097e-05
-4.94449e-05
-3.98607e-05
-3.52093e-05
-4.26708e-05
-2.03478e-05
-4.45606e-05
-4.84123e-06
-4.65195e-05
1.13837e-05
-4.85957e-05
2.7829e-05
-4.93001e-05
4.45694e-05
-5.0183e-05
6.1326e-05
-5.02196e-05
7.79369e-05
-4.97913e-05
9.42572e-05
-4.89209e-05
0.000110012
-4.72076e-05
0.000125018
-4.49788e-05
0.000139139
-4.23272e-05
0.000152166
-3.90335e-05
0.000163919
-3.52335e-05
0.000174299
-3.11059e-05
0.000183123
-2.64654e-05
0.000190335
-2.16228e-05
0.000195792
-1.63773e-05
0.000199523
-1.11966e-05
0.000201418
-5.68931e-06
0.000201416
-2.49219e-08
0.000199486
5.75705e-06
0.00019568
1.14175e-05
0.000190183
1.64789e-05
0.000183005
2.15108e-05
0.000174205
2.63742e-05
0.000164064
3.03952e-05
0.000152575
3.44395e-05
3.81702e-05
-0.000183207
1.40806e-05
-0.00018595
1.09351e-05
-0.000188019
8.24437e-06
-0.000189421
5.57804e-06
-0.00019014
2.90939e-06
-0.000190179
2.27418e-07
-0.000189465
-2.83737e-06
-0.000188054
-5.65225e-06
-0.000186041
-8.06628e-06
-0.000183183
-1.144e-05
-0.000179556
-1.45133e-05
-0.000175212
-1.73826e-05
-0.000170003
-2.09224e-05
-0.000163826
-2.4646e-05
-0.000156707
-2.85082e-05
-0.000148712
-3.20398e-05
-0.00013984
-3.54775e-05
-0.000129889
-3.98207e-05
-0.000118967
-4.37954e-05
-0.000107031
-4.76526e-05
-9.39187e-05
-5.24507e-05
-7.98312e-05
-5.63089e-05
-6.48043e-05
-6.00743e-05
-4.88279e-05
-6.3911e-05
-3.19362e-05
-6.74782e-05
-1.42063e-05
-7.08923e-05
4.12511e-06
-7.31605e-05
2.28289e-05
-7.46866e-05
4.19382e-05
-7.63147e-05
6.12041e-05
-7.69339e-05
8.02389e-05
-7.60105e-05
9.89587e-05
-7.47427e-05
0.000117091
-7.23831e-05
0.000134351
-6.88657e-05
0.000150481
-6.43757e-05
0.00016518
-5.86789e-05
0.000178277
-5.22698e-05
0.000189544
-4.49765e-05
0.000198775
-3.68496e-05
0.000205801
-2.80085e-05
0.000210501
-1.87938e-05
0.000212814
-9.20466e-06
0.00021266
4.99424e-07
0.000209989
1.05659e-05
0.000204978
2.00818e-05
0.000197701
2.90534e-05
0.000188267
3.76206e-05
0.000176919
4.53188e-05
0.000163801
5.24217e-05
0.000149096
5.85891e-05
0.000133176
6.35759e-05
0.000116122
6.80548e-05
9.84197e-05
7.071e-05
8.00023e-05
7.35077e-05
6.14279e-05
7.41283e-05
4.26181e-05
7.52292e-05
2.40022e-05
7.42741e-05
5.64988e-06
7.33636e-05
-1.22694e-05
7.15514e-05
-2.96265e-05
6.93476e-05
-4.62636e-05
6.64911e-05
-6.2153e-05
6.34829e-05
-7.71352e-05
5.98882e-05
-9.12083e-05
5.62503e-05
-0.000104366
5.26049e-05
-0.00011651
4.85566e-05
-0.000127658
4.45832e-05
-0.000137877
4.08839e-05
-0.000147042
3.6744e-05
-0.000155391
3.33197e-05
-0.000162752
2.94561e-05
-0.000169198
2.57698e-05
-0.000174823
2.24843e-05
-0.000179523
1.87941e-05
-0.000183306
1.51405e-05
-0.000186237
1.17168e-05
-0.000188215
7.93787e-06
-0.000189469
5.02041e-06
-0.000189861
1.62213e-06
-0.000189439
-1.63866e-06
-0.000188199
-4.97948e-06
-0.000186126
-8.17041e-06
-0.000183239
-1.16796e-05
-0.000179621
-1.44406e-05
-0.000175178
-1.77607e-05
-0.000169865
-2.12018e-05
-0.000163723
-2.46826e-05
-0.000156758
-2.78118e-05
-0.000148965
-3.1199e-05
-0.000140364
-3.44012e-05
-0.000131018
-3.7365e-05
-0.000121039
-3.99366e-05
-0.000110359
-4.27485e-05
-9.90078e-05
-4.54673e-05
-8.69711e-05
-4.82528e-05
-7.42087e-05
-5.11039e-05
-6.07401e-05
-5.4121e-05
-4.65194e-05
-5.67508e-05
-3.15629e-05
-5.98539e-05
-1.6025e-05
-6.21742e-05
1.9583e-07
-6.48278e-05
1.69257e-05