/*--------------------------------*- C++ -*----------------------------------*\
| =========                 |                                                 |
| \\      /  F ield         | OpenFOAM: The Open Source CFD Toolbox           |
|  \\    /   O peration     | Version:  3.0.1                                 |
|   \\  /    A nd           | Web:      www.OpenFOAM.org                      |
|    \\/     M anipulation  |                                                 |
\*---------------------------------------------------------------------------*/
FoamFile
{
    version     2.0;
    format      ascii;
    class       volScalarField;
    location    "28";
    object      p_rgh;
}
// * * * * * * * * * * * * * * * * * * * * * * * * * * * * * * * * * * * * * //

dimensions      [1 -1 -2 0 0 0 0];

internalField   nonuniform List<scalar> 
21420
(
-229.259
-247.166
-263.486
-278.181
-291.226
-302.661
-312.522
-320.852
-327.692
-333.076
-337.042
-339.598
-340.733
-340.483
-338.872
-335.819
-331.334
-325.399
-317.977
-309.02
-298.488
-286.322
-272.467
-256.881
-239.515
-220.353
-199.376
-176.585
-152.021
-125.747
-97.8431
-68.426
-37.6881
-5.97261
26.5593
59.8327
93.5196
127.21
160.497
193.013
224.332
254.055
281.761
307.06
329.611
349.089
365.209
377.745
386.517
391.382
392.214
389.067
381.882
370.772
355.934
337.589
315.977
291.385
264.168
234.693
203.357
170.56
136.709
102.206
67.447
32.7931
-1.38245
-33.4181
-65.5207
-96.5093
-126.103
-154.136
-180.484
-205.049
-227.772
-248.612
-267.557
-284.606
-299.772
-313.077
-324.553
-334.229
-342.148
-348.347
-352.882
-355.781
-357.084
-356.88
-355.224
-352.128
-347.637
-341.789
-334.601
-326.089
-316.26
-305.098
-292.574
-278.662
-263.327
-246.527
-228.226
-208.409
-187.064
-164.201
-139.86
-114.099
-87.0079
-58.7031
-29.084
1.16844
32.0869
63.428
94.9061
126.211
157.007
186.933
215.616
242.669
267.702
290.33
310.179
326.905
340.192
349.774
355.439
356.984
354.446
347.73
336.956
322.226
303.767
281.848
256.795
228.98
198.817
166.747
133.228
98.7305
63.7163
28.6319
-6.09956
-40.0902
-72.9844
-104.512
-134.43
-162.555
-188.769
-213
-235.221
-255.444
-273.71
-290.079
-304.634
-317.464
-328.663
-338.325
-346.539
-353.386
-358.934
-363.245
-366.373
-368.337
-369.141
-368.805
-367.334
-364.696
-360.864
-355.811
-349.49
-341.848
-332.833
-322.399
-310.476
-297.001
-281.926
-265.196
-246.778
-226.646
-204.788
-181.228
-156.012
-129.235
-101.071
-70.669
-40.0302
-8.39032
23.9008
56.506
89.0658
121.192
152.482
182.52
210.887
237.176
260.993
281.974
299.789
314.152
324.825
331.637
334.419
333.226
327.995
318.863
305.937
289.446
269.654
246.88
221.478
193.828
164.338
133.419
101.485
68.9429
36.1781
3.55959
-28.5761
-59.9295
-90.2392
-119.291
-146.901
-172.931
-197.278
-219.867
-240.652
-259.616
-276.769
-292.134
-305.746
-317.647
-327.892
-336.533
-343.615
-349.188
-353.299
-355.997
-357.302
-357.232
-355.836
-353.134
-349.125
-343.82
-337.214
-329.29
-320.031
-309.412
-297.408
-283.989
-269.119
-252.781
-234.955
-215.632
-194.807
-172.489
-148.704
-123.493
-96.9153
-69.0627
-40.0416
-9.96546
20.8688
52.2737
83.9906
115.713
147.098
177.773
207.341
235.393
261.511
285.294
306.359
324.351
338.957
349.914
357.022
360.113
359.148
354.138
345.129
332.21
315.631
295.659
272.601
246.808
218.698
188.69
157.215
124.712
91.6161
58.3365
25.2262
-7.2605
-33.9259
-63.9096
-92.5836
-119.694
-145.114
-168.762
-190.611
-210.65
-228.898
-245.394
-260.182
-273.323
-284.881
-294.919
-303.502
-310.692
-316.54
-321.095
-324.394
-326.467
-327.297
-326.884
-325.263
-322.373
-318.192
-312.661
-305.739
-297.383
-287.522
-276.1
-263.078
-248.4
-232.042
-213.982
-194.217
-172.782
-149.73
-125.127
-99.0768
-71.7384
-43.2712
-13.886
16.1134
46.7469
77.6553
108.525
139.051
168.879
197.671
225.11
250.843
274.558
295.932
314.686
330.573
343.357
352.843
358.868
361.306
359.703
354.278
345.162
332.519
316.685
297.998
-229.335
-247.24
-263.558
-278.251
-291.293
-302.725
-312.584
-320.912
-327.75
-333.132
-337.097
-339.652
-340.786
-340.539
-338.927
-335.875
-331.391
-325.459
-318.039
-309.085
-298.555
-286.392
-272.54
-256.957
-239.594
-220.433
-199.457
-176.667
-152.103
-125.828
-97.9212
-68.5
-37.755
-6.03363
26.5072
59.7922
93.4927
127.198
160.501
193.034
224.371
254.112
281.837
307.152
329.719
349.212
365.344
377.889
386.668
391.537
392.379
389.215
382.029
370.913
356.064
337.707
316.079
291.471
264.237
234.743
203.389
170.575
136.707
102.188
67.4156
32.7489
-1.43562
-33.4834
-65.593
-96.5869
-126.184
-154.22
-180.57
-205.135
-227.857
-248.697
-267.641
-284.688
-299.852
-313.155
-324.629
-334.303
-342.221
-348.419
-352.951
-355.849
-357.149
-356.945
-355.287
-352.19
-347.698
-341.849
-334.661
-326.15
-316.322
-305.161
-292.64
-278.73
-263.398
-246.6
-228.301
-208.486
-187.142
-164.279
-139.938
-114.174
-87.0805
-58.7721
-29.1462
1.11258
32.0398
63.3913
94.8814
126.2
157.01
186.952
215.652
242.722
267.773
290.418
310.284
327.025
340.325
349.917
355.59
357.145
354.597
347.879
337.097
322.357
303.884
281.949
256.878
229.044
198.861
166.77
133.231
98.7151
63.6833
28.5831
-6.16236
-40.1648
-73.0682
-104.603
-134.525
-162.653
-188.867
-213.097
-235.315
-255.535
-273.797
-290.162
-304.712
-317.538
-328.733
-338.39
-346.601
-353.444
-358.99
-363.299
-366.426
-368.388
-369.191
-368.856
-367.386
-364.749
-360.919
-355.868
-349.549
-341.909
-332.897
-322.466
-310.546
-297.075
-282.003
-265.275
-246.859
-226.729
-204.871
-181.312
-156.094
-129.311
-101.131
-70.757
-40.0975
-8.44512
23.8584
56.4774
89.0523
121.195
152.502
182.559
210.944
237.251
261.086
282.083
299.912
314.287
324.969
331.787
334.579
333.374
328.141
319.001
306.064
289.56
269.753
246.961
221.541
193.874
164.365
133.428
101.477
68.9194
36.1406
3.50975
-28.6364
-59.9984
-90.315
-119.372
-146.986
-173.018
-197.366
-219.954
-240.739
-259.701
-276.851
-292.214
-305.822
-317.721
-327.963
-336.601
-343.681
-349.252
-353.362
-356.058
-357.362
-357.288
-355.894
-353.191
-349.182
-343.878
-337.272
-329.349
-320.092
-309.474
-297.472
-284.054
-269.187
-252.85
-235.026
-215.704
-194.88
-172.563
-148.777
-123.565
-96.9857
-69.1302
-40.1049
-10.022
20.82
52.2343
83.9627
115.699
147.098
177.791
207.376
235.446
261.583
285.384
306.466
324.474
339.092
350.06
357.176
360.276
359.303
354.29
345.275
332.346
315.755
295.768
272.693
246.882
218.753
188.725
157.232
124.711
91.5993
58.3055
25.1817
-7.3282
-33.9831
-63.9855
-92.6647
-119.777
-145.197
-168.845
-190.692
-210.728
-228.974
-245.466
-260.251
-273.389
-284.943
-294.978
-303.559
-310.745
-316.592
-321.145
-324.442
-326.515
-327.345
-326.932
-325.314
-322.423
-318.244
-312.716
-305.796
-297.444
-287.585
-276.166
-263.146
-248.47
-232.114
-214.055
-194.291
-172.856
-149.802
-125.196
-99.1429
-71.7994
-43.3261
-13.9333
16.0722
46.7155
77.6352
108.517
139.056
168.899
197.705
225.159
250.908
274.637
296.025
314.791
330.689
343.483
352.977
359.009
361.458
359.84
354.412
345.291
332.639
316.794
298.094
-229.488
-247.389
-263.702
-278.389
-291.427
-302.854
-312.707
-321.032
-327.866
-333.245
-337.206
-339.761
-340.893
-340.651
-339.038
-335.987
-331.506
-325.577
-318.161
-309.213
-298.689
-286.532
-272.685
-257.108
-239.75
-220.593
-199.62
-176.831
-152.266
-125.989
-98.0772
-68.6477
-37.8888
-6.15502
26.4033
59.7117
93.4393
127.175
160.51
193.078
224.451
254.227
281.988
307.338
329.937
349.458
365.614
378.179
386.971
391.849
392.707
389.512
382.324
371.195
356.326
337.942
316.285
291.643
264.374
234.844
203.454
170.604
136.703
102.154
67.3535
32.6615
-1.53989
-33.6131
-65.7359
-96.7399
-126.344
-154.385
-180.737
-205.303
-228.025
-248.862
-267.803
-284.846
-300.006
-313.305
-324.775
-334.445
-342.358
-348.552
-353.08
-355.973
-357.268
-357.064
-355.401
-352.301
-347.807
-341.957
-334.769
-326.259
-316.433
-305.275
-292.758
-278.853
-263.526
-246.732
-228.438
-208.625
-187.284
-164.421
-140.078
-114.311
-87.2108
-58.8955
-29.2556
1.01579
31.9608
63.333
94.847
126.192
157.032
187.006
215.739
242.844
267.931
290.611
310.509
327.281
340.607
350.219
355.907
357.484
354.91
348.192
337.396
322.634
304.134
282.166
257.059
229.186
198.963
166.831
133.253
98.6994
63.6324
28.5005
-6.27296
-40.299
-73.2208
-104.77
-134.7
-162.833
-189.048
-213.276
-235.49
-255.703
-273.957
-290.313
-304.854
-317.672
-328.857
-338.507
-346.71
-353.548
-359.089
-363.395
-366.519
-368.478
-369.279
-368.948
-367.479
-364.844
-361.017
-355.97
-349.656
-342.021
-333.015
-322.589
-310.675
-297.21
-282.144
-265.422
-247.011
-226.884
-205.028
-181.468
-156.247
-129.453
-101.239
-70.9225
-40.2213
-8.5443
23.784
56.4303
89.0355
121.211
152.554
182.647
211.069
237.413
261.282
282.312
300.17
314.568
325.268
332.098
334.908
333.677
328.443
319.287
306.33
289.799
269.961
247.135
221.678
193.974
164.428
133.456
101.472
68.8829
36.0761
3.42065
-28.7464
-60.1257
-90.4561
-119.523
-147.144
-173.181
-197.53
-220.118
-240.9
-259.859
-277.005
-292.362
-305.965
-317.858
-328.095
-336.727
-343.803
-349.37
-353.476
-356.169
-357.469
-357.392
-355.999
-353.294
-349.286
-343.983
-337.378
-329.457
-320.203
-309.588
-297.59
-284.176
-269.312
-252.979
-235.157
-215.837
-195.015
-172.699
-148.913
-123.7
-97.1165
-69.2552
-40.2214
-10.125
20.7322
52.1654
83.9167
115.679
147.109
177.835
207.456
235.562
261.735
285.573
306.689
324.727
339.371
350.359
357.489
360.606
359.619
354.599
345.571
332.624
316.006
295.989
272.88
247.032
218.865
188.798
157.267
124.71
91.5663
58.2441
25.0934
-7.45937
-34.101
-64.1376
-92.8269
-119.942
-145.364
-169.009
-190.853
-210.885
-229.125
-245.611
-260.389
-273.52
-285.068
-295.097
-303.671
-310.853
-316.695
-321.245
-324.539
-326.609
-327.439
-327.029
-325.414
-322.525
-318.349
-312.825
-305.91
-297.564
-287.71
-276.297
-263.282
-248.61
-232.258
-214.201
-194.438
-173.002
-149.947
-125.336
-99.275
-71.9212
-43.4359
-14.0277
15.99
46.6526
77.5951
108.502
139.068
168.939
197.775
225.258
251.036
274.794
296.209
315.002
330.923
343.736
353.246
359.291
361.762
360.113
354.68
345.549
332.881
317.012
298.285
-229.718
-247.612
-263.918
-278.598
-291.627
-303.047
-312.893
-321.211
-328.04
-333.414
-337.37
-339.923
-341.054
-340.819
-339.204
-336.155
-331.678
-325.755
-318.345
-309.405
-298.89
-286.742
-272.904
-257.335
-239.984
-220.834
-199.865
-177.078
-152.512
-126.231
-98.3113
-68.8696
-38.0901
-6.33725
26.2473
59.5906
93.3589
127.139
160.523
193.142
224.569
254.401
282.216
307.617
330.263
349.827
366.019
378.613
387.426
392.316
393.194
389.964
382.768
371.618
356.718
338.296
316.593
291.902
264.58
234.996
203.551
170.648
136.697
102.101
67.2601
32.5303
-1.69598
-33.8083
-65.9505
-96.9696
-126.585
-154.633
-180.989
-205.555
-228.276
-249.11
-268.046
-285.083
-300.237
-313.53
-324.993
-334.657
-342.564
-348.752
-353.273
-356.158
-357.448
-357.241
-355.571
-352.467
-347.97
-342.117
-334.929
-326.421
-316.598
-305.444
-292.934
-279.036
-263.715
-246.929
-228.641
-208.833
-187.495
-164.632
-140.287
-114.514
-87.4047
-59.0796
-29.4174
0.872243
31.8439
63.2472
94.7972
126.183
157.066
187.088
215.872
243.029
268.169
290.902
310.85
327.667
341.033
350.676
356.384
357.987
355.389
348.668
337.847
323.053
304.511
282.494
257.332
229.401
199.117
166.925
133.288
98.6774
63.5576
28.378
-6.43754
-40.499
-73.4487
-105.018
-134.962
-163.102
-189.318
-213.543
-235.75
-255.954
-274.195
-290.539
-305.067
-317.871
-329.044
-338.681
-346.874
-353.702
-359.236
-363.537
-366.657
-368.611
-369.413
-369.084
-367.616
-364.985
-361.164
-356.122
-349.814
-342.186
-333.189
-322.773
-310.868
-297.412
-282.355
-265.642
-247.237
-227.116
-205.263
-181.702
-156.476
-129.667
-101.4
-71.1703
-40.4048
-8.69169
23.6736
56.3608
89.0115
121.237
152.632
182.78
211.258
237.656
261.578
282.657
300.557
314.991
325.718
332.564
335.397
334.14
328.901
319.72
306.731
290.159
270.274
247.397
221.886
194.126
164.525
133.5
101.465
68.8295
35.9807
3.28826
-28.9103
-60.3153
-90.6663
-119.749
-147.381
-173.423
-197.775
-220.363
-241.142
-260.095
-277.234
-292.584
-306.177
-318.062
-328.291
-336.915
-343.984
-349.544
-353.645
-356.334
-357.627
-357.549
-356.155
-353.448
-349.44
-344.138
-337.536
-329.618
-320.368
-309.758
-297.765
-284.356
-269.498
-253.17
-235.353
-216.036
-195.217
-172.902
-149.116
-123.901
-97.3116
-69.4416
-40.3957
-10.2781
20.6015
52.0629
83.8487
115.651
147.126
177.902
207.576
235.736
261.966
285.857
307.024
325.107
339.79
350.808
357.959
361.091
360.104
355.065
346.017
333.041
316.384
296.321
273.16
247.257
219.032
188.907
157.319
124.709
91.5167
58.1517
24.9618
-7.64271
-34.2917
-64.3672
-93.0707
-120.191
-145.613
-169.257
-191.096
-211.121
-229.352
-245.828
-260.596
-273.717
-285.255
-295.274
-303.84
-311.014
-316.85
-321.394
-324.685
-326.751
-327.579
-327.177
-325.565
-322.677
-318.506
-312.989
-306.081
-297.744
-287.898
-276.493
-263.486
-248.821
-232.474
-214.421
-194.659
-173.222
-150.163
-125.544
-99.4732
-72.1042
-43.6007
-14.1696
15.8665
46.5582
77.5348
108.479
139.086
168.999
197.878
225.406
251.228
275.03
296.486
315.317
331.272
344.116
353.649
359.714
362.21
360.528
355.085
345.937
333.243
317.339
298.572
-230.024
-247.91
-264.206
-278.875
-291.895
-303.304
-313.141
-321.45
-328.271
-333.639
-337.589
-340.138
-341.272
-341.042
-339.425
-336.378
-331.908
-325.991
-318.591
-309.662
-299.158
-287.021
-273.196
-257.637
-240.297
-221.155
-200.191
-177.407
-152.84
-126.553
-98.6237
-69.1659
-38.3595
-6.58065
26.0391
59.4289
93.2514
127.092
160.54
193.229
224.727
254.631
282.519
307.989
330.699
350.32
366.56
379.192
388.033
392.94
393.834
390.577
383.361
372.184
357.242
338.768
317.005
292.247
264.855
235.198
203.68
170.707
136.689
102.031
67.1352
32.3551
-1.90392
-34.0695
-66.2372
-97.2763
-126.906
-154.963
-181.325
-205.892
-228.611
-249.44
-268.37
-285.4
-300.545
-313.829
-325.284
-334.939
-342.837
-349.018
-353.529
-356.403
-357.69
-357.476
-355.797
-352.687
-348.187
-342.331
-335.142
-326.637
-316.817
-305.67
-293.168
-279.279
-263.968
-247.191
-228.912
-209.111
-187.775
-164.914
-140.566
-114.784
-87.663
-59.3265
-29.6319
0.680705
31.688
63.1329
94.7306
126.17
157.112
187.198
216.049
243.276
268.487
291.29
311.305
328.183
341.6
351.285
357.02
358.645
356.04
349.304
338.45
323.612
305.015
282.932
257.697
229.688
199.324
167.05
133.334
98.648
63.4576
28.2143
-6.65747
-40.766
-73.7531
-105.35
-135.312
-163.461
-189.679
-213.899
-236.097
-256.288
-274.513
-290.84
-305.35
-318.136
-329.292
-338.913
-347.092
-353.908
-359.432
-363.725
-366.839
-368.788
-369.592
-369.264
-367.799
-365.172
-361.358
-356.324
-350.025
-342.407
-333.422
-323.017
-311.124
-297.681
-282.637
-265.934
-247.539
-227.424
-205.575
-182.014
-156.782
-129.953
-101.635
-71.4806
-40.6477
-8.88794
23.5263
56.2681
88.9794
121.271
152.737
182.957
211.51
237.981
261.973
283.117
301.075
315.556
326.32
333.187
336.035
334.769
329.514
320.299
307.266
290.64
270.692
247.746
222.163
194.329
164.655
133.558
101.456
68.7581
35.8533
3.11157
-29.1289
-60.5684
-90.9468
-120.05
-147.696
-173.747
-198.102
-220.689
-241.464
-260.41
-277.54
-292.878
-306.46
-318.334
-328.552
-337.165
-344.224
-349.777
-353.87
-356.552
-357.838
-357.759
-356.362
-353.653
-349.646
-344.345
-337.746
-329.832
-320.587
-309.984
-297.998
-284.597
-269.747
-253.425
-235.613
-216.302
-195.486
-173.173
-149.387
-124.168
-97.5718
-69.6904
-40.6292
-10.4812
20.4272
51.9262
83.7577
115.614
147.149
177.991
207.735
235.969
262.273
286.236
307.471
325.614
340.349
351.408
358.585
361.728
360.755
355.691
346.613
333.598
316.889
296.764
273.534
247.558
219.256
189.053
157.389
124.706
91.45
58.0283
24.7876
-7.87568
-34.5583
-64.6753
-93.3962
-120.523
-145.947
-169.587
-191.419
-211.435
-229.654
-246.118
-260.872
-273.98
-285.504
-295.511
-304.065
-311.229
-317.057
-321.594
-324.879
-326.94
-327.768
-327.374
-325.763
-322.879
-318.715
-313.207
-306.31
-297.984
-288.149
-276.755
-263.758
-249.101
-232.763
-214.713
-194.954
-173.516
-150.451
-125.823
-99.7379
-72.3484
-43.8207
-14.3597
15.7015
46.4321
77.4542
108.449
139.109
169.079
198.016
225.603
251.485
275.344
296.856
315.738
331.739
344.621
354.187
360.276
362.792
361.093
355.63
346.456
333.726
317.776
298.955
-230.407
-248.282
-264.566
-279.223
-292.229
-303.625
-313.45
-321.749
-328.56
-333.92
-337.863
-340.406
-341.544
-341.318
-339.7
-336.658
-332.195
-326.287
-318.898
-309.982
-299.493
-287.371
-273.56
-258.015
-240.688
-221.556
-200.599
-177.818
-153.25
-126.957
-99.0148
-69.5368
-38.698
-6.88544
25.7784
59.2261
93.1163
127.032
160.561
193.336
224.924
254.92
282.897
308.454
331.243
350.936
367.237
379.917
388.792
393.719
394.623
391.353
384.106
372.891
357.896
339.358
317.519
292.679
265.198
235.451
203.842
170.78
136.678
101.943
66.9784
32.1358
-2.16413
-34.3972
-66.5962
-97.6604
-127.307
-155.377
-181.745
-206.313
-229.03
-249.854
-268.775
-285.796
-300.931
-314.204
-325.647
-335.293
-343.18
-349.35
-353.849
-356.712
-357.992
-357.769
-356.08
-352.963
-348.458
-342.598
-335.408
-326.906
-317.091
-305.951
-293.46
-279.582
-264.284
-247.519
-229.25
-209.457
-188.127
-165.267
-140.915
-115.123
-87.9863
-59.636
-29.9003
0.440398
31.4924
62.9894
94.6468
126.153
157.169
187.334
216.27
243.585
268.884
291.775
311.874
328.828
342.311
352.047
357.817
359.46
356.86
350.101
339.205
324.312
305.644
283.479
258.153
230.047
199.581
167.207
133.391
98.6104
63.3318
28.0087
-6.93336
-41.1008
-74.1348
-105.766
-135.75
-163.911
-190.131
-214.345
-236.531
-256.706
-274.912
-291.217
-305.705
-318.468
-329.602
-339.204
-347.364
-354.165
-359.676
-363.961
-367.066
-369.01
-369.815
-369.489
-368.028
-365.407
-361.601
-356.577
-350.289
-342.683
-333.713
-323.323
-311.445
-298.018
-282.988
-266.299
-247.916
-227.81
-205.966
-182.404
-157.165
-130.315
-101.95
-71.8487
-40.9495
-9.13336
23.3416
56.1515
88.9384
121.314
152.867
183.179
211.825
238.387
262.467
283.692
301.722
316.263
327.072
333.967
336.826
335.562
330.28
321.023
307.935
291.241
271.215
248.183
222.509
194.582
164.816
133.63
101.445
68.6682
35.6932
2.89
-29.4031
-60.8854
-91.2981
-120.427
-148.091
-174.152
-198.512
-221.097
-241.866
-260.804
-277.922
-293.247
-306.814
-318.674
-328.878
-337.478
-344.525
-350.068
-354.152
-356.825
-358.102
-358.021
-356.62
-353.91
-349.902
-344.604
-338.008
-330.1
-320.862
-310.267
-298.29
-284.899
-270.057
-253.743
-235.94
-216.634
-195.823
-173.512
-149.725
-124.502
-97.8975
-70.0021
-40.9223
-10.7351
20.2085
51.7546
83.6433
115.566
147.178
178.101
207.935
236.26
262.657
286.71
308.029
326.249
341.049
352.159
359.369
362.528
361.564
356.478
347.359
334.295
317.519
297.318
274.001
247.933
219.534
189.234
157.475
124.703
91.3659
57.8735
24.5711
-8.15838
-34.9014
-65.0635
-93.8039
-120.938
-146.364
-170.001
-191.823
-211.828
-230.032
-246.48
-261.218
-274.308
-285.816
-295.807
-304.347
-311.498
-317.314
-321.843
-325.121
-327.177
-328.005
-327.619
-326.009
-323.132
-318.977
-313.479
-306.596
-298.284
-288.463
-277.082
-264.098
-249.453
-233.123
-215.08
-195.322
-173.883
-150.813
-126.172
-100.069
-72.6542
-44.096
-14.5984
15.4949
46.2741
77.353
108.41
139.138
169.178
198.189
225.85
251.805
275.737
297.318
316.264
332.322
345.254
354.86
360.978
363.51
361.805
356.315
347.107
334.33
318.322
299.434
-230.866
-248.729
-264.998
-279.64
-292.63
-304.011
-313.822
-322.107
-328.907
-334.257
-338.192
-340.729
-341.871
-341.647
-340.03
-336.994
-332.538
-326.642
-319.267
-310.367
-299.895
-287.791
-273.997
-258.469
-241.158
-222.037
-201.089
-178.313
-153.743
-127.443
-99.4847
-69.9826
-39.1064
-7.25182
25.4648
58.982
92.9534
126.959
160.586
193.464
225.16
255.265
283.352
309.012
331.897
351.675
368.049
380.787
389.704
394.656
395.566
392.287
385.003
373.742
358.683
340.066
318.137
293.197
265.61
235.753
204.035
170.866
136.664
101.836
66.789
31.8722
-2.47738
-34.7916
-67.0279
-98.1221
-127.79
-155.874
-182.249
-206.819
-229.533
-250.35
-269.262
-286.271
-301.393
-314.654
-326.084
-335.717
-343.591
-349.749
-354.233
-357.084
-358.353
-358.12
-356.419
-353.293
-348.783
-342.919
-335.728
-327.229
-317.42
-306.289
-293.81
-279.947
-264.663
-247.913
-229.657
-209.874
-188.549
-165.691
-141.334
-115.531
-88.3742
-60.0008
-30.2309
0.150578
31.2568
62.8163
94.5453
126.132
157.236
187.497
216.534
243.955
269.361
292.357
312.556
329.602
343.164
352.962
358.776
360.438
357.846
351.058
340.113
325.153
306.4
284.136
258.701
230.478
199.89
167.393
133.459
98.5642
63.1796
27.7608
-7.26573
-41.504
-74.5943
-106.266
-136.277
-164.451
-190.674
-214.881
-237.053
-257.208
-275.39
-291.669
-306.13
-318.866
-329.975
-339.552
-347.691
-354.473
-359.969
-364.243
-367.338
-369.279
-370.083
-369.759
-368.302
-365.689
-361.893
-356.88
-350.605
-343.015
-334.062
-323.689
-311.83
-298.422
-283.41
-266.738
-248.369
-228.274
-206.436
-182.874
-157.626
-130.754
-102.345
-72.275
-41.31
-9.42836
23.119
56.0106
88.8883
121.363
153.023
183.444
212.202
238.875
263.06
284.383
302.5
317.112
327.976
334.905
337.776
336.515
331.201
321.893
308.74
291.963
271.843
248.707
222.924
194.886
165.009
133.717
101.429
68.5593
35.5001
2.62295
-29.7333
-61.2668
-91.7207
-120.88
-148.565
-174.639
-199.004
-221.587
-242.35
-261.276
-278.381
-293.689
-307.239
-319.083
-329.269
-337.853
-344.887
-350.417
-354.49
-357.151
-358.421
-358.336
-356.93
-354.217
-350.21
-344.914
-338.323
-330.421
-321.191
-310.606
-298.64
-285.26
-270.429
-254.126
-236.331
-217.033
-196.227
-173.92
-150.133
-124.904
-98.2892
-70.3771
-41.2754
-11.04
19.945
51.5475
83.5048
115.508
147.21
178.233
208.173
236.61
263.118
287.279
308.7
327.011
341.889
353.061
360.311
363.492
362.532
357.423
348.257
335.132
318.278
297.984
274.562
248.384
219.869
189.451
157.578
124.697
91.2639
57.6868
24.3126
-8.49013
-35.3228
-65.5327
-94.2943
-121.437
-146.864
-170.497
-192.309
-212.299
-230.487
-246.915
-261.632
-274.702
-286.189
-296.162
-304.685
-311.82
-317.624
-322.142
-325.412
-327.462
-328.291
-327.912
-326.304
-323.436
-319.29
-313.806
-306.938
-298.644
-288.839
-277.475
-264.506
-249.874
-233.556
-215.52
-195.765
-174.325
-151.246
-126.592
-100.467
-73.0219
-44.4267
-14.8861
15.2461
46.0838
77.231
108.364
139.172
169.298
198.395
226.145
252.189
276.208
297.872
316.895
333.022
346.014
355.667
361.82
364.369
362.66
357.139
347.889
335.057
318.977
300.008
-231.403
-249.25
-265.503
-280.126
-293.098
-304.462
-314.255
-322.526
-329.312
-334.651
-338.576
-341.107
-342.25
-342.028
-340.414
-337.385
-332.939
-327.057
-319.698
-310.816
-300.364
-288.281
-274.508
-258.999
-241.706
-222.599
-201.662
-178.89
-154.318
-128.01
-100.034
-70.5037
-39.5857
-7.68008
25.0977
58.6959
92.7621
126.873
160.613
193.613
225.435
255.668
283.882
309.663
332.66
352.539
368.998
381.804
390.77
395.75
396.668
393.377
386.051
374.736
359.602
340.893
318.859
293.801
266.09
236.106
204.259
170.966
136.647
101.71
66.5665
31.5639
-2.845
-35.2525
-67.5326
-98.6616
-128.354
-156.455
-182.839
-207.411
-230.121
-250.93
-269.831
-286.826
-301.933
-315.179
-326.594
-336.212
-344.07
-350.214
-354.681
-357.518
-358.775
-358.529
-356.815
-353.679
-349.161
-343.292
-336.101
-327.605
-317.804
-306.684
-294.219
-280.372
-265.106
-248.373
-230.132
-210.361
-189.043
-166.187
-141.824
-116.007
-88.8271
-60.4087
-30.6367
-0.189496
30.9805
62.6132
94.4256
126.106
157.313
187.686
216.841
244.385
269.916
293.035
313.353
330.505
344.16
354.032
359.896
361.582
358.995
352.175
341.174
326.135
307.282
284.903
259.34
230.98
200.25
167.61
133.537
98.5089
63.0006
27.4697
-7.65529
-41.9762
-75.1324
-106.852
-136.894
-165.083
-191.308
-215.508
-237.663
-257.795
-275.948
-292.197
-306.626
-319.331
-330.409
-339.958
-348.072
-354.832
-360.311
-364.571
-367.656
-369.591
-370.395
-370.074
-368.622
-366.017
-362.233
-357.234
-350.974
-343.402
-334.469
-324.117
-312.279
-298.894
-283.903
-267.25
-248.898
-228.816
-206.985
-183.423
-158.165
-131.27
-102.821
-72.7613
-41.7292
-9.77324
22.858
55.8447
88.8286
121.42
153.203
183.753
212.642
239.443
263.752
285.19
303.408
318.104
329.032
336.002
338.888
337.625
332.276
322.911
309.679
292.806
272.575
249.319
223.408
195.24
165.234
133.816
101.41
68.4308
35.2734
2.30994
-30.1199
-61.7131
-92.2151
-121.41
-149.12
-175.208
-199.579
-222.16
-242.915
-261.828
-278.916
-294.206
-307.736
-319.559
-329.726
-338.291
-345.308
-350.823
-354.884
-357.532
-358.794
-358.702
-357.291
-354.576
-350.569
-345.276
-338.69
-330.795
-321.576
-311.002
-299.049
-285.682
-270.864
-254.572
-236.788
-217.498
-196.699
-174.396
-150.608
-125.374
-98.7469
-70.8154
-41.6896
-11.3962
19.6359
51.3043
83.3417
115.438
147.247
178.386
208.451
237.016
263.655
287.942
309.483
327.901
342.871
354.114
361.411
364.618
363.661
358.527
349.306
336.11
319.163
298.76
275.216
248.91
220.258
189.704
157.697
124.69
91.1434
57.4673
24.0123
-8.86952
-35.8253
-66.0842
-94.8677
-122.021
-147.449
-171.077
-192.876
-212.85
-231.017
-247.423
-262.116
-275.161
-286.626
-296.575
-305.078
-312.196
-317.984
-322.49
-325.752
-327.795
-328.625
-328.252
-326.646
-323.79
-319.655
-314.187
-307.338
-299.063
-289.278
-277.933
-264.982
-250.367
-234.061
-216.033
-196.283
-174.84
-151.753
-127.082
-100.933
-73.4519
-44.8131
-15.2232
14.9544
45.8608
77.0877
108.309
139.211
169.436
198.636
226.49
252.637
276.757
298.519
317.632
333.84
346.9
356.609
362.803
365.372
363.658
358.104
348.804
335.905
319.742
300.679
-232.016
-249.847
-266.079
-280.682
-293.633
-304.976
-314.751
-323.004
-329.775
-335.101
-339.016
-341.54
-342.683
-342.464
-340.853
-337.833
-333.397
-327.53
-320.19
-311.329
-300.9
-288.841
-275.092
-259.605
-242.333
-223.243
-202.317
-179.551
-154.977
-128.659
-100.663
-71.1009
-40.1367
-8.17067
24.6766
58.3673
92.5418
126.774
160.644
193.781
225.748
256.128
284.488
310.408
333.533
353.527
370.084
382.967
391.988
397.001
397.93
394.622
387.252
375.874
360.653
341.84
319.684
294.492
266.639
236.508
204.514
171.08
136.625
101.564
66.3101
31.2104
-3.26789
-35.7806
-68.1107
-99.2795
-129
-157.12
-183.513
-208.087
-230.793
-251.593
-270.481
-287.461
-302.551
-315.78
-327.176
-336.778
-344.619
-350.746
-355.195
-358.015
-359.256
-358.996
-357.268
-354.121
-349.594
-343.719
-336.527
-328.035
-318.241
-307.135
-294.687
-280.859
-265.613
-248.899
-230.675
-210.917
-189.608
-166.755
-142.386
-116.553
-89.346
-60.8795
-31.0987
-0.579797
30.6633
62.3796
94.2873
126.074
157.4
187.9
217.192
244.877
270.551
293.811
314.264
331.539
345.301
355.257
361.178
362.894
360.308
353.454
342.388
327.258
308.292
285.78
260.07
231.553
200.66
167.857
133.624
98.444
62.7942
27.1348
-8.10275
-42.5184
-75.7499
-107.524
-137.601
-165.807
-192.035
-216.225
-238.36
-258.465
-276.587
-292.8
-307.193
-319.862
-330.905
-340.422
-348.507
-355.243
-360.701
-364.946
-368.02
-369.949
-370.752
-370.433
-368.988
-366.393
-362.622
-357.638
-351.396
-343.844
-334.934
-324.606
-312.793
-299.433
-284.466
-267.836
-249.504
-229.435
-207.613
-184.052
-158.783
-131.864
-103.374
-73.3102
-42.2077
-10.1684
22.5579
55.6534
88.7588
121.483
153.409
184.106
213.144
240.093
264.544
286.112
304.447
319.239
330.24
337.257
340.161
338.895
333.506
324.075
310.754
293.77
273.413
250.018
223.96
195.643
165.489
133.928
101.386
68.2824
35.0124
1.95027
-30.5636
-62.2252
-92.7816
-122.017
-149.755
-175.859
-200.237
-222.816
-243.561
-262.46
-279.529
-294.796
-308.303
-320.104
-330.248
-338.792
-345.79
-351.288
-355.333
-357.968
-359.219
-359.121
-357.704
-354.986
-350.98
-345.69
-339.109
-331.224
-322.015
-311.454
-299.517
-286.165
-271.361
-255.083
-237.311
-218.03
-197.239
-174.941
-151.153
-125.912
-99.2711
-71.3172
-42.1657
-11.8038
19.2806
51.0244
83.1533
115.357
147.287
178.56
208.767
237.48
264.269
288.701
310.378
328.919
343.993
355.32
362.672
365.907
364.953
359.79
350.508
337.228
320.177
299.648
275.965
249.511
220.703
189.992
157.831
124.679
91.0035
57.2142
23.6703
-9.29418
-36.4127
-66.7193
-95.5246
-122.689
-148.118
-171.739
-193.525
-213.48
-231.623
-248.003
-262.669
-275.686
-287.124
-297.048
-305.528
-312.625
-318.396
-322.888
-326.14
-328.176
-329.006
-328.64
-327.037
-324.193
-320.072
-314.623
-307.795
-299.542
-289.78
-278.458
-265.526
-250.93
-234.638
-216.621
-196.875
-175.43
-152.333
-127.643
-101.465
-73.9447
-45.2551
-15.6102
14.6192
45.6045
76.9227
108.245
139.255
169.593
198.91
226.883
253.15
277.385
299.258
318.475
334.775
347.914
357.687
363.926
366.521
364.798
359.207
349.851
336.876
320.618
301.446
-232.707
-250.518
-266.728
-281.308
-294.235
-305.555
-315.308
-323.541
-330.295
-335.607
-339.51
-342.026
-343.168
-342.952
-341.344
-338.335
-333.911
-328.062
-320.744
-311.906
-301.502
-289.471
-275.748
-260.288
-243.039
-223.967
-203.055
-180.296
-155.72
-129.391
-101.372
-71.7747
-40.7601
-8.72421
24.2005
57.9954
92.2917
126.66
160.676
193.97
226.099
256.645
285.17
311.246
334.516
354.639
371.307
384.277
393.362
398.412
399.352
396.025
388.604
377.156
361.837
342.905
320.613
295.269
267.255
236.96
204.8
171.206
136.599
101.398
66.0194
30.8108
-3.74706
-36.3763
-68.7628
-99.976
-129.728
-157.87
-184.273
-208.849
-231.549
-252.34
-271.213
-288.176
-303.246
-316.456
-327.832
-337.414
-345.236
-351.344
-355.772
-358.574
-359.798
-359.52
-357.778
-354.617
-350.08
-344.198
-337.007
-328.518
-318.734
-307.642
-295.212
-281.406
-266.183
-249.49
-231.287
-211.545
-190.245
-167.394
-143.018
-117.169
-89.932
-61.4168
-31.6147
-1.02038
30.3046
62.1148
94.1296
126.037
157.496
188.14
217.584
245.428
271.264
294.684
315.289
332.704
346.586
356.637
362.624
364.373
361.789
354.895
343.757
328.524
309.429
286.768
260.892
232.197
201.121
168.134
133.721
98.369
62.5597
26.7553
-8.60911
-43.1314
-76.4476
-108.283
-138.399
-166.625
-192.854
-217.033
-239.146
-259.221
-277.307
-293.48
-307.832
-320.46
-331.463
-340.944
-348.996
-355.704
-361.14
-365.367
-368.428
-370.351
-371.152
-370.836
-369.399
-366.815
-363.059
-358.092
-351.87
-344.342
-335.457
-325.156
-313.371
-300.04
-285.1
-268.496
-250.186
-230.134
-208.321
-184.761
-159.482
-132.536
-104.006
-73.9235
-42.7459
-10.6147
22.2181
55.4359
88.6785
121.552
153.638
184.501
213.708
240.823
265.435
287.151
305.617
320.519
331.603
338.672
341.598
340.325
334.893
325.387
311.965
294.857
274.356
250.804
224.581
196.096
165.775
134.052
101.358
68.1132
34.7165
1.54315
-31.0653
-62.8036
-93.4211
-122.702
-150.472
-176.594
-200.978
-223.555