/*--------------------------------*- C++ -*----------------------------------*\
| =========                 |                                                 |
| \\      /  F ield         | OpenFOAM: The Open Source CFD Toolbox           |
|  \\    /   O peration     | Version:  3.0.1                                 |
|   \\  /    A nd           | Web:      www.OpenFOAM.org                      |
|    \\/     M anipulation  |                                                 |
\*---------------------------------------------------------------------------*/
FoamFile
{
    version     2.0;
    format      ascii;
    class       surfaceScalarField;
    location    "71.2";
    object      phi;
}
// * * * * * * * * * * * * * * * * * * * * * * * * * * * * * * * * * * * * * //

dimensions      [0 3 -1 0 0 0 0];

internalField   nonuniform List<scalar> 
42423
(
-5.11504e-05
-1.41771e-05
-3.57179e-05
-1.54327e-05
-1.92544e-05
-1.64637e-05
-1.93718e-06
-1.73174e-05
1.60888e-05
-1.80261e-05
3.45666e-05
-1.8478e-05
5.36101e-05
-1.90437e-05
7.28081e-05
-1.91981e-05
9.18205e-05
-1.90126e-05
0.000110602
-1.87813e-05
0.00012886
-1.82587e-05
0.000146228
-1.73683e-05
0.000162522
-1.62939e-05
0.000177469
-1.49472e-05
0.000190817
-1.33477e-05
0.000202338
-1.15215e-05
0.000211783
-9.44457e-06
0.000218983
-7.20072e-06
0.0002238
-4.81737e-06
0.00022615
-2.34934e-06
0.000226066
8.30737e-08
0.000223503
2.56339e-06
0.000218349
5.1536e-06
0.000210895
7.45392e-06
0.000201194
9.70066e-06
0.000189603
1.15916e-05
0.00017625
1.3353e-05
0.000161272
1.49779e-05
0.000145068
1.62035e-05
0.000127836
1.72322e-05
0.000109792
1.80433e-05
9.12523e-05
1.85399e-05
7.24206e-05
1.88317e-05
5.35665e-05
1.88541e-05
3.48796e-05
1.86869e-05
1.65051e-05
1.83745e-05
-1.40776e-06
1.79128e-05
-1.87281e-05
1.73203e-05
-3.53041e-05
1.6576e-05
-5.10689e-05
1.57647e-05
-6.59633e-05
1.48944e-05
-7.9936e-05
1.39727e-05
-9.2983e-05
1.3047e-05
-0.000105072
1.20891e-05
-0.000116204
1.11324e-05
-0.000126411
1.02063e-05
-0.000135687
9.27633e-06
-0.000144051
8.36432e-06
-0.000151542
7.49049e-06
-0.000158148
6.60574e-06
-0.000163903
5.75563e-06
-0.000168838
4.9343e-06
-0.000172966
4.12845e-06
-0.000176324
3.35742e-06
-0.000178888
2.56486e-06
-0.000180677
1.7887e-06
-0.000181768
1.0914e-06
-0.000182123
3.5473e-07
-0.000181631
-4.92725e-07
-0.000180432
-1.19843e-06
-0.000178346
-2.08651e-06
-0.000175539
-2.80645e-06
-0.000171949
-3.58982e-06
-0.00016752
-4.42981e-06
-0.000162307
-5.21246e-06
-0.000156341
-5.96655e-06
-0.000149417
-6.92316e-06
-0.000141691
-7.7266e-06
-0.000133073
-8.61772e-06
-0.000123557
-9.51662e-06
-0.000113246
-1.03107e-05
-0.000102078
-1.11683e-05
-9.00289e-05
-1.20489e-05
-7.72489e-05
-1.278e-05
-6.3618e-05
-1.3631e-05
-4.93163e-05
-1.43018e-05
-3.42475e-05
-1.50689e-05
-1.8661e-05
-1.55866e-05
-2.47548e-06
-1.61856e-05
1.41911e-05
-1.66667e-05
3.12527e-05
-1.70617e-05
4.84691e-05
-1.72165e-05
6.58302e-05
-1.73613e-05
8.32144e-05
-1.73842e-05
0.000100406
-1.71919e-05
0.0001173
-1.68942e-05
0.000133664
-1.63639e-05
0.000149392
-1.57285e-05
0.000164244
-1.48516e-05
0.000177997
-1.37533e-05
0.000190437
-1.24401e-05
0.000201291
-1.08536e-05
0.00021031
-9.01965e-06
0.00021728
-6.96952e-06
0.000221996
-4.71691e-06
0.000224395
-2.39859e-06
0.000224436
-4.08246e-08
0.000222062
2.37403e-06
0.000217246
4.81531e-06
0.000210179
7.06706e-06
0.000200964
9.2145e-06
0.000189788
1.11764e-05
0.000176752
1.30356e-05
0.000162139
1.46133e-05
0.000146123
1.60161e-05
0.000128965
1.71574e-05
0.000110926
1.80388e-05
9.22503e-05
1.86761e-05
7.3162e-05
1.90883e-05
5.40002e-05
1.91618e-05
3.49898e-05
1.90104e-05
1.63433e-05
1.86464e-05
-1.793e-06
1.81363e-05
-1.92048e-05
1.74117e-05
-3.5803e-05
1.65982e-05
-5.14191e-05
1.56161e-05
-6.6041e-05
1.46219e-05
-7.95915e-05
1.35505e-05
-9.20647e-05
1.24732e-05
-0.000103473
1.14085e-05
-0.000113795
1.03214e-05
-0.000123064
9.26953e-06
-0.000131317
8.25257e-06
-0.000138665
7.3484e-06
-0.000145044
6.37852e-06
-0.000150494
5.45012e-06
-0.000155102
4.60786e-06
-0.000158905
3.803e-06
-0.000161894
2.98955e-06
-0.000164156
2.26203e-06
-0.000165704
1.54771e-06
-0.000166612
9.07725e-07
-0.000166878
2.66073e-07
-0.000166557
-3.20342e-07
-0.000165657
-9.00487e-07
-0.000164199
-1.45811e-06
-0.000162228
-1.97045e-06
-0.000159693
-2.53546e-06
-0.000156597
-3.09551e-06
-0.000153083
-3.51485e-06
-0.000148998
-4.0848e-06
-0.000144335
-4.66321e-06
-0.000139036
-5.29873e-06
-0.000133272
-5.76443e-06
-0.000126823
-6.44818e-06
-0.000119724
-7.09893e-06
-0.000111951
-7.77378e-06
-0.000103441
-8.50957e-06
-9.41392e-05
-9.30205e-06
-8.41873e-05
-9.95197e-06
-7.34049e-05
-1.07825e-05
-6.18135e-05
-1.15914e-05
-4.94683e-05
-1.23453e-05
-3.63508e-05
-1.31175e-05
-2.2503e-05
-1.3848e-05
-7.99267e-06
-1.45104e-05
7.13242e-06
-1.51252e-05
2.27573e-05
-1.5625e-05
3.8817e-05
-1.60598e-05
5.51672e-05
-1.63503e-05
7.16424e-05
-1.64753e-05
8.80882e-05
-1.64459e-05
0.00010435
-1.62621e-05
0.000120168
-1.58176e-05
0.000135382
-1.52144e-05
0.000149763
-1.43815e-05
0.000163013
-1.32502e-05
0.000174954
-1.19412e-05
0.000185342
-1.03877e-05
0.000193953
-8.61068e-06
0.000200622
-6.6691e-06
0.000205179
-4.55747e-06
0.000207524
-2.34531e-06
0.000207586
-6.19873e-08
0.000205292
2.29443e-06
0.000200645
4.64649e-06
0.000193798
6.84676e-06
0.000184833
8.96508e-06
0.000173923
1.09098e-05
0.000161233
1.26896e-05
0.000147025
1.42086e-05
0.000131532
1.54927e-05
0.000115037
1.64953e-05
9.77756e-05
1.7261e-05
8.00337e-05
1.77418e-05
6.2063e-05
1.79706e-05
4.40688e-05
1.79942e-05
2.61962e-05
1.78725e-05
8.70257e-06
1.74936e-05
-8.27866e-06
1.69812e-05
-2.46963e-05
1.64176e-05
-4.03249e-05
1.56285e-05
-5.51237e-05
1.47988e-05
-6.89588e-05
1.38351e-05
-8.18621e-05
1.29033e-05
-9.36496e-05
1.17875e-05
-0.000104348
1.06987e-05
-0.000114075
9.72696e-06
-0.000122789
8.7134e-06
-0.000130598
7.80881e-06
-0.000137627
7.02958e-06
-0.000143959
6.33195e-06
-0.000149627
5.66788e-06
-0.00015468
5.05295e-06
-0.00015905
4.37021e-06
-0.000162683
3.63291e-06
-0.00016566
2.97651e-06
-0.000167837
2.17697e-06
-0.000169346
1.50957e-06
-0.0001702
8.54255e-07
-0.00017045
2.49117e-07
-0.000170195
-2.54186e-07
-0.000169482
-7.13655e-07
-0.000168269
-1.21299e-06
-0.000166635
-1.63394e-06
-0.000164474
-2.16043e-06
-0.000161774
-2.7007e-06
-0.000158409
-3.3652e-06
-0.000154385
-4.02369e-06
-0.000149829
-4.55617e-06
-0.00014455
-5.2784e-06
-0.000138617
-5.93292e-06
-0.000132008
-6.60911e-06
-0.000124631
-7.37758e-06
-0.000116673
-7.95814e-06
-0.000107869
-8.80345e-06
-9.82599e-05
-9.60941e-06
-8.78298e-05
-1.04301e-05
-7.64661e-05
-1.13638e-05
-6.44167e-05
-1.20495e-05
-5.14744e-05
-1.29424e-05
-3.77127e-05
-1.37618e-05
-2.31787e-05
-1.45341e-05
-7.9499e-06
-1.52289e-05
7.81887e-06
-1.57689e-05
2.41224e-05
-1.63037e-05
4.08018e-05
-1.66795e-05
5.76764e-05
-1.68748e-05
7.4558e-05
-1.68816e-05
9.11738e-05
-1.6616e-05
0.000107319
-1.61453e-05
0.000122734
-1.54153e-05
0.000137173
-1.4439e-05
0.000150396
-1.32225e-05
0.000162164
-1.17686e-05
0.000172251
-1.0087e-05
0.000180458
-8.20675e-06
0.000186604
-6.14645e-06
0.000190524
-3.92036e-06
0.000192095
-1.57143e-06
0.000191299
7.96213e-07
0.000188053
3.24556e-06
0.000182412
5.64139e-06
0.000174424
7.98786e-06
0.000164283
1.0141e-05
0.000152213
1.20702e-05
0.000138458
1.37544e-05
0.000123215
1.5243e-05
0.00010683
1.63854e-05
8.95379e-05
1.72916e-05
7.16426e-05
1.78952e-05
5.33937e-05
1.82489e-05
3.50578e-05
1.83358e-05
1.67843e-05
1.82735e-05
-1.23903e-06
1.80233e-05
-1.87307e-05
1.74917e-05
-3.56068e-05
1.6876e-05
-5.17227e-05
1.61158e-05
-6.68711e-05
1.51484e-05
-8.10435e-05
1.41723e-05
-9.41167e-05
1.30732e-05
-0.000106045
1.19285e-05
-0.000116903
1.08579e-05
-0.000126492
9.58906e-06
-0.000135002
8.50946e-06
-0.000142379
7.37726e-06
-0.000148637
6.25822e-06
-0.000153828
5.19035e-06
-0.000157898
4.07014e-06
-0.000160935
3.03748e-06
-0.000163051
2.11572e-06
-0.000164286
1.23545e-06
-0.000164875
5.88792e-07
-0.000164783
-9.23266e-08
-0.000164004
-7.78702e-07
-0.000162858
-1.14581e-06
-0.000161341
-1.51742e-06
-0.000159355
-1.98609e-06
-0.000157164
-2.19101e-06
-0.000154545
-2.61894e-06
-0.000151644
-2.90137e-06
-0.000148458
-3.18607e-06
-0.000144847
-3.61046e-06
-0.000140827
-4.01982e-06
-0.000136413
-4.4148e-06
-0.000131348
-5.06423e-06
-0.000125633
-5.71551e-06
-0.000119244
-6.38933e-06
-0.000111924
-7.31939e-06
-0.000103773
-8.15095e-06
-9.45166e-05
-9.25668e-06
-8.41894e-05
-1.03272e-05
-7.29035e-05
-1.1286e-05
-6.03938e-05
-1.25098e-05
-4.67334e-05
-1.36605e-05
-3.21848e-05
-1.45486e-05
-1.64881e-05
-1.56968e-05
9.2012e-08
-1.65801e-05
1.74856e-05
-1.73936e-05
3.55483e-05
-1.80629e-05
5.38517e-05
-1.83034e-05
7.2355e-05
-1.85034e-05
9.07931e-05
-1.84382e-05
0.000108749
-1.79561e-05
0.000126073
-1.73238e-05
0.00014244
-1.63672e-05
0.000157599
-1.51592e-05
0.000171294
-1.36952e-05
0.000183212
-1.19179e-05
0.000193216
-1.00041e-05
0.00020112
-7.90405e-06
0.000206798
-5.67788e-06
0.000210217
-3.41974e-06
0.000211316
-1.09864e-06
0.000210061
1.25454e-06
0.000206458
3.60348e-06
0.000200544
5.91417e-06
0.000192694
7.84977e-06
0.000183063
9.63082e-06
0.000171773
1.12895e-05
0.000159139
1.26342e-05
0.000145304
1.3835e-05
0.000130463
1.48411e-05
0.000114874
1.55887e-05
9.87596e-05
1.61144e-05
8.23401e-05
1.64194e-05
6.57138e-05
1.66263e-05
4.90232e-05
1.66906e-05
3.24454e-05
1.65778e-05
1.60756e-05
1.63698e-05
6.03437e-08
1.60152e-05
-1.55627e-05
1.5623e-05
-3.07135e-05
1.51508e-05
-4.52759e-05
1.45624e-05
-5.92304e-05
1.39545e-05
-7.248e-05
1.32496e-05
-8.49593e-05
1.24792e-05
-9.66575e-05
1.16982e-05
-0.000107505
1.08472e-05
-0.000117459
9.95462e-06
-0.000126511
9.05198e-06
-0.000134632
8.12037e-06
-0.000141818
7.18622e-06
-0.00014805
6.2316e-06
-0.000153315
5.26499e-06
-0.000157631
4.31595e-06
3.3069e-06
-5.1188e-05
-2.83554e-05
-3.57524e-05
-3.08687e-05
-1.92863e-05
-3.29302e-05
-1.96499e-06
-3.46391e-05
1.60633e-05
-3.60548e-05
3.4552e-05
-3.69669e-05
5.36056e-05
-3.80977e-05
7.28135e-05
-3.84064e-05
9.18383e-05
-3.80377e-05
0.000110631
-3.75743e-05
0.000128903
-3.65306e-05
0.000146286
-3.47522e-05
0.000162594
-3.26017e-05
0.000177564
-2.99174e-05
0.000190932
-2.67168e-05
0.000202469
-2.30579e-05
0.00021192
-1.88965e-05
0.000219115
-1.4396e-05
0.000223929
-9.63081e-06
0.000226298
-4.71906e-06
0.000226206
1.75025e-07
0.00022362
5.14878e-06
0.000218467
1.03066e-05
0.000211007
1.49139e-05
0.000201304
1.94036e-05
0.000189696
2.31991e-05
0.000176331
2.67176e-05
0.000161341
2.99683e-05
0.000145125
3.24194e-05
0.00012788
3.44771e-05
0.000109824
3.60988e-05
9.1273e-05
3.7091e-05
7.24308e-05
3.76738e-05
5.3568e-05
3.77167e-05
3.48827e-05
3.73721e-05
1.64917e-05
3.67653e-05
-1.42767e-06
3.58321e-05
-1.87534e-05
3.46459e-05
-3.53355e-05
3.31581e-05
-5.11038e-05
3.1533e-05
-6.60008e-05
2.97914e-05
-7.99767e-05
2.79485e-05
-9.30256e-05
2.60959e-05
-0.000105119
2.41823e-05
-0.000116258
2.22714e-05
-0.000126467
2.04156e-05
-0.000135743
1.85524e-05
-0.00014411
1.67313e-05
-0.000151597
1.49772e-05
-0.000158203
1.32116e-05
-0.000163962
1.15143e-05
-0.000168896
9.86913e-06
-0.000173027
8.25882e-06
-0.000176383
6.7139e-06
-0.000178955
5.1361e-06
-0.00018075
3.58446e-06
-0.00018184
2.1808e-06
-0.000182187
7.01603e-07
-0.000181697
-9.82053e-07
-0.000180502
-2.3937e-06
-0.000178411
-4.17733e-06
-0.000175606
-5.61204e-06
-0.000172019
-7.17642e-06
-0.00016759
-8.85873e-06
-0.00016237
-1.04327e-05
-0.000156411
-1.1926e-05
-0.000149471
-1.38627e-05
-0.000141757
-1.54409e-05
-0.000133149
-1.72261e-05
-0.000123625
-1.90406e-05
-0.000113312
-2.06235e-05
-0.00010214
-2.23406e-05
-9.0088e-05
-2.41009e-05
-7.73032e-05
-2.5565e-05
-6.36672e-05
-2.72672e-05
-4.93638e-05
-2.86053e-05
-3.42818e-05
-3.01511e-05
-1.86892e-05
-3.11794e-05
-2.50529e-06
-3.23697e-05
1.4169e-05
-3.33412e-05
3.12289e-05
-3.41217e-05
4.846e-05
-3.44478e-05
6.58366e-05
-3.47381e-05
8.32285e-05
-3.47764e-05
0.00010043
-3.43931e-05
0.000117339
-3.38043e-05
0.000133721
-3.27459e-05
0.000149457
-3.14644e-05
0.000164324
-2.97194e-05
0.000178101
-2.75299e-05
0.000190555
-2.48947e-05
0.000201425
-2.17232e-05
0.00021046
-1.80552e-05
0.000217446
-1.39555e-05
0.000222172
-9.44304e-06
0.000224568
-4.79544e-06
0.000224592
-6.44946e-08
0.000222205
4.761e-06
0.000217391
9.62871e-06
0.000210317
1.41412e-05
0.000201087
1.84445e-05
0.000189896
2.23675e-05
0.000176843
2.60884e-05
0.00016221
2.92456e-05
0.000146178
3.20486e-05
0.000129008
3.43271e-05
0.000110948
3.60983e-05
9.2261e-05
3.73635e-05
7.31607e-05
3.81885e-05
5.39839e-05
3.83386e-05
3.49642e-05
3.803e-05
1.63017e-05
3.7309e-05
-1.85767e-06
3.62956e-05
-1.92748e-05
3.48288e-05
-3.58762e-05
3.31996e-05
-5.15007e-05
3.12406e-05
-6.61334e-05
2.92546e-05
-7.96868e-05
2.71039e-05
-9.21614e-05
2.49478e-05
-0.000103576
2.28228e-05
-0.000113909
2.06542e-05
-0.000123189
1.85501e-05
-0.000131444
1.65071e-05
-0.000138795
1.46999e-05
-0.000145177
1.27607e-05
-0.000150636
1.09091e-05
-0.00015523
9.2017e-06
-0.000159064
7.63727e-06
-0.000162056
5.98137e-06
-0.000164323
4.52838e-06
-0.000165887
3.11226e-06
-0.000166784
1.80427e-06
-0.000167051
5.33099e-07
-0.000166744
-6.27307e-07
-0.000165847
-1.7974e-06
-0.000164387
-2.91847e-06
-0.000162417
-3.9403e-06
-0.000159892
-5.06044e-06
-0.000156845
-6.14196e-06
-0.000153299
-7.06088e-06
-0.000149212
-8.17212e-06
-0.000144548
-9.32715e-06
-0.00013926
-1.05875e-05
-0.000133497
-1.15267e-05
-0.000127046
-1.28997e-05
-0.000119943
-1.42014e-05
-0.000112152
-1.5565e-05
-0.000103638
-1.70241e-05
-9.43424e-05
-1.85976e-05
-8.43897e-05
-1.99048e-05
-7.36042e-05
-2.15681e-05
-6.20096e-05
-2.31861e-05
-4.9657e-05
-2.46982e-05
-3.65339e-05
-2.62408e-05
-2.26791e-05
-2.7703e-05
-8.16004e-06
-2.90296e-05
6.99521e-06
-3.02807e-05
2.26409e-05
-3.1271e-05
3.87225e-05
-3.21416e-05
5.50773e-05
-3.27053e-05
7.15687e-05
-3.2967e-05
8.8033e-05
-3.29105e-05
0.000104298
-3.25278e-05
0.00012014
-3.16591e-05
0.000135377
-3.04516e-05
0.000149794
-2.87988e-05
0.000163032
-2.64886e-05
0.000174984
-2.3894e-05
0.000185395
-2.07981e-05
0.000194009
-1.72257e-05
0.000200695
-1.33547e-05
0.000205267
-9.13035e-06
0.000207617
-4.69551e-06
0.000207675
-1.20244e-07
0.000205378
4.59112e-06
0.000200733
9.29213e-06
0.000193883
1.36957e-05
0.000184911
1.79379e-05
0.00017399
2.18306e-05
0.000161289
2.53904e-05
0.000147069
2.84277e-05
0.000131565
3.09965e-05
0.000115051
3.30096e-05
9.77751e-05
3.45367e-05
8.0019e-05
3.54979e-05
6.20245e-05
3.5965e-05
4.40081e-05
3.60105e-05
2.61349e-05
3.57457e-05
8.62855e-06
3.49999e-05
-8.3694e-06
3.39791e-05
-2.47944e-05
3.28426e-05
-4.04328e-05
3.12668e-05
-5.52455e-05
2.96115e-05
-6.91231e-05
2.77126e-05
-8.20047e-05
2.57849e-05
-9.38006e-05
2.35834e-05
-0.000104532
2.14297e-05
-0.000114215
1.94106e-05
-0.000122943
1.74411e-05
-0.000130775
1.56408e-05
-0.000137801
1.40558e-05
-0.000144123
1.26536e-05
-0.000149809
1.13536e-05
-0.000154854
1.00981e-05
-0.000159242
8.7578e-06
-0.000162899
7.2899e-06
-0.000165866
5.94395e-06
-0.000168055
4.36597e-06
-0.000169556
3.01017e-06
-0.000170407
1.70573e-06
-0.000170672
5.13944e-07
-0.000170401
-5.24728e-07
-0.000169683
-1.43235e-06
-0.000168478
-2.41745e-06
-0.000166847
-3.26494e-06
-0.000164686
-4.32158e-06
-0.000161973
-5.41391e-06
-0.00015857
-6.76859e-06
-0.000154641
-7.9521e-06
-0.000150033
-9.16449e-06
-0.000144754
-1.05573e-05
-0.000138812
-1.18748e-05
-0.000132197
-1.32243e-05
-0.000124853
-1.47223e-05
-0.000116854
-1.59568e-05
-0.000108051
-1.76068e-05
-9.84341e-05
-1.92262e-05
-8.79881e-05
-2.08763e-05
-7.6685e-05
-2.26671e-05
-6.4568e-05
-2.41666e-05
-5.16085e-05
-2.59021e-05
-3.78436e-05
-2.75269e-05
-2.3306e-05
-2.90719e-05
-8.08951e-06
-3.04456e-05
7.72478e-06
-3.15834e-05
2.40404e-05
-3.26195e-05
4.07298e-05
-3.33692e-05
5.76203e-05
-3.37655e-05
7.45197e-05
-3.37813e-05
9.11485e-05
-3.32451e-05
0.000107309
-3.23062e-05
0.00012274
-3.08465e-05
0.000137191
-2.88906e-05
0.000150432
-2.64635e-05
0.00016221
-2.35469e-05
0.000172316
-2.01928e-05
0.000180536
-1.64271e-05
0.000186683
-1.22939e-05
0.000190602
-7.83967e-06
0.000192171
-3.14059e-06
0.000191359
1.60774e-06
0.000188102
6.50326e-06
0.000182445
1.12974e-05
0.000174478
1.59548e-05
0.000164331
2.02881e-05
0.000152239
2.41619e-05
0.000138474
2.7519e-05
0.000123223
3.04938e-05
0.000106832
3.27761e-05
8.95318e-05
3.45919e-05
7.16273e-05
3.57996e-05
5.33724e-05
3.65037e-05
3.50197e-05
3.66883e-05
1.67464e-05
3.65467e-05
-1.28069e-06
3.60503e-05
-1.87817e-05
3.49925e-05
-3.56641e-05
3.37583e-05
-5.17802e-05
3.22319e-05
-6.69362e-05
3.03044e-05
-8.11073e-05
2.83433e-05
-9.41879e-05
2.61538e-05
-0.000106113
2.38537e-05
-0.000116976
2.1721e-05
-0.000126573
1.91855e-05
-0.000135082
1.70187e-05
-0.000142456
1.47513e-05
-0.00014871
1.25125e-05
-0.000153902
1.03819e-05
-0.000157971
8.13874e-06
-0.00016102
6.08716e-06
-0.000163134
4.22978e-06
-0.000164356
2.45658e-06
-0.000164941
1.17412e-06
-0.000164832
-2.00922e-07
-0.000164056
-1.55537e-06
-0.000162906
-2.29582e-06
-0.000161384
-3.03862e-06
-0.000159397
-3.97396e-06
-0.000157204
-4.3832e-06
-0.000154586
-5.23736e-06
-0.000151689
-5.79833e-06
-0.0001485
-6.37506e-06
-0.000144892
-7.21873e-06
-0.000140874
-8.03811e-06
-0.000136463
-8.82585e-06
-0.000131402
-1.01253e-05
-0.000125689
-1.14287e-05
-0.000119302
-1.2776e-05
-0.000111985
-1.46365e-05
-0.000103837
-1.62989e-05
-9.45824e-05
-1.85116e-05
-8.42562e-05
-2.06535e-05
-7.2972e-05
-2.25702e-05
-6.04625e-05
-2.50195e-05
-4.67932e-05
-2.73299e-05
-3.22378e-05
-2.91043e-05
-1.65274e-05
-3.14074e-05
5.12411e-08
-3.31589e-05
1.7453e-05
-3.47955e-05
3.55259e-05
-3.6136e-05
5.38406e-05
-3.66183e-05
7.23564e-05
-3.70193e-05
9.081e-05
-3.68921e-05
0.000108779
-3.59256e-05
0.000126121
-3.46656e-05
0.000142505
-3.27518e-05
0.000157683
-3.03374e-05
0.000171398
-2.74105e-05
0.000183334
-2.38536e-05
0.00019335
-2.00202e-05
0.000201253
-1.58075e-05
0.000206924
-1.13491e-05
0.000210336
-6.83136e-06
0.000211438
-2.20064e-06
0.000210171
2.52065e-06
0.000206565
7.21011e-06
0.000200644
1.18342e-05
0.000192786
1.57082e-05
0.000183146
1.92709e-05
0.000171846
2.25893e-05
0.0001592
2.52795e-05
0.00014536
2.76757e-05
0.000130509
2.96918e-05
0.000114912
3.11854e-05
9.87851e-05
3.22411e-05
8.2357e-05
3.28475e-05
6.57227e-05
3.32606e-05
4.90256e-05
3.33875e-05
3.2442e-05
3.31613e-05
1.60683e-05
3.27435e-05
4.81145e-08
3.20353e-05
-1.55784e-05
3.12495e-05
-3.07347e-05
3.03071e-05
-4.53041e-05
2.91317e-05
-5.92612e-05
2.79116e-05
-7.25129e-05
2.65013e-05
-8.49947e-05
2.4961e-05
-9.66944e-05
2.33979e-05
-0.000107542
2.16952e-05
-0.000117497
1.99094e-05
-0.000126549
1.8104e-05
-0.00013467
1.62407e-05
-0.000141855
1.43715e-05
-0.000148085
1.24621e-05
-0.000153353
1.05329e-05
-0.000157672
8.6347e-06
6.60964e-06
-5.12612e-05
-4.25376e-05
-3.58189e-05
-4.63113e-05
-1.93484e-05
-4.94011e-05
-2.01845e-06
-5.19694e-05
1.60261e-05
-5.40997e-05
3.4536e-05
-5.54771e-05
5.36099e-05
-5.71718e-05
7.28428e-05
-5.76396e-05
9.18972e-05
-5.70924e-05
0.000110718
-5.63952e-05
0.00012902
-5.48326e-05
0.000146433
-5.21655e-05
0.000162759
-4.89284e-05
0.000177744
-4.49023e-05
0.000191124
-4.00976e-05
0.00020267
-3.46043e-05
0.000212137
-2.83631e-05
0.000219356
-2.16159e-05
0.000224175
-1.44491e-05
0.00022654
-7.08436e-06
0.000226418
2.96655e-07
0.000223805
7.76122e-06
0.000218651
1.54608e-05
0.000211179
2.23856e-05
0.000201466
2.9116e-05
0.00018984
3.48252e-05
0.000176455
4.01022e-05
0.000161444
4.49795e-05
0.000145207
4.86562e-05
0.00012794
5.17438e-05
0.000109864
5.41753e-05
9.12928e-05
5.56617e-05
7.24327e-05
5.65339e-05
5.35556e-05
5.65937e-05
3.48593e-05
5.60684e-05
1.64553e-05
5.51692e-05
-1.47892e-06
5.37663e-05
-1.88141e-05
5.19811e-05
-3.54038e-05
4.97477e-05
-5.11795e-05
4.73087e-05
-6.60822e-05
4.46939e-05
-8.00608e-05
4.19271e-05
-9.3111e-05
3.91461e-05
-0.000105204
3.62757e-05
-0.000116342
3.34086e-05
-0.00012655
3.06244e-05
-0.000135827
2.78287e-05
-0.000144194
2.50981e-05
-0.00015168
2.24639e-05
-0.000158289
1.98204e-05
-0.000164051
1.72763e-05
-0.000168981
1.47993e-05
-0.000173112
1.23889e-05
-0.000176469
1.00718e-05
-0.000179041
7.70741e-06
-0.000180832
5.3761e-06
-0.000181921
3.26939e-06
-0.000182253
1.0331e-06
-0.000181757
-1.47806e-06
-0.000180564
-3.58578e-06
-0.000178469
-6.27283e-06
-0.000175668
-8.41338e-06
-0.000172086
-1.07582e-05
-0.000167662
-1.32831e-05
-0.000162445
-1.56493e-05
-0.000156478
-1.78926e-05
-0.000149514
-2.08271e-05
-0.000141826
-2.31292e-05
-0.000133227
-2.58254e-05
-0.000123698
-2.8569e-05
-0.000113386
-3.0936e-05
-0.000102213
-3.35136e-05
-9.01554e-05
-3.61584e-05
-7.73664e-05
-3.83541e-05
-6.37305e-05
-4.09033e-05
-4.94252e-05
-4.29108e-05
-3.43234e-05
-4.52531e-05
-1.87253e-05
-4.67777e-05
-2.54748e-06
-4.85477e-05
1.41344e-05
-5.00233e-05
3.12007e-05
-5.11882e-05
4.84555e-05
-5.17028e-05
6.58369e-05
-5.21196e-05
8.32384e-05
-5.2178e-05
0.000100457
-5.16116e-05
0.000117388
-5.07362e-05
0.000133782
-4.91397e-05
0.000149538
-4.72202e-05
0.00016442
-4.4602e-05
0.00017821
-4.13202e-05
0.000190689
-3.73734e-05
0.000201583
-3.26181e-05
0.000210642
-2.71143e-05
0.000217626
-2.09394e-05
0.000222361
-1.4178e-05
0.000224755
-7.18991e-06
0.00022475
-5.90993e-08
0.000222338
7.17219e-06
0.000217499
1.4468e-05
0.000210405
2.12348e-05
0.000201154
2.76955e-05
0.000189949
3.35729e-05
0.000176866
3.91706e-05
0.000162203
4.39092e-05
0.000146147
4.81039e-05
0.000128953
5.15215e-05
0.000110862
5.41887e-05
9.21388e-05
5.6087e-05
7.30466e-05
5.72807e-05
5.3839e-05
5.75461e-05
3.47885e-05
5.70805e-05
1.6108e-05
5.59895e-05
-2.05957e-06
5.44631e-05
-1.94586e-05
5.22278e-05
-3.61019e-05
4.98429e-05
-5.17406e-05
4.68793e-05
-6.6373e-05
4.38871e-05
-7.99176e-05
4.06484e-05
-9.24012e-05
3.74314e-05
-0.000103821
3.42427e-05
-0.000114155
3.09884e-05
-0.000123439
2.78335e-05
-0.00013169
2.47587e-05
-0.000139041
2.20508e-05
-0.000145426
1.91458e-05
-0.000150883
1.63652e-05
-0.000155448
1.3767e-05
-0.000159305
1.1494e-05
-0.000162298
8.97472e-06
-0.000164557
6.78688e-06
-0.000166134
4.68988e-06
-0.00016701
2.68022e-06
-0.000167263
7.85853e-07
-0.000166981
-9.09268e-07
-0.000166078
-2.70007e-06
-0.000164624
-4.37239e-06
-0.000162649
-5.91584e-06
-0.000160112
-7.59777e-06
-0.000157121
-9.13238e-06
-0.00015355
-1.06321e-05
-0.000149463
-1.22591e-05
-0.000144802
-1.39883e-05
-0.00013958
-1.58099e-05
-0.000133748
-1.73586e-05
-0.000127299
-1.93481e-05
-0.000120191
-2.13104e-05
-0.000112396
-2.33597e-05
-0.000103851
-2.55691e-05
-9.46478e-05
-2.78008e-05
-8.46459e-05
-2.99068e-05
-7.38588e-05
-3.23554e-05
-6.22746e-05
-3.47704e-05
-4.99083e-05
-3.70646e-05
-3.6788e-05
-3.93613e-05
-2.29256e-05
-4.15656e-05
-8.39079e-06
-4.35647e-05
6.78555e-06
-4.54572e-05
2.24426e-05
-4.69282e-05
3.85422e-05
-4.82414e-05
5.49152e-05
-4.90784e-05
7.1426e-05
-4.9478e-05
8.79286e-05
-4.94133e-05
0.000104184
-4.8783e-05
0.000120035
-4.75106e-05
0.000135284
-4.57014e-05
0.000149714
-4.32283e-05
0.000162985
-3.97603e-05
0.000174962
-3.58712e-05
0.000185411
-3.12474e-05
0.000194034
-2.58482e-05
0.000200729
-2.00504e-05
0.000205313
-1.37142e-05
0.000207665
-7.04727e-06
0.000207711
-1.67136e-07
0.000205433
6.86877e-06
0.000200772
1.39532e-05
0.000193909
2.05584e-05
0.000184923
2.69243e-05
0.000173973
3.27803e-05
0.000161261
3.8102e-05
0.000147024
4.26644e-05
0.000131495
4.65259e-05
0.000114959
4.95454e-05
9.76605e-05
5.18347e-05
7.98783e-05
5.328e-05
6.1859e-05
5.39841e-05
4.38223e-05
5.40471e-05
2.59666e-05
5.36013e-05
8.4265e-06
5.25399e-05
-8.58537e-06
5.09909e-05
-2.50089e-05
4.92661e-05
-4.06637e-05
4.69215e-05
-5.54752e-05
4.4423e-05
-6.93942e-05
4.16315e-05
-8.22622e-05
3.86528e-05
-9.40727e-05
3.5394e-05
-0.000104813
3.21701e-05
-0.000114441
2.90386e-05
-0.000123163
2.61628e-05
-0.00013103
2.35079e-05
-0.000138042
2.10674e-05
-0.000144321
1.89332e-05
-0.00015005
1.70825e-05
-0.000155076
1.51241e-05
-0.000159497
1.31786e-05
-0.000163163
1.09559e-05
-0.000166118
8.89888e-06
-0.000168315
6.56301e-06
-0.000169806
4.50137e-06
-0.000170645
2.54504e-06
-0.000170917
7.85717e-07
-0.00017063
-8.12274e-07
-0.000169899
-2.16299e-06
-0.00016871
-3.60682e-06
-0.000167083
-4.89197e-06
-0.000164924
-6.48032e-06
-0.000162194
-8.14383e-06
-0.000158815
-1.01471e-05
-0.000154899
-1.18685e-05
-0.000150278
-1.37854e-05
-0.000145
-1.58358e-05
-0.000139051
-1.78241e-05
-0.000132423
-1.98515e-05
-0.000125119
-2.20266e-05
-0.000117096
-2.39801e-05
-0.000108284
-2.64186e-05
-9.86708e-05
-2.88399e-05
-8.82006e-05
-3.13466e-05
-7.695e-05
-3.39178e-05
-6.48105e-05
-3.63063e-05
-5.18492e-05
-3.88635e-05
-3.80803e-05
-4.1296e-05
-2.35313e-05
-4.36211e-05
-8.3253e-06
-4.56518e-05
7.51404e-06
-4.74229e-05
2.38444e-05
-4.89501e-05
4.05561e-05
-5.00811e-05
5.74667e-05
-5.06763e-05
7.43837e-05
-5.06986e-05
9.10395e-05
-4.99011e-05
0.000107223
-4.84903e-05
0.000122677
-4.63002e-05
0.000137141
-4.33553e-05
0.000150398
-3.97206e-05
0.000162207
-3.53562e-05
0.000172311
-3.0297e-05
0.000180545
-2.46606e-05
0.000186705
-1.84542e-05
0.000190638
-1.17729e-05
0.000192212
-4.71509e-06
0.000191384
2.43576e-06
0.000188113
9.77341e-06
0.000182455
1.69557e-05
0.000174451
2.39583e-05
0.000164339
3.04007e-05
0.000152264
3.6236e-05
0.000138443
4.13399e-05
0.000123196
4.57404e-05
0.000106792
4.91805e-05
8.94837e-05
5.18999e-05
7.157e-05
5.37132e-05
5.33006e-05
5.47729e-05
3.4932e-05
5.50568e-05
1.66672e-05
5.48115e-05
-1.37018e-06
5.40875e-05
-1.88919e-05
5.25142e-05
-3.57762e-05
5.06425e-05
-5.18855e-05
4.83412e-05
-6.70554e-05
4.54741e-05
-8.12157e-05
4.25037e-05
-9.43121e-05
3.92501e-05
-0.000106233
3.57744e-05
-0.000117093
3.25808e-05
-0.000126691
2.87835e-05
-0.000135192
2.55202e-05
-0.000142574
2.21328e-05
-0.000148827
1.87657e-05
-0.000154016
1.55706e-05
-0.000158075
1.21983e-05
-0.000161132
9.14409e-06
-0.000163239
6.3363e-06
-0.000164454
3.6717e-06
-0.000165032
1.7523e-06
-0.000164879
-3.53896e-07
-0.000164101
-2.33306e-06
-0.00016294
-3.45689e-06
-0.000161417
-4.56209e-06
-0.000159421
-5.97024e-06
-0.000157228
-6.57578e-06
-0.000154609
-7.85699e-06
-0.000151718
-8.68908e-06
-0.00014853
-9.5628e-06
-0.000144925
-1.0824e-05
-0.00014091
-1.20528e-05
-0.000136506
-1.32302e-05
-0.000131453
-1.51787e-05
-0.000125744
-1.71371e-05
-0.000119365
-1.91551e-05
-0.000112056
-2.1946e-05
-0.000103915
-2.44399e-05
-9.46667e-05
-2.77597e-05
-8.43453e-05
-3.0975e-05
-7.30667e-05
-3.3849e-05
-6.05619e-05
-3.75244e-05
-4.68809e-05
-4.1011e-05
-3.23164e-05
-4.36689e-05
-1.65912e-05
-4.71327e-05
-7.58201e-09
-4.97427e-05
1.74093e-05
-5.22126e-05
3.54999e-05
-5.42267e-05
5.38354e-05
-5.4954e-05
7.23743e-05
-5.55584e-05
9.0856e-05
-5.53739e-05
0.000108846
-5.39161e-05
0.000126215
-5.20349e-05
0.000142622
-4.91583e-05
0.00015782
-4.55362e-05
0.000171554
-4.1144e-05
0.000183506
-3.58064e-05
0.000193539
-3.00535e-05
0.000201467
-2.37354e-05
0.000207162
-1.70439e-05
0.000210574
-1.02437e-05
0.000211662
-3.2886e-06
0.000210353
3.8297e-06
0.000206732
1.08303e-05
0.0002008
1.77659e-05
0.000192927
2.35815e-05
0.000183269
2.89284e-05
0.000171951
3.39078e-05
0.000159285
3.79451e-05
0.000145436
4.15244e-05
0.00013057
4.45576e-05
0.000114966
4.67902e-05
9.88157e-05
4.83909e-05
8.23731e-05
4.929e-05
6.57258e-05
4.99078e-05
4.90191e-05
5.00942e-05
3.24279e-05
4.97524e-05
1.60557e-05
4.91157e-05
1.45036e-08
4.80764e-05
-1.56222e-05
4.68861e-05
-3.07855e-05
4.54703e-05
-4.53586e-05
4.37047e-05
-5.93205e-05
4.18734e-05
-7.25763e-05
3.97571e-05
-8.50601e-05
3.74448e-05
-9.67607e-05
3.50984e-05
-0.00010761
3.25441e-05
-0.000117565
2.98648e-05
-0.000126618
2.71566e-05
-0.000134739
2.43625e-05
-0.000141927
2.15588e-05
-0.00014816
1.86954e-05
-0.000153428
1.58004e-05
-0.000157752
1.29594e-05
9.90704e-06
-5.13709e-05
-5.67259e-05
-3.59192e-05
-6.17634e-05
-1.94422e-05
-6.58785e-05
-2.10017e-06
-6.93117e-05
1.59679e-05
-7.2168e-05
3.45136e-05
-7.40231e-05
5.36254e-05
-7.62839e-05
7.28972e-05
-7.69116e-05
9.19896e-05
-7.61851e-05
0.000110845
-7.52512e-05
0.000129182
-7.31693e-05
0.000146631
-6.96151e-05
0.00016299
-6.52882e-05
0.000178012
-5.99241e-05
0.000191425
-5.35108e-05
0.000202996
-4.61756e-05
0.000212482
-3.78497e-05
0.000219719
-2.88524e-05
0.000224544
-1.92745e-05
0.000226912
-9.45268e-06
0.00022674
4.68327e-07
0.000224084
1.04168e-05
0.000218927
2.06174e-05
0.000211436
2.98765e-05
0.000201705
3.88475e-05
0.000190057
4.64725e-05
0.000176642
5.35176e-05
0.000161599
6.00221e-05
0.00014533
6.49246e-05
0.000128031
6.90433e-05
0.000109923
7.2283e-05
9.1323e-05
7.42615e-05
7.24361e-05
7.54206e-05
5.35373e-05
7.54925e-05
3.48204e-05
7.47852e-05
1.64008e-05
7.35887e-05
-1.55563e-06
7.17226e-05
-1.89061e-05
6.93315e-05
-3.55079e-05
6.63494e-05
-5.12928e-05
6.30935e-05
-6.62025e-05
5.96036e-05
-8.01867e-05
5.59113e-05
-9.32401e-05
5.21994e-05
-0.000105336
4.83715e-05
-0.000116475
4.45478e-05
-0.000126685
4.08344e-05
-0.000135962
3.71053e-05
-0.00014433
3.34662e-05
-0.000151815
2.99486e-05
-0.000158424
2.64294e-05
-0.000164192
2.30443e-05
-0.000169116
1.97234e-05
-0.000173247
1.65203e-05
-0.000176603
1.34277e-05
-0.000179174
1.02787e-05
-0.000180966
7.16738e-06
-0.000182052
4.35538e-06
-0.000182357
1.33872e-06
-0.000181847
-1.98839e-06
-0.00018066
-4.77311e-06
-0.00017856
-8.37292e-06
-0.000175763
-1.12098e-05
-0.000172192
-1.43291e-05
-0.000167779
-1.76961e-05
-0.00016256
-2.08684e-05
-0.000156581
-2.38719e-05
-0.00014962
-2.77884e-05
-0.000141927
-3.08219e-05
-0.000133342
-3.44104e-05
-0.000123812
-3.80989e-05
-0.000113498
-4.12502e-05
-0.000102321
-4.46915e-05
-9.02583e-05
-4.82209e-05
-7.74673e-05
-5.11453e-05
-6.38252e-05
-5.45455e-05
-4.95155e-05
-5.72206e-05
-3.43893e-05
-6.03795e-05
-1.87744e-05
-6.23927e-05
-2.61148e-06
-6.47108e-05
1.40852e-05
-6.67202e-05
3.11565e-05
-6.82597e-05
4.84544e-05
-6.90009e-05
6.58313e-05
-6.94966e-05
8.32534e-05
-6.96003e-05
0.000100492
-6.88507e-05
0.000117451
-6.76947e-05
0.000133864
-6.5553e-05
0.00014964
-6.29971e-05
0.000164543
-5.95046e-05
0.000178355
-5.51329e-05
0.00019086
-4.98786e-05
0.000201782
-4.35397e-05
0.000210869
-3.62018e-05
0.000217845
-2.79157e-05
0.000222601
-1.89336e-05
0.000224972
-9.56141e-06
0.000224925
-1.21128e-08
0.000222477
9.61987e-06
0.000217612
1.93331e-05
0.000210487
2.83596e-05
0.000201204
3.69781e-05
0.000189936
4.48411e-05
0.000176847
5.22594e-05
0.000162143
5.86131e-05