/*--------------------------------*- C++ -*----------------------------------*\
| =========                 |                                                 |
| \\      /  F ield         | OpenFOAM: The Open Source CFD Toolbox           |
|  \\    /   O peration     | Version:  3.0.1                                 |
|   \\  /    A nd           | Web:      www.OpenFOAM.org                      |
|    \\/     M anipulation  |                                                 |
\*---------------------------------------------------------------------------*/
FoamFile
{
    version     2.0;
    format      ascii;
    class       volScalarField;
    location    "13.2";
    object      p_rgh;
}
// * * * * * * * * * * * * * * * * * * * * * * * * * * * * * * * * * * * * * //

dimensions      [1 -1 -2 0 0 0 0];

internalField   nonuniform List<scalar> 
21420
(
-89.9004
-58.5467
-25.2693
9.13296
34.8342
72.0589
110.449
148.886
186.932
224.223
260.301
294.749
327.165
357.094
384.119
407.833
427.868
443.933
455.792
463.194
466.238
464.83
459.111
449.157
435.216
417.597
396.627
372.705
346.322
317.85
287.766
256.607
224.857
193.39
159.775
124.828
93.4587
65.0539
39.3467
16.2879
-4.14952
-22.0086
-37.3938
-50.2798
-60.5594
-69.1438
-76.1398
-81.8504
-86.1944
-89.1555
-90.7727
-91.133
-90.342
-88.5362
-85.8533
-82.4365
-78.4322
-73.9743
-69.1857
-64.1558
-58.9138
-53.5095
-48.0544
-42.6106
-37.2148
-31.8718
-26.5696
-21.2959
-16.0782
-11.0172
-6.08273
-0.217848
5.89782
11.6844
17.4691
23.4318
29.501
35.6177
41.7215
47.7495
53.6288
59.2849
64.6404
69.6152
74.1369
78.1425
81.5778
84.404
86.5938
88.1322
89.0172
89.2358
88.8298
87.8329
86.2833
84.2297
81.7258
78.8318
75.6115
72.1293
68.4488
64.6284
60.7191
56.7625
52.7891
48.8181
44.8579
40.9077
36.9597
33.0015
29.0188
24.9982
20.9293
16.8057
12.6266
8.39867
4.13386
-0.153461
-4.42348
-8.64792
-12.7888
-16.8022
-20.6388
-24.2458
-27.5672
-30.5453
-33.1228
-35.2444
-36.8591
-37.9247
-38.4058
-38.278
-37.5353
-36.1781
-34.2219
-31.6939
-28.6322
-25.0845
-21.1055
-16.7551
-12.0969
-7.19587
-2.11707
3.07664
8.32595
13.5759
18.7771
23.8868
28.8694
33.6955
38.343
42.7954
47.0415
51.0749
54.8932
58.4968
61.8893
65.0761
68.0626
70.8542
73.4544
75.8624
78.0722
80.0716
81.8402
83.3504
84.5675
85.4507
85.9562
86.0386
85.6561
84.7716
83.3577
81.394
78.8743
75.8052
72.2069
68.1128
63.5687
58.6304
53.3618
47.8322
42.1132
36.2763
30.3911
24.5231
18.7325
13.0735
7.59408
2.33655
-2.66728
-7.38744
-11.7984
-15.8791
-19.6116
-22.9806
-25.9722
-28.5745
-30.7766
-32.5687
-33.9425
-34.8918
-35.4104
-35.4936
-35.1424
-34.3572
-33.1411
-31.501
-29.4472
-26.9939
-24.1592
-20.9657
-17.4405
-13.6148
-9.52315
-5.20361
-0.696234
3.96162
8.71857
13.5373
18.3769
23.199
27.968
32.6518
37.2227
41.6572
45.9361
50.0449
53.9727
57.7121
61.2588
64.6109
67.7675
70.728
73.4913
76.0554
78.4158
80.5655
82.4942
84.1889
85.6323
86.8044
87.6826
88.2419
88.4564
88.2983
87.7443
86.7683
85.3485
83.4654
81.1036
78.2527
74.9076
71.0693
66.7472
61.9577
56.7253
51.0827
45.0703
38.7359
32.1343
25.3258
18.3759
11.3536
4.3316
-2.61378
-9.41171
-15.9818
-22.2476
-28.1433
-33.6023
-38.5594
-42.9552
-46.7427
-49.8821
-52.3442
-54.1088
-55.1619
-55.5084
-55.1228
-54.0306
-52.2695
-49.8813
-46.9185
-43.4428
-39.5218
-35.2288
-30.6506
-25.865
-20.9326
-15.943
-10.9627
-6.02511
-1.20468
2.83577
6.62698
10.045
13.0383
15.5718
17.6274
19.2048
20.3254
21.0218
21.2787
21.1709
20.7495
20.0636
19.1649
18.104
16.9288
15.6831
14.4051
13.1276
11.8772
10.6747
9.53556
8.47051
7.48598
6.58497
5.76769
5.0322
4.37496
3.79133
3.27598
2.82322
2.42725
2.08233
1.78298
1.52403
1.30068
1.10854
0.943638
0.802408
0.681682
0.578657
0.490871
0.416171
0.352685
0.298788
0.253078
0.214349
0.181562
0.153831
0.130397
0.110615
0.0939361
0.0798953
0.0681007
0.0582229
0.0499875
0.0431677
0.0375796
0.0330777
0.0295525
0.0269298
0.0251713
0.0242799
-89.998
-58.6391
-25.3552
9.06734
34.7925
72.0311
110.433
148.882
186.942
224.249
260.345
294.812
327.247
357.196
384.239
407.97
428.02
444.096
455.963
463.384
466.411
465
459.272
449.306
435.349
417.712
396.722
372.778
346.373
317.88
287.777
256.602
224.844
193.368
159.678
124.744
93.3762
64.9705
39.2615
16.201
-4.23811
-22.0987
-37.4828
-50.3654
-60.6447
-69.2256
-76.217
-81.9231
-86.2628
-89.2196
-90.8323
-91.1878
-90.3919
-88.5811
-85.8933
-82.4717
-78.4629
-74.0008
-69.2084
-64.1752
-58.9302
-53.5234
-48.0663
-42.621
-37.2243
-31.8809
-26.5786
-21.3052
-16.0877
-11.0264
-6.09163
-0.230567
5.88818
11.6762
17.4622
23.4264
29.4976
35.6167
41.7232
47.7542
53.6366
59.2959
64.6543
69.6317
74.1557
78.1632
81.5999
84.427
86.6173
88.1557
89.04
89.2578
88.8505
87.8519
86.3004
84.2445
81.7381
78.8416
75.6185
72.1338
68.4509
64.6285
60.7175
56.7597
52.7855
48.8141
44.854
40.9041
36.9566
32.999
29.0168
24.9967
20.928
16.8044
12.6251
8.3967
4.13113
-0.157178
-4.42847
-8.65437
-12.7969
-16.8121
-20.6508
-24.2599
-27.5833
-30.5636
-33.1432
-35.2666
-36.8829
-37.9498
-38.4315
-38.3043
-37.5614
-36.2035
-34.2463
-31.7167
-28.6532
-25.1034
-21.1221
-16.7692
-12.1084
-7.20489
-2.12362
3.07244
8.32393
13.5758
18.7787
23.8899
28.8737
33.7007
38.3489
42.8018
47.0482
51.0817
54.8999
58.5034
61.8957
65.0822
68.0685
70.86
73.4602
75.8684
78.0786
80.0788
81.8485
83.36
84.5787
85.4635
85.9707
86.0549
85.6736
84.7902
83.377
81.4134
78.8934
75.8234
72.2236
68.1276
63.5812
58.6402
53.3689
47.8364
42.1145
36.2748
30.387
24.5167
18.724
13.0633
7.58226
2.32352
-2.68141
-7.40246
-11.8142
-15.8955
-19.6285
-22.9979
-25.9899
-28.5925
-30.7949
-32.5873
-33.9613
-34.9108
-35.4293
-35.5125
-35.1613
-34.3759
-33.1595
-31.519
-29.4646
-27.0106
-24.1751
-20.9805
-17.4541
-13.627
-9.53392
-5.2128
-0.703775
3.9557
8.71432
13.5346
18.3758
23.1993
27.9696
32.6545
37.2264
41.6616
45.9412
50.0504
53.9785
57.7181
61.2649
64.617
67.7736
70.7341
73.4975
76.0617
78.4224
80.5724
82.5017
84.197
85.6412
86.8142
87.6933
88.2536
88.4691
88.3122
87.7589
86.7838
85.3647
83.4821
81.1207
78.2699
74.9246
71.0859
66.763
61.9725
56.7387
51.0944
45.08
38.7435
32.1394
25.3283
18.3757
11.3506
4.32569
-2.62239
-9.42315
-15.9959
-22.2642
-28.1624
-33.6235
-38.5824
-42.9798
-46.7685
-49.9088
-52.3713
-54.136
-55.1887
-55.5348
-55.1482
-54.0546
-52.2917
-49.9014
-46.9362
-43.4578
-39.534
-35.2381
-30.6566
-25.8679
-20.9325
-15.9398
-10.9566
-6.01712
-1.1954
2.84817
6.64005
10.0591
13.053
15.5864
17.6417
19.2181
20.3373
21.0328
21.287
21.1774
20.754
20.0661
19.1656
18.103
16.9264
15.6794
14.4005
13.1223
11.8714
10.6686
9.52946
8.46448
7.48014
6.57941
5.76247
5.02736
4.37052
3.7873
3.27235
2.81998
2.42436
2.07978
1.78075
1.52208
1.29898
1.10706
0.942358
0.801304
0.680731
0.57784
0.490171
0.415572
0.352173
0.298351
0.252706
0.214031
0.181291
0.1536
0.130201
0.110448
0.0937936
0.0797737
0.0679966
0.0581337
0.0499107
0.0431012
0.0375216
0.0330265
0.0295067
0.0268879
0.0251321
0.0242421
-90.192
-58.8231
-25.5264
8.93666
34.71
71.9765
110.402
148.877
186.965
224.303
260.434
294.938
327.412
357.399
384.48
408.244
428.324
444.423
456.307
463.758
466.758
465.343
459.597
449.606
435.618
417.944
396.912
372.925
346.475
317.94
287.798
256.593
224.818
193.325
159.485
124.577
93.2115
64.804
39.0914
16.0276
-4.41494
-22.2786
-37.6609
-50.5363
-60.8156
-69.3893
-76.3712
-82.0683
-86.3995
-89.3476
-90.9512
-91.2972
-90.4914
-88.6706
-85.9728
-82.5415
-78.5236
-74.053
-69.2531
-64.2131
-58.9619
-53.5499
-48.0887
-42.6404
-37.2419
-31.8976
-26.5952
-21.3223
-16.1049
-11.0431
-6.10783
-0.254224
5.8707
11.6619
17.4503
23.4177
29.4929
35.6169
41.7291
47.7662
53.655
59.3206
64.6849
69.6679
74.1967
78.2081
81.648
84.4772
86.6686
88.2071
89.0908
89.3065
88.8969
87.8952
86.3399
84.2797
81.7685
78.8668
75.6386
72.1489
68.4613
64.6349
60.7207
56.7604
52.7847
48.8127
44.8527
40.9035
36.9569
33.0004
29.0193
25
20.9318
16.8082
12.6284
8.39892
4.13175
-0.158628
-4.43259
-8.66155
-12.8076
-16.8266
-20.6694
-24.2828
-27.6107
-30.5954
-33.1792
-35.3065
-36.9262
-37.9958
-38.4789
-38.3528
-37.6097
-36.2507
-34.2914
-31.759
-28.6919
-25.138
-21.1521
-16.7943
-12.1285
-7.21999
-2.13382
3.06689
8.32271
13.5785
18.7848
23.8989
28.885
33.7139
38.3634
42.8173
47.0643
51.098
54.9163
58.5196
61.9116
65.0977
68.0836
70.8749
73.4751
75.8838
78.0951
80.0968
81.8687
83.3831
84.6049
85.4933
86.004
86.0918
85.7129
84.8319
83.4202
81.4571
78.9364
75.8646
72.262
68.1623
63.6112
58.6651
53.3881
47.8499
42.1223
36.2771
30.3842
24.5092
18.7123
13.0479
7.56373
2.30253
-2.70464
-7.42755
-11.8408
-15.9234
-19.6575
-23.0278
-26.0207
-28.6241
-30.8271
-32.6201
-33.9947
-34.9446
-35.4631
-35.5466
-35.1954
-34.4097
-33.1928
-31.5516
-29.4962
-27.0408
-24.2036
-21.007
-17.4783
-13.6485
-9.55257
-5.22837
-0.716156
3.94664
8.70851
13.532
18.3762
23.2026
27.9754
32.6626
37.2363
41.6731
45.9539
50.064
53.9927
57.7327
61.2798
64.632
67.7887
70.7493
73.513
76.0776
78.4389
80.5897
82.52
84.2167
85.6625
86.8373
87.7184
88.2808
88.4984
88.3437
87.792
86.8187
85.4011
83.5197
81.1591
78.3085
74.963
71.1234
66.799
62.0064
56.7698
51.1221
45.1037
38.7627
32.1537
25.3374
18.3792
11.3484
4.31764
-2.63592
-9.44246
-16.0207
-22.2941
-28.1973
-33.6629
-38.6257
-43.0264
-46.8177
-49.9599
-52.4233
-54.1884
-55.2407
-55.5863
-55.1974
-54.1011
-52.3348
-49.9405
-46.9707
-43.4872
-39.5578
-35.2562
-30.6681
-25.8735
-20.932
-15.933
-10.9443
-6.00093
-1.17672
2.87294
6.66622
10.0872
13.0823
15.6159
17.6701
19.2447
20.3611
21.0544
21.3038
21.1903
20.7629
20.0711
19.1669
18.101
16.9215
15.6721
14.3913
13.1117
11.8598
10.6566
9.51724
8.45241
7.46845
6.56827
5.75202
5.01767
4.36164
3.77923
3.26509
2.81348
2.41859
2.07469
1.77627
1.51816
1.29557
1.1041
0.939796
0.799093
0.678829
0.576207
0.48877
0.414373
0.351148
0.297476
0.25196
0.213395
0.18075
0.153139
0.129808
0.110113
0.0935084
0.0795302
0.0677885
0.0579552
0.049757
0.0429681
0.0374054
0.032924
0.0294149
0.0268042
0.0250537
0.0241664
-90.4831
-59.0992
-25.7838
8.73914
34.5865
71.8948
110.356
148.868
186.998
224.384
260.567
295.127
327.659
357.704
384.841
408.656
428.779
444.913
456.821
464.309
467.283
465.86
460.084
450.056
436.02
418.29
397.197
373.144
346.629
318.03
287.83
256.58
224.778
193.262
159.192
124.326
92.9641
64.5542
38.8359
15.7673
-4.68013
-22.5485
-37.9286
-50.7923
-61.0724
-69.635
-76.6027
-82.2862
-86.6046
-89.5397
-91.1296
-91.4614
-90.6408
-88.8049
-86.0921
-82.6463
-78.6146
-74.1314
-69.3201
-64.2698
-59.0096
-53.5898
-48.1224
-42.6697
-37.2683
-31.9226
-26.6201
-21.3479
-16.1309
-11.0684
-6.1323
-0.289784
5.84447
11.6404
17.4325
23.4045
29.4858
35.6171
41.7377
47.7841
53.6826
59.3576
64.731
69.7222
74.2584
78.2757
81.7201
84.5525
86.7457
88.2845
89.167
89.3801
88.9668
87.9604
86.3994
84.3325
81.8141
78.9048
75.6688
72.1715
68.477
64.6445
60.7254
56.7616
52.7837
48.8107
44.8508
40.9025
36.9575
33.0027
29.0231
25.0051
20.9376
16.814
12.6334
8.40231
4.13274
-0.160732
-4.43872
-8.67228
-12.8235
-16.8483
-20.6972
-24.3171
-27.6517
-30.6431
-33.2333
-35.3664
-36.9912
-38.0647
-38.5502
-38.4256
-37.6822
-36.3215
-34.3592
-31.8225
-28.75
-25.1898
-21.197
-16.832
-12.1587
-7.24263
-2.14911
3.05859
8.32089
13.5826
18.794
23.9124
28.902
33.7337
38.3853
42.8406
47.0885
51.1227
54.9409
58.5439
61.9354
65.1208
68.1062
70.8972
73.4975
75.9069
78.1197
80.1238
81.8991
83.4176
84.6443
85.5379
86.0539
86.147
85.7722
84.8946
83.485
81.5226
79.0009
75.9266
72.3197
68.2143
63.6564
58.7024
53.417
47.8702
42.134
36.2806
30.3799
24.4978
18.6947
13.0247
7.53587
2.27096
-2.73956
-7.46524
-11.8807
-15.9653
-19.7011
-23.0728
-26.067
-28.6715
-30.8756
-32.6695
-34.0449
-34.9953
-35.5141
-35.5979
-35.2465
-34.4605
-33.2429
-31.6005
-29.5436
-27.0862
-24.2464
-21.0468
-17.5146
-13.6809
-9.5806
-5.25178
-0.734805
3.93304
8.69977
13.528
18.3768
23.2074
27.984
32.6746
37.2512
41.6903
45.973
50.0845
54.0141
57.7547
61.3021
64.6546
67.8114
70.7722
73.5361
76.1013
78.4635
80.6156
82.5475
84.2463
85.6945
86.872
87.7561
88.3216
88.5423
88.391
87.8418
86.8712
85.4558
83.5761
81.2166
78.3665
75.0204
71.1796
66.853
62.0571
56.8164
51.1636
45.1392
38.7914
32.1751
25.3508
18.3844
11.345
4.30546
-2.65633
-9.47153
-16.058
-22.3392
-28.2497
-33.7221
-38.6906
-43.0964
-46.8916
-50.0367
-52.5014
-54.2671
-55.3189
-55.6635
-55.2713
-54.171
-52.3997
-49.9993
-47.0225
-43.5312
-39.5935
-35.2833
-30.6855
-25.8819
-20.9312
-15.9228
-10.9256
-5.9764
-1.14869
2.90982
6.70544
10.1295
13.1263
15.66
17.7129
19.2846
20.3968
21.0858
21.329
21.2096
20.7763
20.0787
19.1689
18.098
16.9142
15.6611
14.3775
13.0957
11.8425
10.6384
9.49889
8.43428
7.4509
6.55157
5.73634
5.00314
4.34832
3.76714
3.2542
2.80375
2.40994
2.06705
1.76956
1.51229
1.29046
1.09966
0.935957
0.795781
0.675978
0.573759
0.486672
0.412577
0.349613
0.296166
0.250842
0.212443
0.179939
0.152449
0.12922
0.109612
0.0930811
0.0791655
0.0674766
0.0576877
0.0495267
0.0427687
0.0372314
0.0327705
0.0292775
0.0266787
0.0249363
0.024053
-90.8712
-59.4675
-26.1279
8.47255
34.4229
71.7865
110.294
148.856
187.042
224.492
260.745
295.379
327.988
358.111
385.322
409.206
429.388
445.568
457.507
465.025
467.99
466.549
460.734
450.656
436.557
418.753
397.577
373.437
346.834
318.15
287.872
256.56
224.724
193.181
158.8
123.989
92.6339
64.2208
38.495
15.4198
-5.0337
-22.9081
-38.2843
-51.1343
-61.4149
-69.9628
-76.9115
-82.5769
-86.8781
-89.7958
-91.3676
-91.6803
-90.84
-88.984
-86.2512
-82.7859
-78.7359
-74.2359
-69.4093
-64.3455
-59.073
-53.6428
-48.1673
-42.7086
-37.3035
-31.956
-26.6534
-21.3821
-16.1656
-11.1022
-6.16518
-0.337291
5.80956
11.6117
17.4086
23.3869
29.4762
35.6172
41.7492
47.8078
53.7192
59.407
64.7925
69.7947
74.3406
78.3658
81.8164
84.653
86.8484
88.3876
89.2682
89.4784
89.0601
88.0472
86.4786
84.403
81.8749
78.9554
75.709
72.2016
68.4978
64.6571
60.7315
56.7629
52.782
48.8078
44.8481
40.9012
36.9581
33.0056
29.0282
25.0118
20.9452
16.8216
12.64
8.40674
4.13399
-0.163621
-4.44699
-8.68666
-12.8449
-16.8773
-20.7345
-24.363
-27.7065
-30.7067
-33.3055
-35.4465
-37.0781
-38.1566
-38.6456
-38.5229
-37.7791
-36.4161
-34.4497
-31.9073
-28.8276
-25.2591
-21.2571
-16.8823
-12.199
-7.27288
-2.16955
3.04748
8.31844
13.5879
18.8062
23.9304
28.9247
33.7601
38.4144
42.8717
47.1207
51.1554
54.9737
58.5762
61.967
65.1516
68.1362
70.9268
73.5273
75.9376
78.1524
80.1598
81.9395
83.4636
84.6967
85.5974
86.1205
86.2202
85.8514
84.9783
83.5715
81.61
79.087
76.0091
72.3967
68.2836
63.7165
58.7521
53.4555
47.8971
42.1495
36.285
30.374
24.4825
18.671
12.9937
7.49858
2.2287
-2.78628
-7.51564
-11.9342
-16.0213
-19.7593
-23.133
-26.1288
-28.7349
-30.9403
-32.7354
-34.1119
-35.063
-35.5821
-35.6663
-35.3148
-34.5282
-33.3097
-31.6659
-29.6069
-27.1468
-24.3036
-21.1
-17.5631
-13.7241
-9.61806
-5.28307
-0.759768
3.91488
8.68805
13.5227
18.3776
23.2138
27.9955
32.6906
37.271
41.7132
45.9984
50.1117
54.0426
57.7839
61.3318
64.6845
67.8415
70.8025
73.5669
76.1328
78.4962
80.6499
82.5841
84.2856
85.737
86.9182
87.8063
88.3759
88.6007
88.4537
87.9082
86.9411
85.5286
83.6512
81.2932
78.4437
75.0971
71.2546
66.925
62.1248
56.8785
51.2188
45.1865
38.8297
32.2035
25.3688
18.3913
11.3405
4.28914
-2.68363
-9.5104
-16.1077
-22.3994
-28.3198
-33.8011
-38.7774
-43.1897
-46.9902
-50.1391
-52.6058
-54.372
-55.4236
-55.7665
-55.3699
-54.2643
-52.4863
-50.0777
-47.0917
-43.59
-39.6412
-35.3194
-30.7087
-25.8931
-20.9303
-15.9093
-10.9003
-5.94315
-1.11142
2.95847
6.7577
10.1859
13.1851
15.7189
17.7699
19.3377
20.4442
21.1276
21.3625
21.2354
20.7941
20.0886
19.1715
18.0939
16.9043
15.6464
14.359
13.0744
11.8193
10.6143
9.4744
8.41009
7.42748
6.52928
5.71544
4.98377
4.33056
3.75102
3.23968
2.79077
2.39842
2.05688
1.76062
1.50448
1.28365
1.09376
0.930845
0.791371
0.672183
0.570499
0.483878
0.410186
0.34757
0.294422
0.249355
0.211175
0.178859
0.151529
0.128437
0.108945
0.0925124
0.0786801
0.0670615
0.0573318
0.0492202
0.0425034
0.0369998
0.0325661
0.0290945
0.0265116
0.0247799
0.023902
-91.3563
-59.928
-26.5596
8.13382
34.2205
71.6519
110.217
148.84
187.097
224.626
260.966
295.693
328.4
358.62
385.924
409.894
430.149
446.386
458.366
465.908
468.877
467.411
461.548
451.407
437.229
419.332
398.052
373.803
347.089
318.298
287.923
256.534
224.656
193.085
158.306
123.566
92.2203
63.8035
38.0681
14.9848
-5.47567
-23.3558
-38.7262
-51.5649
-61.8442
-70.3726
-77.2975
-82.9403
-87.2202
-90.1161
-91.6652
-91.9541
-91.089
-89.2078
-86.45
-82.9604
-78.8874
-74.3664
-69.5208
-64.44
-59.1523
-53.7091
-48.2234
-42.7571
-37.3474
-31.9977
-26.6949
-21.4248
-16.2091
-11.1448
-6.20664
-0.39678
5.76608
11.5758
17.3786
23.3645
29.464
35.6172
41.7635
47.8374
53.765
59.4688
64.8693
69.8854
74.4434
78.4785
81.9368
84.7787
86.9769
88.5167
89.3951
89.6015
89.1768
88.1557
86.5776
84.491
81.9509
79.0185
75.7591
72.2391
68.5235
64.6727
60.7389
56.7643
52.7797
48.804
44.8445
40.8993
36.9588
33.009
29.0343
25.02
20.9546
16.831
12.6482
8.41224
4.13553
-0.167289
-4.45738
-8.7047
-12.8716
-16.9136
-20.7811
-24.4205
-27.7752
-30.7865
-33.3959
-35.5467
-37.1867
-38.2717
-38.7651
-38.6446
-37.9004
-36.5346
-34.563
-32.0134
-28.9247
-25.3458
-21.3323
-16.9453
-12.2494
-7.31073
-2.19512
3.03358
8.31539
13.5946
18.8214
23.9529
28.9531
33.7931
38.4509
42.9105
47.161
51.1964
55.0146
58.6167
62.0066
65.1901
68.1737
70.9637
73.5643
75.9758
78.1932
80.2045
81.9898
83.5209
84.7621
85.6716
86.2036
86.3116
85.9505
85.0831
83.6797
81.7193
79.1947
76.1124
72.4929
68.3703
63.7916
58.8141
53.5035
47.9307
42.1687
36.2904
30.3665
24.4632
18.6412
12.9548
7.4518
2.17572
-2.84483
-7.57877
-12.0011
-16.0914
-19.8321
-23.2082
-26.2062
-28.8142
-31.0213
-32.818
-34.1957
-35.1476
-35.6674
-35.752
-35.4003
-34.6131
-33.3934
-31.7477
-29.6861
-27.2227
-24.3753
-21.1666
-17.6239
-13.7783
-9.66498
-5.32225
-0.791038
3.89213
8.67335
13.516
18.3785
23.2218
28.0099
32.7106
37.2958
41.7419
46.0301
50.1457
54.0781
57.8205
61.3689
64.7219
67.8791
70.8404
73.6054
76.1722
78.537
80.6928
82.6298
84.3346
85.7901
86.9759
87.8689
88.4437
88.6737
88.5319
87.9913
87.0285
85.6197
83.7452
81.389
78.5402
75.1929
71.3482
67.0149
62.2094
56.9561
51.2879
45.2456
38.8776
32.239
25.3911
18.3998
11.3347
4.26865
-2.71786
-9.55909
-16.1699
-22.4747
-28.4076
-33.9
-38.8859
-43.3066
-47.1136
-50.2673
-52.7366
-54.5034
-55.5547
-55.8952
-55.4933
-54.381
-52.5946
-50.1759
-47.1782
-43.6635
-39.7008
-35.3644
-30.7379
-25.907
-20.9291
-15.8923
-10.8682
-5.90057
-1.06512
3.01853
6.82298
10.2564
13.2586
15.7926
17.8411
19.4041
20.5035
21.1797
21.4044
21.2676
20.8162
20.1011
19.1747
18.0888
16.8918
15.628
14.3357
13.0477
11.7903
10.584
9.44375
8.37983
7.3982
6.50142
5.6893
4.95956
4.30838
3.73087
3.22155
2.77456
2.38403
2.04417
1.74946
1.49472
1.27515
1.08638
0.924465
0.785867
0.667446
0.566431
0.480391
0.407203
0.34502
0.292245
0.247499
0.209594
0.177512
0.150382
0.12746
0.108113
0.0918031
0.0780746
0.0665437
0.0568878
0.0488379
0.0421724
0.0367109
0.0323113
0.0288663
0.0263033
0.0245849
0.0237138
-91.9383
-60.4808
-27.0795
7.71861
33.9814
71.4916
110.124
148.821
187.162
224.786
261.231
296.07
328.893
359.23
386.647
410.72
431.063
447.37
459.398
466.965
469.941
468.444
462.525
452.309
438.036
420.027
398.622
374.241
347.395
318.474
287.982
256.499
224.57
192.976
157.706
123.055
91.7233
63.3022
37.5551
14.4618
-6.00605
-23.8908
-39.2544
-52.0842
-62.3601
-70.8646
-77.7611
-83.3765
-87.6308
-90.5007
-92.0224
-92.2826
-91.3878
-89.4763
-86.6885
-83.1697
-79.0692
-74.5229
-69.6545
-64.5533
-59.2472
-53.7884
-48.2904
-42.8152
-37.3998
-32.0476
-26.7447
-21.4761
-16.2614
-11.1962
-6.25686
-0.468289
5.71417
11.5328
17.3424
23.3375
29.4491
35.6171
41.7804
47.8729
53.8199
59.5429
64.9615
69.9944
74.567
78.614
82.0815
84.9297
87.1313
88.6717
89.548
89.7492
89.3169
88.2861
86.6965
84.5966
82.042
79.0942
75.8191
72.2838
68.5542
64.6912
60.7475
56.7657
52.7768
48.7992
44.8401
40.8969
36.9594
33.0132
29.0418
25.03
20.966
16.8424
12.6581
8.41893
4.13746
-0.171662
-4.46978
-8.72629
-12.9037
-16.9572
-20.837
-24.4895
-27.8575
-30.8822
-33.5045
-35.6672
-37.3173
-38.4101
-38.9089
-38.791
-38.0461
-36.6769
-34.6992
-32.1409
-29.0415
-25.45
-21.4227
-17.0209
-12.31
-7.35616
-2.22578
3.01694
8.31179
13.6028
18.8398
23.98
28.9872
33.8328
38.4947
42.9571
47.2093
51.2456
55.0638
58.6652
62.054
65.2362
68.2186
71.0079
73.6086
76.0215
78.2419
80.2581
82.05
83.5895
84.8405
85.7606
86.3034
86.4215
86.0693
85.2089
83.8096
81.8506
79.3241
76.2366
72.6085
68.4745
63.8818
58.8886
53.5611
47.9709
42.1916
36.2967
30.3574
24.4399
18.6053
12.9079
7.39551
2.112
-2.91519
-7.65464
-12.0816
-16.1757
-19.9197
-23.2986
-26.2991
-28.9094
-31.1186
-32.917
-34.2963
-35.2493
-35.7699
-35.8548
-35.5029
-34.7149
-33.4939
-31.8459
-29.7813
-27.3138
-24.4613
-21.2466
-17.6969
-13.8434
-9.72134
-5.3693
-0.828529
3.86475
8.6557
13.508
18.3797
23.2315
28.0273
32.7347
37.3256
41.7764
46.0682
50.1866
54.1208
57.8644
61.4135
64.7668
67.9242
70.8858
73.6514
76.2193
78.5859
80.7442
82.6844
84.3934
85.8537
87.045
87.944
88.5251
88.7614
88.6257
88.091
87.1333
85.729
83.8579
81.5041
78.6561
75.3079
71.4607
67.123
62.311
57.0493
51.3709
45.3166
38.9351
32.2817
25.4179
18.41
11.3277
4.24407
-2.75904
-9.61758
-16.2447
-22.5652
-28.5131
-34.0187
-39.0163
-43.447
-47.2618
-50.4213
-52.8938
-54.6615
-55.7123
-56.0495
-55.6415
-54.5213
-52.7247
-50.2939
-47.2821
-43.7518
-39.7724
-35.4184
-30.7731
-25.9235
-20.9277
-15.872
-10.829
-5.84829
-1.00979
3.08958
6.90127
10.3413
13.347
15.8812
17.9267
19.4838
20.5746
21.2419
21.4546
21.306
20.8428
20.1159
19.1784
18.0825
16.8768
15.6057
14.3078
13.0156
11.7554
10.5475
9.40692
8.34348
7.36303
6.46797
5.65794
4.93051
4.28176
3.70672
3.1998
2.75513
2.36678
2.02894
1.73609
1.48303
1.26497
1.07755
0.916824
0.779276
0.661774
0.561561
0.476217
0.403631
0.341968
0.28964
0.245277
0.207701
0.175899
0.149009
0.126291
0.107117
0.0909541
0.07735
0.0659241
0.0563564
0.0483805
0.0417763
0.0363653
0.0320063
0.0285933
0.026054
0.0243516
0.0234886
-92.6172
-61.1258
-27.6883
7.22079
33.7092
71.3062
110.014
148.797
187.236
224.971
261.539
296.509
329.469
359.943
387.49
411.684
432.13
448.519
460.603
468.2
471.181
469.65
463.667
453.363
438.978
420.838
399.287
374.752
347.75
318.679
288.048
256.455
224.467
192.857
156.999
122.456
91.1426
62.7167
36.9556
13.8507
-6.62504
-24.513
-39.8696
-52.6914
-62.962
-71.4386
-78.3021
-83.8858
-88.1101
-90.9495
-92.4393
-92.6661
-91.7365
-89.7897
-86.9667
-83.4138
-79.2811
-74.7053
-69.8102
-64.6853
-59.3578
-53.8808
-48.3684
-42.8827
-37.4608
-32.1056
-26.8026
-21.5359
-16.3226
-11.2566
-6.31612
-0.551874
5.65402
11.4826
17.3
23.3057
29.4314
35.6166
41.8001
47.9142
53.8839
59.6294
65.0693
70.1217
74.7113
78.7722
82.2505
85.1061
87.3117
88.8529
89.727
89.9218
89.4805
88.4384
86.8353
84.72
82.1483
79.1825
75.889
72.3359
68.5898
64.7125
60.7572
56.7671
52.773
48.7933
44.8347
40.8939
36.9602
33.018
29.0505
25.0417
20.9794
16.8559
12.6697
8.42686
4.13983
-0.176753
-4.4841
-8.75141
-12.941
-17.0079
-20.9023
-24.57
-27.9537
-30.994
-33.6314
-35.8079
-37.4699
-38.5719
-39.077
-38.962
-38.2166
-36.8434
-34.8584
-32.29
-29.1779
-25.5717
-21.5282
-17.1093
-12.3806
-7.40916
-2.2615
2.9976
8.30768
13.6124
18.8615
24.0117
29.0272
33.8792
38.5459
43.0116
47.2659
51.303
55.1212
58.7218
62.1093
65.29
68.271
71.0594
73.6602
76.0747
78.2986
80.3203
82.12
83.6694
84.9318
85.8644
86.4198
86.5498
86.2082
85.3558
83.9616
82.0041
79.4754
76.3817
72.7436
68.5962
63.9872
58.9756
53.6283
48.0178
42.2182
36.304
30.3465
24.4126
18.5633
12.853
7.32963
2.0375
-2.99742
-7.74328
-12.1755
-16.274
-20.0218
-23.404
-26.4075
-29.0205
-31.2321
-33.0327
-34.4137
-35.368
-35.8895
-35.9748
-35.6228
-34.8339
-33.6112
-31.9607
-29.8925
-27.4203
-24.5619
-21.3401
-17.7821
-13.9194
-9.78718
-5.42424
-0.871912
3.83237
8.63508
13.4987
18.381
23.2428
28.0475
32.7628
37.3604
41.8167
46.1128
50.2343
54.1707
57.9156
61.4655
64.8192
67.9768
70.9388
73.7051
76.2743
78.6428
80.804
82.7481
84.4618
85.9278
87.1255
88.0316
88.62
88.8636
88.7352
88.2074
87.2557
85.8566
83.9896
81.6384
78.7914
75.4423
71.5921
67.2492
62.4297
57.1582
51.4678
45.3995
39.0022
32.3316
25.4493
18.4219
11.3196
4.21556
-2.80738
-9.68595
-16.332
-22.671
-28.6363
-34.1575
-39.1687
-43.6109
-47.435
-50.6012
-53.0775
-54.8464
-55.8963
-56.2296
-55.8146
-54.6851
-52.8768
-50.4317
-47.4035
-43.855
-39.8559
-35.4814
-30.8144
-25.9427
-20.9261
-15.8483
-10.7823
-5.7857
-0.945751
3.17133
6.99257
10.4405
13.4504
15.9848
18.0266
19.5768
20.6576
21.3141
21.513
21.3508
20.8736
20.133
19.1826
18.0749
16.8591
15.5795
14.275
12.9779
11.7145
10.5049
9.36386
8.301
7.32196
6.42892
5.62134
4.89663
4.25072
3.67856
3.17446
2.73249
2.34668
2.01121
1.72052
1.46941
1.25312
1.06726
0.90793
0.771605
0.655174
0.555894
0.471361
0.399476
0.338417
0.28661
0.242693
0.205499
0.174024
0.147412
0.124931
0.105959
0.0899667
0.0765073
0.0652035
0.0557385
0.0478485
0.0413157
0.0359633
0.0316517
0.0282758
0.0257642
0.0240803
0.0232266
-93.393
-61.8631
-28.3859
6.63172
33.4089
71.0962
109.887
148.767
187.319
225.181
261.89
297.009
330.126
360.756
388.455
412.788
433.352
449.834
461.983
469.613
472.598
471.029
464.974
454.569
440.056
421.766
400.048
375.335
348.155
318.909
288.119
256.398
224.343
192.729
156.182
121.767
90.4783
62.0468
36.2694
13.1511
-7.33294
-25.2232
-40.5725
-53.3857
-63.6493
-72.0946
-78.9209
-84.4681
-88.6582
-91.4628
-92.916
-93.1045
-92.1352
-90.1478
-87.2845
-83.6925
-79.523
-74.9135
-69.9879
-64.8359
-59.4839
-53.986
-48.4571
-42.9595
-37.5301
-32.1716
-26.8687
-21.6042
-16.3928
-11.3262
-6.38471
-0.647578
5.58585
11.4253
17.2512
23.269
29.4109
35.6159
41.8223
47.9612
53.957
59.7285
65.1926
70.2674
74.8766
78.9535
82.4441
85.308
87.5181
89.0604
89.932
90.1192
89.6676
88.6126
86.9941
84.8612
82.27
79.2834
75.9689
72.3953
68.6303
64.7365
60.768
56.7683
52.7683
48.7863
44.8283
40.8904
36.9609
33.0236
29.0605
25.0552
20.9949
16.8714
12.6832
8.43614
4.14274
-0.182462
-4.50025
-8.77996
-12.9835
-17.0659
-20.9768
-24.662
-28.0637
-31.1219
-33.7765
-35.9689
-37.6446
-38.7572
-39.2695
-39.1579
-38.4117
-37.0339
-35.0407
-32.4607
-29.334
-25.711
-21.6489
-17.2103
-12.4614
-7.4697
-2.30224
2.97561
8.30314
13.6236
18.8864
24.0482
29.0731
33.9324
38.6045
43.074
47.3306
51.3688
55.1868
58.7866
62.1726
65.3514
68.3307
71.1181
73.719
76.1353
78.3631
80.3912
82.1999
83.7605
85.0361
85.983
86.5529
86.6967
86.3671
85.524
84.1356
82.1799
79.6487
76.5479
72.8984
68.7356
64.1079
59.0751
53.7052
48.0713
42.2486
36.3121
30.3339
24.3811
18.5149
12.79
7.25405
1.95225
-3.09154
-7.84472
-12.283
-16.3866
-20.1386
-23.5246
-26.5315
-29.1475
-31.3619
-33.1649
-34.548
-35.5038
-36.0263
-36.1121
-35.7598
-34.9699
-33.7454
-32.092
-30.0197
-27.5421
-24.677
-21.447
-17.8797
-14.0063
-9.86252
-5.4871
-0.921514
3.79536
8.61155
13.488
18.3827
23.2558
28.0708
32.7951
37.4003
41.8629
46.1639
50.289
54.2278
57.9742
61.5249
64.879
68.0369
70.9993
73.7663
76.337
78.7077
80.8722
82.8208
84.54
86.0124
87.2175
88.1316
88.7284
88.9805
88.8603
88.3404
87.3956
86.0025
84.1402
81.792
78.9462
75.5961
71.7426
67.3937
62.5656
57.2829
51.5788
45.4945
39.0791
32.3887
25.4852
18.4356
11.3104
4.18314
-2.86288
-9.76419
-16.4319
-22.792
-28.7774
-34.3163
-39.343
-43.7986
-47.6332
-50.8072
-53.288
-55.0583
-56.1068
-56.4357
-56.0126
-54.8726
-53.0508
-50.5894
-47.5425
-43.9731
-39.9515
-35.5535
-30.8617
-25.9644
-20.9244
-15.8211
-10.7281
-5.71226
-0.873195
3.26353
7.0969
10.5541
13.5689
16.1034
18.141
19.6831
20.7524
21.3959
21.5795
21.4019
20.9088
20.1524
19.1872
18.0661
16.8386
15.5494
14.2373
12.9347
11.6676
10.4561
9.31455
8.25239
7.27498
6.38427
5.5795
4.85791
4.21527
3.6464
3.14553
2.70665
2.32376
1.99098
1.70275
1.45389
1.2396
1.05554
0.897793
0.762862
0.647653
0.549437
0.465828
0.394742
0.334373
0.283158
0.23975
0.202991
0.171888
0.145593
0.123383
0.10464
0.0888424
0.0755478
0.064383
0.0550349
0.0472428
0.0407912
0.0355056
0.0312479
0.0279143
0.0254342
0.0237714
0.0229284
-94.2656
-62.6924
-29.1717
5.93921
33.0876
70.862
109.743
148.732
187.41
225.416
262.282
297.571
330.864
361.672
389.541
414.031
434.729
451.316
463.539
471.207
474.194
472.582
466.446
455.927
441.27
422.811
400.903
375.991
348.608
319.166
288.195
256.328
224.194
192.593
155.254
120.989
89.7307
61.2925
35.4962
12.3628
-8.13001
-26.0216
-41.363
-54.1667
-64.4215
-72.8326
-79.6174
-85.1238
-89.2753
-92.0407
-93.4527
-93.598
-92.5838
-90.5507
-87.642
-84.0059
-79.7948
-75.1474
-70.1876
-65.005
-59.6254
-54.104
-48.5565
-43.0454
-37.6077
-32.2455
-26.9428
-21.681
-16.472
-11.4052
-6.46303
-0.755465
5.5099
11.3608
17.1959
23.2272
29.3873
35.6146
41.847
48.0141
54.0393
59.84
65.3317
70.4317
75.0629
79.1578
82.6623
85.5355
87.7508
89.2942
90.1632
90.3417
89.8785
88.8088
87.1731
85.0202
82.4069
79.397
76.0586
72.4618
68.6754
64.7631
60.7797
56.7691
52.7626
48.778
44.8209
40.8863
36.9617
33.0298
29.0719
25.0706
21.0125
16.8892
12.6987
8.44684
4.14627
-0.188671
-4.51823
-8.81191
-13.0312
-17.1309
-21.0606
-24.7655
-28.1874
-31.2659
-33.94
-36.1503
-37.8416
-38.9662
-39.4866
-39.3787
-38.6318
-37.2488
-35.2462
-32.653
-29.51
-25.8679
-21.7849
-17.3241
-12.5523
-7.53777
-2.34798
2.95102
8.29822
13.6364
18.9147
24.0895
29.1249
33.9925
38.6707
43.1444
47.4035
51.4428
55.2608
58.8596
62.2438
65.4205
68.3979
71.184
73.7849
76.2031
78.4354
80.4707
82.2894
83.8628
85.1533
86.1164
86.7028
86.8621
86.5462
85.7137
84.3318
82.3783
79.8442
76.7355
73.073
68.8927
64.2439
59.1872
53.7917
48.1314
42.2826
36.321
30.3194
24.3453
18.4603
12.7189
7.16863
1.8562
-3.19765
-7.95904
-12.404
-16.5133
-20.2702
-23.6604
-26.671
-29.2905
-31.508
-33.3137
-34.6991
-35.6567
-36.1803
-36.2666
-35.914
-35.1231
-33.8965
-32.2399
-30.163
-27.6793
-24.8066
-21.5676
-17.9896
-14.1043
-9.94739
-5.5579
-0.97748
3.75381
8.58509
13.4762
18.3846
23.2706
28.0972
32.8316
37.4454
41.915
46.2215
50.3506
54.2922
58.0402
61.5919
64.9464
68.1044
71.0672
73.8351
76.4074
78.7807
80.9489
82.9024
84.6277
86.1075
87.3209
88.2441
88.8504
89.1121
89.0012
88.49
87.5532
86.1668
84.3098
81.9652
79.1206
75.7694
71.9121
67.5565
62.7187
57.4235
51.7039
45.6016
39.1658
32.4531
25.5256
18.4511
11.3001
4.14679
-2.92559
-9.85237
-16.5444
-22.9284
-28.9363
-34.4952
-39.5394
-44.01
-47.8566
-51.0392
-53.5252
-55.2971
-56.344
-56.6677
-56.2358
-55.0839
-53.2468
-50.7671
-47.699
-44.1061
-40.0592
-35.6346
-30.9151
-25.9886