/*--------------------------------*- C++ -*----------------------------------*\
| =========                 |                                                 |
| \\      /  F ield         | OpenFOAM: The Open Source CFD Toolbox           |
|  \\    /   O peration     | Version:  3.0.1                                 |
|   \\  /    A nd           | Web:      www.OpenFOAM.org                      |
|    \\/     M anipulation  |                                                 |
\*---------------------------------------------------------------------------*/
FoamFile
{
    version     2.0;
    format      ascii;
    class       volScalarField;
    location    "91.8";
    object      p_rgh;
}
// * * * * * * * * * * * * * * * * * * * * * * * * * * * * * * * * * * * * * //

dimensions      [1 -1 -2 0 0 0 0];

internalField   nonuniform List<scalar> 
21420
(
-325.626
-332.779
-338.569
-343.009
-346.104
-347.847
-348.227
-347.074
-344.544
-340.628
-335.29
-328.493
-320.189
-310.319
-298.835
-285.669
-270.768
-254.093
-235.604
-215.265
-193.07
-169.033
-143.173
-115.564
-86.313
-55.5587
-23.5461
9.59449
43.574
78.0575
112.699
147.154
181.012
213.875
245.309
274.888
302.231
326.94
348.641
367.025
381.819
392.802
399.808
402.693
400.817
394.807
384.793
370.883
353.305
332.29
308.158
281.251
251.94
220.624
187.7
153.611
118.781
83.6015
48.4611
13.7013
-20.3644
-52.4026
-84.1332
-114.449
-143.186
-170.215
-195.454
-218.847
-240.371
-260.021
-277.807
-293.765
-307.932
-320.352
-331.071
-340.126
-347.551
-353.373
-357.601
-360.261
-361.349
-360.839
-358.724
-355.026
-349.71
-342.768
-334.2
-324.001
-312.167
-298.693
-283.578
-266.821
-248.419
-228.369
-206.673
-183.345
-158.406
-131.902
-103.905
-74.5273
-43.9201
-11.7482
20.8161
54.0147
87.5483
121.088
154.285
186.773
218.175
248.105
276.185
302.043
325.322
345.687
362.827
376.467
386.373
392.36
394.249
392.05
385.703
375.306
360.931
342.798
321.159
296.319
268.638
238.511
206.357
172.616
137.728
102.139
66.2779
30.5551
-4.64345
-38.9553
-72.0916
-103.776
-133.783
-161.93
-188.086
-212.164
-234.114
-253.926
-271.625
-287.258
-300.897
-312.625
-322.534
-330.715
-337.259
-342.251
-345.766
-347.881
-348.647
-348.096
-346.268
-343.205
-338.906
-333.368
-326.582
-318.526
-309.17
-298.482
-286.428
-272.963
-258.047
-241.649
-223.732
-204.274
-183.265
-160.704
-136.61
-111.023
-84.0023
-55.6342
-26.0388
4.63785
36.2109
68.3962
100.934
133.516
165.79
197.372
227.853
256.805
283.794
308.391
330.186
348.796
363.881
375.148
382.37
385.371
384.035
378.409
368.567
354.581
336.712
315.256
290.573
263.071
233.194
201.412
168.208
134.062
99.442
64.7931
30.522
-3.00349
-35.4778
-66.6328
-96.2515
-124.163
-150.245
-174.423
-196.661
-216.959
-235.345
-251.869
-266.591
-279.584
-290.929
-300.702
-308.977
-315.833
-321.341
-325.56
-328.545
-330.338
-330.984
-330.484
-328.829
-326.061
-322.134
-317.02
-310.686
-303.086
-294.174
-283.907
-272.248
-259.157
-244.602
-228.544
-210.947
-191.786
-171.039
-148.707
-124.807
-99.3919
-72.5395
-44.363
-15.0088
15.3403
46.477
78.1463
110.014
141.781
173.099
203.593
232.864
260.498
286.079
309.195
329.458
346.509
360.032
369.764
375.511
377.11
374.602
367.915
357.183
342.568
324.335
302.814
278.373
251.429
222.434
191.85
160.151
127.818
95.2857
62.9739
31.1015
-8.75422
-40.4812
-70.8863
-99.9383
-127.5
-153.481
-177.774
-200.35
-221.175
-240.231
-257.519
-273.052
-286.836
-298.894
-309.247
-317.917
-324.924
-330.276
-333.991
-336.179
-336.802
-335.66
-333.119
-329.14
-323.646
-316.579
-307.89
-297.485
-285.303
-271.322
-255.486
-237.773
-218.171
-196.678
-173.322
-148.158
-121.245
-92.6843
-62.6255
-31.2396
1.18316
33.7025
67.6543
102.011
136.374
170.371
203.571
235.551
265.94
294.326
320.332
343.584
363.737
380.513
393.662
402.981
408.332
409.561
406.694
399.773
388.93
374.301
356.128
334.683
310.309
283.344
254.204
223.276
191.02
158.018
124.834
92.5157
-325.683
-332.834
-338.623
-343.062
-346.156
-347.9
-348.282
-347.128
-344.598
-340.684
-335.348
-328.553
-320.252
-310.385
-298.903
-285.74
-270.842
-254.17
-235.683
-215.346
-193.153
-169.116
-143.255
-115.645
-86.3903
-55.6303
-23.6119
9.53779
43.528
78.0239
112.68
147.15
181.024
213.905
245.357
274.956
302.317
327.044
348.76
367.158
381.964
392.955
399.969
402.864
400.974
394.959
384.939
371.02
353.43
332.399
308.251
281.325
251.996
220.661
187.719
153.613
118.766
83.5723
48.4193
13.649
-20.4236
-52.4764
-84.2109
-114.53
-143.269
-170.299
-195.538
-218.931
-240.454
-260.101
-277.886
-293.841
-308.006
-320.423
-331.14
-340.193
-347.617
-353.438
-357.667
-360.326
-361.414
-360.903
-358.79
-355.093
-349.778
-342.837
-334.269
-324.072
-312.239
-298.766
-283.652
-266.896
-248.496
-228.447
-206.753
-183.426
-158.487
-131.981
-103.982
-74.5994
-43.986
-11.8112
20.7622
53.9718
87.5176
121.071
154.282
186.786
218.204
248.152
276.248
302.123
325.418
345.798
362.952
376.604
386.519
392.513
394.411
392.202
385.854
375.45
361.065
342.919
321.264
296.407
268.707
238.56
206.387
172.626
137.72
102.113
66.2363
30.4991
-4.71206
-39.0336
-72.1789
-103.87
-133.881
-162.031
-188.189
-212.266
-234.215
-254.025
-271.72
-287.349
-300.983
-312.707
-322.611
-330.788
-337.328
-342.317
-345.829
-347.942
-348.706
-348.152
-346.324
-343.261
-338.962
-333.425
-326.639
-318.585
-309.23
-298.545
-286.492
-273.029
-258.116
-241.72
-223.804
-204.348
-183.34
-160.779
-136.686
-111.098
-84.0752
-55.704
-26.1043
4.57891
36.1597
68.3545
100.904
133.499
165.788
197.388
227.887
256.858
283.865
308.481
330.294
348.921
364.02
375.298
382.528
385.54
384.196
378.566
368.718
354.721
336.837
315.364
290.661
263.138
233.24
201.438
168.213
134.048
99.4105
64.7461
30.4618
-3.07452
-35.5575
-66.7193
-96.3424
-124.256
-150.34
-174.517
-196.753
-217.048
-235.431
-251.951
-266.669
-279.659
-291
-300.769
-309.041
-315.894
-321.399
-325.616
-328.598
-330.391
-331.036
-330.533
-328.88
-326.113
-322.186
-317.075
-310.742
-303.145
-294.235
-283.97
-272.312
-259.223
-244.67
-228.614
-211.02
-191.861
-171.115
-148.783
-124.882
-99.466
-72.6107
-44.4302
-15.0705
15.2855
46.4307
78.1106
109.99
141.771
173.104
203.615
232.904
260.557
286.156
309.291
329.571
346.637
360.173
369.915
375.669
377.275
374.758
368.068
357.328
342.702
324.455
302.916
278.458
251.495
222.481
191.877
160.16
127.81
95.2615
62.9362
31.0546
-8.80963
-40.5426
-70.9544
-100.012
-127.577
-153.56
-177.853
-200.429
-221.253
-240.307
-257.594
-273.126
-286.907
-298.964
-309.316
-317.984
-324.99
-330.342
-334.059
-336.246
-336.862
-335.721
-333.183
-329.206
-323.714
-316.649
-307.961
-297.559
-285.378
-271.4
-255.565
-237.854
-218.254
-196.761
-173.405
-148.24
-121.325
-92.761
-62.6975
-31.305
1.125
33.6503
67.6128
101.983
136.361
170.375
203.591
235.589
265.996
294.401
320.423
343.692
363.86
380.649
393.809
403.135
408.49
409.73
406.847
399.923
389.072
374.433
356.246
334.785
310.393
283.41
254.251
223.305
191.032
158.014
124.815
92.4845
-325.798
-332.945
-338.731
-343.168
-346.261
-348.006
-348.391
-347.237
-344.707
-340.795
-335.464
-328.673
-320.377
-310.515
-299.04
-285.882
-270.991
-254.323
-235.842
-215.509
-193.318
-169.282
-143.421
-115.806
-86.5449
-55.773
-23.744
9.42444
43.4361
77.9567
112.64
147.142
181.049
213.965
245.455
275.09
302.488
327.251
349
367.425
382.254
393.263
400.289
403.207
401.285
395.265
385.232
371.295
353.68
332.619
308.437
281.475
252.108
220.736
187.756
153.616
118.737
83.5141
48.3357
13.5444
-20.5411
-52.6244
-84.366
-114.692
-143.435
-170.467
-195.707
-219.098
-240.617
-260.261
-278.04
-293.99
-308.15
-320.562
-331.275
-340.324
-347.745
-353.565
-357.792
-360.452
-361.54
-361.024
-358.917
-355.22
-349.906
-342.966
-334.4
-324.205
-312.373
-298.902
-283.791
-267.038
-248.64
-228.594
-206.902
-183.576
-158.637
-132.129
-104.124
-74.7324
-44.1093
-11.9235
20.6655
53.8973
87.4673
121.048
154.288
186.823
218.274
248.255
276.386
302.294
325.621
346.031
363.213
376.888
386.822
392.829
394.748
392.516
386.167
375.751
361.347
343.175
321.488
296.596
268.859
238.673
206.461
172.661
137.719
102.078
66.1689
30.4034
-4.83299
-39.1738
-72.3368
-104.041
-134.062
-162.218
-188.378
-212.455
-234.4
-254.205
-271.893
-287.514
-301.14
-312.856
-322.75
-330.919
-337.452
-342.434
-345.941
-348.049
-348.809
-348.248
-346.422
-343.358
-339.059
-333.524
-326.741
-318.688
-309.337
-298.656
-286.608
-273.149
-258.24
-241.848
-223.936
-204.483
-183.477
-160.918
-136.825
-111.236
-84.2089
-55.8319
-26.2236
4.47246
36.0687
68.2825
100.855
133.477
165.797
197.429
227.964
256.973
284.019
308.673
330.522
349.182
364.309
375.61
382.856
385.885
384.531
378.894
369.031
355.012
337.099
315.591
290.85
263.285
233.346
201.502
168.237
134.034
99.362
64.6667
30.3559
-3.20196
-35.7026
-66.8777
-96.5098
-124.429
-150.514
-174.691
-196.923
-217.213
-235.589
-252.103
-266.813
-279.795
-291.129
-300.89
-309.155
-316.002
-321.501
-325.714
-328.692
-330.482
-331.126
-330.618
-328.97
-326.204
-322.28
-317.171
-310.843
-303.249
-294.343
-284.083
-272.429
-259.345
-244.795
-228.743
-211.154
-191.998
-171.255
-148.923
-125.022
-99.6025
-72.7415
-44.5531
-15.1826
15.1872
46.349
78.0501
109.954
141.762
173.126
203.67
232.995
260.685
286.321
309.491
329.805
346.902
360.463
370.225
375.991
377.613
375.077
368.382
357.624
342.976
324.699
303.126
278.631
251.631
222.578
191.936
160.182
127.796
95.2149
62.8622
30.9621
-8.9191
-40.6642
-71.0898
-100.158
-127.73
-153.717
-178.012
-200.586
-221.408
-240.46
-257.744
-273.271
-287.05
-299.103
-309.452
-318.117
-325.122
-330.475
-334.195
-336.38
-336.981
-335.844
-333.311
-329.337
-323.849
-316.788
-308.103
-297.705
-285.529
-271.555
-255.723
-238.015
-218.418
-196.927
-173.571
-148.403
-121.485
-92.9145
-62.8414
-31.4353
1.00985
33.5452
67.5298
101.928
136.337
170.383
203.633
235.666
266.109
294.549
320.606
343.908
364.106
380.921
394.102
403.443
408.807
410.068
407.153
400.224
389.357
374.696
356.481
334.987
310.561
283.541
254.345
223.363
191.055
158.006
124.778
92.422
-325.97
-333.112
-338.894
-343.327
-346.417
-348.163
-348.555
-347.4
-344.871
-340.963
-335.638
-328.854
-320.565
-310.712
-299.245
-286.096
-271.213
-254.554
-236.08
-215.753
-193.566
-169.532
-143.669
-116.049
-86.777
-55.988
-23.9417
9.25431
43.2981
77.8557
112.581
147.129
181.086
214.055
245.601
275.292
302.746
327.561
349.358
367.826
382.69
393.725
400.769
403.712
401.762
395.728
385.673
371.707
354.054
332.948
308.715
281.699
252.276
220.848
187.813
153.62
118.693
83.4264
48.2099
13.3871
-20.7172
-52.8468
-84.5988
-114.934
-143.684
-170.72
-195.959
-219.349
-240.863
-260.501
-278.272
-294.214
-308.366
-320.771
-331.477
-340.521
-347.938
-353.754
-357.98
-360.64
-361.725
-361.209
-359.107
-355.411
-350.098
-343.16
-334.597
-324.403
-312.574
-299.107
-283.999
-267.25
-248.856
-228.813
-207.125
-183.8
-158.86
-132.348
-104.336
-74.9308
-44.2944
-12.0891
20.522
53.787
87.3935
121.015
154.299
186.881
218.381
248.413
276.595
302.553
325.929
346.384
363.606
377.317
387.279
393.304
395.248
392.997
386.643
376.205
361.772
343.56
321.826
296.882
269.088
238.844
206.574
172.716
137.719
102.027
66.0702
30.2621
-5.01225
-39.382
-72.5716
-104.296
-134.33
-162.495
-188.66
-212.736
-234.676
-254.474
-272.152
-287.761
-301.374
-313.076
-322.957
-331.113
-337.635
-342.607
-346.106
-348.208
-348.96
-348.394
-346.568
-343.503
-339.204
-333.671
-326.891
-318.842
-309.496
-298.821
-286.779
-273.327
-258.426
-242.039
-224.133
-204.685
-183.682
-161.125
-137.032
-111.44
-84.4079
-56.0221
-26.4008
4.31349
35.9339
68.1761
100.783
133.445
165.811
197.494
228.083
257.148
284.252
308.963
330.866
349.575
364.745
376.08
383.35
386.394
385.046
379.392
369.504
355.453
337.495
315.935
291.135
263.509
233.506
201.6
168.275
134.015
99.2911
64.5494
30.1988
-3.39128
-35.9184
-67.1137
-96.7591
-124.686
-150.775
-174.949
-197.177
-217.459
-235.826
-252.327
-267.027
-279.997
-291.32
-301.069
-309.325
-316.163
-321.654
-325.859
-328.832
-330.619
-331.259
-330.747
-329.104
-326.339
-322.418
-317.315
-310.992
-303.404
-294.505
-284.251
-272.603
-259.525
-244.982
-228.936
-211.353
-192.202
-171.463
-149.132
-125.23
-99.8054
-72.9362
-44.7359
-15.3493
15.0412
46.2282
77.9611
109.901
141.75
173.16
203.754
233.132
260.878
286.569
309.794
330.159
347.3
360.899
370.691
376.475
378.116
375.562
368.856
358.07
343.387
325.066
303.441
278.891
251.834
222.724
192.023
160.215
127.775
95.145
62.7508
30.8224
-9.08284
-40.8465
-71.2931
-100.378
-127.96
-153.952
-178.249
-200.823
-221.642
-240.689
-257.968
-273.491
-287.264
-299.312
-309.657
-318.318
-325.32
-330.673
-334.399
-336.58
-337.161
-336.027
-333.503
-329.535
-324.052
-316.996
-308.317
-297.924
-285.755
-271.787
-255.961
-238.258
-218.664
-197.175
-173.819
-148.649
-121.725
-93.1449
-63.0573
-31.6309
0.838792
33.3854
67.4048
101.845
136.299
170.394
203.696
235.782
266.278
294.771
320.881
344.233
364.476
381.329
394.541
403.906
409.282
410.566
407.619
400.678
389.785
375.091
356.834
335.291
310.812
283.737
254.486
223.45
191.091
157.993
124.721
92.328
-326.2
-333.334
-339.11
-343.539
-346.626
-348.371
-348.773
-347.615
-345.089
-341.187
-335.87
-329.094
-320.815
-310.973
-299.518
-286.381
-271.51
-254.862
-236.397
-216.078
-193.897
-169.865
-144
-116.372
-87.087
-56.2765
-24.2044
9.02727
43.1136
77.7207
112.502
147.112
181.136
214.176
245.795
275.562
303.089
327.975
349.837
368.361
383.271
394.341
401.408
404.365
402.41
396.352
386.263
372.258
354.554
333.387
309.087
281.999
252.5
220.997
187.889
153.626
118.634
83.3091
48.0417
13.1769
-20.9526
-53.1434
-84.9095
-115.258
-144.016
-171.056
-196.296
-219.683
-241.191
-260.821
-278.582
-294.513
-308.655
-321.049
-331.746
-340.782
-348.194
-354.006
-358.231
-360.888
-361.972
-361.459
-359.36
-355.665
-350.353
-343.419
-334.859
-324.668
-312.843
-299.379
-284.276
-267.532
-249.143
-229.105
-207.422
-184.099
-159.158
-132.642
-104.618
-75.1952
-44.5377
-12.314
20.3304
53.64
87.2954
120.97
154.314
186.959
218.524
248.624
276.874
302.899
326.34
346.855
364.133
377.89
387.889
393.94
395.9
393.651
387.282
376.812
362.339
344.075
322.278
297.264
269.396
239.074
206.725
172.79
137.72
101.958
65.9386
30.0737
-5.2516
-39.6597
-72.8848
-104.636
-134.689
-162.866
-189.036
-213.11
-235.045
-254.832
-272.496
-288.089
-301.685
-313.369
-323.233
-331.373
-337.88
-342.839
-346.327
-348.418
-349.159
-348.591
-346.762
-343.695
-339.397
-333.866
-327.09
-319.047
-309.708
-299.042
-287.008
-273.564
-258.672
-242.293
-224.394
-204.953
-183.955
-161.401
-137.309
-111.713
-84.6733
-56.2755
-26.6372
4.10038
35.7544
68.0344
100.687
133.403
165.829
197.579
228.241
257.382
284.563
309.35
331.325
350.1
365.327
376.709
384.01
387.066
385.735
380.061
370.138
356.041
338.024
316.394
291.516
263.807
233.721
201.732
168.326
133.99
99.1964
64.3928
29.989
-3.64394
-36.2065
-67.4286
-97.092
-125.03
-151.122
-175.294
-197.515
-217.786
-236.14
-252.627
-267.311
-280.267
-291.574
-301.309
-309.551
-316.377
-321.857
-326.053
-329.019
-330.8
-331.435
-330.921
-329.282
-326.519
-322.603
-317.506
-311.191
-303.611
-294.72
-284.475
-272.835
-259.764
-245.229
-229.192
-211.618
-192.473
-171.74
-149.41
-125.507
-100.076
-73.1957
-44.9795
-15.5714
14.8464
46.0669
77.8428
109.831
141.734
173.205
203.866
233.316
261.135
286.901
310.199
330.631
347.833
361.482
371.313
377.122
378.777
376.216
369.49
358.666
343.936
325.555
303.862
279.238
252.105
222.917
192.14
160.258
127.747
95.0512
62.601
30.6347
-9.30016
-41.0895
-71.5644
-100.672
-128.268
-154.267
-178.566
-201.138
-221.953
-240.995
-258.267
-273.783
-287.549
-299.591
-309.929
-318.585
-325.584
-330.936
-334.668
-336.842
-337.406
-336.275
-333.76
-329.799
-324.322
-317.274
-308.601
-298.217
-286.057
-272.097
-256.279
-238.582
-218.992
-197.506
-174.151
-148.978
-122.046
-93.4525
-63.3456
-31.8917
0.613587
33.169
67.2373
101.735
136.249
170.41
203.78
235.935
266.503
295.068
321.247
344.666
364.969
381.874
395.128
404.523
409.916
411.215
408.25
401.286
390.357
375.619
357.305
335.697
311.148
283.999
254.674
223.565
191.137
157.976
124.645
92.2024
-326.488
-333.612
-339.38
-343.804
-346.887
-348.632
-349.039
-347.883
-345.362
-341.467
-336.16
-329.395
-321.128
-311.3
-299.859
-286.738
-271.882
-255.247
-236.794
-216.485
-194.311
-170.281
-144.414
-116.777
-87.4752
-56.6394
-24.532
8.74305
42.8825
77.5512
112.403
147.09
181.197
214.326
246.038
275.898
303.518
328.493
350.436
369.03
383.998
395.111
402.208
405.176
403.22
397.135
387.002
372.947
355.179
333.936
309.551
282.373
252.78
221.182
187.982
153.632
118.559
83.1618
47.8304
12.9132
-21.2484
-53.514
-85.2982
-115.663
-144.431
-171.478
-196.718
-220.1
-241.601
-261.22
-278.969
-294.887
-309.015
-321.397
-332.083
-341.11
-348.514
-354.321
-358.544
-361.199
-362.282
-361.773
-359.676
-355.982
-350.673
-343.743
-335.187
-324.999
-313.178
-299.719
-284.622
-267.885
-249.502
-229.471
-207.793
-184.474
-159.532
-133.008
-104.972
-75.5259
-44.8198
-12.6188
20.0902
53.4559
87.1724
120.915
154.332
187.055
218.703
248.887
277.223
303.332
326.853
347.445
364.791
378.607
388.653
394.736
396.71
394.472
388.083
377.573
363.049
344.719
322.844
297.742
269.78
239.36
206.913
172.883
137.72
101.872
65.7733
29.8374
-5.5516
-40.0078
-73.2774
-105.062
-135.138
-163.329
-189.506
-213.579
-235.507
-255.281
-272.927
-288.501
-302.075
-313.736
-323.578
-331.697
-338.186
-343.128
-346.602
-348.68
-349.411
-348.838
-347.005
-343.936
-339.639
-334.111
-327.34
-319.303
-309.974
-299.317
-287.293
-273.861
-258.98
-242.611
-224.722
-205.289
-184.297
-161.747
-137.654
-112.054
-85.0056
-56.593
-26.9333
3.83251
35.5294
67.8566
100.567
133.349
165.852
197.686
228.438
257.674
284.951
309.833
331.899
350.757
366.056
377.495
384.837
387.911
386.591
380.9
370.931
356.778
338.686
316.967
291.992
264.18
233.988
201.895
168.388
133.957
99.0771
64.1961
29.7257
-3.96071
-36.5678
-67.8232
-97.5092
-125.46
-151.557
-175.727
-197.938
-218.197
-236.534
-253.003
-267.668
-280.605
-291.893
-301.61
-309.835
-316.645
-322.111
-326.295
-329.251
-331.026
-331.655
-331.14
-329.504
-326.743
-322.834
-317.746
-311.44
-303.87
-294.99
-284.754
-273.124
-260.064
-245.539
-229.513
-211.949
-192.814
-172.086
-149.759
-125.853
-100.414
-73.5208
-45.2846
-15.8496
14.6021
45.8642
77.6945
109.742
141.713
173.261
204.006
233.545
261.457
287.316
310.704
331.221
348.498
362.212
372.091
377.932
379.598
377.039
370.284
359.413
344.622
326.167
304.387
279.672
252.444
223.159
192.286
160.312
127.711
94.9334
62.4121
30.3971
-9.56995
-41.3931
-71.9041
-101.039
-128.652
-154.661
-178.963
-201.533
-222.343
-241.377
-258.641
-274.148
-287.906
-299.94
-310.27
-318.92
-325.914
-331.264
-334.999
-337.166
-337.719
-336.588
-334.082
-330.129
-324.66
-317.621
-308.956
-298.584
-286.434
-272.485
-256.676
-238.987
-219.403
-197.92
-174.565
-149.388
-122.447
-93.8376
-63.7065
-32.218
0.335519
32.8941
67.0268
101.595
136.186
170.428
203.883
236.127
266.785
295.439
321.705
345.207
365.585
382.555
395.862
405.295
410.709
412.016
409.046
402.047
391.074
376.278
357.894
336.204
311.567
284.326
254.908
223.708
191.194
157.953
124.549
92.0449
-326.832
-333.946
-339.705
-344.122
-347.2
-348.945
-349.355
-348.203
-345.688
-341.803
-336.508
-329.755
-321.504
-311.692
-300.269
-287.167
-272.327
-255.709
-237.271
-216.974
-194.808
-170.782
-144.911
-117.264
-87.9421
-57.0767
-24.9253
8.4012
42.6041
77.3469
112.282
147.062
181.27
214.505
246.328
276.301
304.032
329.114
351.154
369.833
384.87
396.037
403.168
406.151
404.19
398.075
387.892
373.775
355.929
334.594
310.109
282.821
253.116
221.405
188.094
153.639
118.469
82.9839
47.5757
12.5956
-21.6063
-53.9577
-85.7649
-116.149
-144.93
-171.984
-197.225
-220.602
-242.094
-261.7
-279.434
-295.335
-309.448
-321.815
-332.487
-341.502
-348.898
-354.699
-358.919
-361.572
-362.654
-362.149
-360.054
-356.363
-351.058
-344.132
-335.58
-325.397
-313.58
-300.128
-285.038
-268.308
-249.934
-229.911
-208.239
-184.923
-159.98
-133.45
-105.398
-75.924
-45.163
-12.9823
19.8014
53.2342
87.0241
120.847
154.353
187.171
218.917
249.203
277.641
303.851
327.47
348.153
365.582
379.469
389.572
395.692
397.685
395.457
389.044
378.489
363.903
345.493
323.523
298.316
270.24
239.704
207.139
172.993
137.719
101.768
65.5737
29.5527
-5.91228
-40.4277
-73.75
-105.574
-135.678
-163.887
-190.071
-214.143
-236.061
-255.82
-273.445
-288.995
-302.543
-314.176
-323.992
-332.087
-338.553
-343.476
-346.933
-348.995
-349.713
-349.133
-347.295
-344.225
-339.929
-334.405
-327.64
-319.612
-310.293
-299.648
-287.636
-274.218
-259.35
-242.994
-225.117
-205.693
-184.708
-162.162
-138.069
-112.465
-85.4054
-56.975
-27.2897
3.50917
35.2585
67.6419
100.421
133.284
165.878
197.813
228.674
258.023
285.417
310.414
332.589
351.546
366.931
378.44
385.83
388.928
387.617
381.908
371.886
357.663
339.481
317.656
292.563
264.627
234.309
202.09
168.462
133.917
98.9325
63.9585
29.4079
-4.34227
-37.0029
-68.2981
-98.0113
-125.978
-152.08
-176.246
-198.447
-218.69
-237.007
-253.454
-268.097
-281.011
-292.276
-301.97
-310.175
-316.967
-322.416
-326.586
-329.531
-331.297
-331.919
-331.403
-329.769
-327.013
-323.111
-318.033
-311.738
-304.181
-295.314
-285.09
-273.472
-260.424
-245.912
-229.899
-212.347
-193.222
-172.502
-150.178
-126.269
-100.821
-73.9118
-45.6519
-16.1846
14.3078
45.6192
77.5163
109.635
141.687
173.327
204.173
233.819
261.842
287.814
311.312
331.93
349.298
363.088
373.027
378.906
380.587
378.025
371.238
360.311
345.447
326.902
305.019
280.192
252.851
223.448
192.461
160.376
127.667
94.7912
62.183
30.1076
-9.89059
-41.757
-72.3125
-101.481
-129.115
-155.134
-179.439
-202.007
-222.81
-241.836
-259.09
-274.587
-288.335
-300.358
-310.68
-319.322
-326.31
-331.657
-335.393
-337.552
-338.096
-336.966
-334.469
-330.525
-325.065
-318.036
-309.383
-299.023
-286.888
-272.951
-257.152
-239.473
-219.896
-198.418
-175.063
-149.882
-122.929
-94.3007
-64.1407
-32.6103
0.00507609
32.5592
66.773
101.428
136.11
170.449
204.007
236.357
267.122
295.883
322.254
345.856
366.325
383.373
396.744
406.222
411.662
412.975
410
402.961
391.934
377.071
358.602
336.813
312.07
284.718
255.188
223.879
191.262
157.926
124.433
91.8552
-327.234
-334.335
-340.084
-344.493
-347.566
-349.31
-349.723
-348.575
-346.069
-342.196
-336.913
-330.175
-321.942
-312.15
-300.747
-287.667
-272.847
-256.248
-237.827
-217.545
-195.388
-171.367
-145.493
-117.833
-88.488
-57.5885
-25.3853
8.00112
42.2781
77.1072
112.14
147.029
181.354
214.713
246.667
276.771
304.633
329.839
351.993
370.771
385.89
397.117
404.289
407.292
405.322
399.172
388.932
374.743
356.805
335.363
310.759
283.344
253.507
221.664
188.223
153.646
118.362
82.7747
47.2766
12.2234
-22.0279
-54.4743
-86.3099
-116.717
-145.514
-172.575
-197.816
-221.188
-242.669
-262.26
-279.976
-295.859
-309.953
-322.302
-332.958
-341.96
-349.345
-355.14
-359.356
-362.007
-363.089
-362.586
-360.495
-356.808
-351.507
-344.587
-336.039
-325.861
-314.05
-300.604
-285.523
-268.802
-250.437
-230.424
-208.76
-185.448
-160.505
-133.965
-105.895
-76.3905
-45.5744
-13.3987
19.4643
52.9746
86.8498
120.767
154.376
187.304
219.166
249.571
278.129
304.457
328.19
348.98
366.505
380.476
390.644
396.811
398.828
396.605
390.167
379.559
364.9
346.397
324.316
298.985
270.777
240.104
207.401
173.12
137.717
101.644
65.3391
29.2189
-6.33097
-40.9237
-74.3035
-106.174
-136.31
-164.539
-190.732
-214.802
-236.71
-256.449
-274.051
-289.572
-303.089
-314.691
-324.476
-332.542
-338.981
-343.881
-347.318
-349.363
-350.067
-349.478
-347.635
-344.562
-340.267
-334.747
-327.99
-319.972
-310.665
-300.034
-288.037
-274.635
-259.783
-243.44
-225.577
-206.164
-185.188
-162.647
-138.554
-112.945
-85.8731
-57.4221
-27.707
3.12985
34.9411
67.3896
100.249
133.206
165.907
197.96
228.948
258.431
285.96
311.091
333.394
352.468
367.954
379.544
386.991
390.119
388.815
383.083
373.003
358.697
340.41
318.461
293.23
265.149
234.682
202.317
168.547
133.869
98.762
63.6793
29.0349
-4.78913
-37.5127
-68.8541
-98.5989
-126.584
-152.692
-176.854
-199.042
-219.266
-237.56
-253.981
-268.597
-281.484
-292.722
-302.392
-310.573
-317.343
-322.772
-326.926
-329.857
-331.613
-332.227
-331.711
-330.079
-327.328
-323.435
-318.369
-312.087
-304.545
-295.692
-285.483
-273.879
-260.845
-246.346
-230.349
-212.812
-193.7
-172.989
-150.668
-126.756
-101.298
-74.3694
-46.0818
-16.5769
13.9628
45.3315
77.3071
109.508
141.656
173.403
204.366
234.137
262.291
288.395
312.02
332.758
350.232
364.111
374.119
380.043
381.742
379.176
372.353
361.361
346.41
327.759
305.756
280.799
253.324
223.785
192.665
160.45
127.615
94.6242
61.9124
29.7631
-10.2599
-42.1813
-72.79
-101.998
-129.656
-155.687
-179.995
-202.56
-223.356
-242.372
-259.615
-275.099
-288.835
-300.847
-311.158
-319.79
-326.771
-332.115
-335.85
-338.002
-338.538
-337.409
-334.921
-330.987
-325.539
-318.521
-309.882
-299.536
-287.417
-273.495
-257.708
-240.04
-220.472
-198.998
-175.645
-150.458
-123.492
-94.8421
-64.6488
-33.0691
-0.37744
32.163
66.4756
101.231
136.02
170.473
204.151
236.624
267.515
296.402
322.896
346.614
367.189
384.329
397.774
407.306
412.776
414.096
411.111
404.03
392.939
377.996
359.427
337.524
312.657
285.175
255.514
224.078
191.34
157.892
124.297
91.6328
-327.693
-334.779
-340.516
-344.917
-347.985
-349.728
-350.142
-349
-346.503
-342.644
-337.376
-330.655
-322.442
-312.673
-301.294
-288.238
-273.442
-256.865
-238.464
-218.198
-196.053
-172.036
-146.158
-118.485
-89.1135
-58.1752
-25.9128
7.54216
41.9037
76.8315
111.977
146.99
181.448
214.95
247.052
277.308
305.319
330.668
352.953
371.844
387.056
398.354
405.571
408.598
406.616
400.427
390.122
375.85
357.808
336.243
311.503
283.942
253.954
221.958
188.37
153.652
118.238
82.5334
46.9325
11.7959
-22.5147
-55.0632
-86.9335
-117.367
-146.182
-173.252
-198.493
-221.859
-243.327
-262.9
-280.596
-296.457
-310.53
-322.858
-333.496
-342.483
-349.856
-355.643
-359.855
-362.504
-363.586
-363.086
-360.999
-357.316
-352.021
-345.106
-336.564
-326.391
-314.587
-301.149
-286.077
-269.367
-251.014
-231.012
-209.357
-186.05
-161.105
-134.556
-106.465
-76.9266
-46.0554
-13.8673
19.0787
52.6766
86.6492
120.675
154.401
187.456
219.45
249.991
278.686
305.15
329.013
349.926
367.561
381.628
391.872
398.092
400.135
397.918
391.451
380.784
366.042
347.431
325.224
299.751
271.391
240.56
207.7
173.263
137.713
101.501
65.0688
28.8351
-6.81227
-41.4923
-74.9386
-106.861
-137.035
-165.287
-191.489
-215.557
-237.452
-257.171
-274.744
-290.233
-303.714
-315.28
-325.03
-333.062
-339.472
-344.345
-347.759
-349.783
-350.472
-349.873
-348.023
-344.947
-340.654
-335.139
-328.39
-320.384
-311.091
-300.475
-288.496
-275.112
-260.277
-243.952
-226.104
-206.704
-185.738
-163.203
-139.11
-113.495
-86.4091
-57.9347
-28.1859
2.69406
34.5764
67.0991
100.05
133.114
165.937
198.126
229.259
258.895
286.581
311.865
334.314
353.522
369.125
380.807
388.32
391.483
390.187
384.428
374.281
359.881
341.472
319.38
293.992
265.744
235.107
202.574
168.643
133.812
98.5648
63.3576
28.6059
-5.30204
-38.098
-69.4921
-99.2728
-127.278
-153.394
-177.55
-199.724
-219.925
-238.193
-254.584
-269.17
-282.025
-293.233
-302.874
-311.028
-317.772
-323.179
-327.314
-330.23
-331.975
-332.581
-332.062
-330.433
-327.688
-323.805
-318.752
-312.486
-304.961
-296.125
-285.932
-274.344
-261.326
-246.844
-230.864
-213.344
-194.247
-173.546
-151.23
-127.314
-101.844
-74.8939
-46.5747
-17.0272
13.5663
45.0003
77.0665
109.361
141.618
173.487
204.585
234.5
262.804
289.058
312.83
333.704
351.3
365.283
375.37
381.346
383.067
380.493
373.629
362.565
347.512
328.74
306.598
281.493
253.865
224.169
192.897
160.534
127.556
94.432
61.5992
29.3596
-10.6747
-42.6658
-73.3374
-102.59
-130.275
-156.319
-180.632
-203.193
-223.98
-242.984
-260.214
-275.684
-289.406
-301.405
-311.704
-320.326
-327.298
-332.637
-336.369
-338.515
-339.044
-337.917
-335.438
-331.515
-326.079
-319.074
-310.451
-300.122
-288.022
-274.116
-258.344
-240.688
-221.131
-199.663
-176.31
-151.118
-124.137
-95.4624
-65.2316
-33.5953
-0.811812
31.7036
66.1343
101.005
135.916
170.499
204.315
236.929
267.963
296.994
323.628
347.481
368.178
385.422
398.953
408.547
414.051
415.378
412.382
405.252
394.089
379.054
360.372
338.338
313.327
285.697
255.886
224.303
191.427
157.852
124.14
91.3772
-328.21
-335.278
-341.002
-345.394
-348.456
-350.197
-350.613
-349.477
-346.993
-343.147
-337.896
-331.195
-323.005
-313.262
-301.91
-288.882
-274.11
-257.559
-239.18
-218.933
-196.801
-172.791
-146.909
-119.219
-89.8191
-58.8372
-26.5086
7.02364
41.4803
76.519
111.791
146.943
181.553
215.215
247.485
277.912
306.09
331.602
354.034
373.053
388.37
399.747
407.015
410.068
408.073
401.84
391.464
377.097
358.937
337.233
312.339
284.615
254.455
222.289
188.533
153.657
118.097
82.2591
46.5426
11.3121
-23.0683
-55.7246
-87.636
-118.1
-146.935
-174.014
-199.256
-222.614
-244.068
-263.621
-281.294
-297.131
-311.179
-323.484
-334.101
-343.071
-350.431
-356.209
-360.416
-363.064
-364.146
-363.648
-361.565
-357.888
-352.599
-345.69
-337.154
-326.988
-315.191
-301.762
-286.701
-270.002
-251.662
-231.673
-210.028
-186.727
-161.781
-135.222
-107.109
-77.5331
-46.6067
-14.3892
18.6444
52.3397
86.4217
120.569
154.428
187.625
219.769
250.463
279.313
305.929
329.94
350.99
368.751
382.926
393.257
399.536
401.609
399.397
392.898
382.166
367.329
348.597
326.246
300.613
272.081
241.073
208.034
173.423
137.706
101.338
64.7621
28.4002
-7.35702
-42.1345
-75.6565
-107.637
-137.853
-166.13
-192.344
-216.409
-238.29
-257.984
-275.526
-290.977
-304.418
-315.943
-325.653
-333.648
-340.024
-344.867
-348.255
-350.257
-350.928
-350.317
-348.459
-345.381
-341.09
-335.581
-328.841
-320.848
-311.57
-300.973
-289.013
-275.649
-260.834
-244.529
-226.698
-207.313
-186.357
-163.829
-139.738
-114.116
-87.014
-58.5136
-28.7269
2.20043
34.164
66.7692
99.8234
133.009
165.969
198.31
229.608
259.416
287.278
312.736
335.35
354.71
370.444
382.232
389.819
393.023
391.733
385.943
375.723
361.215
342.67
320.416
294.849
266.413
235.585
202.862
168.748
133.745
98.3401
62.9926
28.1201
-5.88233
-38.7597
-70.213
-100.034
-128.062
-154.185
-178.336
-200.492
-220.668
-238.906
-255.264
-269.815
-282.635
-293.809
-303.417
-311.539
-318.256
-323.638
-327.751
-330.65
-332.381
-332.979
-332.458
-330.831
-328.094
-324.222
-319.184
-312.935
-305.429
-296.613
-286.438