/*--------------------------------*- C++ -*----------------------------------*\
| =========                 |                                                 |
| \\      /  F ield         | OpenFOAM: The Open Source CFD Toolbox           |
|  \\    /   O peration     | Version:  3.0.1                                 |
|   \\  /    A nd           | Web:      www.OpenFOAM.org                      |
|    \\/     M anipulation  |                                                 |
\*---------------------------------------------------------------------------*/
FoamFile
{
    version     2.0;
    format      ascii;
    class       surfaceScalarField;
    location    "66";
    object      alphaPhi;
}
// * * * * * * * * * * * * * * * * * * * * * * * * * * * * * * * * * * * * * //

dimensions      [0 3 -1 0 0 0 0];

internalField   nonuniform List<scalar> 
42423
(
-9.45119e-05
1.04364e-05
-0.000104006
9.494e-06
-0.000112665
8.65872e-06
-0.000120504
7.83919e-06
-0.00012754
7.03638e-06
-0.000133826
6.28541e-06
-0.000139371
5.54566e-06
-0.000144212
4.84125e-06
-0.000148368
4.15599e-06
-0.000151851
3.48249e-06
-0.000154679
2.82833e-06
-0.00015687
2.19104e-06
-0.000158427
1.55643e-06
-0.000159358
9.31146e-07
-0.000159653
2.95186e-07
-0.000159231
-4.22399e-07
-0.000158165
-1.06576e-06
-0.000156347
-1.81787e-06
-0.000153833
-2.51458e-06
-0.000150628
-3.20473e-06
-0.000146557
-4.07044e-06
-0.000141725
-4.83284e-06
-0.000136058
-5.66602e-06
-0.000129528
-6.5307e-06
-0.000122051
-7.47684e-06
-0.000113614
-8.43665e-06
-0.000104118
-9.49625e-06
-9.37316e-05
-1.03865e-05
-8.2287e-05
-1.14446e-05
-6.97322e-05
-1.25548e-05
-5.62753e-05
-1.34569e-05
-4.1753e-05
-1.45224e-05
-2.63501e-05
-1.54029e-05
-9.95814e-06
-1.6392e-05
7.23216e-06
-1.71903e-05
2.49916e-05
-1.77595e-05
4.33431e-05
-1.83516e-05
6.21476e-05
-1.88045e-05
8.10507e-05
-1.89032e-05
9.9956e-05
-1.89053e-05
0.000118614
-1.8658e-05
0.000136803
-1.81886e-05
0.000154314
-1.75112e-05
0.0001708
-1.64863e-05
0.000186056
-1.52556e-05
0.000199903
-1.38476e-05
0.000211995
-1.20918e-05
0.000222198
-1.02036e-05
0.000230392
-8.19333e-06
0.000236334
-5.94201e-06
0.000240036
-3.70208e-06
0.000241362
-1.32582e-06
0.000240383
9.79081e-07
0.000237077
3.30594e-06
0.000231323
5.7534e-06
0.000223521
7.80175e-06
0.000213725
9.79669e-06
0.000201995
1.17292e-05
0.00018867
1.33251e-05
0.000173809
1.48617e-05
0.000157865
1.59439e-05
0.000140838
1.70266e-05
0.000123068
1.77699e-05
0.00010487
1.81986e-05
8.62135e-05
1.86562e-05
6.74927e-05
1.87207e-05
4.88219e-05
1.86708e-05
3.04257e-05
1.83962e-05
1.25197e-05
1.7906e-05
-4.88464e-06
1.74043e-05
-2.16479e-05
1.67633e-05
-3.76989e-05
1.60509e-05
-5.30085e-05
1.53096e-05
-6.7453e-05
1.44445e-05
-8.09539e-05
1.35009e-05
-9.35839e-05
1.263e-05
-0.000105203
1.16195e-05
-0.000115904
1.07002e-05
-0.000125637
9.73298e-06
-0.000134389
8.75229e-06
-0.000142244
7.8552e-06
-0.000149094
6.84978e-06
-0.00015497
5.87599e-06
-0.000159914
4.94321e-06
-0.000163836
3.92236e-06
-0.00016677
2.93339e-06
-0.000168724
1.954e-06
-0.000169678
9.53598e-07
-0.000169777
9.82347e-08
-0.000169065
-7.11458e-07
-0.000167523
-1.54316e-06
-0.00016526
-2.26331e-06
-0.000162289
-2.97039e-06
-0.000158631
-3.65864e-06
-0.000154412
-4.21886e-06
-0.000149493
-4.9195e-06
-0.000143893
-5.60068e-06
-0.000137625
-6.26778e-06
-0.000130592
-7.03341e-06
-0.000122761
-7.83152e-06
-0.000114113
-8.64761e-06
-0.000104628
-9.4854e-06
-9.42321e-05
-1.03959e-05
-8.29845e-05
-1.12477e-05
-7.08403e-05
-1.21443e-05
-5.78371e-05
-1.30033e-05
-4.39955e-05
-1.38416e-05
-2.93617e-05
-1.46338e-05
-1.39741e-05
-1.53877e-05
2.03205e-06
-1.60062e-05
1.8619e-05
-1.6587e-05
3.56686e-05
-1.70497e-05
5.30418e-05
-1.73733e-05
7.06213e-05
-1.75795e-05
8.8168e-05
-1.75468e-05
0.000105573
-1.74051e-05
0.000122574
-1.70007e-05
0.000139005
-1.64311e-05
0.000154643
-1.56384e-05
0.000169168
-1.45247e-05
0.000182417
-1.32497e-05
0.000194106
-1.16882e-05
0.000204028
-9.92272e-06
0.000211953
-7.92488e-06
0.00021771
-5.75667e-06
0.000221171
-3.46121e-06
0.000222176
-1.0055e-06
0.000220791
1.3855e-06
0.000216876
3.91507e-06
0.00021054
6.33544e-06
0.000201901
8.63902e-06
0.00019108
1.08213e-05
0.000178291
1.27888e-05
0.000163705
1.45864e-05
0.000147639
1.60657e-05
0.000130278
1.7361e-05
0.00011196
1.83177e-05
9.29097e-05
1.90504e-05
7.34062e-05
1.95034e-05
5.37154e-05
1.96908e-05
3.40631e-05
1.96523e-05
1.47226e-05
1.93405e-05
-4.13629e-06
1.88588e-05
-2.22957e-05
1.81594e-05
-3.96536e-05
1.73579e-05
-5.60506e-05
1.6397e-05
-7.14309e-05
1.53803e-05
-8.5667e-05
1.42361e-05
-9.87952e-05
1.31282e-05
-0.000110778
1.19829e-05
-0.000121645
1.08671e-05
-0.000131457
9.81139e-06
-0.000140223
8.76632e-06
-0.000147986
7.76343e-06
-0.000154834
6.84747e-06
-0.000160748
5.914e-06
-0.00016583
5.08255e-06
-0.000170129
4.29904e-06
-0.000173638
3.50891e-06
-0.00017645
2.8116e-06
-0.000178525
2.07503e-06
-0.000179959
1.43443e-06
-0.000180706
7.46911e-07
-0.000180837
1.30914e-07
-0.000180301
-5.36416e-07
-0.000179144
-1.15642e-06
-0.000177356
-1.78867e-06
-0.00017496
-2.39579e-06
-0.000171896
-3.06335e-06
-0.000168207
-3.68967e-06
-0.000163845
-4.36134e-06
-0.000158747
-5.09818e-06
-0.000152925
-5.82202e-06
-0.000146272
-6.6531e-06
-0.000138922
-7.34957e-06
-0.000130678
-8.24406e-06
-0.00012157
-9.10822e-06
-0.000111614
-9.95641e-06
-0.000100743
-1.08706e-05
-8.90315e-05
-1.17117e-05
-7.64522e-05
-1.25794e-05
-6.30041e-05
-1.34481e-05
-4.87128e-05
-1.42913e-05
-3.3647e-05
-1.50659e-05
-1.78908e-05
-1.57563e-05
-1.54735e-06
-1.63435e-05
1.52728e-05
-1.68202e-05
3.24166e-05
-1.71438e-05
4.96768e-05
-1.72603e-05
6.69662e-05
-1.72895e-05
8.40424e-05
-1.70762e-05
0.000100697
-1.66547e-05
0.000116645
-1.59479e-05
0.000131619
-1.49742e-05
0.000145321
-1.37016e-05
0.000157502
-1.21812e-05
0.000167954
-1.04524e-05
0.000176491
-8.53681e-06
0.000182952
-6.46138e-06
0.000187217
-4.26448e-06
0.000189127
-1.9105e-06
0.000188675
4.52498e-07
0.000185777
2.89767e-06
0.000180433
5.34384e-06
0.000172747
7.68613e-06
0.000162924
9.8233e-06
0.000151095
1.18285e-05
0.000137555
1.35399e-05
0.000122557
1.49979e-05
0.000106386
1.6171e-05
8.92537e-05
1.71323e-05
7.15123e-05
1.77414e-05
5.33864e-05
1.81258e-05
3.51057e-05
1.82807e-05
1.69431e-05
1.81626e-05
-9.3896e-07
1.7882e-05
-1.84221e-05
1.74831e-05
-3.52725e-05
1.68504e-05
-5.14431e-05
1.61705e-05
-6.68545e-05
1.54114e-05
-8.13783e-05
1.45238e-05
-9.50122e-05
1.36339e-05
-0.000107716
1.2704e-05
-0.000119442
1.17263e-05
-0.000130233
1.07908e-05
-0.000140043
9.80991e-06
-0.000148875
8.83196e-06
-0.000156797
7.92203e-06
-0.000163719
6.92138e-06
-0.000169723
6.0042e-06
-0.000174809
5.08605e-06
-0.000179151
4.34208e-06
-0.000182679
3.52813e-06
-0.000185489
2.81012e-06
-0.000187637
2.14767e-06
-0.000189105
1.46866e-06
-0.00018996
8.54893e-07
-0.000190222
2.61421e-07
-0.000189861
-3.60641e-07
-0.000188901
-9.60401e-07
-0.000187369
-1.53135e-06
-0.000185227
-2.14179e-06
-0.000182475
-2.75199e-06
-0.000179262
-3.21352e-06
-0.000175463
-3.79869e-06
-0.000171188
-4.27455e-06
-0.000166346
-4.8424e-06
-0.000160916
-5.42987e-06
-0.000154814
-6.10229e-06
-0.000148089
-6.72511e-06
-0.000140538
-7.55015e-06
-0.000132183
-8.35511e-06
-0.000123054
-9.1291e-06
-0.000113112
-9.94131e-06
-0.000102468
-1.06446e-05
-9.10488e-05
-1.14189e-05
-7.8919e-05
-1.21297e-05
-6.60396e-05
-1.28794e-05
-5.24249e-05
-1.36147e-05
-3.80419e-05
-1.43829e-05
-2.3155e-05
-1.4887e-05
-7.68729e-06
-1.54677e-05
8.1838e-06
-1.58711e-05
2.42953e-05
-1.61116e-05
4.04945e-05
-1.61992e-05
5.65565e-05
-1.60621e-05
7.22858e-05
-1.57294e-05
8.74311e-05
-1.51455e-05
0.000101864
-1.44334e-05
0.000115227
-1.33626e-05
0.000127367
-1.21406e-05
0.000138102
-1.07349e-05
0.00014724
-9.13766e-06
0.000154561
-7.32175e-06
0.000160099
-5.53775e-06
0.00016367
-3.57122e-06
0.000165378
-1.70774e-06
0.000165031
3.47109e-07
0.000162747
2.28317e-06
0.000158673
4.07475e-06
0.000152703
5.96966e-06
0.000144951
7.7515e-06
0.000135422
9.52981e-06
0.000124299
1.11221e-05
0.000111692
1.2607e-05
9.7751e-05
1.39414e-05
8.2816e-05
1.4935e-05
6.69511e-05
1.58649e-05
5.05865e-05
1.63646e-05
3.39002e-05
1.66863e-05
1.71543e-05
1.67459e-05
7.45224e-07
1.6409e-05
-1.5315e-05
1.60602e-05
-3.07736e-05
1.54587e-05
-4.54552e-05
1.46815e-05
-5.92733e-05
1.38181e-05
-7.21836e-05
1.29102e-05
-8.40972e-05
1.19137e-05
-9.50283e-05
1.09311e-05
-0.000104992
9.96321e-06
-0.000113972
8.98075e-06
-0.00012206
8.08766e-06
-0.000129264
7.20367e-06
-0.000135669
6.40529e-06
-0.000141366
5.69731e-06
-0.000146415
5.04829e-06
-0.000150849
4.43433e-06
-0.000154728
3.87956e-06
-0.000158104
3.37557e-06
-0.000161027
2.92342e-06
-0.000163503
2.47562e-06
-0.000165527
2.024e-06
-0.000167091
1.56401e-06
-0.000168164
1.07258e-06
-0.000168719
5.5525e-07
-0.000168689
-2.94772e-08
-0.000167966
-7.23657e-07
-0.000166539
-1.42638e-06
-0.00016438
-2.15977e-06
-0.000161353
-3.0266e-06
-0.000157449
-3.90419e-06
-0.00015262
-4.82905e-06
-0.0001467
-5.92016e-06
-0.000139814
-6.88594e-06
-0.000131825
-7.9889e-06
-0.000122785
-9.04009e-06
-0.000112731
-1.00535e-05
-0.000101544
-1.1187e-05
-8.93523e-05
-1.21919e-05
-7.62894e-05
-1.3063e-05
-6.22521e-05
-1.40373e-05
-4.73863e-05
-1.48657e-05
-3.19162e-05
-1.54702e-05
-1.5789e-05
-1.61272e-05
7.58414e-07
-1.65474e-05
1.76524e-05
-1.6894e-05
3.47064e-05
-1.7054e-05
5.16482e-05
-1.69418e-05
6.84111e-05
-1.67629e-05
8.47517e-05
-1.63406e-05
0.000100423
-1.5671e-05
0.000115334
-1.49111e-05
0.000129225
-1.38917e-05
0.000141949
-1.2723e-05
0.000153373
-1.14245e-05
0.000163309
-9.93603e-06
0.000171656
-8.34658e-06
0.000178304
-6.64841e-06
0.000183148
-4.84414e-06
0.000186116
-2.96821e-06
0.000187141
-1.02442e-06
0.000186169
9.7136e-07
0.000183193
2.97673e-06
0.000178272
4.92029e-06
0.000171608
6.66388e-06
0.000163191
8.41763e-06
1.00765e-05
-9.45497e-05
2.0875e-05
-0.000104043
1.89876e-05
-0.000112703
1.73181e-05
-0.000120544
1.5681e-05
-0.000127582
1.40737e-05
-0.000133867
1.25703e-05
-0.000139412
1.10911e-05
-0.000144256
9.68471e-06
-0.000148413
8.31335e-06
-0.000151895
6.96474e-06
-0.000154725
5.65795e-06
-0.000156921
4.38696e-06
-0.00015848
3.11556e-06
-0.000159413
1.86426e-06
-0.0001597
5.82364e-07
-0.000159275
-8.47316e-07
-0.000158209
-2.1318e-06
-0.000156393
-3.63379e-06
-0.00015388
-5.02744e-06
-0.000150677
-6.40838e-06
-0.00014661
-8.13738e-06
-0.000141774
-9.66822e-06
-0.000136111
-1.13296e-05
-0.000129576
-1.30657e-05
-0.000122105
-1.49482e-05
-0.000113672
-1.68696e-05
-0.000104173
-1.89948e-05
-9.37953e-05
-2.07645e-05
-8.23379e-05
-2.29021e-05
-6.97834e-05
-2.51092e-05
-5.63261e-05
-2.69143e-05
-4.18009e-05
-2.90477e-05
-2.63945e-05
-3.08093e-05
-9.99756e-06
-3.2789e-05
7.19699e-06
-3.43849e-05
2.49638e-05
-3.55263e-05
4.33256e-05
-3.67135e-05
6.21403e-05
-3.76192e-05
8.10522e-05
-3.78152e-05
9.99707e-05
-3.78239e-05
0.000118636
-3.73232e-05
0.00013684
-3.63925e-05
0.000154367
-3.50383e-05
0.000170863
-3.29826e-05
0.00018613
-3.05222e-05
0.000199988
-2.77058e-05
0.000212085
-2.41889e-05
0.000222292
-2.04111e-05
0.000230494
-1.63949e-05
0.000236447
-1.18958e-05
0.000240157
-7.41182e-06
0.000241482
-2.65087e-06
0.000240493
1.96809e-06
0.000237191
6.60756e-06
0.000231442
1.1503e-05
0.000223632
1.56113e-05
0.000213831
1.95979e-05
0.000202092
2.34679e-05
0.000188761
2.66565e-05
0.000173886
2.9736e-05
0.000157931
3.18989e-05
0.000140895
3.40626e-05
0.000123111
3.55543e-05
0.0001049
3.64095e-05
8.6238e-05
3.7318e-05
6.75072e-05
3.74515e-05
4.88302e-05
3.73478e-05
3.04208e-05
3.68057e-05
1.25031e-05
3.58237e-05
-4.91343e-06
3.48209e-05
-2.16858e-05
3.35357e-05
-3.77443e-05
3.21094e-05
-5.30609e-05
3.06263e-05
-6.75115e-05
2.8895e-05
-8.10159e-05
2.70053e-05
-9.36534e-05
2.52675e-05
-0.000105278
2.32437e-05
-0.000115972
2.13949e-05
-0.000125706
1.94663e-05
-0.000134464
1.75108e-05
-0.000142324
1.57143e-05
-0.000149167
1.36932e-05
-0.000155033
1.17414e-05
-0.000159978
9.88797e-06
-0.000163901
7.84577e-06
-0.000166834
5.86555e-06
-0.000168788
3.90825e-06
-0.000169739
1.90377e-06
-0.000169837
1.95992e-07
-0.000169105
-1.44388e-06
-0.000167555
-3.09329e-06
-0.00016529
-4.5288e-06
-0.000162325
-5.93512e-06
-0.000158671
-7.31359e-06
-0.000154452
-8.43761e-06
-0.000149534
-9.83792e-06
-0.000143934
-1.12008e-05
-0.00013767
-1.25321e-05
-0.000130648
-1.40553e-05
-0.000122827
-1.56525e-05
-0.000114187
-1.72877e-05
-0.000104696
-1.89769e-05
-9.42965e-05
-2.07955e-05
-8.30518e-05
-2.24925e-05
-7.09089e-05
-2.42874e-05
-5.79081e-05
-2.60041e-05
-4.40585e-05
-2.76913e-05
-2.9419e-05
-2.92734e-05
-1.40174e-05
-3.07894e-05
1.98528e-06
-3.20089e-05
1.85747e-05
-3.31765e-05
3.56392e-05
-3.41142e-05
5.3023e-05
-3.47572e-05
7.06084e-05
-3.5165e-05
8.81635e-05
-3.5102e-05
0.000105584
-3.48253e-05
0.000122593
-3.40098e-05
0.000139031
-3.28699e-05
0.000154682
-3.1289e-05
0.000169213
-2.90564e-05
0.000182469
-2.65051e-05
0.000194162
-2.33812e-05
0.000204092
-1.98536e-05
0.000212039
-1.58717e-05
0.000217781
-1.1499e-05
0.000221237
-6.91715e-06
0.000222235
-2.00367e-06
0.000220832
2.78911e-06
0.00021691
7.8363e-06
0.00021056
1.26862e-05
0.000201904
1.72951e-05
0.000191074
2.16506e-05
0.000178263
2.56005e-05
0.000163657
2.9192e-05
0.000147587
3.21358e-05
0.000130193
3.47546e-05
0.000111849
3.66619e-05
9.27916e-05
3.81078e-05
7.32779e-05
3.90171e-05
5.35675e-05
3.94012e-05
3.39043e-05
3.93156e-05
1.45493e-05
3.86955e-05
-4.31704e-06
3.77252e-05
-2.24574e-05
3.62998e-05
-3.98543e-05
3.47548e-05
-5.62457e-05
3.27884e-05
-7.16296e-05
3.07642e-05
-8.58673e-05
2.84738e-05
-9.89486e-05
2.62095e-05
-0.000110974
2.40083e-05
-0.000121844
2.17371e-05
-0.000131649
1.96164e-05
-0.000140398
1.75154e-05
-0.000148169
1.55347e-05
-0.000155006
1.36843e-05
-0.000160914
1.1822e-05
-0.000165966
1.01342e-05
-0.000170281
8.61416e-06
-0.000173785
7.01289e-06
-0.000176592
5.61881e-06
-0.000178642
4.12506e-06
-0.000180103
2.89533e-06
-0.000180844
1.48858e-06
-0.000180964
2.50302e-07
-0.000180394
-1.10636e-06
-0.000179269
-2.28111e-06
-0.000177478
-3.57988e-06
-0.000175077
-4.79654e-06
-0.000172013
-6.12713e-06
-0.000168314
-7.3892e-06
-0.000163959
-8.71581e-06
-0.00015886
-1.01978e-05
-0.000153031
-1.16505e-05
-0.000146376
-1.33082e-05
-0.000139027
-1.46985e-05
-0.00013078
-1.64915e-05
-0.000121675
-1.82127e-05
-0.000111711
-1.99208e-05
-0.000100827
-2.17548e-05
-8.91196e-05
-2.34188e-05
-7.65337e-05
-2.51653e-05
-6.30849e-05
-2.68969e-05
-4.87938e-05
-2.85825e-05
-3.37256e-05
-3.01342e-05
-1.79527e-05
-3.15292e-05
-1.5958e-06
-3.27005e-05
1.52212e-05
-3.36373e-05
3.23747e-05
-3.42974e-05
4.96472e-05
-3.45328e-05
6.69397e-05
-3.45821e-05
8.40249e-05
-3.41615e-05
0.000100692
-3.3322e-05
0.000116648
-3.19037e-05
0.000131626
-2.99524e-05
0.000145343
-2.74185e-05
0.00015756
-2.43984e-05
0.000167986
-2.08791e-05
0.000176521
-1.70719e-05
0.000182983
-1.29228e-05
0.000187248
-8.52978e-06
0.000189154
-3.8167e-06
0.000188688
9.18945e-07
0.000185778
5.80753e-06
0.000180433
1.06891e-05
0.000172733
1.53861e-05
0.000162893
1.96631e-05
0.000151053
2.36681e-05
0.000137509
2.70839e-05
0.000122485
3.00216e-05
0.000106267
3.23895e-05
8.91432e-05
3.42559e-05
7.13828e-05
3.55019e-05
5.32858e-05
3.62228e-05
3.49613e-05
3.66051e-05
1.67853e-05
3.63387e-05
-1.10479e-06
3.57721e-05
-1.85986e-05
3.4977e-05
-3.5453e-05
3.37049e-05
-5.16365e-05
3.2354e-05
-6.70354e-05
3.08103e-05
-8.15653e-05
2.90538e-05
-9.51938e-05
2.72624e-05
-0.000107883
2.53928e-05
-0.000119623
2.34664e-05
-0.000130403
2.15712e-05
-0.00014021
1.96164e-05
-0.000149036
1.7658e-05
-0.000156962
1.58489e-05
-0.000163878
1.38373e-05
-0.000169873
1.19991e-05
-0.000174983
1.01953e-05
-0.000179294
8.65317e-06
-0.000182813
7.04756e-06
-0.000185596
5.59263e-06
-0.000187767
4.3194e-06
-0.000189236
2.93741e-06
-0.000190093
1.71185e-06
-0.00019035
5.19052e-07
-0.000189981
-7.3024e-07
-0.000189021
-1.92054e-06
-0.000187479
-3.07257e-06
-0.00018534
-4.28148e-06
-0.000182578
-5.51395e-06
-0.000179365
-6.42648e-06
-0.000175574
-7.58916e-06
-0.000171297
-8.5518e-06
-0.000166455
-9.68468e-06
-0.00016102
-1.0864e-05
-0.00015493
-1.21921e-05
-0.000148203
-1.34526e-05
-0.000140649
-1.51039e-05
-0.000132302
-1.67016e-05
-0.000123168
-1.82639e-05
-0.00011324
-1.98688e-05
-0.000102584
-2.13001e-05
-9.11413e-05
-2.28619e-05
-7.90369e-05
-2.4234e-05
-6.61534e-05
-2.57629e-05
-5.25325e-05
-2.72356e-05
-3.8175e-05
-2.87404e-05
-2.32421e-05
-2.98199e-05
-7.75608e-06
-3.09538e-05
8.13142e-06
-3.17587e-05
2.42599e-05
-3.22401e-05
4.04794e-05
-3.24188e-05
5.65526e-05
-3.21354e-05
7.22983e-05
-3.14753e-05
8.74632e-05
-3.03104e-05
0.000101912
-2.88824e-05
0.000115276
-2.67271e-05
0.000127433
-2.42969e-05
0.000138182
-2.14844e-05
0.000147327
-1.82824e-05
0.000154657
-1.46518e-05
0.000160197
-1.10785e-05
0.000163769
-7.14323e-06
0.000165484
-3.42217e-06
0.000165131
6.99237e-07
0.000162844
4.57047e-06
0.00015877
8.14903e-06
0.000152797
1.1942e-05
0.000145044
1.55049e-05
0.000135507
1.90669e-05
0.000124378
2.22504e-05
0.000111764
2.52216e-05
9.7814e-05
2.7891e-05
8.28692e-05
2.98796e-05
6.69892e-05
3.17449e-05
5.06141e-05
3.27396e-05
3.39163e-05
3.33841e-05
1.7156e-05
3.35062e-05
7.40183e-07
3.28248e-05
-1.5333e-05
3.21333e-05
-3.08005e-05
3.09262e-05
-4.54894e-05
2.93704e-05
-5.93137e-05
2.76424e-05
-7.22287e-05
2.58252e-05
-8.41452e-05
2.38301e-05
-9.50807e-05
2.18666e-05
-0.000105045
1.99272e-05
-0.000114025
1.7961e-05
-0.000122107
1.61701e-05
-0.000129311
1.44076e-05
-0.000135717
1.28113e-05
-0.000141417
1.13967e-05
-0.000146461
1.00928e-05
-0.000150892
8.86475e-06
-0.000154769
7.75725e-06
-0.000158145
6.75133e-06
-0.000161068
5.84658e-06
-0.000163544
4.95141e-06
-0.000165569
4.04926e-06
-0.000167138
3.13236e-06
-0.00016822
2.15504e-06
-0.000168776
1.11159e-06
-0.000168742
-6.39547e-08
-0.000168017
-1.44822e-06
-0.000166593
-2.85049e-06
-0.000164438
-4.31554e-06
-0.000161411
-6.05332e-06
-0.000157509
-7.80556e-06
-0.000152679
-9.65923e-06
-0.000146761
-1.18388e-05
-0.000139876
-1.37711e-05
-0.000131886
-1.59786e-05
-0.000122845
-1.80806e-05
-0.000112788
-2.0111e-05
-0.0001016
-2.23752e-05
-8.94043e-05
-2.43871e-05
-7.6338e-05
-2.61293e-05
-6.22942e-05
-2.80811e-05
-4.74208e-05
-2.97392e-05
-3.19457e-05
-3.09453e-05
-1.58137e-05
-3.22594e-05
7.42802e-07
-3.31039e-05
1.76439e-05
-3.37952e-05
3.47107e-05
-3.41208e-05
5.16608e-05
-3.3892e-05
6.84334e-05
-3.35355e-05
8.47859e-05
-3.26931e-05
0.000100467
-3.13517e-05
0.000115386
-2.98305e-05
0.000129289
-2.77943e-05
0.000142027
-2.5462e-05
0.000153457
-2.28546e-05
0.00016339
-1.98689e-05
0.000171741
-1.66972e-05
0.000178393
-1.33004e-05
0.000183235
-9.68655e-06
0.000186202
-5.935e-06
0.000187228
-2.05005e-06
0.000186246
1.95262e-06
0.000183267
5.95564e-06
0.000178346
9.84154e-06
0.000171678
1.33321e-05
0.000163254
1.68409e-05
2.01605e-05
-9.46203e-05
3.13128e-05
-0.000104113
2.84801e-05
-0.000112772
2.59768e-05
-0.000120613
2.35223e-05
-0.000127651
2.11123e-05
-0.000133935
1.88544e-05
-0.00013948
1.66354e-05
-0.000144321
1.45264e-05
-0.000148477
1.24685e-05
-0.000151957
1.04453e-05
-0.000154786
8.48696e-06
-0.00015698
6.58116e-06
-0.000158545
4.68019e-06
-0.000159471
2.79023e-06
-0.000159751
8.62865e-07
-0.000159329
-1.26928e-06
-0.000158261
-3.20025e-06
-0.000156446
-5.4486e-06
-0.000153941
-7.53281e-06
-0.000150737
-9.61264e-06
-0.000146681
-1.2193e-05
-0.000141841
-1.45083e-05
-0.000136181
-1.69899e-05
-0.000129644
-1.96028e-05
-0.000122177
-2.24143e-05
-0.000113756
-2.52914e-05
-0.000104252
-2.84982e-05
-9.38983e-05
-3.11185e-05
-8.24151e-05
-3.43853e-05
-6.98615e-05
-3.76629e-05
-5.64027e-05
-4.03731e-05
-4.18746e-05
-4.35758e-05
-2.64673e-05
-4.62167e-05
-1.00658e-05
-4.91905e-05
7.14752e-06
-5.15983e-05
2.49343e-05
-5.33132e-05
4.33038e-05
-5.5083e-05
6.21293e-05
-5.64448e-05
8.1058e-05
-5.67439e-05
9.99948e-05
-5.67607e-05
0.000118679
-5.6007e-05
0.000136902
-5.46164e-05
0.000154446
-5.25822e-05
0.000170966
-4.95026e-05
0.000186248
-4.58036e-05
0.000200121
-4.15796e-05
0.000212231
-3.62991e-05
0.000222451
-3.06308e-05
0.000230662
-2.4606e-05
0.000236618
-1.7852e-05
0.000240336
-1.11293e-05
0.000241668
-3.98308e-06
0.000240656
2.97983e-06
0.000237359
9.9045e-06
0.000231623
1.72389e-05
0.000223789
2.3446e-05
0.000213978
2.94085e-05
0.000202221
3.52244e-05
0.000188878
4.00003e-05
0.000173983
4.46304e-05
0.000158004
4.78782e-05
0.000140956
5.11102e-05
0.000123148
5.33622e-05
0.000104909
5.46483e-05
8.62487e-05
5.59787e-05
6.75047e-05
5.61955e-05
4.8825e-05
5.60275e-05
3.03934e-05
5.52373e-05
1.24615e-05
5.37555e-05
-4.96532e-06
5.22477e-05
-2.17495e-05
5.03199e-05
-3.78125e-05
4.81723e-05
-5.31348e-05
4.59485e-05
-6.75957e-05
4.33559e-05
-8.11078e-05
4.05173e-05
-9.37461e-05
3.79057e-05
-0.000105365
3.48628e-05
-0.000116057
3.20864e-05
-0.000125802
2.92117e-05
-0.000134568
2.62766e-05
-0.000142429
2.35747e-05
-0.000149271
2.0535e-05
-0.000155118
1.7589e-05
-0.000160065
1.48346e-05
-0.000163999
1.17798e-05
-0.000166938
8.80353e-06
-0.000168897
5.86716e-06
-0.000169833
2.83934e-06
-0.000169933
2.96048e-07
-0.000169187
-2.19025e-06
-0.000167642
-4.63801e-06
-0.00016538
-6.79205e-06
-0.000162417
-8.89764e-06
-0.000158791
-1.09406e-05
-0.000154565
-1.26638e-05
-0.000149655
-1.47482e-05
-0.00014407
-1.67851e-05
-0.000137817
-1.87857e-05
-0.000130811
-2.10615e-05
-0.000122996
-2.34679e-05
-0.000114373
-2.59103e-05
-0.000104887
-2.84637e-05
-9.44596e-05
-3.12226e-05
-8.32665e-05
-3.36857e-05
-7.11177e-05
-3.64362e-05
-5.8107e-05
-3.90149e-05
-4.42509e-05
-4.15475e-05
-2.96026e-05
-4.39218e-05
-1.41571e-05
-4.62349e-05
1.80669e-06
-4.79728e-05
1.841e-05
-4.97799e-05
3.54906e-05
-5.11949e-05
5.28862e-05
-5.21529e-05
7.04694e-05
-5.27483e-05
8.80622e-05
-5.26948e-05
0.000105474
-5.22371e-05
0.000122543
-5.10785e-05
0.000138981
-4.93082e-05
0.000154639
-4.69469e-05
0.000169197
-4.36144e-05
0.000182468
-3.97765e-05
0.000194186
-3.50995e-05
0.000204146
-2.98139e-05
0.000212103
-2.38279e-05
0.000217853
-1.72496e-05
0.000221303
-1.03674e-05
0.000222312
-3.0127e-06
0.000220877
4.22437e-06
0.000216953
1.17603e-05
0.000210595
1.90437e-05
0.000201924
2.59669e-05
0.000191103
3.24714e-05
0.00017825
3.84534e-05
0.000163624
4.38178e-05
0.000147492
4.82675e-05
0.000130105
5.21423e-05
0.000111725
5.50411e-05
9.26535e-05
5.71796e-05
7.3147e-05
5.85237e-05
5.33801e-05
5.91681e-05
3.36952e-05
5.90004e-05
1.43281e-05
5.80626e-05
-4.54886e-06
5.66022e-05
-2.26923e-05
5.44433e-05
-4.00984e-05
5.21609e-05
-5.65005e-05
4.91905e-05
-7.18894e-05
4.61531e-05
-8.61317e-05
4.27161e-05
-9.92131e-05
3.9291e-05
-0.000111251
3.60461e-05
-0.000122124
3.261e-05
-0.00013191
2.94024e-05
-0.000140637
2.62424e-05
-0.000148413
2.33105e-05
-0.000155238
2.051e-05
-0.000161163
1.77469e-05
-0.000166205
1.51763e-05
-0.000170517
1.29266e-05
-0.000174021
1.05167e-05
-0.000176816
8.41322e-06
-0.000178864
6.17332e-06
-0.000180332
4.364e-06
-0.000181076
2.23218e-06
-0.000181192
3.65798e-07
-0.000180615
-1.6827e-06
-0.000179492
-3.40401e-06
-0.000177707
-5.36549e-06
-0.000175288
-7.21534e-06
-0.000172243
-9.17146e-06
-0.000168552
-1.10811e-05
-0.000164189
-1.30787e-05
-0.000159093
-1.52938e-05
-0.000153268
-1.7475e-05
-0.000146645
-1.99317e-05
-0.000139261
-2.20817e-05
-0.00013101
-2.47425e-05
-0.000121918
-2.73048e-05
-0.00011194
-2.98988e-05
-0.000101018
-3.26769e-05
-8.93332e-05
-3.51038e-05
-7.6758e-05
-3.77405e-05
-6.33093e-05
-4.03456e-05
-4.90162e-05
-4.28756e-05
-3.39348e-05
-4.52156e-05
-1.8138e-05
-4.73261e-05
-1.76558e-06
-4.90729e-05
1.5051e-05
-5.04539e-05
3.22075e-05
-5.1454e-05
4.95164e-05
-5.18417e-05
6.68277e-05
-5.18934e-05
8.39357e-05
-5.12695e-05
0.000100622
-5.00078e-05
0.0001166
-4.7882e-05
0.000131598
-4.49505e-05
0.000145327
-4.11478e-05
0.00015755
-3.66218e-05
0.000168001
-3.13301e-05
0.000176558
-2.56282e-05
0.000183038
-1.94027e-05
0.000187299
-1.27914e-05
0.000189221
-5.739e-06
0.000188734
1.40652e-06
0.000185804
8.73693e-06
0.000180452
1.60411e-05
0.000172744
2.30944e-05
0.000162884
2.95228e-05
0.00015103
3.55224e-05
0.000137477
4.06371e-05
0.000122425
4.50737e-05
0.000106171
4.86431e-05
8.9033e-05
5.13938e-05
7.12385e-05
5.32963e-05
5.30865e-05
5.43747e-05
3.47872e-05
5.49044e-05
1.65886e-05
5.45373e-05
-1.34436e-06
5.37051e-05
-1.88143e-05
5.24469e-05
-3.5688e-05
5.05786e-05
-5.18752e-05
4.85412e-05
-6.72677e-05
4.62028e-05
-8.18086e-05
4.35947e-05
-9.54369e-05
4.08906e-05
-0.00010809
3.80459e-05
-0.000119871
3.52472e-05
-0.000130636
3.23361e-05
-0.000140438
2.94189e-05
-0.00014927
2.64899e-05
-0.000157202
2.37808e-05
-0.000164121
2.07563e-05
-0.000170115
1.79935e-05
-0.000175238
1.53176e-05
-0.000179528
1.29439e-05
-0.000183047
1.05661e-05
-0.000185817
8.36227e-06
-0.000187993
6.4961e-06
-0.000189466
4.41054e-06
-0.000190321
2.56605e-06
-0.000190571
7.69245e-07
-0.0001902
-1.10135e-06
-0.000189251
-2.86946e-06
-0.000187691
-4.63181e-06
-0.000185556
-6.41682e-06
-0.000182822
-8.24753e-06
-0.000179576
-9.6728e-06
-0.000175796
-1.13692e-05
-0.000171486
-1.28617e-05
-0.000166681
-1.44893e-05
-0.000161254
-1.62908e-05
-0.000155209
-1.82375e-05
-0.000148441
-2.02206e-05
-0.000140883
-2.26614e-05
-0.000132537
-2.5048e-05
-0.0001234
-2.74e-05
-0.000113491
-2.97781e-05
-0.00010282
-3.19716e-05
-9.13516e-05
-3.43298e-05
-7.92639e-05
-3.63217e-05
-6.63697e-05
-3.8657e-05
-5.27258e-05
-4.08794e-05
-3.83751e-05
-4.30911e-05
-2.34087e-05
-4.47863e-05
-7.8864e-06
-4.64761e-05
8.03429e-06
-4.76794e-05
2.41763e-05
-4.83821e-05
4.04205e-05
-4.86631e-05
5.65213e-05
-4.82363e-05
7.22965e-05
-4.72506e-05
8.7487e-05
-4.5501e-05
0.00010196
-4.33553e-05
0.000115345
-4.01129e-05
0.000127528
-3.64791e-05
0.000138294
-3.22511e-05
0.000147445
-2.74339e-05
0.00015479
-2.19969e-05
0.000160341
-1.66296e-05
0.000163923
-1.07248e-05
0.000165627
-5.12625e-06
0.000165273
1.0535e-06
0.000162983
6.85947e-06
0.000158907
1.22249e-05
0.000152931
1.79183e-05
0.000145174
2.32616e-05
0.00013562
2.86208e-05
0.000124486
3.33842e-05
0.000111861
3.78467e-05
9.78993e-05
4.1853e-05
8.293e-05
4.48489e-05
6.70317e-05
4.76431e-05
5.06328e-05
4.91385e-05
3.39186e-05
5.00984e-05
1.71356e-05
5.02891e-05
7.01744e-07
4.92587e-05
-1.53817e-05
4.82167e-05
-3.08607e-05
4.64052e-05
-4.5558e-05
4.40676e-05
-5.93885e-05
4.1473e-05
-7.23084e-05
3.8745e-05
-8.42259e-05
3.57476e-05
-9.51653e-05
3.2806e-05
-0.000105127
2.98887e-05
-0.000114108
2.69421e-05
-0.000122184
2.42464e-05
-0.000129386
2.1609e-05
-0.000135786
1.92118e-05
-0.000141479
1.70898e-05
-0.000146522
1.5135e-05
-0.000150947
1.32904e-05
-0.000154825
1.16346e-05
-0.000158196
1.01223e-05
-0.000161121
8.77202e-06
-0.0001636
7.42994e-06
-0.000165623
6.07303e-06
-0.000167193
4.70191e-06
-0.000168278
3.24027e-06
-0.000168832
1.66591e-06
-0.000168797
-9.95305e-08
-0.000168074
-2.17121e-06
-0.000166655
-4.26911e-06
-0.000164508
-6.463e-06
-0.000161482
-9.07881e-06
-0.000157588
-1.16997e-05
-0.000152756
-1.44914e-05
-0.000146841
-1.77542e-05
-0.000139958
-2.0654e-05
-0.000131971
-2.39656e-05
-0.000122932
-2.71192e-05
-0.000112869
-3.01744e-05
-0.000101678
-3.35657e-05
-8.94797e-05
-3.65858e-05
-7.64068e-05
-3.92021e-05
-6.23548e-05
-4.21332e-05
-4.74732e-05
-4.46208e-05
-3.19866e-05
-4.64319e-05
-1.58412e-05
-4.84047e-05
7.29133e-07
-4.96742e-05
1.76531e-05
-5.07191e-05
3.47344e-05
-5.12022e-05
5.16984e-05
-5.0856e-05
6.84942e-05
-5.03313e-05
8.4865e-05
-4.9064e-05
0.000100557
-4.70433e-05
0.000115493
-4.47665e-05
0.000129416
-4.1718e-05
0.000142161
-3.82068e-05
0.000153597
-3.42901e-05
0.000163536
-2.98081e-05
0.000171889
-2.50501e-05
0.00017854
-1.9952e-05
0.00018338
-1.45259e-05
0.000186344
-8.89906e-06
0.000187372
-3.07874e-06
0.00018638
2.94487e-06
0.000183405
8.93095e-06
0.000178485
1.47615e-05
0.00017181
2.0007e-05
0.000163377
2.52733e-05
3.02555e-05
-9.47262e-05
4.17496e-05
-0.000104218
3.79725e-05
-0.000112876
3.46342e-05
-0.000120716
3.13628e-05
-0.000127757
2.81527e-05
-0.000134039
2.51368e-05
-0.000139582
2.21783e-05
-0.000144422
1.93666e-05
-0.000148574
1.66198e-05
-0.000152055
1.39268e-05
-0.000154887
1.1319e-05
-0.000157082
8.77597e-06
-0.000158659
6.25682e-06
-0.000159568
3.69975e-06
-0.000159835
1.1296e-06
-0.000159411
-1.69322e-06
-0.000158338
-4.27311e-06
-0.000156525
-7.26153e-06
-0.000154032
-1.00267e-05
-0.000150827
-1.28175e-05
-0.000146795
-1.6225e-05
-0.000141941
-1.93623e-05
-0.000136287
-2.26436e-05
-0.000129746
-2.61441e-05
-0.000122286
-2.98736e-05
-0.000113882
-3.36953e-05
-0.00010437
-3.8011e-05
-9.40627e-05
-4.14255e-05
-8.25311e-05
-4.59169e-05
-6.99785e-05
-5.02155e-05
-5.65186e-05
-5.38331e-05
-4.19873e-05
-5.81071e-05
-2.65776e-05
-6.16264e-05
-1.01731e-05
-6.5595e-05
7.07506e-06
-6.88466e-05
2.48836e-05
-7.11218e-05
4.327e-05
-7.34694e-05
6.21161e-05
-7.52909e-05
8.10657e-05
-7.56935e-05
0.000100026
-7.57208e-05
0.000118741
-7.47219e-05
0.000136995
-7.2871e-05
0.000154569
-7.01558e-05
0.000171125
-6.60594e-05
0.000186423
-6.11008e-05
0.000200323
-5.54798e-05
0.00021245
-4.84268e-05
0.000222684
-4.08645e-05
0.000230908
-3.28302e-05
0.000236869
-2.38131e-05
0.000240599
-1.48586e-05
0.000241939
-5.32364e-06
0.000240899
4.0195e-06
0.000237602
1.32021e-05
0.000231886
2.29543e-05
0.000224021
3.13109e-05
0.000214197
3.9233e-05
0.000202414
4.70073e-05
0.000189051
5.33627e-05
0.000174128
5.95539e-05
0.000158112
6.38938e-05
0.000141046
6.81764e-05
0.000123203
7.12048e-05
0.000104926
7.29252e-05
8.62637e-05
7.46415e-05
6.74997e-05
7.49595e-05
4.8825e-05
7.47022e-05
3.03539e-05
7.37084e-05
1.23993e-05
7.171e-05
-5.0446e-06
6.96916e-05
-2.18456e-05
6.71209e-05
-3.79174e-05
6.4244e-05
-5.32526e-05
6.12838e-05
-6.77221e-05
5.78254e-05
-8.12428e-05
5.4038e-05
-9.38879e-05
5.05508e-05
-0.000105501
4.64761e-05
-0.000116186
4.27711e-05
-0.000125946
3.89716e-05
-0.000134721
3.50512e-05
-0.000142586
3.14401e-05
-0.000149433
2.73819e-05
-0.000155255
2.34112e-05
-0.000160194
1.97727e-05
-0.000164154
1.57395e-05
-0.000167097
1.17464e-05
-0.000169061
7.83112e-06
-0.000169996
3.77407e-06
-0.000170111
4.10826e-07
-0.000169347
-2.95459e-06
-0.000167803
-6.18185e-06
-0.00016555
-9.04615e-06
-0.00016259
-1.18578e-05
-0.000159002
-1.45291e-05
-0.000154772
-1.68942e-05
-0.000149876
-1.96435e-05
-0.00014432
-2.23418e-05
-0.000138074
-2.50316e-05
-0.000131079
-2.80565e-05
-0.000123291
-3.12561e-05
-0.000114681
-3.45205e-05
-0.000105196