/*--------------------------------*- C++ -*----------------------------------*\
| =========                 |                                                 |
| \\      /  F ield         | OpenFOAM: The Open Source CFD Toolbox           |
|  \\    /   O peration     | Version:  3.0.1                                 |
|   \\  /    A nd           | Web:      www.OpenFOAM.org                      |
|    \\/     M anipulation  |                                                 |
\*---------------------------------------------------------------------------*/
FoamFile
{
    version     2.0;
    format      ascii;
    class       volScalarField;
    location    "27.4";
    object      p_rgh;
}
// * * * * * * * * * * * * * * * * * * * * * * * * * * * * * * * * * * * * * //

dimensions      [1 -1 -2 0 0 0 0];

internalField   nonuniform List<scalar> 
21420
(
-254.829
-238.228
-219.754
-199.461
-177.464
-153.911
-128.974
-102.971
-76.0867
-48.364
-20.2152
8.05977
36.1753
63.8259
90.7357
116.635
141.275
164.453
185.969
205.639
223.319
238.872
252.181
263.153
271.708
277.786
281.291
282.236
280.691
276.621
269.89
260.511
248.528
234.037
217.156
198.042
176.916
153.998
129.569
103.949
77.4415
50.3966
23.1385
-4.0045
-30.7236
-56.7431
-81.6799
-105.628
-128.358
-149.725
-169.632
-188.018
-204.844
-220.095
-233.77
-245.877
-256.43
-265.445
-272.937
-278.921
-283.406
-286.407
-287.955
-288.083
-286.606
-283.664
-279.317
-273.616
-266.625
-258.409
-249.021
-238.526
-226.96
-214.378
-200.788
-186.222
-170.681
-154.162
-136.702
-118.308
-98.9888
-78.7924
-57.7672
-36.3342
-15.5451
6.57017
29.2393
52.1961
75.1857
97.9598
120.254
141.795
162.307
181.519
199.163
214.975
228.713
240.148
249.073
255.312
258.738
259.212
256.761
251.377
243.097
232.045
218.372
202.281
184.015
163.851
142.092
119.056
95.0699
70.4564
45.5298
20.5886
-4.09101
-28.2612
-51.7078
-74.2532
-95.7462
-116.067
-135.126
-152.867
-169.262
-184.307
-198.015
-210.413
-221.535
-231.418
-240.1
-247.62
-254.019
-259.33
-263.57
-266.745
-268.85
-269.876
-269.797
-268.591
-266.27
-262.796
-258.143
-252.273
-245.152
-236.741
-227.01
-215.939
-203.518
-189.755
-174.671
-158.298
-140.686
-121.899
-102.016
-81.1331
-59.3635
-36.8471
-13.7451
9.76017
33.4414
57.0879
80.4652
103.326
125.413
146.469
166.237
184.47
200.939
215.433
227.768
237.786
245.362
250.401
252.85
252.656
249.868
244.53
236.695
226.482
214.029
199.501
183.087
164.999
145.461
124.714
103.002
80.5724
57.6633
34.5029
11.305
-11.7337
-34.4328
-56.6271
-78.1666
-98.9178
-118.762
-137.599
-155.343
-171.924
-187.283
-201.374
-214.158
-225.609
-235.706
-244.442
-251.813
-257.825
-262.492
-265.834
-267.868
-268.59
-268.011
-266.187
-263.113
-258.806
-253.285
-246.569
-238.676
-229.624
-219.431
-208.115
-195.697
-182.194
-167.629
-152.03
-135.428
-117.862
-99.379
-80.0399
-59.9181
-39.1014
-17.6956
4.18233
26.3624
48.6841
70.96
92.9847
114.536
135.38
155.274
173.97
191.221
206.786
220.44
231.974
241.204
247.974
252.157
253.658
252.445
248.501
241.893
232.674
220.979
206.973
190.852
172.843
153.197
132.187
110.099
87.2226
63.8455
40.2464
16.6859
-6.56783
-29.2592
-51.2941
-72.4923
-92.7
-111.8
-129.694
-146.328
-161.658
-175.664
-188.335
-199.68
-209.711
-218.458
-225.949
-232.222
-237.311
-241.271
-244.147
-246.006
-246.887
-246.752
-245.652
-243.23
-239.634
-234.79
-228.694
-221.321
-212.651
-202.649
-191.289
-178.561
-164.46
-149.012
-132.242
-114.205
-95.0027
-74.7187
-53.4676
-31.4039
-8.68998
14.4876
37.9163
61.3933
84.6902
107.582
129.855
151.28
171.637
190.732
208.363
224.357
238.556
250.819
261.038
269.122
275.001
278.636
279.948
278.903
275.577
270.03
262.289
252.438
240.577
226.827
211.325
194.218
175.678
155.886
135.042
113.345
91.0237
68.3258
45.4894
22.8339
1.41063
-20.4368
-41.6547
-62.0282
-81.3849
-99.5869
-116.525
-132.107
-146.272
-158.983
-170.225
-180.002
-188.335
-195.257
-200.82
-205.081
-254.909
-238.308
-219.833
-199.538
-177.537
-153.979
-129.035
-103.023
-76.1309
-48.3985
-20.2386
8.04787
36.1753
63.8376
90.7586
116.669
141.319
164.506
186.031
205.709
223.396
238.955
252.269
263.246
271.805
277.885
281.394
282.339
280.795
276.724
269.992
260.61
248.621
234.124
217.234
198.11
176.973
154.043
129.6
103.966
77.4448
50.3865
23.116
-4.03821
-30.7669
-56.7935
-81.7357
-105.689
-128.422
-149.791
-169.7
-188.086
-204.912
-220.162
-233.835
-245.941
-256.493
-265.507
-272.998
-278.981
-283.466
-286.466
-288.013
-288.137
-286.66
-283.717
-279.368
-273.666
-266.673
-258.455
-249.066
-238.568
-227.002
-214.419
-200.829
-186.264
-170.722
-154.204
-136.745
-118.351
-99.0314
-78.8345
-57.8079
-36.373
-15.5765
6.54285
29.2172
52.1803
75.1774
97.9602
120.264
141.816
162.339
181.563
199.218
215.042
228.79
240.235
249.168
255.413
258.844
259.319
256.866
251.479
243.194
232.134
218.451
202.349
184.07
163.892
142.119
119.069
95.0688
70.4424
45.504
20.5522
-4.13667
-28.3145
-51.7673
-74.3177
-95.8142
-116.137
-135.198
-152.939
-169.333
-184.376
-198.082
-210.479
-221.599
-231.479
-240.159
-247.677
-254.075
-259.385
-263.624
-266.799
-268.904
-269.931
-269.85
-268.646
-266.326
-262.853
-258.201
-252.333
-245.213
-236.804
-227.073
-216.003
-203.582
-189.819
-174.734
-158.36
-140.746
-121.957
-102.072
-81.1849
-59.4105
-36.8884
-13.7796
9.73349
33.4234
57.0793
80.4667
103.338
125.437
146.504
166.282
184.526
201.004
215.508
227.85
237.875
245.455
250.497
252.949
252.751
249.962
244.621
236.781
226.561
214.1
199.563
183.14
165.041
145.492
124.734
103.012
80.572
57.6534
34.4844
11.2787
-11.7668
-34.472
-56.6716
-78.2158
-98.9707
-118.818
-137.657
-155.404
-171.986
-187.346
-201.437
-214.222
-225.673
-235.77
-244.505
-251.876
-257.887
-262.553
-265.895
-267.927
-268.647
-268.069
-266.245
-263.169
-258.862
-253.34
-246.623
-238.73
-229.677
-219.484
-208.168
-195.749
-182.246
-167.681
-152.081
-135.478
-117.91
-99.4262
-80.085
-59.9604
-39.1401
-17.7299
4.15307
26.3395
48.6685
70.9525
92.986
114.547
135.402
155.306
174.013
191.275
206.85
220.513
232.056
241.294
248.069
252.256
253.762
252.545
248.599
241.988
232.762
221.059
207.043
190.912
172.891
153.234
132.211
110.11
87.2217
63.8332
40.2239
16.6543
-6.60718
-29.3047
-51.3451
-72.5473
-92.7577
-111.859
-129.753
-146.387
-161.716
-175.721
-188.39
-199.734
-209.763
-218.508
-225.996
-232.268
-237.355
-241.313
-244.187
-246.044
-246.921
-246.788
-245.691
-243.273
-239.676
-234.834
-228.74
-221.369
-212.701
-202.701
-191.343
-178.616
-164.515
-149.068
-132.297
-114.257
-95.0529
-74.7652
-53.5096
-31.4405
-8.7202
14.4646
37.9014
61.387
84.6929
107.594
129.877
151.311
171.678
190.781
208.42
224.422
238.627
250.896
261.12
269.208
275.089
278.725
280.04
278.991
275.664
270.115
262.369
252.513
240.646
226.89
211.381
194.266
175.718
155.917
135.064
113.358
91.0273
68.3203
45.4749
22.8113
1.37796
-20.4757
-41.6993
-62.0778
-81.4386
-99.6438
-116.584
-132.167
-146.333
-159.044
-170.285
-180.061
-188.391
-195.312
-200.873
-205.132
-255.068
-238.468
-219.991
-199.692
-177.684
-154.114
-129.156
-103.127
-76.2197
-48.4674
-20.2856
8.02409
36.1752
63.8609
90.8045
116.736
141.406
164.613
186.155
205.849
223.55
239.122
252.447
263.433
271.998
278.083
281.602
282.546
281.006
276.931
270.195
260.806
248.807
234.297
217.391
198.247
177.087
154.131
129.661
104
77.4514
50.3664
23.0709
-4.10568
-30.8536
-56.8943
-81.8474
-105.811
-128.551
-149.925
-169.835
-188.222
-205.047
-220.295
-233.966
-246.07
-256.619
-265.631
-273.119
-279.101
-283.585
-286.584
-288.128
-288.244
-286.767
-283.821
-279.469
-273.762
-266.765
-258.543
-249.149
-238.649
-227.08
-214.496
-200.905
-186.339
-170.799
-154.281
-136.822
-118.428
-99.1076
-78.9093
-57.8792
-36.4398
-15.6278
6.50041
29.1857
52.1622
75.1749
97.9755
120.3
141.873
162.419
181.666
199.345
215.191
228.961
240.425
249.374
255.632
259.07
259.553
257.092
251.7
243.405
232.329
218.627
202.501
184.197
163.993
142.191
119.114
95.0869
70.4352
45.4733
20.5007
-4.20629
-28.3991
-51.8641
-74.4239
-95.9275
-116.255
-135.318
-153.059
-169.452
-184.491
-198.194
-210.587
-221.703
-231.579
-240.254
-247.769
-254.164
-259.471
-263.71
-266.885
-268.991
-270.018
-269.937
-268.737
-266.418
-262.947
-258.298
-252.434
-245.317
-236.911
-227.183
-216.114
-203.694
-189.932
-174.845
-158.469
-140.853
-122.059
-102.169
-81.275
-59.4916
-36.9583
-13.8361
9.69218
33.3991
57.0735
80.4808
103.373
125.494
146.583
166.384
184.648
201.146
215.667
228.025
238.062
245.651
250.699
253.155
252.956
250.16
244.813
236.963
226.73
214.253
199.698
183.256
165.137
145.567
124.787
103.044
80.5843
57.647
34.461
11.2401
-11.8188
-34.5359
-56.7459
-78.2989
-99.0612
-118.915
-137.759
-155.508
-172.093
-187.455
-201.548
-214.334
-225.784
-235.881
-244.616
-251.985
-257.995
-262.659
-265.999
-268.03
-268.746
-268.17
-266.344
-263.267
-258.958
-253.436
-246.718
-238.824
-229.771
-219.577
-208.261
-195.842
-182.338
-167.772
-152.171
-135.566
-117.996
-99.5091
-80.1638
-60.0339
-39.2067
-17.7879
4.10507
26.304
48.6474
70.9475
92.9988
114.579
135.454
155.38
174.109
191.392
206.987
220.67
232.23
241.482
248.269
252.464
253.98
252.754
248.807
242.187
232.95
221.232
207.198
191.045
173.002
153.32
132.273
110.147
87.2345
63.8237
40.1939
16.6064
-6.67052
-29.3805
-51.4318
-72.6424
-92.8587
-111.964
-129.859
-146.493
-161.821
-175.823
-188.49
-199.83
-209.857
-218.598
-226.083
-232.351
-237.435
-241.39
-244.261
-246.113
-246.984
-246.855
-245.766
-243.355
-239.757
-234.918
-228.828
-221.463
-212.799
-202.802
-191.448
-178.724
-164.624
-149.177
-132.404
-114.361
-95.1521
-74.8571
-53.5925
-31.5127
-8.77966
14.4196
37.8723
61.3751
84.699
107.619
129.921
151.373
171.759
190.879
208.535
224.552
238.771
251.051
261.284
269.379
275.265
278.902
280.224
279.166
275.84
270.283
262.529
252.664
240.785
227.017
211.492
194.362
175.798
155.979
135.108
113.383
91.0344
68.3092
45.446
22.7659
1.31272
-20.5535
-41.7885
-62.1769
-81.5461
-99.7577
-116.702
-132.288
-146.455
-159.166
-170.405
-180.178
-188.505
-195.421
-200.978
-205.233
-255.307
-238.708
-220.229
-199.923
-177.903
-154.318
-129.339
-103.283
-76.3528
-48.571
-20.3561
7.9884
36.1752
63.8959
90.8735
116.838
141.538
164.773
186.342
206.06
223.782
239.373
252.714
263.712
272.288
278.38
281.908
282.86
281.323
277.242
270.5
261.101
249.088
234.557
217.626
198.452
177.257
154.265
129.754
104.05
77.4611
50.336
23.0031
-4.20708
-30.984
-57.0452
-82.0154
-105.994
-128.745
-150.125
-170.039
-188.426
-205.249
-220.495
-234.163
-246.262
-256.808
-265.816
-273.302
-279.28
-283.762
-286.759
-288.3
-288.405
-286.927
-283.977
-279.619
-273.907
-266.903
-258.674
-249.275
-238.77
-227.197
-214.611
-201.019
-186.453
-170.913
-154.396
-136.937
-118.543
-99.2215
-79.021
-57.9855
-36.5394
-15.704
6.43779
29.1397
52.1365
75.1728
98.0003
120.355
141.96
162.541
181.823
199.537
215.418
229.219
240.712
249.686
255.963
259.41
259.907
257.436
252.035
243.724
232.624
218.893
202.734
184.391
164.146
142.303
119.184
95.1169
70.4271
45.4301
20.4262
-4.30805
-28.5233
-52.0067
-74.5809
-96.0949
-116.429
-135.496
-153.237
-169.627
-184.662
-198.36
-210.746
-221.856
-231.726
-240.395
-247.904
-254.294
-259.599
-263.836
-267.012
-269.119
-270.147
-270.066
-268.87
-266.553
-263.086
-258.442
-252.583
-245.472
-237.07
-227.346
-216.279
-203.861
-190.098
-175.011
-158.632
-141.011
-122.212
-102.313
-81.4087
-59.6118
-37.0617
-13.9194
9.63185
33.3644
57.0664
80.5035
103.428
125.582
146.704
166.538
184.833
201.361
215.908
228.288
238.343
245.947
251.004
253.461
253.268
250.461
245.103
237.237
226.985
214.485
199.904
183.432
165.282
145.681
124.869
103.095
80.6043
57.639
34.4276
11.1838
-11.8953
-34.6302
-56.8558
-78.4221
-99.1956
-119.058
-137.909
-155.664
-172.253
-187.618
-201.713
-214.5
-225.951
-236.047
-244.78
-252.147
-258.155
-262.818
-266.155
-268.183
-268.895
-268.32
-266.491
-263.413
-259.103
-253.579
-246.859
-238.964
-229.91
-219.716
-208.399
-195.979
-182.474
-167.907
-152.305
-135.697
-118.124
-99.6323
-80.2809
-60.1431
-39.3055
-17.8737
4.03424
26.2521
48.617
70.9413
93.0191
114.628
135.534
155.492
174.253
191.568
207.195
220.906
232.492
241.767
248.571
252.778
254.305
253.072
249.122
242.489
233.234
221.493
207.431
191.247
173.169
153.451
132.367
110.204
87.2555
63.811
40.1506
16.536
-6.76392
-29.4926
-51.5607
-72.784
-93.0091
-112.119
-130.017
-146.651
-161.977
-175.976
-188.639
-199.975
-209.998
-218.734
-226.214
-232.477
-237.556
-241.507
-244.373
-246.219
-247.079
-246.956
-245.881
-243.479
-239.879
-235.044
-228.961
-221.603
-212.947
-202.955
-191.606
-178.886
-164.788
-149.34
-132.565
-114.518
-95.301
-74.9951
-53.717
-31.621
-8.86904
14.352
37.8286
61.3571
84.7081
107.656
129.986
151.467
171.88
191.027
208.707
224.747
238.986
251.283
261.53
269.635
275.528
279.168
280.499
279.432
276.105
270.537
262.77
252.89
240.994
227.206
211.66
194.505
175.917
156.072
135.173
113.421
91.045
68.2924
45.4026
22.6979
1.21476
-20.6704
-41.9225
-62.3258
-81.7074
-99.9286
-116.88
-132.47
-146.639
-159.349
-170.585
-180.353
-188.675
-195.585
-201.136
-205.385
-255.626
-239.029
-220.546
-200.232
-178.196
-154.589
-129.583
-103.491
-76.5303
-48.7092
-20.4504
7.94076
36.175
63.9426
90.9654
116.973
141.714
164.986
186.591
206.34
224.091
239.707
253.069
264.085
272.675
278.776
282.311
283.282
281.746
277.656
270.906
261.494
249.461
234.904
217.939
198.725
177.485
154.442
129.877
104.117
77.4739
50.2952
22.9123
-4.34263
-31.1581
-57.2461
-82.24
-106.239
-129.004
-150.393
-170.31
-188.698
-205.519
-220.762
-234.425
-246.519
-257.061
-266.064
-273.545
-279.52
-283.998
-286.992
-288.528
-288.621
-287.141
-284.185
-279.82
-274.1
-267.088
-258.85
-249.443
-238.931
-227.353
-214.764
-201.172
-186.606
-171.066
-154.549
-137.091
-118.697
-99.3736
-79.1701
-58.1277
-36.6723
-15.8059
6.35413
29.0783
52.1023
75.1701
98.0335
120.429
142.078
162.704
182.033
199.794
215.721
229.565
241.097
250.103
256.405
259.866
260.376
257.898
252.483
244.15
233.02
219.25
203.045
184.651
164.352
142.453
119.278
95.1573
70.4166
45.3728
20.3269
-4.4437
-28.689
-52.1969
-74.7901
-96.3181
-116.662
-135.733
-153.474
-169.861
-184.89
-198.58
-210.959
-222.061
-231.923
-240.583
-248.084
-254.469
-259.769
-264.005
-267.181
-269.289
-270.318
-270.239
-269.048
-266.734
-263.272
-258.633
-252.782
-245.678
-237.282
-227.563
-216.5
-204.084
-190.321
-175.231
-158.848
-141.222
-122.414
-102.505
-81.5869
-59.7721
-37.1995
-14.0306
9.55168
33.3181
57.0571
80.5341
103.501
125.699
146.866
166.743
185.081
201.647
216.229
228.64
238.72
246.342
251.411
253.871
253.682
250.864
245.49
237.604
227.325
214.794
200.177
183.667
165.476
145.832
124.978
103.161
80.6311
57.6284
34.3829
11.1088
-11.9973
-34.756
-57.0023
-78.5865
-99.3748
-119.25
-138.11
-155.872
-172.467
-187.835
-201.933
-214.721
-226.172
-236.268
-244.999
-252.364
-258.369
-263.028
-266.362
-268.385
-269.096
-268.52
-266.688
-263.607
-259.295
-253.769
-247.048
-239.151
-230.096
-219.9
-208.582
-196.161
-182.656
-168.087
-152.483
-135.872
-118.295
-99.7967
-80.4371
-60.2887
-39.4373
-17.9883
3.93984
26.1828
48.5765
70.9331
93.0463
114.694
135.641
155.642
174.446
191.804
207.472
221.222
232.843
242.147
248.974
253.198
254.732
253.502
249.544
242.893
233.614
221.841
207.742
191.516
173.393
153.626
132.493
110.281
87.2836
63.7939
40.0928
16.4421
-6.88845
-29.6423
-51.7327
-72.973
-93.2099
-112.327
-130.228
-146.861
-162.185
-176.181
-188.839
-200.169
-210.186
-218.915
-226.389
-232.645
-237.718
-241.663
-244.523
-246.361
-247.21
-247.092
-246.033
-243.64
-240.041
-235.213
-229.139
-221.79
-213.143
-203.159
-191.818
-179.102
-165.007
-149.558
-132.779
-114.726
-95.4997
-75.1795
-53.8831
-31.7656
-8.98839
14.2618
37.7702
61.3329
84.72
107.705
130.073
151.592
172.042
191.224
208.938
225.008
239.273
251.593
261.858
269.977
275.88
279.523
280.861
279.79
276.457
270.875
263.092
253.192
241.273
227.458
211.883
194.698
176.077
156.196
135.261
113.472
91.0591
68.27
45.3447
22.6075
1.08359
-20.8265
-42.1014
-62.5246
-81.9227
-100.157
-117.117
-132.713
-146.884
-159.593
-170.825
-180.588
-188.902
-195.804
-201.346
-205.587
-256.025
-239.43
-220.943
-200.619
-178.563
-154.928
-129.888
-103.753
-76.7522
-48.8822
-20.5684
7.88109
36.1749
64.001
91.0803
117.142
141.933
165.253
186.902
206.692
224.478
240.125
253.514
264.552
273.16
279.272
282.816
283.808
282.273
278.174
271.415
261.986
249.929
235.338
218.332
199.067
177.77
154.665
130.031
104.201
77.4895
50.2437
22.7984
-4.51261
-31.3761
-57.4973
-82.5218
-106.545
-129.328
-150.727
-170.65
-189.039
-205.857
-221.095
-234.752
-246.841
-257.376
-266.373
-273.849
-279.819
-284.293
-287.283
-288.811
-288.895
-287.409
-284.445
-280.072
-274.341
-267.319
-259.069
-249.653
-239.132
-227.549
-214.956
-201.362
-186.796
-171.256
-154.741
-137.283
-118.889
-99.564
-79.3568
-58.3062
-36.8387
-15.9337
6.24888
29.0011
52.0591
75.1665
98.0745
120.52
142.224
162.908
182.296
200.115
216.1
229.998
241.578
250.625
256.958
260.438
260.958
258.48
253.045
244.684
233.514
219.696
203.433
184.976
164.609
142.64
119.395
95.2074
70.4031
45.3005
20.2021
-4.61393
-28.8967
-52.4351
-75.0522
-96.5977
-116.953
-136.03
-153.771
-170.153
-185.175
-198.856
-211.225
-222.317
-232.168
-240.818
-248.31
-254.686
-259.982
-264.216
-267.392
-269.502
-270.532
-270.457
-269.27
-266.96
-263.504
-258.873
-253.03
-245.935
-237.548
-227.835
-216.776
-204.362
-190.599
-175.507
-159.119
-141.485
-122.668
-102.746
-81.81
-59.9729
-37.3723
-14.1701
9.45131
33.26
57.0451
80.572
103.592
125.846
147.069
167.001
185.39
202.005
216.631
229.08
239.191
246.836
251.92
254.385
254.196
251.37
245.975
238.063
227.751
215.181
200.52
183.962
165.719
146.022
125.114
103.245
80.6641
57.6148
34.3267
11.0145
-12.1252
-34.9136
-57.1859
-78.7924
-99.5993
-119.489
-138.361
-156.133
-172.734
-188.107
-202.208
-214.998
-226.45
-236.545
-245.274
-252.635
-258.636
-263.291
-266.62
-268.637
-269.348
-268.769
-266.933
-263.85
-259.535
-254.007
-247.283
-239.385
-230.328
-220.131
-208.812
-196.39
-182.883
-168.313
-152.706
-136.091
-118.508
-100.002
-80.6326
-60.471
-39.6025
-18.1321
3.8215
26.0958
48.5255
70.9224
93.08
114.776
135.775
155.829
174.688
192.099
207.819
221.617
233.281
242.622
249.478
253.722
255.266
254.04
250.072
243.398
234.089
222.277
208.131
191.852
173.672
153.846
132.65
110.375
87.3183
63.772
40.0199
16.3241
-7.04437
-29.8302
-51.9484
-73.2099
-93.4615
-112.586
-130.492
-147.125
-162.446
-176.437
-189.088
-200.411
-210.421
-219.142
-226.607
-232.854
-237.919
-241.857
-244.71
-246.54
-247.379
-247.266
-246.221
-243.838
-240.243
-235.424
-229.36
-222.024
-213.388
-203.414
-192.082
-179.372
-165.281
-149.831
-133.048
-114.987
-95.7484
-75.4103
-54.091
-31.9465
-9.13777
14.1487
37.6968
61.3024
84.7347
107.767
130.182
151.748
172.244
191.47
209.225
225.333
239.632
251.98
262.269
270.405
276.32
279.968
281.31
280.24
276.896
271.298
263.494
253.569
241.621
227.774
212.162
194.938
176.276
156.351
135.37
113.536
91.0766
68.2419
45.2722
22.4948
0.918958
-21.0221
-42.3254
-62.7734
-82.1922
-100.442
-117.414
-133.017
-147.19
-159.898
-171.126
-180.881
-189.186
-196.077
-201.609
-205.84
-256.504
-239.912
-221.42
-201.083
-179.004
-155.337
-130.255
-104.068
-77.019
-49.0904
-20.7106
7.80927
36.1747
64.0711
91.2182
117.344
142.197
165.574
187.275
207.113
224.942
240.626
254.047
265.112
273.741
279.87
283.427
284.435
282.903
278.795
272.025
262.577
250.491
235.86
218.803
199.478
178.112
154.932
130.217
104.301
77.5077
50.1814
22.6609
-4.71738
-31.6382
-57.7991
-82.8611
-106.914
-129.717
-151.13
-171.059
-189.447
-206.263
-221.495
-235.145
-247.227
-257.754
-266.744
-274.214
-280.178
-284.647
-287.631
-289.151
-289.226
-287.73
-284.758
-280.373
-274.631
-267.595
-259.333
-249.904
-239.374
-227.783
-215.186
-201.591
-187.024
-171.485
-154.971
-137.514
-119.12
-99.7927
-79.5813
-58.5214
-37.0385
-16.0878
6.12168
28.9078
52.0066
75.1615
98.1234
120.63
142.399
163.152
182.611
200.5
216.554
230.518
242.155
251.252
257.623
261.125
261.657
259.177
253.72
245.326
234.109
220.231
203.9
185.366
164.917
142.864
119.536
95.2669
70.3861
45.213
20.0513
-4.81921
-29.1469
-52.7219
-75.3676
-96.9341
-117.303
-136.387
-154.129
-170.505
-185.518
-199.187
-211.545
-222.624
-232.464
-241.1
-248.58
-254.948
-260.237
-264.468
-267.645
-269.757
-270.79
-270.719
-269.536
-267.231
-263.783
-259.161
-253.329
-246.244
-237.866
-228.161
-217.107
-204.696
-190.933
-175.838
-159.445
-141.802
-122.973
-103.035
-82.0784
-60.2146
-37.5803
-14.3383
9.33045
33.1898
57.0302
80.617
103.702
126.022
147.312
167.309
185.762
202.435
217.114
229.608
239.757
247.429
252.531
255.003
254.813
251.977
246.558
238.614
228.263
215.646
200.931
184.315
166.01
146.249
125.277
103.344
80.7033
57.5978
34.2587
10.9007
-12.2793
-35.1033
-57.4068
-79.04
-99.8691
-119.777
-138.663
-156.445
-173.055
-188.434
-202.538
-215.331
-226.783
-236.877
-245.603
-252.961
-258.957
-263.607
-266.93
-268.942
-269.65
-269.068
-267.228
-264.141
-259.823
-254.292
-247.566
-239.665
-230.607
-220.408
-209.088
-196.665
-183.156
-168.584
-152.974
-136.355
-118.765
-100.249
-80.8677
-60.6904
-39.8014
-18.3054
3.67897
25.991
48.4637
70.9089
93.1199
114.874
135.934
156.053
174.977
192.453
208.235
222.092
233.808
243.193
250.084
254.353
255.907
254.686
250.706
244.005
234.659
222.8
208.598
192.256
174.007
154.108
132.838
110.489
87.3593
63.7451
39.9316
16.1819
-7.23183
-30.0567
-52.2079
-73.4948
-93.764
-112.899
-130.809
-147.441
-162.759
-176.743
-189.388
-200.701
-210.702
-219.413
-226.869
-233.106
-238.161
-242.09
-244.934
-246.756
-247.586
-247.478
-246.446
-244.072
-240.484
-235.676
-229.626
-222.305
-213.683
-203.721
-192.399
-179.697
-165.61
-150.159
-133.371
-115.301
-96.0473
-75.6878
-54.341
-32.1641
-9.3174
14.0125
37.6084
61.2654
84.752
107.84
130.312
151.935
172.487
191.766
209.571
225.724
240.062
252.445
262.761
270.919
276.848
280.503
281.849
280.779
277.423
271.805
263.976
254.022
242.039
228.153
212.497
195.226
176.515
156.537
135.501
113.612
91.0974
68.2079
45.1849
22.3594
0.720816
-21.2572
-42.5947
-63.0725
-82.5161
-100.785
-117.771
-133.382
-147.559
-160.265
-171.486
-181.232
-189.526
-196.405
-201.924
-206.144
-257.064
-240.475
-221.978
-201.626
-179.52
-155.814
-130.685
-104.437
-77.3311
-49.3341
-20.877
7.72517
36.1743
64.1528
91.3793
117.581
142.505
165.948
187.711
207.605
225.484
241.212
254.67
265.765
274.42
280.568
284.142
285.164
283.636
279.52
272.738
263.267
251.147
236.469
219.353
199.958
178.511
155.243
130.433
104.419
77.5281
50.1077
22.4994
-4.95738
-31.9447
-58.1521
-83.2583
-107.345
-130.172
-151.6
-171.536
-189.925
-206.736
-221.962
-235.604
-247.677
-258.195
-267.177
-274.64
-280.597
-285.06
-288.037
-289.547
-289.612
-288.106
-285.123
-280.726
-274.969
-267.919
-259.64
-250.198
-239.655
-228.057
-215.454
-201.858
-187.29
-171.753
-155.24
-137.784
-119.39
-100.06
-79.8438
-58.7737
-37.2714
-16.2687
5.97213
28.7981
51.9447
75.1549
98.1797
120.757
142.603
163.436
182.978
200.949
217.085
231.124
242.83
251.984
258.399
261.93
262.474
259.991
254.509
246.075
234.803
220.857
204.445
185.821
165.276
143.124
119.699
95.3355
70.3654
45.1099
19.8743
-5.06011
-29.44
-53.0576
-75.7366
-97.3277
-117.713
-136.804
-154.546
-170.916
-185.918
-199.574
-211.918
-222.983
-232.808
-241.43
-248.896
-255.253
-260.534
-264.763
-267.941
-270.055
-271.091
-271.024
-269.847
-267.548
-264.108
-259.497
-253.677
-246.605
-238.239
-228.542
-217.495
-205.087
-191.324
-176.226
-159.825
-142.172
-123.33
-103.374
-82.3926
-60.4975
-37.8241
-14.5353
9.18884
33.1071
57.012
80.6689
103.828
126.226
147.595
167.669
186.195
202.937
217.678
230.226
240.417
248.122
253.245
255.726
255.534
252.686
247.238
239.258
228.86
216.188
201.411
184.727
166.35
146.514
125.466
103.46
80.7482
57.5772
34.1784
10.7672
-12.4598
-35.3254
-57.6652
-79.3296
-100.185
-120.114
-139.016
-156.811
-173.429
-188.815
-202.924
-215.719
-227.172
-237.265
-245.988
-253.341
-259.331
-263.976
-267.292
-269.297
-270.004
-269.416
-267.573
-264.482
-260.16
-254.626
-247.896
-239.993
-230.932
-220.732
-209.411
-196.985
-183.474
-168.9
-153.286
-136.662
-119.064
-100.538
-81.1425
-60.9469
-40.0343
-18.5083
3.5119
25.868
48.3909
70.8925
93.1658
114.987
136.12
156.314
175.315
192.866
208.721
222.645
234.422
243.86
250.792
255.089
256.658
255.44
251.446
244.714
235.325
223.411
209.143
192.728
174.398
154.415
133.057
110.621
87.4065
63.713
39.8274
16.0151
-7.4511
-30.3222
-52.5117
-73.8281
-94.1178
-113.264
-131.179
-147.811
-163.125
-177.102
-189.737
-201.04
-211.031
-219.731
-227.175
-233.4
-238.443
-242.362
-245.196
-247.009
-247.832
-247.729
-246.707
-244.343
-240.765
-235.971
-229.936
-222.633
-214.027
-204.079
-192.769
-180.075
-165.993
-150.542
-133.748
-115.668
-96.3967
-76.0122
-54.6335
-32.4187
-9.5276
13.8531
37.5047
61.2218
84.7718
107.925
130.464
152.154
172.77
192.111
209.974
226.18
240.566
252.988
263.337
271.52
277.466
281.129
282.479
281.407
278.037
272.397
264.54
254.55
242.527
228.595
212.889
195.563
176.793
156.754
135.654
113.701
91.1215
68.168
45.0827
22.2007
0.489154
-21.5321
-42.9095
-63.4221
-82.8946
-101.186
-118.188
-133.809
-147.989
-160.693
-171.908
-181.643
-189.923
-196.788
-202.292
-206.498
-257.704
-241.12
-222.617
-202.247
-180.11
-156.361
-131.177
-104.859
-77.6893
-49.6138
-21.068
7.62863
36.1738
64.2463
91.5634
117.852
142.856
166.376
188.209
208.168
226.104
241.881
255.382
266.513
275.197
281.368
284.962
285.994
284.473
280.35
273.554
264.057
251.897
237.167
219.984
200.508
178.968
155.599
130.68
104.554
77.5505
50.0225
22.3135
-5.23314
-32.2963
-58.5569
-83.7139
-107.84
-130.693
-152.138
-172.082
-190.471
-207.278
-222.496
-236.129
-248.191
-258.7
-267.672
-275.127
-281.076
-285.532
-288.501
-290.001
-290.054
-288.536
-285.541
-281.129
-275.356
-268.288
-259.991
-250.533
-239.976
-228.369
-215.76
-202.162
-187.594
-172.058
-155.547
-138.093
-119.698
-100.366
-80.1443
-59.0636
-37.5374
-16.4769
5.7998
28.6716
51.8729
75.1464
98.2434
120.901
142.835
163.761
183.397
201.463
217.691
231.818
243.601
252.822
259.288
262.851
263.409
260.922
255.412
246.932
235.597
221.572
205.069
186.342
165.686
143.422
119.884
95.4129
70.3405
44.9906
19.6705
-5.33708
-29.7764
-53.4426
-76.1596
-97.7787
-118.182
-137.282
-155.024
-171.386
-186.375
-200.017
-212.345
-223.394
-233.202
-241.807
-249.257
-255.601
-260.874
-265.1
-268.278
-270.396
-271.435
-271.374
-270.201
-267.909
-264.479
-259.88
-254.076
-247.018
-238.665
-228.979
-217.937
-205.534
-191.771
-176.669
-160.26
-142.595
-123.738
-103.761
-82.7528
-60.822
-38.1038
-14.7618
9.02626
33.0118
56.9903
80.7275
103.973
126.46
147.918
168.081
186.691
203.512
218.323
230.932
241.173
248.915
254.062
256.553
256.359
253.495
248.017
239.995
229.544
216.808
201.96
185.198
166.738
146.817
125.683
103.591
80.7988
57.5527
34.0858
10.6137
-12.6669
-35.5801
-57.9613
-79.6613
-100.546
-120.499
-139.421
-157.229
-173.858
-189.252
-203.366
-216.164
-227.618
-237.709
-246.428
-253.775
-259.76
-264.397
-267.705
-269.704
-270.407
-269.815
-267.966
-264.871
-260.545
-255.007
-248.274
-240.367
-231.304
-221.102
-209.779
-197.352
-183.839
-169.262
-153.644
-137.013
-119.407
-100.869
-81.4572
-61.2407
-40.3013
-18.7413
3.32008
25.7265
48.3068
70.8729
93.2174
115.116
136.332
156.612
175.7
193.338
209.276
223.279
235.125
244.622
251.602
255.932
257.518
256.302
252.292
245.526
236.087
224.11
209.767
193.267
174.846
154.765
133.307
110.771
87.4596
63.6754
39.707
15.8233
-7.70257
-30.627
-52.8601
-74.2103
-94.5231
-113.682
-131.603
-148.234
-163.543
-177.511
-190.137
-201.428
-211.406
-220.093
-227.524
-233.736
-238.766
-242.672
-245.496
-247.299
-248.118
-248.017
-247.004
-244.651
-241.086
-236.308
-230.291
-223.007
-214.42
-204.489
-193.193
-180.509
-166.431
-150.98
-134.18
-116.089
-96.7969
-76.3838
-54.9687
-32.7106
-9.76866
13.6701
37.3855
61.1714
84.794
108.022
130.637
152.403
173.094
192.506
210.435
226.702
241.141
253.609
263.995
272.206
278.172
281.846
283.199
282.125
278.739
273.074
265.184
255.155
243.085
229.101
213.336
195.947
177.112
157.002
135.829
113.802
91.1487
68.1219
44.9655
22.0182
0.223937
-21.847
-43.2701
-63.8226
-83.3282
-101.645
-118.665
-134.297
-148.481
-161.183
-172.39
-182.113
-190.378
-197.225
-202.712
-206.903
-258.426
-241.846
-223.337
-202.948
-180.776
-156.977
-131.732
-105.336
-78.0943
-49.93
-21.284
7.51948
36.173
64.3514
91.7707
118.156
143.252
166.857
188.77
208.801
226.801
242.635
256.183
267.354
276.071
282.269
285.885
286.926
285.414
281.283
274.473
264.946
252.743
237.953
220.694
201.127
179.484
156
130.958
104.704
77.5745
49.9251
22.1027
-5.54527
-32.6935
-59.0139
-84.2284
-108.397
-131.281
-152.745
-172.697
-191.087
-207.888
-223.097
-236.719
-248.77
-259.267
-268.229
-275.674
-281.615
-286.062
-289.022
-290.512
-290.551
-289.02
-286.011
-281.582
-275.791
-268.703
-260.386
-250.91
-240.338
-228.72
-216.105
-202.505
-187.936
-172.402
-155.893
-138.441
-120.046
-100.711
-80.483
-59.3915
-37.8363
-16.713
5.60415
28.528
51.791
75.1356
98.314
121.062
143.096
164.126
183.868
202.041
218.373
232.599
244.471
253.766
260.29
263.889
264.464
261.971
256.43
247.899
236.492
222.379
205.771
186.928
166.148
143.756
120.092
95.4988
70.3111
44.8548
19.4393
-5.65063
-30.1567
-53.8775
-76.637
-98.2875
-118.712
-137.822
-155.563
-171.916
-186.891
-200.515
-212.825
-223.856
-233.645
-242.231
-249.663
-255.992
-261.256
-265.478
-268.658
-270.78
-271.823
-271.767
-270.6
-268.316
-264.896
-260.312
-254.524
-247.483
-239.145
-229.47
-218.436
-206.038
-192.275
-177.168
-160.75
-143.073
-124.198
-104.199
-83.1594
-61.1884
-38.4199
-15.0181
8.84246
32.9033
56.9647
80.7923
104.134
126.722
148.282
168.544
187.249
204.158
219.05
231.727
242.025
249.808
254.983
257.485
257.288
254.407
248.894
240.824
230.313
217.506
202.578
185.728
167.174
147.157
125.926
103.738
80.8547
57.5239
33.9803
10.4398
-12.901
-35.8676
-58.2954
-80.0355
-100.953
-120.934
-139.876
-157.7
-174.341
-189.743
-203.863
-216.664
-228.119
-238.208
-246.924
-254.265
-260.242
-264.871
-268.171
-270.162
-270.86
-270.262
-268.409
-265.309
-260.978
-255.435
-248.698
-240.788
-231.723
-221.518
-210.194
-197.764
-184.249
-169.67
-154.047
-137.41
-119.794
-101.241
-81.812
-61.5724
-40.6029
-19.0049
3.10323
25.5661
48.211
70.8496
93.2744
115.261
136.569