/*--------------------------------*- C++ -*----------------------------------*\
| =========                 |                                                 |
| \\      /  F ield         | OpenFOAM: The Open Source CFD Toolbox           |
|  \\    /   O peration     | Version:  3.0.1                                 |
|   \\  /    A nd           | Web:      www.OpenFOAM.org                      |
|    \\/     M anipulation  |                                                 |
\*---------------------------------------------------------------------------*/
FoamFile
{
    version     2.0;
    format      ascii;
    class       surfaceScalarField;
    location    "94.8";
    object      alphaPhi;
}
// * * * * * * * * * * * * * * * * * * * * * * * * * * * * * * * * * * * * * //

dimensions      [0 3 -1 0 0 0 0];

internalField   nonuniform List<scalar> 
42423
(
0.000208387
-1.19943e-05
0.000218725
-1.03379e-05
0.000226956
-8.23061e-06
0.00023295
-5.99477e-06
0.000236657
-3.70657e-06
0.000238063
-1.40575e-06
0.000237092
9.70663e-07
0.000233631
3.46077e-06
0.000227669
5.96277e-06
0.000219537
8.13179e-06
0.000209334
1.0203e-05
0.000197158
1.21758e-05
0.000183402
1.37556e-05
0.000168186
1.52166e-05
0.000151886
1.62997e-05
0.000134713
1.71725e-05
0.000116732
1.7981e-05
9.85093e-05
1.82231e-05
8.00486e-05
1.84607e-05
6.15234e-05
1.85252e-05
4.33957e-05
1.81277e-05
2.5481e-05
1.79147e-05
8.29219e-06
1.71888e-05
-8.37324e-06
1.66654e-05
-2.42705e-05
1.58973e-05
-3.93267e-05
1.50562e-05
-5.35277e-05
1.4201e-05
-6.68196e-05
1.32919e-05
-7.91876e-05
1.2368e-05
-9.06482e-05
1.14606e-05
-0.000101189
1.05409e-05
-0.000110832
9.64323e-06
-0.000119617
8.78454e-06
-0.000127553
7.93606e-06
-0.000134678
7.12502e-06
-0.000141022
6.3437e-06
-0.00014661
5.5885e-06
-0.000151475
4.86462e-06
-0.000155614
4.1391e-06
-0.000159048
3.4337e-06
-0.000161799
2.7517e-06
-0.000163861
2.06163e-06
-0.000165258
1.39756e-06
-0.000165976
7.17214e-07
-0.000165991
1.51181e-08
-0.000165263
-7.2757e-07
-0.000163843
-1.4202e-06
-0.000161606
-2.2371e-06
-0.000158634
-2.97155e-06
-0.000154874
-3.76012e-06
-0.000150215
-4.65888e-06
-0.000144721
-5.49405e-06
-0.000138268
-6.45313e-06
-0.000130855
-7.41354e-06
-0.000122691
-8.16376e-06
-0.000113315
-9.37651e-06
-0.000103072
-1.02421e-05
-9.18909e-05
-1.11817e-05
-7.96105e-05
-1.22804e-05
-6.65143e-05
-1.30962e-05
-5.23379e-05
-1.41765e-05
-3.72977e-05
-1.50402e-05
-2.14932e-05
-1.58046e-05
-5.03992e-06
-1.64534e-05
1.21616e-05
-1.72016e-05
2.97191e-05
-1.75575e-05
4.76673e-05
-1.79483e-05
6.57019e-05
-1.80347e-05
8.37415e-05
-1.80397e-05
0.000101581
-1.78394e-05
0.000119041
-1.74599e-05
0.000135782
-1.67416e-05
0.000151789
-1.60065e-05
0.000166596
-1.48072e-05
0.000180171
-1.35753e-05
0.000192239
-1.20681e-05
0.000202696
-1.04576e-05
0.000211294
-8.59744e-06
0.000217898
-6.60409e-06
0.000222328
-4.42951e-06
0.000224561
-2.23333e-06
0.000224553
8.37358e-09
0.000222309
2.24423e-06
0.000217904
4.40527e-06
0.000211376
6.52748e-06
0.00020295
8.42639e-06
0.000192761
1.01894e-05
0.000180881
1.18804e-05
0.000167392
1.34898e-05
0.000152447
1.49452e-05
0.000136183
1.62647e-05
0.000118759
1.74239e-05
0.000100494
1.82662e-05
8.16168e-05
1.8877e-05
6.24295e-05
1.91875e-05
4.31957e-05
1.9234e-05
2.41544e-05
1.90414e-05
5.54421e-06
1.86102e-05
-1.24392e-05
1.79834e-05
-2.96427e-05
1.72034e-05
-4.58746e-05
1.62318e-05
-6.10734e-05
1.51988e-05
-7.52445e-05
1.4171e-05
-8.82324e-05
1.29878e-05
-0.000100133
1.19004e-05
-0.000110919
1.07857e-05
-0.000120629
9.71015e-06
-0.000129261
8.63183e-06
-0.000136883
7.6223e-06
-0.000143618
6.73487e-06
-0.00014939
5.77204e-06
-0.000154316
4.92527e-06
-0.000158428
4.11266e-06
-0.000161767
3.3383e-06
-0.000164336
2.56883e-06
-0.000166178
1.84283e-06
-0.000167313
1.13459e-06
-0.000167774
4.60869e-07
-0.000167544
-2.3028e-07
-0.000166641
-9.02563e-07
-0.00016508
-1.56171e-06
-0.000162822
-2.25724e-06
-0.000159895
-2.92726e-06
-0.00015627
-3.62542e-06
-0.000152008
-4.26174e-06
-0.000146992
-5.0162e-06
-0.000141295
-5.69682e-06
-0.000134818
-6.47689e-06
-0.000127532
-7.2866e-06
-0.000119575
-7.95728e-06
-0.000110704
-8.87072e-06
-0.000101007
-9.69732e-06
-9.04311e-05
-1.05757e-05
-7.89474e-05
-1.14837e-05
-6.65384e-05
-1.24091e-05
-5.33308e-05
-1.32076e-05
-3.9128e-05
-1.42029e-05
-2.42767e-05
-1.48514e-05
-8.59016e-06
-1.56867e-05
7.76096e-06
-1.63512e-05
2.46102e-05
-1.68493e-05
4.18835e-05
-1.72734e-05
5.93992e-05
-1.75158e-05
7.69607e-05
-1.75616e-05
9.43939e-05
-1.74334e-05
0.00011146
-1.70659e-05
0.000127904
-1.64446e-05
0.000143493
-1.55886e-05
0.000157944
-1.44509e-05
0.000171029
-1.30854e-05
0.00018243
-1.14011e-05
0.000191984
-9.55427e-06
0.000199506
-7.5221e-06
0.000204796
-5.29046e-06
0.000207704
-2.90805e-06
0.000208228
-5.2406e-07
0.000206279
1.94908e-06
0.000201841
4.43797e-06
0.000194992
6.84921e-06
0.000185868
9.12347e-06
0.000174614
1.12537e-05
0.000161457
1.31575e-05
0.000146659
1.4798e-05
0.000130466
1.61922e-05
0.000113198
1.72683e-05
9.5087e-05
1.81109e-05
7.64832e-05
1.86037e-05
5.75572e-05
1.8926e-05
3.86681e-05
1.88891e-05
1.99567e-05
1.87114e-05
1.68524e-06
1.82714e-05
-1.60943e-05
1.77796e-05
-3.31176e-05
1.70233e-05
-4.93452e-05
1.62276e-05
-6.46268e-05
1.52816e-05
-7.89525e-05
1.43258e-05
-9.2352e-05
1.33995e-05
-0.000104704
1.23516e-05
-0.00011609
1.13863e-05
-0.000126493
1.04032e-05
-0.000135926
9.43275e-06
-0.000144376
8.45007e-06
-0.000151824
7.44823e-06
-0.000158307
6.48261e-06
-0.000163871
5.56412e-06
-0.000168559
4.68864e-06
-0.000172472
3.9124e-06
-0.000175681
3.20946e-06
-0.000178227
2.54572e-06
-0.000180117
1.8905e-06
-0.000181505
1.38711e-06
-0.000182228
7.23136e-07
-0.000182381
1.53353e-07
-0.000181957
-4.23903e-07
-0.000180865
-1.09232e-06
-0.000179205
-1.65963e-06
-0.000176928
-2.27715e-06
-0.000174121
-2.80681e-06
-0.000170707
-3.41463e-06
-0.000166658
-4.04888e-06
-0.00016193
-4.7278e-06
-0.000156436
-5.49356e-06
-0.000150107
-6.32965e-06
-0.000142937
-7.16975e-06
-0.000135014
-7.92261e-06
-0.000126176
-8.83834e-06
-0.000116537
-9.63942e-06
-0.00010598
-1.05569e-05
-9.45459e-05
-1.1434e-05
-8.23726e-05
-1.21734e-05
-6.9286e-05
-1.30867e-05
-5.53935e-05
-1.38926e-05
-4.06881e-05
-1.47054e-05
-2.52853e-05
-1.54029e-05
-9.17546e-06
-1.61099e-05
7.35567e-06
-1.65312e-05
2.42671e-05
-1.69115e-05
4.14154e-05
-1.71484e-05
5.85575e-05
-1.71421e-05
7.5516e-05
-1.69586e-05
9.20427e-05
-1.65268e-05
0.000107921
-1.58782e-05
0.000122893
-1.49727e-05
0.0001367
-1.38064e-05
0.000149072
-1.23722e-05
0.000159769
-1.06969e-05
0.000168551
-8.78273e-06
0.000175237
-6.68614e-06
0.000179634
-4.39723e-06
0.000181648
-2.01374e-06
0.000181252
3.95415e-07
0.000178372
2.87985e-06
0.000173018
5.35429e-06
0.000165351
7.667e-06
0.000155507
9.84419e-06
0.000143698
1.18081e-05
0.000130126
1.35723e-05
0.000115076
1.50499e-05
9.88103e-05
1.62654e-05
8.15718e-05
1.72383e-05
6.3715e-05
1.78567e-05
4.55069e-05
1.8208e-05
2.72094e-05
1.82975e-05
9.03217e-06
1.81772e-05
-8.81954e-06
1.78517e-05
-2.62115e-05
1.7392e-05
-4.29818e-05
1.67703e-05
-5.90629e-05
1.60812e-05
-7.43401e-05
1.52773e-05
-8.8767e-05
1.44269e-05
-0.000102329
1.35621e-05
-0.00011497
1.26412e-05
-0.000126716
1.17458e-05
-0.000137504
1.07884e-05
-0.000147387
9.8831e-06
-0.000156388
9.001e-06
-0.000164472
8.0844e-06
-0.000171729
7.25767e-06
-0.000178096
6.36644e-06
-0.000183609
5.51305e-06
-0.000188277
4.66863e-06
-0.00019212
3.84344e-06
-0.000195249
3.1289e-06
-0.000197622
2.37299e-06
-0.000199226
1.60388e-06
-0.000200162
9.36681e-07
-0.000200557
3.94432e-07
-0.000200287
-2.69591e-07
-0.000199325
-9.62279e-07
-0.000197821
-1.50314e-06
-0.000195826
-1.99573e-06
-0.000193044
-2.78157e-06
-0.000189881
-3.16333e-06
-0.000185969
-3.91164e-06
-0.000181432
-4.53673e-06
-0.00017618
-5.25181e-06
-0.000170256
-5.92409e-06
-0.000163386
-6.87033e-06
-0.000155731
-7.65503e-06
-0.000147027
-8.70372e-06
-0.000137362
-9.66535e-06
-0.00012654
-1.08216e-05
-0.000114689
-1.18507e-05
-0.000101844
-1.28457e-05
-8.7967e-05
-1.38769e-05
-7.32176e-05
-1.47494e-05
-5.76701e-05
-1.55476e-05
-4.13447e-05
-1.63255e-05
-2.44559e-05
-1.68888e-05
-6.90844e-06
-1.75475e-05
1.11366e-05
-1.80451e-05
2.9444e-05
-1.83075e-05
4.80073e-05
-1.85633e-05
6.66621e-05
-1.86549e-05
8.50299e-05
-1.83678e-05
0.000103004
-1.7974e-05
0.000120249
-1.72448e-05
0.000136421
-1.6173e-05
0.000151293
-1.48714e-05
0.000164492
-1.31989e-05
0.000175878
-1.13866e-05
0.000185169
-9.29104e-06
0.000192031
-6.86177e-06
0.000196539
-4.50814e-06
0.000198569
-2.02993e-06
0.000197829
7.39385e-07
0.000194568
3.26085e-06
0.000188815
5.75351e-06
0.000180909
7.90553e-06
0.000170959
9.95032e-06
0.000159196
1.17632e-05
0.000145853
1.33421e-05
0.000131339
1.45143e-05
0.000115759
1.55803e-05
9.95211e-05
1.62375e-05
8.2894e-05
1.66271e-05
6.60216e-05
1.68724e-05
4.92627e-05
1.67589e-05
3.26034e-05
1.66592e-05
1.64902e-05
1.61132e-05
7.14138e-07
1.5776e-05
-1.44748e-05
1.51889e-05
-2.90061e-05
1.45312e-05
-4.28745e-05
1.38684e-05
-5.60362e-05
1.31617e-05
-6.85245e-05
1.24883e-05
-8.03182e-05
1.17936e-05
-9.14279e-05
1.11097e-05
-0.000101891
1.04635e-05
-0.000111703
9.81194e-06
-0.000120862
9.15906e-06
-0.000129396
8.53345e-06
-0.000137278
7.88191e-06
-0.000144493
7.21499e-06
-0.000151043
6.55033e-06
-0.000156895
5.85233e-06
-0.000162034
5.13864e-06
-0.000166438
4.40361e-06
-0.000170068
3.63077e-06
-0.000172891
2.82227e-06
-0.000174883
1.99275e-06
-0.00017605
1.16669e-06
-0.000176375
3.25142e-07
-0.00017573
-6.45664e-07
-0.000174164
-1.56573e-06
-0.000171702
-2.46152e-06
-0.000168283
-3.41931e-06
-0.000163993
-4.2902e-06
-0.000158823
-5.17025e-06
-0.000152685
-6.13783e-06
-0.000145706
-6.97922e-06
-0.000137796
-7.90977e-06
-0.000129079
-8.71685e-06
-0.000119574
-9.50539e-06
-0.000109158
-1.04156e-05
-9.79842e-05
-1.11739e-05
-1.19123e-05
0.00020847
-2.40027e-05
0.000218825
-2.06935e-05
0.000227066
-1.64716e-05
0.000233079
-1.20078e-05
0.000236814
-7.44132e-06
0.00023822
-2.81195e-06
0.000237215
1.97618e-06
0.000233747
6.92854e-06
0.000227779
1.19304e-05
0.000219639
1.62721e-05
0.000209431
2.04111e-05
0.000197244
2.4363e-05
0.00018348
2.75196e-05
0.00016825
3.0446e-05
0.000151946
3.2604e-05
0.000134757
3.43609e-05
0.000116762
3.59764e-05
9.8529e-05
3.64561e-05
8.00592e-05
3.69305e-05
6.1522e-05
3.70624e-05
4.33896e-05
3.62601e-05
2.54644e-05
3.58398e-05
8.26189e-06
3.43914e-05
-8.40056e-06
3.33279e-05
-2.43016e-05
3.17983e-05
-3.93602e-05
3.01148e-05
-5.35651e-05
2.84058e-05
-6.68629e-05
2.65897e-05
-7.92337e-05
2.47388e-05
-9.06918e-05
2.29188e-05
-0.000101232
2.10808e-05
-0.000110876
1.9287e-05
-0.00011966
1.75691e-05
-0.000127598
1.58738e-05
-0.000134726
1.42535e-05
-0.000141069
1.26869e-05
-0.000146656
1.11746e-05
-0.000151521
9.73032e-06
-0.000155661
8.27884e-06
-0.000159097
6.87003e-06
-0.000161851
5.50546e-06
-0.000163914
4.12454e-06
-0.000165313
2.79682e-06
-0.000166031
1.43518e-06
-0.000166045
2.88397e-08
-0.000165316
-1.45641e-06
-0.000163897
-2.83927e-06
-0.000161661
-4.47359e-06
-0.000158694
-5.93793e-06
-0.000154934
-7.52081e-06
-0.000150279
-9.314e-06
-0.000144784
-1.09886e-05
-0.000138335
-1.29019e-05
-0.000130919
-1.48303e-05
-0.000122762
-1.63202e-05
-0.000113382
-1.87572e-05
-0.000103135
-2.04893e-05
-9.19605e-05
-2.23558e-05
-7.96746e-05
-2.45665e-05
-6.65758e-05
-2.61951e-05
-5.23986e-05
-2.83538e-05
-3.73496e-05
-3.00894e-05
-2.15435e-05
-3.16108e-05
-5.07639e-06
-3.29206e-05
1.21335e-05
-3.44117e-05
2.96963e-05
-3.51204e-05
4.76503e-05
-3.59025e-05
6.56908e-05
-3.60753e-05
8.37448e-05
-3.60938e-05
0.000101599
-3.56938e-05
0.000119068
-3.49292e-05
0.00013582
-3.34934e-05
0.000151839
-3.20255e-05
0.000166653
-2.9622e-05
0.000180246
-2.71677e-05
0.000192321
-2.41437e-05
0.000202784
-2.09203e-05
0.000211396
-1.72099e-05
0.000218013
-1.32209e-05
0.000222437
-8.85385e-06
0.000224682
-4.47771e-06
0.000224667
2.31636e-08
0.000222419
4.49223e-06
0.00021801
8.8145e-06
0.000211493
1.30452e-05
0.000203065
1.68546e-05
0.000192871
2.03841e-05
0.000181
2.37514e-05
0.000167526
2.69648e-05
0.000152576
2.98947e-05
0.000136306
3.25355e-05
0.000118876
3.48544e-05
0.0001006
3.65422e-05
8.17128e-05
3.77646e-05
6.25103e-05
3.83902e-05
4.32586e-05
3.84859e-05
2.41997e-05
3.81004e-05
5.56788e-06
3.72421e-05
-1.24421e-05
3.59934e-05
-2.96509e-05
3.44122e-05
-4.58978e-05
3.24787e-05
-6.10999e-05
3.04009e-05
-7.5278e-05
2.8349e-05
-8.82855e-05
2.59952e-05
-0.000100201
2.3816e-05
-0.000110991
2.15753e-05
-0.0001207
1.94188e-05
-0.000129335
1.72674e-05
-0.000136956
1.52432e-05
-0.0001437
1.34782e-05
-0.000149484
1.15564e-05
-0.000154402
9.84348e-06
-0.000158512
8.22182e-06
-0.000161868
6.6947e-06
-0.00016444
5.14069e-06
-0.000166281
3.68398e-06
-0.000167419
2.27247e-06
-0.000167881
9.23013e-07
-0.000167651
-4.61011e-07
-0.000166745
-1.8078e-06
-0.0001652
-3.10752e-06
-0.000162954
-4.50302e-06
-0.000160039
-5.84216e-06
-0.000156433
-7.23158e-06
-0.000152164
-8.53089e-06
-0.000147159
-1.00214e-05
-0.000141466
-1.13896e-05
-0.000135004
-1.29389e-05
-0.000127721
-1.457e-05
-0.000119773
-1.59051e-05
-0.000110916
-1.77276e-05
-0.000101195
-1.94183e-05
-9.06521e-05
-2.11191e-05
-7.91858e-05
-2.29501e-05
-6.67902e-05
-2.48048e-05
-5.35686e-05
-2.64293e-05
-3.94197e-05
-2.83519e-05
-2.45206e-05
-2.97507e-05
-8.74504e-06
-3.14623e-05
7.48747e-06
-3.25839e-05
2.43825e-05
-3.37445e-05
4.16574e-05
-3.45485e-05
5.91797e-05
-3.50383e-05
7.67579e-05
-3.51399e-05
9.42034e-05
-3.4879e-05
0.000111287
-3.41499e-05
0.000127749
-3.29068e-05
0.000143361
-3.12007e-05
0.00015783
-2.89198e-05
0.000170906
-2.61623e-05
0.000182353
-2.28476e-05
0.000191937
-1.91387e-05
0.000199459
-1.50439e-05
0.000204777
-1.06085e-05
0.000207695
-5.82652e-06
0.000208223
-1.05195e-06
0.000206289
3.88268e-06
0.00020186
8.86674e-06
0.00019501
1.3699e-05
0.000185868
1.82649e-05
0.000174609
2.25129e-05
0.000161448
2.63182e-05
0.000146649
2.95977e-05
0.000130446
3.2395e-05
0.000113164
3.45502e-05
9.50461e-05
3.62284e-05
7.64092e-05
3.72406e-05
5.74888e-05
3.78464e-05
3.86005e-05
3.77773e-05
1.98963e-05
3.74156e-05
1.59681e-06
3.6571e-05
-1.6186e-05
3.55624e-05
-3.32238e-05
3.40611e-05
-4.94579e-05
3.24618e-05
-6.47463e-05
3.057e-05
-7.90728e-05
2.86523e-05
-9.24779e-05
2.68046e-05
-0.000104831
2.47049e-05
-0.000116213
2.2768e-05
-0.000126631
2.08215e-05
-0.000136059
1.8861e-05
-0.00014452
1.69112e-05
-0.000151973
1.49012e-05
-0.000158458
1.29677e-05
-0.00016402
1.11261e-05
-0.00016871
9.37817e-06
-0.000172619
7.82174e-06
-0.00017583
6.42079e-06
-0.000178385
5.10074e-06
-0.000180305
3.81054e-06
-0.000181667
2.7484e-06
-0.000182395
1.45148e-06
-0.000182585
3.42983e-07
-0.000182137
-8.71167e-07
-0.000181056
-2.17388e-06
-0.000179393
-3.32267e-06
-0.000177135
-4.53526e-06
-0.000174332
-5.6096e-06
-0.000170928
-6.8183e-06
-0.000166895
-8.08276e-06
-0.000162162
-9.4604e-06
-0.00015663
-1.10255e-05
-0.000150353
-1.2607e-05
-0.000143182
-1.43404e-05
-0.000135267
-1.58377e-05
-0.000126446
-1.76596e-05
-0.000116797
-1.92878e-05
-0.000106237
-2.11175e-05
-9.48023e-05
-2.28687e-05
-8.26281e-05
-2.43476e-05
-6.95408e-05
-2.61741e-05
-5.5618e-05
-2.78154e-05
-4.09406e-05
-2.93828e-05
-2.55236e-05
-3.082e-05
-9.44471e-06
-3.21889e-05
7.1333e-06
-3.31093e-05
2.40683e-05
-3.38466e-05
4.12319e-05
-3.4312e-05
5.83924e-05
-3.43028e-05
7.5375e-05
-3.39413e-05
9.192e-05
-3.30719e-05
0.000107822
-3.17804e-05
0.000122809
-2.99597e-05
0.000136655
-2.76524e-05
0.000149033
-2.47507e-05
0.000159749
-2.14125e-05
0.00016855
-1.75845e-05
0.000175236
-1.3372e-05
0.000179646
-8.80801e-06
0.000181685
-4.05246e-06
0.000181274
8.0623e-07
0.000178387
5.76654e-06
0.00017303
1.07111e-05
0.000165359
1.53383e-05
0.000155512
1.96906e-05
0.000143693
2.36272e-05
0.000130107
2.71579e-05
0.000115034
3.01231e-05
9.87329e-05
3.2566e-05
8.14917e-05
3.44793e-05
6.36193e-05
3.57291e-05
4.54001e-05
3.6427e-05
2.70904e-05
3.66072e-05
8.90685e-06
3.63606e-05
-8.95632e-06
3.57149e-05
-2.63511e-05
3.47869e-05
-4.31178e-05
3.35371e-05
-5.91874e-05
3.21509e-05
-7.44661e-05
3.05561e-05
-8.88932e-05
2.88542e-05
-0.000102464
2.71334e-05
-0.000115097
2.52737e-05
-0.000126838
2.34869e-05
-0.000137626
2.15773e-05
-0.000147509
1.97658e-05
-0.000156503
1.79955e-05
-0.000164588
1.61698e-05
-0.000171836
1.45053e-05
-0.000178203
1.27341e-05
-0.000183713
1.10227e-05
-0.000188379
9.33511e-06
-0.00019221
7.67415e-06
-0.000195329
6.24786e-06
-0.000197714
4.75865e-06
-0.000199319
3.20847e-06
-0.000200251
1.86975e-06
-0.000200624
7.67325e-07
-0.000200356
-5.37966e-07
-0.000199389
-1.92853e-06
-0.000197882
-3.01041e-06
-0.00019589
-3.98811e-06
-0.00019311
-5.56118e-06
-0.000189936
-6.33687e-06
-0.000186033
-7.81549e-06
-0.000181497
-9.07194e-06
-0.000176238
-1.0511e-05
-0.000170316
-1.18458e-05
-0.00016345
-1.37366e-05
-0.000155799
-1.5306e-05
-0.000147095
-1.7408e-05
-0.000137429
-1.93317e-05
-0.000126605
-2.1645e-05
-0.000114751
-2.3705e-05
-0.000101904
-2.56925e-05
-8.80231e-05
-2.77582e-05
-7.32681e-05
-2.95044e-05
-5.7718e-05
-3.10978e-05
-4.13879e-05
-3.26557e-05
-2.44963e-05
-3.37804e-05
-6.94214e-06
-3.51018e-05
1.11164e-05
-3.61037e-05
2.94287e-05
-3.662e-05
4.80054e-05
-3.71402e-05
6.66766e-05
-3.73262e-05
8.5057e-05
-3.67483e-05
0.00010304
-3.59572e-05
0.000120298
-3.45026e-05
0.00013648
-3.23558e-05
0.000151365
-2.97563e-05
0.000164583
-2.64167e-05
0.000175973
-2.2777e-05
0.000185269
-1.85874e-05
0.000192143
-1.37356e-05
0.000196662
-9.0269e-06
0.000198695
-4.06281e-06
0.000197944
1.4901e-06
0.00019468
6.52404e-06
0.000188924
1.15094e-05
0.000181013
1.58166e-05
0.000171052
1.9912e-05
0.000159278
2.35364e-05
0.000145922
2.66984e-05
0.000131397
2.90397e-05
0.000115802
3.11749e-05
9.95569e-05
3.24823e-05
8.29157e-05
3.32683e-05
6.60311e-05
3.37568e-05
4.92657e-05
3.35243e-05
3.25959e-05
3.33289e-05
1.64711e-05
3.2238e-05
6.95551e-07
3.15515e-05
-1.4496e-05
3.03805e-05
-2.90312e-05
2.90664e-05
-4.29021e-05
2.77393e-05
-5.60645e-05
2.6324e-05
-6.85541e-05
2.4978e-05
-8.03501e-05
2.35896e-05
-9.14606e-05
2.22201e-05
-0.000101924
2.09274e-05
-0.000111739
1.96266e-05
-0.000120903
1.83229e-05
-0.000129437
1.70671e-05
-0.000137318
1.57629e-05
-0.000144535
1.44319e-05
-0.000151087
1.31026e-05
-0.000156941
1.17067e-05
-0.000162081
1.02785e-05
-0.000166485
8.80761e-06
-0.000170117
7.2623e-06
-0.00017294
5.64551e-06
-0.000174935
3.98792e-06
-0.000176102
2.33347e-06
-0.000176426
6.49017e-07
-0.000175782
-1.28928e-06
-0.000174216
-3.13178e-06
-0.000171752
-4.92527e-06
-0.000168332
-6.84007e-06
-0.00016404
-8.582e-06
-0.000158868
-1.03421e-05
-0.000152728
-1.22777e-05
-0.000145747
-1.39607e-05
-0.000137834
-1.58225e-05
-0.000129115
-1.74357e-05
-0.000119608
-1.90126e-05
-0.00010919
-2.08331e-05
-9.8014e-05
-2.23501e-05
-2.38272e-05
0.000208637
-3.60406e-05
0.000219025
-3.10818e-05
0.000227293
-2.47395e-05
0.000233332
-1.80471e-05
0.000237073
-1.11826e-05
0.000238491
-4.23024e-06
0.000237437
3.03067e-06
0.000233931
1.04342e-05
0.000227952
1.79101e-05
0.000219794
2.44294e-05
0.000209576
3.06288e-05
0.000197368
3.65709e-05
0.000183589
4.12986e-05
0.000168337
4.56982e-05
0.000152032
4.89089e-05
0.000134801
5.1592e-05
0.000116793
5.3985e-05
9.85436e-05
5.4705e-05
8.00604e-05
5.54137e-05
6.15048e-05
5.56179e-05
4.33655e-05
5.43994e-05
2.54263e-05
5.3779e-05
8.196e-06
5.16217e-05
-8.46379e-06
4.99876e-05
-2.43712e-05
4.77058e-05
-3.94356e-05
4.51791e-05
-5.36445e-05
4.26148e-05
-6.69434e-05
3.98886e-05
-7.93154e-05
3.71107e-05
-9.07753e-05
3.43787e-05
-0.000101316
3.16212e-05
-0.000110956
2.89275e-05
-0.00011974
2.6353e-05
-0.000127678
2.38114e-05
-0.000134803
2.13788e-05
-0.000141143
1.90265e-05
-0.000146727
1.67593e-05
-0.000151596
1.45993e-05
-0.000155739
1.24218e-05
-0.000159177
1.03073e-05
-0.000161929
8.25751e-06
-0.000163992
6.18749e-06
-0.000165393
4.19775e-06
-0.000166102
2.14462e-06
-0.000166109
3.5559e-08
-0.000165375
-2.19036e-06
-0.000163955
-4.25901e-06
-0.00016172
-6.70911e-06
-0.000158762
-8.89522e-06
-0.000154998
-1.12855e-05
-0.000150349
-1.39629e-05
-0.000144853
-1.64844e-05
-0.000138412
-1.93433e-05
-0.00013099
-2.22518e-05
-0.000122846
-2.44641e-05
-0.000113458
-2.81456e-05
-0.000103207
-3.07405e-05
-9.20421e-05
-3.35207e-05
-7.97496e-05
-3.6859e-05
-6.66482e-05
-3.92966e-05
-5.24697e-05
-4.25324e-05
-3.74092e-05
-4.515e-05
-2.16001e-05
-4.74199e-05
-5.11726e-06
-4.94036e-05
1.2089e-05
-5.1618e-05
2.96591e-05
-5.26907e-05
4.76294e-05
-5.38729e-05
6.56793e-05
-5.41253e-05
8.3742e-05
-5.41567e-05
0.000101618
-5.35695e-05
0.000119108
-5.24194e-05
0.00013587
-5.02557e-05
0.000151919
-4.80744e-05
0.000166737
-4.44407e-05
0.000180352
-4.07823e-05
0.000192458
-3.62499e-05
0.000202921
-3.13838e-05
0.00021154
-2.58289e-05
0.00021818
-1.98605e-05
0.000222602
-1.32758e-05
0.00022487
-6.74649e-06
0.000224843
5.10816e-08
0.000222579
6.75614e-06
0.000218152
1.32419e-05
0.000211633
1.9564e-05
0.0002032
2.52881e-05
0.000193008
3.05771e-05
0.000181132
3.56272e-05
0.00016765
4.04479e-05
0.000152691
4.48539e-05
0.000136411
4.8816e-05
0.000118959
5.23061e-05
0.000100652
5.48503e-05
8.1731e-05
5.66856e-05
6.24946e-05
5.76268e-05
4.32044e-05
5.77762e-05
2.41077e-05
5.71972e-05
5.45096e-06
5.58989e-05
-1.25778e-05
5.40222e-05
-2.98191e-05
5.16535e-05
-4.6089e-05
4.87485e-05
-6.13064e-05
4.56183e-05
-7.55119e-05
4.25544e-05
-8.85361e-05
3.90193e-05
-0.000100452
3.57321e-05
-0.000111241
3.23639e-05
-0.000120957
2.91348e-05
-0.000129596
2.59067e-05
-0.000137209
2.28558e-05
-0.000143947
2.02162e-05
-0.000149753
1.73618e-05
-0.000154668
1.4759e-05
-0.000158742
1.22956e-05
-0.000162124
1.00763e-05
-0.000164708
7.72445e-06
-0.000166556
5.5323e-06
-0.000167695
3.41119e-06
-0.000168129
1.35728e-06
-0.000167914
-6.76253e-07
-0.000166951
-2.77063e-06
-0.000165468
-4.59107e-06
-0.000163228
-6.74287e-06
-0.000160322
-8.7477e-06
-0.000156729
-1.08251e-05
-0.000152453
-1.28069e-05
-0.000147455
-1.50196e-05
-0.000141755
-1.70896e-05
-0.000135303
-1.93911e-05
-0.000128058
-2.18151e-05
-0.000120078
-2.3885e-05
-0.000111231
-2.65746e-05
-0.000101451
-2.91979e-05
-9.09726e-05
-3.15978e-05
-7.9519e-05
-3.44037e-05
-6.71361e-05
-3.71879e-05
-5.39058e-05
-3.96597e-05
-3.97836e-05
-4.24743e-05
-2.48356e-05
-4.46988e-05
-9.0695e-06
-4.72285e-05
7.16817e-06
-4.88217e-05
2.40877e-05
-5.06641e-05
4.13809e-05
-5.18418e-05
5.89184e-05
-5.25759e-05
7.65205e-05
-5.27421e-05
9.39838e-05
-5.23425e-05
0.000111086
-5.12522e-05
0.000127577
-4.93975e-05
0.000143207
-4.68313e-05
0.000157726
-4.34388e-05
0.000170798
-3.92344e-05
0.000182264
-3.43141e-05
0.000191874
-2.87489e-05
0.000199418
-2.25871e-05
0.00020473
-1.59215e-05
0.000207693
-8.78889e-06
0.000208229
-1.58832e-06
0.000206298
5.81386e-06
0.000201824
1.33401e-05
0.000195004
2.05194e-05
0.000185821
2.74471e-05
0.00017455
3.37843e-05
0.000161368
3.94997e-05
0.000146532
4.44337e-05
0.000130313
4.86142e-05
0.000112999
5.18643e-05
9.48667e-05
5.43602e-05
7.61892e-05
5.5918e-05
5.72666e-05
5.67689e-05
3.83577e-05
5.66861e-05
1.9596e-05
5.61773e-05
1.29937e-06
5.48676e-05
-1.64581e-05
5.33198e-05
-3.35086e-05
5.11116e-05
-4.97578e-05
4.8711e-05
-6.50551e-05
4.58673e-05
-7.94316e-05
4.30288e-05
-9.27943e-05
4.01673e-05
-0.000105151
3.70616e-05
-0.000116489
3.41063e-05
-0.000126947
3.12792e-05
-0.000136375
2.82889e-05
-0.000144852
2.5388e-05
-0.000152302
2.23517e-05
-0.000158793
1.94589e-05
-0.000164341
1.66739e-05
-0.000169028
1.40647e-05
-0.000172916
1.17102e-05
-0.000176102
9.60691e-06
-0.00017868
7.67918e-06
-0.00018062
5.74968e-06
-0.000181971
4.09948e-06
-0.000182657
2.13785e-06
-0.000182897
5.83394e-07
-0.00018244
-1.32824e-06
-0.000181366
-3.24817e-06
-0.000179646
-5.04251e-06
-0.000177449
-6.73226e-06
-0.000174646
-8.4126e-06
-0.000171245
-1.02198e-05
-0.000167222
-1.21053e-05
-0.000162488
-1.41944e-05
-0.000156935
-1.65791e-05
-0.000150699
-1.88429e-05
-0.000143578
-2.14612e-05
-0.000135605
-2.38109e-05
-0.000126785
-2.64795e-05
-0.000117134
-2.89387e-05
-0.000106577
-3.16745e-05
-9.52056e-05
-3.42403e-05
-8.29593e-05
-3.6594e-05
-6.98709e-05
-3.92625e-05
-5.58755e-05
-4.18109e-05
-4.12631e-05
-4.39953e-05
-2.58285e-05
-4.62547e-05
-9.74616e-06
-4.82713e-05
6.85959e-06
-4.97151e-05
2.38271e-05
-5.08142e-05
4.10037e-05
-5.14888e-05
5.81845e-05
-5.14836e-05
7.51839e-05
-5.09408e-05
9.17474e-05
-4.96355e-05
0.00010767
-4.77029e-05
0.000122694
-4.49843e-05
0.000136561
-4.15191e-05
0.000148956
-3.71459e-05
0.000159688
-3.21448e-05
0.000168506
-2.64019e-05
0.00017522
-2.00864e-05
0.000179633
-1.32208e-05
0.000181673
-6.09248e-06
0.000181262
1.21631e-06
0.000178353
8.67543e-06
0.000172998
1.60662e-05
0.000165316
2.30203e-05
0.00015545
2.9556e-05
0.000143593
3.54848e-05
0.000129984
4.07666e-05
0.000114882
4.52241e-05
9.85586e-05
4.88896e-05
8.12979e-05
5.174e-05
6.34003e-05
5.36264e-05
4.51666e-05
5.46607e-05
2.68338e-05
5.49399e-05
8.65104e-06
5.45433e-05
-9.21378e-06
5.35797e-05
-2.65959e-05
5.21691e-05
-4.3367e-05
5.03081e-05
-5.94359e-05
4.82199e-05
-7.4716e-05
4.58363e-05
-8.91367e-05
4.3275e-05
-0.000102706
4.07024e-05
-0.000115321
3.78896e-05
-0.000127047
3.52126e-05
-0.000137844
3.23745e-05
-0.000147719
2.96416e-05
-0.000156707
2.69828e-05
-0.000164794
2.42572e-05
-0.000172021
2.1733e-05
-0.000178384
1.90965e-05
-0.00018388
1.65195e-05
-0.000188542
1.39973e-05
-0.000192376
1.15079e-05
-0.000195467
9.33981e-06
-0.000197856
7.14733e-06
-0.000199457
4.80963e-06
-0.000200374
2.78712e-06
-0.000200727
1.11991e-06
-0.000200452
-8.12457e-07
-0.000199477
-2.90385e-06
-0.00019796
-4.52692e-06
-0.000195968
-5.97996e-06
-0.000193196
-8.33337e-06
-0.000190003
-9.52962e-06
-0.000186113
-1.17054e-05
-0.000181576
-1.36087e-05
-0.000176309
-1.57785e-05
-0.00017039
-1.77644e-05
-0.000163532
-2.05948e-05
-0.000155887
-2.2951e-05
-0.000147185
-2.611e-05
-0.000137518
-2.89986e-05
-0.000126692
-3.2472e-05
-0.000114833
-3.55632e-05
-0.000101984
-3.85424e-05
-8.80977e-05
-4.16441e-05
-7.33391e-05
-4.42631e-05
-5.77839e-05
-4.66531e-05
-4.14464e-05
-4.89934e-05
-2.45466e-05
-5.06804e-05
-6.98342e-06
-5.26651e-05
1.10857e-05
-5.41729e-05
2.94093e-05
-5.49437e-05
4.79992e-05
-5.57302e-05
6.66903e-05
-5.60175e-05
8.50884e-05
-5.51466e-05
0.000103093
-5.39618e-05
0.00012036
-5.17696e-05
0.000136579
-4.85747e-05
0.000151487
-4.46647e-05
0.000164722
-3.96517e-05
0.000176127
-3.41823e-05
0.000185441
-2.79014e-05
0.000192326
-2.06208e-05
0.000196851
-1.35523e-05
0.000198896
-6.10813e-06
0.000198123
2.26325e-06
0.000194854
9.79315e-06
0.000189096
1.72669e-05
0.000181174
2.37386e-05
0.000171192
2.98941e-05
0.000159401
3.53277e-05
0.000146019
4.00794e-05
0.000131474
4.35849e-05
0.000115854
4.67945e-05
9.96035e-05
4.87333e-05
8.29323e-05
4.99393e-05
6.60284e-05
5.06608e-05
4.92525e-05
5.03001e-05
3.25688e-05
5.00126e-05
1.64196e-05
4.83872e-05
6.47228e-07
4.73238e-05
-1.45496e-05
4.55772e-05
-2.9089e-05
4.36058e-05
-4.29636e-05
4.16139e-05
-5.61289e-05
3.94893e-05
-6.86194e-05
3.74684e-05
-8.04148e-05
3.5385e-05
-9.15251e-05
3.33304e-05
-0.00010199
3.1392e-05
-0.000111802
2.94394e-05
-0.000120963
2.74836e-05
-0.0001295
2.56038e-05
-0.000137383
2.36461e-05
-0.000144599
2.16475e-05
-0.000151154
1.96583e-05
-0.000157012
1.75649e-05
-0.000162151
1.54172e-05
-0.000166558
1.32151e-05
-0.000170194
1.08981e-05
-0.00017302
8.47117e-06
-0.00017502
5.98792e-06
-0.000176184
3.4975e-06
-0.000176499
9.64159e-07
-0.000175851
-1.93704e-06
-0.000174284
-4.69925e-06
-0.000171822
-7.38731e-06
-0.000168401
-1.02607e-05
-0.000164108
-1.28749e-05
-0.000158935
-1.55151e-05
-0.000152795
-1.84178e-05
-0.000145812
-2.09434e-05
-0.000137898
-2.37371e-05
-0.000129178
-2.61556e-05
-0.000119669
-2.85212e-05
-0.00010925
-3.12524e-05
-9.80714e-05
-3.35288e-05
-3.5745e-05
0.000208879
-4.81156e-05
0.000219324
-4.15264e-05
0.000227637
-3.30529e-05
0.000233714
-2.41239e-05
0.000237483
-1.49518e-05
0.0002389
-5.64724e-06
0.000237763
4.16739e-06
0.000234208
1.39897e-05
0.00022821
2.39077e-05
0.000220028
3.26114e-05
0.000209795
4.0862e-05
0.000197556
4.88094e-05
0.000183754
5.51005e-05
0.000168467
6.09852e-05
0.00015214
6.52361e-05
0.000134862
6.88702e-05
0.000116839
7.20079e-05
9.85653e-05
7.29787e-05
8.00621e-05
7.39169e-05
6.148e-05
7.42e-05
4.33242e-05
7.25552e-05
2.53727e-05
7.17304e-05
8.09994e-06
6.88944e-05
-8.55973e-06
6.66473e-05
-2.44776e-05
6.36236e-05
-3.95498e-05
6.02513e-05
-5.37652e-05
5.68302e-05
-6.7069e-05
5.31924e-05
-7.94445e-05
4.94861e-05
-9.09032e-05
4.58374e-05
-0.000101442
4.21601e-05
-0.000111082
3.85673e-05
-0.000119864
3.51349e-05
-0.000127797
3.17449e-05
-0.000134922
2.85032e-05
-0.000141263
2.53678e-05
-0.000146849
2.23454e-05
-0.000151714
1.94645e-05
-0.000155854
1.65615e-05
-0.000159292
1.37452e-05
-0.000162047
1.10126e-05
-0.00016411
8.2502e-06
-0.000165514
5.60214e-06
-0.000166212
2.84244e-06
-0.000166205
2.81657e-08
-0.000165464
-2.93096e-06
-0.000164042
-5.68054e-06
-0.000161808
-8.94323e-06
-0.000158863
-1.1841e-05
-0.000155095
-1.50536e-05
-0.000150455
-1.86023e-05
-0.000144957
-2.19822e-05
-0.000138528
-2.57731e-05
-0.000131099
-2.96804e-05
-0.000122961
-3.2602e-05
-0.000113575
-3.7532e-05
-0.000103317
-4.0998e-05
-9.21659e-05
-4.46723e-05
-7.98633e-05
-4.91617e-05
-6.6759e-05
-5.2401e-05
-5.25778e-05
-5.67137e-05
-3.75013e-05
-6.02266e-05
-2.16882e-05
-6.32332e-05
-5.1831e-06
-6.59088e-05
1.20169e-05
-6.88182e-05
2.95967e-05
-7.02706e-05
4.75915e-05
-7.18678e-05
6.56537e-05
-7.21876e-05
8.374e-05
-7.22431e-05
0.000101649
-7.14783e-05
0.000119163
-6.99341e-05
0.00013594
-6.70323e-05
0.000152012
-6.41471e-05
0.000166857
-5.92852e-05
0.000180503
-5.44291e-05
0.000192666
-4.84126e-05
0.00020312
-4.18377e-05
0.000211761
-3.44698e-05
0.000218431
-2.65311e-05
0.000222847
-1.76911e-05
0.000225141
-9.04035e-06
0.000225093
9.91327e-08
0.000222813
9.03597e-06
0.000218368
1.76874e-05
0.000211836
2.60961e-05
0.000203385
3.37396e-05
0.000193174
4.0788e-05
0.000181289
4.75133e-05
0.000167792
5.39447e-05
0.000152812
5.98344e-05
0.000136491
6.51374e-05
0.000119019
6.97789e-05
0.000100662
7.32075e-05
8.16753e-05
7.56722e-05
6.24073e-05
7.6895e-05
4.30362e-05
7.71474e-05
2.38816e-05
7.63519e-05
5.19371e-06
7.45869e-05
-1.28525e-05
7.20683e-05
-3.0149e-05
6.895e-05
-4.64489e-05
6.50483e-05
-6.1747e-05
6.09163e-05
-7.59289e-05
5.67362e-05
-8.89708e-05
5.2061e-05
-0.000100892
4.76531e-05