/*--------------------------------*- C++ -*----------------------------------*\
| =========                 |                                                 |
| \\      /  F ield         | OpenFOAM: The Open Source CFD Toolbox           |
|  \\    /   O peration     | Version:  3.0.1                                 |
|   \\  /    A nd           | Web:      www.OpenFOAM.org                      |
|    \\/     M anipulation  |                                                 |
\*---------------------------------------------------------------------------*/
FoamFile
{
    version     2.0;
    format      ascii;
    class       surfaceScalarField;
    location    "29.8";
    object      alphaPhi;
}
// * * * * * * * * * * * * * * * * * * * * * * * * * * * * * * * * * * * * * //

dimensions      [0 3 -1 0 0 0 0];

internalField   nonuniform List<scalar> 
44922
(
-1.76058e-05
-7.83366e-06
-9.57674e-06
-8.02908e-06
-1.31536e-06
-8.26138e-06
7.02058e-06
-8.33593e-06
1.53864e-05
-8.36582e-06
2.37154e-05
-8.329e-06
3.2032e-05
-8.31656e-06
4.02583e-05
-8.22629e-06
4.83985e-05
-8.14022e-06
5.63608e-05
-7.96227e-06
6.41542e-05
-7.79347e-06
7.1723e-05
-7.56872e-06
7.9086e-05
-7.36299e-06
8.62377e-05
-7.15168e-06
9.32168e-05
-6.97911e-06
0.000100063
-6.84617e-06
0.00010687
-6.8068e-06
0.000113708
-6.83825e-06
0.000120733
-7.02452e-06
0.00012803
-7.29722e-06
0.000135809
-7.77956e-06
0.000144139
-8.32941e-06
0.000153274
-9.13504e-06
0.000163205
-9.9315e-06
0.00017423
-1.10243e-05
0.00018619
-1.19601e-05
0.00019943
-1.324e-05
0.000213578
-1.41483e-05
0.000229042
-1.54643e-05
0.000245182
-1.61395e-05
0.000262474
-1.72924e-05
0.000280009
-1.75349e-05
0.000298299
-1.82899e-05
0.000316295
-1.79964e-05
0.000333691
-1.73952e-05
0.000350854
-1.7163e-05
0.000366975
-1.61219e-05
0.000382177
-1.52016e-05
0.000395983
-1.38056e-05
0.000408342
-1.23598e-05
0.000419102
-1.07599e-05
0.000428156
-9.05402e-06
0.000435561
-7.40456e-06
0.000441259
-5.69856e-06
0.000445398
-4.13874e-06
0.000448061
-2.66285e-06
0.000449226
-1.16512e-06
0.000448263
9.63416e-07
0.000445023
3.23936e-06
0.000440108
4.91565e-06
0.000433401
6.70716e-06
0.000424701
8.69971e-06
0.00041445
1.02509e-05
0.000402062
1.23885e-05
0.000388257
1.38041e-05
0.000372235
1.60227e-05
0.000354986
1.72487e-05
0.000335638
1.93484e-05
0.000315372
2.02661e-05
0.000293448
2.19238e-05
0.000271066
2.23821e-05
0.000247725
2.33408e-05
0.000224473
2.32522e-05
0.000200993
2.34801e-05
0.000178059
2.29331e-05
0.000155506
2.25538e-05
0.000133848
2.16575e-05
0.000113086
2.07621e-05
9.35139e-05
1.95721e-05
7.51968e-05
1.83171e-05
5.82656e-05
1.69312e-05
4.28003e-05
1.54654e-05
2.86599e-05
1.41404e-05
1.56511e-05
1.30088e-05
3.87681e-06
1.17743e-05
-7.162e-06
1.10388e-05
-1.73337e-05
1.01717e-05
-2.66029e-05
9.26921e-06
-3.4814e-05
8.21108e-06
-4.20203e-05
7.20638e-06
-4.81432e-05
6.12284e-06
-5.33615e-05
5.21829e-06
-5.76838e-05
4.3223e-06
-6.12702e-05
3.58639e-06
-6.41621e-05
2.89195e-06
-6.62312e-05
2.06913e-06
-6.76664e-05
1.43517e-06
-6.76792e-05
1.28108e-08
-6.66094e-05
-1.06982e-06
-6.42023e-05
-2.40712e-06
-5.93262e-05
-4.87604e-06
-5.2636e-05
-6.69021e-06
-4.2451e-05
-1.0185e-05
-3.05411e-05
-1.19099e-05
-1.49542e-05
-1.55869e-05
8.82907e-07
-1.58371e-05
1.93174e-05
-1.84345e-05
3.73921e-05
-1.80747e-05
5.6385e-05
-1.89929e-05
7.33589e-05
-1.69739e-05
8.88007e-05
-1.54419e-05
0.000100318
-1.15173e-05
0.000107881
-7.56316e-06
0.000110074
-2.19284e-06
0.000106207
3.86634e-06
9.49629e-05
1.12443e-05
7.68554e-05
1.81075e-05
5.19679e-05
2.48875e-05
2.10852e-05
3.08827e-05
-1.52473e-05
3.63325e-05
-5.56157e-05
4.03683e-05
-9.93911e-05
4.37751e-05
-0.000146696
4.73048e-05
-0.000196891
5.01943e-05
-0.000248364
5.1473e-05
-0.00029795
4.95858e-05
-0.000343562
4.56113e-05
-0.000383511
3.99489e-05
-0.000419022
3.55118e-05
-0.000450533
3.15101e-05
-0.000479705
2.91729e-05
-0.000505628
2.59229e-05
-0.000528015
2.23883e-05
-0.000546026
1.80109e-05
-0.000557486
1.1459e-05
-0.000562235
4.7482e-06
-0.000557183
-5.05209e-06
-0.000544594
-1.25893e-05
-0.000530419
-1.41747e-05
-0.000517359
-1.30593e-05
-0.000503111
-1.42477e-05
-0.000490671
-1.24394e-05
-0.000480946
-9.72549e-06
-0.000471002
-9.94448e-06
-0.000463063
-7.93895e-06
-0.000457016
-6.04706e-06
-0.000451656
-5.35956e-06
-0.000447162
-4.49408e-06
-0.00044257
-4.59149e-06
-0.000438414
-4.15697e-06
-0.000434209
-4.20535e-06
-0.000430817
-3.39197e-06
-0.000429195
-1.62157e-06
-0.000429094
-1.0165e-07
-0.000431916
2.8217e-06
-0.00043707
5.15451e-06
-0.000444252
7.18223e-06
-0.000454132
9.87961e-06
-0.000467573
1.34411e-05
-0.00048254
1.49663e-05
-0.00049863
1.60903e-05
-0.000515159
1.65284e-05
-0.000532456
1.72969e-05
-0.000551082
1.86261e-05
-0.000570608
1.95262e-05
-0.000590588
1.99797e-05
-0.000610806
2.02183e-05
-0.000631293
2.0487e-05
-0.000651562
2.02687e-05
-0.000671804
2.02419e-05
-0.000690978
1.91747e-05
-0.000709039
1.80602e-05
-0.000725459
1.64206e-05
-0.000739476
1.40167e-05
-0.000751433
1.19566e-05
-0.000760059
8.62692e-06
-0.000764301
4.24188e-06
-0.000763708
-5.9345e-07
-0.00075847
-5.23804e-06
-0.000749124
-9.3462e-06
-0.000735571
-1.35522e-05
-0.000717844
-1.77265e-05
-0.000697254
-2.05863e-05
-0.00067555
-2.17009e-05
-0.000654546
-2.10103e-05
-0.000636432
-1.81145e-05
-0.000622461
-1.39709e-05
-0.000612458
-1.00028e-05
-0.000604815
-7.64352e-06
-0.000596454
-8.36079e-06
-0.000584022
-1.24317e-05
-0.000565224
-1.87981e-05
-0.000539399
-2.58254e-05
-0.000507581
-3.18179e-05
-0.000472568
-3.50126e-05
-0.000438098
-3.447e-05
-0.000407469
-3.06292e-05
-0.000382934
-2.45351e-05
-0.000365033
-1.79004e-05
-0.000353665
-1.13686e-05
-0.000347052
-6.61021e-06
-0.000342625
-4.42821e-06
-0.000337185
-5.44076e-06
-0.000327968
-9.21661e-06
-0.000315682
-1.22842e-05
-0.000303362
-1.2319e-05
-0.000295435
-7.92691e-06
-0.000293282
-2.15239e-06
-0.000297669
4.38678e-06
-0.00030622
8.55133e-06
-0.00031119
4.96946e-06
-0.000304571
-6.6197e-06
-0.000270095
-3.44754e-05
-0.000201639
-6.84548e-05
-0.000110397
-9.1238e-05
-1.47075e-05
-9.56863e-05
6.49853e-05
-7.96899e-05
0.000102365
-3.73772e-05
9.12771e-05
1.1088e-05
7.08094e-05
2.04674e-05
5.31221e-05
1.7687e-05
4.03781e-05
1.27436e-05
3.31702e-05
7.2079e-06
3.47713e-05
-1.60116e-06
5.34658e-05
-1.86943e-05
9.30521e-05
-3.95867e-05
0.00014784
-5.47884e-05
0.000217176
-6.93361e-05
0.000293197
-7.60222e-05
0.000394231
-0.000101035
0.00050116
-0.000106929
0.000602926
-0.000101767
0.000656404
-5.34788e-05
0.00056477
9.1634e-05
0.000116959
0.000447812
-1.76195e-05
-1.56704e-05
-9.58722e-06
-1.60613e-05
-1.32294e-06
-1.65257e-05
7.01641e-06
-1.66753e-05
1.53846e-05
-1.6734e-05
2.37162e-05
-1.66606e-05
3.20353e-05
-1.66356e-05
4.02641e-05
-1.64551e-05
4.84066e-05
-1.62828e-05
5.63708e-05
-1.59264e-05
6.41656e-05
-1.55882e-05
7.17348e-05
-1.51379e-05
7.90973e-05
-1.47255e-05
8.62474e-05
-1.43017e-05
9.32236e-05
-1.39553e-05
0.000100066
-1.36881e-05
0.000106867
-1.36081e-05
0.000113698
-1.36699e-05
0.000120715
-1.40414e-05
0.000128004
-1.45862e-05
0.000135775
-1.55505e-05
0.000144096
-1.66505e-05
0.000153224
-1.82624e-05
0.000163149
-1.98567e-05
0.000174169
-2.2044e-05
0.000186126
-2.39176e-05
0.000199366
-2.64799e-05
0.000213517
-2.8299e-05
0.000228987
-3.09341e-05
0.000245134
-3.2287e-05
0.000262438
-3.45964e-05
0.000279986
-3.50831e-05
0.000298293
-3.65965e-05
0.000316306
-3.60097e-05
0.000333718
-3.48066e-05
0.000350897
-3.43423e-05
0.000367033
-3.22582e-05
0.000382248
-3.04157e-05
0.000396063
-2.7621e-05
0.000408429
-2.47262e-05
0.000419193
-2.15231e-05
0.000428246
-1.81076e-05
0.000435644
-1.48027e-05
0.000441328
-1.13817e-05
0.000445439
-8.25046e-06
0.000448016
-5.23906e-06
0.0004491
-2.2495e-06
0.000448184
1.87934e-06
0.000445046
6.37762e-06
0.000440178
9.7839e-06
0.000433482
1.34023e-05
0.000424785
1.73972e-05
0.000414535
2.0501e-05
0.000402146
2.47771e-05
0.000388341
2.76096e-05
0.000372315
3.20485e-05
0.00035506
3.45034e-05
0.000335703
3.87055e-05
0.000315425
4.05447e-05
0.000293487
4.38616e-05
0.000271088
4.47808e-05
0.000247732
4.66971e-05
0.000224465
4.65195e-05
0.000200972
4.69726e-05
0.000178028
4.58777e-05
0.000155464
4.51169e-05
0.000133799
4.33233e-05
0.000113031
4.15301e-05
9.34552e-05
3.91475e-05
7.51378e-05
3.66345e-05
5.82091e-05
3.38599e-05
4.27476e-05
3.09269e-05
2.86127e-05
2.82753e-05
1.56089e-05
2.60125e-05
3.83437e-06
2.35489e-05
-7.20769e-06
2.20809e-05
-1.73814e-05
2.03454e-05
-2.6652e-05
1.85398e-05
-3.48634e-05
1.64224e-05
-4.20682e-05
1.44112e-05
-4.81876e-05
1.22423e-05
-5.34029e-05
1.04336e-05
-5.7725e-05
8.64443e-06
-6.13172e-05
7.17851e-06
-6.42237e-05
5.79854e-06
-6.63165e-05
4.1619e-06
-6.77863e-05
2.90501e-06
-6.78485e-05
7.49911e-08
-6.68306e-05
-2.08777e-06
-6.44758e-05
-4.76184e-06
-5.96497e-05
-9.70211e-06
-5.29998e-05
-1.33402e-05
-4.28405e-05
-2.03443e-05
-3.09381e-05
-2.38122e-05
-1.53519e-05
-3.11731e-05
6.39789e-07
-3.18287e-05
1.89852e-05
-3.67799e-05
3.71254e-05
-3.62148e-05
5.61947e-05
-3.80622e-05
7.32302e-05
-3.40094e-05
8.87182e-05
-3.093e-05
0.000100324
-2.31236e-05
0.000107986
-1.52251e-05
0.000110262
-4.46884e-06
0.000106439
7.68891e-06
9.52427e-05
2.24403e-05
7.71513e-05
3.61989e-05
5.2206e-05
4.98328e-05
2.12584e-05
6.18299e-05
-1.50846e-05
7.26742e-05
-5.54368e-05
8.0719e-05
-9.92195e-05
8.75567e-05
-0.000146549
9.46341e-05
-0.000196855
0.000100501
-0.000248529
0.000103148
-0.000298276
9.93322e-05
-0.000343966
9.12977e-05
-0.000383895
7.98741e-05
-0.000419308
7.09257e-05
-0.000450755
6.29569e-05
-0.000479935
5.8356e-05
-0.000505849
5.18386e-05
-0.000528283
4.48222e-05
-0.000546407
3.61354e-05
-0.000558148
2.31992e-05
-0.000562633
9.23349e-06
-0.000557549
-1.01407e-05
-0.000544797
-2.53434e-05
-0.000530457
-2.8514e-05
-0.000517297
-2.62152e-05
-0.000503023
-2.85192e-05
-0.000490597
-2.48654e-05
-0.000480894
-1.94284e-05
-0.000470946
-1.9893e-05
-0.00046299
-1.58954e-05
-0.000456977
-1.20627e-05
-0.000451622
-1.07133e-05
-0.000447172
-8.94139e-06
-0.000442591
-9.17264e-06
-0.000438391
-8.35725e-06
-0.000434162
-8.43541e-06
-0.00043072
-6.83719e-06
-0.000429039
-3.30368e-06
-0.000429041
-9.94683e-08
-0.000431777
5.55819e-06
-0.000436931
1.0309e-05
-0.000444184
1.44331e-05
-0.000454026
1.9722e-05
-0.000467454
2.68692e-05
-0.00048253
3.00459e-05
-0.000498626
3.21879e-05
-0.000515163
3.3064e-05
-0.000532441
3.45702e-05
-0.000551042
3.72261e-05
-0.000570557
3.90409e-05
-0.000590578
4.00012e-05
-0.00061084
4.04835e-05
-0.000631328
4.09762e-05
-0.000651621
4.05592e-05
-0.000671861
4.04774e-05
-0.000691069
3.83828e-05
-0.000709145
3.61358e-05
-0.000725577
3.28557e-05
-0.000739575
2.80179e-05
-0.000751344
2.37253e-05
-0.000759968
1.72461e-05
-0.000764581
8.85265e-06
-0.000764203
-9.71144e-07
-0.00075909
-1.03486e-05
-0.00074984
-1.85913e-05
-0.000736368
-2.70248e-05
-0.000718683
-3.54113e-05
-0.000698078
-4.11914e-05
-0.000676312
-4.34665e-05
-0.000655111
-4.2211e-05
-0.000636544
-3.66854e-05
-0.000621684
-2.883e-05
-0.000610291
-2.13944e-05
-0.000600934
-1.70005e-05
-0.000591021
-1.82764e-05
-0.000577587
-2.58659e-05
-0.000558407
-3.79789e-05
-0.000532583
-5.16487e-05
-0.000501254
-6.31466e-05
-0.000466925
-6.93419e-05
-0.000433025
-6.83705e-05
-0.000403028
-6.06255e-05
-0.000379092
-4.84712e-05
-0.000361533
-3.54585e-05
-0.000350687
-2.22144e-05
-0.000344635
-1.26621e-05
-0.000340828
-8.23456e-06
-0.000335952
-1.03167e-05
-0.000327085
-1.8083e-05
-0.000314945
-2.44248e-05
-0.000302763
-2.44999e-05
-0.000294931
-1.57583e-05
-0.000293066
-4.01493e-06
-0.000298555
9.87662e-06
-0.000308382
1.83762e-05
-0.000314877
1.14647e-05
-0.00031008
-1.14159e-05
-0.00027868
-6.58525e-05
-0.000213646
-0.000133448
-0.000125887
-0.000178993
-3.13032e-05
-0.000190274
4.95059e-05
-0.000160503
9.0878e-05
-7.87497e-05
8.31535e-05
1.88186e-05
6.4268e-05
3.93548e-05
4.79442e-05
3.40109e-05
3.62856e-05
2.44023e-05
3.0465e-05
1.30284e-05
3.40388e-05
-5.17502e-06
5.5069e-05
-3.97252e-05
9.68317e-05
-8.13507e-05
0.00015284
-0.000110798
0.000222615
-0.000139112
0.000297732
-0.00015114
0.000392802
-0.000196104
0.000495771
-0.0002099
0.000591758
-0.000197761
0.00065112
-0.000112844
0.000578829
0.00016393
0.000246561
0.000449234
-1.76467e-05
-2.35136e-05
-9.60813e-06
-2.40998e-05
-1.33808e-06
-2.47957e-05
7.00811e-06
-2.50215e-05
1.5381e-05
-2.51069e-05
2.3718e-05
-2.49975e-05
3.20421e-05
-2.49597e-05
4.02762e-05
-2.46892e-05
4.84236e-05
-2.44301e-05
5.63917e-05
-2.38946e-05
6.41893e-05
-2.33858e-05
7.17597e-05
-2.27083e-05
7.91214e-05
-2.20872e-05
8.62684e-05
-2.14487e-05
9.3239e-05
-2.09259e-05
0.000100073
-2.05219e-05
0.000106863
-2.03986e-05
0.000113682
-2.04883e-05
0.000120683
-2.1043e-05
0.000127956
-2.18588e-05
0.00013571
-2.33043e-05
0.000144014
-2.49552e-05
0.000153127
-2.73745e-05
0.00016304
-2.97696e-05
0.00017405
-3.30546e-05
0.000186003
-3.58702e-05
0.000199242
-3.97196e-05
0.000213398
-4.24547e-05
0.000228879
-4.64153e-05
0.000245043
-4.84508e-05
0.000262371
-5.19239e-05
0.000279946
-5.26585e-05
0.000298287
-5.49367e-05
0.000316334
-5.40572e-05
0.000333778
-5.22508e-05
0.000350991
-5.15548e-05
0.000367156
-4.84234e-05
0.000382395
-4.5655e-05
0.00039623
-4.14559e-05
0.00040861
-3.71061e-05
0.000419379
-3.22924e-05
0.00042843
-2.71585e-05
0.000435813
-2.21857e-05
0.000441462
-1.70306e-05
0.000445502
-1.22897e-05
0.000447934
-7.67149e-06
0.00044891
-3.22534e-06
0.000448072
2.71698e-06
0.000445107
9.34299e-06
0.00044033
1.45611e-05
0.000433652
2.00796e-05
0.000424958
2.60912e-05
0.000414709
3.07499e-05
0.00040232
3.71663e-05
0.000388512
4.1418e-05
0.00037248
4.80807e-05
0.000355213
5.17705e-05
0.000335838
5.80801e-05
0.000315534
6.08485e-05
0.000293568
6.58276e-05
0.000271136
6.7213e-05
0.000247748
7.00845e-05
0.00022445
6.98177e-05
0.000200933
7.04901e-05
0.000177965
6.88456e-05
0.000155383
6.76991e-05
0.0001337
6.50059e-05
0.00011292
6.23101e-05
9.33383e-05
5.87294e-05
7.50203e-05
5.49524e-05
5.80966e-05
5.07836e-05
4.2643e-05
4.63805e-05
2.8519e-05
4.23993e-05
1.55255e-05
3.9006e-05
3.75069e-06
3.53237e-05
-7.29748e-06
3.3129e-05
-1.74753e-05
3.05232e-05
-2.67484e-05
2.78129e-05
-3.49601e-05
2.46341e-05
-4.21614e-05
2.16125e-05
-4.82737e-05
1.83547e-05
-5.34824e-05
1.56422e-05
-5.78034e-05
1.29655e-05
-6.14061e-05
1.07811e-05
-6.43414e-05
8.73384e-06
-6.64794e-05
6.29994e-06
-6.80202e-05
4.44583e-06
-6.81751e-05
2.29933e-07
-6.72551e-05
-3.00776e-06
-6.50054e-05
-7.01154e-06
-6.02795e-05
-1.4428e-05
-5.37121e-05
-1.99075e-05
-4.36056e-05
-3.04508e-05
-3.1731e-05
-3.56868e-05
-1.61335e-05
-4.67705e-05
1.9432e-07
-4.81564e-05
1.83316e-05
-5.49172e-05
3.65969e-05
-5.448e-05
5.57909e-05
-5.72561e-05
7.29685e-05
-5.1187e-05
8.8601e-05
-4.65624e-05
0.000100363
-3.4886e-05
0.000108164
-2.30256e-05
0.000110585
-6.88972e-06
0.000106877
1.13954e-05
9.57884e-05
3.35272e-05
7.77496e-05
5.42376e-05
5.27391e-05
7.48434e-05
2.1693e-05
9.28761e-05
-1.46348e-05
0.000109002
-5.5037e-05
0.000121121
-9.88337e-05
0.000131352
-0.000146081
0.00014188
-0.0001967
0.000151119
-0.000248917
0.000155364
-0.000299007
0.000149427
-0.000344744
0.000137034
-0.000384627
0.000119756
-0.0004199
0.000106197
-0.000451219
9.42764e-05
-0.000480319
8.74558e-05
-0.000506202
7.77214e-05
-0.000528585
6.72054e-05
-0.000546994
5.45437e-05
-0.000559631
3.58361e-05
-0.000563633
1.32362e-05
-0.000558226
-1.55473e-05
-0.00054518
-3.83893e-05
-0.000530499
-4.31952e-05
-0.000517151
-3.95628e-05
-0.000502814
-4.28568e-05
-0.000490374
-3.73063e-05
-0.000480724
-2.90805e-05
-0.000470843
-2.97738e-05
-0.000462832
-2.39051e-05
-0.000456895
-1.79998e-05
-0.000451594
-1.6014e-05
-0.00044723
-1.33053e-05
-0.000442681
-1.3722e-05
-0.000438326
-1.27121e-05
-0.000434074
-1.26878e-05
-0.000430541
-1.03699e-05
-0.000428551
-5.29352e-06
-0.000428784
1.33184e-07
-0.000431517
8.29131e-06
-0.000436645
1.54374e-05
-0.000444016
2.18039e-05
-0.0004538
2.95058e-05
-0.000467167
4.02363e-05
-0.000482488
4.53675e-05
-0.000498596
4.82959e-05
-0.000515144
4.96116e-05
-0.00053237
5.17959e-05
-0.000550932
5.57881e-05
-0.000570413
5.8522e-05
-0.000590494
6.00826e-05
-0.000610849
6.0839e-05
-0.000631351
6.14775e-05
-0.000651694
6.09019e-05
-0.000671922
6.07054e-05
-0.000691201
5.76599e-05
-0.00070932
5.42549e-05
-0.000725777
4.93136e-05
-0.000739766
4.20074e-05
-0.000751214
3.51731e-05
-0.000759528
2.55597e-05
-0.000764575
1.39003e-05
-0.000764802
-7.44763e-07
-0.00076007
-1.50804e-05
-0.000751059
-2.76026e-05
-0.000737667
-4.04159e-05
-0.000719857
-5.32219e-05
-0.000698905
-6.21435e-05
-0.000676735
-6.5636e-05
-0.00065515
-6.37972e-05
-0.000636102
-5.5731e-05
-0.000620497
-4.44348e-05
-0.000608024
-3.38672e-05
-0.000597486
-2.75384e-05
-0.000586888
-2.8875e-05
-0.000573559
-3.91955e-05
-0.000555183
-5.63533e-05
-0.000530177
-7.66538e-05
-0.000499795
-9.35307e-05
-0.000466208
-0.00010293
-0.000432948
-0.00010163
-0.000403492
-9.00807e-05
-0.000379945
-7.20167e-05
-0.000362397
-5.30041e-05
-0.000351645
-3.29664e-05
-0.00034592
-1.83863e-05
-0.000342569
-1.15857e-05
-0.000338041
-1.48449e-05
-0.000329231
-2.68933e-05
-0.000316966
-3.66896e-05
-0.000304707
-3.6759e-05
-0.000296512
-2.39558e-05
-0.000294795
-5.73272e-06
-0.000301054
1.61347e-05
-0.000313529
3.08517e-05
-0.000324671
2.26189e-05
-0.000323884
-1.21529e-05
-0.000299475
-9.02224e-05
-0.000244013
-0.000188922
-0.000164415
-0.000258608
-7.19441e-05
-0.000282777
1.17434e-05
-0.000244211
6.25728e-05
-0.000129585
6.31378e-05
1.82478e-05
4.83034e-05
5.41953e-05
3.4769e-05
4.75461e-05
2.49044e-05
3.42669e-05
2.16963e-05
1.62365e-05
2.80017e-05
-1.14805e-05
5.10144e-05
-6.27387e-05
9.32423e-05
-0.00012358
0.000149011
-0.000166568
0.000214434
-0.000204536
0.000285657
-0.000222361
0.000363632
-0.000274077
0.000452368
-0.000298633
0.000540107
-0.0002855
0.000603129
-0.000175873
0.000559224
0.000207836
0.000365745
0.000440041
-1.76874e-05
-3.13662e-05
-9.63945e-06
-3.21478e-05
-1.36073e-06
-3.30744e-05
6.99568e-06
-3.33779e-05
1.53757e-05
-3.3487e-05
2.37206e-05
-3.33424e-05
3.20525e-05
-3.32916e-05
4.02945e-05
-3.29311e-05
4.84491e-05
-3.25847e-05
5.64232e-05
-3.18687e-05
6.4225e-05
-3.11876e-05
7.17972e-05
-3.02805e-05
7.91578e-05
-2.94477e-05
8.63002e-05
-2.85911e-05
9.32624e-05
-2.78882e-05
0.000100084
-2.73434e-05
0.000106858
-2.71727e-05
0.000113657
-2.72871e-05
0.000120636
-2.80218e-05
0.000127884
-2.91067e-05
0.000135612
-3.10323e-05
0.000143892
-3.32352e-05
0.000152981
-3.64638e-05
0.000162875
-3.9664e-05
0.000173872
-4.40514e-05
0.000185817
-4.78155e-05
0.000199057
-5.2959e-05
0.00021322
-5.66179e-05
0.000228718
-6.19137e-05
0.000244907
-6.46392e-05
0.00026227
-6.92869e-05
0.000279886
-7.02747e-05
0.000298277
-7.33276e-05
0.000316376
-7.21563e-05
0.000333869
-6.97444e-05
0.000351132
-6.88169e-05
0.00036734
-6.46322e-05
0.000382618
-6.09325e-05
0.000396482
-5.53204e-05
0.000408883
-4.95069e-05
0.000419664
-4.30734e-05
0.000428717
-3.62115e-05
0.000436092
-2.95604e-05
0.00044172
-2.26587e-05
0.000445719
-1.62883e-05
0.00044808
-1.00324e-05
0.000448979
-4.12436e-06
0.000448146
3.54923e-06
0.00044528
1.22092e-05
0.000440573
1.92679e-05
0.000433908
2.67447e-05
0.000425219
3.4781e-05
0.000414971
4.09971e-05
0.000402582
4.95561e-05
0.000388769
5.5231e-05
0.000372727
6.41225e-05
0.000355441
6.90561e-05
0.00033604
7.7481e-05
0.000315698
8.11905e-05
0.00029369
8.7836e-05
0.000271207
8.96959e-05
0.000247773
9.35186e-05
0.000224428
9.31622e-05
0.000200874
9.40449e-05
0.000177871
9.18484e-05
0.00015526
9.03098e-05
0.000133552
8.67135e-05
0.000112754
8.31082e-05
9.31627e-05
7.83211e-05
7.48438e-05
7.32713e-05
5.79277e-05
6.76998e-05
4.2486e-05
6.18222e-05
2.83787e-05
5.65067e-05
1.54006e-05
5.1984e-05
3.62578e-06
4.70985e-05
-7.43188e-06
4.41867e-05
-1.76158e-05
4.07072e-05
-2.6893e-05
3.70901e-05
-3.51053e-05
3.28465e-05
-4.23014e-05
2.88086e-05
-4.84027e-05
2.44559e-05
-5.36013e-05
2.08408e-05
-5.79207e-05
1.7285e-05
-6.15378e-05
1.43982e-05
-6.45169e-05
1.17129e-05
-6.67213e-05
8.50435e-06
-6.83768e-05
6.10139e-06
-6.8658e-05
5.11136e-07
-6.78952e-05
-3.77054e-06
-6.58154e-05
-9.09134e-06
-6.12422e-05
-1.90013e-05
-5.48084e-05
-2.63412e-05
-4.47771e-05
-4.0482e-05
-3.29507e-05
-4.75131e-05
-1.73504e-05
-6.23707e-05
-7.2472e-07
-6.4782e-05
1.73145e-05
-7.29564e-05
3.5779e-05
-7.29446e-05
5.51955e-05
-7.66726e-05
7.25913e-05
-6.8583e-05
8.84401e-05
-6.24109e-05
0.000100508
-4.69533e-05
0.000108505
-3.10229e-05
0.000111075
-9.45943e-06
0.000107475
1.49928e-05
9.65976e-05
4.44051e-05
7.87081e-05
7.2127e-05
5.36743e-05
9.9878e-05
2.24273e-05
0.000124124
-1.40766e-05
0.000145506
-5.4498e-05
0.000161543
-9.82728e-05
0.000175127
-0.000145515
0.000189122
-0.000196362
0.000201967
-0.00024913
0.000208134
-0.000299961
0.00020026
-0.000346229
0.000183306
-0.000385908
0.000159435
-0.000420668
0.000140958
-0.000451919
0.000125528
-0.000480757
0.000116293
-0.000506679
0.000103642
-0.000529028
8.95506e-05
-0.000547767
7.32822e-05
-0.000561458
4.95273e-05
-0.000565255
1.7033e-05
-0.000559336
-2.14625e-05
-0.00054586
-5.18619e-05
-0.000530533
-5.85221e-05
-0.000516943
-5.31568e-05
-0.000502544
-5.72607e-05
-0.00049
-4.98501e-05
-0.000480504
-3.85769e-05
-0.000470728
-3.95494e-05
-0.000462607
-3.20255e-05
-0.00045676
-2.38429e-05
-0.000451512
-2.1261e-05
-0.000447267
-1.75502e-05
-0.000442826
-1.81635e-05
-0.000438287
-1.72547e-05
-0.000434043
-1.69332e-05
-0.000430278
-1.41356e-05
-0.000427826
-7.74362e-06
-0.000428296
6.03888e-07
-0.000431116
1.11115e-05
-0.000436248
2.05683e-05
-0.000443721
2.92768e-05
-0.000453475
3.926e-05
-0.000466746
5.3509e-05
-0.000482336
6.09584e-05
-0.000498542
6.45045e-05
-0.000515121
6.61915e-05
-0.000532245
6.89197e-05
-0.00055079
7.43321e-05
-0.000570225
7.79561e-05
-0.000590382
8.02403e-05
-0.000610845
8.13021e-05
-0.000631385
8.20165e-05
-0.00065181
8.13305e-05
-0.000672005
8.09026e-05
-0.000691389
7.70436e-05
-0.000709599
7.24604e-05
-0.000726105
6.58189e-05
-0.000740147
5.60511e-05
-0.000751501
4.65313e-05
-0.000759492
3.35523e-05
-0.00076461
1.90163e-05
-0.000765403
4.24403e-08
-0.000761117
-1.93661e-05
-0.000752322
-3.63973e-05
-0.000738997
-5.37347e-05
-0.000721047
-7.11717e-05
-0.000699595
-8.3596e-05
-0.000676858
-8.83796e-05
-0.000654816
-8.58412e-05
-0.000635434
-7.51146e-05
-0.000619507
-6.03568e-05
-0.000606696
-4.66724e-05
-0.000595881
-3.83538e-05
-0.000585343
-3.94131e-05
-0.000572472
-5.20668e-05
-0.00055484
-7.3985e-05
-0.000530543
-0.000100951
-0.000500542
-0.000123531
-0.00046697
-0.000136502
-0.000433579
-0.000135021
-0.000403815
-0.000119845
-0.000380051
-9.57807e-05
-0.00036238
-7.06775e-05
-0.000351686
-4.36609e-05
-0.000346595
-2.34773e-05
-0.000343752
-1.44281e-05
-0.000339476
-1.91211e-05
-0.00033083
-3.55388e-05
-0.000318612
-4.89087e-05
-0.000306735
-4.8639e-05
-0.000298824
-3.18673e-05
-0.000298111
-6.44621e-06
-0.000306568
2.45919e-05
-0.000322445
4.67497e-05
-0.000339809
4.00425e-05
-0.000348566
-3.38489e-06
-0.000337741
-0.000101098
-0.000297416
-0.000229343
-0.000226398
-0.000329661
-0.000133829
-0.000375351
-4.38553e-05
-0.000334188
1.68195e-05
-0.000190267
3.06034e-05
4.46439e-06
2.26134e-05
6.21824e-05
1.28109e-05
5.7351e-05
5.90304e-06
4.1175e-05
6.77771e-06
1.53619e-05
1.82855e-05
-2.29882e-05
4.45741e-05
-8.90273e-05
8.65591e-05
-0.000165565
0.00013964
-0.000219649
0.000194875
-0.000259769
0.000249906
-0.000277388
0.000305792
-0.000329957
0.000380942
-0.000373778
0.000471882
-0.000376429
0.000532844
-0.000236832
0.000514175
0.000226503
0.000466394
0.000413526
-1.77417e-05
-3.92314e-05
-9.68112e-06
-4.02084e-05
-1.39084e-06
-4.13647e-05
6.97917e-06
-4.17479e-05
1.53686e-05
-4.18764e-05
2.37242e-05
-4.1698e-05
3.20663e-05
-4.16338e-05
4.03188e-05
-4.11836e-05
4.84832e-05
-4.07491e-05
5.64654e-05
-3.98509e-05
6.42729e-05
-3.89951e-05
7.18475e-05
-3.78551e-05
7.92066e-05
-3.68068e-05
8.63429e-05
-3.57273e-05
9.32939e-05
-3.48392e-05
0.000100099
-3.41484e-05
0.000106851
-3.39252e-05
0.000113624
-3.40594e-05
0.000120572
-3.497e-05
0.000127787
-3.63218e-05
0.000135481
-3.87258e-05
0.000143728
-4.1482e-05
0.000152786
-4.55223e-05
0.000162656
-4.95335e-05
0.000173634
-5.50298e-05
0.00018557
-5.97509e-05
0.000198809
-6.61981e-05
0.000212982
-7.07909e-05
0.000228503
-7.7435e-05
0.000244724
-8.08603e-05
0.000262134
-8.66972e-05
0.000279805
-8.79453e-05
0.000298264
-9.17863e-05
0.000316432
-9.03242e-05
0.000333991
-8.73039e-05
0.00035132
-8.61457e-05
0.000367587
-8.08995e-05
0.000382916
-7.62612e-05
0.00039682
-6.92249e-05
0.00040925
-6.19363e-05
0.000420048
-5.38714e-05
0.000429107
-4.52708e-05
0.000436479
-3.69323e-05
0.000442097
-2.82769e-05
0.00044608
-2.02706e-05
0.000448421
-1.23742e-05
0.000449282
-4.98505e-06
0.000448416
4.41572e-06
0.000445577
1.50477e-05
0.000440907
2.39382e-05
0.000434251
3.34e-05
0.000425566
4.34665e-05
0.000415321
5.12421e-05
0.00040293
6.19467e-05
0.000389111
6.90498e-05
0.000373057
8.01767e-05
0.000355747
8.63664e-05
0.000336311
9.69169e-05
0.000315918
0.000101584
0.000293853
0.000109901
0.000271302
0.000112247
0.000247805
0.000117015
0.000224399
0.000116569
0.000200794
0.000117649
0.000177745
0.000114898
0.000155096
0.000112958
0.000133355
0.000108455
0.000112533
0.00010393
9.2928e-05
9.79261e-05
7.46081e-05
9.15912e-05
5.77023e-05
8.46055e-05
4.22767e-05
7.72478e-05
2.8192e-05
7.05913e-05
1.52349e-05
6.49411e-05
3.46039e-06
5.88731e-05
-7.61047e-06
5.52575e-05
-1.7803e-05
5.08996e-05
-2.7086e-05
4.63731e-05
-3.52994e-05
4.10599e-05
-4.24885e-05
3.59976e-05
-4.85745e-05
3.0542e-05
-5.3759e-05
2.60253e-05
-5.80755e-05
2.16015e-05
-6.17115e-05
1.80343e-05
-6.47463e-05
1.47477e-05
-6.7043e-05
1.0801e-05
-6.885e-05
7.9084e-06
-6.92934e-05
9.54597e-07
-6.87524e-05
-4.31157e-06
-6.68982e-05
-1.09455e-05
-6.2538e-05
-2.33614e-05
-5.62878e-05
-3.25914e-05
-4.63618e-05
-5.04079e-05
-3.4602e-05
-5.92729e-05
-1.90038e-05
-7.79689e-05
-2.27616e-06
-8.15097e-05
1.59823e-05
-9.12151e-05
3.46833e-05
-9.16458e-05
5.43686e-05
-9.63584e-05
7.20906e-05
-8.63058e-05
8.82457e-05
-7.85666e-05
0.000100622
-5.93284e-05
0.000108907
-3.93077e-05
0.000111763
-1.23159e-05
0.000108409
1.83457e-05
9.77595e-05
5.5055e-05
8.0019e-05
8.98676e-05
5.49514e-05
0.000124947
2.34765e-05
0.000155599
-1.33087e-05
0.000182294
-5.38779e-05
0.000202112
-9.75796e-05
0.000218829
-0.00014492
0.000236464
-0.00019598
0.000253027
-0.000249388
0.000261542
-0.00030105
0.000251922
-0.000347752
0.000230009
-0.000387501
0.000199187
-0.000421672
0.000175133
-0.0004527
0.000156558
-0.000481319
0.000144912
-0.000507376
0.000129697
-0.000529955
0.00011213
-0.000549051
9.23777e-05
-0.000563213
6.36901e-05
-0.000567208
2.10276e-05
-0.000560824
-2.78468e-05
-0.000546826
-6.58598e-05
-0.000530646
-7.47024e-05
-0.000516577
-6.72255e-05
-0.00050214
-7.16978e-05
-0.000489606
-6.23845e-05
-0.000480358
-4.78245e-05
-0.000470543
-4.9364e-05
-0.000462298
-4.02711e-05
-0.00045652
-2.96206e-05
-0.000451267
-2.65134e-05
-0.000447211
-2.16067e-05
-0.000443005
-2.23695e-05
-0.000438323
-2.19377e-05
-0.000434029
-2.12272e-05
-0.00043006
-1.81045e-05
-0.000427247
-1.05566e-05
-0.000427624
9.80383e-07
-0.000430526
1.40136e-05
-0.000435756
2.57977e-05
-0.000443277
3.67987e-05
-0.000452974
4.89566e-05
-0.000466208
6.67429e-05
-0.000482125
7.68756e-05
-0.000498425
8.08036e-05
-0.000515072
8.28388e-05
-0.000532079
8.59263e-05
-0.000550595
9.28488e-05
-0.000570045
9.74062e-05
-0.000590265
0.00010046
-0.000610859
0.000101896
-0.000631448
0.000102606
-0.000651978
0.000101861
-0.000672144
0.000101069
-0.000691649
9.65491e-05
-0.000709968
9.07781e-05
-0.000726598
8.24495e-05
-0.000740756
7.02088e-05
-0.000752191
5.79666e-05
-0.000760198
4.156e-05
-0.000765165
2.39831e-05
-0.00076602
8.9799e-07
-0.000762049
-2.33373e-05
-0.000753554
-4.48892e-05
-0.000740516
-6.67716e-05
-0.000722665
-8.90228e-05
-0.000700793
-0.000105475
-0.000677518
-0.000111658
-0.000655096
-0.000108264
-0.000635499
-9.47109e-05
-0.000619366
-7.64891e-05
-0.000606485
-5.95488e-05
-0.000595664
-4.91688e-05
-0.000585285
-4.97925e-05
-0.000572826
-6.45259e-05
-0.000555537
-9.12737e-05
-0.000531417
-0.000125076
-0.000501497
-0.000153452
-0.000468063
-0.000169935
-0.00043486
-0.000168223
-0.000405111
-0.000149596
-0.000381184
-0.00011971
-0.000363507
-8.83546e-05
-0.000353027
-5.41413e-05
-0.000348642
-2.78598e-05
-0.000346467
-1.66019e-05
-0.000342498
-2.30907e-05
-0.00033434
-4.36999e-05
-0.000322639
-6.06102e-05
-0.000311234
-6.0045e-05
-0.00030406
-3.90402e-05
-0.000305005
-5.49056e-06
-0.000316636
3.62576e-05
-0.000337406
6.75633e-05
-0.000363024
6.56799e-05
-0.000386497
2.00284e-05
-0.000394474
-9.32415e-05
-0.000366188
-0.000257635
-0.000295621
-0.000400227
-0.000200614
-0.000470359
-0.000107223
-0.00042758
-3.96026e-05
-0.000257888
-1.27286e-05
-2.24086e-05
-1.15365e-05
6.09983e-05
-1.62223e-05
6.20386e-05
-1.78959e-05
4.28484e-05
-1.21778e-05
9.64382e-06
3.52867e-06
-3.86947e-05
3.14208e-05
-0.000116919
7.18041e-05
-0.000205948
0.000116846
-0.000264687
0.000152761
-0.00029568
0.000187532
-0.00031216
0.000239028
-0.000381453
0.000317683
-0.000452433
0.000411345
-0.000470095
0.000456964
-0.000282451
0.000438452
0.000245015
0.000554702
0.000350144
-1.78095e-05
-4.71123e-05
-9.73306e-06
-4.82848e-05
-1.42831e-06
-4.96694e-05
6.95863e-06
-5.01348e-05
1.53596e-05
-5.02773e-05
2.37285e-05
-5.00669e-05
3.20837e-05
-4.99889e-05
4.03494e-05
-4.94494e-05
4.8526e-05
-4.89256e-05
5.65183e-05
-4.78433e-05
6.43331e-05
-4.68099e-05
7.19109e-05
-4.54329e-05
7.92681e-05
-4.4164e-05
8.63968e-05
-4.28561e-05
9.3334e-05
-4.17764e-05
0.000100119
-4.0933e-05
0.000106844
-4.06505e-05
0.000113583
-4.07988e-05
0.000120493
-4.18799e-05
0.000127667
-4.34955e-05
0.000135317
-4.63761e-05
0.000143522
-4.96873e-05
0.000152542
-5.45423e-05
0.000162381
-5.93718e-05
0.000173336
-6.59852e-05
0.000185259
-7.16739e-05
0.000198497
-7.94365e-05
0.000212683
-8.49762e-05
0.000228232
-9.29846e-05
0.000244494
-9.71224e-05
0.000261964
-0.000104167
0.000279703
-0.000105684
0.000298246
-0.00011033
0.000316501
-0.000108579
0.000334143
-0.000104946
0.000351556
-0.000103558
0.000367896
-9.72401e-05
0.000383289
-9.16542e-05
0.000397244
-8.31796e-05
0.00040971
-7.4402e-05
0.00042053
-6.46915e-05
0.000429598
-5.43393e-05
0.000436969
-4.43033e-05
0.00044258
-3.38879e-05
0.000446553
-2.42436e-05
0.000448895
-1.47159e-05