/*--------------------------------*- C++ -*----------------------------------*\
| =========                 |                                                 |
| \\      /  F ield         | OpenFOAM: The Open Source CFD Toolbox           |
|  \\    /   O peration     | Version:  3.0.1                                 |
|   \\  /    A nd           | Web:      www.OpenFOAM.org                      |
|    \\/     M anipulation  |                                                 |
\*---------------------------------------------------------------------------*/
FoamFile
{
    version     2.0;
    format      ascii;
    class       surfaceScalarField;
    location    "60.2";
    object      alphaPhi;
}
// * * * * * * * * * * * * * * * * * * * * * * * * * * * * * * * * * * * * * //

dimensions      [0 3 -1 0 0 0 0];

internalField   nonuniform List<scalar> 
42423
(
-1.76044e-05
1.67429e-05
-3.34985e-05
1.58941e-05
-4.85837e-05
1.50851e-05
-6.27698e-05
1.41861e-05
-7.59444e-05
1.31746e-05
-8.81587e-05
1.22143e-05
-9.9354e-05
1.11952e-05
-0.00010959
1.02364e-05
-0.000118866
9.27614e-06
-0.000127188
8.32134e-06
-0.000134606
7.41813e-06
-0.00014115
6.54368e-06
-0.000146836
5.68652e-06
-0.000151713
4.87732e-06
-0.000155804
4.0902e-06
-0.000159147
3.34368e-06
-0.000161759
2.61152e-06
-0.000163654
1.89494e-06
-0.000164869
1.21525e-06
-0.000165412
5.43331e-07
-0.00016523
-1.82022e-07
-0.000164338
-8.92714e-07
-0.000162787
-1.55121e-06
-0.000160458
-2.32863e-06
-0.000157435
-3.02266e-06
-0.000153627
-3.80861e-06
-0.000149078
-4.54896e-06
-0.000143743
-5.3342e-06
-0.000137466
-6.2778e-06
-0.000130364
-7.10208e-06
-0.000122455
-7.90831e-06
-0.000113506
-8.94933e-06
-0.000103672
-9.83425e-06
-9.27636e-05
-1.09083e-05
-8.08524e-05
-1.19112e-05
-6.80861e-05
-1.27663e-05
-5.42065e-05
-1.38796e-05
-3.93938e-05
-1.48128e-05
-2.37481e-05
-1.56457e-05
-7.09564e-06
-1.66524e-05
1.02138e-05
-1.73095e-05
2.82701e-05
-1.80563e-05
4.69047e-05
-1.86347e-05
6.57413e-05
-1.88366e-05
8.47655e-05
-1.90242e-05
0.000103818
-1.90528e-05
0.000122472
-1.86537e-05
0.000140605
-1.81327e-05
0.000158025
-1.74201e-05
0.000174351
-1.63268e-05
0.00018945
-1.5099e-05
0.000203014
-1.35633e-05
0.000214863
-1.18492e-05
0.000224822
-9.95932e-06
0.000232672
-7.85005e-06
0.000238299
-5.62745e-06
0.000241647
-3.34749e-06
0.000242473
-8.26164e-07
0.000240887
1.58566e-06
0.000236836
4.05097e-06
0.000230518
6.31841e-06
0.000222031
8.48669e-06
0.000211405
1.06265e-05
0.000198863
1.25413e-05
0.000184636
1.4227e-05
0.000168935
1.57016e-05
0.000152008
1.69265e-05
0.000134069
1.79388e-05
0.000115467
1.86021e-05
9.64677e-05
1.89995e-05
7.71632e-05
1.93045e-05
5.79134e-05
1.92498e-05
3.87993e-05
1.9114e-05
2.01357e-05
1.86636e-05
2.00269e-06
1.8133e-05
-1.54936e-05
1.74962e-05
-3.21531e-05
1.66595e-05
-4.80486e-05
1.58954e-05
-6.29438e-05
1.48951e-05
-7.68206e-05
1.38768e-05
-8.96888e-05
1.28681e-05
-0.000101495
1.18064e-05
-0.000112195
1.06998e-05
-0.000121791
9.59543e-06
-0.000130244
8.45262e-06
-0.000137608
7.36394e-06
-0.000143836
6.2278e-06
-0.000148994
5.15793e-06
-0.00015314
4.14604e-06
-0.00015632
3.17925e-06
-0.000158643
2.32303e-06
-0.000160115
1.47156e-06
-0.000160875
7.60265e-07
-0.000160898
2.18955e-08
-0.000160279
-6.18787e-07
-0.000159021
-1.25787e-06
-0.000157157
-1.86451e-06
-0.000154664
-2.49298e-06
-0.000151685
-2.97935e-06
-0.000148063
-3.62186e-06
-0.000143814
-4.24917e-06
-0.000138873
-4.94112e-06
-0.000133317
-5.55605e-06
-0.000127108
-6.20949e-06
-0.000120218
-6.88963e-06
-0.000112576
-7.64268e-06
-0.000104172
-8.40365e-06
-9.49768e-05
-9.19516e-06
-8.49884e-05
-9.9885e-06
-7.41593e-05
-1.08291e-05
-6.24916e-05
-1.16677e-05
-5.00071e-05
-1.24846e-05
-3.67426e-05
-1.32645e-05
-2.27012e-05
-1.40415e-05
-7.9358e-06
-1.47655e-05
7.48104e-06
-1.54169e-05
2.34913e-05
-1.60103e-05
4.00154e-05
-1.65242e-05
5.68977e-05
-1.68823e-05
7.40127e-05
-1.71151e-05
9.12115e-05
-1.71989e-05
0.000108314
-1.71021e-05
0.000125115
-1.68017e-05
0.000141366
-1.62506e-05
0.000156866
-1.55001e-05
0.000171288
-1.44227e-05
0.00018443
-1.31421e-05
0.00019599
-1.15601e-05
0.000205776
-9.78602e-06
0.000213507
-7.73027e-06
0.000219048
-5.5419e-06
0.000222239
-3.19051e-06
0.000222929
-6.90433e-07
0.000221175
1.75452e-06
0.000216782
4.39256e-06
0.000209957
6.82464e-06
0.000200772
9.18553e-06
0.000189448
1.13234e-05
0.000176131
1.33176e-05
0.000161107
1.50234e-05
0.000144611
1.64965e-05
0.000126897
1.77134e-05
0.000108286
1.86115e-05
8.90422e-05
1.92436e-05
6.94448e-05
1.95973e-05
4.97707e-05
1.96741e-05
3.02879e-05
1.94828e-05
1.12075e-05
1.90803e-05
-7.2606e-06
1.84681e-05
-2.49132e-05
1.76525e-05
-4.16575e-05
1.67443e-05
-5.73813e-05
1.57238e-05
-7.20129e-05
1.46315e-05
-8.54942e-05
1.34813e-05
-9.79399e-05
1.24457e-05
-0.000109205
1.12651e-05
-0.000119387
1.01816e-05
-0.00012851
9.12296e-06
-0.000136623
8.11343e-06
-0.000143812
7.18907e-06
-0.000150084
6.27191e-06
-0.000155557
5.47281e-06
-0.000160222
4.66483e-06
-0.000164153
3.93171e-06
-0.00016735
3.1967e-06
-0.000169894
2.54409e-06
-0.000171765
1.87139e-06
-0.000172977
1.21118e-06
-0.000173712
7.35318e-07
-0.000173797
8.54408e-08
-0.000173299
-4.98617e-07
-0.000172231
-1.06771e-06
-0.000170564
-1.66658e-06
-0.000168305
-2.25891e-06
-0.000165428
-2.87725e-06
-0.000161957
-3.47145e-06
-0.000157873
-4.08365e-06
-0.000153166
-4.70671e-06
-0.000147824
-5.34227e-06
-0.000141801
-6.02283e-06
-0.000135063
-6.73802e-06
-0.000127553
-7.50992e-06
-0.000119249
-8.3045e-06
-0.000110077
-9.17218e-06
-0.000100234
-9.84303e-06
-8.95013e-05
-1.07323e-05
-7.80036e-05
-1.14978e-05
-6.57388e-05
-1.22648e-05
-5.26592e-05
-1.30797e-05
-3.87679e-05
-1.38913e-05
-2.41655e-05
-1.46024e-05
-8.81919e-06
-1.53464e-05
7.13052e-06
-1.59498e-05
2.36165e-05
-1.64861e-05
4.05022e-05
-1.68858e-05
5.75798e-05
-1.70776e-05
7.46832e-05
-1.71035e-05
9.16334e-05
-1.69503e-05
0.000108103
-1.64698e-05
0.000123889
-1.57857e-05
0.000138706
-1.4817e-05
0.000152324
-1.36184e-05
0.000164467
-1.21429e-05
0.00017487
-1.04034e-05
0.000183398
-8.52749e-06
0.000189755
-6.35732e-06
0.000193872
-4.11662e-06
0.000195606
-1.73454e-06
0.000194831
7.74665e-07
0.000191571
3.25987e-06
0.000185792
5.77918e-06
0.000177723
8.06957e-06
0.000167445
1.02778e-05
0.000155208
1.22364e-05
0.000141203
1.40054e-05
0.000125741
1.54622e-05
0.000109061
1.66801e-05
9.15193e-05
1.75412e-05
7.33473e-05
1.8172e-05
5.48274e-05
1.85199e-05
3.62432e-05
1.85842e-05
1.78303e-05
1.8413e-05
-1.88709e-07
1.8019e-05
-1.77069e-05
1.75182e-05
-3.44866e-05
1.67797e-05
-5.04701e-05
1.59835e-05
-6.55319e-05
1.50618e-05
-7.96169e-05
1.4085e-05
-9.27693e-05
1.31524e-05
-0.000104865
1.20962e-05
-0.000115965
1.10998e-05
-0.000126061
1.00953e-05
-0.000135162
9.10111e-06
-0.000143314
8.15281e-06
-0.000150561
7.24683e-06
-0.000157001
6.43983e-06
-0.000162614
5.61263e-06
-0.000167449
4.83492e-06
-0.000171576
4.12753e-06
-0.000175009
3.43323e-06
-0.000177821
2.81138e-06
-0.000179997
2.17599e-06
-0.000181566
1.5697e-06
-0.00018252
9.54034e-07
-0.00018299
4.69182e-07
-0.000182828
-1.61945e-07
-0.000182143
-6.84753e-07
-0.000180831
-1.31159e-06
-0.000179065
-1.76556e-06
-0.00017668
-2.38515e-06
-0.00017374
-2.9402e-06
-0.000170171
-3.56882e-06
-0.000166041
-4.13017e-06
-0.000161268
-4.77238e-06
-0.000155888
-5.38e-06
-0.000149821
-6.06754e-06
-0.000143131
-6.68958e-06
-0.000135741
-7.38958e-06
-0.000127665
-8.07645e-06
-0.000118858
-8.80684e-06
-0.000109298
-9.55924e-06
-9.90053e-05
-1.02931e-05
-8.79172e-05
-1.1088e-05
-7.60453e-05
-1.18719e-05
-6.34274e-05
-1.26178e-05
-5.01301e-05
-1.32973e-05
-3.60882e-05
-1.40419e-05
-2.14291e-05
-1.46592e-05
-6.4156e-06
-1.50135e-05
9.2096e-06
-1.56253e-05
2.5075e-05
-1.58655e-05
4.1114e-05
-1.6039e-05
5.72005e-05
-1.60866e-05
7.32442e-05
-1.60438e-05
8.89256e-05
-1.56814e-05
0.000104301
-1.53754e-05
0.000118936
-1.4635e-05
0.000132876
-1.39405e-05
0.000145816
-1.29396e-05
0.000157511
-1.1695e-05
0.000167843
-1.03326e-05
0.000176487
-8.64379e-06
0.000183165
-6.6778e-06
0.000187626
-4.46145e-06
0.000189717
-2.0913e-06
0.000189433
2.8453e-07
0.000186478
2.95489e-06
0.000180954
5.52358e-06
0.000172865
8.08924e-06
0.000162557
1.03076e-05
0.000150162
1.23955e-05
0.000136014
1.41482e-05
0.000120409
1.56042e-05
0.000103779
1.66305e-05
8.64624e-05
1.73163e-05
6.87545e-05
1.77079e-05
5.08763e-05
1.78782e-05
3.32813e-05
1.7595e-05
1.59272e-05
1.73541e-05
-7.16851e-07
1.6644e-05
-1.66982e-05
1.59814e-05
-3.18639e-05
1.51657e-05
-4.60994e-05
1.42355e-05
-5.9345e-05
1.32455e-05
-7.15989e-05
1.22539e-05
-8.28424e-05
1.12435e-05
-9.31001e-05
1.02577e-05
-0.000102435
9.33454e-06
-0.000110876
8.44174e-06
-0.000118498
7.62186e-06
-0.000125369
6.8705e-06
-0.000131561
6.19243e-06
-0.000137135
5.57383e-06
-0.000142141
5.00618e-06
-0.000146613
4.47161e-06
-0.000150597
3.98435e-06
-0.000154094
3.49695e-06
-0.000157117
3.02286e-06
-0.000159657
2.53959e-06
-0.00016168
2.02327e-06
-0.000163162
1.48245e-06
-0.000164063
9.00288e-07
-0.000164328
2.65611e-07
-0.000163857
-4.70775e-07
-0.000162576
-1.28183e-06
-0.000160473
-2.10298e-06
-0.000157506
-2.9669e-06
-0.000153557
-3.94877e-06
-0.000148653
-4.9037e-06
-0.000142778
-5.87574e-06
-0.000135825
-6.95257e-06
-0.000127872
-7.95258e-06
-0.000118975
-8.89688e-06
-0.000108976
-9.99928e-06
-9.80365e-05
-1.09398e-05
-8.60651e-05
-1.19714e-05
-7.32542e-05
-1.28108e-05
-5.96461e-05
-1.36082e-05
-4.52429e-05
-1.44032e-05
-3.01766e-05
-1.50663e-05
-1.46342e-05
-1.55424e-05
1.35746e-06
-1.59917e-05
1.76107e-05
-1.62532e-05
3.41013e-05
-1.64906e-05
5.05932e-05
-1.6492e-05
6.68536e-05
-1.62604e-05
8.28651e-05
-1.60115e-05
9.84475e-05
-1.55824e-05
0.000113351
-1.49032e-05
0.000127469
-1.41181e-05
0.000140572
-1.31031e-05
0.000152512
-1.19398e-05
0.000163133
-1.06212e-05
0.00017225
-9.11727e-06
0.000179749
-7.49922e-06
0.000185506
-5.75734e-06
-4.06221e-06
-1.76375e-05
3.34894e-05
-3.35341e-05
3.17907e-05
-4.8622e-05
3.0173e-05
-6.28103e-05
2.83744e-05
-7.59865e-05
2.63508e-05
-8.82035e-05
2.44313e-05
-9.94029e-05
2.23946e-05
-0.000109641
2.0475e-05
-0.000118916
1.85502e-05
-0.000127235
1.66406e-05
-0.000134652
1.48356e-05
-0.000141198
1.30893e-05
-0.000146888
1.13763e-05
-0.000151761
9.75046e-06
-0.000155851
8.17995e-06
-0.000159199
6.69167e-06
-0.000161813
5.22582e-06
-0.00016371
3.79217e-06
-0.000164926
2.43104e-06
-0.000165467
1.08408e-06
-0.000165282
-3.67166e-07
-0.000164382
-1.7921e-06
-0.000162831
-3.10263e-06
-0.000160504
-4.65581e-06
-0.000157483
-6.04304e-06
-0.000153677
-7.61492e-06
-0.000149127
-9.09875e-06
-0.000143795
-1.06662e-05
-0.00013752
-1.25533e-05
-0.000130416
-1.42056e-05
-0.000122508
-1.58165e-05
-0.00011356
-1.78977e-05
-0.000103727
-1.96669e-05
-9.28196e-05
-2.18158e-05
-8.09054e-05
-2.38254e-05
-6.81289e-05
-2.55428e-05
-5.42545e-05
-2.77541e-05
-3.944e-05
-2.96273e-05
-2.37895e-05
-3.12963e-05
-7.14102e-06
-3.33009e-05
1.01799e-05
-3.46305e-05
2.82445e-05
-3.61209e-05
4.68867e-05
-3.72769e-05
6.57372e-05
-3.76873e-05
8.47738e-05
-3.80608e-05
0.000103831
-3.81104e-05
0.000122497
-3.73194e-05
0.000140646
-3.62814e-05
0.000158078
-3.48529e-05
0.000174416
-3.26648e-05
0.000189529
-3.02121e-05
0.000203098
-2.71316e-05
0.000214959
-2.37105e-05
0.00022493
-1.99309e-05
0.000232782
-1.57014e-05
0.000238417
-1.12633e-05
0.000241771
-6.70076e-06
0.0002426
-1.65549e-06
0.000241003
3.18302e-06
0.000236953
8.10074e-06
0.000230635
1.26357e-05
0.000222147
1.69752e-05
0.000211513
2.12605e-05
0.000198962
2.50922e-05
0.000184723
2.84657e-05
0.000169009
3.14153e-05
0.000152062
3.38738e-05
0.000134114
3.58868e-05
0.00011551
3.72059e-05
9.64909e-05
3.80188e-05
7.7171e-05
3.86244e-05
5.79131e-05
3.85077e-05
3.87836e-05
3.82435e-05
2.01149e-05
3.73323e-05
1.96643e-06
3.62814e-05
-1.55423e-05
3.5005e-05
-3.22131e-05
3.33302e-05
-4.81084e-05
3.17907e-05
-6.30074e-05
2.97941e-05
-7.68864e-05
2.77557e-05
-8.97564e-05
2.57381e-05
-0.000101565
2.36152e-05
-0.00011226
2.13942e-05
-0.000121854
1.91899e-05
-0.000130305
1.69032e-05
-0.000137669
1.47278e-05
-0.000143891
1.24489e-05
-0.000149048
1.03147e-05
-0.000153196
8.29372e-06
-0.000156368
6.35108e-06
-0.000158686
4.64145e-06
-0.000160157
2.94153e-06
-0.00016092
1.52305e-06
-0.000160948
4.98436e-08
-0.000160335
-1.23176e-06
-0.000159083
-2.51036e-06
-0.000157224
-3.72317e-06
-0.000154737
-4.98076e-06
-0.000151757
-5.95979e-06
-0.000148127
-7.25125e-06
-0.000143886
-8.491e-06
-0.000138944
-9.88254e-06
-0.000133399
-1.11017e-05
-0.000127213
-1.23957e-05
-0.000120301
-1.38013e-05
-0.000112661
-1.52833e-05
-0.000104255
-1.68088e-05
-9.50572e-05
-1.83935e-05
-8.50555e-05
-1.99903e-05
-7.42153e-05
-2.16694e-05
-6.2561e-05
-2.33221e-05
-5.00776e-05
-2.49681e-05
-3.68072e-05
-2.65351e-05
-2.27672e-05
-2.80815e-05
-7.99328e-06
-2.95394e-05
7.4366e-06
-3.08469e-05
2.34506e-05
-3.20244e-05
3.99781e-05
-3.30518e-05
5.68699e-05
-3.37742e-05
7.39933e-05
-3.42386e-05
9.1195e-05
-3.44007e-05
0.000108302
-3.4209e-05
0.000125109
-3.36092e-05
0.000141365
-3.25067e-05
0.000156875
-3.101e-05
0.000171308
-2.88559e-05
0.00018446
-2.62944e-05
0.000196021
-2.31208e-05
0.00020581
-1.95749e-05
0.000213546
-1.54671e-05
0.000219082
-1.10777e-05
0.000222278
-6.3866e-06
0.000222959
-1.37139e-06
0.000221184
3.52958e-06
0.000216786
8.79012e-06
0.000209952
1.36592e-05
0.000200761
1.83765e-05
0.000189419
2.26648e-05
0.000176091
2.6646e-05
0.000161095
3.00195e-05
0.000144551
3.30401e-05
0.000126824
3.54406e-05
0.000108181
3.72546e-05
8.89309e-05
3.84937e-05
6.93279e-05
3.92003e-05
4.96598e-05
3.93422e-05
3.01469e-05
3.89957e-05
1.10551e-05
3.81721e-05
-7.40256e-06
3.69259e-05
-2.50839e-05
3.53339e-05
-4.18291e-05
3.34896e-05
-5.75578e-05
3.14526e-05
-7.21834e-05
2.92571e-05
-8.56736e-05
2.69716e-05
-9.81002e-05
2.48723e-05
-0.000109354
2.25193e-05
-0.000119533
2.03607e-05
-0.000128653
1.82429e-05
-0.000136769
1.62295e-05
-0.000143947
1.43671e-05
-0.000150222
1.25464e-05
-0.000155688
1.09393e-05
-0.000160355
9.33146e-06
-0.000164268
7.84468e-06
-0.000167476
6.40509e-06
-0.000170018
5.0863e-06
-0.000171885
3.73838e-06
-0.000173121
2.4466e-06
-0.000173829
1.44333e-06
-0.000173917
1.7372e-07
-0.00017338
-1.03581e-06
-0.000172328
-2.11919e-06
-0.000170662
-3.33258e-06
-0.000168402
-4.51951e-06
-0.000165533
-5.74582e-06
-0.000162059
-6.94581e-06
-0.000157967
-8.17518e-06
-0.000153253
-9.42124e-06
-0.000147912
-1.06832e-05
-0.000141886
-1.20488e-05
-0.000135156
-1.34682e-05
-0.000127646
-1.50199e-05
-0.000119345
-1.66049e-05
-0.000110183
-1.83349e-05
-0.000100311
-1.97148e-05
-8.95829e-05
-2.14603e-05
-7.80881e-05
-2.29927e-05
-6.58063e-05
-2.45466e-05
-5.27265e-05
-2.61595e-05
-3.88443e-05
-2.77736e-05
-2.42441e-05
-2.92027e-05
-8.89804e-06
-3.06925e-05
7.06152e-06
-3.19094e-05
2.35695e-05
-3.29942e-05
4.04606e-05
-3.3777e-05
5.7553e-05
-3.41701e-05
7.46568e-05
-3.42074e-05
9.16166e-05
-3.39101e-05
0.00010809
-3.29431e-05
0.000123883
-3.15789e-05
0.000138697
-2.96309e-05
0.000152324
-2.72452e-05
0.00016448
-2.42995e-05
0.000174887
-2.081e-05
0.000183403
-1.70439e-05
0.00018978
-1.2735e-05
0.000193896
-8.23183e-06
0.000195614
-3.45278e-06
0.000194842
1.54622e-06
0.000191562
6.53963e-06
0.000185781
1.1561e-05
0.000177701
1.61491e-05
0.000167412
2.05666e-05
0.000155164
2.44846e-05
0.000141148
2.80216e-05
0.00012567
3.09395e-05
0.00010898
3.33706e-05
9.14368e-05
3.50842e-05
7.3239e-05
3.63698e-05
5.47106e-05
3.70483e-05
3.61126e-05
3.71821e-05
1.76956e-05
3.683e-05
-3.39725e-07
3.60543e-05
-1.78537e-05
3.50322e-05
-3.46462e-05
3.35722e-05
-5.06316e-05
3.19689e-05
-6.56918e-05
3.0122e-05
-7.97686e-05
2.81618e-05
-9.29189e-05
2.63028e-05
-0.000105015
2.4192e-05
-0.000116108
2.21931e-05
-0.000126203
2.01904e-05
-0.000135296
1.81941e-05
-0.000143443
1.62996e-05
-0.000150696
1.44999e-05
-0.000157135
1.28788e-05
-0.000162733
1.1211e-05
-0.000167561
9.66292e-06
-0.000171692
8.25837e-06
-0.00017513
6.87171e-06
-0.00017793
5.61123e-06
-0.000180104
4.34982e-06
-0.000181678
3.14393e-06
-0.000182618
1.8939e-06
-0.000183099
9.50515e-07
-0.000182933
-3.281e-07
-0.000182242
-1.37547e-06
-0.000180957
-2.59714e-06
-0.000179169
-3.55352e-06
-0.000176781
-4.77284e-06
-0.000173833
-5.88817e-06
-0.000170253
-7.14849e-06
-0.000166144
-8.23959e-06
-0.000161367
-9.54902e-06
-0.00015599
-1.07572e-05
-0.000149928
-1.2129e-05
-0.000143242
-1.33754e-05
-0.000135845
-1.47868e-05
-0.000127769
-1.61524e-05
-0.000118969
-1.76069e-05
-0.000109407
-1.91212e-05
-9.91058e-05
-2.05941e-05
-8.80145e-05
-2.21792e-05
-7.61407e-05
-2.37457e-05
-6.35046e-05
-2.52539e-05
-5.02038e-05
-2.65981e-05
-3.61603e-05
-2.80854e-05
-2.14826e-05
-2.93368e-05
-6.45353e-06
-3.00427e-05
9.18179e-06
-3.12606e-05
2.50515e-05
-3.17353e-05
4.11062e-05
-3.20938e-05
5.72023e-05
-3.21828e-05
7.32581e-05
-3.20997e-05
8.89447e-05
-3.13681e-05
0.000104333
-3.07638e-05
0.000118974
-2.92757e-05
0.000132928
-2.78947e-05
0.000145873
-2.58848e-05
0.000157581
-2.34032e-05
0.000167924
-2.0676e-05
0.00017658
-1.72997e-05
0.000183271
-1.3369e-05
0.000187741
-8.93145e-06
0.000189844
-4.19425e-06
0.000189559
5.69453e-07
0.000186601
5.91249e-06
0.00018108
1.10442e-05
0.000172984
1.61859e-05
0.000162664
2.06274e-05
0.000150255
2.48045e-05
0.000136092
2.83108e-05
0.000120473
3.12234e-05
0.00010383
3.32737e-05
8.64963e-05
3.46496e-05
6.87727e-05
3.54315e-05
5.08868e-05
3.5764e-05
3.32738e-05
3.52079e-05
1.59172e-05
3.47107e-05
-7.3727e-07
3.32985e-05
-1.67272e-05
3.19713e-05
-3.18987e-05
3.03371e-05
-4.61382e-05
2.8475e-05
-5.93872e-05
2.64945e-05
-7.16438e-05
2.45104e-05
-8.28885e-05
2.24883e-05
-9.31463e-05
2.05154e-05
-0.00010248
1.86682e-05
-0.000110919
1.68805e-05
-0.00011854
1.52429e-05
-0.000125409
1.374e-05
-0.000131601
1.23842e-05
-0.000137172
1.11449e-05
-0.000142178
1.00119e-05
-0.000146652
8.94513e-06
-0.000150638
7.97084e-06
-0.000154135
6.99349e-06
-0.000157158
6.04588e-06
-0.0001597
5.08185e-06
-0.000161724
4.04721e-06
-0.00016321
2.96862e-06
-0.000164116
1.80657e-06
-0.00016438
5.2936e-07
-0.000163908
-9.42583e-07
-0.000162633
-2.55708e-06
-0.000160527
-4.20934e-06
-0.000157561
-5.93237e-06
-0.000153614
-7.89624e-06
-0.000148711
-9.80604e-06
-0.000142836
-1.17507e-05
-0.000135884
-1.39055e-05
-0.000127928
-1.59082e-05
-0.000119027
-1.77983e-05
-0.000109025
-2.0001e-05
-9.80864e-05
-2.18783e-05
-8.61092e-05
-2.39487e-05
-7.33e-05
-2.56201e-05
-5.96856e-05
-2.72226e-05
-4.52757e-05
-2.8813e-05
-3.01978e-05
-3.01442e-05
-1.46533e-05
-3.10869e-05
1.3441e-06
-3.19892e-05
1.75997e-05
-3.25088e-05
3.40971e-05
-3.29881e-05
5.05971e-05
-3.2992e-05
6.68648e-05
-3.25281e-05
8.28838e-05
-3.20307e-05
9.8473e-05
-3.11717e-05
0.000113383
-2.98127e-05
0.000127504
-2.82399e-05
0.000140607
-2.62056e-05
0.000152552
-2.38849e-05
0.000163184
-2.12538e-05
0.000172309
-1.82418e-05
0.000179814
-1.50043e-05
0.000185579
-1.15227e-05
-8.12412e-06
-1.77043e-05
5.02434e-05
-3.36064e-05
4.76928e-05
-4.86986e-05
4.52651e-05
-6.28907e-05
4.25666e-05
-7.60696e-05
3.95298e-05
-8.82874e-05
3.66491e-05
-9.94867e-05
3.35939e-05
-0.000109725
3.07137e-05
-0.000118999
2.78241e-05
-0.00012732
2.49608e-05
-0.000134739
2.22549e-05
-0.000141283
1.96333e-05
-0.000146968
1.70613e-05
-0.00015184
1.46225e-05
-0.000155932
1.22718e-05
-0.000159277
1.00373e-05
-0.000161893
7.84156e-06
-0.000163795
5.69368e-06
-0.000165008
3.64441e-06
-0.000165528
1.60376e-06
-0.000165334
-5.61084e-07
-0.000164435
-2.69108e-06
-0.000162885
-4.6526e-06
-0.00016056
-6.98032e-06
-0.000157543
-9.06013e-06
-0.000153744
-1.14141e-05
-0.000149193
-1.365e-05
-0.000143866
-1.59931e-05
-0.000137595
-1.88242e-05
-0.000130489
-2.1312e-05
-0.000122581
-2.3724e-05
-0.000113633
-2.68457e-05
-0.000103803
-2.94969e-05
-9.28934e-05
-3.27258e-05
-8.09795e-05
-3.57394e-05
-6.82005e-05
-3.83218e-05
-5.43245e-05
-4.16302e-05
-3.9517e-05
-4.44349e-05
-2.38563e-05
-4.69571e-05
-7.22449e-06
-4.99328e-05
1.01301e-05
-5.19851e-05
2.82099e-05
-5.42008e-05
4.68651e-05
-5.59322e-05
6.57252e-05
-5.65475e-05
8.47784e-05
-5.71141e-05
0.000103854
-5.71863e-05
0.000122536
-5.60015e-05
0.000140706
-5.44517e-05
0.000158162
-5.23082e-05
0.000174511
-4.90143e-05
0.000189645
-4.53456e-05
0.000203229
-4.07166e-05
0.000215106
-3.55872e-05
0.000225098
-2.99228e-05
0.000232949
-2.35522e-05
0.000238592
-1.6907e-05
0.000241961
-1.00697e-05
0.00024279
-2.48406e-06
0.000241171
4.80179e-06
0.000237123
1.21487e-05
0.000230804
1.89548e-05
0.000222312
2.5467e-05
0.000211663
3.19089e-05
0.000199096
3.76595e-05
0.000184839
4.27221e-05
0.0001691
4.71544e-05
0.000152121
5.0853e-05
0.000134162
5.38455e-05
0.000115565
5.58031e-05
9.65114e-05
5.70724e-05
7.7166e-05
5.79698e-05
5.78968e-05
5.77769e-05
3.87468e-05
5.73934e-05
2.00721e-05
5.60071e-05
1.90901e-06
5.44445e-05
-1.56077e-05
5.25217e-05
-3.22946e-05
5.00171e-05
-4.81969e-05
4.7693e-05
-6.3103e-05
4.47002e-05
-7.6981e-05
4.16337e-05
-8.98516e-05
3.86085e-05
-0.000101669
3.54326e-05
-0.000112361
3.20856e-05
-0.000121955
2.87841e-05
-0.000130401
2.53494e-05
-0.000137774
2.21001e-05
-0.000143998
1.86721e-05
-0.00014915
1.54673e-05
-0.0001533
1.24431e-05
-0.00015647
9.52044e-06
-0.00015879
6.96189e-06
-0.000160266
4.41688e-06
-0.000161032
2.28864e-06
-0.000161076
9.38357e-08
-0.000160462
-1.84601e-06
-0.000159221
-3.75135e-06
-0.000157374
-5.57073e-06
-0.000154888
-7.46655e-06
-0.000151917
-8.93095e-06
-0.000148294
-1.08747e-05
-0.000144061
-1.27236e-05
-0.000139127
-1.48169e-05
-0.000133618
-1.66113e-05
-0.000127437
-1.8576e-05
-0.000120519
-2.07199e-05
-0.000112857
-2.29448e-05
-0.000104446
-2.52202e-05
-9.52492e-05
-2.75903e-05
-8.525e-05
-2.99896e-05
-7.44233e-05
-3.24961e-05
-6.27622e-05
-3.49833e-05
-5.02825e-05
-3.74478e-05
-3.69842e-05
-3.98334e-05
-2.29526e-05
-4.21131e-05
-8.17371e-06
-4.43184e-05
7.26551e-06
-4.62862e-05
2.32955e-05
-4.80544e-05
3.98274e-05
-4.95838e-05
5.67349e-05
-5.06819e-05
7.38956e-05
-5.13994e-05
9.1107e-05
-5.16123e-05
0.000108241
-5.13432e-05
0.000125054
-5.04221e-05
0.000141318
-4.87707e-05
0.000156847
-4.6539e-05
0.000171291
-4.32999e-05
0.000184469
-3.94726e-05
0.000196069
-3.47207e-05
0.000205868
-2.93742e-05
0.000213627
-2.32259e-05
0.000219165
-1.66159e-05
0.000222344
-9.56609e-06
0.000223039
-2.06638e-06
0.000221232
5.33684e-06
0.000216839
1.31831e-05
0.000209996
2.05014e-05
0.000200793
2.758e-05
0.000189426
3.40319e-05
0.000176081
3.99908e-05
0.000161029
4.50716e-05
0.000144482
4.95867e-05
0.000126767
5.31553e-05
0.000108079
5.59426e-05
8.88128e-05
5.77602e-05
6.92167e-05
5.87964e-05
4.95192e-05
5.90396e-05
2.99657e-05
5.85492e-05
1.08464e-05
5.72914e-05
-7.59011e-06
5.53624e-05
-2.53204e-05
5.30641e-05
-4.20709e-05
5.02402e-05
-5.7811e-05
4.71927e-05
-7.24354e-05
4.38815e-05
-8.59577e-05
4.0494e-05
-9.83319e-05
3.72465e-05
-0.000109595
3.37819e-05
-0.000119765
3.05307e-05
-0.000128877
2.73553e-05
-0.000136992
2.43441e-05
-0.000144167
2.15429e-05
-0.000150446
1.88253e-05
-0.000155896
1.6389e-05
-0.000160566
1.40018e-05
-0.000164488
1.1766e-05
-0.000167696
9.61348e-06
-0.000170226
7.61588e-06
-0.00017209
5.60299e-06
-0.000173364
3.72061e-06
-0.000174037
2.11607e-06
-0.000174123
2.60188e-07
-0.000173578
-1.58148e-06
-0.000172536
-3.1611e-06
-0.00017087
-4.99822e-06
-0.000168601
-6.78897e-06
-0.000165744
-8.60239e-06
-0.000162267
-1.04226e-05
-0.000158172
-1.22702e-05
-0.000153436
-1.41572e-05
-0.000148125
-1.59942e-05
-0.000142101
-1.80729e-05
-0.00013538
-2.01889e-05
-0.000127872
-2.25278e-05
-0.000119575
-2.49026e-05
-0.000110438
-2.74718e-05
-0.000100525
-2.96279e-05
-8.9798e-05
-3.2187e-05
-7.8292e-05
-3.44988e-05
-6.59485e-05
-3.68901e-05
-5.29331e-05
-3.9175e-05
-3.90513e-05
-4.16555e-05
-2.44401e-05
-4.38139e-05
-9.08208e-06
-4.60506e-05
6.89373e-06
-4.78853e-05
2.34123e-05
-4.95128e-05
4.03252e-05
-5.06899e-05
5.74386e-05
-5.12837e-05
7.45514e-05
-5.13203e-05
9.15092e-05
-5.08679e-05
0.000108016
-4.94496e-05
0.000123861
-4.74248e-05
0.000138682
-4.44514e-05
0.000152323
-4.08869e-05
0.000164495
-3.64715e-05
0.000174923
-3.12373e-05
0.000183448
-2.55693e-05
0.00018984
-1.91276e-05
0.000193961
-1.23522e-05
0.000195681
-5.1726e-06
0.000194895
2.33162e-06
0.000191605
9.82945e-06
0.000185821
1.73449e-05
0.000177734
2.4236e-05
0.000167431
3.08699e-05
0.000155156
3.67599e-05
0.000141123
4.20547e-05
0.000125618
4.64443e-05
0.000108907
5.00818e-05
9.1326e-05
5.26649e-05
7.30919e-05
5.46039e-05
5.45633e-05
5.5577e-05
3.59542e-05
5.57912e-05
1.7519e-05
5.52652e-05
-5.42143e-07
5.41154e-05
-1.80579e-05
5.25479e-05
-3.48624e-05
5.03768e-05
-5.08469e-05
4.79533e-05
-6.59059e-05
4.51811e-05
-8.00256e-05
4.22815e-05
-9.31416e-05
3.94188e-05
-0.00010524
3.629e-05
-0.00011632
3.32731e-05
-0.000126419
3.02896e-05
-0.00013552
2.72957e-05
-0.000143674
2.44529e-05
-0.00015091
2.17358e-05
-0.000157341
1.93102e-05
-0.000162939
1.68092e-05
-0.000167778
1.4502e-05
-0.000171901
1.23815e-05
-0.000175345
1.03156e-05
-0.000178118
8.38394e-06
-0.000180314
6.54547e-06
-0.000181888
4.71801e-06
-0.000182818
2.82468e-06
-0.000183297
1.4291e-06
-0.00018314
-4.8494e-07
-0.000182444
-2.07123e-06
-0.000181188
-3.85321e-06
-0.000179365
-5.37667e-06
-0.000176989
-7.14851e-06
-0.000174041
-8.83618e-06
-0.000170464
-1.07252e-05
-0.00016635
-1.2354e-05
-0.000161581
-1.43183e-05
-0.000156206
-1.61313e-05
-0.000150141
-1.81938e-05
-0.000143451
-2.00654e-05
-0.000136053
-2.21853e-05
-0.000127974
-2.42307e-05
-0.000119167
-2.64137e-05
-0.000109598
-2.86903e-05
-9.92925e-05
-3.08997e-05
-8.81983e-05
-3.32733e-05
-7.63218e-05
-3.56221e-05
-6.36575e-05
-3.79182e-05
-5.03449e-05
-3.99106e-05
-3.62899e-05
-4.21404e-05
-2.15779e-05
-4.40489e-05
-6.53366e-06
-4.5087e-05
9.12017e-06
-4.69145e-05
2.49995e-05
-4.76147e-05
4.10705e-05
-4.81649e-05
5.71802e-05
-4.82925e-05
7.32592e-05
-4.81788e-05
8.89561e-05
-4.70651e-05
0.000104343
-4.61504e-05
0.000119013
-4.39467e-05
0.000132994
-4.18755e-05
0.000145945
-3.88353e-05
0.00015767
-3.51284e-05
0.000168035
-3.1041e-05
0.000176708
-2.59735e-05
0.000183414
-2.00744e-05
0.000187904
-1.34219e-05
0.000190033
-6.32305e-06
0.00018975
8.52584e-07
0.000186787
8.87506e-06
0.000181274
1.65566e-05
0.000173167
2.42927e-05
0.000162824
3.09713e-05
0.000150389
3.72391e-05
0.000136196
4.25033e-05
0.000120556
4.68643e-05
0.000103897
4.99324e-05
8.65269e-05
5.20194e-05
6.87722e-05
5.31862e-05
5.08866e-05
5.36496e-05
3.32294e-05
5.28652e-05
1.58842e-05
5.20558e-05
-7.95177e-07
4.99779e-05
-1.67946e-05
4.79707e-05
-3.19733e-05
4.55158e-05
-4.62178e-05
4.27194e-05
-5.94694e-05
3.97461e-05
-7.17269e-05
3.6768e-05
-8.2972e-05
3.37333e-05
-9.32279e-05
3.07713e-05
-0.000102559
2.79994e-05
-0.000110992
2.53139e-05
-0.00011861
2.28604e-05
-0.000125475
2.06055e-05
-0.000131665
1.85736e-05
-0.000137232
1.67116e-05
-0.000142237
1.50171e-05
-0.00014671
1.3418e-05
-0.000150692
1.1953e-05
-0.000154189
1.04909e-05
-0.000157215
9.07182e-06
-0.000159759
7.62578e-06
-0.000161789
6.07667e-06
-0.000163278
4.45859e-06
-0.00016418
2.70787e-06
-0.000164439
7.88391e-07
-0.000163972
-1.40951e-06
-0.000162712
-3.81692e-06
-0.000160597
-6.32395e-06
-0.000157636
-8.89424e-06
-0.000153691
-1.18406e-05
-0.000148793
-1.47046e-05
-0.000142916
-1.76276e-05
-0.00013596
-2.08616e-05
-0.000128005
-2.38626e-05
-0.000119103
-2.67008e-05
-0.000109099
-3.00045e-05
-9.8163e-05
-3.28146e-05
-8.61761e-05
-3.59357e-05
-7.33623e-05
-3.84339e-05
-5.97469e-05
-4.08381e-05
-4.5326e-05
-4.3234e-05
-3.02392e-05
-4.5231e-05
-1.46863e-05
-4.66399e-05
1.32895e-06
-4.80044e-05
1.75994e-05
-4.87793e-05
3.41125e-05
-4.95012e-05
5.06259e-05
-4.95055e-05
6.69022e-05
-4.88045e-05
8.29294e-05
-4.80579e-05
9.85249e-05
-4.67672e-05
0.000113441
-4.47291e-05
0.000127572
-4.23713e-05
0.000140687
-3.932e-05
0.000152637
-3.58354e-05
0.000163276
-3.18929e-05
0.000172413
-2.73782e-05
0.000179931
-2.25226e-05
0.000185713
-1.73051e-05
-1.21968e-05
-1.78044e-05
6.70087e-05
-3.37149e-05
6.36032e-05
-4.88141e-05
6.03643e-05
-6.30115e-05
5.6764e-05
-7.61951e-05
5.27133e-05
-8.84162e-05
4.88703e-05
-9.9618e-05
4.47957e-05
-0.000109858
4.09537e-05
-0.00011913
3.70965e-05
-0.000127449
3.32798e-05
-0.000134869
2.96741e-05
-0.00014141
2.61742e-05
-0.000147091
2.27428e-05
-0.000151959
1.94903e-05
-0.000156051
1.63643e-05
-0.0001594
1.33854e-05
-0.000162018
1.04604e-05
-0.000163938
7.61371e-06
-0.000165137
4.84247e-06
-0.000165621
2.08825e-06
-0.000165412
-7.69675e-07
-0.000164514
-3.58912e-06
-0.000162966
-6.20111e-06
-0.000160645
-9.30096e-06
-0.000157635
-1.20709e-05
-0.00015385
-1.51983e-05
-0.000149291
-1.8209e-05
-0.000143972
-2.13126e-05
-0.000137716
-2.50803e-05
-0.000130599
-2.84289e-05
-0.000122691
-3.16318e-05
-0.000113744
-3.57929e-05
-0.000103917
-3.9324e-05
-9.30047e-05
-4.36383e-05
-8.10917e-05
-4.76524e-05
-6.83091e-05
-5.11044e-05
-5.44311e-05
-5.55083e-05
-3.96335e-05
-5.92325e-05
-2.39536e-05
-6.2637e-05
-7.36649e-06
-6.65199e-05
1.00568e-05
-6.94085e-05
2.81547e-05
-7.22986e-05
4.68284e-05
-7.46059e-05
6.57074e-05
-7.54266e-05
8.47874e-05
-7.61941e-05
0.00010389
-7.62893e-05
0.000122597
-7.4708e-05
0.000140798
-7.26531e-05
0.00015829
-6.97997e-05
0.000174656
-6.53806e-05
0.000189814
-6.05041e-05
0.000203422
-5.43249e-05
0.00021533
-4.74944e-05
0.000225349
-3.99425e-05
0.000233198
-3.14013e-05
0.000238851
-2.25599e-05
0.000242239
-1.34574e-05
0.000243061
-3.30593e-06
0.000241424
6.43862e-06
0.00023738
1.61923e-05
0.000231055
2.52798e-05
0.000222557
3.39645e-05
0.000211888
4.25785e-05
0.000199296
5.02512e-05
0.00018501
5.70078e-05
0.000169211
6.29538e-05
0.000152213
6.78513e-05
0.000134235
7.18233e-05
0.000115658
7.43803e-05
9.65424e-05
7.61875e-05
7.71585e-05
7.73537e-05
5.78733e-05
7.70621e-05
3.86901e-05
7.65766e-05
2.00073e-05
7.46899e-05
1.81856e-06
7.26332e-05
-1.57138e-05
7.0054e-05
-3.24181e-05
6.67214e-05
-4.83293e-05
6.36042e-05
-6.32443e-05
5.96151e-05
-7.71285e-05
5.55178e-05
-9.00023e-05
5.14822e-05
-0.000101827
4.72569e-05
-0.000112516
4.27746e-05
-0.000122122
3.83899e-05
-0.000130565
3.37925e-05
-0.000137943
2.94782e-05
-0.000144172
2.49004e-05
-0.000149327
2.06226e-05
-0.000153484
1.65993e-05
-0.000156654
1.26905e-05
-0.000158978
9.28552e-06
-0.000160459
5.89721e-06
-0.000161209
3.0382e-06
-0.000161286
1.7054e-07
-0.000160678
-2.45389e-06
-0.000159451
-4.97861e-06
-0.000157612
-7.40977e-06
-0.000155184
-9.89501e-06
-0.000152184
-1.19313e-05
-0.000148555