/*--------------------------------*- C++ -*----------------------------------*\
| =========                 |                                                 |
| \\      /  F ield         | OpenFOAM: The Open Source CFD Toolbox           |
|  \\    /   O peration     | Version:  3.0.1                                 |
|   \\  /    A nd           | Web:      www.OpenFOAM.org                      |
|    \\/     M anipulation  |                                                 |
\*---------------------------------------------------------------------------*/
FoamFile
{
    version     2.0;
    format      ascii;
    class       surfaceScalarField;
    location    "60.2";
    object      phi;
}
// * * * * * * * * * * * * * * * * * * * * * * * * * * * * * * * * * * * * * //

dimensions      [0 3 -1 0 0 0 0];

internalField   nonuniform List<scalar> 
42423
(
-1.38161e-05
1.68894e-05
-2.98967e-05
1.60806e-05
-4.51882e-05
1.52915e-05
-5.95934e-05
1.44052e-05
-7.29915e-05
1.33982e-05
-8.54325e-05
1.24409e-05
-9.68522e-05
1.14198e-05
-0.000107311
1.04584e-05
-0.000116804
9.49312e-06
-0.000125335
8.53128e-06
-0.000132956
7.62143e-06
-0.000139696
6.73931e-06
-0.00014557
5.87452e-06
-0.000150629
5.05827e-06
-0.000154893
4.2644e-06
-0.000158405
3.51193e-06
-0.000161179
2.77444e-06
-0.000163232
2.0531e-06
-0.000164598
1.36515e-06
-0.00016529
6.92326e-07
-0.00016527
-1.95208e-08
-0.000164536
-7.34067e-07
-0.00016314
-1.39624e-06
-0.00016097
-2.16994e-06
-0.000158109
-2.86172e-06
-0.000154466
-3.64207e-06
-0.000150089
-4.37697e-06
-0.000144933
-5.1561e-06
-0.000138843
-6.09057e-06
-0.000131936
-6.90726e-06
-0.000124228
-7.7073e-06
-0.000115488
-8.74004e-06
-0.000105869
-9.61935e-06
-9.51808e-05
-1.06882e-05
-8.34944e-05
-1.16864e-05
-7.09518e-05
-1.25427e-05
-5.7293e-05
-1.36588e-05
-4.26964e-05
-1.45966e-05
-2.7256e-05
-1.54404e-05
-1.07937e-05
-1.64624e-05
6.34808e-06
-1.71418e-05
2.42627e-05
-1.79147e-05
4.2787e-05
-1.85243e-05
6.15491e-05
-1.87621e-05
8.05433e-05
-1.89943e-05
9.96149e-05
-1.90716e-05
0.000118337
-1.87219e-05
0.000136594
-1.82571e-05
0.000154197
-1.76032e-05
0.000170762
-1.65655e-05
0.000186157
-1.53945e-05
0.00020007
-1.39129e-05
0.000212318
-1.22485e-05
0.000222722
-1.0404e-05
0.000231054
-8.33166e-06
0.000237192
-6.13795e-06
0.000241074
-3.88254e-06
0.00024244
-1.36623e-06
0.000241408
1.03194e-06
0.00023791
3.49876e-06
0.000232104
5.80583e-06
0.000224109
7.99497e-06
0.000213937
1.01717e-05
0.000201808
1.21295e-05
0.000187944
1.38636e-05
0.000172549
1.53944e-05
0.000155873
1.6677e-05
0.000138125
1.77477e-05
0.000119655
1.84695e-05
0.000100733
1.89226e-05
8.14516e-05
1.92811e-05
6.2175e-05
1.92766e-05
4.29874e-05
1.91876e-05
2.42013e-05
1.8786e-05
5.89549e-06
1.83058e-05
-1.17383e-05
1.76338e-05
-2.8574e-05
1.68357e-05
-4.46712e-05
1.60971e-05
-5.9784e-05
1.51128e-05
-7.38878e-05
1.41038e-05
-8.69873e-05
1.30995e-05
-9.90258e-05
1.20385e-05
-0.000109956
1.09307e-05
-0.00011978
9.82307e-06
-0.000128455
8.67546e-06
-0.000136036
7.5812e-06
-0.000142475
6.43906e-06
-0.000147839
5.36346e-06
-0.000152184
4.34541e-06
-0.000155557
3.37263e-06
-0.000158067
2.51045e-06
-0.000159718
1.65084e-06
-0.000160647
9.28526e-07
-0.000160837
1.90001e-07
-0.000160378
-4.58772e-07
-0.000159274
-1.10339e-06
-0.00015756
-1.71422e-06
-0.000155215
-2.34479e-06
-0.000152383
-2.83216e-06
-0.000148909
-3.47405e-06
-0.000144811
-4.09858e-06
-0.000140024
-4.78644e-06
-0.000134628
-5.39607e-06
-0.000128584
-6.04406e-06
-0.000121866
-6.71839e-06
-0.0001144
-7.46533e-06
-0.00010618
-8.22081e-06
-9.7172e-05
-9.00766e-06
-8.73746e-05
-9.79747e-06
-7.67384e-05
-1.06362e-05
-6.52638e-05
-1.14746e-05
-5.29703e-05
-1.22936e-05
-3.98918e-05
-1.30785e-05
-2.60287e-05
-1.38631e-05
-1.14301e-05
-1.45986e-05
3.83443e-06
-1.52646e-05
1.97116e-05
-1.58772e-05
3.61268e-05
-1.64152e-05
5.29288e-05
-1.6802e-05
6.9997e-05
-1.70683e-05
8.71875e-05
-1.71905e-05
0.000104325
-1.71374e-05
0.00012121
-1.68855e-05
0.000137597
-1.63869e-05
0.00015329
-1.56928e-05
0.000167964
-1.46737e-05
0.000181415
-1.34516e-05
0.000193342
-1.19267e-05
0.000203548
-1.02063e-05
0.000211746
-8.19835e-06
0.000217796
-6.04941e-06
0.000221524
-3.72852e-06
0.00022276
-1.23564e-06
0.000221574
1.18552e-06
0.000217756
3.81836e-06
0.00021147
6.28608e-06
0.000202797
8.67299e-06
0.000191947
1.08495e-05
0.000179056
1.28911e-05
0.000164405
1.46513e-05
0.000148221
1.61837e-05
0.000130758
1.74629e-05
0.000112333
1.84249e-05
9.32122e-05
1.91208e-05
7.36757e-05
1.95364e-05
5.40035e-05
1.96722e-05
3.44683e-05
1.95352e-05
1.52874e-05
1.9181e-05
-3.32235e-06
1.86097e-05
-2.1151e-05
1.78286e-05
-3.80977e-05
1.69467e-05
-5.40433e-05
1.59456e-05
-6.89092e-05
1.48659e-05
-8.26318e-05
1.37226e-05
-9.53199e-05
1.26881e-05
-0.000106825
1.15052e-05
-0.000117241
1.0416e-05
-0.00012659
9.34912e-06
-0.00013492
8.32981e-06
-0.000142314
7.39402e-06
-0.000148779
6.46485e-06
-0.000154432
5.65356e-06
-0.000159266
4.83345e-06
-0.000163355
4.08889e-06
-0.000166699
3.34397e-06
-0.000169382
2.68294e-06
-0.000171386
2.00384e-06
-0.000172724
1.33832e-06
-0.000173578
8.54243e-07
-0.000173786
2.07929e-07
-0.000173409
-3.77388e-07
-0.000172462
-9.4645e-07
-0.000170919
-1.54332e-06
-0.000168787
-2.13224e-06
-0.00016604
-2.74625e-06
-0.000162705
-3.3354e-06
-0.000158763
-3.94186e-06
-0.000154205
-4.55841e-06
-0.000149017
-5.18753e-06
-0.000143156
-5.8614e-06
-0.000136587
-6.56939e-06
-0.000129252
-7.33419e-06
-0.00012113
-8.12193e-06
-0.000112148
-8.98285e-06
-0.0001025
-9.64805e-06
-9.19665e-05
-1.0533e-05
-8.06708e-05
-1.12957e-05
-6.86078e-05
-1.20631e-05
-5.57268e-05
-1.2881e-05
-4.20272e-05
-1.36996e-05
-2.7605e-05
-1.44222e-05
-1.24227e-05
-1.51824e-05
3.38463e-06
-1.58073e-05
1.97568e-05
-1.63722e-05
3.65633e-05
-1.68066e-05
5.36019e-05
-1.70386e-05
7.07121e-05
-1.71102e-05
8.772e-05
-1.7008e-05
0.000104302
-1.65825e-05
0.000120259
-1.59564e-05
0.000135306
-1.50471e-05
0.000149214
-1.39077e-05
0.000161704
-1.24901e-05
0.000172508
-1.08047e-05
0.000181486
-8.9777e-06
0.000188336
-6.84957e-06
0.000192976
-4.64077e-06
0.000195256
-2.27971e-06
0.00019503
2.25608e-07
0.000192339
2.69145e-06
0.000187099
5.24021e-06
0.000179538
7.56066e-06
0.000169732
9.80573e-06
0.00015792
1.18123e-05
0.000144283
1.36365e-05
0.00012913
1.51538e-05
0.000112695
1.64347e-05
9.53352e-05
1.73595e-05
7.72827e-05
1.80525e-05
5.88231e-05
1.84596e-05
4.02447e-05
1.85784e-05
2.17884e-05
1.84562e-05
3.68294e-06
1.81055e-05
-1.39574e-05
1.76403e-05
-3.08893e-05
1.69319e-05
-4.70479e-05
1.61585e-05
-6.23015e-05
1.52537e-05
-7.65899e-05
1.42883e-05
-8.99517e-05
1.33619e-05
-0.00010226
1.23082e-05
-0.000113571
1.13109e-05
-0.000123874
1.03029e-05
-0.000133177
9.30356e-06
-0.000141526
8.34866e-06
-0.000148961
7.43549e-06
-0.000155582
6.62071e-06
-0.000161368
5.78542e-06
-0.000166368
4.99993e-06
-0.000170653
4.28506e-06
-0.000174236
3.58355e-06
-0.000177191
2.9549e-06
-0.000179505
2.31348e-06
-0.000181207
1.70219e-06
-0.000182286
1.07969e-06
-0.000182876
5.89125e-07
-0.000182836
-3.92373e-08
-0.000182272
-5.64267e-07
-0.00018108
-1.19211e-06
-0.000179435
-1.64487e-06
-0.000177173
-2.26165e-06
-0.000174361
-2.81289e-06
-0.000170924
-3.43634e-06
-0.000166933
-3.9917e-06
-0.000162305
-4.6272e-06
-0.000157077
-5.22784e-06
-0.00015117
-5.90784e-06
-0.000144647
-6.5225e-06
-0.000137431
-7.2161e-06
-0.000129534
-7.89683e-06
-0.000120912
-8.62237e-06
-0.000111541
-9.37073e-06
-0.000101439
-1.01021e-05
-9.05424e-05
-1.08967e-05
-7.88599e-05
-1.16825e-05
-6.64266e-05
-1.24333e-05
-5.33051e-05
-1.31215e-05
-3.94273e-05
-1.38778e-05
-2.49149e-05
-1.45125e-05
-1.00233e-05
-1.48916e-05
5.5025e-06
-1.55258e-05
2.13043e-05
-1.58018e-05
3.73191e-05
-1.60148e-05
5.34221e-05
-1.61031e-05
6.95287e-05
-1.61067e-05
8.53214e-05
-1.57927e-05
0.00010086
-1.55383e-05
0.000115712
-1.48523e-05
0.000129924
-1.42125e-05
0.000143191
-1.32662e-05
0.000155265
-1.20746e-05
0.000166027
-1.07615e-05
0.000175144
-9.1175e-06
0.000182333
-7.1886e-06
0.000187331
-4.99882e-06
0.000189975
-2.644e-06
0.000190219
-2.43717e-07
0.000187817
2.40206e-06
0.000182812
5.00457e-06
0.000175201
7.61156e-06
0.000165324
9.87716e-06
0.000153301
1.20227e-05
0.000139459
1.3842e-05
0.000124093
1.53663e-05
0.000107633
1.64598e-05
9.04206e-05
1.72122e-05
7.27581e-05
1.76624e-05
5.48753e-05
1.78829e-05
3.72338e-05
1.76414e-05
1.98197e-05
1.74141e-05
3.13848e-06
1.66812e-05
-1.31101e-05
1.62486e-05
-2.85028e-05
1.53926e-05
-4.29578e-05
1.4455e-05
-5.64227e-05
1.3465e-05
-6.8896e-05
1.24732e-05
-8.03559e-05
1.146e-05
-9.08238e-05
1.04679e-05
-0.00010036
9.53603e-06
-0.000108992
8.63253e-06
-0.000116794
7.80117e-06
-0.000123831
7.03747e-06
-0.000130178
6.34713e-06
-0.000135896
5.71758e-06
-0.000141036
5.14031e-06
-0.000145634
4.59811e-06
-0.00014974
4.10535e-06
-0.000153354
3.61492e-06
-0.000156495
3.14019e-06
-0.000159153
2.65842e-06
-0.000161299
2.14576e-06
-0.000162909
1.61027e-06
-0.00016394
1.03092e-06
-0.000164352
4.11875e-07
-0.00016404
-3.12048e-07
-0.000162926
-1.11411e-06
-0.000160999
-1.92706e-06
-0.000158215
-2.78368e-06
-0.00015446
-3.7552e-06
-0.000149757
-4.70293e-06
-0.000144088
-5.66915e-06
-0.000137348
-6.73953e-06
-0.000129612
-7.73642e-06
-0.000120931
-8.68069e-06
-0.000111147
-9.78394e-06
-0.000100419
-1.0728e-05
-8.86529e-05
-1.17663e-05
-7.60384e-05
-1.26145e-05
-6.26132e-05
-1.34253e-05
-4.83759e-05
-1.42373e-05
-3.34578e-05
-1.49181e-05
-1.80425e-05
-1.54153e-05
-2.14932e-06
-1.58932e-05
1.40349e-05
-1.61843e-05
3.04898e-05
-1.64549e-05
4.69768e-05
-1.64871e-05
6.32661e-05
-1.62893e-05
7.93466e-05
-1.60805e-05
9.50394e-05
-1.56928e-05
0.000110093
-1.50538e-05
0.000124407
-1.43136e-05
0.000137746
-1.33392e-05
0.000149963
-1.22173e-05
0.000160897
-1.0934e-05
0.000170358
-9.46061e-06
0.00017823
-7.87193e-06
0.000184383
-6.15298e-06
-4.47933e-06
-1.38485e-05
3.37827e-05
-2.99318e-05
3.21639e-05
-4.5226e-05
3.05857e-05
-5.96334e-05
2.88126e-05
-7.30333e-05
2.6798e-05
-8.54769e-05
2.48845e-05
-9.69008e-05
2.28437e-05
-0.000107361
2.09191e-05
-0.000116853
1.89843e-05
-0.000125382
1.70606e-05
-0.000133003
1.52423e-05
-0.000139744
1.34806e-05
-0.000145622
1.17522e-05
-0.000150676
1.01124e-05
-0.00015494
8.52834e-06
-0.000158456
7.02811e-06
-0.000161233
5.55159e-06
-0.000163289
4.10838e-06
-0.000164655
2.73129e-06
-0.000165344
1.38209e-06
-0.000165321
-4.28744e-08
-0.000164581
-1.47434e-06
-0.000163184
-2.79281e-06
-0.000161016
-4.33851e-06
-0.000158156
-5.7212e-06
-0.000154516
-7.28187e-06
-0.000150139
-8.75474e-06
-0.000144985
-1.031e-05
-0.000138897
-1.21789e-05
-0.000131988
-1.38159e-05
-0.000124281
-1.54145e-05
-0.000115542
-1.74791e-05
-0.000105924
-1.9237e-05
-9.52369e-05
-2.13754e-05
-8.35477e-05
-2.33757e-05
-7.0995e-05
-2.50954e-05
-5.73416e-05
-2.73123e-05
-4.27434e-05
-2.91949e-05
-2.72984e-05
-3.08855e-05
-1.08398e-05
-3.2921e-05
6.31293e-06
-3.42946e-05
2.42354e-05
-3.58372e-05
4.2767e-05
-3.7056e-05
6.15427e-05
-3.75379e-05
8.05491e-05
-3.80008e-05
9.96253e-05
-3.81478e-05
0.000118359
-3.74556e-05
0.000136632
-3.653e-05
0.000154248
-3.52192e-05
0.000170824
-3.31422e-05
0.000186233
-3.08033e-05
0.000200151
-2.78311e-05
0.000212412
-2.45095e-05
0.000222829
-2.08205e-05
0.000231162
-1.66651e-05
0.000237309
-1.22846e-05
0.000241195
-7.76872e-06
0.000242567
-2.73903e-06
0.000241525
2.07434e-06
0.000238024
6.9992e-06
0.000232222
1.16083e-05
0.000224226
1.5991e-05
0.000214047
2.03505e-05
0.000201908
2.42683e-05
0.000188033
2.77387e-05
0.000172627
3.08007e-05
0.000155929
3.33746e-05
0.000138172
3.55044e-05
0.000119701
3.69409e-05
0.000100759
3.78649e-05
8.14618e-05
3.85778e-05
6.2177e-05
3.85613e-05
4.2974e-05
3.83906e-05
2.41829e-05
3.75771e-05
5.86162e-06
3.66272e-05
-1.17845e-05
3.52799e-05
-2.86321e-05
3.36833e-05
-4.47298e-05
3.21948e-05
-5.98468e-05
3.02298e-05
-7.39529e-05
2.82099e-05
-8.70545e-05
2.62011e-05
-9.90955e-05
2.40795e-05
-0.000110021
2.18561e-05
-0.000119843
1.96452e-05
-0.000128517
1.7349e-05
-0.000136098
1.51623e-05
-0.00014253
1.28714e-05
-0.000147892
1.07258e-05
-0.000152239
8.69243e-06
-0.000155605
6.73779e-06
-0.00015811
5.01612e-06
-0.00015976
3.30054e-06
-0.000160692
1.86019e-06
-0.000160887
3.85093e-07
-0.000160434
-9.11396e-07
-0.000159336
-2.20146e-06
-0.000157628
-3.42262e-06
-0.000155288
-4.6845e-06
-0.000152455
-5.6656e-06
-0.000148973
-6.95558e-06
-0.000144882
-8.18969e-06
-0.000140095
-9.57321e-06
-0.000134709
-1.07818e-05
-0.000128689
-1.20649e-05
-0.000121948
-1.34587e-05
-0.000114485
-1.49285e-05
-0.000106263
-1.64431e-05
-9.72524e-05
-1.80184e-05
-8.74418e-05
-1.96081e-05
-7.67947e-05
-2.12833e-05
-6.53337e-05
-2.29357e-05
-5.30414e-05
-2.45859e-05
-3.99572e-05
-2.61628e-05
-2.60957e-05
-2.77247e-05
-1.14889e-05
-2.92055e-05
3.78824e-06
-3.05418e-05
1.96692e-05
-3.17583e-05
3.60876e-05
-3.28337e-05
5.28988e-05
-3.36134e-05
6.99752e-05
-3.41447e-05
8.71684e-05
-3.43838e-05
0.00010431
-3.42793e-05
0.000121201
-3.37766e-05
0.000137594
-3.27793e-05
0.000153296
-3.13953e-05
0.00016798
-2.93578e-05
0.000181442
-2.69134e-05
0.000193369
-2.38544e-05
0.000203579
-2.04156e-05
0.000211784
-1.64037e-05
0.000217828
-1.20932e-05
0.000221561
-7.46219e-06
0.000222791
-2.46587e-06
0.000221584
2.39262e-06
0.000217759
7.64313e-06
0.000211465
1.25807e-05
0.000202787
1.73507e-05
0.00019192
2.17164e-05
0.000179018
2.57926e-05
0.000164394
2.92751e-05
0.000148164
3.24139e-05
0.000130688
3.49394e-05
0.000112231
3.68814e-05
9.31037e-05
3.82481e-05
7.35615e-05
3.90786e-05
5.38952e-05
3.93384e-05
3.43298e-05
3.91006e-05
1.51371e-05
3.83736e-05
-3.4627e-06
3.72095e-05
-2.132e-05
3.56859e-05
-3.8268e-05
3.38947e-05
-5.42187e-05
3.18963e-05
-6.90789e-05
2.9726e-05
-8.28105e-05
2.74542e-05
-9.54796e-05
2.53571e-05
-0.000106974
2.29996e-05
-0.000117388
2.08297e-05
-0.000126734
1.86953e-05
-0.000135066
1.66622e-05
-0.000142449
1.4777e-05
-0.000148917
1.29324e-05
-0.000154564
1.13008e-05
-0.000159399
9.66857e-06
-0.000163469
8.15908e-06
-0.000166825
6.69967e-06
-0.000169506
5.36383e-06
-0.000171505
4.00283e-06
-0.000172868
2.70114e-06
-0.000173696
1.68206e-06
-0.000173905
4.17429e-07
-0.000173489
-7.93068e-07
-0.000172559
-1.87663e-06
-0.000171016
-3.086e-06
-0.000168883
-4.26614e-06
-0.000166145
-5.48383e-06
-0.000162807
-6.67383e-06
-0.000158857
-7.89163e-06
-0.000154291
-9.12461e-06
-0.000149105
-1.03737e-05
-0.00014324
-1.17258e-05
-0.000136679
-1.31309e-05
-0.000129344
-1.46684e-05
-0.000121227
-1.62397e-05
-0.000112253
-1.79562e-05
-0.000102577
-1.93247e-05
-9.20483e-05
-2.10616e-05
-8.07556e-05
-2.25885e-05
-6.86757e-05
-2.4143e-05
-5.57948e-05
-2.5762e-05
-4.21046e-05
-2.73898e-05
-2.76849e-05
-2.8842e-05
-1.25031e-05
-3.03642e-05
3.31343e-06
-3.16239e-05
1.97076e-05
-3.27664e-05
3.65194e-05
-3.36184e-05
5.35725e-05
-3.40919e-05
7.06828e-05
-3.42205e-05
8.77001e-05
-3.40253e-05
0.000104286
-3.31686e-05
0.00012025
-3.19205e-05
0.000135294
-3.0091e-05
0.00014921
-2.78239e-05
0.000161714
-2.49942e-05
0.000172522
-2.16129e-05
0.000181489
-1.79447e-05
0.000188359
-1.37198e-05
0.000192999
-9.28077e-06
0.000195262
-4.5428e-06
0.000195043
4.44372e-07
0.00019233
5.40438e-06
0.000187087
1.04834e-05
0.000179518
1.513e-05
0.000169701
1.9622e-05
0.000157878
2.3636e-05
0.000144231
2.72836e-05
0.000129062
3.03223e-05
0.000112617
3.28798e-05
9.52555e-05
3.4721e-05
7.71772e-05
3.61308e-05
5.87088e-05
3.69279e-05
4.01164e-05
3.71708e-05
2.16559e-05
3.69167e-05
3.535e-06
3.62264e-05
-1.41025e-05
3.52778e-05
-3.10474e-05
3.38768e-05
-4.7208e-05
3.23191e-05
-6.24604e-05
3.0506e-05
-7.67407e-05
2.85686e-05
-9.01007e-05
2.67219e-05
-0.000102409
2.46162e-05
-0.000113713
2.26154e-05
-0.000124016
2.06056e-05
-0.000133311
1.8599e-05
-0.000141654
1.66915e-05
-0.000149096
1.48772e-05
-0.000155716
1.32404e-05
-0.000161487
1.15565e-05
-0.00016648
9.99309e-06
-0.000170768
8.57351e-06
-0.000174357
7.1722e-06
-0.0001773
5.89821e-06
-0.000179612
4.62486e-06
-0.000181318
3.40868e-06
-0.000182384
2.14567e-06
-0.000182986
1.19064e-06
-0.000182942
-8.35226e-08
-0.000182372
-1.13426e-06
-0.000181205
-2.35819e-06
-0.000179538
-3.31219e-06
-0.000177274
-4.52593e-06
-0.000174453
-5.63343e-06
-0.000171006
-6.88347e-06
-0.000167035
-7.96282e-06
-0.000162404
-9.25861e-06
-0.000157179
-1.04528e-05
-0.000151277
-1.18095e-05
-0.000144758
-1.30413e-05
-0.000137535
-1.44398e-05
-0.000129639
-1.5793e-05
-0.000121023
-1.72379e-05
-0.00011165
-1.87442e-05
-0.00010154
-2.02121e-05
-9.06399e-05
-2.17965e-05
-7.89558e-05
-2.33667e-05
-6.65044e-05
-2.48847e-05
-5.33797e-05
-2.62462e-05
-3.95004e-05
-2.77572e-05
-2.49699e-05
-2.9043e-05
-1.00629e-05
-2.97987e-05
5.47243e-06
-3.10612e-05
2.12787e-05
-3.16082e-05
3.7309e-05
-3.20452e-05
5.34215e-05
-3.22156e-05
6.95401e-05
-3.22252e-05
8.53379e-05
-3.15907e-05
0.000100889
-3.10895e-05
0.000115747
-2.97102e-05
0.000129973
-2.84387e-05
0.000143245
-2.6538e-05
0.000155333
-2.41625e-05
0.000166105
-2.1534e-05
0.000175235
-1.82474e-05
0.000182437
-1.43911e-05
0.000187445
-1.00067e-05
0.000190101
-5.29958e-06
0.000190347
-4.90231e-07
0.000187941
4.80849e-06
0.000182939
1.00063e-05
0.000175322
1.52291e-05
0.000165433
1.9766e-05
0.000153397
2.40585e-05
0.00013954
2.76982e-05
0.000124159
3.07475e-05
0.000107687
3.29323e-05
9.04572e-05
3.44415e-05
7.27787e-05
3.53409e-05
5.48876e-05
3.57739e-05
3.72274e-05
3.53016e-05
1.9809e-05
3.48326e-05
3.12774e-06
3.33624e-05
-1.314e-05
3.25163e-05
-2.85372e-05
3.07898e-05
-4.2996e-05
2.89137e-05
-5.64645e-05
2.69334e-05
-6.89405e-05
2.49492e-05
-8.04019e-05
2.29214e-05
-9.087e-05
2.0936e-05
-0.000100405
1.90713e-05
-0.000109035
1.72622e-05
-0.000116835
1.56016e-05
-0.000123872
1.4074e-05
-0.000130218
1.26935e-05
-0.000135933
1.14324e-05
-0.000141073
1.02801e-05
-0.000145673
9.19804e-06
-0.00014978
8.21275e-06
-0.000153395
7.22936e-06
-0.000156535
6.28048e-06
-0.000159196
5.31944e-06
-0.000161342
4.29212e-06
-0.000162956
3.2242e-06
-0.000163993
2.06789e-06
-0.000164403
8.21379e-07
-0.00016409
-6.24537e-07
-0.000162983
-2.22174e-06
-0.000161052
-3.85739e-06
-0.00015827
-5.56593e-06
-0.000154516
-7.50904e-06
-0.000149815
-9.40445e-06
-0.000144147
-1.13374e-05
-0.000137407
-1.34793e-05
-0.000129668
-1.54757e-05
-0.000120983
-1.73658e-05
-0.000111196
-1.95702e-05
-0.00010047
-2.14547e-05
-8.86977e-05
-2.35383e-05
-7.6085e-05
-2.52273e-05
-6.26536e-05
-2.68567e-05
-4.84099e-05
-2.84811e-05
-3.34803e-05
-2.98476e-05
-1.80631e-05
-3.08326e-05
-2.16303e-06
-3.17933e-05
1.40225e-05
-3.23698e-05
3.0484e-05
-3.29164e-05
4.69789e-05
-3.2982e-05
6.32753e-05
-3.25859e-05
7.93633e-05
-3.21685e-05
9.50628e-05
-3.13924e-05
0.000110123
-3.01141e-05
0.00012444
-2.86311e-05
0.000137779
-2.6678e-05
0.000150002
-2.44401e-05
0.000160947
-2.18797e-05
0.000170415
-1.89287e-05
0.000178293
-1.575e-05
0.000184455
-1.23143e-05
-8.95865e-06
-1.39139e-05
5.06841e-05
-3.00029e-05
4.82528e-05
-4.53018e-05
4.58846e-05
-5.97132e-05
4.32241e-05
-7.3116e-05
4.02008e-05
-8.55607e-05
3.73292e-05
-9.69847e-05
3.42677e-05
-0.000107446
3.138e-05
-0.000116937
2.84754e-05
-0.000125467
2.55908e-05
-0.00013309
2.28648e-05
-0.000139829
2.02201e-05
-0.000145702
1.76252e-05
-0.000150755
1.51655e-05
-0.000155021
1.27943e-05
-0.000158535
1.05418e-05
-0.000161313
8.33011e-06
-0.000163373
6.16785e-06
-0.000164738
4.09679e-06
-0.00016541
2.05336e-06
-0.000165375
-7.72554e-08
-0.000164634
-2.21605e-06
-0.000163238
-4.18826e-06
-0.000161072
-6.50455e-06
-0.000158216
-8.57749e-06
-0.000154583
-1.09147e-05
-0.000150204
-1.3134e-05
-0.000145055
-1.54589e-05
-0.000138971
-1.82626e-05
-0.00013206
-2.07273e-05
-0.000124354
-2.31208e-05
-0.000115615
-2.62176e-05
-0.000106
-2.8852e-05
-9.53105e-05
-3.20651e-05
-8.36217e-05
-3.50645e-05
-7.10669e-05
-3.76503e-05
-5.74121e-05
-4.09671e-05
-4.28212e-05
-4.37858e-05
-2.73663e-05
-4.63405e-05
-1.0924e-05
-4.93633e-05
6.26097e-06
-5.14797e-05
2.41981e-05
-5.37744e-05
4.27423e-05
-5.56002e-05
6.15272e-05
-5.63229e-05
8.05499e-05
-5.70235e-05
9.9644e-05
-5.7242e-05
0.000118394
-5.62055e-05
0.000136688
-5.48243e-05
0.000154326
-5.28576e-05
0.000170915
-4.97306e-05
0.000186344
-4.62327e-05
0.000200279
-4.17663e-05
0.000212556
-3.67861e-05
0.000222993
-3.12579e-05
0.000231327
-2.49985e-05
0.000237481
-1.84396e-05
0.000241382
-1.16693e-05
0.000242757
-4.1146e-06
0.000241696
3.13561e-06
0.000238192
1.0503e-05
0.000232392
1.74088e-05
0.000224393
2.39893e-05
0.000214201
3.0543e-05
0.000202046
3.64229e-05
0.000188154
4.1631e-05
0.000172722
4.62322e-05
0.000155993
5.01038e-05
0.000138225
5.32721e-05
0.00011976
5.5406e-05
0.000100783
5.68419e-05
8.14608e-05
5.79002e-05
6.21645e-05
5.78575e-05
4.29411e-05
5.76139e-05
2.41441e-05
5.63741e-05
5.80498e-06
5.49663e-05
-1.18466e-05
5.29315e-05
-2.87112e-05
5.05479e-05
-4.48169e-05
4.83004e-05
-5.99415e-05
4.53544e-05
-7.40471e-05
4.23155e-05
-8.71495e-05
3.93034e-05
-9.91993e-05
3.61293e-05
-0.000110122
3.27786e-05
-0.000119944
2.94673e-05
-0.000128613
2.60182e-05
-0.000136203
2.27519e-05
-0.000142637
1.9306e-05
-0.000147996
1.60841e-05
-0.000152344
1.30411e-05
-0.000155707
1.01005e-05
-0.000158214
7.52352e-06
-0.00015987
4.95626e-06
-0.000160806
2.79575e-06
-0.000161015
5.94396e-07
-0.000160562
-1.3647e-06
-0.000159475
-3.28816e-06
-0.000157778
-5.12012e-06
-0.00015544
-7.02243e-06
-0.000152615
-8.48989e-06
-0.00014914
-1.04313e-05
-0.000145058
-1.22717e-05
-0.000140278
-1.4353e-05
-0.000134928
-1.61318e-05
-0.000128913
-1.80799e-05
-0.000122166
-2.02059e-05
-0.000114682
-2.24125e-05
-0.000106453
-2.46714e-05
-9.74443e-05
-2.70275e-05
-8.76363e-05
-2.94162e-05
-7.70029e-05
-3.19168e-05
-6.55352e-05
-3.44034e-05
-5.3247e-05
-3.68742e-05
-4.01353e-05
-3.92745e-05
-2.62825e-05
-4.15776e-05
-1.1671e-05
-4.38171e-05
3.61497e-06
-4.58279e-05
1.95116e-05
-4.7655e-05
3.59341e-05
-4.92563e-05
5.27607e-05
-5.04401e-05
6.98739e-05
-5.1258e-05
8.70764e-05
-5.15864e-05
0.000104245
-5.14483e-05
0.000121141
-5.06728e-05
0.000137541
-4.91794e-05
0.000153263
-4.71167e-05
0.000167957
-4.40527e-05
0.000181445
-4.04013e-05
0.000193412
-3.58215e-05
0.000203633
-3.0636e-05
0.00021186
-2.46316e-05
0.000217907
-1.81404e-05
0.000221625
-1.11801e-05
0.000222878
-3.71835e-06
0.000221637
3.63345e-06
0.000217811
1.1469e-05
0.000211511
1.88802e-05
0.000202822
2.60398e-05
0.00019193
3.26083e-05
0.000179013
3.87101e-05
0.000164333
4.39545e-05
0.0001481
4.86471e-05
0.000130636
5.24035e-05
0.000112135
5.53827e-05
9.29907e-05
5.7392e-05
7.34551e-05
5.86142e-05
5.37591e-05
5.90343e-05
3.41526e-05
5.8707e-05
1.49318e-05
5.75944e-05
-3.6477e-06
5.5789e-05
-2.15542e-05
5.35924e-05
-3.85081e-05
5.08486e-05
-5.44707e-05
4.78588e-05
-6.93301e-05
4.45854e-05
-8.30941e-05
4.12181e-05
-9.57113e-05
3.79744e-05
-0.000107214
3.45026e-05
-0.000117619
3.12345e-05
-0.000126958
2.80341e-05
-0.000135289
2.49934e-05
-0.00014267
2.2158e-05
-0.000149142
1.94041e-05
-0.000154773
1.69313e-05
-0.000159611
1.45074e-05
-0.00016369
1.22376e-05
-0.000167045
1.00551e-05
-0.000169713
8.03185e-06
-0.00017171
5.99922e-06
-0.000173111
4.10196e-06
-0.000173905
2.47627e-06
-0.000174112
6.24213e-07
-0.000173687
-1.21756e-06
-0.000172766
-2.79734e-06
-0.000171224
-4.62837e-06
-0.000169081
-6.40905e-06
-0.000166355
-8.20956e-06
-0.000163015
-1.00147e-05
-0.000159061
-1.18449e-05
-0.000154474
-1.37122e-05
-0.000149318
-1.55299e-05
-0.000143455
-1.75883e-05
-0.000136903
-1.96829e-05
-0.000129571
-2.20007e-05
-0.000121456
-2.43548e-05
-0.000112508
-2.69038e-05
-0.00010279
-2.90424e-05
-9.22634e-05
-3.15887e-05
-8.09598e-05
-3.38921e-05
-6.88188e-05
-3.6284e-05
-5.60023e-05
-3.85785e-05
-4.23128e-05
-4.10794e-05
-2.78826e-05
-4.32723e-05
-1.26896e-05
-4.55573e-05
3.1426e-06
-4.74562e-05
1.95472e-05
-4.9171e-05
3.63803e-05
-5.04516e-05
5.34541e-05
-5.11658e-05
7.05731e-05
-5.13396e-05
8.7588e-05
-5.10403e-05
0.000104207
-4.97874e-05
0.000120223
-4.7937e-05
0.000135274
-4.51418e-05
0.000149205
-4.17552e-05
0.000161725
-3.75138e-05
0.000172554
-3.24424e-05
0.000181531
-2.69213e-05
0.000188416
-2.06056e-05
0.000193062
-1.39269e-05
0.000195328
-6.8086e-06
0.000195101
6.71074e-07
0.000192373
8.13243e-06
0.000187129
1.57279e-05
0.000179554
2.27046e-05
0.000169724
2.94517e-05
0.000157874
3.54862e-05
0.000144211
4.0947e-05
0.000129015
4.55181e-05
0.000112549
4.93455e-05
9.51497e-05
5.21201e-05
7.7035e-05
5.42455e-05
5.8566e-05
5.53969e-05
3.99621e-05
5.57747e-05
2.14829e-05
5.53959e-05
3.3357e-06
5.43735e-05
-1.43041e-05
5.29176e-05
-3.12616e-05
5.08343e-05
-4.74218e-05
4.84793e-05
-6.26735e-05
4.57577e-05
-7.69969e-05
4.2892e-05
-9.03231e-05
4.0048e-05
-0.000102633
3.69265e-05
-0.000113925
3.39068e-05
-0.000124232
3.09126e-05
-0.000133536
2.79032e-05
-0.000141885
2.50408e-05
-0.00014931
2.23019e-05
-0.000155922
1.98526e-05
-0.000161693
1.73277e-05
-0.000166698
1.49972e-05
-0.000170978
1.28542e-05
-0.000174572
1.07662e-05
-0.000177488
8.81438e-06
-0.000179821
6.95793e-06
-0.000181527
5.11433e-06
-0.000182584
3.20288e-06
-0.000183185
1.79168e-06
-0.000183149
-1.19774e-07
-0.000182573
-1.7101e-06
-0.000181436
-3.49508e-06
-0.000179734
-5.01473e-06
-0.000177482
-6.77815e-06
-0.000174661
-8.45411e-06
-0.000171217
-1.03278e-05
-0.000167241
-1.19389e-05
-0.000162617
-1.38825e-05
-0.000157395
-1.56746e-05
-0.00015149
-1.77146e-05
-0.000144967
-1.95642e-05
-0.000137742
-2.16648e-05
-0.000129843
-2.36915e-05
-0.000121221
-2.58601e-05
-0.000111841
-2.81246e-05
-0.000101726
-3.03265e-05
-9.08238e-05
-3.26991e-05
-7.91372e-05
-3.50534e-05
-6.66581e-05
-3.73637e-05
-5.35218e-05
-3.93826e-05
-3.96315e-05
-4.16476e-05
-2.50674e-05
-4.36072e-05
-1.0146e-05
-4.47201e-05
5.40715e-06
-4.66144e-05
2.12236e-05
-4.74247e-05
3.727e-05
-4.80917e-05
5.33958e-05
-4.83415e-05
6.95371e-05
-4.83666e-05
8.53453e-05
-4.73989e-05
0.000100895
-4.66389e-05
0.000115783
-4.45983e-05
0.000130035
-4.26916e-05
0.000143313
-3.98153e-05
0.000155418
-3.62677e-05
0.000166212
-3.23286e-05
0.000175361
-2.73958e-05
0.000182578
-2.16086e-05
0.000187607
-1.50358e-05
0.000190289
-7.98116e-06
0.000190542
-7.43791e-07
0.000188127
7.22381e-06
0.000183134
1.49992e-05
0.000175509
2.28541e-05
0.000165597
2.96779e-05
0.000153536
3.61193e-05
0.00013965
4.1584e-05
0.000124247
4.61506e-05
0.000107759
4.94208e-05
9.04925e-05
5.17077e-05
7.27824e-05
5.30509e-05
5.48903e-05
5.3666e-05
3.71847e-05
5.30071e-05
1.97728e-05
5.22445e-05
3.06284e-06
5.00723e-05
-1.32111e-05
4.87902e-05
-2.86125e-05
4.61912e-05
-4.30755e-05
4.33768e-05
-5.65466e-05
4.04045e-05
-6.90238e-05
3.74264e-05
-8.04856e-05
3.43832e-05
-9.0952e-05
3.14024e-05
-0.000100485
2.86042e-05
-0.000109109
2.58867e-05
-0.000116906
2.33984e-05
-0.000123939
2.11064e-05
-0.000130283
1.90375e-05
-0.000135993
1.71428e-05
-0.000141132
1.54191e-05
-0.000145731
1.37972e-05
-0.000149834
1.23157e-05
-0.000153449
1.08445e-05
-0.000156592
9.42348e-06
-0.000159255
7.98196e-06
-0.000161406
6.44385e-06
-0.000163024
4.84174e-06
-0.000164059
3.10239e-06
-0.000164463
1.22539e-06
-0.000164153
-9.33639e-07
-0.000163061
-3.31422e-06
-0.000161123
-5.79581e-06
-0.000158344
-8.34457e-06
-0.000154593
-1.12597e-05
-0.000149896
-1.41022e-05
-0.000144225
-1.70076e-05
-0.000137483
-2.0222e-05
-0.000129745
-2.32137e-05
-0.000121059
-2.60518e-05
-0.000111271
-2.9358e-05
-0.000100547
-3.21789e-05
-8.87654e-05
-3.53197e-05
-7.61483e-05
-3.78443e-05
-6.27162e-05
-4.02888e-05
-4.84616e-05
-4.27358e-05
-3.35234e-05
-4.47859e-05
-1.80982e-05
-4.62578e-05
-2.18363e-06
-4.7708e-05
1.40191e-05
-4.85726e-05
3.04964e-05
-4.93938e-05
4.70045e-05
-4.94902e-05
6.33095e-05
-4.88909e-05
7.94055e-05
-4.82645e-05
9.51113e-05
-4.70982e-05
0.000110178
-4.51811e-05
0.000124505
-4.29581e-05
0.000137856
-4.00289e-05
0.000150084
-3.66687e-05
0.000161037
-3.28323e-05
0.000170517
-2.84091e-05
0.000178409
-2.36417e-05
0.000184587
-1.84929e-05
-1.34492e-05
-1.40121e-05
6.75977e-05
-3.01098e-05
6.43506e-05
-4.5416e-05
6.11908e-05
-5.98332e-05
5.76412e-05
-7.32409e-05
5.36085e-05
-8.56892e-05
4.97775e-05
-9.7116e-05
4.56945e-05
-0.000107578
4.18424e-05
-0.000117068
3.79652e-05
-0.000125597
3.412e-05
-0.00013322
3.04874e-05
-0.000139956
2.69567e-05
-0.000145826
2.34947e-05
-0.000150875
2.02142e-05
-0.000155141
1.70607e-05
-0.000158657
1.4058e-05
-0.000161439
1.11115e-05
-0.000163517
8.24559e-06
-0.00016487
5.45063e-06
-0.000165511
2.69402e-06
-0.000165459
-1.29326e-07
-0.000164713
-2.96155e-06
-0.000163319
-5.58268e-06
-0.000161157
-8.66696e-06
-0.000158307
-1.14277e-05
-0.000154688
-1.45328e-05
-0.000150302
-1.75208e-05
-0.00014516
-2.06005e-05
-0.000139091
-2.43319e-05
-0.000132169
-2.76489e-05
-0.000124463
-3.08274e-05
-0.000115725
-3.49551e-05
-0.000106113
-3.84638e-05
-9.54215e-05
-4.27569e-05
-8.37339e-05
-4.67522e-05
-7.11757e-05
-5.02085e-05
-5.75194e-05
-5.46234e-05
-4.29389e-05
-5.83663e-05
-2.74654e-05
-6.18141e-05
-1.10669e-05
-6.57618e-05
6.18447e-06
-6.87311e-05
2.41389e-05
-7.17289e-05
4.2701e-05
-7.41624e-05
6.15043e-05
-7.51263e-05
8.05532e-05
-7.60725e-05
9.96739e-05
-7.63628e-05
0.000118448
-7.49794e-05
0.000136773
-7.31495e-05
0.000154447
-7.05321e-05
0.000171053
-6.63359e-05
0.000186507
-6.16874e-05
0.000200466
-5.57253e-05
0.000212774
-4.90939e-05
0.00022324
-4.17239e-05
0.000231573
-3.33314e-05
0.000237738
-2.46047e-05
0.000241659
-1.55903e-05
0.00024303
-5.4855e-06
0.000241952
4.21357e-06
0.000238448
1.40068e-05
0.000232646
2.32108e-05
0.000224643
3.19916e-05
0.00021443
4.07557e-05
0.000202252
4.86012e-05
0.000188331
5.55521e-05
0.00017284
6.17234e-05
0.000156091
6.68523e-05
0.000138305
7.10589e-05
0.000119859
7.38515e-05
0.00010082
7.58804e-05
8.14591e-05
7.72616e-05
6.21465e-05
7.71701e-05
4.28902e-05
7.68702e-05
2.40854e-05
7.51789e-05
5.71666e-06
7.3335e-05
-1.19475e-05
7.05956e-05
-2.88311e-05
6.74315e-05
-4.49472e-05
6.44165e-05
-6.00815e-05
6.04887e-05
-7.41939e-05
5.64278e-05
-8.72999e-05
5.24094e-05
-9.93568e-05
4.81863e-05
-0.000110277
4.36992e-05
-0.000120111
3.93012e-05
-0.000128777
3.46845e-05
-0.000136373
3.03475e-05
-0.000142813
2.57456e-05
-0.000148174
2.1445e-05
-0.000152529
1.73968e-05
-0.000155893
1.34638e-05
-0.000158403
1.00338e-05
-0.000160063
6.61655e-06
-0.000160986
3.71825e-06
-0.000161227
8.35543e-07
-0.000160779
-1.81282e-06
-0.000159706
-4.36144e-06
-0.000158016
-6.80936e-06
-0.000155735
-9.30326e-06
-0.000152882
-1.13436e-05
-0.0001494
-1.39128e-05
-0.000145331