/*--------------------------------*- C++ -*----------------------------------*\
| =========                 |                                                 |
| \\      /  F ield         | OpenFOAM: The Open Source CFD Toolbox           |
|  \\    /   O peration     | Version:  3.0.1                                 |
|   \\  /    A nd           | Web:      www.OpenFOAM.org                      |
|    \\/     M anipulation  |                                                 |
\*---------------------------------------------------------------------------*/
FoamFile
{
    version     2.0;
    format      ascii;
    class       surfaceScalarField;
    location    "49.6";
    object      alphaPhi;
}
// * * * * * * * * * * * * * * * * * * * * * * * * * * * * * * * * * * * * * //

dimensions      [0 3 -1 0 0 0 0];

internalField   nonuniform List<scalar> 
42423
(
-0.000179541
-1.82862e-06
-0.000176915
-2.62616e-06
-0.000173588
-3.32703e-06
-0.00016952
-4.0684e-06
-0.00016456
-4.95914e-06
-0.000158843
-5.71763e-06
-0.000152054
-6.78842e-06
-0.000144536
-7.5181e-06
-0.000136127
-8.40939e-06
-0.000126735
-9.39184e-06
-0.000116402
-1.03336e-05
-0.000105059
-1.13426e-05
-9.26742e-05
-1.23848e-05
-7.92648e-05
-1.34095e-05
-6.47271e-05
-1.45377e-05
-4.93091e-05
-1.5418e-05
-3.31748e-05
-1.61343e-05
-1.61079e-05
-1.70669e-05
1.62654e-06
-1.77345e-05
1.98044e-05
-1.8178e-05
3.85185e-05
-1.87141e-05
5.75399e-05
-1.90214e-05
7.65294e-05
-1.89895e-05
9.53562e-05
-1.88269e-05
0.000113724
-1.83681e-05
0.000131431
-1.77065e-05
0.00014819
-1.67597e-05
0.000163652
-1.54613e-05
0.000177642
-1.39901e-05
0.000189906
-1.22641e-05
0.000200187
-1.02811e-05
0.000208406
-8.21968e-06
0.000214333
-5.92665e-06
0.000217837
-3.50457e-06
0.000218902
-1.0646e-06
0.000217433
1.46869e-06
0.000213518
3.91552e-06
0.000207286
6.23152e-06
0.000198633
8.65288e-06
0.000187995
1.06378e-05
0.000175481
1.25141e-05
0.000161351
1.41301e-05
0.000145798
1.55529e-05
0.000129016
1.67817e-05
0.000111359
1.76579e-05
9.31161e-05
1.82424e-05
7.44376e-05
1.86786e-05
5.55466e-05
1.8891e-05
3.67561e-05
1.87904e-05
1.82857e-05
1.84704e-05
1.3583e-07
1.81499e-05
-1.74378e-05
1.75736e-05
-3.43205e-05
1.68826e-05
-5.04457e-05
1.61252e-05
-6.5717e-05
1.52713e-05
-8.00694e-05
1.43524e-05
-9.35251e-05
1.34557e-05
-0.000105998
1.24729e-05
-0.000117486
1.14875e-05
-0.000128043
1.0557e-05
-0.000137636
9.59374e-06
-0.000146381
8.74429e-06
-0.000154186
7.80581e-06
-0.000161087
6.9007e-06
-0.000167164
6.07678e-06
-0.000172361
5.19732e-06
-0.000176703
4.34132e-06
-0.000180234
3.53184e-06
-0.000182879
2.64498e-06
-0.000184832
1.95227e-06
-0.000185936
1.10461e-06
-0.000186184
2.4781e-07
-0.000185781
-4.03578e-07
-0.000184517
-1.26341e-06
-0.000182362
-2.15567e-06
-0.000179523
-2.83851e-06
-0.00017577
-3.75357e-06
-0.000171228
-4.54153e-06
-0.000165902
-5.32664e-06
-0.000159656
-6.24609e-06
-0.000152704
-6.95169e-06
-0.00014489
-7.81448e-06
-0.000136263
-8.6268e-06
-0.000126854
-9.40915e-06
-0.000116583
-1.02716e-05
-0.000105455
-1.11278e-05
-9.34788e-05
-1.19766e-05
-8.07432e-05
-1.27359e-05
-6.71847e-05
-1.35586e-05
-5.2869e-05
-1.43159e-05
-3.78368e-05
-1.50323e-05
-2.20971e-05
-1.57398e-05
-5.86392e-06
-1.62333e-05
1.08778e-05
-1.67418e-05
2.80216e-05
-1.71439e-05
4.54413e-05
-1.74198e-05
6.29435e-05
-1.75023e-05
8.03969e-05
-1.74534e-05
9.7592e-05
-1.71952e-05
0.000114329
-1.67372e-05
0.000130423
-1.60936e-05
0.000145622
-1.51997e-05
0.000159722
-1.41001e-05
0.000172442
-1.27192e-05
0.000183597
-1.11553e-05
0.000192951
-9.35441e-06
0.000200353
-7.40145e-06
0.000205599
-5.24621e-06
0.000208562
-2.96313e-06
0.000209196
-6.33793e-07
0.000207469
1.72686e-06
0.000203246
4.22303e-06
0.000196653
6.59211e-06
0.000187785
8.86803e-06
0.000176767
1.10187e-05
0.000163814
1.29522e-05
0.000149109
1.47054e-05
0.000132918
1.61907e-05
0.000115557
1.73606e-05
9.72583e-05
1.82991e-05
7.83466e-05
1.89117e-05
5.90911e-05
1.92555e-05
3.9718e-05
1.93731e-05
2.04972e-05
1.92208e-05
1.67662e-06
1.88206e-05
-1.66258e-05
1.83025e-05
-3.41918e-05
1.7566e-05
-5.0884e-05
1.66922e-05
-6.66908e-05
1.58068e-05
-8.14167e-05
1.47259e-05
-9.50587e-05
1.3642e-05
-0.000107654
1.25951e-05
-0.000119127
1.14736e-05
-0.000129515
1.03876e-05
-0.00013883
9.31538e-06
-0.000147121
8.2906e-06
-0.000154417
7.29636e-06
-0.000160778
6.36077e-06
-0.000166248
5.47007e-06
-0.000170814
4.56532e-06
-0.00017466
3.84608e-06
-0.000177723
3.06279e-06
-0.000180116
2.39322e-06
-0.000181826
1.71015e-06
-0.000182924
1.09777e-06
-0.000183448
5.23912e-07
-0.000183379
-6.86825e-08
-0.000182754
-6.24576e-07
-0.000181532
-1.22277e-06
-0.000179812
-1.71953e-06
-0.00017751
-2.30251e-06
-0.00017459
-2.9193e-06
-0.000171048
-3.54267e-06
-0.000166866
-4.18222e-06
-0.000161985
-4.88044e-06
-0.000156366
-5.61892e-06
-0.000150025
-6.34089e-06
-0.000142871
-7.15462e-06
-0.000134946
-7.92448e-06
-0.000126115
-8.83108e-06
-0.000116556
-9.55974e-06
-0.000106134
-1.0422e-05
-9.48858e-05
-1.1248e-05
-8.27686e-05
-1.21173e-05
-6.98095e-05
-1.29592e-05
-5.60879e-05
-1.37217e-05
-4.15988e-05
-1.44892e-05
-2.63683e-05
-1.52306e-05
-1.05424e-05
-1.5826e-05
5.86221e-06
-1.64047e-05
2.26884e-05
-1.68263e-05
3.97919e-05
-1.71037e-05
5.69813e-05
-1.71894e-05
7.40635e-05
-1.70824e-05
9.07863e-05
-1.67229e-05
0.000106963
-1.61767e-05
0.000122326
-1.53636e-05
0.000136646
-1.43194e-05
0.000149639
-1.29933e-05
0.000161055
-1.14163e-05
0.000170668
-9.61276e-06
0.000178297
-7.62918e-06
0.000183719
-5.42185e-06
0.000186818
-3.09936e-06
0.00018755
-7.3245e-07
0.000185878
1.67167e-06
0.000181706
4.17282e-06
0.00017523
6.4752e-06
0.000166569
8.66069e-06
0.000155904
1.06656e-05
0.000143415
1.24884e-05
0.000129329
1.40859e-05
0.00011392
1.54095e-05
9.74258e-05
1.6494e-05
8.0162e-05
1.72638e-05
6.23275e-05
1.78345e-05
4.42e-05
1.81275e-05
2.60451e-05
1.81549e-05
8.03872e-06
1.80064e-05
-9.58507e-06
1.76238e-05
-2.66708e-05
1.70857e-05
-4.30677e-05
1.63969e-05
-5.86572e-05
1.55895e-05
-7.33728e-05
1.47156e-05
-8.71736e-05
1.38008e-05
-9.99619e-05
1.27883e-05
-0.000111791
1.18291e-05
-0.000122622
1.0831e-05
-0.000132506
9.88372e-06
-0.000141461
8.95493e-06
-0.000149559
8.09881e-06
-0.000156791
7.23108e-06
-0.00016324
6.44897e-06
-0.000168893
5.65384e-06
-0.000173768
4.87419e-06
-0.000177852
4.0845e-06
-0.000181183
3.33077e-06
-0.000183784
2.60101e-06
-0.000185769
1.98548e-06
-0.000187082
1.31264e-06
-0.000187773
6.9132e-07
-0.000187872
9.88797e-08
-0.000187389
-4.83117e-07
-0.000186317
-1.07225e-06
-0.000184651
-1.66579e-06
-0.00018236
-2.29134e-06
-0.000179414
-2.94582e-06
-0.000175795
-3.61866e-06
-0.000171624
-4.17138e-06
-0.000166726
-4.89818e-06
-0.000161292
-5.43367e-06
-0.000155199
-6.09313e-06
-0.000148424
-6.77568e-06
-0.000141014
-7.40946e-06
-0.000132952
-8.06243e-06
-0.000124196
-8.75554e-06
-0.000114728
-9.46863e-06
-0.000104525
-1.02026e-05
-9.35343e-05
-1.09908e-05
-8.18124e-05
-1.1722e-05
-6.93327e-05
-1.24798e-05
-5.61076e-05
-1.32251e-05
-4.22917e-05
-1.3816e-05
-2.77827e-05
-1.4509e-05
-1.26798e-05
-1.5103e-05
2.84652e-06
-1.55265e-05
1.87706e-05
-1.59241e-05
3.49792e-05
-1.62087e-05
5.12583e-05
-1.62792e-05
6.74198e-05
-1.61616e-05
8.32269e-05
-1.58072e-05
9.84645e-05
-1.52377e-05
0.000112876
-1.44119e-05
0.000126212
-1.3336e-05
0.000138221
-1.20089e-05
0.000148693
-1.04721e-05
0.000157403
-8.71041e-06
0.000164173
-6.76968e-06
0.000168818
-4.6456e-06
0.000171262
-2.44365e-06
0.000171453
-1.91724e-07
0.000169329
2.12448e-06
0.000164896
4.43251e-06
0.00015825
6.64526e-06
0.000149554
8.69654e-06
0.00013895
1.06031e-05
0.000126679
1.22706e-05
0.00011294
1.37397e-05
9.80738e-05
1.48656e-05
8.2229e-05
1.58447e-05
6.59313e-05
1.62975e-05
4.92566e-05
1.66747e-05
3.24994e-05
1.67571e-05
1.60792e-05
1.64202e-05
-1.18766e-09
1.60803e-05
-1.5376e-05
1.53748e-05
-3.0058e-05
1.4682e-05
-4.38121e-05
1.37541e-05
-5.65271e-05
1.2715e-05
-6.82384e-05
1.17113e-05
-7.88952e-05
1.06568e-05
-8.85338e-05
9.63862e-06
-9.72495e-05
8.7157e-06
-0.000105082
7.83281e-06
-0.000112163
7.08042e-06
-0.000118561
6.39798e-06
-0.000124302
5.74167e-06
-0.00012943
5.12732e-06
-0.000134015
4.5853e-06
-0.000137999
3.98378e-06
-0.000141494
3.49489e-06
-0.000144432
2.9379e-06
-0.000146848
2.41608e-06
-0.000148791
1.94316e-06
-0.000150205
1.41429e-06
-0.00015115
9.45165e-07
-0.000151715
5.64724e-07
-0.000151833
1.17845e-07
-0.000151498
-3.34499e-07
-0.000150833
-6.64957e-07
-0.000149624
-1.20973e-06
-0.000148031
-1.59309e-06
-0.000146076
-1.95453e-06
-0.000143517
-2.55891e-06
-0.000140449
-3.06779e-06
-0.000136858
-3.5911e-06
-0.000132556
-4.30256e-06
-0.000127603
-4.95242e-06
-0.000121836
-5.76752e-06
-0.000115406
-6.4302e-06
-0.000108065
-7.34031e-06
-9.98166e-05
-8.24866e-06
-9.07023e-05
-9.11431e-06
-8.06605e-05
-1.00418e-05
-6.96339e-05
-1.10266e-05
-5.7782e-05
-1.18519e-05
-4.49989e-05
-1.27831e-05
-3.13768e-05
-1.36221e-05
-1.70155e-05
-1.43614e-05
-1.94645e-06
-1.50691e-05
1.35983e-05
-1.55448e-05
2.94546e-05
-1.58563e-05
4.56316e-05
-1.61771e-05
6.18893e-05
-1.62577e-05
7.81343e-05
-1.62451e-05
9.41131e-05
-1.59788e-05
0.000109585
-1.54724e-05
0.000124399
-1.48131e-05
0.000138335
-1.39369e-05
0.000151185
-1.28498e-05
0.000162789
-1.16041e-05
0.000173018
-1.02285e-05
0.000181722
-8.70402e-06
0.000188742
-7.02043e-06
0.000193993
-5.25137e-06
0.000197461
-3.46744e-06
0.000199094
-1.6335e-06
0.000198844
2.50479e-07
0.000196728
2.11612e-06
0.000192774
3.95353e-06
0.000187073
5.70073e-06
0.000179875
7.19812e-06
0.000171198
8.67733e-06
0.000161295
9.90246e-06
0.000150258
1.10373e-05
0.000138194
1.20641e-05
0.000125389
1.28049e-05
0.000111939
1.34498e-05
9.79647e-05
1.39745e-05
8.36548e-05
1.43099e-05
6.91386e-05
1.45161e-05
5.45477e-05
1.45909e-05
3.99278e-05
1.46199e-05
2.53497e-05
1.4578e-05
1.10471e-05
1.43026e-05
-2.99558e-06
1.40427e-05
1.37429e-05
-0.000179574
-3.65156e-06
-0.000176951
-5.2494e-06
-0.000173627
-6.65086e-06
-0.000169563
-8.13254e-06
-0.000164607
-9.91514e-06
-0.000158891
-1.14341e-05
-0.000152105
-1.35741e-05
-0.000144589
-1.50349e-05
-0.000136178
-1.68196e-05
-0.000126789
-1.87812e-05
-0.000116454
-2.06686e-05
-0.000105115
-2.26823e-05
-9.27246e-05
-2.4775e-05
-7.93113e-05
-2.68229e-05
-6.47709e-05
-2.90781e-05
-4.93503e-05
-3.08387e-05
-3.32056e-05
-3.22792e-05
-1.61383e-05
-3.41343e-05
1.59816e-06
-3.54711e-05
1.97837e-05
-3.63636e-05
3.85086e-05
-3.74391e-05
5.75484e-05
-3.80614e-05
7.65476e-05
-3.79889e-05
9.53825e-05
-3.76618e-05
0.00011376
-3.6746e-05
0.00013148
-3.54266e-05
0.000148255
-3.35341e-05
0.000163727
-3.0934e-05
0.00017773
-2.7993e-05
0.000190008
-2.45426e-05
0.000200305
-2.05783e-05
0.000208531
-1.6445e-05
0.000214454
-1.18503e-05
0.000217963
-7.01325e-06
0.000219031
-2.13312e-06
0.000217552
2.94763e-06
0.000213632
7.83538e-06
0.000207397
1.24663e-05
0.00019874
1.73103e-05
0.000188092
2.12856e-05
0.00017557
2.5036e-05
0.000161429
2.82712e-05
0.000145865
3.11167e-05
0.000129072
3.3575e-05
0.000111401
3.53289e-05
9.31474e-05
3.64958e-05
7.44622e-05
3.73638e-05
5.5563e-05
3.77901e-05
3.67565e-05
3.75969e-05
1.82779e-05
3.69489e-05
1.23593e-07
3.63042e-05
-1.74586e-05
3.51558e-05
-3.43509e-05
3.3775e-05
-5.0483e-05
3.22573e-05
-6.57558e-05
3.05441e-05
-8.01143e-05
2.87109e-05
-9.35753e-05
2.69166e-05
-0.000106048
2.49454e-05
-0.000117544
2.29835e-05
-0.000128104
2.11169e-05
-0.000137701
1.91908e-05
-0.000146446
1.74897e-05
-0.000154254
1.56133e-05
-0.000161157
1.38045e-05
-0.000167234
1.21538e-05
-0.000172434
1.03966e-05
-0.000176781
8.68855e-06
-0.000180314
7.06479e-06
-0.000182954
5.28533e-06
-0.000184909
3.90644e-06
-0.000186008
2.20368e-06
-0.00018625
4.90409e-07
-0.000185847
-8.06581e-07
-0.000184583
-2.52767e-06
-0.000182432
-4.30676e-06
-0.000179587
-5.6837e-06
-0.000175831
-7.50923e-06
-0.000171291
-9.08243e-06
-0.000165965
-1.06523e-05
-0.000159722
-1.24894e-05
-0.000152762
-1.39115e-05
-0.000144943
-1.56337e-05
-0.000136316
-1.72545e-05
-0.000126909
-1.88159e-05
-0.000116635
-2.05464e-05
-0.000105504
-2.22586e-05
-9.35271e-05
-2.39538e-05
-8.07843e-05
-2.54789e-05
-6.72293e-05
-2.71138e-05
-5.29122e-05
-2.86332e-05
-3.78707e-05
-3.0074e-05
-2.21327e-05
-3.14779e-05
-5.89341e-06
-3.24728e-05
1.08602e-05
-3.34956e-05
2.80045e-05
-3.42883e-05
4.54279e-05
-3.48432e-05
6.29416e-05
-3.50161e-05
8.03965e-05
-3.49084e-05
9.75995e-05
-3.43983e-05
0.000114347
-3.34847e-05
0.00013045
-3.21964e-05
0.000145663
-3.04131e-05
0.000159779
-2.82161e-05
0.000172503
-2.54438e-05
0.00018368
-2.23323e-05
0.000193046
-1.87199e-05
0.000200454
-1.48102e-05
0.000205707
-1.04991e-05
0.00020868
-5.93609e-06
0.000209317
-1.27111e-06
0.000207569
3.47479e-06
0.000203345
8.4475e-06
0.000196753
1.3184e-05
0.000187877
1.77442e-05
0.000176848
2.20472e-05
0.000163889
2.59113e-05
0.000149155
2.94397e-05
0.000132948
3.23971e-05
0.000115572
3.47367e-05
9.7258e-05
3.66132e-05
7.83236e-05
3.78461e-05
5.90505e-05
3.85285e-05
3.96608e-05
3.87628e-05
2.04291e-05
3.84526e-05
1.5951e-06
3.76546e-05
-1.67132e-05
3.66108e-05
-3.42945e-05
3.51474e-05
-5.10177e-05
3.34154e-05
-6.68137e-05
3.16028e-05
-8.15472e-05
2.94594e-05
-9.52127e-05
2.73076e-05
-0.000107792
2.51744e-05
-0.000119274
2.29554e-05
-0.000129667
2.07811e-05
-0.000138983
1.86308e-05
-0.000147277
1.65847e-05
-0.000154572
1.45912e-05
-0.000160929
1.27186e-05
-0.000166395
1.09355e-05
-0.000170989
9.15966e-06
-0.000174815
7.67198e-06
-0.000177854
6.1016e-06
-0.000180267
4.80654e-06
-0.000181972
3.4151e-06
-0.000183075
2.20024e-06
-0.000183594
1.04302e-06
-0.00018353
-1.32388e-07
-0.000182899
-1.25555e-06
-0.000181677
-2.44543e-06
-0.000179953
-3.4433e-06
-0.000177646
-4.6095e-06
-0.000174734
-5.8315e-06
-0.000171187
-7.0892e-06
-0.000167004
-8.36558e-06
-0.000162122
-9.76229e-06
-0.000156509
-1.12321e-05
-0.000150162
-1.26882e-05
-0.000142997
-1.43194e-05
-0.000135069
-1.58522e-05
-0.000126243
-1.76578e-05
-0.000116681
-1.91211e-05
-0.000106252
-2.08517e-05
-9.49936e-05
-2.25064e-05
-8.28758e-05
-2.42351e-05
-6.99184e-05
-2.59167e-05
-5.61823e-05
-2.74579e-05
-4.16957e-05
-2.8976e-05
-2.64621e-05
-3.04643e-05
-1.06188e-05
-3.16694e-05
5.80024e-06
-3.28239e-05
2.26413e-05
-3.36675e-05
3.97543e-05
-3.42169e-05
5.6954e-05
-3.43893e-05
7.40517e-05
-3.41803e-05
9.07934e-05
-3.34648e-05
0.000106984
-3.23674e-05
0.00012236
-3.07399e-05
0.000136689
-2.86485e-05
0.000149691
-2.59956e-05
0.000161133
-2.2858e-05
0.000170762
-1.92425e-05
0.000178393
-1.526e-05
0.000183826
-1.08548e-05
0.000186922
-6.19573e-06
0.000187654
-1.46496e-06
0.000185967
3.35863e-06
0.000181803
8.33719e-06
0.000175322
1.29558e-05
0.00016665
1.73327e-05
0.000155968
2.13472e-05
0.000143464
2.4993e-05
0.000129364
2.8186e-05
0.000113937
3.08357e-05
9.74205e-05
3.30108e-05
8.01405e-05
3.45438e-05
6.22946e-05
3.56804e-05
4.41532e-05
3.62688e-05
2.59821e-05
3.6326e-05
7.96465e-06
3.60239e-05
-9.67586e-06
3.52643e-05
-2.67701e-05
3.418e-05
-4.31766e-05
3.28034e-05
-5.87749e-05
3.11878e-05
-7.34995e-05
2.94402e-05
-8.731e-05
2.76113e-05
-0.000100099
2.55774e-05
-0.000111925
2.36554e-05
-0.000122765
2.16709e-05
-0.000132654
1.97724e-05
-0.000141612
1.79126e-05
-0.00014971
1.61976e-05
-0.000156947
1.44673e-05
-0.000163391
1.28933e-05
-0.000169041
1.13039e-05
-0.000173917
9.75011e-06
-0.000178006
8.17351e-06
-0.000181334
6.65893e-06
-0.000183931
5.19773e-06
-0.000185917
3.9716e-06
-0.000187233
2.62842e-06
-0.000187925
1.38369e-06
-0.000188022
1.95931e-07
-0.000187544
-9.60918e-07
-0.000186467
-2.14958e-06
-0.000184789
-3.34403e-06
-0.000182503
-4.57679e-06
-0.000179551
-5.89842e-06
-0.000175932
-7.23772e-06
-0.000171759
-8.34399e-06
-0.000166893
-9.76489e-06
-0.000161434
-1.0892e-05
-0.000155319
-1.22087e-05
-0.00014854
-1.3554e-05
-0.000141131
-1.48195e-05
-0.000133056
-1.61366e-05
-0.000124312
-1.74997e-05
-0.000114841
-1.89396e-05
-0.00010463
-2.04141e-05
-9.36302e-05
-2.19906e-05
-8.19114e-05
-2.34409e-05
-6.94298e-05
-2.49615e-05
-5.61951e-05
-2.64598e-05
-4.23789e-05
-2.76323e-05
-2.78624e-05
-2.90256e-05
-1.27434e-05
-3.02221e-05
2.78411e-06
-3.1054e-05
1.87189e-05
-3.18591e-05
3.49397e-05
-3.24296e-05
5.12285e-05
-3.25682e-05
6.74122e-05
-3.23454e-05
8.32404e-05
-3.16355e-05
9.84859e-05
-3.04833e-05
0.000112912
-2.88377e-05
0.000126257
-2.66817e-05
0.000138277
-2.40289e-05
0.000148759
-2.09546e-05
0.000157476
-1.7427e-05
0.000164248
-1.3542e-05
0.000168904
-9.30191e-06
0.000171351
-4.89048e-06
0.000171531
-3.72389e-07
0.000169399
4.25633e-06
0.000164967
8.86375e-06
0.000158337
1.32749e-05
0.000149614
1.74197e-05
0.000138992
2.12253e-05
0.000126716
2.4546e-05
0.000112971
2.74843e-05
9.80973e-05
2.97391e-05
8.22566e-05
3.16854e-05
6.59361e-05
3.26179e-05
4.92506e-05
3.33602e-05
3.24964e-05
3.35113e-05
1.60536e-05
3.28629e-05
-3.5516e-08
3.21695e-05
-1.54214e-05
3.07607e-05
-3.01081e-05
2.93687e-05
-4.38689e-05
2.75149e-05
-5.65915e-05
2.54376e-05
-6.83042e-05
2.3424e-05
-7.89626e-05
2.13151e-05
-8.85998e-05
1.92759e-05
-9.7318e-05
1.74339e-05
-0.000105145
1.56601e-05
-0.000112219
1.41546e-05
-0.000118614
1.27929e-05
-0.000124352
1.14793e-05
-0.000129475
1.02503e-05
-0.000134057
9.16773e-06
-0.000138039
7.9652e-06
-0.000141534
6.98975e-06
-0.000144474
5.87793e-06
-0.000146888
4.83015e-06
-0.000148834
3.88903e-06
-0.000150245
2.82549e-06
-0.000151197
1.89751e-06
-0.000151764
1.13113e-06
-0.000151876
2.30531e-07
-0.000151546
-6.6508e-07
-0.000150881
-1.32979e-06
-0.000149668
-2.42218e-06
-0.000148078
-3.18372e-06
-0.000146124
-3.90817e-06
-0.000143569
-5.11401e-06
-0.000140499
-6.13764e-06
-0.000136909
-7.18145e-06
-0.000132603
-8.60888e-06
-0.000127657
-9.89859e-06
-0.000121899
-1.15251e-05
-0.000115445
-1.28847e-05
-0.000108118
-1.46665e-05
-9.98663e-05
-1.65008e-05
-9.07447e-05
-1.8236e-05
-8.07129e-05
-2.00736e-05
-6.96839e-05
-2.20556e-05
-5.7831e-05
-2.37049e-05
-4.50423e-05
-2.55718e-05
-3.14034e-05
-2.7261e-05
-1.70466e-05
-2.87182e-05
-1.97314e-06
-3.01426e-05
1.35772e-05
-3.10951e-05
2.94405e-05
-3.17197e-05
4.56264e-05
-3.23631e-05
6.1892e-05
-3.25233e-05
7.81502e-05
-3.25033e-05
9.41451e-05
-3.19738e-05
0.000109624
-3.09517e-05
0.000124441
-2.96301e-05
0.000138388
-2.78835e-05
0.000151253
-2.57149e-05
0.000162873
-2.3224e-05
0.000173106
-2.04621e-05
0.000181809
-1.74068e-05
0.000188842
-1.40531e-05
0.000194109
-1.05184e-05
0.000197572
-6.93142e-06
0.000199198
-3.25962e-06
0.000198943
5.05689e-07
0.000196823
4.23634e-06
0.000192865
7.91127e-06
0.000187159
1.14073e-05
0.000179952
1.44047e-05
0.000171269
1.73605e-05
0.000161358
1.98132e-05
0.000150314
2.20816e-05
0.00013824
2.41378e-05
0.000125427
2.56182e-05
0.000111968
2.69081e-05
9.79878e-05
2.79549e-05
8.3671e-05
2.86267e-05
6.91467e-05
2.90404e-05
5.45504e-05
2.91872e-05
3.99268e-05
2.92434e-05
2.53422e-05
2.91626e-05
1.10344e-05
2.86104e-05
-3.01281e-06
2.80898e-05
2.74893e-05
-0.00017963
-5.47386e-06
-0.000177009
-7.87118e-06
-0.000173686
-9.97382e-06
-0.000169624
-1.21941e-05
-0.000164672
-1.48672e-05
-0.000158957
-1.71496e-05
-0.000152178
-2.03525e-05
-0.000144664
-2.2549e-05
-0.00013625
-2.52339e-05
-0.00012686
-2.81711e-05
-0.000116527
-3.10012e-05
-0.000105199
-3.40105e-05
-9.27993e-05
-3.7175e-05
-7.93804e-05
-4.02419e-05
-6.48391e-05
-4.36195e-05
-4.94206e-05
-4.62572e-05
-3.32661e-05
-4.84337e-05
-1.61876e-05
-5.12129e-05
1.56506e-06
-5.32239e-05
1.97678e-05
-5.45664e-05
3.85104e-05
-5.61818e-05
5.75643e-05
-5.71154e-05
7.65809e-05
-5.70056e-05
9.54433e-05
-5.65243e-05
0.000113835
-5.51373e-05
0.000131574
-5.31656e-05
0.000148372
-5.03328e-05
0.000163864
-4.64256e-05
0.000177892
-4.20209e-05
0.000190193
-3.6844e-05
0.000200497
-3.08826e-05
0.00020873
-2.46776e-05
0.000214666
-1.77864e-05
0.000218184
-1.05313e-05
0.000219252
-3.20099e-06
0.000217744
4.45475e-06
0.00021381
1.17701e-05
0.000207564
1.8712e-05
0.000198902
2.59719e-05
0.000188237
3.19506e-05
0.000175701
3.75717e-05
0.00016154
4.24318e-05
0.000145957
4.66997e-05
0.000129144
5.03886e-05
0.000111451
5.30221e-05
9.3175e-05
5.47713e-05
7.44795e-05
5.60593e-05
5.55787e-05
5.66909e-05
3.67328e-05
5.64427e-05
1.8234e-05
5.54478e-05
7.6219e-08
5.44619e-05
-1.75164e-05
5.27484e-05
-3.44168e-05
5.06753e-05
-5.05569e-05
4.83974e-05
-6.58336e-05
4.58209e-05
-8.01984e-05
4.30756e-05
-9.36618e-05
4.038e-05
-0.000106132
3.74158e-05
-0.000117632
3.44837e-05
-0.000128193
3.16774e-05
-0.000137792
2.87903e-05
-0.000146536
2.62331e-05
-0.00015434
2.34176e-05
-0.00016124
2.07045e-05
-0.000167315
1.8229e-05
-0.00017251
1.55917e-05
-0.000176865
1.30431e-05
-0.000180398
1.05979e-05
-0.000183029
7.91626e-06
-0.000184998
5.87539e-06
-0.000186091
3.29693e-06
-0.000186314
7.12608e-07
-0.000185911
-1.20935e-06
-0.000184645
-3.7937e-06
-0.000182504
-6.44825e-06
-0.000179656
-8.53143e-06
-0.000175896
-1.12695e-05
-0.00017136
-1.36183e-05
-0.000166033
-1.59797e-05
-0.000159797
-1.87253e-05
-0.000152839
-2.087e-05
-0.000145012
-2.34606e-05
-0.000136391
-2.58757e-05
-0.000126981
-2.82255e-05
-0.000116708
-3.08196e-05
-0.000105583
-3.33838e-05
-9.3605e-05
-3.59324e-05
-8.08763e-05
-3.82077e-05
-6.73229e-05
-4.06675e-05
-5.29953e-05
-4.29609e-05
-3.79548e-05
-4.51146e-05
-2.22348e-05
-4.7198e-05
-5.97546e-06
-4.87322e-05
1.07851e-05
-5.02562e-05
2.7935e-05
-5.14383e-05
4.53644e-05
-5.22728e-05
6.28838e-05
-5.25356e-05
8.03504e-05
-5.2375e-05
9.75794e-05
-5.16274e-05
0.000114333
-5.02381e-05
0.00013045
-4.83134e-05
0.000145667
-4.56309e-05
0.000159801
-4.23494e-05
0.000172546
-3.81894e-05
0.000183755
-3.35407e-05
0.000193126
-2.8091e-05
0.000200544
-2.22283e-05
0.000205833
-1.57881e-05
0.000208802
-8.90533e-06
0.00020943
-1.89928e-06
0.00020766
5.24497e-06
0.000203434
1.26725e-05
0.000196837
1.97817e-05
0.000187946
2.66348e-05
0.000176906
3.30874e-05
0.000163904
3.89124e-05
0.000149173
4.41713e-05
0.000132944
4.86262e-05
0.000115543
5.21371e-05
9.72347e-05
5.49219e-05
7.82396e-05
5.68412e-05
5.89516e-05
5.78165e-05
3.95505e-05
5.81639e-05
2.03053e-05
5.76978e-05
1.44834e-06
5.65116e-05
-1.68724e-05
5.49315e-05
-3.44767e-05
5.27517e-05
-5.12236e-05
5.01624e-05
-6.70056e-05
4.73848e-05
-8.17511e-05
4.42049e-05
-9.54298e-05
4.09864e-05
-0.000108003
3.77481e-05
-0.000119474
3.44261e-05
-0.000129869
3.11761e-05
-0.000139181
2.7943e-05
-0.000147477
2.48805e-05
-0.000154768
2.18825e-05
-0.000161129
1.90793e-05
-0.000166593
1.63997e-05
-0.000171209
1.37758e-05
-0.000175006
1.14686e-05
-0.000178039
9.13489e-06
-0.000180449
7.2162e-06
-0.000182148
5.11427e-06
-0.00018325
3.30199e-06
-0.000183766
1.55968e-06
-0.000183708
-1.91116e-07
-0.000183069
-1.89468e-06
-0.000181846
-3.66764e-06
-0.000180125
-5.16512e-06
-0.00017781
-6.92371e-06
-0.000174904
-8.73845e-06
-0.000171363
-1.06294e-05
-0.000167184
-1.25451e-05
-0.000162308
-1.46384e-05
-0.000156699
-1.68406e-05
-0.000150341
-1.90469e-05
-0.000143176
-2.14846e-05
-0.000135243
-2.37851e-05
-0.000126464
-2.6437e-05
-0.000116861
-2.87233e-05
-0.000106434
-3.12792e-05
-9.51744e-05
-3.37659e-05
-8.30497e-05
-3.636e-05
-7.00956e-05
-3.88708e-05
-5.63428e-05
-4.12108e-05
-4.18594e-05
-4.34595e-05
-2.66367e-05
-4.56871e-05
-1.07748e-05
-4.75313e-05
5.66924e-06
-4.92681e-05
2.25257e-05
-5.0524e-05
3.96471e-05
-5.13385e-05
5.68637e-05
-5.1606e-05
7.39801e-05
-5.12968e-05
9.07425e-05
-5.02273e-05
0.000106957
-4.85815e-05
0.000122354
-4.61372e-05
0.000136704
-4.29985e-05
0.000149729
-3.90208e-05
0.000161185
-3.43145e-05
0.000170825
-2.88829e-05
0.000178473
-2.29083e-05
0.000183938
-1.63193e-05
0.000187039
-9.29662e-06
0.000187766
-2.19216e-06
0.000186039
5.08555e-06
0.000181882
1.24934e-05
0.000175407
1.94311e-05
0.000166714
2.60252e-05
0.000156013
3.20484e-05
0.000143487
3.75194e-05
0.000129372
4.23003e-05
0.000113927
4.62805e-05
9.73895e-05
4.95486e-05
8.00853e-05
5.18479e-05
6.22119e-05
5.35538e-05
4.40513e-05
5.44294e-05
2.58633e-05
5.4514e-05
7.83379e-06
5.40534e-05
-9.83852e-06
5.29367e-05
-2.69432e-05
5.12847e-05
-4.33599e-05
4.92201e-05
-5.89596e-05
4.67875e-05
-7.36822e-05
4.41629e-05
-8.74958e-05
4.14249e-05
-0.000100291
3.83727e-05
-0.000112113
3.54779e-05
-0.000122964
3.25219e-05
-0.000132854
2.9662e-05
-0.000141815
2.68739e-05
-0.00014991
2.42922e-05
-0.000157136
2.16932e-05
-0.000163576
1.93334e-05
-0.000169224
1.6952e-05
-0.000174102
1.46285e-05
-0.000178195
1.22663e-05
-0.000181517
9.98061e-06
-0.000184107
7.78774e-06
-0.000186092
5.95654e-06
-0.000187404
3.94043e-06
-0.000188091
2.07085e-06
-0.000188194
2.99224e-07
-0.000187714
-1.44163e-06
-0.000186638
-3.22544e-06
-0.000184923
-5.05904e-06
-0.000182681
-6.81884e-06
-0.000179729
-8.85027e-06
-0.000176135
-1.0832e-05
-0.000171926
-1.25527e-05
-0.000167072
-1.46188e-05
-0.000161606
-1.6358e-05
-0.000155485
-1.83299e-05
-0.00014869
-2.03488e-05
-0.000141282
-2.2228e-05
-0.000133208
-2.42102e-05
-0.000124474
-2.62334e-05
-0.000115004
-2.84102e-05
-0.000104795
-3.06233e-05
-9.37665e-05
-3.30188e-05
-8.20809e-05
-3.51264e-05
-6.96019e-05
-3.74406e-05
-5.63631e-05
-3.96988e-05
-4.2543e-05
-4.14524e-05
-2.80197e-05
-4.3549e-05
-1.29381e-05
-4.53038e-05
2.64581e-06
-4.66381e-05
1.85908e-05
-4.78041e-05
3.48312e-05
-4.86701e-05
5.11395e-05
-4.88765e-05
6.73485e-05
-4.85545e-05
8.32046e-05
-4.74917e-05
9.84626e-05
-4.57414e-05
0.000112902
-4.32774e-05
0.000126264
-4.00432e-05
0.000138307
-3.60729e-05
0.000148817
-3.14645e-05
0.000157528
-2.61385e-05
0.000164318
-2.03317e-05
0.000168988
-1.39722e-05
0.000171443
-7.3452e-06
0.000171614
-5.44296e-07
0.00016947
6.40033e-06
0.000165057
1.32768e-05
0.000158436
1.98956e-05
0.000149698
2.61576e-05
0.000139055
3.1868e-05
0.000126773
3.68274e-05
0.000113012
4.12454e-05
9.81193e-05
4.46315e-05
8.22926e-05
4.75119e-05
6.59322e-05
4.89781e-05
4.92322e-05
5.00601e-05
3.2488e-05
5.02553e-05
1.60025e-05
4.93484e-05
-1.0158e-07
4.82736e-05
-1.54995e-05
4.61586e-05
-3.01894e-05
4.40586e-05
-4.39618e-05
4.12873e-05
-5.66947e-05
3.81706e-05
-6.84071e-05
3.51363e-05
-7.90659e-05
3.1974e-05
-8.86973e-05
2.89073e-05
-9.74082e-05
2.61447e-05
-0.000105223
2.34748e-05
-0.000112292
2.1224e-05
-0.00011868
1.91808e-05
-0.000124407
1.72057e-05
-0.000129526
1.53694e-05
-0.000134104
1.37462e-05
-0.000138079
1.19405e-05
-0.000141573
1.04838e-05
-0.000144513
8.81783e-06
-0.000146923
7.23969e-06
-0.000148867
5.83289e-06
-0.000150282
4.24054e-06
-0.000151238
2.85355e-06
-0.0001518
1.69356e-06
-0.000151907
3.36975e-07
-0.000151582
-9.89642e-07
-0.000150917
-1.9951e-06
-0.000149702
-3.63732e-06
-0.000148113
-4.77196e-06
-0.000146164
-5.85806e-06
-0.000143617
-7.66028e-06
-0.000140546
-9.20918e-06
-0.000136959
-1.07685e-05
-0.000132652
-1.29156e-05
-0.000127715
-1.4836e-05
-0.000121976
-1.72642e-05
-0.000115496
-1.93639e-05
-0.000108184
-2.19785e-05
-9.99315e-05
-2.47536e-05
-9.08079e-05
-2.73595e-05
-8.07848e-05
-3.00968e-05
-6.97554e-05
-3.30851e-05
-5.79027e-05
-3.55576e-05
-4.51082e-05
-3.83663e-05
-3.14523e-05
-4.0917e-05
-1.70959e-05
-4.30747e-05
-2.01106e-06
-4.52274e-05
1.35523e-05
-4.66586e-05
2.94314e-05
-4.75988e-05
4.56351e-05
-4.85669e-05
6.19142e-05
-4.88025e-05
7.81904e-05
-4.87795e-05
9.42004e-05
-4.79839e-05
0.000109699
-4.64506e-05
0.00012454
-4.44703e-05
0.000138507
-4.18509e-05
0.000151389
-3.85975e-05
0.000163014
-3.48488e-05
0.00017326
-3.07081e-05
0.00018198
-2.6127e-05
0.000189029
-2.11021e-05
0.000194291
-1.57803e-05
0.00019776
-1.04e-05
0.0001994
-4.89973e-06
0.000199119
7.86568e-07
0.000196974
6.38129e-06
0.000193005
1.18799e-05
0.000187287
1.71257e-05
0.000180062
2.16296e-05
0.000171369
2.60534e-05
0.000161444
2.97378e-05
0.000150389
3.31363e-05
0.000138301
3.62262e-05
0.000125475
3.84442e-05
0.000112004
4.0379e-05
9.80159e-05
4.1943e-05
8.36899e-05
4.29526e-05
6.91521e-05
4.35781e-05
5.45481e-05
4.37912e-05
3.99205e-05
4.3871e-05
2.53251e-05
4.3758e-05
1.10083e-05
4.29272e-05
-3.04788e-06
4.21459e-05
4.1242e-05
-0.000179714
-7.29496e-06
-0.000177095
-1.04909e-05
-0.000173773
-1.32954e-05
-0.000169715
-1.62518e-05
-0.000164769
-1.98135e-05
-0.000159055
-2.28636e-05
-0.000152288
-2.71195e-05
-0.000144778
-3.00598e-05
-0.000136357
-3.36544e-05
-0.000126968
-3.756e-05
-0.000116636
-4.13334e-05
-0.000105331
-4.53153e-05
-9.29122e-05
-4.95943e-05
-7.94834e-05
-5.36707e-05
-6.4942e-05
-5.8161e-05
-4.95264e-05
-6.16729e-05
-3.33575e-05
-6.46028e-05
-1.62617e-05
-6.83087e-05
1.51591e-06
-7.10016e-05
1.97478e-05
-7.27984e-05
3.85146e-05
-7.49487e-05
5.75945e-05
-7.61953e-05
7.66363e-05
-7.60475e-05
9.55245e-05
-7.54126e-05
0.000113949
-7.3562e-05
0.000131724
-7.09408e-05
0.00014856
-6.71685e-05
0.000164077
-6.19434e-05
0.000178134
-5.60781e-05
0.000190466
-4.91752e-05
0.000200793
-4.12102e-05
0.000209038
-3.29223e-05
0.000214985
-2.37334e-05
0.000218509
-1.40551e-05
0.000219575
-4.26705e-06
0.000218043
5.9863e-06
0.000214079
1.57335e-05
0.000207815
2.49761e-05
0.000199145
3.46417e-05
0.000188454
4.26418e-05
0.000175897
5.01287e-05
0.000161707
5.66218e-05
0.000146095
6.23114e-05
0.000129252
6.72324e-05
0.000111525
7.07482e-05
9.32162e-05
7.30805e-05
7.45045e-05
7.4771e-05
5.56028e-05
7.55926e-05
3.66976e-05
7.5348e-05
1.81695e-05
7.39758e-05
5.0598e-09
7.26264e-05
-1.76045e-05
7.0358e-05
-3.45199e-05
6.75906e-05
-5.06717e-05
6.45492e-05
-6.59525e-05
6.11016e-05
-8.03267e-05
5.74499e-05
-9.37934e-05
5.38467e-05
-0.000106262
4.98847e-05
-0.000117772
4.59937e-05
-0.000128334
4.22389e-05
-0.000137934
3.83906e-05
-0.000146673
3.49719e-05
-0.000154468
3.12123e-05
-0.000161373
2.76099e-05
-0.000167451
2.4307e-05
-0.000172638
2.07785e-05
-0.000176997
1.74016e-05
-0.000180531
1.41326e-05
-0.00018315
1.05349e-05
-0.000185131
7.85646e-06
-0.00018622
4.38585e-06
-0.000186421
9.1333e-07
-0.000186012
-1.61797e-06
-0.000184736
-5.06969e-06
-0.000182614
-8.57054e-06
-0.00017976
-1.13857e-05
-0.000175993
-1.50359e-05
-0.000171469
-1.81433e-05
-0.000166136
-2.13124e-05
-0.000159916
-2.49455e-05
-0.000152956
-2.78296e-05
-0.000145121
-3.12965e-05
-0.000136512
-3.44848e-05
-0.000127097
-3.76403e-05
-0.000116828
-4.10887e-05
-0.000105713
-4.44991e-05
-9.37417e-05
-4.79041e-05
-8.10238e-05
-5.09258e-05
-6.74723e-05
-5.42192e-05
-5.31435e-05
-5.72898e-05
-3.80976e-05
-6.01607e-05
-2.23991e-05
-6.28966e-05
-6.12013e-06
-6.50113e-05
1.06544e-05
-6.70308e-05
2.7807e-05
-6.8591e-05
4.52406e-05
-6.97064e-05
6.27759e-05
-7.0071e-05
8.02687e-05
-6.98679e-05
9.75124e-05
-6.88711e-05
0.000114292
-6.70176e-05
0.000130455