/*--------------------------------*- C++ -*----------------------------------*\
| =========                 |                                                 |
| \\      /  F ield         | OpenFOAM: The Open Source CFD Toolbox           |
|  \\    /   O peration     | Version:  3.0.1                                 |
|   \\  /    A nd           | Web:      www.OpenFOAM.org                      |
|    \\/     M anipulation  |                                                 |
\*---------------------------------------------------------------------------*/
FoamFile
{
    version     2.0;
    format      ascii;
    class       volScalarField;
    location    "36.2";
    object      p_rgh;
}
// * * * * * * * * * * * * * * * * * * * * * * * * * * * * * * * * * * * * * //

dimensions      [1 -1 -2 0 0 0 0];

internalField   nonuniform List<scalar> 
21420
(
49.0687
20.2085
-7.14211
-24.3451
-50.4596
-76.5836
-101.55
-125.015
-146.821
-166.918
-185.311
-202.018
-217.08
-230.547
-242.471
-252.907
-261.904
-269.51
-275.766
-280.706
-284.352
-286.724
-287.813
-287.596
-286.064
-283.239
-279.03
-273.4
-266.308
-257.69
-247.485
-235.634
-222.07
-206.737
-189.576
-170.536
-149.603
-126.774
-102.057
-75.5103
-47.2369
-17.3589
13.698
45.864
79.2176
113.321
147.796
182.305
216.413
249.678
281.705
312.048
340.3
366.059
388.963
408.694
424.979
437.591
446.356
451.153
451.84
448.571
441.261
430.018
415.043
396.524
374.734
349.986
322.622
293.011
261.541
228.637
194.71
160.16
125.373
90.7186
56.5281
23.0907
-9.24667
-40.4629
-70.3415
-98.7353
-125.532
-150.654
-174.049
-195.677
-215.514
-233.538
-249.739
-264.117
-276.677
-287.429
-296.388
-303.582
-309.045
-312.823
-314.957
-315.461
-314.354
-311.718
-307.53
-301.793
-294.491
-285.606
-275.106
-262.959
-249.134
-233.601
-216.346
-197.362
-176.658
-154.261
-130.221
-104.609
-77.5186
-49.0811
-19.46
11.12
43.3729
75.4204
107.922
140.554
172.999
204.928
235.993
265.832
294.07
320.325
344.22
365.389
383.489
398.207
409.276
416.484
419.627
418.674
413.572
404.397
391.2
374.18
353.573
329.668
302.801
273.353
241.738
208.398
173.787
138.368
102.598
66.9217
31.7758
-2.49567
-35.5334
-67.0531
-96.8276
-124.686
-150.511
-174.238
-195.848
-215.356
-232.811
-248.282
-261.853
-273.617
-283.665
-292.088
-298.968
-304.379
-308.382
-311.049
-312.396
-312.439
-311.256
-308.829
-305.17
-300.268
-294.118
-286.699
-277.984
-267.944
-256.539
-243.725
-229.455
-213.685
-196.369
-177.476
-156.979
-134.853
-111.1
-85.7492
-58.8624
-30.5368
-0.912846
29.7895
61.9045
94.152
126.774
159.375
191.553
222.879
252.913
281.208
307.32
330.827
351.327
368.458
381.908
391.426
396.833
397.946
394.89
387.613
376.255
361.018
342.179
320.068
295.064
267.585
238.076
206.989
174.777
141.88
108.715
75.6661
43.0805
11.2483
-19.5743
-49.1727
-77.3773
-104.059
-129.123
-152.512
-174.198
-194.172
-212.453
-229.073
-244.069
-257.489
-269.38
-279.789
-288.761
-296.335
-302.54
-307.4
-310.939
-313.176
-314.099
-313.689
-311.998
-308.979
-304.611
-298.863
-291.702
-283.092
-272.994
-261.377
-248.205
-233.45
-217.104
-199.162
-179.624
-158.51
-135.861
-111.734
-86.2008
-59.3558
-31.3345
-2.31785
27.4735
58.7714
90.0293
121.391
152.53
183.092
212.719
241.045
267.676
292.231
314.298
333.525
349.553
362.083
370.88
375.761
376.615
373.328
366.439
355.828
341.399
323.265
301.581
276.635
248.845
218.681
186.636
153.26
119.056
84.6016
50.4539
15.8804
-19.5167
-53.1979
-84.8806
-114.588
-142.315
-168.021
-191.695
-213.358
-233.02
-250.724
-266.505
-280.411
-292.501
-302.831
-311.463
-318.459
-323.875
-327.779
-330.263
-331.334
-330.941
-329.286
-326.339
-322.029
-316.324
-309.15
-300.455
-290.194
-278.305
-264.731
-249.429
-232.369
-213.521
-192.885
-170.483
-146.339
-120.528
-93.1221
-64.2143
-33.9702
-2.55613
29.8476
63.0033
96.6239
130.35
163.842
196.745
228.589
258.923
287.322
313.325
336.529
356.551
373.073
385.851
394.663
399.318
49.0237
20.1501
-7.22205
-24.3814
-50.5223
-76.658
-101.629
-125.095
-146.9
-166.995
-185.385
-202.089
-217.147
-230.612
-242.533
-252.966
-261.961
-269.565
-275.819
-280.757
-284.402
-286.774
-287.863
-287.647
-286.117
-283.293
-279.086
-273.458
-266.369
-257.754
-247.551
-235.703
-222.143
-206.813
-189.655
-170.617
-149.686
-126.859
-102.141
-75.5937
-47.3177
-17.4355
13.6283
45.8012
79.1643
113.28
147.768
182.293
216.418
249.7
281.746
312.108
340.377
366.154
389.074
408.82
425.117
437.738
446.51
451.31
452.007
448.72
441.409
430.159
415.174
396.641
374.836
350.071
322.688
293.059
261.571
228.648
194.705
160.138
125.338
90.6709
56.47
23.0246
-9.31938
-40.5408
-70.4228
-98.8192
-125.617
-150.74
-174.134
-195.762
-215.599
-233.622
-249.823
-264.2
-276.758
-287.509
-296.466
-303.659
-309.12
-312.897
-315.029
-315.53
-314.424
-311.787
-307.6
-301.863
-294.563
-285.679
-275.181
-263.036
-249.213
-233.682
-216.428
-197.445
-176.741
-154.344
-130.303
-104.688
-77.5952
-49.1529
-19.5244
11.067
43.3105
75.3716
107.886
140.53
172.988
204.931
236.012
265.867
294.122
320.395
344.307
365.492
383.607
398.338
409.418
416.633
419.787
418.825
413.722
404.541
391.336
374.303
353.681
329.759
302.874
273.406
241.772
208.411
173.782
138.344
102.557
66.865
31.7053
-2.57738
-35.624
-67.1502
-96.9289
-124.79
-150.615
-174.341
-195.948
-215.452
-232.903
-248.37
-261.936
-273.695
-283.739
-292.158
-299.035
-304.443
-308.444
-311.11
-312.453
-312.497
-311.313
-308.886
-305.227
-300.326
-294.176
-286.759
-278.046
-268.008
-256.605
-243.793
-229.526
-213.758
-196.445
-177.555
-157.059
-134.935
-111.183
-85.8314
-58.9426
-30.613
-0.982406
29.7362
61.8374
94.1054
126.742
159.359
191.554
222.899
252.952
281.267
307.399
330.925
351.442
368.589
382.052
391.578
396.99
398.113
395.043
387.763
376.395
361.145
342.29
320.16
295.136
267.638
238.108
207.002
174.772
141.858
108.679
75.6171
43.0213
11.1805
-19.6486
-49.2517
-77.4595
-104.142
-129.207
-152.596
-174.28
-194.252
-212.531
-229.148
-244.142
-257.559
-269.447
-279.854
-288.824
-296.396
-302.6
-307.458
-310.998
-313.234
-314.154
-313.746
-312.056
-309.039
-304.672
-298.925
-291.766
-283.158
-273.063
-261.447
-248.277
-233.524
-217.179
-199.238
-179.7
-158.586
-135.937
-111.808
-86.272
-59.4237
-31.3972
-2.37228
27.4323
58.722
89.9961
121.373
152.526
183.102
212.746
241.089
267.738
292.31
314.393
333.637
349.68
362.223
371.031
375.92
376.783
373.487
366.597
355.981
341.543
323.394
301.692
276.726
248.914
218.727
186.66
153.264
119.041
84.5694
50.4046
15.8122
-19.5921
-53.2802
-84.9667
-114.676
-142.403
-168.109
-191.782
-213.442
-233.102
-250.804
-266.583
-280.486
-292.572
-302.9
-311.529
-318.522
-323.937
-327.839
-330.32
-331.386
-330.995
-329.341
-326.394
-322.086
-316.383
-309.211
-300.518
-290.26
-278.374
-264.803
-249.504
-232.446
-213.599
-192.964
-170.563
-146.419
-120.607
-93.198
-64.2869
-34.0378
-2.61742
29.7929
62.9589
96.591
130.33
163.838
196.758
228.622
258.976
287.395
313.418
336.64
356.678
373.214
386.002
394.823
399.482
48.9338
20.0336
-7.38161
-24.4545
-50.648
-76.8072
-101.787
-125.254
-147.057
-167.148
-185.532
-202.231
-217.283
-230.741
-242.656
-253.084
-262.074
-269.674
-275.925
-280.86
-284.504
-286.874
-287.964
-287.748
-286.223
-283.401
-279.197
-273.575
-266.491
-257.881
-247.684
-235.843
-222.289
-206.965
-189.813
-170.78
-149.853
-127.028
-102.31
-75.7603
-47.4793
-17.5883
13.4892
45.6758
79.0578
113.197
147.713
182.269
216.428
249.746
281.828
312.227
340.533
366.345
389.298
409.072
425.394
438.034
446.819
451.626
452.339
449.023
441.707
430.442
415.436
396.876
375.04
350.241
322.822
293.156
261.631
228.673
194.697
160.099
125.271
90.5799
56.3589
22.8984
-9.45831
-40.6892
-70.5775
-98.978
-125.778
-150.902
-174.295
-195.922
-215.757
-233.778
-249.976
-264.351
-276.907
-287.654
-296.608
-303.797
-309.256
-313.028
-315.157
-315.651
-314.548
-311.91
-307.723
-301.988
-294.691
-285.81
-275.316
-263.174
-249.356
-233.829
-216.578
-197.597
-176.894
-154.496
-130.452
-104.833
-77.7339
-49.2824
-19.6391
10.9784
43.1963
75.2882
107.828
140.496
172.98
204.952
236.063
265.951
294.239
320.548
344.494
365.712
383.857
398.614
409.715
416.945
420.121
419.141
414.037
404.844
391.621
374.563
353.911
329.956
303.033
273.527
241.853
208.453
173.785
138.31
102.489
66.7667
31.5794
-2.72544
-35.7896
-67.3288
-97.1157
-124.981
-150.806
-174.529
-196.131
-215.628
-233.071
-248.528
-262.085
-273.835
-283.871
-292.282
-299.152
-304.555
-308.553
-311.214
-312.55
-312.598
-311.412
-308.984
-305.325
-300.426
-294.278
-286.864
-278.154
-268.12
-256.722
-243.915
-229.653
-213.891
-196.583
-177.698
-157.206
-135.085
-111.334
-85.9817
-59.0889
-30.7513
-1.10792
29.6414
61.719
94.0263
126.693
159.342
191.571
222.952
253.045
281.399
307.57
331.134
351.686
368.864
382.351
391.896
397.318
398.458
395.362
388.075
376.687
361.411
342.523
320.357
295.294
267.755
238.185
207.04
174.773
141.826
108.618
75.5309
42.9148
11.0569
-19.7853
-49.3979
-77.6119
-104.298
-129.364
-152.752
-174.433
-194.401
-212.676
-229.287
-244.275
-257.687
-269.569
-279.972
-288.938
-296.506
-302.708
-307.564
-311.103
-313.338
-314.253
-313.851
-312.161
-309.146
-304.782
-299.039
-291.884
-283.28
-273.188
-261.576
-248.41
-233.66
-217.318
-199.378
-179.841
-158.728
-136.077
-111.945
-86.4036
-59.549
-31.5122
-2.47128
27.3595
58.6326
89.9386
121.345
152.526
183.131
212.807
241.182
267.865
292.471
314.589
333.865
349.938
362.507
371.334
376.239
377.118
373.805
366.916
356.29
341.831
323.653
301.915
276.907
249.051
218.82
186.709
153.271
119.012
84.506
50.306
15.6756
-19.743
-53.4448
-85.1391
-114.852
-142.579
-168.284
-191.955
-213.612
-233.268
-250.965
-266.738
-280.635
-292.716
-303.038
-311.661
-318.649
-324.059
-327.959
-330.435
-331.489
-331.101
-329.45
-326.505
-322.2
-316.5
-309.333
-300.646
-290.393
-278.513
-264.947
-249.653
-232.599
-213.756
-193.123
-170.722
-146.578
-120.763
-93.3497
-64.432
-34.1731
-2.73985
29.6833
62.87
96.5252
130.291
163.83
196.785
228.687
259.081
287.542
313.604
336.862
356.933
373.496
386.306
395.142
399.809
48.7996
19.8595
-7.6199
-24.5652
-50.8376
-77.0317
-102.025
-125.493
-147.292
-167.377
-185.753
-202.443
-217.486
-230.935
-242.841
-253.261
-262.243
-269.837
-276.083
-281.014
-284.655
-287.024
-288.115
-287.902
-286.383
-283.563
-279.365
-273.749
-266.673
-258.071
-247.884
-236.052
-222.508
-207.194
-190.05
-171.025
-150.104
-127.282
-102.563
-76.0103
-47.7219
-17.8181
13.2806
45.4873
78.8979
113.072
147.63
182.233
216.442
249.814
281.952
312.407
340.768
366.632
389.633
409.451
425.81
438.478
447.282
452.099
452.83
449.483
442.154
430.868
415.829
397.228
375.346
350.496
323.024
293.302
261.722
228.711
194.685
160.04
125.17
90.4434
56.1922
22.709
-9.66654
-40.9118
-70.8093
-99.2159
-126.019
-151.143
-174.536
-196.16
-215.992
-234.01
-250.206
-264.577
-277.129
-287.871
-296.82
-304.004
-309.457
-313.225
-315.347
-315.835
-314.733
-312.093
-307.907
-302.174
-294.881
-286.005
-275.517
-263.381
-249.568
-234.047
-216.8
-197.823
-177.121
-154.722
-130.675
-105.049
-77.9404
-49.4749
-19.8098
10.8532
43.0213
75.1655
107.742
140.447
172.97
204.984
236.142
266.079
294.419
320.779
344.777
366.045
384.235
399.032
410.165
417.416
420.616
419.625
414.515
405.303
392.051
374.957
354.26
330.253
303.276
273.711
241.977
208.518
173.792
138.262
102.39
66.6212
31.3925
-2.94575
-36.0363
-67.595
-97.3944
-125.265
-151.091
-174.811
-196.405
-215.891
-233.321
-248.765
-262.308
-274.044
-284.068
-292.467
-299.328
-304.722
-308.714
-311.368
-312.697
-312.747
-311.559
-309.131
-305.472
-300.575
-294.43
-287.019
-278.316
-268.287
-256.897
-244.097
-229.843
-214.089
-196.789
-177.91
-157.424
-135.308
-111.559
-86.2057
-59.307
-30.9575
-1.29544
29.4939
61.5498
93.91
126.621
159.317
191.597
223.035
253.185
281.599
307.829
331.45
352.054
369.278
382.804
392.376
397.813
398.972
395.848
388.547
377.128
361.812
342.876
320.654
295.532
267.932
238.302
207.099
174.778
141.781
108.528
75.4033
42.7565
10.8731
-19.989
-49.6157
-77.8391
-104.531
-129.598
-152.984
-174.661
-194.623
-212.891
-229.494
-244.473
-257.877
-269.752
-280.148
-289.107
-296.671
-302.868
-307.722
-311.258
-313.493
-314.403
-314.007
-312.318
-309.306
-304.946
-299.208
-292.059
-283.461
-273.376
-261.769
-248.608
-233.864
-217.525
-199.587
-180.051
-158.938
-136.285
-112.149
-86.5997
-59.7356
-31.6836
-2.6192
27.2505
58.5002
89.8539
121.303
152.527
183.174
212.899
241.322
268.056
292.714
314.882
334.207
350.325
362.931
371.79
376.716
377.609
374.292
367.398
356.753
342.264
324.043
302.249
277.179
249.257
218.958
186.781
153.282
118.967
84.4081
50.1578
15.4701
-19.9697
-53.6922
-85.3978
-115.115
-142.844
-168.547
-192.214
-213.866
-233.516
-251.205
-266.971
-280.86
-292.932
-303.244
-311.859
-318.838
-324.243
-328.139
-330.606
-331.645
-331.261
-329.614
-326.671
-322.37
-316.676
-309.516
-300.837
-290.593
-278.721
-265.164
-249.877
-232.829
-213.991
-193.361
-170.961
-146.816
-120.997
-93.5775
-64.6497
-34.3765
-2.92375
29.5187
62.7366
96.4262
130.232
163.817
196.826
228.785
259.24
287.761
313.882
337.195
357.315
373.919
386.762
395.622
400.3
48.6218
19.6286
-7.93575
-24.7146
-51.0922
-77.3322
-102.342
-125.812
-147.607
-167.683
-186.048
-202.726
-217.756
-231.193
-243.088
-253.497
-262.469
-270.054
-276.294
-281.22
-284.858
-287.223
-288.314
-288.108
-286.595
-283.779
-279.588
-273.981
-266.915
-258.325
-248.15
-236.331
-222.8
-207.499
-190.367
-171.351
-150.437
-127.62
-102.901
-76.3439
-48.0459
-18.1251
13.0025
45.2355
78.684
112.906
147.519
182.185
216.462
249.905
282.117
312.646
341.08
367.014
390.08
409.956
426.364
439.07
447.901
452.731
453.475
450.107
442.754
431.437
416.353
397.698
375.754
350.836
323.292
293.497
261.843
228.761
194.668
159.961
125.035
90.2609
55.9694
22.456
-9.94443
-41.2089
-71.1188
-99.5334
-126.341
-151.466
-174.857
-196.479
-216.307
-234.321
-250.512
-264.879
-277.425
-288.161
-297.102
-304.28
-309.726
-313.485
-315.597
-316.078
-314.978
-312.337
-308.151
-302.422
-295.134
-286.266
-275.785
-263.657
-249.852
-234.338
-217.097
-198.123
-177.423
-155.023
-130.971
-105.336
-78.2156
-49.7316
-20.0383
10.6884
42.7858
75.0033
107.628
140.381
172.956
205.028
236.247
266.25
294.659
321.089
345.156
366.49
384.74
399.59
410.765
418.045
421.264
420.281
415.157
405.916
392.627
375.482
354.726
330.651
303.599
273.957
242.144
208.606
173.802
138.197
102.257
66.4269
31.1432
-3.2397
-36.3654
-67.9501
-97.7663
-125.645
-151.472
-175.186
-196.769
-216.242
-233.655
-249.08
-262.605
-274.322
-284.329
-292.714
-299.561
-304.944
-308.927
-311.573
-312.896
-312.945
-311.754
-309.326
-305.668
-300.773
-294.631
-287.227
-278.531
-268.51
-257.129
-244.34
-230.096
-214.352
-197.063
-178.194
-157.716
-135.605
-111.859
-86.5043
-59.5978
-31.233
-1.54671
29.2874
61.3337
93.756
126.525
159.284
191.633
223.144
253.373
281.866
308.175
331.872
352.546
369.832
383.409
393.018
398.474
399.649
396.506
389.178
377.718
362.348
343.346
321.051
295.851
268.17
238.459
207.178
174.783
141.72
108.408
75.233
42.5454
10.6278
-20.2606
-49.9062
-78.1421
-104.841
-129.91
-153.293
-174.964
-194.919
-213.177
-229.769
-244.738
-258.131
-269.995
-280.382
-289.333
-296.89
-303.081
-307.932
-311.466
-313.697
-314.606
-314.214
-312.527
-309.519
-305.165
-299.433
-292.292
-283.702
-273.625
-262.026
-248.872
-234.134
-217.8
-199.866
-180.331
-159.219
-136.563
-112.42
-86.8612
-59.9844
-31.9125
-2.8175
27.1032
58.3249
89.7423
121.248
152.528
183.232
213.021
241.509
268.311
293.037
315.272
334.663
350.841
363.498
372.397
377.352
378.254
374.948
368.045
357.372
342.842
324.562
302.695
277.542
249.532
219.142
186.878
153.295
118.908
84.2785
49.9599
15.1953
-20.2731
-54.0227
-85.7432
-115.467
-143.197
-168.898
-192.561
-214.205
-233.846
-251.526
-267.281
-281.159
-293.22
-303.52
-312.123
-319.091
-324.487
-328.376
-330.831
-331.859
-331.475
-329.832
-326.892
-322.598
-316.911
-309.76
-301.092
-290.859
-278.998
-265.452
-250.176
-233.136
-214.305
-193.679
-171.281
-147.134
-121.31
-93.8814
-64.9403
-34.6483
-3.16995
29.2997
62.5582
96.2937
130.153
163.8
196.879
228.915
259.451
288.053
314.254
337.639
357.824
374.484
387.37
396.262
400.957
48.4013
19.342
-8.32803
-24.9039
-51.4137
-77.71
-102.739
-126.212
-148
-168.065
-186.417
-203.079
-218.094
-231.516
-243.396
-253.791
-262.752
-270.326
-276.557
-281.477
-285.111
-287.473
-288.563
-288.365
-286.858
-284.048
-279.866
-274.27
-267.219
-258.643
-248.482
-236.679
-223.165
-207.88
-190.762
-171.759
-150.855
-128.043
-103.324
-76.7612
-48.4514
-18.5099
12.6547
44.9198
78.4159
112.697
147.38
182.123
216.485
250.018
282.322
312.944
341.47
367.492
390.639
410.588
427.057
439.811
448.674
453.521
454.273
450.894
443.505
432.148
417.009
398.285
376.264
351.262
323.627
293.739
261.994
228.823
194.646
159.862
124.866
90.0319
55.6897
22.139
-10.2922
-41.581
-71.5064
-99.9308
-126.743
-151.869
-175.259
-196.877
-216.7
-234.709
-250.896
-265.256
-277.795
-288.523
-297.456
-304.624
-310.061
-313.811
-315.91
-316.38
-315.284
-312.641
-308.457
-302.732
-295.451
-286.591
-276.12
-264.002
-250.206
-234.701
-217.468
-198.499
-177.802
-155.4
-131.342
-105.696
-78.5599
-50.0533
-20.3264
10.4627
42.5102
74.8023
107.486
140.299
172.939
205.082
236.379
266.464
294.958
321.476
345.629
367.046
385.372
400.287
411.516
418.833
422.07
421.102
415.962
406.684
393.347
376.14
355.309
331.148
304.004
274.264
242.352
208.714
173.813
138.116
102.09
66.1831
30.8307
-3.60805
-36.7777
-68.3947
-98.232
-126.12
-151.948
-175.656
-197.225
-216.68
-234.072
-249.475
-262.976
-274.671
-284.656
-293.022
-299.853
-305.222
-309.194
-311.828
-313.145
-313.191
-311.997
-309.569
-305.912
-301.02
-294.884
-287.486
-278.799
-268.789
-257.419
-244.643
-230.412
-214.681
-197.405
-178.549
-158.08
-135.977
-112.235
-86.878
-59.9619
-31.5786
-1.86295
29.0196
61.0715
93.564
126.404
159.242
191.677
223.281
253.607
282.199
308.608
332.399
353.162
370.525
384.165
393.82
399.302
400.487
397.335
389.968
378.457
363.019
343.935
321.548
296.249
268.466
238.654
207.275
174.79
141.643
108.258
75.0193
42.2809
10.3206
-20.6007
-50.2699
-78.5212
-105.228
-130.3
-153.681
-175.345
-195.289
-213.535
-230.114
-245.068
-258.447
-270.299
-280.674
-289.615
-297.163
-303.348
-308.194
-311.724
-313.951
-314.86
-314.473
-312.788
-309.785
-305.438
-299.715
-292.584
-284.004
-273.937
-262.347
-249.202
-234.473
-218.145
-200.214
-180.682
-159.57
-136.911
-112.76
-87.1889
-60.2955
-32.1995
-3.06747
26.9149
58.1082
89.6044
121.178
152.528
183.304
213.173
241.742
268.63
293.441
315.761
335.233
351.486
364.207
373.157
378.148
379.062
375.766
368.856
358.147
343.565
325.212
303.254
277.996
249.875
219.372
186.998
153.312
118.833
84.1154
49.7122
14.8504
-20.6538
-54.4371
-86.1757
-115.908
-143.639
-169.337
-192.993
-214.629
-234.26
-251.927
-267.669
-281.533
-293.579
-303.865
-312.453
-319.408
-324.791
-328.67
-331.111
-332.129
-331.744
-330.104
-327.168
-322.881
-317.204
-310.064
-301.41
-291.191
-279.345
-265.813
-250.549
-233.52
-214.697
-194.076
-171.68
-147.532
-121.701
-94.2617
-65.304
-34.989
-3.47924
29.0263
62.3346
96.1274
130.054
163.778
196.945
229.077
259.714
288.419
314.718
338.195
358.461
375.19
388.131
397.063
401.779
48.1393
19.0013
-8.79639
-25.1334
-51.8043
-78.1664
-103.217
-126.692
-148.473
-168.524
-186.86
-203.504
-218.5
-231.903
-243.766
-254.145
-263.091
-270.653
-276.873
-281.785
-285.414
-287.773
-288.863
-288.672
-287.172
-284.37
-280.2
-274.618
-267.582
-259.024
-248.882
-237.097
-223.603
-208.337
-191.238
-172.25
-151.357
-128.551
-103.832
-77.2626
-48.9389
-18.9733
12.2372
44.5395
78.0928
112.445
147.212
182.049
216.513
250.153
282.568
313.302
341.938
368.066
391.31
411.346
427.889
440.701
449.604
454.471
455.228
451.841
444.41
433.003
417.797
398.991
376.877
351.773
324.029
294.03
262.175
228.897
194.619
159.741
124.662
89.756
55.3527
21.7577
-10.7104
-42.028
-71.9723
-100.408
-127.226
-152.354
-175.741
-197.355
-217.172
-235.175
-251.356
-265.708
-278.239
-288.958
-297.881
-305.038
-310.463
-314.201
-316.287
-316.747
-315.651
-313.007
-308.824
-303.104
-295.831
-286.981
-276.522
-264.416
-250.632
-235.138
-217.914
-198.951
-178.256
-155.853
-131.787
-106.129
-78.9738
-50.4406
-20.6753
10.1737
42.1959
74.5628
107.315
140.2
172.918
205.146
236.536
266.72
295.317
321.94
346.197
367.713
386.131
401.126
412.418
419.781
423.042
422.085
416.928
407.608
394.212
376.93
356.008
331.745
304.49
274.633
242.601
208.844
173.826
138.018
101.889
65.889
30.4546
-4.05138
-37.274
-68.9295
-98.792
-126.692
-152.521
-176.221
-197.774
-217.207
-234.574
-249.948
-263.421
-275.089
-285.048
-293.391
-300.203
-305.555
-309.514
-312.135
-313.445
-313.487
-312.29
-309.861
-306.206
-301.318
-295.187
-287.798
-279.121
-269.123
-257.768
-245.007
-230.791
-215.077
-197.817
-178.975
-158.518
-136.424
-112.687
-87.3273
-60.3998
-31.9949
-2.24483
28.6899
60.7627
93.3338
126.259
159.19
191.729
223.445
253.888
282.599
309.126
333.032
353.901
371.358
385.074
394.785
400.299
401.493
398.331
390.919
379.345
363.824
344.642
322.144
296.727
268.821
238.887
207.392
174.796
141.55
108.076
74.7614
41.9624
9.95085
-21.0098
-50.7073
-78.977
-105.695
-130.769
-154.146
-175.801
-195.734
-213.965
-230.527
-245.465
-258.828
-270.663
-281.025
-289.954
-297.492
-303.669
-308.508
-312.034
-314.257
-315.165
-314.782
-313.101
-310.105
-305.766
-300.053
-292.934
-284.366
-274.311
-262.733
-249.599
-234.879
-218.559
-200.633
-181.104
-159.992
-137.328
-113.169
-87.5833
-60.6693
-32.545
-3.37051
26.6814
57.8538
89.4404
121.094
152.528
183.389
213.355
242.021
269.013
293.926
316.348
335.917
352.26
365.058
374.069
379.103
380.036
376.747
369.827
359.079
344.433
325.992
303.924
278.54
250.286
219.647
187.142
153.33
118.741
83.9184
49.4146
14.4345
-21.1133
-54.9361
-86.6957
-116.437
-144.169
-169.865
-193.513
-215.138
-234.756
-252.409
-268.135
-281.982
-294.011
-304.279
-312.849
-319.787
-325.156
-329.021
-331.446
-332.455
-332.067
-330.431
-327.499
-323.221
-317.555
-310.43
-301.792
-291.59
-279.761
-266.246
-250.997
-233.982
-215.168
-194.553
-172.159
-148.009
-122.171
-94.7187
-65.741
-35.3991
-3.85203
28.6983
62.0653
95.9267
129.933
163.75
197.023
229.271
260.03
288.858
315.275
338.861
359.226
376.038
389.046
398.026
402.768
47.8374
18.6087
-9.34272
-25.401
-52.2673
-78.703
-103.777
-127.253
-149.025
-169.06
-187.376
-203.999
-218.974
-232.355
-244.197
-254.557
-263.486
-271.033
-277.242
-282.145
-285.767
-288.123
-289.213
-289.028
-287.538
-284.746
-280.59
-275.024
-268.007
-259.469
-249.348
-237.586
-224.114
-208.871
-191.792
-172.822
-151.942
-129.144
-104.426
-77.8484
-49.5083
-19.516
11.7495
44.0939
77.7141
112.15
147.014
181.962
216.544
250.31
282.855
313.719
342.484
368.736
392.094
412.231
428.862
441.74
450.69
455.582
456.344
452.944
445.469
434.002
418.717
399.815
377.592
352.369
324.498
294.368
262.385
228.982
194.586
159.598
124.423
89.4327
54.9579
21.3115
-11.1997
-42.5503
-72.517
-100.966
-127.79
-152.92
-176.304
-197.913
-217.723
-235.719
-251.893
-266.237
-278.758
-289.466
-298.377
-305.521
-310.933
-314.656
-316.728
-317.181
-316.079
-313.432
-309.251
-303.538
-296.275
-287.436
-276.991
-264.899
-251.129
-235.648
-218.435
-199.479
-178.787
-156.382
-132.308
-106.635
-79.4578
-50.894
-21.086
9.82245
41.8411
74.2851
107.115
140.083
172.892
205.22
236.718
267.018
295.736
322.481
346.86
368.492
387.017
402.105
413.473
420.889
424.179
423.233
418.055
408.687
395.223
377.853
356.825
332.442
305.056
275.063
242.891
208.995
173.84
137.902
101.653
65.5441
30.0141
-4.57045
-37.8548
-69.5552
-99.4468
-127.36
-153.19
-176.88
-198.414
-217.822
-235.159
-250.501
-263.941
-275.576
-285.506
-293.823
-300.611
-305.943
-309.886
-312.493
-313.795
-313.832
-312.631
-310.201
-306.548
-301.665
-295.541
-288.161
-279.497
-269.514
-258.175
-245.431
-231.234
-215.539
-198.297
-179.472
-159.03
-136.946
-113.214
-87.8524
-60.9122
-32.4827
-2.69299
28.2981
60.4062
93.0648
126.088
159.129
191.789
223.635
254.215
283.065
309.731
333.771
354.764
372.33
386.136
395.912
401.464
402.668
399.493
392.029
380.382
364.765
345.467
322.84
297.283
269.235
239.159
207.526
174.803
141.439
107.863
74.4586
41.5896
9.51804
-21.4886
-51.2188
-79.5098
-106.239
-131.316
-154.689
-176.334
-196.253
-214.467
-231.01
-245.928
-259.271
-271.089
-281.434
-290.349
-297.875
-304.043
-308.875
-312.396
-314.614
-315.522
-315.143
-313.466
-310.477
-306.148
-300.448
-293.342
-284.788
-274.748
-263.184
-250.062
-235.354
-219.042
-201.122
-181.596
-160.484
-137.816
-113.647
-88.0446
-61.1061
-32.9498
-3.72792
26.3958
57.5678
89.2507
120.996
152.527
183.489
213.566
242.347
269.459
294.491
317.032
336.715
353.163
366.052
375.134
380.22
381.175
377.893
370.962
360.168
345.449
326.903
304.706
279.175
250.765
219.966
187.307
153.35
118.633
83.6916
49.0673
13.9464
-21.6529
-55.5206
-87.3037
-117.055
-144.789
-170.481
-194.12
-215.733
-235.335
-252.971
-268.678
-282.506
-294.514
-304.761
-313.311
-320.23
-325.58
-329.429
-331.838
-332.835
-332.446
-330.81
-327.886
-323.618
-317.965
-310.856
-302.237
-292.056
-280.246
-266.751
-251.521
-234.52
-215.718
-195.11
-172.719
-148.567
-122.721
-95.2527
-66.2519
-35.8787
-4.28873
28.3151
61.7497
95.6911
129.791
163.716
197.112
229.497
260.397
289.369
315.925
339.639
360.119
377.029
390.115
399.151
403.925
47.4971
18.1675
-9.97415
-25.6994
-52.8072
-79.3219
-104.42
-127.896
-149.657
-169.673
-187.967
-204.566
-219.515
-232.871
-244.69
-255.028
-263.937
-271.467
-277.663
-282.556
-286.171
-288.523
-289.614
-289.435
-287.955
-285.176
-281.034
-275.487
-268.491
-259.977
-249.88
-238.144
-224.698
-209.481
-192.426
-173.476
-152.612
-129.824
-105.105
-78.519
-50.1601
-20.1387
11.1911
43.5819
77.279
111.811
146.786
181.86
216.579
250.488
283.182
314.196
343.107
369.501
392.99
413.243
429.974
442.929
451.933
456.854
457.621
454.205
446.681
435.146
419.769
400.758
378.41
353.05
325.033
294.754
262.624
229.078
194.547
159.434
124.147
89.0614
54.505
20.7995
-11.7607
-43.1483
-73.1409
-101.605
-128.436
-153.567
-176.949
-198.552
-218.354
-236.342
-252.506
-266.84
-279.351
-290.046
-298.943
-306.073
-311.47
-315.177
-317.233
-317.679
-316.568
-313.918
-309.739
-304.033
-296.781
-287.957
-277.527
-265.452
-251.698
-236.231
-219.03
-200.083
-179.394
-156.987
-132.904
-107.215
-80.0125
-51.4139
-21.5591
9.40914
41.4446
73.9688
106.886
139.948
172.861
205.303
236.925
267.357
296.213
323.099
347.617
369.383
388.03
403.225
414.679
422.157
425.482
424.546
419.345
409.923
396.381
378.909
357.759
333.239
305.704
275.554
243.222
209.165
173.855
137.768
101.38
65.1476
29.5083
-5.16603
-38.5211
-70.2725
-100.197
-128.126
-153.957
-177.635
-199.147
-218.526
-235.828
-251.133
-264.535
-276.134
-286.029
-294.316
-301.077
-306.387
-310.312
-312.903
-314.194
-314.225
-313.021
-310.59
-306.939
-302.061
-295.945
-288.577
-279.926
-269.959
-258.64
-245.917
-231.741
-216.067
-198.846
-180.04
-159.615
-137.544
-113.819
-88.4539
-61.4997
-33.0423
-3.20854
27.8438
60.0009
92.7566
125.892
159.057
191.855
223.85
254.587
283.597
310.422
334.615
355.751
373.443
387.351
397.203
402.798
404.015
400.822
393.301
381.569
365.841
346.411
323.636
297.92
269.707
239.468
207.678
174.808
141.311
107.617
74.11
41.1617
9.02131
-22.0375
-51.805
-80.1202
-106.863
-131.943
-155.311
-176.945
-196.846
-215.04
-231.562
-246.457
-259.778
-271.575
-281.901
-290.8
-298.313
-304.47
-309.294
-312.809
-315.021
-315.931
-315.555
-313.884
-310.903
-306.586
-300.899
-293.809
-285.272
-275.248
-263.699
-250.592
-235.896
-219.595
-201.681
-182.159
-161.047
-138.375
-114.194
-88.5733
-61.6068
-33.4139
-4.14047
26.0546
57.2519
89.0355
120.883
152.523
183.602
213.806
242.719
269.969
295.137
317.815
337.629
354.195
367.189
376.354
381.498
382.48
379.205
372.26
361.416
346.611
327.947
305.601
279.901
251.312
220.33
187.495
153.372
118.507
83.4349
48.668
13.3869
-22.2746
-56.1918
-88.0004
-117.762
-145.498
-171.185
-194.814
-216.412
-235.997
-253.613
-269.299
-283.104
-295.089
-305.313
-313.84
-320.735
-326.065
-329.895
-332.285
-333.27
-332.88
-331.243
-328.327
-324.07
-318.433
-311.343
-302.746
-292.588
-280.802
-267.329
-252.119
-235.136
-216.347
-195.747
-173.359
-149.205
-123.35
-95.8641
-66.8371
-36.4284
-4.78984
27.876
61.3872
95.4199
129.626
163.674
197.213
229.753
260.817
289.954
316.668
340.529
361.141
378.163
391.338
400.439
405.249
47.1203
17.6833
-10.6399
-26.0825
-53.4304
-80.0252
-105.146
-128.621
-150.368
-170.364
-188.632
-205.203
-220.124
-233.452
-245.244
-255.557
-264.445
-271.956
-278.136
-283.017
-286.625
-288.974
-290.065
-289.891
-288.424
-285.658
-281.534
-276.008
-269.036
-260.548
-250.479
-238.773
-225.356
-210.167
-193.14
-174.213
-153.367
-130.589
-105.871
-79.2747
-50.8945
-20.8413
10.5608
43.0024
76.7863
111.427
146.527
181.743
216.617
250.687
283.548
314.732
343.809
370.362
393.999
414.383
431.226
444.269
453.334
458.288
459.061
455.625
448.047
436.434
420.954
401.82
379.33
353.816
325.634
295.188
262.891
229.185
194.501
159.246
123.836
88.6413
53.9934
20.2212
-12.3943
-43.8227
-73.8444
-102.325
-129.164
-154.296
-177.674
-199.27
-219.064
-237.042
-253.197
-267.52
-280.019
-290.7
-299.582
-306.694
-312.074
-315.762
-317.803
-318.239
-317.118
-314.465
-310.288
-304.59
-297.351
-288.543
-278.13
-266.074
-252.338
-236.887
-219.701
-200.763
-180.079
-157.669
-133.576
-107.869
-80.6383
-52.001
-22.0955
8.93521
41.004
73.6137
106.626
139.794
172.825
205.395
237.157
267.737
296.748
323.793
348.469
370.386
389.172
404.487
416.039
423.586
426.951
426.025
420.798
411.316
397.685
380.098
358.811
334.135
306.433
276.106
243.593
209.356
173.869
137.615
101.072
64.6987
28.9362
-5.839
-39.2737
-71.0825
-101.044
-128.991
-154.822
-178.486
-199.973
-219.319
-236.582
-251.844
-265.204
-276.761
-286.617
-294.87
-301.601
-306.885
-310.79
-313.364
-314.644
-314.667
-313.459
-311.027
-307.379
-302.507
-296.4
-289.044
-280.409
-270.46
-259.163
-246.463
-232.311
-216.661
-199.464
-180.681
-160.275
-138.218
-114.5
-89.1322
-62.1626
-33.6746
-3.79262
27.3266
59.5457
92.4085
125.668
158.973
191.928
224.091
255.004
284.195
311.2
335.566
356.863
374.696
388.721
398.658
404.303
405.534
402.319
394.736
382.907
367.054
347.475
324.531
298.635
270.237
239.814
207.847
174.811
141.164
107.337
73.7149
40.6779
8.45983
-22.6571
-52.4665
-80.8089