/*--------------------------------*- C++ -*----------------------------------*\
| =========                 |                                                 |
| \\      /  F ield         | OpenFOAM: The Open Source CFD Toolbox           |
|  \\    /   O peration     | Version:  3.0.1                                 |
|   \\  /    A nd           | Web:      www.OpenFOAM.org                      |
|    \\/     M anipulation  |                                                 |
\*---------------------------------------------------------------------------*/
FoamFile
{
    version     2.0;
    format      ascii;
    class       surfaceScalarField;
    location    "41.6";
    object      alphaPhi;
}
// * * * * * * * * * * * * * * * * * * * * * * * * * * * * * * * * * * * * * //

dimensions      [0 3 -1 0 0 0 0];

internalField   nonuniform List<scalar> 
42423
(
-0.000178142
-1.72787e-06
-0.000175647
-2.49457e-06
-0.000172454
-3.19302e-06
-0.000168523
-3.93087e-06
-0.00016373
-4.79389e-06
-0.000158205
-5.52457e-06
-0.000151569
-6.63628e-06
-0.000144193
-7.37538e-06
-0.000135997
-8.19693e-06
-0.000126739
-9.25738e-06
-0.000116573
-1.01666e-05
-0.00010536
-1.12131e-05
-9.3142e-05
-1.22175e-05
-7.99117e-05
-1.32303e-05
-6.55668e-05
-1.4345e-05
-5.03309e-05
-1.5236e-05
-3.4278e-05
-1.60529e-05
-1.74591e-05
-1.6819e-05
1.79966e-07
-1.76392e-05
1.83042e-05
-1.81243e-05
3.69777e-05
-1.86737e-05
5.60028e-05
-1.90252e-05
7.49703e-05
-1.89675e-05
9.38333e-05
-1.88631e-05
0.000112274
-1.84407e-05
0.000130114
-1.78402e-05
0.000147039
-1.69249e-05
0.00016278
-1.57413e-05
0.000177061
-1.4281e-05
0.000189662
-1.26013e-05
0.000200346
-1.06835e-05
0.000208928
-8.58242e-06
0.000215243
-6.31445e-06
0.000219206
-3.96391e-06
0.000220706
-1.4999e-06
0.000219651
1.05563e-06
0.000216166
3.48456e-06
0.000210265
5.90135e-06
0.000202017
8.24719e-06
0.000191664
1.03535e-05
0.000179451
1.2213e-05
0.000165539
1.39117e-05
0.000150235
1.53041e-05
0.000133642
1.65927e-05
0.00011614
1.75025e-05
9.79909e-05
1.81487e-05
7.93096e-05
1.86813e-05
6.05496e-05
1.876e-05
4.17426e-05
1.88069e-05
2.31881e-05
1.85545e-05
4.96109e-06
1.8227e-05
-1.25904e-05
1.75514e-05
-2.95248e-05
1.69344e-05
-4.5727e-05
1.62022e-05
-6.1051e-05
1.5324e-05
-7.54732e-05
1.44222e-05
-8.89819e-05
1.35087e-05
-0.000101486
1.2504e-05
-0.000113043
1.15571e-05
-0.000123641
1.05976e-05
-0.000133297
9.6563e-06
-0.000142094
8.7968e-06
-0.000149954
7.86054e-06
-0.00015696
7.00544e-06
-0.000163164
6.204e-06
-0.000168494
5.32992e-06
-0.000172987
4.49312e-06
-0.000176716
3.72898e-06
-0.000179599
2.88282e-06
-0.00018175
2.15096e-06
-0.000183116
1.36643e-06
-0.000183664
5.47413e-07
-0.000183508
-1.55389e-07
-0.000182572
-9.36135e-07
-0.000180676
-1.8966e-06
-0.000178182
-2.49331e-06
-0.000174666
-3.516e-06
-0.000170466
-4.20058e-06
-0.000165435
-5.03066e-06
-0.000159512
-5.92344e-06
-0.000152876
-6.63614e-06
-0.000145358
-7.5183e-06
-0.000137005
-8.35331e-06
-0.000127913
-9.09228e-06
-0.000117921
-9.99146e-06
-0.000107192
-1.07295e-05
-9.55754e-05
-1.16167e-05
-8.31407e-05
-1.24348e-05
-6.9957e-05
-1.31839e-05
-5.59491e-05
-1.4008e-05
-4.12474e-05
-1.47019e-05
-2.58355e-05
-1.54121e-05
-9.81157e-06
-1.6024e-05
6.77475e-06
-1.65865e-05
2.37724e-05
-1.69978e-05
4.10773e-05
-1.7305e-05
5.85712e-05
-1.7494e-05
7.60509e-05
-1.74799e-05
9.33328e-05
-1.7282e-05
0.000110243
-1.69106e-05
0.000126487
-1.62439e-05
0.000141923
-1.54362e-05
0.000156267
-1.43443e-05
0.000169319
-1.30516e-05
0.000180869
-1.15504e-05
0.000190709
-9.84e-06
0.000198614
-7.90521e-06
0.000204446
-5.83184e-06
0.000208047
-3.60116e-06
0.000209336
-1.28927e-06
0.000208272
1.06347e-06
0.000204782
3.49048e-06
0.000198885
5.8973e-06
0.000190705
8.17939e-06
0.000180394
1.03109e-05
0.000168093
1.23014e-05
0.000153977
1.41151e-05
0.000138362
1.56157e-05
0.000121434
1.69275e-05
0.000103551
1.78835e-05
8.49505e-05
1.86e-05
6.58908e-05
1.90597e-05
4.66841e-05
1.92067e-05
2.75514e-05
1.91326e-05
8.66923e-06
1.88821e-05
-9.70813e-06
1.83773e-05
-2.7425e-05
1.77169e-05
-4.44102e-05
1.69852e-05
-6.0471e-05
1.60607e-05
-7.55691e-05
1.50981e-05
-8.96631e-05
1.4094e-05
-0.000102625
1.29617e-05
-0.000114523
1.18984e-05
-0.000125379
1.08557e-05
-0.000135099
9.7199e-06
-0.000143787
8.68835e-06
-0.000151463
7.67543e-06
-0.000158175
6.71251e-06
-0.000163967
5.79222e-06
-0.000168877
4.9093e-06
-0.000172968
4.0916e-06
-0.000176312
3.34341e-06
-0.000178879
2.56745e-06
-0.000180726
1.84701e-06
-0.000181922
1.19591e-06
-0.000182466
5.44103e-07
-0.000182435
-3.11464e-08
-0.000181826
-6.08784e-07
-0.000180699
-1.12775e-06
-0.000179042
-1.657e-06
-0.000176851
-2.19055e-06
-0.000174103
-2.74795e-06
-0.000170804
-3.29932e-06
-0.000166868
-3.9356e-06
-0.000162342
-4.52626e-06
-0.000157141
-5.20078e-06
-0.000151265
-5.87628e-06
-0.000144656
-6.60873e-06
-0.000137269
-7.3877e-06
-0.000129113
-8.15561e-06
-0.000120096
-9.01703e-06
-0.000110238
-9.85817e-06
-9.95346e-05
-1.07036e-05
-8.79558e-05
-1.15789e-05
-7.55353e-05
-1.24206e-05
-6.22774e-05
-1.3258e-05
-4.82134e-05
-1.4064e-05
-3.33074e-05
-1.49061e-05
-1.78888e-05
-1.54188e-05
-1.80826e-06
-1.60806e-05
1.47663e-05
-1.65747e-05
3.16746e-05
-1.69084e-05
4.87869e-05
-1.71125e-05
6.59525e-05
-1.71657e-05
8.28534e-05
-1.6901e-05
9.93738e-05
-1.65205e-05
0.000115199
-1.58253e-05
0.000130103
-1.49041e-05
0.000143861
-1.37586e-05
0.000156166
-1.23052e-05
0.000166821
-1.06551e-05
0.000175559
-8.7376e-06
0.000182224
-6.66552e-06
0.000186641
-4.41686e-06
0.000188733
-2.09167e-06
0.000188417
3.15613e-07
0.000185711
2.70547e-06
0.000180602
5.1096e-06
0.000173303
7.29851e-06
0.000163946
9.35706e-06
0.000152728
1.12181e-05
0.000139782
1.29458e-05
0.000125382
1.43993e-05
0.00010977
1.56125e-05
9.3196e-05
1.65738e-05
7.59153e-05
1.72806e-05
5.82847e-05
1.76305e-05
4.04866e-05
1.77981e-05
2.28009e-05
1.76856e-05
5.43838e-06
1.73625e-05
-1.14454e-05
1.68837e-05
-2.76581e-05
1.62127e-05
-4.31627e-05
1.55045e-05
-5.79193e-05
1.47566e-05
-7.1751e-05
1.38317e-05
-8.47457e-05
1.29947e-05
-9.67834e-05
1.20377e-05
-0.000107876
1.1093e-05
-0.000117997
1.01204e-05
-0.000127164
9.16709e-06
-0.000135364
8.20016e-06
-0.000142641
7.2768e-06
-0.000149006
6.36464e-06
-0.000154554
5.54843e-06
-0.000159311
4.75673e-06
-0.000163349
4.03862e-06
-0.00016676
3.41082e-06
-0.000169593
2.83292e-06
-0.00017185
2.25693e-06
-0.00017356
1.70947e-06
-0.000174806
1.2463e-06
-0.000175531
7.24596e-07
-0.000175784
2.53633e-07
-0.00017551
-2.74458e-07
-0.000174763
-7.46319e-07
-0.000173491
-1.27258e-06
-0.000171763
-1.72797e-06
-0.000169517
-2.24635e-06
-0.00016677
-2.74632e-06
-0.000163488
-3.28259e-06
-0.000159691
-3.79712e-06
-0.000155247
-4.44349e-06
-0.00015018
-5.06738e-06
-0.000144375
-5.80538e-06
-0.000137841
-6.53377e-06
-0.000130454
-7.38701e-06
-0.000122234
-8.21999e-06
-0.000113165
-9.06897e-06
-0.00010324
-9.92546e-06
-9.24188e-05
-1.08208e-05
-8.08335e-05
-1.15854e-05
-6.83657e-05
-1.24679e-05
-5.51382e-05
-1.32276e-05
-4.11517e-05
-1.39866e-05
-2.64769e-05
-1.46748e-05
-1.11565e-05
-1.53205e-05
4.68081e-06
-1.58374e-05
2.09358e-05
-1.62551e-05
3.74358e-05
-1.65001e-05
5.40653e-05
-1.66297e-05
7.06343e-05
-1.65691e-05
8.694e-05
-1.63057e-05
0.000102751
-1.58108e-05
0.000117814
-1.50637e-05
0.00013192
-1.41054e-05
0.000144759
-1.28399e-05
0.000156192
-1.14332e-05
0.000165955
-9.76212e-06
0.000173887
-7.93275e-06
0.000179839
-5.95163e-06
0.000183673
-3.83426e-06
0.000185346
-1.67298e-06
0.00018483
5.1548e-07
0.000182113
2.71701e-06
0.000177186
4.92633e-06
0.000170301
6.88492e-06
0.00016151
8.79086e-06
0.000151055
1.04544e-05
0.000139164
1.18914e-05
0.000126005
1.3159e-05
0.000111979
1.4025e-05
9.71452e-05
1.4834e-05
8.18577e-05
1.52875e-05
6.64895e-05
1.5368e-05
5.10156e-05
1.54738e-05
3.57388e-05
1.52768e-05
2.08609e-05
1.48778e-05
6.55628e-06
1.43046e-05
-7.15391e-06
1.37102e-05
-2.01941e-05
1.30402e-05
-3.24476e-05
1.22534e-05
-4.39427e-05
1.14951e-05
-5.46984e-05
1.07557e-05
-6.46854e-05
9.98703e-06
-7.39799e-05
9.29445e-06
-8.26644e-05
8.68453e-06
-9.06967e-05
8.03228e-06
-9.81341e-05
7.43747e-06
-0.000105022
6.88835e-06
-0.000111254
6.23161e-06
-0.000116962
5.708e-06
-0.000122086
5.12344e-06
-0.000126595
4.50991e-06
-0.00013056
3.96499e-06
-0.000133941
3.38017e-06
-0.000136718
2.77704e-06
-0.000139001
2.2834e-06
-0.000140777
1.77608e-06
-0.000142018
1.24097e-06
-0.000142847
8.29194e-07
-0.000143206
3.58407e-07
-0.000143141
-6.46768e-08
-0.000142618
-5.22677e-07
-0.000141661
-9.56991e-07
-0.000140246
-1.41531e-06
-0.000138377
-1.86902e-06
-0.000135987
-2.38963e-06
-0.000133004
-2.98338e-06
-0.000129422
-3.58201e-06
-0.000125159
-4.26305e-06
-0.000120316
-4.84257e-06
-0.000114552
-5.76486e-06
-0.000108137
-6.41419e-06
-0.000100806
-7.33177e-06
-9.26859e-05
-8.11981e-06
-8.36052e-05
-9.08069e-06
-7.37067e-05
-9.89856e-06
-6.2797e-05
-1.09097e-05
-5.12445e-05
-1.15526e-05
-3.85952e-05
-1.26493e-05
-2.52415e-05
-1.33538e-05
-1.11454e-05
-1.40961e-05
3.63288e-06
-1.47783e-05
1.89575e-05
-1.53246e-05
3.48254e-05
-1.58679e-05
5.10611e-05
-1.62358e-05
6.74466e-05
-1.63856e-05
8.38747e-05
-1.64281e-05
0.000100218
-1.63429e-05
0.000116176
-1.59588e-05
0.000131629
-1.54523e-05
0.000146455
-1.48266e-05
0.000160317
-1.38622e-05
0.000173126
-1.28083e-05
0.000184639
-1.15138e-05
0.000194729
-1.00893e-05
0.000203246
-8.51731e-06
0.000210044
-6.79815e-06
0.000215087
-5.04353e-06
0.000218243
-3.15558e-06
0.000219513
-1.27016e-06
0.000218918
5.94803e-07
0.000216398
2.52035e-06
0.00021205
4.34776e-06
0.000206012
6.03844e-06
0.000198261
7.75074e-06
0.000189099
9.16194e-06
0.000178562
1.05365e-05
0.000166707
1.1855e-05
0.000153886
1.28211e-05
0.000140092
1.37941e-05
0.000125628
1.44636e-05
0.000110524
1.51045e-05
9.49086e-05
1.56151e-05
7.90922e-05
1.58164e-05
6.30858e-05
1.60063e-05
1.60377e-05
-0.000178175
-3.44984e-06
-0.000175684
-4.98597e-06
-0.000172494
-6.3828e-06
-0.000168568
-7.85669e-06
-0.000163777
-9.58577e-06
-0.000158252
-1.10491e-05
-0.000151623
-1.32656e-05
-0.000144243
-1.47548e-05
-0.00013605
-1.63901e-05
-0.000126792
-1.85154e-05
-0.000116623
-2.03357e-05
-0.000105413
-2.24235e-05
-9.31942e-05
-2.44364e-05
-7.99624e-05
-2.64623e-05
-6.56121e-05
-2.86954e-05
-5.03752e-05
-3.0473e-05
-3.43141e-05
-3.21141e-05
-1.74847e-05
-3.36485e-05
1.5396e-07
-3.5278e-05
1.82843e-05
-3.62548e-05
3.69646e-05
-3.7354e-05
5.59993e-05
-3.806e-05
7.49852e-05
-3.79535e-05
9.38592e-05
-3.77372e-05
0.000112317
-3.68988e-05
0.000130171
-3.56943e-05
0.000147109
-3.38629e-05
0.000162863
-3.14954e-05
0.000177148
-2.85661e-05
0.000189763
-2.52163e-05
0.00020045
-2.13713e-05
0.000209048
-1.71801e-05
0.000215363
-1.263e-05
0.000219335
-7.93606e-06
0.000220847
-3.01126e-06
0.000219774
2.12832e-06
0.000216281
6.9775e-06
0.00021038
1.18018e-05
0.000202125
1.65022e-05
0.000191764
2.07143e-05
0.000179543
2.44343e-05
0.000165619
2.78356e-05
0.000150305
3.06175e-05
0.0001337
3.31981e-05
0.000116191
3.50116e-05
9.80287e-05
3.63106e-05
7.93335e-05
3.73764e-05
6.05655e-05
3.7528e-05
4.1747e-05
3.76254e-05
2.31878e-05
3.71136e-05
4.94973e-06
3.64651e-05
-1.26064e-05
3.51075e-05
-2.955e-05
3.3878e-05
-4.57606e-05
3.24129e-05
-6.10937e-05
3.0657e-05
-7.5519e-05
2.88476e-05
-8.90325e-05
2.70221e-05
-0.00010154
2.50114e-05
-0.000113099
2.31162e-05
-0.000123703
2.12021e-05
-0.000133364
1.9317e-05
-0.000142167
1.75999e-05
-0.000150031
1.57239e-05
-0.000157033
1.40081e-05
-0.000163233
1.24041e-05
-0.000168562
1.06583e-05
-0.00017306
8.99125e-06
-0.00017679
7.45947e-06
-0.000179666
5.75817e-06
-0.000181827
4.31194e-06
-0.000183188
2.7273e-06
-0.000183733
1.09246e-06
-0.000183579
-3.09644e-07
-0.000182637
-1.87802e-06
-0.000180751
-3.78274e-06
-0.000178249
-4.99514e-06
-0.000174723
-7.04233e-06
-0.000170534
-8.38946e-06
-0.000165496
-1.00682e-05
-0.000159577
-1.18433e-05
-0.000152929
-1.32842e-05
-0.000145421
-1.50264e-05
-0.00013706
-1.67147e-05
-0.000127971
-1.81814e-05
-0.000117979
-1.99839e-05
-0.000107247
-2.14615e-05
-9.56297e-05
-2.3234e-05
-8.31897e-05
-2.48751e-05
-7.00123e-05
-2.63615e-05
-5.6e-05
-2.80205e-05
-4.12995e-05
-2.94025e-05
-2.58864e-05
-3.08255e-05
-9.85277e-06
-3.20578e-05
6.72317e-06
-3.31626e-05
2.37337e-05
-3.40084e-05
4.10362e-05
-3.46077e-05
5.85402e-05
-3.49981e-05
7.60263e-05
-3.49661e-05
9.33208e-05
-3.45766e-05
0.000110242
-3.38324e-05
0.000126503
-3.25051e-05
0.000141952
-3.08844e-05
0.000156312
-2.87049e-05
0.000169384
-2.61237e-05
0.000180939
-2.31057e-05
0.000190791
-1.96919e-05
0.00019871
-1.58244e-05
0.000204552
-1.16739e-05
0.000208163
-7.21219e-06
0.000209454
-2.58027e-06
0.000208386
2.13098e-06
0.000204895
6.98124e-06
0.000198998
1.17945e-05
0.000190809
1.63683e-05
0.000180487
2.06326e-05
0.000168177
2.46108e-05
0.000154045
2.82479e-05
0.000138413
3.12476e-05
0.000121472
3.38677e-05
0.000103571
3.5785e-05
8.49613e-05
3.72094e-05
6.58913e-05
3.81297e-05
4.66608e-05
3.84372e-05
2.75056e-05
3.82879e-05
8.61075e-06
3.77769e-05
-9.77769e-06
3.67658e-05
-2.75013e-05
3.54405e-05
-4.44918e-05
3.39757e-05
-6.05684e-05
3.21374e-05
-7.56773e-05
3.0207e-05
-8.97756e-05
2.81923e-05
-0.00010274
2.59261e-05
-0.000114641
2.37996e-05
-0.0001255
2.17142e-05
-0.000135225
1.94453e-05
-0.000143914
1.73776e-05
-0.000151603
1.53642e-05
-0.000158303
1.34125e-05
-0.000164092
1.15808e-05
-0.000168998
9.81604e-06
-0.000173095
8.18799e-06
-0.00017643
6.67912e-06
-0.000179
5.13666e-06
-0.000180855
3.70257e-06
-0.000182054
2.39502e-06
-0.000182591
1.08046e-06
-0.000182559
-6.28535e-08
-0.000181946
-1.22209e-06
-0.000180812
-2.2616e-06
-0.000179164
-3.30506e-06
-0.000176967
-4.38801e-06
-0.000174216
-5.49839e-06
-0.000170925
-6.59065e-06
-0.000166996
-7.86433e-06
-0.000162477
-9.04499e-06
-0.000157278
-1.04001e-05
-0.00015138
-1.17747e-05
-0.000144777
-1.3211e-05
-0.000137385
-1.47803e-05
-0.00012923
-1.63103e-05
-0.000120225
-1.80223e-05
-0.00011036
-1.9723e-05
-9.96496e-05
-2.14145e-05
-8.80686e-05
-2.316e-05
-7.56464e-05
-2.48429e-05
-6.23788e-05
-2.65258e-05
-4.83127e-05
-2.81303e-05
-3.34451e-05
-2.97738e-05
-1.79728e-05
-3.08913e-05
-1.88149e-06
-3.21721e-05
1.46969e-05
-3.31532e-05
3.16255e-05
-3.38372e-05
4.87444e-05
-3.42315e-05
6.59276e-05
-3.43491e-05
8.2852e-05
-3.38256e-05
9.9378e-05
-3.30467e-05
0.000115218
-3.16652e-05
0.000130138
-2.98248e-05
0.000143914
-2.75348e-05
0.000156235
-2.46258e-05
0.000166911
-2.13317e-05
0.000175655
-1.74813e-05
0.000182331
-1.33421e-05
0.000186758
-8.84427e-06
0.000188852
-4.18557e-06
0.000188532
6.35197e-07
0.000185817
5.42051e-06
0.000180706
1.02202e-05
0.000173408
1.45967e-05
0.000164041
1.87241e-05
0.000152806
2.24526e-05
0.000139858
2.58943e-05
0.00012543
2.88268e-05
0.000109806
3.12364e-05
9.32157e-05
3.31641e-05
7.59151e-05
3.45812e-05
5.82644e-05
3.52812e-05
4.04493e-05
3.56132e-05
2.27546e-05
3.53802e-05
5.38456e-06
3.47325e-05
-1.1511e-05
3.37793e-05
-2.77386e-05
3.24404e-05
-4.32425e-05
3.10084e-05
-5.80065e-05
2.95206e-05
-7.185e-05
2.76752e-05
-8.4845e-05
2.59897e-05
-9.68874e-05
2.40801e-05
-0.00010799
2.2196e-05
-0.000118115
2.02448e-05
-0.000127279
1.83316e-05
-0.000135484
1.64046e-05
-0.000142764
1.45566e-05
-0.000149129
1.27299e-05
-0.000154679
1.10989e-05
-0.000159437
9.51433e-06
-0.00016347
8.07142e-06
-0.000166864
6.80524e-06
-0.000169709
5.67787e-06
-0.00017197
4.51815e-06
-0.000173686
3.42535e-06
-0.000174927
2.48742e-06
-0.000175642
1.43906e-06
-0.000175902
5.13322e-07
-0.000175625
-5.50841e-07
-0.000174879
-1.49277e-06
-0.000173609
-2.54214e-06
-0.000171881
-3.45626e-06
-0.00016963
-4.49715e-06
-0.000166888
-5.4881e-06
-0.000163615
-6.55635e-06
-0.000159813
-7.59881e-06
-0.000155375
-8.88169e-06
-0.000150311
-1.0131e-05
-0.000144506
-1.16106e-05
-0.000137961
-1.30793e-05
-0.000130574
-1.4774e-05
-0.000122356
-1.64372e-05
-0.000113278
-1.81477e-05
-0.000103346
-1.98572e-05
-9.25206e-05
-2.16463e-05
-8.09351e-05
-2.3171e-05
-6.84736e-05
-2.49295e-05
-5.52312e-05
-2.647e-05
-4.12418e-05
-2.79761e-05
-2.65589e-05
-2.93578e-05
-1.12354e-05
-3.06441e-05
4.61841e-06
-3.16914e-05
2.08858e-05
-3.25226e-05
3.74019e-05
-3.30163e-05
5.40397e-05
-3.32676e-05
7.06181e-05
-3.31476e-05
8.69413e-05
-3.26291e-05
0.000102763
-3.16321e-05
0.00011785
-3.01512e-05
0.00013197
-2.82253e-05
0.000144821
-2.56912e-05
0.000156261
-2.28741e-05
0.000166034
-1.95351e-05
0.000173976
-1.58745e-05
0.000179939
-1.19149e-05
0.000183777
-7.67263e-06
0.00018545
-3.34613e-06
0.000184929
1.03667e-06
0.000182193
5.45289e-06
0.000177262
9.85613e-06
0.000170375
1.37719e-05
0.000161575
1.75904e-05
0.000151135
2.08947e-05
0.000139204
2.38223e-05
0.00012604
2.6323e-05
0.000112007
2.80571e-05
9.7159e-05
2.96822e-05
8.18613e-05
3.05851e-05
6.64857e-05
3.07435e-05
5.09975e-05
3.09619e-05
3.57197e-05
3.05546e-05
2.08382e-05
2.97593e-05
6.53166e-06
2.86111e-05
-7.19273e-06
2.74345e-05
-2.02403e-05
2.60878e-05
-3.24961e-05
2.45093e-05
-4.39878e-05
2.29867e-05
-5.47459e-05
2.15138e-05
-6.47333e-05
1.99745e-05
-7.40257e-05
1.85868e-05
-8.27095e-05
1.73684e-05
-9.07407e-05
1.60634e-05
-9.81764e-05
1.48731e-05
-0.000105065
1.37768e-05
-0.0001113
1.2467e-05
-0.000117008
1.14154e-05
-0.000122128
1.02441e-05
-0.000126639
9.02052e-06
-0.000130609
7.93475e-06
-0.000133985
6.7561e-06
-0.00013676
5.5524e-06
-0.000139047
4.57034e-06
-0.000140825
3.55466e-06
-0.000142063
2.47845e-06
-0.000142893
1.65965e-06
-0.000143249
7.13747e-07
-0.000143187
-1.26077e-07
-0.000142663
-1.0471e-06
-0.000141708
-1.91222e-06
-0.00014029
-2.83343e-06
-0.00013843
-3.72852e-06
-0.000136039
-4.78045e-06
-0.000133052
-5.9704e-06
-0.000129474
-7.16033e-06
-0.000125209
-8.5282e-06
-0.000120373
-9.67845e-06
-0.000114604
-1.15342e-05
-0.00010818
-1.28382e-05
-0.00010086
-1.46515e-05
-9.27323e-05
-1.62475e-05
-8.36579e-05
-1.81551e-05
-7.37519e-05
-1.98046e-05
-6.28441e-05
-2.18175e-05
-5.12749e-05
-2.31218e-05
-3.86363e-05
-2.5288e-05
-2.52807e-05
-2.67095e-05
-1.11777e-05
-2.81991e-05
3.60263e-06
-2.95587e-05
1.89317e-05
-3.06538e-05
3.48094e-05
-3.17457e-05
5.10581e-05
-3.24846e-05
6.74501e-05
-3.27777e-05
8.38819e-05
-3.286e-05
0.000100239
-3.27005e-05
0.000116208
-3.19278e-05
0.000131678
-3.09225e-05
0.000146512
-2.96606e-05
0.000160375
-2.77248e-05
0.000173195
-2.56287e-05
0.000184717
-2.30359e-05
0.00019482
-2.01922e-05
0.000203346
-1.70429e-05
0.00021016
-1.36123e-05
0.000215206
-1.00902e-05
0.000218368
-6.31729e-06
0.000219649
-2.55135e-06
0.000219027
1.21625e-06
0.000216494
5.05379e-06
0.000212143
8.69886e-06
0.000206101
1.20806e-05
0.000198343
1.55084e-05
0.000189175
1.83299e-05
0.000178631
2.10805e-05
0.000166766
2.37196e-05
0.000153936
2.56507e-05
0.000140132
2.75988e-05
0.00012566
2.89351e-05
0.000110547
3.02177e-05
9.49232e-05
3.12387e-05
7.90993e-05
3.16402e-05
6.30855e-05
3.20201e-05
3.20822e-05
-0.000178231
-5.17122e-06
-0.000175741
-7.47597e-06
-0.000172552
-9.57172e-06
-0.00016863
-1.17791e-05
-0.00016384
-1.43758e-05
-0.000158315
-1.65744e-05
-0.0001517
-1.98805e-05
-0.000144313
-2.21416e-05
-0.000136126
-2.45772e-05
-0.000126865
-2.77761e-05
-0.0001167
-3.05007e-05
-0.000105492
-3.36326e-05
-9.32695e-05
-3.66585e-05
-8.00428e-05
-3.96891e-05
-6.56806e-05
-4.30576e-05
-5.04506e-05
-4.57031e-05
-3.43742e-05
-4.81907e-05
-1.75378e-05
-5.0485e-05
1.18916e-07
-5.29348e-05
1.82657e-05
-5.44016e-05
3.69659e-05
-5.60544e-05
5.60161e-05
-5.71103e-05
7.5019e-05
-5.69565e-05
9.39156e-05
-5.6634e-05
0.000112384
-5.53676e-05
0.000130264
-5.35746e-05
0.000147221
-5.08191e-05
0.000162996
-4.72707e-05
0.0001773
-4.28703e-05
0.000189942
-3.78586e-05
0.000200637
-3.20664e-05
0.000209246
-2.5789e-05
0.000215569
-1.89533e-05
0.000219546
-1.19127e-05
0.000221068
-4.53368e-06
0.000219975
3.22091e-06
0.000216456
1.04966e-05
0.000210556
1.77016e-05
0.000202286
2.47726e-05
0.000191917
3.10829e-05
0.000179678
3.66738e-05
0.000165732
4.17813e-05
0.000150401
4.59487e-05
0.000133772
4.98268e-05
0.000116262
5.25217e-05
9.8066e-05
5.45061e-05
7.93476e-05
5.60948e-05
6.05652e-05
5.63104e-05
4.17266e-05
5.64639e-05
2.31618e-05
5.56784e-05
4.917e-06
5.47099e-05
-1.26585e-05
5.2683e-05
-2.96156e-05
5.08352e-05
-4.58337e-05
4.86309e-05
-6.11731e-05
4.59963e-05
-7.56014e-05
4.32759e-05
-8.91216e-05
4.05423e-05
-0.000101629
3.75192e-05
-0.000113189
3.46757e-05
-0.000123794
3.18071e-05
-0.000133447
2.897e-05
-0.000142251
2.64045e-05
-0.000150111
2.35831e-05
-0.000157111
2.10087e-05
-0.000163313
1.86057e-05
-0.00016864
1.59856e-05
-0.000173146
1.34971e-05
-0.000176873
1.11868e-05
-0.00017973
8.61498e-06
-0.000181914
6.49613e-06
-0.00018327
4.0829e-06
-0.000183801
1.62369e-06
-0.000183645
-4.66234e-07
-0.000182697
-2.82603e-06
-0.000180829
-5.65025e-06
-0.000178317
-7.50809e-06
-0.00017479
-1.05687e-05
-0.000170605
-1.25748e-05
-0.000165568
-1.51054e-05
-0.000159652
-1.77591e-05
-0.000152982
-1.99546e-05
-0.000145502
-2.25064e-05
-0.00013713
-2.50865e-05
-0.000128046
-2.72661e-05
-0.000118061
-2.99686e-05
-0.000107323
-3.22e-05
-9.57186e-05
-3.48389e-05
-8.32706e-05
-3.73233e-05
-7.01055e-05
-3.95267e-05
-5.61129e-05
-4.20133e-05
-4.13971e-05
-4.41185e-05
-2.59784e-05
-4.62443e-05
-9.94109e-06
-4.80953e-05
6.6355e-06
-4.97393e-05
2.36682e-05
-5.10412e-05
4.09656e-05
-5.19053e-05
5.84842e-05
-5.25168e-05
7.5985e-05
-5.2467e-05
9.32948e-05
-5.18866e-05
0.000110231
-5.07687e-05
0.000126507
-4.87809e-05
0.000141977
-4.63543e-05
0.000156343
-4.30715e-05
0.000169438
-3.92191e-05
0.000181014
-3.46817e-05
0.000190875
-2.95531e-05
0.000198833
-2.3782e-05
0.00020467
-1.7511e-05
0.000208291
-1.08336e-05
0.000209603
-3.89241e-06
0.000208499
3.23469e-06
0.000205
1.048e-05
0.000199122
1.76724e-05
0.000190913
2.45775e-05
0.000180574
3.09711e-05
0.000168239
3.69454e-05
0.000154094
4.23933e-05
0.000138442
4.68998e-05
0.000121483
5.08266e-05
0.000103552
5.3716e-05
8.49189e-05
5.58421e-05
6.58219e-05
5.72266e-05
4.65699e-05
5.76892e-05
2.74039e-05
5.74538e-05
8.49245e-06
5.66883e-05
-9.91563e-06
5.51738e-05
-2.76433e-05
5.31681e-05
-4.46336e-05
5.0966e-05
-6.07336e-05
4.82374e-05
-7.58458e-05
4.53192e-05
-8.99551e-05
4.23016e-05
-0.000102925
3.88964e-05
-0.000114818
3.56918e-05
-0.000125677
3.25734e-05
-0.000135402
2.91702e-05
-0.000144089
2.60649e-05
-0.000151789
2.30644e-05
-0.000158472
2.00952e-05
-0.000164255
1.73636e-05
-0.000169156
1.47172e-05
-0.00017326
1.22915e-05
-0.000176589
1.00085e-05
-0.00017915
7.69801e-06
-0.000181019
5.57106e-06
-0.000182212
3.58861e-06
-0.000182738
1.60632e-06
-0.000182696
-1.04798e-07
-0.000182081
-1.83757e-06
-0.000180945
-3.39728e-06
-0.000179299
-4.95107e-06
-0.000177107
-6.58052e-06
-0.00017436
-8.24483e-06
-0.000171072
-9.8788e-06
-0.000167146
-1.17903e-05
-0.000162624
-1.3567e-05
-0.000157426
-1.55989e-05
-0.000151491
-1.77095e-05
-0.000144938
-1.97642e-05
-0.000137548
-2.21704e-05
-0.000129385
-2.44734e-05
-0.000120378
-2.70295e-05
-0.000110512
-2.95888e-05
-9.97915e-05
-3.21349e-05
-8.82178e-05
-3.47338e-05
-7.58004e-05
-3.72603e-05
-6.25238e-05
-3.98025e-05
-4.84598e-05
-4.21944e-05
-3.36146e-05
-4.46191e-05
-1.8107e-05
-4.6399e-05
-2.00043e-06
-4.82788e-05
1.45899e-05
-4.97437e-05
3.15298e-05
-5.07772e-05
4.86687e-05
-5.13706e-05
6.58523e-05
-5.15328e-05
8.28102e-05
-5.07836e-05
9.93573e-05
-4.9594e-05
0.000115219
-4.75267e-05
0.000130159
-4.47656e-05
0.000143948
-4.13233e-05
0.000156296
-3.69745e-05
0.000167004
-3.20396e-05
0.000175752
-2.623e-05
0.000182437
-2.00266e-05
0.000186877
-1.32847e-05
0.000188972
-6.28129e-06
0.000188647
9.60923e-07
0.00018592
8.14727e-06
0.000180812
1.53274e-05
0.000173496
2.19131e-05
0.000164107
2.81124e-05
0.000152852
3.3708e-05
0.000139886
3.88598e-05
0.00012545
4.32632e-05
0.000109803
4.68833e-05
9.31996e-05
4.97671e-05
7.58735e-05
5.19072e-05
5.81895e-05
5.29652e-05
4.03561e-05
5.34465e-05
2.2645e-05
5.30913e-05
5.25667e-06
5.21208e-05
-1.16458e-05
5.06817e-05
-2.78861e-05
4.86806e-05
-4.33922e-05
4.65145e-05
-5.81597e-05
4.42881e-05
-7.2009e-05
4.15245e-05
-8.50093e-05
3.89899e-05
-9.70536e-05
3.61244e-05
-0.000108159
3.33014e-05
-0.000118283
3.03686e-05
-0.000127443
2.74915e-05
-0.000135646
2.4608e-05
-0.000142929
2.18399e-05
-0.000149295
1.90952e-05
-0.000154838
1.6642e-05
-0.000159595
1.42713e-05
-0.000163619
1.20959e-05
-0.00016697
1.01563e-05
-0.000169839
8.5467e-06
-0.000172105
6.78347e-06
-0.000173837
5.15795e-06
-0.00017506
3.71036e-06
-0.000175777
2.15571e-06
-0.000176028
7.64421e-07
-0.000175748
-8.31326e-07
-0.000175012
-2.22871e-06
-0.000173721
-3.83261e-06
-0.000172008
-5.16897e-06
-0.000169761
-6.74442e-06
-0.000167022
-8.22755e-06
-0.000163756
-9.82217e-06
-0.000159954
-1.14009e-05
-0.000155523
-1.33125e-05
-0.000150461
-1.51932e-05
-0.000144664
-1.74078e-05
-0.000138111
-1.96321e-05
-0.000130727
-2.21587e-05
-0.000122512
-2.4652e-05
-0.000113423
-2.72366e-05
-0.000103496
-2.97837e-05
-9.26676e-05
-3.24752e-05
-8.10791e-05
-3.47596e-05
-6.86239e-05
-3.73847e-05
-5.53732e-05
-3.97208e-05
-4.13779e-05
-4.19715e-05
-2.66851e-05
-4.40508e-05
-1.13604e-05
-4.59688e-05
4.5057e-06
-4.75576e-05
2.07818e-05
-4.87988e-05
3.73147e-05
-4.95492e-05
5.39729e-05
-4.99259e-05
7.05588e-05
-4.97337e-05
8.69053e-05
-4.89756e-05
0.000102747
-4.74743e-05
0.000117859
-4.52631e-05
0.000132003
-4.2369e-05
0.000144872
-3.8561e-05
0.000156327
-3.43287e-05
0.000166115
-2.93233e-05
0.000174067
-2.38269e-05
0.000180036
-1.78841e-05
0.000183878
-1.15144e-05
0.000185558
-5.02641e-06
0.00018506
1.53471e-06
0.000182277
8.23563e-06
0.000177352
1.47804e-05
0.000170458
2.06653e-05
0.000161646
2.64022e-05
0.000151239
3.13018e-05
0.000139243
3.58183e-05
0.00012607
3.94952e-05
0.00011203
4.20974e-05
9.71595e-05
4.45523e-05
8.18518e-05
4.58926e-05
6.6468e-05
4.61273e-05
5.09543e-05
4.64754e-05
3.56728e-05
4.5836e-05
2.07845e-05
4.46477e-05
6.47822e-06
4.29173e-05
-7.26109e-06
4.11738e-05
-2.03177e-05
3.91444e-05
-3.25731e-05
3.67646e-05
-4.40595e-05
3.44731e-05
-5.48209e-05
3.22752e-05
-6.48044e-05
2.9958e-05
-7.40912e-05
2.78735e-05
-8.27714e-05
2.60486e-05
-9.07987e-05
2.40907e-05
-9.82271e-05
2.23015e-05
-0.000105112
2.06621e-05
-0.00011135
1.87043e-05
-0.000117054
1.71197e-05
-0.000122172
1.5362e-05
-0.000126683
1.3531e-05
-0.000130659
1.19113e-05
-0.000134029
1.01262e-05
-0.0001368
8.32369e-06
-0.000139092
6.86164e-06
-0.00014087
5.33342e-06
-0.000142104
3.71182e-06
-0.000142934
2.49021e-06
-0.000143286
1.06572e-06
-0.000143227
-1.85031e-07
-0.000142698
-1.577e-06
-0.000141746
-2.86411e-06
-0.000140326
-4.25272e-06
-0.000138481
-5.57357e-06
-0.000136079
-7.18233e-06
-0.000133099
-8.95085e-06
-0.000129529
-1.07304e-05
-0.000125263
-1.27944e-05
-0.000120441
-1.45005e-05
-0.000114665
-1.731e-05
-0.000108237
-1.92666e-05
-0.00010093
-2.19579e-05
-9.27967e-05
-2.43811e-05
-8.37307e-05
-2.72211e-05
-7.38177e-05
-2.97176e-05
-6.29132e-05
-3.27221e-05
-5.13286e-05
-3.47065e-05
-3.86992e-05
-3.79174e-05
-2.53449e-05
-4.00638e-05
-1.12289e-05
-4.23153e-05
3.563e-06
-4.43507e-05
1.89026e-05
-4.59935e-05
3.47963e-05
-4.76395e-05
5.10594e-05
-4.87477e-05
6.74642e-05
-4.91826e-05
8.39102e-05
-4.93061e-05
0.000100287
-4.90775e-05
0.000116271
-4.79121e-05
0.000131755
-4.64059e-05
0.000146609
-4.45148e-05
0.000160488
-4.16041e-05
0.00017333
-3.84707e-05
0.000184865
-3.45709e-05
0.00019498
-3.03078e-05
0.000203517
-2.55797e-05
0.000210333
-2.04278e-05
0.00021539
-1.51477e-05
0.000218551
-9.47865e-06
0.000219834
-3.83383e-06
0.000219184
1.86597e-06
0.000216634
7.60314e-06
0.000212277
1.30566e-05
0.000206228
1.81295e-05
0.000198459
2.32772e-05
0.000189281
2.75074e-05
0.000178727
3.16347e-05
0.00016685
3.55966e-05
0.000154008
3.84926e-05
0.000140188
4.14182e-05
0.000125706
4.34172e-05
0.000110581
4.53432e-05
9.49446e-05
4.68749e-05
7.91094e-05
4.74754e-05
6.30831e-05
4.80463e-05
4.81385e-05
-0.000178315
-6.89145e-06
-0.000175827
-9.96399e-06
-0.000172641
-1.27578e-05
-0.000168722
-1.5698e-05
-0.000163935
-1.91628e-05
-0.000158409
-2.21004e-05
-0.000151813
-2.64769e-05
-0.000144418
-2.95367e-05
-0.00013624
-3.27551e-05
-0.000126976
-3.70404e-05
-0.000116817
-4.06596e-05
-0.000105611
-4.48391e-05
-9.33833e-05
-4.88859e-05
-8.01638e-05
-5.29087e-05
-6.5784e-05
-5.74376e-05
-5.05645e-05
-6.09227e-05
-3.44643e-05
-6.4291e-05
-1.76177e-05
-6.73316e-05
6.68726e-08
-7.06195e-05
1.82436e-05
-7.25785e-05
3.69657e-05
-7.47766e-05
5.60404e-05
-7.6185e-05
7.50736e-05
-7.59899e-05
9.40051e-05
-7.55657e-05
0.000112495
-7.38574e-05
0.00013041
-7.14897e-05
0.000147395
-6.78043e-05
0.000163195
-6.30713e-05
0.00017753
-5.72056e-05
0.000190212
-5.05406e-05
0.000200917
-4.27715e-05
0.000209547
-3.44191e-05
0.000215883
-2.52887e-05
0.000219867
-1.58972e-05
0.000221388
-6.05494e-06
0.000220259
4.34986e-06
0.000216722
1.40337e-05
0.00021082
2.36031e-05
0.000202528
3.30654e-05
0.000192147
4.14631e-05
0.000179879
4.89416e-05
0.000165901
5.57594e-05
0.000150543
6.13069e-05
0.000133879
6.64909e-05
0.000116361
7.0039e-05
9.81216e-05
7.27459e-05
7.93686e-05
7.48477e-05
6.0564e-05
7.5115e-05
4.16955e-05
7.53324e-05
2.31224e-05
7.42514e-05
4.87314e-06
7.29592e-05
-1.27376e-05
7.02937e-05
-2.97158e-05
6.78134e-05
-4.59467e-05
6.48618e-05
-6.12965e-05
6.13461e-05
-7.57291e-05
5.77085e-05
-8.92574e-05
5.40706e-05
-0.000101765
5.00267e-05
-0.000113326
4.62369e-05
-0.000123934
4.24154e-05
-0.000133576
3.86113e-05
-0.000142388
3.52164e-05
-0.000150242
3.14371e-05
-0.00015724
2.80072e-05
-0.000163443
2.48085e-05
-0.000168763
2.13051e-05
-0.000173271
1.80059e-05
-0.000176999
1.49144e-05
-0.000179833
1.1449e-05
-0.000182045
8.70795e-06
-0.000183395
5.43246e-06
-0.000183909
2.13842e-06
-0.00018375
-6.25403e-07
-0.000182787
-3.78953e-06
-0.000180946
-7.49114e-06
-0.000178419
-1.0035e-05
-0.000174898
-1.40898e-05
-0.000170719
-1.67537e-05
-0.000165678
-2.01466e-05
-0.000159766
-2.36714e-05
-0.000153065
-2.66562e-05
-0.000145628
-2.99437e-05
-0.000137241
-3.34738e-05
-0.000128171
-3.63354e-05
-0.000118196
-3.99439e-05
-0.000107444
-4.29526e-05
-9.5856e-05
-4.64269e-05
-8.3402e-05
-4.97774e-05
-7.02616e-05
-5.26673e-05
-5.62808e-05
-5.59943e-05
-4.15485e-05
-5.88509e-05
-2.6127e-05
-6.16659e-05
-1.0088e-05
-6.41344e-05
6.51144e-06
-6.63388e-05
2.3548e-05
-6.8078e-05
4.08544e-05
-6.92118e-05
5.83907e-05
-7.00532e-05
7.59112e-05
-6.99877e-05
9.32511e-05
-6.92266e-05
0.000110196
-6.77137e-05
0.000126504
-6.5089e-05
0.000141998
-6.18483e-05
0.000156386