/*--------------------------------*- C++ -*----------------------------------*\
| =========                 |                                                 |
| \\      /  F ield         | OpenFOAM: The Open Source CFD Toolbox           |
|  \\    /   O peration     | Version:  3.0.1                                 |
|   \\  /    A nd           | Web:      www.OpenFOAM.org                      |
|    \\/     M anipulation  |                                                 |
\*---------------------------------------------------------------------------*/
FoamFile
{
    version     2.0;
    format      ascii;
    class       surfaceScalarField;
    location    "39";
    object      phi;
}
// * * * * * * * * * * * * * * * * * * * * * * * * * * * * * * * * * * * * * //

dimensions      [0 3 -1 0 0 0 0];

internalField   nonuniform List<scalar> 
42423
(
8.14503e-05
-1.80854e-05
9.9665e-05
-1.82149e-05
0.000117615
-1.79501e-05
0.000134975
-1.73606e-05
0.000151773
-1.67974e-05
0.0001676
-1.58279e-05
0.00018231
-1.47093e-05
0.000195608
-1.32987e-05
0.000207254
-1.16458e-05
0.000217028
-9.77397e-06
0.000224764
-7.73643e-06
0.00023037
-5.60584e-06
0.000233707
-3.3375e-06
0.000234697
-9.89712e-07
0.000233337
1.35998e-06
0.00022955
3.78689e-06
0.000223358
6.1912e-06
0.000215132
8.22643e-06
0.00020499
1.01419e-05
0.000192958
1.20316e-05
0.000179437
1.35215e-05
0.000164663
1.47734e-05
0.000148733
1.59296e-05
0.000131973
1.67607e-05
0.000114672
1.73009e-05
9.70737e-05
1.75981e-05
7.92637e-05
1.78099e-05
6.1481e-05
1.77827e-05
4.40607e-05
1.74202e-05
2.68783e-05
1.71824e-05
1.01996e-05
1.66787e-05
-5.71851e-06
1.59181e-05
-2.09846e-05
1.52661e-05
-3.54649e-05
1.44802e-05
-4.91357e-05
1.36709e-05
-6.1924e-05
1.27883e-05
-7.38214e-05
1.18974e-05
-8.48361e-05
1.10147e-05
-9.49713e-05
1.01351e-05
-0.000104229
9.25792e-06
-0.000112643
8.4133e-06
-0.000120224
7.58101e-06
-0.00012702
6.79692e-06
-0.000133047
6.0268e-06
-0.000138342
5.29469e-06
-0.000142925
4.5826e-06
-0.000146792
3.86755e-06
-0.000149978
3.18602e-06
-0.000152539
2.56131e-06
-0.000154446
1.90618e-06
-0.0001557
1.25407e-06
-0.000156357
6.56924e-07
-0.000156293
-6.36274e-08
-0.000155602
-6.91461e-07
-0.000154227
-1.37489e-06
-0.000152131
-2.09559e-06
-0.000149346
-2.78549e-06
-0.000145946
-3.39986e-06
-0.000141726
-4.22006e-06
-0.000136742
-4.98387e-06
-0.000130924
-5.81745e-06
-0.000124275
-6.64996e-06
-0.0001169
-7.37485e-06
-0.00010861
-8.28946e-06
-9.94528e-05
-9.15755e-06
-8.95492e-05
-9.90361e-06
-7.87135e-05
-1.08358e-05
-6.70808e-05
-1.16327e-05
-5.45393e-05
-1.25416e-05
-4.12286e-05
-1.33107e-05
-2.72114e-05
-1.40174e-05
-1.24304e-05
-1.4781e-05
2.94581e-06
-1.53763e-05
1.88208e-05
-1.58751e-05
3.51473e-05
-1.63265e-05
5.18379e-05
-1.66907e-05
6.8721e-05
-1.68831e-05
8.57145e-05
-1.69936e-05
0.00010261
-1.68955e-05
0.000119328
-1.67185e-05
0.000135697
-1.63687e-05
0.000151495
-1.57985e-05
0.000166577
-1.50821e-05
0.000180695
-1.41174e-05
0.000193759
-1.30645e-05
0.000205523
-1.17642e-05
0.000215827
-1.03037e-05
0.000224484
-8.65715e-06
0.000231356
-6.87217e-06
0.000236259
-4.90325e-06
0.000239126
-2.86706e-06
0.000239822
-6.96346e-07
0.000238381
1.44122e-06
0.00023466
3.72134e-06
0.00022877
5.88909e-06
0.00022081
7.96005e-06
0.000210869
9.94078e-06
0.000199084
1.17849e-05
0.000185586
1.34988e-05
0.000170639
1.49463e-05
0.000154425
1.62145e-05
0.000137144
1.72808e-05
0.000119034
1.81093e-05
0.000100374
1.86602e-05
8.13738e-05
1.90003e-05
6.22843e-05
1.90895e-05
4.32666e-05
1.90177e-05
2.46162e-05
1.86503e-05
6.49429e-06
1.81219e-05
-1.09741e-05
1.74684e-05
-2.76257e-05
1.66516e-05
-4.3373e-05
1.57473e-05
-5.813e-05
1.4757e-05
-7.18457e-05
1.37157e-05
-8.44992e-05
1.26535e-05
-9.60934e-05
1.15942e-05
-0.000106644
1.05503e-05
-0.000116124
9.48046e-06
-0.000124606
8.4816e-06
-0.000132103
7.49753e-06
-0.000138623
6.52e-06
-0.000144224
5.60084e-06
-0.00014897
4.74597e-06
-0.000152801
3.83057e-06
-0.000155798
2.9975e-06
-0.000158093
2.2949e-06
-0.000159565
1.47222e-06
-0.000160336
7.71102e-07
-0.000160427
9.09749e-08
-0.000159804
-6.23731e-07
-0.000158543
-1.26052e-06
-0.000156667
-1.87595e-06
-0.000154094
-2.57298e-06
-0.000150992
-3.10187e-06
-0.000147282
-3.71067e-06
-0.000142961
-4.32122e-06
-0.000137981
-4.97913e-06
-0.000132337
-5.64493e-06
-0.000125995
-6.34134e-06
-0.000118953
-7.04242e-06
-0.000111176
-7.77713e-06
-0.000102601
-8.57498e-06
-9.33161e-05
-9.2848e-06
-8.31553e-05
-1.01609e-05
-7.20973e-05
-1.10581e-05
-6.02323e-05
-1.18651e-05
-4.74323e-05
-1.28001e-05
-3.39213e-05
-1.35111e-05
-1.95738e-05
-1.43476e-05
-4.45852e-06
-1.51153e-05
1.11935e-05
-1.56522e-05
2.74566e-05
-1.62631e-05
4.41644e-05
-1.67079e-05
6.11784e-05
-1.70141e-05
7.83576e-05
-1.71793e-05
9.54963e-05
-1.71388e-05
0.000112399
-1.69025e-05
0.000128841
-1.64427e-05
0.000144557
-1.57154e-05
0.000159332
-1.47757e-05
0.000172836
-1.35039e-05
0.000184896
-1.20597e-05
0.000195162
-1.02662e-05
0.000203517
-8.35579e-06
0.000209693
-6.17555e-06
0.000213565
-3.87216e-06
0.00021501
-1.44492e-06
0.000214016
9.935e-07
0.000210463
3.55303e-06
0.00020444
6.02268e-06
0.000196073
8.36717e-06
0.000185536
1.05367e-05
0.000173009
1.25266e-05
0.000158675
1.43347e-05
0.000142811
1.58638e-05
0.000125733
1.70778e-05
0.000107683
1.80493e-05
8.89995e-05
1.86839e-05
6.99118e-05
1.90877e-05
5.07393e-05
1.91725e-05
3.16332e-05
1.9106e-05
1.28855e-05
1.87476e-05
-5.29466e-06
1.81801e-05
-2.27572e-05
1.74625e-05
-3.93491e-05
1.65918e-05
-5.49976e-05
1.56485e-05
-6.96368e-05
1.46391e-05
-8.32818e-05
1.3645e-05
-9.58734e-05
1.25917e-05
-0.00010741
1.15367e-05
-0.000117898
1.04876e-05
-0.000127307
9.40919e-06
-0.000135681
8.37391e-06
-0.000143052
7.37105e-06
-0.000149489
6.43699e-06
-0.000155078
5.58905e-06
-0.000159851
4.77258e-06
-0.000163864
4.01346e-06
-0.000167138
3.27422e-06
-0.00016969
2.55148e-06
-0.000171525
1.83549e-06
-0.000172724
1.19873e-06
-0.000173236
5.11594e-07
-0.000173073
-1.63091e-07
-0.000172341
-7.31137e-07
-0.000170916
-1.42588e-06
-0.000168927
-1.9883e-06
-0.000166283
-2.64444e-06
-0.000162961
-3.32202e-06
-0.00015912
-3.84088e-06
-0.000154536
-4.58417e-06
-0.00014926
-5.27571e-06
-0.000143212
-6.04843e-06
-0.000136352
-6.86004e-06
-0.000128748
-7.60343e-06
-0.000120283
-8.46495e-06
-0.000110973
-9.31029e-06
-0.000100851
-1.01219e-05
-8.98768e-05
-1.09746e-05
-7.80793e-05
-1.17975e-05
-6.53714e-05
-1.2708e-05
-5.18384e-05
-1.3533e-05
-3.74856e-05
-1.43529e-05
-2.23255e-05
-1.51601e-05
-6.53296e-06
-1.57926e-05
9.8784e-06
-1.64114e-05
2.67195e-05
-1.68412e-05
4.38792e-05
-1.71598e-05
6.11892e-05
-1.73101e-05
7.84315e-05
-1.72424e-05
9.53793e-05
-1.69478e-05
0.000111813
-1.6434e-05
0.000127443
-1.56297e-05
0.000141975
-1.45321e-05
0.000155209
-1.32341e-05
0.00016683
-1.16212e-05
0.000176625
-9.79519e-06
0.000184344
-7.71888e-06
0.000189814
-5.4704e-06
0.000192928
-3.11398e-06
0.000193615
-6.86839e-07
0.000191888
1.7265e-06
0.000187629
4.25899e-06
0.00018105
6.57916e-06
0.000172254
8.79567e-06
0.000161414
1.08406e-05
0.000148714
1.26991e-05
0.000134421
1.42935e-05
0.000118825
1.55961e-05
0.000102171
1.66533e-05
8.4737e-05
1.74343e-05
6.68438e-05
1.78932e-05
4.86756e-05
1.81682e-05
3.04941e-05
1.81814e-05
1.2522e-05
1.7972e-05
-5.09043e-06
1.76124e-05
-2.21262e-05
1.70357e-05
-3.84879e-05
1.63616e-05
-5.4062e-05
1.55741e-05
-6.87973e-05
1.47352e-05
-8.26332e-05
1.38359e-05
-9.55325e-05
1.28993e-05
-0.000107494
1.19615e-05
-0.000118502
1.10081e-05
-0.000128592
1.009e-05
-0.000137797
9.20475e-06
-0.000146016
8.21969e-06
-0.000153344
7.32794e-06
-0.00015975
6.40533e-06
-0.000165254
5.50425e-06
-0.000169923
4.66893e-06
-0.000173677
3.75439e-06
-0.000176637
2.95979e-06
-0.000178857
2.21964e-06
-0.000180249
1.39175e-06
-0.000180955
7.06469e-07
-0.000180792
-1.626e-07
-0.000179837
-9.55832e-07
-0.000178145
-1.69206e-06
-0.000175597
-2.54801e-06
-0.000172338
-3.2588e-06
-0.00016822
-4.11802e-06
-0.000163391
-4.82861e-06
-0.000157877
-5.51406e-06
-0.000151708
-6.16894e-06
-0.000144899
-6.80887e-06
-0.000137584
-7.31526e-06
-0.000129538
-8.04588e-06
-0.000121003
-8.53509e-06
-0.000111751
-9.25225e-06
-0.000101821
-9.92969e-06
-9.12862e-05
-1.05351e-05
-7.99468e-05
-1.13394e-05
-6.77717e-05
-1.21751e-05
-5.49518e-05
-1.28199e-05
-4.11871e-05
-1.37647e-05
-2.6536e-05
-1.46512e-05
-1.12217e-05
-1.53144e-05
4.88897e-06
-1.61107e-05
2.15063e-05
-1.66174e-05
3.86549e-05
-1.71486e-05
5.61887e-05
-1.75339e-05
7.37164e-05
-1.75277e-05
9.11922e-05
-1.74759e-05
0.000108383
-1.7191e-05
0.000124882
-1.64991e-05
0.000140542
-1.56598e-05
0.00015506
-1.45177e-05
0.00016826
-1.32004e-05
0.000179833
-1.1573e-05
0.000189498
-9.66479e-06
0.000197188
-7.69039e-06
0.00020275
-5.56173e-06
0.000205973
-3.22368e-06
0.000206887
-9.1392e-07
0.000205333
1.55455e-06
0.00020139
3.94271e-06
0.00019523
6.15924e-06
0.000186814
8.41664e-06
0.000176556
1.02578e-05
0.000164686
1.18698e-05
0.000151217
1.34692e-05
0.000136576
1.46413e-05
0.00012104
1.55353e-05
0.000104747
1.6293e-05
8.79742e-05
1.67729e-05
7.10281e-05
1.69461e-05
5.39495e-05
1.70785e-05
3.69952e-05
1.69543e-05
2.04474e-05
1.65478e-05
4.28811e-06
1.61593e-05
-1.13971e-05
1.56852e-05
-2.64662e-05
1.50691e-05
-4.08186e-05
1.43524e-05
-5.44264e-05
1.36078e-05
-6.72283e-05
1.28019e-05
-7.92404e-05
1.20121e-05
-9.0434e-05
1.11936e-05
-0.000100788
1.03538e-05
-0.000110334
9.546e-06
-0.000119057
8.72305e-06
-0.000126959
7.90229e-06
-0.000134062
7.10269e-06
-0.000140362
6.29966e-06
-0.00014588
5.51804e-06
-0.000150618
4.73819e-06
-0.000154576
3.95807e-06
-0.000157763
3.18671e-06
-0.000160184
2.42124e-06
-0.000161837
1.65327e-06
-0.000162729
8.92257e-07
-0.000162864
1.34766e-07
-0.000162148
-7.15839e-07
-0.000160638
-1.50999e-06
-0.000158332
-2.30643e-06
-0.000155255
-3.07725e-06
-3.85835e-06
8.14525e-05
-3.61786e-05
9.96768e-05
-3.64396e-05
0.000117639
-3.59124e-05
0.000135017
-3.47389e-05
0.000151825
-3.36055e-05
0.000167663
-3.16668e-05
0.00018239
-2.94356e-05
0.000195699
-2.6608e-05
0.000207352
-2.32997e-05
0.000217146
-1.95682e-05
0.000224909
-1.54992e-05
0.000230511
-1.12078e-05
0.000233834
-6.66132e-06
0.000234824
-1.97942e-06
0.000233455
2.72908e-06
0.000229664
7.57722e-06
0.000223469
1.23866e-05
0.000215235
1.64603e-05
0.000205083
2.02937e-05
0.000193045
2.40697e-05
0.000179511
2.70547e-05
0.000164724
2.95606e-05
0.000148786
3.18677e-05
0.000132014
3.35327e-05
0.000114698
3.4617e-05
9.70919e-05
3.52037e-05
7.92718e-05
3.56299e-05
6.14784e-05
3.55761e-05
4.4046e-05
3.48526e-05
2.68652e-05
3.4363e-05
1.01789e-05
3.3365e-05
-5.74137e-06
3.18383e-05
-2.10125e-05
3.05372e-05
-3.54966e-05
2.89643e-05
-4.91713e-05
2.73455e-05
-6.19633e-05
2.55801e-05
-7.3863e-05
2.37971e-05
-8.488e-05
2.20317e-05
-9.5015e-05
2.02701e-05
-0.000104274
1.85164e-05
-0.000112688
1.68275e-05
-0.000120271
1.51637e-05
-0.000127066
1.35927e-05
-0.000133095
1.20555e-05
-0.000138389
1.05884e-05
-0.00014297
9.16424e-06
-0.000146844
7.74114e-06
-0.000150037
6.37899e-06
-0.000152597
5.12148e-06
-0.000154498
3.80692e-06
-0.000155757
2.51304e-06
-0.000156413
1.31307e-06
-0.000156354
-1.23121e-07
-0.00015566
-1.38463e-06
-0.000154285
-2.75008e-06
-0.000152195
-4.18608e-06
-0.000149409
-5.57171e-06
-0.000146009
-6.79918e-06
-0.000141794
-8.43571e-06
-0.000136809
-9.9688e-06
-0.000130995
-1.16318e-05
-0.000124349
-1.32958e-05
-0.000116962
-1.47613e-05
-0.000108673
-1.65785e-05
-9.95136e-05
-1.83175e-05
-8.96156e-05
-1.98017e-05
-7.87731e-05
-2.16784e-05
-6.71437e-05
-2.32623e-05
-5.45938e-05
-2.50916e-05
-4.12804e-05
-2.66242e-05
-2.72591e-05
-2.80388e-05
-1.24705e-05
-2.95698e-05
2.90816e-06
-3.07551e-05
1.87908e-05
-3.17579e-05
3.51291e-05
-3.2665e-05
5.18235e-05
-3.33853e-05
6.87074e-05
-3.37673e-05
8.57139e-05
-3.40003e-05
0.000102617
-3.37991e-05
0.000119347
-3.34484e-05
0.000135729
-3.27506e-05
0.000151532
-3.16019e-05
0.000166626
-3.01762e-05
0.000180761
-2.82531e-05
0.000193832
-2.61358e-05
0.000205609
-2.35412e-05
0.000215918
-2.06126e-05
0.000224579
-1.73185e-05
0.000231456
-1.37494e-05
0.000236367
-9.81399e-06
0.000239237
-5.73763e-06
0.000239927
-1.3861e-06
0.000238468
2.89995e-06
0.000234744
7.44532e-06
0.000228855
1.17778e-05
0.000220889
1.5926e-05
0.000210938
1.98918e-05
0.00019915
2.35725e-05
0.000185639
2.701e-05
0.00017068
2.99054e-05
0.000154446
3.24483e-05
0.00013716
3.45661e-05
0.000119051
3.6219e-05
0.000100378
3.73325e-05
8.13672e-05
3.80114e-05
6.22676e-05
3.81891e-05
4.32336e-05
3.80517e-05
2.45667e-05
3.73172e-05
6.43618e-06
3.62524e-05
-1.10318e-05
3.49364e-05
-2.76973e-05
3.33171e-05
-4.34456e-05
3.14956e-05
-5.82013e-05
2.95127e-05
-7.19135e-05
2.74279e-05
-8.45727e-05
2.53126e-05
-9.61706e-05
2.31921e-05
-0.000106719
2.10984e-05
-0.000116203
1.89649e-05
-0.000124687
1.69655e-05
-0.000132184
1.4994e-05
-0.000138707
1.30436e-05
-0.000144303
1.11961e-05
-0.000149056
9.49973e-06
-0.000152889
7.66306e-06
-0.000155885
5.99397e-06
-0.000158178
4.5879e-06
-0.000159657
2.95112e-06
-0.000160429
1.54247e-06
-0.000160518
1.80095e-07
-0.000159896
-1.24545e-06
-0.000158617
-2.53963e-06
-0.000156756
-3.73724e-06
-0.00015422
-5.10848e-06
-0.000151082
-6.24033e-06
-0.000147395
-7.39721e-06
-0.000143063
-8.65375e-06
-0.000138077
-9.96488e-06
-0.000132442
-1.12803e-05
-0.000126101
-1.26825e-05
-0.000119064
-1.40791e-05
-0.00011128
-1.55609e-05
-0.0001027
-1.71556e-05
-9.34224e-05
-1.85624e-05
-8.32672e-05
-2.03162e-05
-7.2214e-05
-2.21114e-05
-6.0346e-05
-2.37332e-05
-4.75412e-05
-2.5605e-05
-3.40344e-05
-2.70181e-05
-1.96794e-05
-2.87028e-05
-4.57982e-06
-3.02151e-05
1.11054e-05
-3.13376e-05
2.73771e-05
-3.2535e-05
4.409e-05
-3.3421e-05
6.11189e-05
-3.40432e-05
7.83054e-05
-3.4366e-05
9.54518e-05
-3.42855e-05
0.000112365
-3.38159e-05
0.000128827
-3.29053e-05
0.000144553
-3.14418e-05
0.000159352
-2.95746e-05
0.000172866
-2.70183e-05
0.000184939
-2.41322e-05
0.000195225
-2.05532e-05
0.000203594
-1.67246e-05
0.000209763
-1.2345e-05
0.000213645
-7.75454e-06
0.000215097
-2.8972e-06
0.000214098
1.99235e-06
0.000210547
7.10467e-06
0.000204523
1.20465e-05
0.000196168
1.67219e-05
0.000185594
2.11101e-05
0.000173062
2.50585e-05
0.000158711
2.86863e-05
0.000142843
3.17309e-05
0.000125758
3.4163e-05
0.000107716
3.60909e-05
8.89995e-05
3.74007e-05
6.99002e-05
3.81869e-05
5.07231e-05
3.83495e-05
3.15971e-05
3.82319e-05
1.28397e-05
3.7505e-05
-5.34744e-06
3.63672e-05
-2.28157e-05
3.49307e-05
-3.94151e-05
3.31912e-05
-5.5069e-05
3.13024e-05
-6.97155e-05
2.92856e-05
-8.33597e-05
2.72891e-05
-9.59481e-05
2.51801e-05
-0.000107491
2.30798e-05
-0.000117981
2.09779e-05
-0.000127389
1.88167e-05
-0.000135767
1.67519e-05
-0.000143142
1.47464e-05
-0.000149585
1.28796e-05
-0.00015517
1.11744e-05
-0.000159943
9.54493e-06
-0.000163948
8.01924e-06
-0.000167216
6.54136e-06
-0.00016977
5.10591e-06
-0.000171617
3.68263e-06
-0.00017282
2.40123e-06
-0.000173334
1.02563e-06
-0.00017318
-3.16601e-07
-0.000172433
-1.4786e-06
-0.000170983
-2.87598e-06
-0.000169022
-3.94901e-06
-0.000166378
-5.28822e-06
-0.000163087
-6.61314e-06
-0.0001592
-7.72786e-06
-0.000154646
-9.13854e-06
-0.000149366
-1.05553e-05
-0.000143319
-1.20955e-05
-0.000136474
-1.3706e-05
-0.000128854
-1.52234e-05
-0.000120396
-1.69225e-05
-0.000111065
-1.86416e-05
-0.000100967
-2.02196e-05
-8.99862e-05
-2.19558e-05
-7.81847e-05
-2.35991e-05
-6.54784e-05
-2.54144e-05
-5.19368e-05
-2.70747e-05
-3.75796e-05
-2.87102e-05
-2.24262e-05
-3.03137e-05
-6.6297e-06
-3.15893e-05
9.80235e-06
-3.28436e-05
2.66514e-05
-3.36905e-05
4.38184e-05
-3.43269e-05
6.11317e-05
-3.46235e-05
7.83884e-05
-3.44992e-05
9.53584e-05
-3.39181e-05
0.000111799
-3.28747e-05
0.000127455
-3.12857e-05
0.000141998
-2.9075e-05
0.000155238
-2.64748e-05
0.000166875
-2.32582e-05
0.0001767
-1.96204e-05
0.00018441
-1.54291e-05
0.000189887
-1.09474e-05
0.000193015
-6.24152e-06
0.000193709
-1.38176e-06
0.000191966
3.46958e-06
0.000187703
8.52247e-06
0.00018112
1.3162e-05
0.000172321
1.75944e-05
0.000161473
2.16878e-05
0.000148763
2.54099e-05
0.000134454
2.86024e-05
0.000118838
3.12115e-05
0.000102176
3.33156e-05
8.47389e-05
3.4871e-05
6.68358e-05
3.57962e-05
4.86603e-05
3.63436e-05
3.04645e-05
3.63772e-05
1.24782e-05
3.59583e-05
-5.1379e-06
3.52285e-05
-2.21815e-05
3.40793e-05
-3.85527e-05
3.27327e-05
-5.41326e-05
3.11541e-05
-6.88684e-05
2.9471e-05
-8.27136e-05
2.7681e-05
-9.56176e-05
2.58032e-05
-0.000107584
2.39279e-05
-0.00011858
2.20037e-05
-0.000128676
2.01865e-05
-0.000137881
1.84095e-05
-0.000146113
1.64513e-05
-0.000153438
1.46532e-05
-0.000159835
1.28029e-05
-0.000165336
1.10048e-05
-0.000170001
9.33378e-06
-0.000173752
7.50556e-06
-0.000176717
5.92436e-06
-0.000178944
4.44742e-06
-0.000180332
2.77916e-06
-0.000181033
1.40759e-06
-0.000180861
-3.3408e-07
-0.000179903
-1.91384e-06
-0.000178215
-3.38042e-06
-0.00017566
-5.10291e-06
-0.000172403
-6.5165e-06
-0.000168278
-8.2425e-06
-0.000163447
-9.65983e-06
-0.000157939
-1.10218e-05
-0.00015175
-1.23582e-05
-0.000144954
-1.36047e-05
-0.000137638
-1.4631e-05
-0.000129587
-1.60969e-05
-0.00012105
-1.70726e-05
-0.000111798
-1.85041e-05
-0.000101872
-1.98559e-05
-9.13396e-05
-2.10677e-05
-8.00032e-05
-2.26759e-05
-6.78386e-05
-2.43398e-05
-5.50074e-05
-2.56512e-05
-4.12348e-05
-2.75374e-05
-2.65834e-05
-2.93027e-05
-1.12647e-05
-3.06332e-05
4.85211e-06
-3.22276e-05
2.14741e-05
-3.32395e-05
3.86305e-05
-3.43051e-05
5.61802e-05
-3.50838e-05
7.37212e-05
-3.50688e-05
9.1208e-05
-3.49629e-05
0.000108412
-3.43947e-05
0.000124922
-3.30098e-05
0.000140602
-3.13394e-05
0.000155133
-2.90496e-05
0.000168341
-2.6408e-05
0.000179927
-2.31592e-05
0.00018961
-1.93474e-05
0.000197305
-1.5386e-05
0.000202868
-1.11247e-05
0.000206094
-6.44939e-06
0.00020701
-1.8309e-06
0.000205445
3.11952e-06
0.000201497
7.89065e-06
0.000195335
1.23217e-05
0.000186912
1.68398e-05
0.000176643
2.05267e-05
0.000164764
2.37481e-05
0.000151283
2.69503e-05
0.000136629
2.92957e-05
0.000121084
3.108e-05
0.000104779
3.25978e-05
8.79938e-05
3.3558e-05
7.10351e-05
3.39049e-05
5.39528e-05
3.41608e-05
3.69887e-05
3.39183e-05
2.04321e-05
3.31044e-05
4.27157e-06
3.23198e-05
-1.14185e-05
3.13752e-05
-2.64939e-05
3.01444e-05
-4.08506e-05
2.87092e-05
-5.44602e-05
2.72173e-05
-6.72638e-05
2.56055e-05
-7.92799e-05
2.40281e-05
-9.04741e-05
2.23878e-05
-0.000100828
2.07081e-05
-0.000110375
1.90922e-05
-0.000119099
1.74477e-05
-0.000127003
1.58065e-05
-0.00013411
1.42092e-05
-0.000140412
1.26013e-05
-0.000145925
1.10319e-05
-0.000150662
9.47441e-06
-0.000154617
7.91303e-06
-0.000157803
6.3734e-06
-0.000160225
4.84265e-06
-0.000161877
3.30515e-06
-0.000162767
1.78249e-06
-0.000162899
2.66837e-07
-0.000162182
-1.43245e-06
-0.000160671
-3.02098e-06
-0.000158364
-4.61386e-06
-0.000155286
-6.15554e-06
-7.71797e-06
8.14576e-05
-5.42877e-05
9.97032e-05
-5.46854e-05
0.000117689
-5.38987e-05
0.000135089
-5.21385e-05
0.000151923
-5.04401e-05
0.0001678
-4.75437e-05
0.000182552
-4.41879e-05
0.00019588
-3.99362e-05
0.000207565
-3.49853e-05
0.000217387
-2.939e-05
0.000225146
-2.32586e-05
0.000230758
-1.68202e-05
0.000234097
-1.00007e-05
0.000235065
-2.94715e-06
0.000233645
4.14896e-06
0.000229841
1.13811e-05
0.000223636
1.85913e-05
0.000215389
2.4707e-05
0.000205218
3.04649e-05
0.000193169
3.61186e-05
0.000179618
4.06057e-05
0.000164805
4.43733e-05
0.000148854
4.7818e-05
0.000132068
5.03188e-05
0.000114723
5.19622e-05
9.71053e-05
5.28211e-05
7.92689e-05
5.34663e-05
6.14582e-05
5.33867e-05
4.40033e-05
5.23073e-05
2.68291e-05
5.15372e-05
1.01329e-05
5.00611e-05
-5.79663e-06
4.77678e-05
-2.10769e-05
4.58175e-05
-3.55667e-05
4.3454e-05
-4.92453e-05
4.10242e-05
-6.20388e-05
3.83736e-05
-7.39393e-05
3.56976e-05
-8.49576e-05
3.305e-05
-9.50946e-05
3.04071e-05
-0.000104352
2.77741e-05
-0.000112764
2.52396e-05
-0.00012035
2.27494e-05
-0.000127144
2.03867e-05
-0.000133174
1.80856e-05
-0.000138468
1.58819e-05
-0.000143048
1.37441e-05
-0.000146917
1.16106e-05
-0.000150107
9.56944e-06
-0.000152674
7.68809e-06
-0.000154575
5.70785e-06
-0.000155827
3.76523e-06
-0.000156467
1.95263e-06
-0.000156405
-1.84531e-07
-0.000155716
-2.07442e-06
-0.000154337
-4.12837e-06
-0.000152254
-6.26985e-06
-0.000149466
-8.35974e-06
-0.000146067
-1.01981e-05
-0.000141859
-1.26435e-05
-0.000136871
-1.49566e-05
-0.000131062
-1.74414e-05
-0.000124425
-1.99322e-05
-0.000117036
-2.21506e-05
-0.000108757
-2.48575e-05
-9.9591e-05
-2.74838e-05
-8.96879e-05
-2.97049e-05
-7.88446e-05
-3.25217e-05
-6.72141e-05
-3.4893e-05
-5.46705e-05
-3.76353e-05
-4.13404e-05
-3.99545e-05
-2.73187e-05
-4.20606e-05
-1.25181e-05
-4.43706e-05
2.86238e-06
-4.61358e-05
1.87474e-05
-4.76431e-05
3.50989e-05
-4.90167e-05
5.17995e-05
-5.00862e-05
6.8687e-05
-5.06549e-05
8.57091e-05
-5.10225e-05
0.000102623
-5.07129e-05
0.00011937
-5.01956e-05
0.000135761
-4.9142e-05
0.000151587
-4.74278e-05
0.00016669
-4.52797e-05
0.000180845
-4.24082e-05
0.000193933
-3.92241e-05
0.000205715
-3.53235e-05
0.000216039
-3.09372e-05
0.000224715
-2.59946e-05
0.000231596
-2.06308e-05
0.000236518
-1.47355e-05
0.000239394
-8.61395e-06
0.000240077
-2.06968e-06
0.000238592
4.38554e-06
0.00023486
1.11769e-05
0.000228964
1.76736e-05
0.000220987
2.39034e-05
0.000211024
2.98541e-05
0.000199237
3.53599e-05
0.000185696
4.05505e-05
0.00017071
4.48917e-05
0.000154444
4.87143e-05
0.000137144
5.18655e-05
0.000119058
5.43046e-05
0.000100327
5.60639e-05
8.1296e-05
5.70421e-05
6.21866e-05
5.72985e-05
4.31296e-05
5.71086e-05
2.44486e-05
5.59981e-05
6.30806e-06
5.43929e-05
-1.11952e-05
5.24396e-05
-2.78613e-05
4.99832e-05
-4.36043e-05
4.72385e-05
-5.83639e-05
4.42722e-05
-7.20845e-05
4.11485e-05
-8.47455e-05
3.79735e-05
-9.63395e-05
3.47862e-05
-0.000106881
3.164e-05
-0.000116366
2.84501e-05
-0.00012485
2.54493e-05
-0.000132346
2.24894e-05
-0.000138869
1.95669e-05
-0.000144434
1.67616e-05
-0.000149207
1.42721e-05
-0.000153046
1.15023e-05
-0.000156084
9.03199e-06
-0.000158328
6.83214e-06
-0.000159801
4.42423e-06
-0.000160566
2.30755e-06
-0.00016065
2.63483e-07
-0.000160019
-1.876e-06
-0.000158746
-3.81334e-06
-0.000156884
-5.59892e-06
-0.00015438
-7.61201e-06
-0.00015126
-9.36124e-06
-0.000147544
-1.11125e-05
-0.000143195
-1.30026e-05
-0.00013819
-1.49703e-05
-0.000132579
-1.6891e-05
-0.000126249
-1.9013e-05
-0.000119218
-2.11102e-05
-0.000111425
-2.33536e-05
-0.000102845
-2.57366e-05
-9.35743e-05
-2.78327e-05
-8.34158e-05
-3.04749e-05
-7.23694e-05
-3.3158e-05
-6.05036e-05
-3.55991e-05
-4.76947e-05
-3.8414e-05
-3.41849e-05
-4.05281e-05
-1.98222e-05
-4.30657e-05
-4.73154e-06
-4.53059e-05
1.09834e-05
-4.70528e-05
2.72715e-05
-4.88234e-05
4.39936e-05
-5.01433e-05
6.10397e-05
-5.10895e-05
7.82382e-05
-5.15647e-05
9.54074e-05
-5.14549e-05
0.000112333
-5.07414e-05
0.000128818
-4.93913e-05
0.000144558
-4.7182e-05
0.000159385
-4.44017e-05
0.000172923
-4.05559e-05
0.000185027
-3.62364e-05
0.000195347
-3.08741e-05
0.000203726
-2.51032e-05
0.000209896
-1.85157e-05
0.000213786
-1.1644e-05
0.000215242
-4.35335e-06
0.000214221
3.01297e-06
0.000210661
1.06647e-05
0.000204635
1.80725e-05
0.000196282
2.50741e-05
0.000185675
3.17168e-05
0.000173093
3.76404e-05
0.000158712
4.30672e-05
0.000142853
4.75906e-05
0.000125746
5.1269e-05
0.000107687
5.41505e-05
8.89451e-05
5.61421e-05
6.98321e-05
5.72998e-05
5.06078e-05
5.75736e-05
3.14881e-05
5.73516e-05
1.27078e-05
5.62853e-05
-5.49975e-06
5.45747e-05
-2.297e-05
5.24009e-05
-3.95775e-05
4.97986e-05
-5.52247e-05
4.69496e-05
-6.98778e-05
4.39387e-05
-8.35257e-05
4.0937e-05
-9.6117e-05
3.77714e-05
-0.000107662
3.4625e-05
-0.000118151
3.14661e-05
-0.000127556
2.82226e-05
-0.000135934
2.51294e-05
-0.000143305
2.21176e-05
-0.000149748
1.9322e-05
-0.000155327
1.67538e-05
-0.000160093
1.4311e-05
-0.000164092
1.20177e-05
-0.000167361
9.8107e-06
-0.000169905
7.64996e-06
-0.000171764
5.54208e-06
-0.000172957
3.59347e-06
-0.000173467
1.53635e-06
-0.000173328
-4.55904e-07
-0.000172563
-2.2434e-06
-0.000171109
-4.3301e-06
-0.000169151
-5.90775e-06
-0.000166508
-7.9311e-06
-0.000163243
-9.87817e-06
-0.000159309
-1.16619e-05
-0.000154787
-1.36605e-05
-0.00014951
-1.58321e-05
-0.000143466
-1.81394e-05
-0.000136633
-2.05387e-05
-0.000129002
-2.28548e-05
-0.000120546
-2.53782e-05
-0.000111185
-2.80034e-05
-0.000101115
-3.02895e-05
-9.0129e-05
-3.29417e-05
-7.83258e-05
-3.54024e-05
-6.56291e-05
-3.81112e-05
-5.20852e-05
-4.06187e-05
-3.77162e-05
-4.30794e-05
-2.25602e-05
-4.54698e-05
-6.75367e-06
-4.7396e-05
9.69297e-06
-4.92904e-05
2.65549e-05
-5.05525e-05
4.3729e-05
-5.15012e-05
6.10625e-05
-5.19571e-05
7.83385e-05
-5.17753e-05
9.53401e-05
-5.09198e-05
0.000111795
-4.93302e-05
0.00012748
-4.69707e-05
0.000142045
-4.36403e-05
0.000155313
-3.97427e-05
0.000166971
-3.49167e-05
0.000176798
-2.94467e-05
0.000184536
-2.31671e-05
0.000190023
-1.64349e-05
0.00019315
-9.36918e-06
0.000193841
-2.07216e-06
0.000192083
5.22758e-06
0.000187811
1.27936e-05
0.00018122
1.97532e-05
0.000172404
2.64102e-05
0.000161538
3.25534e-05
0.000148808
3.81404e-05
0.000134478
4.29317e-05
0.000118841
4.6849e-05
0.000102139
5.00174e-05
8.47038e-05
5.23061e-05
6.67729e-05
5.37269e-05
4.86019e-05
5.45146e-05
3.03634e-05
5.46156e-05
1.23619e-05
5.39598e-05
-5.23876e-06
5.2829e-05
-2.2325e-05
5.11655e-05
-3.87021e-05
4.91098e-05
-5.42829e-05
4.67348e-05
-6.90046e-05
4.41927e-05
-8.28717e-05
4.15481e-05
-9.57764e-05
3.87079e-05
-0.000107734
3.58857e-05
-0.000118725
3.29944e-05
-0.000128817
3.02784e-05
-0.000138014
2.76067e-05
-0.000146247
2.46841e-05
-0.000153563
2.19694e-05
-0.000159963
1.92029e-05
-0.000165459
1.64999e-05
-0.000170109
1.39847e-05
-0.000173847
1.12428e-05
-0.000176808
8.88551e-06
-0.00017904
6.67917e-06
-0.000180428
4.16789e-06
-0.000181112
2.09118e-06
-0.000180932
-5.14184e-07
-0.000179976
-2.86969e-06
-0.000178293
-5.06371e-06
-0.00017573
-7.66539e-06
-0.000172471
-9.77547e-06
-0.000168339
-1.23753e-05
-0.000163498
-1.45002e-05
-0.000158003
-1.65174e-05
-0.000151782
-1.85794e-05
-0.000145003
-2.03828e-05
-0.000137688
-2.19462e-05
-0.000129642
-2.41431e-05
-0.000121113
-2.56021e-05
-0.000111859
-2.77577e-05
-0.00010193
-2.97847e-05
-9.1401e-05
-3.15971e-05
-8.0069e-05
-3.40078e-05
-6.79213e-05
-3.64876e-05
-5.50774e-05
-3.84952e-05
-4.12949e-05
-4.132e-05
-2.66428e-05
-4.39549e-05
-1.13219e-05
-4.59543e-05
4.80053e-06
-4.83501e-05
2.1433e-05
-4.9872e-05
3.86005e-05
-5.14727e-05
5.61666e-05
-5.265e-05
7.37234e-05
-5.26257e-05
9.12327e-05
-5.24722e-05
0.000108463
-5.16254e-05
0.000124993
-4.95395e-05
0.000140693
-4.704e-05
0.000155249
-4.3605e-05
0.000168479
-3.96389e-05
0.00018009
-3.47701e-05
0.000189787
-2.90442e-05
0.000197496
-2.30949e-05
0.000203084
-1.6713e-05
0.000206319
-9.68435e-06
0.000207227
-2.7388e-06
0.000205624
4.72195e-06
0.000201665
1.18496e-05
0.000195489
1.84983e-05
0.000187061
2.52673e-05
0.000176774
3.08139e-05
0.00016488
3.5642e-05
0.000151379
4.04508e-05
0.000136703
4.39721e-05
0.000121142
4.6641e-05
0.000104817
4.89221e-05
8.80123e-05
5.0363e-05
7.10302e-05
5.08869e-05
5.39445e-05
5.12464e-05
3.69658e-05
5.0897e-05
2.03934e-05
4.96768e-05
4.23381e-06
4.84793e-05
-1.147e-05
4.7079e-05
-2.65518e-05
4.52262e-05
-4.09143e-05
4.30717e-05
-5.45297e-05
4.08326e-05
-6.73378e-05
3.84137e-05
-7.93538e-05
3.60441e-05
-9.05489e-05
3.35828e-05
-0.000100903
3.10621e-05
-0.000110448
2.86371e-05
-0.000119172
2.61718e-05
-0.000127074
2.37085e-05
-0.000134178
2.13134e-05
-0.000140479
1.89028e-05
-0.000145994
1.65464e-05
-0.000150729
1.42092e-05
-0.00015468
1.18646e-05
-0.000157862
9.5547e-06
-0.000160282
7.26324e-06
-0.000161939
4.96161e-06
-0.000162829
2.67303e-06
-0.000162959
3.96344e-07
-0.000162242
-2.14927e-06
-0.000160731
-4.53233e-06
-0.000158423
-6.9214e-06
-0.000155345
-9.23373e-06
-1.15773e-05
8.1465e-05
-7.24203e-05
9.97431e-05
-7.29638e-05
0.000117764
-7.19201e-05
0.000135204
-6.95783e-05
0.000152081
-6.73178e-05
0.000168003
-6.34656e-05
0.000182799
-5.89843e-05
0.00019617
-5.33075e-05
0.00020789
-4.67054e-05
0.000217743
-3.92426e-05
0.000225525
-3.10414e-05
0.000231153
-2.24476e-05
0.000234498
-1.3346e-05
0.000235438
-3.88733e-06
0.000233944
5.64256e-06
0.000230107
1.52176e-05
0.000223887
2.48117e-05
0.000215622
3.29715e-05
0.00020542
4.06664e-05
0.000193355
4.81841e-05
0.000179779
5.41815e-05
0.000164926
5.92259e-05
0.000148957
6.37874e-05
0.000132153
6.71222e-05
0.000114761
6.93542e-05
9.71252e-05
7.04569e-05
7.92646e-05
7.13267e-05
6.14287e-05
7.12226e-05
4.39428e-05
6.97932e-05
2.67749e-05
6.87051e-05
1.00665e-05
6.67695e-05
-5.88012e-06
6.37144e-05
-2.11744e-05
6.11117e-05
-3.56729e-05
5.79525e-05
-4.93582e-05
5.47095e-05
-6.21558e-05
5.11711e-05
-7.40587e-05
4.76005e-05
-8.50784e-05
4.40696e-05
-9.52142e-05
4.05429e-05
-0.000104472
3.70315e-05
-0.000112884
3.36517e-05
-0.000120476
3.0342e-05
-0.000127265
2.71753e-05
-0.000133302
2.41228e-05
-0.000138587
2.11664e-05
-0.000143162
1.83196e-05
-0.000147033
1.54816e-05
-0.000150226
1.27619e-05
-0.000152794
1.02564e-05
-0.000154692
7.60571e-06
-0.00015594
5.01341e-06
-0.000156559
2.5716e-06
-0.000156487
-2.56179e-07
-0.0001558
-2.76189e-06
-0.000154417
-5.51078e-06
-0.000152343
-8.34416e-06
-0.000149554
-1.11488e-05
-0.000146155
-1.3597e-05
-0.000141959
-1.68396e-05
-0.000136971
-1.99452e-05
-0.000131167
-2.32448e-05
-0.000124553
-2.65463e-05
-0.000117156
-2.95478e-05
-0.000108882
-3.31312e-05
-9.97087e-05
-3.66577e-05
-8.98023e-05
-3.96115e-05
-7.89533e-05
-4.33708e-05
-6.73203e-05
-4.65261e-05
-5.47965e-05
-5.01592e-05
-4.14335e-05
-5.33176e-05
-2.74077e-05
-5.60865e-05
-1.25884e-05
-5.919e-05
2.79086e-06
-6.15152e-05
1.86788e-05
-6.35312e-05
3.50601e-05
-6.53982e-05
5.17642e-05
-6.67905e-05
6.86509e-05
-6.75418e-05
8.56959e-05
-6.80676e-05
0.000102629
-6.76461e-05
0.000119398
-6.69647e-05
0.00013581
-6.55542e-05
0.000151663
-6.32808e-05
0.000166783
-6.04005e-05
0.000180972
-5.65969e-05
0.000194076
-5.2328e-05
0.000205874
-4.71221e-05
0.000216213
-4.12764e-05
0.000224904
-3.46859e-05
0.0002318
-2.75268e-05
0.000236736
-1.96712e-05
0.000239617
-1.14955e-05
0.000240303
-2.75574e-06
0.000238771
5.91824e-06
0.000235026
1.4921e-05
0.000229119
2.35811e-05
0.00022112
3.19016e-05
0.00021114
3.98343e-05
0.000199335
4.71652e-05
0.000185776
5.41091e-05
0.000170742
5.9925e-05
0.000154438
6.50185e-05
0.000137115
6.91883e-05
0.000118974
7.24455e-05
0.000100255
7.47832e-05
8.11869e-05
7.61102e-05
6.20165e-05