/*--------------------------------*- C++ -*----------------------------------*\
| =========                 |                                                 |
| \\      /  F ield         | OpenFOAM: The Open Source CFD Toolbox           |
|  \\    /   O peration     | Version:  3.0.1                                 |
|   \\  /    A nd           | Web:      www.OpenFOAM.org                      |
|    \\/     M anipulation  |                                                 |
\*---------------------------------------------------------------------------*/
FoamFile
{
    version     2.0;
    format      ascii;
    class       surfaceScalarField;
    location    "24.8";
    object      alphaPhi;
}
// * * * * * * * * * * * * * * * * * * * * * * * * * * * * * * * * * * * * * //

dimensions      [0 3 -1 0 0 0 0];

internalField   nonuniform List<scalar> 
42423
(
0.00020204
-1.02513e-05
0.000210483
-8.44276e-06
0.000216735
-6.25234e-06
0.000220653
-3.91789e-06
0.000222291
-1.63843e-06
0.000221537
7.54557e-07
0.000218331
3.20615e-06
0.000212705
5.62554e-06
0.000204681
8.02371e-06
0.000194589
1.00928e-05
0.000182568
1.20203e-05
0.000168681
1.3887e-05
0.000153437
1.52438e-05
0.000136877
1.6561e-05
0.000119361
1.75155e-05
0.000101145
1.82162e-05
8.23588e-05
1.8786e-05
6.33183e-05
1.90406e-05
4.43128e-05
1.90054e-05
2.54232e-05
1.88896e-05
6.85861e-06
1.85646e-05
-1.1055e-05
1.79136e-05
-2.83659e-05
1.73109e-05
-4.49065e-05
1.65407e-05
-6.05925e-05
1.56859e-05
-7.53307e-05
1.47383e-05
-8.91131e-05
1.37824e-05
-0.000101874
1.27604e-05
-0.000113618
1.17442e-05
-0.000124351
1.07335e-05
-0.000134072
9.72115e-06
-0.000142811
8.73891e-06
-0.000150603
7.7915e-06
-0.000157451
6.84843e-06
-0.000163422
5.97123e-06
-0.000168524
5.10167e-06
-0.000172796
4.27207e-06
-0.000176264
3.4676e-06
-0.000178955
2.69147e-06
-0.000180874
1.91845e-06
-0.00018208
1.2067e-06
-0.000182594
5.13959e-07
-0.000182315
-2.78855e-07
-0.00018129
-1.02546e-06
-0.0001795
-1.78969e-06
-0.000176979
-2.52096e-06
-0.000173746
-3.23357e-06
-0.000169687
-4.05902e-06
-0.000164837
-4.84934e-06
-0.000159301
-5.53601e-06
-0.000152769
-6.53259e-06
-0.000145435
-7.33405e-06
-0.000137165
-8.2701e-06
-0.000127899
-9.26594e-06
-0.000117887
-1.00117e-05
-0.000106832
-1.10552e-05
-9.48735e-05
-1.19586e-05
-8.2096e-05
-1.27776e-05
-6.83258e-05
-1.37702e-05
-5.38557e-05
-1.44702e-05
-3.85319e-05
-1.53238e-05
-2.23922e-05
-1.61398e-05
-5.84774e-06
-1.65445e-05
1.12086e-05
-1.70564e-05
2.8758e-05
-1.75495e-05
4.6333e-05
-1.75751e-05
6.40088e-05
-1.76759e-05
8.15899e-05
-1.75812e-05
9.88679e-05
-1.72781e-05
0.000115666
-1.67983e-05
0.000131769
-1.61034e-05
0.000147031
-1.52616e-05
0.000161126
-1.40953e-05
0.00017387
-1.27444e-05
0.000185232
-1.13613e-05
0.000194793
-9.56188e-06
0.000202625
-7.83172e-06
0.000208349
-5.72428e-06
0.000211959
-3.61005e-06
0.000213344
-1.38421e-06
0.00021238
9.63457e-07
0.000209157
3.22326e-06
0.00020355
5.60694e-06
0.000195797
7.75346e-06
0.000185914
9.88239e-06
0.000174114
1.18006e-05
0.000160447
1.36673e-05
0.000145277
1.51694e-05
0.000128788
1.64891e-05
0.000111167
1.76213e-05
9.26804e-05
1.84864e-05
7.36241e-05
1.90563e-05
5.42747e-05
1.93495e-05
3.48102e-05
1.94644e-05
1.5514e-05
1.92962e-05
-3.44341e-06
1.89575e-05
-2.19168e-05
1.84734e-05
-3.96497e-05
1.77328e-05
-5.65446e-05
1.68949e-05
-7.24421e-05
1.58975e-05
-8.72141e-05
1.47721e-05
-0.0001009
1.36857e-05
-0.0001134
1.24999e-05
-0.000124653
1.12538e-05
-0.000134904
1.02501e-05
-0.000143945
9.04178e-06
-0.000151925
7.97969e-06
-0.000158915
6.98965e-06
-0.000164833
5.91799e-06
-0.000169856
5.02313e-06
-0.000174021
4.16528e-06
-0.000177267
3.24572e-06
-0.000179761
2.49456e-06
-0.00018147
1.70866e-06
-0.000182459
9.89539e-07
-0.000182782
3.2287e-07
-0.000182406
-3.76307e-07
-0.000181375
-1.03074e-06
-0.000179685
-1.69e-06
-0.000177379
-2.3058e-06
-0.00017444
-2.93985e-06
-0.00017081
-3.62915e-06
-0.000166542
-4.26832e-06
-0.000161676
-4.86586e-06
-0.000156127
-5.54956e-06
-0.000149857
-6.26931e-06
-0.000142919
-6.93854e-06
-0.000135273
-7.64557e-06
-0.000126847
-8.42659e-06
-0.000117649
-9.1982e-06
-0.000107701
-9.94749e-06
-9.68606e-05
-1.08407e-05
-8.51853e-05
-1.16754e-05
-7.26308e-05
-1.25546e-05
-5.91551e-05
-1.34758e-05
-4.49011e-05
-1.42541e-05
-2.97603e-05
-1.51409e-05
-1.38531e-05
-1.59073e-05
2.77694e-06
-1.66301e-05
1.99703e-05
-1.71935e-05
3.76507e-05
-1.76805e-05
5.56307e-05
-1.79801e-05
7.36648e-05
-1.80342e-05
9.15948e-05
-1.79301e-05
0.000109142
-1.75477e-05
0.000126075
-1.69331e-05
0.000142162
-1.6087e-05
0.00015703
-1.48676e-05
0.000170493
-1.34633e-05
0.000182241
-1.17477e-05
0.00019199
-9.74947e-06
0.000199667
-7.67743e-06
0.000205003
-5.33541e-06
0.000207978
-2.97588e-06
0.000208553
-5.74893e-07
0.000206658
1.89511e-06
0.00020231
4.34857e-06
0.000195616
6.69332e-06
0.00018673
8.8861e-06
0.000175832
1.08981e-05
0.000163113
1.27185e-05
0.000148861
1.42521e-05
0.000133212
1.56491e-05
0.000116569
1.66434e-05
9.9138e-05
1.74308e-05
8.11863e-05
1.79517e-05
6.29598e-05
1.82265e-05
4.47616e-05
1.81982e-05
2.6789e-05
1.79725e-05
9.2029e-06
1.75861e-05
-7.83769e-06
1.70406e-05
-2.41983e-05
1.63606e-05
-3.98027e-05
1.56044e-05
-5.44848e-05
1.46821e-05
-6.82549e-05
1.37701e-05
-8.11531e-05
1.28982e-05
-9.3119e-05
1.19659e-05
-0.00010427
1.11514e-05
-0.000114375
1.01041e-05
-0.000123697
9.32207e-06
-0.000132109
8.41273e-06
-0.000139653
7.54401e-06
-0.000146427
6.77398e-06
-0.000152331
5.904e-06
-0.000157491
5.16016e-06
-0.000161867
4.37534e-06
-0.000165511
3.64473e-06
-0.000168481
2.96963e-06
-0.000170721
2.24007e-06
-0.000172315
1.59349e-06
-0.000173232
9.17579e-07
-0.000173451
2.18725e-07
-0.000172986
-4.64665e-07
-0.000171789
-1.19712e-06
-0.000169876
-1.91294e-06
-0.000167264
-2.61247e-06
-0.000163893
-3.37088e-06
-0.000159764
-4.12859e-06
-0.000154981
-4.78333e-06
-0.000149336
-5.64487e-06
-0.000142948
-6.38802e-06
-0.000135776
-7.17226e-06
-0.000127744
-8.03217e-06
-0.000118854
-8.8895e-06
-0.000109115
-9.73901e-06
-9.84897e-05
-1.06257e-05
-8.70005e-05
-1.14893e-05
-7.46337e-05
-1.23668e-05
-6.14126e-05
-1.32212e-05
-4.73514e-05
-1.40612e-05
-3.24376e-05
-1.49139e-05
-1.69072e-05
-1.55305e-05
-6.96928e-07
-1.62103e-05
1.60996e-05
-1.67966e-05
3.33446e-05
-1.72451e-05
5.08665e-05
-1.7522e-05
6.86228e-05
-1.77564e-05
8.63371e-05
-1.77143e-05
0.000103813
-1.74764e-05
0.000120906
-1.70924e-05
0.000137257
-1.63519e-05
0.00015272
-1.54629e-05
0.00016702
-1.43e-05
0.000179965
-1.29453e-05
0.000191342
-1.13766e-05
0.000200959
-9.61672e-06
0.000208628
-7.66926e-06
0.000214201
-5.57295e-06
0.000217564
-3.36351e-06
0.000218624
-1.06018e-06
0.000217411
1.21334e-06
0.000213867
3.54375e-06
0.000208088
5.7791e-06
0.000200152
7.93648e-06
0.000190228
9.9232e-06
0.000178459
1.17693e-05
0.000165091
1.3368e-05
0.000150354
1.47371e-05
0.000134378
1.59764e-05
0.000117527
1.68505e-05
9.99924e-05
1.75346e-05
8.20376e-05
1.79548e-05
6.38521e-05
1.81855e-05
4.57881e-05
1.8064e-05
2.79607e-05
1.78274e-05
1.05804e-05
1.73803e-05
-6.16399e-06
1.67444e-05
-2.22664e-05
1.61024e-05
-3.74462e-05
1.51798e-05
-5.17368e-05
1.42906e-05
-6.51522e-05
1.34154e-05
-7.75801e-05
1.24279e-05
-8.89038e-05
1.13238e-05
-9.91977e-05
1.02939e-05
-0.00010854
9.34273e-06
-0.000116893
8.35244e-06
-0.000124346
7.45329e-06
-0.000130867
6.52108e-06
-0.000136507
5.63986e-06
-0.000141279
4.77223e-06
-0.000145233
3.95371e-06
-0.000148355
3.12163e-06
-0.000150692
2.33709e-06
-0.000152359
1.66746e-06
-0.000153228
8.69401e-07
-0.000153446
2.18024e-07
-0.00015305
-3.96046e-07
-0.000151886
-1.16465e-06
-0.000150144
-1.7413e-06
-0.000147829
-2.31532e-06
-0.000144829
-3.00031e-06
-0.000141242
-3.58699e-06
-0.000136967
-4.27435e-06
-0.000131966
-5.00104e-06
-0.00012644
-5.52637e-06
-0.000119996
-6.4437e-06
-0.000112897
-7.09962e-06
-0.000104863
-8.03337e-06
-9.61317e-05
-8.73147e-06
-8.64014e-05
-9.73033e-06
-7.58739e-05
-1.05275e-05
-6.42997e-05
-1.15742e-05
-5.18982e-05
-1.24015e-05
-3.85195e-05
-1.33787e-05
-2.44462e-05
-1.40734e-05
-9.2893e-06
-1.51569e-05
6.35624e-06
-1.56456e-05
2.27208e-05
-1.63646e-05
3.95876e-05
-1.68669e-05
5.68719e-05
-1.72843e-05
7.4549e-05
-1.76772e-05
9.22221e-05
-1.76731e-05
0.000109795
-1.75729e-05
0.000127163
-1.7368e-05
0.000144002
-1.68389e-05
0.000160166
-1.6164e-05
0.000175413
-1.52474e-05
0.000189478
-1.40652e-05
0.000202318
-1.28398e-05
0.000213552
-1.12343e-05
0.000223105
-9.55297e-06
0.000230846
-7.74141e-06
0.00023648
-5.63411e-06
0.000240049
-3.56884e-06
0.000241472
-1.4234e-06
0.000240455
1.01709e-06
0.000237179
3.27654e-06
0.000231631
5.54726e-06
0.000223969
7.66258e-06
0.000214253
9.71544e-06
0.000202622
1.16311e-05
0.000189241
1.33811e-05
0.000174356
1.4885e-05
0.000158164
1.61921e-05
0.000140942
1.72219e-05
0.000122886
1.80562e-05
0.00010438
1.85057e-05
8.55988e-05
1.87811e-05
6.67071e-05
1.88917e-05
4.81225e-05
1.85846e-05
2.9902e-05
1.82204e-05
1.21624e-05
1.77396e-05
-4.64071e-06
1.68031e-05
-2.06327e-05
1.59919e-05
-3.56389e-05
1.50062e-05
-4.96023e-05
1.39634e-05
-6.24588e-05
1.28565e-05
-7.41801e-05
1.17213e-05
-8.47685e-05
1.05884e-05
-9.42388e-05
9.47028e-06
-0.000102612
8.37363e-06
-0.000109941
7.32877e-06
-0.000116285
6.34336e-06
-0.000121688
5.4034e-06
-0.000126201
4.5126e-06
-0.00012988
3.67917e-06
-0.00013278
2.90058e-06
-0.000134941
2.16038e-06
-0.000136402
1.46134e-06
-0.000137244
8.42176e-07
-0.000137461
2.17075e-07
-0.000136956
-5.04961e-07
-0.000135823
-1.13349e-06
-0.000134075
-1.74785e-06
-0.000131761
-2.31372e-06
-0.000128927
-2.83465e-06
-0.000125395
-3.53145e-06
-0.000121284
-4.11124e-06
-0.000116582
-4.70228e-06
-0.000111199
-5.38277e-06
-0.000105178
-6.02105e-06
-9.84302e-05
-6.74759e-06
-9.10078e-05
-7.42237e-06
-8.28524e-05
-8.15543e-06
-7.38417e-05
-9.01073e-06
-6.40323e-05
-9.80938e-06
-1.06705e-05
0.000202135
-2.05224e-05
0.000210589
-1.68972e-05
0.00021686
-1.2523e-05
0.000220813
-7.87074e-06
0.000222454
-3.27982e-06
0.000221665
1.54411e-06
0.000218448
6.42269e-06
0.000212818
1.12552e-05
0.000204787
1.60546e-05
0.000194693
2.01873e-05
0.00018266
2.4053e-05
0.000168762
2.77857e-05
0.000153507
3.04982e-05
0.000136931
3.31368e-05
0.000119406
3.50414e-05
0.000101178
3.64439e-05
8.23769e-05
3.7587e-05
6.33276e-05
3.80899e-05
4.43134e-05
3.80196e-05
2.54133e-05
3.77897e-05
6.84268e-06
3.71353e-05
-1.10747e-05
3.5831e-05
-2.83934e-05
3.46296e-05
-4.49381e-05
3.30854e-05
-6.06312e-05
3.1379e-05
-7.53762e-05
2.94833e-05
-8.91591e-05
2.75653e-05
-0.000101921
2.55219e-05
-0.000113667
2.34902e-05
-0.000124405
2.14717e-05
-0.000134133
1.9449e-05
-0.000142868
1.74743e-05
-0.00015066
1.55836e-05
-0.000157513
1.37008e-05
-0.000163487
1.19454e-05
-0.000168591
1.02059e-05
-0.00017286
8.54141e-06
-0.000176322
6.92918e-06
-0.000179013
5.38262e-06
-0.000180937
3.84215e-06
-0.000182147
2.41722e-06
-0.000182656
1.02279e-06
-0.000182374
-5.60632e-07
-0.000181349
-2.05081e-06
-0.00017956
-3.57896e-06
-0.000177042
-5.03924e-06
-0.000173809
-6.46623e-06
-0.00016975
-8.11849e-06
-0.000164908
-9.69047e-06
-0.000159369
-1.10755e-05
-0.00015284
-1.30615e-05
-0.000145503
-1.46711e-05
-0.000137228
-1.65454e-05
-0.000127967
-1.85266e-05
-0.000117953
-2.00262e-05
-0.000106902
-2.21064e-05
-9.49394e-05
-2.39213e-05
-8.21805e-05
-2.55365e-05
-6.83819e-05
-2.7569e-05
-5.39108e-05
-2.89414e-05
-3.85798e-05
-3.0655e-05
-2.24312e-05
-3.22885e-05
-5.88256e-06
-3.30934e-05
1.11868e-05
-3.41259e-05
2.87351e-05
-3.5098e-05
4.63132e-05
-3.51534e-05
6.40175e-05
-3.53804e-05
8.16046e-05
-3.51684e-05
9.88897e-05
-3.45634e-05
0.0001157
-3.36086e-05
0.000131818
-3.22216e-05
0.00014709
-3.05338e-05
0.000161194
-2.81996e-05
0.000173965
-2.55153e-05
0.000185326
-2.27221e-05
0.000194891
-1.91273e-05
0.000202733
-1.56743e-05
0.000208458
-1.14491e-05
0.000212083
-7.23483e-06
0.000213464
-2.76554e-06
0.000212516
1.91202e-06
0.000209261
6.47771e-06
0.000203647
1.12212e-05
0.000195882
1.55183e-05
0.000185981
1.97837e-05
0.000174179
2.36029e-05
0.000160509
2.73376e-05
0.000145315
3.03629e-05
0.000128809
3.2995e-05
0.000111175
3.52554e-05
9.2678e-05
3.69837e-05
7.36127e-05
3.81216e-05
5.42569e-05
3.87054e-05
3.47778e-05
3.89436e-05
1.54694e-05
3.86047e-05
-3.50067e-06
3.79276e-05
-2.19826e-05
3.69554e-05
-3.97223e-05
3.54725e-05
-5.66245e-05
3.37972e-05
-7.25266e-05
3.17996e-05
-8.72874e-05
2.95329e-05
-0.000100972
2.73703e-05
-0.000113476
2.50043e-05
-0.000124727
2.25046e-05
-0.000134979
2.05023e-05
-0.000144025
1.80878e-05
-0.000152003
1.5957e-05
-0.000158992
1.39796e-05
-0.00016491
1.18359e-05
-0.000169923
1.00356e-05
-0.000174084
8.32602e-06
-0.000177331
6.49351e-06
-0.000179822
4.98521e-06
-0.000181521
3.40813e-06
-0.000182517
1.98539e-06
-0.000182845
6.50525e-07
-0.000182458
-7.63411e-07
-0.000181417
-2.07187e-06
-0.000179725
-3.38175e-06
-0.000177424
-4.60699e-06
-0.000174491
-5.87261e-06
-0.000170861
-7.25945e-06
-0.000166601
-8.52813e-06
-0.000161731
-9.73601e-06
-0.000156169
-1.11114e-05
-0.000149902
-1.2536e-05
-0.000142962
-1.38789e-05
-0.000135328
-1.52793e-05
-0.000126902
-1.68527e-05
-0.000117696
-1.84042e-05
-0.000107758
-1.98856e-05
-9.69182e-05
-2.16809e-05
-8.52328e-05
-2.3361e-05
-7.2678e-05
-2.51094e-05
-5.92047e-05
-2.69492e-05
-4.49541e-05
-2.85048e-05
-2.98076e-05
-3.02876e-05
-1.38934e-05
-3.18216e-05
2.74225e-06
-3.3266e-05
1.99436e-05
-3.4395e-05
3.76322e-05
-3.53692e-05
5.56211e-05
-3.59692e-05
7.36674e-05
-3.60807e-05
9.16058e-05
-3.58687e-05
0.000109165
-3.51069e-05
0.000126104
-3.38729e-05
0.000142199
-3.21822e-05
0.000157091
-2.97596e-05
0.000170556
-2.69278e-05
0.00018232
-2.35124e-05
0.000192078
-1.9507e-05
0.000199757
-1.53569e-05
0.000205098
-1.0677e-05
0.000208069
-5.9468e-06
0.000208652
-1.15737e-06
0.000206735
3.81178e-06
0.000202379
8.70461e-06
0.000195678
1.33937e-05
0.000186785
1.77797e-05
0.000175894
2.17882e-05
0.000163159
2.54535e-05
0.000148877
2.85343e-05
0.000133236
3.12897e-05
0.000116571
3.33092e-05
9.91248e-05
3.48765e-05
8.11927e-05
3.58838e-05
6.29412e-05
3.6478e-05
4.47206e-05
3.64189e-05
2.67349e-05
3.59582e-05
9.15305e-06
3.5168e-05
-7.88934e-06
3.4083e-05
-2.4258e-05
3.27292e-05
-3.98688e-05
3.12152e-05
-5.4562e-05
2.93754e-05
-6.83386e-05
2.75468e-05
-8.12183e-05
2.5778e-05
-9.31833e-05
2.39309e-05
-0.000104336
2.23044e-05
-0.000114437
2.02046e-05
-0.000123761
1.86462e-05
-0.000132174
1.68258e-05
-0.000139714
1.50843e-05
-0.000146488
1.35484e-05
-0.000152391
1.1807e-05
-0.00015755
1.03187e-05
-0.000161922
8.74694e-06
-0.000165566
7.2888e-06
-0.000168537
5.94067e-06
-0.000170776
4.47914e-06
-0.00017237
3.18796e-06
-0.000173289
1.83644e-06
-0.000173498
4.27558e-07
-0.000173036
-9.26471e-07
-0.000171843
-2.39038e-06
-0.000169922
-3.83355e-06
-0.000167316
-5.21856e-06
-0.000163946
-6.74106e-06
-0.000159821
-8.2538e-06
-0.000155042
-9.56208e-06
-0.000149395
-1.12917e-05
-0.000142998
-1.27857e-05
-0.00013583
-1.43404e-05
-0.000127799
-1.60629e-05
-0.000118906
-1.77823e-05
-0.000109165
-1.94798e-05
-9.85467e-05
-2.12444e-05
-8.70557e-05
-2.29804e-05
-7.46803e-05
-2.47423e-05
-6.1454e-05
-2.64475e-05
-4.73986e-05
-2.81168e-05
-3.25073e-05
-2.98052e-05
-1.69428e-05
-3.10951e-05
-7.32917e-07
-3.24203e-05
1.60726e-05
-3.36022e-05
3.33325e-05
-3.45051e-05
5.08588e-05
-3.50484e-05
6.86295e-05
-3.55273e-05
8.63486e-05
-3.54336e-05
0.000103842
-3.49695e-05
0.000120926
-3.41766e-05
0.000137286
-3.27118e-05
0.00015277
-3.09477e-05
0.000167073
-2.8603e-05
0.00018003
-2.59025e-05
0.000191419
-2.27654e-05
0.000201029
-1.92272e-05
0.00020871
-1.535e-05
0.000214293
-1.11556e-05
0.000217646
-6.71718e-06
0.000218708
-2.12183e-06
0.00021749
2.431e-06
0.000213939
7.09475e-06
0.000208149
1.15694e-05
0.000200217
1.58679e-05
0.000190289
1.98514e-05
0.00017851
2.3548e-05
0.000165126
2.67522e-05
0.000150365
2.94978e-05
0.000134387
3.19544e-05
0.000117537
3.37009e-05
9.99947e-05
3.50766e-05
8.20238e-05
3.59256e-05
6.38223e-05
3.63871e-05
4.57589e-05
3.61274e-05
2.79246e-05
3.56617e-05
1.05438e-05
3.47611e-05
-6.22701e-06
3.35153e-05
-2.23289e-05
3.22042e-05
-3.75053e-05
3.03563e-05
-5.18021e-05
2.85874e-05
-6.52247e-05
2.6838e-05
-7.76529e-05
2.48561e-05
-8.89766e-05
2.26475e-05
-9.92517e-05
2.0569e-05
-0.000108604
1.86954e-05
-0.00011696
1.67085e-05
-0.00012441
1.49029e-05
-0.000130932
1.30432e-05
-0.000136571
1.12784e-05
-0.000141341
9.54243e-06
-0.000145294
7.9068e-06
-0.000148419
6.2472e-06
-0.000150757
4.67433e-06
-0.000152416
3.32684e-06
-0.00015329
1.74361e-06
-0.000153498
4.25762e-07
-0.0001531
-7.93925e-07
-0.000151949
-2.31595e-06
-0.0001502
-3.48975e-06
-0.00014788
-4.63513e-06
-0.000144889
-5.99188e-06
-0.000141289
-7.18694e-06
-0.000137025
-8.53827e-06
-0.000132039
-9.98714e-06
-0.000126498
-1.10675e-05
-0.000120063
-1.28781e-05
-0.000112955
-1.42077e-05
-0.000104926
-1.60623e-05
-9.61814e-05
-1.74763e-05
-8.64623e-05
-1.94495e-05
-7.59236e-05
-2.10662e-05
-6.43618e-05
-2.31362e-05
-5.1953e-05
-2.48103e-05
-3.85777e-05
-2.67541e-05
-2.44922e-05
-2.81591e-05
-9.35019e-06
-3.0299e-05
6.30747e-06
-3.13034e-05
2.26895e-05
-3.27467e-05
3.95643e-05
-3.37419e-05
5.68616e-05
-3.45817e-05
7.45482e-05
-3.5364e-05
9.22257e-05
-3.53507e-05
0.000109811
-3.51587e-05
0.000127179
-3.47363e-05
0.000144026
-3.36861e-05
0.000160219
-3.23569e-05
0.000175463
-3.04914e-05
0.000189536
-2.81382e-05
0.000202405
-2.57091e-05
0.000213635
-2.24647e-05
0.000223196
-1.91133e-05
0.000230957
-1.55035e-05
0.000236588
-1.12644e-05
0.000240166
-7.14714e-06
0.000241604
-2.86178e-06
0.00024057
2.05131e-06
0.000237296
6.54975e-06
0.000231749
1.10942e-05
0.000224079
1.53327e-05
0.000214358
1.94363e-05
0.00020272
2.32697e-05
0.000189329
2.67716e-05
0.000174431
2.97829e-05
0.000158234
3.23887e-05
0.000140995
3.44616e-05
0.000122924
3.61265e-05
0.000104416
3.70137e-05
8.56155e-05
3.75816e-05
6.67099e-05
3.77972e-05
4.81168e-05
3.71777e-05
2.98893e-05
3.64479e-05
1.21371e-05
3.54918e-05
-4.66967e-06
3.36098e-05
-2.06673e-05
3.19896e-05
-3.56792e-05
3.00181e-05
-4.96483e-05
2.79325e-05
-6.2512e-05
2.57202e-05
-7.42337e-05
2.34431e-05
-8.48216e-05
2.11762e-05
-9.42907e-05
1.89394e-05
-0.000102666
1.67489e-05
-0.000109998
1.46603e-05
-0.000116344
1.26894e-05
-0.000121743
1.08024e-05
-0.000126249
9.0191e-06
-0.000129926
7.35621e-06
-0.000132827
5.80118e-06
-0.000134989
4.32254e-06
-0.000136454
2.92597e-06
-0.000137288
1.67691e-06
-0.0001375
4.28945e-07
-0.000136995
-1.01032e-06
-0.000135863
-2.2656e-06
-0.000134114
-3.49682e-06
-0.000131798
-4.62929e-06
-0.00012896
-5.6723e-06
-0.000125432
-7.05991e-06
-0.000121319
-8.22401e-06
-0.000116616
-9.4056e-06
-0.000111234
-1.07646e-05
-0.000105211
-1.20442e-05
-9.84619e-05
-1.34965e-05
-9.10389e-05
-1.48454e-05
-8.28842e-05
-1.631e-05
-7.38732e-05
-1.80217e-05
-6.4064e-05
-1.96186e-05
-2.13411e-05
0.000202314
-3.08228e-05
0.000210803
-2.53867e-05
0.000217095
-1.88141e-05
0.000221059
-1.18353e-05
0.000222732
-4.95237e-06
0.0002219
2.37525e-06
0.000218635
9.68773e-06
0.000212994
1.68962e-05
0.000204949
2.41e-05
0.000194851
3.02855e-05
0.000182796
3.61074e-05
0.000168878
4.17042e-05
0.000153605
4.57707e-05
0.000137004
4.97377e-05
0.000119464
5.25822e-05
0.000101217
5.46903e-05
8.23915e-05
5.64127e-05
6.33305e-05
5.7151e-05
4.43019e-05
5.70483e-05
2.53847e-05
5.67069e-05
6.8128e-06
5.57071e-05
-1.11257e-05
5.37696e-05
-2.84595e-05
5.19633e-05
-4.50133e-05
4.96392e-05
-6.07141e-05
4.70798e-05
-7.5463e-05
4.42322e-05
-8.9249e-05
4.13513e-05
-0.000102015
3.82875e-05
-0.000113764
3.52401e-05
-0.000124505
3.22127e-05
-0.000134233
2.91763e-05
-0.000142963
2.62046e-05
-0.000150759
2.33798e-05
-0.000157611
2.05528e-05
-0.000163584
1.79182e-05
-0.000168686
1.53084e-05
-0.000172958
1.28128e-05
-0.000176422
1.03932e-05
-0.000179119
8.08017e-06
-0.000181041
5.76422e-06
-0.000182238
3.61375e-06
-0.000182728
1.51283e-06
-0.000182435
-8.53489e-07
-0.000181406
-3.07976e-06
-0.000179618
-5.367e-06
-0.000177102
-7.55508e-06
-0.000173868
-9.70016e-06
-0.000169812
-1.21751e-05
-0.000164979
-1.45237e-05
-0.000159435
-1.66194e-05
-0.000152914
-1.95828e-05
-0.000145572
-2.20129e-05
-0.000137294
-2.48235e-05
-0.000128039
-2.7781e-05
-0.000118026
-3.00399e-05
-0.000106975
-3.3157e-05
-9.50125e-05
-3.58841e-05
-8.22698e-05
-3.82794e-05
-6.84519e-05
-4.13871e-05
-5.39741e-05
-4.34194e-05
-3.86444e-05
-4.59848e-05
-2.24909e-05
-4.84422e-05
-5.93948e-06
-4.96449e-05
1.11382e-05
-5.12038e-05
2.87041e-05
-5.2664e-05
4.62945e-05
-5.2744e-05
6.40206e-05
-5.31067e-05
8.16169e-05
-5.2765e-05
9.89086e-05
-5.18552e-05
0.000115737
-5.0437e-05
0.000131867
-4.83522e-05
0.000147157
-4.58238e-05
0.000161279
-4.23211e-05
0.000174078
-3.83151e-05
0.000185441
-3.40853e-05
0.000195028
-2.87142e-05
0.000202891
-2.35372e-05
0.000208605
-1.71634e-05
0.000212257
-1.08864e-05
0.000213652
-4.16107e-06
0.000212712
2.85283e-06
0.000209416
9.77358e-06
0.000203796
1.68412e-05
0.000196024
2.32898e-05
0.000186112
2.96956e-05
0.000174305
3.54103e-05
0.00016062
4.10225e-05
0.000145398
4.55854e-05
0.000128871
4.95222e-05
0.000111216
5.29104e-05
9.26991e-05
5.55003e-05
7.36089e-05
5.72119e-05
5.42438e-05
5.80705e-05
3.4742e-05
5.84454e-05
1.54109e-05
5.79358e-05
-3.56865e-06
5.69072e-05
-2.2071e-05
5.54577e-05
-3.98332e-05
5.32348e-05
-5.67501e-05
5.07141e-05
-7.26617e-05
4.77113e-05
-8.74249e-05
4.42962e-05
-0.000101102
4.10469e-05
-0.000113604
3.75067e-05
-0.000124849
3.37499e-05
-0.000135102
3.07549e-05
-0.000144155
2.71414e-05
-0.000152129
2.39308e-05
-0.000159112
2.09623e-05
-0.000165022
1.77458e-05
-0.000170035
1.50491e-05
-0.000174198
1.24893e-05
-0.000177439
9.73421e-06
-0.000179923
7.46931e-06
-0.000181625
5.11022e-06
-0.000182617
2.97738e-06
-0.000182937
9.70119e-07
-0.000182548
-1.15245e-06
-0.000181509
-3.11068e-06
-0.000179815
-5.07565e-06
-0.000177502
-6.92026e-06
-0.000174575
-8.79988e-06
-0.000170944
-1.08895e-05
-0.000166683
-1.27892e-05
-0.000161823
-1.45962e-05
-0.00015626
-1.66747e-05
-0.000149994
-1.88019e-05
-0.000143025
-2.08478e-05
-0.00013541
-2.28946e-05
-0.000126994
-2.52682e-05
-0.000117794
-2.76044e-05
-0.000107852
-2.98281e-05
-9.70175e-05
-3.25154e-05
-8.53335e-05
-3.50451e-05
-7.27784e-05
-3.76646e-05
-5.93017e-05
-4.0426e-05
-4.50482e-05
-4.27585e-05
-2.98982e-05
-4.54377e-05
-1.39676e-05
-4.77523e-05
2.67608e-06
-4.99098e-05
1.98856e-05
-5.16047e-05
3.75886e-05
-5.30724e-05
5.55928e-05
-5.39735e-05
7.36604e-05
-5.41485e-05
9.16224e-05
-5.38309e-05
0.000109196
-5.26809e-05
0.000126156
-5.08324e-05
0.000142272
-4.82989e-05
0.0001572
-4.46872e-05
0.000170676
-4.04045e-05
0.000182459
-3.52953e-05
0.000192225
-2.92735e-05
0.000199913
-2.30451e-05
0.000205268
-1.60321e-05
0.000208256
-8.93422e-06
0.000208827
-1.72867e-06
0.000206891
5.74729e-06
0.000202528
1.3068e-05
0.000195821
2.01006e-05
0.000186908
2.66923e-05
0.000176002
3.26939e-05
0.000163256
3.81999e-05
0.000148955
4.28354e-05
0.000133306
4.69382e-05
0.000116617
4.99981e-05
9.91421e-05
5.23517e-05
8.11753e-05
5.38505e-05
6.29145e-05
5.47388e-05
4.46723e-05
5.46611e-05
2.66689e-05
5.39616e-05
9.08254e-06
5.27544e-05
-7.95925e-06
5.11248e-05
-2.43446e-05
4.91146e-05
-3.99729e-05
4.68436e-05
-5.46805e-05
4.4083e-05
-6.84656e-05
4.13319e-05
-8.13332e-05
3.86455e-05
-9.32901e-05
3.58878e-05
-0.000104441
3.34551e-05
-0.00011454
3.03034e-05
-0.000123869
2.79753e-05
-0.000132288
2.52451e-05
-0.000139821
2.26171e-05
-0.000146595
2.03222e-05
-0.000152496
1.77088e-05
-0.000157653
1.54757e-05
-0.000162028
1.31215e-05
-0.000165646
1.09069e-05
-0.000168629
8.9238e-06
-0.000170873
6.72329e-06
-0.000172468
4.78311e-06
-0.000173389
2.75699e-06
-0.000173594
6.32976e-07
-0.000173124
-1.39636e-06
-0.000171938
-3.57662e-06
-0.000170016
-5.75605e-06
-0.000167399
-7.83566e-06
-0.000164033
-1.01062e-05
-0.00015994
-1.23471e-05
-0.000155133
-1.43688e-05
-0.000149498
-1.69274e-05
-0.000143095
-1.91886e-05
-0.000135928
-2.15075e-05
-0.000127902
-2.40891e-05
-0.000119008
-2.66763e-05
-0.000109264
-2.92239e-05
-9.86491e-05
-3.18591e-05
-8.71541e-05
-3.44755e-05
-7.47842e-05
-3.71123e-05
-6.15537e-05
-3.96781e-05
-4.74874e-05
-4.21831e-05
-3.26119e-05
-4.46809e-05
-1.70193e-05
-4.66878e-05
-7.94619e-07
-4.86451e-05
1.60167e-05
-5.04137e-05
3.32797e-05
-5.17682e-05
5.08185e-05
-5.25874e-05
6.86165e-05
-5.33254e-05
8.63389e-05
-5.3156e-05
0.000103852
-5.24823e-05
0.000120965
-5.12899e-05
0.000137337
-4.90843e-05
0.000152842
-4.64529e-05
0.000167164
-4.29248e-05
0.00018012
-3.88589e-05
0.000191543
-3.41879e-05
0.000201172
-2.88571e-05
0.000208853
-2.30308e-05
0.000214447
-1.67497e-05
0.000217815
-1.00849e-05
0.000218872
-3.17942e-06
0.000217622
3.68102e-06
0.00021407
1.06473e-05
0.00020828
1.73591e-05
0.000200346
2.38015e-05
0.00019042
2.97778e-05
0.000178629
3.53391e-05
0.000165218
4.01632e-05
0.000150436
4.42799e-05
0.00013444
4.795e-05
0.000117562
5.05794e-05
9.99963e-05
5.26418e-05
8.20127e-05
5.39092e-05
6.37873e-05
5.46124e-05
4.57024e-05
5.42123e-05
2.78714e-05
5.34926e-05
1.05132e-05
5.21193e-05
-6.31866e-06
5.03472e-05
-2.24448e-05
4.83304e-05
-3.76279e-05
4.55394e-05
-5.19166e-05
4.28762e-05
-6.53425e-05
4.0264e-05
-7.77709e-05
3.72845e-05
-8.90829e-05
3.39595e-05
-9.93569e-05
3.0843e-05
-0.000108725
2.80635e-05
-0.00011711
2.50931e-05
-0.000124518
2.23111e-05
-0.000131047
1.95723e-05
-0.000136683
1.69151e-05
-0.000141455
1.43138e-05
-0.000145394
1.18463e-05
-0.000148523
9.3756e-06
-0.000150871
7.02227e-06
-0.00015252
4.97658e-06
-0.000153389
2.61215e-06
-0.000153586
6.22948e-07
-0.00015319
-1.18948e-06
-0.000152031
-3.47516e-06
-0.000150279
-5.2423e-06
-0.000147964
-6.94965e-06
-0.00014497
-8.98604e-06
-0.000141337
-1.08198e-05
-0.00013711
-1.27655e-05
-0.000132139
-1.49578e-05
-0.000126574
-1.6632e-05
-0.000120149
-1.93036e-05
-0.000113022
-2.13341e-05
-0.000105016
-2.40686e-05
-9.62422e-05
-2.62503e-05
-8.65442e-05
-2.91475e-05
-7.59881e-05
-3.16224e-05
-6.44401e-05
-3.46842e-05
-5.20203e-05
-3.72301e-05
-3.8661e-05
-4.01135e-05
-2.45633e-05
-4.22568e-05
-9.42615e-06
-4.54362e-05
6.24083e-06
-4.69704e-05
2.26301e-05
-4.91361e-05
3.95109e-05
-5.06228e-05
5.6818e-05
-5.18888e-05
7.45154e-05
-5.30615e-05
9.22028e-05
-5.30383e-05
0.000109796
-5.27525e-05
0.000127194
-5.21344e-05
0.000144054
-5.05454e-05
0.000160264
-4.85679e-05
0.00017552
-4.5747e-05
0.000189613
-4.22315e-05
0.000202501
-3.85969e-05
0.000213756
-3.37201e-05
0.000223321
-2.86786e-05
0.000231099
-2.32816e-05
0.000236758
-1.69233e-05
0.000240331
-1.072e-05
0.000241782
-4.31316e-06
0.000240737
3.09624e-06
0.00023747
9.81634e-06
0.000231917
1.6647e-05
0.000224232
2.30177e-05
0.000214507
2.91613e-05
0.000202855
3.49213e-05
0.00018945
4.01771e-05
0.000174531
4.47016e-05
0.000158334
4.8586e-05
0.000141058
5.17369e-05
0.000122964
5.42207e-05
0.000104445
5.5533e-05
8.56202e-05
5.6406e-05
6.66924e-05
5.67249e-05
4.80854e-05
5.57847e-05
2.98486e-05
5.46848e-05
1.20784e-05
5.3262e-05
-4.73809e-06
5.04263e-05
-2.0747e-05
4.79985e-05
-3.57676e-05
4.50388e-05
-4.97431e-05
4.19079e-05
-6.26076e-05
3.85847e-05
-7.43299e-05
3.51653e-05
-8.49215e-05
3.17678e-05
-9.43871e-05
2.8405e-05
-0.000102763
2.51247e-05
-0.00011009
2.19876e-05
-0.000116426
1.90255e-05
-0.000121822
1.61978e-05
-0.000126327
1.35241e-05
-0.000129997
1.10271e-05
-0.000132899
8.70229e-06
-0.000135058
6.48218e-06
-0.000136518
4.38598e-06
-0.000137337
2.49559e-06
-0.000137537
6.29028e-07
-0.000137033
-1.5147e-06
-0.000135909
-3.38947e-06
-0.000134153
-5.25214e-06
-0.00013184
-6.94279e-06
-0.000129002
-8.51062e-06
-0.000125477
-1.05843e-05
-0.000121365
-1.23365e-05
-0.000116662
-1.41083e-05
-0.000111286
-1.61407e-05
-0.000105262
-1.80683e-05
-9.8514e-05
-2.02444e-05
-9.10924e-05
-2.22671e-05
-8.29417e-05
-2.44607e-05
-7.39325e-05
-2.70309e-05
-6.41254e-05
-2.94258e-05
-3.20099e-05
0.000202577
-4.11613e-05
0.000211123
-3.39328e-05
0.000217467
-2.51577e-05
0.000221464
-1.58328e-05
0.00022313
-6.61778e-06
0.000222231
3.27372e-06
0.000218916
1.30025e-05
0.000213259
2.25538e-05
0.000205191
3.21677e-05
0.000195076
4.04012e-05
0.000183
4.81828e-05
0.000169053
5.56515e-05
0.000153753
6.1071e-05
0.000137115
6.63751e-05
0.000119552
7.01458e-05
0.000101276
7.29656e-05
8.24145e-05
7.52745e-05
6.33355e-05
7.623e-05
4.42845e-05
7.60993e-05
2.53421e-05
7.56492e-05
6.77267e-06
7.42766e-05
-1.12034e-05
7.17457e-05
-2.85595e-05
6.93195e-05
-4.51292e-05
6.62089e-05
-6.08406e-05
6.27912e-05
-7.55976e-05
5.89892e-05
-8.9391e-05
5.51447e-05
-0.000102162
5.10581e-05
-0.000113912
4.69906e-05
-0.000124653
4.29542e-05
-0.000134384
3.89073e-05
-0.000143114
3.49344e-05
-0.000150913
3.11783e-05
-0.000157765
2.74054e-05
-0.000163739
2.38916e-05
-0.000168842
2.04112e-05
-0.000173116
1.70874e-05
-0.000176581
1.38576e-05
-0.000179279
1.07785e-05
-0.000181203
7.68797e-06
-0.000182383
4.79411e-06
-0.000182841
1.97031e-06
-0.000182526
-1.16786e-06
-0.000181493
-4.11335e-06
-0.000179706
-7.1534e-06
-0.000177194
-1.0067e-05
-0.000173959
-1.29356e-05
-0.000169906
-1.62275e-05
-0.000165089
-1.93415e-05
-0.000159534
-2.2174e-05
-0.000153025
-2.60922e-05
-0.000145678
-2.93601e-05
-0.000137395
-3.31058e-05
-0.000128149
-3.70279e-05
-0.000118137
-4.00516e-05
-0.00010709
-4.42043e-05
-9.51242e-05
-4.78498e-05
-8.23768e-05
-5.10268e-05
-6.85618e-05
-5.52022e-05
-5.4077e-05
-5.79042e-05
-3.87429e-05
-6.13191e-05
-2.25856e-05
-6.45996e-05
-6.02617e-06
-6.62045e-05
1.10707e-05
-6.83008e-05
2.86468e-05
-7.02403e-05
4.62568e-05
-7.03541e-05
6.40219e-05
-7.0872e-05
8.16296e-05
-7.03728e-05
9.89307e-05
-6.91564e-05
0.000115789
-6.72959e-05
0.00013195
-6.45127e-05
0.000147253
-6.11272e-05
0.000161404
-5.64718e-05
0.000174232
-5.11439e-05
0.000185607
-4.54598e-05
0.000195213
-3.8321e-05
0.000203124
-3.14476e-05
0.000208832
-2.28719e-05
0.000212511
-1.4565e-05
0.000213907
-5.5569e-06
0.000212955
3.80477e-06
0.000209649
1.30791e-05
0.000204023
2.24672e-05
0.000196238
3.10747e-05
0.000186307
3.96273e-05
0.000174492
4.7225e-05
0.000160775
5.47402e-05
0.000145518
6.08425e-05
0.000128964
6.60757e-05
0.000111277
7.05975e-05
9.27269e-05
7.40505e-05
7.35918e-05
7.6347e-05
5.4214e-05
7.74483e-05
3.4688e-05
7.79715e-05
1.53188e-05
7.73049e-05
-3.68226e-06
7.59083e-05
-2.21923e-05
7.39678e-05
-3.99734e-05
7.1016e-05
-5.6933e-05
6.76737e-05
-7.28614e-05
6.36397e-05
-8.76129e-05
5.90476e-05
-0.000101281
5.47154e-05
-0.000113786
5.00118e-05
-0.000125032