/*--------------------------------*- C++ -*----------------------------------*\
| =========                 |                                                 |
| \\      /  F ield         | OpenFOAM: The Open Source CFD Toolbox           |
|  \\    /   O peration     | Version:  3.0.1                                 |
|   \\  /    A nd           | Web:      www.OpenFOAM.org                      |
|    \\/     M anipulation  |                                                 |
\*---------------------------------------------------------------------------*/
FoamFile
{
    version     2.0;
    format      ascii;
    class       volScalarField;
    location    "87.8";
    object      p_rgh;
}
// * * * * * * * * * * * * * * * * * * * * * * * * * * * * * * * * * * * * * //

dimensions      [1 -1 -2 0 0 0 0];

internalField   nonuniform List<scalar> 
21420
(
-341.017
-346.583
-350.665
-353.294
-354.463
-354.256
-352.81
-349.886
-345.482
-339.594
-332.181
-323.201
-312.625
-300.388
-286.445
-270.754
-253.273
-233.969
-212.832
-189.855
-165.045
-138.459
-110.173
-80.2523
-48.85
-16.0007
18.7708
53.2711
88.0942
122.864
157.199
190.73
223.013
253.636
282.152
308.143
331.249
351.124
367.465
380.041
388.672
393.24
393.612
389.92
382.116
370.304
354.655
335.456
312.945
287.451
259.362
229.044
196.925
163.39
128.87
93.7707
58.4565
23.3376
-10.9792
-43.3758
-75.3832
-106.346
-135.945
-164.019
-190.431
-215.068
-237.876
-258.819
-277.87
-295.041
-310.327
-323.757
-335.354
-345.134
-353.131
-359.372
-363.884
-366.699
-367.818
-367.284
-365.209
-361.546
-356.305
-349.5
-341.135
-331.231
-319.807
-306.873
-292.443
-276.522
-259.103
-240.174
-219.727
-197.76
-174.276
-149.293
-122.853
-95.0312
-65.9352
-35.6691
-4.31708
27.637
60.0587
92.6788
125.186
157.238
188.475
218.52
246.989
273.496
297.659
319.118
337.53
352.579
363.994
371.553
375.074
374.393
369.603
360.702
347.718
330.873
310.403
286.611
259.853
230.523
199.053
165.89
131.5
96.3412
60.8647
25.5025
-9.34346
-43.2833
-76.0282
-107.287
-136.832
-164.491
-190.139
-213.703
-235.148
-254.48
-271.736
-286.98
-300.288
-311.748
-321.461
-329.529
-336.044
-341.099
-344.77
-347.127
-348.235
-348.126
-346.812
-344.356
-340.739
-335.954
-329.976
-322.774
-314.31
-304.524
-293.361
-280.761
-266.665
-251.021
-233.784
-214.919
-194.416
-172.274
-148.513
-123.182
-96.3488
-68.1189
-38.6215
-8.02896
23.5246
55.6536
88.1285
120.635
152.819
184.294
214.651
243.466
270.307
294.749
316.384
334.831
349.756
360.881
367.986
370.906
369.556
364.018
354.368
340.698
323.279
302.392
278.378
251.618
222.528
191.549
159.138
125.762
91.8746
57.9056
24.2518
-8.71332
-40.7151
-71.4847
-100.808
-128.524
-154.514
-178.7
-201.035
-221.504
-240.112
-256.88
-271.846
-285.06
-296.572
-306.438
-314.715
-321.46
-326.732
-330.583
-333.066
-334.238
-334.138
-332.798
-330.256
-326.56
-321.717
-315.731
-308.593
-300.288
-290.789
-280.056
-268.045
-254.703
-239.979
-223.826
-206.201
-187.079
-166.445
-144.311
-120.701
-95.6643
-69.2673
-41.6
-12.7833
17.0219
47.6362
78.9296
110.303
141.568
172.383
202.364
231.105
258.188
283.187
305.683
325.273
341.583
354.289
363.118
367.861
368.331
364.66
356.768
344.743
328.808
309.249
286.403
260.673
232.496
202.33
170.646
137.922
104.597
71.1133
37.9959
7.46607
-23.3892
-53.3247
-82.0026
-109.191
-134.734
-158.522
-180.478
-200.577
-218.814
-235.224
-249.86
-262.789
-274.096
-283.87
-292.208
-299.21
-304.969
-309.581
-313.124
-315.659
-317.238
-317.89
-317.592
-316.329
-314.06
-310.743
-306.255
-300.498
-293.358
-284.694
-274.381
-262.311
-248.387
-232.538
-214.722
-194.92
-173.158
-149.519
-124.09
-97.0016
-68.4822
-38.7314
-8.04777
24.3915
56.0603
87.7563
119.121
149.782
179.321
207.37
233.601
257.643
279.215
298.009
313.798
326.434
335.776
341.762
344.377
343.863
340.028
333
322.853
309.792
294.016
275.768
255.334
232.979
209
183.633
157.108
129.627
101.434
73.1188
-341.078
-346.643
-350.724
-353.352
-354.521
-354.318
-352.87
-349.945
-345.542
-339.655
-332.244
-323.266
-312.692
-300.458
-286.518
-270.83
-253.351
-234.049
-212.913
-189.938
-165.127
-138.541
-110.254
-80.3298
-48.9212
-16.0629
18.711
53.2266
88.0654
122.851
157.203
190.751
223.052
253.694
282.23
308.239
331.362
351.253
367.607
380.192
388.83
393.402
393.782
390.075
382.267
370.447
354.788
335.574
313.047
287.536
259.428
229.092
196.955
163.401
128.864
93.75
58.4222
23.2905
-11.0351
-43.4415
-75.4557
-106.423
-136.026
-164.103
-190.516
-215.153
-237.961
-258.903
-277.952
-295.121
-310.406
-323.834
-335.429
-345.208
-353.203
-359.443
-363.953
-366.768
-367.883
-367.351
-365.275
-361.612
-356.371
-349.566
-341.202
-331.297
-319.874
-306.941
-292.512
-276.593
-259.175
-240.248
-219.802
-197.837
-174.353
-149.37
-122.929
-95.105
-66.005
-35.7342
-4.3742
27.5882
60.02
92.6519
125.172
157.24
188.493
218.554
247.04
273.564
297.745
319.22
337.647
352.709
364.136
371.703
375.236
374.548
369.755
360.849
347.856
330.998
310.513
286.703
259.925
230.576
199.085
165.902
131.492
96.3156
60.8224
25.4454
-9.41325
-43.3644
-76.1178
-107.383
-136.933
-164.594
-190.243
-213.805
-235.248
-254.577
-271.83
-287.069
-300.372
-311.827
-321.536
-329.6
-336.111
-341.162
-344.831
-347.185
-348.292
-348.179
-346.866
-344.41
-340.793
-336.009
-330.032
-322.832
-314.37
-304.588
-293.427
-280.83
-266.737
-251.096
-233.86
-214.997
-194.496
-172.353
-148.593
-123.26
-96.4248
-68.191
-38.6884
-8.08935
23.4712
55.6107
88.0979
120.618
152.817
184.309
214.685
243.518
270.379
294.84
316.492
334.956
349.895
361.03
368.142
371.072
369.714
364.171
354.515
340.834
323.4
302.497
278.464
251.684
222.574
191.575
159.144
125.749
91.8448
57.8608
24.1938
-8.78112
-40.7918
-71.5676
-100.896
-128.614
-154.605
-178.79
-201.124
-221.592
-240.197
-256.963
-271.926
-285.137
-296.645
-306.509
-314.783
-321.526
-326.795
-330.644
-333.124
-334.295
-334.193
-332.85
-330.308
-326.612
-321.768
-315.783
-308.646
-300.343
-290.845
-280.115
-268.106
-254.767
-240.045
-223.895
-206.272
-187.152
-166.519
-144.385
-120.774
-95.736
-69.3369
-41.6661
-12.8449
16.967
47.5882
78.8953
110.279
141.559
172.39
202.387
231.147
258.248
283.267
305.781
325.389
341.715
354.434
363.273
368.022
368.501
364.818
356.923
344.888
328.941
309.366
286.502
260.752
232.556
202.369
170.667
137.926
104.584
71.0841
37.9571
7.41409
-23.4512
-53.3939
-82.0774
-109.27
-134.815
-158.604
-180.559
-200.657
-218.891
-235.298
-249.93
-262.855
-274.158
-283.928
-292.262
-299.259
-305.015
-309.624
-313.164
-315.697
-317.275
-317.926
-317.629
-316.368
-314.102
-310.789
-306.305
-300.553
-293.418
-284.76
-274.452
-262.386
-248.466
-232.62
-214.806
-195.005
-173.242
-149.602
-124.168
-97.0748
-68.5483
-38.7878
-8.08967
24.3463
56.0329
87.7447
119.125
149.803
179.358
207.423
233.671
257.727
279.313
298.119
313.918
326.561
335.908
341.896
344.518
343.994
340.154
333.119
322.964
309.893
294.105
275.844
255.397
233.028
209.036
183.657
157.122
129.632
101.431
73.1071
-341.201
-346.763
-350.84
-353.468
-354.637
-354.442
-352.988
-350.062
-345.66
-339.777
-332.369
-323.397
-312.828
-300.599
-286.664
-270.982
-253.507
-234.21
-213.077
-190.104
-165.293
-138.706
-110.416
-80.4849
-49.0636
-16.1874
18.5909
53.1376
88.0079
122.825
157.21
190.793
223.132
253.812
282.386
308.432
331.589
351.51
367.889
380.495
389.145
393.725
394.123
390.385
382.571
370.734
355.053
335.811
313.253
287.707
259.562
229.188
197.013
163.424
128.853
93.7087
58.3537
23.1963
-11.1463
-43.573
-75.6005
-106.578
-136.189
-164.27
-190.685
-215.323
-238.13
-259.069
-278.115
-295.281
-310.561
-323.985
-335.577
-345.352
-353.344
-359.58
-364.087
-366.901
-368.01
-367.481
-365.403
-361.738
-356.497
-349.692
-341.327
-331.423
-320
-307.068
-292.641
-276.724
-259.309
-240.384
-219.942
-197.978
-174.496
-149.512
-123.069
-95.2406
-66.1323
-35.8525
-4.47577
27.5031
59.9549
92.6105
125.158
157.255
188.539
218.634
247.154
273.713
297.928
319.437
337.894
352.983
364.432
372.015
375.562
374.88
370.073
361.156
348.146
331.263
310.747
286.902
260.085
230.696
199.164
165.942
131.493
96.2801
60.7537
25.3474
-9.53648
-43.51
-76.2803
-107.558
-137.117
-164.783
-190.433
-213.993
-235.432
-254.755
-272
-287.231
-300.525
-311.97
-321.67
-329.725
-336.229
-341.273
-344.935
-347.285
-348.389
-348.269
-346.959
-344.502
-340.887
-336.103
-330.129
-322.935
-314.477
-304.7
-293.545
-280.954
-266.867
-251.231
-233.999
-215.141
-194.641
-172.5
-148.739
-123.404
-96.5645
-68.3229
-38.8104
-8.19815
23.3757
55.5364
88.0482
120.596
152.825
184.351
214.762
243.633
270.532
295.031
316.72
335.216
350.183
361.34
368.466
371.411
370.045
364.491
354.818
341.117
323.654
302.717
278.647
251.828
222.677
191.637
159.168
125.736
91.7974
57.7836
24.0905
-8.90384
-40.9323
-71.7205
-101.057
-128.78
-154.774
-178.958
-201.29
-221.754
-240.355
-257.115
-272.073
-285.277
-296.78
-306.638
-314.906
-321.644
-326.908
-330.753
-333.229
-334.396
-334.291
-332.939
-330.4
-326.703
-321.859
-315.875
-308.74
-300.439
-290.945
-280.22
-268.216
-254.882
-240.166
-224.021
-206.402
-187.285
-166.654
-144.52
-120.909
-95.8681
-69.4649
-41.7872
-12.9571
16.8678
47.5026
78.8372
110.243
141.55
172.412
202.444
231.239
258.379
283.435
305.987
325.629
341.987
354.731
363.59
368.351
368.846
365.143
357.239
345.186
329.213
309.605
286.704
260.915
232.678
202.452
170.712
137.935
104.56
71.0281
37.8823
7.31136
-23.5738
-53.531
-82.2258
-109.427
-134.976
-158.767
-180.721
-200.816
-219.045
-235.446
-250.07
-262.988
-274.282
-284.044
-292.369
-299.358
-305.106
-309.709
-313.243
-315.772
-317.348
-317.998
-317.702
-316.447
-314.187
-310.879
-306.405
-300.663
-293.539
-284.89
-274.593
-262.537
-248.625
-232.785
-214.975
-195.174
-173.411
-149.766
-124.326
-97.2211
-68.6806
-38.9007
-8.17273
24.2552
55.978
87.7216
119.135
149.845
179.434
207.531
233.81
257.897
279.509
298.339
314.158
326.815
336.172
342.164
344.8
344.255
340.408
333.358
323.186
310.094
294.283
275.996
255.522
233.125
209.107
183.704
157.149
129.643
101.425
73.0836
-341.385
-346.942
-351.015
-353.64
-354.812
-354.628
-353.165
-350.237
-345.838
-339.959
-332.557
-323.592
-313.031
-300.81
-286.884
-271.209
-253.742
-234.45
-213.323
-190.353
-165.542
-138.954
-110.658
-80.7178
-49.2773
-16.3759
18.4112
53.0044
87.9216
122.787
157.221
190.857
223.251
253.988
282.62
308.721
331.928
351.895
368.313
380.948
389.619
394.209
394.627
390.856
383.029
371.166
355.451
336.167
313.561
287.962
259.762
229.331
197.102
163.459
128.836
93.6465
58.2508
23.055
-11.313
-43.7705
-75.818
-106.811
-136.432
-164.52
-190.94
-215.578
-238.383
-259.319
-278.36
-295.52
-310.794
-324.213
-335.799
-345.568
-353.555
-359.786
-364.289
-367.1
-368.201
-367.676
-365.594
-361.927
-356.685
-349.88
-341.515
-331.611
-320.189
-307.258
-292.834
-276.919
-259.508
-240.586
-220.149
-198.189
-174.708
-149.723
-123.277
-95.4416
-66.3213
-36.0285
-4.62498
27.3779
59.8596
92.5508
125.138
157.279
188.612
218.757
247.328
273.94
298.207
319.765
338.267
353.397
364.879
372.486
376.045
375.385
370.556
361.62
348.584
331.663
311.1
287.203
260.328
230.878
199.285
166.003
131.497
96.2293
60.6532
25.2027
-9.71904
-43.726
-76.5218
-107.819
-137.39
-165.063
-190.716
-214.274
-235.706
-255.019
-272.253
-287.471
-300.75
-312.182
-321.869
-329.911
-336.403
-341.436
-345.089
-347.433
-348.531
-348.404
-347.096
-344.638
-341.024
-336.243
-330.274
-323.086
-314.635
-304.866
-293.72
-281.138
-267.059
-251.431
-234.206
-215.353
-194.857
-172.718
-148.957
-123.618
-96.7719
-68.5187
-38.9914
-8.359
23.2344
55.4273
87.9757
120.564
152.839
184.415
214.881
243.808
270.765
295.321
317.063
335.608
350.617
361.806
368.954
371.911
370.551
364.975
355.277
341.543
324.037
303.05
278.925
252.047
222.834
191.734
159.205
125.718
91.7282
57.6695
23.938
-9.08711
-41.1413
-71.9482
-101.297
-129.028
-155.025
-179.209
-201.538
-221.996
-240.59
-257.341
-272.291
-285.486
-296.981
-306.829
-315.089
-321.819
-327.076
-330.914
-333.384
-334.545
-334.434
-333.077
-330.537
-326.838
-321.994
-316.01
-308.878
-300.582
-291.094
-280.375
-268.379
-255.053
-240.345
-224.207
-206.596
-187.483
-166.855
-144.721
-121.109
-96.0641
-69.6548
-41.9668
-13.1231
16.7209
47.3759
78.7525
110.191
141.539
172.448
202.53
231.38
258.576
283.689
306.297
325.992
342.396
355.18
364.067
368.846
369.36
365.635
357.715
345.634
329.62
309.964
287.008
261.16
232.863
202.577
170.78
137.949
104.524
70.9445
37.7707
7.1562
-23.758
-53.737
-82.4488
-109.662
-135.218
-159.012
-180.964
-201.054
-219.276
-235.667
-250.281
-263.186
-274.468
-284.217
-292.53
-299.506
-305.243
-309.836
-313.362
-315.886
-317.458
-318.106
-317.811
-316.566
-314.313
-311.015
-306.554
-300.828
-293.72
-285.086
-274.805
-262.762
-248.862
-233.031
-215.227
-195.429
-173.664
-150.013
-124.561
-97.4408
-68.8794
-39.0707
-8.29916
24.1201
55.896
87.6869
119.148
149.909
179.547
207.693
234.019
258.15
279.804
298.67
314.517
327.196
336.567
342.564
345.213
344.651
340.79
333.716
323.518
310.395
294.549
276.224
255.71
233.272
209.214
183.775
157.19
129.658
101.416
73.0483
-341.631
-347.18
-351.248
-353.869
-355.045
-354.871
-353.399
-350.47
-346.075
-340.202
-332.808
-323.852
-313.301
-301.092
-287.177
-271.513
-254.055
-234.771
-213.651
-190.684
-165.874
-139.285
-110.982
-81.0287
-49.5624
-16.631
18.1727
52.8272
87.8065
122.735
157.235
190.941
223.41
254.224
282.932
309.106
332.382
352.409
368.878
381.554
390.252
394.855
395.286
391.496
383.643
371.743
355.982
336.641
313.972
288.303
260.028
229.523
197.219
163.505
128.813
93.563
58.1133
22.8664
-11.5352
-44.0347
-76.1083
-107.121
-136.757
-164.855
-191.279
-215.918
-238.72
-259.652
-278.686
-295.839
-311.105
-324.515
-336.094
-345.856
-353.836
-360.061
-364.557
-367.362
-368.459
-367.935
-365.848
-362.179
-356.936
-350.13
-341.765
-331.861
-320.44
-307.512
-293.091
-277.18
-259.772
-240.856
-220.425
-198.469
-174.991
-150.004
-123.553
-95.7089
-66.5734
-36.2646
-4.82209
27.2114
59.733
92.4717
125.113
157.313
188.709
218.921
247.561
274.242
298.579
320.203
338.766
353.951
365.477
373.116
376.691
376.053
371.208
362.243
349.17
332.198
311.573
287.605
260.653
231.122
199.448
166.085
131.502
96.1617
60.5194
25.0098
-9.96257
-44.0141
-76.8439
-108.166
-137.755
-165.438
-191.093
-214.647
-236.071
-255.372
-272.591
-287.791
-301.051
-312.465
-322.133
-330.158
-336.634
-341.653
-345.295
-347.629
-348.718
-348.586
-347.277
-344.818
-341.206
-336.428
-330.466
-323.286
-314.845
-305.086
-293.953
-281.383
-267.316
-251.698
-234.482
-215.636
-195.145
-173.008
-149.246
-123.903
-97.0479
-68.78
-39.2329
-8.5735
23.0463
55.2825
87.8792
120.522
152.857
184.5
215.039
244.042
271.076
295.707
317.522
336.132
351.198
362.429
369.606
372.574
371.226
365.626
355.891
342.113
324.549
303.495
279.295
252.338
223.045
191.862
159.255
125.693
91.6357
57.5173
23.735
-9.3323
-41.4203
-72.252
-101.618
-129.359
-155.36
-179.543
-201.868
-222.319
-240.902
-257.643
-272.582
-285.765
-297.248
-307.084
-315.333
-322.053
-327.3
-331.129
-333.591
-334.743
-334.622
-333.263
-330.719
-327.017
-322.173
-316.191
-309.062
-300.773
-291.292
-280.582
-268.596
-255.281
-240.584
-224.456
-206.853
-187.747
-167.122
-144.989
-121.375
-96.3252
-69.9075
-42.2062
-13.344
16.525
47.2061
78.6407
110.122
141.524
172.495
202.646
231.568
258.839
284.029
306.711
326.476
342.943
355.778
364.704
369.508
370.04
366.299
358.352
346.231
330.165
310.443
287.413
261.486
233.108
202.743
170.871
137.968
104.475
70.8335
37.6225
6.9477
-24.0044
-54.0122
-82.7466
-109.975
-135.541
-159.339
-181.289
-201.372
-219.584
-235.962
-250.562
-263.451
-274.716
-284.449
-292.744
-299.704
-305.426
-310.006
-313.521
-316.037
-317.604
-318.249
-317.958
-316.723
-314.481
-311.196
-306.753
-301.048
-293.961
-285.348
-275.087
-263.064
-249.18
-233.361
-215.564
-195.769
-174.003
-150.343
-124.876
-97.7343
-69.1451
-39.2985
-8.47281
23.944
55.7871
87.6406
119.167
149.993
179.698
207.908
234.298
258.489
280.198
299.111
314.998
327.704
337.095
343.1
345.75
345.184
341.302
334.195
323.962
310.798
294.905
276.528
255.96
233.466
209.356
183.87
157.243
129.678
101.403
73.0013
-341.939
-347.479
-351.539
-354.155
-355.335
-355.17
-353.69
-350.762
-346.371
-340.506
-333.122
-324.177
-313.64
-301.444
-287.543
-271.892
-254.446
-235.172
-214.06
-191.099
-166.289
-139.699
-111.387
-81.4181
-49.9196
-16.9544
17.8756
52.6063
87.6626
122.669
157.252
191.046
223.607
254.517
283.322
309.588
332.949
353.053
369.585
382.311
391.044
395.664
396.1
392.302
384.412
372.466
356.647
337.235
314.486
288.728
260.361
229.763
197.366
163.562
128.784
93.4578
57.9409
22.6307
-11.8133
-44.3659
-76.4717
-107.509
-137.164
-165.274
-191.703
-216.344
-239.143
-260.068
-279.094
-296.238
-311.494
-324.894
-336.463
-346.216
-354.188
-360.405
-364.893
-367.689
-368.784
-368.258
-366.166
-362.495
-357.25
-350.443
-342.077
-332.175
-320.755
-307.829
-293.412
-277.506
-260.103
-241.194
-220.77
-198.82
-175.345
-150.356
-123.9
-96.043
-66.8894
-36.5622
-5.06693
27.0029
59.5744
92.3725
125.081
157.355
188.83
219.126
247.853
274.621
299.043
320.751
339.39
354.643
366.226
373.905
377.503
376.88
372.026
363.023
349.903
332.867
312.165
288.107
261.058
231.427
199.651
166.188
131.507
96.0765
60.3512
24.7677
-10.2682
-44.375
-77.2471
-108.602
-138.212
-165.906
-191.564
-215.115
-236.528
-255.813
-273.013
-288.191
-301.428
-312.818
-322.464
-330.467
-336.923
-341.925
-345.552
-347.874
-348.952
-348.814
-347.504
-345.044
-341.433
-336.661
-330.706
-323.537
-315.107
-305.363
-294.244
-281.689
-267.637
-252.031
-234.826
-215.99
-195.505
-173.371
-149.609
-124.26
-97.3934
-69.1076
-39.5362
-8.84255
22.811
55.1012
87.758
120.468
152.88
184.607
215.236
244.334
271.464
296.191
318.095
336.788
351.924
363.21
370.423
373.406
372.064
366.444
356.661
342.825
325.189
304.051
279.758
252.702
223.307
192.023
159.317
125.661
91.5192
57.326
23.4807
-9.64009
-41.7699
-72.6327
-102.02
-129.773
-155.779
-179.961
-202.281
-222.722
-241.294
-258.021
-272.945
-286.114
-297.582
-307.403
-315.638
-322.346
-327.58
-331.397
-333.849
-334.99
-334.86
-333.495
-330.946
-327.241
-322.397
-316.416
-309.292
-301.011
-291.539
-280.84
-268.867
-255.565
-240.883
-224.767
-207.175
-188.076
-167.456
-145.324
-121.707
-96.6519
-70.2237
-42.506
-13.6205
16.2793
46.9918
78.5019
110.034
141.505
172.554
202.79
231.803
259.168
284.453
307.229
327.081
343.627
356.528
365.502
370.337
370.884
367.134
359.15
346.98
330.846
311.042
287.919
261.894
233.415
202.949
170.983
137.99
104.414
70.6955
37.4372
6.68512
-24.3134
-54.3571
-83.1196
-110.368
-135.946
-159.747
-181.695
-201.77
-219.969
-236.332
-250.913
-263.782
-275.027
-284.738
-293.012
-299.952
-305.655
-310.218
-313.72
-316.225
-317.786
-318.429
-318.142
-316.919
-314.689
-311.422
-307.001
-301.322
-294.262
-285.675
-275.44
-263.441
-249.576
-233.772
-215.986
-196.195
-174.426
-150.756
-125.27
-98.1019
-69.478
-39.5849
-8.6959
23.7287
55.6514
87.5826
119.189
150.099
179.886
208.178
234.646
258.912
280.689
299.664
315.598
328.341
337.755
343.77
346.418
345.846
341.94
334.794
324.517
311.301
295.349
276.908
256.273
233.71
209.533
183.987
157.31
129.702
101.388
72.9426
-342.308
-347.836
-351.889
-354.498
-355.682
-355.528
-354.039
-351.111
-346.726
-340.871
-333.499
-324.567
-314.045
-301.866
-287.982
-272.347
-254.916
-235.654
-214.552
-191.597
-166.788
-140.197
-111.874
-81.8862
-50.3511
-17.3463
17.5198
52.3417
87.4897
122.591
157.272
191.171
223.844
254.869
283.789
310.166
333.63
353.825
370.435
383.22
391.995
396.637
397.077
393.27
385.336
373.335
357.446
337.948
315.103
289.24
260.761
230.05
197.541
163.63
128.748
93.3305
57.733
22.3478
-12.1479
-44.7647
-76.9086
-107.976
-137.653
-165.777
-192.213
-216.855
-239.65
-260.568
-279.584
-296.717
-311.96
-325.349
-336.906
-346.649
-354.61
-360.818
-365.296
-368.082
-369.174
-368.644
-366.548
-362.873
-357.627
-350.819
-342.453
-332.55
-321.132
-308.209
-293.797
-277.896
-260.501
-241.6
-221.184
-199.242
-175.769
-150.779
-124.316
-96.4442
-67.2696
-36.9227
-5.35944
26.7517
59.3833
92.2526
125.041
157.404
188.975
219.371
248.202
275.075
299.601
321.408
340.141
355.475
367.125
374.854
378.48
377.871
373.009
363.962
350.785
333.671
312.875
288.711
261.545
231.793
199.893
166.31
131.513
95.9731
60.1481
24.4757
-10.6365
-44.8094
-77.7324
-109.125
-138.762
-166.47
-192.132
-215.676
-237.077
-256.343
-273.52
-288.671
-301.88
-313.243
-322.861
-330.837
-337.27
-342.251
-345.86
-348.168
-349.233
-349.09
-347.776
-345.314
-341.706
-336.94
-330.995
-323.838
-315.423
-305.695
-294.594
-282.057
-268.022
-252.432
-235.241
-216.416
-195.938
-173.808
-150.044
-124.689
-97.8088
-69.5022
-39.9012
-9.1679
22.5282
54.8827
87.6113
120.403
152.907
184.734
215.472
244.683
271.93
296.771
318.784
337.576
352.796
364.148
371.405
374.409
373.069
367.425
357.587
343.682
325.958
304.718
280.314
253.138
223.621
192.215
159.39
125.622
91.3781
57.0949
23.1742
-10.0111
-42.1909
-73.0908
-102.504
-130.272
-156.284
-180.464
-202.777
-223.207
-241.765
-258.476
-273.382
-286.533
-297.982
-307.787
-316.005
-322.697
-327.917
-331.719
-334.158
-335.287
-335.146
-333.774
-331.219
-327.51
-322.665
-316.686
-309.569
-301.296
-291.836
-281.151
-269.193
-255.908
-241.241
-225.141
-207.562
-188.473
-167.858
-145.727
-122.107
-97.0448
-70.6038
-42.8669
-13.9531
15.9837
46.7314
78.3359
109.928
141.481
172.624
202.962
232.084
259.562
284.962
307.85
327.809
344.448
357.428
366.461
371.333
371.896
368.137
360.11
347.879
331.664
311.761
288.527
262.383
233.782
203.197
171.117
138.016
104.34
70.5308
37.2142
6.36786
-24.6853
-54.7722
-83.5682
-110.84
-136.432
-160.238
-182.182
-202.247
-220.432
-236.775
-251.334
-264.18
-275.4
-285.085
-293.333
-300.248
-305.929
-310.472
-313.958
-316.451
-318.005
-318.645
-318.363
-317.152
-314.939
-311.693
-307.299
-301.65
-294.622
-286.068
-275.864
-263.894
-250.052
-234.267
-216.493
-196.706
-174.934
-151.252
-125.744
-98.5442
-69.8787
-39.9307
-8.96956
23.4744
55.489
87.5126
119.216
150.225
180.112
208.501
235.065
259.42
281.28
300.327
316.32
329.105
338.548
344.576
347.221
346.638
342.705
335.513
325.183
311.906
295.883
277.364
256.648
234.001
209.746
184.127
157.389
129.731
101.369
72.8721
-342.739
-348.254
-352.296
-354.898
-356.084
-355.944
-354.445
-351.518
-347.139
-341.296
-333.937
-325.022
-314.519
-302.359
-288.494
-272.878
-255.464
-236.216
-215.127
-192.178
-167.371
-140.778
-112.443
-82.4329
-50.8594
-17.8076
17.1055
52.0332
87.2874
122.498
157.294
191.316
224.119
255.279
284.334
310.841
334.424
354.727
371.427
384.283
393.106
397.774
398.219
394.399
386.416
374.35
358.379
338.78
315.823
289.836
261.227
230.385
197.744
163.707
128.705
93.1803
57.4891
22.0176
-12.5397
-45.2318
-77.4192
-108.522
-138.224
-166.365
-192.809
-217.451
-240.242
-261.152
-280.156
-297.275
-312.505
-325.88
-337.423
-347.153
-355.102
-361.299
-365.767
-368.542
-369.628
-369.094
-366.992
-363.315
-358.066
-351.257
-342.891
-332.989
-321.572
-308.653
-294.246
-278.351
-260.964
-242.074
-221.668
-199.734
-176.264
-151.274
-124.802
-96.913
-67.714
-37.3472
-5.69956
26.4568
59.1589
92.1116
124.994
157.46
189.142
219.656
248.609
275.605
300.252
322.176
341.016
356.446
368.175
375.963
379.624
379.029
374.155
365.06
351.815
334.61
313.705
289.415
262.113
232.219
200.176
166.451
131.518
95.8508
59.9093
24.1329
-11.0684
-45.318
-78.3004
-109.739
-139.405
-167.13
-192.795
-216.333
-237.718
-256.963
-274.111
-289.232
-302.409
-313.739
-323.324
-331.27
-337.675
-342.631
-346.22
-348.51
-349.561
-349.411
-348.092
-345.629
-342.025
-337.266
-331.332
-324.188
-315.791
-306.083
-295.003
-282.487
-268.472
-252.9
-235.726
-216.913
-196.444
-174.318
-150.553
-125.19
-98.2948
-69.9643
-40.3285
-9.54977
22.1969
54.6266
87.4387
120.325
152.936
184.881
215.746
245.091
272.473
297.448
319.588
338.496
353.814
365.245
372.554
375.581
374.242
368.57
358.669
344.683
326.857
305.498
280.962
253.648
223.988
192.438
159.474
125.575
91.2113
56.8234
22.8147
-10.446
-42.6838
-73.6273
-103.069
-130.854
-156.873
-181.052
-203.356
-223.774
-242.314
-259.006
-273.892
-287.022
-298.451
-308.235
-316.434
-323.107
-328.309
-332.095
-334.52
-335.634
-335.48
-334.099
-331.537
-327.824
-322.978
-317.002
-309.892
-301.63
-292.182
-281.514
-269.574
-256.307
-241.66
-225.578
-208.014
-188.936
-168.328
-146.199
-122.575
-97.5041
-71.0485
-43.2896
-14.3422
15.638
46.4247
78.1421
109.801
141.452
172.705
203.162
232.411
260.022
285.556
308.575
328.658
345.408
358.479
367.581
372.498
373.077
369.307
361.231
348.93
332.62
312.601
289.236
262.953
234.21
203.485
171.273
138.045
104.252
70.3397
36.9524
5.99542
-25.1204
-55.2578
-84.093
-111.392
-137.001
-160.812
-182.752
-202.805
-220.972
-237.293
-251.826
-264.644
-275.834
-285.489
-293.708
-300.594
-306.248
-310.768
-314.235
-316.714
-318.259
-318.897
-318.621
-317.424
-315.229
-312.009
-307.647
-302.032
-295.043
-286.526
-276.359
-264.423
-250.608
-234.845
-217.086
-197.305
-175.529
-151.832
-126.297
-99.0618
-70.3478
-40.3368
-9.29483
23.1814
55.2996
87.4304
119.246
150.372
180.375
208.878
235.553
260.013
281.97
301.102
317.163
329.998
339.474
345.517
348.158
347.561
343.596
336.353
325.961
312.611
296.506
277.897
257.086
234.341
209.992
184.289
157.48
129.763
101.346
72.7899
-343.231
-348.73
-352.761
-355.356
-356.542
-356.418
-354.907
-351.982
-347.611
-341.782
-334.439
-325.542
-315.06
-302.923
-289.08
-273.486
-256.091
-236.86
-215.784
-192.843
-168.039
-141.443
-113.095
-83.0588
-51.4459
-18.3396
16.6321
51.6803
87.0555
122.391
157.318
191.48
224.432
255.747
284.958
311.613
335.333
355.759
372.562
385.498
394.377
399.076
399.527
395.688
387.651
375.512
359.446
339.733
316.647
290.517
261.76
230.766
197.976
163.795
128.655
93.0065
57.2081
21.6405
-12.9897
-45.7675
-78.0043
-109.147
-138.878
-167.037
-193.49
-218.134
-240.919
-261.819
-280.811
-297.914
-313.127
-326.486
-338.014
-347.729
-355.665
-361.85
-366.306
-369.068
-370.146
-369.607
-367.5
-363.819
-358.569
-351.758
-343.392
-333.491
-322.076
-309.16
-294.758
-278.871
-261.495
-242.616
-222.222
-200.296
-176.832
-151.841
-125.359
-97.4501
-68.2228
-37.8373
-6.08667
26.1173
58.9006
91.9488
124.939
157.524
189.333
219.982
249.074
276.21
300.997
323.054
342.018
357.557
369.378
377.233
380.934
380.355
375.465
366.317
352.994
335.686
314.654
290.22
262.763
232.705
200.497
166.61
131.522
95.7089
59.6342
23.7386
-11.5649
-45.9015
-78.9522
-110.442
-140.142
-167.885
-193.555
-217.086
-238.453
-257.672
-274.789
-289.874
-303.014
-314.306
-323.854
-331.765
-338.138
-343.066
-346.631
-348.902
-349.937
-349.776
-348.453
-345.99
-342.389
-337.639
-331.717
-324.589
-316.212
-306.526
-295.47
-282.979
-268.987
-253.437
-236.28
-217.482
-197.024
-174.903
-151.136
-125.765
-98.852
-70.4943
-40.8189
-9.98894
21.8163
54.3321
87.2394
120.235
152.967
185.047
216.057
245.555
273.092
298.222
320.508
339.548
354.981
366.5
373.869
376.925
375.586
369.879
359.909
345.828
327.885
306.389
281.703
254.229
224.405
192.691
159.568
125.519
91.018
56.5105
22.4013
-10.9455
-43.2497
-74.2426
-103.718
-131.522
-157.548
-181.726
-204.02
-224.422
-242.943
-259.614
-274.476
-287.581
-298.986
-308.747
-316.924
-323.577
-328.758
-332.526
-334.933
-336.03
-335.862
-334.472
-331.901
-328.183
-323.336
-317.364
-310.262
-302.01
-292.578
-281.928
-270.009
-256.765
-242.14
-226.078
-208.531
-189.467
-168.866
-146.738
-123.11
-98.0303
-71.5582
-43.7742
-14.7888
15.2415
46.0748
77.9159
109.652
141.416
172.795
203.389
232.784
260.546
286.234
309.404
329.629
346.506
359.683
368.865
373.832
374.429
370.646
362.516
350.134
333.714
313.561
290.047
263.604
234.699
203.813
171.449
138.077
104.151
70.1219
36.6506
5.5672
-25.6194
-55.8147
-84.6945
-112.025
-137.652
-161.469
-183.404
-203.443
-221.589
-237.885
-252.389
-265.175
-276.331
-285.952
-294.136
-300.989
-306.613
-311.106
-314.551
-317.014
-318.55
-319.185
-318.915
-317.733
-315.56
-312.371
-308.043
-302.469
-295.523
-287.049
-276.925
-265.029
-251.245
-235.506
-217.764
-197.989
-176.209
-152.496
-126.93
-99.6554
-70.886
-40.804
-9.67294
22.8497
55.0828
87.3355
119.281
150.539
180.676
209.309
236.11
260.691
282.759
301.988
318.129
331.021
340.534
346.593
349.231
348.615
344.614
337.313
326.851
313.418
297.218
278.506
257.585
234.729
210.273
184.473
157.582
129.798
101.32
72.6961
-343.785
-349.266
-353.283
-355.87
-357.056
-356.943
-355.424
-352.504
-348.142
-342.328
-335.003
-326.127
-315.669
-303.557
-289.74
-274.17
-256.797
-237.584
-216.523
-193.591
-168.792
-142.193
-113.83
-83.7648
-52.1117
-18.9441
16.0994
51.2825
86.7937
122.269
157.342
191.663
224.783
256.273
285.658
312.482
336.357
356.921
373.84
386.868
395.81
400.544
401.001
397.14
389.044
376.821
360.649
340.807
317.574
291.284
262.359
231.195
198.235
163.891
128.597
92.8082
56.8889
21.2163
-13.4991
-46.372
-78.6645
-109.852
-139.615
-167.796
-194.258
-218.903
-241.682
-262.571
-281.547
-298.633
-313.828
-327.169
-338.679
-348.377
-356.298
-362.469
-366.911
-369.661
-370.73
-370.184
-368.072
-364.387
-359.135
-352.322
-343.956
-334.056
-322.642
-309.73
-295.334
-279.456
-262.092
-243.226
-222.845
-200.929
-177.471
-152.479
-125.987
-98.0561
-68.7962
-38.3891
-6.52529
25.7315
58.6076
91.7635
124.875
157.593
189.546
220.346
249.595
276.89
301.834
324.042
343.146
358.81
370.733
378.665
382.413
381.849
376.941
367.735
354.323
336.898
315.723
291.126
263.493
233.251
200.858
166.788
131.525
95.5466
59.3215
23.292
-12.1268
-46.5608
-79.6889
-111.236
-140.974
-168.738
-194.413
-217.935
-239.281
-258.471
-275.552
-290.598
-303.696
-314.944
-324.451
-332.322
-338.658
-343.556
-347.094
-349.343
-350.361
-350.189
-348.86
-346.396
-342.8
-338.057
-332.15
-325.041
-316.686
-307.026
-295.997
-283.534
-269.568
-254.041
-236.905
-218.124
-197.678
-175.562
-151.795
-126.413
-99.4811
-71.0925
-41.3733
-10.4874
21.3866
53.9988
87.0126
120.13
153
185.232
216.406
246.076
273.789
299.092
321.544
340.734
356.295
367.915
375.353
378.441
377.1
371.354
361.306
347.119
329.043
307.393
282.537
254.884
224.874
192.975
159.671
125.453
90.7974
56.1552
21.9332
-11.5107
-43.8894
-74.9377
-104.45
-132.276
-158.31
-182.485
-204.768
-225.153
-243.652
-260.298
-275.133
-288.211
-299.589
-309.324
-317.475
-324.105
-329.264
-333.011
-335.399
-336.477
-336.293
-334.889
-332.31
-328.586
-323.739
-317.771