/*--------------------------------*- C++ -*----------------------------------*\
| =========                 |                                                 |
| \\      /  F ield         | OpenFOAM: The Open Source CFD Toolbox           |
|  \\    /   O peration     | Version:  3.0.1                                 |
|   \\  /    A nd           | Web:      www.OpenFOAM.org                      |
|    \\/     M anipulation  |                                                 |
\*---------------------------------------------------------------------------*/
FoamFile
{
    version     2.0;
    format      ascii;
    class       surfaceScalarField;
    location    "80";
    object      phi;
}
// * * * * * * * * * * * * * * * * * * * * * * * * * * * * * * * * * * * * * //

dimensions      [0 3 -1 0 0 0 0];

internalField   nonuniform List<scalar> 
42423
(
-0.000144563
9.78074e-06
-0.000153299
8.73597e-06
-0.000161129
7.82988e-06
-0.000168078
6.94887e-06
-0.000174167
6.08958e-06
-0.000179446
5.2791e-06
-0.00018393
4.48376e-06
-0.000187649
3.7186e-06
-0.000190636
2.98716e-06
-0.000192887
2.25089e-06
-0.00019442
1.53348e-06
-0.000195268
8.47895e-07
-0.000195408
1.40223e-07
-0.000194777
-6.31685e-07
-0.000193365
-1.41133e-06
-0.000191213
-2.15212e-06
-0.000188351
-2.86263e-06
-0.000184652
-3.69849e-06
-0.000180148
-4.50391e-06
-0.000174933
-5.21558e-06
-0.000168681
-6.25193e-06
-0.000161542
-7.1392e-06
-0.000153561
-7.98069e-06
-0.000144536
-9.0246e-06
-0.000134598
-9.93799e-06
-0.000123546
-1.10523e-05
-0.000111482
-1.20637e-05
-9.85219e-05
-1.29604e-05
-8.44062e-05
-1.41158e-05
-6.92546e-05
-1.51516e-05
-5.32741e-05
-1.59806e-05
-3.63183e-05
-1.69558e-05
-1.86525e-05
-1.76658e-05
-2.13282e-07
-1.84393e-05
1.87483e-05
-1.89616e-05
3.79034e-05
-1.91551e-05
5.72075e-05
-1.93042e-05
7.6483e-05
-1.92755e-05
9.53272e-05
-1.88442e-05
0.00011364
-1.8313e-05
0.000131077
-1.7437e-05
0.000147472
-1.63947e-05
0.000162562
-1.50907e-05
0.000176017
-1.34551e-05
0.000187661
-1.16438e-05
0.000197289
-9.62786e-06
0.000204683
-7.39375e-06
0.000209787
-5.10431e-06
0.000212489
-2.70174e-06
0.000212685
-1.96713e-07
0.000210465
2.22071e-06
0.000205719
4.74597e-06
0.00019872
6.99835e-06
0.0001896
9.12036e-06
0.000178407
1.11932e-05
0.000165427
1.29791e-05
0.000150851
1.45764e-05
0.00013492
1.5931e-05
0.000117899
1.70213e-05
9.99672e-05
1.79315e-05
8.14176e-05
1.85496e-05
6.24591e-05
1.89585e-05
4.33853e-05
1.90738e-05
2.43476e-05
1.90377e-05
5.50951e-06
1.88381e-05
-1.28117e-05
1.83212e-05
-3.05929e-05
1.77812e-05
-4.77149e-05
1.7122e-05
-6.40077e-05
1.62928e-05
-7.94817e-05
1.5474e-05
-9.39912e-05
1.45095e-05
-0.000107543
1.35519e-05
-0.000120137
1.25942e-05
-0.000131679
1.15417e-05
-0.000142191
1.05118e-05
-0.000151685
9.49435e-06
-0.000160157
8.47209e-06
-0.000167708
7.55081e-06
-0.000174183
6.47461e-06
-0.00017969
5.50779e-06
-0.000184297
4.60625e-06
-0.00018789
3.59293e-06
-0.00019048
2.59036e-06
-0.000192149
1.6692e-06
-0.000192854
7.04322e-07
-0.000192625
-2.28323e-07
-0.000191416
-1.2095e-06
-0.000189341
-2.07463e-06
-0.000186457
-2.88396e-06
-0.000182899
-3.55763e-06
-0.000178695
-4.20408e-06
-0.000173906
-4.78962e-06
-0.000168542
-5.36358e-06
-0.000162603
-5.9391e-06
-0.000156053
-6.55016e-06
-0.000148865
-7.18822e-06
-0.000141015
-7.84939e-06
-0.000132446
-8.56965e-06
-0.000123092
-9.35371e-06
-0.000112926
-1.01662e-05
-0.000101931
-1.09949e-05
-9.00371e-05
-1.1894e-05
-7.73648e-05
-1.26724e-05
-6.38736e-05
-1.34912e-05
-4.95904e-05
-1.42833e-05
-3.45475e-05
-1.50429e-05
-1.88522e-05
-1.56954e-05
-2.54125e-06
-1.6311e-05
1.42734e-05
-1.68147e-05
3.1486e-05
-1.72127e-05
4.89398e-05
-1.74539e-05
6.64858e-05
-1.75461e-05
8.39446e-05
-1.74589e-05
0.000101127
-1.71825e-05
0.000117821
-1.6694e-05
0.000133777
-1.59565e-05
0.000148768
-1.4991e-05
0.00016254
-1.37714e-05
0.000174835
-1.22956e-05
0.000185413
-1.05773e-05
0.00019403
-8.61737e-06
0.000200494
-6.46421e-06
0.000204674
-4.17997e-06
0.000206429
-1.75472e-06
0.000205716
7.12512e-07
0.000202492
3.22415e-06
0.000196767
5.72535e-06
0.000188674
8.09208e-06
0.000178405
1.0269e-05
0.000166071
1.2334e-05
0.000151958
1.41136e-05
0.000136307
1.56507e-05
0.000119353
1.69543e-05
0.000101449
1.79036e-05
8.28244e-05
1.86248e-05
6.36876e-05
1.91367e-05
4.4437e-05
1.92506e-05
2.52497e-05
1.91873e-05
6.29641e-06
1.89533e-05
-1.21394e-05
1.84358e-05
-2.98655e-05
1.77261e-05
-4.67853e-05
1.69198e-05
-6.27861e-05
1.60007e-05
-7.77238e-05
1.49377e-05
-9.16232e-05
1.38994e-05
-0.000104399
1.27756e-05
-0.000116102
1.17027e-05
-0.00012675
1.06485e-05
-0.000136347
9.5969e-06
-0.000144955
8.6081e-06
-0.000152598
7.64335e-06
-0.000159422
6.82361e-06
-0.000165352
5.92992e-06
-0.00017046
5.10792e-06
-0.000174807
4.34715e-06
-0.000178425
3.61821e-06
-0.000181392
2.96726e-06
-0.000183685
2.2923e-06
-0.000185337
1.65191e-06
-0.000186458
1.1213e-06
-0.000186932
4.73882e-07
-0.000186821
-1.10456e-07
-0.000186206
-6.1572e-07
-0.000184933
-1.27281e-06
-0.000183088
-1.84451e-06
-0.00018059
-2.49796e-06
-0.000177401
-3.18992e-06
-0.000173622
-3.77824e-06
-0.000169084
-4.53858e-06
-0.0001638
-5.28355e-06
-0.000157728
-6.07213e-06
-0.000150925
-6.80331e-06
-0.000143279
-7.64532e-06
-0.000134814
-8.4653e-06
-0.00012548
-9.33438e-06
-0.000115231
-1.02488e-05
-0.000104201
-1.10305e-05
-9.22686e-05
-1.1932e-05
-7.94716e-05
-1.2797e-05
-6.58271e-05
-1.36445e-05
-5.14123e-05
-1.44149e-05
-3.62412e-05
-1.51711e-05
-2.03959e-05
-1.58454e-05
-3.97389e-06
-1.64221e-05
1.28457e-05
-1.68197e-05
2.9966e-05
-1.71203e-05
4.72172e-05
-1.72513e-05
6.44002e-05
-1.7183e-05
8.13113e-05
-1.69111e-05
9.77412e-05
-1.64299e-05
0.000113476
-1.57347e-05
0.000128267
-1.47908e-05
0.000141898
-1.36318e-05
0.00015411
-1.22112e-05
0.000164646
-1.0537e-05
0.00017327
-8.62327e-06
0.000179801
-6.53101e-06
0.000184104
-4.30328e-06
0.000186081
-1.97734e-06
0.000185664
4.16916e-07
0.000182853
2.81159e-06
0.000177656
5.19642e-06
0.000170246
7.41064e-06
0.000160771
9.47449e-06
0.000149381
1.13905e-05
0.000136248
1.31326e-05
0.000121621
1.46272e-05
0.00010575
1.58704e-05
8.88572e-05
1.68931e-05
7.12822e-05
1.7575e-05
5.32793e-05
1.80029e-05
3.50962e-05
1.81831e-05
1.70473e-05
1.80489e-05
-7.82647e-07
1.783e-05
-1.81065e-05
1.73239e-05
-3.48786e-05
1.67721e-05
-5.09257e-05
1.60471e-05
-6.61792e-05
1.52534e-05
-8.06162e-05
1.4437e-05
-9.41413e-05
1.35251e-05
-0.000106706
1.25649e-05
-0.000118338
1.16314e-05
-0.000128963
1.06258e-05
-0.000138589
9.62607e-06
-0.000147327
8.73741e-06
-0.000155048
7.72086e-06
-0.000161807
6.75914e-06
-0.00016765
5.8432e-06
-0.000172558
4.90825e-06
-0.000176737
4.17825e-06
-0.000180055
3.31797e-06
-0.000182639
2.584e-06
-0.000184538
1.89932e-06
-0.000185781
1.24325e-06
-0.00018643
6.49144e-07
-0.000186589
1.58928e-07
-0.000186172
-4.16976e-07
-0.00018531
-8.61966e-07
-0.000183952
-1.35823e-06
-0.000182142
-1.81009e-06
-0.000179926
-2.21634e-06
-0.000177183
-2.74216e-06
-0.000173979
-3.20467e-06
-0.000170168
-3.81082e-06
-0.000165793
-4.37526e-06
-0.000160766
-5.02664e-06
-0.000155101
-5.6649e-06
-0.000148688
-6.41305e-06
-0.000141728
-6.95991e-06
-0.000134034
-7.69433e-06
-0.000125654
-8.38002e-06
-0.000116563
-9.09125e-06
-0.000106799
-9.76326e-06
-9.63168e-05
-1.04827e-05
-8.50755e-05
-1.12413e-05
-7.3107e-05
-1.19686e-05
-6.03696e-05
-1.27373e-05
-4.68153e-05
-1.35544e-05
-3.26758e-05
-1.41395e-05
-1.78289e-05
-1.4847e-05
-2.42248e-06
-1.54064e-05
1.33761e-05
-1.57986e-05
2.94382e-05
-1.60622e-05
4.55288e-05
-1.60906e-05
6.144e-05
-1.59112e-05
7.69739e-05
-1.5534e-05
9.18592e-05
-1.48853e-05
0.000105897
-1.40375e-05
0.000118881
-1.29848e-05
0.00013055
-1.16691e-05
0.000140753
-1.02027e-05
0.000149359
-8.60611e-06
0.000156157
-6.79815e-06
0.00016112
-4.96226e-06
0.000164185
-3.06597e-06
0.000165247
-1.06164e-06
0.000164329
9.17764e-07
0.000161597
2.73246e-06
0.000156987
4.60942e-06
0.000150859
6.12862e-06
0.000143061
7.79753e-06
0.00013382
9.24069e-06
0.000123192
1.06283e-05
0.000111313
1.18793e-05
9.82742e-05
1.30386e-05
8.41629e-05
1.41113e-05
6.92419e-05
1.4921e-05
5.38156e-05
1.54263e-05
3.80478e-05
1.57677e-05
2.22582e-05
1.57896e-05
6.59747e-06
1.56607e-05
-8.61462e-06
1.52121e-05
-2.32679e-05
1.46532e-05
-3.72543e-05
1.39864e-05
-5.04194e-05
1.31651e-05
-6.2711e-05
1.22916e-05
-7.40803e-05
1.13692e-05
-8.44971e-05
1.04168e-05
-9.39749e-05
9.47789e-06
-0.000102546
8.57107e-06
-0.00011019
7.64384e-06
-0.000117005
6.81552e-06
-0.000123043
6.03713e-06
-0.000128311
5.26833e-06
-0.000132943
4.63208e-06
-0.000136983
4.0396e-06
-0.000140453
3.47024e-06
-0.00014346
3.00745e-06
-0.000146021
2.56096e-06
-0.0001482
2.17862e-06
-0.000150006
1.80577e-06
-0.000151424
1.41815e-06
-0.000152434
1.01017e-06
-0.00015306
6.25679e-07
-0.000153239
1.78996e-07
-0.00015291
-3.28855e-07
-0.000151981
-9.28685e-07
-0.000150448
-1.53325e-06
-0.000148273
-2.17528e-06
-0.000145288
-2.98444e-06
-0.000141522
-3.76635e-06
-0.000136963
-4.55861e-06
-0.000131397
-5.56616e-06
-0.000124865
-6.53212e-06
-0.000117306
-7.55867e-06
-0.000108764
-8.54236e-06
-9.92974e-05
-9.46647e-06
-8.87019e-05
-1.05955e-05
-7.71524e-05
-1.15495e-05
-6.47537e-05
-1.23988e-05
-5.13292e-05
-1.34244e-05
-3.70798e-05
-1.42494e-05
-2.2218e-05
-1.48618e-05
-6.66009e-06
-1.5558e-05
9.34171e-06
-1.60018e-05
2.57535e-05
-1.64118e-05
4.24041e-05
-1.66506e-05
5.89805e-05
-1.65764e-05
7.54648e-05
-1.64843e-05
9.1639e-05
-1.61743e-05
0.00010723
-1.55905e-05
0.000122109
-1.48797e-05
0.000136074
-1.39645e-05
0.000148986
-1.29124e-05
0.000160682
-1.16956e-05
0.000170987
-1.03051e-05
0.000179792
-8.80569e-06
0.000186984
-7.1915e-06
0.000192457
-5.47357e-06
0.000196147
-3.6892e-06
0.000198027
-1.88067e-06
0.000197995
3.18129e-08
0.000196046
1.94924e-06
0.000192213
3.83352e-06
0.00018671
5.50236e-06
0.000179552
7.15772e-06
8.71347e-06
-0.000144606
1.95661e-05
-0.000153342
1.74721e-05
-0.000161176
1.5664e-05
-0.000168127
1.38996e-05
-0.000174215
1.21774e-05
-0.000179495
1.05587e-05
-0.000183979
8.96846e-06
-0.0001877
7.43925e-06
-0.000190688
5.97483e-06
-0.000192939
4.50272e-06
-0.000194473
3.06691e-06
-0.000195318
1.69323e-06
-0.000195456
2.78216e-07
-0.000194829
-1.25876e-06
-0.000193417
-2.82369e-06
-0.000191265
-4.30435e-06
-0.000188404
-5.72302e-06
-0.000184706
-7.3971e-06
-0.000180203
-9.00683e-06
-0.000174991
-1.04272e-05
-0.000168737
-1.25062e-05
-0.000161598
-1.42781e-05
-0.00015362
-1.5959e-05
-0.000144595
-1.80491e-05
-0.000134657
-1.98764e-05
-0.000123603
-2.21066e-05
-0.000111539
-2.41271e-05
-9.85774e-05
-2.59224e-05
-8.44587e-05
-2.82346e-05
-6.93029e-05
-3.03075e-05
-5.33189e-05
-3.19646e-05
-3.63577e-05
-3.39171e-05
-1.86859e-05
-3.53378e-05
-2.36843e-07
-3.68884e-05
1.87309e-05
-3.79294e-05
3.78953e-05
-3.83196e-05
5.72109e-05
-3.86199e-05
7.65038e-05
-3.85685e-05
9.53599e-05
-3.77004e-05
0.000113683
-3.6636e-05
0.000131131
-3.48852e-05
0.000147538
-3.28017e-05
0.00016264
-3.01924e-05
0.000176106
-2.69216e-05
0.000187761
-2.32987e-05
0.000197398
-1.92649e-05
0.000204799
-1.47948e-05
0.000209908
-1.0214e-05
0.000212616
-5.40923e-06
0.000212808
-3.89189e-07
0.00021058
4.44842e-06
0.000205837
9.48892e-06
0.000198836
1.40001e-05
0.000189708
1.82482e-05
0.000178506
2.23944e-05
0.000165518
2.59671e-05
0.000150932
2.91632e-05
0.000134989
3.18734e-05
0.000117958
3.40528e-05
0.000100017
3.58722e-05
8.14547e-05
3.71117e-05
6.24843e-05
3.79289e-05
4.33996e-05
3.81584e-05
2.43526e-05
3.80847e-05
5.51537e-06
3.76753e-05
-1.28336e-05
3.66701e-05
-3.0629e-05
3.55766e-05
-4.77631e-05
3.42561e-05
-6.40651e-05
3.25948e-05
-7.95454e-05
3.09542e-05
-9.40578e-05
2.9022e-05
-0.000107613
2.71075e-05
-0.00012021
2.51911e-05
-0.000131753
2.30841e-05
-0.000142271
2.103e-05
-0.000151761
1.89847e-05
-0.000160234
1.69447e-05
-0.00016779
1.5107e-05
-0.000174258
1.29423e-05
-0.000179769
1.10194e-05
-0.000184375
9.21182e-06
-0.00018797
7.18806e-06
-0.000190558
5.17774e-06
-0.000192222
3.334e-06
-0.000192922
1.40439e-06
-0.00019268
-4.71129e-07
-0.000191467
-2.42251e-06
-0.000189377
-4.16452e-06
-0.000186478
-5.78252e-06
-0.000182919
-7.11723e-06
-0.000178715
-8.40741e-06
-0.000173918
-9.58742e-06
-0.000168549
-1.07325e-05
-0.000162613
-1.18752e-05
-0.000156071
-1.30921e-05
-0.000148883
-1.4376e-05
-0.000141033
-1.56996e-05
-0.000132466
-1.71367e-05
-0.000123117
-1.87024e-05
-0.000112957
-2.03267e-05
-0.00010197
-2.19819e-05
-9.00773e-05
-2.37865e-05
-7.74201e-05
-2.53297e-05
-6.39218e-05
-2.69896e-05
-4.96372e-05
-2.8568e-05
-3.45927e-05
-3.00875e-05
-1.88915e-05
-3.13967e-05
-2.57606e-06
-3.26266e-05
1.42439e-05
-3.36348e-05
3.14574e-05
-3.44263e-05
4.89202e-05
-3.49168e-05
6.64804e-05
-3.51063e-05
8.39539e-05
-3.49325e-05
0.000101136
-3.43651e-05
0.000117837
-3.3395e-05
0.000133808
-3.19275e-05
0.00014881
-2.99927e-05
0.000162587
-2.75487e-05
0.000174883
-2.45922e-05
0.000185464
-2.1158e-05
0.000194086
-1.7239e-05
0.00020057
-1.29485e-05
0.000204736
-8.34631e-06
0.000206493
-3.51168e-06
0.000205769
1.43657e-06
0.000202517
6.47594e-06
0.000196803
1.1439e-05
0.000188673
1.62224e-05
0.000178387
2.05543e-05
0.000166052
2.46698e-05
0.000151893
2.82719e-05
0.00013622
3.13243e-05
0.000119248
3.39256e-05
0.000101315
3.58371e-05
8.26734e-05
3.7266e-05
6.35209e-05
3.82892e-05
4.42479e-05
3.85236e-05
2.50295e-05
3.84056e-05
6.08846e-06
3.78943e-05
-1.23578e-05
3.68821e-05
-3.00915e-05
3.54598e-05
-4.69884e-05
3.38167e-05
-6.30194e-05
3.20318e-05
-7.79532e-05
2.98715e-05
-9.18459e-05
2.77921e-05
-0.000104634
2.5564e-05
-0.000116332
2.34e-05
-0.000126974
2.12906e-05
-0.000136563
1.91862e-05
-0.000145176
1.7221e-05
-0.000152837
1.53044e-05
-0.000159626
1.3613e-05
-0.000165533
1.18367e-05
-0.000170641
1.02163e-05
-0.000174983
8.68879e-06
-0.000178604
7.23895e-06
-0.000181558
5.92099e-06
-0.000183846
4.58038e-06
-0.00018549
3.2967e-06
-0.000186619
2.24985e-06
-0.000187094
9.48824e-07
-0.000186967
-2.37239e-07
-0.000186343
-1.24025e-06
-0.000185059
-2.55607e-06
-0.000183223
-3.68114e-06
-0.000180727
-4.99358e-06
-0.000177531
-6.38578e-06
-0.000173749
-7.56047e-06
-0.000169209
-9.0787e-06
-0.000163924
-1.05691e-05
-0.000157866
-1.21299e-05
-0.000151051
-1.36178e-05
-0.000143396
-1.53005e-05
-0.000134925
-1.69362e-05
-0.000125589
-1.8671e-05
-0.000115341
-2.04968e-05
-0.000104312
-2.20594e-05
-9.23733e-05
-2.38708e-05
-7.9576e-05
-2.55944e-05
-6.59227e-05
-2.72978e-05
-5.14959e-05
-2.88418e-05
-3.6319e-05
-3.03481e-05
-2.04687e-05
-3.16957e-05
-4.03221e-06
-3.28586e-05
1.27875e-05
-3.36394e-05
2.99132e-05
-3.42461e-05
4.71685e-05
-3.45066e-05
6.43593e-05
-3.4374e-05
8.12803e-05
-3.38322e-05
9.77157e-05
-3.28654e-05
0.000113458
-3.1477e-05
0.000128257
-2.95903e-05
0.000141902
-2.72761e-05
0.00015412
-2.44297e-05
0.000164659
-2.10764e-05
0.000173289
-1.72525e-05
0.000179816
-1.30586e-05
0.000184112
-8.59928e-06
0.000186085
-3.95075e-06
0.00018565
8.52016e-07
0.000182818
5.64427e-06
0.000177619
1.03951e-05
0.000170202
1.48272e-05
0.000160703
1.89738e-05
0.000149314
2.2779e-05
0.00013616
2.6287e-05
0.000121512
2.9275e-05
0.000105632
3.17501e-05
8.87366e-05
3.37888e-05
7.11324e-05
3.51792e-05
5.31156e-05
3.60196e-05
3.49227e-05
3.63759e-05
1.68356e-05
3.61359e-05
-9.81076e-07
3.56467e-05
-1.8307e-05
3.46498e-05
-3.50433e-05
3.35083e-05
-5.11277e-05
3.21316e-05
-6.63899e-05
3.05156e-05
-8.08163e-05
2.88634e-05
-9.43388e-05
2.70477e-05
-0.000106908
2.51342e-05
-0.00011853
2.32529e-05
-0.000129158
2.12541e-05
-0.000138772
1.92405e-05
-0.000147498
1.74634e-05
-0.000155223
1.54455e-05
-0.000161979
1.35156e-05
-0.000167823
1.16871e-05
-0.000172762
9.84691e-06
-0.000176899
8.31517e-06
-0.000180214
6.6333e-06
-0.0001828
5.16985e-06
-0.000184687
3.78611e-06
-0.000185926
2.48188e-06
-0.000186545
1.26852e-06
-0.000186724
3.37586e-07
-0.000186307
-8.3367e-07
-0.000185432
-1.73657e-06
-0.000184078
-2.71228e-06
-0.000182257
-3.6314e-06
-0.000180062
-4.41144e-06
-0.000177328
-5.47589e-06
-0.00017412
-6.41314e-06
-0.000170306
-7.62482e-06
-0.000165929
-8.75235e-06
-0.000160901
-1.00542e-05
-0.000155241
-1.13254e-05
-0.000148856
-1.27978e-05
-0.000141875
-1.39413e-05
-0.00013418
-1.53894e-05
-0.000125797
-1.6763e-05
-0.000116712
-1.81756e-05
-0.000106932
-1.95436e-05
-9.64363e-05
-2.09784e-05
-8.51906e-05
-2.24871e-05
-7.32099e-05
-2.39494e-05
-6.04678e-05
-2.54795e-05
-4.69359e-05
-2.70862e-05
-3.27539e-05
-2.83217e-05
-1.78906e-05
-2.97103e-05
-2.47769e-06
-3.08194e-05
1.33342e-05
-3.16106e-05
2.94075e-05
-3.21355e-05
4.55135e-05
-3.21967e-05
6.14369e-05
-3.18346e-05
7.69834e-05
-3.10806e-05
9.18854e-05
-2.97874e-05
0.000105938
-2.80903e-05
0.00011894
-2.5987e-05
0.00013062
-2.33487e-05
0.000140829
-2.0412e-05
0.000149452
-1.72286e-05
0.000156252
-1.35984e-05
0.000161215
-9.92596e-06
0.000164293
-6.14368e-06
0.00016535
-2.11848e-06
0.000164431
1.83619e-06
0.000161689
5.4751e-06
0.00015708
9.21814e-06
0.000150946
1.22625e-05
0.000143139
1.56046e-05
0.000133896
1.84831e-05
0.000123263
2.12612e-05
0.000111379
2.3764e-05
9.83323e-05
2.6085e-05
8.42112e-05
2.82323e-05
6.92783e-05
2.9854e-05
5.38418e-05
3.08627e-05
3.80623e-05
3.15473e-05
2.22639e-05
3.1588e-05
6.59141e-06
3.13332e-05
-8.62935e-06
3.04328e-05
-2.32914e-05
2.93152e-05
-3.72858e-05
2.79809e-05
-5.04568e-05
2.63362e-05
-6.27493e-05
2.4584e-05
-7.41256e-05
2.27455e-05
-8.45463e-05
2.08375e-05
-9.40276e-05
1.89593e-05
-0.000102598
1.71411e-05
-0.000110239
1.52857e-05
-0.000117058
1.36343e-05
-0.00012309
1.2069e-05
-0.000128361
1.05395e-05
-0.000132993
9.26424e-06
-0.00013702
8.06654e-06
-0.000140493
6.94315e-06
-0.000143499
6.0134e-06
-0.000146061
5.12268e-06
-0.00014825
4.3679e-06
-0.000150045
3.60041e-06
-0.000151457
2.8298e-06
-0.000152474
2.02766e-06
-0.000153107
1.25845e-06
-0.000153284
3.56531e-07
-0.000152952
-6.61386e-07
-0.000152026
-1.85467e-06
-0.000150495
-3.06407e-06
-0.000148323
-4.34758e-06
-0.000145341
-5.96637e-06
-0.000141576
-7.53098e-06
-0.000137025
-9.10998e-06
-0.000131456
-1.11349e-05
-0.000124926
-1.30623e-05
-0.000117364
-1.51208e-05
-0.000108819
-1.70869e-05
-9.93533e-05
-1.89325e-05
-8.87566e-05
-2.11922e-05
-7.72033e-05
-2.31029e-05
-6.48009e-05
-2.48012e-05
-5.13715e-05
-2.68539e-05
-3.71158e-05
-2.85051e-05
-2.22488e-05
-2.97288e-05
-6.68471e-06
-3.11221e-05
9.32207e-06
-3.20086e-05
2.57415e-05
-3.28313e-05
4.24059e-05
-3.33151e-05
5.89989e-05
-3.31694e-05
7.54898e-05
-3.29753e-05
9.16658e-05
-3.23504e-05
0.000107266
-3.11911e-05
0.000122157
-2.97701e-05
0.000136135
-2.79428e-05
0.000149064
-2.58412e-05
0.000160763
-2.33951e-05
0.000171067
-2.06086e-05
0.000179875
-1.76146e-05
0.000187069
-1.43848e-05
0.000192536
-1.09413e-05
0.000196227
-7.37989e-06
0.000198109
-3.76286e-06
0.000198071
6.97421e-08
0.000196115
3.90479e-06
0.000192282
7.667e-06
0.000186776
1.10081e-05
0.000179613
1.43209e-05
1.74346e-05
-0.000144685
2.93528e-05
-0.00015342
2.62077e-05
-0.000161254
2.34976e-05
-0.000168208
2.08534e-05
-0.000174298
1.82681e-05
-0.000179576
1.58362e-05
-0.000184059
1.34513e-05
-0.000187782
1.1163e-05
-0.000190767
8.95925e-06
-0.000193018
6.75399e-06
-0.000194552
4.60117e-06
-0.000195389
2.5299e-06
-0.000195519
4.08302e-07
-0.000194883
-1.89524e-06
-0.000193475
-4.23124e-06
-0.000191322
-6.45759e-06
-0.00018846
-8.58499e-06
-0.000184766
-1.10912e-05
-0.000180267
-1.35056e-05
-0.000175064
-1.56301e-05
-0.000168805
-1.87651e-05
-0.00016167
-2.14136e-05
-0.000153693
-2.39357e-05
-0.000144671
-2.70711e-05
-0.000134734
-2.98139e-05
-0.000123683
-3.31578e-05
-0.000111624
-3.6186e-05
-9.86601e-05
-3.88862e-05
-8.45391e-05
-4.23556e-05
-6.93786e-05
-4.54681e-05
-5.33904e-05
-4.79528e-05
-3.64219e-05
-5.08857e-05
-1.87418e-05
-5.30179e-05
-2.71619e-07
-5.53586e-05
1.87117e-05
-5.69128e-05
3.78941e-05
-5.75021e-05
5.72275e-05
-5.79534e-05
7.6536e-05
-5.78771e-05
9.54093e-05
-5.65737e-05
0.000113753
-5.49803e-05
0.000131224
-5.23558e-05
0.000147651
-4.9229e-05
0.000162773
-4.53144e-05
0.000176256
-4.04046e-05
0.00018793
-3.49727e-05
0.000197581
-2.89165e-05
0.000204992
-2.22057e-05
0.000210108
-1.53299e-05
0.000212823
-8.12412e-06
0.000212999
-5.65043e-07
0.000210752
6.69485e-06
0.000206016
1.42253e-05
0.000199013
2.10028e-05
0.000189868
2.73931e-05
0.00017865
3.36121e-05
0.000165644
3.8973e-05
0.000151038
4.37694e-05
0.000135074
4.78373e-05
0.000118018
5.11086e-05
0.000100068
5.38223e-05
8.14855e-05
5.56944e-05
6.24966e-05
5.69177e-05
4.33952e-05
5.72598e-05
2.43354e-05
5.71445e-05
5.5176e-06
5.6493e-05
-1.28761e-05
5.50638e-05
-3.06922e-05
5.33927e-05
-4.78326e-05
5.13964e-05
-6.41373e-05
4.88996e-05
-7.96277e-05
4.64445e-05
-9.41488e-05
4.3543e-05
-0.000107709
4.06678e-05
-0.000120306
3.77884e-05
-0.000131849
3.46271e-05
-0.000142374
3.15551e-05
-0.000151864
2.84744e-05
-0.000160335
2.54158e-05
-0.000167895
2.26671e-05
-0.000174358
1.94055e-05
-0.000179881
1.6542e-05
-0.000184484
1.38152e-05
-0.000188073
1.0777e-05
-0.000190657
7.76143e-06
-0.000192321
4.99848e-06
-0.000193016
2.09928e-06
-0.000192767
-7.20305e-07
-0.000191555
-3.63503e-06
-0.000189435
-6.28426e-06
-0.000186556
-8.66171e-06
-0.000182988
-1.06851e-05
-0.000178783
-1.26124e-05
-0.000173986
-1.43841e-05
-0.000168625
-1.60934e-05
-0.000162698
-1.78026e-05
-0.000156169
-1.96216e-05
-0.000148995
-2.15493e-05
-0.000141159
-2.35362e-05
-0.000132606
-2.56892e-05
-0.00012327
-2.8039e-05
-0.000113121
-3.04753e-05
-0.000102149
-3.29545e-05
-9.02629e-05
-3.56723e-05
-7.76269e-05
-3.79657e-05
-6.41246e-05
-4.0492e-05
-4.98368e-05
-4.28558e-05
-3.47883e-05
-4.51361e-05
-1.90852e-05
-4.70999e-05
-2.76301e-06
-4.89489e-05
1.407e-05
-5.04679e-05
3.12951e-05
-5.16515e-05
4.87719e-05
-5.23937e-05
6.63479e-05
-5.26825e-05
8.38449e-05
-5.24296e-05
0.000101037
-5.15572e-05
0.000117756
-5.01143e-05
0.000133748
-4.79191e-05
0.000148768
-4.50133e-05
0.000162565
-4.13457e-05
0.000174881
-3.69084e-05
0.000185473
-3.17503e-05
0.000194119
-2.5885e-05
0.000200599
-1.94283e-05
0.0002048
-1.25471e-05
0.000206537
-5.24948e-06
0.000205795
2.17844e-06
0.000202531
9.74041e-06
0.000196823
1.71469e-05
0.000188663
2.43818e-05
0.000178362
3.08558e-05
0.000166027
3.70047e-05
0.00015183
4.24687e-05
0.00013613
4.70242e-05
0.000119135
5.09207e-05
0.000101155
5.38167e-05
8.24516e-05
5.59696e-05
6.33117e-05
5.74291e-05
4.40179e-05
5.78174e-05
2.47546e-05
5.76689e-05
5.82261e-06
5.68263e-05
-1.26301e-05
5.53348e-05
-3.03804e-05
5.32102e-05
-4.72966e-05
5.07328e-05
-6.33223e-05
4.80574e-05
-7.82529e-05
4.48021e-05
-9.21019e-05
4.16411e-05
-0.000104951
3.84128e-05
-0.000116639
3.50883e-05
-0.000127281
3.19329e-05
-0.000136867
2.8772e-05
-0.000145482
2.58355e-05
-0.000153161
2.29839e-05
-0.000159913
2.03652e-05
-0.000165769
1.76924e-05
-0.000170918
1.53652e-05
-0.000175254
1.30246e-05
-0.000178869
1.08539e-05
-0.000181804
8.85644e-06
-0.000184101
6.87764e-06
-0.000185796
4.99119e-06
-0.00018688
3.33444e-06
-0.00018736
1.42806e-06
-0.000187258
-3.39069e-07
-0.000186608
-1.89063e-06
-0.000185279
-3.88438e-06
-0.00018348
-5.48039e-06
-0.000180989
-7.48466e-06
-0.000177825
-9.54938e-06
-0.000174024
-1.1362e-05
-0.000169481
-1.36218e-05
-0.000164189
-1.58604e-05
-0.000158154
-1.81654e-05
-0.000151324
-2.04478e-05
-0.00014366
-2.29645e-05
-0.0001352
-2.5396e-05
-0.000125851
-2.80202e-05
-0.000115628
-3.07203e-05
-0.000104578
-3.3109e-05
-9.26404e-05
-3.58084e-05
-7.98354e-05
-3.83994e-05
-6.61872e-05
-4.09461e-05
-5.17467e-05
-4.32823e-05
-3.65543e-05
-4.55406e-05
-2.06731e-05
-4.7577e-05
-4.2072e-06
-4.93246e-05
1.25866e-05
-5.04333e-05
2.97325e-05
-5.13922e-05
4.7007e-05
-5.17812e-05
6.42137e-05
-5.15808e-05
8.11688e-05
-5.07873e-05
9.76061e-05
-4.93028e-05
0.000113371
-4.72424e-05
0.000128189
-4.44079e-05
0.000141854
-4.09411e-05
0.000154093
-3.66684e-05
0.000164647
-3.16313e-05
0.000173283
-2.58878e-05
0.000179823
-1.95995e-05
0.000184149
-1.29252e-05
0.000186087
-5.88848e-06
0.000185652
1.28713e-06
0.000182782
8.51432e-06
0.000177589
1.55872e-05
0.000170196
2.22208e-05
0.000160662
2.85073e-05
0.000149247
3.41945e-05
0.000136084
3.94493e-05
0.000121401
4.39585e-05
0.000105503
4.76477e-05
8.86147e-05
5.06772e-05
7.09475e-05
5.28464e-05
5.29079e-05
5.40592e-05
3.46986e-05
5.45852e-05
1.65913e-05
5.42433e-05
-1.22663e-06
5.34647e-05
-1.85659e-05
5.19891e-05
-3.53117e-05
5.0254e-05
-5.13983e-05
4.82183e-05
-6.66695e-05
4.57868e-05
-8.10828e-05
4.32766e-05
-9.46024e-05
4.05673e-05
-0.000107186
3.7718e-05
-0.000118801
3.48672e-05
-0.000129447
3.19008e-05
-0.000139099
2.88928e-05
-0.000147784
2.61481e-05
-0.000155512
2.31736e-05
-0.000162266
2.02697e-05
-0.000168108
1.75287e-05
-0.000173054
1.47933e-05
-0.000177169
1.24294e-05
-0.000180481
9.94573e-06
-0.000183073
7.76198e-06
-0.00018495
5.6632e-06
-0.000186195
3.72635e-06
-0.000186821
1.89443e-06
-0.000186979
4.9535e-07
-0.000186555
-1.25707e-06
-0.000185662
-2.62936e-06
-0.000184341
-4.03319e-06
-0.000182519
-5.45355e-06
-0.000180328
-6.6025e-06
-0.000177599
-8.20535e-06
-0.000174378
-9.63431e-06
-0.000170578
-1.14245e-05
-0.00016615
-1.31801e-05
-0.000161172
-1.50327e-05
-0.000155517
-1.69802e-05
-0.000149173
-1.91422e-05
-0.00014215
-2.09637e-05
-0.000134446
-2.30933e-05
-0.000126054
-2.51551e-05
-0.000116967
-2.72633e-05
-0.000107169
-2.93416e-05
-9.66581e-05
-3.14889e-05
-8.5403e-05
-3.37423e-05
-7.34175e-05
-3.59349e-05
-6.06535e-05
-3.82436e-05
-4.71438e-05
-4.0596e-05
-3.29096e-05
-4.25559e-05
-1.80339e-05
-4.45861e-05
-2.59209e-06
-4.62613e-05
1.32482e-05
-4.74509e-05
2.93334e-05
-4.82208e-05
4.54677e-05
-4.83311e-05
6.14105e-05
-4.77775e-05
7.69801e-05
-4.66503e-05
9.19063e-05
-4.47136e-05
0.000105988
-4.21721e-05
0.000119021
-3.902e-05
0.000130709
-3.50371e-05
0.000140939
-3.0642e-05
0.000149582
-2.58719e-05
0.000156388
-2.04044e-05
0.000161363
-1.49005e-05
0.000164452
-9.23273e-06
0.000165506
-3.17226e-06
0.000164589
2.75334e-06
0.000161822
8.24148e-06
0.000157214
1.38259e-05
0.000151067
1.84095e-05
0.000143244
2.34275e-05
0.000133998
2.77291e-05
0.000123362
3.18972e-05
0.000111471
3.56553e-05
9.84072e-05
3.91486e-05
8.42661e-05
4.23734e-05
6.93172e-05
4.48029e-05
5.3863e-05
4.63168e-05
3.80627e-05
4.73476e-05
2.22496e-05
4.74011e-05
6.55721e-06
4.70256e-05
-8.6728e-06
4.56628e-05
-2.33447e-05
4.39871e-05
-3.73491e-05
4.19852e-05
-5.05264e-05
3.95135e-05
-6.28204e-05
3.6878e-05
-7.42023e-05
3.41274e-05
-8.46211e-05
3.12563e-05
-9.41088e-05
2.8447e-05
-0.00010268
2.57122e-05
-0.000110315
2.29203e-05
-0.000117131
2.04507e-05
-0.00012315
1.80882e-05
-0.00012842
1.58091e-05
-0.000133051
1.3896e-05
-0.000137077
1.20918e-05
-0.000140545
1.04119e-05
-0.000143547
9.01512e-06
-0.000146108
7.68361e-06
-0.000148298
6.55775e-06
-0.000150095
5.39784e-06
-0.000151507
4.24144e-06
-0.000152525
3.04595e-06
-0.000153152
1.885e-06
-0.000153327
5.31944e-07
-0.000152996
-9.9278e-07
-0.000152074
-2.77701e-06
-0.000150547
-4.59016e-06
-0.00014838
-6.51469e-06
-0.000145404
-8.94272e-06
-0.000141644
-1.1291e-05
-0.00013711
-1.36443e-05
-0.000131537
-1.67079e-05
-0.00012501
-1.95887e-05
-0.000117443
-2.26879e-05
-0.000108899
-2.56314e-05
-9.94328e-05
-2.83986e-05
-8.88383e-05
-3.17868e-05
-7.72806e-05
-3.46605e-05
-6.48728e-05
-3.72091e-05
-5.14369e-05
-4.02898e-05
-3.71721e-05
-4.277e-05
-2.22937e-05
-4.46073e-05
-6.71551e-06
-4.67003e-05
9.30937e-06
-4.80336e-05
2.57475e-05
-4.92695e-05
4.2431e-05
-4.99987e-05
5.90334e-05
-4.97718e-05
7.55403e-05
-4.94823e-05
9.17368e-05
-4.85469e-05
0.000107359
-4.68133e-05
0.000122268
-4.46792e-05
0.000136257
-4.19319e-05
0.00014919
-3.87741e-05
0.000160897
-3.51017e-05
0.000171207
-3.0919e-05
0.000180018
-2.64257e-05
0.000187214
-2.1581e-05
0.00019268
-1.64069e-05
0.000196366
-1.1066e-05
0.000198246
-5.64364e-06
0.000198202
1.13592e-07
0.000196241
5.86593e-06
0.000192412
1.14966e-05
0.000186901
1.65187e-05
0.000179729
2.1493e-05
2.61662e-05
-0.000144802
3.91409e-05
-0.00015354
3.49461e-05
-0.000161376
3.13331e-05
-0.000168331
2.7808e-05
-0.000174422
2.43594e-05
-0.0001797
2.11141e-05
-0.000184185
1.79365e-05
-0.000187916
1.48939e-05
-0.0001909
1.19432e-05
-0.000193152
9.00605e-06
-0.000194685
6.13439e-06
-0.000195505
3.35013e-06
-0.000195618
5.20653e-07
-0.000194965
-2.54836e-06
-0.000193564
-5.63219e-06
-0.000191408
-8.61354e-06
-0.000188545
-1.14473e-05
-0.000184856
-1.47804e-05
-0.000180364
-1.79981e-05
-0.000175175
-2.0819e-05
-0.000168907
-2.50326e-05
-0.000161777
-2.85438e-05
-0.000153804
-3.19089e-05
-0.000144787
-3.60884e-05
-0.000134851
-3.97499e-05
-0.000123804
-4.42051e-05
-0.000111752
-4.82377e-05
-9.87843e-05
-5.18539e-05
-8.46602e-05
-5.64798e-05
-6.94923e-05
-6.06361e-05
-5.3498e-05
-6.39472e-05
-3.65186e-05
-6.78652e-05
-1.88268e-05
-7.07098e-05
-3.20933e-07
-7.38645e-05
1.86854e-05
-7.59192e-05
3.78918e-05
-7.67086e-05
5.7252e-05
-7.73137e-05
7.65878e-05
-7.72131e-05
9.54894e-05
-7.54753e-05
0.000113865
-7.33563e-05
0.000131369
-6.98592e-05
0.000147826
-6.56865e-05
0.000162976
-6.04641e-05
0.000176481
-5.39098e-05
0.000188179
-4.66713e-05
0.00019785
-3.85874e-05
0.000205277
-2.96328e-05
0.000210403
-2.04559e-05
0.000213129
-1.08496e-05
0.000213277
-7.139e-07
0.000211012
8.96052e-06
0.000206286
1.89511e-05
0.000199281
2.80073e-05
0.000190108
3.65664e-05
0.000178865
4.4855e-05
0.000165832
5.2006e-05
0.000151196
5.8405e-05
0.0001352
6.38335e-05
0.000118109
6.81999e-05
0.000100144
7.17868e-05
8.15305e-05
7.43081e-05
6.25138e-05
7.59343e-05
4.33878e-05
7.63859e-05
2.43073e-05
7.62249e-05
5.46351e-06
7.53368e-05
-1.29468e-05
7.34741e-05
-3.07863e-05
7.12323e-05
-4.79412e-05
6.85513e-05
-6.42558e-05
6.52142e-05
-7.97616e-05
6.19503e-05
-9.42861e-05
5.80676e-05
-0.000107852
5.42336e-05
-0.000120458
5.03947e-05
-0.000131998
4.61669e-05
-0.00014253
4.20873e-05
-0.00015202
3.79645e-05
-0.000160483
3.38785e-05
-0.000168056
3.02403e-05
-0.000174517
2.58659e-05
-0.000180054
2.20795e-05
-0.000184653
1.84141e-05
-0.000188236
1.43597e-05
-0.000190822
1.03481e-05
-0.000192494
6.67006e-06
-0.000193183
2.78881e-06
-0.000192916
-9.87413e-07
-0.000191709
-4.84224e-06
-0.000189563
-8.43015e-06
-0.000186708
-1.15175e-05
-0.000183125
-1.42674e-05
-0.000178928
-1.68096e-05
-0.000174142
-1.917e-05
-0.000168793
-2.14427e-05
-0.000162887
-2.37085e-05
-0.000156362
-2.6147e-05
-0.000149227
-2.86835e-05
-0.000141415
-3.13485e-05
-0.000132878
-3.42262e-05
-0.000123561
-3.73563e-05
-0.000113436
-4.05998e-05