/*--------------------------------*- C++ -*----------------------------------*\
| =========                 |                                                 |
| \\      /  F ield         | OpenFOAM: The Open Source CFD Toolbox           |
|  \\    /   O peration     | Version:  3.0.1                                 |
|   \\  /    A nd           | Web:      www.OpenFOAM.org                      |
|    \\/     M anipulation  |                                                 |
\*---------------------------------------------------------------------------*/
FoamFile
{
    version     2.0;
    format      ascii;
    class       volVectorField;
    location    "15.6";
    object      U;
}
// * * * * * * * * * * * * * * * * * * * * * * * * * * * * * * * * * * * * * //

dimensions      [0 1 -1 0 0 0 0];

internalField   nonuniform List<vector> 
21420
(
(-0.179379 -0.0001755 0)
(-0.177563 -0.000248002 0)
(-0.174697 -0.000320846 0)
(-0.171085 -0.000395348 0)
(-0.166702 -0.000473726 0)
(-0.161526 -0.000553034 0)
(-0.155529 -0.000637874 0)
(-0.148681 -0.000722666 0)
(-0.14095 -0.000809984 0)
(-0.132305 -0.000906016 0)
(-0.122721 -0.000997936 0)
(-0.112172 -0.00109067 0)
(-0.10064 -0.00119592 0)
(-0.0881226 -0.00128873 0)
(-0.0746223 -0.00139573 0)
(-0.0601623 -0.00148267 0)
(-0.0448023 -0.00156239 0)
(-0.0286026 -0.00165856 0)
(-0.011565 -0.00172466 0)
(0.00622449 -0.0017806 0)
(0.0245612 -0.00184747 0)
(0.0432801 -0.00186575 0)
(0.0622042 -0.00186234 0)
(0.0811357 -0.00187518 0)
(0.0998541 -0.00182894 0)
(0.118115 -0.00179122 0)
(0.135669 -0.00169693 0)
(0.152244 -0.00157686 0)
(0.16757 -0.00145342 0)
(0.181399 -0.00128691 0)
(0.193491 -0.00109983 0)
(0.203619 -0.00089967 0)
(0.211599 -0.000676805 0)
(0.217269 -0.000441912 0)
(0.2205 -0.000201993 0)
(0.221298 4.48918e-05 0)
(0.219672 0.000286205 0)
(0.215452 0.000533445 0)
(0.208907 0.000773742 0)
(0.20008 0.000978416 0)
(0.189148 0.00118657 0)
(0.176305 0.00134741 0)
(0.161787 0.00150928 0)
(0.145811 0.00165435 0)
(0.128638 0.00174013 0)
(0.110573 0.00182738 0)
(0.0918477 0.00189036 0)
(0.0727275 0.00190139 0)
(0.0534664 0.001913 0)
(0.0342841 0.00190193 0)
(0.0154213 0.00185636 0)
(-0.0032172 0.00180376 0)
(-0.021299 0.00172623 0)
(-0.0384324 0.00165234 0)
(-0.0547207 0.001567 0)
(-0.0700823 0.00146929 0)
(-0.0844729 0.0013738 0)
(-0.0978548 0.00127358 0)
(-0.110206 0.00117003 0)
(-0.121524 0.00106942 0)
(-0.131817 0.000968041 0)
(-0.141106 0.000871661 0)
(-0.149401 0.000775076 0)
(-0.156722 0.000681693 0)
(-0.163123 0.000592176 0)
(-0.168583 0.000499762 0)
(-0.173123 0.000413302 0)
(-0.176789 0.000330145 0)
(-0.179646 0.000245576 0)
(-0.181587 0.000173041 0)
(-0.182609 8.7431e-05 0)
(-0.18309 1.3737e-05 0)
(-0.182883 -4.3263e-05 0)
(-0.181816 -0.000116548 0)
(-0.18015 -0.000219956 0)
(-0.177644 -0.000269432 0)
(-0.174259 -0.000365462 0)
(-0.170376 -0.000423019 0)
(-0.165999 -0.000498782 0)
(-0.160347 -0.000616245 0)
(-0.153931 -0.0006762 0)
(-0.146926 -0.000753754 0)
(-0.13893 -0.000858409 0)
(-0.129921 -0.000947104 0)
(-0.120089 -0.00103653 0)
(-0.109292 -0.00113311 0)
(-0.097548 -0.00122964 0)
(-0.0846788 -0.00132013 0)
(-0.0708661 -0.00140453 0)
(-0.0562469 -0.00148226 0)
(-0.0408029 -0.0015694 0)
(-0.0243822 -0.00164717 0)
(-0.00692416 -0.00169692 0)
(0.0113255 -0.00176838 0)
(0.029776 -0.0017926 0)
(0.0481439 -0.00181116 0)
(0.0666987 -0.00182949 0)
(0.0851458 -0.00179969 0)
(0.102957 -0.00174628 0)
(0.120281 -0.00170493 0)
(0.136606 -0.00159911 0)
(0.151992 -0.00148337 0)
(0.165248 -0.00136842 0)
(0.177571 -0.00123297 0)
(0.189831 -0.00104737 0)
(0.199506 -0.000857925 0)
(0.207035 -0.000650749 0)
(0.212504 -0.000437406 0)
(0.215604 -0.000197635 0)
(0.21653 2.59946e-05 0)
(0.215446 0.000253408 0)
(0.211654 0.000484047 0)
(0.20563 0.000709288 0)
(0.197623 0.000918604 0)
(0.18759 0.00111112 0)
(0.175762 0.0012825 0)
(0.162153 0.00143829 0)
(0.147038 0.00157258 0)
(0.130676 0.00168495 0)
(0.113266 0.00177261 0)
(0.0950714 0.00183441 0)
(0.07635 0.0018718 0)
(0.0573676 0.00188465 0)
(0.0383622 0.00187554 0)
(0.0195025 0.00184131 0)
(0.000572742 0.00179191 0)
(-0.0178594 0.00173125 0)
(-0.0351979 0.00165799 0)
(-0.0516473 0.00157324 0)
(-0.0671532 0.00148025 0)
(-0.0816573 0.00137982 0)
(-0.0951342 0.00127783 0)
(-0.10756 0.00117604 0)
(-0.118924 0.00107432 0)
(-0.129256 0.000974506 0)
(-0.13856 0.000874235 0)
(-0.146853 0.000777438 0)
(-0.154191 0.000686064 0)
(-0.160581 0.000595539 0)
(-0.166113 0.000511356 0)
(-0.170717 0.000422428 0)
(-0.174426 0.000343109 0)
(-0.177515 0.000266835 0)
(-0.179585 0.000187994 0)
(-0.180571 0.000114662 0)
(-0.181214 7.20816e-05 0)
(-0.181252 -1.31975e-05 0)
(-0.18039 -0.000103637 0)
(-0.179618 -0.000128562 0)
(-0.177667 -0.000237849 0)
(-0.175143 -0.000258891 0)
(-0.172404 -0.000330783 0)
(-0.16858 -0.000451846 0)
(-0.163995 -0.000491695 0)
(-0.158947 -0.000573632 0)
(-0.152708 -0.000688717 0)
(-0.145523 -0.000768831 0)
(-0.137425 -0.000883377 0)
(-0.128116 -0.000984228 0)
(-0.117882 -0.00108288 0)
(-0.10663 -0.00118955 0)
(-0.0940893 -0.00128887 0)
(-0.0804538 -0.00139348 0)
(-0.0657516 -0.0014964 0)
(-0.0501896 -0.00157686 0)
(-0.0339292 -0.00166322 0)
(-0.0166521 -0.00173415 0)
(0.00172438 -0.00177039 0)
(0.0204783 -0.00180678 0)
(0.0392292 -0.0018445 0)
(0.0580002 -0.00182682 0)
(0.0763271 -0.00179579 0)
(0.0943803 -0.0017701 0)
(0.111818 -0.00168691 0)
(0.128359 -0.00161245 0)
(0.143739 -0.00149823 0)
(0.158021 -0.00137762 0)
(0.170457 -0.00126141 0)
(0.181609 -0.00110639 0)
(0.192283 -0.000929195 0)
(0.200982 -0.000763179 0)
(0.207492 -0.00055862 0)
(0.211903 -0.000349021 0)
(0.214459 -0.000136054 0)
(0.214916 6.58453e-05 0)
(0.213263 0.000279567 0)
(0.209154 0.000512446 0)
(0.203121 0.000720229 0)
(0.195089 0.000924856 0)
(0.184953 0.00112039 0)
(0.172989 0.00129468 0)
(0.159248 0.00145575 0)
(0.143916 0.00159811 0)
(0.127193 0.00171839 0)
(0.109278 0.00181418 0)
(0.0905135 0.00188363 0)
(0.0711001 0.00192254 0)
(0.0514434 0.00194573 0)
(0.0317646 0.00194448 0)
(0.0120454 0.00192057 0)
(-0.00759165 0.00186516 0)
(-0.0265477 0.00179822 0)
(-0.0444547 0.00171365 0)
(-0.0613521 0.0016131 0)
(-0.0771643 0.001506 0)
(-0.0917987 0.00138581 0)
(-0.105202 0.00126654 0)
(-0.117367 0.00114215 0)
(-0.128268 0.00101955 0)
(-0.137933 0.000901795 0)
(-0.146411 0.000786397 0)
(-0.153727 0.000675048 0)
(-0.159984 0.000572784 0)
(-0.16519 0.000471637 0)
(-0.16942 0.000382183 0)
(-0.172768 0.000300574 0)
(-0.175255 0.000207792 0)
(-0.176903 0.000128756 0)
(-0.177689 6.37712e-05 0)
(-0.177103 -9.90824e-06 0)
(-0.17715 -4.5595e-05 0)
(-0.17633 -0.000110841 0)
(-0.174193 -0.000177981 0)
(-0.17263 -0.000209831 0)
(-0.170179 -0.000263144 0)
(-0.167164 -0.000358634 0)
(-0.16379 -0.000376055 0)
(-0.159358 -0.000472604 0)
(-0.154481 -0.000500655 0)
(-0.149622 -0.000567981 0)
(-0.14357 -0.000657948 0)
(-0.136579 -0.00072885 0)
(-0.12913 -0.000799126 0)
(-0.120734 -0.000900405 0)
(-0.111273 -0.000996683 0)
(-0.10094 -0.00109453 0)
(-0.0893865 -0.00119406 0)
(-0.0768326 -0.00129302 0)
(-0.0633155 -0.0013937 0)
(-0.0486982 -0.00148965 0)
(-0.0331902 -0.00156187 0)
(-0.016991 -0.0016531 0)
(0.000916798 -0.00175516 0)
(0.0195524 -0.00178049 0)
(0.0380922 -0.00184072 0)
(0.0569932 -0.00184886 0)
(0.0756984 -0.00184678 0)
(0.0943352 -0.00184631 0)
(0.112627 -0.00178163 0)
(0.129818 -0.00170396 0)
(0.146189 -0.00160188 0)
(0.160326 -0.00149586 0)
(0.174151 -0.00135643 0)
(0.187924 -0.00114576 0)
(0.198626 -0.00096747 0)
(0.207036 -0.000752769 0)
(0.213503 -0.000507419 0)
(0.21744 -0.000274164 0)
(0.218869 -2.53138e-05 0)
(0.2181 0.000219524 0)
(0.214766 0.000463791 0)
(0.20886 0.000704649 0)
(0.200619 0.000930025 0)
(0.190336 0.00113764 0)
(0.178036 0.00132438 0)
(0.163998 0.00147482 0)
(0.148394 0.00160879 0)
(0.131522 0.0017175 0)
(0.113712 0.00179809 0)
(0.0952208 0.00185141 0)
(0.0763423 0.0018775 0)
(0.0573276 0.00187821 0)
(0.0384789 0.00185719 0)
(0.0199676 0.00181383 0)
(0.00143187 0.00175166 0)
(-0.0165094 0.0016801 0)
(-0.0331983 0.00159533 0)
(-0.0489363 0.00150288 0)
(-0.0636601 0.00140331 0)
(-0.0773434 0.00130256 0)
(-0.0899615 0.00119856 0)
(-0.101526 0.00109473 0)
(-0.112045 0.000993139 0)
(-0.121537 0.000893309 0)
(-0.130021 0.000795364 0)
(-0.137544 0.000701668 0)
(-0.144114 0.000608498 0)
(-0.149759 0.00051912 0)
(-0.154537 0.000434921 0)
(-0.158467 0.000353162 0)
(-0.161602 0.000277008 0)
(-0.163954 0.000194932 0)
(-0.165516 0.000119967 0)
(-0.166318 5.41476e-05 0)
(-0.166507 -1.67442e-05 0)
(-0.166066 -8.13752e-05 0)
(-0.164847 -0.000142826 0)
(-0.163038 -0.000210408 0)
(-0.160634 -0.000267768 0)
(-0.157614 -0.00033153 0)
(-0.153901 -0.000397009 0)
(-0.149592 -0.000452601 0)
(-0.144728 -0.000518092 0)
(-0.139125 -0.00059094 0)
(-0.132874 -0.000647423 0)
(-0.125991 -0.000712523 0)
(-0.118414 -0.000788729 0)
(-0.110175 -0.000849408 0)
(-0.101227 -0.000930515 0)
(-0.0915834 -0.000994528 0)
(-0.0813039 -0.00105807 0)
(-0.0702917 -0.00113588 0)
(-0.0585866 -0.00119654 0)
(-0.0463179 -0.00125078 0)
(-0.0334124 -0.00132251 0)
(-0.019943 -0.00136808 0)
(-0.00565798 -0.00143926 0)
(0.00927882 -0.00147275 0)
(0.0243555 -0.00149466 0)
(0.039629 -0.00153086 0)
(0.055053 -0.00153395 0)
(0.0704858 -0.00152009 0)
(0.08579 -0.00151447 0)
(0.100818 -0.00147079 0)
(0.115398 -0.00142911 0)
(0.12936 -0.00135196 0)
(0.142515 -0.00125714 0)
(0.15468 -0.00115801 0)
(0.165692 -0.00103156 0)
(0.17539 -0.000891466 0)
(0.18363 -0.000743256 0)
(0.190292 -0.000581012 0)
(0.19529 -0.000411427 0)
(0.198538 -0.000235849 0)
(0.199972 -5.97959e-05 0)
(0.199673 0.000112152 0)
(0.197592 0.000289437 0)
(0.193767 0.000462089 0)
(0.188298 0.000619288 0)
(0.181259 0.000771949 0)
(0.172767 0.000914687 0)
(0.162966 0.00102872 0)
(0.152016 0.00114003 0)
(0.140091 0.00121698 0)
(0.127378 0.00129269 0)
(0.114056 0.00135133 0)
(0.100311 0.00137149 0)
(0.086324 0.00139401 0)
(0.0722624 0.00140003 0)
(0.0582836 0.00137234 0)
(0.0445251 0.00134911 0)
(0.0310963 0.00129724 0)
(0.0178977 0.00125087 0)
(0.00534537 0.00118884 0)
(-0.00615451 0.00112024 0)
(-0.0168862 0.00104954 0)
(-0.0285382 0.00097315 0)
(-0.179408 -0.00052635 0)
(-0.177592 -0.000743944 0)
(-0.174727 -0.000962441 0)
(-0.171115 -0.0011859 0)
(-0.166734 -0.00142103 0)
(-0.161559 -0.00165897 0)
(-0.155563 -0.00191351 0)
(-0.148717 -0.0021679 0)
(-0.140986 -0.00242981 0)
(-0.132343 -0.00271792 0)
(-0.12276 -0.00299371 0)
(-0.112211 -0.00327198 0)
(-0.100681 -0.00358772 0)
(-0.0881628 -0.00386623 0)
(-0.0746624 -0.00418729 0)
(-0.0602007 -0.00444819 0)
(-0.044838 -0.00468758 0)
(-0.0286366 -0.00497653 0)
(-0.0115964 -0.00517416 0)
(0.00619907 -0.00534172 0)
(0.0245429 -0.00554292 0)
(0.0432689 -0.00559789 0)
(0.0622006 -0.00558794 0)
(0.0811408 -0.00562648 0)
(0.0998682 -0.00548782 0)
(0.11814 -0.00537482 0)
(0.135704 -0.00509192 0)
(0.152289 -0.00473167 0)
(0.167626 -0.00436141 0)
(0.181464 -0.00386196 0)
(0.193564 -0.00330085 0)
(0.203701 -0.00270073 0)
(0.211687 -0.00203258 0)
(0.21736 -0.00133087 0)
(0.220611 -0.00059895 0)
(0.221405 0.000135544 0)
(0.219762 0.000859589 0)
(0.215549 0.00159993 0)
(0.209004 0.00232138 0)
(0.20017 0.0029357 0)
(0.189233 0.00356038 0)
(0.176382 0.00404291 0)
(0.161856 0.00452873 0)
(0.145872 0.004964 0)
(0.128689 0.00522149 0)
(0.110615 0.00548333 0)
(0.0918793 0.00567237 0)
(0.07275 0.00570552 0)
(0.0534804 0.00574047 0)
(0.0342905 0.00570737 0)
(0.01542 0.00557057 0)
(-0.00322593 0.00541039 0)
(-0.0213116 0.00517953 0)
(-0.0384499 0.00495788 0)
(-0.0547426 0.00470192 0)
(-0.0701068 0.00440857 0)
(-0.0845007 0.00412143 0)
(-0.0978838 0.00382163 0)
(-0.110238 0.00351046 0)
(-0.121559 0.00320878 0)
(-0.131851 0.00290518 0)
(-0.141143 0.00261435 0)
(-0.149439 0.00232523 0)
(-0.156762 0.00204522 0)
(-0.163165 0.00177661 0)
(-0.168627 0.00149961 0)
(-0.173167 0.0012393 0)
(-0.176839 0.000992174 0)
(-0.179695 0.000735032 0)
(-0.181637 0.000522392 0)
(-0.182669 0.000264865 0)
(-0.183152 4.44581e-05 0)
(-0.182942 -0.000127875 0)
(-0.181882 -0.000348656 0)
(-0.180219 -0.000658361 0)
(-0.177711 -0.000805826 0)
(-0.174335 -0.00109842 0)
(-0.170457 -0.00126994 0)
(-0.166082 -0.00149337 0)
(-0.160432 -0.00184931 0)
(-0.154017 -0.0020271 0)
(-0.147014 -0.00225773 0)
(-0.139021 -0.00258146 0)
(-0.130015 -0.00284018 0)
(-0.120184 -0.00311 0)
(-0.109385 -0.00340226 0)
(-0.0976336 -0.00368235 0)
(-0.084787 -0.00396856 0)
(-0.070934 -0.00421749 0)
(-0.0563201 -0.00446544 0)
(-0.0408658 -0.00470548 0)
(-0.024441 -0.00494146 0)
(-0.00697998 -0.00508392 0)
(0.0112736 -0.00530078 0)
(0.0297407 -0.00537255 0)
(0.0481186 -0.00543078 0)
(0.0666781 -0.00549791 0)
(0.0851619 -0.00539095 0)
(0.102964 -0.00525358 0)
(0.120328 -0.00510698 0)
(0.136648 -0.00481257 0)
(0.152064 -0.00445168 0)
(0.165331 -0.00410323 0)
(0.177656 -0.00371058 0)
(0.189928 -0.00315844 0)
(0.199643 -0.00256904 0)
(0.207173 -0.00194758 0)
(0.212647 -0.00131246 0)
(0.215757 -0.000588875 0)
(0.216682 7.64796e-05 0)
(0.215594 0.000759134 0)
(0.211808 0.00145114 0)
(0.205786 0.0021282 0)
(0.197773 0.00275666 0)
(0.187732 0.00333514 0)
(0.175894 0.00384844 0)
(0.162277 0.00431609 0)
(0.147151 0.00471929 0)
(0.130777 0.00505655 0)
(0.113353 0.0053196 0)
(0.0951453 0.00550495 0)
(0.0764111 0.00561717 0)
(0.0574161 0.00565577 0)
(0.0383965 0.00562863 0)
(0.0195267 0.00552875 0)
(0.000584124 0.00537803 0)
(-0.0178582 0.00519666 0)
(-0.0352006 0.00497593 0)
(-0.0516614 0.00471781 0)
(-0.0671704 0.00444118 0)
(-0.0816843 0.00414093 0)
(-0.0951663 0.00383756 0)
(-0.107592 0.00353093 0)
(-0.118962 0.0032222 0)
(-0.129296 0.00292434 0)
(-0.138604 0.002622 0)
(-0.146898 0.00233338 0)
(-0.154239 0.00205792 0)
(-0.160631 0.00178707 0)
(-0.166165 0.00153437 0)
(-0.170772 0.00126764 0)
(-0.17448 0.0010302 0)
(-0.177575 0.000800409 0)
(-0.179644 0.000566909 0)
(-0.180634 0.000344941 0)
(-0.181277 0.000217831 0)
(-0.181319 -3.69086e-05 0)
(-0.180455 -0.000309399 0)
(-0.179686 -0.00038628 0)
(-0.177743 -0.000712066 0)
(-0.175217 -0.000774376 0)
(-0.172487 -0.000993998 0)
(-0.168666 -0.00135447 0)
(-0.164082 -0.001475 0)
(-0.159039 -0.00172061 0)
(-0.152802 -0.00206612 0)
(-0.14562 -0.00230643 0)
(-0.137523 -0.00265038 0)
(-0.128215 -0.00295307 0)
(-0.117981 -0.00324907 0)
(-0.106726 -0.00356985 0)
(-0.0941904 -0.00387071 0)
(-0.0805483 -0.00417562 0)
(-0.0658306 -0.00448723 0)
(-0.0502601 -0.00472366 0)
(-0.0339932 -0.00497679 0)
(-0.0167227 -0.00520312 0)
(0.00168387 -0.00530856 0)
(0.020445 -0.00541981 0)
(0.0391998 -0.00553396 0)
(0.0579952 -0.00547138 0)
(0.0763175 -0.00539571 0)
(0.0943967 -0.00531125 0)
(0.11185 -0.0050674 0)
(0.128412 -0.00483099 0)
(0.143783 -0.00450708 0)
(0.158101 -0.00413414 0)
(0.170534 -0.00379343 0)
(0.181697 -0.00333258 0)
(0.192397 -0.0027791 0)
(0.201104 -0.00228676 0)
(0.207627 -0.00167526 0)
(0.212043 -0.00103983 0)
(0.214602 -0.000411148 0)
(0.215065 0.000190586 0)
(0.213408 0.000837111 0)
(0.209308 0.00153711 0)
(0.203273 0.00216113 0)
(0.195239 0.00277535 0)
(0.185096 0.00336282 0)
(0.173124 0.00388464 0)
(0.159375 0.00436837 0)
(0.144033 0.0047958 0)
(0.127298 0.0051567 0)
(0.10937 0.00544415 0)
(0.0905901 0.00565437 0)
(0.0711609 0.00576973 0)
(0.051492 0.00583749 0)
(0.0318008 0.00583537 0)
(0.0120653 0.00576088 0)
(-0.00758312 0.00559879 0)
(-0.0265519 0.00539412 0)
(-0.0444688 0.00514179 0)
(-0.0613731 0.00483955 0)
(-0.0771956 0.00451721 0)
(-0.0918335 0.00415998 0)
(-0.105244 0.00380137 0)
(-0.117415 0.00342945 0)
(-0.128313 0.00306103 0)
(-0.137983 0.0027044 0)
(-0.146463 0.00236091 0)
(-0.153782 0.00202585 0)
(-0.160037 0.00172033 0)
(-0.165245 0.00141474 0)
(-0.169474 0.00114657 0)
(-0.172822 0.000902207 0)
(-0.175313 0.000625768 0)
(-0.176965 0.000387356 0)
(-0.177745 0.000193375 0)
(-0.17716 -2.82696e-05 0)
(-0.177207 -0.000136011 0)
(-0.176391 -0.000332484 0)
(-0.174259 -0.000532106 0)
(-0.172695 -0.000628218 0)
(-0.170248 -0.000788473 0)
(-0.167235 -0.00107554 0)
(-0.163861 -0.00112757 0)
(-0.159433 -0.00141606 0)
(-0.154562 -0.00150313 0)
(-0.149706 -0.00170304 0)
(-0.143656 -0.0019771 0)
(-0.13667 -0.00218509 0)
(-0.129224 -0.00239716 0)
(-0.12083 -0.00270106 0)
(-0.111369 -0.00299081 0)
(-0.101035 -0.00328219 0)
(-0.0894888 -0.00358526 0)
(-0.0769171 -0.0038705 0)
(-0.0634052 -0.00418789 0)
(-0.0487647 -0.00446443 0)
(-0.0332551 -0.00468544 0)
(-0.0170594 -0.00495527 0)
(0.000854759 -0.00526115 0)
(0.0195054 -0.0053372 0)
(0.0380509 -0.00552162 0)
(0.0569783 -0.00554037 0)
(0.0756852 -0.00554851 0)
(0.0943462 -0.00553698 0)
(0.112659 -0.00534868 0)
(0.12986 -0.00511266 0)
(0.146253 -0.00480761 0)
(0.160388 -0.00450708 0)
(0.174238 -0.00407576 0)
(0.188039 -0.00343171 0)
(0.19876 -0.0028952 0)
(0.207163 -0.0022716 0)
(0.213661 -0.00152298 0)
(0.217599 -0.000823419 0)
(0.219039 -6.98882e-05 0)
(0.218253 0.000659531 0)
(0.214925 0.0013906 0)
(0.209021 0.00211369 0)
(0.200774 0.00279093 0)
(0.190483 0.00341411 0)
(0.17817 0.00397499 0)
(0.164119 0.004426 0)
(0.148503 0.00482789 0)
(0.131618 0.00515433 0)
(0.113793 0.00539617 0)
(0.0952883 0.00555597 0)
(0.0763962 0.00563444 0)
(0.0573661 0.00563708 0)
(0.0385044 0.00557459 0)
(0.0199811 0.00544398 0)
(0.00143654 0.00525498 0)
(-0.0165118 0.00504176 0)
(-0.0332114 0.00478749 0)
(-0.0489576 0.00451232 0)
(-0.0636833 0.00421291 0)
(-0.0773729 0.00390715 0)
(-0.0899944 0.00359652 0)
(-0.101561 0.00328373 0)
(-0.112081 0.00298062 0)
(-0.121577 0.00267888 0)
(-0.130061 0.00238604 0)
(-0.137585 0.00210467 0)
(-0.144155 0.0018243 0)
(-0.1498 0.00155709 0)
(-0.15458 0.0013058 0)
(-0.158512 0.00105891 0)
(-0.161644 0.000832631 0)
(-0.163998 0.000585389 0)
(-0.16556 0.000360117 0)
(-0.166361 0.000163615 0)
(-0.166546 -4.95488e-05 0)
(-0.166106 -0.000244398 0)
(-0.164887 -0.000429703 0)
(-0.163077 -0.000631971 0)
(-0.160673 -0.000801891 0)
(-0.157653 -0.000994519 0)
(-0.15394 -0.00119051 0)
(-0.149632 -0.0013577 0)
(-0.144767 -0.00155374 0)
(-0.139163 -0.00177184 0)
(-0.132912 -0.00194222 0)
(-0.12603 -0.00213724 0)
(-0.118452 -0.00236628 0)
(-0.110214 -0.00254923 0)
(-0.101267 -0.00279157 0)
(-0.0916224 -0.00298372 0)
(-0.0813419 -0.00317441 0)
(-0.0703293 -0.00340804 0)
(-0.0586227 -0.00358994 0)
(-0.0463519 -0.00375291 0)
(-0.0334444 -0.00396837 0)
(-0.0199742 -0.00410555 0)
(-0.00568598 -0.00431678 0)
(0.00925651 -0.00441766 0)
(0.0243373 -0.00448401 0)
(0.0396158 -0.0045929 0)
(0.0550455 -0.00460217 0)
(0.0704845 -0.00456071 0)
(0.0857961 -0.00454403 0)
(0.100831 -0.00441303 0)
(0.11542 -0.00428821 0)
(0.129388 -0.00405677 0)
(0.14255 -0.00377225 0)
(0.154723 -0.00347481 0)
(0.165741 -0.00309536 0)
(0.175445 -0.00267484 0)
(0.18369 -0.00223105 0)
(0.190357 -0.00174336 0)
(0.195357 -0.00123413 0)
(0.198608 -0.000706855 0)
(0.200044 -0.000179735 0)
(0.199744 0.00033601 0)
(0.197658 0.000868474 0)
(0.193834 0.00138644 0)
(0.18836 0.00185817 0)
(0.181317 0.00231627 0)
(0.172821 0.00274457 0)
(0.163012 0.00308674 0)
(0.152056 0.00342074 0)
(0.140124 0.00365157 0)
(0.127404 0.00387873 0)
(0.114075 0.00405475 0)
(0.100322 0.00411519 0)
(0.0863283 0.0041827 0)
(0.0722603 0.00420072 0)
(0.0582758 0.00411757 0)
(0.044512 0.00404785 0)
(0.031079 0.00389218 0)
(0.017875 0.00375284 0)
(0.00532063 0.00356715 0)
(-0.00618074 0.00336075 0)
(-0.016916 0.00314872 0)
(-0.0285702 0.00291958 0)
(-0.179464 -0.000876963 0)
(-0.177649 -0.00123969 0)
(-0.174785 -0.00160378 0)
(-0.171175 -0.00197613 0)
(-0.166797 -0.00236795 0)
(-0.161623 -0.00276461 0)
(-0.15563 -0.0031888 0)
(-0.148786 -0.00361285 0)
(-0.141058 -0.00404925 0)
(-0.132418 -0.00452951 0)
(-0.122836 -0.00498925 0)
(-0.112288 -0.00545318 0)
(-0.100759 -0.00597952 0)
(-0.0882398 -0.00644389 0)
(-0.0747387 -0.00697922 0)
(-0.0602731 -0.00741438 0)
(-0.0449048 -0.00781397 0)
(-0.0286992 -0.00829679 0)
(-0.0116533 -0.00862448 0)
(0.00615442 -0.00890318 0)
(0.0245129 -0.00923996 0)
(0.0432532 -0.00933217 0)
(0.0622002 -0.00931612 0)
(0.0811586 -0.00938056 0)
(0.0999044 -0.00914958 0)
(0.118198 -0.00896151 0)
(0.135782 -0.00849001 0)
(0.152386 -0.00788948 0)
(0.167746 -0.00727231 0)
(0.181602 -0.0064395 0)
(0.193718 -0.00550373 0)
(0.203871 -0.00450292 0)
(0.211868 -0.0033881 0)
(0.217552 -0.0022198 0)
(0.220811 -0.000999885 0)
(0.221609 0.000222723 0)
(0.219938 0.00143534 0)
(0.215735 0.00266663 0)
(0.209182 0.00387057 0)
(0.200335 0.00489513 0)
(0.189382 0.00593696 0)
(0.176512 0.00674111 0)
(0.161968 0.00755136 0)
(0.145964 0.00827651 0)
(0.12876 0.00870599 0)
(0.110665 0.00914249 0)
(0.0919097 0.00945758 0)
(0.0727616 0.00951278 0)
(0.0534743 0.00957119 0)
(0.0342692 0.00951619 0)
(0.0153834 0.00928662 0)
(-0.00327634 0.00901628 0)
(-0.0213693 0.0086333 0)
(-0.0385144 0.00826432 0)
(-0.0548135 0.00783732 0)
(-0.0701814 0.00734806 0)
(-0.0845774 0.00686913 0)
(-0.0979638 0.00636815 0)
(-0.110315 0.00585143 0)
(-0.121637 0.00534851 0)
(-0.131928 0.00484112 0)
(-0.141218 0.00435719 0)
(-0.149512 0.00387501 0)
(-0.156833 0.00340773 0)
(-0.163236 0.0029612 0)
(-0.168696 0.00249772 0)
(-0.173232 0.00206608 0)
(-0.176908 0.00165237 0)
(-0.179756 0.00122459 0)
(-0.181698 0.000870645 0)
(-0.182737 0.000443695 0)
(-0.183209 8.31548e-05 0)
(-0.182996 -0.000211714 0)
(-0.18194 -0.000580552 0)
(-0.180278 -0.00109549 0)
(-0.177763 -0.0013398 0)
(-0.174396 -0.0018336 0)
(-0.170521 -0.00211761 0)
(-0.166148 -0.00248647 0)
(-0.160498 -0.00308412 0)
(-0.15408 -0.00337224 0)
(-0.147083 -0.00375931 0)
(-0.139089 -0.00430967 0)
(-0.130087 -0.00473411 0)
(-0.120259 -0.00518346 0)
(-0.109456 -0.00567119 0)
(-0.0977082 -0.00613883 0)
(-0.0848624 -0.00660412 0)
(-0.0709897 -0.0070573 0)
(-0.0563583 -0.00745376 0)
(-0.040902 -0.00784451 0)
(-0.0244795 -0.00823722 0)
(-0.00701634 -0.00846992 0)
(0.0112445 -0.00883359 0)
(0.029726 -0.00896532 0)
(0.0481266 -0.00904848 0)
(0.0666941 -0.00915618 0)
(0.0851844 -0.00899329 0)
(0.103016 -0.0087495 0)
(0.120378 -0.0085307 0)
(0.136737 -0.00801762 0)
(0.152151 -0.00744147 0)
(0.165439 -0.00685601 0)
(0.17776 -0.00617535 0)
(0.190081 -0.00526759 0)
(0.199816 -0.0042809 0)
(0.207341 -0.00324703 0)
(0.212827 -0.00218749 0)
(0.215944 -0.000988786 0)
(0.216864 0.000129572 0)
(0.215758 0.0012698 0)
(0.211983 0.00241813 0)
(0.205961 0.00354811 0)
(0.197935 0.00459644 0)
(0.18788 0.00556153 0)
(0.176026 0.00641779 0)
(0.162394 0.00719611 0)
(0.147251 0.00786864 0)
(0.130858 0.00843093 0)
(0.113414 0.00886937 0)
(0.0951867 0.0091781 0)
(0.0764341 0.00936527 0)
(0.0574219 0.00942975 0)
(0.03838 0.00938291 0)
(0.0194922 0.00921308 0)
(0.000543605 0.00896082 0)
(-0.0179093 0.0086636 0)
(-0.0352628 0.00829185 0)
(-0.0517296 0.00786111 0)
(-0.0672493 0.00739654 0)
(-0.0817597 0.0069029 0)
(-0.095246 0.00639686 0)
(-0.107673 0.00588558 0)
(-0.119039 0.00536816 0)
(-0.129377 0.00487148 0)
(-0.138679 0.00436945 0)
(-0.146972 0.00388659 0)
(-0.15431 0.00342742 0)
(-0.160699 0.00297714 0)
(-0.166235 0.00255642 0)
(-0.170839 0.00211266 0)
(-0.174544 0.00171665 0)
(-0.177641 0.0013385 0)
(-0.179707 0.000945645 0)
(-0.180686 0.000576536 0)
(-0.181332 0.000364071 0)
(-0.181376 -5.76386e-05 0)
(-0.180502 -0.000514254 0)
(-0.179734 -0.00064633 0)
(-0.177798 -0.00118503 0)
(-0.175265 -0.00128759 0)
(-0.172549 -0.00165933 0)
(-0.16873 -0.00225607 0)
(-0.164144 -0.00245847 0)
(-0.15911 -0.00286714 0)
(-0.152872 -0.00344326 0)
(-0.145697 -0.00384343 0)
(-0.137601 -0.00441712 0)
(-0.128296 -0.00492165 0)
(-0.118063 -0.0054152 0)
(-0.106802 -0.0059511 0)
(-0.0942789 -0.00645361 0)
(-0.0806249 -0.00697307 0)
(-0.0658747 -0.00748181 0)
(-0.0503007 -0.00787709 0)
(-0.0340364 -0.00830146 0)
(-0.0167509 -0.00866117 0)
(0.00166402 -0.00884671 0)
(0.0204251 -0.00903628 0)
(0.0391985 -0.00923027 0)
(0.0580139 -0.00912773 0)
(0.0763607 -0.00898173 0)
(0.0944393 -0.00885634 0)
(0.111911 -0.00844877 0)
(0.128483 -0.0080688 0)
(0.143881 -0.0075107 0)
(0.158205 -0.00689593 0)
(0.170652 -0.00633349 0)
(0.181804 -0.00555883 0)
(0.192533 -0.0046321 0)
(0.201261 -0.00380919 0)
(0.207797 -0.00279521 0)
(0.212203 -0.00175148 0)
(0.214768 -0.000688863 0)
(0.215243 0.000329029 0)
(0.213568 0.00139688 0)
(0.209482 0.00256171 0)
(0.20344 0.00360288 0)
(0.195399 0.00462723 0)
(0.185246 0.00560739 0)
(0.173261 0.00647755 0)
(0.159498 0.00728302 0)
(0.14414 0.0079959 0)
(0.127386 0.00859756 0)
(0.109439 0.00907709 0)
(0.0906383 0.00942856 0)
(0.0711875 0.00962018 0)
(0.0515025 0.00973328 0)
(0.0317881 0.00972374 0)
(0.0120397 0.009603 0)
(-0.00763303 0.00932789 0)
(-0.0266077 0.00898975 0)
(-0.0445405 0.00856895 0)
(-0.0614565 0.00806387 0)
(-0.0772821 0.00753023 0)
(-0.0919298 0.0069304 0)
(-0.105337 0.00633762 0)
(-0.117512 0.00571681 0)
(-0.12841 0.00510077 0)
(-0.138073 0.00450412 0)
(-0.14655 0.00393256 0)
(-0.153866 0.00337854 0)
(-0.160121 0.00286821 0)
(-0.165322 0.00235902 0)
(-0.169541 0.00190971 0)
(-0.172889 0.00150363 0)
(-0.175381 0.00104455 0)
(-0.17703 0.000647962 0)
(-0.177799 0.000323419 0)
(-0.177207 -4.67008e-05 0)
(-0.17725 -0.000226536 0)
(-0.176434 -0.000553875 0)
(-0.174306 -0.000887612 0)
(-0.172737 -0.00104585 0)
(-0.170293 -0.00131306 0)
(-0.167278 -0.00179253 0)
(-0.1639 -0.0018795 0)
(-0.15948 -0.00235698 0)
(-0.154614 -0.00250704 0)
(-0.149762 -0.00283722 0)
(-0.143713 -0.00330247 0)
(-0.136735 -0.00363641 0)
(-0.129294 -0.00399463 0)
(-0.120902 -0.00450085 0)
(-0.111446 -0.00498375 0)
(-0.10111 -0.00547174 0)
(-0.0895774 -0.00597264 0)
(-0.0769866 -0.00646038 0)
(-0.063455 -0.00697618 0)
(-0.0488089 -0.00744274 0)
(-0.0333005 -0.00780913 0)
(-0.0171207 -0.00826144 0)
(0.00081247 -0.00877098 0)
(0.019485 -0.00889866 0)
(0.0380343 -0.0092045 0)
(0.0569784 -0.00923851 0)
(0.0757077 -0.00924059 0)
(0.0943727 -0.00924012 0)
(0.112718 -0.00891807 0)
(0.12993 -0.00852737 0)
(0.146348 -0.00801573 0)
(0.16048 -0.00751706 0)
(0.174344 -0.00679844 0)
(0.188197 -0.00572197 0)
(0.198934 -0.00483296 0)
(0.207351 -0.00378598 0)
(0.213843 -0.00254208 0)
(0.217796 -0.00137659 0)
(0.21925 -0.000114496 0)
(0.218429 0.00110676 0)
(0.215108 0.00231944 0)
(0.209206 0.00352127 0)
(0.200949 0.00465357 0)
(0.190642 0.00569274 0)
(0.178307 0.00662799 0)
(0.164235 0.00738176 0)
(0.148601 0.00804967 0)
(0.131694 0.00859422 0)
(0.113848 0.00899742 0)
(0.0953219 0.00926373 0)
(0.0764107 0.00939501 0)
(0.0573593 0.00939849 0)
(0.0384794 0.00929491 0)
(0.019939 0.0090736 0)
(0.00138602 0.00875918 0)
(-0.0165761 0.00839744 0)
(-0.0332783 0.00798052 0)
(-0.0490334 0.00752066 0)
(-0.0637637 0.00702313 0)
(-0.0774519 0.00651029 0)
(-0.0900785 0.00599291 0)
(-0.10164 0.00547223 0)
(-0.112164 0.00496547 0)
(-0.121652 0.00446321 0)
(-0.130136 0.00397579 0)
(-0.13766 0.00350775 0)
(-0.144227 0.00304232 0)
(-0.14987 0.00259399 0)
(-0.154647 0.00217597 0)
(-0.158573 0.00176596 0)
(-0.161708 0.00138855 0)
(-0.164063 0.000974874 0)
(-0.16562 0.000601308 0)
(-0.166421 0.000274934 0)
(-0.166597 -8.14885e-05 0)
(-0.166158 -0.000406111 0)
(-0.164938 -0.000712315 0)
(-0.163125 -0.00104807 0)
(-0.160722 -0.00133976 0)
(-0.157702 -0.00165653 0)
(-0.153989 -0.00198383 0)
(-0.149683 -0.00226276 0)
(-0.144819 -0.00258895 0)
(-0.139214 -0.00295151 0)
(-0.132964 -0.00323699 0)
(-0.126083 -0.00356154 0)
(-0.118506 -0.00394392 0)
(-0.110269 -0.00425089 0)
(-0.101324 -0.00465275 0)
(-0.0916778 -0.00497326 0)
(-0.0813959 -0.00529118 0)
(-0.0703831 -0.00568098 0)
(-0.0586739 -0.00598427 0)
(-0.0463997 -0.00625699 0)
(-0.0334891 -0.00661652 0)
(-0.0200175 -0.00684559 0)
(-0.00572388 -0.00719345 0)
(0.00922857 -0.00736228 0)
(0.0243171 -0.00747392 0)
(0.039605 -0.00765594 0)
(0.055045 -0.00767123 0)
(0.070495 -0.00760259 0)
(0.0858198 -0.00757527 0)
(0.100867 -0.00735731 0)
(0.115471 -0.00714941 0)
(0.129452 -0.00676381 0)
(0.142627 -0.00628941 0)
(0.154816 -0.00579355 0)
(0.165845 -0.00516104 0)
(0.175559 -0.00446004 0)
(0.183814 -0.00371966 0)
(0.190488 -0.00290672 0)
(0.195494 -0.00205714 0)
(0.198747 -0.00117953 0)
(0.200191 -0.0002981 0)
(0.199884 0.000559335 0)
(0.197789 0.0014488 0)
(0.193966 0.00231169 0)
(0.188484 0.0030983 0)
(0.181432 0.00386213 0)
(0.172925 0.00457624 0)
(0.163103 0.00514669 0)
(0.152133 0.00570357 0)
(0.140186 0.00608823 0)
(0.127451 0.00646695 0)
(0.114108 0.0067604 0)
(0.100341 0.00686098 0)
(0.0863338 0.00697334 0)
(0.0722531 0.00700324 0)
(0.0582576 0.0068644 0)
(0.0444832 0.00674808 0)
(0.031042 0.00648853 0)
(0.0178277 0.00625551 0)
(0.00526954 0.00594704 0)
(-0.00623473 0.00560141 0)
(-0.0169769 0.00524825 0)
(-0.0286348 0.00486635 0)
(-0.179548 -0.00122737 0)
(-0.177735 -0.00173512 0)
(-0.174873 -0.00224474 0)
(-0.171266 -0.00276591 0)
(-0.16689 -0.0033143 0)
(-0.16172 -0.00386968 0)
(-0.155731 -0.00446346 0)
(-0.148891 -0.00505726 0)
(-0.141166 -0.00566801 0)
(-0.13253 -0.00634058 0)
(-0.12295 -0.00698439 0)
(-0.112403 -0.00763418 0)
(-0.100876 -0.00837131 0)
(-0.0883554 -0.0090218 0)
(-0.0748533 -0.00977176 0)
(-0.060382 -0.0103816 0)
(-0.0450053 -0.0109421 0)
(-0.0287932 -0.0116203 0)
(-0.0117384 -0.0120772 0)
(0.00608714 -0.0124653 0)
(0.0244673 -0.0129397 0)
(0.0432291 -0.0130698 0)
(0.0621998 -0.0130483 0)
(0.0811857 -0.0131392 0)
(0.099959 -0.0128161 0)
(0.118286 -0.0125535 0)
(0.135899 -0.0118933 0)
(0.152531 -0.0110523 0)
(0.167925 -0.0101882 0)
(0.181807 -0.00902183 0)
(0.193948 -0.00771117 0)
(0.204126 -0.00630992 0)
(0.212141 -0.00474907 0)
(0.217841 -0.00311709 0)
(0.221112 -0.00140906 0)
(0.221908 0.000326728 0)
(0.220208 0.00201679 0)
(0.216014 0.0037341 0)
(0.209451 0.00542227 0)
(0.200581 0.0068579 0)
(0.189606 0.00831806 0)
(0.176707 0.00944378 0)
(0.162136 0.0105794 0)
(0.146103 0.0115933 0)
(0.128867 0.0121955 0)
(0.110741 0.0128068 0)
(0.0919548 0.0132479 0)
(0.0727784 0.013325 0)
(0.0534647 0.0134072 0)
(0.0342367 0.0133314 0)
(0.0153276 0.0130045 0)
(-0.00335232 0.0126232 0)
(-0.0214548 0.0120892 0)
(-0.0386113 0.0115723 0)
(-0.0549192 0.0109738 0)
(-0.0702927 0.0102882 0)
(-0.0846927 0.00961761 0)
(-0.0980813 0.00891612 0)
(-0.110433 0.00819099 0)
(-0.121753 0.00748704 0)
(-0.132042 0.00677812 0)
(-0.14133 0.00610125 0)
(-0.149623 0.00542374 0)
(-0.156937 0.00477094 0)
(-0.16334 0.00414613 0)
(-0.168798 0.00349956 0)
(-0.17333 0.00289116 0)
(-0.177011 0.00231518 0)
(-0.179855 0.0017099 0)
(-0.181794 0.0012246 0)
(-0.182826 0.000627345 0)
(-0.183303 0.000119587 0)
(-0.18308 -0.000295578 0)
(-0.18203 -0.000812465 0)
(-0.180369 -0.0015307 0)