/*--------------------------------*- C++ -*----------------------------------*\
| =========                 |                                                 |
| \\      /  F ield         | OpenFOAM: The Open Source CFD Toolbox           |
|  \\    /   O peration     | Version:  3.0.1                                 |
|   \\  /    A nd           | Web:      www.OpenFOAM.org                      |
|    \\/     M anipulation  |                                                 |
\*---------------------------------------------------------------------------*/
FoamFile
{
    version     2.0;
    format      ascii;
    class       volScalarField;
    location    "65.4";
    object      p_rgh;
}
// * * * * * * * * * * * * * * * * * * * * * * * * * * * * * * * * * * * * * //

dimensions      [1 -1 -2 0 0 0 0];

internalField   nonuniform List<scalar> 
21420
(
-257.102
-244.063
-229.315
-212.826
-194.573
-174.518
-152.638
-128.949
-103.471
-76.2299
-47.3169
-18.2423
13.4412
46.1257
79.5878
113.523
147.591
181.457
214.716
246.954
277.812
306.884
333.763
358.107
379.567
397.827
412.621
423.728
430.998
434.262
433.555
428.826
420.216
407.819
391.843
372.528
350.179
325.105
297.65
268.219
237.199
204.991
171.979
138.538
105.044
71.8269
39.194
7.79481
-22.3916
-51.6723
-79.737
-106.403
-131.547
-155.1
-177.008
-197.259
-215.855
-232.807
-248.139
-261.883
-274.069
-284.73
-293.893
-301.586
-307.831
-312.639
-316
-317.896
-318.348
-317.335
-314.791
-310.689
-304.974
-297.568
-288.424
-277.498
-264.732
-250.1
-233.58
-215.172
-194.897
-172.79
-148.904
-123.316
-96.1177
-67.419
-37.3476
-6.04944
26.1727
59.1306
92.566
126.184
159.655
192.622
224.709
255.529
284.695
311.827
336.561
358.559
377.515
393.159
405.267
413.657
418.132
418.739
415.353
408.026
396.795
381.804
363.236
341.327
316.365
288.691
258.687
226.763
193.352
158.896
123.828
88.5705
53.5179
19.0451
-14.5492
-46.975
-77.9956
-107.419
-135.096
-160.916
-184.803
-206.706
-226.607
-244.511
-260.433
-274.405
-286.48
-296.717
-305.177
-311.93
-317.067
-320.637
-322.684
-323.306
-322.553
-320.439
-316.991
-312.221
-306.119
-298.672
-289.861
-279.652
-268.006
-254.884
-240.245
-224.051
-206.271
-186.883
-165.88
-143.272
-119.092
-93.3912
-66.2477
-37.7667
-8.08092
22.6814
54.2165
86.3215
118.724
151.113
183.146
214.452
244.637
273.291
299.998
324.337
345.901
364.315
379.235
390.364
397.477
400.335
399.011
393.386
383.537
369.627
351.88
330.584
306.087
278.788
249.123
217.552
184.545
150.572
116.096
81.5683
47.4099
13.9987
-18.3373
-49.3318
-78.7756
-106.515
-132.445
-156.505
-178.663
-198.92
-217.295
-233.832
-248.596
-261.658
-273.096
-283.001
-291.448
-298.508
-304.247
-308.719
-311.977
-314.034
-314.889
-314.617
-313.185
-310.578
-306.773
-301.74
-295.439
-287.824
-278.849
-268.469
-256.641
-243.311
-228.429
-211.954
-193.845
-174.069
-152.618
-129.502
-104.759
-78.4694
-50.7401
-21.7141
8.42995
39.4955
71.203
103.275
135.399
167.231
198.399
228.507
257.147
283.905
308.374
330.16
348.896
364.25
375.936
383.723
387.385
386.937
382.286
373.517
360.763
344.257
324.285
301.193
275.372
247.249
217.269
185.889
153.555
120.706
87.8053
55.1936
23.1463
-8.005
-37.9971
-66.6216
-93.7212
-119.192
-142.971
-165.027
-185.358
-203.984
-220.941
-236.28
-250.066
-262.358
-273.21
-282.652
-290.691
-297.33
-302.578
-306.439
-308.857
-309.762
-309.366
-307.58
-304.361
-299.661
-293.386
-285.452
-275.778
-264.245
-250.778
-235.313
-217.803
-198.243
-176.679
-153.139
-127.697
-100.502
-71.6969
-41.5585
-10.4004
26.932
60.3399
94.3366
128.577
162.606
196.025
228.398
259.289
288.311
315.051
339.111
360.157
377.868
391.972
402.244
408.514
410.646
408.839
402.894
392.905
379.016
361.444
340.459
316.367
289.523
260.304
229.109
196.391
162.59
128.142
93.5081
59.1051
25.7321
-7.00808
-39.0514
-69.9165
-99.3524
-127.166
-153.238
-177.484
-199.854
-220.331
-238.912
-255.623
-270.538
-283.732
-257.169
-244.133
-229.388
-212.901
-194.652
-174.599
-152.72
-129.032
-103.554
-76.3127
-47.3992
-18.3073
13.3796
46.0712
79.5432
113.491
147.572
181.454
214.729
246.984
277.86
306.95
333.847
358.207
379.683
397.956
412.762
423.877
431.152
434.426
433.705
428.974
420.358
407.952
391.964
372.635
350.269
325.178
297.705
268.258
237.219
204.996
171.968
138.513
105.007
71.7786
39.1374
7.73438
-22.4585
-51.7431
-79.8109
-106.478
-131.624
-155.176
-177.083
-197.333
-215.927
-232.877
-248.206
-261.948
-274.132
-284.791
-293.952
-301.645
-307.889
-312.696
-316.058
-317.953
-318.408
-317.396
-314.855
-310.755
-305.044
-297.64
-288.499
-277.576
-264.813
-250.183
-233.664
-215.257
-194.983
-172.875
-148.988
-123.399
-96.1981
-67.496
-37.4201
-6.11558
26.1141
59.0808
92.5268
126.157
159.642
192.625
224.728
255.565
284.749
311.898
336.649
358.663
377.632
393.288
405.405
413.801
418.287
418.884
415.499
408.168
396.93
381.928
363.347
341.423
316.444
288.752
258.729
226.785
193.356
158.882
123.798
88.5253
53.4595
18.9762
-14.6273
-47.0602
-78.086
-107.513
-135.192
-161.013
-184.9
-206.802
-226.702
-244.603
-260.522
-274.492
-286.564
-296.798
-305.254
-312.005
-317.139
-320.706
-322.749
-323.371
-322.616
-320.502
-317.053
-312.284
-306.182
-298.736
-289.927
-279.72
-268.076
-254.957
-240.32
-224.128
-206.35
-186.963
-165.961
-143.353
-119.172
-93.4702
-66.3241
-37.8393
-8.14849
22.6213
54.1647
86.2799
118.695
151.097
183.145
214.468
244.67
273.343
300.07
324.427
346.009
364.439
379.373
390.513
397.634
400.504
399.167
393.541
383.684
369.763
352.002
330.688
306.171
278.852
249.166
217.575
184.548
150.556
116.063
81.5193
47.3476
13.9255
-18.4191
-49.4196
-78.8674
-106.609
-132.54
-156.599
-178.755
-199.009
-217.382
-233.915
-248.675
-261.733
-273.167
-283.068
-291.512
-298.569
-304.306
-308.776
-312.034
-314.086
-314.943
-314.671
-313.239
-310.634
-306.83
-301.799
-295.5
-287.886
-278.914
-268.537
-256.711
-243.383
-228.504
-212.032
-193.924
-174.151
-152.701
-129.584
-104.84
-78.5475
-50.8142
-21.7827
8.36821
39.4423
71.1603
103.244
135.382
167.229
198.414
228.54
257.198
283.975
308.461
330.265
349.017
364.385
376.082
383.876
387.548
387.091
382.439
373.663
360.898
344.378
324.389
301.278
275.438
247.294
217.296
185.897
153.546
120.681
87.7678
55.1445
23.0873
-8.072
-38.0699
-66.6981
-93.7997
-119.271
-143.049
-165.103
-185.432
-204.055
-221.009
-236.345
-250.128
-262.417
-273.268
-282.708
-290.747
-297.387
-302.636
-306.497
-308.913
-309.821
-309.427
-307.643
-304.427
-299.73
-293.459
-285.527
-275.856
-264.327
-250.862
-235.399
-217.891
-198.332
-176.768
-153.227
-127.782
-100.582
-71.7701
-41.6188
-10.439
26.848
60.2816
94.2978
128.556
162.602
196.039
228.43
259.34
288.381
315.138
339.216
360.277
378.003
392.118
402.399
408.675
410.816
408.995
403.047
393.052
379.153
361.568
340.567
316.458
289.595
260.358
229.144
196.407
162.588
128.123
93.4743
59.0583
25.6781
-7.073
-39.1237
-69.9943
-99.4342
-127.25
-153.323
-177.569
-199.938
-220.413
-238.991
-255.7
-270.612
-283.803
-257.303
-244.273
-229.534
-213.053
-194.808
-174.76
-152.885
-129.199
-103.721
-76.4783
-47.5604
-18.4409
13.2564
45.9623
79.4541
113.426
147.535
181.448
214.756
247.046
277.956
307.082
334.014
358.409
379.915
398.215
413.043
424.174
431.459
434.754
434.005
429.273
420.643
408.219
392.206
372.847
350.45
325.325
297.817
268.334
237.261
205.005
171.946
138.463
104.931
71.6821
39.0242
7.61345
-22.5923
-51.8848
-79.9586
-106.63
-131.776
-155.328
-177.233
-197.479
-216.069
-233.015
-248.34
-262.078
-274.257
-284.913
-294.071
-301.761
-308.004
-312.809
-316.17
-318.066
-318.526
-317.516
-314.978
-310.884
-305.178
-297.78
-288.645
-277.727
-264.969
-250.343
-233.827
-215.421
-195.147
-173.039
-149.149
-123.556
-96.3501
-67.6408
-37.5555
-6.23773
26.0073
58.9921
92.4593
126.115
159.628
192.642
224.779
255.651
284.87
312.054
336.838
358.883
377.879
393.557
405.692
414.101
418.61
419.184
415.802
408.462
397.21
382.188
363.58
341.625
316.613
288.885
258.823
226.842
193.376
158.866
123.749
88.4475
53.3559
18.8518
-14.7695
-47.2161
-78.252
-107.686
-135.369
-161.192
-185.078
-206.978
-226.874
-244.771
-260.684
-274.649
-286.714
-296.941
-305.391
-312.136
-317.264
-320.823
-322.861
-323.483
-322.724
-320.608
-317.16
-312.391
-306.291
-298.848
-290.043
-279.839
-268.2
-255.085
-240.453
-224.266
-206.491
-187.108
-166.107
-143.5
-119.318
-93.6129
-66.4617
-37.9695
-8.26871
22.5159
54.0757
86.211
118.649
151.079
183.157
214.513
244.75
273.461
300.225
324.62
346.238
364.701
379.662
390.824
397.959
400.851
399.492
393.863
383.991
370.046
352.255
330.906
306.351
278.992
249.264
217.632
184.565
150.536
116.009
81.4343
47.2365
13.7928
-18.5685
-49.5809
-79.0361
-106.781
-132.713
-156.771
-178.924
-199.172
-217.539
-234.065
-248.817
-261.866
-273.293
-283.186
-291.624
-298.676
-304.407
-308.875
-312.129
-314.175
-315.035
-314.763
-313.333
-310.729
-306.929
-301.901
-295.606
-287.997
-279.029
-268.658
-256.836
-243.514
-228.64
-212.173
-194.07
-174.3
-152.852
-129.734
-104.988
-78.6903
-50.949
-21.9067
8.25799
39.3489
71.0878
103.196
135.361
167.238
198.456
228.617
257.312
284.126
308.648
330.486
349.27
364.665
376.384
384.193
387.885
387.411
382.756
373.964
361.177
344.628
324.605
301.457
275.578
247.395
217.357
185.921
153.535
120.639
87.6999
55.0529
22.9755
-8.20015
-38.2102
-66.8459
-93.9519
-119.424
-143.201
-165.252
-185.577
-204.194
-221.142
-236.471
-250.248
-262.533
-273.38
-282.819
-290.857
-297.498
-302.75
-306.611
-309.024
-309.938
-309.548
-307.77
-304.559
-299.868
-293.602
-285.675
-276.012
-264.489
-251.029
-235.57
-218.065
-198.508
-176.944
-153.402
-127.952
-100.743
-71.9161
-41.7392
-10.512
26.677
60.1658
94.2209
128.513
162.594
196.066
228.494
259.442
288.52
315.314
339.427
360.519
378.273
392.411
402.71
408.998
411.157
409.307
403.356
393.347
379.428
361.815
340.783
316.639
289.74
260.466
229.213
196.439
162.584
128.085
93.4065
58.9646
25.5697
-7.20279
-39.2681
-70.1501
-99.598
-127.419
-153.493
-177.74
-200.106
-220.577
-239.151
-255.854
-270.759
-283.945
-257.504
-244.483
-229.753
-213.28
-195.044
-175.002
-153.133
-129.449
-103.971
-76.7269
-47.8043
-18.6397
13.0714
45.7987
79.3201
113.329
147.48
181.439
214.797
247.137
278.101
307.281
334.265
358.71
380.263
398.604
413.466
424.622
431.92
435.238
434.462
429.725
421.071
408.618
392.569
373.166
350.721
325.545
297.984
268.448
237.324
205.018
171.914
138.388
104.818
71.537
38.8545
7.43162
-22.793
-52.0973
-80.1803
-106.857
-132.005
-155.556
-177.458
-197.699
-216.283
-233.222
-248.54
-262.272
-274.446
-285.096
-294.249
-301.935
-308.175
-312.979
-316.337
-318.238
-318.702
-317.696
-315.164
-311.078
-305.379
-297.99
-288.864
-277.954
-265.203
-250.583
-234.071
-215.667
-195.394
-173.284
-149.391
-123.792
-96.5778
-67.8579
-37.7585
-6.42047
25.8477
58.8594
92.3588
126.052
159.608
192.669
224.856
255.781
285.053
312.289
337.124
359.214
378.251
393.964
406.125
414.552
419.089
419.643
416.262
408.906
397.632
382.579
363.932
341.932
316.868
289.085
258.967
226.929
193.407
158.845
123.679
88.3332
53.2029
18.6676
-14.9804
-47.4476
-78.4985
-107.943
-135.632
-161.456
-185.341
-207.239
-227.13
-245.02
-260.925
-274.881
-286.937
-297.153
-305.595
-312.331
-317.449
-320.996
-323.031
-323.647
-322.884
-320.766
-317.318
-312.549
-306.452
-299.014
-290.213
-280.016
-268.383
-255.276
-240.651
-224.47
-206.702
-187.322
-166.324
-143.718
-119.535
-93.825
-66.6663
-38.1633
-8.44719
22.3599
53.944
86.1096
118.583
151.053
183.176
214.582
244.873
273.64
300.461
324.912
346.584
365.096
380.099
391.294
398.45
401.368
399.988
394.35
384.454
370.474
352.638
331.236
306.624
279.203
249.414
217.719
184.594
150.508
115.929
81.309
47.072
13.5959
-18.7905
-49.8205
-79.2868
-107.038
-132.971
-157.026
-179.174
-199.414
-217.772
-234.287
-249.027
-262.064
-273.48
-283.361
-291.789
-298.833
-304.558
-309.02
-312.27
-314.308
-315.173
-314.899
-313.471
-310.87
-307.074
-302.053
-295.764
-288.161
-279.2
-268.837
-257.022
-243.707
-228.842
-212.383
-194.287
-174.522
-153.076
-129.958
-105.208
-78.9028
-51.1497
-22.0912
8.09454
39.2104
70.9806
103.124
135.33
167.254
198.521
228.735
257.485
284.354
308.931
330.821
349.652
365.088
376.84
384.671
388.387
387.896
383.235
374.419
361.599
345.006
324.932
301.728
275.79
247.547
217.451
185.958
153.52
120.577
87.5987
54.9159
22.8082
-8.39216
-38.4205
-67.0676
-94.1801
-119.654
-143.43
-165.476
-185.794
-204.402
-221.341
-236.66
-250.429
-262.707
-273.55
-282.985
-291.022
-297.664
-302.92
-306.782
-309.192
-310.113
-309.73
-307.959
-304.757
-300.075
-293.818
-285.902
-276.246
-264.731
-251.279
-235.826
-218.327
-198.773
-177.21
-153.664
-128.206
-100.985
-72.1358
-41.9209
-10.6155
26.4147
59.9925
94.1057
128.449
162.581
196.107
228.59
259.594
288.728
315.578
339.742
360.882
378.678
392.851
403.176
409.481
411.662
409.781
403.822
393.791
379.84
362.187
341.107
316.912
289.958
260.626
229.317
196.486
162.577
128.028
93.3045
58.8241
25.4065
-7.39765
-39.4849
-70.3839
-99.8438
-127.672
-153.75
-177.995
-200.358
-220.823
-239.39
-256.084
-270.981
-284.158
-257.772
-244.764
-230.045
-213.583
-195.357
-175.325
-153.463
-129.783
-104.305
-77.0587
-48.1366
-18.8991
12.8245
45.58
79.141
113.198
147.405
181.427
214.85
247.259
278.293
307.545
334.6
359.113
380.728
399.123
414.029
425.218
432.535
435.867
435.085
430.33
421.643
409.151
393.053
373.591
351.082
325.838
298.207
268.601
237.408
205.036
171.87
138.288
104.667
71.343
38.6283
7.18839
-23.0607
-52.3809
-80.4762
-107.16
-132.311
-155.86
-177.758
-197.993
-216.569
-233.499
-248.808
-262.531
-274.697
-285.339
-294.486
-302.167
-308.404
-313.204
-316.561
-318.468
-318.936
-317.935
-315.412
-311.336
-305.648
-298.27
-289.156
-278.257
-265.516
-250.902
-234.396
-215.996
-195.723
-173.61
-149.713
-124.106
-96.8818
-68.1478
-38.0299
-6.6642
25.6347
58.6823
92.2243
125.967
159.58
192.704
224.958
255.954
285.297
312.604
337.505
359.656
378.748
394.507
406.703
415.155
419.715
420.266
416.879
409.501
398.197
383.102
364.403
342.341
317.21
289.354
259.16
227.046
193.449
158.816
123.585
88.181
52.999
18.4222
-15.2615
-47.7561
-78.8269
-108.285
-135.981
-161.809
-185.692
-207.586
-227.471
-245.351
-261.245
-275.189
-287.234
-297.436
-305.865
-312.589
-317.693
-321.226
-323.256
-323.866
-323.096
-320.976
-317.528
-312.76
-306.666
-299.234
-290.441
-280.251
-268.627
-255.53
-240.914
-224.743
-206.982
-187.608
-166.614
-144.009
-119.823
-94.1077
-66.939
-38.4215
-8.6856
22.1526
53.7686
85.9746
118.495
151.019
183.203
214.674
245.037
273.878
300.775
325.301
347.046
365.623
380.682
391.922
399.106
402.049
400.658
395.001
385.073
371.046
353.149
331.678
306.988
279.486
249.613
217.837
184.632
150.472
115.824
81.1419
46.8527
13.3334
-19.0865
-50.14
-79.621
-107.38
-133.315
-157.366
-179.507
-199.737
-218.082
-234.583
-249.307
-262.328
-273.728
-283.594
-292.009
-299.042
-304.758
-309.213
-312.455
-314.488
-315.355
-315.081
-313.655
-311.058
-307.269
-302.255
-295.974
-288.38
-279.429
-269.075
-257.27
-243.966
-229.112
-212.663
-194.576
-174.818
-153.376
-130.256
-105.501
-79.186
-51.4172
-22.3372
7.87677
39.026
70.8378
103.029
135.29
167.274
198.607
228.892
257.715
284.659
309.309
331.268
350.162
365.653
377.448
385.31
389.05
388.553
383.877
375.028
362.162
345.511
325.369
302.089
276.073
247.75
217.575
186.007
153.5
120.494
87.4636
54.7329
22.5847
-8.64865
-38.7014
-67.3636
-94.4847
-119.96
-143.734
-165.775
-186.084
-204.681
-221.606
-236.912
-250.669
-262.939
-273.775
-283.206
-291.242
-297.886
-303.146
-307.008
-309.419
-310.346
-309.973
-308.212
-305.021
-300.351
-294.106
-286.201
-276.559
-265.055
-251.613
-236.169
-218.676
-199.127
-177.564
-154.014
-128.546
-101.307
-72.4298
-42.1656
-10.7593
26.0706
59.763
93.9522
128.364
162.564
196.161
228.718
259.797
289.006
315.929
340.163
361.367
379.218
393.437
403.798
410.126
412.323
410.425
404.447
394.384
380.391
362.682
341.54
317.275
290.248
260.841
229.455
196.549
162.568
127.952
93.1682
58.6365
25.1879
-7.65783
-39.7742
-70.6959
-100.172
-128.01
-154.091
-178.336
-200.694
-221.152
-239.708
-256.392
-271.277
-284.442
-258.108
-245.114
-230.41
-213.962
-195.75
-175.729
-153.876
-130.201
-104.722
-77.4735
-48.5568
-19.2204
12.5152
45.3059
78.9163
113.034
147.312
181.411
214.917
247.411
278.534
307.875
335.019
359.616
381.309
399.773
414.735
425.965
433.305
436.645
435.869
431.088
422.36
409.818
393.658
374.123
351.534
326.205
298.486
268.791
237.512
205.058
171.814
138.162
104.478
71.0996
38.3455
6.88315
-23.3953
-52.7356
-80.8466
-107.54
-132.693
-156.241
-178.133
-198.36
-216.925
-233.844
-249.143
-262.854
-275.01
-285.644
-294.782
-302.458
-308.69
-313.485
-316.842
-318.755
-319.228
-318.234
-315.722
-311.658
-305.984
-298.62
-289.521
-278.636
-265.906
-251.303
-234.803
-216.406
-196.134
-174.019
-150.116
-124.5
-97.2623
-68.5112
-38.3701
-6.96915
25.368
58.4602
92.0556
125.861
159.546
192.748
225.087
256.17
285.603
312.997
337.981
360.21
379.369
395.186
407.428
415.91
420.49
421.052
417.651
410.246
398.903
383.756
364.992
342.854
317.637
289.69
259.401
227.191
193.502
158.78
123.468
87.9902
52.7436
18.1147
-15.6135
-48.1422
-79.2381
-108.712
-136.419
-162.25
-186.132
-208.02
-227.897
-245.765
-261.646
-275.576
-287.604
-297.791
-306.203
-312.911
-317.999
-321.516
-323.538
-324.139
-323.362
-321.238
-317.79
-313.023
-306.934
-299.509
-290.724
-280.544
-268.932
-255.847
-241.244
-225.083
-207.332
-187.965
-166.976
-144.373
-120.184
-94.4614
-67.2803
-38.7445
-8.985
21.8935
53.5489
85.8051
118.385
150.976
183.235
214.79
245.241
274.176
301.168
325.789
347.624
366.283
381.412
392.707
399.928
402.892
401.503
395.818
385.848
371.761
353.789
332.23
307.444
279.84
249.863
217.984
184.68
150.426
115.691
80.9323
46.5779
13.0044
-19.4572
-50.5401
-80.0395
-107.808
-133.745
-157.792
-179.924
-200.141
-218.469
-234.953
-249.657
-262.657
-274.038
-283.886
-292.283
-299.303
-305.008
-309.454
-312.686
-314.714
-315.582
-315.308
-313.884
-311.293
-307.512
-302.507
-296.236
-288.653
-279.714
-269.373
-257.58
-244.288
-229.448
-213.012
-194.937
-175.188
-153.75
-130.63
-105.869
-79.5404
-51.7522
-22.6452
7.60364
38.795
70.6588
102.91
135.239
167.299
198.715
229.089
258.004
285.04
309.782
331.827
350.801
366.36
378.211
386.109
389.872
389.38
384.68
375.79
362.867
346.142
325.915
302.542
276.427
248.004
217.731
186.068
153.473
120.389
87.294
54.5032
22.3044
-8.97008
-39.0533
-67.7344
-94.866
-120.344
-144.115
-166.149
-186.447
-205.029
-221.939
-237.229
-250.971
-263.228
-274.056
-283.483
-291.516
-298.163
-303.426
-307.289
-309.705
-310.639
-310.276
-308.528
-305.351
-300.695
-294.466
-286.578
-276.949
-265.459
-252.03
-236.597
-219.112
-199.569
-178.007
-154.453
-128.972
-101.711
-72.7989
-42.4755
-10.9523
25.6535
59.4787
93.7608
128.258
162.543
196.228
228.878
260.05
289.353
316.369
340.689
361.972
379.894
394.171
404.575
410.932
413.14
411.236
405.229
395.126
381.079
363.302
342.081
317.73
290.61
261.109
229.627
196.628
162.556
127.856
92.9972
58.4019
24.913
-7.98369
-40.1363
-71.0865
-100.583
-128.433
-154.519
-178.762
-201.114
-221.562
-240.107
-256.777
-271.647
-284.797
-258.51
-245.535
-230.849
-214.417
-196.221
-176.214
-154.371
-130.702
-105.223
-77.9712
-49.0613
-19.6082
12.1425
44.9755
78.6455
112.837
147.199
181.391
214.996
247.593
278.822
308.271
335.522
360.221
382.007
400.552
415.582
426.861
434.231
437.58
436.808
431.998
423.221
410.62
394.385
374.762
352.076
326.644
298.819
269.018
237.636
205.083
171.747
138.01
104.249
70.8062
38.0058
6.51524
-23.797
-53.1616
-81.2917
-107.996
-133.153
-156.698
-178.583
-198.8
-217.354
-234.259
-249.545
-263.243
-275.387
-286.009
-295.137
-302.806
-309.032
-313.823
-317.18
-319.099
-319.577
-318.593
-316.094
-312.046
-306.387
-299.04
-289.96
-279.092
-266.376
-251.783
-235.292
-216.9
-196.629
-174.511
-150.6
-124.973
-97.7195
-68.948
-38.7796
-7.33544
25.0471
58.1927
91.852
125.733
159.503
192.799
225.24
256.429
285.969
313.468
338.553
360.875
380.116
396.002
408.298
416.818
421.419
421.996
418.578
411.142
399.752
384.542
365.7
343.47
318.151
290.093
259.69
227.366
193.564
158.736
123.326
87.7601
52.4358
17.7447
-16.0372
-48.6067
-79.7324
-109.227
-136.945
-162.781
-186.66
-208.542
-228.408
-246.263
-262.127
-276.039
-288.049
-298.216
-306.608
-313.298
-318.364
-321.865
-323.875
-324.466
-323.68
-321.552
-318.104
-313.339
-307.256
-299.839
-291.064
-280.897
-269.299
-256.228
-241.639
-225.492
-207.752
-188.395
-167.412
-144.81
-120.618
-94.8866
-67.6906
-39.1326
-9.34597
21.5819
53.2843
85.6007
118.251
150.923
183.273
214.927
245.486
274.533
301.64
326.374
348.318
367.076
382.29
393.651
400.916
403.904
402.519
396.801
386.779
372.62
354.558
332.894
307.991
280.264
250.161
218.159
184.736
150.369
115.531
80.6793
46.2467
12.6081
-19.9034
-51.0214
-80.5429
-108.322
-134.261
-158.303
-180.424
-200.627
-218.936
-235.398
-250.078
-263.053
-274.41
-284.236
-292.613
-299.616
-305.308
-309.742
-312.963
-314.987
-315.853
-315.58
-314.159
-311.575
-307.803
-302.81
-296.551
-288.982
-280.057
-269.73
-257.952
-244.676
-229.853
-213.432
-195.371
-175.633
-154.2
-131.079
-106.31
-79.9668
-52.1551
-23.0155
7.2747
38.5167
70.4429
102.766
135.177
167.328
198.844
229.324
258.35
285.498
310.349
332.498
351.567
367.21
379.126
387.071
390.858
390.374
385.645
376.707
363.714
346.901
326.57
303.085
276.851
248.308
217.916
186.141
153.441
120.263
87.0896
54.2265
21.9669
-9.35688
-39.4766
-68.1804
-95.3243
-120.806
-144.573
-166.597
-186.882
-205.448
-222.338
-237.608
-251.332
-263.575
-274.393
-283.815
-291.846
-298.494
-303.761
-307.627
-310.049
-310.99
-310.641
-308.907
-305.747
-301.109
-294.898
-287.03
-277.416
-265.945
-252.531
-237.111
-219.637
-200.1
-178.54
-154.979
-129.484
-102.198
-73.2443
-42.853
-11.2026
25.1706
59.1409
93.5318
128.129
162.516
196.308
229.069
260.354
289.769
316.896
341.321
362.7
380.705
395.052
405.509
411.899
414.121
412.212
406.171
396.019
381.906
364.046
342.73
318.275
291.045
261.43
229.833
196.721
162.541
127.739
92.7908
58.1201
24.5809
-8.37555
-40.5716
-71.5561
-101.076
-128.941
-155.033
-179.274
-201.619
-222.055
-240.586
-257.238
-272.09
-285.222
-258.98
-246.026
-231.36
-214.948
-196.77
-176.78
-154.95
-131.288
-105.808
-78.5519
-49.6463
-20.0665
11.7052
44.5883
78.3279
112.605
147.066
181.367
215.088
247.805
279.157
308.733
336.108
360.926
382.822
401.463
416.571
427.909
435.314
438.674
437.901
433.06
424.228
411.555
395.233
375.508
352.709
327.157
299.208
269.283
237.78
205.111
171.668
137.831
103.981
70.4617
37.6087
6.08413
-24.2653
-53.6592
-81.812
-108.528
-133.69
-157.232
-179.108
-199.314
-217.854
-234.743
-250.013
-263.696
-275.826
-286.435
-295.551
-303.212
-309.431
-314.218
-317.576
-319.499
-319.984
-319.011
-316.527
-312.497
-306.857
-299.53
-290.472
-279.623
-266.923
-252.344
-235.862
-217.476
-197.206
-175.084
-151.165
-125.525
-98.2537
-69.4588
-39.2589
-7.7631
24.6716
57.8793
91.6132
125.582
159.451
192.858
225.418
256.731
286.396
314.019
339.221
361.651
380.989
396.956
409.315
417.88
422.507
423.097
419.661
412.189
400.744
385.461
366.527
344.188
318.75
290.564
260.027
227.568
193.635
158.683
123.159
87.49
52.0763
17.31
-16.5333
-49.15
-80.3106
-109.828
-137.56
-163.4
-187.277
-209.151
-229.006
-246.844
-262.689
-276.581
-288.569
-298.713
-307.082
-313.749
-318.792
-322.273
-324.269
-324.847
-324.051
-321.92
-318.47
-313.708
-307.632
-300.225
-291.462
-281.308
-269.727
-256.672
-242.1
-225.969
-208.243
-188.897
-167.92
-145.321
-121.126
-95.3838
-68.1702
-39.5864
-9.76898
21.2173
52.9741
85.3608
118.093
150.861
183.316
215.087
245.771
274.949
302.19
327.057
349.128
368.002
383.315
394.755
402.073
405.086
403.704
397.949
387.868
373.624
355.456
333.668
308.629
280.758
250.509
218.363
184.8
150.302
115.343
80.3822
45.8583
12.1437
-20.4258
-51.5846
-81.1317
-108.924
-134.865
-158.901
-181.009
-201.193
-219.48
-235.917
-250.569
-263.515
-274.844
-284.644
-292.997
-299.981
-305.657
-310.078
-313.287
-315.306
-316.17
-315.897
-314.48
-311.904
-308.144
-303.163
-296.919
-289.365
-280.457
-270.147
-258.387
-245.129
-230.325
-213.923
-195.878
-176.152
-154.726
-131.605
-106.827
-80.4656
-52.6262
-23.4488
6.88949
38.1905
70.1896
102.596
135.103
167.361
198.993
229.598
258.753
286.032
311.011
333.283
352.463
368.202
380.197
388.196
392.013
391.534
386.773
377.778
364.704
347.787
327.336
303.718
277.345
248.662
218.132
186.224
153.401
120.114
86.8497
53.9023
21.5716
-9.80966
-39.9718
-68.7022
-95.8599
-121.345
-145.108
-167.121
-187.39
-205.936
-222.804
-238.052
-251.754
-263.98
-274.787
-284.201
-292.23
-298.88
-304.151
-308.021
-310.451
-311.401
-311.066
-309.35
-306.209
-301.592
-295.401
-287.552
-277.963
-266.511
-253.115
-237.711
-220.249
-200.72
-179.161
-155.595
-130.082
-102.767
-73.7669
-43.3
-11.5169
24.6272
58.7511
93.2652
127.979
162.484
196.401
229.291
260.707
290.255
317.511
342.058
363.549
381.653
396.081
406.6
413.03
415.267
413.349
407.27
397.062
382.872
364.915
343.489
318.911
291.552
261.804
230.073
196.829
162.522
127.602
92.5485
57.7908
24.1905
-8.83371
-41.0803
-72.105
-101.653
-129.535
-155.633
-179.872
-202.208
-222.631
-241.144
-257.777
-272.608
-285.719
-259.517
-246.588
-231.945
-215.556
-197.399
-177.428
-155.613
-131.957
-106.477
-79.2157
-50.3095
-20.5984
11.202
44.1432
77.9627
112.338
146.912
181.338
215.192
248.046
279.539
309.26
336.778
361.732
383.754
402.505
417.703
429.108
436.554
439.929
439.15
434.275
425.381
412.626
396.204
376.36
353.432
327.743
299.652
269.585
237.943
205.142
171.575
137.624
103.672
70.065
37.153
5.58995
-24.8
-54.2287
-82.4078
-109.138
-134.304
-157.843
-179.71
-199.902
-218.426
-235.297
-250.549
-264.214
-276.327
-286.921
-296.025
-303.676
-309.887
-314.669
-318.027
-319.955
-320.448
-319.489
-317.023
-313.013
-307.394
-300.091
-291.057
-280.23
-267.55
-252.986
-236.515
-218.135
-197.866
-175.741
-151.812
-126.157
-98.8652
-70.0437
-39.8094
-8.25169
24.2411
57.5192
91.3385
125.407
159.391
192.924
225.62
257.075
286.884
314.648
339.986
362.539
381.987
398.047
410.479
419.095
423.752
424.354
420.9
413.387
401.88
386.512
367.472
345.011
319.435
291.101
260.411
227.798
193.715
158.621
122.965
87.1793
51.665
16.8092
-17.1024
-49.7731
-80.9731
-110.518
-138.264
-164.11
-187.984
-209.849
-229.689
-247.509
-263.333
-277.2
-289.163
-299.281
-307.623
-314.264
-319.281
-322.74
-324.719
-325.281
-324.476
-322.339
-318.888
-314.13
-308.062
-300.665
-291.916
-281.779
-270.216
-257.181
-242.628
-226.516
-208.805
-189.471
-168.503
-145.906
-121.707
-95.9532
-68.7196
-40.1062
-10.2541
20.7985
52.6174
85.0847
117.912
150.787
183.364
215.268
246.095
275.424
302.818
327.837
350.054
369.061
384.488
396.018
403.397
406.442
405.059
399.265
389.115
374.773
356.483
334.554
309.359
281.323
250.907
218.594
184.871
150.223
115.126
80.0398
45.4122
11.6101
-21.0253
-52.2305
-81.8067
-109.613
-135.556
-159.585
-181.679
-201.842
-220.104
-236.511
-251.131
-264.044
-275.34
-285.11
-293.437
-300.399
-306.057
-310.463
-313.659
-315.671
-316.532
-316.258
-314.847
-312.281
-308.533
-303.567
-297.339
-289.804
-280.915
-270.624
-258.883
-245.648
-230.865
-214.485
-196.459
-176.747
-155.328
-132.207
-107.419
-81.0372
-53.166
-23.9458
6.4474
37.8157
69.8982
102.401
135.016
167.396
199.162
229.909
259.213
286.641
311.768
334.179
353.488
369.338
381.422
389.485
393.335
392.861
388.066
379.005
365.837
348.801
328.212
304.442
277.91
249.066
218.377
186.318
153.354
119.942
86.5737
53.5301
21.1178
-10.3291
-40.5396
-69.3002
-96.4735
-121.962
-145.719
-167.721
-187.972
-206.495
-223.337
-238.558
-252.237
-264.443
-275.237
-284.643
-292.669
-299.32
-304.596
-308.472
-310.91
-311.87
-311.552
-309.856
-306.737
-302.143
-295.976
-288.149
-278.588
-267.159
-253.784
-238.398
-220.949
-201.429
-179.873
-156.299
-130.768
-103.421
-74.3679
-43.8185
-11.9001
24.0262
58.3103
92.9612
127.807
162.447
196.505
229.544
261.11
290.809
318.214
342.901
364.519
382.737
397.259
407.848
414.323
416.579
414.65
408.53
398.256
383.977
365.909
344.356
319.639
292.132
262.231
230.346
196.95
162.498
127.443
92.2693
57.4139
23.7405
-9.35845
-41.6631
-72.7339
-102.314
-130.215
-156.32
-180.556
-202.882
-223.289
-241.783
-258.393
-273.2
-286.287
-260.121
-247.22
-232.603
-216.24
-198.107
-178.157
-156.359
-132.712
-107.23
-79.9627
-51.0498
-21.2059
10.6316
43.6393
77.5491
112.035
146.737
181.304
215.307
248.316
279.968
309.852
337.531
362.64
384.804
403.678
418.979
430.46
437.952
441.346
440.557
435.642
426.681
413.832
397.296
377.32
354.246
328.401
300.15
269.923
238.125
205.175
171.469
137.39
103.322
69.6146
36.636
5.03437
-25.4006
-54.8706
-83.0796
-109.826
-134.996
-158.531
-180.387
-200.563
-219.069
-235.92
-251.152
-264.796
-276.891
-287.469
-296.558
-304.197
-310.4
-315.177
-318.536
-320.468
-320.971
-320.026
-317.58
-313.593
-307.998
-300.722
-291.717
-280.915
-268.255
-253.709
-237.25
-218.877
-198.61
-176.48
-152.541
-126.869
-99.5543
-70.7033
-40.4313
-8.80137
23.755
57.1119
91.0271
125.208
159.321
192.997
225.846
257.462
287.433
315.356
340.846
363.54
383.112
399.276
411.791
420.465
425.156
425.77
422.297
414.738
403.16
387.696
368.537
345.937
320.206
291.706
260.843
228.056
193.803
158.549
122.745
86.8272
51.1986
16.2438
-17.7453
-50.4767
-81.7209
-111.295
-139.057
-164.909
-188.781
-210.635
-230.459
-248.259
-264.058
-277.898
-289.831
-299.92
-308.233
-314.844
-319.832
-323.266
-325.225
-325.77
-324.953
-322.811
-319.358
-314.604
-308.545
-301.16
-292.426
-282.309
-270.766
-257.753
-243.223
-227.131
-209.438
-190.119
-169.159
-146.565
-122.362
-96.5955
-69.3394
-40.6926
-10.7989
20.3221
52.2133
84.7715
117.705
150.702
183.415
215.469
246.457
275.956
303.525
328.716
351.097
370.254
385.811
397.443
404.891
407.97
406.587
400.748
390.52
376.069
357.641
335.551
310.18
281.958
251.352
218.852
184.949
150.132
114.878
79.6519
44.9067
11.0062
-21.7031
-52.96
-82.5683
-110.391
-136.336
-160.357
-182.434
-202.573
-220.806
-237.179
-251.764
-264.639
-275.898
-285.635
-293.932
-300.868
-306.506
-310.895
-314.077
-316.081
-316.938
-316.665
-315.26
-312.704
-308.97
-304.022
-297.813
-290.298
-281.43
-271.16
-259.443
-246.231
-231.473
-215.117
-197.112
-177.417
-156.007
-132.886
-108.087
-81.682
-53.7753
-24.5071
5.94768
37.3914
69.568
102.178
134.916
167.434
199.351
230.259
259.729
287.327
312.62
335.189