/*--------------------------------*- C++ -*----------------------------------*\
| =========                 |                                                 |
| \\      /  F ield         | OpenFOAM: The Open Source CFD Toolbox           |
|  \\    /   O peration     | Version:  3.0.1                                 |
|   \\  /    A nd           | Web:      www.OpenFOAM.org                      |
|    \\/     M anipulation  |                                                 |
\*---------------------------------------------------------------------------*/
FoamFile
{
    version     2.0;
    format      ascii;
    class       volScalarField;
    location    "90.8";
    object      p_rgh;
}
// * * * * * * * * * * * * * * * * * * * * * * * * * * * * * * * * * * * * * //

dimensions      [1 -1 -2 0 0 0 0];

internalField   nonuniform List<scalar> 
21420
(
341.567
360.114
375.113
386.4
393.873
397.319
396.528
391.709
382.979
370.301
353.839
333.835
310.616
284.497
255.879
225.142
192.704
159.034
124.523
89.5766
54.6108
19.9657
-14.0001
-46.9393
-78.5811
-108.888
-137.673
-164.784
-190.133
-213.666
-235.353
-255.194
-273.209
-289.429
-303.896
-316.655
-327.757
-337.25
-345.182
-351.596
-356.532
-360.026
-362.094
-362.732
-361.723
-359.279
-355.371
-349.99
-343.083
-334.621
-324.577
-312.874
-299.489
-284.357
-267.428
-248.675
-228.084
-205.628
-181.321
-155.223
-127.383
-97.9388
-67.0259
-34.8657
-1.73945
32.2228
66.6785
101.235
135.526
169.156
201.717
232.821
262.082
289.118
313.579
335.136
353.498
368.4
379.609
386.944
390.271
389.493
384.643
375.783
362.959
346.387
326.299
302.98
276.759
248.008
217.122
184.512
150.59
115.763
80.4306
44.9766
9.76578
-24.8575
-58.5695
-91.0924
-122.171
-151.595
-179.195
-204.846
-228.469
-250.023
-269.501
-286.932
-302.359
-315.839
-327.442
-337.238
-345.297
-351.682
-356.452
-359.653
-361.34
-361.522
-360.209
-357.472
-353.292
-347.675
-340.623
-332.131
-322.195
-310.804
-297.95
-283.631
-267.84
-250.572
-231.82
-211.579
-189.853
-166.646
-141.969
-115.863
-88.3894
-59.6455
-29.8478
1.93149
33.5914
65.966
98.6861
131.414
163.798
195.459
226.002
255.017
282.092
306.821
328.818
347.72
363.197
374.968
382.804
386.536
385.964
381.227
372.249
359.113
342.031
321.246
297.073
269.889
240.117
208.215
174.666
139.964
104.596
69.0329
33.7158
-0.955216
-34.6064
-66.9814
-97.8197
-126.936
-154.199
-179.521
-202.855
-224.189
-243.539
-260.938
-276.442
-290.113
-302.022
-312.24
-320.838
-327.885
-333.45
-337.596
-340.382
-341.869
-342.102
-341.117
-338.951
-335.634
-331.163
-325.53
-318.716
-310.693
-301.424
-290.862
-278.961
-265.669
-250.94
-234.728
-217.001
-197.736
-176.914
-154.531
-130.595
-105.132
-78.1996
-49.89
-20.3259
10.3291
41.8909
73.9945
106.378
138.718
170.647
201.765
231.647
259.855
285.947
309.487
330.063
347.295
360.85
370.459
375.921
377.046
373.917
366.494
354.919
339.385
320.183
297.651
272.185
244.218
214.211
182.637
149.967
116.658
83.1411
49.808
17.0098
-14.9465
-45.8079
-75.3583
-103.43
-129.897
-154.676
-177.713
-198.983
-218.489
-236.249
-252.299
-266.682
-279.453
-290.668
-300.378
-308.635
-315.489
-320.983
-325.152
-328.017
-329.605
-329.898
-328.894
-326.711
-323.285
-318.577
-312.575
-305.27
-296.632
-286.598
-275.115
-262.108
-247.497
-231.231
-213.245
-193.545
-172.147
-149.117
-124.593
-98.7886
-71.8606
-44.2064
-15.5535
28.4971
62.5223
96.8157
131.054
164.761
197.519
228.734
257.9
284.6
308.352
328.827
345.684
358.661
367.586
372.274
372.716
370.132
363.662
353.294
339.198
321.559
300.622
276.638
249.991
221.118
190.4
158.291
125.206
91.5602
57.7622
24.1795
-8.78815
-40.8513
-71.9525
-101.793
-130.187
-156.989
-182.097
-205.446
-226.986
-246.704
-264.6
-280.686
-294.99
-307.546
-318.391
-327.567
-335.111
-341.062
-345.451
-348.322
-349.699
-349.579
-347.914
-344.742
-340.078
-333.928
-326.261
-317.054
-306.285
-293.901
-279.876
-264.153
-246.711
-227.533
-206.578
-183.845
341.677
360.239
375.251
386.548
394.024
397.481
396.689
391.87
383.132
370.444
353.969
333.95
310.714
284.577
255.94
225.183
192.726
159.039
124.511
89.5493
54.5698
19.9126
-14.0635
-47.0082
-78.6562
-108.968
-137.755
-164.868
-190.217
-213.749
-235.434
-255.273
-273.286
-289.503
-303.967
-316.724
-327.822
-337.314
-345.243
-351.655
-356.59
-360.083
-362.15
-362.786
-361.78
-359.336
-355.429
-350.05
-343.145
-334.685
-324.642
-312.943
-299.561
-284.432
-267.505
-248.755
-228.166
-205.711
-181.405
-155.306
-127.464
-98.0158
-67.0969
-34.9302
-1.79626
32.1773
66.6462
101.217
135.524
169.17
201.749
232.87
262.148
289.201
313.677
335.25
353.625
368.539
379.756
387.098
390.437
389.648
384.795
375.93
363.098
346.514
326.412
303.076
276.838
248.069
217.164
184.536
150.597
115.753
80.4044
44.9359
9.71206
-24.9228
-58.6446
-91.1756
-122.261
-151.69
-179.292
-204.944
-228.567
-250.119
-269.595
-287.023
-302.447
-315.923
-327.523
-337.315
-345.371
-351.754
-356.521
-359.721
-361.407
-361.585
-360.274
-357.536
-353.356
-347.74
-340.688
-332.198
-322.262
-310.872
-298.019
-283.701
-267.911
-250.645
-231.894
-211.654
-189.929
-166.722
-142.046
-115.939
-88.4632
-59.7126
-29.8846
1.83892
33.5325
65.9211
98.6537
131.396
163.795
195.472
226.033
255.066
282.159
306.906
328.921
347.839
363.33
375.113
382.958
386.694
386.133
381.381
372.401
359.257
342.162
321.362
297.17
269.966
240.172
208.249
174.679
139.957
104.57
68.9904
33.6587
-1.02469
-34.6854
-67.0678
-97.9112
-127.031
-154.295
-179.616
-202.949
-224.282
-243.628
-261.024
-276.524
-290.192
-302.097
-312.312
-320.906
-327.95
-333.513
-337.657
-340.44
-341.925
-342.156
-341.169
-339.004
-335.687
-331.216
-325.584
-318.771
-310.751
-301.483
-290.925
-279.026
-265.737
-251.01
-234.801
-217.075
-197.812
-176.992
-154.61
-130.674
-105.21
-78.2765
-49.9632
-20.3944
10.2663
41.8392
73.9529
106.349
138.704
170.649
201.784
231.685
259.913
286.025
309.585
330.179
347.426
360.995
370.614
376.083
377.216
374.075
366.648
355.064
339.517
320.298
297.747
272.261
244.273
214.246
182.651
149.962
116.636
83.1038
49.7577
16.9488
-15.0162
-45.8844
-75.4396
-103.514
-129.983
-154.762
-177.798
-199.068
-218.571
-236.329
-252.375
-266.755
-279.524
-290.735
-300.443
-308.698
-315.55
-321.042
-325.209
-328.073
-329.66
-329.952
-328.947
-326.767
-323.34
-318.632
-312.631
-305.327
-296.69
-286.658
-275.178
-262.175
-247.567
-231.304
-213.32
-193.621
-172.224
-149.192
-124.665
-98.8546
-71.9211
-44.263
-15.6296
28.4697
62.478
96.7841
131.042
164.768
197.547
228.784
257.971
284.69
308.461
328.952
345.824
358.813
367.747
372.443
372.889
370.287
363.814
353.443
339.338
321.684
300.73
276.728
250.061
221.168
190.431
158.304
125.201
91.5396
57.728
24.1333
-8.84403
-40.9167
-72.0238
-101.869
-130.267
-157.07
-182.179
-205.527
-227.067
-246.783
-264.677
-280.761
-295.062
-307.616
-318.459
-327.633
-335.174
-341.124
-345.512
-348.383
-349.758
-349.634
-347.972
-344.8
-340.136
-333.988
-326.322
-317.117
-306.349
-293.968
-279.945
-264.225
-246.786
-227.61
-206.657
-183.924
341.898
360.489
375.526
386.843
394.327
397.797
397.018
392.193
383.439
370.729
354.229
334.18
310.91
284.736
256.06
225.265
192.771
159.048
124.487
89.4947
54.4875
19.8063
-14.1905
-47.1461
-78.8063
-109.127
-137.92
-165.036
-190.385
-213.916
-235.597
-255.432
-273.439
-289.651
-304.109
-316.86
-327.953
-337.44
-345.365
-351.774
-356.705
-360.195
-362.262
-362.895
-361.893
-359.449
-355.544
-350.168
-343.267
-334.812
-324.774
-313.08
-299.703
-284.58
-267.659
-248.914
-228.328
-205.876
-181.57
-155.47
-127.623
-98.1676
-67.2366
-35.0571
-1.90749
32.0888
66.584
101.184
135.521
169.201
201.814
232.97
262.283
289.369
313.877
335.48
353.883
368.819
380.055
387.411
390.766
389.966
385.106
376.23
363.381
346.773
326.642
303.275
277.002
248.197
217.256
184.592
150.617
115.74
80.3611
44.864
9.6142
-25.0436
-58.7845
-91.3318
-122.43
-151.867
-179.474
-205.129
-228.75
-250.299
-269.771
-287.192
-302.609
-316.078
-327.67
-337.456
-345.505
-351.883
-356.646
-359.843
-361.525
-361.698
-360.39
-357.65
-353.47
-347.854
-340.804
-332.314
-322.38
-310.991
-298.14
-283.824
-268.036
-250.772
-232.023
-211.787
-190.064
-166.858
-142.182
-116.074
-88.5924
-59.8294
-29.9386
1.66983
33.4331
65.8488
98.6059
131.375
163.804
195.514
226.109
255.178
282.308
307.092
329.141
348.09
363.61
375.416
383.277
387.022
386.48
381.704
372.717
359.556
342.435
321.603
297.374
270.13
240.294
208.328
174.716
139.953
104.529
68.9156
33.5548
-1.15298
-34.8331
-67.23
-98.0833
-127.209
-154.475
-179.796
-203.126
-224.454
-243.795
-261.184
-276.677
-290.337
-302.235
-312.443
-321.031
-328.069
-333.626
-337.764
-340.543
-342.024
-342.251
-341.259
-339.095
-335.778
-331.308
-325.677
-318.867
-310.85
-301.587
-291.033
-279.14
-265.856
-251.133
-234.929
-217.208
-197.948
-177.131
-154.751
-130.816
-105.351
-78.4141
-50.0936
-20.5163
10.1568
41.7514
73.8848
106.305
138.689
170.666
201.837
231.775
260.043
286.194
309.793
330.423
347.702
361.297
370.936
376.416
377.567
374.402
366.968
355.364
339.79
320.537
297.949
272.422
244.393
214.323
182.689
149.962
116.601
83.0392
49.6672
16.837
-15.1456
-46.0271
-75.5919
-103.672
-130.145
-154.924
-177.959
-199.225
-218.724
-236.477
-252.517
-266.892
-279.654
-290.86
-300.562
-308.812
-315.66
-321.148
-325.313
-328.174
-329.759
-330.048
-329.046
-326.87
-323.44
-318.733
-312.734
-305.432
-296.798
-286.773
-275.299
-262.302
-247.701
-231.445
-213.465
-193.769
-172.372
-149.338
-124.806
-98.9831
-72.0387
-44.3721
-15.7743
28.4129
62.3908
96.723
131.018
164.785
197.605
228.885
258.113
284.872
308.68
329.205
346.106
359.118
368.069
372.784
373.239
370.6
364.121
353.743
339.617
321.933
300.947
276.907
250.201
221.269
190.493
158.328
125.191
91.4984
57.6595
24.0409
-8.95613
-41.0473
-72.1665
-102.021
-130.425
-157.232
-182.343
-205.691
-227.229
-246.941
-264.831
-280.911
-295.207
-307.757
-318.595
-327.764
-335.302
-341.248
-345.634
-348.503
-349.877
-349.745
-348.089
-344.917
-340.254
-334.107
-326.443
-317.242
-306.479
-294.102
-280.085
-264.37
-246.936
-227.763
-206.814
-184.081
342.228
360.864
375.94
387.285
394.784
398.262
397.515
392.677
383.898
371.158
354.619
334.525
311.204
284.974
256.242
225.388
192.837
159.061
124.45
89.4125
54.3639
19.6465
-14.3811
-47.3533
-79.0318
-109.366
-138.168
-165.287
-190.637
-214.165
-235.842
-255.67
-273.669
-289.872
-304.322
-317.065
-328.15
-337.629
-345.548
-351.951
-356.877
-360.364
-362.429
-363.06
-362.063
-359.618
-355.716
-350.346
-343.451
-335.002
-324.97
-313.286
-299.917
-284.803
-267.89
-249.152
-228.572
-206.124
-181.819
-155.716
-127.863
-98.3957
-67.4467
-35.2484
-2.07426
31.9558
66.4904
101.133
135.518
169.247
201.911
233.12
262.484
289.621
314.177
335.826
354.269
369.24
380.504
387.88
391.248
390.452
385.576
376.681
363.807
347.163
326.989
303.574
277.25
248.391
217.395
184.677
150.65
115.723
80.2976
44.7575
9.46886
-25.2233
-58.993
-91.5644
-122.681
-152.132
-179.747
-205.404
-229.024
-250.568
-270.033
-287.444
-302.85
-316.309
-327.89
-337.665
-345.706
-352.075
-356.832
-360.023
-361.7
-361.867
-360.561
-357.819
-353.639
-348.024
-340.974
-332.487
-322.554
-311.168
-298.32
-284.007
-268.223
-250.961
-232.215
-211.983
-190.263
-167.059
-142.384
-116.273
-88.7844
-60.0047
-30.0532
1.45384
33.2885
65.7426
98.5366
131.346
163.82
195.58
226.227
255.35
282.534
307.373
329.474
348.47
364.031
375.872
383.759
387.517
386.996
382.196
373.194
360.007
342.847
321.966
297.683
270.378
240.479
208.448
174.772
139.949
104.469
68.8052
33.4008
-1.3433
-35.0533
-67.4716
-98.3397
-127.474
-154.744
-180.064
-203.39
-224.711
-244.043
-261.422
-276.904
-290.553
-302.441
-312.638
-321.216
-328.245
-333.793
-337.924
-340.696
-342.171
-342.392
-341.395
-339.231
-335.912
-331.443
-325.815
-319.01
-310.998
-301.741
-291.195
-279.309
-266.033
-251.317
-235.12
-217.405
-198.15
-177.338
-154.961
-131.027
-105.561
-78.6185
-50.2879
-20.6979
9.99428
41.6216
73.7842
106.241
138.668
170.694
201.917
231.913
260.239
286.45
310.106
330.79
348.117
361.753
371.421
376.919
378.09
374.898
367.452
355.816
340.202
320.899
298.254
272.667
244.575
214.442
182.747
149.963
116.551
82.944
49.5332
16.671
-15.3377
-46.2393
-75.8185
-103.908
-130.385
-155.165
-178.198
-199.46
-218.952
-236.697
-252.729
-267.094
-279.847
-291.045
-300.739
-308.981
-315.823
-321.307
-325.467
-328.325
-329.906
-330.192
-329.196
-327.021
-323.59
-318.884
-312.888
-305.59
-296.962
-286.945
-275.48
-262.493
-247.902
-231.655
-213.684
-193.991
-172.594
-149.558
-125.017
-99.1764
-72.2148
-44.5339
-15.9827
28.3185
62.2574
96.6307
130.983
164.809
197.693
229.036
258.325
285.145
309.009
329.585
346.529
359.576
368.554
373.292
373.757
371.078
364.586
354.195
340.036
322.308
301.272
277.176
250.412
221.42
190.586
158.365
125.176
91.4363
57.5565
23.902
-9.12485
-41.2431
-72.3805
-102.249
-130.663
-157.475
-182.589
-205.936
-227.471
-247.179
-265.063
-281.136
-295.425
-307.967
-318.798
-327.961
-335.493
-341.434
-345.817
-348.683
-350.053
-349.914
-348.264
-345.092
-340.431
-334.286
-326.626
-317.43
-306.673
-294.304
-280.293
-264.587
-247.161
-227.994
-207.049
-184.318
342.669
361.365
376.491
387.876
395.399
398.887
398.167
393.322
384.511
371.73
355.14
334.985
311.596
285.292
256.483
225.551
192.926
159.078
124.401
89.3026
54.1985
19.4332
-14.6353
-47.6301
-79.333
-109.685
-138.498
-165.623
-190.973
-214.498
-236.168
-255.987
-273.976
-290.168
-304.606
-317.337
-328.412
-337.881
-345.792
-352.187
-357.107
-360.588
-362.65
-363.283
-362.288
-359.844
-355.946
-350.583
-343.696
-335.256
-325.233
-313.56
-300.203
-285.1
-268.197
-249.469
-228.898
-206.454
-182.151
-156.046
-128.183
-98.7003
-67.7275
-35.5046
-2.29652
31.7783
66.3651
101.066
135.513
169.308
202.041
233.319
262.753
289.957
314.578
336.286
354.783
369.801
381.103
388.506
391.883
391.102
386.21
377.285
364.375
347.684
327.452
303.973
277.58
248.649
217.581
184.79
150.693
115.7
80.2128
44.6154
9.27494
-25.4631
-59.271
-91.8748
-123.016
-152.485
-180.11
-205.772
-229.39
-250.927
-270.382
-287.78
-303.172
-316.616
-328.182
-337.944
-345.972
-352.331
-357.079
-360.263
-361.933
-362.094
-360.789
-358.045
-353.863
-348.249
-341.202
-332.717
-322.787
-311.403
-298.56
-284.251
-268.47
-251.212
-232.472
-212.244
-190.528
-167.326
-142.653
-116.539
-89.0409
-60.2414
-30.2389
1.19853
33.099
65.6014
98.4443
131.308
163.842
195.667
226.384
255.579
282.837
307.747
329.917
348.977
364.595
376.482
384.402
388.179
387.676
382.86
373.832
360.609
343.397
322.452
298.096
270.71
240.725
208.608
174.848
139.944
104.389
68.658
33.1952
-1.59697
-35.3472
-67.7939
-98.6816
-127.828
-155.102
-180.421
-203.742
-225.054
-244.374
-261.74
-277.207
-290.842
-302.714
-312.897
-321.462
-328.479
-334.017
-338.137
-340.899
-342.366
-342.578
-341.577
-339.411
-336.092
-331.624
-325.999
-319.199
-311.194
-301.947
-291.41
-279.534
-266.269
-251.563
-235.374
-217.668
-198.42
-177.614
-155.241
-131.308
-105.841
-78.8911
-50.5475
-20.9396
9.77641
41.4486
73.6499
106.156
138.64
170.731
202.025
232.096
260.501
286.791
310.525
331.281
348.672
362.361
372.07
377.59
378.778
375.571
368.099
356.422
340.753
321.383
298.662
272.993
244.817
214.601
182.824
149.965
116.485
82.8171
49.3547
16.4497
-15.5938
-46.5221
-76.1204
-104.222
-130.705
-155.487
-178.516
-199.772
-219.256
-236.99
-253.011
-267.364
-280.105
-291.291
-300.974
-309.207
-316.041
-321.519
-325.672
-328.526
-330.103
-330.387
-329.398
-327.221
-323.79
-319.085
-313.093
-305.8
-297.179
-287.174
-275.721
-262.748
-248.17
-231.936
-213.975
-194.287
-172.891
-149.851
-125.299
-99.435
-72.4493
-44.7461
-16.2433
28.1741
62.0751
96.5065
130.934
164.842
197.809
229.238
258.608
285.51
309.449
330.091
347.093
360.187
369.2
373.967
374.439
371.729
365.212
354.798
340.596
322.807
301.705
277.535
250.692
221.622
190.709
158.415
125.156
91.353
57.4186
23.7163
-9.35082
-41.5042
-72.6661
-102.553
-130.98
-157.8
-182.916
-206.263
-227.794
-247.495
-265.372
-281.436
-295.715
-308.248
-319.07
-328.224
-335.748
-341.682
-346.061
-348.922
-350.285
-350.145
-348.497
-345.326
-340.666
-334.525
-326.87
-317.681
-306.931
-294.572
-280.572
-264.876
-247.46
-228.302
-207.363
-184.634
343.221
361.99
377.181
388.616
396.17
399.675
398.975
394.127
385.277
372.445
355.791
335.56
312.086
285.69
256.785
225.755
193.036
159.099
124.34
89.1646
53.9908
19.1657
-14.9533
-47.9767
-79.7101
-110.084
-138.911
-166.044
-191.394
-214.914
-236.576
-256.383
-274.359
-290.537
-304.961
-317.678
-328.74
-338.197
-346.096
-352.482
-357.395
-360.869
-362.926
-363.562
-362.569
-360.127
-356.234
-350.878
-344.002
-335.573
-325.561
-313.902
-300.559
-285.471
-268.582
-249.866
-229.305
-206.868
-182.566
-156.457
-128.584
-99.0817
-68.0801
-35.8259
-2.57433
31.5561
66.2078
100.981
135.506
169.385
202.203
233.568
263.089
290.377
315.079
336.862
355.427
370.504
381.852
389.288
392.679
391.908
387.005
378.042
365.086
348.336
328.032
304.472
277.993
248.972
217.812
184.932
150.747
115.671
80.1061
44.4371
9.03175
-25.7636
-59.6194
-92.2636
-123.437
-152.926
-180.565
-206.232
-229.847
-251.376
-270.818
-288.201
-303.574
-316.999
-328.548
-338.293
-346.305
-352.651
-357.388
-360.563
-362.223
-362.38
-361.073
-358.326
-354.144
-348.531
-341.486
-333.005
-323.078
-311.699
-298.86
-284.555
-268.78
-251.527
-232.792
-212.571
-190.86
-167.662
-142.99
-116.872
-89.3632
-60.5411
-30.4938
0.900515
32.8648
65.4248
98.3285
131.26
163.869
195.776
226.579
255.865
283.215
308.216
330.473
349.612
365.3
377.244
385.207
389.01
388.52
383.697
374.633
361.363
344.086
323.06
298.612
271.125
241.033
208.808
174.942
139.937
104.288
68.4729
32.9372
-1.91508
-35.7154
-68.1977
-99.11
-128.271
-155.551
-180.869
-204.182
-225.483
-244.788
-262.137
-277.587
-291.202
-303.056
-313.221
-321.77
-328.773
-334.296
-338.403
-341.154
-342.609
-342.812
-341.806
-339.635
-336.315
-331.849
-326.23
-319.437
-311.441
-302.204
-291.678
-279.816
-266.564
-251.87
-235.693
-217.997
-198.758
-177.959
-155.591
-131.661
-106.191
-79.2325
-50.8729
-21.2421
9.50201
41.2318
73.4811
106.049
138.604
170.776
202.159
232.325
260.828
287.217
311.048
331.894
349.367
363.123
372.881
378.431
379.631
376.419
368.91
357.18
341.442
321.988
299.172
273.401
245.12
214.799
182.921
149.967
116.401
82.6577
49.1308
16.1725
-15.9145
-46.8763
-76.4983
-104.616
-131.106
-155.889
-178.914
-200.162
-219.636
-237.357
-253.363
-267.701
-280.427
-291.599
-301.268
-309.49
-316.314
-321.783
-325.929
-328.777
-330.348
-330.632
-329.647
-327.471
-324.04
-319.337
-313.35
-306.063
-297.451
-287.46
-276.023
-263.066
-248.506
-232.287
-214.34
-194.659
-173.263
-150.219
-125.652
-99.7594
-72.7418
-45.006
-16.5366
27.9598
61.8408
96.3496
130.874
164.882
197.954
229.49
258.961
285.965
309.998
330.725
347.8
360.952
370.008
374.806
375.281
372.553
366.003
355.554
341.296
323.432
302.247
277.983
251.043
221.873
190.863
158.475
125.13
91.2482
57.2453
23.4832
-9.63459
-41.8307
-73.0233
-102.934
-131.376
-158.206
-183.326
-206.672
-228.198
-247.891
-265.758
-281.811
-296.078
-308.599
-319.409
-328.552
-336.066
-341.992
-346.364
-349.219
-350.576
-350.435
-348.788
-345.617
-340.96
-334.824
-327.174
-317.994
-307.254
-294.907
-280.92
-265.237
-247.835
-228.687
-207.755
-185.029
343.883
362.741
378.008
389.504
397.099
400.626
399.942
395.091
386.195
373.303
356.573
336.251
312.674
286.166
257.146
226
193.168
159.124
124.265
88.9981
53.7404
18.8439
-15.3355
-48.3938
-80.1637
-110.564
-139.408
-166.549
-191.9
-215.414
-237.065
-256.86
-274.82
-290.981
-305.387
-318.087
-329.133
-338.575
-346.462
-352.836
-357.739
-361.206
-363.258
-363.896
-362.905
-360.465
-356.579
-351.233
-344.369
-335.954
-325.956
-314.314
-300.987
-285.916
-269.044
-250.343
-229.794
-207.364
-183.065
-156.952
-129.066
-99.5402
-68.5052
-36.2123
-2.90796
31.2887
66.0182
100.878
135.497
169.476
202.397
233.867
263.492
290.881
315.68
337.554
356.2
371.347
382.751
390.227
393.639
392.875
387.958
378.952
365.94
349.118
328.727
305.071
278.488
249.359
218.09
185.101
150.811
115.636
79.977
44.2218
8.73883
-26.1254
-60.0388
-92.7314
-123.942
-153.458
-181.113
-206.785
-230.397
-251.916
-271.342
-288.706
-304.057
-317.461
-328.988
-338.711
-346.705
-353.035
-357.758
-360.922
-362.572
-362.724
-361.414
-358.664
-354.482
-348.87
-341.828
-333.351
-323.428
-312.053
-299.22
-284.921
-269.151
-251.905
-233.177
-212.963
-191.259
-168.065
-143.394
-117.273
-89.7518
-60.905
-30.8163
0.557042
32.5858
65.2123
98.1885
131.201
163.9
195.905
226.813
256.208
283.668
308.778
331.139
350.374
366.146
378.161
386.175
390.008
389.531
384.702
375.596
362.269
344.913
323.791
299.231
271.622
241.403
209.048
175.055
139.927
104.166
68.2494
32.626
-2.29853
-36.1587
-68.6839
-99.6255
-128.804
-156.091
-181.406
-204.712
-225.999
-245.286
-262.614
-278.042
-291.635
-303.467
-313.611
-322.141
-329.125
-334.631
-338.723
-341.46
-342.9
-343.093
-342.08
-339.905
-336.584
-332.121
-326.507
-319.722
-311.737
-302.512
-292.002
-280.154
-266.918
-252.24
-236.076
-218.392
-199.164
-178.374
-156.013
-132.085
-106.611
-79.6433
-51.265
-21.6058
9.17018
40.9711
73.2769
105.918
138.56
170.829
202.318
232.598
261.22
287.729
311.676
332.631
350.201
364.038
373.856
379.442
380.654
377.437
369.885
358.092
342.27
322.715
299.785
273.891
245.483
215.036
183.036
149.967
116.299
82.4651
48.8609
15.8387
-16.3006
-47.3024
-76.9527
-105.088
-131.588
-156.372
-179.393
-200.631
-220.092
-237.797
-253.786
-268.106
-280.814
-291.968
-301.622
-309.829
-316.642
-322.1
-326.237
-329.078
-330.644
-330.928
-329.944
-327.77
-324.34
-319.639
-313.658
-306.379
-297.778
-287.803
-276.385
-263.448
-248.908
-232.709
-214.778
-195.106
-173.711
-150.66
-126.077
-100.15
-73.092
-45.3114
-16.8433
27.6551
61.5513
96.1593
130.8
164.929
198.127
229.792
259.386
286.512
310.658
331.487
348.649
361.871
370.979
375.811
376.291
373.544
366.958
356.464
342.137
324.183
302.897
278.521
251.463
222.175
191.047
158.547
125.098
91.1213
57.036
23.2023
-9.97665
-42.2229
-73.4526
-103.391
-131.853
-158.695
-183.819
-207.163
-228.683
-248.367
-266.221
-282.261
-296.514
-309.02
-319.816
-328.946
-336.448
-342.364
-346.728
-349.575
-350.926
-350.784
-349.137
-345.966
-341.312
-335.182
-327.54
-318.37
-307.642
-295.309
-281.337
-265.671
-248.284
-229.15
-208.227
-185.504
344.656
363.617
378.975
390.541
398.186
401.742
401.073
396.212
387.267
374.306
357.486
337.058
313.361
286.722
257.568
226.284
193.32
159.152
124.176
88.8026
53.4468
18.4671
-15.7823
-48.8819
-80.6943
-111.125
-139.988
-167.138
-192.49
-215.998
-237.637
-257.415
-275.357
-291.498
-305.884
-318.565
-329.591
-339.017
-346.888
-353.249
-358.141
-361.599
-363.646
-364.29
-363.295
-360.86
-356.982
-351.647
-344.797
-336.397
-326.416
-314.794
-301.486
-286.436
-269.583
-250.899
-230.365
-207.944
-183.649
-157.53
-129.63
-100.076
-69.0039
-36.6636
-3.29825
30.9755
65.7958
100.757
135.486
169.581
202.623
234.215
263.962
291.468
316.381
338.361
357.102
372.331
383.802
391.324
394.761
394.005
389.07
380.016
366.938
350.03
329.54
305.77
279.066
249.81
218.413
185.297
150.885
115.593
79.825
43.9691
8.39546
-26.5497
-60.5296
-93.2789
-124.533
-154.08
-181.753
-207.431
-231.04
-252.547
-271.954
-289.295
-304.622
-317.999
-329.5
-339.2
-347.172
-353.483
-358.19
-361.342
-362.98
-363.125
-361.811
-359.059
-354.876
-349.266
-342.227
-333.754
-323.837
-312.468
-299.641
-285.348
-269.585
-252.347
-233.627
-213.421
-191.725
-168.537
-143.867
-117.742
-90.2074
-61.334
-31.2051
0.165411
32.2619
64.9637
98.0238
131.131
163.935
196.055
227.085
256.607
284.197
309.434
331.917
351.264
367.135
379.231
387.306
391.176
390.712
385.874
376.723
363.328
345.88
324.645
299.955
272.203
241.833
209.327
175.184
139.915
104.021
67.9866
32.2608
-2.74828
-36.6778
-69.253
-100.229
-129.427
-156.722
-182.035
-205.33
-226.601
-245.867
-263.172
-278.574
-292.141
-303.946
-314.067
-322.574
-329.536
-335.023
-339.097
-341.817
-343.242
-343.421
-342.4
-340.219
-336.898
-332.438
-326.83
-320.054
-312.082
-302.872
-292.379
-280.55
-267.332
-252.672
-236.523
-218.854
-199.639
-178.859
-156.505
-132.58
-107.104
-80.124
-51.7238
-22.0316
8.77999
40.6661
73.0363
105.764
138.507
170.889
202.503
232.916
261.676
288.325
312.409
333.492
351.175
365.107
374.996
380.625
381.852
378.625
371.025
359.157
343.237
323.564
300.5
274.462
245.906
215.311
183.168
149.967
116.178
82.2386
48.5441
15.4474
-16.7524
-47.8008
-77.4843
-105.641
-132.151
-156.937
-179.951
-201.179
-220.624
-238.311
-254.28
-268.579
-281.265
-292.399
-302.033
-310.224
-317.024
-322.47
-326.596
-329.43
-330.99
-331.273
-330.292
-328.118
-324.691
-319.991
-314.017
-306.747
-298.159
-288.203
-276.808
-263.894
-249.378
-233.201
-215.289
-195.629
-174.235
-151.175
-126.574
-100.609
-73.4998
-45.6609
-17.1681
27.2638
61.2043
95.9347
130.713
164.984
198.329
230.143
259.885
287.151
311.429
332.376
349.64
362.944
372.113
376.984
377.47
374.704
368.077
357.526
343.12
325.061
303.656
279.15
251.953
222.525
191.261
158.63
125.059
90.9717
56.79
22.8731
-10.3775
-42.6812
-73.9543
-103.926
-132.41
-159.265
-184.394
-207.736
-229.249
-248.922
-266.762
-282.786
-297.022
-309.511
-320.291
-329.406
-336.894
-342.797
-347.151
-349.991
-351.335
-351.191
-349.543
-346.374
-341.723
-335.599
-327.966
-318.808
-308.094
-295.779
-281.825
-266.178
-248.809
-229.69
-208.778
-186.058
345.54
364.619
380.08
391.729
399.431
403.021
402.367
397.492
388.492
375.453
358.531
337.981
314.147
287.357
258.048
226.608
193.493
159.182
124.073
88.5776
53.1094
18.0346
-16.2944
-49.4416
-81.3024
-111.768
-140.653
-167.814
-193.166
-216.666
-238.292
-258.051
-275.971
-292.089
-306.452
-319.11
-330.115
-339.521
-347.375
-353.721
-358.6
-362.048
-364.09
-364.738
-363.74
-361.31
-357.441
-352.12
-345.285
-336.904
-326.942
-315.343
-302.056
-287.03
-270.199
-251.535
-231.018
-208.608
-184.316
-158.192
-130.276
-100.691
-69.5767
-37.1802
-3.74593
30.6158
65.54
100.617
135.472
169.7
202.88
234.612
264.499
292.14
317.183
339.284
358.134
373.457
385.003
392.58
396.046
395.297
390.341
381.234
368.08
351.075
330.469
306.569
279.726
250.325
218.781
185.52
150.968
115.542
79.6493
43.6785
8.00076
-27.0368
-61.0925
-93.9072
-125.211
-154.793
-182.486
-208.172
-231.777
-253.269
-272.655
-289.97
-305.267
-318.615
-330.087
-339.758
-347.706
-353.995
-358.684
-361.821
-363.447
-363.584
-362.265
-359.509
-355.326
-349.719
-342.684
-334.215
-324.304
-312.942
-300.122
-285.836
-270.082
-252.852
-234.142
-213.946
-192.258
-169.077
-144.409
-118.279
-90.7305
-61.8292
-31.6599
-0.275529
31.8925
64.6783
97.8338
131.049
163.973
196.224
227.395
257.063
284.8
310.184
332.806
352.283
368.267
380.456
388.601
392.514
392.065
387.215
378.013
364.54
346.987
325.622
300.782
272.866
242.325
209.645
175.331
139.898
103.854
67.6836
31.8407
-3.26542
-37.2736
-69.906
-100.921
-130.142
-157.445
-182.755
-206.038
-227.29
-246.533
-263.81
-279.182
-292.719
-304.495
-314.587
-323.068
-330.006
-335.47
-339.524
-342.225
-343.632
-343.797
-342.766
-340.579
-337.256
-332.799
-327.199
-320.435
-312.477
-303.284
-292.811
-281.003
-267.806
-253.166
-237.036
-219.383
-200.182
-179.414
-157.069
-133.148
-107.668
-80.6751
-52.2497
-22.5201
8.32986
40.3171
72.7584
105.585
138.443
170.955
202.712
233.278
262.197
289.007
313.247
334.477
352.291
366.331
376.301
381.98
383.225
379.984
372.33
360.377
344.345
324.535
301.318
275.115
246.388
215.624
183.318
149.964
116.038
81.9774
48.1798
14.9981
-17.2706
-48.3722
-78.0936
-106.274
-132.795
-157.583
-180.591
-201.805
-221.233
-238.899
-254.844
-269.119
-281.781
-292.891
-302.504
-310.677
-317.46
-322.892
-327.006
-329.832
-331.386
-331.667
-330.686
-328.515
-325.091
-320.395
-314.426
-307.166
-298.595
-288.66
-277.291
-264.404
-249.915
-233.764
-215.875
-196.228
-174.836
-151.766
-127.144
-101.136
-73.9654
-46.0535
-17.5132
26.7869
60.7977
95.6752
130.612
165.045
198.558
230.544
260.454
287.882
312.311
333.394
350.775
364.173
373.412
378.324
378.817
376.033
369.361
358.742
344.245
326.065
304.524
279.868
252.512
222.925
191.504
158.723
125.013
90.7988
56.5063
22.4948
-10.8375
-43.2062
-74.529
-104.538
-133.048
-159.918
-185.052
-208.392
-229.897
-249.557
-267.381
-283.386
-297.603
-310.073
-320.834
-329.931
-337.403
-343.292
-347.635
-350.465
-351.803
-351.656
-350.006
-346.839
-342.192
-336.076
-328.454
-319.308
-308.611
-296.315
-282.382
-266.757
-249.409
-230.309
-209.408
-186.692
346.534
365.748
381.325
393.068
400.836
404.465
403.825
398.931
389.872
376.745
359.709
339.02
315.031
288.071
258.587
226.971
193.686
159.215
123.956
88.3227
52.7286
17.5453
-16.8728
-50.0736
-81.9884
-112.493
-141.402
-168.575
-193.927
-217.418
-239.028
-258.767
-276.663
-292.754
-307.091
-319.724
-330.705
-340.088
-347.922
-354.251
-359.117
-362.554
-364.589
-365.241
-364.241
-361.816
-357.958
-352.651
-345.835
-337.473
-327.534
-315.96
-302.697
-287.699
-270.892
-252.251
-231.753
-209.355
-185.069
-158.938
-131.005
-101.384
-70.2243
-37.7623
-4.2518
30.2088
65.2501
100.458
135.454
169.833
203.169
235.058
265.102
292.896
318.085
340.323
359.296
374.726
386.356
393.995
397.496
396.754
391.772
382.606
369.367
352.252
331.515
307.468
280.468
250.903
219.194
185.77
151.059
115.483
79.4493
43.3491
7.55417
-27.5873
-61.7287
-94.617
-125.977
-155.598
-183.314
-209.008
-232.607
-254.083
-273.445
-290.73
-305.994
-319.308
-330.746
-340.387
-348.306
-354.571
-359.24
-362.361
-363.972
-364.101
-362.776
-360.017
-355.833
-350.228
-343.198
-334.735
-324.831
-313.476
-300.664
-286.387
-270.641
-253.421
-234.721
-214.536
-192.859
-169.685
-145.021
-118.885
-91.3215
-62.3911
-32.1801
-0.768176
31.477
64.3555
97.6176
130.954
164.014
196.413
227.742
257.574
285.479
311.027
333.807
353.429
369.542
381.837
390.061
394.022
393.591
388.726
379.468
365.907
348.235
326.722
301.713
273.613
242.878
210
175.493
139.877
103.663
67.3393
31.3643
-3.85089
-37.9471
-70.6438
-101.702
-130.948
-158.261
-183.567
-206.837
-228.067
-247.283
-264.528
-279.867
-293.37
-305.113
-315.174
-323.625
-330.536
-335.974
-340.004
-342.684
-344.071
-344.22
-343.176
-340.983
-337.659
-333.207
-327.614
-320.863
-312.921
-303.749
-293.297
-281.513
-268.34
-253.723
-237.613
-219.979
-200.794
-180.04
-157.705
-133.788
-108.305
-81.2976
-52.8437
-23.0714
7.82005
39.9221
72.4416
105.381
138.369
171.028
202.946
233.684
262.782