/*--------------------------------*- C++ -*----------------------------------*\
| =========                 |                                                 |
| \\      /  F ield         | OpenFOAM: The Open Source CFD Toolbox           |
|  \\    /   O peration     | Version:  3.0.1                                 |
|   \\  /    A nd           | Web:      www.OpenFOAM.org                      |
|    \\/     M anipulation  |                                                 |
\*---------------------------------------------------------------------------*/
FoamFile
{
    version     2.0;
    format      ascii;
    class       surfaceScalarField;
    location    "50.6";
    object      phi;
}
// * * * * * * * * * * * * * * * * * * * * * * * * * * * * * * * * * * * * * //

dimensions      [0 3 -1 0 0 0 0];

internalField   nonuniform List<scalar> 
42423
(
0.000209051
6.22808e-06
0.000200959
8.09135e-06
0.000190718
1.02408e-05
0.000178406
1.23122e-05
0.000164529
1.38769e-05
0.000149067
1.54624e-05
0.000132412
1.66547e-05
0.000114751
1.76611e-05
9.63374e-05
1.84137e-05
7.74927e-05
1.88447e-05
5.83927e-05
1.91e-05
3.94588e-05
1.89339e-05
2.06951e-05
1.87637e-05
2.372e-06
1.83231e-05
-1.53992e-05
1.77712e-05
-3.24753e-05
1.70761e-05
-4.8708e-05
1.62327e-05
-6.40233e-05
1.53153e-05
-7.84148e-05
1.43916e-05
-9.17933e-05
1.33785e-05
-0.000104154
1.23603e-05
-0.000115519
1.1365e-05
-0.000125884
1.03658e-05
-0.000135264
9.37967e-06
-0.000143691
8.42738e-06
-0.000151183
7.49125e-06
-0.000157784
6.60144e-06
-0.000163527
5.74277e-06
-0.000168439
4.91212e-06
-0.000172562
4.12262e-06
-0.000175921
3.35989e-06
-0.000178529
2.60754e-06
-0.000180412
1.88311e-06
-0.000181605
1.19284e-06
-0.000182105
5.00124e-07
-0.000181883
-2.22495e-07
-0.000180895
-9.87304e-07
-0.000179206
-1.6894e-06
-0.000176804
-2.40148e-06
-0.000173622
-3.18222e-06
-0.000169711
-3.91168e-06
-0.000164932
-4.77874e-06
-0.000159401
-5.53066e-06
-0.000153066
-6.33559e-06
-0.000145806
-7.26001e-06
-0.000137697
-8.10874e-06
-0.000128712
-8.98477e-06
-0.000118652
-1.00598e-05
-0.00010764
-1.10127e-05
-9.57491e-05
-1.18906e-05
-8.28198e-05
-1.29293e-05
-6.8961e-05
-1.38588e-05
-5.40541e-05
-1.49069e-05
-3.83013e-05
-1.57529e-05
-2.18077e-05
-1.64937e-05
-4.60168e-06
-1.72061e-05
1.33042e-05
-1.7906e-05
3.15189e-05
-1.82147e-05
5.01112e-05
-1.85924e-05
6.87187e-05
-1.86075e-05
8.72362e-05
-1.85176e-05
0.000105492
-1.82555e-05
0.000123063
-1.75713e-05
0.000139786
-1.67228e-05
0.000155492
-1.57066e-05
0.00016979
-1.42982e-05
0.000182565
-1.27747e-05
0.000193551
-1.09862e-05
0.000202648
-9.09725e-06
0.000209732
-7.08327e-06
0.000214483
-4.75152e-06
0.000216988
-2.50521e-06
0.000217123
-1.35312e-07
0.000214854
2.26956e-06
0.000210199
4.65508e-06
0.000203309
6.89001e-06
0.00019431
8.99904e-06
0.000183331
1.09785e-05
0.000170553
1.27781e-05
0.000156142
1.44114e-05
0.000140334
1.5808e-05
0.000123405
1.69282e-05
0.000105736
1.76697e-05
8.74869e-05
1.82488e-05
6.89058e-05
1.8581e-05
5.02185e-05
1.86873e-05
3.16449e-05
1.85736e-05
1.33692e-05
1.82757e-05
-4.51202e-06
1.78812e-05
-2.18227e-05
1.73107e-05
-3.85258e-05
1.67031e-05
-5.44898e-05
1.59639e-05
-6.96458e-05
1.5156e-05
-8.39143e-05
1.42686e-05
-9.72154e-05
1.33011e-05
-0.000109517
1.23017e-05
-0.000120776
1.12592e-05
-0.000130964
1.01873e-05
-0.00014012
9.15648e-06
-0.000148193
8.07336e-06
-0.000155241
7.04714e-06
-0.000161308
6.06729e-06
-0.0001664
5.09213e-06
-0.000170618
4.21813e-06
-0.000174003
3.38463e-06
-0.000176576
2.57363e-06
-0.000178402
1.82528e-06
-0.000179496
1.09437e-06
-0.000179935
4.389e-07
-0.000179654
-2.80798e-07
-0.000178749
-9.05464e-07
-0.000177127
-1.62166e-06
-0.000174827
-2.30012e-06
-0.000171795
-3.03188e-06
-0.000168163
-3.63196e-06
-0.000163757
-4.40637e-06
-0.000158597
-5.16001e-06
-0.000152805
-5.7919e-06
-0.000146227
-6.57785e-06
-0.000138905
-7.3223e-06
-0.000130838
-8.06715e-06
-0.000122035
-8.80273e-06
-0.000112458
-9.57643e-06
-0.000102136
-1.03229e-05
-9.10396e-05
-1.10961e-05
-7.92002e-05
-1.18395e-05
-6.66013e-05
-1.25989e-05
-5.32677e-05
-1.33337e-05
-3.92238e-05
-1.40439e-05
-2.45013e-05
-1.47226e-05
-9.07029e-06
-1.5431e-05
6.77845e-06
-1.58488e-05
2.31845e-05
-1.64061e-05
3.99426e-05
-1.67581e-05
5.69209e-05
-1.69784e-05
7.39425e-05
-1.70216e-05
9.08241e-05
-1.68817e-05
0.000107312
-1.64875e-05
0.000123201
-1.58891e-05
0.000138213
-1.50127e-05
0.000152129
-1.39162e-05
0.000164701
-1.2572e-05
0.000175667
-1.09656e-05
0.000184873
-9.20578e-06
0.000192086
-7.21374e-06
0.000197088
-5.00199e-06
0.0001998
-2.71136e-06
0.000200169
-3.69236e-07
0.000198128
2.04046e-06
0.000193633
4.49498e-06
0.000186784
6.84912e-06
0.000177719
9.06531e-06
0.000166583
1.11357e-05
0.000153488
1.30947e-05
0.000138755
1.47328e-05
0.000122612
1.61439e-05
0.000105297
1.73147e-05
8.7148e-05
1.81488e-05
6.84356e-05
1.87124e-05
4.94709e-05
1.89647e-05
3.04916e-05
1.89793e-05
1.17222e-05
1.87694e-05
-6.58128e-06
1.83035e-05
-2.42472e-05
1.76659e-05
-4.11876e-05
1.69405e-05
-5.71638e-05
1.59761e-05
-7.2161e-05
1.49972e-05
-8.61476e-05
1.39866e-05
-9.90307e-05
1.28831e-05
-0.000110848
1.18177e-05
-0.000121578
1.07294e-05
-0.000131305
9.72753e-06
-0.000140007
8.7017e-06
-0.000147742
7.7349e-06
-0.000154571
6.829e-06
-0.000160515
5.94428e-06
-0.000165623
5.1076e-06
-0.000169912
4.28912e-06
-0.000173484
3.57218e-06
-0.00017627
2.78552e-06
-0.000178424
2.15382e-06
-0.000179886
1.46249e-06
-0.000180759
8.73109e-07
-0.000181065
3.05941e-07
-0.000180786
-2.79557e-07
-0.000179951
-8.34946e-07
-0.000178578
-1.37209e-06
-0.000176628
-1.95083e-06
-0.000174168
-2.45928e-06
-0.000171106
-3.06244e-06
-0.000167493
-3.61249e-06
-0.000163258
-4.23504e-06
-0.000158364
-4.89399e-06
-0.000152825
-5.53933e-06
-0.000146612
-6.21346e-06
-0.000139882
-6.72972e-06
-0.000132493
-7.38854e-06
-0.000124454
-8.03964e-06
-0.000115716
-8.73763e-06
-0.000106167
-9.54911e-06
-9.58512e-05
-1.0316e-05
-8.45997e-05
-1.12515e-05
-7.24189e-05
-1.21809e-05
-5.9408e-05
-1.30109e-05
-4.5567e-05
-1.38411e-05
-3.10501e-05
-1.4517e-05
-1.58582e-05
-1.5192e-05
-1.81694e-07
-1.56765e-05
1.59867e-05
-1.61684e-05
3.25043e-05
-1.65177e-05
4.9194e-05
-1.66897e-05
6.59097e-05
-1.67158e-05
8.24226e-05
-1.65129e-05
9.85259e-05
-1.61034e-05
0.000113967
-1.54413e-05
0.000128503
-1.45354e-05
0.000141878
-1.33751e-05
0.000153825
-1.19478e-05
0.000164069
-1.02439e-05
0.000172378
-8.30868e-06
0.000178512
-6.1339e-06
0.0001823
-3.78841e-06
0.000183632
-1.33199e-06
0.000182504
1.12782e-06
0.000178834
3.67001e-06
0.00017271
6.12391e-06
0.00016434
8.37033e-06
0.000153896
1.04437e-05
0.000141622
1.22742e-05
0.000127826
1.37953e-05
0.000112694
1.51329e-05
9.66162e-05
1.60772e-05
7.97872e-05
1.68291e-05
6.25074e-05
1.72798e-05
4.49953e-05
1.75121e-05
2.75022e-05
1.7493e-05
1.01955e-05
1.73067e-05
-6.71259e-06
1.69081e-05
-2.31207e-05
1.64081e-05
-3.89248e-05
1.58041e-05
-5.39323e-05
1.50076e-05
-6.81546e-05
1.42223e-05
-8.14751e-05
1.33204e-05
-9.39089e-05
1.24338e-05
-0.000105467
1.15579e-05
-0.000116053
1.0586e-05
-0.000125742
9.6894e-06
-0.000134499
8.75647e-06
-0.000142363
7.86416e-06
-0.000149351
6.98855e-06
-0.000155527
6.17548e-06
-0.000160903
5.37621e-06
-0.000165511
4.60789e-06
-0.000169446
3.93511e-06
-0.000172677
3.23112e-06
-0.0001754
2.7228e-06
-0.000177507
2.10735e-06
-0.000179076
1.56825e-06
-0.00018013
1.05417e-06
-0.000180626
4.96538e-07
-0.000180557
-6.95971e-08
-0.000179912
-6.45135e-07
-0.000178643
-1.26811e-06
-0.000176814
-1.82989e-06
-0.000174319
-2.49497e-06
-0.000171294
-3.02435e-06
-0.000167584
-3.71075e-06
-0.000163367
-4.21677e-06
-0.000158533
-4.8333e-06
-0.000153022
-5.51149e-06
-0.000146863
-6.15906e-06
-0.000139887
-6.97618e-06
-0.000132141
-7.74535e-06
-0.000123441
-8.70052e-06
-0.000113769
-9.672e-06
-0.000103058
-1.07105e-05
-9.13813e-05
-1.16772e-05
-7.86512e-05
-1.27301e-05
-6.49453e-05
-1.37059e-05
-5.008e-05
-1.48653e-05
-3.4281e-05
-1.5799e-05
-1.75076e-05
-1.67735e-05
1.98902e-07
-1.77065e-05
1.90511e-05
-1.88523e-05
3.85739e-05
-1.95228e-05
5.84652e-05
-1.98914e-05
7.8246e-05
-1.97808e-05
9.77423e-05
-1.94964e-05
0.000116505
-1.87632e-05
0.000134338
-1.78326e-05
0.000150986
-1.66485e-05
0.000166048
-1.5062e-05
0.000179382
-1.33337e-05
0.000190763
-1.13814e-05
0.000199828
-9.06457e-06
0.00020653
-6.70175e-06
0.000210642
-4.11284e-06
0.000211989
-1.34634e-06
0.000211094
8.94285e-07
0.000207703
3.39136e-06
0.000201989
5.71352e-06
0.000193938
8.05182e-06
0.000183551
1.03862e-05
0.000171254
1.22977e-05
0.000157228
1.40254e-05
0.000141682
1.55461e-05
0.000125075
1.66069e-05
0.000107665
1.74104e-05
8.98229e-05
1.78418e-05
7.16122e-05
1.82106e-05
5.34715e-05
1.81408e-05
3.56204e-05
1.7851e-05
1.80578e-05
1.75627e-05
1.25918e-06
1.67986e-05
-1.48426e-05
1.61018e-05
-3.01316e-05
1.52889e-05
-4.45019e-05
1.43703e-05
-5.79456e-05
1.34437e-05
-7.04046e-05
1.2459e-05
-8.18659e-05
1.14613e-05
-9.23521e-05
1.04862e-05
-0.000101864
9.5123e-06
-0.000110429
8.56469e-06
-0.000118092
7.66268e-06
-0.00012488
6.78873e-06
-0.000130838
5.95743e-06
-0.000135996
5.1582e-06
-0.000140396
4.39942e-06
-0.000144084
3.68819e-06
-0.000147107
3.02367e-06
-0.000149481
2.37407e-06
-0.000151229
1.74792e-06
-0.000152386
1.15684e-06
-0.000152956
5.69332e-07
-0.000152951
-4.47695e-09
-0.000152355
-5.96516e-07
-0.000151189
-1.16518e-06
-0.000149518
-1.67177e-06
-0.000147184
-2.33379e-06
-0.000144274
-2.9103e-06
-0.000140855
-3.41851e-06
-0.000136703
-4.15179e-06
-0.000131977
-4.7262e-06
-0.000126479
-5.49766e-06
-0.000120309
-6.17001e-06
-0.000113482
-6.8271e-06
-0.000105722
-7.75993e-06
-9.71437e-05
-8.57856e-06
-8.7752e-05
-9.39177e-06
-7.73379e-05
-1.0414e-05
-6.6076e-05
-1.12619e-05
-5.37234e-05
-1.23526e-05
-4.05001e-05
-1.32233e-05
-2.64151e-05
-1.4085e-05
-1.12e-05
-1.52151e-05
5.00316e-06
-1.62031e-05
-1.66179e-05
0.000209142
1.24573e-05
0.000201048
1.6185e-05
0.000190803
2.04862e-05
0.000178483
2.46317e-05
0.000164598
2.77619e-05
0.000149126
3.09344e-05
0.000132461
3.33198e-05
0.000114792
3.53302e-05
9.63611e-05
3.68447e-05
7.75083e-05
3.76976e-05
5.83968e-05
3.82114e-05
3.94484e-05
3.78823e-05
2.06806e-05
3.75315e-05
2.34945e-06
3.66543e-05
-1.5425e-05
3.55457e-05
-3.25058e-05
3.41569e-05
-4.87438e-05
3.24707e-05
-6.40643e-05
3.06357e-05
-7.84563e-05
2.87836e-05
-9.18386e-05
2.67609e-05
-0.000104203
2.47248e-05
-0.00011557
2.2732e-05
-0.000125938
2.07334e-05
-0.000135316
1.87575e-05
-0.00014374
1.68518e-05
-0.000151232
1.49833e-05
-0.000157833
1.32021e-05
-0.000163577
1.14873e-05
-0.000168491
9.82568e-06
-0.000172616
8.24807e-06
-0.000175975
6.71854e-06
-0.000178582
5.21445e-06
-0.000180469
3.77008e-06
-0.000181661
2.38534e-06
-0.00018216
9.98788e-07
-0.000181935
-4.47803e-07
-0.000180947
-1.97529e-06
-0.000179255
-3.38063e-06
-0.000176855
-4.80153e-06
-0.000173674
-6.36389e-06
-0.00016976
-7.82506e-06
-0.000164983
-9.55665e-06
-0.000159453
-1.10601e-05
-0.000153118
-1.26711e-05
-0.000145857
-1.45208e-05
-0.000137747
-1.6219e-05
-0.000128764
-1.79679e-05
-0.000118703
-2.01204e-05
-0.000107693
-2.20225e-05
-9.58079e-05
-2.37761e-05
-8.28787e-05
-2.58587e-05
-6.90159e-05
-2.77217e-05
-5.41144e-05
-2.98085e-05
-3.83547e-05
-3.15127e-05
-2.18533e-05
-3.29952e-05
-4.64412e-06
-3.44154e-05
1.32748e-05
-3.58251e-05
3.15034e-05
-3.64434e-05
5.01089e-05
-3.7198e-05
6.87271e-05
-3.72259e-05
8.72584e-05
-3.7049e-05
0.000105524
-3.65211e-05
0.000123106
-3.51534e-05
0.00013984
-3.34569e-05
0.000155555
-3.14217e-05
0.000169863
-2.86059e-05
0.000182652
-2.55644e-05
0.000193642
-2.19761e-05
0.000202751
-1.82068e-05
0.000209845
-1.4177e-05
0.000214606
-9.51304e-06
0.000217107
-5.00596e-06
0.000217242
-2.69963e-07
0.000214959
4.55164e-06
0.000210313
9.30097e-06
0.000203418
1.37849e-05
0.000194414
1.80037e-05
0.000183429
2.19629e-05
0.00017064
2.55677e-05
0.000156202
2.8849e-05
0.000140392
3.16175e-05
0.000123457
3.38632e-05
0.000105779
3.53483e-05
8.75136e-05
3.65138e-05
6.89175e-05
3.71771e-05
5.02287e-05
3.73762e-05
3.16409e-05
3.71614e-05
1.33624e-05
3.65541e-05
-4.52336e-06
3.5767e-05
-2.18477e-05
3.4635e-05
-3.8563e-05
3.34185e-05
-5.45345e-05
3.19354e-05
-6.96998e-05
3.03213e-05
-8.39719e-05
2.85407e-05
-9.72763e-05
2.66055e-05
-0.000109587
2.46119e-05
-0.000120854
2.25264e-05
-0.000131039
2.03722e-05
-0.000140198
1.83164e-05
-0.000148277
1.61515e-05
-0.000155321
1.40913e-05
-0.000161381
1.21273e-05
-0.000166472
1.01831e-05
-0.000170692
8.43857e-06
-0.000174071
6.76344e-06
-0.000176639
5.14155e-06
-0.000178466
3.65202e-06
-0.000179561
2.18984e-06
-0.000179994
8.72134e-07
-0.000179719
-5.56288e-07
-0.000178811
-1.81366e-06
-0.000177189
-3.24315e-06
-0.000174891
-4.59808e-06
-0.000171858
-6.06522e-06
-0.000168226
-7.26448e-06
-0.000163828
-8.80399e-06
-0.00015868
-1.0308e-05
-0.000152882
-1.15894e-05
-0.000146304
-1.31562e-05
-0.000138983
-1.46433e-05
-0.000130923
-1.61277e-05
-0.000122122
-1.76039e-05
-0.000112558
-1.91401e-05
-0.000102234
-2.06471e-05
-9.11351e-05
-2.21949e-05
-7.92954e-05
-2.36792e-05
-6.67013e-05
-2.51931e-05
-5.33774e-05
-2.66577e-05
-3.93205e-05
-2.81009e-05
-2.46146e-05
-2.94286e-05
-9.18632e-06
-3.08594e-05
6.66318e-06
-3.16984e-05
2.30685e-05
-3.28115e-05
3.98344e-05
-3.35241e-05
5.68198e-05
-3.39639e-05
7.38506e-05
-3.40526e-05
9.07359e-05
-3.37671e-05
0.000107231
-3.29829e-05
0.000123128
-3.1786e-05
0.000138152
-3.00372e-05
0.000152086
-2.78501e-05
0.00016469
-2.51757e-05
0.000175653
-2.19292e-05
0.000184862
-1.84151e-05
0.000192082
-1.44335e-05
0.000197092
-1.0012e-05
0.000199816
-5.43508e-06
0.000200181
-7.34586e-07
0.00019814
4.08132e-06
0.000193652
8.98288e-06
0.000186802
1.36989e-05
0.000177737
1.81301e-05
0.000166566
2.23069e-05
0.000153483
2.61778e-05
0.000138745
2.94707e-05
0.000122583
3.23054e-05
0.000105272
3.46256e-05
8.71172e-05
3.6304e-05
6.84005e-05
3.74291e-05
4.94196e-05
3.79456e-05
3.04196e-05
3.79793e-05
1.16491e-05
3.75399e-05
-6.65724e-06
3.66098e-05
-2.43226e-05
3.53312e-05
-4.12713e-05
3.38892e-05
-5.72619e-05
3.19667e-05
-7.22729e-05
3.00083e-05
-8.62349e-05
2.79485e-05
-9.91257e-05
2.5774e-05
-0.000110944
2.36364e-05
-0.000121668
2.14534e-05
-0.000131381
1.94406e-05
-0.000140087
1.74072e-05
-0.000147821
1.54694e-05
-0.00015465
1.36574e-05
-0.000160594
1.18883e-05
-0.000165694
1.02079e-05
-0.000169974
8.5687e-06
-0.000173545
7.14354e-06
-0.000176329
5.56983e-06
-0.000178479
4.30397e-06
-0.00017995
2.93294e-06
-0.000180825
1.74788e-06
-0.000181127
6.07924e-07
-0.000180847
-5.59607e-07
-0.000180014
-1.66724e-06
-0.000178648
-2.7384e-06
-0.000176691
-3.90794e-06
-0.000174229
-4.92083e-06
-0.000171175
-6.11701e-06
-0.000167568
-7.2198e-06
-0.000163335
-8.46715e-06
-0.000158441
-9.78866e-06
-0.000152922
-1.10585e-05
-0.00014671
-1.24248e-05
-0.000139983
-1.34568e-05
-0.000132594
-1.47781e-05
-0.000124561
-1.60723e-05
-0.00011583
-1.74685e-05
-0.000106288
-1.9091e-05
-9.59765e-05
-2.0628e-05
-8.47248e-05
-2.25033e-05
-7.25503e-05
-2.43555e-05
-5.95388e-05
-2.60225e-05
-4.5691e-05
-2.7689e-05
-3.11692e-05
-2.90389e-05
-1.59981e-05
-3.03632e-05
-3.12937e-07
-3.13618e-05
1.58625e-05
-3.2344e-05
3.237e-05
-3.30253e-05
4.90753e-05
-3.33951e-05
6.58144e-05
-3.34551e-05
8.23437e-05
-3.30424e-05
9.84609e-05
-3.22206e-05
0.00011391
-3.089e-05
0.000128455
-2.90814e-05
0.000141837
-2.67572e-05
0.000153797
-2.39081e-05
0.000164052
-2.04981e-05
0.000172371
-1.66287e-05
0.000178522
-1.22841e-05
0.000182316
-7.58334e-06
0.000183657
-2.67269e-06
0.000182515
2.26974e-06
0.000178841
7.34406e-06
0.000172719
1.22455e-05
0.000164341
1.67485e-05
0.000153895
2.08895e-05
0.000141621
2.4548e-05
0.000127813
2.76034e-05
0.000112666
3.02804e-05
9.65789e-05
3.21639e-05
7.9751e-05
3.3657e-05
6.24562e-05
3.45745e-05
4.49572e-05
3.50111e-05
2.74439e-05
3.50063e-05
1.01351e-05
3.46156e-05
-6.78714e-06
3.38303e-05
-2.31975e-05
3.28185e-05
-3.90025e-05
3.16091e-05
-5.40139e-05
3.00189e-05
-6.82345e-05
2.84429e-05
-8.15558e-05
2.66418e-05
-9.3988e-05
2.48659e-05
-0.000105546
2.31159e-05
-0.000116137
2.11771e-05
-0.000125817
1.93689e-05
-0.000134567
1.75071e-05
-0.000142436
1.57331e-05
-0.000149426
1.39779e-05
-0.000155593
1.23432e-05
-0.000160968
1.07511e-05
-0.000165575
9.21423e-06
-0.000169509
7.86964e-06
-0.00017274
6.46226e-06
-0.00017546
5.44254e-06
-0.000177576
4.2234e-06
-0.000179144
3.1357e-06
-0.000180196
2.107e-06
-0.000180695
9.95557e-07
-0.000180633
-1.32458e-07
-0.000179985
-1.29267e-06
-0.000178718
-2.53496e-06
-0.000176893
-3.65478e-06
-0.000174404
-4.98436e-06
-0.000171375
-6.05324e-06
-0.000167666
-7.41978e-06
-0.000163452
-8.43099e-06
-0.000158611
-9.67377e-06
-0.000153102
-1.10205e-05
-0.000146944
-1.23171e-05
-0.000139964
-1.3957e-05
-0.000132219
-1.54899e-05
-0.000123522
-1.73981e-05
-0.000113849
-1.93445e-05
-0.000103135
-2.14247e-05
-9.14553e-05
-2.3357e-05
-7.87365e-05
-2.54491e-05
-6.50284e-05
-2.7414e-05
-5.01663e-05
-2.97275e-05
-3.43432e-05
-3.16223e-05
-1.75669e-05
-3.35499e-05
1.42342e-07
-3.54158e-05
1.90036e-05
-3.77136e-05
3.85364e-05
-3.90557e-05
5.84416e-05
-3.97967e-05
7.82379e-05
-3.95773e-05
9.77495e-05
-3.9008e-05
0.000116529
-3.75428e-05
0.000134381
-3.56848e-05
0.000151049
-3.33161e-05
0.000166127
-3.01406e-05
0.000179477
-2.66842e-05
0.000190876
-2.27799e-05
0.000199952
-1.81403e-05
0.00020666
-1.34103e-05
0.000210785
-8.2375e-06
0.000212128
-2.68939e-06
0.000211227
1.7952e-06
0.000207837
6.78133e-06
0.000202121
1.14289e-05
0.000194061
1.61123e-05
0.000183664
2.07824e-05
0.000171354
2.4608e-05
0.000157315
2.8064e-05
0.000141757
3.11041e-05
0.000125133
3.32312e-05
0.000107708
3.48354e-05
8.98537e-05
3.5696e-05
7.16325e-05
3.64319e-05
5.34769e-05
3.62963e-05
3.56204e-05
3.57075e-05
1.80453e-05
3.51378e-05
1.2476e-06
3.35962e-05
-1.48547e-05
3.22041e-05
-3.01476e-05
3.05819e-05
-4.45227e-05
2.87454e-05
-5.79658e-05
2.68868e-05
-7.04268e-05
2.492e-05
-8.18921e-05
2.29266e-05
-9.2382e-05
2.09761e-05
-0.000101897
1.90271e-05
-0.000110461
1.71291e-05
-0.000118124
1.53258e-05
-0.000124913
1.35774e-05
-0.000130869
1.19135e-05
-0.000136027
1.0316e-05
-0.000140427
8.79945e-06
-0.000144115
7.37598e-06
-0.000147138
6.04717e-06
-0.000149512
4.74747e-06
-0.000151259
3.49501e-06
-0.00015242
2.31781e-06
-0.000152988
1.13789e-06
-0.000152983
-9.47356e-09
-0.000152388
-1.19168e-06
-0.000151221
-2.33272e-06
-0.000149546
-3.34594e-06
-0.000147217
-4.66293e-06
-0.000144307
-5.82062e-06
-0.00014089
-6.83556e-06
-0.000136737
-8.30445e-06
-0.000132012
-9.45101e-06
-0.000126516
-1.09945e-05
-0.000120346
-1.23394e-05
-0.000113523
-1.36501e-05
-0.000105762
-1.55211e-05
-9.71828e-05
-1.71576e-05
-8.77913e-05
-1.87833e-05
-7.73772e-05
-2.08281e-05
-6.61154e-05
-2.25237e-05
-5.37587e-05
-2.47093e-05
-4.05342e-05
-2.64477e-05
-2.64482e-05
-2.8171e-05
-1.12327e-05
-3.04306e-05
4.97854e-06
-3.24144e-05
-3.32388e-05
0.000209317
1.86955e-05
0.000201212
2.42901e-05
0.000190953
3.07455e-05
0.000178617
3.69681e-05
0.000164713
4.16658e-05
0.000149221
4.64263e-05
0.000132536
5.00052e-05
0.000114854
5.30119e-05
9.63902e-05
5.53083e-05
7.75241e-05
5.65637e-05
5.83945e-05
5.7341e-05
3.94193e-05
5.68576e-05
2.06462e-05
5.63046e-05
2.29936e-06
5.50011e-05
-1.54857e-05
5.33308e-05
-3.25761e-05
5.12473e-05
-4.88217e-05
4.87163e-05
-6.41485e-05
4.59626e-05
-7.85444e-05
4.31795e-05
-9.19285e-05
4.01451e-05
-0.000104294
3.70907e-05
-0.000115662
3.40997e-05
-0.000126027
3.10983e-05
-0.000135404
2.81348e-05
-0.00014383
2.52772e-05
-0.000151322
2.24761e-05
-0.000157927
1.98063e-05
-0.000163665
1.72252e-05
-0.000168575
1.47356e-05
-0.000172698
1.23717e-05
-0.00017606
1.00801e-05
-0.000178665
7.81966e-06
-0.00018055
5.65486e-06
-0.000181742
3.57749e-06
-0.000182238
1.49453e-06
-0.000181993
-6.92769e-07
-0.000181005
-2.96264e-06
-0.000179312
-5.0744e-06
-0.000176913
-7.20046e-06
-0.000173735
-9.54195e-06
-0.00016982
-1.17394e-05
-0.000165046
-1.43312e-05
-0.000159521
-1.6585e-05
-0.000153186
-1.90063e-05
-0.000145925
-2.17818e-05
-0.000137814
-2.43296e-05
-0.000128833
-2.69488e-05
-0.000118773
-3.01805e-05
-0.000107768
-3.30278e-05
-9.58872e-05
-3.5657e-05
-8.2958e-05
-3.87879e-05
-6.90902e-05
-4.15896e-05
-5.41941e-05
-4.47047e-05
-3.84253e-05
-4.72816e-05
-2.19105e-05
-4.951e-05
-4.69626e-06
-5.16298e-05
1.32423e-05
-5.37637e-05
3.14882e-05
-5.46894e-05
5.01151e-05
-5.5825e-05
6.8742e-05
-5.58529e-05
8.72909e-05
-5.5598e-05
0.000105583
-5.48137e-05
0.000123183
-5.27536e-05
0.000139933
-5.02069e-05
0.000155665
-4.71536e-05
0.00016999
-4.29307e-05
0.000182792
-3.83663e-05
0.000193795
-3.29799e-05
0.000202917
-2.73283e-05
0.000210014
-2.12743e-05
0.000214787
-1.42865e-05
0.000217296
-7.51517e-06
0.000217424
-3.97513e-07
0.00021513
6.84519e-06
0.000210489
1.39422e-05
0.000203584
2.06893e-05
0.000194565
2.70228e-05
0.000183572
3.2956e-05
0.000170766
3.83737e-05
0.000156283
4.33325e-05
0.000140464
4.7436e-05
0.000123515
5.08119e-05
0.000105818
5.30456e-05
8.75327e-05
5.47991e-05
6.89057e-05
5.58041e-05
5.02019e-05
5.608e-05
3.15964e-05
5.57669e-05
1.3307e-05
5.48435e-05
-4.60002e-06
5.36741e-05
-2.19446e-05
5.19796e-05
-3.8671e-05
5.01449e-05
-5.46477e-05
4.79122e-05
-6.98289e-05
4.55024e-05
-8.41166e-05
4.28285e-05
-9.74315e-05
3.99203e-05
-0.000109753
3.69335e-05
-0.000121027
3.38002e-05
-0.000131198
3.05436e-05
-0.00014039
2.75084e-05
-0.000148472
2.42327e-05
-0.000155514
2.11331e-05
-0.000161571
1.81846e-05
-0.000166668
1.52801e-05
-0.00017089
1.26606e-05
-0.00017426
1.01335e-05
-0.000176819
7.70041e-06
-0.000178643
5.47618e-06
-0.00017974
3.28681e-06
-0.000180151
1.2832e-06
-0.000179896
-8.10859e-07
-0.000178977
-2.73277e-06
-0.00017736
-4.86008e-06
-0.000175054
-6.90473e-06
-0.00017202
-9.09944e-06
-0.000168395
-1.0889e-05
-0.000164003
-1.31966e-05
-0.000158892
-1.54185e-05
-0.000153047
-1.74346e-05
-0.000146472
-1.97312e-05
-0.000139158
-2.19573e-05
-0.000131099
-2.4187e-05
-0.00012229
-2.64129e-05
-0.000112727
-2.87028e-05
-0.000102404
-3.09703e-05
-9.1296e-05
-3.33029e-05
-7.94613e-05
-3.5514e-05
-6.68559e-05
-3.77985e-05
-5.35326e-05
-3.99811e-05
-3.94337e-05
-4.21999e-05
-2.47678e-05
-4.40947e-05
-9.38346e-06
-4.62439e-05
6.52247e-06
-4.76045e-05
2.29378e-05
-4.9227e-05
3.97158e-05
-5.03023e-05
5.67159e-05
-5.09641e-05
7.37577e-05
-5.10946e-05
9.0662e-05
-5.06715e-05
0.000107179
-4.95005e-05
0.000123095
-4.77015e-05
0.000138148
-4.50904e-05
0.000152092
-4.17946e-05
0.000164712
-3.77958e-05
0.000175694
-3.29116e-05
0.000184914
-2.7635e-05
0.000192142
-2.16617e-05
0.000197168
-1.50377e-05
0.000199904
-8.17083e-06
0.000200265
-1.09603e-06
0.0001982
6.14663e-06
0.000193716
1.34666e-05
0.00018686
2.05551e-05
0.000177772
2.72176e-05
0.000166579
3.35005e-05
0.000153492
3.92642e-05
0.000138736
4.42271e-05
0.000122549
4.84923e-05
0.000105225
5.1949e-05
8.70555e-05
5.44738e-05
6.83446e-05
5.614e-05
4.93139e-05
5.69763e-05
3.02826e-05
5.70106e-05
1.15035e-05
5.63189e-05
-6.81652e-06
5.49299e-05
-2.4517e-05
5.30317e-05
-4.145e-05
5.08223e-05
-5.74553e-05
4.7972e-05
-7.24877e-05
4.50407e-05
-8.64423e-05
4.19031e-05
-9.93461e-05
3.86778e-05
-0.000111162
3.54527e-05
-0.000121877
3.21678e-05
-0.000131552
2.91155e-05
-0.000140287
2.61424e-05
-0.00014802
2.3202e-05
-0.000154842
2.04803e-05
-0.000160776
1.78219e-05
-0.000165877
1.53084e-05
-0.000170167
1.28587e-05
-0.000173734
1.07108e-05
-0.000176518
8.35424e-06
-0.000178663
6.44873e-06
-0.000180133
4.40322e-06
-0.000181003
2.61786e-06
-0.000181299
9.03613e-07
-0.000181017
-8.41558e-07
-0.000180151
-2.53353e-06
-0.000178809
-4.08005e-06
-0.000176859
-5.85767e-06
-0.000174394
-7.38654e-06
-0.000171314
-9.19674e-06
-0.000167734
-1.07998e-05
-0.000163506
-1.26953e-05
-0.000158572
-1.47221e-05
-0.000153098
-1.65326e-05
-0.000146916
-1.86073e-05
-0.000140151
-2.02219e-05
-0.000132767
-2.21617e-05
-0.000124731
-2.4109e-05
-0.000116
-2.61993e-05
-0.000106468
-2.86231e-05
-9.61651e-05
-3.09308e-05
-8.4914e-05
-3.37545e-05
-7.27307e-05
-3.65388e-05
-5.9712e-05
-3.90412e-05
-4.58604e-05
-4.15407e-05
-3.13135e-05
-4.35858e-05
-1.61503e-05
-4.55265e-05
-4.53367e-07
-4.70589e-05
1.57467e-05
-4.85442e-05
3.22376e-05
-4.95163e-05
4.89477e-05
-5.01053e-05
6.56793e-05
-5.01869e-05
8.22749e-05
-4.9638e-05
9.84225e-05
-4.83683e-05
0.000113868
-4.63353e-05
0.000128433
-4.3647e-05
0.000141837
-4.01615e-05
0.000153817
-3.58876e-05
0.000164097
-3.07785e-05
0.000172441
-2.49728e-05
0.000178609
-1.84522e-05
0.000182411
-1.13848e-05
0.000183758
-4.02052e-06
0.000182588
3.44027e-06
0.000178901
1.10308e-05
0.000172774
1.83727e-05
0.000164378
2.51448e-05
0.000153924
3.13433e-05
0.000141655
3.68163e-05
0.000127776
4.14824e-05
0.000112634
4.54225e-05
9.65319e-05
4.8266e-05
7.97247e-05
5.04642e-05
6.23716e-05
5.19276e-05
4.48778e-05
5.25049e-05
2.7319e-05
5.25651e-05
9.99713e-06
5.19374e-05
-6.94541e-06
5.07728e-05
-2.33627e-05
4.92357e-05
-3.91779e-05
4.74244e-05
-5.42015e-05
4.50425e-05
-6.84261e-05
4.26675e-05
-8.17516e-05
3.99673e-05
-9.41808e-05
3.72952e-05
-0.000105736
3.46712e-05
-0.000116328
3.17686e-05
-0.000126008
2.90495e-05
-0.000134756
2.6255e-05
-0.000142617
2.35946e-05
-0.000149612
2.09723e-05
-0.000155776
1.85073e-05
-0.000161153
1.61281e-05
-0.000165758
1.38191e-05
-0.000169691
1.18027e-05
-0.000172937
9.70782e-06
-0.000175623
8.12883e-06
-0.000177747
6.34762e-06
-0.000179303
4.6919e-06
-0.000180354
3.15805e-06
-0.000180846
1.48732e-06
-0.000180781
-1.97877e-07
-0.000180133
-1.94082e-06
-0.000178862
-3.80598e-06
-0.000177023
-5.49314e-06
-0.000174544
-7.46334e-06
-0.000171495
-9.10296e-06
-0.000167777
-1.11369e-05
-0.000163567
-1.26416e-05
-0.000158715
-1.45258e-05
-0.000153203
-1.65324e-05
-0.000147046
-1.84743e-05
-0.000140065
-2.09376e-05
-0.000132325
-2.32301e-05
-0.000123633
-2.60907e-05
-0.000113959
-2.90183e-05
-0.000103243
-3.21408e-05
-9.15586e-05
-3.50414e-05
-7.88651e-05
-3.81426e-05
-6.51526e-05
-4.11267e-05
-5.02977e-05
-4.45824e-05
-3.44356e-05
-4.74844e-05
-1.76562e-05
-5.03294e-05
4.3661e-08
-5.31157e-05
1.89262e-05
-5.65963e-05
3.84797e-05
-5.86093e-05
5.84118e-05
-5.97288e-05
7.8235e-05
-5.94005e-05
9.77756e-05
-5.85488e-05
0.000116584
-5.6351e-05
0.000134463
-5.3564e-05
0.000151162
-5.00149e-05
0.000166268
-4.52467e-05
0.00017964
-4.00572e-05
0.000191059
-3.41987e-05
0.000200141
-2.72227e-05
0.000206857
-2.0126e-05
0.000210964
-1.23444e-05
0.000212338
-4.06381e-06
0.000211422
2.71151e-06
0.000208034
1.01688e-05
0.000202313
1.71503e-05
0.000194236
2.41892e-05
0.000183822
3.11956e-05
0.00017149
3.69402e-05
0.000157429
4.21254e-05
0.000141853
4.66797e-05
0.000125206
4.98783e-05
0.000107748
5.22936e-05
8.98716e-05
5.35722e-05
7.16409e-05
5.46625e-05
5.34573e-05
5.44798e-05
3.5594e-05
5.35707e-05
1.80264e-05
5.27054e-05
1.19702e-06
5.04256e-05
-1.49129e-05
4.83139e-05
-3.02092e-05
4.58782e-05
-4.4587e-05
4.31231e-05
-5.80303e-05
4.03301e-05
-7.04932e-05
3.73828e-05
-8.19572e-05
3.43907e-05
-9.24452e-05
3.14641e-05
-0.000101956
2.85378e-05
-0.000110516
2.56893e-05
-0.000118176
2.29857e-05
-0.000124961
2.03619e-05
-0.000130914
1.78668e-05
-0.000136073
1.5475e-05
-0.000140473
1.32001e-05
-0.000144158
1.10607e-05
-0.00014718
9.0687e-06
-0.000149552
7.11975e-06
-0.000151299
5.24187e-06
-0.000152463
3.48194e-06
-0.000153033
1.70756e-06
-0.000153027
-1.50281e-08
-0.000152432
-1.78709e-06
-0.000151263
-3.50136e-06
-0.000149586
-5.02315e-06
-0.000147261
-6.98736e-06
-0.000144353
-8.72937e-06
-0.000140936
-1.02521e-05
-0.000136789
-1.24517e-05
-0.000132064
-1.41759e-05
-0.000126571
-1.64871e-05
-0.000120403
-1.85073e-05
-0.000113583
-2.04707e-05
-0.000105825
-2.32788e-05
-9.72463e-05
-2.57365e-05
-8.78561e-05
-2.81735e-05
-7.74446e-05
-3.12396e-05
-6.61852e-05
-3.37831e-05
-5.38234e-05
-3.70712e-05
-4.05987e-05
-3.96724e-05
-2.65123e-05
-4.22574e-05
-1.12978e-05
-4.56451e-05
4.92992e-06
-4.86421e-05
-4.9865e-05
0.000209581
2.49472e-05
0.000201459
3.24122e-05
0.000191179
4.10257e-05
0.000178817
4.93298e-05
0.000164885
5.5598e-05
0.000149363
6.19483e-05
0.000132647
6.67213e-05
0.000114937
7.07218e-05
9.64345e-05
7.38109e-05
7.75477e-05
7.54505e-05
5.83922e-05
7.64965e-05
3.9377e-05
7.58728e-05
2.05946e-05
7.5087e-05
2.22395e-06
7.33718e-05
-1.55778e-05
7.11325e-05
-3.26824e-05
6.8352e-05
-4.89395e-05
6.49734e-05
-6.42785e-05
6.13016e-05
-7.86775e-05
5.75785e-05
-9.20646e-05
5.35322e-05
-0.000104434
4.94599e-05
-0.000115803
4.54691e-05
-0.000126167
4.14626e-05
-0.000135544
3.75115e-05
-0.000143966
3.36993e-05
-0.000151458
2.99677e-05
-0.000158067
2.64152e-05
-0.000163797
2.29554e-05
-0.000168707
1.96461e-05
-0.00017283
1.64943e-05
-0.00017619
1.34408e-05
-0.000178796
1.04251e-05
-0.00018068
7.5385e-06
-0.000181866
4.76362e-06
-0.000182338
1.9667e-06
-0.000182079
-9.5201e-07
-0.000181094
-3.94746e-06
-0.000179396
-6.77222e-06
-0.000176999
-9.59787e-06
-0.000173826
-1.27142e-05
-0.000169911
-1.56548e-05
-0.000165141
-1.91012e-05
-0.000159623
-2.21027e-05
-0.000153289
-2.53411e-05
-0.000146028
-2.90429e-05
-0.000137917
-3.24401e-05
-0.000128939
-3.59265e-05
-0.00011888
-4.02398e-05
-0.000107881
-4.40276e-05
-9.60071e-05
-4.75306e-05
-8.30775e-05
-5.17176e-05
-6.92022e-05
-5.54649e-05
-5.43166e-05
-5.95904e-05
-3.85324e-05
-6.30659e-05
-2.19971e-05
-6.60455e-05
-4.77554e-06
-6.88515e-05
1.31941e-05
-7.17335e-05
3.14654e-05
-7.29608e-05
5.01224e-05
-7.44822e-05
6.87677e-05
-7.44984e-05
8.73422e-05
-7.41726e-05
0.000105665
-7.31371e-05
0.000123295
-7.03828e-05
0.000140071
-6.69837e-05
0.000155828
-6.29106e-05
0.000170174
-5.72771e-05
0.000182998
-5.119e-05
0.000194028
-4.40097e-05
0.000203164
-3.64642e-05
0.000210269
-2.83799e-05
0.000215052
-1.90692e-05
0.000217569
-1.00322e-05
0.000217693
-5.21391e-07
0.000215386
9.15161e-06
0.000210754
1.85739e-05
0.000203833
2.76109e-05
0.000194793
3.60626e-05
0.000183782
4.39671e-05
0.000170931
5.12239e-05
0.00015641
5.78534e-05
0.00014057
6.32763e-05
0.000123601
6.77813e-05
0.000105872
7.07743e-05
8.75492e-05
7.31217e-05
6.88747e-05
7.44786e-05
5.0147e-05
7.48077e-05
3.15092e-05
7.44047e-05
1.31969e-05
7.31557e-05
-4.72902e-06
7.16001e-05
-2.21007e-05
6.93513e-05
-3.88489e-05
6.68932e-05
-5.48468e-05
6.391e-05
-7.00484e-05
6.0704e-05
-8.43565e-05
5.71365e-05
-9.76822e-05
5.32461e-05
-0.00011002
4.9271e-05
-0.000121308
4.50888e-05
-0.000131475
4.07104e-05
-0.000140678
3.67113e-05
-0.000148774
3.23288e-05
-0.000155819
2.81782e-05
-0.000161886