/*--------------------------------*- C++ -*----------------------------------*\
| =========                 |                                                 |
| \\      /  F ield         | OpenFOAM: The Open Source CFD Toolbox           |
|  \\    /   O peration     | Version:  3.0.1                                 |
|   \\  /    A nd           | Web:      www.OpenFOAM.org                      |
|    \\/     M anipulation  |                                                 |
\*---------------------------------------------------------------------------*/
FoamFile
{
    version     2.0;
    format      ascii;
    class       volVectorField;
    location    "46.2";
    object      U;
}
// * * * * * * * * * * * * * * * * * * * * * * * * * * * * * * * * * * * * * //

dimensions      [0 1 -1 0 0 0 0];

internalField   nonuniform List<vector> 
21420
(
(-0.0259324 0.00170178 0)
(-0.0404183 0.00160697 0)
(-0.0561339 0.00152691 0)
(-0.070993 0.00143895 0)
(-0.0849168 0.00133251 0)
(-0.0978647 0.00123843 0)
(-0.109822 0.00113298 0)
(-0.120788 0.00103862 0)
(-0.130777 0.000944383 0)
(-0.139805 0.00084681 0)
(-0.147899 0.000757373 0)
(-0.15509 0.00067004 0)
(-0.161406 0.000583323 0)
(-0.166881 0.000502052 0)
(-0.171544 0.000422206 0)
(-0.175424 0.00034622 0)
(-0.178545 0.000272023 0)
(-0.180935 0.000198839 0)
(-0.182613 0.000127166 0)
(-0.183544 6.06007e-05 0)
(-0.183806 -8.78882e-06 0)
(-0.183352 -7.99977e-05 0)
(-0.182189 -0.000151406 0)
(-0.180309 -0.000223911 0)
(-0.177695 -0.000296983 0)
(-0.174329 -0.000373451 0)
(-0.17019 -0.000450842 0)
(-0.165248 -0.00053059 0)
(-0.159479 -0.000616362 0)
(-0.152854 -0.000701271 0)
(-0.145339 -0.000788664 0)
(-0.136903 -0.000885822 0)
(-0.127521 -0.000977411 0)
(-0.117167 -0.00108163 0)
(-0.105831 -0.00117475 0)
(-0.0934998 -0.00126698 0)
(-0.0801506 -0.00137606 0)
(-0.0658026 -0.00146205 0)
(-0.0505602 -0.00154446 0)
(-0.0343961 -0.00164561 0)
(-0.0173592 -0.00170884 0)
(0.000160369 -0.00178715 0)
(0.0181897 -0.00182798 0)
(0.0367437 -0.001846 0)
(0.0555272 -0.00187949 0)
(0.0743719 -0.00186273 0)
(0.093023 -0.00182003 0)
(0.111239 -0.00178014 0)
(0.128806 -0.00169616 0)
(0.145461 -0.00158457 0)
(0.160947 -0.00146535 0)
(0.175038 -0.00130917 0)
(0.187501 -0.00114035 0)
(0.198131 -0.000951466 0)
(0.206786 -0.00073927 0)
(0.213273 -0.000520369 0)
(0.21747 -0.000294273 0)
(0.21933 -5.38644e-05 0)
(0.218821 0.000172718 0)
(0.215778 0.000416828 0)
(0.210437 0.000628181 0)
(0.202793 0.000848186 0)
(0.193125 0.00105666 0)
(0.181452 0.00123019 0)
(0.167921 0.00139868 0)
(0.152946 0.00154898 0)
(0.136616 0.00166161 0)
(0.119211 0.00176344 0)
(0.101118 0.00181811 0)
(0.0824207 0.00186752 0)
(0.063315 0.00188682 0)
(0.0440867 0.00188927 0)
(0.0250216 0.00187852 0)
(0.00658904 0.00182414 0)
(-0.0113998 0.00177388 0)
(-0.0289839 0.00171088 0)
(-0.0458315 0.00163039 0)
(-0.0619522 0.00154933 0)
(-0.0771508 0.00145463 0)
(-0.0913477 0.00135618 0)
(-0.104616 0.00125655 0)
(-0.11675 0.00115225 0)
(-0.127826 0.00104274 0)
(-0.137889 0.000941665 0)
(-0.146838 0.000828435 0)
(-0.154692 0.000724016 0)
(-0.161411 0.000614594 0)
(-0.167106 0.000508731 0)
(-0.171791 0.000407922 0)
(-0.175451 0.000322893 0)
(-0.178211 0.000227303 0)
(-0.180109 0.000149992 0)
(-0.181198 7.38053e-05 0)
(-0.181616 2.02396e-06 0)
(-0.181298 -6.63683e-05 0)
(-0.180297 -0.000137018 0)
(-0.178649 -0.000183248 0)
(-0.176402 -0.00025362 0)
(-0.173541 -0.000310707 0)
(-0.170081 -0.000370513 0)
(-0.166008 -0.000439017 0)
(-0.161247 -0.000504137 0)
(-0.155852 -0.000572703 0)
(-0.149711 -0.000640139 0)
(-0.14282 -0.000714266 0)
(-0.135233 -0.000792439 0)
(-0.126826 -0.000871032 0)
(-0.117639 -0.000947218 0)
(-0.107656 -0.00103199 0)
(-0.0968495 -0.00111009 0)
(-0.0852303 -0.00119346 0)
(-0.0727779 -0.00127085 0)
(-0.0595627 -0.00135096 0)
(-0.0455711 -0.00142681 0)
(-0.0308114 -0.0014905 0)
(-0.0154198 -0.00155535 0)
(0.000558144 -0.0016111 0)
(0.0170462 -0.00165226 0)
(0.0338823 -0.00168206 0)
(0.0509726 -0.00170279 0)
(0.0681219 -0.00170104 0)
(0.0851913 -0.0016823 0)
(0.101981 -0.0016424 0)
(0.118259 -0.00157941 0)
(0.133805 -0.00149796 0)
(0.148383 -0.0013885 0)
(0.16171 -0.00125542 0)
(0.173562 -0.00109302 0)
(0.183685 -0.000912347 0)
(0.191874 -0.000709368 0)
(0.197941 -0.000492977 0)
(0.201755 -0.000261312 0)
(0.20319 -2.2935e-05 0)
(0.202259 0.000213264 0)
(0.198756 0.000460384 0)
(0.192936 0.000695658 0)
(0.184832 0.000911173 0)
(0.174581 0.00111992 0)
(0.162373 0.00129816 0)
(0.148423 0.00146135 0)
(0.133008 0.00159298 0)
(0.11638 0.00170026 0)
(0.0988489 0.0017793 0)
(0.0806354 0.00183126 0)
(0.0620446 0.00185686 0)
(0.043301 0.00185938 0)
(0.024636 0.00184459 0)
(0.00628914 0.00179896 0)
(-0.0115635 0.00174255 0)
(-0.0287477 0.00166856 0)
(-0.0451348 0.00157551 0)
(-0.0606006 0.00149457 0)
(-0.0750905 0.00138877 0)
(-0.0885555 0.00128452 0)
(-0.100976 0.00118238 0)
(-0.11233 0.00107626 0)
(-0.122646 0.000970918 0)
(-0.131932 0.000868694 0)
(-0.140223 0.000779033 0)
(-0.147608 0.000685683 0)
(-0.154069 0.000599079 0)
(-0.159696 0.000519129 0)
(-0.164534 0.000441247 0)
(-0.168623 0.000372963 0)
(-0.172024 0.000306546 0)
(-0.174744 0.000235588 0)
(-0.176859 0.00018085 0)
(-0.178389 0.000119841 0)
(-0.179278 6.34159e-05 0)
(-0.179603 2.99666e-06 0)
(-0.179341 -5.21024e-05 0)
(-0.178507 -0.000112972 0)
(-0.177111 -0.000158898 0)
(-0.175186 -0.000215696 0)
(-0.172737 -0.000268118 0)
(-0.169749 -0.000322055 0)
(-0.166214 -0.000379549 0)
(-0.162112 -0.000441552 0)
(-0.157396 -0.000487486 0)
(-0.152108 -0.000561588 0)
(-0.146118 -0.000622768 0)
(-0.139445 -0.000693039 0)
(-0.132082 -0.000764977 0)
(-0.123967 -0.000841866 0)
(-0.115127 -0.000913909 0)
(-0.105493 -0.000993976 0)
(-0.095109 -0.00107479 0)
(-0.0838903 -0.00114477 0)
(-0.0718552 -0.00122992 0)
(-0.0591058 -0.00130915 0)
(-0.0455798 -0.00137282 0)
(-0.0313257 -0.00144079 0)
(-0.0164933 -0.00149987 0)
(-0.0011316 -0.00154509 0)
(0.0146622 -0.00158147 0)
(0.0307305 -0.00160416 0)
(0.046953 -0.00161026 0)
(0.063179 -0.00160333 0)
(0.0792374 -0.00157841 0)
(0.0949349 -0.00153079 0)
(0.110052 -0.00146576 0)
(0.124375 -0.00137373 0)
(0.137647 -0.00125611 0)
(0.149622 -0.00111747 0)
(0.160034 -0.000945321 0)
(0.168609 -0.000753889 0)
(0.17515 -0.000540634 0)
(0.179498 -0.000318761 0)
(0.181534 -8.96096e-05 0)
(0.181307 0.000133311 0)
(0.178754 0.000358125 0)
(0.17404 0.000572849 0)
(0.167278 0.000768173 0)
(0.158587 0.000953138 0)
(0.148163 0.00111555 0)
(0.136164 0.00126211 0)
(0.122831 0.00138066 0)
(0.108425 0.0014736 0)
(0.0931936 0.00154671 0)
(0.0773345 0.00159698 0)
(0.0610957 0.00162286 0)
(0.0446688 0.00163676 0)
(0.0282382 0.00162393 0)
(0.0120177 0.00159374 0)
(-0.00384497 0.0015506 0)
(-0.0192015 0.00149242 0)
(-0.0338975 0.00142556 0)
(-0.0478533 0.00134813 0)
(-0.0610278 0.00126725 0)
(-0.0733442 0.00118107 0)
(-0.0848015 0.00109466 0)
(-0.0954395 0.00101255 0)
(-0.1052 0.000924688 0)
(-0.114137 0.000853523 0)
(-0.122329 0.000777121 0)
(-0.12977 0.000701791 0)
(-0.136511 0.000634465 0)
(-0.142594 0.000569157 0)
(-0.147998 0.00049954 0)
(-0.15275 0.000445715 0)
(-0.156926 0.000385836 0)
(-0.16051 0.000327891 0)
(-0.163488 0.000267769 0)
(-0.165927 0.000213058 0)
(-0.167817 0.000164092 0)
(-0.169206 0.000112317 0)
(-0.170081 6.38183e-05 0)
(-0.170477 1.78778e-05 0)
(-0.170414 -2.95712e-05 0)
(-0.16985 -7.95767e-05 0)
(-0.168792 -0.000125737 0)
(-0.167267 -0.000173694 0)
(-0.165246 -0.000229026 0)
(-0.162689 -0.000273199 0)
(-0.159648 -0.000328769 0)
(-0.156035 -0.000386223 0)
(-0.151843 -0.000444849 0)
(-0.147065 -0.00050045 0)
(-0.141677 -0.000565172 0)
(-0.135672 -0.000624673 0)
(-0.129047 -0.000686155 0)
(-0.121803 -0.000747709 0)
(-0.11392 -0.000807947 0)
(-0.105435 -0.000871764 0)
(-0.0963561 -0.000932357 0)
(-0.0865939 -0.000994554 0)
(-0.0762004 -0.00105149 0)
(-0.0652219 -0.00112044 0)
(-0.0535447 -0.00118101 0)
(-0.0412908 -0.00126461 0)
(-0.0282898 -0.00129837 0)
(-0.0147288 -0.00138263 0)
(-0.000418434 -0.00142109 0)
(0.014582 -0.00147419 0)
(0.0298019 -0.00150394 0)
(0.0452187 -0.0015383 0)
(0.0608881 -0.00154924 0)
(0.0766992 -0.00155003 0)
(0.0923763 -0.00153884 0)
(0.107839 -0.00151321 0)
(0.122917 -0.00146648 0)
(0.137445 -0.00139883 0)
(0.151156 -0.00130667 0)
(0.163794 -0.00118516 0)
(0.175088 -0.00104557 0)
(0.184794 -0.000878432 0)
(0.192675 -0.000683728 0)
(0.198549 -0.000479449 0)
(0.202272 -0.000256682 0)
(0.203749 -3.49381e-05 0)
(0.203057 0.000195222 0)
(0.19993 0.000429737 0)
(0.194518 0.00063271 0)
(0.187155 0.000832204 0)
(0.177856 0.00101505 0)
(0.166883 0.00115894 0)
(0.15452 0.00129354 0)
(0.140969 0.00140165 0)
(0.12657 0.00146784 0)
(0.111479 0.00152315 0)
(0.0959283 0.00154757 0)
(0.0802647 0.00156146 0)
(0.0645169 0.00155398 0)
(0.0488637 0.00152927 0)
(0.0336419 0.00148969 0)
(0.0186683 0.00144402 0)
(0.00462612 0.00138536 0)
(-0.00851717 0.00132489 0)
(-0.021342 0.0012519 0)
(-0.0335205 0.00118365 0)
(-0.045008 0.0011127 0)
(-0.0557761 0.00103661 0)
(-0.0658283 0.000966553 0)
(-0.0751773 0.000897751 0)
(-0.0838411 0.000828362 0)
(-0.0918487 0.00076534 0)
(-0.0992312 0.000702938 0)
(-0.106021 0.000646311 0)
(-0.112249 0.0005922 0)
(-0.117941 0.000539061 0)
(-0.12312 0.000489461 0)
(-0.127803 0.000440793 0)
(-0.131997 0.000392028 0)
(-0.135706 0.00034388 0)
(-0.138926 0.000294257 0)
(-0.141646 0.000243919 0)
(-0.143851 0.000191236 0)
(-0.145526 0.000136049 0)
(-0.146625 7.94379e-05 0)
(-0.147155 2.31803e-05 0)
(-0.147067 -4.30081e-05 0)
(-0.146305 -0.000110476 0)
(-0.144849 -0.000180064 0)
(-0.142674 -0.000253328 0)
(-0.139747 -0.000328496 0)
(-0.136041 -0.000407708 0)
(-0.131534 -0.000487928 0)
(-0.126201 -0.000569102 0)
(-0.120031 -0.000655036 0)
(-0.113013 -0.000738005 0)
(-0.10514 -0.000820364 0)
(-0.0964114 -0.000908974 0)
(-0.0868366 -0.000989237 0)
(-0.0764283 -0.00107702 0)
(-0.0652079 -0.00115237 0)
(-0.0532061 -0.00122309 0)
(-0.0404551 -0.00130338 0)
(-0.0269676 -0.00136363 0)
(-0.0122938 -0.00141804 0)
(0.00242433 -0.00149095 0)
(0.0170957 -0.00152895 0)
(0.0326978 -0.00157802 0)
(0.0486295 -0.00159455 0)
(0.0647469 -0.00159846 0)
(0.0809381 -0.00161383 0)
(0.0970565 -0.00159077 0)
(0.114846 -0.00155233 0)
(-0.025963 0.00510574 0)
(-0.0404509 0.00482122 0)
(-0.0561695 0.00458095 0)
(-0.0710307 0.00431699 0)
(-0.084955 0.00399761 0)
(-0.0979036 0.00371532 0)
(-0.10986 0.00339895 0)
(-0.120826 0.00311582 0)
(-0.130814 0.00283311 0)
(-0.139841 0.00254039 0)
(-0.147934 0.0022721 0)
(-0.155124 0.00201012 0)
(-0.161439 0.00175002 0)
(-0.166913 0.00150624 0)
(-0.171575 0.00126672 0)
(-0.175454 0.00103881 0)
(-0.178574 0.000816309 0)
(-0.180962 0.000596886 0)
(-0.18264 0.000381655 0)
(-0.183573 0.000180433 0)
(-0.183834 -2.50536e-05 0)
(-0.18338 -0.000239666 0)
(-0.182217 -0.000453957 0)
(-0.180338 -0.00067146 0)
(-0.177725 -0.000890654 0)
(-0.17436 -0.00112004 0)
(-0.170222 -0.00135226 0)
(-0.165282 -0.00159152 0)
(-0.159514 -0.00184884 0)
(-0.15289 -0.00210359 0)
(-0.145377 -0.00236579 0)
(-0.136943 -0.00265729 0)
(-0.127562 -0.00293207 0)
(-0.117209 -0.00324479 0)
(-0.105873 -0.00352423 0)
(-0.0935422 -0.00380092 0)
(-0.0801932 -0.00412825 0)
(-0.0658447 -0.00438619 0)
(-0.0506004 -0.00463373 0)
(-0.0344337 -0.00493728 0)
(-0.0173922 -0.00512682 0)
(0.000131487 -0.00536176 0)
(0.0181654 -0.00548461 0)
(0.0367263 -0.00553885 0)
(0.055518 -0.00563938 0)
(0.0743709 -0.0055892 0)
(0.093031 -0.00546135 0)
(0.111258 -0.00534147 0)
(0.128835 -0.00508945 0)
(0.1455 -0.00475494 0)
(0.160998 -0.00439691 0)
(0.175099 -0.00392839 0)
(0.187568 -0.0034274 0)
(0.198215 -0.00285239 0)
(0.206876 -0.00221435 0)
(0.213368 -0.00156431 0)
(0.217574 -0.000882938 0)
(0.21944 -0.000162421 0)
(0.218925 0.000517873 0)
(0.215881 0.00124975 0)
(0.210545 0.0018841 0)
(0.202899 0.00254445 0)
(0.193225 0.00317066 0)
(0.181546 0.00369125 0)
(0.168006 0.00419629 0)
(0.153023 0.00464783 0)
(0.136683 0.00498655 0)
(0.119264 0.00529157 0)
(0.101157 0.0054564 0)
(0.0824474 0.0056019 0)
(0.0633342 0.00566282 0)
(0.0440929 0.00566993 0)
(0.0250105 0.00563307 0)
(0.00657479 0.00547583 0)
(-0.0114214 0.00532628 0)
(-0.0290171 0.00513209 0)
(-0.0458696 0.00489434 0)
(-0.0619977 0.00464763 0)
(-0.0771988 0.00436523 0)
(-0.0914 0.00406919 0)
(-0.104671 0.00376888 0)
(-0.116807 0.00345971 0)
(-0.127889 0.00312691 0)
(-0.137951 0.00282045 0)
(-0.146905 0.00248642 0)
(-0.154757 0.00216532 0)
(-0.161478 0.00184314 0)
(-0.167171 0.00152296 0)
(-0.171847 0.00123649 0)
(-0.175516 0.000967538 0)
(-0.178276 0.000684987 0)
(-0.180186 0.00044492 0)
(-0.181276 0.000221135 0)
(-0.181694 -4.5796e-06 0)
(-0.181364 -0.000183933 0)
(-0.180376 -0.000406372 0)
(-0.178737 -0.000564178 0)
(-0.176482 -0.000759403 0)
(-0.17363 -0.000938469 0)
(-0.17017 -0.00111654 0)
(-0.16609 -0.0013157 0)
(-0.16133 -0.00150837 0)
(-0.155951 -0.00172989 0)
(-0.149799 -0.00191866 0)
(-0.142917 -0.002144 0)
(-0.135319 -0.00238168 0)
(-0.1269 -0.00261228 0)
(-0.117726 -0.00285079 0)
(-0.107727 -0.00309554 0)
(-0.0969285 -0.00333128 0)
(-0.085303 -0.00358204 0)
(-0.07285 -0.00381438 0)
(-0.059633 -0.00405731 0)
(-0.0456276 -0.00428213 0)
(-0.0308761 -0.00448505 0)
(-0.0154698 -0.0046718 0)
(0.000520963 -0.00482691 0)
(0.0169975 -0.00496875 0)
(0.0338583 -0.0050511 0)
(0.0509591 -0.00510323 0)
(0.0681143 -0.00510601 0)
(0.0851909 -0.00504786 0)
(0.101982 -0.00493466 0)
(0.118266 -0.00475041 0)
(0.133828 -0.00449727 0)
(0.14841 -0.00416482 0)
(0.161756 -0.00376484 0)
(0.173614 -0.00327913 0)
(0.183744 -0.00273176 0)
(0.19193 -0.00213456 0)
(0.198011 -0.00147997 0)
(0.201824 -0.000786694 0)
(0.203249 -7.84073e-05 0)
(0.202312 0.00063804 0)
(0.198807 0.00138273 0)
(0.192982 0.00208474 0)
(0.184869 0.00274118 0)
(0.174604 0.0033534 0)
(0.162385 0.00390063 0)
(0.148417 0.00438046 0)
(0.133 0.00478057 0)
(0.116356 0.00510986 0)
(0.0987954 0.00533295 0)
(0.0805765 0.00549849 0)
(0.0619658 0.00557105 0)
(0.0432081 0.00557475 0)
(0.0245381 0.005528 0)
(0.00618644 0.00540453 0)
(-0.0116796 0.00522654 0)
(-0.0288672 0.00499973 0)
(-0.0452553 0.00474069 0)
(-0.0607398 0.00447791 0)
(-0.0752268 0.0041624 0)
(-0.0886998 0.00385712 0)
(-0.101126 0.00353806 0)
(-0.112476 0.00321874 0)
(-0.122776 0.00291937 0)
(-0.132055 0.00261851 0)
(-0.140356 0.00232304 0)
(-0.147729 0.00205423 0)
(-0.154188 0.00179852 0)
(-0.159812 0.0015579 0)
(-0.164647 0.00132748 0)
(-0.168743 0.0011074 0)
(-0.172137 0.000910179 0)
(-0.17485 0.000715802 0)
(-0.176966 0.000543437 0)
(-0.178492 0.000357584 0)
(-0.179383 0.000189821 0)
(-0.179707 1.25118e-06 0)
(-0.17944 -0.000153997 0)
(-0.178613 -0.000339739 0)
(-0.177214 -0.00048376 0)
(-0.17529 -0.000658851 0)
(-0.172824 -0.000802176 0)
(-0.16984 -0.000973324 0)
(-0.166298 -0.0011328 0)
(-0.162194 -0.00132017 0)
(-0.157487 -0.00147571 0)
(-0.15219 -0.00168681 0)
(-0.146201 -0.00186343 0)
(-0.139531 -0.00208634 0)
(-0.132165 -0.0022966 0)
(-0.124043 -0.00252224 0)
(-0.115196 -0.00274153 0)
(-0.105579 -0.00298813 0)
(-0.0951786 -0.00322481 0)
(-0.0839705 -0.00344048 0)
(-0.0719262 -0.00369067 0)
(-0.0591725 -0.00392996 0)
(-0.0456398 -0.0041207 0)
(-0.0313799 -0.00432869 0)
(-0.0165464 -0.00450228 0)
(-0.00117179 -0.00463633 0)
(0.0146246 -0.00474255 0)
(0.0306918 -0.00481519 0)
(0.0469203 -0.00483541 0)
(0.0631539 -0.0048151 0)
(0.0792269 -0.00473452 0)
(0.0949288 -0.00459387 0)
(0.11006 -0.00440179 0)
(0.124383 -0.00412962 0)
(0.137673 -0.00376904 0)
(0.149658 -0.0033442 0)
(0.160071 -0.00284114 0)
(0.168661 -0.00226646 0)
(0.175204 -0.00162076 0)
(0.179548 -0.000952898 0)
(0.181579 -0.000270044 0)
(0.181346 0.000402315 0)
(0.17879 0.0010776 0)
(0.174076 0.00171959 0)
(0.167301 0.00229652 0)
(0.158601 0.00286704 0)
(0.148159 0.00335039 0)
(0.136138 0.00378254 0)
(0.122797 0.00413098 0)
(0.108386 0.00442172 0)
(0.0931537 0.00465124 0)
(0.0772819 0.00479319 0)
(0.0610195 0.0048727 0)
(0.0445839 0.00490282 0)
(0.0281498 0.00487029 0)
(0.011919 0.00478852 0)
(-0.00394873 0.00465371 0)
(-0.0193118 0.0044889 0)
(-0.0340218 0.00426798 0)
(-0.0479754 0.004044 0)
(-0.0611551 0.00379652 0)
(-0.0734694 0.00353832 0)
(-0.0849242 0.00328486 0)
(-0.0955622 0.00303582 0)
(-0.105319 0.00277469 0)
(-0.114255 0.00255512 0)
(-0.122446 0.0023192 0)
(-0.129878 0.00211291 0)
(-0.136622 0.00190367 0)
(-0.142702 0.0016997 0)
(-0.148095 0.00150187 0)
(-0.152852 0.00134531 0)
(-0.157029 0.00114407 0)
(-0.16061 0.000983235 0)
(-0.163591 0.000798989 0)
(-0.166023 0.000647593 0)
(-0.167914 0.000481639 0)
(-0.169294 0.000341875 0)
(-0.170177 0.000189928 0)
(-0.170573 5.17033e-05 0)
(-0.170508 -9.73885e-05 0)
(-0.169939 -0.00023665 0)
(-0.168881 -0.000383181 0)
(-0.167356 -0.000524645 0)
(-0.165319 -0.000674708 0)
(-0.162781 -0.000835509 0)
(-0.15973 -0.000986473 0)
(-0.156118 -0.00116387 0)
(-0.151922 -0.00133091 0)
(-0.147145 -0.00150254 0)
(-0.141755 -0.00169667 0)
(-0.135748 -0.00186875 0)
(-0.129136 -0.00206332 0)
(-0.121886 -0.00224362 0)
(-0.114009 -0.00243127 0)
(-0.105514 -0.00261672 0)
(-0.0964342 -0.00280038 0)
(-0.0866669 -0.0029691 0)
(-0.0762923 -0.00316759 0)
(-0.0652936 -0.00336938 0)
(-0.053615 -0.00354793 0)
(-0.0413462 -0.0037831 0)
(-0.0283541 -0.00390945 0)
(-0.0147715 -0.00414582 0)
(-0.000451546 -0.00425668 0)
(0.0145496 -0.0044228 0)
(0.0297755 -0.004516 0)
(0.0451996 -0.00461737 0)
(0.0608813 -0.0046516 0)
(0.0767042 -0.00465074 0)
(0.0923887 -0.00461732 0)
(0.107861 -0.00454244 0)
(0.122948 -0.00440071 0)
(0.137486 -0.0042021 0)
(0.151217 -0.00391609 0)
(0.163856 -0.0035622 0)
(0.175173 -0.00313621 0)
(0.184887 -0.00263304 0)
(0.192777 -0.00205153 0)
(0.198657 -0.00144124 0)
(0.202386 -0.000773091 0)
(0.20387 -0.00010478 0)
(0.203169 0.000585239 0)
(0.200036 0.00128927 0)
(0.194623 0.00189843 0)
(0.187254 0.00249714 0)
(0.177945 0.00304605 0)
(0.166961 0.00347764 0)
(0.154587 0.00388173 0)
(0.141023 0.00420367 0)
(0.126612 0.00440457 0)
(0.111512 0.00457023 0)
(0.0959513 0.00464362 0)
(0.0802773 0.00468545 0)
(0.0645231 0.00466256 0)
(0.0488626 0.00458829 0)
(0.0336332 0.00447013 0)
(0.0186566 0.00433227 0)
(0.00461075 0.00415651 0)
(-0.00853667 0.00397501 0)
(-0.0213636 0.00375604 0)
(-0.0335438 0.00355119 0)
(-0.0450324 0.00333826 0)
(-0.0558008 0.00310993 0)
(-0.065853 0.00289972 0)
(-0.0752016 0.00269327 0)
(-0.0838645 0.00248509 0)
(-0.0918713 0.00229599 0)
(-0.0992527 0.00210878 0)
(-0.106042 0.00193889 0)
(-0.112269 0.00177657 0)
(-0.11796 0.00161714 0)
(-0.123139 0.00146837 0)
(-0.127821 0.00132246 0)
(-0.132015 0.00117613 0)
(-0.135725 0.00103178 0)
(-0.138945 0.000883014 0)
(-0.141666 0.00073193 0)
(-0.143872 0.000573817 0)
(-0.145548 0.000408063 0)
(-0.14665 0.000238129 0)
(-0.147179 7.0068e-05 0)
(-0.147094 -0.000128767 0)
(-0.146333 -0.000331292 0)
(-0.144878 -0.000539962 0)
(-0.142704 -0.000759858 0)
(-0.139778 -0.000985312 0)
(-0.136073 -0.00122294 0)
(-0.131567 -0.00146372 0)
(-0.126235 -0.0017072 0)
(-0.120065 -0.00196506 0)
(-0.113048 -0.00221407 0)
(-0.105174 -0.00246107 0)
(-0.0964456 -0.00272693 0)
(-0.0868701 -0.00296776 0)
(-0.0764613 -0.00323117 0)
(-0.0652395 -0.00345725 0)
(-0.053236 -0.00366943 0)
(-0.0404835 -0.00391035 0)
(-0.0269939 -0.00409112 0)
(-0.0123187 -0.00425458 0)
(0.00240222 -0.00447312 0)
(0.0170788 -0.00458721 0)
(0.0326849 -0.00473445 0)
(0.0486212 -0.00478408 0)
(0.0647435 -0.00479585 0)
(0.0809401 -0.00484206 0)
(0.0970644 -0.00477289 0)
(0.114861 -0.00465764 0)
(-0.026025 0.00851088 0)
(-0.0405173 0.00803633 0)
(-0.0562419 0.0076356 0)
(-0.0711072 0.00719542 0)
(-0.0850325 0.0066629 0)
(-0.0979824 0.00619225 0)
(-0.109938 0.00566482 0)
(-0.120904 0.00519284 0)
(-0.13089 0.00472158 0)
(-0.139914 0.00423367 0)
(-0.148006 0.00378649 0)
(-0.155193 0.00334988 0)
(-0.161505 0.00291641 0)
(-0.166977 0.00251017 0)
(-0.171636 0.00211102 0)
(-0.175513 0.00173122 0)
(-0.178632 0.00136052 0)
(-0.181018 0.000995182 0)
(-0.182694 0.000637056 0)
(-0.183629 0.000303082 0)
(-0.183892 -4.55062e-05 0)
(-0.183437 -0.000399998 0)
(-0.182274 -0.000756419 0)
(-0.180396 -0.00111877 0)
(-0.177784 -0.001484 0)
(-0.174421 -0.00186627 0)
(-0.170285 -0.00225331 0)
(-0.165347 -0.00265208 0)
(-0.159582 -0.00308093 0)
(-0.15296 -0.00350549 0)
(-0.145449 -0.00394262 0)
(-0.137018 -0.00442848 0)
(-0.127638 -0.00488652 0)
(-0.117288 -0.00540785 0)
(-0.105951 -0.00587375 0)
(-0.0936193 -0.00633499 0)
(-0.0802698 -0.00688079 0)
(-0.065919 -0.00731082 0)
(-0.05067 -0.00772383 0)
(-0.034497 -0.00823004 0)
(-0.0174449 -0.00854595 0)
(8.79675e-05 -0.00893796 0)
(0.018132 -0.00914342 0)
(0.0367075 -0.00923391 0)
(0.0555161 -0.00940187 0)
(0.0743859 -0.00931843 0)
(0.0930639 -0.00910512 0)
(0.111312 -0.00890611 0)
(0.128907 -0.00848613 0)
(0.145591 -0.00792798 0)
(0.16111 -0.00733224 0)
(0.175227 -0.00655087 0)
(0.187715 -0.00571185 0)
(0.198375 -0.00475779 0)
(0.207044 -0.0036963 0)
(0.213544 -0.00260905 0)
(0.217764 -0.00146983 0)
(0.219633 -0.00027099 0)
(0.2191 0.000859364 0)
(0.216049 0.00208243 0)
(0.210716 0.00314026 0)
(0.203064 0.00424103 0)
(0.193377 0.00528731 0)
(0.181683 0.00615417 0)
(0.168129 0.00699694 0)
(0.153128 0.00774894 0)
(0.136769 0.00831398 0)
(0.119327 0.0088225 0)
(0.101198 0.00909832 0)
(0.0824715 0.00934082 0)
(0.0633434 0.00944237 0)
(0.044086 0.0094493 0)
(0.0249831 0.00939165 0)
(0.00653339 0.00913191 0)
(-0.0114717 0.00887917 0)
(-0.0290748 0.00855773 0)
(-0.0459364 0.00815925 0)
(-0.062076 0.00774729 0)
(-0.0772766 0.00727508 0)
(-0.0914852 0.00678417 0)
(-0.104757 0.00628078 0)
(-0.116898 0.00576776 0)
(-0.127981 0.00521077 0)
(-0.138046 0.00470469 0)
(-0.147005 0.00414027 0)
(-0.154854 0.00361574 0)
(-0.16158 0.00307492 0)
(-0.167278 0.0025405 0)
(-0.171955 0.00205536 0)
(-0.175626 0.00161005 0)
(-0.178387 0.00114726 0)
(-0.180296 0.000742563 0)
(-0.181397 0.000364852 0)
(-0.181804 3.93355e-06 0)
(-0.181488 -0.000320968 0)
(-0.180507 -0.000678171 0)
(-0.178866 -0.000936033 0)
(-0.176623 -0.00126424 0)
(-0.173765 -0.00156448 0)
(-0.17031 -0.00185714 0)
(-0.166241 -0.00219478 0)
(-0.161487 -0.00251835 0)
(-0.156107 -0.00287324 0)
(-0.149966 -0.00319766 0)
(-0.143094 -0.00358173 0)
(-0.135485 -0.00396306 0)
(-0.12707 -0.00435896 0)
(-0.117892 -0.00474906 0)
(-0.107893 -0.00515922 0)
(-0.0970959 -0.00555689 0)
(-0.0854661 -0.00596523 0)
(-0.0730165 -0.00636616 0)
(-0.0597894 -0.00675877 0)
(-0.0457831 -0.00714001 0)
(-0.0310263 -0.00746987 0)
(-0.0156136 -0.00778287 0)
(0.000374732 -0.00806309 0)
(0.0168724 -0.00827734 0)
(0.0337491 -0.00841441 0)
(0.0508531 -0.00851622 0)
(0.068032 -0.00851004 0)
(0.0851241 -0.00841815 0)
(0.101937 -0.00822148 0)
(0.118241 -0.0079138 0)
(0.133816 -0.00749937 0)
(0.148419 -0.00694658 0)
(0.161786 -0.00627505 0)
(0.173655 -0.00547202 0)
(0.1838 -0.00456607 0)
(0.192017 -0.00355285 0)
(0.198112 -0.00246468 0)
(0.201929 -0.00131198 0)
(0.203358 -0.000121972 0)
(0.202393 0.00106526 0)
(0.198896 0.0023066 0)
(0.193066 0.00348145 0)
(0.184944 0.00456386 0)
(0.174662 0.00559912 0)
(0.162419 0.00649526 0)
(0.14844 0.00730867 0)
(0.132994 0.00797805 0)
(0.116328 0.00851522 0)
(0.0987437 0.00889999 0)
(0.0804902 0.00916384 0)
(0.0618697 0.00928642 0)
(0.0431006 0.00930575 0)
(0.024407 0.00921624 0)
(0.00603534 0.00900554 0)
(-0.0118415 0.00870913 0)
(-0.0290434 0.0083401 0)
(-0.0454358 0.0079019 0)
(-0.0609274 0.00746838 0)
(-0.075422 0.00693558 0)
(-0.0888974 0.00643132 0)
(-0.101325 0.00589844 0)
(-0.112669 0.00537133 0)
(-0.122978 0.00485859 0)
(-0.132252 0.00435513 0)
(-0.140536 0.00387584 0)
(-0.147904 0.00343082 0)
(-0.154361 0.00299122 0)
(-0.159982 0.00259617 0)
(-0.164812 0.00220659 0)
(-0.168898 0.00184907 0)
(-0.172298 0.00152885 0)
(-0.175015 0.00118577 0)
(-0.177124 0.000902352 0)
(-0.178646 0.000596095 0)
(-0.179541 0.000313786 0)
(-0.179858 1.00888e-05 0)
(-0.179601 -0.000263645 0)
(-0.178768 -0.000561557 0)
(-0.177379 -0.000808844 0)
(-0.175445 -0.00109461 0)
(-0.172978 -0.00134006 0)
(-0.170001 -0.00161531 0)
(-0.166465 -0.00189542 0)
(-0.162355 -0.00220143 0)
(-0.15765 -0.00245874 0)
(-0.152358 -0.00281325 0)
(-0.146373 -0.00310747 0)
(-0.139704 -0.00346933 0)
(-0.132345 -0.00383412 0)
(-0.124214 -0.00420293 0)
(-0.115374 -0.00457508 0)
(-0.10575 -0.00497441 0)
(-0.0953502 -0.00537687 0)
(-0.0841392 -0.00573253 0)
(-0.0720985 -0.00615176 0)
(-0.0593381 -0.00654831 0)
(-0.0457946 -0.00686667 0)
(-0.0315326 -0.0072143 0)
(-0.0166892 -0.00750646 0)
(-0.00130209 -0.00772486 0)
(0.0144987 -0.00791391 0)
(0.030587 -0.00802094 0)
(0.046822 -0.00806651 0)
(0.0630708 -0.00801996 0)
(0.0791584 -0.0079004 0)
(0.0948793 -0.0076593 0)
(0.110031 -0.00733777 0)
(0.124376 -0.00687713 0)
(0.137677 -0.00628838 0)
(0.149681 -0.00558524 0)
(0.16013 -0.00473154 0)
(0.168737 -0.00377303 0)
(0.175287 -0.00270676 0)
(0.179636 -0.00158901 0)
(0.181672 -0.000445157 0)
(0.181419 0.000662385 0)
(0.178857 0.00179576 0)
(0.174142 0.00287642 0)
(0.167352 0.00383774 0)
(0.158639 0.00477674 0)
(0.148176 0.0055884 0)
(0.136142 0.00630212 0)
(0.122788 0.00689625 0)
(0.108354 0.00737867 0)
(0.0930966 0.00774581 0)
(0.0772109 0.00799173 0)
(0.060932 0.00812834 0)
(0.0444775 0.00817398 0)
(0.0280329 0.0081217 0)
(0.0117878 0.00798297 0)
(-0.00409961 0.00775627 0)
(-0.0194779 0.00747528 0)
(-0.0341909 0.00712161 0)
(-0.048154 0.00673975 0)
(-0.0613317 0.00632849 0)
(-0.0736424 0.00590551 0)
(-0.0850941 0.00547063 0)
(-0.0957311 0.00506011 0)
(-0.105487 0.00462733 0)
(-0.11441 0.00425334 0)
(-0.122597 0.00387572 0)
(-0.130035 0.00351349 0)
(-0.136776 0.00317154 0)
(-0.142858 0.00283562 0)
(-0.14825 0.00250576 0)
(-0.153008 0.00223238 0)
(-0.157179 0.00191277 0)
(-0.160763 0.00164167 0)
(-0.163749 0.00133426 0)
(-0.16618 0.00106725 0)
(-0.168065 0.000810759 0)
(-0.169452 0.000568316 0)
(-0.17034 0.000319152 0)
(-0.170734 7.97115e-05 0)
(-0.170655 -0.000150478 0)
(-0.170091 -0.000401782 0)
(-0.169028 -0.000636886 0)
(-0.167508 -0.000873845 0)
(-0.165481 -0.00113495 0)
(-0.162934 -0.00137899 0)
(-0.159893 -0.00164432 0)
(-0.156278 -0.00193873 0)
(-0.152081 -0.00221961 0)
(-0.147313 -0.00251109 0)
(-0.141922 -0.00281875 0)
(-0.135919 -0.00312357 0)
(-0.129301 -0.00343938 0)
(-0.12205 -0.00373905 0)
(-0.11417 -0.00404836 0)
(-0.105668 -0.00436131 0)
(-0.0965862 -0.00467462 0)
(-0.0868169 -0.00494618 0)
(-0.0764324 -0.00527481 0)
(-0.0654262 -0.00560974 0)
(-0.0537396 -0.00591731 0)
(-0.0414598 -0.00631083 0)
(-0.0284528 -0.00651218 0)
(-0.0148622 -0.00691785 0)
(-0.000524573 -0.00710203 0)
(0.0144868 -0.00736755 0)
(0.0297212 -0.00752888 0)
(0.0451589 -0.00770043 0)
(0.0608625 -0.00775328 0)
(0.0766933 -0.00775704 0)
(0.0923898 -0.00770165 0)
(0.107885 -0.00757485 0)
(0.122987 -0.00733923 0)
(0.137546 -0.0070057 0)
(0.151295 -0.00653154 0)
(0.163955 -0.00593598 0)
(0.175293 -0.00523158 0)
(0.185026 -0.00439642 0)
(0.192932 -0.00342277 0)
(0.198827 -0.00240409 0)
(0.202568 -0.00128887 0)
(0.20406 -0.000174321 0)
(0.203338 0.000975337 0)
(0.200198 0.00214892 0)
(0.194784 0.00316496 0)
(0.187403 0.00416513 0)
(0.178076 0.0050791 0)
(0.167074 0.00580142 0)
(0.154679 0.00646972 0)
(0.141093 0.00702127 0)
(0.126662 0.00734734 0)
(0.111544 0.00762098 0)
(0.0959677 0.00774149 0)
(0.0802755 0.00781185 0)
(0.0645108 0.00777252 0)
(0.0488387 0.00764764 0)
(0.0335961 0.00745364 0)
(0.0186154 0.0072205 0)
(0.00456459 0.00692879 0)
(-0.0085893 0.00662575 0)
(-0.0214187 0.00626062 0)
(-0.0336012 0.00591888 0)
(-0.0450906 0.00556389 0)
(-0.0558583 0.00518317 0)
(-0.0659095 0.0048327 0)
(-0.0752563 0.00448852 0)
(-0.0839167 0.00414149 0)
(-0.091921 0.00382628 0)
(-0.0992996 0.00351426 0)
(-0.106086 0.00323113 0)
(-0.112311 0.00296066 0)
(-0.118001 0.00269501 0)
(-0.123178 0.00244715 0)
(-0.12786 0.0022042 0)
(-0.132054 0.00196019 0)
(-0.135764 0.00171978 0)
(-0.138984 0.00147203 0)
(-0.141706 0.00122024 0)
(-0.143913 0.000957052 0)
(-0.14559 0.000680839 0)
(-0.146698 0.000396926 0)
(-0.147229 0.000116103 0)
(-0.147146 -0.000214523 0)
(-0.146387 -0.000551707 0)
(-0.144935 -0.000899533 0)
(-0.142763 -0.00126616 0)
(-0.139839 -0.00164181 0)
(-0.136137 -0.00203793 0)
(-0.131632 -0.0024392 0)
(-0.1263 -0.00284513 0)
(-0.120132 -0.00327501 0)
(-0.113115 -0.0036901 0)
(-0.105241 -0.00410182 0)
(-0.0965125 -0.00454501 0)
(-0.0869355 -0.0049465 0)
(-0.0765257 -0.00538562 0)
(-0.0653011 -0.00576254 0)
(-0.053294 -0.00611632 0)
(-0.0405384 -0.00651798 0)
(-0.0270446 -0.00681928 0)
(-0.0123669 -0.00709173 0)
(0.00235955 -0.00745667 0)
(0.0170467 -0.00764663 0)
(0.0326607 -0.00789211 0)
(0.048606 -0.00797496 0)
(0.0647381 -0.00799473 0)
(0.0809456 -0.00807196 0)
(0.0970815 -0.00795679 0)
(0.114892 -0.00776484 0)
(-0.0261179 0.011918 0)
(-0.0406171 0.0112529 0)
(-0.0563506 0.0106913 0)
(-0.071222 0.0100745 0)
(-0.0851488 0.00932854 0)
(-0.0981008 0.00866925 0)
(-0.110055 0.00793055 0)
(-0.12102 0.00726955 0)
(-0.131004 0.00660962 0)
(-0.140024 0.00592644 0)
(-0.148113 0.00530033 0)
(-0.155296 0.00468907 0)
(-0.161605 0.00408226 0)
(-0.167073 0.00351359 0)
(-0.171729 0.00295492 0)
(-0.175603 0.00242331 0)
(-0.178719 0.00190457 0)
(-0.181101 0.00139417 0)
(-0.182773 0.000894941 0)
(-0.183718 0.000420885 0)
(-0.183975 -6.58562e-05 0)
(-0.183521 -0.000560973 0)
(-0.18236 -0.00105881 0)
(-0.180482 -0.00156568 0)
(-0.177872 -0.00207686 0)
(-0.174513 -0.00261202 0)
(-0.170379 -0.00315371 0)
(-0.165444 -0.00371203 0)
(-0.159684 -0.0043124 0)
(-0.153065 -0.00490667 0)
(-0.145557 -0.00551894 0)
(-0.13713 -0.0061992 0)
(-0.127752 -0.00684057 0)
(-0.117405 -0.00757065 0)
(-0.106069 -0.00822318 0)
(-0.0937351 -0.00886923 0)
(-0.0803849 -0.00963384 0)
(-0.0660308 -0.0102368 0)
(-0.0507746 -0.0108145 0)
(-0.034592 -0.0115243 0)
(-0.0175243 -0.0119671 0)
(2.23818e-05 -0.0125174 0)
(0.0180817 -0.0128057 0)
(0.0366792 -0.012933 0)
(0.0555131 -0.0131687 0)
(0.0744085 -0.013052 0)
(0.0931128 -0.0127542 0)
(0.111392 -0.0124753 0)
(0.129016 -0.0118882 0)
(0.145729 -0.0111062 0)
(0.161277 -0.0102722 0)
(0.175421 -0.00917879 0)
(0.187933 -0.00800429 0)
(0.198613 -0.00666875 0)
(0.207301 -0.00517611 0)
(0.213813 -0.00366096 0)
(0.218039 -0.00206809 0)
(0.21992 -0.000378527 0)
(0.219355 0.00121244 0)
(0.216306 0.00291435 0)
(0.210973 0.00439789 0)
(0.20331 0.00593761 0)
(0.193602 0.00740834 0)
(0.181887 0.00862066 0)
(0.168309 0.00980268 0)
(0.153283 0.0108536 0)
(0.136897 0.0116464 0)
(0.119419 0.0123569 0)
(0.10126 0.0127475 0)