/*--------------------------------*- C++ -*----------------------------------*\
| =========                 |                                                 |
| \\      /  F ield         | OpenFOAM: The Open Source CFD Toolbox           |
|  \\    /   O peration     | Version:  3.0.1                                 |
|   \\  /    A nd           | Web:      www.OpenFOAM.org                      |
|    \\/     M anipulation  |                                                 |
\*---------------------------------------------------------------------------*/
FoamFile
{
    version     2.0;
    format      ascii;
    class       volScalarField;
    location    "80";
    object      p;
}
// * * * * * * * * * * * * * * * * * * * * * * * * * * * * * * * * * * * * * //

dimensions      [1 -1 -2 0 0 0 0];

internalField   nonuniform List<scalar> 
21420
(
3658.99
3641.04
3624.69
3609.95
3596.85
3585.32
3575.34
3566.87
3559.86
3554.29
3550.12
3547.34
3545.95
3545.93
3547.26
3549.98
3554.1
3559.63
3566.62
3575.09
3585.11
3596.71
3609.96
3624.89
3641.56
3659.98
3680.18
3702.16
3725.92
3751.4
3778.56
3807.29
3837.46
3868.92
3901.41
3934.69
3968.49
4002.45
4036.19
4069.37
4101.55
4132.35
4161.33
4188.1
4212.29
4233.58
4251.64
4266.23
4277.14
4284.22
4287.34
4286.44
4281.55
4272.75
4260.12
4243.89
4224.29
4201.57
4176.07
4148.14
4118.18
4086.56
4053.69
4020
3985.88
3951.7
3917.82
3884.6
3852.88
3821.94
3792.18
3763.83
3737.03
3711.91
3688.53
3666.94
3647.18
3629.26
3613.16
3598.87
3586.38
3575.67
3566.7
3559.45
3553.89
3549.97
3547.68
3546.99
3547.8
3550.11
3553.88
3559.09
3565.72
3573.76
3583.21
3594.09
3606.43
3620.25
3635.6
3652.51
3671.02
3691.14
3712.87
3736.2
3761.09
3787.47
3815.24
3844.29
3874.46
3905.56
3937.34
3969.57
4001.95
4034.19
4065.95
4096.87
4126.6
4154.74
4180.91
4204.74
4225.85
4243.91
4258.6
4269.65
4276.85
4280
4279.09
4274.06
4264.98
4251.92
4235.1
4214.75
4191.17
4164.71
4135.76
4104.75
4072.1
4038.28
4003.74
3968.91
3934.22
3900.07
3866.81
3834.74
3804.13
3775.18
3748.05
3722.83
3699.6
3678.35
3659.09
3641.77
3626.33
3612.71
3600.83
3590.63
3582.02
3574.93
3569.3
3565.07
3562.18
3560.58
3560.26
3561.19
3563.32
3566.68
3571.28
3577.12
3584.26
3592.72
3602.54
3613.78
3626.47
3640.67
3656.41
3673.72
3692.63
3713.15
3735.28
3758.99
3784.24
3810.96
3839.04
3868.32
3898.59
3930.75
3962.52
3994.71
4026.92
4058.75
4089.79
4119.63
4147.85
4174.02
4197.72
4218.58
4236.22
4250.33
4260.64
4266.94
4269.01
4266.96
4260.69
4250.3
4235.98
4217.97
4196.58
4172.16
4145.12
4115.87
4084.87
4052.57
4019.44
3985.91
3952.41
3919.32
3886.99
3855.71
3825.73
3797.24
3770.39
3745.26
3721.91
3700.36
3680.6
3662.6
3646.33
3631.72
3618.73
3607.3
3597.38
3588.91
3581.84
3576.14
3571.76
3568.65
3566.81
3566.22
3566.84
3568.67
3571.72
3576.02
3581.57
3588.41
3596.56
3606.06
3616.95
3629.27
3643.04
3658.31
3675.09
3693.41
3713.25
3734.62
3757.49
3781.81
3807.53
3834.55
3862.76
3892
3922.1
3952.83
3983.91
4015.03
4045.88
4076.07
4105.24
4132.97
4158.87
4182.52
4203.55
4221.57
4236.24
4247.27
4254.43
4257.56
4256.54
4251.38
4242.13
4228.89
4211.93
4191.54
4168.07
4141.92
4113.52
4083.33
4051.79
4019.38
3986.53
3953.65
3921.19
3890.08
3859.64
3830.36
3802.53
3776.3
3751.78
3729.06
3708.15
3689.06
3671.74
3656.12
3642.13
3629.66
3618.61
3608.85
3600.29
3592.82
3586.38
3580.9
3576.38
3572.82
3570.25
3568.74
3568.37
3569.38
3571.7
3575.52
3580.95
3588.09
3597.04
3607.89
3620.7
3635.5
3652.3
3671.09
3691.84
3714.47
3738.86
3764.91
3792.44
3821.26
3851.14
3881.88
3913.42
3944.87
3976.12
4006.88
4036.81
4065.57
4092.81
4118.25
4141.6
4162.58
4180.98
4196.6
4209.29
4218.93
4225.43
4228.7
4228.33
4224.64
4217.76
4207.78
4194.83
4179.13
4160.91
3560.81
3542.86
3526.52
3511.79
3498.68
3487.16
3477.18
3468.71
3461.71
3456.13
3451.97
3449.18
3447.79
3447.78
3449.1
3451.82
3455.94
3461.47
3468.46
3476.93
3486.95
3498.55
3511.79
3526.72
3543.38
3561.8
3582
3603.98
3627.74
3653.22
3680.38
3709.12
3739.29
3770.75
3803.25
3836.55
3870.36
3904.33
3938.09
3971.28
4003.48
4034.3
4063.3
4090.08
4114.29
4135.59
4153.66
4168.27
4179.19
4186.27
4189.41
4188.49
4183.6
4174.79
4162.15
4145.92
4126.29
4103.56
4078.05
4050.1
4020.12
3988.48
3955.6
3921.89
3887.75
3853.56
3819.67
3786.44
3754.71
3723.77
3694.01
3665.65
3638.85
3613.72
3590.35
3568.76
3549
3531.08
3514.98
3500.69
3488.21
3477.5
3468.53
3461.28
3455.72
3451.81
3449.52
3448.83
3449.64
3451.95
3455.72
3460.93
3467.56
3475.6
3485.05
3495.93
3508.27
3522.09
3537.43
3554.34
3572.84
3592.96
3614.69
3638.02
3662.91
3689.3
3717.07
3746.12
3776.3
3807.41
3839.2
3871.43
3903.83
3936.08
3967.85
3998.79
4028.54
4056.69
4082.89
4106.73
4127.86
4145.93
4160.63
4171.69
4178.9
4182.07
4181.14
4176.11
4167.03
4153.96
4137.12
4116.75
4093.16
4066.68
4037.71
4006.68
3974.02
3940.18
3905.62
3870.77
3836.07
3801.9
3768.63
3736.55
3705.94
3676.98
3649.85
3624.64
3601.4
3580.16
3560.9
3543.58
3528.15
3514.53
3502.66
3492.46
3483.85
3476.77
3471.14
3466.91
3464.02
3462.43
3462.11
3463.04
3465.17
3468.53
3473.12
3478.97
3486.1
3494.56
3504.38
3515.62
3528.31
3542.5
3558.23
3575.54
3594.45
3614.97
3637.1
3660.81
3686.06
3712.78
3740.87
3770.16
3800.44
3832.59
3864.37
3896.58
3928.81
3960.65
3991.71
4021.57
4049.81
4075.99
4099.72
4120.59
4138.25
4152.37
4162.69
4169
4171.08
4169.01
4162.74
4152.34
4138.01
4119.99
4098.58
4074.14
4047.08
4017.81
3986.79
3954.47
3921.32
3887.78
3854.26
3821.17
3788.82
3757.54
3727.55
3699.06
3672.2
3647.07
3623.72
3602.17
3582.42
3564.43
3548.15
3533.55
3520.57
3509.14
3499.22
3490.75
3483.68
3477.98
3473.6
3470.5
3468.65
3468.07
3468.69
3470.52
3473.57
3477.86
3483.42
3490.25
3498.4
3507.9
3518.79
3531.1
3544.88
3560.14
3576.92
3595.24
3615.08
3636.45
3659.32
3683.64
3709.36
3736.39
3764.6
3793.85
3823.95
3854.7
3885.79
3916.92
3947.78
3977.99
4007.17
4034.93
4060.85
4084.51
4105.55
4123.59
4138.28
4149.32
4156.49
4159.63
4158.6
4153.44
4144.18
4130.94
4113.96
4093.55
4070.06
4043.89
4015.48
3985.26
3953.7
3921.27
3888.41
3855.52
3823.05
3791.92
3761.47
3732.19
3704.35
3678.11
3653.6
3630.88
3609.97
3590.88
3573.57
3557.96
3543.97
3531.51
3520.45
3510.7
3502.14
3494.68
3488.24
3482.77
3478.25
3474.68
3472.11
3470.6
3470.23
3471.23
3473.55
3477.36
3482.78
3489.92
3498.87
3509.72
3522.52
3537.31
3554.11
3572.91
3593.65
3616.28
3640.68
3666.74
3694.28
3723.1
3752.99
3783.74
3815.29
3846.75
3878.02
3908.79
3938.74
3967.51
3994.77
4020.22
4043.58
4064.58
4082.99
4098.61
4111.31
4120.95
4127.45
4130.74
4130.36
4126.66
4119.78
4109.79
4096.84
4081.13
4062.9
3462.56
3444.62
3428.27
3413.55
3400.45
3388.93
3378.96
3370.49
3363.49
3357.92
3353.76
3350.97
3349.59
3349.57
3350.89
3353.61
3357.73
3363.26
3370.24
3378.71
3388.72
3400.31
3413.55
3428.48
3445.13
3463.55
3483.74
3505.72
3529.48
3554.96
3582.12
3610.87
3641.05
3672.52
3705.04
3738.35
3772.19
3806.19
3839.98
3873.2
3905.44
3936.29
3965.33
3992.15
4016.39
4037.72
4055.82
4070.44
4081.39
4088.48
4091.64
4090.69
4085.79
4076.98
4064.32
4048.06
4028.41
4005.65
3980.1
3952.12
3922.1
3890.42
3857.51
3823.77
3789.6
3755.38
3721.46
3688.22
3656.48
3625.52
3595.75
3567.39
3540.59
3515.46
3492.08
3470.5
3450.74
3432.82
3416.72
3402.44
3389.96
3379.26
3370.29
3363.04
3357.49
3353.58
3351.3
3350.6
3351.42
3353.73
3357.51
3362.72
3369.35
3377.38
3386.83
3397.71
3410.04
3423.85
3439.19
3456.1
3474.6
3494.71
3516.44
3539.77
3564.67
3591.05
3618.84
3647.89
3678.08
3709.21
3741.01
3773.27
3805.69
3837.96
3869.77
3900.74
3930.51
3958.71
3984.93
4008.81
4029.98
4048.08
4062.8
4073.89
4081.11
4084.3
4083.35
4078.32
4069.23
4056.14
4039.27
4018.87
3995.24
3968.73
3939.72
3908.65
3875.95
3842.07
3807.47
3772.6
3737.86
3703.68
3670.38
3638.29
3607.66
3578.7
3551.57
3526.35
3503.12
3481.88
3462.63
3445.32
3429.89
3416.28
3404.42
3394.22
3385.62
3378.55
3372.93
3368.7
3365.81
3364.22
3363.91
3364.83
3366.97
3370.33
3374.92
3380.76
3387.89
3396.34
3406.16
3417.39
3430.08
3444.27
3460
3477.3
3496.21
3516.72
3538.85
3562.56
3587.82
3614.54
3642.63
3671.95
3702.26
3734.36
3766.19
3798.43
3830.69
3862.56
3893.66
3923.55
3951.83
3978.05
4001.82
4022.72
4040.41
4054.56
4064.9
4071.22
4073.32
4071.23
4064.95
4054.54
4040.18
4022.13
4000.69
3976.21
3949.11
3919.8
3888.74
3856.38
3823.2
3789.62
3756.08
3722.95
3690.59
3659.29
3629.29
3600.79
3573.93
3548.8
3525.45
3503.91
3484.16
3466.18
3449.91
3435.31
3422.33
3410.91
3401
3392.53
3385.47
3379.77
3375.4
3372.29
3370.45
3369.87
3370.49
3372.32
3375.37
3379.66
3385.21
3392.04
3400.19
3409.69
3420.57
3432.88
3446.65
3461.91
3478.69
3497
3516.85
3538.21
3561.08
3585.41
3611.13
3638.16
3666.38
3695.65
3725.76
3756.53
3787.64
3818.81
3849.69
3879.93
3909.15
3936.94
3962.89
3986.6
4007.67
4025.74
4040.45
4051.52
4058.71
4061.86
4060.83
4055.66
4046.39
4033.12
4016.12
3995.68
3972.16
3945.95
3917.49
3887.24
3855.64
3823.17
3790.27
3757.35
3724.85
3693.7
3663.23
3633.94
3606.09
3579.85
3555.33
3532.61
3511.72
3492.63
3475.32
3459.72
3445.74
3433.29
3422.25
3412.5
3403.95
3396.5
3390.06
3384.59
3380.07
3376.5
3373.92
3372.41
3372.04
3373.02
3375.33
3379.13
3384.55
3391.67
3400.62
3411.46
3424.25
3439.04
3455.84
3474.63
3495.39
3518.02
3542.43
3568.49
3596.04
3624.88
3654.78
3685.56
3717.13
3748.61
3779.91
3810.71
3840.69
3869.49
3896.78
3922.26
3945.64
3966.66
3985.09
4000.74
4013.44
4023.1
4029.61
4032.92
4032.5
4028.8
4021.91
4011.91
3998.94
3983.22
3964.97
3364.23
3346.3
3329.96
3315.24
3302.15
3290.64
3280.68
3272.22
3265.22
3259.66
3255.49
3252.71
3251.33
3251.3
3252.63
3255.35
3259.46
3264.98
3271.96
3280.42
3290.42
3302.01
3315.24
3330.16
3346.8
3365.21
3385.4
3407.38
3431.14
3456.62
3483.79
3512.54
3542.73
3574.23
3606.77
3640.12
3673.99
3708.03
3741.86
3775.13
3807.43
3838.33
3867.43
3894.3
3918.59
3939.97
3958.11
3972.76
3983.73
3990.84
3994.02
3993.06
3988.14
3979.31
3966.63
3950.33
3930.64
3907.83
3882.23
3854.19
3824.12
3792.39
3759.42
3725.63
3691.42
3657.16
3623.21
3589.94
3558.18
3527.2
3497.42
3469.05
3442.24
3417.11
3393.73
3372.15
3352.4
3334.48
3318.39
3304.12
3291.64
3280.94
3271.98
3264.74
3259.19
3255.28
3253.01
3252.32
3253.14
3255.46
3259.23
3264.45
3271.07
3279.11
3288.55
3299.43
3311.75
3325.56
3340.89
3357.79
3376.28
3396.39
3418.12
3441.45
3466.34
3492.74
3520.53
3549.6
3579.81
3610.95
3642.79
3675.07
3707.53
3739.84
3771.69
3802.71
3832.53
3860.78
3887.06
3910.99
3932.2
3950.35
3965.11
3976.23
3983.48
3986.69
3985.73
3980.69
3971.57
3958.46
3941.55
3921.11
3897.42
3870.85
3841.79
3810.65
3777.89
3743.96
3709.31
3674.38
3639.61
3605.39
3572.06
3539.94
3509.3
3480.33
3453.19
3427.98
3404.75
3383.52
3364.27
3346.97
3331.56
3317.96
3306.11
3295.93
3287.34
3280.27
3274.66
3270.44
3267.56
3265.97
3265.66
3266.58
3268.72
3272.07
3276.66
3282.5
3289.63
3298.07
3307.88
3319.1
3331.78
3345.97
3361.69
3378.99
3397.89
3418.4
3440.53
3464.24
3489.5
3516.23
3544.33
3573.67
3604.05
3636.05
3667.96
3700.25
3732.56
3764.48
3795.63
3825.58
3853.91
3880.19
3904.01
3924.97
3942.7
3956.89
3967.26
3973.6
3975.73
3973.61
3967.32
3956.88
3942.49
3924.39
3902.9
3878.37
3851.2
3821.83
3790.71
3758.3
3725.06
3691.44
3657.85
3624.69
3592.3
3560.97
3530.96
3502.45
3475.58
3450.45
3427.11
3405.57
3385.83
3367.85
3351.59
3337.01
3324.04
3312.62
3302.72
3294.26
3287.21
3281.51
3277.14
3274.04
3272.21
3271.62
3272.24
3274.07
3277.12
3281.41
3286.95
3293.78
3301.92
3311.42
3322.29
3334.59
3348.36
3363.61
3380.39
3398.7
3418.54
3439.91
3462.77
3487.1
3512.83
3539.87
3568.11
3597.39
3627.53
3658.32
3689.47
3720.68
3751.6
3781.9
3811.17
3839.01
3865.02
3888.78
3909.9
3928.02
3942.77
3953.87
3961.08
3964.24
3963.23
3958.04
3948.75
3935.46
3918.41
3897.92
3874.34
3848.08
3819.56
3789.24
3757.58
3725.06
3692.11
3659.14
3626.61
3595.42
3564.93
3535.62
3507.75
3481.51
3456.99
3434.27
3413.38
3394.3
3377
3361.42
3347.45
3335.02
3323.99
3314.26
3305.72
3298.27
3291.84
3286.38
3281.86
3278.29
3275.7
3274.18
3273.8
3274.76
3277.05
3280.84
3286.24
3293.36
3302.29
3313.12
3325.9
3340.69
3357.49
3376.28
3397.03
3419.67
3444.09
3470.17
3497.74
3526.59
3556.52
3587.33
3618.93
3650.46
3681.8
3712.64
3742.66
3771.51
3798.84
3824.36
3847.78
3868.84
3887.3
3902.97
3915.7
3925.36
3931.89
3935.23
3934.78
3931.06
3924.16
3914.15
3901.15
3885.4
3867.12
3265.83
3247.9
3231.58
3216.87
3203.79
3192.29
3182.33
3173.88
3166.89
3161.33
3157.18
3154.4
3153.02
3152.98
3154.31
3157.03
3161.13
3166.65
3173.62
3182.07
3192.06
3203.64
3216.86
3231.76
3248.4
3266.8
3286.98
3308.96
3332.71
3358.2
3385.37
3414.13
3444.35
3475.87
3508.44
3541.83
3575.75
3609.84
3643.74
3677.08
3709.44
3740.42
3769.59
3796.53
3820.89
3842.33
3860.52
3875.22
3886.23
3893.36
3896.54
3895.59
3890.65
3881.79
3869.07
3852.73
3832.98
3810.1
3784.43
3756.33
3726.18
3694.38
3661.34
3627.48
3593.21
3558.91
3524.91
3491.6
3459.81
3428.81
3399.01
3370.63
3343.81
3318.68
3295.3
3273.73
3253.98
3236.07
3219.99
3205.72
3193.25
3182.56
3173.6
3166.37
3160.83
3156.93
3154.66
3153.97
3154.8
3157.12
3160.9
3166.12
3172.74
3180.78
3190.22
3201.08
3213.4
3227.2
3242.52
3259.41
3277.89
3298
3319.72
3343.05
3367.95
3394.35
3422.16
3451.25
3481.47
3512.65
3544.52
3576.85
3609.35
3641.72
3673.62
3704.71
3734.6
3762.91
3789.26
3813.26
3834.54
3852.75
3867.56
3878.72
3886
3889.23
3888.27
3883.22
3874.07
3860.92
3843.96
3823.46
3799.7
3773.05
3743.91
3712.7
3679.86
3645.85
3611.13
3576.14
3541.31
3507.03
3473.67
3441.52
3410.85
3381.87
3354.72
3329.51
3306.29
3285.07
3265.84
3248.55
3233.15
3219.57
3207.73
3197.56
3188.99
3181.93
3176.33
3172.12
3169.25
3167.67
3167.37
3168.29
3170.42
3173.77
3178.36
3184.19
3191.31
3199.75
3209.55
3220.76
3233.43
3247.6
3263.32
3280.61
3299.5
3320.01
3342.13
3365.85
3391.11
3417.85
3445.97
3475.33
3505.79
3537.7
3569.7
3602.05
3634.41
3666.41
3697.62
3727.65
3756.06
3782.42
3806.31
3827.34
3845.13
3859.37
3869.78
3876.14
3878.29
3876.17
3869.86
3859.38
3844.94
3826.78
3805.21
3780.61
3753.36
3723.91
3692.71
3660.23
3626.91
3593.22
3559.57
3526.37
3493.93
3462.58
3432.54
3404.02
3377.15
3352.01
3328.67
3307.14
3287.41
3269.45
3253.21
3238.64
3225.68
3214.28
3204.38
3195.93
3188.88
3183.2
3178.83
3175.74
3173.91
3173.32
3173.94
3175.77
3178.82
3183.1
3188.64
3195.46
3203.6
3213.09
3223.95
3236.25
3250
3265.26
3282.03
3300.33
3320.17
3341.53
3364.4
3388.73
3414.47
3441.52
3469.78
3499.09
3529.26
3560.08
3591.28
3622.54
3653.52
3683.88
3713.22
3741.14
3767.22
3791.05
3812.24
3830.42
3845.23
3856.37
3863.62
3866.8
3865.79
3860.58
3851.26
3837.93
3820.83
3800.28
3776.63
3750.28
3721.68
3691.29
3659.55
3626.95
3593.93
3560.9
3528.32
3497.08
3466.55
3437.22
3409.34
3383.08
3358.56
3335.84
3314.96
3295.9
3278.61
3263.04
3249.1
3236.68
3225.68
3215.97
3207.44
3200.01
3193.59
3188.13
3183.6
3180.03
3177.44
3175.9
3175.51
3176.45
3178.72
3182.49
3187.87
3194.97
3203.88
3214.7
3227.48
3242.25
3259.05
3277.84
3298.6
3321.25
3345.68
3371.77
3399.36
3428.25
3458.21
3489.06
3520.71
3552.29
3583.68
3614.58
3644.66
3673.57
3700.96
3726.54
3750
3771.11
3789.61
3805.31
3818.06
3827.75
3834.29
3837.66
3837.18
3833.45
3826.53
3816.49
3803.47
3787.68
3769.36
3167.35
3149.44
3133.12
3118.43
3105.36
3093.87
3083.93
3075.48
3068.5
3062.95
3058.8
3056.03
3054.65
3054.61
3055.94
3058.65
3062.75
3068.26
3075.22
3083.66
3093.64
3105.2
3118.41
3133.3
3149.93
3168.32
3188.49
3210.46
3234.21
3259.7
3286.88
3315.65
3345.89
3377.44
3410.06
3443.5
3477.48
3511.64
3545.61
3579.04
3611.49
3642.56
3671.82
3698.85
3723.3
3744.81
3763.07
3777.82
3788.87
3796.03
3799.22
3798.28
3793.32
3784.41
3771.65
3755.25
3735.43
3712.47
3686.71
3658.52
3628.27
3596.39
3563.26
3529.32
3494.98
3460.61
3426.55
3393.21
3361.38
3330.35
3300.53
3272.13
3245.3
3220.17
3196.79
3175.22
3155.48
3137.57
3121.5
3107.24
3094.79
3084.1
3075.15
3067.93
3062.4
3058.51
3056.25
3055.57
3056.4
3058.73
3062.51
3067.73
3074.36
3082.39
3091.82
3102.68
3114.99
3128.77
3144.08
3160.96
3179.43
3199.53
3221.25
3244.58
3269.48
3295.89
3323.72
3352.83
3383.08
3414.3
3446.21
3478.59
3511.15
3543.59
3575.56
3606.73
3636.7
3665.1
3691.54
3715.63
3736.99
3755.27
3770.15
3781.36
3788.68
3791.93
3790.99
3785.91
3776.73
3763.52
3746.5
3725.92
3702.07
3675.33
3646.09
3614.78
3581.84
3547.74
3512.93
3477.85
3442.95
3408.62
3375.2
3343.01
3312.32
3283.32
3256.16
3230.95
3207.74
3186.53
3167.31
3150.05
3134.67
3121.11
3109.29
3099.14
3090.58
3083.54
3077.95
3073.75
3070.89
3069.32
3069.02
3069.94
3072.08
3075.43
3080
3085.83
3092.94
3101.37
3111.16
3122.35
3135.01
3149.17
3164.87
3182.16
3201.04
3221.54
3243.66
3267.38
3292.64
3319.4
3347.54
3376.94
3407.46
3439.31
3471.4
3503.83
3536.26
3568.34
3599.64
3629.76
3658.27
3684.72
3708.71
3729.82
3747.7
3762
3772.46
3778.86
3781.02
3778.89
3772.55
3762.03
3747.52
3729.29
3707.64
3682.93
3655.59
3626.04
3594.74
3562.16
3528.75
3494.98
3461.26
3427.99
3395.51
3364.11
3334.05
3305.51
3278.63
3253.5
3230.16
3208.64
3188.93
3170.98
3154.75
3140.19
3127.25
3115.86
3105.98
3097.54
3090.51
3084.83
3080.47
3077.39
3075.57
3074.98
3075.6
3077.43
3080.47
3084.75
3090.28
3097.1
3105.23
3114.7
3125.56
3137.84
3151.59
3166.83
3183.59
3201.89
3221.73
3243.09
3265.96
3290.3
3316.04
3343.11
3371.39
3400.73
3430.94
3461.81
3493.07
3524.39
3555.45
3585.89
3615.31
3643.32
3669.49
3693.41
3714.69
3732.95
3747.82
3759.03
3766.31
3769.51
3768.51
3763.29
3753.93
3740.55
3723.39
3702.75
3679.01
3652.57
3623.87
3593.37
3561.53
3528.83
3495.73
3462.62
3429.97
3398.68
3368.11
3338.74
3310.84
3284.57
3260.05
3237.34
3216.46
3197.41
3180.15
3164.6
3150.69
3138.29
3127.31
3117.62
3109.12
3101.7
3095.29
3089.84
3085.31
3081.73
3079.13
3077.58
3077.18
3078.08
3080.33
3084.07
3089.43
3096.5
3105.4
3116.2
3128.96
3143.73
3160.52
3179.31
3200.08
3222.74
3247.18
3273.3
3300.92
3329.84
3359.85
3390.75
3422.45
3454.1
3485.56
3516.53
3546.69
3575.67
3603.13
3628.78
3652.31
3673.47
3692.02
3707.76
3720.55
3730.27
3736.82
3740.2
3739.71
3735.96
3729.01
3718.95
3705.89
3690.05
3671.68
3068.8
3050.89
3034.6
3019.92
3006.86
2995.39
2985.46
2977.03
2970.06
2964.52
2960.38
2957.61
2956.23
2956.19
2957.52
2960.22
2964.32
2969.82
2976.76
2985.19
2995.15
3006.7
3019.88
3034.76
3051.37
3069.75
3089.91
3111.87
3135.62
3161.12
3188.3
3217.1
3247.36
3278.94
3311.61
3345.11
3379.17
3413.42
3447.48
3481
3513.56
3544.74
3574.11
3601.25
3625.8
3647.4
3665.74
3680.56
3691.66
3698.85
3702.06
3701.12
3696.13
3687.18
3674.36
3657.89
3637.98
3614.93
3589.07
3560.76
3530.41
3498.42
3465.19
3431.15
3396.72
3362.27
3328.15
3294.75
3262.88
3231.81
3201.96
3173.54
3146.71
3121.57
3098.19
3076.63
3056.9
3039
3022.94
3008.69
2996.25
2985.58
2976.64
2969.43
2963.91
2960.03
2957.78
2957.1
2957.95
2960.28
2964.07
2969.29
2975.92
2983.94
2993.37
3004.22
3016.51
3030.28
3045.58
3062.44
3080.9
3100.99
3122.71
3146.04
3170.94
3197.37
3225.21
3254.35
3284.64
3315.9
3347.86
3380.3
3412.93
3445.45
3477.51
3508.77
3538.85
3567.35
3593.89
3618.09
3639.55
3657.92
3672.88
3684.16
3691.52
3694.79
3693.86
3688.76
3679.53
3666.27
3649.17
3628.49
3604.54
3577.69
3548.33
3516.89
3483.84
3449.62
3414.7
3379.53
3344.54
3310.14
3276.66
3244.43
3213.7
3184.68
3157.51
3132.3
3109.1
3087.9
3068.71
3051.46
3036.11
3022.57
3010.77
3000.64
2992.1
2985.08
2979.51
2975.33
2972.48
2970.92
2970.62
2971.55
2973.68
2977.03
2981.6
2987.42
2994.51
3002.93
3012.7
3023.89
3036.53
3050.68
3066.37
3083.63
3102.51
3123
3145.12
3168.83
3194.11
3220.88
3249.04
3278.48
3309.06
3340.88
3373.06
3405.57
3438.1
3470.27
3501.68
3531.92
3560.54
3587.11
3611.2
3632.42
3650.39
3664.78
3675.3
3681.73
3683.92
3681.78
3675.4
3664.83
3650.25
3631.92
3610.16
3585.34
3557.88
3528.21
3496.79
3464.09
3430.58
3396.71
3362.9
3329.56
3297.02
3265.58
3235.48
3206.92
3180.03
3154.89
3131.57
3110.06
3090.36
3072.43
3056.22
3041.69
3028.76
3017.39
3007.52
2999.1
2992.08
2986.41
2982.06
2978.99
2977.17
2976.59
2977.21
2979.04
2982.07
2986.34
2991.87
2998.68
3006.79
3016.26
3027.1
3039.38
3053.11
3068.34
3085.1
3103.39
3123.22
3144.58
3167.45
3191.79
3217.55
3244.64
3272.94
3302.31
3332.57
3363.5
3394.83
3426.23
3457.38
3487.91
3517.44
3545.56
3571.84
3595.87
3617.25
3635.6
3650.56
3661.83
3669.16
3672.39
3671.4
3666.16
3656.76
3643.32
3626.07
3605.34
3581.49
3554.93
3526.1
3495.48
3463.53
3430.71
3397.5
3364.31
3331.58
3300.22
3269.59
3240.19
3212.27
3185.99
3161.45
3138.75
3117.89
3098.86
3081.62
3066.09
3052.21
3039.84
3028.89
3019.23
3010.76
3003.36
2996.96
2991.51
2986.99
2983.4
2980.78
2979.22
2978.8
2979.66
2981.88
2985.59
2990.92
2997.97
3006.84
3017.62
3030.37
3045.13
3061.91
3080.7
3101.47
3124.14
3148.61
3174.75
3202.41
3231.37
3261.43
3292.39
3324.17
3355.89
3387.43
3418.49
3448.74
3477.81
3505.36
3531.09
3554.69
3575.92
3594.54
3610.33
3623.16
3632.9
3639.48
3642.86
3642.37
3638.59
3631.62
3621.51
3608.41
3592.52
3574.09
2970.16
2952.28
2936
2921.34
2908.3
2896.85
2886.93
2878.52
2871.56
2866.03
2861.89
2859.14
2857.75
2857.71
2859.04
2861.74
2865.82
2871.31
2878.24
2886.66
2896.6
2908.12
2921.29
2936.15
2952.74
2971.11
2991.25
3013.21
3036.96
3062.45
3089.65
3118.46
3148.76
3180.38
3213.11
3246.68
3280.83
3315.17
3349.34
3382.98
3415.66
3446.97
3476.47
3503.73
3528.4
3550.11
3568.55
3583.45
3594.6
3601.83
3605.05
3604.11
3599.1
3590.1
3577.21
3560.65
3540.65
3517.48
3491.5
3463.07
3432.59
3400.47
3367.12
3332.97
3298.43
3263.88
3229.69
3196.24
3164.31
3133.19
3103.32
3074.88
3048.03
3022.89
2999.52
2977.96
2958.23
2940.35
2924.3
2910.07
2897.64
2886.98
2878.05
2870.86
2865.35
2861.48
2859.24
2858.58
2859.43
2861.77
2865.57
2870.79
2877.42
2885.44
2894.86
2905.7
2917.97
2931.73
2947.01
2963.85
2982.3
3002.38
3024.09
3047.42
3072.33
3098.77
3126.63
3155.8
3186.13
3217.44
3249.47
3281.98
3314.7
3347.31
3379.47
3410.84
3441.03
3469.66
3496.33
3520.64
3542.22
3560.7
3575.76
3587.1
3594.51
3597.81
3596.9
3591.78
3582.5
3569.16
3551.97
3531.18
3507.11
3480.12
3450.62
3419.05
3385.85
3351.5
3316.46
3281.18
3246.08
3211.6
3178.05
3145.76
3114.99
3085.94
3058.77
3033.56
3010.37
2989.19
2970.02
2952.8
2937.47
2923.96
2912.19
2902.09
2893.57
2886.57
2881.02
2876.85
2874.01
2872.47
2872.18
2873.1
2875.24
2878.58
2883.15
2888.95
2896.04
2904.44
2914.2
2925.36
2937.99
2952.12
2967.79
2985.04
3003.91
3024.39
3046.5
3070.22
3095.5
3122.28
3150.47
3179.95
3210.6
3242.41
3274.69
3307.3
3339.93
3372.22
3403.75
3434.11
3462.87
3489.57
3513.8
3535.15
3553.22
3567.7
3578.3
3584.77
3586.98
3584.84
3578.42
3567.78
3553.11
3534.67
3512.79
3487.84
3460.24
3430.43
3398.87
3366.04
3332.4
3298.41
3264.5
3231.07
3198.46
3166.96
3136.83
3108.24
3081.34
3056.21
3032.89
3011.4
2991.72
2973.81
2957.63
2943.11
2930.21
2918.86
2909.01
2900.6
2893.6
2887.94
2883.61
2880.54
2878.73
2878.15
2878.77
2880.59
2883.63
2887.89
2893.41
2900.2
2908.31
2917.76
2928.59
2940.85
2954.57
2969.79
2986.53
3004.82
3024.64
3046
3068.87
3093.22
3118.99
3146.1
3174.43
3203.85
3234.16
3265.16
3296.57
3328.06
3359.31
3389.96
3419.61
3447.85
3474.26
3498.41
3519.92
3538.38
3553.44
3564.79
3572.18
3575.44
3574.45
3569.19
3559.74
3546.23
3528.89
3508.04
3484.06
3457.36
3428.4
3397.63
3365.54
3332.59
3299.26
3265.95
3233.14
3201.69
3171.01
3141.56
3113.61
3087.31
3062.78
3040.08
3019.23
3000.22
2983.01
2967.52
2953.66
2941.34
2930.42
2920.8
2912.35
2904.97
2898.59
2893.15
2888.62
2885.03
2882.4
2880.81
2880.39
2881.19
2883.37
2887.05
2892.34
2899.36
2908.21
2918.96
2931.69
2946.44
2963.21
2982
3002.78
3025.47
3049.96
3076.13
3103.83
3132.84
3162.96
3193.99
3225.85
3257.66
3289.3
3320.46
3350.81
3379.99
3407.64
3433.46
3457.16
3478.47
3497.15
3513.01
3525.88
3535.66
3542.26
3545.65
3545.15
3541.35
3534.34
3524.2
3511.04
3495.09
3476.58
2871.46
2853.59
2837.33
2822.69
2809.68
2798.24
2788.35
2779.95
2773
2767.48
2763.36
2760.61
2759.22
2759.18
2760.51
2763.2
2767.28
2772.75
2779.67
2788.06
2797.98
2809.48
2822.63
2837.47
2854.04
2872.38
2892.52
2914.46
2938.21
2963.71
2990.92
3019.75
3050.08
3081.75
3114.55
3148.21
3182.45
3216.9
3251.19
3284.97
3317.79
3349.24
3378.89
3406.3
3431.1
3452.94
3471.48
3486.47
3497.69
3504.97
3508.21
3507.26
3502.23
3493.17
3480.2
3463.54
3443.43
3420.13
3394.01
3365.43
3334.81
3302.54
3269.05
3234.77
3200.11
3165.46
3131.17
3097.66
3065.67
3034.51
3004.59
2976.13
2949.27
2924.12
2900.75
2879.2
2859.49
2841.62
2825.58
2811.37
2798.95
2788.31
2779.4
2772.22
2766.72
2762.87
2760.64
2759.99
2760.86
2763.21
2767.01
2772.23
2778.86
2786.88
2796.29
2807.11
2819.37
2833.11
2848.37
2865.2
2883.63
2903.69
2925.39
2948.72
2973.65
3000.1
3027.98
3057.19
3087.56
3118.94
3151.04
3183.63
3216.44
3249.16
3281.44
3312.93
3343.26
3372.02
3398.83
3423.29
3445
3463.6
3478.77
3490.2
3497.67
3501.01
3500.1
3494.95
3485.61
3472.2
3454.9
3433.98
3409.77
3382.63
3352.97
3321.23
3287.88
3253.38
3218.2
3182.78
3147.57
3112.99
3079.36
3047
3016.19
2987.12
2959.94
2934.73
2911.54
2890.39
2871.24
2854.06
2838.76
2825.28
2813.54
2803.47
2794.98
2788
2782.47
2778.32
2775.5
2773.97
2773.68
2774.61
2776.75
2780.09
2784.64
2790.44
2797.51
2805.89
2815.63
2826.78
2839.38
2853.49
2869.15
2886.38
2905.23
2925.7
2947.81
2971.53
2996.82
3023.62
3051.84
3081.36
3112.07
3143.9
3176.28
3209
3241.75
3274.16
3305.84
3336.35
3365.26
3392.12
3416.5
3437.99
3456.19
3470.78
3481.45
3487.98
3490.21
3488.07
3481.6
3470.88
3456.11
3437.55
3415.53
3390.43
3362.66
3332.69
3300.97
3267.98
3234.2
3200.08
3166.06
3132.52
3099.83
3068.28
3038.1
3009.48
2982.57
2957.44
2934.13
2912.66
2893
2875.11
2858.96
2844.47
2831.59
2820.26
2810.43
2802.05
2795.06
2789.42
2785.1
2782.04
2780.24
2779.66
2780.29
2782.11
2785.13
2789.39
2794.89
2801.68
2809.77
2819.2
2830.02
2842.26
2855.96
2871.17
2887.9
2906.18
2926
2947.35
2970.22
2994.58
3020.36
3047.5
3075.87
3105.33
3135.71
3166.78
3198.28
3229.88
3261.25
3292.02
3321.81
3350.2
3376.76
3401.06
3422.69
3441.28
3456.46
3467.9
3475.35
3478.65
3477.67
3472.39
3462.89
3449.28
3431.84
3410.86
3386.73
3359.88
3330.75
3299.82
3267.56
3234.46
3200.99
3167.56
3134.65
3103.11
3072.35
3042.86
3014.87
2988.56
2964.02
2941.32
2920.49
2901.51
2884.32
2868.87
2855.06
2842.77
2831.9
2822.31
2813.9
2806.55
2800.19
2794.75
2790.22
2786.61
2783.97
2782.36
2781.92
2782.67
2784.8
2788.44
2793.7
2800.68
2809.49
2820.22
2832.93
2847.66
2864.43
2883.22
2904
2926.71
2951.22
2977.43
3005.17
3034.24
3064.43
3095.54
3127.5
3159.41
3191.16
3222.44
3252.91
3282.21
3309.98
3335.91
3359.71
3381.11
3399.88
3415.79
3428.72
3438.53
3445.16
3448.57
3448.05
3444.23
3437.18
3426.99
3413.77
3397.75
3379.16
2772.67
2754.83
2738.59
2723.97
2710.98
2699.57
2689.7
2681.32
2674.39
2668.88
2664.77
2662.02
2660.64
2660.6
2661.92
2664.6
2668.67
2674.13
2681.03
2689.4
2699.3
2710.78
2723.9
2738.71
2755.26
2773.58
2793.7
2815.64
2839.38
2864.88
2892.1
2920.96
2951.33
2983.06
3015.93
3049.68
3084.03
3118.61
3153.04
3186.96
3219.94
3251.57
3281.38
3308.95
3333.91
3355.88
3374.55
3389.64
3400.93
3408.26
3411.52
3410.58
3405.5
3396.38
3383.32
3366.56
3346.31
3322.87
3296.59
3267.85
3237.06
3204.63
3170.98
3136.55
3101.76
3066.99
3032.6
2999.02
2966.96
2935.74
2905.79
2877.3
2850.43
2825.27
2801.91
2780.36
2760.66
2742.81
2726.79
2712.59
2700.19
2689.57
2680.68
2673.51
2668.03
2664.2
2661.98
2661.34
2662.22
2664.58
2668.39
2673.62
2680.25
2688.26
2697.67
2708.47
2720.71
2734.43
2749.67
2766.47
2784.88
2804.93
2826.63
2849.95
2874.88
2901.35
2929.27
2958.51
2988.94
3020.39
3052.56
3085.25
3118.16
3151
3183.41
3215.05
3245.52
3274.45
3301.42
3326.03
3347.89
3366.64
3381.92
3393.45
3400.99
3404.36
3403.46
3398.29
3388.89
3375.38
3357.96
3336.9
3312.52
3285.21
3255.37
3223.46
3189.93
3155.25
3119.91
3084.35
3049.01
3014.32
2980.59
2948.17
2917.31
2888.2
2861.01
2835.8
2812.63
2791.5
2772.39
2755.23
2739.97
2726.53
2714.82
2704.78
2696.32
2689.37
2683.87
2679.74
2676.94
2675.42
2675.14
2676.08
2678.21
2681.55
2686.09
2691.87
2698.93
2707.29
2717.01
2728.13
2740.72
2754.8
2770.44
2787.65
2806.48
2826.95
2849.04
2872.76
2898.06
2924.88
2953.14
2982.71
3013.48
3045.35
3077.83
3110.67
3143.55
3176.12
3207.95
3238.63
3267.72
3294.75
3319.3
3340.95
3359.29
3374
3384.77
3391.36
3393.62
3391.46
3384.94
3374.14
3359.25
3340.55
3318.37
3293.1
3265.15
3234.99
3203.1
3169.94
3135.99
3101.72
3067.56
3033.92
3001.14
2969.51
2939.29
2910.64
2883.71
2858.58
2835.29
2813.83
2794.2
2776.34
2760.22
2745.76
2732.91
2721.61
2711.8
2703.44
2696.47
2690.85
2686.53
2683.5
2681.7
2681.13
2681.75
2683.57
2686.59
2690.83
2696.32
2703.1
2711.17
2720.59
2731.39
2743.61
2757.3
2772.49
2789.21
2807.47
2827.28
2848.63
2871.51
2895.87
2921.67
2948.83
2977.24
3006.76
3037.2
3068.36
3099.97
3131.68
3163.19
3194.11
3224.05
3252.6
3279.33
3303.79
3325.58
3344.32
3359.62
3371.16
3378.69
3382.03
3381.06
3375.75
3366.19
3352.49
3334.92
3313.79
3289.5
3262.47
3233.16
3202.04
3169.6
3136.33
3102.7
3069.13
3036.11
3004.46
2973.63
2944.07
2916.05
2889.72
2865.17
2842.49
2821.67
2802.72
2785.57
2770.16
2756.39
2744.15
2733.32
2723.78
2715.4
2708.08
2701.74
2696.32
2691.79
2688.16
2685.49
2683.86
2683.4
2684.09
2686.17
2689.77
2694.99
2701.93
2710.7
2721.41
2734.09
2748.8
2765.56
2784.35
2805.14
2827.86
2852.41
2878.66
2906.45
2935.58
2965.85
2997.05
3029.12
3061.15
3093.02
3124.42
3155.04
3184.47
3212.37
3238.42
3262.34
3283.85
3302.7
3318.7
3331.68
3341.54
3348.19
3351.61
3351.08
3347.23
3340.14
3329.89
3316.61
3300.5
3281.82
2673.82
2655.99
2639.78
2625.19
2612.23
2600.84
2590.99
2582.63
2575.72
2570.22
2566.12
2563.39
2562.01
2561.97
2563.28
2565.95
2570.01
2575.46
2582.33
2590.68
2600.55
2612
2625.09
2639.88
2656.4
2674.7
2694.81
2716.73
2740.46
2765.97
2793.2
2822.09
2852.5
2884.29
2917.24
2951.1
2985.57
3020.29
3054.87
3088.96
3122.12
3153.93
3183.94
3211.69
3236.81
3258.94
3277.74
3292.94
3304.32
3311.71
3314.99
3314.04
3308.93
3299.74
3286.59
3269.7
3249.31
3225.7
3199.25
3170.33
3139.35
3106.74
3072.92
3038.32
3003.38
2968.48
2933.98
2900.33
2868.18
2836.91
2806.91
2778.39
2751.5
2726.34
2702.98
2681.44
2661.76
2643.92
2627.92
2613.74
2601.36
2590.75
2581.89
2574.74
2569.27
2565.46
2563.26
2562.64
2563.53
2565.9
2569.72
2574.96
2581.58
2589.59
2598.98
2609.77
2621.99
2635.68
2650.9
2667.67
2686.07
2706.1
2727.78
2751.11
2776.05
2802.54
2830.48
2859.77
2890.25
2921.78
2954.04
2986.83
3019.86
3052.83
3085.39
3117.18
3147.83
3176.93
3204.08
3228.87
3250.9
3269.8
3285.22
3296.86
3304.48
3307.89
3307
3301.79
3292.32