/*--------------------------------*- C++ -*----------------------------------*\
| =========                 |                                                 |
| \\      /  F ield         | OpenFOAM: The Open Source CFD Toolbox           |
|  \\    /   O peration     | Version:  3.0.1                                 |
|   \\  /    A nd           | Web:      www.OpenFOAM.org                      |
|    \\/     M anipulation  |                                                 |
\*---------------------------------------------------------------------------*/
FoamFile
{
    version     2.0;
    format      ascii;
    class       volScalarField;
    location    "27";
    object      p;
}
// * * * * * * * * * * * * * * * * * * * * * * * * * * * * * * * * * * * * * //

dimensions      [1 -1 -2 0 0 0 0];

internalField   nonuniform List<scalar> 
21420
(
4038.23
4070.34
4101.72
4131.91
4160.5
4186.97
4210.92
4231.95
4249.73
4264.01
4274.55
4281.18
4283.74
4282.09
4276.35
4266.69
4253.14
4235.92
4215.27
4191.52
4165.02
4136.12
4105.21
4072.72
4039.06
4004.65
3969.87
3935.12
3900.85
3873.28
3841.14
3810.01
3780.26
3752.09
3725.61
3700.9
3677.99
3656.9
3637.64
3620.18
3604.48
3590.5
3578.21
3567.54
3558.45
3550.9
3544.84
3540.23
3537.08
3535.38
3535.13
3536.28
3538.87
3542.94
3548.52
3555.63
3564.32
3574.64
3586.63
3600.33
3615.76
3632.95
3651.92
3672.64
3695.08
3719.19
3744.91
3772.11
3800.7
3830.52
3861.41
3893.35
3925.73
3958.3
3990.85
4023.05
4054.61
4085.18
4114.42
4142
4167.54
4190.72
4211.21
4228.68
4242.87
4253.52
4260.44
4263.48
4262.55
4257.64
4248.81
4236.11
4219.73
4199.86
4176.77
4150.75
4122.15
4091.34
4058.74
4024.74
3989.81
3954.39
3918.92
3883.81
3849.45
3816.21
3784.37
3754.18
3725.84
3699.47
3675.14
3652.89
3632.72
3614.57
3598.41
3584.15
3571.72
3561.04
3552.03
3544.62
3538.74
3534.31
3531.29
3529.64
3529.29
3530.19
3532.33
3535.68
3540.23
3545.97
3552.92
3561.09
3570.52
3581.24
3593.31
3606.77
3621.69
3638.12
3656.1
3675.69
3696.9
3719.75
3744.2
3770.22
3797.69
3826.52
3856.94
3887.91
3919.6
3951.7
3983.86
4015.72
4046.87
4076.88
4105.34
4131.8
4155.85
4177.1
4195.17
4209.76
4220.58
4227.43
4230.13
4228.63
4222.95
4213.21
4199.48
4182.03
4161.13
4137.13
4110.42
4081.4
4050.52
4018.23
3984.97
3951.19
3917.28
3883.64
3850.59
3818.44
3787.44
3757.78
3729.62
3703.09
3678.25
3655.15
3633.8
3614.18
3596.27
3580.04
3565.43
3552.39
3540.88
3530.87
3522.31
3515.17
3509.44
3505.08
3502.08
3500.45
3500.2
3501.29
3503.75
3507.6
3512.86
3519.54
3527.68
3537.31
3548.43
3561.07
3575.27
3591.05
3608.42
3627.39
3647.97
3670.14
3693.88
3719.11
3745.77
3773.73
3802.95
3833.05
3863.9
3895.27
3926.88
3958.42
3989.56
4019.94
4049.2
4076.97
4102.86
4126.53
4147.61
4165.77
4180.74
4192.26
4200.12
4204.17
4204.29
4200.49
4192.82
4181.31
4166.13
4147.51
4125.69
4101.02
4073.87
4044.63
4013.73
3981.63
3948.77
3915.57
3882.46
3849.79
3817.93
3787.15
3757.71
3729.78
3703.53
3679.06
3656.44
3635.69
3616.84
3599.85
3584.71
3571.35
3559.73
3549.78
3541.43
3534.6
3529.22
3525.24
3522.56
3521.15
3521.01
3522.16
3524.49
3527.99
3532.67
3538.56
3545.66
3553.99
3563.59
3574.52
3586.81
3600.49
3615.65
3632.31
3650.5
3670.28
3691.65
3714.61
3739.13
3765.16
3792.58
3821.26
3850.79
3881.36
3912.7
3944.47
3976.33
4007.93
4038.87
4068.77
4097.24
4123.85
4148.25
4170.07
4188.96
4204.65
4216.86
4225.41
4230.17
4230.93
4227.73
4220.6
4209.66
4195.12
4177.22
4156.24
4132.51
4106.37
4078.24
4048.5
4017.57
3985.83
3953.67
3921.46
3889.53
3858.23
3830.14
3801.06
3773.2
3746.78
3721.93
3698.76
3677.34
3657.69
3639.84
3623.78
3609.48
3596.91
3586.02
3576.76
3569.07
3562.91
3558.23
3554.95
3553.03
3552.45
3553.46
3555.84
3559.56
3564.57
3570.86
3578.45
3587.37
3940.13
3972.25
4003.65
4033.85
4062.47
4088.95
4112.92
4133.96
4151.76
4166.05
4176.6
4183.23
4185.81
4184.15
4178.4
4168.73
4155.18
4137.94
4117.28
4093.51
4067
4038.08
4007.15
3974.64
3940.96
3906.54
3871.75
3836.97
3802.68
3775.14
3742.97
3711.83
3682.08
3653.91
3627.42
3602.71
3579.81
3558.72
3539.46
3522
3506.31
3492.33
3480.04
3469.38
3460.29
3452.74
3446.68
3442.08
3438.92
3437.22
3436.98
3438.12
3440.71
3444.78
3450.36
3457.47
3466.15
3476.47
3488.46
3502.15
3517.59
3534.78
3553.74
3574.46
3596.9
3621.01
3646.73
3673.94
3702.53
3732.35
3763.25
3795.21
3827.59
3860.18
3892.74
3924.95
3956.52
3987.11
4016.37
4043.96
4069.52
4092.72
4113.22
4130.7
4144.9
4155.57
4162.49
4165.54
4164.61
4159.69
4150.86
4138.15
4121.76
4101.87
4078.77
4052.73
4024.11
3993.29
3960.66
3926.65
3891.7
3856.27
3820.77
3785.65
3751.28
3718.03
3686.18
3655.99
3627.65
3601.28
3576.95
3554.7
3534.53
3516.39
3500.23
3485.97
3473.55
3462.87
3453.87
3446.46
3440.58
3436.16
3433.14
3431.49
3431.14
3432.04
3434.18
3437.53
3442.08
3447.82
3454.77
3462.94
3472.36
3483.08
3495.15
3508.61
3523.52
3539.95
3557.93
3577.52
3598.73
3621.57
3646.03
3672.04
3699.52
3728.35
3758.78
3789.76
3821.46
3853.57
3885.75
3917.62
3948.79
3978.82
4007.29
4033.78
4057.85
4079.11
4097.2
4111.8
4122.63
4129.49
4132.2
4130.69
4125.01
4115.26
4101.52
4084.05
4063.14
4039.12
4012.39
3983.36
3952.46
3920.14
3886.87
3853.06
3819.15
3785.49
3752.43
3720.27
3689.26
3659.6
3631.44
3604.91
3580.07
3556.97
3535.62
3516.01
3498.1
3481.87
3467.26
3454.23
3442.72
3432.71
3424.15
3417.02
3411.28
3406.92
3403.93
3402.3
3402.05
3403.14
3405.6
3409.45
3414.7
3421.38
3429.52
3439.14
3450.26
3462.91
3477.11
3492.88
3510.25
3529.22
3549.79
3571.97
3595.7
3620.94
3647.6
3675.57
3704.8
3734.9
3765.76
3797.14
3828.76
3860.31
3891.46
3921.86
3951.14
3978.92
4004.84
4028.51
4049.61
4067.79
4082.77
4094.3
4102.17
4106.22
4106.34
4102.54
4094.87
4083.35
4068.16
4049.52
4027.69
4003
3975.83
3946.57
3915.65
3883.54
3850.66
3817.44
3784.31
3751.64
3719.76
3688.98
3659.53
3631.6
3605.35
3580.88
3558.25
3537.51
3518.66
3501.67
3486.53
3473.18
3461.56
3451.62
3443.27
3436.44
3431.07
3427.08
3424.41
3423
3422.86
3424.01
3426.34
3429.84
3434.52
3440.41
3447.51
3455.84
3465.44
3476.37
3488.65
3502.33
3517.48
3534.14
3552.34
3572.11
3593.48
3616.43
3640.96
3666.99
3694.42
3723.1
3752.64
3783.21
3814.56
3846.34
3878.22
3909.84
3940.79
3970.7
3999.19
4025.82
4050.24
4072.07
4090.98
4106.68
4118.9
4127.46
4132.22
4132.99
4129.77
4122.64
4111.7
4097.15
4079.23
4058.23
4034.48
4008.33
3980.18
3950.43
3919.48
3887.72
3855.54
3823.33
3791.39
3760.08
3731.97
3702.89
3675.02
3648.6
3623.75
3600.58
3579.16
3559.51
3541.67
3525.6
3511.31
3498.74
3487.85
3478.59
3470.91
3464.76
3460.07
3456.79
3454.87
3454.3
3455.3
3457.69
3461.41
3466.42
3472.71
3480.3
3489.22
3842.02
3874.18
3905.61
3935.85
3964.5
3991.02
4015.02
4036.1
4053.92
4068.23
4078.8
4085.44
4088.03
4086.38
4080.62
4070.93
4057.35
4040.09
4019.4
3995.6
3969.05
3940.09
3909.12
3876.58
3842.87
3808.41
3773.59
3738.79
3704.44
3676.94
3644.72
3613.57
3583.81
3555.64
3529.15
3504.44
3481.54
3460.46
3441.21
3423.75
3408.06
3394.1
3381.81
3371.15
3362.07
3354.52
3348.47
3343.86
3340.71
3339.01
3338.76
3339.91
3342.5
3346.56
3352.14
3359.24
3367.92
3378.23
3390.22
3403.91
3419.34
3436.52
3455.48
3476.21
3498.65
3522.76
3548.48
3575.7
3604.3
3634.13
3665.04
3697.02
3729.42
3762.03
3794.61
3826.85
3858.45
3889.07
3918.36
3945.98
3971.57
3994.8
4015.33
4032.85
4047.07
4057.75
4064.7
4067.76
4066.81
4061.89
4053.05
4040.33
4023.91
4004
3980.86
3954.8
3926.14
3895.28
3862.61
3828.56
3793.58
3758.11
3722.59
3687.43
3653.04
3619.77
3587.91
3557.71
3529.36
3502.99
3478.66
3456.42
3436.25
3418.12
3401.97
3387.72
3375.3
3364.63
3355.64
3348.24
3342.37
3337.94
3334.93
3333.29
3332.94
3333.85
3335.98
3339.33
3343.88
3349.63
3356.57
3364.74
3374.16
3384.87
3396.93
3410.38
3425.29
3441.71
3459.69
3479.27
3500.48
3523.32
3547.78
3573.79
3601.28
3630.11
3660.56
3691.56
3723.27
3755.41
3787.62
3819.53
3850.73
3880.8
3909.31
3935.83
3959.94
3981.24
3999.36
4013.99
4024.84
4031.71
4034.44
4032.91
4027.22
4017.46
4003.7
3986.2
3965.26
3941.2
3914.43
3885.36
3854.42
3822.07
3788.76
3754.92
3720.97
3687.29
3654.21
3622.04
3591.02
3561.35
3533.19
3506.65
3481.81
3458.71
3437.37
3417.76
3399.86
3383.63
3369.03
3356
3344.5
3334.49
3325.94
3318.8
3313.07
3308.71
3305.72
3304.1
3303.84
3304.93
3307.39
3311.23
3316.49
3323.17
3331.3
3340.92
3352.03
3364.68
3378.87
3394.64
3412
3430.97
3451.55
3473.72
3497.46
3522.7
3549.36
3577.34
3606.58
3636.7
3667.57
3698.97
3730.62
3762.2
3793.38
3823.81
3853.12
3880.93
3906.88
3930.59
3951.72
3969.93
3984.93
3996.48
4004.36
4008.44
4008.54
4004.74
3997.06
3985.52
3970.31
3951.64
3929.78
3905.06
3877.85
3848.55
3817.6
3785.44
3752.53
3719.28
3686.12
3653.42
3621.53
3590.73
3561.27
3533.34
3507.08
3482.61
3459.98
3439.24
3420.39
3403.42
3388.28
3374.93
3363.32
3353.39
3345.05
3338.22
3332.86
3328.88
3326.21
3324.81
3324.66
3325.82
3328.15
3331.65
3336.33
3342.21
3349.31
3357.63
3367.23
3378.15
3390.43
3404.11
3419.26
3435.91
3454.1
3473.87
3495.23
3518.19
3542.71
3568.75
3596.18
3624.87
3654.42
3685.01
3716.39
3748.19
3780.1
3811.74
3842.72
3872.67
3901.2
3927.86
3952.31
3974.18
3993.12
4008.84
4021.08
4029.65
4034.43
4035.21
4031.97
4024.83
4013.87
3999.3
3981.34
3960.32
3936.54
3910.35
3882.17
3852.38
3821.39
3789.61
3757.4
3725.16
3693.2
3661.88
3633.73
3604.64
3576.77
3550.34
3525.49
3502.32
3480.9
3461.26
3443.41
3427.36
3413.06
3400.5
3389.62
3380.37
3372.69
3366.54
3361.86
3358.59
3356.67
3356.09
3357.1
3359.49
3363.21
3368.23
3374.52
3382.1
3391.02
3743.91
3776.12
3807.61
3837.9
3866.6
3893.17
3917.23
3938.35
3956.21
3970.56
3981.15
3987.81
3990.4
3988.77
3982.99
3973.28
3959.67
3942.36
3921.63
3897.78
3871.17
3842.16
3811.13
3778.54
3744.78
3710.28
3675.41
3640.56
3606.15
3578.68
3546.41
3515.23
3485.46
3457.28
3430.8
3406.09
3383.19
3362.12
3342.87
3325.42
3309.74
3295.79
3283.51
3272.85
3263.78
3256.24
3250.19
3245.6
3242.44
3240.75
3240.49
3241.64
3244.22
3248.29
3253.85
3260.95
3269.62
3279.93
3291.9
3305.59
3321.01
3338.19
3357.15
3377.87
3400.31
3424.43
3450.16
3477.38
3506
3535.84
3566.77
3598.79
3631.22
3663.86
3696.47
3728.75
3760.39
3791.06
3820.4
3848.06
3873.71
3896.98
3917.56
3935.12
3949.38
3960.09
3967.05
3970.14
3969.17
3964.25
3955.39
3942.64
3926.19
3906.24
3883.06
3856.94
3828.23
3797.31
3764.59
3730.49
3695.45
3659.93
3624.36
3589.16
3554.74
3521.43
3489.55
3459.34
3430.98
3404.61
3380.29
3358.05
3337.89
3319.77
3303.63
3289.39
3276.99
3266.33
3257.34
3249.95
3244.09
3239.68
3236.67
3235.03
3234.69
3235.6
3237.74
3241.09
3245.64
3251.38
3258.32
3266.48
3275.9
3286.6
3298.65
3312.1
3327
3343.41
3361.38
3380.95
3402.15
3424.99
3449.45
3475.47
3502.97
3531.81
3562.29
3593.3
3625.05
3657.22
3689.48
3721.43
3752.68
3782.81
3811.38
3837.96
3862.12
3883.48
3901.65
3916.32
3927.2
3934.09
3936.84
3935.3
3929.6
3919.81
3906.02
3888.48
3867.49
3843.38
3816.54
3787.41
3756.41
3724.01
3690.64
3656.76
3622.77
3589.05
3555.94
3523.74
3492.7
3463.02
3434.85
3408.31
3383.47
3360.38
3339.04
3319.44
3301.55
3285.33
3270.73
3257.71
3246.22
3236.22
3227.67
3220.54
3214.81
3210.45
3207.46
3205.84
3205.58
3206.66
3209.12
3212.97
3218.22
3224.89
3233.02
3242.63
3253.74
3266.38
3280.57
3296.33
3313.69
3332.66
3353.23
3375.4
3399.14
3424.39
3451.06
3479.05
3508.31
3538.45
3569.35
3600.77
3632.46
3664.07
3695.3
3725.77
3755.13
3783
3809
3832.76
3853.93
3872.18
3887.22
3898.8
3906.71
3910.8
3910.91
3907.09
3899.4
3887.84
3872.6
3853.88
3831.97
3807.2
3779.93
3750.57
3719.56
3687.35
3654.38
3621.09
3587.89
3555.16
3523.23
3492.41
3462.93
3434.99
3408.73
3384.25
3361.63
3340.9
3322.05
3305.08
3289.95
3276.62
3265.02
3255.09
3246.76
3239.95
3234.59
3230.62
3227.96
3226.56
3226.41
3227.57
3229.91
3233.41
3238.09
3243.97
3251.06
3259.38
3268.97
3279.89
3292.15
3305.83
3320.96
3337.61
3355.79
3375.55
3396.91
3419.87
3444.4
3470.44
3497.88
3526.58
3556.15
3586.76
3618.17
3650.01
3681.96
3713.65
3744.68
3774.68
3803.26
3829.97
3854.48
3876.39
3895.38
3911.14
3923.41
3932
3936.78
3937.58
3934.32
3927.16
3916.18
3901.57
3883.57
3862.5
3838.67
3812.43
3784.19
3754.35
3723.32
3691.48
3659.24
3626.96
3594.97
3563.63
3535.41
3506.32
3478.44
3452.01
3427.15
3403.98
3382.56
3362.92
3345.09
3329.03
3314.75
3302.19
3291.32
3282.08
3274.41
3268.27
3263.59
3260.32
3258.41
3257.84
3258.85
3261.25
3264.97
3269.99
3276.27
3283.86
3292.77
3645.8
3678.07
3709.63
3739.99
3768.77
3795.41
3819.53
3840.72
3858.64
3873.03
3883.66
3890.33
3892.93
3891.33
3885.53
3875.78
3862.12
3844.76
3823.97
3800.05
3773.37
3744.28
3713.18
3680.52
3646.69
3612.12
3577.2
3542.29
3507.82
3480.34
3448.01
3416.81
3387.03
3358.85
3332.36
3307.65
3284.76
3263.7
3244.46
3227.02
3211.35
3197.41
3185.14
3174.5
3165.43
3157.9
3151.86
3147.27
3144.12
3142.42
3142.16
3143.31
3145.89
3149.95
3155.51
3162.6
3171.26
3181.56
3193.52
3207.19
3222.61
3239.78
3258.74
3279.46
3301.9
3326.02
3351.76
3379
3407.63
3437.49
3468.45
3500.52
3532.98
3565.67
3598.32
3630.65
3662.35
3693.08
3722.48
3750.21
3775.92
3799.26
3819.89
3837.51
3851.81
3862.56
3869.56
3872.66
3871.7
3866.76
3857.88
3845.1
3828.6
3808.6
3785.35
3759.17
3730.39
3699.39
3666.6
3632.42
3597.31
3561.72
3526.08
3490.83
3456.36
3423.02
3391.11
3360.88
3332.51
3306.13
3281.81
3259.59
3239.44
3221.34
3205.21
3190.99
3178.6
3167.96
3158.99
3151.61
3145.76
3141.35
3138.36
3136.73
3136.39
3137.3
3139.45
3142.8
3147.35
3153.09
3160.02
3168.18
3177.58
3188.28
3200.32
3213.75
3228.64
3245.04
3262.99
3282.56
3303.75
3326.59
3351.05
3377.08
3404.59
3433.43
3463.96
3494.99
3526.78
3559.01
3591.32
3623.34
3654.66
3684.86
3713.51
3740.16
3764.41
3785.83
3804.07
3818.79
3829.72
3836.63
3839.39
3837.87
3832.15
3822.32
3808.48
3790.88
3769.82
3745.64
3718.73
3689.52
3658.44
3625.96
3592.52
3558.57
3524.53
3490.76
3457.61
3425.38
3394.31
3364.61
3336.43
3309.89
3285.05
3261.96
3240.63
3221.04
3203.16
3186.95
3172.37
3159.36
3147.88
3137.88
3129.34
3122.21
3116.49
3112.13
3109.14
3107.53
3107.26
3108.35
3110.8
3114.64
3119.89
3126.56
3134.68
3144.29
3155.39
3168.02
3182.2
3197.96
3215.31
3234.27
3254.84
3277.01
3300.75
3326
3352.68
3380.69
3409.98
3440.14
3471.08
3502.55
3534.27
3565.94
3597.23
3627.76
3657.19
3685.12
3711.19
3735.01
3756.25
3774.56
3789.65
3801.27
3809.2
3813.3
3813.43
3809.6
3801.88
3790.29
3775
3756.23
3734.26
3709.41
3682.07
3652.63
3621.55
3589.26
3556.22
3522.87
3489.61
3456.83
3424.87
3394.02
3364.52
3336.56
3310.29
3285.81
3263.19
3242.47
3223.63
3206.67
3191.55
3178.23
3166.64
3156.73
3148.42
3141.62
3136.27
3132.31
3129.66
3128.27
3128.12
3129.29
3131.62
3135.12
3139.8
3145.68
3152.76
3161.08
3170.66
3181.56
3193.82
3207.48
3222.61
3239.24
3257.41
3277.17
3298.52
3321.48
3346.01
3372.05
3399.51
3428.23
3457.82
3488.47
3519.92
3551.8
3583.81
3615.56
3646.65
3676.72
3705.37
3732.16
3756.73
3778.71
3797.75
3813.56
3825.87
3834.49
3839.28
3840.1
3836.82
3829.64
3818.62
3803.96
3785.91
3764.78
3740.88
3714.57
3686.26
3656.34
3625.24
3593.35
3561.05
3528.72
3496.69
3465.34
3437.03
3407.93
3380.04
3353.59
3328.73
3305.56
3284.14
3264.51
3246.68
3230.64
3216.36
3203.82
3192.96
3183.73
3176.07
3169.94
3165.27
3162.01
3160.1
3159.53
3160.55
3162.96
3166.68
3171.7
3177.98
3185.56
3194.47
3547.68
3580.03
3611.68
3642.13
3671
3697.73
3721.94
3743.2
3761.19
3775.64
3786.31
3793.02
3795.62
3794.04
3788.22
3778.42
3764.71
3747.29
3726.42
3702.41
3675.64
3646.46
3615.27
3582.52
3548.6
3513.96
3478.97
3443.99
3409.43
3381.94
3349.55
3318.31
3288.52
3260.32
3233.84
3209.13
3186.25
3165.19
3145.96
3128.54
3112.89
3098.96
3086.7
3076.07
3067.02
3059.5
3053.47
3048.89
3045.74
3044.04
3043.77
3044.93
3047.51
3051.55
3057.1
3064.18
3072.83
3083.11
3095.07
3108.73
3124.13
3141.3
3160.25
3180.97
3203.41
3227.54
3253.29
3280.54
3309.19
3339.08
3370.08
3402.2
3434.71
3467.45
3500.16
3532.56
3564.33
3595.12
3624.6
3652.41
3678.2
3701.62
3722.33
3740.02
3754.39
3765.19
3772.21
3775.33
3774.38
3769.43
3760.52
3747.69
3731.14
3711.07
3687.74
3661.48
3632.6
3601.52
3568.63
3534.35
3499.16
3463.48
3427.76
3392.44
3357.91
3324.52
3292.58
3262.32
3233.94
3207.56
3183.25
3161.04
3140.91
3122.82
3106.71
3092.52
3080.15
3069.52
3060.57
3053.21
3047.37
3042.98
3040
3038.37
3038.03
3038.96
3041.11
3044.46
3049.01
3054.74
3061.67
3069.82
3079.21
3089.9
3101.92
3115.34
3130.21
3146.6
3164.54
3184.09
3205.28
3228.11
3252.57
3278.61
3306.13
3334.99
3365.56
3396.63
3428.47
3460.76
3493.15
3525.25
3556.66
3586.95
3615.7
3642.45
3666.78
3688.3
3706.61
3721.4
3732.38
3739.34
3742.11
3740.59
3734.85
3724.98
3711.08
3693.42
3672.27
3647.99
3620.98
3591.67
3560.5
3527.92
3494.4
3460.37
3426.25
3392.41
3359.21
3326.95
3295.85
3266.13
3237.94
3211.39
3186.56
3163.47
3142.15
3122.57
3104.71
3088.51
3073.94
3060.94
3049.47
3039.49
3030.95
3023.83
3018.11
3013.76
3010.78
3009.16
3008.89
3009.97
3012.43
3016.26
3021.5
3028.16
3036.28
3045.88
3056.97
3069.59
3083.77
3099.51
3116.86
3135.81
3156.37
3178.54
3202.29
3227.55
3254.24
3282.26
3311.59
3341.79
3372.76
3404.28
3436.07
3467.81
3499.16
3529.78
3559.28
3587.3
3613.45
3637.36
3658.67
3677.05
3692.21
3703.87
3711.84
3715.97
3716.11
3712.27
3704.52
3692.89
3677.54
3658.7
3636.65
3611.71
3584.27
3554.74
3523.55
3491.17
3458.05
3424.61
3391.29
3358.45
3326.44
3295.55
3266.02
3238.05
3211.77
3187.29
3164.67
3143.95
3125.13
3108.18
3093.08
3079.77
3068.2
3058.31
3050.01
3043.23
3037.89
3033.94
3031.31
3029.94
3029.78
3030.95
3033.29
3036.79
3041.47
3047.33
3054.41
3062.72
3072.29
3083.18
3095.43
3109.07
3124.19
3140.8
3158.97
3178.71
3200.06
3223.01
3247.54
3273.6
3301.08
3329.82
3359.43
3390.12
3421.62
3453.57
3485.64
3517.47
3548.64
3578.8
3607.54
3634.41
3659.07
3681.13
3700.24
3716.12
3728.48
3737.13
3741.94
3742.77
3739.48
3732.27
3721.2
3706.48
3688.36
3667.15
3643.16
3616.76
3588.36
3558.36
3527.18
3495.21
3462.84
3430.45
3398.37
3366.99
3338.58
3309.46
3281.56
3255.1
3230.23
3207.06
3185.64
3166.02
3148.2
3132.17
3117.9
3105.38
3094.53
3085.31
3077.67
3071.55
3066.89
3063.64
3061.74
3061.16
3062.21
3064.62
3068.35
3073.36
3079.65
3087.22
3096.12
3449.56
3482.01
3513.76
3544.32
3573.3
3600.13
3624.44
3645.8
3663.88
3678.4
3689.12
3695.86
3698.48
3696.9
3691.07
3681.22
3667.44
3649.94
3628.97
3604.87
3577.99
3548.7
3517.4
3484.53
3450.52
3415.78
3380.71
3345.64
3311
3283.46
3251
3219.73
3189.92
3161.71
3135.23
3110.52
3087.65
3066.6
3047.39
3029.99
3014.35
3000.44
2988.2
2977.59
2968.55
2961.04
2955.02
2950.45
2947.31
2945.6
2945.33
2946.48
2949.06
2953.1
2958.64
2965.7
2974.33
2984.6
2996.54
3010.19
3025.58
3042.74
3061.68
3082.39
3104.84
3128.98
3154.74
3182.01
3210.68
3240.6
3271.64
3303.83
3336.4
3369.2
3401.99
3434.46
3466.31
3497.2
3526.78
3554.68
3580.57
3604.08
3624.88
3642.66
3657.1
3667.95
3675.02
3678.16
3677.22
3672.26
3663.3
3650.43
3633.81
3613.65
3590.24
3563.87
3534.89
3503.69
3470.68
3436.3
3400.99
3365.21
3329.4
3294
3259.39
3225.95
3193.96
3163.67
3135.28
3108.9
3084.59
3062.39
3042.28
3024.22
3008.14
2993.96
2981.62
2971.02
2962.08
2954.74
2948.92
2944.55
2941.58
2939.96
2939.63
2940.56
2942.72
2946.07
2950.62
2956.35
2963.27
2971.41
2980.79
2991.46
3003.47
3016.87
3031.72
3048.09
3066.01
3085.55
3106.73
3129.55
3154.02
3180.06
3207.61
3236.51
3267.08
3298.21
3330.12
3362.49
3394.96
3427.16
3458.67
3489.08
3517.94
3544.81
3569.26
3590.88
3609.29
3624.16
3635.21
3642.21
3645
3643.49
3637.72
3627.79
3613.83
3596.07
3574.83
3550.44
3523.31
3493.88
3462.59
3429.89
3396.26
3362.14
3327.93
3294.03
3260.76
3228.45
3197.32
3167.57
3139.36
3112.81
3087.98
3064.9
3043.59
3024.03
3006.18
2990
2975.45
2962.47
2951.01
2941.03
2932.51
2925.4
2919.68
2915.34
2912.36
2910.74
2910.47
2911.55
2914
2917.83
2923.06
2929.71
2937.82
2947.41
2958.49
2971.1
2985.27
3001
3018.33
3037.28
3057.84
3080
3103.75
3129.02
3155.73
3183.77
3213.15
3243.38
3274.41
3305.99
3337.84
3369.66
3401.1
3431.81
3461.41
3489.53
3515.78
3539.79
3561.2
3579.67
3594.89
3606.62
3614.64
3618.78
3618.94
3615.09
3607.3
3595.62
3580.21
3561.28
3539.13
3514.08
3486.53
3456.88
3425.58
3393.09
3359.86
3326.33
3292.92
3260.01
3227.94
3197.01
3167.45
3139.45
3113.16
3088.68
3066.07
3045.35
3026.54
3009.61
2994.53
2981.24
2969.69
2959.82
2951.54
2944.78
2939.47
2935.53
2932.91
2931.55
2931.4
2932.57
2934.91
2938.41
2943.08
2948.95
2956.01
2964.31
2973.87
2984.74
2996.98
3010.61
3025.7
3042.3
3060.45
3080.18
3101.52
3124.47
3149.01
3175.08
3202.57
3231.35
3260.99
3291.72
3323.29
3355.31
3387.46
3419.38
3450.65
3480.91
3509.75
3536.74
3561.5
3583.65
3602.86
3618.81
3631.23
3639.93
3644.76
3645.59
3642.3
3635.04
3623.91
3609.13
3590.92
3569.61
3545.52
3519.02
3490.51
3460.41
3429.12
3397.06
3364.6
3332.14
3300.01
3268.58
3240.06
3210.93
3183
3156.53
3131.65
3108.48
3087.06
3067.45
3049.64
3033.62
3019.38
3006.86
2996.03
2986.83
2979.21
2973.1
2968.46
2965.22
2963.33
2962.75
2963.81
2966.23
2969.96
2974.98
2981.26
2988.83
2997.72
3351.43
3384
3415.87
3446.56
3475.66
3502.62
3527.05
3548.52
3566.69
3581.3
3592.09
3598.87
3601.5
3599.93
3594.07
3584.16
3570.31
3552.71
3531.64
3507.41
3480.41
3450.99
3419.56
3386.57
3352.43
3317.59
3282.41
3247.26
3212.52
3184.92
3152.38
3121.07
3091.23
3063.02
3036.53
3011.83
2988.97
2967.94
2948.74
2931.36
2915.74
2901.85
2889.63
2879.04
2870.02
2862.52
2856.51
2851.95
2848.82
2847.11
2846.84
2847.99
2850.56
2854.58
2860.11
2867.16
2875.77
2886.02
2897.94
2911.57
2926.95
2944.1
2963.03
2983.74
3006.19
3030.34
3056.11
3083.4
3112.11
3142.06
3173.15
3205.42
3238.06
3270.93
3303.8
3336.36
3368.31
3399.3
3428.99
3457.01
3483.01
3506.64
3527.54
3545.41
3559.94
3570.87
3577.99
3581.15
3580.22
3575.24
3566.24
3553.31
3536.6
3516.35
3492.83
3466.34
3437.23
3405.9
3372.77
3338.25
3302.82
3266.91
3231
3195.49
3160.8
3127.29
3095.25
3064.93
3036.52
3010.14
2985.84
2963.66
2943.57
2925.53
2909.48
2895.34
2883.02
2872.45
2863.54
2856.21
2850.41
2846.06
2843.11
2841.5
2841.18
2842.12
2844.28
2847.64
2852.18
2857.91
2864.83
2872.95
2882.32
2892.97
2904.96
2918.34
2933.17
2949.51
2967.42
2986.94
3008.1
3030.92
3055.39
3081.44
3109.02
3137.97
3168.52
3199.74
3231.73
3264.18
3296.76
3329.07
3360.71
3391.25
3420.24
3447.25
3471.83
3493.57
3512.1
3527.07
3538.19
3545.24
3548.05
3546.54
3540.75
3530.76
3516.72
3498.86
3477.49
3452.97
3425.71
3396.14
3364.7
3331.88
3298.12
3263.88
3229.58
3195.59
3162.25
3129.88
3098.71
3068.93
3040.71
3014.15
2989.32
2966.25
2944.96
2925.41
2907.58
2891.42
2876.89
2863.93
2852.48
2842.52
2834.01
2826.91
2821.2
2816.86
2813.88
2812.26
2811.99
2813.07
2815.51
2819.33
2824.56
2831.2
2839.3
2848.88
2859.95
2872.55
2886.7
2902.42
2919.74
2938.67
2959.23
2981.39
3005.14
3030.43
3057.16
3085.21
3114.65
3144.92
3176.01
3207.66
3239.6
3271.51
3303.05
3333.86
3363.58
3391.82
3418.19
3442.32
3463.83
3482.4
3497.72
3509.52
3517.58
3521.76
3521.93
3518.07
3510.24
3498.49
3483
3463.97
3441.71
3416.53
3388.85
3359.06
3327.62
3295
3261.65
3228.01
3194.5
3161.51
3129.38
3098.39
3068.79
3040.77
3014.47
2989.98
2967.38
2946.67
2927.88
2910.97
2895.9
2882.64
2871.12
2861.26
2853.01
2846.27
2840.98
2837.06
2834.46
2833.12
2832.99
2834.15
2836.49
2839.99
2844.66
2850.51
2857.57
2865.86
2875.4
2886.25
2898.47
2912.08
2927.15
2943.74
2961.86
2981.58
3002.91
3025.86
3050.4
3076.48
3104
3132.81
3162.48
3193.28
3224.92
3257.02
3289.27
3321.29
3352.68
3383.06
3412.03
3439.13
3464.01
3486.28
3505.59
3521.63
3534.12
3542.87
3547.73
3548.57
3545.26
3537.95
3526.77
3511.89
3493.58
3472.17
3447.96
3421.33
3392.7
3362.47
3331.07
3298.9
3266.34
3233.79
3201.59
3170.13
3141.48
3112.32
3084.37
3057.88
3032.99
3009.82
2988.4
2968.8
2951
2935
2920.77
2908.28
2897.47
2888.29
2880.68
2874.6
2869.97
2866.75
2864.87
2864.29
2865.37
2867.79
2871.53
2876.55
2882.83
2890.39
2899.28
3253.3
3286
3318.01
3348.84
3378.09
3405.2
3429.76
3451.36
3469.64
3484.34
3495.2
3502.03
3504.69
3503.12
3497.23
3487.25
3473.31
3455.61
3434.42
3410.06
3382.9
3353.33
3321.76
3288.62
3254.35
3219.38
3184.1
3148.84
3114
3086.29
3053.67
3022.32
2992.46
2964.24
2937.75
2913.06
2890.2
2869.19
2850.01
2832.65
2817.05
2803.19
2790.99
2780.42
2771.42
2763.94
2757.95
2753.4
2750.28
2748.56
2748.29
2749.43
2752
2756.01
2761.52
2768.55
2777.14
2787.38
2799.28
2812.89
2828.25
2845.38
2864.31
2885.02
2907.47
2931.62
2957.41
2984.73
3013.46
3043.45
3074.61
3106.97
3139.67
3172.63
3205.59
3238.26
3270.32
3301.44
3331.25
3359.4
3385.53
3409.28
3430.31
3448.3
3462.93
3473.93
3481.1
3484.3
3483.38
3478.37
3469.32
3456.32
3439.53
3419.17
3395.52
3368.89
3339.64
3308.16
3274.87
3240.21
3204.63
3168.59
3132.54
3096.93
3062.14
3028.55
2996.46
2966.1
2937.67
2911.28
2886.99
2864.83
2844.77
2826.76
2810.75
2796.63
2784.35
2773.81
2764.92
2757.63
2751.85
2747.52
2744.58
2742.99
2742.69
2743.63
2745.8
2749.16
2753.7
2759.42
2766.33
2774.44
2783.79
2794.42
2806.39
2819.74
2834.55
2850.87
2868.75
2888.25
2909.4
2932.21
2956.68
2982.75
3010.35
3039.36
3069.91
3101.21
3133.29
3165.84
3198.54
3230.98
3262.76
3293.45
3322.6
3349.76
3374.49
3396.38
3415.04
3430.12
3441.33
3448.43
3451.28
3449.77
3443.94
3433.88
3419.75
3401.77
3380.27
3355.6
3328.18
3298.45
3266.85
3233.88
3199.98
3165.61
3131.19
3097.1
3063.68
3031.25
3000.03
2970.22
2941.98
2915.41
2890.58
2867.52
2846.24
2826.72
2808.91
2792.78
2778.27
2765.32
2753.9
2743.95
2735.45
2728.36
2722.66
2718.33
2715.36
2713.74
2713.46
2714.54
2716.97
2720.79
2726
2732.64
2740.72
2750.28
2761.34
2773.93
2788.06
2803.77
2821.07
2839.99
2860.54
2882.71
2906.46
2931.76
2958.51
2986.6
3016.08
3046.4
3077.56
3109.3
3141.33
3173.34
3205
3235.94
3265.79
3294.16
3320.67
3344.93
3366.57
3385.26
3400.67
3412.55
3420.68
3424.89
3425.07
3421.2
3413.32
3401.51
3385.92
3366.78
3344.39
3319.07
3291.23
3261.29
3229.69
3196.92
3163.43
3129.66
3096.04
3062.95
3030.74
2999.7
2970.06
2942.01
2915.69
2891.2
2868.6
2847.91
2829.13
2812.24
2797.2
2783.96
2772.47
2762.65
2754.42
2747.71
2742.44
2738.54
2735.95
2734.63
2734.54
2735.68
2738.02
2741.52
2746.18
2752.03
2759.07
2767.35
2776.87
2787.71
2799.9
2813.49
2828.54
2845.1
2863.21
2882.91
2904.23
2927.17
2951.71
2977.81
3005.37
3034.2
3063.91
3094.78
3126.5
3158.7
3191.06
3223.21
3254.72
3285.24
3314.35
3341.6
3366.62
3389.02
3408.44
3424.58
3437.16
3445.96
3450.85
3451.71
3448.38
3441.01
3429.76
3414.79
3396.36
3374.82
3350.48
3323.7
3294.93
3264.56
3233.03
3200.73
3168.06
3135.41
3103.13
3071.62
3042.82
3013.63
2985.65
2959.15
2934.25
2911.07
2889.66
2870.07
2852.29
2836.31
2822.1
2809.63
2798.84
2789.69
2782.1
2776.03
2771.43
2768.22
2766.36
2765.79
2766.88
2769.31
2773.06
2778.08
2784.35
2791.91
2800.78
3155.16
3188.01
3220.18
3251.18
3280.59
3307.86
3332.57
3354.31
3372.72
3387.53
3398.48
3405.36
3408.04
3406.47
3400.55
3390.5
3376.46
3358.64
3337.31
3312.79
3285.47
3255.73
3223.99
3190.69
3156.27
3121.16
3085.75
3050.38
3015.43
2987.59
2954.88
2923.49
2893.61
2865.38
2838.88
2814.19
2791.35
2770.36
2751.21
2733.87
2718.3
2704.46
2692.29
2681.74
2672.76
2665.3
2659.32
2654.79
2651.67
2649.97
2649.69
2650.83
2653.38
2657.38
2662.87
2669.88
2678.45
2688.66
2700.54
2714.13
2729.47
2746.58
2765.5
2786.21
2808.66
2832.83
2858.64
2885.98
2914.75
2944.79
2976
3008.47
3041.26
3074.31
3107.38
3140.17
3172.35
3203.6
3233.55
3261.84
3288.13
3312.03
3333.19
3351.3
3366.04
3377.13
3384.38
3387.6
3386.69
3381.67
3372.56
3359.48
3342.58
3322.1
3298.31
3271.53
3242.12
3210.47
3177.01
3142.17
3106.43
3070.23
3034.04
2998.3
2963.41
2929.73
2897.57
2867.18
2838.72
2812.33
2788.05
2765.91
2745.88
2727.91
2711.93
2697.86
2685.61
2675.1
2666.25
2658.98
2653.23
2648.92
2646.01
2644.43
2644.14
2645.09
2647.26
2650.63
2655.17
2660.89
2667.79
2675.88
2685.21
2695.82
2707.76
2721.09
2735.87
2752.16
2770.01
2789.49
2810.62
2833.43
2857.9
2883.98
2911.61
2940.67
2971.24
3002.63
3034.8
3067.48
3100.3
3132.89
3164.83
3195.69
3225.01
3252.35
3277.25
3299.31
3318.11
3333.31
3344.62
3351.79
3354.67
3353.16
3347.29
3337.16
3322.92
3304.81
3283.16
3258.32
3230.72
3200.8
3169.03
3135.88
3101.83
3067.31
3032.76
2998.56
2965.05
2932.55
2901.27
2871.42
2843.16
2816.58
2791.76
2768.72
2747.45
2727.95
2710.17
2694.06
2679.58
2666.66
2655.25
2645.33
2636.84
2629.76
2624.07
2619.74
2616.78
2615.16
2614.88
2615.95
2618.38
2622.18
2627.38
2634.01
2642.08
2651.63
2662.67
2675.24
2689.35
2705.05
2722.34
2741.24
2761.78
2783.94
2807.71
2833.02
2859.79
2887.93
2917.44
2947.83
2979.07
3010.9
3043.04
3075.17
3106.96
3138.04
3168.04
3196.56
3223.22
3247.63
3269.42
3288.23
3303.76
3315.73
3323.92
3328.17
3328.37
3324.48
3316.55
3304.67
3288.97
3269.71
3247.16
3221.68
3193.67
3163.55
3131.78
3098.84
3065.18
3031.27
2997.53
2964.33
2932.04
2900.93
2871.24
2843.16
2816.82
2792.33
2769.74
2749.06
2730.3
2713.44
2698.43
2685.22
2673.75
2663.96
2655.77
2649.09
2643.85
2639.97
2637.4
2636.1
2636.02
2637.17
2639.5
2643
2647.66
2653.5
2660.53
2668.78
2678.29
2689.1
2701.27
2714.83
2729.86
2746.4
2764.48
2784.17
2805.47
2828.4
2852.96
2879.07
2906.66
2935.54
2965.28
2996.22
3028.05
3060.36
3092.84
3125.12
3156.78
3187.46
3216.72
3244.13
3269.31
3291.86
3311.41
3327.67
3340.33
3349.21
3354.13
3355
3351.65
3344.22
3332.89
3317.81
3299.25
3277.57
3253.07
3226.13
3197.2
3166.67
3134.99
3102.55
3069.75
3036.99
3004.62
2973.05
2944.1
2914.88
2886.87
2860.34
2835.43
2812.25
2790.84
2771.26
2753.49
2737.54
2723.36
2710.91
2700.15
2691.02
2683.46
2677.41
2672.83
2669.64
2667.79
2667.25
2668.34
2670.78
2674.53
2679.55
2685.82
2693.37
2702.23
3057.02
3090.03
3122.38
3153.56
3183.16
3210.6
3235.48
3257.39
3275.94
3290.86
3301.9
3308.85
3311.55
3309.98
3304.02
3293.89
3279.75
3261.79
3240.31
3215.62
3188.12
3158.19
3126.26
3092.78
3058.18
3022.92
2987.37
2951.88
2916.82
2888.8
2856.01
2824.58
2794.67
2766.42
2739.92
2715.25
2692.42
2671.45
2652.32
2635.01
2619.47
2605.66
2593.52
2583
2574.04
2566.6
2560.64
2556.12
2553.02
2551.33
2551.03
2552.16
2554.71
2558.69
2564.16
2571.15
2579.69
2589.88
2601.73
2615.29
2630.61
2647.71
2666.62
2687.32
2709.77
2733.95
2759.78
2787.16
2815.97
2846.05
2877.34
2909.92
2942.8
2975.96
3009.14
3042.06
3074.39
3105.79
3135.9
3164.35
3190.8
3214.86
3236.18
3254.43
3269.3
3280.49
3287.8
3291.07
3290.17
3285.12
3275.95
3262.78
3245.77
3225.15
3201.2
3174.25
3144.65
3112.82
3079.17
3044.14
3008.21
2971.85
2935.5
2899.61
2864.6
2830.83
2798.6
2768.15
2739.68
2713.28
2689.02
2666.9
2646.91
2628.97
2613.04
2599
2586.8
2576.33
2567.51
2560.27
2554.55
2550.27
2547.38
2545.82
2545.54
2546.51
2548.69
2552.05