/*--------------------------------*- C++ -*----------------------------------*\
| =========                 |                                                 |
| \\      /  F ield         | OpenFOAM: The Open Source CFD Toolbox           |
|  \\    /   O peration     | Version:  3.0.1                                 |
|   \\  /    A nd           | Web:      www.OpenFOAM.org                      |
|    \\/     M anipulation  |                                                 |
\*---------------------------------------------------------------------------*/
FoamFile
{
    version     2.0;
    format      ascii;
    class       surfaceScalarField;
    location    "69.2";
    object      alphaPhi;
}
// * * * * * * * * * * * * * * * * * * * * * * * * * * * * * * * * * * * * * //

dimensions      [0 3 -1 0 0 0 0];

internalField   nonuniform List<scalar> 
42423
(
-4.3649e-05
-1.37207e-05
-2.86906e-05
-1.49585e-05
-1.26371e-05
-1.60537e-05
4.18799e-06
-1.68252e-05
2.18999e-05
-1.7712e-05
4.00425e-05
-1.81427e-05
5.87795e-05
-1.87371e-05
7.77457e-05
-1.89663e-05
9.66154e-05
-1.88698e-05
0.000115351
-1.8736e-05
0.000133684
-1.83327e-05
0.000151274
-1.75905e-05
0.000167973
-1.66983e-05
0.000183462
-1.54892e-05
0.000197467
-1.40053e-05
0.000209786
-1.23196e-05
0.000220138
-1.03514e-05
0.000228371
-8.23296e-06
0.000234353
-5.98219e-06
0.00023794
-3.58696e-06
0.000239119
-1.17933e-06
0.000237935
1.18428e-06
0.000234099
3.8353e-06
0.000227995
6.1038e-06
0.000219662
8.33335e-06
0.000209347
1.03146e-05
0.00019718
1.21675e-05
0.000183359
1.38207e-05
0.000168202
1.51567e-05
0.000151849
1.63534e-05
0.00013453
1.73185e-05
0.000116605
1.79249e-05
9.82869e-05
1.83185e-05
7.98124e-05
1.84745e-05
6.13631e-05
1.84493e-05
4.31321e-05
1.82309e-05
2.52798e-05
1.78523e-05
7.89942e-06
1.73803e-05
-8.89323e-06
1.67926e-05
-2.49157e-05
1.60225e-05
-4.01227e-05
1.5207e-05
-5.4472e-05
1.43492e-05
-6.79373e-05
1.34653e-05
-8.04704e-05
1.25331e-05
-9.20857e-05
1.16153e-05
-0.000102793
1.07069e-05
-0.000112576
9.78374e-06
-0.000121465
8.88886e-06
-0.000129495
8.02938e-06
-0.000136652
7.15744e-06
-0.000142971
6.31858e-06
-0.000148487
5.51683e-06
-0.000153202
4.71443e-06
-0.000157171
3.96891e-06
-0.000160373
3.20264e-06
-0.000162827
2.45316e-06
-0.000164582
1.75546e-06
-0.000165638
1.05568e-06
-0.000165994
3.56396e-07
-0.000165653
-3.40967e-07
-0.000164505
-1.1482e-06
-0.000162726
-1.7791e-06
-0.000160254
-2.4724e-06
-0.00015707
-3.18361e-06
-0.000153056
-4.01363e-06
-0.000148436
-4.62042e-06
-0.000142922
-5.51425e-06
-0.000136685
-6.23712e-06
-0.00012953
-7.15451e-06
-0.000121496
-8.03463e-06
-0.000112649
-8.84643e-06
-0.000102812
-9.83747e-06
-9.21491e-05
-1.06627e-05
-8.06569e-05
-1.14923e-05
-6.82158e-05
-1.24412e-05
-5.49823e-05
-1.32336e-05
-4.09019e-05
-1.40804e-05
-2.60103e-05
-1.48917e-05
-1.04668e-05
-1.55436e-05
5.72527e-06
-1.61921e-05
2.24271e-05
-1.67019e-05
3.94966e-05
-1.70696e-05
5.68445e-05
-1.7348e-05
7.43779e-05
-1.75334e-05
9.19315e-05
-1.75537e-05
0.000109369
-1.74372e-05
0.000126476
-1.71078e-05
0.000143162
-1.66856e-05
0.000159192
-1.60302e-05
0.000174388
-1.51957e-05
0.000188563
-1.41746e-05
0.000201473
-1.291e-05
0.000212924
-1.14509e-05
0.000222659
-9.73467e-06
0.000230469
-7.80982e-06
0.000236183
-5.71301e-06
0.000239678
-3.49483e-06
0.000240892
-1.21321e-06
0.000239782
1.10991e-06
0.000236339
3.44374e-06
0.000230639
5.69974e-06
0.000222831
7.80828e-06
0.000213009
9.82219e-06
0.000201375
1.16343e-05
0.000188
1.33753e-05
0.000173173
1.48272e-05
0.000157057
1.61161e-05
0.00013985
1.72065e-05
0.000121842
1.80087e-05
0.000103233
1.86085e-05
8.43115e-05
1.89216e-05
6.52969e-05
1.90146e-05
4.63506e-05
1.89463e-05
2.77608e-05
1.85898e-05
9.6607e-06
1.81001e-05
-7.7659e-06
1.74266e-05
-2.44174e-05
1.66515e-05
-4.01914e-05
1.57739e-05
-5.50189e-05
1.48275e-05
-6.88376e-05
1.38187e-05
-8.16395e-05
1.28019e-05
-9.34673e-05
1.18278e-05
-0.000104213
1.07458e-05
-0.000114044
9.83058e-06
-0.000122817
8.77348e-06
-0.000130615
7.79769e-06
-0.000137454
6.83934e-06
-0.000143368
5.91406e-06
-0.000148336
4.96813e-06
-0.000152408
4.0715e-06
-0.00015572
3.31206e-06
-0.000158137
2.41725e-06
-0.00015977
1.63273e-06
-0.000160632
8.62079e-07
-0.000160777
1.45012e-07
-0.000160218
-5.58965e-07
-0.000158951
-1.26723e-06
-0.000157085
-1.86668e-06
-0.000154557
-2.52794e-06
-0.000151492
-3.06512e-06
-0.000147798
-3.69367e-06
-0.000143546
-4.25165e-06
-0.000138671
-4.87536e-06
-0.00013331
-5.36066e-06
-0.000127322
-5.98844e-06
-0.000120683
-6.63904e-06
-0.000113396
-7.28748e-06
-0.000105434
-7.96186e-06
-9.67435e-05
-8.69032e-06
-8.73015e-05
-9.44204e-06
-7.70158e-05
-1.02858e-05
-6.6044e-05
-1.09719e-05
-5.42229e-05
-1.18212e-05
-4.15963e-05
-1.26267e-05
-2.81732e-05
-1.34232e-05
-1.39829e-05
-1.41905e-05
9.06457e-07
-1.48895e-05
1.64473e-05
-1.5541e-05
3.25648e-05
-1.61176e-05
4.90756e-05
-1.6511e-05
6.59198e-05
-1.68443e-05
8.29254e-05
-1.70057e-05
9.99263e-05
-1.70011e-05
0.00011673
-1.68038e-05
0.000133168
-1.64384e-05
0.00014901
-1.58416e-05
0.000163993
-1.49837e-05
0.0001779
-1.39072e-05
0.000190479
-1.25787e-05
0.000201391
-1.09122e-05
0.000210473
-9.08248e-06
0.000217489
-7.01552e-06
0.000222215
-4.72643e-06
0.00022456
-2.34503e-06
0.00022446
1.00159e-07
0.000221823
2.63605e-06
0.000216586
5.23685e-06
0.000208948
7.63797e-06
0.000199048
9.90032e-06
0.000187031
1.20166e-05
0.000173089
1.39421e-05
0.00015753
1.55588e-05
0.00014062
1.69098e-05
0.000122654
1.7966e-05
0.000103892
1.87622e-05
8.47258e-05
1.91663e-05
6.52855e-05
1.94403e-05
4.59344e-05
1.9351e-05
2.68402e-05
1.90942e-05
8.26002e-06
1.85801e-05
-9.66716e-06
1.79272e-05
-2.67666e-05
1.70995e-05
-4.29546e-05
1.61879e-05
-5.81715e-05
1.52168e-05
-7.23622e-05
1.41907e-05
-8.54871e-05
1.3125e-05
-9.75643e-05
1.20772e-05
-0.000108522
1.09579e-05
-0.000118367
9.84489e-06
-0.000127147
8.77994e-06
-0.000134897
7.74956e-06
-0.000141664
6.76703e-06
-0.000147698
6.03418e-06
-0.000152919
5.22074e-06
-0.000157425
4.5061e-06
-0.000161221
3.79631e-06
-0.00016441
3.18895e-06
-0.000166877
2.46669e-06
-0.000168612
1.73523e-06
-0.000169788
1.17597e-06
-0.000170254
4.65945e-07
-0.000170077
-1.77202e-07
-0.000169256
-8.20985e-07
-0.000167883
-1.37259e-06
-0.000165965
-1.91841e-06
-0.000163481
-2.48371e-06
-0.000160435
-3.04637e-06
-0.00015693
-3.5047e-06
-0.000152691
-4.23856e-06
-0.000147686
-5.00505e-06
-0.000142033
-5.65303e-06
-0.00013551
-6.52379e-06
-0.000128144
-7.3654e-06
-0.000119941
-8.20303e-06
-0.000110811
-9.13015e-06
-0.000100957
-9.85452e-06
-9.01723e-05
-1.07843e-05
-7.85179e-05
-1.16545e-05
-6.59958e-05
-1.25222e-05
-5.26065e-05
-1.33894e-05
-3.83585e-05
-1.42481e-05
-2.33086e-05
-1.505e-05
-7.55555e-06
-1.57532e-05
8.86584e-06
-1.64215e-05
2.57563e-05
-1.68906e-05
4.29702e-05
-1.7214e-05
6.0319e-05
-1.7349e-05
7.75876e-05
-1.72688e-05
9.45625e-05
-1.6975e-05
0.000111032
-1.647e-05
0.000126759
-1.57271e-05
0.000141562
-1.48023e-05
0.000155186
-1.36251e-05
0.000167389
-1.22028e-05
0.00017791
-1.05206e-05
0.000186516
-8.60616e-06
0.000192914
-6.39855e-06
0.000196913
-3.9991e-06
0.000198361
-1.44843e-06
0.000197214
1.1473e-06
0.00019334
3.87341e-06
0.000186852
6.48804e-06
0.000177991
8.86012e-06
0.000166929
1.10622e-05
0.000153911
1.30176e-05
0.000139178
1.47324e-05
0.000123074
1.61045e-05
0.000105862
1.72113e-05
8.78033e-05
1.80585e-05
6.91706e-05
1.86325e-05
5.03221e-05
1.88484e-05
3.14063e-05
1.89156e-05
1.25925e-05
1.88137e-05
-5.82339e-06
1.84159e-05
-2.37443e-05
1.79209e-05
-4.09992e-05
1.72549e-05
-5.74055e-05
1.64063e-05
-7.28726e-05
1.54671e-05
-8.72306e-05
1.4358e-05
-0.000100475
1.32449e-05
-0.000112494
1.2019e-05
-0.000123297
1.08029e-05
-0.00013298
9.68248e-06
-0.000141523
8.54356e-06
-0.000149063
7.54e-06
-0.000155586
6.52322e-06
-0.00016111
5.52313e-06
-0.000165674
4.56476e-06
-0.00016925
3.57561e-06
-0.00017181
2.56034e-06
-0.00017348
1.66932e-06
-0.000174193
7.13318e-07
-0.000174058
-1.35135e-07
-0.000173128
-9.3004e-07
-0.000171609
-1.51867e-06
-0.000169808
-1.80062e-06
-0.000167696
-2.11256e-06
-0.00016511
-2.58557e-06
-0.000162251
-2.8588e-06
-0.000158766
-3.48528e-06
-0.000154752
-4.01386e-06
-0.0001501
-4.65246e-06
-0.000144422
-5.67841e-06
-0.000137911
-6.51062e-06
-0.000130421
-7.48958e-06
-0.000121687
-8.73484e-06
-0.000111818
-9.86909e-06
-0.000100842
-1.09753e-05
-8.85071e-05
-1.23352e-05
-7.51261e-05
-1.33811e-05
-6.04257e-05
-1.47004e-05
-4.46595e-05
-1.57662e-05
-2.81004e-05
-1.65592e-05
-1.0465e-05
-1.76355e-05
7.89366e-06
-1.83587e-05
2.6713e-05
-1.88194e-05
4.60819e-05
-1.9369e-05
6.55743e-05
-1.94925e-05
8.51398e-05
-1.95655e-05
0.00010448
-1.93403e-05
0.000123191
-1.87112e-05
0.000141161
-1.797e-05
0.000158099
-1.69381e-05
0.000173641
-1.55423e-05
0.000187618
-1.39767e-05
0.00019975
-1.21321e-05
0.000209844
-1.00943e-05
0.000217713
-7.86897e-06
0.000223188
-5.4749e-06
0.00022616
-2.97188e-06
0.000226588
-4.28215e-07
0.000224568
2.01986e-06
0.00022019
4.37848e-06
0.000213424
6.76527e-06
0.000204508
8.91653e-06
0.000193513
1.09944e-05
0.000180488
1.30249e-05
0.000165904
1.45845e-05
0.000149948
1.59561e-05
0.000132757
1.71909e-05
0.000114696
1.80606e-05
9.60151e-05
1.86809e-05
7.69079e-05
1.91072e-05
5.77163e-05
1.91915e-05
3.85885e-05
1.91279e-05
1.97859e-05
1.88025e-05
1.53698e-06
1.82489e-05
-1.61849e-05
1.77219e-05
-3.31302e-05
1.69453e-05
-4.92689e-05
1.61387e-05
-6.44916e-05
1.52227e-05
-7.87308e-05
1.42392e-05
-9.19952e-05
1.32644e-05
-0.000104243
1.2248e-05
-0.000115524
1.12805e-05
-0.000125824
1.03001e-05
-0.00013516
9.33657e-06
-0.000143577
8.417e-06
-0.000151089
7.5118e-06
-0.000157722
6.63277e-06
-0.00016351
5.78815e-06
-0.000168469
4.95916e-06
-0.000172621
4.15147e-06
-0.000175975
3.35439e-06
-0.000178541
2.56642e-06
-0.000180342
1.80095e-06
1.04119e-06
-4.36864e-05
-2.74427e-05
-2.87238e-05
-2.99213e-05
-1.26686e-05
-3.21091e-05
4.15899e-06
-3.3653e-05
2.18762e-05
-3.54294e-05
4.00303e-05
-3.62971e-05
5.87823e-05
-3.74893e-05
7.77531e-05
-3.79373e-05
9.66283e-05
-3.77452e-05
0.000115381
-3.74889e-05
0.000133738
-3.66902e-05
0.000151337
-3.51892e-05
0.000168038
-3.33995e-05
0.00018354
-3.0991e-05
0.000197555
-2.80205e-05
0.000209887
-2.46517e-05
0.000220257
-2.07222e-05
0.000228509
-1.64845e-05
0.000234502
-1.19757e-05
0.000238096
-7.181e-06
0.000239266
-2.34968e-06
0.000238058
2.39204e-06
0.000234214
7.67912e-06
0.000228108
1.22099e-05
0.000219766
1.66752e-05
0.000209446
2.06352e-05
0.000197268
2.43453e-05
0.000183433
2.76554e-05
0.000168268
3.03216e-05
0.000151903
3.27184e-05
0.000134576
3.46455e-05
0.000116635
3.58652e-05
9.83052e-05
3.66486e-05
7.982e-05
3.69597e-05
6.13599e-05
3.69094e-05
4.31181e-05
3.64727e-05
2.52665e-05
3.57039e-05
7.88171e-06
3.47652e-05
-8.91826e-06
3.35926e-05
-2.49445e-05
3.20487e-05
-4.01561e-05
3.04186e-05
-5.45095e-05
2.87026e-05
-6.79774e-05
2.69332e-05
-8.0511e-05
2.50668e-05
-9.21271e-05
2.32313e-05
-0.000102836
2.14155e-05
-0.000112623
1.95712e-05
-0.000121511
1.7777e-05
-0.00012954
1.6058e-05
-0.000136702
1.43196e-05
-0.000143027
1.26434e-05
-0.000148546
1.10356e-05
-0.00015326
9.42865e-06
-0.000157229
7.93842e-06
-0.000160436
6.40964e-06
-0.000162892
4.90866e-06
-0.000164646
3.50992e-06
-0.000165699
2.10775e-06
-0.000166056
7.13517e-07
-0.000165711
-6.85766e-07
-0.000164569
-2.29011e-06
-0.000162793
-3.55488e-06
-0.000160317
-4.94839e-06
-0.000157143
-6.35779e-06
-0.00015312
-8.0369e-06
-0.000148499
-9.24131e-06
-0.000142979
-1.10339e-05
-0.00013675
-1.24666e-05
-0.000129597
-1.43076e-05
-0.000121561
-1.60703e-05
-0.00011271
-1.76983e-05
-0.000102879
-1.96685e-05
-9.22145e-05
-2.1327e-05
-8.07177e-05
-2.29891e-05
-6.82767e-05
-2.48824e-05
-5.50404e-05
-2.647e-05
-4.09505e-05
-2.81704e-05
-2.60578e-05
-2.97845e-05
-1.05073e-05
-3.10942e-05
5.6863e-06
-3.23859e-05
2.23977e-05
-3.34134e-05
3.94758e-05
-3.41479e-05
5.68293e-05
-3.47017e-05
7.43774e-05
-3.50816e-05
9.19376e-05
-3.51141e-05
0.000109388
-3.48877e-05
0.000126511
-3.4231e-05
0.000143213
-3.33873e-05
0.000159257
-3.20742e-05
0.000174471
-3.04091e-05
0.000188665
-2.83691e-05
0.000201598
-2.58428e-05
0.000213069
-2.29212e-05
0.000222817
-1.94826e-05
0.000230641
-1.56338e-05
0.00023636
-1.14316e-05
0.000239857
-6.99094e-06
0.000241077
-2.43329e-06
0.00023995
2.23714e-06
0.000236507
6.88737e-06
0.000230805
1.14013e-05
0.000222988
1.56252e-05
0.000213152
1.96593e-05
0.000201514
2.32716e-05
0.000188131
2.67591e-05
0.000173286
2.96723e-05
0.000157153
3.22493e-05
0.000139932
3.44277e-05
0.000121917
3.60228e-05
0.000103297
3.7229e-05
8.43574e-05
3.78613e-05
6.53322e-05
3.80398e-05
4.63678e-05
3.79107e-05
2.77616e-05
3.7196e-05
9.6454e-06
3.62163e-05
-7.79702e-06
3.4869e-05
-2.44601e-05
3.33146e-05
-4.02464e-05
3.15603e-05
-5.50878e-05
2.96689e-05
-6.89212e-05
2.76521e-05
-8.1729e-05
2.56097e-05
-9.35734e-05
2.36722e-05
-0.000104353
2.15251e-05
-0.000114165
1.96429e-05
-0.000122948
1.75568e-05
-0.000130763
1.56119e-05
-0.000137614
1.36908e-05
-0.000143532
1.18316e-05
-0.000148515
9.95166e-06
-0.000152615
8.17157e-06
-0.000155915
6.61206e-06
-0.00015834
4.8417e-06
-0.00015998
3.27246e-06
-0.000160849
1.73109e-06
-0.000160996
2.92672e-07
-0.000160443
-1.11286e-06
-0.000159199
-2.51116e-06
-0.000157326
-3.73901e-06
-0.00015482
-5.03456e-06
-0.000151735
-6.15046e-06
-0.000148043
-7.38503e-06
-0.000143726
-8.56864e-06
-0.000138905
-9.6965e-06
-0.000133564
-1.07023e-05
-0.000127564
-1.19876e-05
-0.000120854
-1.33493e-05
-0.00011363
-1.45116e-05
-0.000105653
-1.59393e-05
-9.69767e-05
-1.73665e-05
-8.75135e-05
-1.89054e-05
-7.72365e-05
-2.05628e-05
-6.62798e-05
-2.19287e-05
-5.44403e-05
-2.36607e-05
-4.17928e-05
-2.52743e-05
-2.83609e-05
-2.68552e-05
-1.41552e-05
-2.83964e-05
7.5469e-07
-2.97995e-05
1.63155e-05
-3.11019e-05
3.24365e-05
-3.22387e-05
4.89729e-05
-3.30476e-05
6.58327e-05
-3.37042e-05
8.28548e-05
-3.4028e-05
9.98933e-05
-3.40397e-05
0.000116709
-3.36197e-05
0.000133164
-3.28938e-05
0.000149019
-3.16964e-05
0.000164031
-2.99959e-05
0.000177956
-2.78325e-05
0.000190552
-2.51745e-05
0.000201488
-2.18494e-05
0.000210578
-1.8172e-05
0.000217602
-1.40398e-05
0.000222353
-9.47821e-06
0.000224718
-4.70933e-06
0.000224617
2.00086e-07
0.000221972
5.28088e-06
0.00021674
1.04695e-05
0.000209091
1.5286e-05
0.000199182
1.98099e-05
0.000187164
2.40339e-05
0.000173202
2.79046e-05
0.000157618
3.11427e-05
0.00014069
3.38378e-05
0.000122715
3.59401e-05
0.000103932
3.75462e-05
8.47393e-05
3.83585e-05
6.52775e-05
3.89021e-05
4.59062e-05
3.87223e-05
2.67918e-05
3.82086e-05
8.19397e-06
3.7178e-05
-9.74932e-06
3.58705e-05
-2.68683e-05
3.42184e-05
-4.30694e-05
3.2389e-05
-5.82985e-05
3.0446e-05
-7.25062e-05
2.83984e-05
-8.56466e-05
2.62654e-05
-9.7732e-05
2.41626e-05
-0.000108704
2.19303e-05
-0.000118555
1.96952e-05
-0.000127339
1.75642e-05
-0.000135092
1.55021e-05
-0.000141917
1.35929e-05
-0.000147916
1.20328e-05
-0.000153135
1.04402e-05
-0.000157661
9.03193e-06
-0.000161462
7.59749e-06
-0.00016464
6.36616e-06
-0.000167122
4.94936e-06
-0.000168853
3.46602e-06
-0.000170041
2.36412e-06
-0.0001705
9.24713e-07
-0.000170321
-3.5627e-07
-0.000169513
-1.62891e-06
-0.000168129
-2.75662e-06
-0.000166196
-3.85136e-06
-0.000163715
-4.96477e-06
-0.000160662
-6.09924e-06
-0.000157159
-7.00825e-06
-0.000152926
-8.47102e-06
-0.000147918
-1.00133e-05
-0.000142261
-1.13099e-05
-0.00013573
-1.30551e-05
-0.000128362
-1.4733e-05
-0.000120143
-1.64225e-05
-0.000111056
-1.82175e-05
-0.00010116
-1.97503e-05
-9.03549e-05
-2.15894e-05
-7.86981e-05
-2.33114e-05
-6.61624e-05
-2.5058e-05
-5.27464e-05
-2.68054e-05
-3.85106e-05
-2.8484e-05
-2.34425e-05
-3.01182e-05
-7.661e-06
-3.15348e-05
8.77418e-06
-3.28568e-05
2.56748e-05
-3.37914e-05
4.29144e-05
-3.44537e-05
6.02877e-05
-3.47224e-05
7.75683e-05
-3.45495e-05
9.45495e-05
-3.39563e-05
0.00011104
-3.29611e-05
0.000126808
-3.14947e-05
0.000141619
-2.96137e-05
0.000155258
-2.72645e-05
0.000167479
-2.4424e-05
0.000178023
-2.10646e-05
0.000186645
-1.72279e-05
0.000193052
-1.2806e-05
0.000197057
-8.00442e-06
0.000198512
-2.90369e-06
0.000197349
2.31004e-06
0.000193466
7.75631e-06
0.000186973
1.29809e-05
0.000178102
1.77308e-05
0.000167019
2.21448e-05
0.000153976
2.60602e-05
0.000139224
2.94844e-05
0.0001231
3.22283e-05
0.00010587
3.4441e-05
8.78026e-05
3.61253e-05
6.91564e-05
3.72784e-05
5.02923e-05
3.77124e-05
3.13614e-05
3.78465e-05
1.25503e-05
3.76247e-05
-5.87652e-06
3.68427e-05
-2.3803e-05
3.58474e-05
-4.10711e-05
3.4523e-05
-5.74814e-05
3.28166e-05
-7.2956e-05
3.09418e-05
-8.73217e-05
2.87238e-05
-0.000100564
2.64872e-05
-0.000112587
2.40415e-05
-0.000123391
2.16078e-05
-0.000133071
1.93618e-05
-0.00014162
1.70934e-05
-0.000149165
1.50851e-05
-0.000155688
1.30454e-05
-0.000161207
1.1042e-05
-0.000165776
9.13397e-06
-0.000169355
7.15462e-06
-0.000171915
5.12096e-06
-0.000173588
3.34237e-06
-0.000174305
1.42979e-06
-0.000174153
-2.87105e-07
-0.0001732
-1.88332e-06
-0.000171672
-3.04585e-06
-0.000169868
-3.60536e-06
-0.000167755
-4.22561e-06
-0.000165169
-5.17112e-06
-0.000162312
-5.71626e-06
-0.000158831
-6.96625e-06
-0.000154819
-8.02535e-06
-0.00015017
-9.30205e-06
-0.000144497
-1.13513e-05
-0.000137984
-1.30236e-05
-0.000130497
-1.49767e-05
-0.000121763
-1.74684e-05
-0.000111892
-1.97401e-05
-0.000100918
-2.19501e-05
-8.85764e-05
-2.46765e-05
-7.51931e-05
-2.67644e-05
-6.04888e-05
-2.94048e-05
-4.47174e-05
-3.15377e-05
-2.81511e-05
-3.31256e-05
-1.05171e-05
-3.52696e-05
7.85474e-06
-3.67307e-05
2.66788e-05
-3.76436e-05
4.60519e-05
-3.87422e-05
6.55509e-05
-3.89916e-05
8.51266e-05
-3.91414e-05
0.000104477
-3.86912e-05
0.000123198
-3.74321e-05
0.000141178
-3.59503e-05
0.000158127
-3.38872e-05
0.000173681
-3.10963e-05
0.00018767
-2.79655e-05
0.000199813
-2.42756e-05
0.000209917
-2.01984e-05
0.000217789
-1.57409e-05
0.00022326
-1.09457e-05
0.000226238
-5.95072e-06
0.000226676
-8.65852e-07
0.000224659
4.0365e-06
0.000220289
8.74896e-06
0.000213524
1.35297e-05
0.000204604
1.78364e-05
0.000193602
2.19958e-05
0.000180568
2.60591e-05
0.000165972
2.91806e-05
0.000150004
3.19238e-05
0.000132804
3.43913e-05
0.000114732
3.61324e-05
9.60393e-05
3.73736e-05
7.6921e-05
3.82254e-05
5.77196e-05
3.83928e-05
3.85889e-05
3.82585e-05
1.9772e-05
3.76194e-05
1.51712e-06
3.65038e-05
-1.62057e-05
3.54447e-05
-3.31535e-05
3.3893e-05
-4.9295e-05
3.22801e-05
-6.4521e-05
3.04487e-05
-7.87627e-05
2.84809e-05
-9.20293e-05
2.6531e-05
-0.000104277
2.44952e-05
-0.000115558
2.25616e-05
-0.00012586
2.06024e-05
-0.000135196
1.86723e-05
-0.000143612
1.6833e-05
-0.000151123
1.50229e-05
-0.000157754
1.32644e-05
-0.000163542
1.15757e-05
-0.000168501
9.91782e-06
-0.000172652
8.30309e-06
-0.000176007
6.70937e-06
-0.000178573
5.13256e-06
-0.000180375
3.60277e-06
2.07975e-06
-4.37592e-05
-4.11687e-05
-2.87883e-05
-4.48924e-05
-1.27304e-05
-4.81672e-05
4.10709e-06
-5.04907e-05
2.18392e-05
-5.31617e-05
4.00105e-05
-5.44685e-05
5.87787e-05
-5.62577e-05
7.77749e-05
-5.69337e-05
9.66833e-05
-5.66537e-05
0.000115462
-5.62677e-05
0.000133831
-5.50592e-05
0.000151446
-5.28052e-05
0.000168176
-5.01297e-05
0.000183712
-4.65263e-05
0.000197752
-4.2061e-05
0.000210102
-3.70017e-05
0.000220484
-3.11051e-05
0.000228742
-2.4742e-05
0.000234722
-1.7956e-05
0.000238317
-1.07761e-05
0.000239494
-3.52731e-06
0.000238254
3.63207e-06
0.000234389
1.15442e-05
0.000228278
1.83205e-05
0.000219922
2.50319e-05
0.000209592
3.09647e-05
0.000197399
3.6538e-05
0.000183539
4.15158e-05
0.00016836
4.55003e-05
0.000151976
4.91023e-05
0.00013464
5.19811e-05
0.00011667
5.38357e-05
9.83192e-05
5.49992e-05
7.98151e-05
5.54637e-05
6.13357e-05
5.53888e-05
4.30743e-05
5.47341e-05
2.52121e-05
5.3566e-05
7.83709e-06
5.21402e-05
-8.98018e-06
5.04098e-05
-2.50132e-05
4.80817e-05
-4.023e-05
4.56354e-05
-5.45854e-05
4.3058e-05
-6.80563e-05
4.04041e-05
-8.059e-05
3.76005e-05
-9.22063e-05
3.48476e-05
-0.000102913
3.21225e-05
-0.000112698
2.93564e-05
-0.000121587
2.66652e-05
-0.000129615
2.40869e-05
-0.000136776
2.14803e-05
-0.000143099
1.89664e-05
-0.000148617
1.6553e-05
-0.000153332
1.4144e-05
-0.000157299
1.19049e-05
-0.000160506
9.61745e-06
-0.000162962
7.36389e-06
-0.000164719
5.26696e-06
-0.00016577
3.15889e-06
-0.000166117
1.0608e-06
-0.000165762
-1.04103e-06
-0.000164625
-3.4273e-06
-0.000162852
-5.32794e-06
-0.000160371
-7.42863e-06
-0.000157203
-9.52642e-06
-0.000153177
-1.20628e-05
-0.00014856
-1.38587e-05
-0.00014304
-1.65541e-05
-0.000136818
-1.86886e-05
-0.000129667
-2.14588e-05
-0.000121631
-2.41057e-05
-0.000112772
-2.65571e-05
-0.000102947
-2.94946e-05
-9.22919e-05
-3.19817e-05
-8.07947e-05
-3.44864e-05
-6.83474e-05
-3.73297e-05
-5.51065e-05
-3.97111e-05
-4.10161e-05
-4.22609e-05
-2.6116e-05
-4.46848e-05
-1.05605e-05
-4.66498e-05
5.64029e-06
-4.85868e-05
2.23603e-05
-5.01336e-05
3.94465e-05
-5.12342e-05
5.68137e-05
-5.20689e-05
7.43726e-05
-5.26406e-05
9.19463e-05
-5.26879e-05
0.000109414
-5.23554e-05
0.000126547
-5.13642e-05
0.00014327
-5.01107e-05
0.000159329
-4.81322e-05
0.00017456
-4.56407e-05
0.000188777
-4.25854e-05
0.000201726
-3.87923e-05
0.000213208
-3.44028e-05
0.000222977
-2.92508e-05
0.000230814
-2.34706e-05
0.000236541
-1.7158e-05
0.000240033
-1.04829e-05
0.000241238
-3.63777e-06
0.000240084
3.3908e-06
0.000236649
1.03225e-05
0.000230913
1.71382e-05
0.000223075
2.34628e-05
0.000213224
2.95111e-05
0.00020153
3.49655e-05
0.000188158
4.01313e-05
0.000173266
4.4564e-05
0.000157105
4.84107e-05
0.000139888
5.16446e-05
0.000121845
5.40662e-05
0.000103202
5.5872e-05
8.42411e-05
5.68219e-05
6.51864e-05
5.70946e-05
4.621e-05
5.68871e-05
2.75867e-05
5.58193e-05
9.46602e-06
5.4337e-05
-7.99105e-06
5.23261e-05
-2.46706e-05
4.99941e-05
-4.04689e-05
4.73587e-05
-5.53164e-05
4.45164e-05
-6.91577e-05
4.14934e-05
-8.19504e-05
3.84024e-05
-9.37693e-05
3.54911e-05
-0.000104612
3.23673e-05
-0.0001144
2.94313e-05
-0.000123182
2.63387e-05
-0.000130999
2.34288e-05
-0.000137852
2.05443e-05
-0.000143764
1.77438e-05
-0.000148754
1.49414e-05
-0.00015288
1.22971e-05
-0.000156145
9.87767e-06
-0.000158577
7.27334e-06
-0.000160219
4.91415e-06
-0.000161093
2.60508e-06
-0.000161239
4.38616e-07
-0.000160677
-1.67518e-06
-0.000159448
-3.73939e-06
-0.000157572
-5.61535e-06
-0.000155073
-7.53375e-06
-0.000151974
-9.24952e-06
-0.000148286
-1.10729e-05
-0.000143973
-1.28819e-05
-0.00013921
-1.44593e-05
-0.000133813
-1.60997e-05
-0.000127813
-1.79875e-05
-0.000121105
-2.00573e-05
-0.000113884
-2.17325e-05
-0.000105917
-2.39064e-05
-9.72308e-05
-2.60529e-05
-8.77232e-05
-2.8413e-05
-7.75727e-05
-3.07134e-05
-6.65503e-05
-3.29512e-05
-5.47058e-05
-3.55053e-05
-4.20534e-05
-3.79268e-05
-2.86049e-05
-4.03039e-05
-1.43875e-05
-4.26139e-05
5.31575e-07
-4.47186e-05
1.61136e-05
-4.66841e-05
3.22349e-05
-4.83602e-05
4.87926e-05
-4.96055e-05
6.56665e-05
-5.05783e-05
8.27145e-05
-5.10762e-05
9.97702e-05
-5.10956e-05
0.000116603
-5.04526e-05
0.00013308
-4.93711e-05
0.000148955
-4.75713e-05
0.000163989
-4.50299e-05
0.000177928
-4.17721e-05
0.000190531
-3.77777e-05
0.00020153
-3.28482e-05
0.000210622
-2.72642e-05
0.000217663
-2.10809e-05
0.000222432
-1.42479e-05
0.000224805
-7.08202e-06
0.000224684
3.20636e-07
0.000222026
7.93891e-06
0.000216821
1.56741e-05
0.000209145
2.29614e-05
0.000199224
2.97311e-05
0.000187177
3.60804e-05
0.000173192
4.18896e-05
0.000157584
4.6751e-05
0.000140633
5.07884e-05
0.000122619
5.39545e-05
0.000103834
5.63305e-05
8.46166e-05
5.75762e-05
6.51231e-05
5.83956e-05
4.57268e-05
5.81186e-05
2.66033e-05
5.7332e-05
7.98412e-06
5.57972e-05
-9.96542e-06
5.382e-05
-2.70955e-05
5.13485e-05
-4.33036e-05
4.85971e-05
-5.85396e-05
4.5682e-05
-7.2762e-05
4.26207e-05
-8.59054e-05
3.94088e-05
-9.79576e-05
3.62148e-05
-0.000108968
3.29408e-05
-0.000118814
2.95412e-05
-0.000127588
2.6338e-05
-0.000135309
2.32235e-05
-0.000142189
2.04721e-05
-0.000148163
1.80077e-05
-0.000153332
1.56092e-05
-0.000157917
1.36161e-05
-0.000161724
1.14045e-05
-0.000164897
9.53913e-06
-0.000167395
7.44801e-06
-0.000169152
5.22296e-06
-0.000170305
3.51738e-06
-0.000170761
1.37984e-06
-0.000170554
-5.62774e-07
-0.000169771
-2.41193e-06
-0.000168382
-4.14563e-06
-0.000166411
-5.82228e-06
-0.000163967
-7.40914e-06
-0.000160955
-9.11148e-06
-0.000157408
-1.05543e-05
-0.000153175
-1.27048e-05
-0.000148245
-1.49434e-05
-0.000142517
-1.70375e-05
-0.000136002
-1.95703e-05
-0.000128625
-2.21099e-05
-0.000120338
-2.47094e-05
-0.00011135
-2.7206e-05
-0.000101417
-2.96833e-05
-9.06188e-05
-3.23872e-05
-7.89396e-05
-3.49907e-05
-6.63928e-05
-3.76049e-05
-5.29904e-05
-4.02078e-05
-3.87428e-05
-4.27317e-05
-2.36644e-05
-4.51967e-05
-7.85848e-06
-4.73408e-05
8.56825e-06
-4.92837e-05
2.54911e-05
-5.07143e-05
4.27755e-05
-5.17383e-05
6.01406e-05
-5.20877e-05
7.74536e-05
-5.18627e-05
9.44539e-05
-5.09567e-05
0.000110956
-4.94632e-05
0.000126754
-4.7293e-05
0.000141582
-4.44417e-05
0.000155244
-4.09272e-05
0.000167503
-3.66825e-05
0.000178058
-3.16202e-05
0.000186691
-2.58616e-05
0.000193138
-1.92532e-05
0.000197142
-1.20086e-05
0.00019863
-4.39192e-06
0.000197436
3.5038e-06
0.000193549
1.16435e-05
0.00018704
1.94897e-05
0.000178139
2.66309e-05
0.000167035
3.3249e-05
0.000153965
3.91297e-05
0.000139201
4.42481e-05
0.000123078
4.83507e-05
0.000105794
5.17252e-05
8.77224e-05
5.41965e-05
6.90887e-05
5.59119e-05
5.02068e-05
5.65941e-05
3.12554e-05
5.67978e-05
1.24506e-05
5.64293e-05
-5.98216e-06
5.52754e-05
-2.39096e-05
5.37749e-05
-4.11921e-05
5.18056e-05
-5.76121e-05
4.92366e-05
-7.30949e-05
4.64246e-05
-8.74686e-05
4.30975e-05
-0.000100707
3.97258e-05
-0.000112733
3.60674e-05
-0.000123541
3.24155e-05
-0.000133212
2.90336e-05
-0.000141763
2.56444e-05
-0.000149304
2.2626e-05
-0.000155839
1.95804e-05
-0.000161374
1.6577e-05
-0.000165958
1.37175e-05
-0.000169548
1.07448e-05
-0.000172112
7.68522e-06
-0.000173765
4.9949e-06
-0.000174433
2.09808e-06
-0.000174248
-4.72526e-07
-0.000173274
-2.85697e-06
-0.00017173
-4.58949e-06
-0.000169917
-5.41866e-06
-0.000167802
-6.34097e-06
-0.000165218
-7.75486e-06
-0.000162367
-8.56746e-06
-0.000158893
-1.04404e-05
-0.000154889
-1.20294e-05
-0.000150244
-1.39462e-05
-0.000144582
-1.70135e-05
-0.000138069
-1.9537e-05
-0.000130588
-2.24579e-05
-0.000121857
-2.61989e-05
-0.000111987
-2.96109e-05
-0.000101015
-3.2922e-05
-8.86653e-05
-3.70262e-05
-7.52804e-05
-4.01494e-05
-6.05719e-05
-4.41134e-05
-4.47938e-05
-4.73159e-05
-2.82182e-05
-4.97013e-05
-1.05847e-05
-5.29032e-05
7.80733e-06
-5.51228e-05
2.66448e-05
-5.64812e-05
4.60324e-05
-5.81299e-05
6.55455e-05
-5.85048e-05
8.51348e-05
-5.87308e-05
0.000104499
-5.80554e-05
0.00012323
-5.61635e-05
0.000141217
-5.39376e-05
0.00015817
-5.084e-05
0.000173724
-4.66505e-05
0.000187714
-4.19555e-05
0.00019986
-3.64218e-05
0.000209967
-3.03055e-05
0.000217847
-2.36209e-05
0.000223337
-1.64353e-05
0.00022635
-8.96415e-06
0.000226818
-1.3341e-06
0.000224817
6.03754e-06
0.000220464
1.31014e-05
0.000213698
2.02963e-05
0.000204768
2.67656e-05
0.000193751
3.30126e-05
0.000180701
3.911e-05
0.000166081
4.38002e-05
0.00015009
4.79141e-05
0.00013287
5.16116e-05
0.000114781
5.42213e-05
9.60679e-05
5.60868e-05
7.69308e-05
5.73625e-05
5.77129e-05
5.76107e-05
3.85816e-05
5.73898e-05
1.97426e-05
5.64584e-05
1.46834e-06
5.4778e-05
-1.62624e-05
5.31754e-05
-3.32152e-05
5.08458e-05
-4.9362e-05
4.84269e-05
-6.45909e-05
4.56775e-05
-7.88334e-05
4.27234e-05
-9.21007e-05
3.97983e-05
-0.000104348
3.67421e-05
-0.000115624
3.38377e-05
-0.000125922
3.09004e-05
-0.000135255
2.80059e-05
-0.000143669
2.52471e-05
-0.000151179
2.25325e-05
-0.000157809
1.98948e-05
-0.000163596
1.73625e-05
-0.000168555
1.48762e-05
-0.000172707
1.24552e-05
-0.000176063
1.00659e-05
-0.000178631
7.70025e-06
-0.00018044
5.41215e-06
3.11344e-06
-4.38686e-05
-5.49007e-05
-2.88857e-05
-5.98756e-05
-1.28237e-05
-6.42295e-05
4.02936e-06
-6.73439e-05
2.17843e-05
-7.09169e-05
3.99856e-05
-7.267e-05
5.87864e-05
-7.50587e-05
7.78176e-05
-7.5965e-05
9.67616e-05
-7.55979e-05
0.000115576
-7.50819e-05
0.000133983
-7.34671e-05
0.000151635
-7.04574e-05
0.000168398
-6.6892e-05
0.000183964
-6.2093e-05
0.00019803
-5.61268e-05
0.000210405
-4.93774e-05
0.000220819
-4.15185e-05
0.000229091
-3.30145e-05
0.000235077
-2.39422e-05
0.000238678
-1.43772e-05
0.000239851
-4.70061e-06
0.000238534
4.94932e-06
0.000234653
1.54251e-05
0.000228535
2.44387e-05
0.000220156
3.34107e-05
0.000209812
4.13084e-05
0.000197599
4.87513e-05
0.000183698
5.54168e-05
0.000168484
6.07135e-05
0.000152086
6.55011e-05
0.000134742
6.93242e-05
0.000116722
7.1856e-05
9.83405e-05
7.33807e-05
7.98084e-05
7.39957e-05
6.13009e-05
7.38963e-05
4.30113e-05
7.30237e-05
2.51205e-05
7.14568e-05
7.77059e-06
6.94901e-05
-9.07394e-06
6.72543e-05
-2.51166e-05
6.41243e-05
-4.03437e-05
6.08624e-05
-5.47011e-05
5.74154e-05
-6.8177e-05
5.38799e-05
-8.07093e-05
5.01328e-05
-9.23252e-05
4.64635e-05
-0.000103031
4.28283e-05
-0.000112815
3.91405e-05
-0.000121701
3.55512e-05
-0.00012973
3.21154e-05
-0.000136891
2.86421e-05
-0.000143215
2.52901e-05
-0.00014873
2.20677e-05
-0.000153445
1.88592e-05
-0.000157411
1.58712e-05
-0.000160622
1.28281e-05
-0.000163078
9.82035e-06
-0.000164837
7.02619e-06
-0.00016588
4.201e-06
-0.000166213
1.39372e-06
-0.000165841
-1.41267e-06
-0.000164709
-4.55918e-06
-0.000162942
-7.0948e-06
-0.000160454
-9.91678e-06
-0.000157272
-1.27082e-05
-0.000153268
-1.60669e-05
-0.000148651
-1.84757e-05
-0.000143132
-2.2073e-05
-0.000136915
-2.49061e-05
-0.000129772
-2.86023e-05
-0.000121738
-3.21389e-05
-0.000112861
-3.54349e-05
-0.000103079
-3.92767e-05
-9.24075e-05
-4.26529e-05
-8.0908e-05
-4.59861e-05
-6.84544e-05
-4.97834e-05
-5.52115e-05
-5.29541e-05
-4.11159e-05
-5.63566e-05
-2.62024e-05
-5.95983e-05
-1.06416e-05
-6.22108e-05
5.56626e-06
-6.47948e-05
2.23041e-05
-6.68716e-05
3.9403e-05
-6.83332e-05
5.67864e-05
-6.94525e-05
7.43638e-05
-7.02181e-05
9.19558e-05
-7.02799e-05
0.000109447
-6.98467e-05
0.000126601
-6.8518e-05
0.000143348
-6.6858e-05
0.000159427
-6.42113e-05
0.000174681
-6.0894e-05
0.00018892
-5.6824e-05
0.000201896
-5.17686e-05
0.000213397
-4.59033e-05
0.000223183
-3.90368e-05
0.00023103
-3.13166e-05
0.000236764
-2.28917e-05
0.000240247
-1.39663e-05
0.000241421
-4.81102e-06
0.00024023
4.58157e-06
0.000236736
1.38167e-05
0.000231007
2.28681e-05
0.000223136
3.13336e-05
0.000213269
3.93786e-05
0.000201505
4.67296e-05
0.000188099
5.35371e-05
0.000173187