/*--------------------------------*- C++ -*----------------------------------*\
| =========                 |                                                 |
| \\      /  F ield         | OpenFOAM: The Open Source CFD Toolbox           |
|  \\    /   O peration     | Version:  3.0.1                                 |
|   \\  /    A nd           | Web:      www.OpenFOAM.org                      |
|    \\/     M anipulation  |                                                 |
\*---------------------------------------------------------------------------*/
FoamFile
{
    version     2.0;
    format      ascii;
    class       surfaceScalarField;
    location    "56.4";
    object      alphaPhi;
}
// * * * * * * * * * * * * * * * * * * * * * * * * * * * * * * * * * * * * * //

dimensions      [0 3 -1 0 0 0 0];

internalField   nonuniform List<scalar> 
42423
(
0.00010125
1.78094e-05
8.32101e-05
1.80401e-05
6.47914e-05
1.84186e-05
4.61702e-05
1.86212e-05
2.77397e-05
1.84305e-05
9.51879e-06
1.82209e-05
-8.2777e-06
1.77965e-05
-2.54864e-05
1.72087e-05
-4.19349e-05
1.64485e-05
-5.74995e-05
1.55646e-05
-7.21667e-05
1.46673e-05
-8.58573e-05
1.36906e-05
-9.85409e-05
1.26835e-05
-0.000110233
1.16921e-05
-0.00012092
1.06865e-05
-0.000130635
9.71591e-06
-0.000139383
8.74727e-06
-0.000147176
7.79331e-06
-0.000154076
6.89952e-06
-0.000160106
6.03033e-06
-0.00016529
5.18449e-06
-0.000169669
4.37817e-06
-0.000173267
3.59887e-06
-0.000176085
2.81798e-06
-0.00017817
2.0849e-06
-0.000179522
1.35167e-06
-0.000180198
6.76005e-07
-0.000180139
-5.94624e-08
-0.00017932
-8.18819e-07
-0.000177791
-1.52873e-06
-0.000175569
-2.22172e-06
-0.000172545
-3.02459e-06
-0.000168776
-3.76872e-06
-0.000164176
-4.59957e-06
-0.000158798
-5.37838e-06
-0.000152618
-6.18046e-06
-0.000145504
-7.1137e-06
-0.000137535
-7.96935e-06
-0.000128749
-8.78528e-06
-0.00011886
-9.88928e-06
-0.000108052
-1.08079e-05
-9.61356e-05
-1.19167e-05
-8.3277e-05
-1.28586e-05
-6.95879e-05
-1.36892e-05
-5.47374e-05
-1.48506e-05
-3.90224e-05
-1.5715e-05
-2.24896e-05
-1.65329e-05
-5.23456e-06
-1.72551e-05
1.29111e-05
-1.81458e-05
3.13746e-05
-1.84635e-05
5.02809e-05
-1.89064e-05
6.93097e-05
-1.90289e-05
8.83945e-05
-1.90848e-05
0.000107309
-1.89145e-05
0.000125603
-1.82938e-05
0.000143171
-1.75681e-05
0.000159807
-1.66365e-05
0.000175033
-1.52263e-05
0.000188842
-1.38084e-05
0.000200864
-1.20227e-05
0.000210987
-1.01233e-05
0.000219037
-8.04944e-06
0.000224783
-5.74596e-06
0.000228188
-3.40525e-06
0.000229238
-1.04973e-06
0.000227836
1.40118e-06
0.000223966
3.86988e-06
0.000217711
6.2554e-06
0.000209223
8.48827e-06
0.00019864
1.05827e-05
0.000186186
1.24532e-05
0.00017198
1.42068e-05
0.00015627
1.57091e-05
0.000139357
1.69138e-05
0.000121493
1.78639e-05
0.000103012
1.84806e-05
8.41136e-05
1.88986e-05
6.49669e-05
1.91467e-05
4.58951e-05
1.90718e-05
2.7049e-05
1.88461e-05
8.66916e-06
1.83798e-05
-9.04495e-06
1.77141e-05
-2.60285e-05
1.69835e-05
-4.21791e-05
1.61505e-05
-5.74364e-05
1.52572e-05
-7.16769e-05
1.42403e-05
-8.49287e-05
1.32517e-05
-9.71472e-05
1.22183e-05
-0.000108373
1.12256e-05
-0.000118619
1.0246e-05
-0.000127917
9.29715e-06
-0.000136252
8.33564e-06
-0.000143668
7.41561e-06
-0.000150162
6.49359e-06
-0.000155746
5.58371e-06
-0.000160445
4.69865e-06
-0.00016426
3.81531e-06
-0.000167213
2.95271e-06
-0.000169403
2.18962e-06
-0.000170754
1.35122e-06
-0.000171388
6.34448e-07
-0.000171268
-1.20469e-07
-0.000170404
-8.64459e-07
-0.00016887
-1.53365e-06
-0.000166609
-2.26104e-06
-0.000163669
-2.93986e-06
-0.000160021
-3.64769e-06
-0.000155664
-4.35718e-06
-0.000150552
-5.11255e-06
-0.000144763
-5.78847e-06
-0.000138153
-6.61077e-06
-0.000130749
-7.40405e-06
-0.000122571
-8.17792e-06
-0.000113578
-8.99252e-06
-0.000103759
-9.81886e-06
-9.31065e-05
-1.0653e-05
-8.16276e-05
-1.1479e-05
-6.93536e-05
-1.2274e-05
-5.62991e-05
-1.30546e-05
-4.24793e-05
-1.38199e-05
-2.79317e-05
-1.45477e-05
-1.28426e-05
-1.50893e-05
2.90387e-06
-1.57466e-05
1.91802e-05
-1.62765e-05
3.58717e-05
-1.66916e-05
5.29359e-05
-1.70643e-05
7.01808e-05
-1.7245e-05
8.75056e-05
-1.73249e-05
0.000104733
-1.72276e-05
0.000121708
-1.69746e-05
0.000138166
-1.64581e-05
0.000153913
-1.57479e-05
0.000168687
-1.47738e-05
0.000182258
-1.35711e-05
0.000194356
-1.20979e-05
0.000204762
-1.04066e-05
0.000213233
-8.47132e-06
0.000219609
-6.37575e-06
0.000223728
-4.11881e-06
0.000225491
-1.76285e-06
0.00022489
5.99957e-07
0.000221758
3.13247e-06
0.000216172
5.58564e-06
0.000208246
7.92639e-06
0.000198103
1.01428e-05
0.000185866
1.22365e-05
0.00017177
1.4096e-05
0.000156061
1.57095e-05
0.000138991
1.70698e-05
0.000120876
1.81146e-05
0.000101905
1.89709e-05
8.24779e-05
1.94272e-05
6.28401e-05
1.96378e-05
4.3271e-05
1.9569e-05
2.40123e-05
1.92587e-05
5.31099e-06
1.87013e-05
-1.26517e-05
1.79627e-05
-2.97105e-05
1.70587e-05
-4.5747e-05
1.60365e-05
-6.07048e-05
1.49578e-05
-7.45304e-05
1.38256e-05
-8.71878e-05
1.26574e-05
-9.87121e-05
1.15243e-05
-0.000109062
1.03502e-05
-0.000118405
9.34307e-06
-0.000126625
8.21992e-06
-0.000133854
7.22857e-06
-0.000140178
6.3243e-06
-0.00014556
5.382e-06
-0.000150116
4.55553e-06
-0.000153847
3.73094e-06
-0.000156888
3.04131e-06
-0.000159238
2.34991e-06
-0.000160937
1.69952e-06
-0.00016194
1.00294e-06
-0.00016235
4.10111e-07
-0.000162213
-1.37053e-07
-0.000161446
-7.67481e-07
-0.000160112
-1.33423e-06
-0.000158241
-1.87082e-06
-0.000155883
-2.35741e-06
-0.000152989
-2.89411e-06
-0.000149532
-3.45714e-06
-0.000145476
-4.05654e-06
-0.000140958
-4.51763e-06
-0.000135764
-5.19376e-06
-0.000130078
-5.68664e-06
-0.000123699
-6.37825e-06
-0.000116635
-7.06452e-06
-0.000108941
-7.6935e-06
-0.000100495
-8.44622e-06
-9.12661e-05
-9.22914e-06
-8.12462e-05
-1.002e-05
-7.05246e-05
-1.07216e-05
-5.89098e-05
-1.16148e-05
-4.64836e-05
-1.24263e-05
-3.3182e-05
-1.33017e-05
-1.89279e-05
-1.42542e-05
-3.69077e-06
-1.52372e-05
1.21751e-05
-1.5866e-05
2.88406e-05
-1.66657e-05
4.60521e-05
-1.72116e-05
6.36048e-05
-1.75528e-05
8.12823e-05
-1.76777e-05
9.88398e-05
-1.75576e-05
0.000115977
-1.71377e-05
0.000132487
-1.65096e-05
0.000148077
-1.559e-05
0.000162517
-1.44401e-05
0.00017557
-1.30538e-05
0.000187057
-1.14866e-05
0.000196786
-9.72973e-06
0.00020452
-7.73405e-06
0.000210064
-5.54368e-06
0.000213281
-3.21709e-06
0.000214034
-7.52705e-07
0.000212309
1.72485e-06
0.00020798
4.32901e-06
0.000201161
6.81891e-06
0.000192006
9.15461e-06
0.000180718
1.12877e-05
0.000167474
1.32438e-05
0.000152638
1.48363e-05
0.000136487
1.61507e-05
0.000119303
1.71838e-05
0.000101402
1.79008e-05
8.30693e-05
1.8333e-05
6.45889e-05
1.84804e-05
4.61932e-05
1.83957e-05
2.81268e-05
1.80663e-05
1.04863e-05
1.76405e-05
-6.4815e-06
1.69678e-05
-2.27656e-05
1.62841e-05
-3.81296e-05
1.5364e-05
-5.2558e-05
1.44284e-05
-6.60083e-05
1.34502e-05
-7.84964e-05
1.24881e-05
-9.00307e-05
1.15343e-05
-0.000100539
1.05083e-05
-0.00011009
9.55138e-06
-0.00011867
8.57982e-06
-0.000126388
7.71771e-06
-0.000133137
6.74862e-06
-0.000139154
6.01781e-06
-0.000144373
5.2184e-06
-0.000148843
4.47071e-06
-0.000152683
3.83987e-06
-0.000155885
3.2013e-06
-0.000158526
2.64176e-06
-0.000160624
2.09798e-06
-0.000162162
1.53775e-06
-0.000163153
9.9149e-07
-0.000163694
5.40192e-07
-0.000163692
-1.51827e-09
-0.000163169
-5.23019e-07
-0.00016226
-9.08437e-07
-0.000160826
-1.43451e-06
-0.000158934
-1.89115e-06
-0.000156514
-2.42055e-06
-0.000153536
-2.97755e-06
-0.000150005
-3.53115e-06
-0.000145781
-4.22333e-06
-0.000140844
-4.93677e-06
-0.000135226
-5.61843e-06
-0.000128709
-6.51646e-06
-0.000121551
-7.15832e-06
-0.000113428
-8.12266e-06
-0.000104492
-8.93604e-06
-9.47164e-05
-9.77552e-06
-8.39016e-05
-1.08147e-05
-7.22408e-05
-1.16608e-05
-5.96321e-05
-1.26087e-05
-4.62317e-05
-1.34004e-05
-3.18717e-05
-1.43601e-05
-1.69069e-05
-1.49649e-05
-1.32468e-06
-1.55823e-05
1.5228e-05
-1.65527e-05
3.23271e-05
-1.70992e-05
4.99212e-05
-1.75942e-05
6.79944e-05
-1.80733e-05
8.63077e-05
-1.83134e-05
0.000104767
-1.84599e-05
0.000123051
-1.82837e-05
0.000140785
-1.7734e-05
0.000157614
-1.68287e-05
0.000173059
-1.54452e-05
0.000186569
-1.35107e-05
0.000197892
-1.13231e-05
0.0002066
-8.7077e-06
0.000212572
-5.97209e-06
0.000215533
-2.96109e-06
0.000215491
4.18899e-08
0.000212905
2.58623e-06
0.00020753
5.37482e-06
0.000199353
8.17664e-06
0.000188693
1.06601e-05
0.000175705
1.29884e-05
0.000160704
1.50001e-05
0.000144158
1.6546e-05
0.00012634
1.78188e-05
0.000107751
1.85884e-05
8.86152e-05
1.91358e-05
6.9209e-05
1.94062e-05
4.99446e-05
1.92644e-05
3.09781e-05
1.89664e-05
1.24743e-05
1.85038e-05
-5.25996e-06
1.77342e-05
-2.21679e-05
1.69079e-05
-3.8107e-05
1.59391e-05
-5.30966e-05
1.49896e-05
-6.70861e-05
1.39895e-05
-8.0025e-05
1.29389e-05
-9.19577e-05
1.19326e-05
-0.000102879
1.09212e-05
-0.000112792
9.91258e-06
-0.000121744
8.95203e-06
-0.000129749
8.00543e-06
-0.000136862
7.11285e-06
-0.00014311
6.24821e-06
-0.000148526
5.41604e-06
-0.000153133
4.60704e-06
-0.000156969
3.83561e-06
-0.00016006
3.0909e-06
-0.000162441
2.38103e-06
-0.000164127
1.68618e-06
-0.000165127
1.00025e-06
-0.000165446
3.18617e-07
-0.000165111
-3.35007e-07
-0.000164055
-1.0554e-06
-0.00016236
-1.69528e-06
-0.000159905
-2.45539e-06
-0.000156713
-3.1917e-06
-0.000152879
-3.83366e-06
-0.000148178
-4.7016e-06
-0.000142754
-5.42417e-06
-0.000136365
-6.38867e-06
-0.000129151
-7.21436e-06
-0.000121175
-7.97607e-06
-0.000112104
-9.07057e-06
-0.000102142
-9.96199e-06
-9.13695e-05
-1.07728e-05
-7.94759e-05
-1.18936e-05
-6.67095e-05
-1.27664e-05
-5.28836e-05
-1.38261e-05
-3.80895e-05
-1.47941e-05
-2.25242e-05
-1.55655e-05
-5.98579e-06
-1.65385e-05
1.14268e-05
-1.74127e-05
2.92946e-05
-1.78679e-05
4.77876e-05
-1.84931e-05
6.65575e-05
-1.87701e-05
8.55333e-05
-1.8976e-05
0.000104378
-1.8845e-05
0.0001227
-1.83215e-05
0.000140446
-1.77468e-05
0.000157281
-1.68351e-05
-1.58862e-05
0.000101269
3.56266e-05
8.32214e-05
3.60878e-05
6.47949e-05
3.68451e-05
4.61661e-05
3.725e-05
2.77261e-05
3.68705e-05
9.49867e-06
3.64483e-05
-8.30184e-06
3.5597e-05
-2.55165e-05
3.44233e-05
-4.19705e-05
3.29025e-05
-5.75387e-05
3.11327e-05
-7.22077e-05
2.93363e-05
-8.59003e-05
2.73832e-05
-9.85864e-05
2.53695e-05
-0.000110282
2.33882e-05
-0.000120969
2.13728e-05
-0.000130684
1.94311e-05
-0.000139434
1.74973e-05
-0.000147231
1.55908e-05
-0.000154134
1.38023e-05
-0.000160163
1.20587e-05
-0.000165342
1.03639e-05
-0.000169718
8.75462e-06
-0.000173316
7.19656e-06
-0.000176134
5.63541e-06
-0.000178218
4.16962e-06
-0.000179572
2.70518e-06
-0.000180245
1.34903e-06
-0.000180185
-1.19093e-07
-0.000179366
-1.63769e-06
-0.000177838
-3.05737e-06
-0.000175616
-4.44318e-06
-0.000172592
-6.04878e-06
-0.000168827
-7.53388e-06
-0.000164228
-9.19839e-06
-0.00015885
-1.07562e-05
-0.000152672
-1.23586e-05
-0.000145559
-1.42269e-05
-0.000137594
-1.59348e-05
-0.000128805
-1.75743e-05
-0.000118906
-1.97879e-05
-0.000108103
-2.16113e-05
-9.61861e-05
-2.38338e-05
-8.3327e-05
-2.57178e-05
-6.96383e-05
-2.7378e-05
-5.47837e-05
-2.97053e-05
-3.90689e-05
-3.143e-05
-2.25307e-05
-3.30713e-05
-5.25488e-06
-3.4531e-05
1.2883e-05
-3.62838e-05
3.13524e-05
-3.69331e-05
5.02701e-05
-3.78242e-05
6.93073e-05
-3.80663e-05
8.84049e-05
-3.81826e-05
0.000107338
-3.78474e-05
0.000125643
-3.65994e-05
0.000143229
-3.51546e-05
0.000159877
-3.3284e-05
0.000175118
-3.04682e-05
0.000188943
-2.76333e-05
0.000200971
-2.40507e-05
0.000211101
-2.02531e-05
0.000219167
-1.61153e-05
0.00022492
-1.14992e-05
0.000228317
-6.80244e-06
0.00022937
-2.10274e-06
0.000227952
2.81844e-06
0.00022408
7.74173e-06
0.000217824
1.25111e-05
0.000209333
1.69792e-05
0.000198741
2.11748e-05
0.000186275
2.49192e-05
0.000172057
2.84252e-05
0.000156335
3.1431e-05
0.000139408
3.38402e-05
0.00012153
3.57419e-05
0.000103031
3.69799e-05
8.41203e-05
3.78092e-05
6.49655e-05
3.83014e-05
4.58832e-05
3.81541e-05
2.70294e-05
3.76999e-05
8.64615e-06
3.67631e-05
-9.07689e-06
3.54371e-05
-2.60656e-05
3.39721e-05
-4.22174e-05
3.23023e-05
-5.74744e-05
3.05142e-05
-7.17221e-05
2.84879e-05
-8.49716e-05
2.6501e-05
-9.71838e-05
2.44304e-05
-0.000108408
2.24492e-05
-0.000118659
2.04974e-05
-0.000127964
1.86015e-05
-0.000136303
1.6675e-05
-0.00014372
1.48326e-05
-0.000150216
1.29891e-05
-0.000155803
1.11707e-05
-0.000160501
9.39662e-06
-0.000164318
7.63228e-06
-0.000167274
5.90765e-06
-0.000169464
4.38023e-06
-0.000170822
2.70887e-06
-0.000171455
1.26739e-06
-0.000171331
-2.4457e-07
-0.00017046
-1.73547e-06
-0.000168926
-3.06771e-06
-0.000166662
-4.52487e-06
-0.000163722
-5.87999e-06
-0.000160071
-7.29876e-06
-0.000155712
-8.71608e-06
-0.000150598
-1.02265e-05
-0.00014481
-1.15765e-05
-0.000138204
-1.32173e-05
-0.000130802
-1.48057e-05
-0.000122625
-1.6355e-05
-0.000113632
-1.79861e-05
-0.000103815
-1.96353e-05
-9.31623e-05
-2.13061e-05
-8.16796e-05
-2.29617e-05
-6.94108e-05
-2.4543e-05
-5.63568e-05
-2.61088e-05
-4.25444e-05
-2.76323e-05
-2.7998e-05
-2.90943e-05
-1.29124e-05
-3.0175e-05
2.83376e-06
-3.14929e-05
1.91148e-05
-3.25577e-05
3.58037e-05
-3.33807e-05
5.28568e-05
-3.41176e-05
7.01142e-05
-3.45026e-05
8.74427e-05
-3.46537e-05
0.000104668
-3.44526e-05
0.000121649
-3.3956e-05
0.000138103
-3.29126e-05
0.000153855
-3.15003e-05
0.000168643
-2.95614e-05
0.000182217
-2.71455e-05
0.00019432
-2.42017e-05
0.000204728
-2.0814e-05
0.000213204
-1.69475e-05
0.000219583
-1.27557e-05
0.0002237
-8.23507e-06
0.000225479
-3.54198e-06
0.000224849
1.22958e-06
0.000221723
6.25794e-06
0.000216136
1.11727e-05
0.000208211
1.58513e-05
0.000198066
2.02873e-05
0.000185817
2.44854e-05
0.000171718
2.81949e-05
0.000156003
3.14243e-05
0.000138924
3.41494e-05
0.00012077
3.62684e-05
0.000101818
3.79223e-05
8.23834e-05
3.88622e-05
6.27409e-05
3.92803e-05
4.32008e-05
3.91091e-05
2.38996e-05
3.85599e-05
5.19631e-06
3.74045e-05
-1.27654e-05
3.59244e-05
-2.98288e-05
3.41221e-05
-4.58722e-05
3.20799e-05
-6.08302e-05
2.99159e-05
-7.46526e-05
2.7648e-05
-8.73019e-05
2.53067e-05
-9.88234e-05
2.30459e-05
-0.000109171
2.06976e-05
-0.000118518
1.86907e-05
-0.000126732
1.64333e-05
-0.000133946
1.4443e-05
-0.000140275
1.26533e-05
-0.000145656
1.07631e-05
-0.0001502
9.09917e-06
-0.000153922
7.45271e-06
-0.000156956
6.07592e-06
-0.000159297
4.69045e-06
-0.000161008
3.41127e-06
-0.000162009
2.00337e-06
-0.000162415
8.15786e-07
-0.000162268
-2.83221e-07
-0.000161499
-1.53686e-06
-0.000160155
-2.67874e-06
-0.000158287
-3.73854e-06
-0.000155924
-4.72054e-06
-0.000153041
-5.77713e-06
-0.000149584
-6.91417e-06
-0.000145526
-8.11462e-06
-0.000141014
-9.02881e-06
-0.000135821
-1.03875e-05
-0.000130135
-1.13722e-05
-0.00012376
-1.27532e-05
-0.000116695
-1.41297e-05
-0.000109005
-1.53834e-05
-0.000100567
-1.68845e-05
-9.13436e-05
-1.84524e-05
-8.13412e-05
-2.00225e-05
-7.06152e-05
-2.14477e-05
-5.90088e-05
-2.32213e-05
-4.65534e-05
-2.48817e-05
-3.32906e-05
-2.65647e-05
-1.90409e-05
-2.85041e-05
-3.8625e-06
-3.04157e-05
1.20669e-05
-3.17955e-05
2.87363e-05
-3.33352e-05
4.59527e-05
-3.44281e-05
6.35188e-05
-3.51191e-05
8.11961e-05
-3.53551e-05
9.87723e-05
-3.51339e-05
0.000115902
-3.4268e-05
0.000132417
-3.30248e-05
0.000147997
-3.11696e-05
0.000162451
-2.88942e-05
0.000175515
-2.61178e-05
0.000187017
-2.29896e-05
0.000196728
-1.94407e-05
0.000204464
-1.54698e-05
0.000210023
-1.11033e-05
0.000213243
-6.43739e-06
0.000214013
-1.52221e-06
0.000212282
3.455e-06
0.000207948
8.66278e-06
0.000201138
1.36293e-05
0.000191985
1.83074e-05
0.000180661
2.26118e-05
0.000167425
2.64795e-05
0.000152576
2.96852e-05
0.00013641
3.23167e-05
0.000119222
3.43713e-05
0.000101303
3.58203e-05
8.30165e-05
3.66191e-05
6.44887e-05
3.70082e-05
4.6087e-05
3.67973e-05
2.8021e-05
3.61322e-05
1.0366e-05
3.52955e-05
-6.62922e-06
3.3963e-05
-2.28872e-05
3.25421e-05
-3.82498e-05
3.07265e-05
-5.26905e-05
2.88691e-05
-6.61376e-05
2.68973e-05
-7.86106e-05
2.49612e-05
-9.01395e-05
2.30632e-05
-0.000100641
2.101e-05
-0.00011019
1.90997e-05
-0.000118763
1.71537e-05
-0.000126485
1.54397e-05
-0.000133245
1.35084e-05
-0.000139223
1.19961e-05
-0.000144445
1.04402e-05
-0.000148914
8.93946e-06
-0.00015275
7.67567e-06
-0.000155952
6.40378e-06
-0.000158588
5.2775e-06
-0.000160681
4.19127e-06
-0.000162221
3.07784e-06
-0.000163215
1.98565e-06
-0.000163746
1.07142e-06
-0.000163746
-2.35781e-09
-0.000163223
-1.04559e-06
-0.000162318
-1.81314e-06
-0.000160884
-2.86821e-06
-0.000158993
-3.78218e-06
-0.000156578
-4.83609e-06
-0.000153606
-5.94906e-06
-0.000150081
-7.05584e-06
-0.000145857
-8.44689e-06
-0.00014093
-9.86392e-06
-0.000135311
-1.12372e-05
-0.000128792
-1.30351e-05
-0.000121636
-1.43145e-05
-0.000113509
-1.62491e-05
-0.000104584
-1.78615e-05
-9.47929e-05
-1.95666e-05
-8.39766e-05
-2.1631e-05
-7.23156e-05
-2.33218e-05
-5.96966e-05
-2.52276e-05
-4.62887e-05
-2.68084e-05
-3.19188e-05
-2.87301e-05
-1.69523e-05
-2.99315e-05
-1.36434e-06
-3.11704e-05
1.51879e-05
-3.31051e-05
3.22876e-05
-3.4199e-05
4.98851e-05
-3.51919e-05
6.79633e-05
-3.61516e-05
8.62824e-05
-3.66326e-05
0.000104751
-3.69284e-05
0.000123054
-3.65875e-05
0.000140802
-3.54823e-05
0.000157656
-3.36824e-05
0.000173136
-3.09251e-05
0.00018667
-2.70452e-05
0.000198017
-2.26705e-05
0.000206743
-1.7433e-05
0.000212718
-1.19475e-05
0.000215703
-5.9466e-06
0.000215657
8.81143e-08
0.000213053
5.1899e-06
0.000207675
1.07532e-05
0.000199488
1.63627e-05
0.000188815
2.13336e-05
0.000175811
2.5992e-05
0.000160795
3.0016e-05
0.000144233
3.31082e-05
0.000126397
3.56541e-05
0.000107793
3.71926e-05
8.86436e-05
3.82852e-05
6.92241e-05
3.88257e-05
4.9948e-05
3.85404e-05
3.09712e-05
3.79431e-05
1.24586e-05
3.70164e-05
-5.28088e-06
3.54736e-05
-2.21907e-05
3.38177e-05
-3.81311e-05
3.18795e-05
-5.31215e-05
2.998e-05
-6.71117e-05
2.79796e-05
-8.00514e-05
2.58786e-05
-9.19845e-05
2.38658e-05
-0.000102906
2.18427e-05
-0.000112817
1.98238e-05
-0.000121766
1.79003e-05
-0.00012977
1.60099e-05
-0.000136885
1.42282e-05
-0.000143135
1.2498e-05
-0.000148548
1.08288e-05
-0.000153156
9.21559e-06
-0.000156993
7.67163e-06
-0.000160089
6.18721e-06
-0.00016247
4.76185e-06
-0.000164155
3.37172e-06
-0.000165156
2.00141e-06
-0.000165476
6.38309e-07
-0.000165144
-6.67058e-07
-0.000164094
-2.1056e-06
-0.0001624
-3.38886e-06
-0.000159944
-4.91178e-06
-0.000156753
-6.38254e-06
-0.000152922
-7.66503e-06
-0.000148219
-9.40407e-06
-0.000142801
-1.08427e-05
-0.000136412
-1.2778e-05
-0.000129194
-1.4432e-05
-0.000121215
-1.59553e-05
-0.000112152
-1.81341e-05
-0.000102188
-1.99252e-05
-9.14168e-05
-2.15446e-05
-7.95203e-05
-2.37903e-05
-6.67524e-05
-2.55345e-05
-5.29152e-05
-2.76634e-05
-3.81282e-05
-2.95814e-05
-2.25606e-05
-3.11332e-05
-6.01099e-06
-3.30884e-05
1.1394e-05
-3.4818e-05
2.92638e-05
-3.5738e-05
4.77571e-05
-3.69867e-05
6.65333e-05
-3.75465e-05
8.55239e-05
-3.79669e-05
0.000104382
-3.77034e-05
0.000122713
-3.66533e-05
0.000140472
-3.55052e-05
0.000157325
-3.36895e-05
-3.17837e-05
0.000101305
5.34614e-05
8.32403e-05
5.41522e-05
6.47974e-05
5.5288e-05
4.61539e-05
5.58936e-05
2.76964e-05
5.53279e-05
9.45684e-06
5.46879e-05
-8.3552e-06
5.3409e-05
-2.55797e-05
5.16478e-05
-4.20416e-05
4.93644e-05
-5.76177e-05
4.67089e-05
-7.22918e-05
4.40103e-05
-8.59885e-05
4.108e-05
-9.86764e-05
3.80574e-05
-0.000110372
3.50835e-05
-0.000121058
3.20589e-05
-0.000130773
2.91464e-05
-0.000139521
2.62451e-05
-0.000147315
2.33848e-05
-0.000154217
2.07038e-05
-0.000160246
1.8088e-05
-0.000165426
1.55441e-05
-0.000169802
1.31306e-05
-0.000173397
1.0792e-05
-0.000176216
8.45359e-06
-0.000178302
6.25544e-06
-0.000179654
4.05796e-06
-0.000180315
2.00991e-06
-0.000180245
-1.88828e-07
-0.000179422
-2.46097e-06
-0.000177894
-4.58542e-06
-0.000175674
-6.66359e-06
-0.00017265
-9.07221e-06
-0.000168888
-1.12959e-05
-0.00016429
-1.37963e-05
-0.000158916
-1.61311e-05
-0.000152741
-1.85334e-05
-0.00014563
-2.13376e-05
-0.000137681
-2.38837e-05
-0.000128883
-2.63723e-05
-0.000118976
-2.96958e-05
-0.000108179
-3.24082e-05
-9.62634e-05
-3.57492e-05
-8.34049e-05
-3.85763e-05
-6.97176e-05
-4.10654e-05
-5.48563e-05
-4.45667e-05
-3.9143e-05
-4.71433e-05
-2.25954e-05
-4.9619e-05
-5.29325e-06
-5.18333e-05
1.28418e-05
-5.4419e-05
3.13208e-05
-5.54122e-05
5.02537e-05
-5.67573e-05
6.93085e-05
-5.71212e-05
8.8425e-05
-5.72992e-05
0.00010738
-5.68027e-05
0.000125708
-5.49271e-05
0.000143323
-5.27705e-05
0.000159988
-4.99483e-05
0.000175245
-4.57261e-05
0.000189098
-4.14862e-05
0.00020114
-3.6093e-05
0.000211285
-3.03984e-05
0.000219367
-2.41967e-05
0.000225135
-1.72679e-05
0.000228527
-1.01946e-05
0.000229578
-3.15367e-06
0.000228131
4.26514e-06
0.000224255
1.16178e-05
0.000217997
1.87693e-05
0.000209498
2.54781e-05
0.000198888
3.17842e-05
0.000186408
3.7399e-05
0.00017217
4.26638e-05
0.000156428
4.71732e-05
0.000139481
5.07865e-05
0.000121585
5.36382e-05
0.000103059
5.55059e-05
8.41285e-05
5.67394e-05
6.49612e-05
5.74687e-05
4.5851e-05
5.72643e-05
2.69924e-05
5.65584e-05
8.60442e-06
5.51511e-05
-9.13458e-06
5.3176e-05
-2.61371e-05
5.09746e-05
-4.22975e-05
4.84625e-05
-5.75619e-05
4.57784e-05
-7.18206e-05
4.27464e-05
-8.50585e-05
3.97388e-05
-9.72852e-05
3.66568e-05
-0.000108524
3.3688e-05
-0.00011878
3.0753e-05
-0.000128087
2.79081e-05
-0.000136432
2.50199e-05
-0.00014386
2.226e-05
-0.000150361
1.94902e-05
-0.000155954
1.67636e-05
-0.00016066
1.41028e-05
-0.000164487
1.14585e-05
-0.000167463
8.88394e-06
-0.000169652
6.5694e-06
-0.000171018
4.07471e-06
-0.000171641
1.89022e-06
-0.00017152
-3.65919e-07
-0.000170644
-2.61174e-06
-0.000169115
-4.59635e-06
-0.000166857
-6.78325e-06
-0.000163907
-8.8296e-06
-0.00016026
-1.09462e-05
-0.000155894
-1.3082e-05
-0.000150776
-1.53438e-05
-0.000144983
-1.73703e-05
-0.000138398
-1.98021e-05
-0.000130963
-2.22411e-05
-0.00012282
-2.44978e-05
-0.000113818
-2.69879e-05
-0.000103999
-2.94543e-05
-9.33461e-05
-3.19593e-05
-8.18137e-05
-3.44942e-05
-6.95979e-05
-3.6759e-05
-5.6532e-05
-3.91748e-05
-4.27196e-05
-4.14449e-05
-2.816e-05
-4.3654e-05
-1.30759e-05
-4.52593e-05
2.67454e-06
-4.72435e-05
1.89596e-05
-4.88429e-05
3.56674e-05
-5.00887e-05
5.27336e-05
-5.1184e-05
7.00103e-05
-5.17794e-05
8.73575e-05
-5.20011e-05
0.00010459
-5.16857e-05
0.000121578
-5.09441e-05
0.000138056
-4.93905e-05
0.000153819
-4.72632e-05
0.000168627
-4.43703e-05
0.000182214
-4.07323e-05
0.000194334
-3.63213e-05
0.00020476
-3.12409e-05
0.000213248
-2.54353e-05
0.000219647
-1.91551e-05
0.000223781
-1.23692e-05
0.000225554
-5.31484e-06
0.000224892
1.89116e-06
0.000221761
9.38931e-06
0.00021618
1.67536e-05
0.000208249
2.37825e-05
0.000198072
3.04632e-05
0.000185822
3.67357e-05
0.000171707
4.23095e-05
0.000155971
4.71605e-05
0.000138864
5.12563e-05
0.000120672
5.44609e-05
0.000101715
5.68788e-05
8.22665e-05
5.83107e-05
6.26052e-05
5.89415e-05
4.30243e-05
5.869e-05
2.3721e-05
5.78632e-05
5.00875e-06
5.61167e-05
-1.29641e-05
5.38973e-05
-3.00428e-05
5.12009e-05
-4.60919e-05
4.8129e-05
-6.10478e-05
4.48718e-05
-7.48779e-05
4.1478e-05
-8.75239e-05
3.79527e-05
-9.90498e-05
3.45718e-05
-0.000109435
3.10832e-05
-0.000118736
2.79909e-05
-0.000126961
2.46583e-05
-0.000134164
2.16466e-05
-0.000140494
1.89828e-05
-0.00014587
1.61395e-05
-0.00015039
1.36187e-05
-0.000154137
1.12002e-05
-0.000157155
9.09404e-06
-0.000159478
7.01336e-06
-0.000161196
5.12874e-06
-0.00016221
3.01722e-06
-0.000162612
1.21814e-06
-0.000162451
-4.43876e-07
-0.000161685
-2.30287e-06
-0.000160315
-4.04881e-06
-0.000158471
-5.5827e-06
-0.000156089
-7.10272e-06
-0.000153209
-8.65731e-06
-0.000149775
-1.03474e-05
-0.000145711
-1.21789e-05
-0.000141198
-1.35413e-05
-0.000136013
-1.55727e-05
-0.00013032
-1.70651e-05
-0.000123946
-1.91274e-05
-0.00011688
-2.11962e-05
-0.000109196
-2.30671e-05
-0.000100757
-2.53232e-05
-9.15291e-05
-2.76807e-05
-8.15488e-05
-3.00029e-05
-7.08106e-05
-3.21859e-05
-5.92132e-05
-3.48189e-05
-4.67514e-05
-3.73436e-05
-3.34944e-05
-3.98218e-05
-1.92458e-05
-4.27528e-05
-4.10705e-06
-4.55546e-05
1.18922e-05
-4.7795e-05
2.85846e-05
-5.00277e-05
4.58027e-05
-5.16464e-05
6.34104e-05
-5.2727e-05
8.10934e-05
-5.30382e-05
9.86966e-05
-5.27373e-05
0.00011584
-5.14118e-05
0.000132371
-4.95554e-05
0.000147961
-4.67598e-05
0.000162444
-4.33773e-05
0.000175504
-3.91778e-05
0.000187025
-3.4511e-05
0.000196752
-2.91683e-05
0.000204491
-2.32087e-05
0.000210064
-1.66768e-05
0.000213316
-9.68908e-06
0.000214083
-2.2898e-06
0.000212333
5.20539e-06
0.000207997
1.29989e-05
0.000201188
2.04375e-05
0.000192055
2.74404e-05
0.000180671
3.39961e-05
0.000167413
3.97368e-05
0.000152538
4.45606e-05
0.000136363
4.84914e-05
0.000119109
5.16249e-05
0.000101189
5.37404e-05
8.286e-05
5.49482e-05
6.43459e-05
5.55222e-05
4.59284e-05
5.52148e-05
2.78085e-05
5.42521e-05
1.01839e-05
5.292e-05
-6.82483e-06
5.09717e-05
-2.30874e-05
4.88046e-05
-3.84618e-05
4.6101e-05
-5.29161e-05
4.33234e-05
-6.63805e-05
4.03617e-05
-7.88582e-05
3.74388e-05
-9.03654e-05
3.45704e-05
-0.000100863
3.1508e-05
-0.000110403
2.86398e-05
-0.000118995
2.57456e-05
-0.000126702
2.3146e-05
-0.000133478
2.02843e-05
-0.000139421
1.79391e-05
-0.000144631
1.56507e-05
-0.000149115
1.34237e-05
-0.000152935
1.14956e-05
-0.000156134
9.60226e-06
-0.000158766
7.90998e-06
-0.000160861
6.2864e-06
-0.000162408
4.62492e-06
-0.000163413
2.98995e-06
-0.000163918
1.57681e-06
-0.000163923
3.23819e-09
-0.000163402
-1.5665e-06
-0.000162493
-2.72293e-06
-0.000161052
-4.30836e-06
-0.00015916
-5.67465e-06
-0.000156747
-7.24823e-06
-0.000153779
-8.91742e-06
-0.000150252
-1.05825e-05
-0.000146028
-1.26708e-05
-0.000141116
-1.4776e-05
-0.000135476
-1.68774e-05
-0.000128962
-1.95482e-05
-0.000121785
-2.14914e-05
-0.00011365
-2.43841e-05
-0.00010474
-2.67717e-05
-9.49166e-05
-2.939e-05
-8.40964e-05
-3.24512e-05
-7.24395e-05
-3.49786e-05
-5.98028e-05
-3.78643e-05
-4.63825e-05
-4.02288e-05
-3.20007e-05
-4.3112e-05
-1.70318e-05
-4.49004e-05
-1.43417e-06
-4.67681e-05
1.51193e-05
-4.96587e-05
3.22172e-05
-5.1297e-05
4.98236e-05
-5.27984e-05
6.79083e-05
-5.42365e-05
8.62397e-05
-5.49642e-05
0.000104724
-5.5413e-05
0.000123052
-5.49154e-05
0.000140831
-5.32613e-05
0.000157724
-5.05752e-05
0.000173253
-4.64547e-05
0.000186835
-4.06278e-05
0.000198227
-3.40624e-05
0.000206982
-2.61885e-05
0.000212982
-1.79469e-05
0.000215984
-8.94886e-06
0.000215903
1.68559e-07
0.00021328
7.81261e-06
0.000207895
1.61387e-05
0.000199691
2.45659e-05
0.000188994
3.20307e-05
0.000175961
3.90251e-05
0.000160921
4.50561e-05
0.000144331
4.96984e-05
0.000126466
5.35189e-05
0.000107834
5.58246e-05
8.86618e-05
5.74571e-05
6.92206e-05
5.82668e-05
4.99262e-05
5.78347e-05
3.0933e-05
5.69363e-05
1.24082e-05
5.55412e-05
-5.34138e-06
5.32232e-05
-2.22584e-05
5.07347e-05
-3.82033e-05
4.78243e-05
-5.31958e-05
4.49724e-05
-6.71858e-05
4.19697e-05
-8.01233e-05
3.8816e-05
-9.20521e-05
3.57946e-05
-0.000102969
3.27596e-05
-0.000112877
2.97322e-05
-0.000121824
2.68473e-05
-0.000129825
2.40104e-05
-0.000136933
2.13362e-05
-0.000143176
1.87414e-05
-0.000148582
1.62349e-05
-0.000153198
1.38316e-05
-0.000157035
1.15081e-05
-0.000160128
9.28006e-06
-0.000162507
7.14136e-06
-0.000164199
5.06383e-06
-0.000165206
3.00751e-06
-0.000165524
9.5678e-07
-0.000165194
-9.96842e-07
-0.000164152
-3.14744e-06
-0.000162461
-5.08053e-06
-0.000160003
-7.36955e-06
-0.000156814
-9.57116e-06
-0.000152987
-1.14927e-05
-0.000148282
-1.41086e-05
-0.000142864
-1.6261e-05
-0.000136479
-1.91638e-05
-0.000129263
-2.16471e-05
-0.000121277
-2.39414e-05
-0.000112224
-2.7188e-05
-0.00010226
-2.98885e-05
-9.14897e-05
-3.23154e-05
-7.95974e-05
-3.56827e-05
-6.68246e-05
-3.83074e-05
-5.29785e-05
-4.15097e-05
-3.81995e-05
-4.43606e-05
-2.26307e-05
-4.67022e-05
-6.06226e-06
-4.9657e-05
1.13393e-05
-5.22197e-05
2.9212e-05
-5.36109e-05
4.77139e-05
-5.54889e-05
6.65044e-05
-5.63373e-05
8.55088e-05
-5.69715e-05
0.000104383
-5.6578e-05
0.000122735
-5.50052e-05
0.000140525
-5.32955e-05
0.000157414
-5.05788e-05
-4.77042e-05
0.000101358
7.13229e-05
8.32687e-05
7.2242e-05
6.48012e-05
7.37555e-05
4.61356e-05
7.45592e-05
2.76531e-05
7.38104e-05
9.39409e-06
7.29469e-05
-8.43596e-06
7.12391e-05
-2.56764e-05
6.88883e-05
-4.2151e-05
6.58389e-05
-5.77387e-05
6.22965e-05
-7.24202e-05
5.86919e-05
-8.61209e-05
5.47806e-05
-9.88109e-05
5.07474e-05
-0.000110507
4.67798e-05
-0.000121193
4.2745e-05
-0.000130909
3.88623e-05
-0.000139658
3.49937e-05
-0.000147452
3.11795e-05
-0.000154352
2.76028e-05
-0.00016038
2.41165e-05
-0.000165556
2.07202e-05
-0.00016993
1.75041e-05
-0.000173523
1.43853e-05
-0.00017634
1.12701e-05
-0.000178428
8.34421e-06
-0.000179778
5.40796e-06
-0.000180421
2.65217e-06
-0.000180335
-2.74151e-07
-0.000179507
-3.28923e-06
-0.000177979
-6.11347e-06
-0.00017576
-8.88307e-06
-0.000172738
-1.20937e-05
-0.000168979
-1.50552e-05
-0.000164384
-1.83908e-05
-0.000159014
-2.15016e-05
-0.000152844
-2.47037e-05
-0.000145736
-2.84451e-05
-0.000137816
-3.18035e-05
-0.000129002
-3.51864e-05
-0.000119082
-3.96157e-05
-0.000108293
-4.3198e-05
-9.63798e-05
-4.76623e-05
-8.35225e-05
-5.14337e-05
-6.9837e-05
-5.4751e-05
-5.49657e-05
-5.94382e-05
-3.9255e-05
-6.28542e-05
-2.26959e-05
-6.61782e-05
-5.35388e-06
-6.91755e-05
1.27786e-05
-7.25516e-05
3.12716e-05
-7.39053e-05
5.02299e-05
-7.57157e-05
6.93102e-05
-7.62016e-05
8.84531e-05
-7.64422e-05
0.000107443
-7.57929e-05
0.000125807
-7.32916e-05
0.000143455
-7.04179e-05
0.000160151
-6.6645e-05
0.00017544
-6.1015e-05
0.000189339
-5.53847e-05
0.000201395
-4.81499e-05
0.000211564
-4.05668e-05
0.000219676
-3.23093e-05
0.000225441
-2.30333e-05
0.00022884
-1.35938e-05
0.000229888
-4.20119e-06
0.000228402
5.75094e-06
0.000224515
1.55044e-05
0.000218251
2.5033e-05
0.000209741
3.39882e-05
0.000199106
4.24191e-05
0.000186605
4.99001e-05
0.000172338
5.69312e-05
0.000156565
6.29458e-05
0.000139591
6.77607e-05
0.000121692
7.15365e-05
0.000103101
7.40968e-05
8.41397e-05
7.57008e-05
6.49329e-05
7.66756e-05
4.58029e-05
7.63942e-05
2.69343e-05
7.5427e-05
8.5547e-06
7.35306e-05
-9.2286e-06
7.09593e-05
-2.62542e-05
6.80001e-05
-4.24325e-05
6.46407e-05
-5.77029e-05
6.10487e-05
-7.19851e-05
5.70285e-05
-8.52092e-05
5.29628e-05
-9.74653e-05
4.89127e-05
-0.000108719
4.49414e-05
-0.000118979
4.10127e-05
-0.000128294
3.72232e-05
-0.000136644
3.337e-05
-0.000144093
2.97087e-05
-0.000150599
2.59961e-05
-0.000156201
2.23646e-05
-0.000160923
1.88249e-05
-0.00016476
1.52957e-05
-0.000167751
1.18744e-05
-0.000169945
8.76395e-06
-0.000171322
5.45128e-06
-0.000171928
2.49579e-06