/*--------------------------------*- C++ -*----------------------------------*\
| =========                 |                                                 |
| \\      /  F ield         | OpenFOAM: The Open Source CFD Toolbox           |
|  \\    /   O peration     | Version:  3.0.1                                 |
|   \\  /    A nd           | Web:      www.OpenFOAM.org                      |
|    \\/     M anipulation  |                                                 |
\*---------------------------------------------------------------------------*/
FoamFile
{
    version     2.0;
    format      ascii;
    class       volVectorField;
    location    "49.4";
    object      U;
}
// * * * * * * * * * * * * * * * * * * * * * * * * * * * * * * * * * * * * * //

dimensions      [0 1 -1 0 0 0 0];

internalField   nonuniform List<vector> 
21420
(
(-0.135825 -0.000755135 0)
(-0.128729 -0.000848214 0)
(-0.119727 -0.000938111 0)
(-0.109787 -0.00102914 0)
(-0.0988831 -0.00113142 0)
(-0.0870063 -0.00122394 0)
(-0.074152 -0.00132951 0)
(-0.0603321 -0.0014189 0)
(-0.0455742 -0.00150279 0)
(-0.0299191 -0.00160265 0)
(-0.013426 -0.00167307 0)
(0.00380331 -0.00172979 0)
(0.0216624 -0.00180609 0)
(0.0400279 -0.00183599 0)
(0.0587308 -0.00188244 0)
(0.077585 -0.00187458 0)
(0.0963711 -0.00184282 0)
(0.114855 -0.00182323 0)
(0.132796 -0.00174398 0)
(0.149925 -0.00163932 0)
(0.16598 -0.00153701 0)
(0.180706 -0.00138435 0)
(0.193849 -0.00121047 0)
(0.205172 -0.00102746 0)
(0.214475 -0.000814743 0)
(0.22158 -0.000591364 0)
(0.22636 -0.000351477 0)
(0.228694 -0.00010918 0)
(0.228616 0.000131557 0)
(0.226042 0.000379103 0)
(0.220973 0.000624042 0)
(0.213619 0.000839533 0)
(0.204078 0.00105493 0)
(0.192527 0.00122852 0)
(0.179189 0.00140194 0)
(0.164282 0.00155723 0)
(0.14806 0.00165246 0)
(0.1308 0.0017526 0)
(0.112727 0.00182898 0)
(0.0941104 0.00184661 0)
(0.0752141 0.00186927 0)
(0.0562081 0.00184388 0)
(0.0373325 0.00182463 0)
(0.0187774 0.00178833 0)
(0.00134505 0.00171656 0)
(-0.0151805 0.00165285 0)
(-0.0313537 0.00157639 0)
(-0.0467077 0.00148084 0)
(-0.0611746 0.00139259 0)
(-0.0747028 0.00129881 0)
(-0.0872613 0.00119695 0)
(-0.0988452 0.0011014 0)
(-0.109461 0.00100216 0)
(-0.119121 0.00090868 0)
(-0.127835 0.000815977 0)
(-0.135636 0.000724861 0)
(-0.142565 0.000638005 0)
(-0.148625 0.000553694 0)
(-0.153858 0.000472533 0)
(-0.158298 0.000393729 0)
(-0.161972 0.000317337 0)
(-0.164919 0.000247265 0)
(-0.167101 0.000173598 0)
(-0.168514 0.000100372 0)
(-0.169251 3.6245e-05 0)
(-0.169294 -3.68401e-05 0)
(-0.168533 -0.000118202 0)
(-0.167049 -0.00018737 0)
(-0.164791 -0.000272952 0)
(-0.161713 -0.000346929 0)
(-0.1579 -0.000421349 0)
(-0.153261 -0.000511932 0)
(-0.147776 -0.000592924 0)
(-0.141544 -0.000673675 0)
(-0.134333 -0.000764489 0)
(-0.126236 -0.000840934 0)
(-0.117378 -0.000939213 0)
(-0.107684 -0.0010282 0)
(-0.0971037 -0.00110167 0)
(-0.0854843 -0.00118576 0)
(-0.0730919 -0.00127141 0)
(-0.0600877 -0.00135148 0)
(-0.0461433 -0.00142888 0)
(-0.0313885 -0.00150088 0)
(-0.0160759 -0.0015692 0)
(0.00020627 -0.00162718 0)
(0.0171031 -0.00168684 0)
(0.034296 -0.00172941 0)
(0.0518785 -0.00176678 0)
(0.0696947 -0.00178003 0)
(0.0875905 -0.0017744 0)
(0.105303 -0.00174794 0)
(0.122629 -0.00169798 0)
(0.139374 -0.00162201 0)
(0.155276 -0.00152953 0)
(0.170108 -0.00141207 0)
(0.183618 -0.00126692 0)
(0.195595 -0.00110437 0)
(0.205848 -0.000922753 0)
(0.214172 -0.000727423 0)
(0.220446 -0.000515507 0)
(0.224531 -0.000293951 0)
(0.226311 -6.24242e-05 0)
(0.225812 0.000167152 0)
(0.222836 0.00040817 0)
(0.217551 0.000639209 0)
(0.209981 0.000865395 0)
(0.200211 0.00107125 0)
(0.188434 0.00125969 0)
(0.174814 0.00143392 0)
(0.15959 0.00158554 0)
(0.142998 0.00170687 0)
(0.125286 0.0018014 0)
(0.106767 0.00186949 0)
(0.0876841 0.00191159 0)
(0.0683242 0.00192669 0)
(0.0489729 0.00191872 0)
(0.0298422 0.00188405 0)
(0.01114 0.00182847 0)
(-0.00692304 0.00175611 0)
(-0.0242202 0.00167344 0)
(-0.0406248 0.00158043 0)
(-0.0560388 0.0014794 0)
(-0.0703938 0.00136826 0)
(-0.0836647 0.00126215 0)
(-0.0958415 0.00115502 0)
(-0.106929 0.00104717 0)
(-0.116938 0.000940982 0)
(-0.125886 0.000832215 0)
(-0.13379 0.000739332 0)
(-0.140695 0.000633958 0)
(-0.146622 0.000541601 0)
(-0.151635 0.00045584 0)
(-0.155779 0.000365551 0)
(-0.159083 0.000287534 0)
(-0.161613 0.000211095 0)
(-0.163385 0.000146583 0)
(-0.164464 7.40133e-05 0)
(-0.164959 1.76325e-05 0)
(-0.164833 -3.91791e-05 0)
(-0.164129 -9.65639e-05 0)
(-0.162927 -0.000154049 0)
(-0.161136 -0.000203351 0)
(-0.15879 -0.000251027 0)
(-0.15593 -0.00030485 0)
(-0.152544 -0.000361231 0)
(-0.148644 -0.000416351 0)
(-0.144181 -0.000473895 0)
(-0.139093 -0.000532035 0)
(-0.133366 -0.000595415 0)
(-0.127031 -0.000665374 0)
(-0.119969 -0.000735028 0)
(-0.112139 -0.000808794 0)
(-0.103627 -0.000891638 0)
(-0.0942707 -0.000957893 0)
(-0.0840582 -0.00105071 0)
(-0.073038 -0.00114076 0)
(-0.0611186 -0.00122502 0)
(-0.0483519 -0.00131265 0)
(-0.0347396 -0.00138383 0)
(-0.0203025 -0.00147003 0)
(-0.00511781 -0.0015355 0)
(0.0107198 -0.0015952 0)
(0.0270735 -0.00164063 0)
(0.0438124 -0.00167805 0)
(0.0608221 -0.00169472 0)
(0.0778894 -0.00168687 0)
(0.0947873 -0.00166391 0)
(0.111366 -0.00161876 0)
(0.127375 -0.00154995 0)
(0.14254 -0.00146078 0)
(0.156666 -0.00133549 0)
(0.169456 -0.00119218 0)
(0.180625 -0.0010196 0)
(0.189929 -0.000825473 0)
(0.197167 -0.00060826 0)
(0.202151 -0.000379622 0)
(0.204737 -0.000134502 0)
(0.20488 0.000107439 0)
(0.202542 0.000352571 0)
(0.197753 0.00059313 0)
(0.190654 0.000818261 0)
(0.181348 0.00102835 0)
(0.169954 0.00122502 0)
(0.156749 0.00139235 0)
(0.141964 0.00153628 0)
(0.125842 0.00164997 0)
(0.108731 0.00173956 0)
(0.0908762 0.00179849 0)
(0.0726077 0.00182451 0)
(0.0542267 0.00182324 0)
(0.0359571 0.00180281 0)
(0.0180749 0.00175299 0)
(0.000743754 0.00169134 0)
(-0.0159506 0.0016199 0)
(-0.0319124 0.00154186 0)
(-0.0470689 0.0014664 0)
(-0.0613759 0.00138054 0)
(-0.0748544 0.00128891 0)
(-0.0874264 0.00120158 0)
(-0.0990309 0.00110469 0)
(-0.109681 0.00100574 0)
(-0.119329 0.00091112 0)
(-0.127993 0.000810704 0)
(-0.135715 0.00072247 0)
(-0.142526 0.000632049 0)
(-0.14851 0.000556156 0)
(-0.153736 0.000479363 0)
(-0.158226 0.000410236 0)
(-0.162029 0.00033963 0)
(-0.165197 0.000290544 0)
(-0.167763 0.000223832 0)
(-0.169724 0.000165367 0)
(-0.171089 0.000105608 0)
(-0.171878 5.3551e-05 0)
(-0.172141 -5.00081e-07 0)
(-0.171839 -6.20417e-05 0)
(-0.170944 -0.000121269 0)
(-0.169448 -0.000170676 0)
(-0.167361 -0.000231181 0)
(-0.164735 -0.00029129 0)
(-0.161484 -0.000348843 0)
(-0.157637 -0.000408822 0)
(-0.153216 -0.000475718 0)
(-0.148118 -0.00052915 0)
(-0.142405 -0.000600145 0)
(-0.136005 -0.000671917 0)
(-0.128851 -0.000737935 0)
(-0.121047 -0.000821992 0)
(-0.112434 -0.000886614 0)
(-0.102999 -0.000974583 0)
(-0.092829 -0.00105652 0)
(-0.0817857 -0.00112447 0)
(-0.0699318 -0.00121321 0)
(-0.0572974 -0.00129138 0)
(-0.0438532 -0.00136905 0)
(-0.0297131 -0.00143673 0)
(-0.0148969 -0.00150393 0)
(0.000599812 -0.00156277 0)
(0.0166159 -0.00160372 0)
(0.0329636 -0.00163731 0)
(0.0495674 -0.00165378 0)
(0.0662539 -0.00164838 0)
(0.0827837 -0.00162681 0)
(0.0989639 -0.00158062 0)
(0.114552 -0.00150753 0)
(0.129275 -0.00141048 0)
(0.142888 -0.00128817 0)
(0.155162 -0.00114076 0)
(0.165813 -0.000965452 0)
(0.174624 -0.00077637 0)
(0.181367 -0.000560507 0)
(0.185877 -0.000329395 0)
(0.188 -9.61289e-05 0)
(0.18775 0.000145008 0)
(0.184973 0.000396342 0)
(0.179743 0.000639221 0)
(0.172219 0.000856274 0)
(0.162491 0.00106873 0)
(0.150729 0.00126107 0)
(0.137195 0.0014245 0)
(0.122144 0.00155944 0)
(0.105886 0.00166421 0)
(0.0887434 0.00173816 0)
(0.0709558 0.00178064 0)
(0.0528899 0.00180659 0)
(0.0347674 0.0017929 0)
(0.0168867 0.0017517 0)
(-0.000393819 0.00170845 0)
(-0.0170813 0.00163421 0)
(-0.0330458 0.00155125 0)
(-0.0481078 0.00145608 0)
(-0.0622168 0.00135716 0)
(-0.0752474 0.00125474 0)
(-0.0872208 0.00114716 0)
(-0.098112 0.00103132 0)
(-0.107874 0.00092344 0)
(-0.116499 0.000808754 0)
(-0.123987 0.000702168 0)
(-0.130438 0.000593944 0)
(-0.135884 0.000502951 0)
(-0.140392 0.000406716 0)
(-0.144129 0.000340006 0)
(-0.147154 0.000267945 0)
(-0.149568 0.000204706 0)
(-0.15158 0.000161575 0)
(-0.153156 0.000113099 0)
(-0.154276 6.86077e-05 0)
(-0.154981 3.83533e-05 0)
(-0.155253 -5.7443e-06 0)
(-0.155151 -3.8488e-05 0)
(-0.154703 -6.58128e-05 0)
(-0.153819 -0.000106437 0)
(-0.152601 -0.000135793 0)
(-0.151076 -0.000169159 0)
(-0.149128 -0.000213796 0)
(-0.146756 -0.000250827 0)
(-0.143971 -0.000295668 0)
(-0.140662 -0.000353366 0)
(-0.136813 -0.00040904 0)
(-0.132303 -0.000480198 0)
(-0.127075 -0.000547181 0)
(-0.121138 -0.000627542 0)
(-0.114283 -0.000726845 0)
(-0.106435 -0.000817322 0)
(-0.0976556 -0.00091868 0)
(-0.0877282 -0.00104301 0)
(-0.0766028 -0.00114876 0)
(-0.064283 -0.00127426 0)
(-0.0508167 -0.00137583 0)
(-0.0363722 -0.00146847 0)
(-0.0208453 -0.00157773 0)
(-0.00469209 -0.0016522 0)
(0.0119709 -0.00169684 0)
(0.0293769 -0.00175955 0)
(0.0471601 -0.00177003 0)
(0.0650689 -0.00178919 0)
(0.0828762 -0.00175532 0)
(0.100307 -0.00169419 0)
(0.117106 -0.00163523 0)
(0.13304 -0.00152867 0)
(0.147845 -0.00139816 0)
(0.161283 -0.00126153 0)
(0.173151 -0.00109147 0)
(0.183261 -0.000912559 0)
(0.191452 -0.00071225 0)
(0.197601 -0.00050299 0)
(0.201628 -0.000289651 0)
(0.20347 -7.53677e-05 0)
(0.203196 0.000133861 0)
(0.200759 0.00034083 0)
(0.19626 0.000540428 0)
(0.189873 0.000727907 0)
(0.181721 0.000887864 0)
(0.171975 0.00104259 0)
(0.160814 0.0011631 0)
(0.148431 0.00128116 0)
(0.135011 0.00138284 0)
(0.120742 0.00144407 0)
(0.105811 0.00150937 0)
(0.0903855 0.00155891 0)
(0.0746311 0.00156886 0)
(0.0587031 0.00158744 0)
(0.0427435 0.00156919 0)
(0.0268635 0.00156054 0)
(0.0109888 0.00153773 0)
(-0.00431577 0.00149858 0)
(-0.0189844 0.00145664 0)
(-0.0333799 0.00140767 0)
(-0.0471954 0.00133663 0)
(-0.0603683 0.00127522 0)
(-0.0728441 0.00119591 0)
(-0.0845781 0.00112502 0)
(-0.0955335 0.00104935 0)
(-0.105676 0.000962645 0)
(-0.114987 0.000881699 0)
(-0.124383 0.000797682 0)
(-0.13586 -0.00226525 0)
(-0.128766 -0.00254452 0)
(-0.119764 -0.00281421 0)
(-0.109825 -0.00308733 0)
(-0.0989221 -0.00339424 0)
(-0.0870452 -0.00367184 0)
(-0.074191 -0.0039886 0)
(-0.0603699 -0.00425682 0)
(-0.04561 -0.00450855 0)
(-0.0299532 -0.00480823 0)
(-0.0134562 -0.00501954 0)
(0.00377752 -0.00518987 0)
(0.0216411 -0.00541888 0)
(0.0400133 -0.00550866 0)
(0.0587235 -0.00564811 0)
(0.0775861 -0.00562462 0)
(0.0963811 -0.00552939 0)
(0.114876 -0.00547073 0)
(0.132826 -0.00523298 0)
(0.149965 -0.004919 0)
(0.166031 -0.0046121 0)
(0.180767 -0.00415406 0)
(0.193918 -0.00363233 0)
(0.205251 -0.00308311 0)
(0.21456 -0.00244538 0)
(0.221672 -0.00177398 0)
(0.226451 -0.00105792 0)
(0.228799 -0.000323498 0)
(0.228718 0.000394504 0)
(0.226132 0.00113776 0)
(0.221067 0.00187222 0)
(0.213706 0.00251908 0)
(0.20416 0.00316552 0)
(0.1926 0.00368634 0)
(0.179253 0.0042067 0)
(0.164337 0.0046727 0)
(0.148105 0.00495837 0)
(0.130835 0.00525881 0)
(0.112752 0.00548796 0)
(0.094126 0.00554077 0)
(0.0752206 0.00560879 0)
(0.0562071 0.00553229 0)
(0.037324 0.00547458 0)
(0.0187628 0.00536569 0)
(0.00132572 0.00515015 0)
(-0.0152045 0.00495897 0)
(-0.0313813 0.00472955 0)
(-0.0467375 0.00444273 0)
(-0.0612066 0.00417803 0)
(-0.0747362 0.00389658 0)
(-0.0872953 0.0035911 0)
(-0.0988799 0.00330424 0)
(-0.109495 0.00300673 0)
(-0.119155 0.00272629 0)
(-0.12787 0.002448 0)
(-0.13567 0.00217479 0)
(-0.142599 0.00191484 0)
(-0.148659 0.00166131 0)
(-0.153892 0.00141864 0)
(-0.158333 0.00118251 0)
(-0.16201 0.000950184 0)
(-0.164956 0.000742074 0)
(-0.167141 0.000521253 0)
(-0.168557 0.00030299 0)
(-0.169296 0.000108275 0)
(-0.169341 -0.000110049 0)
(-0.168583 -0.000356474 0)
(-0.167097 -0.000560001 0)
(-0.164847 -0.000820946 0)
(-0.161765 -0.00103865 0)
(-0.157957 -0.00126211 0)
(-0.153319 -0.00153773 0)
(-0.147833 -0.00177484 0)
(-0.141611 -0.00202601 0)
(-0.134387 -0.00229282 0)
(-0.126294 -0.00252159 0)
(-0.117437 -0.00281518 0)
(-0.10774 -0.00308124 0)
(-0.0971628 -0.00331359 0)
(-0.0855357 -0.00356072 0)
(-0.0731417 -0.00381411 0)
(-0.0601299 -0.00404887 0)
(-0.0461843 -0.00428652 0)
(-0.0314273 -0.00450759 0)
(-0.0161039 -0.00470894 0)
(0.00018074 -0.00487648 0)
(0.0170795 -0.00506518 0)
(0.0342784 -0.00520277 0)
(0.0518803 -0.00530056 0)
(0.0697096 -0.00533688 0)
(0.0876076 -0.00532118 0)
(0.105324 -0.00524763 0)
(0.122662 -0.00509327 0)
(0.139405 -0.00488539 0)
(0.155328 -0.00458292 0)
(0.170158 -0.00422889 0)
(0.183668 -0.00381118 0)
(0.195654 -0.00331599 0)
(0.205906 -0.00277759 0)
(0.214248 -0.00218147 0)
(0.220533 -0.00155089 0)
(0.224623 -0.000877682 0)
(0.226402 -0.000195086 0)
(0.225903 0.000500779 0)
(0.222924 0.0012244 0)
(0.217636 0.00191501 0)
(0.210059 0.0025803 0)
(0.200294 0.00320941 0)
(0.18851 0.00378489 0)
(0.174882 0.00430186 0)
(0.159648 0.0047603 0)
(0.14304 0.00511918 0)
(0.125317 0.00541076 0)
(0.106782 0.00561597 0)
(0.0876809 0.00573518 0)
(0.0683056 0.00577656 0)
(0.0489345 0.00574616 0)
(0.0297884 0.00564056 0)
(0.0110829 0.00548604 0)
(-0.00698874 0.00527577 0)
(-0.0242966 0.00503011 0)
(-0.040713 0.00474252 0)
(-0.0561348 0.00443979 0)
(-0.0704919 0.00411549 0)
(-0.0837714 0.00379148 0)
(-0.0959592 0.00345848 0)
(-0.10705 0.00313243 0)
(-0.117059 0.00282733 0)
(-0.126008 0.00250205 0)
(-0.133924 0.00220769 0)
(-0.140826 0.0019056 0)
(-0.146757 0.00163009 0)
(-0.151774 0.00136013 0)
(-0.155909 0.00110528 0)
(-0.159222 0.000864564 0)
(-0.161753 0.000627577 0)
(-0.163524 0.000438224 0)
(-0.164602 0.000226157 0)
(-0.165088 5.47087e-05 0)
(-0.164966 -0.00011899 0)
(-0.164268 -0.000290735 0)
(-0.163062 -0.000465998 0)
(-0.161272 -0.000605994 0)
(-0.158936 -0.000761232 0)
(-0.156073 -0.000925647 0)
(-0.152687 -0.00108581 0)
(-0.148774 -0.00124542 0)
(-0.144318 -0.00142435 0)
(-0.139233 -0.00159083 0)
(-0.1335 -0.0017943 0)
(-0.127177 -0.00200346 0)
(-0.1201 -0.0021933 0)
(-0.112286 -0.00243337 0)
(-0.103766 -0.00266831 0)
(-0.0944183 -0.00289311 0)
(-0.0842042 -0.00315869 0)
(-0.0731599 -0.00340868 0)
(-0.0612434 -0.00367256 0)
(-0.048476 -0.00394123 0)
(-0.0348541 -0.00416007 0)
(-0.0204122 -0.00440719 0)
(-0.00522477 -0.00460763 0)
(0.010625 -0.00479209 0)
(0.0269859 -0.00493672 0)
(0.0437496 -0.00503224 0)
(0.0607646 -0.0050798 0)
(0.0778345 -0.0050732 0)
(0.0947541 -0.0049963 0)
(0.111343 -0.00485993 0)
(0.127364 -0.00465689 0)
(0.14255 -0.00437857 0)
(0.156687 -0.00401821 0)
(0.1695 -0.00357937 0)
(0.180673 -0.00306659 0)
(0.190001 -0.00247579 0)
(0.19725 -0.00182981 0)
(0.202238 -0.0011321 0)
(0.204829 -0.000412233 0)
(0.204975 0.000312554 0)
(0.202629 0.00105949 0)
(0.197845 0.00177799 0)
(0.19074 0.00244932 0)
(0.181428 0.00308361 0)
(0.170025 0.00367562 0)
(0.156812 0.00417359 0)
(0.142019 0.0046105 0)
(0.125885 0.00496189 0)
(0.10875 0.00522214 0)
(0.0908752 0.00539418 0)
(0.0725959 0.00548061 0)
(0.0541983 0.00547256 0)
(0.0359118 0.0054033 0)
(0.0180171 0.00525425 0)
(0.000673215 0.00507351 0)
(-0.0160291 0.00485943 0)
(-0.0319972 0.00462313 0)
(-0.047158 0.00439907 0)
(-0.0614719 0.00414103 0)
(-0.0749581 0.00387073 0)
(-0.087538 0.0035979 0)
(-0.0991454 0.00331651 0)
(-0.109795 0.00301995 0)
(-0.119447 0.00274089 0)
(-0.128117 0.00243666 0)
(-0.135844 0.0021635 0)
(-0.142656 0.00189831 0)
(-0.14864 0.00166822 0)
(-0.153863 0.00143767 0)
(-0.158353 0.00123365 0)
(-0.162164 0.00101802 0)
(-0.165338 0.000860877 0)
(-0.167907 0.000667249 0)
(-0.169858 0.000507426 0)
(-0.171222 0.000323484 0)
(-0.172019 0.000161617 0)
(-0.172283 -1.1882e-06 0)
(-0.171979 -0.000190223 0)
(-0.171092 -0.000365155 0)
(-0.169591 -0.000514965 0)
(-0.167505 -0.000694147 0)
(-0.164873 -0.000876462 0)
(-0.161622 -0.00104262 0)
(-0.157788 -0.00124107 0)
(-0.153346 -0.00141662 0)
(-0.148264 -0.00159401 0)
(-0.142542 -0.00180643 0)
(-0.136137 -0.002008 0)
(-0.129001 -0.00222842 0)
(-0.121174 -0.00245856 0)
(-0.112563 -0.00266217 0)
(-0.103132 -0.00292225 0)
(-0.0929552 -0.00316336 0)
(-0.0819269 -0.00338726 0)
(-0.0700587 -0.00364301 0)
(-0.0574131 -0.00388133 0)
(-0.0439603 -0.00410354 0)
(-0.0298137 -0.00431341 0)
(-0.0149864 -0.00451383 0)
(0.000521969 -0.00468301 0)
(0.0165287 -0.00482329 0)
(0.0328936 -0.00492111 0)
(0.0495192 -0.00495307 0)
(0.0662034 -0.00495971 0)
(0.0827533 -0.00488337 0)
(0.098952 -0.00473885 0)
(0.114549 -0.00452847 0)
(0.129285 -0.0042407 0)
(0.142924 -0.00386404 0)
(0.155194 -0.00342944 0)
(0.165867 -0.00290621 0)
(0.1747 -0.00232285 0)
(0.181446 -0.00168381 0)
(0.185968 -0.00100049 0)
(0.188102 -0.000281825 0)
(0.187839 0.000433912 0)
(0.185049 0.00117911 0)
(0.179829 0.00190588 0)
(0.17231 0.00258004 0)
(0.16256 0.00321219 0)
(0.15078 0.00377585 0)
(0.137234 0.00427059 0)
(0.122169 0.00468446 0)
(0.105894 0.0049977 0)
(0.0887341 0.005221 0)
(0.0709321 0.00534701 0)
(0.0528522 0.00541202 0)
(0.0347216 0.00537206 0)
(0.0168411 0.00526747 0)
(-0.000445503 0.0051272 0)
(-0.0171421 0.00490664 0)
(-0.0331083 0.00464928 0)
(-0.0481661 0.00436812 0)
(-0.0622788 0.00407777 0)
(-0.0753139 0.00375734 0)
(-0.087282 0.00344324 0)
(-0.098174 0.00309904 0)
(-0.107939 0.00276797 0)
(-0.116561 0.00242737 0)
(-0.12405 0.00210803 0)
(-0.1305 0.00178313 0)
(-0.135942 0.00150367 0)
(-0.140444 0.00122468 0)
(-0.144179 0.00101568 0)
(-0.147199 0.000805842 0)
(-0.149609 0.000614521 0)
(-0.151618 0.000483894 0)
(-0.153192 0.000337839 0)
(-0.154307 0.000207628 0)
(-0.155013 0.000113895 0)
(-0.155283 -1.68139e-05 0)
(-0.155179 -0.000115931 0)
(-0.15473 -0.000196589 0)
(-0.153847 -0.00031907 0)
(-0.152628 -0.00040718 0)
(-0.151104 -0.00050785 0)
(-0.149156 -0.000640973 0)
(-0.146785 -0.000750758 0)
(-0.144002 -0.000885171 0)
(-0.140696 -0.00106027 0)
(-0.136848 -0.00122689 0)
(-0.13234 -0.00144005 0)
(-0.127116 -0.00164138 0)
(-0.121183 -0.00188214 0)
(-0.114331 -0.00218006 0)
(-0.106485 -0.00245163 0)
(-0.0977087 -0.00275598 0)
(-0.0877828 -0.00312871 0)
(-0.0766565 -0.00344601 0)
(-0.0643362 -0.0038228 0)
(-0.050868 -0.00412814 0)
(-0.0364194 -0.00440553 0)
(-0.0208884 -0.00473282 0)
(-0.00472815 -0.00495758 0)
(0.0119434 -0.00509132 0)
(0.0293571 -0.00527963 0)
(0.0471492 -0.00531113 0)
(0.0650683 -0.00536855 0)
(0.0828856 -0.00526693 0)
(0.100327 -0.00508367 0)
(0.117137 -0.00490684 0)
(0.13308 -0.00458704 0)
(0.147894 -0.00419541 0)
(0.161343 -0.00378553 0)
(0.173219 -0.00327528 0)
(0.183336 -0.00273821 0)
(0.191531 -0.0021373 0)
(0.197683 -0.00151022 0)
(0.201714 -0.000866692 0)
(0.203558 -0.000227324 0)
(0.203283 0.000401175 0)
(0.200836 0.0010229 0)
(0.196336 0.00162162 0)
(0.189944 0.00218424 0)
(0.181785 0.00266422 0)
(0.172032 0.00312844 0)
(0.160863 0.00348997 0)
(0.148473 0.00384419 0)
(0.135046 0.00414923 0)
(0.12077 0.00433291 0)
(0.105831 0.00452878 0)
(0.0903997 0.00467737 0)
(0.0746391 0.00470716 0)
(0.0587054 0.00476288 0)
(0.0427404 0.00470809 0)
(0.026855 0.0046822 0)
(0.0109782 0.00461418 0)
(-0.00432989 0.0044955 0)
(-0.0190044 0.00437013 0)
(-0.0334025 0.00422327 0)
(-0.0472201 0.0040101 0)
(-0.0603953 0.00382586 0)
(-0.0728725 0.0035879 0)
(-0.0846083 0.00337519 0)
(-0.0955651 0.00314816 0)
(-0.105708 0.00288803 0)
(-0.11502 0.00264517 0)
(-0.124417 0.0023931 0)
(-0.13593 -0.00377497 0)
(-0.128838 -0.00424047 0)
(-0.119838 -0.00469001 0)
(-0.1099 -0.00514533 0)
(-0.0989991 -0.00565696 0)
(-0.0871218 -0.00611981 0)
(-0.0742679 -0.00664791 0)
(-0.0604441 -0.00709516 0)
(-0.0456801 -0.00751494 0)
(-0.0300197 -0.00801463 0)
(-0.0135149 -0.00836673 0)
(0.003728 -0.00865177 0)
(0.021601 -0.00903353 0)
(0.0399864 -0.00918337 0)
(0.0587113 -0.00941621 0)
(0.0775909 -0.0093773 0)
(0.0964039 -0.00921877 0)
(0.114919 -0.00912128 0)
(0.132889 -0.00872506 0)
(0.150048 -0.00820171 0)
(0.166137 -0.0076903 0)
(0.180891 -0.00692662 0)
(0.194059 -0.00605672 0)
(0.205411 -0.00514115 0)
(0.214732 -0.00407752 0)
(0.221857 -0.00295812 0)
(0.226642 -0.00176195 0)
(0.229002 -0.000538459 0)
(0.228917 0.000655762 0)
(0.226312 0.00189797 0)
(0.221251 0.0031212 0)
(0.213877 0.00420049 0)
(0.204318 0.00527856 0)
(0.192739 0.00614679 0)
(0.179375 0.00701436 0)
(0.16444 0.00779136 0)
(0.148185 0.00826745 0)
(0.130895 0.00876817 0)
(0.112792 0.00915002 0)
(0.0941453 0.00923772 0)
(0.0752211 0.00935115 0)
(0.0561923 0.00922246 0)
(0.0372941 0.00912638 0)
(0.0187206 0.00894453 0)
(0.00127391 0.0085851 0)
(-0.0152655 0.00826613 0)
(-0.0314494 0.00788348 0)
(-0.0468093 0.00740516 0)
(-0.0612819 0.00696376 0)
(-0.0748137 0.00649454 0)
(-0.0873728 0.00598539 0)
(-0.0989573 0.00550732 0)
(-0.109571 0.00501119 0)
(-0.11923 0.00454367 0)
(-0.127943 0.00408015 0)
(-0.13574 0.00362478 0)
(-0.142666 0.00319145 0)
(-0.148723 0.00276961 0)
(-0.153956 0.0023641 0)
(-0.158395 0.00197148 0)
(-0.162067 0.00158482 0)
(-0.165013 0.00123635 0)
(-0.167197 0.000870528 0)
(-0.168618 0.000504042 0)
(-0.169355 0.000181609 0)
(-0.169399 -0.000184556 0)
(-0.168642 -0.000592643 0)
(-0.167158 -0.000934524 0)
(-0.164908 -0.0013666 0)
(-0.161829 -0.00173234 0)
(-0.158022 -0.00210521 0)
(-0.153386 -0.00256094 0)
(-0.147905 -0.00296193 0)
(-0.14168 -0.00337162 0)
(-0.134454 -0.00382041 0)
(-0.126368 -0.00420618 0)
(-0.117514 -0.00469597 0)
(-0.107815 -0.00513909 0)
(-0.0972267 -0.00551708 0)
(-0.085606 -0.00593333 0)
(-0.0732179 -0.00636156 0)
(-0.0601998 -0.0067543 0)
(-0.046253 -0.00714228 0)
(-0.0314907 -0.00750935 0)
(-0.0161653 -0.00785987 0)
(0.000119707 -0.00813283 0)
(0.0170197 -0.0084435 0)
(0.0342305 -0.00866588 0)
(0.0518406 -0.00883646 0)
(0.0696761 -0.00890102 0)
(0.0875783 -0.00887408 0)
(0.10531 -0.00875284 0)
(0.122663 -0.00849452 0)
(0.139422 -0.00813101 0)
(0.155346 -0.00764635 0)
(0.170183 -0.00705681 0)
(0.183712 -0.00634542 0)
(0.195708 -0.00553186 0)
(0.205972 -0.00462669 0)
(0.214325 -0.00364005 0)
(0.220619 -0.00258349 0)
(0.224712 -0.00146725 0)
(0.226497 -0.000323214 0)
(0.225984 0.000835338 0)
(0.223007 0.00204298 0)
(0.217724 0.00318994 0)
(0.210143 0.00431482 0)
(0.200363 0.00535111 0)
(0.188562 0.00630939 0)
(0.174915 0.00717276 0)
(0.159663 0.00794203 0)
(0.143029 0.00853656 0)
(0.125288 0.00901834 0)
(0.106728 0.00935758 0)
(0.0876061 0.00956155 0)
(0.0682168 0.0096322 0)
(0.0488271 0.00959728 0)
(0.0296543 0.0094104 0)
(0.0109313 0.0091478 0)
(-0.007159 0.00879299 0)
(-0.0244779 0.00837947 0)
(-0.0408981 0.00790514 0)
(-0.0563271 0.00740011 0)
(-0.0706912 0.00685499 0)
(-0.0839751 0.00632015 0)
(-0.0961638 0.00577117 0)
(-0.107249 0.00522166 0)
(-0.117264 0.00471545 0)
(-0.126203 0.00416076 0)
(-0.134121 0.00369535 0)
(-0.141029 0.00317043 0)
(-0.146954 0.00271757 0)
(-0.151968 0.00226952 0)
(-0.156096 0.00183795 0)
(-0.15941 0.00144314 0)
(-0.161937 0.00105231 0)
(-0.163709 0.000725346 0)
(-0.164784 0.000372812 0)
(-0.165254 8.99143e-05 0)
(-0.165136 -0.000195202 0)
(-0.164447 -0.000491449 0)
(-0.163227 -0.000770928 0)
(-0.161443 -0.00100675 0)
(-0.159108 -0.00126679 0)
(-0.156249 -0.00153837 0)
(-0.152853 -0.00180919 0)
(-0.148942 -0.00207746 0)
(-0.144493 -0.00238122 0)
(-0.139408 -0.00264353 0)
(-0.133686 -0.00299358 0)
(-0.127356 -0.00333939 0)
(-0.12029 -0.00365819 0)
(-0.112477 -0.00404875 0)
(-0.103956 -0.00444065 0)
(-0.0946096 -0.00481955 0)
(-0.0844036 -0.00526552 0)
(-0.0733615 -0.00568443 0)
(-0.0614433 -0.00612864 0)
(-0.0486616 -0.00656291 0)
(-0.0350335 -0.00693708 0)
(-0.0205914 -0.00735289 0)
(-0.00539282 -0.00768733 0)
(0.0104689 -0.00798366 0)
(0.0268459 -0.00822099 0)
(0.0436134 -0.00839139 0)
(0.0606421 -0.00847712 0)
(0.0777349 -0.00844921 0)
(0.0946731 -0.00832531 0)
(0.111278 -0.00810689 0)
(0.127313 -0.00776729 0)
(0.142523 -0.00730557 0)
(0.15669 -0.00669177 0)
(0.169514 -0.00596785 0)
(0.18071 -0.00511973 0)
(0.190063 -0.00412768 0)
(0.197324 -0.00304967 0)
(0.20232 -0.00189857 0)
(0.204924 -0.000682088 0)
(0.205061 0.000524236 0)
(0.202703 0.00176713 0)
(0.197925 0.00296194 0)
(0.190815 0.00409131 0)
(0.181492 0.00514284 0)
(0.170072 0.00612643 0)
(0.156841 0.00696435 0)
(0.142024 0.00768877 0)
(0.125862 0.00827029 0)
(0.108703 0.00870564 0)
(0.0908074 0.00899647 0)
(0.0725006 0.00913661 0)
(0.0540837 0.0091252 0)
(0.0357865 0.0090104 0)
(0.0178735 0.00876819 0)
(0.000510419 0.00845851 0)
(-0.0162012 0.00810229 0)
(-0.0321715 0.00771079 0)
(-0.0473344 0.00733055 0)
(-0.0616525 0.00690768 0)
(-0.0751428 0.00644747 0)
(-0.0877207 0.00599753 0)
(-0.0993365 0.00553831 0)
(-0.10999 0.00503184 0)
(-0.119646 0.00456324 0)
(-0.12831 0.00406124 0)
(-0.136033 0.00360918 0)
(-0.142847 0.00316572 0)
(-0.148826 0.0027763 0)
(-0.154034 0.00239961 0)
(-0.158526 0.00205649 0)
(-0.162331 0.00170901 0)
(-0.165516 0.00143029 0)
(-0.168087 0.00110862 0)
(-0.170039 0.000848172 0)
(-0.171398 0.000535952 0)
(-0.172187 0.000268516 0)
(-0.17245 -9.99271e-06 0)
(-0.172141 -0.000308453 0)
(-0.171255 -0.00060308 0)
(-0.169758 -0.000861468 0)
(-0.167683 -0.00116164 0)
(-0.16504 -0.00145728 0)
(-0.161796 -0.00174891 0)
(-0.157954 -0.00205474 0)
(-0.153518 -0.00236437 0)
(-0.148438 -0.00266116 0)
(-0.142718 -0.00300364 0)
(-0.136322 -0.00335602 0)
(-0.129183 -0.00369971 0)
(-0.12136 -0.00409395 0)
(-0.112746 -0.00444988 0)
(-0.103317 -0.00486579 0)
(-0.0931442 -0.00528222 0)
(-0.0821108 -0.00563919 0)
(-0.0702444 -0.00606999 0)
(-0.0575922 -0.00646861 0)
(-0.044129 -0.00684735 0)
(-0.0299734 -0.00719062 0)
(-0.0151414 -0.00752832 0)
(0.000369964 -0.00781123 0)
(0.0163891 -0.00803481 0)
(0.0327703 -0.0082007 0)
(0.0494077 -0.00826546 0)
(0.0661059 -0.00826091 0)
(0.0826758 -0.00814642 0)
(0.0988908 -0.00790807 0)
(0.114511 -0.00754497 0)
(0.12927 -0.00706629 0)
(0.14292 -0.00644757 0)
(0.155212 -0.0057199 0)
(0.165913 -0.00483877 0)
(0.174754 -0.00388591 0)
(0.181524 -0.00281097 0)
(0.186063 -0.00166157 0)
(0.188205 -0.000465751 0)
(0.187923 0.00071913 0)
(0.185131 0.00197055 0)
(0.179916 0.00318942 0)
(0.172372 0.00429682 0)
(0.162605 0.00535346 0)
(0.150815 0.00629748 0)
(0.137252 0.00713101 0)
(0.122164 0.00780874 0)
(0.105868 0.00833241 0)
(0.0886823 0.00870231 0)
(0.0708678 0.00891795 0)
(0.0527809 0.009027 0)
(0.034631 0.00894896 0)
(0.0167424 0.00878717 0)
(-0.000551877 0.00854131 0)
(-0.0172504 0.00817666 0)
(-0.0332145 0.00775464 0)
(-0.0482752 0.00728036 0)
(-0.0623824 0.00679483 0)
(-0.0754135 0.00626835 0)
(-0.0873903 0.00573602 0)
(-0.098275 0.00516196 0)
(-0.108035 0.00461712 0)
(-0.116657 0.00405012 0)
(-0.12415 0.00351233 0)
(-0.13059 0.00297121 0)
(-0.136026 0.00250709 0)
(-0.140517 0.00204047 0)
(-0.144243 0.001693 0)
(-0.14726 0.00133786 0)
(-0.149658 0.00102319 0)
(-0.15166 0.000805162 0)
(-0.153231 0.000563047 0)
(-0.154342 0.000343729 0)
(-0.155045 0.000190221 0)
(-0.155314 -2.74712e-05 0)
(-0.155206 -0.000192972 0)
(-0.154756 -0.000327037 0)
(-0.153875 -0.000533488 0)
(-0.152656 -0.000676246 0)
(-0.151133 -0.00084568 0)
(-0.149188 -0.00106631 0)
(-0.14682 -0.00124852 0)
(-0.144041 -0.00147363 0)
(-0.140741 -0.00176864 0)
(-0.136898 -0.00204215 0)
(-0.132395 -0.00239829 0)
(-0.127178 -0.00273534 0)
(-0.121253 -0.00313631 0)
(-0.114406 -0.00363203 0)
(-0.106567 -0.00408517 0)
(-0.0977961 -0.00459315 0)
(-0.0878737 -0.00521394 0)
(-0.0767464 -0.00574322 0)
(-0.0644252 -0.00637162 0)
(-0.0509536 -0.00688234 0)
(-0.0364971 -0.00734335 0)
(-0.0209593 -0.00788725 0)
(-0.00478556 -0.00826605 0)
(0.0119026 -0.00848798 0)
(0.0293309 -0.00880232 0)
(0.0471394 -0.00885495 0)
(0.0650781 -0.00895086 0)
(0.0829147 -0.00878138 0)
(0.100374 -0.00847612 0)
(0.117206 -0.0081814 0)
(0.133168 -0.00764826 0)
(0.148 -0.00699533 0)
(0.161467 -0.0063121 0)
(0.173357 -0.00546099 0)
(0.183489 -0.00456576 0)
(0.191692 -0.00356419 0)
(0.197851 -0.00251796 0)
(0.201883 -0.00144783 0)
(0.203736 -0.00037331 0)
(0.203451 0.000667343 0)
(0.200988 0.00170675 0)
(0.196487 0.0027042 0)
(0.190085 0.00364243 0)
(0.18191 0.00444262 0)
(0.172144 0.00521651 0)
(0.160958 0.00581901 0)
(0.148554 0.0064094 0)
(0.135113 0.00691787 0)
(0.120821 0.00722385 0)
(0.10587 0.00755016 0)
(0.0904257 0.00779774 0)
(0.0746527 0.00784721 0)
(0.0587076 0.00793998 0)
(0.0427321 0.00784852 0)
(0.0268361 0.00780549 0)
(0.010955 0.00769296 0)
(-0.00435992 0.00749226 0)
(-0.0190457 0.00728434 0)
(-0.0334491 0.00703962 0)
(-0.0472706 0.00668424 0)
(-0.0604504 0.00637706 0)
(-0.0729304 0.00598036 0)
(-0.0846696 0.00562575 0)
(-0.0956292 0.00524728 0)
(-0.105773 0.00481365 0)
(-0.115087 0.00440882 0)
(-0.124486 0.00398864 0)
(-0.136035 -0.00528409 0)
(-0.128947 -0.00593587 0)
(-0.119949 -0.00656528 0)
(-0.110013 -0.00720305 0)
(-0.0991147 -0.00791955 0)
(-0.0872368 -0.00856787 0)
(-0.0743832 -0.00930757 0)
(-0.0605555 -0.00993417 0)
(-0.0457853 -0.0105224 0)
(-0.0301194 -0.0112224 0)
(-0.0136031 -0.0117144 0)
(0.00365348 -0.0121175 0)
(0.0215406 -0.0126512 0)
(0.039946 -0.0128615 0)
(0.0586929 -0.0131883 0)
(0.077598 -0.0131343 0)
(0.096438 -0.0129128 0)
(0.114985 -0.0127769 0)
(0.132984 -0.0122223 0)
(0.150172 -0.0114895 0)
(0.166296 -0.0107737 0)
(0.181077 -0.00970396 0)
(0.194271 -0.00848537 0)
(0.205651 -0.00720295 0)
(0.214992 -0.00571317 0)
(0.222136 -0.00414524 0)
(0.226931 -0.00247262 0)
(0.229308 -0.000764971 0)
(0.229206 0.000937211 0)
(0.226587 0.00266185 0)
(0.221528 0.00437174 0)
(0.214134 0.00588496 0)
(0.204556 0.00739558 0)
(0.192948 0.00861157 0)
(0.179558 0.00982677 0)
(0.164594 0.0109153 0)
(0.148306 0.0115818 0)
(0.130985 0.0122827 0)
(0.112851 0.0128172 0)
(0.0941741 0.0129393 0)
(0.0752217 0.0130982 0)
(0.0561698 0.0129156 0)
(0.037249 0.0127813 0)
(0.0186571 0.0125257 0)
(0.00119602 0.0120227 0)
(-0.0153573 0.0115752 0)
(-0.0315517 0.0110389 0)
(-0.0469172 0.0103688 0)
(-0.0613952 0.00975012 0)
(-0.0749303 0.0090927 0)
(-0.0874895 0.00838012 0)
(-0.0990737 0.0077104 0)
(-0.109685 0.0070154 0)
(-0.119343 0.00636078 0)
(-0.128052 0.0057119 0)
(-0.135846 0.00507434 0)
(-0.142768 0.00446892 0)
(-0.14882 0.00387726 0)
(-0.154049 0.00331001 0)
(-0.158487 0.00276062 0)
(-0.162154 0.00221822 0)
(-0.165097 0.00173268 0)
(-0.167283 0.00122 0)
(-0.168705 0.000704767 0)
(-0.169449 0.000249801 0)
(-0.169486 -0.000259438 0)
(-0.168732 -0.000830837 0)
(-0.16725 -0.00130733 0)
(-0.165004 -0.00191436 0)
(-0.161925 -0.00242495 0)
(-0.158119 -0.00294586 0)
(-0.153492 -0.00358824 0)
(-0.148012 -0.0041463 0)
(-0.141789 -0.00472273 0)