/*--------------------------------*- C++ -*----------------------------------*\
| =========                 |                                                 |
| \\      /  F ield         | OpenFOAM: The Open Source CFD Toolbox           |
|  \\    /   O peration     | Version:  3.0.1                                 |
|   \\  /    A nd           | Web:      www.OpenFOAM.org                      |
|    \\/     M anipulation  |                                                 |
\*---------------------------------------------------------------------------*/
FoamFile
{
    version     2.0;
    format      ascii;
    class       volScalarField;
    location    "81";
    object      p_rgh;
}
// * * * * * * * * * * * * * * * * * * * * * * * * * * * * * * * * * * * * * //

dimensions      [1 -1 -2 0 0 0 0];

internalField   nonuniform List<scalar> 
21420
(
171.821
203.943
235.426
265.731
294.398
320.823
344.58
365.231
382.442
395.958
405.557
411.086
412.318
409.25
401.986
390.71
375.532
356.714
334.528
309.301
281.436
251.311
219.33
185.966
151.643
116.815
81.8402
47.199
15.0052
-17.9057
-49.8103
-80.4206
-109.539
-137.021
-162.774
-186.725
-208.844
-229.121
-247.558
-264.182
-279.026
-292.127
-303.529
-313.272
-321.397
-327.94
-332.931
-336.401
-338.33
-338.702
-337.526
-334.832
-330.584
-324.742
-317.289
-308.207
-297.451
-284.978
-270.771
-254.798
-237.048
-217.529
-196.237
-173.213
-148.524
-122.238
-94.4623
-65.3323
-34.988
-3.61349
28.6399
61.8663
95.0413
128.105
160.79
192.785
223.762
253.383
281.288
307.144
330.599
351.32
369.01
383.403
394.241
401.319
404.518
403.694
398.959
390.249
377.668
361.382
341.594
318.557
292.569
263.967
233.128
200.461
166.395
131.376
95.8537
60.2739
25.0634
-9.38188
-42.7086
-74.6129
-104.848
-133.225
-159.611
-183.926
-206.133
-226.233
-244.257
-260.253
-274.284
-286.424
-296.753
-305.342
-312.264
-317.593
-321.397
-323.747
-324.678
-324.222
-322.482
-319.45
-315.152
-309.603
-302.794
-294.721
-285.363
-274.685
-262.652
-249.225
-234.35
-217.981
-200.075
-180.589
-159.498
-136.797
-112.503
-86.6606
-59.348
-30.6776
-0.802637
30.0965
61.9064
94.0993
126.486
158.732
190.467
221.299
250.825
278.635
304.327
327.508
347.81
364.896
378.469
388.279
394.142
395.867
393.515
387.016
376.477
362.036
343.928
322.436
297.907
270.73
241.324
210.132
177.605
144.194
110.334
76.4395
42.8946
10.0364
-21.8317
-52.453
-81.6199
-109.174
-135.002
-159.03
-181.222
-201.567
-220.085
-236.808
-251.786
-265.074
-276.732
-286.811
-295.364
-302.451
-308.124
-312.431
-315.438
-317.157
-317.6
-316.853
-314.891
-311.711
-307.3
-301.639
-294.695
-286.436
-276.828
-265.837
-253.435
-239.601
-224.305
-207.533
-189.271
-169.509
-148.248
-125.507
-101.319
-75.7429
-48.8654
-20.8019
8.29841
38.255
68.8776
99.8547
130.928
161.78
192.065
221.404
249.404
275.658
299.765
321.329
339.985
355.399
367.282
375.398
379.586
379.654
375.704
367.709
355.741
340.005
320.746
298.27
272.938
245.158
215.368
184.023
151.583
118.499
85.2017
52.1002
19.5296
-12.1853
-42.7749
-72.0168
-99.7339
-125.789
-150.086
-172.565
-193.197
-211.978
-228.933
-244.101
-257.534
-269.3
-279.467
-288.108
-295.292
-301.08
-305.548
-308.78
-310.78
-311.583
-311.305
-309.918
-307.467
-303.974
-299.43
-293.847
-287.21
-279.499
-270.701
-260.79
-249.741
-237.494
-223.966
-209.103
-192.84
-175.098
-155.834
-134.989
-112.528
-88.4546
-62.8073
-35.6685
-7.2805
21.6101
51.8108
82.752
114.035
145.196
175.757
205.297
233.34
259.416
283.12
304.052
321.864
336.254
346.981
353.887
356.841
355.766
350.7
341.819
329.274
313.351
294.37
272.696
248.704
222.775
195.33
166.762
137.449
107.737
77.9333
48.3169
19.079
-9.53
-32.5294
-59.1898
-84.7631
-109.15
-132.316
-154.24
-174.91
-194.313
-212.441
-229.289
-244.84
-259.08
-271.994
-283.561
-293.76
-302.567
-309.959
-315.916
-320.419
-323.48
-325.066
-325.121
-323.585
-320.466
-315.783
-309.515
-301.66
171.812
203.952
235.455
265.781
294.468
320.914
344.689
365.356
382.581
396.108
405.715
411.248
412.492
409.409
402.143
390.858
375.667
356.833
334.631
309.386
281.502
251.358
219.358
185.976
151.636
116.792
81.8042
47.1523
14.9415
-17.9762
-49.8866
-80.501
-109.622
-137.106
-162.859
-186.809
-208.927
-229.201
-247.637
-264.258
-279.099
-292.197
-303.596
-313.337
-321.461
-328.002
-332.992
-336.461
-338.389
-338.76
-337.588
-334.893
-330.646
-324.806
-317.354
-308.275
-297.52
-285.05
-270.845
-254.874
-237.126
-217.608
-196.316
-173.291
-148.601
-122.314
-94.5345
-65.4006
-35.0508
-3.66984
28.5909
61.8298
95.0161
128.091
160.79
192.798
223.79
253.426
281.347
307.218
330.689
351.424
369.128
383.532
394.379
401.464
404.667
403.85
399.1
390.389
377.799
361.502
341.701
318.648
292.643
264.022
233.164
200.478
166.393
131.355
95.8154
60.2196
24.9949
-9.46239
-42.7988
-74.7102
-104.95
-133.33
-159.717
-184.031
-206.236
-226.332
-244.352
-260.345
-274.372
-286.508
-296.832
-305.418
-312.338
-317.663
-321.465
-323.813
-324.739
-324.284
-322.543
-319.51
-315.212
-309.662
-302.854
-294.783
-285.427
-274.751
-262.72
-249.295
-234.423
-218.057
-200.154
-180.67
-159.581
-136.881
-112.587
-86.7431
-59.4278
-30.7533
-0.873047
30.0321
61.8546
94.0571
126.457
158.717
190.468
221.317
250.861
278.689
304.399
327.598
347.916
365.017
378.602
388.421
394.291
396.025
393.662
387.161
376.614
362.162
344.039
322.531
297.983
270.787
241.361
210.149
177.603
144.175
110.299
76.3901
42.8332
9.96472
-21.9116
-52.5389
-81.7098
-109.266
-135.095
-159.123
-181.313
-201.656
-220.17
-236.891
-251.865
-265.15
-276.805
-286.881
-295.432
-302.516
-308.186
-312.492
-315.497
-317.212
-317.656
-316.909
-314.947
-311.767
-307.358
-301.698
-294.756
-286.498
-276.892
-265.902
-253.503
-239.67
-224.376
-207.605
-189.345
-169.584
-148.324
-125.583
-101.394
-75.8161
-48.9358
-20.8679
8.23802
38.2019
68.8337
99.8213
130.907
161.773
192.073
221.429
249.446
275.719
299.843
321.425
340.096
355.523
367.418
375.543
379.736
379.81
375.851
367.851
355.874
340.127
320.852
298.358
273.007
245.207
215.396
184.032
151.573
118.472
85.1591
52.045
19.4633
-12.2604
-42.8567
-72.1033
-99.8234
-125.88
-150.177
-172.655
-193.285
-212.064
-229.015
-244.18
-257.609
-269.371
-279.534
-288.171
-295.352
-301.137
-305.603
-308.831
-310.827
-311.631
-311.351
-309.963
-307.511
-304.017
-299.474
-293.891
-287.256
-279.546
-270.75
-260.841
-249.794
-237.549
-224.025
-209.166
-192.906
-175.168
-155.907
-135.065
-112.606
-88.5317
-62.8822
-35.7393
-7.34561
21.5489
51.7616
82.7166
114.016
145.194
175.774
205.334
233.397
259.492
283.215
304.164
321.991
336.393
347.129
354.04
357.002
355.917
350.845
341.956
329.399
313.462
294.465
272.774
248.764
222.817
195.356
166.772
137.445
107.721
77.9076
48.2842
19.0413
-9.57355
-32.5886
-59.2522
-84.8249
-109.211
-132.376
-154.299
-174.968
-194.371
-212.498
-229.345
-244.896
-259.136
-272.05
-283.617
-293.816
-302.624
-310.016
-315.974
-320.478
-323.539
-325.122
-325.18
-323.644
-320.525
-315.842
-309.574
-301.72
171.794
203.97
235.513
265.88
294.609
321.094
344.906
365.606
382.859
396.408
406.031
411.572
412.84
409.729
402.458
391.152
375.937
357.073
334.838
309.557
281.635
251.452
219.414
185.995
151.621
116.746
81.7322
47.0588
14.8145
-18.1171
-50.0391
-80.6621
-109.788
-137.275
-163.028
-186.977
-209.092
-229.363
-247.793
-264.409
-279.245
-292.338
-303.732
-313.469
-321.588
-328.126
-333.114
-336.579
-338.509
-338.876
-337.711
-335.015
-330.77
-324.933
-317.484
-308.409
-297.659
-285.193
-270.992
-255.025
-237.28
-217.764
-196.472
-173.447
-148.754
-122.463
-94.6773
-65.5353
-35.1746
-3.78048
28.495
61.7591
94.9683
128.066
160.791
192.827
223.849
253.516
281.469
307.373
330.875
351.641
369.372
383.8
394.667
401.765
404.976
404.174
399.4
390.683
378.078
361.758
341.93
318.847
292.807
264.149
233.254
200.529
166.406
131.331
95.7568
60.129
24.8761
-9.6051
-42.9607
-74.8864
-105.136
-133.521
-159.909
-184.221
-206.422
-226.513
-244.525
-260.509
-274.529
-286.657
-296.974
-305.553
-312.466
-317.786
-321.583
-323.926
-324.843
-324.39
-322.645
-319.611
-315.313
-309.763
-302.957
-294.888
-285.534
-274.863
-262.837
-249.417
-234.551
-218.191
-200.292
-180.813
-159.728
-137.03
-112.735
-86.8896
-59.5686
-30.8862
-0.994993
29.9222
61.7696
93.9915
126.417
158.706
190.489
221.372
250.952
278.817
304.563
327.797
348.148
365.278
378.887
388.726
394.607
396.36
393.974
387.471
376.908
362.433
344.281
322.738
298.154
270.919
241.453
210.202
177.619
144.155
110.247
76.3093
42.7286
9.83933
-22.0533
-52.6928
-81.8719
-109.433
-135.264
-159.291
-181.477
-201.817
-220.325
-237.039
-252.007
-265.286
-276.934
-287.005
-295.55
-302.63
-308.296
-312.598
-315.598
-317.307
-317.754
-317.005
-315.043
-311.865
-307.458
-301.8
-294.862
-286.608
-277.005
-266.019
-253.624
-239.794
-224.503
-207.736
-189.478
-169.72
-148.461
-125.72
-101.529
-75.9482
-49.0618
-20.9854
8.13172
38.1106
68.7608
99.7694
130.879
161.774
192.105
221.494
249.546
275.855
300.015
321.631
340.334
355.789
367.706
375.849
380.049
380.139
376.161
368.152
356.158
340.385
321.079
298.549
273.16
245.32
215.469
184.065
151.569
118.434
85.0899
51.9505
19.3465
-12.3949
-43.0046
-72.2608
-99.9871
-126.047
-150.344
-172.821
-193.447
-212.221
-229.167
-244.325
-257.747
-269.502
-279.658
-288.289
-295.463
-301.243
-305.703
-308.927
-310.916
-311.721
-311.437
-310.047
-307.595
-304.101
-299.559
-293.977
-287.344
-279.637
-270.843
-260.939
-249.897
-237.658
-224.141
-209.289
-193.037
-175.306
-156.052
-135.216
-112.759
-88.6846
-63.0306
-35.8798
-7.47506
21.4274
51.6642
82.6467
113.978
145.191
175.809
205.407
233.511
259.644
283.405
304.388
322.244
336.671
347.425
354.345
357.319
356.225
351.138
342.23
329.651
313.685
294.655
272.93
248.884
222.902
195.407
166.792
137.436
107.689
77.856
48.2187
18.9662
-9.6606
-32.7073
-59.3772
-84.9484
-109.332
-132.496
-154.417
-175.085
-194.486
-212.611
-229.457
-245.008
-259.247
-272.161
-283.728
-293.929
-302.737
-310.13
-316.089
-320.594
-323.656
-325.235
-325.298
-323.761
-320.642
-315.96
-309.693
-301.839
171.766
203.996
235.599
266.029
294.821
321.365
345.231
365.981
383.277
396.859
406.505
412.057
413.355
410.215
402.932
391.594
376.342
357.434
335.148
309.813
281.833
251.593
219.497
186.024
151.599
116.677
81.6237
46.9181
14.6239
-18.3286
-50.2681
-80.9038
-110.038
-137.529
-163.283
-187.23
-209.34
-229.605
-248.028
-264.636
-279.464
-292.549
-303.936
-313.666
-321.779
-328.313
-333.296
-336.757
-338.687
-339.056
-337.897
-335.199
-330.955
-325.123
-317.68
-308.611
-297.867
-285.408
-271.213
-255.251
-237.51
-217.997
-196.707
-173.681
-148.984
-122.686
-94.8917
-65.7376
-35.3604
-3.94672
28.3509
61.6528
94.8963
128.028
160.793
192.87
223.938
253.651
281.653
307.605
331.156
351.967
369.739
384.204
395.099
402.219
405.442
404.657
399.858
391.128
378.499
362.147
342.278
319.147
293.056
264.344
233.391
200.608
166.428
131.298
95.6719
59.996
24.7008
-9.81634
-43.2008
-75.148
-105.411
-133.804
-160.194
-184.504
-206.698
-226.78
-244.782
-260.754
-274.762
-286.879
-297.184
-305.752
-312.655
-317.967
-321.756
-324.092
-324.998
-324.546
-322.796
-319.76
-315.461
-309.912
-303.108
-295.043
-285.693
-275.028
-263.011
-249.598
-234.739
-218.389
-200.498
-181.025
-159.946
-137.251
-112.956
-87.1063
-59.7772
-31.0827
-1.17475
29.7604
61.6452
93.8962
126.36
158.694
190.524
221.459
251.091
279.011
304.812
328.099
348.5
365.674
379.32
389.187
395.086
396.861
394.453
387.942
377.353
362.844
344.647
323.054
298.414
271.12
241.594
210.284
177.645
144.128
110.172
76.1909
42.5746
9.65401
-22.2632
-52.921
-82.1126
-109.681
-135.514
-159.539
-181.722
-202.055
-220.555
-237.26
-252.218
-265.488
-277.127
-287.188
-295.726
-302.798
-308.457
-312.754
-315.748
-317.449
-317.899
-317.148
-315.186
-312.009
-307.606
-301.952
-295.019
-286.771
-277.173
-266.193
-253.803
-239.977
-224.692
-207.93
-189.676
-169.921
-148.665
-125.923
-101.731
-76.144
-49.2486
-21.1594
7.97453
37.9758
68.6539
99.694
130.841
161.778
192.156
221.595
249.7
276.062
300.275
321.943
340.693
356.19
368.142
376.31
380.523
380.631
376.634
368.608
356.587
340.776
321.423
298.841
273.394
245.493
215.581
184.118
151.566
118.379
84.9889
51.8115
19.1739
-12.5941
-43.224
-72.4946
-100.23
-126.295
-150.593
-173.067
-193.688
-212.455
-229.392
-244.54
-257.953
-269.697
-279.843
-288.464
-295.629
-301.4
-305.854
-309.07
-311.049
-311.855
-311.565
-310.173
-307.72
-304.227
-299.685
-294.105
-287.476
-279.773
-270.984
-261.086
-250.051
-237.822
-224.315
-209.474
-193.233
-175.514
-156.27
-135.441
-112.989
-88.9143
-63.2536
-36.0907
-7.66984
21.2445
51.5175
82.5416
113.92
145.186
175.86
205.518
233.682
259.873
283.689
304.724
322.625
337.088
347.868
354.803
357.784
356.694
351.581
342.641
330.029
314.018
294.94
273.163
249.064
223.029
195.483
166.821
137.424
107.64
77.7784
48.1201
18.8536
-9.7897
-32.8872
-59.565
-85.1337
-109.514
-132.676
-154.594
-175.259
-194.658
-212.782
-229.626
-245.175
-259.414
-272.329
-283.896
-294.097
-302.907
-310.301
-316.261
-320.768
-323.83
-325.405
-325.475
-323.938
-320.819
-316.137
-309.871
-302.018
171.728
204.031
235.715
266.227
295.103
321.726
345.666
366.482
383.833
397.461
407.139
412.706
414.027
410.872
403.565
392.184
376.882
357.914
335.561
310.154
282.098
251.781
219.609
186.062
151.569
116.585
81.4784
46.7301
14.3696
-18.611
-50.5738
-81.2265
-110.372
-137.868
-163.623
-187.566
-209.671
-229.927
-248.341
-264.939
-279.756
-292.831
-304.208
-313.929
-322.035
-328.561
-333.539
-336.994
-338.922
-339.299
-338.142
-335.443
-331.202
-325.377
-317.94
-308.88
-298.145
-285.694
-271.508
-255.553
-237.818
-218.309
-197.02
-173.992
-149.291
-122.985
-95.178
-66.0075
-35.6086
-4.1688
28.1588
61.5109
94.8001
127.978
160.795
192.928
224.056
253.832
281.899
307.914
331.53
352.402
370.229
384.742
395.677
402.826
406.064
405.292
400.476
391.723
379.062
362.665
342.742
319.549
293.389
264.603
233.575
200.715
166.459
131.255
95.5591
59.8189
24.4674
-10.098
-43.5209
-75.4967
-105.779
-134.182
-160.575
-184.88
-207.066
-227.136
-245.124
-261.08
-275.072
-287.173
-297.463
-306.017
-312.908
-318.208
-321.986
-324.311
-325.208
-324.753
-322.996
-319.958
-315.659
-310.109
-303.309
-295.249
-285.905
-275.248
-263.241
-249.838
-234.991
-218.652
-200.771
-181.308
-160.236
-137.545
-113.249
-87.3949
-60.0551
-31.3445
-1.41371
29.5443
61.4801
93.7694
126.284
158.677
190.571
221.574
251.279
279.272
305.146
328.503
348.969
366.203
379.898
389.804
395.726
397.52
395.101
388.572
377.949
363.393
345.138
323.477
298.762
271.389
241.784
210.395
177.68
144.093
110.072
76.0333
42.3694
9.40698
-22.543
-53.2252
-82.4333
-110.011
-135.847
-159.871
-182.048
-202.372
-220.861
-237.554
-252.499
-265.756
-277.382
-287.432
-295.96
-303.022
-308.671
-312.961
-315.946
-317.639
-318.091
-317.337
-315.375
-312.202
-307.802
-302.154
-295.228
-286.987
-277.396
-266.424
-254.041
-240.222
-224.943
-208.188
-189.94
-170.189
-148.936
-126.195
-101.999
-76.405
-49.4974
-21.3913
7.76536
37.7955
68.5119
99.5937
130.791
161.784
192.223
221.729
249.905
276.339
300.624
322.36
341.174
356.727
368.724
376.927
381.158
381.281
377.27
369.218
357.161
341.299
321.884
299.23
273.705
245.724
215.732
184.189
151.562
118.307
84.8543
51.6267
18.944
-12.8594
-43.5164
-72.8062
-100.554
-126.625
-150.924
-173.395
-194.009
-212.767
-229.692
-244.828
-258.226
-269.956
-280.09
-288.698
-295.849
-301.61
-306.054
-309.258
-311.229
-312.034
-311.737
-310.342
-307.888
-304.394
-299.853
-294.276
-287.652
-279.955
-271.172
-261.282
-250.256
-238.04
-224.547
-209.721
-193.494
-175.791
-156.56
-135.742
-113.296
-89.2209
-63.5513
-36.3718
-7.93076
21.0003
51.3215
82.401
113.844
145.18
175.928
205.665
233.909
260.179
284.069
305.172
323.132
337.645
348.461
355.416
358.4
357.32
352.174
343.192
330.533
314.464
295.32
273.474
249.304
223.198
195.585
166.86
137.407
107.576
77.6745
47.9882
18.704
-9.95852
-33.1309
-59.8162
-85.3808
-109.758
-132.915
-154.831
-175.492
-194.887
-213.008
-229.851
-245.399
-259.637
-272.552
-284.12
-294.322
-303.133
-310.529
-316.49
-321
-324.061
-325.635
-325.71
-324.173
-321.054
-316.373
-310.108
-302.256
171.68
204.074
235.858
266.475
295.455
322.178
346.21
367.109
384.53
398.213
407.931
413.519
414.856
411.698
404.354
392.922
377.558
358.515
336.078
310.58
282.429
252.015
219.748
186.109
151.531
116.468
81.2958
46.4945
14.0514
-18.9646
-50.9565
-81.6303
-110.789
-138.292
-164.048
-187.988
-210.085
-230.331
-248.733
-265.318
-280.121
-293.183
-304.547
-314.257
-322.353
-328.872
-333.843
-337.292
-339.217
-339.605
-338.446
-335.748
-331.511
-325.694
-318.266
-309.216
-298.492
-286.052
-271.876
-255.931
-238.204
-218.7
-197.412
-174.382
-149.676
-123.359
-95.5362
-66.345
-35.9194
-4.44703
27.9183
61.3331
94.6792
127.914
160.798
192.999
224.203
254.057
282.205
308.301
331.997
352.945
370.842
385.416
396.399
403.585
406.844
406.079
401.254
392.469
379.766
363.314
343.323
320.052
293.805
264.928
233.805
200.849
166.497
131.201
95.4173
59.5966
24.1747
-10.451
-43.922
-75.9336
-106.24
-134.655
-161.051
-185.352
-207.527
-227.582
-245.551
-261.487
-275.459
-287.542
-297.812
-306.348
-313.223
-318.509
-322.273
-324.583
-325.472
-325.011
-323.247
-320.205
-315.905
-310.357
-303.561
-295.506
-286.17
-275.524
-263.528
-250.138
-235.305
-218.98
-201.113
-181.661
-160.598
-137.912
-113.617
-87.756
-60.4032
-31.6723
-1.71278
29.2715
61.2749
93.6097
126.19
158.655
190.629
221.719
251.512
279.597
305.563
329.008
349.557
366.865
380.622
390.576
396.528
398.336
395.919
389.362
378.695
364.08
345.751
324.005
299.197
271.725
242.02
210.533
177.723
144.048
109.947
75.8356
42.1119
9.09736
-22.8936
-53.6063
-82.835
-110.424
-136.265
-160.287
-182.456
-202.769
-221.244
-237.921
-252.851
-266.091
-277.702
-287.738
-296.253
-303.303
-308.94
-313.219
-316.193
-317.88
-318.33
-317.573
-315.612
-312.442
-308.048
-302.407
-295.489
-287.257
-277.676
-266.713
-254.339
-240.528
-225.257
-208.511
-190.27
-170.525
-149.275
-126.534
-102.334
-76.7318
-49.8091
-21.6818
7.50343
37.5689
68.3339
99.4677
130.727
161.79
192.307
221.897
250.161
276.685
301.059
322.882
341.776
357.399
369.453
377.699
381.954
382.09
378.07
369.983
357.879
341.953
322.46
299.717
274.095
246.013
215.919
184.277
151.557
118.216
84.6854
51.395
18.6559
-13.1917
-43.8826
-73.1964
-100.96
-127.038
-151.339
-173.806
-194.411
-213.157
-230.067
-245.187
-258.569
-270.282
-280.398
-288.99
-296.125
-301.872
-306.304
-309.493
-311.457
-312.257
-311.951
-310.553
-308.097
-304.603
-300.064
-294.491
-287.873
-280.181
-271.407
-261.527
-250.513
-238.312
-224.837
-210.029
-193.821
-176.137
-156.924
-136.119
-113.68
-89.6047
-63.9244
-36.7232
-8.2586
20.6942
51.0755
82.2246
113.747
145.17
176.012
205.849
234.193
260.56
284.545
305.733
323.768
338.342
349.202
356.183
359.174
358.095
352.92
343.882
331.163
315.021
295.795
273.862
249.603
223.41
195.711
166.909
137.385
107.493
77.5438
47.8224
18.5174
-10.164
-33.4421
-60.1313
-85.6899
-110.062
-133.215
-155.126
-175.783
-195.174
-213.292
-230.132
-245.678
-259.916
-272.831
-284.4
-294.603
-303.416
-310.813
-316.777
-321.289
-324.349
-325.925
-326.003
-324.466
-321.348
-316.669
-310.404
-302.553
171.621
204.125
236.03
266.772
295.878
322.721
346.863
367.861
385.367
399.117
408.884
414.499
415.847
412.686
405.301
393.808
378.369
359.237
336.699
311.092
282.826
252.296
219.914
186.165
151.484
116.328
81.075
46.2103
13.6693
-19.3897
-51.4166
-82.1158
-111.291
-138.802
-164.558
-188.494
-210.581
-230.815
-249.203
-265.772
-280.559
-293.605
-304.955
-314.651
-322.736
-329.244
-334.207
-337.649
-339.572
-339.97
-338.81
-336.113
-331.881
-326.075
-318.657
-309.619
-298.909
-286.482
-272.318
-256.384
-238.666
-219.168
-197.882
-174.851
-150.137
-123.808
-95.9667
-66.7506
-36.2931
-4.78185
27.6289
61.1193
94.5338
127.837
160.799
193.083
224.379
254.326
282.573
308.764
332.558
353.598
371.579
386.224
397.267
404.497
407.781
407.022
402.19
393.367
380.612
364.093
344.02
320.655
294.305
265.318
234.08
201.009
166.542
131.135
95.2458
59.3285
23.822
-10.8761
-44.405
-76.4592
-106.794
-135.224
-161.624
-185.919
-208.081
-228.118
-246.065
-261.977
-275.925
-287.983
-298.231
-306.746
-313.602
-318.87
-322.617
-324.91
-325.789
-325.32
-323.548
-320.502
-316.201
-310.654
-303.862
-295.815
-286.489
-275.855
-263.873
-250.499
-235.683
-219.375
-201.523
-182.087
-161.034
-138.354
-114.059
-88.1903
-60.8221
-32.0665
-2.07219
28.9468
61.0234
93.4163
126.075
158.628
190.699
221.891
251.792
279.988
306.063
329.615
350.264
367.659
381.492
391.503
397.493
399.317
396.901
390.31
379.592
364.906
346.488
324.64
299.719
272.128
242.303
210.698
177.775
143.993
109.795
75.597
41.8015
8.72436
-23.3157
-54.0651
-83.3182
-110.922
-136.767
-160.786
-182.947
-203.246
-221.705
-238.362
-253.273
-266.494
-278.087
-288.105
-296.605
-303.639
-309.262
-313.529
-316.49
-318.17
-318.616
-317.857
-315.896
-312.73
-308.343
-302.711
-295.803
-287.582
-278.012
-267.06
-254.697
-240.895
-225.635
-208.899
-190.666
-170.928
-149.683
-126.942
-102.738
-77.1247
-50.1842
-22.0315
7.18823
37.2955
68.1194
99.3153
130.649
161.797
192.408
222.098
250.467
277.1
301.582
323.508
342.498
358.205
370.329
378.626
382.912
383.058
379.032
370.903
358.742
342.74
323.152
300.302
274.563
246.36
216.144
184.383
151.55
118.106
84.4831
51.1144
18.3089
-13.5915
-44.323
-73.6656
-101.447
-127.535
-151.838
-174.3
-194.894
-213.625
-230.518
-245.618
-258.98
-270.672
-280.768
-289.341
-296.456
-302.186
-306.603
-309.775
-311.731
-312.523
-312.208
-310.805
-308.348
-304.854
-300.317
-294.748
-288.137
-280.452
-271.689
-261.821
-250.821
-238.639
-225.184
-210.399
-194.214
-176.552
-157.36
-136.571
-114.142
-90.0659
-64.3736
-37.1465
-8.65309
20.3279
50.7794
82.0119
113.629
145.158
176.113
206.068
234.533
261.018
285.115
306.406
324.531
339.178
350.092
357.106
360.107
359.023
353.814
344.712
331.92
315.689
296.365
274.329
249.962
223.663
195.862
166.965
137.358
107.394
77.3857
47.6219
18.2941
-10.4022
-33.8253
-60.5107
-86.0607
-110.427
-133.575
-155.481
-176.133
-195.519
-213.632
-230.469
-246.013
-260.25
-273.165
-284.735
-294.94
-303.755
-311.155
-317.121
-321.636
-324.695
-326.273
-326.354
-324.819
-321.702
-317.023
-310.759
-302.911
171.551
204.182
236.229
267.119
296.372
323.355
347.626
368.74
386.344
400.173
409.997
415.644
417.004
413.836
406.404
394.843
379.316
360.079
337.423
311.688
283.289
252.622
220.106
186.229
151.429
116.162
80.8152
45.8767
13.2232
-19.8866
-51.9545
-82.6832
-111.877
-139.397
-165.155
-189.084
-211.161
-231.381
-249.752
-266.302
-281.07
-294.098
-305.43
-315.111
-323.181
-329.679
-334.632
-338.067
-339.988
-340.395
-339.232
-336.539
-332.314
-326.518
-319.113
-310.09
-299.395
-286.984
-272.835
-256.913
-239.206
-219.715
-198.432
-175.398
-150.677
-124.332
-96.4698
-67.2245
-36.7301
-5.17386
27.2895
60.8697
94.3634
127.746
160.8
193.181
224.583
254.64
283.001
309.306
333.211
354.359
372.439
387.169
398.28
405.562
408.876
408.124
403.28
394.415
381.6
365.002
344.834
321.359
294.888
265.772
234.401
201.194
166.594
131.056
95.0442
59.0139
23.4084
-11.3742
-44.9705
-77.0747
-107.442
-135.89
-162.293
-186.581
-208.728
-228.743
-246.665
-262.549
-276.469
-288.499
-298.721
-307.211
-314.044
-319.291
-323.019
-325.293
-326.16
-325.68
-323.9
-320.849
-316.546
-311
-304.214
-296.176
-286.86
-276.241
-264.275
-250.92
-236.124
-219.835
-202.003
-182.584
-161.544
-138.87
-114.576
-88.6984
-61.3124
-32.5278
-2.49218
28.5936
60.7009
93.1881
125.939
158.595
190.778
222.091
252.118
280.442
306.646
330.322
351.088
368.588
382.508
392.587
398.62
400.463
398.047
391.419
380.64
365.871
347.349
325.38
300.328
272.598
242.632
210.889
177.833
143.927
109.616
75.317
41.4374
8.2872
-23.8102
-54.6019
-83.8837
-111.503
-137.354
-161.37
-183.521
-203.804
-222.242
-238.878
-253.765
-266.964
-278.535
-288.534
-297.016
-304.032
-309.639
-313.891
-316.837
-318.508
-318.95
-318.189
-316.228
-313.066
-308.688
-303.066
-296.17
-287.962
-278.405
-267.466
-255.114
-241.325
-226.077
-209.352
-191.129
-171.4
-150.16
-127.419
-103.21
-77.5842
-50.6234
-22.4408
6.81921
36.9749
67.8676
99.1358
130.556
161.803
192.523
222.331
250.824
277.584
302.192
324.239
343.341
359.147
371.353
379.71
384.032
384.191
380.153
371.979
359.751
343.658
323.961
300.984
275.109
246.764
216.405
184.504
151.541
117.976
84.2474
50.7834
17.9023
-14.0596
-44.8382
-74.2143
-102.017
-128.116
-152.421
-174.876
-195.459
-214.172
-231.044
-246.122
-259.46
-271.127
-281.2
-289.75
-296.843
-302.553
-306.952
-310.105
-312.051
-312.833
-312.508
-311.1
-308.641
-305.146
-300.612
-295.048
-288.445
-280.769
-272.017
-262.164
-251.18
-239.02
-225.59
-210.83
-194.671
-177.037
-157.869
-137.099
-114.681
-90.605
-64.8998
-37.6434
-9.11412
19.8995
50.4327
81.7623
113.491
145.142
176.23
206.324
234.929
261.553
285.781
307.192
325.422
340.156
351.133
358.185
361.198
360.105
354.856
345.682
332.803
316.47
297.031
274.873
250.38
223.957
196.037
167.03
137.325
107.276
77.1997
47.3859
18.0336
-10.667
-34.2875
-60.9547
-86.4934
-110.852
-133.995
-155.894
-176.54
-195.921
-214.029
-230.862
-246.404
-260.64
-273.556
-285.127
-295.334
-304.151
-311.553
-317.522
-322.04
-325.099
-326.68
-326.764
-325.23
-322.113
-317.436
-311.174
-303.328
171.468
204.245
236.455
267.514
296.937
324.08
348.499
369.746
387.462
401.381
411.271
416.956
418.328
415.149
407.665
396.026
380.4
361.043
338.251
312.37
283.817
252.994
220.326
186.301
151.364
115.971
80.5152
45.4928
12.7127
-20.456
-52.5709
-83.333
-112.548
-140.078
-165.837
-189.76
-211.825
-232.028
-250.379
-266.908
-281.655
-294.661
-305.973
-315.636
-323.691
-330.175
-335.118
-338.546
-340.464
-340.878
-339.713
-337.025
-332.808
-327.025
-319.635
-310.627
-299.951
-287.558
-273.425
-257.518
-239.824
-220.341
-199.06
-176.024
-151.294
-124.933
-97.0458
-67.767
-37.231
-5.62383
26.8991
60.5842
94.1679
127.642
160.8
193.292
224.815
254.998
283.49
309.924
333.958
355.229
373.423
388.249
399.439
406.782
410.13
409.386
404.527
395.615
382.732
366.043
345.765
322.164
295.554
266.29
234.767
201.405
166.651
130.964
94.8115
58.652
22.9331
-11.9462
-45.6196
-77.7808
-108.185
-136.653
-163.06
-187.34
-209.469
-229.459
-247.351
-263.204
-277.091
-289.089
-299.28
-307.743
-314.549
-319.772
-323.479
-325.732
-326.584
-326.091
-324.302
-321.245
-316.941
-311.397
-304.616
-296.587
-287.286
-276.682
-264.735
-251.401
-236.628
-220.362
-202.552
-183.152
-162.127
-139.462
-115.167
-89.2808
-61.8746
-33.0569
-2.97411
28.1838
60.3341
92.9249
125.782
158.556
190.868
222.318
252.49
280.961
307.312
331.132
352.03
369.65
383.671
393.828
399.912
401.777
399.357
392.688
381.84
366.975
348.334
326.228
301.023
273.135
243.008
211.105
177.897
143.849
109.409
74.9964
41.0174
7.78499
-24.3777
-55.2177
-84.532
-112.169
-138.027
-162.039
-184.177
-204.443
-222.858
-239.468
-254.328
-267.502
-279.049
-289.026
-297.485
-304.482
-310.07
-314.304
-317.234
-318.896
-319.331
-318.567
-316.608
-313.451
-309.082
-303.472
-296.589
-288.396
-278.855
-267.93
-255.592
-241.817
-226.582
-209.87
-191.659
-171.939
-150.705
-127.966
-103.751
-78.1109
-51.1271
-22.9101
6.39576
36.6084
67.576
98.9284
130.449
161.809
192.653
222.596
251.231
278.137
302.889
325.075
344.306
360.225
372.524
380.951
385.315
385.488
381.436
373.211
360.905
344.709
324.886
301.764
275.733
247.225
216.702
184.642
151.528
117.825
83.9757
50.4034
17.4356
-14.5966
-45.4288
-74.8431
-102.67
-128.782
-153.088
-175.536
-196.104
-214.798
-231.646
-246.697
-260.009
-271.648
-281.694
-290.217
-297.284
-302.972
-307.351
-310.483
-312.416
-313.187
-312.85
-311.437
-308.975
-305.479
-300.948
-295.392
-288.797
-281.13
-272.393
-262.555
-251.59
-239.454
-226.053
-211.323
-195.195
-177.592
-158.452
-137.704
-115.298
-91.2225
-65.5037
-38.2153
-9.64129
19.4044
50.0341
81.4752
113.331
145.123
176.362
206.615
235.382
262.164
286.543
308.092
326.442
341.275
352.324
359.421
362.449
361.341
356.047
346.793
333.813
317.363
297.791
275.495
250.857
224.292
196.236
167.103
137.284
107.138
76.9849
47.1133
17.7352
-10.9499
-34.838
-61.4631
-86.9876
-111.339
-134.475
-156.367
-177.006
-196.38
-214.482
-231.311
-246.851
-261.086
-274.002
-285.574
-295.783
-304.603
-312.009
-317.98
-322.501
-325.562
-327.145
-327.232
-325.699
-322.584
-317.908
-311.649
-303.804
171.372
204.314
236.708
267.958
297.573
324.897
349.481
370.878
388.722
402.743
412.708
418.435
419.82
416.626
409.085
397.359
381.621
362.129
339.184
313.136
284.412
253.411
220.571
186.38
151.289
115.753
80.1738
45.0576
12.1375
-21.0984
-53.2662
-84.0659
-113.305
-140.846
-166.606
-190.522
-212.572
-232.756
-251.085
-267.59
-282.312
-295.294
-306.584
-316.226
-324.264
-330.733
-335.665
-339.084
-340.999
-341.419
-340.253
-337.571
-333.363
-327.595
-320.221
-311.231
-300.577
-288.203
-274.089
-258.199
-240.519
-221.046
-199.768
-176.729
-151.989
-125.61
-97.6952
-68.3786
-37.7963
-6.13279
26.4565
60.2636
93.9465
127.523
160.797
193.416
225.074
255.399
284.039
310.62
334.797
356.208
374.531
389.467
400.745
408.157
411.544
410.808
405.93
396.967
384.007
367.216
346.813
323.07
296.303
266.874
235.177
201.641
166.713
130.859
94.5472
58.2419
22.3951
-12.5933
-46.3535
-78.5786
-109.025
-137.514
-163.926
-188.196
-210.304
-230.266
-248.124
-263.941
-277.791
-289.753
-299.91
-308.341
-315.118
-320.314
-323.997
-326.227
-327.06
-326.554
-324.754
-321.691
-317.384
-311.843
-305.069
-297.051
-287.764
-277.178
-265.253
-251.943
-237.196
-220.956
-203.172
-183.793
-162.785
-140.13
-115.835
-89.9383
-62.5091
-33.6546
-3.51928
27.715
59.9242
92.6263
125.603
158.509
190.966
222.572
252.907
281.545
308.062
332.042
353.092
370.847
384.982
395.227
401.368
403.259
400.833
394.119
383.193
368.219
349.444
327.181
301.806
273.738
243.429
211.347
177.968
143.76
109.174
74.634
40.5406
7.21689
-25.0189
-55.9134
-85.2638
-112.922
-138.785
-162.793
-184.918
-205.162
-223.551
-240.132
-254.963
-268.107
-279.627
-289.578
-298.015
-304.988
-310.554
-314.769
-317.682
-319.331
-319.76
-318.992
-317.035
-313.884
-309.525
-303.929
-297.062
-288.885
-279.361
-268.453
-256.131
-242.371
-227.151
-210.453
-192.256
-172.548
-151.32
-128.582
-104.361
-78.7055
-51.6957
-23.4401
5.91722
36.1988
67.2401
98.6924
130.326
161.812
192.798
222.893
251.688
278.758
303.673
326.016
345.392
361.44
373.845
382.351
386.762