/*--------------------------------*- C++ -*----------------------------------*\
| =========                 |                                                 |
| \\      /  F ield         | OpenFOAM: The Open Source CFD Toolbox           |
|  \\    /   O peration     | Version:  3.0.1                                 |
|   \\  /    A nd           | Web:      www.OpenFOAM.org                      |
|    \\/     M anipulation  |                                                 |
\*---------------------------------------------------------------------------*/
FoamFile
{
    version     2.0;
    format      ascii;
    class       volScalarField;
    location    "15.2";
    object      p;
}
// * * * * * * * * * * * * * * * * * * * * * * * * * * * * * * * * * * * * * //

dimensions      [1 -1 -2 0 0 0 0];

internalField   nonuniform List<scalar> 
22680
(
3760.08
3783.11
3807.1
3831.9
3858.05
3885.05
3911.81
3938.62
3964.97
3990.84
4015.71
4039.54
4061.85
4082.58
4101.39
4118.2
4132.91
4145.43
4155.79
4164.02
4170.15
4174.21
4176.25
4177.01
4175.83
4172.74
4167.89
4161.33
4153.11
4143.27
4131.86
4118.93
4104.56
4088.82
4071.8
4053.56
4034.17
4013.69
3992.19
3969.88
3946.86
3923.53
3900.19
3864.16
3840.65
3817.27
3794.29
3771.97
3750.39
3729.71
3709.99
3691.32
3673.77
3657.35
3642.1
3628.02
3615.11
3603.37
3592.79
3583.35
3575.04
3567.82
3561.69
3556.62
3552.57
3549.54
3547.47
3546.33
3546.11
3546.85
3548.54
3551.17
3554.77
3559.37
3565
3571.69
3579.48
3588.4
3598.5
3609.8
3622.34
3636.16
3651.25
3667.67
3685.42
3704.45
3724.74
3746.27
3768.94
3792.72
3817.53
3843.26
3869.8
3897.04
3925.79
3954.29
3983.02
4011.6
4039.95
4067.76
4094.86
4120.97
4145.88
4169.34
4191.14
4211.05
4228.89
4244.46
4257.59
4268.17
4276.04
4281.15
4283.41
4282.88
4279.62
4273.57
4264.72
4253.29
4239.35
4223.06
4204.56
4184.09
4161.78
4137.8
4112.47
4086.1
4058.91
4031.08
4002.85
3974.42
3946.02
3917.84
3890.01
3862.31
3835.4
3809.35
3784.31
3760.33
3737.51
3715.92
3695.6
3676.58
3658.89
3642.52
3627.48
3613.74
3601.29
3590.08
3580.11
3571.33
3563.7
3557.2
3551.79
3547.46
3544.17
3541.92
3540.63
3540.3
3541.02
3542.76
3545.47
3549.19
3553.92
3559.69
3566.51
3574.42
3583.44
3593.6
3604.95
3617.49
3631.28
3646.32
3662.69
3680.43
3699.44
3719.69
3741.19
3763.87
3787.69
3812.56
3838.41
3865.12
3892.62
3922.07
3950.95
3980.03
4008.92
4037.55
4065.58
4092.82
4118.99
4143.84
4167.14
4188.67
4208.24
4225.65
4240.74
4253.39
4263.47
4270.91
4275.65
4277.63
4276.89
4273.62
4267.7
4259.1
4248.05
4234.58
4218.85
4200.98
4181.13
4159.39
4135.76
4110.87
4084.91
4058.09
4030.61
4002.74
3974.79
3947.07
3919.95
3893.79
3869.09
3841.84
3821.38
3661.9
3684.93
3708.93
3733.74
3759.9
3786.91
3813.68
3840.5
3866.86
3892.75
3917.64
3941.49
3963.8
3984.56
4003.38
4020.2
4034.91
4047.44
4057.8
4066.03
4072.16
4076.22
4078.27
4079.01
4077.83
4074.74
4069.88
4063.32
4055.1
4045.26
4033.84
4020.91
4006.53
3990.78
3973.75
3955.51
3936.11
3915.62
3894.11
3871.79
3848.74
3825.39
3802.04
3766.06
3742.54
3719.14
3696.14
3673.82
3652.23
3631.55
3611.82
3593.15
3575.6
3559.18
3543.93
3529.85
3516.94
3505.2
3494.62
3485.19
3476.87
3469.66
3463.54
3458.46
3454.42
3451.38
3449.32
3448.17
3447.96
3448.7
3450.39
3453.01
3456.61
3461.21
3466.84
3473.53
3481.31
3490.23
3500.33
3511.63
3524.16
3537.98
3553.07
3569.49
3587.24
3606.27
3626.55
3648.08
3670.76
3694.55
3719.36
3745.09
3771.64
3798.88
3827.64
3856.15
3884.9
3913.48
3941.85
3969.67
3996.78
4022.91
4047.84
4071.31
4093.12
4113.05
4130.9
4146.49
4159.63
4170.22
4178.09
4183.21
4185.48
4184.94
4181.67
4175.61
4166.76
4155.32
4141.37
4125.07
4106.56
4086.08
4063.75
4039.76
4014.41
3988.03
3960.82
3932.98
3904.73
3876.3
3847.88
3819.69
3791.85
3764.15
3737.23
3711.18
3686.13
3662.14
3639.33
3617.73
3597.41
3578.4
3560.71
3544.34
3529.3
3515.56
3503.11
3491.91
3481.94
3473.16
3465.54
3459.04
3453.63
3449.3
3446.01
3443.76
3442.47
3442.15
3442.87
3444.6
3447.31
3451.03
3455.76
3461.53
3468.35
3476.25
3485.28
3495.43
3506.78
3519.31
3533.11
3548.14
3564.51
3582.24
3601.26
3621.5
3643.01
3665.69
3689.5
3714.38
3740.24
3766.95
3794.45
3823.93
3852.82
3881.9
3910.81
3939.45
3967.5
3994.75
4020.93
4045.8
4069.12
4090.67
4110.24
4127.67
4142.77
4155.43
4165.51
4172.96
4177.7
4179.68
4178.95
4175.66
4169.73
4161.13
4150.08
4136.6
4120.86
4102.98
4083.12
4061.36
4037.72
4012.81
3986.85
3960.01
3932.51
3904.62
3876.65
3848.92
3821.78
3795.6
3771.1
3743.39
3723.13
3563.63
3586.67
3610.69
3635.51
3661.68
3688.72
3715.51
3742.37
3768.75
3794.67
3819.59
3843.47
3865.82
3886.6
3905.45
3922.28
3937.01
3949.54
3959.92
3968.15
3974.29
3978.36
3980.41
3981.11
3979.92
3976.83
3971.97
3965.41
3957.17
3947.32
3935.89
3922.95
3908.56
3892.8
3875.77
3857.51
3838.1
3817.59
3796.05
3773.69
3750.62
3727.22
3703.82
3667.97
3644.4
3620.97
3597.95
3575.6
3554
3533.31
3513.58
3494.91
3477.36
3460.94
3445.69
3431.6
3418.7
3406.96
3396.39
3386.96
3378.65
3371.44
3365.32
3360.25
3356.2
3353.17
3351.1
3349.96
3349.77
3350.5
3352.18
3354.8
3358.4
3362.99
3368.61
3375.3
3383.08
3392
3402.08
3413.38
3425.91
3439.73
3454.81
3471.23
3488.97
3508.01
3528.29
3549.82
3572.5
3596.29
3621.11
3646.85
3673.41
3700.67
3729.45
3757.98
3786.75
3815.36
3843.75
3871.6
3898.74
3924.89
3949.85
3973.36
3995.2
4015.15
4033.03
4048.64
4061.8
4072.41
4080.29
4085.43
4087.7
4087.17
4083.86
4077.81
4068.94
4057.49
4043.51
4027.2
4008.66
3988.15
3965.79
3941.76
3916.39
3889.98
3862.74
3834.87
3806.6
3778.14
3749.71
3721.5
3693.64
3665.92
3638.99
3612.93
3587.87
3563.88
3541.06
3519.46
3499.15
3480.13
3462.44
3446.08
3431.04
3417.31
3404.86
3393.67
3383.7
3374.93
3367.31
3360.82
3355.41
3351.08
3347.79
3345.54
3344.26
3343.94
3344.66
3346.39
3349.1
3352.82
3357.54
3363.31
3370.12
3378.03
3387.04
3397.2
3408.53
3421.06
3434.86
3449.89
3466.25
3483.98
3502.99
3523.23
3544.74
3567.42
3591.24
3616.13
3641.99
3668.71
3696.22
3725.74
3754.65
3783.75
3812.68
3841.35
3869.43
3896.72
3922.93
3947.83
3971.17
3992.75
4012.35
4029.8
4044.92
4057.6
4067.69
4075.15
4079.9
4081.89
4081.17
4077.84
4071.91
4063.3
4052.23
4038.74
4022.98
4005.08
3985.19
3963.41
3939.75
3914.81
3888.81
3861.94
3834.41
3806.49
3778.48
3750.71
3723.53
3697.3
3672.8
3644.95
3624.62
3465.28
3488.34
3512.37
3537.22
3563.41
3590.48
3617.32
3644.21
3670.64
3696.61
3721.57
3745.5
3767.9
3788.72
3807.6
3824.46
3839.21
3851.76
3862.14
3870.39
3876.53
3880.61
3882.67
3883.33
3882.11
3879.02
3874.16
3867.58
3859.34
3849.47
3838.02
3825.07
3810.66
3794.89
3777.83
3759.56
3740.12
3719.58
3698.01
3675.61
3652.48
3629.01
3605.52
3569.9
3546.25
3522.76
3499.7
3477.33
3455.71
3435.01
3415.27
3396.59
3379.04
3362.62
3347.37
3333.29
3320.39
3308.66
3298.09
3288.66
3280.36
3273.16
3267.04
3261.97
3257.94
3254.9
3252.83
3251.7
3251.52
3252.24
3253.91
3256.53
3260.12
3264.71
3270.33
3277.01
3284.78
3293.69
3303.77
3315.06
3327.59
3341.39
3356.47
3372.88
3390.63
3409.66
3429.94
3451.48
3474.16
3497.96
3522.79
3548.53
3575.11
3602.39
3631.22
3659.78
3688.57
3717.21
3745.64
3773.53
3800.72
3826.92
3851.92
3875.47
3897.36
3917.35
3935.27
3950.92
3964.11
3974.74
3982.65
3987.8
3990.08
3989.56
3986.22
3980.15
3971.27
3959.79
3945.78
3929.43
3910.85
3890.3
3867.9
3843.83
3818.41
3791.95
3764.67
3736.77
3708.46
3679.96
3651.5
3623.25
3595.37
3567.63
3540.68
3514.61
3489.53
3465.54
3442.71
3421.11
3400.79
3381.78
3364.09
3347.73
3332.7
3318.98
3306.54
3295.35
3285.4
3276.63
3269.02
3262.53
3257.13
3252.8
3249.52
3247.26
3245.98
3245.68
3246.4
3248.12
3250.83
3254.54
3259.27
3265.03
3271.84
3279.73
3288.74
3298.89
3310.22
3322.74
3336.53
3351.55
3367.9
3385.63
3404.64
3424.88
3446.38
3469.07
3492.9
3517.79
3543.66
3570.4
3597.92
3627.51
3656.44
3685.58
3714.54
3743.25
3771.38
3798.71
3824.97
3849.92
3873.31
3894.93
3914.57
3932.05
3947.2
3959.9
3970.02
3977.49
3982.25
3984.25
3983.54
3980.18
3974.23
3965.61
3954.52
3941.01
3925.22
3907.27
3887.35
3865.54
3841.83
3816.85
3790.8
3763.88
3736.3
3708.33
3680.28
3652.45
3625.2
3598.89
3574.17
3546.6
3525.99
3366.85
3389.93
3413.99
3438.86
3465.08
3492.21
3519.09
3546.04
3572.52
3598.55
3623.58
3647.57
3670.03
3690.91
3709.84
3726.73
3741.51
3754.08
3764.48
3772.73
3778.88
3782.97
3785.04
3785.66
3784.41
3781.31
3776.44
3769.85
3761.58
3751.7
3740.23
3727.26
3712.83
3697.03
3679.96
3661.66
3642.19
3621.61
3599.98
3577.53
3554.32
3530.76
3507.11
3471.89
3448.09
3424.52
3401.41
3379.01
3357.36
3336.65
3316.89
3298.21
3280.65
3264.23
3248.98
3234.91
3222.01
3210.28
3199.72
3190.3
3182.01
3174.82
3168.7
3163.65
3159.61
3156.58
3154.51
3153.38
3153.21
3153.93
3155.6
3158.21
3161.79
3166.37
3171.98
3178.65
3186.42
3195.32
3205.39
3216.67
3229.18
3242.98
3258.05
3274.46
3292.2
3311.23
3331.51
3353.05
3375.74
3399.55
3424.39
3450.15
3476.75
3504.06
3532.94
3561.53
3590.37
3619.06
3647.54
3675.49
3702.73
3728.99
3754.05
3777.66
3799.61
3819.66
3837.63
3853.32
3866.55
3877.22
3885.15
3890.32
3892.62
3892.1
3888.74
3882.64
3873.73
3862.23
3848.18
3831.77
3813.14
3792.53
3770.08
3745.94
3720.46
3693.95
3666.62
3638.66
3610.3
3581.76
3553.25
3524.96
3497.04
3469.28
3442.31
3416.21
3391.12
3367.11
3344.28
3322.67
3302.35
3283.34
3265.66
3249.31
3234.28
3220.57
3208.14
3196.97
3187.02
3178.27
3170.66
3164.18
3158.79
3154.47
3151.19
3148.93
3147.65
3147.36
3148.08
3149.8
3152.51
3156.21
3160.93
3166.69
3173.49
3181.38
3190.38
3200.52
3211.84
3224.35
3238.12
3253.14
3269.48
3287.2
3306.21
3326.44
3347.95
3370.64
3394.48
3419.38
3445.26
3472.02
3499.56
3529.24
3558.2
3587.37
3616.39
3645.16
3673.34
3700.74
3727.06
3752.07
3775.52
3797.2
3816.89
3834.42
3849.61
3862.35
3872.49
3879.98
3884.75
3886.76
3886.06
3882.67
3876.7
3868.06
3856.94
3843.39
3827.56
3809.57
3789.61
3767.74
3743.97
3718.93
3692.83
3665.85
3638.2
3610.16
3582.04
3554.13
3526.79
3500.37
3475.39
3448.14
3427.12
3268.34
3291.45
3315.53
3340.44
3366.69
3393.88
3420.83
3447.85
3474.4
3500.51
3525.62
3549.69
3572.22
3593.17
3612.16
3629.1
3643.91
3656.5
3666.92
3675.18
3681.34
3685.45
3687.53
3688.11
3686.82
3683.71
3678.82
3672.21
3663.92
3654.01
3642.52
3629.52
3615.06
3599.24
3582.14
3563.8
3544.3
3523.67
3501.98
3479.45
3456.16
3432.49
3408.63
3373.9
3349.9
3326.24
3303.07
3280.62
3258.95
3238.21
3218.44
3199.75
3182.19
3165.77
3150.52
3136.45
3123.56
3111.84
3101.29
3091.88
3083.59
3076.41
3070.31
3065.26
3061.23
3058.2
3056.13
3055.01
3054.84
3055.56
3057.22
3059.83
3063.4
3067.98
3073.58
3080.24
3087.99
3096.88
3106.93
3118.2
3130.7
3144.49
3159.55
3175.95
3193.69
3212.72
3233
3254.54
3277.24
3301.06
3325.92
3351.7
3378.32
3405.66
3434.62
3463.26
3492.15
3520.89
3549.43
3577.45
3604.76
3631.1
3656.24
3679.93
3701.94
3722.06
3740.1
3755.85
3769.13
3779.84
3787.81
3793.01
3795.32
3794.79
3791.42
3785.28
3776.35
3764.79
3750.69
3734.23
3715.53
3694.85
3672.33
3648.11
3622.56
3595.97
3568.57
3540.54
3512.12
3483.52
3454.96
3426.63
3398.66
3370.86
3343.86
3317.73
3292.63
3268.6
3245.76
3224.15
3203.83
3184.82
3167.14
3150.8
3135.79
3122.08
3109.67
3098.51
3088.58
3079.83
3072.25
3065.78
3060.39
3056.08
3052.8
3050.54
3049.27
3048.99
3049.71
3051.42
3054.12
3057.83
3062.54
3068.29
3075.08
3082.96
3091.95
3102.07
3113.38
3125.88
3139.64
3154.64
3170.97
3188.69
3207.69
3227.92
3249.43
3272.12
3295.97
3320.89
3346.79
3373.56
3401.12
3430.93
3459.92
3489.14
3518.22
3547.06
3575.32
3602.8
3629.2
3654.28
3677.81
3699.56
3719.32
3736.91
3752.15
3764.93
3775.1
3782.62
3787.41
3789.42
3788.71
3785.32
3779.3
3770.64
3759.48
3745.89
3730.01
3711.97
3691.94
3670.01
3646.18
3621.06
3594.88
3567.82
3540.1
3511.97
3483.76
3455.76
3428.32
3401.75
3376.51
3349.53
3328.12
3169.75
3192.88
3217
3241.95
3268.23
3295.51
3322.53
3349.63
3376.28
3402.47
3427.68
3451.85
3474.47
3495.51
3514.57
3531.56
3546.41
3559.03
3569.47
3577.74
3583.92
3588.03
3590.15
3590.66
3589.34
3586.2
3581.29
3574.66
3566.34
3556.4
3544.88
3531.85
3517.36
3501.51
3484.37
3466
3446.45
3425.76
3404
3381.38
3357.99
3334.18
3310.09
3275.91
3251.69
3227.92
3204.68
3182.18
3160.47
3139.71
3119.93
3101.22
3083.65
3067.23
3051.99
3037.92
3025.04
3013.33
3002.79
2993.39
2985.12
2977.94
2971.85
2966.82
2962.8
2959.77
2957.71
2956.59
2956.43
2957.14
2958.79
2961.39
2964.96
2969.52
2975.11
2981.75
2989.49
2998.37
3008.41
3019.66
3032.15
3045.92
3060.97
3077.36
3095.09
3114.12
3134.41
3155.95
3178.66
3202.49
3227.37
3253.17
3279.83
3307.21
3336.25
3364.94
3393.89
3422.7
3451.33
3479.42
3506.83
3533.25
3558.48
3582.26
3604.37
3624.57
3642.68
3658.51
3671.85
3682.61
3690.62
3695.85
3698.17
3697.64
3694.25
3688.08
3679.1
3667.5
3653.33
3636.8
3618.02
3597.26
3574.64
3550.33
3524.69
3498.02
3470.53
3442.43
3413.93
3385.26
3356.63
3328.24
3300.22
3272.38
3245.34
3219.18
3194.05
3170.01
3147.16
3125.54
3105.22
3086.21
3068.54
3052.21
3037.21
3023.52
3011.12
2999.98
2990.06
2981.34
2973.76
2967.3
2961.93
2957.63
2954.35
2952.1
2950.83
2950.55
2951.27
2952.99
2955.69
2959.38
2964.09
2969.82
2976.61
2984.47
2993.45
3003.56
3014.86
3027.34
3041.08
3056.07
3072.39
3090.09
3109.08
3129.31
3150.82
3173.52
3197.38
3222.32
3248.24
3275.04
3302.62
3332.58
3361.6
3390.89
3420.04
3448.97
3477.32
3504.89
3531.38
3556.56
3580.18
3602.01
3621.85
3639.52
3654.82
3667.65
3677.86
3685.41
3690.21
3692.23
3691.52
3688.1
3682.06
3673.36
3662.16
3648.51
3632.58
3614.47
3594.37
3572.36
3548.45
3523.24
3496.97
3469.82
3441.99
3413.77
3385.45
3357.34
3329.77
3303.04
3277.55
3250.77
3228.93
3071.07
3094.24
3118.4
3143.4
3169.72
3197.1
3224.2
3251.4
3278.14
3304.45
3329.76
3354.05
3376.78
3397.92
3417.07
3434.12
3449.01
3461.67
3472.12
3480.42
3486.6
3490.73
3492.9
3493.33
3491.97
3488.8
3483.86
3477.2
3468.85
3458.88
3447.33
3434.25
3419.73
3403.84
3386.66
3368.25
3348.64
3327.88
3306.04
3283.32
3259.81
3235.85
3211.51
3177.89
3153.45
3129.55
3106.23
3083.68
3061.93
3041.14
3021.34
3002.62
2985.05
2968.63
2953.39
2939.32
2926.45
2914.75
2904.22
2894.83
2886.57
2879.42
2873.34
2868.31
2864.31
2861.29
2859.23
2858.12
2857.95
2858.67
2860.31
2862.9
2866.45
2871
2876.58
2883.21
2890.93
2899.79
2909.81
2921.04
2933.52
2947.27
2962.31
2978.69
2996.42
3015.44
3035.73
3057.28
3080
3103.84
3128.74
3154.58
3181.26
3208.69
3237.84
3266.59
3295.61
3324.5
3353.21
3381.41
3408.91
3435.45
3460.78
3484.67
3506.88
3527.18
3545.39
3561.29
3574.71
3585.53
3593.58
3598.84
3601.18
3600.65
3597.23
3591.02
3582
3570.33
3556.09
3539.47
3520.61
3499.74
3477.03
3452.61
3426.86
3400.09
3372.51
3344.3
3315.72
3286.97
3258.27
3229.81
3201.72
3173.83
3146.74
3120.56
3095.4
3071.34
3048.47
3026.85
3006.52
2987.52
2969.86
2953.54
2938.55
2924.88
2912.5
2901.38
2891.48
2882.77
2875.21
2868.77
2863.41
2859.12
2855.85
2853.6
2852.34
2852.06
2852.79
2854.5
2857.19
2860.88
2865.58
2871.3
2878.07
2885.93
2894.89
2904.98
2916.26
2928.72
2942.45
2957.42
2973.72
2991.41
3010.4
3030.62
3052.13
3074.84
3098.71
3123.67
3149.62
3176.44
3204.04
3234.19
3263.25
3292.6
3321.84
3350.87
3379.33
3407.01
3433.62
3458.9
3482.63
3504.56
3524.5
3542.24
3557.61
3570.5
3580.76
3588.34
3593.17
3595.2
3594.48
3591.04
3584.96
3576.22
3564.97
3551.26
3535.25
3517.07
3496.89
3474.78
3450.77
3425.47
3399.09
3371.83
3343.88
3315.54
3287.1
3258.86
3231.15
3204.25
3178.5
3151.85
3129.58
2972.31
2995.51
3019.72
3044.79
3071.15
3098.63
3125.84
3153.15
3180.01
3206.44
3231.87
3256.29
3279.15
3300.4
3319.65
3336.77
3351.71
3364.41
3374.89
3383.2
3389.39
3393.54
3395.73
3396.1
3394.69
3391.5
3386.53
3379.83
3371.45
3361.44
3349.85
3336.73
3322.16
3306.23
3289.01
3270.55
3250.88
3230.04
3208.1
3185.27
3161.62
3137.5
3112.92
3079.83
3055.17
3031.14
3007.73
2985.11
2963.32
2942.49
2922.67
2903.94
2886.37
2869.95
2854.71
2840.65
2827.79
2816.1
2805.58
2796.21
2787.97
2780.83
2774.77
2769.76
2765.76
2762.75
2760.7
2759.59
2759.43
2760.14
2761.77
2764.35
2767.89
2772.43
2777.99
2784.6
2792.3
2801.14
2811.14
2822.36
2834.81
2848.55
2863.57
2879.94
2897.66
2916.68
2936.97
2958.52
2981.25
3005.12
3030.04
3055.91
3082.63
3110.1
3139.39
3168.2
3197.3
3226.28
3255.1
3283.41
3311.03
3337.68
3363.14
3387.15
3409.47
3429.89
3448.2
3464.2
3477.71
3488.6
3496.7
3502
3504.35
3503.82
3500.38
3494.12
3485.05
3473.31
3458.98
3442.26
3423.29
3402.31
3379.48
3354.94
3329.07
3302.19
3274.49
3246.18
3217.49
3188.66
3159.87
3131.33
3103.16
3075.22
3048.08
3021.86
2996.67
2972.59
2949.7
2928.07
2907.74
2888.74
2871.09
2854.78
2839.81
2826.16
2813.8
2802.7
2792.83
2784.14
2776.6
2770.18
2764.83
2760.55
2757.29
2755.04
2753.79
2753.52
2754.25
2755.95
2758.64
2762.33
2767.01
2772.72
2779.48
2787.32
2796.26
2806.33
2817.59
2830.03
2843.74
2858.69
2874.97
2892.65
2911.62
2931.85
2953.35
2976.07
2999.96
3024.94
3050.92
3077.77
3105.38
3135.77
3164.85
3194.29
3223.63
3252.77
3281.35
3309.16
3335.9
3361.31
3385.16
3407.2
3427.24
3445.08
3460.54
3473.5
3483.81
3491.43
3496.28
3498.31
3497.59
3494.12
3488
3479.21
3467.9
3454.13
3438.04
3419.77
3399.49
3377.28
3353.16
3327.74
3301.24
3273.85
3245.78
3217.3
3188.72
3160.34
3132.46
3105.37
3079.37
3052.78
3030.1
2873.47
2896.71
2920.97
2946.1
2972.52
3000.12
3027.44
3054.88
3081.86
3108.43
3134.01
3158.58
3181.58
3202.96
3222.31
3239.51
3254.51
3267.25
3277.76
3286.09
3292.3
3296.45
3298.65
3298.97
3297.53
3294.3
3289.29
3282.56
3274.14
3264.08
3252.44
3239.28
3224.67
3208.69
3191.42
3172.9
3153.16
3132.23
3110.18
3087.23
3063.43
3039.14
3014.31
2981.73
2956.85
2932.69
2909.18
2886.49
2864.64
2843.78
2823.94
2805.2
2787.61
2771.19
2755.96
2741.91
2729.06
2717.38
2706.88
2697.53
2689.3
2682.18
2676.14
2671.14
2667.16
2664.16
2662.11
2661.01
2660.85
2661.55
2663.18
2665.75
2669.28
2673.8
2679.34
2685.93
2693.61
2702.43
2712.4
2723.59
2736.02
2749.74
2764.75
2781.11
2798.81
2817.84
2838.12
2859.68
2882.43
2906.31
2931.27
2957.17
2983.93
3011.46
3040.89
3069.77
3098.96
3128.05
3156.98
3185.41
3213.17
3239.96
3265.55
3289.7
3312.16
3332.7
3351.14
3367.24
3380.84
3391.81
3399.97
3405.31
3407.68
3407.15
3403.68
3397.38
3388.23
3376.42
3361.99
3345.17
3326.07
3304.97
3282.01
3257.32
3231.32
3204.3
3176.48
3148.05
3119.25
3090.31
3061.43
3032.79
3004.55
2976.54
2949.34
2923.08
2897.85
2873.75
2850.85
2829.21
2808.88
2789.88
2772.24
2755.95
2741
2727.37
2715.03
2703.96
2694.11
2685.44
2677.93
2671.52
2666.19
2661.92
2658.67
2656.43
2655.18
2654.92
2655.65
2657.35
2660.04
2663.71
2668.38
2674.08
2680.82
2688.64
2697.56
2707.62
2718.85
2731.27
2744.95
2759.88
2776.14
2793.8
2812.77
2832.98
2854.49
2877.21
2901.12
2926.13
2952.15
2979.03
3006.64
3037.31
3066.42
3095.94
3125.4
3154.67
3183.39
3211.34
3238.22
3263.78
3287.76
3309.94
3330.1
3348.05
3363.59
3376.63
3387
3394.66
3399.54
3401.58
3400.85
3397.36
3391.19
3382.35
3370.97
3357.12
3340.94
3322.57
3302.18
3279.86
3255.61
3230.06
3203.42
3175.89
3147.67
3119.04
3090.3
3061.76
3033.71
3006.41
2980.15
2953.56
2930.49
2774.54
2797.83
2822.14
2847.35
2873.82
2901.56
2929.01
2956.58
2983.71
3010.43
3036.17
3060.91
3084.06
3105.59
3125.07
3142.35
3157.42
3170.2
3180.75
3189.1
3195.31
3199.46
3201.66
3201.95
3200.47
3197.19
3192.15
3185.38
3176.91
3166.81
3155.12
3141.91
3127.24
3111.2
3093.89
3075.3
3055.48
3034.46
3012.29
2989.19
2965.24
2940.76
2915.69
2883.57
2858.49
2834.18
2810.57
2787.8
2765.9
2745
2725.13
2706.37
2688.79
2672.36
2657.14
2643.1
2630.25
2618.59
2608.11
2598.77
2590.57
2583.47
2577.45
2572.47
2568.5
2565.51
2563.47
2562.37
2562.21
2562.91
2564.53
2567.08
2570.6
2575.1
2580.62
2587.19
2594.85
2603.64
2613.59
2624.76
2637.16
2650.86
2665.85
2682.19
2699.89
2718.91
2739.19
2760.76
2783.52
2807.42
2832.41
2858.35
2885.16
2912.74
2942.35
2971.3
3000.6
3029.8
3058.86
3087.43
3115.33
3142.27
3168.02
3192.32
3214.93
3235.62
3254.19
3270.41
3284.12
3295.17
3303.4
3308.78
3311.17
3310.63
3307.14
3300.78
3291.57
3279.66
3265.13
3248.18
3228.95
3207.71
3184.6
3159.76
3133.61
3106.44
3078.47
3049.91
3020.99
2991.93
2962.94
2934.21
2905.87
2877.79
2850.53
2824.22
2798.96
2774.82
2751.91
2730.25
2709.92
2690.93
2673.3
2657.03
2642.1
2628.49
2616.19
2605.14
2595.32
2586.68
2579.19
2572.8
2567.5
2563.24
2560
2557.77
2556.52
2556.27
2556.99
2558.7
2561.38
2565.04
2569.7
2575.38
2582.1
2589.9
2598.8
2608.83
2620.04
2632.43
2646.09
2660.99
2677.23
2694.87
2713.82
2734.03
2755.54
2778.27
2802.2
2827.24
2853.3
2880.22
2907.81
2938.81
2967.93
2997.56
3027.15
3056.57
3085.45
3113.55
3140.59
3166.31
3190.45
3212.77
3233.06
3251.13
3266.78
3279.9
3290.34
3298.05
3302.95
3305.01
3304.26
3300.74
3294.53
3285.62
3274.17
3260.23
3243.95
3225.47
3204.96
3182.51
3158.12
3132.42
3105.64
3077.95
3049.56
3020.76
2991.85
2963.13
2934.88
2907.38
2880.85
2854.21
2830.77
2675.53
2698.87
2723.24
2748.53
2775.06
2802.95
2830.54
2858.27
2885.55
2912.44
2938.35
2963.28
2986.61
3008.3
3027.91
3045.29
3060.42
3073.26
3083.84
3092.21
3098.43
3102.59
3104.77
3105.03
3103.51
3100.19
3095.11
3088.29
3079.77
3069.61
3057.87
3044.6
3029.87
3013.78
2996.41
2977.76
2957.85
2936.72
2914.42
2891.17
2867.05
2842.37
2817.06
2785.37
2760.07
2735.62
2711.9
2689.05
2667.09
2646.15
2626.25
2607.48
2589.88
2573.46
2558.24
2544.21
2531.38
2519.73
2509.27
2499.96
2491.78
2484.7
2478.7
2473.74
2469.79
2466.81
2464.78
2463.69
2463.53
2464.22
2465.83
2468.37
2471.87
2476.35
2481.85
2488.4
2496.03
2504.79
2514.71
2525.85
2538.22
2551.9
2566.87
2583.19
2600.88
2619.9
2640.17
2661.75
2684.53
2708.46
2733.48
2759.46
2786.32
2813.95
2843.77
2872.8
2902.2
2931.52
2960.73
2989.45
3017.52
3044.63
3070.55
3095.02
3117.79
3138.64
3157.35
3173.71
3187.53
3198.68
3206.98
3212.41
3214.83
3214.28
3210.75
3204.35
3195.05
3183.04
3168.39
3151.31
3131.93
3110.53
3087.26
3062.24
3035.93
3008.6
2980.48
2951.77
2922.71
2893.53
2864.42
2835.58
2807.13
2778.97
2751.65
2725.28
2699.98
2675.82
2652.88
2631.21
2610.88
2591.9
2574.28
2558.02
2543.12
2529.54
2517.27
2506.25
2496.46
2487.85
2480.38
2474.02
2468.74
2464.49
2461.27
2459.05
2457.81
2457.56
2458.29
2459.99
2462.66
2466.31
2470.96
2476.62
2483.32
2491.1
2499.98
2509.98
2521.16
2533.52
2547.14
2562.02
2578.23
2595.85
2614.8
2635
2656.51
2679.25
2703.19
2728.27
2754.38
2781.34
2808.9
2840.28
2869.39
2899.14
2928.88
2958.46
2987.51
3015.79
3043.01
3068.9
3093.21
3115.69
3136.13
3154.33
3170.1
3183.31
3193.83
3201.59
3206.52
3208.59
3207.83
3204.27
3198.01
3189.03
3177.5
3163.46
3147.08
3128.48
3107.83
3085.24
3060.7
3034.84
3007.88
2980.02
2951.45
2922.47
2893.37
2864.44
2836
2808.26
2781.46
2754.74
2730.93
2576.43
2599.82
2624.25
2649.63
2676.25
2704.28
2732.03
2759.93
2787.38
2814.45
2840.56
2865.69
2889.21
2911.08
2930.84
2948.32
2963.53
2976.43
2987.04
2995.43
3001.66
3005.82
3007.99
3008.21
3006.65
3003.29
2998.16
2991.29
2982.72
2972.5
2960.7
2947.37
2932.58
2916.43
2898.99
2880.26
2860.26
2839.02
2816.58
2793.16
2768.85
2743.98
2718.43
2687.1
2661.61
2637.01
2613.17
2590.23
2568.21
2547.22
2527.3
2508.51
2490.91
2474.49
2459.27
2445.25
2432.43
2420.8
2410.36
2401.07
2392.92
2385.87
2379.89
2374.95
2371.02
2368.06
2366.04
2364.95
2364.79
2365.48
2367.07
2369.6
2373.08
2377.54
2383.01
2389.53
2397.14
2405.87
2415.76
2426.86
2439.21
2452.86
2467.8
2484.11
2501.78
2520.8
2541.07
2562.66
2585.45
2609.41
2634.47
2660.5
2687.41
2715.09
2745.14
2774.25
2803.77
2833.23
2862.6
2891.49
2919.73
2947.02
2973.13
2997.78
3020.74
3041.76
3060.63
3077.14
3091.08
3102.34
3110.72
3116.2
3118.64
3118.1
3114.53
3108.06
3098.68
3086.56
3071.78
3054.55
3035.01
3013.44
2989.99
2964.78
2938.28
2910.78
2882.49
2853.62
2824.41
2795.09
2765.86
2736.9
2708.33
2680.08
2652.69
2626.26
2600.92
2576.72
2553.76
2532.09
2511.75
2492.77
2475.17
2458.94
2444.06
2430.51
2418.27
2407.29
2397.53
2388.95
2381.52
2375.18
2369.92
2365.69
2362.48
2360.27
2359.04
2358.79
2359.52
2361.22
2363.89
2367.53
2372.16
2377.8
2384.48
2392.23
2401.08
2411.06
2422.21
2434.54
2448.13
2462.97
2479.15
2496.75
2515.68
2535.88
2557.38
2580.13
2604.1
2629.22
2655.38
2682.4
2709.92
2741.7
2770.8
2800.69
2830.59
2860.35
2889.59
2918.06
2945.48
2971.56
2996.05
3018.71
3039.31
3057.66
3073.55
3086.86
3097.46
3105.28
3110.24
3112.32
3111.55
3107.95
3101.63
3092.59
3080.96
3066.82
3050.31
3031.58
3010.79
2988.04
2963.33
2937.3
2910.16
2882.1
2853.34
2824.16
2794.85
2765.71
2737.05
2709.08
2681.98
2655.14
2630.98
2477.25
2500.69
2525.19
2550.66
2577.36
2605.56
2633.49
2661.57
2689.2
2716.47
2742.79
2768.14
2791.87
2813.94
2833.86
2851.46
2866.75
2879.7
2890.35
2898.76
2905
2909.15
2911.3
2911.5
2909.89
2906.49
2901.31
2894.38
2885.75
2875.48
2863.61
2850.21
2835.35
2819.14
2801.63
2782.82
2762.72
2741.36
2718.76
2695.17
2670.66
2645.57
2619.79
2588.78
2563.09
2538.34
2514.38
2491.35
2469.25
2448.22
2428.27
2409.46
2391.85
2375.44
2360.23
2346.21
2333.41
2321.81
2311.38
2302.12
2294
2286.97
2281.02
2276.11
2272.2
2269.26
2267.24
2266.16
2265.99
2266.68
2268.26
2270.77
2274.23
2278.67
2284.12
2290.61
2298.18
2306.88
2316.74
2327.8
2340.12
2353.73
2368.66
2384.94
2402.6
2421.61
2441.89
2463.48
2486.29
2510.28
2535.38
2561.46
2588.43
2616.15
2646.48
2675.65
2705.3
2734.92
2764.45
2793.53
2821.96
2849.46
2875.76
2900.62
2923.77
2944.98
2964.03
2980.7
2994.78
3006.15
3014.62
3020.16
3022.63
3022.07
3018.47
3011.93
3002.45
2990.22
2975.29
2957.9
2938.19
2916.43
2892.78
2867.37
2840.68
2812.98
2784.51
2755.46
2726.09
2696.62
2667.25
2638.17
2609.46
2581.12
2553.65
2527.17
2501.78
2477.54
2454.56
2432.87
2412.53
2393.56
2375.98
2359.77
2344.92
2331.41
2319.2
2308.25
2298.53
2289.99
2282.59
2276.28
2271.04
2266.84
2263.64
2261.44
2260.22
2259.98
2260.71
2262.4
2265.06
2268.69
2273.3
2278.93
2285.58
2293.3
2302.12
2312.07
2323.18
2335.48
2349.03
2363.84
2379.99
2397.57
2416.48
2436.67
2458.17
2480.93
2504.92
2530.08
2556.31
2583.41
2610.9
2643.04
2672.14
2702.19
2732.28
2762.24
2791.68
2820.36
2847.99
2874.27
2898.97
2921.82
2942.6
2961.1
2977.13
2990.56
3001.24
3009.12
3014.12
3016.21
3015.43
3011.79
3005.41
2996.28
2984.56
2970.3
2953.67
2934.79
2913.84
2890.92
2866.03
2839.81
2812.47
2784.21
2755.23
2725.83
2696.29
2666.93
2638.03
2609.82
2582.4
2555.42
2530.92
2377.99
2401.48
2426.04
2451.62
2478.42
2506.79
2534.91
2563.18
2591
2618.49
2645.03
2670.64
2694.6
2716.88
2736.97
2754.68
2770.06
2783.08
2793.77
2802.21
2808.45
2812.6
2814.72
2814.89
2813.24
2809.79
2804.55
2797.57
2788.88
2778.53
2766.59
2753.12
2738.19
2721.91
2704.33
2685.44
2665.23
2643.73
2620.97
2597.19
2572.46
2547.16
2521.13
2490.4
2464.52
2439.61
2415.53
2392.4
2370.23
2349.15
2329.17
2310.34
2292.73
2276.31
2261.11
2247.11
2234.32
2222.74
2212.34
2203.11
2195.01
2188.02
2182.1
2177.22
2173.33
2170.4
2168.4
2167.31
2167.15
2167.82
2169.39
2171.88
2175.32
2179.74
2185.16
2191.62
2199.16
2207.82
2217.64
2228.67
2240.95
2254.53
2269.43
2285.69
2303.34
2322.34
2342.62
2364.22
2387.04
2411.06
2436.21
2462.35
2489.38
2517.13
2547.78
2577.01
2606.8
2636.58
2666.3
2695.57
2724.22
2751.93
2778.45
2803.53
2826.89
2848.31
2867.55
2884.38
2898.62
2910.11
2918.67
2924.28
2926.77
2926.21
2922.57
2915.96
2906.38
2894.01
2878.93
2861.37
2841.47
2819.5
2795.64
2770.01
2743.1
2715.21
2686.53
2657.29
2627.74
2598.11
2568.61
2539.38
2510.53
2482.09
2454.54
2427.99
2402.55
2378.28
2355.27
2333.57
2313.23
2294.27
2276.7
2260.51
2245.69
2232.22
2220.05
2209.15
2199.47
2190.96
2183.59
2177.32
2172.11
2167.92
2164.74
2162.55
2161.34
2161.1
2161.83
2163.53
2166.18
2169.79
2174.39
2179.99
2186.61
2194.31
2203.1
2213.01
2224.09
2236.35
2249.86
2264.63
2280.75
2298.3
2317.19
2337.37
2358.87
2381.64
2405.66
2430.86
2457.16
2484.36
2511.99
2544.14
2573.4
2603.66
2633.94
2664.11
2693.78
2722.68
2750.54
2777.05
2801.97
2825.03
2846
2864.67
2880.84
2894.4
2905.17
2913.12
2918.16
2920.26
2919.46
2915.78
2909.33
2900.11
2888.29
2873.9
2857.13
2838.1
2816.98
2793.88
2768.79
2742.36
2714.81
2686.32
2657.12
2627.48
2597.7
2568.09
2538.95
2510.49
2482.72
2455.58
2430.76
2278.64
2302.19
2326.81
2352.49
2379.4
2407.96
2436.29
2464.77
2492.8
2520.51
2547.3
2573.17
2597.38
2619.89
2640.17
2658.01
2673.48
2686.57
2697.3
2705.76
2712.01
2716.15
2718.25
2718.39
2716.69
2713.19
2707.9
2700.85
2692.09
2681.67
2669.66
2656.11
2641.1
2624.74
2607.09
2588.11
2567.78
2546.15
2523.21
2499.22
2474.27
2448.73
2422.47
2391.96
2365.89
2340.83
2316.61
2293.38
2271.13
2250
2229.98
2211.14
2193.52
2177.11
2161.92
2147.93
2135.16
2123.6
2113.23
2104.02
2095.96
2089
2083.11
2078.26
2074.4
2071.49
2069.5
2068.42
2068.25
2068.92
2070.47
2072.95
2076.36
2080.75
2086.14
2092.57
2100.07
2108.69
2118.47
2129.46
2141.7
2155.25
2170.12
2186.35
2203.99
2222.99
2243.26
2264.87
2287.71
2311.76
2336.96
2363.17
2390.26
2418.02
2449.04
2478.32
2508.26
2538.22
2568.14
2597.63
2626.49
2654.44
2681.19
2706.51
2730.1
2751.74
2771.18
2788.2
2802.6
2814.22
2822.89
2828.56
2831.09
2830.52
2826.83
2820.15
2810.45
2797.94
2782.7
2764.95
2744.84
2722.66
2698.57
2672.7
2645.57
2617.45
2588.55
2559.11
2529.37
2499.57
2469.91
2440.55
2411.53
2382.98
2355.35
2328.73
2303.23
2278.92
2255.89
2234.17
2213.83
2194.88
2177.33
2161.17
2146.39
2132.96
2120.83
2109.97
2100.33
2091.87
2084.54
2078.3
2073.11
2068.95
2065.79
2063.61
2062.41
2062.18
2062.91
2064.6
2067.24
2070.84
2075.42
2080.99
2087.59
2095.25
2104.01
2113.89
2124.92
2137.14
2150.61
2165.34
2181.42
2198.94
2217.82
2237.98
2259.48
2282.26
2306.3
2331.55
2357.93
2385.26
2413.25
2444.93
2474.59
2505.08
2535.59
2565.98
2595.89
2625.04
2653.14
2679.9
2705.05
2728.33
2749.51
2768.36
2784.69
2798.38
2809.25
2817.27
2822.35
2824.46
2823.64
2819.92
2813.4
2804.09
2792.15
2777.63
2760.71
2741.51
2720.21
2696.91
2671.61
2644.96
2617.18
2588.46
2559.01
2529.11
2499.07
2469.21
2439.81
2411.09
2382.93
2355.63
2330.49
2179.21
2202.81
2227.5
2253.29
2280.32
2309.07
2337.63
2366.33
2394.58
2422.53
2449.59
2475.75
2500.22
2522.98
2543.47
2561.44
2577.01
2590.16
2600.94
2609.43
2615.68
2619.8
2621.88
2621.98
2620.25
2616.69
2611.34
2604.22
2595.38
2584.89
2572.8
2559.17
2544.08
2527.65
2509.9
2490.83
2470.38
2448.6
2425.48
2401.27
2376.08
2350.3
2323.79
2293.46
2267.21
2241.98
2217.62
2194.29
2171.96
2150.77
2130.72
2111.86
2094.24
2077.83
2062.65
2048.67
2035.93
2024.39
2014.05
2004.88
1996.85
1989.92
1984.07
1979.25
1975.42
1972.53
1970.55
1969.47
1969.3
1969.96
1971.5
1973.95
1977.35
1981.71
1987.07
1993.46
2000.92
2009.5
2019.24
2030.18
2042.38
2055.88
2070.72
2086.93
2104.55
2123.54
2143.82
2165.43
2188.29
2212.38
2237.63
2263.9
2291.07
2318.83
2350.27