/*--------------------------------*- C++ -*----------------------------------*\
| =========                 |                                                 |
| \\      /  F ield         | OpenFOAM: The Open Source CFD Toolbox           |
|  \\    /   O peration     | Version:  3.0.1                                 |
|   \\  /    A nd           | Web:      www.OpenFOAM.org                      |
|    \\/     M anipulation  |                                                 |
\*---------------------------------------------------------------------------*/
FoamFile
{
    version     2.0;
    format      ascii;
    class       volScalarField;
    location    "91.4";
    object      p_rgh;
}
// * * * * * * * * * * * * * * * * * * * * * * * * * * * * * * * * * * * * * //

dimensions      [1 -1 -2 0 0 0 0];

internalField   nonuniform List<scalar> 
21420
(
-399.522
-394.081
-387.593
-380.089
-371.605
-362.167
-351.805
-340.526
-328.328
-315.201
-301.104
-285.982
-269.781
-252.422
-233.833
-213.937
-192.661
-169.97
-145.848
-120.306
-93.3943
-65.2225
-35.9446
-5.72923
25.1686
56.4819
87.864
118.933
149.349
178.691
206.538
232.547
256.349
277.604
295.999
311.245
323.123
331.451
336.078
336.913
333.846
327.06
316.406
302.049
284.221
263.173
239.136
212.467
183.545
152.717
120.45
87.1857
53.3617
19.4129
-14.2708
-47.2847
-79.2884
-109.999
-139.169
-166.635
-192.293
-216.098
-238.055
-258.194
-276.591
-293.363
-308.626
-322.411
-334.724
-345.607
-355.177
-363.61
-370.932
-377.288
-383.227
-388.85
-394.337
-399.655
-404.841
-409.772
-414.232
-418.099
-421.081
-423.109
-423.973
-423.626
-422.033
-419.025
-414.663
-408.94
-401.917
-393.623
-384.105
-373.381
-361.485
-348.461
-334.36
-319.212
-302.998
-285.705
-267.324
-247.86
-227.337
-205.791
-183.272
-159.854
-135.629
-110.699
-85.1981
-59.2688
-33.0702
-6.79387
19.3584
45.1662
70.3732
94.7027
117.87
139.565
159.456
177.226
192.569
205.189
214.837
221.326
224.42
224.233
220.646
213.76
203.607
190.39
174.307
155.595
134.513
111.356
86.4252
60.0331
32.5172
4.20506
-24.5873
-53.5338
-82.3402
-110.738
-138.471
-165.336
-191.166
-215.82
-239.193
-261.203
-281.794
-300.934
-318.609
-334.821
-349.598
-362.992
-375.072
-385.921
-395.63
-404.296
-412.012
-418.864
-424.925
-430.258
-434.902
-438.873
-442.173
-444.785
-446.685
-447.84
-448.211
-447.761
-446.443
-444.209
-441.011
-436.794
-431.508
-425.106
-417.536
-408.755
-398.719
-387.388
-374.736
-360.732
-345.344
-328.554
-310.335
-290.664
-269.529
-246.927
-222.869
-197.39
-170.554
-142.44
-113.161
-82.872
-51.7648
-20.0692
11.9466
43.9729
75.6581
106.617
136.435
164.671
190.872
214.585
235.374
252.837
266.617
276.417
282.019
283.273
280.057
272.492
260.566
244.564
224.639
201.135
174.464
145.053
113.385
79.9874
45.3966
10.1455
-25.2554
-60.3353
-94.6701
-127.894
-159.708
-189.865
-218.175
-244.501
-268.745
-290.87
-310.865
-328.743
-344.536
-358.294
-370.086
-379.991
-388.101
-394.523
-399.375
-402.801
-404.945
-405.962
-406.012
-405.236
-403.775
-401.738
-399.206
-396.244
-392.891
-389.168
-385.089
-380.664
-375.895
-370.772
-365.293
-359.442
-353.19
-346.519
-339.408
-331.827
-323.744
-315.126
-305.915
-296.028
-285.367
-273.821
-261.293
-247.72
-232.912
-216.625
-198.726
-179.163
-157.884
-134.782
-109.796
-82.9165
-54.206
-23.7359
8.3095
41.5984
75.8052
110.527
145.283
179.591
212.8
244.356
273.616
299.946
322.784
341.392
354.875
363.604
370.902
373.404
370.526
363.369
352.364
337.643
319.672
298.83
275.606
250.574
224.142
196.777
168.957
140.995
113.257
85.9828
59.4209
33.7994
9.24196
-14.1216
-36.1818
-56.9034
-76.2442
-94.2151
-110.83
-126.121
-140.156
-153.003
-164.744
-175.475
-185.292
-194.296
-202.579
-210.229
-217.32
-223.911
-230.039
-235.719
-240.942
-245.678
-249.877
-253.474
-256.391
-258.547
-259.835
-259.969
-258.952
-256.716
-253.166
-248.247
-241.882
-234.021
-224.65
-213.734
-201.25
-187.197
-171.572
-154.381
-135.649
-115.398
-93.6515
-70.561
-46.3001
-399.565
-394.123
-387.633
-380.129
-371.644
-362.205
-351.842
-340.564
-328.367
-315.241
-301.146
-286.028
-269.83
-252.475
-233.889
-213.996
-192.723
-170.034
-145.913
-120.37
-93.4557
-65.2798
-35.996
-5.77276
25.1347
56.4594
87.8547
118.939
149.37
178.729
206.592
232.616
256.434
277.703
296.112
311.37
323.257
331.592
336.225
337.064
334.01
327.197
316.541
302.177
284.342
263.28
239.228
212.542
183.602
152.755
120.469
87.1871
53.3457
19.3809
-14.317
-47.3433
-79.3572
-110.075
-139.251
-166.72
-192.378
-216.183
-238.137
-258.273
-276.666
-293.433
-308.691
-322.473
-334.783
-345.662
-355.225
-363.65
-370.969
-377.316
-383.242
-388.855
-394.333
-399.644
-404.827
-409.758
-414.221
-418.093
-421.08
-423.115
-423.985
-423.645
-422.055
-419.055
-414.698
-408.979
-401.959
-393.667
-384.151
-373.428
-361.535
-348.513
-334.413
-319.267
-303.056
-285.764
-267.384
-247.922
-227.399
-205.852
-183.332
-159.913
-135.684
-110.751
-85.2458
-59.3108
-33.1054
-6.82119
19.3403
45.1586
70.3771
94.7196
117.901
139.611
159.517
177.302
192.658
205.29
214.948
221.443
224.552
224.348
220.759
213.868
203.708
190.481
174.386
155.66
134.563
111.391
86.4456
60.0386
32.5086
4.18305
-24.6218
-53.5793
-82.3954
-110.801
-138.54
-165.41
-191.243
-215.899
-239.273
-261.284
-281.873
-301.012
-318.685
-334.896
-349.669
-363.06
-375.136
-385.981
-395.686
-404.348
-412.061
-418.91
-424.968
-430.3
-434.943
-438.914
-442.215
-444.828
-446.729
-447.885
-448.259
-447.81
-446.494
-444.262
-441.066
-436.851
-431.567
-425.166
-417.599
-408.82
-398.785
-387.455
-374.805
-360.802
-345.415
-328.626
-310.408
-290.738
-269.604
-247.002
-222.943
-197.463
-170.624
-142.507
-113.222
-82.9273
-51.8123
-20.107
11.9201
43.9595
75.6596
106.635
136.47
164.725
190.946
214.678
235.484
252.963
266.757
276.568
282.177
283.436
280.229
272.645
260.715
244.703
224.764
201.243
174.552
145.121
113.43
80.0097
45.3969
10.1251
-25.2948
-60.3911
-94.7398
-127.976
-159.798
-189.962
-218.278
-244.606
-268.851
-290.976
-310.97
-328.845
-344.636
-358.391
-370.18
-380.08
-388.187
-394.604
-399.451
-402.87
-405.008
-406.019
-406.063
-405.282
-403.816
-401.776
-399.242
-396.279
-392.925
-389.2
-385.121
-380.696
-375.927
-370.804
-365.327
-359.476
-353.226
-346.556
-339.446
-331.866
-323.786
-315.172
-305.965
-296.083
-285.427
-273.886
-261.362
-247.795
-232.991
-216.708
-198.812
-179.251
-157.973
-134.87
-109.882
-82.9969
-54.2795
-23.8
8.2575
41.561
75.7854
110.528
145.306
179.639
212.873
244.455
273.74
300.091
322.947
341.574
355.127
363.924
371.108
373.561
370.703
363.547
352.523
337.782
319.788
298.921
275.674
250.619
224.167
196.783
168.948
140.973
113.224
85.9409
59.3722
33.7455
9.18457
-14.1812
-36.2425
-56.9641
-76.304
-94.2731
-110.885
-126.174
-140.205
-153.048
-164.785
-175.512
-185.325
-194.324
-202.604
-210.25
-217.339
-223.929
-230.056
-235.736
-240.961
-245.698
-249.9
-253.5
-256.42
-258.581
-259.875
-260.01
-258.997
-256.765
-253.219
-248.302
-241.94
-234.081
-224.712
-213.798
-201.315
-187.263
-171.639
-154.449
-135.717
-115.466
-93.7185
-70.6266
-46.3634
-399.651
-394.207
-387.715
-380.208
-371.721
-362.28
-351.917
-340.64
-328.445
-315.322
-301.232
-286.119
-269.928
-252.58
-234.001
-214.115
-192.847
-170.162
-146.041
-120.497
-93.578
-65.394
-36.0983
-5.85944
25.0671
56.4149
87.8366
118.95
149.413
178.804
206.7
232.757
256.605
277.903
296.338
311.619
323.526
331.877
336.519
337.365
334.338
327.47
316.812
302.437
284.583
263.496
239.412
212.692
183.716
152.832
120.509
87.1901
53.3138
19.3171
-14.4095
-47.4606
-79.4948
-110.228
-139.415
-166.89
-192.549
-216.351
-238.3
-258.43
-276.815
-293.571
-308.82
-322.595
-334.9
-345.77
-355.32
-363.727
-371.039
-377.368
-383.27
-388.86
-394.321
-399.618
-404.795
-409.725
-414.192
-418.073
-421.071
-423.118
-424.001
-423.674
-422.087
-419.105
-414.757
-409.045
-402.031
-393.743
-384.23
-373.51
-361.619
-348.601
-334.505
-319.361
-303.154
-285.865
-267.489
-248.028
-227.506
-205.958
-183.435
-160.012
-135.778
-110.837
-85.3221
-59.3752
-33.1563
-6.85603
19.3244
45.1636
70.4056
94.7744
117.984
139.724
159.66
177.475
192.859
205.515
215.191
221.699
224.84
224.596
221.01
214.108
203.934
190.685
174.565
155.812
134.687
111.485
86.5098
60.0733
32.5152
4.16285
-24.6667
-53.646
-82.4813
-110.903
-138.654
-165.532
-191.372
-216.032
-239.407
-261.418
-282.006
-301.143
-318.812
-335.017
-349.785
-363.169
-375.237
-386.073
-395.77
-404.424
-412.129
-418.973
-425.026
-430.355
-434.996
-438.968
-442.27
-444.885
-446.789
-447.948
-448.325
-447.88
-446.568
-444.34
-441.148
-436.937
-431.657
-425.261
-417.697
-408.921
-398.889
-387.563
-374.915
-360.914
-345.53
-328.743
-310.528
-290.859
-269.727
-247.125
-223.064
-197.581
-170.738
-142.613
-113.318
-83.0107
-51.8797
-20.1552
11.8945
43.96
75.6896
106.698
136.568
164.861
191.12
214.889
235.731
253.242
267.062
276.895
282.518
283.786
280.596
272.972
261.038
245.004
225.038
201.483
174.753
145.279
113.544
80.079
45.4228
10.1102
-25.3467
-60.4754
-94.851
-128.109
-159.949
-190.126
-218.45
-244.783
-269.03
-291.154
-311.145
-329.016
-344.801
-358.55
-370.332
-380.224
-388.322
-394.729
-399.565
-402.972
-405.098
-406.097
-406.128
-405.337
-403.863
-401.815
-399.276
-396.31
-392.954
-389.228
-385.148
-380.723
-375.954
-370.832
-365.357
-359.508
-353.259
-346.592
-339.484
-331.908
-323.833
-315.225
-306.027
-296.154
-285.507
-273.977
-261.463
-247.906
-233.112
-216.835
-198.946
-179.392
-158.116
-135.013
-110.02
-83.1273
-54.3976
-23.9006
8.17933
41.5099
75.7677
110.549
145.371
179.752
213.036
244.667
274.001
300.395
323.288
341.957
355.645
364.558
371.524
373.883
371.062
363.915
352.851
338.064
320.021
299.106
275.811
250.711
224.218
196.798
168.931
140.929
113.158
85.8574
59.2749
33.638
9.06998
-14.3003
-36.3638
-57.0855
-76.4235
-94.389
-110.996
-126.279
-140.302
-153.138
-164.866
-175.584
-185.389
-194.38
-202.652
-210.292
-217.377
-223.963
-230.089
-235.77
-240.997
-245.739
-249.946
-253.552
-256.48
-258.649
-259.955
-260.094
-259.088
-256.864
-253.324
-248.413
-242.056
-234.201
-224.836
-213.925
-201.445
-187.396
-171.774
-154.585
-135.854
-115.602
-93.8527
-70.7578
-46.4899
-399.781
-394.333
-387.837
-380.326
-371.836
-362.393
-352.029
-340.753
-328.561
-315.443
-301.36
-286.256
-270.075
-252.738
-234.17
-214.293
-193.033
-170.353
-146.235
-120.688
-93.7617
-65.5655
-36.252
-5.9897
24.9656
56.3478
87.8092
118.967
149.477
178.918
206.862
232.967
256.861
278.203
296.678
311.994
323.93
332.303
336.962
337.817
334.818
327.889
317.224
302.828
284.946
263.819
239.69
212.918
183.888
152.948
120.568
87.1943
53.2659
19.221
-14.5485
-47.6367
-79.7014
-110.459
-139.662
-167.145
-192.806
-216.604
-238.545
-258.666
-277.038
-293.78
-309.014
-322.779
-335.075
-345.933
-355.462
-363.845
-371.144
-377.447
-383.312
-388.869
-394.303
-399.579
-404.745
-409.675
-414.148
-418.042
-421.058
-423.123
-424.025
-423.717
-422.136
-419.182
-414.847
-409.146
-402.14
-393.857
-384.349
-373.633
-361.746
-348.732
-334.641
-319.502
-303.3
-286.017
-267.645
-248.186
-227.665
-206.115
-183.589
-160.159
-135.916
-110.964
-85.4353
-59.4706
-33.2311
-6.90679
19.3019
45.1728
70.4501
94.8583
118.111
139.895
159.876
177.737
193.163
205.854
215.559
222.084
225.263
224.981
221.395
214.473
204.276
190.995
174.838
156.044
134.876
111.629
86.6095
60.1287
32.5284
4.13603
-24.7305
-53.7427
-82.6068
-111.052
-138.822
-165.713
-191.562
-216.227
-239.605
-261.616
-282.202
-301.335
-319
-335.197
-349.956
-363.328
-375.385
-386.208
-395.892
-404.534
-412.229
-419.064
-425.11
-430.434
-435.074
-439.046
-442.349
-444.968
-446.876
-448.04
-448.421
-447.982
-446.675
-444.454
-441.269
-437.064
-431.79
-425.4
-417.842
-409.071
-399.044
-387.722
-375.078
-361.081
-345.7
-328.917
-310.705
-291.04
-269.909
-247.307
-223.244
-197.757
-170.906
-142.77
-113.46
-83.1337
-51.979
-20.2256
11.8581
43.9628
75.7366
106.794
136.718
165.067
191.383
215.208
236.103
253.662
267.523
277.388
283.033
284.311
281.14
273.472
261.53
245.459
225.45
201.844
175.055
145.517
113.716
80.1834
45.4621
10.0883
-25.4245
-60.6015
-95.0175
-128.309
-160.175
-190.371
-218.709
-245.049
-269.298
-291.42
-311.407
-329.271
-345.048
-358.787
-370.557
-380.438
-388.522
-394.913
-399.733
-403.123
-405.229
-406.21
-406.223
-405.417
-403.929
-401.871
-399.325
-396.354
-392.995
-389.267
-385.186
-380.76
-375.992
-370.871
-365.398
-359.552
-353.306
-346.642
-339.537
-331.966
-323.9
-315.302
-306.115
-296.257
-285.625
-274.11
-261.611
-248.069
-233.289
-217.023
-199.145
-179.599
-158.328
-135.224
-110.225
-83.3197
-54.5716
-24.0488
8.06452
41.4355
75.7434
110.583
145.47
179.923
213.282
244.99
274.398
300.86
323.813
342.543
356.388
365.432
372.189
374.42
371.626
364.451
353.336
338.485
320.371
299.383
276.016
250.849
224.295
196.819
168.905
140.863
113.058
85.7318
59.1289
33.4766
8.89793
-14.4792
-36.5459
-57.2677
-76.6029
-94.563
-111.163
-126.436
-140.449
-153.272
-164.988
-175.693
-185.485
-194.464
-202.725
-210.356
-217.433
-224.015
-230.139
-235.821
-241.052
-245.8
-250.015
-253.63
-256.569
-258.75
-260.074
-260.22
-259.225
-257.012
-253.482
-248.58
-242.23
-234.382
-225.022
-214.117
-201.641
-187.595
-171.976
-154.789
-136.058
-115.806
-94.0541
-70.9548
-46.6798
-399.954
-394.501
-388
-380.484
-371.989
-362.544
-352.178
-340.904
-328.716
-315.605
-301.531
-286.439
-270.271
-252.948
-234.394
-214.53
-193.282
-170.609
-146.493
-120.943
-94.007
-65.7944
-36.4574
-6.16386
24.8298
56.2579
87.7723
118.989
149.562
179.068
207.078
233.247
257.203
278.602
297.131
312.494
324.468
332.872
337.551
338.418
335.436
328.468
317.779
303.353
285.43
264.251
240.059
213.22
184.117
153.102
120.647
87.1998
53.2015
19.0926
-14.7342
-47.872
-79.9774
-110.766
-139.99
-167.486
-193.149
-216.942
-238.873
-258.98
-277.337
-294.058
-309.273
-323.025
-335.309
-346.151
-355.653
-364.002
-371.281
-377.553
-383.368
-388.881
-394.278
-399.526
-404.679
-409.607
-414.09
-418.002
-421.039
-423.13
-424.057
-423.776
-422.201
-419.285
-414.966
-409.28
-402.284
-394.01
-384.508
-373.796
-361.915
-348.907
-334.822
-319.69
-303.496
-286.22
-267.853
-248.398
-227.877
-206.325
-183.794
-160.356
-136.101
-111.134
-85.5863
-59.5979
-33.331
-6.97466
19.2718
45.1849
70.5092
94.97
118.28
140.123
160.166
178.086
193.568
206.307
216.05
222.598
225.801
225.513
221.915
214.963
204.733
191.41
175.202
156.354
135.127
111.822
86.7427
60.2029
32.5464
4.10048
-24.8155
-53.8714
-82.774
-111.251
-139.044
-165.954
-191.815
-216.487
-239.868
-261.879
-282.463
-301.592
-319.249
-335.437
-350.183
-363.541
-375.581
-386.388
-396.055
-404.682
-412.362
-419.186
-425.222
-430.54
-435.177
-439.149
-442.456
-445.079
-446.992
-448.162
-448.55
-448.118
-446.82
-444.607
-441.43
-437.233
-431.968
-425.585
-418.035
-409.272
-399.251
-387.935
-375.297
-361.303
-345.928
-329.149
-310.942
-291.28
-270.152
-247.55
-223.485
-197.992
-171.131
-142.98
-113.651
-83.2986
-52.1122
-20.3205
11.8085
43.9655
75.7984
106.921
136.916
165.34
191.733
215.633
236.599
254.222
268.137
278.044
283.718
285.01
281.845
274.154
262.187
246.066
225.998
202.325
175.457
145.833
113.943
80.3207
45.5122
10.0567
-25.5307
-60.7723
-95.242
-128.578
-160.479
-190.701
-219.056
-245.405
-269.657
-291.777
-311.758
-329.613
-345.378
-359.103
-370.859
-380.723
-388.789
-395.16
-399.958
-403.324
-405.405
-406.361
-406.35
-405.522
-404.017
-401.945
-399.39
-396.413
-393.049
-389.319
-385.236
-380.809
-376.042
-370.922
-365.453
-359.61
-353.368
-346.708
-339.608
-332.044
-323.988
-315.404
-306.234
-296.393
-285.781
-274.286
-261.807
-248.286
-233.524
-217.273
-199.409
-179.875
-158.61
-135.506
-110.498
-83.5761
-54.8035
-24.2465
7.91132
41.3364
75.7109
110.627
145.603
180.151
213.613
245.423
274.933
301.491
324.529
343.346
357.35
366.482
373.091
375.197
372.39
365.178
353.989
339.047
320.837
299.752
276.29
251.032
224.396
196.848
168.87
140.774
112.925
85.564
58.9337
33.2609
8.66822
-14.7179
-36.789
-57.5108
-76.8423
-94.7952
-111.385
-126.646
-140.644
-153.452
-165.151
-175.839
-185.613
-194.576
-202.822
-210.44
-217.508
-224.084
-230.205
-235.889
-241.125
-245.881
-250.107
-253.734
-256.688
-258.885
-260.231
-260.388
-259.407
-257.21
-253.693
-248.803
-242.462
-234.622
-225.27
-214.372
-201.902
-187.861
-172.245
-155.061
-136.332
-116.078
-94.3228
-71.2176
-46.9332
-400.171
-394.711
-388.203
-380.681
-372.181
-362.732
-352.365
-341.092
-328.909
-315.806
-301.744
-286.667
-270.517
-253.211
-234.675
-214.827
-193.592
-170.929
-146.816
-121.262
-94.3142
-66.0813
-36.7147
-6.38225
24.6593
56.1448
87.7255
119.016
149.669
179.257
207.348
233.597
257.63
279.102
297.697
313.119
325.142
333.584
338.289
339.17
336.191
329.208
318.478
304.011
286.037
264.79
240.522
213.597
184.404
153.294
120.745
87.2061
53.1206
18.9315
-14.967
-48.1668
-80.3231
-111.15
-140.402
-167.912
-193.579
-217.365
-239.282
-259.373
-277.709
-294.406
-309.596
-323.331
-335.601
-346.424
-355.894
-364.202
-371.45
-377.686
-383.439
-388.896
-394.246
-399.459
-404.596
-409.521
-414.016
-417.95
-421.016
-423.138
-424.098
-423.851
-422.301
-419.416
-415.116
-409.447
-402.465
-394.201
-384.707
-374.001
-362.126
-349.126
-335.049
-319.925
-303.741
-286.473
-268.113
-248.662
-228.143
-206.588
-184.05
-160.603
-136.332
-111.347
-85.7757
-59.7577
-33.4566
-7.06019
19.2333
45.1992
70.5823
95.1089
118.491
140.408
160.526
178.523
194.074
206.874
216.663
223.242
226.46
226.186
222.565
215.576
205.305
191.927
175.658
156.741
135.442
112.063
86.9086
60.2951
32.5684
4.05549
-24.9223
-54.0328
-82.9836
-111.5
-139.323
-166.256
-192.132
-216.813
-240.198
-262.209
-282.79
-301.912
-319.561
-335.736
-350.467
-363.807
-375.827
-386.613
-396.259
-404.866
-412.529
-419.337
-425.362
-430.673
-435.306
-439.279
-442.589
-445.217
-447.138
-448.315
-448.712
-448.289
-447
-444.798
-441.632
-437.445
-432.191
-425.819
-418.278
-409.524
-399.511
-388.203
-375.57
-361.583
-346.213
-329.441
-311.239
-291.583
-270.457
-247.855
-223.787
-198.287
-171.414
-143.244
-113.89
-83.5062
-52.28
-20.4404
11.7451
43.9671
75.8739
107.079
137.163
165.68
192.168
216.163
237.218
254.921
268.904
278.864
284.575
285.884
282.716
275.015
263.008
246.825
226.684
202.925
175.958
146.226
114.225
80.4901
45.5724
10.0141
-25.6666
-60.9885
-95.5256
-128.917
-160.862
-191.116
-219.493
-245.853
-270.108
-292.225
-312.198
-330.041
-345.791
-359.501
-371.238
-381.082
-389.125
-395.47
-400.241
-403.577
-405.626
-406.551
-406.51
-405.655
-404.128
-402.038
-399.471
-396.486
-393.117
-389.384
-385.299
-380.871
-376.105
-370.988
-365.523
-359.684
-353.446
-346.791
-339.697
-332.142
-324.099
-315.532
-306.382
-296.565
-285.976
-274.507
-262.053
-248.557
-233.818
-217.586
-199.74
-180.222
-158.963
-135.858
-110.841
-83.8975
-55.0943
-24.4947
7.71878
41.2115
75.6693
110.683
145.768
180.438
214.026
245.967
275.606
302.286
325.435
344.365
358.528
367.763
374.224
376.208
373.365
366.085
354.803
339.751
321.42
300.212
276.631
251.261
224.522
196.882
168.824
140.661
112.758
85.3535
58.6891
32.9909
8.38061
-15.0167
-37.0932
-57.8149
-77.1418
-95.0857
-111.663
-126.909
-140.889
-153.677
-165.355
-176.021
-185.774
-194.715
-202.943
-210.546
-217.602
-224.17
-230.288
-235.973
-241.216
-245.982
-250.222
-253.865
-256.836
-259.052
-260.426
-260.598
-259.636
-257.457
-253.957
-249.081
-242.753
-234.923
-225.581
-214.691
-202.228
-188.193
-172.582
-155.401
-136.673
-116.419
-94.6589
-71.5466
-47.2504
-400.431
-394.964
-388.447
-380.918
-372.41
-362.957
-352.588
-341.317
-329.141
-316.048
-302
-286.941
-270.81
-253.527
-235.012
-215.183
-193.966
-171.313
-147.204
-121.646
-94.6837
-66.4263
-37.0244
-6.6453
24.4537
56.008
87.6686
119.048
149.796
179.482
207.672
234.016
258.142
279.701
298.378
313.87
325.951
334.438
339.175
340.072
337.091
330.099
319.32
304.804
286.765
265.439
241.077
214.05
184.747
153.525
120.862
87.2131
53.0226
18.7371
-15.2474
-48.5216
-80.7389
-111.613
-140.897
-168.424
-194.095
-217.873
-239.773
-259.845
-278.157
-294.824
-309.985
-323.699
-335.952
-346.752
-356.184
-364.443
-371.649
-377.848
-383.524
-388.913
-394.208
-399.377
-404.494
-409.416
-413.926
-417.886
-420.986
-423.146
-424.147
-423.941
-422.43
-419.573
-415.297
-409.648
-402.681
-394.431
-384.946
-374.247
-362.38
-349.388
-335.321
-320.207
-304.034
-286.777
-268.425
-248.979
-228.461
-206.903
-184.358
-160.899
-136.611
-111.603
-86.0035
-59.9502
-33.608
-7.16366
19.1861
45.2152
70.6688
95.2744
118.742
140.749
160.959
179.046
194.68
207.553
217.4
224.016
227.251
226.993
223.345
216.313
205.99
192.547
176.203
157.204
135.818
112.351
87.107
60.4049
32.594
4.00056
-25.0514
-54.2275
-83.2362
-111.799
-139.659
-166.618
-192.512
-217.204
-240.594
-262.605
-283.182
-302.297
-319.935
-336.096
-350.808
-364.126
-376.123
-386.883
-396.504
-405.087
-412.729
-419.519
-425.53
-430.832
-435.461
-439.435
-442.749
-445.385
-447.314
-448.5
-448.907
-448.495
-447.218
-445.029
-441.875
-437.701
-432.459
-426.099
-418.571
-409.828
-399.824
-388.524
-375.9
-361.919
-346.556
-329.792
-311.597
-291.946
-270.825
-248.223
-224.15
-198.642
-171.755
-143.562
-114.179
-83.7568
-52.4831
-20.586
11.6674
43.9675
75.9627
107.266
137.457
166.087
192.691
216.799
237.961
255.759
269.825
279.849
285.603
286.934
283.76
276.049
263.992
247.736
227.507
203.643
176.558
146.697
114.561
80.6911
45.642
9.96002
-25.8326
-61.251
-95.869
-129.327
-161.323
-191.616
-220.019
-246.393
-270.651
-292.765
-312.728
-330.557
-346.29
-359.98
-371.695
-381.513
-389.529
-395.844
-400.581
-403.881
-405.893
-406.779
-406.702
-405.815
-404.261
-402.151
-399.569
-396.575
-393.2
-389.463
-385.375
-380.946
-376.18
-371.067
-365.607
-359.773
-353.541
-346.891
-339.804
-332.26
-324.233
-315.686
-306.56
-296.771
-286.212
-274.773
-262.349
-248.883
-234.17
-217.962
-200.139
-180.639
-159.389
-136.282
-111.253
-84.2847
-55.4448
-24.7941
7.48628
41.0604
75.6183
110.748
145.965
180.78
214.522
246.621
276.416
303.244
326.53
345.594
359.918
369.275
375.586
377.45
374.547
367.172
355.78
340.595
322.119
300.765
277.039
251.534
224.671
196.921
168.769
140.526
112.557
85.0998
58.3946
32.666
8.03479
-15.3759
-37.4587
-58.1805
-77.5016
-95.4347
-111.997
-127.224
-141.183
-153.947
-165.6
-176.24
-185.966
-194.883
-203.089
-210.672
-217.714
-224.273
-230.388
-236.075
-241.325
-246.103
-250.359
-254.021
-257.014
-259.253
-260.657
-260.849
-259.911
-257.754
-254.273
-249.414
-243.101
-235.284
-225.953
-215.074
-202.619
-188.592
-172.986
-155.81
-137.084
-116.827
-95.0628
-71.9418
-47.6315
-400.734
-395.258
-388.732
-381.193
-372.678
-363.219
-352.848
-341.58
-329.41
-316.329
-302.298
-287.26
-271.153
-253.895
-235.405
-215.6
-194.401
-171.762
-147.658
-122.095
-95.1158
-66.8301
-37.3869
-6.95351
24.2125
55.847
87.6009
119.084
149.944
179.745
208.049
234.506
258.74
280.401
299.171
314.746
326.895
335.436
340.21
341.125
338.143
331.136
320.307
305.73
287.616
266.197
241.725
214.578
185.148
153.794
120.999
87.2203
52.9072
18.5091
-15.576
-48.9371
-81.2256
-112.154
-141.476
-169.024
-194.698
-218.466
-240.347
-260.395
-278.679
-295.314
-310.438
-324.128
-336.362
-347.137
-356.526
-364.726
-371.878
-378.037
-383.625
-388.933
-394.162
-399.28
-404.373
-409.292
-413.818
-417.81
-420.949
-423.154
-424.203
-424.048
-422.586
-419.757
-415.507
-409.882
-402.934
-394.698
-385.224
-374.534
-362.676
-349.694
-335.638
-320.536
-304.376
-287.131
-268.789
-249.35
-228.833
-207.271
-184.718
-161.244
-136.936
-111.902
-86.2701
-60.1756
-33.7857
-7.28546
19.1298
45.2325
70.7684
95.466
119.034
141.145
161.462
179.655
195.388
208.345
218.259
224.92
228.176
227.929
224.253
217.174
206.79
193.27
176.839
157.744
136.256
112.686
87.3371
60.5318
32.6226
3.93516
-25.2032
-54.4559
-83.5322
-112.15
-140.052
-167.042
-192.957
-217.661
-241.057
-263.067
-283.639
-302.747
-320.372
-336.516
-351.206
-364.499
-376.467
-387.198
-396.79
-405.345
-412.961
-419.731
-425.726
-431.017
-435.642
-439.617
-442.937
-445.58
-447.519
-448.716
-449.135
-448.736
-447.473
-445.298
-442.159
-438.001
-432.773
-426.428
-418.913
-410.182
-400.19
-388.901
-376.285
-362.312
-346.957
-330.202
-312.016
-292.372
-271.255
-248.653
-224.576
-199.058
-172.153
-143.935
-114.517
-84.0507
-52.7216
-20.7575
11.5749
43.9662
76.0648
107.483
137.799
166.561
193.299
217.539
238.827
256.738
270.9
280.998
286.803
288.159
284.981
277.252
265.139
248.8
228.466
204.482
177.257
147.245
114.952
80.9235
45.7204
9.89377
-26.0295
-61.5605
-96.2729
-129.809
-161.865
-192.203
-220.636
-247.025
-271.288
-293.397
-313.348
-331.16
-346.873
-360.54
-372.228
-382.018
-390.002
-396.281
-400.98
-404.237
-406.204
-407.046
-406.926
-406.002
-404.417
-402.282
-399.684
-396.679
-393.297
-389.556
-385.465
-381.035
-376.268
-371.16
-365.705
-359.877
-353.652
-347.009
-339.93
-332.399
-324.389
-315.866
-306.768
-297.013
-286.487
-275.084
-262.694
-249.263
-234.582
-218.402
-200.606
-181.127
-159.887
-136.779
-111.735
-84.7383
-55.8554
-25.1451
7.21317
40.8824
75.5571
110.822
146.194
181.18
215.102
247.385
277.364
304.368
327.816
347.034
361.522
370.988
377.177
378.922
375.936
368.459
356.924
341.58
322.935
301.408
277.514
251.85
224.844
196.966
168.702
140.365
112.32
84.8023
58.0499
32.2859
7.63039
-15.7957
-37.8859
-58.6075
-77.922
-95.8424
-112.388
-127.593
-141.526
-154.262
-165.885
-176.495
-186.191
-195.079
-203.258
-210.82
-217.844
-224.393
-230.503
-236.193
-241.451
-246.245
-250.519
-254.204
-257.221
-259.486
-260.926
-261.141
-260.231
-258.1
-254.642
-249.803
-243.508
-235.705
-226.388
-215.52
-203.076
-189.057
-173.458
-156.286
-137.562
-117.305
-95.5345
-72.4036
-48.0769
-401.081
-395.595
-389.058
-381.508
-372.984
-363.519
-353.145
-341.88
-329.718
-316.65
-302.638
-287.624
-271.545
-254.316
-235.855
-216.077
-194.9
-172.276
-148.178
-122.61
-95.6112
-67.2931
-37.8029
-7.30746
23.935
55.6613
87.5219
119.125
150.112
180.045
208.48
235.066
259.424
281.202
300.08
315.749
327.976
336.578
341.393
342.331
339.347
332.321
321.437
306.792
288.591
267.063
242.466
215.182
185.606
154.1
121.153
87.2273
52.7738
18.2468
-15.9534
-49.4139
-81.7838
-112.775
-142.139
-169.71
-195.388
-219.145
-241.004
-261.024
-279.277
-295.874
-310.958
-324.619
-336.831
-347.578
-356.922
-365.053
-372.137
-378.255
-383.743
-388.956
-394.108
-399.167
-404.232
-409.147
-413.692
-417.72
-420.905
-423.162
-424.266
-424.169
-422.765
-419.968
-415.747
-410.149
-403.223
-395.004
-385.542
-374.862
-363.013
-350.042
-335.999
-320.911
-304.766
-287.536
-269.204
-249.773
-229.259
-207.692
-185.129
-161.64
-137.308
-112.245
-86.5754
-60.4341
-33.9899
-7.42594
19.064
45.2506
70.8804
95.6833
119.365
141.596
162.035
180.351
196.196
209.251
219.242
225.954
229.236
228.997
225.291
218.158
207.703
194.096
177.564
158.36
136.756
113.068
87.5987
60.6755
32.6539
3.85891
-25.3782
-54.7186
-83.8721
-112.552
-140.502
-167.527
-193.466
-218.183
-241.585
-263.595
-284.162
-303.261
-320.872
-336.995
-351.661
-364.925
-376.861
-387.558
-397.116
-405.64
-413.227
-419.973
-425.949
-431.228
-435.848
-439.824
-443.151
-445.804
-447.754
-448.964
-449.395
-449.011
-447.764
-445.607
-442.485
-438.343
-433.133
-426.804
-419.304
-410.589
-400.61
-389.332
-376.726
-362.761
-347.417
-330.671
-312.495
-292.859
-271.747
-249.146
-225.064
-199.535
-172.61
-144.363
-114.905
-84.3882
-52.9958
-20.9552
11.4674
43.9628
76.1796
107.73
138.188
167.101
193.994
218.386
239.816
257.857
272.129
282.313
288.177
289.562
286.381
278.627
266.45
250.017
229.565
205.44
178.056
147.87
115.396
81.1867
45.8071
9.81459
-26.2581
-61.9178
-96.7381
-130.362
-162.487
-192.876
-221.343
-247.75
-272.018
-294.121
-314.058
-331.852
-347.541
-361.181
-372.84
-382.596
-390.543
-396.782
-401.436
-404.645
-406.561
-407.352
-407.183
-406.216
-404.595
-402.432
-399.815
-396.798
-393.409
-389.662
-385.568
-381.136
-376.37
-371.267
-365.819
-359.998
-353.78
-347.144
-340.075
-332.557
-324.567
-316.071
-307.007
-297.289
-286.803
-275.439
-263.09
-249.699
-235.053
-218.906
-201.141
-181.687
-160.458
-137.349
-112.288
-85.2588
-56.3269
-25.5485
6.89876
40.6769
75.4851
110.906
146.454
181.636
215.764
248.259
278.45
305.656
329.292
348.684
363.341
372.911
378.997
380.622
377.53
369.941
358.237
342.707
323.866
302.142
278.056
252.21
225.039
197.014
168.623
140.18
112.047
84.4605
57.6542
31.85
7.16698
-16.2766
-38.3751
-59.0964
-78.4031
-96.3089
-112.834
-128.014
-141.919
-154.623
-166.212
-176.786
-186.447
-195.302
-203.452
-210.988
-217.993
-224.529
-230.635
-236.327
-241.596
-246.406
-250.702
-254.412
-257.457
-259.752
-261.231
-261.474
-260.597
-258.496
-255.065
-250.249
-243.972
-236.187
-226.885
-216.031
-203.598
-189.589
-173.998
-156.831
-138.11
-117.851
-96.0743
-72.9321
-48.5868
-401.472
-395.974
-389.424
-381.862
-373.327
-363.855
-353.479
-342.216
-330.063
-317.01
-303.02
-288.033
-271.985
-254.789
-236.361
-216.614
-195.462
-172.855
-148.765
-123.19
-96.1703
-67.816
-38.2729
-7.7078
23.6205
55.45
87.431
119.168
150.3
180.382
208.965
235.696
260.193
282.103
301.102
316.878
329.193
337.864
342.727
343.688
340.704
333.655
322.713
307.989
289.689
268.04
243.301
215.862
186.121
154.444
121.327
87.2336
52.6218
17.9494
-16.3804
-49.9528
-82.4143
-113.476
-142.888
-170.485
-196.167
-219.91
-241.743
-261.732
-279.949
-296.505
-311.543
-325.17
-337.359
-348.075
-357.373
-365.425
-372.429
-378.494
-383.877
-388.982
-394.046
-399.037
-404.069
-408.98
-413.546
-417.616
-420.853
-423.168
-424.334
-424.304
-422.966
-420.204
-416.017
-410.449
-403.547
-395.348
-385.9
-375.23
-363.392
-350.433
-336.404
-321.332
-305.204
-287.99
-269.672
-250.249
-229.737
-208.166
-185.593
-162.085
-137.727
-112.631
-86.9199
-60.7262
-34.2211
-7.58557
18.9881
45.2688
71.0041
95.9255
119.736
142.101
162.679
181.132
197.104
210.269
220.348
227.118
230.43
230.196
226.457
219.265
208.731
195.024
178.379
159.051
137.317
113.496
87.8912
60.8355
32.6874
3.77121
-25.5769
-55.016
-84.2564
-113.007
-141.009
-168.075
-194.039
-218.771
-242.18
-264.189
-284.75
-303.839
-321.434
-337.535
-352.174
-365.405
-377.304
-387.963
-397.483
-405.971
-413.525
-420.244
-426.199
-431.465
-436.08
-440.058
-443.392
-446.055
-448.018
-449.243
-449.689
-449.322
-448.093
-445.954
-442.852
-438.729
-433.538
-427.227
-419.746
-411.047
-401.082
-389.818
-377.223
-363.268
-347.934
-331.2
-313.034
-293.407
-272.302
-249.701
-225.613