/*--------------------------------*- C++ -*----------------------------------*\
| =========                 |                                                 |
| \\      /  F ield         | OpenFOAM: The Open Source CFD Toolbox           |
|  \\    /   O peration     | Version:  3.0.1                                 |
|   \\  /    A nd           | Web:      www.OpenFOAM.org                      |
|    \\/     M anipulation  |                                                 |
\*---------------------------------------------------------------------------*/
FoamFile
{
    version     2.0;
    format      ascii;
    class       volScalarField;
    location    "9";
    object      p_rgh;
}
// * * * * * * * * * * * * * * * * * * * * * * * * * * * * * * * * * * * * * //

dimensions      [1 -1 -2 0 0 0 0];

internalField   nonuniform List<scalar> 
21420
(
166.899
198.718
229.922
260.027
288.635
315.194
339.312
360.571
378.641
393.258
404.178
411.218
414.148
412.665
407.026
397.462
383.978
366.791
346.158
322.377
295.82
266.845
235.854
203.313
169.648
135.309
100.689
66.1568
32.249
1.34358
-30.5591
-61.4327
-91.0066
-119.121
-145.675
-170.591
-193.828
-215.358
-235.162
-253.238
-269.589
-284.215
-297.128
-308.337
-317.855
-325.699
-331.883
-336.427
-339.321
-340.537
-340.034
-337.91
-334.133
-328.702
-321.609
-312.863
-302.452
-290.356
-276.597
-261.183
-244.137
-225.5
-205.3
-183.595
-160.458
-135.959
-110.186
-83.2431
-55.2273
-26.2552
3.56059
34.2259
65.2152
96.4596
127.783
158.963
189.746
219.849
248.956
276.724
302.791
326.773
348.283
366.938
382.371
394.261
402.336
406.397
406.252
401.916
393.433
380.85
364.378
344.268
320.846
294.502
265.674
234.843
202.522
169.236
135.506
101.836
68.6894
36.4809
5.57061
-23.7796
-51.3493
-76.9905
-100.616
-122.191
-141.72
-159.244
-174.825
-188.54
-200.473
-210.712
-219.343
-226.45
-232.11
-236.388
-239.359
-241.052
-241.498
-240.769
-238.864
-235.801
-231.59
-226.231
-219.721
-212.056
-203.225
-193.221
-182.037
-169.672
-156.129
-141.425
-125.588
-108.657
-90.6885
-71.7536
-51.9416
-31.3605
-10.1365
11.5908
33.6515
55.8729
78.0637
100.02
121.531
142.377
162.338
181.198
198.743
214.772
229.096
241.55
251.986
260.284
266.359
270.156
271.631
270.824
267.753
262.508
255.173
245.885
234.799
222.094
207.97
192.642
176.336
159.284
141.718
123.863
105.939
88.1499
70.6836
53.7093
37.3747
21.8107
7.38883
-6.30752
-18.9558
-30.5031
-40.9185
-50.1849
-58.2985
-65.2672
-71.1091
-75.8515
-79.5289
-82.186
-83.8649
-84.6111
-84.4857
-83.5423
-81.8335
-79.4156
-76.3444
-72.6761
-68.4672
-63.7739
-58.6522
-53.1575
-47.3445
-41.2675
-34.9791
-28.531
-21.9738
-15.3566
-8.7268
-2.1303
4.3884
10.7893
17.0326
23.0819
28.9033
34.4658
39.7415
44.7057
49.3368
53.6167
57.5304
61.0664
64.2164
66.9754
69.3417
71.3168
72.9053
74.1149
74.9557
75.4408
75.5842
75.4031
74.9159
74.1403
73.0968
71.8061
70.2898
68.5702
66.6695
64.6105
62.4154
60.1063
57.7046
55.231
52.7051
50.1457
47.5704
44.9954
42.4359
39.9055
37.4168
34.9807
32.6071
30.3043
28.0796
25.9389
23.8872
21.9282
20.0646
18.2984
16.6305
15.0613
13.5902
12.2162
10.9377
9.75247
8.65803
7.65145
6.72949
5.88869
5.12539
4.43577
3.8159
3.26178
2.76942
2.33479
1.95394
1.62296
1.33802
1.09538
0.891427
0.722708
0.585843
0.477652
0.395078
0.335228
0.295334
0.273157
0.266181
0.272299
0.289569
0.316207
0.350572
0.39116
0.436596
0.485637
0.537166
0.590184
0.643807
0.697257
0.749855
0.801017
0.850242
0.89711
0.941274
0.982453
1.02043
1.05503
1.08616
1.11373
1.13772
1.15813
1.17502
1.18845
1.19851
1.20533
1.20905
1.20909
1.20617
1.20049
1.19221
1.1815
1.16852
1.15344
1.13643
1.11766
1.09731
1.07554
1.0525
1.02837
1.00329
0.977401
0.950853
0.923776
0.896293
0.868522
0.840575
0.812553
0.784553
0.756663
0.728963
0.701529
0.674429
0.647723
0.621467
0.595712
0.570502
0.545878
0.521873
0.49852
0.475845
0.453871
0.432618
0.412102
0.39233
166.892
198.728
229.949
260.072
288.698
315.275
339.41
360.686
378.77
393.399
404.328
411.374
414.318
412.825
407.183
397.611
384.116
366.916
346.267
322.47
295.894
266.9
235.89
203.33
169.648
135.294
100.66
66.1162
32.2005
1.27499
-30.6313
-61.508
-91.0843
-119.2
-145.755
-170.67
-193.906
-215.436
-235.238
-253.313
-269.662
-284.287
-297.199
-308.406
-317.923
-325.766
-331.949
-336.492
-339.386
-340.601
-340.1
-337.975
-334.198
-328.768
-321.676
-312.931
-302.521
-290.426
-276.668
-261.255
-244.209
-225.572
-205.37
-183.665
-160.527
-136.026
-110.251
-83.3047
-55.2858
-26.3103
3.50954
34.1835
65.1789
96.4302
127.762
158.951
189.746
219.862
248.983
276.767
302.851
326.851
348.378
367.05
382.499
394.402
402.487
406.56
406.407
402.069
393.582
380.991
364.506
344.379
320.938
294.573
265.723
234.87
202.527
169.22
135.471
101.784
68.6231
36.4031
5.48417
-23.8718
-51.4448
-77.087
-100.712
-122.284
-141.81
-159.33
-174.907
-188.618
-200.546
-210.781
-219.408
-226.512
-232.169
-236.445
-239.413
-241.103
-241.549
-240.819
-238.914
-235.85
-231.639
-226.28
-219.771
-212.106
-203.276
-193.273
-182.089
-169.724
-156.182
-141.478
-125.639
-108.707
-90.7365
-71.7989
-51.9835
-31.3981
-10.169
11.5641
33.6315
55.8604
78.0592
100.024
121.544
142.399
162.37
181.239
198.794
214.831
229.164
241.624
252.066
260.369
266.447
270.245
271.722
270.91
267.837
262.587
255.247
245.952
234.858
222.144
208.011
192.673
176.358
159.297
141.721
123.858
105.926
88.1296
70.6571
53.6775
37.3385
21.7678
7.34866
-6.35283
-19.0024
-30.5504
-40.9658
-50.232
-58.3449
-65.3125
-71.1531
-75.8939
-79.5696
-82.2248
-83.9015
-84.6453
-84.5182
-83.5726
-81.8617
-79.4417
-76.3683
-72.6979
-68.4869
-63.7914
-58.6676
-53.1708
-47.3559
-41.2768
-34.9864
-28.5364
-21.9773
-15.3582
-8.72656
-2.12831
4.39205
10.7945
17.0394
23.0901
28.9127
34.4763
39.7531
44.7182
49.3502
53.6307
57.5449
61.0813
64.2316
66.9907
69.3569
71.3319
72.9202
74.1293
74.9697
75.4543
75.5969
75.4151
74.9271
74.1508
73.1064
71.8149
70.2977
68.5772
66.6757
64.6157
62.4198
60.1098
57.7073
55.2329
52.7063
50.1462
47.5702
44.9946
42.4346
39.9037
37.4145
34.9781
32.6041
30.3011
28.0762
25.9353
23.8835
21.9243
20.0607
18.2944
16.6266
15.0574
13.5863
12.2124
10.934
9.74886
8.65454
7.64809
6.72627
5.88562
5.12247
4.43301
3.81329
3.25934
2.76713
2.33267
1.95197
1.62114
1.33635
1.09385
0.890037
0.721449
0.58471
0.47664
0.394181
0.334437
0.294637
0.272556
0.265663
0.271857
0.289197
0.3159
0.350325
0.390967
0.436453
0.485538
0.537107
0.59016
0.643813
0.69729
0.749911
0.801093
0.850335
0.897216
0.941391
0.982579
1.02056
1.05517
1.08629
1.11387
1.13786
1.15827
1.17516
1.18858
1.19864
1.20546
1.20917
1.2092
1.20627
1.20059
1.1923
1.18158
1.1686
1.15351
1.1365
1.11773
1.09737
1.07558
1.05254
1.0284
1.00332
0.977427
0.950874
0.923792
0.896304
0.868529
0.840578
0.812552
0.784549
0.756655
0.728953
0.701516
0.674413
0.647705
0.621448
0.595691
0.57048
0.545854
0.521848
0.498494
0.475818
0.453844
0.43259
0.412074
0.392302
166.879
198.747
230.004
260.163
288.826
315.439
339.608
360.915
379.027
393.68
404.628
411.685
414.658
413.144
407.499
397.909
384.393
367.166
346.487
322.654
296.042
267.01
235.962
203.366
169.648
135.262
100.601
66.0353
32.1035
1.13803
-30.7755
-61.6587
-91.2396
-119.358
-145.913
-170.828
-194.063
-215.59
-235.39
-253.462
-269.808
-284.431
-297.34
-308.544
-318.059
-325.9
-332.08
-336.62
-339.515
-340.729
-340.232
-338.104
-334.327
-328.898
-321.807
-313.065
-302.656
-290.563
-276.806
-261.394
-244.348
-225.709
-205.506
-183.799
-160.657
-136.152
-110.372
-83.4204
-55.3951
-26.4123
3.41587
34.1075
65.1151
96.3806
127.729
158.939
189.756
219.898
249.049
276.865
302.983
327.018
348.581
367.287
382.767
394.695
402.801
406.891
406.738
402.392
393.895
381.284
364.772
344.613
321.134
294.728
265.834
234.936
202.55
169.2
135.413
101.691
68.5016
36.2586
5.32214
-24.0456
-51.6251
-77.2694
-100.893
-122.46
-141.98
-159.492
-175.061
-188.763
-200.683
-210.91
-219.53
-226.627
-232.278
-236.549
-239.513
-241.196
-241.643
-240.911
-239.005
-235.941
-231.73
-226.372
-219.864
-212.2
-203.372
-193.37
-182.188
-169.823
-156.281
-141.576
-125.736
-108.801
-90.8269
-71.8839
-52.0617
-31.4679
-10.2286
11.5158
33.5965
55.8401
78.0548
100.037
121.575
142.449
162.439
181.326
198.899
214.954
229.302
241.776
252.229
260.541
266.625
270.426
271.907
271.084
268.007
262.749
255.397
246.088
234.977
222.246
208.094
192.738
176.403
159.322
141.728
123.848
105.901
88.0899
70.6049
53.6149
37.2671
21.6833
7.26838
-6.44297
-19.0952
-30.6444
-41.0601
-50.3257
-58.4371
-65.4026
-71.2406
-75.9783
-79.6506
-82.3019
-83.974
-84.7139
-84.583
-83.6329
-81.9178
-79.4935
-76.4159
-72.7412
-68.5259
-63.8263
-58.6983
-53.1974
-47.3783
-41.2952
-35.0008
-28.5469
-21.984
-15.3612
-8.72595
-2.12422
4.39947
10.8051
17.0529
23.1064
28.9316
34.4976
39.7765
44.7434
49.3769
53.6588
57.5741
61.1112
64.262
67.0213
69.3875
71.3622
72.9499
74.1583
74.9977
75.4812
75.6224
75.4393
74.9498
74.1718
73.1258
71.8325
70.3136
68.5913
66.6879
64.6262
62.4285
60.1168
57.7127
55.2367
52.7086
50.1471
47.5699
44.9931
42.432
39.9002
37.4101
34.9729
32.5983
30.2947
28.0694
25.9282
23.876
21.9167
20.0529
18.2866
16.6187
15.0496
13.5786
12.2048
10.9266
9.74167
8.64759
7.6414
6.71986
5.8795
5.11666
4.42751
3.80811
3.25447
2.76259
2.32843
1.94805
1.61752
1.33302
1.09081
0.887268
0.718941
0.582457
0.474627
0.392394
0.332864
0.293251
0.27136
0.264632
0.270978
0.288458
0.31529
0.349834
0.390584
0.436168
0.485342
0.53699
0.590112
0.643827
0.697357
0.750025
0.801246
0.85052
0.897429
0.941626
0.982831
1.02082
1.05544
1.08657
1.11415
1.13814
1.15855
1.17543
1.18884
1.19889
1.2057
1.20941
1.20942
1.20648
1.20078
1.19249
1.18176
1.16876
1.15366
1.13664
1.11785
1.09748
1.07568
1.05263
1.02848
1.00338
0.977479
0.950916
0.923823
0.896327
0.868543
0.840584
0.812551
0.78454
0.75664
0.728932
0.70149
0.674383
0.64767
0.621409
0.595649
0.570435
0.545806
0.521798
0.498442
0.475764
0.453789
0.432534
0.412017
0.392245
166.86
198.777
230.086
260.299
289.017
315.683
339.903
361.259
379.414
394.102
405.078
412.15
415.157
413.633
407.976
398.356
384.807
367.541
346.816
322.931
296.264
267.175
236.07
203.418
169.648
135.215
100.513
65.9137
31.9572
0.93275
-30.9918
-61.8847
-91.4726
-119.595
-146.152
-171.066
-194.298
-215.822
-235.618
-253.686
-270.028
-284.647
-297.551
-308.752
-318.263
-326.1
-332.277
-336.813
-339.706
-340.924
-340.429
-338.297
-334.521
-329.093
-322.005
-313.265
-302.859
-290.768
-277.013
-261.602
-244.556
-225.916
-205.711
-183.999
-160.853
-136.341
-110.554
-83.5943
-55.5594
-26.5658
3.27488
33.993
65.019
96.3059
127.68
158.919
189.771
219.953
249.147
277.011
303.18
327.269
348.885
367.642
383.169
395.137
403.272
407.377
407.243
402.88
394.365
381.726
365.173
344.965
321.429
294.96
266.001
235.036
202.583
169.171
135.325
101.552
68.3192
36.0415
5.07881
-24.3065
-51.8959
-77.5434
-101.164
-122.725
-142.236
-159.737
-175.293
-188.982
-200.889
-211.104
-219.712
-226.8
-232.442
-236.706
-239.662
-241.339
-241.785
-241.05
-239.141
-236.077
-231.866
-226.509
-220.003
-212.341
-203.516
-193.516
-182.335
-169.972
-156.43
-141.725
-125.882
-108.943
-90.9628
-72.0117
-52.1793
-31.573
-10.3185
11.443
33.5438
55.8093
78.0481
100.056
121.62
142.522
162.541
181.457
199.057
215.137
229.509
242.004
252.474
260.8
266.893
270.697
272.183
271.347
268.264
262.991
255.622
246.292
235.157
222.4
208.22
192.834
176.47
159.361
141.74
123.834
105.862
88.0302
70.5266
53.5208
37.16
21.5586
7.14563
-6.57859
-19.2345
-30.7855
-41.2016
-50.4662
-58.5756
-65.538
-71.3719
-76.1049
-79.7721
-82.4176
-84.0827
-84.8173
-84.6801
-83.7235
-82.0019
-79.5713
-76.4872
-72.8062
-68.5846
-63.8787
-58.7444
-53.2373
-47.412
-41.3229
-35.0225
-28.5628
-21.9941
-15.3657
-8.72504
-2.11807
4.4106
10.821
17.0733
23.131
28.96
34.5295
39.8115
44.7812
49.4171
53.7009
57.6178
61.1561
64.3076
67.0673
69.4334
71.4077
72.9945
74.2017
75.0397
75.5214
75.6608
75.4755
74.9837
74.2034
73.1549
71.859
70.3374
68.6124
66.7063
64.6419
62.4416
60.1274
57.7208
55.2424
52.7121
50.1486
47.5694
44.9909
42.4281
39.8949
37.4035
34.9652
32.5896
30.2852
28.0591
25.9174
23.8648
21.9052
20.0412
18.2748
16.6069
15.0378
13.567
12.1935
10.9155
9.73089
8.63716
7.63136
6.71024
5.87032
5.10794
4.41925
3.80033
3.24718
2.75576
2.32208
1.94216
1.61208
1.32802
1.08624
0.883116
0.715178
0.579076
0.471607
0.389716
0.330505
0.291173
0.269566
0.263086
0.269658
0.287349
0.314375
0.349098
0.390011
0.435742
0.485049
0.536814
0.590041
0.643848
0.697458
0.750195
0.801475
0.850799
0.897749
0.941979
0.98321
1.02122
1.05585
1.08699
1.11457
1.13856
1.15897
1.17584
1.18924
1.19927
1.20607
1.20976
1.20975
1.2068
1.20108
1.19277
1.18202
1.16901
1.15389
1.13684
1.11804
1.09764
1.07583
1.05276
1.02859
1.00347
0.977557
0.950978
0.923871
0.896361
0.868565
0.840593
0.812549
0.784528
0.756618
0.728901
0.701452
0.674337
0.647618
0.621351
0.595586
0.570367
0.545734
0.521723
0.498364
0.475684
0.453706
0.432451
0.411933
0.39216
166.834
198.816
230.195
260.48
289.271
316.009
340.298
361.718
379.93
394.666
405.679
412.774
415.804
414.289
408.612
398.953
385.36
368.042
347.255
323.301
296.56
267.395
236.214
203.488
169.648
135.152
100.395
65.7509
31.7613
0.659142
-31.2803
-62.1863
-91.7836
-119.911
-146.469
-171.382
-194.611
-216.131
-235.922
-253.985
-270.321
-284.934
-297.833
-309.029
-318.535
-326.367
-332.54
-337.07
-339.96
-341.185
-340.69
-338.555
-334.779
-329.353
-322.268
-313.532
-303.13
-291.042
-277.29
-261.88
-244.835
-226.193
-205.983
-184.267
-161.114
-136.595
-110.798
-83.8265
-55.7787
-26.7707
3.08674
33.8398
64.8904
96.2057
127.614
158.893
189.791
220.025
249.277
277.205
303.443
327.603
349.291
368.117
383.705
395.726
403.901
408.025
407.912
403.536
394.993
382.315
365.708
345.434
321.822
295.27
266.223
235.169
202.627
169.131
135.208
101.366
68.0751
35.7511
4.75356
-24.6551
-52.2577
-77.9094
-101.527
-123.079
-142.577
-160.062
-175.602
-189.273
-201.164
-211.362
-219.956
-227.03
-232.66
-236.915
-239.861
-241.53
-241.974
-241.234
-239.324
-236.259
-232.049
-226.693
-220.189
-212.53
-203.707
-193.711
-182.533
-170.171
-156.63
-141.923
-126.077
-109.132
-91.1442
-72.1825
-52.3365
-31.7133
-10.4387
11.3457
33.4731
55.7681
78.0388
100.081
121.682
142.621
162.677
181.631
199.267
215.382
229.786
242.309
252.801
261.145
267.249
271.059
272.545
271.702
268.606
263.314
255.922
246.563
235.397
222.604
208.387
192.962
176.56
159.413
141.754
123.814
105.811
87.9504
70.4219
53.3951
37.0176
21.4017
6.97241
-6.76007
-19.4203
-30.9738
-41.3904
-50.6538
-58.7603
-65.7185
-71.5471
-76.2738
-79.9341
-82.5716
-84.2281
-84.9551
-84.8094
-83.8442
-82.1141
-79.6749
-76.5824
-72.8929
-68.6628
-63.9485
-58.8058
-53.2904
-47.457
-41.3598
-35.0514
-28.5839
-22.0076
-15.3717
-8.72381
-2.10988
4.42545
10.8422
17.1005
23.1637
28.9979
34.5721
39.8582
44.8316
49.4707
53.7571
57.6761
61.2159
64.3684
67.1285
69.4947
71.4683
73.0541
74.2597
75.0957
75.575
75.712
75.5238
75.0289
74.2455
73.1936
71.8943
70.3692
68.6405
66.7309
64.6629
62.459
60.1414
57.7315
55.25
52.7168
50.1505
47.5687
44.9878
42.4229
39.8877
37.3947
34.9549
32.578
30.2725
28.0455
25.903
23.8499
21.8898
20.0256
18.2591
16.5912
15.0222
13.5516
12.1783
10.9007
9.71651
8.62325
7.61797
6.69741
5.85808
5.09631
4.40825
3.78996
3.23744
2.74666
2.31361
1.93431
1.60484
1.32136
1.08015
0.877578
0.710161
0.574569
0.467582
0.386148
0.327363
0.288405
0.267177
0.261025
0.2679
0.285871
0.313157
0.348117
0.389247
0.435175
0.484658
0.536581
0.589948
0.643877
0.697594
0.750423
0.801781
0.851172
0.898177
0.94245
0.983715
1.02175
1.0564
1.08755
1.11513
1.13912
1.15952
1.17638
1.18977
1.19978
1.20655
1.21022
1.2102
1.20722
1.20148
1.19315
1.18237
1.16933
1.15419
1.13711
1.11828
1.09787
1.07603
1.05293
1.02874
1.0036
0.977661
0.951062
0.923935
0.896406
0.868593
0.840605
0.812546
0.784511
0.756589
0.72886
0.7014
0.674275
0.647548
0.621273
0.595501
0.570276
0.545638
0.521622
0.498259
0.475576
0.453596
0.432339
0.41182
0.392046
166.8
198.864
230.331
260.707
289.59
316.417
340.792
362.293
380.575
395.371
406.431
413.556
416.608
415.102
409.405
399.699
386.053
368.669
347.803
323.763
296.93
267.67
236.393
203.574
169.647
135.072
100.247
65.5464
31.5148
0.317433
-31.6411
-62.5636
-92.1726
-120.306
-146.867
-171.778
-195.003
-216.517
-236.302
-254.358
-270.688
-285.294
-298.186
-309.375
-318.875
-326.701
-332.869
-337.393
-340.277
-341.509
-341.013
-338.876
-335.101
-329.678
-322.597
-313.866
-303.468
-291.385
-277.636
-262.228
-245.182
-226.538
-206.325
-184.602
-161.441
-136.911
-111.102
-84.1169
-56.0531
-27.0272
2.85136
33.6476
64.729
96.0798
127.53
158.859
189.815
220.114
249.439
277.447
303.771
328.021
349.798
368.71
384.376
396.462
404.687
408.838
408.741
404.359
395.779
383.051
366.377
346.02
322.314
295.658
266.501
235.334
202.682
169.08
135.059
101.132
67.7684
35.3868
4.34589
-25.092
-52.7108
-78.3676
-101.981
-123.522
-143.004
-160.47
-175.988
-189.638
-201.507
-211.686
-220.261
-227.318
-232.933
-237.176
-240.11
-241.771
-242.21
-241.465
-239.552
-236.486
-232.276
-226.922
-220.421
-212.766
-203.947
-193.954
-182.779
-170.42
-156.879
-142.17
-126.32
-109.369
-91.3713
-72.3963
-52.5333
-31.8891
-10.5893
11.2238
33.3844
55.7161
78.0269
100.112
121.758
142.744
162.847
181.848
199.53
215.688
230.132
242.689
253.211
261.576
267.696
271.511
272.996
272.147
269.035
263.719
256.297
246.904
235.697
222.86
208.596
193.123
176.672
159.477
141.773
123.789
105.746
87.8503
70.2907
53.2377
36.8395
21.2129
6.74796
-6.98756
-19.6528
-31.2092
-41.6265
-50.8883
-58.9913
-65.9442
-71.7661
-76.485
-80.1365
-82.7639
-84.4102
-85.1274
-84.971
-83.9951
-82.2544
-79.8046
-76.7014
-73.0013
-68.7606
-64.0357
-58.8826
-53.3568
-47.5132
-41.4058
-35.0876
-28.6102
-22.0244
-15.3792
-8.72228
-2.09962
4.44404
10.8687
17.1345
23.2047
29.0453
34.6253
39.9167
44.8947
49.5377
53.8274
57.749
61.2908
64.4445
67.2052
69.5712
71.5441
73.1285
74.3322
75.1657
75.642
75.7759
75.5842
75.0855
74.2981
73.2421
71.9384
70.4089
68.6757
66.7615
64.6891
62.4809
60.159
57.745
55.2596
52.7226
50.1528
47.5679
44.984
42.4164
39.8788
37.3837
34.9419
32.5634
30.2565
28.0284
25.8851
23.8312
21.8707
20.0061
18.2394
16.5715
15.0026
13.5323
12.1594
10.8822
9.69852
8.60586
7.60123
6.68137
5.84278
5.08177
4.3945
3.777
3.22527
2.73529
2.30303
1.9245
1.59578
1.31304
1.07254
0.870654
0.703895
0.568935
0.462551
0.381688
0.323438
0.284952
0.264195
0.258451
0.265704
0.284025
0.311635
0.346893
0.388294
0.434467
0.484171
0.53629
0.589832
0.643914
0.697765
0.750709
0.802165
0.851638
0.898711
0.94304
0.984347
1.02242
1.05709
1.08825
1.11584
1.13982
1.16022
1.17706
1.19043
1.20042
1.20716
1.21081
1.21075
1.20775
1.20198
1.19362
1.18281
1.16974
1.15456
1.13746
1.11859
1.09814
1.07627
1.05315
1.02892
1.00376
0.977791
0.951166
0.924015
0.896463
0.868628
0.84062
0.812542
0.78449
0.756552
0.728809
0.701335
0.674198
0.64746
0.621176
0.595395
0.570163
0.545518
0.521497
0.498129
0.475442
0.453459
0.432199
0.411678
0.391904
166.759
198.92
230.494
260.978
289.972
316.907
341.385
362.982
381.35
396.218
407.334
414.496
417.57
416.071
410.354
400.595
386.884
369.421
348.462
324.317
297.373
268
236.607
203.677
169.645
134.975
100.068
65.2997
31.2162
-0.0919777
-32.0742
-63.0169
-92.64
-120.782
-147.344
-172.254
-195.474
-216.981
-236.759
-254.806
-271.127
-285.725
-298.609
-309.79
-319.283
-327.102
-333.263
-337.781
-340.66
-341.896
-341.399
-339.26
-335.487
-330.068
-322.992
-314.266
-303.875
-291.796
-278.051
-262.645
-245.6
-226.953
-206.734
-185.005
-161.834
-137.292
-111.468
-84.4657
-56.3827
-27.3353
2.56852
33.4165
64.5346
95.9279
127.43
158.818
189.842
220.22
249.633
277.737
304.164
328.521
350.406
369.421
385.182
397.347
405.632
409.816
409.736
405.348
396.725
383.937
367.181
346.725
322.903
296.122
266.833
235.531
202.746
169.017
134.88
100.85
67.3986
34.9481
3.85522
-25.6176
-53.2557
-78.9184
-102.527
-124.055
-143.516
-160.959
-176.452
-190.076
-201.92
-212.074
-220.627
-227.663
-233.26
-237.488
-240.408
-242.06
-242.492
-241.741
-239.825
-236.759
-232.549
-227.198
-220.7
-213.049
-204.235
-194.247
-183.076
-170.718
-157.178
-142.468
-126.613
-109.654
-91.6441
-72.6533
-52.7699
-32.1005
-10.7705
11.0771
33.2774
55.6533
78.0122
100.149
121.849
142.891
163.051
182.108
199.846
216.056
230.547
243.146
253.702
262.095
268.232
272.055
273.538
272.682
269.55
264.205
256.748
247.312
236.057
223.167
208.846
193.316
176.806
159.553
141.794
123.759
105.669
87.7298
70.1328
53.0482
36.6254
20.9893
6.47503
-7.261
-19.932
-31.4921
-41.9101
-51.17
-59.2687
-66.2152
-72.0291
-76.7385
-80.3795
-82.9949
-84.6291
-85.334
-85.1649
-84.1762
-82.4227
-79.9601
-76.8442
-73.1314
-68.878
-64.1404
-58.9748
-53.4365
-47.5806
-41.4611
-35.1309
-28.6419
-22.0445
-15.3882
-8.72041
-2.08729
4.46637
10.9005
17.1753
23.2538
29.1022
34.6892
39.9869
44.9704
49.6181
53.9118
57.8365
61.3806
64.5358
67.2972
69.6631
71.6351
73.2179
74.4192
75.2498
75.7226
75.8526
75.6568
75.1535
74.3612
73.3002
71.9914
70.4565
68.7179
66.7983
64.7205
62.507
60.18
57.7611
55.271
52.7296
50.1556
47.5668
44.9794
42.4086
39.8681
37.3704
34.9264
32.5459
30.2374
28.0079
25.8635
23.8088
21.8476
19.9827
18.2158
16.5479
14.9792
13.5091
12.1366
10.8599
9.67693
8.58499
7.58114
6.66212
5.82442
5.06433
4.37799
3.76144
3.21067
2.72165
2.29033
1.91272
1.58492
1.30306
1.06341
0.862345
0.696381
0.562177
0.456515
0.376342
0.318734
0.280824
0.260621
0.255365
0.263071
0.281813
0.309811
0.345426
0.387152
0.43362
0.483588
0.535944
0.589694
0.643961
0.697971
0.751053
0.802628
0.8522
0.899354
0.943748
0.985107
1.02322
1.05791
1.08909
1.11669
1.14067
1.16105
1.17788
1.19122
1.20119
1.2079
1.21151
1.21141
1.20838
1.20258
1.19418
1.18334
1.17023
1.15501
1.13787
1.11896
1.09847
1.07657
1.05341
1.02915
1.00395
0.977947
0.951291
0.92411
0.896531
0.86867
0.840638
0.812537
0.784465
0.756507
0.728747
0.701257
0.674106
0.647355
0.621059
0.595268
0.570027
0.545374
0.521346
0.497972
0.475281
0.453294
0.432031
0.411508
0.391734
166.71
198.985
230.683
261.295
290.417
317.478
342.077
363.787
382.255
397.207
408.389
415.595
418.691
417.199
411.458
401.641
387.855
370.3
349.23
324.964
297.891
268.383
236.856
203.796
169.642
134.86
99.8562
65.0098
30.8639
-0.568634
-32.5798
-63.5464
-93.1861
-121.337
-147.902
-172.809
-196.023
-217.522
-237.291
-255.329
-271.64
-286.228
-299.103
-310.275
-319.758
-327.57
-333.723
-338.235
-341.108
-342.343
-341.849
-339.709
-335.938
-330.523
-323.452
-314.733
-304.349
-292.277
-278.536
-263.133
-246.087
-227.437
-207.213
-185.475
-162.293
-137.736
-111.895
-84.873
-56.7675
-27.6952
2.23772
33.1462
64.3068
95.7497
127.311
158.769
189.873
220.342
249.857
278.074
304.622
329.105
351.116
370.252
386.122
398.381
406.736
410.961
410.898
406.501
397.83
384.971
368.12
347.547
323.592
296.664
267.221
235.761
202.82
168.943
134.669
100.518
66.965
34.4342
3.28079
-26.2326
-53.8931
-79.5623
-103.165
-124.676
-144.115
-161.53
-176.993
-190.587
-202.401
-212.526
-221.053
-228.066
-233.642
-237.852
-240.756
-242.397
-242.821
-242.064
-240.144
-237.077
-232.868
-227.519
-221.025
-213.379
-204.571
-194.588
-183.421
-171.067
-157.528
-142.815
-126.955
-109.987
-91.9629
-72.9537
-53.0465
-32.3478
-10.9827
10.9055
33.152
55.5794
77.9945
100.191
121.954
143.062
163.289
182.412
200.214
216.485
231.032
243.679
254.276
262.7
268.858
272.691
274.172
273.306
270.15
264.773
257.274
247.789
236.477
223.525
209.139
193.54
176.962
159.642
141.819
123.723
105.577
87.5886
69.9478
52.8264
36.3747
20.7241
6.15987
-7.5802
-20.2581
-31.8223
-42.2413
-51.4989
-59.5925
-66.5317
-72.336
-77.0344
-80.6629
-83.2645
-84.8846
-85.5751
-85.3911
-84.3875
-82.6191
-80.1416
-77.0109
-73.2831
-69.0149
-64.2626
-59.0823
-53.5295
-47.6593
-41.5256
-35.1815
-28.6787
-22.0681
-15.3986
-8.71821
-2.07287
4.49246
10.9377
17.223
23.3113
29.1686
34.7638
40.0688
45.0588
49.7121
54.0104
57.9387
61.4855
64.6425
67.4047
69.7705
71.7414
73.3222
74.5208
75.3479
75.8166
75.9421
75.7414
75.2328
74.4349
73.3681
72.0531
70.5121
68.7672
66.8413
64.7572
62.5375
60.2045
57.7798
55.2843
52.7377
50.1589
47.5656
44.9741
42.3995
39.8556
37.3548
34.9082
32.5255
30.2151
27.984
25.8383
23.7826
21.8207
19.9553
18.1882
16.5203
14.9518
13.4821
12.1101
10.834
9.65174
8.56063
7.5577
6.63966
5.80299
5.04397
4.35872
3.74329
3.19364
2.70573
2.27551
1.89899
1.57224
1.29142
1.05276
0.852657
0.687616
0.554294
0.449478
0.370108
0.313253
0.276047
0.256459
0.251767
0.260002
0.279234
0.307686
0.343717
0.385824
0.432635
0.482912
0.535543
0.589537
0.644017
0.698214
0.751457
0.803169
0.852856
0.900105
0.944576
0.985995
1.02415
1.05888
1.09007
1.11767
1.14165
1.16202
1.17883
1.19215
1.20208
1.20875
1.21233
1.21219
1.20912
1.20328
1.19484
1.18396
1.1708
1.15554
1.13834
1.1194
1.09886
1.07691
1.05371
1.02941
1.00416
0.978128
0.951436
0.924222
0.89661
0.868719
0.840658
0.812532
0.784435
0.756455
0.728674
0.701166
0.673999
0.647232
0.620923
0.59512
0.569868
0.545206
0.52117
0.49779
0.475092
0.453101
0.431835
0.41131
0.391534
166.652
199.058
230.897
261.656
290.926
318.131
342.868
364.708
383.291
398.339
409.598
416.853
419.972
418.486
412.718
402.838
388.966
371.304
350.109
325.703
298.482
268.821
237.14
203.93
169.636
134.726
99.6119
64.6755
30.4562
-1.11205
-33.158
-64.1525
-93.8111
-121.972
-148.539
-173.443
-196.651
-218.141
-237.899
-255.926
-272.227
-286.804
-299.668
-310.829
-320.302
-328.104
-334.249
-338.753
-341.621
-342.851
-342.361
-340.22
-336.453
-331.043
-323.979
-315.268
-304.891
-292.826
-279.09
-263.69
-246.645
-227.992
-207.76
-186.012
-162.817
-138.245
-112.384
-85.3389
-57.2078
-28.107
1.8585
32.8368
64.0454
95.5446
127.173
158.711
189.907
220.48
250.112
278.457
305.143
329.771
351.926
371.201
387.198
399.564
407.999
412.273
412.23
407.82
399.096
386.154
369.194
348.488
324.38
297.284
267.663
236.022
202.903
168.856
134.426
100.136
66.4667
33.8442
2.62172
-26.9377
-54.6234
-80.2998
-103.895
-125.387
-144.799
-162.184
-177.612
-191.171
-202.95
-213.043
-221.54
-228.526
-234.078
-238.268
-241.154
-242.782
-243.196
-242.432
-240.509
-237.44
-233.232
-227.886
-221.397
-213.757
-204.955
-194.978
-183.817
-171.466
-157.928
-143.213
-127.347
-110.367
-92.3279
-73.2976
-53.3633
-32.6311
-11.226
10.7087
33.0081
55.4943
77.9736
100.239
122.075
143.258
163.561
182.76
200.635
216.976
231.586
244.289
254.934
263.393
269.574
273.418
274.898
274.02
270.838
265.423
257.877
248.334
236.958
223.935
209.473
193.797
177.14
159.744
141.846
123.681
105.472
87.4262
69.7356
52.5719
36.0868
20.4161
5.80339
-7.94505
-20.6312
-32.2002
-42.6201
-51.8751
-59.963
-66.8935
-72.6871
-77.3727
-80.987
-83.5729
-85.1767
-85.8506
-85.6497
-84.6289
-82.8436
-80.3491
-77.2013
-73.4566
-69.1714
-64.4022
-59.2051
-53.6358
-47.7492
-41.5994
-35.2393
-28.7209
-22.0949
-15.4106
-8.71566
-2.05636
4.52236
10.9803
17.2775
23.377
29.2446
34.8492
40.1626
45.1599
49.8196
54.1231
58.0557
61.6055
64.7645
67.5276
69.8932
71.863
73.4416
74.637
75.4601
75.9241
76.0444
75.8381
75.3234
74.5192
73.4456
72.1238
70.5756
68.8235
66.8903
64.799
62.5723
60.2325
57.8012
55.2994
52.7469
50.1626
47.5641
44.9679
42.389
39.8412
37.337
34.8874
32.5021
30.1895
27.9566
25.8094
23.7527
21.79
19.9241
18.1567
16.4888
14.9204
13.4511
12.0797
10.8044
9.62294
8.53278
7.5309
6.61398
5.7785
5.0207
4.33671
3.72255
3.17418
2.68753
2.25858
1.8833
1.55776
1.27811
1.0406
0.841591
0.677601
0.545292
0.441439
0.362991
0.306997
0.270691
0.25171
0.24766
0.256498
0.276292
0.305262
0.341769
0.384309
0.431513
0.482142
0.535087
0.58936
0.644085
0.698495
0.751922
0.80379
0.853608
0.900966
0.945524
0.987011
1.02521
1.05998
1.0912
1.1188
1.14278
1.16314
1.17992
1.19321
1.2031
1.20973
1.21326
1.21308
1.20996
1.20408
1.19559
1.18466
1.17145
1.15614
1.13889
1.11989
1.09931
1.0773
1.05405
1.0297
1.00442
0.978336
0.951602
0.924349
0.8967
0.868774
0.840682
0.812525
0.7844
0.756395
0.728591
0.701062
0.673875
0.647092
0.620767
0.59495
0.569686
0.545014
0.520968
0.497581
0.474877
0.452881
0.431611
0.411084
0.391307
166.585
199.138
231.138
262.061
291.498
318.866
343.758
365.744
384.457
399.615
410.959
418.271
421.413
419.935
414.135
404.186
390.217
372.435
351.099
326.535
299.147
269.313
237.458
204.08
169.627
134.573
99.3334
64.2953
29.9919
-1.72173
-33.809
-64.8356
-94.5155
-122.687
-149.257
-174.158
-197.358
-218.838
-238.584
-256.599
-272.887
-287.451
-300.303
-311.452
-320.914
-328.706
-334.841
-339.337
-342.2
-343.422
-342.936
-340.795
-337.032
-331.628
-324.571
-315.869
-305.501
-293.444
-279.715
-264.317
-247.272
-228.616
-208.377
-186.617
-163.408
-138.817
-112.934
-85.8635
-57.7036
-28.5712
1.43023
32.4884
63.7498
95.3122
127.017
158.644
189.943
220.633
250.397
278.887
305.729
330.519
352.838
372.27
388.41
400.897
409.423
413.752
413.731
409.305
400.522
387.489
370.405
349.547
325.267
297.981
268.159
236.315
202.995
168.755
134.148
99.7026
65.9026
33.177
1.87698
-27.734
-55.4476
-81.1315
-104.718
-126.189
-145.57
-162.919
-178.309
-191.828
-203.569
-213.625
-222.088
-229.043
-234.569
-238.735
-241.602
-243.215
-243.618
-242.846
-240.918
-237.848
-233.642
-228.299
-221.815
-214.182
-205.387
-195.417
-184.262
-171.915
-158.378
-143.661
-127.788
-110.797
-92.7395
-73.6853
-53.7206
-32.9508
-11.5008
10.4864
32.8452
55.3976
77.9492
100.292
122.21
143.477
163.866
183.151
201.109
217.528
232.21
244.977
255.674
264.174
270.382
274.238
275.716
274.823
271.612
266.155
258.555
248.949
237.5
224.397
209.85
194.085
177.34
159.857
141.876
123.634
105.352
87.2426
69.4956
52.2844
35.7614
20.0647
5.40532
-8.35559
-21.0514
-32.6259
-43.0469
-52.2988
-60.3801
-67.301
-73.0823
-77.7536
-81.3518
-83.92
-85.5055
-86.1606
-85.9405
-84.9006
-83.0961
-80.5825
-77.4156
-73.6517
-69.3475
-64.5593
-59.3434
-53.7553
-47.8503
-41.6823
-35.3043
-28.7683
-22.1251
-15.4239
-8.71274
-2.03773
4.55606
11.0283
17.339
23.451
29.3302
34.9453
40.2682
45.2739
49.9406
54.2501
58.1873
61.7407
64.9019
67.666
70.0314
71.9998
73.576
74.7678
75.5864
76.0451
76.1596
75.9469
75.4254
74.614
73.5329
72.2033
70.647
68.8868
66.9455
64.8461
62.6115
60.264
57.8253
55.3164
52.7572
50.1667
47.5624
44.9608
42.3771
39.825
37.317
34.864
32.4757
30.1606
27.9257
25.7769
23.7189
21.7553
19.8889
18.1212
16.4533
14.8852
13.4163
12.0455
10.771
9.59052
8.50144
7.50074
6.58509
5.75093
4.99452
4.31194
3.69921
3.15228
2.66707
2.23953
1.86564
1.54147
1.26315
1.02691