/*--------------------------------*- C++ -*----------------------------------*\
| =========                 |                                                 |
| \\      /  F ield         | OpenFOAM: The Open Source CFD Toolbox           |
|  \\    /   O peration     | Version:  3.0.1                                 |
|   \\  /    A nd           | Web:      www.OpenFOAM.org                      |
|    \\/     M anipulation  |                                                 |
\*---------------------------------------------------------------------------*/
FoamFile
{
    version     2.0;
    format      ascii;
    class       volScalarField;
    location    "89.4";
    object      p_rgh;
}
// * * * * * * * * * * * * * * * * * * * * * * * * * * * * * * * * * * * * * //

dimensions      [1 -1 -2 0 0 0 0];

internalField   nonuniform List<scalar> 
21420
(
-286.145
-270.325
-252.896
-233.836
-213.058
-190.498
-166.159
-140.166
-112.603
-83.4363
-52.3898
-4.02353
29.2401
62.8883
96.921
130.921
164.496
197.296
228.84
258.653
286.33
311.424
333.54
352.385
367.64
379.06
386.475
389.752
388.882
383.837
374.699
361.54
344.586
324.105
300.384
273.766
244.668
213.496
180.682
146.693
111.953
76.8961
41.8761
7.27494
-25.9319
-58.1584
-89.3625
-119.308
-147.783
-174.629
-199.755
-223.104
-244.643
-264.372
-282.292
-298.435
-312.834
-325.518
-336.527
-345.897
-353.654
-359.825
-364.421
-367.451
-368.905
-368.741
-367.032
-363.732
-358.841
-352.341
-344.193
-334.39
-322.927
-309.773
-294.918
-278.365
-260.107
-240.165
-218.555
-195.31
-170.479
-144.142
-116.38
-87.2999
-57.0034
-25.5125
6.6922
39.4771
72.5853
105.719
138.551
170.732
201.894
231.657
259.637
285.458
308.749
329.165
346.394
360.157
370.225
376.425
378.535
376.666
370.711
360.711
346.782
329.109
307.924
283.524
256.251
226.496
194.691
161.287
126.752
91.5508
56.1391
20.9456
-13.6341
-47.2505
-79.6047
-110.445
-139.57
-166.832
-192.128
-215.399
-236.622
-255.803
-272.97
-288.177
-301.493
-312.986
-322.743
-330.848
-337.38
-342.421
-346.054
-348.333
-349.311
-349.045
-347.575
-344.912
-341.057
-336
-329.717
-322.176
-313.325
-303.11
-291.479
-278.372
-263.735
-247.515
-229.669
-210.16
-188.963
-166.072
-141.512
-115.33
-87.6022
-58.4513
-28.0482
3.65846
35.9868
68.8992
102.062
135.124
167.705
199.404
229.798
258.452
284.938
308.836
329.746
347.307
361.208
371.197
377.086
378.662
376.071
369.252
358.286
343.401
324.851
302.946
278.054
250.577
220.94
189.597
156.995
123.58
89.7866
56.0214
22.6691
-9.94627
-41.5271
-71.8339
-100.681
-127.928
-153.477
-177.265
-199.258
-219.444
-237.829
-254.436
-269.306
-282.492
-294.049
-304.04
-312.527
-319.558
-325.184
-329.451
-332.406
-334.069
-334.446
-333.611
-331.56
-328.3
-323.823
-318.122
-311.181
-302.967
-293.444
-282.579
-270.328
-256.646
-241.485
-224.799
-206.556
-186.724
-165.288
-142.253
-117.642
-91.5122
-63.9482
-35.0653
-5.02039
26.0066
57.7624
89.9378
122.231
154.293
185.737
216.152
245.108
272.169
296.904
318.894
337.754
353.132
364.731
372.314
375.661
374.778
369.609
360.241
346.811
329.578
308.849
284.991
258.416
229.572
198.934
166.982
134.187
101.021
68.1007
35.4578
3.51086
-27.4423
-57.1498
-85.427
-112.127
-137.15
-160.457
-182.001
-201.781
-219.809
-236.117
-250.733
-263.718
-275.143
-285.08
-293.6
-300.778
-306.64
-311.223
-314.515
-316.599
-317.536
-317.373
-316.153
-313.935
-310.721
-306.481
-301.195
-294.787
-287.164
-278.249
-267.925
-256.078
-242.59
-227.321
-210.196
-191.131
-170.052
-146.974
-121.945
-95.0422
-66.4319
-36.3032
-4.92813
27.1311
59.8272
92.8179
125.597
157.747
188.8
218.311
245.914
271.199
293.804
313.436
329.813
342.726
352.011
357.583
359.353
357.42
351.847
342.754
330.337
314.868
296.653
275.976
253.176
228.555
202.445
175.183
147.053
118.334
89.3042
60.1641
30.9706
0.482919
-27.5737
-54.8504
-81.2851
-106.73
-131.048
-154.137
-175.882
-196.217
-215.048
-232.303
-247.971
-262.029
-286.218
-270.401
-252.975
-233.916
-213.139
-190.578
-166.238
-140.242
-112.673
-83.4986
-52.4496
-4.10177
29.1708
62.8354
96.8858
130.904
164.497
197.317
228.882
258.716
286.413
311.525
333.659
352.519
367.786
379.216
386.638
389.929
389.046
383.995
374.85
361.682
344.715
324.218
300.479
273.843
244.726
213.534
180.701
146.694
111.937
76.8644
41.8311
7.21976
-25.9925
-58.2268
-89.4366
-119.386
-147.864
-174.712
-199.838
-223.187
-244.723
-264.451
-282.368
-298.509
-312.906
-325.588
-336.595
-345.963
-353.719
-359.889
-364.483
-367.514
-368.967
-368.805
-367.095
-363.796
-358.906
-352.408
-344.26
-334.459
-322.998
-309.845
-294.992
-278.44
-260.182
-240.242
-218.632
-195.386
-170.554
-144.215
-116.452
-87.3683
-57.0669
-25.5728
6.64002
39.4343
72.5531
105.699
138.545
170.742
201.92
231.7
259.698
285.536
308.844
329.276
346.519
360.293
370.37
376.576
378.697
376.816
370.859
360.853
346.915
329.229
308.029
283.611
256.319
226.544
194.718
161.295
126.74
91.5212
56.0931
20.8853
-13.7062
-47.3326
-79.6943
-110.54
-139.669
-166.932
-192.229
-215.499
-236.719
-255.898
-273.062
-288.265
-301.576
-313.066
-322.819
-330.92
-337.448
-342.486
-346.116
-348.393
-349.367
-349.102
-347.631
-344.968
-341.113
-336.057
-329.776
-322.236
-313.388
-303.176
-291.548
-278.444
-263.809
-247.592
-229.748
-210.241
-189.045
-166.156
-141.595
-115.411
-87.6801
-58.5241
-28.1092
3.59187
35.9357
68.8606
102.037
135.114
167.712
199.428
229.841
258.514
285.02
308.936
329.863
347.44
361.354
371.351
377.245
378.832
376.227
369.405
358.429
343.531
324.965
303.043
278.132
250.634
220.978
189.615
156.994
123.562
89.7527
55.9735
22.6097
-10.0154
-41.6037
-71.9159
-100.766
-128.015
-153.565
-177.353
-199.345
-219.529
-237.911
-254.516
-269.383
-282.566
-294.12
-304.108
-312.592
-319.621
-325.245
-329.51
-332.465
-334.124
-334.502
-333.666
-331.615
-328.354
-323.879
-318.179
-311.239
-303.026
-293.506
-282.642
-270.394
-256.714
-241.555
-224.872
-206.631
-186.801
-165.366
-142.331
-117.72
-91.5879
-64.0207
-35.1328
-5.08169
25.9536
57.7197
89.9072
122.214
154.291
185.753
216.186
245.161
272.241
296.995
319.004
337.88
353.272
364.881
372.472
375.829
374.938
369.765
360.39
346.949
329.701
308.954
285.076
258.48
229.615
198.957
166.984
134.171
100.989
68.0574
35.4035
3.44639
-27.5141
-57.2268
-85.5066
-112.208
-137.231
-160.537
-182.079
-201.857
-219.882
-236.187
-250.801
-263.782
-275.203
-285.137
-293.654
-300.83
-306.69
-311.27
-314.561
-316.642
-317.578
-317.413
-316.192
-313.975
-310.761
-306.524
-301.24
-294.835
-287.216
-278.306
-267.987
-256.145
-242.662
-227.399
-210.278
-191.217
-170.14
-147.062
-122.032
-95.1254
-66.5093
-36.3722
-4.98671
27.0832
59.7939
92.801
125.598
157.766
188.837
218.366
245.988
271.29
293.91
313.556
329.944
342.866
352.156
357.729
359.506
357.56
351.983
342.879
330.451
314.968
296.739
276.047
253.231
228.597
202.472
175.197
147.056
118.326
89.2857
60.1359
30.9337
0.447198
-27.616
-54.8983
-81.3381
-106.787
-131.109
-154.201
-175.949
-196.285
-215.118
-232.374
-248.042
-262.101
-286.366
-270.554
-253.132
-234.075
-213.301
-190.74
-166.397
-140.395
-112.813
-83.6229
-52.5677
-4.26062
29.0319
62.73
96.8155
130.869
164.5
197.359
228.966
258.841
286.579
311.729
333.897
352.787
368.08
379.529
386.962
390.28
389.372
384.315
375.155
361.966
344.973
324.445
300.671
273.997
244.842
213.611
180.74
146.696
111.904
76.8008
41.741
7.10948
-26.114
-58.3636
-89.5849
-119.544
-148.027
-174.878
-200.005
-223.352
-244.885
-264.608
-282.521
-298.657
-313.049
-325.727
-336.729
-346.094
-353.846
-360.015
-364.608
-367.639
-369.089
-368.93
-367.22
-363.922
-359.034
-352.539
-344.394
-334.595
-323.137
-309.987
-295.136
-278.586
-260.33
-240.391
-218.781
-195.533
-170.7
-144.358
-116.591
-87.4997
-57.1883
-25.6872
6.54229
39.3558
72.4961
105.667
138.541
170.769
201.98
231.796
259.83
285.703
309.044
329.508
346.778
360.575
370.67
376.886
379.03
377.125
371.168
361.149
347.191
329.48
308.25
283.797
256.467
226.653
194.786
161.323
126.729
91.4751
56.0148
20.7787
-13.8357
-47.4817
-79.8582
-110.714
-139.85
-167.116
-192.413
-215.68
-236.897
-256.069
-273.226
-288.422
-301.725
-313.207
-322.952
-331.045
-337.567
-342.599
-346.224
-348.495
-349.463
-349.198
-347.726
-345.062
-341.209
-336.155
-329.878
-322.342
-313.499
-303.293
-291.67
-278.572
-263.943
-247.731
-229.893
-210.389
-189.196
-166.309
-141.748
-115.559
-87.823
-58.6573
-28.2208
3.47245
35.8457
68.795
101.998
135.105
167.736
199.488
229.938
258.65
285.194
309.147
330.108
347.716
361.654
371.67
377.573
379.178
376.55
369.719
358.726
343.802
325.204
303.247
278.297
250.759
221.064
189.661
157.003
123.537
89.6961
55.8892
22.5031
-10.1415
-41.7443
-72.0668
-100.923
-128.176
-153.727
-177.514
-199.503
-219.684
-238.062
-254.661
-269.522
-282.699
-294.248
-304.23
-312.708
-319.732
-325.353
-329.615
-332.567
-334.219
-334.6
-333.763
-331.711
-328.45
-323.976
-318.278
-311.341
-303.131
-293.615
-282.757
-270.513
-256.838
-241.684
-225.006
-206.77
-186.943
-165.511
-142.477
-117.864
-91.7283
-64.1547
-35.2574
-5.19397
25.8578
57.6445
89.856
122.191
154.299
185.794
216.264
245.277
272.395
297.186
319.231
338.14
353.56
365.192
372.798
376.174
375.265
370.089
360.697
347.233
329.954
309.171
285.254
258.616
229.71
199.01
166.998
134.147
100.932
67.9783
35.302
3.32438
-27.6508
-57.3742
-85.6594
-112.365
-137.387
-160.692
-182.23
-202.004
-220.024
-236.324
-250.931
-263.906
-275.321
-285.249
-293.761
-300.931
-306.789
-311.363
-314.651
-316.726
-317.658
-317.492
-316.27
-314.054
-310.842
-306.609
-301.329
-294.931
-287.32
-278.42
-268.11
-256.28
-242.807
-227.554
-210.442
-191.388
-170.315
-147.239
-122.206
-95.2918
-66.6639
-36.5103
-5.10355
26.9875
59.7273
92.7673
125.599
157.803
188.912
218.477
246.135
271.471
294.122
313.795
330.206
343.145
352.446
358.022
359.81
357.841
352.255
343.131
330.678
315.168
296.91
276.188
253.343
228.679
202.526
175.225
147.06
118.309
89.2487
60.0794
30.859
0.376556
-27.7006
-54.9943
-81.444
-106.902
-131.231
-154.329
-176.082
-196.422
-215.258
-232.515
-248.185
-262.244
-286.587
-270.783
-253.369
-234.314
-213.543
-190.982
-166.635
-140.623
-113.023
-83.8089
-52.7474
-4.49906
28.8234
62.5722
96.7103
130.817
164.503
197.422
229.091
259.029
286.827
312.035
334.255
353.189
368.52
379.997
387.448
390.789
389.872
384.797
375.612
362.392
345.36
324.786
300.959
274.229
245.015
213.726
180.797
146.698
111.855
76.7051
41.6056
6.94422
-26.2967
-58.5688
-89.8074
-119.78
-148.272
-175.127
-200.255
-223.599
-245.128
-264.845
-282.751
-298.879
-313.264
-325.934
-336.931
-346.29
-354.038
-360.204
-364.794
-367.825
-369.272
-369.118
-367.407
-364.112
-359.227
-352.735
-344.594
-334.799
-323.345
-310.199
-295.353
-278.806
-260.553
-240.615
-219.004
-195.754
-170.918
-144.572
-116.799
-87.6966
-57.3702
-25.8585
6.39637
39.2386
72.4115
105.619
138.536
170.81
202.073
231.941
260.029
285.955
309.347
329.857
347.168
361.001
371.122
377.354
379.525
377.598
371.634
361.595
347.609
329.86
308.584
284.078
256.691
226.817
194.89
161.367
126.716
91.4084
55.8996
20.6211
-14.0279
-47.7031
-80.1019
-110.974
-140.119
-167.389
-192.686
-215.951
-237.161
-256.324
-273.471
-288.656
-301.947
-313.417
-323.15
-331.232
-337.743
-342.766
-346.382
-348.644
-349.607
-349.34
-347.866
-345.202
-341.35
-336.3
-330.029
-322.499
-313.663
-303.465
-291.851
-278.762
-264.141
-247.938
-230.107
-210.61
-189.421
-166.536
-141.974
-115.781
-88.0355
-58.8551
-28.3905
3.29942
35.7133
68.6988
101.942
135.094
167.774
199.579
230.085
258.855
285.457
309.466
330.478
348.131
362.107
372.151
378.068
379.694
377.043
370.193
359.173
344.21
325.565
303.554
278.547
250.949
221.194
189.732
157.019
123.501
89.613
55.7644
22.3448
-10.3289
-41.9534
-72.2915
-101.157
-128.416
-153.968
-177.754
-199.74
-219.915
-238.285
-254.877
-269.73
-282.897
-294.437
-304.41
-312.88
-319.898
-325.514
-329.771
-332.718
-334.363
-334.745
-333.905
-331.853
-328.592
-324.12
-318.426
-311.492
-303.288
-293.778
-282.926
-270.691
-257.022
-241.876
-225.206
-206.976
-187.155
-165.727
-142.693
-118.078
-91.9375
-64.3539
-35.4426
-5.36049
25.7156
57.5335
89.7811
122.157
154.312
185.858
216.383
245.452
272.629
297.476
319.575
338.533
353.996
365.66
373.288
376.69
375.764
370.578
361.161
347.661
330.336
309.499
285.523
258.823
229.853
199.092
167.019
134.112
100.849
67.8603
35.1502
3.14176
-27.8556
-57.5952
-85.8886
-112.599
-137.622
-160.924
-182.457
-202.224
-220.238
-236.528
-251.126
-264.092
-275.498
-285.418
-293.92
-301.082
-306.935
-311.505
-314.785
-316.852
-317.78
-317.61
-316.387
-314.172
-310.964
-306.736
-301.463
-295.075
-287.476
-278.59
-268.296
-256.481
-243.025
-227.787
-210.688
-191.644
-170.578
-147.504
-122.466
-95.5415
-66.896
-36.7176
-5.27911
26.8435
59.6274
92.7164
125.6
157.859
189.023
218.644
246.355
271.743
294.441
314.155
330.6
343.565
352.882
358.462
360.262
358.268
352.663
343.508
331.019
315.469
297.167
276.4
253.51
228.802
202.608
175.267
147.066
118.283
89.1932
59.9947
30.7468
0.27042
-27.8276
-55.1382
-81.603
-107.074
-131.415
-154.522
-176.282
-196.628
-215.467
-232.728
-248.4
-262.46
-286.882
-271.088
-253.684
-234.634
-213.867
-191.306
-166.953
-140.929
-113.304
-84.056
-52.9937
-4.81627
28.5456
62.3623
96.5705
130.748
164.508
197.507
229.259
259.28
287.159
312.443
334.732
353.726
369.106
380.623
388.096
391.45
390.543
385.445
376.222
362.962
345.876
325.239
301.343
274.537
245.246
213.878
180.873
146.702
111.79
76.5771
41.4242
6.72419
-26.5414
-58.8423
-90.1041
-120.095
-148.599
-175.46
-200.588
-223.929
-245.452
-265.16
-283.057
-299.176
-313.55
-326.212
-337.2
-346.552
-354.294
-360.455
-365.041
-368.071
-369.521
-369.369
-367.657
-364.365
-359.484
-352.997
-344.861
-335.072
-323.624
-310.483
-295.641
-279.099
-260.849
-240.913
-219.303
-196.049
-171.209
-144.858
-117.077
-87.9594
-57.6137
-26.0872
6.20198
39.0823
72.2983
105.556
138.529
170.866
202.196
232.135
260.295
286.291
309.751
330.324
347.69
361.57
371.727
377.98
380.175
378.239
372.26
362.193
348.168
330.368
309.03
284.454
256.991
227.037
195.029
161.426
126.698
91.3194
55.746
20.4109
-14.2844
-47.9982
-80.4269
-111.319
-140.478
-167.754
-193.051
-216.311
-237.513
-256.663
-273.798
-288.968
-302.242
-313.696
-323.413
-331.48
-337.977
-342.989
-346.591
-348.843
-349.802
-349.528
-348.051
-345.387
-341.539
-336.493
-330.229
-322.708
-313.881
-303.695
-292.093
-279.015
-264.406
-248.213
-230.392
-210.903
-189.721
-166.839
-142.276
-116.076
-88.3192
-59.119
-28.6228
3.07491
35.5375
68.5708
101.868
135.079
167.825
199.701
230.282
259.129
285.808
309.891
330.973
348.687
362.713
372.793
378.73
380.375
377.708
370.829
359.77
344.755
326.046
303.965
278.881
251.203
221.368
189.828
157.04
123.452
89.5021
55.5979
22.1335
-10.5791
-42.2325
-72.5913
-101.47
-128.735
-154.29
-178.074
-200.055
-220.223
-238.584
-255.165
-270.006
-283.16
-294.688
-304.651
-313.109
-320.119
-325.727
-329.978
-332.917
-334.557
-334.938
-334.095
-332.042
-328.782
-324.312
-318.623
-311.695
-303.497
-293.996
-283.153
-270.927
-257.268
-242.132
-225.473
-207.252
-187.438
-166.014
-142.981
-118.364
-92.2165
-64.6196
-35.6897
-5.58229
25.5256
57.3857
89.6815
122.113
154.329
185.944
216.541
245.687
272.941
297.863
320.034
339.058
354.577
366.286
373.944
377.366
376.439
371.234
361.781
348.232
330.846
309.937
285.881
259.098
230.045
199.201
167.048
134.065
100.736
67.703
34.9474
2.89771
-28.1293
-57.8901
-86.1947
-112.911
-137.936
-161.233
-182.759
-202.518
-220.522
-236.801
-251.387
-264.341
-275.734
-285.642
-294.133
-301.285
-307.131
-311.695
-314.963
-317.02
-317.941
-317.767
-316.543
-314.329
-311.125
-306.905
-301.641
-295.266
-287.684
-278.816
-268.543
-256.75
-243.315
-228.097
-211.016
-191.986
-170.93
-147.857
-122.814
-95.875
-67.2059
-36.9945
-5.5139
26.6509
59.4937
92.6483
125.601
157.934
189.172
218.866
246.649
272.105
294.866
314.635
331.125
344.124
353.464
359.05
360.857
358.843
353.207
344.012
331.474
315.869
297.51
276.683
253.733
228.966
202.716
175.323
147.075
118.248
89.1191
59.8817
30.5975
0.128089
-27.9973
-55.3304
-81.8151
-107.303
-131.659
-154.779
-176.548
-196.902
-215.747
-233.011
-248.686
-262.747
-287.25
-271.47
-254.078
-235.033
-214.271
-191.711
-167.351
-141.311
-113.655
-84.363
-53.3072
-5.2147
28.1977
62.1005
96.3961
130.661
164.514
197.612
229.468
259.594
287.574
312.953
335.328
354.396
369.84
381.405
388.908
392.274
391.377
386.256
376.988
363.674
346.522
325.807
301.823
274.923
245.535
214.069
180.968
146.705
111.707
76.4163
41.1962
6.44945
-26.8488
-59.1842
-90.4753
-120.489
-149.008
-175.877
-201.005
-224.341
-245.857
-265.555
-283.44
-299.546
-313.908
-326.558
-337.537
-346.879
-354.614
-360.77
-365.351
-368.377
-369.832
-369.681
-367.969
-364.681
-359.806
-353.324
-345.194
-335.413
-323.972
-310.838
-296.003
-279.466
-261.22
-241.287
-219.676
-196.418
-171.573
-145.215
-117.425
-88.2887
-57.9198
-26.3735
5.959
38.8865
72.1561
105.476
138.519
170.935
202.349
232.377
260.627
286.712
310.256
330.908
348.344
362.282
372.484
378.765
380.979
379.047
373.043
362.942
348.868
331.003
309.588
284.925
257.366
227.312
195.203
161.499
126.676
91.2074
55.5531
20.1473
-14.6058
-48.368
-80.8341
-111.753
-140.927
-168.211
-193.508
-216.762
-237.953
-257.089
-274.206
-289.357
-302.611
-314.045
-323.743
-331.79
-338.271
-343.266
-346.853
-349.093
-350.044
-349.764
-348.284
-345.62
-341.774
-336.735
-330.479
-322.968
-314.155
-303.982
-292.395
-279.332
-264.736
-248.558
-230.749
-211.271
-190.096
-167.218
-142.654
-116.446
-88.6745
-59.4506
-28.9212
2.80078
35.318
68.4104
101.774
135.06
167.889
199.854
230.528
259.471
286.247
310.423
331.591
349.382
363.471
373.597
379.56
381.219
378.544
371.626
360.519
345.437
326.649
304.478
279.298
251.52
221.585
189.947
157.065
123.391
89.3625
55.389
21.8681
-10.8927
-42.5824
-72.9667
-101.862
-129.135
-154.692
-178.474
-200.45
-220.609
-238.957
-255.525
-270.351
-283.49
-295.003
-304.952
-313.397
-320.396
-325.994
-330.237
-333.167
-334.801
-335.178
-334.332
-332.279
-329.019
-324.553
-318.87
-311.948
-303.758
-294.267
-283.436
-271.222
-257.575
-242.453
-225.806
-207.596
-187.792
-166.374
-143.343
-118.723
-92.5656
-64.9526
-35.9995
-5.85999
25.287
57.2008
89.5564
122.056
154.351
186.051
216.739
245.98
273.33
298.348
320.609
339.714
355.304
367.07
374.766
378.207
377.288
372.056
362.557
348.948
331.484
310.486
286.33
259.443
230.285
199.337
167.083
134.006
100.595
67.5064
34.6929
2.59172
-28.4725
-58.2593
-86.5782
-113.302
-138.329
-161.62
-183.138
-202.885
-220.878
-237.142
-251.713
-264.652
-276.03
-285.923
-294.4
-301.54
-307.378
-311.93
-315.184
-317.23
-318.143
-317.964
-316.738
-314.526
-311.327
-307.116
-301.863
-295.505
-287.944
-279.099
-268.852
-257.085
-243.677
-228.485
-211.426
-192.414
-171.369
-148.3
-123.249
-96.2926
-67.5942
-37.3415
-5.80848
26.4094
59.3261
92.5625
125.603
158.026
189.357
219.143
247.016
272.559
295.397
315.235
331.782
344.824
354.192
359.787
361.593
359.566
353.887
344.641
332.043
316.37
297.938
277.037
254.011
229.171
202.851
175.392
147.084
118.205
89.0263
59.7405
30.4115
-0.0511598
-28.2098
-55.5708
-82.0805
-107.591
-131.965
-155.1
-176.882
-197.245
-216.097
-233.366
-249.044
-263.107
-287.693
-271.929
-254.55
-235.513
-214.757
-192.197
-167.83
-141.771
-114.077
-84.7285
-53.685
-5.70022
27.778
61.7863
96.187
130.557
164.52
197.738
229.719
259.97
288.072
313.565
336.044
355.202
370.722
382.345
389.884
393.265
392.375
387.23
377.908
364.53
347.297
326.488
302.399
275.386
245.881
214.297
181.081
146.708
111.607
76.2221
40.9206
6.11968
-27.2195
-59.5943
-90.9211
-120.964
-149.5
-176.377
-201.506
-224.837
-246.343
-266.028
-283.899
-299.991
-314.337
-326.974
-337.94
-347.271
-354.998
-361.147
-365.723
-368.744
-370.204
-370.053
-368.344
-365.061
-360.192
-353.716
-345.595
-335.822
-324.389
-311.264
-296.436
-279.907
-261.666
-241.735
-220.123
-196.861
-172.011
-145.645
-117.842
-88.6848
-58.2899
-26.7169
5.66718
38.6506
71.9844
105.378
138.507
171.017
202.532
232.667
261.025
287.217
310.864
331.61
349.129
363.137
373.393
379.709
381.942
380.018
373.985
363.842
349.708
331.766
310.258
285.49
257.816
227.642
195.41
161.586
126.648
91.0717
55.3202
19.8294
-14.993
-48.8134
-81.3243
-112.274
-141.467
-168.761
-194.058
-217.304
-238.482
-257.601
-274.696
-289.825
-303.055
-314.465
-324.139
-332.163
-338.623
-343.599
-347.168
-349.393
-350.334
-350.047
-348.563
-345.899
-342.057
-337.025
-330.78
-323.281
-314.483
-304.328
-292.758
-279.712
-265.134
-248.972
-231.178
-211.712
-190.547
-167.674
-143.108
-116.891
-89.1021
-59.8506
-29.2838
2.47374
35.054
68.2169
101.66
135.036
167.964
200.035
230.822
259.882
286.773
311.062
332.335
350.218
364.382
374.563
380.559
382.232
379.548
372.585
361.418
346.257
327.373
305.095
279.799
251.901
221.844
190.088
157.094
123.317
89.1938
55.1372
21.5476
-11.2706
-43.0039
-73.4184
-102.333
-129.616
-155.177
-178.956
-200.924
-221.072
-239.407
-255.958
-270.767
-283.886
-295.382
-305.313
-313.742
-320.728
-326.315
-330.548
-333.467
-335.095
-335.467
-334.618
-332.563
-329.304
-324.842
-319.165
-312.251
-304.072
-294.594
-283.776
-271.576
-257.945
-242.838
-226.207
-208.011
-188.217
-166.806
-143.777
-119.153
-92.9856
-65.3534
-36.3724
-6.19467
24.9991
56.9783
89.4052
121.988
154.376
186.178
216.976
246.331
273.797
298.929
321.299
340.503
356.178
368.012
375.754
379.219
378.305
373.044
363.492
349.809
332.251
311.144
286.869
259.856
230.572
199.499
167.124
133.933
100.423
67.2709
34.3861
2.22326
-28.8857
-58.7033
-87.0396
-113.772
-138.8
-162.085
-183.592
-203.326
-221.304
-237.552
-252.104
-265.026
-276.384
-286.26
-294.72
-301.847
-307.677
-312.213
-315.449
-317.481
-318.385
-318.2
-316.971
-314.761
-311.569
-307.369
-302.13
-295.792
-288.255
-279.438
-269.222
-257.488
-244.113
-228.951
-211.919
-192.929
-171.897
-148.832
-123.773
-96.7948
-68.0612
-37.7591
-6.16359
26.1185
59.124
92.4586
125.604
158.137
189.58
219.475
247.456
273.103
296.035
315.956
332.572
345.665
355.066
360.676
362.476
360.433
354.704
345.398
332.727
316.972
298.452
277.46
254.344
229.416
203.012
175.475
147.095
118.152
88.9147
59.571
30.1888
-0.26803
-28.4655
-55.8598
-82.3993
-107.936
-132.333
-155.486
-177.282
-197.657
-216.518
-233.792
-249.474
-263.538
-288.209
-272.464
-255.102
-236.074
-215.325
-192.766
-168.391
-142.309
-114.568
-85.1537
-54.1171
-6.28099
27.2847
61.4195
95.9428
130.435
164.527
197.884
230.011
260.409
288.653
314.28
336.88
356.143
371.751
383.443
391.024
394.426
393.539
388.365
378.984
365.53
348.202
327.283
303.071
275.926
246.285
214.562
181.212
146.71
111.49
75.9939
40.5961
5.7335
-27.6535
-60.0721
-91.442
-121.519
-150.074
-176.961
-202.092
-225.415
-246.911
-266.58
-284.436
-300.51
-314.839
-327.459
-338.411
-347.729
-355.446
-361.588
-366.157
-369.173
-370.636
-370.485
-368.781
-365.505
-360.642
-354.174
-346.062
-336.299
-324.876
-311.761
-296.943
-280.421
-262.187
-242.259
-220.645
-197.378
-172.523
-146.147
-118.328
-89.148
-58.7242
-27.1183
5.32611
38.3744
71.7827
105.263
138.491
171.111
202.745
233.005
261.49
287.806
311.572
332.429
350.046
364.136
374.455
380.814
383.068
381.149
375.086
364.894
350.69
332.657
311.041
286.149
258.341
228.027
195.652
161.686
126.613
90.9117
55.0467
19.456
-15.4464
-49.3352
-81.8979
-112.884
-142.1
-169.403
-194.7
-217.938
-239.1
-258.199
-275.269
-290.372
-303.573
-314.955
-324.601
-332.599
-339.033
-343.987
-347.535
-349.744
-350.672
-350.377
-348.888
-346.224
-342.387
-337.363
-331.13
-323.647
-314.867
-304.731
-293.182
-280.156
-265.598
-249.455
-231.679
-212.228
-191.074
-168.207
-143.639
-117.412
-89.6023
-60.3196
-29.7099
2.09189
34.745
67.9899
101.526
135.006
168.05
200.246
231.165
260.36
287.388
311.807
333.202
351.193
365.446
375.693
381.728
383.415
380.72
373.707
362.469
347.214
328.219
305.815
280.383
252.344
222.146
190.252
157.127
123.228
88.9953
54.8433
21.1699
-11.7136
-43.4976
-73.947
-102.884
-130.179
-155.743
-179.519
-201.478
-221.613
-239.932
-256.464
-271.252
-284.349
-295.823
-305.734
-314.146
-321.115
-326.689
-330.91
-333.818
-335.438
-335.804
-334.951
-332.894
-329.637
-325.18
-319.51
-312.606
-304.439
-294.974
-284.173
-271.99
-258.377
-243.288
-226.675
-208.495
-188.714
-167.311
-144.285
-119.657
-93.4768
-65.8225
-36.8087
-6.58696
24.6607
56.7179
89.2273
121.906
154.403
186.325
217.251
246.74
274.342
299.608
322.104
341.424
357.198
369.113
376.91
380.402
379.493
374.198
364.584
350.814
333.147
311.912
287.497
260.338
230.906
199.687
167.172
133.847
100.218
66.9974
34.0263
1.79151
-29.3697
-59.2224
-87.5794
-114.32
-139.351
-162.627
-184.123
-203.841
-221.802
-238.03
-252.56
-265.462
-276.798
-286.654
-295.095
-302.207
-308.029
-312.541
-315.757
-317.774
-318.667
-318.475
-317.243
-315.036
-311.851
-307.663
-302.441
-296.125
-288.617
-279.834
-269.654
-257.959
-244.621
-229.494
-212.494
-193.529
-172.515
-149.455
-124.384
-97.3823
-68.6077
-38.2479
-6.57983
25.7775
58.887
92.3364
125.604
158.265
189.838
219.863
247.97
273.738
296.781
316.798
333.494
346.648
356.088
361.716
363.508
361.442
355.657
346.281
333.524
317.674
299.052
277.954
254.732
229.701
203.199
175.57
147.106
118.089
88.7842
59.3733
29.9296
-0.523248
-28.7648
-56.1974
-82.7717
-108.339
-132.762
-155.936
-177.75
-198.138
-217.008
-234.29
-249.976
-264.042
-288.8
-273.077
-255.732
-236.716
-215.975
-193.416
-169.032
-142.925
-115.132
-85.64
-54.5904
-6.96784
26.7156
60.9999
95.6634
130.294
164.532
198.049
230.345
260.91
289.317
315.099
337.836
357.22
372.929
384.699
392.33
395.756
394.87
389.662
380.215
366.674
349.238
328.192
303.839
276.542
246.745
214.865
181.36
146.712
111.354
75.7312
40.2209
5.28719
-28.1488
-60.6171
-92.0384
-122.154
-150.732
-177.631
-202.761
-226.077
-247.56
-267.212
-285.049
-301.103
-315.412
-328.013
-338.948
-348.253
-355.958
-362.091
-366.653
-369.664
-371.125
-370.979
-369.281
-366.011
-361.156
-354.697
-346.596
-336.845
-325.434
-312.329
-297.522
-281.009
-262.782
-242.856
-221.242
-197.97
-173.108
-146.721
-118.884
-89.6787
-59.2222
-27.5795
4.93527
38.0572
71.5503
105.13
138.47
171.217
202.988
233.39
262.02
288.48
312.383
333.366
351.095
365.28
375.672
382.079
384.359
382.442
376.347
366.099
351.814
333.677
311.937
286.903
258.941
228.466
195.926
161.8
126.572
90.7267
54.7316
19.0264
-15.9669
-49.9343
-82.5561
-113.583
-142.824
-170.139
-195.436
-218.664
-239.808
-258.883
-275.926
-290.997
-304.166
-315.515
-325.13
-333.097
-339.503
-344.431
-347.956
-350.145
-351.059
-350.753
-349.26
-346.596
-342.764
-337.75
-331.53
-324.065
-315.306
-305.193
-293.666
-280.664
-266.129
-250.008
-232.252
-212.819
-191.678
-168.817
-144.247
-118.009
-90.1762
-60.8586
-30.1998
1.65422
34.3904
67.7286
101.371
134.971
168.146
200.486
231.556
260.906
288.089
312.66
334.195
352.31
366.665
376.986
383.068
384.771
382.06
374.992
363.671
348.31
329.186
306.637
281.05
252.85
222.49
190.438
157.163
123.124
88.7662
54.5045
20.736
-12.2227
-44.0641
-74.5536
-103.515
-130.823
-156.391
-180.163
-202.113
-222.233
-240.533
-257.043
-271.806
-284.879
-296.328
-306.216
-314.607
-321.559
-327.117
-331.325
-334.22
-335.83
-336.189
-335.331
-333.272
-330.017
-325.566
-319.904
-313.012
-304.859
-295.41
-284.626
-272.463
-258.871
-243.804
-227.21
-209.049
-189.282
-167.89
-144.868
-120.235
-94.0398
-66.3606
-37.309
-7.03752
24.2715
56.4188
89.0218
121.811
154.432
186.491
217.565
247.207
274.964
300.383
323.025
342.478
358.367
370.373
378.233
381.758
380.852
375.519
365.834
351.965
334.172
312.791
288.216
260.889
231.287
199.901
167.225
133.746
99.9782
66.6878
33.6131
1.29542
-29.9251
-59.8173
-88.1982
-114.949
-139.981
-163.249
-184.73
-204.431
-222.372
-238.577
-253.081
-265.96
-277.273
-287.105
-295.525
-302.62
-308.436
-312.916
-316.108
-318.108
-318.989
-318.789
-317.553
-315.349
-312.173
-307.998
-302.795
-296.505
-289.031
-280.287
-270.147
-258.496
-245.201
-230.117
-213.153
-194.217
-173.222
-150.167
-125.086
-98.0559
-69.2347
-38.8089
-7.05783
25.3859
58.6144
92.1952
125.603
158.411
190.134
220.305
248.557
274.464
297.633
317.762
334.549
347.772
357.258
362.906
364.69
362.594
356.748
347.291
334.436
318.476
299.737
278.518
255.174
230.026
203.413
175.678
147.118
118.017
88.6344
59.1473
29.6338
-0.817557
-29.1078
-56.5839
-83.1979
-108.801
-133.253
-156.452
-178.285
-198.688
-217.57
-234.859
-250.55
-264.618
-289.465
-273.766
-256.441
-237.44
-216.707
-194.15
-169.756
-143.622
-115.768
-86.1877
-55.0901
-7.77533
26.069
60.5273
95.3483
130.133
164.536
198.233
230.719
261.474
290.066
316.02
338.913
358.433
374.256
386.115
393.802
397.256
396.369
391.124
381.603
367.964
350.404
329.215
304.703
277.235
247.262
215.203
181.524
146.711
111.2
75.4333
39.793
4.77205
-28.6985
-61.2283
-92.711
-122.87
-151.475
-178.385
-203.516
-226.823
-248.291
-267.923
-285.739
-301.77
-316.057
-328.637
-339.553
-348.841
-356.534
-362.656
-367.211
-370.217
-371.675
-371.535
-369.843
-366.581
-361.735
-355.285
-347.197
-337.459
-326.06
-312.969
-298.173
-281.672
-263.452
-243.529
-221.913
-198.637
-173.767
-147.368
-119.509
-90.2772
-59.7846
-28.1011
4.49411
37.6986
71.2867
104.977
138.446
171.334
203.259
233.823
262.617
289.238
313.295
334.422
352.278
366.569
377.043
383.505
385.813
383.898
377.768
367.457
353.081
334.827
312.946
287.752
259.617
228.959
196.234
161.925
126.523
90.5157
54.3741
18.5398
-16.5558
-50.6118
-83.2997
-114.373
-143.643
-170.97
-196.266
-219.482
-240.606
-259.654
-276.665
-291.701
-304.834
-316.146
-325.725
-333.658
-340.032
-344.931
-348.43
-350.596
-351.494
-351.177
-349.678
-347.015
-343.188
-338.186
-331.981
-324.535
-315.8
-305.712
-294.212
-281.237
-266.727
-250.631
-232.898
-213.485
-192.359
-169.505
-144.934
-118.683
-90.8245
-61.4677
-30.7548
1.15973
33.9897
67.4321
101.194
134.929
168.253
200.753
231.994
261.519
288.879
313.62
335.313
353.568
368.038
378.445
384.578
386.299
383.569
376.441
365.028
349.545
330.276
307.564
281.8
253.418
222.875
190.645
157.201
123.005
88.5055
54.1202
20.2445
-12.7988
-44.7044
-75.2389
-104.228
-131.551
-157.122
-180.89
-202.828
-222.931
-241.21
-257.696
-272.431
-285.476
-296.897
-306.759
-315.126
-322.058
-327.599
-331.792
-334.672
-336.272
-336.624
-335.759
-333.698
-330.446
-326
-320.348
-313.469
-305.332
-295.901
-285.137
-272.996
-259.427
-244.384
-227.814
-209.673
-189.924
-168.543
-145.524
-120.887
-94.6754