/*--------------------------------*- C++ -*----------------------------------*\
| =========                 |                                                 |
| \\      /  F ield         | OpenFOAM: The Open Source CFD Toolbox           |
|  \\    /   O peration     | Version:  3.0.1                                 |
|   \\  /    A nd           | Web:      www.OpenFOAM.org                      |
|    \\/     M anipulation  |                                                 |
\*---------------------------------------------------------------------------*/
FoamFile
{
    version     2.0;
    format      ascii;
    class       volScalarField;
    location    "15.2";
    object      p;
}
// * * * * * * * * * * * * * * * * * * * * * * * * * * * * * * * * * * * * * //

dimensions      [1 -1 -2 0 0 0 0];

internalField   nonuniform List<scalar> 
21420
(
3794.65
3823.09
3852.93
3883.2
3910.61
3943.84
3978.1
4012.53
4046.64
4080.05
4112.3
4142.96
4171.64
4197.9
4221.37
4241.67
4258.49
4271.58
4280.75
4285.86
4286.74
4283.45
4276.03
4264.6
4249.31
4230.44
4208.23
4183.01
4155.19
4125.15
4093.3
4060.1
4025.99
3991.42
3956.81
3922.64
3890.28
3858.19
3826.77
3796.43
3767.48
3740.1
3714.42
3690.51
3668.41
3648.12
3629.65
3612.97
3598.05
3584.85
3573.33
3563.43
3555.12
3548.36
3543.13
3539.38
3537.11
3536.34
3537.23
3539.63
3543.59
3549.12
3556.29
3565.09
3575.55
3587.73
3601.63
3617.27
3634.66
3653.78
3674.62
3697.13
3721.24
3746.9
3774.01
3802.43
3832.06
3862.71
3894.17
3926.25
3958.78
3991.46
4023.98
4056.04
4087.29
4117.41
4146
4172.69
4197.12
4218.94
4237.81
4253.44
4265.57
4274
4278.57
4279.14
4275.73
4268.37
4257.07
4241.99
4223.3
4201.26
4176.14
4148.29
4118.09
4085.96
4052.32
4017.65
3982.38
3946.99
3911.88
3877.45
3844.05
3811.97
3781.46
3752.72
3725.87
3701.02
3678.23
3657.52
3638.86
3622.24
3607.6
3594.87
3583.99
3574.85
3567.37
3561.46
3557.03
3553.99
3552.27
3551.84
3552.57
3554.46
3557.49
3561.66
3566.98
3573.5
3581.27
3590.38
3600.89
3612.9
3626.5
3641.79
3658.83
3677.71
3698.44
3721.05
3745.53
3771.82
3799.83
3829.41
3860.39
3892.56
3925.65
3959.29
3993.14
4026.84
4059.97
4092.09
4122.76
4151.56
4178.06
4201.87
4222.64
4240.08
4253.93
4264.02
4270.23
4272.49
4270.88
4265.4
4256.23
4243.5
4227.43
4208.26
4186.26
4161.71
4134.92
4106.21
4075.89
4044.32
4011.81
3978.7
3945.32
3911.99
3879
3846.65
3815.2
3784.9
3755.95
3728.56
3702.88
3679.04
3657.14
3637.25
3619.41
3603.64
3589.92
3578.22
3568.49
3560.68
3554.73
3550.52
3548.02
3547.16
3547.81
3549.92
3553.44
3558.33
3564.54
3572.05
3580.84
3590.93
3602.32
3615.04
3629.1
3644.55
3661.42
3679.75
3699.58
3720.91
3743.77
3768.14
3793.98
3821.22
3849.75
3879.43
3910.31
3941.71
3973.62
4005.72
4037.66
4069.07
4099.55
4128.69
4156.1
4181.34
4204.05
4223.87
4240.45
4253.54
4262.89
4268.35
4269.75
4267.17
4260.53
4249.95
4235.56
4217.58
4196.26
4171.92
4144.92
4115.65
4084.54
4052.02
4018.56
3984.61
3950.59
3916.91
3883.96
3852.04
3821.43
3792.37
3765.03
3739.53
3715.96
3694.37
3674.76
3657.13
3641.43
3627.61
3615.62
3605.37
3596.79
3589.8
3584.33
3580.32
3577.7
3576.42
3576.45
3577.73
3580.25
3584
3588.95
3595.13
3602.55
3611.22
3621.13
3632.32
3644.81
3658.6
3673.71
3690.14
3707.88
3726.93
3747.25
3768.81
3791.58
3815.45
3840.38
3866.22
3892
3918.92
3946.32
3973.91
4001.49
4028.75
4055.45
4081.27
4105.93
4129.14
4150.63
4170.12
4187.36
4202.13
4214.23
4223.5
4229.81
4233.07
4233.2
4230.25
4224.29
4215.35
4203.6
4189.21
4172.4
4153.44
4132.59
4110.14
4086.41
4061.72
4036.37
4010.7
3985
3959.59
3934.76
3910.91
3889.55
3867.96
3847.25
3827.79
3809.76
3793.25
3778.31
3764.97
3753.26
3743.15
3734.63
3727.67
3722.23
3718.25
3715.68
3714.49
3714.79
3716.47
3719.46
3696.46
3724.91
3754.76
3785.05
3812.44
3845.69
3879.97
3914.41
3948.54
3981.97
4014.23
4044.91
4073.61
4099.9
4123.38
4143.7
4160.53
4173.63
4182.8
4187.92
4188.81
4185.51
4178.09
4166.64
4151.35
4132.46
4110.23
4085
4057.15
4027.09
3995.23
3962.01
3927.88
3893.29
3858.66
3824.48
3792.13
3760.03
3728.6
3698.26
3669.3
3641.92
3616.24
3592.33
3570.22
3549.94
3531.48
3514.8
3499.88
3486.68
3475.16
3465.27
3456.96
3450.2
3444.97
3441.22
3438.95
3438.18
3439.07
3441.47
3445.43
3450.96
3458.12
3466.92
3477.38
3489.56
3503.46
3519.1
3536.49
3555.61
3576.44
3598.95
3623.07
3648.73
3675.84
3704.27
3733.9
3764.56
3796.02
3828.11
3860.65
3893.34
3925.87
3957.94
3989.22
4019.35
4047.95
4074.66
4099.11
4120.94
4139.83
4155.47
4167.61
4176.05
4180.63
4181.19
4177.78
4170.42
4159.11
4144.02
4125.32
4103.26
4078.13
4050.26
4020.04
3987.89
3954.23
3919.54
3884.26
3848.85
3813.72
3779.28
3745.87
3713.79
3683.28
3654.52
3627.68
3602.83
3580.04
3559.33
3540.68
3524.06
3509.42
3496.7
3485.81
3476.68
3469.2
3463.3
3458.87
3455.83
3454.13
3453.69
3454.42
3456.32
3459.35
3463.52
3468.84
3475.35
3483.12
3492.22
3502.73
3514.73
3528.33
3543.61
3560.66
3579.52
3600.25
3622.87
3647.35
3673.64
3701.65
3731.24
3762.23
3794.4
3827.5
3861.15
3895.02
3928.74
3961.88
3994.02
4024.71
4053.53
4080.05
4103.87
4124.66
4142.11
4155.97
4166.07
4172.29
4174.55
4172.92
4167.44
4158.26
4145.53
4129.44
4110.26
4088.25
4063.68
4036.88
4008.15
3977.82
3946.23
3913.71
3880.59
3847.2
3813.85
3780.85
3748.49
3717.04
3686.72
3657.77
3630.37
3604.69
3580.85
3558.95
3539.06
3521.22
3505.45
3491.73
3480.04
3470.31
3462.51
3456.55
3452.35
3449.85
3449
3449.65
3451.76
3455.29
3460.18
3466.39
3473.89
3482.69
3492.77
3504.17
3516.88
3530.94
3546.38
3563.25
3581.59
3601.41
3622.74
3645.6
3669.97
3695.81
3723.05
3751.59
3781.27
3812.15
3843.57
3875.49
3907.6
3939.55
3970.98
4001.48
4030.64
4058.06
4083.33
4106.06
4125.88
4142.48
4155.58
4164.94
4170.41
4171.82
4169.22
4162.58
4151.99
4137.6
4119.6
4098.26
4073.91
4046.89
4017.6
3986.47
3953.94
3920.46
3886.48
3852.45
3818.76
3785.79
3753.86
3723.25
3694.19
3666.84
3641.34
3617.77
3596.18
3576.58
3558.95
3543.25
3529.44
3517.44
3507.2
3498.63
3491.64
3486.17
3482.16
3479.55
3478.27
3478.3
3479.58
3482.1
3485.85
3490.81
3496.98
3504.4
3513.07
3522.98
3534.17
3546.65
3560.45
3575.55
3591.98
3609.72
3628.77
3649.09
3670.66
3693.42
3717.3
3742.23
3768.07
3793.86
3820.79
3848.2
3875.8
3903.38
3930.66
3957.36
3983.2
4007.87
4031.1
4052.6
4072.1
4089.35
4104.14
4116.24
4125.51
4131.83
4135.1
4135.22
4132.27
4126.3
4117.35
4105.59
4091.2
4074.38
4055.41
4034.54
4012.08
3988.34
3963.63
3938.27
3912.59
3886.88
3861.45
3836.61
3812.74
3791.41
3769.8
3749.09
3729.63
3711.59
3695.08
3680.14
3666.81
3655.09
3644.98
3636.47
3629.51
3624.07
3620.09
3617.53
3616.34
3616.64
3618.32
3621.31
3598.19
3626.65
3656.53
3686.87
3714.2
3747.49
3781.81
3816.29
3850.45
3883.9
3916.21
3946.92
3975.66
4001.99
4025.5
4045.85
4062.71
4075.83
4085.02
4090.14
4091.05
4087.72
4080.29
4068.83
4053.51
4034.59
4012.34
3987.07
3959.19
3929.09
3897.18
3863.93
3829.77
3795.14
3760.47
3726.26
3693.94
3661.81
3630.36
3600
3571.04
3543.65
3517.97
3494.06
3471.96
3451.68
3433.22
3416.55
3401.64
3388.45
3376.93
3367.04
3358.74
3351.98
3346.75
3343
3340.73
3339.97
3340.85
3343.25
3347.2
3352.74
3359.89
3368.69
3379.15
3391.32
3405.21
3420.85
3438.24
3457.36
3478.19
3500.71
3524.83
3550.49
3577.6
3606.04
3635.68
3666.35
3697.83
3729.94
3762.49
3795.2
3827.76
3859.86
3891.16
3921.32
3949.96
3976.7
4001.19
4023.05
4041.97
4057.63
4069.8
4078.25
4082.85
4083.41
4079.99
4072.62
4061.3
4046.19
4027.46
4005.37
3980.21
3952.3
3922.05
3889.85
3856.16
3821.42
3786.11
3750.66
3715.52
3681.05
3647.62
3615.52
3585
3556.24
3529.39
3504.54
3481.76
3461.05
3442.4
3425.79
3411.16
3398.45
3387.57
3378.44
3370.98
3365.08
3360.66
3357.63
3355.93
3355.5
3356.23
3358.12
3361.16
3365.32
3370.64
3377.15
3384.91
3394
3404.5
3416.5
3430.09
3445.36
3462.4
3481.26
3501.99
3524.6
3549.08
3575.37
3603.39
3632.99
3663.99
3696.18
3729.3
3762.98
3796.88
3830.63
3863.81
3895.98
3926.72
3955.57
3982.12
4005.99
4026.8
4044.28
4058.16
4068.27
4074.49
4076.77
4075.11
4069.63
4060.44
4047.68
4031.57
4012.36
3990.32
3965.73
3938.89
3910.13
3879.77
3848.15
3815.6
3782.46
3749.04
3715.67
3682.66
3650.28
3618.81
3588.48
3559.52
3532.11
3506.42
3482.58
3460.68
3440.79
3422.95
3407.18
3393.47
3381.78
3372.06
3364.26
3358.31
3354.12
3351.63
3350.78
3351.43
3353.55
3357.08
3361.97
3368.18
3375.69
3384.48
3394.57
3405.96
3418.66
3432.72
3448.16
3465.03
3483.35
3503.17
3524.5
3547.36
3571.73
3597.57
3624.82
3653.36
3683.06
3713.94
3745.38
3777.33
3809.46
3841.45
3872.9
3903.44
3932.64
3960.09
3985.4
4008.16
4028.02
4044.65
4057.77
4067.15
4072.62
4074.05
4071.43
4064.78
4054.18
4039.76
4021.74
4000.37
3975.98
3948.93
3919.6
3888.43
3855.86
3822.34
3788.33
3754.27
3720.55
3687.57
3655.62
3625
3595.92
3568.57
3543.07
3519.5
3497.91
3478.31
3460.68
3445
3431.19
3419.2
3408.97
3400.4
3393.42
3387.95
3383.95
3381.34
3380.07
3380.1
3381.38
3383.91
3387.65
3392.61
3398.78
3406.2
3414.86
3424.78
3435.96
3448.44
3462.23
3477.34
3493.76
3511.5
3530.55
3550.87
3572.44
3595.21
3619.09
3644.02
3669.87
3695.69
3722.63
3750.05
3777.67
3805.27
3832.57
3859.3
3885.16
3909.86
3933.11
3954.64
3974.16
3991.44
4006.24
4018.36
4027.64
4033.96
4037.24
4037.37
4034.4
4028.43
4019.47
4007.69
3993.27
3976.43
3957.43
3936.54
3914.05
3890.29
3865.55
3840.17
3814.46
3788.73
3763.28
3738.42
3714.52
3693.23
3671.6
3650.87
3631.4
3613.36
3596.84
3581.91
3568.57
3556.86
3546.76
3538.24
3531.29
3525.85
3521.88
3519.32
3518.14
3518.45
3520.13
3523.12
3499.83
3528.32
3558.23
3588.64
3615.89
3649.24
3683.62
3718.14
3752.35
3785.86
3818.22
3848.99
3877.79
3904.17
3927.74
3948.13
3965.03
3978.18
3987.39
3992.52
3993.45
3990.1
3982.66
3971.17
3955.81
3936.85
3914.54
3889.22
3861.28
3831.13
3799.16
3765.86
3731.64
3696.96
3662.24
3627.98
3595.69
3563.54
3532.05
3501.67
3472.7
3445.31
3419.62
3395.71
3373.62
3353.34
3334.89
3318.23
3303.32
3290.14
3278.63
3268.75
3260.45
3253.7
3248.47
3244.73
3242.46
3241.7
3242.57
3244.97
3248.92
3254.45
3261.6
3270.39
3280.84
3293
3306.9
3322.53
3339.91
3359.03
3379.87
3402.38
3426.51
3452.17
3479.29
3507.74
3537.4
3568.08
3599.58
3631.72
3664.31
3697.04
3729.64
3761.78
3793.13
3823.34
3852.03
3878.82
3903.35
3925.27
3944.23
3959.93
3972.12
3980.6
3985.21
3985.79
3982.36
3974.97
3963.63
3948.48
3929.72
3907.59
3882.37
3854.41
3824.1
3791.84
3758.09
3723.3
3687.94
3652.44
3617.25
3582.75
3549.29
3517.17
3486.63
3457.87
3431.01
3406.17
3383.38
3362.68
3344.04
3327.44
3312.82
3300.12
3289.26
3280.14
3272.69
3266.8
3262.39
3259.37
3257.68
3257.25
3257.99
3259.89
3262.92
3267.08
3272.4
3278.9
3286.65
3295.73
3306.22
3318.2
3331.78
3347.04
3364.06
3382.92
3403.64
3426.24
3450.72
3477.02
3505.05
3534.66
3565.69
3597.9
3631.06
3664.77
3698.72
3732.52
3765.75
3797.98
3828.77
3857.68
3884.29
3908.2
3929.07
3946.58
3960.49
3970.62
3976.85
3979.14
3977.46
3971.96
3962.74
3949.95
3933.81
3914.57
3892.48
3867.84
3840.96
3812.15
3781.75
3750.09
3717.5
3684.31
3650.86
3617.46
3584.41
3552.01
3520.51
3490.16
3461.18
3433.76
3408.07
3384.22
3362.31
3342.43
3324.59
3308.83
3295.12
3283.44
3273.73
3265.94
3260
3255.82
3253.34
3252.5
3253.16
3255.28
3258.82
3263.71
3269.92
3277.43
3286.22
3296.31
3307.69
3320.39
3334.44
3349.88
3366.74
3385.06
3404.87
3426.2
3449.05
3473.42
3499.26
3526.51
3555.07
3584.8
3615.68
3647.15
3679.13
3711.31
3743.34
3774.84
3805.43
3834.68
3862.19
3887.55
3910.36
3930.27
3946.94
3960.09
3969.5
3974.99
3976.44
3973.79
3967.14
3956.52
3942.07
3924
3902.59
3878.14
3851.03
3821.65
3790.42
3757.79
3724.22
3690.16
3656.05
3622.29
3589.27
3557.3
3526.66
3497.57
3470.21
3444.7
3421.14
3399.55
3379.96
3362.34
3346.66
3332.86
3320.89
3310.66
3302.11
3295.14
3289.68
3285.68
3283.08
3281.82
3281.85
3283.14
3285.66
3289.41
3294.36
3300.53
3307.95
3316.61
3326.52
3337.7
3350.18
3363.97
3379.07
3395.49
3413.23
3432.28
3452.6
3474.17
3496.94
3520.83
3545.77
3571.63
3597.48
3624.44
3651.88
3679.52
3707.16
3734.49
3761.25
3787.15
3811.88
3835.18
3856.74
3876.3
3893.61
3908.44
3920.58
3929.89
3936.22
3939.49
3939.64
3936.66
3930.67
3921.69
3909.88
3895.43
3878.56
3859.53
3838.6
3816.06
3792.26
3767.48
3742.06
3716.32
3690.56
3665.08
3640.17
3616.22
3595.01
3573.34
3552.58
3533.1
3515.06
3498.54
3483.6
3470.27
3458.57
3448.47
3439.96
3433.01
3427.58
3423.61
3421.06
3419.88
3420.2
3421.89
3424.89
3401.39
3429.91
3459.87
3490.37
3517.51
3550.94
3585.39
3619.99
3654.26
3687.84
3720.27
3751.12
3779.99
3806.44
3830.08
3850.54
3867.49
3880.68
3889.92
3895.07
3896.01
3892.64
3885.17
3873.64
3858.25
3839.22
3816.85
3791.46
3763.45
3733.21
3701.18
3667.79
3633.5
3598.75
3563.96
3529.63
3497.41
3465.2
3433.67
3403.26
3374.27
3346.87
3321.18
3297.28
3275.19
3254.93
3236.48
3219.83
3204.93
3191.76
3180.26
3170.39
3162.1
3155.36
3150.13
3146.39
3144.13
3143.37
3144.23
3146.63
3150.58
3156.09
3163.24
3172.02
3182.46
3194.62
3208.51
3224.13
3241.51
3260.63
3281.47
3303.98
3328.11
3353.79
3380.92
3409.39
3439.06
3469.77
3501.3
3533.46
3566.09
3598.87
3631.52
3663.71
3695.12
3725.39
3754.15
3781.01
3805.61
3827.59
3846.61
3862.36
3874.6
3883.1
3887.72
3888.32
3884.88
3877.47
3866.1
3850.92
3832.1
3809.91
3784.62
3756.59
3726.2
3693.87
3660.04
3625.18
3589.74
3554.18
3518.93
3484.39
3450.89
3418.74
3388.18
3359.4
3332.54
3307.7
3284.92
3264.22
3245.6
3229.01
3214.41
3201.72
3190.87
3181.78
3174.34
3168.47
3164.07
3161.06
3159.39
3158.96
3159.71
3161.61
3164.64
3168.8
3174.1
3180.6
3188.34
3197.4
3207.87
3219.84
3233.4
3248.64
3265.65
3284.49
3305.2
3327.81
3352.29
3378.59
3406.63
3436.26
3467.31
3499.56
3532.77
3566.53
3600.53
3634.4
3667.7
3700
3730.87
3759.86
3786.54
3810.53
3831.45
3849.01
3862.96
3873.12
3879.37
3881.66
3879.96
3874.44
3865.19
3852.36
3836.17
3816.87
3794.72
3770.03
3743.08
3714.22
3683.76
3652.04
3619.39
3586.15
3552.65
3519.2
3486.12
3453.67
3422.14
3391.77
3362.77
3335.33
3309.62
3285.77
3263.86
3243.97
3226.14
3210.39
3196.69
3185.02
3175.32
3167.54
3161.62
3157.45
3154.99
3154.15
3154.83
3156.96
3160.5
3165.4
3171.62
3179.12
3187.91
3197.99
3209.37
3222.07
3236.11
3251.53
3268.38
3286.69
3306.5
3327.82
3350.67
3375.03
3400.88
3428.14
3456.72
3486.47
3517.36
3548.88
3580.91
3613.14
3645.22
3676.79
3707.45
3736.77
3764.36
3789.79
3812.67
3832.64
3849.37
3862.57
3872.01
3877.52
3878.98
3876.32
3869.66
3859
3844.5
3826.38
3804.91
3780.39
3753.21
3723.74
3692.44
3659.73
3626.09
3591.96
3557.79
3523.98
3490.92
3458.91
3428.24
3399.13
3371.76
3346.25
3322.68
3301.1
3281.52
3263.91
3248.25
3234.47
3222.51
3212.29
3203.75
3196.79
3191.35
3187.36
3184.77
3183.52
3183.56
3184.84
3187.37
3191.11
3196.07
3202.24
3209.65
3218.31
3228.21
3239.39
3251.86
3265.64
3280.74
3297.16
3314.9
3333.94
3354.27
3375.84
3398.62
3422.52
3447.46
3473.33
3499.24
3526.21
3553.68
3581.36
3609.04
3636.41
3663.22
3689.17
3713.96
3737.3
3758.91
3778.52
3795.87
3810.74
3822.92
3832.25
3838.59
3841.87
3842.03
3839.04
3833.02
3824.01
3812.18
3797.69
3780.77
3761.68
3740.7
3718.11
3694.25
3669.43
3643.96
3618.17
3592.36
3566.84
3541.88
3517.87
3496.75
3475.02
3454.24
3434.74
3416.69
3400.17
3385.23
3371.91
3360.2
3350.11
3341.61
3334.67
3329.24
3325.29
3322.75
3321.58
3321.9
3323.6
3326.61
3302.86
3331.41
3361.43
3392.05
3419.06
3452.6
3487.14
3521.82
3556.17
3589.83
3622.35
3653.3
3682.26
3708.81
3732.54
3753.08
3770.09
3783.34
3792.61
3797.78
3798.73
3795.35
3787.85
3776.27
3760.81
3741.72
3719.26
3693.78
3665.68
3635.35
3603.21
3569.74
3535.36
3500.51
3465.63
3431.23
3399.07
3366.8
3335.22
3304.78
3275.76
3248.36
3222.66
3198.76
3176.68
3156.43
3137.99
3121.35
3106.47
3093.31
3081.83
3071.96
3063.69
3056.95
3051.73
3048
3045.74
3044.98
3045.83
3048.23
3052.17
3057.68
3064.82
3073.58
3084.02
3096.17
3110.04
3125.66
3143.04
3162.15
3182.99
3205.51
3229.65
3255.33
3282.48
3310.96
3340.66
3371.4
3402.96
3435.17
3467.84
3500.68
3533.39
3565.65
3597.13
3627.49
3656.33
3683.27
3707.96
3730.01
3749.1
3764.92
3777.21
3785.75
3790.39
3791.01
3787.56
3780.13
3768.72
3753.48
3734.61
3712.33
3686.97
3658.85
3628.36
3595.93
3562
3527.04
3491.52
3455.88
3420.56
3385.96
3352.41
3320.23
3289.64
3260.85
3233.98
3209.13
3186.36
3165.68
3147.07
3130.5
3115.91
3103.25
3092.42
3083.34
3075.92
3070.07
3065.69
3062.7
3061.04
3060.62
3061.38
3063.28
3066.31
3070.47
3075.77
3082.24
3089.97
3099.01
3109.46
3121.41
3134.95
3150.17
3167.16
3185.98
3206.68
3229.28
3253.76
3280.08
3308.13
3337.79
3368.87
3401.17
3434.42
3468.25
3502.33
3536.27
3569.66
3602.06
3633.03
3662.11
3688.89
3712.96
3733.96
3751.59
3765.58
3775.77
3782.04
3784.32
3782.62
3777.07
3767.77
3754.88
3738.64
3719.27
3697.05
3672.28
3645.27
3616.33
3585.79
3554
3521.28
3487.98
3454.42
3420.91
3387.77
3355.28
3323.72
3293.31
3264.28
3236.82
3211.1
3187.23
3165.32
3145.43
3127.61
3111.86
3098.17
3086.51
3076.84
3069.08
3063.17
3059.02
3056.58
3055.75
3056.44
3058.58
3062.13
3067.04
3073.25
3080.76
3089.55
3099.62
3111
3123.68
3137.71
3153.13
3169.96
3188.26
3208.06
3229.37
3252.21
3276.58
3302.43
3329.71
3358.3
3388.09
3419
3450.57
3482.65
3514.95
3547.11
3578.76
3609.5
3638.91
3666.59
3692.11
3715.08
3735.13
3751.92
3765.18
3774.67
3780.21
3781.68
3779.02
3772.32
3761.62
3747.07
3728.89
3707.33
3682.73
3655.45
3625.89
3594.48
3561.68
3527.95
3493.74
3459.49
3425.61
3392.49
3360.44
3329.74
3300.61
3273.23
3247.71
3224.15
3202.57
3183
3165.41
3149.76
3135.99
3124.05
3113.86
3105.33
3098.39
3092.96
3088.99
3086.41
3085.17
3085.21
3086.5
3089.02
3092.77
3097.73
3103.89
3111.3
3119.95
3129.85
3141.02
3153.48
3167.26
3182.36
3198.77
3216.51
3235.55
3255.88
3277.46
3300.24
3324.15
3349.11
3374.99
3400.95
3427.96
3455.46
3483.19
3510.91
3538.34
3565.21
3591.22
3616.07
3639.48
3661.15
3680.82
3698.23
3713.14
3725.36
3734.72
3741.09
3744.38
3744.53
3741.54
3735.49
3726.45
3714.57
3700.03
3683.05
3663.9
3642.85
3620.2
3596.27
3571.38
3545.85
3520
3494.14
3468.56
3443.54
3419.44
3398.46
3376.65
3355.83
3336.32
3318.26
3301.73
3286.8
3273.48
3261.78
3251.69
3243.2
3236.27
3230.85
3226.91
3224.39
3223.22
3223.55
3225.26
3228.28
3204.24
3232.84
3262.94
3293.69
3320.53
3354.21
3388.86
3423.64
3458.08
3491.84
3524.47
3555.53
3584.62
3611.28
3635.11
3655.74
3672.83
3686.14
3695.46
3700.65
3701.61
3698.22
3690.67
3679.04
3663.51
3644.33
3621.78
3596.19
3567.97
3537.53
3505.28
3471.69
3437.2
3402.25
3367.26
3332.76
3300.7
3268.34
3236.69
3206.21
3177.17
3149.75
3124.06
3100.16
3078.09
3057.85
3039.43
3022.81
3007.94
2994.8
2983.32
2973.48
2965.21
2958.49
2953.28
2949.55
2947.29
2946.53
2947.38
2949.77
2953.7
2959.2
2966.33
2975.08
2985.5
2997.64
3011.51
3027.12
3044.49
3063.6
3084.44
3106.96
3131.11
3156.81
3183.97
3212.47
3242.19
3272.97
3304.57
3336.83
3369.57
3402.47
3435.25
3467.59
3499.17
3529.62
3558.56
3585.61
3610.39
3632.55
3651.72
3667.62
3679.97
3688.56
3693.23
3693.85
3690.4
3682.94
3671.48
3656.18
3637.23
3614.87
3589.4
3561.17
3530.56
3498.02
3463.97
3428.9
3393.27
3357.54
3322.13
3287.46
3253.86
3221.63
3191.01
3162.2
3135.33
3110.48
3087.71
3067.04
3048.45
3031.9
3017.34
3004.7
2993.89
2984.84
2977.45
2971.62
2967.26
2964.29
2962.65
2962.24
2963.01
2964.91
2967.94
2972.09
2977.38
2983.84
2991.55
3000.57
3010.99
3022.91
3036.42
3051.62
3068.59
3087.4
3108.08
3130.67
3155.15
3181.48
3209.55
3239.24
3270.36
3302.71
3336.03
3369.94
3404.1
3438.14
3471.64
3504.15
3535.23
3564.43
3591.32
3615.49
3636.59
3654.29
3668.35
3678.58
3684.86
3687.14
3685.43
3679.84
3670.48
3657.54
3641.22
3621.77
3599.47
3574.61
3547.51
3518.48
3487.85
3455.97
3423.17
3389.79
3356.15
3322.58
3289.38
3256.84
3225.22
3194.77
3165.71
3138.23
3112.48
3088.61
3066.69
3046.81
3028.99
3013.25
2999.58
2987.93
2978.27
2970.54
2964.64
2960.52
2958.1
2957.28
2957.99
2960.15
2963.71
2968.62
2974.84
2982.35
2991.14
3001.2
3012.57
3025.24
3039.26
3054.66
3071.48
3089.77
3109.55
3130.85
3153.69
3178.05
3203.91
3231.2
3259.82
3289.64
3320.58
3352.21
3384.36
3416.74
3448.98
3480.73
3511.58
3541.1
3568.89
3594.52
3617.59
3637.73
3654.62
3667.94
3677.48
3683.05
3684.53
3681.87
3675.14
3664.4
3649.78
3631.51
3609.86
3585.16
3557.76
3528.09
3496.56
3463.65
3429.8
3395.49
3361.15
3327.19
3294.01
3261.9
3231.16
3202
3174.6
3149.08
3125.52
3103.95
3084.39
3066.82
3051.19
3037.45
3025.53
3015.35
3006.85
2999.93
2994.52
2990.56
2988
2986.76
2986.81
2988.1
2990.63
2994.38
2999.33
3005.5
3012.9
3021.54
3031.43
3042.6
3055.05
3068.83
3083.92
3100.32
3118.06
3137.1
3157.43
3179.01
3201.8
3225.72
3250.7
3276.6
3302.63
3329.67
3357.22
3385
3412.78
3440.28
3467.22
3493.3
3518.23
3541.71
3563.46
3583.2
3600.67
3615.64
3627.91
3637.31
3643.7
3647
3647.16
3644.15
3638.07
3628.99
3617.06
3602.45
3585.41
3566.18
3545.05
3522.32
3498.31
3473.34
3447.74
3421.82
3395.89
3370.25
3345.16
3320.95
3300.12
3278.22
3257.36
3237.82
3219.75
3203.23
3188.29
3174.97
3163.28
3153.21
3144.73
3137.81
3132.41
3128.48
3125.97
3124.81
3125.16
3126.88
3129.91
3105.53
3134.18
3164.38
3195.28
3221.93
3255.77
3290.55
3325.44
3360
3393.87
3426.63
3457.82
3487.04
3513.84
3537.79
3558.53
3575.72
3589.1
3598.47
3603.69
3604.66
3601.25
3593.66
3581.96
3566.34
3547.06
3524.39
3498.68
3470.33
3439.75
3407.37
3373.66
3339.04
3303.96
3268.85
3234.22
3202.27
3169.82
3138.09
3107.57
3078.5
3051.07
3025.37
3001.48
2979.42
2959.19
2940.79
2924.18
2909.34
2896.21
2884.76
2874.92
2866.67
2859.96
2854.76
2851.04
2848.79
2848.02
2848.86
2851.25
2855.17
2860.66
2867.77
2876.51
2886.92
2899.04
2912.9
2928.5
2945.87
2964.97
2985.81
3008.34
3032.49
3058.21
3085.39
3113.92
3143.67
3174.49
3206.14
3238.46
3271.26
3304.24
3337.1
3369.55
3401.23
3431.79
3460.84
3488.01
3512.92
3535.18
3554.46
3570.45
3582.87
3591.52
3596.22
3596.85
3593.4
3585.9
3574.39
3559.02
3539.98
3517.51
3491.92
3463.56
3432.82
3400.14
3365.96
3330.75
3295
3259.15
3223.65
3188.89
3155.22
3122.94
3092.29
3063.46
3036.58
3011.73
2988.97
2968.32
2949.75
2933.22
2918.69
2906.07
2895.3
2886.27
2878.91
2873.11
2868.78
2865.83
2864.2
2863.81
2864.59
2866.5
2869.53
2873.67
2878.95
2885.39
2893.08
2902.07
2912.46
2924.35
2937.83
2953
2969.94
2988.73
3009.4
3031.98
3056.46
3082.79
3110.89
3140.61
3171.78
3204.19
3237.59
3271.59
3305.85
3340.01
3373.63
3406.27
3437.49
3466.83
3493.84
3518.14
3539.34
3557.13
3571.26
3581.54
3587.84
3590.12
3588.39
3582.75
3573.34
3560.32
3543.92
3524.38
3501.98
3477.01
3449.8
3420.66
3389.94
3357.96
3325.06
3291.58
3257.86
3224.21
3190.94
3158.33
3126.66
3096.16
3067.06
3039.55
3013.78
2989.89
2967.97
2948.09
2930.28
2914.55
2900.9
2889.27
2879.64
2871.92
2866.05
2861.95
2859.56
2858.76
2859.48
2861.66
2865.23
2870.15
2876.38
2883.88
2892.67
2902.73
2914.08
2926.75
2940.75
2956.13
2972.94
2991.21
3010.97
3032.26
3055.09
3079.45
3105.32
3132.63
3161.27
3191.14
3222.12
3253.81
3286.04
3318.51
3350.86
3382.72
3413.68
3443.34
3471.25
3497.01
3520.2
3540.46
3557.44
3570.85
3580.44
3586.05
3587.55
3584.89
3578.12
3567.32
3552.62
3534.26
3512.5
3487.67
3460.14
3430.33
3398.67
3365.62
3331.65
3297.21
3262.76
3228.72
3195.45
3163.29
3132.5
3103.31
3075.89
3050.36
3026.8
3005.24
2985.7
2968.15
2952.54
2938.83
2926.93
2916.78
2908.3
2901.41
2896.02
2892.08
2889.53
2888.31
2888.37
2889.66
2892.19
2895.94
2900.89
2907.05
2914.44
2923.08
2932.97
2944.12
2956.57
2970.33
2985.42
3001.82
3019.55
3038.59
3058.92
3080.51
3103.31
3127.25
3152.24
3178.17
3204.28
3231.35
3258.95
3286.79
3314.64
3342.22
3369.24
3395.41
3420.42
3444
3465.84
3485.66
3503.21
3518.25
3530.58
3540.02
3546.43
3549.75
3549.91
3546.89
3540.77
3531.64
3519.64
3504.97
3487.84
3468.53
3447.31
3424.48
3400.38
3375.32
3349.62
3323.62
3297.62
3271.91
3246.73
3222.4
3201.74
3179.73
3158.82
3139.26
3121.18
3104.65
3089.72
3076.41
3064.73
3054.66
3046.19
3039.29
3033.9
3029.99
3027.49
3026.36
3026.72
3028.45
3031.5
3006.74
3035.44
3065.74
3096.82
3123.25
3157.28
3192.21
3227.22
3261.91
3295.92
3328.82
3360.17
3389.54
3416.49
3440.58
3461.45
3478.74
3492.21
3501.64
3506.89
3507.87
3504.45
3496.8
3485.02
3469.31
3449.91
3427.11
3401.25
3372.76
3342.03
3309.49
3275.63
3240.87
3205.65
3170.39
3135.61
3103.8
3071.23
3039.42
3008.84
2979.75
2952.3
2926.6
2902.71
2880.66
2860.45
2842.07
2825.49
2810.66
2797.56
2786.12
2776.31
2768.07
2761.38
2756.18
2752.47
2750.22
2749.45
2750.29
2752.67
2756.58
2762.06
2769.15
2777.88
2788.27
2800.38
2814.21
2829.81
2847.17
2866.27
2887.11
2909.64
2933.8
2959.53
2986.74
3015.3
3045.09
3075.95
3107.66
3140.05
3172.92
3205.98
3238.95
3271.5
3303.3
3333.99
3363.18
3390.49
3415.53
3437.93
3457.33
3473.41
3485.92
3494.63
3499.36
3500.02
3496.56
3489.01
3477.45
3461.99
3442.84
3420.25
3394.53
3366.02
3335.13
3302.29
3267.95
3232.59
3196.7
3160.72
3125.11
3090.26
3056.51
3024.17
2993.49
2964.63
2937.73
2912.89
2890.14
2869.5
2850.96
2834.46
2819.95
2807.37
2796.63
2787.64
2780.31
2774.53
2770.24
2767.32
2765.71
2765.33
2766.13
2768.04
2771.07
2775.21
2780.47
2786.89
2794.55
2803.51
2813.87
2825.73
2839.17
2854.31
2871.22
2889.97
2910.63
2933.2
2957.68
2984.02
3012.14
3041.9
3073.13
3105.6
3139.1
3173.2
3207.58
3241.87
3275.63
3308.43
3339.8
3369.29
3396.46
3420.89
3442.22
3460.11
3474.32
3484.65
3490.98
3493.25
3491.5
3485.82
3476.33
3463.23
3446.73
3427.08
3404.57
3379.48
3352.15
3322.9
3292.05
3259.95
3226.94
3193.36
3159.54
3125.8
3092.44
3059.76
3028.03
2997.48
2968.34
2940.79
2915
2891.09
2869.17
2849.28
2831.48
2815.77
2802.13
2790.53
2780.92
2773.23
2767.39
2763.32
2760.95
2760.18
2760.92
2763.12
2766.7
2771.63
2777.86
2785.37
2794.15
2804.2
2815.54
2828.19
2842.18
2857.55
2874.33
2892.58
2912.33
2933.6
2956.42
2980.78
3006.66
3033.98
3062.66
3092.57
3123.6
3155.37
3187.69
3220.26
3252.72
3284.71
3315.82
3345.62
3373.68
3399.58
3422.92
3443.3
3460.39
3473.89
3483.56
3489.21
3490.73
3488.06
3481.25
3470.38
3455.6
3437.12
3415.24
3390.27
3362.59
3332.62
3300.8
3267.6
3233.48
3198.91
3164.34
3130.19
3096.83
3064.6
3033.76
3004.53
2977.09
2951.56
2928
2906.45
2886.92
2869.39
2853.82
2840.13
2828.26
2818.14
2809.69
2802.82
2797.46
2793.54
2791.01
2789.81
2789.87
2791.18
2793.71
2797.46
2802.41
2808.56
2815.94
2824.57
2834.45
2845.6
2858.03
2871.79
2886.86
2903.26
2920.98
2940.02
2960.36
2981.95
3004.76
3028.72
3053.73
3079.68
3105.88
3133
3160.66
3188.56
3216.5
3244.16
3271.28
3297.55
3322.67
3346.34
3368.28
3388.2
3405.84
3420.96
3433.35
3442.84
3449.29
3452.62
3452.78
3449.74
3443.59
3434.4
3422.33
3407.57
3390.35
3370.94
3349.61
3326.67
3302.46
3277.3
3251.51
3225.41
3199.33
3173.53
3148.26
3123.78
3103.32
3081.18
3060.22
3040.63
3022.54
3006.01
2991.08
2977.77
2966.1
2956.05
2947.59
2940.7
2935.34
2931.44
2928.97
2927.85
2928.22
2929.98
2933.04
2907.85
2936.62
2967.04
2998.32
3024.49
3058.76
3093.85
3129
3163.82
3197.98
3231.05
3262.57
3292.12
3319.24
3343.49
3364.5
3381.91
3395.47
3404.97
3410.26
3411.25
3407.8
3400.09
3388.23
3372.41
3352.88
3329.93
3303.91
3275.25
3244.34
3211.64
3177.6
3142.68
3107.31
3071.88
3036.94
3005.29
2972.58
2940.67
2910.03
2880.91
2853.44
2827.74
2803.86
2781.83
2761.63
2743.27
2726.71
2711.91
2698.83
2687.42
2677.63
2669.41
2662.73
2657.55
2653.84
2651.6
2650.83
2651.66
2654.03
2657.93
2663.39
2670.47
2679.18
2689.55
2701.64
2715.46
2731.04
2748.39
2767.49
2788.33
2810.87
2835.04
2860.79
2888.02
2916.61
2946.44
2977.35
3009.13
3041.59
3074.55
3107.71
3140.79
3173.47
3205.4
3236.24
3265.58
3293.04
3318.24
3340.78
3360.31
3376.51
3389.11
3397.89
3402.67
3403.34
3399.87
3392.28
3380.65
3365.1
3345.83
3323.11
3297.23
3268.56
3237.49
3204.47
3169.95
3134.43
3098.37
3062.25
3026.51
2991.55
2957.72
2925.32
2894.59
2865.7
2838.8
2813.95
2791.22
2770.6
2752.08
2735.61
2721.14
2708.6
2697.89
2688.94
2681.64
2675.91
2671.64
2668.75
2667.17
2666.81
2667.62
2669.54
2672.57
2676.7
2681.94
2688.34
2695.97
2704.9
2715.22
2727.03
2740.44
2755.54
2772.41
2791.14
2811.77
2834.33
2858.81
2885.17
2913.32
2943.12
2974.41
3006.96
3040.56
3074.77
3109.28
3143.72
3177.64
3210.61
3242.15
3271.82
3299.16
3323.75
3345.21
3363.23
3377.53
3387.91
3394.27
3396.55
3394.76
3389.02
3379.46
3366.27
3349.65
3329.88
3307.24
3282.03
3254.56
3225.17
3194.19
3161.96
3128.83
3095.13
3061.19
3027.35
2993.9
2961.14
2929.33
2898.72
2869.53
2841.94
2816.13
2792.2
2770.27
2750.39
2732.6
2716.9
2703.28
2691.71
2682.13
2674.47
2668.66
2664.62
2662.28
2661.53
2662.3
2664.52
2668.12
2673.06
2679.29
2686.8
2695.58
2705.62
2716.95
2729.58
2743.55
2758.9
2775.66
2793.88
2813.61
2834.87
2857.68
2882.04
2907.92
2935.27
2963.98
2993.94
3025.02
3056.88
3089.3
3121.98
3154.59
3186.72
3217.98
3247.95
3276.17
3302.24
3325.73
3346.26
3363.48
3377.09
3386.84
3392.54
3394.07
3391.39
3384.54
3373.6
3358.72
3340.12
3318.08
3292.95
3265.11
3234.96
3202.97
3169.59
3135.3
3100.58
3065.87
3031.6
2998.15
2965.83
2934.93
2905.67
2878.2
2852.66
2829.1
2807.57
2788.06
2770.56
2755.01
2741.36
2729.52
2719.44
2711.02
2704.18
2698.85
2694.95
2692.44
2691.25
2691.33
2692.64
2695.17
2698.92
2703.87
2710.02
2717.39
2726.01
2735.88
2747.01
2759.44
2773.18
2788.25
2804.64
2822.36
2841.4
2861.73
2883.33
2906.16
2930.13
2955.17
2981.15
3007.45
3034.62
3062.34
3090.32
3118.34
3146.11
3173.34
3199.72
3224.95
3248.74
3270.79
3290.82
3308.56
3323.76
3336.23
3345.78
3352.27
3355.62
3355.78
3352.72
3346.52
3337.26
3325.12
3310.27
3292.94
3273.41
3251.97
3228.91
3204.57
3179.29
3153.39
3127.19
3101
3075.11
3049.76
3025.11
3004.85
2982.57
2961.55
2941.94
2923.83
2907.3
2892.37
2879.07
2867.41
2857.37
2848.93
2842.06
2836.72
2832.84
2830.39
2829.29
2829.68
2831.46
2834.53
2808.87
2837.71
2868.24
2899.76
2925.68
2960.19
2995.45
3030.76
3065.73
3100.06
3133.31
3165.02
3194.77
3222.08
3246.5
3267.67
3285.22
3298.89
3308.47
3313.79
3314.79
3311.32
3303.54
3291.6
3275.65
3255.98
3232.86
3206.66
3177.8
3146.71
3113.81
3079.59
3044.49
3008.94
2973.33
2938.19
2906.73
2873.86
2841.85
2811.14
2781.98
2754.5
2728.8
2704.93
2682.91
2662.74
2644.4
2627.86
2613.09
2600.04
2588.65
2578.88
2570.69
2564.02
2558.86
2555.16
2552.92
2552.14
2552.97
2555.34
2559.22
2564.67
2571.72
2580.41
2590.75
2602.82
2616.63
2632.2
2649.54
2668.63
2689.47
2712.02
2736.21
2761.97
2789.23
2817.86
2847.73
2878.7
2910.55
2943.1
2976.15
3009.42
3042.62
3075.44
3107.52
3138.52
3168.03
3195.67
3221.03
3243.73
3263.41
3279.75
3292.46
3301.31
3306.14
3306.83
3303.34
3295.71
3283.99
3268.34
3248.95
3226.07
3200.02
3171.16
3139.9
3106.68
3071.97
3036.25
3000.02
2963.73
2927.86
2892.78
2858.85
2826.38
2795.59
2766.68
2739.76
2714.92
2692.2
2671.6
2653.11
2636.68
2622.25
2609.75
2599.08