/*--------------------------------*- C++ -*----------------------------------*\
| =========                 |                                                 |
| \\      /  F ield         | OpenFOAM: The Open Source CFD Toolbox           |
|  \\    /   O peration     | Version:  3.0.1                                 |
|   \\  /    A nd           | Web:      www.OpenFOAM.org                      |
|    \\/     M anipulation  |                                                 |
\*---------------------------------------------------------------------------*/
FoamFile
{
    version     2.0;
    format      ascii;
    class       volScalarField;
    location    "78.2";
    object      p;
}
// * * * * * * * * * * * * * * * * * * * * * * * * * * * * * * * * * * * * * //

dimensions      [1 -1 -2 0 0 0 0];

internalField   nonuniform List<scalar> 
21420
(
3840.16
3811.95
3783.79
3756.57
3730.7
3706.37
3683.7
3662.76
3643.58
3626.16
3610.48
3596.52
3584.23
3573.56
3564.48
3556.94
3550.89
3546.32
3543.17
3541.48
3541.22
3542.41
3544.99
3549.02
3554.52
3561.52
3570.07
3580.22
3592.01
3605.5
3620.73
3637.75
3656.59
3677.27
3699.77
3724.11
3750.22
3778.01
3807.38
3838.19
3870.2
3903.1
3936.64
3970.59
4004.68
4038.48
4071.56
4103.56
4134.03
4162.55
4188.76
4212.28
4232.8
4250
4263.66
4273.59
4279.65
4281.71
4280.09
4274.52
4265.1
4251.89
4235.09
4214.95
4191.75
4165.8
4137.48
4107.17
4075.27
4042.2
4008.38
3974.2
3940.03
3906.25
3873.14
3841.03
3810.12
3780.61
3752.65
3726.35
3701.78
3679.01
3658.06
3638.94
3621.65
3606.19
3592.54
3580.68
3570.6
3562.27
3555.64
3550.68
3547.34
3545.61
3545.38
3546.6
3549.24
3553.26
3558.65
3565.38
3573.47
3582.94
3593.81
3606.13
3619.93
3635.25
3652.12
3670.56
3690.59
3712.19
3735.33
3759.97
3786.04
3813.44
3842.04
3871.71
3902.36
3933.58
3965.24
3997.07
4028.8
4060.1
4090.63
4120.05
4147.97
4174.02
4197.82
4219
4237.23
4252.18
4263.58
4271.23
4274.95
4274.63
4270.28
4261.98
4249.74
4233.77
4214.29
4191.59
4165.99
4137.85
4107.58
4075.6
4042.35
4008.29
3973.86
3939.49
3905.59
3872.54
3840.65
3810.2
3781.4
3754.42
3729.37
3706.3
3685.24
3666.16
3649.03
3633.78
3620.33
3608.59
3598.49
3589.95
3582.87
3577.19
3572.85
3569.78
3567.93
3567.27
3567.82
3569.48
3572.25
3576.15
3581.18
3587.35
3594.7
3603.24
3613.02
3624.08
3636.47
3650.22
3665.38
3682.01
3700.14
3719.79
3741
3763.76
3788.04
3813.8
3840.93
3869.33
3898.85
3929.31
3960.39
3991.86
4023.4
4054.65
4085.25
4114.79
4142.87
4169.07
4192.99
4214.22
4232.42
4247.26
4258.47
4265.83
4269.16
4268.44
4263.64
4254.87
4242.2
4225.87
4206.13
4183.3
4157.74
4129.84
4100.03
4068.77
4036.51
4003.72
3970.84
3938.25
3906.33
3875.33
3845.54
3817.13
3790.27
3765.07
3741.59
3719.88
3699.95
3681.76
3665.29
3650.48
3637.25
3625.54
3615.27
3606.37
3598.79
3592.46
3587.33
3583.38
3580.57
3578.85
3578.22
3578.69
3580.19
3582.78
3586.45
3591.23
3597.16
3604.28
3612.63
3622.25
3633.19
3645.46
3659.11
3674.14
3690.59
3708.45
3727.73
3748.42
3770.51
3793.97
3818.74
3844.75
3871.9
3900.04
3929.15
3959.82
3990.58
4021.11
4051.27
4080.71
4109.13
4136.15
4161.4
4184.47
4204.92
4222.38
4236.46
4246.79
4253.09
4255.18
4252.82
4247.33
4237.89
4224.59
4207.53
4186.92
4163.07
4136.39
4107.39
4076.61
4044.52
4011.64
3978.47
3945.43
3913.01
3880.26
3847.56
3816.56
3787.68
3760.82
3735.93
3712.96
3691.9
3672.68
3655.27
3639.6
3625.62
3613.25
3602.44
3593.12
3585.23
3578.72
3573.57
3569.71
3567.11
3565.76
3565.71
3566.83
3569.12
3572.65
3577.44
3583.51
3590.92
3599.71
3609.92
3621.59
3634.75
3649.45
3665.71
3683.57
3703.03
3724.1
3746.78
3771
3796.7
3823.79
3852.1
3881.45
3911.73
3942.64
3973.92
4005.24
4036.28
4066.71
4096.18
4124.32
4150.75
4175.11
4197.12
4216.41
4232.6
3742
3713.78
3685.61
3658.39
3632.52
3608.19
3585.52
3564.58
3545.4
3527.99
3512.31
3498.35
3486.06
3475.4
3466.32
3458.78
3452.74
3448.16
3445.02
3443.32
3443.07
3444.25
3446.83
3450.86
3456.36
3463.36
3471.91
3482.05
3493.84
3507.33
3522.56
3539.58
3558.41
3579.08
3601.59
3625.93
3652.03
3679.83
3709.21
3740.02
3772.04
3804.95
3838.49
3872.46
3906.56
3940.38
3973.48
4005.49
4035.98
4064.52
4090.75
4114.29
4134.82
4152.04
4165.7
4175.64
4181.7
4183.77
4182.14
4176.57
4167.14
4153.92
4137.11
4116.96
4093.74
4067.78
4039.43
4009.1
3977.19
3944.1
3910.26
3876.07
3841.89
3808.09
3774.98
3742.86
3711.95
3682.43
3654.46
3628.16
3603.6
3580.83
3559.88
3540.76
3523.47
3508.01
3494.36
3482.51
3472.43
3464.1
3457.48
3452.51
3449.18
3447.45
3447.22
3448.44
3451.08
3455.11
3460.49
3467.22
3475.31
3484.78
3495.65
3507.97
3521.76
3537.08
3553.95
3572.39
3592.41
3614.01
3637.15
3661.8
3687.87
3715.27
3743.88
3773.55
3804.21
3835.44
3867.1
3898.95
3930.69
3962
3992.55
4021.98
4049.92
4075.99
4099.81
4121.01
4139.24
4154.21
4165.62
4173.28
4177.01
4176.68
4172.33
4164.02
4151.77
4135.79
4116.3
4093.58
4067.96
4039.81
4009.52
3977.52
3944.25
3910.17
3875.72
3841.34
3807.43
3774.36
3742.46
3712.01
3683.21
3656.23
3631.18
3608.11
3587.05
3567.98
3550.85
3535.6
3522.15
3510.42
3500.33
3491.78
3484.71
3479.03
3474.69
3471.63
3469.78
3469.12
3469.67
3471.33
3474.1
3478
3483.03
3489.2
3496.54
3505.09
3514.87
3525.92
3538.3
3552.05
3567.22
3583.84
3601.96
3621.62
3642.83
3665.59
3689.87
3715.62
3742.76
3771.17
3800.69
3831.16
3862.25
3893.73
3925.28
3956.55
3987.16
4016.73
4044.82
4071.04
4094.97
4116.23
4134.44
4149.3
4160.51
4167.88
4171.23
4170.49
4165.69
4156.91
4144.23
4127.89
4108.14
4085.29
4059.71
4031.79
4001.96
3970.68
3938.4
3905.6
3872.7
3840.1
3808.16
3777.16
3747.36
3718.95
3692.09
3666.89
3643.41
3621.7
3601.77
3583.59
3567.12
3552.31
3539.08
3527.37
3517.11
3508.21
3500.63
3494.3
3489.18
3485.24
3482.42
3480.7
3480.08
3480.54
3482.05
3484.63
3488.3
3493.08
3499.01
3506.12
3514.47
3524.1
3535.03
3547.3
3560.95
3575.98
3592.42
3610.28
3629.56
3650.25
3672.34
3695.8
3720.58
3746.59
3773.74
3801.89
3831.01
3861.7
3892.46
3923.01
3953.18
3982.63
4011.07
4038.1
4063.37
4086.46
4106.93
4124.4
4138.5
4148.84
4155.15
4157.26
4154.91
4149.4
4139.96
4126.64
4109.56
4088.93
4065.06
4038.36
4009.34
3978.53
3946.42
3913.53
3880.34
3847.3
3814.86
3782.08
3749.37
3718.38
3689.5
3662.64
3637.75
3614.79
3593.72
3574.51
3557.09
3541.43
3527.45
3515.09
3504.28
3494.96
3487.07
3480.57
3475.41
3471.56
3468.96
3467.61
3467.57
3468.68
3470.97
3474.5
3479.29
3485.36
3492.77
3501.56
3511.76
3523.42
3536.59
3551.28
3567.55
3585.4
3604.86
3625.93
3648.6
3672.82
3698.53
3725.62
3753.93
3783.3
3813.58
3844.5
3875.8
3907.13
3938.18
3968.63
3998.11
4026.26
4052.71
4077.09
4099.11
4118.41
4134.62
3643.78
3615.53
3587.36
3560.13
3534.26
3509.92
3487.26
3466.32
3447.15
3429.74
3414.07
3400.11
3387.83
3377.17
3368.09
3360.56
3354.52
3349.95
3346.81
3345.11
3344.86
3346.03
3348.62
3352.64
3358.14
3365.13
3373.68
3383.82
3395.6
3409.08
3424.31
3441.32
3460.15
3480.82
3503.32
3527.66
3553.77
3581.57
3610.96
3641.78
3673.81
3706.74
3740.3
3774.3
3808.43
3842.28
3875.41
3907.46
3937.99
3966.56
3992.82
4016.4
4036.95
4054.2
4067.89
4077.84
4083.91
4085.99
4084.35
4078.77
4069.33
4056.09
4039.25
4019.07
3995.83
3969.82
3941.45
3911.08
3879.12
3846.01
3812.13
3777.91
3743.71
3709.88
3676.75
3644.62
3613.69
3584.17
3556.2
3529.9
3505.33
3482.57
3461.62
3442.5
3425.21
3409.76
3396.11
3384.26
3374.19
3365.86
3359.24
3354.28
3350.96
3349.23
3349
3350.23
3352.87
3356.9
3362.28
3369.01
3377.1
3386.56
3397.43
3409.74
3423.53
3438.84
3455.71
3474.14
3494.17
3515.76
3538.91
3563.55
3589.63
3617.04
3645.65
3675.33
3706.01
3737.25
3768.94
3800.8
3832.57
3863.91
3894.49
3923.95
3951.93
3978.03
4001.88
4023.11
4041.38
4056.37
4067.81
4075.48
4079.23
4078.89
4074.54
4066.22
4053.95
4037.94
4018.43
3995.67
3970.02
3941.83
3911.49
3879.46
3846.15
3812.04
3777.55
3743.14
3709.2
3676.12
3644.2
3613.73
3584.93
3557.94
3532.89
3509.83
3488.77
3469.7
3452.58
3437.34
3423.9
3412.18
3402.1
3393.56
3386.49
3380.82
3376.49
3373.42
3371.58
3370.93
3371.47
3373.13
3375.91
3379.81
3384.83
3391
3398.34
3406.88
3416.66
3427.71
3440.09
3453.83
3468.99
3485.6
3503.72
3523.38
3544.58
3567.34
3591.62
3617.38
3644.52
3672.94
3702.48
3732.96
3764.07
3795.58
3827.15
3858.45
3889.1
3918.7
3946.83
3973.09
3997.05
4018.34
4036.59
4051.47
4062.71
4070.09
4073.45
4072.7
4067.9
4059.1
4046.4
4030.03
4010.25
3987.37
3961.75
3933.79
3903.92
3872.6
3840.29
3807.45
3774.52
3741.9
3709.94
3678.92
3649.11
3620.69
3593.83
3568.62
3545.15
3523.44
3503.51
3485.33
3468.87
3454.07
3440.85
3429.15
3418.89
3410
3402.43
3396.1
3390.99
3387.04
3384.23
3382.51
3381.89
3382.35
3383.86
3386.44
3390.11
3394.89
3400.81
3407.92
3416.27
3425.89
3436.81
3449.09
3462.73
3477.76
3494.2
3512.06
3531.33
3552.02
3574.11
3597.57
3622.35
3648.37
3675.53
3703.69
3732.82
3763.54
3794.33
3824.9
3855.1
3884.57
3913.04
3940.11
3965.41
3988.53
4009.04
4026.55
4040.67
4051.04
4057.38
4059.5
4057.19
4051.64
4042.18
4028.84
4011.73
3991.05
3967.14
3940.4
3911.33
3880.48
3848.33
3815.41
3782.19
3749.12
3716.66
3683.83
3651.1
3620.11
3591.23
3564.37
3539.49
3516.53
3495.47
3476.26
3458.85
3443.19
3429.22
3416.86
3406.06
3396.74
3388.86
3382.36
3377.21
3373.36
3370.76
3369.42
3369.37
3370.48
3372.77
3376.3
3381.08
3387.15
3394.56
3403.34
3413.54
3425.2
3438.36
3453.05
3469.31
3487.16
3506.62
3527.68
3550.36
3574.58
3600.29
3627.39
3655.71
3685.08
3715.38
3746.33
3777.64
3809
3840.08
3870.56
3900.06
3928.26
3954.73
3979.15
4001.2
4020.52
4036.76
3545.49
3517.22
3489.04
3461.8
3435.92
3411.58
3388.92
3367.98
3348.81
3331.41
3315.75
3301.8
3289.52
3278.88
3269.81
3262.28
3256.24
3251.68
3248.54
3246.84
3246.59
3247.76
3250.34
3254.37
3259.86
3266.85
3275.38
3285.52
3297.29
3310.76
3325.98
3342.99
3361.81
3382.48
3404.98
3429.31
3455.42
3483.23
3512.63
3543.47
3575.52
3608.48
3642.07
3676.1
3710.28
3744.17
3777.36
3809.46
3840.04
3868.67
3894.99
3918.61
3939.21
3956.5
3970.22
3980.19
3986.27
3988.37
3986.71
3981.12
3971.66
3958.39
3941.52
3921.29
3898
3871.95
3843.51
3813.09
3781.08
3747.91
3713.99
3679.72
3645.48
3611.62
3578.46
3546.31
3515.37
3485.83
3457.85
3431.55
3406.99
3384.22
3363.27
3344.16
3326.88
3311.43
3297.79
3285.94
3275.87
3267.55
3260.94
3255.99
3252.67
3250.95
3250.72
3251.96
3254.6
3258.63
3264.01
3270.74
3278.83
3288.29
3299.15
3311.45
3325.23
3340.54
3357.4
3375.83
3395.85
3417.44
3440.59
3465.24
3491.32
3518.74
3547.36
3577.06
3607.77
3639.03
3670.74
3702.64
3734.44
3765.82
3796.45
3825.96
3853.99
3880.14
3904.05
3925.33
3943.64
3958.67
3970.14
3977.84
3981.6
3981.26
3976.9
3968.56
3956.27
3940.22
3920.66
3897.86
3872.15
3843.9
3813.52
3781.42
3748.06
3713.89
3679.35
3644.9
3610.92
3577.8
3545.86
3515.37
3486.55
3459.56
3434.51
3411.45
3390.4
3371.35
3354.24
3339.01
3325.59
3313.88
3303.8
3295.28
3288.22
3282.56
3278.23
3275.17
3273.33
3272.69
3273.23
3274.9
3277.67
3281.57
3286.59
3292.76
3300.09
3308.63
3318.4
3329.44
3341.81
3355.54
3370.69
3387.3
3405.42
3425.06
3446.26
3469.02
3493.3
3519.06
3546.22
3574.65
3604.2
3634.71
3665.86
3697.39
3729.01
3760.36
3791.05
3820.7
3848.89
3875.2
3899.23
3920.57
3938.86
3953.78
3965.05
3972.46
3975.84
3975.08
3970.26
3961.44
3948.71
3932.3
3912.47
3889.54
3863.86
3835.85
3805.92
3774.54
3742.17
3709.28
3676.31
3643.65
3611.66
3580.62
3550.79
3522.36
3495.49
3470.28
3446.8
3425.1
3405.18
3387.01
3370.56
3355.76
3342.56
3330.87
3320.62
3311.74
3304.17
3297.85
3292.74
3288.8
3285.99
3284.28
3283.67
3284.12
3285.63
3288.21
3291.87
3296.64
3302.56
3309.67
3318.01
3327.62
3338.55
3350.81
3364.45
3379.48
3395.91
3413.76
3433.04
3453.72
3475.82
3499.28
3524.07
3550.09
3577.26
3605.44
3634.59
3665.37
3696.18
3726.79
3757.02
3786.54
3815.05
3842.17
3867.52
3890.7
3911.25
3928.81
3942.99
3953.4
3959.77
3961.93
3959.65
3954.06
3944.57
3931.19
3914.03
3893.29
3869.31
3842.5
3813.36
3782.45
3750.24
3717.26
3684.01
3650.91
3618.42
3585.49
3552.75
3521.75
3492.88
3466.02
3441.14
3418.19
3397.13
3377.93
3360.53
3344.88
3330.92
3318.57
3307.77
3298.47
3290.59
3284.1
3278.95
3275.1
3272.5
3271.18
3271.13
3272.23
3274.52
3278.04
3282.82
3288.89
3296.29
3305.07
3315.26
3326.91
3340.06
3354.75
3371
3388.85
3408.3
3429.36
3452.04
3476.26
3501.98
3529.09
3557.43
3586.81
3617.14
3648.12
3679.46
3710.86
3741.98
3772.5
3802.05
3830.29
3856.82
3881.28
3903.37
3922.74
3939.01
3447.13
3418.84
3390.63
3363.38
3337.5
3313.16
3290.5
3269.57
3250.41
3233.01
3217.36
3203.42
3191.16
3180.52
3171.46
3163.94
3157.91
3153.35
3150.22
3148.52
3148.26
3149.43
3152.02
3156.03
3161.52
3168.5
3177.03
3187.15
3198.91
3212.37
3227.58
3244.58
3263.39
3284.05
3306.55
3330.88
3357
3384.81
3414.22
3445.09
3477.17
3510.16
3543.8
3577.88
3612.11
3646.07
3679.33
3711.5
3742.16
3770.86
3797.24
3820.93
3841.59
3858.93
3872.69
3882.69
3888.79
3890.9
3889.23
3883.63
3874.13
3860.83
3843.91
3823.62
3800.27
3774.14
3745.63
3715.14
3683.06
3649.82
3615.83
3581.5
3547.2
3513.3
3480.11
3447.92
3416.96
3387.41
3359.43
3333.11
3308.55
3285.79
3264.85
3245.74
3228.47
3213.03
3199.39
3187.55
3177.49
3169.18
3162.57
3157.63
3154.33
3152.61
3152.39
3153.63
3156.28
3160.31
3165.69
3172.42
3180.5
3189.95
3200.8
3213.1
3226.87
3242.17
3259.02
3277.45
3297.46
3319.05
3342.2
3366.86
3392.95
3420.37
3449.02
3478.73
3509.47
3540.76
3572.51
3604.46
3636.31
3667.75
3698.44
3728.01
3756.1
3782.33
3806.3
3827.65
3846.02
3861.11
3872.62
3880.35
3884.12
3883.8
3879.42
3871.05
3858.72
3842.63
3823.02
3800.15
3774.37
3746.04
3715.58
3683.4
3649.97
3615.72
3581.12
3546.61
3512.58
3479.41
3447.44
3416.93
3388.09
3361.1
3336.04
3312.99
3291.95
3272.91
3255.81
3240.6
3227.2
3215.51
3205.45
3196.94
3189.89
3184.24
3179.92
3176.87
3175.04
3174.4
3174.95
3176.61
3179.39
3183.28
3188.3
3194.46
3201.79
3210.32
3220.08
3231.12
3243.48
3257.2
3272.34
3288.94
3307.04
3326.68
3347.88
3370.63
3394.91
3420.68
3447.85
3476.3
3505.87
3536.42
3567.6
3599.19
3630.86
3662.26
3693.03
3722.75
3751.01
3777.4
3801.49
3822.9
3841.26
3856.23
3867.54
3874.98
3878.37
3877.62
3872.79
3863.93
3851.16
3834.7
3814.8
3791.8
3766.05
3737.95
3707.94
3676.49
3644.05
3611.09
3578.06
3545.35
3513.32
3482.25
3452.39
3423.95
3397.07
3371.85
3348.38
3326.68
3306.77
3288.61
3272.17
3257.39
3244.2
3232.53
3222.29
3213.42
3205.86
3199.56
3194.45
3190.52
3187.72
3186.01
3185.4
3185.85
3187.36
3189.93
3193.59
3198.36
3204.27
3211.37
3219.7
3229.3
3240.22
3252.48
3266.11
3281.13
3297.56
3315.41
3334.68
3355.36
3377.46
3400.92
3425.72
3451.75
3478.94
3507.13
3536.32
3567.16
3598.02
3628.67
3658.95
3688.53
3717.1
3744.29
3769.71
3792.95
3813.57
3831.2
3845.44
3855.9
3862.32
3864.52
3862.29
3856.66
3847.13
3833.69
3816.46
3795.65
3771.58
3744.67
3715.44
3684.44
3652.15
3619.11
3585.8
3552.67
3520.13
3487.07
3454.31
3423.31
3394.44
3367.59
3342.71
3319.77
3298.72
3279.53
3262.14
3246.51
3232.55
3220.21
3209.43
3200.13
3192.27
3185.79
3180.64
3176.79
3174.2
3172.88
3172.83
3173.94
3176.22
3179.74
3184.51
3190.57
3197.97
3206.74
3216.92
3228.56
3241.7
3256.38
3272.63
3290.46
3309.91
3330.97
3353.64
3377.87
3403.59
3430.73
3459.09
3488.48
3518.85
3549.86
3581.26
3612.7
3643.87
3674.46
3704.07
3732.38
3758.97
3783.49
3805.64
3825.06
3841.38
3348.72
3320.39
3292.15
3264.88
3238.99
3214.65
3191.99
3171.07
3151.92
3134.54
3118.9
3104.97
3092.72
3082.09
3073.05
3065.54
3059.52
3054.96
3051.84
3050.15
3049.88
3051.05
3053.63
3057.64
3063.12
3070.09
3078.61
3088.72
3100.47
3113.91
3129.1
3146.09
3164.89
3185.54
3208.03
3232.36
3258.48
3286.31
3315.74
3346.63
3378.76
3411.78
3445.47
3479.62
3513.93
3547.97
3581.31
3613.57
3644.32
3673.11
3699.58
3723.36
3744.09
3761.49
3775.3
3785.34
3791.46
3793.58
3791.92
3786.29
3776.75
3763.4
3746.42
3726.06
3702.62
3676.41
3647.81
3617.22
3585.05
3551.72
3517.65
3483.25
3448.89
3414.93
3381.69
3349.47
3318.48
3288.91
3260.91
3234.6
3210.04
3187.28
3166.34
3147.24
3129.98
3114.55
3100.92
3089.09
3079.04
3070.73
3064.14
3059.21
3055.92
3054.21
3054
3055.25
3057.91
3061.94
3067.32
3074.05
3082.12
3091.56
3102.4
3114.69
3128.45
3143.73
3160.57
3178.99
3199
3220.59
3243.74
3268.4
3294.5
3321.95
3350.61
3380.34
3411.14
3442.46
3474.25
3506.25
3538.17
3569.68
3600.44
3630.1
3658.27
3684.59
3708.64
3730.08
3748.53
3763.68
3775.24
3783.01
3786.8
3786.5
3782.11
3773.7
3761.32
3745.17
3725.48
3702.53
3676.66
3648.24
3617.68
3585.41
3551.88
3517.54
3482.86
3448.27
3414.17
3380.96
3348.94
3318.4
3289.54
3262.54
3237.48
3214.44
3193.41
3174.39
3157.31
3142.12
3128.74
3117.07
3107.03
3098.54
3091.51
3085.87
3081.57
3078.53
3076.71
3076.08
3076.62
3078.29
3081.07
3084.96
3089.97
3096.12
3103.45
3111.96
3121.71
3132.74
3145.08
3158.8
3173.92
3190.51
3208.6
3228.23
3249.42
3272.16
3296.45
3322.23
3349.41
3377.88
3407.49
3438.07
3469.31
3500.95
3532.69
3564.17
3595.02
3624.83
3653.18
3679.66
3703.85
3725.34
3743.78
3758.82
3770.19
3777.65
3781.07
3780.32
3775.47
3766.57
3753.75
3737.21
3717.24
3694.15
3668.31
3640.11
3610.01
3578.45
3545.92
3512.87
3479.77
3447
3414.92
3383.81
3353.92
3325.46
3298.57
3273.35
3249.88
3228.19
3208.28
3190.14
3173.72
3158.96
3145.78
3134.12
3123.9
3115.05
3107.51
3101.21
3096.12
3092.19
3089.39
3087.69
3087.08
3087.54
3089.04
3091.61
3095.27
3100.03
3105.93
3113.02
3121.34
3130.93
3141.84
3154.09
3167.71
3182.73
3199.15
3216.99
3236.26
3256.94
3279.03
3302.5
3327.31
3353.36
3380.56
3408.77
3438
3468.94
3499.84
3530.55
3560.9
3590.54
3619.19
3646.46
3671.96
3695.29
3716
3733.71
3748.03
3758.56
3765.04
3767.29
3765.12
3759.44
3749.85
3736.34
3719.03
3698.11
3673.93
3646.9
3617.56
3586.45
3554.07
3520.94
3487.56
3454.38
3421.79
3388.57
3355.78
3324.79
3295.92
3269.07
3244.2
3221.27
3200.23
3181.05
3163.68
3148.06
3134.12
3121.8
3111.03
3101.74
3093.89
3087.42
3082.28
3078.44
3075.86
3074.54
3074.49
3075.59
3077.87
3081.38
3086.15
3092.2
3099.59
3108.35
3118.52
3130.15
3143.28
3157.95
3174.18
3192.01
3211.45
3232.5
3255.17
3279.41
3305.14
3332.29
3360.69
3390.1
3420.5
3451.57
3483.02
3514.53
3545.77
3576.43
3606.12
3634.5
3661.18
3685.77
3708
3727.49
3743.86
3250.24
3221.86
3193.6
3166.31
3140.4
3116.06
3093.41
3072.49
3053.35
3035.99
3020.36
3006.45
2994.22
2983.61
2974.57
2967.07
2961.07
2956.52
2953.41
2951.72
2951.44
2952.61
2955.19
2959.2
2964.66
2971.62
2980.12
2990.22
3001.95
3015.37
3030.55
3047.52
3066.31
3086.95
3109.43
3133.77
3159.89
3187.73
3217.19
3248.11
3280.28
3313.35
3347.11
3381.33
3415.73
3449.86
3483.3
3515.68
3546.54
3575.44
3602.01
3625.88
3646.71
3664.18
3678.06
3688.14
3694.29
3696.41
3694.75
3689.1
3679.52
3666.11
3649.05
3628.61
3605.07
3578.75
3550.04
3519.34
3487.06
3453.63
3419.46
3384.96
3350.53
3316.5
3283.21
3250.94
3219.92
3190.33
3162.32
3136
3111.44
3088.68
3067.75
3048.66
3031.41
3015.99
3002.38
2990.56
2980.51
2972.22
2965.64
2960.72
2957.45
2955.74
2955.55
2956.81
2959.48
2963.51
2968.89
2975.62
2983.68
2993.11
3003.94
3016.21
3029.96
3045.23
3062.06
3080.47
3100.47
3122.06
3145.21
3169.87
3195.99
3223.45
3252.14
3281.89
3312.75
3344.11
3375.96
3408.03
3440.02
3471.61
3502.46
3532.22
3560.5
3586.92
3611.08
3632.61
3651.15
3666.38
3678.01
3685.82
3689.64
3689.35
3684.95
3676.5
3664.07
3647.84
3628.06
3605.02
3579.04
3550.5
3519.83
3487.44
3453.79
3419.35
3384.57
3349.88
3315.71
3282.43
3250.36
3219.78
3190.9
3163.88
3138.83
3115.79
3094.78
3075.78
3058.73
3043.56
3030.21
3018.56
3008.55
3000.08
2993.07
2987.45
2983.16
2980.13
2978.32
2977.69
2978.25
2979.92
2982.7
2986.58
2991.59
2997.74
3005.05
3013.56
3023.29
3034.31
3046.64
3060.33
3075.44
3092.01
3110.09
3129.7
3150.88
3173.63
3197.92
3223.7
3250.9
3279.4
3309.04
3339.68
3370.98
3402.69
3434.51
3466.08
3497.03
3526.95
3555.41
3582
3606.3
3627.9
3646.43
3661.55
3672.98
3680.49
3683.93
3683.18
3678.31
3669.36
3656.47
3639.86
3619.79
3596.6
3570.64
3542.33
3512.1
3480.42
3447.78
3414.64
3381.44
3348.6
3316.45
3285.3
3255.38
3226.89
3199.98
3174.76
3151.29
3129.61
3109.72
3091.59
3075.19
3060.45
3047.3
3035.66
3025.46
3016.63
3009.1
3002.81
2997.73
2993.82
2991.03
2989.33
2988.73
2989.18
2990.69
2993.25
2996.9
3001.65
3007.54
3014.62
3022.93
3032.51
3043.4
3055.64
3069.25
3084.26
3100.68
3118.51
3137.77
3158.45
3180.54
3204.02
3228.83
3254.9
3282.13
3310.36
3339.64
3370.68
3401.64
3432.42
3462.84
3492.57
3521.31
3548.68
3574.29
3597.71
3618.53
3636.34
3650.75
3661.37
3667.93
3670.24
3668.13
3662.4
3652.74
3639.15
3621.73
3600.69
3576.37
3549.21
3519.73
3488.48
3455.98
3422.75
3389.3
3356.06
3323.41
3289.98
3257.17
3226.18
3197.32
3170.47
3145.61
3122.68
3101.67
3082.5
3065.15
3049.54
3035.62
3023.32
3012.56
3003.3
2995.46
2989
2983.87
2980.03
2977.46
2976.15
2976.1
2977.2
2979.47
2982.98
2987.74
2993.78
3001.15
3009.9
3020.06
3031.68
3044.79
3059.45
3075.67
3093.48
3112.91
3133.96
3156.63
3180.87
3206.62
3233.79
3262.22
3291.65
3322.11
3353.24
3384.76
3416.35
3447.67
3478.41
3508.2
3536.68
3563.45
3588.14
3610.45
3630.02
3646.47
3151.69
3123.26
3094.97
3067.65
3041.74
3017.39
2994.74
2973.84
2954.71
2937.36
2921.76
2907.87
2895.65
2885.06
2876.04
2868.55
2862.56
2858.02
2854.92
2853.23
2852.95
2854.12
2856.69
2860.69
2866.14
2873.09
2881.57
2891.65
2903.36
2916.77
2931.93
2948.87
2967.65
2988.28
3010.75
3035.08
3061.21
3089.07
3118.55
3149.51
3181.74
3214.86
3248.7
3283.01
3317.51
3351.76
3385.32
3417.82
3448.8
3477.83
3504.53
3528.52
3549.45
3567.01
3580.96
3591.09
3597.28
3599.4
3597.75
3592.07
3582.43
3568.96
3551.81
3531.26
3507.61
3481.17
3452.33
3421.5
3389.09
3355.53
3321.25
3286.65
3252.12
3218.02
3184.66
3152.35
3121.29
3091.67
3063.64
3037.32
3012.75
2990
2969.09
2950.01
2932.77
2917.36
2903.76
2891.95
2881.92
2873.64
2867.07
2862.17
2858.91
2857.22
2857.04
2858.32
2860.99
2865.03
2870.41
2877.13
2885.19
2894.61
2905.42
2917.67
2931.41
2946.66
2963.47
2981.87
3001.86
3023.45
3046.6
3071.28
3097.41
3124.89
3153.61
3183.41
3214.29
3245.72
3277.64
3309.79
3341.86
3373.55
3404.51
3434.38
3462.78
3489.32
3513.6
3535.25
3553.9
3569.22
3580.93
3588.8
3592.65
3592.36
3587.95
3579.45
3566.95
3550.64
3530.76
3507.6
3481.49
3452.83
3422.01
3389.49
3355.71
3321.14
3286.24
3251.45
3217.18
3183.82
3151.7
3121.07
3092.17
3065.14
3040.09
3017.06
2996.07
2977.09
2960.07
2944.93
2931.6
2919.99
2910
2901.56
2894.57
2888.97
2884.7
2881.69
2879.9
2879.28
2879.84
2881.51
2884.28
2888.17
2893.17
2899.3
2906.61
2915.1
2924.82
2935.82
2948.13
2961.81
2976.89
2993.45
3011.51
3031.11
3052.28
3075.02
3099.31
3125.11
3152.33
3180.86
3210.54
3241.24
3272.6
3304.4
3336.32
3368
3399.06
3429.1
3457.69
3484.41
3508.84
3530.56
3549.2
3564.42
3575.92
3583.49
3586.95
3586.21
3581.3
3572.3
3559.34
3542.63
3522.45
3499.13
3473.04
3444.59
3414.22
3382.41
3349.64
3316.38
3283.08
3250.15
3217.93
3186.72
3156.76
3128.25
3101.32
3076.09
3052.63
3030.95
3011.08
2992.97
2976.59
2961.88
2948.75
2937.14
2926.96
2918.15
2910.64
2904.37
2899.31
2895.4
2892.62
2890.93
2890.33
2890.78
2892.29
2894.85
2898.49
2903.23
2909.11
2916.17
2924.46
2934.03
2944.91
2957.14
2970.74
2985.73
3002.14
3019.97
3039.22
3059.9
3081.99
3105.47
3130.29
3156.38
3183.64
3211.91
3241.24
3272.39
3303.42
3334.29
3364.8
3394.62
3423.47
3450.95
3476.68
3500.23
3521.17
3539.1
3553.61
3564.33
3570.98
3573.37
3571.33
3565.53
3555.79
3542.1
3524.57
3503.38
3478.91
3451.58
3421.94
3390.54
3357.9
3324.54
3291
3257.7
3224.99
3191.3
3158.47
3127.48
3098.63
3071.79
3046.94
3024.02
3003.02
2983.87
2966.54
2950.96
2937.06
2924.77
2914.04
2904.79
2896.97
2890.52
2885.4
2881.57
2879.01
2877.71
2877.66
2878.75
2881.02
2884.52
2889.27
2895.3
2902.66
2911.4
2921.54
2933.14
2946.24
2960.88
2977.08
2994.89
3014.3
3035.35
3058.01
3082.26
3108.03
3135.23
3163.7
3193.15
3223.68
3254.88
3286.48
3318.15
3349.56
3380.4
3410.3
3438.9
3465.78
3490.58
3513
3532.67
3549.19
3053.08
3024.59
2996.26
2968.91
2942.99
2918.64
2896
2875.1
2855.99
2838.66
2823.08
2809.21
2797.01
2786.44
2777.44
2769.97
2763.99
2759.47
2756.37
2754.69
2754.41
2755.57
2758.14
2762.13
2767.57
2774.5
2782.96
2793.01
2804.7
2818.09
2833.22
2850.15
2868.91
2889.52
2911.99
2936.32
2962.45
2990.32
3019.84
3050.85
3083.14
3116.32
3150.24
3184.65
3219.27
3253.65
3287.35
3319.99
3351.13
3380.3
3407.14
3431.26
3452.31
3469.98
3484.01
3494.2
3500.42
3502.56
3500.9
3495.19
3485.49
3471.94
3454.69
3434.02
3410.24
3383.66
3354.67
3323.69
3291.14
3257.44
3223.02
3188.31
3153.67
3119.48
3086.05
3053.67
3022.57
2992.93
2964.88
2938.55
2913.99
2891.24
2870.34
2851.27
2834.05
2818.65
2805.06
2793.27
2783.26
2774.99
2768.44
2763.56
2760.32
2758.64
2758.48
2759.77
2762.45
2766.5
2771.88
2778.59
2786.64
2796.04
2806.84
2819.08
2832.79
2848.02
2864.82
2883.2
2903.19
2924.77
2947.92
2972.61
2998.75
3026.27
3055.02
3084.87
3115.78
3147.29
3179.29
3211.52
3243.69
3275.49
3306.58
3336.58
3365.11
3391.79
3416.22
3438
3456.77
3472.2
3484
3491.93
3495.81
3495.54
3491.1
3482.55
3469.98
3453.57
3433.58
3410.28
3384.03
3355.21
3324.24
3291.56
3257.63
3222.91
3187.87
3152.96
3118.59
3085.15
3052.95
3022.28
2993.34
2966.3
2941.25
2918.23
2897.26
2878.31
2861.32
2846.22
2832.93
2821.35
2811.4
2802.98
2796.02
2790.45
2786.19
2783.2
2781.42
2780.81
2781.38
2783.05
2785.82
2789.7
2794.7
2800.82
2808.11
2816.59
2826.3
2837.28
2849.57
2863.22
2878.29
2894.82
2912.86
2932.44
2953.6
2976.34
3000.63
3026.44
3053.69
3082.25
3111.97
3142.76
3174.19
3206.08
3238.11
3269.91
3301.11
3331.29
3360.03
3386.9
3411.48
3433.34
3452.11
3467.43
3479.02
3486.64
3490.13
3489.4
3484.46
3475.4
3462.35
3445.53
3425.23
3401.76
3375.52
3346.91
3316.38
3284.41
3251.49
3218.09
3184.67
3151.64
3119.35
3088.07
3058.06
3029.52
3002.58
2977.35
2953.88
2932.22
2912.36
2894.28
2877.93
2863.24
2850.15
2838.56
2828.41
2819.62
2812.13
2805.88
2800.83
2796.94
2794.17
2792.49
2791.89
2792.35
2793.85
2796.4
2800.03
2804.76
2810.62
2817.67
2825.94
2835.49
2846.36
2858.57
2872.16
2887.14
2903.54
2921.36
2940.6
2961.28
2983.37
3006.86
3031.69
3057.8
3085.09
3113.4
3142.79
3174.08
3205.2
3236.16
3266.76
3296.7
3325.67
3353.28
3379.15
3402.83
3423.91
3441.97
3456.62
3467.44
3474.19
3476.67
3474.72
3468.84
3459
3445.21
3427.54
3406.19
3381.53
3354.01
3324.19
3292.61
3259.82
3226.33
3192.67
3159.31
3126.52
3092.53
3059.67
3028.7
2999.85
2973.03
2948.19
2925.28
2904.3
2885.17
2867.86
2852.3
2838.43
2826.16
2815.45
2806.23
2798.42
2791.99
2786.88
2783.07
2780.51
2779.21
2779.17
2780.26
2782.52
2786.01
2790.75
2796.77
2804.12
2812.84
2822.96
2834.54
2847.63
2862.24
2878.43
2896.22
2915.62
2936.66
2959.32
2983.58
3009.36
3036.59
3065.11
3094.58
3125.19
3156.47
3188.16
3219.93
3251.45
3282.41
3312.44
3341.16
3368.17
3393.1
3415.64
3435.41
3452.03
2954.41
2925.85
2897.47
2870.1
2844.15
2819.8
2797.17
2776.29
2757.19
2739.88
2724.32
2710.48
2698.31
2687.76
2678.78
2671.33
2665.37
2660.86
2657.77
2656.09
2655.81
2656.97
2659.53
2663.5
2668.93
2675.84
2684.28
2694.31
2705.98
2719.33
2734.44
2751.35
2770.09
2790.68
2813.14
2837.46
2863.61
2891.5
2921.05
2952.11
2984.47
3017.72
3051.73
3086.26
3121.01
3155.53
3189.39
3222.19
3253.5
3282.84
3309.84
3334.1
3355.29
3373.07
3387.2
3397.46
3403.72
3405.87
3404.21
3398.46
3388.7
3375.05
3357.69
3336.9
3312.96
3286.22
3257.07
3225.92
3193.2
3159.34
3124.78
3089.93
3055.17
3020.88
2987.37
2954.93
2923.78
2894.1
2866.04
2839.7
2815.14
2792.4
2771.5
2752.45
2735.25
2719.87
2706.29
2694.52
2684.52
2676.27
2669.74
2664.88
2661.66
2660.01
2659.86
2661.16
2663.86
2667.91
2673.29
2680
2688.04
2697.43
2708.2
2720.42
2734.1
2749.32
2766.1
2784.47
2804.44
2826.02
2849.17
2873.87
2900.03
2927.57
2956.37
2986.28
3017.23
3048.81
3080.9
3113.23
3145.52
3177.44
3208.66
3238.81
3267.5
3294.34
3318.92
3340.86
3359.77
3375.32
3387.22
3395.21
3399.14
3398.88
3394.42
3385.81
3373.15
3356.64
3336.5
3313.06
3286.64
3257.65
3226.51
3193.65
3159.55
3124.67
3089.48
3054.43
3019.94
2986.4
2954.12
2923.4
2894.43
2867.37
2842.32
2819.32
2798.37
2779.45
2762.5
2747.44
2734.18
2722.64
2712.73
2704.34
2697.41
2691.87
2687.63
2684.66
2682.9
2682.3
2682.88
2684.55
2687.32
2691.2
2696.18
2702.3
2709.57
2718.04
2727.72
2738.68
2750.95
2764.58
2779.62
2796.12
2814.14
2833.71
2854.85
2877.58
2901.88
2927.7
2954.97
2983.58
3013.35
3044.22
3075.74
3107.74
3139.88
3171.82
3203.17
3233.52
3262.42
3289.47
3314.2
3336.23
3355.14
3370.59
3382.27
3389.96
3393.48
3392.75
3387.78
3378.64
3365.49
3348.55
3328.11
3304.48
3278.07
3249.28
3218.57
3186.42
3153.33
3119.78
3086.23
3053.09
3020.7
2989.35
2959.3
2930.72
2903.76
2878.51
2855.05
2833.4
2813.57
2795.51
2779.19
2764.54
2751.47
2739.92
2729.8
2721.04
2713.57
2707.34
2702.31
2698.43
2695.67
2694
2693.41
2693.87
2695.37
2697.92
2701.53
2706.25
2712.09
2719.12
2727.38
2736.91
2747.75
2759.95
2773.53
2788.49
2804.88
2822.68
2841.92
2862.59
2884.68
2908.18
2933.03
2959.16
2986.48
3014.84
3044.29
3075.74
3106.95
3138.01
3168.72
3198.79
3227.9
3255.67
3281.68
3305.53
3326.76
3344.97
3359.76
3370.71
3377.56
3380.14
3378.3
3372.32
3362.39
3348.47
3330.65
3309.11
3284.24
3256.51
3226.48
3194.71
3161.73
3128.08
3094.32
3060.87
3028.02
2993.66
2960.79
2929.83
2900.99
2874.18
2849.35
2826.46
2805.5
2786.39
2769.11
2753.58
2739.73
2727.49
2716.81
2707.6
2699.82
2693.41
2688.31
2684.51
2681.97
2680.67
2680.63
2681.72
2683.98
2687.45
2692.18
2698.19
2705.52
2714.22
2724.32
2735.88
2748.95
2763.54
2779.71
2797.48
2816.87
2837.89
2860.56
2884.82
2910.62
2937.89
2966.47
2995.96
3026.65
3058.02
3089.81
3121.69
3153.34
3184.43
3214.6
3243.47
3270.63
3295.7
3318.37
3338.27
3354.99
2855.67
2827.03
2798.6
2771.2
2745.24
2720.88
2698.25
2677.39
2658.32
2641.03
2625.5
2611.68
2599.54
2589.02
2580.06
2572.63
2566.69
2562.19
2559.11
2557.44
2557.16
2558.31
2560.86
2564.83
2570.23
2577.12
2585.54
2595.54
2607.18
2620.51
2635.59
2652.47
2671.18
2691.76
2714.21
2738.53
2764.68
2792.59
2822.18
2853.29
2885.72
2919.06
2953.18
2987.84
3022.73
3057.41
3091.44
3124.43
3155.92
3185.44
3212.62
3237.05
3258.39
3276.31
3290.53
3300.87
3307.18
3309.34
3307.68
3301.89
3292.05
3278.31
3260.82
3239.88
3215.78
3188.86
3159.52
3128.18
3095.28
3061.25
3026.52
2991.52
2956.63
2922.23
2888.62
2856.11
2824.9
2795.19
2767.11
2740.76
2716.2
2693.47
2672.59
2653.56
2636.37
2621.01
2607.45
2595.7
2585.71
2577.48
2570.97
2566.14
2562.94
2561.31
2561.18
2562.5
2565.21
2569.27
2574.65
2581.35
2589.38
2598.75
2609.5
2621.69
2635.36
2650.55
2667.31
2685.66
2705.62
2727.19
2750.35
2775.06
2801.24
2828.81
2857.65
2887.62
2918.62
2950.29
2982.48
3014.92
3047.33
3079.4
3110.77
3141.08
3169.94
3196.96
3221.71
3243.82
3262.89