/*--------------------------------*- C++ -*----------------------------------*\
| =========                 |                                                 |
| \\      /  F ield         | OpenFOAM: The Open Source CFD Toolbox           |
|  \\    /   O peration     | Version:  3.0.1                                 |
|   \\  /    A nd           | Web:      www.OpenFOAM.org                      |
|    \\/     M anipulation  |                                                 |
\*---------------------------------------------------------------------------*/
FoamFile
{
    version     2.0;
    format      ascii;
    class       surfaceScalarField;
    location    "82.2";
    object      alphaPhi;
}
// * * * * * * * * * * * * * * * * * * * * * * * * * * * * * * * * * * * * * //

dimensions      [0 3 -1 0 0 0 0];

internalField   nonuniform List<scalar> 
42423
(
-3.6025e-05
1.65334e-05
-5.16781e-05
1.56531e-05
-6.65323e-05
1.48542e-05
-8.05076e-05
1.39753e-05
-9.35066e-05
1.2999e-05
-0.000105583
1.2076e-05
-0.000116683
1.11001e-05
-0.000126861
1.01787e-05
-0.000136116
9.25416e-06
-0.00014445
8.33391e-06
-0.000151917
7.46706e-06
-0.00015853
6.6129e-06
-0.000164304
5.77481e-06
-0.000169279
4.97448e-06
-0.000173484
4.20523e-06
-0.000176925
3.44067e-06
-0.000179632
2.70723e-06
-0.00018162
1.98826e-06
-0.000182906
1.28557e-06
-0.000183516
6.09948e-07
-0.000183378
-1.37323e-07
-0.000182494
-8.8408e-07
-0.000180912
-1.58216e-06
-0.000178567
-2.34494e-06
-0.000175502
-3.06474e-06
-0.000171577
-3.92522e-06
-0.000166858
-4.71978e-06
-0.000161334
-5.524e-06
-0.000154859
-6.47422e-06
-0.000147509
-7.35006e-06
-0.000139303
-8.20586e-06
-0.000130028
-9.27549e-06
-0.000119849
-1.01791e-05
-0.00010853
-1.13184e-05
-9.6226e-05
-1.23045e-05
-8.31238e-05
-1.31023e-05
-6.87975e-05
-1.43263e-05
-5.35313e-05
-1.52663e-05
-3.75809e-05
-1.59504e-05
-2.05157e-05
-1.70652e-05
-2.8156e-06
-1.77001e-05
1.55191e-05
-1.83347e-05
3.44125e-05
-1.88935e-05
5.34758e-05
-1.90634e-05
7.26904e-05
-1.92146e-05
9.18187e-05
-1.91284e-05
0.00011049
-1.8671e-05
0.000128576
-1.80864e-05
0.000145832
-1.72564e-05
0.000161852
-1.602e-05
0.000176543
-1.46909e-05
0.000189585
-1.30421e-05
0.000200828
-1.12428e-05
0.000210106
-9.27806e-06
0.0002171
-6.99423e-06
0.000221802
-4.70133e-06
0.000224139
-2.33768e-06
0.000223988
1.51055e-07
0.000221442
2.5458e-06
0.000216455
4.98746e-06
0.000209217
7.23813e-06
0.000199835
9.38212e-06
0.000188398
1.1436e-05
0.000175147
1.32511e-05
0.000160325
1.48227e-05
0.000144131
1.61936e-05
0.000126827
1.73043e-05
0.000108664
1.8163e-05
8.99679e-05
1.86958e-05
7.08642e-05
1.91037e-05
5.16342e-05
1.92299e-05
3.26206e-05
1.90136e-05
1.38128e-05
1.88078e-05
-4.47199e-06
1.82848e-05
-2.21316e-05
1.76596e-05
-3.90801e-05
1.69485e-05
-5.5177e-05
1.60969e-05
-7.04628e-05
1.52858e-05
-8.47645e-05
1.43016e-05
-9.81238e-05
1.33593e-05
-0.000110504
1.23801e-05
-0.000121857
1.13528e-05
-0.000132267
1.04096e-05
-0.000141693
9.42595e-06
-0.000150086
8.39318e-06
-0.000157462
7.37576e-06
-0.000163793
6.33064e-06
-0.000169126
5.33263e-06
-0.000173424
4.29744e-06
-0.000176667
3.24311e-06
-0.000178921
2.25297e-06
-0.000180251
1.33056e-06
-0.000180794
5.42294e-07
-0.000180557
-2.36869e-07
-0.000179615
-9.42371e-07
-0.000178013
-1.60258e-06
-0.00017581
-2.20329e-06
-0.000173002
-2.80778e-06
-0.000169569
-3.43346e-06
-0.000165456
-4.11301e-06
-0.000160683
-4.77391e-06
-0.000155175
-5.50747e-06
-0.000148931
-6.24445e-06
-0.000141879
-7.05269e-06
-0.000134038
-7.84108e-06
-0.000125366
-8.672e-06
-0.000115893
-9.47299e-06
-0.000105551
-1.03425e-05
-9.43385e-05
-1.12122e-05
-8.22309e-05
-1.21078e-05
-6.93931e-05
-1.28379e-05
-5.56863e-05
-1.37069e-05
-4.11902e-05
-1.44961e-05
-2.60005e-05
-1.51898e-05
-1.01522e-05
-1.58483e-05
6.2759e-06
-1.64282e-05
2.31542e-05
-1.68783e-05
4.04136e-05
-1.72595e-05
5.79139e-05
-1.75004e-05
7.55008e-05
-1.7587e-05
9.29812e-05
-1.74805e-05
0.000110204
-1.72226e-05
0.000126945
-1.6741e-05
0.000143002
-1.60572e-05
0.000158124
-1.51221e-05
0.000172102
-1.39786e-05
0.000184689
-1.25872e-05
0.000195609
-1.09199e-05
0.00020467
-9.06079e-06
0.000211688
-7.01802e-06
0.000216438
-4.75033e-06
0.000218883
-2.44503e-06
0.000218908
-2.4875e-08
0.00021645
2.45784e-06
0.000211522
4.92797e-06
0.000204257
7.26562e-06
0.000194711
9.5462e-06
0.000183112
1.15986e-05
0.000169632
1.34805e-05
0.000154477
1.5155e-05
0.000137948
1.65285e-05
0.000120249
1.7699e-05
0.000101737
1.85117e-05
8.26055e-05
1.91319e-05
6.31953e-05
1.94102e-05
4.37238e-05
1.94715e-05
2.44508e-05
1.9273e-05
5.57806e-06
1.88727e-05
-1.26663e-05
1.82444e-05
-3.01444e-05
1.74781e-05
-4.67396e-05
1.65952e-05
-6.23126e-05
1.5573e-05
-7.6828e-05
1.45153e-05
-9.02402e-05
1.34122e-05
-0.000102548
1.23079e-05
-0.000113725
1.11771e-05
-0.000123793
1.00679e-05
-0.000132873
9.08028e-06
-0.000140914
8.04049e-06
-0.000148033
7.11943e-06
-0.000154207
6.1736e-06
-0.000159569
5.36209e-06
-0.000164123
4.55389e-06
-0.000167933
3.80992e-06
-0.000170953
3.01998e-06
-0.000173281
2.32818e-06
-0.00017501
1.72927e-06
-0.000176033
1.02323e-06
-0.000176443
4.09263e-07
-0.000176193
-2.49633e-07
-0.000175334
-8.58868e-07
-0.000173834
-1.49982e-06
-0.000171721
-2.11286e-06
-0.000168967
-2.75449e-06
-0.000165593
-3.37333e-06
-0.000161586
-4.00771e-06
-0.000156934
-4.6513e-06
-0.000151609
-5.3258e-06
-0.000145571
-6.03763e-06
-0.000138966
-6.60458e-06
-0.000131605
-7.36164e-06
-0.000123532
-8.07308e-06
-0.000114705
-8.8266e-06
-0.000105169
-9.53575e-06
-9.47972e-05
-1.03722e-05
-8.35664e-05
-1.12308e-05
-7.15311e-05
-1.20354e-05
-5.86126e-05
-1.29185e-05
-4.49038e-05
-1.37088e-05
-3.03258e-05
-1.4578e-05
-1.50776e-05
-1.52483e-05
8.69295e-07
-1.5947e-05
1.74573e-05
-1.6588e-05
3.45196e-05
-1.70624e-05
5.19403e-05
-1.74207e-05
6.95047e-05
-1.75645e-05
8.70266e-05
-1.7522e-05
0.000104239
-1.72129e-05
0.000120904
-1.66643e-05
0.000136773
-1.58692e-05
0.000151578
-1.48049e-05
0.000165091
-1.35138e-05
0.00017705
-1.19585e-05
0.000187165
-1.01151e-05
0.000195271
-8.10578e-06
0.000201158
-5.88712e-06
0.00020463
-3.47275e-06
0.000205701
-1.07121e-06
0.000204316
1.38507e-06
0.000200385
3.93126e-06
0.000194057
6.32754e-06
0.000185496
8.56131e-06
0.000174814
1.06824e-05
0.000162253
1.25602e-05
0.000148078
1.41755e-05
0.000132529
1.55484e-05
0.000115849
1.668e-05
9.83722e-05
1.74771e-05
8.0318e-05
1.80542e-05
6.20088e-05
1.83091e-05
4.37125e-05
1.82963e-05
2.56592e-05
1.80533e-05
7.99992e-06
1.76593e-05
-9.05282e-06
1.70527e-05
-2.53438e-05
1.6291e-05
-4.08907e-05
1.55469e-05
-5.55033e-05
1.46126e-05
-6.92394e-05
1.37361e-05
-8.206e-05
1.28206e-05
-9.39849e-05
1.19249e-05
-0.000105012
1.10272e-05
-0.000115121
1.01089e-05
-0.000124327
9.2056e-06
-0.000132599
8.27253e-06
-0.00014
7.40114e-06
-0.000146449
6.44863e-06
-0.000152036
5.58714e-06
-0.000156805
4.76916e-06
-0.000160743
3.93804e-06
-0.000163959
3.21627e-06
-0.000166583
2.62437e-06
-0.000168639
2.05509e-06
-0.00017025
1.61115e-06
-0.000171434
1.18487e-06
-0.000172168
7.33934e-07
-0.000172406
2.38302e-07
-0.000172059
-3.47293e-07
-0.000171167
-8.91613e-07
-0.000169584
-1.5827e-06
-0.000167373
-2.21074e-06
-0.000164491
-2.88234e-06
-0.000160981
-3.50917e-06
-0.000156851
-4.13059e-06
-0.000152114
-4.73611e-06
-0.000146771
-5.34363e-06
-0.000140802
-5.96799e-06
-0.000134244
-6.55854e-06
-0.00012698
-7.26389e-06
-0.000119139
-7.84081e-06
-0.000110603
-8.53597e-06
-0.000101312
-9.29002e-06
-9.11796e-05
-1.01328e-05
-8.03014e-05
-1.08781e-05
-6.85465e-05
-1.17549e-05
-5.6e-05
-1.25464e-05
-4.27523e-05
-1.32477e-05
-2.87071e-05
-1.40452e-05
-1.397e-05
-1.47371e-05
1.25375e-06
-1.52238e-05
1.71407e-05
-1.5887e-05
3.33483e-05
-1.62076e-05
4.98832e-05
-1.6535e-05
6.64161e-05
-1.6533e-05
8.29802e-05
-1.65642e-05
9.92543e-05
-1.62741e-05
0.000115189
-1.59348e-05
0.000130555
-1.53662e-05
0.000145246
-1.46913e-05
0.000158907
-1.36613e-05
0.000171398
-1.24911e-05
0.000182482
-1.10839e-05
0.000191843
-9.36083e-06
0.000199159
-7.31609e-06
0.000204092
-4.93261e-06
0.000206472
-2.38077e-06
0.000206195
2.77293e-07
0.000203291
2.90408e-06
0.000197733
5.55788e-06
0.000189469
8.26418e-06
0.000178736
1.07325e-05
0.000165654
1.30825e-05
0.000150561
1.5093e-05
0.000133931
1.66299e-05
0.000116147
1.77842e-05
9.76085e-05
1.85382e-05
7.87288e-05
1.88797e-05
5.97479e-05
1.89809e-05
4.09486e-05
1.87992e-05
2.25887e-05
1.83599e-05
4.8446e-06
1.77441e-05
-1.20146e-05
1.68591e-05
-2.7975e-05
1.59604e-05
-4.2982e-05
1.50071e-05
-5.69703e-05
1.39883e-05
-6.99661e-05
1.29958e-05
-8.19552e-05
1.19891e-05
-9.29267e-05
1.09716e-05
-0.000102925
9.99854e-06
-0.000111958
9.03293e-06
-0.000120077
8.11911e-06
-0.000127309
7.23205e-06
-0.000133678
6.36869e-06
-0.000139226
5.54771e-06
-0.000143984
4.75774e-06
-0.000147975
3.99133e-06
-0.00015123
3.25482e-06
-0.000153758
2.52873e-06
-0.000155564
1.80529e-06
-0.000156657
1.09376e-06
-0.000157076
4.18925e-07
-0.000156893
-1.83369e-07
-0.000156085
-8.07891e-07
-0.000154624
-1.46155e-06
-0.000152464
-2.16006e-06
-0.00014956
-2.90342e-06
-0.000145935
-3.62538e-06
-0.000141584
-4.35042e-06
-0.000136369
-5.21539e-06
-0.00013033
-6.03888e-06
-0.000123538
-6.7918e-06
-0.000115768
-7.77039e-06
-0.000107083
-8.68462e-06
-9.76053e-05
-9.47802e-06
-8.71239e-05
-1.04814e-05
-7.57599e-05
-1.1364e-05
-6.33335e-05
-1.24264e-05
-5.00036e-05
-1.333e-05
-3.59067e-05
-1.40968e-05
-2.07747e-05
-1.51321e-05
-4.84678e-06
-1.59279e-05
1.16317e-05
-1.64785e-05
2.88955e-05
-1.72639e-05
4.65634e-05
-1.76679e-05
6.47641e-05
-1.82007e-05
8.31619e-05
-1.83978e-05
0.000101465
-1.83034e-05
0.000119695
-1.82295e-05
0.000137584
-1.78893e-05
0.000154793
-1.72088e-05
0.000171148
-1.63548e-05
0.000186378
-1.5231e-05
0.000200295
-1.3917e-05
0.000212536
-1.22408e-05
0.000222883
-1.03467e-05
0.00023115
-8.26736e-06
0.000237171
-6.02059e-06
-3.8667e-06
-3.60573e-05
3.307e-05
-5.17127e-05
3.13084e-05
-6.65693e-05
2.97108e-05
-8.0547e-05
2.7953e-05
-9.35484e-05
2.60004e-05
-0.000105626
2.41534e-05
-0.000116727
2.22009e-05
-0.000126907
2.03591e-05
-0.000136162
1.85097e-05
-0.000144497
1.66685e-05
-0.000151965
1.49347e-05
-0.000158577
1.32253e-05
-0.000164351
1.15492e-05
-0.000169326
9.94918e-06
-0.000173533
8.41258e-06
-0.000176978
6.88475e-06
-0.000179684
5.4134e-06
-0.000181672
3.97656e-06
-0.00018296
2.57345e-06
-0.000183569
1.21917e-06
-0.000183426
-2.80388e-07
-0.000182542
-1.76809e-06
-0.000180963
-3.16171e-06
-0.000178617
-4.69029e-06
-0.000175553
-6.12879e-06
-0.000171626
-7.85256e-06
-0.000166907
-9.43887e-06
-0.000161385
-1.10455e-05
-0.000154913
-1.2947e-05
-0.000147563
-1.46994e-05
-0.000139358
-1.64109e-05
-0.000130082
-1.85513e-05
-0.000119897
-2.03645e-05
-0.000108585
-2.26309e-05
-9.62771e-05
-2.46121e-05
-8.31782e-05
-2.62012e-05
-6.88457e-05
-2.86588e-05
-5.35756e-05
-3.05364e-05
-3.76261e-05
-3.19e-05
-2.05509e-05
-3.41405e-05
-2.84772e-06
-3.54034e-05
1.54933e-05
-3.66758e-05
3.43973e-05
-3.77975e-05
5.34716e-05
-3.81378e-05
7.26957e-05
-3.84388e-05
9.18359e-05
-3.82687e-05
0.00011052
-3.73553e-05
0.000128621
-3.61874e-05
0.000145892
-3.45273e-05
0.00016192
-3.20484e-05
0.000176626
-2.93968e-05
0.000189682
-2.60977e-05
0.000200934
-2.24947e-05
0.000210223
-1.85674e-05
0.000217221
-1.39926e-05
0.000221931
-9.41183e-06
0.000224279
-4.68549e-06
0.000224118
3.12285e-07
0.000221572
5.09172e-06
0.000216578
9.9812e-06
0.000209332
1.44839e-05
0.000199942
1.87724e-05
0.000188496
2.28823e-05
0.000175229
2.65182e-05
0.000160386
2.96652e-05
0.000144187
3.23926e-05
0.000126866
3.46252e-05
0.0001087
3.63294e-05
8.99911e-05
3.74043e-05
7.0876e-05
3.82189e-05
5.1663e-05
3.84428e-05
3.26089e-05
3.80678e-05
1.37867e-05
3.76299e-05
-4.50969e-06
3.65812e-05
-2.21762e-05
3.53261e-05
-3.91305e-05
3.39027e-05
-5.52283e-05
3.21946e-05
-7.05191e-05
3.05766e-05
-8.48235e-05
2.8606e-05
-9.81813e-05
2.6717e-05
-0.000110564
2.47626e-05
-0.000121916
2.27048e-05
-0.000132328
2.0821e-05
-0.000141755
1.88535e-05
-0.000150143
1.67805e-05
-0.000157512
1.47443e-05
-0.000163842
1.26608e-05
-0.000169168
1.06578e-05
-0.000173467
8.59669e-06
-0.000176703
6.47855e-06
-0.00017895
4.49991e-06
-0.000180274
2.6538e-06
-0.000180809
1.07737e-06
-0.000180564
-4.8251e-07
-0.000179617
-1.88912e-06
-0.000178022
-3.19812e-06
-0.000175785
-4.44021e-06
-0.000172976
-5.61734e-06
-0.000169564
-6.8457e-06
-0.000165451
-8.22625e-06
-0.000160673
-9.55257e-06
-0.000155162
-1.1018e-05
-0.000148935
-1.24717e-05
-0.000141882
-1.41065e-05
-0.000134029
-1.56942e-05
-0.000125369
-1.7332e-05
-0.000115909
-1.89334e-05
-0.000105565
-2.06863e-05
-9.43489e-05
-2.24283e-05
-8.22388e-05
-2.4218e-05
-6.94006e-05
-2.56762e-05
-5.56887e-05
-2.74189e-05
-4.11885e-05
-2.89963e-05
-2.59988e-05
-3.03797e-05
-1.01499e-05
-3.16973e-05
6.28135e-06
-3.28595e-05
2.31562e-05
-3.37533e-05
4.04227e-05
-3.45261e-05
5.79309e-05
-3.50086e-05
7.55106e-05
-3.51668e-05
9.29894e-05
-3.49593e-05
0.00011021
-3.4443e-05
0.000126951
-3.34824e-05
0.000143009
-3.21153e-05
0.00015813
-3.02428e-05
0.000172109
-2.79576e-05
0.000184692
-2.51705e-05
0.000195591
-2.18191e-05
0.000204661
-1.81304e-05
0.000211676
-1.40338e-05
0.00021641
-9.48432e-06
0.00021884
-4.87449e-06
0.000218846
-3.06545e-08
0.000216381
4.92226e-06
0.000211438
9.87089e-06
0.000204154
1.45499e-05
0.000194592
1.91081e-05
0.00018297
2.32203e-05
0.000169462
2.69888e-05
0.000154311
3.03063e-05
0.000137787
3.30519e-05
0.00012006
3.5426e-05
0.000101537
3.70347e-05
8.24325e-05
3.82365e-05
6.29773e-05
3.88655e-05
4.3497e-05
3.89518e-05
2.42273e-05
3.85428e-05
5.38289e-06
3.77171e-05
-1.29123e-05
3.65396e-05
-3.0388e-05
3.49537e-05
-4.69766e-05
3.31839e-05
-6.2546e-05
3.11424e-05
-7.70603e-05
2.90297e-05
-9.04692e-05
2.68211e-05
-0.000102761
2.45994e-05
-0.000113921
2.2337e-05
-0.000123977
2.01241e-05
-0.000133054
1.81572e-05
-0.000141084
1.60704e-05
-0.00014819
1.42257e-05
-0.000154371
1.23551e-05
-0.000159719
1.07093e-05
-0.000164224
9.05937e-06
-0.000168051
7.63731e-06
-0.000171072
6.04039e-06
-0.000173395
4.65104e-06
-0.000175127
3.46177e-06
-0.000176144
2.04023e-06
-0.000176543
8.07721e-07
-0.000176263
-5.28981e-07
-0.000175424
-1.69761e-06
-0.000173909
-3.01562e-06
-0.000171787
-4.23434e-06
-0.000169033
-5.50873e-06
-0.000165654
-6.75177e-06
-0.000161647
-8.01539e-06
-0.00015699
-9.30817e-06
-0.000151657
-1.06586e-05
-0.000145626
-1.20689e-05
-0.000139019
-1.32109e-05
-0.000131653
-1.47285e-05
-0.000123588
-1.61377e-05
-0.000114764
-1.76511e-05
-0.000105217
-1.90823e-05
-9.48474e-05
-2.07418e-05
-8.36207e-05
-2.24576e-05
-7.15895e-05
-2.40666e-05
-5.86806e-05
-2.58275e-05
-4.49707e-05
-2.74188e-05
-3.03925e-05
-2.91563e-05
-1.51552e-05
-3.04857e-05
7.93754e-07
-3.1896e-05
1.73807e-05
-3.31751e-05
3.44553e-05
-3.41371e-05
5.18542e-05
-3.48197e-05
6.94201e-05
-3.51306e-05
8.69556e-05
-3.50576e-05
0.000104158
-3.44156e-05
0.000120833
-3.33388e-05
0.000136693
-3.17296e-05
0.000151493
-2.96051e-05
0.000165005
-2.70259e-05
0.000176966
-2.392e-05
0.000187082
-2.02307e-05
0.000195181
-1.6205e-05
0.000201058
-1.17637e-05
0.000204547
-6.96204e-06
0.0002056
-2.12498e-06
0.000204195
2.79051e-06
0.000200268
7.85836e-06
0.000193936
1.26593e-05
0.000185354
1.71427e-05
0.000174664
2.1373e-05
0.000162101
2.51229e-05
0.000147918
2.83588e-05
0.000132354
3.11123e-05
0.000115684
3.33502e-05
9.81858e-05
3.49748e-05
8.0141e-05
3.6099e-05
6.18247e-05
3.66254e-05
4.35118e-05
3.66092e-05
2.54585e-05
3.61066e-05
7.81304e-06
3.53047e-05
-9.23701e-06
3.41028e-05
-2.55601e-05
3.2614e-05
-4.10744e-05
3.10613e-05
-5.56932e-05
2.92315e-05
-6.94318e-05
2.74747e-05
-8.22513e-05
2.56401e-05
-9.4159e-05
2.38326e-05
-0.000105164
2.20324e-05
-0.000115274
2.02183e-05
-0.000124467
1.83987e-05
-0.000132741
1.6547e-05
-0.000140133
1.4793e-05
-0.000146577
1.28932e-05
-0.000152134
1.11438e-05
-0.000156915
9.55034e-06
-0.000160851
7.8736e-06
-0.000164069
6.43445e-06
-0.000166673
5.22905e-06
-0.000168715
4.09693e-06
-0.000170322
3.21778e-06
-0.000171507
2.37045e-06
-0.00017224
1.46718e-06
-0.000172482
4.79803e-07
-0.000172138
-6.90633e-07
-0.000171254
-1.77596e-06
-0.000169678
-3.15786e-06
-0.000167464
-4.42536e-06
-0.000164581
-5.76513e-06
-0.000161078
-7.01195e-06
-0.000156951
-8.25722e-06
-0.000152213
-9.47359e-06
-0.000146874
-1.06827e-05
-0.000140908
-1.19341e-05
-0.000134337
-1.31292e-05
-0.000127068
-1.45328e-05
-0.000119233
-1.56753e-05
-0.000110692
-1.70767e-05
-0.000101401
-1.85815e-05
-9.12694e-05
-2.02638e-05
-8.03734e-05
-2.17741e-05
-6.86231e-05
-2.35051e-05
-5.60564e-05
-2.51132e-05
-4.28123e-05
-2.64917e-05
-2.87457e-05
-2.81118e-05
-1.4035e-05
-2.94479e-05
1.20916e-06
-3.0468e-05
1.71056e-05
-3.17835e-05
3.33189e-05
-3.2421e-05
4.98611e-05
-3.30773e-05
6.64044e-05
-3.30765e-05
8.29728e-05
-3.31326e-05
9.92512e-05
-3.25526e-05
0.000115199
-3.18826e-05
0.000130573
-3.07402e-05
0.000145275
-2.93932e-05
0.000158942
-2.73288e-05
0.000171446
-2.49947e-05
0.000182536
-2.21749e-05
0.00019191
-1.87341e-05
0.000199257
-1.46631e-05
0.000204209
-9.88514e-06
0.000206609
-4.78081e-06
0.000206331
5.55422e-07
0.00020343
5.80485e-06
0.000197875
1.1113e-05
0.000189603
1.65354e-05
0.000178859
2.14769e-05
0.000165761
2.61806e-05
0.000150651
3.02032e-05
0.000134003
3.32774e-05
0.000116202
3.55855e-05
9.76471e-05
3.70928e-05
7.87531e-05
3.77737e-05
5.97593e-05
3.79747e-05
4.09496e-05
3.76089e-05
2.25795e-05
3.67299e-05
4.80816e-06
3.55154e-05
-1.20375e-05
3.37047e-05
-2.79988e-05
3.19218e-05
-4.30071e-05
3.00153e-05
-5.69961e-05
2.79772e-05
-6.99922e-05
2.59919e-05
-8.19813e-05
2.39782e-05
-9.29526e-05
2.19429e-05
-0.000102951
1.99969e-05
-0.000111983
1.80653e-05
-0.000120102
1.62373e-05
-0.00012733
1.44606e-05
-0.000133696
1.27345e-05
-0.000139247
1.10989e-05
-0.000144007
9.51813e-06
-0.000148
7.98374e-06
-0.000151255
6.51022e-06
-0.000153781
5.0545e-06
-0.000155594
3.61862e-06
-0.000156693
2.19242e-06
-0.000157108
8.34111e-07
-0.000156926
-3.65495e-07
-0.000156124
-1.60998e-06
-0.000154661
-2.92439e-06
-0.000152511
-4.31001e-06
-0.000149605
-5.80939e-06
-0.000145977
-7.25348e-06
-0.000141629
-8.69854e-06
-0.000136416
-1.04288e-05
-0.000130379
-1.20757e-05
-0.000123587
-1.35837e-05
-0.000115816
-1.55415e-05
-0.000107131
-1.737e-05
-9.76564e-05
-1.89522e-05
-8.71715e-05
-2.09664e-05
-7.58113e-05
-2.27243e-05
-6.33808e-05
-2.48568e-05
-5.005e-05
-2.66609e-05
-3.59509e-05
-2.8196e-05
-2.08165e-05
-3.02666e-05
-4.87853e-06
-3.1866e-05
1.16003e-05
-3.29574e-05
2.88702e-05
-3.45338e-05
4.6541e-05
-3.53389e-05
6.47484e-05
-3.64082e-05
8.31504e-05
-3.67999e-05
0.000101458
-3.6611e-05
0.000119697
-3.64684e-05
0.000137596
-3.5789e-05
0.000154817
-3.44295e-05
0.000171181
-3.27187e-05
0.000186409
-3.04592e-05
0.000200331
-2.78395e-05
0.000212588
-2.44978e-05
0.000222946
-2.07051e-05
0.000231228
-1.65488e-05
0.000237264
-1.20573e-05
-7.73266e-06
-3.61223e-05
4.96135e-05
-5.1783e-05
4.69691e-05
-6.66443e-05
4.45721e-05
-8.06258e-05
4.19345e-05
-9.36301e-05
3.90047e-05
-0.000105709
3.62325e-05
-0.000116811
3.33031e-05
-0.000126991
3.05384e-05
-0.000136245
2.77638e-05
-0.000144579
2.50022e-05
-0.000152047
2.24035e-05
-0.000158659
1.98369e-05
-0.000164434
1.73243e-05
-0.000169409
1.49245e-05
-0.000173615
1.26182e-05
-0.000177057
1.03266e-05
-0.000179763
8.11935e-06
-0.000181752
5.96516e-06
-0.000183039
3.86091e-06
-0.00018364
1.8197e-06
-0.000183489
-4.30748e-07
-0.0001826
-2.65699e-06
-0.000181027
-4.73543e-06
-0.000178674
-7.04332e-06
-0.000175608
-9.19422e-06
-0.000171685
-1.17755e-05
-0.000166971
-1.41531e-05
-0.000161453
-1.65635e-05
-0.000154983
-1.94173e-05
-0.000147636
-2.20466e-05
-0.000139432
-2.46149e-05
-0.000130157
-2.78259e-05
-0.00011997
-3.05516e-05
-0.000108662
-3.39393e-05
-9.63536e-05
-3.69205e-05
-8.32484e-05
-3.93064e-05
-6.89199e-05
-4.29874e-05
-5.36475e-05
-4.58089e-05
-3.76711e-05
-4.78764e-05
-2.06103e-05
-5.12014e-05
-2.90097e-06
-5.31128e-05
1.54547e-05
-5.50315e-05
3.43759e-05
-5.67188e-05
5.34657e-05
-5.72276e-05
7.27045e-05
-5.76777e-05
9.18646e-05
-5.74289e-05
0.000110568
-5.60588e-05
0.000128693
-5.43129e-05
0.000145986
-5.18202e-05
0.000162032
-4.80938e-05
0.000176757
-4.4122e-05
0.000189828
-3.91693e-05
0.000201097
-3.37636e-05
0.000210403
-2.78734e-05
0.000217413
-2.10024e-05
0.00022213
-1.41289e-05
0.000224488
-7.04345e-06
0.000224312
4.88097e-07
0.000221766
7.63739e-06
0.000216755
1.49919e-05
0.0002095
2.17395e-05
0.000200096
2.8176e-05
0.000188634
3.43447e-05
0.00017535
3.98015e-05
0.00016049
4.4525e-05
0.000144272
4.86107e-05
0.000126929
5.19686e-05
0.000108744
5.45144e-05
9.00194e-05
5.61286e-05
7.08869e-05
5.73514e-05
5.16666e-05
5.76631e-05
3.25878e-05
5.71466e-05
1.3751e-05
5.64667e-05
-4.55562e-06
5.48878e-05
-2.22301e-05
5.30005e-05
-3.91945e-05
5.08671e-05
-5.5299e-05
4.8299e-05
-7.0596e-05
4.58735e-05
-8.49027e-05
4.29126e-05
-9.82625e-05
4.00767e-05
-0.000110647
3.7147e-05
-0.000121998
3.40555e-05
-0.000132415
3.12382e-05
-0.000141847
2.82849e-05
-0.00015023
2.51634e-05
-0.000157606
2.21204e-05
-0.000163945
1.89992e-05
-0.000169263
1.59752e-05
-0.000173567
1.2901e-05
-0.000176798
9.70856e-06
-0.000179048
6.74963e-06
-0.000180376
3.982e-06
-0.000180892
1.59311e-06
-0.000180644
-7.31427e-07
-0.000179694
-2.83869e-06
-0.000178087
-4.80626e-06
-0.000175889
-6.6382e-06
-0.000173088
-8.41806e-06
-0.000169669
-1.02649e-05
-0.000165573
-1.23234e-05
-0.000160798
-1.4327e-05
-0.000155306
-1.65107e-05
-0.000149084
-1.86936e-05
-0.00014206
-2.11311e-05
-0.000134244
-2.35104e-05
-0.000125559
-2.60167e-05
-0.000116086
-2.84066e-05
-0.000105771
-3.10009e-05
-9.4559e-05
-3.36407e-05
-8.25036e-05
-3.62734e-05
-6.96159e-05
-3.8564e-05
-5.5899e-05
-4.11359e-05
-4.14001e-05
-4.34953e-05
-2.61927e-05
-4.55872e-05
-1.03069e-05
-4.75831e-05
6.11847e-06
-4.92849e-05
2.30024e-05
-5.06372e-05
4.02716e-05
-5.17954e-05
5.77868e-05
-5.25239e-05
7.53726e-05
-5.27527e-05
9.28902e-05
-5.24769e-05
0.000110115
-5.16684e-05
0.000126874
-5.02414e-05
0.000142945
-4.81861e-05
0.000158084
-4.53821e-05
0.000172079
-4.19521e-05
0.000184682
-3.77733e-05
0.000195594
-3.27314e-05
0.000204679
-2.72154e-05
0.000211683
-2.10377e-05
0.000216433
-1.42347e-05
0.000218857
-7.29842e-06
0.00021885
-2.38964e-08
0.000216371
7.40176e-06
0.000211414
1.48272e-05
0.000204108
2.18563e-05
0.00019457
2.86461e-05
0.000182902
3.4888e-05
0.000169358
4.05332e-05
0.000154188
4.54759e-05
0.000137616
4.96242e-05
0.000119885
5.31572e-05
0.00010134
5.55794e-05
8.22477e-05
5.73291e-05
6.27491e-05
5.8364e-05
4.3242e-05
5.84589e-05
2.39632e-05
5.78216e-05
5.09508e-06
5.65852e-05
-1.32203e-05
5.4855e-05
-3.07062e-05
5.24396e-05
-4.7304e-05
4.97816e-05
-6.28691e-05
4.67075e-05
-7.73782e-05
4.35388e-05
-9.07904e-05
4.02333e-05
-0.000103065
3.68743e-05
-0.000114219
3.34906e-05
-0.000124322
3.02272e-05
-0.000133359
2.71942e-05
-0.000141375
2.40865e-05
-0.000148462
2.13123e-05
-0.000154656
1.8549e-05
-0.000159983
1.60367e-05
-0.000164478
1.35543e-05
-0.000168316
1.14756e-05
-0.000171353
9.07774e-06
-0.00017371
7.0077e-06
-0.000175397
5.14841e-06
-0.000176411
3.05422e-06
-0.000176804
1.20079e-06
-0.000176506
-8.2641e-07
-0.000175679
-2.52522e-06
-0.000174161
-4.53367e-06
-0.00017204
-6.35531e-06
-0.000169266
-8.28266e-06
-0.000165902
-1.0115e-05
-0.000161894
-1.2024e-05
-0.000157237
-1.39654e-05
-0.000151903
-1.59925e-05
-0.000145871
-1.81009e-05
-0.000139266
-1.98157e-05
-0.000131909
-2.20854e-05
-0.00012385
-2.41965e-05
-0.000115039
-2.64622e-05
-0.000105467
-2.86544e-05
-9.50949e-05
-3.11139e-05
-8.38737e-05
-3.36788e-05
-7.18388e-05
-3.61015e-05
-5.89319e-05
-3.87344e-05
-4.52098e-05
-4.11409e-05
-3.06208e-05
-4.37453e-05
-1.53974e-05
-4.57091e-05
5.62366e-07
-4.78558e-05
1.71742e-05
-4.97869e-05
3.4223e-05
-5.1186e-05
5.1656e-05
-5.22527e-05
6.924e-05
-5.27146e-05
8.67722e-05
-5.259e-05
0.000104014
-5.16571e-05
0.000120722
-5.00471e-05
0.000136588
-4.75959e-05
0.00015141
-4.44266e-05
0.000164938
-4.05546e-05
0.000176903
-3.5885e-05
0.000187036
-3.03637e-05
0.000195147
-2.43162e-05
0.00020103
-1.7647e-05
0.000204532
-1.04639e-05
0.000205577
-3.16945e-06
0.000204138
4.22915e-06
0.000200227
1.17695e-05
0.000193875
1.90108e-05
0.000185283
2.57348e-05
0.000174578
3.2078e-05
0.000161984
3.77165e-05
0.000147781
4.25625e-05
0.000132206
4.6687e-05
0.000115558
4.99982e-05
9.80053e-05
5.25272e-05
7.99387e-05
5.41657e-05
6.16322e-05
5.49319e-05
4.32754e-05
5.4966e-05
2.52038e-05
5.41782e-05
7.59595e-06
5.29126e-05
-9.48486e-06
5.11836e-05
-2.58475e-05
4.89767e-05
-4.13521e-05
4.65659e-05
-5.59896e-05
4.3869e-05
-6.97246e-05
4.12096e-05
-8.25465e-05
3.84621e-05
-9.44513e-05
3.57373e-05
-0.000105451
3.30321e-05
-0.000115563
3.03301e-05
-0.000124739
2.75746e-05
-0.000133023
2.48317e-05
-0.000140406
2.21755e-05
-0.000146842
1.93289e-05
-0.000152403
1.67048e-05
-0.000157187
1.43347e-05
-0.000161123
1.18094e-05
-0.000164335
9.64684e-06
-0.000166912
7.80623e-06
-0.000168969
6.15397e-06
-0.000170536
4.78488e-06
-0.000171754
3.58852e-06
-0.000172482
2.19534e-06
-0.000172714
7.11936e-07
-0.000172377
-1.02786e-06
-0.000171497
-2.65564e-06
-0.000169933
-4.72128e-06
-0.000167712
-6.64656e-06
-0.000164783
-8.69392e-06
-0.000161314
-1.04805e-05
-0.000157183
-1.2388e-05
-0.000152431
-1.42255e-05
-0.000147097
-1.60163e-05
-0.000141136
-1.78954e-05
-0.000134535
-1.97298e-05
-0.000127302
-2.17659e-05
-0.00011943
-2.35465e-05
-0.000110873
-2.56337e-05
-0.000101569
-2.78853e-05
-9.14459e-05
-3.03872e-05
-8.04829e-05
-3.2737e-05
-6.87769e-05
-3.5211e-05
-5.61912e-05
-3.76989e-05
-4.2945e-05
-3.97379e-05
-2.88238e-05
-4.22329e-05
-1.41518e-05
-4.412e-05
1.12098e-06
-4.57408e-05
1.70315e-05
-4.76941e-05
3.32563e-05
-4.86459e-05
4.98142e-05
-4.96352e-05
6.63709e-05
-4.96332e-05
8.2952e-05
-4.97138e-05
9.92424e-05
-4.88432e-05
0.000115202
-4.7842e-05
0.000130588
-4.61262e-05
0.000145307
-4.41127e-05
0.000158979
-4.10007e-05
0.0001715
-3.75158e-05
0.000182612
-3.32878e-05
0.000192002
-2.8124e-05
0.000199377
-2.20377e-05
0.000204364
-1.48725e-05
0.000206816
-7.23314e-06
0.00020654
8.32071e-07
0.000203639
8.7056e-06
0.000198087
1.66646e-05
0.000189803
2.48194e-05
0.000179037
3.2243e-05
0.00016591
3.93072e-05
0.000150769
4.53441e-05
0.000134091
4.99557e-05
0.000116261
5.34157e-05
9.7678e-05
5.56755e-05
7.87604e-05
5.66912e-05
5.97456e-05
5.69895e-05
4.09216e-05
5.64329e-05
2.25357e-05
5.51158e-05
4.72571e-06
5.33254e-05
-1.21026e-05
5.05331e-05
-2.80673e-05
4.78865e-05
-4.30786e-05
4.50266e-05
-5.70692e-05
4.19678e-05
-7.00655e-05
3.89882e-05
-8.20536e-05
3.59662e-05
-9.30226e-05
3.29118e-05
-0.000103018
2.99922e-05
-0.000112045
2.70927e-05
-0.000120157
2.43489e-05
-0.000127381
2.16843e-05
-0.000133742
1.90955e-05
-0.000139287
1.66448e-05
-0.00014404
1.42711e-05
-0.000148031
1.19745e-05
-0.000151287
9.76636e-06
-0.000153811
7.5782e-06
-0.000155631
5.43842e-06
-0.000156742
3.30405e-06
-0.000157163
1.25437e-06
-0.000156981
-5.46943e-07
-0.000156182
-2.40938e-06
-0.000154718
-4.38803e-06
-0.000152585
-6.44354e-06
-0.000149668
-8.72617e-06
-0.000146039
-1.08823e-05
-0.000141694
-1.30438e-05
-0.000136485
-1.56379e-05
-0.000130454
-1.81062e-05
-0.00012366
-2.03785e-05
-0.000115888
-2.33134e-05
-0.000107204
-2.60542e-05
-9.77307e-05
-2.84251e-05
-8.72488e-05
-3.14483e-05
-7.58819e-05
-3.40912e-05
-6.3449e-05
-3.72898e-05
-5.01145e-05
-3.99954e-05
-3.60144e-05
-4.22962e-05
-2.0883e-05
-4.5398e-05
-4.92935e-06
-4.78196e-05
1.15556e-05
-4.94424e-05
2.88354e-05
-5.18137e-05
4.65171e-05
-5.30206e-05
6.47332e-05
-5.46243e-05
8.31463e-05
-5.52131e-05
0.000101464
-5.49292e-05
0.000119715
-5.47194e-05
0.000137623
-5.36963e-05
0.000154856
-5.16631e-05
0.000171234
-4.90962e-05
0.000186477
-4.57024e-05
0.000200414
-4.17773e-05
0.000212683
-3.67667e-05
0.000223058
-3.10802e-05
0.000231366
-2.48573e-05
0.000237435
-1.81263e-05
-1.16135e-05
-3.62197e-05
6.61669e-05
-5.18885e-05
6.26379e-05
-6.67567e-05
5.94402e-05
-8.07433e-05
5.59212e-05
-9.37519e-05
5.20132e-05
-0.000105833
4.83138e-05
-0.000116939
4.44085e-05
-0.00012712
4.07195e-05
-0.000136375
3.70187e-05
-0.000144709
3.33367e-05
-0.000152179
2.98731e-05
-0.000158785
2.64436e-05
-0.000164559
2.30973e-05
-0.000169535
1.99013e-05
-0.000173742
1.68246e-05
-0.000177183
1.37683e-05
-0.000179887
1.08232e-05
-0.000181879
7.95721e-06
-0.000183164
5.1456e-06
-0.000183738
2.39372e-06
-0.000183573
-5.95512e-07
-0.000182687
-3.54277e-06
-0.000181128
-6.29468e-06
-0.00017876
-9.41188e-06
-0.000175693
-1.22605e-05
-0.000171774
-1.56952e-05
-0.000167068
-1.88587e-05
-0.000161555
-2.20765e-05
-0.000155089
-2.58833e-05
-0.000147745
-2.93905e-05
-0.000139544
-3.28162e-05
-0.00013027
-3.70995e-05
-0.000120081
-4.07405e-05
-0.000108778
-4.52424e-05
-9.64688e-05
-4.92301e-05
-8.33433e-05
-5.2432e-05
-6.9032e-05
-5.72986e-05
-5.37569e-05
-6.10841e-05
-3.77505e-05
-6.38828e-05
-2.06995e-05
-6.82524e-05
-2.98336e-06
-7.08291e-05
1.53946e-05
-7.34096e-05
3.43422e-05
-7.56665e-05
5.3459e-05
-7.63444e-05
7.27184e-05
-7.69372e-05
9.19051e-05
-7.66157e-05
0.000110636
-7.479e-05
0.000128798
-7.24744e-05
0.000146126
-6.91482e-05
0.000162197
-6.41651e-05
0.000176955
-5.88798e-05
0.000190049
-5.2264e-05
0.000201341
-4.50552e-05
0.000210674
-3.72069e-05
0.000217698
-2.80265e-05
0.000222428
-1.88592e-05
0.000224795
-9.40995e-06
0.000224599
6.83778e-07
0.000222079
1.01578e-05
0.000217023
2.00472e-05
0.000209749
2.9014e-05
0.000200324
3.76002e-05
0.00018884
4.58292e-05
0.000175531
5.31107e-05
0.000160639
5.94164e-05
0.000144391
6.48587e-05
0.000127021
6.93392e-05
0.000108808
7.27266e-05
9.00604e-05
7.48766e-05
7.09015e-05
7.65103e-05
5.16624e-05
7.69021e-05
3.25546e-05
7.62544e-05
1.36958e-05
7.53255e-05
-4.6268e-06
7.32103e-05
-2.23152e-05
7.06889e-05
-3.92945e-05
6.78464e-05
-5.54062e-05
6.44106e-05
-7.07175e-05
6.11847e-05
-8.50268e-05
5.72218e-05
-9.83872e-05
5.34371e-05
-0.000110774
4.95335e-05
-0.000122127
4.54084e-05
-0.000132553
4.16641e-05
-0.000141993
3.77251e-05
-0.000150377
3.35466e-05
-0.00015776
2.95033e-05
-0.00016411
2.53483e-05
-0.000169422
2.12869e-05
-0.000173736
1.72147e-05
-0.000176964
1.29366e-05
-0.00017922
9.00542e-06
-0.000180555
5.31657e-06
-0.000181051
2.08852e-06
-0.000180796
-9.86685e-07
-0.000179846
-3.78849e-06
-0.000178261
-6.39226e-06
-0.000176105
-8.79381e-06
-0.0001733
-1.12239e-05
-0.000169874
-1.36904e-05
-0.000165809
-1.63887e-05