/*--------------------------------*- C++ -*----------------------------------*\
| =========                 |                                                 |
| \\      /  F ield         | OpenFOAM: The Open Source CFD Toolbox           |
|  \\    /   O peration     | Version:  3.0.1                                 |
|   \\  /    A nd           | Web:      www.OpenFOAM.org                      |
|    \\/     M anipulation  |                                                 |
\*---------------------------------------------------------------------------*/
FoamFile
{
    version     2.0;
    format      ascii;
    class       surfaceScalarField;
    location    "64.2";
    object      alphaPhi;
}
// * * * * * * * * * * * * * * * * * * * * * * * * * * * * * * * * * * * * * //

dimensions      [0 3 -1 0 0 0 0];

internalField   nonuniform List<scalar> 
42423
(
6.39615e-06
1.68403e-05
-1.00139e-05
1.641e-05
-2.5769e-05
1.57551e-05
-4.07186e-05
1.49496e-05
-5.47231e-05
1.40044e-05
-6.78212e-05
1.30981e-05
-7.99438e-05
1.21226e-05
-9.11454e-05
1.12016e-05
-0.000101415
1.02694e-05
-0.000110754
9.33933e-06
-0.000119214
8.45945e-06
-0.00012681
7.59648e-06
-0.000133564
6.75356e-06
-0.000139512
5.94789e-06
-0.000144668
5.1569e-06
-0.000149083
4.41467e-06
-0.000152764
3.68096e-06
-0.000155737
2.97283e-06
-0.000158025
2.28818e-06
-0.000159628
1.60248e-06
-0.000160565
9.37681e-07
-0.000160833
2.68055e-07
-0.000160409
-4.24154e-07
-0.000159223
-1.18656e-06
-0.000157382
-1.84008e-06
-0.000154731
-2.65143e-06
-0.000151312
-3.41886e-06
-0.000147163
-4.1491e-06
-0.000142156
-5.00736e-06
-0.000136327
-5.8283e-06
-0.000129635
-6.69212e-06
-0.000121928
-7.70763e-06
-0.00011332
-8.6079e-06
-0.000103638
-9.68212e-06
-9.2982e-05
-1.06557e-05
-8.14504e-05
-1.15316e-05
-6.87096e-05
-1.27408e-05
-5.49707e-05
-1.3739e-05
-4.03913e-05
-1.45794e-05
-2.47657e-05
-1.56257e-05
-8.32485e-06
-1.64408e-05
9.0151e-06
-1.734e-05
2.70745e-05
-1.80595e-05
4.54934e-05
-1.84189e-05
6.42955e-05
-1.88022e-05
8.33213e-05
-1.90258e-05
0.000102155
-1.88335e-05
0.000120749
-1.85944e-05
0.000138879
-1.81298e-05
0.00015615
-1.7271e-05
0.000172434
-1.62843e-05
0.000187362
-1.49279e-05
0.000200827
-1.34651e-05
0.000212637
-1.18096e-05
0.000222397
-9.76055e-06
0.000230077
-7.67987e-06
0.000235552
-5.47524e-06
0.000238673
-3.12112e-06
0.00023943
-7.56724e-07
0.000237669
1.76118e-06
0.000233496
4.17311e-06
0.000227014
6.48159e-06
0.000218345
8.66931e-06
0.000207618
1.07267e-05
0.000195021
1.2597e-05
0.000180647
1.43742e-05
0.000164846
1.58003e-05
0.000147797
1.70492e-05
0.000129828
1.79694e-05
0.000111014
1.88142e-05
9.17676e-05
1.9246e-05
7.23181e-05
1.94495e-05
5.28474e-05
1.94707e-05
3.34521e-05
1.93952e-05
1.45469e-05
1.89052e-05
-3.93374e-06
1.84807e-05
-2.1667e-05
1.77333e-05
-3.87568e-05
1.70897e-05
-5.49244e-05
1.61676e-05
-7.01429e-05
1.52185e-05
-8.44577e-05
1.43147e-05
-9.76515e-05
1.31937e-05
-0.000109787
1.2135e-05
-0.000120803
1.10165e-05
-0.000130715
9.91127e-06
-0.000139412
8.69726e-06
-0.000147042
7.6293e-06
-0.00015348
6.43811e-06
-0.000158884
5.40396e-06
-0.000163362
4.47687e-06
-0.000166885
3.52301e-06
-0.000169557
2.67164e-06
-0.000171384
1.82691e-06
-0.000172442
1.05811e-06
-0.00017288
4.3695e-07
-0.000172542
-3.37905e-07
-0.000171503
-1.03962e-06
-0.0001699
-1.60279e-06
-0.00016757
-2.33004e-06
-0.00016452
-3.04985e-06
-0.000160894
-3.62664e-06
-0.000156508
-4.38578e-06
-0.000151397
-5.11134e-06
-0.00014551
-5.88726e-06
-0.000138891
-6.61897e-06
-0.000131473
-7.4179e-06
-0.000123235
-8.23854e-06
-0.000114151
-9.08343e-06
-0.000104196
-9.95531e-06
-9.33663e-05
-1.08298e-05
-8.16845e-05
-1.16818e-05
-6.91251e-05
-1.25595e-05
-5.57242e-05
-1.3401e-05
-4.1477e-05
-1.42472e-05
-2.6578e-05
-1.4899e-05
-1.09295e-05
-1.56486e-05
5.30681e-06
-1.62364e-05
2.20868e-05
-1.67801e-05
3.9312e-05
-1.72252e-05
5.67705e-05
-1.74586e-05
7.43798e-05
-1.76093e-05
9.19288e-05
-1.75491e-05
0.000109235
-1.73061e-05
0.000126059
-1.68238e-05
0.000142177
-1.61181e-05
0.000157305
-1.51282e-05
0.000171227
-1.39227e-05
0.000183653
-1.24258e-05
0.000194353
-1.07002e-05
0.000203108
-8.7551e-06
0.000209669
-6.56086e-06
0.000213942
-4.273e-06
0.000215789
-1.84654e-06
0.000215123
6.65652e-07
0.000211948
3.17455e-06
0.000206238
5.71069e-06
0.000198205
8.03217e-06
0.000187926
1.02793e-05
0.000175604
1.23219e-05
0.000161458
1.41462e-05
0.00014568
1.57776e-05
0.000128592
1.70881e-05
0.00011043
1.81619e-05
9.15436e-05
1.88868e-05
7.21834e-05
1.93602e-05
5.25755e-05
1.96079e-05
3.29941e-05
1.95813e-05
1.37402e-05
1.92539e-05
-5.01942e-06
1.87596e-05
-2.30656e-05
1.80462e-05
-4.02978e-05
1.72322e-05
-5.66352e-05
1.63374e-05
-7.19179e-05
1.52827e-05
-8.61742e-05
1.42563e-05
-9.93156e-05
1.31415e-05
-0.000111319
1.20034e-05
-0.000122346
1.10265e-05
-0.000132254
9.90877e-06
-0.000141158
8.90327e-06
-0.00014919
8.03281e-06
-0.000156251
7.06019e-06
-0.00016243
6.17934e-06
-0.000167748
5.31841e-06
-0.000172366
4.61806e-06
-0.000176199
3.83283e-06
-0.000179284
3.0845e-06
-0.000181662
2.37815e-06
-0.000183438
1.77637e-06
-0.00018448
1.04194e-06
-0.000184872
3.92049e-07
-0.000184692
-1.79773e-07
-0.000183787
-9.04906e-07
-0.000182234
-1.55373e-06
-0.00018012
-2.11305e-06
-0.000177317
-2.80368e-06
-0.000173853
-3.46382e-06
-0.000169713
-4.13943e-06
-0.000164927
-4.78608e-06
-0.000159426
-5.50104e-06
-0.000153226
-6.20066e-06
-0.0001463
-6.92579e-06
-0.000138678
-7.62219e-06
-0.000130253
-8.42421e-06
-0.000121035
-9.21879e-06
-0.000111041
-9.99339e-06
-0.000100215
-1.08268e-05
-8.85676e-05
-1.16469e-05
-7.60868e-05
-1.24808e-05
-6.29392e-05
-1.31477e-05
-4.8958e-05
-1.39812e-05
-3.42297e-05
-1.47283e-05
-1.87686e-05
-1.54612e-05
-2.66329e-06
-1.61053e-05
1.40463e-05
-1.67096e-05
3.11534e-05
-1.71071e-05
4.8415e-05
-1.72617e-05
6.5636e-05
-1.72211e-05
8.25534e-05
-1.69175e-05
9.89243e-05
-1.6371e-05
0.000114494
-1.55694e-05
0.000129083
-1.45889e-05
0.000142453
-1.3371e-05
0.000154422
-1.19681e-05
0.000164752
-1.0331e-05
0.000173229
-8.47656e-06
0.000179695
-6.4662e-06
0.000183933
-4.23835e-06
0.000185858
-1.92442e-06
0.000185402
4.55456e-07
0.000182473
2.92959e-06
0.000177122
5.35112e-06
0.000169407
7.71436e-06
0.000159527
9.8799e-06
0.000147639
1.18883e-05
0.000134
1.36393e-05
0.000118815
1.51845e-05
0.000102451
1.6364e-05
8.5205e-05
1.72461e-05
6.73211e-05
1.78839e-05
4.90881e-05
1.82329e-05
3.08033e-05
1.82848e-05
1.26375e-05
1.81658e-05
-5.22757e-06
1.78651e-05
-2.25326e-05
1.7305e-05
-3.91768e-05
1.66442e-05
-5.50465e-05
1.58697e-05
-7.00352e-05
1.49887e-05
-8.40979e-05
1.40627e-05
-9.71925e-05
1.30946e-05
-0.000109293
1.21003e-05
-0.00012043
1.11374e-05
-0.000130628
1.0198e-05
-0.000139939
9.31031e-06
-0.000148342
8.40301e-06
-0.000155976
7.63448e-06
-0.000162772
6.79634e-06
-0.00016879
6.01813e-06
-0.000174075
5.28429e-06
-0.000178591
4.51595e-06
-0.000182388
3.79705e-06
-0.000185439
3.05091e-06
-0.000187762
2.32366e-06
-0.000189391
1.62904e-06
-0.000190338
9.46465e-07
-0.000190643
3.05577e-07
-0.000190472
-1.71364e-07
-0.00018976
-7.12081e-07
-0.000188556
-1.20331e-06
-0.000186953
-1.60265e-06
-0.000184825
-2.12802e-06
-0.000182139
-2.68623e-06
-0.000178794
-3.34467e-06
-0.000174823
-3.9706e-06
-0.000170113
-4.71052e-06
-0.000164625
-5.48772e-06
-0.000158318
-6.3068e-06
-0.000151347
-6.97056e-06
-0.000143578
-7.76859e-06
-0.000135066
-8.51204e-06
-0.000125807
-9.25899e-06
-0.000115816
-9.99133e-06
-0.000105152
-1.06638e-05
-9.37212e-05
-1.14305e-05
-8.16671e-05
-1.2054e-05
-6.89805e-05
-1.26866e-05
-5.56623e-05
-1.33182e-05
-4.17251e-05
-1.39372e-05
-2.72693e-05
-1.44558e-05
-1.22301e-05
-1.50392e-05
3.2407e-06
-1.54708e-05
1.89956e-05
-1.57549e-05
3.49939e-05
-1.59983e-05
5.10427e-05
-1.60489e-05
6.69179e-05
-1.58753e-05
8.2585e-05
-1.56671e-05
9.77997e-05
-1.52148e-05
0.000112448
-1.46488e-05
0.000126257
-1.38089e-05
0.00013922
-1.2963e-05
0.000150846
-1.16262e-05
0.000161036
-1.01901e-05
0.00016966
-8.62309e-06
0.000176307
-6.64725e-06
0.000180667
-4.36054e-06
0.000182674
-2.00675e-06
0.000182256
4.1795e-07
0.000179182
3.07446e-06
0.00017348
5.70108e-06
0.00016534
8.13994e-06
0.000154917
1.04234e-05
0.000142417
1.25002e-05
0.000128244
1.41732e-05
0.000112646
1.55976e-05
9.60393e-05
1.66066e-05
7.8728e-05
1.73113e-05
6.10766e-05
1.76514e-05
4.33353e-05
1.77412e-05
2.58207e-05
1.75146e-05
8.58933e-06
1.72313e-05
-7.97216e-06
1.65615e-05
-2.38374e-05
1.58653e-05
-3.89001e-05
1.50627e-05
-5.30386e-05
1.41385e-05
-6.6182e-05
1.31434e-05
-7.83499e-05
1.21679e-05
-8.95354e-05
1.11855e-05
-9.97399e-05
1.02045e-05
-0.000109045
9.30534e-06
-0.000117473
8.42732e-06
-0.000125105
7.63202e-06
-0.000132
6.89519e-06
-0.000138223
6.22358e-06
-0.000143861
5.63815e-06
-0.000148925
5.06398e-06
-0.000153446
4.52061e-06
-0.000157457
4.01107e-06
-0.000160973
3.51635e-06
-0.00016399
3.01631e-06
-0.000166482
2.49239e-06
-0.000168429
1.94731e-06
-0.000169806
1.37624e-06
-0.000170586
7.7995e-07
-0.000170641
5.56828e-08
-0.00016991
-7.31757e-07
-0.000168325
-1.58427e-06
-0.00016589
-2.43557e-06
-0.000162575
-3.31446e-06
-0.000158264
-4.31099e-06
-0.000153032
-5.23255e-06
-0.000146838
-6.19353e-06
-0.000139542
-7.29596e-06
-0.000131255
-8.28776e-06
-0.00012203
-9.22461e-06
-0.000111728
-1.03022e-05
-0.000100491
-1.12369e-05
-8.83152e-05
-1.21756e-05
-7.5259e-05
-1.30562e-05
-6.14787e-05
-1.37804e-05
-4.69279e-05
-1.45508e-05
-3.17327e-05
-1.51952e-05
-1.61149e-05
-1.56178e-05
-4.10665e-08
-1.60738e-05
1.6215e-05
-1.6256e-05
3.26911e-05
-1.64761e-05
4.91357e-05
-1.64446e-05
6.53515e-05
-1.62159e-05
8.12834e-05
-1.59319e-05
9.67577e-05
-1.54744e-05
0.00011152
-1.47622e-05
0.000125459
-1.39395e-05
0.000138364
-1.29042e-05
0.000150131
-1.17679e-05
0.000160545
-1.04131e-05
0.000169443
-8.89866e-06
0.000176718
-7.27433e-06
0.000182247
-5.52916e-06
-3.74867e-06
6.36806e-06
3.36833e-05
-1.00457e-05
3.28238e-05
-2.58035e-05
3.15129e-05
-4.07552e-05
2.99014e-05
-5.47613e-05
2.80105e-05
-6.7861e-05
2.61978e-05
-7.9985e-05
2.42466e-05
-9.11882e-05
2.24048e-05
-0.00010146
2.05417e-05
-0.000110801
1.86799e-05
-0.000119259
1.69177e-05
-0.000126856
1.51934e-05
-0.000133608
1.35054e-05
-0.000139556
1.18962e-05
-0.000144713
1.03132e-05
-0.000149126
8.82825e-06
-0.000152808
7.36233e-06
-0.000155782
5.947e-06
-0.000158072
4.57792e-06
-0.000159679
3.20963e-06
-0.000160619
1.87749e-06
-0.000160881
5.30369e-07
-0.000160454
-8.50872e-07
-0.000159268
-2.37293e-06
-0.000157429
-3.67865e-06
-0.000154776
-5.30452e-06
-0.00015136
-6.83555e-06
-0.000147213
-8.29593e-06
-0.000142215
-1.00049e-05
-0.000136381
-1.16627e-05
-0.000129687
-1.33864e-05
-0.00012198
-1.54143e-05
-0.000113374
-1.72138e-05
-0.000103695
-1.93613e-05
-9.30375e-05
-2.13131e-05
-8.15067e-05
-2.30624e-05
-6.8762e-05
-2.54855e-05
-5.50206e-05
-2.74804e-05
-4.04393e-05
-2.91608e-05
-2.48323e-05
-3.12327e-05
-8.36358e-06
-3.29096e-05
8.9819e-06
-3.46855e-05
2.70485e-05
-3.61262e-05
4.54728e-05
-3.68432e-05
6.42865e-05
-3.76158e-05
8.33251e-05
-3.80644e-05
0.00010217
-3.76787e-05
0.000120774
-3.71985e-05
0.000138916
-3.62714e-05
0.000156198
-3.45531e-05
0.000172497
-3.25835e-05
0.000187437
-2.98673e-05
0.000200912
-2.6941e-05
0.000212727
-2.36244e-05
0.000222494
-1.95275e-05
0.000230184
-1.53703e-05
0.000235669
-1.09603e-05
0.000238792
-6.24393e-06
0.000239554
-1.5187e-06
0.000237786
3.52934e-06
0.000233616
8.34339e-06
0.000227133
1.2964e-05
0.000218457
1.73455e-05
0.000207722
2.1462e-05
0.000195113
2.52053e-05
0.000180734
2.87533e-05
0.000164921
3.16135e-05
0.000147859
3.41114e-05
0.000129879
3.59493e-05
0.000111046
3.76471e-05
9.1788e-05
3.8504e-05
7.23418e-05
3.88957e-05
5.2849e-05
3.89635e-05
3.34352e-05
3.8809e-05
1.4516e-05
3.78244e-05
-3.97249e-06
3.69691e-05
-2.17138e-05
3.54746e-05
-3.88103e-05
3.41862e-05
-5.49829e-05
3.23402e-05
-7.02096e-05
3.04451e-05
-8.45338e-05
2.86389e-05
-9.77231e-05
2.6383e-05
-0.000109851
2.42632e-05
-0.00012087
2.20353e-05
-0.000130786
1.98262e-05
-0.000139479
1.73904e-05
-0.000147103
1.52528e-05
-0.000153545
1.28797e-05
-0.000158941
1.08004e-05
-0.000163409
8.94432e-06
-0.000166923
7.03675e-06
-0.000169603
5.35084e-06
-0.00017144
3.66414e-06
-0.000172499
2.11657e-06
-0.000172925
8.63072e-07
-0.000172591
-6.72373e-07
-0.000171557
-2.07419e-06
-0.000169956
-3.20356e-06
-0.00016764
-4.64654e-06
-0.000164597
-6.09303e-06
-0.000160972
-7.25127e-06
-0.000156582
-8.77605e-06
-0.000151477
-1.02171e-05
-0.000145598
-1.17661e-05
-0.000138978
-1.32386e-05
-0.000131561
-1.48355e-05
-0.000123312
-1.64875e-05
-0.000114228
-1.81672e-05
-0.000104274
-1.99091e-05
-9.34515e-05
-2.16527e-05
-8.17667e-05
-2.33667e-05
-6.9192e-05
-2.51343e-05
-5.57925e-05
-2.68005e-05
-4.15421e-05
-2.84976e-05
-2.66426e-05
-2.97986e-05
-1.09899e-05
-3.13014e-05
5.25709e-06
-3.24834e-05
2.20427e-05
-3.35658e-05
3.92759e-05
-3.44585e-05
5.67388e-05
-3.49215e-05
7.43558e-05
-3.52264e-05
9.19094e-05
-3.51028e-05
0.000109219
-3.46154e-05
0.00012605
-3.36554e-05
0.000142172
-3.22402e-05
0.000157315
-3.02708e-05
0.00017125
-2.78577e-05
0.000183676
-2.48516e-05
0.000194386
-2.14102e-05
0.000203135
-1.75046e-05
0.000209694
-1.31195e-05
0.000213968
-8.5476e-06
0.00021582
-3.69837e-06
0.00021513
1.35538e-06
0.000211945
6.35994e-06
0.000206235
1.14205e-05
0.000198183
1.60839e-05
0.000187918
2.05442e-05
0.000175553
2.46873e-05
0.00016141
2.82889e-05
0.000145598
3.15897e-05
0.000128525
3.41612e-05
0.000110331
3.63563e-05
9.14294e-05
3.77879e-05
7.2029e-05
3.87607e-05
5.24484e-05
3.91885e-05
3.28442e-05
3.91856e-05
1.3582e-05
3.85162e-05
-5.18031e-06
3.7522e-05
-2.32376e-05
3.61034e-05
-4.04614e-05
3.44561e-05
-5.68149e-05
3.26909e-05
-7.20941e-05
3.05619e-05
-8.63141e-05
2.84763e-05
-9.94834e-05
2.63108e-05
-0.000111514
2.4034e-05
-0.000122499
2.20117e-05
-0.000132409
1.98185e-05
-0.000141306
1.78002e-05
-0.000149323
1.60504e-05
-0.000156385
1.4122e-05
-0.000162569
1.2363e-05
-0.000167882
1.06314e-05
-0.000172472
9.20881e-06
-0.000176337
7.69778e-06
-0.00017941
6.15778e-06
-0.000181797
4.76499e-06
-0.000183555
3.53412e-06
-0.000184599
2.08628e-06
-0.000184982
7.74318e-07
-0.0001848
-3.60889e-07
-0.000183899
-1.80628e-06
-0.000182338
-3.11511e-06
-0.000180223
-4.22721e-06
-0.000177416
-5.61073e-06
-0.000173949
-6.9312e-06
-0.000169819
-8.26977e-06
-0.000165026
-9.57895e-06
-0.000159521
-1.10058e-05
-0.000153315
-1.24069e-05
-0.000146399
-1.38414e-05
-0.000138771
-1.52503e-05
-0.000130348
-1.68475e-05
-0.000121133
-1.84336e-05
-0.000111131
-1.99955e-05
-0.000100296
-2.16615e-05
-8.86589e-05
-2.32842e-05
-7.61745e-05
-2.49653e-05
-6.30209e-05
-2.63013e-05
-4.90402e-05
-2.7962e-05
-3.4314e-05
-2.94545e-05
-1.88527e-05
-3.09225e-05
-2.73667e-06
-3.22214e-05
1.39758e-05
-3.34221e-05
3.10846e-05
-3.4216e-05
4.83599e-05
-3.4537e-05
6.55924e-05
-3.44537e-05
8.2516e-05
-3.38411e-05
9.88886e-05
-3.27436e-05
0.000114467
-3.11481e-05
0.000129063
-2.91847e-05
0.000142437
-2.67452e-05
0.000154401
-2.39321e-05
0.000164759
-2.06887e-05
0.000173223
-1.69407e-05
0.00017969
-1.29337e-05
0.000183937
-8.48523e-06
0.000185863
-3.85076e-06
0.000185398
9.20516e-07
0.000182458
5.86985e-06
0.000177102
1.07072e-05
0.000169381
1.54351e-05
0.000159487
1.97744e-05
0.000147583
2.37918e-05
0.000133916
2.73065e-05
0.000118737
3.03636e-05
0.000102361
3.27395e-05
8.50923e-05
3.45153e-05
6.71978e-05
3.57784e-05
4.89638e-05
3.64669e-05
3.06459e-05
3.66028e-05
1.24735e-05
3.63382e-05
-5.37388e-06
3.57125e-05
-2.26848e-05
3.4616e-05
-3.93229e-05
3.32824e-05
-5.51908e-05
3.17375e-05
-7.01837e-05
2.99817e-05
-8.425e-05
2.8129e-05
-9.73453e-05
2.61899e-05
-0.00010944
2.41948e-05
-0.000120572
2.22697e-05
-0.000130761
2.03869e-05
-0.000140073
1.86223e-05
-0.000148489
1.68192e-05
-0.0001561
1.52456e-05
-0.000162904
1.36006e-05
-0.000168927
1.20405e-05
-0.00017421
1.05676e-05
-0.000178719
9.02524e-06
-0.000182504
7.58156e-06
-0.000185549
6.09642e-06
-0.000187877
4.65204e-06
-0.000189504
3.25591e-06
-0.000190451
1.89345e-06
-0.000190751
6.05136e-07
-0.000190585
-3.37464e-07
-0.000189868
-1.42831e-06
-0.000188648
-2.42317e-06
-0.000187064
-3.18699e-06
-0.000184941
-4.25067e-06
-0.00018225
-5.37771e-06
-0.000178926
-6.66797e-06
-0.000174942
-7.95473e-06
-0.000170231
-9.42158e-06
-0.000164747
-1.09715e-05
-0.000158473
-1.25808e-05
-0.000151475
-1.3968e-05
-0.000143701
-1.55425e-05
-0.000135182
-1.70305e-05
-0.000125916
-1.85252e-05
-0.000115934
-1.99735e-05
-0.000105244
-2.13534e-05
-9.38122e-05
-2.2862e-05
-8.17508e-05
-2.41154e-05
-6.90546e-05
-2.53827e-05
-5.57118e-05
-2.6661e-05
-4.17747e-05
-2.78742e-05
-2.73114e-05
-2.89192e-05
-1.22663e-05
-3.00843e-05
3.22724e-06
-3.09644e-05
1.89787e-05
-3.15064e-05
3.49864e-05
-3.20061e-05
5.10503e-05
-3.21129e-05
6.69378e-05
-3.17627e-05
8.26125e-05
-3.13419e-05
9.78529e-05
-3.04552e-05
0.000112493
-2.92889e-05
0.000126318
-2.7634e-05
0.00013928
-2.59251e-05
0.000150919
-2.32654e-05
0.000161126
-2.03966e-05
0.000169758
-1.7256e-05
0.000176415
-1.33039e-05
0.000180788
-8.73387e-06
0.000182803
-4.02203e-06
0.000182385
8.3624e-07
0.000179307
6.15228e-06
0.000173607
1.14016e-05
0.00016546
1.62862e-05
0.000155027
2.08571e-05
0.000142511
2.50161e-05
0.000128324
2.83595e-05
0.00011271
3.12123e-05
9.60875e-05
3.32287e-05
7.87617e-05
3.4637e-05
6.10971e-05
3.5316e-05
4.33443e-05
3.5494e-05
2.58201e-05
3.50388e-05
8.57562e-06
3.44758e-05
-7.99322e-06
3.31303e-05
-2.38686e-05
3.17407e-05
-3.89357e-05
3.01298e-05
-5.30781e-05
2.82809e-05
-6.62265e-05
2.62918e-05
-7.83949e-05
2.43363e-05
-8.95826e-05
2.23731e-05
-9.9792e-05
2.04139e-05
-0.000109094
1.86071e-05
-0.000117519
1.68523e-05
-0.000125149
1.5262e-05
-0.000132043
1.37898e-05
-0.000138272
1.24521e-05
-0.00014391
1.12762e-05
-0.000148965
1.01194e-05
-0.000153485
9.04049e-06
-0.0001575
8.02623e-06
-0.000161016
7.03163e-06
-0.00016403
6.03091e-06
-0.000166528
4.98996e-06
-0.000168482
3.90167e-06
-0.000169864
2.75775e-06
-0.000170633
1.54957e-06
-0.000170692
1.14205e-07
-0.000169958
-1.46568e-06
-0.000168375
-3.16699e-06
-0.000165941
-4.86947e-06
-0.00016263
-6.62617e-06
-0.000158319
-8.62121e-06
-0.000153088
-1.04637e-05
-0.000146897
-1.23852e-05
-0.0001396
-1.45928e-05
-0.00013131
-1.65775e-05
-0.000122083
-1.84516e-05
-0.00011178
-2.0605e-05
-0.000100538
-2.24795e-05
-8.83646e-05
-2.43487e-05
-7.53022e-05
-2.61187e-05
-6.15159e-05
-2.75667e-05
-4.69575e-05
-2.91093e-05
-3.17573e-05
-3.03954e-05
-1.61267e-05
-3.12484e-05
-5.42939e-08
-3.21463e-05
1.6207e-05
-3.25174e-05
3.26928e-05
-3.2962e-05
4.91439e-05
-3.28957e-05
6.53636e-05
-3.24356e-05
8.13028e-05
-3.18712e-05
9.67846e-05
-3.09562e-05
0.000111551
-2.95289e-05
0.000125493
-2.7881e-05
0.000138403
-2.58145e-05
0.00015018
-2.35452e-05
0.0001606
-2.08329e-05
0.000169504
-1.78028e-05
0.000176783
-1.45538e-05
0.000182319
-1.10646e-05
-7.49845e-06
6.31174e-06
5.05321e-05
-1.01103e-05
4.92458e-05
-2.58737e-05
4.72763e-05
-4.08292e-05
4.48569e-05
-5.48382e-05
4.20195e-05
-6.794e-05
3.92996e-05
-8.00648e-05
3.63714e-05
-9.12677e-05
3.36077e-05
-0.000101539
3.08131e-05
-0.00011088
2.80206e-05
-0.000119338
2.53755e-05
-0.000126935
2.2791e-05
-0.000133688
2.02581e-05
-0.000139635
1.78429e-05
-0.000144787
1.54658e-05
-0.000149199
1.32398e-05
-0.000152881
1.10451e-05
-0.000155859
8.92453e-06
-0.000158148
6.86737e-06
-0.000159751
4.81273e-06
-0.000160686
2.81229e-06
-0.000160937
7.81392e-07
-0.000160509
-1.2794e-06
-0.000159324
-3.55808e-06
-0.000157489
-5.51338e-06
-0.000154834
-7.9597e-06
-0.00015142
-1.02492e-05
-0.000147277
-1.24389e-05
-0.000142304
-1.49785e-05
-0.000136455
-1.75115e-05
-0.000129756
-2.00853e-05
-0.000122052
-2.31186e-05
-0.000113449
-2.5816e-05
-0.00010377
-2.90408e-05
-9.31128e-05
-3.19704e-05
-8.1594e-05
-3.45813e-05
-6.88418e-05
-3.82378e-05
-5.50965e-05
-4.12257e-05
-4.05112e-05
-4.37462e-05
-2.49038e-05
-4.68401e-05
-8.42522e-06
-4.93882e-05
8.93226e-06
-5.2043e-05
2.70109e-05
-5.42049e-05
4.54474e-05
-5.52797e-05
6.42758e-05
-5.64443e-05
8.33299e-05
-5.71186e-05
0.000102194
-5.65428e-05
0.000120812
-5.58169e-05
0.000138974
-5.44335e-05
0.000156268
-5.18464e-05
0.00017259
-4.89063e-05
0.000187551
-4.48275e-05
0.000201044
-4.04346e-05
0.000212873
-3.54534e-05
0.000222656
-2.93101e-05
0.00023035
-2.30644e-05
0.000235842
-1.64533e-05
0.000238969
-9.37051e-06
0.000239735
-2.28437e-06
0.000237954
5.31022e-06
0.000233789
1.25083e-05
0.000227307
1.94458e-05
0.000218616
2.60361e-05
0.000207864
3.22138e-05
0.000195231
3.78386e-05
0.00018085
4.3134e-05
0.000165017
4.74465e-05
0.000147935
5.11942e-05
0.00012994
5.39437e-05
0.00011108
5.65074e-05
9.1805e-05
5.77787e-05
7.23702e-05
5.83306e-05
5.28365e-05
5.84972e-05
3.34005e-05
5.8245e-05
1.44593e-05
5.67656e-05
-4.03618e-06
5.54646e-05
-2.17853e-05
5.32237e-05
-3.889e-05
5.12909e-05
-5.50704e-05
4.85205e-05
-7.03024e-05
4.56771e-05
-8.46363e-05
4.29727e-05
-9.78302e-05
3.95768e-05
-0.000109956
3.6389e-05
-0.000120977
3.3056e-05
-0.000130903
2.97521e-05
-0.000139596
2.60829e-05
-0.000147203
2.28596e-05
-0.000153651
1.93273e-05
-0.000159038
1.61878e-05
-0.000163519
1.34242e-05
-0.000167042
1.05597e-05
-0.00016972
8.02886e-06
-0.000171564
5.50746e-06
-0.000172656
3.20797e-06
-0.000173055
1.26249e-06
-0.000172725
-1.00237e-06
-0.000171735
-3.06501e-06
-0.00017011
-4.82908e-06
-0.000167809
-6.94773e-06
-0.000164766
-9.13571e-06
-0.000161154
-1.08633e-05
-0.000156772
-1.31579e-05
-0.000151676
-1.5314e-05
-0.000145821
-1.76209e-05
-0.000139184
-1.98761e-05
-0.000131762
-2.22568e-05
-0.000123515
-2.47355e-05
-0.000114437
-2.72449e-05
-0.000104488
-2.98585e-05
-9.3666e-05
-3.24743e-05
-8.19755e-05
-3.50572e-05
-6.93985e-05
-3.77113e-05
-5.60059e-05
-4.01932e-05
-4.18066e-05
-4.2697e-05
-2.6836e-05
-4.47693e-05
-1.11853e-05
-4.69521e-05
5.09399e-06
-4.87627e-05
2.18813e-05
-5.03532e-05
3.91154e-05
-5.16926e-05
5.66009e-05
-5.24072e-05
7.42243e-05
-5.28498e-05
9.17965e-05
-5.26751e-05
0.00010913
-5.19487e-05
0.000125994
-5.05198e-05
0.000142141
-4.83874e-05
0.000157303
-4.54321e-05
0.000171252
-4.18073e-05
0.000183698
-3.7298e-05
0.000194416
-3.21281e-05
0.000203176
-2.62642e-05
0.000209757
-1.97008e-05
0.000214028
-1.28187e-05
0.000215872
-5.54238e-06
0.00021519
2.03788e-06
0.000211982
9.56722e-06
0.000206304
1.70983e-05
0.000198199
2.41889e-05
0.00018792
3.0824e-05
0.000175534
3.70726e-05
0.00016137
4.2453e-05
0.000145529
4.74304e-05
0.000128447
5.12436e-05
0.000110227
5.45766e-05
9.13077e-05
5.67069e-05
7.18859e-05
5.81825e-05
5.22858e-05
5.87886e-05
3.26606e-05
5.88108e-05
1.33805e-05
5.77963e-05
-5.3959e-06
5.62984e-05
-2.3477e-05
5.41846e-05
-4.07311e-05
5.17102e-05
-5.70692e-05
4.90291e-05
-7.23508e-05
4.58435e-05
-8.65515e-05
4.26771e-05
-9.97256e-05
3.94849e-05
-0.000111777
3.60854e-05
-0.000122751
3.29861e-05
-0.00013266
2.97271e-05
-0.000141577
2.67169e-05
-0.000149561
2.40351e-05
-0.000156618
2.1179e-05
-0.000162809
1.85542e-05
-0.00016813
1.5952e-05
-0.000172702
1.37804e-05
-0.000176567
1.15631e-05
-0.000179639
9.23028e-06
-0.000182057
7.18315e-06
-0.000183784
5.26028e-06
-0.000184837
3.13999e-06
-0.000185257
1.19382e-06
-0.000185018
-5.99925e-07
-0.00018412
-2.70382e-06
-0.0001826
-4.635e-06
-0.000180432
-6.39561e-06
-0.000177633
-8.40928e-06
-0.000174159
-1.04051e-05
-0.000170048
-1.23809e-05
-0.00016525
-1.43772e-05
-0.000159743
-1.65124e-05
-0.000153482
-1.86679e-05
-0.000146632
-2.0692e-05
-0.000138994
-2.28878e-05
-0.000130578
-2.52634e-05
-0.000121363
-2.7649e-05
-0.000111352
-3.00067e-05
-0.000100523
-3.24899e-05
-8.88879e-05
-3.49197e-05
-7.64385e-05
-3.74146e-05
-6.32183e-05
-3.95215e-05
-4.92361e-05
-4.19441e-05
-3.45089e-05
-4.41818e-05
-1.90458e-05
-4.63857e-05
-2.9156e-06
-4.83516e-05
1.38103e-05
-5.0148e-05
3.09347e-05
-5.13405e-05
4.82341e-05
-5.18364e-05
6.54809e-05
-5.17006e-05
8.24253e-05
-5.07855e-05
9.88184e-05
-4.91367e-05
0.000114428
-4.67572e-05
0.000129033
-4.37902e-05
0.000142427
-4.01389e-05
0.000154398
-3.59036e-05
0.00016475
-3.1041e-05
0.000173245
-2.54359e-05
0.000179725
-1.94128e-05
0.000183977
-1.2738e-05
0.000185916
-5.78931e-06
0.00018547
1.36655e-06
0.000182501
8.83883e-06
0.000177139
1.60685e-05
0.000169405
2.31693e-05
0.000159488
2.96918e-05
0.000147555
3.57244e-05
0.000133868
4.09935e-05
0.00011868
4.55521e-05
0.000102282
4.9137e-05
8.49783e-05
5.18191e-05
6.70633e-05
5.36934e-05
4.88163e-05
5.47139e-05
3.0481e-05
5.4938e-05
1.22782e-05
5.45411e-05
-5.57243e-06
5.35631e-05
-2.28974e-05
5.19409e-05
-3.95351e-05
4.99201e-05
-5.53827e-05
4.75852e-05
-7.04061e-05
4.50051e-05
-8.4477e-05
4.21999e-05
-9.75787e-05
3.92917e-05
-0.000109676
3.62921e-05
-0.000120811
3.34052e-05
-0.000131003
3.0578e-05
-0.000140306
2.79253e-05
-0.00014873
2.52437e-05
-0.000156327
2.28423e-05
-0.000163132
2.04059e-05
-0.000169152
1.80608e-05
-0.000174437
1.58521e-05
-0.00017895
1.35388e-05
-0.000182736
1.13668e-05
-0.00018578
9.14039e-06
-0.000188111
6.98375e-06
-0.000189728
4.87272e-06
-0.000190672
2.83747e-06
-0.000191003
9.36749e-07
-0.000190797
-5.44048e-07
-0.00019008
-2.14478e-06
-0.00018886
-3.64331e-06
-0.000187287
-4.76042e-06
-0.000185165
-6.37214e-06
-0.000182474
-8.06823e-06
-0.000179165
-9.97762e-06
-0.000175168
-1.1951e-05
-0.000170462
-1.41274e-05
-0.000164982
-1.64513e-05
-0.00015873
-1.88332e-05
-0.000151705
-2.09925e-05
-0.000143925
-2.33226e-05
-0.000135394
-2.5561e-05
-0.000126065
-2.78547e-05
-0.000116126
-2.9912e-05
-0.000105389
-3.20906e-05
-9.39757e-05
-3.42748e-05
-8.19197e-05
-3.61714e-05
-6.91824e-05
-3.81199e-05
-5.58292e-05
-4.00142e-05
-4.18768e-05
-4.18266e-05
-2.73885e-05
-4.34074e-05
-1.23408e-05
-4.51321e-05
3.17389e-06
-4.64791e-05
1.89374e-05
-4.72699e-05
3.49578e-05
-4.80266e-05
5.10416e-05
-4.81968e-05
6.69546e-05
-4.76759e-05
8.26336e-05
-4.70209e-05
9.79078e-05
-4.57295e-05
0.000112546
-4.39275e-05
0.000126401
-4.14883e-05
0.000139353
-3.8878e-05
0.000151018
-3.49302e-05
0.000161247
-3.06259e-05
0.000169901
-2.59096e-05
0.000176568
-1.9971e-05
0.000180961
-1.31275e-05
0.000183002
-6.06244e-06
0.000182581
1.25703e-06
0.000179495
9.23792e-06
0.000173802
1.70944e-05
0.000165638
2.44502e-05
0.000155187
3.13081e-05
0.000142646
3.75577e-05
0.000128435
4.25704e-05
0.000112791
4.68561e-05
9.61417e-05
4.9878e-05
7.87918e-05
5.19869e-05
6.11062e-05
5.30017e-05
4.33378e-05
5.32623e-05
2.57943e-05
5.25824e-05
8.53142e-06
5.17387e-05
-8.05051e-06
4.97122e-05
-2.39405e-05
4.76307e-05
-3.90131e-05
4.52024e-05
-5.31591e-05
4.24268e-05
-6.63123e-05
3.9445e-05
-7.84799e-05
3.65039e-05
-8.96673e-05
3.35605e-05
-9.98796e-05
3.06262e-05
-0.000109172
2.78995e-05
-0.000117591
2.52711e-05
-0.000125218
2.28892e-05
-0.000132109
2.06808e-05
-0.000138331
1.86744e-05
-0.00014397
1.69146e-05
-0.000149025
1.51743e-05
-0.000153545
1.35607e-05
-0.000157556
1.20378e-05
-0.000161073
1.05478e-05
-0.000164094
9.05217e-06
-0.000166596
7.49224e-06
-0.000168551
5.85706e-06
-0.00016994
4.14662e-06
-0.000170709
2.31823e-06
-0.000170762
1.6682e-07
-0.00017002
-2.20712e-06
-0.000168441
-4.74657e-06
-0.00016601
-7.30049e-06
-0.000162702
-9.93408e-06
-0.000158395
-1.29283e-05
-0.000153166
-1.56926e-05
-0.000146974
-1.85769e-05
-0.000139677
-2.18901e-05
-0.000131388
-2.48666e-05
-0.000122159
-2.76801e-05
-0.000111854
-3.09102e-05
-0.000100606
-3.37275e-05
-8.84264e-05
-3.65283e-05
-7.5357e-05
-3.91881e-05
-6.15734e-05
-4.13503e-05
-4.70049e-05
-4.36778e-05
-3.17944e-05
-4.56059e-05
-1.6157e-05
-4.68857e-05
-6.65476e-08
-4.82368e-05
1.62115e-05
-4.87954e-05
3.27071e-05
-4.94577e-05
4.9168e-05
-4.93566e-05
6.53985e-05
-4.86662e-05
8.13485e-05
-4.78212e-05
9.68378e-05
-4.64455e-05
0.000111614
-4.43056e-05
0.000125565
-4.18312e-05
0.00013848
-3.873e-05
0.000150262
-3.53272e-05
0.000160691
-3.12622e-05
0.000169608
-2.67195e-05
0.000176902
-2.18478e-05
0.000182454
-1.66167e-05
-1.1259e-05
6.22737e-06
6.73892e-05
-1.02074e-05
6.56806e-05
-2.59794e-05
6.30483e-05
-4.09406e-05
5.98181e-05
-5.49537e-05
5.60325e-05
-6.80584e-05
5.24044e-05
-8.01861e-05
4.8499e-05
-9.13898e-05
4.48114e-05
-0.000101661
4.10846e-05
-0.000111001
3.73608e-05
-0.000119455
3.38295e-05
-0.000127052
3.03877e-05
-0.000133805
2.70105e-05
-0.000139751
2.37889e-05
-0.000144903
2.06183e-05
-0.000149316
1.76521e-05
-0.000152995
1.47247e-05
-0.000155974
1.19037e-05
-0.000158267
9.15998e-06
-0.000159871
6.41713e-06
-0.000160803
3.74344e-06
-0.00016103
1.00897e-06
-0.000160591
-1.7189e-06
-0.000159408
-4.74113e-06
-0.000157579
-7.34222e-06
-0.00015492
-1.06183e-05
-0.000151511
-1.36582e-05
-0.000147374
-1.65761e-05
-0.000142416
-1.99361e-05
-0.000136567
-2.33614e-05
-0.00012986
-2.67914e-05
-0.000122159
-3.08201e-05
-0.000113562
-3.44131e-05
-0.000103883
-3.872e-05
-9.32277e-05
-4.26254e-05
-8.16921e-05
-4.61169e-05
-6.89629e-05
-5.0967e-05
-5.52103e-05
-5.49783e-05
-4.06192e-05
-5.83373e-05
-2.50125e-05
-6.24468e-05
-8.51729e-06
-6.58835e-05
8.85983e-06
-6.94202e-05
2.69554e-05
-7.23005e-05
4.54094e-05
-7.37338e-05
6.42557e-05
-7.52906e-05
8.33339e-05
-7.61968e-05
0.00010223
-7.54394e-05
0.00012087
-7.44568e-05
0.000139066
-7.26289e-05
0.000156374
-6.91544e-05
0.000172728
-6.52606e-05
0.000187716
-5.98157e-05
0.000201238
-5.39562e-05
0.000213085
-4.73006e-05
0.000222891
-3.91161e-05
0.000230593
-3.07668e-05
0.000236096
-2.19561e-05
0.000239222
-1.24969e-05
0.00023999
-3.05151e-06
0.000238204
7.09598e-06
0.000234051
1.66609e-05
0.000227567
2.59296e-05
0.000218854
3.47497e-05
0.000208077
4.29902e-05
0.00019541
5.05063e-05
0.000181024
5.75194e-05
0.000165161
6.33101e-05
0.000148045
6.83094e-05
0.000129996
7.19932e-05
0.000111128
7.53756e-05
9.18284e-05
7.70779e-05
7.23741e-05
7.77849e-05
5.27771e-05
7.80941e-05
3.33448e-05
7.76774e-05
1.43776e-05
7.57328e-05
-4.12917e-06
7.39714e-05
-2.1895e-05
7.09895e-05
-3.9013e-05
6.84088e-05
-5.52039e-05
6.47114e-05
-7.04504e-05
6.09235e-05
-8.47956e-05
5.73179e-05
-9.79933e-05
5.27744e-05
-0.000110119
4.85144e-05
-0.000121147
4.40836e-05
-0.000131085
3.969e-05
-0.000139786
3.47842e-05
-0.000147355
3.04277e-05
-0.000153836
2.5808e-05
-0.000159233
2.15852e-05
-0.000163718
1.79083e-05
-0.000167248
1.40898e-05
-0.000169935
1.07153e-05
-0.000171788
7.36068e-06
-0.000172908
4.32708e-06
-0.00017329
1.64436e-06
-0.000172971
-1.32173e-06
-0.000172009
-4.02653e-06
-0.000170368
-6.47128e-06
-0.000168075
-9.24025e-06
-0.000165103
-1.21081e-05
-0.000161444
-1.45229e-05