/*--------------------------------*- C++ -*----------------------------------*\
| =========                 |                                                 |
| \\      /  F ield         | OpenFOAM: The Open Source CFD Toolbox           |
|  \\    /   O peration     | Version:  3.0.1                                 |
|   \\  /    A nd           | Web:      www.OpenFOAM.org                      |
|    \\/     M anipulation  |                                                 |
\*---------------------------------------------------------------------------*/
FoamFile
{
    version     2.0;
    format      ascii;
    class       volScalarField;
    location    "61.6";
    object      p_rgh;
}
// * * * * * * * * * * * * * * * * * * * * * * * * * * * * * * * * * * * * * //

dimensions      [1 -1 -2 0 0 0 0];

internalField   nonuniform List<scalar> 
21420
(
-363.357
-359.634
-354.467
-347.834
-339.706
-330.017
-318.724
-305.765
-291.087
-274.663
-256.451
-236.412
-214.537
-190.825
-165.295
-138.002
-109.033
-78.5086
-47.0087
-14.0243
19.9167
54.4491
89.2295
123.928
158.13
191.432
223.384
253.537
281.499
306.864
329.244
348.328
363.833
375.524
383.222
386.755
385.66
380.371
371.022
357.682
340.581
319.98
296.164
269.47
240.315
209.102
176.239
142.186
107.367
72.1917
37.0434
2.2576
-31.7655
-63.2214
-94.5654
-124.611
-153.117
-179.926
-204.954
-228.141
-249.46
-268.909
-286.5
-302.261
-316.229
-328.438
-338.931
-347.746
-354.913
-360.46
-364.404
-366.766
-367.532
-366.717
-364.404
-360.541
-355.12
-348.136
-339.565
-329.401
-317.653
-304.305
-289.341
-272.769
-254.598
-234.822
-213.454
-190.522
-166.047
-140.062
-112.63
-83.8339
-53.7809
-22.5746
9.51902
42.3068
75.5261
108.876
142.023
174.608
206.255
236.573
265.171
291.66
315.666
336.836
354.846
369.404
380.262
387.219
390.069
388.83
383.416
373.903
360.365
343
322.05
297.818
270.66
240.975
209.199
175.786
141.204
105.917
70.3765
35.0098
0.212316
-33.6678
-66.3262
-97.507
-127.005
-154.662
-180.368
-204.055
-225.686
-245.263
-262.81
-278.374
-292.018
-303.816
-313.847
-322.198
-328.956
-334.203
-338.01
-340.46
-341.594
-341.431
-340.046
-337.44
-333.615
-328.563
-322.273
-314.724
-305.883
-295.71
-284.157
-271.17
-256.694
-240.678
-223.07
-203.833
-182.944
-160.396
-136.209
-110.424
-83.1201
-54.4019
-24.4172
6.64057
39.0863
71.6885
104.683
137.724
170.438
202.431
233.287
262.577
289.864
314.716
336.722
355.501
370.71
382.059
389.321
392.297
390.983
385.318
375.419
361.403
343.53
322.107
297.507
270.151
240.489
208.992
176.139
142.4
108.226
74.0427
40.2392
7.16234
-24.8837
-55.6421
-84.9052
-112.519
-138.377
-162.413
-184.604
-204.951
-223.48
-240.237
-255.273
-268.656
-280.454
-290.732
-299.552
-306.975
-313.051
-317.819
-321.32
-323.589
-324.624
-324.419
-323.019
-320.385
-316.494
-311.326
-304.854
-297.045
-287.87
-277.297
-265.292
-251.825
-236.869
-220.392
-202.367
-182.782
-161.629
-138.916
-114.677
-88.9663
-61.8685
-33.4985
-4.00441
26.4328
57.6009
89.2579
121.093
152.802
184.045
214.452
243.631
271.173
296.661
319.68
339.833
356.747
370.09
379.587
385.025
386.212
383.179
375.935
364.541
349.217
330.235
307.924
282.67
254.908
225.101
193.727
161.258
128.14
94.807
62.7578
30.3727
-1.13708
-31.4884
-60.4905
-87.9859
-113.876
-138.087
-160.585
-181.37
-200.443
-217.813
-233.507
-247.557
-260.005
-270.905
-280.317
-288.314
-294.965
-300.341
-304.514
-307.55
-309.495
-310.379
-310.242
-309.133
-306.981
-303.756
-299.403
-293.836
-286.955
-278.654
-268.805
-257.298
-244.022
-228.874
-211.789
-192.719
-171.64
-148.589
-123.638
-96.8926
-68.5191
-38.7102
-7.71847
23.7043
55.9712
88.4768
120.783
152.512
183.244
212.582
240.187
265.687
288.738
309.063
326.397
340.52
351.273
358.546
362.238
362.287
358.792
351.885
341.659
328.332
312.136
293.306
272.124
248.861
223.794
197.225
169.441
140.731
111.41
81.78
52.2697
24.1981
-2.3164
-29.5614
-56.2331
-81.9422
-363.412
-359.691
-354.525
-347.894
-339.769
-330.082
-318.792
-305.835
-291.16
-274.739
-256.529
-236.492
-214.619
-190.908
-165.378
-138.085
-109.113
-78.5846
-47.0746
-14.0828
19.8679
54.4119
89.2058
123.92
158.139
191.459
223.43
253.602
281.583
306.966
329.363
348.461
363.978
375.678
383.384
386.932
385.82
380.526
371.172
357.823
340.709
320.092
296.26
269.547
240.373
209.14
176.259
142.188
107.353
72.1619
37.0009
2.20457
-31.8258
-63.2955
-94.644
-124.693
-153.201
-180.012
-205.04
-228.226
-249.543
-268.99
-286.578
-302.337
-316.303
-328.509
-339
-347.813
-354.979
-360.525
-364.468
-366.83
-367.593
-366.78
-364.468
-360.605
-355.185
-348.202
-339.631
-329.468
-317.721
-304.374
-289.412
-272.841
-254.671
-234.896
-213.529
-190.598
-166.123
-140.138
-112.705
-83.906
-53.8487
-22.6381
9.46336
42.2607
75.4912
108.853
142.015
174.616
206.279
236.614
265.23
291.736
315.758
336.945
354.968
369.539
380.406
387.37
390.23
388.982
383.567
374.048
360.501
343.123
322.157
297.907
270.729
241.024
209.228
175.795
141.193
105.888
70.3316
34.9505
0.140868
-33.7492
-66.4155
-97.6021
-127.104
-154.763
-180.47
-204.156
-225.785
-245.36
-262.904
-278.464
-292.104
-303.897
-313.925
-322.271
-329.026
-334.269
-338.074
-340.522
-341.652
-341.488
-340.103
-337.497
-333.672
-328.62
-322.331
-314.784
-305.945
-295.774
-284.224
-271.24
-256.766
-240.753
-223.147
-203.912
-183.024
-160.477
-136.29
-110.504
-83.1972
-54.4749
-24.4839
6.57802
39.0344
71.6443
104.652
137.707
170.438
202.448
233.322
262.631
289.938
314.809
336.833
355.628
370.851
382.211
389.481
392.466
391.143
385.476
375.569
361.541
343.653
322.212
297.592
270.215
240.532
209.014
176.142
142.384
108.194
73.9957
40.1795
7.09214
-24.9623
-55.7269
-84.9943
-112.61
-138.469
-162.505
-184.694
-205.038
-223.565
-240.317
-255.35
-268.73
-280.524
-290.799
-299.617
-307.037
-313.111
-317.878
-321.377
-323.645
-324.678
-324.475
-323.076
-320.442
-316.552
-311.385
-304.914
-297.107
-287.933
-277.362
-265.358
-251.893
-236.939
-220.463
-202.44
-182.857
-161.704
-138.992
-114.752
-89.0398
-61.9392
-33.565
-4.06543
26.3785
57.556
89.2233
121.07
152.793
184.051
214.475
243.672
271.232
296.738
319.776
339.946
356.876
370.233
379.74
385.189
386.373
383.337
376.088
364.686
349.349
330.351
308.021
282.747
254.965
225.138
193.744
161.258
128.124
94.7803
62.7088
30.3165
-1.19984
-31.5566
-60.5624
-88.0602
-113.951
-138.163
-160.66
-181.444
-200.515
-217.883
-233.575
-247.622
-260.068
-270.965
-280.374
-288.368
-295.016
-300.389
-304.56
-307.593
-309.536
-310.419
-310.283
-309.173
-307.023
-303.8
-299.451
-293.888
-287.012
-278.716
-268.872
-257.37
-244.099
-228.955
-211.873
-192.805
-171.727
-148.675
-123.722
-96.9727
-68.5934
-38.7769
-7.77576
23.6612
55.9406
88.4603
120.782
152.527
183.276
212.631
240.252
265.768
288.834
309.172
326.517
340.649
351.408
358.683
362.381
362.425
358.926
352.011
341.776
328.439
312.23
293.388
272.193
248.916
223.836
197.256
169.459
140.737
111.405
81.7646
52.2442
24.1648
-2.36322
-29.6162
-56.2944
-82.009
-363.524
-359.805
-354.642
-348.016
-339.894
-330.212
-318.928
-305.976
-291.307
-274.891
-256.686
-236.653
-214.783
-191.075
-165.545
-138.25
-109.273
-78.7362
-47.2068
-14.1997
19.7701
54.3376
89.1584
123.903
158.156
191.512
223.522
253.732
281.751
307.17
329.6
348.727
364.268
375.987
383.706
387.287
386.138
380.84
371.472
358.105
340.965
320.317
296.451
269.701
240.489
209.218
176.3
142.192
107.324
72.1025
36.9157
2.09848
-31.9463
-63.4437
-94.8012
-124.857
-153.37
-180.183
-205.212
-228.395
-249.709
-269.152
-286.735
-302.488
-316.449
-328.65
-339.137
-347.946
-355.109
-360.652
-364.593
-366.953
-367.713
-366.905
-364.592
-360.729
-355.31
-348.328
-339.758
-329.598
-317.854
-304.508
-289.547
-272.979
-254.811
-235.036
-213.672
-190.742
-166.267
-140.28
-112.845
-84.0408
-53.9746
-22.7552
9.36248
42.1791
75.432
108.82
142.01
174.642
206.338
236.708
265.358
291.899
315.955
337.173
355.225
369.82
380.707
387.685
390.567
389.298
383.883
374.351
360.785
343.381
322.384
298.099
270.883
241.138
209.3
175.828
141.188
105.847
70.2584
34.8489
0.015304
-33.8945
-66.5761
-97.7739
-127.283
-154.946
-180.654
-204.338
-225.964
-245.533
-263.071
-278.624
-292.256
-304.042
-314.061
-322.4
-329.147
-334.384
-338.184
-340.627
-341.751
-341.588
-340.202
-337.595
-333.769
-328.719
-322.433
-314.889
-306.053
-295.887
-284.342
-271.363
-256.896
-240.889
-223.287
-204.057
-183.172
-160.627
-136.439
-110.651
-83.3387
-54.6083
-24.6048
6.46708
38.9407
71.5678
104.602
137.687
170.449
202.493
233.405
262.752
290.098
315.007
337.067
355.894
371.144
382.527
389.812
392.816
391.473
385.803
375.88
361.829
343.91
322.434
297.775
270.356
240.631
209.073
176.161
142.367
108.143
73.9161
40.075
6.96684
-25.1042
-55.8811
-85.1567
-112.777
-138.637
-162.671
-184.857
-205.197
-223.717
-240.463
-255.489
-268.862
-280.649
-290.918
-299.73
-307.146
-313.215
-317.979
-321.477
-323.743
-324.772
-324.572
-323.174
-320.541
-316.653
-311.49
-305.022
-297.217
-288.047
-277.479
-265.479
-252.018
-237.067
-220.595
-202.575
-182.995
-161.844
-139.133
-114.891
-89.1755
-62.0693
-33.6867
-4.17643
26.2809
57.4769
89.1648
121.036
152.785
184.074
214.531
243.763
271.36
296.904
319.979
340.184
357.145
370.529
380.055
385.519
386.71
383.664
376.404
364.983
349.62
330.589
308.223
282.91
255.086
225.218
193.786
161.263
128.099
94.732
62.6153
30.2084
-1.32151
-31.6893
-60.7029
-88.2059
-114.099
-138.312
-160.808
-181.59
-200.658
-218.022
-233.71
-247.752
-260.193
-271.084
-280.486
-288.474
-295.116
-300.484
-304.65
-307.678
-309.618
-310.497
-310.364
-309.254
-307.108
-303.889
-299.547
-293.992
-287.125
-278.839
-269.006
-257.514
-244.252
-229.116
-212.04
-192.977
-171.901
-148.848
-123.89
-97.1326
-68.7417
-38.9102
-7.8898
23.575
55.8795
88.4275
120.78
152.557
183.339
212.728
240.382
265.93
289.025
309.389
326.757
340.907
351.678
358.958
362.663
362.703
359.195
352.265
342.011
328.651
312.419
293.552
272.331
249.028
223.922
197.316
169.494
140.749
111.395
81.7336
52.1933
24.0979
-2.45677
-29.7257
-56.4171
-82.1427
-363.691
-359.975
-354.818
-348.197
-340.082
-330.408
-319.132
-306.188
-291.526
-275.119
-256.921
-236.895
-215.03
-191.325
-165.796
-138.497
-109.514
-78.9645
-47.4048
-14.3754
19.6233
54.2259
89.087
123.878
158.181
191.593
223.659
253.928
282.003
307.476
329.955
349.126
364.703
376.45
384.188
387.801
386.626
381.314
371.924
358.528
341.348
320.655
296.737
269.933
240.663
209.335
176.36
142.199
107.28
72.013
36.7875
1.93901
-32.1273
-63.6661
-95.0371
-125.104
-153.624
-180.441
-205.469
-228.65
-249.958
-269.395
-286.97
-302.715
-316.668
-328.862
-339.342
-348.146
-355.303
-360.843
-364.781
-367.138
-367.895
-367.093
-364.778
-360.915
-355.498
-348.518
-339.95
-329.792
-318.052
-304.708
-289.749
-273.186
-255.02
-235.247
-213.886
-190.958
-166.482
-140.494
-113.054
-84.2421
-54.1625
-22.9293
9.21286
42.0584
75.3451
108.772
142.004
174.684
206.43
236.851
265.554
292.146
316.253
337.518
355.613
370.245
381.161
388.159
391.068
389.78
384.362
374.81
361.215
343.773
322.729
298.39
271.116
241.311
209.413
175.88
141.183
105.789
70.1513
34.6992
-0.170345
-34.1096
-66.8144
-98.029
-127.549
-155.218
-180.928
-204.609
-226.23
-245.791
-263.319
-278.862
-292.482
-304.256
-314.264
-322.591
-329.327
-334.554
-338.346
-340.782
-341.897
-341.735
-340.347
-337.739
-333.914
-328.866
-322.583
-315.043
-306.214
-296.055
-284.517
-271.547
-257.089
-241.089
-223.496
-204.272
-183.391
-160.849
-136.66
-110.869
-83.5488
-54.8063
-24.7839
6.31462
38.7905
71.4551
104.53
137.658
170.467
202.564
233.531
262.935
290.339
315.306
337.42
356.296
371.588
383.003
390.31
393.339
391.976
386.299
376.35
362.265
344.3
322.77
298.052
270.57
240.782
209.163
176.192
142.343
108.07
73.7989
39.9204
6.78102
-25.3149
-56.1102
-85.3982
-113.025
-138.887
-162.919
-185.1
-205.432
-223.944
-240.679
-255.695
-269.057
-280.834
-291.094
-299.898
-307.307
-313.37
-318.129
-321.624
-323.888
-324.912
-324.717
-323.319
-320.688
-316.804
-311.645
-305.181
-297.381
-288.216
-277.652
-265.658
-252.203
-237.257
-220.79
-202.776
-183.2
-162.052
-139.341
-115.098
-89.3774
-62.2626
-33.8674
-4.34108
26.1368
57.3597
89.0789
120.986
152.776
184.11
214.617
243.902
271.555
297.155
320.285
340.543
357.551
370.974
380.531
386.009
387.221
384.158
376.881
365.431
350.028
330.948
308.527
283.154
255.269
225.34
193.848
161.271
128.06
94.6587
62.476
30.0462
-1.50409
-31.8886
-60.9137
-88.4245
-114.321
-138.535
-161.03
-181.809
-200.872
-218.231
-233.913
-247.947
-260.379
-271.262
-280.655
-288.634
-295.267
-300.627
-304.785
-307.806
-309.74
-310.616
-310.485
-309.376
-307.234
-304.022
-299.69
-294.148
-287.295
-279.024
-269.206
-257.729
-244.482
-229.358
-212.292
-193.235
-172.161
-149.106
-124.142
-97.3726
-68.9644
-39.1103
-8.06141
23.4456
55.7877
88.3781
120.776
152.602
183.435
212.873
240.577
266.172
289.311
309.715
327.117
341.293
352.084
359.372
363.078
363.126
359.601
352.646
342.363
328.971
312.703
293.799
272.538
249.195
224.05
197.406
169.548
140.768
111.38
81.6869
52.1168
23.9975
-2.59712
-29.8901
-56.6011
-82.3435
-363.914
-360.203
-355.052
-348.44
-340.333
-330.67
-319.404
-306.47
-291.819
-275.422
-257.235
-237.217
-215.359
-191.659
-166.13
-138.828
-109.835
-79.2709
-47.6682
-14.6098
19.4272
54.0765
88.9916
123.844
158.215
191.7
223.843
254.188
282.339
307.885
330.43
349.658
365.284
377.068
384.831
388.457
387.286
381.952
372.528
359.092
341.86
321.106
297.119
270.241
240.895
209.49
176.44
142.207
107.221
71.8934
36.616
1.72576
-32.3692
-63.9625
-95.3518
-125.434
-153.962
-180.784
-205.812
-228.989
-250.291
-269.718
-287.284
-303.018
-316.96
-329.144
-339.615
-348.412
-355.563
-361.098
-365.032
-367.383
-368.141
-367.342
-365.025
-361.164
-355.749
-348.771
-340.206
-330.052
-318.316
-304.976
-290.019
-273.461
-255.299
-235.528
-214.171
-191.245
-166.769
-140.778
-113.333
-84.5106
-54.4137
-23.1611
9.01387
41.8978
75.2295
108.708
141.998
174.741
206.553
237.043
265.815
292.477
316.652
337.98
356.132
370.813
381.768
388.793
391.724
390.434
385.005
375.424
361.79
344.295
323.189
298.779
271.428
241.543
209.563
175.95
141.176
105.711
70.0087
34.4998
-0.417682
-34.3963
-67.1318
-98.369
-127.904
-155.581
-181.292
-204.971
-226.584
-246.134
-263.65
-279.178
-292.783
-304.541
-314.533
-322.845
-329.566
-334.78
-338.561
-340.987
-342.093
-341.93
-340.539
-337.93
-334.105
-329.06
-322.783
-315.249
-306.427
-296.277
-284.75
-271.791
-257.345
-241.356
-223.773
-204.558
-183.684
-161.144
-136.955
-111.159
-83.8289
-55.0698
-25.0223
6.13015
38.5719
71.3051
104.434
137.619
170.493
202.658
233.699
263.181
290.661
315.705
337.892
356.833
372.18
383.639
390.976
394.024
392.658
386.965
376.98
362.846
344.82
323.218
298.421
270.857
240.985
209.283
176.234
142.312
107.973
73.6428
39.7144
6.53324
-25.5958
-56.4156
-85.7202
-113.356
-139.22
-163.25
-185.423
-205.746
-224.245
-240.967
-255.969
-269.317
-281.081
-291.328
-300.122
-307.521
-313.576
-318.329
-321.819
-324.079
-325.1
-324.909
-323.512
-320.884
-317.005
-311.851
-305.392
-297.599
-288.441
-277.883
-265.895
-252.448
-237.51
-221.05
-203.044
-183.473
-162.328
-139.619
-115.373
-89.6462
-62.5199
-34.1083
-4.56036
25.945
57.2033
88.9647
120.919
152.763
184.158
214.731
244.087
271.814
297.49
320.694
341.022
358.094
371.569
381.166
386.667
387.897
384.823
377.518
366.03
350.573
331.427
308.932
283.48
255.512
225.501
193.931
161.282
128.008
94.5589
62.2913
29.8298
-1.74791
-32.1548
-61.1953
-88.7163
-114.618
-138.833
-161.326
-182.101
-201.158
-218.509
-234.182
-248.207
-260.629
-271.499
-280.881
-288.848
-295.469
-300.817
-304.965
-307.976
-309.901
-310.776
-310.645
-309.537
-307.401
-304.2
-299.881
-294.355
-287.521
-279.27
-269.473
-258.017
-244.788
-229.68
-212.627
-193.578
-172.508
-149.452
-124.479
-97.693
-69.2617
-39.3775
-8.29137
23.273
55.665
88.312
120.771
152.663
183.562
213.067
240.836
266.496
289.694
310.15
327.597
341.809
352.625
359.925
363.631
363.689
360.143
353.154
342.833
329.396
313.082
294.127
272.814
249.417
224.22
197.527
169.62
140.792
111.36
81.6246
52.0144
23.8631
-2.78437
-30.1095
-56.8467
-82.6114
-364.192
-360.488
-355.345
-348.742
-340.647
-330.996
-319.744
-306.822
-292.185
-275.802
-257.627
-237.62
-215.771
-192.076
-166.549
-139.241
-110.238
-79.6559
-47.9972
-14.9033
19.1815
53.8891
88.8716
123.8
158.256
191.833
224.072
254.513
282.759
308.395
331.023
350.324
366.01
377.841
385.635
389.268
388.109
382.752
373.285
359.798
342.501
321.669
297.596
270.626
241.186
209.684
176.54
142.217
107.146
71.7431
36.4006
1.45822
-32.6725
-64.3329
-95.7457
-125.846
-154.386
-181.213
-206.241
-229.414
-250.706
-270.123
-287.675
-303.397
-317.326
-329.497
-339.957
-348.744
-355.888
-361.416
-365.344
-367.69
-368.449
-367.652
-365.335
-361.475
-356.063
-349.088
-340.525
-330.377
-318.647
-305.31
-290.357
-273.806
-255.647
-235.88
-214.527
-191.604
-167.127
-141.135
-113.683
-84.8468
-54.7292
-23.4505
8.76498
41.6967
75.0846
108.628
141.99
174.811
206.707
237.283
266.143
292.891
317.15
338.557
356.781
371.524
382.529
389.587
392.537
391.259
385.81
376.193
362.509
344.949
323.765
299.266
271.819
241.833
209.751
176.038
141.168
105.613
69.83
34.2498
-0.727508
-34.7554
-67.5294
-98.7946
-128.347
-156.035
-181.748
-205.422
-227.027
-246.564
-264.064
-279.574
-293.159
-304.897
-314.869
-323.162
-329.865
-335.063
-338.829
-341.243
-342.34
-342.173
-340.779
-338.169
-334.345
-329.304
-323.032
-315.505
-306.693
-296.555
-285.041
-272.096
-257.665
-241.69
-224.12
-204.916
-184.049
-161.513
-137.323
-111.521
-84.1792
-55.3998
-25.3215
5.88814
38.309
71.1181
104.314
137.571
170.524
202.776
233.909
263.487
291.065
316.204
338.482
357.505
372.922
384.436
391.81
394.875
393.516
387.798
377.768
363.575
345.471
323.779
298.883
271.215
241.238
209.433
176.286
142.272
107.85
73.4469
39.4563
6.22273
-25.9477
-56.7982
-86.1233
-113.77
-139.637
-163.664
-185.828
-206.139
-224.623
-241.327
-256.311
-269.642
-281.389
-291.621
-300.401
-307.789
-313.833
-318.579
-322.063
-324.316
-325.337
-325.149
-323.753
-321.129
-317.256
-312.109
-305.657
-297.871
-288.721
-278.172
-266.193
-252.756
-237.826
-221.376
-203.378
-183.814
-162.674
-139.966
-115.717
-89.9826
-62.8419
-34.4099
-4.83501
25.7052
57.0068
88.8216
120.835
152.748
184.218
214.874
244.319
272.139
297.908
321.206
341.622
358.772
372.314
381.961
387.491
388.738
385.657
378.316
366.779
351.255
332.027
309.439
283.887
255.816
225.702
194.034
161.294
127.942
94.4309
62.0619
29.5593
-2.05326
-32.4882
-61.5476
-89.0817
-114.989
-139.206
-161.697
-182.466
-201.515
-218.857
-234.52
-248.532
-260.94
-271.796
-281.162
-289.114
-295.72
-301.054
-305.19
-308.189
-310.104
-310.976
-310.845
-309.739
-307.61
-304.421
-300.12
-294.615
-287.804
-279.578
-269.808
-258.376
-245.172
-230.084
-213.046
-194.008
-172.943
-149.884
-124.9
-98.0941
-69.634
-39.7123
-8.58023
23.0569
55.5112
88.2289
120.765
152.737
183.721
213.309
241.161
266.901
290.172
310.694
328.197
342.454
353.302
360.619
364.327
364.386
360.82
353.789
343.421
329.929
313.555
294.537
273.158
249.695
224.433
197.677
169.709
140.823
111.334
81.5463
51.8861
23.6947
-3.01863
-30.384
-57.1541
-82.9466
-364.526
-360.829
-355.695
-349.105
-341.023
-331.388
-320.152
-307.245
-292.625
-276.258
-258.098
-238.104
-216.266
-192.578
-167.052
-139.738
-110.721
-80.1198
-48.3924
-15.2568
18.8857
53.6632
88.7266
123.747
158.305
191.992
224.346
254.903
283.263
309.008
331.736
351.124
366.883
378.769
386.6
390.247
389.093
383.712
374.194
360.647
343.27
322.346
298.17
271.089
241.533
209.915
176.659
142.227
107.056
71.5618
36.1404
1.13582
-33.0381
-64.7771
-96.2189
-126.341
-154.895
-181.729
-206.756
-229.924
-251.206
-270.609
-288.146
-303.851
-317.764
-329.92
-340.367
-349.143
-356.277
-361.798
-365.72
-368.06
-368.819
-368.023
-365.706
-361.848
-356.439
-349.467
-340.909
-330.767
-319.044
-305.711
-290.764
-274.219
-256.065
-236.302
-214.955
-192.035
-167.557
-141.563
-114.102
-85.2514
-55.1102
-23.7973
8.46566
41.4545
74.9099
108.531
141.98
174.895
206.89
237.57
266.535
293.389
317.749
339.25
357.561
372.378
383.442
390.542
393.515
392.248
386.777
377.117
363.374
345.735
324.457
299.851
272.287
242.18
209.975
176.142
141.157
105.494
69.6142
33.9484
-1.10046
-35.1876
-68.0077
-99.3065
-128.881
-156.58
-182.296
-205.966
-227.56
-247.081
-264.56
-280.049
-293.611
-305.325
-315.272
-323.542
-330.224
-335.401
-339.151
-341.549
-342.637
-342.465
-341.066
-338.455
-334.633
-329.596
-323.331
-315.813
-307.013
-296.889
-285.39
-272.463
-258.049
-242.091
-224.537
-205.346
-184.488
-161.957
-137.767
-111.958
-84.6005
-55.7972
-25.6829
5.58449
38.0047
70.8942
104.169
137.512
170.561
202.917
234.161
263.854
291.549
316.804
339.19
358.312
373.814
385.394
392.812
395.9
394.547
388.799
378.716
364.45
346.253
324.453
299.438
271.644
241.54
209.612
176.347
142.223
107.702
73.2106
39.1453
5.84889
-26.3715
-57.2584
-86.6082
-114.268
-140.139
-164.161
-186.315
-206.61
-225.076
-241.759
-256.723
-270.032
-281.759
-291.973
-300.737
-308.11
-314.142
-318.879
-322.356
-324.602
-325.622
-325.435
-324.043
-321.424
-317.557
-312.418
-305.975
-298.198
-289.058
-278.518
-266.55
-253.124
-238.206
-221.767
-203.78
-184.223
-163.09
-140.384
-116.131
-90.387
-63.2291
-34.7728
-5.16544
25.4168
56.7695
88.6492
120.734
152.728
184.289
215.045
244.597
272.528
298.411
321.821
342.342
359.587
373.209
382.916
388.483
389.747
386.659
379.277
367.679
352.075
332.748
310.047
284.375
256.181
225.943
194.156
161.307
127.86
94.2728
61.7888
29.2346
-2.42048
-32.8892
-61.9711
-89.5208
-115.435
-139.654
-162.142
-182.904
-201.945
-219.275
-234.925
-248.922
-261.314
-272.152
-281.501
-289.434
-296.022
-301.339
-305.459
-308.444
-310.348
-311.214
-311.085
-309.98
-307.861
-304.687
-300.406
-294.926
-288.143
-279.947
-270.209
-258.808
-245.632
-230.568
-213.55
-194.525
-173.465
-150.403
-125.406
-98.5763
-70.0817
-40.115
-8.92832
22.7969
55.3258
88.1284
120.756
152.827
183.911
213.6
241.551
267.386
290.746
311.347
328.918
343.229
354.115
361.454
365.166
365.22
361.63
354.551
344.126
330.568
314.123
295.03
273.572
250.029
224.688
197.856
169.815
140.859
111.303
81.4518
51.7315
23.4918
-3.30008
-30.7139
-57.5236
-83.3495
-364.916
-361.227
-356.105
-349.528
-341.462
-331.845
-320.627
-307.739
-293.138
-276.79
-258.647
-238.669
-216.843
-193.164
-167.64
-140.319
-111.286
-80.662
-48.8552
-15.671
18.5391
53.3983
88.5561
123.684
158.361
192.176
224.665
255.358
283.851
309.724
332.567
352.057
367.901
379.854
387.728
391.393
390.241
384.831
375.257
361.637
344.169
323.135
298.838
271.628
241.939
210.185
176.796
142.239
106.95
71.3489
35.835
0.757359
-33.4667
-65.2952
-96.7717
-126.92
-155.489
-182.332
-207.358
-230.519
-251.789
-271.176
-288.695
-304.381
-318.275
-330.414
-340.846
-349.609
-356.731
-362.243
-366.157
-368.492
-369.251
-368.455
-366.139
-362.284
-356.877
-349.91
-341.358
-331.223
-319.506
-306.178
-291.238
-274.701
-256.552
-236.796
-215.455
-192.538
-168.06
-142.063
-114.593
-85.7247
-55.5565
-24.2023
8.11529
41.1707
74.705
108.416
141.967
174.991
207.104
237.905
266.993
293.969
318.447
340.06
358.471
373.376
384.51
391.659
394.659
393.402
387.906
378.198
364.384
346.654
325.265
300.533
272.834
242.585
210.237
176.262
141.142
105.355
69.3604
33.5949
-1.5373
-35.6938
-68.5673
-99.9053
-129.505
-157.217
-182.937
-206.6
-228.181
-247.684
-265.14
-280.603
-294.138
-305.824
-315.744
-323.986
-330.642
-335.796
-339.526
-341.907
-342.984
-342.804
-341.401
-338.788
-334.968
-329.937
-323.679
-316.173
-307.386
-297.278
-285.798
-272.891
-258.497
-242.559
-225.024
-205.848
-185.001
-162.476
-138.285
-112.467
-85.0932
-56.2625
-26.1076
5.2192
37.6578
70.6331
103.999
137.443
170.602
203.08
234.454
264.282
292.114
317.503
340.018
359.255
374.855
386.513
393.984
397.098
395.749
389.969
379.824
365.472
347.167
325.24
300.085
272.145
241.893
209.82
176.417
142.165
107.527
72.9332
38.7808
5.41098
-26.8675
-57.7972
-87.1753
-114.85
-140.725
-164.742
-186.883
-207.16
-225.605
-242.265
-257.203
-270.488
-282.191
-292.383
-301.128
-308.484
-314.503
-319.229
-322.697
-324.935
-325.954
-325.77
-324.38
-321.767
-317.909
-312.779
-306.346
-298.58
-289.451
-278.923
-266.968
-253.555
-238.649
-222.223
-204.248
-184.702
-163.575
-140.871
-116.615
-90.8596
-63.6821
-35.1976
-5.55202
25.0791
56.4908
88.4468
120.615
152.703
184.371
215.243
244.92
272.981
298.997
322.538
343.182
360.539
374.255
384.033
389.643
390.926
387.828
380.399
368.731
353.032
333.59
310.758
284.945
256.606
226.223
194.297
161.321
127.763
94.0839
61.4712
28.8553
-2.85
-33.3581
-62.4663
-90.0338
-115.957
-140.177
-162.661
-183.416
-202.446
-219.763
-235.397
-249.377
-261.75
-272.568
-281.895
-289.808
-296.375
-301.671
-305.773
-308.742
-310.633
-311.493
-311.361
-310.261
-308.152
-304.996
-300.739
-295.288
-288.539
-280.379
-270.677
-259.313
-246.17
-231.134
-214.138
-195.129
-174.076
-151.01
-125.997
-99.1402
-70.6054
-40.586
-9.33594
22.4921
55.1081
88.0101
120.746
152.93
184.132
213.938
242.006
267.953
291.416
312.11
329.761
344.135
355.066
362.43
366.148
366.194
362.574
355.441
344.949
331.314
314.785
295.604
274.054
250.418
224.985
198.065
169.939
140.901
111.266
81.3408
51.5504
23.2543
-3.62895
-31.0994
-57.9553
-83.8203
-365.361
-361.681
-356.572
-350.012
-341.963
-332.367
-321.171
-308.303
-293.725
-277.398
-259.275
-239.315
-217.504
-193.835
-168.312
-140.984
-111.932
-81.2816
-49.3876
-16.1472
18.141
53.0936
88.3593
123.61
158.423
192.386
225.029
255.878
284.523
310.542
333.519
353.125
369.067
381.095
389.019
392.705
391.554
386.11
376.473
362.771
345.197
324.038
299.603
272.245
242.401
210.492
176.952
142.25
106.827
71.1037
35.4837
0.321455
-33.9592
-65.887
-97.4048
-127.583
-156.17
-183.022
-208.047
-231.2
-252.455
-271.825
-289.322
-304.987
-318.86
-330.979
-341.393
-350.14
-357.25
-362.751
-366.657
-368.986
-369.744
-368.948
-366.633
-362.781
-357.378
-350.416
-341.87
-331.744
-320.035
-306.712
-291.781
-275.252
-257.109
-237.36
-216.027
-193.112
-168.636
-142.636
-115.156
-86.2673
-56.0674
-24.6671
7.71324
40.8447
74.4693
108.284
141.95
175.101
207.347
238.287
267.516
294.632
319.245
340.986
359.513
374.517
385.732
392.938
395.969
394.722
389.199
379.435
365.541
347.705
326.189
301.314
273.459
243.047
210.535
176.399
141.124
105.193
69.0682
33.1885
-2.03887
-36.2748
-69.2092
-100.592
-130.221
-157.948
-183.671
-207.327
-228.893
-248.374
-265.804
-281.238
-294.741
-306.395
-316.282
-324.493
-331.12
-336.248
-339.956
-342.317
-343.38
-343.191
-341.783
-339.17
-335.352
-330.326
-324.078
-316.584
-307.813
-297.723
-286.264
-273.38
-259.01
-243.095
-225.581
-206.422
-185.589
-163.07
-138.878
-113.052
-85.658
-56.7963
-26.5966
4.79238
37.267
70.3344
103.803
137.361
170.648
203.265
234.787
264.77
292.759
318.303
340.964
360.333
376.047
387.794
395.327
398.47
397.124
391.308
381.094
366.643
348.212
326.139
300.824
272.716
242.295
210.056
176.495
142.096
107.325
72.6139
38.3619
4.90818
-27.4365
-58.4152
-87.8253
-115.518
-141.396
-165.407
-187.534
-207.79
-226.21
-242.843
-257.752
-271.009
-282.685
-292.853
-301.575
-308.912
-314.915
-319.628
-323.086
-325.317
-326.334
-326.151
-324.766
-322.16
-318.311
-313.191
-306.77
-299.016
-289.9
-279.386
-267.445
-254.047
-239.156
-222.746
-204.784
-185.25
-164.131
-141.43
-117.17
-91.401
-64.2014
-35.6847
-5.99514
24.6913
56.17
88.214
120.477
152.673
184.463
215.468
245.288
273.499
299.667
323.357
344.144
361.628
375.451
385.311
390.973
392.276
389.166
381.686
369.936
354.128
334.553
311.57
285.596
257.09
226.542
194.457
161.334
127.649
93.8628
61.1087
28.4212
-3.34235
-33.8953
-63.0337
-90.6212
-116.553
-140.775
-163.256
-184.002
-203.019
-220.321
-235.938
-249.897
-262.248
-273.043
-282.346
-290.235
-296.777
-302.051
-306.131
-309.081
-310.959
-311.811
-311.677
-310.581
-308.484
-305.348
-301.12
-295.702
-288.99
-280.871
-271.212
-259.89
-246.785
-231.781
-214.812
-195.82
-174.775
-151.706
-126.675
-99.7864
-71.2055
-41.1258
-9.80344
22.1419
54.8576
87.8735
120.732
153.048
184.384
214.325
242.525
268.601
292.183
312.982
330.725
345.171
356.154
363.548
367.274
367.308
363.652
356.459
345.891
332.168
315.543
296.26
274.605
250.862
225.324
198.303
170.08
140.948
111.224
81.213
51.3423
22.9818
-4.00551
-31.5408
-58.4497
-84.3594
-365.861
-362.192
-357.097
-350.555
-342.527
-332.954
-321.781
-308.938
-294.385
-278.083
-259.981
-240.042
-218.248
-194.59
-169.071
-141.733
-112.66
-81.9759
-49.9935
-16.6865
17.6908
52.7485
88.1356
123.524
158.491
192.62
225.438
256.462
285.279
311.463
334.59
354.329
370.38
382.493
390.474
394.185
393.033
387.551
377.843
364.048
346.355
325.056
300.464
272.938
242.921
210.837
177.126
142.26
106.687
70.8255
35.0859
-0.173611
-34.5161
-66.553
-98.1184
-128.33
-156.938
-183.799
-208.823
-231.967
-253.206
-272.555
-290.028
-305.669
-319.517
-331.614
-342.008
-350.738
-357.833
-363.323
-367.22
-369.542
-370.298
-369.503
-367.189
-363.339
-357.941
-350.985
-342.447
-332.331
-320.629
-307.314
-292.393
-275.872
-257.735
-237.996
-216.67
-193.758
-169.285
-143.281
-115.79
-86.8794
-56.6433
-25.1928
7.25892
40.476
74.2019
108.134
141.93
175.223
207.619
238.716
268.104
295.377
320.144
342.029
360.686
375.803
387.109
394.38
397.447
396.208
390.656
380.83
366.844
348.889
327.23
302.193
274.162
243.567
210.868
176.55
141.101
105.008
68.7367
32.728
-2.60621
-36.9313
-69.9343
-101.366
-131.028
-158.771
-184.497
-208.147
-229.695
-249.151
-266.552
-281.952
-295.42
-307.037
-316.889
-325.064
-331.658
-336.756
-340.438
-342.777
-343.825
-343.626
-342.213
-339.598
-335.784
-330.764
-324.526
-317.046
-308.292
-298.223
-286.789
-273.931
-259.587
-243.698
-226.208
-207.07
-186.251
-163.739
-139.547
-113.71
-86.2956
-57.3995
-27.1503
4.30406
36.8303
69.9976
103.58
137.267
170.697
203.471
235.16
265.318
293.485
319.204
342.03
361.549
377.39
389.238
396.841
400.019
398.674
392.817
382.525
367.963
349.391
327.153
301.657
273.359
242.746
210.32
176.58
142.016
107.095
72.252
37.8877
4.33953
-28.0794
-59.1132
-88.5592
-116.271
-142.153
-166.156
-188.267
-208.5
-226.892
-243.494
-258.37
-271.595
-283.241
-293.38
-302.079
-309.394
-315.378
-320.077
-323.524
-325.747
-326.761
-326.58
-325.2
-322.602
-318.764
-313.655
-307.247
-299.508
-290.406
-279.907
-267.982
-254.6
-239.727
-223.334
-205.388
-185.867
-164.758
-142.059
-117.795