/*--------------------------------*- C++ -*----------------------------------*\
| =========                 |                                                 |
| \\      /  F ield         | OpenFOAM: The Open Source CFD Toolbox           |
|  \\    /   O peration     | Version:  3.0.1                                 |
|   \\  /    A nd           | Web:      www.OpenFOAM.org                      |
|    \\/     M anipulation  |                                                 |
\*---------------------------------------------------------------------------*/
FoamFile
{
    version     2.0;
    format      ascii;
    class       volScalarField;
    location    "49.4";
    object      p;
}
// * * * * * * * * * * * * * * * * * * * * * * * * * * * * * * * * * * * * * //

dimensions      [1 -1 -2 0 0 0 0];

internalField   nonuniform List<scalar> 
21420
(
3613.53
3630.5
3649.32
3669.99
3692.48
3716.78
3742.85
3770.6
3799.94
3830.73
3862.78
3895.89
3929.84
3964.31
3998.97
4033.43
4067.26
4100.11
4131.52
4161.09
4188.43
4213.14
4234.84
4253.23
4268.01
4278.96
4285.92
4288.7
4286.96
4281.09
4271.26
4257.52
4240.13
4219.34
4195.45
4168.79
4139.78
4108.81
4076.3
4042.69
4008.39
3973.8
3939.26
3905.29
3872.56
3840.51
3809.53
3779.87
3751.71
3725.19
3700.39
3677.37
3656.15
3636.73
3619.11
3603.27
3589.17
3576.79
3566.08
3557.03
3549.6
3543.78
3539.55
3536.89
3535.83
3536.41
3538.54
3542.27
3547.59
3554.54
3563.14
3573.38
3585.29
3598.88
3614.14
3631.07
3649.66
3669.88
3691.71
3715.09
3739.97
3766.27
3793.9
3822.76
3852.73
3883.74
3916.67
3949.03
3981.59
4014.15
4046.42
4078.05
4108.68
4137.94
4165.45
4190.84
4213.74
4233.83
4250.78
4264.34
4274.27
4280.39
4282.52
4280.7
4274.83
4264.96
4251.19
4233.69
4212.67
4188.42
4161.28
4131.64
4099.93
4066.6
4032.12
3996.96
3961.57
3926.39
3891.81
3858.18
3825.8
3794.92
3765.73
3738.38
3712.97
3689.56
3668.18
3648.82
3631.46
3616.05
3602.53
3590.84
3580.9
3572.64
3565.97
3560.83
3557.12
3554.79
3553.79
3554.09
3555.61
3558.36
3562.33
3567.54
3573.98
3581.71
3590.74
3601.12
3612.91
3626.15
3640.9
3657.19
3675.08
3694.58
3715.71
3738.46
3762.8
3788.66
3815.95
3844.56
3874.33
3905.06
3936.72
3968.73
4000.99
4033.16
4064.89
4095.81
4125.52
4153.59
4179.62
4203.2
4223.93
4241.45
4255.47
4265.7
4271.95
4274.03
4271.99
4265.76
4255.46
4241.23
4223.31
4201.97
4177.58
4150.52
4121.22
4090.13
4057.69
4024.37
3990.57
3956.73
3923.23
3890.4
3858.55
3827.94
3798.77
3771.21
3745.38
3721.34
3699.16
3678.84
3660.37
3643.72
3628.87
3615.73
3604.25
3594.36
3585.99
3579.04
3573.47
3569.2
3566.19
3564.39
3563.79
3564.4
3566.17
3569.13
3573.3
3578.71
3585.39
3593.36
3602.67
3613.34
3625.43
3638.95
3653.95
3670.43
3688.42
3707.92
3728.92
3751.4
3775.32
3800.62
3827.21
3854.99
3883.82
3913.51
3943.9
3974.66
4005.55
4036.27
4066.47
4095.81
4123.89
4150.34
4174.75
4196.74
4215.93
4231.98
4244.6
4253.52
4258.58
4259.6
4256.65
4249.7
4238.85
4224.29
4206.27
4185.08
4161.07
4134.64
4106.19
4076.17
4045.01
4013.15
3981.02
3949.04
3917.53
3886.78
3857.06
3828.6
3801.56
3776.07
3752.21
3730.03
3709.55
3690.77
3673.67
3658.21
3644.34
3632
3621.12
3611.63
3603.47
3596.55
3590.83
3586.24
3583.05
3580.99
3580.02
3580.12
3581.23
3583.34
3586.45
3590.56
3595.69
3601.9
3609.22
3617.73
3627.49
3638.59
3651.11
3665.11
3680.67
3697.84
3716.67
3737.14
3759.25
3782.93
3808.08
3834.56
3862.12
3890.09
3919.2
3948.79
3978.53
4008.03
4036.97
4065
4091.78
4116.96
4140.23
4161.28
4179.85
4195.67
4208.56
4218.35
4224.95
4228.27
4228.22
4224.9
4218.46
4208.92
4196.46
4181.31
4163.69
4143.86
4122.11
4098.72
4073.97
4048.16
4021.57
3994.49
3967.16
3939.84
3912.83
3886.43
3861.76
3836.95
3812.71
3789.36
3767.07
3745.95
3726.12
3707.6
3690.4
3515.36
3532.32
3551.14
3571.81
3594.3
3618.6
3644.67
3672.42
3701.77
3732.56
3764.61
3797.73
3831.69
3866.18
3900.85
3935.32
3969.18
4002.04
4033.47
4063.05
4090.41
4115.14
4136.86
4155.27
4170.06
4181.02
4187.98
4190.78
4189.02
4183.15
4173.3
4159.56
4142.15
4121.35
4097.44
4070.77
4041.74
4010.75
3978.22
3944.59
3910.27
3875.66
3841.12
3807.14
3774.4
3742.34
3711.35
3681.69
3653.53
3627.01
3602.21
3579.19
3557.97
3538.55
3520.93
3505.09
3491
3478.62
3467.92
3458.87
3451.44
3445.62
3441.38
3438.73
3437.67
3438.25
3440.38
3444.1
3449.43
3456.38
3464.98
3475.21
3487.12
3500.71
3515.97
3532.9
3551.49
3571.71
3593.54
3616.92
3641.8
3668.11
3695.74
3724.6
3754.56
3785.57
3818.53
3850.89
3883.46
3916.04
3948.32
3979.96
4010.61
4039.89
4067.42
4092.82
4115.74
4135.84
4152.81
4166.37
4176.31
4182.45
4184.58
4182.75
4176.88
4167.01
4153.23
4135.71
4114.68
4090.41
4063.26
4033.6
4001.87
3968.51
3934.01
3898.83
3863.43
3828.24
3793.65
3760.01
3727.62
3696.73
3667.54
3640.18
3614.77
3591.37
3569.99
3550.63
3533.27
3517.87
3504.35
3492.67
3482.73
3474.47
3467.81
3462.67
3458.96
3456.63
3455.63
3455.94
3457.46
3460.21
3464.18
3469.38
3475.83
3483.55
3492.58
3502.96
3514.75
3527.99
3542.73
3559.02
3576.91
3596.41
3617.54
3640.29
3664.62
3690.49
3717.78
3746.4
3776.17
3806.91
3838.57
3870.6
3902.87
3935.05
3966.8
3997.74
4027.46
4055.55
4081.6
4105.19
4125.94
4143.48
4157.51
4167.75
4174.01
4176.1
4174.05
4167.82
4157.51
4143.27
4125.33
4103.98
4079.57
4052.49
4023.17
3992.06
3959.6
3926.26
3892.45
3858.59
3825.08
3792.24
3760.38
3729.76
3700.59
3673.03
3647.19
3623.16
3600.97
3580.65
3562.19
3545.55
3530.69
3517.56
3506.09
3496.2
3487.83
3480.89
3475.31
3471.05
3468.04
3466.24
3465.64
3466.25
3468.02
3470.98
3475.15
3480.56
3487.23
3495.2
3504.51
3515.18
3527.27
3540.79
3555.78
3572.26
3590.25
3609.75
3630.75
3653.23
3677.15
3702.45
3729.05
3756.83
3785.66
3815.36
3845.76
3876.53
3907.43
3938.16
3968.38
3997.73
4025.84
4052.3
4076.73
4098.73
4117.94
4134.01
4146.64
4155.57
4160.64
4161.66
4158.7
4151.75
4140.89
4126.32
4108.28
4087.07
4063.05
4036.6
4008.13
3978.09
3946.91
3915.04
3882.89
3850.9
3819.38
3788.62
3758.9
3730.43
3703.39
3677.89
3654.03
3631.86
3611.38
3592.6
3575.5
3560.05
3546.18
3533.84
3522.97
3513.48
3505.32
3498.41
3492.68
3488.1
3484.91
3482.85
3481.88
3481.98
3483.09
3485.2
3488.31
3492.41
3497.55
3503.75
3511.07
3519.58
3529.34
3540.43
3552.94
3566.94
3582.5
3599.67
3618.49
3638.97
3661.08
3684.76
3709.91
3736.39
3763.96
3791.94
3821.06
3850.66
3880.41
3909.94
3938.88
3966.93
3993.73
4018.92
4042.2
4063.27
4081.85
4097.68
4110.58
4120.38
4126.98
4130.3
4130.24
4126.93
4120.48
4110.93
4098.46
4083.3
4065.67
4045.82
4024.06
4000.66
3975.89
3950.07
3923.48
3896.38
3869.04
3841.71
3814.69
3788.28
3763.63
3738.8
3714.56
3691.21
3668.91
3647.8
3627.96
3609.43
3592.24
3417.11
3434.06
3452.88
3473.55
3496.03
3520.33
3546.41
3574.16
3603.51
3634.32
3666.38
3699.52
3733.5
3768.01
3802.71
3837.21
3871.1
3904
3935.47
3965.09
3992.48
4017.25
4039
4057.44
4072.25
4083.23
4090.2
4093.02
4091.23
4085.36
4075.5
4061.73
4044.3
4023.46
3999.52
3972.81
3943.75
3912.72
3880.15
3846.49
3812.14
3777.5
3742.93
3708.93
3676.18
3644.1
3613.11
3583.44
3555.27
3528.75
3503.95
3480.92
3459.71
3440.29
3422.68
3406.85
3392.75
3380.38
3369.68
3360.64
3353.21
3347.39
3343.16
3340.5
3339.45
3340.02
3342.15
3345.87
3351.2
3358.15
3366.74
3376.98
3388.88
3402.47
3417.72
3434.66
3453.25
3473.46
3495.29
3518.68
3543.56
3569.87
3597.51
3626.38
3656.34
3687.34
3720.37
3752.73
3785.31
3817.91
3850.21
3881.89
3912.57
3941.89
3969.45
3994.89
4017.84
4037.96
4054.96
4068.55
4078.51
4084.65
4086.81
4084.96
4079.08
4069.2
4055.4
4037.86
4016.8
3992.5
3965.31
3935.61
3903.84
3870.44
3835.9
3800.69
3765.25
3730.03
3695.42
3661.76
3629.36
3598.46
3569.26
3541.9
3516.49
3493.09
3471.71
3452.36
3435.01
3419.61
3406.1
3394.42
3384.49
3376.24
3369.59
3364.45
3360.75
3358.42
3357.43
3357.73
3359.26
3362.01
3365.98
3371.18
3377.62
3385.34
3394.37
3404.74
3416.52
3429.76
3444.5
3460.79
3478.67
3498.16
3519.29
3542.04
3566.38
3592.24
3619.55
3648.17
3677.95
3708.71
3740.38
3772.43
3804.72
3836.94
3868.72
3899.69
3929.44
3957.58
3983.66
4007.29
4028.07
4045.65
4059.69
4069.96
4076.23
4078.33
4076.26
4070.03
4059.71
4045.44
4027.47
4006.09
3981.64
3954.52
3925.16
3894.01
3861.52
3828.14
3794.3
3760.41
3726.88
3694.01
3662.14
3631.51
3602.33
3574.76
3548.92
3524.89
3502.71
3482.39
3463.93
3447.29
3432.45
3419.32
3407.86
3397.98
3389.61
3382.67
3377.11
3372.85
3369.84
3368.04
3367.45
3368.06
3369.82
3372.78
3376.95
3382.36
3389.03
3396.99
3406.29
3416.97
3429.04
3442.56
3457.55
3474.03
3492.02
3511.51
3532.51
3554.99
3578.92
3604.22
3630.83
3658.62
3687.46
3717.17
3747.58
3778.37
3809.3
3840.06
3870.31
3899.69
3927.83
3954.33
3978.79
4000.83
4020.07
4036.17
4048.82
4057.77
4062.85
4063.88
4060.91
4053.95
4043.07
4028.47
4010.41
3989.17
3965.11
3938.61
3910.11
3880.03
3848.82
3816.91
3784.74
3752.72
3721.18
3690.4
3660.66
3632.18
3605.14
3579.64
3555.78
3533.61
3513.13
3494.36
3477.27
3461.82
3447.96
3435.63
3424.75
3415.28
3407.12
3400.21
3394.49
3389.91
3386.73
3384.67
3383.7
3383.8
3384.91
3387.02
3390.13
3394.23
3399.36
3405.56
3412.88
3421.38
3431.13
3442.21
3454.72
3468.71
3484.26
3501.43
3520.25
3540.72
3562.84
3586.52
3611.68
3638.17
3665.76
3693.74
3722.89
3752.51
3782.29
3811.84
3840.81
3868.89
3895.72
3920.94
3944.25
3965.34
3983.95
3999.8
4012.71
4022.53
4029.13
4032.46
4032.41
4029.08
4022.61
4013.05
4000.56
3985.38
3967.72
3947.85
3926.07
3902.63
3877.85
3852
3825.38
3798.27
3770.9
3743.56
3716.52
3690.09
3665.46
3640.62
3616.36
3593
3570.7
3549.58
3529.74
3511.21
3494.02
3318.78
3335.73
3354.54
3375.21
3397.69
3421.99
3448.06
3475.83
3505.19
3536
3568.09
3601.25
3635.26
3669.8
3704.55
3739.1
3773.04
3805.99
3837.51
3867.19
3894.64
3919.46
3941.26
3959.74
3974.59
3985.59
3992.58
3995.44
3993.61
3987.73
3977.84
3964.04
3946.57
3925.69
3901.69
3874.93
3845.81
3814.73
3782.1
3748.38
3713.99
3679.31
3644.7
3610.68
3577.89
3545.8
3514.78
3485.1
3456.93
3430.4
3405.6
3382.58
3361.37
3341.96
3324.36
3308.53
3294.44
3282.07
3271.38
3262.34
3254.92
3249.1
3244.87
3242.22
3241.17
3241.73
3243.86
3247.58
3252.91
3259.85
3268.44
3278.67
3290.57
3304.16
3319.41
3336.34
3354.93
3375.15
3396.98
3420.36
3445.25
3471.57
3499.21
3528.09
3558.06
3589.04
3622.17
3654.52
3687.13
3719.76
3752.11
3783.83
3814.56
3843.93
3871.54
3897.03
3920.03
3940.2
3957.24
3970.86
3980.85
3987.01
3989.19
3987.32
3981.44
3971.54
3957.72
3940.14
3919.03
3894.69
3867.44
3837.68
3805.84
3772.39
3737.79
3702.52
3667.04
3631.77
3597.13
3563.44
3531.01
3500.1
3470.89
3443.52
3418.11
3394.71
3373.34
3354
3336.66
3321.27
3307.77
3296.1
3286.19
3277.95
3271.3
3266.17
3262.48
3260.17
3259.18
3259.48
3261.01
3263.76
3267.73
3272.93
3279.37
3287.08
3296.1
3306.47
3318.24
3331.47
3346.2
3362.48
3380.35
3399.84
3420.97
3443.72
3468.06
3493.93
3521.24
3549.88
3579.68
3610.47
3642.14
3674.23
3706.56
3738.82
3770.64
3801.66
3831.47
3859.66
3885.8
3909.48
3930.32
3947.94
3962.03
3972.32
3978.61
3980.74
3978.64
3972.4
3962.05
3947.75
3929.74
3908.3
3883.8
3856.62
3827.2
3795.99
3763.44
3730.01
3696.12
3662.2
3628.62
3595.73
3563.83
3533.18
3503.99
3476.41
3450.57
3426.54
3404.36
3384.05
3365.59
3348.97
3334.13
3321.02
3309.56
3299.69
3291.33
3284.41
3278.85
3274.6
3271.59
3269.8
3269.21
3269.81
3271.58
3274.54
3278.7
3284.1
3290.77
3298.73
3308.02
3318.69
3330.76
3344.28
3359.26
3375.73
3393.71
3413.21
3434.21
3456.69
3480.62
3505.93
3532.54
3560.34
3589.2
3618.94
3649.37
3680.19
3711.16
3741.96
3772.25
3801.68
3829.87
3856.42
3880.94
3903.03
3922.32
3938.46
3951.14
3960.12
3965.21
3966.26
3963.27
3956.3
3945.39
3930.76
3912.65
3891.36
3867.24
3840.69
3812.13
3782
3750.73
3718.77
3686.55
3654.49
3622.92
3592.12
3562.36
3533.87
3506.82
3481.32
3457.46
3435.29
3414.81
3396.05
3378.97
3363.52
3349.67
3337.35
3326.49
3317.02
3308.87
3301.97
3296.26
3291.69
3288.5
3286.44
3285.48
3285.58
3286.7
3288.81
3291.91
3296.01
3301.14
3307.33
3314.64
3323.13
3332.87
3343.94
3356.43
3370.41
3385.95
3403.12
3421.93
3442.4
3464.52
3488.21
3513.38
3539.89
3567.5
3595.49
3624.67
3654.33
3684.15
3713.74
3742.76
3770.89
3797.75
3823.02
3846.37
3867.51
3886.14
3902.03
3914.97
3924.8
3931.41
3934.74
3934.7
3931.35
3924.87
3915.28
3902.77
3887.55
3869.85
3849.95
3828.12
3804.65
3779.82
3753.95
3727.29
3700.15
3672.75
3645.38
3618.31
3591.85
3567.27
3542.4
3518.12
3494.74
3472.43
3451.3
3431.46
3412.93
3395.73
3220.38
3237.32
3256.12
3276.78
3299.26
3323.56
3349.64
3377.41
3406.78
3437.62
3469.73
3502.92
3536.97
3571.57
3606.37
3640.98
3674.99
3708.01
3739.61
3769.36
3796.88
3821.77
3843.65
3862.18
3877.08
3888.11
3895.12
3897.99
3896.16
3890.25
3880.33
3866.49
3848.96
3828.02
3803.96
3777.12
3747.92
3716.77
3684.07
3650.28
3615.82
3581.08
3546.43
3512.37
3479.55
3447.42
3416.39
3386.69
3358.5
3331.97
3307.17
3284.15
3262.95
3243.55
3225.95
3210.13
3196.05
3183.69
3173.01
3163.98
3156.56
3150.75
3146.52
3143.87
3142.82
3143.38
3145.51
3149.23
3154.55
3161.49
3170.07
3180.3
3192.2
3205.77
3221.03
3237.96
3256.54
3276.76
3298.59
3321.98
3346.88
3373.2
3400.85
3429.75
3459.73
3490.69
3523.93
3556.28
3588.92
3621.61
3654.01
3685.79
3716.59
3746.02
3773.7
3799.26
3822.32
3842.56
3859.65
3873.32
3883.34
3889.52
3891.73
3889.85
3883.96
3874.04
3860.18
3842.55
3821.38
3796.97
3769.64
3739.8
3707.89
3674.35
3639.68
3604.34
3568.79
3533.46
3498.77
3465.04
3432.59
3401.65
3372.43
3345.06
3319.65
3296.25
3274.89
3255.56
3238.23
3222.85
3209.37
3197.72
3187.82
3179.59
3172.96
3167.84
3164.16
3161.86
3160.88
3161.18
3162.72
3165.47
3169.44
3174.63
3181.06
3188.77
3197.78
3208.14
3219.9
3233.11
3247.83
3264.11
3281.97
3301.45
3322.58
3345.32
3369.67
3395.54
3422.87
3451.52
3481.35
3512.17
3543.86
3576
3608.38
3640.69
3672.58
3703.66
3733.55
3761.81
3788.02
3811.78
3832.68
3850.36
3864.5
3874.83
3881.15
3883.3
3881.19
3874.93
3864.55
3850.2
3832.13
3810.63
3786.05
3758.79
3729.29
3698
3665.38
3631.88
3597.93
3563.94
3530.31
3497.38
3465.45
3434.77
3405.57
3377.98
3352.14
3328.1
3305.93
3285.62
3267.18
3250.57
3235.74
3222.64
3211.2
3201.34
3193
3186.09
3180.54
3176.29
3173.3
3171.51
3170.93
3171.52
3173.29
3176.24
3180.4
3185.8
3192.45
3200.41
3209.7
3220.35
3232.42
3245.93
3260.9
3277.37
3295.35
3314.84
3335.83
3358.32
3382.25
3407.57
3434.19
3462.01
3490.89
3520.66
3551.12
3581.99
3613
3643.85
3674.21
3703.7
3731.95
3758.57
3783.16
3805.32
3824.68
3840.87
3853.61
3862.62
3867.73
3868.8
3865.79
3858.8
3847.86
3833.18
3815
3793.64
3769.46
3742.83
3714.2
3683.98
3652.64
3620.62
3588.34
3556.23
3524.61
3493.78
3463.99
3435.48
3408.42
3382.92
3359.06
3336.89
3316.42
3297.67
3280.6
3265.16
3251.33
3239.01
3228.16
3218.71
3210.57
3203.68
3197.98
3193.42
3190.24
3188.18
3187.22
3187.33
3188.44
3190.55
3193.65
3197.75
3202.86
3209.05
3216.34
3224.82
3234.55
3245.61
3258.08
3272.05
3287.58
3304.73
3323.54
3344.01
3366.13
3389.82
3415.01
3441.55
3469.19
3497.19
3526.42
3556.13
3586
3615.65
3644.72
3672.91
3699.83
3725.16
3748.57
3769.76
3788.44
3804.37
3817.34
3827.19
3833.82
3837.14
3837.12
3833.76
3827.24
3817.62
3805.07
3789.8
3772.06
3752.11
3730.23
3706.71
3681.83
3655.9
3629.21
3602.02
3574.59
3547.17
3520.06
3493.56
3469.04
3444.13
3419.82
3396.43
3374.1
3352.97
3333.12
3314.58
3297.39
3121.91
3138.83
3157.63
3178.27
3200.75
3225.04
3251.13
3278.91
3308.3
3339.16
3371.3
3404.53
3438.63
3473.29
3508.17
3542.86
3576.95
3610.06
3641.75
3671.59
3699.21
3724.19
3746.15
3764.75
3779.71
3790.79
3797.82
3800.7
3798.87
3792.94
3782.97
3769.08
3751.48
3730.46
3706.31
3679.38
3650.09
3618.84
3586.05
3552.18
3517.64
3482.82
3448.11
3414.01
3381.14
3348.98
3317.91
3288.19
3260
3233.46
3208.66
3185.65
3164.45
3145.06
3127.47
3111.66
3097.6
3085.25
3074.57
3065.55
3058.14
3052.33
3048.11
3045.46
3044.41
3044.97
3047.09
3050.81
3056.12
3063.06
3071.64
3081.86
3093.75
3107.32
3122.57
3139.5
3158.08
3178.3
3200.13
3223.52
3248.43
3274.76
3302.43
3331.34
3361.33
3392.26
3425.66
3458.01
3490.69
3523.43
3555.91
3587.76
3618.64
3648.16
3675.93
3701.57
3724.72
3745.03
3762.18
3775.91
3785.98
3792.19
3794.41
3792.54
3786.64
3776.68
3762.77
3745.08
3723.84
3699.34
3671.92
3641.99
3609.97
3576.33
3541.56
3506.13
3470.5
3435.1
3400.35
3366.57
3334.08
3303.12
3273.88
3246.5
3221.09
3197.7
3176.34
3157.03
3139.71
3124.35
3110.89
3099.26
3089.38
3081.17
3074.55
3069.45
3065.79
3063.5
3062.53
3062.84
3064.37
3067.12
3071.09
3076.28
3082.71
3090.4
3099.4
3109.75
3121.5
3134.7
3149.4
3165.66
3183.52
3202.99
3224.11
3246.85
3271.2
3297.09
3324.43
3353.1
3382.96
3413.82
3445.54
3477.73
3510.17
3542.55
3574.52
3605.69
3635.66
3664.02
3690.33
3714.18
3735.16
3752.92
3767.13
3777.51
3783.85
3786.02
3783.91
3777.63
3767.2
3752.79
3734.65
3713.06
3688.39
3661.03
3631.43
3600.04
3567.32
3533.73
3499.7
3465.65
3431.96
3398.97
3367
3336.29
3307.06
3279.47
3253.62
3229.58
3207.42
3187.12
3168.69
3152.09
3137.28
3124.2
3112.77
3102.94
3094.61
3087.71
3082.18
3077.94
3074.95
3073.17
3072.59
3073.19
3074.95
3077.9
3082.06
3087.44
3094.09
3102.03
3111.31
3121.96
3134.02
3147.51
3162.48
3178.94
3196.91
3216.4
3237.39
3259.88
3283.81
3309.14
3335.78
3363.62
3392.53
3422.33
3452.84
3483.76
3514.83
3545.75
3576.18
3605.75
3634.09
3660.79
3685.47
3707.72
3727.15
3743.42
3756.22
3765.28
3770.41
3771.49
3768.48
3761.45
3750.46
3735.72
3717.47
3696.03
3671.75
3645.03
3616.3
3585.99
3554.56
3522.45
3490.1
3457.93
3426.25
3395.37
3365.56
3337.03
3309.95
3284.44
3260.58
3238.42
3217.96
3199.21
3182.16
3166.74
3152.92
3140.62
3129.78
3120.34
3112.21
3105.34
3099.65
3095.11
3091.93
3089.88
3088.92
3089.03
3090.15
3092.25
3095.35
3099.44
3104.55
3110.72
3118
3126.47
3136.17
3147.21
3159.67
3173.62
3189.13
3206.27
3225.07
3245.54
3267.66
3291.37
3316.58
3343.15
3370.83
3398.85
3428.13
3457.9
3487.83
3517.55
3546.7
3574.96
3601.96
3627.36
3650.84
3672.1
3690.84
3706.82
3719.83
3729.71
3736.35
3739.68
3739.66
3736.29
3729.74
3720.07
3707.47
3692.15
3674.35
3654.33
3632.39
3608.8
3583.86
3557.88
3531.12
3503.88
3476.4
3448.94
3421.77
3395.22
3370.78
3345.82
3321.48
3298.06
3275.72
3254.57
3234.72
3216.18
3198.98
3023.36
3040.27
3059.05
3079.68
3102.15
3126.45
3152.54
3180.33
3209.74
3240.63
3272.81
3306.08
3340.25
3374.98
3409.94
3444.73
3478.92
3512.13
3543.94
3573.89
3601.62
3626.71
3648.77
3667.46
3682.49
3693.62
3700.68
3703.57
3701.75
3695.78
3685.76
3671.8
3654.12
3633.01
3608.76
3581.72
3552.32
3520.95
3488.05
3454.07
3419.43
3384.53
3349.75
3315.59
3282.67
3250.46
3219.36
3189.62
3161.41
3134.87
3110.07
3087.06
3065.86
3046.49
3028.92
3013.12
2999.07
2986.73
2976.07
2967.05
2959.65
2953.85
2949.63
2946.99
2945.94
2946.49
2948.62
2952.33
2957.64
2964.57
2973.14
2983.35
2995.24
3008.8
3024.04
3040.97
3059.55
3079.76
3101.6
3125
3149.91
3176.25
3203.94
3232.87
3262.88
3293.78
3327.35
3359.69
3392.43
3425.25
3457.8
3489.75
3520.73
3550.35
3578.22
3603.96
3627.21
3647.61
3664.85
3678.64
3688.76
3695.02
3697.26
3695.4
3689.47
3679.47
3665.51
3647.75
3626.42
3601.81
3574.28
3544.22
3512.08
3478.33
3443.44
3407.9
3372.17
3336.69
3301.86
3268.03
3235.49
3204.5
3175.24
3147.85
3122.44
3099.05
3077.71
3058.41
3041.12
3025.78
3012.34
3000.73
2990.87
2982.68
2976.09
2971.01
2967.36
2965.08
2964.13
2964.44
2965.98
2968.73
2972.7
2977.88
2984.3
2991.98
3000.97
3011.3
3023.03
3036.22
3050.91
3067.15
3084.99
3104.46
3125.57
3148.31
3172.66
3198.56
3225.92
3254.62
3284.51
3315.41
3347.18
3379.43
3411.95
3444.41
3476.47
3507.74
3537.82
3566.29
3592.71
3616.67
3637.76
3655.61
3669.9
3680.34
3686.72
3688.9
3686.8
3680.48
3670
3655.52
3637.29
3615.6
3590.81
3563.33
3533.61
3502.11
3469.28
3435.58
3401.45
3367.31
3333.55
3300.5
3268.48
3237.74
3208.48
3180.87
3155.01
3130.98
3108.82
3088.54
3070.12
3053.54
3038.75
3025.69
3014.29
3004.47
2996.16
2989.28
2983.76
2979.54
2976.56
2974.79
2974.21
2974.8
2976.57
2979.51
2983.66
2989.04
2995.67
3003.61
3012.87
3023.51
3035.55
3049.04
3064
3080.45
3098.41
3117.89
3138.88
3161.37
3185.31
3210.65
3237.31
3265.18
3294.12
3323.96
3354.52
3385.5
3416.64
3447.64
3478.16
3507.83
3536.27
3563.08
3587.86
3610.21
3629.75
3646.1
3658.97
3668.08
3673.25
3674.34
3671.32
3664.25
3653.21
3638.4
3620.06
3598.52
3574.13
3547.29
3518.44
3488.02
3456.48
3424.27
3391.82
3359.58
3327.84
3296.91
3267.06
3238.5
3211.4
3185.89
3162.03
3139.87
3119.43
3100.69
3083.65
3068.25
3054.45
3042.17
3031.35
3021.93
3013.81
3006.95
3001.28
2996.76
2993.58
2991.53
2990.58
2990.69
2991.81
2993.92
2997.01
3001.1
3006.19
3012.35
3019.62
3028.06
3037.74
3048.76
3061.2
3075.13
3090.62
3107.74
3126.53
3147
3169.12
3192.84
3218.08
3244.68
3272.41
3300.45
3329.8
3359.64
3389.66
3419.46
3448.69
3477.04
3504.13
3529.62
3553.19
3574.52
3593.34
3609.38
3622.44
3632.36
3639.02
3642.35
3642.33
3638.94
3632.35
3622.63
3609.97
3594.59
3576.71
3556.62
3534.59
3510.93
3485.92
3459.86
3433.04
3405.74
3378.2
3350.68
3323.45
3296.83
3272.48
3247.47
3223.08
3199.64
3177.27
3156.12
3136.26
3117.71
3100.51
2924.73
2941.63
2960.39
2981.01
3003.47
3027.77
3053.87
3081.68
3111.11
3142.03
3174.25
3207.58
3241.81
3276.63
3311.69
3346.59
3380.9
3414.24
3446.17
3476.26
3504.12
3529.34
3551.51
3570.3
3585.42
3596.61
3603.7
3606.6
3604.78
3598.78
3588.69
3574.66
3556.89
3535.66
3511.29
3484.13
3454.59
3423.1
3390.07
3355.96
3321.21
3286.21
3251.34
3217.12
3184.14
3151.88
3120.74
3090.97
3062.74
3036.19
3011.39
2988.39
2967.2
2947.84
2930.28
2914.5
2900.47
2888.15
2877.5
2868.49
2861.1
2855.31
2851.1
2848.46
2847.4
2847.96
2850.08
2853.78
2859.09
2866.01
2874.57
2884.78
2896.65
2910.21
2925.45
2942.36
2960.94
2981.16
3002.99
3026.4
3051.32
3077.67
3105.38
3134.34
3164.37
3195.25
3228.99
3261.33
3294.14
3327.04
3359.7
3391.75
3422.84
3452.58
3480.58
3506.44
3529.8
3550.31
3567.64
3581.52
3591.7
3598
3600.26
3598.41
3592.46
3582.42
3568.39
3550.54
3529.11
3504.38
3476.72
3446.52
3414.24
3380.34
3345.31
3309.64
3273.8
3238.22
3203.31
3169.41
3136.82
3105.79
3076.5
3049.11
3023.7
3000.32
2978.99
2959.71
2942.44
2927.13
2913.71
2902.13
2892.29
2884.13
2877.56
2872.5
2868.88
2866.62
2865.68
2866
2867.54
2870.29
2874.25
2879.43
2885.84
2893.51
2902.48
2912.8
2924.51
2937.68
2952.35
2968.58
2986.4
3005.85
3026.95
3049.7
3074.05
3099.96
3127.34
3156.07
3186
3216.96
3248.77
3281.1
3313.7
3346.27
3378.43
3409.82
3440.03
3468.62
3495.18
3519.26
3540.48
3558.44
3572.81
3583.32
3589.75
3591.95
3589.85
3583.49
3572.95
3558.39
3540.05
3518.24
3493.32
3465.71
3435.84
3404.2
3371.24
3337.42
3303.18
3268.94
3235.08
3201.96
3169.88
3139.1
3109.82
3082.19
3056.32
3032.3
3010.14
2989.87
2971.47
2954.91
2940.15
2927.11
2915.73
2905.94
2897.65
2890.8
2885.3
2881.09
2878.13
2876.36
2875.78
2876.38
2878.14
2881.07
2885.21
2890.58
2897.21
2905.13
2914.38
2925
2937.03
2950.5
2965.45
2981.89
2999.84
3019.31
3040.31
3062.8
3086.74
3112.1
3138.78
3166.67
3195.65
3225.55
3256.16
3287.22
3318.44
3349.54
3380.15
3409.93
3438.49
3465.43
3490.34
3512.81
3532.46
3548.92
3561.87
3571.04
3576.25
3577.36
3574.32
3567.21
3556.1
3541.2
3522.76
3501.1
3476.58
3449.61
3420.63
3390.08
3358.41
3326.08
3293.52
3261.19
3229.38
3198.38
3168.48
3139.9
3112.78
3087.26
3063.4
3041.25
3020.82
3002.1
2985.08
2969.7
2955.91
2943.66
2932.86
2923.45
2915.36
2908.52
2902.87
2898.38
2895.19
2893.14
2892.21
2892.32
2893.44
2895.54
2898.63
2902.71
2907.79
2913.94
2921.18
2929.6
2939.26
2950.26
2962.67
2976.57
2992.04
3009.14
3027.92
3048.38
3070.51
3094.24
3119.5
3146.15
3173.94
3201.99
3231.43
3261.36
3291.47
3321.36
3350.7
3379.15
3406.35
3431.94
3455.61
3477.04
3495.94
3512.06
3525.17
3535.13
3541.81
3545.15
3545.13
3541.72
3535.08
3525.3
3512.57
3497.11
3479.15
3458.97
3436.85
3413.1
3388
3361.86
3334.96
3307.59
3279.98
3252.4
3225.1
3198.39
3174.16
3149.07
3124.63
3101.16
3078.78
3057.6
3037.73
3019.18
3001.98
2826.03
2842.91
2861.65
2882.26
2904.71
2929.01
2955.11
2982.94
3012.4
3043.35
3075.62
3109.01
3143.33
3178.24
3213.43
3248.45
3282.9
3316.38
3348.46
3378.69
3406.7
3432.07
3454.37
3473.28
3488.49
3499.75
3506.89
3509.79
3507.98
3501.94
3491.78
3477.66
3459.78
3438.43
3413.92
3386.61
3356.92
3325.28
3292.1
3257.85
3222.97
3187.85
3152.88
3118.6
3085.55
3053.23
3022.04
2992.24
2963.99
2937.43
2912.63
2889.63
2868.46
2849.12
2831.58
2815.82
2801.8
2789.49
2778.86
2769.87
2762.49
2756.7
2752.5
2749.86
2748.81
2749.36
2751.47
2755.17
2760.47
2767.38
2775.93
2786.13
2798
2811.54
2826.78
2843.69
2862.26
2882.48
2904.32
2927.73
2952.66
2979.03
3006.76
3035.74
3065.81
3096.72
3130.53
3162.93
3195.82
3228.82
3261.59
3293.77
3324.99
3354.86
3383
3409
3432.49
3453.12
3470.57
3484.54
3494.79
3501.14
3503.43
3501.58
3495.61
3485.51
3471.41
3453.46
3431.91
3407.05
3379.23
3348.87
3316.42
3282.36
3247.18
3211.36
3175.39
3139.7
3104.69
3070.71
3038.06
3006.99
2977.68
2950.27
2924.86
2901.49
2880.18
2860.92
2843.68
2828.39
2815.01
2803.45
2793.65
2785.52
2778.98
2773.94
2770.34
2768.1
2767.17
2767.5
2769.05
2771.8
2775.76
2780.93
2787.33
2794.98
2803.94
2814.24
2825.93
2839.07
2853.72
2869.93
2887.73
2907.17
2928.27
2951.01
2975.37
3001.29
3028.7
3057.46
3087.43
3118.45
3150.33
3182.74
3215.44
3248.11
3280.4
3311.93
3342.28
3371.02
3397.73
3421.96
3443.31
3461.4
3475.88
3486.47
3492.95
3495.18
3493.07
3486.67
3476.05
3461.4
3442.94
3420.99
3395.92
3368.15
3338.12
3306.32
3273.21
3239.24
3204.88
3170.52
3136.57
3103.37
3071.22
3040.39
3011.07
2983.42
2957.55
2933.52
2911.38
2891.13
2872.75
2856.21
2841.47
2828.46
2817.11
2807.35
2799.09
2792.26
2786.78
2782.59
2779.64
2777.88
2777.31
2777.9
2779.66
2782.59
2786.72
2792.07
2798.69
2806.59
2815.83
2826.43
2838.45
2851.91
2866.83
2883.26
2901.2
2920.67
2941.66
2964.15
2988.11
3013.48
3040.18
3068.11
3097.13
3127.08
3157.77
3188.9
3220.23
3251.43
3282.16
3312.07
3340.76
3367.84
3392.89
3415.5
3435.28
3451.86
3464.91
3474.16
3479.41
3480.53
3477.48
3470.32
3459.14
3444.14
3425.58
3403.78
3379.11
3351.99
3322.85
3292.15
3260.33
3227.86
3195.19
3162.76
3130.86
3099.8
3069.84
3041.22
3014.08
2988.55
2964.69
2942.55
2922.13
2903.44
2886.44
2871.08
2857.32
2845.09
2834.31
2824.93
2816.86
2810.04
2804.41
2799.95
2796.75
2794.72
2793.79
2793.91
2795.03
2797.13
2800.22
2804.28
2809.35
2815.48
2822.7
2831.09
2840.73
2851.69
2864.07
2877.94
2893.38
2910.47
2929.23
2949.69
2971.82
2995.57
3020.86
3047.56
3075.42
3103.49
3133.02
3163.05
3193.26
3223.27
3252.72
3281.29
3308.61
3334.32
3358.11
3379.64
3398.64
3414.84
3428.02
3438.03
3444.74
3448.09
3448.05
3444.62
3437.92
3428.09
3415.28
3399.73
3381.67
3361.38
3339.17
3315.31
3290.11
3263.87
3236.88
3209.43
3181.75
3154.09
3126.7
3099.9
3075.81
3050.63
3026.13
3002.62
2980.22
2959.03
2939.15
2920.59
2903.38
2727.26
2744.11
2762.83
2783.43
2805.87
2830.16
2856.27
2884.12
2913.61
2944.61
2976.92
3010.39
3044.79
3079.82
3115.13
3150.3
3184.9
3218.54
3250.79
3281.19
3309.37
3334.9
3357.36
3376.4
3391.72
3403.06
3410.24
3413.16
3411.34
3405.25
3395.02
3380.8
3362.79
3341.3
3316.64
3289.16
3259.3
3227.49
3194.15
3159.74
3124.71
3089.46
3054.37
3020.03
2986.89
2954.5
2923.26
2893.42
2865.16
2838.58
2813.78
2790.8
2769.64
2750.31
2732.79
2717.05
2703.06
2690.77
2680.16
2671.18
2663.81
2658.03
2653.84
2651.21
2650.15
2650.7
2652.81
2656.5
2661.79
2668.69
2677.23
2687.42
2699.28
2712.81
2728.04
2744.94
2763.51
2783.73
2805.57
2828.99
2853.93
2880.32
2908.08
2937.09
2967.2
2998.17
3031.99
3064.48
3097.47
3130.59
3163.48
3195.8
3227.17
3257.2
3285.49
3311.64
3335.29
3356.05
3373.62
3387.69
3398.03
3404.43
3406.76
3404.92
3398.91
3388.76
3374.58
3356.52
3334.83
3309.81
3281.82
3251.28
3218.65
3184.4
3149.04
3113.06
3076.94
3041.12
3006
2971.94
2939.22
2908.1
2878.77
2851.35
2825.93
2802.57
2781.29
2762.05
2744.83
2729.58
2716.23
2704.71
2694.94
2686.84
2680.33
2675.33
2671.75
2669.54
2668.62
2668.96
2670.52
2673.27
2677.22
2682.38
2688.77
2696.41
2705.34
2715.62
2727.29
2740.41
2755.03
2771.21
2789
2808.42
2829.51
2852.24
2876.61
2902.55
2929.98
2958.78
2988.81
3019.88
3051.83
3084.34
3117.15
3149.94
3182.37
3214.05
3244.56
3273.48
3300.35
3324.75
3346.26
3364.49
3379.09
3389.77
3396.32
3398.57
3396.45
3390.01
3379.31
3364.55
3345.95
3323.85
3298.61
3270.65
3240.45
3208.46
3175.18
3141.06
3106.55
3072.06
3038
3004.7
2972.48
2941.6
2912.24
2884.57
2858.69
2834.67
2812.53
2792.3
2773.94
2757.43
2742.72
2729.74
2718.43
2708.7
2700.47
2693.67
2688.21
2684.05
2681.11
2679.36
2678.79
2679.38
2681.13
2684.06
2688.18
2693.52
2700.11
2708
2717.22
2727.81
2739.81
2753.25
2768.16
2784.57
2802.5
2821.96
2842.95
2865.44
2889.41
2914.79
2941.52
2969.49
2998.56
3028.57
3059.33
3090.56
3121.99
3153.31
3184.18
3214.23
3243.08
3270.32
3295.53
3318.3
3338.23
3354.94
3368.09
3377.43
3382.73
3383.87
3380.8
3373.59
3362.32
3347.21
3328.51
3306.56
3281.73
3254.43
3225.12
3194.24
3162.26
3129.64
3096.83
3064.29
3032.29
3001.14
2971.13
2942.47
2915.31
2889.77
2865.91
2843.78
2823.38
2804.7
2787.73
2772.4
2758.66
2746.46
2735.71
2726.35
2718.31
2711.5
2705.9
2701.47
2698.28
2696.25
2695.33
2695.45
2696.58
2698.68
2701.76
2705.81
2710.87
2716.97
2724.17
2732.53
2742.13
2753.06
2765.41
2779.25
2794.66
2811.72
2830.47
2850.92
2873.06
2896.82
2922.15
2948.91
2976.84
3004.93
3034.57
3064.71
3095.04
3125.18
3154.75
3183.46
3210.91
3236.76
3260.68
3282.33
3301.44
3317.73
3330.99
3341.05
3347.8
3351.15
3351.11
3347.65
3340.89
3330.99
3318.08
3302.44
3284.27
3263.87
3241.53
3217.56
3192.24
3165.9
3138.81
3111.26
3083.49
3055.75
3028.28
3001.35
2977.42
2952.14
2927.58
2904.04
2881.6
2860.4
2840.5
2821.94
2804.73
2628.41
2645.23
2663.93
2684.51
2706.94
2731.23
2757.35
2785.22
2814.74
2845.78
2878.16
2911.7
2946.2
2981.36
3016.82
3052.15
3086.91
3120.73
3153.16
3183.76
3212.13
3237.84
3260.47
3279.65
3295.09
3306.52
3313.76
3316.69
3314.86
3308.73
3298.41
3284.08
3265.94
3244.29
3219.45
3191.78
3161.74
3129.73
3096.21
3061.62
3026.42
2991.03
2955.81
2921.41
2888.16
2855.7
2824.41
2794.53
2766.24
2739.65
2714.85
2691.88
2670.74
2651.43
2633.93
2618.22
2604.24
2591.98
2581.38
2572.42
2565.07
2559.3
2555.11
2552.49
2551.43
2551.97
2554.08
2557.76
2563.04
2569.93
2578.46
2588.64
2600.48
2614.01
2629.22
2646.12
2664.69
2684.91
2706.75
2730.18
2755.13
2781.54
2809.32
2838.37
2868.54
2899.61
2933.35
2965.99
2999.1
3032.33
3065.37
3097.84
3129.37
3159.57
3188.04
3214.37
3238.18
3259.1
3276.8
3290.99
3301.42
3307.89
3310.25
3308.41
3302.38
3292.17
3277.88
3259.7
3237.86
3212.67
3184.49
3153.75
3120.91
3086.46
3050.9
3014.74
2978.45
2942.48
2907.24
2873.08
2840.3
2809.13
2779.76
2752.32
2726.91