/*--------------------------------*- C++ -*----------------------------------*\
| =========                 |                                                 |
| \\      /  F ield         | OpenFOAM: The Open Source CFD Toolbox           |
|  \\    /   O peration     | Version:  3.0.1                                 |
|   \\  /    A nd           | Web:      www.OpenFOAM.org                      |
|    \\/     M anipulation  |                                                 |
\*---------------------------------------------------------------------------*/
FoamFile
{
    version     2.0;
    format      ascii;
    class       volScalarField;
    location    "40.4";
    object      p;
}
// * * * * * * * * * * * * * * * * * * * * * * * * * * * * * * * * * * * * * //

dimensions      [1 -1 -2 0 0 0 0];

internalField   nonuniform List<scalar> 
21420
(
4121.74
4091.33
4059.73
4027.24
3994.23
3960.99
3927.93
3895.35
3863.62
3833.1
3804.43
3776.73
3750.28
3725.35
3702.09
3680.57
3660.81
3642.81
3626.54
3611.96
3599.02
3587.67
3577.86
3569.53
3562.64
3557.14
3552.99
3550.17
3548.65
3548.43
3549.49
3551.78
3555.36
3560.22
3566.4
3573.92
3582.81
3593.12
3604.89
3618.17
3632.99
3649.4
3667.42
3687.1
3708.42
3731.36
3755.9
3781.97
3809.39
3836.12
3865.77
3896.36
3927.6
3959.19
3990.85
4022.3
4053.21
4083.23
4112.06
4139.36
4164.82
4188.15
4209.06
4227.31
4242.7
4255.02
4264.12
4269.89
4272.28
4271.24
4266.73
4258.66
4247.15
4232.46
4214.8
4194.37
4171.42
4146.24
4119.09
4090.33
4060.32
4029.4
3997.93
3966.25
3934.67
3903.52
3873.06
3843.14
3813.46
3785.35
3759.01
3734.43
3711.63
3690.63
3671.4
3653.95
3638.22
3624.21
3611.88
3601.19
3592.11
3584.57
3578.51
3573.88
3570.58
3568.58
3567.81
3568.24
3569.8
3572.48
3576.25
3581.1
3587.05
3594.1
3602.25
3611.53
3621.97
3633.58
3646.39
3660.43
3675.72
3692.29
3710.15
3729.33
3749.82
3771.62
3794.74
3819.2
3844.8
3871.53
3899.29
3927.96
3957.36
3987.29
4017.52
4047.75
4077.67
4106.95
4135.21
4162.07
4187.14
4210.03
4230.36
4247.78
4261.97
4272.64
4279.58
4282.58
4281.6
4276.58
4267.61
4254.73
4238.14
4218.07
4194.82
4168.71
4140.14
4109.51
4077.26
4043.84
4009.7
3975.3
3941.06
3907.36
3874.56
3842.96
3812.83
3784.26
3757.41
3732.37
3709.17
3687.84
3668.35
3650.67
3634.75
3620.53
3607.96
3596.95
3587.45
3579.39
3572.71
3567.36
3563.3
3560.5
3558.94
3558.6
3559.44
3561.46
3564.68
3569.09
3574.7
3581.54
3589.65
3599.05
3609.81
3621.96
3635.55
3650.65
3667.29
3685.51
3705.35
3726.84
3749.98
3774.74
3801.18
3829.04
3858.24
3888.62
3919.95
3951.97
3984.36
4016.77
4048.81
4080.06
4110.08
4138.41
4164.58
4188.15
4208.68
4225.77
4239.05
4248.23
4253.04
4253.38
4249.18
4240.53
4227.47
4210.26
4189.22
4164.72
4137.21
4107.17
4075.1
4041.55
4007.02
3972.03
3937.02
3902.44
3868.64
3835.93
3804.63
3774.84
3746.75
3720.45
3695.99
3673.41
3652.69
3633.81
3616.72
3601.37
3587.68
3575.59
3565.01
3555.89
3548.16
3541.75
3536.6
3532.7
3530.03
3528.54
3528.25
3529.19
3531.37
3534.83
3539.62
3545.81
3553.45
3562.62
3573.41
3585.9
3600.16
3616.28
3634.3
3654.2
3675.94
3699.32
3723.86
3750.06
3790.24
3825.14
3861.44
3899.22
3938.1
3977.63
4017.35
4056.79
4095.25
4132.24
4167.02
4199.02
4227.65
4252.28
4272.47
4287.68
4297.84
4303.2
4303.97
4299.87
4291.3
4278.52
4261.86
4241.64
4218.3
4192.36
4164.2
4134.3
4103.16
4071.1
4038.57
4005.85
3973.31
3941.27
3909.93
3879.51
3850.73
3823.81
3797.65
3772.63
3749
3726.86
3706.26
3687.21
3669.7
3653.72
3639.27
3626.33
3614.9
3605.01
3596.66
3589.89
3584.71
3581.16
3579.29
3579.14
3580.76
3584.16
3589.35
3596.33
3605.08
3615.61
3627.89
3641.89
3657.58
3674.94
3693.91
3714.46
3736.54
3760.04
3784.86
3810.86
3836.36
3863.14
3890.97
3919.52
3948.58
3977.75
4006.75
4023.69
3993.26
3961.64
3929.14
3896.11
3862.86
3829.79
3797.19
3765.46
3734.93
3706.26
3678.55
3652.11
3627.17
3603.91
3582.39
3562.63
3544.63
3528.37
3513.79
3500.86
3489.51
3479.7
3471.37
3464.48
3458.98
3454.84
3452.02
3450.5
3450.28
3451.34
3453.63
3457.21
3462.07
3468.25
3475.77
3484.66
3494.96
3506.73
3520
3534.82
3551.23
3569.25
3588.93
3610.24
3633.18
3657.73
3683.8
3711.24
3737.94
3767.62
3798.22
3829.46
3861.06
3892.73
3924.19
3955.11
3985.16
4014
4041.31
4066.79
4090.13
4111.05
4129.32
4144.71
4157.04
4166.15
4171.93
4174.32
4173.28
4168.75
4160.68
4149.16
4134.47
4116.79
4096.35
4073.39
4048.19
4021.03
3992.25
3962.22
3931.29
3899.81
3868.12
3836.53
3805.37
3774.9
3744.99
3715.29
3687.18
3660.83
3636.25
3613.46
3592.45
3573.23
3555.77
3540.05
3526.04
3513.71
3503.02
3493.94
3486.41
3480.35
3475.72
3472.43
3470.43
3469.66
3470.1
3471.66
3474.33
3478.1
3482.96
3488.91
3495.95
3504.1
3513.39
3523.82
3535.43
3548.24
3562.28
3577.56
3594.13
3611.99
3631.17
3651.65
3673.46
3696.57
3721.04
3746.64
3773.37
3801.13
3829.81
3859.22
3889.16
3919.39
3949.64
3979.57
4008.87
4037.14
4064.02
4089.11
4112.02
4132.37
4149.8
4164
4174.68
4181.63
4184.64
4183.65
4178.63
4169.66
4156.77
4140.17
4120.08
4096.81
4070.69
4042.09
4011.45
3979.18
3945.74
3911.58
3877.17
3842.9
3809.2
3776.39
3744.78
3714.65
3686.07
3659.22
3634.18
3610.99
3589.65
3570.17
3552.49
3536.57
3522.36
3509.79
3498.79
3489.29
3481.23
3474.55
3469.21
3465.15
3462.35
3460.79
3460.45
3461.29
3463.32
3466.53
3470.94
3476.55
3483.39
3491.49
3500.9
3511.65
3523.79
3537.39
3552.48
3569.12
3587.34
3607.18
3628.67
3651.8
3676.57
3703.01
3730.86
3760.07
3790.45
3821.8
3853.83
3886.23
3918.66
3950.72
3981.99
4012.02
4040.37
4066.57
4090.16
4110.71
4127.81
4141.1
4150.29
4155.12
4155.45
4151.25
4142.59
4129.52
4112.3
4091.24
4066.72
4039.19
4009.12
3977.03
3943.46
3908.91
3873.89
3838.87
3804.28
3770.47
3737.76
3706.45
3676.66
3648.56
3622.26
3597.81
3575.23
3554.51
3535.63
3518.55
3503.2
3489.51
3477.42
3466.85
3457.73
3450
3443.6
3438.45
3434.55
3431.88
3430.39
3430.1
3431.04
3433.21
3436.68
3441.47
3447.65
3455.29
3464.45
3475.24
3487.72
3501.99
3518.1
3536.11
3556.02
3577.76
3601.14
3625.68
3651.84
3692.09
3726.97
3763.27
3801.07
3839.96
3879.51
3919.26
3958.72
3997.21
4034.22
4069.02
4101.05
4129.7
4154.35
4174.55
4189.79
4199.98
4205.3
4206.05
4201.95
4193.38
4180.58
4163.9
4143.65
4120.29
4094.33
4066.15
4036.23
4005.07
3973
3940.45
3907.72
3875.17
3843.12
3811.77
3781.34
3752.57
3725.64
3699.48
3674.46
3650.83
3628.69
3608.09
3589.04
3571.53
3555.56
3541.1
3528.16
3516.74
3506.85
3498.5
3491.72
3486.55
3483
3481.12
3480.97
3482.59
3485.99
3491.18
3498.16
3506.91
3517.44
3529.72
3543.72
3559.41
3576.76
3595.74
3616.29
3638.37
3661.88
3686.7
3712.7
3738.21
3765
3792.83
3821.38
3850.45
3879.63
3908.65
3925.68
3895.22
3863.57
3831.04
3797.98
3764.7
3731.6
3698.98
3667.22
3636.69
3608.01
3580.3
3553.85
3528.92
3505.65
3484.13
3464.38
3446.38
3430.12
3415.55
3402.62
3391.28
3381.48
3373.15
3366.27
3360.78
3356.64
3353.82
3352.3
3352.08
3353.13
3355.43
3359.01
3363.87
3370.04
3377.56
3386.44
3396.74
3408.51
3421.77
3436.59
3452.99
3471.01
3490.68
3512
3534.93
3559.48
3585.56
3613.03
3639.69
3669.4
3700.02
3731.28
3762.9
3794.6
3826.08
3857.03
3887.1
3915.97
3943.32
3968.82
3992.19
4013.14
4031.42
4046.84
4059.18
4068.31
4074.1
4076.5
4075.46
4070.9
4062.82
4051.29
4036.58
4018.88
3998.41
3975.42
3950.19
3923
3894.19
3864.13
3833.18
3801.67
3769.96
3738.35
3707.17
3676.68
3646.78
3617.06
3588.94
3562.59
3538.01
3515.21
3494.21
3474.98
3457.53
3441.81
3427.8
3415.47
3404.79
3395.72
3388.19
3382.14
3377.51
3374.23
3372.23
3371.47
3371.91
3373.47
3376.14
3379.91
3384.77
3390.72
3397.76
3405.91
3415.19
3425.62
3437.23
3450.03
3464.07
3479.35
3495.91
3513.77
3532.94
3553.43
3575.23
3598.35
3622.81
3648.41
3675.15
3702.92
3731.61
3761.03
3790.99
3821.25
3851.51
3881.48
3910.8
3939.11
3966.03
3991.15
4014.09
4034.47
4051.94
4066.17
4076.87
4083.84
4086.87
4085.86
4080.84
4071.85
4058.95
4042.32
4022.21
3998.9
3972.74
3944.11
3913.42
3881.11
3847.63
3813.44
3778.99
3744.7
3710.97
3678.15
3646.52
3616.38
3587.8
3560.95
3535.91
3512.72
3491.39
3471.91
3454.24
3438.33
3424.13
3411.56
3400.57
3391.07
3383.02
3376.35
3371.01
3366.95
3364.15
3362.6
3362.25
3363.09
3365.12
3368.33
3372.74
3378.35
3385.19
3393.28
3402.68
3413.43
3425.57
3439.16
3454.25
3470.88
3489.09
3508.93
3530.41
3553.55
3578.31
3604.75
3632.61
3661.83
3692.23
3723.59
3755.64
3788.08
3820.54
3852.63
3883.94
3914.01
3942.4
3968.64
3992.27
4012.86
4029.99
4043.32
4052.53
4057.39
4057.7
4053.49
4044.82
4031.73
4014.48
3993.38
3968.82
3941.24
3911.12
3878.99
3845.37
3810.79
3775.73
3740.68
3706.06
3672.23
3639.5
3608.18
3578.38
3550.29
3523.99
3499.54
3476.96
3456.25
3437.38
3420.3
3404.96
3391.28
3379.2
3368.64
3359.52
3351.79
3345.39
3340.25
3336.36
3333.68
3332.2
3331.91
3332.84
3335.01
3338.47
3343.26
3349.43
3357.06
3366.22
3377
3389.48
3403.73
3419.84
3437.85
3457.76
3479.5
3502.9
3527.43
3553.52
3593.91
3628.72
3665.04
3702.87
3741.79
3781.38
3821.17
3860.68
3899.21
3936.27
3971.13
4003.21
4031.9
4056.59
4076.83
4092.12
4102.37
4107.59
4108.31
4104.21
4095.62
4082.79
4066.07
4045.78
4022.38
3996.37
3968.15
3938.19
3906.99
3874.89
3842.31
3809.56
3776.98
3744.91
3713.54
3683.11
3654.35
3627.4
3601.24
3576.21
3552.58
3530.45
3509.85
3490.8
3473.3
3457.33
3442.88
3429.94
3418.52
3408.62
3400.27
3393.5
3388.32
3384.76
3382.89
3382.73
3384.35
3387.75
3392.94
3399.92
3408.67
3419.2
3431.48
3445.48
3461.17
3478.52
3497.5
3518.05
3540.13
3563.64
3588.47
3614.47
3640.02
3666.8
3694.65
3723.21
3752.3
3781.5
3810.53
3827.73
3797.22
3765.52
3732.93
3699.83
3666.51
3633.37
3600.72
3568.92
3538.37
3509.7
3481.99
3455.52
3430.58
3407.31
3385.79
3366.04
3348.06
3331.81
3317.25
3304.33
3292.99
3283.19
3274.88
3268
3262.51
3258.38
3255.57
3254.05
3253.83
3254.88
3257.18
3260.75
3265.61
3271.78
3279.29
3288.17
3298.47
3310.22
3323.48
3338.29
3354.68
3372.69
3392.36
3413.67
3436.61
3461.16
3487.25
3514.78
3541.35
3571.14
3601.78
3633.07
3664.72
3696.44
3727.97
3758.96
3789.07
3817.99
3845.37
3870.92
3894.32
3915.31
3933.63
3949.08
3961.45
3970.59
3976.4
3978.8
3977.77
3973.17
3965.08
3953.54
3938.8
3921.07
3900.55
3877.52
3852.24
3825.01
3796.16
3766.05
3735.05
3703.51
3671.76
3640.12
3608.92
3578.42
3548.51
3518.75
3490.62
3464.27
3439.69
3416.89
3395.89
3376.67
3359.21
3343.5
3329.49
3317.17
3306.5
3297.43
3289.91
3283.87
3279.25
3275.97
3273.98
3273.23
3273.67
3275.23
3277.91
3281.68
3286.54
3292.48
3299.52
3307.67
3316.94
3327.37
3338.97
3351.77
3365.8
3381.08
3397.64
3415.49
3434.66
3455.14
3476.94
3500.05
3524.52
3550.13
3576.87
3604.66
3633.36
3662.81
3692.79
3723.08
3753.38
3783.39
3812.76
3841.12
3868.09
3893.26
3916.26
3936.69
3954.2
3968.47
3979.2
3986.19
3989.25
3988.22
3983.2
3974.2
3961.26
3944.6
3924.44
3901.08
3874.87
3846.18
3815.43
3783.06
3749.53
3715.29
3680.78
3646.45
3612.69
3579.83
3548.18
3518.03
3489.45
3462.59
3437.55
3414.37
3393.04
3373.57
3355.91
3340.01
3325.82
3313.27
3302.28
3292.8
3284.75
3278.09
3272.75
3268.7
3265.91
3264.35
3264.01
3264.85
3266.88
3270.09
3274.49
3280.1
3286.93
3295.02
3304.42
3315.15
3327.29
3340.87
3355.95
3372.57
3390.77
3410.6
3432.08
3455.21
3479.98
3506.42
3534.29
3563.53
3593.95
3625.34
3657.42
3689.9
3722.4
3754.55
3785.91
3816.05
3844.5
3870.8
3894.49
3915.14
3932.33
3945.69
3954.94
3959.83
3960.13
3955.92
3947.22
3934.09
3916.8
3895.64
3871.01
3843.36
3813.18
3780.98
3747.3
3712.65
3677.54
3642.44
3607.78
3573.92
3541.17
3509.83
3480.03
3451.93
3425.63
3401.18
3378.61
3357.91
3339.05
3321.98
3306.65
3292.98
3280.91
3270.36
3261.26
3253.54
3247.14
3242
3238.11
3235.44
3233.95
3233.66
3234.59
3236.76
3240.21
3244.99
3251.15
3258.77
3267.92
3278.7
3291.16
3305.4
3321.51
3339.51
3359.42
3381.17
3404.57
3429.12
3455.09
3495.67
3530.39
3566.75
3604.62
3643.59
3683.23
3723.08
3762.66
3801.27
3838.41
3873.34
3905.49
3934.26
3959.01
3979.29
3994.66
4004.95
4010.08
4010.77
4006.65
3998.04
3985.16
3968.38
3948.03
3924.55
3898.48
3870.2
3840.18
3808.93
3776.78
3744.16
3711.37
3678.75
3646.65
3615.26
3584.82
3556.06
3529.1
3502.92
3477.9
3454.27
3432.14
3411.54
3392.5
3375
3359.03
3344.59
3331.65
3320.23
3310.34
3301.99
3295.21
3290.03
3286.47
3284.59
3284.43
3286.04
3289.44
3294.63
3301.61
3310.36
3320.88
3333.16
3347.16
3362.86
3380.21
3399.19
3419.74
3441.83
3465.34
3490.18
3516.18
3541.78
3568.56
3596.42
3625.01
3654.12
3683.35
3712.41
3729.82
3699.24
3667.47
3634.83
3601.66
3568.28
3535.09
3502.39
3470.56
3439.98
3411.33
3383.59
3357.11
3332.16
3308.89
3287.37
3267.63
3249.66
3233.42
3218.87
3205.96
3194.64
3184.85
3176.55
3169.68
3164.2
3160.07
3157.26
3155.75
3155.53
3156.58
3158.88
3162.45
3167.31
3173.47
3180.97
3189.84
3200.13
3211.87
3225.12
3239.92
3256.3
3274.31
3293.97
3315.28
3338.21
3362.76
3388.87
3416.46
3442.95
3472.81
3503.49
3534.81
3566.5
3598.28
3629.85
3660.9
3691.06
3720.04
3747.48
3773.08
3796.54
3817.58
3835.95
3851.43
3863.84
3873.01
3878.83
3881.25
3880.22
3875.59
3867.47
3855.9
3841.13
3823.34
3802.78
3779.69
3754.34
3727.05
3698.14
3667.98
3636.92
3605.33
3573.53
3541.86
3510.63
3480.1
3450.19
3420.38
3392.24
3365.88
3341.3
3318.5
3297.49
3278.27
3260.82
3245.11
3231.11
3218.8
3208.14
3199.08
3191.57
3185.54
3180.93
3177.67
3175.69
3174.95
3175.39
3176.96
3179.64
3183.41
3188.26
3194.2
3201.24
3209.38
3218.65
3229.07
3240.67
3253.46
3267.48
3282.75
3299.3
3317.15
3336.31
3356.79
3378.59
3401.7
3426.17
3451.79
3478.54
3506.34
3535.06
3564.54
3594.56
3624.89
3655.24
3685.31
3714.74
3743.16
3770.2
3795.44
3818.51
3839.01
3856.58
3870.9
3881.68
3888.7
3891.78
3890.76
3885.73
3876.69
3863.72
3847.01
3826.79
3803.36
3777.07
3748.31
3717.48
3685.03
3651.42
3617.11
3582.54
3548.15
3514.34
3481.44
3449.76
3419.6
3391
3364.14
3339.11
3315.93
3294.62
3275.16
3257.51
3241.63
3227.45
3214.91
3203.94
3194.47
3186.43
3179.77
3174.44
3170.4
3167.61
3166.06
3165.72
3166.56
3168.59
3171.8
3176.2
3181.8
3188.63
3196.71
3206.09
3216.82
3228.94
3242.51
3257.58
3274.19
3292.38
3312.2
3333.67
3356.8
3381.58
3408.01
3435.9
3465.16
3495.61
3527.03
3559.16
3591.69
3624.26
3656.47
3687.91
3718.13
3746.66
3773.05
3796.82
3817.54
3834.8
3848.23
3857.51
3862.43
3862.74
3858.52
3849.79
3836.62
3819.25
3798.02
3773.31
3745.57
3715.29
3683
3649.23
3614.5
3579.32
3544.16
3509.45
3475.54
3442.77
3411.41
3381.59
3353.48
3327.18
3302.74
3280.18
3259.49
3240.64
3223.59
3208.27
3194.62
3182.56
3172.02
3162.93
3155.22
3148.83
3143.71
3139.82
3137.15
3135.66
3135.37
3136.29
3138.45
3141.9
3146.66
3152.82
3160.43
3169.56
3180.32
3192.76
3207
3223.09
3241.09
3261
3282.75
3306.18
3330.73
3356.57
3397.37
3431.98
3468.39
3506.32
3545.36
3585.07
3625
3664.67
3703.38
3740.62
3775.66
3807.91
3836.77
3861.6
3881.95
3897.4
3907.72
3912.79
3913.43
3909.3
3900.64
3887.69
3870.82
3850.39
3826.82
3800.66
3772.29
3742.2
3710.88
3678.66
3645.98
3613.14
3580.48
3548.34
3516.92
3486.45
3457.71
3430.73
3404.54
3379.51
3355.88
3333.75
3313.16
3294.13
3276.64
3260.68
3246.23
3233.3
3221.88
3211.99
3203.63
3196.85
3191.67
3188.11
3186.23
3186.05
3187.67
3191.06
3196.24
3203.23
3211.97
3222.5
3234.78
3248.78
3264.47
3281.83
3300.8
3321.36
3343.45
3366.98
3391.83
3417.83
3443.5
3470.28
3498.16
3526.77
3555.92
3585.18
3614.28
3631.97
3601.3
3569.45
3536.72
3503.48
3470.03
3436.77
3404.01
3372.12
3341.5
3312.89
3285.13
3258.62
3233.66
3210.39
3188.88
3169.15
3151.18
3134.96
3120.42
3107.53
3096.22
3086.45
3078.16
3071.3
3065.83
3061.71
3058.91
3057.4
3057.18
3058.23
3060.52
3064.1
3068.95
3075.1
3082.6
3091.46
3101.73
3113.46
3126.7
3141.48
3157.86
3175.85
3195.5
3216.8
3239.74
3264.29
3290.41
3318.07
3344.49
3374.44
3405.16
3436.52
3468.26
3500.09
3531.73
3562.84
3593.08
3622.12
3649.64
3675.31
3698.84
3719.94
3738.37
3753.9
3766.35
3775.55
3781.4
3783.82
3782.8
3778.14
3769.98
3758.39
3743.56
3725.72
3705.08
3681.92
3656.5
3629.13
3600.14
3569.91
3538.78
3507.12
3475.27
3443.55
3412.28
3381.72
3351.81
3321.94
3293.78
3267.42
3242.83
3220.03
3199.03
3179.81
3162.36
3146.66
3132.67
3120.37
3109.71
3100.67
3093.17
3087.16
3082.56
3079.31
3077.34
3076.61
3077.06
3078.64
3081.32
3085.09
3089.94
3095.88
3102.91
3111.05
3120.31
3130.73
3142.31
3155.1
3169.11
3184.37
3200.91
3218.75
3237.91
3258.38
3280.17
3303.28
3327.77
3353.38
3380.15
3407.97
3436.72
3466.23
3496.29
3526.67
3557.09
3587.22
3616.73
3645.24
3672.36
3697.7
3720.85
3741.43
3759.08
3773.47
3784.31
3791.36
3794.46
3793.45
3788.41
3779.34
3766.32
3749.54
3729.25
3705.74
3679.36
3650.49
3619.57
3587.02
3553.31
3518.91
3484.26
3449.8
3415.92
3382.98
3351.27
3321.09
3292.47
3265.61
3240.58
3217.41
3196.11
3176.66
3159.03
3143.17
3129.01
3116.49
3105.53
3096.07
3088.05
3081.41
3076.09
3072.05
3069.27
3067.72
3067.38
3068.23
3070.25
3073.46
3077.86
3083.45
3090.27
3098.34
3107.71
3118.43
3130.54
3144.09
3159.15
3175.74
3193.92
3213.73
3235.19
3258.31
3283.09
3309.52
3337.43
3366.72
3397.2
3428.67
3460.86
3493.46
3526.1
3558.41
3589.94
3620.26
3648.89
3675.38
3699.26
3720.08
3737.42
3750.92
3760.26
3765.2
3765.54
3761.3
3752.53
3739.29
3721.85
3700.52
3675.7
3647.85
3617.46
3585.05
3551.17
3516.34
3481.07
3445.83
3411.05
3377.1
3344.28
3312.89
3283.06
3254.95
3228.65
3204.21
3181.66
3160.99
3142.16
3125.12
3109.82
3096.19
3084.15
3073.63
3064.55
3056.86
3050.48
3045.36
3041.49
3038.81
3037.32
3037.03
3037.94
3040.1
3043.53
3048.29
3054.43
3062.01
3071.13
3081.87
3094.3
3108.52
3124.6
3142.59
3162.5
3184.26
3207.71
3232.29
3257.97
3298.99
3333.48
3369.96
3407.97
3447.09
3486.89
3526.92
3566.71
3605.54
3642.91
3678.08
3710.46
3739.43
3764.36
3784.81
3800.33
3810.69
3815.72
3816.3
3812.12
3803.41
3790.37
3773.41
3752.86
3729.18
3702.91
3674.44
3644.25
3612.83
3580.54
3547.79
3514.89
3482.17
3449.98
3418.51
3388.02
3359.3
3332.29
3306.09
3281.05
3257.42
3235.29
3214.71
3195.69
3178.21
3162.25
3147.82
3134.89
3123.47
3113.57
3105.22
3098.43
3093.24
3089.68
3087.8
3087.61
3089.22
3092.61
3097.79
3104.77
3113.52
3124.04
3136.32
3150.32
3166.02
3183.37
3202.35
3222.91
3245.01
3268.55
3293.41
3319.42
3345.16
3371.94
3399.85
3428.5
3457.68
3486.99
3516.14
3534.16
3503.39
3471.43
3438.61
3405.27
3371.74
3338.41
3305.57
3273.62
3242.94
3214.38
3186.59
3160.06
3135.08
3111.81
3090.3
3070.58
3052.64
3036.43
3021.91
3009.03
2997.75
2987.99
2979.71
2972.86
2967.4
2963.29
2960.5
2959
2958.78
2959.83
2962.12
2965.69
2970.54
2976.69
2984.17
2993.02
3003.27
3014.99
3028.21
3042.98
3059.34
3077.32
3096.96
3118.26
3141.19
3165.74
3191.87
3219.58
3246
3276.01
3306.78
3338.19
3369.99
3401.89
3433.6
3464.79
3495.12
3524.25
3551.85
3577.61
3601.22
3622.4
3640.89
3656.49
3668.98
3678.22
3684.09
3686.53
3685.51
3680.82
3672.62
3660.98
3646.1
3628.18
3607.47
3584.21
3558.7
3531.25
3502.17
3471.84
3440.63
3408.9
3376.98
3345.21
3313.89
3283.29
3253.38
3223.42
3195.26
3168.89
3144.29
3121.49
3100.49
3081.27
3063.83
3048.13
3034.15
3021.86
3011.22
3002.19
2994.71
2988.72
2984.14
2980.9
2978.95
2978.23
2978.69
2980.27
2982.96
2986.73
2991.58
2997.51
3004.54
3012.67
3021.93
3032.33
3043.91
3056.68
3070.68
3085.93
3102.47
3120.3
3139.44
3159.91
3181.7
3204.8
3229.3
3254.92
3281.7
3309.54
3338.32
3367.87
3397.99
3428.44
3458.93
3489.14
3518.74
3547.35
3574.58
3600.02
3623.28
3643.96
3661.71
3676.18
3687.08
3694.18
3697.3
3696.31
3691.25
3682.13
3669.06
3652.21
3631.82
3608.21
3581.72
3552.74
3521.69
3489.03
3455.21
3420.69
3385.94
3351.4
3317.45
3284.45
3252.69
3222.49
3193.86
3166.99
3141.96
3118.8
3097.52
3078.09
3060.48
3044.64
3030.5
3018
3007.06
2997.63
2989.62
2982.99
2977.68
2973.65
2970.88
2969.33
2969
2969.84
2971.87
2975.08
2979.47
2985.05
2991.86
2999.92
3009.28
3019.98
3032.07
3045.61
3060.64
3077.22
3095.39
3115.18
3136.63
3159.75
3184.53
3210.96
3238.89
3268.21
3298.74
3330.26
3362.52
3395.2
3427.93
3460.34
3491.99
3522.43
3551.19
3577.8
3601.81
3622.74
3640.19
3653.77
3663.17
3668.15
3668.52
3664.26
3655.43
3642.13
3624.59
3603.15
3578.2
3550.21
3519.67
3487.13
3453.12
3418.16
3382.78
3347.45
3312.6
3278.58
3245.72
3214.3
3184.45
3156.32
3130.03
3105.6
3083.06
3062.41
3043.6
3026.58
3011.31
2997.7
2985.68
2975.18
2966.12
2958.44
2952.08
2946.97
2943.1
2940.43
2938.94
2938.64
2939.55
2941.69
2945.11
2949.85
2955.97
2963.54
2972.64
2983.35
2995.76
3009.96
3026.03
3044.01
3063.92
3085.69
3109.17
3133.78
3159.32
3200.5
3234.89
3271.46
3309.57
3348.78
3388.69
3428.84
3468.77
3507.75
3545.28
3580.61
3613.14
3642.25
3667.31
3687.85
3703.46
3713.85
3718.85
3719.38
3715.14
3706.35
3693.21
3676.13
3655.45
3631.63
3605.23
3576.63
3546.32
3514.8
3482.41
3449.58
3416.6
3383.81
3351.56
3320.04
3289.52
3260.83
3233.78
3207.56
3182.52
3158.88
3136.77
3116.2
3097.18
3079.71
3063.77
3049.34
3036.41
3024.99
3015.1
3006.74
2999.95
2994.76
2991.19
2989.3
2989.1
2990.71
2994.09
2999.27
3006.25
3014.99
3025.51
3037.79
3051.79
3067.49
3084.85
3103.83
3124.39
3146.5
3170.05
3194.93
3220.96
3246.77
3273.56
3301.49
3330.19
3359.42
3388.78
3417.99
3436.4
3405.51
3373.43
3340.49
3307.05
3273.42
3240
3207.08
3175.04
3144.3
3115.82
3087.98
3061.41
3036.42
3013.14
2991.64
2971.94
2954.01
2937.82
2923.33
2910.47
2899.2
2889.46
2881.2
2874.37
2868.92
2864.82
2862.04
2860.55
2860.33
2861.38
2863.67
2867.24
2872.07
2878.21
2885.69
2894.52
2904.76
2916.46
2929.66
2944.41
2960.75
2978.72
2998.35
3019.64
3042.57
3067.12
3093.26
3120.99
3147.49
3177.54
3208.35
3239.82
3271.68
3303.66
3335.47
3366.75
3397.18
3426.41
3454.11
3479.97
3503.68
3524.94
3543.52
3559.19
3571.74
3581.03
3586.93
3589.38
3588.35
3583.63
3575.39
3563.7
3548.75
3530.75
3509.93
3486.58
3460.96
3433.4
3404.21
3373.78
3342.47
3310.65
3278.66
3246.82
3215.44
3184.81
3154.89
3124.83
3096.66
3070.28
3045.68
3022.88
3001.88
2982.66
2965.23
2949.54
2935.57
2923.29
2912.67
2903.66
2896.2
2890.22
2885.66
2882.45
2880.51
2879.81
2880.27
2881.86
2884.55
2888.33
2893.18
2899.1
2906.12
2914.25
2923.49
2933.89
2945.45
2958.21
2972.2
2987.44
3003.96
3021.78
3040.91
3061.37
3083.15
3106.25
3130.76
3156.39
3183.19
3211.06
3239.88
3269.48
3299.66
3330.18
3360.75
3391.07
3420.78
3449.5
3476.85
3502.42
3525.8
3546.6
3564.45
3579.02
3589.99
3597.15
3600.3
3599.32
3594.24
3585.08
3571.94
3555
3534.51
3510.78
3484.15
3455.04
3423.85
3391.05
3357.09
3322.45
3287.59
3252.94
3218.91
3185.84
3154.03
3123.81
3095.16
3068.29
3043.26
3020.11
2998.85
2979.44
2961.86
2946.04
2931.92
2919.45
2908.54
2899.12
2891.13
2884.52
2879.22
2875.2
2872.44
2870.9
2870.56
2871.41
2873.44
2876.64
2881.03
2886.61
2893.4
2901.45
2910.79
2921.47
2933.54
2947.06
2962.08
2978.64
2996.78
3016.55
3037.99
3061.1
3085.88
3112.32
3140.28
3169.63
3200.21
3231.8
3264.13
3296.91
3329.75
3362.28
3394.06
3424.64
3453.55
3480.31
3504.46
3525.53
3543.1
3556.78
3566.26
3571.29
3571.67
3567.4
3558.51
3545.12
3527.47
3505.89
3480.79
3452.64
3421.94
3389.24
3355.07
3319.97
3284.47
3249.03
3214.08
3179.99
3147.08
3115.62
3085.75
3057.62
3031.32
3006.9
2984.38
2963.75
2944.96
2927.97
2912.72
2899.14
2887.15
2876.67
2867.63
2859.97
2853.62
2848.53
2844.67
2842
2840.51
2840.2
2841.1
2843.24
2846.64
2851.36
2857.46
2865.01
2874.08
2884.76
2897.15
2911.33
2927.38
2945.35
2965.26
2987.04
3010.55
3035.23
3060.67
3101.86
3136.2
3172.9
3211.12
3250.44
3290.47
3330.77
3370.86
3410.01
3447.73
3483.24
3515.95
3545.23
3570.43
3591.09
3606.79
3617.22
3622.19
3622.67
3618.36
3609.48
3596.21
3578.98
3558.15
3534.18
3507.62
3478.87
3448.43
3416.78
3384.28
3351.34
3318.28
3285.41
3253.09
3221.51
3190.95
3162.3
3135.2
3108.97
3083.91
3060.28
3038.17
3017.61
2998.61
2981.15
2965.22
2950.79
2937.87
2926.46
2916.56
2908.2
2901.4
2896.2
2892.63
2890.73
2890.53
2892.13
2895.5
2900.68
2907.65
2916.4
2926.92
2939.19
2953.19
2968.89
2986.25
3005.23
3025.8
3047.92
3071.49
3096.39
3122.44
3148.33
3175.12
3203.1
3231.84
3261.13
3290.56
3319.84
3338.68
3307.66
3275.45
3242.38
3208.81
3175.07
3141.54
3108.53
3076.39
3045.57
3017.2
2989.3
2962.69
2937.67
2914.4
2892.91
2873.22
2855.31
2839.14
2824.67
2811.84
2800.6
2790.88
2782.64
2775.82
2770.39
2766.31
2763.53
2762.04
2761.83
2762.88
2765.17
2768.73
2773.56
2779.69
2787.15
2795.96
2806.18
2817.86
2831.04
2845.78
2862.1
2880.05
2899.66
2920.94
2943.87
2968.42
2994.56
3022.29
3048.94
3079.02
3109.87
3141.4
3173.35
3205.42
3237.33
3268.72
3299.26
3328.61
3356.43
3382.4
3406.21
3427.58
3446.25
3462
3474.62
3483.96
3489.89
3492.36
3491.32
3486.58
3478.29
3466.53
3451.5
3433.4
3412.48
3389.01
3363.27
3335.58
3306.27
3275.72
3244.31
3212.38
3180.3
3148.38
3116.95
3086.28
3056.34
3026.17
2997.98
2971.6
2947
2924.19
2903.19
2883.98
2866.55
2850.87
2836.91
2824.65
2814.05
2805.06
2797.62
2791.67
2787.13
2783.94
2782.03
2781.33
2781.81
2783.41
2786.11
2789.88
2794.73
2800.65
2807.66
2815.78
2825.01
2835.39
2846.94
2859.69
2873.66
2888.89
2905.39
2923.2
2942.32
2962.77
2984.55
3007.63
3032.17
3057.8
3084.62
3112.52
3141.38
3171.04
3201.29
3231.89
3262.57
3292.99
3322.83
3351.68
3379.17
3404.88
3428.4
3449.34
3467.32
3481.99
3493.06
3500.27
3503.46
3502.5
3497.39
3488.18
3474.96
3457.92
3437.31
3413.44
3386.67
3357.39
3326.05
3293.09
3258.98
3224.19
3189.2
3154.43
3120.3
3087.17
3055.3
3025.03
2996.37
2969.49
2944.47
2921.34
2900.1
2880.71
2863.15
2847.36
2833.28
2820.83
2809.95
2800.56
2792.59
2785.99
2780.71
2776.71
2773.95
2772.42
2772.09
2772.94
2774.96
2778.16
2782.54
2788.11
2794.9
2802.93
2812.25
2822.9
2834.95
2848.45
2863.44
2879.98
2898.1
2917.86
2939.27
2962.37
2987.16
3013.61
3041.59
3070.98
3101.62
3133.28
3165.71
3198.59
3231.56
3264.23
3296.16
3326.9
3355.98
3382.91
3407.22
3428.45
3446.16
3459.96
3469.53
3474.6
3475.01
3470.71
3461.76
3448.27
3430.49
3408.76
3383.48
3355.15
3324.26
3291.37
3257.03
3221.77
3186.12
3150.55
3115.5
3081.33
3048.36
3016.85
2986.96
2958.82
2932.52
2908.12
2885.62
2865
2846.24
2829.29
2814.07
2800.51
2788.55
2778.1
2769.09
2761.45
2755.12
2750.04
2746.19
2743.52
2742.03
2741.72
2742.61
2744.73
2748.11
2752.82
2758.9
2766.41
2775.45
2786.11
2798.46
2812.62
2828.65
2846.6
2866.51
2888.31
2911.86
2936.62
2962.1
3002.99
3037.42
3074.28
3112.61
3152.07
3192.24
3232.7
3272.98
3312.33
3350.25
3385.98
3418.9
3448.37
3473.73
3494.52
3510.33
3520.8
3525.74
3526.16
3521.78
3512.78
3499.37
3481.97
3460.96
3436.81
3410.07
3381.16
3350.56
3318.77
3286.14
3253.09
3219.92
3186.97
3154.56
3122.92
3092.31
3063.7
3036.56
3010.3
2985.23
2961.6
2939.5
2918.95
2899.96
2882.52
2866.6
2852.19
2839.27
2827.86
2817.96
2809.6
2802.8
2797.59
2794.01
2792.09
2791.88
2793.47
2796.84
2802.02
2808.99
2817.73
2828.25
2840.52
2854.52
2870.22
2887.58
2906.57
2927.14
2949.27
2972.86
2997.78
3023.88
3049.82
3076.64
3104.66
3133.46
3162.82
3192.31
3221.67
3241.02
3209.83
3177.47
3144.26
3110.56
3076.68
3043.04
3009.92
2977.67
2946.75
2918.53
2890.55
2863.88
2838.85
2815.57
2794.09
2774.42
2756.53
2740.39
2725.95
2713.15
2701.93
2692.24
2684.02
2677.22
2671.81
2667.73
2664.97
2663.49
2663.28
2664.33
2666.62
2670.18
2675
2681.11
2688.55
2697.35
2707.55
2719.21
2732.36
2747.07
2763.37
2781.3
2800.9
2822.17
2845.09
2869.64
2895.79
2923.48
2950.37
2980.44
3011.34
3042.95
3074.99
3107.16
3139.18
3170.7
3201.36
3230.84
3258.79
3284.89
3308.83
3330.31
3349.08
3364.93
3377.62
3387.02
3392.99
3395.47
3394.43
3389.66
3381.31
3369.49
3354.36
3336.16
3315.11
3291.5
3265.62
3237.8
3208.36
3177.67
3146.13
3114.09
3081.91
3049.91
3018.4
2987.69
2957.74
2927.43
2899.24
2872.85
2848.25
2825.43
2804.43
2785.23
2767.8
2752.13
2738.19
2725.95
2715.36
2706.4
2698.99
2693.06
2688.55
2685.38
2683.49
2682.82
2683.31
2684.92
2687.62
2691.39
2696.23
2702.15
2709.16
2717.26
2726.48
2736.85
2748.39
2761.12
2775.07
2790.28
2806.77
2824.56
2843.67
2864.11
2885.88
2908.95
2933.52
2959.15
2985.99
3013.93
3042.84
3072.55
3102.88
3133.58
3164.37
3194.92
3224.89
3253.9
3281.55
3307.42
3331.1
3352.19
3370.31
3385.11
3396.27
3403.56
3406.79
3405.84
3400.71
3391.43
3378.12
3360.97
3340.22
3316.2
3289.26
3259.81
3228.28
3195.14
3160.86
3125.91
3090.77
3055.87
3021.63
2988.41
2956.49
2926.17
2897.49
2870.61
2845.6
2822.48
2801.26
2781.91
2764.38
2748.62
2734.56
2722.15
2711.3
2701.93
2693.99
2687.41
2682.15
2678.16
2675.41
2673.89
2673.56
2674.42
2676.44
2679.64
2684.01
2689.57
2696.34
2704.35
2713.65
2724.28
2736.31
2749.78
2764.74
2781.25
2799.35
2819.08
2840.48
2863.57
2888.35
2914.81
2942.83
2972.26
3002.96
3034.71
3067.24
3100.24
3133.35
3166.18
3198.28
3229.2
3258.47
3285.59
3310.09
3331.49
3349.36
3363.3
3372.96
3378.1
3378.53
3374.21
3365.19
3351.58
3333.66
3311.75
3286.28
3257.73
3226.63
3193.53
3158.99
3123.55
3087.74
3052.03
3016.86
2982.6
2949.56
2918.01
2888.08
2859.93
2833.64
2809.25
2786.77
2766.18
2747.45
2730.53
2715.34
2701.82
2689.89
2679.47
2670.49
2662.88
2656.57
2651.51
2647.66
2644.99
2643.5
2643.19
2644.07
2646.17
2649.54
2654.22
2660.27
2667.75
2676.76
2687.38
2699.7
2713.83
2729.83
2747.77
2767.68
2789.5
2813.09
2837.96
2863.58
2903.9
2938.53
2975.59
3014.06
3053.66
3093.98
3134.63
3175.12
3214.69
3252.85
3288.82
3321.97
3351.66
3377.21
3398.15
3414.06
3424.59
3429.5
3429.86
3425.38
3416.26
3402.68
3385.11
3363.89
3339.54
3312.6
3283.49
3252.72
3220.77
3187.99
3154.81
3121.53
3088.48
3055.98
3024.26
2993.61
2965.02
2937.84
2911.56
2886.48
2862.84
2840.75
2820.22
2801.25
2783.83
2767.92
2753.52
2740.61
2729.2
2719.3
2710.93
2704.12
2698.91
2695.32
2693.39
2693.17
2694.75
2698.12
2703.29
2710.25
2718.99
2729.5
2741.78
2755.78
2771.48
2788.84
2807.83
2828.41
2850.55
2874.16
2899.12
2925.26
2951.25
2978.1
3006.18
3035.04
3064.47
3094.05
3123.5
3143.4
3112.04
3079.51
3046.13
3012.28
2978.26
2944.49
2911.25
2878.88
2847.82
2819.81
2791.72
2764.99
2739.94
2716.66
2695.19
2675.54
2657.68
2641.57
2627.16
2614.39
2603.2
2593.53
2585.34
2578.56
2573.17
2569.11
2566.36
2564.89
2564.69
2565.73
2568.02
2571.57
2576.38
2582.48
2589.9
2598.68
2608.85
2620.49
2633.62
2648.3
2664.58
2682.48
2702.07
2723.32
2746.24
2770.79
2796.93
2824.58
2851.77
2881.81
2912.77
2944.45
2976.59
3008.88
3041.02
3072.68
3103.49
3133.11
3161.21
3187.45
3211.53
3233.14
3252.03
3267.97
3280.75
3290.21
3296.23
3298.73
3297.67
3292.87
3284.46
3272.56
3257.33
3239.01
3217.82
3194.07
3168.03
3140.06
3110.46
3079.63
3047.94
3015.78
2983.48
2951.39
2919.81
2889.04
2859.09
2828.61
2800.42
2774.03
2749.42
2726.6
2705.6
2686.4
2668.98
2653.32
2639.39
2627.17
2616.61
2607.67
2600.29
2594.4
2589.91
2586.77
2584.91
2584.25
2584.76
2586.38
2589.08
2592.86
2597.7
2603.61
2610.6
2618.7
2627.91
2638.26
2649.78
2662.49
2676.43
2691.62
2708.09
2725.87
2744.96
2765.39
2787.15