/*--------------------------------*- C++ -*----------------------------------*\
| =========                 |                                                 |
| \\      /  F ield         | OpenFOAM: The Open Source CFD Toolbox           |
|  \\    /   O peration     | Version:  3.0.1                                 |
|   \\  /    A nd           | Web:      www.OpenFOAM.org                      |
|    \\/     M anipulation  |                                                 |
\*---------------------------------------------------------------------------*/
FoamFile
{
    version     2.0;
    format      ascii;
    class       volVectorField;
    location    "41.4";
    object      U;
}
// * * * * * * * * * * * * * * * * * * * * * * * * * * * * * * * * * * * * * //

dimensions      [0 1 -1 0 0 0 0];

internalField   nonuniform List<vector> 
21420
(
(-0.118243 -0.000608792 0)
(-0.112479 -0.000693809 0)
(-0.105061 -0.000778306 0)
(-0.0967614 -0.000865365 0)
(-0.0875421 -0.000962254 0)
(-0.077376 -0.00105426 0)
(-0.0662395 -0.0011579 0)
(-0.0541202 -0.00125165 0)
(-0.0410192 -0.00134306 0)
(-0.0269491 -0.00144846 0)
(-0.0118727 -0.00153161 0)
(0.00402564 -0.00161067 0)
(0.0206771 -0.00170168 0)
(0.0381133 -0.00175642 0)
(0.0561418 -0.00182736 0)
(0.0746216 -0.00185327 0)
(0.0933791 -0.00185921 0)
(0.112225 -0.00187905 0)
(0.130952 -0.0018441 0)
(0.149324 -0.00178478 0)
(0.167097 -0.0017324 0)
(0.184027 -0.00162643 0)
(0.199856 -0.00149689 0)
(0.214332 -0.00136342 0)
(0.227222 -0.00118975 0)
(0.238306 -0.0010063 0)
(0.247391 -0.000796025 0)
(0.254316 -0.000573938 0)
(0.258966 -0.000342897 0)
(0.261214 -0.000107944 0)
(0.261127 0.000128435 0)
(0.25866 0.00036313 0)
(0.253784 0.000596015 0)
(0.246732 0.000800509 0)
(0.237604 0.0010014 0)
(0.226569 0.00119054 0)
(0.213828 0.00133229 0)
(0.199621 0.00147417 0)
(0.184174 0.00159768 0)
(0.167721 0.00166513 0)
(0.150515 0.00173777 0)
(0.132794 0.0017585 0)
(0.114789 0.00178472 0)
(0.0966997 0.00179169 0)
(0.0787194 0.00175588 0)
(0.0610375 0.00172563 0)
(0.0438152 0.0016831 0)
(0.0271427 0.0016075 0)
(0.0111156 0.00153188 0)
(-0.00381401 0.00146986 0)
(-0.0178486 0.00137954 0)
(-0.0312939 0.00129448 0)
(-0.0438806 0.00120264 0)
(-0.055596 0.00111695 0)
(-0.0664488 0.00103031 0)
(-0.076458 0.00094433 0)
(-0.085634 0.000863307 0)
(-0.0939866 0.000784098 0)
(-0.101548 0.000706112 0)
(-0.108347 0.000632186 0)
(-0.114411 0.000558684 0)
(-0.119767 0.000491676 0)
(-0.124432 0.000423356 0)
(-0.128398 0.000355075 0)
(-0.131704 0.000292373 0)
(-0.13437 0.000227274 0)
(-0.136341 0.000158748 0)
(-0.137675 9.50687e-05 0)
(-0.138422 2.53551e-05 0)
(-0.138457 -3.26171e-05 0)
(-0.137839 -9.09527e-05 0)
(-0.136541 -0.000149804 0)
(-0.134551 -0.000212509 0)
(-0.132051 -0.000259252 0)
(-0.128894 -0.000324519 0)
(-0.125123 -0.000374388 0)
(-0.120828 -0.00043119 0)
(-0.115822 -0.000490285 0)
(-0.110173 -0.000547987 0)
(-0.10394 -0.000604887 0)
(-0.0969632 -0.00067282 0)
(-0.0892023 -0.000742035 0)
(-0.0807617 -0.000814504 0)
(-0.0714144 -0.000890362 0)
(-0.0611388 -0.000980952 0)
(-0.0500228 -0.0010775 0)
(-0.0379816 -0.0011693 0)
(-0.0249645 -0.00126375 0)
(-0.0111043 -0.00136359 0)
(0.00306166 -0.00150414 0)
(0.0183543 -0.00160831 0)
(0.0352996 -0.00170624 0)
(0.0532867 -0.00179968 0)
(0.0722248 -0.00186985 0)
(0.0917798 -0.00191985 0)
(0.111535 -0.00195265 0)
(0.131335 -0.00192924 0)
(0.150785 -0.00189249 0)
(0.169475 -0.00179904 0)
(0.187089 -0.00168058 0)
(0.203375 -0.00154336 0)
(0.218096 -0.00137534 0)
(0.231046 -0.00118873 0)
(0.242044 -0.000990905 0)
(0.250975 -0.000777732 0)
(0.257742 -0.000563216 0)
(0.26229 -0.000342751 0)
(0.264562 -0.000119113 0)
(0.264639 0.000107158 0)
(0.262402 0.000335138 0)
(0.257871 0.000552501 0)
(0.251255 0.000759427 0)
(0.242586 0.000956356 0)
(0.232042 0.00113736 0)
(0.219739 0.00129912 0)
(0.205914 0.00143866 0)
(0.190789 0.00156162 0)
(0.174527 0.00165851 0)
(0.157385 0.00173388 0)
(0.139644 0.00178889 0)
(0.121484 0.00181128 0)
(0.103156 0.00182134 0)
(0.0848953 0.00180899 0)
(0.066832 0.00177477 0)
(0.0492074 0.00171923 0)
(0.0321421 0.00165326 0)
(0.0158017 0.00159061 0)
(0.000307055 0.00149779 0)
(-0.014347 0.00140237 0)
(-0.0280222 0.00131499 0)
(-0.0407039 0.0012077 0)
(-0.0523831 0.00111 0)
(-0.0630488 0.00101339 0)
(-0.0727504 0.00091043 0)
(-0.0814698 0.000816378 0)
(-0.0892313 0.000723438 0)
(-0.096081 0.000639144 0)
(-0.102093 0.000553651 0)
(-0.107284 0.00047419 0)
(-0.111669 0.000400254 0)
(-0.115335 0.000326079 0)
(-0.118303 0.00025282 0)
(-0.12056 0.000197482 0)
(-0.122197 0.000129909 0)
(-0.123236 7.81703e-05 0)
(-0.123714 2.29789e-05 0)
(-0.12366 -3.68319e-05 0)
(-0.123028 -8.33584e-05 0)
(-0.121862 -0.000140459 0)
(-0.120223 -0.000198085 0)
(-0.117997 -0.000233374 0)
(-0.115238 -0.000305825 0)
(-0.111956 -0.000351801 0)
(-0.108105 -0.000412149 0)
(-0.103712 -0.000460701 0)
(-0.0987768 -0.000519359 0)
(-0.0932417 -0.000579809 0)
(-0.0870627 -0.000642026 0)
(-0.0802344 -0.000705643 0)
(-0.0727575 -0.00077295 0)
(-0.0646216 -0.000851117 0)
(-0.0557187 -0.00091725 0)
(-0.046007 -0.000995482 0)
(-0.0355539 -0.00107404 0)
(-0.0243147 -0.00114753 0)
(-0.0123459 -0.00123324 0)
(0.000498921 -0.00130311 0)
(0.0141115 -0.00138702 0)
(0.0284635 -0.00145664 0)
(0.0434787 -0.00152282 0)
(0.0591531 -0.00158607 0)
(0.0753624 -0.00163222 0)
(0.0920137 -0.00166585 0)
(0.108993 -0.00168982 0)
(0.126124 -0.00170061 0)
(0.143271 -0.00169816 0)
(0.160261 -0.00166969 0)
(0.176896 -0.00162446 0)
(0.192963 -0.00156144 0)
(0.208238 -0.00146 0)
(0.222421 -0.00134019 0)
(0.235209 -0.00119287 0)
(0.246331 -0.00101637 0)
(0.255558 -0.000805198 0)
(0.2626 -0.000585862 0)
(0.267301 -0.000339571 0)
(0.269454 -9.63094e-05 0)
(0.269157 0.000158998 0)
(0.266166 0.000423439 0)
(0.2606 0.000665491 0)
(0.252708 0.000902585 0)
(0.242565 0.0011089 0)
(0.230408 0.00130183 0)
(0.216421 0.00147066 0)
(0.200845 0.00160865 0)
(0.183972 0.00173787 0)
(0.166066 0.00182031 0)
(0.147377 0.00187921 0)
(0.128199 0.00191815 0)
(0.108803 0.00192489 0)
(0.0894414 0.00191682 0)
(0.0703197 0.00187493 0)
(0.051713 0.00181667 0)
(0.0338072 0.00173548 0)
(0.0166988 0.00165365 0)
(0.000552566 0.00155643 0)
(-0.0145745 0.00144702 0)
(-0.0286547 0.00134491 0)
(-0.0416441 0.00123793 0)
(-0.053577 0.00112952 0)
(-0.0644415 0.00102681 0)
(-0.0742665 0.000921332 0)
(-0.0830583 0.00082287 0)
(-0.0908882 0.000730966 0)
(-0.0978011 0.000636432 0)
(-0.1038 0.000558491 0)
(-0.108975 0.00047139 0)
(-0.113354 0.0003995 0)
(-0.116968 0.000313556 0)
(-0.119814 0.000248143 0)
(-0.121956 0.000174608 0)
(-0.123451 0.000123115 0)
(-0.124294 5.63437e-05 0)
(-0.124606 3.50439e-06 0)
(-0.124288 -6.16917e-05 0)
(-0.123361 -0.000120366 0)
(-0.12186 -0.000187975 0)
(-0.11971 -0.00023425 0)
(-0.116897 -0.000308327 0)
(-0.11349 -0.000368805 0)
(-0.109427 -0.000446384 0)
(-0.10462 -0.000508662 0)
(-0.099105 -0.000575479 0)
(-0.0928649 -0.000650148 0)
(-0.0859167 -0.000724942 0)
(-0.0782602 -0.000811225 0)
(-0.0697618 -0.000869203 0)
(-0.0605156 -0.000956184 0)
(-0.0505025 -0.00103155 0)
(-0.0396677 -0.00111381 0)
(-0.0280271 -0.00119115 0)
(-0.0156111 -0.00128321 0)
(-0.00232692 -0.00134619 0)
(0.0117753 -0.00142633 0)
(0.0265702 -0.00150762 0)
(0.0421377 -0.00157717 0)
(0.0583856 -0.0016383 0)
(0.0752091 -0.00169499 0)
(0.0925193 -0.00173561 0)
(0.110126 -0.00175211 0)
(0.127842 -0.00175761 0)
(0.145474 -0.00173547 0)
(0.162742 -0.00168302 0)
(0.179358 -0.00160473 0)
(0.195068 -0.00150191 0)
(0.209574 -0.00136596 0)
(0.22257 -0.00120811 0)
(0.233775 -0.00101738 0)
(0.24293 -0.00079329 0)
(0.249762 -0.000554139 0)
(0.254049 -0.000287275 0)
(0.255566 -1.76737e-05 0)
(0.254367 0.000271666 0)
(0.25014 0.00056921 0)
(0.243212 0.000844159 0)
(0.233594 0.00109952 0)
(0.221477 0.00131365 0)
(0.207546 0.00150259 0)
(0.191861 0.00164712 0)
(0.174963 0.00173419 0)
(0.157359 0.00178885 0)
(0.139375 0.00179718 0)
(0.12149 0.00177854 0)
(0.103874 0.00173415 0)
(0.0867894 0.00168035 0)
(0.0702837 0.00160635 0)
(0.0546172 0.00152788 0)
(0.0396234 0.00144459 0)
(0.0251112 0.00136724 0)
(0.0114694 0.00127476 0)
(0.000270488 0.00121017 0)
(-0.00930572 0.00115721 0)
(-0.019035 0.00109727 0)
(-0.0284345 0.00103853 0)
(-0.0373757 0.000973304 0)
(-0.0457576 0.000917446 0)
(-0.0538603 0.000871489 0)
(-0.0615509 0.000818399 0)
(-0.0688516 0.000770964 0)
(-0.0758192 0.000714511 0)
(-0.0822477 0.000653932 0)
(-0.0882276 0.000592562 0)
(-0.0936235 0.000521182 0)
(-0.098393 0.000449321 0)
(-0.102537 0.000374616 0)
(-0.105976 0.000298232 0)
(-0.10873 0.000223792 0)
(-0.110802 0.000154523 0)
(-0.112117 8.01271e-05 0)
(-0.112748 1.17566e-05 0)
(-0.112622 -6.60077e-05 0)
(-0.111696 -0.000137147 0)
(-0.110034 -0.00020974 0)
(-0.107549 -0.000289552 0)
(-0.104259 -0.000367225 0)
(-0.100146 -0.00045046 0)
(-0.0950805 -0.000549969 0)
(-0.0890228 -0.000646836 0)
(-0.081901 -0.000763917 0)
(-0.0736522 -0.000873082 0)
(-0.0642454 -0.000984896 0)
(-0.0536046 -0.00112157 0)
(-0.041723 -0.00123477 0)
(-0.0286417 -0.00134383 0)
(-0.0143534 -0.00147625 0)
(0.00100588 -0.00156868 0)
(0.0173275 -0.00168053 0)
(0.0345538 -0.00174814 0)
(0.0524648 -0.00179437 0)
(0.070885 -0.00185862 0)
(0.089646 -0.00186926 0)
(0.108507 -0.00185425 0)
(0.127243 -0.00185278 0)
(0.145636 -0.00179477 0)
(0.163451 -0.00174374 0)
(0.180459 -0.00164194 0)
(0.196418 -0.00151744 0)
(0.211101 -0.00139244 0)
(0.224309 -0.00123038 0)
(0.235848 -0.00105225 0)
(0.245544 -0.000866704 0)
(0.253259 -0.000661836 0)
(0.258885 -0.000449192 0)
(0.26235 -0.000230852 0)
(0.263573 -9.88377e-06 0)
(0.26265 0.000208224 0)
(0.259387 0.000429889 0)
(0.253973 0.000642903 0)
(0.24652 0.000834746 0)
(0.23714 0.00102166 0)
(0.225986 0.00119645 0)
(0.21324 0.00133228 0)
(0.199099 0.00146945 0)
(0.183767 0.00156052 0)
(0.167459 0.00165657 0)
(0.15038 0.00173419 0)
(0.13274 0.00176011 0)
(0.114743 0.00179705 0)
(0.096581 0.00181587 0)
(0.0784325 0.00178649 0)
(0.0604647 0.00177075 0)
(0.0428274 0.00171199 0)
(0.025596 0.00166701 0)
(0.00871048 0.00160521 0)
(-0.00708067 0.00152525 0)
(-0.0217498 0.00144626 0)
(-0.0373019 0.00135862 0)
(-0.118275 -0.00182628 0)
(-0.112513 -0.00208132 0)
(-0.105096 -0.00233479 0)
(-0.0967976 -0.00259597 0)
(-0.0875799 -0.00288666 0)
(-0.0774145 -0.00316273 0)
(-0.066279 -0.00347366 0)
(-0.0541596 -0.00375497 0)
(-0.0410577 -0.00402925 0)
(-0.0269869 -0.00434557 0)
(-0.0119089 -0.00459625 0)
(0.00399252 -0.00483113 0)
(0.020648 -0.00510543 0)
(0.038089 -0.00526974 0)
(0.0561227 -0.00548273 0)
(0.0746091 -0.00556051 0)
(0.093374 -0.0055784 0)
(0.112228 -0.00563802 0)
(0.130965 -0.00553324 0)
(0.149346 -0.00535532 0)
(0.167129 -0.00519823 0)
(0.184069 -0.00488032 0)
(0.199907 -0.00449167 0)
(0.214394 -0.00409122 0)
(0.227292 -0.00357013 0)
(0.238385 -0.00301959 0)
(0.247475 -0.00238924 0)
(0.254406 -0.00172137 0)
(0.259058 -0.00102768 0)
(0.261313 -0.000324157 0)
(0.261228 0.000383513 0)
(0.258744 0.00108984 0)
(0.253873 0.00178811 0)
(0.246815 0.00240202 0)
(0.237681 0.00300483 0)
(0.226639 0.00357244 0)
(0.213889 0.00399772 0)
(0.199674 0.00442341 0)
(0.184218 0.004794 0)
(0.167755 0.00499632 0)
(0.15054 0.00521422 0)
(0.132811 0.00527637 0)
(0.114798 0.00535498 0)
(0.0967005 0.00537584 0)
(0.0787137 0.00526829 0)
(0.0610261 0.00517772 0)
(0.043798 0.00504959 0)
(0.0271196 0.00482284 0)
(0.0110924 0.00459564 0)
(-0.00383839 0.00441042 0)
(-0.0178775 0.00413901 0)
(-0.0313242 0.00388366 0)
(-0.0439109 0.0036081 0)
(-0.0556268 0.00335101 0)
(-0.0664795 0.00309113 0)
(-0.0764883 0.00283273 0)
(-0.0856643 0.00258954 0)
(-0.0940166 0.00235211 0)
(-0.101578 0.00211807 0)
(-0.108379 0.00189657 0)
(-0.114442 0.00167644 0)
(-0.119799 0.00147482 0)
(-0.124466 0.00126982 0)
(-0.128431 0.00106534 0)
(-0.13174 0.000876844 0)
(-0.134408 0.000682015 0)
(-0.13638 0.000475458 0)
(-0.137718 0.000285858 0)
(-0.138462 7.70115e-05 0)
(-0.138496 -9.73703e-05 0)
(-0.137878 -0.000272798 0)
(-0.136582 -0.000452926 0)
(-0.134586 -0.000635088 0)
(-0.132087 -0.000780703 0)
(-0.128924 -0.000973661 0)
(-0.125148 -0.00112313 0)
(-0.120847 -0.00129299 0)
(-0.115835 -0.00147181 0)
(-0.110176 -0.00164402 0)
(-0.103937 -0.0018148 0)
(-0.0969531 -0.00202404 0)
(-0.0891756 -0.00222202 0)
(-0.0807347 -0.00244732 0)
(-0.0713676 -0.0026755 0)
(-0.0610861 -0.00294452 0)
(-0.0499502 -0.0032333 0)
(-0.0378963 -0.00350385 0)
(-0.0248706 -0.00379269 0)
(-0.0110172 -0.0040949 0)
(0.00314828 -0.00451968 0)
(0.0184416 -0.00483101 0)
(0.0353851 -0.00512572 0)
(0.0533757 -0.00539806 0)
(0.0723029 -0.00561941 0)
(0.0918523 -0.00576379 0)
(0.111615 -0.00584566 0)
(0.131399 -0.00580035 0)
(0.15086 -0.0056668 0)
(0.169542 -0.00540938 0)
(0.187166 -0.00505743 0)
(0.203462 -0.00462529 0)
(0.21818 -0.00412328 0)
(0.231129 -0.00356883 0)
(0.242136 -0.00297124 0)
(0.251058 -0.00234432 0)
(0.257839 -0.00168961 0)
(0.262392 -0.00102441 0)
(0.264667 -0.000350459 0)
(0.264732 0.000304885 0)
(0.262487 0.000996704 0)
(0.257976 0.0016608 0)
(0.251365 0.0022807 0)
(0.242692 0.00286823 0)
(0.232132 0.00340417 0)
(0.219825 0.00389253 0)
(0.205995 0.00433151 0)
(0.190855 0.00468904 0)
(0.17458 0.00498019 0)
(0.157424 0.00519769 0)
(0.139669 0.00536094 0)
(0.121502 0.00543075 0)
(0.103161 0.00547273 0)
(0.0848751 0.00541922 0)
(0.0668013 0.00532287 0)
(0.0491719 0.0051748 0)
(0.0320943 0.00496707 0)
(0.015737 0.00476035 0)
(0.000230681 0.00448375 0)
(-0.0144221 0.00422096 0)
(-0.0281105 0.00394361 0)
(-0.0407986 0.00362351 0)
(-0.0524858 0.00332862 0)
(-0.0631594 0.00302881 0)
(-0.0728517 0.00273945 0)
(-0.0815728 0.00245163 0)
(-0.0893401 0.00217616 0)
(-0.0962037 0.0019112 0)
(-0.102215 0.00166108 0)
(-0.107405 0.00142364 0)
(-0.111793 0.00119488 0)
(-0.115456 0.000979075 0)
(-0.118419 0.000766759 0)
(-0.120679 0.000592575 0)
(-0.122318 0.000397638 0)
(-0.123359 0.000225995 0)
(-0.123838 5.82845e-05 0)
(-0.123778 -0.000112008 0)
(-0.123143 -0.000249008 0)
(-0.121992 -0.000424755 0)
(-0.120349 -0.00059562 0)
(-0.118122 -0.000714474 0)
(-0.11535 -0.000903657 0)
(-0.11207 -0.00105273 0)
(-0.108221 -0.00122575 0)
(-0.103833 -0.0013845 0)
(-0.0989005 -0.00156323 0)
(-0.0933612 -0.00174605 0)
(-0.0871718 -0.00191647 0)
(-0.0803544 -0.00212117 0)
(-0.0728753 -0.00233056 0)
(-0.0647275 -0.00254262 0)
(-0.0558332 -0.0027527 0)
(-0.0461469 -0.00300349 0)
(-0.0356644 -0.00321727 0)
(-0.024437 -0.00345476 0)
(-0.0124413 -0.00368904 0)
(0.000383035 -0.00392157 0)
(0.0140236 -0.00415602 0)
(0.0283654 -0.00437763 0)
(0.0433966 -0.00457402 0)
(0.0590784 -0.00475498 0)
(0.0752945 -0.00490024 0)
(0.0919592 -0.00500265 0)
(0.108942 -0.00507688 0)
(0.126086 -0.00510783 0)
(0.143253 -0.00508405 0)
(0.160254 -0.00501523 0)
(0.1769 -0.00488163 0)
(0.19299 -0.00469015 0)
(0.208272 -0.0043953 0)
(0.222475 -0.00402676 0)
(0.235288 -0.00356692 0)
(0.246426 -0.00304123 0)
(0.255653 -0.0024341 0)
(0.262723 -0.00175518 0)
(0.267423 -0.00103294 0)
(0.2696 -0.000294784 0)
(0.269295 0.000478937 0)
(0.266292 0.0012643 0)
(0.260737 0.00199645 0)
(0.252833 0.002706 0)
(0.242677 0.00333319 0)
(0.230506 0.00391237 0)
(0.216502 0.00441086 0)
(0.200913 0.00483162 0)
(0.184018 0.00520309 0)
(0.166101 0.00545745 0)
(0.147408 0.00565166 0)
(0.128206 0.00575704 0)
(0.108781 0.00577848 0)
(0.0893922 0.00573874 0)
(0.0702691 0.00562614 0)
(0.0516561 0.00546129 0)
(0.0337321 0.00521035 0)
(0.0166074 0.0049563 0)
(0.000463398 0.00467641 0)
(-0.0146717 0.00435119 0)
(-0.0287639 0.0040356 0)
(-0.0417611 0.00370886 0)
(-0.0536993 0.00339572 0)
(-0.064572 0.00307461 0)
(-0.0743871 0.00277148 0)
(-0.0831789 0.00246605 0)
(-0.091007 0.00218834 0)
(-0.0979277 0.00190699 0)
(-0.103931 0.00166918 0)
(-0.109105 0.00140264 0)
(-0.113475 0.00119859 0)
(-0.117083 0.000949905 0)
(-0.11993 0.000763427 0)
(-0.122072 0.000528964 0)
(-0.123566 0.000365225 0)
(-0.124411 0.00016522 0)
(-0.124721 8.49421e-06 0)
(-0.12441 -0.000191247 0)
(-0.123482 -0.000357188 0)
(-0.121982 -0.000565068 0)
(-0.119829 -0.000705728 0)
(-0.117017 -0.000927089 0)
(-0.113622 -0.00112353 0)
(-0.10954 -0.00134039 0)
(-0.104729 -0.00152299 0)
(-0.099224 -0.0017249 0)
(-0.0929929 -0.00196605 0)
(-0.086036 -0.00217085 0)
(-0.0783713 -0.00242353 0)
(-0.0698865 -0.00260642 0)
(-0.060641 -0.00287704 0)
(-0.050616 -0.00309163 0)
(-0.0397782 -0.00333601 0)
(-0.0281367 -0.00357949 0)
(-0.0157132 -0.00383938 0)
(-0.00242023 -0.00404486 0)
(0.0116699 -0.00429254 0)
(0.0264789 -0.0045187 0)
(0.0420485 -0.00474053 0)
(0.0583064 -0.00492101 0)
(0.075146 -0.00508467 0)
(0.0924741 -0.00520683 0)
(0.110091 -0.00526264 0)
(0.127818 -0.00527973 0)
(0.145468 -0.00520189 0)
(0.162741 -0.00507062 0)
(0.179383 -0.00482394 0)
(0.195118 -0.00450675 0)
(0.209632 -0.00410918 0)
(0.222658 -0.00360851 0)
(0.233877 -0.00304278 0)
(0.243046 -0.0023897 0)
(0.249894 -0.00166365 0)
(0.254189 -0.000870987 0)
(0.255723 -5.36486e-05 0)
(0.254519 0.000812817 0)
(0.250289 0.00170358 0)
(0.243365 0.00253109 0)
(0.233745 0.00330298 0)
(0.221619 0.00394815 0)
(0.207664 0.00451264 0)
(0.191961 0.00494041 0)
(0.175046 0.00521161 0)
(0.157415 0.00536676 0)
(0.13941 0.00539909 0)
(0.121501 0.00533921 0)
(0.103862 0.00520367 0)
(0.0867525 0.00504131 0)
(0.0702321 0.00482321 0)
(0.0545477 0.00458671 0)
(0.0395323 0.00433552 0)
(0.0250094 0.0040988 0)
(0.0113631 0.00382754 0)
(0.000161272 0.00363643 0)
(-0.0094189 0.00347178 0)
(-0.0191524 0.00329045 0)
(-0.0285497 0.00311793 0)
(-0.0374878 0.00291721 0)
(-0.0458612 0.00275295 0)
(-0.0539573 0.00261225 0)
(-0.0616402 0.00245427 0)
(-0.0689352 0.00231152 0)
(-0.075896 0.00214448 0)
(-0.0823194 0.0019628 0)
(-0.0882941 0.00177521 0)
(-0.0936854 0.00156259 0)
(-0.0984508 0.00134811 0)
(-0.102589 0.00112411 0)
(-0.106026 0.000889534 0)
(-0.108774 0.000668487 0)
(-0.110843 0.00044706 0)
(-0.112159 0.000240903 0)
(-0.112787 3.03911e-05 0)
(-0.11266 -0.000199624 0)
(-0.111734 -0.000410894 0)
(-0.110071 -0.000629117 0)
(-0.107587 -0.000868153 0)
(-0.104298 -0.00110105 0)
(-0.100188 -0.00135136 0)
(-0.0951251 -0.00164881 0)
(-0.0890699 -0.00194002 0)
(-0.0819509 -0.00229095 0)
(-0.0737038 -0.00261957 0)
(-0.0642994 -0.00295585 0)
(-0.0536594 -0.00336344 0)
(-0.041776 -0.00370479 0)
(-0.0286935 -0.00403218 0)
(-0.0144025 -0.00442872 0)
(0.000962046 -0.00470598 0)
(0.0172886 -0.00504204 0)
(0.0345215 -0.005245 0)
(0.0524397 -0.0053838 0)
(0.070868 -0.00557668 0)
(0.0896376 -0.00560863 0)
(0.108508 -0.00556362 0)
(0.127253 -0.0055593 0)
(0.145655 -0.00538527 0)
(0.163481 -0.00523224 0)
(0.180498 -0.00492678 0)
(0.196466 -0.00455322 0)
(0.211158 -0.00417819 0)
(0.224373 -0.00369193 0)
(0.235918 -0.00315741 0)
(0.245621 -0.00260058 0)
(0.25334 -0.00198663 0)
(0.258969 -0.00134719 0)
(0.262438 -0.000690437 0)
(0.263666 -3.11322e-05 0)
(0.262739 0.000623955 0)
(0.259469 0.00128991 0)
(0.254055 0.00192894 0)
(0.246596 0.00250471 0)
(0.23721 0.0030656 0)
(0.22605 0.00359006 0)
(0.213296 0.0039976 0)
(0.199147 0.00440916 0)
(0.183806 0.00468236 0)
(0.16749 0.00497051 0)
(0.150404 0.00520337 0)
(0.132755 0.00528111 0)
(0.114751 0.00539189 0)
(0.0965811 0.00544831 0)
(0.078426 0.00536012 0)
(0.0604517 0.00531286 0)
(0.0428091 0.00513651 0)
(0.0255717 0.00500154 0)
(0.00868352 0.00481624 0)
(-0.00711041 0.00457593 0)
(-0.0217851 0.00433899 0)
(-0.0373402 0.00407605 0)
(-0.118339 -0.00304336 0)
(-0.11258 -0.00346841 0)
(-0.105166 -0.00389087 0)
(-0.0968695 -0.0043262 0)
(-0.0876547 -0.00481076 0)
(-0.0774906 -0.00527103 0)
(-0.0663571 -0.00578936 0)
(-0.0542372 -0.00625839 0)
(-0.0411335 -0.00671574 0)
(-0.0270613 -0.00724314 0)
(-0.0119797 -0.00766146 0)
(0.00392818 -0.00805283 0)
(0.0205912 -0.00851049 0)
(0.0380422 -0.00878459 0)
(0.0560865 -0.00913997 0)
(0.0745865 -0.00926984 0)
(0.0933665 -0.00929991 0)
(0.112237 -0.00939966 0)
(0.130992 -0.00922516 0)
(0.149392 -0.0089287 0)
(0.167196 -0.00866708 0)
(0.184155 -0.00813715 0)
(0.200012 -0.00748928 0)
(0.214519 -0.00682173 0)
(0.227434 -0.00595295 0)
(0.238544 -0.00503507 0)
(0.247646 -0.00398374 0)
(0.254585 -0.00287129 0)
(0.259243 -0.00171373 0)
(0.261512 -0.000536553 0)
(0.261422 0.000638232 0)
(0.258914 0.00181811 0)
(0.254048 0.0029809 0)
(0.246976 0.00400537 0)
(0.23783 0.00501046 0)
(0.226774 0.00595701 0)
(0.214004 0.00666595 0)
(0.199771 0.00737556 0)
(0.184296 0.0079933 0)
(0.167813 0.00833036 0)
(0.150579 0.00869343 0)
(0.132832 0.00879678 0)
(0.114803 0.00892757 0)
(0.0966899 0.00896208 0)
(0.0786901 0.00878242 0)
(0.0609909 0.00863197 0)
(0.0437514 0.00841659 0)
(0.0270613 0.00803873 0)
(0.0110342 0.00765923 0)
(-0.00389839 0.00735319 0)
(-0.017946 0.00689893 0)
(-0.0313942 0.0064731 0)
(-0.0439804 0.00601355 0)
(-0.0556961 0.00558496 0)
(-0.0665475 0.00515203 0)
(-0.0765538 0.00472011 0)
(-0.0857275 0.00431517 0)
(-0.0940776 0.00391928 0)
(-0.101636 0.00352937 0)
(-0.108435 0.00316144 0)
(-0.114496 0.00279265 0)
(-0.11985 0.00245783 0)
(-0.124516 0.00211626 0)
(-0.12848 0.00177471 0)
(-0.131787 0.00146122 0)
(-0.134455 0.00113608 0)
(-0.136425 0.000792401 0)
(-0.137768 0.000476681 0)
(-0.138506 0.000127761 0)
(-0.138533 -0.000162458 0)
(-0.137911 -0.00045423 0)
(-0.136613 -0.000753518 0)
(-0.134615 -0.00106074 0)
(-0.132107 -0.00130115 0)
(-0.128939 -0.00162372 0)
(-0.125154 -0.00187388 0)
(-0.120842 -0.00215758 0)
(-0.115823 -0.00245503 0)
(-0.110149 -0.00274253 0)
(-0.103896 -0.00302729 0)
(-0.0968998 -0.00337165 0)
(-0.0891124 -0.00371067 0)
(-0.0806492 -0.00407957 0)
(-0.0712727 -0.00446201 0)
(-0.0609776 -0.00491109 0)
(-0.049823 -0.005387 0)
(-0.0377594 -0.00584565 0)
(-0.0247143 -0.00631213 0)
(-0.01088 -0.00683394 0)
(0.00329476 -0.00753207 0)
(0.0185896 -0.00804934 0)
(0.0355295 -0.008538 0)
(0.0535091 -0.00899683 0)
(0.0724335 -0.0093538 0)
(0.0919619 -0.00960949 0)
(0.111719 -0.00974772 0)
(0.131498 -0.00965519 0)
(0.150941 -0.00945211 0)
(0.169639 -0.00900331 0)
(0.187261 -0.00841826 0)
(0.203552 -0.00772396 0)
(0.218272 -0.00687915 0)
(0.231225 -0.00594018 0)
(0.242229 -0.00495707 0)
(0.25116 -0.00390225 0)
(0.257935 -0.00281895 0)
(0.262483 -0.0017099 0)
(0.264762 -0.000592315 0)
(0.26482 0.000521021 0)
(0.262555 0.00166293 0)
(0.258064 0.00276344 0)
(0.251453 0.00380298 0)
(0.242773 0.00478662 0)
(0.232199 0.00568133 0)
(0.219872 0.00648717 0)
(0.20602 0.00721523 0)
(0.190859 0.00781662 0)
(0.174564 0.00829876 0)
(0.157397 0.00867104 0)
(0.139624 0.00894385 0)
(0.121432 0.00905745 0)
(0.103079 0.00912193 0)
(0.0847753 0.009045 0)
(0.0666771 0.00886562 0)
(0.0490315 0.0086222 0)
(0.0319577 0.00828909 0)
(0.0155915 0.0079417 0)
(6.67155e-05 0.00747743 0)
(-0.0145883 0.00702571 0)
(-0.0282817 0.0065797 0)
(-0.0409759 0.00604091 0)
(-0.0526613 0.0055469 0)
(-0.0633352 0.00505796 0)
(-0.0730256 0.00455967 0)
(-0.0817403 0.00408683 0)
(-0.0895068 0.00362722 0)
(-0.0963736 0.00319143 0)
(-0.102387 0.00276496 0)
(-0.107564 0.00236495 0)
(-0.111945 0.00200329 0)
(-0.11561 0.00163658 0)
(-0.118573 0.00128035 0)
(-0.120834 0.000971296 0)
(-0.122465 0.000664042 0)
(-0.123499 0.000383823 0)
(-0.123981 0.000105505 0)
(-0.12392 -0.000182774 0)
(-0.123288 -0.000426402 0)
(-0.122142 -0.000705376 0)
(-0.120495 -0.000977898 0)
(-0.118271 -0.00119879 0)
(-0.115504 -0.00150733 0)
(-0.11222 -0.00176101 0)
(-0.108375 -0.00204098 0)
(-0.103988 -0.00231621 0)
(-0.0990597 -0.00261934 0)
(-0.0935197 -0.00290517 0)
(-0.0873339 -0.00319532 0)
(-0.0805147 -0.00353153 0)
(-0.0730345 -0.00387316 0)
(-0.064893 -0.00423644 0)
(-0.0560094 -0.0045956 0)
(-0.0463217 -0.004996 0)
(-0.0358404 -0.00537101 0)
(-0.024605 -0.00575965 0)
(-0.0126145 -0.00614894 0)
(0.000220854 -0.00653421 0)
(0.0138602 -0.00693453 0)
(0.0282162 -0.00729752 0)
(0.0432574 -0.00762082 0)
(0.0589411 -0.00793105 0)
(0.075174 -0.00816109 0)
(0.0918456 -0.00834632 0)
(0.108841 -0.00845777 0)
(0.125998 -0.00851908 0)
(0.143181 -0.0084907 0)
(0.160202 -0.00836283 0)
(0.17687 -0.00813424 0)
(0.19298 -0.00781082 0)
(0.208275 -0.00732736 0)
(0.222492 -0.00671701 0)
(0.235324 -0.00596229 0)
(0.246493 -0.00507774 0)
(0.255747 -0.00404961 0)
(0.262829 -0.00293417 0)
(0.26755 -0.00170986 0)
(0.269731 -0.00048306 0)
(0.269406 0.000788022 0)
(0.266395 0.00210814 0)
(0.260858 0.00333735 0)
(0.25294 0.00450346 0)
(0.24276 0.00556062 0)
(0.230564 0.00652208 0)
(0.216534 0.00735453 0)
(0.20093 0.00805303 0)
(0.184019 0.00868369 0)
(0.166074 0.00910195 0)
(0.147364 0.00941574 0)
(0.128146 0.00960379 0)
(0.108698 0.00964184 0)
(0.0892837 0.00957686 0)
(0.0701409 0.00937215 0)
(0.0515195 0.00910175 0)
(0.0335783 0.0086916 0)
(0.0164458 0.0082602 0)
(0.000290582 0.00779429 0)
(-0.0148475 0.00725143 0)
(-0.02894 0.00672505 0)
(-0.0419412 0.00618749 0)
(-0.0538843 0.00565658 0)
(-0.0647596 0.00512583 0)
(-0.0745685 0.00461179 0)
(-0.0833391 0.0041187 0)
(-0.0911686 0.00364766 0)
(-0.0980809 0.00317859 0)
(-0.104085 0.00278607 0)
(-0.109253 0.00234553 0)
(-0.113635 0.00199921 0)
(-0.117248 0.0015764 0)
(-0.120096 0.00125798 0)
(-0.122229 0.000886713 0)
(-0.123718 0.000606827 0)
(-0.124564 0.000279667 0)
(-0.124873 8.94998e-06 0)
(-0.124564 -0.000315783 0)
(-0.123643 -0.00059762 0)
(-0.122139 -0.00093863 0)
(-0.119987 -0.00118566 0)
(-0.117179 -0.00154441 0)
(-0.113781 -0.0018708 0)
(-0.109703 -0.00222512 0)
(-0.104882 -0.00254594 0)
(-0.0993798 -0.00287373 0)
(-0.093147 -0.00326342 0)
(-0.0862041 -0.00361971 0)
(-0.078547 -0.00403844 0)
(-0.070066 -0.00435754 0)
(-0.0608145 -0.00479918 0)
(-0.0507896 -0.00515008 0)
(-0.0399447 -0.00556162 0)
(-0.0283081 -0.00596856 0)
(-0.0158758 -0.00639236 0)
(-0.00257554 -0.00675262 0)
(0.0115235 -0.00715319 0)
(0.0263358 -0.0075351 0)
(0.0419148 -0.00789452 0)
(0.0581756 -0.00820818 0)
(0.0750234 -0.00848019 0)
(0.092368 -0.00868024 0)
(0.11 -0.00877397 0)
(0.12774 -0.00880549 0)
(0.145415 -0.00867173 0)
(0.162713 -0.0084451 0)
(0.179373 -0.00804581 0)
(0.195127 -0.00751215 0)
(0.209656 -0.00685058 0)
(0.222699 -0.00603728 0)
(0.23396 -0.00507558 0)
(0.243151 -0.0039863 0)
(0.250023 -0.00277224 0)
(0.254332 -0.00145912 0)
(0.25589 -8.91248e-05 0)
(0.254672 0.00135823 0)
(0.250457 0.00284011 0)
(0.243542 0.00421866 0)
(0.233915 0.00550389 0)
(0.221786 0.00658112 0)
(0.207822 0.00752658 0)
(0.192099 0.0082386 0)
(0.17516 0.00869048 0)
(0.157508 0.0089531 0)
(0.139465 0.00900191 0)
(0.121528 0.00890446 0)
(0.103861 0.00868233 0)
(0.086707 0.00840924 0)
(0.0701492 0.00804209 0)
(0.0544393 0.00764894 0)
(0.0394002 0.00723159 0)
(0.0248483 0.00683338 0)
(0.0111929 0.00637081 0)
(-9.69374e-06 0.00607315 0)
(-0.00959928 0.00579102 0)
(-0.0193406 0.00548461 0)
(-0.0287342 0.00519366 0)
(-0.0376705 0.0048613 0)
(-0.0460287 0.00458463 0)
(-0.0541133 0.00435221 0)
(-0.0617848 0.00408831 0)
(-0.069068 0.00385092 0)
(-0.0760211 0.00357126 0)
(-0.0824363 0.00326873 0)
(-0.088401 0.00295815 0)
(-0.0937863 0.00260291 0)
(-0.0985451 0.00224485 0)
(-0.102677 0.00187171 0)
(-0.106107 0.00148545 0)
(-0.108849 0.00111871 0)
(-0.110911 0.00076213 0)
(-0.112227 0.000397959 0)
(-0.112851 5.15561e-05 0)
(-0.112722 -0.000334785 0)
(-0.111795 -0.000684448 0)
(-0.110132 -0.00104895 0)
(-0.107651 -0.00144538 0)
(-0.104365 -0.0018339 0)
(-0.100259 -0.00225257 0)
(-0.0952024 -0.00274481 0)
(-0.0891529 -0.00323251 0)
(-0.0820401 -0.00381656 0)
(-0.0737963 -0.00436615 0)
(-0.064395 -0.00492818 0)
(-0.0537572 -0.00560402 0)
(-0.0418716 -0.00617585 0)
(-0.0287861 -0.00672221 0)
(-0.0144898 -0.00738173 0)
(0.000884394 -0.00784377 0)
(0.0172204 -0.00840514 0)
(0.0344664 -0.0087438 0)
(0.0523987 -0.00897535 0)
(0.0708426 -0.00929716 0)
(0.089629 -0.00935052 0)
(0.108516 -0.00927557 0)
(0.127281 -0.00926857 0)
(0.145701 -0.0089785 0)
(0.163546 -0.00872356 0)
(0.180581 -0.00821427 0)
(0.196564 -0.00759151 0)
(0.211275 -0.00696633 0)
(0.224504 -0.00615559 0)
(0.236062 -0.00526446 0)
(0.245778 -0.00433608 0)
(0.253505 -0.00331209 0)
(0.259139 -0.00224702 0)
(0.262612 -0.00115405 0)
(0.263855 -4.8048e-05 0)
(0.26291 0.00104134 0)
(0.259633 0.00215102 0)
(0.254218 0.00321594 0)
(0.246747 0.00417624 0)
(0.23735 0.00511154 0)
(0.226177 0.00598594 0)
(0.213405 0.00666528 0)
(0.199242 0.00735134 0)
(0.183882 0.00780664 0)
(0.16755 0.00828691 0)
(0.150448 0.00867502 0)
(0.132783 0.00880439 0)
(0.114764 0.00898894 0)
(0.0965796 0.00908287 0)
(0.0784114 0.00893565 0)
(0.0604244 0.00885676 0)
(0.0427712 0.00856262 0)
(0.0255219 0.00833762 0)
(0.00862856 0.00802894 0)
(-0.00717083 0.00762722 0)
(-0.0218565 0.00723241 0)
(-0.0374172 0.00679407 0)
(-0.118435 -0.00425978 0)
(-0.112681 -0.00485481 0)
(-0.10527 -0.00544626 0)
(-0.0969773 -0.00605581 0)
(-0.087767 -0.00673434 0)
(-0.0776049 -0.00737904 0)
(-0.0664743 -0.00810494 0)
(-0.0543536 -0.00876201 0)
(-0.0412473 -0.00940272 0)
(-0.0271728 -0.0101414 0)
(-0.0120861 -0.0107232 0)
(0.00383137 -0.011281 0)
(0.0205062 -0.0119178 0)
(0.037972 -0.012302 0)
(0.0560321 -0.0128003 0)
(0.0745525 -0.0129827 0)
(0.0933551 -0.0130253 0)
(0.112252 -0.0131657 0)
(0.131033 -0.0129217 0)
(0.14946 -0.0125069 0)
(0.167296 -0.012141 0)
(0.184284 -0.0113989 0)
(0.200168 -0.0104916 0)
(0.214708 -0.00955681 0)
(0.227646 -0.00833985 0)
(0.238783 -0.00705412 0)
(0.247902 -0.0055817 0)
(0.254855 -0.00402307 0)
(0.259523 -0.00240408 0)
(0.261811 -0.000761458 0)
(0.261704 0.000914627 0)
(0.259173 0.0025506 0)
(0.254311 0.00417517 0)
(0.247219 0.00561178 0)
(0.238054 0.00701974 0)
(0.226975 0.00834589 0)
(0.214176 0.00933885 0)
(0.199916 0.0103325 0)
(0.184413 0.0111975 0)
(0.1679 0.0116691 0)
(0.150638 0.0121772 0)
(0.132865 0.0123214 0)
(0.11481 0.0125041 0)
(0.0966738 0.0125519 0)
(0.0786545 0.0122994 0)
(0.0609378 0.0120896 0)
(0.043681 0.0117847 0)
(0.0269737 0.0112554 0)
(0.0109471 0.010723 0)
(-0.00398839 0.0102999 0)
(-0.0180491 0.00965953 0)
(-0.0314996 0.00906278 0)
(-0.0440848 0.00841878 0)
(-0.0558 0.00781873 0)
(-0.0666496 0.00721274 0)
(-0.076652 0.00660657 0)
(-0.0858222 0.00603996 0)
(-0.0941689 0.00548556 0)
(-0.101723 0.00493972 0)
(-0.10852 0.00442551 0)
(-0.114576 0.00390868 0)
(-0.119927 0.00343947 0)
(-0.124591 0.00296212 0)
(-0.128553 0.00248359 0)
(-0.131858 0.00204373 0)
(-0.134526 0.00159009 0)
(-0.136493 0.00110792 0)
(-0.137841 0.000670839 0)
(-0.138575 0.000180353 0)
(-0.138591 -0.000226591 0)
(-0.137965 -0.000636618 0)
(-0.136662 -0.00105737 0)
(-0.134657 -0.00148567 0)
(-0.132138 -0.00182565 0)
(-0.128963 -0.00227539 0)