/*--------------------------------*- C++ -*----------------------------------*\
| =========                 |                                                 |
| \\      /  F ield         | OpenFOAM: The Open Source CFD Toolbox           |
|  \\    /   O peration     | Version:  3.0.1                                 |
|   \\  /    A nd           | Web:      www.OpenFOAM.org                      |
|    \\/     M anipulation  |                                                 |
\*---------------------------------------------------------------------------*/
FoamFile
{
    version     2.0;
    format      ascii;
    class       surfaceScalarField;
    location    "38.2";
    object      alphaPhi;
}
// * * * * * * * * * * * * * * * * * * * * * * * * * * * * * * * * * * * * * //

dimensions      [0 3 -1 0 0 0 0];

internalField   nonuniform List<scalar> 
42423
(
3.99418e-05
1.56606e-05
2.50129e-05
1.49288e-05
1.05749e-05
1.44381e-05
-3.29565e-06
1.38705e-05
-1.65024e-05
1.32068e-05
-2.89397e-05
1.24373e-05
-4.0508e-05
1.15683e-05
-5.12373e-05
1.07293e-05
-6.11129e-05
9.87557e-06
-7.01253e-05
9.01245e-06
-7.83313e-05
8.206e-06
-8.57427e-05
7.41138e-06
-9.23881e-05
6.6454e-06
-9.83149e-05
5.92683e-06
-0.000103554
5.23865e-06
-0.000108144
4.59015e-06
-0.000112123
3.97886e-06
-0.000115504
3.3818e-06
-0.000118308
2.80339e-06
-0.000120559
2.25132e-06
-0.000122277
1.71786e-06
-0.000123447
1.16992e-06
-0.000124096
6.49257e-07
-0.000124185
8.92531e-08
-0.000123693
-4.92295e-07
-0.000122594
-1.09959e-06
-0.000120883
-1.71041e-06
-0.000118614
-2.26941e-06
-0.000115611
-3.00271e-06
-0.000111946
-3.66503e-06
-0.000107666
-4.28014e-06
-0.000102549
-5.11637e-06
-9.67246e-05
-5.82487e-06
-8.9993e-05
-6.73162e-06
-8.24019e-05
-7.59118e-06
-7.405e-05
-8.35191e-06
-6.47469e-05
-9.30304e-06
-5.43715e-05
-1.03755e-05
-4.31794e-05
-1.11921e-05
-3.09364e-05
-1.22431e-05
-1.78436e-05
-1.30928e-05
-3.72635e-06
-1.41173e-05
1.14142e-05
-1.51406e-05
2.71816e-05
-1.57674e-05
4.37066e-05
-1.6525e-05
6.09246e-05
-1.72181e-05
7.84659e-05
-1.75413e-05
9.63242e-05
-1.78584e-05
0.000114448
-1.81242e-05
0.000132411
-1.79629e-05
0.000150122
-1.77112e-05
0.000167342
-1.722e-05
0.00018386
-1.65177e-05
0.000199523
-1.5663e-05
0.000213921
-1.43985e-05
0.000226944
-1.30229e-05
0.000238452
-1.15073e-05
0.000248084
-9.63268e-06
0.000255794
-7.70942e-06
0.000261457
-5.66331e-06
0.000265024
-3.56762e-06
0.00026645
-1.42579e-06
0.000265681
7.69158e-07
0.000262707
2.97394e-06
0.000257587
5.11991e-06
0.000250256
7.33136e-06
0.00024105
9.20594e-06
0.000229935
1.11147e-05
0.00021723
1.27053e-05
0.000203046
1.41836e-05
0.000187447
1.55992e-05
0.000170812
1.66351e-05
0.000153204
1.76079e-05
0.000134856
1.83481e-05
0.000116027
1.88291e-05
9.68455e-05
1.91814e-05
7.7636e-05
1.92095e-05
5.84832e-05
1.91528e-05
3.96121e-05
1.88711e-05
2.11639e-05
1.84482e-05
3.55339e-06
1.76105e-05
-1.33689e-05
1.69223e-05
-2.93356e-05
1.59666e-05
-4.42477e-05
1.49121e-05
-5.80385e-05
1.37907e-05
-7.05482e-05
1.25096e-05
-8.17607e-05
1.12125e-05
-9.15877e-05
9.82688e-06
-0.000100075
8.48725e-06
-0.000107177
7.10215e-06
-0.000113112
5.93443e-06
-0.000117863
4.75079e-06
-0.000121685
3.82256e-06
-0.000124699
3.0138e-06
-0.000127054
2.35503e-06
-0.000128838
1.78322e-06
-0.000130131
1.29329e-06
-0.000130963
8.32359e-07
-0.000131359
3.95484e-07
-0.000131231
-1.27729e-07
-0.000130661
-5.70252e-07
-0.000129648
-1.01268e-06
-0.000128038
-1.61004e-06
-0.000125851
-2.18734e-06
-0.000123033
-2.81773e-06
-0.00011953
-3.50337e-06
-0.000115283
-4.24697e-06
-0.000110454
-4.82902e-06
-0.000104805
-5.64873e-06
-9.84141e-05
-6.39124e-06
-9.11954e-05
-7.21871e-06
-8.31676e-05
-8.02781e-06
-7.43146e-05
-8.85312e-06
-6.4504e-05
-9.81057e-06
-5.39782e-05
-1.05259e-05
-4.25154e-05
-1.14628e-05
-3.01576e-05
-1.23579e-05
-1.69456e-05
-1.3212e-05
-2.9064e-06
-1.40393e-05
1.19418e-05
-1.48483e-05
2.75051e-05
-1.55634e-05
4.37324e-05
-1.62274e-05
6.0498e-05
-1.67657e-05
7.77057e-05
-1.72078e-05
9.51894e-05
-1.74838e-05
0.000112807
-1.76176e-05
0.000130349
-1.75418e-05
0.000147629
-1.72803e-05
0.000164397
-1.67682e-05
0.00018042
-1.60235e-05
0.000195413
-1.49928e-05
0.000209111
-1.36983e-05
0.000221284
-1.21726e-05
0.000231688
-1.04045e-05
0.000240115
-8.42733e-06
0.000246361
-6.24609e-06
0.000250213
-3.85186e-06
0.000251642
-1.42886e-06
0.00025063
1.01226e-06
0.000247052
3.57782e-06
0.000241009
6.04259e-06
0.00023258
8.4296e-06
0.000222003
1.05762e-05
0.000209359
1.2644e-05
0.000194961
1.43982e-05
0.000179082
1.58789e-05
0.000161944
1.71382e-05
0.000143829
1.81149e-05
0.000125071
1.87581e-05
0.000105857
1.92135e-05
8.6494e-05
1.93634e-05
6.72229e-05
1.92711e-05
4.82164e-05
1.90065e-05
2.9774e-05
1.84423e-05
1.20256e-05
1.77484e-05
-4.9634e-06
1.6989e-05
-2.09425e-05
1.59791e-05
-3.60504e-05
1.5108e-05
-5.00344e-05
1.3984e-05
-6.30087e-05
1.29743e-05
-7.48511e-05
1.18424e-05
-8.56802e-05
1.08291e-05
-9.55179e-05
9.83767e-06
-0.000104312
8.79412e-06
-0.00011214
7.82844e-06
-0.000119116
6.97573e-06
-0.0001252
6.0839e-06
-0.000130508
5.30812e-06
-0.000135031
4.52313e-06
-0.000138816
3.78496e-06
-0.000142019
3.20249e-06
-0.000144524
2.50552e-06
-0.000146344
1.82028e-06
-0.000147551
1.20608e-06
-0.000147974
4.22959e-07
-0.000147692
-2.81575e-07
-0.00014669
-1.00226e-06
-0.00014494
-1.7498e-06
-0.000142539
-2.40063e-06
-0.000139383
-3.15586e-06
-0.000135529
-3.85471e-06
-0.000130913
-4.61582e-06
-0.000125603
-5.31002e-06
-0.000119603
-6.00014e-06
-0.000112792
-6.81127e-06
-0.000105197
-7.59496e-06
-9.68134e-05
-8.38326e-06
-8.76042e-05
-9.20918e-06
-7.75647e-05
-1.00396e-05
-6.65799e-05
-1.09848e-05
-5.47014e-05
-1.18785e-05
-4.19246e-05
-1.27769e-05
-2.82972e-05
-1.36275e-05
-1.37874e-05
-1.45098e-05
1.57122e-06
-1.53587e-05
1.75865e-05
-1.60153e-05
3.42214e-05
-1.6635e-05
5.1374e-05
-1.71527e-05
6.8863e-05
-1.7489e-05
8.65603e-05
-1.76974e-05
0.000104294
-1.77342e-05
0.000121851
-1.75563e-05
0.000139018
-1.71673e-05
0.000155524
-1.65065e-05
0.000171112
-1.55878e-05
0.000185487
-1.43748e-05
0.000198407
-1.29208e-05
0.000209606
-1.11984e-05
0.000218806
-9.20027e-06
0.000225746
-6.94026e-06
0.000230328
-4.58179e-06
0.000232388
-2.05979e-06
0.000231899
4.89088e-07
0.000228776
3.12281e-06
0.000223068
5.7075e-06
0.000214937
8.13084e-06
0.000204498
1.04392e-05
0.000192072
1.24266e-05
0.000177839
1.42322e-05
0.000162068
1.57716e-05
0.000145049
1.70182e-05
0.000127127
1.79228e-05
0.000108561
1.85659e-05
8.96828e-05
1.88778e-05
7.07739e-05
1.89089e-05
5.20409e-05
1.8733e-05
3.37763e-05
1.82646e-05
1.60585e-05
1.77177e-05
-9.19102e-07
1.69776e-05
-1.70745e-05
1.61554e-05
-3.22552e-05
1.51807e-05
-4.65446e-05
1.42894e-05
-5.97744e-05
1.32299e-05
-7.19694e-05
1.2195e-05
-8.31414e-05
1.1172e-05
-9.32973e-05
1.01559e-05
-0.000102482
9.18426e-06
-0.000110778
8.29636e-06
-0.000118249
7.47142e-06
-0.000124811
6.5621e-06
-0.000130641
5.82909e-06
-0.000135707
5.06664e-06
-0.000140071
4.36356e-06
-0.0001438
3.72965e-06
-0.000146854
3.05394e-06
-0.000149301
2.44657e-06
-0.000151141
1.84057e-06
-0.000152337
1.19551e-06
-0.000152924
5.87375e-07
-0.000152876
-4.81807e-08
-0.000152128
-7.47824e-07
-0.000150874
-1.25426e-06
-0.000148951
-1.92336e-06
-0.000146332
-2.61913e-06
-0.000142993
-3.33809e-06
-0.000138938
-4.05552e-06
-0.00013408
-4.85788e-06
-0.000128433
-5.64751e-06
-0.00012194
-6.49276e-06
-0.000114603
-7.3368e-06
-0.000106572
-8.03082e-06
-9.77045e-05
-8.86773e-06
-8.80261e-05
-9.67839e-06
-7.76274e-05
-1.03987e-05
-6.64279e-05
-1.11995e-05
-5.44761e-05
-1.19518e-05
-4.17217e-05
-1.27544e-05
-2.8133e-05
-1.35887e-05
-1.38207e-05
-1.43123e-05
1.4382e-06
-1.5259e-05
1.76016e-05
-1.61635e-05
3.46987e-05
-1.70972e-05
5.26231e-05
-1.79244e-05
7.13364e-05
-1.87134e-05
9.06176e-05
-1.92812e-05
0.000110249
-1.96316e-05
0.000130012
-1.97632e-05
0.000149562
-1.95501e-05
0.00016845
-1.88875e-05
0.000186425
-1.79755e-05
0.000203028
-1.66035e-05
0.000217957
-1.49289e-05
0.000230862
-1.29052e-05
0.000241219
-1.03565e-05
0.000248831
-7.61256e-06
0.000253283
-4.45206e-06
0.000253804
-5.20919e-07
0.000251317
2.4868e-06
0.000245774
5.54271e-06
0.00023783
7.94412e-06
0.000227476
1.03544e-05
0.000214776
1.26994e-05
0.000200342
1.44339e-05
0.000184378
1.59647e-05
0.000167163
1.72145e-05
0.000149284
1.78795e-05
0.000130893
1.83908e-05
0.000112267
1.86262e-05
9.37446e-05
1.8522e-05
7.54027e-05
1.83419e-05
5.75282e-05
1.78744e-05
4.01358e-05
1.73924e-05
2.33277e-05
1.68081e-05
7.27722e-06
1.60504e-05
-8.07846e-06
1.53557e-05
-2.26702e-05
1.45917e-05
-3.63695e-05
1.36993e-05
-4.91715e-05
1.2802e-05
-6.10117e-05
1.18402e-05
-7.19246e-05
1.09129e-05
-8.1915e-05
9.99048e-06
-9.0982e-05
9.06695e-06
-9.91852e-05
8.2032e-06
-0.000106562
7.37675e-06
-0.000113146
6.58375e-06
-0.000118991
5.84524e-06
-0.000124128
5.13758e-06
-0.000128594
4.46524e-06
-0.000132414
3.82037e-06
-0.000135596
3.18191e-06
-0.000138118
2.52237e-06
-0.000139976
1.85732e-06
-0.000141172
1.19622e-06
-0.00014168
5.08017e-07
-0.000141385
-2.9515e-07
-0.000140275
-1.10993e-06
-0.000138306
-1.96882e-06
-0.000135474
-2.83256e-06
-0.000131763
-3.71019e-06
-0.000127209
-4.55397e-06
-0.000121698
-5.51187e-06
-0.000115249
-6.44882e-06
-0.000107948
-7.30057e-06
-9.96524e-05
-8.2957e-06
-9.04869e-05
-9.16555e-06
-8.03367e-05
-1.01502e-05
-6.93187e-05
-1.1018e-05
-5.75708e-05
-1.1748e-05
-4.49046e-05
-1.26661e-05
-3.14791e-05
-1.34256e-05
-1.74563e-05
-1.40228e-05
-2.7316e-06
-1.47247e-05
1.2463e-05
-1.51946e-05
2.82721e-05
-1.58092e-05
4.44772e-05
-1.62051e-05
6.08416e-05
-1.63644e-05
7.75e-05
-1.66585e-05
9.42608e-05
-1.67608e-05
0.000110911
-1.66501e-05
0.000127365
-1.64545e-05
0.000143424
-1.60587e-05
0.000158933
-1.55087e-05
0.000173654
-1.47217e-05
0.000187343
-1.36884e-05
0.000199855
-1.25124e-05
0.000210962
-1.11074e-05
-9.77147e-06
3.99203e-05
3.13233e-05
2.49884e-05
2.98607e-05
1.05486e-05
2.88778e-05
-3.32633e-06
2.77455e-05
-1.65348e-05
2.64152e-05
-2.89739e-05
2.48764e-05
-4.05433e-05
2.31377e-05
-5.12731e-05
2.14591e-05
-6.115e-05
1.97525e-05
-7.01646e-05
1.8027e-05
-7.83715e-05
1.6413e-05
-8.57829e-05
1.48227e-05
-9.24284e-05
1.32909e-05
-9.83553e-05
1.18538e-05
-0.00010359
1.04734e-05
-0.000108178
9.17801e-06
-0.000112156
7.95663e-06
-0.00011554
6.76595e-06
-0.000118347
5.61015e-06
-0.000120599
4.50357e-06
-0.000122314
3.43327e-06
-0.000123487
2.34293e-06
-0.000124135
1.29644e-06
-0.000124221
1.75589e-07
-0.00012373
-9.83624e-07
-0.000122632
-2.19688e-06
-0.000120923
-3.41973e-06
-0.000118655
-4.53762e-06
-0.000115654
-6.00361e-06
-0.000111989
-7.33031e-06
-0.00010771
-8.55903e-06
-0.000102599
-1.0227e-05
-9.67704e-05
-1.16536e-05
-9.0041e-05
-1.34611e-05
-8.24479e-05
-1.51843e-05
-7.41067e-05
-1.66932e-05
-6.47976e-05
-1.86122e-05
-5.44151e-05
-2.0758e-05
-4.32256e-05
-2.23817e-05
-3.09834e-05
-2.44853e-05
-1.791e-05
-2.61663e-05
-3.7692e-06
-2.82581e-05
1.13781e-05
-3.0288e-05
2.71477e-05
-3.15371e-05
4.3677e-05
-3.30544e-05
6.09026e-05
-3.44438e-05
7.84526e-05
-3.50914e-05
9.63216e-05
-3.57274e-05
0.000114457
-3.62601e-05
0.000132427
-3.59328e-05
0.000150152
-3.54366e-05
0.000167384
-3.44519e-05
0.00018391
-3.30439e-05
0.000199587
-3.13392e-05
0.000213995
-2.88066e-05
0.000227032
-2.60598e-05
0.000238553
-2.30284e-05
0.000248189
-1.92688e-05
0.000255908
-1.54285e-05
0.000261578
-1.13335e-05
0.000265149
-7.13914e-06
0.000266584
-2.86075e-06
0.000265806
1.54765e-06
0.000262829
5.95099e-06
0.000257707
1.0241e-05
0.000250373
1.46652e-05
0.000241158
1.84211e-05
0.000230038
2.22347e-05
0.000217327
2.54165e-05
0.000203132
2.83784e-05
0.000187525
3.12061e-05
0.000170882
3.32783e-05
0.000153264
3.52255e-05
0.000134911
3.67015e-05
0.000116077
3.76634e-05
9.68901e-05
3.83678e-05
7.76766e-05
3.8423e-05
5.85224e-05
3.8307e-05
3.96518e-05
3.77417e-05
2.12209e-05
3.68792e-05
3.59601e-06
3.52354e-05
-1.33209e-05
3.38392e-05
-2.92824e-05
3.19281e-05
-4.41921e-05
2.98218e-05
-5.79842e-05
2.75828e-05
-7.04982e-05
2.50235e-05
-8.17157e-05
2.243e-05
-9.15495e-05
1.96605e-05
-0.000100043
1.69811e-05
-0.000107151
1.42099e-05
-0.000113098
1.1881e-05
-0.000117855
9.50753e-06
-0.000121694
7.6617e-06
-0.000124719
6.03844e-06
-0.000127088
4.7244e-06
-0.000128875
3.57057e-06
-0.000130182
2.5997e-06
-0.000131012
1.66215e-06
-0.000131419
8.02887e-07
-0.000131307
-2.40329e-07
-0.00013074
-1.13732e-06
-0.000129716
-2.03635e-06
-0.000128118
-3.20805e-06
-0.000125933
-4.3727e-06
-0.000123118
-5.63226e-06
-0.000119609
-7.01232e-06
-0.000115381
-8.47539e-06
-0.000110526
-9.68412e-06
-0.000104874
-1.13008e-05
-9.84737e-05
-1.27913e-05
-9.12514e-05
-1.44411e-05
-8.32252e-05
-1.6054e-05
-7.4371e-05
-1.77073e-05
-6.4576e-05
-1.96057e-05
-5.40335e-05
-2.10685e-05
-4.25681e-05
-2.29283e-05
-3.02081e-05
-2.4718e-05
-1.69882e-05
-2.6432e-05
-2.94168e-06
-2.80859e-05
1.19141e-05
-2.97042e-05
2.74881e-05
-3.11374e-05
4.3714e-05
-3.24534e-05
6.04786e-05
-3.35304e-05
7.77006e-05
-3.44299e-05
9.51825e-05
-3.49658e-05
0.000112802
-3.52373e-05
0.000130355
-3.50945e-05
0.000147649
-3.45748e-05
0.000164427
-3.35464e-05
0.000180475
-3.20716e-05
0.00019546
-2.99777e-05
0.000209173
-2.74113e-05
0.000221362
-2.43616e-05
0.000231768
-2.08108e-05
0.000240189
-1.68489e-05
0.000246426
-1.2483e-05
0.000250291
-7.71684e-06
0.000251729
-2.86689e-06
0.000250697
2.04393e-06
0.000247113
7.16252e-06
0.000241076
1.20792e-05
0.000232635
1.68709e-05
0.000222052
2.11584e-05
0.000209413
2.52836e-05
0.000194991
2.88201e-05
0.000179085
3.17846e-05
0.000161932
3.42911e-05
0.000143843
3.62041e-05
0.000125033
3.75679e-05
0.00010582
3.84266e-05
8.64286e-05
3.87548e-05
6.71487e-05
3.8551e-05
4.81372e-05
3.80181e-05
2.9679e-05
3.69006e-05
1.19214e-05
3.5506e-05
-5.07272e-06
3.39832e-05
-2.10578e-05
3.19641e-05
-3.61733e-05
3.02235e-05
-5.01637e-05
2.79744e-05
-6.31308e-05
2.59415e-05
-7.49765e-05
2.36881e-05
-8.58239e-05
2.16765e-05
-9.5644e-05
1.96579e-05
-0.000104432
1.75819e-05
-0.000112245
1.56413e-05
-0.000119217
1.39478e-05
-0.000125308
1.21755e-05
-0.000130609
1.06085e-05
-0.000135139
9.05357e-06
-0.000138946
7.59158e-06
-0.000142103
6.36014e-06
-0.000144614
5.01568e-06
-0.000146432
3.63851e-06
-0.000147629
2.40356e-06
-0.000148058
8.51453e-07
-0.000147781
-5.58568e-07
-0.00014679
-1.99296e-06
-0.000145043
-3.497e-06
-0.000142622
-4.82149e-06
-0.000139461
-6.3171e-06
-0.000135603
-7.712e-06
-0.000131003
-9.21641e-06
-0.000125672
-1.06408e-05
-0.000119665
-1.20074e-05
-0.000112851
-1.36256e-05
-0.000105253
-1.51922e-05
-9.68717e-05
-1.6765e-05
-8.76638e-05
-1.84171e-05
-7.76177e-05
-2.00858e-05
-6.66321e-05
-2.19704e-05
-5.47565e-05
-2.37542e-05
-4.19769e-05
-2.55565e-05
-2.8334e-05
-2.72705e-05
-1.38342e-05
-2.90097e-05
1.53323e-06
-3.07261e-05
1.75524e-05
-3.20345e-05
3.42006e-05
-3.32833e-05
5.13524e-05
-3.43045e-05
6.88485e-05
-3.49852e-05
8.65487e-05
-3.53977e-05
0.000104283
-3.54681e-05
0.000121861
-3.51344e-05
0.000139037
-3.43436e-05
0.000155549
-3.30191e-05
0.00017115
-3.11889e-05
0.00018554
-2.8765e-05
0.000198466
-2.58461e-05
0.000209668
-2.24004e-05
0.000218858
-1.83904e-05
0.000225842
-1.39249e-05
0.000230409
-9.14896e-06
0.000232486
-4.13612e-06
0.000231979
9.95539e-07
0.000228853
6.24895e-06
0.000223131
1.1429e-05
0.000214995
1.62676e-05
0.000204552
2.08819e-05
0.000192112
2.48666e-05
0.000177861
2.84829e-05
0.0001621
3.15332e-05
0.000145038
3.40797e-05
0.000127092
3.58688e-05
0.000108523
3.71354e-05
8.96278e-05
3.77728e-05
7.0707e-05
3.78297e-05
5.19705e-05
3.74695e-05
3.37297e-05
3.65054e-05
1.59597e-05
3.54878e-05
-1.02565e-06
3.3963e-05
-1.71864e-05
3.23161e-05
-3.23692e-05
3.03635e-05
-4.66664e-05
2.85867e-05
-5.98959e-05
2.64594e-05
-7.20884e-05
2.43875e-05
-8.32623e-05
2.23459e-05
-9.34177e-05
2.03113e-05
-0.000102614
1.83804e-05
-0.000110887
1.65701e-05
-0.000118356
1.49397e-05
-0.000124926
1.31325e-05
-0.000130741
1.16435e-05
-0.000135814
1.014e-05
-0.000140195
8.74518e-06
-0.000143903
7.43765e-06
-0.00014695
6.10077e-06
-0.000149386
4.88264e-06
-0.000151231
3.68568e-06
-0.000152427
2.39109e-06
-0.000153011
1.17173e-06
-0.000152963
-9.66572e-08
-0.000152211
-1.49994e-06
-0.00015096
-2.50537e-06
-0.000149031
-3.85189e-06
-0.000146407
-5.24326e-06
-0.000143073
-6.6717e-06
-0.000139018
-8.11099e-06
-0.000134153
-9.72319e-06
-0.000128504
-1.12959e-05
-0.00012201
-1.2987e-05
-0.000114684
-1.46633e-05
-0.000106618
-1.60966e-05
-9.77536e-05
-1.7732e-05
-8.80698e-05
-1.93622e-05
-7.76689e-05
-2.07996e-05
-6.64641e-05
-2.24044e-05
-5.45032e-05
-2.39127e-05
-4.17497e-05
-2.55079e-05
-2.81519e-05
-2.71866e-05
-1.38364e-05
-2.86278e-05
1.42401e-06
-3.05194e-05
1.75865e-05
-3.23261e-05
3.46811e-05
-3.41918e-05
5.26088e-05
-3.58522e-05
7.13219e-05
-3.74266e-05
9.05992e-05
-3.85586e-05
0.000110234
-3.92663e-05
0.00013
-3.95293e-05
0.00014955
-3.91009e-05
0.00016844
-3.77772e-05
0.000186418
-3.59538e-05
0.000203026
-3.32113e-05
0.000217965
-2.98685e-05
0.00023088
-2.58203e-05
0.000241238
-2.07148e-05
0.000248838
-1.52123e-05
0.000253279
-8.89316e-06
0.000253799
-1.04157e-06
0.000251311
4.97528e-06
0.000245813
1.10405e-05
0.000237899
1.58576e-05
0.000227544
2.071e-05
0.000214837
2.54058e-05
0.000200394
2.88768e-05
0.00018442
3.19394e-05
0.000167195
3.44394e-05
0.000149306
3.57686e-05
0.000130905
3.67912e-05
0.000112271
3.72604e-05
9.3742e-05
3.7051e-05
7.53942e-05
3.66897e-05
5.75145e-05
3.57541e-05
4.01174e-05
3.47895e-05
2.33048e-05
3.36207e-05
7.25014e-06
3.21051e-05
-8.10763e-06
3.07134e-05
-2.27028e-05
2.91869e-05
-3.64054e-05
2.74019e-05
-4.92101e-05
2.56066e-05
-6.10519e-05
2.3682e-05
-7.19664e-05
2.18274e-05
-8.19573e-05
1.99814e-05
-9.10245e-05
1.81341e-05
-9.92276e-05
1.64064e-05
-0.000106603
1.47524e-05
-0.000113188
1.31683e-05
-0.000119036
1.16937e-05
-0.000124175
1.02758e-05
-0.000128641
8.93217e-06
-0.000132459
7.63787e-06
-0.000135636
6.35893e-06
-0.000138161
5.0469e-06
-0.000140023
3.71931e-06
-0.000141222
2.39612e-06
-0.000141728
1.01365e-06
-0.000141429
-5.94231e-07
-0.000140312
-2.22686e-06
-0.000138357
-3.92361e-06
-0.000135529
-5.66037e-06
-0.00013182
-7.41985e-06
-0.000127264
-9.1103e-06
-0.000121753
-1.10221e-05
-0.000115301
-1.2901e-05
-0.000107997
-1.4605e-05
-9.96978e-05
-1.65946e-05
-9.05354e-05
-1.8328e-05
-8.0377e-05
-2.03085e-05
-6.93598e-05
-2.20353e-05
-5.76143e-05
-2.34936e-05
-4.49443e-05
-2.53361e-05
-3.15127e-05
-2.68573e-05
-1.74901e-05
-2.80454e-05
-2.75681e-06
-2.94581e-05
1.2442e-05
-3.03935e-05
2.82572e-05
-3.16244e-05
4.4465e-05
-3.24129e-05
6.08257e-05
-3.27253e-05
7.74887e-05
-3.33215e-05
9.42564e-05
-3.35286e-05
0.000110909
-3.33029e-05
0.000127369
-3.29149e-05
0.000143431
-3.21204e-05
0.000158948
-3.10253e-05
0.000173671
-2.94449e-05
0.00018736
-2.73779e-05
0.000199887
-2.504e-05
0.000211019
-2.22392e-05
-1.95542e-05
3.98766e-05
4.69906e-05
2.49381e-05
4.47992e-05
1.04955e-05
4.33204e-05
-3.38937e-06
4.16303e-05
-1.66015e-05
3.96274e-05
-2.90433e-05
3.73183e-05
-4.06151e-05
3.47095e-05
-5.13461e-05
3.219e-05
-6.12229e-05
2.96294e-05
-7.02358e-05
2.70398e-05
-7.84396e-05
2.46168e-05
-8.58455e-05
2.22286e-05
-9.24867e-05
1.99322e-05
-9.84112e-05
1.77782e-05
-0.000103646
1.57085e-05
-0.000108234
1.37662e-05
-0.00011221
1.19323e-05
-0.0001156
1.0156e-05
-0.000118411
8.42045e-06
-0.000120655
6.74794e-06
-0.000122367
5.14533e-06
-0.00012354
3.51608e-06
-0.000124186
1.94204e-06
-0.000124267
2.57185e-07
-0.000123773
-1.47843e-06
-0.000122676
-3.29326e-06
-0.000120967
-5.12856e-06
-0.000118705
-6.80038e-06
-0.000115701
-9.00726e-06
-0.000112039
-1.09919e-05
-0.000107765
-1.28339e-05
-0.000102679
-1.53122e-05
-9.68317e-05
-1.75013e-05
-9.0106e-05
-2.01868e-05
-8.25168e-05
-2.27736e-05
-7.42031e-05
-2.50069e-05
-6.48787e-05
-2.79366e-05
-5.44861e-05
-3.11507e-05
-4.33006e-05
-3.35672e-05
-3.10616e-05
-3.67244e-05
-1.79991e-05
-3.92289e-05
-3.84386e-06
-4.24134e-05
1.13177e-05
-4.54496e-05
2.70934e-05
-4.73128e-05
4.36321e-05
-4.95931e-05
6.08709e-05
-5.16826e-05
7.84372e-05
-5.26578e-05
9.63171e-05
-5.36074e-05
0.000114469
-5.44122e-05
0.000132457
-5.39202e-05
0.000150195
-5.3175e-05
0.000167443
-5.17003e-05
0.000183994
-4.95941e-05
0.000199692
-4.70382e-05
0.000214116
-4.32303e-05
0.000227172
-3.91161e-05
0.000238717
-3.45732e-05
0.000248349
-2.89006e-05
0.000256098
-2.31782e-05
0.000261784
-1.70194e-05
0.000265369
-1.07242e-05
0.000266816
-4.30823e-06
0.000265995
2.36869e-06
0.000262993
8.95317e-06
0.000257867
1.53672e-05
0.000250533
2.19993e-05
0.0002413
2.76543e-05
0.000230173
3.3361e-05
0.000217454
3.81358e-05
0.00020324
4.25921e-05
0.000187624
4.68225e-05
0.000170971
4.9931e-05
0.000153343
5.28534e-05
0.000134983
5.50622e-05
0.000116142
5.65043e-05
9.69509e-05
5.75585e-05
7.77337e-05
5.76402e-05
5.85815e-05
5.74592e-05
3.97115e-05
5.66117e-05
2.13027e-05
5.52881e-05
3.65958e-06
5.28785e-05
-1.32454e-05
5.07442e-05
-2.91986e-05
4.78812e-05
-4.41035e-05
4.47266e-05
-5.78913e-05
4.13706e-05
-7.04041e-05
3.75362e-05
-8.16249e-05
3.36507e-05
-9.14661e-05
2.95017e-05
-9.99666e-05
2.54814e-05
-0.000107091
2.13338e-05
-0.000113054
1.78442e-05
-0.00011782
1.42738e-05
-0.000121696
1.15374e-05
-0.00012474
9.08277e-06
-0.000127124
7.10747e-06
-0.000128918
5.36504e-06
-0.000130253
3.93492e-06
-0.000131081
2.48986e-06
-0.000131516
1.23779e-06
-0.000131416
-3.40883e-07
-0.000130886
-1.66736e-06
-0.000129802
-3.11997e-06
-0.000128262
-4.74861e-06
-0.000126073
-6.56168e-06
-0.000123264
-8.44083e-06
-0.000119763
-1.05137e-05
-0.000115566
-1.26726e-05
-0.000110647
-1.46032e-05
-0.000105014
-1.69333e-05
-9.8618e-05
-1.91874e-05
-9.13915e-05
-2.16677e-05
-8.33661e-05
-2.40794e-05
-7.45114e-05
-2.65621e-05
-6.4775e-05
-2.93421e-05
-5.41883e-05
-3.16553e-05
-4.27153e-05
-3.44014e-05
-3.03526e-05
-3.70807e-05
-1.71264e-05
-3.96583e-05
-3.06992e-06
-4.21425e-05
1.17903e-05
-4.45645e-05
2.7378e-05
-4.67252e-05
4.36113e-05
-4.86867e-05
6.03804e-05
-5.02996e-05
7.7613e-05
-5.16626e-05
9.5109e-05
-5.24619e-05
0.00011275
-5.28789e-05
0.000130322
-5.26665e-05
0.000147632
-5.18848e-05
0.000164444
-5.03584e-05
0.000180485
-4.81128e-05
0.000195498
-4.49906e-05
0.00020924
-4.11535e-05
0.000221446
-3.65672e-05
0.000231869
-3.12336e-05
0.000240304
-2.52842e-05
0.000246548
-1.8727e-05
0.000250434
-1.16028e-05
0.000251883
-4.31655e-06
0.000250817
3.11017e-06
0.000247223
1.07567e-05
0.000241185
1.81162e-05
0.000232734
2.5322e-05
0.000222107
3.17856e-05
0.000209479
3.79112e-05
0.000195025
4.3274e-05
0.000179091
4.77194e-05
0.000161941
5.14406e-05
0.000143814
5.4331e-05
0.000124978
5.6404e-05
0.000105764
5.76409e-05
8.63352e-05
5.81833e-05
6.70343e-05
5.78518e-05
4.80053e-05
5.7047e-05
2.95325e-05
5.53734e-05
1.17634e-05
5.3275e-05
-5.23508e-06
5.09817e-05
-2.12629e-05
4.7992e-05
-3.63481e-05
4.53087e-05
-5.03471e-05
4.19734e-05
-6.3305e-05
3.88994e-05
-7.51526e-05
3.55358e-05
-8.60185e-05
3.25424e-05
-9.58126e-05
2.9452e-05
-0.00010459
2.63592e-05
-0.000112413
2.34642e-05
-0.000119357
2.08917e-05
-0.000125449
1.82675e-05
-0.000130744
1.59039e-05
-0.000135282
1.35918e-05
-0.000139101
1.14099e-05
-0.000142199
9.4589e-06
-0.000144721
7.53759e-06
-0.000146562
5.47927e-06
-0.000147732
3.57336e-06
-0.000148202
1.32134e-06
-0.000147957
-8.02938e-07
-0.000146947
-3.00336e-06
-0.000145228
-5.21618e-06
-0.00014277
-7.27949e-06
-0.000139603
-9.48339e-06
-0.00013575
-1.15655e-05
-0.000131166
-1.38004e-05
-0.00012581
-1.59963e-05
-0.000119791
-1.80268e-05
-0.00011299
-2.04263e-05
-0.0001054
-2.27824e-05
-9.70209e-05
-2.51443e-05
-8.78096e-05
-2.76283e-05
-7.77501e-05
-3.01454e-05
-6.67883e-05
-3.29323e-05
-5.49774e-05
-3.55651e-05
-4.21487e-05
-3.83853e-05
-2.84436e-05
-4.09756e-05
-1.3974e-05
-4.34793e-05
1.40399e-06
-4.61042e-05
1.74283e-05
-4.80589e-05
3.40927e-05
-4.99477e-05
5.12574e-05
-5.14694e-05
6.8765e-05
-5.24929e-05
8.64852e-05
-5.31179e-05
0.000104239
-5.32222e-05
0.00012185
-5.27452e-05
0.000139026
-5.15196e-05
0.000155564
-4.95574e-05
0.000171185
-4.68101e-05
0.000185596
-4.31757e-05
0.000198543
-3.87935e-05
0.00020977
-3.36275e-05
0.000218975
-2.75948e-05
0.000225976
-2.09262e-05
0.000230563
-1.37358e-05
0.00023266
-6.23293e-06
0.000232127
1.52804e-06
0.000228988
9.38791e-06
0.000223243
1.7174e-05
0.000215074
2.44363e-05
0.000204633
3.13227e-05
0.000192168
3.73323e-05
0.000177904
4.27461e-05
0.000162123
4.73146e-05
0.000145031
5.11712e-05
0.000127055
5.38451e-05
0.000108409
5.57812e-05
8.95615e-05
5.66206e-05
7.06053e-05
5.67859e-05
5.18929e-05
5.61819e-05
3.3591e-05
5.48073e-05
1.58105e-05
5.32682e-05
-1.17489e-06
5.09484e-05
-1.73379e-05
4.84791e-05
-3.25246e-05
4.55502e-05
-4.68435e-05
4.29055e-05
-6.0078e-05
3.96939e-05
-7.22679e-05
3.65774e-05
-8.34305e-05
3.35085e-05
-9.35805e-05
3.04612e-05
-0.000102783
2.75834e-05
-0.000111038
2.48247e-05
-0.000118489
2.23909e-05
-0.000125068
1.9711e-05
-0.000130871
1.74471e-05
-0.00013594
1.52085e-05
-0.000140329
1.31342e-05
-0.000144031
1.11399e-05
-0.000147075
9.14401e-06
-0.000149538
7.3464e-06
-0.000151364
5.51096e-06
-0.000152558
3.58603e-06
-0.000153139
1.75181e-06
-0.000153096
-1.39154e-07
-0.000152385
-2.21106e-06
-0.00015109
-3.80071e-06
-0.000149171
-5.77002e-06
-0.000146559
-7.85557e-06
-0.000143228
-1.00032e-05
-0.000139171
-1.21674e-05
-0.0001343
-1.45946e-05
-0.000128652
-1.69441e-05
-0.000122163
-1.94756e-05
-0.000114865
-2.19612e-05
-0.000106709
-2.42529e-05
-9.78808e-05
-2.65601e-05
-8.81925e-05
-2.90505e-05
-7.77883e-05
-3.12039e-05
-6.65735e-05
-3.36192e-05
-5.45987e-05
-3.58875e-05
-4.18326e-05
-3.8274e-05
-2.82172e-05
-4.08021e-05
-1.38852e-05
-4.29599e-05
1.39017e-06
-4.57948e-05
1.7566e-05
-4.8502e-05
3.46656e-05
-5.12915e-05
5.25977e-05
-5.37843e-05
7.13187e-05
-5.61478e-05
9.05975e-05
-5.78375e-05
0.000110231
-5.89004e-05
0.000129999
-5.92973e-05
0.000149553
-5.86549e-05
0.000168447
-5.66708e-05
0.000186428
-5.3935e-05
0.000203036
-4.98199e-05
0.000217972
-4.48048e-05
0.000230873
-3.87209e-05
0.000241167
-3.10085e-05
0.000248645
-2.26913e-05
0.000252989
-1.32367e-05
0.000253534
-1.58711e-06
0.000251207
7.30264e-06
0.000245886
1.63613e-05
0.000238021
2.37224e-05
0.000227659
3.10717e-05
0.000214937
3.81285e-05
0.000200474
4.33399e-05
0.000184478
4.79354e-05
0.000167232
5.16854e-05
0.000149322
5.36783e-05
0.000130899
5.52142e-05
0.000112259
5.58998e-05
9.37151e-05
5.55952e-05
7.53549e-05
5.50499e-05
5.74661e-05
5.36429e-05
4.00615e-05
5.21941e-05
2.32427e-05
5.04394e-05
7.18235e-06
4.81655e-05
-8.17942e-06
4.60752e-05
-2.27782e-05
4.37857e-05
-3.64833e-05
4.1107e-05
-4.92897e-05
3.8413e-05
-6.11324e-05
3.55246e-05
-7.20467e-05
3.27417e-05
-8.20342e-05
2.99689e-05
-9.11008e-05
2.72006e-05
-9.93019e-05
2.46075e-05
-0.000106677
2.21274e-05
-0.000113261
1.97521e-05
-0.000119106
1.7539e-05
-0.000124243
1.54132e-05
-0.000128713
1.34016e-05
-0.00013253
1.14548e-05
-0.000135703
9.53221e-06
-0.000138232
7.57595e-06
-0.000140098
5.58485e-06
-0.000141293
3.59172e-06
-0.000141789
1.5097e-06
-0.000141487
-8.96084e-07
-0.000140369
-3.34565e-06
-0.000138418
-5.87388e-06
-0.00013559
-8.48873e-06
-0.000131883
-1.11273e-05
-0.000127328
-1.36647e-05
-0.000121814
-1.65362e-05
-0.000115361
-1.93538e-05
-0.000108063
-2.19036e-05
-9.97651e-05
-2.48923e-05
-9.06089e-05
-2.74842e-05
-8.04413e-05
-3.04761e-05
-6.94192e-05
-3.30574e-05
-5.7667e-05
-3.52458e-05
-4.49912e-05
-3.8012e-05
-3.15602e-05
-4.02883e-05
-1.75601e-05
-4.20455e-05
-2.78692e-06
-4.42314e-05
1.24141e-05
-4.55946e-05
2.82371e-05
-4.74474e-05
4.445e-05
-4.86258e-05
6.08158e-05
-4.90912e-05
7.74824e-05
-4.99882e-05
9.42552e-05
-5.03015e-05
0.00011091
-4.99576e-05
0.000127374
-4.9379e-05
0.000143445
-4.81915e-05
0.000158973
-4.65538e-05
0.000173715
-4.41871e-05
0.000187426
-4.10891e-05
0.000199977
-3.75909e-05
0.000211135
-3.33976e-05
-2.93565e-05
3.9811e-05
6.26649e-05
2.48628e-05
5.97473e-05
1.0416e-05
5.77672e-05
-3.48395e-06
5.55303e-05
-1.6702e-05
5.28454e-05
-2.91482e-05
4.97645e-05
-4.07233e-05
4.62846e-05
-5.14559e-05
4.29226e-05
-6.13325e-05
3.95059e-05
-7.03482e-05
3.60556e-05
-7.85462e-05
3.28148e-05
-8.59434e-05
2.96258e-05
-9.25793e-05
2.65682e-05
-9.84975e-05
2.36964e-05
-0.000103731
2.09424e-05
-0.00010832
1.83544e-05
-0.000112293
1.59058e-05
-0.000115687
1.35501e-05
-0.000118494
1.12276e-05
-0.000120743
8.99618e-06
-0.000122452
6.85428e-06
-0.000123625
4.68914e-06
-0.000124264
2.58134e-06
-0.000124336
3.29562e-07
-0.000123837
-1.97815e-06
-0.000122741
-4.38935e-06
-0.000121035
-6.83435e-06
-0.000118761
-9.07444e-06
-0.000115771
-1.19969e-05
-0.000112117
-1.4646e-05
-0.000107847
-1.71041e-05
-0.000102792
-2.03668e-05
-9.69212e-05
-2.33723e-05
-9.02023e-05
-2.69057e-05
-8.26195e-05
-3.03564e-05
-7.4333e-05
-3.32935e-05
-6.49791e-05
-3.72905e-05
-5.45934e-05
-4.15364e-05
-4.34135e-05
-4.47472e-05
-3.11809e-05
-4.8957e-05
-1.81121e-05
-5.22977e-05
-3.95683e-06
-5.65687e-05
1.12294e-05
-6.06359e-05
2.70138e-05
-6.30973e-05
4.35676e-05
-6.61471e-05
6.08228e-05
-6.89378e-05
7.84142e-05
-7.02492e-05
9.63196e-05
-7.15129e-05
0.000114487
-7.25796e-05
0.000132499
-7.19324e-05
0.000150265
-7.09412e-05
0.000167536
-6.89717e-05
0.000184116
-6.6174e-05
0.000199854
-6.2776e-05
0.000214315
-5.76918e-05
0.000227395
-5.21963e-05
0.00023897
-4.61479e-05
0.000248605
-3.85354e-05
0.000256381
-3.09547e-05
0.000262086
-2.27244e-05
0.000265681
-1.43194e-05
0.000267129
-5.75641e-06
0.000266265
3.2331e-06
0.000263242
1.19762e-05
0.000258102
2.05066e-05
0.000250769
2.93324e-05
0.000241506
3.69173e-05
0.000230375
4.44926e-05
0.000217643
5.08675e-05
0.000203399
5.68356e-05
0.00018777
6.24516e-05
0.000171104
6.65977e-05
0.000153459
7.04975e-05
0.000135088
7.34332e-05
0.000116236
7.53566e-05
9.70368e-05
7.6758e-05
7.78169e-05
7.68601e-05
5.86668e-05
7.66093e-05
3.97969e-05
7.54816e-05
2.14231e-05
7.36618e-05
3.75645e-06
7.05451e-05
-1.31336e-05
6.76342e-05
-2.90711e-05
6.38187e-05
-4.39648e-05
5.96203e-05
-5.77449e-05
5.51506e-05
-7.02525e-05
5.00437e-05
-8.14799e-05
4.48781e-05
-9.13338e-05
3.93555e-05
-9.98474e-05
3.39949e-05
-0.000106993
2.8479e-05
-0.000112977
2.38282e-05
-0.00011777
1.90664e-05
-0.000121702
1.54694e-05
-0.000124783
1.21638e-05
-0.000127192
9.51682e-06
-0.000129013
7.18562e-06
-0.000130377
5.29921e-06
-0.000131219
3.33186e-06
-0.000131652
1.67089e-06
-0.000131568
-4.24938e-07
-0.000131077
-2.15878e-06
-0.000129984
-4.21259e-06
-0.000128457
-6.27638e-06