/*--------------------------------*- C++ -*----------------------------------*\
| =========                 |                                                 |
| \\      /  F ield         | OpenFOAM: The Open Source CFD Toolbox           |
|  \\    /   O peration     | Version:  3.0.1                                 |
|   \\  /    A nd           | Web:      www.OpenFOAM.org                      |
|    \\/     M anipulation  |                                                 |
\*---------------------------------------------------------------------------*/
FoamFile
{
    version     2.0;
    format      ascii;
    class       volScalarField;
    location    "38.2";
    object      p;
}
// * * * * * * * * * * * * * * * * * * * * * * * * * * * * * * * * * * * * * //

dimensions      [1 -1 -2 0 0 0 0];

internalField   nonuniform List<scalar> 
21420
(
3910.02
3880.62
3852.2
3825.94
3805.05
3779.02
3754.14
3730.81
3709.18
3689.29
3671.16
3654.77
3640.09
3627.08
3615.67
3605.81
3597.44
3590.51
3584.96
3580.75
3577.84
3576.19
3575.8
3576.65
3578.78
3582.13
3586.76
3592.69
3599.93
3608.53
3618.55
3630
3642.95
3657.44
3673.51
3691.24
3710.61
3731.66
3754.39
3778.78
3804.74
3832.22
3860.98
3890.8
3921.82
3953.76
3986.3
4019.21
4052.12
4084.67
4116.51
4147.28
4176.6
4204.09
4229.41
4252.23
4272.27
4289.24
4302.95
4313.19
4319.83
4322.79
4321.89
4317.34
4309.1
4297.25
4281.9
4263.26
4241.54
4217.01
4189.95
4160.72
4129.64
4097.1
4063.46
4029.07
3994.34
3959.62
3925.24
3891.54
3858.84
3826.45
3794.57
3764.24
3735.88
3709.55
3685.26
3663.05
3642.92
3624.88
3608.86
3594.86
3582.78
3572.56
3564.13
3557.4
3552.32
3548.8
3546.82
3546.34
3547.31
3549.7
3553.49
3558.67
3565.23
3573.17
3582.51
3593.26
3605.46
3619.11
3634.25
3650.9
3669.09
3688.82
3710.12
3732.96
3757.33
3783.17
3810.42
3839.02
3868.75
3899.48
3931
3963.08
3995.44
4027.79
4059.78
4091.02
4121.14
4149.71
4176.32
4200.57
4222.06
4240.41
4255.3
4266.44
4273.6
4276.62
4275.29
4269.78
4260.02
4246.13
4228.3
4206.81
4181.95
4154.1
4123.65
4091.05
4056.74
4021.19
3984.87
3948.23
3911.71
3875.72
3840.64
3806.79
3774.48
3743.9
3715.25
3688.63
3664.12
3641.75
3621.53
3603.41
3587.36
3573.3
3561.16
3550.86
3542.32
3535.47
3530.25
3526.58
3524.43
3523.72
3524.44
3526.57
3530.04
3534.81
3540.87
3548.22
3556.83
3566.72
3577.89
3590.37
3604.19
3619.36
3635.9
3653.86
3673.26
3694.12
3716.45
3740.24
3765.46
3792.06
3819.96
3849.19
3879.21
3909.98
3941.25
3972.71
4004.02
4034.8
4064.63
4093.09
4119.72
4144.1
4165.79
4184.4
4199.57
4210.98
4218.4
4221.64
4220.52
4215.18
4205.57
4191.87
4174.25
4153.03
4128.55
4101.21
4071.45
4039.74
4006.56
3972.38
3937.7
3902.96
3868.59
3834.94
3802.36
3771.18
3741.48
3713.51
3687.38
3663.17
3640.91
3620.63
3602.31
3585.92
3571.41
3558.73
3547.79
3538.54
3530.88
3524.75
3520.05
3516.73
3514.72
3513.95
3514.39
3516
3518.76
3522.62
3527.58
3533.65
3540.82
3549.14
3558.61
3569.29
3581.21
3594.42
3608.97
3624.89
3642.22
3660.97
3681.14
3702.71
3725.64
3749.85
3775.24
3801.86
3836.9
3867.21
3898.09
3929.58
3961.43
3993.37
4025.03
4056.03
4085.91
4114.3
4140.72
4164.76
4185.97
4203.89
4218.15
4228.2
4233.88
4235.52
4233.39
4226.97
4216.49
4202.28
4184.55
4163.56
4139.69
4113.46
4085.24
4055.54
4024.83
3993.49
3961.96
3930.49
3899.36
3868.74
3839.99
3814.54
3789.2
3764.62
3741.22
3719.2
3698.69
3679.77
3662.45
3646.72
3632.56
3619.92
3608.75
3599
3590.64
3583.62
3577.95
3573.61
3570.63
3569.04
3568.9
3570.31
3573.27
3577.83
3584.04
3591.91
3601.47
3612.74
3625.73
3640.42
3656.82
3674.89
3694.59
3715.9
3738.73
3763.01
3788.63
3815.47
3843.28
3872.07
3901.55
3931.49
3961.67
3991.82
4021.66
4050.94
4079.35
4106.63
4132.43
4156.45
4178.41
4197.92
4214.59
3811.88
3782.47
3754.06
3727.8
3706.86
3680.84
3655.96
3632.63
3611
3591.11
3572.99
3556.6
3541.92
3528.91
3517.5
3507.65
3499.28
3492.35
3486.8
3482.6
3479.69
3478.04
3477.65
3478.51
3480.63
3483.98
3488.61
3494.53
3501.77
3510.38
3520.39
3531.84
3544.79
3559.27
3575.35
3593.06
3612.44
3633.48
3656.22
3680.6
3706.57
3734.05
3762.81
3792.64
3823.67
3855.61
3888.17
3921.08
3954.01
3986.57
4018.43
4049.21
4078.55
4106.06
4131.39
4154.22
4174.28
4191.26
4204.98
4215.23
4221.88
4224.84
4223.94
4219.38
4211.14
4199.28
4183.93
4165.27
4143.54
4118.99
4091.92
4062.67
4031.58
3999.02
3965.36
3930.96
3896.22
3861.48
3827.09
3793.38
3760.67
3728.28
3696.39
3666.06
3637.7
3611.37
3587.08
3564.87
3544.74
3526.7
3510.69
3496.68
3484.61
3474.39
3465.96
3459.24
3454.15
3450.64
3448.66
3448.18
3449.15
3451.54
3455.33
3460.51
3467.07
3475.02
3484.35
3495.1
3507.29
3520.94
3536.08
3552.73
3570.92
3590.65
3611.94
3634.79
3659.16
3685
3712.25
3740.86
3770.59
3801.32
3832.85
3864.94
3897.32
3929.68
3961.68
3992.94
4023.07
4051.66
4078.3
4102.56
4124.06
4142.44
4157.34
4168.5
4175.66
4178.68
4177.36
4171.84
4162.08
4148.17
4130.34
4108.83
4083.95
4056.08
4025.61
3992.99
3958.66
3923.1
3886.75
3850.1
3813.56
3777.56
3742.46
3708.61
3676.29
3645.71
3617.05
3590.43
3565.92
3543.56
3523.34
3505.23
3489.17
3475.11
3462.98
3452.68
3444.15
3437.31
3432.08
3428.42
3426.27
3425.57
3426.29
3428.42
3431.88
3436.66
3442.72
3450.06
3458.68
3468.56
3479.74
3492.22
3506.03
3521.19
3537.74
3555.7
3575.09
3595.95
3618.28
3642.07
3667.29
3693.89
3721.79
3751.03
3781.06
3811.84
3843.11
3874.59
3905.92
3936.71
3966.56
3995.04
4021.69
4046.09
4067.8
4086.43
4101.61
4113.04
4120.46
4123.7
4122.6
4117.24
4107.63
4093.92
4076.29
4055.05
4030.55
4003.19
3973.41
3941.67
3908.47
3874.28
3839.58
3804.82
3770.43
3736.78
3704.18
3672.99
3643.3
3615.32
3589.19
3564.98
3542.72
3522.45
3504.13
3487.74
3473.23
3460.55
3449.62
3440.37
3432.72
3426.59
3421.9
3418.58
3416.57
3415.8
3416.24
3417.85
3420.61
3424.47
3429.44
3435.5
3442.68
3450.99
3460.46
3471.14
3483.06
3496.26
3510.81
3526.72
3544.05
3562.8
3582.97
3604.55
3627.48
3651.68
3677.07
3703.69
3738.76
3769.07
3799.95
3831.45
3863.32
3895.27
3926.95
3957.96
3987.87
4016.27
4042.72
4066.77
4088
4105.95
4120.22
4130.3
4136.01
4137.61
4135.45
4129.04
4118.56
4104.33
4086.59
4065.57
4041.68
4015.43
3987.19
3957.46
3926.74
3895.38
3863.83
3832.35
3801.21
3770.59
3741.84
3716.38
3691.03
3666.45
3643.05
3621.02
3600.52
3581.6
3564.28
3548.55
3534.4
3521.76
3510.59
3500.85
3492.48
3485.47
3479.8
3475.46
3472.47
3470.88
3470.74
3472.15
3475.11
3479.67
3485.87
3493.75
3503.3
3514.57
3527.55
3542.25
3558.64
3576.71
3596.42
3617.72
3640.57
3664.85
3690.47
3717.31
3745.12
3773.92
3803.41
3833.36
3863.55
3893.71
3923.56
3952.85
3981.28
4008.57
4034.38
4058.42
4080.39
4099.91
4116.6
3713.7
3684.28
3655.86
3629.63
3608.57
3582.57
3557.7
3534.37
3512.74
3492.86
3474.73
3458.35
3443.69
3430.68
3419.28
3409.43
3401.07
3394.14
3388.6
3384.39
3381.49
3379.84
3379.45
3380.31
3382.43
3385.78
3390.41
3396.33
3403.57
3412.17
3422.17
3433.62
3446.56
3461.04
3477.11
3494.82
3514.19
3535.24
3557.97
3582.35
3608.33
3635.81
3664.58
3694.41
3725.46
3757.42
3789.99
3822.94
3855.89
3888.48
3920.37
3951.18
3980.55
4008.09
4033.45
4056.32
4076.4
4093.41
4107.14
4117.41
4124.07
4127.03
4126.15
4121.57
4113.32
4101.45
4086.08
4067.39
4045.64
4021.06
3993.96
3964.67
3933.55
3900.96
3867.27
3832.84
3798.07
3763.31
3728.89
3695.17
3662.43
3630.05
3598.14
3567.79
3539.44
3513.1
3488.81
3466.6
3446.48
3428.44
3412.43
3398.43
3386.36
3376.15
3367.72
3361
3355.93
3352.42
3350.44
3349.96
3350.94
3353.33
3357.12
3362.3
3368.86
3376.8
3386.14
3396.89
3409.07
3422.72
3437.85
3454.5
3472.68
3492.41
3513.7
3536.55
3560.92
3586.76
3614.02
3642.63
3672.37
3703.12
3734.66
3766.77
3799.17
3831.56
3863.59
3894.88
3925.05
3953.68
3980.35
4004.65
4026.18
4044.59
4059.52
4070.7
4077.88
4080.91
4079.61
4074.06
4064.3
4050.37
4032.51
4010.97
3986.05
3958.14
3927.64
3894.97
3860.6
3825
3788.62
3751.93
3715.36
3679.33
3644.21
3610.34
3578.01
3547.42
3518.76
3492.13
3467.63
3445.27
3425.06
3406.95
3390.9
3376.85
3364.73
3354.44
3345.91
3339.08
3333.86
3330.2
3328.05
3327.35
3328.08
3330.21
3333.68
3338.45
3344.52
3351.86
3360.47
3370.36
3381.53
3394.01
3407.82
3422.98
3439.52
3457.47
3476.86
3497.71
3520.04
3543.83
3569.06
3595.66
3623.56
3652.82
3682.86
3713.65
3744.95
3776.45
3807.81
3838.64
3868.52
3897.04
3923.73
3948.16
3969.91
3988.58
4003.79
4015.24
4022.68
4025.94
4024.85
4019.46
4009.84
3996.11
3978.45
3957.18
3932.64
3905.24
3875.41
3843.64
3810.39
3776.16
3741.42
3706.63
3672.22
3638.54
3605.93
3574.73
3545.02
3517.04
3490.91
3466.7
3444.45
3424.17
3405.86
3389.48
3374.98
3362.3
3351.38
3342.14
3334.5
3328.37
3323.69
3320.37
3318.37
3317.61
3318.05
3319.66
3322.42
3326.28
3331.25
3337.31
3344.48
3352.79
3362.26
3372.93
3384.85
3398.05
3412.59
3428.5
3445.82
3464.57
3484.74
3506.32
3529.25
3553.46
3578.85
3605.44
3640.59
3670.88
3701.77
3733.29
3765.18
3797.16
3828.88
3859.92
3889.87
3918.32
3944.81
3968.9
3990.17
4008.15
4022.45
4032.6
4038.37
4039.89
4037.69
4031.29
4020.8
4006.54
3988.76
3967.7
3943.77
3917.47
3889.18
3859.42
3828.65
3797.25
3765.68
3734.17
3703
3672.37
3643.63
3618.14
3592.79
3568.2
3544.8
3522.77
3502.27
3483.35
3466.04
3450.32
3436.17
3423.54
3412.38
3402.63
3394.27
3387.26
3381.59
3377.25
3374.26
3372.67
3372.52
3373.92
3376.89
3381.44
3387.64
3395.51
3405.07
3416.33
3429.31
3444.01
3460.4
3478.47
3498.18
3519.48
3542.33
3566.61
3592.24
3619.09
3646.92
3675.73
3705.23
3735.2
3765.41
3795.59
3825.46
3854.78
3883.23
3910.54
3936.39
3960.45
3982.45
4002
4018.71
3615.48
3586.04
3557.62
3531.41
3510.2
3484.21
3459.35
3436.03
3414.4
3394.53
3376.41
3360.04
3345.38
3332.38
3320.99
3311.14
3302.79
3295.87
3290.34
3286.14
3283.23
3281.6
3281.21
3282.06
3284.18
3287.53
3292.15
3298.07
3305.31
3313.9
3323.9
3335.34
3348.27
3362.74
3378.81
3396.51
3415.88
3436.92
3459.65
3484.03
3510.01
3537.5
3566.28
3596.13
3627.19
3659.18
3691.79
3724.76
3757.76
3790.39
3822.32
3853.19
3882.6
3910.19
3935.6
3958.5
3978.62
3995.67
4009.43
4019.72
4026.4
4029.37
4028.51
4023.9
4015.65
4003.75
3988.35
3969.63
3947.84
3923.21
3896.06
3866.73
3835.56
3802.92
3769.18
3734.71
3699.89
3665.1
3630.65
3596.9
3564.13
3531.76
3499.81
3469.45
3441.09
3414.75
3390.46
3368.26
3348.14
3330.1
3314.1
3300.11
3288.04
3277.84
3269.42
3262.71
3257.64
3254.13
3252.16
3251.69
3252.67
3255.06
3258.86
3264.03
3270.59
3278.53
3287.86
3298.61
3310.79
3324.43
3339.56
3356.2
3374.38
3394.1
3415.39
3438.23
3462.6
3488.45
3515.72
3544.33
3574.1
3604.86
3636.43
3668.56
3701
3733.43
3765.5
3796.84
3827.06
3855.74
3882.47
3906.83
3928.42
3946.87
3961.85
3973.06
3980.27
3983.31
3982.03
3976.45
3966.67
3952.71
3934.81
3913.22
3888.26
3860.29
3829.72
3797
3762.56
3726.9
3690.47
3653.72
3617.11
3581.04
3545.89
3511.99
3479.64
3449.04
3420.37
3393.74
3369.24
3346.89
3326.68
3308.59
3292.55
3278.51
3266.4
3256.12
3247.61
3240.78
3235.57
3231.92
3229.77
3229.08
3229.82
3231.95
3235.42
3240.2
3246.27
3253.61
3262.22
3272.1
3283.27
3295.74
3309.54
3324.7
3341.23
3359.18
3378.56
3399.41
3421.73
3445.52
3470.75
3497.35
3525.26
3554.55
3584.6
3615.42
3646.75
3678.29
3709.7
3740.57
3770.52
3799.08
3825.84
3850.33
3872.13
3890.85
3906.11
3917.6
3925.07
3928.34
3927.27
3921.85
3912.22
3898.45
3880.75
3859.43
3834.83
3807.37
3777.47
3745.63
3712.32
3678.03
3643.24
3608.41
3573.95
3540.24
3507.61
3476.38
3446.66
3418.67
3392.54
3368.33
3346.08
3325.81
3307.51
3291.14
3276.65
3263.99
3253.08
3243.85
3236.21
3230.1
3225.42
3222.11
3220.12
3219.36
3219.81
3221.43
3224.19
3228.05
3233.02
3239.08
3246.25
3254.55
3264.01
3274.68
3286.58
3299.78
3314.31
3330.22
3347.53
3366.28
3386.44
3408.02
3430.96
3455.17
3480.56
3507.12
3542.37
3572.64
3603.55
3635.09
3667.03
3699.05
3730.82
3761.92
3791.93
3820.44
3846.99
3871.15
3892.48
3910.52
3924.86
3935.08
3940.91
3942.38
3940.12
3933.71
3923.22
3908.91
3891.07
3869.94
3845.94
3819.57
3791.22
3761.38
3730.56
3699.12
3667.49
3635.95
3604.75
3574.1
3545.37
3519.85
3494.48
3469.88
3446.47
3424.45
3403.95
3385.03
3367.73
3352.02
3337.88
3325.26
3314.1
3304.37
3296.01
3289
3283.33
3278.99
3276
3274.4
3274.24
3275.64
3278.6
3283.15
3289.35
3297.21
3306.76
3318.02
3331
3345.69
3362.08
3380.15
3399.86
3421.17
3444.02
3468.31
3493.95
3520.82
3548.66
3577.49
3607.01
3637.01
3667.25
3697.46
3727.37
3756.72
3785.2
3812.56
3838.45
3862.56
3884.6
3904.19
3920.93
3517.21
3487.75
3459.33
3433.15
3411.74
3385.77
3360.92
3337.61
3315.98
3296.12
3278.01
3261.65
3247
3234.01
3222.63
3212.8
3204.46
3197.55
3192.02
3187.83
3184.93
3183.3
3182.91
3183.77
3185.88
3189.23
3193.85
3199.77
3206.99
3215.58
3225.56
3236.99
3249.92
3264.38
3280.43
3298.13
3317.49
3338.52
3361.25
3385.64
3411.62
3439.13
3467.91
3497.77
3528.87
3560.89
3593.54
3626.56
3659.61
3692.3
3724.3
3755.22
3784.7
3812.36
3837.82
3860.79
3880.96
3898.06
3911.86
3922.18
3928.88
3931.85
3931.01
3926.38
3918.11
3906.18
3890.74
3871.98
3850.13
3825.45
3798.24
3768.84
3737.6
3704.9
3671.1
3636.56
3601.7
3566.85
3532.36
3498.57
3465.77
3433.4
3401.41
3371.03
3342.66
3316.32
3292.03
3269.83
3249.72
3231.68
3215.69
3201.71
3189.65
3179.46
3171.05
3164.35
3159.28
3155.79
3153.83
3153.36
3154.34
3156.74
3160.54
3165.71
3172.27
3180.21
3189.53
3200.27
3212.45
3226.08
3241.2
3257.84
3276.01
3295.73
3317.01
3339.85
3364.22
3390.08
3417.35
3445.97
3475.76
3506.55
3538.15
3570.32
3602.8
3635.28
3667.42
3698.82
3729.11
3757.87
3784.67
3809.1
3830.76
3849.28
3864.31
3875.57
3882.81
3885.87
3884.61
3879.01
3869.2
3855.21
3837.26
3815.6
3790.56
3762.52
3731.87
3699.06
3664.55
3628.8
3592.3
3555.49
3518.81
3482.69
3447.49
3413.56
3381.18
3350.56
3321.88
3295.25
3270.75
3248.41
3228.22
3210.13
3194.12
3180.09
3167.99
3157.73
3149.23
3142.42
3137.22
3133.58
3131.44
3130.76
3131.5
3133.64
3137.11
3141.89
3147.96
3155.3
3163.91
3173.79
3184.95
3197.42
3211.21
3226.36
3242.89
3260.82
3280.2
3301.04
3323.35
3347.14
3372.37
3398.98
3426.89
3456.22
3486.29
3517.15
3548.52
3580.12
3611.58
3642.52
3672.54
3701.18
3728.01
3752.58
3774.46
3793.25
3808.57
3820.11
3827.61
3830.9
3829.85
3824.41
3814.76
3800.94
3783.19
3761.79
3737.12
3709.57
3679.59
3647.66
3614.27
3579.9
3545.04
3510.14
3475.63
3441.87
3409.2
3377.94
3348.21
3320.22
3294.08
3269.87
3247.63
3227.37
3209.08
3192.72
3178.24
3165.59
3154.7
3145.48
3137.86
3131.76
3127.1
3123.81
3121.82
3121.07
3121.52
3123.15
3125.91
3129.78
3134.74
3140.8
3147.96
3156.26
3165.72
3176.37
3188.26
3201.45
3215.97
3231.87
3249.18
3267.92
3288.08
3309.66
3332.6
3356.82
3382.21
3408.73
3444.11
3474.35
3505.29
3536.87
3568.86
3600.94
3632.77
3663.95
3694.03
3722.63
3749.27
3773.51
3794.93
3813.04
3827.45
3837.74
3843.62
3845.08
3842.76
3836.33
3825.8
3811.43
3793.51
3772.3
3748.21
3721.75
3693.3
3663.38
3632.48
3600.97
3569.28
3537.69
3506.44
3475.77
3447.06
3421.48
3396.11
3371.49
3348.07
3326.05
3305.55
3286.64
3269.35
3253.65
3239.52
3226.91
3215.77
3206.04
3197.69
3190.69
3185.02
3180.68
3177.68
3176.08
3175.91
3177.3
3180.25
3184.8
3190.98
3198.84
3208.38
3219.63
3232.61
3247.3
3263.69
3281.76
3301.47
3322.78
3345.64
3369.95
3395.6
3422.48
3450.35
3479.2
3508.76
3538.79
3569.07
3599.32
3629.27
3658.67
3687.21
3714.61
3740.56
3764.72
3786.82
3806.47
3823.26
3418.91
3389.42
3360.99
3334.84
3313.2
3287.26
3262.41
3239.1
3217.49
3197.63
3179.53
3163.18
3148.55
3135.58
3124.21
3114.4
3106.07
3099.17
3093.66
3089.47
3086.58
3084.96
3084.57
3085.43
3087.54
3090.88
3095.5
3101.41
3108.62
3117.2
3127.17
3138.59
3151.5
3165.95
3181.99
3199.68
3219.02
3240.05
3262.78
3287.17
3313.16
3340.68
3369.48
3399.36
3430.49
3462.55
3495.26
3528.34
3561.45
3594.21
3626.29
3657.29
3686.85
3714.59
3740.13
3763.17
3783.41
3800.56
3814.42
3824.78
3831.5
3834.49
3833.65
3829.02
3820.72
3808.75
3793.27
3774.44
3752.53
3727.77
3700.48
3671
3639.68
3606.89
3573.02
3538.41
3503.48
3468.57
3434.03
3400.19
3367.33
3334.97
3302.92
3272.52
3244.15
3217.81
3193.52
3171.33
3151.21
3133.19
3117.21
3103.23
3091.19
3081.01
3072.61
3065.92
3060.87
3057.39
3055.43
3054.97
3055.96
3058.36
3062.16
3067.34
3073.89
3081.83
3091.15
3101.88
3114.05
3127.67
3142.78
3159.41
3177.57
3197.28
3218.56
3241.4
3265.77
3291.63
3318.92
3347.55
3377.37
3408.19
3439.82
3472.05
3504.59
3537.13
3569.34
3600.83
3631.2
3660.05
3686.94
3711.46
3733.21
3751.81
3766.92
3778.23
3785.52
3788.6
3787.35
3781.74
3771.9
3757.86
3739.83
3718.1
3692.97
3664.83
3634.08
3601.17
3566.55
3530.71
3494.11
3457.21
3420.46
3384.27
3349.02
3315.04
3282.63
3251.99
3223.3
3196.67
3172.17
3149.84
3129.66
3111.59
3095.6
3081.6
3069.51
3059.27
3050.79
3043.99
3038.8
3035.17
3033.05
3032.37
3033.13
3035.27
3038.75
3043.54
3049.61
3056.95
3065.55
3075.43
3086.58
3099.04
3112.83
3127.97
3144.48
3162.41
3181.77
3202.6
3224.91
3248.7
3273.93
3300.55
3328.45
3357.84
3387.93
3418.83
3450.26
3481.92
3513.46
3544.49
3574.59
3603.33
3630.26
3654.93
3676.9
3695.77
3711.17
3722.77
3730.33
3733.64
3732.6
3727.15
3717.45
3703.58
3685.75
3664.27
3639.5
3611.85
3581.76
3549.73
3516.23
3481.76
3446.8
3411.83
3377.24
3343.43
3310.73
3279.43
3249.68
3221.67
3195.53
3171.32
3149.09
3128.84
3110.56
3094.22
3079.76
3067.13
3056.25
3047.06
3039.46
3033.37
3028.73
3025.45
3023.47
3022.73
3023.2
3024.82
3027.59
3031.46
3036.42
3042.48
3049.64
3057.92
3067.37
3078.01
3089.89
3103.06
3117.57
3133.46
3150.76
3169.49
3189.66
3211.23
3234.18
3258.41
3283.8
3310.28
3345.79
3376.01
3406.98
3438.62
3470.67
3502.83
3534.74
3566.01
3596.19
3624.9
3651.64
3676
3697.51
3715.71
3730.21
3740.59
3746.52
3747.97
3745.61
3739.13
3728.56
3714.11
3696.1
3674.77
3650.56
3623.99
3595.43
3565.4
3534.41
3502.81
3471.05
3439.38
3408.08
3377.38
3348.7
3323.06
3297.66
3273.02
3249.6
3227.57
3207.07
3188.18
3170.9
3155.21
3141.1
3128.51
3117.38
3107.66
3099.32
3092.32
3086.65
3082.31
3079.31
3077.7
3077.52
3078.9
3081.85
3086.38
3092.56
3100.41
3109.94
3121.18
3134.16
3148.84
3165.23
3183.3
3203.01
3224.33
3247.19
3271.51
3297.18
3324.09
3351.98
3380.87
3410.46
3440.54
3470.86
3501.17
3531.18
3560.63
3589.23
3616.71
3642.72
3666.96
3689.13
3708.85
3725.7
3320.56
3291.04
3262.6
3236.48
3214.58
3188.65
3163.82
3140.52
3118.91
3099.06
3080.98
3064.65
3050.03
3037.08
3025.73
3015.93
3007.62
3000.74
2995.24
2991.06
2988.18
2986.56
2986.18
2987.04
2989.14
2992.49
2997.1
3002.99
3010.2
3018.76
3028.73
3040.13
3053.02
3067.46
3083.48
3101.15
3120.49
3141.51
3164.23
3188.62
3214.62
3242.16
3270.97
3300.88
3332.05
3364.17
3396.93
3430.09
3463.28
3496.13
3528.3
3559.39
3589.05
3616.88
3642.52
3665.65
3685.97
3703.19
3717.11
3727.51
3734.27
3737.27
3736.44
3731.81
3723.47
3711.46
3695.91
3677.02
3655.02
3630.18
3602.79
3573.22
3541.8
3508.91
3474.94
3440.25
3405.23
3370.25
3335.64
3301.75
3268.84
3236.47
3204.36
3173.94
3145.55
3119.21
3094.93
3072.74
3052.63
3034.62
3018.65
3004.69
2992.66
2982.49
2974.11
2967.43
2962.39
2958.92
2956.98
2956.52
2957.52
2959.93
2963.73
2968.91
2975.46
2983.39
2992.7
3003.43
3015.59
3029.2
3044.3
3060.91
3079.06
3098.77
3120.04
3142.88
3167.25
3193.12
3220.41
3249.07
3278.91
3309.77
3341.45
3373.73
3406.34
3438.97
3471.26
3502.85
3533.33
3562.28
3589.29
3613.92
3635.78
3654.47
3669.67
3681.05
3688.39
3691.5
3690.26
3684.64
3674.75
3660.65
3642.55
3620.72
3595.49
3567.22
3536.35
3503.31
3468.58
3432.62
3395.9
3358.91
3322.06
3285.79
3250.47
3216.44
3183.99
3153.32
3124.61
3097.98
3073.5
3051.17
3031.01
3012.97
2996.99
2983.02
2970.96
2960.74
2952.28
2945.5
2940.33
2936.71
2934.6
2933.94
2934.7
2936.85
2940.34
2945.13
2951.2
2958.54
2967.14
2977.01
2988.16
3000.61
3014.39
3029.51
3046.01
3063.93
3083.28
3104.09
3126.4
3150.18
3175.41
3202.04
3229.95
3259.4
3289.52
3320.47
3351.97
3383.71
3415.33
3446.46
3476.67
3505.53
3532.57
3557.36
3579.45
3598.43
3613.92
3625.59
3633.2
3636.55
3635.51
3630.06
3620.31
3606.37
3588.46
3566.87
3541.98
3514.2
3483.99
3451.82
3418.19
3383.61
3348.54
3313.47
3278.81
3244.93
3212.17
3180.83
3151.06
3123.03
3096.89
3072.68
3050.46
3030.22
3011.96
2995.64
2981.2
2968.59
2957.74
2948.57
2940.99
2934.92
2930.3
2927.03
2925.07
2924.35
2924.82
2926.45
2929.23
2933.1
2938.06
2944.11
2951.26
2959.54
2968.97
2979.6
2991.47
3004.62
3019.12
3034.99
3052.28
3071
3091.16
3112.74
3135.7
3159.93
3185.34
3211.79
3247.41
3277.62
3308.63
3340.33
3372.46
3404.71
3436.72
3468.1
3498.41
3527.23
3554.11
3578.59
3600.23
3618.55
3633.15
3643.62
3649.61
3651.05
3648.65
3642.12
3631.49
3616.95
3598.81
3577.36
3553.01
3526.29
3497.6
3467.44
3436.34
3404.63
3372.78
3341.04
3309.67
3278.93
3250.28
3224.57
3199.14
3174.48
3151.05
3129.02
3108.53
3089.64
3072.38
3056.71
3042.62
3030.04
3018.93
3009.23
3000.9
2993.9
2988.23
2983.89
2980.89
2979.27
2979.06
2980.44
2983.38
2987.9
2994.06
3001.9
3011.42
3022.66
3035.63
3050.31
3066.7
3084.76
3104.48
3125.8
3148.67
3173.01
3198.7
3225.63
3253.56
3282.49
3312.13
3342.25
3372.64
3403.01
3433.08
3462.61
3491.28
3518.84
3544.94
3569.26
3591.52
3611.32
3628.24
3222.17
3192.61
3164.15
3138.07
3115.88
3089.97
3065.15
3041.85
3020.25
3000.42
2982.35
2966.04
2951.44
2938.51
2927.19
2917.41
2909.12
2902.25
2896.76
2892.6
2889.73
2888.12
2887.75
2888.6
2890.7
2894.04
2898.64
2904.53
2911.72
2920.27
2930.22
2941.6
2954.48
2968.89
2984.9
3002.56
3021.88
3042.89
3065.61
3090
3116.01
3143.57
3172.4
3202.34
3233.56
3265.74
3298.58
3331.82
3365.1
3398.05
3430.32
3461.53
3491.3
3519.25
3544.99
3568.22
3588.64
3605.94
3619.93
3630.39
3637.18
3640.2
3639.37
3634.74
3626.36
3614.3
3598.68
3579.71
3557.62
3532.67
3505.17
3475.48
3443.95
3410.95
3376.87
3342.07
3306.96
3271.89
3237.21
3203.25
3170.28
3137.9
3105.72
3075.27
3046.87
3020.53
2996.25
2974.06
2953.97
2935.97
2920.01
2906.06
2894.05
2883.9
2875.53
2868.87
2863.85
2860.4
2858.47
2858.02
2859.03
2861.45
2865.25
2870.43
2876.97
2884.9
2894.2
2904.92
2917.07
2930.67
2945.75
2962.35
2980.49
3000.19
3021.45
3044.28
3068.65
3094.53
3121.84
3150.52
3180.4
3211.3
3243.04
3275.39
3308.07
3340.79
3373.19
3404.89
3435.49
3464.57
3491.71
3516.47
3538.45
3557.27
3572.56
3584.03
3591.43
3594.57
3593.35
3587.71
3577.77
3563.6
3545.4
3523.46
3498.1
3469.7
3438.68
3405.5
3370.62
3334.52
3297.68
3260.56
3223.61
3187.24
3151.84
3117.75
3085.25
3054.56
3025.84
2999.2
2974.72
2952.41
2932.27
2914.25
2898.31
2884.36
2872.33
2862.14
2853.7
2846.94
2841.79
2838.19
2836.09
2835.44
2836.22
2838.38
2841.87
2846.67
2852.75
2860.09
2868.68
2878.54
2889.68
2902.12
2915.89
2931
2947.49
2965.38
2984.72
3005.52
3027.81
3051.59
3076.83
3103.47
3131.39
3160.89
3191.05
3222.06
3253.64
3285.47
3317.2
3348.44
3378.78
3407.77
3434.96
3459.88
3482.1
3501.2
3516.8
3528.57
3536.24
3539.62
3538.6
3533.13
3523.33
3509.31
3491.3
3469.59
3444.56
3416.63
3386.26
3353.95
3320.17
3285.45
3250.26
3215.07
3180.31
3146.36
3113.54
3082.15
3052.34
3024.31
2998.15
2973.95
2951.74
2931.52
2913.28
2896.98
2882.57
2869.98
2859.16
2850.01
2842.46
2836.42
2831.81
2828.57
2826.62
2825.92
2826.4
2828.04
2830.82
2834.69
2839.65
2845.7
2852.84
2861.11
2870.53
2881.14
2892.99
2906.12
2920.6
2936.46
2953.73
2972.45
2992.61
3014.19
3037.15
3061.4
3086.81
3113.26
3148.96
3179.18
3210.24
3242.01
3274.23
3306.58
3338.72
3370.23
3400.67
3429.64
3456.67
3481.31
3503.1
3521.55
3536.26
3546.83
3552.89
3554.33
3551.89
3545.31
3534.59
3519.94
3501.67
3480.06
3455.55
3428.67
3399.82
3369.51
3338.27
3306.45
3274.48
3242.65
3211.2
3180.42
3151.81
3126.01
3100.55
3075.87
3052.42
3030.39
3009.9
2991.04
2973.79
2958.14
2944.07
2931.52
2920.42
2910.74
2902.42
2895.43
2889.76
2885.42
2882.41
2880.78
2880.56
2881.92
2884.84
2889.35
2895.5
2903.33
2912.84
2924.07
2937.03
2951.71
2968.09
2986.15
3005.87
3027.2
3050.09
3074.44
3100.16
3127.12
3155.09
3184.06
3213.75
3243.94
3274.39
3304.84
3334.99
3364.6
3393.36
3421.01
3447.2
3471.63
3493.99
3513.89
3530.9
3123.74
3094.13
3065.65
3039.61
3017.1
2991.21
2966.39
2943.1
2921.52
2901.7
2883.65
2867.36
2852.79
2839.88
2828.58
2818.82
2810.55
2803.71
2798.24
2794.09
2791.23
2789.63
2789.26
2790.11
2792.21
2795.54
2800.14
2806.01
2813.19
2821.72
2831.65
2843.02
2855.87
2870.27
2886.26
2903.89
2923.2
2944.2
2966.91
2991.3
3017.33
3044.91
3073.76
3103.73
3135.01
3167.26
3200.18
3233.51
3266.91
3299.97
3332.37
3363.7
3393.6
3421.68
3447.54
3470.89
3491.41
3508.82
3522.88
3533.41
3540.24
3543.29
3542.46
3537.82
3529.4
3517.27
3501.58
3482.52
3460.32
3435.25
3407.62
3377.8
3346.13
3313
3278.79
3243.88
3208.66
3173.49
3138.72
3104.69
3071.67
3039.26
3006.99
2976.52
2948.11
2921.77
2897.49
2875.31
2855.23
2837.24
2821.3
2807.37
2795.37
2785.24
2776.89
2770.25
2765.25
2761.81
2759.9
2759.46
2760.48
2762.9
2766.71
2771.89
2778.43
2786.35
2795.65
2806.35
2818.48
2832.07
2847.14
2863.73
2881.85
2901.53
2922.79
2945.61
2969.99
2995.87
3023.2
3051.91
3081.82
3112.78
3144.58
3177
3209.78
3242.6
3275.12
3306.95
3337.69
3366.92
3394.21
3419.12
3441.24
3460.19
3475.6
3487.16
3494.63
3497.81
3496.6
3490.95
3480.95
3466.7
3448.4
3426.32
3400.82
3372.26
3341.08
3307.73
3272.69
3236.43
3199.44
3162.18
3125.11
3088.63
3053.14
3018.98
2986.43
2955.7
2926.96
2900.32
2875.85
2853.56
2833.44
2815.45
2799.54
2785.62
2773.62
2763.46
2755.06
2748.32
2743.19
2739.61
2737.53
2736.9
2737.69
2739.85
2743.36
2748.16
2754.24
2761.58
2770.17
2780.02
2791.16
2803.58
2817.33
2832.43
2848.9
2866.77
2886.09
2906.88
2929.16
2952.93
2978.18
3004.83
3032.8
3062.29
3092.52
3123.61
3155.28
3187.21
3219.06
3250.44
3280.92
3310.06
3337.41
3362.49
3384.86
3404.11
3419.83
3431.7
3439.45
3442.87
3441.86
3436.37
3426.51
3412.41
3394.27
3372.42
3347.24
3319.14
3288.6
3256.1
3222.16
3187.28
3151.94
3116.62
3081.76
3047.71
3014.83
2983.39
2953.55
2925.49
2899.33
2875.13
2852.93
2832.73
2814.51
2798.24
2783.85
2771.3
2760.5
2751.39
2743.86
2737.85
2733.27
2730.05
2728.13
2727.44
2727.93
2729.58
2732.37
2736.24
2741.2
2747.24
2754.38
2762.63
2772.03
2782.63
2794.45
2807.57
2822.02
2837.86
2855.12
2873.83
2893.98
2915.57
2938.54
2962.8
2988.23
3014.68
3050.43
3080.68
3111.8
3143.66
3175.98
3208.46
3240.72
3272.38
3302.98
3332.13
3359.33
3384.14
3406.1
3424.71
3439.55
3450.24
3456.37
3457.81
3455.33
3448.69
3437.88
3423.09
3404.66
3382.88
3358.18
3331.11
3302.08
3271.61
3240.21
3208.24
3176.16
3144.21
3112.68
3081.85
3053.28
3027.39
3001.89
2977.18
2953.72
2931.68
2911.21
2892.35
2875.12
2859.51
2845.46
2832.93
2821.86
2812.19
2803.88
2796.9
2791.24
2786.89
2783.88
2782.23
2781.99
2783.34
2786.25
2790.75
2796.88
2804.69
2814.19
2825.41
2838.36
2853.03
2869.41
2887.47
2907.19
2928.53
2951.43
2975.8
3001.55
3028.54
3056.57
3085.59
3115.33
3145.59
3176.13
3206.65
3236.89
3266.6
3295.46
3323.21
3349.52
3374.07
3396.54
3416.55
3433.66
3025.26
2995.6
2967.08
2941.09
2918.25
2892.37
2867.56
2844.28
2822.7
2802.9
2784.87
2768.61
2754.06
2741.18
2729.91
2720.18
2711.93
2705.11
2699.66
2695.53
2692.68
2691.09
2690.72
2691.58
2693.68
2697
2701.58
2707.45
2714.61
2723.12
2733.03
2744.37
2757.21
2771.58
2787.54
2805.16
2824.45
2845.44
2868.14
2892.53
2918.57
2946.18
2975.05
3005.06
3036.4
3068.73
3101.74
3135.18
3168.7
3201.89
3234.43
3265.91
3295.95
3324.17
3350.18
3373.66
3394.3
3411.81
3425.97
3436.56
3443.45
3446.52
3445.7
3441.04
3432.58
3420.38
3404.6
3385.43
3363.11
3337.91
3310.14
3280.17
3248.35
3215.08
3180.73
3145.68
3110.33
3075.05
3040.19
3006.08
2973
2940.54
2908.19
2877.68
2849.27
2822.92
2798.65
2776.48
2756.41
2738.43
2722.51
2708.59
2696.62
2686.52
2678.19
2671.57
2666.58
2663.17
2661.27
2660.85
2661.88
2664.31
2668.12
2673.29
2679.84
2687.74
2697.03
2707.73
2719.84
2733.41
2748.47
2765.04
2783.14
2802.81
2824.06
2846.88
2871.25
2897.15
2924.49
2953.23
2983.19
3014.2
3046.07
3078.58
3111.46
3144.4
3177.05
3209.03
3239.93
3269.32
3296.78
3321.86
3344.14
3363.24
3378.77
3390.45
3397.99
3401.23
3400.02
3394.36
3384.3
3369.95
3351.53
3329.31
3303.64
3274.9
3243.53
3210
3174.77
3138.33
3101.18
3063.76
3026.55
2989.95
2954.36
2920.12
2887.51
2856.74
2827.98
2801.34
2776.88
2754.61
2734.52
2716.56
2700.68
2686.8
2674.84
2664.72
2656.34
2649.64
2644.53
2640.97
2638.91
2638.29
2639.1
2641.28
2644.79
2649.6
2655.68
2663.02
2671.61
2681.45
2692.57
2704.99
2718.72
2733.8
2750.25
2768.1
2787.4
2808.17
2830.44
2854.21
2879.45
2906.13
2934.14
2963.63
2993.94
3025.11
3056.88
3088.93
3120.92
3152.45
3183.09
3212.41
3239.93
3265.19
3287.73
3307.14
3323
3334.99
3342.82
3346.29
3345.29
3339.79
3329.86
3315.65
3297.38
3275.38
3250.01
3221.72
3190.98
3158.29
3124.16
3089.09
3053.59
3018.13
2983.14
2949
2916.03
2884.53
2854.66
2826.58
2800.42
2776.22
2754.04
2733.86
2715.66
2699.42
2685.06
2672.54
2661.78
2652.7
2645.21
2639.23
2634.68
2631.48
2629.58
2628.91
2629.42
2631.08
2633.87
2637.75
2642.71
2648.75
2655.87
2664.11
2673.49
2684.06
2695.87
2708.96
2723.39
2739.21
2756.45
2775.14
2795.29
2816.88
2839.86
2864.14
2889.6
2916.06
2951.84
2982.12
3013.32
3045.27
3077.71
3110.32
3142.74
3174.57
3205.35
3234.69
3262.08
3287.09
3309.24
3328.02
3343.02
3353.83
3360.04
3361.48
3358.97
3352.26
3341.34
3326.4
3307.79
3285.81
3260.9
3233.62
3204.38
3173.71
3142.14
3110.02
3077.8
3045.73
3014.1
2983.22
2954.69
2928.71
2903.16
2878.42
2854.94
2832.9
2812.43
2793.6
2776.39
2760.8
2746.79
2734.29
2723.24
2713.59
2705.3
2698.33
2692.66
2688.31
2685.29
2683.63
2683.37
2684.7
2687.6
2692.07
2698.19
2705.98
2715.47
2726.67
2739.62
2754.28
2770.65
2788.72
2808.44
2829.78
2852.7
2877.1
2902.87
2929.91
2957.98
2987.06
3016.88
3047.21
3077.84
3108.46
3138.8
3168.61
3197.58
3225.46
3251.89
3276.57
3299.18
3319.31
3336.53
2926.74
2897.01
2868.46
2842.51
2819.33
2793.45
2768.64
2745.37
2723.8
2704.02
2686.02
2669.78
2655.26
2642.41
2631.17
2621.47
2613.25
2606.46
2601.03
2596.91
2594.08
2592.5
2592.14
2593.01
2595.09
2598.41
2602.98
2608.83
2615.97
2624.46
2634.35
2645.67
2658.47
2672.82
2688.76
2706.35
2725.62
2746.59
2769.29
2793.69
2819.73
2847.37
2876.28
2906.33
2937.73
2970.15
3003.26
3036.83
3070.48
3103.81
3136.5
3168.14
3198.35
3226.73
3252.89
3276.52
3297.3
3314.93
3329.19
3339.86
3346.81
3349.91
3349.09
3344.41
3335.9
3323.63
3307.75
3288.47
3266.01
3240.65
3212.72
3182.59
3150.6
3117.17
3082.66
3047.46
3011.98
2976.58
2941.61
2907.41
2874.26
2841.76
2809.3
2778.77
2750.34
2723.99
2699.72
2677.56
2657.5
2639.54
2623.64
2609.75
2597.8
2587.72
2579.42
2572.82
2567.86
2564.46
2562.59
2562.17
2563.22
2565.66
2569.47
2574.65
2581.18
2589.09
2598.36
2609.04
2621.14
2634.7
2649.73
2666.28
2684.37
2704.02
2725.25
2748.07
2772.45
2798.35
2825.72
2854.48
2884.5
2915.57
2947.51
2980.12
3013.11
3046.18