/*--------------------------------*- C++ -*----------------------------------*\
| =========                 |                                                 |
| \\      /  F ield         | OpenFOAM: The Open Source CFD Toolbox           |
|  \\    /   O peration     | Version:  3.0.1                                 |
|   \\  /    A nd           | Web:      www.OpenFOAM.org                      |
|    \\/     M anipulation  |                                                 |
\*---------------------------------------------------------------------------*/
FoamFile
{
    version     2.0;
    format      ascii;
    class       surfaceScalarField;
    location    "76.2";
    object      alphaPhi;
}
// * * * * * * * * * * * * * * * * * * * * * * * * * * * * * * * * * * * * * //

dimensions      [0 3 -1 0 0 0 0];

internalField   nonuniform List<scalar> 
42423
(
-5.32397e-05
1.65547e-05
-6.88255e-05
1.55858e-05
-8.35498e-05
1.47243e-05
-9.73353e-05
1.37854e-05
-0.0001101
1.27644e-05
-0.000121897
1.17974e-05
-0.000132682
1.07849e-05
-0.000142515
9.8333e-06
-0.000151399
8.88399e-06
-0.00015934
7.94103e-06
-0.000166394
7.05412e-06
-0.000172588
6.19395e-06
-0.000177943
5.35496e-06
-0.000182504
4.56066e-06
-0.000186282
3.77832e-06
-0.000189305
3.02313e-06
-0.000191605
2.29998e-06
-0.000193183
1.57712e-06
-0.000194075
8.92231e-07
-0.000194296
2.20993e-07
-0.000193718
-5.77796e-07
-0.000192431
-1.28712e-06
-0.000190408
-2.02297e-06
-0.000187593
-2.81493e-06
-0.000183997
-3.59555e-06
-0.000179518
-4.47919e-06
-0.00017429
-5.22864e-06
-0.000168185
-6.10505e-06
-0.00016111
-7.07437e-06
-0.000153105
-8.00485e-06
-0.000144206
-8.89944e-06
-0.000134235
-9.97078e-06
-0.000123316
-1.09191e-05
-0.00011123
-1.20866e-05
-9.81953e-05
-1.30343e-05
-8.42818e-05
-1.39135e-05
-6.93044e-05
-1.49774e-05
-5.34185e-05
-1.58859e-05
-3.68152e-05
-1.66033e-05
-1.93338e-05
-1.74814e-05
-1.17251e-06
-1.81613e-05
1.74815e-05
-1.86541e-05
3.6523e-05
-1.90415e-05
5.55772e-05
-1.90543e-05
7.45734e-05
-1.89962e-05
9.33526e-05
-1.87792e-05
0.000111472
-1.81195e-05
0.000128829
-1.73569e-05
0.000145236
-1.64071e-05
0.000160298
-1.50622e-05
0.000173872
-1.35744e-05
0.000185705
-1.1833e-05
0.000195735
-1.00294e-05
0.000203735
-7.99989e-06
0.00020946
-5.72527e-06
0.000212911
-3.45096e-06
0.00021409
-1.17966e-06
0.000212744
1.3461e-06
0.000209035
3.70903e-06
0.000203008
6.0277e-06
0.000194843
8.16427e-06
0.000184692
1.0151e-05
0.000172527
1.21648e-05
0.000158688
1.38391e-05
0.00014341
1.52787e-05
0.000126802
1.6608e-05
0.000109168
1.76336e-05
9.08168e-05
1.83512e-05
7.20006e-05
1.88161e-05
5.28549e-05
1.91458e-05
3.37154e-05
1.91394e-05
1.45896e-05
1.91258e-05
-4.19014e-06
1.87798e-05
-2.24297e-05
1.82396e-05
-4.00284e-05
1.75987e-05
-5.68765e-05
1.6848e-05
-7.28359e-05
1.59594e-05
-8.79444e-05
1.51084e-05
-0.000101999
1.40549e-05
-0.000115039
1.30401e-05
-0.000127017
1.19773e-05
-0.000137889
1.08715e-05
-0.000147604
9.71477e-06
-0.000156263
8.65917e-06
-0.000163692
7.42918e-06
-0.000169962
6.26878e-06
-0.000175053
5.09105e-06
-0.000179084
4.03095e-06
-0.000182076
2.99134e-06
-0.00018411
2.03345e-06
-0.000185305
1.19511e-06
-0.000185782
4.76331e-07
-0.00018552
-2.61937e-07
-0.000184612
-9.08722e-07
-0.000183075
-1.53717e-06
-0.000180931
-2.14394e-06
-0.000178179
-2.75312e-06
-0.00017491
-3.26854e-06
-0.000170969
-3.94127e-06
-0.000166496
-4.47352e-06
-0.000161324
-5.17183e-06
-0.000155494
-5.83015e-06
-0.000148965
-6.52986e-06
-0.000141699
-7.26542e-06
-0.0001337
-7.99987e-06
-0.000124912
-8.78831e-06
-0.000115422
-9.48952e-06
-0.000105082
-1.03402e-05
-9.39521e-05
-1.113e-05
-8.2008e-05
-1.19442e-05
-6.92676e-05
-1.27405e-05
-5.57366e-05
-1.35311e-05
-4.14397e-05
-1.4297e-05
-2.64699e-05
-1.49699e-05
-1.08378e-05
-1.56321e-05
5.36769e-06
-1.62056e-05
2.20522e-05
-1.66846e-05
3.90712e-05
-1.70191e-05
5.63338e-05
-1.72627e-05
7.36651e-05
-1.73313e-05
9.08704e-05
-1.72054e-05
0.000107741
-1.68703e-05
0.000124068
-1.63271e-05
0.00013958
-1.55126e-05
0.000154073
-1.44929e-05
0.000167235
-1.31617e-05
0.000178864
-1.16294e-05
0.000188708
-9.84449e-06
0.000196538
-7.82957e-06
0.000202175
-5.63698e-06
0.00020551
-3.33538e-06
0.000206447
-9.36831e-07
0.000204903
1.54424e-06
0.000200908
3.9951e-06
0.000194524
6.38364e-06
0.000185804
8.72043e-06
0.000175028
1.07753e-05
0.000162271
1.27575e-05
0.000147867
1.44038e-05
0.000131987
1.58794e-05
0.000114874
1.7113e-05
9.69067e-05
1.79678e-05
7.83079e-05
1.85988e-05
5.93027e-05
1.90051e-05
4.02421e-05
1.90606e-05
2.13384e-05
1.89038e-05
2.82644e-06
1.85119e-05
-1.51156e-05
1.7942e-05
-3.23405e-05
1.72249e-05
-4.87132e-05
1.63727e-05
-6.41665e-05
1.54533e-05
-7.8612e-05
1.44456e-05
-9.20122e-05
1.34002e-05
-0.00010435
1.23377e-05
-0.000115627
1.12775e-05
-0.00012593
1.03022e-05
-0.000135192
9.26261e-06
-0.000143522
8.32998e-06
-0.000150916
7.39364e-06
-0.000157407
6.4916e-06
-0.000163054
5.64644e-06
-0.000167959
4.90492e-06
-0.000172118
4.15888e-06
-0.0001756
3.48263e-06
-0.00017839
2.78999e-06
-0.000180524
2.1339e-06
-0.000182034
1.51008e-06
-0.000182943
9.08931e-07
-0.000183225
2.82216e-07
-0.000182907
-3.18718e-07
-0.000181949
-9.57654e-07
-0.000180437
-1.51149e-06
-0.000178279
-2.15848e-06
-0.000175537
-2.7416e-06
-0.000172151
-3.38652e-06
-0.00016819
-3.96113e-06
-0.000163551
-4.6388e-06
-0.000158283
-5.26747e-06
-0.000152302
-5.98097e-06
-0.000145663
-6.63922e-06
-0.000138296
-7.36683e-06
-0.000130252
-8.04408e-06
-0.000121454
-8.79763e-06
-0.000111905
-9.54998e-06
-0.000101608
-1.02961e-05
-9.05116e-05
-1.10968e-05
-7.86029e-05
-1.19087e-05
-6.59346e-05
-1.26684e-05
-5.24495e-05
-1.34851e-05
-3.82042e-05
-1.42454e-05
-2.32795e-05
-1.49247e-05
-7.72424e-06
-1.55553e-05
8.3265e-06
-1.60508e-05
2.47606e-05
-1.64342e-05
4.1416e-05
-1.66555e-05
5.81174e-05
-1.67014e-05
7.46819e-05
-1.65646e-05
9.08555e-05
-1.61737e-05
0.000106432
-1.55766e-05
0.000121182
-1.47501e-05
0.000134879
-1.36965e-05
0.000147311
-1.24323e-05
0.000158193
-1.08822e-05
0.000167363
-9.17059e-06
0.000174596
-7.23211e-06
0.000179764
-5.16886e-06
0.000182759
-2.99508e-06
0.000183502
-7.42871e-07
0.000181923
1.5789e-06
0.000178053
3.8706e-06
0.00017195
6.10318e-06
0.000163739
8.21098e-06
0.000153588
1.01508e-05
0.000141625
1.19625e-05
0.000128133
1.34917e-05
0.000113301
1.48322e-05
9.73479e-05
1.59534e-05
8.06109e-05
1.6737e-05
6.33333e-05
1.72777e-05
4.58083e-05
1.75249e-05
2.82414e-05
1.7567e-05
1.09057e-05
1.73356e-05
-6.02715e-06
1.69329e-05
-2.24036e-05
1.63764e-05
-3.81109e-05
1.57073e-05
-5.3121e-05
1.50101e-05
-6.73213e-05
1.42003e-05
-8.07454e-05
1.34241e-05
-9.32904e-05
1.2545e-05
-0.00010496
1.16699e-05
-0.00011577
1.08097e-05
-0.000125705
9.93505e-06
-0.00013472
9.01482e-06
-0.000142874
8.15417e-06
-0.000150232
7.35803e-06
-0.000156773
6.54118e-06
-0.00016251
5.73704e-06
-0.000167497
4.9865e-06
-0.000171734
4.2375e-06
-0.000175272
3.53794e-06
-0.000178088
2.81662e-06
-0.000180315
2.2268e-06
-0.000181869
1.5537e-06
-0.000182828
9.59427e-07
-0.000183217
3.89507e-07
-0.000183064
-1.52864e-07
-0.000182494
-5.7038e-07
-0.000181405
-1.0889e-06
-0.000179826
-1.57846e-06
-0.000177798
-2.02799e-06
-0.000175302
-2.49538e-06
-0.000172325
-2.97752e-06
-0.000168906
-3.4188e-06
-0.00016494
-3.96522e-06
-0.000160417
-4.52351e-06
-0.000155327
-5.0895e-06
-0.000149576
-5.75114e-06
-0.000143172
-6.40385e-06
-0.00013604
-7.13133e-06
-0.000128171
-7.86867e-06
-0.00011956
-8.61103e-06
-0.000110207
-9.35289e-06
-0.000100157
-1.00501e-05
-8.9401e-05
-1.0756e-05
-7.79408e-05
-1.14601e-05
-6.59403e-05
-1.20004e-05
-5.33153e-05
-1.2625e-05
-4.00423e-05
-1.3273e-05
-2.62734e-05
-1.37689e-05
-1.19626e-05
-1.43108e-05
2.66969e-06
-1.46323e-05
1.76845e-05
-1.50148e-05
3.28991e-05
-1.52147e-05
4.82849e-05
-1.53858e-05
6.36711e-05
-1.53863e-05
7.90259e-05
-1.53549e-05
9.405e-05
-1.50242e-05
0.00010883
-1.47802e-05
0.000122852
-1.40218e-05
0.000136137
-1.32852e-05
0.000148479
-1.23418e-05
0.000159658
-1.1179e-05
0.000169314
-9.65597e-06
0.000177227
-7.91375e-06
0.00018317
-5.94229e-06
0.000186923
-3.75321e-06
0.000188308
-1.38476e-06
0.000187318
9.89762e-07
0.000183795
3.52245e-06
0.000177852
5.94371e-06
0.000169528
8.32353e-06
0.000159169
1.03589e-05
0.000146995
1.21738e-05
0.000133251
1.37444e-05
0.000118411
1.48398e-05
0.000102632
1.57793e-05
8.62596e-05
1.6372e-05
6.96943e-05
1.65653e-05
5.29492e-05
1.6745e-05
3.64101e-05
1.65391e-05
2.03672e-05
1.60429e-05
4.68734e-06
1.56798e-05
-1.0328e-05
1.50154e-05
-2.45903e-05
1.42623e-05
-3.80147e-05
1.34243e-05
-5.05289e-05
1.25142e-05
-6.21107e-05
1.15818e-05
-7.27708e-05
1.066e-05
-8.25144e-05
9.74362e-06
-9.13904e-05
8.87598e-06
-9.94228e-05
8.03242e-06
-0.000106682
7.25938e-06
-0.00011324
6.55819e-06
-0.000119176
5.9356e-06
-0.000124513
5.33687e-06
-0.000129336
4.82302e-06
-0.00013369
4.35364e-06
-0.000137626
3.93628e-06
-0.000141152
3.52658e-06
-0.000144298
3.14538e-06
-0.000147062
2.76415e-06
-0.000149433
2.37143e-06
-0.000151371
1.93725e-06
-0.000152857
1.48657e-06
-0.000153855
9.97643e-07
-0.000154341
4.85769e-07
-0.000154194
-1.46667e-07
-0.00015336
-8.34403e-07
-0.000151803
-1.55685e-06
-0.000149505
-2.29731e-06
-0.000146378
-3.12686e-06
-0.000142357
-4.02128e-06
-0.000137501
-4.85646e-06
-0.000131704
-5.79677e-06
-0.000124984
-6.7204e-06
-0.000117282
-7.7014e-06
-0.000108657
-8.62532e-06
-9.91596e-05
-9.49734e-06
-8.86715e-05
-1.04881e-05
-7.73112e-05
-1.13603e-05
-6.51709e-05
-1.21403e-05
-5.21698e-05
-1.30011e-05
-3.85578e-05
-1.36121e-05
-2.42162e-05
-1.43417e-05
-9.31113e-06
-1.4905e-05
5.95732e-06
-1.52685e-05
2.16956e-05
-1.57383e-05
3.77145e-05
-1.60189e-05
5.38176e-05
-1.61031e-05
6.99559e-05
-1.61383e-05
8.59148e-05
-1.59589e-05
0.000101586
-1.56717e-05
0.000116768
-1.51821e-05
0.000131188
-1.44196e-05
0.000144809
-1.36214e-05
0.000157381
-1.25721e-05
-1.15791e-05
-5.32748e-05
3.31127e-05
-6.88628e-05
3.11739e-05
-8.35897e-05
2.94511e-05
-9.73783e-05
2.75741e-05
-0.000110147
2.55326e-05
-0.000121946
2.35971e-05
-0.000132733
2.15716e-05
-0.000142566
1.96668e-05
-0.000151451
1.77684e-05
-0.000159395
1.58856e-05
-0.000166455
1.41134e-05
-0.000172644
1.23834e-05
-0.000177995
1.07061e-05
-0.000182555
9.12054e-06
-0.000186334
7.55704e-06
-0.000189356
6.04559e-06
-0.000191658
4.60121e-06
-0.000193237
3.1567e-06
-0.000194129
1.78395e-06
-0.000194346
4.38426e-07
-0.000193769
-1.15499e-06
-0.00019248
-2.57637e-06
-0.000190461
-4.04214e-06
-0.000187648
-5.62771e-06
-0.000184053
-7.19037e-06
-0.000179576
-8.95687e-06
-0.000174344
-1.04604e-05
-0.000168243
-1.22057e-05
-0.000161171
-1.41467e-05
-0.000153165
-1.60112e-05
-0.000144266
-1.77975e-05
-0.000134307
-1.99299e-05
-0.000123371
-2.1856e-05
-0.000111287
-2.41698e-05
-9.82504e-05
-2.60712e-05
-8.43357e-05
-2.78283e-05
-6.93557e-05
-2.99574e-05
-5.34715e-05
-3.17702e-05
-3.68562e-05
-3.32187e-05
-1.93561e-05
-3.49816e-05
-1.20091e-06
-3.63165e-05
1.7461e-05
-3.73161e-05
3.65128e-05
-3.80933e-05
5.55779e-05
-3.81194e-05
7.45881e-05
-3.80065e-05
9.33736e-05
-3.75648e-05
0.000111507
-3.62529e-05
0.000128882
-3.4732e-05
0.000145296
-3.28215e-05
0.000160363
-3.0129e-05
0.000173957
-2.71683e-05
0.000185801
-2.36768e-05
0.000195838
-2.00663e-05
0.000203841
-1.60033e-05
0.000209575
-1.14588e-05
0.000213027
-6.9033e-06
0.000214216
-2.36895e-06
0.00021286
2.70208e-06
0.000209153
7.41624e-06
0.000203128
1.20526e-05
0.000194958
1.63343e-05
0.000184805
2.0304e-05
0.000172629
2.43411e-05
0.000158777
2.76908e-05
0.000143488
3.05674e-05
0.00012687
3.32259e-05
0.000109223
3.52809e-05
9.0856e-05
3.6718e-05
7.2027e-05
3.76452e-05
5.28672e-05
3.83056e-05
3.37148e-05
3.82919e-05
1.45826e-05
3.8258e-05
-4.21382e-06
3.75762e-05
-2.24679e-05
3.64936e-05
-4.00795e-05
3.52103e-05
-5.69312e-05
3.36998e-05
-7.2892e-05
3.19202e-05
-8.80086e-05
3.02249e-05
-0.000102071
2.81169e-05
-0.000115116
2.60855e-05
-0.000127095
2.3956e-05
-0.000137958
2.17347e-05
-0.000147676
1.94325e-05
-0.000156337
1.73198e-05
-0.000163761
1.48528e-05
-0.000170022
1.25294e-05
-0.000175112
1.0181e-05
-0.000179139
8.05763e-06
-0.000182123
5.97414e-06
-0.000184149
4.05938e-06
-0.000185335
2.38033e-06
-0.000185804
9.45093e-07
-0.000185544
-5.21483e-07
-0.000184635
-1.81882e-06
-0.000183094
-3.07849e-06
-0.000180953
-4.28536e-06
-0.0001782
-5.50587e-06
-0.000174939
-6.53007e-06
-0.000171003
-7.87762e-06
-0.000166541
-8.9356e-06
-0.000161377
-1.03358e-05
-0.000155544
-1.1663e-05
-0.000149023
-1.3051e-05
-0.000141768
-1.45208e-05
-0.000133766
-1.60018e-05
-0.00012497
-1.75851e-05
-0.000115493
-1.89668e-05
-0.000105153
-2.06795e-05
-9.40135e-05
-2.22699e-05
-8.20809e-05
-2.38769e-05
-6.93393e-05
-2.54822e-05
-5.58007e-05
-2.70697e-05
-4.14895e-05
-2.86083e-05
-2.6529e-05
-2.99304e-05
-1.08945e-05
-3.12667e-05
5.32504e-06
-3.24252e-05
2.20139e-05
-3.33735e-05
3.90368e-05
-3.40421e-05
5.63045e-05
-3.45304e-05
7.36373e-05
-3.46642e-05
9.08496e-05
-3.44178e-05
0.000107726
-3.37465e-05
0.000124055
-3.26566e-05
0.000139579
-3.10368e-05
0.000154081
-2.89945e-05
0.000167252
-2.63325e-05
0.000178879
-2.32571e-05
0.000188723
-1.96885e-05
0.000196555
-1.56613e-05
0.000202196
-1.12781e-05
0.000205521
-6.66074e-06
0.000206432
-1.84816e-06
0.000204887
3.08939e-06
0.000200878
8.00448e-06
0.000194461
1.28004e-05
0.000185749
1.74323e-05
0.000174956
2.15687e-05
0.000162228
2.54849e-05
0.000147756
2.8876e-05
0.00013187
3.17662e-05
0.000114749
3.42336e-05
9.67526e-05
3.59643e-05
7.81173e-05
3.72341e-05
5.9141e-05
3.79815e-05
4.00704e-05
3.81313e-05
2.11564e-05
3.78179e-05
2.64025e-06
3.70281e-05
-1.53118e-05
3.58941e-05
-3.25427e-05
3.44559e-05
-4.89143e-05
3.27443e-05
-6.43344e-05
3.08734e-05
-7.88097e-05
2.89209e-05
-9.2203e-05
2.67936e-05
-0.000104536
2.46704e-05
-0.000115793
2.25353e-05
-0.000126101
2.06102e-05
-0.00013536
1.85213e-05
-0.000143671
1.66415e-05
-0.000151072
1.47938e-05
-0.000157563
1.29836e-05
-0.000163221
1.13037e-05
-0.00016811
9.7938e-06
-0.000172232
8.28158e-06
-0.000175741
6.99144e-06
-0.000178521
5.56974e-06
-0.000180661
4.27395e-06
-0.000182168
3.01725e-06
-0.000183071
1.81256e-06
-0.000183335
5.45497e-07
-0.000183013
-6.40816e-07
-0.000182069
-1.90095e-06
-0.000180555
-3.02529e-06
-0.000178395
-4.31884e-06
-0.000175649
-5.48718e-06
-0.000172268
-6.76791e-06
-0.000168296
-7.93356e-06
-0.000163657
-9.27753e-06
-0.000158383
-1.05413e-05
-0.000152416
-1.19482e-05
-0.000145769
-1.32856e-05
-0.000138377
-1.47587e-05
-0.000130354
-1.60675e-05
-0.000121552
-1.76001e-05
-0.000111996
-1.91051e-05
-0.000101708
-2.05847e-05
-9.06114e-05
-2.21932e-05
-7.87024e-05
-2.38177e-05
-6.60343e-05
-2.53366e-05
-5.25453e-05
-2.6974e-05
-3.83072e-05
-2.84837e-05
-2.33726e-05
-2.98593e-05
-7.81515e-06
-3.11128e-05
8.24532e-06
-3.21113e-05
2.46811e-05
-3.287e-05
4.13432e-05
-3.33176e-05
5.80559e-05
-3.34142e-05
7.46101e-05
-3.31189e-05
9.07932e-05
-3.23569e-05
0.000106375
-3.11581e-05
0.000121133
-2.9509e-05
0.000134853
-2.74166e-05
0.000147268
-2.48465e-05
0.000158153
-2.17675e-05
0.000167332
-1.83501e-05
0.000174566
-1.44656e-05
0.000179735
-1.03382e-05
0.000182725
-5.98545e-06
0.000183449
-1.46683e-06
0.000181874
3.15459e-06
0.000177995
7.74928e-06
0.000171884
1.22137e-05
0.000163669
1.64263e-05
0.000153514
2.03059e-05
0.000141547
2.39297e-05
0.000128037
2.70014e-05
0.000113175
2.96945e-05
9.72295e-05
3.18985e-05
8.04819e-05
3.34846e-05
6.31984e-05
3.45612e-05
4.56676e-05
3.50558e-05
2.80989e-05
3.51357e-05
1.07484e-05
3.46861e-05
-6.1891e-06
3.38705e-05
-2.25636e-05
3.2751e-05
-3.82398e-05
3.13836e-05
-5.32693e-05
3.00396e-05
-6.74662e-05
2.83973e-05
-8.08867e-05
2.68446e-05
-9.3443e-05
2.51014e-05
-0.000105113
2.33404e-05
-0.000115902
2.15982e-05
-0.000125853
1.98861e-05
-0.000134865
1.80269e-05
-0.000143025
1.63146e-05
-0.000150375
1.47081e-05
-0.000156908
1.30734e-05
-0.000162644
1.14737e-05
-0.000167629
9.97176e-06
-0.000171866
8.47429e-06
-0.0001754
7.07187e-06
-0.000178221
5.63821e-06
-0.000180453
4.45815e-06
-0.000182006
3.10749e-06
-0.000182963
1.91624e-06
-0.000183351
7.7796e-07
-0.000183194
-3.09768e-07
-0.000182628
-1.13659e-06
-0.000181534
-2.18253e-06
-0.000179957
-3.15524e-06
-0.000177929
-4.05597e-06
-0.000175441
-4.98296e-06
-0.000172468
-5.95039e-06
-0.000169044
-6.84242e-06
-0.000165072
-7.93736e-06
-0.000160544
-9.05159e-06
-0.000155448
-1.01847e-05
-0.00014969
-1.1509e-05
-0.000143279
-1.28147e-05
-0.000136142
-1.42687e-05
-0.000128268
-1.57423e-05
-0.00011965
-1.72294e-05
-0.000110288
-1.87143e-05
-0.00010023
-2.01079e-05
-8.94723e-05
-2.15138e-05
-7.80035e-05
-2.2929e-05
-6.60016e-05
-2.40023e-05
-5.33659e-05
-2.52607e-05
-4.00908e-05
-2.65481e-05
-2.63172e-05
-2.75426e-05
-1.19885e-05
-2.86395e-05
2.64405e-06
-2.92649e-05
1.76657e-05
-3.00365e-05
3.28943e-05
-3.04433e-05
4.82856e-05
-3.07772e-05
6.36879e-05
-3.07886e-05
7.90402e-05
-3.07073e-05
9.40821e-05
-3.00661e-05
0.000108861
-2.95595e-05
0.000122892
-2.8053e-05
0.000136189
-2.65824e-05
0.000148536
-2.46887e-05
0.000159727
-2.23701e-05
0.000169407
-1.93359e-05
0.000177329
-1.58354e-05
0.000183289
-1.19027e-05
0.000187047
-7.51079e-06
0.000188439
-2.77765e-06
0.000187443
1.98601e-06
0.00018392
7.04525e-06
0.000177977
1.18867e-05
0.000169642
1.66586e-05
0.000159273
2.07279e-05
0.000147086
2.4361e-05
0.000133327
2.75039e-05
0.000118471
2.96951e-05
0.000102679
3.15713e-05
8.62904e-05
3.27609e-05
6.97165e-05
3.31391e-05
5.296e-05
3.35015e-05
3.64066e-05
3.30925e-05
2.03537e-05
3.20958e-05
4.67275e-06
3.13608e-05
-1.0352e-05
3.00401e-05
-2.46201e-05
2.85305e-05
-3.8047e-05
2.68512e-05
-5.0566e-05
2.50332e-05
-6.21501e-05
2.3166e-05
-7.28117e-05
2.13216e-05
-8.25556e-05
1.94876e-05
-9.14285e-05
1.77489e-05
-9.94625e-05
1.60664e-05
-0.000106722
1.45187e-05
-0.000113283
1.31198e-05
-0.00011921
1.18619e-05
-0.000124547
1.06745e-05
-0.00012937
9.64519e-06
-0.000133726
8.70971e-06
-0.000137664
7.87464e-06
-0.000141192
7.0547e-06
-0.000144339
6.29204e-06
-0.000147102
5.52774e-06
-0.00014947
4.73925e-06
-0.000151411
3.8779e-06
-0.000152905
2.98082e-06
-0.00015391
2.00254e-06
-0.000154396
9.71308e-07
-0.000154244
-2.9783e-07
-0.000153409
-1.66998e-06
-0.000151853
-3.11312e-06
-0.000149557
-4.59257e-06
-0.000146435
-6.24918e-06
-0.000142413
-8.04363e-06
-0.000137561
-9.70858e-06
-0.00013176
-1.15972e-05
-0.000125041
-1.34397e-05
-0.000117336
-1.54066e-05
-0.000108709
-1.72519e-05
-9.92134e-05
-1.89931e-05
-8.87188e-05
-2.09827e-05
-7.73566e-05
-2.27225e-05
-6.52106e-05
-2.42864e-05
-5.22041e-05
-2.60076e-05
-3.85923e-05
-2.72239e-05
-2.42496e-05
-2.86844e-05
-9.3359e-06
-2.98188e-05
5.93252e-06
-3.05369e-05
2.1677e-05
-3.14828e-05
3.77003e-05
-3.20423e-05
5.38094e-05
-3.22122e-05
6.99514e-05
-3.22804e-05
8.59182e-05
-3.19258e-05
0.000101596
-3.1349e-05
0.00011678
-3.03665e-05
0.000131207
-2.88467e-05
0.00014484
-2.7255e-05
0.000157425
-2.51567e-05
-2.31665e-05
-5.33451e-05
4.96772e-05
-6.89383e-05
4.6767e-05
-8.36692e-05
4.4182e-05
-9.74607e-05
4.13656e-05
-0.000110231
3.83025e-05
-0.000122032
3.53981e-05
-0.00013282
3.23597e-05
-0.000142656
2.95029e-05
-0.000151539
2.6652e-05
-0.000159482
2.38281e-05
-0.000166539
2.11703e-05
-0.000172734
1.85781e-05
-0.000178093
1.60652e-05
-0.00018265
1.36782e-05
-0.000186429
1.13355e-05
-0.000189451
9.06812e-06
-0.000191748
6.89818e-06
-0.000193324
4.73279e-06
-0.000194211
2.67018e-06
-0.000194408
6.36071e-07
-0.000193826
-1.73722e-06
-0.000192537
-3.86487e-06
-0.000190518
-6.06126e-06
-0.000187712
-8.43372e-06
-0.000184118
-1.07852e-05
-0.000179644
-1.34309e-05
-0.000174412
-1.56923e-05
-0.000168313
-1.83039e-05
-0.000161248
-2.12123e-05
-0.00015324
-2.40197e-05
-0.000144343
-2.66938e-05
-0.000134392
-2.98813e-05
-0.000123448
-3.28002e-05
-0.000111366
-3.62517e-05
-9.83287e-05
-3.91084e-05
-8.44131e-05
-4.1744e-05
-6.94304e-05
-4.49402e-05
-5.35533e-05
-4.76473e-05
-3.69187e-05
-4.98534e-05
-1.93991e-05
-5.25012e-05
-1.23654e-06
-5.44791e-05
1.74385e-05
-5.59911e-05
3.65031e-05
-5.7158e-05
5.55831e-05
-5.71995e-05
7.46097e-05
-5.70331e-05
9.34165e-05
-5.63716e-05
0.000111568
-5.44049e-05
0.00012896
-5.21237e-05
0.000145399
-4.92602e-05
0.000160479
-4.52089e-05
0.000174088
-4.07776e-05
0.000185939
-3.55285e-05
0.000195988
-3.01146e-05
0.000204
-2.40159e-05
0.000209743
-1.72017e-05
0.000213202
-1.03622e-05
0.000214397
-3.56418e-06
0.000213025
4.07415e-06
0.000209319
1.11221e-05
0.000203298
1.80738e-05
0.000195117
2.45153e-05
0.000184953
3.04679e-05
0.000172762
3.65316e-05
0.000158891
4.15617e-05
0.000143581
4.58775e-05
0.000126953
4.9854e-05
0.000109288
5.29461e-05
9.08954e-05
5.51104e-05
7.20469e-05
5.64936e-05
5.28635e-05
5.7489e-05
3.36868e-05
5.74685e-05
1.45552e-05
5.73897e-05
-4.26186e-06
5.63932e-05
-2.25302e-05
5.4762e-05
-4.01526e-05
5.28326e-05
-5.70147e-05
5.05619e-05
-7.29791e-05
4.78845e-05
-8.81029e-05
4.53486e-05
-0.000102179
4.21927e-05
-0.00011523
3.91364e-05
-0.000127204
3.593e-05
-0.000138057
3.25874e-05
-0.000147787
2.91622e-05
-0.000156461
2.59931e-05
-0.00016388
2.2272e-05
-0.000170133
1.87825e-05
-0.000175232
1.52798e-05
-0.000179249
1.20737e-05
-0.000182227
8.95165e-06
-0.000184246
6.07823e-06
-0.000185424
3.55771e-06
-0.000185889
1.4098e-06
-0.000185631
-7.80121e-07
-0.000184727
-2.72277e-06
-0.000183197
-4.6088e-06
-0.000181063
-6.41927e-06
-0.000178319
-8.25017e-06
-0.000175071
-9.77861e-06
-0.000171149
-1.17997e-05
-0.000166693
-1.33922e-05
-0.000161536
-1.54932e-05
-0.000155725
-1.74741e-05
-0.000149206
-1.95699e-05
-0.000141965
-2.17624e-05
-0.000133981
-2.39851e-05
-0.000125183
-2.63835e-05
-0.000115712
-2.84376e-05
-0.000105377
-3.10156e-05
-9.41891e-05
-3.34573e-05
-8.2305e-05
-3.57611e-05
-6.9561e-05
-3.82262e-05
-5.60118e-05
-4.0619e-05
-4.16605e-05
-4.29596e-05
-2.67317e-05
-4.48592e-05
-1.10931e-05
-4.69053e-05
5.1402e-06
-4.86586e-05
2.18215e-05
-5.00548e-05
3.88804e-05
-5.1101e-05
5.61646e-05
-5.18147e-05
7.3501e-05
-5.20007e-05
9.0726e-05
-5.16429e-05
0.000107621
-5.06416e-05
0.000123976
-4.90116e-05
0.000139525
-4.65854e-05
0.000154043
-4.35128e-05
0.000167239
-3.9529e-05
0.000178883
-3.4901e-05
0.000188742
-2.95474e-05
0.00019658
-2.34999e-05
0.000202252
-1.69494e-05
0.000205561
-9.96957e-06
0.000206466
-2.75394e-06
0.000204901
4.65514e-06
0.000200877
1.2028e-05
0.000194452
1.92252e-05
0.000185719
2.6165e-05
0.000174901
3.23871e-05
0.000162137
3.82488e-05
0.000147657
4.33563e-05
0.000131721
4.77017e-05
0.00011461
5.13448e-05
9.65965e-05
5.39781e-05
7.79381e-05
5.58924e-05
5.89597e-05
5.69599e-05
3.98659e-05
5.72251e-05
2.09367e-05
5.67471e-05
2.40564e-06
5.55591e-05
-1.5578e-05
5.38777e-05
-3.28204e-05
5.16984e-05
-4.91963e-05
4.91202e-05
-6.4616e-05
4.62932e-05
-7.90893e-05
4.33943e-05
-9.24872e-05
4.01914e-05
-0.000104819
3.70022e-05
-0.000116095
3.38113e-05
-0.000126378
3.08929e-05
-0.000135621
2.77641e-05
-0.000143898
2.49192e-05
-0.00015133
2.22256e-05
-0.000157831
1.94841e-05
-0.000163499
1.69723e-05
-0.000168375
1.46693e-05
-0.000172486
1.23927e-05
-0.000175996
1.05015e-05
-0.000178779
8.353e-06
-0.000180929
6.42377e-06
-0.000182426
4.51437e-06
-0.000183317
2.70355e-06
-0.000183591
8.194e-07
-0.00018326
-9.71588e-07
-0.000182317
-2.84364e-06
-0.000180799
-4.54317e-06
-0.000178649
-6.46959e-06
-0.000175905
-8.23079e-06
-0.000172537
-1.01354e-05
-0.000168541
-1.19302e-05
-0.00016391
-1.39083e-05
-0.00015862
-1.58316e-05
-0.000152673
-1.78945e-05
-0.000146018
-1.99409e-05
-0.000138608
-2.21682e-05
-0.000130606
-2.40702e-05
-0.000121799
-2.64063e-05
-0.000112249
-2.86551e-05
-0.000101952
-3.08821e-05
-9.08508e-05
-3.32945e-05
-7.89382e-05
-3.57303e-05
-6.62691e-05
-3.80057e-05
-5.27751e-05
-4.0468e-05
-3.85414e-05
-4.27174e-05
-2.35885e-05
-4.48123e-05
-8.02867e-06
-4.66726e-05
8.05655e-06
-4.81966e-05
2.4498e-05
-4.93115e-05
4.11726e-05
-4.99923e-05
5.79073e-05
-5.01489e-05
7.44729e-05
-4.96845e-05
9.0683e-05
-4.85671e-05
0.000106285
-4.67603e-05
0.000121051
-4.42753e-05
0.000134767
-4.11327e-05
0.000147191
-3.72699e-05
0.000158105
-3.26814e-05
0.000167299
-2.7545e-05
0.000174581
-2.17473e-05
0.000179748
-1.55047e-05
0.000182735
-8.97271e-06
0.000183441
-2.17278e-06
0.000181852
4.74284e-06
0.000177972
1.16298e-05
0.000171854
1.8332e-05
0.000163624
2.46559e-05
0.000153479
3.04512e-05
0.000141509
3.58995e-05
0.000127952
4.05584e-05
0.000113073
4.45737e-05
9.71055e-05
4.78657e-05
8.03313e-05
5.02589e-05
6.3029e-05
5.18635e-05
4.54798e-05
5.2605e-05
2.79279e-05
5.26877e-05
1.05423e-05
5.20716e-05
-6.40807e-06
5.08209e-05
-2.27974e-05
4.91404e-05
-3.85079e-05
4.70941e-05
-5.35316e-05
4.50633e-05
-6.77265e-05
4.25922e-05
-8.11072e-05
4.02253e-05
-9.36964e-05
3.76906e-05
-0.000105378
3.50215e-05
-0.000116141
3.23622e-05
-0.000126117
2.98617e-05
-0.000135124
2.70343e-05
-0.000143328
2.45186e-05
-0.000150645
2.20245e-05
-0.00015717
1.95986e-05
-0.000162908
1.72114e-05
-0.000167888
1.49519e-05
-0.000172133
1.27201e-05
-0.00017567
1.06084e-05
-0.000178538
8.50681e-06
-0.000180721
6.64121e-06
-0.000182271
4.65685e-06
-0.000183229
2.87443e-06
-0.000183609
1.15814e-06
-0.000183476
-4.4278e-07
-0.000182878
-1.73417e-06
-0.000181783
-3.27765e-06
-0.000180212
-4.72575e-06
-0.000178138
-6.12922e-06
-0.00017569
-7.43153e-06
-0.000172716
-8.92396e-06
-0.000169276
-1.02817e-05
-0.000165299
-1.19148e-05
-0.000160749
-1.36011e-05
-0.000155655
-1.52784e-05
-0.000149892
-1.72724e-05
-0.000143457
-1.9249e-05
-0.000136319
-2.14071e-05
-0.000128431
-2.36293e-05
-0.000119802
-2.58591e-05
-0.000110438
-2.8078e-05
-0.000100367
-3.01781e-05
-8.95999e-05
-3.22812e-05
-7.81147e-05
-3.44141e-05
-6.6112e-05
-3.60049e-05
-5.34676e-05
-3.79051e-05
-4.01929e-05
-3.98228e-05
-2.64033e-05
-4.13322e-05
-1.20541e-05
-4.29886e-05
2.59423e-06
-4.39133e-05
1.76255e-05
-4.50678e-05
3.28676e-05
-4.56855e-05
4.827e-05
-4.61796e-05
6.37025e-05
-4.62212e-05
7.90531e-05
-4.6058e-05
9.41218e-05
-4.51349e-05
0.000108885
-4.43223e-05
0.000122935
-4.21031e-05
0.000136248
-3.98957e-05
0.000148612
-3.70527e-05
0.000159813
-3.35718e-05
0.000169526
-2.90486e-05
0.000177469
-2.37783e-05
0.000183457
-1.78911e-05
0.000187225
-1.12784e-05
0.000188634
-4.18704e-06
0.000187628
2.99212e-06
0.0001841
1.05728e-05
0.000178148
1.78396e-05
0.000169803
2.50032e-05
0.000159416
3.11145e-05
0.000147203
3.65744e-05
0.000133425
4.12816e-05
0.000118535
4.45857e-05
0.000102726
4.73797e-05
8.63085e-05
4.91785e-05
6.97035e-05
4.97441e-05
5.29469e-05
5.02581e-05
3.63715e-05
4.96679e-05
2.02945e-05
4.81728e-05
4.62337e-06
4.70319e-05
-1.0414e-05
4.50774e-05
-2.46903e-05
4.28068e-05
-3.81213e-05
4.02822e-05
-5.06435e-05
3.75554e-05
-6.2228e-05
3.47505e-05
-7.28892e-05
3.19828e-05
-8.26322e-05
2.92306e-05
-9.15017e-05
2.66183e-05
-9.95341e-05
2.40988e-05
-0.000106789
2.17733e-05
-0.000113348
1.96787e-05
-0.000119266
1.77804e-05
-0.000124601
1.60093e-05
-0.000129419
1.4463e-05
-0.000133774
1.3065e-05
-0.000137708
1.18091e-05
-0.000141235
1.05818e-05
-0.000144382
9.43887e-06
-0.000147154
8.29898e-06
-0.000149524
7.11013e-06
-0.000151465
5.81839e-06
-0.000152959
4.47536e-06
-0.000153967
3.00965e-06
-0.000154449
1.45387e-06
-0.000154298
-4.48807e-07
-0.000153468
-2.50028e-06
-0.000151912
-4.66878e-06
-0.00014962
-6.88524e-06
-0.000146509
-9.36014e-06
-0.000142481
-1.20713e-05
-0.000137643
-1.45468e-05
-0.000131831
-1.74088e-05
-0.000125106
-2.01643e-05
-0.000117401
-2.3112e-05
-0.000108777
-2.5876e-05
-9.92701e-05
-2.85e-05
-8.87783e-05
-3.14746e-05
-7.74149e-05
-3.40859e-05
-6.52689e-05
-3.64324e-05
-5.22569e-05
-3.90197e-05
-3.86371e-05
-4.08436e-05
-2.42804e-05
-4.30411e-05
-9.36174e-06
-4.47376e-05
5.91313e-06
-4.58119e-05
2.16635e-05
-4.72333e-05
3.76904e-05
-4.80692e-05
5.38053e-05
-4.83271e-05
6.99521e-05
-4.84273e-05
8.59284e-05
-4.79021e-05
0.000101615
-4.70357e-05
0.000116814
-4.55651e-05
0.000131255
-4.32885e-05
0.000144906
-4.09059e-05
0.000157511
-3.77616e-05
-3.4771e-05
-5.34505e-05
6.62515e-05
-6.90514e-05
6.23679e-05
-8.37891e-05
5.89197e-05
-9.75858e-05
5.51624e-05
-0.00011036
5.10762e-05
-0.000122164
4.72023e-05
-0.000132954
4.31496e-05
-0.000142791
3.93406e-05
-0.000151676
3.55364e-05
-0.000159621
3.17736e-05
-0.000166675
2.82244e-05
-0.000172868
2.47704e-05
-0.000178233
2.14304e-05
-0.000182782
1.82276e-05
-0.000186563
1.51166e-05
-0.000189591
1.20959e-05
-0.00019189
9.19665e-06
-0.000193468
6.3111e-06
-0.000194347
3.54921e-06
-0.00019451
7.98733e-07
-0.000193912
-2.3354e-06
-0.000192624
-5.1528e-06
-0.000190605
-8.07949e-06
-0.000187809
-1.12298e-05
-0.000184213
-1.43814e-05
-0.000179747
-1.78972e-05
-0.000174513
-2.09259e-05
-0.000168419
-2.43981e-05
-0.000161364
-2.82673e-05
-0.000153352
-3.20315e-05
-0.000144459
-3.55872e-05
-0.000134512
-3.98277e-05
-0.000123565
-4.37478e-05
-0.000111484
-4.83322e-05
-9.84466e-05
-5.21462e-05
-8.45294e-05
-5.56612e-05
-6.9543e-05
-5.99266e-05
-5.36835e-05
-6.35069e-05
-3.70132e-05
-6.65237e-05
-1.94653e-05
-7.00491e-05
-1.29111e-06
-7.26533e-05
1.7406e-05
-7.46883e-05
3.64877e-05
-7.62398e-05
5.55915e-05
-7.63033e-05
7.46448e-05
-7.60865e-05
9.34788e-05
-7.52056e-05
0.000111657
-7.25829e-05
0.000129078
-6.95449e-05
0.000145554
-6.57358e-05
0.000160646
-6.03011e-05
0.000174277
-5.44094e-05
0.000186143
-4.73943e-05
0.000196217
-4.01884e-05
0.000204239
-3.20377e-05
0.000209987
-2.29503e-05
0.000213453
-1.38275e-05
0.000214654
-4.76511e-06
0.000213272
5.45575e-06
0.000209571
1.48234e-05
0.000203551
2.40933e-05
0.000195353
3.27138e-05
0.000185159
4.06613e-05
0.000172961
4.87303e-05
0.00015906
5.54618e-05
0.000143719
6.12191e-05
0.000127076
6.64971e-05
0.000109386
7.06355e-05
9.09536e-05
7.35431e-05
7.20749e-05
7.53724e-05
5.28569e-05
7.6707e-05
3.36467e-05
7.66787e-05
1.45124e-05
7.6524e-05
-4.33563e-06
7.52412e-05
-2.26242e-05
7.30505e-05
-4.02644e-05
7.04727e-05
-5.71414e-05
6.74389e-05
-7.31151e-05
6.38581e-05
-8.82528e-05
6.04863e-05
-0.00010234
5.62796e-05
-0.000115397
5.21939e-05
-0.000127379
4.79111e-05
-0.000138217
4.34256e-05
-0.000147973
3.89179e-05
-0.000156647
3.46667e-05
-0.00016407
2.96945e-05
-0.000170309
2.50216e-05
-0.000175434
2.04048e-05
-0.000179443
1.60823e-05
-0.000182418
1.19255e-05
-0.000184428
8.0885e-06
-0.000185603
4.73256e-06
-0.000186066
1.87205e-06
-0.000185809
-1.03756e-06
-0.000184919
-3.61317e-06
-0.000183409
-6.11953e-06
-0.000181287
-8.54156e-06
-0.000178614
-1.09233e-05
-0.000175324
-1.30684e-05
-0.000171421