/*--------------------------------*- C++ -*----------------------------------*\
| =========                 |                                                 |
| \\      /  F ield         | OpenFOAM: The Open Source CFD Toolbox           |
|  \\    /   O peration     | Version:  3.0.1                                 |
|   \\  /    A nd           | Web:      www.OpenFOAM.org                      |
|    \\/     M anipulation  |                                                 |
\*---------------------------------------------------------------------------*/
FoamFile
{
    version     2.0;
    format      ascii;
    class       surfaceScalarField;
    location    "19";
    object      phi;
}
// * * * * * * * * * * * * * * * * * * * * * * * * * * * * * * * * * * * * * //

dimensions      [0 3 -1 0 0 0 0];

internalField   nonuniform List<scalar> 
42423
(
0.000104191
-1.48933e-05
0.000118364
-1.41723e-05
0.000131509
-1.31459e-05
0.000143475
-1.19658e-05
0.000154225
-1.07501e-05
0.000163624
-9.39951e-06
0.000171615
-7.99117e-06
0.000178086
-6.47054e-06
0.000182981
-4.89492e-06
0.000186247
-3.2664e-06
0.000187911
-1.66395e-06
0.000187943
-3.22209e-08
0.000186384
1.55858e-06
0.000183077
3.30755e-06
0.000178172
4.90494e-06
0.000171645
6.52657e-06
0.000163516
8.12899e-06
0.000154011
9.50464e-06
0.000143122
1.08892e-05
0.000130854
1.22686e-05
0.000117552
1.33017e-05
0.000103259
1.42931e-05
8.82229e-05
1.50358e-05
7.26165e-05
1.56064e-05
5.65789e-05
1.60376e-05
4.0491e-05
1.60879e-05
2.43828e-05
1.61082e-05
8.49284e-06
1.58899e-05
-6.99604e-06
1.54889e-05
-2.19691e-05
1.49731e-05
-3.62834e-05
1.43142e-05
-4.9847e-05
1.35637e-05
-6.25813e-05
1.27343e-05
-7.44145e-05
1.18332e-05
-8.53243e-05
1.09098e-05
-9.52911e-05
9.96677e-06
-0.000104318
9.02706e-06
-0.000112412
8.09357e-06
-0.000119594
7.18208e-06
-0.000125899
6.30568e-06
-0.000131369
5.46989e-06
-0.00013602
4.65052e-06
-0.000139894
3.87392e-06
-0.000143036
3.14216e-06
-0.000145442
2.40575e-06
-0.000147166
1.72417e-06
-0.000148212
1.04652e-06
-0.000148572
3.60053e-07
-0.000148228
-3.44271e-07
-0.000147139
-1.08917e-06
-0.000145259
-1.87956e-06
-0.000142651
-2.60827e-06
-0.00013922
-3.43106e-06
-0.000135077
-4.14358e-06
-0.000130189
-4.88746e-06
-0.000124484
-5.70474e-06
-0.00011812
-6.36402e-06
-0.000111092
-7.02846e-06
-0.000103333
-7.75934e-06
-9.50316e-05
-8.3011e-06
-8.61119e-05
-8.91976e-06
-7.66283e-05
-9.48359e-06
-6.67586e-05
-9.86969e-06
-5.64163e-05
-1.03424e-05
-4.56584e-05
-1.0758e-05
-3.46299e-05
-1.10285e-05
-2.31959e-05
-1.14341e-05
-1.15309e-05
-1.16651e-05
3.52244e-07
-1.18832e-05
1.24397e-05
-1.20875e-05
2.45951e-05
-1.21554e-05
3.68193e-05
-1.22243e-05
4.90577e-05
-1.22384e-05
6.10887e-05
-1.2031e-05
7.29189e-05
-1.18303e-05
8.44447e-05
-1.15259e-05
9.55036e-05
-1.10589e-05
0.000105966
-1.04627e-05
0.000115724
-9.75772e-06
0.000124618
-8.89433e-06
0.000132526
-7.9075e-06
0.000139299
-6.77304e-06
0.000144834
-5.53539e-06
0.000148985
-4.15062e-06
0.000151623
-2.63812e-06
0.000152731
-1.10871e-06
0.000152274
4.5689e-07
0.000150175
2.09902e-06
0.000146291
3.88381e-06
0.000140739
5.55267e-06
0.000133466
7.27321e-06
0.000124827
8.63818e-06
0.000114674
1.01537e-05
0.000103313
1.13605e-05
9.09101e-05
1.24029e-05
7.77199e-05
1.31902e-05
6.3887e-05
1.38328e-05
4.96434e-05
1.42436e-05
3.51995e-05
1.4444e-05
2.07482e-05
1.44512e-05
6.47158e-06
1.42767e-05
-7.46258e-06
1.39342e-05
-2.09219e-05
1.34593e-05
-3.38048e-05
1.2883e-05
-4.59974e-05
1.21926e-05
-5.74542e-05
1.14568e-05
-6.80969e-05
1.06428e-05
-7.79383e-05
9.84135e-06
-8.69606e-05
9.02232e-06
-9.51735e-05
8.21289e-06
-0.000102571
7.39766e-06
-0.000109172
6.60113e-06
-0.00011501
5.83797e-06
-0.000120118
5.10774e-06
-0.00012457
4.45169e-06
-0.000128343
3.77349e-06
-0.000131524
3.18076e-06
-0.000134116
2.59192e-06
-0.000136169
2.05306e-06
-0.000137703
1.53442e-06
-0.000138747
1.04352e-06
-0.000139332
5.84942e-07
-0.000139407
7.49969e-08
-0.000138996
-4.10773e-07
-0.000138034
-9.62114e-07
-0.000136533
-1.50108e-06
-0.00013446
-2.07276e-06
-0.000131838
-2.62194e-06
-0.000128587
-3.25143e-06
-0.000124702
-3.88473e-06
-0.000120214
-4.48806e-06
-0.000115043
-5.171e-06
-0.000109174
-5.86919e-06
-0.000102561
-6.61271e-06
-9.52581e-05
-7.30294e-06
-8.71881e-05
-8.07007e-06
-7.8364e-05
-8.82405e-06
-6.88068e-05
-9.55721e-06
-5.85413e-05
-1.02655e-05
-4.7616e-05
-1.09254e-05
-3.60591e-05
-1.15569e-05
-2.39417e-05
-1.21175e-05
-1.13273e-05
-1.26144e-05
1.68711e-06
-1.30145e-05
1.49944e-05
-1.33074e-05
2.84795e-05
-1.34851e-05
4.19628e-05
-1.34833e-05
5.5312e-05
-1.33493e-05
6.8361e-05
-1.3049e-05
8.09609e-05
-1.26e-05
9.29281e-05
-1.19673e-05
0.000104093
-1.11649e-05
0.000114314
-1.02207e-05
0.000123432
-9.11793e-06
0.000131315
-7.88307e-06
0.000137857
-6.54275e-06
0.000142957
-5.0995e-06
0.000146566
-3.60948e-06
0.000148642
-2.07571e-06
0.000149126
-4.83904e-07
0.00014807
1.05558e-06
0.000145445
2.62467e-06
0.000141355
4.09012e-06
0.000135857
5.49839e-06
0.000129025
6.83232e-06
0.000121001
8.02332e-06
0.000111911
9.0904e-06
0.000101894
1.00173e-05
9.10847e-05
1.08089e-05
7.96325e-05
1.14522e-05
6.76761e-05
1.19564e-05
5.53499e-05
1.23263e-05
4.27844e-05
1.25655e-05
3.01054e-05
1.2679e-05
1.74277e-05
1.26777e-05
4.85212e-06
1.25756e-05
-7.52978e-06
1.23819e-05
-1.96303e-05
1.21005e-05
-3.13803e-05
1.175e-05
-4.27092e-05
1.1329e-05
-5.35648e-05
1.08556e-05
-6.38953e-05
1.03305e-05
-7.36694e-05
9.77415e-06
-8.28323e-05
9.16282e-06
-9.13658e-05
8.53356e-06
-9.92318e-05
7.86597e-06
-0.000106415
7.18275e-06
-0.00011291
6.49598e-06
-0.000118691
5.78054e-06
-0.000123748
5.05724e-06
-0.000128068
4.31982e-06
-0.000131646
3.57762e-06
-0.000134496
2.84994e-06
-0.000136574
2.07838e-06
-0.000137909
1.33518e-06
-0.000138515
6.05656e-07
-0.000138365
-1.49447e-07
-0.000137474
-8.9112e-07
-0.000135849
-1.62546e-06
-0.000133498
-2.35041e-06
-0.000130436
-3.06292e-06
-0.000126696
-3.73915e-06
-0.000122284
-4.41286e-06
-0.000117208
-5.07542e-06
-0.000111485
-5.72262e-06
-0.000105165
-6.32034e-06
-9.82308e-05
-6.93435e-06
-9.07099e-05
-7.5209e-06
-8.26231e-05
-8.08685e-06
-7.39718e-05
-8.65132e-06
-6.47796e-05
-9.19221e-06
-5.50551e-05
-9.72444e-06
-4.48515e-05
-1.02037e-05
-3.41667e-05
-1.06848e-05
-2.30491e-05
-1.11176e-05
-1.15357e-05
-1.15134e-05
3.01598e-07
-1.18373e-05
1.24103e-05
-1.21087e-05
2.47384e-05
-1.23281e-05
3.71623e-05
-1.24239e-05
4.96243e-05
-1.24621e-05
6.20256e-05
-1.24013e-05
7.42708e-05
-1.22453e-05
8.62097e-05
-1.19389e-05
9.77566e-05
-1.1547e-05
0.000108767
-1.10104e-05
0.000119096
-1.0329e-05
0.000128612
-9.516e-06
0.000137185
-8.57339e-06
0.000144656
-7.47098e-06
0.000150856
-6.1999e-06
0.000155716
-4.85992e-06
0.000159121
-3.40509e-06
0.000160934
-1.81266e-06
0.000161165
-2.31741e-07
0.000159756
1.40987e-06
0.000156657
3.09837e-06
0.000151937
4.71991e-06
0.000145646
6.29137e-06
0.000137884
7.76191e-06
0.000128774
9.10961e-06
0.000118436
1.03389e-05
0.000107065
1.13704e-05
9.48261e-05
1.2239e-05
8.19188e-05
1.29073e-05
6.85361e-05
1.33827e-05
5.48778e-05
1.36583e-05
4.11492e-05
1.37286e-05
2.75038e-05
1.36454e-05
1.4126e-05
1.33778e-05
1.15081e-06
1.29752e-05
-1.13146e-05
1.24654e-05
-2.31582e-05
1.18436e-05
-3.43406e-05
1.11824e-05
-4.47588e-05
1.04183e-05
-5.44437e-05
9.68482e-06
-6.33941e-05
8.95049e-06
-7.1558e-05
8.16388e-06
-7.90062e-05
7.44824e-06
-8.57195e-05
6.71329e-06
-9.17353e-05
6.01577e-06
-9.71563e-05
5.42104e-06
-0.000101896
4.73927e-06
-0.000106041
4.14552e-06
-0.000109646
3.6046e-06
-0.000112699
3.05283e-06
-0.000115187
2.48812e-06
-0.000117137
1.95055e-06
-0.00011858
1.44295e-06
-0.000119493
9.12344e-07
-0.000119894
4.01206e-07
-0.000119671
-2.22458e-07
-0.000118857
-8.13939e-07
-0.000117451
-1.40646e-06
-0.000115372
-2.07885e-06
-0.000112672
-2.70042e-06
-0.000109239
-3.4329e-06
-0.000105016
-4.22278e-06
-0.000100018
-4.99818e-06
-9.42148e-05
-5.80302e-06
-8.7618e-05
-6.59686e-06
-8.01785e-05
-7.43951e-06
-7.19492e-05
-8.22931e-06
-6.29689e-05
-8.9803e-06
-5.3282e-05
-9.6869e-06
-4.27995e-05
-1.04826e-05
-3.17755e-05
-1.1024e-05
-2.00839e-05
-1.16916e-05
-7.93256e-06
-1.21514e-05
4.71483e-06
-1.26474e-05
1.77676e-05
-1.30528e-05
3.10448e-05
-1.32773e-05
4.45087e-05
-1.34639e-05
5.80282e-05
-1.35195e-05
7.14217e-05
-1.33936e-05
8.4617e-05
-1.31954e-05
9.74676e-05
-1.28506e-05
0.000109777
-1.23098e-05
0.000121496
-1.17187e-05
0.000132374
-1.08779e-05
0.000142351
-9.97685e-06
0.000151302
-8.95159e-06
0.000159023
-7.72065e-06
0.000165506
-6.48339e-06
0.000170624
-5.11797e-06
0.000174257
-3.63252e-06
0.000176446
-2.18947e-06
0.000177102
-6.56107e-07
0.000176314
7.87925e-07
0.000174053
2.261e-06
0.000170272
3.78102e-06
0.000165158
5.1135e-06
0.000158703
6.45543e-06
0.000150929
7.77365e-06
0.000142076
8.85273e-06
0.000132119
9.9577e-06
0.000121263
1.08558e-05
0.0001097
1.15632e-05
9.74283e-05
1.22713e-05
8.46409e-05
1.27874e-05
7.15978e-05
1.30431e-05
5.82309e-05
1.33668e-05
4.48627e-05
1.33682e-05
3.15119e-05
1.33508e-05
1.83747e-05
1.31372e-05
5.49966e-06
1.2875e-05
-6.85584e-06
1.23555e-05
-1.87681e-05
1.19122e-05
-3.01242e-05
1.13561e-05
-4.08322e-05
1.0708e-05
-5.08337e-05
1.00015e-05
-6.01081e-05
9.27442e-06
-6.86115e-05
8.50339e-06
-7.63233e-05
7.71179e-06
-8.32253e-05
6.90206e-06
-8.93236e-05
6.09826e-06
-9.46382e-05
5.31465e-06
-9.91749e-05
4.53661e-06
-0.000102938
3.76337e-06
-0.000105969
3.03084e-06
-0.000108236
2.26713e-06
-0.000109785
1.54884e-06
-0.000110645
8.60304e-07
-0.000110838
1.92882e-07
-0.000110282
-5.56039e-07
-0.000109035
-1.24738e-06
-0.000107091
-1.94378e-06
-0.00010448
-2.61125e-06
-0.000101208
-3.27197e-06
-9.72479e-05
-3.95985e-06
-9.26133e-05
-4.63458e-06
-8.72497e-05
-5.36367e-06
-8.11951e-05
-6.05454e-06
-7.44286e-05
-6.76656e-06
-6.68812e-05
-7.54737e-06
-5.8616e-05
-8.26516e-06
-8.96664e-06
0.000104231
-2.9797e-05
0.000118412
-2.83539e-05
0.000131563
-2.62971e-05
0.000143545
-2.39482e-05
0.000154321
-2.15254e-05
0.000163722
-1.88012e-05
0.000171711
-1.59799e-05
0.000178182
-1.29416e-05
0.000183074
-9.78751e-06
0.000186342
-6.53422e-06
0.000188012
-3.33414e-06
0.000188043
-6.32216e-08
0.000186479
3.12179e-06
0.000183169
6.61733e-06
0.000178264
9.81018e-06
0.000171739
1.30519e-05
0.000163601
1.62665e-05
0.000154091
1.90143e-05
0.000143195
2.17852e-05
0.000130922
2.45415e-05
0.000117612
2.66118e-05
0.000103308
2.85968e-05
8.8264e-05
3.00801e-05
7.26492e-05
3.12211e-05
5.65976e-05
3.20892e-05
4.05009e-05
3.21846e-05
2.43824e-05
3.22267e-05
8.48344e-06
3.17888e-05
-7.01206e-06
3.09844e-05
-2.19965e-05
2.99575e-05
-3.63168e-05
2.86345e-05
-4.98815e-05
2.71284e-05
-6.26197e-05
2.54725e-05
-7.44618e-05
2.36753e-05
-8.53784e-05
2.18264e-05
-9.53435e-05
1.99318e-05
-0.000104369
1.80525e-05
-0.000112471
1.61955e-05
-0.000119663
1.43737e-05
-0.000125962
1.2605e-05
-0.000131433
1.09406e-05
-0.000136096
9.31437e-06
-0.000139972
7.74929e-06
-0.000143117
6.28752e-06
-0.000145513
4.80203e-06
-0.000147226
3.43666e-06
-0.000148273
2.09335e-06
-0.000148631
7.18488e-07
-0.000148291
-6.84241e-07
-0.000147203
-2.17706e-06
-0.000145324
-3.75907e-06
-0.000142718
-5.21446e-06
-0.000139289
-6.86017e-06
-0.000135145
-8.28757e-06
-0.000130254
-9.7776e-06
-0.000124551
-1.14087e-05
-0.000118182
-1.27323e-05
-0.000111148
-1.40627e-05
-0.000103389
-1.55182e-05
-9.50841e-05
-1.66062e-05
-8.61534e-05
-1.78505e-05
-7.66721e-05
-1.8965e-05
-6.67992e-05
-1.97427e-05
-5.64515e-05
-2.06902e-05
-4.56914e-05
-2.15181e-05
-3.46553e-05
-2.20647e-05
-2.32218e-05
-2.28677e-05
-1.15573e-05
-2.33296e-05
3.40093e-07
-2.37807e-05
1.24359e-05
-2.41834e-05
2.45994e-05
-2.4319e-05
3.68338e-05
-2.44589e-05
4.90828e-05
-2.44876e-05
6.11262e-05
-2.40745e-05
7.29668e-05
-2.36709e-05
8.45072e-05
-2.30664e-05
9.55785e-05
-2.21303e-05
0.000106045
-2.09289e-05
0.000115819
-1.95322e-05
0.000124727
-1.78024e-05
0.00013264
-1.58203e-05
0.000139413
-1.35464e-05
0.000144941
-1.10636e-05
0.000149095
-8.30489e-06
0.000151736
-5.27934e-06
0.000152846
-2.21792e-06
0.000152379
9.23012e-07
0.000150272
4.20628e-06
0.000146381
7.77441e-06
0.000140817
1.11174e-05
0.000133542
1.45478e-05
0.000124877
1.73034e-05
0.000114726
2.03048e-05
0.000103359
2.27271e-05
9.09381e-05
2.48239e-05
7.77322e-05
2.63962e-05
6.39005e-05
2.76645e-05
4.96314e-05
2.85128e-05
3.51821e-05
2.88933e-05
2.07112e-05
2.89222e-05
6.42636e-06
2.85615e-05
-7.5116e-06
2.78721e-05
-2.09797e-05
2.69274e-05
-3.38603e-05
2.57636e-05
-4.606e-05
2.43923e-05
-5.7523e-05
2.29198e-05
-6.81666e-05
2.12864e-05
-7.80172e-05
1.9692e-05
-8.70446e-05
1.80497e-05
-9.52465e-05
1.64148e-05
-0.000102647
1.47978e-05
-0.000109251
1.3206e-05
-0.00011509
1.16763e-05
-0.000120193
1.02105e-05
-0.000124637
8.89649e-06
-0.000128417
7.55313e-06
-0.000131598
6.36138e-06
-0.000134187
5.18112e-06
-0.000136244
4.11044e-06
-0.000137779
3.06948e-06
-0.000138819
2.083e-06
-0.000139399
1.16523e-06
-0.000139478
1.53718e-07
-0.00013907
-8.18112e-07
-0.0001381
-1.93292e-06
-0.000136599
-3.00203e-06
-0.00013453
-4.14105e-06
-0.00013191
-5.24286e-06
-0.000128657
-6.50396e-06
-0.00012478
-7.76147e-06
-0.000120285
-8.98388e-06
-0.000115108
-1.03471e-05
-0.000109241
-1.17365e-05
-0.000102629
-1.32253e-05
-9.5332e-05
-1.45995e-05
-8.72484e-05
-1.61538e-05
-7.84146e-05
-1.76579e-05
-6.88619e-05
-1.911e-05
-5.85892e-05
-2.05382e-05
-4.76661e-05
-2.18486e-05
-3.61047e-05
-2.31183e-05
-2.39785e-05
-2.42438e-05
-1.13567e-05
-2.52362e-05
1.66537e-06
-2.60366e-05
1.49835e-05
-2.66255e-05
2.84731e-05
-2.69748e-05
4.19669e-05
-2.69772e-05
5.53292e-05
-2.67116e-05
6.83892e-05
-2.61091e-05
8.09963e-05
-2.52072e-05
9.29684e-05
-2.39395e-05
0.000104149
-2.23457e-05
0.00011438
-2.04515e-05
0.0001235
-1.82386e-05
0.000131391
-1.57737e-05
0.000137938
-1.30897e-05
0.000143046
-1.02077e-05
0.000146661
-7.22413e-06
0.000148727
-4.14234e-06
0.000149206
-9.62596e-07
0.000148156
2.10549e-06
0.000145535
5.24592e-06
0.000141438
8.18711e-06
0.000135926
1.10101e-05
0.000129083
1.36756e-05
0.000121061
1.60444e-05
0.000111964
1.81874e-05
0.000101938
2.00437e-05
9.11224e-05
2.16245e-05
7.96598e-05
2.29148e-05
6.76901e-05
2.39261e-05
5.53546e-05
2.46618e-05
4.27852e-05
2.51349e-05
3.01003e-05
2.53639e-05
1.74158e-05
2.53622e-05
4.83082e-06
2.51606e-05
-7.56072e-06
2.47735e-05
-1.96676e-05
2.42075e-05
-3.14194e-05
2.35017e-05
-4.27481e-05
2.26578e-05
-5.36129e-05
2.17204e-05
-6.39518e-05
2.06694e-05
-7.37289e-05
1.95513e-05
-8.2892e-05
1.83259e-05
-9.14257e-05
1.70673e-05
-9.92948e-05
1.57351e-05
-0.000106484
1.43722e-05
-0.000112981
1.2993e-05
-0.000118761
1.15604e-05
-0.000123819
1.01151e-05
-0.000128145
8.64569e-06
-0.000131723
7.15563e-06
-0.000134571
5.69843e-06
-0.000136655
4.16233e-06
-0.00013799
2.66954e-06
-0.000138591
1.20703e-06
-0.000138443
-2.97832e-07
-0.00013755
-1.7833e-06
-0.000135926
-3.24941e-06
-0.000133571
-4.70602e-06
-0.000130495
-6.13861e-06
-0.000126767
-7.46708e-06
-0.000122351
-8.82872e-06
-0.000117273
-1.01533e-05
-0.000111553
-1.14426e-05
-0.00010523
-1.26441e-05
-9.82927e-05
-1.38715e-05
-9.07679e-05
-1.50456e-05
-8.26746e-05
-1.61802e-05
-7.40281e-05
-1.72978e-05
-6.4834e-05
-1.83864e-05
-5.5105e-05
-1.94535e-05
-4.48913e-05
-2.04175e-05
-3.42018e-05
-2.13743e-05
-2.30808e-05
-2.22387e-05
-1.15603e-05
-2.3034e-05
2.76325e-07
-2.3674e-05
1.23923e-05
-2.42248e-05
2.4722e-05
-2.46578e-05
3.71582e-05
-2.48602e-05
4.96303e-05
-2.49342e-05
6.20406e-05
-2.48116e-05
7.42936e-05
-2.44984e-05
8.62363e-05
-2.38816e-05
9.77899e-05
-2.31006e-05
0.000108811
-2.20317e-05
0.000119146
-2.06638e-05
0.000128674
-1.90438e-05
0.000137261
-1.71605e-05
0.000144739
-1.49489e-05
0.000150946
-1.24076e-05
0.000155812
-9.7257e-06
0.000159216
-6.80892e-06
0.000161039
-3.63602e-06
0.000161274
-4.66506e-07
0.000159853
2.83133e-06
0.000156751
6.19961e-06
0.000152029
9.44194e-06
0.000145731
1.25893e-05
0.000137962
1.55316e-05
0.000128841
1.82307e-05
0.000118504
2.06756e-05
0.000107123
2.27517e-05
9.48737e-05
2.4488e-05
8.19512e-05
2.58298e-05
6.85543e-05
2.67797e-05
5.48896e-05
2.7323e-05
4.11506e-05
2.74676e-05
2.74917e-05
2.73043e-05
1.41149e-05
2.67547e-05
1.12252e-06
2.59676e-05
-1.13491e-05
2.49371e-05
-2.31976e-05
2.3692e-05
-3.43833e-05
2.23681e-05
-4.48032e-05
2.08382e-05
-5.44959e-05
1.93776e-05
-6.34439e-05
1.78985e-05
-7.16127e-05
1.63326e-05
-7.9063e-05
1.48986e-05
-8.5776e-05
1.34263e-05
-9.17985e-05
1.20383e-05
-9.72075e-05
1.083e-05
-0.000101946
9.47815e-06
-0.000106097
8.29598e-06
-0.0001097
7.20787e-06
-0.000112755
6.10743e-06
-0.000115252
4.98541e-06
-0.000117203
3.90152e-06
-0.000118642
2.88213e-06
-0.000119557
1.82738e-06
-0.000119955
7.99128e-07
-0.000119727
-4.50215e-07
-0.000118919
-1.6227e-06
-0.000117511
-2.81378e-06
-0.000115434
-4.15662e-06
-0.000112739
-5.39475e-06
-0.000109307
-6.86549e-06
-0.000105078
-8.45152e-06
-0.000100085
-9.991e-06
-9.42784e-05
-1.16098e-05
-8.76846e-05
-1.31908e-05
-8.02425e-05
-1.48817e-05
-7.20066e-05
-1.64652e-05
-6.30243e-05
-1.79626e-05
-5.33384e-05
-1.93729e-05
-4.28504e-05
-2.09707e-05
-3.18207e-05
-2.20537e-05
-2.01251e-05
-2.33873e-05
-7.96913e-06
-2.43075e-05
4.68261e-06
-2.52993e-05
1.77359e-05
-2.61062e-05
3.10167e-05
-2.65581e-05
4.44893e-05
-2.69367e-05
5.80146e-05
-2.70449e-05
7.14138e-05
-2.6793e-05
8.46153e-05
-2.63969e-05
9.74743e-05
-2.57097e-05
0.000109793
-2.46287e-05
0.000121517
-2.34431e-05
0.000132401
-2.17619e-05
0.000142388
-1.99635e-05
0.000151345
-1.79092e-05
0.000159072
-1.54475e-05
0.00016556
-1.29714e-05
0.000170684
-1.02423e-05
0.000174322
-7.27012e-06
0.000176517
-4.38533e-06
0.000177174
-1.31246e-06
0.000176385
1.57638e-06
0.00017413
4.51646e-06
0.00017035
7.5605e-06
0.000165233
1.023e-05
0.000158776
1.29132e-05
0.000150996
1.55529e-05
0.00014214
1.7709e-05
0.000132176
1.99217e-05
0.000121312
2.17191e-05
0.000109742
2.31334e-05
9.74655e-05
2.45477e-05
8.46706e-05
2.55822e-05
7.16176e-05
2.60962e-05
5.82455e-05
2.67389e-05
4.48681e-05
2.67455e-05
3.15135e-05
2.67053e-05
1.83708e-05
2.62799e-05
5.49121e-06
2.57546e-05
-6.86949e-06
2.47162e-05
-1.87876e-05
2.38304e-05
-3.01505e-05
2.27189e-05
-4.08651e-05
2.14226e-05
-5.08693e-05
2.00056e-05
-6.01439e-05
1.8549e-05
-6.86502e-05
1.70097e-05
-7.6367e-05
1.54285e-05
-8.32758e-05
1.38109e-05
-8.93724e-05
1.21948e-05
-9.46872e-05
1.06295e-05
-9.92304e-05
9.07978e-06
-0.00010299
7.52326e-06
-0.000106015
6.05579e-06
-0.000108283
4.53509e-06
-0.000109829
3.09482e-06
-0.000110689
1.72036e-06
-0.000110882
3.85964e-07
-0.000110327
-1.11125e-06
-0.000109083
-2.49172e-06
-0.000107141
-3.88576e-06
-0.000104526
-5.22565e-06
-0.000101251
-6.54699e-06
-9.72887e-05
-7.92244e-06
-9.26514e-05
-9.27189e-06
-8.7285e-05
-1.07301e-05
-8.12273e-05
-1.21122e-05
-7.44595e-05
-1.35344e-05
-6.69104e-05
-1.50964e-05
-5.86433e-05
-1.65323e-05
-1.79358e-05
0.000104304
-4.47161e-05
0.000118504
-4.25541e-05
0.000131678
-3.94714e-05
0.000143682
-3.59522e-05
0.000154465
-3.23079e-05
0.000163881
-2.82177e-05
0.000171896
-2.39948e-05
0.000178373
-1.9419e-05
0.000183275
-1.46895e-05
0.000186565
-9.82421e-06
0.000188242
-5.01197e-06
0.00018823
-5.11351e-08
0.000186619
4.73223e-06
0.000183298
9.9383e-06
0.000178391
1.47173e-05
0.000171861
1.95818e-05
0.000163714
2.44138e-05
0.000154195
2.85325e-05
0.000143288
3.26926e-05
0.000131011
3.6818e-05
0.000117689
3.99343e-05
0.00010337
4.29159e-05
8.83097e-05
4.51401e-05
7.26835e-05
4.68473e-05
5.66118e-05
4.81608e-05
4.04983e-05
4.8298e-05
2.43635e-05
4.83615e-05
8.4499e-06
4.77025e-05
-7.05922e-06
4.64935e-05
-2.20562e-05
4.49545e-05
-3.63921e-05
4.29704e-05
-4.99688e-05
4.0705e-05
-6.2711e-05
3.82147e-05
-7.45539e-05
3.55182e-05
-8.54735e-05
3.2746e-05
-9.5446e-05
2.99044e-05
-0.000104469
2.70759e-05
-0.000112564
2.42899e-05
-0.000119757
2.15674e-05
-0.000126067
1.89148e-05
-0.000131535
1.64082e-05
-0.000136191
1.39705e-05
-0.000140074
1.16319e-05
-0.000143217
9.43079e-06
-0.000145621
7.20652e-06
-0.000147335
5.15022e-06
-0.000148363
3.12186e-06
-0.000148698
1.05296e-06
-0.00014835
-1.03247e-06
-0.000147262
-3.26463e-06
-0.000145384
-5.63733e-06
-0.000142777
-7.82135e-06
-0.000139348
-1.02891e-05
-0.000135204
-1.24318e-05
-0.000130312
-1.46692e-05
-0.000124607
-1.71145e-05
-0.000118236
-1.9103e-05
-0.000111198
-2.11003e-05
-0.000103436
-2.32809e-05
-9.51269e-05
-2.4915e-05
-8.61931e-05
-2.67844e-05
-7.67083e-05
-2.84499e-05
-6.68328e-05
-2.96182e-05
-5.64822e-05
-3.10408e-05
-4.57183e-05
-3.22821e-05
-3.46798e-05
-3.31033e-05
-2.32429e-05
-3.43046e-05
-1.15747e-05
-3.49979e-05
3.28464e-07
-3.56839e-05
1.24319e-05
-3.6287e-05
2.46033e-05
-3.64905e-05
3.68503e-05
-3.6706e-05
4.91129e-05
-3.67503e-05
6.11619e-05
-3.61236e-05
7.30209e-05
-3.55301e-05
8.45776e-05
-3.46232e-05
9.56606e-05
-3.32135e-05
0.000106146
-3.1414e-05
0.000115934
-2.93208e-05
0.000124861
-2.67291e-05
0.000132789
-2.3749e-05
0.000139574
-2.0331e-05
0.000145114
-1.66039e-05
0.000149271
-1.24616e-05
0.000151909
-7.91794e-06
0.000153017
-3.32581e-06
0.000152529
1.41051e-06
0.000150399
6.33633e-06
0.000146504
1.16695e-05
0.000140931
1.6691e-05
0.00013365
2.18278e-05
0.000124949
2.60053e-05
0.000114795
3.04579e-05
0.000103413
3.41091e-05
9.0978e-05
3.72593e-05
7.77484e-05
3.96257e-05
6.38998e-05
4.15131e-05
4.96118e-05
4.28009e-05
3.51531e-05
4.3352e-05
2.06634e-05
4.34118e-05
6.36516e-06
4.28598e-05
-7.58239e-06
4.18197e-05
-2.10588e-05
4.04039e-05
-3.39421e-05
3.86469e-05
-4.61456e-05
3.65958e-05
-5.76156e-05
3.43898e-05
-6.82682e-05
3.1939e-05
-7.81195e-05
2.95433e-05
-8.71381e-05
2.70684e-05
-9.53371e-05
2.46139e-05
-0.000102743
2.22038e-05
-0.000109341
1.98034e-05
-0.000115178
1.7514e-05
-0.00012029
1.53228e-05
-0.000124725
1.33314e-05
-0.000128496
1.13236e-05
-0.00013167
9.53518e-06
-0.000134259
7.77084e-06
-0.000136319
6.16973e-06
-0.000137848
4.59909e-06
-0.000138893
3.12799e-06
-0.000139468
1.73956e-06
-0.000139535
2.21406e-07
-0.00013914
-1.2136e-06
-0.000138173
-2.90025e-06
-0.000136671
-4.50354e-06
-0.000134604
-6.20767e-06
-0.000131978
-7.86884e-06
-0.000128732
-9.75026e-06
-0.000124862
-1.16315e-05
-0.000120365
-1.34814e-05
-0.000115189
-1.5523e-05
-0.000109318
-1.76076e-05
-0.000102707
-1.9836e-05
-9.54141e-05
-2.18924e-05
-8.73355e-05
-2.42324e-05
-7.84986e-05
-2.64948e-05
-6.89446e-05
-2.8664e-05
-5.8669e-05
-3.08139e-05
-4.77375e-05
-3.27801e-05
-3.61689e-05
-3.46869e-05
-2.40359e-05
-3.63769e-05
-1.14087e-05
-3.78635e-05
1.61814e-06
-3.90636e-05
1.49575e-05
-3.9965e-05
2.84629e-05
-4.04802e-05
4.19548e-05
-4.04692e-05
5.53352e-05
-4.00921e-05
6.84133e-05
-3.91872e-05
8.10298e-05
-3.78238e-05
9.30173e-05
-3.5927e-05
0.00010421
-3.35383e-05
0.000114448
-3.06901e-05
0.000123586
-2.73762e-05
0.000131485
-2.36724e-05
0.000138036
-1.96416e-05
0.000143151
-1.53225e-05
0.000146766
-1.08388e-05
0.000148841
-6.21761e-06
0.000149321
-1.44288e-06
0.000148253
3.17378e-06
0.000145625
7.87367e-06
0.000141525
1.22874e-05
0.000136013
1.65222e-05
0.000129161
2.0527e-05
0.000121123
2.40824e-05
0.000112015
2.72958e-05
0.000101974
3.0084e-05
9.11505e-05
3.24484e-05
7.96766e-05
3.43887e-05
6.77014e-05
3.59012e-05
5.53524e-05
3.70108e-05
4.27704e-05
3.77169e-05
3.00755e-05
3.80589e-05
1.73824e-05
3.80552e-05
4.79207e-06
3.7751e-05
-7.60336e-06
3.71689e-05
-1.9718e-05
3.63222e-05
-3.14776e-05
3.52613e-05
-4.28151e-05
3.39952e-05
-5.36769e-05
3.25823e-05
-6.4012e-05
3.10045e-05
-7.37997e-05
2.9339e-05
-8.29659e-05
2.74921e-05
-9.15012e-05
2.56026e-05
-9.9371e-05
2.3605e-05
-0.000106562
2.15627e-05
-0.000113063
1.94943e-05
-0.000118843
1.73402e-05
-0.0001239
1.51723e-05
-0.000128227
1.29729e-05
-0.000131807
1.07354e-05
-0.000134653
8.5443e-06
-0.00013674
6.24961e-06
-0.000138075
4.00418e-06
-0.000138671
1.80361e-06
-0.000138515
-4.53924e-07
-0.000137623
-2.67501e-06
-0.000136001
-4.87225e-06
-0.000133644
-7.06266e-06
-0.00013057
-9.21237e-06
-0.000126844
-1.11931e-05
-0.000122416
-1.32573e-05
-0.000117333
-1.52359e-05
-0.000111621
-1.71543e-05
-0.000105295
-1.89701e-05
-9.83585e-05
-2.08083e-05
-9.08282e-05
-2.25759e-05
-8.27306e-05
-2.42779e-05
-7.40826e-05
-2.59458e-05
-6.48893e-05
-2.75797e-05
-5.51589e-05
-2.91839e-05
-4.49417e-05
-3.06347e-05
-3.42519e-05
-3.20641e-05
-2.31236e-05
-3.3367e-05
-1.16011e-05
-3.45565e-05
2.41358e-07
-3.55165e-05
1.23684e-05
-3.63519e-05
2.47e-05
-3.69895e-05
3.71429e-05
-3.73032e-05
4.96249e-05
-3.74163e-05
6.20432e-05
-3.723e-05
7.43025e-05
-3.67577e-05
8.62627e-05
-3.58419e-05
9.78281e-05
-3.4666e-05
0.000108851
-3.30552e-05
0.000119206
-3.10182e-05
0.000128747
-2.85847e-05
0.000137337
-2.57507e-05
0.000144824
-2.24364e-05
0.000151045
-1.86281e-05
0.000155919
-1.45996e-05
0.000159339
-1.02297e-05
0.000161166
-5.46245e-06
0.000161392
-6.93106e-07
0.000159963
4.26081e-06
0.000156859
9.3039e-06
0.000152137
1.41639e-05
0.000145836
1.88897e-05
0.000138059
2.33086e-05
0.000128925
2.7365e-05
0.000118587
3.10139e-05
0.000107176
3.41625e-05
9.49105e-05
3.67532e-05
8.19789e-05
3.87614e-05
6.85635e-05
4.01951e-05
5.48834e-05
4.10031e-05
4.11301e-05
4.1221e-05
2.74588e-05
4.09756e-05
1.40953e-05
4.01182e-05
1.06294e-06
3.9e-05
-1.14092e-05
3.74092e-05
-2.32613e-05
3.55441e-05
-3.44544e-05
3.35612e-05
-4.48864e-05
3.12703e-05
-5.45778e-05
2.90689e-05
-6.35146e-05
2.68354e-05
-7.16865e-05
2.45046e-05
-7.91317e-05
2.23438e-05
-8.58464e-05
2.0141e-05
-9.18752e-05
1.80671e-05
-9.72711e-05
1.62259e-05
-0.000102014
1.4221e-05
-0.000106163
1.24455e-05
-0.000109757
1.08013e-05
-0.000112815
9.16522e-06
-0.000115316
7.48673e-06
-0.000117264
5.84945e-06
-0.0001187
4.31848e-06
-0.000119624
2.75061e-06
-0.000120016
1.19206e-06
-0.00011978
-6.86438e-07
-0.000118977
-2.42603e-06
-0.000117567
-4.22349e-06
-0.000115495
-6.22848e-06
-0.000112807
-8.08266e-06
-0.000109374
-1.02994e-05
-0.000105139
-1.26859e-05
-0.000100155
-1.49754e-05
-9.43481e-05
-1.74165e-05
-8.77533e-05
-1.97856e-05
-8.03086e-05
-2.23264e-05
-7.20735e-05
-2.47004e-05
-6.30858e-05
-2.69503e-05
-5.34024e-05
-2.90563e-05
-4.29096e-05
-3.14635e-05
-3.18732e-05
-3.30902e-05
-2.01711e-05
-3.50895e-05
-8.00928e-06
-3.64694e-05
4.64602e-06
-3.79546e-05
1.7706e-05
-3.91662e-05
3.09939e-05
-3.98461e-05
4.44705e-05
-4.04133e-05
5.79962e-05
-4.05707e-05
7.14001e-05
-4.0197e-05
8.46118e-05
-3.96086e-05
9.74679e-05
-3.85659e-05
0.000109793
-3.69538e-05
0.000121537
-3.5187e-05
0.000132421
-3.26469e-05
0.000142408
-2.99505e-05
0.00015138
-2.68811e-05
0.000159115
-2.31821e-05
0.000165613
-1.947e-05
0.00017073
-1.53593e-05
0.000174355
-1.08955e-05
0.000176571
-6.60166e-06
0.000177258
-1.99957e-06
0.000176481
2.35332e-06
0.000174237
6.76041e-06
0.000170463
1.13351e-05
0.000165336
1.53567e-05
0.000158874
1.93751e-05
0.000151085
2.33416e-05
0.000142222
2.65723e-05
0.000132248
2.98958e-05
0.000121373
3.25935e-05
0.000109789
3.47176e-05
9.75056e-05
3.68312e-05
8.47028e-05
3.8385e-05
7.16271e-05
3.91718e-05
5.825e-05
4.0116e-05
4.48566e-05
4.01388e-05
3.15e-05
4.00619e-05
1.83507e-05
3.94292e-05
5.47589e-06
3.86294e-05
-6.90847e-06
3.71005e-05
-1.8838e-05
3.57599e-05
-3.02074e-05
3.40883e-05
-4.09268e-05
3.2142e-05
-5.09391e-05
3.00179e-05
-6.02185e-05
2.78284e-05
-6.87249e-05
2.55161e-05
-7.64406e-05
2.31442e-05
-8.33504e-05
2.07208e-05
-8.94533e-05
1.82977e-05
-9.47659e-05
1.59421e-05
-9.93029e-05
1.36167e-05
-0.000103063
1.12834e-05
-0.000106088
9.08127e-06
-0.000108359
6.8053e-06
-0.00010991
4.64592e-06
-0.000110763
2.57357e-06
-0.000110942
5.65465e-07
-0.00011038
-1.67372e-06
-0.000109133
-3.73846e-06
-0.000107192
-5.82701e-06
-0.000104579
-7.83839e-06
-0.000101305
-9.82148e-06
-9.73434e-05
-1.18838e-05
-9.27067e-05
-1.39086e-05
-8.73407e-05
-1.60961e-05
-8.12812e-05
-1.81718e-05
-7.45142e-05
-2.03014e-05
-6.69646e-05
-2.2646e-05
-5.86958e-05
-2.48011e-05
-2.69081e-05
0.000104416
-5.9659e-05
0.000118649
-5.67873e-05
0.000131851
-5.26742e-05
0.000143878
-4.79795e-05
0.000154693
-4.31226e-05
0.000164137
-3.76614e-05
0.000172173
-3.20315e-05
0.00017868
-2.59256e-05
0.000183598
-1.96076e-05
0.000186889
-1.31162e-05
0.000188553
-6.67626e-06
0.000188491
1.11666e-08
0.000186828
6.39537e-06
0.000183491
1.32746e-05
0.000178582
1.96271e-05
0.000172042
2.61208e-05
0.000163883
3.25733e-05
0.000154352
3.80636e-05
0.000143428
4.36162e-05
0.000131145
4.91007e-05
0.000117804
5.32756e-05
0.000103462
5.72578e-05
8.83781e-05
6.0224e-05
7.2735e-05
6.24903e-05
5.66337e-05
6.42621e-05
4.04945e-05
6.44372e-05
2.43357e-05
6.45202e-05
8.39984e-06
6.36383e-05
-7.13419e-06
6.20275e-05
-2.2151e-05
5.99713e-05
-3.65023e-05
5.73217e-05
-5.00891e-05
5.42917e-05
-6.28423e-05
5.09679e-05
-7.46956e-05
4.73715e-05
-8.56157e-05
4.36661e-05
-9.55879e-05
3.98766e-05
-0.000104616
3.61042e-05
-0.000112716
3.23899e-05
-0.000119904
2.87549e-05
-0.00012621
2.5221e-05
-0.00013168
2.18781e-05
-0.000136338
1.86286e-05
-0.000140225
1.55195e-05
-0.000143362
1.25678e-05
-0.000145771
9.61475e-06
-0.000147485
6.86485e-06
-0.000148501
4.138e-06
-0.000148803
1.3548e-06
-0.000148438
-1.398e-06
-0.000147351
-4.35103e-06
-0.000145476
-7.51311e-06
-0.000142867
-1.043e-05
-0.000139438
-1.37176e-05
-0.000135294
-1.65766e-05
-0.0001304
-1.95624e-05
-0.000124692
-2.28233e-05
-0.000118318
-2.54771e-05
-0.000111275
-2.81427e-05
-0.000103507
-3.10491e-05
-9.51933e-05
-3.32288e-05
-8.62535e-05
-3.57242e-05
-7.67638e-05
-3.79397e-05
-6.68836e-05
-3.94985e-05
-5.65279e-05
-4.13965e-05
-4.57605e-05
-4.30496e-05
-3.47159e-05
-4.4148e-05
-2.32751e-05
-4.57455e-05
-1.16048e-05
-4.66683e-05
3.0883e-07
-4.75976e-05
1.24255e-05
-4.84037e-05
2.46109e-05
-4.8676e-05
3.68718e-05
-4.89669e-05
4.915e-05
-4.90286e-05
6.12114e-05
-4.81852e-05
7.30987e-05
-4.74175e-05
8.46752e-05
-4.61998e-05
9.57723e-05
-4.43106e-05
0.000106293
-4.19348e-05
0.0001161
-3.91274e-05
0.000125039
-3.56685e-05
0.000132993
-3.17033e-05
0.000139794
-2.71324e-05
0.000145354
-2.21634e-05
0.000149522
-1.66297e-05
0.000152166
-1.05621e-05
0.000153262
-4.42245e-06
0.000152744
1.92877e-06
0.000150592
8.48796e-06
0.00014669
1.55714e-05
0.000141101
2.22806e-05
0.000133812
2.9117e-05
0.000125035
3.47814e-05
0.000114901
4.05924e-05
0.000103496
4.5514e-05
9.10281e-05
4.97273e-05
7.77801e-05
5.28738e-05
6.3901e-05
5.53922e-05
4.95882e-05
5.71136e-05
3.51065e-05
5.78337e-05
2.05954e-05
5.79229e-05
6.28144e-06
5.71737e-05
-7.68854e-06
5.57897e-05
-2.11833e-05
5.38986e-05
-3.40757e-05
5.15394e-05
-4.62795e-05
4.87995e-05