/*--------------------------------*- C++ -*----------------------------------*\
| =========                 |                                                 |
| \\      /  F ield         | OpenFOAM: The Open Source CFD Toolbox           |
|  \\    /   O peration     | Version:  3.0.1                                 |
|   \\  /    A nd           | Web:      www.OpenFOAM.org                      |
|    \\/     M anipulation  |                                                 |
\*---------------------------------------------------------------------------*/
FoamFile
{
    version     2.0;
    format      ascii;
    class       surfaceScalarField;
    location    "36";
    object      alphaPhi;
}
// * * * * * * * * * * * * * * * * * * * * * * * * * * * * * * * * * * * * * //

dimensions      [0 3 -1 0 0 0 0];

internalField   nonuniform List<scalar> 
42423
(
-5.21629e-05
1.09587e-05
-6.21504e-05
9.98751e-06
-7.12506e-05
9.10021e-06
-7.94756e-05
8.22497e-06
-8.68325e-05
7.35692e-06
-9.33769e-05
6.54433e-06
-9.91294e-05
5.7525e-06
-0.00010414
5.01028e-06
-0.000108437
4.29704e-06
-0.000112054
3.61697e-06
-0.000115027
2.97351e-06
-0.000117371
2.34421e-06
-0.000119124
1.75305e-06
-0.000120289
1.16478e-06
-0.000120895
6.05814e-07
-0.000120928
3.31539e-08
-0.000120385
-5.42788e-07
-0.000119216
-1.16948e-06
-0.000117451
-1.76447e-06
-0.000115198
-2.25374e-06
-0.000112221
-2.97629e-06
-0.000108573
-3.64864e-06
-0.000104272
-4.30098e-06
-9.9196e-05
-5.07585e-06
-9.34382e-05
-5.75778e-06
-8.68192e-05
-6.61909e-06
-7.9323e-05
-7.49614e-06
-7.11568e-05
-8.16626e-06
-6.1807e-05
-9.34982e-06
-5.15136e-05
-1.02934e-05
-4.041e-05
-1.11036e-05
-2.82164e-05
-1.21937e-05
-1.51614e-05
-1.3055e-05
-9.53628e-07
-1.42078e-05
1.42039e-05
-1.51576e-05
3.00186e-05
-1.58147e-05
4.66381e-05
-1.66195e-05
6.39617e-05
-1.73237e-05
8.16266e-05
-1.76649e-05
9.96846e-05
-1.80581e-05
0.000117827
-1.81426e-05
0.000135917
-1.809e-05
0.000153696
-1.77789e-05
0.000170785
-1.7089e-05
0.00018703
-1.62455e-05
0.000202179
-1.51486e-05
0.00021592
-1.37415e-05
0.000228095
-1.21751e-05
0.00023843
-1.03342e-05
0.000246725
-8.29518e-06
0.000252899
-6.17461e-06
0.000256769
-3.86932e-06
0.000258294
-1.52547e-06
0.000257539
7.54995e-07
0.000254311
3.22772e-06
0.000248755
5.5564e-06
0.000241078
7.67668e-06
0.000231217
9.86074e-06
0.000219482
1.17352e-05
0.00020599
1.34924e-05
0.000191015
1.49745e-05
0.000174789
1.62266e-05
0.000157503
1.72853e-05
0.00013947
1.80331e-05
0.000120848
1.86221e-05
0.00010192
1.89278e-05
8.30066e-05
1.89136e-05
6.42071e-05
1.87995e-05
4.56954e-05
1.85117e-05
2.75652e-05
1.81302e-05
9.97376e-06
1.75915e-05
-7.00243e-06
1.69762e-05
-2.32591e-05
1.62566e-05
-3.87437e-05
1.54846e-05
-5.33998e-05
1.4656e-05
-6.72733e-05
1.38735e-05
-8.02492e-05
1.29759e-05
-9.23923e-05
1.21431e-05
-0.000103653
1.12605e-05
-0.000113967
1.03141e-05
-0.000123355
9.3879e-06
-0.00013176
8.40535e-06
-0.000139133
7.37231e-06
-0.000145417
6.28431e-06
-0.000150603
5.18524e-06
-0.0001546
3.99753e-06
-0.000157355
2.75463e-06
-0.000158903
1.54807e-06
-0.000159341
4.38049e-07
-0.000158592
-7.49919e-07
-0.000156979
-1.61239e-06
-0.000154451
-2.52869e-06
-0.000151298
-3.15285e-06
-0.000147582
-3.71652e-06
-0.00014333
-4.25133e-06
-0.000138705
-4.62505e-06
-0.000133618
-5.08688e-06
-0.000128063
-5.55581e-06
-0.00012199
-6.07238e-06
-0.000115344
-6.64678e-06
-0.000108105
-7.23819e-06
-0.000100137
-7.96871e-06
-9.14084e-05
-8.7285e-06
-8.1814e-05
-9.59447e-06
-7.14551e-05
-1.03589e-05
-6.01607e-05
-1.12945e-05
-4.79131e-05
-1.22477e-05
-3.49004e-05
-1.30127e-05
-2.10041e-05
-1.38964e-05
-6.32119e-06
-1.4683e-05
9.1521e-06
-1.54734e-05
2.52262e-05
-1.60742e-05
4.18824e-05
-1.66562e-05
5.8908e-05
-1.70256e-05
7.62203e-05
-1.73124e-05
9.3589e-05
-1.73688e-05
0.000110841
-1.72525e-05
0.000127759
-1.69181e-05
0.000144067
-1.63079e-05
0.000159581
-1.55143e-05
0.000174015
-1.44338e-05
0.000187084
-1.30689e-05
0.000198594
-1.15101e-05
0.000208293
-9.69894e-06
0.00021602
-7.72709e-06
0.00022152
-5.49992e-06
0.000224714
-3.19431e-06
0.0002255
-7.85834e-07
0.00022387
1.6298e-06
0.000219711
4.1589e-06
0.000213191
6.51985e-06
0.000204408
8.78365e-06
0.000193557
1.08509e-05
0.000180818
1.27384e-05
0.000166441
1.43774e-05
0.000150673
1.57681e-05
0.000133814
1.68588e-05
0.000116134
1.76794e-05
9.79075e-05
1.82269e-05
7.94043e-05
1.85032e-05
6.08436e-05
1.85607e-05
4.2436e-05
1.84076e-05
2.43928e-05
1.80431e-05
6.89528e-06
1.74975e-05
-9.90398e-06
1.67993e-05
-2.58944e-05
1.59905e-05
-4.10475e-05
1.51531e-05
-5.5256e-05
1.42085e-05
-6.8433e-05
1.3177e-05
-8.06186e-05
1.21856e-05
-9.1832e-05
1.12134e-05
-0.000102017
1.01847e-05
-0.000111235
9.2183e-06
-0.000119426
8.19141e-06
-0.000126643
7.21647e-06
-0.000133012
6.36875e-06
-0.00013844
5.42848e-06
-0.00014315
4.71023e-06
-0.000147012
3.86143e-06
-0.000150255
3.24353e-06
-0.000152765
2.50936e-06
-0.000154633
1.86859e-06
-0.000155895
1.26208e-06
-0.00015653
6.34973e-07
-0.000156622
9.21861e-08
-0.000156051
-5.70882e-07
-0.000154871
-1.18012e-06
-0.000153043
-1.82877e-06
-0.000150539
-2.50391e-06
-0.000147427
-3.11135e-06
-0.000143681
-3.74599e-06
-0.000139324
-4.35708e-06
-0.000134384
-4.94016e-06
-0.000128832
-5.55172e-06
-0.000122647
-6.18577e-06
-0.0001157
-6.94709e-06
-0.000108053
-7.64663e-06
-9.96511e-05
-8.40184e-06
-9.03925e-05
-9.25864e-06
-8.03112e-05
-1.00813e-05
-6.93658e-05
-1.09454e-05
-5.75348e-05
-1.1831e-05
-4.48243e-05
-1.27106e-05
-3.12555e-05
-1.35689e-05
-1.69534e-05
-1.43021e-05
-1.90636e-06
-1.50471e-05
1.38357e-05
-1.57422e-05
3.00918e-05
-1.62561e-05
4.67715e-05
-1.66798e-05
6.37134e-05
-1.6942e-05
8.07602e-05
-1.70468e-05
9.77098e-05
-1.69497e-05
0.000114291
-1.65809e-05
0.000130323
-1.60321e-05
0.000145574
-1.52516e-05
0.000159724
-1.41498e-05
0.000172565
-1.28412e-05
0.000183839
-1.12734e-05
0.000193303
-9.4641e-06
0.000200762
-7.45926e-06
0.000205999
-5.23724e-06
0.000208938
-2.93932e-06
0.000209513
-5.74455e-07
0.000207716
1.79681e-06
0.000203461
4.25504e-06
0.000196869
6.59148e-06
0.000188152
8.71787e-06
0.000177438
1.07132e-05
0.000164959
1.24797e-05
0.000150964
1.39947e-05
0.000135704
1.52599e-05
0.000119462
1.6242e-05
0.000102514
1.69479e-05
8.51561e-05
1.73582e-05
6.76775e-05
1.74786e-05
5.02457e-05
1.74318e-05
3.31891e-05
1.70567e-05
1.66089e-05
1.65801e-05
6.37663e-07
1.59712e-05
-1.4612e-05
1.52496e-05
-2.91164e-05
1.45044e-05
-4.28053e-05
1.36889e-05
-5.56901e-05
1.28847e-05
-6.76129e-05
1.19228e-05
-7.87407e-05
1.11279e-05
-8.89564e-05
1.02157e-05
-9.83308e-05
9.37435e-06
-0.000106929
8.59772e-06
-0.000114639
7.71095e-06
-0.000121577
6.93797e-06
-0.00012769
6.11303e-06
-0.000133024
5.3337e-06
-0.000137701
4.67691e-06
-0.000141565
3.86399e-06
-0.000144767
3.20184e-06
-0.000147285
2.51792e-06
-0.000149203
1.91822e-06
-0.000150555
1.35251e-06
-0.00015141
8.54213e-07
-0.000151689
2.79523e-07
-0.000151566
-1.23155e-07
-0.000150914
-6.51873e-07
-0.000149758
-1.15641e-06
-0.000148094
-1.66332e-06
-0.000145847
-2.24736e-06
-0.000143019
-2.82805e-06
-0.000139527
-3.49247e-06
-0.000135362
-4.16442e-06
-0.000130459
-4.90271e-06
-0.000124777
-5.68267e-06
-0.000118262
-6.51489e-06
-0.000110887
-7.3752e-06
-0.000102757
-8.13004e-06
-9.373e-05
-9.02675e-06
-8.38024e-05
-9.92759e-06
-7.30333e-05
-1.07691e-05
-6.14097e-05
-1.16236e-05
-4.89671e-05
-1.24426e-05
-3.57491e-05
-1.32181e-05
-2.1821e-05
-1.39281e-05
-7.23822e-06
-1.45829e-05
7.86287e-06
-1.51011e-05
2.34493e-05
-1.55865e-05
3.93571e-05
-1.59079e-05
5.54061e-05
-1.6049e-05
7.15217e-05
-1.61157e-05
8.75187e-05
-1.5997e-05
0.000103281
-1.57627e-05
0.000118636
-1.53548e-05
0.000133474
-1.48385e-05
0.000147617
-1.41432e-05
0.000160947
-1.33294e-05
0.000173263
-1.23161e-05
0.000184386
-1.11239e-05
0.000194003
-9.61636e-06
0.000201938
-7.93516e-06
0.000207941
-6.00368e-06
0.000211812
-3.87142e-06
0.000213235
-1.42282e-06
0.000212298
9.37456e-07
0.000208945
3.352e-06
0.000203406
5.53901e-06
0.000195676
7.7301e-06
0.000185718
9.95828e-06
0.000173815
1.19031e-05
0.000160067
1.37474e-05
0.000144713
1.53548e-05
0.000128234
1.64789e-05
0.00011084
1.73937e-05
9.30013e-05
1.78385e-05
7.49366e-05
1.80647e-05
5.6924e-05
1.80126e-05
3.9312e-05
1.76119e-05
2.21968e-05
1.71152e-05
5.67954e-06
1.65173e-05
-1.00023e-05
1.56818e-05
-2.49789e-05
1.49766e-05
-3.90663e-05
1.40874e-05
-5.21765e-05
1.31102e-05
-6.43137e-05
1.21372e-05
-7.54545e-05
1.11408e-05
-8.56506e-05
1.01962e-05
-9.49155e-05
9.26482e-06
-0.000103268
8.35238e-06
-0.000110761
7.49294e-06
-0.000117419
6.65834e-06
-0.000123276
5.85711e-06
-0.000128387
5.1108e-06
-0.00013275
4.36256e-06
-0.000136424
3.67454e-06
-0.000139419
2.99466e-06
-0.000141763
2.3446e-06
-0.000143438
1.67459e-06
-0.000144492
1.05417e-06
-0.000144912
4.1977e-07
-0.000144618
-2.94209e-07
-0.000143547
-1.07117e-06
-0.000141755
-1.79107e-06
-0.000139238
-2.51793e-06
-0.000135917
-3.32088e-06
-0.000131777
-4.13955e-06
-0.000126825
-4.95187e-06
-0.000120893
-5.93271e-06
-0.00011409
-6.80276e-06
-0.000106354
-7.73588e-06
-9.77206e-05
-8.63334e-06
-8.82742e-05
-9.44644e-06
-7.78598e-05
-1.04144e-05
-6.66255e-05
-1.12343e-05
-5.45895e-05
-1.2036e-05
-4.16561e-05
-1.29335e-05
-2.79188e-05
-1.37373e-05
-1.36494e-05
-1.42694e-05
1.27593e-06
-1.49254e-05
1.66619e-05
-1.5386e-05
3.25494e-05
-1.58875e-05
4.88016e-05
-1.62522e-05
6.5088e-05
-1.62864e-05
8.14915e-05
-1.64036e-05
9.78534e-05
-1.63619e-05
0.000113911
-1.60579e-05
0.000129581
-1.56702e-05
0.000144695
-1.51134e-05
0.000159068
-1.43729e-05
0.000172525
-1.34576e-05
0.000184863
-1.23373e-05
0.000195936
-1.10734e-05
0.000205595
-9.65911e-06
0.000213718
-8.1229e-06
0.0002201
-6.38212e-06
0.000224636
-4.53611e-06
0.000227204
-2.56769e-06
0.000227717
-5.13045e-07
0.000225999
1.71772e-06
0.000222181
3.81825e-06
0.000216306
5.87478e-06
7.85469e-06
-5.22007e-05
2.19177e-05
-6.21879e-05
1.99748e-05
-7.12884e-05
1.82007e-05
-7.95139e-05
1.64505e-05
-8.68713e-05
1.47143e-05
-9.34169e-05
1.30899e-05
-9.91709e-05
1.15065e-05
-0.00010418
1.00195e-05
-0.000108477
8.59368e-06
-0.000112095
7.23506e-06
-0.000115063
5.94178e-06
-0.00011741
4.69092e-06
-0.000119161
3.50427e-06
-0.000120331
2.33503e-06
-0.000120937
1.2118e-06
-0.00012097
6.62444e-08
-0.000120421
-1.09216e-06
-0.000119253
-2.33761e-06
-0.000117491
-3.52634e-06
-0.000115236
-4.50892e-06
-0.000112262
-5.95066e-06
-0.000108616
-7.29449e-06
-0.000104314
-8.60311e-06
-9.92392e-05
-1.01503e-05
-9.34832e-05
-1.15139e-05
-8.68677e-05
-1.32346e-05
-7.93714e-05
-1.49925e-05
-7.11853e-05
-1.63524e-05
-6.18547e-05
-1.86805e-05
-5.15612e-05
-2.0587e-05
-4.04592e-05
-2.22056e-05
-2.82743e-05
-2.43786e-05
-1.51929e-05
-2.61366e-05
-9.93789e-07
-2.84069e-05
1.41628e-05
-3.03142e-05
2.99821e-05
-3.16342e-05
4.66092e-05
-3.32467e-05
6.39457e-05
-3.46603e-05
8.16192e-05
-3.53384e-05
9.96813e-05
-3.61203e-05
0.000117834
-3.62957e-05
0.000135935
-3.61904e-05
0.00015373
-3.55741e-05
0.000170839
-3.41988e-05
0.000187097
-3.25027e-05
0.000202263
-3.03148e-05
0.000216013
-2.74918e-05
0.000228195
-2.43571e-05
0.000238538
-2.06776e-05
0.000246837
-1.65937e-05
0.000253017
-1.23556e-05
0.000256891
-7.74262e-06
0.000258435
-3.06942e-06
0.000257686
1.50368e-06
0.000254434
6.47982e-06
0.000248876
1.11137e-05
0.000241195
1.53578e-05
0.000231334
1.97214e-05
0.00021959
2.34795e-05
0.000206087
2.69957e-05
0.000191102
2.99589e-05
0.000174864
3.24645e-05
0.000157567
3.45824e-05
0.000139523
3.60777e-05
0.000120889
3.72561e-05
0.000101945
3.78715e-05
8.30211e-05
3.78374e-05
6.42092e-05
3.76113e-05
4.56904e-05
3.70305e-05
2.75533e-05
3.62674e-05
9.9575e-06
3.51872e-05
-7.0192e-06
3.39529e-05
-2.32745e-05
3.25119e-05
-3.87596e-05
3.09697e-05
-5.34134e-05
2.93098e-05
-6.72819e-05
2.7742e-05
-8.02541e-05
2.5948e-05
-9.239e-05
2.42789e-05
-0.000103644
2.25147e-05
-0.000113949
2.0619e-05
-0.000123325
1.87635e-05
-0.000131724
1.6804e-05
-0.000139087
1.47355e-05
-0.000145359
1.25564e-05
-0.000150544
1.03696e-05
-0.000154557
8.01052e-06
-0.000157333
5.53051e-06
-0.000158882
3.09749e-06
-0.00015932
8.7565e-07
-0.000158585
-1.48473e-06
-0.000156985
-3.21318e-06
-0.000154464
-5.04921e-06
-0.000151316
-6.30162e-06
-0.000147616
-7.41596e-06
-0.000143375
-8.49294e-06
-0.000138745
-9.25504e-06
-0.000133671
-1.01607e-05
-0.000128121
-1.11055e-05
-0.000122056
-1.21378e-05
-0.000115417
-1.32855e-05
-0.000108184
-1.44719e-05
-0.000100212
-1.59408e-05
-9.1494e-05
-1.74463e-05
-8.19254e-05
-1.91631e-05
-7.15372e-05
-2.07471e-05
-6.02291e-05
-2.26027e-05
-4.79768e-05
-2.45e-05
-3.49668e-05
-2.60229e-05
-2.10572e-05
-2.7806e-05
-6.35914e-06
-2.93811e-05
9.12274e-06
-3.09553e-05
2.52048e-05
-3.21563e-05
4.18651e-05
-3.33167e-05
5.88994e-05
-3.406e-05
7.62251e-05
-3.46382e-05
9.36047e-05
-3.47485e-05
0.000110874
-3.45215e-05
0.000127813
-3.3858e-05
0.000144124
-3.2619e-05
0.000159647
-3.10369e-05
0.000174081
-2.88675e-05
0.000187164
-2.61522e-05
0.000198693
-2.30393e-05
0.000208401
-1.9407e-05
0.000216116
-1.54423e-05
0.000221621
-1.10054e-05
0.000224826
-6.39882e-06
0.000225612
-1.57151e-06
0.000223959
3.28239e-06
0.000219799
8.31857e-06
0.000213277
1.30424e-05
0.000204486
1.7574e-05
0.000193617
2.17198e-05
0.000180856
2.54998e-05
0.000166469
2.87642e-05
0.000150691
3.15468e-05
0.000133815
3.37339e-05
0.000116121
3.53738e-05
9.78748e-05
3.64732e-05
7.93524e-05
3.70256e-05
6.07822e-05
3.7131e-05
4.23811e-05
3.68087e-05
2.4319e-05
3.61053e-05
6.81299e-06
3.50036e-05
-9.99492e-06
3.36072e-05
-2.60177e-05
3.20133e-05
-4.11636e-05
3.0299e-05
-5.5371e-05
2.84159e-05
-6.85462e-05
2.63522e-05
-8.07395e-05
2.43789e-05
-9.19469e-05
2.24208e-05
-0.000102132
2.037e-05
-0.000111346
1.84325e-05
-0.000119547
1.63924e-05
-0.00012676
1.44296e-05
-0.000133135
1.27435e-05
-0.000138564
1.0857e-05
-0.000143272
9.41815e-06
-0.000147129
7.7194e-06
-0.000150373
6.48753e-06
-0.000152881
5.0174e-06
-0.000154741
3.72849e-06
-0.000155998
2.51858e-06
-0.000156629
1.26652e-06
-0.000156718
1.8113e-07
-0.000156146
-1.14275e-06
-0.000154966
-2.36088e-06
-0.000153127
-3.66755e-06
-0.000150639
-4.99213e-06
-0.000147539
-6.21098e-06
-0.000143772
-7.51264e-06
-0.000139413
-8.71673e-06
-0.000134469
-9.88437e-06
-0.000128908
-1.11123e-05
-0.000122728
-1.23658e-05
-0.000115797
-1.3878e-05
-0.000108138
-1.53054e-05
-9.97321e-05
-1.6808e-05
-9.04729e-05
-1.85178e-05
-8.03783e-05
-2.0176e-05
-6.94334e-05
-2.18904e-05
-5.75995e-05
-2.36649e-05
-4.48868e-05
-2.54233e-05
-3.13227e-05
-2.7133e-05
-1.6998e-05
-2.86269e-05
-1.93674e-06
-3.01084e-05
1.38145e-05
-3.14934e-05
3.00777e-05
-3.25195e-05
4.67712e-05
-3.33733e-05
6.37242e-05
-3.3895e-05
8.07691e-05
-3.40918e-05
9.77344e-05
-3.39151e-05
0.000114327
-3.3174e-05
0.000130369
-3.20739e-05
0.000145627
-3.05096e-05
0.000159791
-2.83143e-05
0.00017265
-2.57003e-05
0.000183929
-2.25518e-05
0.000193391
-1.89263e-05
0.00020085
-1.49184e-05
0.000206108
-1.04952e-05
0.000209061
-5.89226e-06
0.000209624
-1.13782e-06
0.000207802
3.61847e-06
0.000203546
8.51145e-06
0.000196949
1.31885e-05
0.000188213
1.74539e-05
0.000177485
2.14407e-05
0.000164996
2.49689e-05
0.000150985
2.80062e-05
0.000135711
3.05337e-05
0.000119455
3.24976e-05
0.000102495
3.39082e-05
8.51249e-05
3.47281e-05
6.76301e-05
3.49734e-05
5.0182e-05
3.48799e-05
3.31195e-05
3.41192e-05
1.65328e-05
3.31669e-05
5.50679e-07
3.19533e-05
-1.47109e-05
3.05112e-05
-2.92119e-05
2.90055e-05
-4.28864e-05
2.73634e-05
-5.57939e-05
2.57923e-05
-6.7719e-05
2.38479e-05
-7.88317e-05
2.22406e-05
-8.90706e-05
2.04546e-05
-9.84377e-05
1.87415e-05
-0.000107033
1.71931e-05
-0.000114746
1.54239e-05
-0.000121696
1.38883e-05
-0.000127803
1.22195e-05
-0.000133134
1.06652e-05
-0.000137817
9.35978e-06
-0.000141676
7.72276e-06
-0.000144866
6.39178e-06
-0.000147392
5.04448e-06
-0.000149309
3.83452e-06
-0.000150652
2.69614e-06
-0.000151505
1.7068e-06
-0.000151814
5.88311e-07
-0.000151662
-2.7498e-07
-0.000151005
-1.30829e-06
-0.000149852
-2.30976e-06
-0.000148195
-3.32037e-06
-0.000145916
-4.5264e-06
-0.000143111
-5.63318e-06
-0.000139612
-6.99122e-06
-0.000135448
-8.32895e-06
-0.000130549
-9.80124e-06
-0.00012487
-1.13622e-05
-0.000118345
-1.30395e-05
-0.000110972
-1.47479e-05
-0.000102841
-1.62614e-05
-9.38051e-05
-1.80627e-05
-8.38539e-05
-1.98788e-05
-7.31089e-05
-2.15142e-05
-6.14738e-05
-2.32587e-05
-4.90259e-05
-2.48905e-05
-3.57985e-05
-2.64456e-05
-2.18634e-05
-2.78632e-05
-7.27135e-06
-2.9175e-05
7.84089e-06
-3.02134e-05
2.34389e-05
-3.11845e-05
3.93512e-05
-3.18203e-05
5.54093e-05
-3.21072e-05
7.15418e-05
-3.22482e-05
8.75396e-05
-3.1995e-05
0.000103307
-3.15302e-05
0.000118673
-3.07204e-05
0.000133522
-2.9688e-05
0.000147671
-2.82926e-05
0.000161006
-2.66649e-05
0.000173318
-2.46275e-05
0.000184437
-2.2243e-05
0.000194055
-1.92346e-05
0.000201989
-1.58696e-05
0.000207987
-1.20018e-05
0.000211836
-7.72124e-06
0.000213236
-2.8228e-06
0.000212292
1.88133e-06
0.000208958
6.68651e-06
0.000203441
1.10559e-05
0.000195714
1.54568e-05
0.000185751
1.99213e-05
0.000173844
2.38097e-05
0.000160092
2.74998e-05
0.000144729
3.07177e-05
0.000128242
3.29654e-05
0.000110841
3.47955e-05
9.29954e-05
3.56838e-05
7.49232e-05
3.61369e-05
5.69049e-05
3.60309e-05
3.92885e-05
3.52283e-05
2.21715e-05
3.42322e-05
5.65119e-06
3.30376e-05
-1.0033e-05
3.1366e-05
-2.5017e-05
2.99606e-05
-3.91068e-05
2.81772e-05
-5.22179e-05
2.62214e-05
-6.43558e-05
2.42751e-05
-7.54969e-05
2.22819e-05
-8.56933e-05
2.03926e-05
-9.49587e-05
1.85302e-05
-0.000103313
1.6707e-05
-0.000110812
1.49912e-05
-0.000117471
1.33175e-05
-0.000123326
1.17124e-05
-0.000128434
1.02189e-05
-0.000132797
8.72507e-06
-0.000136472
7.35004e-06
-0.000139468
5.9901e-06
-0.000141807
4.68385e-06
-0.000143487
3.35501e-06
-0.000144539
2.10597e-06
-0.000144966
8.46466e-07
-0.000144659
-6.00967e-07
-0.000143594
-2.13642e-06
-0.000141804
-3.58069e-06
-0.000139289
-5.0334e-06
-0.000135969
-6.64086e-06
-0.00013183
-8.27842e-06
-0.00012687
-9.91191e-06
-0.000120945
-1.18575e-05
-0.000114142
-1.36054e-05
-0.000106406
-1.54728e-05
-9.77698e-05
-1.72691e-05
-8.83232e-05
-1.88931e-05
-7.79081e-05
-2.08295e-05
-6.66689e-05
-2.24735e-05
-5.46232e-05
-2.40818e-05
-4.1694e-05
-2.58626e-05
-2.79507e-05
-2.74807e-05
-1.36804e-05
-2.85397e-05
1.25006e-06
-2.98559e-05
1.66492e-05
-3.07853e-05
3.25397e-05
-3.1778e-05
4.8795e-05
-3.25076e-05
6.50955e-05
-3.2587e-05
8.15147e-05
-3.28228e-05
9.78786e-05
-3.27258e-05
0.000113938
-3.21178e-05
0.000129625
-3.13566e-05
0.000144744
-3.02331e-05
0.00015912
-2.87484e-05
0.000172583
-2.69208e-05
0.000184926
-2.46799e-05
0.000196004
-2.21515e-05
0.00020567
-1.93252e-05
0.000213797
-1.62498e-05
0.000220179
-1.27644e-05
0.000224715
-9.07239e-06
0.000227283
-5.13594e-06
0.000227796
-1.02545e-06
0.000226072
3.44111e-06
0.000222259
7.63173e-06
0.000216384
1.17493e-05
1.57153e-05
-5.22753e-05
3.28764e-05
-6.22619e-05
2.99614e-05
-7.13622e-05
2.7301e-05
-7.95881e-05
2.46763e-05
-8.69454e-05
2.20716e-05
-9.34884e-05
1.9633e-05
-9.92386e-05
1.72567e-05
-0.000104246
1.50267e-05
-0.000108543
1.28907e-05
-0.000112154
1.08458e-05
-0.000115123
8.91158e-06
-0.000117469
7.03609e-06
-0.000119223
5.25921e-06
-0.000120389
3.50042e-06
-0.000120986
1.80906e-06
-0.000121022
1.02358e-07
-0.000120465
-1.64981e-06
-0.000119299
-3.50351e-06
-0.000117545
-5.27981e-06
-0.000115286
-6.76845e-06
-0.000112315
-8.9214e-06
-0.000108672
-1.09375e-05
-0.000104368
-1.2907e-05
-9.92997e-05
-1.52187e-05
-9.35455e-05
-1.72681e-05
-8.69343e-05
-1.98458e-05
-7.94476e-05
-2.24793e-05
-7.12416e-05
-2.45584e-05
-6.1927e-05
-2.79951e-05
-5.16383e-05
-3.08758e-05
-4.05405e-05
-3.33034e-05
-2.83891e-05
-3.653e-05
-1.52575e-05
-3.92682e-05
-1.0605e-06
-4.2604e-05
1.41014e-05
-4.54762e-05
2.99336e-05
-4.74664e-05
4.65716e-05
-4.98848e-05
6.39149e-05
-5.20036e-05
8.16005e-05
-5.30241e-05
9.96776e-05
-5.41974e-05
0.000117847
-5.44655e-05
0.000135969
-5.43126e-05
0.000153786
-5.33912e-05
0.000170913
-5.13257e-05
0.000187188
-4.87774e-05
0.00020238
-4.55072e-05
0.000216145
-4.12571e-05
0.000228352
-3.65638e-05
0.000238722
-3.10474e-05
0.000247018
-2.48906e-05
0.000253205
-1.85426e-05
0.000257078
-1.16152e-05
0.000258638
-4.62954e-06
0.000257895
2.2468e-06
0.000254605
9.76917e-06
0.00024905
1.66688e-05
0.000241364
2.30443e-05
0.000231486
2.95994e-05
0.000219722
3.52431e-05
0.000206199
4.05183e-05
0.000191203
4.49551e-05
0.000174948
4.87191e-05
0.000157633
5.18981e-05
0.000139571
5.41394e-05
0.000120922
5.59052e-05
0.000101952
5.68411e-05
8.30151e-05
5.67743e-05
6.41809e-05
5.64455e-05
4.56561e-05
5.55552e-05
2.7513e-05
5.44104e-05
9.91749e-06
5.27827e-05
-7.05499e-06
5.09253e-05
-2.33066e-05
4.87635e-05
-3.87855e-05
4.64486e-05
-5.34346e-05
4.39588e-05
-6.72951e-05
4.16025e-05
-8.02539e-05
3.89067e-05
-9.23784e-05
3.64034e-05
-0.000103622
3.37578e-05
-0.000113915
3.09121e-05
-0.000123278
2.81264e-05
-0.00013166
2.51865e-05
-0.000139007
2.20817e-05
-0.000145268
1.8818e-05
-0.000150437
1.55382e-05
-0.000154427
1.20008e-05
-0.000157218
8.32061e-06
-0.000158806
4.68589e-06
-0.000159264
1.33334e-06
-0.00015855
-2.19857e-06
-0.000156957
-4.80652e-06
-0.000154455
-7.55157e-06
-0.00015133
-9.42703e-06
-0.000147652
-1.10937e-05
-0.000143416
-1.27293e-05
-0.000138791
-1.38795e-05
-0.000133745
-1.52074e-05
-0.000128212
-1.6638e-05
-0.000122159
-1.81905e-05
-0.000115525
-1.99197e-05
-0.0001083
-2.16973e-05
-0.000100346
-2.3895e-05
-9.16388e-05
-2.61533e-05
-8.20985e-05
-2.87035e-05
-7.16938e-05
-3.11519e-05
-6.0381e-05
-3.39155e-05
-4.81559e-05
-3.67252e-05
-3.51064e-05
-3.90725e-05
-2.11848e-05
-4.17277e-05
-6.47756e-06
-4.40884e-05
9.00839e-06
-4.64414e-05
2.51079e-05
-4.82559e-05
4.17649e-05
-4.99738e-05
5.88234e-05
-5.11186e-05
7.61665e-05
-5.19814e-05
9.35724e-05
-5.21545e-05
0.000110853
-5.18019e-05
0.000127805
-5.08104e-05
0.000144139
-4.89532e-05
0.000159685
-4.65825e-05
0.000174132
-4.33144e-05
0.000187245
-3.92659e-05
0.000198786
-3.45805e-05
0.000208513
-2.9134e-05
0.000216242
-2.31711e-05
0.000221763
-1.65265e-05
0.00022497
-9.60625e-06
0.000225751
-2.35208e-06
0.000224074
4.95908e-06
0.000219922
1.24708e-05
0.00021339
1.9574e-05
0.00020459
2.63742e-05
0.000193696
3.26138e-05
0.000180919
3.82767e-05
0.00016651
4.31736e-05
0.000150715
4.73419e-05
0.000133817
5.06318e-05
0.000116099
5.3092e-05
9.78247e-05
5.4747e-05
7.92785e-05
5.55718e-05
6.07005e-05
5.57091e-05
4.23007e-05
5.52085e-05
2.42009e-05
5.42051e-05
6.68008e-06
5.25245e-05
-1.01466e-05
5.04339e-05
-2.61834e-05
4.80501e-05
-4.13187e-05
4.54344e-05
-5.5532e-05
4.26293e-05
-6.87089e-05
3.95291e-05
-8.09042e-05
3.65743e-05
-9.21113e-05
3.3628e-05
-0.000102297
3.05558e-05
-0.000111491
2.76267e-05
-0.000119711
2.46121e-05
-0.000126913
2.16317e-05
-0.000133285
1.91158e-05
-0.000138713
1.62844e-05
-0.000143421
1.41268e-05
-0.000147275
1.15734e-05
-0.000150511
9.72343e-06
-0.000153023
7.52913e-06
-0.000154874
5.57958e-06
-0.000156121
3.76592e-06
-0.000156739
1.88397e-06
-0.000156837
2.79191e-07
-0.000156261
-1.71889e-06
-0.000155071
-3.55023e-06
-0.000153214
-5.52467e-06
-0.000150774
-7.43258e-06
-0.000147668
-9.31671e-06
-0.000143885
-1.1295e-05
-0.000139521
-1.30816e-05
-0.000134578
-1.48265e-05
-0.000129025
-1.66653e-05
-0.000122852
-1.85393e-05
-0.000115943
-2.07873e-05
-0.000108279
-2.29692e-05
-9.98822e-05
-2.52047e-05
-9.06174e-05
-2.77826e-05
-8.04937e-05
-3.02998e-05
-6.95813e-05
-3.28028e-05
-5.77404e-05
-3.55059e-05
-4.50138e-05
-3.81499e-05
-3.14665e-05
-4.06804e-05
-1.71264e-05
-4.29671e-05
-2.05501e-06
-4.51798e-05
1.37088e-05
-4.72572e-05
2.99867e-05
-4.87975e-05
4.6693e-05
-5.00797e-05
6.3655e-05
-5.0857e-05
8.07107e-05
-5.11476e-05
9.77003e-05
-5.09047e-05
0.000114311
-4.97848e-05
0.000130384
-4.81473e-05
0.000145654
-4.57788e-05
0.000159844
-4.25048e-05
0.000172739
-3.85949e-05
0.000184024
-3.38372e-05
0.000193505
-2.84075e-05
0.000200972
-2.23854e-05
0.000206249
-1.57722e-05
0.000209204
-8.84674e-06
0.000209761
-1.6952e-06
0.000207915
5.46485e-06
0.000203662
1.27636e-05
0.000197059
1.97914e-05
0.000188307
2.6206e-05
0.000177561
3.21874e-05
0.000165045
3.74848e-05
0.000151018
4.20327e-05
0.000135736
4.58161e-05
0.000119455
4.87784e-05
0.000102461
5.09024e-05
8.50551e-05
5.21337e-05
6.75104e-05
5.25182e-05
5.00812e-05
5.2309e-05
3.3e-05
5.12005e-05
1.6404e-05
4.97628e-05
4.22118e-07
4.79353e-05
-1.48472e-05
4.57806e-05
-2.93477e-05
4.3506e-05
-4.30154e-05
4.10311e-05
-5.59469e-05
3.87238e-05
-6.78828e-05
3.57838e-05
-7.89712e-05
3.33289e-05
-8.92178e-05
3.07013e-05
-9.85789e-05
2.81026e-05
-0.000107177
2.57914e-05
-0.000114875
2.31218e-05
-0.000121832
2.08454e-05
-0.000127937
1.83242e-05
-0.000133313
1.60417e-05
-0.000137966
1.40128e-05
-0.000141827
1.15834e-05
-0.000144977
9.54237e-06
-0.00014751
7.57724e-06
-0.000149427
5.75092e-06
-0.000150771
4.04039e-06
-0.000151615
2.55088e-06
-0.000151944
9.17076e-07
-0.000151769
-4.49998e-07
-0.000151102
-1.97533e-06
-0.000149947
-3.46474e-06
-0.000148297
-4.96997e-06
-0.000146021
-6.80214e-06
-0.000143232
-8.42281e-06
-0.000139735
-1.04874e-05
-0.000135573
-1.24911e-05
-0.000130673
-1.47012e-05
-0.000125007
-1.70281e-05
-0.000118484
-1.9563e-05
-0.000111115
-2.21165e-05
-0.000102989
-2.43881e-05
-9.39556e-05
-2.70957e-05
-8.39937e-05
-2.98407e-05
-7.32554e-05
-3.22525e-05
-6.16065e-05
-3.49077e-05
-4.91581e-05
-3.7339e-05
-3.59184e-05
-3.96853e-05
-2.19689e-05
-4.18127e-05
-7.36928e-06
-4.37746e-05
7.75737e-06
-4.53401e-05
2.33657e-05
-4.67929e-05
3.92849e-05
-4.77395e-05
5.53592e-05
-4.81815e-05
7.15125e-05
-4.84016e-05
8.75324e-05
-4.8015e-05
0.000103322
-4.73196e-05
0.000118705
-4.61043e-05
0.000133578
-4.45608e-05
0.000147737
-4.24515e-05
0.00016108
-4.0008e-05
0.000173395
-3.69425e-05
0.00018451
-3.33584e-05
0.000194116
-2.88408e-05
0.000202021
-2.37746e-05
0.000207953
-1.79343e-05
0.000211702
-1.14706e-05
0.000213059
-4.17984e-06
0.00021219
2.75062e-06
0.000208964
9.91236e-06
0.000203503
1.6516e-05
0.000195781
2.31792e-05
0.00018581
2.98925e-05
0.000173892
3.57271e-05
0.000160126
4.12656e-05
0.000144747
4.60972e-05
0.000128244
4.94686e-05
0.000110824
5.22148e-05
9.29653e-05
5.35426e-05
7.48772e-05
5.4225e-05
5.68477e-05
5.40604e-05
3.92226e-05
5.28534e-05
2.21035e-05
5.13513e-05
5.60043e-06
4.95407e-05
-1.01092e-05
4.70756e-05
-2.51042e-05
4.49556e-05
-3.91938e-05
4.22668e-05
-5.23056e-05
3.93332e-05
-6.44421e-05
3.64116e-05
-7.55818e-05
3.34216e-05
-8.57769e-05
3.05877e-05
-9.50405e-05
2.77937e-05
-0.000103391
2.50574e-05
-0.00011089
2.24899e-05
-0.00011755
1.99781e-05
-0.000123409
1.7571e-05
-0.000128506
1.53166e-05
-0.000132872
1.30906e-05
-0.000136544
1.10219e-05
-0.000139536
8.98217e-06
-0.00014187
7.0175e-06
-0.000143557
5.04278e-06
-0.000144608
3.15693e-06
-0.000145024
1.26224e-06
-0.000144711
-9.13777e-07
-0.000143649
-3.19859e-06
-0.000141863
-5.36726e-06
-0.000139352
-7.54437e-06
-0.000136035
-9.95724e-06
-0.000131899
-1.24146e-05
-0.000126934
-1.48767e-05
-0.000121015
-1.77769e-05
-0.000114214
-2.04062e-05
-0.000106477
-2.32095e-05
-9.78413e-05
-2.59052e-05
-8.83946e-05
-2.83399e-05
-7.79823e-05
-3.12418e-05
-6.67367e-05
-3.37191e-05
-5.46811e-05
-3.61374e-05
-4.17564e-05
-3.87873e-05
-2.79988e-05
-4.12383e-05
-1.37134e-05
-4.28252e-05
1.2353e-06
-4.48046e-05
1.66405e-05
-4.61905e-05
3.2539e-05
-4.76766e-05
4.88121e-05
-4.87807e-05
6.51238e-05
-4.88987e-05
8.15473e-05
-4.92464e-05
9.79251e-05
-4.91037e-05
0.000114002
-4.81944e-05
0.000129697
-4.70524e-05
0.000144829
-4.53645e-05
0.000159217
-4.31366e-05
0.000172689
-4.03935e-05
0.000185041
-3.70319e-05
0.000196127
-3.32377e-05
0.000205794
-2.89919e-05
0.00021392
-2.43761e-05
0.000220305
-1.91489e-05
0.000224843
-1.36112e-05
0.000227419
-7.71144e-06
0.000227939
-1.54536e-06
0.000226211
5.16824e-06
0.000222409
1.14341e-05
0.000216536
1.76227e-05
2.35827e-05
-5.23871e-05
4.38345e-05
-6.23732e-05
3.99474e-05
-7.14729e-05
3.64007e-05
-7.96983e-05
3.29017e-05
-8.70551e-05
2.94284e-05
-9.3596e-05
2.61739e-05
-9.93436e-05
2.30043e-05
-0.000104348
2.00314e-05
-0.00010865
1.71921e-05
-0.000112249
1.44446e-05
-0.000115219
1.18821e-05
-0.000117556
9.3735e-06
-0.000119314
7.01695e-06
-0.000120477
4.66348e-06
-0.00012107
2.40212e-06
-0.000121104
1.35988e-07
-0.00012053
-2.22356e-06
-0.000119367
-4.66649e-06
-0.000117633
-7.01372e-06
-0.000115361
-9.04127e-06
-0.000112396
-1.18862e-05
-0.000108733
-1.46003e-05
-0.00010445
-1.71899e-05
-9.93918e-05
-2.02772e-05
-9.364e-05
-2.30198e-05
-8.70356e-05
-2.64503e-05
-7.95691e-05
-2.99458e-05
-7.13349e-05
-3.27926e-05
-6.20365e-05
-3.72935e-05
-5.17552e-05
-4.11571e-05
-4.0663e-05
-4.43957e-05
-2.85239e-05
-4.86692e-05
-1.53592e-05
-5.2433e-05
-1.159e-06
-5.68043e-05
1.40107e-05
-6.06459e-05
2.98608e-05
-6.33166e-05
4.65074e-05
-6.65316e-05
6.38703e-05
-6.93666e-05
8.1577e-05
-7.07309e-05
9.9674e-05
-7.22945e-05
0.00011787
-7.26612e-05
0.000136018
-7.24608e-05
0.00015387
-7.12433e-05
0.000171029
-6.84848e-05
0.000187331
-6.508e-05
0.000202568
-6.07436e-05
0.000216348
-5.50379e-05
0.000228592
-4.88073e-05
0.000238994
-4.14498e-05
0.000247284
-3.31805e-05
0.00025348
-2.47383e-05
0.000257354
-1.54895e-05
0.000258932
-6.20784e-06
0.000258165
3.01345e-06
0.000254866
1.30684e-05
0.000249311
2.22237e-05
0.000241615
3.07401e-05
0.000231712
3.95028e-05
0.000219917
4.70384e-05
0.000206362
5.4073e-05
0.000191352
5.99644e-05
0.000175073
6.4999e-05
0.00015773
6.92409e-05
0.000139642
7.22271e-05
0.00012097
7.45772e-05
0.000101963
7.58478e-05
8.30066e-05
7.57309e-05
6.41321e-05
7.532e-05
4.56012e-05
7.40861e-05
2.7451e-05
7.25606e-05
9.85477e-06
7.03789e-05
-7.109e-06
6.78891e-05
-2.33543e-05
6.50088e-05
-3.88258e-05
6.19201e-05
-5.34681e-05
5.86011e-05
-6.73168e-05
5.54512e-05
-8.02545e-05
5.18444e-05
-9.23636e-05
4.85124e-05
-0.00010359
4.4984e-05
-0.000113853
4.11753e-05
-0.000123192
3.74655e-05
-0.000131556
3.35505e-05
-0.000138868
2.93929e-05
-0.000145093
2.50437e-05
-0.000150238
2.06826e-05
-0.000154202
1.59643e-05
-0.000157017
1.11358e-05
-0.000158663
6.33207e-06
-0.000159173
1.84321e-06
-0.000158504
-2.86772e-06
-0.00015692
-6.39061e-06
-0.000154441
-1.00308e-05
-0.000151351
-1.25174e-05
-0.000147708
-1.47373e-05
-0.000143495
-1.6942e-05
-0.00013889
-1.84848e-05
-0.000133872
-2.02249e-05
-0.000128353
-2.21572e-05
-0.000122297
-2.42466e-05
-0.000115671
-2.65461e-05
-0.000108474
-2.88936e-05
-0.000100537