/*--------------------------------*- C++ -*----------------------------------*\
| =========                 |                                                 |
| \\      /  F ield         | OpenFOAM: The Open Source CFD Toolbox           |
|  \\    /   O peration     | Version:  3.0.1                                 |
|   \\  /    A nd           | Web:      www.OpenFOAM.org                      |
|    \\/     M anipulation  |                                                 |
\*---------------------------------------------------------------------------*/
FoamFile
{
    version     2.0;
    format      ascii;
    class       volScalarField;
    location    "34.6";
    object      p_rgh;
}
// * * * * * * * * * * * * * * * * * * * * * * * * * * * * * * * * * * * * * //

dimensions      [1 -1 -2 0 0 0 0];

internalField   nonuniform List<scalar> 
21420
(
408.933
403.051
393.349
379.911
362.883
342.508
319.063
292.857
264.223
233.575
201.308
167.808
133.523
98.8587
64.2087
29.9069
-3.72586
-36.4398
-68.1111
-95.3508
-123.842
-150.429
-175.124
-197.925
-218.839
-237.883
-255.097
-270.525
-284.229
-296.273
-306.721
-315.639
-323.085
-329.113
-333.769
-337.091
-339.11
-339.811
-339.201
-337.313
-334.125
-329.583
-323.636
-316.243
-307.36
-296.907
-284.811
-271.029
-255.488
-238.114
-218.9
-197.819
-174.877
-150.137
-123.643
-95.5088
-66.0189
-36.3037
-4.92186
27.4312
60.404
93.6006
126.609
159.094
190.656
220.884
249.423
275.885
299.915
321.167
339.318
354.096
365.251
372.582
375.772
375.554
371.436
363.426
351.471
335.71
316.368
293.728
268.115
239.904
209.499
177.332
143.889
109.597
74.8812
40.1729
5.83456
-27.8677
-61.0803
-92.5249
-122.27
-150.258
-176.412
-200.66
-222.951
-243.268
-261.624
-278.063
-292.647
-305.448
-316.551
-326.043
-334
-340.493
-345.591
-349.359
-351.846
-353.064
-353.029
-351.795
-349.335
-345.641
-340.684
-334.432
-326.837
-317.849
-307.417
-295.476
-281.973
-266.856
-250.08
-231.612
-211.436
-189.559
-166.002
-140.814
-114.068
-85.8752
-56.366
-25.7201
5.82353
38.0224
70.5861
103.186
135.458
167.014
197.443
226.321
253.223
277.73
299.446
318.004
333.087
344.422
351.808
355.046
354.183
349.147
340.049
326.998
310.229
290.014
266.679
240.594
212.169
181.842
150.06
117.278
83.9445
50.4882
17.308
-15.2355
-46.8337
-77.2297
-106.217
-133.635
-159.371
-183.363
-205.585
-226.039
-244.751
-261.766
-277.136
-290.916
-303.167
-313.948
-323.304
-331.29
-337.944
-343.299
-347.403
-350.287
-351.962
-352.434
-351.739
-349.861
-346.781
-342.478
-336.911
-330.038
-321.82
-312.196
-301.108
-288.498
-274.311
-258.504
-241.039
-221.892
-201.057
-178.548
-154.405
-128.693
-101.506
-72.9723
-43.0814
-12.3854
19.0559
50.9676
83.0329
114.899
146.184
176.475
205.346
232.362
257.087
279.11
298.044
313.558
325.369
333.26
337.045
336.719
332.273
323.826
311.48
295.504
276.186
253.862
228.908
201.726
172.723
142.315
110.912
78.912
46.6878
14.5868
-17.0721
-48.0066
-77.9804
-106.789
-134.27
-160.299
-184.789
-207.686
-228.956
-248.59
-266.59
-282.97
-297.749
-310.952
-322.609
-332.749
-341.409
-348.624
-354.436
-358.892
-361.999
-363.753
-364.241
-363.438
-361.334
-357.93
-353.201
-347.105
-339.616
-330.696
-320.276
-308.293
-294.728
-279.477
-262.529
-243.842
-223.374
-201.161
-177.415
-152.339
-126.649
-99.2817
-60.9936
-25.2467
10.8256
47.4993
84.3766
121.211
157.484
192.797
226.65
258.52
287.965
314.522
337.756
357.347
372.965
384.314
391.447
394.474
393.687
388.781
379.972
367.553
351.67
332.588
310.666
286.178
259.537
231.057
201.133
170.191
138.54
106.553
74.6213
42.981
11.972
-17.4982
-45.9287
-73.5162
-100.035
-125.223
-148.931
-171.082
-191.62
-210.525
-227.786
-243.404
-257.39
-269.753
-280.504
-289.655
-297.214
-303.189
-307.594
-310.421
-311.654
-311.157
-309.113
-305.493
-300.325
-293.632
-285.42
-275.708
-264.504
-251.817
-237.666
-222.067
-205.033
-186.59
-166.751
-145.542
-122.998
-99.1866
-74.2893
-49.5158
-44.391
409.092
403.203
393.495
380.047
363.006
342.617
319.155
292.932
264.28
233.613
201.328
167.81
133.508
98.8282
64.165
29.8522
-3.78825
-36.5044
-68.1708
-95.4535
-123.937
-150.52
-175.212
-198.011
-218.923
-237.964
-255.174
-270.598
-284.298
-296.339
-306.784
-315.699
-323.142
-329.168
-333.822
-337.143
-339.161
-339.861
-339.251
-337.366
-334.178
-329.639
-323.693
-316.303
-307.423
-296.973
-284.881
-271.102
-255.564
-238.193
-218.982
-197.902
-174.961
-150.22
-123.724
-95.5846
-66.0888
-36.3727
-4.98134
27.3832
60.369
93.5797
126.603
159.104
190.683
220.928
249.484
275.964
300.01
321.278
339.443
354.234
365.398
372.734
375.938
375.711
371.598
363.581
351.616
335.843
316.485
293.829
268.197
239.967
209.541
177.355
143.892
109.582
74.8498
40.1267
5.7753
-27.9388
-61.1609
-92.6118
-122.363
-150.354
-176.51
-200.757
-223.047
-243.363
-261.715
-278.151
-292.73
-305.528
-316.627
-326.115
-334.069
-340.559
-345.655
-349.421
-351.907
-353.122
-353.088
-351.855
-349.396
-345.703
-340.748
-334.498
-326.905
-317.92
-307.491
-295.554
-282.054
-266.94
-250.166
-231.7
-211.526
-189.649
-166.092
-140.903
-114.155
-85.9578
-56.4435
-25.7907
5.76177
37.9712
70.5474
103.161
135.45
167.023
197.47
226.367
253.289
277.815
299.549
318.123
333.219
344.565
351.958
355.205
354.331
349.294
340.189
327.128
310.345
290.114
266.76
240.656
212.212
181.865
150.063
117.263
83.913
50.4418
17.2488
-15.3051
-46.9115
-77.3135
-106.304
-133.725
-159.462
-183.452
-205.672
-226.124
-244.832
-261.843
-277.211
-290.987
-303.236
-314.014
-323.368
-331.352
-338.004
-343.358
-347.461
-350.344
-352.016
-352.49
-351.795
-349.917
-346.84
-342.538
-336.973
-330.103
-321.887
-312.266
-301.181
-288.575
-274.391
-258.586
-241.124
-221.978
-201.145
-178.636
-154.492
-128.777
-101.587
-73.0497
-43.1506
-12.4474
19.0041
50.9279
83.0071
114.889
146.191
176.5
205.391
232.426
257.17
279.211
298.162
313.689
325.511
333.41
337.205
336.869
332.42
323.965
311.609
295.618
276.283
253.941
228.969
201.767
172.746
142.321
110.902
78.887
46.6499
14.5376
-17.1305
-48.0724
-78.0519
-106.865
-134.348
-160.379
-184.869
-207.765
-229.035
-248.667
-266.666
-283.044
-297.821
-311.023
-322.677
-332.816
-341.474
-348.688
-354.499
-358.953
-362.057
-363.812
-364.3
-363.497
-361.394
-357.992
-353.264
-347.169
-339.682
-330.764
-320.346
-308.365
-294.802
-279.554
-262.607
-243.919
-223.451
-201.238
-177.486
-152.408
-126.716
-99.3727
-61.0174
-25.2895
10.7898
47.4763
84.368
121.219
157.51
192.841
226.714
258.603
288.067
314.642
337.891
357.494
373.125
384.49
391.64
394.635
393.834
388.929
380.118
367.687
351.79
332.692
310.753
286.248
259.59
231.092
201.152
170.194
138.528
106.528
74.5832
42.9331
11.9191
-17.5584
-45.9922
-73.5834
-100.105
-125.296
-149.005
-171.156
-191.692
-210.597
-227.856
-243.472
-257.457
-269.819
-280.569
-289.719
-297.277
-303.252
-307.657
-310.483
-311.716
-311.219
-309.174
-305.554
-300.386
-293.693
-285.481
-275.769
-264.565
-251.879
-237.728
-222.129
-205.095
-186.652
-166.813
-145.605
-123.061
-99.2501
-74.3522
-49.5673
-44.3992
409.41
403.51
393.786
380.318
363.253
342.834
319.34
293.081
264.392
233.689
201.366
167.813
133.478
98.767
64.0773
29.7424
-3.9133
-36.6341
-68.2886
-95.6606
-124.126
-150.7
-175.389
-198.183
-219.09
-238.124
-255.327
-270.745
-284.438
-296.472
-306.91
-315.819
-323.257
-329.278
-333.929
-337.246
-339.261
-339.962
-339.353
-337.473
-334.285
-329.749
-323.808
-316.423
-307.549
-297.105
-285.02
-271.248
-255.716
-238.351
-219.145
-198.067
-175.127
-150.385
-123.883
-95.7348
-66.227
-36.5089
-5.09842
27.2893
60.301
93.54
126.594
159.127
190.739
221.018
249.61
276.123
300.202
321.502
339.697
354.513
365.697
373.04
376.269
376.03
371.927
363.896
351.912
336.114
316.727
294.037
268.368
240.099
209.634
177.41
143.91
109.564
74.799
40.0469
5.6699
-28.0676
-61.3077
-92.7711
-122.532
-150.53
-176.689
-200.936
-223.224
-243.535
-261.881
-278.309
-292.88
-305.669
-316.76
-326.24
-334.187
-340.671
-345.763
-349.525
-352.007
-353.217
-353.186
-351.952
-349.495
-345.805
-340.853
-334.607
-327.019
-318.04
-307.617
-295.686
-282.192
-267.084
-250.315
-231.852
-211.681
-189.806
-166.249
-141.056
-114.304
-86.0993
-56.575
-25.908
5.66181
37.8924
70.4933
103.136
135.456
167.064
197.548
226.483
253.443
278.006
299.775
318.381
333.503
344.869
352.276
355.544
354.645
349.606
340.486
327.403
310.592
290.328
266.939
240.796
212.312
181.925
150.084
117.248
83.8641
50.363
17.1445
-15.4301
-47.053
-77.4668
-106.465
-133.89
-159.627
-183.616
-205.831
-226.277
-244.979
-261.984
-277.344
-291.114
-303.357
-314.129
-323.479
-331.459
-338.108
-343.458
-347.559
-350.441
-352.107
-352.583
-351.89
-350.014
-346.938
-342.639
-337.078
-330.214
-322.003
-312.388
-301.309
-288.709
-274.531
-258.731
-241.274
-222.132
-201.301
-178.792
-154.647
-128.927
-101.73
-73.1859
-43.2695
-12.5522
18.9195
50.8674
82.9742
114.887
146.223
176.569
205.498
232.572
257.355
279.432
298.415
313.97
325.813
333.726
337.54
337.183
332.73
324.258
311.879
295.859
276.491
254.113
229.103
201.864
172.806
142.345
110.894
78.849
46.5859
14.4512
-17.2354
-48.1922
-78.1829
-107.004
-134.492
-160.526
-185.016
-207.911
-229.179
-248.808
-266.804
-283.179
-297.952
-311.15
-322.801
-332.935
-341.59
-348.801
-354.609
-359.061
-362.158
-363.916
-364.404
-363.601
-361.498
-358.099
-353.374
-347.282
-339.799
-330.886
-320.472
-308.496
-294.937
-279.693
-262.749
-244.062
-223.596
-201.381
-177.621
-152.538
-126.842
-99.5463
-61.0592
-25.3698
10.7236
47.4351
84.3554
121.238
157.564
192.933
226.845
258.772
288.273
314.883
338.162
357.791
373.444
384.847
392.02
394.958
394.131
389.228
380.41
367.957
352.031
332.901
310.928
286.389
259.695
231.164
201.19
170.201
138.506
106.478
74.5071
42.8372
11.8134
-17.679
-46.1188
-73.7177
-100.247
-125.442
-149.153
-171.303
-191.838
-210.74
-227.996
-243.61
-257.592
-269.951
-280.699
-289.847
-297.404
-303.377
-307.781
-310.607
-311.839
-311.344
-309.296
-305.676
-300.507
-293.814
-285.602
-275.891
-264.687
-252.002
-237.852
-222.253
-205.219
-186.777
-166.938
-145.73
-123.187
-99.3769
-74.4781
-49.6711
-44.4146
409.884
403.971
394.223
380.726
363.623
343.16
319.616
293.305
264.561
233.802
201.425
167.818
133.432
98.675
63.9452
29.5775
-4.10146
-36.8296
-68.4599
-95.9771
-124.409
-150.971
-175.653
-198.441
-219.34
-238.365
-255.558
-270.965
-284.647
-296.67
-307.099
-315.999
-323.428
-329.443
-334.088
-337.401
-339.412
-340.111
-339.507
-337.632
-334.445
-329.914
-323.98
-316.603
-307.737
-297.304
-285.229
-271.467
-255.944
-238.587
-219.388
-198.315
-175.376
-150.632
-124.122
-95.9605
-66.4346
-36.7137
-5.27441
27.1482
60.1987
93.4801
126.579
159.16
190.823
221.153
249.797
276.361
300.491
321.839
340.077
354.931
366.144
373.5
376.763
376.516
372.423
364.368
352.356
336.522
317.091
294.35
268.626
240.3
209.775
177.494
143.937
109.538
74.7242
39.9286
5.51338
-28.2598
-61.5263
-93.0083
-122.784
-150.791
-176.955
-201.203
-223.487
-243.791
-262.127
-278.544
-293.103
-305.879
-316.957
-326.426
-334.362
-340.837
-345.922
-349.679
-352.155
-353.359
-353.331
-352.097
-349.642
-345.955
-341.008
-334.768
-327.188
-318.218
-307.803
-295.882
-282.397
-267.297
-250.535
-232.078
-211.912
-190.039
-166.481
-141.285
-114.526
-86.3091
-56.7697
-26.0814
5.51448
37.7767
70.4149
103.1
135.468
167.127
197.667
226.659
253.677
278.296
300.118
318.771
333.933
345.33
352.755
356.05
355.126
350.08
340.936
327.82
310.967
290.654
267.209
241.008
212.464
182.017
150.119
117.227
83.793
50.247
16.99
-15.6158
-47.2634
-77.6949
-106.705
-134.136
-159.874
-183.859
-206.069
-226.506
-245.199
-262.193
-277.542
-291.302
-303.537
-314.301
-323.644
-331.618
-338.261
-343.607
-347.705
-350.583
-352.243
-352.723
-352.03
-350.156
-347.084
-342.789
-337.235
-330.378
-322.175
-312.568
-301.499
-288.908
-274.739
-258.948
-241.497
-222.36
-201.532
-179.025
-154.877
-129.151
-101.944
-73.3894
-43.4449
-12.7074
18.7947
50.7787
82.9269
114.886
146.273
176.675
205.661
232.793
257.633
279.764
298.797
314.394
326.269
334.202
338.038
337.664
333.199
324.701
312.288
296.224
276.806
254.373
229.306
202.01
172.896
142.383
110.883
78.7938
46.4917
14.3234
-17.391
-48.3702
-78.3778
-107.21
-134.707
-160.744
-185.236
-208.129
-229.393
-249.018
-267.009
-283.379
-298.147
-311.34
-322.984
-333.113
-341.762
-348.968
-354.772
-359.221
-362.308
-364.07
-364.557
-363.754
-361.654
-358.258
-353.537
-347.45
-339.974
-331.066
-320.659
-308.692
-295.139
-279.902
-262.963
-244.277
-223.813
-201.595
-177.823
-152.733
-127.032
-99.8048
-61.123
-25.4922
10.6237
47.3729
84.3363
121.267
157.646
193.071
227.041
259.027
288.584
315.245
338.57
358.237
373.927
385.369
392.564
395.457
394.592
389.682
380.848
368.36
352.392
333.215
311.191
286.599
259.853
231.27
201.247
170.21
138.471
106.402
74.3927
42.6927
11.6542
-17.8598
-46.3083
-73.9192
-100.459
-125.661
-149.374
-171.524
-192.057
-210.955
-228.207
-243.816
-257.794
-270.149
-280.894
-290.039
-297.594
-303.565
-307.966
-310.793
-312.025
-311.531
-309.479
-305.859
-300.689
-293.996
-285.785
-276.074
-264.871
-252.187
-238.037
-222.439
-205.406
-186.963
-167.125
-145.918
-123.376
-99.5673
-74.6673
-49.8292
-44.4356
410.517
404.586
394.807
381.27
364.116
343.595
319.986
293.603
264.785
233.953
201.502
167.824
133.371
98.5519
63.7684
29.3569
-4.35342
-37.0922
-68.6769
-96.4112
-124.785
-151.332
-176.005
-198.785
-219.673
-238.686
-255.866
-271.258
-284.925
-296.935
-307.35
-316.238
-323.658
-329.663
-334.301
-337.608
-339.613
-340.311
-339.712
-337.843
-334.658
-330.134
-324.209
-316.842
-307.988
-297.569
-285.507
-271.759
-256.248
-238.903
-219.713
-198.646
-175.709
-150.962
-124.442
-96.262
-66.7121
-36.9876
-5.50958
26.9596
60.0619
93.3999
126.559
159.204
190.934
221.333
250.047
276.679
300.875
322.287
340.583
355.489
366.74
374.114
377.408
377.175
373.082
364.999
352.949
337.066
317.576
294.767
268.97
240.566
209.962
177.605
143.973
109.503
74.624
39.7706
5.30463
-28.517
-61.8178
-93.3248
-123.12
-151.14
-177.31
-201.559
-223.838
-244.132
-262.456
-278.857
-293.399
-306.158
-317.22
-326.673
-334.595
-341.058
-346.134
-349.883
-352.35
-353.551
-353.524
-352.289
-349.837
-346.154
-341.215
-334.983
-327.413
-318.454
-308.051
-296.143
-282.67
-267.581
-250.829
-232.38
-212.219
-190.349
-166.791
-141.589
-114.821
-86.589
-57.0293
-26.3125
5.31812
37.6226
70.3105
103.052
135.484
167.213
197.826
226.895
253.989
278.684
300.576
319.292
334.506
345.945
353.396
356.71
355.778
350.716
341.537
328.377
311.468
291.088
267.57
241.292
212.668
182.141
150.165
117.2
83.6981
50.092
16.7838
-15.8635
-47.544
-77.9993
-107.025
-134.463
-160.203
-184.184
-206.385
-226.811
-245.491
-262.471
-277.806
-291.553
-303.777
-314.53
-323.864
-331.83
-338.465
-343.805
-347.898
-350.77
-352.427
-352.908
-352.217
-350.346
-347.279
-342.99
-337.443
-330.597
-322.404
-312.81
-301.753
-289.173
-275.016
-259.236
-241.794
-222.665
-201.842
-179.336
-155.184
-129.449
-102.228
-73.6614
-43.6782
-12.9147
18.6282
50.6603
82.8638
114.885
146.341
176.815
205.878
233.088
258.005
280.209
299.307
314.959
326.878
334.838
338.688
338.316
333.831
325.294
312.834
296.711
277.225
254.72
229.578
202.206
173.018
142.434
110.868
78.7202
46.366
14.1529
-17.5987
-48.6076
-78.6376
-107.486
-134.993
-161.036
-185.528
-208.42
-229.679
-249.299
-267.283
-283.646
-298.406
-311.592
-323.229
-333.349
-341.991
-349.191
-354.989
-359.431
-362.511
-364.275
-364.761
-363.958
-361.86
-358.47
-353.754
-347.674
-340.206
-331.307
-320.909
-308.952
-295.409
-280.181
-263.248
-244.563
-224.102
-201.88
-178.093
-152.991
-127.284
-100.146
-61.2109
-25.6589
10.4893
47.2895
84.3104
121.306
157.755
193.255
227.303
259.367
288.999
315.729
339.116
358.835
374.567
386.055
393.269
396.134
395.226
390.294
381.433
368.899
352.874
333.633
311.542
286.88
260.064
231.412
201.322
170.223
138.425
106.301
74.2394
42.4984
11.4397
-18.0995
-46.5598
-74.1879
-100.743
-125.953
-149.67
-171.819
-192.348
-211.241
-228.488
-244.091
-258.063
-270.414
-281.154
-290.295
-297.846
-303.816
-308.213
-311.037
-312.276
-311.779
-309.724
-306.103
-300.932
-294.238
-286.028
-276.317
-265.116
-252.433
-238.284
-222.687
-205.654
-187.211
-167.374
-146.168
-123.628
-99.8212
-74.9198
-50.044
-44.46
411.309
405.355
395.538
381.95
364.733
344.138
320.447
293.976
265.066
234.141
201.598
167.831
133.294
98.3972
63.5462
29.0802
-4.67009
-37.4242
-68.9598
-96.9434
-125.253
-151.782
-176.446
-199.215
-220.091
-239.088
-256.25
-271.625
-285.274
-297.266
-307.665
-316.538
-323.944
-329.939
-334.567
-337.867
-339.865
-340.562
-339.967
-338.105
-334.924
-330.408
-324.496
-317.142
-308.301
-297.899
-285.855
-272.124
-256.628
-239.298
-220.12
-199.059
-176.126
-151.374
-124.841
-96.6396
-67.0595
-37.3312
-5.8043
26.7233
59.8904
93.299
126.534
159.258
191.073
221.558
250.358
277.077
301.356
322.847
341.217
356.186
367.487
374.888
378.199
378.006
373.904
365.787
353.691
337.747
318.182
295.289
269.4
240.899
210.197
177.744
144.019
109.458
74.4979
39.572
5.04315
-28.8404
-62.1829
-93.7211
-123.54
-151.577
-177.755
-202.004
-224.277
-244.559
-262.867
-279.249
-293.769
-306.507
-317.549
-326.982
-334.887
-341.335
-346.399
-350.137
-352.594
-353.792
-353.764
-352.529
-350.081
-346.404
-341.473
-335.251
-327.694
-318.75
-308.362
-296.468
-283.011
-267.937
-251.196
-232.758
-212.604
-190.737
-167.178
-141.97
-115.19
-86.9399
-57.3545
-26.602
5.07193
37.4291
70.1791
102.992
135.503
167.319
198.024
227.189
254.38
279.168
301.149
319.944
335.225
346.714
354.198
357.527
356.601
351.513
342.291
329.074
312.094
291.632
268.022
241.646
212.923
182.295
150.222
117.165
83.5787
49.8974
16.5252
-16.1739
-47.8956
-78.3805
-107.425
-134.874
-160.615
-184.591
-206.781
-227.192
-245.856
-262.819
-278.136
-291.867
-304.076
-314.816
-324.139
-332.095
-338.72
-344.053
-348.14
-351.003
-352.66
-353.139
-352.45
-350.582
-347.521
-343.241
-337.704
-330.87
-322.691
-313.111
-302.069
-289.505
-275.363
-259.596
-242.166
-223.046
-202.229
-179.725
-155.569
-129.822
-102.584
-73.9975
-43.9754
-13.1751
18.4194
50.5115
82.7841
114.883
146.424
176.991
206.15
233.458
258.47
280.765
299.945
315.667
327.64
335.634
339.497
339.133
334.621
326.037
313.518
297.321
277.75
255.153
229.917
202.45
173.169
142.497
110.85
78.6275
46.2082
13.9391
-17.8591
-48.9048
-78.9631
-107.832
-135.351
-161.4
-185.894
-208.783
-230.037
-249.649
-267.626
-283.98
-298.731
-311.907
-323.535
-333.646
-342.278
-349.469
-355.26
-359.692
-362.767
-364.532
-365.016
-364.212
-362.118
-358.735
-354.025
-347.954
-340.498
-331.608
-321.222
-309.278
-295.746
-280.529
-263.605
-244.922
-224.463
-202.237
-178.432
-153.311
-127.598
-100.564
-61.3261
-25.8727
10.3199
47.1844
84.2774
121.353
157.891
193.485
227.631
259.792
289.518
316.336
339.801
359.584
375.37
386.904
394.137
396.979
396.032
391.066
382.166
369.573
353.476
334.155
311.979
287.23
260.327
231.588
201.416
170.239
138.367
106.174
74.0469
42.2531
11.1662
-18.395
-46.8723
-74.5241
-101.098
-126.32
-150.04
-172.188
-192.712
-211.599
-228.839
-244.434
-258.4
-270.744
-281.478
-290.615
-298.162
-304.128
-308.522
-311.344
-312.588
-312.088
-310.029
-306.407
-301.236
-294.542
-286.332
-276.622
-265.423
-252.74
-238.594
-222.998
-205.965
-187.522
-167.686
-146.482
-123.943
-100.139
-75.2359
-50.3188
-44.4853
412.26
406.279
396.416
382.767
365.475
344.791
321.001
294.423
265.402
234.366
201.713
167.839
133.201
98.2104
63.2781
28.7466
-5.05253
-37.8281
-69.3246
-97.5584
-125.81
-152.321
-176.975
-199.732
-220.591
-239.57
-256.712
-272.065
-285.691
-297.663
-308.042
-316.897
-324.287
-330.269
-334.886
-338.177
-340.168
-340.865
-340.273
-338.418
-335.243
-330.737
-324.839
-317.501
-308.678
-298.296
-286.272
-272.562
-257.084
-239.773
-220.607
-199.556
-176.627
-151.87
-125.321
-97.0936
-67.4773
-37.7454
-6.15905
26.4389
59.6837
93.1771
126.502
159.324
191.239
221.827
250.731
277.553
301.933
323.519
341.977
357.023
368.384
375.821
379.148
379.001
374.889
366.735
354.582
338.563
318.91
295.916
269.916
241.298
210.477
177.91
144.072
109.404
74.3453
39.3322
4.72788
-29.2304
-62.6217
-94.1979
-124.046
-152.102
-178.29
-202.54
-224.805
-245.072
-263.36
-279.719
-294.214
-306.926
-317.943
-327.353
-335.236
-341.667
-346.716
-350.441
-352.887
-354.081
-354.052
-352.818
-350.373
-346.703
-341.782
-335.573
-328.031
-319.105
-308.734
-296.86
-283.421
-268.363
-251.638
-233.211
-213.067
-191.204
-167.643
-142.428
-115.634
-87.3623
-57.7457
-26.9503
4.77544
37.1958
70.0203
102.919
135.525
167.445
198.261
227.541
254.848
279.75
301.837
320.727
336.088
347.639
355.163
358.509
357.588
352.469
343.196
329.912
312.846
292.284
268.564
242.072
213.227
182.479
150.289
117.122
83.4343
49.6625
16.2135
-16.5477
-48.3187
-78.8393
-107.907
-135.367
-161.111
-185.08
-207.257
-227.65
-246.294
-263.237
-278.532
-292.244
-304.435
-315.159
-324.469
-332.413
-339.026
-344.351
-348.429
-351.284
-352.938
-353.417
-352.73
-350.867
-347.813
-343.542
-338.017
-331.198
-323.035
-313.473
-302.45
-289.904
-275.78
-260.029
-242.613
-223.504
-202.694
-180.192
-156.031
-130.272
-103.011
-74.3832
-44.3517
-13.4892
18.1677
50.3319
82.6874
114.88
146.523
177.2
206.475
233.9
259.028
281.432
300.712
316.518
328.555
336.592
340.473
340.112
335.57
326.93
314.339
298.053
278.381
255.673
230.323
202.742
173.349
142.572
110.826
78.515
46.0176
13.6813
-18.1727
-49.2626
-79.3548
-108.247
-135.782
-161.838
-186.333
-209.219
-230.467
-250.07
-268.037
-284.38
-299.121
-312.286
-323.902
-334.001
-342.622
-349.804
-355.585
-360.005
-363.076
-364.839
-365.321
-364.518
-362.429
-359.053
-354.35
-348.29
-340.847
-331.969
-321.597
-309.669
-296.151
-280.948
-264.033
-245.353
-224.897
-202.666
-178.84
-153.692
-127.968
-101.059
-61.4742
-26.1374
10.1142
47.0573
84.2369
121.409
158.053
193.76
228.024
260.303
290.143
317.067
340.624
360.485
376.334
387.92
395.172
397.993
397.007
391.999
383.048
370.383
354.199
334.783
312.505
287.65
260.641
231.8
201.528
170.257
138.297
106.021
73.8146
41.955
10.8264
-18.7397
-47.2447
-74.9278
-101.525
-126.76
-150.484
-172.631
-193.15
-212.029
-229.26
-244.847
-258.804
-271.14
-281.868
-290.999
-298.542
-304.504
-308.894
-311.712
-312.96
-312.458
-310.396
-306.773
-301.6
-294.906
-286.697
-276.988
-265.79
-253.11
-238.965
-223.37
-206.338
-187.895
-168.06
-146.858
-124.321
-100.52
-75.6155
-50.6567
-44.5095
413.371
407.358
397.441
383.721
366.34
345.553
321.647
294.945
265.794
234.628
201.847
167.847
133.09
97.9909
62.9633
28.3553
-5.50189
-38.3065
-69.7793
-98.2492
-126.455
-152.95
-177.592
-200.335
-221.176
-240.133
-257.251
-272.578
-286.179
-298.126
-308.482
-317.316
-324.688
-330.653
-335.258
-338.539
-340.523
-341.218
-340.631
-338.782
-335.616
-331.12
-325.24
-317.92
-309.117
-298.759
-286.759
-273.073
-257.617
-240.327
-221.177
-200.137
-177.212
-152.45
-125.882
-97.6242
-67.9654
-38.2314
-6.57436
26.1061
59.4415
93.0338
126.465
159.399
191.432
222.14
251.166
278.109
302.606
324.304
342.864
358
369.433
376.914
380.261
380.158
376.037
367.841
355.622
339.517
319.76
296.647
270.517
241.763
210.804
178.102
144.133
109.338
74.1655
39.0504
4.35778
-29.6875
-63.1347
-94.7558
-124.638
-152.716
-178.915
-203.165
-225.421
-245.672
-263.937
-280.268
-294.733
-307.415
-318.404
-327.786
-335.644
-342.054
-347.085
-350.796
-353.23
-354.418
-354.387
-353.154
-350.714
-347.052
-342.143
-335.95
-328.425
-319.519
-309.169
-297.317
-283.9
-268.862
-252.154
-233.741
-213.607
-191.75
-168.187
-142.964
-116.154
-87.8565
-58.2036
-27.3579
4.42804
36.9219
69.8333
102.831
135.549
167.591
198.536
227.952
255.394
280.428
302.639
321.641
337.096
348.719
356.29
359.658
358.739
353.586
344.254
330.89
313.724
293.045
269.197
242.567
213.582
182.693
150.367
117.07
83.2641
49.3866
15.8479
-16.9854
-48.814
-79.3761
-108.471
-135.944
-161.689
-185.651
-207.813
-228.186
-246.806
-263.725
-278.995
-292.684
-304.854
-315.56
-324.854
-332.783
-339.384
-344.698
-348.765
-351.613
-353.263
-353.741
-353.055
-351.198
-348.153
-343.893
-338.382
-331.581
-323.437
-313.896
-302.894
-290.369
-276.266
-260.535
-243.135
-224.039
-203.238
-180.737
-156.571
-130.797
-103.51
-74.8376
-44.7889
-13.8572
17.8727
50.1209
82.5731
114.874
146.637
177.444
206.853
234.416
259.68
282.212
301.608
317.511
329.624
337.711
341.615
341.254
336.677
327.973
315.298
298.908
279.116
256.28
230.797
203.081
173.559
142.658
110.797
78.3823
45.7937
13.3789
-18.54
-49.6815
-79.813
-108.733
-136.285
-162.35
-186.846
-209.728
-230.969
-250.562
-268.517
-284.848
-299.576
-312.728
-324.331
-334.416
-343.024
-350.194
-355.963
-360.372
-363.437
-365.196
-365.678
-364.874
-362.791
-359.423
-354.73
-348.682
-341.255
-332.39
-322.034
-310.126
-296.623
-281.437
-264.532
-245.856
-225.403
-203.166
-179.319
-154.132
-128.385
-101.626
-61.6647
-26.4574
9.87167
46.9076
84.1884
121.474
158.241
194.08
228.483
260.9
290.873
317.92
341.586
361.538
377.461
389.1
396.375
399.176
398.15
393.093
384.078
371.328
355.043
335.514
313.118
288.14
261.008
232.046
201.658
170.277
138.214
105.842
73.5422
41.6021
10.4158
-19.1297
-47.6764
-75.3994
-102.025
-127.274
-151.004
-173.148
-193.661
-212.531
-229.752
-245.328
-259.275
-271.602
-282.322
-291.447
-298.984
-304.941
-309.327
-312.143
-313.392
-312.888
-310.824
-307.198
-302.025
-295.331
-287.122
-277.415
-266.219
-253.541
-239.398
-223.805
-206.773
-188.331
-168.497
-147.296
-124.762
-100.965
-76.0592
-51.0593
-44.5317
414.642
408.592
398.615
384.813
367.331
346.424
322.386
295.541
266.241
234.926
201.997
167.855
132.962
97.7379
62.6009
27.9053
-6.01935
-38.8615
-70.3276
-99.0132
-127.188
-153.668
-178.298
-201.025
-221.845
-240.777
-257.866
-273.165
-286.737
-298.655
-308.985
-317.795
-325.145
-331.093
-335.682
-338.952
-340.929
-341.622
-341.04
-339.197
-336.041
-331.557
-325.697
-318.399
-309.62
-299.288
-287.317
-273.656
-258.227
-240.962
-221.828
-200.802
-177.882
-153.113
-126.525
-98.2315
-68.5243
-38.7902
-7.05083
25.7244
59.1633
92.8686
126.42
159.483
191.651
222.497
251.662
278.743
303.375
325.2
343.878
359.118
370.633
378.169
381.537
381.481
377.35
369.106
356.812
340.608
320.732
297.482
271.204
242.294
211.176
178.321
144.201
109.261
73.9577
38.7257
3.9316
-30.2123
-63.7223
-95.3955
-125.317
-153.42
-179.631
-203.882
-226.127
-246.359
-264.597
-280.896
-295.327
-307.974
-318.929
-328.28
-336.111
-342.496
-347.508
-351.202
-353.622
-354.803
-354.769
-353.538
-351.104
-347.451
-342.556
-336.38
-328.876
-319.992
-309.667
-297.839
-284.448
-269.432
-252.744
-234.348
-214.226
-192.374
-168.81
-143.578
-116.749
-88.4225
-58.7289
-27.8253
4.02909
36.607
69.6177
102.73
135.575
167.756
198.85
228.42
256.018
281.203
303.558
322.687
338.249
349.956
357.582
360.975
360.055
354.864
345.465
332.009
314.729
293.917
269.92
243.134
213.987
182.936
150.454
117.01
83.0673
49.0693
15.4272
-17.4877
-49.3823
-79.9918
-109.117
-136.606
-162.352
-186.304
-208.449
-228.798
-247.391
-264.282
-279.524
-293.186
-305.333
-316.018
-325.294
-333.206
-339.793
-345.095
-349.151
-351.989
-353.634
-354.11
-353.427
-351.577
-348.542
-344.294
-338.8
-332.018
-323.896
-314.379
-303.402
-290.902
-276.823
-261.113
-243.732
-224.652
-203.86
-181.362
-157.189
-131.399
-104.083
-75.3631
-45.286
-14.2794
17.5338
49.878
82.4408
114.866
146.766
177.721
207.285
235.005
260.424
283.103
302.632
318.648
330.849
338.994
342.923
342.561
337.944
329.168
316.396
299.886
279.957
256.973
231.337
203.469
173.797
142.755
110.762
78.2287
45.5355
13.031
-18.9616
-50.1622
-80.3384
-109.29
-136.862
-162.937
-187.434
-210.311
-231.543
-251.124
-269.066
-285.383
-300.097
-313.233
-324.821
-334.891
-343.484
-350.639
-356.395
-360.791
-363.849
-365.605
-366.084
-365.282
-363.205
-359.846
-355.163
-349.131
-341.721
-332.872
-322.534
-310.647
-297.163
-281.995
-265.104
-246.433
-225.982
-203.737
-179.867
-154.633
-128.842
-102.254
-61.913
-26.8372
9.59124
46.7348
84.1315
121.546
158.455
194.446
229.007
261.581
291.708
318.897
342.687
362.743
378.749
390.448
397.745
400.53
399.463
394.348
385.258
372.41
356.009
336.351
313.818
288.699
261.426
232.326
201.805
170.299
138.118
105.635
73.2292
41.1926
9.93428
-19.5651
-48.1667
-75.9393
-102.597
-127.863
-151.598
-173.74
-194.245
-213.105
-230.314
-245.878
-259.814
-272.131
-282.841
-291.959
-299.49
-305.441
-309.822
-312.635
-313.885
-313.379
-311.314
-307.685
-302.511
-295.817
-287.609
-277.903
-266.71
-254.034
-239.894
-224.302
-207.27
-188.828
-168.996
-147.798
-125.266
-101.474
-76.5675
-51.5255
-44.5544
416.074
409.983
399.937
386.042
368.446
347.405
323.218
296.211
266.743
235.26
202.166
167.861
132.815
97.4508
62.1903
27.3953
-6.60623
-39.4952
-70.9705
-99.8501
-128.006
-154.475
-179.093
-201.801
-222.598
-241.502
-258.56
-273.825
-287.364
-299.25
-309.55
-318.333
-325.659
-331.586
-336.16
-339.417
-341.386
-342.077
-341.498
-339.663
-336.518
-332.049
-326.211
-318.938
-310.186
-299.883
-287.944
-274.313
-258.913
-241.676
-222.562
-201.551
-178.637
-153.862
-127.25
-98.916
-69.154
-39.4233
-7.58919
25.2932
58.8485
92.6809
126.369
159.576
191.897
222.898
252.22
279.457
304.24
326.21
345.02
360.376
371.986
379.585
382.976
382.97
378.829
370.532
358.152
341.836
321.827
298.422
271.976
242.89
211.595
178.565
144.275
109.171
73.7211
38.357
3.44804
-30.8054
-64.3853
-96.1179
-126.083
-154.214
-180.438
-204.69
-226.923
-247.132
-265.34
-281.604
-295.996
-308.603
-319.521
-328.836
-336.635
-342.994
-347.982
-351.657
-354.064
-355.237
-355.199
-353.969
-351.542
-347.9
-343.02
-336.863
-329.382
-320.524
-310.227
-298.428
-285.064
-270.074
-253.409
-235.032
-214.923
-193.077
-169.512
-144.271
-117.421
-89.0613
-59.3223
-28.3534
3.57791
36.2502
69.3727
102.613
135.602
167.94
199.202
228.945
256.72
282.076
304.592
323.866
339.55
351.35
359.038
362.46
361.537
356.304
346.831
333.271
315.861
294.897
270.733
243.77
214.441
183.208
150.55
116.939
82.8431
48.7095
14.9508
-18.0557
-50.0245
-80.6872
-109.846
-137.352
-163.1
-187.041
-209.166
-229.488
-248.051
-264.909
-280.119
-293.752
-305.872
-316.533
-325.788
-333.683
-340.253
-345.541
-349.584
-352.411
-354.051
-354.526
-353.846
-352.002
-348.979
-344.745
-339.27
-332.51
-324.412
-314.922
-303.973
-291.501
-277.45
-261.764
-244.405
-225.342
-204.561
-182.066
-157.887
-132.079
-104.731
-75.9601
-45.8435
-14.7562
17.1502
49.6024
82.2895
114.855
146.909
178.031
207.77
235.668