/*--------------------------------*- C++ -*----------------------------------*\
| =========                 |                                                 |
| \\      /  F ield         | OpenFOAM: The Open Source CFD Toolbox           |
|  \\    /   O peration     | Version:  3.0.1                                 |
|   \\  /    A nd           | Web:      www.OpenFOAM.org                      |
|    \\/     M anipulation  |                                                 |
\*---------------------------------------------------------------------------*/
FoamFile
{
    version     2.0;
    format      ascii;
    class       volVectorField;
    location    "34.6";
    object      U;
}
// * * * * * * * * * * * * * * * * * * * * * * * * * * * * * * * * * * * * * //

dimensions      [0 1 -1 0 0 0 0];

internalField   nonuniform List<vector> 
21420
(
(0.280584 0.000132732 0)
(0.278156 0.000373707 0)
(0.273156 0.000613984 0)
(0.265805 0.000847084 0)
(0.256218 0.00105373 0)
(0.244556 0.0012567 0)
(0.231021 0.00141673 0)
(0.215842 0.00157619 0)
(0.199265 0.00171462 0)
(0.181552 0.00179198 0)
(0.162977 0.0018772 0)
(0.143803 0.00193799 0)
(0.124284 0.00193666 0)
(0.104667 0.00194834 0)
(0.0851747 0.00190499 0)
(0.066007 0.00187622 0)
(0.0473245 0.00182922 0)
(0.0292658 0.00174214 0)
(0.0118048 0.00166639 0)
(-0.00459776 0.00159733 0)
(-0.0199221 0.0014904 0)
(-0.0344776 0.00139746 0)
(-0.0480421 0.0013017 0)
(-0.0606067 0.0011965 0)
(-0.0721777 0.00110127 0)
(-0.0827701 0.00100117 0)
(-0.0924066 0.000909786 0)
(-0.101115 0.000820238 0)
(-0.108926 0.000730912 0)
(-0.115873 0.000647643 0)
(-0.121989 0.000567009 0)
(-0.127305 0.000488421 0)
(-0.131852 0.000413434 0)
(-0.135657 0.000340165 0)
(-0.138743 0.000269117 0)
(-0.141129 0.000199196 0)
(-0.142827 0.000130565 0)
(-0.143812 6.41126e-05 0)
(-0.14413 -3.7361e-06 0)
(-0.143744 -7.4262e-05 0)
(-0.142651 -0.000146895 0)
(-0.140842 -0.000220737 0)
(-0.138292 -0.000294991 0)
(-0.134948 -0.000373286 0)
(-0.1308 -0.000458397 0)
(-0.125833 -0.000539831 0)
(-0.11997 -0.000626057 0)
(-0.113179 -0.000724213 0)
(-0.105441 -0.000815969 0)
(-0.0966851 -0.000906526 0)
(-0.0869142 -0.00102116 0)
(-0.0760543 -0.00111612 0)
(-0.0640643 -0.00122946 0)
(-0.0510086 -0.00133397 0)
(-0.0368529 -0.001422 0)
(-0.0216304 -0.00152711 0)
(-0.00587541 -0.00161819 0)
(0.0104432 -0.00167907 0)
(0.0277152 -0.00176055 0)
(0.0456979 -0.00180222 0)
(0.064123 -0.00184777 0)
(0.0828848 -0.0018618 0)
(0.101731 -0.00184743 0)
(0.120374 -0.00182164 0)
(0.138634 -0.00177287 0)
(0.156261 -0.00168893 0)
(0.172982 -0.0015943 0)
(0.188562 -0.001463 0)
(0.202705 -0.00131737 0)
(0.215295 -0.0011498 0)
(0.226046 -0.000947873 0)
(0.234647 -0.000730265 0)
(0.240977 -0.000497834 0)
(0.24483 -0.000252919 0)
(0.246022 -9.75315e-06 0)
(0.244702 0.000261912 0)
(0.240751 0.000533412 0)
(0.234446 0.00079728 0)
(0.225551 0.00104338 0)
(0.214423 0.00126788 0)
(0.20134 0.00146499 0)
(0.186382 0.00163093 0)
(0.169993 0.00176283 0)
(0.15252 0.00185475 0)
(0.134188 0.00191143 0)
(0.115504 0.00194275 0)
(0.0967434 0.00193956 0)
(0.0777542 0.00191408 0)
(0.059266 0.00187351 0)
(0.0409861 0.00182594 0)
(0.0231443 0.00177274 0)
(0.0056317 0.00170442 0)
(-0.0116011 0.00164365 0)
(-0.0276343 0.00156913 0)
(-0.0427863 0.00149609 0)
(-0.0571622 0.00141655 0)
(-0.0707219 0.00131882 0)
(-0.0834369 0.00122054 0)
(-0.0952715 0.00112498 0)
(-0.10615 0.00102932 0)
(-0.115986 0.000928546 0)
(-0.124806 0.000822119 0)
(-0.132649 0.000729907 0)
(-0.139501 0.000633682 0)
(-0.145422 0.000542485 0)
(-0.150487 0.000459284 0)
(-0.154726 0.000380027 0)
(-0.158138 0.000303648 0)
(-0.160781 0.000229748 0)
(-0.162728 0.000153112 0)
(-0.163947 8.21235e-05 0)
(-0.164483 2.74768e-05 0)
(-0.164354 -4.79348e-05 0)
(-0.16355 -0.000106903 0)
(-0.162042 -0.000180448 0)
(-0.159918 -0.000245473 0)
(-0.15706 -0.000317306 0)
(-0.153551 -0.000386876 0)
(-0.149307 -0.000450478 0)
(-0.144309 -0.000533142 0)
(-0.13862 -0.000599451 0)
(-0.132098 -0.000682802 0)
(-0.124795 -0.00076562 0)
(-0.116695 -0.000848207 0)
(-0.107718 -0.000936453 0)
(-0.0978629 -0.00101197 0)
(-0.0871224 -0.00110106 0)
(-0.0755413 -0.00119292 0)
(-0.0630964 -0.00128424 0)
(-0.0497767 -0.00135773 0)
(-0.0356554 -0.00144154 0)
(-0.0207304 -0.00151471 0)
(-0.00507202 -0.00158721 0)
(0.0112534 -0.00164715 0)
(0.0281312 -0.00169801 0)
(0.0454736 -0.0017328 0)
(0.0630793 -0.00176032 0)
(0.0808283 -0.00175944 0)
(0.0985199 -0.00174659 0)
(0.115939 -0.00170673 0)
(0.132846 -0.00164376 0)
(0.148991 -0.0015533 0)
(0.164097 -0.00143707 0)
(0.177869 -0.00129252 0)
(0.190099 -0.00112727 0)
(0.200504 -0.000935835 0)
(0.208906 -0.000731974 0)
(0.215133 -0.000496757 0)
(0.219012 -0.000263227 0)
(0.22044 -2.70378e-05 0)
(0.219468 0.000218923 0)
(0.215898 0.000474895 0)
(0.209916 0.000709663 0)
(0.20163 0.000928927 0)
(0.191214 0.00113435 0)
(0.178794 0.0013244 0)
(0.164638 0.00148184 0)
(0.148976 0.00162632 0)
(0.132059 0.00172653 0)
(0.114182 0.00181612 0)
(0.0956079 0.00186682 0)
(0.0766505 0.00189427 0)
(0.0575357 0.00189648 0)
(0.0385257 0.00186876 0)
(0.0198925 0.00183089 0)
(0.00178254 0.00176689 0)
(-0.0156598 0.00169663 0)
(-0.0323272 0.00160994 0)
(-0.0481019 0.00151699 0)
(-0.0628687 0.0014203 0)
(-0.0766148 0.00131472 0)
(-0.0893327 0.00120835 0)
(-0.101026 0.00110613 0)
(-0.111656 0.000995158 0)
(-0.121143 0.000895425 0)
(-0.129599 0.00078538 0)
(-0.137048 0.000685847 0)
(-0.143495 0.000601876 0)
(-0.149083 0.000513149 0)
(-0.153877 0.000436764 0)
(-0.15791 0.00036653 0)
(-0.161274 0.000300232 0)
(-0.163998 0.000238201 0)
(-0.166055 0.00018239 0)
(-0.16752 0.000115129 0)
(-0.168421 5.78115e-05 0)
(-0.168777 5.46268e-08 0)
(-0.168487 -5.1179e-05 0)
(-0.167592 -0.000111995 0)
(-0.166118 -0.000181419 0)
(-0.163974 -0.000243424 0)
(-0.161212 -0.000315758 0)
(-0.157716 -0.000373599 0)
(-0.153515 -0.000444174 0)
(-0.148672 -0.000519947 0)
(-0.143068 -0.000588891 0)
(-0.136736 -0.000665393 0)
(-0.129595 -0.000752397 0)
(-0.121591 -0.000830067 0)
(-0.112776 -0.000917741 0)
(-0.103066 -0.00100316 0)
(-0.0924568 -0.00109707 0)
(-0.0809341 -0.00119021 0)
(-0.0685085 -0.00127834 0)
(-0.0552323 -0.00136666 0)
(-0.0410947 -0.00143248 0)
(-0.0262288 -0.00150758 0)
(-0.0107398 -0.00156841 0)
(0.00535594 -0.00161883 0)
(0.0219515 -0.00166066 0)
(0.0388853 -0.00169879 0)
(0.0560849 -0.00171219 0)
(0.0733957 -0.00172186 0)
(0.0906867 -0.00170059 0)
(0.107711 -0.00167445 0)
(0.124346 -0.00162106 0)
(0.140345 -0.00154659 0)
(0.155428 -0.00144071 0)
(0.169334 -0.00131556 0)
(0.181836 -0.00116242 0)
(0.192631 -0.000968841 0)
(0.201424 -0.00076937 0)
(0.208034 -0.000539616 0)
(0.21231 -0.000309258 0)
(0.214149 -6.55708e-05 0)
(0.213617 0.000179469 0)
(0.210482 0.000429456 0)
(0.204935 0.000661995 0)
(0.197149 0.000883402 0)
(0.187198 0.00109037 0)
(0.17525 0.00127681 0)
(0.161571 0.00143611 0)
(0.146386 0.00157337 0)
(0.129944 0.00167907 0)
(0.112557 0.00176158 0)
(0.0944903 0.00181902 0)
(0.076024 0.00184654 0)
(0.057407 0.00184629 0)
(0.0388787 0.00182528 0)
(0.0206845 0.00178286 0)
(0.00301491 0.00172144 0)
(-0.0139494 0.00164343 0)
(-0.0300628 0.00155216 0)
(-0.0451976 0.00145787 0)
(-0.0593036 0.00135345 0)
(-0.0723662 0.00124289 0)
(-0.0843943 0.00114136 0)
(-0.0954461 0.00104988 0)
(-0.105543 0.000954704 0)
(-0.114703 0.000868988 0)
(-0.123022 0.000784939 0)
(-0.130548 0.000705277 0)
(-0.137262 0.00062479 0)
(-0.143148 0.000542783 0)
(-0.148203 0.000460775 0)
(-0.152443 0.000379771 0)
(-0.155864 0.000304652 0)
(-0.158518 0.000229161 0)
(-0.160476 0.000158119 0)
(-0.161767 9.82293e-05 0)
(-0.162439 3.73937e-05 0)
(-0.162491 -1.44584e-05 0)
(-0.161997 -7.82774e-05 0)
(-0.161015 -0.000131068 0)
(-0.159316 -0.000184975 0)
(-0.157166 -0.000242351 0)
(-0.154356 -0.00031055 0)
(-0.150671 -0.000377407 0)
(-0.146339 -0.000461949 0)
(-0.141099 -0.000549544 0)
(-0.134895 -0.000635755 0)
(-0.127757 -0.000751999 0)
(-0.119614 -0.000850221 0)
(-0.110358 -0.000967858 0)
(-0.100086 -0.00107224 0)
(-0.088827 -0.0011674 0)
(-0.0765998 -0.00127116 0)
(-0.0633388 -0.00136506 0)
(-0.0493991 -0.00143196 0)
(-0.0348194 -0.00151514 0)
(-0.0202268 -0.00157097 0)
(-0.00367727 -0.00159829 0)
(0.015848 -0.00172444 0)
(0.0358958 -0.00175911 0)
(0.0559493 -0.00178131 0)
(0.0761899 -0.00179808 0)
(0.0962352 -0.00177393 0)
(0.115846 -0.00174447 0)
(0.134944 -0.00168428 0)
(0.153122 -0.00161708 0)
(0.170411 -0.00153205 0)
(0.186473 -0.00141613 0)
(0.200981 -0.00128546 0)
(0.213909 -0.001137 0)
(0.224951 -0.000958435 0)
(0.233891 -0.000775834 0)
(0.240704 -0.0005819 0)
(0.245141 -0.00034084 0)
(0.247195 -0.000107926 0)
(0.247159 0.000132218 0)
(0.24498 0.000346743 0)
(0.2406 0.000552124 0)
(0.234019 0.000767002 0)
(0.225392 0.000951165 0)
(0.214962 0.00113457 0)
(0.202731 0.00130769 0)
(0.188997 0.00143247 0)
(0.173995 0.0015573 0)
(0.157937 0.00163394 0)
(0.141107 0.00171012 0)
(0.123608 0.00176745 0)
(0.105755 0.00177714 0)
(0.0877403 0.00178918 0)
(0.0697019 0.00178662 0)
(0.0518218 0.00174091 0)
(0.0342411 0.00170903 0)
(0.0171261 0.00163815 0)
(0.00131906 0.00157202 0)
(-0.0135181 0.00150865 0)
(-0.0280831 0.00142117 0)
(-0.0419127 0.00134165 0)
(-0.0549328 0.00125749 0)
(-0.0670888 0.00116327 0)
(-0.0783658 0.00107763 0)
(-0.0887637 0.000985934 0)
(-0.0982907 0.00090215 0)
(-0.106961 0.000818841 0)
(-0.114785 0.000733236 0)
(-0.121778 0.00065266 0)
(-0.127952 0.000572426 0)
(-0.133314 0.000491166 0)
(-0.137871 0.000412055 0)
(-0.141627 0.000332764 0)
(-0.144583 0.000252939 0)
(-0.14675 0.000172888 0)
(-0.148094 9.41783e-05 0)
(-0.148663 1.65262e-05 0)
(-0.148431 -6.40566e-05 0)
(-0.147378 -0.000144479 0)
(-0.145524 -0.000223585 0)
(-0.142865 -0.000302528 0)
(-0.139408 -0.000382117 0)
(-0.13516 -0.000459642 0)
(-0.130125 -0.000538698 0)
(-0.124314 -0.000614411 0)
(-0.117735 -0.000688699 0)
(-0.110396 -0.000766378 0)
(-0.10231 -0.000838017 0)
(-0.0934891 -0.000907692 0)
(-0.0839467 -0.000983506 0)
(-0.073698 -0.00104959 0)
(-0.0627583 -0.00112348 0)
(-0.0511443 -0.00118506 0)
(-0.0388692 -0.00124312 0)
(-0.0258813 -0.00131212 0)
(-0.0110484 -0.00136651 0)
(0.00452161 -0.00142276 0)
(0.280684 0.000398004 0)
(0.27825 0.0011215 0)
(0.273249 0.00184221 0)
(0.265894 0.00254179 0)
(0.256299 0.00316188 0)
(0.244631 0.00377093 0)
(0.231085 0.00425109 0)
(0.215897 0.00472955 0)
(0.199311 0.00514491 0)
(0.181587 0.00537697 0)
(0.163002 0.00563263 0)
(0.143818 0.00581496 0)
(0.124289 0.00581087 0)
(0.104663 0.00584587 0)
(0.0851633 0.00571573 0)
(0.0659885 0.00562931 0)
(0.0472997 0.00548825 0)
(0.0292362 0.00522697 0)
(0.011774 0.00499902 0)
(-0.0046312 0.00479262 0)
(-0.0199596 0.00447128 0)
(-0.0345159 0.00419244 0)
(-0.0480808 0.00390512 0)
(-0.0606447 0.00358947 0)
(-0.0722155 0.00330373 0)
(-0.0828067 0.00300345 0)
(-0.0924423 0.00272929 0)
(-0.10115 0.00246062 0)
(-0.10896 0.0021926 0)
(-0.115905 0.00194283 0)
(-0.12202 0.00170094 0)
(-0.127335 0.00146517 0)
(-0.131881 0.00124024 0)
(-0.135685 0.00102044 0)
(-0.138771 0.000807309 0)
(-0.141155 0.000597685 0)
(-0.142854 0.000392059 0)
(-0.14384 0.000193672 0)
(-0.144159 -1.20778e-05 0)
(-0.143773 -0.000223 0)
(-0.142681 -0.000440507 0)
(-0.140874 -0.000662114 0)
(-0.138325 -0.000884824 0)
(-0.134983 -0.00111952 0)
(-0.130837 -0.00137513 0)
(-0.125872 -0.00161937 0)
(-0.120011 -0.00187783 0)
(-0.113223 -0.00217264 0)
(-0.105487 -0.00244746 0)
(-0.0967332 -0.00271924 0)
(-0.0869654 -0.00306344 0)
(-0.0761057 -0.00334775 0)
(-0.0641184 -0.00368813 0)
(-0.0510648 -0.00400273 0)
(-0.0369052 -0.00426512 0)
(-0.0216835 -0.00458244 0)
(-0.00592568 -0.00485514 0)
(0.0103985 -0.00503683 0)
(0.0276749 -0.00528273 0)
(0.0456644 -0.00540815 0)
(0.0641001 -0.00554208 0)
(0.0828646 -0.00559211 0)
(0.10173 -0.00554051 0)
(0.120377 -0.00547059 0)
(0.138657 -0.0053202 0)
(0.156299 -0.00506617 0)
(0.173035 -0.00477698 0)
(0.188622 -0.00439661 0)
(0.202787 -0.00395402 0)
(0.215391 -0.00344663 0)
(0.226156 -0.00284019 0)
(0.234766 -0.00219785 0)
(0.241101 -0.00150878 0)
(0.244981 -0.000745993 0)
(0.246176 -2.3446e-05 0)
(0.244849 0.000785173 0)
(0.240905 0.00159884 0)
(0.234612 0.00239133 0)
(0.225712 0.00313043 0)
(0.214581 0.00380168 0)
(0.201501 0.00439789 0)
(0.186536 0.00490145 0)
(0.170134 0.00528785 0)
(0.152648 0.00556285 0)
(0.134302 0.00574268 0)
(0.115599 0.00583157 0)
(0.0968134 0.00581745 0)
(0.0778107 0.00573765 0)
(0.0593096 0.00562394 0)
(0.0410085 0.00547917 0)
(0.0231496 0.00531937 0)
(0.00561583 0.00511829 0)
(-0.0116318 0.00492894 0)
(-0.0276812 0.00470968 0)
(-0.0428465 0.0044841 0)
(-0.0572349 0.00423393 0)
(-0.070793 0.00395901 0)
(-0.0835078 0.00367396 0)
(-0.0953589 0.0033782 0)
(-0.106248 0.00308639 0)
(-0.116085 0.00276948 0)
(-0.124895 0.00247669 0)
(-0.13275 0.00219074 0)
(-0.13959 0.00189474 0)
(-0.1455 0.00163127 0)
(-0.150568 0.00137533 0)
(-0.154807 0.00113275 0)
(-0.15821 0.000898239 0)
(-0.160844 0.000688969 0)
(-0.162791 0.000466049 0)
(-0.164018 0.000246954 0)
(-0.164558 8.22654e-05 0)
(-0.164427 -0.000152141 0)
(-0.163612 -0.000316772 0)
(-0.16211 -0.000548132 0)
(-0.159976 -0.000736331 0)
(-0.157121 -0.000950592 0)
(-0.153616 -0.00115846 0)
(-0.149373 -0.00134798 0)
(-0.144373 -0.00159856 0)
(-0.138688 -0.00180553 0)
(-0.132176 -0.0020511 0)
(-0.124868 -0.00229502 0)
(-0.116767 -0.00253607 0)
(-0.107795 -0.00281282 0)
(-0.0979395 -0.00304506 0)
(-0.0872098 -0.00332508 0)
(-0.0756165 -0.00357641 0)
(-0.0631602 -0.00383656 0)
(-0.0498573 -0.00407383 0)
(-0.0357292 -0.00432912 0)
(-0.0208052 -0.00455085 0)
(-0.00513063 -0.00476057 0)
(0.0111994 -0.00493054 0)
(0.0280682 -0.00510334 0)
(0.045411 -0.00520722 0)
(0.0630358 -0.00527462 0)
(0.0807939 -0.00528717 0)
(0.0985035 -0.00523475 0)
(0.115933 -0.00512321 0)
(0.132846 -0.00492882 0)
(0.149 -0.0046634 0)
(0.164112 -0.00432024 0)
(0.177907 -0.00388198 0)
(0.190146 -0.00338522 0)
(0.200566 -0.0028098 0)
(0.208976 -0.00218726 0)
(0.215189 -0.001499 0)
(0.21908 -0.000799728 0)
(0.22052 -8.0865e-05 0)
(0.219541 0.000663943 0)
(0.215961 0.00142485 0)
(0.209987 0.00212079 0)
(0.2017 0.00280017 0)
(0.191261 0.00340072 0)
(0.178831 0.00396852 0)
(0.164653 0.00444474 0)
(0.148981 0.00487114 0)
(0.132058 0.00519604 0)
(0.11416 0.00543883 0)
(0.0955851 0.00561167 0)
(0.0766049 0.00568002 0)
(0.0574877 0.00568676 0)
(0.0384706 0.00560525 0)
(0.0198302 0.00549711 0)
(0.00170634 0.00529889 0)
(-0.0157413 0.00508581 0)
(-0.0324133 0.00483434 0)
(-0.0482019 0.00454603 0)
(-0.062974 0.00424729 0)
(-0.0767077 0.00393855 0)
(-0.0894201 0.00363841 0)
(-0.101124 0.00331106 0)
(-0.111744 0.00299295 0)
(-0.121242 0.00268403 0)
(-0.129695 0.00234648 0)
(-0.137134 0.0020667 0)
(-0.143591 0.00180509 0)
(-0.149165 0.0015302 0)
(-0.153948 0.00131262 0)
(-0.157985 0.00110444 0)
(-0.161353 0.00088869 0)
(-0.164069 0.000697632 0)
(-0.166123 0.000541549 0)
(-0.16758 0.000350451 0)
(-0.168478 0.000186172 0)
(-0.168842 1.99817e-06 0)
(-0.168552 -0.0001535 0)
(-0.16766 -0.000348404 0)
(-0.166175 -0.00053477 0)
(-0.164039 -0.000728544 0)
(-0.161282 -0.000946081 0)
(-0.157779 -0.00111861 0)
(-0.153588 -0.00134106 0)
(-0.148744 -0.00156471 0)
(-0.143134 -0.00176443 0)
(-0.136815 -0.00200477 0)
(-0.129657 -0.00224448 0)
(-0.121665 -0.00249201 0)
(-0.112856 -0.00275387 0)
(-0.103159 -0.00301792 0)
(-0.0925411 -0.00329419 0)
(-0.0810074 -0.00355847 0)
(-0.0685848 -0.00384062 0)
(-0.0553032 -0.00409319 0)
(-0.0411753 -0.00430201 0)
(-0.0262884 -0.00451835 0)
(-0.0108017 -0.00470158 0)
(0.0052919 -0.00486786 0)
(0.0218874 -0.00499141 0)
(0.0388398 -0.00508333 0)
(0.056032 -0.00514866 0)
(0.0733704 -0.00515785 0)
(0.09065 -0.00512495 0)
(0.107705 -0.00502287 0)
(0.124343 -0.00485274 0)
(0.140352 -0.00464145 0)
(0.155443 -0.00433219 0)
(0.169373 -0.00394337 0)
(0.181887 -0.00348475 0)
(0.192684 -0.00291548 0)
(0.201492 -0.00231273 0)
(0.208106 -0.00162333 0)
(0.212388 -0.000923524 0)
(0.214232 -0.00019128 0)
(0.213683 0.000538209 0)
(0.210544 0.00128037 0)
(0.205006 0.00199026 0)
(0.197206 0.0026478 0)
(0.187249 0.00327011 0)
(0.175288 0.00382783 0)
(0.161594 0.0043095 0)
(0.146396 0.00472497 0)
(0.129939 0.00504696 0)
(0.112545 0.00528529 0)
(0.0944653 0.00545764 0)
(0.0759826 0.00553483 0)
(0.0573601 0.0055404 0)
(0.0388167 0.00548293 0)
(0.0206107 0.00534706 0)
(0.00294073 0.00516843 0)
(-0.0140357 0.00492526 0)
(-0.0301564 0.00465108 0)
(-0.0453024 0.00436736 0)
(-0.0594036 0.00404538 0)
(-0.0724458 0.00374471 0)
(-0.0844785 0.00342956 0)
(-0.0955392 0.00314579 0)
(-0.105632 0.00285863 0)
(-0.114791 0.00260229 0)
(-0.123107 0.00234696 0)
(-0.130628 0.00212205 0)
(-0.13735 0.00187633 0)
(-0.143231 0.00162562 0)
(-0.148289 0.00138376 0)
(-0.152522 0.00113624 0)
(-0.155935 0.000910368 0)
(-0.158589 0.000685189 0)
(-0.160541 0.000471516 0)
(-0.161835 0.000290637 0)
(-0.162504 0.000103039 0)
(-0.162538 -3.774e-05 0)
(-0.16205 -0.000231996 0)
(-0.161063 -0.000383973 0)
(-0.159364 -0.000548222 0)
(-0.157212 -0.000730926 0)
(-0.154396 -0.000931512 0)
(-0.15071 -0.00113073 0)
(-0.14639 -0.00139405 0)
(-0.141137 -0.00164595 0)
(-0.13494 -0.00191167 0)
(-0.127801 -0.00225627 0)
(-0.119663 -0.0025444 0)
(-0.110416 -0.00290207 0)
(-0.100143 -0.00321496 0)
(-0.0888989 -0.00350131 0)
(-0.0766716 -0.00381253 0)
(-0.063413 -0.00409233 0)
(-0.0494806 -0.00429436 0)
(-0.034908 -0.0045484 0)
(-0.0203066 -0.00470867 0)
(-0.00377947 -0.00480114 0)
(0.0157455 -0.00517433 0)
(0.0358183 -0.00527022 0)
(0.0558708 -0.0053503 0)
(0.0761253 -0.00539477 0)
(0.096189 -0.00531779 0)
(0.115803 -0.00523577 0)
(0.134921 -0.00506019 0)
(0.153117 -0.00484626 0)
(0.170412 -0.00460182 0)
(0.186497 -0.00424572 0)
(0.201015 -0.0038555 0)
(0.213955 -0.00341667 0)
(0.225017 -0.00287737 0)
(0.233965 -0.00233319 0)
(0.24078 -0.00171696 0)
(0.245243 -0.00105932 0)
(0.247299 -0.000366351 0)
(0.247257 0.000380859 0)
(0.245062 0.00103504 0)
(0.24069 0.00165385 0)
(0.234109 0.00230089 0)
(0.225478 0.00285386 0)
(0.215041 0.0034043 0)
(0.202802 0.00392385 0)
(0.189058 0.00429829 0)
(0.174047 0.00467284 0)
(0.157978 0.00490274 0)
(0.141139 0.00513132 0)
(0.123631 0.00530327 0)
(0.105769 0.00533227 0)
(0.0877459 0.00536833 0)
(0.0696995 0.0053606 0)
(0.0518136 0.00522333 0)
(0.0342266 0.00512758 0)
(0.0171047 0.00491496 0)
(0.00129507 0.00471634 0)
(-0.0135439 0.00452641 0)
(-0.028112 0.0042638 0)
(-0.041944 0.00402513 0)
(-0.0549654 0.00377264 0)
(-0.0671217 0.0034899 0)
(-0.078399 0.00323295 0)
(-0.0887965 0.00295783 0)
(-0.0983232 0.00270646 0)
(-0.106993 0.00245653 0)
(-0.114816 0.00219971 0)
(-0.121809 0.00195799 0)
(-0.127983 0.00171731 0)
(-0.133345 0.00147349 0)
(-0.137902 0.00123615 0)
(-0.141658 0.000998296 0)
(-0.144614 0.000758771 0)
(-0.14678 0.000518598 0)
(-0.148126 0.000282708 0)
(-0.148695 4.96738e-05 0)
(-0.148462 -0.000192138 0)
(-0.14741 -0.000433426 0)
(-0.145555 -0.000670844 0)
(-0.142896 -0.000907615 0)
(-0.13944 -0.00114641 0)
(-0.135191 -0.00137896 0)
(-0.130156 -0.00161614 0)
(-0.124345 -0.00184327 0)
(-0.117765 -0.00206614 0)
(-0.110426 -0.00229917 0)
(-0.102339 -0.0025141 0)
(-0.0935177 -0.00272312 0)
(-0.0839751 -0.00295056 0)
(-0.0737255 -0.00314883 0)
(-0.0627853 -0.00337052 0)
(-0.0511702 -0.00355529 0)
(-0.038894 -0.00372947 0)
(-0.0259058 -0.00393648 0)
(-0.011073 -0.00409943 0)
(0.00449998 -0.00426875 0)
(0.280883 0.000662438 0)
(0.278438 0.00187105 0)
(0.273435 0.00307138 0)
(0.266072 0.00423818 0)
(0.256462 0.00527213 0)
(0.244779 0.0062877 0)
(0.231213 0.0070882 0)
(0.216007 0.00788593 0)
(0.199401 0.00857839 0)
(0.181654 0.00896504 0)
(0.163049 0.00939115 0)
(0.143845 0.00969494 0)
(0.124297 0.00968777 0)
(0.104653 0.0097459 0)
(0.0851381 0.00952875 0)
(0.0659491 0.00938431 0)
(0.0472478 0.00914906 0)
(0.0291745 0.00871337 0)
(0.0117101 0.00833055 0)
(-0.00470041 0.00799046 0)
(-0.020037 0.00745235 0)
(-0.0345948 0.00698749 0)
(-0.0481604 0.00650851 0)
(-0.0607231 0.00598231 0)
(-0.0722931 0.00550589 0)
(-0.0828819 0.00500549 0)
(-0.0925156 0.00454845 0)
(-0.101221 0.0041006 0)
(-0.109028 0.00365384 0)
(-0.115971 0.00323761 0)
(-0.122083 0.0028345 0)
(-0.127396 0.00244161 0)
(-0.13194 0.0020668 0)
(-0.135742 0.00170068 0)
(-0.138826 0.00134564 0)
(-0.141209 0.000996466 0)
(-0.142908 0.000654006 0)
(-0.143897 0.000324149 0)
(-0.144215 -2.20566e-05 0)
(-0.14383 -0.00037218 0)
(-0.142739 -0.000733848 0)
(-0.140933 -0.00110353 0)
(-0.138387 -0.00147441 0)
(-0.135047 -0.00186512 0)
(-0.130903 -0.002292 0)
(-0.12594 -0.00269875 0)
(-0.120083 -0.00312906 0)
(-0.113298 -0.00362116 0)
(-0.105564 -0.00407829 0)
(-0.0968118 -0.00453148 0)
(-0.0870474 -0.00510593 0)
(-0.0761855 -0.0055782 0)
(-0.0642018 -0.00614751 0)
(-0.0511476 -0.00667196 0)
(-0.03698 -0.00710618 0)
(-0.0217577 -0.00764125 0)
(-0.00599237 -0.00809253 0)
(0.0103417 -0.00839791 0)
(0.0276291 -0.00880522 0)
(0.0456295 -0.00901764 0)
(0.0640803 -0.00923971 0)
(0.0828622 -0.00932144 0)
(0.101742 -0.00924067 0)
(0.12041 -0.00911912 0)
(0.138708 -0.0088714 0)
(0.15637 -0.0084483 0)
(0.173121 -0.00797252 0)
(0.188732 -0.00733057 0)
(0.202921 -0.00659485 0)
(0.215542 -0.00575152 0)
(0.226324 -0.00474514 0)
(0.234951 -0.00366995 0)
(0.241311 -0.00251436 0)
(0.245198 -0.00125298 0)
(0.246409 -3.23812e-05 0)
(0.245062 0.00131686 0)
(0.241146 0.00266605 0)
(0.234861 0.00398623 0)
(0.225959 0.00521902 0)
(0.214823 0.0063384 0)
(0.201729 0.00732967 0)
(0.186753 0.00816737 0)
(0.17034 0.00881954 0)
(0.152831 0.00927659 0)
(0.134461 0.00957505 0)
(0.115734 0.00972515 0)
(0.0969248 0.00970487 0)
(0.0778862 0.00956996 0)
(0.0593604 0.00937955 0)
(0.0410412 0.00913747 0)
(0.0231474 0.00887343 0)
(0.00558428 0.00853514 0)
(-0.0116915 0.00822306 0)
(-0.0277605 0.00785322 0)
(-0.0429405 0.00747976 0)
(-0.0573463 0.00707037 0)
(-0.0709181 0.00660122 0)
(-0.0836459 0.0061174 0)
(-0.0955041 0.00563118 0)
(-0.106397 0.0051399 0)
(-0.116232 0.00463551 0)
(-0.125062 0.00411943 0)
(-0.132916 0.00364084 0)
(-0.139744 0.00316399 0)
(-0.145651 0.00271802 0)
(-0.150715 0.00228364 0)
(-0.15494 0.001889 0)
(-0.158333 0.0015128 0)
(-0.160972 0.00114823 0)
(-0.162928 0.000773822 0)
(-0.16415 0.000413914 0)
(-0.164688 0.000137725 0)
(-0.16456 -0.000246592 0)
(-0.163747 -0.000545679 0)
(-0.162238 -0.000909418 0)
(-0.1601 -0.00122456 0)
(-0.157255 -0.00158382 0)
(-0.153753 -0.00194112 0)
(-0.149515 -0.00224737 0)
(-0.144506 -0.0026591 0)
(-0.138823 -0.00300608 0)
(-0.132321 -0.00342219 0)
(-0.125012 -0.00383118 0)
(-0.116918 -0.00423392 0)
(-0.107938 -0.00468152 0)
(-0.0980744 -0.00507339 0)
(-0.0873473 -0.00552692 0)
(-0.0757585 -0.00596281 0)
(-0.0633093 -0.00640464 0)
(-0.0499972 -0.00679114 0)
(-0.0358638 -0.0072116 0)
(-0.0209333 -0.00758572 0)
(-0.00524544 -0.00793732 0)
(0.0110824 -0.00823429 0)
(0.0279667 -0.00848898 0)
(0.0453063 -0.00868665 0)
(0.0629534 -0.00879276 0)
(0.0807295 -0.00881476 0)
(0.0984613 -0.0087335 0)
(0.115911 -0.00853413 0)
(0.132837 -0.00822768 0)
(0.149009 -0.00777364 0)
(0.164152 -0.00720118 0)
(0.177968 -0.00646809 0)
(0.190222 -0.00565081 0)
(0.200659 -0.00467558 0)
(0.209075 -0.00365819 0)
(0.215305 -0.00249426 0)
(0.219204 -0.00132803 0)
(0.220654 -0.000130476 0)
(0.219651 0.00109815 0)
(0.216077 0.00237453 0)
(0.210102 0.00354239 0)
(0.201795 0.00466376 0)
(0.191348 0.0056768 0)
(0.178898 0.00662176 0)
(0.164704 0.00740916 0)
(0.149009 0.00813072 0)
(0.132054 0.00865324 0)
(0.114139 0.00907536 0)
(0.0955433 0.00934803 0)
(0.0765523 0.0094708 0)
(0.0574165 0.0094765 0)
(0.0383896 0.00935026 0)
(0.0197223 0.00916059 0)
(0.00159684 0.00883106 0)
(-0.0158624 0.00848504 0)
(-0.0325558 0.00805542 0)
(-0.0483477 0.0075867 0)
(-0.0631209 0.00707989 0)
(-0.0768483 0.00657006 0)
(-0.0895673 0.00605586 0)
(-0.101274 0.00552336 0)
(-0.111897 0.004984 0)
(-0.121397 0.00447259 0)
(-0.129853 0.00391978 0)
(-0.137294 0.00343745 0)
(-0.143744 0.00300625 0)
(-0.149303 0.00255326 0)
(-0.154082 0.00218985 0)
(-0.158125 0.00183166 0)
(-0.161481 0.0014844 0)
(-0.164181 0.00117397 0)
(-0.166244 0.000909436 0)
(-0.167712 0.000582838 0)
(-0.168616 0.000303765 0)
(-0.168972 -4.67975e-06 0)
(-0.168676 -0.000261274 0)
(-0.167782 -0.000567221 0)
(-0.166304 -0.000896942 0)
(-0.164177 -0.00122204 0)
(-0.161414 -0.00157815 0)
(-0.157911 -0.00186182 0)
(-0.15373 -0.0022335 0)
(-0.148876 -0.0026017 0)
(-0.143276 -0.00294962 0)
(-0.136959 -0.0033403 0)
(-0.129798 -0.00374071 0)
(-0.121805 -0.00414895 0)
(-0.113001 -0.00458785 0)
(-0.103306 -0.00503262 0)
(-0.0926857 -0.00548678 0)
(-0.0811515 -0.00594223 0)
(-0.0687211 -0.00639037 0)
(-0.0554442 -0.00683509 0)
(-0.0413011 -0.00717202 0)
(-0.0264116 -0.00753003 0)
(-0.0109195 -0.00784773 0)
(0.00519551 -0.0080962 0)
(0.0217829 -0.00832644 0)
(0.0387397 -0.00848262 0)
(0.0559557 -0.00857242 0)
(0.0733102 -0.00860679 0)
(0.090621 -0.00852994 0)
(0.107681 -0.00837086 0)
(0.124322 -0.00810789 0)
(0.140349 -0.00773549 0)
(0.15547 -0.00722244 0)
(0.169419 -0.00657906 0)
(0.181951 -0.00581336 0)
(0.192774 -0.00485773 0)
(0.201605 -0.00385333 0)
(0.208233 -0.00270985 0)
(0.212518 -0.00154239 0)
(0.214364 -0.000316094 0)
(0.213794 0.000894362 0)
(0.210661 0.00214146 0)
(0.205122 0.00331718 0)
(0.197312 0.00441839 0)
(0.187341 0.00545214 0)
(0.175364 0.00638144 0)
(0.161651 0.00719411 0)
(0.146414 0.00787485 0)
(0.129936 0.00840764 0)
(0.112528 0.00881562 0)
(0.0944315 0.00909667 0)
(0.0759357 0.00923047 0)
(0.0572915 0.00923909 0)
(0.0387259 0.00914123 0)
(0.0205086 0.00891445 0)
(0.00282828 0.00861214 0)
(-0.0141535 0.00821183 0)
(-0.0302835 0.00776202 0)
(-0.0454416 0.0072845 0)
(-0.0595502 0.00675276 0)
(-0.0725989 0.00622314 0)
(-0.0846221 0.00571391 0)
(-0.0956832 0.00524344 0)
(-0.105776 0.00476744 0)
(-0.114933 0.0043351 0)
(-0.123241 0.00391751 0)
(-0.130776 0.00353455 0)
(-0.137497 0.00312321 0)
(-0.143377 0.00271572 0)
(-0.148435 0.0023004 0)
(-0.152659 0.00189718 0)
(-0.156065 0.00151768 0)
(-0.158718 0.00114283 0)
(-0.160665 0.000787223 0)
(-0.161962 0.000478835 0)
(-0.162616 0.000174986 0)
(-0.162645 -6.40336e-05 0)
(-0.162159 -0.000390322 0)
(-0.161169 -0.000649966 0)
(-0.159459 -0.000920002 0)
(-0.157294 -0.0012187 0)
(-0.154467 -0.00155437 0)
(-0.15077 -0.00188252 0)
(-0.146441 -0.00231975 0)
(-0.141187 -0.00274474 0)
(-0.134981 -0.00318301 0)
(-0.12785 -0.00376035 0)
(-0.119716 -0.00424312 0)
(-0.110469 -0.0048382 0)
(-0.100197 -0.00535728 0)
(-0.0889701 -0.00583233 0)
(-0.0767551 -0.00635342 0)
(-0.0635033 -0.00682111 0)
(-0.0495843 -0.00715754 0)
(-0.0350194 -0.00757544 0)
(-0.0204131 -0.00785248 0)
(-0.00392377 -0.00799573 0)
(0.0155852 -0.00862868 0)
(0.0356979 -0.00878957 0)
(0.0557607 -0.00891314 0)
(0.076028 -0.00899645 0)
(0.0961154 -0.00886911 0)
(0.115751 -0.00872626 0)
(0.134887 -0.00843495 0)
(0.153104 -0.00808478 0)
(0.170426 -0.00766852 0)
(0.186535 -0.00707982 0)
(0.201077 -0.00642269 0)
(0.214038 -0.00569158 0)
(0.225121 -0.0048023 0)
(0.234088 -0.00387096 0)
(0.240923 -0.00287642 0)
(0.245397 -0.00173236 0)
(0.24748 -0.000579962 0)
(0.247424 0.000639158 0)
(0.245204 0.00171579 0)
(0.240844 0.00275198 0)
(0.234262 0.00383555 0)
(0.225621 0.00475831 0)
(0.215172 0.00567625 0)
(0.202919 0.00654258 0)
(0.189156 0.00716677 0)
(0.174128 0.00779119 0)
(0.15804 0.00817419 0)
(0.141183 0.00855527 0)
(0.123658 0.00884159 0)
(0.105779 0.00888971 0)
(0.0877417 0.00894956 0)
(0.0696808 0.00893639 0)
(0.0517849 0.00870727 0)
(0.0341865 0.00854703 0)
(0.0170523 0.00819264 0)
(0.00123843 0.00786202 0)
(-0.0136032 0.00754523 0)
(-0.0281767 0.00710703 0)
(-0.0420125 0.00670897 0)
(-0.0550359 0.00628796 0)
(-0.0671919 0.00581658 0)
(-0.0784692 0.0053882 0)
(-0.0888651 0.00492959 0)
(-0.098391 0.0045106 0)
(-0.10706 0.00409405 0)
(-0.114882 0.00366604 0)
(-0.121874 0.00326322 0)
(-0.128047 0.00286212 0)
(-0.133408 0.00245576 0)
(-0.137965 0.0020602 0)
(-0.14172 0.00166379 0)
(-0.144676 0.00126466 0)
(-0.146841 0.000864881 0)
(-0.148192 0.000470925 0)
(-0.148759 8.27766e-05 0)
(-0.148526 -0.000320325 0)
(-0.147473 -0.000722292 0)
(-0.145618 -0.00111824 0)
(-0.142959 -0.00151276 0)
(-0.139502 -0.00191077 0)
(-0.135252 -0.00229835 0)
(-0.130218 -0.00269368 0)
(-0.124406 -0.00307226 0)
(-0.117824 -0.0034437 0)
(-0.110485 -0.0038321 0)
(-0.102397 -0.00419033 0)
(-0.0935743 -0.00453872 0)
(-0.084031 -0.00491779 0)
(-0.0737797 -0.00524829 0)
(-0.0628385 -0.00561783 0)
(-0.0512213 -0.00592583 0)
(-0.0389427 -0.00621614 0)
(-0.0259541 -0.00656118 0)
(-0.0111217 -0.00683206 0)
(0.00445668 -0.00711616 0)
(0.281177 0.00092749 0)
(0.278724 0.00262144 0)
(0.273715 0.00430235 0)
(0.26634 0.00593743 0)
(0.256706 0.00738593 0)
(0.245002 0.0088087 0)
(0.231405 0.00992989 0)
(0.216171 0.0110473 0)
(0.199537 0.0120172 0)
(0.181755 0.0125583 0)
(0.163119 0.0131548 0)
(0.143885 0.0135799 0)
(0.124308 0.0135692 0)
(0.104638 0.0136501 0)
(0.0851002 0.0133455 0)
(0.06589 0.0131425 0)
(0.0471698 0.0128127 0)
(0.0290812 0.0122024 0)
(0.0116143 0.0116596 0)
(-0.004804 0.0111933 0)
(-0.0201535 0.0104337 0)
(-0.0347132 0.00978265 0)
(-0.0482798 0.00911191 0)
(-0.0608406 0.00837494 0)
(-0.0724094 0.00770764 0)
(-0.0829947 0.00700708 0)
(-0.0926256 0.00636702 0)
(-0.101328 0.00573994 0)
(-0.10913 0.00511436 0)
(-0.116069 0.00453173 0)
(-0.122178 0.00396748 0)
(-0.127487 0.0034175 0)
(-0.132028 0.00289301 0)
(-0.135827 0.0023808 0)
(-0.138908 0.00188427 0)
(-0.141288 0.00139639 0)
(-0.142986 0.000917407 0)
(-0.143985 0.000452933 0)
(-0.144299 -3.5336e-05 0)
(-0.143914 -0.000521697 0)
(-0.142826 -0.00102673 0)
(-0.141021 -0.00154508 0)
(-0.138478 -0.00206349 0)
(-0.135143 -0.00260976 0)
(-0.131003 -0.00320938 0)
(-0.126043 -0.00377764 0)
(-0.12019 -0.00437939 0)
(-0.113411 -0.0050695 0)
(-0.105679 -0.00570816 0)
(-0.09693 -0.00634284 0)
(-0.0871705 -0.00714847 0)
(-0.0763054 -0.00780659 0)
(-0.0643273 -0.00860726 0)
(-0.0512722 -0.00934367 0)
(-0.0370932 -0.00994537 0)
(-0.0218687 -0.0107037 0)
(-0.00609387 -0.0113338 0)
(0.0102577 -0.0117596 0)
(0.0275583 -0.0123336 0)
(0.0455779 -0.012629 0)
(0.06405 -0.0129427 0)
(0.0828543 -0.0130577 0)
(0.101762 -0.012945 0)
(0.120457 -0.0127746 0)
(0.138782 -0.0124345 0)
(0.156476 -0.0118385 0)
(0.173256 -0.0111698 0)
(0.188899 -0.0102737 0)
(0.203113 -0.00925123 0)
(0.215766 -0.00806626 0)
(0.226583 -0.0066534 0)
(0.23523 -0.0051545 0)
(0.24161 -0.00354075 0)
(0.245527 -0.00176056 0)
(0.246744 -2.61683e-05 0)