/*--------------------------------*- C++ -*----------------------------------*\
| =========                 |                                                 |
| \\      /  F ield         | OpenFOAM: The Open Source CFD Toolbox           |
|  \\    /   O peration     | Version:  3.0.1                                 |
|   \\  /    A nd           | Web:      www.OpenFOAM.org                      |
|    \\/     M anipulation  |                                                 |
\*---------------------------------------------------------------------------*/
FoamFile
{
    version     2.0;
    format      ascii;
    class       volScalarField;
    location    "24";
    object      p_rgh;
}
// * * * * * * * * * * * * * * * * * * * * * * * * * * * * * * * * * * * * * //

dimensions      [1 -1 -2 0 0 0 0];

internalField   nonuniform List<scalar> 
22680
(
-214.549
-226.88
-237.861
-247.481
-255.759
-262.734
-268.46
-273
-276.419
-278.775
-280.121
-280.476
-279.896
-278.415
-276.027
-272.739
-268.548
-263.423
-257.34
-250.252
-242.119
-232.897
-222.556
-211.083
-198.488
-184.81
-170.114
-154.496
-138.061
-120.939
-103.245
-85.1264
-66.6937
-47.9657
-29.1361
-10.5803
7.63806
25.4421
42.6915
59.2777
75.0689
89.9585
103.836
116.614
128.212
138.576
147.665
155.462
161.959
167.164
171.092
173.764
175.201
175.425
174.448
172.605
169.719
165.817
160.912
155.026
148.171
140.366
131.624
121.977
111.486
100.21
88.224
75.5878
62.3869
48.6887
34.5811
20.1532
5.47489
-9.37401
-24.3331
-39.3358
-54.3251
-69.2288
-83.9779
-98.502
-112.737
-126.61
-140.054
-152.997
-165.372
-177.105
-188.135
-198.392
-207.813
-216.335
-223.901
-230.462
-235.982
-240.437
-243.811
-246.099
-247.297
-247.424
-246.478
-244.468
-241.403
-237.336
-232.305
-226.35
-219.51
-211.832
-203.356
-194.129
-184.201
-173.625
-162.454
-150.746
-138.558
-125.949
-112.981
-99.7092
-86.1958
-72.491
-58.6527
-44.7218
-30.7502
-16.7696
-2.82184
11.099
24.8663
38.4705
51.8678
65.0118
77.8468
90.3082
102.324
113.812
124.685
134.852
144.218
152.69
160.177
166.595
171.864
175.916
178.692
180.144
180.238
178.939
176.265
172.211
166.797
160.054
152.033
142.798
132.425
121.005
108.64
95.4412
81.5291
67.0284
52.0656
36.7664
21.254
5.64579
-9.94799
-25.4256
-40.6944
-55.6713
-70.2826
-84.4606
-98.1554
-111.32
-123.911
-135.888
-147.216
-157.867
-167.815
-177.038
-185.523
-193.257
-200.235
-206.454
-211.917
-216.63
-220.603
-223.848
-226.375
-228.198
-229.324
-229.764
-229.522
-228.602
-227.009
-224.74
-221.785
-218.157
-213.85
-208.861
-203.191
-196.837
-189.798
-182.076
-173.675
-164.604
-154.881
-144.528
-133.576
-122.068
-110.051
-97.5891
-84.7436
-71.5996
-58.231
-44.7344
-31.0384
-17.5192
-4.10438
9.11458
22.064
34.6657
46.8564
58.5732
69.7571
80.3637
90.353
99.6671
108.281
116.096
122.961
-214.63
-226.96
-237.94
-247.558
-255.833
-262.804
-268.527
-273.063
-276.479
-278.831
-280.175
-280.528
-279.947
-278.464
-276.077
-272.789
-268.6
-263.478
-257.397
-250.311
-242.181
-232.962
-222.622
-211.149
-198.552
-184.871
-170.171
-154.548
-138.106
-120.978
-103.277
-85.1504
-66.71
-47.9757
-29.1383
-10.5749
7.65108
25.4627
42.7195
59.313
75.1111
90.0073
103.891
116.674
128.276
138.643
147.735
155.533
162.03
167.235
171.162
173.833
175.269
175.492
174.516
172.668
169.781
165.877
160.971
155.083
148.225
140.417
131.673
122.021
111.527
100.246
88.2561
75.615
62.4091
48.7058
34.5932
20.1605
5.4779
-9.37508
-24.3378
-39.344
-54.3367
-69.2438
-83.9963
-98.5239
-112.762
-126.639
-140.087
-153.033
-165.411
-177.148
-188.181
-198.441
-207.865
-216.39
-223.959
-230.521
-236.043
-240.499
-243.873
-246.161
-247.359
-247.484
-246.537
-244.526
-241.459
-237.39
-232.357
-226.4
-219.559
-211.878
-203.399
-194.17
-184.24
-173.661
-162.487
-150.776
-138.585
-125.973
-113.002
-99.7274
-86.2113
-72.5039
-58.6634
-44.7305
-30.7572
-16.7746
-2.82525
11.0975
24.8667
38.473
51.8728
65.0197
77.8583
90.3238
102.344
113.837
124.716
134.888
144.261
152.738
160.231
166.654
171.928
175.984
178.762
180.217
180.313
179.016
176.339
172.284
166.868
160.121
152.096
142.856
132.478
121.052
108.679
95.4734
81.5539
67.0457
52.0756
36.7694
21.2503
5.63602
-9.96332
-25.4459
-40.7191
-55.6997
-70.3143
-84.4948
-98.1921
-111.359
-123.952
-135.93
-147.259
-157.912
-167.86
-177.085
-185.57
-193.304
-200.281
-206.5
-211.963
-216.676
-220.648
-223.892
-226.418
-228.24
-229.365
-229.805
-229.563
-228.643
-227.05
-224.78
-221.826
-218.198
-213.891
-208.903
-203.232
-196.879
-189.84
-182.117
-173.716
-164.645
-154.921
-144.566
-133.612
-122.102
-110.082
-97.6171
-84.7679
-71.6196
-58.2463
-44.7444
-31.0465
-17.522
-4.10231
9.12106
22.0746
34.6802
46.8744
58.5947
69.7815
80.3914
90.3811
99.7075
108.327
116.103
122.904
-214.793
-227.122
-238.098
-247.712
-255.981
-262.945
-268.66
-273.188
-276.597
-278.943
-280.281
-280.632
-280.047
-278.564
-276.177
-272.891
-268.705
-263.586
-257.51
-250.43
-242.305
-233.09
-222.754
-211.281
-198.681
-184.994
-170.286
-154.652
-138.198
-121.055
-103.34
-85.1985
-66.7428
-47.9957
-29.1427
-10.5639
7.6771
25.5038
42.7754
59.3836
75.1956
90.1049
104.001
116.794
128.404
138.778
147.874
155.674
162.173
167.377
171.304
173.973
175.407
175.627
174.651
172.795
169.906
165.999
161.089
155.196
148.334
140.52
131.77
122.111
111.609
100.32
88.3203
75.6695
62.4536
48.74
34.6174
20.1754
5.48395
-9.37718
-24.3471
-39.3603
-54.3598
-69.2738
-84.0331
-98.5674
-112.813
-126.696
-140.151
-153.104
-165.489
-177.233
-188.272
-198.539
-207.969
-216.499
-224.073
-230.639
-236.163
-240.621
-243.996
-246.283
-247.481
-247.605
-246.654
-244.639
-241.569
-237.496
-232.459
-226.498
-219.652
-211.967
-203.484
-194.25
-184.313
-173.729
-162.549
-150.832
-138.635
-126.017
-113.04
-99.7592
-86.2377
-72.525
-58.68
-44.743
-30.7662
-16.78
-2.82713
11.0995
24.8726
38.4831
51.8878
65.0406
77.8863
90.3601
102.39
113.894
124.784
134.967
144.351
152.84
160.344
166.777
172.061
176.125
178.909
180.368
180.467
179.175
176.492
172.435
167.015
160.262
152.229
142.979
132.589
121.151
108.765
95.5441
81.6097
67.0866
52.1018
36.7815
21.2493
5.62277
-9.98766
-25.4802
-40.762
-55.7503
-70.3714
-84.5569
-98.2591
-111.43
-124.026
-136.008
-147.34
-157.995
-167.945
-177.171
-185.657
-193.391
-200.369
-206.587
-212.049
-216.76
-220.731
-223.974
-226.499
-228.319
-229.443
-229.882
-229.639
-228.719
-227.126
-224.855
-221.902
-218.274
-213.967
-208.979
-203.31
-196.956
-189.917
-182.195
-173.793
-164.721
-154.995
-144.637
-133.68
-122.165
-110.14
-97.6678
-84.811
-71.6544
-58.2716
-44.7593
-31.0575
-17.5223
-4.09307
9.13905
22.1008
34.7141
46.9154
58.6424
69.8351
80.4516
90.4441
99.7688
108.403
116.131
122.906
-215.036
-227.364
-238.336
-247.943
-256.202
-263.156
-268.86
-273.377
-276.775
-279.11
-280.442
-280.787
-280.198
-278.713
-276.327
-273.043
-268.861
-263.749
-257.68
-250.609
-242.492
-233.284
-222.951
-211.478
-198.874
-185.179
-170.458
-154.807
-138.334
-121.171
-103.434
-85.2706
-66.7919
-48.0256
-29.1493
-10.5476
7.71613
25.5655
42.8594
59.4895
75.3224
90.2515
104.165
116.973
128.597
138.98
148.083
155.887
162.387
167.591
171.515
174.182
175.613
175.83
174.853
172.988
170.093
166.181
161.265
155.366
148.497
140.675
131.915
122.245
111.732
100.43
88.4167
75.7513
62.5202
48.7913
34.6538
20.1975
5.49294
-9.38037
-24.3612
-39.3849
-54.3944
-69.3187
-84.0882
-98.6328
-112.888
-126.782
-140.247
-153.211
-165.606
-177.36
-188.41
-198.685
-208.125
-216.663
-224.244
-230.816
-236.344
-240.804
-244.18
-246.467
-247.664
-247.785
-246.83
-244.81
-241.734
-237.655
-232.612
-226.646
-219.793
-212.101
-203.611
-194.369
-184.424
-173.831
-162.643
-150.916
-138.71
-126.082
-113.096
-99.8069
-86.2771
-72.5567
-58.7047
-44.7617
-30.7796
-16.788
-2.82992
11.1029
24.8815
38.4983
51.9104
65.0721
77.9285
90.4147
102.459
113.978
124.885
135.086
144.487
152.994
160.515
166.963
172.26
176.336
179.13
180.596
180.698
179.411
176.724
172.664
167.236
160.474
152.429
143.164
132.757
121.299
108.893
95.6504
81.6936
67.1481
52.1414
36.8
21.2479
5.60307
-10.024
-25.5314
-40.8263
-55.8259
-70.4568
-84.6499
-98.3594
-111.537
-124.139
-136.125
-147.462
-158.119
-168.073
-177.301
-185.788
-193.523
-200.5
-206.717
-212.177
-216.887
-220.856
-224.096
-226.619
-228.437
-229.559
-229.997
-229.754
-228.833
-227.24
-224.968
-222.016
-218.388
-214.082
-209.094
-203.425
-197.072
-190.034
-182.311
-173.909
-164.834
-155.106
-144.744
-133.781
-122.259
-110.225
-97.7436
-84.8756
-71.7063
-58.3094
-44.7817
-31.0732
-17.5224
-4.07892
9.16636
22.1405
34.7652
46.9771
58.7141
69.9157
80.5419
90.5406
99.8699
108.495
116.235
123.018
-215.362
-227.686
-238.653
-248.25
-256.498
-263.437
-269.126
-273.629
-277.012
-279.334
-280.655
-280.993
-280.399
-278.912
-276.526
-273.246
-269.07
-263.966
-257.907
-250.847
-242.741
-233.542
-223.215
-211.743
-199.133
-185.425
-170.687
-155.015
-138.517
-121.326
-103.56
-85.3669
-66.8575
-48.0654
-29.1581
-10.5257
7.76816
25.6478
42.9714
59.6308
75.4916
90.447
104.384
117.213
128.854
139.25
148.362
156.171
162.672
167.876
171.798
174.461
175.887
176.1
175.119
173.246
170.343
166.424
161.501
155.593
148.714
140.881
132.108
122.424
111.895
100.576
88.5452
75.8604
62.6091
48.8596
34.7021
20.2269
5.50479
-9.3847
-24.3801
-39.4176
-54.4406
-69.3785
-84.1618
-98.72
-112.989
-126.896
-140.375
-153.353
-165.762
-177.53
-188.592
-198.881
-208.332
-216.882
-224.472
-231.052
-236.585
-241.048
-244.425
-246.712
-247.907
-248.025
-247.065
-245.039
-241.954
-237.867
-232.817
-226.842
-219.981
-212.28
-203.78
-194.527
-184.572
-173.968
-162.767
-151.028
-138.81
-126.17
-113.172
-99.8705
-86.3296
-72.5989
-58.7376
-44.7866
-30.7974
-16.7992
-2.834
11.1074
24.8933
38.5184
51.9403
65.1139
77.9845
90.4873
102.55
114.09
125.019
135.243
144.668
153.198
160.741
167.211
172.526
176.618
179.425
180.9
181.007
179.722
177.035
172.969
167.531
160.756
152.695
143.41
132.981
121.498
109.063
95.792
81.8054
67.23
52.1939
36.8243
21.2458
5.5765
-10.0728
-25.5999
-40.9123
-55.9271
-70.5708
-84.7741
-98.4933
-111.679
-124.288
-136.281
-147.623
-158.286
-168.243
-177.474
-185.962
-193.698
-200.675
-206.891
-212.349
-217.056
-221.022
-224.259
-226.779
-228.594
-229.714
-230.15
-229.906
-228.985
-227.392
-225.12
-222.169
-218.54
-214.235
-209.248
-203.579
-197.227
-190.189
-182.467
-174.063
-164.986
-155.254
-144.887
-133.916
-122.385
-110.34
-97.8448
-84.9619
-71.7759
-58.3601
-44.8122
-31.0937
-17.5225
-4.06011
9.20276
22.1933
34.8334
47.0594
58.8099
70.0232
80.6623
90.6693
100.007
108.616
116.39
123.2
-215.769
-228.091
-239.05
-248.636
-256.868
-263.789
-269.459
-273.943
-277.307
-279.614
-280.921
-281.25
-280.65
-279.161
-276.775
-273.499
-269.33
-264.236
-258.191
-251.145
-243.053
-233.865
-223.546
-212.074
-199.457
-185.734
-170.974
-155.275
-138.745
-121.52
-103.718
-85.4873
-66.9397
-48.1152
-29.1691
-10.4984
7.83319
25.7507
43.1115
59.8075
75.7032
90.6916
104.659
117.514
129.175
139.588
148.711
156.526
163.029
168.232
172.151
174.81
176.231
176.439
175.452
173.569
170.656
166.728
161.795
155.877
148.986
141.139
132.35
122.648
112.1
100.76
88.706
75.9967
62.7201
48.9449
34.7623
20.2634
5.51937
-9.39027
-24.404
-39.4586
-54.4983
-69.4533
-84.2538
-98.829
-113.115
-127.04
-140.536
-153.531
-165.957
-177.742
-188.821
-199.126
-208.592
-217.156
-224.758
-231.347
-236.887
-241.354
-244.732
-247.018
-248.211
-248.325
-247.361
-245.324
-242.23
-238.133
-233.072
-227.088
-220.216
-212.504
-203.991
-194.726
-184.757
-174.138
-162.923
-151.169
-138.935
-126.28
-113.266
-99.9501
-86.3952
-72.6517
-58.7788
-44.8177
-30.8196
-16.8133
-2.83974
11.1131
24.9079
38.5432
51.9773
65.1657
78.0541
90.5776
102.664
114.23
125.187
135.441
144.895
153.454
161.025
167.52
172.859
176.97
179.793
181.279
181.394
180.112
177.425
173.35
167.9
161.109
153.028
143.719
133.26
121.745
109.277
95.969
81.945
67.3322
52.2592
36.8545
21.2428
5.54288
-10.1341
-25.686
-41.0202
-56.0539
-70.7137
-84.9296
-98.6609
-111.858
-124.476
-136.477
-147.826
-158.494
-168.456
-177.69
-186.181
-193.917
-200.894
-207.109
-212.564
-217.268
-221.23
-224.463
-226.979
-228.791
-229.908
-230.342
-230.096
-229.175
-227.581
-225.309
-222.359
-218.731
-214.426
-209.44
-203.772
-197.421
-190.384
-182.661
-174.256
-165.177
-155.44
-145.066
-134.086
-122.543
-110.483
-97.9717
-85.0701
-71.8631
-58.4239
-44.8509
-31.1192
-17.5224
-4.03664
9.24825
22.2593
34.9185
47.1624
58.9294
70.1575
80.8125
90.8309
100.179
108.786
116.583
123.418
-216.258
-228.576
-239.526
-249.099
-257.312
-264.212
-269.859
-274.32
-277.662
-279.949
-281.239
-281.558
-280.951
-279.459
-277.074
-273.802
-269.642
-264.561
-258.531
-251.502
-243.427
-234.254
-223.943
-212.472
-199.846
-186.106
-171.32
-155.588
-139.02
-121.753
-103.908
-85.6321
-67.0387
-48.1748
-29.1821
-10.4657
7.91121
25.8742
43.2796
60.0196
75.9574
90.9854
104.989
117.875
129.562
139.994
149.13
156.952
163.458
168.66
172.575
175.228
176.644
176.845
175.851
173.956
171.032
167.093
162.149
156.218
149.313
141.449
132.641
122.918
112.346
100.981
88.899
76.1603
62.8532
49.0471
34.8343
20.307
5.53653
-9.39719
-24.4328
-39.508
-54.5677
-69.5431
-84.3642
-98.9598
-113.267
-127.212
-140.729
-153.744
-166.191
-177.996
-189.096
-199.42
-208.905
-217.485
-225.101
-231.701
-237.249
-241.721
-245.1
-247.385
-248.575
-248.685
-247.716
-245.667
-242.56
-238.451
-233.379
-227.382
-220.498
-212.772
-204.245
-194.965
-184.979
-174.343
-163.11
-151.338
-139.085
-126.411
-113.379
-100.046
-86.4739
-72.7151
-58.8282
-44.8547
-30.8459
-16.8303
-2.84726
11.12
24.9255
38.5727
52.0213
65.2274
78.1371
90.6856
102.8
114.398
125.388
135.677
145.167
153.761
161.365
167.892
173.258
177.393
180.236
181.736
181.858
180.58
177.891
173.808
168.344
161.534
153.427
144.089
133.596
122.043
109.533
96.1813
82.1124
67.4545
52.3373
36.8902
21.2387
5.50206
-10.2082
-25.7898
-41.1501
-56.2065
-70.8855
-85.1166
-98.8623
-112.072
-124.701
-136.711
-148.069
-158.744
-168.711
-177.95
-186.443
-194.181
-201.157
-207.37
-212.823
-217.523
-221.48
-224.708
-227.219
-229.027
-230.141
-230.572
-230.325
-229.403
-227.809
-225.537
-222.587
-218.96
-214.655
-209.67
-204.004
-197.653
-190.617
-182.895
-174.488
-165.406
-155.663
-145.28
-134.29
-122.733
-110.656
-98.1243
-85.2002
-71.968
-58.501
-44.8977
-31.1497
-17.5221
-4.00841
9.30292
22.3385
35.0209
47.2859
59.0728
70.3187
80.9919
91.0248
100.387
108.996
116.807
123.66
-216.829
-229.143
-240.084
-249.639
-257.831
-264.706
-270.326
-274.759
-278.077
-280.341
-281.61
-281.916
-281.302
-279.806
-277.421
-274.156
-270.005
-264.939
-258.927
-251.919
-243.864
-234.708
-224.407
-212.937
-200.302
-186.541
-171.724
-155.953
-139.341
-122.026
-104.129
-85.8013
-67.155
-48.2438
-29.1972
-10.4275
8.00219
26.0182
43.4758
60.2672
76.2541
91.3286
105.374
118.296
130.013
140.468
149.619
157.45
163.959
169.159
173.07
175.717
177.125
177.318
176.317
174.407
171.471
167.519
162.562
156.616
149.694
141.81
132.98
123.232
112.633
101.238
89.1243
76.3513
63.0084
49.1661
34.918
20.3573
5.55609
-9.40563
-24.4667
-39.5657
-54.6486
-69.6481
-84.4931
-99.1125
-113.443
-127.412
-140.953
-153.993
-166.464
-178.293
-189.416
-199.763
-209.269
-217.869
-225.502
-232.115
-237.672
-242.149
-245.531
-247.814
-249.001
-249.105
-248.132
-246.066
-242.946
-238.823
-233.737
-227.726
-220.827
-213.085
-204.542
-195.243
-185.239
-174.583
-163.329
-151.535
-139.26
-126.564
-113.511
-100.157
-86.5656
-72.7888
-58.8856
-44.8976
-30.8764
-16.8503
-2.85714
11.1287
24.9457
38.6065
52.072
65.2988
78.2332
90.8109
102.959
114.593
125.623
135.952
145.484
154.119
161.763
168.325
173.725
177.888
180.752
182.269
182.402
181.126
178.436
174.342
168.862
162.029
153.894
144.521
133.989
122.39
109.832
96.4291
82.3076
67.5969
52.428
36.9314
21.2333
5.45383
-10.2953
-25.9115
-41.3022
-56.385
-71.0864
-85.3351
-99.0975
-112.322
-124.964
-136.986
-148.353
-159.036
-169.01
-178.253
-186.75
-194.489
-201.464
-207.675
-213.124
-217.82
-221.771
-224.994
-227.5
-229.302
-230.412
-230.84
-230.592
-229.669
-228.074
-225.802
-222.853
-219.227
-214.923
-209.939
-204.274
-197.925
-190.89
-183.167
-174.759
-165.673
-155.924
-145.532
-134.528
-122.955
-110.858
-98.3029
-85.3523
-72.0908
-58.5917
-44.9528
-31.1849
-17.5216
-3.9753
9.36682
22.4312
35.1406
47.4302
59.24
70.5067
81.2006
91.2514
100.629
109.244
117.065
123.926
-217.483
-229.793
-240.721
-250.258
-258.425
-265.27
-270.859
-275.262
-278.55
-280.788
-282.033
-282.325
-281.702
-280.201
-277.818
-274.559
-270.42
-265.371
-259.38
-252.395
-244.363
-235.227
-224.94
-213.472
-200.825
-187.04
-172.187
-156.372
-139.709
-122.338
-104.383
-85.9951
-67.2889
-48.3222
-29.2142
-10.3839
8.1061
26.1827
43.7001
60.5504
76.5937
91.7215
105.815
118.779
130.531
141.011
150.179
158.02
164.532
169.731
173.636
176.276
177.676
177.86
176.849
174.923
171.972
168.007
163.034
157.072
150.13
142.224
133.368
123.591
112.961
101.532
89.382
76.5697
63.1858
49.3018
35.0132
20.4143
5.57784
-9.41574
-24.5059
-39.6318
-54.7413
-69.7681
-84.6406
-99.2871
-113.645
-127.642
-141.21
-154.278
-166.776
-178.633
-189.783
-200.156
-209.686
-218.308
-225.961
-232.589
-238.157
-242.64
-246.023
-248.304
-249.487
-249.585
-248.607
-246.524
-243.386
-239.248
-234.146
-228.12
-221.204
-213.444
-204.881
-195.562
-185.535
-174.856
-163.579
-151.76
-139.46
-126.74
-113.662
-100.284
-86.6701
-72.8728
-58.9509
-44.9463
-30.911
-16.8731
-2.86901
11.1387
24.9686
38.6446
52.1293
65.3795
78.3424
90.9533
103.139
114.815
125.89
136.267
145.846
154.528
162.217
168.821
174.258
178.453
181.344
182.879
183.023
181.752
179.059
174.954
169.455
162.597
154.429
145.016
134.438
122.788
110.173
96.7123
82.5305
67.7593
52.5312
36.9779
21.2265
5.39791
-10.3956
-26.0513
-41.4768
-56.5899
-71.3167
-85.5851
-99.3665
-112.608
-125.265
-137.299
-148.677
-159.37
-169.351
-178.6
-187.1
-194.84
-201.815
-208.023
-213.469
-218.159
-222.105
-225.321
-227.82
-229.617
-230.722
-231.147
-230.896
-229.973
-228.378
-226.106
-223.157
-219.531
-215.229
-210.246
-204.583
-198.235
-191.201
-183.479
-175.07
-165.979
-156.222
-145.819
-134.801
-123.209
-111.089
-98.5077
-85.5266
-72.2316
-58.6961
-45.0171
-31.2242
-17.5205
-3.93724
9.44006
22.5374
35.2777
47.5954
59.4311
70.7218
81.4384
91.51
100.905
109.529
117.36
124.217
-218.219
-230.525
-241.44
-250.956
-259.094
-265.905
-271.458
-275.826
-279.083
-281.291
-282.51
-282.785
-282.152
-280.646
-278.263
-275.012
-270.886
-265.856
-259.889
-252.931
-244.926
-235.813
-225.541
-214.075
-201.416
-187.604
-172.711
-156.845
-140.124
-122.69
-104.669
-86.2136
-67.4401
-48.4102
-29.2334
-10.3349
8.22292
26.3679
43.9524
60.8693
76.9761
92.1641
106.312
119.323
131.113
141.623
150.811
158.662
165.178
170.374
174.274
176.905
178.296
178.47
177.448
175.504
172.537
168.556
163.566
157.585
150.62
142.69
133.806
123.996
113.331
101.864
89.6723
76.8154
63.3852
49.4541
35.1196
20.4777
5.60155
-9.42774
-24.5506
-39.7064
-54.8459
-69.9034
-84.8066
-99.4836
-113.872
-127.9
-141.499
-154.598
-167.127
-179.016
-190.196
-200.598
-210.156
-218.803
-226.477
-233.123
-238.703
-243.192
-246.577
-248.856
-250.034
-250.125
-249.141
-247.038
-243.882
-239.726
-234.606
-228.562
-221.628
-213.847
-205.263
-195.92
-185.869
-175.164
-163.86
-152.013
-139.685
-126.937
-113.831
-100.427
-86.7875
-72.9669
-59.024
-45.0009
-30.9496
-16.8988
-2.88297
11.15
24.9939
38.6866
52.1927
65.4693
78.464
91.1125
103.341
115.064
126.19
136.62
146.253
154.988
162.728
169.38
174.859
179.09
182.01
183.567
183.724
182.458
179.761
175.643
170.123
163.236
155.031
145.573
134.943
123.236
110.559
97.031
82.7811
67.9416
52.6468
37.0295
21.2179
5.334
-10.5095
-26.2096
-41.6742
-56.8213
-71.5768
-85.8666
-99.6697
-112.93
-125.603
-137.652
-149.043
-159.746
-169.736
-178.991
-187.495
-195.237
-202.211
-208.416
-213.857
-218.541
-222.48
-225.688
-228.18
-229.971
-231.071
-231.492
-231.238
-230.315
-228.719
-226.448
-223.5
-219.875
-215.573
-210.592
-204.93
-198.585
-191.552
-183.831
-175.419
-166.324
-156.559
-146.144
-135.109
-123.495
-111.35
-98.7389
-85.7235
-72.3907
-58.8145
-45.0922
-31.2659
-17.5187
-3.89414
9.52269
22.6572
35.4322
47.7816
59.6461
70.9636
81.7051
91.8005
101.216
109.852
117.688
124.537
-219.039
-231.339
-242.241
-251.732
-259.838
-266.612
-272.125
-276.454
-279.674
-281.85
-283.039
-283.295
-282.65
-281.138
-278.757
-275.514
-271.403
-266.394
-260.454
-253.526
-245.553
-236.466
-226.211
-214.748
-202.076
-188.232
-173.294
-157.372
-140.586
-123.082
-104.987
-86.457
-67.6085
-48.508
-29.2546
-10.2806
8.3526
26.5735
44.233
61.2238
77.4017
92.6568
106.865
119.929
131.763
142.304
151.514
159.377
165.896
171.089
174.982
177.604
178.984
179.148
178.112
176.15
173.165
169.166
164.158
158.155
151.166
143.208
134.292
124.447
113.743
102.233
89.9951
77.0886
63.6065
49.6228
35.2371
20.5472
5.62693
-9.44188
-24.6007
-39.7894
-54.9623
-70.0539
-84.9912
-99.7019
-114.125
-128.186
-141.821
-154.954
-167.518
-179.441
-190.655
-201.09
-210.678
-219.353
-227.052
-233.717
-239.31
-243.807
-247.193
-249.47
-250.642
-250.726
-249.735
-247.609
-244.432
-240.256
-235.118
-229.054
-222.099
-214.296
-205.687
-196.319
-186.24
-175.507
-164.172
-152.295
-139.936
-127.156
-114.019
-100.585
-86.9176
-73.0709
-59.1047
-45.0611
-30.9923
-16.9271
-2.89924
11.1627
25.0215
38.7323
52.2621
65.5679
78.598
91.2881
103.564
115.34
126.523
137.012
146.705
155.5
163.297
170.001
175.528
179.799
182.751
184.332
184.504
183.243
180.542
176.411
170.867
163.947
155.701
146.194
135.506
123.734
110.987
97.3852
83.0593
68.1437
52.7744
37.0858
21.2073
5.26177
-10.6373
-26.3867
-41.8946
-57.0794
-71.8674
-86.1796
-100.007
-113.288
-125.98
-138.045
-149.449
-160.164
-170.164
-179.426
-187.934
-195.677
-202.65
-208.853
-214.288
-218.966
-222.897
-226.097
-228.581
-230.363
-231.458
-231.874
-231.618
-230.695
-229.098
-226.827
-223.88
-220.256
-215.955
-210.976
-205.316
-198.973
-191.943
-184.222
-175.808
-166.708
-156.934
-146.505
-135.452
-123.815
-111.642
-98.9966
-85.9432
-72.5681
-58.9472
-45.1787
-31.3096
-17.5162
-3.84593
9.61485
22.7907
35.6044
47.9889
59.8851
71.2321
82.0006
92.1224
101.559
110.212
118.05
124.887
-219.943
-232.238
-243.124
-252.589
-260.658
-267.389
-272.858
-277.143
-280.323
-282.464
-283.62
-283.856
-283.197
-281.679
-279.299
-276.064
-271.97
-266.985
-261.075
-254.181
-246.242
-237.187
-226.951
-215.493
-202.805
-188.927
-173.939
-157.954
-141.096
-123.514
-105.338
-86.7253
-67.7942
-48.6159
-29.2779
-10.221
8.4951
26.7997
44.5417
61.6142
77.8704
93.1998
107.475
120.597
132.478
143.056
152.289
160.165
166.687
171.877
175.762
178.374
179.742
179.893
178.843
176.86
173.857
169.839
164.81
158.783
151.768
143.779
134.828
124.943
114.196
102.64
90.3507
77.3893
63.8499
49.8078
35.3655
20.6225
5.65368
-9.45843
-24.6565
-39.8812
-55.0904
-70.2199
-85.1945
-99.9423
-114.402
-128.502
-142.174
-155.346
-167.948
-179.909
-191.16
-201.631
-211.254
-219.96
-227.686
-234.372
-239.98
-244.484
-247.872
-250.146
-251.311
-251.386
-250.387
-248.237
-245.037
-240.84
-235.681
-229.596
-222.617
-214.79
-206.154
-196.757
-186.649
-175.884
-164.516
-152.605
-140.211
-127.397
-114.226
-100.759
-87.0604
-73.1848
-59.1928
-45.1269
-31.0389
-16.9581
-2.91814
11.1771
25.0511
38.7814
52.3369
65.6747
78.7436
91.4797
103.808
115.643
126.888
137.443
147.203
156.063
163.923
170.686
176.264
180.581
183.569
185.176
185.363
184.108
181.403
177.256
171.687
164.732
156.44
146.878
136.127
124.283
111.458
97.7749
83.3651
68.3654
52.9138
37.1465
21.1941
5.18085
-10.7793
-26.583
-42.1384
-57.3647
-72.1889
-86.5239
-100.378
-113.683
-126.395
-138.477
-149.897
-160.625
-170.635
-179.905
-188.418
-196.163
-203.135
-209.333
-214.763
-219.433
-223.355
-226.546
-229.021
-230.795
-231.883
-232.295
-232.036
-231.113
-229.515
-227.244
-224.298
-220.675
-216.376
-211.398
-205.741
-199.401
-192.372
-184.652
-176.237
-167.131
-157.347
-146.903
-135.83
-124.168
-111.963
-99.2813
-86.186
-72.7643
-59.0941
-45.2751
-31.3569
-17.5129
-3.79256
9.71668
22.9381
35.7944
48.2175
60.1483
71.5274
82.3245
92.4757
101.936
110.605
118.445
125.265
-220.931
-233.221
-244.089
-253.525
-261.554
-268.238
-273.658
-277.895
-281.031
-283.133
-284.254
-284.466
-283.793
-282.267
-279.888
-276.663
-272.587
-267.628
-261.751
-254.896
-246.996
-237.975
-227.762
-216.309
-203.605
-189.69
-174.645
-158.592
-141.655
-123.987
-105.721
-87.0188
-67.9972
-48.734
-29.3035
-10.1562
8.65034
27.0463
44.8785
62.0405
78.3826
93.7934
108.143
121.328
133.262
143.878
153.137
161.026
167.552
172.738
176.614
179.214
180.57
180.706
179.641
177.635
174.612
170.574
165.522
159.47
152.425
144.402
135.413
125.485
114.691
103.084
90.7391
77.7175
64.1151
50.009
35.5044
20.7033
5.68143
-9.47776
-24.7181
-39.9819
-55.2303
-70.4013
-85.4165
-100.205
-114.705
-128.846
-142.56
-155.773
-168.417
-180.419
-191.711
-202.222
-211.883
-220.623
-228.378
-235.088
-240.711
-245.225
-248.615
-250.884
-252.041
-252.106
-251.1
-248.922
-245.696
-241.477
-236.295
-230.187
-223.184
-215.329
-206.664
-197.236
-187.095
-176.295
-164.891
-152.943
-140.512
-127.659
-114.451
-100.948
-87.2155
-73.3085
-59.2882
-45.1979
-31.0889
-16.9917
-2.94056
11.1939
25.0822
38.8335
52.4168
65.7894
78.9007
91.6868
104.073
115.971
127.286
137.912
147.745
156.678
164.606
171.433
177.069
181.434
184.462
186.098
186.303
185.054
182.345
178.181
172.584
165.589
157.248
147.626
136.805
124.883
111.973
98.2004
83.6984
68.6065
53.0649
37.2112
21.1781
5.09076
-10.9361
-26.7989
-42.406
-57.6775
-72.5416
-86.8999
-100.784
-114.115
-126.848
-138.95
-150.386
-161.128
-171.149
-180.428
-188.946
-196.693
-203.664
-209.858
-215.282
-219.943
-223.856
-227.036
-229.501
-231.266
-232.347
-232.753
-232.492
-231.568
-229.97
-227.7
-224.754
-221.132
-216.834
-211.859
-206.204
-199.867
-192.842
-185.122
-176.705
-167.594
-157.799
-147.339
-136.244
-124.554
-112.316
-99.5931
-86.4521
-72.9796
-59.2552
-45.3805
-31.4089
-17.5091
-3.73393
9.82828
23.0996
36.0024
48.4677
60.4359
71.8495
82.6767
92.8601
102.345
111.03
118.879
125.668
-222.004
-234.288
-245.138
-254.542
-262.527
-269.159
-274.524
-278.709
-281.797
-283.857
-284.94
-285.126
-284.437
-282.903
-280.525
-277.31
-273.253
-268.323
-262.483
-255.67
-247.814
-238.832
-228.645
-217.199
-204.477
-190.52
-175.415
-159.286
-142.263
-124.501
-106.138
-87.3373
-68.2177
-48.8622
-29.3314
-10.0864
8.81825
27.3133
45.2435
62.5028
78.9385
94.438
108.867
122.123
134.113
144.771
154.057
161.961
168.49
173.671
177.538
180.125
181.466
181.587
180.504
178.476
175.431
171.371
166.295
160.215
153.137
145.078
136.047
126.073
115.229
103.566
91.1606
78.0734
64.4021
50.226
35.6535
20.789
5.70981
-9.50026
-24.7859
-40.0917
-55.3816
-70.5984
-85.6573
-100.489
-115.034
-129.219
-142.978
-156.236
-168.925
-180.973
-192.309
-202.863
-212.565
-221.343
-229.131
-235.865
-241.506
-246.029
-249.421
-251.684
-252.831
-252.887
-251.873
-249.663
-246.411
-242.167
-236.961
-230.827
-223.797
-215.913
-207.217
-197.756
-187.579
-176.741
-165.299
-153.31
-140.837
-127.944
-114.695
-101.153
-87.3829
-73.4418
-59.3909
-45.2739
-31.1422
-17.0275
-2.96716
11.2133
25.1145
38.888
52.5014
65.9115
79.0684
91.909
104.358
116.326
127.715
138.42
148.332
157.343
165.347
172.244
177.943
182.361
185.432
187.099
187.324
186.082
183.366
179.185
173.557
166.521
158.125
148.438
137.541
125.535
112.532
98.6614
84.0591
68.8669
53.2271
37.2797
21.1589
4.99101
-11.1082
-27.0349
-42.6977
-58.0181
-72.9261
-87.3074
-101.225
-114.583
-127.34
-139.462
-150.916
-161.674
-171.708
-180.995
-189.519
-197.268
-204.237
-210.428
-215.844
-220.497
-224.398
-227.567
-230.02
-231.776
-232.848
-233.25
-232.985
-232.061
-230.463
-228.193
-225.249
-221.628
-217.331
-212.358
-206.706
-200.373
-193.35
-185.633
-177.214
-168.097
-158.291
-147.813
-136.695
-124.974
-112.699
-99.9327
-86.742
-73.2142
-59.4306
-45.4949
-31.4656
-17.5046
-3.66994
9.94977
23.2753
36.2287
48.7396
60.7482
72.1983
83.0571
93.2746
102.785
111.487
119.344
126.099
-223.162
-235.441
-246.272
-255.64
-263.576
-270.152
-275.457
-279.585
-282.621
-284.636
-285.679
-285.835
-285.129
-283.585
-281.207
-278.004
-273.969
-269.07
-263.27
-256.504
-248.696
-239.758
-229.602
-218.163
-205.423
-191.421
-176.248
-160.037
-142.92
-125.057
-106.587
-87.6811
-68.456
-49.0008
-29.3616
-10.0115
8.99874
27.6007
45.6368
63.0011
79.5381
95.1339
109.65
122.981
135.033
145.736
155.052
162.97
169.503
174.678
178.533
181.107
182.432
182.536
181.435
179.382
176.314
172.23
167.128
161.018
153.906
145.807
136.731
126.707
115.809
104.086
91.6153
78.4569
64.7109
50.4587
35.8124
20.8794
5.73839
-9.52635
-24.8601
-40.2105
-55.5446
-70.8113
-85.917
-100.795
-115.388
-129.621
-143.428
-156.735
-169.473
-181.569
-192.954
-203.555
-213.301
-222.119
-229.942
-236.704
-242.364
-246.897
-250.29
-252.547
-253.683
-253.728
-252.707
-250.461
-247.18
-242.91
-237.679
-231.518
-224.459
-216.543
-207.814
-198.316
-188.1
-177.222
-165.737
-153.705
-141.188
-128.25
-114.957
-101.372
-87.5624
-73.5845
-59.5005
-45.3549
-31.1987
-17.0649
-2.99854
11.2359
25.1472
38.9447
52.5901
66.0403
79.2465
92.1456
104.662
116.705
128.175
138.966
148.964
158.061
166.146
173.119
178.885
183.362
186.479
188.18
188.426
187.191
184.47
180.268
174.608
167.526
159.073
149.315
138.336
126.237
113.135
99.1581
84.4472
69.1462
53.4003
37.3515
21.1359
4.88112
-11.296
-27.2914
-43.0142
-58.3868
-73.3446
-87.7447
-101.702
-115.089
-127.871
-140.014
-151.488
-162.262
-172.31
-181.607
-190.138
-197.889
-204.856
-211.042
-216.45
-221.093
-224.982
-228.139
-230.58
-232.325
-233.388
-233.784
-233.516
-232.591
-230.993
-228.724
-225.781
-222.161
-217.866
-212.895
-207.247
-200.917
-193.899
-186.183
-177.763
-168.64
-158.821
-148.326
-137.182
-125.429
-113.114
-100.3
-87.0558
-73.4683
-59.6208
-45.6184
-31.5271
-17.4995
-3.60052
10.0813
23.4654
36.4734
49.0337
61.0853
72.5739
83.4662
93.7186
103.257
111.974
119.837
126.563
-224.407
-236.681
-247.491
-256.82
-264.703
-271.217
-276.457
-280.522
-283.502
-285.469
-286.469
-286.594
-285.868
-284.314
-281.936
-278.745
-274.732
-269.868
-264.111
-257.396
-249.643
-240.754
-230.632
-219.204
-206.444
-192.392
-177.145
-160.845
-143.628
-125.654
-107.07
-88.0502
-68.7122
-49.1494
-29.3942
-9.93183
9.19171
27.9085
46.0582
63.5355
80.1819
95.8816
110.492
123.904
136.022
146.773
156.12
164.054