/*--------------------------------*- C++ -*----------------------------------*\
| =========                 |                                                 |
| \\      /  F ield         | OpenFOAM: The Open Source CFD Toolbox           |
|  \\    /   O peration     | Version:  3.0.1                                 |
|   \\  /    A nd           | Web:      www.OpenFOAM.org                      |
|    \\/     M anipulation  |                                                 |
\*---------------------------------------------------------------------------*/
FoamFile
{
    version     2.0;
    format      ascii;
    class       volScalarField;
    location    "15.4";
    object      p_rgh;
}
// * * * * * * * * * * * * * * * * * * * * * * * * * * * * * * * * * * * * * //

dimensions      [1 -1 -2 0 0 0 0];

internalField   nonuniform List<scalar> 
21420
(
-258.596
-241.708
-222.979
-202.435
-180.11
-156.003
-130.156
-102.65
-73.5785
-43.0785
-11.3383
21.3608
54.9416
89.0717
123.409
157.562
191.128
223.744
254.989
284.437
311.723
336.453
358.243
376.781
391.783
403.015
410.309
413.485
411.874
406.165
396.515
382.98
365.778
345.17
321.441
294.924
266.022
235.125
202.643
169.019
134.659
99.9572
65.2835
31.1694
-1.1512
-33.3059
-64.3791
-94.107
-122.309
-148.851
-173.65
-196.653
-217.837
-237.202
-254.759
-270.54
-284.582
-296.921
-307.596
-316.642
-324.095
-329.976
-334.29
-337.082
-338.325
-337.979
-336.058
-332.543
-327.435
-320.735
-312.41
-302.452
-290.852
-277.586
-262.656
-246.071
-227.832
-207.971
-186.51
-163.488
-138.961
-112.997
-85.6743
-57.0936
-27.3767
3.32846
34.6497
66.7573
99.2227
131.759
164.055
195.77
226.542
255.997
283.75
309.423
332.654
353.095
370.434
384.395
394.739
401.277
403.833
402.406
396.912
387.444
374.055
356.929
336.289
312.416
285.644
256.351
224.955
191.902
157.653
122.666
87.3943
52.2642
17.6769
-16.0146
-48.4967
-79.5071
-108.833
-136.308
-161.817
-185.291
-206.696
-226.032
-243.326
-258.629
-272.015
-283.569
-293.389
-301.572
-308.219
-313.432
-317.304
-319.928
-321.336
-321.56
-320.684
-318.68
-315.53
-311.195
-305.624
-298.751
-290.499
-280.774
-269.489
-256.563
-241.917
-225.481
-207.201
-187.041
-164.991
-141.065
-115.312
-87.8187
-58.7064
-28.1375
3.67006
36.4736
69.9347
103.723
137.461
170.742
203.141
234.229
263.583
290.795
315.489
337.322
356.001
371.284
382.986
390.978
395.196
395.534
392.161
385.098
374.427
360.328
342.991
322.634
299.511
273.898
246.093
216.413
185.194
152.781
119.523
85.7742
51.8833
18.1948
-14.9626
-47.28
-78.4719
-108.282
-136.494
-162.926
-187.437
-209.925
-230.321
-248.597
-264.754
-278.82
-290.843
-300.885
-309.025
-315.347
-319.949
-322.926
-324.346
-324.265
-322.811
-320.018
-315.93
-310.583
-303.987
-296.147
-287.06
-276.7
-265.036
-252.026
-237.624
-221.779
-204.441
-185.569
-165.13
-143.104
-119.49
-94.316
-67.6413
-39.5577
-10.1968
20.276
51.6395
83.6128
115.906
148.183
180.073
211.18
241.095
269.402
295.688
319.558
340.64
358.597
373.133
384.003
391.022
394.041
393.01
387.934
378.915
366.015
349.455
329.477
306.377
280.499
252.229
221.98
190.188
157.3
123.764
90.016
56.4663
23.4982
-8.55346
-39.4072
-68.8209
-96.6045
-122.611
-146.74
-168.942
-189.198
-207.513
-223.907
-238.433
-251.166
-262.168
-271.5
-279.234
-285.452
-290.222
-293.606
-295.624
-296.313
-295.724
-293.89
-290.809
-286.492
-280.949
-274.176
-266.153
-256.88
-246.349
-234.541
-221.455
-207.084
-191.42
-174.465
-156.213
-136.678
-115.89
-93.8786
-70.6988
-46.4437
-21.2419
4.66614
30.4054
57.3538
84.7234
112.206
139.54
166.426
192.577
217.696
241.484
263.674
283.992
302.174
317.998
331.257
341.78
349.432
354.12
355.716
354.209
349.683
342.248
331.968
319.021
303.613
285.962
266.334
244.997
222.248
198.407
173.781
148.684
123.431
98.3122
73.6064
49.5529
26.4421
5.34431
-15.6229
-35.3266
-53.6238
-70.4249
-85.6659
-99.3066
-111.323
-121.711
-130.49
-137.696
-258.67
-241.784
-223.058
-202.516
-180.191
-156.085
-130.237
-102.728
-73.6538
-43.1491
-11.4024
21.3039
54.8942
89.0363
123.387
157.556
191.139
223.772
255.035
284.501
311.806
336.553
358.359
376.912
391.926
403.168
410.467
413.657
412.031
406.319
396.661
383.116
365.901
345.279
321.533
294.998
266.077
235.162
202.662
169.02
134.644
99.9283
65.2428
31.1175
-1.21619
-33.3768
-64.4553
-94.187
-122.392
-148.935
-173.733
-196.735
-217.918
-237.281
-254.835
-270.614
-284.653
-296.99
-307.663
-316.708
-324.159
-330.039
-334.354
-337.145
-338.384
-338.043
-336.121
-332.607
-327.501
-320.802
-312.479
-302.523
-290.925
-277.66
-262.731
-246.147
-227.91
-208.049
-186.588
-163.566
-139.039
-113.074
-85.7498
-57.1665
-27.4459
3.26575
34.5906
66.7078
99.1832
131.731
164.04
195.77
226.558
256.03
283.799
309.49
332.737
353.194
370.546
384.519
394.873
401.417
403.983
402.547
397.053
387.579
374.182
357.044
336.389
312.5
285.71
256.397
224.981
191.909
157.64
122.636
87.3475
52.2029
17.6032
-16.0985
-48.5886
-79.605
-108.935
-136.411
-161.922
-185.395
-206.797
-226.131
-243.421
-258.72
-272.102
-283.651
-293.467
-301.645
-308.288
-313.497
-317.366
-319.987
-321.391
-321.617
-320.74
-318.736
-315.588
-311.255
-305.687
-298.818
-290.569
-280.848
-269.568
-256.645
-242.003
-225.57
-207.292
-187.135
-165.085
-141.16
-115.406
-87.9091
-58.7921
-28.217
3.59916
36.4126
69.8863
103.689
137.443
170.741
203.159
234.266
263.638
290.869
315.579
337.427
356.119
371.413
383.122
391.119
395.339
395.68
392.298
385.23
374.551
360.444
343.095
322.726
299.588
273.961
246.141
216.446
185.211
152.783
119.511
85.7482
51.8441
18.1435
-15.0248
-47.3517
-78.5517
-108.369
-136.585
-163.02
-187.534
-210.023
-230.418
-248.692
-264.847
-278.91
-290.929
-300.968
-309.104
-315.422
-320.021
-322.994
-324.409
-324.327
-322.871
-320.076
-315.988
-310.64
-304.044
-296.205
-287.119
-276.761
-265.099
-252.092
-237.692
-221.85
-204.515
-185.646
-165.208
-143.183
-119.57
-94.3956
-67.7191
-39.632
-10.2659
20.2138
51.5859
83.5702
115.876
148.168
180.074
211.198
241.131
269.456
295.761
319.649
340.747
358.719
373.267
384.148
391.173
394.201
393.161
388.082
379.058
366.149
349.576
329.583
306.466
280.571
252.282
222.013
190.202
157.296
123.743
89.9789
56.4154
23.4359
-8.62524
-39.4863
-68.9052
-96.692
-122.7
-146.83
-169.031
-189.284
-207.596
-223.987
-238.51
-251.239
-262.237
-271.566
-279.297
-285.512
-290.28
-293.66
-295.676
-296.362
-295.774
-293.94
-290.859
-286.542
-280.999
-274.226
-266.204
-256.932
-246.402
-234.595
-221.51
-207.14
-191.477
-174.523
-156.271
-136.736
-115.947
-93.9353
-70.7535
-46.4951
-21.2882
4.62577
30.3668
57.3233
84.7025
112.195
139.541
166.438
192.602
217.733
241.533
263.736
284.066
302.259
318.093
331.361
341.89
349.547
354.237
355.84
354.325
349.798
342.356
332.068
319.112
303.693
286.03
266.39
245.04
222.277
198.423
173.785
148.676
123.412
98.2832
73.5686
49.5083
26.3952
5.2844
-15.6848
-35.3908
-53.6897
-70.4919
-85.7333
-99.3739
-111.39
-121.777
-130.554
-137.759
-258.818
-241.937
-223.214
-202.676
-180.353
-156.247
-130.398
-102.885
-73.8044
-43.29
-11.5308
21.1904
54.7993
88.9656
123.344
157.544
191.159
223.828
255.127
284.63
311.971
336.754
358.594
377.175
392.213
403.472
410.784
414.001
412.344
406.628
396.955
383.39
366.149
345.496
321.718
295.146
266.189
235.236
202.699
169.023
134.615
99.8706
65.1615
31.0133
-1.34598
-33.5185
-64.6077
-94.3471
-122.557
-149.102
-173.9
-196.9
-218.079
-237.438
-254.988
-270.761
-284.795
-297.127
-307.796
-316.837
-324.285
-330.163
-334.477
-337.267
-338.501
-338.164
-336.244
-332.731
-327.626
-320.93
-312.61
-302.656
-291.06
-277.797
-262.871
-246.288
-228.052
-208.191
-186.73
-163.707
-139.178
-113.21
-85.8814
-57.292
-27.5628
3.16258
34.4962
66.6335
99.1293
131.701
164.037
195.796
226.617
256.122
283.926
309.65
332.929
353.417
370.797
384.793
395.165
401.723
404.309
402.853
397.359
387.874
374.46
357.298
336.615
312.691
285.864
256.513
225.057
191.946
157.639
122.599
87.2777
52.1042
17.4797
-16.2424
-48.7486
-79.7766
-109.114
-136.595
-162.106
-185.578
-206.977
-226.305
-243.588
-258.879
-272.252
-283.792
-293.598
-301.768
-308.402
-313.604
-317.466
-320.081
-321.479
-321.707
-320.829
-318.826
-315.681
-311.353
-305.791
-298.929
-290.687
-280.974
-269.702
-256.788
-242.153
-225.727
-207.455
-187.301
-165.254
-141.329
-115.572
-88.0704
-58.9444
-28.357
3.47588
36.3088
69.8073
103.639
137.425
170.757
203.211
234.355
263.765
291.031
315.774
337.652
356.369
371.684
383.408
391.414
395.633
395.985
392.582
385.505
374.812
360.685
343.313
322.918
299.753
274.097
246.247
216.521
185.256
152.798
119.497
85.7062
51.776
18.0513
-15.1387
-47.4844
-78.7005
-108.531
-136.757
-163.199
-187.716
-210.205
-230.6
-248.87
-265.021
-279.077
-291.089
-301.121
-309.248
-315.559
-320.15
-323.117
-324.52
-324.438
-322.977
-320.179
-316.088
-310.739
-304.143
-296.306
-287.222
-276.868
-265.21
-252.208
-237.814
-221.977
-204.648
-185.784
-165.351
-143.328
-119.716
-94.5411
-67.861
-39.7674
-10.3911
20.102
51.4912
83.4972
115.829
148.149
180.086
211.245
241.214
269.576
295.918
319.84
340.972
358.972
373.546
384.445
391.484
394.53
393.472
388.39
379.353
366.425
349.827
329.804
306.653
280.721
252.394
222.086
190.237
157.294
123.706
89.9111
56.3202
23.3177
-8.76251
-39.6383
-69.0677
-96.861
-122.872
-147.003
-169.202
-189.45
-207.757
-224.143
-238.658
-251.38
-262.371
-271.693
-279.418
-285.627
-290.39
-293.767
-295.777
-296.461
-295.873
-294.037
-290.956
-286.639
-281.097
-274.326
-266.305
-257.035
-246.507
-234.701
-221.619
-207.25
-191.589
-174.636
-156.386
-136.852
-116.062
-94.0476
-70.8618
-46.5969
-21.3798
4.54596
30.2905
57.2631
84.6615
112.175
139.543
166.463
192.651
217.808
241.633
263.861
284.215
302.43
318.284
331.568
342.112
349.778
354.473
356.089
354.557
350.027
342.573
332.27
319.294
303.854
286.167
266.501
245.125
222.336
198.456
173.793
148.66
123.373
98.225
73.4929
49.4191
26.3011
5.16483
-15.8087
-35.5192
-53.8217
-70.626
-85.8682
-99.5085
-111.523
-121.908
-130.683
-137.884
-259.04
-242.166
-223.449
-202.916
-180.596
-156.491
-130.639
-103.121
-74.0305
-43.5016
-11.7238
21.0198
54.6567
88.8594
123.28
157.526
191.19
223.911
255.264
284.823
312.219
337.056
358.945
377.569
392.643
403.929
411.257
414.503
412.821
407.095
397.396
383.801
366.521
345.823
321.994
295.368
266.355
235.346
202.756
169.027
134.57
99.7837
65.0395
30.8568
-1.54073
-33.7313
-64.8363
-94.5873
-122.804
-149.352
-174.15
-197.148
-218.321
-237.674
-255.216
-270.982
-285.008
-297.332
-307.995
-317.03
-324.474
-330.348
-334.662
-337.45
-338.679
-338.347
-336.428
-332.916
-327.815
-321.123
-312.806
-302.856
-291.264
-278.004
-263.081
-246.5
-228.265
-208.405
-186.943
-163.918
-139.386
-113.413
-86.0779
-57.479
-27.737
3.0077
34.3582
66.5243
99.0509
131.658
164.035
195.839
226.708
256.263
284.119
309.894
333.222
353.756
371.177
385.208
395.609
402.186
404.795
403.321
397.826
388.322
374.881
357.684
336.956
312.983
286.101
256.691
225.175
192.004
157.64
122.546
87.1758
51.9588
17.2969
-16.4559
-48.9863
-80.032
-109.381
-136.869
-162.382
-185.851
-207.244
-226.564
-243.837
-259.116
-272.475
-284.002
-293.794
-301.951
-308.573
-313.763
-317.616
-320.221
-321.611
-321.841
-320.961
-318.961
-315.82
-311.5
-305.946
-299.094
-290.863
-281.163
-269.903
-257.001
-242.377
-225.961
-207.697
-187.55
-165.506
-141.581
-115.822
-88.3115
-59.172
-28.5662
3.2917
36.1541
69.6899
103.564
137.397
170.782
203.29
234.49
263.955
291.275
316.068
337.991
356.747
372.092
383.838
391.857
396.078
396.44
393.014
385.92
375.204
361.048
343.642
323.209
300.002
274.302
246.407
216.635
185.325
152.821
119.477
85.6441
51.6747
17.9139
-15.3086
-47.6828
-78.9229
-108.773
-137.014
-163.466
-187.988
-210.479
-230.872
-249.138
-265.28
-279.328
-291.329
-301.349
-309.465
-315.764
-320.344
-323.3
-324.688
-324.603
-323.136
-320.332
-316.238
-310.887
-304.292
-296.457
-287.377
-277.028
-265.377
-252.383
-237.997
-222.169
-204.848
-185.992
-165.564
-143.546
-119.936
-94.7591
-68.0737
-39.9702
-10.5787
19.9345
51.3496
83.388
115.757
148.12
180.105
211.315
241.338
269.756
296.152
320.128
341.309
359.354
373.964
384.893
391.951
395.014
393.947
388.854
379.795
366.839
350.203
330.135
306.933
280.947
252.562
222.196
190.289
157.291
123.652
89.8095
56.1773
23.1403
-8.96849
-39.8663
-69.3115
-97.1147
-123.131
-147.263
-169.458
-189.701
-208
-224.376
-238.882
-251.592
-262.572
-271.885
-279.601
-285.801
-290.556
-293.926
-295.927
-296.612
-296.021
-294.182
-291.101
-286.785
-281.244
-274.475
-266.457
-257.189
-246.664
-234.861
-221.781
-207.416
-191.757
-174.807
-156.558
-137.025
-116.234
-94.2161
-71.0244
-46.7498
-21.5175
4.42613
30.1757
57.1726
84.5998
112.144
139.545
166.501
192.725
217.919
241.782
264.048
284.437
302.686
318.57
331.88
342.444
350.125
354.826
356.457
354.908
350.373
342.898
332.572
319.568
304.096
286.373
266.669
245.254
222.425
198.506
173.804
148.635
123.316
98.1376
73.3791
49.2852
26.1592
4.98563
-15.9945
-35.7119
-54.0197
-70.8272
-86.0707
-99.7104
-111.723
-122.105
-130.875
-138.071
-259.336
-242.471
-223.763
-203.236
-180.92
-156.816
-130.961
-103.435
-74.3322
-43.7842
-11.9815
20.7913
54.4665
88.7174
123.194
157.501
191.232
224.022
255.448
285.079
312.55
337.459
359.413
378.096
393.218
404.539
411.89
415.152
413.468
407.722
397.986
384.349
367.017
346.258
322.362
295.664
266.577
235.494
202.83
169.032
134.51
99.6672
64.8762
30.6477
-1.80051
-34.0153
-65.1415
-94.9079
-123.134
-149.686
-174.484
-197.478
-218.645
-237.989
-255.521
-271.276
-285.292
-297.607
-308.261
-317.289
-324.725
-330.596
-334.908
-337.692
-338.917
-338.59
-336.673
-333.164
-328.066
-321.38
-313.068
-303.123
-291.536
-278.28
-263.361
-246.783
-228.549
-208.69
-187.227
-164.199
-139.663
-113.685
-86.3401
-57.7287
-27.9698
2.79792
34.1769
66.379
98.9461
131.601
164.032
195.896
226.83
256.453
284.377
310.22
333.614
354.208
371.685
385.763
396.201
402.804
405.432
403.957
398.452
388.921
375.444
358.199
337.413
313.372
286.416
256.928
225.333
192.082
157.641
122.476
87.0396
51.7645
17.0527
-16.7411
-49.3037
-80.3731
-109.738
-137.235
-162.75
-186.216
-207.601
-226.909
-244.169
-259.432
-272.774
-284.283
-294.056
-302.194
-308.8
-313.975
-317.815
-320.408
-321.79
-322.019
-321.138
-319.14
-316.006
-311.695
-306.153
-299.315
-291.099
-281.414
-270.172
-257.285
-242.676
-226.274
-208.021
-187.882
-165.843
-141.919
-116.154
-88.6336
-59.4761
-28.8458
3.04533
35.9472
69.5328
103.464
137.361
170.814
203.395
234.67
264.209
291.601
316.461
338.444
357.25
372.636
384.412
392.449
396.673
397.04
393.595
386.474
375.727
361.532
344.08
323.596
300.335
274.576
246.62
216.788
185.416
152.852
119.45
85.5611
51.5395
17.7303
-15.5357
-47.9478
-79.22
-109.096
-137.356
-163.822
-188.351
-210.844
-231.235
-249.494
-265.627
-279.662
-291.649
-301.654
-309.754
-316.038
-320.603
-323.543
-324.916
-324.824
-323.347
-320.536
-316.438
-311.084
-304.49
-296.659
-287.584
-277.242
-265.6
-252.616
-238.241
-222.424
-205.115
-186.268
-165.849
-143.836
-120.228
-95.0504
-68.3579
-40.2413
-10.8296
19.7102
51.1604
83.2419
115.662
148.082
180.131
211.409
241.504
269.996
296.465
320.512
341.758
359.862
374.523
385.49
392.574
395.646
394.588
389.478
380.387
367.392
350.705
330.577
307.307
281.247
252.786
222.343
190.359
157.287
123.579
89.6735
55.9862
22.9031
-9.24375
-40.1709
-69.6372
-97.4535
-123.477
-147.609
-169.8
-190.035
-208.323
-224.688
-239.18
-251.875
-262.841
-272.14
-279.844
-286.032
-290.777
-294.137
-296.13
-296.813
-296.218
-294.376
-291.295
-286.98
-281.44
-274.674
-266.659
-257.394
-246.873
-235.074
-221.998
-207.637
-191.982
-175.035
-156.788
-137.256
-116.463
-94.441
-71.2413
-46.954
-21.7014
4.26621
30.0223
57.0516
84.5173
112.103
139.548
166.55
192.823
218.068
241.981
264.297
284.735
303.028
318.952
332.297
342.888
350.588
355.297
356.94
355.383
350.835
343.332
332.974
319.933
304.418
286.648
266.893
245.425
222.543
198.571
173.819
148.602
123.238
98.0208
73.2271
49.1067
25.9693
4.74677
-16.2424
-35.9691
-54.2838
-71.0956
-86.3407
-99.9798
-111.99
-122.367
-131.132
-138.321
-259.705
-242.852
-224.155
-203.637
-181.326
-157.223
-131.364
-103.828
-74.7099
-44.1381
-12.3046
20.5045
54.2283
88.5393
123.085
157.47
191.283
224.159
255.676
285.4
312.963
337.962
359.999
378.754
393.936
405.303
412.681
415.953
414.276
408.506
398.724
385.034
367.638
346.803
322.822
296.033
266.854
235.678
202.923
169.037
134.435
99.5209
64.6714
30.3855
-2.12532
-34.3706
-65.5235
-95.3093
-123.547
-150.105
-174.902
-197.891
-219.049
-238.382
-255.903
-271.645
-285.647
-297.949
-308.592
-317.611
-325.04
-330.905
-335.214
-337.993
-339.218
-338.893
-336.979
-333.473
-328.381
-321.701
-313.396
-303.457
-291.875
-278.625
-263.711
-247.136
-228.905
-209.047
-187.583
-164.552
-140.01
-114.024
-86.6683
-58.0417
-28.2618
2.53203
33.9522
66.1967
98.8143
131.529
164.027
195.967
226.982
256.689
284.699
310.627
334.103
354.774
372.32
386.457
396.942
403.577
406.222
404.757
399.236
389.67
376.148
358.843
337.984
313.859
286.81
257.225
225.529
192.179
157.642
122.387
86.8683
51.5206
16.7463
-17.0986
-49.7017
-80.8005
-110.185
-137.692
-163.211
-186.672
-208.048
-227.342
-244.584
-259.827
-273.147
-284.633
-294.383
-302.5
-309.084
-314.24
-318.064
-320.64
-322.015
-322.242
-321.359
-319.364
-316.238
-311.939
-306.412
-299.591
-291.393
-281.729
-270.507
-257.641
-243.051
-226.665
-208.426
-188.297
-166.265
-142.341
-116.571
-89.037
-59.8574
-29.1964
2.73594
35.688
69.3356
103.338
137.315
170.854
203.526
234.894
264.527
292.008
316.952
339.01
357.88
373.317
385.13
393.189
397.419
397.784
394.325
387.168
376.382
362.137
344.628
324.08
300.75
274.918
246.887
216.978
185.53
152.891
119.415
85.4568
51.3698
17.5
-15.8202
-48.2797
-79.5921
-109.501
-137.786
-164.268
-188.807
-211.302
-231.689
-249.941
-266.061
-280.08
-292.049
-302.035
-310.116
-316.38
-320.925
-323.845
-325.203
-325.1
-323.612
-320.792
-316.688
-311.331
-304.738
-296.912
-287.843
-277.51
-265.879
-252.907
-238.546
-222.744
-205.448
-186.615
-166.206
-144.2
-120.595
-95.415
-68.7139
-40.581
-11.1443
19.429
50.9231
83.0585
115.541
148.033
180.162
211.526
241.711
270.295
296.856
320.991
342.321
360.499
375.221
386.237
393.353
396.437
395.388
390.26
381.128
368.084
351.333
331.129
307.775
281.623
253.066
222.525
190.445
157.281
123.486
89.5025
55.7464
22.6058
-9.5887
-40.5525
-70.0451
-97.8777
-123.909
-148.043
-170.229
-190.453
-208.727
-225.077
-239.552
-252.229
-263.176
-272.459
-280.148
-286.321
-291.053
-294.4
-296.385
-297.063
-296.463
-294.618
-291.538
-287.223
-281.686
-274.922
-266.911
-257.651
-247.135
-235.341
-222.269
-207.913
-192.263
-175.321
-157.076
-137.544
-116.75
-94.7224
-71.5128
-47.2096
-21.9319
4.06614
29.8296
56.8998
84.4137
112.051
139.551
166.612
192.946
218.254
242.23
264.608
285.106
303.455
319.429
332.817
343.442
351.167
355.888
357.538
355.979
351.411
343.875
333.478
320.39
304.82
286.991
267.173
245.639
222.69
198.653
173.838
148.561
123.141
97.874
73.0366
48.8836
25.7306
4.44842
-16.5523
-36.2907
-54.6143
-71.4315
-86.6785
-100.317
-112.324
-122.695
-131.453
-138.633
-260.149
-243.31
-224.626
-204.118
-181.813
-157.711
-131.847
-104.301
-75.1638
-44.5638
-12.6939
20.1594
53.9416
88.3246
122.954
157.431
191.343
224.324
255.95
285.785
313.459
338.566
360.703
379.545
394.799
406.219
413.631
416.914
415.242
409.445
399.611
385.858
368.383
347.457
323.375
296.477
267.186
235.898
203.034
169.043
134.343
99.3439
64.4244
30.0695
-2.51515
-34.7977
-65.9827
-95.7917
-124.043
-150.607
-175.404
-198.387
-219.535
-238.854
-256.36
-272.087
-286.073
-298.361
-308.991
-317.998
-325.418
-331.276
-335.581
-338.355
-339.581
-339.257
-337.347
-333.844
-328.758
-322.086
-313.789
-303.858
-292.283
-279.04
-264.131
-247.561
-229.332
-209.475
-188.01
-164.975
-140.427
-114.432
-87.0627
-58.418
-28.6134
2.21031
33.6832
65.977
98.655
131.441
164.021
196.051
227.163
256.972
285.085
311.116
334.69
355.454
373.082
387.29
397.831
404.506
407.171
405.716
400.176
390.571
376.994
359.616
338.669
314.443
287.283
257.58
225.764
192.295
157.642
122.278
86.6613
51.2264
16.3773
-17.529
-50.1805
-81.3147
-110.722
-138.243
-163.765
-187.221
-208.585
-227.862
-245.083
-260.303
-273.596
-285.055
-294.776
-302.866
-309.425
-314.558
-318.363
-320.92
-322.285
-322.508
-321.624
-319.633
-316.517
-312.232
-306.723
-299.923
-291.748
-282.107
-270.91
-258.068
-243.5
-227.135
-208.912
-188.797
-166.772
-142.849
-117.072
-89.5221
-60.3162
-29.6186
2.36264
35.3762
69.0979
103.186
137.258
170.901
203.683
235.163
264.908
292.497
317.541
339.689
358.636
374.134
385.992
394.077
398.315
398.677
395.2
388.003
377.168
362.864
345.286
324.661
301.248
275.329
247.206
217.205
185.666
152.936
119.373
85.3309
51.1654
17.2229
-16.1625
-48.6791
-80.0397
-109.987
-138.302
-164.804
-189.354
-211.852
-232.235
-250.477
-266.582
-280.582
-292.53
-302.493
-310.55
-316.79
-321.312
-324.208
-325.548
-325.43
-323.929
-321.099
-316.988
-311.628
-305.036
-297.214
-288.153
-277.831
-266.213
-253.257
-238.913
-223.128
-205.849
-187.031
-166.635
-144.637
-121.036
-95.8532
-69.1419
-40.9897
-11.5234
19.0904
50.6376
82.8373
115.395
147.973
180.198
211.665
241.959
270.653
297.325
321.567
342.995
361.262
376.06
387.134
394.289
397.39
396.346
391.197
382.019
368.915
352.087
331.792
308.336
282.074
253.402
222.744
190.548
157.273
123.375
89.2961
55.4575
22.2479
-10.0038
-41.0116
-70.5355
-98.3877
-124.429
-148.564
-170.743
-190.955
-209.213
-225.545
-239.999
-252.654
-263.579
-272.842
-280.513
-286.667
-291.383
-294.716
-296.692
-297.363
-296.757
-294.908
-291.829
-287.515
-281.98
-275.221
-267.214
-257.959
-247.449
-235.661
-222.594
-208.245
-192.6
-175.663
-157.422
-137.891
-117.095
-95.0606
-71.8389
-47.5169
-22.2095
3.82594
29.5974
56.717
84.2889
111.988
139.555
166.685
193.093
218.476
242.529
264.981
285.551
303.968
320.003
333.442
344.109
351.862
356.599
358.255
356.694
352.101
344.527
334.084
320.939
305.304
287.403
267.508
245.895
222.867
198.751
173.859
148.511
123.024
97.6969
72.8074
48.6156
25.4418
4.09084
-16.9244
-36.6771
-55.0113
-71.8348
-87.0842
-100.721
-112.724
-123.089
-131.838
-139.009
-260.667
-243.845
-225.176
-204.679
-182.382
-158.282
-132.413
-104.853
-75.694
-45.0617
-13.1503
19.7557
53.6059
88.0726
122.8
157.386
191.413
224.516
256.269
286.233
314.037
339.27
361.524
380.469
395.807
407.29
414.742
418.037
416.369
410.54
400.648
386.82
369.253
348.22
324.019
296.995
267.573
236.155
203.162
169.049
134.235
99.1358
64.1339
29.6989
-2.96978
-35.2968
-66.5194
-96.3554
-124.623
-151.194
-175.991
-198.966
-220.101
-239.406
-256.894
-272.603
-286.571
-298.84
-309.455
-318.449
-325.859
-331.709
-336.009
-338.778
-340.004
-339.682
-337.775
-334.277
-329.199
-322.536
-314.248
-304.325
-292.759
-279.524
-264.621
-248.056
-229.831
-209.975
-188.509
-165.469
-140.915
-114.908
-87.5237
-58.8578
-29.0247
1.83316
33.3686
65.7193
98.4677
131.336
164.012
196.147
227.373
257.3
285.535
311.685
335.375
356.246
373.972
388.262
398.87
405.592
408.281
406.835
401.274
391.624
377.982
360.519
339.469
315.125
287.835
257.994
226.037
192.428
157.641
122.15
86.4181
50.8812
15.945
-18.0331
-50.7409
-81.9163
-111.351
-138.886
-164.412
-187.862
-209.213
-228.469
-245.666
-260.858
-274.12
-285.546
-295.236
-303.293
-309.823
-314.929
-318.71
-321.248
-322.6
-322.818
-321.932
-319.947
-316.841
-312.573
-307.086
-300.31
-292.161
-282.549
-271.38
-258.567
-244.025
-227.683
-209.481
-189.38
-167.364
-143.443
-117.658
-90.0894
-60.8532
-30.1129
1.92497
35.0111
68.8191
103.007
137.19
170.955
203.864
235.476
265.352
293.067
318.229
340.482
359.52
375.09
386.999
395.116
399.364
399.719
396.22
388.977
378.086
363.712
346.054
325.339
301.829
275.807
247.579
217.47
185.823
152.989
119.323
85.1831
50.9261
16.8983
-16.5631
-49.1463
-80.5632
-110.556
-138.905
-165.43
-189.993
-212.494
-232.873
-251.103
-267.19
-281.169
-293.091
-303.027
-311.057
-317.269
-321.763
-324.631
-325.951
-325.815
-324.298
-321.456
-317.338
-311.974
-305.384
-297.567
-288.515
-278.205
-266.603
-253.665
-239.34
-223.575
-206.317
-187.516
-167.135
-145.148
-121.551
-96.3654
-69.6423
-41.4678
-11.9675
18.694
50.3032
82.5777
115.224
147.902
180.238
211.827
242.248
271.071
297.872
322.239
343.783
362.154
377.04
388.182
395.382
398.505
397.464
392.291
383.061
369.886
352.968
332.567
308.991
282.6
253.793
222.998
190.668
157.263
123.243
89.0538
55.1189
21.8287
-10.4898
-41.5486
-71.109
-98.9839
-125.037
-149.173
-171.344
-191.542
-209.78
-226.09
-240.521
-253.15
-264.049
-273.288
-280.938
-287.072
-291.769
-295.085
-297.049
-297.712
-297.1
-295.246
-292.169
-287.855
-282.323
-275.569
-267.568
-258.319
-247.814
-236.033
-222.974
-208.631
-192.994
-176.062
-157.826
-138.296
-117.498
-95.4557
-72.2198
-47.8763
-22.5345
3.54565
29.3247
56.5029
84.1426
111.914
139.558
166.771
193.264
218.736
242.877
265.416
286.071
304.567
320.672
334.172
344.887
352.675
357.43
359.093
357.526
352.906
345.289
334.791
321.579
305.869
287.883
267.9
246.194
223.072
198.864
173.884
148.451
122.887
97.4889
72.539
48.3027
25.1019
3.67435
-17.3587
-37.1283
-55.475
-72.3059
-87.558
-101.194
-113.192
-123.549
-132.288
-139.446
-261.259
-244.457
-225.805
-205.321
-183.033
-158.935
-133.06
-105.485
-76.3008
-45.6325
-13.6745
19.293
53.2204
87.7827
122.623
157.332
191.491
224.734
256.632
286.745
314.697
340.076
362.464
381.525
396.96
408.516
416.013
419.323
417.658
411.792
401.833
387.92
370.248
349.093
324.755
297.586
268.015
236.447
203.307
169.054
134.109
98.8955
63.7983
29.2735
-3.48904
-35.8682
-67.1341
-97.001
-125.287
-151.866
-176.661
-199.628
-220.75
-240.036
-257.504
-273.192
-287.139
-299.389
-309.986
-318.965
-326.363
-332.203
-336.497
-339.262
-340.487
-340.167
-338.264
-334.772
-329.703
-323.049
-314.773
-304.86
-293.303
-280.077
-265.182
-248.623
-230.402
-210.547
-189.079
-166.035
-141.472
-115.453
-88.0514
-59.3612
-29.4959
1.40084
33.0074
65.4229
98.2518
131.216
164
196.257
227.612
257.675
286.048
312.336
336.158
357.153
374.99
389.375
400.059
406.834
409.552
408.115
402.53
392.829
379.112
361.553
340.384
315.904
288.465
258.466
226.349
192.579
157.637
122.002
86.138
50.4845
15.4488
-18.6114
-51.3834
-82.606
-112.071
-139.623
-165.153
-188.596
-209.931
-229.165
-246.332
-261.492
-274.72
-286.108
-295.76
-303.782
-310.278
-315.353
-319.107
-321.621
-322.96
-323.171
-322.284
-320.305
-317.212
-312.963
-307.5
-300.751
-292.633
-283.053
-271.918
-259.137
-244.626
-228.311
-210.132
-190.048
-168.042
-144.122
-118.329
-90.7393
-61.4688
-30.6798
1.4228
34.5917
68.4983
102.8
137.111
171.015
204.071
235.833
265.859
293.719
319.016
341.39
360.53
376.183
388.152
396.304
400.564
400.912
397.386
390.092
379.136
364.682
346.932
326.115
302.493
276.354
248.004
217.773
186.003
153.048
119.264
85.013
50.6515
16.5259
-17.0224
-49.6818
-81.1631
-111.208
-139.596
-166.147
-190.725
-213.23
-233.603
-251.819
-267.886
-281.84
-293.733
-303.638
-311.636
-317.816
-322.278
-325.117
-326.411
-326.255
-324.72
-321.864
-317.737
-312.37
-305.78
-297.97
-288.928
-278.633
-267.049
-254.131
-239.829
-224.087
-206.851
-188.072
-167.708
-145.733
-122.141
-96.9521
-70.2153
-42.0158
-12.477
18.2391
49.9194
82.2792
115.026
147.82
180.283
212.01
242.576
271.548
298.497
323.007
344.684
363.174
378.161
389.381
396.635
399.783
398.743
393.541
384.253
370.996
353.975
333.452
309.74
283.201
254.239
223.288
190.803
157.25
123.09
88.7748
54.7295
21.3476
-11.0471
-42.1644
-71.7663
-99.667
-125.732
-149.87
-172.032
-192.213
-210.428
-226.713
-241.118
-253.717
-264.586
-273.799
-281.424
-287.534
-292.209
-295.507
-297.458
-298.111
-297.491
-295.632
-292.556
-288.244
-282.716
-275.967
-267.972
-258.73
-248.232
-236.459
-223.409
-209.074
-193.444
-176.519
-158.287
-138.76
-117.959
-95.9081
-72.6561
-48.2881
-22.9073
3.22537
29.0109
56.2569
83.9744
111.829
139.561
166.867
193.459
219.032
243.274
265.914
286.666
305.252
321.438
335.008
345.778
353.605
358.382
360.051
358.477
353.825
346.16
335.599
322.312
306.514
288.433
268.347
246.536
223.307
198.994
173.912
148.382
122.728
97.2495
72.231
47.9442
24.7095
3.19922
-17.8551
-37.6445
-56.0056
-72.845
-88.1
-101.734
-113.727
-124.075
-132.803
-139.947
-261.926
-245.145
-226.513
-206.044
-183.766
-159.671
-133.79
-106.198
-76.9849
-46.2767
-14.267
18.7705
52.7842
87.454
122.421
157.27
191.577
224.977
257.04
287.32
315.44
340.983
363.522
382.716
398.26
409.898
417.447
420.772
419.108
413.2
403.169
389.16
371.368
350.075
325.584
298.251
268.511
236.774
203.469
169.057
133.965
98.6221
63.4146
28.7943
-4.07294
-36.5125
-67.8275
-97.7289
-126.035
-152.624
-177.417
-200.375
-221.48
-240.745
-258.191
-273.855
-287.778
-300.005
-310.583
-319.545
-326.93
-332.759
-337.045
-339.806
-341.03
-340.712
-338.814
-335.328
-330.269
-323.627
-315.363
-305.462
-293.916
-280.699
-265.813
-249.261
-231.044
-211.191
-189.721
-166.672
-142.101
-116.067
-88.646
-59.9286
-30.0276
0.913276
32.5988
65.087
98.0065
131.078
163.985
196.378
227.879
258.096
286.625
313.068
337.039
358.173
376.136
390.628
401.398
408.235
410.986
409.556
403.944
394.186
380.386
362.717
341.415
316.782
289.175
258.998
226.698
192.747
157.631
121.833
85.8202
50.0354
14.8879
-19.2649
-52.1088
-83.3844
-112.884
-140.454
-165.988
-189.424
-210.74
-229.948
-247.083
-262.206
-275.394
-286.741
-296.351
-304.331
-310.789
-315.829
-319.552
-322.042
-323.364
-323.567
-322.68
-320.707
-317.628
-313.401
-307.965
-301.248
-293.165
-283.622
-272.524
-259.779
-245.302
-229.018
-210.864
-190.8
-168.806
-144.888
-119.086
-91.4725
-62.1637
-31.3202
0.855421
34.117
68.1348
102.565
137.02
171.08
204.302
236.234
266.429
294.453
319.902
342.412
361.669
377.414
389.451
397.643
401.917
402.255
398.699
391.348
380.318
365.774
347.92
326.987
303.24
276.969
248.482
218.112
186.205
153.113
119.198
84.8203
50.3412
16.1049
-17.5409
-50.2862
-81.84
-111.944
-140.375
-166.956
-191.55
-214.059
-234.425
-252.626
-268.67
-282.595
-294.456
-304.325
-312.287
-318.431
-322.858
-325.662
-326.929
-326.748
-325.194
-322.323
-318.186
-312.814
-306.226
-298.423
-289.393
-279.114
-267.55
-254.655
-240.379
-224.663
-207.453
-188.697
-168.352
-146.392
-122.806
-97.6136
-70.8618
-42.6344
-13.0523
17.7247
49.4851
81.9409
114.801
147.724
180.332
212.215
242.945
272.084
299.2
323.87
345.699
364.323
379.424
390.733
398.046
401.223
400.185
394.95