/*--------------------------------*- C++ -*----------------------------------*\
| =========                 |                                                 |
| \\      /  F ield         | OpenFOAM: The Open Source CFD Toolbox           |
|  \\    /   O peration     | Version:  3.0.1                                 |
|   \\  /    A nd           | Web:      www.OpenFOAM.org                      |
|    \\/     M anipulation  |                                                 |
\*---------------------------------------------------------------------------*/
FoamFile
{
    version     2.0;
    format      ascii;
    class       surfaceScalarField;
    location    "42.2";
    object      alphaPhi;
}
// * * * * * * * * * * * * * * * * * * * * * * * * * * * * * * * * * * * * * //

dimensions      [0 3 -1 0 0 0 0];

internalField   nonuniform List<scalar> 
42423
(
-3.71731e-05
1.64823e-05
-5.27649e-05
1.55919e-05
-6.75452e-05
1.47803e-05
-8.14322e-05
1.38869e-05
-9.43273e-05
1.28951e-05
-0.000106283
1.19553e-05
-0.000117244
1.09613e-05
-0.000127271
1.0027e-05
-0.00013636
9.08862e-06
-0.000144514
8.15414e-06
-0.00015179
7.2768e-06
-0.000158205
6.41494e-06
-0.000163777
5.57174e-06
-0.000168559
4.78177e-06
-0.000172556
3.99686e-06
-0.000175805
3.24933e-06
-0.000178324
2.51922e-06
-0.000180119
1.79511e-06
-0.00018122
1.10019e-06
-0.000181656
4.36143e-07
-0.000181355
-3.00744e-07
-0.000180342
-1.01303e-06
-0.000178681
-1.66146e-06
-0.000176243
-2.43713e-06
-0.000173102
-3.1412e-06
-0.000169129
-3.97286e-06
-0.000164419
-4.71038e-06
-0.000158968
-5.45094e-06
-0.000152608
-6.36008e-06
-0.000145383
-7.22518e-06
-0.00013732
-8.0626e-06
-0.000128242
-9.07842e-06
-0.000118263
-9.97847e-06
-0.000107234
-1.10294e-05
-9.52457e-05
-1.19883e-05
-8.24106e-05
-1.28352e-05
-6.85724e-05
-1.38382e-05
-5.37606e-05
-1.48118e-05
-3.82131e-05
-1.55476e-05
-2.18001e-05
-1.6413e-05
-4.67827e-06
-1.71219e-05
1.31e-05
-1.77783e-05
3.13224e-05
-1.82224e-05
4.96907e-05
-1.83683e-05
6.81915e-05
-1.85009e-05
8.66628e-05
-1.84714e-05
0.000104685
-1.80222e-05
0.00012216
-1.74754e-05
0.000138911
-1.67511e-05
0.000154556
-1.56441e-05
0.000168972
-1.44165e-05
0.000181876
-1.29045e-05
0.000193185
-1.13082e-05
0.000202668
-9.48354e-06
0.000210104
-7.43556e-06
0.000215499
-5.39503e-06
0.000218684
-3.18551e-06
0.000219577
-8.92379e-07
0.000218209
1.36718e-06
0.000214465
3.74435e-06
0.000208615
5.85038e-06
0.000200759
7.85565e-06
0.000190877
9.8814e-06
0.000179204
1.16729e-05
0.000165905
1.32995e-05
0.000151276
1.46292e-05
0.000135473
1.58031e-05
0.000118677
1.6796e-05
0.000101181
1.74957e-05
8.32268e-05
1.79541e-05
6.49658e-05
1.8261e-05
4.66159e-05
1.83499e-05
2.84552e-05
1.81606e-05
1.06618e-05
1.77934e-05
-6.78482e-06
1.74466e-05
-2.35802e-05
1.67953e-05
-3.96614e-05
1.60812e-05
-5.4989e-05
1.53275e-05
-6.94024e-05
1.44134e-05
-8.28852e-05
1.34827e-05
-9.54115e-05
1.25263e-05
-0.000106949
1.1537e-05
-0.000117426
1.04774e-05
-0.000126955
9.52884e-06
-0.000135429
8.47425e-06
-0.000142869
7.43953e-06
-0.000149344
6.4751e-06
-0.000154819
5.47437e-06
-0.00015939
4.5707e-06
-0.000163076
3.68657e-06
-0.000165912
2.83543e-06
-0.000167939
2.02686e-06
-0.000169194
1.25451e-06
-0.000169735
5.41428e-07
-0.000169588
-1.47001e-07
-0.000168772
-8.16996e-07
-0.000167294
-1.47799e-06
-0.000165231
-2.06285e-06
-0.000162568
-2.66278e-06
-0.000159331
-3.23756e-06
-0.000155518
-3.81276e-06
-0.000151061
-4.45711e-06
-0.000146037
-5.02354e-06
-0.000140409
-5.62818e-06
-0.000134174
-6.23497e-06
-0.000127353
-6.82175e-06
-0.000119826
-7.52634e-06
-0.00011165
-8.17668e-06
-0.000102799
-8.85045e-06
-9.32386e-05
-9.56085e-06
-8.3064e-05
-1.01746e-05
-7.21225e-05
-1.09415e-05
-6.05689e-05
-1.15538e-05
-4.82587e-05
-1.23102e-05
-3.53632e-05
-1.28955e-05
-2.1817e-05
-1.35463e-05
-7.70131e-06
-1.41158e-05
6.9288e-06
-1.46302e-05
2.20203e-05
-1.50915e-05
3.74731e-05
-1.54529e-05
5.31672e-05
-1.56943e-05
6.9013e-05
-1.58458e-05
8.48519e-05
-1.58391e-05
0.000100559
-1.57069e-05
0.000115917
-1.53585e-05
0.000130789
-1.48724e-05
0.000144924
-1.41347e-05
0.000158179
-1.32549e-05
0.000170266
-1.20871e-05
0.000181038
-1.07726e-05
0.000190225
-9.18707e-06
0.00019773
-7.50498e-06
0.000203282
-5.55216e-06
0.000206838
-3.55511e-06
0.000208257
-1.41943e-06
0.00020754
7.16432e-07
0.000204627
2.91356e-06
0.000199437
5.1895e-06
0.00019223
7.20696e-06
0.000183008
9.22216e-06
0.000171924
1.10837e-05
0.00015927
1.26539e-05
0.000145166
1.41047e-05
0.000129841
1.53245e-05
0.000113572
1.62695e-05
9.65969e-05
1.69748e-05
7.90751e-05
1.75217e-05
6.13167e-05
1.77584e-05
4.35315e-05
1.77852e-05
2.59392e-05
1.75924e-05
8.69882e-06
1.72403e-05
-7.96637e-06
1.66652e-05
-2.39134e-05
1.5947e-05
-3.90061e-05
1.50927e-05
-5.32019e-05
1.41958e-05
-6.64257e-05
1.32238e-05
-7.86284e-05
1.22027e-05
-8.98611e-05
1.12327e-05
-0.00010007
1.02089e-05
-0.00010938
9.31017e-06
-0.000117688
8.30816e-06
-0.000125076
7.38714e-06
-0.000131702
6.6262e-06
-0.000137415
5.71367e-06
-0.00014241
4.99416e-06
-0.000146654
4.24438e-06
-0.000150244
3.59047e-06
-0.000153211
2.96656e-06
-0.000155608
2.39719e-06
-0.000157557
1.94846e-06
-0.000158902
1.34504e-06
-0.000159753
8.51645e-07
-0.000160193
4.39971e-07
-0.000160097
-9.62177e-08
-0.000159564
-5.33413e-07
-0.000158535
-1.029e-06
-0.000157203
-1.3313e-06
-0.000155398
-1.80526e-06
-0.000153153
-2.24462e-06
-0.000150491
-2.66285e-06
-0.000147363
-3.12765e-06
-0.000143748
-3.61518e-06
-0.000139645
-4.10257e-06
-0.000134989
-4.65667e-06
-0.00012971
-5.27856e-06
-0.000123838
-5.8718e-06
-0.000117292
-6.54618e-06
-0.000110058
-7.23412e-06
-0.000102009
-8.0493e-06
-9.33031e-05
-8.70569e-06
-8.37436e-05
-9.5596e-06
-7.33195e-05
-1.04242e-05
-6.20917e-05
-1.12278e-05
-4.997e-05
-1.21217e-05
-3.70339e-05
-1.29362e-05
-2.33104e-05
-1.37236e-05
-8.88002e-06
-1.44305e-05
6.21791e-06
-1.5098e-05
2.18873e-05
-1.56695e-05
3.80246e-05
-1.61374e-05
5.4513e-05
-1.64885e-05
7.12186e-05
-1.67057e-05
8.79358e-05
-1.67173e-05
0.000104517
-1.65817e-05
0.000120743
-1.62257e-05
0.000136401
-1.56577e-05
0.000151267
-1.48663e-05
0.000165013
-1.37462e-05
0.000177402
-1.23895e-05
0.00018823
-1.08278e-05
0.000197174
-8.94388e-06
0.00020408
-6.90612e-06
0.000208702
-4.62263e-06
0.000210934
-2.23158e-06
0.000210724
2.09711e-07
0.000207986
2.73782e-06
0.000202766
5.22049e-06
0.000195192
7.57396e-06
0.000185479
9.71279e-06
0.000173862
1.16165e-05
0.000160578
1.32839e-05
0.00014581
1.47681e-05
0.000129989
1.58208e-05
0.000113266
1.67236e-05
9.5936e-05
1.73298e-05
7.83007e-05
1.76353e-05
6.05516e-05
1.7749e-05
4.29501e-05
1.76015e-05
2.57193e-05
1.72308e-05
8.93039e-06
1.67889e-05
-7.21589e-06
1.61463e-05
-2.27163e-05
1.55004e-05
-3.7514e-05
1.47976e-05
-5.15153e-05
1.40013e-05
-6.46822e-05
1.31669e-05
-7.70385e-05
1.23563e-05
-8.85961e-05
1.15576e-05
-9.92189e-05
1.06228e-05
-0.000108923
9.70439e-06
-0.000117684
8.76034e-06
-0.000125644
7.95994e-06
-0.000132663
7.01969e-06
-0.0001389
6.23635e-06
-0.000144321
5.42102e-06
-0.000149013
4.69249e-06
-0.000153024
4.01103e-06
-0.00015642
3.39549e-06
-0.000159168
2.7481e-06
-0.000161305
2.13689e-06
-0.000162844
1.539e-06
-0.000163771
9.27247e-07
-0.000164126
3.55588e-07
-0.000163887
-2.39404e-07
-0.000163039
-8.48468e-07
-0.000161576
-1.46299e-06
-0.000159491
-2.08443e-06
-0.000156733
-2.75794e-06
-0.000153285
-3.44835e-06
-0.000149212
-4.07235e-06
-0.000144473
-4.73945e-06
-0.00013896
-5.51327e-06
-0.000132697
-6.26302e-06
-0.000125634
-7.06251e-06
-0.000117779
-7.85464e-06
-0.000109151
-8.62806e-06
-9.96864e-05
-9.46473e-06
-8.92909e-05
-1.03955e-05
-7.80418e-05
-1.12491e-05
-6.59902e-05
-1.20516e-05
-5.29519e-05
-1.30383e-05
-3.91985e-05
-1.37535e-05
-2.44849e-05
-1.47136e-05
-9.2272e-06
-1.52578e-05
6.92854e-06
-1.61558e-05
2.36343e-05
-1.67058e-05
4.08428e-05
-1.72086e-05
5.85236e-05
-1.76809e-05
7.63806e-05
-1.78571e-05
9.43516e-05
-1.79711e-05
0.000112233
-1.78812e-05
0.000129788
-1.75554e-05
0.000146735
-1.6947e-05
0.000162755
-1.60203e-05
0.000177538
-1.47833e-05
0.000190765
-1.3227e-05
0.00020213
-1.13651e-05
0.000211252
-9.12174e-06
0.000218011
-6.75935e-06
0.000222095
-4.08384e-06
0.000223506
-1.41134e-06
0.000222097
1.40937e-06
0.000217723
4.37358e-06
0.000210684
7.03895e-06
0.000201208
9.47614e-06
0.000189474
1.17337e-05
0.000175787
1.36869e-05
0.000160442
1.53456e-05
0.00014386
1.65819e-05
0.000126274
1.75856e-05
0.000108045
1.82294e-05
8.9557e-05
1.84878e-05
7.09511e-05
1.86059e-05
5.26161e-05
1.8335e-05
3.45631e-05
1.8053e-05
1.72341e-05
1.73289e-05
5.3818e-07
1.66959e-05
-1.53283e-05
1.58664e-05
-3.03065e-05
1.49782e-05
-4.43314e-05
1.4025e-05
-5.74174e-05
1.30859e-05
-6.95555e-05
1.21381e-05
-8.07564e-05
1.12008e-05
-9.10691e-05
1.03127e-05
-0.000100524
9.45509e-06
-0.000109156
8.63143e-06
-0.000117004
7.84805e-06
-0.000124092
7.08845e-06
-0.000130459
6.36659e-06
-0.000136117
5.65831e-06
-0.000141067
4.94957e-06
-0.000145303
4.23639e-06
-0.000148825
3.52252e-06
-0.000151612
2.78676e-06
-0.000153638
2.02618e-06
-0.000154881
1.24261e-06
-0.000155305
4.23958e-07
-0.000154811
-4.93707e-07
-0.000153371
-1.44066e-06
-0.000150973
-2.39773e-06
-0.000147615
-3.35791e-06
-0.000143224
-4.39079e-06
-0.000137819
-5.40491e-06
-0.000131451
-6.36792e-06
-0.00012397
-7.48141e-06
-0.000115503
-8.46654e-06
-0.000105955
-9.54836e-06
-9.54892e-05
-1.04659e-05
-8.41409e-05
-1.13483e-05
-7.17456e-05
-1.23954e-05
-5.8468e-05
-1.32776e-05
-4.45308e-05
-1.39373e-05
-2.98687e-05
-1.46621e-05
-1.46445e-05
-1.52242e-05
1.19868e-06
-1.58432e-05
1.74114e-05
-1.62127e-05
3.38141e-05
-1.64028e-05
5.04748e-05
-1.66607e-05
6.7206e-05
-1.67312e-05
8.37236e-05
-1.65176e-05
9.99861e-05
-1.62626e-05
0.00011569
-1.57036e-05
0.00013073
-1.50409e-05
0.000144858
-1.41272e-05
0.000157841
-1.29838e-05
0.000169554
-1.17131e-05
0.000179787
-1.02325e-05
-8.76766e-06
-3.72058e-05
3.29679e-05
-5.28004e-05
3.11864e-05
-6.75832e-05
2.95632e-05
-8.14723e-05
2.7776e-05
-9.43705e-05
2.57933e-05
-0.00010633
2.39144e-05
-0.000117294
2.19253e-05
-0.00012732
2.00533e-05
-0.000136407
1.81754e-05
-0.00014456
1.6308e-05
-0.000151838
1.45544e-05
-0.000158254
1.28311e-05
-0.000163831
1.11489e-05
-0.000168609
9.55895e-06
-0.000172604
7.99203e-06
-0.000175851
6.49703e-06
-0.000178372
5.03977e-06
-0.000180171
3.59399e-06
-0.000181274
2.20361e-06
-0.000181705
8.67223e-07
-0.000181402
-6.04533e-07
-0.000180387
-2.02726e-06
-0.000178726
-3.32239e-06
-0.000176291
-4.87222e-06
-0.000173151
-6.28124e-06
-0.000169179
-7.94553e-06
-0.000164469
-9.41989e-06
-0.000159018
-1.09019e-05
-0.000152658
-1.27202e-05
-0.000145436
-1.44478e-05
-0.000137371
-1.61272e-05
-0.000128293
-1.81563e-05
-0.000118319
-1.99531e-05
-0.000107289
-2.20588e-05
-9.52972e-05
-2.39802e-05
-8.24629e-05
-2.56695e-05
-6.86181e-05
-2.76831e-05
-5.38029e-05
-2.9627e-05
-3.82518e-05
-3.10988e-05
-2.18351e-05
-3.28297e-05
-4.70518e-06
-3.42519e-05
1.30777e-05
-3.55612e-05
3.13114e-05
-3.64562e-05
4.96886e-05
-3.67456e-05
6.81989e-05
-3.70112e-05
8.668e-05
-3.69525e-05
0.000104712
-3.60541e-05
0.000122201
-3.49643e-05
0.000138964
-3.35148e-05
0.000154619
-3.12986e-05
0.000169045
-2.88426e-05
0.000181959
-2.58186e-05
0.000193279
-2.26281e-05
0.000202767
-1.89721e-05
0.000210208
-1.48768e-05
0.000215611
-1.07979e-05
0.000218799
-6.37316e-06
0.000219694
-1.78766e-06
0.000218318
2.74269e-06
0.000214573
7.48981e-06
0.000208724
1.16994e-05
0.000200865
1.57149e-05
0.000190976
1.97697e-05
0.000179293
2.33563e-05
0.000165985
2.66077e-05
0.000151343
2.92708e-05
0.000135528
3.16179e-05
0.000118723
3.3601e-05
0.000101213
3.50057e-05
8.32463e-05
3.5921e-05
6.4977e-05
3.65303e-05
4.6614e-05
3.6713e-05
2.84408e-05
3.63338e-05
1.06361e-05
3.55981e-05
-6.82257e-06
3.49052e-05
-2.36273e-05
3.36e-05
-3.9715e-05
3.21689e-05
-5.50524e-05
3.06649e-05
-6.94686e-05
2.88296e-05
-8.29507e-05
2.69647e-05
-9.54778e-05
2.50533e-05
-0.000107018
2.30774e-05
-0.0001175
2.09586e-05
-0.000127033
1.90619e-05
-0.000135505
1.69459e-05
-0.000142944
1.48784e-05
-0.000149422
1.2953e-05
-0.000154893
1.09452e-05
-0.000159467
9.14465e-06
-0.00016316
7.37962e-06
-0.00016599
5.66569e-06
-0.000168014
4.05071e-06
-0.000169273
2.51328e-06
-0.000169818
1.08611e-06
-0.00016967
-2.95662e-07
-0.000168849
-1.63756e-06
-0.000167379
-2.94792e-06
-0.000165319
-4.1234e-06
-0.000162657
-5.32449e-06
-0.000159412
-6.48249e-06
-0.000155598
-7.62764e-06
-0.000151147
-8.90742e-06
-0.000146131
-1.00402e-05
-0.000140487
-1.12715e-05
-0.000134251
-1.24714e-05
-0.000127427
-1.36457e-05
-0.000119893
-1.5061e-05
-0.000111714
-1.63551e-05
-0.000102862
-1.77027e-05
-9.32882e-05
-1.91347e-05
-8.3123e-05
-2.03399e-05
-7.21763e-05
-2.18883e-05
-6.06237e-05
-2.31064e-05
-4.83106e-05
-2.46234e-05
-3.54084e-05
-2.57978e-05
-2.18499e-05
-2.71049e-05
-7.73566e-06
-2.823e-05
6.90179e-06
-2.92677e-05
2.19993e-05
-3.01891e-05
3.74579e-05
-3.09116e-05
5.31635e-05
-3.14e-05
6.9013e-05
-3.16953e-05
8.48523e-05
-3.16785e-05
0.000100564
-3.14189e-05
0.000115932
-3.07268e-05
0.000130828
-2.9768e-05
0.000144962
-2.82685e-05
0.000158219
-2.65126e-05
0.000170317
-2.41845e-05
0.000181098
-2.15537e-05
0.000190289
-1.83786e-05
0.000197797
-1.50133e-05
0.000203351
-1.11058e-05
0.000206901
-7.10558e-06
0.000208324
-2.84221e-06
0.000207599
1.44085e-06
0.000204658
5.85532e-06
0.000199477
1.03696e-05
0.000192251
1.44337e-05
0.000183037
1.84354e-05
0.000171954
2.21673e-05
0.000159262
2.53463e-05
0.000145148
2.82186e-05
0.000129805
3.06671e-05
0.000113531
3.25436e-05
9.65119e-05
3.39938e-05
7.90093e-05
3.50244e-05
6.12384e-05
3.55294e-05
4.34426e-05
3.5581e-05
2.5826e-05
3.5209e-05
8.59641e-06
3.44699e-05
-8.06663e-06
3.33283e-05
-2.40348e-05
3.19153e-05
-3.91325e-05
3.01905e-05
-5.33342e-05
2.83975e-05
-6.65515e-05
2.64411e-05
-7.87698e-05
2.4421e-05
-8.99947e-05
2.24576e-05
-0.000100192
2.04062e-05
-0.000109496
1.86148e-05
-0.00011781
1.66219e-05
-0.000125193
1.47696e-05
-0.000131811
1.32446e-05
-0.000137525
1.14273e-05
-0.00014252
9.98939e-06
-0.000146764
8.48845e-06
-0.000150348
7.17423e-06
-0.000153317
5.93542e-06
-0.000155728
4.80857e-06
-0.000157648
3.86903e-06
-0.000159003
2.69958e-06
-0.000159839
1.68742e-06
-0.000160274
8.75267e-07
-0.000160185
-1.855e-07
-0.000159643
-1.07509e-06
-0.000158636
-2.03633e-06
-0.000157282
-2.68541e-06
-0.000155467
-3.62024e-06
-0.000153216
-4.49506e-06
-0.000150562
-5.31754e-06
-0.000147436
-6.25285e-06
-0.000143824
-7.22748e-06
-0.000139717
-8.20922e-06
-0.000135049
-9.32521e-06
-0.000129774
-1.05532e-05
-0.000123908
-1.17383e-05
-0.00011735
-1.31036e-05
-0.000110128
-1.44566e-05
-0.000102073
-1.61042e-05
-9.3365e-05
-1.7414e-05
-8.3805e-05
-1.91196e-05
-7.33832e-05
-2.0846e-05
-6.21495e-05
-2.24617e-05
-5.0026e-05
-2.42452e-05
-3.70882e-05
-2.58741e-05
-2.33672e-05
-2.74447e-05
-8.93476e-06
-2.8863e-05
6.16679e-06
-3.01997e-05
2.18478e-05
-3.13506e-05
3.79971e-05
-3.22869e-05
5.44974e-05
-3.29889e-05
7.1206e-05
-3.34144e-05
8.793e-05
-3.34414e-05
0.00010452
-3.31723e-05
0.000120748
-3.24535e-05
0.000136414
-3.13233e-05
0.000151292
-2.97443e-05
0.000165044
-2.74991e-05
0.000177456
-2.48016e-05
0.000188273
-2.16445e-05
0.000197233
-1.7904e-05
0.000204138
-1.38114e-05
0.000208765
-9.24963e-06
0.000210998
-4.46499e-06
0.000210783
4.2497e-07
0.000208036
5.48477e-06
0.000202803
1.04536e-05
0.000195228
1.5149e-05
0.000185509
1.94312e-05
0.000173877
2.32492e-05
0.000160561
2.65991e-05
0.000145789
2.95409e-05
0.000129947
3.1662e-05
0.000113217
3.34541e-05
9.58589e-05
3.46877e-05
7.82254e-05
3.52689e-05
6.04742e-05
3.55001e-05
4.28598e-05
3.52159e-05
2.56252e-05
3.44655e-05
8.83705e-06
3.3577e-05
-7.32133e-06
3.23047e-05
-2.28255e-05
3.10046e-05
-3.76199e-05
2.95921e-05
-5.16229e-05
2.80043e-05
-6.47914e-05
2.63355e-05
-7.71448e-05
2.47098e-05
-8.87013e-05
2.31141e-05
-9.93266e-05
2.1248e-05
-0.000109041
1.94193e-05
-0.000117824
1.75434e-05
-0.000125749
1.58848e-05
-0.000132773
1.40434e-05
-0.000139005
1.24681e-05
-0.000144416
1.08319e-05
-0.000149118
9.3951e-06
-0.000153119
8.01179e-06
-0.000156508
6.78494e-06
-0.00015926
5.49975e-06
-0.0001614
4.27697e-06
-0.000162928
3.06739e-06
-0.000163853
1.85178e-06
-0.00016421
7.127e-07
-0.000163966
-4.83221e-07
-0.000163112
-1.70301e-06
-0.000161657
-2.91734e-06
-0.00015957
-4.1718e-06
-0.000156809
-5.5187e-06
-0.000153376
-6.881e-06
-0.000149289
-8.15962e-06
-0.000144545
-9.48324e-06
-0.00013904
-1.10191e-05
-0.000132777
-1.25252e-05
-0.000125716
-1.41234e-05
-0.000117868
-1.57027e-05
-0.000109229
-1.72669e-05
-9.97614e-05
-1.89326e-05
-8.93677e-05
-2.07892e-05
-7.81159e-05
-2.25009e-05
-6.60637e-05
-2.41037e-05
-5.30145e-05
-2.60875e-05
-3.92604e-05
-2.75077e-05
-2.45614e-05
-2.94126e-05
-9.27347e-06
-3.05458e-05
6.89459e-06
-3.2324e-05
2.36129e-05
-3.34242e-05
4.08251e-05
-3.44209e-05
5.85144e-05
-3.53704e-05
7.63775e-05
-3.57202e-05
9.43618e-05
-3.59556e-05
0.000112254
-3.57733e-05
0.000129816
-3.51182e-05
0.000146785
-3.39156e-05
0.000162821
-3.20568e-05
0.000177619
-2.9581e-05
0.000190857
-2.64649e-05
0.000202242
-2.27505e-05
0.000211378
-1.82578e-05
0.000218144
-1.35252e-05
0.000222235
-8.17496e-06
0.000223654
-2.83072e-06
0.000222231
2.83199e-06
0.000217857
8.74741e-06
0.000210812
1.40844e-05
0.000201325
1.89632e-05
0.000189579
2.34793e-05
0.000175878
2.73878e-05
0.000160513
3.07099e-05
0.000143914
3.3181e-05
0.000126319
3.51807e-05
0.000108073
3.64757e-05
8.95756e-05
3.69849e-05
7.09552e-05
3.72263e-05
5.26144e-05
3.66757e-05
3.45499e-05
3.61174e-05
1.72074e-05
3.46714e-05
5.10414e-07
3.33929e-05
-1.53607e-05
3.17375e-05
-3.03424e-05
2.99598e-05
-4.43713e-05
2.80538e-05
-5.74594e-05
2.61741e-05
-6.96004e-05
2.42791e-05
-8.07998e-05
2.24002e-05
-9.11152e-05
2.06281e-05
-0.000100573
1.89129e-05
-0.000109204
1.72623e-05
-0.000117046
1.56906e-05
-0.000124134
1.41764e-05
-0.000130501
1.27333e-05
-0.000136161
1.13181e-05
-0.000141116
9.90481e-06
-0.000145355
8.47549e-06
-0.000148875
7.04188e-06
-0.00015166
5.57258e-06
-0.000153689
4.05459e-06
-0.000154931
2.48506e-06
-0.000155354
8.46854e-07
-0.000154864
-9.83731e-07
-0.000153423
-2.88143e-06
-0.000151028
-4.79327e-06
-0.000147673
-6.71335e-06
-0.000143282
-8.78157e-06
-0.000137877
-1.08101e-05
-0.000131509
-1.27354e-05
-0.000124028
-1.49629e-05
-0.000115558
-1.69363e-05
-0.000106008
-1.90981e-05
-9.55391e-05
-2.0935e-05
-8.41872e-05
-2.27002e-05
-7.17865e-05
-2.47961e-05
-5.85059e-05
-2.65582e-05
-4.45695e-05
-2.78737e-05
-2.98992e-05
-2.93325e-05
-1.46689e-05
-3.04544e-05
1.17677e-06
-3.1689e-05
1.73958e-05
-3.24318e-05
3.38029e-05
-3.28099e-05
5.04687e-05
-3.33267e-05
6.72076e-05
-3.34701e-05
8.37308e-05
-3.30409e-05
9.99975e-05
-3.25293e-05
0.000115708
-3.14136e-05
0.000130757
-3.00902e-05
0.000144893
-2.82634e-05
0.00015788
-2.59712e-05
0.000169603
-2.34359e-05
0.000179851
-2.04809e-05
-1.75399e-05
-3.72714e-05
4.94604e-05
-5.28713e-05
4.67862e-05
-6.76587e-05
4.43506e-05
-8.15517e-05
4.1669e-05
-9.44518e-05
3.86934e-05
-0.000106411
3.58731e-05
-0.000117375
3.28895e-05
-0.000127402
3.00807e-05
-0.00013649
2.72633e-05
-0.000144645
2.44628e-05
-0.000151921
2.18301e-05
-0.000158334
1.92441e-05
-0.000163911
1.67265e-05
-0.00016869
1.43376e-05
-0.000172686
1.19885e-05
-0.000175934
9.74503e-06
-0.000178449
7.55443e-06
-0.000180247
5.39212e-06
-0.000181345
3.30126e-06
-0.000181764
1.28625e-06
-0.000181457
-9.11578e-07
-0.000180443
-3.04122e-06
-0.000178782
-4.98332e-06
-0.000176347
-7.30725e-06
-0.000173209
-9.41934e-06
-0.000169241
-1.19133e-05
-0.000164531
-1.41297e-05
-0.000159081
-1.63526e-05
-0.000152724
-1.9077e-05
-0.000145508
-2.16632e-05
-0.000137441
-2.41945e-05
-0.000128364
-2.72332e-05
-0.000118389
-2.99284e-05
-0.00010736
-3.30879e-05
-9.53725e-05
-3.59678e-05
-8.25448e-05
-3.84973e-05
-6.86867e-05
-4.15412e-05
-5.3867e-05
-4.44467e-05
-3.83113e-05
-4.66546e-05
-2.18934e-05
-4.92475e-05
-4.74722e-06
-5.13982e-05
1.30472e-05
-5.33557e-05
3.12973e-05
-5.47064e-05
4.96915e-05
-5.51399e-05
6.82247e-05
-5.55445e-05
8.67167e-05
-5.54445e-05
0.000104758
-5.40958e-05
0.000122267
-5.24727e-05
0.000139056
-5.03036e-05
0.000154721
-4.69639e-05
0.000169163
-4.3285e-05
0.00018209
-3.87459e-05
0.000193423
-3.39611e-05
0.000202929
-2.84775e-05
0.000210375
-2.2323e-05
0.000215782
-1.62051e-05
0.000218978
-9.56923e-06
0.000219875
-2.68475e-06
0.000218477
4.14102e-06
0.000214735
1.12319e-05
0.000208888
1.75461e-05
0.000201019
2.35836e-05
0.000191119
2.96697e-05
0.000179418
3.50574e-05
0.000166098
3.99275e-05
0.000151433
4.39353e-05
0.000135597
4.74539e-05
0.000118781
5.04179e-05
0.00010125
5.25366e-05
8.32623e-05
5.39083e-05
6.49841e-05
5.48085e-05
4.66015e-05
5.50956e-05
2.84106e-05
5.45247e-05
1.0576e-05
5.34327e-05
-6.88164e-06
5.23629e-05
-2.36933e-05
5.04116e-05
-3.97866e-05
4.82622e-05
-5.51389e-05
4.60171e-05
-6.95545e-05
4.32452e-05
-8.30354e-05
4.04455e-05
-9.55707e-05
3.75886e-05
-0.000107121
3.46277e-05
-0.000117602
3.14392e-05
-0.000127135
2.85948e-05
-0.000135615
2.54256e-05
-0.000143051
2.23148e-05
-0.000149526
1.94279e-05
-0.000155005
1.64233e-05
-0.000159584
1.37233e-05
-0.000163271
1.10665e-05
-0.0001661
8.49457e-06
-0.000168131
6.08184e-06
-0.000169391
3.77334e-06
-0.00016993
1.62489e-06
-0.000169791
-4.34664e-07
-0.000168976
-2.45281e-06
-0.000167506
-4.41841e-06
-0.000165437
-6.19248e-06
-0.000162773
-7.98835e-06
-0.000159535
-9.72097e-06
-0.000155728
-1.1434e-05
-0.000151293
-1.33423e-05
-0.000146315
-1.50191e-05
-0.000140679
-1.69067e-05
-0.000134427
-1.87243e-05
-0.000127563
-2.05091e-05
-0.000120035
-2.25896e-05
-0.000111855
-2.45346e-05
-0.000102999
-2.65586e-05
-9.34252e-05
-2.87088e-05
-8.32634e-05
-3.05017e-05
-7.23601e-05
-3.27916e-05
-6.07686e-05
-3.4698e-05
-4.84493e-05
-3.69427e-05
-3.55487e-05
-3.86984e-05
-2.19367e-05
-4.07169e-05
-7.85514e-06
-4.23117e-05
6.78896e-06
-4.39119e-05
2.18958e-05
-4.5296e-05
3.73625e-05
-4.63783e-05
5.30811e-05
-4.71187e-05
6.89431e-05
-4.75574e-05
8.47939e-05
-4.75294e-05
0.000100521
-4.71457e-05
0.000115908
-4.61141e-05
0.000130809
-4.46694e-05
0.000144973
-4.24327e-05
0.000158235
-3.9775e-05
0.000170363
-3.63118e-05
0.000181154
-3.23447e-05
0.000190357
-2.75822e-05
0.000197883
-2.25391e-05
0.000203456
-1.6679e-05
0.000207013
-1.06625e-05
0.000208433
-4.26276e-06
0.000207689
2.18485e-06
0.00020472
8.82424e-06
0.000199555
1.55352e-05
0.00019232
2.16685e-05
0.000183079
2.76765e-05
0.000171989
3.32567e-05
0.000159273
3.80624e-05
0.000145141
4.23505e-05
0.000129787
4.60214e-05
0.000113515
4.88157e-05
9.64546e-05
5.1054e-05
7.89393e-05
5.25396e-05
6.11423e-05
5.33264e-05
4.33296e-05
5.33936e-05
2.56945e-05
5.28442e-05
8.4603e-06
5.17041e-05
-8.18802e-06
4.99766e-05
-2.41952e-05
4.79224e-05
-3.9299e-05
4.52943e-05
-5.3512e-05
4.26105e-05
-6.67333e-05
3.96624e-05
-7.89597e-05
3.66475e-05
-9.01679e-05
3.36658e-05
-0.000100353
3.05913e-05
-0.000109662
2.79235e-05
-0.000117972
2.49324e-05
-0.000125383
2.21809e-05
-0.00013197
1.98308e-05
-0.000137674
1.7132e-05
-0.000142657
1.49718e-05
-0.000146916
1.27474e-05
-0.000150479
1.07378e-05
-0.000153456
8.91212e-06
-0.00015589
7.24258e-06
-0.000157782
5.76068e-06
-0.000159146
4.0643e-06
-0.00015998
2.52152e-06
-0.000160401
1.2956e-06
-0.000160321
-2.65191e-07
-0.000159768
-1.6281e-06
-0.00015879
-3.01395e-06
-0.000157408
-4.06761e-06
-0.000155598
-5.42993e-06
-0.000153351
-6.7422e-06
-0.000150696
-7.97259e-06
-0.000147578
-9.37062e-06
-0.000143969
-1.08372e-05
-0.000139867
-1.23108e-05
-0.000135195
-1.3997e-05
-0.000129924
-1.58247e-05
-0.00012406
-1.76023e-05
-0.000117458
-1.97051e-05
-0.000110286
-2.16292e-05
-0.000102233
-2.41573e-05
-9.35303e-05
-2.61163e-05
-8.39584e-05
-2.86915e-05
-7.35446e-05
-3.12598e-05
-6.23008e-05
-3.37055e-05
-5.01844e-05
-3.63616e-05
-3.72443e-05
-3.88143e-05
-2.35151e-05
-4.11739e-05
-9.06532e-06
-4.33129e-05
6.0502e-06
-4.53153e-05
2.17375e-05
-4.70379e-05
3.78907e-05
-4.84401e-05
5.44257e-05
-4.95239e-05
7.1125e-05
-5.01139e-05
8.78648e-05
-5.01812e-05
0.00010447
-4.97777e-05
0.000120722
-4.87052e-05
0.000136409
-4.70102e-05
0.000151284
-4.46193e-05
0.000165082
-4.12981e-05
0.00017754
-3.72592e-05
0.000188355
-3.24598e-05
0.000197332
-2.68807e-05
0.000204236
-2.07156e-05
0.000208883
-1.38968e-05
0.000211125
-6.70685e-06
0.000210899
6.50841e-07
0.000208143
8.24086e-06
0.000202895
1.57011e-05
0.000195314
2.27301e-05
0.000185588
2.91572e-05
0.000173921
3.49161e-05
0.00016057
3.99501e-05
0.000145792
4.43189e-05
0.000129929
4.7525e-05
0.000113157
5.02259e-05
9.57813e-05
5.20633e-05
7.81317e-05
5.29183e-05
6.03662e-05
5.32657e-05
4.27321e-05
5.285e-05
2.5488e-05
5.17095e-05
8.7013e-06
5.03637e-05
-7.46751e-06
4.84735e-05
-2.2963e-05
4.65001e-05
-3.77594e-05
4.43885e-05
-5.17727e-05
4.20175e-05
-6.49421e-05
3.95049e-05
-7.72994e-05
3.7067e-05
-8.88561e-05
3.46708e-05
-9.94923e-05
3.18843e-05
-0.000109203
2.91304e-05
-0.000118002
2.63422e-05
-0.000125911
2.37936e-05
-0.000132936
2.10686e-05
-0.000139165
1.86963e-05
-0.000144564
1.62316e-05
-0.000149278
1.41087e-05
-0.000153262
1.19962e-05
-0.000156667
1.01892e-05
-0.000159414
8.24737e-06
-0.000161551
6.41385e-06
-0.000163082
4.59834e-06
-0.000164004
2.77358e-06
-0.000164343
1.05173e-06
-0.00016411
-7.1626e-07
-0.000163258
-2.55432e-06
-0.000161812
-4.36333e-06
-0.000159724
-6.2607e-06
-0.000156966
-8.27652e-06
-0.000153575
-1.02713e-05
-0.000149442
-1.22927e-05
-0.000144661
-1.42646e-05
-0.000139192
-1.64876e-05
-0.000132934
-1.87837e-05
-0.000125874
-2.11827e-05
-0.00011804
-2.35373e-05
-0.000109384
-2.59224e-05
-9.99068e-05
-2.84099e-05
-8.9521e-05
-3.1175e-05
-7.82553e-05
-3.37665e-05
-6.61985e-05
-3.61605e-05
-5.31312e-05
-3.91549e-05
-3.93681e-05
-4.12707e-05
-2.46851e-05
-4.40957e-05
-9.36022e-06
-4.58707e-05
6.81351e-06
-4.84978e-05
2.35507e-05
-5.01614e-05
4.07731e-05
-5.16434e-05
5.84795e-05
-5.30769e-05
7.63526e-05
-5.35934e-05
9.43537e-05
-5.39567e-05
0.000112259
-5.36784e-05
0.000129838
-5.26974e-05
0.00014684
-5.0918e-05
0.000162903
-4.81195e-05
0.00017773
-4.44082e-05
0.000190994
-3.97296e-05
0.000202409
-3.41656e-05
0.000211561
-2.74095e-05
0.000218342
-2.03067e-05
0.000222453
-1.22859e-05
0.000223885
-4.26266e-06
0.000222438
4.27895e-06
0.000218072
1.31131e-05
0.00021101
2.11466e-05
0.000201502
2.84707e-05
0.000189733
3.52487e-05
0.000176008
4.11127e-05
0.000160608
4.61097e-05
0.000143978
4.98109e-05
0.000126369
5.27894e-05
0.000108093
5.47524e-05
8.95807e-05
5.54967e-05
7.09365e-05
5.58705e-05
5.2587e-05
5.50252e-05
3.45074e-05
5.4197e-05
1.71374e-05
5.20413e-05
4.42227e-07
5.00881e-05
-1.54349e-05
4.76147e-05
-3.04214e-05
4.49463e-05
-4.44549e-05
4.20873e-05
-5.75451e-05
3.92642e-05
-6.96834e-05
3.64174e-05
-8.08805e-05
3.35972e-05
-9.11923e-05
3.09399e-05
-0.000100647
2.83673e-05
-0.000109278
2.58932e-05
-0.000117117
2.35301e-05
-0.000124205
2.12644e-05
-0.000130573
1.91011e-05
-0.000136233
1.6978e-05
-0.000141187
1.48587e-05
-0.00014543
1.27189e-05
-0.000148952
1.05639e-05
-0.00015174
8.36059e-06
-0.000153769
6.08395e-06
-0.00015501
3.72549e-06
-0.000155426
1.26272e-06
-0.000154938
-1.47184e-06
-0.000153495
-4.32366e-06
-0.000151104
-7.18462e-06
-0.000147755
-1.00628e-05
-0.000143359
-1.31774e-05
-0.000137954
-1.62151e-05
-0.000131583
-1.91066e-05
-0.000124095
-2.24505e-05
-0.000115638
-2.53938e-05
-0.000106089
-2.86467e-05
-9.5614e-05
-3.14103e-05
-8.42582e-05
-3.4056e-05
-7.18548e-05
-3.71995e-05
-5.85677e-05
-3.98453e-05
-4.46337e-05
-4.18078e-05
-2.99454e-05
-4.40208e-05
-1.47043e-05
-4.56956e-05
1.15353e-06
-4.75469e-05
1.73811e-05
-4.86594e-05
3.37971e-05
-4.92259e-05
5.04728e-05
-5.00025e-05
6.72199e-05
-5.02172e-05
8.37497e-05
-4.95708e-05
0.000100023
-4.88026e-05
0.000115743
-4.71341e-05
0.000130804
-4.51514e-05
0.000144951
-4.241e-05
0.000157955
-3.89757e-05
0.000169701
-3.51813e-05
0.000179972
-3.07522e-05
-2.63295e-05
-3.737e-05
6.59633e-05
-5.29782e-05
6.23945e-05
-6.77725e-05
5.91449e-05
-8.16708e-05
5.55672e-05
-9.45748e-05
5.15975e-05
-0.000106536
4.78347e-05
-0.000117503
4.38561e-05
-0.000127532
4.01094e-05
-0.000136618
3.63499e-05
-0.000144772
3.26166e-05
-0.000152048
2.91061e-05
-0.000158461
2.56564e-05
-0.000164039
2.23053e-05
-0.000168819
1.91171e-05
-0.00017281
1.59792e-05
-0.000176057
1.29925e-05
-0.000178568
1.00653e-05
-0.00018037
7.19417e-06
-0.000181462
4.39342e-06
-0.00018186
1.68428e-06
-0.000181541
-1.23114e-06
-0.000180526
-4.05539e-06
-0.000178865
-6.64482e-06
-0.000176429
-9.74329e-06
-0.000173294
-1.25542e-05
-0.000169341
-1.58667e-05
-0.000164625
-1.88455e-05
-0.000159176
-2.18017e-05
-0.000152823
-2.54301e-05
-0.000145618
-2.88674e-05
-0.000137545
-3.22681e-05
-0.000128472
-3.63065e-05
-0.000118494
-3.99061e-05
-0.000107465
-4.41166e-05
-9.54842e-05
-4.7949e-05
-8.26769e-05
-5.13047e-05
-6.87906e-05
-5.54275e-05
-5.3964e-05
-5.92735e-05
-3.84008e-05
-6.22177e-05
-2.19815e-05
-6.56669e-05
-4.811e-06
-6.85687e-05
1.30024e-05
-7.11692e-05
3.12783e-05
-7.29822e-05
4.96931e-05
-7.35547e-05
6.82522e-05
-7.41037e-05
8.67671e-05
-7.39595e-05
0.000104832
-7.21607e-05
0.000122366
-7.00066e-05
0.000139191
-6.71286e-05
0.000154876
-6.26488e-05
0.00016934
-5.77497e-05
0.000182288
-5.1694e-05
0.000193643
-4.53159e-05
0.000203168
-3.80021e-05
0.000210624
-2.9779e-05
0.00021604
-2.16214e-05
0.000219242
-1.27717e-05
0.000220135
-3.57771e-06
0.000218714
5.56182e-06
0.000214979
1.49667e-05
0.000209134
2.33914e-05
0.000201249
3.14688e-05
0.000191331
3.95871e-05
0.000179604
4.6785e-05
0.000166269
5.32625e-05
0.000151568
5.86359e-05
0.000135701
6.33204e-05
0.000118867
6.72528e-05
0.000101304
7.00994e-05
8.32857e-05
7.19263e-05
6.49952e-05
7.3099e-05
4.65835e-05
7.35072e-05
2.83622e-05
7.2746e-05
1.04904e-05
7.13045e-05
-6.96739e-06
6.98206e-05
-2.37945e-05
6.72387e-05
-3.9896e-05
6.43636e-05
-5.52668e-05
6.13879e-05
-6.96895e-05
5.76678e-05
-8.31698e-05
5.39257e-05
-9.57181e-05
5.01368e-05
-0.000107276
4.61857e-05
-0.00011776
4.19234e-05
-0.000127301
3.81348e-05
-0.000135783
3.39074e-05
-0.000143219
2.97511e-05
-0.000149695
2.59041e-05
-0.000155181
2.19084e-05
-0.000159766
1.83087e-05
-0.000163458
1.47581e-05
-0.000166282
1.13186e-05
-0.000168318
8.11713e-06
-0.00016958
5.0351e-06
-0.000170113
2.15803e-06
-0.000169986
-5.61972e-07
-0.000169171
-3.268e-06
-0.000167696
-5.8937e-06
-0.000165625
-8.26311e-06
-0.000162962
-1.06517e-05
-0.000159725
-1.2958e-05