/*--------------------------------*- C++ -*----------------------------------*\
| =========                 |                                                 |
| \\      /  F ield         | OpenFOAM: The Open Source CFD Toolbox           |
|  \\    /   O peration     | Version:  3.0.1                                 |
|   \\  /    A nd           | Web:      www.OpenFOAM.org                      |
|    \\/     M anipulation  |                                                 |
\*---------------------------------------------------------------------------*/
FoamFile
{
    version     2.0;
    format      ascii;
    class       surfaceScalarField;
    location    "39.4";
    object      alphaPhi;
}
// * * * * * * * * * * * * * * * * * * * * * * * * * * * * * * * * * * * * * //

dimensions      [0 3 -1 0 0 0 0];

internalField   nonuniform List<scalar> 
42423
(
-0.00013057
-6.76059e-06
-0.000122795
-7.77491e-06
-0.000114129
-8.66635e-06
-0.000104501
-9.62777e-06
-9.37362e-05
-1.0765e-05
-8.1982e-05
-1.17543e-05
-6.9123e-05
-1.2859e-05
-5.53625e-05
-1.37606e-05
-4.08522e-05
-1.45104e-05
-2.53221e-05
-1.55301e-05
-8.938e-06
-1.63841e-05
8.09976e-06
-1.70378e-05
2.57893e-05
-1.76896e-05
4.39295e-05
-1.81402e-05
6.24609e-05
-1.85315e-05
8.11719e-05
-1.87111e-05
9.97046e-05
-1.85327e-05
0.000117972
-1.82678e-05
0.000135751
-1.77786e-05
0.000152688
-1.69368e-05
0.000168661
-1.59732e-05
0.000183393
-1.47323e-05
0.000196589
-1.31957e-05
0.000208104
-1.15156e-05
0.000217731
-9.62647e-06
0.000225311
-7.58029e-06
0.000230686
-5.3751e-06
0.0002338
-3.11408e-06
0.000234612
-8.12712e-07
0.000233099
1.51364e-06
0.000229147
3.95153e-06
0.000223088
6.05957e-06
0.000214897
8.19076e-06
0.000204901
9.99563e-06
0.000193254
1.16472e-05
0.000179965
1.32884e-05
0.000165501
1.44642e-05
0.00015002
1.54809e-05
0.000133618
1.64022e-05
0.000116686
1.6932e-05
9.94346e-05
1.72513e-05
8.19643e-05
1.74703e-05
6.45185e-05
1.74458e-05
4.72152e-05
1.73033e-05
3.02883e-05
1.69268e-05
1.3876e-05
1.64123e-05
-1.91959e-06
1.57955e-05
-1.70899e-05
1.51703e-05
-3.15386e-05
1.44486e-05
-4.51966e-05
1.3658e-05
-5.80177e-05
1.28211e-05
-7.00161e-05
1.19983e-05
-8.11407e-05
1.11246e-05
-9.14419e-05
1.03013e-05
-0.000100891
9.44948e-06
-0.00010951
8.61825e-06
-0.000117338
7.82824e-06
-0.000124358
7.0201e-06
-0.000130625
6.2674e-06
-0.000136152
5.52649e-06
-0.000140947
4.79539e-06
-0.00014507
4.12236e-06
-0.000148502
3.43269e-06
-0.000151237
2.73491e-06
-0.000153359
2.12197e-06
-0.000154808
1.44859e-06
-0.000155551
7.42582e-07
-0.000155738
1.87375e-07
-0.000155111
-6.26777e-07
-0.000153804
-1.30725e-06
-0.000151901
-1.90253e-06
-0.000149212
-2.68945e-06
-0.000145764
-3.4476e-06
-0.000141638
-4.1264e-06
-0.000136681
-4.95671e-06
-0.000131003
-5.67844e-06
-0.000124354
-6.64917e-06
-0.000116941
-7.41262e-06
-0.000108691
-8.25037e-06
-9.94972e-05
-9.19393e-06
-8.9566e-05
-9.93132e-06
-7.87518e-05
-1.08142e-05
-6.71537e-05
-1.15983e-05
-5.46788e-05
-1.24749e-05
-4.14228e-05
-1.32562e-05
-2.75147e-05
-1.39081e-05
-1.28935e-05
-1.46214e-05
2.37859e-06
-1.52722e-05
1.82516e-05
-1.58731e-05
3.46501e-05
-1.63986e-05
5.14112e-05
-1.67612e-05
6.84626e-05
-1.70516e-05
8.56598e-05
-1.71973e-05
0.000102804
-1.71442e-05
0.00011972
-1.69164e-05
0.00013625
-1.653e-05
0.000152214
-1.59642e-05
0.000167315
-1.51009e-05
0.000181462
-1.41464e-05
0.000194417
-1.29552e-05
0.000205988
-1.15715e-05
0.000216009
-1.00206e-05
0.000224323
-8.31435e-06
0.000230831
-6.50816e-06
0.000235321
-4.48971e-06
0.000237795
-2.47481e-06
0.000238199
-4.03569e-07
0.000236471
1.72786e-06
0.000232532
3.93911e-06
0.000226485
6.04702e-06
0.000218407
8.07814e-06
0.000208325
1.00816e-05
0.000196447
1.18774e-05
0.000182911
1.35366e-05
0.000167893
1.50175e-05
0.000151627
1.62658e-05
0.000134266
1.73618e-05
0.000116131
1.81343e-05
9.74422e-05
1.8689e-05
7.84182e-05
1.9024e-05
5.93375e-05
1.90807e-05
4.0317e-05
1.90205e-05
2.1658e-05
1.8659e-05
3.48269e-06
1.81753e-05
-1.40412e-05
1.75239e-05
-3.07885e-05
1.67473e-05
-4.67071e-05
1.59186e-05
-6.16543e-05
1.49471e-05
-7.55708e-05
1.39164e-05
-8.85084e-05
1.29376e-05
-0.000100298
1.17894e-05
-0.000111068
1.07697e-05
-0.000120673
9.605e-06
-0.000129194
8.52192e-06
-0.000136673
7.47867e-06
-0.000143078
6.40516e-06
-0.000148521
5.44272e-06
-0.000152926
4.40527e-06
-0.000156454
3.52745e-06
-0.000159165
2.71108e-06
-0.000161003
1.8385e-06
-0.000162139
1.13513e-06
-0.000162542
4.03838e-07
-0.000162257
-2.85842e-07
-0.000161313
-9.43701e-07
-0.000159743
-1.56953e-06
-0.000157563
-2.18002e-06
-0.000154879
-2.68473e-06
-0.000151601
-3.27764e-06
-0.000147798
-3.80349e-06
-0.000143389
-4.40831e-06
-0.000138332
-5.05707e-06
-0.000132773
-5.55924e-06
-0.000126479
-6.29441e-06
-0.00011948
-6.99851e-06
-0.00011181
-7.67062e-06
-0.000103369
-8.44071e-06
-9.41133e-05
-9.25585e-06
-8.41036e-05
-1.00097e-05
-7.32591e-05
-1.08447e-05
-6.1548e-05
-1.17111e-05
-4.9114e-05
-1.24341e-05
-3.58204e-05
-1.32937e-05
-2.17286e-05
-1.40919e-05
-6.90771e-06
-1.4821e-05
8.57191e-06
-1.54798e-05
2.4666e-05
-1.60942e-05
4.12543e-05
-1.65884e-05
5.81436e-05
-1.68894e-05
7.52528e-05
-1.71094e-05
9.23976e-05
-1.71449e-05
0.00010936
-1.69626e-05
0.000125958
-1.6598e-05
0.000141981
-1.60238e-05
0.000157129
-1.51482e-05
0.000171137
-1.40074e-05
0.000183737
-1.26001e-05
0.000194589
-1.08529e-05
0.000203502
-8.91263e-06
0.000210221
-6.71891e-06
0.000214592
-4.37103e-06
0.000216441
-1.84924e-06
0.000215751
6.89593e-07
0.00021239
3.36101e-06
0.00020642
5.97015e-06
0.000197986
8.43369e-06
0.000187214
1.07721e-05
0.000174392
1.28213e-05
0.000159716
1.46764e-05
0.000143479
1.6237e-05
0.000126003
1.74759e-05
0.00010752
1.84834e-05
8.84539e-05
1.90656e-05
6.9004e-05
1.94499e-05
4.94966e-05
1.95073e-05
3.02008e-05
1.92958e-05
1.13261e-05
1.88747e-05
-6.92289e-06
1.82489e-05
-2.44042e-05
1.74813e-05
-4.09776e-05
1.65734e-05
-5.65597e-05
1.5582e-05
-7.11423e-05
1.45825e-05
-8.46207e-05
1.34784e-05
-9.69938e-05
1.2373e-05
-0.000108269
1.12755e-05
-0.000118423
1.01534e-05
-0.000127572
9.14914e-06
-0.000135632
8.06014e-06
-0.000142762
7.1298e-06
-0.000148921
6.15878e-06
-0.000154206
5.28524e-06
-0.000158628
4.42259e-06
-0.000162298
3.66953e-06
-0.000165165
2.867e-06
-0.000167411
2.24565e-06
-0.000168958
1.54691e-06
-0.000169921
9.63243e-07
-0.000170314
3.9305e-07
-0.000170158
-1.55938e-07
-0.00016944
-7.17869e-07
-0.00016812
-1.32048e-06
-0.000166251
-1.86812e-06
-0.00016379
-2.46106e-06
-0.000160718
-3.07242e-06
-0.000157042
-3.67581e-06
-0.000152709
-4.33357e-06
-0.000147688
-5.02039e-06
-0.00014194
-5.74869e-06
-0.000135395
-6.5451e-06
-0.000128052
-7.34311e-06
-0.000119849
-8.20224e-06
-0.000110719
-9.13002e-06
-0.000100609
-1.01106e-05
-8.97106e-05
-1.08983e-05
-7.77836e-05
-1.1927e-05
-6.49362e-05
-1.28475e-05
-5.11485e-05
-1.37877e-05
-3.649e-05
-1.46586e-05
-2.10139e-05
-1.54762e-05
-4.94324e-06
-1.60707e-05
1.17475e-05
-1.66909e-05
2.89275e-05
-1.71801e-05
4.63744e-05
-1.7447e-05
6.392e-05
-1.75457e-05
8.13288e-05
-1.74089e-05
9.83837e-05
-1.7055e-05
0.000114839
-1.64554e-05
0.000130396
-1.55575e-05
0.000144826
-1.44302e-05
0.00015785
-1.30236e-05
0.000169254
-1.14043e-05
0.000178813
-9.55946e-06
0.000186275
-7.46185e-06
0.000191523
-5.24787e-06
0.000194395
-2.87203e-06
0.000194805
-4.1014e-07
0.00019277
2.03448e-06
0.000188237
4.5329e-06
0.000181353
6.88436e-06
0.000172253
9.10023e-06
0.000161098
1.11549e-05
0.000148075
1.30223e-05
0.00013349
1.45852e-05
0.000117522
1.59679e-05
0.000100575
1.6947e-05
8.27923e-05
1.77823e-05
6.45547e-05
1.82375e-05
4.60583e-05
1.84964e-05
2.76119e-05
1.84463e-05
9.39913e-06
1.82127e-05
-8.23953e-06
1.76386e-05
-2.52728e-05
1.70332e-05
-4.14336e-05
1.61608e-05
-5.67058e-05
1.52722e-05
-7.09684e-05
1.42627e-05
-8.41665e-05
1.31981e-05
-9.62748e-05
1.21083e-05
-0.00010726
1.09848e-05
-0.000117058
9.79848e-06
-0.000125702
8.64431e-06
-0.000133268
7.56589e-06
-0.000139772
6.50368e-06
-0.000145455
5.68325e-06
-0.000150313
4.85821e-06
-0.000154521
4.2077e-06
-0.000158239
3.71817e-06
-0.000161419
3.17927e-06
-0.000164033
2.61447e-06
-0.000166195
2.16219e-06
-0.000167707
1.51178e-06
-0.0001687
9.93099e-07
-0.000169034
3.34204e-07
-0.000168709
-3.25187e-07
-0.000167816
-8.92748e-07
-0.000166225
-1.59095e-06
-0.000163805
-2.42053e-06
-0.000160665
-3.13992e-06
-0.000156672
-3.9931e-06
-0.000151677
-4.99497e-06
-0.000145796
-5.88128e-06
-0.000138735
-7.0612e-06
-0.000130626
-8.10807e-06
-0.000121522
-9.10466e-06
-0.000111133
-1.03891e-05
-9.96296e-05
-1.15033e-05
-8.71404e-05
-1.24892e-05
-7.34124e-05
-1.3728e-05
-5.8735e-05
-1.46774e-05
-4.29434e-05
-1.57916e-05
-2.61827e-05
-1.67608e-05
-8.77579e-06
-1.7407e-05
9.43874e-06
-1.82146e-05
2.83097e-05
-1.8871e-05
4.74313e-05
-1.91217e-05
6.67991e-05
-1.93678e-05
8.60879e-05
-1.92889e-05
0.000105178
-1.90905e-05
0.000123818
-1.86399e-05
0.000141597
-1.77789e-05
0.000158316
-1.67191e-05
0.000173675
-1.53587e-05
0.000187369
-1.36941e-05
0.000199261
-1.1892e-05
0.00020909
-9.82963e-06
0.000216696
-7.60573e-06
0.000221916
-5.22e-06
0.000224612
-2.6964e-06
0.000224874
-2.62046e-07
0.000222659
2.21507e-06
0.00021779
4.86925e-06
0.0002106
7.18982e-06
0.000201284
9.31541e-06
0.000189728
1.15559e-05
0.000176344
1.33847e-05
0.000161397
1.49466e-05
0.000145189
1.62081e-05
0.000127898
1.72912e-05
0.000109733
1.81641e-05
9.10621e-05
1.86713e-05
7.21393e-05
1.89228e-05
5.31483e-05
1.8991e-05
3.43533e-05
1.8795e-05
1.58979e-05
1.84553e-05
-2.03397e-06
1.79319e-05
-1.94202e-05
1.73862e-05
-3.60774e-05
1.66572e-05
-5.19151e-05
1.58377e-05
-6.6903e-05
1.49879e-05
-8.09523e-05
1.40493e-05
-9.40333e-05
1.3081e-05
-0.000106138
1.21044e-05
-0.000117255
1.11174e-05
-0.000127415
1.01598e-05
-0.000136613
9.19816e-06
-0.000144884
8.27111e-06
-0.000152288
7.4042e-06
6.45486e-06
-0.000130608
-1.35166e-05
-0.000122836
-1.55471e-05
-0.000114171
-1.73317e-05
-0.000104548
-1.92513e-05
-9.37801e-05
-2.15326e-05
-8.20295e-05
-2.3505e-05
-6.91692e-05
-2.57194e-05
-5.54077e-05
-2.75221e-05
-4.08922e-05
-2.9026e-05
-2.53573e-05
-3.10651e-05
-8.95533e-06
-3.27863e-05
8.07494e-06
-3.40682e-05
2.57801e-05
-3.53949e-05
4.39257e-05
-3.62859e-05
6.24627e-05
-3.70686e-05
8.11888e-05
-3.74374e-05
9.97299e-05
-3.7074e-05
0.000118005
-3.65428e-05
0.000135798
-3.55718e-05
0.000152746
-3.38848e-05
0.000168729
-3.19563e-05
0.000183474
-2.94773e-05
0.000196689
-2.64113e-05
0.000208215
-2.30415e-05
0.000217837
-1.92491e-05
0.000225423
-1.51662e-05
0.000230802
-1.07543e-05
0.000233919
-6.23079e-06
0.000234732
-1.62579e-06
0.000233211
3.03442e-06
0.000229255
7.90738e-06
0.000223195
1.21193e-05
0.000214996
1.639e-05
0.00020499
2.0001e-05
0.000193336
2.33014e-05
0.000180039
2.65858e-05
0.00016556
2.89425e-05
0.000150072
3.09697e-05
0.000133662
3.28117e-05
0.000116714
3.388e-05
9.94564e-05
3.45089e-05
8.1977e-05
3.49496e-05
6.4524e-05
3.48988e-05
4.72191e-05
3.46082e-05
3.02797e-05
3.38662e-05
1.38596e-05
3.28324e-05
-1.93856e-06
3.15937e-05
-1.71137e-05
3.03454e-05
-3.15672e-05
2.89022e-05
-4.52297e-05
2.73205e-05
-5.80565e-05
2.56479e-05
-7.00547e-05
2.39965e-05
-8.11841e-05
2.2254e-05
-9.14908e-05
2.0608e-05
-0.000100943
1.89021e-05
-0.00010956
1.72348e-05
-0.000117393
1.56614e-05
-0.000124419
1.40461e-05
-0.000130684
1.25318e-05
-0.000136213
1.10559e-05
-0.000141012
9.594e-06
-0.000145135
8.24584e-06
-0.000148569
6.86701e-06
-0.000151304
5.46986e-06
-0.00015342
4.23787e-06
-0.000154876
2.90397e-06
-0.000155613
1.48002e-06
-0.000155806
3.7998e-07
-0.000155177
-1.25531e-06
-0.000153867
-2.61806e-06
-0.000151968
-3.80127e-06
-0.000149278
-5.3798e-06
-0.000145808
-6.91752e-06
-0.000141706
-8.22874e-06
-0.000136747
-9.91503e-06
-0.000131056
-1.13696e-05
-0.000124427
-1.32784e-05
-0.000117005
-1.48349e-05
-0.000108753
-1.65028e-05
-9.95561e-05
-1.83905e-05
-8.96256e-05
-1.9862e-05
-7.88128e-05
-2.16272e-05
-6.72018e-05
-2.32094e-05
-5.47178e-05
-2.49591e-05
-4.14658e-05
-2.65083e-05
-2.75569e-05
-2.78172e-05
-1.29337e-05
-2.92446e-05
2.34267e-06
-3.05487e-05
1.82305e-05
-3.17611e-05
3.46351e-05
-3.28034e-05
5.14018e-05
-3.3528e-05
6.84659e-05
-3.41157e-05
8.5663e-05
-3.43945e-05
0.000102814
-3.42955e-05
0.000119736
-3.38383e-05
0.000136277
-3.3071e-05
0.000152241
-3.1929e-05
0.000167384
-3.0244e-05
0.000181528
-2.82903e-05
0.000194487
-2.5914e-05
0.000206068
-2.3153e-05
0.000216106
-2.00588e-05
0.000224428
-1.66367e-05
0.00023094
-1.30199e-05
0.000235437
-8.98657e-06
0.000237926
-4.96381e-06
0.000238332
-8.10478e-07
0.000236593
3.46692e-06
0.00023265
7.88196e-06
0.000226604
1.20927e-05
0.000218526
1.61566e-05
0.000208442
2.01654e-05
0.000196557
2.37617e-05
0.000183
2.70944e-05
0.000167963
3.00541e-05
0.000151675
3.25535e-05
0.000134316
3.47206e-05
0.000116169
3.62818e-05
9.74663e-05
3.73914e-05
7.8415e-05
3.80754e-05
5.93198e-05
3.81759e-05
4.02821e-05
3.80582e-05
2.16098e-05
3.73314e-05
3.42552e-06
3.63595e-05
-1.41159e-05
3.50653e-05
-3.08722e-05
3.35036e-05
-4.67908e-05
3.18372e-05
-6.17565e-05
2.99129e-05
-7.56962e-05
2.78562e-05
-8.86253e-05
2.58667e-05
-0.000100418
2.35816e-05
-0.000111192
2.15441e-05
-0.000120804
1.92167e-05
-0.000129332
1.70506e-05
-0.000136809
1.4955e-05
-0.000143218
1.28142e-05
-0.00014866
1.08854e-05
-0.000153073
8.81815e-06
-0.000156581
7.03476e-06
-0.000159302
5.43231e-06
-0.00016114
3.677e-06
-0.000162278
2.27327e-06
-0.000162678
8.03567e-07
-0.000162384
-5.79909e-07
-0.000161447
-1.8811e-06
-0.000159874
-3.14223e-06
-0.0001577
-4.35446e-06
-0.000155012
-5.37253e-06
-0.000151723
-6.56677e-06
-0.000147922
-7.60411e-06
-0.000143519
-8.81187e-06
-0.000138458
-1.01183e-05
-0.000132894
-1.11227e-05
-0.000126598
-1.25902e-05
-0.000119613
-1.39841e-05
-0.000111928
-1.53555e-05
-0.000103486
-1.68827e-05
-9.42365e-05
-1.85057e-05
-8.42235e-05
-2.00229e-05
-7.3373e-05
-2.16953e-05
-6.16481e-05
-2.34362e-05
-4.92105e-05
-2.48718e-05
-3.59067e-05
-2.65977e-05
-2.18175e-05
-2.81812e-05
-6.9907e-06
-2.9648e-05
8.50155e-06
-3.09722e-05
2.46042e-05
-3.21971e-05
4.1202e-05
-3.31864e-05
5.81103e-05
-3.37979e-05
7.52372e-05
-3.42365e-05
9.23846e-05
-3.42925e-05
0.000109368
-3.39463e-05
0.000125988
-3.32184e-05
0.000142018
-3.20536e-05
0.000157187
-3.03172e-05
0.000171211
-2.80321e-05
0.000183831
-2.52199e-05
0.000194696
-2.17182e-05
0.000203619
-1.7836e-05
0.000210347
-1.34472e-05
0.000214729
-8.75366e-06
0.000216602
-3.72191e-06
0.000215902
1.38876e-06
0.000212526
6.73704e-06
0.00020656
1.19359e-05
0.000198115
1.68785e-05
0.000187321
2.15666e-05
0.000174485
2.56571e-05
0.000159795
2.93657e-05
0.00014354
3.24921e-05
0.000126053
3.49635e-05
0.000107553
3.6983e-05
8.84613e-05
3.81571e-05
6.90152e-05
3.8896e-05
4.94637e-05
3.90588e-05
3.01525e-05
3.86069e-05
1.12664e-05
3.77608e-05
-6.9987e-06
3.6514e-05
-2.44921e-05
3.49746e-05
-4.10784e-05
3.31597e-05
-5.66757e-05
3.11793e-05
-7.12554e-05
2.91622e-05
-8.47338e-05
2.69568e-05
-9.71101e-05
2.47494e-05
-0.000108391
2.25566e-05
-0.000118557
2.03188e-05
-0.000127707
1.82998e-05
-0.000135768
1.61212e-05
-0.00014289
1.42515e-05
-0.000149056
1.23248e-05
-0.000154343
1.05718e-05
-0.00015879
8.87011e-06
-0.000162437
7.31644e-06
-0.000165294
5.72351e-06
-0.000167537
4.48927e-06
-0.000169065
3.07499e-06
-0.000170052
1.94947e-06
-0.00017044
7.80999e-07
-0.00017028
-3.15501e-07
-0.000169561
-1.43669e-06
-0.00016822
-2.66173e-06
-0.000166372
-3.71638e-06
-0.000163916
-4.91704e-06
-0.000160843
-6.14567e-06
-0.000157174
-7.34471e-06
-0.000152833
-8.67485e-06
-0.000147814
-1.00389e-05
-0.000142062
-1.15006e-05
-0.000135528
-1.30798e-05
-0.000128179
-1.46917e-05
-0.000119976
-1.64057e-05
-0.000110844
-1.82616e-05
-0.000100777
-2.01773e-05
-8.98255e-05
-2.18502e-05
-7.78935e-05
-2.38591e-05
-6.5037e-05
-2.57041e-05
-5.12426e-05
-2.75822e-05
-3.65785e-05
-2.93228e-05
-2.10954e-05
-3.09594e-05
-5.01266e-06
-3.21536e-05
1.16854e-05
-3.33891e-05
2.88801e-05
-3.43748e-05
4.63453e-05
-3.49124e-05
6.39011e-05
-3.51016e-05
8.13265e-05
-3.48344e-05
9.84008e-05
-3.41295e-05
0.000114873
-3.29276e-05
0.000130443
-3.11282e-05
0.000144892
-2.88788e-05
0.000157936
-2.60678e-05
0.000169346
-2.28147e-05
0.000178911
-1.91245e-05
0.000186388
-1.4939e-05
0.000191646
-1.05056e-05
0.000194529
-5.75552e-06
0.000194943
-8.24032e-07
0.000192895
4.08222e-06
0.000188356
9.07189e-06
0.000181471
1.37694e-05
0.000172358
1.82127e-05
0.000161188
2.23244e-05
0.000148148
2.60627e-05
0.000133548
2.91846e-05
0.000117561
3.19546e-05
0.000100586
3.39227e-05
8.27908e-05
3.5577e-05
6.45354e-05
3.64928e-05
4.60448e-05
3.69869e-05
2.75827e-05
3.69083e-05
9.38806e-06
3.64073e-05
-8.29336e-06
3.532e-05
-2.53358e-05
3.40757e-05
-4.15048e-05
3.23299e-05
-5.67844e-05
3.05518e-05
-7.1052e-05
2.85302e-05
-8.42472e-05
2.63933e-05
-9.63587e-05
2.42199e-05
-0.000107353
2.19787e-05
-0.000117155
1.96009e-05
-0.000125799
1.72884e-05
-0.000133363
1.51296e-05
-0.000139859
1.29994e-05
-0.00014554
1.13643e-05
-0.000150397
9.71551e-06
-0.000154592
8.40303e-06
-0.000158304
7.43041e-06
-0.000161482
6.35716e-06
-0.00016409
5.22262e-06
-0.000166251
4.32294e-06
-0.000167762
3.02298e-06
-0.000168758
1.98857e-06
-0.000169093
6.69736e-07
-0.000168771
-6.47678e-07
-0.000167879
-1.78476e-06
-0.00016629
-3.17961e-06
-0.000163871
-4.83961e-06
-0.000160732
-6.27952e-06
-0.000156739
-7.98589e-06
-0.000151747
-9.98734e-06
-0.000145866
-1.17616e-05
-0.000138805
-1.41222e-05
-0.000130697
-1.62166e-05
-0.000121592
-1.821e-05
-0.000111202
-2.07791e-05
-9.96966e-05
-2.30084e-05
-8.72032e-05
-2.49828e-05
-7.34718e-05
-2.74595e-05
-5.87904e-05
-2.93589e-05
-4.29935e-05
-3.15887e-05
-2.62263e-05
-3.35281e-05
-8.81297e-06
-3.48204e-05
9.39389e-06
-3.64216e-05
2.82683e-05
-3.77456e-05
4.73957e-05
-3.82492e-05
6.67658e-05
-3.8738e-05
8.60489e-05
-3.85722e-05
0.000105154
-3.81955e-05
0.000123821
-3.73072e-05
0.000141617
-3.55748e-05
0.000158335
-3.34372e-05
0.000173702
-3.07265e-05
0.000187424
-2.74164e-05
0.000199334
-2.38017e-05
0.000209174
-1.96698e-05
0.000216791
-1.52228e-05
0.000222019
-1.04476e-05
0.000224721
-5.39936e-06
0.000224984
-5.25087e-07
0.000222767
4.43179e-06
0.000217903
9.73364e-06
0.000210706
1.43866e-05
0.000201383
1.86382e-05
0.00018982
2.31185e-05
0.000176426
2.67794e-05
0.000161464
2.99076e-05
0.000145242
3.243e-05
0.000127943
3.45907e-05
0.000109771
3.63358e-05
9.10832e-05
3.7359e-05
7.21495e-05
3.78565e-05
5.31483e-05
3.79921e-05
3.4344e-05
3.75993e-05
1.58803e-05
3.69189e-05
-2.05096e-06
3.58631e-05
-1.94388e-05
3.4774e-05
-3.61008e-05
3.33192e-05
-5.19417e-05
3.16786e-05
-6.6932e-05
2.99781e-05
-8.09837e-05
2.81009e-05
-9.4066e-05
2.61633e-05
-0.000106169
2.42074e-05
-0.000117287
2.22355e-05
-0.000127449
2.03218e-05
-0.000136648
1.83965e-05
-0.000144918
1.6541e-05
-0.000152323
1.48092e-05
1.29073e-05
-0.000130679
-2.02699e-05
-0.000122909
-2.33169e-05
-0.000114243
-2.59976e-05
-0.000104625
-2.88693e-05
-9.38542e-05
-3.23035e-05
-8.21085e-05
-3.52508e-05
-6.92481e-05
-3.85799e-05
-5.54875e-05
-4.12828e-05
-4.09608e-05
-4.35528e-05
-2.54218e-05
-4.66042e-05
-9.0047e-06
-4.92034e-05
8.05908e-06
-5.11321e-05
2.57732e-05
-5.31092e-05
4.39333e-05
-5.44461e-05
6.24961e-05
-5.56316e-05
8.12302e-05
-5.61715e-05
9.97846e-05
-5.56285e-05
0.000118083
-5.48418e-05
0.000135894
-5.33824e-05
0.000152854
-5.08454e-05
0.000168859
-4.7961e-05
0.000183628
-4.42466e-05
0.000196851
-3.96338e-05
0.000208388
-3.4579e-05
0.00021802
-2.8881e-05
0.000225619
-2.27657e-05
0.000231009
-1.61435e-05
0.000234131
-9.35292e-06
0.000234933
-2.42786e-06
0.000233383
4.5842e-06
0.000229419
1.18714e-05
0.000223357
1.81805e-05
0.000215144
2.46031e-05
0.000205122
3.00232e-05
0.000193456
3.49676e-05
0.000180148
3.98936e-05
0.000165641
4.34497e-05
0.000150138
4.64722e-05
0.000133723
4.92263e-05
0.000116741
5.08624e-05
9.94714e-05
5.17781e-05
8.19764e-05
5.24446e-05
6.45116e-05
5.23635e-05
4.72159e-05
5.19038e-05
3.02484e-05
5.08337e-05
1.38141e-05
4.92666e-05
-1.99103e-06
4.73989e-05
-1.71737e-05
4.5528e-05
-3.16334e-05
4.33618e-05
-4.52992e-05
4.09863e-05
-5.81295e-05
3.84782e-05
-7.01264e-05
3.59934e-05
-8.12565e-05
3.33841e-05
-9.15644e-05
3.09159e-05
-0.000101021
2.83592e-05
-0.00010963
2.58436e-05
-0.000117463
2.34941e-05
-0.000124493
2.10759e-05
-0.000130754
1.87931e-05
-0.000136281
1.65825e-05
-0.000141073
1.4386e-05
-0.000145193
1.23657e-05
-0.000148625
1.02995e-05
-0.000151358
8.20301e-06
-0.00015348
6.35945e-06
-0.000154937
4.36056e-06
-0.000155661
2.20395e-06
-0.00015586
5.79245e-07
-0.000155234
-1.88148e-06
-0.000153918
-3.93354e-06
-0.000152027
-5.69227e-06
-0.000149337
-8.07026e-06
-0.000145866
-1.03888e-05
-0.000141773
-1.23217e-05
-0.000136809
-1.48785e-05
-0.000131104
-1.70752e-05
-0.000124502
-1.988e-05
-0.000117075
-2.22624e-05
-0.00010882
-2.47584e-05
-9.9622e-05
-2.75882e-05
-8.96968e-05
-2.97874e-05
-7.8886e-05
-3.2438e-05
-6.7271e-05
-3.48246e-05
-5.4773e-05
-3.74572e-05
-4.15284e-05
-3.97531e-05
-2.76269e-05
-4.17188e-05
-1.29972e-05
-4.38745e-05
2.28702e-06
-4.58331e-05
1.81807e-05
-4.76549e-05
3.45931e-05
-4.92159e-05
5.13676e-05
-5.03026e-05
6.84388e-05
-5.1187e-05
8.56393e-05
-5.15951e-05
0.000102803
-5.14597e-05
0.000119732
-5.07667e-05
0.000136292
-4.96317e-05
0.00015226
-4.7897e-05
0.000167412
-4.53959e-05
0.000181571
-4.24496e-05
0.000194541
-3.8884e-05
0.000206137
-3.47491e-05
0.00021618
-3.01021e-05
0.000224511
-2.49675e-05
0.000231029
-1.95384e-05
0.000235554
-1.35108e-05
0.000238047
-7.45753e-06
0.000238455
-1.21878e-06
0.000236716
5.20579e-06
0.000232756
1.1842e-05
0.0002267
1.81493e-05
0.000218592
2.42638e-05
0.000208531
3.02265e-05
0.000196625
3.56677e-05
0.000183053
4.06665e-05
0.000167994
4.51125e-05
0.000151669
4.8879e-05
0.000134321
5.20683e-05
0.000116141
5.44623e-05
9.74367e-05
5.60953e-05
7.83543e-05
5.71578e-05
5.9229e-05
5.73011e-05
4.01812e-05
5.7106e-05
2.14954e-05
5.60172e-05
3.30117e-06
5.45537e-05
-1.42614e-05
5.26279e-05
-3.10243e-05
5.02665e-05
-4.69235e-05
4.77364e-05
-6.19181e-05
4.49074e-05
-7.58797e-05
4.18178e-05
-8.87914e-05
3.87784e-05
-0.000100623
3.54132e-05
-0.000111363
3.22843e-05
-0.00012098
2.88338e-05
-0.000129509
2.55791e-05
-0.000136979
2.24254e-05
-0.000143386
1.92213e-05
-0.000148827
1.63261e-05
-0.000153237
1.32276e-05
-0.000156733
1.0531e-05
-0.000159457
8.15651e-06
-0.000161301
5.52107e-06
-0.000162435
3.40721e-06
-0.000162822
1.19001e-06
-0.000162522
-8.79534e-07
-0.000161593
-2.81023e-06
-0.000160013
-4.72225e-06
-0.000157843
-6.52429e-06
-0.000155138
-8.07808e-06
-0.000151834
-9.87035e-06
-0.000148057
-1.13817e-05
-0.000143659
-1.32096e-05
-0.000138642
-1.51355e-05
-0.000133037
-1.67272e-05
-0.000126748
-1.8879e-05
-0.000119768
-2.09645e-05
-0.000112076
-2.30478e-05
-0.000103639
-2.532e-05
-9.43974e-05
-2.7747e-05
-8.43798e-05
-3.00406e-05
-7.35193e-05
-3.25559e-05
-6.17946e-05
-3.5161e-05
-4.93561e-05
-3.73103e-05
-3.6043e-05
-3.9911e-05
-2.19521e-05
-4.22722e-05
-7.11703e-06
-4.44832e-05
8.38621e-06
-4.64756e-05
2.4489e-05
-4.83001e-05
4.10997e-05
-4.97972e-05
5.80327e-05
-5.07311e-05
7.51685e-05
-5.13725e-05
9.23321e-05
-5.14563e-05
0.000109333
-5.09472e-05
0.000125963
-4.98489e-05
0.000142023
-4.81138e-05
0.000157223
-4.55174e-05
0.000171255
-4.20637e-05
0.000183886
-3.78513e-05
0.00019479
-3.26223e-05
0.000203735
-2.67808e-05
0.000210485
-2.01979e-05
0.00021487
-1.31392e-05
0.000216749
-5.60088e-06
0.000216036
2.10165e-06
0.000212651
1.01224e-05
0.000206684
1.79026e-05
0.000198229
2.53327e-05
0.000187412
3.23838e-05
0.000174548
3.8521e-05
0.000159847
4.40669e-05
0.000143566
4.87724e-05
0.000126057
5.24728e-05
0.000107531
5.55089e-05
8.84105e-05
5.72775e-05
6.89564e-05
5.835e-05
4.93683e-05
5.86468e-05
3.00318e-05
5.79434e-05
1.11342e-05
5.66583e-05
-7.14286e-06
5.4791e-05
-2.46409e-05
5.24726e-05
-4.12317e-05
4.97505e-05
-5.68493e-05
4.67969e-05
-7.14315e-05
4.37444e-05
-8.4908e-05
4.04333e-05
-9.72876e-05
3.71289e-05
-0.000108564
3.38331e-05
-0.000118736
3.04904e-05
-0.000127874
2.74385e-05
-0.000135929
2.41755e-05
-0.000143035
2.13574e-05
-0.000149213
1.85034e-05
-0.000154506
1.58651e-05
-0.000158963
1.33264e-05
-0.000162592
1.09457e-05
-0.000165487
8.61858e-06
-0.000167692
6.69454e-06
-0.000169194
4.577e-06
-0.00017019
2.94536e-06
-0.000170568
1.15877e-06
-0.000170407
-4.76824e-07
-0.0001697
-2.14315e-06
-0.000168343
-4.01873e-06
-0.000166507
-5.55308e-06
-0.000164055
-7.36867e-06
-0.000160976
-9.22498e-06
-0.000157323
-1.09976e-05
-0.000152973
-1.30243e-05
-0.000147955
-1.50569e-05
-0.00014219
-1.72662e-05
-0.000135686
-1.95839e-05
-0.000128344
-2.2034e-05
-0.000120135
-2.46145e-05
-0.000111008
-2.73888e-05
-0.000100958
-3.02271e-05
-8.99794e-05
-3.28288e-05
-7.80413e-05
-3.57973e-05
-6.51863e-05
-3.85591e-05
-5.13858e-05
-4.13828e-05
-3.67074e-05
-4.40013e-05
-2.12373e-05
-4.64296e-05
-5.13033e-06
-4.82607e-05
1.15838e-05
-5.01034e-05
2.87947e-05
-5.15858e-05
4.6274e-05
-5.23918e-05
6.38424e-05
-5.26701e-05
8.12866e-05
-5.22787e-05
9.83787e-05
-5.12217e-05
0.00011487
-4.94193e-05
0.000130468
-4.67259e-05
0.000144937
-4.33476e-05
0.000157999
-3.91306e-05
0.000169431
-3.42467e-05
0.000179014
-2.87076e-05
0.000186509
-2.24336e-05
0.000191778
-1.57754e-05
0.000194677
-8.65427e-06
0.000195074
-1.22185e-06
0.000193005
6.15121e-06
0.000188469
1.36078e-05
0.000181576
2.06629e-05
0.000172451
2.73376e-05
0.000161273
3.35017e-05
0.000148213
3.91222e-05
0.000133594
4.38034e-05
0.000117581
4.7968e-05
0.000100561
5.09427e-05
8.27551e-05
5.33825e-05
6.44716e-05
5.47762e-05
4.59506e-05
5.55078e-05
2.75294e-05
5.53294e-05
9.31997e-06
5.46166e-05
-8.38127e-06
5.30212e-05
-2.54393e-05
5.11337e-05
-4.16199e-05
4.85104e-05
-5.69052e-05
4.58371e-05
-7.11812e-05
4.28062e-05
-8.43806e-05
3.95927e-05
-9.6505e-05
3.63443e-05
-0.000107506
3.298e-05
-0.000117305
2.93999e-05
-0.000125947
2.59305e-05
-0.000133504
2.26868e-05
-0.00013999
1.94854e-05
-0.000145656
1.70294e-05
-0.000150489
1.45491e-05
-0.000154677
1.25906e-05
-0.000158381
1.11343e-05
-0.000161541
9.51717e-06
-0.000164139
7.82063e-06
-0.000166297
6.48085e-06
-0.000167806
4.53277e-06
-0.000168808
2.9902e-06
-0.000169145
1.00621e-06
-0.000168827
-9.6486e-07
-0.000167937
-2.67495e-06
-0.000166352
-4.7651e-06
-0.000163937
-7.25408e-06
-0.000160804
-9.41308e-06
-0.00015681
-1.19801e-05
-0.000151826
-1.49711e-05
-0.000145947
-1.76401e-05
-0.000138889
-2.11806e-05
-0.000130783
-2.43228e-05
-0.000121679
-2.73137e-05
-0.00011129
-3.11686e-05
-9.97839e-05
-3.45144e-05
-8.72863e-05
-3.74804e-05
-7.35517e-05
-4.11942e-05
-5.88668e-05
-4.40438e-05
-4.30644e-05
-4.73912e-05
-2.62897e-05
-5.03029e-05
-8.8682e-06
-5.2242e-05
9.33965e-06
-5.46295e-05
2.82166e-05
-5.66227e-05
4.73449e-05
-5.73776e-05
6.67245e-05
-5.81177e-05
8.60283e-05
-5.78761e-05
0.000105151
-5.73181e-05
0.000123825
-5.59811e-05
0.000141629
-5.33788e-05
0.000158378
-5.01867e-05
0.000173779
-4.61274e-05
0.000187523
-4.11603e-05
0.00019945
-3.57297e-05
0.000209308
-2.95276e-05
0.000216944
-2.28589e-05
0.000222183
-1.56864e-05
0.000224903
-8.11939e-06
0.00022517
-7.91973e-07
0.000222946
6.65531e-06
0.000218087
1.45921e-05
0.00021088
2.15939e-05
0.000201541
2.79771e-05
0.000189967
3.46922e-05
0.000176558
4.01888e-05
0.000161568
4.48975e-05
0.00014532
4.86775e-05
0.000128007
5.19038e-05
0.000109827
5.45159e-05
9.11088e-05
5.60769e-05
7.21565e-05
5.68087e-05
5.31386e-05
5.701e-05
3.43185e-05
5.64193e-05
1.58411e-05
5.53963e-05
-2.09668e-06
5.38008e-05
-1.9491e-05
5.21683e-05
-3.61582e-05
4.99864e-05
-5.20045e-05
4.75249e-05
-6.69982e-05
4.49717e-05
-8.10506e-05
4.21532e-05
-9.41345e-05
3.92472e-05
-0.000106239
3.63123e-05
-0.000117357
3.33526e-05
-0.000127518
3.04829e-05
-0.000136717
2.75953e-05
-0.000144985
2.48096e-05
-0.000152391
2.22148e-05
1.93552e-05
-0.000130784
-2.70188e-05
-0.000123018
-3.10832e-05
-0.000114354
-3.46615e-05
-0.000104741
-3.84822e-05
-9.39661e-05
-4.30787e-05
-8.22274e-05
-4.69897e-05
-6.93671e-05
-5.14403e-05
-5.56103e-05
-5.50396e-05
-4.10639e-05
-5.80994e-05
-2.55192e-05
-6.21491e-05
-9.08111e-06
-6.56416e-05
8.03098e-06
-6.82443e-05
2.57699e-05
-7.08481e-05
4.39548e-05
-7.26311e-05
6.25449e-05
-7.42219e-05
8.12963e-05
-7.4923e-05
9.98765e-05
-7.42088e-05
0.000118204
-7.31696e-05
0.000136037
-7.12157e-05
0.000153027
-6.7835e-05
0.000169061
-6.39948e-05
0.000183855
-5.90416e-05
0.0001971
-5.28787e-05
0.000208666
-4.61451e-05
0.000218307
-3.85224e-05
0.000225923
-3.03819e-05
0.000231322
-2.15422e-05
0.000234444
-1.24749e-05
0.000235231
-3.21544e-06
0.000233647
6.16894e-06
0.000229667
1.5851e-05
0.000223601
2.42465e-05
0.000215367
3.28373e-05
0.000205319
4.00703e-05
0.000193635
4.66523e-05
0.000180315
5.32128e-05
0.000165761
5.80041e-05
0.000150237
6.19963e-05
0.000133807
6.5656e-05
0.000116781
6.78887e-05
9.94933e-05
6.90654e-05
8.19752e-05
6.99626e-05
6.44921e-05
6.98466e-05
4.72048e-05
6.91911e-05
3.02036e-05
6.78349e-05
1.37466e-05
6.57236e-05
-2.07016e-06
6.32156e-05
-1.72645e-05
6.07223e-05
-3.17336e-05
5.7831e-05
-4.54046e-05
5.46573e-05
-5.82421e-05
5.13157e-05
-7.02364e-05
4.79877e-05
-8.13699e-05
4.45176e-05
-9.16788e-05
4.12248e-05
-0.000101138
3.78182e-05
-0.000109742
3.44481e-05
-0.000117576
3.13279e-05
-0.000124612
2.81123e-05
-0.000130862
2.50426e-05
-0.000136385
2.21059e-05
-0.000141172
1.91726e-05
-0.000145289
1.64827e-05
-0.00014872
1.37304e-05
-0.000151447
1.09301e-05
-0.000153567
8.47987e-06
-0.000155028
5.82152e-06
-0.000155733
2.90872e-06
-0.000155947
7.92819e-07
-0.000155321
-2.50693e-06
-0.000153999
-5.25624e-06
-0.000152118
-7.57313e-06
-0.000149428
-1.07598e-05
-0.000145955
-1.38622e-05
-0.000141875
-1.64016e-05
-0.000136906
-1.98481e-05
-0.000131161
-2.28196e-05
-0.000124619
-2.64225e-05
-0.000117182
-2.96992e-05
-0.000108926
-3.30144e-05
-9.97264e-05
-3.6788e-05
-8.98064e-05
-3.97075e-05
-7.89969e-05
-4.32477e-05
-6.73727e-05
-4.64489e-05
-5.48445e-05
-4.99856e-05
-4.16386e-05
-5.2959e-05
-2.77314e-05
-5.56262e-05
-1.30918e-05
-5.85142e-05
2.19633e-06
-6.11213e-05
1.81068e-05
-6.35655e-05
3.45182e-05
-6.56274e-05
5.13028e-05
-6.70873e-05
6.83909e-05
-6.82752e-05
8.55974e-05
-6.88017e-05
0.000102781
-6.8643e-05
0.000119717
-6.77029e-05
0.000136313
-6.62277e-05
0.00015228
-6.38647e-05
0.000167447
-6.05624e-05
0.000181638
-5.66412e-05
0.000194622
-5.18677e-05
0.000206228
-4.63553e-05
0.000216285
-4.01587e-05
0.000224631
-3.33143e-05
0.000231152