/*--------------------------------*- C++ -*----------------------------------*\
| =========                 |                                                 |
| \\      /  F ield         | OpenFOAM: The Open Source CFD Toolbox           |
|  \\    /   O peration     | Version:  3.0.1                                 |
|   \\  /    A nd           | Web:      www.OpenFOAM.org                      |
|    \\/     M anipulation  |                                                 |
\*---------------------------------------------------------------------------*/
FoamFile
{
    version     2.0;
    format      ascii;
    class       volScalarField;
    location    "33";
    object      p;
}
// * * * * * * * * * * * * * * * * * * * * * * * * * * * * * * * * * * * * * //

dimensions      [1 -1 -2 0 0 0 0];

internalField   nonuniform List<scalar> 
21420
(
4037.63
4069.94
4101.78
4132.73
4162.45
4190.42
4216.27
4239.57
4259.97
4277.21
4291.02
4301.17
4307.53
4309.84
4308.01
4302.24
4292.69
4279.4
4262.62
4242.58
4219.62
4194.04
4166.2
4136.51
4105.38
4073.19
4040.34
4007.19
3974.12
3941.43
3909.55
3883.48
3854.12
3825.81
3798.92
3773.61
3749.94
3727.96
3707.69
3689.11
3672.19
3656.91
3643.21
3631.06
3620.4
3611.18
3603.37
3596.92
3591.79
3587.97
3585.45
3584.23
3584.5
3586.06
3588.98
3593.28
3599.02
3606.23
3614.98
3625.29
3637.23
3650.81
3666.1
3683.1
3701.81
3722.24
3744.36
3768.1
3793.43
3820.23
3848.41
3877.92
3908.93
3940.38
3972.35
4004.62
4036.94
4069.02
4100.55
4131.22
4160.69
4188.64
4214.73
4238.61
4259.98
4278.55
4294.04
4306.23
4314.92
4319.98
4321.24
4318.81
4312.64
4302.75
4289.3
4272.45
4252.4
4229.4
4203.73
4175.72
4145.71
4114.06
4081.18
4047.46
4013.3
3979.1
3945.23
3912.04
3879.83
3848.87
3819.36
3791.49
3765.36
3741.06
3718.63
3698.09
3679.42
3662.6
3647.6
3634.38
3622.9
3613.11
3604.96
3598.41
3593.42
3589.93
3587.91
3587.34
3588.14
3590.29
3593.76
3598.56
3604.67
3612.08
3620.83
3630.94
3642.41
3655.31
3669.65
3685.49
3702.86
3721.79
3742.3
3764.38
3788.03
3813.2
3839.82
3867.8
3897
3927.81
3958.99
3990.85
4023.1
4055.43
4087.48
4118.87
4149.2
4178.07
4205.06
4229.76
4251.78
4270.75
4286.33
4298.24
4306.23
4310.1
4309.76
4305.19
4296.46
4283.63
4266.92
4246.59
4222.97
4196.43
4167.39
4136.3
4103.61
4069.78
4035.28
4000.55
3965.99
3932
3898.89
3866.95
3836.41
3807.45
3780.2
3754.74
3731.12
3709.36
3689.43
3671.32
3654.96
3640.31
3627.3
3615.88
3605.99
3597.59
3590.64
3585.11
3580.97
3578.19
3576.8
3576.81
3578.16
3580.91
3585.08
3590.69
3597.8
3606.45
3616.67
3628.52
3642.02
3657.21
3674.11
3692.72
3713.04
3735.05
3758.71
3783.96
3810.72
3838.87
3868.27
3898.72
3930.26
3962.19
3994.48
4026.78
4058.76
4090.04
4120.24
4148.94
4175.77
4200.32
4222.24
4241.16
4256.79
4268.85
4277.13
4281.47
4281.74
4277.98
4270.22
4258.51
4243.05
4224.07
4201.86
4176.74
4149.1
4119.34
4087.89
4055.18
4021.66
3987.74
3953.82
3920.3
3887.47
3855.65
3825.08
3795.97
3768.49
3742.76
3718.87
3696.88
3676.8
3658.64
3642.37
3627.95
3615.33
3604.44
3595.22
3587.61
3581.54
3576.93
3573.77
3572.03
3571.7
3572.68
3575
3578.63
3583.57
3589.82
3597.36
3606.24
3616.47
3628.08
3641.11
3655.62
3671.65
3689.25
3708.45
3729.28
3751.74
3775.82
3801.47
3828.58
3857.04
3886.59
3916.69
3947.71
3979.32
4011.08
4042.59
4073.45
4103.24
4131.51
4157.87
4181.91
4203.27
4221.61
4236.64
4248.13
4255.92
4259.86
4259.84
4255.91
4248.2
4236.74
4221.78
4203.55
4182.36
4158.5
4132.38
4104.37
4074.86
4044.24
4012.9
3981.23
3949.61
3918.51
3891.02
3861.6
3832.81
3805.05
3778.55
3753.42
3729.76
3707.63
3687.07
3668.1
3650.76
3635.04
3620.96
3608.5
3597.67
3588.46
3580.86
3574.85
3570.4
3567.49
3566.12
3566.55
3568.58
3572.18
3577.32
3584.01
3592.27
3939.51
3971.84
4003.69
4034.66
4064.4
4092.39
4118.25
4141.57
4161.99
4179.24
4193.06
4203.22
4209.58
4211.91
4210.06
4204.29
4194.73
4181.43
4164.63
4144.58
4121.6
4096.01
4068.15
4038.45
4007.29
3975.09
3942.23
3909.07
3875.98
3843.28
3811.37
3785.34
3755.95
3727.64
3700.74
3675.43
3651.76
3629.79
3609.51
3590.94
3574.02
3558.74
3545.05
3532.9
3522.24
3513.03
3505.21
3498.76
3493.64
3489.82
3487.3
3486.08
3486.35
3487.91
3490.83
3495.13
3500.86
3508.07
3516.81
3527.13
3539.06
3552.64
3567.93
3584.92
3603.64
3624.06
3646.18
3669.93
3695.26
3722.06
3750.24
3779.76
3810.77
3842.23
3874.21
3906.49
3938.82
3970.92
4002.46
4033.15
4062.63
4090.6
4116.7
4140.59
4161.98
4180.56
4196.07
4208.26
4216.96
4222.02
4223.29
4220.85
4214.68
4204.79
4191.33
4174.47
4154.4
4131.38
4105.7
4077.67
4047.64
4015.98
3983.08
3949.35
3915.17
3880.96
3847.07
3813.87
3781.66
3750.69
3721.18
3693.3
3667.17
3642.87
3620.45
3599.9
3581.24
3564.42
3549.43
3536.21
3524.73
3514.94
3506.8
3500.25
3495.26
3491.77
3489.75
3489.18
3489.98
3492.13
3495.61
3500.41
3506.51
3513.93
3522.68
3532.78
3544.25
3557.14
3571.49
3587.32
3604.69
3623.62
3644.13
3666.21
3689.86
3715.03
3741.65
3769.64
3798.84
3829.66
3860.84
3892.71
3924.97
3957.31
3989.38
4020.79
4051.14
4080.03
4107.03
4131.75
4153.79
4172.78
4188.37
4200.29
4208.29
4212.17
4211.83
4207.25
4198.52
4185.67
4168.95
4148.6
4124.96
4098.41
4069.35
4038.23
4005.52
3971.68
3937.16
3902.42
3867.85
3833.84
3800.72
3768.78
3738.23
3709.27
3682.01
3656.55
3632.94
3611.17
3591.25
3573.14
3556.79
3542.14
3529.14
3517.72
3507.83
3499.43
3492.48
3486.95
3482.81
3480.04
3478.65
3478.65
3480
3482.75
3486.92
3492.53
3499.64
3508.28
3518.51
3530.35
3543.85
3559.04
3575.93
3594.54
3614.86
3636.87
3660.54
3685.79
3712.55
3740.7
3770.11
3800.57
3832.11
3864.05
3896.35
3928.67
3960.67
3991.96
4022.17
4050.9
4077.74
4102.31
4124.24
4143.18
4158.82
4170.89
4179.18
4183.53
4183.8
4180.03
4172.27
4160.55
4145.08
4126.09
4103.86
4078.72
4051.06
4021.28
3989.81
3957.09
3923.55
3889.61
3855.68
3822.14
3789.31
3757.48
3726.9
3697.79
3670.31
3644.58
3620.69
3598.69
3578.61
3560.46
3544.19
3529.77
3517.15
3506.27
3497.06
3489.45
3483.38
3478.77
3475.62
3473.88
3473.55
3474.53
3476.85
3480.48
3485.42
3491.66
3499.2
3508.08
3518.31
3529.92
3542.95
3557.46
3573.48
3591.08
3610.28
3631.11
3653.57
3677.65
3703.29
3730.41
3758.87
3788.43
3818.54
3849.57
3881.19
3912.97
3944.49
3975.37
4005.18
4033.46
4059.84
4083.9
4105.28
4123.63
4138.67
4150.18
4157.97
4161.91
4161.89
4157.96
4150.24
4138.78
4123.8
4105.56
4084.34
4060.48
4034.34
4006.3
3976.78
3946.15
3914.79
3883.11
3851.47
3820.34
3792.89
3763.45
3734.65
3706.89
3680.38
3655.25
3631.59
3609.46
3588.9
3569.93
3552.59
3536.87
3522.79
3510.34
3499.51
3490.3
3482.7
3476.68
3472.23
3469.33
3467.96
3468.39
3470.42
3474.02
3479.16
3485.86
3494.11
3841.38
3873.74
3905.63
3936.63
3966.4
3994.42
4020.32
4043.67
4064.12
4081.4
4095.24
4105.41
4111.78
4114.14
4112.26
4106.49
4096.91
4083.59
4066.77
4046.69
4023.67
3998.04
3970.15
3940.41
3909.22
3876.99
3844.1
3810.91
3777.8
3745.07
3713.1
3687.15
3657.71
3629.38
3602.48
3577.17
3553.51
3531.53
3511.26
3492.69
3475.78
3460.51
3446.82
3434.68
3424.02
3414.81
3407
3400.56
3395.44
3391.62
3389.1
3387.88
3388.14
3389.7
3392.62
3396.91
3402.64
3409.85
3418.59
3428.89
3440.82
3454.4
3469.68
3486.68
3505.39
3525.81
3547.93
3571.68
3597.01
3623.82
3652
3681.54
3712.57
3744.04
3776.04
3808.34
3840.69
3872.81
3904.38
3935.09
3964.61
3992.61
4018.74
4042.66
4064.08
4082.69
4098.22
4110.43
4119.14
4124.21
4125.5
4123.04
4116.86
4106.96
4093.48
4076.59
4056.51
4033.46
4007.74
3979.68
3949.62
3917.93
3884.99
3851.22
3817.02
3782.77
3748.87
3715.64
3683.41
3652.43
3622.91
3595.03
3568.9
3544.6
3522.18
3501.64
3482.98
3466.17
3451.18
3437.97
3426.49
3416.71
3408.57
3402.03
3397.04
3393.55
3391.54
3390.97
3391.78
3393.93
3397.4
3402.2
3408.31
3415.72
3424.47
3434.56
3446.04
3458.92
3473.26
3489.09
3506.46
3525.38
3545.88
3567.96
3591.61
3616.78
3643.42
3671.41
3700.61
3731.45
3762.64
3794.53
3826.82
3859.19
3891.28
3922.72
3953.11
3982.04
4009.08
4033.83
4055.91
4074.93
4090.55
4102.49
4110.51
4114.41
4114.05
4109.47
4100.73
4087.86
4071.11
4050.73
4027.06
4000.46
3971.36
3940.21
3907.46
3873.58
3839.03
3804.25
3769.65
3735.62
3702.49
3670.53
3639.97
3611
3583.74
3558.28
3534.67
3512.91
3493
3474.89
3458.55
3443.91
3430.91
3419.49
3409.61
3401.22
3394.27
3388.74
3384.6
3381.83
3380.45
3380.44
3381.79
3384.54
3388.7
3394.31
3401.42
3410.05
3420.27
3432.11
3445.61
3460.79
3477.68
3496.29
3516.61
3538.62
3562.28
3587.54
3614.31
3642.47
3671.88
3702.37
3733.91
3765.88
3798.2
3830.55
3862.57
3893.9
3924.15
3952.91
3979.79
4004.39
4026.36
4045.32
4060.99
4073.08
4081.39
4085.75
4086.02
4082.24
4074.47
4062.74
4047.24
4028.22
4005.95
3980.78
3953.08
3923.27
3891.76
3859
3825.43
3791.46
3757.5
3723.94
3691.08
3659.24
3628.65
3599.53
3572.04
3546.31
3522.42
3500.42
3480.35
3462.2
3445.94
3431.52
3418.91
3408.04
3398.83
3391.23
3385.16
3380.56
3377.41
3375.68
3375.34
3376.33
3378.65
3382.27
3387.21
3393.46
3401
3409.87
3420.1
3431.7
3444.73
3459.23
3475.25
3492.84
3512.03
3532.86
3555.32
3579.4
3605.05
3632.17
3660.64
3690.21
3720.34
3751.38
3783.03
3814.84
3846.39
3877.31
3907.15
3935.48
3961.89
3985.98
4007.39
4025.78
4040.84
4052.36
4060.17
4064.12
4064.09
4060.15
4052.42
4040.94
4025.94
4007.67
3986.42
3962.52
3936.35
3908.28
3878.73
3848.06
3816.67
3784.96
3753.29
3722.12
3694.72
3665.25
3636.42
3608.65
3582.14
3557.01
3533.34
3511.21
3490.65
3471.69
3454.35
3438.64
3424.56
3412.11
3401.28
3392.07
3384.47
3378.46
3374.01
3371.1
3369.74
3370.17
3372.2
3375.8
3380.94
3387.64
3395.89
3743.23
3775.64
3807.57
3838.63
3868.45
3896.53
3922.48
3945.87
3966.37
3983.69
3997.56
4007.76
4014.14
4016.53
4014.62
4008.84
3999.23
3985.88
3969.02
3948.89
3925.83
3900.15
3872.2
3842.41
3811.17
3778.89
3745.96
3712.73
3679.58
3646.81
3614.75
3588.92
3559.4
3531.05
3504.15
3478.83
3455.17
3433.2
3412.94
3394.37
3377.47
3362.21
3348.53
3336.39
3325.74
3316.54
3308.74
3302.3
3297.18
3293.36
3290.85
3289.64
3289.89
3291.44
3294.35
3298.64
3304.36
3311.57
3320.29
3330.59
3342.51
3356.09
3371.36
3388.35
3407.06
3427.48
3449.6
3473.35
3498.69
3525.51
3553.7
3583.25
3614.31
3645.81
3677.83
3710.16
3742.54
3774.7
3806.32
3837.07
3866.63
3894.67
3920.85
3944.82
3966.28
3984.93
4000.49
4012.73
4021.47
4026.55
4027.85
4025.37
4019.18
4009.26
3995.76
3978.84
3958.71
3935.62
3909.86
3881.75
3851.64
3819.89
3786.91
3753.09
3718.84
3684.55
3650.61
3617.35
3585.1
3554.09
3524.57
3496.68
3470.55
3446.25
3423.83
3403.29
3384.64
3367.84
3352.86
3339.65
3328.19
3318.41
3310.27
3303.74
3298.76
3295.28
3293.28
3292.71
3293.51
3295.67
3299.15
3303.94
3310.05
3317.46
3326.2
3336.29
3347.76
3360.64
3374.97
3390.79
3408.15
3427.07
3447.57
3469.65
3493.29
3518.47
3545.11
3573.11
3602.33
3633.18
3664.39
3696.31
3728.64
3761.05
3793.19
3824.68
3855.12
3884.1
3911.2
3936.01
3958.13
3977.2
3992.87
4004.84
4012.89
4016.81
4016.45
4011.86
4003.09
3990.2
3973.41
3952.98
3929.25
3902.6
3873.44
3842.22
3809.41
3775.47
3740.87
3706.04
3671.4
3637.34
3604.18
3572.2
3541.63
3512.65
3485.39
3459.93
3436.32
3414.57
3394.66
3376.57
3360.23
3345.6
3332.61
3321.21
3311.33
3302.94
3296
3290.47
3286.34
3283.57
3282.19
3282.18
3283.52
3286.27
3290.43
3296.03
3303.13
3311.76
3321.97
3333.8
3347.29
3362.47
3379.36
3397.96
3418.28
3440.29
3463.96
3489.22
3516
3544.17
3573.6
3604.12
3635.66
3667.67
3700.03
3732.42
3764.49
3795.87
3826.16
3854.97
3881.91
3906.57
3928.58
3947.59
3963.29
3975.42
3983.75
3988.13
3988.4
3984.61
3976.82
3965.06
3949.53
3930.46
3908.15
3882.93
3855.17
3825.3
3793.73
3760.92
3727.29
3693.28
3659.28
3625.68
3592.8
3560.93
3530.32
3501.19
3473.69
3447.95
3424.06
3402.07
3382
3363.86
3347.6
3333.2
3320.6
3309.73
3300.54
3292.94
3286.89
3282.29
3279.15
3277.42
3277.08
3278.07
3280.39
3284.02
3288.96
3295.2
3302.73
3311.61
3321.83
3333.42
3346.44
3360.93
3376.94
3394.53
3413.71
3434.53
3456.99
3481.07
3506.73
3533.86
3562.35
3591.94
3622.08
3653.16
3684.85
3716.7
3748.3
3779.27
3809.17
3837.55
3864.02
3888.16
3909.62
3928.05
3943.15
3954.69
3962.51
3966.47
3966.46
3962.5
3954.75
3943.24
3928.2
3909.89
3888.59
3864.64
3838.42
3810.29
3780.69
3749.98
3718.55
3686.79
3655.07
3623.82
3596.53
3567
3538.14
3510.35
3483.83
3458.7
3435.03
3412.9
3392.34
3373.38
3356.04
3340.33
3326.25
3313.81
3302.98
3293.78
3286.18
3280.17
3275.73
3272.82
3271.47
3271.9
3273.93
3277.53
3282.67
3289.37
3297.62
3645.07
3677.54
3709.54
3740.66
3770.55
3798.7
3824.71
3848.18
3868.73
3886.1
3900.02
3910.25
3916.64
3919.07
3917.15
3911.34
3901.7
3888.3
3871.39
3851.2
3828.07
3802.32
3774.31
3744.45
3713.14
3680.79
3647.8
3614.52
3581.33
3548.51
3516.35
3490.63
3461.02
3432.64
3405.73
3380.41
3356.76
3334.79
3314.54
3295.98
3279.09
3263.84
3250.17
3238.04
3227.41
3218.22
3210.42
3203.98
3198.87
3195.06
3192.55
3191.34
3191.57
3193.13
3196.04
3200.32
3206.03
3213.22
3221.94
3232.23
3244.14
3257.71
3272.97
3289.96
3308.66
3329.08
3351.2
3374.96
3400.3
3427.13
3455.33
3484.89
3516
3547.53
3579.59
3611.95
3644.38
3676.59
3708.26
3739.07
3768.69
3796.79
3823.03
3847.06
3868.58
3887.29
3902.89
3915.17
3923.93
3929.03
3930.35
3927.86
3921.65
3911.7
3898.17
3881.2
3861.02
3837.87
3812.05
3783.87
3753.69
3721.88
3688.83
3654.94
3620.63
3586.29
3552.29
3519
3486.71
3455.68
3426.14
3398.24
3372.1
3347.81
3325.39
3304.87
3286.22
3269.43
3254.46
3241.27
3229.81
3220.04
3211.92
3205.39
3200.42
3196.95
3194.95
3194.39
3195.2
3197.35
3200.84
3205.63
3211.73
3219.14
3227.88
3237.96
3249.42
3262.29
3276.61
3292.43
3309.78
3328.69
3349.18
3371.26
3394.9
3420.08
3446.73
3474.75
3503.99
3534.84
3566.09
3598.06
3630.43
3662.9
3695.1
3726.66
3757.17
3786.22
3813.39
3838.28
3860.47
3879.61
3895.33
3907.35
3915.42
3919.37
3919.02
3914.42
3905.62
3892.68
3875.84
3855.35
3831.54
3804.81
3775.57
3744.27
3711.38
3677.37
3642.69
3607.8
3573.11
3539
3505.8
3473.8
3443.21
3414.22
3386.95
3361.49
3337.89
3316.14
3296.25
3278.17
3261.85
3247.23
3234.25
3222.86
3212.99
3204.61
3197.67
3192.15
3188.02
3185.25
3183.87
3183.86
3185.2
3187.94
3192.09
3197.69
3204.78
3213.41
3223.61
3235.43
3248.91
3264.08
3280.96
3299.56
3319.88
3341.89
3365.56
3390.83
3417.61
3445.8
3475.26
3505.81
3537.36
3569.42
3601.83
3634.27
3666.4
3697.85
3728.21
3757.1
3784.1
3808.83
3830.9
3849.98
3865.74
3877.9
3886.26
3890.65
3890.94
3887.14
3879.33
3867.53
3851.95
3832.83
3810.45
3785.15
3757.32
3727.37
3695.73
3662.84
3629.15
3595.07
3561.02
3527.37
3494.45
3462.55
3431.92
3402.77
3375.26
3349.52
3325.62
3303.63
3283.57
3265.44
3249.19
3234.8
3222.22
3211.36
3202.18
3194.6
3188.55
3183.97
3180.83
3179.11
3178.77
3179.76
3182.09
3185.71
3190.65
3196.89
3204.42
3213.29
3223.5
3235.08
3248.09
3262.57
3278.57
3296.15
3315.32
3336.13
3358.59
3382.67
3408.33
3435.48
3463.99
3493.6
3523.77
3554.89
3586.64
3618.55
3650.21
3681.25
3711.22
3739.67
3766.22
3790.43
3811.95
3830.44
3845.58
3857.17
3865.01
3868.98
3868.98
3865
3857.21
3845.67
3830.58
3812.21
3790.85
3766.83
3740.54
3712.35
3682.68
3651.9
3620.41
3588.6
3556.81
3525.47
3498.31
3468.69
3439.79
3411.99
3385.45
3360.32
3336.65
3314.51
3293.96
3275
3257.67
3241.96
3227.89
3215.44
3204.62
3195.43
3187.83
3181.82
3177.38
3174.49
3173.13
3173.56
3175.59
3179.2
3184.34
3191.04
3199.29
3546.89
3579.43
3611.51
3642.72
3672.7
3700.93
3727.04
3750.58
3771.21
3788.65
3802.62
3812.89
3819.3
3821.75
3819.83
3814
3804.3
3790.86
3773.87
3753.61
3730.4
3704.56
3676.46
3646.51
3615.11
3582.69
3549.62
3516.29
3483.03
3450.15
3417.9
3392.25
3362.56
3334.16
3307.24
3281.92
3258.26
3236.31
3216.06
3197.52
3180.64
3165.4
3151.75
3139.64
3129.01
3119.83
3112.05
3105.62
3100.51
3096.71
3094.2
3092.99
3093.21
3094.77
3097.66
3101.94
3107.63
3114.82
3123.52
3133.8
3145.7
3159.25
3174.51
3191.48
3210.18
3230.6
3252.72
3276.48
3301.83
3328.67
3356.9
3386.48
3417.64
3449.21
3481.31
3513.72
3546.21
3578.47
3610.21
3641.09
3670.79
3698.97
3725.28
3749.39
3770.98
3789.75
3805.42
3817.74
3826.54
3831.66
3832.99
3830.49
3824.26
3814.28
3800.7
3783.68
3763.43
3740.21
3714.31
3686.05
3655.78
3623.88
3590.75
3556.78
3522.4
3487.98
3453.93
3420.58
3388.25
3357.19
3327.62
3299.71
3273.57
3249.28
3226.87
3206.36
3187.72
3170.95
3155.99
3142.81
3131.36
3121.61
3113.49
3106.98
3102.02
3098.56
3096.57
3096.01
3096.83
3098.99
3102.47
3107.27
3113.37
3120.78
3129.51
3139.58
3151.03
3163.89
3178.2
3194
3211.34
3230.24
3250.72
3272.8
3296.44
3321.63
3348.29
3376.33
3405.62
3436.43
3467.75
3499.77
3532.2
3564.73
3597.01
3628.65
3659.25
3688.39
3715.66
3740.64
3762.92
3782.13
3797.93
3810.01
3818.12
3822.09
3821.75
3817.14
3808.3
3795.31
3778.4
3757.83
3733.93
3707.1
3677.76
3646.36
3613.37
3579.26
3544.5
3509.53
3474.77
3440.6
3407.36
3375.32
3344.71
3315.7
3288.43
3262.97
3239.37
3217.64
3197.76
3179.69
3163.39
3148.79
3135.82
3124.44
3114.59
3106.22
3099.29
3093.77
3089.64
3086.88
3085.5
3085.48
3086.83
3089.56
3093.71
3099.3
3106.37
3114.98
3125.17
3136.99
3150.46
3165.62
3182.49
3201.09
3221.4
3243.41
3267.08
3292.36
3319.16
3347.37
3376.85
3407.44
3439.02
3471.14
3503.61
3536.12
3568.33
3599.85
3630.3
3659.27
3686.36
3711.18
3733.34
3752.49
3768.31
3780.53
3788.93
3793.34
3793.65
3789.83
3781.98
3770.14
3754.5
3735.31
3712.84
3687.45
3659.53
3629.48
3597.75
3564.77
3530.99
3496.84
3462.72
3429.01
3396.04
3364.1
3333.44
3304.27
3276.74
3250.99
3227.1
3205.11
3185.06
3166.93
3150.71
3136.33
3123.76
3112.93
3103.76
3096.19
3090.16
3085.59
3082.46
3080.74
3080.4
3081.4
3083.73
3087.36
3092.29
3098.53
3106.05
3114.91
3125.11
3136.69
3149.68
3164.14
3180.13
3197.69
3216.86
3237.66
3260.11
3284.2
3309.87
3337.03
3365.56
3395.21
3425.41
3456.58
3488.39
3520.38
3552.13
3583.25
3613.31
3641.86
3668.49
3692.79
3714.4
3732.95
3748.16
3759.79
3767.66
3771.63
3771.64
3767.66
3759.82
3748.23
3733.08
3714.64
3693.2
3669.09
3642.71
3614.44
3584.68
3553.83
3522.27
3490.38
3458.51
3427.05
3400.06
3370.33
3341.38
3313.55
3287.01
3261.86
3238.19
3216.06
3195.51
3176.55
3159.22
3143.52
3129.45
3117.01
3106.2
3097.01
3089.42
3083.42
3078.98
3076.09
3074.73
3075.17
3077.2
3080.81
3085.95
3092.65
3100.9
3448.7
3481.33
3513.51
3544.81
3574.9
3603.24
3629.45
3653.09
3673.81
3691.33
3705.36
3715.68
3722.12
3724.58
3722.66
3716.8
3707.05
3693.54
3676.48
3656.13
3632.81
3606.87
3578.66
3548.61
3517.11
3484.59
3451.44
3418.02
3384.7
3351.75
3319.41
3293.79
3264.02
3235.59
3208.66
3183.34
3159.69
3137.75
3117.51
3098.98
3082.12
3066.9
3053.26
3041.17
3030.56
3021.39
3013.62
3007.2
3002.1
2998.3
2995.8
2994.59
2994.8
2996.35
2999.24
3003.5
3009.18
3016.35
3025.04
3035.3
3047.19
3060.73
3075.97
3092.94
3111.63
3132.05
3154.16
3177.93
3203.29
3230.15
3258.39
3288
3319.23
3350.84
3382.99
3415.46
3448.01
3480.35
3512.17
3543.14
3572.93
3601.2
3627.6
3651.81
3673.49
3692.33
3708.07
3720.45
3729.29
3734.43
3735.78
3733.28
3727.01
3717
3703.36
3686.27
3665.95
3642.64
3616.64
3588.28
3557.91
3525.91
3492.68
3458.61
3424.13
3389.64
3355.51
3322.1
3289.72
3258.62
3229.03
3201.1
3174.96
3150.67
3128.27
3107.76
3089.15
3072.39
3057.45
3044.28
3032.85
3023.11
3015.01
3008.51
3003.56
3000.11
2998.14
2997.59
2998.41
3000.57
3004.06
3008.85
3014.95
3022.35
3031.08
3041.14
3052.58
3065.42
3079.72
3095.51
3112.83
3131.72
3152.2
3174.26
3197.91
3223.1
3249.77
3277.84
3307.18
3337.96
3369.35
3401.43
3433.94
3466.56
3498.92
3530.67
3561.37
3590.62
3618
3643.09
3665.48
3684.79
3700.67
3712.82
3720.99
3724.98
3724.66
3720.03
3711.14
3698.09
3681.09
3660.42
3636.42
3609.47
3580
3548.48
3515.37
3481.15
3446.28
3411.22
3376.38
3342.14
3308.84
3276.76
3246.12
3217.1
3189.82
3164.36
3140.77
3119.05
3099.19
3081.14
3064.86
3050.28
3037.33
3025.97
3016.13
3007.77
3000.85
2995.34
2991.22
2988.46
2987.08
2987.06
2988.4
2991.12
2995.26
3000.84
3007.9
3016.5
3026.67
3038.47
3051.93
3067.08
3083.95
3102.54
3122.85
3144.86
3168.53
3193.82
3220.63
3248.87
3278.38
3309.02
3340.63
3372.82
3405.36
3437.95
3470.25
3501.87
3532.42
3561.5
3588.7
3613.62
3635.88
3655.12
3671.03
3683.31
3691.75
3696.19
3696.5
3692.68
3684.79
3672.9
3657.19
3637.9
3615.34
3589.84
3561.8
3531.64
3499.79
3466.71
3432.82
3398.58
3364.37
3330.59
3297.56
3265.58
3234.88
3205.68
3178.14
3152.38
3128.49
3106.51
3086.47
3068.35
3052.14
3037.79
3025.24
3014.42
3005.27
2997.72
2991.7
2987.15
2984.04
2982.33
2981.99
2982.99
2985.32
2988.95
2993.88
3000.11
3007.63
3016.48
3026.67
3038.23
3051.21
3065.65
3081.62
3099.17
3118.32
3139.11
3161.56
3185.65
3211.33
3238.51
3267.08
3296.76
3326.99
3358.23
3390.12
3422.2
3454.04
3485.27
3515.44
3544.1
3570.84
3595.25
3616.95
3635.59
3650.87
3662.55
3670.46
3674.45
3674.46
3670.46
3662.58
3650.93
3635.7
3617.17
3595.64
3571.43
3544.95
3516.56
3486.71
3455.76
3424.11
3392.14
3360.18
3328.57
3301.77
3271.91
3242.91
3215.05
3188.49
3163.34
3139.66
3117.53
3096.98
3078.03
3060.7
3045.01
3030.95
3018.52
3007.71
2998.52
2990.94
2984.94
2980.51
2977.63
2976.28
2976.71
2978.75
2982.36
2987.5
2994.2
3002.45
3350.49
3383.22
3415.52
3446.94
3477.15
3505.61
3531.94
3555.7
3576.53
3594.13
3608.24
3618.61
3625.09
3627.56
3625.65
3619.75
3609.94
3596.35
3579.2
3558.74
3535.31
3509.25
3480.91
3450.74
3419.12
3386.49
3353.23
3319.73
3286.33
3253.3
3220.88
3195.24
3165.4
3136.94
3110.01
3084.68
3061.04
3039.1
3018.89
3000.37
2983.53
2968.33
2954.71
2942.63
2932.04
2922.89
2915.13
2908.73
2903.64
2899.85
2897.34
2896.14
2896.34
2897.88
2900.76
2905
2910.67
2917.82
2926.49
2936.74
2948.6
2962.13
2977.36
2994.31
3013
3033.41
3055.53
3079.31
3104.68
3131.55
3159.82
3189.46
3220.76
3252.42
3284.64
3317.17
3349.8
3382.23
3414.14
3445.21
3475.11
3503.48
3530
3554.31
3576.09
3595.03
3610.85
3623.3
3632.19
3637.36
3638.71
3636.21
3629.91
3619.85
3606.15
3588.98
3568.56
3545.15
3519.05
3490.57
3460.08
3427.96
3394.61
3360.43
3325.84
3291.25
3257.03
3223.55
3191.11
3159.97
3130.35
3102.41
3076.26
3051.97
3029.58
3009.09
2990.49
2973.75
2958.83
2945.68
2934.27
2924.54
2916.46
2909.97
2905.04
2901.61
2899.64
2899.1
2899.93
2902.1
2905.59
2910.39
2916.48
2923.88
2932.59
2942.64
2954.06
2966.89
2981.17
2996.94
3014.25
3033.13
3053.6
3075.66
3099.3
3124.5
3151.19
3179.28
3208.67
3239.44
3270.9
3303.06
3335.65
3368.36
3400.84
3432.7
3463.53
3492.91
3520.42
3545.63
3568.14
3587.57
3603.55
3615.79
3624.01
3628.04
3627.73
3623.08
3614.14
3601.02
3583.93
3563.14
3539
3511.91
3482.31
3450.64
3417.39
3383.04
3348.05
3312.87
3277.93
3243.62
3210.26
3178.13
3147.46
3118.41
3091.12
3065.67
3042.09
3020.38
3000.54
2982.52
2966.26
2951.7
2938.78
2927.43
2917.61
2909.26
2902.35
2896.85
2892.73
2889.98
2888.6
2888.58
2889.91
2892.63
2896.75
2902.32
2909.37
2917.95
2928.11
2939.89
2953.34
2968.48
2985.33
3003.91
3024.22
3046.22
3069.91
3095.2
3122.04
3150.3
3179.85
3210.54
3242.2
3274.46
3307.09
3339.78
3372.18
3403.91
3434.59
3463.79
3491.12
3516.16
3538.53
3557.88
3573.88
3586.24
3594.73
3599.2
3599.53
3595.69
3587.75
3575.8
3560
3540.61
3517.93
3492.31
3464.14
3433.84
3401.86
3368.64
3334.64
3300.29
3265.99
3232.13
3199.03
3166.98
3136.25
3107.02
3079.46
3053.69
3029.79
3007.82
2987.79
2969.69
2953.5
2939.17
2926.64
2915.85
2906.72
2899.19
2893.19
2888.66
2885.56
2883.85
2883.52
2884.53
2886.86
2890.49
2895.42
2901.64
2909.15
2917.99
2928.17
2939.71
2952.67
2967.1
2983.05
3000.57
3019.7
3040.48
3062.93
3087.02
3112.71
3139.92
3168.52
3198.26
3228.52
3259.83
3291.82
3324
3355.95
3387.31
3417.61
3446.39
3473.26
3497.8
3519.61
3538.35
3553.71
3565.46
3573.41
3577.42
3577.43
3573.41
3565.48
3553.75
3538.44
3519.82
3498.16
3473.84
3447.23
3418.73
3388.76
3357.7
3325.95
3293.88
3261.81
3230.04
3203.43
3173.43
3144.37
3116.48
3089.9
3064.74
3041.06
3018.93
2998.38
2979.44
2962.12
2946.43
2932.38
2919.95
2909.16
2899.98
2892.4
2886.41
2881.99
2879.11
2877.76
2878.2
2880.25
2883.86
2889
2895.69
2903.94
3252.26
3285.12
3317.54
3349.1
3379.45
3408.05
3434.52
3458.41
3479.36
3497.07
3511.27
3521.7
3528.22
3530.71
3528.79
3522.85
3512.97
3499.3
3482.04
3461.46
3437.9
3411.7
3383.22
3352.9
3321.14
3288.38
3255.01
3221.4
3187.91
3154.81
3122.31
3096.6
3066.69
3038.22
3011.27
2985.95
2962.31
2940.39
2920.18
2901.69
2884.87
2869.69
2856.1
2844.04
2833.47
2824.34
2816.6
2810.2
2805.12
2801.34
2798.84
2797.63
2797.83
2799.35
2802.22
2806.45
2812.1
2819.23
2827.88
2838.11
2849.96
2863.46
2878.68
2895.62
2914.29
2934.7
2956.82
2980.61
3005.99
3032.88
3061.18
3090.85
3122.23
3153.96
3186.24
3218.86
3251.58
3284.1
3316.12
3347.3
3377.32
3405.82
3432.46
3456.89
3478.79
3497.84
3513.75
3526.28
3535.23
3540.43
3541.8
3539.29
3532.96
3522.84
3509.06
3491.8
3471.28
3447.76
3421.52
3392.92
3362.29
3330.03
3296.54
3262.23
3227.52
3192.81
3158.5
3124.94
3092.43
3061.24
3031.59
3003.63
2977.47
2953.19
2930.81
2910.34
2891.76
2875.03
2860.13
2847.01
2835.62
2825.91
2817.85
2811.38
2806.46
2803.04
2801.1
2800.56
2801.4
2803.58
2807.08
2811.87
2817.96
2825.35
2834.05
2844.09
2855.5
2868.31
2882.56
2898.32
2915.61
2934.47
2954.92
2976.98
3000.62
3025.83
3052.53
3080.65
3110.09
3140.86
3172.41
3204.65
3237.34
3270.16
3302.76
3334.75
3365.72
3395.25
3422.91
3448.27
3470.92
3490.48
3506.58
3518.9
3527.2
3531.26
3530.97
3526.3
3517.3
3504.1
3486.89
3465.97
3441.69
3414.44
3384.67
3352.84
3319.43
3284.92
3249.79
3214.49
3179.44
3145.04
3111.6
3079.42
3048.71
3019.64
2992.34
2966.89
2943.32
2921.64
2901.82
2883.82
2867.59
2853.06
2840.16
2828.84
2819.03
2810.7
2803.8
2798.31
2794.2
2791.45
2790.07
2790.04
2791.37
2794.08
2798.19
2803.74
2810.78
2819.34
2829.48
2841.24
2854.67
2869.79
2886.64
2905.21
2925.51
2947.52
2971.2
2996.52
3023.37
3051.66
3081.26
3112
3143.72
3176.06
3208.79
3241.58
3274.11
3305.97
3336.78
3366.13
3393.6
3418.79
3441.29
3460.76
3476.86
3489.31
3497.87
3502.37
3502.71
3498.86
3490.87
3478.84
3462.95
3443.44
3420.63
3394.86
3366.53
3336.08
3303.95
3270.59
3236.45
3201.97
3167.56
3133.6
3100.42
3068.32
3037.54
3008.27
2980.69
2954.91
2931.01
2909.04
2889.03
2870.95
2854.78
2840.47
2827.97
2817.21
2808.11
2800.6
2794.62
2790.11
2787.03
2785.33
2785
2786.02
2788.35
2791.98
2796.91
2803.12
2810.63
2819.46
2829.62
2841.14
2854.07
2868.48
2884.4
2901.91
2921.02
2941.78
2964.22
2988.32
3014.02
3041.25
3069.9
3099.68
3129.99
3161.39
3193.48
3225.78
3257.87
3289.37
3319.81
3348.75
3375.76
3400.44
3422.38
3441.23
3456.69
3468.51
3476.51
3480.54
3480.56
3476.51
3468.52
3456.72
3441.3
3422.56
3400.78
3376.32
3349.57
3320.93
3290.82
3259.64
3227.78
3195.6
3163.41
3131.48
3105.04
3074.89
3045.76
3017.84
2991.25
2966.07
2942.39
2920.26
2899.72
2880.78
2863.47
2847.79
2833.74
2821.33
2810.54
2801.36
2793.8
2787.82
2783.4
2780.53
2779.19
2779.63
2781.68
2785.29
2790.44
2797.13
2805.37
3154.01
3187
3219.58
3251.29
3281.8
3310.56
3337.18
3361.22
3382.31
3400.14
3414.43
3424.94
3431.5
3434
3432.09
3426.1
3416.15
3402.38
3385
3364.28
3340.57
3314.21
3285.57
3255.09
3223.18
3190.27
3156.77
3123.05
3089.46
3056.27
3023.7
2997.87
2967.91
2939.41
2912.45
2887.13
2863.5
2841.59
2821.41
2802.93
2786.14
2770.99
2757.42
2745.39
2734.84
2725.73
2718
2711.62
2706.56
2702.78
2700.29
2699.07
2699.26
2700.78
2703.63
2707.84
2713.47
2720.58
2729.21
2739.41
2751.24
2764.72
2779.92
2796.85
2815.51
2835.92
2858.04
2881.83
2907.23
2934.14
2962.47
2992.17
3023.66
3055.45
3087.81
3120.51
3153.33
3185.97
3218.11
3249.42
3279.58
3308.21
3334.99
3359.56
3381.59
3400.76
3416.79
3429.4
3438.41
3443.66
3445.04
3442.52
3436.15
3425.97
3412.11
3394.75
3374.11
3350.45
3324.07
3295.32
3264.54
3232.12
3198.48
3164.03
3129.17
3094.34
3059.91
3026.26
2993.67
2962.43
2932.74
2904.76
2878.59
2854.32
2831.95
2811.5
2792.94
2776.24
2761.37
2748.27
2736.9
2727.21
2719.17
2712.72
2707.82
2704.42
2702.49
2701.97
2702.82
2705.01
2708.51
2713.3
2719.39
2726.77
2735.46
2745.48
2756.87
2769.66
2783.89
2799.63
2816.89
2835.74
2856.18
2878.22
2901.87
2927.08
2953.8
2981.96
3011.44
3042.24
3073.86
3106.2
3138.99
3171.94
3204.67
3236.81
3267.95
3297.64
3325.47
3351
3373.81
3393.52
3409.74
3422.18
3430.55
3434.66
3434.38
3429.68
3420.62
3407.32
3389.99
3368.92
3344.47
3317.04
3287.08
3255.07
3221.48
3186.8
3151.51
3116.07
3080.9
3046.39
3012.88
2980.63
2949.88
2920.79
2893.48
2868.02
2844.47
2822.8
2803.01
2785.05
2768.85
2754.34
2741.48
2730.18
2720.39
2712.08
2705.19
2699.71
2695.61
2692.87
2691.49
2691.46
2692.78
2695.48
2699.57
2705.11
2712.12
2720.66
2730.78
2742.52
2755.93
2771.04
2787.87
2806.43
2826.72
2848.73
2872.43
2897.75
2924.63
2952.95
2982.6
3013.41
3045.19
3077.63
3110.46
3143.38
3176.04
3208.05
3239.02
3268.53
3296.16
3321.5
3344.16
3363.77
3379.99
3392.53
3401.17
3405.71
3406.06
3402.19
3394.14
3382.03
3366.02
3346.39
3323.42
3297.49
3268.99
3238.37
3206.06
3172.53
3138.24
3103.62
3069.09
3035.02
3001.76
2969.58
2938.74
2909.45
2881.84
2856.05
2832.14
2810.18
2790.18
2772.13
2755.98
2741.71
2729.24
2718.5
2709.43
2701.95
2696
2691.51
2688.44
2686.75
2686.43
2687.45
2689.78
2693.41
2698.34
2704.55
2712.04
2720.86
2731
2742.5
2755.42
2769.79
2785.69
2803.17
2822.26
2843.01
2865.44
2889.54
2915.25
2942.52
2971.22
3001.05
3031.41
3062.91
3095.12
3127.55
3159.79
3191.44
3222.06
3251.15
3278.34
3303.17
3325.26
3344.24
3359.81
3371.72
3379.77
3383.83
3383.84
3379.76
3371.71
3359.81
3344.28
3325.42
3303.49
3278.87
3251.97
3223.17
3192.91
3161.59
3129.59
3097.29
3064.98
3032.9
3006.55
2976.27
2947.09
2919.13
2892.52
2867.33
2843.65
2821.52
2800.98
2782.05
2764.74
2749.07
2735.04
2722.63
2711.85
2702.69
2695.13
2689.16
2684.75
2681.9
2680.56
2681.01
2683.06
2686.67
2691.82
2698.51
2706.75
3055.75
3088.89
3121.63
3153.51
3184.2
3213.13
3239.92
3264.14
3285.37
3303.34
3317.74
3328.33
3334.94
3337.47
3335.54
3329.5
3319.47
3305.59
3288.07
3267.21
3243.33
3216.79
3187.97
3157.31
3125.23
3092.16
3058.51
3024.66
2990.97
2957.69
2925.06
2899.04
2869.03
2840.52
2813.55
2788.23
2764.61
2742.71
2722.55
2704.11
2687.34
2672.21
2658.68
2646.67
2636.15
2627.06
2619.36
2612.99
2607.94
2604.17
2601.68
2600.46
2600.65
2602.15
2604.99
2609.18
2614.78
2621.87
2630.47
2640.65
2652.45
2665.91
2681.09
2698
2716.65
2737.05
2759.18
2782.98
2808.39
2835.33
2863.69
2893.43
2925.03
2956.9
2989.34
3022.14
3055.07
3087.83
3120.1
3151.56
3181.87
3210.66
3237.6
3262.32
3284.5
3303.81
3319.94
3332.66
3341.74
3347.03
3348.43
3345.9
3339.48
3329.23
3315.28
3297.81
3277.04
3253.23
3226.7
3197.78
3166.82
3134.24
3100.42
3065.8
3030.8
2995.82
2961.26
2927.51
2894.84
2863.54
2833.8
2805.8
2779.63
2755.36
2733.01
2712.58
2694.04
2677.38
2662.53
2649.46
2638.11
2628.45
2620.43
2614
2609.12
2605.74
2603.83
2603.33
2604.19