/*--------------------------------*- C++ -*----------------------------------*\
| =========                 |                                                 |
| \\      /  F ield         | OpenFOAM: The Open Source CFD Toolbox           |
|  \\    /   O peration     | Version:  3.0.1                                 |
|   \\  /    A nd           | Web:      www.OpenFOAM.org                      |
|    \\/     M anipulation  |                                                 |
\*---------------------------------------------------------------------------*/
FoamFile
{
    version     2.0;
    format      ascii;
    class       volScalarField;
    location    "33";
    object      p_rgh;
}
// * * * * * * * * * * * * * * * * * * * * * * * * * * * * * * * * * * * * * //

dimensions      [1 -1 -2 0 0 0 0];

internalField   nonuniform List<scalar> 
21420
(
162.675
194.99
226.828
257.779
287.5
315.472
341.318
364.615
385.023
402.264
416.069
426.221
432.578
434.894
433.058
427.288
417.736
404.451
387.666
367.63
344.669
319.087
291.248
261.565
230.426
198.243
165.392
132.245
99.1697
66.4813
34.6001
8.52782
-20.8286
-49.1357
-76.0287
-101.343
-125.008
-146.985
-167.26
-185.842
-202.758
-218.041
-231.736
-243.89
-254.55
-263.767
-271.581
-278.034
-283.16
-286.983
-289.502
-290.721
-290.448
-288.888
-285.971
-281.667
-275.936
-268.717
-259.974
-249.659
-237.726
-224.138
-208.851
-191.853
-173.14
-152.713
-130.597
-106.849
-81.524
-54.7206
-26.5467
2.9709
33.9725
65.423
97.3958
129.664
161.981
194.063
225.595
256.263
285.735
313.685
339.765
363.645
385.015
403.583
419.071
431.256
439.944
445
446.258
443.827
437.65
427.766
414.315
397.461
377.409
354.406
328.737
300.725
270.712
239.069
206.187
172.465
138.307
104.104
70.2334
37.0415
4.83419
-26.1299
-55.6331
-83.5079
-109.635
-133.935
-156.364
-176.909
-195.579
-212.396
-227.393
-240.613
-252.096
-261.889
-270.037
-276.584
-281.573
-285.065
-287.087
-287.66
-286.859
-284.711
-281.236
-276.439
-270.33
-262.913
-254.163
-244.061
-232.584
-219.691
-205.345
-189.507
-172.135
-153.204
-132.698
-110.615
-86.968
-61.7987
-35.171
-7.19238
22.008
52.8147
83.9917
115.851
148.106
180.432
212.482
243.874
274.21
303.079
330.066
354.767
376.788
395.761
411.343
423.247
431.239
435.109
434.774
430.202
421.472
408.637
391.927
371.599
347.978
321.441
292.403
261.309
228.619
194.796
160.297
125.564
91.009
57.0135
23.9072
-8.0309
-38.5702
-67.533
-94.7889
-120.248
-143.865
-165.629
-185.552
-203.667
-220.02
-234.671
-247.68
-259.103
-268.992
-277.394
-284.347
-289.88
-294.018
-296.791
-298.181
-298.178
-296.83
-294.08
-289.91
-284.293
-277.181
-268.537
-258.313
-246.468
-232.966
-217.776
-200.88
-182.27
-161.948
-139.935
-116.275
-91.0239
-64.2657
-36.1154
-6.71866
23.7374
55.2741
87.2071
119.492
151.799
183.777
215.058
245.251
273.958
300.784
325.339
347.251
366.174
381.8
393.861
402.142
406.484
406.757
402.994
395.237
383.528
368.069
349.088
326.874
301.757
274.114
244.357
212.907
180.2
146.675
112.755
78.8385
45.3108
12.4854
-19.3362
-49.9042
-79.0111
-106.491
-132.218
-156.107
-178.103
-198.18
-216.338
-232.605
-247.024
-259.645
-270.528
-279.744
-287.353
-293.422
-298.032
-301.19
-302.93
-303.257
-302.273
-299.953
-296.325
-291.386
-285.138
-277.596
-268.715
-258.481
-246.874
-233.84
-219.332
-203.3
-185.697
-166.499
-145.671
-123.21
-99.1302
-73.4852
-46.3691
-17.9158
11.6341
41.7401
72.7557
104.368
136.132
167.636
198.502
228.287
256.555
282.915
306.957
328.318
346.66
361.689
373.184
380.972
384.908
384.887
380.959
373.248
361.794
346.829
328.602
307.405
283.554
257.433
229.415
199.911
169.291
137.951
106.28
74.6579
43.5575
16.0665
-13.349
-42.1435
-69.8975
-96.4035
-121.529
-145.192
-167.324
-187.884
-206.848
-224.193
-239.908
-253.994
-266.447
-277.276
-286.485
-294.089
-300.104
-304.555
-307.464
-308.833
-308.4
-306.373
-302.773
-297.633
-290.936
-282.681
162.66
194.99
226.843
257.811
287.55
315.54
341.403
364.716
385.139
402.393
416.208
426.368
432.73
435.06
433.209
427.437
417.876
404.581
387.783
367.732
344.754
319.155
291.299
261.598
230.442
198.243
165.378
132.218
99.1303
66.4279
34.5157
8.48714
-20.8976
-49.2123
-76.1075
-101.423
-125.086
-147.062
-167.335
-185.915
-202.828
-218.108
-231.801
-243.952
-254.61
-263.824
-271.636
-278.087
-283.212
-287.034
-289.553
-290.769
-290.501
-288.941
-286.026
-281.724
-275.995
-268.779
-260.039
-249.726
-237.796
-224.21
-208.926
-191.929
-173.217
-152.79
-130.675
-106.926
-81.5992
-54.7935
-26.6164
2.90533
33.918
65.3758
97.3571
129.635
161.962
194.057
225.602
256.284
285.771
313.735
339.83
363.726
385.11
403.691
419.19
431.383
440.079
445.139
446.403
443.962
437.783
427.893
414.434
397.568
377.503
354.485
328.801
300.773
270.742
239.082
206.183
172.445
138.271
104.054
70.1712
36.9689
4.75305
-26.2175
-55.725
-83.6024
-109.73
-134.031
-156.458
-177.001
-195.669
-212.483
-227.478
-240.695
-252.176
-261.966
-270.112
-276.657
-281.644
-285.135
-287.154
-287.724
-286.924
-284.775
-281.299
-276.502
-270.394
-262.978
-254.229
-244.129
-232.654
-219.763
-205.419
-189.583
-172.214
-153.284
-132.78
-110.697
-87.0503
-61.8798
-35.2499
-7.26717
21.9343
52.7516
83.9331
115.803
148.07
180.41
212.475
243.884
274.237
303.125
330.131
354.85
376.889
395.878
411.474
423.39
431.39
435.272
434.929
430.355
421.619
408.775
392.051
371.707
348.068
321.511
292.454
261.339
228.629
194.787
160.271
125.522
90.9534
56.9466
23.8311
-8.11393
-38.6581
-67.6238
-94.881
-120.34
-143.956
-165.718
-185.637
-203.75
-220.1
-234.747
-247.753
-259.173
-269.06
-277.46
-284.412
-289.943
-294.081
-296.853
-298.241
-298.24
-296.892
-294.144
-289.976
-284.36
-277.251
-268.608
-258.386
-246.544
-233.044
-217.855
-200.961
-182.352
-162.031
-140.018
-116.356
-91.1038
-64.3429
-36.1886
-6.78581
23.6813
55.2163
87.1637
119.461
151.781
183.775
215.072
245.282
274.007
300.85
325.423
347.352
366.29
381.929
394.001
402.29
406.642
406.908
403.143
395.381
383.664
368.193
349.198
326.967
301.832
274.171
244.394
212.925
180.2
146.658
112.722
78.7924
45.2528
12.4175
-19.412
-49.9861
-79.0973
-106.58
-132.309
-156.198
-178.193
-198.269
-216.424
-232.688
-247.103
-259.721
-270.601
-279.813
-287.419
-293.485
-298.092
-301.248
-302.983
-303.313
-302.328
-300.007
-296.379
-291.44
-285.193
-277.652
-268.772
-258.54
-246.935
-233.904
-219.399
-203.37
-185.77
-166.573
-145.747
-123.286
-99.2061
-73.5593
-46.4401
-17.9814
11.5755
41.6873
72.7134
104.339
136.118
167.638
198.522
228.325
256.611
282.989
307.049
328.426
346.782
361.823
373.327
381.121
385.064
385.037
381.106
373.389
361.926
346.948
328.707
307.495
283.627
257.489
229.453
199.932
169.297
137.942
106.256
74.6175
43.4941
16.0357
-13.3996
-42.2047
-69.9638
-96.4726
-121.599
-145.263
-167.395
-187.954
-206.918
-224.262
-239.977
-254.061
-266.513
-277.341
-286.549
-294.152
-300.166
-304.617
-307.524
-308.891
-308.459
-306.432
-302.831
-297.691
-290.994
-282.74
162.629
194.989
226.875
257.877
287.651
315.675
341.572
364.918
385.371
402.651
416.488
426.663
433.033
435.394
433.512
427.737
418.158
404.842
388.017
367.936
344.925
319.292
291.401
261.664
230.474
198.243
165.349
132.163
99.0517
66.3218
34.3485
8.40442
-21.0364
-49.3658
-76.2652
-101.581
-125.243
-147.216
-167.485
-186.06
-202.968
-218.242
-231.929
-244.075
-254.728
-263.937
-271.746
-278.194
-283.315
-287.135
-289.654
-290.866
-290.607
-289.048
-286.135
-281.837
-276.112
-268.902
-260.166
-249.859
-237.933
-224.352
-209.071
-192.077
-173.368
-152.942
-130.826
-107.075
-81.7448
-54.9345
-26.7507
2.77948
33.8144
65.287
97.2856
129.583
161.932
194.051
225.624
256.334
285.85
313.846
339.971
363.897
385.31
403.917
419.44
431.651
440.361
445.427
446.709
444.248
438.064
428.163
414.685
397.797
377.706
354.659
328.944
300.883
270.819
239.124
206.191
172.421
138.217
103.972
70.0644
36.8416
4.60902
-26.374
-55.89
-83.7722
-109.902
-134.201
-156.626
-177.165
-195.828
-212.637
-227.626
-240.838
-252.314
-262.099
-270.241
-276.782
-281.765
-285.252
-287.264
-287.833
-287.032
-284.881
-281.404
-276.607
-270.501
-263.085
-254.339
-244.243
-232.772
-219.885
-205.546
-189.715
-172.35
-153.425
-132.923
-110.842
-87.195
-62.0222
-35.388
-7.39723
21.8082
52.6421
83.8347
115.726
148.017
180.385
212.479
243.922
274.31
303.235
330.277
355.033
377.107
396.128
411.753
423.692
431.708
435.613
435.253
430.677
421.929
409.066
392.314
371.938
348.262
321.667
292.568
261.413
228.664
194.784
160.233
125.453
90.8567
56.8273
23.6936
-8.26521
-38.8189
-67.7905
-95.0501
-120.509
-144.123
-165.88
-185.794
-203.9
-220.243
-234.884
-247.884
-259.298
-269.18
-277.576
-284.525
-290.054
-294.191
-296.963
-298.346
-298.35
-297.003
-294.257
-290.092
-284.479
-277.375
-268.737
-258.52
-246.681
-233.185
-218.001
-201.109
-182.502
-162.182
-140.17
-116.507
-91.2503
-64.4842
-36.3219
-6.90723
23.5803
55.1151
87.0895
119.412
151.76
183.784
215.113
245.357
274.118
300.996
325.604
347.565
366.534
382.199
394.291
402.596
406.963
407.225
403.453
395.681
383.947
368.452
349.428
327.164
301.993
274.294
244.48
212.973
180.212
146.636
112.669
78.7117
45.1481
12.2934
-19.5519
-50.1381
-79.2579
-106.746
-132.478
-156.368
-178.362
-198.433
-216.584
-232.843
-247.252
-259.863
-270.736
-279.942
-287.541
-293.603
-298.205
-301.355
-303.083
-303.42
-302.431
-300.11
-296.482
-291.543
-285.298
-277.76
-268.882
-258.654
-247.054
-234.028
-219.529
-203.505
-185.911
-166.719
-145.897
-123.437
-99.3556
-73.7053
-46.5798
-18.1105
11.4597
41.5833
72.6306
104.283
136.091
167.643
198.562
228.402
256.725
283.139
307.234
328.643
347.027
362.092
373.614
381.417
385.371
385.343
381.404
373.672
362.19
347.188
328.919
307.674
283.772
257.6
229.53
199.975
169.309
137.924
106.209
74.537
43.3665
15.9747
-13.5012
-42.3271
-70.0966
-96.6108
-121.74
-145.405
-167.537
-188.096
-207.058
-224.401
-240.113
-254.195
-266.645
-277.47
-286.677
-294.278
-300.29
-304.74
-307.645
-309.007
-308.577
-306.548
-302.947
-297.806
-291.109
-282.856
162.583
194.988
226.923
257.975
287.801
315.877
341.825
365.221
385.719
403.038
416.907
427.106
433.487
435.884
433.972
428.19
418.581
405.233
388.368
368.243
345.181
319.498
291.553
261.763
230.522
198.244
165.306
132.082
98.9341
66.1643
34.1044
8.27339
-21.2467
-49.5965
-76.5019
-101.819
-125.478
-147.448
-167.711
-186.278
-203.178
-218.444
-232.122
-244.26
-254.905
-264.108
-271.911
-278.354
-283.471
-287.286
-289.805
-291.014
-290.765
-289.207
-286.298
-282.006
-276.288
-269.085
-260.357
-250.057
-238.138
-224.564
-209.289
-192.3
-173.594
-153.169
-131.053
-107.3
-81.9636
-55.1463
-26.9524
2.59058
33.6583
65.1534
97.178
129.504
161.887
194.042
225.656
256.409
285.97
314.011
340.183
364.154
385.611
404.259
419.815
432.055
440.786
445.863
447.164
444.683
438.489
428.57
415.065
398.143
378.014
354.923
329.161
301.05
270.935
239.19
206.206
172.388
138.137
103.851
69.906
36.6526
4.39482
-26.6069
-56.1356
-84.0251
-110.158
-134.456
-156.876
-177.41
-196.065
-212.866
-227.847
-241.051
-252.519
-262.298
-270.432
-276.967
-281.945
-285.426
-287.428
-287.997
-287.193
-285.039
-281.559
-276.763
-270.659
-263.245
-254.503
-244.412
-232.947
-220.067
-205.736
-189.911
-172.553
-153.633
-133.136
-111.057
-87.4104
-62.2343
-35.5936
-7.59038
21.6246
52.4755
83.6886
115.612
147.939
180.348
212.488
243.98
274.422
303.401
330.499
355.31
377.436
396.505
412.173
424.147
432.188
436.116
435.75
431.166
422.398
409.504
392.712
372.287
348.556
321.902
292.743
261.526
228.718
194.781
160.178
125.351
90.7131
56.6497
23.4887
-8.49083
-39.0589
-68.0392
-95.3025
-120.761
-144.371
-166.122
-186.027
-204.123
-220.456
-235.088
-248.078
-259.484
-269.36
-277.75
-284.694
-290.22
-294.355
-297.124
-298.504
-298.514
-297.167
-294.424
-290.264
-284.657
-277.559
-268.928
-258.718
-246.887
-233.397
-218.217
-201.331
-182.727
-162.408
-140.396
-116.731
-91.4689
-64.6949
-36.5208
-7.08845
23.4272
54.9672
86.9798
119.339
151.728
183.798
215.175
245.471
274.285
301.216
325.876
347.887
366.901
382.605
394.73
403.058
407.437
407.71
403.923
396.133
384.374
368.843
349.776
327.462
302.237
274.481
244.609
213.046
180.23
146.603
112.59
78.5919
44.9924
12.1084
-19.7605
-50.3648
-79.4974
-106.994
-132.731
-156.622
-178.613
-198.68
-216.824
-233.074
-247.474
-260.075
-270.938
-280.134
-287.725
-293.779
-298.373
-301.514
-303.239
-303.579
-302.587
-300.264
-296.637
-291.699
-285.456
-277.921
-269.048
-258.825
-247.233
-234.214
-219.723
-203.709
-186.123
-166.938
-146.121
-123.662
-99.58
-73.9246
-46.7895
-18.3045
11.2855
41.4269
72.506
104.198
136.051
167.652
198.622
228.517
256.895
283.364
307.511
328.969
347.395
362.496
374.044
381.864
385.823
385.808
381.852
374.096
362.587
347.547
329.236
307.942
283.99
257.766
229.644
200.04
169.327
137.898
106.139
74.4167
43.1748
15.8835
-13.6546
-42.5112
-70.2961
-96.8183
-121.952
-145.619
-167.751
-188.308
-207.268
-224.608
-240.317
-254.396
-266.843
-277.665
-286.869
-294.467
-300.477
-304.924
-307.825
-309.183
-308.754
-306.723
-303.121
-297.98
-291.283
-283.03
162.521
194.987
226.986
258.106
288.001
316.147
342.164
365.626
386.184
403.555
417.467
427.697
434.093
436.519
434.595
428.794
419.145
405.754
388.836
368.652
345.523
319.771
291.755
261.895
230.586
198.244
165.247
131.972
98.7777
65.957
33.7959
8.08126
-21.5309
-49.9052
-76.8179
-102.136
-125.793
-147.756
-168.011
-186.569
-203.458
-218.712
-232.38
-244.506
-255.142
-264.335
-272.13
-278.566
-283.678
-287.488
-290.004
-291.212
-290.976
-289.42
-286.516
-282.232
-276.523
-269.33
-260.612
-250.322
-238.412
-224.847
-209.58
-192.598
-173.896
-153.472
-131.355
-107.599
-82.2557
-55.429
-27.2214
2.33884
33.4492
64.975
97.0341
129.398
161.826
194.03
225.699
256.508
286.129
314.232
340.465
364.497
386.013
404.714
420.317
432.594
441.353
446.446
447.763
445.27
439.058
429.113
415.572
398.606
378.424
355.275
329.451
301.274
271.091
239.278
206.227
172.343
138.032
103.689
69.6947
36.4004
4.10904
-26.9176
-56.4633
-84.3624
-110.498
-134.795
-157.21
-177.735
-196.381
-213.171
-228.142
-241.335
-252.793
-262.562
-270.687
-277.214
-282.184
-285.656
-287.649
-288.215
-287.406
-285.249
-281.767
-276.971
-270.869
-263.458
-254.721
-244.638
-233.18
-220.31
-205.988
-190.172
-172.823
-153.911
-133.419
-111.344
-87.6975
-62.5172
-35.8679
-7.84778
21.3938
52.2391
83.4933
115.46
147.835
180.299
212.5
244.059
274.57
303.622
330.795
355.679
377.876
397.009
412.733
424.754
432.829
436.774
436.422
431.824
423.024
410.09
393.243
372.753
348.949
322.216
292.975
261.677
228.79
194.777
160.104
125.214
90.5212
56.4126
23.215
-8.79195
-39.3791
-68.3712
-95.6392
-121.097
-144.703
-166.444
-186.338
-204.421
-220.74
-235.359
-248.338
-259.732
-269.599
-277.981
-284.918
-290.441
-294.573
-297.338
-298.717
-298.732
-297.386
-294.648
-290.494
-284.895
-277.805
-269.184
-258.983
-247.16
-233.678
-218.506
-201.625
-183.025
-162.709
-140.698
-117.029
-91.7606
-64.976
-36.7861
-7.33054
23.2192
54.7735
86.8338
119.243
151.686
183.816
215.259
245.622
274.507
301.51
326.24
348.316
367.39
383.148
395.314
403.673
408.066
408.356
404.554
396.738
384.943
369.364
350.239
327.859
302.562
274.731
244.783
213.143
180.255
146.56
112.485
78.432
44.7846
11.8615
-20.0388
-50.6672
-79.817
-107.325
-133.068
-156.96
-178.949
-199.008
-217.143
-233.383
-247.77
-260.357
-271.207
-280.39
-287.97
-294.014
-298.596
-301.727
-303.45
-303.791
-302.794
-300.47
-296.843
-291.905
-285.666
-278.135
-269.268
-259.053
-247.471
-234.463
-219.983
-203.981
-186.405
-167.23
-146.42
-123.964
-99.8795
-74.2174
-47.0695
-18.5633
11.053
41.2176
72.3394
104.084
135.996
167.662
198.702
228.671
257.122
283.664
307.88
329.403
347.886
363.034
374.619
382.46
386.425
386.426
382.453
374.664
363.117
348.027
329.659
308.301
284.28
257.988
229.797
200.125
169.35
137.863
106.046
74.2576
42.9192
15.7614
-13.8611
-42.7578
-70.5625
-97.0953
-122.235
-145.903
-168.035
-188.591
-207.548
-224.885
-240.59
-254.665
-267.107
-277.925
-287.124
-294.718
-300.725
-305.168
-308.063
-309.421
-308.99
-306.956
-303.352
-298.211
-291.514
-283.263
162.443
194.984
227.064
258.269
288.252
316.485
342.587
366.132
386.765
404.201
418.167
428.436
434.854
437.299
435.377
429.547
419.852
406.406
389.421
369.163
345.95
320.113
292.008
262.06
230.665
198.243
165.174
131.835
98.5825
65.7018
33.4467
7.80419
-21.8917
-50.2924
-77.2134
-102.533
-126.185
-148.141
-168.387
-186.933
-203.808
-219.048
-232.701
-244.814
-255.437
-264.619
-272.404
-278.832
-283.937
-287.741
-290.253
-291.461
-291.237
-289.686
-286.787
-282.515
-276.816
-269.635
-260.931
-250.653
-238.755
-225.201
-209.944
-192.97
-174.274
-153.852
-131.734
-107.973
-82.6212
-55.783
-27.5577
2.02413
33.1867
64.7515
96.8535
129.266
161.749
194.015
225.752
256.631
286.329
314.507
340.818
364.926
386.516
405.283
420.944
433.269
442.062
447.176
448.505
446.009
439.77
429.792
416.207
399.184
378.938
355.716
329.813
301.554
271.286
239.387
206.252
172.287
137.899
103.485
69.4297
36.0844
3.75099
-27.3068
-56.8736
-84.7847
-110.925
-135.219
-157.627
-178.143
-196.777
-213.553
-228.51
-241.69
-253.136
-262.893
-271.006
-277.522
-282.483
-285.943
-287.927
-288.487
-287.673
-285.511
-282.027
-277.232
-271.132
-263.725
-254.994
-244.92
-233.472
-220.613
-206.303
-190.5
-173.161
-154.259
-133.774
-111.703
-88.0569
-62.8715
-36.2115
-8.1704
21.1183
51.929
83.2484
115.269
147.704
180.237
212.514
244.156
274.756
303.899
331.165
356.14
378.425
397.639
413.435
425.515
433.631
437.597
437.26
432.648
423.808
410.823
393.907
373.335
349.439
322.608
293.265
261.866
228.879
194.771
160.011
125.041
90.2805
56.1153
22.8721
-9.16919
-39.7802
-68.7868
-96.0609
-121.518
-145.117
-166.848
-186.728
-204.793
-221.096
-235.699
-248.662
-260.043
-269.897
-278.27
-285.199
-290.716
-294.844
-297.605
-298.985
-299.004
-297.659
-294.927
-290.782
-285.191
-278.113
-269.503
-259.313
-247.502
-234.031
-218.867
-201.994
-183.4
-163.086
-141.075
-117.403
-92.1259
-65.3279
-37.1185
-7.63424
22.9548
54.5343
86.6513
119.121
151.633
183.838
215.362
245.812
274.785
301.878
326.694
348.853
368.003
383.826
396.046
404.443
408.856
409.158
405.347
397.495
385.656
370.017
350.819
328.356
302.968
275.043
244.999
213.264
180.286
146.505
112.352
78.2313
44.5241
11.5522
-20.3874
-51.0459
-80.2172
-107.739
-133.489
-157.383
-179.368
-199.419
-217.542
-233.769
-248.141
-260.71
-271.544
-280.711
-288.276
-294.308
-298.874
-301.996
-303.715
-304.054
-303.053
-300.727
-297.1
-292.164
-285.93
-278.404
-269.544
-259.339
-247.768
-234.774
-220.308
-204.321
-186.759
-167.596
-146.794
-124.341
-100.254
-74.5841
-47.4201
-18.887
10.7616
40.9548
72.1303
103.941
135.927
167.674
198.802
228.862
257.406
284.039
308.343
329.945
348.5
363.707
375.337
383.208
387.183
387.192
383.205
375.374
363.779
348.626
330.188
308.749
284.643
258.264
229.987
200.231
169.379
137.818
105.93
74.0605
42.6011
15.6068
-14.1227
-43.0677
-70.8963
-97.442
-122.588
-146.259
-168.392
-188.945
-207.898
-225.23
-240.931
-255
-267.437
-278.25
-287.444
-295.032
-301.035
-305.472
-308.361
-309.718
-309.285
-307.247
-303.641
-298.5
-291.804
-283.554
162.348
194.979
227.158
258.464
288.552
316.89
343.095
366.739
387.462
404.977
419.008
429.325
435.77
438.23
436.313
430.448
420.7
407.189
390.125
369.776
346.464
320.523
292.311
262.257
230.759
198.241
165.085
131.67
98.3487
65.3999
33.0584
7.43986
-22.3316
-50.7589
-77.6888
-103.009
-126.657
-148.605
-168.838
-187.369
-204.228
-219.451
-233.087
-245.184
-255.792
-264.96
-272.733
-279.152
-284.248
-288.045
-290.554
-291.762
-291.549
-290.004
-287.113
-282.854
-277.169
-270.002
-261.314
-251.05
-239.167
-225.626
-210.381
-193.417
-174.727
-154.307
-132.19
-108.422
-83.0603
-56.2084
-27.9614
1.64592
32.8709
64.4826
96.6357
129.106
161.656
193.995
225.814
256.779
286.568
314.836
341.241
365.44
387.119
405.965
421.697
434.079
442.914
448.054
449.393
446.896
440.627
430.609
416.969
399.879
379.554
356.244
330.247
301.89
271.52
239.518
206.281
172.219
137.738
103.24
69.1103
35.704
3.32014
-27.775
-57.3671
-85.2925
-111.437
-135.728
-158.129
-178.632
-197.251
-214.011
-228.952
-242.116
-253.547
-263.29
-271.389
-277.893
-282.841
-286.287
-288.261
-288.814
-287.992
-285.826
-282.338
-277.544
-271.447
-264.044
-255.322
-245.258
-233.823
-220.977
-206.682
-190.892
-173.568
-154.677
-134.201
-112.134
-88.4887
-63.2976
-36.6247
-8.55925
20.78
51.5624
82.9538
115.039
147.546
180.162
212.53
244.271
274.977
304.231
331.609
356.694
379.084
398.395
414.278
426.428
434.594
438.588
438.265
433.637
424.752
411.703
394.705
374.034
350.028
323.078
293.613
262.092
228.984
194.763
159.898
124.834
89.9902
55.7574
22.4592
-9.62308
-40.2626
-69.2863
-96.5679
-122.024
-145.615
-167.332
-187.195
-205.241
-221.523
-236.106
-249.05
-260.415
-270.256
-278.617
-285.537
-291.047
-295.17
-297.925
-299.307
-299.329
-297.988
-295.263
-291.127
-285.548
-278.482
-269.886
-259.71
-247.913
-234.454
-219.301
-202.437
-183.849
-163.539
-141.529
-117.852
-92.5652
-65.7513
-37.5181
-8.00024
22.6338
54.2493
86.4318
118.975
151.568
183.865
215.486
246.038
275.119
302.318
327.24
349.498
368.739
384.641
396.925
405.369
409.806
410.12
406.298
398.406
386.512
370.801
351.516
328.953
303.456
275.417
245.257
213.409
180.321
146.439
112.193
77.9893
44.2105
11.1798
-20.8067
-51.5013
-80.6984
-108.237
-133.996
-157.892
-179.872
-199.912
-218.022
-234.232
-248.585
-261.135
-271.948
-281.096
-288.643
-294.66
-299.209
-302.32
-304.033
-304.369
-303.364
-301.036
-297.408
-292.474
-286.245
-278.725
-269.874
-259.682
-248.125
-235.146
-220.698
-204.729
-187.184
-168.035
-147.243
-124.794
-100.705
-75.025
-47.8413
-19.276
10.4127
40.6378
71.8783
103.768
135.844
167.688
198.921
229.092
257.746
284.489
308.897
330.597
349.237
364.516
376.201
384.107
388.097
388.11
384.109
376.228
364.575
349.346
330.824
309.286
285.079
258.596
230.215
200.359
169.412
137.764
105.791
73.8271
42.2234
15.4162
-14.4417
-43.4418
-71.298
-97.8588
-123.013
-146.687
-168.819
-189.37
-208.319
-225.645
-241.34
-255.403
-267.833
-278.64
-287.828
-295.41
-301.406
-305.837
-308.719
-310.074
-309.637
-307.596
-303.988
-298.846
-292.151
-283.903
162.237
194.973
227.266
258.692
288.902
317.362
343.688
367.448
388.277
405.883
419.99
430.363
436.841
439.315
437.4
431.498
421.69
408.104
390.947
370.492
347.063
321
292.664
262.486
230.867
198.237
164.98
131.476
98.0761
65.0518
32.6299
6.98887
-22.8523
-51.3055
-78.2445
-103.566
-127.208
-149.145
-169.365
-187.878
-204.718
-219.921
-233.538
-245.615
-256.205
-265.357
-273.117
-279.524
-284.611
-288.401
-290.906
-292.114
-291.911
-290.374
-287.494
-283.249
-277.58
-270.43
-261.76
-251.514
-239.647
-226.122
-210.891
-193.938
-175.256
-154.84
-132.721
-108.947
-83.5733
-56.7053
-28.4331
1.2033
32.5018
64.1675
96.38
128.919
161.546
193.972
225.885
256.951
286.845
315.221
341.735
366.041
387.822
406.762
422.576
435.026
443.91
449.08
450.431
447.93
441.628
431.563
417.859
400.689
380.273
356.861
330.754
302.282
271.792
239.67
206.315
172.138
137.549
102.953
68.736
35.2586
2.81588
-28.323
-57.9444
-85.8861
-112.037
-136.324
-158.714
-179.203
-197.805
-214.547
-229.469
-242.613
-254.027
-263.753
-271.836
-278.325
-283.259
-286.69
-288.652
-289.194
-288.365
-286.193
-282.702
-277.908
-271.815
-264.417
-255.705
-245.653
-234.231
-221.402
-207.124
-191.351
-174.042
-155.165
-134.699
-112.639
-88.9933
-63.7957
-37.1082
-9.01541
20.3734
51.1438
82.6098
114.769
147.361
180.072
212.547
244.405
275.235
304.617
332.126
357.34
379.854
399.279
415.262
427.495
435.72
439.747
439.439
434.791
425.854
412.732
395.637
374.851
350.715
323.627
294.019
262.354
229.107
194.753
159.764
124.589
89.6495
55.338
21.9758
-10.1542
-40.8268
-69.8703
-97.1604
-122.615
-146.197
-167.899
-187.741
-205.764
-222.022
-236.581
-249.504
-260.849
-270.674
-279.021
-285.93
-291.433
-295.55
-298.3
-299.682
-299.707
-298.371
-295.654
-291.529
-285.963
-278.913
-270.333
-260.174
-248.392
-234.948
-219.808
-202.954
-184.373
-164.068
-142.059
-118.377
-93.0787
-66.2464
-37.9855
-8.42912
22.2556
53.9178
86.175
118.802
151.492
183.894
215.629
246.302
275.507
302.832
327.876
350.251
369.598
385.592
397.952
406.451
410.918
411.243
407.408
399.471
387.512
371.716
352.329
329.649
304.025
275.854
245.559
213.577
180.362
146.359
112.005
77.7054
43.8431
10.7437
-21.2974
-52.034
-81.2609
-108.819
-134.588
-158.485
-180.46
-200.489
-218.583
-234.773
-249.104
-261.63
-272.42
-281.544
-289.072
-295.07
-299.6
-302.699
-304.405
-304.736
-303.726
-301.397
-297.768
-292.835
-286.614
-279.1
-270.259
-260.081
-248.541
-235.581
-221.153
-205.205
-187.68
-168.548
-147.768
-125.323
-101.231
-75.5406
-48.3338
-19.7301
10.0043
40.2659
71.5827
103.565
135.745
167.704
199.059
229.359
258.142
285.014
309.545
331.358
350.099
365.461
377.209
385.157
389.167
389.181
385.16
377.226
365.504
350.187
331.565
309.914
285.587
258.981
230.48
200.506
169.451
137.701
105.63
73.5592
41.7935
15.1816
-14.8213
-43.8812
-71.7681
-98.346
-123.509
-147.187
-169.319
-189.865
-208.81
-226.13
-241.817
-255.873
-268.295
-279.095
-288.275
-295.85
-301.839
-306.262
-309.137
-310.488
-310.048
-308.003
-304.393
-299.25
-292.556
-284.31
162.108
194.965
227.389
258.951
289.301
317.902
344.366
368.259
389.208
406.92
421.115
431.552
438.068
440.556
438.641
432.698
422.823
409.15
391.887
371.311
347.749
321.545
293.067
262.746
230.99
198.231
164.858
131.252
97.7646
64.6591
32.1606
6.44941
-23.4555
-51.9329
-78.8809
-104.202
-127.839
-149.764
-169.967
-188.461
-205.278
-220.458
-234.052
-246.108
-256.678
-265.811
-273.555
-279.949
-285.026
-288.808
-291.31
-292.519
-292.325
-290.797
-287.928
-283.701
-278.05
-270.92
-262.269
-252.044
-240.197
-226.69
-211.474
-194.535
-175.861
-155.45
-133.329
-109.547
-84.1605
-57.2736
-28.9731
0.695263
32.0798
63.8058
96.0862
128.704
161.42
193.944
225.965
257.146
287.162
315.66
342.299
366.728
388.625
407.673
423.583
436.109
445.05
450.255
451.619
449.112
442.774
432.654
418.876
401.617
381.096
357.567
331.334
302.729
272.102
239.843
206.352
172.044
137.332
102.623
68.3059
34.7475
2.23749
-28.9513
-58.6059
-86.5662
-112.722
-137.006
-159.385
-179.857
-198.438
-215.158
-230.059
-243.182
-254.575
-264.282
-272.348
-278.819
-283.736
-287.15
-289.099
-289.63
-288.79
-286.612
-283.118
-278.324
-272.234
-264.844
-256.142
-246.104
-234.699
-221.888
-207.629
-191.875
-174.585
-155.724
-135.269
-113.216
-89.5708
-64.3664
-37.6625
-9.53993
19.8979
50.6728
82.2163
114.459
147.147
179.968
212.566
244.557
275.529
305.058
332.716
358.078
380.733
400.29
416.388
428.716
437.01
441.076
440.781
436.111
427.117
413.909
396.704
375.785
351.501
324.253
294.482
262.653
229.245
194.739
159.61
124.308
89.2578
54.8565
21.4213
-10.7633
-41.4734
-70.5395
-97.839
-123.292
-146.863
-168.546
-188.365
-206.361
-222.592
-237.125
-250.022
-261.345
-271.151
-279.483
-286.38
-291.873
-295.984
-298.729
-300.112
-300.139
-298.808
-296.101
-291.989
-286.439
-279.406
-270.844
-260.704
-248.94
-235.512
-220.388
-203.546
-184.973
-164.674
-142.665
-118.978
-93.6667
-66.8135
-38.5212
-8.92153
21.8195
53.5396
85.8803
118.604
151.402
183.925
215.791
246.603
275.951
303.419
328.603
351.112
370.581
386.681
399.128
407.689
412.192
412.529
408.677
400.69
388.657
372.764
353.259
330.444
304.675
276.352
245.902
213.768
180.406
146.267
111.788
77.3788
43.4212
10.2435
-21.8602
-52.6445
-81.9053
-109.486
-135.266
-159.165
-181.133
-201.149
-219.224
-235.392
-249.696
-262.196
-272.959
-282.057
-289.561
-295.539
-300.048
-303.133
-304.831
-305.155
-304.139
-301.809
-298.179
-293.248
-287.035
-279.529
-270.698
-260.538
-249.017
-236.078
-221.673
-205.749
-188.247
-169.134
-148.368
-125.929
-101.834
-76.1315
-48.8978
-20.2497
9.53181
39.8381
71.2429
103.331
135.631
167.72
199.215
229.663
258.595
285.613
310.286
332.228
351.084
366.543
378.364
386.361
390.393
390.408
386.362
378.369
366.567
351.149
332.413
310.632
286.167
259.421
230.782
200.674
169.493
137.627
105.447
73.2586
41.3266
14.8871
-15.2646
-44.3872
-72.3073
-98.904
-124.077
-147.758
-169.89
-190.433
-209.371
-226.683
-242.363
-256.41
-268.824
-279.614
-288.786
-296.352
-302.333
-306.749
-309.616
-310.961
-310.517
-308.468
-304.856
-299.712
-293.019
-284.775
161.961
194.954
227.525
259.241
289.75
318.508
345.128
369.171
390.257
408.088
422.382
432.892
439.452
441.955
440.037
434.047
424.099
410.328
392.945
372.232
348.521
322.159
293.518
263.038
231.127
198.223
164.719
130.998
97.4136
64.223
31.6523
5.81741
-24.1428
-52.6417
-79.5983
-104.92
-128.549
-150.461
-170.645
-189.116
-205.908
-221.063
-234.631
-246.662
-257.209
-266.322
-274.047
-280.427
-285.492
-289.267
-291.765
-292.975
-292.789
-291.272
-288.417
-284.209
-278.579
-271.47
-262.843
-252.64
-240.815
-227.328
-212.132
-195.206
-176.542
-156.136
-134.015
-110.223
-84.8223
-57.9134
-29.5821
0.120611
31.605
63.3972
95.7533
128.46
161.277
193.912
226.052
257.365
287.517
316.153
342.933
367.501
389.529
408.698
424.716
437.33
446.335
451.579
452.958
450.442
444.064
433.883
420.023
402.662
382.022
358.361
331.986
303.231
272.451
240.036
206.393
171.937
137.085
102.249
67.8191
34.1702
1.58393
-29.6608
-59.3524
-87.3334
-113.496
-137.774
-160.14
-180.593
-199.151
-215.847
-230.724
-243.822
-255.192
-264.878
-272.923
-279.374
-284.273
-287.669
-289.601
-290.119
-289.268
-287.083
-283.586
-278.792
-272.706
-265.324
-256.633
-246.611
-235.224
-222.434
-208.197
-192.465
-175.197
-156.353
-135.912
-113.866
-90.2217
-65.0101
-38.288
-10.1337
19.3525
50.149
81.7728
114.109
146.905
179.849
212.584
244.725
275.858
305.553
333.379
358.908
381.724
401.428
417.657
430.091
438.464
442.575
442.294
437.599
428.539
415.236
397.905
376.837
352.385
324.958
295.002
262.988
229.399
194.721
159.433
123.988
88.8139
54.3119
20.7946
-11.4512
-42.2033
-71.2943
-98.6041
-124.055
-147.614
-169.276
-189.067
-207.034
-223.234
-237.736
-250.605
-261.903
-271.688
-280.003
-286.886
-292.369
-296.472
-299.212
-300.594
-300.625
-299.301
-296.604
-292.506
-286.973
-279.96
-271.42
-261.301
-249.557
-236.148
-221.04
-204.212
-185.649
-165.356
-143.348
-119.655
-94.3298
-67.4533
-39.126
-9.47812
21.3255
53.1131
85.547
118.379
151.3
183.959
215.972
246.94
276.448
304.078
329.422
352.081
371.688
387.908
400.452
409.085
413.629
413.978
410.106
402.063
389.947
373.944
354.306
331.34
305.407
276.912
246.287
213.981
180.454
146.16