/*--------------------------------*- C++ -*----------------------------------*\
| =========                 |                                                 |
| \\      /  F ield         | OpenFOAM: The Open Source CFD Toolbox           |
|  \\    /   O peration     | Version:  3.0.1                                 |
|   \\  /    A nd           | Web:      www.OpenFOAM.org                      |
|    \\/     M anipulation  |                                                 |
\*---------------------------------------------------------------------------*/
FoamFile
{
    version     2.0;
    format      ascii;
    class       surfaceScalarField;
    location    "17.6";
    object      alphaPhi;
}
// * * * * * * * * * * * * * * * * * * * * * * * * * * * * * * * * * * * * * //

dimensions      [0 3 -1 0 0 0 0];

internalField   nonuniform List<scalar> 
42423
(
-0.00017931
-2.02114e-06
-0.000176448
-2.86131e-06
-0.000172864
-3.58417e-06
-0.000168525
-4.33892e-06
-0.000163265
-5.26052e-06
-0.00015724
-6.02468e-06
-0.000150164
-7.07644e-06
-0.000142262
-7.90234e-06
-0.000133493
-8.76883e-06
-0.000123716
-9.77664e-06
-0.000112978
-1.07385e-05
-0.000101376
-1.16015e-05
-8.86019e-05
-1.27745e-05
-7.48825e-05
-1.37194e-05
-6.01284e-05
-1.47542e-05
-4.44851e-05
-1.56433e-05
-2.81433e-05
-1.63418e-05
-1.09332e-05
-1.72102e-05
7.0197e-06
-1.7953e-05
2.52971e-05
-1.82775e-05
4.40016e-05
-1.87046e-05
6.30209e-05
-1.90193e-05
8.19364e-05
-1.89156e-05
0.000100634
-1.86976e-05
0.000118876
-1.8242e-05
0.000136402
-1.75263e-05
0.000152969
-1.65671e-05
0.000168284
-1.53154e-05
0.00018214
-1.38556e-05
0.000194273
-1.21331e-05
0.00020442
-1.01472e-05
0.000212471
-8.05082e-06
0.000218249
-5.77817e-06
0.000221646
-3.3972e-06
0.00022264
-9.94421e-07
0.00022106
1.58006e-06
0.000216984
4.0763e-06
0.000210554
6.42968e-06
0.000201808
8.74592e-06
0.000191052
1.07561e-05
0.000178419
1.26326e-05
0.000164155
1.42645e-05
0.000148455
1.56996e-05
0.000131643
1.68123e-05
0.0001139
1.77431e-05
9.55139e-05
1.83857e-05
7.66508e-05
1.8863e-05
5.76438e-05
1.9007e-05
3.8702e-05
1.89418e-05
2.00414e-05
1.86606e-05
1.86733e-06
1.8174e-05
-1.5824e-05
1.76914e-05
-3.28421e-05
1.70181e-05
-4.91135e-05
1.62713e-05
-6.45234e-05
1.541e-05
-7.90417e-05
1.45183e-05
-9.2653e-05
1.36113e-05
-0.000105287
1.26337e-05
-0.000116962
1.16748e-05
-0.000127709
1.07472e-05
-0.000137519
9.81048e-06
-0.000146436
8.91667e-06
-0.000154385
7.94882e-06
-0.00016146
7.07542e-06
-0.00016769
6.22941e-06
-0.000173029
5.33884e-06
-0.000177494
4.46585e-06
-0.000181174
3.67908e-06
-0.000183928
2.7543e-06
-0.000185907
1.97892e-06
-0.000186986
1.07903e-06
-0.000187225
2.38689e-07
-0.000186618
-6.06192e-07
-0.00018516
-1.45819e-06
-0.00018279
-2.37048e-06
-0.000179651
-3.1387e-06
-0.000175582
-4.06865e-06
-0.000170861
-4.72118e-06
-0.000165233
-5.62796e-06
-0.000158775
-6.45826e-06
-0.00015172
-7.05508e-06
-0.000143819
-7.90099e-06
-0.000135111
-8.70851e-06
-0.00012567
-9.44114e-06
-0.000115463
-1.02064e-05
-0.000104473
-1.09905e-05
-9.26829e-05
-1.17902e-05
-8.01289e-05
-1.25541e-05
-6.67283e-05
-1.34007e-05
-5.24889e-05
-1.42395e-05
-3.74138e-05
-1.50752e-05
-2.1562e-05
-1.58519e-05
-5.15016e-06
-1.6412e-05
1.19444e-05
-1.70947e-05
2.94414e-05
-1.74971e-05
4.73762e-05
-1.79349e-05
6.55179e-05
-1.81419e-05
8.35769e-05
-1.80592e-05
0.000101388
-1.7811e-05
0.000118734
-1.73468e-05
0.000135231
-1.6497e-05
0.000150715
-1.54838e-05
0.000165069
-1.43546e-05
0.000177923
-1.2854e-05
0.000189061
-1.1138e-05
0.000198359
-9.29836e-06
0.000205597
-7.23748e-06
0.00021062
-5.02369e-06
0.000213319
-2.69877e-06
0.000213729
-4.10247e-07
0.000211784
1.94468e-06
0.000207497
4.28738e-06
0.000200955
6.54219e-06
0.000192269
8.68538e-06
0.000181602
1.0667e-05
0.000169089
1.25131e-05
0.000154901
1.41875e-05
0.000139322
1.55798e-05
0.000122477
1.6844e-05
0.000104696
1.77815e-05
8.6194e-05
1.8502e-05
6.72504e-05
1.89436e-05
4.81086e-05
1.91418e-05
2.89959e-05
1.91126e-05
1.01502e-05
1.88458e-05
-8.24634e-06
1.83965e-05
-2.59962e-05
1.77499e-05
-4.29777e-05
1.69815e-05
-5.90329e-05
1.60553e-05
-7.41472e-05
1.51143e-05
-8.82398e-05
1.40927e-05
-0.000101291
1.30511e-05
-0.000113229
1.19378e-05
-0.000124178
1.09494e-05
-0.000134107
9.92874e-06
-0.000143004
8.89712e-06
-0.000150931
7.92674e-06
-0.000157944
7.0135e-06
-0.000164075
6.13043e-06
-0.000169365
5.29002e-06
-0.000173764
4.39972e-06
-0.000177364
3.59986e-06
-0.000180134
2.77008e-06
-0.000182073
1.9382e-06
-0.000183276
1.20323e-06
-0.000183735
4.59023e-07
-0.000183291
-4.43693e-07
-0.000182006
-1.2855e-06
-0.000179935
-2.07083e-06
-0.000177137
-2.79827e-06
-0.00017369
-3.44709e-06
-0.000169337
-4.35263e-06
-0.00016411
-5.22659e-06
-0.000158204
-5.90666e-06
-0.00015143
-6.77359e-06
-0.000143672
-7.75809e-06
-0.000135131
-8.54133e-06
-0.000125543
-9.58802e-06
-0.000115077
-1.0466e-05
-0.000103882
-1.11948e-05
-9.16682e-05
-1.22143e-05
-7.86751e-05
-1.29932e-05
-6.48314e-05
-1.38438e-05
-5.02424e-05
-1.45891e-05
-3.49897e-05
-1.52528e-05
-1.90511e-05
-1.59387e-05
-2.57266e-06
-1.64786e-05
1.42605e-05
-1.68333e-05
3.14495e-05
-1.71891e-05
4.88776e-05
-1.74282e-05
6.61868e-05
-1.73094e-05
8.34408e-05
-1.72541e-05
0.000100491
-1.70499e-05
0.000116871
-1.6381e-05
0.000132612
-1.57405e-05
0.00014741
-1.47987e-05
0.000161303
-1.3893e-05
0.000174016
-1.27133e-05
0.000185161
-1.11448e-05
0.00019465
-9.48862e-06
0.000202312
-7.66251e-06
0.000207942
-5.62986e-06
0.000211413
-3.4712e-06
0.000212581
-1.16794e-06
0.000211451
1.12935e-06
0.000207911
3.54014e-06
0.000201955
5.95602e-06
0.000193716
8.23855e-06
0.000183261
1.04549e-05
0.000170773
1.24881e-05
0.000156406
1.43667e-05
0.000140439
1.59672e-05
0.000123071
1.73679e-05
0.000104702
1.83694e-05
8.55521e-05
1.91496e-05
6.59768e-05
1.95754e-05
4.62618e-05
1.97149e-05
2.67258e-05
1.9536e-05
7.5778e-06
1.9148e-05
-1.08757e-05
1.84536e-05
-2.85053e-05
1.76296e-05
-4.51457e-05
1.66405e-05
-6.07216e-05
1.55759e-05
-7.5131e-05
1.44094e-05
-8.83555e-05
1.32245e-05
-0.000100487
1.21316e-05
-0.000111405
1.09183e-05
-0.000121258
9.85235e-06
-0.000130064
8.80619e-06
-0.000137904
7.83983e-06
-0.000144867
6.9629e-06
-0.000150998
6.13104e-06
-0.000156362
5.3641e-06
-0.000161006
4.64398e-06
-0.000165038
4.0327e-06
-0.00016846
3.42121e-06
-0.000171169
2.70908e-06
-0.000173345
2.17638e-06
-0.000175036
1.69122e-06
-0.000176157
1.12078e-06
-0.000176857
6.99763e-07
-0.000176816
-4.1107e-08
-0.00017635
-4.66056e-07
-0.000175428
-9.21645e-07
-0.00017375
-1.67838e-06
-0.000171214
-2.53589e-06
-0.000168063
-3.15132e-06
-0.000163896
-4.16731e-06
-0.000159137
-4.75825e-06
-0.000153439
-5.69826e-06
-0.000146634
-6.80555e-06
-0.000138945
-7.68835e-06
-0.000130219
-8.72629e-06
-0.000120314
-9.9054e-06
-0.000109334
-1.09799e-05
-9.71806e-05
-1.21535e-05
-8.39554e-05
-1.32253e-05
-6.96351e-05
-1.43205e-05
-5.42408e-05
-1.53944e-05
-3.7917e-05
-1.6324e-05
-2.07953e-05
-1.71219e-05
-2.92154e-06
-1.78739e-05
1.55726e-05
-1.84943e-05
3.43124e-05
-1.874e-05
5.33467e-05
-1.90345e-05
7.22342e-05
-1.88877e-05
9.09826e-05
-1.87485e-05
0.000109378
-1.83957e-05
0.000126915
-1.75373e-05
0.00014348
-1.65647e-05
0.000158813
-1.53332e-05
0.000172841
-1.40281e-05
0.000185001
-1.21603e-05
0.000195239
-1.02385e-05
0.000203562
-8.32294e-06
0.000209705
-6.14301e-06
0.000213554
-3.849e-06
0.000215072
-1.51811e-06
0.000214306
7.65365e-07
0.000211184
3.1223e-06
0.000205834
5.34975e-06
0.000198337
7.49668e-06
0.000188887
9.45048e-06
0.000177575
1.13115e-05
0.000164637
1.29384e-05
0.000150247
1.43895e-05
0.000134604
1.5643e-05
0.000118007
1.65969e-05
0.000100547
1.74603e-05
8.25076e-05
1.80393e-05
6.41237e-05
1.83838e-05
4.56193e-05
1.85045e-05
2.72089e-05
1.84103e-05
9.00764e-06
1.82013e-05
-8.90309e-06
1.79107e-05
-2.61937e-05
1.72906e-05
-4.2808e-05
1.66143e-05
-5.8678e-05
1.587e-05
-7.3662e-05
1.4984e-05
-8.77354e-05
1.40734e-05
-0.000100858
1.31228e-05
-0.00011295
1.20918e-05
-0.000124081
1.11306e-05
-0.000134227
1.01467e-05
-0.000143297
9.07009e-06
-0.000151416
8.11905e-06
-0.0001585
7.08311e-06
-0.000164577
6.07794e-06
-0.000169727
5.14965e-06
-0.000173896
4.16933e-06
-0.000177226
3.32936e-06
-0.000179645
2.41883e-06
-0.000181136
1.4912e-06
-0.000181852
7.15935e-07
-0.000181756
-9.59241e-08
-0.000180806
-9.49466e-07
-0.000179066
-1.74075e-06
-0.000176599
-2.46613e-06
-0.000173223
-3.37674e-06
-0.000169122
-4.10088e-06
-0.000164096
-5.02611e-06
-0.000158368
-5.72816e-06
-0.000151874
-6.49402e-06
-0.000144595
-7.27908e-06
-0.000136639
-7.95535e-06
-0.000127881
-8.758e-06
-0.000118329
-9.55193e-06
-0.000108103
-1.02259e-05
-9.70593e-05
-1.10442e-05
-8.5254e-05
-1.18054e-05
-7.28306e-05
-1.24234e-05
-5.96481e-05
-1.31826e-05
-4.57558e-05
-1.38924e-05
-3.13223e-05
-1.44335e-05
-1.62298e-05
-1.50926e-05
-5.93107e-07
-1.56368e-05
1.54439e-05
-1.60371e-05
3.1807e-05
-1.63632e-05
4.82583e-05
-1.64513e-05
6.47884e-05
-1.65302e-05
8.12291e-05
-1.64408e-05
9.73299e-05
-1.61009e-05
0.000113002
-1.56721e-05
0.00012805
-1.5048e-05
0.000142294
-1.42447e-05
0.000155564
-1.32701e-05
0.00016763
-1.20657e-05
0.000178346
-1.0716e-05
0.000187547
-9.20145e-06
0.000195035
-7.4878e-06
0.000200722
-5.68741e-06
0.000204504
-3.78148e-06
0.000206309
-1.80546e-06
0.00020607
2.39402e-07
0.000203701
2.36908e-06
0.000199267
4.43327e-06
0.000192884
6.38367e-06
0.000184619
8.26484e-06
0.000174726
9.89312e-06
0.000163312
1.14134e-05
0.000150509
1.28026e-05
0.000136616
1.38933e-05
0.000121738
1.48778e-05
0.000106175
1.55632e-05
9.00919e-05
1.60832e-05
7.36741e-05
1.64178e-05
5.71584e-05
1.65157e-05
4.06915e-05
1.64668e-05
2.44447e-05
1.62468e-05
8.57874e-06
1.58659e-05
-6.85989e-06
1.54386e-05
-2.16338e-05
1.47739e-05
-3.57329e-05
1.4099e-05
-4.9043e-05
1.33101e-05
-6.1493e-05
1.245e-05
-7.30695e-05
1.15765e-05
1.05173e-05
-0.000179345
-4.03569e-06
-0.000176487
-5.71935e-06
-0.000172907
-7.16444e-06
-0.000168574
-8.67188e-06
-0.000163316
-1.05186e-05
-0.000157295
-1.20457e-05
-0.000150214
-1.41574e-05
-0.000142319
-1.57979e-05
-0.000133554
-1.75337e-05
-0.000123769
-1.95614e-05
-0.000113031
-2.14767e-05
-0.000101423
-2.32099e-05
-8.86552e-05
-2.55424e-05
-7.49319e-05
-2.74428e-05
-6.0172e-05
-2.95144e-05
-4.45211e-05
-3.12943e-05
-2.81811e-05
-3.26819e-05
-1.0963e-05
-3.44286e-05
6.99386e-06
-3.591e-05
2.52804e-05
-3.65642e-05
4.40029e-05
-3.74273e-05
6.30316e-05
-3.80482e-05
8.19519e-05
-3.78361e-05
0.000100672
-3.74177e-05
0.000118926
-3.64959e-05
0.000136454
-3.50554e-05
0.000153036
-3.3149e-05
0.00016838
-3.0659e-05
0.000182247
-2.7723e-05
0.000194377
-2.42633e-05
0.000204531
-2.03017e-05
0.000212591
-1.61104e-05
0.000218377
-1.15648e-05
0.000221796
-6.81606e-06
0.000222796
-1.99458e-06
0.000221187
3.18845e-06
0.000217106
8.15729e-06
0.000210674
1.28621e-05
0.000201921
1.74986e-05
0.000191158
2.15184e-05
0.000178514
2.52766e-05
0.000164238
2.85412e-05
0.000148526
3.14107e-05
0.000131704
3.36343e-05
0.00011395
3.54975e-05
9.55546e-05
3.67808e-05
7.66772e-05
3.77404e-05
5.766e-05
3.80241e-05
3.87085e-05
3.78933e-05
2.00383e-05
3.73307e-05
1.85899e-06
3.63533e-05
-1.58428e-05
3.53931e-05
-3.28697e-05
3.40449e-05
-4.91501e-05
3.25518e-05
-6.45679e-05
3.08277e-05
-7.9093e-05
2.90433e-05
-9.27107e-05
2.7229e-05
-0.00010535
2.52727e-05
-0.000117029
2.33545e-05
-0.000127781
2.14987e-05
-0.00013759
1.962e-05
-0.000146506
1.78322e-05
-0.000154452
1.58951e-05
-0.000161522
1.41455e-05
-0.000167746
1.24534e-05
-0.000173083
1.06756e-05
-0.000177553
8.93564e-06
-0.000181239
7.36509e-06
-0.00018399
5.50527e-06
-0.000185962
3.9509e-06
-0.000187036
2.1529e-06
-0.000187279
4.81629e-07
-0.000186684
-1.20091e-06
-0.000185228
-2.91486e-06
-0.000182861
-4.7374e-06
-0.00017972
-6.27989e-06
-0.000175648
-8.14024e-06
-0.00017093
-9.43964e-06
-0.000165323
-1.1235e-05
-0.000158859
-1.29218e-05
-0.000151786
-1.41284e-05
-0.000143884
-1.58034e-05
-0.000135185
-1.74076e-05
-0.000125744
-1.88816e-05
-0.000115528
-2.04228e-05
-0.000104551
-2.19675e-05
-9.27442e-05
-2.35974e-05
-8.0207e-05
-2.50915e-05
-6.67999e-05
-2.68079e-05
-5.25547e-05
-2.84849e-05
-3.74727e-05
-3.01574e-05
-2.16216e-05
-3.17032e-05
-5.18835e-06
-3.28455e-05
1.19119e-05
-3.41951e-05
2.94167e-05
-3.50022e-05
4.73625e-05
-3.58809e-05
6.55176e-05
-3.62972e-05
8.35854e-05
-3.61272e-05
0.000101408
-3.5634e-05
0.000118776
-3.47147e-05
0.000135301
-3.30227e-05
0.000150788
-3.09707e-05
0.000165161
-2.87278e-05
0.000178021
-2.57144e-05
0.000189178
-2.22946e-05
0.000198485
-1.86059e-05
0.000205732
-1.44848e-05
0.000210766
-1.0058e-05
0.000213471
-5.40364e-06
0.000213883
-8.22291e-07
0.00021193
3.89769e-06
0.000207645
8.57167e-06
0.000201103
1.30845e-05
0.000192416
1.73721e-05
0.000181741
2.13421e-05
0.000169215
2.50383e-05
0.000155013
2.83897e-05
0.000139423
3.11704e-05
0.000122566
3.37e-05
0.000104768
3.55799e-05
8.62531e-05
3.7017e-05
6.72974e-05
3.78993e-05
4.81416e-05
3.82976e-05
2.90202e-05
3.8234e-05
1.01585e-05
3.77075e-05
-8.25178e-06
3.68068e-05
-2.60094e-05
3.55076e-05
-4.30034e-05
3.39754e-05
-5.90604e-05
3.21123e-05
-7.41742e-05
3.02281e-05
-8.82773e-05
2.81957e-05
-0.000101344
2.61175e-05
-0.000113277
2.38711e-05
-0.000124222
2.18946e-05
-0.000134142
1.98489e-05
-0.000143041
1.77962e-05
-0.000150982
1.58673e-05
-0.000158
1.4032e-05
-0.000164131
1.22608e-05
-0.000169414
1.0573e-05
-0.000173821
8.80678e-06
-0.000177426
7.2056e-06
-0.000180198
5.54207e-06
-0.000182147
3.88679e-06
-0.000183348
2.40366e-06
-0.000183807
9.18024e-07
-0.000183366
-8.84478e-07
-0.000182087
-2.5647e-06
-0.000180035
-4.12266e-06
-0.000177213
-5.61982e-06
-0.00017377
-6.89073e-06
-0.000169414
-8.70887e-06
-0.000164192
-1.04483e-05
-0.00015829
-1.18083e-05
-0.000151519
-1.35448e-05
-0.000143764
-1.55138e-05
-0.000135224
-1.70815e-05
-0.000125633
-1.91785e-05
-0.000115168
-2.09313e-05
-0.000103956
-2.24067e-05
-9.17509e-05
-2.44196e-05
-7.87572e-05
-2.5987e-05
-6.49055e-05
-2.76957e-05
-5.03208e-05
-2.91739e-05
-3.5052e-05
-3.05218e-05
-1.90972e-05
-3.18936e-05
-2.61769e-06
-3.29584e-05
1.42204e-05
-3.36716e-05
3.14316e-05
-3.44005e-05
4.88687e-05
-3.48656e-05
6.61861e-05
-3.4627e-05
8.34432e-05
-3.45114e-05
0.000100516
-3.41227e-05
0.000116913
-3.27789e-05
0.000132674
-3.15011e-05
0.000147472
-2.95969e-05
0.000161371
-2.77923e-05
0.000174112
-2.54549e-05
0.000185276
-2.2309e-05
0.000194775
-1.89871e-05
0.000202439
-1.53271e-05
0.000208085
-1.12758e-05
0.000211566
-6.95239e-06
0.00021274
-2.34181e-06
0.000211607
2.26218e-06
0.000208065
7.08169e-06
0.000202106
1.19147e-05
0.000193865
1.648e-05
0.000183404
2.09153e-05
0.000170907
2.49849e-05
0.000156525
2.87486e-05
0.000140547
3.19458e-05
0.000123161
3.47539e-05
0.00010478
3.67499e-05
8.56172e-05
3.83127e-05
6.60232e-05
3.91693e-05
4.6287e-05
3.94512e-05
2.67311e-05
3.90919e-05
7.57531e-06
3.83038e-05
-1.08842e-05
3.69131e-05
-2.8519e-05
3.52644e-05
-4.51703e-05
3.32918e-05
-6.07633e-05
3.11689e-05
-7.51818e-05
2.88278e-05
-8.83922e-05
2.64349e-05
-0.00010052
2.42596e-05
-0.000111445
2.18429e-05
-0.000121301
1.97088e-05
-0.000130108
1.76126e-05
-0.000137946
1.56787e-05
-0.000144904
1.39202e-05
-0.000151044
1.22714e-05
-0.000156417
1.0737e-05
-0.000161055
9.2824e-06
-0.000165081
8.05856e-06
-0.000168505
6.84518e-06
-0.000171219
5.42303e-06
-0.000173391
4.34827e-06
-0.000175097
3.39724e-06
-0.000176218
2.24159e-06
-0.000176923
1.40433e-06
-0.000176891
-7.31685e-08
-0.000176407
-9.49815e-07
-0.000175498
-1.83037e-06
-0.000173831
-3.346e-06
-0.000171302
-5.0645e-06
-0.00016815
-6.30378e-06
-0.000163985
-8.33199e-06
-0.000159236
-9.50765e-06
-0.000153539
-1.13957e-05
-0.000146734
-1.36098e-05
-0.000139042
-1.53807e-05
-0.000130319
-1.74496e-05
-0.000120412
-1.98121e-05
-0.000109438
-2.19542e-05
-9.72745e-05
-2.43174e-05
-8.4042e-05
-2.6458e-05
-6.97186e-05
-2.86441e-05
-5.43173e-05
-3.07959e-05
-3.7985e-05
-3.26565e-05
-2.0857e-05
-3.42501e-05
-2.9629e-06
-3.57682e-05
1.55425e-05
-3.7e-05
3.42923e-05
-3.749e-05
5.33368e-05
-3.80793e-05
7.2235e-05
-3.77862e-05
9.09999e-05
-3.75137e-05
0.000109422
-3.68177e-05
0.000126967
-3.5083e-05
0.000143544
-3.31418e-05
0.000158907
-3.06962e-05
0.000172944
-2.80658e-05
0.000185111
-2.43276e-05
0.000195351
-2.04785e-05
0.000203693
-1.66653e-05
0.000209854
-1.23037e-05
0.000213707
-7.70262e-06
0.000215226
-3.03704e-06
0.00021446
1.53077e-06
0.000211335
6.24778e-06
0.000205976
1.0708e-05
0.000198468
1.50043e-05
0.000189017
1.89016e-05
0.000177706
2.26223e-05
0.00016475
2.58947e-05
0.000150341
2.87983e-05
0.000134687
3.12967e-05
0.000118088
3.31959e-05
0.000100608
3.49399e-05
8.25439e-05
3.61037e-05
6.41551e-05
3.67727e-05
4.56424e-05
3.70172e-05
2.7218e-05
3.68347e-05
9.00952e-06
3.64098e-05
-8.91344e-06
3.58337e-05
-2.62194e-05
3.45967e-05
-4.28369e-05
3.32318e-05
-5.87132e-05
3.17463e-05
-7.3702e-05
2.99728e-05
-8.77784e-05
2.81499e-05
-0.000100909
2.62531e-05
-0.000113006
2.41893e-05
-0.000124143
2.22678e-05
-0.000134288
2.02918e-05
-0.000143361
1.81426e-05
-0.000151481
1.62395e-05
-0.000158564
1.41663e-05
-0.00016464
1.2154e-05
-0.000169794
1.03033e-05
-0.000173964
8.33951e-06
-0.000177293
6.65819e-06
-0.000179712
4.83728e-06
-0.000181206
2.98519e-06
-0.000181922
1.43253e-06
-0.000181812
-2.06343e-07
-0.00018088
-1.8814e-06
-0.000179149
-3.47195e-06
-0.000176675
-4.9399e-06
-0.000173298
-6.75382e-06
-0.000169195
-8.20357e-06
-0.00016417
-1.00508e-05
-0.000158422
-1.14762e-05
-0.000151948
-1.29686e-05
-0.000144666
-1.45612e-05
-0.000136704
-1.59171e-05
-0.000127949
-1.75129e-05
-0.000118391
-1.91106e-05
-0.000108166
-2.04505e-05
-9.71206e-05
-2.20897e-05
-8.53066e-05
-2.36195e-05
-7.28785e-05
-2.48516e-05
-5.96909e-05
-2.63703e-05
-4.57917e-05
-2.77916e-05
-3.1351e-05
-2.88744e-05
-1.62459e-05
-3.01978e-05
-6.22238e-07
-3.12605e-05
1.54182e-05
-3.20776e-05
3.17875e-05
-3.27327e-05
4.82457e-05
-3.29097e-05
6.47886e-05
-3.30732e-05
8.12417e-05
-3.28941e-05
9.73494e-05
-3.22087e-05
0.00011304
-3.13631e-05
0.000128105
-3.01131e-05
0.000142356
-2.84956e-05
0.000155628
-2.65423e-05
0.000167701
-2.41386e-05
0.000178426
-2.14412e-05
0.000187637
-1.84125e-05
0.000195132
-1.49833e-05
0.000200825
-1.13807e-05
0.00020461
-7.56622e-06
0.000206422
-3.61724e-06
0.000206181
4.79525e-07
0.000203806
4.74437e-06
0.000199373
8.86634e-06
0.000192982
1.27742e-05
0.00018471
1.65373e-05
0.000174809
1.97939e-05
0.000163387
2.28349e-05
0.000150576
2.56135e-05
0.00013667
2.77991e-05
0.000121782
2.9766e-05
0.000106208
3.11366e-05
9.0115e-05
3.21765e-05
7.36872e-05
3.28456e-05
5.71621e-05
3.30407e-05
4.06863e-05
3.29425e-05
2.44309e-05
3.25022e-05
8.5522e-06
3.17446e-05
-6.88251e-06
3.08733e-05
-2.16584e-05
2.95498e-05
-3.57608e-05
2.82014e-05
-4.9074e-05
2.66232e-05
-6.15267e-05
2.49027e-05
-7.31058e-05
2.31555e-05
2.10356e-05
-0.000179403
-6.04987e-06
-0.000176547
-8.5762e-06
-0.000172967
-1.07439e-05
-0.000168638
-1.30007e-05
-0.000163382
-1.57748e-05
-0.000157365
-1.80632e-05
-0.00015028
-2.12419e-05
-0.000142395
-2.36834e-05
-0.00013364
-2.62884e-05
-0.000123842
-2.93596e-05
-0.000113105
-3.22142e-05
-0.000101497
-3.48174e-05
-8.87346e-05
-3.83053e-05
-7.50015e-05
-4.11759e-05
-6.02377e-05
-4.42784e-05
-4.45847e-05
-4.69475e-05
-2.82467e-05
-4.90201e-05
-1.10159e-05
-5.16595e-05
6.96544e-06
-5.38915e-05
2.52676e-05
-5.48666e-05
4.39983e-05
-5.61582e-05
6.3042e-05
-5.7092e-05
8.19826e-05
-5.6777e-05
0.000100723
-5.61582e-05
0.000119013
-5.47858e-05
0.000136569
-5.26115e-05
0.000153164
-4.97442e-05
0.000168518
-4.60137e-05
0.000182419
-4.16244e-05
0.000194577
-3.64209e-05
0.000204735
-3.04599e-05
0.000212795
-2.41705e-05
0.000218582
-1.73516e-05
0.000222005
-1.02395e-05
0.000223023
-3.01317e-06
0.000221373
4.83816e-06
0.000217285
1.2246e-05
0.000210848
1.92986e-05
0.000202085
2.62615e-05
0.000191317
3.22865e-05
0.000178645
3.79481e-05
0.000164346
4.28405e-05
0.000148617
4.71396e-05
0.000131775
5.04757e-05
0.000114001
5.32719e-05
9.55901e-05
5.51914e-05
7.66859e-05
5.66446e-05
5.76543e-05
5.70556e-05
3.8689e-05
5.68586e-05
2.00056e-05
5.60141e-05
1.81394e-06
5.45449e-05
-1.59e-05
5.3107e-05
-3.29337e-05
5.10786e-05
-4.92204e-05
4.88385e-05
-6.4642e-05
4.62493e-05
-7.91691e-05
4.35704e-05
-9.27904e-05
4.08503e-05
-0.00010543
3.7912e-05
-0.000117107
3.5032e-05
-0.000127857
3.22486e-05
-0.00013766
2.94231e-05
-0.00014657
2.67419e-05
-0.000154512
2.38369e-05
-0.000161576
2.12099e-05
-0.000167802
1.86791e-05
-0.000173139
1.60124e-05
-0.000177605
1.34021e-05
-0.000181285
1.10447e-05
-0.000184033
8.25393e-06
-0.000186018
5.93542e-06
-0.000187099
3.2343e-06
-0.000187339
7.21476e-07
-0.000186752
-1.78841e-06
-0.000185296
-4.37063e-06
-0.000182933
-7.1005e-06
-0.000179785
-9.4281e-06
-0.000175707
-1.22178e-05
-0.000170992
-1.4155e-05
-0.000165407
-1.68199e-05
-0.000158927
-1.94025e-05
-0.000151838
-2.1217e-05
-0.000143947
-2.3695e-05
-0.000135237
-2.61174e-05
-0.000125802
-2.83167e-05
-0.000115588
-3.06371e-05
-0.000104605
-3.29501e-05
-9.28145e-05
-3.53882e-05
-8.0267e-05
-3.76392e-05
-6.68472e-05
-4.02278e-05
-5.26006e-05
-4.27317e-05
-3.75115e-05
-4.52467e-05
-2.1663e-05
-4.75519e-05
-5.21594e-06
-4.92927e-05
1.18941e-05
-5.13054e-05
2.93953e-05
-5.25035e-05
4.73593e-05
-5.38452e-05
6.5537e-05
-5.44752e-05
8.36078e-05
-5.41982e-05
0.000101464
-5.34908e-05
0.000118841
-5.20916e-05
0.000135386
-4.95675e-05
0.000150893
-4.64781e-05
0.000165282
-4.31175e-05
0.00017815
-3.8582e-05
0.000189344
-3.34892e-05
0.000198674
-2.79364e-05
0.000205929
-2.17392e-05
0.000210959
-1.50883e-05
0.000213662
-8.10712e-06
0.000214067
-1.22736e-06
0.000212101
5.8637e-06
0.000207813
1.28592e-05
0.000201266
1.96314e-05
0.000192572
2.60664e-05
0.000181887
3.20265e-05
0.000169346
3.75798e-05
0.000155122
4.26132e-05
0.000139517
4.67752e-05
0.00012264
5.05768e-05
0.000104824
5.33958e-05
8.62862e-05
5.55552e-05
6.73124e-05
5.68731e-05
4.81281e-05
5.74819e-05
2.90094e-05
5.73527e-05
1.01317e-05
5.65853e-05
-8.30002e-06
5.52385e-05
-2.60684e-05
5.3276e-05
-4.30725e-05
5.09796e-05
-5.91285e-05
4.81683e-05
-7.42379e-05
4.53376e-05
-8.8357e-05
4.23147e-05
-0.000101423
3.91834e-05
-0.000113357
3.5805e-05
-0.000124304
3.28416e-05
-0.000134225
2.977e-05
-0.000143112
2.66836e-05
-0.000151038
2.3793e-05
-0.000158055
2.10491e-05
-0.000164193
1.83981e-05
-0.000169485
1.58657e-05
-0.000173895
1.32163e-05
-0.000177499
1.08096e-05
-0.000180262
8.30492e-06
-0.000182218
5.84342e-06
-0.00018342
3.60473e-06
-0.000183876
1.37489e-06
-0.000183425
-1.33556e-06
-0.000182143
-3.84729e-06
-0.000180112
-6.15393e-06
-0.000177261
-8.47008e-06
-0.000173836
-1.03162e-05
-0.000169482
-1.30633e-05
-0.000164254
-1.56758e-05
-0.000158364
-1.76989e-05
-0.000151592
-2.03165e-05
-0.000143835
-2.32712e-05
-0.000135298
-2.56181e-05
-0.000125702
-2.8775e-05
-0.000115239
-3.1394e-05
-0.000104026
-3.36202e-05
-9.1814e-05
-3.66315e-05
-7.88218e-05
-3.89793e-05
-6.49654e-05
-4.15523e-05
-5.03738e-05
-4.37657e-05
-3.50859e-05
-4.58099e-05
-1.91252e-05
-4.78545e-05
-2.63337e-06
-4.94504e-05
1.41979e-05
-5.05031e-05
3.14223e-05
-5.1625e-05
4.88842e-05
-5.23277e-05
6.62019e-05
-5.19449e-05
8.34724e-05
-5.17822e-05
0.000100574
-5.12246e-05
0.000116963
-4.91678e-05
0.000132754
-4.72923e-05
0.000147563
-4.44064e-05
0.000161469
-4.16986e-05
0.000174236
-3.82214e-05
0.000185426
-3.34994e-05
0.000194939
-2.85004e-05
0.000202615
-2.30033e-05
0.000208266
-1.69274e-05
0.000211746
-1.04326e-05
0.000212926
-3.52137e-06
0.000211782
3.40616e-06
0.000208247
1.06164e-05
0.000202291
1.78707e-05
0.000194035
2.47358e-05
0.000183561
3.13895e-05
0.000171025
3.75208e-05
0.000156639
4.31344e-05
0.000140649
4.79358e-05
0.000123247
5.21559e-05
0.000104848
5.51484e-05
8.5666e-05
5.74949e-05
6.60455e-05
5.87899e-05
4.62729e-05
5.92237e-05
2.66986e-05
5.86663e-05
7.52587e-06
5.74766e-05
-1.09459e-05
5.53849e-05
-2.85846e-05
5.29031e-05
-4.52431e-05
4.99504e-05
-6.08507e-05
4.67766e-05
-7.52794e-05
4.32566e-05
-8.84788e-05
3.96344e-05
-0.000100614
3.63949e-05
-0.000111526
3.27552e-05
-0.000121366
2.95488e-05
-0.00013017
2.64161e-05
-0.000138009
2.35182e-05
-0.000144959
2.08702e-05
-0.00015109
1.84015e-05
-0.000156475
1.61223e-05
-0.000161111
1.39188e-05
-0.00016514
1.2087e-05
-0.000168562
1.02671e-05
-0.000171262
8.12378e-06
-0.00017342
6.50609e-06
-0.00017514
5.11714e-06
-0.000176259
3.36003e-06
-0.00017697
2.11559e-06
-0.000176931
-1.12059e-07
-0.00017644
-1.44146e-06
-0.000175566
-2.70419e-06
-0.000173889
-5.02289e-06
-0.000171368
-7.58537e-06
-0.000168218
-9.45369e-06
-0.000164048
-1.25028e-05
-0.000159317
-1.42387e-05
-0.000153621
-1.7091e-05
-0.000146812
-2.04194e-05
-0.000139124
-2.30685e-05
-0.000130409
-2.61653e-05
-0.0001205
-2.97211e-05
-0.000109538
-3.29164e-05
-9.73588e-05
-3.64964e-05
-8.41124e-05
-3.97046e-05
-6.97852e-05
-4.29715e-05
-5.43781e-05
-4.62031e-05
-3.80373e-05
-4.89975e-05
-2.0899e-05
-5.13886e-05
-2.99399e-06
-5.36735e-05
1.55314e-05
-5.55256e-05
3.4296e-05
-5.62548e-05
5.3363e-05
-5.71465e-05
7.22645e-05
-5.6688e-05
9.10409e-05
-5.62903e-05
0.000109494
-5.5271e-05
0.000127052
-5.26416e-05
0.000143639
-4.97283e-05
0.000159026
-4.60839e-05
0.000173075
-4.21152e-05
0.000185269
-3.65217e-05
0.00019552
-3.07296e-05
0.000203869
-2.50148e-05
0.00021005
-1.8485e-05
0.000213916
-1.15686e-05
0.000215434
-4.5546e-06
0.000214632
2.33217e-06
0.000211492
9.3875e-06
0.000206147
1.60529e-05
0.000198628
2.2523e-05
0.000189156
2.8374e-05
0.000177835
3.3943e-05
0.00016487
3.88596e-05
0.000150445
4.32233e-05
0.000134758
4.69835e-05
0.000118139
4.98144e-05
0.00010065
5.24293e-05
8.25731e-05
5.41805e-05
6.41598e-05
5.5186e-05
4.56282e-05
5.55488e-05
2.71875e-05
5.52754e-05
8.97193e-06
5.46253e-05
-8.95529e-06
5.3761e-05
-2.62715e-05
5.19129e-05
-4.28782e-05
4.98385e-05
-5.8776e-05
4.76441e-05
-7.37702e-05
4.4967e-05
-8.78477e-05
4.22274e-05
-0.000100979
3.93844e-05
-0.000113076
3.62866e-05
-0.000124223
3.3414e-05
-0.00013436
3.04296e-05
-0.00014343
2.72124e-05
-0.000151549
2.43582e-05
-0.000158631
2.12484e-05
-0.000164707
1.82297e-05
-0.000169859
1.54562e-05
-0.000174023
1.25035e-05
-0.000177351
9.98574e-06
-0.000179767
7.25322e-06
-0.000181264
4.48233e-06
-0.000181982
2.15097e-06
-0.000181874
-3.15303e-07
-0.00018094
-2.8148e-06
-0.000179211
-5.2015e-06
-0.000176736
-7.41454e-06
-0.000173362
-1.01278e-05
-0.000169257
-1.23085e-05
-0.000164233
-1.50747e-05
-0.000158481
-1.7229e-05
-0.000152023
-1.94267e-05
-0.000144753
-2.18311e-05
-0.000136762
-2.3908e-05
-0.000128019
-2.62555e-05
-0.000118459
-2.86712e-05
-0.000108232
-3.06772e-05
-9.71815e-05
-3.31403e-05
-8.53635e-05
-3.54376e-05
-7.29335e-05
-3.72817e-05
-5.97421e-05
-3.95618e-05
-4.58363e-05
-4.16975e-05
-3.13891e-05
-4.33217e-05
-1.62753e-05
-4.53117e-05
-6.56525e-07
-4.68795e-05
1.53891e-05
-4.81234e-05
3.17684e-05
-4.91121e-05
4.82397e-05
-4.93812e-05
6.47983e-05
-4.96319e-05
8.12651e-05
-4.93611e-05
9.73876e-05
-4.83314e-05
0.000113095
-4.70707e-05
0.000128179
-4.51973e-05
0.000142461
-4.27777e-05
0.000155759
-3.98407e-05
0.000167853
-3.62325e-05
0.000178598
-3.21859e-05
0.000187827
-2.76419e-05
0.000195337
-2.2493e-05
0.000201039
-1.70836e-05
0.000204828
-1.13546e-05
0.00020664
-5.43003e-06
0.000206372
7.48053e-07
0.000203964
7.15173e-06
0.000199535
1.32957e-05
0.000193129
1.91794e-05
0.000184843
2.48236e-05
0.000174929
2.97072e-05
0.000163496
3.42684e-05
0.000150674
3.84349e-05
0.000136744
4.17293e-05
0.000121839
4.46707e-05
0.000106249
4.67265e-05
9.01398e-05
4.82861e-05
7.36963e-05
4.92891e-05
5.71563e-05
4.95806e-05
4.06665e-05
4.94324e-05
2.43977e-05
4.87709e-05
8.49733e-06
4.76449e-05
-6.93423e-06
4.63048e-05
-2.17161e-05
4.43316e-05
-3.58242e-05
4.23094e-05
-4.91422e-05
3.99412e-05
-6.15978e-05
3.73582e-05
-7.31805e-05
3.47381e-05
3.15538e-05
-0.000179491
-8.06322e-06
-0.000176636
-1.14315e-05
-0.000173057
-1.43222e-05
-0.000168729
-1.73294e-05
-0.000163481
-2.10221e-05
-0.000157469
-2.40752e-05
-0.000150378
-2.83333e-05
-0.000142509
-3.15528e-05
-0.000133776
-3.50214e-05
-0.000123949
-3.91863e-05
-0.000113213
-4.29511e-05
-0.000101616
-4.64139e-05
-8.88541e-05
-5.10674e-05
-7.51076e-05
-5.49225e-05
-6.03376e-05
-5.90485e-05
-4.46808e-05
-6.26044e-05
-2.83454e-05
-6.53557e-05
-1.1096e-05
-6.89091e-05
6.9185e-06
-7.19061e-05
2.52496e-05
-7.31979e-05
4.40064e-05
-7.49151e-05
6.30775e-05
-7.61633e-05
8.2049e-05
-7.57487e-05
0.000100819
-7.49281e-05
0.000119141
-7.31084e-05
0.000136734
-7.02048e-05
0.000153369
-6.63795e-05
0.00016875
-6.13944e-05
0.000182675
-5.55499e-05
0.000194861
-4.86064e-05
0.000205039
-4.06381e-05
0.000213116
-3.22482e-05
0.000218914
-2.31499e-05
0.000222345
-1.367e-05
0.000223363
-4.03183e-06
0.00022166
6.54138e-06
0.000217554
1.63523e-05
0.000211109
2.57429e-05
0.00020233
3.50401e-05
0.000191558
4.30592e-05
0.000178841
5.06646e-05
0.000164508
5.71739e-05
0.000148752
6.28951e-05
0.000131881
6.73466e-05
0.000114076
7.10766e-05
9.56352e-05
7.36325e-05
7.66989e-05
7.55809e-05
5.76453e-05
7.6109e-05
3.86594e-05
7.58445e-05
1.99565e-05
7.4717e-05
1.74658e-06
7.27548e-05
-1.59848e-05
7.08383e-05
-3.30328e-05
6.81267e-05
-4.93313e-05
6.51369e-05
-6.47587e-05
6.16767e-05
-7.92891e-05
5.81008e-05
-9.29116e-05
5.44728e-05
-0.000105549
5.05493e-05
-0.000117224
4.67072e-05
-0.000127971
4.29951e-05
-0.000137762
3.92143e-05
-0.000146662
3.56424e-05
-0.000154598
3.17727e-05
-0.000161654
2.82661e-05
-0.000167879
2.49039e-05
-0.000173208
2.13412e-05
-0.000177668
1.7862e-05
-0.00018135
1.47265e-05
-0.00018409
1.09937e-05
-0.000186076
7.92169e-06
-0.000187179
4.33773e-06
-0.000187434
9.75565e-07
-0.000186854
-2.36803e-06
-0.000185395
-5.82969e-06
-0.000183041
-9.45457e-06
-0.000179888
-1.25811e-05
-0.000175797
-1.63085e-05
-0.000171098
-1.88548e-05
-0.000165531
-2.23872e-05
-0.000159038
-2.58951e-05
-0.00015193
-2.83247e-05
-0.000144052
-3.15734e-05
-0.000135312
-3.4858e-05
-0.000125876
-3.77522e-05
-0.000115674
-4.08396e-05
-0.000104683
-4.39416e-05
-9.29167e-05
-4.71542e-05
-8.03545e-05
-5.02015e-05
-6.6932e-05
-5.36505e-05
-5.2695e-05
-5.69687e-05
-3.75815e-05
-6.03604e-05
-2.17296e-05
-6.34039e-05
-5.2677e-06
-6.57548e-05
1.18719e-05
-6.84452e-05
2.93645e-05
-6.99963e-05
4.73459e-05
-7.18268e-05
6.55782e-05
-7.27077e-05
8.36498e-05
-7.227e-05
0.000101544
-7.13857e-05
0.000118955
-6.95022e-05
0.000135501
-6.61141e-05
0.000151053
-6.20296e-05
0.000165449
-5.75137e-05
0.000178344