/*--------------------------------*- C++ -*----------------------------------*\
| =========                 |                                                 |
| \\      /  F ield         | OpenFOAM: The Open Source CFD Toolbox           |
|  \\    /   O peration     | Version:  3.0.1                                 |
|   \\  /    A nd           | Web:      www.OpenFOAM.org                      |
|    \\/     M anipulation  |                                                 |
\*---------------------------------------------------------------------------*/
FoamFile
{
    version     2.0;
    format      ascii;
    class       volVectorField;
    location    "22";
    object      U;
}
// * * * * * * * * * * * * * * * * * * * * * * * * * * * * * * * * * * * * * //

dimensions      [0 1 -1 0 0 0 0];

internalField   nonuniform List<vector> 
22680
(
(-0.109437 0.00102326 0)
(-0.117155 0.000952315 0)
(-0.124929 0.000889396 0)
(-0.132159 0.000823814 0)
(-0.138865 0.000764177 0)
(-0.145061 0.000703509 0)
(-0.150765 0.00064696 0)
(-0.155989 0.000590277 0)
(-0.160747 0.000536127 0)
(-0.165047 0.000482246 0)
(-0.168899 0.000429599 0)
(-0.172306 0.000377272 0)
(-0.175272 0.000325183 0)
(-0.177799 0.000273237 0)
(-0.179885 0.000220772 0)
(-0.181526 0.000167782 0)
(-0.182721 0.000113793 0)
(-0.183446 5.87513e-05 0)
(-0.183713 2.66038e-06 0)
(-0.183495 -5.59224e-05 0)
(-0.182766 -0.000117249 0)
(-0.18151 -0.000180695 0)
(-0.179701 -0.000248436 0)
(-0.17731 -0.000318249 0)
(-0.174306 -0.000394088 0)
(-0.170654 -0.000471253 0)
(-0.16632 -0.000556312 0)
(-0.161269 -0.00064106 0)
(-0.155467 -0.000735236 0)
(-0.148883 -0.00082638 0)
(-0.141489 -0.000928421 0)
(-0.133263 -0.00102365 0)
(-0.124188 -0.0011314 0)
(-0.114256 -0.00122712 0)
(-0.103464 -0.00132116 0)
(-0.0918154 -0.00143082 0)
(-0.079328 -0.00151869 0)
(-0.0660278 -0.00162482 0)
(-0.0519562 -0.00170129 0)
(-0.0371761 -0.0017983 0)
(-0.0218037 -0.001856 0)
(-0.00578235 -0.00193933 0)
(0.010827 -0.00197549 0)
(0.0277838 -0.00203341 0)
(0.0449944 -0.00204018 0)
(0.062334 -0.00206704 0)
(0.0796649 -0.00204001 0)
(0.0968304 -0.00202915 0)
(0.113672 -0.00196555 0)
(0.130019 -0.00191164 0)
(0.145706 -0.00181154 0)
(0.160556 -0.00169375 0)
(0.174397 -0.00157396 0)
(0.187076 -0.00142289 0)
(0.198442 -0.00126369 0)
(0.20836 -0.00108271 0)
(0.216711 -0.000892713 0)
(0.223394 -0.000688942 0)
(0.22833 -0.000479719 0)
(0.231462 -0.000262477 0)
(0.232746 -4.97035e-05 0)
(0.232298 0.000168225 0)
(0.229958 0.000379728 0)
(0.22583 0.000593032 0)
(0.220024 0.000778454 0)
(0.212598 0.000973104 0)
(0.203666 0.00113195 0)
(0.193348 0.00129942 0)
(0.18177 0.00142486 0)
(0.169101 0.00155563 0)
(0.155449 0.00167366 0)
(0.141006 0.00174552 0)
(0.125901 0.00182215 0)
(0.110318 0.00185785 0)
(0.0944252 0.0018964 0)
(0.078318 0.00190028 0)
(0.0621652 0.00190606 0)
(0.0460734 0.00187601 0)
(0.0302296 0.00185902 0)
(0.0147154 0.00181026 0)
(-0.000227183 0.00175893 0)
(-0.0146395 0.00169539 0)
(-0.0286536 0.00163228 0)
(-0.042103 0.00155563 0)
(-0.0549302 0.00148154 0)
(-0.0671101 0.00139791 0)
(-0.0786139 0.00132193 0)
(-0.0894343 0.00123708 0)
(-0.0996143 0.00116261 0)
(-0.109109 0.00108249 0)
(-0.11792 0.0010039 0)
(-0.126125 0.000934066 0)
(-0.133708 0.000859553 0)
(-0.140717 0.000798577 0)
(-0.147186 0.00072777 0)
(-0.153146 0.000675576 0)
(-0.158586 0.000613838 0)
(-0.163556 0.000562284 0)
(-0.168101 0.000503964 0)
(-0.172181 0.000459828 0)
(-0.175836 0.000399015 0)
(-0.179051 0.000362447 0)
(-0.181837 0.000298739 0)
(-0.18418 0.000253574 0)
(-0.186074 0.000188363 0)
(-0.187502 0.000138525 0)
(-0.188377 7.5184e-05 0)
(-0.188755 1.97826e-05 0)
(-0.188634 -5.40052e-05 0)
(-0.187869 -0.000126151 0)
(-0.18652 -0.000195772 0)
(-0.184488 -0.000284395 0)
(-0.181791 -0.000360979 0)
(-0.178317 -0.000458368 0)
(-0.174089 -0.00053938 0)
(-0.169081 -0.000646923 0)
(-0.163248 -0.000732201 0)
(-0.15659 -0.000844135 0)
(-0.149112 -0.000930611 0)
(-0.140749 -0.00104553 0)
(-0.131564 -0.00112792 0)
(-0.121524 -0.00124727 0)
(-0.110635 -0.00133145 0)
(-0.0989859 -0.00142783 0)
(-0.0865398 -0.00151376 0)
(-0.0733792 -0.00160273 0)
(-0.0594845 -0.00168047 0)
(-0.0450046 -0.00174924 0)
(-0.0299621 -0.0018095 0)
(-0.0144853 -0.00185645 0)
(0.0013967 -0.00189699 0)
(0.0175446 -0.00192509 0)
(0.0338696 -0.00194285 0)
(0.0502875 -0.00194608 0)
(0.0666808 -0.00193876 0)
(0.0829479 -0.00191129 0)
(0.098953 -0.00187652 0)
(0.11457 -0.00182179 0)
(0.129671 -0.00175064 0)
(0.144113 -0.00166632 0)
(0.157748 -0.00156037 0)
(0.170449 -0.00144316 0)
(0.182063 -0.00130627 0)
(0.192463 -0.00115356 0)
(0.201523 -0.00098921 0)
(0.209137 -0.000812648 0)
(0.21521 -0.000621229 0)
(0.21966 -0.000429482 0)
(0.222448 -0.0002303 0)
(0.223533 -3.25782e-05 0)
(0.222975 0.000167483 0)
(0.22064 0.000371019 0)
(0.216668 0.000562873 0)
(0.211117 0.00074568 0)
(0.204062 0.000921441 0)
(0.195591 0.00108383 0)
(0.185799 0.00123357 0)
(0.174818 0.00136595 0)
(0.162771 0.00148695 0)
(0.149775 0.00158927 0)
(0.13598 0.00167725 0)
(0.121543 0.00174635 0)
(0.106548 0.00180191 0)
(0.0911642 0.00184016 0)
(0.0755547 0.0018609 0)
(0.0598035 0.00186882 0)
(0.0440387 0.001867 0)
(0.0283645 0.00184691 0)
(0.0128737 0.00182566 0)
(-0.00235392 0.00178307 0)
(-0.017245 0.00174423 0)
(-0.031728 0.00169095 0)
(-0.0457456 0.00163056 0)
(-0.0592595 0.00157026 0)
(-0.0722283 0.00149869 0)
(-0.0845706 0.00142374 0)
(-0.0962722 0.00134705 0)
(-0.10731 0.00127273 0)
(-0.117667 0.00118522 0)
(-0.127436 0.00113062 0)
(-0.136614 0.0010391 0)
(-0.145102 0.000964533 0)
(-0.152787 0.000868582 0)
(-0.159833 0.000796253 0)
(-0.166182 0.000706734 0)
(-0.171819 0.000630493 0)
(-0.176842 0.000556926 0)
(-0.18115 0.000471358 0)
(-0.184886 0.000408592 0)
(-0.187991 0.000329634 0)
(-0.190529 0.000267666 0)
(-0.1925 0.000195215 0)
(-0.193907 0.000135736 0)
(-0.194749 6.90248e-05 0)
(-0.195084 9.28923e-06 0)
(-0.19488 -5.58793e-05 0)
(-0.194144 -0.000117284 0)
(-0.192869 -0.000183455 0)
(-0.191059 -0.00024362 0)
(-0.188704 -0.00031456 0)
(-0.185813 -0.000364855 0)
(-0.182426 -0.000432884 0)
(-0.178492 -0.000503394 0)
(-0.173982 -0.000559584 0)
(-0.168851 -0.000645352 0)
(-0.163125 -0.000707675 0)
(-0.156753 -0.000797996 0)
(-0.149737 -0.000864199 0)
(-0.142049 -0.000955819 0)
(-0.133684 -0.00102929 0)
(-0.124522 -0.00113766 0)
(-0.11457 -0.00121006 0)
(-0.10396 -0.00130737 0)
(-0.0925915 -0.00138756 0)
(-0.080443 -0.00148708 0)
(-0.0675784 -0.00156056 0)
(-0.0540504 -0.001629 0)
(-0.0400603 -0.00169266 0)
(-0.0257234 -0.00181038 0)
(-0.0104487 -0.00172737 0)
(0.00471548 -0.00140964 0)
(0.0157405 -0.000464438 0)
(0.0191653 0.000243899 0)
(0.019711 0.000509403 0)
(0.00130957 -0.00100595 0)
(-0.109469 0.00306968 0)
(-0.117186 0.00285685 0)
(-0.12496 0.00266809 0)
(-0.132189 0.00247134 0)
(-0.138893 0.00229244 0)
(-0.145089 0.00211044 0)
(-0.150792 0.00194081 0)
(-0.156015 0.00177078 0)
(-0.160772 0.00160834 0)
(-0.165073 0.00144671 0)
(-0.168923 0.00128878 0)
(-0.17233 0.00113182 0)
(-0.175297 0.00097557 0)
(-0.177824 0.00081974 0)
(-0.17991 0.000662356 0)
(-0.181551 0.000503373 0)
(-0.182746 0.00034152 0)
(-0.183474 0.000176141 0)
(-0.18374 8.47189e-06 0)
(-0.183523 -0.000167588 0)
(-0.182796 -0.000351612 0)
(-0.181541 -0.000541907 0)
(-0.179734 -0.000745092 0)
(-0.177344 -0.000954528 0)
(-0.174342 -0.00118203 0)
(-0.170692 -0.00141353 0)
(-0.166361 -0.0016687 0)
(-0.161312 -0.00192297 0)
(-0.155512 -0.0022055 0)
(-0.148929 -0.00247898 0)
(-0.141536 -0.00278512 0)
(-0.133311 -0.00307086 0)
(-0.124237 -0.00339414 0)
(-0.114305 -0.00368137 0)
(-0.103512 -0.00396353 0)
(-0.0918633 -0.00429259 0)
(-0.0793738 -0.00455624 0)
(-0.0660723 -0.00487472 0)
(-0.0519974 -0.00510422 0)
(-0.0372141 -0.00539548 0)
(-0.0218373 -0.00556896 0)
(-0.00581177 -0.0058183 0)
(0.0108043 -0.00592704 0)
(0.0277676 -0.00610105 0)
(0.0449857 -0.00612143 0)
(0.0623335 -0.00620212 0)
(0.0796728 -0.00612109 0)
(0.0968478 -0.00608859 0)
(0.113698 -0.00589778 0)
(0.130055 -0.00573612 0)
(0.145752 -0.00543579 0)
(0.160611 -0.00508239 0)
(0.174462 -0.0047229 0)
(0.187148 -0.00426984 0)
(0.198523 -0.00379184 0)
(0.208447 -0.00324907 0)
(0.216804 -0.00267827 0)
(0.223492 -0.00206781 0)
(0.228432 -0.00143979 0)
(0.231569 -0.000785782 0)
(0.232858 -0.000149756 0)
(0.232401 0.000501913 0)
(0.23005 0.0011392 0)
(0.225928 0.001779 0)
(0.220117 0.00233583 0)
(0.212687 0.00292 0)
(0.203748 0.00339666 0)
(0.193423 0.00389914 0)
(0.181837 0.00427551 0)
(0.16916 0.00466787 0)
(0.1555 0.00502202 0)
(0.141049 0.00523766 0)
(0.125935 0.0054673 0)
(0.110344 0.00557478 0)
(0.0944426 0.00569029 0)
(0.0783283 0.0057018 0)
(0.0621667 0.00571905 0)
(0.0460699 0.00562889 0)
(0.0302206 0.00557827 0)
(0.0146982 0.00543153 0)
(-0.000249216 0.00527722 0)
(-0.0146644 0.00508705 0)
(-0.028683 0.00489756 0)
(-0.0421358 0.00466762 0)
(-0.0549661 0.00444535 0)
(-0.0671479 0.00419432 0)
(-0.0786538 0.00396573 0)
(-0.089475 0.00371255 0)
(-0.0996555 0.00348794 0)
(-0.109152 0.00324687 0)
(-0.117962 0.00301178 0)
(-0.126167 0.00280279 0)
(-0.13375 0.00257912 0)
(-0.140759 0.00239723 0)
(-0.147227 0.00218342 0)
(-0.153188 0.00202584 0)
(-0.158627 0.00184209 0)
(-0.1636 0.00168739 0)
(-0.168142 0.00151188 0)
(-0.172224 0.00137968 0)
(-0.175877 0.00119865 0)
(-0.179096 0.00108443 0)
(-0.181883 0.000897218 0)
(-0.184226 0.000763335 0)
(-0.186119 0.000566854 0)
(-0.187547 0.000413912 0)
(-0.188427 0.000230033 0)
(-0.188809 5.31379e-05 0)
(-0.188687 -0.000156992 0)
(-0.187925 -0.000375971 0)
(-0.186583 -0.000594104 0)
(-0.18455 -0.000852185 0)
(-0.181852 -0.00107688 0)
(-0.178379 -0.00137791 0)
(-0.17415 -0.00162032 0)
(-0.169139 -0.00193866 0)
(-0.163307 -0.00219605 0)
(-0.156649 -0.00253498 0)
(-0.149169 -0.00279304 0)
(-0.140803 -0.00313689 0)
(-0.131617 -0.00338529 0)
(-0.12158 -0.0037431 0)
(-0.110685 -0.00399951 0)
(-0.099036 -0.00428568 0)
(-0.0865911 -0.00454321 0)
(-0.0734259 -0.0048126 0)
(-0.0595242 -0.00504634 0)
(-0.0450368 -0.00524604 0)
(-0.0299904 -0.0054295 0)
(-0.014509 -0.00557207 0)
(0.00137729 -0.00569484 0)
(0.017534 -0.00577401 0)
(0.0338654 -0.00583411 0)
(0.0502938 -0.00583586 0)
(0.0666943 -0.00581572 0)
(0.0829669 -0.00574007 0)
(0.0989805 -0.00562953 0)
(0.114607 -0.00546495 0)
(0.129716 -0.00525476 0)
(0.144168 -0.00499444 0)
(0.157809 -0.00468753 0)
(0.170521 -0.0043259 0)
(0.182144 -0.00391848 0)
(0.192548 -0.00346884 0)
(0.201617 -0.00296598 0)
(0.20924 -0.00243508 0)
(0.215311 -0.0018727 0)
(0.219766 -0.00129162 0)
(0.222556 -0.000695223 0)
(0.223644 -9.85173e-05 0)
(0.223078 0.000503778 0)
(0.22074 0.00111497 0)
(0.216771 0.00169149 0)
(0.211218 0.00223983 0)
(0.204158 0.00276524 0)
(0.195682 0.00325402 0)
(0.185884 0.00370479 0)
(0.174894 0.00409826 0)
(0.162838 0.00446143 0)
(0.149832 0.00476938 0)
(0.136025 0.00503026 0)
(0.121576 0.00523818 0)
(0.106571 0.00540383 0)
(0.0911768 0.00552123 0)
(0.0755572 0.00558476 0)
(0.0597997 0.00560581 0)
(0.0440266 0.0056013 0)
(0.0283483 0.00554073 0)
(0.0128503 0.00548104 0)
(-0.00238232 0.00535286 0)
(-0.0172789 0.00523252 0)
(-0.0317677 0.00507047 0)
(-0.0457848 0.00489222 0)
(-0.0593048 0.00471467 0)
(-0.0722806 0.00449945 0)
(-0.0846284 0.00427004 0)
(-0.0963317 0.00403738 0)
(-0.107373 0.00381814 0)
(-0.117725 0.00355651 0)
(-0.127498 0.00339098 0)
(-0.136685 0.00311577 0)
(-0.145176 0.00289404 0)
(-0.152858 0.00260148 0)
(-0.159902 0.00239302 0)
(-0.166254 0.00211887 0)
(-0.171887 0.00188681 0)
(-0.176912 0.00166689 0)
(-0.181216 0.00141196 0)
(-0.184955 0.00122638 0)
(-0.188058 0.000985316 0)
(-0.190594 0.000806133 0)
(-0.192559 0.000589176 0)
(-0.193962 0.000411522 0)
(-0.194802 0.000212361 0)
(-0.195128 2.97952e-05 0)
(-0.194923 -0.000160654 0)
(-0.194189 -0.000353613 0)
(-0.192915 -0.000548424 0)
(-0.191107 -0.00073322 0)
(-0.188748 -0.000945571 0)
(-0.185856 -0.00109211 0)
(-0.182477 -0.00130376 0)
(-0.178542 -0.001514 0)
(-0.174035 -0.00168279 0)
(-0.168905 -0.00193689 0)
(-0.163185 -0.00212638 0)
(-0.156809 -0.00239454 0)
(-0.149793 -0.00259306 0)
(-0.142104 -0.00287146 0)
(-0.13374 -0.00308885 0)
(-0.124574 -0.00341059 0)
(-0.114618 -0.00363155 0)
(-0.104009 -0.00392523 0)
(-0.0926391 -0.0041642 0)
(-0.0804849 -0.00446338 0)
(-0.0676131 -0.00468229 0)
(-0.0541002 -0.00492606 0)
(-0.0399683 -0.00502627 0)
(-0.0255788 -0.00517575 0)
(-0.0111906 -0.00559581 0)
(0.00436551 -0.00478758 0)
(0.0180655 -0.00271198 0)
(0.0268814 -0.00135076 0)
(0.0343026 0.00404459 0)
(0.0263378 0.00161596 0)
(-0.109534 0.00511582 0)
(-0.117249 0.00476105 0)
(-0.125021 0.00444644 0)
(-0.132248 0.00411853 0)
(-0.13895 0.00382038 0)
(-0.145144 0.00351709 0)
(-0.150845 0.0032344 0)
(-0.156068 0.00295107 0)
(-0.160824 0.00268039 0)
(-0.165123 0.00241105 0)
(-0.168973 0.00214789 0)
(-0.17238 0.00188633 0)
(-0.175346 0.00162596 0)
(-0.177873 0.00136629 0)
(-0.179959 0.00110402 0)
(-0.181601 0.000839009 0)
(-0.182796 0.000569718 0)
(-0.183527 0.000294621 0)
(-0.183796 1.41649e-05 0)
(-0.183579 -0.000278908 0)
(-0.182855 -0.00058555 0)
(-0.181603 -0.000902613 0)
(-0.179799 -0.00124113 0)
(-0.177413 -0.00159017 0)
(-0.174415 -0.00196927 0)
(-0.170769 -0.0023551 0)
(-0.166442 -0.00278038 0)
(-0.161396 -0.00320424 0)
(-0.1556 -0.00367518 0)
(-0.14902 -0.00413109 0)
(-0.141631 -0.00464143 0)
(-0.133406 -0.00511781 0)
(-0.124334 -0.00565674 0)
(-0.114401 -0.00613572 0)
(-0.103607 -0.00660606 0)
(-0.0919578 -0.00715478 0)
(-0.0794642 -0.00759433 0)
(-0.0661598 -0.00812548 0)
(-0.0520781 -0.00850834 0)
(-0.0372882 -0.00899437 0)
(-0.0219027 -0.00928469 0)
(-0.0058686 -0.00969817 0)
(0.0107608 -0.00988052 0)
(0.0277373 -0.0101711 0)
(0.0449704 -0.0102053 0)
(0.0623347 -0.0103402 0)
(0.0796908 -0.0102053 0)
(0.096885 -0.0101514 0)
(0.113753 -0.00983333 0)
(0.130131 -0.00956405 0)
(0.145846 -0.00906342 0)
(0.160722 -0.00847424 0)
(0.174592 -0.007875 0)
(0.187295 -0.00711949 0)
(0.198686 -0.00632281 0)
(0.208624 -0.00541772 0)
(0.216992 -0.00446635 0)
(0.22369 -0.00344818 0)
(0.228637 -0.00240224 0)
(0.231781 -0.00131401 0)
(0.233077 -0.000249439 0)
(0.232593 0.000843815 0)
(0.230233 0.00189913 0)
(0.226118 0.00296521 0)
(0.220297 0.003895 0)
(0.212857 0.0048692 0)
(0.203902 0.00566402 0)
(0.193563 0.00650168 0)
(0.18196 0.00712909 0)
(0.169266 0.00778312 0)
(0.155589 0.00837348 0)
(0.14112 0.00873302 0)
(0.125988 0.0091151 0)
(0.11038 0.00929499 0)
(0.0944622 0.0094872 0)
(0.0783336 0.00950579 0)
(0.0621546 0.00953394 0)
(0.0460485 0.00938455 0)
(0.0301888 0.00929981 0)
(0.0146511 0.00905397 0)
(-0.000304161 0.00879677 0)
(-0.0147239 0.00848014 0)
(-0.0287497 0.00816392 0)
(-0.0422067 0.00778052 0)
(-0.0550414 0.00740979 0)
(-0.0672236 0.00699133 0)
(-0.0787309 0.00661018 0)
(-0.0895519 0.00618776 0)
(-0.0997309 0.00581281 0)
(-0.109226 0.00541127 0)
(-0.118032 0.0050206 0)
(-0.126237 0.00467106 0)
(-0.133814 0.00429853 0)
(-0.140825 0.00399471 0)
(-0.147287 0.00363868 0)
(-0.153245 0.00337643 0)
(-0.158682 0.00306833 0)
(-0.163657 0.00281464 0)
(-0.168192 0.0025177 0)
(-0.17228 0.00229991 0)
(-0.175924 0.00199455 0)
(-0.17915 0.00181226 0)
(-0.181937 0.00149269 0)
(-0.184284 0.00127235 0)
(-0.186175 0.000941961 0)
(-0.1876 0.000691935 0)
(-0.188488 0.000383403 0)
(-0.18888 9.05099e-05 0)
(-0.188763 -0.000266645 0)
(-0.188004 -0.000626689 0)
(-0.186673 -0.000984027 0)
(-0.184642 -0.00142282 0)
(-0.181953 -0.00179913 0)
(-0.178475 -0.00229354 0)
(-0.174253 -0.00269979 0)
(-0.169238 -0.00323351 0)
(-0.16341 -0.00366169 0)
(-0.156753 -0.00422994 0)
(-0.149272 -0.00465645 0)
(-0.140904 -0.00523094 0)
(-0.131723 -0.0056441 0)
(-0.121697 -0.00623932 0)
(-0.110799 -0.0066676 0)
(-0.0991492 -0.00713915 0)
(-0.0867002 -0.00757306 0)
(-0.0735241 -0.00802474 0)
(-0.0596063 -0.00841233 0)
(-0.0451134 -0.00874822 0)
(-0.0300599 -0.00905188 0)
(-0.0145727 -0.00928723 0)
(0.00132422 -0.00949382 0)
(0.0174916 -0.00962793 0)
(0.0338388 -0.00972425 0)
(0.0502806 -0.00973142 0)
(0.0666948 -0.00969763 0)
(0.0829833 -0.00956714 0)
(0.0990102 -0.00938829 0)
(0.114653 -0.00911475 0)
(0.129779 -0.00876036 0)
(0.144247 -0.00833078 0)
(0.157905 -0.00781489 0)
(0.170631 -0.0072161 0)
(0.182268 -0.00653551 0)
(0.192686 -0.00578258 0)
(0.201767 -0.00494776 0)
(0.209402 -0.0040629 0)
(0.215485 -0.00312207 0)
(0.219944 -0.00215176 0)
(0.222737 -0.00115782 0)
(0.223824 -0.000157183 0)
(0.223233 0.000846773 0)
(0.220899 0.00185908 0)
(0.216932 0.00281877 0)
(0.211379 0.00373379 0)
(0.204314 0.00461253 0)
(0.195826 0.00542521 0)
(0.186014 0.00617301 0)
(0.17501 0.00683559 0)
(0.162933 0.00743989 0)
(0.149905 0.00794988 0)
(0.136083 0.00838821 0)
(0.121616 0.00873702 0)
(0.106593 0.0090091 0)
(0.0911807 0.00920731 0)
(0.075543 0.00931097 0)
(0.0597791 0.00934651 0)
(0.0439906 0.00933825 0)
(0.0283113 0.00923712 0)
(0.0127981 0.00913674 0)
(-0.00244064 0.00891894 0)
(-0.017341 0.00872229 0)
(-0.0318364 0.00845198 0)
(-0.0458505 0.00815422 0)
(-0.0593783 0.00785664 0)
(-0.0723641 0.00749786 0)
(-0.0847149 0.00711896 0)
(-0.0964178 0.00672886 0)
(-0.107463 0.00636181 0)
(-0.117805 0.00592499 0)
(-0.127581 0.00565596 0)
(-0.136786 0.00519356 0)
(-0.145284 0.00481919 0)
(-0.152946 0.00433625 0)
(-0.159991 0.00398699 0)
(-0.166346 0.00352871 0)
(-0.171963 0.00314299 0)
(-0.176998 0.00277948 0)
(-0.181292 0.00235369 0)
(-0.185039 0.00204515 0)
(-0.188135 0.00164323 0)
(-0.190676 0.00134412 0)
(-0.192628 0.00098058 0)
(-0.194029 0.000681507 0)
(-0.194866 0.000348989 0)
(-0.19518 4.42943e-05 0)
(-0.194974 -0.000272471 0)
(-0.194241 -0.000588685 0)
(-0.192975 -0.000918967 0)
(-0.191177 -0.00122515 0)
(-0.188806 -0.00157421 0)
(-0.18592 -0.00182657 0)
(-0.182557 -0.00216884 0)
(-0.178617 -0.00251956 0)
(-0.174123 -0.00280706 0)
(-0.168997 -0.00322462 0)
(-0.16329 -0.00354622 0)
(-0.156914 -0.0039889 0)
(-0.149901 -0.00431884 0)
(-0.142209 -0.00478736 0)
(-0.133853 -0.00515238 0)
(-0.124686 -0.00568806 0)
(-0.114728 -0.00605255 0)
(-0.104117 -0.00654118 0)
(-0.0927341 -0.00694374 0)
(-0.0805672 -0.00744352 0)
(-0.0676759 -0.00779671 0)
(-0.0541509 -0.00822665 0)
(-0.0401 -0.00846618 0)
(-0.0254803 -0.00859427 0)
(-0.0107462 -0.00888456 0)
(0.0037377 -0.00843744 0)
(0.0185564 -0.00568805 0)
(0.0302849 -0.00380246 0)
(0.0429883 0.00111607 0)
(0.0425247 -0.00195472 0)
(-0.109631 0.00716148 0)
(-0.117343 0.00666472 0)
(-0.125113 0.00622422 0)
(-0.132336 0.00576516 0)
(-0.139036 0.00534778 0)
(-0.145227 0.00492323 0)
(-0.150926 0.00452756 0)
(-0.156146 0.00413101 0)
(-0.160901 0.00375215 0)
(-0.165198 0.00337517 0)
(-0.169048 0.00300684 0)
(-0.172454 0.00264077 0)
(-0.17542 0.00227636 0)
(-0.177947 0.0019129 0)
(-0.180034 0.00154582 0)
(-0.181676 0.00117475 0)
(-0.182871 0.000798674 0)
(-0.183606 0.000413765 0)
(-0.183879 2.01328e-05 0)
(-0.183664 -0.000389729 0)
(-0.182944 -0.000818741 0)
(-0.181696 -0.00126248 0)
(-0.179897 -0.00173613 0)
(-0.177516 -0.00222476 0)
(-0.174524 -0.00275535 0)
(-0.170883 -0.00329552 0)
(-0.166563 -0.00389089 0)
(-0.161522 -0.00448442 0)
(-0.155733 -0.00514386 0)
(-0.149156 -0.00578236 0)
(-0.141772 -0.00649707 0)
(-0.133549 -0.00716431 0)
(-0.124481 -0.00791911 0)
(-0.114547 -0.00859023 0)
(-0.10375 -0.00924892 0)
(-0.0920996 -0.0100177 0)
(-0.0795999 -0.0106334 0)
(-0.0662911 -0.0113778 0)
(-0.0521993 -0.0119144 0)
(-0.0373998 -0.0125958 0)
(-0.0220004 -0.0130047 0)
(-0.0059537 -0.0135798 0)
(0.0106952 -0.0138375 0)
(0.0276916 -0.0142454 0)
(0.0449473 -0.0142937 0)
(0.0623363 -0.0144833 0)
(0.0797176 -0.0142947 0)
(0.0969406 -0.0142197 0)
(0.113836 -0.0137745 0)
(0.130245 -0.0133978 0)
(0.145987 -0.0126967 0)
(0.160889 -0.0118715 0)
(0.174789 -0.0110322 0)
(0.187515 -0.00997397 0)
(0.19893 -0.00885783 0)
(0.208889 -0.00759006 0)
(0.217274 -0.00625728 0)
(0.223987 -0.00483085 0)
(0.228943 -0.00336632 0)
(0.232097 -0.00184323 0)
(0.2334 -0.00035394 0)
(0.232882 0.00119847 0)
(0.230518 0.00265967 0)
(0.226404 0.0041525 0)
(0.220566 0.0054572 0)
(0.213111 0.00682218 0)
(0.204133 0.00793573 0)
(0.193773 0.00910891 0)
(0.182143 0.00998754 0)
(0.169424 0.0109034 0)
(0.155723 0.0117302 0)
(0.141226 0.0122338 0)
(0.126068 0.0127677 0)
(0.110434 0.0130204 0)
(0.0944912 0.0132891 0)
(0.0783412 0.0133139 0)
(0.0621365 0.0133517 0)
(0.046016 0.0131474 0)
(0.0301403 0.0130229 0)
(0.0145802 0.0126787 0)
(-0.000386777 0.012318 0)
(-0.0148131 0.0118758 0)
(-0.02885 0.0114318 0)
(-0.0423131 0.0108948 0)
(-0.0551541 0.010375 0)
(-0.0673374 0.00978893 0)
(-0.0788482 0.00925382 0)
(-0.0896665 0.0086643 0)
(-0.0998446 0.00813721 0)
(-0.109339 0.00757362 0)
(-0.118138 0.00703123 0)
(-0.126343 0.00653734 0)
(-0.133911 0.0060173 0)
(-0.140923 0.0055915 0)
(-0.147376 0.00509357 0)
(-0.153335 0.0047233 0)
(-0.158765 0.00429171 0)
(-0.163741 0.00394342 0)
(-0.168268 0.00352052 0)
(-0.17236 0.00322244 0)
(-0.175999 0.00279277 0)
(-0.179231 0.00253394 0)
(-0.182018 0.00209127 0)
(-0.184365 0.0017828 0)
(-0.186267 0.00131843 0)
(-0.187691 0.000968988 0)
(-0.188585 0.000541112 0)
(-0.188992 0.000122433 0)
(-0.188871 -0.000364086 0)
(-0.188118 -0.000876458 0)
(-0.186809 -0.00137388 0)
(-0.18476 -0.00199254 0)
(-0.182104 -0.00251764 0)
(-0.17861 -0.0032129 0)
(-0.174415 -0.0037791 0)
(-0.169378 -0.0045269 0)
(-0.163569 -0.00512753 0)
(-0.1569 -0.0059189 0)
(-0.149437 -0.00652496 0)
(-0.141047 -0.00732267 0)
(-0.131894 -0.00789717 0)
(-0.121855 -0.00873206 0)
(-0.11096 -0.00934176 0)
(-0.0993064 -0.00998826 0)
(-0.086848 -0.0106003 0)
(-0.0736717 -0.0112451 0)
(-0.0597199 -0.0117839 0)
(-0.0452368 -0.0122464 0)
(-0.0301566 -0.0126716 0)
(-0.0146691 -0.0130065 0)
(0.00125477 -0.0132953 0)
(0.0174351 -0.0134861 0)
(0.0338029 -0.0136199 0)
(0.0502651 -0.0136302 0)
(0.0666979 -0.0135821 0)
(0.0830102 -0.0134021 0)
(0.099058 -0.0131513 0)
(0.114726 -0.0127676 0)
(0.129874 -0.0122727 0)
(0.144368 -0.0116703 0)
(0.15805 -0.010949 0)
(0.1708 -0.0101085 0)
(0.182457 -0.00915573 0)
(0.192897 -0.00809933 0)
(0.201996 -0.00693474 0)
(0.209649 -0.00568988 0)
(0.215747 -0.00437392 0)
(0.220216 -0.00301313 0)
(0.223012 -0.00162037 0)
(0.224097 -0.000213383 0)
(0.223474 0.0012005 0)
(0.221154 0.0026049 0)
(0.217181 0.00394584 0)
(0.21162 0.00522945 0)
(0.204544 0.00646193 0)
(0.196037 0.00760023 0)
(0.186205 0.00864085 0)
(0.175183 0.00958159 0)
(0.163075 0.0104216 0)
(0.150021 0.0111385 0)
(0.136172 0.0117511 0)
(0.121681 0.012242 0)
(0.106635 0.0126221 0)
(0.091194 0.0128974 0)
(0.07554 0.0130451 0)
(0.0597592 0.0130884 0)
(0.0439443 0.0130774 0)
(0.0282606 0.0129367 0)
(0.0127264 0.0127923 0)
(-0.0025188 0.0124934 0)
(-0.017432 0.0122064 0)
(-0.0319447 0.0118355 0)
(-0.0459468 0.0114134 0)
(-0.059493 0.0110002 0)
(-0.0724754 0.0105062 0)
(-0.0848319 0.00996857 0)
(-0.0965531 0.00941844 0)
(-0.107592 0.00890526 0)
(-0.117922 0.00829307 0)
(-0.127709 0.00792312 0)
(-0.136931 0.00727661 0)
(-0.145452 0.00674489 0)
(-0.153054 0.00606489 0)
(-0.160123 0.00558728 0)
(-0.166485 0.00494053 0)
(-0.172063 0.00439479 0)
(-0.177137 0.00389477 0)
(-0.181388 0.00329433 0)
(-0.185167 0.00287166 0)
(-0.188238 0.00229815 0)
(-0.190793 0.00188424 0)
(-0.192729 0.00137313 0)
(-0.194126 0.000947175 0)
(-0.19498 0.000483593 0)
(-0.195268 5.4516e-05 0)
(-0.195069 -0.000384887 0)
(-0.194325 -0.000821085 0)
(-0.193073 -0.00128488 0)
(-0.191305 -0.00171865 0)
(-0.188881 -0.00220116 0)
(-0.186015 -0.00255375 0)
(-0.182684 -0.00303285 0)
(-0.178715 -0.00351544 0)
(-0.174251 -0.00392658 0)
(-0.169112 -0.00451144 0)
(-0.163441 -0.00495891 0)
(-0.157056 -0.00558605 0)
(-0.150061 -0.00605154 0)
(-0.142344 -0.00669855 0)
(-0.134 -0.00721522 0)
(-0.124835 -0.00796015 0)
(-0.1149 -0.00847595 0)
(-0.104277 -0.00916329 0)
(-0.0928558 -0.00971865 0)
(-0.0806863 -0.0104332 0)
(-0.0677978 -0.0109316 0)
(-0.054225 -0.0115043 0)
(-0.0401759 -0.0118375 0)
(-0.0255959 -0.0120967 0)
(-0.010516 -0.0125702 0)
(0.00371454 -0.011693 0)
(0.0193933 -0.00899228 0)
(0.0318548 -0.00688984 0)
(0.0475349 0.000425998 0)
(0.0513001 -0.00119937 0)
(-0.109761 0.00920645 0)
(-0.117469 0.00856762 0)
(-0.125235 0.00800118 0)
(-0.132453 0.00741098 0)
(-0.13915 0.0068744 0)
(-0.145337 0.00632868 0)
(-0.151033 0.00582011 0)
(-0.15625 0.00531044 0)
(-0.161003 0.0048235 0)
(-0.165299 0.00433899 0)
(-0.169147 0.00386559 0)
(-0.172553 0.00339511 0)
(-0.175518 0.00292677 0)
(-0.178046 0.00245963 0)
(-0.180134 0.00198782 0)
(-0.181777 0.00151074 0)
(-0.182973 0.00102804 0)
(-0.183712 0.000533049 0)
(-0.183988 2.72925e-05 0)
(-0.183777 -0.000499688 0)
(-0.183062 -0.00105086 0)
(-0.181819 -0.00162118 0)
(-0.180028 -0.00222968 0)
(-0.177653 -0.00285783 0)
(-0.17467 -0.00353978 0)
(-0.171036 -0.0042343 0)
(-0.166725 -0.00499973 0)
(-0.16169 -0.00576307 0)
(-0.15591 -0.00661115 0)
(-0.149337 -0.00743248 0)
(-0.14196 -0.00835178 0)
(-0.133739 -0.00921017 0)
(-0.124676 -0.0101812 0)
(-0.11474 -0.0110449 0)
(-0.10394 -0.0118922 0)
(-0.0922888 -0.0128815 0)
(-0.079781 -0.0136739 0)
(-0.0664663 -0.0146322 0)
(-0.0523611 -0.0153231 0)
(-0.0375489 -0.0162005 0)
(-0.0221305 -0.0167298 0)
(-0.00606691 -0.017465 0)
(0.0106071 -0.0177994 0)
(0.0276304 -0.0183256 0)
(0.0449162 -0.0183885 0)
(0.0623381 -0.0186334 0)
(0.0797531 -0.0183915 0)
(0.0970145 -0.0182959 0)
(0.113946 -0.0177234 0)
(0.130396 -0.0172397 0)
(0.146174 -0.0163379 0)
(0.161111 -0.0152762 0)
(0.17505 -0.0141967 0)
(0.187808 -0.0128351 0)
(0.199257 -0.0113986 0)
(0.209241 -0.00976717 0)
(0.21765 -0.00805218 0)
(0.224381 -0.00621589 0)
(0.229348 -0.00433162 0)
(0.232512 -0.00237088 0)
(0.233816 -0.000447428 0)
(0.233283 0.00155023 0)
(0.230913 0.00341888 0)
(0.226788 0.00534267 0)
(0.220925 0.00702389 0)
(0.21345 0.00878054 0)
(0.204441 0.0102135 0)
(0.194052 0.0117227 0)
(0.182388 0.0128528 0)
(0.169636 0.0140308 0)
(0.155901 0.0150943 0)
(0.141368 0.0157422 0)
(0.126174 0.0164274 0)
(0.110506 0.0167528 0)
(0.0945299 0.017098 0)
(0.078351 0.0171279 0)
(0.0621134 0.0171724 0)
(0.0459728 0.0169216 0)
(0.030075 0.0167477 0)
(0.0144856 0.0163062 0)
(-0.00049637 0.0158425 0)
(-0.0149325 0.0152745 0)
(-0.0289832 0.0147024 0)
(-0.042456 0.0140105 0)
(-0.0553034 0.013342 0)
(-0.0674908 0.0125873 0)
(-0.0790032 0.0118972 0)
(-0.0898216 0.0111393 0)
(-0.0999954 0.010462 0)
(-0.10949 0.00973451 0)
(-0.118282 0.00904058 0)
(-0.126481 0.00840411 0)
(-0.134045 0.00773236 0)
(-0.141048 0.00718871 0)
(-0.147501 0.00654609 0)
(-0.153451 0.00607124 0)
(-0.158878 0.0055109 0)
(-0.163852 0.00507442 0)
(-0.168372 0.00451914 0)
(-0.172465 0.00415058 0)
(-0.176107 0.00359205 0)
(-0.179335 0.00325684 0)
(-0.182132 0.00268544 0)
(-0.184469 0.00229636 0)
(-0.186393 0.00169935 0)
(-0.187817 0.00124515 0)
(-0.188711 0.000695618 0)
(-0.189133 0.000167455 0)
(-0.18903 -0.000475355 0)
(-0.188254 -0.00111818 0)
(-0.187005 -0.00175693 0)
(-0.184895 -0.00256788 0)
(-0.182317 -0.00322685 0)
(-0.178765 -0.00413543 0)
(-0.174641 -0.00484133 0)
(-0.169552 -0.00583177 0)
(-0.163789 -0.00657891 0)
(-0.157084 -0.00761656 0)
(-0.149664 -0.00838382 0)
(-0.141229 -0.0094205 0)
(-0.132129 -0.0101297 0)
(-0.122025 -0.0112365 0)
(-0.111182 -0.0120036 0)
(-0.0994916 -0.0128421 0)
(-0.087014 -0.0136322 0)
(-0.073862 -0.0144706 0)
(-0.0598591 -0.0151619 0)
(-0.045422 -0.015739 0)
(-0.0302621 -0.0163017 0)
(-0.0147897 -0.0167226 0)
(0.00118316 -0.0171073 0)
(0.0173695 -0.0173424 0)
(0.0337609 -0.0175225 0)
(0.0502552 -0.0175322 0)
(0.0667061 -0.0174735 0)
(0.0830575 -0.01724 0)
(0.0991279 -0.0169184 0)
(0.114827 -0.0164234 0)
(0.130003 -0.0157934 0)
(0.144537 -0.0150144 0)
(0.15824 -0.0140876 0)
(0.171028 -0.0130069 0)
(0.182708 -0.0117806 0)
(0.193184 -0.0104214 0)
(0.202305 -0.00892315 0)
(0.209982 -0.00732339 0)
(0.216095 -0.00562925 0)
(0.220586 -0.00387582 0)
(0.223384 -0.0020796 0)
(0.224464 -0.000268174 0)
(0.223825 0.00155582 0)
(0.221502 0.00334758 0)
(0.217526 0.00508058 0)
(0.211944 0.00673006 0)
(0.204845 0.00831261 0)
(0.196324 0.00977928 0)
(0.186456 0.0111174 0)
(0.175407 0.0123326 0)
(0.163273 0.0134169 0)
(0.150181 0.0143303 0)
(0.136302 0.0151209 0)
(0.121788 0.0157552 0)
(0.106699 0.0162411 0)
(0.0912385 0.0165914 0)
(0.0755444 0.0167808 0)
(0.0597495 0.0168334 0)
(0.0439018 0.0168275 0)
(0.0281978 0.0166363 0)
(0.0126583 0.0164525 0)
(-0.00262352 0.0160689 0)
(-0.0175289 0.0156948 0)
(-0.0320868 0.0152281 0)
(-0.0460605 0.0146707 0)
(-0.059659 0.0141509 0)
(-0.0726097 0.0135127 0)
(-0.084979 0.012825 0)
(-0.0967345 0.0121158 0)
(-0.107748 0.0114433 0)
(-0.118082 0.0106641 0)
(-0.127891 0.010193 0)
(-0.137106 0.00936249 0)
(-0.145652 0.00866483 0)
(-0.15319 0.00778256 0)
(-0.160316 0.00720111 0)
(-0.166658 0.00634522 0)
(-0.1722 0.00564171 0)
(-0.177321 0.00501676 0)
(-0.181502 0.00422987 0)
(-0.185349 0.00370495 0)
(-0.188371 0.00293868 0)
(-0.190942 0.00243482 0)
(-0.192884 0.00175333 0)
(-0.194235 0.00122127 0)
(-0.195144 0.000620226 0)
(-0.195384 6.68162e-05 0)
(-0.195213 -0.000489343 0)
(-0.194457 -0.00105793 0)
(-0.193199 -0.00163444 0)
(-0.191482 -0.00219894 0)
(-0.188976 -0.00284246 0)
(-0.186157 -0.00327969 0)
(-0.182865 -0.00389202 0)
(-0.178819 -0.00451754 0)
(-0.174436 -0.00504013 0)
(-0.169226 -0.00580677 0)
(-0.163633 -0.00635496 0)
(-0.157211 -0.0071928 0)
(-0.150256 -0.00777552 0)
(-0.14252 -0.0086203 0)
(-0.134167 -0.00926492 0)
(-0.124993 -0.0102315 0)
(-0.115123 -0.010886 0)
(-0.104458 -0.0117913 0)
(-0.0930053 -0.0125028 0)
(-0.080854 -0.0134228 0)
(-0.0679729 -0.0140391 0)
(-0.0543915 -0.0148164 0)
(-0.0402558 -0.0152332 0)
(-0.0256498 -0.0156386 0)
(-0.0103544 -0.0159621 0)
(0.00378852 -0.0153226 0)
(0.0200204 -0.0124672 0)
(0.0327356 -0.0102008 0)
(0.0497804 -0.00360549 0)
(0.0550429 -0.00377714 0)
(-0.109923 0.0112505 0)
(-0.117625 0.0104695 0)
(-0.125388 0.00977708 0)
(-0.1326 0.00905575 0)
(-0.139293 0.00840003 0)
(-0.145475 0.00773323 0)
(-0.151168 0.00711187 0)
(-0.156381 0.00648919 0)
(-0.161131 0.00589433 0)
(-0.165425 0.00530243 0)
(-0.169272 0.00472409 0)
(-0.172676 0.00414932 0)
(-0.175642 0.00357717 0)
(-0.17817 0.0030065 0)
(-0.180258 0.00243008 0)
(-0.181903 0.00184717 0)
(-0.183102 0.00125786 0)
(-0.183843 0.000653632 0)
(-0.184124 3.5098e-05 0)
(-0.183918 -0.000608459 0)
(-0.18321 -0.00128157 0)
(-0.181973 -0.00197836 0)
(-0.180191 -0.00272142 0)
(-0.177824 -0.00348884 0)
(-0.174852 -0.00432209 0)
(-0.171227 -0.00517101 0)
(-0.166927 -0.00610642 0)
(-0.161901 -0.00703976 0)
(-0.156131 -0.00807664 0)