/*--------------------------------*- C++ -*----------------------------------*\
| =========                 |                                                 |
| \\      /  F ield         | OpenFOAM: The Open Source CFD Toolbox           |
|  \\    /   O peration     | Version:  3.0.1                                 |
|   \\  /    A nd           | Web:      www.OpenFOAM.org                      |
|    \\/     M anipulation  |                                                 |
\*---------------------------------------------------------------------------*/
FoamFile
{
    version     2.0;
    format      ascii;
    class       volScalarField;
    location    "14.2";
    object      p;
}
// * * * * * * * * * * * * * * * * * * * * * * * * * * * * * * * * * * * * * //

dimensions      [1 -1 -2 0 0 0 0];

internalField   nonuniform List<scalar> 
21420
(
3836.47
3808.92
3781.07
3753.93
3728.02
3703.57
3680.76
3659.65
3640.3
3622.72
3606.9
3592.81
3580.41
3569.67
3560.53
3552.97
3546.92
3542.37
3539.28
3537.67
3537.53
3538.81
3541.52
3545.7
3551.37
3558.54
3567.28
3577.61
3589.59
3603.27
3618.71
3635.92
3654.97
3675.86
3698.58
3723.13
3749.44
3777.43
3807.01
3838.03
3870.25
3902.65
3936.31
3970.4
4004.61
4038.52
4071.71
4103.82
4134.41
4163.07
4189.45
4213.18
4233.95
4251.49
4265.54
4275.93
4282.51
4285.18
4283.66
4278.14
4268.72
4255.52
4238.7
4218.52
4195.25
4169.17
4140.66
4110.11
4077.91
4044.45
4010.18
3975.48
3940.74
3906.33
3872.87
3840.08
3808.35
3777.95
3749.07
3721.86
3696.45
3672.91
3651.32
3631.7
3614.07
3598.42
3584.74
3573
3563.15
3555.14
3548.91
3544.41
3541.54
3540.28
3540.58
3542.31
3545.47
3550.01
3555.93
3563.2
3571.83
3581.84
3593.24
3606.07
3620.34
3636.09
3653.33
3672.09
3692.38
3714.19
3737.5
3762.3
3788.53
3816.14
3845.01
3875.03
3906.05
3937.86
3970.21
4002.84
4035.43
4067.62
4099.02
4129.22
4157.77
4184.24
4208.2
4229.24
4246.99
4261.12
4271.38
4277.57
4279.5
4277.25
4270.74
4260.13
4245.56
4227.28
4205.59
4180.85
4153.46
4123.85
4092.49
4059.86
4026.43
3992.66
3958.96
3925.72
3893.3
3861.88
3831.7
3802.9
3775.58
3749.79
3725.54
3702.83
3681.64
3661.94
3643.72
3626.94
3611.61
3597.73
3585.31
3574.36
3564.91
3557
3550.66
3545.92
3542.8
3541.35
3541.63
3543.58
3547.27
3552.71
3559.91
3568.89
3579.64
3592.17
3606.47
3622.5
3640.25
3659.66
3680.68
3703.25
3727.3
3752.72
3779.43
3807.3
3836.22
3866.03
3896.57
3927.63
3959.01
3990.45
4021.71
4052.5
4082.5
4111.4
4138.87
4164.56
4188.13
4209.26
4227.64
4242.97
4255.01
4263.52
4268.36
4269.34
4266.51
4259.78
4249.23
4234.94
4217.1
4195.93
4171.7
4144.73
4115.4
4084.1
4051.27
4017.35
3982.79
3948.02
3913.48
3879.56
3846.6
3814.91
3784.75
3756.32
3729.77
3705.21
3682.72
3662.31
3643.98
3627.73
3613.49
3601.22
3590.83
3582.27
3575.44
3570.28
3566.7
3564.64
3564.09
3564.91
3567.11
3570.63
3575.45
3581.56
3588.94
3597.59
3607.5
3618.69
3631.16
3644.93
3659.99
3676.36
3694.03
3713.01
3733.28
3754.82
3777.57
3801.47
3826.44
3852.38
3879.15
3906.62
3934.55
3962.75
3991
4019.05
4046.63
4073.45
4099.23
4123.67
4146.49
4167.4
4186.14
4202.47
4216.17
4227.06
4234.99
4239.83
4241.5
4240.03
4235.35
4227.56
4216.75
4203.06
4186.7
4167.9
4146.92
4124.07
4099.67
4074.05
4047.55
4020.52
3993.29
3966.17
3939.5
3913.64
3889.39
3865.97
3843.51
3822.3
3802.54
3784.35
3767.8
3752.93
3739.76
3728.29
3718.5
3710.36
3703.84
3698.91
3695.51
3693.62
3693.18
3694.16
3696.5
3700.13
3705
3711.06
3718.25
3726.52
3735.8
3746.05
3757.21
3769.22
3781.99
3795.48
3809.59
3824.24
3839.34
3854.79
3870.44
3885.86
3901.7
3917.52
3933.21
3948.62
3963.64
3978.16
3992.07
4005.25
4017.62
4029.07
4039.53
4048.92
4057.18
4064.26
4070.12
4074.72
4078.05
4080.11
4080.91
4080.37
4078.57
3738.31
3710.75
3682.89
3655.75
3629.84
3605.39
3582.58
3561.47
3542.12
3524.55
3508.72
3494.64
3482.24
3471.5
3462.37
3454.8
3448.76
3444.21
3441.12
3439.51
3439.38
3440.65
3443.36
3447.54
3453.21
3460.38
3469.11
3479.44
3491.42
3505.1
3520.53
3537.75
3556.79
3577.68
3600.39
3624.94
3651.26
3679.25
3708.83
3739.86
3772.08
3804.5
3838.17
3872.27
3906.5
3940.42
3973.63
4005.75
4036.36
4065.04
4091.43
4115.18
4135.97
4153.52
4167.58
4177.97
4184.56
4187.24
4185.71
4180.19
4170.77
4157.55
4140.73
4120.53
4097.24
4071.15
4042.62
4012.05
3979.83
3946.36
3912.07
3877.36
3842.6
3808.17
3774.71
3741.91
3710.18
3679.77
3650.89
3623.68
3598.26
3574.73
3553.14
3533.52
3515.89
3500.24
3486.56
3474.82
3464.97
3456.97
3450.74
3446.24
3443.38
3442.12
3442.42
3444.15
3447.31
3451.86
3457.78
3465.04
3473.68
3483.68
3495.08
3507.9
3522.18
3537.92
3555.17
3573.92
3594.21
3616.02
3639.33
3664.13
3690.36
3717.97
3746.84
3776.87
3807.9
3839.71
3872.07
3904.72
3937.32
3969.53
4000.95
4031.16
4059.73
4086.22
4110.2
4131.25
4149.02
4163.17
4173.44
4179.63
4181.58
4179.31
4172.8
4162.18
4147.6
4129.3
4107.6
4082.83
4055.42
4025.79
3994.42
3961.77
3928.32
3894.53
3860.82
3827.57
3795.13
3763.71
3733.52
3704.73
3677.41
3651.62
3627.37
3604.66
3583.47
3563.78
3545.55
3528.78
3513.45
3499.57
3487.14
3476.2
3466.75
3458.84
3452.5
3447.76
3444.63
3443.19
3443.47
3445.42
3449.1
3454.54
3461.74
3470.72
3481.47
3494
3508.29
3524.33
3542.07
3561.49
3582.51
3605.09
3629.13
3654.56
3681.26
3709.14
3738.07
3767.88
3798.43
3829.5
3860.88
3892.34
3923.61
3954.41
3984.42
4013.34
4040.82
4066.52
4090.11
4111.26
4129.65
4145
4157.04
4165.57
4170.41
4171.4
4168.56
4161.83
4151.27
4136.97
4119.12
4097.94
4073.69
4046.7
4017.35
3986.04
3953.19
3919.25
3884.67
3849.89
3815.33
3781.4
3748.43
3716.73
3686.57
3658.13
3631.58
3607.02
3584.52
3564.12
3545.8
3529.54
3515.31
3503.04
3492.66
3484.1
3477.27
3472.12
3468.53
3466.49
3465.93
3466.76
3468.95
3472.48
3477.3
3483.41
3490.79
3499.44
3509.35
3520.54
3533.01
3546.77
3561.83
3578.2
3595.88
3614.86
3635.13
3656.66
3679.41
3703.31
3728.29
3754.23
3781
3808.48
3836.42
3864.63
3892.89
3920.95
3948.54
3975.38
4001.17
4025.62
4048.45
4069.37
4088.12
4104.46
4118.18
4129.07
4137.01
4141.85
4143.53
4142.05
4137.37
4129.58
4118.76
4105.06
4088.69
4069.88
4048.89
4026.02
4001.61
3975.97
3949.46
3922.41
3895.17
3868.04
3841.35
3815.48
3791.25
3767.81
3745.34
3724.13
3704.37
3686.18
3669.63
3654.76
3641.59
3630.12
3620.33
3612.19
3605.68
3600.75
3597.35
3595.46
3595.03
3596.01
3598.35
3601.98
3606.86
3612.92
3620.11
3628.38
3637.66
3647.92
3659.08
3671.08
3683.86
3697.35
3711.47
3726.12
3741.22
3756.68
3772.33
3787.75
3803.59
3819.42
3835.11
3850.53
3865.56
3880.08
3893.99
3907.18
3919.55
3931
3941.47
3950.86
3959.13
3966.21
3972.06
3976.67
3980
3982.06
3982.86
3982.32
3980.51
3640.08
3612.52
3584.64
3557.49
3531.58
3507.13
3484.32
3463.21
3443.87
3426.29
3410.48
3396.39
3384.01
3373.27
3364.14
3356.58
3350.55
3346
3342.91
3341.3
3341.16
3342.44
3345.15
3349.32
3354.99
3362.15
3370.88
3381.21
3393.18
3406.85
3422.28
3439.49
3458.53
3479.41
3502.13
3526.68
3553
3581
3610.58
3641.62
3673.85
3706.3
3739.99
3774.11
3808.37
3842.32
3875.56
3907.72
3938.36
3967.08
3993.51
4017.29
4038.1
4055.68
4069.76
4080.17
4086.77
4089.46
4087.91
4082.38
4072.95
4059.72
4042.87
4022.65
3999.33
3973.2
3944.64
3914.03
3881.77
3848.27
3813.94
3779.2
3744.42
3709.97
3676.49
3643.68
3611.93
3581.51
3552.62
3525.41
3499.98
3476.45
3454.86
3435.25
3417.62
3401.97
3388.3
3376.56
3366.72
3358.72
3352.51
3348
3345.15
3343.9
3344.2
3345.94
3349.1
3353.65
3359.57
3366.83
3375.46
3385.47
3396.87
3409.68
3423.95
3439.69
3456.93
3475.69
3495.97
3517.77
3541.09
3565.89
3592.13
3619.73
3648.62
3678.65
3709.69
3741.52
3773.9
3806.57
3839.2
3871.44
3902.89
3933.14
3961.75
3988.28
4012.3
4033.39
4051.19
4065.37
4075.66
4081.86
4083.82
4081.53
4075.02
4064.38
4049.77
4031.45
4009.71
3984.91
3957.45
3927.78
3896.36
3863.68
3830.19
3796.37
3762.63
3729.36
3696.91
3665.47
3635.28
3606.48
3579.16
3553.37
3529.13
3506.42
3485.24
3465.55
3447.33
3430.56
3415.23
3401.35
3388.92
3377.97
3368.53
3360.61
3354.27
3349.53
3346.4
3344.96
3345.23
3347.18
3350.86
3356.3
3363.5
3372.47
3383.22
3395.75
3410.04
3426.08
3443.83
3463.24
3484.27
3506.85
3530.89
3556.32
3583.04
3610.93
3639.86
3669.68
3700.24
3731.33
3762.73
3794.21
3825.5
3856.32
3886.37
3915.31
3942.82
3968.56
3992.18
4013.36
4031.77
4047.14
4059.21
4067.75
4072.61
4073.61
4070.76
4064.03
4053.45
4039.14
4021.26
4000.05
3975.77
3948.75
3919.36
3888.01
3855.12
3821.14
3786.52
3751.71
3717.13
3683.17
3650.18
3618.47
3588.29
3559.85
3533.29
3508.74
3486.24
3465.84
3447.52
3431.28
3417.05
3404.79
3394.41
3385.86
3379.04
3373.89
3370.31
3368.28
3367.72
3368.55
3370.75
3374.27
3379.1
3385.21
3392.59
3401.23
3411.15
3422.33
3434.8
3448.56
3463.62
3479.98
3497.66
3516.64
3536.91
3558.44
3581.2
3605.1
3630.09
3656.03
3682.82
3710.31
3738.26
3766.49
3794.77
3822.85
3850.47
3877.32
3903.14
3927.62
3950.47
3971.42
3990.2
4006.56
4020.29
4031.2
4039.15
4044
4045.69
4044.19
4039.51
4031.71
4020.87
4007.16
3990.77
3971.93
3950.91
3928.02
3903.57
3877.9
3851.36
3824.3
3797.02
3769.87
3743.16
3717.26
3693.06
3669.6
3647.12
3625.9
3606.13
3587.93
3571.38
3556.52
3543.35
3531.88
3522.09
3513.96
3507.45
3502.53
3499.13
3497.25
3496.82
3497.8
3500.15
3503.78
3508.66
3514.73
3521.92
3530.19
3539.48
3549.74
3560.91
3572.91
3585.7
3599.19
3613.31
3627.97
3643.09
3658.55
3674.21
3689.64
3705.49
3721.33
3737.02
3752.45
3767.49
3782.02
3795.94
3809.14
3821.51
3832.98
3843.45
3852.85
3861.12
3868.2
3874.06
3878.67
3882
3884.06
3884.86
3884.31
3882.5
3541.8
3514.21
3486.32
3459.16
3433.24
3408.79
3385.97
3364.87
3345.53
3327.97
3312.16
3298.08
3285.7
3274.98
3265.86
3258.3
3252.27
3247.73
3244.64
3243.04
3242.88
3244.16
3246.88
3251.05
3256.71
3263.87
3272.59
3282.91
3294.87
3308.54
3323.95
3341.16
3360.19
3381.07
3403.78
3428.33
3454.65
3482.66
3512.25
3543.3
3575.55
3608.05
3641.76
3675.93
3710.22
3744.22
3777.52
3809.73
3840.42
3869.19
3895.67
3919.5
3940.35
3957.97
3972.08
3982.51
3989.13
3991.84
3990.26
3984.73
3975.28
3962.02
3945.14
3924.88
3901.51
3875.33
3846.71
3816.05
3783.74
3750.18
3715.81
3681.02
3646.2
3611.72
3578.21
3545.37
3513.6
3483.17
3454.27
3427.05
3401.62
3378.09
3356.5
3336.89
3319.27
3303.62
3289.96
3278.23
3268.4
3260.41
3254.2
3249.71
3246.86
3245.63
3245.92
3247.67
3250.83
3255.39
3261.3
3268.57
3277.19
3287.19
3298.59
3311.4
3325.66
3341.4
3358.63
3377.38
3397.66
3419.46
3442.78
3467.58
3493.82
3521.43
3550.32
3580.37
3611.43
3643.28
3675.7
3708.4
3741.07
3773.36
3804.86
3835.17
3863.84
3890.43
3914.5
3935.65
3953.49
3967.71
3978.03
3984.25
3986.24
3983.91
3977.39
3966.73
3952.09
3933.72
3911.92
3887.07
3859.55
3829.82
3798.34
3765.59
3732.05
3698.18
3664.4
3631.09
3598.62
3567.16
3536.96
3508.15
3480.83
3455.05
3430.81
3408.12
3386.94
3367.25
3349.04
3332.27
3316.94
3303.06
3290.64
3279.69
3270.24
3262.33
3255.98
3251.23
3248.1
3246.66
3246.92
3248.87
3252.56
3257.99
3265.19
3274.16
3284.9
3297.43
3311.72
3327.76
3345.51
3364.93
3385.96
3408.54
3432.59
3458.03
3484.75
3512.65
3541.6
3571.44
3602.02
3633.13
3664.55
3696.06
3727.39
3758.25
3788.33
3817.32
3844.88
3870.66
3894.33
3915.55
3934.01
3949.42
3961.51
3970.08
3974.95
3975.98
3973.1
3966.37
3955.78
3941.44
3923.53
3902.27
3877.94
3850.87
3821.42
3790.01
3757.06
3723.03
3688.36
3653.5
3618.88
3584.88
3551.86
3520.13
3489.93
3461.48
3434.92
3410.36
3387.87
3367.47
3349.16
3332.92
3318.71
3306.46
3296.09
3287.55
3280.74
3275.6
3272.03
3270.01
3269.45
3270.29
3272.49
3276.02
3280.85
3286.95
3294.33
3302.98
3312.89
3324.07
3336.54
3350.29
3365.35
3381.71
3399.38
3418.36
3438.63
3460.17
3482.92
3506.84
3531.83
3557.79
3584.59
3612.1
3640.07
3668.33
3696.64
3724.75
3752.4
3779.3
3805.15
3829.67
3852.56
3873.54
3892.36
3908.75
3922.51
3933.45
3941.41
3946.27
3947.98
3946.46
3941.77
3933.96
3923.1
3909.35
3892.93
3874.05
3852.99
3830.06
3805.57
3779.86
3753.28
3726.17
3698.86
3671.67
3644.92
3618.98
3594.82
3571.34
3548.83
3527.59
3507.82
3489.62
3473.07
3458.2
3445.04
3433.57
3423.79
3415.67
3409.17
3404.24
3400.85
3398.98
3398.55
3399.54
3401.89
3405.54
3410.42
3416.49
3423.69
3431.97
3441.26
3451.53
3462.7
3474.71
3487.51
3501.01
3515.14
3529.81
3544.93
3560.4
3576.08
3591.51
3607.37
3623.23
3638.94
3654.38
3669.43
3683.98
3697.91
3711.12
3723.51
3734.99
3745.47
3754.88
3763.15
3770.24
3776.11
3780.71
3784.05
3786.11
3786.91
3786.35
3784.53
3443.46
3415.83
3387.92
3360.74
3334.81
3310.36
3287.55
3266.45
3247.12
3229.56
3213.77
3199.7
3187.33
3176.61
3167.5
3159.95
3153.93
3149.4
3146.32
3144.72
3144.55
3145.83
3148.55
3152.71
3158.37
3165.52
3174.23
3184.54
3196.49
3210.15
3225.55
3242.75
3261.77
3282.64
3305.35
3329.9
3356.23
3384.24
3413.85
3444.92
3477.19
3509.75
3543.5
3577.71
3612.06
3646.13
3679.49
3711.77
3742.54
3771.37
3797.92
3821.81
3842.72
3860.38
3874.54
3885
3891.64
3894.36
3892.78
3887.23
3877.75
3864.46
3847.53
3827.21
3803.78
3777.53
3748.84
3718.11
3685.73
3652.1
3617.66
3582.82
3547.94
3513.42
3479.87
3447
3415.2
3384.75
3355.84
3328.61
3303.17
3279.64
3258.05
3238.45
3220.83
3205.2
3191.54
3179.82
3170
3162.02
3155.82
3151.34
3148.51
3147.29
3147.59
3149.34
3152.51
3157.07
3162.98
3170.25
3178.87
3188.86
3200.25
3213.06
3227.31
3243.04
3260.27
3279.01
3299.29
3321.09
3344.4
3369.2
3395.44
3423.06
3451.97
3482.04
3513.12
3545
3577.45
3610.2
3642.93
3675.28
3706.86
3737.24
3765.99
3792.65
3816.8
3838.02
3855.93
3870.2
3880.56
3886.81
3888.81
3886.47
3879.93
3869.23
3854.54
3836.11
3814.25
3789.31
3761.71
3731.9
3700.34
3667.51
3633.9
3599.96
3566.13
3532.78
3500.26
3468.78
3438.57
3409.76
3382.44
3356.65
3332.43
3309.74
3288.57
3268.89
3250.68
3233.92
3218.6
3204.72
3192.29
3181.34
3171.89
3163.97
3157.62
3152.87
3149.74
3148.3
3148.55
3150.5
3154.18
3159.61
3166.8
3175.77
3186.51
3199.04
3213.33
3229.37
3247.12
3266.54
3287.57
3310.16
3334.22
3359.67
3386.41
3414.32
3443.28
3473.15
3503.75
3534.89
3566.35
3597.9
3629.27
3660.18
3690.32
3719.37
3746.98
3772.83
3796.56
3817.84
3836.36
3851.82
3863.96
3872.56
3877.45
3878.5
3875.61
3868.87
3858.25
3843.87
3825.91
3804.59
3780.2
3753.06
3723.54
3692.05
3659.03
3624.92
3590.18
3555.26
3520.57
3486.53
3453.47
3421.71
3391.49
3363.02
3336.45
3311.89
3289.4
3269.01
3250.71
3234.49
3220.29
3208.05
3197.7
3189.17
3182.38
3177.25
3173.69
3171.68
3171.13
3171.97
3174.18
3177.71
3182.54
3188.65
3196.03
3204.67
3214.58
3225.76
3238.22
3251.97
3267.02
3283.38
3301.05
3320.03
3340.3
3361.84
3384.6
3408.52
3433.52
3459.5
3486.32
3513.85
3541.86
3570.15
3598.5
3626.65
3654.35
3681.29
3707.2
3731.77
3754.71
3775.75
3794.6
3811.04
3824.83
3835.8
3843.79
3848.67
3850.38
3848.86
3844.16
3836.32
3825.43
3811.65
3795.18
3776.26
3755.14
3732.15
3707.6
3681.83
3655.19
3628.03
3600.67
3573.43
3546.63
3520.64
3496.54
3473.01
3450.47
3429.22
3409.43
3391.23
3374.68
3359.82
3346.66
3335.2
3325.43
3317.31
3310.81
3305.9
3302.52
3300.65
3300.23
3301.23
3303.59
3307.24
3312.13
3318.21
3325.42
3333.7
3343
3353.27
3364.45
3376.48
3389.28
3402.79
3416.93
3431.62
3446.75
3462.24
3477.93
3493.38
3509.26
3525.13
3540.86
3556.32
3571.39
3585.96
3599.91
3613.14
3625.54
3637.03
3647.52
3656.95
3665.23
3672.33
3678.2
3682.81
3686.15
3688.21
3689
3688.43
3686.61
3345.05
3317.38
3289.44
3262.25
3236.31
3211.85
3189.04
3167.95
3148.63
3131.08
3115.3
3101.25
3088.89
3078.19
3069.09
3061.55
3055.54
3051.01
3047.94
3046.34
3046.16
3047.44
3050.16
3054.32
3059.97
3067.11
3075.81
3086.11
3098.04
3111.68
3127.08
3144.26
3163.27
3184.14
3206.84
3231.39
3257.72
3285.74
3315.37
3346.46
3378.76
3411.4
3445.2
3479.46
3513.89
3548.03
3581.47
3613.84
3644.7
3673.63
3700.25
3724.22
3745.21
3762.93
3777.14
3787.64
3794.3
3797.03
3795.46
3789.88
3780.37
3767.04
3750.05
3729.66
3706.15
3679.81
3651.03
3620.21
3587.73
3554.02
3519.5
3484.58
3449.64
3415.07
3381.47
3348.56
3316.73
3286.25
3257.32
3230.08
3204.64
3181.1
3159.52
3139.92
3122.31
3106.69
3093.04
3081.34
3071.53
3063.56
3057.38
3052.91
3050.1
3048.88
3049.2
3050.96
3054.14
3058.69
3064.61
3071.87
3080.49
3090.48
3101.86
3114.65
3128.9
3144.62
3161.84
3180.58
3200.84
3222.64
3245.95
3270.75
3297
3324.63
3353.55
3383.64
3414.75
3446.68
3479.18
3511.99
3544.78
3577.21
3608.88
3639.35
3668.19
3694.96
3719.21
3740.52
3758.51
3772.84
3783.25
3789.53
3791.54
3789.21
3782.64
3771.89
3757.13
3738.63
3716.67
3691.64
3663.94
3634.02
3602.36
3569.43
3535.73
3501.72
3467.81
3434.4
3401.85
3370.34
3340.1
3311.28
3283.96
3258.19
3233.97
3211.29
3190.13
3170.47
3152.27
3135.51
3120.19
3106.31
3093.89
3082.94
3073.48
3065.56
3059.2
3054.45
3051.31
3049.87
3050.11
3052.06
3055.73
3061.16
3068.34
3077.31
3088.05
3100.57
3114.86
3130.9
3148.65
3168.08
3189.12
3211.71
3235.78
3261.24
3288
3315.93
3344.91
3374.8
3405.44
3436.62
3468.12
3499.72
3531.15
3562.12
3592.33
3621.45
3649.14
3675.06
3698.87
3720.23
3738.82
3754.34
3766.53
3775.18
3780.1
3781.16
3778.27
3771.51
3760.86
3746.43
3728.42
3707.03
3682.55
3655.32
3625.7
3594.12
3561
3526.8
3491.98
3456.97
3422.22
3388.11
3355.01
3323.2
3292.96
3264.47
3237.89
3213.33
3190.84
3170.46
3152.18
3135.97
3121.78
3109.56
3099.23
3090.72
3083.95
3078.83
3075.29
3073.29
3072.75
3073.6
3075.82
3079.35
3084.19
3090.3
3097.67
3106.31
3116.22
3127.39
3139.85
3153.6
3168.64
3185
3202.66
3221.63
3241.9
3263.44
3286.21
3310.15
3335.16
3361.16
3388.01
3415.57
3443.61
3471.95
3500.34
3528.55
3556.31
3583.31
3609.28
3633.92
3656.93
3678.02
3696.94
3713.43
3727.27
3738.27
3746.29
3751.19
3752.91
3751.38
3746.67
3738.81
3727.88
3714.05
3697.53
3678.53
3657.35
3634.29
3609.66
3583.82
3557.12
3529.89
3502.46
3475.16
3448.29
3422.24
3398.22
3374.63
3352.05
3330.78
3310.98
3292.77
3276.22
3261.36
3248.21
3236.76
3226.99
3218.88
3212.4
3207.5
3204.13
3202.27
3201.85
3202.87
3205.24
3208.9
3213.8
3219.89
3227.1
3235.39
3244.7
3254.98
3266.17
3278.21
3291.02
3304.55
3318.7
3333.4
3348.56
3364.06
3379.78
3395.24
3411.14
3427.03
3442.79
3458.27
3473.37
3487.96
3501.93
3515.18
3527.6
3539.11
3549.62
3559.06
3567.36
3574.47
3580.35
3584.96
3588.3
3590.36
3591.15
3590.57
3588.74
3246.58
3218.86
3190.89
3163.67
3137.72
3113.26
3090.45
3069.37
3050.06
3032.53
3016.76
3002.72
2990.38
2979.69
2970.61
2963.08
2957.08
2952.56
2949.5
2947.9
2947.72
2949
2951.72
2955.87
2961.51
2968.64
2977.32
2987.61
2999.53
3013.15
3028.53
3045.69
3064.69
3085.55
3108.25
3132.8
3159.13
3187.17
3216.81
3247.93
3280.27
3313
3346.85
3381.19
3415.69
3449.93
3483.48
3515.95
3546.92
3575.95
3602.68
3626.74
3647.81
3665.61
3679.88
3690.43
3697.12
3699.86
3698.29
3692.69
3683.14
3669.75
3652.69
3632.21
3608.61
3582.17
3553.28
3522.35
3489.76
3455.94
3421.33
3386.32
3351.3
3316.66
3283.01
3250.05
3218.18
3187.67
3158.72
3131.46
3106.02
3082.48
3060.9
3041.3
3023.7
3008.1
2994.46
2982.77
2972.98
2965.04
2958.87
2954.42
2951.62
2950.42
2950.75
2952.52
2955.71
2960.27
2966.18
2973.44
2982.06
2992.03
3003.4
3016.19
3030.42
3046.13
3063.34
3082.07
3102.33
3124.12
3147.43
3172.23
3198.49
3226.13
3255.07
3285.18
3316.33
3348.3
3380.86
3413.75
3446.63
3479.15
3510.92
3541.5
3570.46
3597.35
3621.71
3643.13
3661.22
3675.63
3686.1
3692.42
3694.44
3692.11
3685.5
3674.7
3659.87
3641.27
3619.21
3594.06
3566.24
3536.19
3504.41
3471.36
3437.55
3403.44
3369.45
3335.98
3303.36
3271.82
3241.56
3212.74
3185.42
3159.65
3135.44
3112.78
3091.63
3071.98
3053.79
3037.04
3021.73
3007.85
2995.42
2984.47
2975.01
2967.08
2960.72
2955.96
2952.82
2951.37
2951.61
2953.55
2957.22
2962.64
2969.82
2978.77
2989.51
3002.03
3016.32
3032.36
3050.12
3069.55
3090.59
3113.2
3137.28
3162.75
3189.52
3217.48
3246.49
3276.41
3307.08
3338.31
3369.87
3401.53
3433.03
3464.07
3494.36
3523.57
3551.35
3577.37
3601.27
3622.72
3641.39
3656.99
3669.24
3677.94
3682.89
3683.97
3681.09
3674.3
3663.61
3649.13
3631.04
3609.57
3584.99
3557.65
3527.93
3496.23
3462.99
3428.68
3393.75
3358.65
3323.81
3289.63
3256.47
3224.62
3194.34
3165.83
3139.24
3114.67
3092.19
3071.82
3053.56
3037.37
3023.2
3011
3000.7
2992.2
2985.45
2980.35
2976.84
2974.85
2974.32
2975.18
2977.4
2980.94
2985.78
2991.89
2999.26
3007.9
3017.8
3028.97
3041.42
3055.16
3070.2
3086.55
3104.21
3123.18
3143.45
3165
3187.77
3211.72
3236.75
3262.77
3289.65
3317.25
3345.34
3373.72
3402.18
3430.45
3458.28
3485.36
3511.4
3536.12
3559.2
3580.37
3599.36
3615.91
3629.81
3640.86
3648.91
3653.83
3655.56
3654.03
3649.3
3641.41
3630.43
3616.55
3599.96
3580.89
3559.62
3536.47
3511.76
3485.83
3459.04
3431.73
3404.23
3376.85
3349.91
3323.78
3299.85
3276.2
3253.57
3232.27
3212.46
3194.24
3177.69
3162.83
3149.69
3138.24
3128.49
3120.39
3113.92
3109.03
3105.67
3103.82
3103.42
3104.45
3106.83
3110.51
3115.42
3121.51
3128.74
3137.04
3146.36
3156.65
3167.86
3179.9
3192.73
3206.27
3220.45
3235.17
3250.34
3265.87
3281.61
3297.09
3313.01
3328.94
3344.72
3360.23
3375.36
3389.98
3403.98
3417.25
3429.7
3441.23
3451.76
3461.21
3469.53
3476.65
3482.54
3487.16
3490.5
3492.55
3493.34
3492.75
3490.9
3148.05
3120.28
3092.26
3065.02
3039.05
3014.59
2991.78
2970.71
2951.41
2933.9
2918.15
2904.13
2891.81
2881.14
2872.07
2864.56
2858.57
2854.06
2851.01
2849.41
2849.22
2850.51
2853.22
2857.36
2862.99
2870.11
2878.77
2889.04
2900.94
2914.54
2929.9
2947.05
2966.03
2986.88
3009.57
3034.12
3060.46
3088.51
3118.18
3149.32
3181.71
3214.55
3248.46
3282.88
3317.48
3351.83
3385.5
3418.1
3449.19
3478.34
3505.19
3529.37
3550.54
3568.42
3582.76
3593.37
3600.09
3602.84
3601.27
3595.64
3586.05
3572.59
3555.45
3534.88
3511.16
3484.6
3455.59
3424.53
3391.81
3357.87
3323.14
3288.03
3252.91
3218.21
3184.49
3151.47
3119.56
3089.01
3060.03
3032.76
3007.31
2983.76
2962.19
2942.6
2925.01
2909.42
2895.8
2884.13
2874.36
2866.44
2860.29
2855.86
2853.09
2851.9
2852.24
2854.03
2857.22
2861.79
2867.7
2874.96
2883.56
2893.53
2904.89
2917.66
2931.88
2947.58
2964.78
2983.5
3003.74
3025.53
3048.83
3073.64
3099.9
3127.56
3156.52
3186.67
3217.86
3249.88
3282.51
3315.48
3348.46
3381.09
3412.98
3443.7
3472.8
3499.82
3524.32
3545.86
3564.06
3578.57
3589.11
3595.47
3597.51
3595.18
3588.53
3577.66
3562.74
3544.03
3521.85
3496.56
3468.6
3438.41
3406.48
3373.29
3339.36
3305.13
3271.04
3237.49
3204.82
3173.23
3142.95
3114.11
3086.79
3061.03
3036.84
3014.19
2993.06
2973.43
2955.25
2938.51
2923.2
2909.33
2896.9
2885.94
2876.48
2868.54
2862.17
2857.4
2854.27
2852.8
2853.03
2854.97
2858.63
2864.04
2871.22
2880.17
2890.9
2903.42
2917.71
2933.75
2951.51
2970.94
2992
3014.61
3038.71
3064.2
3090.99
3118.97
3148.01
3177.97
3208.69
3239.97
3271.59
3303.32
3334.89
3366.03
3396.42
3425.72
3453.61
3479.74
3503.75
3525.3
3544.07
3559.76
3572.09
3580.85
3585.84
3586.94
3584.06
3577.25
3566.51
3551.97
3533.79
3512.21
3487.53
3460.06
3430.2
3398.37
3365
3330.56
3295.5
3260.29
3225.35
3191.09
3157.85
3125.95
3095.63
3067.1
3040.49
3015.93
2993.45
2973.09
2954.85
2938.68
2924.54
2912.36
2902.08
2893.62
2886.89
2881.81
2878.32
2876.35
2875.83
2876.7
2878.93
2882.48
2887.32
2893.43
2900.81
2909.44
2919.34
2930.5
2942.94
2956.68
2971.71
2988.05
3005.7
3024.67
3044.94
3066.49
3089.27
3113.23
3138.29
3164.33
3191.25
3218.9
3247.03
3275.48
3304
3332.35
3360.26
3387.43
3413.56
3438.36
3461.54
3482.8
3501.86
3518.49
3532.46
3543.56
3551.65
3556.6
3558.34
3556.81
3552.06
3544.12
3533.1
3519.15
3502.48
3483.31
3461.95
3438.7
3413.88
3387.86
3360.97
3333.57
3305.98
3278.51
3251.48
3225.26
3201.44
3177.7
3155.02
3133.69
3113.86
3095.64
3079.08
3064.23
3051.09
3039.66
3029.92
3021.84
3015.38
3010.5
3007.16
3005.32
3004.94
3005.98
3008.38
3012.06
3016.99
3023.1
3030.33
3038.65
3047.98
3058.29
3069.5
3081.57
3094.41
3107.97
3122.16
3136.91
3152.11
3167.66
3183.43
3198.93
3214.89
3230.84
3246.66
3262.21
3277.36
3292.02
3306.05
3319.35
3331.83
3343.38
3353.94
3363.41
3371.75
3378.88
3384.78
3389.41
3392.75
3394.8
3395.58
3394.98
3393.12
3049.46
3021.62
2993.56
2966.28
2940.3
2915.83
2893.03
2871.97
2852.68
2835.19
2819.46
2805.46
2793.16
2782.51
2773.46
2765.97
2759.99
2755.5
2752.46
2750.86
2750.67
2751.95
2754.66
2758.8
2764.41
2771.52
2780.16
2790.4
2802.28
2815.86
2831.2
2848.33
2867.29
2888.12
2910.81
2935.36
2961.7
2989.77
3019.46
3050.65
3083.09
3116.04
3150.03
3184.54
3219.26
3253.73
3287.53
3320.27
3351.51
3380.81
3407.79
3432.09
3453.38
3471.36
3485.79
3496.45
3503.22
3505.98
3504.42
3498.75
3489.1
3475.58
3458.34
3437.65
3413.81
3387.11
3357.95
3326.74
3293.88
3259.8
3224.95
3189.72
3154.49
3119.7
3085.9
3052.82
3020.85
2990.27
2961.26
2933.97
2908.51
2884.96
2863.39
2843.81
2826.24
2810.66
2797.07
2785.41
2775.67
2767.76
2761.64
2757.24
2754.49
2753.32
2753.68
2755.48
2758.68
2763.25
2769.17
2776.42
2785.02
2794.98
2806.32
2819.08
2833.28
2848.97
2866.15
2884.85
2905.09
2926.87
2950.17
2974.98
3001.25
3028.92
3057.91
3088.09
3119.33
3151.42
3184.13
3217.18
3250.27
3283.03
3315.06
3345.93
3375.19
3402.37
3427.03
3448.72
3467.04
3481.66
3492.28
3498.69
3500.76
3498.41
3491.72
3480.77
3465.75
3446.92
3424.59
3399.16
3371.03
3340.67
3308.57
3275.23
3241.14
3206.79
3172.59
3138.95
3106.2
3074.57
3044.27
3015.41
2988.1
2962.34
2938.16
2915.54
2894.43
2874.81
2856.64
2839.91
2824.61
2810.74
2798.31
2787.35
2777.88
2769.94
2763.56
2758.79
2755.64
2754.17
2754.39
2756.32
2759.98
2765.38
2772.55
2781.49
2792.22
2804.73
2819.02
2835.06
2852.82
2872.26
2893.33
2915.96
2940.07
2965.58
2992.39
3020.4
3049.48
3079.48
3110.25
3141.59
3173.28
3205.09
3236.76
3267.99
3298.49
3327.91
3355.93
3382.18
3406.31
3427.98
3446.87
3462.66
3475.08
3483.9
3488.94
3490.06
3487.19
3480.34
3469.55
3454.93
3436.66
3414.97
3390.15
3362.54
3332.53
3300.54
3267.02
3232.43
3197.23
3161.89
3126.84
3092.48
3059.16
3027.2
2996.83
2968.27
2941.66
2917.09
2894.62
2874.28
2856.05
2839.9
2825.79
2813.65
2803.4
2794.96
2788.26
2783.21
2779.74
2777.79
2777.28
2778.17
2780.41
2783.97
2788.81
2794.93
2802.3
2810.93
2820.82
2831.97
2844.41
2858.13
2873.16
2889.49
2907.14
2926.1
2946.37
2967.92
2990.71
3014.69
3039.77
3065.85
3092.8
3120.5
3148.7
3177.21
3205.81
3234.25
3262.25
3289.52
3315.76
3340.66
3363.94
3385.3
3404.46
3421.17
3435.21
3446.38
3454.51
3459.5
3461.25
3459.71
3454.94
3446.96
3435.87
3421.85
3405.08
3385.82
3364.35
3340.98
3316.04
3289.9
3262.9
3235.39
3207.7
3180.14
3153.01
3126.67
3102.98
3079.15
3056.4
3035.04
3015.19
2996.96
2980.41
2965.56
2952.43
2941.01
2931.28
2923.22
2916.78
2911.92
2908.59
2906.76
2906.4
2907.46
2909.87
2913.57
2918.51
2924.63
2931.88
2940.21
2949.56
2959.88
2971.11
2983.2
2996.06
3009.64
3023.86
3038.62
3053.85
3069.44
3085.24
3100.76
3116.75
3132.75
3148.6
3164.19
3179.38
3194.07
3208.14
3221.48
3233.99
3245.57
3256.15
3265.65
3274.01
3281.16
3287.07
3291.7
3295.05
3297.1
3297.87
3297.26
3295.38
2950.8
2922.89
2894.78
2867.47
2841.47
2816.99
2794.2
2773.14
2753.88
2736.41
2720.7
2706.73
2694.45
2683.82
2674.79
2667.32
2661.36
2656.88
2653.85
2652.25
2652.06
2653.34
2656.05
2660.17
2665.77
2672.86
2681.48
2691.7
2703.55
2717.1
2732.42
2749.53
2768.47
2789.29
2811.97
2836.51
2862.87
2890.95
2920.68
2951.9
2984.39
3017.48
3051.55
3086.17
3121.01
3155.63
3189.59
3222.49
3253.88
3283.34
3310.48
3334.92
3356.34
3374.43
3388.95
3399.69
3406.5
3409.29
3407.71
3402.02
3392.31
3378.7
3361.35
3340.54
3316.55
3289.69
3260.37
3229
3195.97
3161.74
3126.73
3091.37
3056.02
3021.15
2987.25
2954.09
2922.07
2891.44
2862.4
2835.09
2809.62
2786.07
2764.5
2744.94
2727.38
2711.83
2698.25
2686.62
2676.9
2669.02
2662.93
2658.55
2655.82
2654.68
2655.06
2656.87
2660.09
2664.67
2670.58
2677.83
2686.42
2696.36
2707.69
2720.43
2734.62
2750.29
2767.45
2786.14
2806.37
2828.14
2851.44
2876.25
2902.53
2930.22
2959.23
2989.45
3020.74
3052.9
3085.7
3118.87
3152.08
3184.98
3217.17
3248.21
3277.64
3305.01
3329.84
3351.69
3370.17
3384.9
3395.62
3402.09
3404.17
3401.81
3395.07
3384.04
3368.9
3349.93
3327.45
3301.83
3273.52
3242.97
3210.68
3177.17
3142.92
3108.41
3074.09
3040.35
3007.52
2975.84
2945.5
2916.64
2889.32
2863.58
2839.42
2816.81
2795.73
2776.12
2757.97
2741.26
2725.96
2712.09
2699.66
2688.7
2679.22
2671.27
2664.89
2660.1
2656.95
2655.47
2655.68
2657.6
2661.25
2666.65
2673.81
2682.74
2693.46
2705.97
2720.25
2736.3
2754.06
2773.51
2794.59
2817.23
2841.36
2866.89
2893.73
2921.77
2950.89
2980.94
3011.77
3043.17
3074.94
3106.85
3138.61
3169.96
3200.58
3230.14
3258.29
3284.68
3308.95
3330.76
3349.78
3365.68
3378.2
3387.1
3392.19
3393.34
3390.47
3383.59
3372.74
3358.04
3339.66
3317.83
3292.86
3265.1
3234.92
3202.75
3169.06
3134.29
3098.94
3063.45
3028.27
2993.8
2960.39
2928.36
2897.95
2869.36
2842.72
2818.15
2795.69
2775.37
2757.16
2741.05
2726.97
2714.86
2704.64
2696.24
2689.56
2684.55
2681.1
2679.17
2678.69
2679.59
2681.84
2685.41
2690.25
2696.37
2703.74
2712.36
2722.25
2733.4
2745.82
2759.54
2774.55
2790.87
2808.51
2827.47
2847.74
2869.29
2892.1
2916.09
2941.2
2967.31
2994.31
3022.07
3050.34
3078.92
3107.61
3136.15
3164.25
3191.63
3217.99
3243.01
3266.41
3287.87
3307.14
3323.95
3338.08
3349.31
3357.5
3362.52
3364.28
3362.74
3357.94
3349.91
3338.76
3324.65
3307.78
3288.4
3266.8
3243.3
3218.23
3191.96
3164.83
3137.21
3109.4
3081.74
3054.5
3028.01
3004.49
2980.53
2957.72
2936.32
2916.45
2898.21
2881.66
2866.81
2853.7
2842.29
2832.58
2824.53
2818.11
2813.27
2809.96
2808.15
2807.8
2808.88
2811.32
2815.03
2819.99
2826.13
2833.39
2841.73
2851.1
2861.44
2872.69
2884.79
2897.67
2911.28
2925.52
2940.32
2955.58
2971.2
2987.03
3002.58
3018.62
3034.65
3050.55
3066.18
3081.42
3096.15
3110.26
3123.64
3136.18
3147.8
3158.41
3167.94
3176.32
3183.49
3189.41
3194.05
3197.4
3199.44
3200.21
3199.59
3197.68
2852.08
2824.08
2795.92
2768.57
2742.55
2718.07
2695.28
2674.24
2654.99
2637.54
2621.86
2607.92
2595.67
2585.07
2576.06
2568.61
2562.67
2558.2
2555.18
2553.59
2553.4
2554.68
2557.38
2561.49
2567.07
2574.14
2582.74
2592.93
2604.76
2618.28
2633.56
2650.65
2669.57
2690.37
2713.04
2737.58
2763.94
2792.05
2821.81
2853.08
2885.63
2918.86
2953.02
2987.76
3022.75
3057.53
3091.65
3124.73
3156.31
3185.94
3213.25
3237.86
3259.42
3277.64
3292.26
3303.08
3309.94
3312.75
3311.17
3305.43
3295.66
3281.96
3264.49
3243.53
3219.38
3192.35
3162.85
3131.29
3098.08
3063.67
3028.51
2992.99
2957.5
2922.54
2888.54
2855.3
2823.21
2792.53
2763.46
2736.13
2710.65
2687.1
2665.53
2645.98
2628.44
2612.9
2599.35
2587.75
2578.05
2570.21
2564.14
2559.8
2557.1
2555.98
2556.38
2558.21
2561.44
2566.03
2571.94
2579.19
2587.76
2597.69
2609
2621.73
2635.9
2651.54
2668.69
2687.37
2707.58
2729.34
2752.63
2777.44
2803.73
2831.44
2860.48
2890.75
2922.1
2954.34
2987.24
3020.52
3053.87
3086.93
3119.3
3150.53
3180.16
3207.72
3232.75
3254.78