/*--------------------------------*- C++ -*----------------------------------*\
| =========                 |                                                 |
| \\      /  F ield         | OpenFOAM: The Open Source CFD Toolbox           |
|  \\    /   O peration     | Version:  3.0.1                                 |
|   \\  /    A nd           | Web:      www.OpenFOAM.org                      |
|    \\/     M anipulation  |                                                 |
\*---------------------------------------------------------------------------*/
FoamFile
{
    version     2.0;
    format      ascii;
    class       surfaceScalarField;
    location    "6.8";
    object      alphaPhi;
}
// * * * * * * * * * * * * * * * * * * * * * * * * * * * * * * * * * * * * * //

dimensions      [0 3 -1 0 0 0 0];

internalField   nonuniform List<scalar> 
42423
(
0.000204144
-1.0417e-05
0.000212729
-8.58483e-06
0.000219026
-6.29718e-06
0.000222812
-3.78555e-06
0.000224196
-1.38405e-06
0.00022315
1.04575e-06
0.000219592
3.55739e-06
0.000213649
5.94342e-06
0.000205331
8.31754e-06
0.000195066
1.02656e-05
0.000182975
1.2091e-05
0.000169204
1.37704e-05
0.000154166
1.50383e-05
0.000138103
1.60624e-05
0.000121254
1.68493e-05
0.000103808
1.74463e-05
8.5956e-05
1.78516e-05
6.80106e-05
1.79453e-05
5.00853e-05
1.79253e-05
3.23523e-05
1.77329e-05
1.50096e-05
1.73426e-05
-1.89743e-06
1.6907e-05
-1.82132e-05
1.63158e-05
-3.38391e-05
1.56258e-05
-4.87345e-05
1.48954e-05
-6.28137e-05
1.40793e-05
-7.60638e-05
1.325e-05
-8.84579e-05
1.23941e-05
-9.99468e-05
1.14889e-05
-0.000110573
1.0626e-05
-0.000120289
9.71646e-06
-0.000129079
8.78968e-06
-0.000136927
7.84762e-06
-0.000143806
6.87963e-06
-0.000149712
5.90618e-06
-0.000154645
4.93283e-06
-0.000158563
3.91748e-06
-0.000161428
2.86578e-06
-0.000163268
1.8391e-06
-0.000164092
8.24077e-07
-0.000163803
-2.88907e-07
-0.000162377
-1.42548e-06
-0.000159916
-2.46096e-06
-0.000156448
-3.46787e-06
-0.000151983
-4.46565e-06
-0.000146648
-5.33456e-06
-0.000140482
-6.16587e-06
-0.000133503
-6.9793e-06
-0.00012584
-7.66281e-06
-0.000117557
-8.28371e-06
-0.00010867
-8.88689e-06
-9.92985e-05
-9.37131e-06
-8.94176e-05
-9.88091e-06
-7.91624e-05
-1.02552e-05
-6.86176e-05
-1.05448e-05
-5.77684e-05
-1.08492e-05
-4.66475e-05
-1.11209e-05
-3.53806e-05
-1.1267e-05
-2.39135e-05
-1.14672e-05
-1.23596e-05
-1.15539e-05
-6.83692e-07
-1.1676e-05
1.10803e-05
-1.17641e-05
2.27976e-05
-1.17173e-05
3.44896e-05
-1.16921e-05
4.6059e-05
-1.15694e-05
5.74709e-05
-1.1412e-05
6.86676e-05
-1.11967e-05
7.95677e-05
-1.09002e-05
9.0078e-05
-1.05104e-05
0.000100134
-1.00559e-05
0.000109583
-9.44931e-06
0.000118376
-8.79336e-06
0.000126389
-8.01286e-06
0.000133491
-7.10237e-06
0.000139602
-6.11102e-06
0.000144605
-5.00243e-06
0.000148411
-3.80603e-06
0.000150892
-2.48096e-06
0.000152059
-1.16737e-06
0.000151854
2.05138e-07
0.000150238
1.61566e-06
0.000147186
3.05196e-06
0.0001428
4.38614e-06
0.000137092
5.70773e-06
0.000130242
6.84958e-06
0.00012227
7.97249e-06
0.000113368
8.90145e-06
0.000103684
9.68429e-06
9.32314e-05
1.04523e-05
8.23067e-05
1.09247e-05
7.10035e-05
1.13031e-05
5.95461e-05
1.14575e-05
4.80022e-05
1.15438e-05
3.64444e-05
1.15578e-05
2.51511e-05
1.12932e-05
1.41273e-05
1.10238e-05
3.57579e-06
1.05515e-05
-6.43646e-06
1.00122e-05
-1.58846e-05
9.44813e-06
-2.46707e-05
8.78607e-06
-3.27436e-05
8.07289e-06
-4.00443e-05
7.30066e-06
-4.65599e-05
6.51558e-06
-5.23217e-05
5.76179e-06
-5.7276e-05
4.95431e-06
-6.14533e-05
4.17735e-06
-6.48551e-05
3.40176e-06
-6.75139e-05
2.65877e-06
-6.94441e-05
1.93025e-06
-7.06701e-05
1.22599e-06
-7.12657e-05
5.95539e-07
-7.12231e-05
-4.25397e-08
-7.05743e-05
-6.48833e-07
-6.93627e-05
-1.21162e-06
-6.76216e-05
-1.74111e-06
-6.53722e-05
-2.24945e-06
-6.26754e-05
-2.69671e-06
-5.95544e-05
-3.12104e-06
-5.60669e-05
-3.48748e-06
-5.22196e-05
-3.84732e-06
-4.8083e-05
-4.13657e-06
-4.36834e-05
-4.39961e-06
-3.90617e-05
-4.62179e-06
-3.42778e-05
-4.78387e-06
-2.93477e-05
-4.9301e-06
-2.43367e-05
-5.01098e-06
-1.92692e-05
-5.06753e-06
-1.41885e-05
-5.08064e-06
-9.12249e-06
-5.06606e-06
-4.11952e-06
-5.00296e-06
7.90545e-07
-4.91007e-06
5.58358e-06
-4.79304e-06
1.02253e-05
-4.64169e-06
1.46856e-05
-4.46034e-06
1.89362e-05
-4.25065e-06
2.29622e-05
-4.02591e-06
2.67327e-05
-3.77051e-06
3.0231e-05
-3.49835e-06
3.34401e-05
-3.20913e-06
3.63427e-05
-2.90254e-06
3.89393e-05
-2.59665e-06
4.12103e-05
-2.27097e-06
4.31577e-05
-1.94737e-06
4.47789e-05
-1.62122e-06
4.60661e-05
-1.28719e-06
4.70378e-05
-9.71749e-07
4.76829e-05
-6.45104e-07
4.80278e-05
-3.44856e-07
4.80784e-05
-5.06441e-08
4.78544e-05
2.24044e-07
4.73651e-05
4.89234e-07
4.66383e-05
7.26847e-07
4.56885e-05
9.49801e-07
4.45314e-05
1.15711e-06
4.31976e-05
1.33375e-06
4.17036e-05
1.49399e-06
4.00731e-05
1.63057e-06
3.83305e-05
1.74255e-06
3.64972e-05
1.83333e-06
3.45887e-05
1.90845e-06
3.26345e-05
1.95421e-06
3.06491e-05
1.98547e-06
2.86479e-05
2.00117e-06
2.66523e-05
1.99561e-06
2.4676e-05
1.97629e-06
2.2732e-05
1.94397e-06
2.08313e-05
1.90071e-06
1.89877e-05
1.84361e-06
1.72067e-05
1.78101e-06
1.54967e-05
1.70996e-06
1.38643e-05
1.63241e-06
1.23151e-05
1.54925e-06
1.08535e-05
1.46158e-06
9.47477e-06
1.3787e-06
8.18662e-06
1.28815e-06
6.99154e-06
1.19507e-06
5.88025e-06
1.11129e-06
4.8591e-06
1.02115e-06
3.92493e-06
9.34171e-07
3.07914e-06
8.45785e-07
2.30938e-06
7.69761e-07
1.61987e-06
6.8951e-07
1.00645e-06
6.13413e-07
4.66816e-07
5.39635e-07
-5.63451e-09
4.72449e-07
-4.13172e-07
4.07536e-07
-7.61541e-07
3.48369e-07
-1.05359e-06
2.92052e-07
-1.29384e-06
2.40246e-07
-1.48616e-06
1.92314e-07
-1.63376e-06
1.47599e-07
-1.74132e-06
1.07562e-07
-1.8137e-06
7.23815e-08
-1.85418e-06
4.04757e-08
-1.86623e-06
1.20554e-08
-1.85341e-06
-1.28213e-08
-1.81909e-06
-3.43277e-08
-1.76514e-06
-5.3948e-08
-1.69518e-06
-6.99541e-08
-1.61264e-06
-8.25447e-08
-1.51921e-06
-9.34337e-08
-1.41662e-06
-1.0259e-07
-1.30752e-06
-1.09099e-07
-1.1942e-06
-1.13323e-07
-1.07704e-06
-1.17159e-07
-9.59147e-07
-1.1789e-07
-8.4105e-07
-1.18097e-07
-7.22936e-07
-1.18114e-07
-6.07401e-07
-1.15535e-07
-4.94127e-07
-1.13275e-07
-3.84867e-07
-1.0926e-07
-2.79332e-07
-1.05536e-07
-1.78834e-07
-1.00498e-07
-8.32191e-08
-9.56147e-08
7.21071e-09
-9.04299e-08
9.20813e-08
-8.48706e-08
1.71302e-07
-7.92207e-08
2.44762e-07
-7.34598e-08
3.12461e-07
-6.76992e-08
3.74432e-07
-6.1971e-08
4.30707e-07
-5.62748e-08
4.81434e-07
-5.07273e-08
5.26781e-07
-4.53473e-08
5.66876e-07
-4.00941e-08
6.01951e-07
-3.50757e-08
6.3219e-07
-3.0239e-08
6.57862e-07
-2.56719e-08
6.7915e-07
-2.1288e-08
6.96334e-07
-1.71832e-08
7.09647e-07
-1.33131e-08
7.19342e-07
-9.69506e-09
7.25683e-07
-6.34131e-09
7.28901e-07
-3.21738e-09
7.29242e-07
-3.41146e-10
7.26945e-07
2.29675e-09
7.22239e-07
4.70576e-09
7.15343e-07
6.8964e-09
7.06466e-07
8.87741e-09
6.95808e-07
1.06571e-08
6.83566e-07
1.22427e-08
6.69923e-07
1.36424e-08
6.5506e-07
1.48638e-08
6.39144e-07
1.59159e-08
6.22336e-07
1.68074e-08
6.04788e-07
1.75481e-08
5.86641e-07
1.81476e-08
5.68025e-07
1.86157e-08
5.49063e-07
1.89622e-08
5.29866e-07
1.91967e-08
5.10538e-07
1.93285e-08
4.91171e-07
1.93668e-08
4.71851e-07
1.93201e-08
4.52654e-07
1.91969e-08
4.33649e-07
1.90051e-08
4.14896e-07
1.87524e-08
3.9645e-07
1.84459e-08
3.78358e-07
1.80923e-08
3.6066e-07
1.76981e-08
3.43391e-07
1.7269e-08
3.2658e-07
1.68107e-08
3.10252e-07
1.63283e-08
2.94425e-07
1.58264e-08
2.79116e-07
1.53095e-08
2.64335e-07
1.47814e-08
2.50089e-07
1.42459e-08
2.36382e-07
1.37062e-08
2.23217e-07
1.31652e-08
2.10591e-07
1.26257e-08
1.98501e-07
1.209e-08
1.86941e-07
1.15602e-08
1.75903e-07
1.10381e-08
1.65378e-07
1.05254e-08
1.55354e-07
1.00234e-08
1.45821e-07
9.53338e-09
1.36765e-07
9.05627e-09
1.28172e-07
8.59288e-09
1.20028e-07
8.14392e-09
1.12318e-07
7.70985e-09
1.05027e-07
7.29109e-09
9.81389e-08
6.88787e-09
9.16386e-08
6.50037e-09
8.55099e-08
6.12861e-09
7.97373e-08
5.77258e-09
7.43052e-08
5.43215e-09
6.9198e-08
5.10716e-09
6.44006e-08
4.79735e-09
5.98982e-08
4.50244e-09
5.56761e-08
4.22209e-09
5.17201e-08
3.95595e-09
4.80165e-08
3.70359e-09
4.45519e-08
3.46462e-09
4.13133e-08
3.23857e-09
3.82883e-08
3.02499e-09
3.54649e-08
2.82342e-09
3.28315e-08
2.63339e-09
3.03771e-08
2.4544e-09
2.80911e-08
2.286e-09
2.59633e-08
2.12771e-09
2.39843e-08
1.97906e-09
2.21447e-08
1.83959e-09
2.04358e-08
1.70885e-09
1.88494e-08
1.5864e-09
1.73776e-08
1.47182e-09
1.60129e-08
1.36467e-09
1.47483e-08
1.26457e-09
1.35772e-08
1.17112e-09
1.24933e-08
1.08394e-09
1.14906e-08
1.00269e-09
1.05636e-08
9.27003e-10
9.70702e-09
8.5656e-10
8.91597e-09
7.91039e-10
8.18583e-09
7.30139e-10
7.51226e-09
6.73571e-10
6.89119e-09
6.21062e-10
6.31884e-09
5.72354e-10
5.79163e-09
5.27203e-10
5.30626e-09
4.85375e-10
4.8596e-09
4.46649e-10
4.44878e-09
4.10817e-10
4.0711e-09
3.77681e-10
3.72405e-09
3.47055e-10
3.40528e-09
3.18764e-10
3.11263e-09
2.92647e-10
2.84408e-09
2.68551e-10
2.59775e-09
2.46332e-10
2.37189e-09
2.25856e-10
2.16489e-09
2.06995e-10
1.97526e-09
1.8963e-10
1.80161e-09
1.73649e-10
1.64266e-09
1.58948e-10
1.49723e-09
1.45432e-10
1.36422e-09
1.33012e-10
1.24261e-09
1.21606e-10
1.13148e-09
1.11137e-10
1.02994e-09
1.01533e-10
9.37217e-10
9.27251e-11
8.52564e-10
8.46517e-11
7.7531e-10
7.72543e-11
7.0483e-10
7.04795e-11
6.40551e-10
6.42782e-11
5.81946e-10
5.86047e-11
5.28529e-10
5.3417e-11
4.79853e-10
4.86759e-11
4.35507e-10
4.43451e-11
3.95116e-10
4.03912e-11
3.58332e-10
3.67833e-11
3.24839e-10
3.34931e-11
2.94344e-10
3.04946e-11
2.6658e-10
2.77643e-11
2.41298e-10
2.52811e-11
2.18272e-10
2.30264e-11
1.97288e-10
2.0984e-11
1.78151e-10
1.91366e-11
1.60691e-10
1.74594e-11
1.44767e-10
1.59242e-11
1.30249e-10
1.45175e-11
1.32304e-11
0.000204243
-2.08531e-05
0.000212867
-1.72091e-05
0.000219169
-1.25993e-05
0.000222935
-7.5519e-06
0.000224334
-2.78278e-06
0.000223281
2.09786e-06
0.000219716
7.1223e-06
0.000213766
1.18932e-05
0.00020544
1.66441e-05
0.000195166
2.05391e-05
0.000183063
2.41938e-05
0.000169283
2.75501e-05
0.000154232
3.00898e-05
0.000138155
3.21391e-05
0.000121296
3.37082e-05
0.000103837
3.49054e-05
8.59764e-05
3.57119e-05
6.80193e-05
3.59023e-05
5.00865e-05
3.5858e-05
3.23426e-05
3.54768e-05
1.49924e-05
3.46927e-05
-1.91674e-06
3.38161e-05
-1.82374e-05
3.26364e-05
-3.38681e-05
3.12565e-05
-4.87681e-05
2.97954e-05
-6.28515e-05
2.81626e-05
-7.61058e-05
2.65043e-05
-8.85039e-05
2.47922e-05
-9.99956e-05
2.29805e-05
-0.000110624
2.12547e-05
-0.000120346
1.94381e-05
-0.000129141
1.75842e-05
-0.000136994
1.57014e-05
-0.000143882
1.37671e-05
-0.000149786
1.18108e-05
-0.000154722
9.86836e-06
-0.000158649
7.84425e-06
-0.000161517
5.73436e-06
-0.000163362
3.68394e-06
-0.000164199
1.66101e-06
-0.0001639
-5.87991e-07
-0.000162457
-2.868e-06
-0.000159996
-4.92229e-06
-0.000156531
-6.93321e-06
-0.000152061
-8.93563e-06
-0.000146721
-1.06739e-05
-0.000140554
-1.23331e-05
-0.00013357
-1.39639e-05
-0.000125907
-1.5326e-05
-0.000117614
-1.65758e-05
-0.000108723
-1.7778e-05
-9.93498e-05
-1.87451e-05
-8.94608e-05
-1.977e-05
-7.92011e-05
-2.0515e-05
-6.86577e-05
-2.10883e-05
-5.77981e-05
-2.17088e-05
-4.66785e-05
-2.22406e-05
-3.53997e-05
-2.25459e-05
-2.39355e-05
-2.29315e-05
-1.23738e-05
-2.31157e-05
-6.79912e-07
-2.33701e-05
1.10942e-05
-2.35383e-05
2.28197e-05
-2.3443e-05
3.45173e-05
-2.33899e-05
4.60902e-05
-2.31424e-05
5.75094e-05
-2.28314e-05
6.87096e-05
-2.23971e-05
7.96158e-05
-2.18065e-05
9.0127e-05
-2.10218e-05
0.000100191
-2.01201e-05
0.000109645
-1.89038e-05
0.000118438
-1.75866e-05
0.000126453
-1.60274e-05
0.000133559
-1.42088e-05
0.000139673
-1.22246e-05
0.00014468
-1.00101e-05
0.000148489
-7.61469e-06
0.000150995
-4.9873e-06
0.000152139
-2.31165e-06
0.000151928
4.15862e-07
0.000150307
3.23647e-06
0.000147253
6.10588e-06
0.000142863
8.77623e-06
0.000137154
1.14167e-05
0.000130292
1.37109e-05
0.000122311
1.59534e-05
0.000113401
1.7812e-05
0.000103689
1.9396e-05
9.32473e-05
2.08937e-05
8.23163e-05
2.18557e-05
7.10178e-05
2.26016e-05
5.95374e-05
2.29378e-05
4.79935e-05
2.30877e-05
3.64233e-05
2.3128e-05
2.51208e-05
2.25957e-05
1.40983e-05
2.20463e-05
3.54934e-06
2.11004e-05
-6.47573e-06
2.00373e-05
-1.59268e-05
1.88992e-05
-2.47159e-05
1.75751e-05
-3.27915e-05
1.61486e-05
-4.00946e-05
1.46038e-05
-4.66088e-05
1.30297e-05
-5.23721e-05
1.15251e-05
-5.73262e-05
9.90841e-06
-6.15016e-05
8.35277e-06
-6.49025e-05
6.80256e-06
-6.75586e-05
5.31487e-06
-6.94886e-05
3.86029e-06
-7.07154e-05
2.45281e-06
-7.13093e-05
1.18942e-06
-7.12623e-05
-8.95656e-08
-7.061e-05
-1.30112e-06
-6.93973e-05
-2.42435e-06
-6.76534e-05
-3.48508e-06
-6.54013e-05
-4.50147e-06
-6.27023e-05
-5.39579e-06
-5.95778e-05
-6.24549e-06
-5.60859e-05
-6.97945e-06
-5.22371e-05
-7.69612e-06
-4.80983e-05
-8.27538e-06
-4.36971e-05
-8.8008e-06
-3.90711e-05
-9.24771e-06
-3.42844e-05
-9.57064e-06
-2.93596e-05
-9.8549e-06
-2.43365e-05
-1.0034e-05
-1.92667e-05
-1.01374e-05
-1.41845e-05
-1.01629e-05
-9.11599e-06
-1.01346e-05
-4.11036e-06
-1.00086e-05
8.0245e-07
-9.82288e-06
5.59604e-06
-9.58663e-06
1.02416e-05
-9.28722e-06
1.47038e-05
-8.92262e-06
1.89556e-05
-8.50237e-06
2.29831e-05
-8.05343e-06
2.67555e-05
-7.54296e-06
3.02551e-05
-6.99796e-06
3.34642e-05
-6.41823e-06
3.63677e-05
-5.80595e-06
3.89645e-05
-5.19347e-06
4.12379e-05
-4.5444e-06
4.31841e-05
-3.89355e-06
4.48054e-05
-3.24251e-06
4.60918e-05
-2.57367e-06
4.70625e-05
-1.94245e-06
4.77077e-05
-1.29025e-06
4.8052e-05
-6.8917e-07
4.81018e-05
-1.00473e-07
4.78767e-05
4.49169e-07
4.73865e-05
9.79447e-07
4.66584e-05
1.45495e-06
4.57076e-05
1.90055e-06
4.45488e-05
2.31596e-06
4.32136e-05
2.66888e-06
4.17206e-05
2.98697e-06
4.00864e-05
3.26481e-06
3.83424e-05
3.48651e-06
3.65077e-05
3.66812e-06
3.45988e-05
3.81726e-06
3.26425e-05
3.91058e-06
3.06558e-05
3.97217e-06
2.8655e-05
4.00197e-06
2.66567e-05
3.99384e-06
2.46794e-05
3.95363e-06
2.27364e-05
3.887e-06
2.0833e-05
3.80412e-06
1.89905e-05
3.68607e-06
1.72068e-05
3.56466e-06
1.54963e-05
3.4205e-06
1.38633e-05
3.26535e-06
1.23136e-05
3.09895e-06
1.08519e-05
2.92333e-06
9.47256e-06
2.75803e-06
8.18419e-06
2.57653e-06
6.98915e-06
2.39011e-06
5.87737e-06
2.22307e-06
4.85615e-06
2.04236e-06
3.922e-06
1.86832e-06
3.07629e-06
1.69149e-06
2.30619e-06
1.53986e-06
1.61678e-06
1.37892e-06
1.00348e-06
1.2267e-06
4.63819e-07
1.0793e-06
-8.538e-09
9.44804e-07
-4.15923e-07
8.14919e-07
-7.64181e-07
6.96625e-07
-1.0561e-06
5.83973e-07
-1.29621e-06
4.80348e-07
-1.48846e-06
3.84566e-07
-1.63589e-06
2.95028e-07
-1.74329e-06
2.14958e-07
-1.81547e-06
1.44566e-07
-1.85579e-06
8.07893e-08
-1.86769e-06
2.39528e-08
-1.85471e-06
-2.57962e-08
-1.82022e-06
-6.88197e-08
-1.76622e-06
-1.07955e-07
-1.69609e-06
-1.40084e-07
-1.61342e-06
-1.65213e-07
-1.51991e-06
-1.86947e-07
-1.41716e-06
-2.05337e-07
-1.30796e-06
-2.18302e-07
-1.19453e-06
-2.26756e-07
-1.07731e-06
-2.34376e-07
-9.5931e-07
-2.3589e-07
-8.41199e-07
-2.36208e-07
-7.2295e-07
-2.36363e-07
-6.07339e-07
-2.31146e-07
-4.94033e-07
-2.2658e-07
-3.84722e-07
-2.18571e-07
-2.79151e-07
-2.11107e-07
-1.78606e-07
-2.01043e-07
-8.29481e-08
-1.91273e-07
7.50934e-09
-1.80887e-07
9.24079e-08
-1.69769e-07
1.71649e-07
-1.58462e-07
2.45125e-07
-1.46936e-07
3.12838e-07
-1.35412e-07
3.74816e-07
-1.2395e-07
4.31097e-07
-1.12556e-07
4.81828e-07
-1.01458e-07
5.27175e-07
-9.06937e-08
5.67268e-07
-8.01876e-08
6.02339e-07
-7.01469e-08
6.32574e-07
-6.04734e-08
6.58239e-07
-5.13367e-08
6.79519e-07
-4.25681e-08
6.96693e-07
-3.43577e-08
7.09997e-07
-2.66163e-08
7.19682e-07
-1.938e-08
7.26011e-07
-1.26702e-08
7.29217e-07
-6.42386e-09
7.29546e-07
-6.70337e-10
7.27238e-07
4.60562e-09
7.2252e-07
9.42362e-09
7.15611e-07
1.38049e-08
7.06722e-07
1.7767e-08
6.96053e-07
2.13262e-08
6.83798e-07
2.44975e-08
6.70144e-07
2.72967e-08
6.55268e-07
2.97394e-08
6.39341e-07
3.18433e-08
6.22522e-07
3.36261e-08
6.04963e-07
3.51072e-08
5.86805e-07
3.63057e-08
5.68179e-07
3.72417e-08
5.49207e-07
3.79343e-08
5.3e-07
3.84029e-08
5.10663e-07
3.86661e-08
4.91287e-07
3.87421e-08
4.71959e-07
3.86483e-08
4.52754e-07
3.84016e-08
4.33742e-07
3.80176e-08
4.14982e-07
3.75118e-08
3.9653e-07
3.68983e-08
3.78431e-07
3.61909e-08
3.60727e-07
3.54019e-08
3.43453e-07
3.45435e-08
3.26637e-07
3.36265e-08
3.10304e-07
3.26613e-08
2.94473e-07
3.16572e-08
2.79159e-07
3.06231e-08
2.64374e-07
2.95667e-08
2.50125e-07
2.84954e-08
2.36415e-07
2.74156e-08
2.23247e-07
2.63335e-08
2.10618e-07
2.52542e-08
1.98525e-07
2.41826e-08
1.86963e-07
2.31228e-08
1.75922e-07
2.20785e-08
1.65395e-07
2.10528e-08
1.55369e-07
2.00488e-08
1.45834e-07
1.90685e-08
1.36776e-07
1.81141e-08
1.28182e-07
1.71872e-08
1.20037e-07
1.62892e-08
1.12326e-07
1.54209e-08
1.05033e-07
1.45833e-08
9.81446e-08
1.37767e-08
9.16433e-08
1.30016e-08
8.55138e-08
1.2258e-08
7.97405e-08
1.15459e-08
7.43076e-08
1.0865e-08
6.91999e-08
1.02149e-08
6.4402e-08
9.59522e-09
5.9899e-08
9.00535e-09
5.56765e-08
8.4446e-09
5.17202e-08
7.91226e-09
4.80163e-08
7.4075e-09
4.45514e-08
6.9295e-09
4.13125e-08
6.47737e-09
3.82873e-08
6.05018e-09
3.54637e-08
5.64701e-09
3.28302e-08
5.2669e-09
3.03757e-08
4.90891e-09
2.80896e-08
4.57208e-09
2.59618e-08
4.25547e-09
2.39827e-08
3.95815e-09
2.21431e-08
3.6792e-09
2.04342e-08
3.41771e-09
1.88478e-08
3.1728e-09
1.7376e-08
2.94362e-09
1.60113e-08
2.72932e-09
1.47468e-08
2.52911e-09
1.35757e-08
2.34219e-09
1.24918e-08
2.16784e-09
1.14892e-08
2.00532e-09
1.05622e-08
1.85395e-09
9.70571e-09
1.71306e-09
8.91472e-09
1.58202e-09
8.18463e-09
1.46022e-09
7.51112e-09
1.34708e-09
6.89011e-09
1.24206e-09
6.31781e-09
1.14465e-09
5.79066e-09
1.05435e-09
5.30534e-09
9.70694e-10
4.85874e-09
8.93244e-10
4.44797e-09
8.21582e-10
4.07034e-09
7.55311e-10
3.72333e-09
6.94061e-10
3.40461e-09
6.37482e-10
3.112e-09
5.85249e-10
2.84349e-09
5.37058e-10
2.5972e-09
4.92623e-10
2.37138e-09
4.51673e-10
2.16442e-09
4.13953e-10
1.97482e-09
3.79225e-10
1.80121e-09
3.47265e-10
1.64229e-09
3.17865e-10
1.49688e-09
2.90835e-10
1.3639e-09
2.65997e-10
1.24231e-09
2.43187e-10
1.1312e-09
2.22251e-10
1.02969e-09
2.03043e-10
9.36982e-10
1.8543e-10
8.52348e-10
1.69284e-10
7.7511e-10
1.54491e-10
7.04646e-10
1.40943e-10
6.40382e-10
1.28541e-10
5.81791e-10
1.17195e-10
5.28386e-10
1.06821e-10
4.79722e-10
9.73399e-11
4.35387e-10
8.86793e-11
3.95005e-10
8.07724e-11
3.58231e-10
7.35575e-11
3.24746e-10
6.69778e-11
2.94258e-10
6.09815e-11
2.665e-10
5.55217e-11
2.41225e-10
5.0556e-11
2.18204e-10
4.60471e-11
1.97225e-10
4.1963e-11
1.78092e-10
3.82687e-11
1.60636e-10
3.49148e-11
1.44716e-10
3.18446e-11
1.30201e-10
2.90317e-11
2.64584e-11
0.000204431
-3.13191e-05
0.000213084
-2.5862e-05
0.000219412
-1.89276e-05
0.000223207
-1.13469e-05
0.00022462
-4.19577e-06
0.00022351
3.20798e-06
0.000219906
1.07263e-05
0.000213939
1.78596e-05
0.000205595
2.49884e-05
0.000195306
3.08279e-05
0.000183182
3.63173e-05
0.000169388
4.13438e-05
0.000154317
4.51608e-05
0.000138215
4.82413e-05
0.000121341
5.05817e-05
0.000103861
5.23852e-05
8.59888e-05
5.35844e-05
6.80132e-05
5.38778e-05
5.00705e-05
5.38006e-05
3.23087e-05
5.32385e-05
1.49482e-05
5.20531e-05
-1.96645e-06
5.07308e-05
-1.82949e-05
4.89648e-05
-3.39323e-05
4.68938e-05
-4.88393e-05
4.47024e-05
-6.2932e-05
4.22553e-05
-7.61929e-05
3.97651e-05
-8.85962e-05
3.71956e-05
-0.000100098
3.44828e-05
-0.000110732
3.18881e-05
-0.000120451
2.91576e-05
-0.000129244
2.63772e-05
-0.000137103
2.35604e-05
-0.000144009
2.06724e-05
-0.000149926
1.77278e-05
-0.000154851
1.47934e-05
-0.000158772
1.17657e-05
-0.000161664
8.62596e-06
-0.00016351
5.53017e-06
-0.000164308
2.4586e-06
-0.000163986
-9.09089e-07
-0.00016254
-4.31475e-06
-0.000160075
-7.38718e-06
-0.000156606
-1.04021e-05
-0.000152133
-1.3409e-05
-0.000146788
-1.60187e-05
-0.000140616
-1.85046e-05
-0.000133626
-2.09541e-05
-0.000125956
-2.29966e-05
-0.000117661
-2.48706e-05
-0.000108766
-2.6673e-05
-9.93852e-05
-2.81257e-05
-8.94916e-05
-2.96636e-05
-7.92277e-05
-3.07789e-05
-6.86808e-05
-3.16353e-05
-5.78184e-05
-3.25713e-05
-4.66959e-05
-3.33631e-05
-3.54136e-05
-3.38283e-05
-2.39461e-05
-3.43991e-05
-1.23848e-05
-3.46772e-05
-6.78931e-07
-3.5076e-05
1.1102e-05
-3.53194e-05
2.28256e-05
-3.51667e-05
3.45237e-05
-3.50881e-05
4.61007e-05
-3.47195e-05
5.75282e-05
-3.4259e-05
6.87412e-05
-3.36103e-05
7.96482e-05
-3.27137e-05
9.01668e-05
-3.15406e-05
0.000100243
-3.01965e-05
0.000109703
-2.83635e-05
0.000118503
-2.63872e-05
0.000126529
-2.40537e-05
0.000133643
-2.1323e-05
0.000139761
-1.83428e-05
0.000144774
-1.50233e-05
0.000148594
-1.14344e-05
0.000151127
-7.5202e-06
0.000152254
-3.43952e-06
0.000152037
6.32751e-07
0.000150414
4.85971e-06
0.000147358
9.1619e-06
0.000142961
1.31725e-05
0.000137249
1.71287e-05
0.000130377
2.05835e-05
0.000122383
2.39468e-05
0.000113459
2.6736e-05
0.000103727
2.91278e-05
9.32868e-05
3.13341e-05
8.23428e-05
3.27996e-05
7.10481e-05
3.38963e-05
5.95388e-05
3.4447e-05
4.79637e-05
3.46627e-05
3.64029e-05
3.46888e-05
2.50936e-05
3.3905e-05
1.40685e-05
3.30713e-05
3.52475e-06
3.16442e-05
-6.52347e-06
3.00855e-05
-1.59807e-05
2.83564e-05
-2.47719e-05
2.63663e-05
-3.28508e-05
2.42274e-05
-4.01601e-05
2.19131e-05
-4.6672e-05
1.95415e-05
-5.24341e-05
1.72872e-05
-5.73885e-05
1.48628e-05
-6.15618e-05
1.25261e-05
-6.49617e-05
1.02025e-05
-6.76185e-05
7.97163e-06
-6.95435e-05
5.78533e-06
-7.07682e-05
3.67743e-06
-7.13605e-05
1.78171e-06
-7.13109e-05
-1.39138e-07
-7.06548e-05
-1.95722e-06
-6.9439e-05
-3.64014e-06
-6.76912e-05
-5.23288e-06
-6.54367e-05
-6.75601e-06
-6.27354e-05
-8.09708e-06
-5.96071e-05
-9.37375e-06
-5.61098e-05
-1.04767e-05
-5.22589e-05
-1.15471e-05
-4.81181e-05
-1.24162e-05
-4.37153e-05
-1.32036e-05
-3.90834e-05
-1.38797e-05
-3.4293e-05
-1.4361e-05
-2.93732e-05
-1.47748e-05
-2.43408e-05
-1.50664e-05
-1.92677e-05
-1.52105e-05
-1.41825e-05
-1.52481e-05
-9.1122e-06
-1.52049e-05
-4.10314e-06
-1.50177e-05
8.13377e-07
-1.47394e-05
5.60759e-06
-1.43808e-05
1.02574e-05
-1.3937e-05
1.47211e-05
-1.33864e-05
1.89743e-05
-1.27556e-05
2.30043e-05
-1.20834e-05
2.67777e-05
-1.13164e-05
3.02786e-05
-1.04989e-05
3.34887e-05
-9.62835e-06
3.63935e-05
-8.71076e-06
3.89903e-05
-7.79029e-06
4.12682e-05
-6.82225e-06
4.32102e-05
-5.83558e-06
4.48322e-05
-4.86449e-06
4.61176e-05
-3.85909e-06
4.70852e-05
-2.91003e-06
4.77322e-05
-1.93728e-06
4.80754e-05
-1.03241e-06
4.8124e-05
-1.48996e-07
4.78972e-05
6.75918e-07
4.74059e-05
1.47076e-06
4.66759e-05
2.1849e-06
4.5724e-05
2.85253e-06
4.45628e-05
3.47712e-06
4.32258e-05
4.00591e-06
4.17317e-05
4.48107e-06
4.00953e-05
4.9012e-06
3.83496e-05
5.23215e-06
3.65131e-05
5.50471e-06
3.4605e-05
5.72531e-06
3.26449e-05
5.87066e-06
3.06567e-05
5.96036e-06
2.86579e-05
6.00075e-06
2.66552e-05
5.99657e-06
2.46767e-05
5.93212e-06
2.27331e-05
5.83061e-06
2.08285e-05
5.70875e-06
1.89856e-05
5.52891e-06
1.72011e-05
5.3492e-06
1.54902e-05
5.13137e-06
1.38568e-05
4.89871e-06
1.23068e-05
4.64898e-06
1.08453e-05
4.38484e-06
9.46538e-06
4.13793e-06
8.17701e-06
3.8649e-06
6.98246e-06
3.58465e-06
5.87026e-06
3.33527e-06
4.84927e-06
3.06334e-06
3.91547e-06
2.80212e-06
3.07017e-06
2.53679e-06
2.29978e-06
2.31024e-06
1.61069e-06
2.06802e-06
9.97881e-07
1.83951e-06
4.5836e-07
1.61882e-06
-1.36516e-08
1.41681e-06
-4.2066e-07
1.22193e-06
-7.68594e-07
1.04456e-06
-1.06016e-06
8.7554e-07
-1.2999e-06
7.20081e-07
-1.49199e-06
5.76657e-07
-1.63908e-06
4.42113e-07
-1.7462e-06
3.22075e-07
-1.818e-06
2.16373e-07
-1.85803e-06
1.20811e-07
-1.86964e-06
3.55637e-08
-1.85638e-06
-3.90534e-08
-1.82155e-06
-1.03652e-07
-1.76751e-06
-1.62004e-07
-1.69712e-06
-2.10467e-07
-1.61426e-06
-2.48079e-07
-1.52062e-06
-2.80583e-07
-1.41766e-06
-3.083e-07
-1.30832e-06
-3.27647e-07
-1.19472e-06
-3.40351e-07
-1.07745e-06
-3.51647e-07
-9.59303e-07
-3.54037e-07
-8.41173e-07
-3.54339e-07
-7.22771e-07
-3.54765e-07
-6.07065e-07
-3.46851e-07
-4.93745e-07
-3.39901e-07
-3.84385e-07
-3.27932e-07
-2.78783e-07
-3.16709e-07
-1.78202e-07
-3.01624e-07
-8.25006e-08
-2.86975e-07
7.95049e-09
-2.71338e-07
9.28578e-08
-2.54676e-07
1.72103e-07
-2.37707e-07
2.45581e-07
-2.20414e-07
3.13294e-07
-2.03125e-07
3.75263e-07
-1.85919e-07
4.31536e-07
-1.68828e-07
4.82257e-07
-1.52179e-07
5.27587e-07
-1.36024e-07
5.67667e-07
-1.20268e-07
6.0272e-07
-1.052e-07
6.32938e-07
-9.06912e-08
6.58583e-07
-7.69813e-08
6.79844e-07
-6.38292e-08
6.97e-07
-5.15135e-08
7.10283e-07
-3.98995e-08
7.19949e-07
-2.9046e-08
7.26256e-07
-1.89775e-08
7.29445e-07
-9.61223e-09
7.29755e-07
-9.80774e-10
7.27428e-07
6.93249e-09
7.22693e-07
1.41587e-08
7.15768e-07
2.073e-08
7.06863e-07
2.66725e-08
6.96178e-07
3.20107e-08
6.83909e-07
3.67671e-08
6.70241e-07
4.09651e-08
6.55352e-07
4.46284e-08
6.39412e-07
4.77833e-08
6.22581e-07
5.04567e-08
6.05011e-07
5.26774e-08
5.86842e-07
5.44743e-08
5.68207e-07
5.58773e-08
5.49226e-07
5.69152e-08
5.30011e-07
5.76172e-08
5.10666e-07
5.8011e-08
4.91284e-07
5.81242e-08
4.7195e-07
5.79826e-08
4.5274e-07
5.76117e-08
4.33722e-07
5.70349e-08
4.14959e-07
5.62755e-08
3.96502e-07
5.53545e-08
3.78401e-07
5.42926e-08
3.60694e-07
5.31086e-08
3.43417e-07
5.18204e-08
3.26599e-07
5.04443e-08
3.10265e-07
4.8996e-08
2.94433e-07
4.74893e-08
2.79118e-07
4.59376e-08
2.64332e-07
4.43525e-08
2.50082e-07
4.27452e-08
2.36373e-07
4.11253e-08
2.23204e-07
3.95017e-08
2.10576e-07
3.78825e-08
1.98484e-07
3.62748e-08
1.86922e-07
3.46848e-08
1.75882e-07
3.31181e-08
1.65355e-07
3.15795e-08
1.55331e-07
3.00731e-08
1.45797e-07
2.86026e-08
1.3674e-07
2.71709e-08
1.28147e-07
2.57804e-08
1.20003e-07
2.44332e-08
1.12293e-07
2.31308e-08
1.05002e-07
2.18743e-08
9.81141e-08
2.06644e-08
9.16141e-08
1.95017e-08
8.54858e-08
1.83862e-08
7.97137e-08
1.7318e-08
7.42821e-08
1.62966e-08
6.91755e-08
1.53215e-08
6.43788e-08
1.43919e-08
5.9877e-08
1.35071e-08
5.56556e-08
1.2666e-08
5.17003e-08
1.18675e-08
4.79975e-08
1.11104e-08
4.45336e-08
1.03934e-08
4.12957e-08
9.71519e-09
3.82715e-08
9.07443e-09
3.54488e-08
8.46969e-09
3.28161e-08
7.89955e-09
3.03624e-08
7.36259e-09
2.80771e-08
6.85737e-09
2.59501e-08
6.38248e-09
2.39717e-08
5.93652e-09
2.21328e-08
5.51812e-09
2.04246e-08
5.12591e-09
1.88388e-08
4.75858e-09
1.73676e-08
4.41483e-09
1.60035e-08
4.09341e-09
1.47394e-08
3.79312e-09
1.35688e-08
3.51278e-09
1.24854e-08
3.25127e-09
1.14832e-08
3.00752e-09
1.05567e-08
2.78049e-09
9.70054e-09
2.56918e-09
8.90992e-09
2.37264e-09
8.18018e-09
2.18996e-09
7.50698e-09
2.02027e-09
6.88627e-09
1.86277e-09
6.31425e-09
1.71667e-09
5.78737e-09
1.58123e-09
5.30229e-09
1.45577e-09
4.85592e-09
1.33961e-09
4.44536e-09
1.23213e-09
4.06793e-09
1.13274e-09
3.7211e-09
1.04088e-09
3.40255e-09
9.56028e-10
3.11011e-09
8.77693e-10
2.84174e-09
8.05418e-10
2.59559e-09
7.38777e-10
2.3699e-09
6.77363e-10
2.16305e-09
6.20794e-10
1.97357e-09
5.68712e-10
1.80005e-09
5.2078e-10
1.64122e-09
4.76689e-10
1.4959e-09
4.36152e-10
1.363e-09
3.98902e-10
1.24149e-09
3.64694e-10
1.13044e-09
3.33296e-10
1.02899e-09
3.04492e-10
9.36346e-10
2.78077e-10
8.51765e-10
2.53864e-10
7.74577e-10
2.31679e-10
7.04158e-10
2.11361e-10
6.39936e-10
1.92763e-10
5.81383e-10
1.75748e-10
5.28013e-10
1.6019e-10
4.79381e-10
1.45972e-10
4.35076e-10
1.32984e-10
3.94721e-10
1.21126e-10
3.57972e-10
1.10307e-10
3.24509e-10
1.0044e-10
2.94043e-10
9.14475e-11
2.66304e-10
8.32599e-11
2.41047e-10
7.58133e-11
2.18042e-10
6.90518e-11
1.97077e-10
6.29272e-11
1.77958e-10
5.73875e-11
1.60514e-10
5.2358e-11
1.44605e-10
4.7754e-11
1.301e-10
4.35359e-11
3.9677e-11
0.000204705
-4.18209e-05
0.000213425
-3.45822e-05
0.000219818
-2.53202e-05
0.000223659
-1.51876e-05
0.000225076
-5.61296e-06
0.000223863
4.42036e-06
0.00022019
1.43995e-05
0.000214198
2.38513e-05
0.000205827
3.3359e-05
0.000195515
4.11399e-05
0.00018336
4.84719e-05
0.000169545
5.51588e-05
0.000154446
6.02604e-05
0.000138305
6.43821e-05
0.000121409
6.74772e-05
0.000103898
6.98957e-05
8.60073e-05
7.14754e-05
6.80042e-05
7.18809e-05
5.00466e-05
7.17582e-05
3.22581e-05
7.10269e-05
1.4882e-05
6.94291e-05
-2.04425e-06
6.7657e-05
-1.83873e-05
6.53079e-05
-3.40367e-05
6.25431e-05
-4.89549e-05
5.96206e-05
-6.30579e-05
5.63582e-05
-7.63263e-05
5.30335e-05
-8.87368e-05
4.96061e-05
-0.000100244
4.59903e-05
-0.000110887
4.25303e-05
-0.000120619
3.88897e-05
-0.000129422
3.51806e-05
-0.000137288
3.14265e-05
-0.000144197
2.75809e-05
-0.00015012
2.36509e-05
-0.000155059
1.97331e-05
-0.00015899
1.56964e-05
-0.000161881
1.15165e-05
-0.000163712
7.36133e-06
-0.000164468
3.21423e-06
-0.000164116
-1.26035e-06
-0.000162664
-5.76754e-06
-0.000160194
-9.8568e-06
-0.00015672
-1.38763e-05
-0.000152241
-1.78877e-05
-0.000146889
-2.13708e-05
-0.00014071
-2.46834e-05
-0.000133711
-2.79531e-05
-0.000126033
-3.06753e-05
-0.000117731
-3.31726e-05
-0.000108829
-3.5575e-05
-9.944e-05
-3.75144e-05
-8.95399e-05
-3.95637e-05
-7.92695e-05
-4.10494e-05
-6.87146e-05
-4.21903e-05
-5.78505e-05
-4.34355e-05
-4.67229e-05
-4.44908e-05
-3.54356e-05
-4.51157e-05
-2.39615e-05
-4.58734e-05
-1.23964e-05
-4.62424e-05
-6.83647e-07
-4.67889e-05
1.10998e-05
-4.71029e-05
2.28273e-05
-4.68944e-05
3.45222e-05
-4.67831e-05
4.61238e-05
-4.63213e-05
5.75572e-05
-4.56925e-05
6.87793e-05
-4.48325e-05
7.96964e-05
-4.3631e-05
9.02296e-05
-4.20739e-05
0.000100318
-4.0285e-05
0.000109791
-3.78364e-05
0.000118603
-3.51992e-05
0.000126639
-3.20899e-05
0.000133767
-2.84511e-05
0.000139897
-2.44735e-05
0.00014492
-2.00461e-05
0.000148749
-1.52639e-05
0.000151298
-1.00687e-05
0.000152425
-4.56726e-06
0.000152201
8.56929e-07
0.000150571
6.48933e-06
0.000147514
1.22187e-05
0.000143113
1.75737e-05
0.0001374
2.28412e-05
0.000130502
2.74819e-05
0.00012249
3.19589e-05
0.000113549
3.56768e-05
0.000103793
3.88837e-05
9.33407e-05
4.1786e-05
8.23841e-05
4.37561e-05
7.11161e-05
4.51643e-05
5.95416e-05
4.60214e-05
4.79338e-05
4.62705e-05
3.63716e-05
4.62509e-05
2.50504e-05
4.52262e-05
1.40289e-05
4.40927e-05
3.49401e-06
4.2179e-05
-6.59599e-06
4.01755e-05
-1.60607e-05
3.7821e-05
-2.48595e-05
3.51651e-05
-3.29413e-05
3.23092e-05
-4.02569e-05
2.92287e-05
-4.6766e-05
2.60506e-05
-5.25279e-05
2.3049e-05
-5.74815e-05
1.98163e-05
-6.16548e-05
1.66993e-05
-6.50509e-05
1.35987e-05
-6.77054e-05
1.06261e-05
-6.96292e-05
7.70912e-06
-7.08516e-05
4.89978e-06
-7.14376e-05
2.36774e-06
-7.13826e-05
-1.94127e-07
-7.07215e-05
-2.61836e-06
-6.9501e-05
-4.86068e-06
-6.77489e-05
-6.98498e-06
-6.54907e-05
-9.01418e-06
-6.27849e-05
-1.08029e-05
-5.96513e-05
-1.25073e-05
-5.61472e-05
-1.39809e-05
-5.2292e-05
-1.54023e-05
-4.81474e-05
-1.65607e-05