/*--------------------------------*- C++ -*----------------------------------*\
| =========                 |                                                 |
| \\      /  F ield         | OpenFOAM: The Open Source CFD Toolbox           |
|  \\    /   O peration     | Version:  3.0.1                                 |
|   \\  /    A nd           | Web:      www.OpenFOAM.org                      |
|    \\/     M anipulation  |                                                 |
\*---------------------------------------------------------------------------*/
FoamFile
{
    version     2.0;
    format      ascii;
    class       volScalarField;
    location    "6.8";
    object      p_rgh;
}
// * * * * * * * * * * * * * * * * * * * * * * * * * * * * * * * * * * * * * //

dimensions      [1 -1 -2 0 0 0 0];

internalField   nonuniform List<scalar> 
21420
(
381.565
397.387
409.362
417.407
421.52
421.458
417.343
409.336
397.576
382.186
363.43
341.612
317.102
290.228
261.392
230.95
199.277
166.767
133.738
100.534
67.4854
34.9104
5.55633
-25.0426
-54.5618
-82.7913
-109.613
-134.911
-158.601
-180.625
-200.915
-219.428
-236.124
-250.96
-263.9
-274.906
-283.947
-290.999
-296.051
-299.032
-299.947
-298.843
-295.797
-290.809
-283.965
-275.354
-265.066
-253.21
-239.905
-225.256
-209.387
-192.422
-174.476
-155.665
-136.089
-115.854
-95.0599
-73.7934
-52.1406
-30.1866
-8.02837
13.3685
35.5825
57.7337
79.6842
101.31
122.481
143.059
162.898
181.843
199.728
216.385
231.644
245.33
257.275
267.317
275.307
281.119
284.641
285.779
284.537
280.881
274.862
266.535
256.013
243.439
228.988
212.868
195.294
176.508
156.768
136.336
115.471
94.4303
73.4624
52.8059
32.679
13.2838
-5.23104
-22.7096
-39.0222
-54.0664
-67.7681
-80.0746
-90.95
-100.381
-108.371
-114.937
-120.108
-123.924
-126.433
-127.681
-127.735
-126.665
-124.526
-121.387
-117.318
-112.392
-106.683
-100.264
-93.2148
-85.6112
-77.5331
-69.059
-60.2652
-51.2294
-42.0268
-32.7294
-23.4077
-14.1297
-4.96247
4.01623
12.7846
21.2701
29.4215
37.1919
44.5375
51.4193
57.8037
63.6613
68.9678
73.7041
77.8562
81.4163
84.3821
86.757
88.5498
89.7743
90.4487
90.5957
90.2416
89.417
88.1516
86.4797
84.4374
82.062
79.3915
76.465
73.3217
69.9998
66.5369
62.9694
59.3321
55.6575
51.9762
48.3164
44.7034
41.16
37.7063
34.3595
31.1346
28.0437
25.0966
22.3009
19.6622
17.1842
14.8689
12.7167
10.7267
8.89673
7.22349
5.70295
4.32981
3.0974
1.99646
1.07511
0.22595
-0.503839
-1.12449
-1.64431
-2.07113
-2.41266
-2.67644
-2.86978
-2.99972
-3.073
-3.09607
-3.07493
-3.01532
-2.92261
-2.80178
-2.6575
-2.49409
-2.3155
-2.12533
-1.92685
-1.72302
-1.51643
-1.30942
-1.104
-0.901968
-0.704814
-0.513835
-0.33008
-0.154421
0.00993956
0.167271
0.314843
0.452386
0.579759
0.696924
0.803933
0.900915
0.988069
1.06565
1.13396
1.19335
1.24418
1.28685
1.3218
1.34944
1.37022
1.3846
1.39302
1.39589
1.39366
1.38676
1.37557
1.36049
1.34189
1.32014
1.29558
1.26856
1.23939
1.20839
1.17584
1.14202
1.10718
1.07156
1.03538
0.998826
0.962099
0.925362
0.888767
0.852451
0.816537
0.781135
0.74634
0.712236
0.678896
0.646381
0.614744
0.584026
0.554263
0.525479
0.497695
0.470922
0.445166
0.42043
0.396708
0.373994
0.352275
0.331536
0.311759
0.292924
0.275007
0.257984
0.24183
0.226517
0.212018
0.198303
0.185344
0.17311
0.161574
0.150705
0.140474
0.130853
0.121813
0.113327
0.105366
0.0979057
0.0909192
0.0843818
0.0782693
0.0725585
0.0672268
0.0622527
0.0576155
0.0532954
0.0492735
0.0455316
0.0420526
0.03882
0.0358184
0.0330328
0.0304493
0.0280548
0.0258365
0.0237829
0.0218826
0.0201253
0.018501
0.0170006
0.0156151
0.0143366
0.0131574
0.0120702
0.0110684
0.0101458
0.00929642
0.00851487
0.00779605
0.00713523
0.00652799
0.00597023
0.00545815
0.00498819
0.00455708
0.00416176
0.00379942
0.00346742
0.00316336
0.00288498
0.00263022
0.00239716
0.00218403
0.0019892
0.00181117
0.00164854
0.00150004
0.00136449
0.00124082
0.00112801
0.00102516
0.000931432
0.000846048
0.000768304
0.000697553
0.000633202
0.000574711
0.000521589
0.000473391
0.000429717
0.000390211
0.000354551
0.000322454
0.000293655
381.69
397.525
409.51
417.56
421.674
421.622
417.495
409.486
397.713
382.311
363.539
341.705
317.177
290.286
261.433
230.974
199.286
166.761
133.72
100.505
67.4474
34.8683
5.49069
-25.1101
-54.6321
-82.8641
-109.688
-134.987
-158.678
-180.702
-200.993
-219.507
-236.203
-251.039
-263.979
-274.986
-284.027
-291.079
-296.129
-299.11
-300.026
-298.923
-295.873
-290.882
-284.035
-275.421
-265.13
-253.271
-239.962
-225.31
-209.437
-192.467
-174.518
-155.704
-136.124
-115.886
-95.0894
-73.82
-52.1644
-30.2073
-8.04276
13.3533
35.5739
57.7294
79.6848
101.316
122.493
143.076
162.922
181.875
199.767
216.432
231.699
245.393
257.345
267.393
275.39
281.207
284.732
285.874
284.628
280.971
274.95
266.618
256.089
243.506
229.047
212.916
195.332
176.535
156.784
136.342
115.467
94.416
73.4392
52.7747
32.6409
13.2397
-5.2799
-22.7625
-39.0782
-54.1244
-67.8273
-80.1343
-91.0096
-100.44
-108.429
-114.993
-120.162
-123.977
-126.483
-127.728
-127.78
-126.707
-124.566
-121.425
-117.353
-112.424
-106.712
-100.291
-93.2383
-85.6318
-77.5507
-69.0736
-60.277
-51.2383
-42.0328
-32.7327
-23.4083
-14.1277
-4.95788
4.02311
12.7938
21.2815
29.4349
37.2072
44.5544
51.4378
57.8234
63.6822
68.9896
73.7265
77.879
81.4394
84.4051
86.7798
88.5721
89.7958
90.4695
90.6153
90.2601
89.4342
88.1675
86.4942
84.4503
82.0734
79.4014
76.4733
73.3284
70.005
66.5406
62.9718
59.3332
55.6574
51.9751
48.3143
44.7004
41.1562
37.7018
34.3545
31.1291
28.0379
25.0905
22.2946
19.6558
17.1777
14.8623
12.7102
10.7203
8.89048
7.21743
5.69711
4.32424
3.09222
1.9921
1.06955
0.221195
-0.508162
-1.12848
-1.64799
-2.0745
-2.41573
-2.67922
-2.87229
-3.00196
-3.07499
-3.09781
-3.07645
-3.01663
-2.92372
-2.80271
-2.65826
-2.49469
-2.31596
-2.12566
-1.92707
-1.72313
-1.51645
-1.30936
-1.10388
-0.901779
-0.704575
-0.513554
-0.329767
-0.154092
0.0103204
0.167659
0.315238
0.452786
0.58016
0.697323
0.804326
0.901301
0.988445
1.06601
1.13431
1.19368
1.2445
1.28716
1.32208
1.34971
1.37048
1.38484
1.39324
1.39609
1.39385
1.38693
1.37573
1.36063
1.34202
1.32025
1.29568
1.26864
1.23947
1.20845
1.17589
1.14206
1.10721
1.07158
1.03539
0.998833
0.962099
0.925356
0.888755
0.852435
0.816517
0.78111
0.746312
0.712205
0.678863
0.646346
0.614707
0.583988
0.554224
0.52544
0.497655
0.470881
0.445126
0.42039
0.396669
0.373955
0.352236
0.331498
0.311722
0.292887
0.274971
0.25795
0.241797
0.226485
0.211987
0.198273
0.185315
0.173083
0.161548
0.15068
0.14045
0.13083
0.121791
0.113306
0.105346
0.097887
0.0909015
0.084365
0.0782535
0.0725435
0.0672127
0.0622394
0.057603
0.0532837
0.0492625
0.0455213
0.0420429
0.0388109
0.0358098
0.0330248
0.0304419
0.0280478
0.0258301
0.0237768
0.021877
0.0201201
0.0184962
0.016996
0.0156109
0.0143327
0.0131538
0.0120669
0.0110653
0.0101429
0.00929375
0.0085124
0.00779376
0.00713311
0.00652604
0.00596843
0.00545649
0.00498666
0.00455567
0.00416046
0.00379822
0.00346632
0.00316235
0.00288405
0.00262937
0.00239638
0.00218331
0.00198854
0.00181056
0.00164798
0.00149953
0.00136403
0.00124039
0.00112762
0.0010248
0.000931103
0.000845747
0.000768029
0.000697301
0.000632971
0.0005745
0.000521397
0.000473215
0.000429556
0.000390063
0.000354416
0.00032233
0.000293541
381.94
397.8
409.805
417.867
421.982
421.948
417.803
409.786
397.989
382.559
363.758
341.89
317.328
290.402
261.515
231.022
199.303
166.75
133.683
100.446
67.3712
34.7836
5.35998
-25.2449
-54.7727
-83.0098
-109.837
-135.14
-158.833
-180.858
-201.149
-219.663
-236.36
-251.198
-264.139
-275.146
-284.187
-291.239
-296.285
-299.268
-300.184
-299.084
-296.026
-291.029
-284.177
-275.557
-265.259
-253.392
-240.075
-225.415
-209.534
-192.557
-174.6
-155.779
-136.193
-115.948
-95.1453
-73.87
-52.2086
-30.2453
-8.07121
13.3298
35.561
57.7251
79.6902
101.331
122.52
143.116
162.975
181.942
199.849
216.53
231.813
245.522
257.489
267.551
275.559
281.385
284.918
286.068
284.814
281.156
275.127
266.786
256.243
243.644
229.167
213.016
195.411
176.592
156.819
136.355
115.46
94.3894
73.3947
52.7141
32.5665
13.1534
-5.37582
-22.8665
-39.1883
-54.2388
-67.9442
-80.2522
-91.1272
-100.556
-108.543
-115.104
-120.27
-124.08
-126.582
-127.821
-127.87
-126.791
-124.645
-121.498
-117.422
-112.487
-106.769
-100.343
-93.2845
-85.6721
-77.5851
-69.1022
-60.2998
-51.2553
-42.0442
-32.7386
-23.4089
-14.1231
-4.9482
4.03738
12.8127
21.3047
29.4621
37.238
44.5886
51.475
57.8632
63.7242
69.0334
73.7716
77.925
81.4857
84.4513
86.8254
88.6167
89.8391
90.5112
90.6545
90.2971
89.4687
88.1993
86.5231
84.4763
82.0962
79.4211
76.4899
73.3419
70.0155
66.5483
62.9767
59.3355
55.6573
51.9728
48.31
44.6943
41.1486
37.6929
34.3445
31.1182
28.0262
25.0782
22.2819
19.6429
17.1647
14.8493
12.6973
10.7076
8.87803
7.20534
5.68545
4.31312
3.08186
1.98349
1.05834
0.211724
-0.516782
-1.13643
-1.65531
-2.08122
-2.42186
-2.68477
-2.87728
-3.00641
-3.07894
-3.10128
-3.07948
-3.01923
-2.92593
-2.80456
-2.65977
-2.49589
-2.31687
-2.12631
-1.92749
-1.72335
-1.51649
-1.30923
-1.10361
-0.901396
-0.704092
-0.512988
-0.329138
-0.153432
0.0110853
0.168437
0.316031
0.453588
0.580965
0.698123
0.805116
0.902075
0.989199
1.06674
1.13502
1.19436
1.24514
1.28777
1.32266
1.35025
1.37098
1.38531
1.39367
1.39649
1.39422
1.38726
1.37603
1.36091
1.34227
1.32047
1.29587
1.26881
1.23961
1.20857
1.17599
1.14214
1.10728
1.07163
1.03542
0.998847
0.9621
0.925345
0.888733
0.852403
0.816476
0.781063
0.746257
0.712145
0.678798
0.646277
0.614635
0.583913
0.554147
0.525361
0.497575
0.470801
0.445046
0.42031
0.396589
0.373876
0.352159
0.331422
0.311648
0.292815
0.274901
0.257882
0.241731
0.226421
0.211925
0.198214
0.185258
0.173028
0.161495
0.15063
0.140402
0.130784
0.121748
0.113264
0.105307
0.0978497
0.0908662
0.0843316
0.0782219
0.0725137
0.0671846
0.0622129
0.0575781
0.0532603
0.0492405
0.0455006
0.0420235
0.0387928
0.0357929
0.0330089
0.030427
0.0280339
0.0258171
0.0237648
0.0218658
0.0201096
0.0184864
0.016987
0.0156025
0.0143249
0.0131465
0.0120601
0.0110591
0.0101371
0.00928842
0.00850746
0.0077892
0.0071289
0.00652214
0.00596484
0.00545317
0.0049836
0.00455285
0.00415787
0.00379583
0.00346412
0.00316033
0.00288219
0.00262766
0.00239481
0.00218187
0.00198722
0.00180935
0.00164687
0.00149851
0.00136309
0.00123953
0.00112683
0.00102409
0.000930447
0.000845146
0.000767479
0.000696798
0.000632511
0.000574079
0.000521011
0.000472862
0.000429233
0.000389767
0.000354145
0.000322081
0.000293313
382.315
398.214
410.248
418.328
422.446
422.431
418.269
410.236
398.402
382.933
364.086
342.168
317.554
290.576
261.637
231.095
199.328
166.733
133.627
100.358
67.2566
34.6556
5.16455
-25.4471
-54.9836
-83.2283
-110.062
-135.368
-159.064
-181.091
-201.384
-219.899
-236.596
-251.435
-264.378
-275.386
-284.428
-291.478
-296.52
-299.501
-300.425
-299.324
-296.254
-291.25
-284.389
-275.759
-265.451
-253.574
-240.245
-225.574
-209.681
-192.692
-174.724
-155.892
-136.296
-116.041
-95.2294
-73.9452
-52.275
-30.3026
-8.11669
13.2968
35.5416
57.7183
79.6981
101.355
122.56
143.175
163.055
182.043
199.972
216.676
231.983
245.715
257.704
267.787
275.813
281.653
285.196
286.358
285.094
281.434
275.394
267.037
256.475
243.852
229.347
213.165
195.528
176.677
156.872
136.375
115.449
94.3494
73.3279
52.6231
32.4546
13.024
-5.51986
-23.0227
-39.3537
-54.4105
-68.1196
-80.4292
-91.3038
-100.731
-108.714
-115.271
-120.431
-124.236
-126.73
-127.961
-128.004
-126.918
-124.764
-121.609
-117.525
-112.582
-106.856
-100.421
-93.3537
-85.7326
-77.6369
-69.1452
-60.334
-51.2809
-42.0614
-32.7475
-23.4098
-14.1162
-4.93374
4.05884
12.841
21.3395
29.5029
37.2843
44.6399
51.5308
57.923
63.7873
69.0991
73.8393
77.9939
81.5552
84.5207
86.8939
88.6837
89.9039
90.5735
90.7136
90.3528
89.5205
88.2471
86.5666
84.5152
82.1305
79.4507
76.5149
73.3622
70.0313
66.5597
62.984
59.3389
55.6572
51.9693
48.3035
44.6852
41.1372
37.6795
34.3294
31.1017
28.0086
25.0598
22.2629
19.6235
17.1451
14.8297
12.6779
10.6885
8.85934
7.18719
5.66796
4.29642
3.06628
1.97056
1.04154
0.197559
-0.529706
-1.14835
-1.6663
-2.09131
-2.43105
-2.69309
-2.88476
-3.01309
-3.08486
-3.10649
-3.08402
-3.02314
-2.92925
-2.80733
-2.66202
-2.49768
-2.31823
-2.12729
-1.92813
-1.72367
-1.51654
-1.30904
-1.10322
-0.900822
-0.703367
-0.512139
-0.328194
-0.152438
0.0122305
0.169603
0.31722
0.454791
0.582171
0.699323
0.8063
0.903235
0.990329
1.06784
1.13607
1.19537
1.2461
1.28868
1.32352
1.35106
1.37174
1.38601
1.39432
1.39709
1.39477
1.38777
1.37649
1.36132
1.34264
1.3208
1.29616
1.26907
1.23983
1.20876
1.17614
1.14226
1.10737
1.07169
1.03546
0.998868
0.962101
0.925328
0.8887
0.852355
0.816416
0.780991
0.746176
0.712055
0.6787
0.646173
0.614526
0.583801
0.554031
0.525243
0.497456
0.470681
0.444926
0.42019
0.39647
0.373759
0.352043
0.331309
0.311537
0.292706
0.274795
0.257779
0.241632
0.226325
0.211833
0.198125
0.185172
0.172946
0.161417
0.150554
0.14033
0.130716
0.121683
0.113202
0.105248
0.0977939
0.0908133
0.0842816
0.0781746
0.072469
0.0671424
0.0621733
0.0575408
0.0532251
0.0492075
0.0454697
0.0419945
0.0387656
0.0357674
0.0329851
0.0304048
0.0280132
0.0257977
0.0237467
0.0218489
0.0200939
0.0184718
0.0169734
0.0155899
0.0143132
0.0131357
0.0120501
0.0110498
0.0101285
0.00928042
0.00850006
0.00778236
0.00712258
0.00651631
0.00595945
0.0054482
0.00497902
0.00454863
0.00415398
0.00379225
0.00346083
0.00315729
0.00287941
0.0026251
0.00239245
0.00217971
0.00198524
0.00180753
0.0016452
0.00149698
0.00136169
0.00123825
0.00112566
0.00102301
0.000929462
0.000844245
0.000766654
0.000696043
0.000631821
0.000573448
0.000520433
0.000472333
0.000428748
0.000389323
0.000353738
0.000321708
0.000292971
382.815
398.765
410.838
418.944
423.067
423.069
418.896
410.834
398.953
383.431
364.523
342.539
317.856
290.808
261.799
231.191
199.362
166.709
133.552
100.239
67.1032
34.4839
4.90451
-25.7167
-55.2649
-83.5199
-110.361
-135.673
-159.373
-181.402
-201.696
-220.212
-236.911
-251.752
-264.696
-275.706
-284.749
-291.798
-296.834
-299.813
-300.748
-299.641
-296.559
-291.544
-284.672
-276.03
-265.708
-253.816
-240.472
-225.785
-209.877
-192.872
-174.889
-156.043
-136.433
-116.166
-95.3415
-74.0455
-52.3637
-30.3794
-8.17924
13.2541
35.5159
57.7092
79.7083
101.386
122.614
143.254
163.161
182.177
200.137
216.872
232.21
245.973
257.991
268.101
276.151
282.011
285.567
286.738
285.472
281.805
275.751
267.373
256.784
244.128
229.587
213.365
195.685
176.79
156.941
136.402
115.434
94.2958
73.2387
52.5015
32.3046
12.8515
-5.71213
-23.2312
-39.5745
-54.6398
-68.3538
-80.6653
-91.5394
-100.964
-108.942
-115.493
-120.646
-124.442
-126.926
-128.149
-128.183
-127.086
-124.922
-121.757
-117.662
-112.708
-106.971
-100.524
-93.446
-85.8133
-77.7059
-69.2024
-60.3796
-51.315
-42.0843
-32.7594
-23.411
-14.1071
-4.91453
4.08754
12.8788
21.3858
29.5572
37.346
44.7083
51.6052
58.0026
63.8714
69.1867
73.9296
78.0859
81.6479
84.6131
86.9852
88.773
89.9904
90.6564
90.7926
90.4271
89.5897
88.3107
86.6245
84.5671
82.1763
79.4902
76.5481
73.3893
70.0524
66.575
62.9937
59.3435
55.657
51.9647
48.2949
44.6731
41.122
37.6616
34.3093
31.0797
27.9852
25.0353
22.2376
19.5977
17.1191
14.8037
12.652
10.663
8.8344
7.163
5.64462
4.27412
3.04542
1.95261
1.01985
0.178755
-0.546923
-1.16425
-1.68095
-2.10475
-2.44331
-2.70419
-2.89474
-3.022
-3.09276
-3.11344
-3.09007
-3.02835
-2.93367
-2.81101
-2.66504
-2.50007
-2.32005
-2.1286
-1.92897
-1.7241
-1.51661
-1.30879
-1.10269
-0.900054
-0.702399
-0.511004
-0.326932
-0.151106
0.0137536
0.171158
0.318806
0.456396
0.583781
0.700923
0.807879
0.904783
0.991836
1.0693
1.13748
1.19671
1.24739
1.2899
1.32467
1.35213
1.37274
1.38695
1.39519
1.39789
1.3955
1.38844
1.3771
1.36188
1.34313
1.32124
1.29655
1.2694
1.24012
1.209
1.17634
1.14242
1.10749
1.07178
1.03552
0.998895
0.962102
0.925305
0.888656
0.852292
0.816335
0.780895
0.746067
0.711934
0.67857
0.646035
0.614381
0.583651
0.553877
0.525086
0.497297
0.470521
0.444765
0.42003
0.396312
0.373602
0.351889
0.331157
0.311388
0.292562
0.274655
0.257643
0.241499
0.226197
0.211709
0.198006
0.185058
0.172836
0.161312
0.150454
0.140235
0.130625
0.121596
0.11312
0.10517
0.0977194
0.0907427
0.0842148
0.0781115
0.0724095
0.0670863
0.0621203
0.0574909
0.0531783
0.0491635
0.0454284
0.0419558
0.0387293
0.0357335
0.0329534
0.0303751
0.0279855
0.0257719
0.0237226
0.0218265
0.020073
0.0184524
0.0169553
0.0155731
0.0142976
0.0131212
0.0120367
0.0110373
0.010117
0.00926975
0.0084902
0.00777324
0.00711415
0.00650852
0.00595227
0.00544157
0.00497291
0.004543
0.00414879
0.00378747
0.00345643
0.00315325
0.00287569
0.00262168
0.00238932
0.00217683
0.00198259
0.00180511
0.00164298
0.00149495
0.00135982
0.00123654
0.00112409
0.00102158
0.000928149
0.000843044
0.000765555
0.000695037
0.000630901
0.000572606
0.000519663
0.000471628
0.000428103
0.000388732
0.000353196
0.000321212
0.000292516
383.44
399.453
411.576
419.714
423.849
423.86
419.683
411.58
399.642
384.054
365.07
343.003
318.233
291.098
262.002
231.311
199.403
166.68
133.458
100.09
66.9103
34.2675
4.58039
-26.0536
-55.6168
-83.8846
-110.736
-136.055
-159.759
-181.791
-202.087
-220.604
-237.305
-252.148
-265.094
-276.106
-285.151
-292.198
-297.228
-300.207
-301.148
-300.034
-296.939
-291.912
-285.025
-276.368
-266.029
-254.119
-240.756
-226.049
-210.121
-193.098
-175.096
-156.232
-136.605
-116.321
-95.4817
-74.171
-52.4746
-30.4758
-8.25931
13.2022
35.4839
57.6979
79.7207
101.424
122.681
143.352
163.292
182.345
200.342
217.116
232.493
246.295
258.351
268.495
276.574
282.457
286.03
287.21
285.947
282.271
276.197
267.794
257.171
244.474
229.887
213.614
195.881
176.932
157.028
136.435
115.415
94.2287
73.1267
52.3491
32.1165
12.6359
-5.95281
-23.4923
-39.8508
-54.9267
-68.6467
-80.9608
-91.8341
-101.255
-109.227
-115.771
-120.915
-124.7
-127.172
-128.384
-128.406
-127.297
-125.12
-121.942
-117.833
-112.866
-107.115
-100.654
-93.5615
-85.9142
-77.7921
-69.274
-60.4366
-51.3578
-42.1129
-32.7742
-23.4125
-14.0956
-4.89057
4.1235
12.9261
21.4438
29.6252
37.4232
44.7939
51.6983
58.1023
63.9766
69.2963
74.0424
78.2009
81.7638
84.7288
87.0995
88.8847
90.0985
90.76
90.8912
90.5201
89.6761
88.3904
86.697
84.6321
82.2334
79.5395
76.5896
73.423
70.0786
66.594
63.0059
59.3492
55.6566
51.9589
48.2842
44.6579
41.1029
37.6392
34.2841
31.0523
27.9559
25.0046
22.2059
19.5653
17.0864
14.7711
12.6196
10.6311
8.80323
7.13274
5.61544
4.24623
3.01923
1.92935
0.993544
0.155364
-0.568422
-1.18411
-1.69926
-2.12155
-2.45863
-2.71806
-2.9072
-3.03313
-3.10263
-3.12212
-3.09763
-3.03486
-2.93919
-2.81562
-2.66879
-2.50305
-2.32232
-2.13023
-1.93002
-1.72464
-1.51669
-1.30847
-1.10202
-0.899092
-0.701187
-0.509584
-0.325353
-0.149432
0.0156522
0.173102
0.32079
0.458404
0.585793
0.702925
0.809854
0.906719
0.993721
1.07112
1.13923
1.1984
1.24899
1.29142
1.3261
1.35348
1.374
1.38812
1.39628
1.3989
1.39642
1.38928
1.37787
1.36257
1.34376
1.32179
1.29704
1.26982
1.24048
1.2093
1.17659
1.14262
1.10764
1.07189
1.03559
0.99893
0.962103
0.925276
0.8886
0.852212
0.816234
0.780775
0.74593
0.711784
0.678407
0.645862
0.6142
0.583463
0.553684
0.524889
0.497097
0.470321
0.444565
0.41983
0.396114
0.373406
0.351696
0.330968
0.311203
0.292381
0.274479
0.257472
0.241334
0.226037
0.211555
0.197857
0.184915
0.1727
0.16118
0.150329
0.140115
0.13051
0.121487
0.113016
0.105072
0.0976263
0.0906545
0.0841314
0.0780326
0.072335
0.0670161
0.0620542
0.0574287
0.0531198
0.0491085
0.0453768
0.0419074
0.038684
0.035691
0.0329137
0.030338
0.0279508
0.0257396
0.0236925
0.0217984
0.0200469
0.0184281
0.0169327
0.0155521
0.0142781
0.0131031
0.0120199
0.0110218
0.0101026
0.00925643
0.00847787
0.00776185
0.00710362
0.0064988
0.00594329
0.00543329
0.00496527
0.00453596
0.00414231
0.00378151
0.00345094
0.0031482
0.00287105
0.00261742
0.0023854
0.00217323
0.00197929
0.00180208
0.0016402
0.0014924
0.00135749
0.0012344
0.00112214
0.00101978
0.000926509
0.000841543
0.000764182
0.000693781
0.000629751
0.000571554
0.0005187
0.000470747
0.000427296
0.000387993
0.000352519
0.000320591
0.000291946
384.191
400.28
412.463
420.641
424.792
424.809
420.626
412.474
400.469
384.802
365.727
343.559
318.685
291.445
262.245
231.454
199.452
166.643
133.344
99.9106
66.6775
34.0047
4.193
-26.4577
-56.0392
-84.3225
-111.185
-136.513
-160.222
-182.257
-202.556
-221.075
-237.778
-252.623
-265.572
-276.587
-285.633
-292.68
-297.705
-300.683
-301.626
-300.504
-297.396
-292.353
-285.45
-276.774
-266.414
-254.482
-241.097
-226.366
-210.414
-193.368
-175.344
-156.458
-136.811
-116.508
-95.6498
-74.3216
-52.6078
-30.5917
-8.3574
13.1413
35.4456
57.6841
79.7352
101.47
122.761
143.469
163.45
182.546
200.588
217.408
232.833
246.681
258.782
268.967
277.082
282.994
286.587
287.778
286.518
282.83
276.734
268.299
257.634
244.89
230.247
213.913
196.116
177.102
157.133
136.474
115.392
94.1476
72.9919
52.1656
31.8898
12.377
-6.2421
-23.806
-40.1829
-55.2714
-68.9987
-81.3156
-92.188
-101.604
-109.57
-116.104
-121.238
-125.01
-127.468
-128.667
-128.675
-127.55
-125.357
-122.164
-118.039
-113.056
-107.288
-100.81
-93.7
-86.0354
-77.8957
-69.3598
-60.5051
-51.409
-42.1472
-32.792
-23.4143
-14.0819
-4.86185
4.16678
12.9828
21.5135
29.7069
37.5158
44.8967
51.8101
58.2219
64.1029
69.4279
74.178
78.339
81.903
84.8677
87.2366
89.0188
90.2283
90.8844
91.0096
90.6316
89.7799
88.486
86.7839
84.71
82.302
79.5987
76.6394
73.4636
70.1101
66.6168
63.0204
59.3559
55.6562
51.9519
48.2712
44.6396
41.08
37.6123
34.2538
31.0192
27.9207
24.9677
22.1678
19.5265
17.0473
14.7319
12.5808
10.5929
8.76582
7.09641
5.58039
4.2127
2.98766
1.90069
0.962728
0.127426
-0.594195
-1.20794
-1.72123
-2.14171
-2.477
-2.73469
-2.92216
-3.04649
-3.11447
-3.13253
-3.1067
-3.04267
-2.94581
-2.82114
-2.6733
-2.50662
-2.32504
-2.13218
-1.93128
-1.72528
-1.51678
-1.30809
-1.10122
-0.897933
-0.699728
-0.507875
-0.323452
-0.147412
0.0179246
0.175435
0.323171
0.460814
0.58821
0.705328
0.812226
0.909042
0.995984
1.07331
1.14134
1.20042
1.25092
1.29325
1.32783
1.3551
1.37552
1.38953
1.39759
1.4001
1.39753
1.39029
1.37879
1.3634
1.3445
1.32246
1.29762
1.27033
1.24091
1.20967
1.17689
1.14286
1.10783
1.07202
1.03567
0.998971
0.962105
0.925242
0.888534
0.852116
0.816113
0.780631
0.745766
0.711603
0.678212
0.645655
0.613982
0.583237
0.553452
0.524653
0.496858
0.47008
0.444324
0.419591
0.395876
0.373171
0.351465
0.330741
0.310981
0.292164
0.274268
0.257267
0.241135
0.225846
0.21137
0.197679
0.184744
0.172535
0.161023
0.150178
0.139971
0.130373
0.121356
0.112892
0.104954
0.0975146
0.0905487
0.0840313
0.077938
0.0722457
0.0669318
0.0619748
0.057354
0.0530496
0.0490425
0.0453149
0.0418494
0.0386296
0.0356401
0.0328661
0.0302936
0.0279093
0.0257008
0.0236563
0.0217647
0.0200155
0.0183989
0.0169056
0.0155269
0.0142547
0.0130814
0.0119998
0.0110031
0.0100853
0.00924044
0.00846309
0.00774817
0.00709099
0.00648713
0.00593252
0.00542336
0.00495612
0.00452752
0.00413454
0.00377435
0.00344436
0.00314214
0.00286548
0.0026123
0.0023807
0.00216892
0.00197533
0.00179844
0.00163687
0.00148935
0.00135469
0.00123184
0.00111979
0.00101764
0.000924542
0.000839743
0.000762535
0.000692274
0.000628372
0.000570292
0.000517546
0.00046969
0.000426329
0.000387107
0.000351707
0.000319847
0.000291264
385.067
401.245
413.499
421.724
425.897
425.919
421.722
413.516
401.434
385.675
366.493
344.208
319.212
291.85
262.527
231.62
199.508
166.599
133.21
99.6996
66.4039
33.6939
3.74311
-26.929
-56.5324
-84.834
-111.71
-137.048
-160.763
-182.802
-203.103
-221.624
-238.329
-253.177
-266.129
-277.147
-286.195
-293.242
-298.263
-301.239
-302.182
-301.052
-297.928
-292.868
-285.946
-277.249
-266.864
-254.907
-241.494
-226.735
-210.757
-193.683
-175.633
-156.722
-137.051
-116.725
-95.846
-74.4973
-52.7633
-30.7273
-8.47389
13.0718
35.4008
57.6679
79.7514
101.522
122.854
143.606
163.634
182.78
200.874
217.749
233.229
247.132
259.285
269.518
277.676
283.621
287.238
288.441
287.184
283.482
277.361
268.888
258.176
245.375
230.667
214.262
196.391
177.301
157.254
136.52
115.365
94.0525
72.834
51.9508
31.6243
12.0744
-6.58031
-24.1728
-40.5709
-55.6741
-69.4098
-81.73
-92.6013
-102.013
-109.97
-116.493
-121.614
-125.372
-127.814
-128.997
-128.987
-127.845
-125.635
-122.423
-118.28
-113.277
-107.49
-100.992
-93.8618
-86.1768
-78.0165
-69.46
-60.5849
-51.4688
-42.1872
-32.8128
-23.4163
-14.0659
-4.82837
4.21741
13.0491
21.5948
29.8023
37.6241
45.0167
51.9407
58.3617
64.2503
69.5816
74.3362
78.5003
82.0656
85.0299
87.3968
89.1754
90.3799
91.0298
91.1478
90.7617
89.9011
88.5975
86.8854
84.8009
82.382
79.6678
76.6975
73.5108
70.1468
66.6434
63.0374
59.3638
55.6556
51.9436
48.2559
44.6182
41.0531
37.5808
34.2184
30.9807
27.8795
24.9246
22.1234
19.4812
17.0015
14.6862
12.5355
10.5482
8.72215
7.054
5.53947
4.17351
2.95069
1.86663
0.927402
0.094967
-0.624231
-1.23574
-1.74686
-2.16521
-2.49844
-2.7541
-2.9396
-3.06206
-3.12828
-3.14466
-3.11726
-3.05176
-2.95353
-2.82757
-2.67855
-2.51078
-2.32821
-2.13444
-1.93274
-1.72602
-1.51688
-1.30763
-1.10028
-0.896575
-0.69802
-0.505876
-0.321229
-0.14504
0.0205696
0.178156
0.325952
0.463628
0.591032
0.708133
0.814994
0.911754
0.998625
1.07587
1.1438
1.20277
1.25316
1.29538
1.32984
1.35699
1.37728
1.39117
1.39911
1.4015
1.39882
1.39147
1.37986
1.36437
1.34537
1.32323
1.2983
1.27092
1.24141
1.21009
1.17724
1.14314
1.10804
1.07218
1.03577
0.999018
0.962106
0.925201
0.888455
0.852004
0.815971
0.780462
0.745575
0.711391
0.677983
0.645412
0.613728
0.582974
0.553181
0.524377
0.496579
0.469799
0.444043
0.419311
0.395598
0.372897
0.351195
0.330476
0.310722
0.291911
0.274021
0.257028
0.240903
0.225622
0.211154
0.197471
0.184544
0.172343
0.160839
0.150002
0.139803
0.130214
0.121204
0.112748
0.104816
0.0973843
0.0904253
0.0839145
0.0778277
0.0721415
0.0668336
0.0618823
0.0572669
0.0529677
0.0489656
0.0452427
0.0417817
0.0385662
0.0355808
0.0328106
0.0302417
0.0278609
0.0256556
0.0236142
0.0217255
0.019979
0.0183649
0.016874
0.0154976
0.0142275
0.0130561
0.0119763
0.0109814
0.0100652
0.0092218
0.00844584
0.00773223
0.00707626
0.00647353
0.00591997
0.00541178
0.00494544
0.00451768
0.00412547
0.00376601
0.00343668
0.00313508
0.00285899
0.00260633
0.00237522
0.00216389
0.00197071
0.00179421
0.00163299
0.00148579
0.00135143
0.00122885
0.00111705
0.00101513
0.000922249
0.000837644
0.000760614
0.000690517
0.000626765
0.000568822
0.0005162
0.000468458
0.000425201
0.000386074
0.000350761
0.000318979
0.000290468
386.069
402.35
414.684
422.964
427.164
427.19
422.973
414.706
402.538
386.674
367.369
344.95
319.814
292.311
262.849
231.808
199.57
166.546
133.056
99.4564
66.0887
33.3333
3.23133
-27.4675
-57.0965
-85.4191
-112.311
-137.66
-161.382
-183.425
-203.728
-222.252
-238.959
-253.81
-266.766
-277.788
-286.839
-293.885
-298.903
-301.877
-302.817
-301.677
-298.537
-293.458
-286.513
-277.791
-267.379
-255.392
-241.949
-227.158
-211.148
-194.043
-175.963
-157.024
-137.325
-116.974
-96.0703
-74.6981
-52.941
-30.8827
-8.6091
12.9937
35.3494
57.6491
79.7694
101.582
122.96
143.762
163.844
183.047
201.202
218.139
233.682
247.648
259.86
270.149
278.355
284.338
287.983
289.201
287.945
284.229
278.078
269.563
258.796
245.93
231.148
214.661
196.705
177.527
157.392
136.571
115.334
93.943
72.6527
51.7041
31.3201
11.7277
-6.96785
-24.5929
-41.0152
-56.1351
-69.8805
-82.2042
-93.0742
-102.48
-110.428
-116.939
-122.045
-125.785
-128.209
-129.374
-129.345
-128.182
-125.952
-122.719
-118.554
-113.53
-107.72
-101.2
-94.0467
-86.3384
-78.1546
-69.5745
-60.6762
-51.5371
-42.2329
-32.8364
-23.4185
-14.0475
-4.7901
4.27538
13.1249
21.6878
29.9113
37.7478
45.154
52.09
58.5215
64.419
69.7575
74.5173
78.6847
82.2515
85.2155
87.58
89.3545
90.5533
91.196
91.3058
90.9104
90.0396
88.7251
87.0014
84.9048
82.4735
79.7467
76.7639
73.5648
70.1887
66.6737
63.0566
59.3726
55.6549
51.9341
48.2384
44.5936
41.0224
37.5447
34.1779
30.9365
27.8324
24.8753
22.0725
19.4294
16.9492
14.6339
12.4836
10.4972
8.67223
7.0055
5.49266
4.12865
2.90829
1.82719
0.887545
0.0580022
-0.658524
-1.26749
-1.77614
-2.19207
-2.52293
-2.77627
-2.95952
-3.07985
-3.14404
-3.15852
-3.12933
-3.06215
-2.96234
-2.83491
-2.68453
-2.51552
-2.33181
-2.13702
-1.93439
-1.72685
-1.51699
-1.3071
-1.0992
-0.895016
-0.696061
-0.503586
-0.31868
-0.142315
0.0235868
0.181268
0.329132
0.466847
0.594259
0.711342
0.818159
0.914856
1.00164
1.07879
1.14662
1.20547
1.25573
1.29781
1.33214
1.35915
1.3793
1.39304
1.40085
1.4031
1.40029
1.39282
1.38108
1.36547
1.34636
1.32411
1.29907
1.27159
1.24199
1.21057
1.17764
1.14346
1.10829
1.07235
1.03588
0.999072
0.962107
0.925154
0.888365
0.851876
0.815808
0.78027
0.745356
0.71115
0.677722
0.645135
0.613437
0.582672
0.552872
0.524062
0.49626
0.469478
0.443722
0.418991
0.395281
0.372583
0.350886
0.330173
0.310425
0.291622
0.27374
0.256754
0.240639
0.225366
0.210907
0.197233
0.184316
0.172124
0.16063
0.149802
0.139612
0.130031
0.12103
0.112582
0.104659
0.0972354
0.0902843
0.083781
0.0777016
0.0720225
0.0667213
0.0617765
0.0571674
0.0528741
0.0488777
0.0451602
0.0417043
0.0384938
0.035513
0.0327472
0.0301824
0.0278055
0.025604
0.023566
0.0216806
0.0199372
0.0183261
0.0168379
0.015464
0.0141963
0.0130272
0.0119495
0.0109566
0.0100422
0.00920051
0.00842615
0.00771402
0.00705943
0.00645799
0.00590563
0.00539855
0.00493324
0.00450644
0.00411512
0.00375647
0.00342791
0.00312702
0.00285157
0.00259952
0.00236896
0.00215814
0.00196544
0.00178937
0.00162855
0.00148172
0.00134771
0.00122544
0.00111393
0.00101227
0.00091963
0.000835248
0.000758421
0.000688511
0.000624929
0.000567142
0.000514663
0.000467052
0.000423913
0.000384894
0.00034968
0.000317988
0.000289558
387.198
403.593
416.019
424.363
428.593
428.623
424.381
416.047
403.781
387.798
368.355
345.785
320.491
292.829
263.209
232.018
199.639
166.485
132.879
99.1804
65.731
32.9211
2.6581
-28.0731
-57.7318
-86.0783
-112.988
-138.349
-162.079
-184.126
-204.432
-222.958
-239.668
-254.523
-267.483
-278.51
-287.563
-294.61
-299.625
-302.595
-303.532
-302.379
-299.222
-294.121
-287.152
-278.401
-267.958
-255.938
-242.46
-227.634
-211.588
-194.449
-176.334
-157.363
-137.634
-117.254
-96.3225
-74.924
-53.141
-31.0577
-8.76334
12.9071
35.291
57.6273
79.7888
101.649
123.079
143.937
164.079
183.346
201.569
218.577
234.191
248.228
260.508
270.859
279.119
285.147
288.823
290.058
288.803
285.071
278.887
270.323