/*--------------------------------*- C++ -*----------------------------------*\
| =========                 |                                                 |
| \\      /  F ield         | OpenFOAM: The Open Source CFD Toolbox           |
|  \\    /   O peration     | Version:  3.0.1                                 |
|   \\  /    A nd           | Web:      www.OpenFOAM.org                      |
|    \\/     M anipulation  |                                                 |
\*---------------------------------------------------------------------------*/
FoamFile
{
    version     2.0;
    format      ascii;
    class       surfaceScalarField;
    location    "6.8";
    object      phi;
}
// * * * * * * * * * * * * * * * * * * * * * * * * * * * * * * * * * * * * * //

dimensions      [0 3 -1 0 0 0 0];

internalField   nonuniform List<scalar> 
42423
(
0.00020102
-1.10493e-05
0.000210303
-9.2836e-06
0.000217346
-7.04245e-06
0.000221906
-4.56045e-06
0.000224066
-2.16005e-06
0.000223793
2.7342e-07
0.000221048
2.74472e-06
0.000215863
5.18493e-06
0.00020825
7.61295e-06
0.000198626
9.62429e-06
0.000187106
1.15196e-05
0.000173827
1.32787e-05
0.000159204
1.46228e-05
0.000143471
1.57336e-05
0.000126875
1.6596e-05
0.000109605
1.72696e-05
9.18538e-05
1.77513e-05
7.39466e-05
1.79072e-05
5.59992e-05
1.79474e-05
3.81909e-05
1.78083e-05
2.0735e-05
1.74558e-05
3.69476e-06
1.70403e-05
-1.28615e-05
1.65563e-05
-2.87361e-05
1.58745e-05
-4.38956e-05
1.51595e-05
-5.82508e-05
1.43553e-05
-7.17893e-05
1.35385e-05
-8.44797e-05
1.26905e-05
-9.62706e-05
1.17909e-05
-0.000107203
1.09327e-05
-0.000117229
1.00258e-05
-0.000126331
9.10145e-06
-0.000134493
8.16214e-06
-0.00014169
7.19683e-06
-0.000147915
6.22584e-06
-0.00015317
5.25424e-06
-0.00015741
4.24021e-06
-0.000160597
3.18719e-06
-0.000162745
2.14842e-06
-0.000163879
1.13385e-06
-0.000163936
5.68339e-08
-0.000162842
-1.09394e-06
-0.000160694
-2.14799e-06
-0.000157526
-3.16767e-06
-0.000153349
-4.17701e-06
-0.00014829
-5.05898e-06
-0.000142384
-5.90632e-06
-0.000135648
-6.73595e-06
-0.000128214
-7.43441e-06
-0.00012014
-8.07337e-06
-0.000111446
-8.69474e-06
-0.00010225
-9.19546e-06
-9.25284e-05
-9.72192e-06
-8.24179e-05
-1.01105e-05
-7.2002e-05
-1.0416e-05
-6.12665e-05
-1.07355e-05
-5.02468e-05
-1.10197e-05
-3.90674e-05
-1.11795e-05
-2.76744e-05
-1.1393e-05
-1.6181e-05
-1.14935e-05
-4.53679e-06
-1.16443e-05
7.19198e-06
-1.17288e-05
1.89034e-05
-1.17115e-05
3.06092e-05
-1.17059e-05
4.22141e-05
-1.1605e-05
5.36845e-05
-1.14704e-05
6.49651e-05
-1.12807e-05
7.59768e-05
-1.10118e-05
8.6629e-05
-1.06523e-05
9.68593e-05
-1.02303e-05
0.000106516
-9.65723e-06
0.000115552
-9.03607e-06
0.000123844
-8.29148e-06
0.00013126
-7.41604e-06
0.000137718
-6.45853e-06
0.000143099
-5.38137e-06
0.000147312
-4.21228e-06
0.000150221
-2.90993e-06
0.000151834
-1.61215e-06
0.000152074
-2.40775e-07
0.000150919
1.15471e-06
0.000148315
2.60456e-06
0.000144357
3.958e-06
0.000139055
5.30198e-06
0.00013258
6.4746e-06
0.000124946
7.63422e-06
0.00011634
8.60547e-06
0.000106907
9.43366e-06
9.66569e-05
1.02495e-05
8.5885e-05
1.07719e-05
7.46853e-05
1.11997e-05
6.32825e-05
1.14028e-05
5.17467e-05
1.15358e-05
4.01528e-05
1.15938e-05
2.87827e-05
1.13701e-05
1.76456e-05
1.1137e-05
6.94914e-06
1.06965e-05
-3.23577e-06
1.01849e-05
-1.28785e-05
9.64268e-06
-2.18778e-05
8.99937e-06
-3.01784e-05
8.30052e-06
-3.77169e-05
7.53847e-06
-4.44768e-05
6.7599e-06
-5.04859e-05
6.00911e-06
-5.56877e-05
5.20176e-06
-6.01102e-05
4.42253e-06
-6.37528e-05
3.64256e-06
-6.66464e-05
2.89367e-06
-6.88048e-05
2.15835e-06
-7.02493e-05
1.44453e-06
-7.1052e-05
8.0268e-07
-7.12095e-05
1.57484e-07
-7.07506e-05
-4.58917e-07
-6.97177e-05
-1.03287e-06
-6.81443e-05
-1.57341e-06
-6.60514e-05
-2.09293e-06
-6.34997e-05
-2.55174e-06
-6.05118e-05
-2.98784e-06
-5.71455e-05
-3.36635e-06
-5.3407e-05
-3.73849e-06
-4.93668e-05
-4.04021e-06
-4.50508e-05
-4.31597e-06
-4.04999e-05
-4.55089e-06
-3.57742e-05
-4.72571e-06
-3.08896e-05
-4.88465e-06
-2.59115e-05
-4.97809e-06
-2.08646e-05
-5.0469e-06
-1.57926e-05
-5.07203e-06
-1.07235e-05
-5.06909e-06
-5.70614e-06
-5.01736e-06
-7.70556e-07
-4.93558e-06
4.05791e-06
-4.82847e-06
8.7452e-06
-4.6873e-06
1.32605e-05
-4.51529e-06
1.75748e-05
-4.31428e-06
2.16723e-05
-4.09758e-06
2.55218e-05
-3.84948e-06
2.91057e-05
-3.58385e-06
3.2406e-05
-3.3003e-06
3.54045e-05
-2.9985e-06
3.81009e-05
-2.69638e-06
4.04744e-05
-2.37355e-06
4.25261e-05
-2.05168e-06
4.42524e-05
-1.72628e-06
4.56443e-05
-1.39191e-06
4.67194e-05
-1.0751e-06
4.74655e-05
-7.46139e-07
4.79082e-05
-4.42663e-07
4.80521e-05
-1.43953e-07
4.79175e-05
1.34657e-07
4.75125e-05
4.04971e-07
4.68637e-05
6.4873e-07
4.5986e-05
8.77728e-07
4.48945e-05
1.09151e-06
4.36196e-05
1.27492e-06
4.21775e-05
1.44207e-06
4.05918e-05
1.58568e-06
3.88872e-05
1.70467e-06
3.70848e-05
1.80236e-06
3.52006e-05
1.8842e-06
3.32642e-05
1.93644e-06
3.12903e-05
1.97386e-06
2.9295e-05
1.99534e-06
2.72998e-05
1.99516e-06
2.5319e-05
1.98076e-06
2.33662e-05
1.95288e-06
2.14526e-05
1.91358e-06
1.95926e-05
1.85994e-06
1.77923e-05
1.80032e-06
1.60605e-05
1.73179e-06
1.44042e-05
1.6563e-06
1.28294e-05
1.5748e-06
1.1341e-05
1.48839e-06
9.93461e-06
1.40641e-06
8.61817e-06
1.31645e-06
7.39451e-06
1.22366e-06
6.25462e-06
1.13989e-06
5.20508e-06
1.04953e-06
4.24294e-06
9.62145e-07
3.36977e-06
8.73167e-07
2.57342e-06
7.96348e-07
1.85827e-06
7.15148e-07
1.22039e-06
6.37878e-07
6.58004e-07
5.62387e-07
1.66407e-07
4.91595e-07
-2.65598e-07
4.32004e-07
-6.34854e-07
3.69255e-07
-9.45896e-07
3.11042e-07
-1.20365e-06
2.57754e-07
-1.4121e-06
2.08448e-07
-1.5745e-06
1.62404e-07
-1.69557e-06
1.21062e-07
-1.78017e-06
8.46027e-08
-1.83163e-06
5.1464e-08
-1.85351e-06
2.18735e-08
-1.84939e-06
-4.11553e-09
-1.82272e-06
-2.6673e-08
-1.77545e-06
-4.72771e-08
-1.71123e-06
-6.42114e-08
-1.63356e-06
-7.76713e-08
-1.5442e-06
-8.93676e-08
-1.44493e-06
-9.92698e-08
-1.33846e-06
-1.06465e-07
-1.22715e-06
-1.11315e-07
-1.11143e-06
-1.15717e-07
-9.94474e-07
-1.16957e-07
-8.76856e-07
-1.17618e-07
-7.5882e-07
-1.18037e-07
-6.4301e-07
-1.1581e-07
-5.29155e-07
-1.13855e-07
-4.19052e-07
-1.10103e-07
-3.12451e-07
-1.06601e-07
-2.10706e-07
-1.01746e-07
-1.13704e-07
-9.70014e-08
-2.18173e-08
-9.18871e-08
6.47397e-08
-8.6557e-08
1.45676e-07
-8.09359e-08
2.20883e-07
-7.52078e-08
2.90351e-07
-6.94676e-08
3.54095e-07
-6.37443e-08
4.12134e-07
-5.80384e-08
4.64602e-07
-5.24679e-08
5.11655e-07
-4.70531e-08
5.5341e-07
-4.17557e-08
5.90095e-07
-3.66845e-08
6.21883e-07
-3.17884e-08
6.4904e-07
-2.71563e-08
6.71743e-07
-2.27031e-08
6.90268e-07
-1.85254e-08
7.04848e-07
-1.458e-08
7.15733e-07
-1.08848e-08
7.23186e-07
-7.45313e-09
7.27439e-07
-4.25226e-09
7.28742e-07
-1.30298e-09
7.2733e-07
1.41214e-09
7.23436e-07
3.89358e-09
7.17282e-07
6.1537e-09
7.09081e-07
8.20181e-09
6.99034e-07
1.00465e-08
6.87339e-07
1.16953e-08
6.74183e-07
1.31559e-08
6.59747e-07
1.4436e-08
6.44203e-07
1.55441e-08
6.27714e-07
1.64889e-08
6.10434e-07
1.728e-08
5.92507e-07
1.79267e-08
5.74068e-07
1.8439e-08
5.55242e-07
1.88265e-08
5.36143e-07
1.9099e-08
5.16877e-07
1.92657e-08
4.97541e-07
1.93359e-08
4.78223e-07
1.93183e-08
4.59001e-07
1.92216e-08
4.39948e-07
1.90536e-08
4.21125e-07
1.88222e-08
4.02591e-07
1.85346e-08
3.84393e-07
1.81977e-08
3.66575e-07
1.7818e-08
3.49173e-07
1.74016e-08
3.32219e-07
1.69539e-08
3.15739e-07
1.64805e-08
2.99753e-07
1.5986e-08
2.84278e-07
1.54749e-08
2.69327e-07
1.49514e-08
2.54907e-07
1.44192e-08
2.41026e-07
1.38816e-08
2.27684e-07
1.33417e-08
2.14882e-07
1.28024e-08
2.02616e-07
1.2266e-08
1.90881e-07
1.17348e-08
1.7967e-07
1.12107e-08
1.68975e-07
1.06953e-08
1.58784e-07
1.01903e-08
1.49088e-07
9.69663e-09
1.39872e-07
9.21558e-09
1.31124e-07
8.74795e-09
1.2283e-07
8.29448e-09
1.14974e-07
7.85571e-09
1.07542e-07
7.43209e-09
1.00518e-07
7.0239e-09
9.38865e-08
6.63134e-09
8.7632e-08
6.25449e-09
8.17386e-08
5.89336e-09
7.61907e-08
5.54784e-09
7.09729e-08
5.21779e-09
6.60699e-08
4.90299e-09
6.14667e-08
4.60317e-09
5.71487e-08
4.31801e-09
5.31016e-08
4.04716e-09
4.93113e-08
3.79022e-09
4.57645e-08
3.54678e-09
4.24481e-08
3.31641e-09
3.93495e-08
3.09865e-09
3.64564e-08
2.89304e-09
3.37573e-08
2.69912e-09
3.12409e-08
2.5164e-09
2.88964e-08
2.34442e-09
2.67137e-08
2.18269e-09
2.4683e-08
2.03076e-09
2.27948e-08
1.88816e-09
2.10404e-08
1.75445e-09
1.94112e-08
1.62916e-09
1.78993e-08
1.51188e-09
1.64971e-08
1.40218e-09
1.51975e-08
1.29965e-09
1.39936e-08
1.2039e-09
1.2879e-08
1.11456e-09
1.18477e-08
1.03126e-09
1.08941e-08
9.53646e-10
1.00127e-08
8.81385e-10
9.19853e-09
8.14154e-10
8.44688e-09
7.51646e-10
7.75331e-09
6.93568e-10
7.11366e-09
6.39642e-10
6.52405e-09
5.89608e-10
5.98084e-09
5.43213e-10
5.48061e-09
5.00222e-10
5.0202e-09
4.6041e-10
4.59664e-09
4.23562e-10
4.20715e-09
3.89479e-10
3.84918e-09
3.57969e-10
3.52033e-09
3.28855e-10
3.21835e-09
3.01972e-10
2.94119e-09
2.77162e-10
2.68691e-09
2.54281e-10
2.45372e-09
2.33189e-10
2.23996e-09
2.13757e-10
2.0441e-09
1.95861e-10
1.86471e-09
1.79389e-10
1.70047e-09
1.64232e-10
1.55018e-09
1.50295e-10
1.41269e-09
1.37485e-10
1.28698e-09
1.25718e-10
1.17206e-09
1.14915e-10
1.06706e-09
1.05003e-10
9.71143e-10
9.59113e-11
8.83567e-10
8.75758e-11
8.0363e-10
7.99367e-11
7.3069e-10
7.29392e-11
6.64157e-10
6.65327e-11
6.03486e-10
6.06705e-11
5.48176e-10
5.53092e-11
4.97768e-10
5.04085e-11
4.51836e-10
4.59312e-11
4.09993e-10
4.18427e-11
3.71881e-10
3.81114e-11
3.37173e-10
3.47079e-11
3.05567e-10
3.16057e-11
2.76787e-10
2.87804e-11
2.50576e-10
2.62104e-11
2.26699e-10
2.38764e-11
2.04937e-10
2.17618e-11
1.85089e-10
1.98484e-11
1.66978e-10
1.81102e-11
1.50459e-10
1.65189e-11
1.35398e-10
1.50606e-11
1.37262e-11
0.000201115
-2.21175e-05
0.000210438
-1.86062e-05
0.000217486
-1.40906e-05
0.000222029
-9.10352e-06
0.000224203
-4.33388e-06
0.000223929
5.47137e-07
0.000221174
5.49948e-06
0.000215983
1.03763e-05
0.000208361
1.52345e-05
0.000198729
1.92561e-05
0.000187198
2.30506e-05
0.00017391
2.65665e-05
0.000159274
2.92587e-05
0.000143527
3.14813e-05
0.000126921
3.32018e-05
0.000109638
3.45521e-05
9.18779e-05
3.55116e-05
7.39586e-05
3.58265e-05
5.60033e-05
3.59027e-05
3.81836e-05
3.56279e-05
2.07196e-05
3.49199e-05
3.67412e-06
3.40857e-05
-1.28846e-05
3.3115e-05
-2.87637e-05
3.17536e-05
-4.39278e-05
3.03236e-05
-5.82872e-05
2.87148e-05
-7.183e-05
2.70813e-05
-8.45245e-05
2.53849e-05
-9.63183e-05
2.35847e-05
-0.000107254
2.18682e-05
-0.000117285
2.00567e-05
-0.000126391
1.82077e-05
-0.000134559
1.63304e-05
-0.000141764
1.44014e-05
-0.000147988
1.24503e-05
-0.000153245
1.05112e-05
-0.000157495
8.48968e-06
-0.000160685
6.3775e-06
-0.00016284
4.30386e-06
-0.000163986
2.27989e-06
-0.000164032
1.02031e-07
-0.000162922
-2.20313e-06
-0.000160774
-4.29643e-06
-0.000157609
-6.33279e-06
-0.000153428
-8.35812e-06
-0.000148364
-1.01225e-05
-0.000142457
-1.18139e-05
-0.000135716
-1.3477e-05
-0.000128281
-1.48691e-05
-0.000120199
-1.6155e-05
-0.000111501
-1.73936e-05
-0.000102303
-1.83934e-05
-9.25727e-05
-1.9452e-05
-8.24577e-05
-2.02255e-05
-7.20431e-05
-2.08307e-05
-6.12973e-05
-2.14814e-05
-5.02788e-05
-2.20383e-05
-3.90876e-05
-2.23708e-05
-2.76976e-05
-2.27831e-05
-1.6197e-05
-2.29942e-05
-4.55008e-06
-2.32913e-05
7.20249e-06
-2.34815e-05
1.89232e-05
-2.34324e-05
3.06348e-05
-2.34176e-05
4.22434e-05
-2.32137e-05
5.37209e-05
-2.29481e-05
6.50051e-05
-2.2565e-05
7.60228e-05
-2.20297e-05
8.66759e-05
-2.13055e-05
9.69142e-05
-2.04688e-05
0.000106577
-1.93197e-05
0.000115612
-1.80722e-05
0.000123905
-1.65847e-05
0.000131326
-1.48363e-05
0.000137787
-1.29198e-05
0.000143173
-1.07682e-05
0.000147388
-8.42748e-06
0.000150324
-5.84551e-06
0.000151913
-3.20122e-06
0.00015215
-4.78079e-07
0.000150989
2.31537e-06
0.000148382
5.21111e-06
0.000144421
7.91921e-06
0.000139118
1.06048e-05
0.000132632
1.29606e-05
0.000124989
1.52766e-05
0.000116375
1.72198e-05
0.000106914
1.88945e-05
9.66754e-05
2.04882e-05
8.58972e-05
2.15499e-05
7.47021e-05
2.23948e-05
6.32764e-05
2.28284e-05
5.17403e-05
2.30718e-05
4.0134e-05
2.32001e-05
2.87544e-05
2.27497e-05
1.76183e-05
2.2273e-05
6.9238e-06
2.1391e-05
-3.27365e-06
2.03823e-05
-1.29194e-05
1.92884e-05
-2.1922e-05
1.80019e-05
-3.02255e-05
1.6604e-05
-3.77666e-05
1.50795e-05
-4.45252e-05
1.35185e-05
-5.0536e-05
1.20199e-05
-5.57377e-05
1.04034e-05
-6.01585e-05
8.84325e-06
-6.38002e-05
7.28427e-06
-6.66913e-05
5.78475e-06
-6.88493e-05
4.31639e-06
-7.0295e-05
2.89021e-06
-7.10964e-05
1.60405e-06
-7.12489e-05
3.1003e-07
-7.07868e-05
-9.21061e-07
-6.97529e-05
-2.06682e-06
-6.81766e-05
-3.14966e-06
-6.60812e-05
-4.18839e-06
-6.35271e-05
-5.1058e-06
-6.05359e-05
-5.97905e-06
-5.71651e-05
-6.73715e-06
-5.34251e-05
-7.47844e-06
-4.93827e-05
-8.08263e-06
-4.50652e-05
-8.63351e-06
-4.05102e-05
-9.1059e-06
-3.57816e-05
-9.45431e-06
-3.09022e-05
-9.76402e-06
-2.59121e-05
-9.96823e-06
-2.08629e-05
-1.00961e-05
-1.57892e-05
-1.01457e-05
-1.07177e-05
-1.01406e-05
-5.69771e-06
-1.00374e-05
-7.59464e-07
-9.87383e-06
4.0697e-06
-9.65764e-06
8.76086e-06
-9.37846e-06
1.32781e-05
-9.03256e-06
1.75935e-05
-8.62969e-06
2.16928e-05
-8.19681e-06
2.55442e-05
-7.70095e-06
2.91294e-05
-7.16901e-06
3.24297e-05
-6.60064e-06
3.54291e-05
-5.99792e-06
3.81257e-05
-5.39299e-06
4.05018e-05
-4.74961e-06
4.25524e-05
-4.10223e-06
4.42788e-05
-3.45268e-06
4.567e-05
-2.78317e-06
4.67441e-05
-2.14921e-06
4.74904e-05
-1.49237e-06
4.79325e-05
-8.84804e-07
4.80758e-05
-2.87246e-07
4.794e-05
2.70427e-07
4.75341e-05
8.10926e-07
4.68841e-05
1.29866e-06
4.60055e-05
1.75638e-06
4.49122e-05
2.18473e-06
4.3636e-05
2.5512e-06
4.21949e-05
2.88312e-06
4.06056e-05
3.17501e-06
3.88995e-05
3.41076e-06
3.70957e-05
3.60617e-06
3.52111e-05
3.76876e-06
3.32725e-05
3.87505e-06
3.12974e-05
3.94897e-06
2.93024e-05
3.99033e-06
2.73046e-05
3.99296e-06
2.53227e-05
3.9626e-06
2.33708e-05
3.90484e-06
2.14545e-05
3.82988e-06
1.95957e-05
3.71877e-06
1.77927e-05
3.6033e-06
1.60603e-05
3.46418e-06
1.44034e-05
3.31316e-06
1.28281e-05
3.15007e-06
1.13396e-05
2.97696e-06
9.93251e-06
2.81346e-06
8.61582e-06
2.63313e-06
7.39219e-06
2.44729e-06
6.25179e-06
2.28028e-06
5.20218e-06
2.09914e-06
4.24004e-06
1.92428e-06
3.36694e-06
1.74627e-06
2.57024e-06
1.59304e-06
1.85518e-06
1.43021e-06
1.21739e-06
1.27566e-06
6.54902e-07
1.12488e-06
1.63814e-07
9.8268e-07
-2.68467e-07
8.64283e-07
-6.37547e-07
7.38333e-07
-9.48447e-07
6.21939e-07
-1.20606e-06
5.15363e-07
-1.41444e-06
4.16832e-07
-1.57668e-06
3.2464e-07
-1.69758e-06
2.41957e-07
-1.78199e-06
1.69008e-07
-1.83329e-06
1.02766e-07
-1.85501e-06
4.35881e-08
-1.85074e-06
-8.38579e-09
-1.8239e-06
-5.35113e-08
-1.77656e-06
-9.46153e-08
-1.71217e-06
-1.286e-07
-1.63438e-06
-1.55468e-07
-1.54493e-06
-1.78816e-07
-1.4455e-06
-1.98699e-07
-1.33893e-06
-2.13035e-07
-1.22751e-06
-2.22742e-07
-1.11173e-06
-2.31494e-07
-9.94662e-07
-2.34027e-07
-8.77027e-07
-2.35253e-07
-7.58854e-07
-2.3621e-07
-6.42966e-07
-2.31698e-07
-5.29078e-07
-2.27744e-07
-4.18921e-07
-2.2026e-07
-3.12284e-07
-2.13238e-07
-2.10489e-07
-2.0354e-07
-1.13443e-07
-1.94048e-07
-2.15274e-08
-1.83802e-07
6.50593e-08
-1.73144e-07
1.46016e-07
-1.61893e-07
2.21242e-07
-1.50433e-07
2.90724e-07
-1.3895e-07
3.54477e-07
-1.27497e-07
4.12522e-07
-1.16084e-07
4.64994e-07
-1.0494e-07
5.12047e-07
-9.41061e-08
5.53803e-07
-8.35112e-08
5.90484e-07
-7.3365e-08
6.22268e-07
-6.35726e-08
6.49417e-07
-5.43058e-08
6.72113e-07
-4.53986e-08
6.9063e-07
-3.70425e-08
7.05201e-07
-2.91503e-08
7.16076e-07
-2.17597e-08
7.23517e-07
-1.4894e-08
7.27758e-07
-8.49369e-09
7.29049e-07
-2.59422e-09
7.27625e-07
2.8364e-09
7.2372e-07
7.79926e-09
7.17554e-07
1.23195e-08
7.0934e-07
1.64158e-08
6.99281e-07
2.01052e-08
6.87574e-07
2.34027e-08
6.74406e-07
2.63238e-08
6.59958e-07
2.88838e-08
6.44403e-07
3.10999e-08
6.27902e-07
3.29892e-08
6.10611e-07
3.4571e-08
5.92674e-07
3.58641e-08
5.74225e-07
3.68883e-08
5.55388e-07
3.76629e-08
5.3628e-07
3.82075e-08
5.17005e-07
3.85405e-08
4.9766e-07
3.86805e-08
4.78333e-07
3.8645e-08
4.59104e-07
3.84511e-08
4.40043e-07
3.81147e-08
4.21213e-07
3.76515e-08
4.02672e-07
3.70759e-08
3.84468e-07
3.64018e-08
3.66644e-07
3.56419e-08
3.49237e-07
3.48087e-08
3.32278e-07
3.39131e-08
3.15792e-07
3.29658e-08
2.99802e-07
3.19765e-08
2.84322e-07
3.09541e-08
2.69367e-07
2.99067e-08
2.54944e-07
2.8842e-08
2.41059e-07
2.77666e-08
2.27714e-07
2.66867e-08
2.14909e-07
2.56077e-08
2.0264e-07
2.45348e-08
1.90903e-07
2.34721e-08
1.7969e-07
2.24237e-08
1.68992e-07
2.13928e-08
1.588e-07
2.03825e-08
1.49101e-07
1.93951e-08
1.39884e-07
1.84328e-08
1.31135e-07
1.74974e-08
1.22839e-07
1.65903e-08
1.14982e-07
1.57127e-08
1.07549e-07
1.48653e-08
1.00524e-07
1.40488e-08
9.38913e-08
1.32636e-08
8.7636e-08
1.25098e-08
8.17418e-08
1.17875e-08
7.61933e-08
1.10964e-08
7.09749e-08
1.04362e-08
6.60713e-08
9.80652e-09
6.14676e-08
9.20683e-09
5.71492e-08
8.63644e-09
5.31016e-08
8.09469e-09
4.93111e-08
7.58075e-09
4.5764e-08
7.09383e-09
4.24473e-08
6.63305e-09
3.93485e-08
6.1975e-09
3.64552e-08
5.78625e-09
3.3756e-08
5.39837e-09
3.12394e-08
5.03291e-09
2.88949e-08
4.68891e-09
2.67122e-08
4.36544e-09
2.46814e-08
4.06156e-09
2.27932e-08
3.77635e-09
2.10387e-08
3.5089e-09
1.94095e-08
3.25832e-09
1.78977e-08
3.02374e-09
1.64955e-08
2.80433e-09
1.51959e-08
2.59927e-09
1.3992e-08
2.40777e-09
1.28775e-08
2.22908e-09
1.18463e-08
2.06247e-09
1.08927e-08
1.90724e-09
1.00113e-08
1.76271e-09
9.19723e-09
1.62825e-09
8.44564e-09
1.50323e-09
7.75213e-09
1.38707e-09
7.11254e-09
1.27922e-09
6.52299e-09
1.17915e-09
5.97983e-09
1.08637e-09
5.47966e-09
1.00039e-09
5.01931e-09
9.20763e-10
4.5958e-09
8.4707e-10
4.20637e-09
7.78905e-10
3.84844e-09
7.15887e-10
3.51963e-09
6.57662e-10
3.21771e-09
6.03897e-10
2.94059e-09
5.5428e-10
2.68635e-09
5.08519e-10
2.45319e-09
4.66338e-10
2.23947e-09
4.27476e-10
2.04364e-09
3.91687e-10
1.86429e-09
3.58744e-10
1.70008e-09
3.28434e-10
1.54982e-09
3.0056e-10
1.41236e-09
2.74941e-10
1.28667e-09
2.5141e-10
1.17177e-09
2.29807e-10
1.06679e-09
2.09984e-10
9.709e-10
1.91802e-10
8.83343e-10
1.75132e-10
8.03424e-10
1.59855e-10
7.305e-10
1.45862e-10
6.63982e-10
1.3305e-10
6.03326e-10
1.21327e-10
5.48029e-10
1.10605e-10
4.97632e-10
1.00805e-10
4.51712e-10
9.18511e-11
4.09879e-10
8.36751e-11
3.71776e-10
7.62133e-11
3.37076e-10
6.94072e-11
3.05478e-10
6.32034e-11
2.76704e-10
5.75537e-11
2.505e-10
5.24143e-11
2.26629e-10
4.77469e-11
2.04872e-10
4.35184e-11
1.85028e-10
3.96922e-11
1.66921e-10
3.62163e-11
1.50406e-10
3.30339e-11
1.35348e-10
3.01179e-11
2.74498e-11
0.000201298
-3.32153e-05
0.00021065
-2.79581e-05
0.000217725
-2.11657e-05
0.000222298
-1.36764e-05
0.000224494
-6.53036e-06
0.000224178
8.63474e-07
0.000221371
8.30623e-06
0.00021616
1.55877e-05
0.000208521
2.28732e-05
0.000198874
2.89027e-05
0.000187323
3.46018e-05
0.000174021
3.98682e-05
0.000159366
4.39141e-05
0.000143593
4.72545e-05
0.000126972
4.98225e-05
0.000109668
5.18555e-05
9.18953e-05
5.32846e-05
7.39572e-05
5.37646e-05
5.59912e-05
5.38686e-05
3.81532e-05
5.34659e-05
2.06777e-05
5.23953e-05
3.62401e-06
5.11394e-05
-1.29408e-05
4.96798e-05
-2.88262e-05
4.76391e-05
-4.39973e-05
4.54947e-05
-5.8366e-05
4.30835e-05
-7.19154e-05
4.06307e-05
-8.46152e-05
3.80848e-05
-9.64194e-05
3.53889e-05
-0.00010736
3.28084e-05
-0.000117389
3.00858e-05
-0.000126494
2.73126e-05
-0.000134667
2.45037e-05
-0.000141889
2.16234e-05
-0.000148126
1.86869e-05
-0.000153372
1.57582e-05
-0.000157617
1.27342e-05
-0.00016083
9.59099e-06
-0.000162991
6.4641e-06
-0.000164102
3.39134e-06
-0.000164121
1.21056e-07
-0.000163006
-3.31822e-06
-0.000160854
-6.44886e-06
-0.000157685
-9.50147e-06
-0.000153501
-1.25426e-05
-0.000148432
-1.51914e-05
-0.00014252
-1.77256e-05
-0.000135773
-2.02237e-05
-0.000128331
-2.23112e-05
-0.000120247
-2.42394e-05
-0.000111544
-2.60965e-05
-0.000102339
-2.75981e-05
-9.26047e-05
-2.91867e-05
-8.24855e-05
-3.03448e-05
-7.20673e-05
-3.12488e-05
-6.13186e-05
-3.22302e-05
-5.02972e-05
-3.30597e-05
-3.91025e-05
-3.35656e-05
-2.77093e-05
-3.41764e-05
-1.62095e-05
-3.44941e-05
-4.55471e-06
-3.49462e-05
7.20807e-06
-3.52445e-05
1.89275e-05
-3.5152e-05
3.06395e-05
-3.51298e-05
4.22521e-05
-3.48264e-05
5.37376e-05
-3.44337e-05
6.50344e-05
-3.38619e-05
7.60529e-05
-3.30484e-05
8.67131e-05
-3.1966e-05
9.69635e-05
-3.07194e-05
0.000106631
-2.89873e-05
0.000115674
-2.71154e-05
0.000123979
-2.48897e-05
0.000131407
-2.22645e-05
0.000137873
-1.93859e-05
0.000143265
-1.61609e-05
0.000147492
-1.2654e-05
0.000150454
-8.80813e-06
0.000152027
-4.77374e-06
0.000152262
-7.13272e-07
0.000151096
3.48065e-06
0.000148488
7.81959e-06
0.000144521
1.18853e-05
0.000139216
1.591e-05
0.000132719
1.94574e-05
0.000125065
2.29312e-05
0.000116437
2.58472e-05
0.000106956
2.83753e-05
9.67187e-05
3.07256e-05
8.59276e-05
3.23409e-05
7.47362e-05
3.35862e-05
6.32815e-05
3.4283e-05
5.1714e-05
3.46392e-05
4.01168e-05
3.47973e-05
2.87301e-05
3.41363e-05
1.7591e-05
3.34121e-05
6.9005e-06
3.20815e-05
-3.31967e-06
3.06025e-05
-1.29719e-05
2.89406e-05
-2.19769e-05
2.70069e-05
-3.02839e-05
2.4911e-05
-3.78316e-05
2.26272e-05
-4.45882e-05
2.02751e-05
-5.0598e-05
1.80297e-05
-5.58002e-05
1.56056e-05
-6.02189e-05
1.3262e-05
-6.38599e-05
1.09253e-05
-6.67517e-05
8.67654e-06
-6.89045e-05
6.46919e-06
-7.03484e-05
4.33407e-06
-7.11491e-05
2.40469e-06
-7.12983e-05
4.59217e-07
-7.08324e-05
-1.38689e-06
-6.97954e-05
-3.10386e-06
-6.82153e-05
-4.72973e-06
-6.61174e-05
-6.28635e-06
-6.35611e-05
-7.66205e-06
-6.05661e-05
-8.97406e-06
-5.719e-05
-1.01133e-05
-5.3448e-05
-1.12205e-05
-4.94036e-05
-1.2127e-05
-4.50845e-05
-1.29526e-05
-4.05234e-05
-1.36669e-05
-3.57912e-05
-1.41865e-05
-3.09168e-05
-1.46385e-05
-2.59173e-05
-1.49677e-05
-2.08648e-05
-1.51486e-05
-1.57882e-05
-1.52223e-05
-1.07148e-05
-1.5214e-05
-5.69137e-06
-1.50608e-05
-7.4956e-07
-1.48156e-05
4.08046e-06
-1.44877e-05
8.7759e-06
-1.40739e-05
1.32947e-05
-1.35514e-05
1.76117e-05
-1.29466e-05
2.17134e-05
-1.22985e-05
2.55659e-05
-1.15535e-05
2.91524e-05
-1.07555e-05
3.24538e-05
-9.90206e-06
3.54547e-05
-8.99882e-06
3.81514e-05
-8.08967e-06
4.05319e-05
-7.13017e-06
4.25784e-05
-6.14874e-06
4.43056e-05
-5.17985e-06
4.56959e-05
-4.17346e-06
4.6767e-05
-3.22027e-06
4.75151e-05
-2.24055e-06
4.79562e-05
-1.32589e-06
4.80985e-05
-4.29528e-07
4.7961e-05
4.07929e-07
4.75539e-05
1.21803e-06
4.69022e-05
1.95036e-06
4.60223e-05
2.63623e-06
4.49268e-05
3.28024e-06
4.36486e-05
3.82938e-06
4.22065e-05
4.32529e-06
4.0615e-05
4.76649e-06
3.89072e-05
5.11853e-06
3.71016e-05
5.4118e-06
3.52178e-05
5.65259e-06
3.32754e-05
5.8174e-06
3.12988e-05
5.9256e-06
2.93058e-05
5.98334e-06
2.73034e-05
5.99528e-06
2.53204e-05
5.94563e-06
2.33678e-05
5.85743e-06
2.14503e-05
5.74744e-06
1.9591e-05
5.57801e-06
1.77871e-05
5.40722e-06
1.60543e-05
5.19694e-06
1.4397e-05
4.97047e-06
1.28214e-05
4.72569e-06
1.1333e-05
4.46533e-06
9.92538e-06
4.22111e-06
8.60867e-06
3.94983e-06
7.3855e-06
3.67045e-06
6.24467e-06
3.42111e-06
5.19526e-06
3.14855e-06
4.23347e-06
2.88608e-06
3.36076e-06
2.61898e-06
2.56376e-06
2.39003e-06
1.84899e-06
2.14498e-06
1.21165e-06
1.913e-06
6.49147e-07
1.68738e-06
1.58084e-07
1.47374e-06
-2.73508e-07
1.29587e-06
-6.42109e-07
1.10693e-06
-9.52624e-07
9.32452e-07
-1.20986e-06
7.72595e-07
-1.41808e-06
6.2505e-07
-1.57997e-06
4.8653e-07
-1.70059e-06
3.62572e-07
-1.78461e-06
2.53034e-07
-1.83562e-06
1.53774e-07
-1.85705e-06
6.50111e-08
-1.85249e-06
-1.29435e-08
-1.82531e-06
-8.06939e-08
-1.77792e-06
-1.42e-07
-1.71328e-06
-1.93246e-07
-1.63528e-06
-2.33467e-07
-1.54571e-06
-2.68393e-07
-1.44606e-06
-2.98348e-07
-1.33934e-06
-3.19753e-07
-1.22775e-06
-3.34335e-07
-1.11191e-06
-3.47329e-07
-9.9469e-07
-3.51248e-07
-8.77033e-07
-3.52911e-07
-7.58703e-07
-3.54541e-07
-6.42717e-07
-3.47684e-07
-5.28811e-07
-3.4165e-07
-4.18602e-07
-3.3047e-07
-3.1193e-07
-3.1991e-07
-2.10096e-07
-3.05374e-07
-1.13002e-07
-2.91143e-07
-2.10787e-08
-2.75726e-07
6.55072e-08
-2.5973e-07
1.46468e-07
-2.42853e-07
2.21696e-07
-2.25661e-07
2.91179e-07
-2.08433e-07
3.54924e-07
-1.91242e-07
4.12962e-07
-1.74122e-07
4.65426e-07
-1.57403e-07
5.12463e-07
-1.41143e-07
5.54206e-07
-1.25254e-07
5.90869e-07
-1.10028e-07
6.22637e-07
-9.53408e-08
6.49767e-07
-8.14356e-08
6.72444e-07
-6.80755e-08
6.90942e-07
-5.55411e-08
7.05493e-07
-4.37007e-08
7.16349e-07
-3.26157e-08
7.23768e-07
-2.23132e-08
7.27991e-07
-1.27168e-08
7.29264e-07
-3.8668e-09
7.27822e-07
4.27895e-09
7.23899e-07
1.17224e-08
7.17716e-07
1.8502e-08
7.09486e-07
2.46458e-08
6.99412e-07
3.01793e-08
6.8769e-07
3.51249e-08
6.74508e-07
3.95059e-08
6.60046e-07
4.33452e-08
6.44478e-07
4.66685e-08
6.27965e-07
4.95017e-08
6.10663e-07
5.18734e-08
5.92715e-07
5.38121e-08
5.74256e-07
5.53475e-08
5.5541e-07
5.65085e-08
5.36293e-07
5.73243e-08
5.17011e-07
5.78229e-08
4.97659e-07
5.80321e-08
4.78326e-07
5.79779e-08
4.59091e-07
5.76862e-08
4.40025e-07
5.71808e-08
4.21191e-07
5.64853e-08
4.02646e-07
5.56211e-08
3.84438e-07
5.46092e-08
3.66612e-07
5.34688e-08
3.49202e-07
5.22182e-08
3.32241e-07
5.08743e-08
3.15754e-07
4.94529e-08
2.99762e-07
4.79683e-08
2.84282e-07
4.64343e-08
2.69325e-07
4.48628e-08
2.54902e-07
4.32653e-08
2.41017e-07
4.16517e-08
2.27672e-07
4.00315e-08
2.14867e-07
3.84128e-08
2.02598e-07
3.68031e-08
1.90862e-07
3.52089e-08
1.79649e-07
3.3636e-08
1.68953e-07
3.20895e-08
1.58761e-07
3.05738e-08
1.49064e-07
2.90925e-08
1.39848e-07
2.7649e-08
1.31099e-07
2.62457e-08
1.22804e-07
2.4885e-08
1.14949e-07
2.35684e-08
1.07517e-07
2.22973e-08
1.00493e-07
2.10725e-08
9.38617e-08
1.98947e-08
8.76076e-08
1.87639e-08
8.17147e-08
1.76804e-08
7.61674e-08
1.66437e-08
7.09501e-08
1.56534e-08
6.60477e-08
1.47089e-08
6.14452e-08
1.38093e-08
5.71279e-08
1.29538e-08
5.30814e-08
1.21411e-08
4.92919e-08
1.13702e-08
4.57459e-08
1.06399e-08
4.24302e-08
9.9487e-09
3.93323e-08
9.29539e-09
3.644e-08
8.67854e-09
3.37416e-08
8.09675e-09
3.12259e-08
7.54857e-09
2.88822e-08
7.03261e-09
2.67002e-08
6.54742e-09
2.46701e-08
6.09163e-09
2.27826e-08
5.66383e-09
2.10288e-08
5.26269e-09
1.94003e-08
4.88684e-09
1.7889e-08
4.53501e-09
1.64874e-08
4.20591e-09
1.51883e-08
3.89835e-09
1.3985e-08
3.61112e-09
1.28709e-08
3.34312e-09
1.18401e-08
3.09323e-09
1.0887e-08
2.86041e-09
1.0006e-08
2.64364e-09
9.19231e-09
2.44197e-09
8.44107e-09
2.25447e-09
7.74788e-09
2.08025e-09
7.1086e-09
1.9185e-09
6.51934e-09
1.76842e-09
5.97645e-09
1.62925e-09
5.47653e-09
1.5003e-09
5.01641e-09
1.38088e-09
4.59311e-09
1.27036e-09
4.20388e-09
1.16813e-09
3.84615e-09
1.07362e-09
3.51752e-09
9.86293e-10
3.21575e-09
9.05659e-10
2.93878e-09
8.31246e-10
2.68468e-09
7.62617e-10
2.45166e-09
6.99357e-10
2.23806e-09
6.41074e-10
2.04235e-09
5.87401e-10
1.86309e-09
5.37996e-10
1.69899e-09
4.92539e-10
1.54881e-09
4.50736e-10
1.41143e-09
4.12316e-10
1.28582e-09
3.77026e-10
1.17099e-09
3.44628e-10
1.06608e-09
3.149e-10
9.70244e-10
2.87633e-10
8.82742e-10
2.62634e-10
8.02873e-10
2.39723e-10
7.29996e-10
2.18738e-10
6.63521e-10
1.99524e-10
6.02903e-10
1.81943e-10
5.47643e-10
1.65865e-10
4.9728e-10
1.51168e-10
4.5139e-10
1.3774e-10
4.09585e-10
1.25479e-10
3.71508e-10
1.14289e-10
3.36832e-10
1.04083e-10
3.05255e-10
9.47796e-11
2.76502e-10
8.63071e-11
2.50315e-10
7.86001e-11
2.26461e-10
7.16008e-11
2.04719e-10
6.52599e-11
1.84889e-10
5.95221e-11
1.66795e-10
5.43099e-11
1.50291e-10
4.95375e-11
1.35244e-10
4.51647e-11
4.11638e-11
0.000201564
-4.43495e-05
0.000210983
-3.73772e-05
0.000218123
-2.83054e-05
0.000222743
-1.82965e-05
0.000224954
-8.74102e-06
0.000224552
1.26511e-06
0.000221665
1.11937e-05
0.000216425
2.08272e-05
0.000208761
3.05373e-05
0.000199092
3.85715e-05
0.000187511
4.61831e-05
0.000174188
5.3191e-05
0.000159504
5.8598e-05
0.000143692
6.30662e-05
0.000127049
6.6466e-05
0.000109714
6.91901e-05
9.19215e-05
7.10771e-05
7.39551e-05
7.1731e-05
5.59732e-05
7.18504e-05
3.81076e-05
7.13315e-05
2.0615e-05
6.98879e-05
3.54837e-06
6.82061e-05
-1.30303e-05
6.62584e-05
-2.89275e-05
6.35363e-05
-4.41099e-05
6.06771e-05
-5.84889e-05
5.74625e-05
-7.20461e-05
5.41879e-05
-8.47534e-05
5.0792e-05
-9.6563e-05
4.71986e-05
-0.000107512
4.37575e-05
-0.000117553
4.01271e-05
-0.000126668
3.64277e-05
-0.000134849
3.26842e-05
-0.000142074
2.88486e-05
-0.000148317
2.49297e-05
-0.000153578
2.10197e-05
-0.000157832
1.69882e-05
-0.000161046
1.28047e-05
-0.000163202
8.6204e-06
-0.000164288
4.47662e-06
-0.000164267
1.00538e-07
-0.000163132
-4.45348e-06
-0.000160974
-8.60661e-06
-0.0001578
-1.26753e-05
-0.000153611
-1.67322e-05
-0.000148535
-2.02673e-05
-0.000142616
-2.36447e-05
-0.00013586
-2.6979e-05
-0.00012841
-2.97612e-05
-0.000120319
-3.23309e-05
-0.000111609
-3.48063e-05
-0.000102396
-3.68111e-05
-9.26549e-05
-3.89279e-05
-8.2529e-05
-4.04707e-05
-7.21028e-05
-4.16752e-05
-6.13523e-05
-4.29808e-05
-5.03258e-05
-4.40863e-05
-3.9126e-05
-4.47655e-05
-2.77262e-05
-4.55763e-05
-1.62232e-05
-4.59972e-05
-4.56169e-06
-4.66079e-05
7.20345e-06
-4.70097e-05
1.89271e-05
-4.68757e-05
3.06357e-05
-4.68386e-05
4.22725e-05
-4.64633e-05
5.37636e-05
-4.5925e-05
6.50691e-05
-4.51676e-05
7.60974e-05
-4.40768e-05
8.6772e-05
-4.26408e-05
9.70344e-05
-4.0982e-05
0.000106715
-3.86679e-05
0.00011577
-3.61702e-05
0.000124084
-3.32048e-05
0.000131526
-2.97066e-05
0.000138005
-2.58648e-05
0.000143408
-2.15636e-05
0.000147645
-1.6891e-05
0.000150623
-1.17871e-05
0.000152197
-6.34755e-06
0.000152429
-9.45675e-07
0.000151254
4.65571e-06
0.000148645
1.04284e-05
0.000144676
1.58547e-05
0.000139371
2.12148e-05
0.000132849
2.59791e-05
0.000125176
3.06039e-05
0.000116532
3.4491e-05
0.000107027
3.788e-05
9.67784e-05
4.09746e-05
8.59748e-05
4.31445e-05
7.48098e-05
4.47512e-05
6.32898e-05
4.5803e-05
5.16893e-05
4.62397e-05
4.00903e-05
4.63963e-05
2.86912e-05
4.55354e-05
1.7555e-05
4.45483e-05
6.87191e-06
4.27645e-05
-3.38952e-06
4.08639e-05
-1.30497e-05
3.86007e-05
-2.20628e-05
3.60201e-05
-3.03733e-05
3.32215e-05
-3.79276e-05
3.01815e-05
-4.46819e-05
2.70294e-05
-5.06918e-05
2.40396e-05
-5.58934e-05
2.08072e-05
-6.03124e-05
1.7681e-05
-6.39499e-05
1.45627e-05
-6.68395e-05
1.15662e-05
-6.89908e-05
8.62052e-06
-7.04322e-05
5.77539e-06
-7.12287e-05
3.20118e-06
-7.13725e-05
6.03006e-07
-7.09005e-05
-1.85885e-06
-6.98587e-05
-4.14568e-06
-6.82744e-05
-6.31407e-06
-6.61728e-05
-8.3879e-06
-6.3612e-05
-1.02229e-05
-6.06118e-05
-1.19743e-05
-5.72288e-05
-1.34962e-05
-5.34825e-05
-1.49668e-05
-4.94344e-05
-1.61752e-05
-4.51131e-05
-1.72739e-05