/*--------------------------------*- C++ -*----------------------------------*\
| =========                 |                                                 |
| \\      /  F ield         | OpenFOAM: The Open Source CFD Toolbox           |
|  \\    /   O peration     | Version:  3.0.1                                 |
|   \\  /    A nd           | Web:      www.OpenFOAM.org                      |
|    \\/     M anipulation  |                                                 |
\*---------------------------------------------------------------------------*/
FoamFile
{
    version     2.0;
    format      ascii;
    class       surfaceScalarField;
    location    "90.4";
    object      alphaPhi;
}
// * * * * * * * * * * * * * * * * * * * * * * * * * * * * * * * * * * * * * //

dimensions      [0 3 -1 0 0 0 0];

internalField   nonuniform List<scalar> 
42423
(
0.000434791
5.96033e-06
0.000427419
7.37144e-06
0.000418377
9.04254e-06
0.000407576
1.08008e-05
0.000395545
1.2031e-05
0.000382304
1.32408e-05
0.000368231
1.40736e-05
0.000353516
1.47149e-05
0.000338113
1.5403e-05
0.000322447
1.56663e-05
0.00030669
1.57567e-05
0.000290811
1.58787e-05
0.000275115
1.56964e-05
0.000259671
1.54443e-05
0.000244626
1.5045e-05
0.000230107
1.4519e-05
0.000216122
1.39847e-05
0.000202821
1.33016e-05
0.000190285
1.25359e-05
0.000178541
1.17438e-05
0.000167672
1.08693e-05
0.000157712
9.95977e-06
0.000148662
9.05016e-06
0.00014054
8.12194e-06
0.000133318
7.22191e-06
0.000126972
6.34589e-06
0.000121447
5.52546e-06
0.000116683
4.76412e-06
0.000112621
4.06204e-06
0.000109179
3.44189e-06
0.00010628
2.89911e-06
0.000103849
2.43063e-06
0.000101822
2.02647e-06
0.000100125
1.69735e-06
9.87061e-05
1.41896e-06
9.75235e-05
1.18263e-06
9.65379e-05
9.85602e-07
9.57323e-05
8.05585e-07
9.5103e-05
6.29329e-07
9.46356e-05
4.67377e-07
9.43581e-05
2.77498e-07
9.42979e-05
6.01535e-08
9.45318e-05
-2.33911e-07
9.51e-05
-5.68162e-07
9.60645e-05
-9.64475e-07
9.74602e-05
-1.39577e-06
9.93178e-05
-1.85758e-06
0.000101725
-2.40755e-06
0.000104728
-3.00237e-06
0.000108302
-3.57429e-06
0.000112607
-4.30524e-06
0.000117586
-4.97913e-06
0.000123382
-5.79555e-06
0.000130019
-6.6376e-06
0.000137415
-7.3951e-06
0.000145729
-8.31442e-06
0.00015499
-9.2607e-06
0.000165056
-1.00663e-05
0.000176124
-1.10679e-05
0.000188074
-1.19499e-05
0.000200998
-1.29248e-05
0.000214849
-1.38506e-05
0.000229543
-1.46942e-05
0.000245089
-1.55457e-05
0.000261486
-1.63973e-05
0.00027853
-1.70446e-05
0.000296197
-1.7667e-05
0.000314254
-1.80572e-05
0.000332315
-1.80612e-05
0.000350081
-1.7766e-05
0.000366823
-1.67416e-05
0.000382261
-1.54383e-05
0.000395789
-1.3528e-05
0.000407256
-1.14676e-05
0.00041604
-8.78432e-06
0.000422085
-6.04453e-06
0.000425456
-3.37161e-06
0.000426843
-1.38644e-06
0.000426372
4.7079e-07
0.000423932
2.43938e-06
0.000420448
3.48428e-06
0.000416203
4.24526e-06
0.00041144
4.7625e-06
0.000406205
5.23501e-06
0.000400271
5.93361e-06
0.000393333
6.93869e-06
0.000385077
8.25556e-06
0.000375254
9.82283e-06
0.000363882
1.13721e-05
0.000351083
1.27988e-05
0.000336967
1.4116e-05
0.000321786
1.51809e-05
0.000305817
1.59698e-05
0.000289301
1.65158e-05
0.000272504
1.67967e-05
0.000255644
1.686e-05
0.000238841
1.68035e-05
0.000222352
1.64886e-05
0.000206273
1.60796e-05
0.000190697
1.55753e-05
0.000175727
1.49709e-05
0.00016143
1.4297e-05
0.000147856
1.35737e-05
0.000135037
1.28189e-05
0.000122926
1.21108e-05
0.000111536
1.13898e-05
0.00010087
1.06668e-05
9.08699e-05
9.99989e-06
8.15942e-05
9.27566e-06
7.3023e-05
8.57124e-06
6.51147e-05
7.90832e-06
5.79296e-05
7.18502e-06
5.14482e-05
6.48141e-06
4.56477e-05
5.80053e-06
4.05568e-05
5.0909e-06
3.61779e-05
4.37895e-06
3.25001e-05
3.67781e-06
2.95127e-05
2.98736e-06
2.72336e-05
2.27913e-06
2.5665e-05
1.56856e-06
2.48137e-05
8.51349e-07
2.46476e-05
1.66115e-07
2.5156e-05
-5.08389e-07
2.63393e-05
-1.1833e-06
2.81698e-05
-1.83047e-06
3.06017e-05
-2.43197e-06
3.36116e-05
-3.00983e-06
3.72025e-05
-3.59098e-06
4.13022e-05
-4.09962e-06
4.59005e-05
-4.59838e-06
5.0994e-05
-5.0935e-06
5.65131e-05
-5.51908e-06
6.24844e-05
-5.97132e-06
6.89269e-05
-6.44247e-06
7.57469e-05
-6.82003e-06
8.29846e-05
-7.23769e-06
9.06954e-05
-7.71072e-06
9.87849e-05
-8.08954e-06
0.000107321
-8.5358e-06
0.000116365
-9.04415e-06
0.000125852
-9.48748e-06
0.000135856
-1.00035e-05
0.000146441
-1.05849e-05
0.000157568
-1.11277e-05
0.000169276
-1.17077e-05
0.000181539
-1.22626e-05
0.000194281
-1.27422e-05
0.000207533
-1.32517e-05
0.000221207
-1.36739e-05
0.000235197
-1.399e-05
0.000249375
-1.41784e-05
0.000263695
-1.43204e-05
0.000278066
-1.43703e-05
0.000292341
-1.42751e-05
0.000306409
-1.40685e-05
0.000320101
-1.36919e-05
0.000333279
-1.3178e-05
0.000345777
-1.24969e-05
0.000357415
-1.1638e-05
0.000368037
-1.06225e-05
0.000377459
-9.42162e-06
0.000385479
-8.02019e-06
0.000391954
-6.47464e-06
0.000396685
-4.73028e-06
0.000399577
-2.8924e-06
0.000400487
-9.09469e-07
0.000399405
1.08268e-06
0.00039618
3.22519e-06
0.00039086
5.31986e-06
0.000383546
7.31506e-06
0.000374286
9.2597e-06
0.000363224
1.10625e-05
0.000350499
1.27255e-05
0.000336354
1.4145e-05
0.000320964
1.53904e-05
0.000304624
1.63407e-05
0.000287573
1.70513e-05
0.000270144
1.74291e-05
0.000252617
1.75267e-05
0.000235208
1.74093e-05
0.000218213
1.69953e-05
0.00020185
1.63629e-05
0.000186271
1.55796e-05
0.000171674
1.45967e-05
0.000158103
1.35713e-05
0.00014563
1.24735e-05
0.000134287
1.13431e-05
0.000124092
1.01951e-05
0.000115018
9.0737e-06
0.000106992
8.02587e-06
0.000100002
6.99015e-06
9.39815e-05
6.02088e-06
8.88565e-05
5.12501e-06
8.46083e-05
4.24824e-06
8.112e-05
3.48838e-06
7.83953e-05
2.72476e-06
7.63607e-05
2.0346e-06
7.49668e-05
1.3939e-06
7.41538e-05
8.12987e-07
7.382e-05
3.33891e-07
7.38866e-05
-6.65521e-08
7.42648e-05
-3.78211e-07
7.48857e-05
-6.20866e-07
7.56679e-05
-7.82247e-07
7.65649e-05
-8.96915e-07
7.75428e-05
-9.77896e-07
7.85804e-05
-1.03764e-06
7.96776e-05
-1.09715e-06
8.07824e-05
-1.10479e-06
8.19425e-05
-1.16006e-06
8.31457e-05
-1.20321e-06
8.42907e-05
-1.14497e-06
8.56448e-05
-1.35411e-06
8.71353e-05
-1.49046e-06
8.87223e-05
-1.58696e-06
9.06495e-05
-1.92719e-06
9.28102e-05
-2.16069e-06
9.52543e-05
-2.44406e-06
9.8028e-05
-2.77372e-06
0.000101124
-3.09587e-06
0.000104579
-3.45555e-06
0.000108443
-3.86342e-06
0.000112738
-4.29496e-06
0.000117479
-4.74103e-06
0.000122805
-5.32572e-06
0.000128748
-5.94313e-06
0.000135365
-6.61692e-06
0.000142743
-7.37862e-06
0.000150888
-8.14513e-06
0.000159956
-9.06784e-06
0.000170033
-1.00775e-05
0.000181054
-1.10205e-05
0.000193067
-1.20132e-05
0.000205973
-1.2906e-05
0.000219818
-1.38456e-05
0.000234507
-1.46883e-05
0.000249918
-1.54117e-05
0.000265995
-1.60765e-05
0.000282498
-1.65032e-05
0.000299399
-1.69017e-05
0.000316419
-1.70198e-05
0.000333373
-1.69541e-05
0.000350089
-1.67165e-05
0.000366241
-1.61522e-05
0.000381705
-1.54639e-05
0.000396123
-1.4418e-05
0.000409178
-1.30553e-05
0.000420722
-1.15447e-05
0.000430261
-9.5394e-06
0.000437604
-7.34286e-06
0.000442518
-4.91421e-06
0.000444774
-2.25604e-06
0.000444403
3.70435e-07
0.000441218
3.18509e-06
0.000435293
5.92491e-06
0.000426916
8.37706e-06
0.000416286
1.06293e-05
0.000403802
1.24842e-05
0.000389709
1.40925e-05
0.000374305
1.5404e-05
0.00035799
1.63151e-05
0.000341044
1.69453e-05
0.000323648
1.73962e-05
0.000306062
1.75858e-05
0.000288534
1.75276e-05
0.000271141
1.73932e-05
0.000254098
1.70421e-05
0.000237582
1.65166e-05
0.000221596
1.59858e-05
0.000206312
1.52836e-05
0.000191695
1.46164e-05
0.000177993
1.37019e-05
0.000165178
1.28143e-05
0.000153228
1.19491e-05
0.000142259
1.09688e-05
0.000132349
9.90928e-06
0.000123417
8.93215e-06
0.000115563
7.85344e-06
0.000108733
6.829e-06
0.000102898
5.83496e-06
9.82673e-05
4.63036e-06
9.46242e-05
3.6427e-06
9.18742e-05
2.7496e-06
8.99853e-05
1.8886e-06
8.87315e-05
1.25349e-06
8.80001e-05
7.31162e-07
8.76389e-05
3.6102e-07
8.74196e-05
2.19077e-07
8.73564e-05
6.30257e-08
8.73388e-05
1.74566e-08
8.73098e-05
2.88593e-08
8.73073e-05
2.40314e-09
8.7319e-05
-1.17452e-08
8.73822e-05
-6.32052e-08
8.76272e-05
-2.45039e-07
8.80454e-05
-4.18207e-07
8.87132e-05
-6.67837e-07
8.96913e-05
-9.78156e-07
9.10635e-05
-1.37219e-06
9.28088e-05
-1.74537e-06
9.49853e-05
-2.17649e-06
9.76187e-05
-2.63347e-06
0.000100683
-3.06472e-06
0.00010428
-3.5966e-06
0.00010846
-4.17996e-06
0.000113185
-4.72485e-06
0.000118682
-5.49753e-06
0.000124898
-6.21589e-06
0.000132066
-7.16779e-06
0.000140234
-8.16874e-06
0.000149261
-9.02691e-06
0.000159445
-1.01837e-05
0.000170829
-1.13844e-05
0.000183111
-1.22821e-05
0.000196572
-1.34612e-05
0.000211005
-1.44332e-05
0.000226384
-1.53787e-05
0.000242753
-1.63697e-05
0.000259593
-1.68401e-05
0.000276907
-1.73141e-05
0.000294634
-1.77272e-05
0.000312301
-1.76664e-05
0.000329834
-1.75337e-05
0.000346973
-1.71385e-05
0.000363546
-1.65732e-05
0.000379334
-1.57887e-05
0.000394011
-1.46773e-05
0.00040744
-1.34291e-05
0.000419409
-1.1969e-05
0.000429729
-1.03194e-05
0.000438212
-8.48401e-06
0.000444768
-6.55563e-06
0.000449247
-4.47948e-06
0.000451624
-2.37735e-06
0.000451725
-1.00214e-07
0.000449496
2.2288e-06
0.000445108
4.38784e-06
0.000438625
6.4827e-06
0.000430386
8.23842e-06
0.000420639
9.74742e-06
0.00040923
1.14086e-05
0.000396623
1.26065e-05
0.000382964
1.36595e-05
0.000368533
1.44309e-05
0.000353615
1.49177e-05
0.000338172
1.54434e-05
0.000322564
1.5607e-05
0.000307006
1.55587e-05
0.00029148
1.5526e-05
0.000276231
1.52483e-05
0.000261329
1.49017e-05
0.000246853
1.44763e-05
0.000232913
1.394e-05
0.000219455
1.34583e-05
0.000206561
1.2894e-05
0.000194264
1.22968e-05
1.18699e-05
0.000434866
1.19224e-05
0.000427493
1.47444e-05
0.000418446
1.80896e-05
0.000407639
2.16083e-05
0.000395601
2.4069e-05
0.000382353
2.64893e-05
0.000368272
2.81545e-05
0.00035355
2.94368e-05
0.00033814
3.08132e-05
0.000322467
3.13397e-05
0.000306704
3.15197e-05
0.000290819
3.17639e-05
0.000275116
3.13993e-05
0.000259667
3.08935e-05
0.000244616
3.00956e-05
0.000230092
2.90435e-05
0.000216101
2.7975e-05
0.000202795
2.66084e-05
0.000190256
2.50749e-05
0.000178511
2.3489e-05
0.000167639
2.17409e-05
0.000157676
1.99229e-05
0.000148622
1.81039e-05
0.0001405
1.62439e-05
0.000133279
1.4443e-05
0.000126932
1.26932e-05
0.000121407
1.10505e-05
0.000116646
9.52543e-06
0.000112585
8.12219e-06
0.000109143
6.8841e-06
0.000106245
5.79698e-06
0.000103818
4.85779e-06
0.000101791
4.05389e-06
0.000100094
3.3944e-06
9.86682e-05
2.84442e-06
9.74837e-05
2.36718e-06
9.65017e-05
1.96757e-06
9.56895e-05
1.6178e-06
9.50558e-05
1.26306e-06
9.45903e-05
9.32889e-07
9.43058e-05
5.61904e-07
9.4248e-05
1.18032e-07
9.44959e-05
-4.81869e-07
9.50666e-05
-1.13886e-06
9.60301e-05
-1.92797e-06
9.74235e-05
-2.78918e-06
9.92738e-05
-3.7079e-06
0.000101683
-4.81705e-06
0.000104691
-6.01023e-06
0.000108265
-7.14795e-06
0.000112568
-8.60825e-06
0.000117546
-9.957e-06
0.000123338
-1.1588e-05
0.000129974
-1.3274e-05
0.000137371
-1.47914e-05
0.000145684
-1.66274e-05
0.000154946
-1.85229e-05
0.000165011
-2.0132e-05
0.000176081
-2.21374e-05
0.000188035
-2.39045e-05
0.000200962
-2.58516e-05
0.000214813
-2.77024e-05
0.000229511
-2.93918e-05
0.000245059
-3.10944e-05
0.000261459
-3.27967e-05
0.000278511
-3.40973e-05
0.000296185
-3.53408e-05
0.000314251
-3.61242e-05
0.000332336
-3.61462e-05
0.000350129
-3.55592e-05
0.000366908
-3.35207e-05
0.000382386
-3.0916e-05
0.000395954
-2.70962e-05
0.000407452
-2.29656e-05
0.000416265
-1.75978e-05
0.000422335
-1.21151e-05
0.000425737
-6.77324e-06
0.000427147
-2.79649e-06
0.000426685
9.32539e-07
0.000424242
4.88213e-06
0.000420767
6.95861e-06
0.000416537
8.47497e-06
0.00041179
9.51006e-06
0.000406564
1.04601e-05
0.000400638
1.18597e-05
0.000393712
1.38651e-05
0.000385466
1.65014e-05
0.000375638
1.96508e-05
0.000364259
2.27505e-05
0.000351452
2.56063e-05
0.000337325
2.82427e-05
0.000322128
3.03782e-05
0.000306137
3.19609e-05
0.000289617
3.30357e-05
0.000272822
3.35923e-05
0.000255944
3.3738e-05
0.00023912
3.36268e-05
0.000222626
3.29826e-05
0.00020654
3.21667e-05
0.000190955
3.11597e-05
0.000175978
2.99478e-05
0.000161684
2.85915e-05
0.000148113
2.71446e-05
0.000135293
2.56385e-05
0.000123185
2.42195e-05
0.000111787
2.27878e-05
0.000101108
2.13451e-05
9.11102e-05
1.99982e-05
8.18385e-05
1.85473e-05
7.32681e-05
1.71416e-05
6.53536e-05
1.58228e-05
5.81619e-05
1.43767e-05
5.16794e-05
1.2964e-05
4.58771e-05
1.16028e-05
4.07845e-05
1.01835e-05
3.64012e-05
8.76229e-06
3.2721e-05
7.35798e-06
2.97325e-05
5.97595e-06
2.74484e-05
4.56315e-06
2.58813e-05
3.13571e-06
2.50267e-05
1.70593e-06
2.48641e-05
3.2872e-07
2.5377e-05
-1.02121e-06
2.65527e-05
-2.35901e-06
2.83834e-05
-3.66117e-06
3.08178e-05
-4.86633e-06
3.38307e-05
-6.02274e-06
3.74312e-05
-7.19146e-06
4.15259e-05
-8.19426e-06
4.6119e-05
-9.19152e-06
5.12142e-05
-1.01886e-05
5.67381e-05
-1.1043e-05
6.27093e-05
-1.19425e-05
6.91525e-05
-1.28856e-05
7.59809e-05
-1.36485e-05
8.32159e-05
-1.44726e-05
9.0921e-05
-1.54158e-05
9.90094e-05
-1.6178e-05
0.000107553
-1.70795e-05
0.000116596
-1.80871e-05
0.000126086
-1.89776e-05
0.000136097
-2.00138e-05
0.000146681
-2.11696e-05
0.000157807
-2.22529e-05
0.000169508
-2.34094e-05
0.000181779
-2.45334e-05
0.000194525
-2.54877e-05
0.000207783
-2.65104e-05
0.00022145
-2.73409e-05
0.000235439
-2.79788e-05
0.000249623
-2.83626e-05
0.000263949
-2.86458e-05
0.000278326
-2.8747e-05
0.000292606
-2.85554e-05
0.00030668
-2.81422e-05
0.000320381
-2.73935e-05
0.000333565
-2.63618e-05
0.000346069
-2.50004e-05
0.000357717
-2.32865e-05
0.000368352
-2.12571e-05
0.000377785
-1.88541e-05
0.000385817
-1.60523e-05
0.000392308
-1.29649e-05
0.000397046
-9.46899e-06
0.000399935
-5.78107e-06
0.00040084
-1.81415e-06
0.00039975
2.17274e-06
0.000396527
6.44899e-06
0.000391211
1.06358e-05
0.000383904
1.46222e-05
0.000374643
1.85214e-05
0.00036356
2.21454e-05
0.000350828
2.54585e-05
0.000336673
2.83003e-05
0.000321268
3.07959e-05
0.000304918
3.26907e-05
0.000287849
3.41201e-05
0.000270411
3.48675e-05
0.000252873
3.50653e-05
0.000235434
3.48485e-05
0.000218413
3.40165e-05
0.000202027
3.27492e-05
0.000186421
3.11856e-05
0.000171804
2.92139e-05
0.000158216
2.71598e-05
0.00014572
2.49695e-05
0.000134363
2.27004e-05
0.000124149
2.0409e-05
0.000115054
1.81689e-05
0.00010701
1.60696e-05
0.000100006
1.3994e-05
9.39667e-05
1.20605e-05
8.88246e-05
1.02672e-05
8.45581e-05
8.51475e-06
8.10511e-05
6.99543e-06
7.83143e-05
5.46159e-06
7.6265e-05
4.08388e-06
7.48606e-05
2.79832e-06
7.40305e-05
1.64316e-06
7.368e-05
6.84415e-07
7.37424e-05
-1.2897e-07
7.41056e-05
-7.41334e-07
7.46993e-05
-1.21455e-06
7.54658e-05
-1.54874e-06
7.63538e-05
-1.78493e-06
7.73177e-05
-1.94174e-06
7.835e-05
-2.0699e-06
7.94383e-05
-2.18551e-06
8.05263e-05
-2.19273e-06
8.16752e-05
-2.3089e-06
8.28682e-05
-2.39624e-06
8.4019e-05
-2.29571e-06
8.53708e-05
-2.70585e-06
8.68509e-05
-2.97056e-06
8.84277e-05
-3.1638e-06
9.03514e-05
-3.85087e-06
9.2514e-05
-4.32325e-06
9.49678e-05
-4.89785e-06
9.77443e-05
-5.55017e-06
0.00010084
-6.19189e-06
0.000104296
-6.9111e-06
0.000108157
-7.7246e-06
0.000112458
-8.59537e-06
0.000117221
-9.50409e-06
0.000122555
-1.066e-05
0.000128492
-1.18806e-05
0.000135111
-1.32355e-05
0.000142505
-1.47726e-05
0.000150655
-1.62957e-05
0.000159731
-1.81437e-05
0.000169816
-2.01623e-05
0.000180844
-2.20488e-05
0.000192873
-2.40421e-05
0.000205798
-2.58314e-05
0.000219654
-2.77012e-05
0.000234348
-2.93827e-05
0.000249773
-3.08372e-05
0.000265867
-3.21707e-05
0.00028238
-3.30165e-05
0.000299296
-3.38178e-05
0.000316323
-3.40466e-05
0.000333286
-3.39179e-05
0.000350015
-3.34453e-05
0.000366187
-3.23243e-05
0.000381674
-3.09511e-05
0.000396107
-2.88512e-05
0.000409177
-2.61264e-05
0.000420724
-2.30916e-05
0.000430278
-1.9094e-05
0.000437635
-1.46997e-05
0.000442555
-9.83408e-06
0.000444818
-4.51931e-06
0.00044443
7.57461e-07
0.000441225
6.39023e-06
0.000435294
1.1855e-05
0.000426904
1.6767e-05
0.00041626
2.12733e-05
0.000403752
2.49919e-05
0.000389636
2.82081e-05
0.000374222
3.08178e-05
0.000357905
3.26325e-05
0.000340961
3.38888e-05
0.000323557
3.48003e-05
0.00030595
3.51919e-05
0.000288399
3.50784e-05
0.000271
3.47922e-05
0.000253954
3.40886e-05
0.000237437
3.30334e-05
0.000221457
3.19649e-05
0.000206162
3.05789e-05
0.000191554
2.92241e-05
0.000177859
2.73965e-05
0.000165049
2.56234e-05
0.000153115
2.38829e-05
0.000142161
2.19224e-05
0.000132258
1.98117e-05
0.000123332
1.78583e-05
0.000115479
1.57059e-05
0.000108649
1.36586e-05
0.000102813
1.16698e-05
9.81814e-05
9.2619e-06
9.45359e-05
7.28771e-06
9.17809e-05
5.50427e-06
8.98868e-05
3.78227e-06
8.8628e-05
2.51199e-06
8.78857e-05
1.47313e-06
8.75218e-05
7.24696e-07
8.73134e-05
4.27314e-07
8.72621e-05
1.14113e-07
8.72525e-05
2.69543e-08
8.72289e-05
5.22923e-08
8.72328e-05
-1.59352e-09
8.72508e-05
-2.98451e-08
8.73162e-05
-1.28607e-07
8.75634e-05
-4.92364e-07
8.7986e-05
-8.40798e-07
8.86609e-05
-1.34277e-06
8.96447e-05
-1.96199e-06
9.10204e-05
-2.74797e-06
9.27682e-05
-3.4932e-06
9.49459e-05
-4.3542e-06
9.75794e-05
-5.267e-06
0.000100642
-6.12787e-06
0.000104235
-7.18885e-06
0.000108409
-8.35461e-06
0.000113127
-9.44287e-06
0.000118612
-1.09827e-05
0.000124819
-1.24227e-05
0.00013197
-1.4319e-05
0.000140115
-1.63138e-05
0.000149142
-1.80538e-05
0.000159321
-2.0363e-05
0.000170699
-2.27626e-05
0.000182995
-2.45787e-05
0.000196459
-2.69253e-05
0.000210888
-2.88626e-05
0.000226291
-3.07815e-05
0.000242679
-3.27581e-05
0.000259526
-3.36879e-05
0.000276853
-3.46412e-05
0.000294601
-3.54753e-05
0.000312269
-3.53351e-05
0.000329815
-3.50803e-05
0.000346962
-3.42856e-05
0.000363552
-3.31634e-05
0.000379347
-3.15844e-05
0.000394037
-2.93675e-05
0.000407477
-2.68694e-05
0.000419456
-2.39484e-05
0.00042978
-2.06432e-05
0.000438271
-1.69749e-05
0.000444833
-1.31179e-05
0.000449319
-8.96657e-06
0.000451706
-4.76468e-06
0.0004518
-1.94168e-07
0.00044956
4.46862e-06
0.00044518
8.76767e-06
0.0004387
1.29626e-05
0.000430457
1.64809e-05
0.000420704
1.94999e-05
0.000409288
2.28244e-05
0.000396674
2.52207e-05
0.000383006
2.7327e-05
0.000368567
2.88697e-05
0.000353641
2.98433e-05
0.00033819
3.08951e-05
0.000322575
3.12213e-05
0.00030701
3.11231e-05
0.000291479
3.1057e-05
0.000276226
3.05011e-05
0.00026132
2.98077e-05
0.000246841
2.89557e-05
0.000232898
2.78826e-05
0.000219437
2.69191e-05
0.000206541
2.57898e-05
0.000194243
2.4595e-05
2.3742e-05
0.000435011
1.78935e-05
0.000427628
2.21278e-05
0.000418568
2.71497e-05
0.000407746
3.24309e-05
0.000395692
3.61228e-05
0.000382427
3.97544e-05
0.00036833
4.22518e-05
0.000353592
4.41742e-05
0.000338167
4.62382e-05
0.000322481
4.70264e-05
0.000306706
4.72946e-05
0.00029081
4.76599e-05
0.000275097
4.71124e-05
0.000259638
4.63525e-05
0.000244579
4.51546e-05
0.000230048
4.3575e-05
0.00021605
4.19725e-05
0.000202736
3.99222e-05
0.000190192
3.76192e-05
0.000178442
3.52391e-05
0.000167567
3.26166e-05
0.000157603
2.98868e-05
0.000148549
2.71577e-05
0.000140426
2.43665e-05
0.000133205
2.1664e-05
0.000126862
1.90363e-05
0.000121343
1.657e-05
0.000116585
1.42828e-05
0.000112527
1.21803e-05
0.00010909
1.0321e-05
0.000106198
8.68937e-06
0.000103777
7.27879e-06
0.000101752
6.07883e-06
0.000100057
5.08987e-06
9.86371e-05
4.26396e-06
9.74476e-05
3.55669e-06
9.64611e-05
2.95398e-06
9.56481e-05
2.43078e-06
9.50055e-05
1.9057e-06
9.45425e-05
1.39585e-06
9.42624e-05
8.42e-07
9.41959e-05
1.84525e-07
9.44415e-05
-7.2747e-07
9.50153e-05
-1.71259e-06
9.59733e-05
-2.88598e-06
9.73664e-05
-4.18231e-06
9.92189e-05
-5.56041e-06
0.000101626
-7.22395e-06
0.000104631
-9.01571e-06
0.000108201
-1.07175e-05
0.000112502
-1.29096e-05
0.000117479
-1.4934e-05
0.000123271
-1.738e-05
0.000129907
-1.991e-05
0.000137303
-2.21878e-05
0.000145616
-2.49407e-05
0.000154881
-2.77872e-05
0.000164949
-3.02002e-05
0.00017602
-3.32089e-05
0.000187978
-3.58621e-05
0.000200907
-3.87803e-05
0.000214762
-4.15578e-05
0.000229465
-4.40949e-05
0.000245012
-4.6642e-05
0.000261411
-4.91955e-05
0.000278464
-5.115e-05
0.00029615
-5.30274e-05
0.000314238
-5.42126e-05
0.000332363
-5.42713e-05
0.000350224
-5.34196e-05
0.000367071
-5.03681e-05
0.00038263
-4.6475e-05
0.000396291
-4.07579e-05
0.000407852
-3.45269e-05
0.000416674
-2.64193e-05
0.00042282
-1.82618e-05
0.000426347
-1.02999e-05
0.000427732
-4.18171e-06
0.000427187
1.47715e-06
0.000424716
7.35326e-06
0.00042126
1.04143e-05
0.000417055
1.26797e-05
0.000412324
1.42412e-05
0.000407109
1.56747e-05
0.000401197
1.77713e-05
0.000394296
2.07661e-05
0.000386071
2.47266e-05
0.000376246
2.9476e-05
0.000364858
3.41385e-05
0.000352034
3.84298e-05
0.000337891
4.2386e-05
0.000322681
4.55878e-05
0.000306681
4.79613e-05
0.000290143
4.95733e-05
0.000273332
5.04041e-05
0.000256444
5.06255e-05
0.000239625
5.04455e-05
0.000223098
4.95098e-05
0.000206991
4.82743e-05
0.000191401
4.67492e-05
0.00017643
4.49186e-05
0.000162138
4.28837e-05
0.000148571
4.0712e-05
0.000135753
3.84568e-05
0.000123636
3.63362e-05
0.000112242
3.41822e-05
0.000101565
3.2022e-05
9.15711e-05
2.99921e-05
8.2293e-05
2.78254e-05
7.37246e-05
2.57101e-05
6.58124e-05
2.37351e-05
5.8621e-05
2.15681e-05
5.21277e-05
1.94573e-05
4.63217e-05
1.74088e-05
4.12284e-05
1.52768e-05
3.68429e-05
1.31478e-05
3.31549e-05
1.10461e-05
3.01621e-05
8.96866e-06
2.78811e-05
6.84419e-06
2.63129e-05
4.70392e-06
2.54538e-05
2.56501e-06
2.52868e-05
4.95789e-07
2.57988e-05
-1.53321e-06
2.69829e-05
-3.5431e-06
2.88182e-05
-5.49643e-06
3.12539e-05
-7.30206e-06
3.42634e-05
-9.03222e-06
3.78581e-05
-1.07861e-05
4.19568e-05
-1.22929e-05
4.65515e-05
-1.37862e-05
5.16441e-05
-1.52812e-05
5.71683e-05
-1.65672e-05
6.31396e-05
-1.79138e-05
6.95777e-05
-1.93236e-05
7.64086e-05
-2.04794e-05
8.36492e-05
-2.17131e-05
9.13485e-05
-2.31151e-05
9.94273e-05
-2.42567e-05
0.000107975
-2.56275e-05
0.000117025
-2.71371e-05
0.000126509
-2.84616e-05
0.00013652
-3.0024e-05
0.000147092
-3.17421e-05
0.00015822
-3.33801e-05
0.000169927
-3.51167e-05
0.000182195
-3.68014e-05
0.000194935
-3.82272e-05
0.000208191
-3.97664e-05
0.000221862
-4.10122e-05
0.000235855
-4.1972e-05
0.000250045
-4.25523e-05
0.00026438
-4.29805e-05
0.000278763
-4.31302e-05
0.000293049
-4.28412e-05
0.000307127
-4.22205e-05
0.000320835
-4.11012e-05
0.000334028
-3.9554e-05
0.000346545
-3.75174e-05
0.000358203
-3.49448e-05
0.000368846
-3.19003e-05
0.000378292
-2.82999e-05
0.000386335
-2.40952e-05
0.000392835
-1.94639e-05
0.000397578
-1.42118e-05
0.000400484
-8.68675e-06
0.000401401
-2.73155e-06
0.000400282
3.2927e-06
0.000397063
9.66736e-06
0.000391758
1.59419e-05
0.000384437
2.19426e-05
0.000375169
2.77898e-05
0.000364079
3.32357e-05
0.000351334
3.8204e-05
0.00033717
4.24647e-05
0.000321748
4.62179e-05
0.000305371
4.90682e-05
0.000288276
5.1215e-05
0.00027081
5.23345e-05
0.00025323
5.26455e-05
0.000235766
5.23118e-05
0.00021872
5.10629e-05
0.000202302
4.91677e-05
0.000186662
4.68259e-05
0.000172014
4.38621e-05
0.000158387
4.07865e-05
0.000145862
3.74943e-05
0.000134479
3.40839e-05
0.000124241
3.06472e-05
0.00011512
2.72897e-05
0.000107046
2.41437e-05
0.000100012
2.10284e-05
9.39474e-05
1.81249e-05
8.87816e-05
1.5433e-05
8.449e-05
1.28064e-05
8.09583e-05
1.05272e-05
7.81935e-05
8.22639e-06
7.61193e-05
6.15808e-06
7.46883e-05
4.22933e-06
7.38291e-05
2.50242e-06
7.34465e-05
1.06698e-06
7.34794e-05
-1.61882e-07
7.38205e-05
-1.08235e-06
7.43855e-05
-1.77961e-06
7.51211e-05
-2.28426e-06
7.59814e-05
-2.64528e-06
7.69302e-05
-2.89049e-06
7.79362e-05
-3.0759e-06
7.8994e-05
-3.24326e-06
8.00737e-05
-3.27242e-06
8.12131e-05
-3.44829e-06
8.23891e-05
-3.5722e-06
8.35319e-05
-3.43843e-06
8.48659e-05
-4.03983e-06
8.63344e-05
-4.4391e-06
8.79211e-05
-4.75044e-06
8.98428e-05
-5.77248e-06
9.20035e-05
-6.48392e-06
9.4473e-05
-7.3674e-06
9.72542e-05
-8.33125e-06
0.000100356
-9.2936e-06
0.000103814
-1.03692e-05
0.000107679
-1.15895e-05
0.000111983
-1.28989e-05
0.000116759
-1.42807e-05
0.000122103
-1.60036e-05
0.000128052
-1.78301e-05
0.000134682
-1.98645e-05
0.000142076
-2.21669e-05
0.000150226
-2.44463e-05
0.000159313
-2.72304e-05
0.000169406
-3.02553e-05
0.000180447
-3.30892e-05
0.000192485
-3.60803e-05
0.000205424
-3.87702e-05
0.000219294
-4.15717e-05
0.000234001
-4.40894e-05
0.000249445
-4.62819e-05
0.000265554
-4.82794e-05
0.000282086
-4.95485e-05
0.000299027
-5.07593e-05
0.00031608
-5.10994e-05
0.00033307
-5.0908e-05
0.000349819
-5.01941e-05
0.000366026
-4.85314e-05
0.000381545
-4.64712e-05
0.000396013
-4.33188e-05
0.000409122
-3.92361e-05
0.000420689
-3.46584e-05
0.000430267
-2.8672e-05
0.000437643
-2.20763e-05
0.000442573
-1.47643e-05
0.000444858
-6.80428e-06
0.000444426
1.18908e-06
0.000441168
9.64809e-06
0.000435229
1.77934e-05
0.00042682
2.51756e-05
0.000416153
3.19395e-05
0.000403619
3.75256e-05
0.000389475
4.2352e-05
0.000374052
4.62403e-05
0.000357731
4.89532e-05
0.000340743
5.08772e-05
0.000323297
5.22461e-05
0.000305663
5.28251e-05
0.00028809
5.26518e-05
0.000270686
5.21958e-05
0.000253642
5.11323e-05
0.000237122
4.95532e-05
0.000221146
4.7941e-05
0.000205857
4.58668e-05
0.000191276
4.38047e-05
0.000177602
4.1071e-05
0.000164816
3.84087e-05
0.000152906
3.57928e-05
0.000141976
3.28513e-05
0.000132101
2.96868e-05
0.000123192
2.67661e-05
0.000115351
2.35463e-05
0.000108532
2.04778e-05
0.0001027
1.75007e-05
9.80683e-05
1.38935e-05
9.44215e-05
1.09341e-05
9.1659e-05
8.26629e-06
8.97602e-05
5.68073e-06
8.84987e-05
3.77321e-06
8.77515e-05
2.22001e-06
8.73854e-05
1.09053e-06
8.71774e-05
6.35115e-07
8.71374e-05
1.53971e-07
8.71409e-05
2.327e-08
8.71238e-05
6.92474e-08
8.71314e-05
-9.31169e-09
8.71585e-05
-5.69676e-08
8.72339e-05
-2.04068e-07
8.74823e-05
-7.4087e-07
8.79097e-05
-1.26823e-06
8.85936e-05
-2.02669e-06
8.9587e-05
-2.95543e-06
9.09704e-05
-4.13142e-06
9.27228e-05
-5.24557e-06
9.49034e-05
-6.53488e-06
9.75378e-05
-7.90142e-06
0.000100599
-9.1895e-06
0.000104187
-1.07763e-05
0.00010835
-1.25181e-05
0.000113051
-1.4144e-05
0.000118511
-1.64423e-05
0.000124685
-1.85966e-05
0.000131799
-2.14341e-05
0.000139913
-2.44272e-05
0.000148913
-2.70537e-05
0.000159061
-3.05119e-05
0.000170439
-3.41411e-05
0.000182753
-3.68924e-05
0.000196238
-4.0411e-05
0.000210697
-4.33215e-05
0.000226123
-4.62079e-05
0.000242521
-4.91565e-05
0.000259385
-5.05516e-05
0.000276733
-5.19897e-05
0.000294504
-5.32466e-05
0.000312192
-5.30229e-05
0.00032976
-5.26495e-05
0.000346926
-5.14516e-05
0.000363539
-4.97768e-05
0.000379359
-4.74046e-05
0.000394069
-4.40779e-05
0.000407526
-4.03265e-05
0.000419525
-3.59474e-05
0.000429862
-3.09801e-05
0.000438363
-2.54766e-05
0.000444936
-1.96911e-05
0.000449424
-1.34545e-05
0.000451821
-7.16225e-06
0.000451923
-2.96153e-07
0.000449671
6.72032e-06
0.000445308
1.31298e-05
0.000438832
1.9439e-05
0.000430579
2.47336e-05
0.000420813
2.92656e-05
0.000409382
3.42556e-05
0.000396751
3.78511e-05
0.000383067
4.10112e-05
0.000368611
4.3325e-05
0.00035367
4.47845e-05
0.000338204
4.63611e-05
0.000322577
4.68484e-05
0.000307
4.66992e-05
0.000291459
4.65979e-05
0.000276198
4.57619e-05
0.000261286
4.47196e-05
0.000246803
4.34393e-05
0.000232856
4.18288e-05
0.000219393
4.03819e-05
0.000206496
3.86871e-05
0.000194196
3.68943e-05
3.56146e-05
0.00043523
2.38781e-05
0.000427831
2.95269e-05
0.000418751
3.62295e-05
0.000407905
4.32764e-05
0.000395828
4.82006e-05
0.000382538
5.30443e-05
0.000368416
5.63736e-05
0.000353656
5.89347e-05
0.000338209
6.16849e-05
0.000322502
6.27332e-05
0.00030671
6.30875e-05
0.000290797
6.35723e-05
0.000275069
6.28407e-05
0.000259597
6.18249e-05
0.000244524
6.02272e-05
0.00022998
5.81191e-05
0.000215972
5.59811e-05
0.000202649
5.32455e-05
0.000190098
5.01703e-05
0.00017834
4.69964e-05
0.00016746
4.34974e-05
0.000157494
3.98526e-05
0.000148437
3.6214e-05
0.000140315
3.24893e-05
0.000133095
2.88834e-05
0.000126756
2.53755e-05
0.000121241
2.20845e-05
0.000116489
1.90354e-05
0.000112438
1.62308e-05
0.000109011
1.37488e-05
0.000106124
1.15758e-05
0.00010371
9.69334e-06
0.000101691
8.09745e-06
9.99997e-05
6.78117e-06
9.85823e-05
5.68137e-06
9.73928e-05
4.74614e-06
9.64014e-05
3.94545e-06
9.55828e-05
3.24937e-06
9.49285e-05
2.56003e-06
9.44529e-05
1.8714e-06
9.41698e-05
1.12505e-06
9.41061e-05
2.48299e-07
9.43558e-05
-9.77235e-07
9.49246e-05
-2.28137e-06
9.58818e-05
-3.84319e-06
9.72791e-05
-5.57959e-06
9.91288e-05
-7.4101e-06
0.00010153
-9.62509e-06
0.000104538
-1.20237e-05
0.000108105
-1.42847e-05
0.000112404
-1.72084e-05
0.000117378
-1.99079e-05
0.000123167
-2.31692e-05
0.000129804
-2.65467e-05
0.000137201
-2.9585e-05
0.000145515
-3.32546e-05
0.000154782
-3.70552e-05
0.000164854
-4.0272e-05
0.00017593
-4.42846e-05
0.000187892
-4.78242e-05
0.000200827
-5.17154e-05
0.000214687
-5.54185e-05
0.000229395
-5.88023e-05
0.000244942
-6.21897e-05
0.000261341
-6.5594e-05
0.000278392
-6.8202e-05
0.000296096
-7.07309e-05
0.000314224
-7.23408e-05
0.000332414
-7.24616e-05
0.00035038
-7.1386e-05
0.000367347
-6.73347e-05
0.000383062
-6.21904e-05
0.000396886
-5.45823e-05
0.000408653
-4.62938e-05
0.000417739
-3.55058e-05
0.000424101
-2.46245e-05
0.000427627
-1.38254e-05
0.000428731
-5.28622e-06
0.000427956
2.25231e-06
0.000425422
9.88732e-06
0.000421991
1.38444e-05
0.000417816
1.68549e-05
0.000413107
1.89501e-05
0.000407911
2.08705e-05
0.000402029
2.36532e-05
0.000395171
2.7624e-05
0.000386973
3.29245e-05
0.000377146
3.9303e-05
0.000365741
4.55434e-05
0.000352892
5.12794e-05
0.000338728
5.65497e-05
0.000323502
6.08139e-05
0.000307483
6.39799e-05
0.000290925
6.61313e-05
0.000274086
6.72432e-05
0.00025717
6.75416e-05
0.00024036
6.72553e-05
0.000223803
6.60672e-05
0.000207669
6.44084e-05
0.000192066
6.23518e-05
0.000177096
5.98889e-05
0.00016281
5.71699e-05
0.00014925
5.42713e-05
0.000136437
5.12697e-05
0.000124323
4.84503e-05
0.00011293
4.55758e-05
0.00010226
4.26917e-05
9.22637e-05
3.99884e-05
8.29945e-05
3.70946e-05
7.44215e-05
3.42831e-05
6.64992e-05
3.16574e-05
5.93056e-05
2.87617e-05
5.28149e-05
2.5948e-05
4.69981e-05
2.32256e-05
4.19011e-05
2.03738e-05
3.75147e-05
1.75342e-05
3.38166e-05
1.47441e-05
3.08161e-05
1.19692e-05
2.85355e-05
9.12477e-06
2.69608e-05
6.27867e-06
2.60992e-05
3.42657e-06
2.59319e-05
6.63054e-07
2.64429e-05
-2.04419e-06
2.7622e-05
-4.72213e-06
2.94523e-05
-7.32675e-06
3.18876e-05
-9.73733e-06
3.48952e-05
-1.20398e-05
3.84904e-05
-1.43813e-05
4.25924e-05
-1.63949e-05
4.71846e-05
-1.83784e-05
5.22741e-05
-2.03707e-05
5.7804e-05
-2.2097e-05
6.37739e-05