/*--------------------------------*- C++ -*----------------------------------*\
| =========                 |                                                 |
| \\      /  F ield         | OpenFOAM: The Open Source CFD Toolbox           |
|  \\    /   O peration     | Version:  3.0.1                                 |
|   \\  /    A nd           | Web:      www.OpenFOAM.org                      |
|    \\/     M anipulation  |                                                 |
\*---------------------------------------------------------------------------*/
FoamFile
{
    version     2.0;
    format      ascii;
    class       surfaceScalarField;
    location    "76.8";
    object      phi;
}
// * * * * * * * * * * * * * * * * * * * * * * * * * * * * * * * * * * * * * //

dimensions      [0 3 -1 0 0 0 0];

internalField   nonuniform List<scalar> 
42423
(
0.000294433
-1.63165e-05
0.000310291
-1.58584e-05
0.000325434
-1.51433e-05
0.000339567
-1.41327e-05
0.000352615
-1.30484e-05
0.000364293
-1.16783e-05
0.000374468
-1.01744e-05
0.000382973
-8.50499e-06
0.00038955
-6.577e-06
0.000394076
-4.52627e-06
0.000396501
-2.42547e-06
0.000396644
-1.42455e-07
0.000394537
2.10691e-06
0.000389931
4.60596e-06
0.000383119
6.81189e-06
0.000374238
8.88038e-06
0.000363139
1.10995e-05
0.000350257
1.28813e-05
0.000335832
1.44255e-05
0.000319794
1.60377e-05
0.000302631
1.71636e-05
0.000284669
1.79616e-05
0.000265952
1.87172e-05
0.000246894
1.90573e-05
0.000227751
1.91432e-05
0.000208773
1.89779e-05
0.000190218
1.85554e-05
0.000172174
1.80443e-05
0.00015485
1.73234e-05
0.000138401
1.64492e-05
0.000122866
1.55346e-05
0.000108344
1.4522e-05
9.48532e-05
1.34911e-05
8.24292e-05
1.2424e-05
7.10562e-05
1.1373e-05
6.06988e-05
1.03573e-05
5.13479e-05
9.35096e-06
4.29361e-05
8.41173e-06
3.54495e-05
7.48665e-06
2.88435e-05
6.60599e-06
2.30714e-05
5.77204e-06
1.80548e-05
5.01663e-06
1.37816e-05
4.27324e-06
1.0218e-05
3.56359e-06
7.32276e-06
2.89521e-06
5.01839e-06
2.30437e-06
3.33748e-06
1.6809e-06
2.17917e-06
1.15832e-06
1.52862e-06
6.50545e-07
1.40167e-06
1.26956e-07
1.80653e-06
-4.04865e-07
2.72954e-06
-9.2301e-07
4.12655e-06
-1.39701e-06
5.99663e-06
-1.87008e-06
8.30731e-06
-2.31067e-06
1.11275e-05
-2.82019e-06
1.44398e-05
-3.31233e-06
1.81913e-05
-3.75145e-06
2.25254e-05
-4.33413e-06
2.73555e-05
-4.83007e-06
3.27971e-05
-5.44163e-06
3.88281e-05
-6.03106e-06
4.53992e-05
-6.57104e-06
5.26093e-05
-7.21013e-06
6.04858e-05
-7.87655e-06
6.89163e-05
-8.43052e-06
7.80468e-05
-9.1305e-06
8.78001e-05
-9.75326e-06
9.81635e-05
-1.03634e-05
0.000109129
-1.09659e-05
0.000120608
-1.14785e-05
0.000132466
-1.18582e-05
0.000144621
-1.21552e-05
0.000156919
-1.22973e-05
0.000169196
-1.22777e-05
0.000181383
-1.2187e-05
0.00019327
-1.18872e-05
0.000204913
-1.16429e-05
0.000216336
-1.14228e-05
0.000227394
-1.10577e-05
0.000238259
-1.08651e-05
0.000248941
-1.06827e-05
0.000259368
-1.04268e-05
0.00026955
-1.01822e-05
0.00027934
-9.78943e-06
0.000288607
-9.26774e-06
0.000297159
-8.55135e-06
0.000304761
-7.60253e-06
0.000311171
-6.40975e-06
0.000316136
-4.9658e-06
0.000319483
-3.34614e-06
0.000321139
-1.65651e-06
0.000320989
1.50112e-07
0.00031889
2.09874e-06
0.000314655
4.23458e-06
0.000308468
6.18729e-06
0.000300369
8.09946e-06
0.000290554
9.81423e-06
0.000279243
1.1311e-05
0.000266455
1.2788e-05
0.000252528
1.39275e-05
0.000237686
1.48421e-05
0.000222131
1.55545e-05
0.000206084
1.60475e-05
0.000189769
1.6315e-05
0.00017334
1.64286e-05
0.000157015
1.63252e-05
0.000141017
1.59974e-05
0.000125296
1.5721e-05
0.000110158
1.51384e-05
9.5668e-05
1.44898e-05
8.18709e-05
1.37971e-05
6.88847e-05
1.29861e-05
5.67457e-05
1.2139e-05
4.55072e-05
1.12385e-05
3.51153e-05
1.03919e-05
2.56615e-05
9.45377e-06
1.71186e-05
8.54287e-06
9.43263e-06
7.68596e-06
2.63545e-06
6.79717e-06
-3.3243e-06
5.95974e-06
-8.51576e-06
5.19146e-06
-1.29072e-05
4.39143e-06
-1.6657e-05
3.74978e-06
-1.96687e-05
3.01171e-06
-2.2097e-05
2.42827e-06
-2.39184e-05
1.82143e-06
-2.51963e-05
1.27783e-06
-2.59483e-05
7.52004e-07
-2.62579e-05
3.09648e-07
-2.61118e-05
-1.46125e-07
-2.55657e-05
-5.46054e-07
-2.46505e-05
-9.15272e-07
-2.34573e-05
-1.19317e-06
-2.20154e-05
-1.44193e-06
-2.03629e-05
-1.65243e-06
-1.84993e-05
-1.86365e-06
-1.64594e-05
-2.03993e-06
-1.42381e-05
-2.22126e-06
-1.17385e-05
-2.49963e-06
-8.92391e-06
-2.81458e-06
-5.78811e-06
-3.1358e-06
-2.22024e-06
-3.56787e-06
1.80718e-06
-4.02742e-06
6.34244e-06
-4.53526e-06
1.14264e-05
-5.08401e-06
1.71045e-05
-5.67808e-06
2.3387e-05
-6.28245e-06
3.03194e-05
-6.93241e-06
3.78922e-05
-7.57289e-06
4.62002e-05
-8.30797e-06
5.51832e-05
-8.98301e-06
6.49419e-05
-9.75877e-06
7.54165e-05
-1.04746e-05
8.66517e-05
-1.12352e-05
9.87028e-05
-1.20511e-05
0.000111538
-1.28349e-05
0.000125176
-1.36383e-05
0.00013955
-1.43741e-05
0.0001547
-1.51501e-05
0.000170554
-1.58545e-05
0.000187058
-1.65037e-05
0.000204106
-1.7048e-05
0.000221582
-1.74763e-05
0.00023928
-1.76978e-05
0.000256983
-1.77033e-05
0.000274419
-1.74355e-05
0.00029126
-1.68414e-05
0.000307181
-1.59209e-05
0.000321858
-1.46768e-05
0.00033496
-1.31023e-05
0.000346224
-1.12639e-05
0.000355413
-9.18905e-06
0.000362339
-6.92658e-06
0.000366866
-4.52685e-06
0.000368912
-2.04598e-06
0.000368496
4.15679e-07
0.000365535
2.96119e-06
0.000360013
5.52207e-06
0.000352196
7.81657e-06
0.000342182
1.00137e-05
0.000330261
1.19217e-05
0.000316716
1.35449e-05
0.000301861
1.48549e-05
0.000285987
1.58737e-05
0.000269446
1.65414e-05
0.000252454
1.69911e-05
0.000235364
1.70905e-05
0.000218294
1.70699e-05
0.000201486
1.68077e-05
0.000185062
1.64238e-05
0.000169176
1.58859e-05
0.000153927
1.52493e-05
0.000139371
1.45562e-05
0.000125599
1.3772e-05
0.000112604
1.29951e-05
0.000100408
1.21954e-05
8.90796e-05
1.13287e-05
7.85934e-05
1.04861e-05
6.89685e-05
9.62489e-06
6.0215e-05
8.75351e-06
5.22632e-05
7.95181e-06
4.51277e-05
7.13548e-06
3.87321e-05
6.39554e-06
3.30209e-05
5.7112e-06
2.79445e-05
5.07642e-06
2.34436e-05
4.50089e-06
1.9507e-05
3.93657e-06
1.60998e-05
3.40718e-06
1.32285e-05
2.87132e-06
1.08445e-05
2.38394e-06
8.95232e-06
1.89219e-06
7.48001e-06
1.4723e-06
6.39667e-06
1.08333e-06
5.64691e-06
7.49753e-07
5.1987e-06
4.48196e-07
5.01204e-06
1.86657e-07
5.11747e-06
-1.05431e-07
5.5353e-06
-4.17838e-07
6.31297e-06
-7.77674e-07
7.49571e-06
-1.18274e-06
9.10373e-06
-1.60802e-06
1.11486e-05
-2.04487e-06
1.36815e-05
-2.53288e-06
1.67491e-05
-3.06757e-06
2.04526e-05
-3.7036e-06
2.48756e-05
-4.42292e-06
3.00582e-05
-5.18269e-06
3.60338e-05
-5.97551e-06
4.28085e-05
-6.77474e-06
5.03503e-05
-7.54179e-06
5.86755e-05
-8.32524e-06
6.77663e-05
-9.09077e-06
7.76198e-05
-9.85356e-06
8.83028e-05
-1.0683e-05
9.98521e-05
-1.15493e-05
0.000112319
-1.24669e-05
0.000125779
-1.34599e-05
0.000140182
-1.44028e-05
0.000155541
-1.5359e-05
0.000171723
-1.61824e-05
0.000188605
-1.68825e-05
0.000206058
-1.74528e-05
0.000223885
-1.78272e-05
0.000241864
-1.79791e-05
0.000259774
-1.79093e-05
0.000277349
-1.75751e-05
0.000294362
-1.70133e-05
0.000310557
-1.61955e-05
0.000325702
-1.51446e-05
0.000339595
-1.38928e-05
0.000351997
-1.24024e-05
0.000362703
-1.07062e-05
0.0003715
-8.7963e-06
0.000378153
-6.65322e-06
0.000382486
-4.33347e-06
0.000384376
-1.89023e-06
0.00038384
5.36002e-07
0.00038074
3.10042e-06
0.000375115
5.62443e-06
0.000367197
7.91774e-06
0.000357164
1.00336e-05
0.00034516
1.20033e-05
0.000331393
1.37678e-05
0.000316107
1.52856e-05
0.000299582
1.65249e-05
0.000282137
1.7445e-05
0.000264041
1.80959e-05
0.000245605
1.84359e-05
0.000227092
1.85127e-05
0.000208759
1.83334e-05
0.000190864
1.78951e-05
0.000173554
1.73093e-05
0.000156976
1.65785e-05
0.000141288
1.56881e-05
0.000126601
1.4687e-05
0.000113053
1.35472e-05
0.000100879
1.2174e-05
9.02202e-05
1.06592e-05
8.10022e-05
9.21797e-06
7.32018e-05
7.80042e-06
6.66573e-05
6.54452e-06
6.1249e-05
5.40828e-06
5.6823e-05
4.42591e-06
5.31124e-05
3.71062e-06
4.99968e-05
3.11562e-06
4.73113e-05
2.68548e-06
4.4871e-05
2.44034e-06
4.26278e-05
2.24313e-06
4.0459e-05
2.16879e-06
3.83439e-05
2.11506e-06
3.63272e-05
2.01674e-06
3.44267e-05
1.90055e-06
3.26909e-05
1.73578e-06
3.11946e-05
1.49629e-06
2.99903e-05
1.20428e-06
2.91219e-05
8.68452e-07
2.86131e-05
5.08742e-07
2.8467e-05
1.46128e-07
2.88315e-05
-3.64474e-07
2.96609e-05
-8.29473e-07
3.08934e-05
-1.2325e-06
3.24682e-05
-1.57478e-06
3.43926e-05
-1.92436e-06
3.66388e-05
-2.24621e-06
3.91714e-05
-2.53257e-06
4.20763e-05
-2.90497e-06
4.5318e-05
-3.24173e-06
4.90112e-05
-3.69314e-06
5.31866e-05
-4.1754e-06
5.77972e-05
-4.61061e-06
6.30608e-05
-5.26362e-06
6.90565e-05
-5.99567e-06
7.57137e-05
-6.65725e-06
8.32694e-05
-7.55574e-06
9.16388e-05
-8.36941e-06
0.000101009
-9.37051e-06
0.000111445
-1.04359e-05
0.000122639
-1.11936e-05
0.000134819
-1.21799e-05
0.00014797
-1.31516e-05
0.000161752
-1.37824e-05
0.000176366
-1.46133e-05
0.000191551
-1.51858e-05
0.00020734
-1.57881e-05
0.000223578
-1.62387e-05
0.000239869
-1.62912e-05
0.000256253
-1.63839e-05
0.000272589
-1.6336e-05
0.000288512
-1.59227e-05
0.00030394
-1.54288e-05
0.000318755
-1.48144e-05
0.000332646
-1.38908e-05
0.000345434
-1.27885e-05
0.000356991
-1.15574e-05
0.000367068
-1.00772e-05
0.000375577
-8.50848e-06
0.000382363
-6.78581e-06
0.000387342
-4.97969e-06
0.000390385
-3.04243e-06
0.000391431
-1.04652e-06
0.000390517
9.13934e-07
0.000387627
2.88978e-06
0.000382972
4.65529e-06
0.00037674
6.23141e-06
0.000368745
7.99494e-06
0.000359346
9.39939e-06
0.000348777
1.05687e-05
0.00033695
1.18276e-05
0.000324241
1.27091e-05
0.000310794
1.34463e-05
0.000296847
1.39473e-05
0.000282593
1.42534e-05
0.000268062
1.4531e-05
0.000253555
1.45072e-05
0.000239187
1.43682e-05
1.43297e-05
0.000294458
-3.26421e-05
0.00031033
-3.17309e-05
0.000325499
-3.03122e-05
0.000339639
-2.82726e-05
0.000352691
-2.61013e-05
0.000364401
-2.33879e-05
0.000374611
-2.03847e-05
0.000383108
-1.70024e-05
0.000389687
-1.31556e-05
0.000394247
-9.08636e-06
0.000396668
-4.84643e-06
0.000396785
-2.60316e-07
0.000394659
4.23274e-06
0.00039005
9.21492e-06
0.000383236
1.36259e-05
0.000374351
1.77653e-05
0.000363244
2.22066e-05
0.000350354
2.57716e-05
0.000335918
2.8861e-05
0.000319868
3.20877e-05
0.000302691
3.43401e-05
0.000284717
3.59358e-05
0.000265987
3.74474e-05
0.000246917
3.81271e-05
0.000227762
3.8298e-05
0.000208774
3.79662e-05
0.00019021
3.71197e-05
0.000172158
3.60963e-05
0.000154828
3.46531e-05
0.000138374
3.29031e-05
0.000122836
3.10725e-05
0.000108312
2.90464e-05
9.48192e-05
2.69836e-05
8.23947e-05
2.48485e-05
7.10219e-05
2.27458e-05
6.06632e-05
2.0716e-05
5.13152e-05
1.86989e-05
4.29044e-05
1.68225e-05
3.54196e-05
1.49714e-05
2.88131e-05
1.32125e-05
2.30439e-05
1.15412e-05
1.80266e-05
1.0034e-05
1.37563e-05
8.54354e-06
1.01931e-05
7.12673e-06
7.29611e-06
5.79223e-06
5.00563e-06
4.59484e-06
3.30556e-06
3.38097e-06
2.1586e-06
2.30527e-06
1.50587e-06
1.30328e-06
1.37533e-06
2.57491e-07
1.78792e-06
-8.17456e-07
2.70839e-06
-1.84348e-06
4.1048e-06
-2.79343e-06
5.97379e-06
-3.73907e-06
8.28305e-06
-4.61994e-06
1.11016e-05
-5.63878e-06
1.4412e-05
-6.62272e-06
1.81614e-05
-7.50088e-06
2.24934e-05
-8.66614e-06
2.73218e-05
-9.65847e-06
3.27611e-05
-1.08809e-05
3.87907e-05
-1.20607e-05
4.5361e-05
-1.31414e-05
5.25683e-05
-1.44174e-05
6.04441e-05
-1.57524e-05
6.88743e-05
-1.68608e-05
7.80093e-05
-1.82655e-05
8.77634e-05
-1.95074e-05
9.81313e-05
-2.07314e-05
0.000109106
-2.19403e-05
0.000120588
-2.29609e-05
0.000132455
-2.37256e-05
0.000144632
-2.43317e-05
0.000156952
-2.46173e-05
0.000169241
-2.45671e-05
0.000181445
-2.43909e-05
0.000193355
-2.37974e-05
0.000205017
-2.33047e-05
0.000216464
-2.28697e-05
0.000227546
-2.214e-05
0.000238436
-2.17556e-05
0.000249146
-2.13929e-05
0.000259605
-2.08851e-05
0.000269832
-2.04093e-05
0.000279672
-1.96303e-05
0.000288977
-1.85719e-05
0.000297558
-1.71328e-05
0.000305158
-1.52032e-05
0.000311557
-1.28082e-05
0.000316557
-9.96642e-06
0.000319931
-6.7196e-06
0.000321566
-3.29178e-06
0.000321386
3.30183e-07
0.000319263
4.22112e-06
0.000315008
8.4893e-06
0.000308834
1.23616e-05
0.000300726
1.62074e-05
0.000290928
1.96125e-05
0.000279544
2.2695e-05
0.000266774
2.55578e-05
0.00025285
2.78512e-05
0.000238031
2.96608e-05
0.000222408
3.11776e-05
0.000206347
3.21081e-05
0.00019002
3.26427e-05
0.000173588
3.28602e-05
0.000157259
3.26544e-05
0.000141211
3.2045e-05
0.00012553
3.14015e-05
0.000110379
3.02894e-05
9.5885e-05
2.89843e-05
8.20823e-05
2.75997e-05
6.90911e-05
2.59773e-05
5.69564e-05
2.42737e-05
4.57365e-05
2.24583e-05
3.5315e-05
2.08134e-05
2.58718e-05
1.88969e-05
1.73439e-05
1.70707e-05
9.64782e-06
1.53821e-05
2.85929e-06
1.35857e-05
-3.13075e-06
1.19498e-05
-8.3012e-06
1.03619e-05
-1.27222e-05
8.81245e-06
-1.64301e-05
7.45759e-06
-1.94074e-05
5.98904e-06
-2.18605e-05
4.88138e-06
-2.36902e-05
3.65109e-06
-2.49353e-05
2.52296e-06
-2.57293e-05
1.54595e-06
-2.60038e-05
5.84168e-07
-2.58872e-05
-2.62749e-07
-2.53308e-05
-1.10248e-06
-2.44405e-05
-1.80554e-06
-2.32403e-05
-2.39341e-06
-2.17773e-05
-2.90494e-06
-2.01304e-05
-3.29929e-06
-1.82648e-05
-3.7292e-06
-1.62526e-05
-4.05221e-06
-1.40235e-05
-4.45029e-06
-1.15561e-05
-4.96704e-06
-8.74003e-06
-5.63068e-06
-5.62092e-06
-6.2549e-06
-2.07243e-06
-7.11638e-06
1.94085e-06
-8.04071e-06
6.46267e-06
-9.05709e-06
1.15268e-05
-1.01482e-05
1.71802e-05
-1.13315e-05
2.34362e-05
-1.25385e-05
3.03525e-05
-1.38487e-05
3.79155e-05
-1.5136e-05
4.62001e-05
-1.65926e-05
5.51649e-05
-1.79479e-05
6.49004e-05
-1.94943e-05
7.53599e-05
-2.09342e-05
8.6593e-05
-2.24684e-05
9.86419e-05
-2.41001e-05
0.000111441
-2.5634e-05
0.000125072
-2.72699e-05
0.000139441
-2.87426e-05
0.000154594
-3.03037e-05
0.000170435
-3.16952e-05
0.000186928
-3.2997e-05
0.000203968
-3.40882e-05
0.000221448
-3.49569e-05
0.000239164
-3.54134e-05
0.000256887
-3.54266e-05
0.000274336
-3.4885e-05
0.000291196
-3.37014e-05
0.000307133
-3.18581e-05
0.000321806
-2.93493e-05
0.000334925
-2.62223e-05
0.000346215
-2.25534e-05
0.000355408
-1.83821e-05
0.000362349
-1.38676e-05
0.000366896
-9.07426e-06
0.000368968
-4.1178e-06
0.000368533
8.49747e-07
0.000365578
5.91627e-06
0.00036005
1.10499e-05
0.000352201
1.56659e-05
0.000342213
2.00018e-05
0.00033027
2.38639e-05
0.000316704
2.71113e-05
0.00030184
2.97184e-05
0.00028594
3.17741e-05
0.000269381
3.31003e-05
0.000252398
3.39742e-05
0.000235275
3.42132e-05
0.000218193
3.41518e-05
0.00020138
3.36209e-05
0.000184954
3.285e-05
0.000169061
3.17788e-05
0.000153802
3.05079e-05
0.000139243
2.91155e-05
0.000125457
2.75578e-05
0.000112455
2.59966e-05
0.000100264
2.43864e-05
8.89249e-05
2.26678e-05
7.84341e-05
2.09768e-05
6.88035e-05
1.92555e-05
6.00425e-05
1.75145e-05
5.20995e-05
1.58947e-05
4.49663e-05
1.42687e-05
3.8553e-05
1.28088e-05
3.28342e-05
1.143e-05
2.77607e-05
1.015e-05
2.32649e-05
8.99657e-06
1.9338e-05
7.86353e-06
1.59444e-05
6.80073e-06
1.3054e-05
5.76164e-06
1.06574e-05
4.78055e-06
8.78199e-06
3.76759e-06
7.31454e-06
2.93974e-06
6.23035e-06
2.1675e-06
5.48046e-06
1.49963e-06
5.03355e-06
8.95099e-07
4.84774e-06
3.72455e-07
4.94752e-06
-2.0522e-07
5.36437e-06
-8.34692e-07
6.15289e-06
-1.5662e-06
7.336e-06
-2.36586e-06
8.93479e-06
-3.20681e-06
1.09723e-05
-4.0824e-06
1.35042e-05
-5.06475e-06
1.65782e-05
-6.14157e-06
2.02833e-05
-7.40877e-06
2.47023e-05
-8.84184e-06
2.98869e-05
-1.03673e-05
3.58649e-05
-1.19536e-05
4.26434e-05
-1.35532e-05
5.0198e-05
-1.50964e-05
5.85292e-05
-1.66564e-05
6.76151e-05
-1.81767e-05
7.74678e-05
-1.97063e-05
8.81514e-05
-2.13666e-05
9.96978e-05
-2.30957e-05
0.000112169
-2.49382e-05
0.000125636
-2.6927e-05
0.000140043
-2.88098e-05
0.000155403
-3.07187e-05
0.000171605
-3.23846e-05
0.000188507
-3.37852e-05
0.000205969
-3.49147e-05
0.000223815
-3.56726e-05
0.000241808
-3.59724e-05
0.000259731
-3.58322e-05
0.000277326
-3.51705e-05
0.000294353
-3.40409e-05
0.000310562
-3.24045e-05
0.000325718
-3.03003e-05
0.00033962
-2.77953e-05
0.000352037
-2.48194e-05
0.000362765
-2.1434e-05
0.000371573
-1.76043e-05
0.000378234
-1.33151e-05
0.000382569
-8.66846e-06
0.000384465
-3.78559e-06
0.000383916
1.08456e-06
0.000380807
6.20957e-06
0.00037518
1.12509e-05
0.000367251
1.58467e-05
0.000357212
2.0072e-05
0.00034519
2.40253e-05
0.000331404
2.75537e-05
0.000316107
3.05829e-05
0.000299561
3.30704e-05
0.000282096
3.49103e-05
0.00026399
3.6202e-05
0.000245542
3.68837e-05
0.000227024
3.703e-05
0.000208689
3.66685e-05
0.000190781
3.58029e-05
0.000173466
3.46243e-05
0.000156894
3.31503e-05
0.000141203
3.13791e-05
0.00012651
2.93801e-05
0.000112959
2.70983e-05
0.000100782
2.43514e-05
9.01186e-05
2.13223e-05
8.08973e-05
1.84392e-05
7.30934e-05
1.56043e-05
6.65471e-05
1.30908e-05
6.11382e-05
1.08171e-05
5.67136e-05
8.85052e-06
5.30057e-05
7.41851e-06
4.98932e-05
6.22809e-06
4.72124e-05
5.36626e-06
4.4778e-05
4.87471e-06
4.25419e-05
4.47922e-06
4.03799e-05
4.33083e-06
3.82713e-05
4.22363e-06
3.6261e-05
4.02698e-06
3.43664e-05
3.79521e-06
3.26358e-05
3.46638e-06
3.11445e-05
2.98752e-06
2.9945e-05
2.40383e-06
2.90809e-05
1.73249e-06
2.85761e-05
1.01362e-06
2.84329e-05
2.89343e-07
2.88016e-05
-7.33263e-07
2.96344e-05
-1.66226e-06
3.08693e-05
-2.46734e-06
3.24454e-05
-3.15092e-06
3.43695e-05
-3.8485e-06
3.66136e-05
-4.49023e-06
3.91412e-05
-5.06026e-06
4.20327e-05
-5.79641e-06
4.52645e-05
-6.47354e-06
4.89423e-05
-7.37101e-06
5.30977e-05
-8.33082e-06
5.77097e-05
-9.22261e-06
6.29783e-05
-1.05322e-05
6.89558e-05
-1.19733e-05
7.55772e-05
-1.32787e-05
8.31203e-05
-1.50989e-05
9.15077e-05
-1.67568e-05
0.000100896
-1.87593e-05
0.000111342
-2.08818e-05
0.000122525
-2.2376e-05
0.000134701
-2.43567e-05
0.000147881
-2.63311e-05
0.000161677
-2.75788e-05
0.000176298
-2.92341e-05
0.000191484
-3.03724e-05
0.000207283
-3.15867e-05
0.000223505
-3.24611e-05
0.000239796
-3.2582e-05
0.00025621
-3.27984e-05
0.000272557
-3.26826e-05
0.000288484
-3.18503e-05
0.000303932
-3.08767e-05
0.000318762
-2.96444e-05
0.000332664
-2.77924e-05
0.000345459
-2.55844e-05
0.000357011
-2.31092e-05
0.000367088
-2.01544e-05
0.000375606
-1.70266e-05
0.000382399
-1.3579e-05
0.000387384
-9.96468e-06
0.000390433
-6.09111e-06
0.000391503
-2.1165e-06
0.000390582
1.83399e-06
0.000387697
5.77503e-06
0.000383049
9.30361e-06
0.000376815
1.2465e-05
0.000368814
1.59955e-05
0.000359408
1.88054e-05
0.000348833
2.11442e-05
0.000336997
2.36633e-05
0.000324279
2.54266e-05
0.000310824
2.69011e-05
0.000296869
2.79031e-05
0.000282607
2.85145e-05
0.000268069
2.90697e-05
0.000253554
2.90212e-05
0.00023918
2.87425e-05
2.86663e-05
0.000294509
-4.8986e-05
0.000310412
-4.76343e-05
0.000325602
-4.55023e-05
0.000339775
-4.24464e-05
0.000352876
-3.9202e-05
0.000364615
-3.51268e-05
0.000374832
-3.06023e-05
0.000383362
-2.55323e-05
0.000389976
-1.97697e-05
0.000394522
-1.36323e-05
0.000396942
-7.26704e-06
0.000397032
-3.50155e-07
0.000394843
6.4219e-06
0.000390223
1.38342e-05
0.000383403
2.04458e-05
0.000374509
2.66595e-05
0.000363388
3.33278e-05
0.000350482
3.86773e-05
0.000336029
4.33138e-05
0.000319959
4.81581e-05
0.000302761
5.15374e-05
0.000284766
5.39311e-05
0.000266015
5.61987e-05
0.000246924
5.72174e-05
0.000227751
5.74718e-05
0.000208745
5.69716e-05
0.000190166
5.5699e-05
0.000172101
5.41607e-05
0.000154762
5.19926e-05
0.000138301
4.93644e-05
0.000122758
4.66151e-05
0.00010823
4.35741e-05
9.47365e-05
4.04774e-05
8.23127e-05
3.72723e-05
7.09415e-05
3.4117e-05
6.0583e-05
3.10745e-05
5.12402e-05
2.80417e-05
4.28333e-05
2.52294e-05
3.53535e-05
2.24512e-05
2.87466e-05
1.98195e-05
2.2983e-05
1.73048e-05
1.79664e-05
1.50505e-05
1.37024e-05
1.28075e-05
1.01409e-05
1.06883e-05
7.2421e-06
8.69104e-06
4.9719e-06
6.86504e-06
3.24767e-06
5.1052e-06
2.09998e-06
3.45296e-06
1.46403e-06
1.93922e-06
1.33801e-06
3.83513e-07
1.7498e-06
-1.22925e-06
2.67147e-06
-2.76515e-06
4.06854e-06
-4.1905e-06
5.93774e-06
-5.60827e-06
8.24692e-06
-6.92913e-06
1.1065e-05
-8.4569e-06
1.43749e-05
-9.93261e-06
1.81234e-05
-1.12493e-05
2.24546e-05
-1.29973e-05
2.72821e-05
-1.4486e-05
3.27204e-05
-1.63192e-05
3.87492e-05
-1.80895e-05
4.53185e-05
-1.97107e-05
5.25254e-05
-2.16244e-05
6.04027e-05
-2.36297e-05
6.88332e-05
-2.52912e-05
7.79671e-05
-2.73995e-05
8.77264e-05
-2.92668e-05
9.81006e-05
-3.11056e-05
0.000109081
-3.29206e-05
0.000120576
-3.44562e-05
0.000132462
-3.56116e-05
0.00014466
-3.65295e-05
0.000157003
-3.69603e-05
0.000169323
-3.68871e-05
0.000181554
-3.66222e-05
0.000193491
-3.57342e-05
0.000205184
-3.49986e-05
0.000216668
-3.43537e-05
0.000227795
-3.32664e-05
0.000238737
-3.26983e-05
0.000249499
-3.21547e-05
0.000260002
-3.13885e-05
0.000270284
-3.06909e-05
0.000280179
-2.9526e-05
0.000289523
-2.79155e-05
0.000298121
-2.57313e-05
0.000305746
-2.28279e-05
0.000312175
-1.92375e-05
0.000317192
-1.49838e-05
0.000320589
-1.01163e-05
0.000322241
-4.94381e-06
0.000322035
5.36277e-07
0.000319823
6.43267e-06
0.000315611
1.27009e-05
0.00030935
1.86232e-05
0.000301283
2.42742e-05
0.000291479
2.94164e-05
0.000280052
3.41215e-05
0.000267282
3.83282e-05
0.000253361
4.17715e-05
0.000238464
4.45579e-05
0.000222887
4.67544e-05
0.000206809
4.81864e-05
0.000190449
4.90026e-05
0.000174018
4.92915e-05
0.000157676
4.89958e-05
0.000141585
4.81366e-05
0.000125933
4.7053e-05
0.00011077
4.54522e-05
9.62567e-05
4.34979e-05
8.24702e-05
4.13862e-05
6.94917e-05
3.89558e-05
5.73416e-05
3.64238e-05
4.60366e-05
3.37633e-05
3.56806e-05
3.11694e-05
2.63027e-05
2.82748e-05
1.76865e-05
2.56869e-05
1.00444e-05
2.30241e-05
3.30431e-06
2.03258e-05
-2.752e-06
1.8006e-05
-7.89982e-06
1.55097e-05
-1.23426e-05
1.32552e-05
-1.60306e-05
1.11456e-05
-1.90625e-05
9.02089e-06
-2.13997e-05
7.21863e-06
-2.32258e-05
5.47715e-06
-2.45306e-05
3.82778e-06
-2.53217e-05
2.33698e-06
-2.55907e-05
8.53234e-07
-2.54629e-05
-3.90596e-07
-2.49209e-05
-1.6445e-06
-2.40319e-05
-2.69449e-06
-2.28208e-05
-3.60456e-06
-2.13494e-05
-4.37637e-06
-1.96879e-05
-4.96069e-06
-1.78928e-05
-5.52435e-06
-1.58701e-05
-6.07491e-06
-1.3665e-05
-6.65533e-06
-1.12071e-05
-7.42498e-06
-8.40395e-06
-8.43383e-06
-5.31125e-06
-9.34761e-06
-1.78888e-06
-1.06387e-05
2.19333e-06
-1.20229e-05
6.68268e-06
-1.35464e-05
1.17197e-05
-1.51853e-05
1.73325e-05
-1.69443e-05
2.35507e-05
-1.87567e-05
3.04318e-05
-2.07297e-05
3.79653e-05
-2.26696e-05
4.62176e-05
-2.48449e-05
5.51463e-05
-2.68766e-05
6.48399e-05
-2.9188e-05
7.52602e-05
-3.13545e-05
8.64791e-05
-3.36873e-05
9.84568e-05
-3.60779e-05
0.000111255
-3.84324e-05
0.00012484
-4.08547e-05
0.000139216
-4.31192e-05
0.000154337
-4.54245e-05
0.000170152
-4.75104e-05
0.000186644
-4.94892e-05
0.000203691
-5.11351e-05
0.000221173
-5.24394e-05
0.000238892
-5.31324e-05
0.000256636
-5.31706e-05
0.000274112
-5.23607e-05
0.000291003
-5.05922e-05
0.000306977
-4.78323e-05
0.000321685
-4.4058e-05
0.00033482
-3.93571e-05
0.000346127
-3.38607e-05
0.000355333
-2.75885e-05
0.000362292
-2.08268e-05
0.000366857
-1.36388e-05
0.000368941
-6.20176e-06
0.000368491
1.29892e-06
0.000365495
8.91197e-06
0.000359999
1.65464e-05
0.000352141
2.35231e-05
0.00034216
2.99831e-05
0.000330231
3.57923e-05
0.000316643
4.06993e-05
0.000301692
4.467e-05
0.000285773
4.76931e-05
0.000269182
4.96903e-05
0.000252191
5.09651e-05
0.000235066
5.13386e-05
0.000217964
5.12539e-05
0.000201133
5.04515e-05
0.000184698
4.92853e-05
0.000168802
4.7675e-05
0.000153539
4.57705e-05
0.000138968
4.36868e-05
0.000125175
4.13507e-05
0.00011217
3.90019e-05
9.99774e-05
3.65785e-05
8.86355e-05
3.40096e-05
7.81354e-05
3.1477e-05
6.85013e-05
2.88895e-05
5.97426e-05
2.62732e-05
5.17969e-05
2.38403e-05
4.46637e-05
2.14019e-05
3.82521e-05
1.92204e-05
3.25343e-05
1.71477e-05
2.74647e-05
1.52196e-05
2.29775e-05
1.34838e-05
1.90504e-05
1.17905e-05
1.56593e-05
1.01919e-05
1.27829e-05
8.63794e-06
1.03915e-05
7.17195e-06
8.5156e-06
5.64349e-06
7.04338e-06
4.41195e-06
5.96523e-06
3.24564e-06
5.2143e-06
2.25055e-06
4.76186e-06
1.34752e-06
4.57062e-06
5.63691e-07
4.67133e-06
-3.05934e-07
5.08674e-06
-1.25011e-06
5.87047e-06
-2.34993e-06
7.0536e-06
-3.549e-06
8.65654e-06
-4.80975e-06
1.06942e-05
-6.1201e-06
1.3223e-05
-7.59352e-06
1.62928e-05
-9.21135e-06
1.99968e-05
-1.11128e-05
2.44127e-05
-1.32577e-05
2.95905e-05
-1.55451e-05
3.5568e-05
-1.79312e-05
4.23497e-05
-2.03349e-05
4.99089e-05
-2.26556e-05
5.82492e-05
-2.49968e-05
6.73398e-05
-2.72673e-05
7.71889e-05
-2.95553e-05
8.78665e-05
-3.20443e-05
9.94123e-05
-3.46415e-05
0.000111886
-3.74119e-05
0.000125357
-4.03981e-05
0.000139774
-4.32265e-05
0.000155149
-4.60942e-05
0.000171358
-4.8594e-05
0.000188289
-5.07158e-05
0.000205776
-5.2402e-05
0.00022364
-5.35368e-05
0.000241657
-5.39896e-05
0.000259598
-5.37728e-05
0.000277213
-5.27853e-05
0.000294265
-5.10936e-05
0.000310498
-4.86377e-05
0.00032568
-4.54823e-05
0.000339605
-4.17204e-05
0.000352035
-3.72495e-05
0.000362775
-3.21735e-05
0.000371597
-2.64269e-05
0.000378275
-1.99927e-05
0.000382625
-1.30192e-05
0.000384528
-5.68897e-06
0.000383939
1.67369e-06
0.000380801
9.3476e-06
0.000375187
1.6865e-05
0.000367262
2.37716e-05
0.0003572
3.01339e-05
0.000345148
3.60767e-05
0.000331339
4.13631e-05
0.000316019
4.59028e-05
0.00029946
4.96296e-05
0.000281975
5.23945e-05
0.00026386
5.43173e-05
0.000245401
5.53423e-05
0.000226873
5.55583e-05
0.000208537
5.50049e-05
0.000190634
5.37053e-05
0.000173322
5.19362e-05
0.000156752
4.97206e-05
0.000141066
4.70648e-05
0.000126376
4.407e-05
0.000112827
4.06479e-05
0.00010065
3.65283e-05
8.99798e-05
3.1992e-05
8.07515e-05
2.76675e-05
7.2945e-05
2.34108e-05
6.63959e-05
1.96398e-05
6.09853e-05
1.62277e-05
5.65618e-05
1.3274e-05
5.28552e-05
1.11251e-05
4.97463e-05
9.33702e-06
4.70719e-05
8.04055e-06
4.46443e-05
7.30237e-06
4.24179e-05
6.70553e-06
4.02662e-05
6.4826e-06
3.81655e-05
6.32434e-06
3.61641e-05
6.02831e-06
3.42781e-05
5.68122e-06
3.25546e-05
5.18986e-06
3.10705e-05
4.4716e-06
2.98776e-05
3.59679e-06
2.90188e-05
2.59124e-06
2.85196e-05
1.51282e-06
2.83813e-05
4.2767e-07
2.87593e-05
-1.11127e-06
2.95996e-05
-2.50253e-06
3.08392e-05
-3.70699e-06
3.24186e-05
-4.7303e-06
3.43444e-05
-5.77429e-06
3.65867e-05
-6.73255e-06
3.91081e-05
-7.58166e-06
4.19849e-05
-8.67324e-06
4.51898e-05
-9.67849e-06
4.88325e-05
-1.10137e-05
5.29579e-05
-1.24563e-05
5.75498e-05
-1.38145e-05
6.27903e-05
-1.57726e-05
6.87698e-05
-1.79528e-05
7.54145e-05
-1.99234e-05
8.29727e-05
-2.26571e-05
9.1355e-05
-2.51392e-05
0.000100736
-2.81399e-05
0.000111176
-3.13219e-05
0.000122362
-3.35627e-05
0.000134542
-3.65366e-05
0.000147722
-3.95116e-05
0.000161513
-4.13694e-05
0.000176139
-4.38598e-05
0.000191334
-4.5568e-05
0.000207147
-4.73997e-05
0.000223401
-4.87157e-05
0.00023971
-4.88901e-05
0.000256136
-4.92247e-05
0.000272501
-4.90485e-05
0.00028844
-4.77891e-05
0.000303908
-4.63451e-05
0.00031875
-4.44857e-05
0.000332661
-4.17039e-05
0.00034547
-3.8393e-05
0.000357043
-3.46826e-05
0.000367139
-3.02506e-05
0.000375677
-2.5565e-05
0.000382475
-2.03766e-05
0.000387471
-1.49614e-05
0.000390527
-9.14717e-06
0.000391608
-3.19739e-06
0.000390686
2.75568e-06
0.000387819
8.6421e-06
0.00038318
1.39426e-05
0.00037694
1.87054e-05
0.000368928
2.40074e-05
0.000359508
2.82246e-05
0.000348919
3.17335e-05
0.000337068
3.55139e-05
0.000324336
3.81592e-05
0.000310866
4.03708e-05
0.000296896
4.18732e-05
0.000282621
4.2789e-05
0.00026807
4.36208e-05
0.000253545
4.35461e-05
0.000239161
4.31264e-05
4.30108e-05
0.000294583
-6.53563e-05
0.000310532
-6.35834e-05
0.000325768
-6.07381e-05
0.000339992
-5.6671e-05
0.000353143
-5.23533e-05
0.000364934
-4.69178e-05
0.000375199
-4.08671e-05
0.000383765
-3.40982e-05
0.000390406
-2.64111e-05
0.000394971
-1.81972e-05
0.000397392
-9.68819e-06
0.000397407
-3.65477e-07
0.000395121
8.7074e-06
0.000390484
1.84711e-05
0.000383654
2.72762e-05
0.000374747
3.55665e-05
0.000363603
4.44714e-05
0.000350675
5.1605e-05
0.000336195
5.77938e-05
0.000320095
6.42583e-05
0.000302866
6.87661e-05
0.000284839
7.19582e-05
0.000266056
7.4982e-05
0.000246935
7.63386e-05
0.000227732
7.66742e-05
0.000208701
7.60027e-05
0.0001901
7.43005e-05
0.000172017
7.22435e-05
0.000154663
6.93468e-05
0.00013819
6.58366e-05
0.000122641
6.21648e-05
0.000108108
5.81063e-05
9.46139e-05
5.3972e-05
8.21883e-05
4.96979e-05
7.08208e-05
4.54846e-05
6.04655e-05
4.14298e-05
5.11276e-05
3.73796e-05
4.27286e-05
3.36284e-05
3.52573e-05
2.99225e-05
2.86487e-05
2.6428e-05
2.28916e-05
2.3062e-05
1.78786e-05
2.00635e-05
1.36238e-05
1.70623e-05
1.00645e-05
1.42476e-05
7.16424e-06
1.15913e-05
4.90286e-06
9.12642e-06
3.17303e-06
6.83503e-06
2.02831e-06
4.59769e-06
1.40174e-06
2.56579e-06
1.27827e-06
5.06988e-07
1.68539e-06
-1.63637e-06
2.61586e-06
-3.69562e-06
4.01407e-06
-5.58871e-06
5.88353e-06
-7.47774e-06
8.19245e-06
-9.23805e-06
1.101e-05
-1.12744e-05
1.43188e-05
-1.32414e-05
1.80659e-05
-1.49965e-05
2.23956e-05
-1.73271e-05
2.72218e-05
-1.93122e-05
3.26591e-05
-2.17565e-05
3.86861e-05
-2.41166e-05
4.52543e-05
-2.62788e-05
5.24609e-05
-2.8831e-05
6.03377e-05
-3.15065e-05
6.87687e-05
-3.37223e-05
7.79058e-05
-3.65365e-05
8.76698e-05
-3.90309e-05
9.80535e-05
-4.14893e-05
0.000109047
-4.39139e-05
0.00012056
-4.59699e-05
0.000132473
-4.75246e-05
0.000144702
-4.87588e-05
0.000157081
-4.93385e-05
0.000169443
-4.92498e-05
0.000181719
-4.88978e-05
0.000193695
-4.77105e-05
0.000205436
-4.67395e-05
0.000216976
-4.58938e-05
0.000228158
-4.44492e-05
0.000239161
-4.37012e-05
0.000249997
-4.29903e-05
0.00026057
-4.1962e-05
0.000270916
-4.10364e-05
0.000280894
-3.95044e-05
0.000290321
-3.73426e-05
0.000298997
-3.44075e-05
0.000306702
-3.05334e-05
0.000313196
-2.57314e-05
0.00031824
-2.00281e-05
0.000321629
-1.3505e-05
0.000323246
-6.5607e-06
0.000322969
8.12965e-07
0.000320712
8.68932e-06
0.000316471
1.69424e-05
0.000310248
2.48462e-05
0.000302134
3.23878e-05
0.00029226
3.92901e-05
0.000280839
4.55421e-05
0.00026806
5.11074e-05
0.0002541
5.57313e-05
0.000239168
5.94898e-05
0.000223617
6.23055e-05
0.000207464
6.43394e-05
0.000191086
6.53808e-05
0.00017464
6.57369e-05
0.000158338
6.52983e-05
0.000142186
6.42879e-05
0.000126548
6.26915e-05
0.000111349
6.06507e-05
9.6822e-05
5.80252e-05
8.30164e-05
5.51918e-05
7.00288e-05
5.19434e-05
5.7918e-05
4.85345e-05
4.65821e-05
4.50991e-05
3.62569e-05
4.14946e-05
2.68001e-05
3.77316e-05
1.82352e-05
3.42517e-05
1.06163e-05
3.0643e-05
3.79132e-06
2.71507e-05
-2.18459e-06
2.39819e-05
-7.32498e-06
2.06501e-05
-1.1761e-05
1.76912e-05
-1.53948e-05
1.47794e-05
-1.84859e-05
1.2112e-05
-2.08774e-05
9.61013e-06
-2.26916e-05