/*--------------------------------*- C++ -*----------------------------------*\
| =========                 |                                                 |
| \\      /  F ield         | OpenFOAM: The Open Source CFD Toolbox           |
|  \\    /   O peration     | Version:  3.0.1                                 |
|   \\  /    A nd           | Web:      www.OpenFOAM.org                      |
|    \\/     M anipulation  |                                                 |
\*---------------------------------------------------------------------------*/
FoamFile
{
    version     2.0;
    format      ascii;
    class       surfaceScalarField;
    location    "95.8";
    object      alphaPhi;
}
// * * * * * * * * * * * * * * * * * * * * * * * * * * * * * * * * * * * * * //

dimensions      [0 3 -1 0 0 0 0];

internalField   nonuniform List<scalar> 
42423
(
-0.00014036
3.78423e-06
-0.000143451
3.09083e-06
-0.000145928
2.4768e-06
-0.000147805
1.87647e-06
-0.000149081
1.27614e-06
-0.000149794
7.13372e-07
-0.000149895
1.01445e-07
-0.000149344
-5.51228e-07
-0.000148243
-1.10079e-06
-0.000146437
-1.80674e-06
-0.000143945
-2.49226e-06
-0.000140857
-3.08753e-06
-0.000136919
-3.93775e-06
-0.00013231
-4.60933e-06
-0.000126853
-5.45649e-06
-0.000120532
-6.32146e-06
-0.000113465
-7.06739e-06
-0.000105544
-7.92066e-06
-9.66119e-05
-8.93214e-06
-8.68639e-05
-9.74797e-06
-7.60606e-05
-1.08033e-05
-6.42556e-05
-1.1805e-05
-5.15992e-05
-1.26565e-05
-3.79178e-05
-1.36814e-05
-2.33465e-05
-1.45714e-05
-7.82229e-06
-1.55242e-05
8.56128e-06
-1.63836e-05
2.55267e-05
-1.69655e-05
4.31246e-05
-1.7598e-05
6.12465e-05
-1.81219e-05
7.95086e-05
-1.82622e-05
9.79453e-05
-1.84367e-05
0.000116219
-1.82742e-05
0.00013416
-1.79407e-05
0.000151578
-1.74178e-05
0.000168065
-1.64868e-05
0.00018343
-1.53652e-05
0.000197494
-1.40646e-05
0.000209956
-1.2462e-05
0.000220678
-1.07221e-05
0.000229421
-8.7429e-06
0.000236085
-6.66337e-06
0.000240548
-4.46363e-06
0.000242665
-2.11691e-06
0.000242455
2.10424e-07
0.000239916
2.53849e-06
0.000234982
4.93366e-06
0.00022795
7.03242e-06
0.000218972
8.9775e-06
0.000207978
1.09947e-05
0.000195305
1.26721e-05
0.000181272
1.40332e-05
0.000165906
1.53658e-05
0.000149603
1.63029e-05
0.000132513
1.70906e-05
0.00011486
1.76524e-05
9.68997e-05
1.79608e-05
7.88373e-05
1.80623e-05
6.08597e-05
1.79776e-05
4.31236e-05
1.77361e-05
2.58617e-05
1.72619e-05
9.12112e-06
1.67406e-05
-6.87954e-06
1.60007e-05
-2.21813e-05
1.53018e-05
-3.67015e-05
1.45202e-05
-5.03796e-05
1.36781e-05
-6.31303e-05
1.27507e-05
-7.4996e-05
1.18657e-05
-8.58995e-05
1.09034e-05
-9.60597e-05
1.01602e-05
-0.00010526
9.19995e-06
-0.00011359
8.33045e-06
-0.000121211
7.62107e-06
-0.000128032
6.8206e-06
-0.000134055
6.02332e-06
-0.000139376
5.32049e-06
-0.000143867
4.49122e-06
-0.00014768
3.81274e-06
-0.000150824
3.14462e-06
-0.000153136
2.31137e-06
-0.000154839
1.70279e-06
-0.000155801
9.61835e-07
-0.000155992
1.91187e-07
-0.000155426
-5.66124e-07
-0.000154059
-1.36693e-06
-0.000151885
-2.17471e-06
-0.00014888
-3.00426e-06
-0.000144989
-3.89211e-06
-0.000140227
-4.76218e-06
-0.00013456
-5.66643e-06
-0.000127949
-6.61137e-06
-0.00012034
-7.60926e-06
-0.000111816
-8.52485e-06
-0.000102384
-9.43228e-06
-9.21254e-05
-1.02584e-05
-8.10794e-05
-1.10462e-05
-6.92785e-05
-1.18011e-05
-5.67462e-05
-1.25325e-05
-4.34794e-05
-1.32669e-05
-2.94692e-05
-1.40102e-05
-1.47601e-05
-1.47092e-05
5.52758e-07
-1.5313e-05
1.65363e-05
-1.59836e-05
3.30606e-05
-1.65245e-05
5.004e-05
-1.69794e-05
6.73378e-05
-1.72978e-05
8.47636e-05
-1.74258e-05
0.000102222
-1.74582e-05
0.000119448
-1.72263e-05
0.000136268
-1.68193e-05
0.000152479
-1.62112e-05
0.000167826
-1.53473e-05
0.000182117
-1.4291e-05
0.000195136
-1.30189e-05
0.00020666
-1.15232e-05
0.000216485
-9.82561e-06
0.000224434
-7.94838e-06
0.000230328
-5.89463e-06
0.000234035
-3.70698e-06
0.000235487
-1.45167e-06
0.000234638
8.49083e-07
0.000231367
3.27101e-06
0.000225738
5.62939e-06
0.000217856
7.8815e-06
0.00020787
9.98661e-06
0.000195876
1.19937e-05
0.000182176
1.37005e-05
0.000166935
1.52404e-05
0.000150445
1.64904e-05
0.000132964
1.7481e-05
0.000114632
1.83324e-05
9.58756e-05
1.87562e-05
7.68611e-05
1.90145e-05
5.77574e-05
1.91038e-05
3.89427e-05
1.88147e-05
2.04108e-05
1.85319e-05
2.42966e-06
1.79811e-05
-1.47823e-05
1.7212e-05
-3.12213e-05
1.6439e-05
-4.66866e-05
1.54652e-05
-6.1181e-05
1.44944e-05
-7.46057e-05
1.34247e-05
-8.69477e-05
1.2342e-05
-9.81899e-05
1.12422e-05
-0.000108374
1.01838e-05
-0.000117497
9.12328e-06
-0.000125587
8.09028e-06
-0.000132672
7.08455e-06
-0.000138833
6.16137e-06
-0.000144104
5.27053e-06
-0.000148469
4.36554e-06
-0.000152174
3.70449e-06
-0.000155058
2.8843e-06
-0.000157233
2.17523e-06
-0.000158682
1.44865e-06
-0.000159591
9.08639e-07
-0.000159775
1.84494e-07
-0.000159479
-2.95841e-07
-0.000158549
-9.30162e-07
-0.000157027
-1.52203e-06
-0.00015492
-2.10739e-06
-0.000152186
-2.73358e-06
-0.000148836
-3.34994e-06
-0.000144858
-3.97772e-06
-0.000140203
-4.6553e-06
-0.000134883
-5.31997e-06
-0.000128831
-6.05187e-06
-0.00012208
-6.75164e-06
-0.000114573
-7.50616e-06
-0.000106295
-8.27799e-06
-9.72067e-05
-9.08878e-06
-8.72919e-05
-9.91484e-06
-7.6528e-05
-1.0764e-05
-6.48967e-05
-1.16313e-05
-5.24089e-05
-1.24878e-05
-3.90795e-05
-1.33294e-05
-2.4922e-05
-1.41576e-05
-1.00015e-05
-1.49206e-05
5.6258e-06
-1.56274e-05
2.1884e-05
-1.62583e-05
3.85863e-05
-1.67024e-05
5.56338e-05
-1.70476e-05
7.28408e-05
-1.72071e-05
9.00217e-05
-1.7181e-05
0.000106963
-1.69418e-05
0.000123408
-1.64446e-05
0.000139118
-1.57105e-05
0.000153847
-1.47289e-05
0.000167336
-1.34887e-05
0.000179287
-1.19519e-05
0.000189455
-1.01676e-05
0.000197607
-8.15165e-06
0.000203557
-5.9507e-06
0.000207134
-3.57674e-06
0.000208228
-1.09406e-06
0.000206826
1.40192e-06
0.000202853
3.97274e-06
0.000196382
6.4709e-06
0.000187578
8.80423e-06
0.000176529
1.10489e-05
0.000163529
1.29999e-05
0.00014887
1.46585e-05
0.000132836
1.60343e-05
0.000115658
1.71784e-05
9.78062e-05
1.78514e-05
7.94508e-05
1.83553e-05
6.09504e-05
1.85003e-05
4.25105e-05
1.84399e-05
2.4224e-05
1.82865e-05
6.3942e-06
1.78298e-05
-1.08542e-05
1.72484e-05
-2.74029e-05
1.65486e-05
-4.3045e-05
1.56421e-05
-5.77766e-05
1.47316e-05
-7.14436e-05
1.3667e-05
-8.4057e-05
1.26134e-05
-9.55887e-05
1.15317e-05
-0.000106114
1.05252e-05
-0.000115599
9.48544e-06
-0.00012416
8.56092e-06
-0.000131833
7.67265e-06
-0.000138699
6.86614e-06
-0.000144788
6.08902e-06
-0.000150149
5.36142e-06
-0.000154864
4.71471e-06
-0.000158891
4.02689e-06
-0.000162321
3.43048e-06
-0.00016515
2.82847e-06
-0.000167384
2.23466e-06
-0.000169039
1.65484e-06
-0.000170269
1.22966e-06
-0.000170905
6.36715e-07
-0.000171062
1.56513e-07
-0.000170635
-4.27258e-07
-0.000169581
-1.05316e-06
-0.000168038
-1.54299e-06
-0.000165817
-2.22118e-06
-0.000162957
-2.86005e-06
-0.000159448
-3.5085e-06
-0.000155321
-4.12712e-06
-0.00015055
-4.7711e-06
-0.000145194
-5.35617e-06
-0.000139145
-6.04876e-06
-0.000132419
-6.72534e-06
-0.00012491
-7.50968e-06
-0.000116608
-8.3012e-06
-0.000107431
-9.17735e-06
-9.7356e-05
-1.00748e-05
-8.63309e-05
-1.10251e-05
-7.45573e-05
-1.17735e-05
-6.18919e-05
-1.26654e-05
-4.84588e-05
-1.34331e-05
-3.43021e-05
-1.41567e-05
-1.94961e-05
-1.4806e-05
-4.08149e-06
-1.54147e-05
1.17319e-05
-1.58135e-05
2.79096e-05
-1.61778e-05
4.42162e-05
-1.63066e-05
6.04482e-05
-1.62322e-05
7.63618e-05
-1.59137e-05
9.17317e-05
-1.53701e-05
0.000106319
-1.45875e-05
0.00011994
-1.36213e-05
0.000132297
-1.23575e-05
0.000143186
-1.08892e-05
0.000152451
-9.26518e-06
0.000159893
-7.44187e-06
0.000165287
-5.39456e-06
0.000168583
-3.29541e-06
0.000169716
-1.13402e-06
0.000168746
9.70505e-07
0.000165467
3.27821e-06
0.00016023
5.23708e-06
0.000152941
7.28916e-06
0.000143991
8.95034e-06
0.000133441
1.05495e-05
0.000121517
1.19235e-05
0.000108646
1.28717e-05
9.48877e-05
1.37581e-05
8.07204e-05
1.41673e-05
6.61332e-05
1.45871e-05
5.13943e-05
1.47389e-05
3.64101e-05
1.49842e-05
2.14231e-05
1.49869e-05
6.23584e-06
1.51873e-05
-8.88359e-06
1.51194e-05
-2.3793e-05
1.49094e-05
-3.83437e-05
1.45507e-05
-5.25051e-05
1.41614e-05
-6.60502e-05
1.35451e-05
-7.89496e-05
1.28995e-05
-9.10211e-05
1.20715e-05
-0.00010226
1.12384e-05
-0.000112678
1.04185e-05
-0.000122206
9.52848e-06
-0.000130874
8.66766e-06
-0.000138717
7.843e-06
-0.000145695
6.9782e-06
-0.000151847
6.15195e-06
-0.000157199
5.35174e-06
-0.000161745
4.54608e-06
-0.000165528
3.78292e-06
-0.000168511
2.98279e-06
-0.000170668
2.15706e-06
-0.000171995
1.32672e-06
-0.000172509
5.1402e-07
-0.000172324
-1.84637e-07
-0.000171508
-8.15691e-07
-0.000169961
-1.54772e-06
-0.000167688
-2.273e-06
-0.000164634
-3.05406e-06
-0.000160697
-3.93674e-06
-0.000155909
-4.78807e-06
-0.000150198
-5.71075e-06
-0.000143492
-6.70648e-06
-0.000135886
-7.60596e-06
-0.000127202
-8.6834e-06
-0.000117387
-9.81573e-06
-0.000106697
-1.06899e-05
-9.49182e-05
-1.17786e-05
-8.21387e-05
-1.27796e-05
-6.84444e-05
-1.36943e-05
-5.36546e-05
-1.47899e-05
-3.79476e-05
-1.5707e-05
-2.12996e-05
-1.6648e-05
-3.83551e-06
-1.74642e-05
1.41711e-05
-1.80067e-05
3.27198e-05
-1.85487e-05
5.16279e-05
-1.89082e-05
7.05674e-05
-1.89395e-05
8.9473e-05
-1.89056e-05
0.000108136
-1.86636e-05
0.000126142
-1.80057e-05
0.000143344
-1.72019e-05
0.000159429
-1.60854e-05
0.000174195
-1.47653e-05
0.00018741
-1.32155e-05
0.000198726
-1.13164e-05
0.000208031
-9.30471e-06
0.000215137
-7.10605e-06
0.000219888
-4.75116e-06
0.000222247
-2.35909e-06
0.000222127
1.20475e-07
0.000219576
2.55041e-06
0.000214606
4.97013e-06
0.000207142
7.46431e-06
0.000197547
9.5948e-06
0.000185963
1.15834e-05
0.000172481
1.34827e-05
0.000157426
1.50545e-05
0.000140926
1.65002e-05
0.000123488
1.74381e-05
0.000105161
1.83268e-05
8.61098e-05
1.90509e-05
6.68793e-05
1.92305e-05
4.74592e-05
1.942e-05
1.92614e-05
-0.000140391
7.57306e-06
-0.000143483
6.18248e-06
-0.000145962
4.95559e-06
-0.000147841
3.75578e-06
-0.00014912
2.5547e-06
-0.00014983
1.424e-06
-0.000149932
2.03299e-07
-0.000149383
-1.10079e-06
-0.000148284
-2.1997e-06
-0.00014648
-3.61106e-06
-0.000143994
-4.97779e-06
-0.000140899
-6.18276e-06
-0.000136964
-7.87252e-06
-0.000132357
-9.21611e-06
-0.000126897
-1.09173e-05
-0.000120579
-1.26388e-05
-0.000113521
-1.41258e-05
-0.000105597
-1.58447e-05
-9.66617e-05
-1.78674e-05
-8.69135e-05
-1.94962e-05
-7.61096e-05
-2.16073e-05
-6.43061e-05
-2.36086e-05
-5.16483e-05
-2.53144e-05
-3.79611e-05
-2.73686e-05
-2.33827e-05
-2.91499e-05
-7.85704e-06
-3.105e-05
8.53381e-06
-3.27745e-05
2.55012e-05
-3.3933e-05
4.31055e-05
-3.52023e-05
6.12391e-05
-3.62556e-05
7.95113e-05
-3.65344e-05
9.7954e-05
-3.68796e-05
0.000116241
-3.65609e-05
0.000134194
-3.58939e-05
0.000151624
-3.4848e-05
0.000168118
-3.29806e-05
0.000183498
-3.07452e-05
0.000197576
-2.81428e-05
0.000210039
-2.49251e-05
0.000220774
-2.14573e-05
0.000229527
-1.74963e-05
0.000236193
-1.33299e-05
0.000240661
-8.93147e-06
0.000242782
-4.23733e-06
0.000242567
4.25072e-07
0.000240025
5.08042e-06
0.000235091
9.86764e-06
0.000228055
1.40684e-05
0.000219074
1.79579e-05
0.000208071
2.19983e-05
0.000195388
2.53551e-05
0.000181343
2.80775e-05
0.000165972
3.07371e-05
0.000149658
3.26165e-05
0.000132559
3.41895e-05
0.000114896
3.53157e-05
9.6925e-05
3.59318e-05
7.88533e-05
3.6134e-05
6.08618e-05
3.5969e-05
4.31185e-05
3.54794e-05
2.58496e-05
3.45307e-05
9.10099e-06
3.34892e-05
-6.91111e-06
3.20127e-05
-2.2222e-05
3.06126e-05
-3.67509e-05
2.90491e-05
-5.04363e-05
2.73635e-05
-6.31906e-05
2.5505e-05
-7.5063e-05
2.37381e-05
-8.59815e-05
2.18219e-05
-9.61267e-05
2.03054e-05
-0.000105328
1.84012e-05
-0.000113651
1.66534e-05
-0.000121272
1.52426e-05
-0.000128099
1.36469e-05
-0.000134117
1.20415e-05
-0.000139439
1.06425e-05
-0.000143923
8.97477e-06
-0.000147736
7.62625e-06
-0.000150885
6.29343e-06
-0.000153201
4.62721e-06
-0.000154905
3.40637e-06
-0.000155874
1.93133e-06
-0.000156059
3.76118e-07
-0.000155485
-1.14049e-06
-0.000154116
-2.73558e-06
-0.000151937
-4.35458e-06
-0.000148928
-6.01338e-06
-0.000145036
-7.78432e-06
-0.000140268
-9.53028e-06
-0.000134593
-1.13419e-05
-0.000127979
-1.32258e-05
-0.000120365
-1.52231e-05
-0.000111835
-1.70555e-05
-0.000102398
-1.88693e-05
-9.21225e-05
-2.0534e-05
-8.10631e-05
-2.21058e-05
-6.92524e-05
-2.36121e-05
-5.67092e-05
-2.50758e-05
-4.34353e-05
-2.65411e-05
-2.94088e-05
-2.80368e-05
-1.47011e-05
-2.94171e-05
6.19554e-07
-3.06337e-05
1.66283e-05
-3.19925e-05
3.31518e-05
-3.3048e-05
5.0141e-05
-3.39687e-05
6.74488e-05
-3.46056e-05
8.48855e-05
-3.48625e-05
0.000102363
-3.49353e-05
0.000119587
-3.4451e-05
0.000136418
-3.36498e-05
0.00015263
-3.24239e-05
0.000167985
-3.07021e-05
0.000182286
-2.85913e-05
0.000195309
-2.60418e-05
0.000206835
-2.30497e-05
0.000216666
-1.9656e-05
0.000224614
-1.58969e-05
0.000230508
-1.17886e-05
0.00023421
-7.40897e-06
0.000235648
-2.88966e-06
0.00023477
1.72746e-06
0.000231479
6.56197e-06
0.000225834
1.12737e-05
0.000217925
1.57912e-05
0.000207901
2.00104e-05
0.000195893
2.40013e-05
0.000182163
2.74308e-05
0.000166888
3.0516e-05
0.000150356
3.30221e-05
0.000132827
3.501e-05
0.000114502
3.66575e-05
9.57147e-05
3.75433e-05
7.66507e-05
3.80785e-05
5.75422e-05
3.82123e-05
3.86536e-05
3.77034e-05
2.01421e-05
3.70433e-05
2.1461e-06
3.59772e-05
-1.50903e-05
3.44484e-05
-3.15112e-05
3.286e-05
-4.70138e-05
3.09678e-05
-6.14485e-05
2.8929e-05
-7.49454e-05
2.69216e-05
-8.72877e-05
2.46843e-05
-9.85554e-05
2.251e-05
-0.000108723
2.03512e-05
-0.000117826
1.82267e-05
-0.000125904
1.6168e-05
-0.000132992
1.41726e-05
-0.000139139
1.23084e-05
-0.000144403
1.05347e-05
-0.000148808
8.77076e-06
-0.000152469
7.36494e-06
-0.00015534
5.75525e-06
-0.0001575
4.33559e-06
-0.000158929
2.8779e-06
-0.000159776
1.75549e-06
-0.000160049
4.56924e-07
-0.000159695
-6.49206e-07
-0.000158757
-1.86863e-06
-0.000157215
-3.06357e-06
-0.000155087
-4.23546e-06
-0.00015237
-5.45053e-06
-0.000149
-6.72045e-06
-0.000144963
-8.01484e-06
-0.000140339
-9.27935e-06
-0.00013501
-1.06484e-05
-0.000128961
-1.2101e-05
-0.0001222
-1.3513e-05
-0.00011468
-1.50258e-05
-0.000106393
-1.65649e-05
-9.72879e-05
-1.81941e-05
-8.73721e-05
-1.98307e-05
-7.66012e-05
-2.15349e-05
-6.49658e-05
-2.32669e-05
-5.24657e-05
-2.49879e-05
-3.91201e-05
-2.66751e-05
-2.49538e-05
-2.8324e-05
-1.00253e-05
-2.98491e-05
5.61415e-06
-3.1267e-05
2.18826e-05
-3.25268e-05
3.85989e-05
-3.34189e-05
5.56541e-05
-3.41029e-05
7.28759e-05
-3.44291e-05
9.00701e-05
-3.43753e-05
0.000107013
-3.3885e-05
0.000123468
-3.28995e-05
0.000139186
-3.1429e-05
0.000153918
-2.94607e-05
0.000167416
-2.69869e-05
0.000179374
-2.391e-05
0.000189531
-2.03244e-05
0.000197668
-1.62891e-05
0.000203602
-1.18844e-05
0.000207164
-7.13892e-06
0.000208257
-2.18794e-06
0.000206836
2.82291e-06
0.000202837
7.9719e-06
0.000196355
1.29528e-05
0.0001875
1.7659e-05
0.000176435
2.21139e-05
0.000163408
2.60271e-05
0.000148717
2.93492e-05
0.000132638
3.21139e-05
0.000115448
3.43681e-05
9.75705e-05
3.57287e-05
7.92073e-05
3.67185e-05
6.0695e-05
3.70126e-05
4.22247e-05
3.69101e-05
2.39248e-05
3.65864e-05
6.07829e-06
3.56763e-05
-1.11817e-05
3.45084e-05
-2.77322e-05
3.30991e-05
-4.33844e-05
3.12944e-05
-5.81005e-05
2.94476e-05
-7.17722e-05
2.73387e-05
-8.43654e-05
2.52066e-05
-9.59078e-05
2.30741e-05
-0.000106421
2.10382e-05
-0.000115894
1.89585e-05
-0.000124394
1.70614e-05
-0.000132113
1.53916e-05
-0.000138967
1.37202e-05
-0.000145047
1.21691e-05
-0.000150352
1.06666e-05
-0.000155059
9.42126e-06
-0.000159116
8.08403e-06
-0.000162529
6.84333e-06
-0.000165345
5.64478e-06
-0.000167567
4.4569e-06
-0.000169238
3.3259e-06
-0.000170439
2.43029e-06
-0.000171074
1.27132e-06
-0.00017121
2.93384e-07
-0.000170775
-8.62377e-07
-0.000169719
-2.10944e-06
-0.000168173
-3.08875e-06
-0.000165939
-4.455e-06
-0.000163066
-5.73275e-06
-0.000159558
-7.0169e-06
-0.000155421
-8.26423e-06
-0.000150659
-9.53314e-06
-0.000145284
-1.07303e-05
-0.000139233
-1.21003e-05
-0.000132513
-1.34449e-05
-0.000125008
-1.50149e-05
-0.000116706
-1.66034e-05
-0.000107532
-1.83508e-05
-9.7459e-05
-2.01476e-05
-8.64303e-05
-2.20537e-05
-7.46603e-05
-2.35435e-05
-6.19956e-05
-2.533e-05
-4.85589e-05
-2.68698e-05
-3.43909e-05
-2.83246e-05
-1.95779e-05
-2.96191e-05
-4.16205e-06
-3.08305e-05
1.1676e-05
-3.16516e-05
2.78681e-05
-3.237e-05
4.41923e-05
-3.2631e-05
6.04284e-05
-3.24684e-05
7.63606e-05
-3.18462e-05
9.17488e-05
-3.07585e-05
0.00010635
-2.91892e-05
0.000119973
-2.72444e-05
0.000132344
-2.47288e-05
0.000143244
-2.17896e-05
0.000152518
-1.85392e-05
0.000159979
-1.49033e-05
0.000165404
-1.08194e-05
0.000168674
-6.56605e-06
0.000169809
-2.26949e-06
0.000168836
1.94371e-06
0.000165546
6.56832e-06
0.000160315
1.04676e-05
0.000153011
1.45932e-05
0.000144056
1.79051e-05
0.000133497
2.11079e-05
0.00012156
2.38611e-05
0.000108673
2.57588e-05
9.49141e-05
2.75165e-05
8.07245e-05
2.83569e-05
6.61302e-05
2.91814e-05
5.13939e-05
2.94752e-05
3.64084e-05
2.99697e-05
2.1423e-05
2.99723e-05
6.23333e-06
3.03769e-05
-8.89169e-06
3.02444e-05
-2.38045e-05
2.98222e-05
-3.83592e-05
2.91054e-05
-5.25241e-05
2.83263e-05
-6.60714e-05
2.70924e-05
-7.89726e-05
2.58006e-05
-9.10445e-05
2.41435e-05
-0.000102283
2.24773e-05
-0.000112702
2.08372e-05
-0.00012223
1.90565e-05
-0.000130898
1.73351e-05
-0.00013874
1.56852e-05
-0.000145718
1.39559e-05
-0.00015187
1.23046e-05
-0.000157223
1.07042e-05
-0.000161761
9.08485e-06
-0.000165539
7.56066e-06
-0.000168519
5.96212e-06
-0.000170681
4.31994e-06
-0.000172028
2.67299e-06
-0.000172552
1.03827e-06
-0.000172373
-3.63775e-07
-0.000171561
-1.62748e-06
-0.000170015
-3.09338e-06
-0.000167744
-4.54439e-06
-0.000164692
-6.10656e-06
-0.000160755
-7.87312e-06
-0.000155965
-9.57821e-06
-0.000150265
-1.14114e-05
-0.000143571
-1.34004e-05
-0.000135968
-1.52086e-05
-0.000127266
-1.7386e-05
-0.000117451
-1.96304e-05
-0.000106766
-2.13753e-05
-9.49862e-05
-2.3558e-05
-8.22013e-05
-2.55645e-05
-6.85021e-05
-2.73936e-05
-5.3714e-05
-2.9578e-05
-3.79959e-05
-3.14252e-05
-2.13355e-05
-3.33085e-05
-3.86732e-06
-3.49324e-05
1.41365e-05
-3.60106e-05
3.26934e-05
-3.71057e-05
5.16153e-05
-3.78302e-05
7.05649e-05
-3.78893e-05
8.9481e-05
-3.78219e-05
0.000108164
-3.73465e-05
0.000126185
-3.60265e-05
0.000143394
-3.44119e-05
0.000159495
-3.21863e-05
0.000174277
-2.95466e-05
0.000187501
-2.644e-05
0.000198825
-2.26405e-05
0.000208138
-1.86176e-05
0.000215256
-1.42246e-05
0.00022001
-9.50491e-06
0.000222373
-4.72236e-06
0.000222247
2.4617e-07
0.000219688
5.10908e-06
0.000214716
9.9423e-06
0.000207252
1.49287e-05
0.000197649
1.91975e-05
0.000186052
2.31801e-05
0.000172559
2.69755e-05
0.000157492
3.01216e-05
0.000140978
3.30144e-05
0.000123528
3.4888e-05
0.000105188
3.66667e-05
8.61251e-05
3.81135e-05
6.68841e-05
3.84714e-05
4.74535e-05
3.88506e-05
3.8532e-05
-0.000140447
1.13645e-05
-0.000143542
9.27721e-06
-0.000146021
7.43543e-06
-0.000147902
5.63666e-06
-0.000149184
3.83613e-06
-0.000149886
2.12586e-06
-0.000149983
3.00149e-07
-0.000149432
-1.65155e-06
-0.000148333
-3.29824e-06
-0.000146533
-5.41167e-06
-0.000144065
-7.44522e-06
-0.000140953
-9.29537e-06
-0.000137019
-1.18057e-05
-0.000132417
-1.38182e-05
-0.00012696
-1.63751e-05
-0.000120644
-1.89549e-05
-0.000113609
-2.11603e-05
-0.000105659
-2.37945e-05
-9.67248e-05
-2.6802e-05
-8.69766e-05
-2.92445e-05
-7.61718e-05
-3.24122e-05
-6.43605e-05
-3.542e-05
-5.17035e-05
-3.79714e-05
-3.80146e-05
-4.10576e-05
-2.34427e-05
-4.37218e-05
-7.91585e-06
-4.6577e-05
8.49186e-06
-4.91823e-05
2.54745e-05
-5.09157e-05
4.30937e-05
-5.28217e-05
6.12365e-05
-5.43985e-05
7.95194e-05
-5.48174e-05
9.79744e-05
-5.53346e-05
0.000116279
-5.48659e-05
0.000134248
-5.38632e-05
0.000151702
-5.23012e-05
0.000168213
-4.94924e-05
0.000183607
-4.61393e-05
0.000197701
-4.2237e-05
0.000210179
-3.74025e-05
0.000220928
-3.22062e-05
0.000229691
-2.62596e-05
0.00023637
-2.00088e-05
0.000240847
-1.34085e-05
0.000242967
-6.35793e-06
0.000242741
6.50762e-07
0.000240197
7.62475e-06
0.000235258
1.48062e-05
0.000228212
2.11146e-05
0.000219224
2.69464e-05
0.000208203
3.30183e-05
0.000195501
3.80577e-05
0.000181428
4.215e-05
0.000166051
4.61142e-05
0.000149718
4.89498e-05
0.000132604
5.13029e-05
0.000114922
5.2998e-05
9.6934e-05
5.39198e-05
7.88481e-05
5.42199e-05
6.08315e-05
5.39856e-05
4.30815e-05
5.32294e-05
2.58045e-05
5.18077e-05
9.04596e-06
5.02477e-05
-6.9736e-06
4.80323e-05
-2.22914e-05
4.59303e-05
-3.68254e-05
4.35832e-05
-5.05155e-05
4.10535e-05
-6.32614e-05
3.82509e-05
-7.51453e-05
3.5622e-05
-8.60717e-05
3.27483e-05
-9.6207e-05
3.04407e-05
-0.000105408
2.76019e-05
-0.000113711
2.49568e-05
-0.000121332
2.28636e-05
-0.000128169
2.04833e-05
-0.000134181
1.80536e-05
-0.000139502
1.59632e-05
-0.000143978
1.34513e-05
-0.000147791
1.14388e-05
-0.000150949
9.45194e-06
-0.000153273
6.95118e-06
-0.00015498
5.11306e-06
-0.000155951
2.90176e-06
-0.000156131
5.56394e-07
-0.000155561
-1.71024e-06
-0.000154188
-4.10874e-06
-0.000152009
-6.53442e-06
-0.000149
-9.02264e-06
-0.000145101
-1.16829e-05
-0.000140343
-1.42889e-05
-0.00013467
-1.70149e-05
-0.000128061
-1.98358e-05
-0.000120456
-2.28275e-05
-0.000111917
-2.55948e-05
-0.000102474
-2.83127e-05
-9.21988e-05
-3.08096e-05
-8.1133e-05
-3.31718e-05
-6.9318e-05
-3.54272e-05
-5.67796e-05
-3.76144e-05
-4.35074e-05
-3.98134e-05
-2.94908e-05
-4.20534e-05
-1.47727e-05
-4.41353e-05
5.48944e-07
-4.59554e-05
1.65424e-05
-4.7986e-05
3.30853e-05
-4.9591e-05
5.00869e-05
-5.09704e-05
6.73971e-05
-5.19158e-05
8.48432e-05
-5.23087e-05
0.000102309
-5.24011e-05
0.00011956
-5.17022e-05
0.000136402
-5.04913e-05
0.000152623
-4.86455e-05
0.000167996
-4.60743e-05
0.000182307
-4.29029e-05
0.000195375
-3.91093e-05
0.000206885
-3.45595e-05
0.000216728
-2.9499e-05
0.000224686
-2.38551e-05
0.000230594
-1.76967e-05
0.000234295
-1.11096e-05
0.000235743
-4.33793e-06
0.000234834
2.63693e-06
0.000231519
9.87625e-06
0.000225858
1.6935e-05
0.000217936
2.37134e-05
0.000207883
3.00629e-05
0.000195859
3.60258e-05
0.000182098
4.11916e-05
0.000166829
4.57851e-05
0.000150245
4.9606e-05
0.000132671
5.25838e-05
0.000114323
5.50059e-05
9.55025e-05
5.63637e-05
7.64114e-05
5.71695e-05
5.73166e-05
5.73071e-05
3.83608e-05
5.66591e-05
1.98227e-05
5.55814e-05
1.81558e-06
5.39843e-05
-1.54464e-05
5.17103e-05
-3.18467e-05
4.92603e-05
-4.7393e-05
4.6514e-05
-6.18321e-05
4.33681e-05
-7.53205e-05
4.041e-05
-8.7667e-05
3.70308e-05
-9.89508e-05
3.37937e-05
-0.000109108
3.05087e-05
-0.000118171
2.72895e-05
-0.000126258
2.42553e-05
-0.000133357
2.12717e-05
-0.0001395
1.84514e-05
-0.000144749
1.57836e-05
-0.000149201
1.32224e-05
-0.000152837
1.10011e-05
-0.000155701
8.61942e-06
-0.000157856
6.49008e-06
-0.000159333
4.35549e-06
-0.000160139
2.56108e-06
-0.000160386
7.03652e-07
-0.00016002
-1.01447e-06
-0.000159072
-2.817e-06
-0.000157525
-4.61063e-06
-0.000155324
-6.43629e-06
-0.000152663
-8.11121e-06
-0.0001493
-1.00838e-05
-0.00014525
-1.20644e-05
-0.000140628
-1.3902e-05
-0.000135285
-1.59915e-05
-0.000129236
-1.81493e-05
-0.000122483
-2.02665e-05
-0.00011498
-2.25291e-05
-0.000106695
-2.48496e-05
-9.75879e-05
-2.73013e-05
-8.76579e-05
-2.97607e-05
-7.68762e-05
-3.23166e-05
-6.52123e-05
-3.49308e-05
-5.27142e-05
-3.74861e-05
-3.93757e-05
-4.00137e-05
-2.52084e-05
-4.24913e-05
-1.02817e-05
-4.47759e-05
5.38232e-06
-4.69311e-05
2.16424e-05
-4.8787e-05
3.83839e-05
-5.01605e-05
5.54682e-05
-5.11873e-05
7.26999e-05
-5.16609e-05
8.9936e-05
-5.16115e-05
0.00010688
-5.08292e-05
0.000123363
-4.93823e-05
0.000139102
-4.71688e-05
0.000153857
-4.42153e-05
0.000167371
-4.05013e-05
0.000179318
-3.58569e-05
0.000189498
-3.05042e-05
0.000197656
-2.4448e-05
0.000203603
-1.78309e-05
0.000207163
-1.06996e-05
0.000208282
-3.30656e-06
0.000206843
4.2619e-06
0.000202804
1.20104e-05
0.000196348
1.94085e-05
0.000187431
2.65765e-05
0.000176345
3.32002e-05
0.000163289
3.90823e-05
0.00014855
4.40881e-05
0.000132421
4.82434e-05
0.000115232
5.15564e-05
9.73266e-05
5.36344e-05
7.89423e-05
5.51028e-05
6.04032e-05
5.55517e-05
4.18631e-05
5.54502e-05
2.35879e-05
5.48616e-05
5.73089e-06
5.35332e-05
-1.15471e-05
5.17863e-05
-2.81044e-05
4.96564e-05
-4.3774e-05
4.6964e-05
-5.84441e-05
4.41176e-05
-7.21539e-05
4.10485e-05
-8.47427e-05
3.77954e-05
-9.63047e-05
3.4636e-05
-0.000106788
3.15212e-05
-0.000116249
2.84202e-05
-0.000124754
2.55659e-05
-0.000132458
2.30963e-05
-0.000139295
2.05567e-05
-0.000145374
1.82482e-05
-0.000150709
1.60018e-05
-0.000155351
1.40628e-05
-0.000159431
1.21642e-05
-0.000162823
1.02356e-05
-0.000165647
8.46825e-06
-0.000167867
6.67723e-06
-0.000169567
5.02603e-06
-0.00017072
3.5831e-06
-0.000171363
1.91467e-06
-0.000171485
4.15108e-07
-0.000171049
-1.29854e-06
-0.000170061
-3.0971e-06
-0.000168451
-4.69841e-06
-0.00016622
-6.68575e-06
-0.000163341
-8.61152e-06
-0.000159847
-1.05114e-05
-0.000155693
-1.24177e-05
-0.000150943
-1.42831e-05
-0.000145554
-1.61199e-05
-0.000139521
-1.81328e-05
-0.000132802
-2.01642e-05
-0.000125301
-2.2515e-05
-0.000116989
-2.49155e-05
-0.000107823
-2.75174e-05
-9.77447e-05
-3.02253e-05
-8.67619e-05
-3.30364e-05
-7.49387e-05
-3.53667e-05
-6.22655e-05
-3.80031e-05
-4.88201e-05
-4.03152e-05
-3.46409e-05
-4.25039e-05
-1.98167e-05
-4.44434e-05
-4.39627e-06
-4.6251e-05
1.15068e-05
-4.75547e-05
2.77145e-05
-4.85778e-05
4.40653e-05
-4.89819e-05
6.0337e-05
-4.87403e-05
7.63007e-05
-4.781e-05
9.17121e-05
-4.61701e-05
0.000106348
-4.38249e-05
0.000119987
-4.08846e-05
0.000132387
-3.71287e-05
0.000143312
-3.2715e-05
0.000152604
-2.78317e-05
0.00016009
-2.23888e-05
0.000165533
-1.62625e-05
0.000168806
-9.83945e-06
0.000169948
-3.4115e-06
0.000168972
2.91952e-06
0.000165669
9.87044e-06
0.000160449
1.56875e-05
0.000153119
2.19238e-05
0.000144156
2.68671e-05
0.00013358
3.16844e-05
0.000121619
3.5822e-05
0.000108702
3.86754e-05
9.49491e-05
4.12695e-05
8.0715e-05
4.25909e-05
6.61151e-05
4.37812e-05
5.13691e-05
4.42212e-05
3.63848e-05
4.49539e-05
2.14052e-05
4.49518e-05
6.21675e-06
4.55654e-05
-8.92027e-06
4.53814e-05
-2.38411e-05
4.4743e-05
-3.84038e-05
4.36681e-05
-5.25746e-05
4.24971e-05
-6.61264e-05
4.06441e-05
-7.90309e-05
3.87051e-05
-9.1104e-05
3.62165e-05
-0.000102342
3.37158e-05
-0.000112761
3.12559e-05
-0.000122287
2.85823e-05
-0.00013095
2.59978e-05
-0.000138788
2.35234e-05
-0.00014576
2.09284e-05
-0.000151911
1.84552e-05
-0.000157254
1.60471e-05
-0.000161786
1.36165e-05
-0.000165557
1.13317e-05
-0.00016853
8.9354e-06
-0.000170696
6.48607e-06
-0.000172056
4.03254e-06
-0.000172601
1.58346e-06
-0.000172438
-5.26868e-07
-0.00017163
-2.43517e-06
-0.000170086
-4.63715e-06
-0.000167816
-6.81483e-06
-0.000164764
-9.15828e-06
-0.000160828
-1.18095e-05
-0.000156036
-1.43705e-05
-0.000150348
-1.7099e-05
-0.000143661
-2.00877e-05
-0.000136063
-2.2806e-05
-0.000127354
-2.60951e-05
-0.000117548
-2.94364e-05
-0.000106868
-3.20554e-05
-9.50799e-05
-3.53464e-05
-8.22895e-05
-3.83549e-05
-6.85879e-05
-4.10953e-05
-5.38211e-05
-4.43449e-05
-3.80745e-05
-4.71719e-05
-2.13986e-05
-4.99845e-05
-3.92507e-06
-5.2406e-05
1.40841e-05
-5.40198e-05
3.26597e-05
-5.56814e-05
5.15967e-05
-5.67673e-05
7.05616e-05
-5.68542e-05
8.95067e-05
-5.67671e-05
0.000108213
-5.60531e-05
0.000126253
-5.40668e-05
0.000143485
-5.16436e-05
0.000159609
-4.83106e-05
0.000174417
-4.43549e-05
0.000187669
-3.96922e-05
0.000199009
-3.39803e-05
0.000208329
-2.7938e-05
0.000215462
-2.13572e-05
0.000220225
-1.42683e-05
0.000222597
-7.09403e-06
0.000222446
3.96726e-07
0.000219868
7.68759e-06
0.00021489
1.49198e-05
0.000207426
2.23924e-05
0.000197814
2.881e-05
0.000186193
3.48001e-05
0.000172685
4.04837e-05
0.000157599
4.52078e-05
0.000141063
4.95501e-05
0.000123594
5.23566e-05
0.000105232
5.50288e-05
8.615e-05
5.71957e-05
6.68908e-05
5.77305e-05
4.74408e-05
5.83004e-05
5.782e-05
-0.000140528
1.51574e-05
-0.000143628
1.23775e-05
-0.00014611
9.91776e-06
-0.000147995
7.52106e-06
-0.000149282
5.12319e-06
-0.000149971
2.81484e-06
-0.000150059
3.88501e-07
-0.000149505
-2.20545e-06
-0.000148408
-4.39599e-06
-0.000146613
-7.20619e-06
-0.000144149
-9.90929e-06
-0.000141034
-1.24105e-05
-0.000137102
-1.57377e-05
-0.000132514
-1.84066e-05
-0.000127053
-2.18359e-05
-0.000120739
-2.52686e-05
-0.000113756
-2.81432e-05
-0.000105754
-3.17972e-05
-9.68197e-05
-3.57359e-05
-8.70649e-05
-3.89993e-05
-7.62634e-05
-4.32137e-05
-6.44465e-05
-4.72369e-05
-5.17902e-05
-5.06277e-05
-3.80901e-05
-5.47578e-05
-2.35232e-05
-5.82888e-05
-7.98315e-06
-6.2117e-05
8.43624e-06
-6.56018e-05
2.5437e-05
-6.79165e-05
4.30759e-05
-7.04607e-05
6.12278e-05
-7.25505e-05
7.95347e-05
-7.31243e-05
9.80075e-05
-7.38076e-05
0.000116336
-7.31943e-05
0.000134332
-7.18594e-05
0.00015182
-6.97891e-05
0.000168355
-6.60277e-05
0.000183773
-6.15577e-05
0.000197894
-5.63575e-05
0.000210391
-4.98996e-05
0.000221164
-4.29795e-05
0.000229939
-3.50352e-05
0.000236629
-2.66982e-05
0.000241118
-1.78979e-05
0.000243239
-8.47915e-06
0.000243001
8.89375e-07
0.000240463
1.01621e-05
0.000235513
1.97566e-05
0.000228448
2.81792e-05
0.000219447
3.59477e-05
0.000208402
4.40628e-05
0.000195671
5.07893e-05
0.000181558
5.62622e-05
0.000166169
6.15033e-05
0.000149806
6.5313e-05
0.000132671
6.84375e-05
0.00011496
7.07088e-05
9.69467e-05
7.19333e-05
7.88403e-05
7.23262e-05
6.07877e-05
7.20382e-05
4.30261e-05
7.0991e-05
2.5737e-05
6.90968e-05
8.96505e-06
6.70197e-05
-7.06753e-06
6.40648e-05
-2.23964e-05
6.12592e-05
-3.69409e-05
5.81277e-05
-5.06396e-05
5.47522e-05
-6.33755e-05
5.09868e-05
-7.52714e-05
4.75178e-05
-8.62013e-05
4.36782e-05
-9.63245e-05
4.05638e-05
-0.000105528
3.68059e-05
-0.000113806
3.3234e-05
-0.000121426
3.04839e-05
-0.000128277
2.73339e-05
-0.000134276
2.40532e-05
-0.000139597
2.12841e-05
-0.000144057
1.79116e-05
-0.000147874
1.52551e-05
-0.000151047
1.26246e-05
-0.000153379
9.28314e-06
-0.000155091
6.82572e-06
-0.000156072
3.88273e-06
-0.000156247
7.3058e-07
-0.000155676
-2.28135e-06
-0.000154302
-5.48288e-06
-0.000152121
-8.71535e-06
-0.000149111
-1.20328e-05
-0.000145216
-1.55781e-05
-0.000140466
-1.9039e-05
-0.000134798
-2.26838e-05
-0.000128201
-2.64323e-05
-0.000120609
-3.04202e-05
-0.000112063
-3.41407e-05
-0.000102599
-3.77772e-05
-9.23395e-05
-4.10691e-05
-8.12777e-05
-4.42337e-05
-6.94633e-05
-4.72418e-05
-5.69341e-05
-5.01437e-05
-4.36763e-05
-5.30713e-05
-2.96834e-05
-5.60465e-05
-1.49582e-05
-5.88606e-05
3.71782e-07
-6.12854e-05
1.63584e-05
-6.39726e-05