/*--------------------------------*- C++ -*----------------------------------*\
| =========                 |                                                 |
| \\      /  F ield         | OpenFOAM: The Open Source CFD Toolbox           |
|  \\    /   O peration     | Version:  3.0.1                                 |
|   \\  /    A nd           | Web:      www.OpenFOAM.org                      |
|    \\/     M anipulation  |                                                 |
\*---------------------------------------------------------------------------*/
FoamFile
{
    version     2.0;
    format      ascii;
    class       volScalarField;
    location    "70";
    object      p_rgh;
}
// * * * * * * * * * * * * * * * * * * * * * * * * * * * * * * * * * * * * * //

dimensions      [1 -1 -2 0 0 0 0];

internalField   nonuniform List<scalar> 
21420
(
-211.272
-229.092
-245.305
-259.898
-272.87
-284.269
-294.135
-302.517
-309.451
-314.971
-319.107
-321.879
-323.298
-323.345
-322.023
-319.343
-315.257
-309.762
-302.826
-294.409
-284.469
-272.953
-259.808
-244.987
-228.447
-210.154
-190.085
-168.226
-144.587
-119.213
-92.1502
-63.4954
-33.389
-1.99003
30.4733
63.7432
97.5531
131.548
165.37
198.67
231.046
262.11
291.452
318.68
343.45
365.422
384.288
399.798
411.744
419.959
424.34
424.77
421.413
414.198
403.234
388.708
370.834
349.842
326.047
299.772
271.369
241.209
209.664
177.139
144.011
110.646
77.4036
44.6021
12.5319
-18.5996
-48.4751
-76.9616
-103.914
-129.222
-152.816
-174.652
-194.715
-213.007
-229.546
-244.363
-257.491
-268.964
-278.821
-287.091
-293.799
-298.977
-302.646
-304.844
-305.565
-304.8
-302.639
-299.069
-294.113
-287.79
-280.118
-271.111
-260.772
-249.102
-236.092
-221.728
-205.992
-188.863
-170.326
-150.372
-128.999
-106.221
-82.0728
-56.6108
-29.916
-2.09827
26.7307
56.3663
86.6212
117.284
148.112
178.843
209.194
238.869
267.556
294.935
320.681
344.462
365.958
384.857
400.866
413.72
423.188
429.085
431.24
429.611
424.176
415.006
402.135
385.756
366.083
343.379
317.95
290.139
260.317
228.876
196.218
162.749
128.871
94.9798
61.4507
28.6334
-3.14929
-33.6274
-62.5651
-89.7744
-115.116
-138.497
-159.873
-179.236
-196.611
-212.048
-225.615
-237.394
-247.47
-255.933
-262.877
-268.385
-272.535
-275.395
-277.034
-277.499
-276.816
-275.005
-272.114
-268.132
-263.058
-256.882
-249.585
-241.143
-231.526
-220.694
-208.609
-195.228
-180.507
-164.399
-146.861
-127.853
-107.345
-85.3226
-61.7863
-36.7596
-10.3024
17.5036
46.5492
76.6715
107.602
139.113
170.92
202.692
234.059
264.623
293.96
321.634
347.213
370.275
390.421
407.284
420.54
429.923
435.224
436.222
433.008
425.497
413.807
398.101
378.652
355.785
329.878
301.359
270.687
238.335
204.781
170.497
135.939
101.535
67.6647
34.9089
3.15268
-27.145
-55.8145
-82.7342
-107.83
-131.066
-152.437
-171.963
-189.677
-205.623
-219.849
-232.408
-243.357
-252.757
-260.68
-267.192
-272.356
-276.225
-278.843
-280.251
-280.452
-279.432
-277.192
-273.741
-269.038
-263.057
-255.769
-247.139
-237.131
-225.706
-212.823
-198.447
-182.544
-165.089
-146.065
-125.47
-103.31
-79.6123
-54.4223
-27.8236
0.0529737
29.0098
58.7422
92.3441
123.434
154.853
186.16
216.928
246.731
275.142
301.74
326.119
347.884
366.639
382.008
393.642
401.282
404.705
403.779
398.469
389.299
376.266
359.396
338.828
314.794
287.66
257.818
225.759
192.029
157.209
121.884
86.6757
52.2184
17.3612
-18.4726
-52.5344
-84.3584
-114.041
-141.561
-166.948
-190.194
-211.323
-230.381
-247.407
-262.452
-275.58
-286.844
-296.301
-303.993
-309.954
-314.214
-316.857
-317.849
-317.053
-314.732
-310.837
-305.318
-298.131
-289.209
-278.499
-265.965
-251.556
-235.247
-217.011
-196.833
-174.721
-150.704
-124.825
-97.1682
-67.8638
-37.064
-4.93966
28.2551
62.287
96.8087
131.504
166.032
199.94
232.833
264.343
294.017
321.473
346.279
368.071
386.551
401.423
412.455
419.47
422.391
421.22
415.862
406.361
392.867
375.735
355.266
-211.348
-229.165
-245.376
-259.966
-272.935
-284.331
-294.196
-302.575
-309.507
-315.026
-319.161
-321.932
-323.352
-323.397
-322.078
-319.398
-315.313
-309.82
-302.885
-294.47
-284.532
-273.019
-259.877
-245.059
-228.522
-210.23
-190.164
-168.306
-144.667
-119.293
-92.2286
-63.5708
-33.46
-2.05479
30.4168
63.6968
97.5185
131.527
165.363
198.679
231.072
262.153
291.513
318.758
343.544
365.531
384.411
399.932
411.887
420.108
424.492
424.929
421.558
414.34
403.369
388.833
370.946
349.939
326.129
299.837
271.418
241.24
209.679
177.137
143.994
110.616
77.3612
44.5491
12.4695
-18.6677
-48.5493
-77.0399
-103.995
-129.304
-152.899
-174.734
-194.796
-213.086
-229.623
-244.438
-257.564
-269.036
-278.891
-287.159
-293.866
-299.043
-302.713
-304.91
-305.628
-304.865
-302.703
-299.133
-294.177
-287.854
-280.182
-271.175
-260.837
-249.168
-236.159
-221.797
-206.062
-188.935
-170.4
-150.447
-129.075
-106.296
-82.1474
-56.6835
-29.9859
-2.16423
26.6701
56.3118
86.5744
117.246
148.084
178.826
209.189
238.877
267.578
294.972
320.732
344.529
366.04
384.952
400.975
413.84
423.317
429.22
431.385
429.748
424.312
415.137
402.257
385.868
366.181
343.462
318.016
290.187
260.348
228.889
196.213
162.727
128.834
94.9287
61.3869
28.5588
-3.23331
-33.7184
-62.6614
-89.8739
-115.217
-138.598
-159.972
-179.333
-196.704
-212.137
-225.701
-237.476
-247.547
-256.006
-262.946
-268.451
-272.598
-275.456
-277.093
-277.556
-276.871
-275.06
-272.169
-268.188
-263.114
-256.939
-249.644
-241.203
-231.587
-220.757
-208.675
-195.297
-180.578
-164.473
-146.937
-127.931
-107.425
-85.404
-61.8679
-36.8408
-10.3816
17.4275
46.4775
76.6071
107.546
139.068
170.887
202.673
234.057
264.638
293.994
321.688
347.286
370.367
390.53
407.408
420.679
430.072
435.379
436.389
433.161
425.648
413.95
398.231
378.766
355.881
329.953
301.413
270.72
238.347
204.774
170.471
135.897
101.478
67.5927
34.8321
3.06533
-27.2368
-55.9087
-82.8291
-107.924
-131.158
-152.528
-172.051
-189.762
-205.705
-219.928
-232.484
-243.429
-252.827
-260.747
-267.256
-272.417
-276.285
-278.902
-280.309
-280.51
-279.488
-277.251
-273.801
-269.1
-263.12
-255.833
-247.205
-237.199
-225.776
-212.896
-198.522
-182.62
-165.167
-146.144
-125.55
-103.39
-79.6916
-54.4999
-27.8977
-0.0145779
28.9531
58.6999
92.2802
123.389
154.827
186.152
216.938
246.759
275.189
301.807
326.205
347.988
366.76
382.145
393.793
401.443
404.875
403.956
398.635
389.462
376.424
359.544
338.959
314.905
287.746
257.879
225.794
192.04
157.2
121.856
86.631
52.1574
17.2812
-18.5582
-52.6259
-84.452
-114.134
-141.654
-167.039
-190.284
-211.41
-230.466
-247.488
-262.531
-275.656
-286.918
-296.372
-304.063
-310.023
-314.284
-316.926
-317.912
-317.117
-314.798
-310.905
-305.388
-298.203
-289.282
-278.575
-266.043
-251.636
-235.329
-217.095
-196.918
-174.807
-150.79
-124.91
-97.2506
-67.9425
-37.1373
-5.00613
28.197
62.2389
96.7729
131.483
166.026
199.951
232.862
264.39
294.083
321.557
346.381
368.19
386.684
401.569
412.61
419.634
422.565
421.378
416.014
406.509
393.007
375.863
355.378
-211.5
-229.312
-245.518
-260.102
-273.066
-284.457
-294.317
-302.692
-309.62
-315.136
-319.269
-322.039
-323.458
-323.501
-322.188
-319.507
-315.424
-309.934
-303.003
-294.593
-284.66
-273.152
-260.015
-245.202
-228.67
-210.383
-190.321
-168.465
-144.828
-119.452
-92.385
-63.7216
-33.6019
-2.18415
30.304
63.604
97.4495
131.485
165.35
198.698
231.124
262.239
291.635
318.914
343.733
365.75
384.657
400.201
412.173
420.406
424.796
425.249
421.848
414.626
403.64
389.084
371.171
350.135
326.294
299.968
271.514
241.302
209.707
177.135
143.961
110.556
77.2773
44.4442
12.3467
-18.8025
-48.6954
-77.1939
-104.153
-129.465
-153.06
-174.893
-194.951
-213.237
-229.769
-244.58
-257.702
-269.169
-279.02
-287.285
-293.989
-299.164
-302.832
-305.027
-305.737
-304.979
-302.814
-299.243
-294.286
-287.962
-280.29
-271.284
-260.947
-249.28
-236.273
-221.914
-206.182
-189.058
-170.526
-150.576
-129.205
-106.427
-82.2765
-56.8091
-30.1062
-2.27685
26.568
56.2216
86.4997
117.188
148.046
178.81
209.198
238.911
267.64
295.063
320.853
344.679
366.22
385.161
401.209
414.097
423.592
429.508
431.694
430.039
424.6
415.415
402.52
386.108
366.395
343.644
318.165
290.301
260.427
228.932
196.222
162.703
128.779
94.8455
61.2787
28.4288
-3.38123
-33.8805
-62.8336
-90.0524
-115.398
-138.778
-160.15
-179.505
-196.869
-212.294
-225.849
-237.615
-247.678
-256.129
-263.062
-268.56
-272.701
-275.554
-277.187
-277.647
-276.957
-275.147
-272.255
-268.274
-263.202
-257.029
-249.736
-241.299
-231.686
-220.86
-208.783
-195.41
-180.696
-164.596
-147.066
-128.065
-107.563
-85.5441
-62.0086
-36.9811
-10.5182
17.2971
46.3555
76.4997
107.456
138.998
170.841
202.656
234.072
264.688
294.082
321.814
347.451
370.57
390.768
407.677
420.974
430.388
435.708
436.739
433.486
425.969
414.251
398.508
379.011
356.088
330.119
301.537
270.802
238.387
204.774
170.435
135.828
101.381
67.4717
34.6879
2.90704
-27.4034
-56.0801
-83.0019
-108.096
-131.326
-152.691
-172.208
-189.913
-205.85
-220.066
-232.616
-243.555
-252.947
-260.861
-267.365
-272.521
-276.384
-278.999
-280.406
-280.606
-279.58
-277.349
-273.9
-269.201
-263.225
-255.941
-247.317
-237.315
-225.896
-213.02
-198.65
-182.753
-165.303
-146.283
-125.69
-103.531
-79.8318
-54.6371
-28.0282
-0.132659
28.8562
58.6331
92.1666
123.315
154.79
186.15
216.971
246.828
275.294
301.952
326.386
348.205
367.01
382.427
394.101
401.772
405.22
404.317
398.969
389.795
376.745
359.842
339.224
315.128
287.921
258.003
225.866
192.064
157.182
121.801
86.5425
52.0357
17.1215
-18.7292
-52.8081
-84.6392
-114.322
-141.839
-167.221
-190.462
-211.584
-230.634
-247.651
-262.688
-275.808
-287.065
-296.515
-304.203
-310.162
-314.424
-317.063
-318.036
-317.245
-314.931
-311.042
-305.527
-298.346
-289.428
-278.725
-266.198
-251.796
-235.492
-217.262
-197.089
-174.979
-150.962
-125.079
-97.4154
-68.0997
-37.2838
-5.13896
28.0809
62.1427
96.7013
131.44
166.014
199.974
232.919
264.484
294.214
321.726
346.586
368.428
386.951
401.86
412.92
419.961
422.911
421.694
416.318
406.805
393.287
376.118
355.603
-211.728
-229.533
-245.731
-260.307
-273.263
-284.646
-294.498
-302.867
-309.79
-315.302
-319.431
-322.198
-323.617
-323.659
-322.352
-319.67
-315.591
-310.105
-303.18
-294.776
-284.85
-273.351
-260.222
-245.418
-228.894
-210.613
-190.556
-168.705
-145.068
-119.692
-92.6199
-63.9479
-33.8149
-2.37842
30.1345
63.4646
97.3459
131.421
165.329
198.725
231.201
262.369
291.817
319.148
344.016
366.079
385.026
400.603
412.602
420.853
425.252
425.722
422.289
415.056
404.047
389.46
371.509
350.429
326.54
300.164
271.659
241.396
209.751
177.13
143.912
110.466
77.1513
44.2868
12.1626
-19.0051
-48.9149
-77.425
-104.391
-129.706
-153.301
-175.131
-195.184
-213.464
-229.989
-244.793
-257.907
-269.368
-279.213
-287.473
-294.172
-299.343
-303.009
-305.201
-305.903
-305.148
-302.981
-299.406
-294.448
-288.124
-280.452
-271.446
-261.111
-249.446
-236.443
-222.088
-206.361
-189.242
-170.714
-150.767
-129.399
-106.621
-82.4685
-56.9959
-30.2849
-2.44345
26.4162
56.0884
86.3897
117.105
147.992
178.789
209.213
238.965
267.736
295.201
321.036
344.908
366.493
385.476
401.563
414.485
424.007
429.943
432.149
430.485
425.04
415.837
402.917
386.472
366.718
343.922
318.392
290.476
260.548
229.001
196.239
162.67
128.699
94.7235
61.1189
28.2362
-3.60051
-34.1213
-63.0897
-90.3179
-115.667
-139.047
-160.414
-179.761
-197.115
-212.528
-226.07
-237.823
-247.873
-256.312
-263.233
-268.721
-272.853
-275.699
-277.325
-277.78
-277.084
-275.276
-272.383
-268.403
-263.332
-257.162
-249.873
-241.441
-231.833
-221.014
-208.943
-195.578
-180.872
-164.78
-147.257
-128.264
-107.767
-85.7525
-62.2181
-37.1897
-10.7212
17.1031
46.1742
76.3406
107.322
138.895
170.775
202.633
234.097
264.766
294.215
322.006
347.701
370.876
391.127
408.083
421.42
430.865
436.204
437.26
433.981
426.454
414.707
398.926
379.38
356.401
330.372
301.727
270.927
238.45
204.777
170.384
135.728
101.238
67.3059
34.4602
2.67142
-27.6515
-56.3354
-83.2593
-108.351
-131.576
-152.933
-172.442
-190.138
-206.065
-220.273
-232.813
-243.743
-253.125
-261.03
-267.525
-272.674
-276.532
-279.144
-280.548
-280.744
-279.72
-277.494
-274.048
-269.352
-263.38
-256.102
-247.483
-237.487
-226.075
-213.206
-198.842
-182.95
-165.505
-146.489
-125.899
-103.741
-80.0407
-54.8416
-28.2229
-0.308968
28.7117
58.5364
91.9947
123.205
154.735
186.147
217.022
246.931
275.454
302.169
326.659
348.531
367.385
382.849
394.564
402.265
405.739
404.852
399.474
390.296
377.227
360.289
339.621
315.462
288.184
258.188
225.975
192.1
157.154
121.718
86.4097
51.8531
16.8815
-18.9866
-53.084
-84.92
-114.603
-142.118
-167.495
-190.73
-211.844
-230.886
-247.895
-262.924
-276.036
-287.285
-296.729
-304.412
-310.369
-314.633
-317.268
-318.225
-317.437
-315.131
-311.246
-305.736
-298.561
-289.648
-278.95
-266.431
-252.035
-235.738
-217.514
-197.344
-175.237
-151.22
-125.334
-97.6628
-68.3357
-37.5037
-5.33842
27.9064
61.9983
96.5936
131.375
165.997
200.007
233.005
264.625
294.411
321.98
346.894
368.785
387.351
402.297
413.386
420.45
423.414
422.182
416.781
407.25
393.708
376.5
355.941
-212.032
-229.828
-246.015
-260.58
-273.525
-284.897
-294.74
-303.1
-310.016
-315.522
-319.647
-322.411
-323.827
-323.872
-322.57
-319.889
-315.813
-310.334
-303.416
-295.02
-285.105
-273.616
-260.498
-245.705
-229.191
-210.92
-190.87
-169.024
-145.39
-120.011
-92.9334
-64.25
-34.0993
-2.63787
29.908
63.2785
97.2073
131.336
165.302
198.761
231.304
262.542
292.06
319.46
344.393
366.517
385.518
401.141
413.175
421.45
425.861
426.341
422.887
415.632
404.591
389.962
371.96
350.821
326.869
300.426
271.852
241.52
209.808
177.124
143.846
110.346
76.9829
44.0766
11.917
-19.276
-49.2079
-77.7335
-104.709
-130.029
-153.623
-175.449
-195.496
-213.767
-230.283
-245.077
-258.182
-269.633
-279.47
-287.724
-294.417
-299.583
-303.245
-305.431
-306.128
-305.374
-303.202
-299.625
-294.664
-288.339
-280.667
-271.662
-261.329
-249.668
-236.67
-222.32
-206.599
-189.486
-170.965
-151.023
-129.657
-106.88
-82.7243
-57.245
-30.5233
-2.66518
26.2133
55.9111
86.2431
116.993
147.92
178.761
209.233
239.037
267.863
295.387
321.28
345.213
366.857
385.897
402.037
415.004
424.563
430.524
432.744
431.091
425.632
416.402
403.449
386.959
367.15
344.292
318.695
290.71
260.71
229.092
196.261
162.626
128.593
94.561
60.9059
27.9796
-3.89299
-34.4424
-63.4312
-90.6718
-116.026
-139.405
-160.765
-180.102
-197.442
-212.839
-226.364
-238.099
-248.132
-256.556
-263.462
-268.936
-273.055
-275.891
-277.509
-277.956
-277.255
-275.447
-272.553
-268.574
-263.506
-257.339
-250.056
-241.629
-232.029
-221.218
-209.157
-195.802
-181.106
-165.025
-147.512
-128.528
-108.04
-86.0303
-62.4977
-37.4677
-10.9922
16.844
45.9321
76.1289
107.144
138.758
170.687
202.602
234.131
264.87
294.394
322.263
348.035
371.285
391.606
408.626
422.017
431.502
436.866
437.944
434.653
427.104
415.318
399.484
379.874
356.819
330.709
301.979
271.095
238.534
204.782
170.315
135.593
101.047
67.0771
34.164
2.35745
-27.9824
-56.6758
-83.6026
-108.691
-131.91
-153.257
-172.754
-190.437
-206.353
-220.548
-233.075
-243.993
-253.363
-261.255
-267.739
-272.878
-276.729
-279.336
-280.736
-280.929
-279.909
-277.687
-274.244
-269.554
-263.588
-256.316
-247.705
-237.717
-226.313
-213.453
-199.098
-183.213
-165.775
-146.764
-126.177
-104.021
-80.3193
-55.1143
-28.4829
-0.545001
28.5176
58.4135
91.7592
123.059
154.662
186.143
217.088
247.068
275.667
302.458
327.023
348.965
367.887
383.412
395.181
402.922
406.429
405.55
400.161
390.97
377.871
360.887
340.152
315.908
288.534
258.435
226.118
192.147
157.116
121.606
86.2326
51.6091
16.5611
-19.331
-53.4518
-85.2949
-114.978
-142.49
-167.86
-191.087
-212.191
-231.223
-248.22
-263.238
-276.34
-287.579
-297.015
-304.691
-310.644
-314.91
-317.537
-318.482
-317.697
-315.397
-311.519
-306.015
-298.847
-289.941
-279.251
-266.741
-252.354
-236.066
-217.849
-197.685
-175.581
-151.564
-125.674
-97.9929
-68.6507
-37.7973
-5.60476
27.6733
61.8053
96.4495
131.288
165.973
200.051
233.12
264.813
294.674
322.317
347.304
369.261
387.885
402.88
414.007
421.099
424.071
422.841
417.408
407.848
394.27
377.01
356.392
-212.412
-230.196
-246.37
-260.921
-273.852
-285.212
-295.042
-303.391
-310.299
-315.797
-319.917
-322.677
-324.09
-324.138
-322.841
-320.162
-316.091
-310.619
-303.71
-295.326
-285.422
-273.947
-260.844
-246.064
-229.563
-211.303
-191.263
-169.423
-145.791
-120.411
-93.3257
-64.6281
-34.4554
-2.96287
29.6241
63.0452
97.0335
131.228
165.268
198.806
231.433
262.757
292.364
319.85
344.865
367.065
386.133
401.813
413.891
422.197
426.623
427.107
423.643
416.354
405.272
390.59
372.523
351.311
327.279
300.753
272.093
241.676
209.88
177.115
143.763
110.195
76.7719
43.8132
11.6097
-19.6156
-49.5749
-78.1197
-105.107
-130.432
-154.026
-175.847
-195.885
-214.146
-230.65
-245.431
-258.525
-269.965
-279.793
-288.037
-294.723
-299.883
-303.54
-305.718
-306.412
-305.656
-303.479
-299.898
-294.935
-288.609
-280.936
-271.932
-261.602
-249.945
-236.953
-222.61
-206.896
-189.792
-171.278
-151.342
-129.98
-107.204
-83.0446
-57.5569
-30.8213
-2.94309
25.9589
55.6892
86.0593
116.853
147.83
178.726
209.258
239.127
268.022
295.618
321.586
345.594
367.313
386.424
402.629
415.653
425.258
431.251
433.487
431.847
426.375
417.11
404.114
387.567
367.69
344.755
319.075
291.002
260.913
229.206
196.288
162.57
128.46
94.3572
60.6391
27.6581
-4.25945
-34.8446
-63.8589
-91.1151
-116.476
-139.853
-161.205
-180.528
-197.851
-213.229
-226.732
-238.445
-248.457
-256.861
-263.748
-269.204
-273.308
-276.132
-277.739
-278.176
-277.472
-275.661
-272.766
-268.787
-263.723
-257.561
-250.284
-241.865
-232.274
-221.474
-209.425
-196.082
-181.399
-165.331
-147.832
-128.86
-108.381
-86.3781
-62.848
-37.8157
-11.3319
16.5187
45.6286
75.864
106.92
138.585
170.576
202.563
234.172
264.999
294.617
322.583
348.452
371.797
392.206
409.305
422.763
432.3
437.696
438.792
435.5
427.918
416.083
400.183
380.491
357.343
331.131
302.295
271.303
238.638
204.787
170.228
135.423
100.807
66.7836
33.7992
1.96461
-28.3967
-57.1021
-84.0325
-109.118
-132.327
-153.661
-173.144
-190.812
-206.712
-220.892
-233.404
-244.306
-253.66
-261.537
-268.007
-273.133
-276.974
-279.576
-280.971
-281.162
-280.146
-277.928
-274.49
-269.805
-263.847
-256.584
-247.982
-238.004
-226.611
-213.762
-199.417
-183.543
-166.112
-147.108
-126.526
-104.372
-80.668
-55.4559
-28.8089
-0.841933
28.2719
58.2731
91.4505
122.876
154.571
186.138
217.171
247.24
275.932
302.819
327.479
349.509
368.514
384.116
395.953
403.744
407.289
406.419
401.024
391.816
378.678
361.635
340.816
316.467
288.971
258.743
226.297
192.205
157.068
121.466
86.0113
51.3037
16.1593
-19.7641
-53.9135
-85.7641
-115.448
-142.955
-168.317
-191.533
-212.626
-231.643
-248.627
-263.631
-276.719
-287.947
-297.372
-305.039
-310.988
-315.252
-317.871
-318.809
-318.025
-315.731
-311.859
-306.363
-299.204
-290.307
-279.627
-267.128
-252.753
-236.475
-218.267
-198.112
-176.012
-151.995
-126.099
-98.406
-69.045
-38.1648
-5.93829
27.3812
61.5633
96.2687
131.179
165.944
200.105
233.262
265.047
295.002
322.739
347.817
369.856
388.553
403.61
414.784
421.909
424.892
423.66
418.199
408.598
394.973
377.649
356.955
-212.869
-230.638
-246.796
-261.331
-274.245
-285.589
-295.405
-303.741
-310.638
-316.128
-320.241
-322.996
-324.405
-324.458
-323.165
-320.489
-316.424
-310.961
-304.064
-295.692
-285.803
-274.345
-261.258
-246.496
-230.01
-211.764
-191.735
-169.902
-146.274
-120.892
-93.7971
-65.0828
-34.8838
-3.35386
29.2824
62.7643
96.8241
131.099
165.226
198.859
231.586
263.015
292.728
320.318
345.432
367.724
386.873
402.62
414.752
423.094
427.539
428.023
424.551
417.223
406.09
391.344
373.2
351.899
327.772
301.145
272.382
241.862
209.965
177.104
143.662
110.013
76.5177
43.4964
11.2403
-20.0242
-50.0161
-78.5839
-105.585
-130.916
-154.51
-176.325
-196.353
-214.6
-231.09
-245.857
-258.936
-270.364
-280.179
-288.413
-295.09
-300.243
-303.893
-306.063
-306.753
-305.993
-303.812
-300.226
-295.26
-288.932
-281.26
-272.257
-261.93
-250.278
-237.293
-222.958
-207.254
-190.159
-171.655
-151.726
-130.368
-107.593
-83.4295
-57.932
-31.1796
-3.27763
25.6527
55.4223
85.838
116.685
147.721
178.682
209.287
239.234
268.212
295.895
321.953
346.052
367.86
387.057
403.34
416.433
426.093
432.125
434.381
432.753
427.266
417.961
404.913
388.298
368.339
345.311
319.53
291.353
261.156
229.342
196.32
162.503
128.3
94.1118
60.3177
27.2712
-4.70063
-35.3284
-64.3733
-91.6481
-117.016
-140.392
-161.734
-181.041
-198.343
-213.697
-227.174
-238.861
-248.847
-257.227
-264.091
-269.526
-273.612
-276.421
-278.014
-278.441
-277.732
-275.918
-273.021
-269.044
-263.983
-257.827
-250.557
-242.148
-232.568
-221.781
-209.746
-196.418
-181.751
-165.699
-148.215
-129.258
-108.791
-86.7963
-63.2693
-38.234
-11.7406
16.1271
45.2625
75.546
106.651
138.377
170.442
202.514
234.22
265.154
294.884
322.966
348.953
372.411
392.926
410.121
423.66
433.258
438.695
439.808
436.517
428.897
417.003
401.023
381.233
357.971
331.637
302.674
271.553
238.763
204.792
170.122
135.218
100.516
66.4252
33.3647
1.49238
-28.8949
-57.6149
-84.5492
-109.63
-132.828
-154.148
-173.613
-191.262
-207.144
-221.305
-233.798
-244.682
-254.017
-261.876
-268.328
-273.439
-277.269
-279.863
-281.252
-281.442
-280.431
-278.217
-274.785
-270.107
-264.158
-256.905
-248.314
-238.349
-226.969
-214.133
-199.801
-183.938
-166.517
-147.521
-126.945
-104.793
-81.0871
-55.8667
-29.2016
-1.20091
27.9723
58.1098
91.0734
122.658
154.462
186.131
217.269
247.445
276.251
303.252
328.026
350.162
369.267
384.96
396.881
404.732
408.321
407.464
402.062
392.833
379.65
362.535
341.614
317.137
289.496
259.112
226.51
192.273
157.008
121.296
85.7461
50.9371
15.6754
-20.2875
-54.4699
-86.3281
-116.012
-143.513
-168.866
-192.069
-213.147
-232.148
-249.115
-264.103
-277.174
-288.387
-297.8
-305.457
-311.399
-315.659
-318.271
-319.203
-318.421
-316.132
-312.268
-306.781
-299.633
-290.747
-280.078
-267.594
-253.232
-236.966
-218.77
-198.624
-176.529
-152.512
-126.609
-98.9025
-69.519
-38.6066
-6.33942
27.0296
61.2718
96.0506
131.047
165.907
200.17
233.432
265.327
295.395
323.246
348.432
370.571
389.356
404.486
415.717
422.88
425.878
424.642
419.153
409.503
395.817
378.415
357.632
-213.402
-231.154
-247.293
-261.809
-274.704
-286.029
-295.827
-304.149
-311.033
-316.513
-320.618
-323.369
-324.774
-324.83
-323.542
-320.87
-316.813
-311.361
-304.476
-296.119
-286.247
-274.809
-261.742
-246.999
-230.531
-212.301
-192.285
-170.462
-146.838
-121.452
-94.3481
-65.6143
-35.3848
-3.81141
28.8823
62.4353
96.5786
130.946
165.176
198.919
231.764
263.316
293.153
320.864
346.093
368.492
387.736
403.563
415.757
424.143
428.61
429.095
425.61
418.238
407.046
392.224
373.989
352.586
328.348
301.602
272.719
242.078
210.064
177.09
143.543
109.8
76.22
43.1256
10.8083
-20.5024
-50.5321
-79.1265
-106.144
-131.482
-155.075
-176.883
-196.899
-215.131
-231.604
-246.354
-259.417
-270.829
-280.63
-288.851
-295.519
-300.663
-304.305
-306.466
-307.151
-306.387
-304.2
-300.61
-295.639
-289.309
-281.637
-272.635
-262.312
-250.667
-237.689
-223.364
-207.672
-190.588
-172.094
-152.174
-130.822
-108.047
-83.8794
-58.3704
-31.5986
-3.66946
25.2944
55.11
85.5789
116.487
147.592
178.631
209.32
239.358
268.433
296.218
322.381
346.585
368.498
387.795
404.17
417.343
427.069
433.147
435.428
433.81
428.305
418.956
405.847
389.151
369.097
345.96
320.062
291.761
261.439
229.5
196.357
162.423
128.111
93.824
59.9408
26.8183
-5.21719
-35.8948
-64.9752
-92.2715
-117.649
-141.022
-162.352
-181.639
-198.917
-214.243
-227.69
-239.347
-249.303
-257.654
-264.491
-269.902
-273.967
-276.757
-278.336
-278.751
-278.035
-276.217
-273.32
-269.344
-264.287
-258.138
-250.877
-242.479
-232.912
-222.14
-210.122
-196.811
-182.162
-166.129
-148.663
-129.723
-109.27
-87.2851
-63.762
-38.7234
-12.2189
15.6692
44.833
75.1741
106.335
138.133
170.284
202.456
234.275
265.332
295.195
323.414
349.537
373.128
393.767
411.074
424.707
434.379
439.863
440.998
437.704
430.041
418.078
402.005
382.099
358.705
332.228
303.115
271.844
238.907
204.796
169.997
134.976
100.174
66.0016
32.859
0.940349
-29.4779
-58.2148
-85.1535
-110.228
-133.414
-154.715
-174.16
-191.787
-207.647
-221.787
-234.259
-245.121
-254.434
-262.271
-268.703
-273.796
-277.613
-280.198
-281.581
-281.77
-280.763
-278.555
-275.128
-270.46
-264.521
-257.28
-248.702
-238.752
-227.387
-214.566
-200.249
-184.4
-166.991
-148.004
-127.434
-105.285
-81.5772
-56.3474
-29.6616
-1.62335
27.6161
57.8927
90.657
122.408
154.335
186.123
217.381
247.684
276.623
303.757
328.664
350.924
370.147
385.947
397.964
405.887
409.525
408.686
403.275
394.022
380.787
363.587
342.548
317.921
290.108
259.542
226.757
192.351
156.935
121.097
85.4373
50.5101
15.1074
-20.9034
-55.1187
-86.9875
-116.671
-144.165
-169.506
-192.695
-213.755
-232.738
-249.685
-264.653
-277.706
-288.902
-298.299
-305.945
-311.878
-316.133
-318.737
-319.664
-318.885
-316.601
-312.746
-307.268
-300.132
-291.26
-280.604
-268.137
-253.79
-237.54
-219.357
-199.221
-177.133
-153.116
-127.206
-99.4827
-70.0731
-39.1232
-6.8086
26.6181
60.9302
95.7947
130.891
165.863
200.244
233.63
265.654
295.854
323.837
349.15
371.405
390.292
405.508
416.806
424.014
427.03
425.789
420.267
410.562
396.804
379.311
358.421
-214.011
-231.744
-247.862
-262.355
-275.228
-286.532
-296.311
-304.615
-311.485
-316.953
-321.05
-323.794
-325.197
-325.254
-323.971
-321.305
-317.257
-311.817
-304.947
-296.608
-286.756
-275.339
-262.295
-247.574
-231.127
-212.916
-192.915
-171.102
-147.483
-122.094
-94.9791
-66.2232
-35.9591
-4.33618
28.4232
62.0576
96.2964
130.771
165.117
198.987
231.967
263.658
293.637
321.487
346.849
369.371
388.723
404.642
416.907
425.342
429.835
430.323
426.821
419.4
408.139
393.231
374.893
353.372
329.005
302.125
273.103
242.324
210.175
177.072
143.406
109.555
75.878
42.7002
10.3132
-21.0506
-51.1234
-79.7479
-106.784
-132.13
-155.722
-177.521
-197.523
-215.738
-232.192
-246.922
-259.966
-271.361
-281.145
-289.352
-296.008
-301.143
-304.776
-306.928
-307.607
-306.837
-304.643
-301.048
-296.073
-289.74
-282.068
-273.068
-262.749
-251.11
-238.142
-223.829
-208.149
-191.079
-172.597
-152.687
-131.342
-108.568
-84.3947
-58.8724
-32.0789
-4.11886
24.8837
54.7518
85.2813
116.259
147.444
178.571
209.356
239.498
268.684
296.586
322.869
347.195
369.228
388.639
405.12
418.385
428.185
434.317
436.628
435.019
429.494
420.095
406.915
390.128
369.964
346.702
320.67
292.228
261.762
229.68
196.397
162.33
127.894
93.4931
59.508
26.2987
-5.80986
-36.5444
-65.6652
-92.986
-118.373
-141.743
-163.06
-182.325
-199.574
-214.868
-228.281
-239.902
-249.824
-258.142
-264.948
-270.332
-274.372
-277.142
-278.703
-279.105
-278.381
-276.559
-273.66
-269.687
-264.635
-258.493
-251.242
-242.857
-233.305
-222.55
-210.551
-197.26
-182.632
-166.62
-149.176
-130.255
-109.819
-87.8447
-64.3262
-39.2844
-12.7667
15.1442
44.3389
74.7481
105.972
137.851
170.101
202.388
234.336
265.535
295.549
323.924
350.204
373.947
394.729
412.164
425.906
435.661
441.201
442.36
439.062
431.351
419.309
403.129
383.09
359.545
332.903
303.619
272.175
239.07
204.799
169.852
134.697
99.7798
65.5118
32.2809
0.307755
-30.1464
-58.9023
-85.8458
-110.914
-134.085
-155.365
-174.786
-192.388
-208.224
-222.339
-234.786
-245.624
-254.911
-262.722
-269.131
-274.204
-278.006
-280.58
-281.957
-282.145
-281.142
-278.94
-275.522
-270.864
-264.937
-257.709
-249.146
-239.212
-227.865
-215.062
-200.762
-184.928
-167.533
-148.557
-127.994
-105.849
-82.1388
-56.8986
-30.1897
-2.11056
27.2014
57.6114
90.2097
122.126
154.19
186.112
217.507
247.958
277.048
304.334
329.392
351.797
371.154
387.076
399.202
407.209
410.902
410.087
404.665
395.385
382.09
364.793
343.616
318.817
290.808
260.032
227.038
192.437
156.849
120.866
85.0853
50.0249
14.4518
-21.6149
-55.862
-87.7426
-117.424
-144.91
-170.238
-193.411
-214.451
-233.411
-250.336
-265.281
-278.313
-289.489
-298.87
-306.501
-312.424
-316.673
-319.269
-320.191
-319.414
-317.137
-313.291
-307.825
-300.703
-291.847
-281.206
-268.757
-254.429
-238.196
-220.029
-199.905
-177.823
-153.807
-127.889
-100.147
-70.7078
-39.7149
-7.34634
26.146
60.5377
95.5
130.712
165.812
200.328
233.855
266.026
296.377
324.512
349.971
372.36
391.364
406.679
418.051
425.31
428.348
427.101
421.544
411.775
397.934
380.335
359.324
-214.697
-232.408
-248.501
-262.97
-275.817
-287.097
-296.854
-305.139
-311.992
-317.448
-321.535
-324.273
-325.672
-325.731
-324.453
-321.794
-317.756
-312.329
-305.476
-297.157
-287.328
-275.935
-262.917
-248.222
-231.798
-213.608
-193.625
-171.823
-148.209
-122.818
-95.6906
-66.9102
-36.6074
-4.92889
27.9044
61.6305
95.977
130.572
165.049
199.062
232.193
264.043
294.182
322.189
347.7
370.36
389.835
405.857
418.203
426.694
431.216
431.708
428.184
420.709
409.372
394.366
375.91
354.256
329.745
302.713
273.535
242.599
210.298
177.05
143.25
109.277
75.4912
42.2196
9.75446
-21.6695
-51.7906
-80.4487
-107.505
-132.861
-156.451
-178.24
-198.226
-216.421
-232.853
-247.561
-260.584
-271.959
-281.725
-289.915
-296.559
-301.683
-305.306
-307.448
-308.12
-307.342
-305.142
-301.541
-296.561
-290.226
-282.552
-273.555
-263.241
-251.61
-238.652
-224.352
-208.686
-191.631
-173.163
-153.265
-131.927
-109.155
-84.9758
-59.4386
-32.6211
-4.62675
24.4205
54.3471
84.9449
116.002
147.276
178.502
209.395
239.655
268.966
296.999
323.418
347.881
370.049
389.59
406.189
419.559
429.444
435.637
437.982
436.382
430.833
421.38
408.12
391.229
370.94
347.538
321.353
292.752
262.124
229.881
196.441
162.224
127.648
93.1182
59.0186
25.7115
-6.47965
-37.278
-66.4442
-93.7925
-119.191
-142.557
-163.858
-183.098
-200.315
-215.571
-228.946
-240.527
-250.41
-258.691
-265.463
-270.815
-274.828
-277.575
-279.117
-279.504
-278.773
-276.943
-274.043
-270.072
-265.026
-258.893
-251.654
-243.283
-233.747
-223.012
-211.034
-197.765
-183.161
-167.173
-149.753
-130.854
-110.437
-88.4755
-64.9626
-39.9173
-13.3848
14.5513
43.7789
74.268
105.561
137.532
169.892
202.308
234.402
265.761
295.945
324.497
350.954
374.869
395.813
413.393
427.257
437.107
442.71
443.898
440.591
432.828
420.698
404.395
384.206
360.49
333.662
304.184
272.546
239.251
204.799
169.685
134.38
99.3324
64.955
31.6292
-0.406451
-30.9011
-59.6784
-86.627
-111.687
-134.84
-156.097
-175.491
-193.065
-208.872
-222.96
-235.379
-246.189
-255.448
-263.23
-269.612