/*--------------------------------*- C++ -*----------------------------------*\
| =========                 |                                                 |
| \\      /  F ield         | OpenFOAM: The Open Source CFD Toolbox           |
|  \\    /   O peration     | Version:  3.0.1                                 |
|   \\  /    A nd           | Web:      www.OpenFOAM.org                      |
|    \\/     M anipulation  |                                                 |
\*---------------------------------------------------------------------------*/
FoamFile
{
    version     2.0;
    format      ascii;
    class       surfaceScalarField;
    location    "92";
    object      alphaPhi;
}
// * * * * * * * * * * * * * * * * * * * * * * * * * * * * * * * * * * * * * //

dimensions      [0 3 -1 0 0 0 0];

internalField   nonuniform List<scalar> 
42423
(
-0.000110636
1.02546e-05
-0.000119873
9.23666e-06
-0.000128212
8.33911e-06
-0.000135676
7.4638e-06
-0.000142282
6.60641e-06
-0.00014808
5.79738e-06
-0.000153097
5.01772e-06
-0.000157366
4.2685e-06
-0.000160915
3.5486e-06
-0.00016374
2.8254e-06
-0.000165876
2.13631e-06
-0.000167337
1.46068e-06
-0.000168154
8.16939e-07
-0.000168301
1.46708e-07
-0.000167699
-6.01935e-07
-0.000166402
-1.29649e-06
-0.000164481
-1.92072e-06
-0.000161721
-2.76003e-06
-0.000158225
-3.49674e-06
-0.000154037
-4.1875e-06
-0.000148988
-5.04969e-06
-0.00014303
-5.95772e-06
-0.000136296
-6.73373e-06
-0.000128511
-7.78481e-06
-0.000119821
-8.68997e-06
-0.000110126
-9.69513e-06
-9.93545e-05
-1.07717e-05
-8.76483e-05
-1.17062e-05
-7.48035e-05
-1.28448e-05
-6.08813e-05
-1.39222e-05
-4.61129e-05
-1.47684e-05
-3.02174e-05
-1.58956e-05
-1.34923e-05
-1.67251e-05
4.23577e-06
-1.77281e-05
2.26409e-05
-1.84051e-05
4.1436e-05
-1.87952e-05
6.0679e-05
-1.92429e-05
8.01165e-05
-1.94376e-05
9.93768e-05
-1.92603e-05
0.000118411
-1.9034e-05
0.000136811
-1.83999e-05
0.00015442
-1.76099e-05
0.000170982
-1.65614e-05
0.000186084
-1.51021e-05
0.000199582
-1.3498e-05
0.000211286
-1.17043e-05
0.000220831
-9.5446e-06
0.000228198
-7.36731e-06
0.000233246
-5.04821e-06
0.000235791
-2.54525e-06
0.000235851
-5.9546e-08
0.000233319
2.53236e-06
0.000228357
4.96156e-06
0.000221134
7.22291e-06
0.000211679
9.45461e-06
0.000200142
1.15379e-05
0.000186891
1.32502e-05
0.000171984
1.49074e-05
0.000155671
1.63132e-05
0.000138346
1.73244e-05
0.000120195
1.81512e-05
0.000101352
1.8843e-05
8.21578e-05
1.91943e-05
6.28863e-05
1.92716e-05
4.36776e-05
1.92086e-05
2.47775e-05
1.89001e-05
6.34447e-06
1.8433e-05
-1.15003e-05
1.78448e-05
-2.8632e-05
1.71317e-05
-4.50713e-05
1.64393e-05
-6.06296e-05
1.55583e-05
-7.52827e-05
1.46531e-05
-8.90392e-05
1.37565e-05
-0.000101799
1.27601e-05
-0.000113539
1.17398e-05
-0.000124293
1.07539e-05
-0.00013406
9.76655e-06
-0.000142923
8.86319e-06
-0.000150718
7.79516e-06
-0.000157623
6.90506e-06
-0.000163531
5.90715e-06
-0.000168473
4.94239e-06
-0.000172414
3.94042e-06
-0.000175453
3.03857e-06
-0.000177434
1.98155e-06
-0.000178388
9.53444e-07
-0.000178299
-8.98918e-08
-0.000177153
-1.14628e-06
-0.000175123
-2.03021e-06
-0.00017239
-2.73352e-06
-0.000168955
-3.43503e-06
-0.000164926
-4.02917e-06
-0.000160342
-4.58496e-06
-0.000155192
-5.14996e-06
-0.000149464
-5.72871e-06
-0.000143075
-6.38924e-06
-0.000136025
-7.0498e-06
-0.000128219
-7.80648e-06
-0.000119616
-8.603e-06
-0.000110205
-9.41126e-06
-9.99222e-05
-1.02833e-05
-8.87408e-05
-1.11816e-05
-7.66708e-05
-1.20701e-05
-6.37168e-05
-1.29541e-05
-4.98736e-05
-1.38433e-05
-3.52369e-05
-1.46368e-05
-1.98372e-05
-1.53998e-05
-3.7514e-06
-1.60859e-05
1.29182e-05
-1.66697e-05
3.01148e-05
-1.71967e-05
4.76914e-05
-1.75766e-05
6.55015e-05
-1.78101e-05
8.3375e-05
-1.78736e-05
0.000101124
-1.77488e-05
0.000118523
-1.73991e-05
0.00013536
-1.68374e-05
0.00015142
-1.60595e-05
0.000166407
-1.49875e-05
0.00018014
-1.37326e-05
0.000192271
-1.21311e-05
0.000202676
-1.04048e-05
0.000211073
-8.39684e-06
0.000217293
-6.22063e-06
0.000221174
-3.88061e-06
0.000222616
-1.44193e-06
0.000221605
1.011e-06
0.000217992
3.61272e-06
0.000211934
6.05824e-06
0.000203483
8.45145e-06
0.000192878
1.06047e-05
0.000180192
1.26862e-05
0.000165695
1.44966e-05
0.000149693
1.60018e-05
0.00013238
1.73135e-05
0.000114062
1.83178e-05
9.50379e-05
1.90241e-05
7.55623e-05
1.94756e-05
5.59347e-05
1.96276e-05
3.63761e-05
1.95585e-05
1.71306e-05
1.92455e-05
-1.65324e-06
1.87838e-05
-1.97215e-05
1.80683e-05
-3.69405e-05
1.7219e-05
-5.33142e-05
1.63737e-05
-6.86167e-05
1.53025e-05
-8.28261e-05
1.42094e-05
-9.59033e-05
1.30772e-05
-0.000107796
1.18926e-05
-0.000118615
1.08197e-05
-0.000128428
9.81302e-06
-0.000137252
8.82354e-06
-0.000145145
7.89324e-06
-0.000152104
6.95927e-06
-0.000158175
6.0705e-06
-0.000163438
5.26316e-06
-0.000167879
4.44061e-06
-0.000171547
3.66837e-06
-0.00017446
2.9132e-06
-0.000176756
2.29614e-06
-0.000178331
1.57501e-06
-0.000179302
9.71189e-07
-0.000179658
3.55209e-07
-0.000179444
-2.13087e-07
-0.000178601
-8.43257e-07
-0.000177198
-1.40341e-06
-0.000175165
-2.0331e-06
-0.0001725
-2.66437e-06
-0.000169238
-3.2618e-06
-0.000165272
-3.96637e-06
-0.000160564
-4.70825e-06
-0.000155254
-5.30927e-06
-0.000149128
-6.12631e-06
-0.000142215
-6.91305e-06
-0.000134488
-7.72715e-06
-0.000125913
-8.57423e-06
-0.000116473
-9.44022e-06
-0.000106076
-1.03971e-05
-9.48333e-05
-1.12429e-05
-8.26152e-05
-1.22181e-05
-6.94673e-05
-1.31479e-05
-5.53833e-05
-1.4084e-05
-4.04728e-05
-1.49105e-05
-2.48889e-05
-1.55839e-05
-8.64905e-06
-1.62399e-05
8.11896e-06
-1.67681e-05
2.53364e-05
-1.72175e-05
4.28201e-05
-1.74837e-05
6.04185e-05
-1.75984e-05
7.79179e-05
-1.74995e-05
9.512e-05
-1.72022e-05
0.000111793
-1.66735e-05
0.000127659
-1.58659e-05
0.000142466
-1.48067e-05
0.000155964
-1.3498e-05
0.000167866
-1.1902e-05
0.000177875
-1.00089e-05
0.000185802
-7.9275e-06
0.000191377
-5.575e-06
0.00019454
-3.16261e-06
0.000195203
-6.63416e-07
0.000193402
1.80061e-06
0.000189045
4.35737e-06
0.000182377
6.66846e-06
0.000173492
8.88421e-06
0.000162548
1.09447e-05
0.000149758
1.27895e-05
0.000135408
1.43499e-05
0.000119738
1.56702e-05
0.000102933
1.68048e-05
8.53576e-05
1.75756e-05
6.7283e-05
1.80745e-05
4.89061e-05
1.83769e-05
3.05447e-05
1.83614e-05
1.22896e-05
1.82551e-05
-5.58592e-06
1.78755e-05
-2.29492e-05
1.73632e-05
-3.9642e-05
1.66929e-05
-5.55695e-05
1.59275e-05
-7.0704e-05
1.51345e-05
-8.48839e-05
1.41799e-05
-9.81279e-05
1.32441e-05
-0.00011038
1.22518e-05
-0.000121659
1.1279e-05
-0.000131954
1.02949e-05
-0.000141301
9.34726e-06
-0.000149736
8.43475e-06
-0.00015728
7.54434e-06
-0.000163906
6.62632e-06
-0.000169699
5.79311e-06
-0.000174746
5.04708e-06
-0.000178941
4.19474e-06
-0.000182391
3.45056e-06
-0.000185171
2.77961e-06
-0.000187254
2.0836e-06
-0.000188713
1.45914e-06
-0.000189586
8.72933e-07
-0.000189923
3.37321e-07
-0.000189683
-2.40291e-07
-0.00018891
-7.73272e-07
-0.000187566
-1.34384e-06
-0.000185616
-1.94979e-06
-0.000183044
-2.5713e-06
-0.000179821
-3.22294e-06
-0.000176116
-3.70451e-06
-0.000171791
-4.3255e-06
-0.000166895
-4.89507e-06
-0.000161441
-5.45407e-06
-0.000155304
-6.13666e-06
-0.000148571
-6.73264e-06
-0.000141051
-7.52033e-06
-0.000132761
-8.2894e-06
-0.000123605
-9.15622e-06
-0.000113523
-1.00816e-05
-0.000102538
-1.09852e-05
-9.05967e-05
-1.19411e-05
-7.79101e-05
-1.26865e-05
-6.4334e-05
-1.35761e-05
-4.99993e-05
-1.43346e-05
-3.50244e-05
-1.49749e-05
-1.94784e-05
-1.5546e-05
-3.4862e-06
-1.59922e-05
1.2843e-05
-1.63293e-05
2.93392e-05
-1.64962e-05
4.58358e-05
-1.64966e-05
6.21058e-05
-1.62701e-05
7.79339e-05
-1.58283e-05
9.31593e-05
-1.52254e-05
0.000107457
-1.42976e-05
0.000120566
-1.31096e-05
0.000132361
-1.17947e-05
0.00014261
-1.02493e-05
0.000151144
-8.53398e-06
0.00015778
-6.63647e-06
0.000162466
-4.68604e-06
0.000165014
-2.54752e-06
0.000165528
-5.14341e-07
0.000164064
1.46428e-06
0.000160574
3.48968e-06
0.000155267
5.30729e-06
0.000148276
6.99062e-06
0.00013958
8.6956e-06
0.000129332
1.02486e-05
0.000117644
1.16882e-05
0.000104723
1.29204e-05
9.06856e-05
1.40376e-05
7.57603e-05
1.49253e-05
6.00804e-05
1.56798e-05
4.39945e-05
1.60859e-05
2.75871e-05
1.64075e-05
1.13477e-05
1.62394e-05
-4.74164e-06
1.60893e-05
-2.03522e-05
1.56106e-05
-3.53684e-05
1.50162e-05
-4.9687e-05
1.43186e-05
-6.31576e-05
1.34705e-05
-7.57325e-05
1.25749e-05
-8.73907e-05
1.16582e-05
-9.80733e-05
1.06826e-05
-0.000107813
9.73984e-06
-0.000116634
8.82131e-06
-0.000124566
7.93171e-06
-0.000131686
7.12032e-06
-0.000138011
6.32481e-06
-0.000143624
5.61314e-06
-0.000148618
4.99323e-06
-0.000153009
4.3915e-06
-0.000156868
3.85865e-06
-0.000160242
3.37398e-06
-0.000163157
2.91515e-06
-0.000165635
2.47818e-06
-0.000167688
2.053e-06
-0.000169254
1.56558e-06
-0.000170335
1.08163e-06
-0.000170881
5.46112e-07
-0.000170797
-8.48012e-08
-0.000170063
-7.33971e-07
-0.000168549
-1.51346e-06
-0.000166262
-2.28741e-06
-0.000163168
-3.09342e-06
-0.000159099
-4.06963e-06
-0.000154057
-5.04142e-06
-0.000148027
-6.03029e-06
-0.000140835
-7.19162e-06
-0.000132621
-8.21394e-06
-0.000123252
-9.36919e-06
-0.000112788
-1.04641e-05
-0.000101292
-1.14961e-05
-8.87008e-05
-1.25912e-05
-7.5144e-05
-1.35569e-05
-6.07817e-05
-1.43623e-05
-4.5527e-05
-1.52547e-05
-2.95553e-05
-1.59717e-05
-1.31123e-05
-1.6443e-05
3.80547e-06
-1.69177e-05
2.09439e-05
-1.71385e-05
3.82049e-05
-1.7261e-05
5.54251e-05
-1.72202e-05
7.22601e-05
-1.6835e-05
8.85833e-05
-1.63232e-05
0.00010424
-1.56569e-05
0.000118989
-1.47484e-05
0.000132632
-1.3643e-05
0.000145024
-1.23929e-05
0.000156046
-1.10216e-05
0.000165492
-9.44626e-06
0.000173249
-7.75642e-06
0.000179239
-5.99024e-06
0.000183397
-4.15834e-06
0.000185666
-2.26842e-06
0.000186019
-3.53674e-07
0.000184314
1.70507e-06
0.000180665
3.64929e-06
0.000175153
5.51159e-06
0.000167818
7.33526e-06
0.000158905
8.9128e-06
0.000148407
1.04977e-05
1.19747e-05
-0.000110677
2.05119e-05
-0.000119914
1.84729e-05
-0.000128254
1.66795e-05
-0.000135719
1.49284e-05
-0.000142326
1.32137e-05
-0.000148125
1.15963e-05
-0.000153145
1.00382e-05
-0.000157413
8.53612e-06
-0.000160958
7.09391e-06
-0.000163786
5.65312e-06
-0.000165923
4.2735e-06
-0.000167386
2.92322e-06
-0.000168201
1.63241e-06
-0.000168347
2.93046e-07
-0.000167745
-1.20457e-06
-0.000166449
-2.59258e-06
-0.000164523
-3.84677e-06
-0.000161768
-5.51421e-06
-0.000158274
-6.99141e-06
-0.000154092
-8.36881e-06
-0.000149038
-1.01042e-05
-0.000143082
-1.1914e-05
-0.000136351
-1.34643e-05
-0.000128565
-1.55707e-05
-0.000119877
-1.73783e-05
-0.000110184
-1.93887e-05
-9.94084e-05
-2.1547e-05
-8.77036e-05
-2.3411e-05
-7.48595e-05
-2.5689e-05
-6.09412e-05
-2.78405e-05
-4.61613e-05
-2.95483e-05
-3.02607e-05
-3.17963e-05
-1.35154e-05
-3.34704e-05
4.20739e-06
-3.54509e-05
2.26211e-05
-3.68189e-05
4.14204e-05
-3.75945e-05
6.06696e-05
-3.84922e-05
8.01225e-05
-3.88905e-05
9.93967e-05
-3.85346e-05
0.000118437
-3.80744e-05
0.000136852
-3.68152e-05
0.000154481
-3.52381e-05
0.000171048
-3.31293e-05
0.000186161
-3.0215e-05
0.000199676
-2.70126e-05
0.000211391
-2.34198e-05
0.000220939
-1.90921e-05
0.000228311
-1.47394e-05
0.000233365
-1.01024e-05
0.000235914
-5.09456e-06
0.000235973
-1.18084e-07
0.000233437
5.06847e-06
0.000228481
9.91761e-06
0.000221251
1.44528e-05
0.000211793
1.89122e-05
0.000200245
2.30861e-05
0.000186985
2.65101e-05
0.00017207
2.98221e-05
0.000155743
3.264e-05
0.000138406
3.46614e-05
0.000120248
3.63098e-05
0.000101391
3.76991e-05
8.21861e-05
3.83995e-05
6.29016e-05
3.85561e-05
4.36814e-05
3.84289e-05
2.47707e-05
3.78108e-05
6.32765e-06
3.6876e-05
-1.15291e-05
3.57015e-05
-2.86727e-05
3.42752e-05
-4.51265e-05
3.28931e-05
-6.06885e-05
3.11203e-05
-7.53473e-05
2.93119e-05
-8.91059e-05
2.7515e-05
-0.000101869
2.55228e-05
-0.000113614
2.34853e-05
-0.000124369
2.15087e-05
-0.00013413
1.95278e-05
-0.000142995
1.77283e-05
-0.000150788
1.55879e-05
-0.000157692
1.38085e-05
-0.000163599
1.18144e-05
-0.000168529
9.87171e-06
-0.000172477
7.88894e-06
-0.000175519
6.07953e-06
-0.000177497
3.95936e-06
-0.00017844
1.89652e-06
-0.000178341
-1.89738e-07
-0.000177192
-2.29493e-06
-0.000175153
-4.07034e-06
-0.000172404
-5.48277e-06
-0.000168958
-6.88083e-06
-0.000164924
-8.06347e-06
-0.000160334
-9.17569e-06
-0.000155176
-1.03085e-05
-0.000149445
-1.14601e-05
-0.000143063
-1.2771e-05
-0.000136015
-1.40979e-05
-0.00012822
-1.56026e-05
-0.000119625
-1.71974e-05
-0.000110222
-1.88149e-05
-9.99423e-05
-2.05632e-05
-8.87597e-05
-2.23643e-05
-7.6689e-05
-2.41409e-05
-6.37356e-05
-2.59077e-05
-4.99006e-05
-2.76784e-05
-3.5267e-05
-2.92705e-05
-1.98652e-05
-3.08016e-05
-3.77877e-06
-3.21724e-05
1.29001e-05
-3.33486e-05
3.01044e-05
-3.4401e-05
4.76851e-05
-3.51574e-05
6.55058e-05
-3.56308e-05
8.33787e-05
-3.57466e-05
0.00010114
-3.55103e-05
0.000118537
-3.4796e-05
0.000135388
-3.36883e-05
0.000151465
-3.2137e-05
0.000166462
-2.99845e-05
0.000180201
-2.74717e-05
0.000192341
-2.42703e-05
0.000202746
-2.08096e-05
0.000211135
-1.67865e-05
0.000217348
-1.24339e-05
0.000221223
-7.75547e-06
0.000222663
-2.882e-06
0.000221623
2.05164e-06
0.000218021
7.21402e-06
0.000211927
1.21528e-05
0.000203472
1.69068e-05
0.0001928
2.12759e-05
0.000180118
2.53682e-05
0.000165605
2.90099e-05
0.000149579
3.20285e-05
0.000132242
3.46499e-05
0.000113903
3.66574e-05
9.48507e-05
3.8076e-05
7.53521e-05
3.89741e-05
5.57059e-05
3.92739e-05
3.61416e-05
3.91229e-05
1.68708e-05
3.85163e-05
-1.90103e-06
3.75557e-05
-1.99851e-05
3.61524e-05
-3.72427e-05
3.44766e-05
-5.35788e-05
3.27098e-05
-6.88862e-05
3.061e-05
-8.30935e-05
2.84167e-05
-9.61623e-05
2.61461e-05
-0.000108027
2.37578e-05
-0.000118899
2.16911e-05
-0.0001287
1.9614e-05
-0.000137496
1.76198e-05
-0.000145327
1.57247e-05
-0.00015232
1.39524e-05
-0.00015839
1.21403e-05
-0.000163636
1.05094e-05
-0.000168068
8.87242e-06
-0.000171738
7.3384e-06
-0.000174634
5.80924e-06
-0.000176928
4.58993e-06
-0.000178506
3.15288e-06
-0.000179472
1.9371e-06
-0.000179828
7.1142e-07
-0.000179606
-4.35327e-07
-0.000178756
-1.69233e-06
-0.000177346
-2.8139e-06
-0.000175309
-4.07007e-06
-0.000172645
-5.32862e-06
-0.000169371
-6.53528e-06
-0.000165409
-7.92819e-06
-0.000160699
-9.41848e-06
-0.000155389
-1.06197e-05
-0.00014925
-1.22645e-05
-0.000142345
-1.38183e-05
-0.000134613
-1.54592e-05
-0.000126035
-1.71518e-05
-0.000116589
-1.88864e-05
-0.000106191
-2.07953e-05
-9.49551e-05
-2.24788e-05
-8.2727e-05
-2.44463e-05
-6.95665e-05
-2.63084e-05
-5.54588e-05
-2.81917e-05
-4.05764e-05
-2.9793e-05
-2.50086e-05
-3.11517e-05
-8.75307e-06
-3.24954e-05
8.04011e-06
-3.35613e-05
2.52632e-05
-3.44407e-05
4.27536e-05
-3.49741e-05
6.03656e-05
-3.52104e-05
7.78732e-05
-3.50072e-05
9.50841e-05
-3.44131e-05
0.000111747
-3.33368e-05
0.00012762
-3.17384e-05
0.00014245
-2.96372e-05
0.000155953
-2.70009e-05
0.000167859
-2.38079e-05
0.00017786
-2.001e-05
0.000185785
-1.58528e-05
0.000191367
-1.11567e-05
0.000194522
-6.31771e-06
0.000195172
-1.31359e-06
0.000193329
3.64407e-06
0.000188986
8.69961e-06
0.000182302
1.33529e-05
0.000173386
1.78006e-05
0.000162448
2.18826e-05
0.000149656
2.55817e-05
0.00013528
2.87258e-05
0.000119583
3.1367e-05
0.000102776
3.36116e-05
8.51821e-05
3.51696e-05
6.70892e-05
3.61675e-05
4.87034e-05
3.67627e-05
3.03147e-05
3.67501e-05
1.20786e-05
3.64912e-05
-5.77589e-06
3.573e-05
-2.31672e-05
3.47545e-05
-3.9867e-05
3.33927e-05
-5.58152e-05
3.18758e-05
-7.09237e-05
3.0243e-05
-8.51002e-05
2.83564e-05
-9.83343e-05
2.64782e-05
-0.00011059
2.45076e-05
-0.000121847
2.25356e-05
-0.000132166
2.06141e-05
-0.000141504
1.86858e-05
-0.000149928
1.6859e-05
-0.000157468
1.50835e-05
-0.000164095
1.32535e-05
-0.000169912
1.16107e-05
-0.000174923
1.00582e-05
-0.000179119
8.39002e-06
-0.000182548
6.88032e-06
-0.00018534
5.57169e-06
-0.000187432
4.17582e-06
-0.000188886
2.91325e-06
-0.000189713
1.69949e-06
-0.000190082
7.06267e-07
-0.000189841
-4.80923e-07
-0.000189076
-1.53773e-06
-0.000187731
-2.68891e-06
-0.000185784
-3.89626e-06
-0.000183217
-5.1389e-06
-0.000179992
-6.44707e-06
-0.000176286
-7.41005e-06
-0.000171959
-8.65291e-06
-0.000167043
-9.81038e-06
-0.000161599
-1.08981e-05
-0.000155451
-1.22843e-05
-0.000148738
-1.34453e-05
-0.000141178
-1.50806e-05
-0.000132905
-1.65623e-05
-0.000123736
-1.83253e-05
-0.00011365
-2.01673e-05
-0.000102666
-2.19693e-05
-9.07567e-05
-2.38501e-05
-7.80132e-05
-2.54299e-05
-6.44378e-05
-2.71515e-05
-5.00879e-05
-2.86845e-05
-3.50999e-05
-2.99629e-05
-1.95435e-05
-3.11023e-05
-3.53738e-06
-3.19984e-05
1.28026e-05
-3.26693e-05
2.93079e-05
-3.30016e-05
4.58215e-05
-3.30103e-05
6.21056e-05
-3.25542e-05
7.79467e-05
-3.16695e-05
9.3181e-05
-3.04598e-05
0.000107496
-2.86123e-05
0.000120634
-2.62481e-05
0.000132432
-2.35927e-05
0.000142689
-2.05066e-05
0.000151229
-1.70735e-05
0.000157872
-1.32802e-05
0.000162566
-9.38012e-06
0.000165113
-5.09426e-06
0.00016563
-1.03118e-06
0.000164157
2.93727e-06
0.000160666
6.97987e-06
0.000155365
1.06082e-05
0.000148364
1.39919e-05
0.000139664
1.73952e-05
0.000129405
2.05082e-05
0.000117711
2.33815e-05
0.000104785
2.58463e-05
9.07392e-05
2.80839e-05
7.58052e-05
2.98593e-05
6.01132e-05
3.13719e-05
4.40196e-05
3.21795e-05
2.75973e-05
3.28297e-05
1.1349e-05
3.24876e-05
-4.75118e-06
3.21895e-05
-2.03718e-05
3.12312e-05
-3.53972e-05
3.00415e-05
-4.97222e-05
2.86436e-05
-6.31974e-05
2.69458e-05
-7.57766e-05
2.51541e-05
-8.74374e-05
2.33189e-05
-9.81221e-05
2.13673e-05
-0.000107867
1.94851e-05
-0.000116689
1.76434e-05
-0.000124618
1.58605e-05
-0.000131739
1.42414e-05
-0.000138066
1.26513e-05
-0.000143671
1.1218e-05
-0.000148661
9.98352e-06
-0.000153052
8.78309e-06
-0.000156911
7.71759e-06
-0.000160285
6.74706e-06
-0.000163199
5.82966e-06
-0.000165678
4.9571e-06
-0.000167735
4.10975e-06
-0.000169299
3.12983e-06
-0.000170381
2.16361e-06
-0.00017093
1.09507e-06
-0.000170849
-1.6552e-07
-0.000170119
-1.4644e-06
-0.000168608
-3.02463e-06
-0.000166322
-4.57324e-06
-0.00016323
-6.18564e-06
-0.00015916
-8.13903e-06
-0.000154117
-1.00849e-05
-0.00014809
-1.20566e-05
-0.000140899
-1.43828e-05
-0.000132685
-1.64282e-05
-0.000123314
-1.87406e-05
-0.000112849
-2.09283e-05
-0.000101347
-2.29982e-05
-8.8752e-05
-2.51867e-05
-7.5191e-05
-2.71178e-05
-6.08256e-05
-2.87277e-05
-4.55643e-05
-3.0516e-05
-2.95843e-05
-3.19518e-05
-1.31347e-05
-3.28926e-05
3.78832e-06
-3.38408e-05
2.09389e-05
-3.42891e-05
3.82161e-05
-3.45383e-05
5.5443e-05
-3.44471e-05
7.22865e-05
-3.36785e-05
8.86275e-05
-3.26642e-05
0.000104292
-3.13212e-05
0.000119045
-2.9502e-05
0.000132702
-2.73e-05
0.000145101
-2.47921e-05
0.000156125
-2.20457e-05
0.000165578
-1.88984e-05
0.000173339
-1.55181e-05
0.000179332
-1.19828e-05
0.000183489
-8.31521e-06
0.000185758
-4.53748e-06
0.00018611
-7.0598e-07
0.000184394
3.42105e-06
0.000180743
7.30031e-06
0.000175228
1.10267e-05
0.000167886
1.46767e-05
0.000158967
1.78317e-05
0.000148463
2.10021e-05
2.39573e-05
-0.000110754
3.077e-05
-0.00011999
2.77089e-05
-0.000128331
2.50197e-05
-0.000135794
2.23918e-05
-0.000142401
1.9821e-05
-0.000148199
1.73942e-05
-0.00015322
1.50588e-05
-0.000157491
1.2807e-05
-0.000161035
1.06379e-05
-0.000163859
8.47787e-06
-0.000165997
6.41082e-06
-0.00016746
4.38671e-06
-0.000168267
2.43899e-06
-0.000168401
4.26798e-07
-0.000167796
-1.80946e-06
-0.000166506
-3.88266e-06
-0.000164577
-5.77577e-06
-0.000161824
-8.26676e-06
-0.000158334
-1.04819e-05
-0.000154166
-1.25361e-05
-0.000149102
-1.51685e-05
-0.000143149
-1.78667e-05
-0.000136427
-2.0187e-05
-0.000128639
-2.33583e-05
-0.000119953
-2.60647e-05
-0.000110268
-2.90734e-05
-9.94878e-05
-3.23271e-05
-8.77859e-05
-3.51128e-05
-7.4947e-05
-3.85279e-05
-6.10443e-05
-4.17433e-05
-4.6241e-05
-4.43516e-05
-3.03344e-05
-4.7703e-05
-1.35566e-05
-5.02482e-05
4.15993e-06
-5.31675e-05
2.25848e-05
-5.52437e-05
4.13951e-05
-5.64049e-05
6.06661e-05
-5.77632e-05
8.01372e-05
-5.83616e-05
9.94249e-05
-5.78223e-05
0.000118489
-5.71387e-05
0.000136924
-5.52499e-05
0.00015457
-5.28844e-05
0.000171168
-4.9727e-05
0.000186292
-4.53388e-05
0.00019982
-4.05413e-05
0.00021156
-3.51594e-05
0.00022111
-2.8643e-05
0.00022849
-2.21191e-05
0.000233553
-1.51654e-05
0.000236107
-7.64798e-06
0.000236156
-1.67102e-07
0.00023361
7.61393e-06
0.000228666
1.48613e-05
0.000221421
2.16983e-05
0.000211956
2.83773e-05
0.000200391
3.46505e-05
0.000187108
3.97931e-05
0.000172181
4.47494e-05
0.000155834
4.89874e-05
0.00013847
5.20245e-05
0.0001203
5.44802e-05
0.000101423
5.6576e-05
8.22061e-05
5.76165e-05
6.29002e-05
5.7862e-05
4.36635e-05
5.76655e-05
2.47377e-05
5.67367e-05
6.28091e-06
5.53328e-05
-1.15828e-05
5.35652e-05
-2.87369e-05
5.14294e-05
-4.52028e-05
4.9359e-05
-6.07667e-05
4.66842e-05
-7.543e-05
4.39753e-05
-8.91957e-05
4.12807e-05
-0.000101962
3.82888e-05
-0.000113709
3.52323e-05
-0.000124461
3.22608e-05
-0.000134212
2.9279e-05
-0.000143089
2.66052e-05
-0.000150882
2.33806e-05
-0.000157782
2.07082e-05
-0.00016369
1.77222e-05
-0.000168608
1.479e-05
-0.000172555
1.1835e-05
-0.000175613
9.13754e-06
-0.000177599
5.94483e-06
-0.000178535
2.83286e-06
-0.000178426
-2.98983e-07
-0.000177264
-3.45732e-06
-0.000175214
-6.12076e-06
-0.000172459
-8.23875e-06
-0.000169009
-1.03311e-05
-0.000164966
-1.21068e-05
-0.000160381
-1.37605e-05
-0.000155233
-1.54576e-05
-0.000149518
-1.71756e-05
-0.000143153
-1.91364e-05
-0.000136117
-2.11335e-05
-0.000128339
-2.33809e-05
-0.000119767
-2.57699e-05
-0.000110369
-2.82127e-05
-0.000100095
-3.08376e-05
-8.8932e-05
-3.35276e-05
-7.68781e-05
-3.6195e-05
-6.39265e-05
-3.88593e-05
-5.00997e-05
-4.15053e-05
-3.54586e-05
-4.39117e-05
-2.00491e-05
-4.62111e-05
-3.91358e-06
-4.83079e-05
1.27192e-05
-4.99814e-05
2.99259e-05
-5.16077e-05
4.75197e-05
-5.27512e-05
6.53786e-05
-5.34897e-05
8.32397e-05
-5.36077e-05
0.000101042
-5.33122e-05
0.000118435
-5.21897e-05
0.000135307
-5.05604e-05
0.000151402
-4.82316e-05
0.000166415
-4.49971e-05
0.000180161
-4.12179e-05
0.000192333
-3.64427e-05
0.000202746
-3.12226e-05
0.000211153
-2.5193e-05
0.000217369
-1.86503e-05
0.000221249
-1.1635e-05
0.000222691
-4.32431e-06
0.000221619
3.12403e-06
0.000218001
1.08317e-05
0.000211901
1.82524e-05
0.000203459
2.53488e-05
0.000192732
3.20034e-05
0.000180033
3.80674e-05
0.000165506
4.35366e-05
0.000149429
4.81052e-05
0.000132071
5.20085e-05
0.000113707
5.5021e-05
9.46276e-05
5.71554e-05
7.51048e-05
5.8497e-05
5.54346e-05
5.89441e-05
3.58402e-05
5.87172e-05
1.65511e-05
5.78055e-05
-2.2087e-06
5.63155e-05
-2.03031e-05
5.42469e-05
-3.7594e-05
5.17674e-05
-5.39238e-05
4.90396e-05
-6.92431e-05
4.59293e-05
-8.34525e-05
4.26261e-05
-9.64736e-05
3.91672e-05
-0.000108417
3.57014e-05
-0.000119273
3.25471e-05
-0.000129066
2.94071e-05
-0.000137849
2.64027e-05
-0.000145646
2.3521e-05
-0.000152634
2.09408e-05
-0.000158707
1.82134e-05
-0.000163936
1.57387e-05
-0.000168369
1.33051e-05
-0.000172036
1.10056e-05
-0.000174993
8.76641e-06
-0.000177237
6.83413e-06
-0.000178818
4.73325e-06
-0.000179769
2.8885e-06
-0.000180127
1.06951e-06
-0.000179897
-6.64987e-07
-0.000179057
-2.53327e-06
-0.000177644
-4.22629e-06
-0.000175583
-6.13109e-06
-0.000172954
-7.95777e-06
-0.000169673
-9.8158e-06
-0.000165706
-1.18955e-05
-0.000161059
-1.40654e-05
-0.000155688
-1.59902e-05
-0.000149498
-1.84545e-05
-0.000142641
-2.06754e-05
-0.000134906
-2.3194e-05
-0.000126339
-2.57195e-05
-0.000116888
-2.83365e-05
-0.000106487
-3.11972e-05
-9.5259e-05
-3.37063e-05
-8.30087e-05
-3.66965e-05
-6.98431e-05
-3.9474e-05
-5.57223e-05
-4.23125e-05
-4.09264e-05
-4.45889e-05
-2.53021e-05
-4.6776e-05
-9.0311e-06
-4.87664e-05
7.81986e-06
-5.04122e-05
2.50379e-05
-5.16587e-05
4.25405e-05
-5.24768e-05
6.01894e-05
-5.28593e-05
7.76963e-05
-5.25142e-05
9.49439e-05
-5.16607e-05
0.000111606
-4.99994e-05
0.000127502
-4.76338e-05
0.000142358
-4.44932e-05
0.000155878
-4.05217e-05
0.000167829
-3.57584e-05
0.00017783
-3.0011e-05
0.000185754
-2.37772e-05
0.000191349
-1.67519e-05
0.000194509
-9.47714e-06
0.000195152
-1.95639e-06
0.000193278
5.51734e-06
0.000188934
1.30439e-05
0.000182229
2.00574e-05
0.000173288
2.67416e-05
0.00016235
3.28208e-05
0.000149587
3.83451e-05
0.000135132
4.31802e-05
0.000119419
4.70802e-05
0.000102634
5.03972e-05
8.49738e-05
5.28294e-05
6.68536e-05
5.42877e-05
4.84512e-05
5.5165e-05
3.00454e-05
5.51559e-05
1.18066e-05
5.473e-05
-6.03184e-06
5.35685e-05
-2.34481e-05
5.21708e-05
-4.01565e-05
5.01011e-05
-5.61262e-05
4.78454e-05
-7.12351e-05
4.53519e-05
-8.54232e-05
4.25446e-05
-9.8663e-05
3.9718e-05
-0.000110908
3.67531e-05
-0.000122143
3.37699e-05
-0.000132482
3.09529e-05
-0.000141822
2.80267e-05
-0.000150253
2.52898e-05
-0.000157789
2.26192e-05
-0.00016442
1.98851e-05
-0.000170256
1.74459e-05
-0.00017523
1.50323e-05
-0.000179426
1.25868e-05
-0.000182884
1.03384e-05
-0.000185649
8.337e-06
-0.00018773
6.25634e-06
-0.000189188
4.37153e-06
-0.000190014
2.52551e-06
-0.000190383
1.07566e-06
-0.000190153
-7.10647e-07
-0.000189391
-2.30026e-06
-0.000188034
-4.04567e-06
-0.000186089
-5.84083e-06
-0.000183528
-7.6997e-06
-0.000180362
-9.61303e-06
-0.000176581
-1.11906e-05
-0.000172257
-1.29773e-05
-0.000167296
-1.47709e-05
-0.000161881
-1.63126e-05
-0.000155758
-1.84074e-05
-0.000149016
-2.01866e-05
-0.000141442
-2.26548e-05
-0.00013316
-2.48436e-05
-0.000123966
-2.75198e-05
-0.000113892
-3.0241e-05
-0.000102898
-3.29632e-05
-9.10002e-05
-3.57476e-05
-7.82114e-05
-3.82186e-05
-6.46327e-05
-4.07301e-05
-5.02695e-05
-4.30477e-05
-3.52501e-05
-4.49823e-05
-1.96811e-05
-4.66713e-05
-3.65583e-06
-4.80237e-05
1.27004e-05
-4.90256e-05
2.92259e-05
-4.95271e-05
4.57678e-05
-4.95522e-05
6.20775e-05
-4.88639e-05
7.79347e-05
-4.75268e-05
9.31982e-05
-4.57234e-05
0.000107536
-4.295e-05
0.000120732
-3.94445e-05
0.000132525
-3.53855e-05
0.000142791
-3.07733e-05
0.000151345
-2.56269e-05
0.000158001
-1.99371e-05
0.000162712
-1.40912e-05
0.000165254
-7.63634e-06
0.000165775
-1.5522e-06
0.000164286
4.42606e-06
0.000160801
1.0465e-05
0.000155519
1.58906e-05
0.000148487
2.10239e-05
0.000139779
2.61032e-05
0.0001295
3.07865e-05
0.000117802
3.50802e-05
0.000104866
3.87817e-05
9.08087e-05
4.21415e-05
7.58598e-05
4.48082e-05
6.01467e-05
4.7085e-05
4.40381e-05
4.8288e-05
2.7594e-05
4.92738e-05
1.13261e-05
4.87556e-05
-4.78781e-06
4.83034e-05
-2.04209e-05
4.68643e-05
-3.54564e-05
4.5077e-05
-4.97909e-05
4.29782e-05
-6.32724e-05
4.04272e-05
-7.58543e-05
3.77361e-05
-8.75169e-05
3.49816e-05
-9.82006e-05
3.2051e-05
-0.000107946
2.92302e-05
-0.000116764
2.64615e-05
-0.00012469
2.37872e-05
-0.000131808
2.13588e-05
-0.000138138
1.89816e-05
-0.000143732
1.68119e-05
-0.00014872
1.49713e-05
-0.00015311
1.31731e-05
-0.000156966
1.15734e-05
-0.000160337
1.0118e-05
-0.000163254
8.74666e-06
-0.000165737
7.44061e-06
-0.000167798
6.1703e-06
-0.000169364
4.6958e-06
-0.000170449
3.24923e-06
-0.000170998
1.64345e-06
-0.000170911
-2.51743e-07
-0.000170181
-2.19481e-06
-0.000168675
-4.53056e-06
-0.000166394
-6.854e-06
-0.000163304
-9.27553e-06
-0.000159238
-1.22053e-05
-0.000154196
-1.51274e-05
-0.000148172
-1.80804e-05
-0.000140983
-2.15714e-05
-0.00013277
-2.46411e-05
-0.0001234
-2.81111e-05
-0.000112939
-3.13891e-05
-0.000101426
-3.45108e-05
-8.88265e-05
-3.77866e-05
-7.52601e-05
-4.06842e-05
-6.08857e-05
-4.31022e-05
-4.56138e-05
-4.57879e-05
-2.96238e-05
-4.79418e-05
-1.31584e-05
-4.9358e-05
3.78728e-06
-5.07865e-05
2.09556e-05
-5.14574e-05
3.82432e-05
-5.18259e-05
5.54859e-05
-5.16898e-05
7.2352e-05
-5.05446e-05
8.87039e-05
-4.90161e-05
0.000104386
-4.70034e-05
0.000119162
-4.42777e-05
0.000132832
-4.09705e-05
0.000145241
-3.72005e-05
0.000156275
-3.30802e-05
0.000165739
-2.83621e-05
0.000173505
-2.32842e-05
0.000179495
-1.79733e-05
0.000183647
-1.24671e-05
0.000185912
-6.80243e-06
0.00018626
-1.0538e-06
0.000184531
5.15e-06
0.000180882
1.09493e-05
0.000175364
1.65449e-05
0.000168014
2.20262e-05
0.000159086
2.67601e-05
0.000148571
3.15171e-05
3.59519e-05
-0.000110869
4.10279e-05
-0.000120106
3.6946e-05
-0.000128447
3.33604e-05
-0.000135908
2.98535e-05
-0.000142516
2.64283e-05
-0.000148313
2.31919e-05
-0.000153335
2.0081e-05
-0.000157608
1.7079e-05
-0.000161149
1.41792e-05
-0.000163974
1.13032e-05
-0.000166114
8.55059e-06
-0.000167582
5.85461e-06
-0.000168375
3.23181e-06
-0.000168487
5.39349e-07
-0.000167875
-2.42158e-06
-0.000166592
-5.16623e-06
-0.000164658
-7.70932e-06
-0.000161907
-1.10175e-05
-0.000158423
-1.39657e-05
-0.000154285
-1.66749e-05
-0.000149198
-2.02554e-05
-0.00014325
-2.38145e-05
-0.00013654
-2.68971e-05
-0.000128749
-3.1149e-05
-0.000120067
-3.47471e-05
-0.000110395
-3.87454e-05
-9.96073e-05
-4.31148e-05
-8.79094e-05
-4.68107e-05
-7.50801e-05
-5.13573e-05
-6.12056e-05
-5.56177e-05
-4.63608e-05
-5.91965e-05
-3.04465e-05
-6.36173e-05
-1.36325e-05
-6.70623e-05
4.09267e-06
-7.08927e-05
2.25349e-05
-7.3686e-05
4.13626e-05
-7.52327e-05
6.06594e-05
-7.706e-05
8.01586e-05
-7.78609e-05
9.94716e-05
-7.71354e-05
0.000118565
-7.62326e-05
0.000137029
-7.37132e-05
0.000154708
-7.05638e-05
0.000171351
-6.63699e-05
0.000186485
-6.04725e-05
0.000200035
-5.40914e-05
0.000211805
-4.69299e-05
0.000221369
-3.82071e-05
0.000228759
-2.95085e-05
0.000233833
-2.02397e-05
0.000236385
-1.02003e-05
0.000236422
-2.03652e-07
0.000233872
1.01638e-05
0.000228931
1.98015e-05
0.000221674
2.89554e-05
0.000212198
3.78535e-05
0.000200611
4.62372e-05
0.000187292
5.31123e-05
0.000172346
5.96956e-05
0.00015597
6.53633e-05
0.000138565
6.94292e-05
0.000120378
7.2668e-05
0.000101469
7.54841e-05
8.22389e-05
7.6847e-05
6.2898e-05
7.7203e-05
4.36362e-05
7.69273e-05
2.46887e-05
7.56841e-05
6.21103e-06
7.38105e-05
-1.16653e-05
7.14415e-05
-2.88365e-05
6.86006e-05
-4.53218e-05
6.58442e-05
-6.08918e-05
6.22542e-05
-7.55596e-05
5.8643e-05
-8.93324e-05
5.50535e-05
-0.0001021
5.1056e-05
-0.000113849
4.6982e-05
-0.000124606
4.30173e-05
-0.000134341
3.90137e-05
-0.000143232
3.54959e-05
-0.000151025
3.11742e-05
-0.000157914
2.7597e-05
-0.000163829
2.36367e-05
-0.000168747
1.97079e-05
-0.000172687
1.57745e-05
-0.000175766
1.2217e-05
-0.000177763
7.94094e-06
-0.000178688
3.75791e-06
-0.000178565
-4.22008e-07
-0.000177396
-4.62688e-06
-0.000175359
-8.15823e-06
-0.000172571
-1.10268e-05
-0.000169122
-1.37808e-05
-0.000165082
-1.61475e-05
-0.000160514
-1.83287e-05
-0.000155385
-2.05872e-05
-0.000149692
-2.28689e-05
-0.000143348
-2.54803e-05
-0.000136344
-2.81376e-05
-0.000128597
-3.11281e-05
-0.000120053
-3.43142e-05
-0.000110665
-3.76012e-05
-0.000100349
-4.11534e-05