/*--------------------------------*- C++ -*----------------------------------*\
| =========                 |                                                 |
| \\      /  F ield         | OpenFOAM: The Open Source CFD Toolbox           |
|  \\    /   O peration     | Version:  3.0.1                                 |
|   \\  /    A nd           | Web:      www.OpenFOAM.org                      |
|    \\/     M anipulation  |                                                 |
\*---------------------------------------------------------------------------*/
FoamFile
{
    version     2.0;
    format      ascii;
    class       volVectorField;
    location    "92";
    object      U;
}
// * * * * * * * * * * * * * * * * * * * * * * * * * * * * * * * * * * * * * //

dimensions      [0 1 -1 0 0 0 0];

internalField   nonuniform List<vector> 
21420
(
(-0.102007 0.00106435 0)
(-0.110844 0.000963557 0)
(-0.120109 0.000872381 0)
(-0.128443 0.000783113 0)
(-0.135884 0.000693623 0)
(-0.142462 0.000610686 0)
(-0.148211 0.000528903 0)
(-0.153164 0.000452119 0)
(-0.157349 0.000377757 0)
(-0.160794 0.000305064 0)
(-0.16352 0.000234883 0)
(-0.165553 0.00016551 0)
(-0.166891 9.75687e-05 0)
(-0.167543 3.22214e-05 0)
(-0.167537 -3.62215e-05 0)
(-0.16683 -0.000105193 0)
(-0.165425 -0.000174971 0)
(-0.163307 -0.000246983 0)
(-0.160457 -0.000320414 0)
(-0.156849 -0.000396226 0)
(-0.152454 -0.000476862 0)
(-0.147242 -0.000559083 0)
(-0.141173 -0.000644298 0)
(-0.134208 -0.000737746 0)
(-0.12631 -0.000830104 0)
(-0.117437 -0.000932955 0)
(-0.107562 -0.00103091 0)
(-0.0966546 -0.00113011 0)
(-0.0846898 -0.00124361 0)
(-0.0716651 -0.00134199 0)
(-0.0575866 -0.00143648 0)
(-0.0424602 -0.00155009 0)
(-0.0263382 -0.00163222 0)
(-0.00938277 -0.00174124 0)
(0.00833739 -0.00179975 0)
(0.0267482 -0.00184431 0)
(0.0456755 -0.00190911 0)
(0.0649539 -0.00192034 0)
(0.0843446 -0.00190598 0)
(0.103613 -0.00190388 0)
(0.122523 -0.00184328 0)
(0.140811 -0.00178391 0)
(0.158216 -0.00167397 0)
(0.174461 -0.00153645 0)
(0.189268 -0.00138942 0)
(0.202402 -0.00120849 0)
(0.213647 -0.00100455 0)
(0.22281 -0.000790099 0)
(0.22973 -0.000560711 0)
(0.234286 -0.000314999 0)
(0.236391 -7.4551e-05 0)
(0.236057 0.000174799 0)
(0.233071 0.00041365 0)
(0.22767 0.000646848 0)
(0.219954 0.000879196 0)
(0.210006 0.00107388 0)
(0.198122 0.00126272 0)
(0.184382 0.00144022 0)
(0.169057 0.00157114 0)
(0.152502 0.00169106 0)
(0.134803 0.00177076 0)
(0.116255 0.00184826 0)
(0.0972622 0.00189878 0)
(0.0779955 0.00190634 0)
(0.0585918 0.00190907 0)
(0.0393385 0.00188893 0)
(0.0204705 0.00184291 0)
(0.00234908 0.00178878 0)
(-0.0150946 0.00172147 0)
(-0.0320829 0.00165294 0)
(-0.0483279 0.00156868 0)
(-0.0637085 0.00147908 0)
(-0.0782334 0.00138965 0)
(-0.0917903 0.0012908 0)
(-0.104333 0.00119019 0)
(-0.115948 0.00109382 0)
(-0.126548 0.00099412 0)
(-0.136105 0.000904651 0)
(-0.144722 0.000797007 0)
(-0.152364 0.000708282 0)
(-0.159066 0.00060882 0)
(-0.164815 0.000514458 0)
(-0.169524 0.000411156 0)
(-0.173252 0.00032481 0)
(-0.175993 0.000216172 0)
(-0.177634 0.000113674 0)
(-0.178306 1.11297e-05 0)
(-0.177898 -9.20101e-05 0)
(-0.176534 -0.000175758 0)
(-0.17432 -0.000247768 0)
(-0.17137 -0.000320963 0)
(-0.16781 -0.000379389 0)
(-0.163673 -0.000434887 0)
(-0.158963 -0.000490651 0)
(-0.153683 -0.000547277 0)
(-0.147833 -0.000614851 0)
(-0.141302 -0.000679237 0)
(-0.134055 -0.0007535 0)
(-0.126072 -0.000831861 0)
(-0.117264 -0.000909465 0)
(-0.107641 -0.00099703 0)
(-0.0971359 -0.00108615 0)
(-0.0857125 -0.00117299 0)
(-0.0734285 -0.00126418 0)
(-0.060247 -0.00135123 0)
(-0.0462213 -0.0014301 0)
(-0.031404 -0.00150782 0)
(-0.0158612 -0.00157582 0)
(0.000394212 -0.00163492 0)
(0.0172232 -0.00169201 0)
(0.0344931 -0.00173297 0)
(0.052125 -0.00176107 0)
(0.0699388 -0.00177241 0)
(0.0877693 -0.00176377 0)
(0.105427 -0.00173601 0)
(0.122701 -0.00168127 0)
(0.139332 -0.00161179 0)
(0.155127 -0.00151458 0)
(0.169821 -0.00139798 0)
(0.183159 -0.00124265 0)
(0.194888 -0.00107974 0)
(0.2048 -0.000884216 0)
(0.212673 -0.000672582 0)
(0.218328 -0.000443386 0)
(0.221599 -0.000203472 0)
(0.222403 3.68486e-05 0)
(0.220748 0.00029324 0)
(0.216445 0.000542721 0)
(0.209776 0.000780511 0)
(0.200787 0.000997265 0)
(0.189622 0.00120963 0)
(0.176488 0.00139767 0)
(0.161619 0.0015515 0)
(0.145255 0.00168702 0)
(0.12768 0.00179629 0)
(0.109173 0.00187322 0)
(0.0900154 0.00192536 0)
(0.0704938 0.00194689 0)
(0.0508706 0.00194451 0)
(0.0313841 0.00192149 0)
(0.0122454 0.00187973 0)
(-0.00636571 0.0018105 0)
(-0.0242438 0.00173211 0)
(-0.0412532 0.00165164 0)
(-0.0573223 0.00154479 0)
(-0.0723596 0.00143869 0)
(-0.0862725 0.00132573 0)
(-0.0990416 0.00120616 0)
(-0.110688 0.0010986 0)
(-0.121251 0.001003 0)
(-0.130817 0.000900333 0)
(-0.139419 0.000806426 0)
(-0.147055 0.000713175 0)
(-0.153783 0.000626894 0)
(-0.159651 0.000543029 0)
(-0.164691 0.00045785 0)
(-0.168951 0.000384113 0)
(-0.172451 0.000307793 0)
(-0.175196 0.000242948 0)
(-0.177262 0.000170107 0)
(-0.178692 0.000112012 0)
(-0.179481 5.14927e-05 0)
(-0.179703 -3.66809e-06 0)
(-0.179316 -6.63624e-05 0)
(-0.17834 -0.000122355 0)
(-0.176781 -0.000185148 0)
(-0.174591 -0.000246794 0)
(-0.171771 -0.000309736 0)
(-0.168324 -0.000377143 0)
(-0.164223 -0.000447642 0)
(-0.159367 -0.000506073 0)
(-0.153806 -0.000587831 0)
(-0.147483 -0.000664403 0)
(-0.140337 -0.000744832 0)
(-0.132396 -0.000828385 0)
(-0.123594 -0.000915455 0)
(-0.11396 -0.00100937 0)
(-0.103358 -0.00109256 0)
(-0.0917684 -0.00118625 0)
(-0.0793207 -0.00128335 0)
(-0.0659394 -0.00137686 0)
(-0.0516894 -0.00145897 0)
(-0.0366318 -0.00152445 0)
(-0.0208643 -0.00159449 0)
(-0.00445729 -0.00164813 0)
(0.0124635 -0.0016965 0)
(0.0297359 -0.00172862 0)
(0.0472495 -0.00174145 0)
(0.0648047 -0.00173962 0)
(0.0822251 -0.00171426 0)
(0.0992813 -0.00166682 0)
(0.115746 -0.0015956 0)
(0.131362 -0.00149861 0)
(0.145862 -0.0013761 0)
(0.158978 -0.00122275 0)
(0.170407 -0.00104008 0)
(0.179893 -0.000836994 0)
(0.187212 -0.000608938 0)
(0.192187 -0.000376517 0)
(0.194703 -0.00012703 0)
(0.194747 0.000116602 0)
(0.192255 0.000368909 0)
(0.187322 0.000603488 0)
(0.180101 0.000825567 0)
(0.170691 0.00103665 0)
(0.159291 0.00122513 0)
(0.146124 0.0013831 0)
(0.131434 0.00152301 0)
(0.115457 0.00164591 0)
(0.0984782 0.00172436 0)
(0.08078 0.00178269 0)
(0.0626221 0.00181865 0)
(0.0442572 0.00182473 0)
(0.0258866 0.00182376 0)
(0.00772775 0.00178176 0)
(-0.0100271 0.00173976 0)
(-0.0272486 0.00167529 0)
(-0.0437773 0.00160629 0)
(-0.0595223 0.00152504 0)
(-0.0744002 0.0014308 0)
(-0.0883522 0.00133647 0)
(-0.10135 0.00124059 0)
(-0.113366 0.00114516 0)
(-0.124393 0.0010436 0)
(-0.134439 0.000952992 0)
(-0.143554 0.000858145 0)
(-0.151746 0.000769728 0)
(-0.159053 0.000677286 0)
(-0.165495 0.000593693 0)
(-0.17108 0.000521729 0)
(-0.175869 0.000433442 0)
(-0.179886 0.000359864 0)
(-0.183148 0.00029182 0)
(-0.18572 0.000222943 0)
(-0.187654 0.000163282 0)
(-0.188978 0.000102812 0)
(-0.189702 4.7201e-05 0)
(-0.189895 -8.95226e-06 0)
(-0.189533 -6.17584e-05 0)
(-0.188609 -0.000117077 0)
(-0.187095 -0.000178322 0)
(-0.18497 -0.000239062 0)
(-0.182272 -0.000304186 0)
(-0.178933 -0.000348407 0)
(-0.175044 -0.000412403 0)
(-0.170627 -0.000467 0)
(-0.165614 -0.000526261 0)
(-0.160033 -0.000588711 0)
(-0.153792 -0.000648193 0)
(-0.146848 -0.000724757 0)
(-0.13914 -0.00080138 0)
(-0.130589 -0.000886231 0)
(-0.121182 -0.000979761 0)
(-0.110836 -0.00107053 0)
(-0.0996223 -0.00116039 0)
(-0.0875098 -0.00123763 0)
(-0.074525 -0.00132626 0)
(-0.0607549 -0.0014033 0)
(-0.0462579 -0.00146935 0)
(-0.0311442 -0.00152609 0)
(-0.0154996 -0.00157363 0)
(0.000610076 -0.00161232 0)
(0.0170504 -0.00163005 0)
(0.0335823 -0.00163407 0)
(0.050039 -0.0016168 0)
(0.0662777 -0.00157844 0)
(0.0820472 -0.0015252 0)
(0.0970757 -0.00143522 0)
(0.111072 -0.00132714 0)
(0.123939 -0.00120029 0)
(0.135463 -0.00105698 0)
(0.145359 -0.000890392 0)
(0.153501 -0.000704638 0)
(0.159637 -0.000519426 0)
(0.163874 -0.000307419 0)
(0.166044 -0.000109986 0)
(0.166184 9.03192e-05 0)
(0.164463 0.000293984 0)
(0.160577 0.000480572 0)
(0.154889 0.000651784 0)
(0.147534 0.000827089 0)
(0.138565 0.000986519 0)
(0.128023 0.00113782 0)
(0.116032 0.00126913 0)
(0.102723 0.00138369 0)
(0.0882128 0.00148024 0)
(0.0730377 0.00156279 0)
(0.0570707 0.00160595 0)
(0.0406554 0.00164361 0)
(0.0242887 0.00163065 0)
(0.00814893 0.00161974 0)
(-0.00748801 0.00157996 0)
(-0.0227758 0.0015219 0)
(-0.0375792 0.00145531 0)
(-0.0516605 0.00137483 0)
(-0.064922 0.00128518 0)
(-0.0773068 0.00119426 0)
(-0.0887567 0.00109814 0)
(-0.0992666 0.00100213 0)
(-0.108843 0.00090997 0)
(-0.117512 0.000818972 0)
(-0.125309 0.000735223 0)
(-0.132281 0.000655517 0)
(-0.138503 0.000582405 0)
(-0.144026 0.000516939 0)
(-0.148909 0.000456145 0)
(-0.153221 0.000401254 0)
(-0.15701 0.000351398 0)
(-0.160318 0.000304003 0)
(-0.163163 0.000259305 0)
(-0.165551 0.00021456 0)
(-0.167493 0.000167936 0)
(-0.168962 0.000119406 0)
(-0.169883 6.77347e-05 0)
(-0.170284 1.0323e-05 0)
(-0.170067 -5.35829e-05 0)
(-0.169168 -0.000124872 0)
(-0.167536 -0.00020121 0)
(-0.165081 -0.000284372 0)
(-0.16175 -0.000375296 0)
(-0.157488 -0.000469745 0)
(-0.152234 -0.000569302 0)
(-0.145942 -0.000677256 0)
(-0.138579 -0.000782451 0)
(-0.130121 -0.000896941 0)
(-0.120563 -0.00100279 0)
(-0.109911 -0.00110661 0)
(-0.0981814 -0.00122051 0)
(-0.0854217 -0.00131399 0)
(-0.0716936 -0.00139935 0)
(-0.0570701 -0.00149664 0)
(-0.0416501 -0.00156086 0)
(-0.0255604 -0.00161125 0)
(-0.00894114 -0.00167412 0)
(0.00805877 -0.00169323 0)
(0.0252813 -0.0017243 0)
(0.0425463 -0.0017083 0)
(0.059655 -0.00167273 0)
(0.0764152 -0.00164549 0)
(0.0926319 -0.00157217 0)
(0.108102 -0.00148054 0)
(0.122635 -0.00139134 0)
(0.136048 -0.00126519 0)
(0.148169 -0.00113776 0)
(0.158846 -0.000982347 0)
(0.167938 -0.000816738 0)
(0.175332 -0.000646397 0)
(0.180937 -0.000464081 0)
(0.184688 -0.000277924 0)
(0.186552 -8.84053e-05 0)
(0.186515 0.000100453 0)
(0.184607 0.000287668 0)
(0.180781 0.000470855 0)
(0.175161 0.00064735 0)
(0.167808 0.000808725 0)
(0.158839 0.000966393 0)
(0.146934 0.00111344 0)
(-0.102046 0.003193 0)
(-0.110881 0.00289059 0)
(-0.120145 0.00261706 0)
(-0.128478 0.00234926 0)
(-0.135917 0.00208079 0)
(-0.142495 0.001832 0)
(-0.148243 0.00158668 0)
(-0.153194 0.00135633 0)
(-0.157378 0.00113327 0)
(-0.160822 0.000915237 0)
(-0.163548 0.000704706 0)
(-0.165579 0.000496665 0)
(-0.166919 0.0002926 0)
(-0.167569 9.69831e-05 0)
(-0.167564 -0.000108513 0)
(-0.166857 -0.000315461 0)
(-0.165453 -0.00052478 0)
(-0.163336 -0.000740735 0)
(-0.160487 -0.000961064 0)
(-0.156881 -0.00118851 0)
(-0.152487 -0.0014304 0)
(-0.147276 -0.00167706 0)
(-0.141209 -0.00193271 0)
(-0.134246 -0.00221305 0)
(-0.126349 -0.00249013 0)
(-0.117478 -0.0027987 0)
(-0.107604 -0.00309262 0)
(-0.0966976 -0.00339023 0)
(-0.0847339 -0.00373081 0)
(-0.0717087 -0.004026 0)
(-0.0576292 -0.00430956 0)
(-0.0425017 -0.00465049 0)
(-0.026378 -0.00489766 0)
(-0.00941891 -0.00522337 0)
(0.00830751 -0.00539969 0)
(0.0267233 -0.00553362 0)
(0.0456574 -0.00572813 0)
(0.0649439 -0.00576189 0)
(0.084343 -0.00571896 0)
(0.103622 -0.00571261 0)
(0.122542 -0.0055312 0)
(0.140841 -0.00535322 0)
(0.158258 -0.00502231 0)
(0.174511 -0.00461181 0)
(0.189331 -0.00416926 0)
(0.202475 -0.00362586 0)
(0.213729 -0.00301348 0)
(0.222899 -0.00237 0)
(0.229825 -0.00168177 0)
(0.234388 -0.000944459 0)
(0.236499 -0.000227579 0)
(0.236162 0.000522932 0)
(0.233166 0.00124048 0)
(0.227771 0.00194031 0)
(0.220054 0.00263778 0)
(0.2101 0.00322223 0)
(0.198209 0.00378883 0)
(0.184463 0.00432136 0)
(0.169128 0.00471422 0)
(0.152564 0.00507432 0)
(0.134856 0.00531314 0)
(0.116298 0.0055455 0)
(0.097293 0.00569753 0)
(0.0780158 0.00572038 0)
(0.0586019 0.00572837 0)
(0.0393375 0.0056674 0)
(0.0204607 0.00553036 0)
(0.00233165 0.00536748 0)
(-0.0151169 0.00516605 0)
(-0.0321133 0.0049609 0)
(-0.0483665 0.00470613 0)
(-0.0637508 0.00443763 0)
(-0.0782812 0.00416886 0)
(-0.0918402 0.0038746 0)
(-0.104388 0.00357285 0)
(-0.116007 0.00327895 0)
(-0.126607 0.00298202 0)
(-0.136165 0.00271064 0)
(-0.144781 0.00239544 0)
(-0.152425 0.00212223 0)
(-0.159128 0.0018294 0)
(-0.164878 0.00153827 0)
(-0.169579 0.00124023 0)
(-0.173311 0.000966674 0)
(-0.176048 0.000651999 0)
(-0.177693 0.000340754 0)
(-0.178349 3.95256e-05 0)
(-0.177938 -0.000273497 0)
(-0.176572 -0.00054441 0)
(-0.174342 -0.000754186 0)
(-0.17138 -0.000962395 0)
(-0.167811 -0.00114147 0)
(-0.163666 -0.00131115 0)
(-0.158949 -0.00147787 0)
(-0.153672 -0.00165292 0)
(-0.147811 -0.00184068 0)
(-0.141289 -0.00203831 0)
(-0.134051 -0.00226131 0)
(-0.126078 -0.00249764 0)
(-0.117282 -0.00273887 0)
(-0.10766 -0.00299422 0)
(-0.0971537 -0.00326029 0)
(-0.0857371 -0.0035247 0)
(-0.073448 -0.00378688 0)
(-0.0602731 -0.00405141 0)
(-0.0462558 -0.00429217 0)
(-0.0314365 -0.00452272 0)
(-0.0158933 -0.00473468 0)
(0.000356325 -0.00491551 0)
(0.0171963 -0.00508055 0)
(0.0344779 -0.00520371 0)
(0.0521136 -0.00528167 0)
(0.0699321 -0.00531524 0)
(0.0877696 -0.00529463 0)
(0.105439 -0.00520393 0)
(0.122703 -0.00506284 0)
(0.139354 -0.00485001 0)
(0.155166 -0.00454494 0)
(0.169869 -0.00418741 0)
(0.183207 -0.00373633 0)
(0.194949 -0.00323615 0)
(0.204856 -0.00265419 0)
(0.212725 -0.00202029 0)
(0.218374 -0.00133413 0)
(0.221642 -0.000614544 0)
(0.222444 0.000115573 0)
(0.220761 0.000880048 0)
(0.216445 0.00162449 0)
(0.209762 0.00234253 0)
(0.200756 0.00300138 0)
(0.189569 0.00363388 0)
(0.176408 0.00418809 0)
(0.161522 0.00465647 0)
(0.145137 0.00507164 0)
(0.127536 0.0053898 0)
(0.10901 0.00562043 0)
(0.0898232 0.00577663 0)
(0.0702827 0.00584008 0)
(0.050647 0.00583812 0)
(0.0311516 0.00576254 0)
(0.0120011 0.00563705 0)
(-0.00661709 0.00543233 0)
(-0.0244985 0.00519781 0)
(-0.0415165 0.00494394 0)
(-0.0575862 0.00463307 0)
(-0.0726238 0.00431067 0)
(-0.0865404 0.00397387 0)
(-0.0993063 0.00361384 0)
(-0.110939 0.00330446 0)
(-0.121502 0.00299869 0)
(-0.131055 0.00269972 0)
(-0.139651 0.00241363 0)
(-0.147273 0.00213761 0)
(-0.153996 0.00186949 0)
(-0.159855 0.00162429 0)
(-0.164886 0.00137967 0)
(-0.169147 0.0011428 0)
(-0.172629 0.000914482 0)
(-0.175366 0.000734259 0)
(-0.177433 0.000520967 0)
(-0.178865 0.000335105 0)
(-0.17965 0.0001483 0)
(-0.179872 -2.09303e-05 0)
(-0.179476 -0.000205389 0)
(-0.178493 -0.00037352 0)
(-0.176934 -0.000558523 0)
(-0.174739 -0.000745728 0)
(-0.171904 -0.000916768 0)
(-0.168462 -0.00112725 0)
(-0.164361 -0.00134936 0)
(-0.159502 -0.001526 0)
(-0.153942 -0.00176566 0)
(-0.147617 -0.00199627 0)
(-0.140464 -0.00223892 0)
(-0.132523 -0.00249003 0)
(-0.123712 -0.00274463 0)
(-0.114078 -0.00302898 0)
(-0.103476 -0.00327797 0)
(-0.091895 -0.00357153 0)
(-0.0794294 -0.00384756 0)
(-0.0660443 -0.00412951 0)
(-0.0517976 -0.00437484 0)
(-0.0367372 -0.00458217 0)
(-0.0209574 -0.00478236 0)
(-0.00455119 -0.00495089 0)
(0.0123768 -0.00509746 0)
(0.0296665 -0.00517816 0)
(0.0471687 -0.00523516 0)
(0.0647489 -0.00521668 0)
(0.0821663 -0.00514872 0)
(0.0992326 -0.00501084 0)
(0.115711 -0.00478326 0)
(0.131327 -0.00449536 0)
(0.145841 -0.00411973 0)
(0.158956 -0.00366811 0)
(0.170387 -0.00312374 0)
(0.179872 -0.00251914 0)
(0.187193 -0.00183234 0)
(0.192169 -0.00111917 0)
(0.194677 -0.000378723 0)
(0.194707 0.000346961 0)
(0.192198 0.00110581 0)
(0.187265 0.00181192 0)
(0.180028 0.00248383 0)
(0.170603 0.00310605 0)
(0.159192 0.00367057 0)
(0.146009 0.00415608 0)
(0.131296 0.00457563 0)
(0.1153 0.00492357 0)
(0.0983162 0.00517799 0)
(0.0806045 0.0053529 0)
(0.0624318 0.00545809 0)
(0.044055 0.0054774 0)
(0.0256775 0.0054543 0)
(0.00752129 0.00535266 0)
(-0.010239 0.00521537 0)
(-0.0274663 0.0050297 0)
(-0.0440011 0.00480182 0)
(-0.0597386 0.00457424 0)
(-0.0746164 0.00429102 0)
(-0.0885593 0.00401626 0)
(-0.10156 0.00372235 0)
(-0.113578 0.00342325 0)
(-0.124593 0.00313597 0)
(-0.134642 0.00285233 0)
(-0.143749 0.00257465 0)
(-0.151937 0.00230914 0)
(-0.159235 0.00203256 0)
(-0.165678 0.00178504 0)
(-0.171262 0.00155426 0)
(-0.176045 0.0012996 0)
(-0.180059 0.00107497 0)
(-0.183314 0.000877062 0)
(-0.185887 0.000668322 0)
(-0.187825 0.000478663 0)
(-0.189143 0.000299687 0)
(-0.18986 0.000146809 0)
(-0.190051 -2.40412e-05 0)
(-0.189693 -0.00018339 0)
(-0.188775 -0.000355431 0)
(-0.187265 -0.000539246 0)
(-0.185142 -0.000722198 0)
(-0.182441 -0.000912843 0)
(-0.179106 -0.00105384 0)
(-0.175215 -0.0012367 0)
(-0.170797 -0.00141182 0)
(-0.165772 -0.00156656 0)
(-0.160197 -0.00177131 0)
(-0.153949 -0.00194289 0)
(-0.147011 -0.00218385 0)
(-0.139288 -0.00240589 0)
(-0.130732 -0.00266448 0)
(-0.121312 -0.00293958 0)
(-0.110959 -0.00320201 0)
(-0.0997557 -0.00349107 0)
(-0.0876193 -0.00372076 0)
(-0.0746289 -0.00398201 0)
(-0.0608524 -0.00420884 0)
(-0.0463448 -0.00440673 0)
(-0.0312186 -0.0045845 0)
(-0.0155637 -0.00472543 0)
(0.000558782 -0.00483446 0)
(0.0170088 -0.00489405 0)
(0.0335545 -0.00490447 0)
(0.0500292 -0.00485573 0)
(0.0662808 -0.00473911 0)
(0.0820635 -0.00456858 0)
(0.0970973 -0.00431689 0)
(0.111123 -0.0039845 0)
(0.123993 -0.0036034 0)
(0.135538 -0.00316445 0)
(0.145439 -0.0026695 0)
(0.153587 -0.00211705 0)
(0.159735 -0.00155864 0)
(0.163974 -0.000923398 0)
(0.166147 -0.000331164 0)
(0.166286 0.00027242 0)
(0.164556 0.00088201 0)
(0.160669 0.00143964 0)
(0.154978 0.0019539 0)
(0.147623 0.00248337 0)
(0.138648 0.00296157 0)
(0.128098 0.00341348 0)
(0.116101 0.00380835 0)
(0.102784 0.00415455 0)
(0.0882643 0.00444156 0)
(0.0730788 0.00468877 0)
(0.0571026 0.00481938 0)
(0.0406743 0.00493244 0)
(0.0242971 0.00489308 0)
(0.00814952 0.00486069 0)
(-0.00749671 0.00474153 0)
(-0.0227918 0.00456667 0)
(-0.0376016 0.00436628 0)
(-0.0516873 0.00412458 0)
(-0.0649521 0.00385517 0)
(-0.0773393 0.00358242 0)
(-0.0887901 0.0032956 0)
(-0.0993005 0.00300777 0)
(-0.108877 0.00272903 0)
(-0.117544 0.00245708 0)
(-0.125339 0.0022059 0)
(-0.13231 0.00196627 0)
(-0.13853 0.00174682 0)
(-0.14405 0.00155074 0)
(-0.148931 0.00136842 0)
(-0.153241 0.00120392 0)
(-0.157029 0.00105406 0)
(-0.160336 0.000911955 0)
(-0.163181 0.000778073 0)
(-0.165569 0.000644202 0)
(-0.167512 0.000504022 0)
(-0.168983 0.000358273 0)
(-0.169907 0.000203765 0)
(-0.170308 3.24984e-05 0)
(-0.170095 -0.000160356 0)
(-0.169199 -0.000374323 0)
(-0.167569 -0.000603331 0)
(-0.165117 -0.000852808 0)
(-0.161789 -0.0011256 0)
(-0.157529 -0.00140901 0)
(-0.152277 -0.00170767 0)
(-0.145986 -0.00203159 0)
(-0.138624 -0.00234724 0)
(-0.130166 -0.00269076 0)
(-0.120609 -0.00300836 0)
(-0.109956 -0.00331992 0)
(-0.0982246 -0.0036617 0)
(-0.0854621 -0.00394223 0)
(-0.0717307 -0.00419834 0)
(-0.0571037 -0.00449035 0)
(-0.0416788 -0.00468313 0)
(-0.0255834 -0.00483436 0)
(-0.0089583 -0.00502287 0)
(0.00804831 -0.0050803 0)
(0.025278 -0.00517368 0)
(0.0425505 -0.00512567 0)
(0.0596668 -0.00501895 0)
(0.0764355 -0.00493731 0)
(0.0926597 -0.00471728 0)
(0.108137 -0.00444237 0)
(0.122678 -0.00417478 0)
(0.136097 -0.00379624 0)
(0.148226 -0.00341389 0)
(0.158908 -0.00294757 0)
(0.168004 -0.00245065 0)
(0.175403 -0.00193953 0)
(0.18101 -0.00139241 0)
(0.184762 -0.000834097 0)
(0.186628 -0.000264522 0)
(0.186593 0.000300926 0)
(0.184678 0.000863257 0)
(0.180852 0.00141269 0)
(0.175229 0.0019424 0)
(0.167872 0.00242659 0)
(0.158899 0.00289967 0)
(0.146988 0.00334087 0)
(-0.102123 0.00532142 0)
(-0.110956 0.00481734 0)
(-0.120218 0.00436141 0)
(-0.128549 0.00391504 0)
(-0.135985 0.0034676 0)
(-0.14256 0.00305297 0)
(-0.148305 0.00264414 0)
(-0.153254 0.00226027 0)
(-0.157436 0.00188852 0)
(-0.160878 0.00152522 0)
(-0.163603 0.00117439 0)
(-0.165631 0.000828 0)
(-0.166973 0.000487332 0)
(-0.167624 0.000161715 0)
(-0.167618 -0.000180858 0)
(-0.166912 -0.000525529 0)
(-0.165509 -0.000874387 0)
(-0.163393 -0.00123417 0)
(-0.160547 -0.00160136 0)
(-0.156942 -0.00198046 0)
(-0.152552 -0.00238353 0)
(-0.147344 -0.00279461 0)
(-0.141279 -0.00322067 0)
(-0.13432 -0.00368795 0)
(-0.126425 -0.00414975 0)
(-0.117558 -0.00466408 0)
(-0.107686 -0.00515413 0)
(-0.09678 -0.00565021 0)
(-0.0848177 -0.00621803 0)
(-0.0717909 -0.00671008 0)
(-0.0577087 -0.00718314 0)
(-0.0425785 -0.00775153 0)
(-0.0264504 -0.00816595 0)
(-0.0094831 -0.00870514 0)
(0.0082563 -0.00900112 0)
(0.0266828 -0.00922494 0)
(0.0456312 -0.00954956 0)
(0.0649343 -0.00960601 0)
(0.0843509 -0.00953468 0)
(0.103651 -0.00952459 0)
(0.122591 -0.00922206 0)
(0.140914 -0.00892561 0)
(0.15835 -0.00837484 0)
(0.174624 -0.00768884 0)
(0.189465 -0.00695189 0)
(0.202626 -0.0060467 0)
(0.213895 -0.00502541 0)
(0.223077 -0.00395286 0)
(0.230014 -0.0028059 0)
(0.234584 -0.00157746 0)
(0.236706 -0.000373597 0)
(0.23635 0.000867581 0)
(0.233339 0.00206671 0)
(0.227948 0.00323439 0)
(0.220224 0.00439811 0)
(0.210255 0.00537292 0)
(0.198347 0.00631756 0)
(0.184586 0.00720499 0)
(0.16923 0.00786018 0)
(0.152644 0.00846125 0)
(0.13492 0.00885735 0)
(0.116343 0.0092452 0)
(0.0973162 0.0094985 0)
(0.0780215 0.0095373 0)
(0.0585921 0.00955004 0)
(0.0393118 0.00944848 0)
(0.0204208 0.00921924 0)
(0.00228308 0.00894846 0)
(-0.0151702 0.00861267 0)
(-0.0321767 0.00826981 0)
(-0.0484361 0.00784509 0)
(-0.0638225 0.00739829 0)
(-0.0783578 0.00694945 0)
(-0.0919209 0.00645832 0)
(-0.10447 0.00595448 0)
(-0.116091 0.00546639 0)
(-0.126683 0.00497042 0)
(-0.136247 0.00452302 0)
(-0.144862 0.00398786 0)
(-0.152503 0.00353934 0)
(-0.159213 0.00304422 0)
(-0.164957 0.00256508 0)
(-0.169652 0.00206756 0)
(-0.173384 0.00161758 0)
(-0.176135 0.00108605 0)
(-0.17779 0.000567874 0)
(-0.17844 6.00358e-05 0)
(-0.178023 -0.000461744 0)
(-0.176638 -0.000897542 0)
(-0.174406 -0.00125405 0)
(-0.171443 -0.00160981 0)
(-0.167865 -0.00190449 0)
(-0.163714 -0.00217956 0)
(-0.159008 -0.0024646 0)
(-0.153739 -0.00274628 0)
(-0.147902 -0.00307334 0)
(-0.141392 -0.0034012 0)
(-0.13417 -0.00376944 0)
(-0.126211 -0.00415895 0)
(-0.117428 -0.00455589 0)
(-0.107825 -0.00498761 0)
(-0.0973307 -0.00543397 0)
(-0.0859214 -0.00587442 0)
(-0.0736396 -0.00631265 0)
(-0.0604766 -0.0067542 0)
(-0.0464662 -0.00715274 0)
(-0.0316494 -0.00754217 0)
(-0.0160962 -0.00789282 0)
(0.0001587 -0.00818594 0)
(0.0170037 -0.00846343 0)
(0.034291 -0.0086693 0)
(0.0519309 -0.00881484 0)
(0.0697677 -0.00885883 0)
(0.0876228 -0.0088317 0)
(0.105309 -0.00868164 0)
(0.122592 -0.00843093 0)
(0.139263 -0.00807433 0)
(0.15509 -0.00757854 0)
(0.169811 -0.0069909 0)
(0.183172 -0.00622485 0)
(0.194927 -0.00539308 0)
(0.204851 -0.00442362 0)
(0.212727 -0.00336471 0)
(0.218378 -0.00222076 0)
(0.221649 -0.00102467 0)
(0.222455 0.000194644 0)
(0.220744 0.00146914 0)
(0.216433 0.00271765 0)
(0.209736 0.00390539 0)
(0.200715 0.005018 0)
(0.189503 0.00605286 0)
(0.176317 0.00698576 0)
(0.161402 0.00777147 0)
(0.144981 0.0084547 0)
(0.127355 0.00898879 0)
(0.108805 0.00937781 0)
(0.0895943 0.00963175 0)
(0.0700273 0.00974207 0)
(0.0503667 0.00973292 0)
(0.0308484 0.00961413 0)
(0.0116891 0.0093893 0)
(-0.00693598 0.0090619 0)
(-0.0248229 0.00866614 0)
(-0.0418517 0.00824075 0)
(-0.057938 0.00772435 0)
(-0.0729804 0.00718669 0)
(-0.0869022 0.00661276 0)
(-0.0996491 0.00603615 0)
(-0.111287 0.00551981 0)
(-0.121856 0.00498901 0)
(-0.131412 0.00449043 0)
(-0.139989 0.00401338 0)
(-0.147599 0.00357453 0)
(-0.154311 0.00311357 0)
(-0.160166 0.00270897 0)
(-0.165195 0.00229331 0)
(-0.169447 0.00190858 0)
(-0.172927 0.00153297 0)
(-0.175674 0.00121738 0)
(-0.177748 0.000856688 0)
(-0.179174 0.000553294 0)
(-0.179954 0.000254765 0)
(-0.180175 -2.69989e-05 0)
(-0.179778 -0.000344682 0)
(-0.178792 -0.000620542 0)
(-0.177243 -0.000931904 0)
(-0.175046 -0.00123739 0)
(-0.172214 -0.00154244 0)
(-0.168769 -0.0018838 0)
(-0.164656 -0.00223835 0)
(-0.1598 -0.00254178 0)
(-0.154255 -0.00295365 0)
(-0.147927 -0.00332465 0)
(-0.140768 -0.00373057 0)
(-0.132822 -0.00414463 0)
(-0.124016 -0.00457505 0)
(-0.114377 -0.0050487 0)
(-0.103778 -0.00546741 0)
(-0.0921973 -0.00595162 0)
(-0.0797327 -0.00641516 0)
(-0.066343 -0.00689055 0)
(-0.0520811 -0.00727935 0)
(-0.0370108 -0.00763623 0)
(-0.02123 -0.00797923 0)
(-0.00481686 -0.00826294 0)
(0.0121359 -0.00848329 0)
(0.0294262 -0.00864599 0)
(0.0469503 -0.00872496 0)
(0.0645473 -0.00869742 0)
(0.0819845 -0.00858042 0)
(0.0990765 -0.00833678 0)
(0.115567 -0.00798242 0)
(0.131204 -0.00749575 0)
(0.145738 -0.00687488 0)
(0.158878 -0.00611623 0)
(0.170331 -0.00519972 0)
(0.179826 -0.00419451 0)
(0.187149 -0.00305502 0)
(0.192133 -0.00187243 0)
(0.194652 -0.000630492 0)
(0.194671 0.000589012 0)
(0.192147 0.00184361 0)
(0.187212 0.00302395 0)
(0.179955 0.00414525 0)
(0.170517 0.00517657 0)
(0.159098 0.00611724 0)
(0.14589 0.00694096 0)
(0.131145 0.00762686 0)
(0.115136 0.00821301 0)
(0.0981275 0.00864526 0)
(0.0803915 0.00892193 0)
(0.0621949 0.00910355 0)
(0.0438015 0.009128 0)
(0.0254103 0.00908991 0)
(0.00725365 0.00892005 0)
(-0.0105148 0.00870825 0)
(-0.0277532 0.00837405 0)
(-0.0442906 0.00802021 0)
(-0.0600473 0.00761559 0)
(-0.0749293 0.00715424 0)
(-0.0888845 0.00669236 0)
(-0.101886 0.0061986 0)
(-0.113895 0.00570746 0)
(-0.124909 0.00523683 0)
(-0.134954 0.00474606 0)
(-0.144069 0.00429351 0)
(-0.152262 0.00384687 0)
(-0.159557 0.00338441 0)
(-0.165994 0.00297868 0)
(-0.171577 0.00258421 0)
(-0.17636 0.00216314 0)
(-0.180365 0.00179172 0)
(-0.183623 0.00146673 0)
(-0.186193 0.00111201 0)
(-0.188127 0.000800553 0)
(-0.189443 0.000495928 0)
(-0.190165 0.000252414 0)
(-0.190361 -4.6653e-05 0)
(-0.190006 -0.000307712 0)
(-0.189096 -0.000596863 0)
(-0.187583 -0.000891506 0)
(-0.185462 -0.0011967 0)
(-0.182753 -0.00151646 0)
(-0.179413 -0.00176368 0)
(-0.175524 -0.00206736 0)
(-0.171091 -0.00234865 0)
(-0.166071 -0.00260895 0)
(-0.160483 -0.00295441 0)
(-0.15423 -0.00324007 0)
(-0.147282 -0.00364471 0)
(-0.139548 -0.00400399 0)
(-0.130988 -0.0044451 0)
(-0.121556 -0.00489691 0)
(-0.111205 -0.00534672 0)
(-0.0999828 -0.0058044 0)
(-0.0878335 -0.00621123 0)
(-0.0748304 -0.00663697 0)
(-0.0610432 -0.00702206 0)
(-0.0465238 -0.00735097 0)
(-0.031377 -0.00764361 0)
(-0.0157053 -0.00787704 0)
(0.000433878 -0.00805978 0)
(0.0169056 -0.00815821 0)
(0.0334724 -0.00818358 0)
(0.0499806 -0.00808985 0)
(0.0662509 -0.00790301 0)
(0.082054 -0.00762547 0)
(0.0971242 -0.00719278 0)
(0.111173 -0.00665 0)
(0.124064 -0.00600417 0)
(0.135627 -0.00527869 0)
(0.145551 -0.00445534 0)
(0.15371 -0.00353002 0)
(0.159878 -0.00260053 0)
(0.16412 -0.0015403 0)
(0.166295 -0.000551102 0)
(0.16643 0.00045346 0)
(0.164689 0.00147035 0)
(0.160804 0.00239837 0)
(0.155108 0.00326302 0)
(0.147747 0.00413994 0)
(0.138762 0.00493958 0)
(0.128201 0.0056913 0)
(0.116194 0.00634941 0)
(0.102861 0.00692535 0)
(0.0883301 0.00740554 0)
(0.0731276 0.00781874 0)
(0.0571332 0.00803476 0)
(0.0406819 0.00822495 0)
(0.0242869 0.0081583 0)
(0.00812665 0.00810352 0)
(-0.00753638 0.00790518 0)
(-0.0228424 0.00761355 0)
(-0.0376625 0.00727926 0)
(-0.0517558 0.00687663 0)
(-0.0650248 0.00642804 0)
(-0.0774148 0.00597367 0)
(-0.0888668 0.00549384 0)
(-0.0993761 0.00501152 0)
(-0.10895 0.00454929 0)
(-0.117614 0.00409412 0)
(-0.125405 0.00367608 0)
(-0.132371 0.00327711 0)
(-0.138585 0.00290989 0)
(-0.1441 0.00258379 0)
(-0.148976 0.00228036 0)
(-0.153283 0.00200603 0)
(-0.157067 0.00175649 0)
(-0.160372 0.00152015 0)
(-0.163215 0.00129734 0)
(-0.165604 0.00107453 0)
(-0.167549 0.000840451 0)
(-0.169021 0.000598844 0)
(-0.169955 0.000340603 0)
(-0.170358 5.39775e-05 0)
(-0.170148 -0.000266718 0)
(-0.169258 -0.000623076 0)
(-0.167633 -0.00100472 0)
(-0.165186 -0.00142054 0)
(-0.161862 -0.00187524 0)
(-0.157607 -0.00234777 0)
(-0.152358 -0.00284557 0)
(-0.146071 -0.00338559 0)
(-0.13871 -0.00391185 0)
(-0.130254 -0.00448457 0)
(-0.120695 -0.00501404 0)
(-0.11004 -0.00553369 0)
(-0.0983067 -0.00610351 0)
(-0.0855388 -0.00657131 0)
(-0.0718004 -0.00699836 0)
(-0.0571666 -0.00748534 0)
(-0.0417319 -0.00780684 0)
(-0.0256254 -0.00805903 0)
(-0.00898873 -0.00837356 0)
(0.00803108 -0.00846945 0)
(0.0252749 -0.00862534 0)
(0.0425624 -0.0085453 0)
(0.0596937 -0.00836747 0)
(0.0764789 -0.00823153 0)
(0.0927181 -0.00786469 0)
(0.10821 -0.00740638 0)
(0.122767 -0.00696033 0)
(0.136198 -0.00632919 0)
(0.148341 -0.00569175 0)
(0.159032 -0.00491427 0)
(0.168137 -0.00408575 0)
(0.175544 -0.00323354 0)
(0.181156 -0.00232124 0)
(0.18491 -0.00139001 0)
(0.18678 -0.00043966 0)
(0.186748 0.00050057 0)
(0.184821 0.00143942 0)
(0.180993 0.00235498 0)
(0.175365 0.00323852 0)
(0.167998 0.00404576 0)
(0.159017 0.00483444 0)
(0.147094 0.00557 0)
(-0.102238 0.00744948 0)
(-0.111068 0.0067436 0)
(-0.120328 0.00610519 0)
(-0.128655 0.0054802 0)
(-0.136087 0.00485379 0)
(-0.142658 0.00427332 0)
(-0.148399 0.00370105 0)
(-0.153344 0.00316372 0)
(-0.157524 0.00264334 0)
(-0.160963 0.00213485 0)
(-0.163685 0.00164388 0)
(-0.16571 0.00115998 0)
(-0.16705 0.00068424 0)
(-0.16771 0.000222629 0)
(-0.167699 -0.000254026 0)
(-0.166995 -0.00073523 0)
(-0.165593 -0.00122365 0)
(-0.16348 -0.00172719 0)
(-0.160636 -0.00224108 0)
(-0.157035 -0.00277181 0)
(-0.152649 -0.00333603 0)
(-0.147445 -0.00391143 0)
(-0.141384 -0.00450788 0)
(-0.13443 -0.00516215 0)
(-0.12654 -0.00580868 0)
(-0.117678 -0.00652882 0)
(-0.107808 -0.00721528 0)
(-0.0969035 -0.00790993 0)
(-0.0849434 -0.00870525 0)
(-0.0719143 -0.00939404 0)
(-0.057828 -0.0100576 0)
(-0.0426942 -0.0108534 0)
(-0.0265588 -0.0114378 0)
(-0.00957922 -0.0121877 0)
(0.00817894 -0.0126053 0)
(0.0266219 -0.0129196 0)
(0.0455916 -0.013375 0)
(0.0649196 -0.0134545 0)
(0.0843625 -0.0133551 0)
(0.103694 -0.0133416 0)
(0.122663 -0.0129183 0)
(0.141022 -0.0125038 0)
(0.158489 -0.0117321 0)
(0.174792 -0.0107715 0)
(0.189666 -0.0097403 0)
(0.202853 -0.00847285 0)
(0.214146 -0.00704099 0)
(0.223346 -0.005539 0)
(0.230298 -0.00393458 0)
(0.234881 -0.00221203 0)
(0.237009 -0.000530485 0)
(0.236622 0.00122959 0)
(0.233604 0.0028927 0)
(0.228215 0.00452952 0)
(0.220478 0.00616133 0)
(0.210487 0.00752724 0)
(0.198554 0.00885087 0)
(0.184769 0.010093 0)
(0.169382 0.0110108 0)
(0.152763 0.0118544 0)
(0.135016 0.012405 0)
(0.116411 0.0129497 0)
(0.0973503 0.0133027 0)
(0.0780288 0.0133593 0)
(0.0585755 0.0133759 0)
(0.0392718 0.0132326 0)
(0.0203616 0.0129124 0)
(0.00220817 0.0125312 0)
(-0.0152503 0.012062 0)
(-0.0322724 0.0115823 0)
(-0.0485437 0.0109851 0)
(-0.0639325 0.0103581 0)
(-0.0784741 0.00973087 0)