/*--------------------------------*- C++ -*----------------------------------*\
| =========                 |                                                 |
| \\      /  F ield         | OpenFOAM: The Open Source CFD Toolbox           |
|  \\    /   O peration     | Version:  3.0.1                                 |
|   \\  /    A nd           | Web:      www.OpenFOAM.org                      |
|    \\/     M anipulation  |                                                 |
\*---------------------------------------------------------------------------*/
FoamFile
{
    version     2.0;
    format      ascii;
    class       volScalarField;
    location    "70.4";
    object      p;
}
// * * * * * * * * * * * * * * * * * * * * * * * * * * * * * * * * * * * * * //

dimensions      [1 -1 -2 0 0 0 0];

internalField   nonuniform List<scalar> 
21420
(
4113.67
4082.78
4050.86
4018.28
3985.45
3952.74
3920.59
3890.18
3859.9
3830.21
3801.6
3774.35
3748.62
3724.5
3702.05
3681.31
3662.28
3644.95
3629.29
3615.26
3602.83
3591.94
3582.55
3574.63
3568.13
3563.02
3559.27
3556.9
3555.9
3556.3
3558.06
3561.23
3565.85
3571.94
3579.57
3588.79
3599.64
3612.19
3626.49
3642.57
3660.47
3680.22
3701.82
3725.26
3750.51
3777.49
3806.11
3836.22
3867.39
3896.07
3928.77
3962.35
3996.32
4030.23
4063.65
4096.26
4127.63
4157.38
4185.15
4210.59
4233.35
4253.17
4269.77
4282.95
4292.55
4298.44
4300.47
4298.79
4293.31
4284.1
4271.28
4255.03
4235.59
4213.2
4188.17
4160.84
4131.58
4100.77
4068.8
4036.06
4002.94
3969.78
3936.94
3904.72
3873.35
3843.04
3813.98
3786.32
3760.2
3735.71
3712.9
3691.82
3672.51
3654.98
3639.22
3625.23
3612.98
3602.44
3593.57
3586.32
3580.64
3576.43
3573.68
3572.33
3572.3
3573.57
3576.11
3579.92
3584.99
3591.32
3598.95
3607.9
3618.18
3629.84
3642.89
3657.37
3673.29
3690.66
3709.48
3729.75
3751.45
3774.54
3798.97
3824.68
3851.6
3879.63
3908.63
3938.46
3968.95
3999.87
4031.01
4062.08
4092.79
4122.82
4151.82
4179.42
4205.26
4228.96
4250.19
4268.59
4283.89
4295.8
4304.12
4308.67
4309.36
4306.15
4299.1
4288.21
4273.64
4255.58
4234.27
4209.99
4183.08
4153.91
4122.9
4090.47
4057.06
4023.14
3989.12
3955.42
3922.42
3890.44
3859.73
3830.53
3803
3777.26
3753.37
3731.36
3711.23
3692.95
3676.48
3661.76
3648.72
3637.28
3627.39
3618.97
3611.96
3606.29
3601.92
3598.78
3596.84
3596.08
3596.43
3597.89
3600.45
3604.12
3608.88
3614.78
3621.83
3630.08
3639.58
3650.39
3662.56
3676.15
3691.24
3707.87
3726.1
3745.95
3767.44
3790.57
3815.32
3841.64
3869.45
3898.65
3929.16
3960.6
3992.78
4025.43
4058.21
4090.76
4122.68
4153.54
4182.91
4210.35
4235.42
4257.71
4276.81
4292.36
4304.06
4311.67
4314.95
4313.94
4308.55
4298.88
4285.07
4267.38
4246.13
4221.66
4194.42
4164.83
4133.38
4100.54
4066.77
4032.53
3998.25
3964.32
3931.14
3898.91
3867.93
3838.38
3810.42
3784.14
3759.62
3736.89
3715.97
3696.85
3679.49
3663.85
3649.85
3637.45
3626.57
3617.15
3609.15
3602.53
3597.25
3593.29
3590.62
3589.24
3589.15
3590.36
3592.86
3596.69
3601.88
3608.47
3616.49
3625.98
3636.97
3649.5
3663.59
3679.29
3696.64
3715.65
3736.33
3758.69
3782.7
3808.26
3835.32
3863.72
3893.29
3924.61
3959.36
3994.52
4029.38
4063.68
4096.95
4128.69
4158.33
4185.45
4209.58
4230.4
4247.57
4260.85
4270.02
4274.93
4275.28
4271.96
4264.55
4252.85
4236.97
4217.11
4193.65
4167.02
4137.72
4106.27
4073.17
4038.91
4004
3968.88
3933.95
3899.03
3864.75
3832.11
3801.08
3771.75
3744.2
3718.46
3694.59
3672.61
3652.52
3634.31
3617.97
3603.46
3590.76
3579.83
3570.63
3563.12
3557.29
3553.09
3550.49
3549.52
3550.18
3552.48
3556.44
3562.06
3569.38
3578.44
3589.28
3601.95
3616.48
3632.9
3651.26
3671.57
3693.81
3718.02
3744.11
3772.09
3801.9
3833.39
3866.2
3889.23
3923.06
3957.54
3991.93
4025.91
4059.23
4091.32
4121.67
4015.61
3984.7
3952.77
3920.16
3887.32
3854.59
3822.44
3792.02
3761.74
3732.04
3703.42
3676.17
3650.44
3626.32
3603.87
3583.14
3564.11
3546.78
3531.12
3517.1
3504.66
3493.78
3484.39
3476.47
3469.97
3464.87
3461.12
3458.75
3457.75
3458.14
3459.91
3463.08
3467.69
3473.78
3481.41
3490.63
3501.47
3514.02
3528.31
3544.39
3562.29
3582.04
3603.63
3627.07
3652.33
3679.31
3707.93
3738.06
3769.24
3797.9
3830.62
3864.22
3898.2
3932.12
3965.56
3998.18
4029.57
4059.34
4087.13
4112.58
4135.36
4155.19
4171.8
4184.99
4194.59
4200.48
4202.53
4200.84
4195.36
4186.14
4173.31
4157.05
4137.59
4115.19
4090.14
4062.79
4033.52
4002.69
3970.71
3937.95
3904.81
3871.65
3838.79
3806.56
3775.18
3744.87
3715.8
3688.15
3662.03
3637.53
3614.72
3593.64
3574.33
3556.8
3541.04
3527.05
3514.81
3504.27
3495.41
3488.16
3482.47
3478.27
3475.52
3474.17
3474.15
3475.41
3477.96
3481.76
3486.83
3493.17
3500.8
3509.74
3520.02
3531.68
3544.73
3559.2
3575.12
3592.49
3611.31
3631.58
3653.28
3676.37
3700.8
3726.52
3753.44
3781.47
3810.48
3840.32
3870.8
3901.74
3932.88
3963.97
3994.69
4024.74
4053.75
4081.37
4107.22
4130.95
4152.18
4170.61
4185.91
4197.83
4206.16
4210.72
4211.4
4208.2
4201.14
4190.24
4175.67
4157.6
4136.27
4111.97
4085.04
4055.86
4024.82
3992.37
3958.95
3925.01
3890.98
3857.27
3824.26
3792.26
3761.55
3732.35
3704.82
3679.07
3655.18
3633.17
3613.04
3594.77
3578.31
3563.59
3550.55
3539.12
3529.22
3520.81
3513.8
3508.14
3503.77
3500.62
3498.69
3497.93
3498.28
3499.74
3502.31
3505.97
3510.74
3516.63
3523.68
3531.92
3541.42
3552.23
3564.39
3577.99
3593.07
3609.7
3627.92
3647.77
3669.26
3692.4
3717.15
3743.47
3771.28
3800.48
3831
3862.44
3894.63
3927.29
3960.09
3992.66
4024.59
4055.47
4084.87
4112.32
4137.42
4159.72
4178.84
4194.4
4206.12
4213.73
4217.02
4216
4210.61
4200.93
4187.11
4169.41
4148.13
4123.65
4096.39
4066.78
4035.31
4002.45
3968.66
3934.41
3900.11
3866.17
3832.97
3800.74
3769.75
3740.2
3712.23
3685.95
3661.43
3638.71
3617.79
3598.67
3581.32
3565.67
3551.68
3539.28
3528.4
3518.99
3511
3504.37
3499.1
3495.14
3492.47
3491.08
3491
3492.2
3494.7
3498.53
3503.73
3510.31
3518.33
3527.82
3538.81
3551.33
3565.42
3581.12
3598.46
3617.47
3638.16
3660.52
3684.52
3710.09
3737.14
3765.55
3795.13
3826.45
3861.22
3896.4
3931.27
3965.58
3998.88
4030.63
4060.3
4087.44
4111.59
4132.42
4149.61
4162.91
4172.1
4177.01
4177.36
4174.04
4166.62
4154.92
4139.02
4119.14
4095.65
4069
4039.68
4008.21
3975.08
3940.81
3905.88
3870.74
3835.8
3800.87
3766.58
3733.93
3702.9
3673.57
3646.01
3620.27
3596.41
3574.42
3554.33
3536.13
3519.79
3505.29
3492.59
3481.66
3472.46
3464.96
3459.13
3454.92
3452.32
3451.36
3452.02
3454.32
3458.27
3463.89
3471.21
3480.27
3491.11
3503.77
3518.3
3534.72
3553.08
3573.38
3595.63
3619.83
3645.92
3673.9
3703.71
3735.2
3768.02
3791.09
3824.93
3859.42
3893.82
3927.81
3961.15
3993.26
4023.63
3917.58
3886.64
3854.67
3822.03
3789.16
3756.4
3724.24
3693.81
3663.51
3633.8
3605.18
3577.92
3552.18
3528.06
3505.62
3484.88
3465.86
3448.54
3432.88
3418.86
3406.44
3395.55
3386.18
3378.26
3371.76
3366.66
3362.91
3360.54
3359.54
3359.93
3361.7
3364.86
3369.47
3375.56
3383.18
3392.39
3403.24
3415.78
3430.06
3446.13
3464.03
3483.78
3505.37
3528.81
3554.06
3581.04
3609.68
3639.82
3671.04
3699.65
3732.41
3766.05
3800.06
3834
3867.48
3900.13
3931.55
3961.36
3989.18
4014.66
4037.47
4057.32
4073.96
4087.16
4096.78
4102.68
4104.74
4103.02
4097.54
4088.31
4075.46
4059.18
4039.7
4017.26
3992.18
3964.8
3935.49
3904.63
3872.61
3839.83
3806.66
3773.47
3740.6
3708.35
3676.96
3646.63
3617.56
3589.9
3563.77
3539.27
3516.46
3495.39
3476.08
3458.55
3442.79
3428.81
3416.56
3406.03
3397.17
3389.93
3384.25
3380.06
3377.31
3375.97
3375.94
3377.21
3379.75
3383.56
3388.63
3394.96
3402.59
3411.53
3421.81
3433.46
3446.5
3460.98
3476.89
3494.26
3513.08
3533.35
3555.05
3578.14
3602.57
3628.29
3655.21
3683.25
3712.28
3742.12
3772.63
3803.58
3834.74
3865.85
3896.6
3926.68
3955.72
3983.37
4009.26
4033.01
4054.28
4072.74
4088.06
4100.01
4108.35
4112.93
4113.6
4110.39
4103.33
4092.42
4077.82
4059.72
4038.37
4014.04
3987.07
3957.85
3926.78
3894.29
3860.83
3826.86
3792.79
3759.06
3726.03
3694.01
3663.29
3634.08
3606.54
3580.8
3556.91
3534.9
3514.78
3496.51
3480.06
3465.34
3452.31
3440.89
3431
3422.59
3415.59
3409.93
3405.56
3402.42
3400.5
3399.74
3400.09
3401.55
3404.12
3407.78
3412.54
3418.43
3425.48
3433.72
3443.21
3454.01
3466.17
3479.76
3494.84
3511.46
3529.68
3549.52
3571.01
3594.14
3618.89
3645.22
3673.03
3702.25
3732.78
3764.24
3796.45
3829.13
3861.96
3894.56
3926.53
3957.45
3986.88
4014.38
4039.51
4061.85
4081
4096.59
4108.33
4115.96
4119.28
4118.23
4112.84
4103.14
4089.3
4071.57
4050.25
4025.73
3998.42
3968.78
3937.27
3904.36
3870.54
3836.25
3801.93
3767.96
3734.74
3702.49
3671.5
3641.94
3613.97
3587.69
3563.17
3540.44
3519.53
3500.42
3483.07
3467.43
3453.45
3441.05
3430.18
3420.78
3412.78
3406.17
3400.89
3396.93
3394.26
3392.88
3392.8
3394
3396.5
3400.32
3405.51
3412.1
3420.11
3429.59
3440.58
3453.1
3467.19
3482.88
3500.22
3519.22
3539.91
3562.27
3586.27
3611.84
3638.9
3667.31
3696.9
3728.23
3763.05
3798.25
3833.15
3867.5
3900.83
3932.63
3962.33
3989.51
4013.71
4034.57
4051.8
4065.13
4074.34
4079.28
4079.62
4076.3
4068.87
4057.15
4041.21
4021.29
3997.76
3971.07
3941.7
3910.18
3877.02
3842.7
3807.74
3772.57
3737.6
3702.64
3668.34
3635.68
3604.64
3575.3
3547.74
3522
3498.14
3476.16
3456.07
3437.87
3421.54
3407.04
3394.35
3383.42
3374.22
3366.72
3360.89
3356.69
3354.1
3353.14
3353.79
3356.09
3360.04
3365.66
3372.97
3382.02
3392.86
3405.52
3420.04
3436.46
3454.81
3475.11
3497.35
3521.55
3547.64
3575.62
3605.43
3636.91
3669.75
3692.91
3726.78
3761.27
3795.69
3829.72
3863.09
3895.23
3925.64
3819.59
3788.6
3756.58
3723.89
3690.97
3658.17
3625.98
3595.54
3565.23
3535.49
3506.85
3479.59
3453.85
3429.73
3407.29
3386.56
3367.54
3350.23
3334.58
3320.57
3308.15
3297.27
3287.9
3279.99
3273.5
3268.4
3264.66
3262.28
3261.28
3261.67
3263.43
3266.59
3271.2
3277.28
3284.89
3294.1
3304.93
3317.46
3331.74
3347.8
3365.69
3385.43
3407.02
3430.46
3455.71
3482.7
3511.35
3541.52
3572.79
3601.33
3634.16
3667.84
3701.89
3735.88
3769.4
3802.1
3833.58
3863.43
3891.3
3916.83
3939.68
3959.58
3976.24
3989.48
3999.11
4005.02
4007.1
4005.36
3999.87
3990.62
3977.74
3961.43
3941.91
3919.42
3894.29
3866.86
3837.5
3806.59
3774.52
3741.69
3708.49
3675.26
3642.35
3610.08
3578.67
3548.32
3519.24
3491.57
3465.44
3440.94
3418.13
3397.06
3377.75
3360.22
3344.47
3330.49
3318.25
3307.73
3298.88
3291.64
3285.97
3281.78
3279.05
3277.7
3277.68
3278.96
3281.5
3285.31
3290.37
3296.7
3304.32
3313.26
3323.53
3335.18
3348.22
3362.69
3378.6
3395.96
3414.78
3435.05
3456.75
3479.84
3504.28
3530
3556.93
3584.99
3614.02
3643.89
3674.41
3705.39
3736.58
3767.73
3798.52
3828.64
3857.73
3885.43
3911.36
3935.17
3956.49
3974.98
3990.35
4002.32
4010.69
4015.29
4015.95
4012.74
4005.66
3994.73
3980.1
3961.97
3940.57
3916.19
3889.17
3859.89
3828.76
3796.22
3762.71
3728.68
3694.57
3660.8
3627.73
3595.69
3564.95
3535.73
3508.19
3482.44
3458.55
3436.55
3416.44
3398.18
3381.73
3367.03
3354.01
3342.6
3332.72
3324.32
3317.32
3311.67
3307.31
3304.18
3302.26
3301.5
3301.86
3303.32
3305.88
3309.54
3314.3
3320.19
3327.23
3335.46
3344.95
3355.74
3367.89
3381.47
3396.54
3413.15
3431.36
3451.2
3472.68
3495.82
3520.57
3546.9
3574.72
3603.94
3634.5
3665.98
3698.23
3730.95
3763.82
3796.46
3828.49
3859.46
3888.95
3916.51
3941.7
3964.09
3983.29
3998.93
4010.7
4018.36
4021.7
4020.63
4015.23
4005.51
3991.63
3973.85
3952.48
3927.9
3900.53
3870.83
3839.25
3806.29
3772.41
3738.08
3703.71
3669.7
3636.45
3604.18
3573.17
3543.6
3515.62
3489.34
3464.82
3442.1
3421.2
3402.09
3384.75
3369.12
3355.15
3342.77
3331.9
3322.5
3314.52
3307.9
3302.63
3298.67
3296.01
3294.63
3294.55
3295.74
3298.24
3302.06
3307.25
3313.82
3321.83
3331.31
3342.29
3354.8
3368.88
3384.57
3401.9
3420.9
3441.58
3463.94
3487.95
3513.52
3540.59
3569.01
3598.61
3629.94
3664.84
3700.08
3735.03
3769.42
3802.81
3834.67
3864.43
3891.68
3915.93
3936.85
3954.13
3967.5
3976.76
3981.72
3982.07
3978.74
3971.29
3959.53
3943.55
3923.57
3899.98
3873.22
3843.78
3812.2
3778.96
3744.59
3709.58
3674.36
3639.35
3604.35
3570.03
3537.35
3506.3
3476.95
3449.39
3423.65
3399.79
3377.81
3357.73
3339.54
3323.21
3308.72
3296.03
3285.11
3275.92
3268.42
3262.6
3258.39
3255.81
3254.85
3255.5
3257.8
3261.74
3267.35
3274.66
3283.71
3294.53
3307.18
3321.7
3338.11
3356.45
3376.75
3398.99
3423.18
3449.27
3477.25
3507.06
3538.54
3571.4
3594.69
3628.59
3663.11
3697.56
3731.63
3765.04
3797.24
3827.7
3721.64
3690.58
3658.49
3625.73
3592.75
3559.89
3527.66
3497.22
3466.88
3437.12
3408.46
3381.18
3355.43
3331.31
3308.88
3288.15
3269.15
3251.84
3236.2
3222.2
3209.79
3198.93
3189.56
3181.66
3175.18
3170.08
3166.35
3163.98
3162.97
3163.35
3165.11
3168.27
3172.86
3178.93
3186.54
3195.73
3206.55
3219.07
3233.34
3249.39
3267.28
3287.01
3308.59
3332.03
3357.28
3384.28
3412.94
3443.15
3474.49
3502.95
3535.85
3569.6
3603.71
3637.75
3671.33
3704.1
3735.64
3765.56
3793.5
3819.09
3842
3861.95
3878.66
3891.93
3901.59
3907.51
3909.61
3907.85
3902.34
3893.07
3880.16
3863.8
3844.22
3821.67
3796.48
3768.98
3739.55
3708.57
3676.44
3643.55
3610.28
3577.01
3544.06
3511.76
3480.32
3449.95
3420.85
3393.17
3367.04
3342.53
3319.72
3298.65
3279.35
3261.82
3246.08
3232.1
3219.87
3209.36
3200.52
3193.29
3187.63
3183.45
3180.73
3179.39
3179.37
3180.65
3183.2
3187
3192.06
3198.39
3206.01
3214.93
3225.2
3236.84
3249.88
3264.34
3280.24
3297.6
3316.42
3336.69
3358.39
3381.48
3405.92
3431.65
3458.59
3486.66
3515.71
3545.6
3576.16
3607.17
3638.41
3669.6
3700.44
3730.62
3759.77
3787.53
3813.54
3837.41
3858.79
3877.34
3892.76
3904.78
3913.17
3917.79
3918.47
3915.25
3908.15
3897.18
3882.52
3864.33
3842.87
3818.42
3791.34
3761.98
3730.78
3698.16
3664.58
3630.48
3596.31
3562.48
3529.38
3497.3
3466.54
3437.3
3409.75
3383.99
3360.11
3338.12
3318.02
3299.77
3283.34
3268.65
3255.64
3244.24
3234.38
3225.99
3219
3213.36
3209.01
3205.89
3203.97
3203.22
3203.58
3205.04
3207.6
3211.26
3216.02
3221.9
3228.93
3237.16
3246.63
3257.41
3269.55
3283.11
3298.17
3314.77
3332.97
3352.8
3374.28
3397.41
3422.17
3448.5
3476.34
3505.57
3536.17
3567.68
3599.96
3632.73
3665.66
3698.37
3730.46
3761.51
3791.08
3818.71
3843.98
3866.45
3885.72
3901.42
3913.24
3920.92
3924.29
3923.21
3917.79
3908.04
3894.11
3876.27
3854.83
3830.17
3802.72
3772.92
3741.27
3708.23
3674.28
3639.87
3605.45
3571.4
3538.1
3505.8
3474.76
3445.18
3417.19
3390.91
3366.39
3343.68
3322.78
3303.68
3286.36
3270.75
3256.79
3244.41
3233.56
3224.17
3216.19
3209.59
3204.32
3200.37
3197.7
3196.33
3196.24
3197.43
3199.93
3203.74
3208.92
3215.49
3223.5
3232.97
3243.94
3256.44
3270.51
3286.19
3303.51
3322.51
3343.18
3365.54
3389.54
3415.13
3442.2
3470.63
3500.25
3531.59
3566.6
3601.89
3636.89
3671.35
3704.82
3736.75
3766.6
3793.93
3818.26
3839.26
3856.61
3870.04
3879.35
3884.33
3884.71
3881.38
3873.89
3862.08
3846.04
3825.98
3802.3
3775.45
3745.92
3714.25
3680.93
3646.48
3611.4
3576.12
3541.05
3505.99
3471.64
3438.94
3407.87
3378.52
3350.95
3325.21
3301.35
3279.38
3259.31
3241.12
3224.8
3210.32
3197.64
3186.73
3177.55
3170.06
3164.23
3160.03
3157.46
3156.5
3157.15
3159.44
3163.38
3168.98
3176.29
3185.32
3196.14
3208.78
3223.28
3239.68
3258.02
3278.31
3300.54
3324.72
3350.81
3378.79
3408.59
3440.07
3472.96
3496.43
3530.37
3564.92
3599.41
3633.54
3667.02
3699.29
3729.82
3623.73
3592.57
3560.4
3527.56
3494.49
3461.56
3429.28
3398.86
3368.47
3338.67
3309.99
3282.7
3256.94
3232.82
3210.39
3189.67
3170.68
3153.38
3137.76
3123.77
3111.37
3100.52
3091.17
3083.27
3076.8
3071.71
3067.98
3065.61
3064.6
3064.98
3066.74
3069.89
3074.47
3080.53
3088.12
3097.3
3108.11
3120.61
3134.87
3150.91
3168.78
3188.5
3210.07
3233.51
3258.77
3285.77
3314.46
3344.7
3376.14
3404.48
3437.5
3471.32
3505.5
3539.62
3573.27
3606.12
3637.75
3667.75
3695.77
3721.44
3744.43
3764.44
3781.21
3794.52
3804.21
3810.15
3812.26
3810.5
3804.96
3795.66
3782.7
3766.28
3746.63
3724.01
3698.73
3671.15
3641.63
3610.57
3578.36
3545.39
3512.05
3478.72
3445.72
3413.38
3381.9
3351.51
3322.39
3294.7
3268.55
3244.05
3221.24
3200.17
3180.87
3163.35
3147.61
3133.64
3121.42
3110.92
3102.09
3094.88
3089.23
3085.07
3082.35
3081.02
3081.01
3082.3
3084.84
3088.65
3093.7
3100.03
3107.64
3116.56
3126.82
3138.44
3151.47
3165.93
3181.82
3199.18
3217.99
3238.26
3259.96
3283.05
3307.5
3333.24
3360.2
3388.28
3417.36
3447.28
3477.87
3508.92
3540.21
3571.46
3602.37
3632.62
3661.85
3689.7
3715.78
3739.74
3761.2
3779.82
3795.3
3807.37
3815.8
3820.44
3821.13
3817.91
3810.78
3799.78
3785.06
3766.81
3745.27
3720.75
3693.57
3664.12
3632.82
3600.11
3566.43
3532.25
3498.01
3464.11
3430.95
3398.84
3368.04
3338.78
3311.22
3285.46
3261.58
3239.6
3219.51
3201.29
3184.87
3170.2
3157.21
3145.83
3135.98
3127.6
3120.63
3115
3110.66
3107.55
3105.64
3104.89
3105.25
3106.72
3109.28
3112.94
3117.69
3123.56
3130.58
3138.8
3148.26
3159.02
3171.15
3184.7
3199.74
3216.33
3234.51
3254.33
3275.81
3298.94
3323.69
3350.03
3377.88
3407.13
3437.78
3469.32
3501.65
3534.49
3567.49
3600.28
3632.46
3663.6
3693.26
3721
3746.36
3768.93
3788.28
3804.06
3815.93
3823.66
3827.04
3825.97
3820.53
3810.72
3796.73
3778.81
3757.28
3732.52
3704.97
3675.07
3643.31
3610.17
3576.13
3541.65
3507.15
3473.03
3439.69
3407.35
3376.28
3346.68
3318.68
3292.39
3267.88
3245.17
3224.29
3205.2
3187.89
3172.3
3158.36
3146
3135.16
3125.78
3117.82
3111.22
3105.96
3102.01
3099.35
3097.97
3097.88
3099.08
3101.56
3105.37
3110.54
3117.11
3125.1
3134.56
3145.52
3158.01
3172.07
3187.74
3205.05
3224.04
3244.71
3267.06
3291.07
3316.66
3343.75
3372.19
3401.83
3433.18
3468.32
3503.67
3538.74
3573.28
3606.85
3638.88
3668.83
3696.26
3720.69
3741.79
3759.23
3772.74
3782.11
3787.13
3787.54
3784.2
3776.67
3764.79
3748.67
3728.51
3704.72
3677.76
3648.11
3616.33
3582.91
3548.36
3513.19
3477.83
3442.7
3407.57
3373.18
3340.45
3309.36
3280
3252.42
3226.69
3202.83
3180.86
3160.8
3142.63
3126.32
3111.85
3099.18
3088.28
3079.11
3071.62
3065.81
3061.61
3059.04
3058.08
3058.73
3061.01
3064.95
3070.54
3077.84
3086.86
3097.66
3110.29
3124.78
3141.17
3159.49
3179.77
3202
3226.18
3252.27
3280.23
3310.04
3341.51
3374.42
3398.14
3432.13
3466.71
3501.26
3535.45
3569.01
3601.37
3632
3525.85
3494.59
3462.31
3429.37
3396.21
3363.19
3330.84
3300.43
3269.99
3240.16
3211.45
3184.14
3158.37
3134.25
3111.83
3091.12
3072.13
3054.85
3039.25
3025.27
3012.89
3002.05
2992.71
2984.83
2978.37
2973.29
2969.56
2967.2
2966.18
2966.55
2968.31
2971.45
2976.02
2982.07
2989.64
2998.81
3009.6
3022.08
3036.32
3052.34
3070.2
3089.91
3111.48
3134.91
3160.17
3187.19
3215.89
3246.19
3277.74
3305.94
3339.09
3373
3407.26
3441.47
3475.22
3508.16
3539.89
3570
3598.12
3623.88
3646.96
3667.05
3683.88
3697.25
3706.98
3712.94
3715.06
3713.3
3707.73
3698.38
3685.37
3668.88
3649.15
3626.43
3601.06
3573.37
3543.75
3512.59
3480.28
3447.22
3413.8
3380.39
3347.32
3314.94
3283.42
3252.99
3223.85
3196.15
3169.99
3145.48
3122.67
3101.61
3082.31
3064.8
3049.07
3035.11
3022.91
3012.42
3003.6
2996.4
2990.77
2986.63
2983.93
2982.6
2982.6
2983.89
2986.44
2990.24
2995.3
3001.61
3009.21
3018.12
3028.37
3039.99
3053.01
3067.45
3083.34
3100.69
3119.5
3139.76
3161.46
3184.56
3209.02
3234.77
3261.74
3289.84
3318.95
3348.9
3379.54
3410.65
3442
3473.32
3504.31
3534.64
3563.97
3591.91
3618.1
3642.15
3663.71
3682.42
3697.97
3710.1
3718.58
3723.24
3723.96
3720.72
3713.56
3702.51
3687.73
3669.4
3647.78
3623.15
3595.87
3566.31
3534.9
3502.07
3468.29
3434
3399.67
3365.69
3332.47
3300.3
3269.47
3240.18
3212.61
3186.85
3162.97
3141
3120.93
3102.72
3086.33
3071.68
3058.71
3047.35
3037.52
3029.16
3022.21
3016.59
3012.26
3009.16
3007.27
3006.52
3006.89
3008.36
3010.92
3014.57
3019.32
3025.18
3032.19
3040.39
3049.84
3060.58
3072.69
3086.22
3101.24
3117.81
3135.98
3155.79
3177.26
3200.38
3225.14
3251.49
3279.35
3308.62
3339.33
3370.91
3403.3
3436.21
3469.3
3502.18
3534.47
3565.72
3595.51
3623.36
3648.84
3671.52
3690.98
3706.84
3718.79
3726.56
3729.97
3728.91
3723.43
3713.57
3699.51
3681.49
3659.85
3634.97
3607.29
3577.27
3545.39
3512.13
3477.98
3443.39
3408.81
3374.62
3341.21
3308.82
3277.72
3248.1
3220.09
3193.8
3169.29
3146.59
3125.71
3106.65
3089.36
3073.78
3059.86
3047.53
3036.7
3027.34
3019.38
3012.79
3007.54
3003.6
3000.94
2999.57
2999.48
3000.67
3003.15
3006.95
3012.11
3018.66
3026.64
3036.09
3047.04
3059.52
3073.57
3089.22
3106.52
3125.49
3146.16
3168.51
3192.52
3218.12
3245.22
3273.68
3303.34
3334.71
3370.01
3405.43
3440.59
3475.22
3508.9
3541.06
3571.13
3598.69
3623.24
3644.45
3661.99
3675.6
3685.04
3690.11
3690.54
3687.2
3679.63
3667.67
3651.45
3631.17
3607.25
3580.15
3550.37
3518.45
3484.9
3450.24
3414.97
3379.52
3344.29
3309.09
3274.65
3241.88
3210.77
3181.4
3153.81
3128.08
3104.22
3082.27
3062.21
3044.05
3027.76
3013.3
3000.65
2989.76
2980.6
2973.13
2967.31
2963.13
2960.56
2959.61
2960.24
2962.53
2966.45
2972.04
2979.32
2988.33
2999.12
3011.73
3026.2
3042.58
3060.89
3081.16
3103.37
3127.54
3153.63
3181.59
3211.39
3242.85
3275.79
3299.83
3333.86
3368.48
3403.08
3437.36
3471.03
3503.5
3534.22
3428.01
3396.63
3364.23
3331.17
3297.89
3264.76
3232.34
3201.96
3171.46
3141.58
3112.83
3085.5
3059.73
3035.6
3013.18
2992.49
2973.52
2956.25
2940.66
2926.71
2914.35
2903.53
2894.2
2886.33
2879.88
2874.81
2871.09
2868.73
2867.7
2868.08
2869.82
2872.95
2877.51
2883.54
2891.1
2900.24
2911.01
2923.48
2937.7
2953.7
2971.54
2991.24
3012.8
3036.23
3061.49
3088.52
3117.25
3147.6
3179.29
3207.33
3240.64
3274.65
3309.01
3343.32
3377.17
3410.23
3442.08
3472.3
3500.54
3526.41
3549.59
3569.78
3586.69
3600.11
3609.89
3615.88
3618.01
3616.24
3610.64
3601.24
3588.16
3571.59
3551.77
3528.95
3503.46
3475.65
3445.91
3414.63
3382.2
3349.04
3315.52
3282.02
3248.88
3216.44
3184.88
3154.41
3125.24
3097.52
3071.36
3046.84
3024.03
3002.97
2983.68
2966.18
2950.46
2936.51
2924.32
2913.84
2905.04
2897.87
2892.25
2888.13
2885.44
2884.13
2884.14
2885.43
2887.99
2891.79
2896.84
2903.15
2910.74
2919.63
2929.87
2941.48
2954.48
2968.92
2984.8
3002.14
3020.94
3041.2
3062.9
3086.01
3110.47
3136.23
3163.22
3191.35
3220.49
3250.49
3281.17
3312.34
3343.76
3375.16
3406.25
3436.68
3466.12
3494.18
3520.49
3544.66
3566.32
3585.13
3600.78
3612.98
3621.51
3626.2
3626.93
3623.68
3616.48
3605.39
3590.53
3572.12
3550.39
3525.65
3498.24
3468.55
3437
3404.04
3370.13
3335.73
3301.28
3267.22
3233.92
3201.69
3170.81
3141.5
3113.91
3088.15
3064.28
3042.32
3022.27
3004.08
2987.71
2973.09
2960.14
2948.81
2939
2930.66
2923.73
2918.13
2913.82
2910.73
2908.84
2908.1
2908.48
2909.95
2912.51
2916.16
2920.9
2926.75
2933.75
2941.93
2951.36
2962.08
2974.17
2987.68
3002.67
3019.23
3037.38
3057.18
3078.63
3101.76
3126.52
3152.88
3180.76
3210.03
3240.82
3272.45
3304.91
3337.91
3371.09
3404.09
3436.5
3467.89
3497.81
3525.8
3551.42
3574.23
3593.81
3609.77
3621.8
3629.63
3633.07
3632.01
3626.49
3616.58
3602.42
3584.3
3562.53
3537.51
3509.68
3479.51
3447.49
3414.09
3379.81
3345.11
3310.42
3276.15
3242.67
3210.23
3179.09
3149.44
3121.42
3095.12
3070.61
3047.92
3027.06
3008.02
2990.75
2975.2
2961.3
2948.99
2938.19
2928.84
2920.9
2914.32
2909.07
2905.14
2902.49
2901.12
2901.02
2902.2
2904.68
2908.47
2913.62
2920.16
2928.13
2937.57
2948.5
2960.96
2974.99
2990.63
3007.91
3026.88
3047.53
3069.88
3093.89
3119.5
3146.62
3175.1
3204.79
3236.16
3271.66
3307.17
3342.42
3377.17
3410.98
3443.28
3473.5
3501.19
3525.89
3547.23
3564.9
3578.61
3588.15
3593.28
3593.73
3590.38
3582.76
3570.71
3554.37
3533.96
3509.89
3482.63
3452.68
3420.61
3386.91
3352.11
3316.72
3281.16
3245.84
3210.54
3176.05
3143.23
3112.1
3082.71
3055.12
3029.38
3005.53
2983.59
2963.55
2945.4
2929.12
2914.68
2902.05
2891.17
2882.02
2874.56
2868.76
2864.58
2862.02
2861.07
2861.7
2863.97
2867.89
2873.47
2880.73
2889.72
2900.5
2913.09
2927.54
2943.9
2962.2
2982.45
3004.66
3028.82
3054.9
3082.86
3112.65
3144.1
3177.04
3201.51
3235.56
3270.22
3304.9
3339.27
3373.06
3405.65
3436.51
3330.2
3298.68
3266.14
3232.95
3199.54
3166.29
3133.78
3103.44
3072.87
3042.92
3014.13
2986.78
2961
2936.88
2914.46
2893.78
2874.83
2857.58
2842.01
2828.08
2815.74
2804.94
2795.63
2787.78
2781.34
2776.28
2772.57
2770.21
2769.18
2769.55
2771.28
2774.4
2778.95
2784.95
2792.49
2801.61
2812.36
2824.8
2839
2854.98
2872.8
2892.48
2914.03
2937.46
2962.72
2989.76
3018.52
3048.93
3080.78
3108.66
3142.14
3176.27
3210.73
3245.15
3279.13
3312.32
3344.3
3374.66
3403.03
3429.04
3452.33
3472.62
3489.62
3503.12
3512.95
3518.97
3521.11
3519.34
3513.7
3504.25
3491.09
3474.43
3454.49
3431.55
3405.92
3377.98
3348.1
3316.68
3284.13
3250.84
3217.21
3183.61
3150.39
3117.89
3086.27
3055.76
3026.56
2998.82
2972.64
2948.12
2925.31
2904.26
2884.97
2867.48
2851.77
2837.84
2825.66
2815.2
2806.42
2799.27
2793.67
2789.57
2786.9
2785.61
2785.63
2786.93
2789.48
2793.28
2798.33
2804.63
2812.21
2821.09
2831.31
2842.91
2855.9
2870.32
2886.19
2903.52
2922.32
2942.58
2964.28
2987.39
3011.86
3037.63
3064.64
3092.8
3121.98
3152.02
3182.76
3214
3245.5
3277
3308.19
3338.75
3368.31
3396.5
3422.94
3447.24
3469.04
3487.96
3503.71
3515.99
3524.59
3529.32
3530.06
3526.8
3519.56
3508.4
3493.47
3474.95
3453.1
3428.23
3400.67
3370.83
3339.13
3306.02
3271.96
3237.42
3202.86
3168.68
3135.3
3103
3072.07
3042.73
3015.12
2989.36
2965.5
2943.56
2923.53
2905.36
2889.02
2874.43
2861.51
2850.2
2840.43
2832.11
2825.19
2819.62
2815.32
2812.25
2810.38
2809.64
2810.02
2811.5
2814.06
2817.7
2822.44
2828.28
2835.26
2843.43
2852.83
2863.53
2875.59
2889.07
2904.04
2920.57
2938.71
2958.49
2979.94
3003.05
3027.82
3054.19
3082.09
3111.38
3142.26
3173.93
3206.48
3239.57
3272.87
3306
3338.55
3370.09
3400.16
3428.32
3454.1
3477.06
3496.77
3512.86
3524.98
3532.88
3536.35
3535.29
3529.73
3519.74
3505.49
3487.24
3465.32
3440.15
3412.15
3381.81
3349.62
3316.07
3281.64
3246.8
3212
3177.63
3144.06
3111.56
3080.38
3050.7
3022.66
2996.36
2971.85
2949.17
2928.33
2909.31
2892.06
2876.54
2862.68
2850.39
2839.61
2830.28
2822.36
2815.79
2810.55
2806.62
2803.98
2802.61
2802.52
2803.69
2806.16
2809.94
2815.08
2821.6
2829.56
2838.98
2849.9
2862.34
2876.35
2891.97
2909.23
2928.18
2948.83
2971.18
2995.18
3020.81
3047.94
3076.45
3106.17
3137.55
3173.28
3208.88
3244.24
3279.12
3313.08
3345.54
3375.93
3403.79
3428.64
3450.14
3467.95
3481.8
3491.43
3496.63
3497.11
3493.75
3486.07
3473.94
3457.45
3436.87
3412.63
3385.19
3355.06
3322.8
3288.93
3253.97
3218.45
3182.77
3147.33
3111.92
3077.37
3044.5
3013.34
2983.93
2956.34
2930.6
2906.76
2884.82
2864.8
2846.67
2830.41
2815.99
2803.37
2792.51
2783.38
2775.93
2770.14
2765.97
2763.41
2762.46
2763.09
2765.36
2769.27
2774.83
2782.08
2791.05
2801.8
2814.37
2828.81
2845.14
2863.42
2883.66
2905.85
2930
2956.08
2984.04
3013.82
3045.25
3078.15
3103.19
3137.23
3171.93
3206.69
3241.18
3275.1
3307.84
3338.84
3232.43
3200.75
3168.06
3134.72
3101.16
3067.77
3035.15
3004.86
2974.21
2944.19
2915.36
2887.98
2862.19
2838.07
2815.66
2794.99
2776.06
2758.84
2743.29
2729.38
2717.07
2706.29
2697
2689.17
2682.74
2677.69
2673.99
2671.63
2670.6
2670.97
2672.69
2675.79
2680.32
2686.31
2693.82
2702.92
2713.64
2726.06
2740.23
2756.19
2773.99
2793.65
2815.19
2838.61
2863.87
2890.92
2919.71
2950.18
2982.21
3009.92
3043.6
3077.85
3112.43
3146.98
3181.1
3214.43
3246.57
3277.08
3305.6
3331.75
3355.18
3375.59
3392.69
3406.27
3416.16
3422.22
3424.37
3422.58
3416.9
3407.39
3394.15
3377.38
3357.32
3334.23
3308.46
3280.37
3250.33
3218.76
3186.05
3152.63
3118.87
3085.16
3051.84
3019.28
2987.59
2957.04
2927.8
2900.03
2873.85
2849.32
2826.52
2805.46
2786.19
2768.71
2753.01
2739.09
2726.93
2716.49
2707.74
2700.61
2695.04
2690.96
2688.31
2687.03
2687.07
2688.37
2690.93
2694.73
2699.77
2706.06
2713.62
2722.49
2732.7
2744.28
2757.25
2771.66
2787.52
2804.84
2823.63
2843.89
2865.59
2888.7
2913.18
2938.97
2966.01
2994.19
3023.42
3053.51
3084.32
3115.63
3147.23
3178.83
3210.14
3240.83
3270.53
3298.87
3325.47
3349.92
3371.85
3390.92
3406.78
3419.15
3427.82
3432.59
3433.35
3430.08
3422.79
3411.56
3396.53
3377.9
3355.92
3330.89
3303.18
3273.17
3241.29
3208.01
3173.79
3139.09
3104.39
3070.09
3036.62
3004.24
2973.26
2943.88
2916.25
2890.49
2866.63
2844.71
2824.7
2806.57
2790.26
2775.7
2762.82
2751.54
2741.79
2733.5
2726.61
2721.05
2716.78
2713.73
2711.86
2711.14
2711.53
2713.01
2715.57
2719.21
2723.93
2729.76
2736.72
2744.87
2754.25
2764.92
2776.95
2790.4
2805.35
2821.85
2839.96
2859.72
2881.16
2904.27
2929.04
2955.42
2983.35
3012.7
3043.59
3075.36
3108
3141.21
3174.64
3207.91
3240.62
3272.33
3302.58
3330.91
3356.87
3380
3399.87
3416.1
3428.33
3436.29
3439.8
3438.75
3433.15
3423.07
3408.7
3390.31
3368.23
3342.87
3314.69
3284.15
3251.78
3218.05
3183.45
3148.47
3113.53
3079.05
3045.39
3012.82
2981.59
2951.88
2923.82
2897.51
2873.01
2850.34
2829.52
2810.52
2793.31
2777.82
2763.99
2751.73
2740.98
2731.67
2723.76
2717.21
2711.98
2708.06
2705.42
2704.06
2703.96
2705.13
2707.59
2711.36
2716.48
2722.99
2730.93
2740.33
2751.23
2763.65
2777.64
2793.24
2810.48
2829.42
2850.05
2872.39
2896.41
2922.04
2949.2
2977.74
3007.48
3038.87
3074.88
3110.57
3146.04
3181.07
3215.21
3247.85
3278.42
3306.47
3331.5
3353.18
3371.15
3385.14
3394.89
3400.16
3400.68
3397.31
3389.56
3377.3
3360.67
3339.92
3315.47
3287.82
3257.49
3225.03
3190.97
3155.83
3120.15
3084.34
3048.76
3013.24
2978.61
2945.69
2914.5
2885.07
2857.47
2831.73
2807.9
2785.98
2765.97
2747.86
2731.62
2717.22
2704.62
2693.79
2684.67
2677.24
2671.45
2667.29
2664.74
2663.79
2664.42
2666.68
2670.58
2676.12
2683.35
2692.3
2703.03
2715.58
2729.99
2746.3
2764.56
2784.78
2806.96
2831.1
2857.17
2885.13
2914.91
2946.31
2979.12
3004.88
3038.87
3073.62
3108.47
3143.09
3177.16
3210.07
3241.23
3134.69
3102.84
3069.98
3036.47
3002.75
2969.19
2936.45
2906.24
2875.49
2845.39
2816.51
2789.1
2763.3
2739.18
2716.78
2696.13
2677.22
2660.02
2644.5
2630.62
2618.33
2607.58
2598.31
2590.5
2584.09
2579.05
2575.36
2573
2571.97
2572.33
2574.04
2577.13
2581.64
2587.6
2595.09
2604.16
2614.85
2627.24
2641.38
2657.31
2675.09
2694.73
2716.25
2739.67
2764.94
2792
2820.82
2851.35
2883.54
2911.14
2945.02
2979.39
3014.11
3048.8
3083.07
3116.57
3148.88
3179.56
3208.25
3234.56
3258.14
3278.67
3295.89
3309.56
3319.51
3325.61
3327.78
3325.98
3320.26
3310.67
3297.34
3280.45
3260.25
3237.01
3211.07
3182.8
3152.59
3120.85
3087.98
3054.4
3020.5
2986.66
2953.24
2920.61
2888.86
2858.24
2828.97
2801.18
2774.98
2750.45
2727.64
2706.6
2687.33
2669.86
2654.17
2640.27
2628.13
2617.72
2608.99
2601.88
2596.34
2592.29
2589.67
2588.41
2588.45
2589.77
2592.33
2596.13
2601.16
2607.44
2614.99
2623.84
2634.03
2645.59
2658.55
2672.94
2688.78
2706.09
2724.88
2745.13
2766.83
2789.95
2814.44
2840.25
2867.31
2895.53
2924.8
2954.95
2985.83
3017.23