/*--------------------------------*- C++ -*----------------------------------*\
| =========                 |                                                 |
| \\      /  F ield         | OpenFOAM: The Open Source CFD Toolbox           |
|  \\    /   O peration     | Version:  3.0.1                                 |
|   \\  /    A nd           | Web:      www.OpenFOAM.org                      |
|    \\/     M anipulation  |                                                 |
\*---------------------------------------------------------------------------*/
FoamFile
{
    version     2.0;
    format      ascii;
    class       volScalarField;
    location    "97.4";
    object      p_rgh;
}
// * * * * * * * * * * * * * * * * * * * * * * * * * * * * * * * * * * * * * //

dimensions      [1 -1 -2 0 0 0 0];

internalField   nonuniform List<scalar> 
21420
(
-263.75
-249.346
-233.187
-215.251
-195.52
-173.968
-150.59
-125.42
-98.5062
-69.9172
-39.8122
-9.25314
23.3089
56.725
90.7234
124.974
159.115
192.794
225.574
257.016
286.734
314.313
339.357
361.549
380.584
396.196
408.172
416.347
420.598
420.85
417.176
409.65
398.326
383.422
365.161
343.816
319.725
293.218
264.658
234.455
202.997
170.678
137.867
104.923
72.1901
39.9656
8.84596
-20.9848
-49.9954
-77.8341
-104.308
-129.291
-152.695
-174.475
-194.599
-213.067
-229.891
-245.086
-258.683
-270.716
-281.22
-290.232
-297.782
-303.909
-308.644
-311.994
-313.97
-314.365
-313.424
-311.093
-307.328
-302.109
-295.398
-287.13
-277.258
-265.748
-252.564
-237.682
-221.08
-202.758
-182.732
-161.03
-137.7
-112.807
-86.4311
-58.6655
-29.6118
0.773369
31.8926
63.7439
96.1123
128.74
161.328
193.553
225.066
255.51
284.523
311.751
336.846
359.482
379.352
396.177
409.717
419.773
426.191
428.778
427.648
422.671
413.882
401.393
385.342
365.922
343.375
317.999
290.128
260.136
228.422
195.403
161.501
127.133
92.6984
58.5706
25.0912
-7.43587
-38.7575
-68.6568
-96.959
-123.533
-148.284
-171.148
-192.092
-211.102
-228.189
-243.378
-256.705
-268.221
-277.983
-286.05
-292.491
-297.39
-300.796
-302.752
-303.372
-302.685
-300.719
-297.503
-293.048
-287.341
-280.364
-272.094
-262.49
-251.506
-239.097
-225.219
-209.827
-192.878
-174.339
-154.193
-132.44
-109.095
-84.2
-57.8177
-30.0344
-0.952627
29.2511
60.3768
92.2107
124.499
156.953
189.248
221.029
251.913
281.498
309.368
335.102
358.288
378.532
395.468
408.775
418.183
423.459
424.48
421.2
413.673
401.923
386.162
366.641
343.671
317.622
288.914
258.004
225.369
191.497
156.869
121.947
87.1623
52.9098
19.5427
-12.6415
-43.3902
-72.5066
-99.8488
-125.328
-148.903
-170.568
-190.343
-208.274
-224.416
-238.826
-251.572
-262.724
-272.344
-280.498
-287.249
-292.645
-296.734
-299.562
-301.139
-301.468
-300.599
-298.495
-295.14
-290.516
-284.584
-277.302
-268.627
-258.514
-246.914
-233.775
-219.054
-202.71
-184.714
-165.048
-143.706
-120.705
-96.0802
-69.8945
-42.2456
-13.2604
16.9056
48.1146
80.0081
112.359
144.852
177.133
208.813
239.481
268.717
296.092
321.185
343.59
362.922
378.828
391.002
399.198
403.173
402.938
398.395
389.63
376.772
360.056
339.775
316.284
289.984
261.31
230.715
198.663
165.618
132.031
98.375
65.2065
32.5891
0.932764
-29.4998
-58.513
-85.9613
-111.744
-135.801
-158.101
-178.651
-197.473
-214.61
-230.126
-244.079
-256.522
-267.488
-277
-285.098
-291.797
-297.069
-300.952
-303.372
-304.198
-303.675
-301.711
-298.239
-293.171
-286.439
-277.969
-267.633
-255.347
-241.016
-224.567
-205.986
-185.289
-162.498
-137.669
-110.919
-82.3484
-52.1321
-20.4477
12.5786
46.7703
81.4306
116.331
151.093
185.356
218.694
250.686
280.944
309.049
334.598
357.242
376.649
392.526
404.632
412.774
416.843
416.774
412.605
404.367
392.131
376.12
356.574
333.774
308.053
279.772
249.308
217.099
183.561
149.091
114.117
79.0224
44.2533
16.4933
-16.5808
-48.5828
-79.1895
-108.207
-135.523
-161.059
-184.757
-206.594
-226.55
-244.632
-260.897
-275.4
-263.819
-249.418
-233.262
-215.33
-195.6
-174.051
-150.673
-125.503
-98.588
-69.9967
-39.887
-9.31739
23.2518
56.6768
90.6864
124.95
159.107
192.802
225.601
257.061
286.797
314.394
339.455
361.663
380.711
396.334
408.319
416.499
420.759
421.001
417.324
409.793
398.46
383.544
365.27
343.909
319.801
293.278
264.7
234.48
203.006
170.671
137.845
104.888
72.1448
39.9111
8.78864
-21.0495
-50.0647
-77.9068
-104.383
-129.367
-152.771
-174.55
-194.672
-213.139
-229.961
-245.154
-258.748
-270.78
-281.281
-290.291
-297.84
-303.966
-308.699
-312.049
-314.022
-314.42
-313.48
-311.15
-307.387
-302.171
-295.463
-287.197
-277.328
-265.82
-252.639
-237.758
-221.158
-202.837
-182.811
-161.109
-137.778
-112.884
-86.5063
-58.7384
-29.6815
0.710441
31.8354
63.6937
96.071
128.709
161.31
193.549
225.077
255.536
284.566
311.81
336.922
359.573
379.457
396.294
409.845
419.908
426.331
428.93
427.786
422.811
414.017
401.52
385.458
366.025
343.463
318.07
290.182
260.172
228.439
195.403
161.484
127.101
92.6523
58.5125
25.023
-7.51236
-38.8403
-68.7442
-97.0494
-123.625
-148.377
-171.241
-192.183
-211.191
-228.276
-243.462
-256.787
-268.3
-278.059
-286.123
-292.561
-297.458
-300.859
-302.814
-303.433
-302.743
-300.777
-297.561
-293.106
-287.4
-280.425
-272.157
-262.555
-251.573
-239.167
-225.292
-209.901
-192.954
-174.418
-154.273
-132.521
-109.176
-84.2796
-57.8952
-30.1086
-1.0231
29.1869
60.3203
92.1632
124.463
156.929
189.238
221.035
251.936
281.54
309.428
335.181
358.386
378.648
395.599
408.919
418.338
423.625
424.64
421.359
413.827
402.068
386.294
366.757
343.769
317.7
288.972
258.04
225.385
191.493
156.846
121.907
87.1087
52.8441
19.4671
-12.7246
-43.4786
-72.5982
-99.9417
-125.421
-148.994
-170.656
-190.429
-208.356
-224.495
-238.901
-251.644
-262.793
-272.41
-280.561
-287.309
-292.704
-296.792
-299.618
-301.193
-301.523
-300.654
-298.551
-295.198
-290.575
-284.645
-277.365
-268.692
-258.582
-246.984
-233.849
-219.13
-202.788
-184.794
-165.129
-143.788
-120.787
-96.1612
-69.9734
-42.3212
-13.3315
16.8411
48.059
79.9621
112.325
144.832
177.128
208.825
239.512
268.766
296.161
321.272
343.695
363.044
378.964
391.15
399.354
403.341
403.096
398.552
389.779
376.91
360.179
339.882
316.372
290.052
261.358
230.743
198.672
165.609
132.006
98.3356
65.1547
32.5273
0.863594
-29.5743
-58.5906
-86.0405
-111.823
-135.88
-158.178
-178.725
-197.544
-214.678
-230.191
-244.141
-256.582
-267.546
-277.058
-285.155
-291.854
-297.129
-301.013
-303.43
-304.259
-303.739
-301.778
-298.309
-293.245
-286.516
-278.049
-267.716
-255.434
-241.105
-224.657
-206.078
-185.382
-162.59
-137.76
-111.007
-82.4325
-52.2112
-20.5197
12.5137
46.7193
81.3921
116.307
151.084
185.363
218.719
250.729
281.007
309.13
334.697
357.358
376.779
392.669
404.785
412.935
417.014
416.933
412.76
404.517
392.274
376.25
356.69
333.873
308.135
279.835
249.352
217.125
183.57
149.084
114.095
78.9879
44.2053
16.4312
-16.654
-48.6617
-79.2717
-108.291
-135.608
-161.144
-184.841
-206.677
-226.631
-244.711
-260.973
-275.474
-263.957
-249.563
-233.413
-215.486
-195.762
-174.215
-150.84
-125.669
-98.7518
-70.1554
-40.0352
-9.44701
23.1377
56.5806
90.6124
124.902
159.09
192.82
225.654
257.152
286.924
314.557
339.652
361.89
380.965
396.61
408.612
416.804
421.079
421.307
417.623
410.079
398.728
383.789
365.488
344.096
319.955
293.397
264.784
234.53
203.023
170.657
137.803
104.82
72.0544
39.8023
8.67399
-21.1788
-50.2031
-78.0522
-104.532
-129.519
-152.923
-174.7
-194.819
-213.282
-230.1
-245.288
-258.879
-270.906
-281.402
-290.409
-297.955
-304.077
-308.807
-312.156
-314.125
-314.528
-313.59
-311.262
-307.502
-302.291
-295.587
-287.326
-277.461
-265.959
-252.782
-237.904
-221.306
-202.987
-182.962
-161.259
-137.926
-113.029
-86.647
-58.8738
-29.8102
0.596002
31.7325
63.6055
96.001
128.66
161.286
193.553
225.111
255.602
284.665
311.942
337.086
359.768
379.68
396.542
410.112
420.191
426.623
429.242
428.076
423.101
414.298
401.784
385.701
366.242
343.65
318.224
290.3
260.254
228.485
195.413
161.462
127.048
92.5718
58.408
24.8986
-7.65285
-38.9932
-68.9058
-97.2169
-123.795
-148.548
-171.411
-192.35
-211.355
-228.435
-243.616
-256.935
-268.442
-278.194
-286.252
-292.685
-297.576
-300.967
-302.922
-303.537
-302.843
-300.875
-297.66
-293.205
-287.501
-280.53
-272.265
-262.667
-251.69
-239.289
-225.419
-210.033
-193.091
-174.558
-154.416
-132.665
-109.32
-84.4223
-58.0334
-30.2407
-1.14772
29.0751
60.2234
92.0844
124.405
156.896
189.234
221.063
251.998
281.638
309.564
335.355
358.596
378.892
395.875
409.22
418.658
423.971
424.972
421.69
414.147
402.37
386.57
367.001
343.976
317.867
289.097
258.123
225.426
191.495
156.812
121.84
87.0132
52.7247
19.3282
-12.8785
-43.6428
-72.7686
-100.115
-125.593
-149.163
-170.82
-190.587
-208.508
-224.639
-239.038
-251.774
-262.917
-272.528
-280.673
-287.416
-292.806
-296.891
-299.716
-301.285
-301.619
-300.751
-298.649
-295.299
-290.679
-284.752
-277.476
-268.809
-258.704
-247.111
-233.981
-219.267
-202.929
-184.939
-165.277
-143.938
-120.937
-96.3083
-70.1166
-42.4576
-13.4589
16.7267
47.9627
79.8848
112.271
144.806
177.133
208.864
239.586
268.878
296.311
321.46
343.919
363.3
379.25
391.459
399.679
403.686
403.424
398.877
390.089
377.197
360.437
340.105
316.557
290.197
261.462
230.807
198.698
165.599
131.963
98.2632
65.0569
32.4092
0.730341
-29.7185
-58.7415
-86.195
-111.979
-136.034
-158.329
-178.87
-197.683
-214.811
-230.317
-244.263
-256.7
-267.661
-277.17
-285.267
-291.967
-297.247
-301.133
-303.544
-304.379
-303.866
-301.911
-298.449
-293.39
-286.667
-278.209
-267.882
-255.605
-241.282
-224.838
-206.261
-185.566
-162.773
-137.94
-111.182
-82.5999
-52.3686
-20.6635
12.3859
46.6178
81.3156
116.258
151.066
185.379
218.77
250.817
281.132
309.293
334.895
357.589
377.04
392.955
405.09
413.256
417.35
417.255
413.072
404.819
392.558
376.511
356.921
334.071
308.298
279.961
249.441
217.178
183.588
149.07
114.053
78.9189
44.1087
16.3075
-16.8004
-48.8197
-79.4362
-108.459
-135.778
-161.314
-185.009
-206.842
-226.792
-244.868
-261.126
-275.623
-264.165
-249.78
-233.639
-215.72
-196.003
-174.463
-151.09
-125.919
-98.9975
-70.3939
-40.2596
-9.64001
22.9664
56.4361
90.5011
124.831
159.065
192.845
225.734
257.287
287.115
314.802
339.946
362.23
381.346
397.025
409.052
417.26
421.544
421.777
418.075
410.509
399.131
384.158
365.815
344.376
320.185
293.575
264.911
234.605
203.048
170.636
137.739
104.718
71.9185
39.6391
8.50157
-21.3731
-50.411
-78.2704
-104.757
-129.746
-153.15
-174.925
-195.04
-213.498
-230.309
-245.491
-259.074
-271.094
-281.585
-290.585
-298.126
-304.244
-308.97
-312.316
-314.281
-314.69
-313.754
-311.429
-307.675
-302.471
-295.774
-287.519
-277.662
-266.167
-252.996
-238.124
-221.53
-203.212
-183.187
-161.484
-138.148
-113.246
-86.8578
-59.0767
-30.0037
0.425368
31.5788
63.4737
95.8967
128.589
161.252
193.56
225.163
255.702
284.815
312.142
337.334
360.062
380.015
396.914
410.516
420.617
427.062
429.705
428.52
423.539
414.721
402.183
386.068
366.569
343.932
318.457
290.48
260.379
228.556
195.432
161.43
126.97
92.4525
58.2528
24.7138
-7.86199
-39.2209
-69.1466
-97.4663
-124.049
-148.803
-171.664
-192.599
-211.598
-228.672
-243.844
-257.154
-268.653
-278.395
-286.445
-292.869
-297.749
-301.13
-303.082
-303.69
-302.992
-301.022
-297.806
-293.352
-287.651
-280.685
-272.426
-262.834
-251.864
-239.471
-225.609
-210.23
-193.294
-174.767
-154.63
-132.881
-109.536
-84.6349
-58.2395
-30.4377
-1.3335
28.9089
60.0794
91.9675
124.321
156.849
189.23
221.105
252.092
281.786
309.769
335.617
358.914
379.262
396.291
409.674
419.14
424.479
425.48
422.192
414.629
402.825
386.986
367.368
344.288
318.119
289.287
258.25
225.49
191.5
156.762
121.741
86.8713
52.547
19.1211
-13.1079
-43.8879
-73.0229
-100.372
-125.85
-149.415
-171.064
-190.822
-208.733
-224.853
-239.242
-251.968
-263.1
-272.702
-280.84
-287.576
-292.959
-297.04
-299.862
-301.425
-301.763
-300.894
-298.794
-295.449
-290.834
-284.912
-277.642
-268.983
-258.885
-247.3
-234.177
-219.47
-203.14
-185.155
-165.497
-144.161
-121.16
-96.5279
-70.3301
-42.6609
-13.6483
16.5558
47.8196
79.7703
112.192
144.769
177.142
208.924
239.7
269.049
296.538
321.744
344.256
363.687
379.68
391.924
400.167
404.201
403.922
399.369
390.557
377.63
360.825
340.441
316.836
290.415
261.62
230.904
198.737
165.585
131.9
98.1552
64.9102
32.2322
0.530465
-29.9348
-58.9678
-86.4267
-112.212
-136.264
-158.555
-179.089
-197.893
-215.01
-230.508
-244.445
-256.876
-267.833
-277.339
-285.435
-292.137
-297.423
-301.312
-303.716
-304.56
-304.056
-302.11
-298.658
-293.61
-286.898
-278.448
-268.132
-255.863
-241.547
-225.108
-206.535
-185.842
-163.048
-138.211
-111.446
-82.8514
-52.6049
-20.8797
12.1947
46.4653
81.2005
116.185
151.039
185.402
218.847
250.949
281.32
309.537
335.192
357.935
377.431
393.384
405.549
413.736
417.842
417.746
413.544
405.272
392.986
376.902
357.268
334.369
308.542
280.15
249.574
217.256
183.614
149.049
113.989
78.8155
43.9634
16.1214
-17.0204
-49.0568
-79.683
-108.712
-136.033
-161.568
-185.262
-207.09
-227.035
-245.105
-261.356
-275.846
-264.442
-250.069
-233.941
-216.033
-196.326
-174.792
-151.423
-126.253
-99.3254
-70.7124
-40.5636
-9.89383
22.7382
56.243
90.3523
124.735
159.03
192.879
225.841
257.468
287.369
315.128
340.339
362.684
381.854
397.578
409.64
417.87
422.159
422.405
418.683
411.084
399.668
384.648
366.251
344.75
320.492
293.813
265.079
234.705
203.082
170.608
137.654
104.581
71.7371
39.4216
8.27087
-21.6324
-50.6884
-78.5616
-105.057
-130.05
-153.453
-175.224
-195.334
-213.785
-230.587
-245.76
-259.335
-271.346
-281.828
-290.821
-298.355
-304.466
-309.187
-312.528
-314.492
-314.906
-313.973
-311.653
-307.906
-302.71
-296.024
-287.778
-277.93
-266.445
-253.282
-238.417
-221.827
-203.513
-183.489
-161.784
-138.444
-113.536
-87.1391
-59.3476
-30.2635
0.198878
31.3736
63.2976
95.7571
128.492
161.205
193.568
225.232
255.836
285.014
312.407
337.665
360.454
380.463
397.412
411.054
421.186
427.65
430.315
429.119
424.126
415.287
402.716
386.558
367.006
344.309
318.767
290.72
260.546
228.651
195.456
161.387
126.866
92.2934
58.0459
24.4673
-8.14102
-39.5246
-69.4678
-97.7989
-124.388
-149.143
-172.002
-192.931
-211.923
-228.987
-244.148
-257.447
-268.934
-278.663
-286.701
-293.113
-297.981
-301.348
-303.294
-303.895
-303.19
-301.217
-298.001
-293.549
-287.852
-280.892
-272.641
-263.057
-252.097
-239.714
-225.862
-210.493
-193.566
-175.046
-154.914
-133.168
-109.823
-84.9184
-58.515
-30.7008
-1.58146
28.6871
59.8871
91.8114
124.207
156.786
189.223
221.162
252.218
281.985
310.043
335.967
359.337
379.755
396.846
410.28
419.785
425.146
426.166
422.866
415.275
403.433
387.541
367.859
344.704
318.455
289.54
258.418
225.575
191.506
156.695
121.609
86.6818
52.3097
18.8445
-13.4142
-44.215
-73.3622
-100.716
-126.193
-149.752
-171.39
-191.136
-209.034
-225.139
-239.514
-252.227
-263.345
-272.935
-281.062
-287.788
-293.163
-297.237
-300.053
-301.613
-301.953
-301.084
-298.988
-295.649
-291.04
-285.125
-277.864
-269.214
-259.127
-247.553
-234.439
-219.742
-203.42
-185.443
-165.791
-144.458
-121.457
-96.821
-70.6149
-42.9321
-13.9005
16.3268
47.6292
79.6174
112.087
144.719
177.154
209.004
239.853
269.276
296.841
322.122
344.707
364.204
380.255
392.545
400.82
404.879
404.595
400.028
391.182
378.208
361.344
340.89
317.208
290.707
261.83
231.034
198.79
165.565
131.814
98.0111
64.714
31.9957
0.263339
-30.2237
-59.27
-86.7359
-112.523
-136.573
-158.856
-179.38
-198.172
-215.277
-230.762
-244.689
-257.111
-268.062
-277.564
-285.659
-292.363
-297.656
-301.548
-303.949
-304.802
-304.309
-302.376
-298.936
-293.901
-287.203
-278.768
-268.464
-256.207
-241.9
-225.47
-206.901
-186.211
-163.416
-138.573
-111.797
-83.1874
-52.9204
-21.1682
11.9399
46.2616
81.0467
116.087
151.002
185.433
218.949
251.125
281.57
309.861
335.588
358.398
377.953
393.956
406.161
414.376
418.489
418.403
414.18
405.879
393.557
377.423
357.731
334.766
308.868
280.402
249.751
217.36
183.648
149.02
113.903
78.6777
43.7697
15.8723
-17.3147
-49.3735
-80.0125
-109.049
-136.374
-161.908
-185.598
-207.42
-227.358
-245.42
-261.663
-276.143
-264.789
-250.431
-234.318
-216.424
-196.729
-175.205
-151.841
-126.67
-99.7358
-71.1113
-40.9479
-10.2085
22.4526
56.0009
90.1655
124.615
158.987
192.921
225.974
257.694
287.687
315.535
340.831
363.252
382.489
398.269
410.375
418.632
422.93
423.183
419.445
411.805
400.341
385.263
366.796
345.217
320.876
294.111
265.289
234.829
203.123
170.572
137.546
104.409
71.5096
39.1499
7.98121
-21.9571
-51.0355
-78.9259
-105.432
-130.429
-153.833
-175.6
-195.702
-214.144
-230.936
-246.098
-259.66
-271.661
-282.132
-291.115
-298.641
-304.745
-309.458
-312.793
-314.755
-315.176
-314.246
-311.932
-308.194
-303.01
-296.336
-288.1
-278.265
-266.793
-253.641
-238.783
-222.2
-203.889
-183.866
-162.159
-138.815
-113.899
-87.4912
-59.6868
-30.5907
-0.0831541
31.1165
63.0768
95.582
128.371
161.146
193.579
225.318
256.002
285.263
312.74
338.078
360.944
381.024
398.034
411.727
421.898
428.387
431.069
429.875
424.862
415.995
403.383
387.17
367.552
344.781
319.156
291.02
260.755
228.769
195.485
161.333
126.735
92.0935
57.7863
24.1582
-8.49067
-39.9051
-69.8702
-98.2155
-124.812
-149.568
-172.424
-193.347
-212.329
-229.381
-244.529
-257.813
-269.285
-278.999
-287.021
-293.419
-298.269
-301.623
-303.56
-304.15
-303.438
-301.461
-298.244
-293.794
-288.103
-281.151
-272.909
-263.336
-252.388
-240.017
-226.178
-210.822
-193.905
-175.395
-155.271
-133.528
-110.183
-85.2735
-58.8604
-31.0311
-1.89218
28.4092
59.6461
91.6154
124.065
156.706
189.215
221.233
252.374
282.233
310.385
336.404
359.867
380.371
397.54
411.039
420.591
425.979
427.021
423.712
416.085
404.193
388.236
368.473
345.225
318.876
289.856
258.628
225.681
191.513
156.61
121.442
86.4437
52.0119
18.4977
-13.7984
-44.6251
-73.7875
-101.148
-126.622
-150.172
-171.798
-191.529
-209.41
-225.497
-239.855
-252.55
-263.651
-273.226
-281.34
-288.053
-293.418
-297.484
-300.292
-301.851
-302.191
-301.323
-299.231
-295.899
-291.298
-285.391
-278.142
-269.504
-259.43
-247.869
-234.768
-220.082
-203.772
-185.804
-166.16
-144.83
-121.829
-97.1884
-70.9718
-43.2719
-14.216
16.0392
47.3905
79.4252
111.954
144.655
177.169
209.103
240.042
269.559
297.22
322.596
345.271
364.851
380.974
393.323
401.638
405.72
405.443
400.852
391.964
378.932
361.993
341.452
317.674
291.072
262.092
231.195
198.855
165.54
131.707
97.8306
64.4676
31.6991
-0.0715627
-30.5855
-59.6484
-87.1229
-112.912
-136.958
-159.233
-179.745
-198.521
-215.61
-231.08
-244.993
-257.405
-268.348
-277.844
-285.938
-292.645
-297.946
-301.841
-304.243
-305.105
-304.627
-302.708
-299.284
-294.267
-287.586
-279.168
-268.88
-256.637
-242.342
-225.921
-207.359
-186.672
-163.875
-139.025
-112.237
-83.6082
-53.3156
-21.5294
11.6215
46.0064
80.8537
115.963
150.955
185.47
219.076
251.343
281.883
310.267
336.083
358.976
378.606
394.672
406.927
415.176
419.302
419.218
414.979
406.639
394.271
378.075
358.31
335.263
309.276
280.717
249.972
217.49
183.691
148.983
113.795
78.5057
43.5282
15.5584
-17.6842
-49.7701
-80.4247
-109.47
-136.799
-162.333
-186.018
-207.834
-227.763
-245.814
-262.046
-276.515
-265.204
-250.866
-234.771
-216.893
-197.213
-175.7
-152.343
-127.171
-100.229
-71.5905
-41.4113
-10.586
22.1092
55.7093
89.9403
124.469
158.933
192.971
226.133
257.964
288.069
316.024
341.421
363.934
383.252
399.1
411.258
419.549
423.86
424.114
420.359
412.671
401.15
386
367.451
345.778
321.336
294.467
265.541
234.977
203.172
170.528
137.416
104.201
71.2358
38.8241
7.63173
-22.3475
-51.4526
-79.3637
-105.883
-130.886
-154.288
-176.05
-196.144
-214.574
-231.354
-246.502
-260.052
-272.038
-282.497
-291.469
-298.985
-305.079
-309.784
-313.112
-315.068
-315.498
-314.573
-312.267
-308.541
-303.37
-296.709
-288.488
-278.668
-267.21
-254.07
-239.223
-222.647
-204.34
-184.319
-162.61
-139.26
-114.334
-87.914
-60.0941
-30.9859
-0.42061
30.807
62.8109
95.3708
128.225
161.074
193.59
225.421
256.201
285.562
313.138
338.574
361.533
381.697
398.781
412.536
422.754
429.273
431.971
430.784
425.746
416.846
404.185
387.906
368.209
345.347
319.622
291.38
261.005
228.91
195.52
161.267
126.576
91.8524
57.4734
23.786
-8.91156
-40.3629
-70.3544
-98.7165
-125.322
-150.08
-172.932
-193.847
-212.817
-229.855
-244.986
-258.253
-269.707
-279.403
-287.406
-293.785
-298.616
-301.954
-303.878
-304.457
-303.735
-301.754
-298.537
-294.089
-288.404
-281.462
-273.231
-263.671
-252.738
-240.382
-226.558
-211.217
-194.314
-175.815
-155.7
-133.961
-110.616
-85.7007
-59.2762
-31.4291
-2.26598
28.0748
59.3557
91.3788
123.893
156.609
189.203
221.316
252.561
282.529
310.795
336.929
360.503
381.111
398.374
411.951
421.561
426.983
428.045
424.727
417.058
405.107
389.07
369.21
345.851
319.382
290.235
258.879
225.807
191.519
156.507
121.241
86.1562
51.6529
18.0799
-14.261
-45.1187
-74.2994
-101.666
-127.138
-150.678
-172.289
-192
-209.861
-225.928
-240.264
-252.939
-264.02
-273.576
-281.673
-288.372
-293.725
-297.781
-300.579
-302.137
-302.477
-301.61
-299.524
-296.199
-291.607
-285.712
-278.476
-269.853
-259.794
-248.248
-235.162
-220.491
-204.194
-186.238
-166.602
-145.278
-122.277
-97.6305
-71.4012
-43.6806
-14.5954
15.6926
47.1028
79.1929
111.794
144.578
177.185
209.221
240.269
269.899
297.675
323.164
345.947
365.627
381.838
394.257
402.622
406.73
406.462
401.842
392.905
379.802
362.772
342.126
318.232
291.509
262.406
231.388
198.932
165.509
131.577
97.613
64.1706
31.3421
-0.474794
-31.0207
-60.1034
-87.588
-113.38
-137.421
-159.686
-180.182
-198.941
-216.011
-231.462
-245.358
-257.757
-268.691
-278.181
-286.274
-292.983
-298.292
-302.19
-304.599
-305.469
-305.008
-303.107
-299.702
-294.706
-288.047
-279.647
-269.379
-257.153
-242.873
-226.464
-207.909
-187.225
-164.427
-139.569
-112.765
-84.1141
-53.7908
-21.9638
11.2388
45.6994
80.6212
115.814
150.899
185.515
219.228
251.606
282.257
310.754
336.677
359.67
379.39
395.531
407.846
416.136
420.279
420.196
415.939
407.555
395.129
378.859
359.005
335.859
309.764
281.094
250.237
217.644
183.742
148.938
113.665
78.2996
43.2405
15.1775
-18.1299
-50.247
-80.92
-109.977
-137.31
-162.843
-186.523
-208.33
-228.248
-246.288
-262.505
-276.961
-265.689
-251.373
-235.3
-217.441
-197.779
-176.279
-152.929
-127.757
-100.805
-72.1504
-41.9524
-11.0283
21.7069
55.3675
89.6758
124.298
158.87
193.028
226.318
258.279
288.514
316.595
342.109
364.73
384.143
400.071
412.29
420.621
424.948
425.201
421.422
413.684
402.094
386.861
368.215
346.432
321.873
294.883
265.834
235.149
203.229
170.475
137.264
103.958
70.9149
38.444
7.22143
-22.8038
-51.94
-79.8754
-106.41
-131.418
-154.82
-176.576
-196.66
-215.077
-231.842
-246.974
-260.508
-272.479
-282.923
-291.881
-299.385
-305.468
-310.164
-313.484
-315.436
-315.873
-314.954
-312.658
-308.945
-303.79
-297.145
-288.94
-279.138
-267.697
-254.572
-239.737
-223.169
-204.868
-184.848
-163.137
-139.78
-114.843
-88.4077
-60.5697
-31.4495
-0.813531
30.4443
62.4994
95.1229
128.052
160.989
193.602
225.538
256.431
285.909
313.602
339.154
362.22
382.484
399.654
413.48
423.753
430.309
433.026
431.843
426.78
417.841
405.12
388.766
368.976
346.009
320.166
291.8
261.297
229.073
195.559
161.189
126.39
91.5693
57.1067
23.3498
-9.40428
-40.8988
-70.9208
-99.3023
-125.918
-150.678
-173.526
-194.431
-213.388
-230.408
-245.521
-258.768
-270.2
-279.875
-287.856
-294.213
-299.022
-302.341
-304.25
-304.814
-304.083
-302.096
-298.878
-294.434
-288.757
-281.825
-273.608
-264.063
-253.146
-240.809
-227.002
-211.678
-194.792
-176.307
-156.201
-134.468
-111.122
-86.2005
-59.7629
-31.8951
-2.70393
27.6833
59.0153
91.1012
123.69
156.494
189.188
221.412
252.778
282.874
311.273
337.54
361.245
381.976
399.347
413.015
422.695
428.159
429.242
425.911
418.196
406.176
390.045
370.07
346.581
319.971
290.676
259.171
225.952
191.526
156.385
121.004
85.8186
51.2318
17.5901
-14.803
-45.6968
-74.8984
-102.273
-127.741
-151.27
-172.862
-192.552
-210.389
-226.431
-240.742
-253.393
-264.45
-273.985
-282.063
-288.744
-294.083
-298.127
-300.915
-302.471
-302.809
-301.945
-299.866
-296.549
-291.968
-286.087
-278.866
-270.26
-260.219
-248.691
-235.623
-220.97
-204.688
-186.745
-167.12
-145.801
-122.801
-98.1477
-71.9035
-44.1586
-15.0392
15.2943
46.7577
78.92
111.606
144.487
177.203
209.358
240.533
270.295
298.205
323.827
346.737
366.534
382.848
395.349
403.772
407.912
407.651
403
394.004
380.818
363.683
342.914
318.885
292.02
262.772
231.612
199.021
165.47
131.424
97.3575
63.8225
30.9238
-0.946983
-31.5298
-60.6355
-88.1316
-113.927
-137.963
-160.216
-180.694
-199.431
-216.478
-231.906
-245.784
-258.168
-269.09
-278.574
-286.664
-293.376
-298.694
-302.598
-305.014
-305.895
-305.452
-303.572
-300.19
-295.216
-288.58
-280.207
-269.961
-257.756
-243.493
-227.097
-208.552
-187.872
-165.071
-140.204
-113.383
-84.7054
-54.3466
-22.472
10.7915
45.3404
80.3487
115.639
150.831
185.565
219.404
251.911
282.694
311.322
337.371
360.481
380.305
396.535
408.92
417.257
421.422
421.338
417.06
408.625
396.132
379.773
359.817
336.554
310.335
281.534
250.545
217.824
183.799
148.883
113.513
78.0597
42.9086
14.7263
-18.6533
-50.8049
-81.4988
-110.569
-137.907
-163.439
-187.113
-208.909
-228.815
-246.84
-263.042
-277.481
-266.244
-251.952
-235.903
-218.067
-198.425
-176.942
-153.6
-128.427
-101.465
-72.7909
-42.5703
-11.5372
21.2449
54.9746
89.3714
124.1
158.795
193.092
226.529
258.639
289.022
317.248
342.897
365.641
385.163
401.181
413.471
421.848
426.194
426.444
422.637
414.842
403.175
387.847
369.088
347.181
322.487
295.358
266.167
235.345
203.292
170.414
137.088
103.679
70.5461
38.0094
6.74935
-23.3261
-52.4979
-80.4614
-107.013
-132.028
-155.43
-177.178
-197.25
-215.652
-232.399
-247.514
-261.03
-272.982
-283.41
-292.352
-299.842
-305.914
-310.599
-313.911
-315.861
-316.302
-315.389
-313.104
-309.406
-304.269
-297.643
-289.457
-279.675
-268.254
-255.146
-240.324
-223.767
-205.471
-185.453
-163.739
-140.374
-115.425
-88.9724
-61.1135
-31.9817
-1.26248
30.0278
62.1416
94.8379
127.854
160.889
193.614
225.672
256.694
286.305
314.133
339.816
363.006
383.383
400.653
414.561
424.897
431.495
434.234
433.053
427.963
418.978
406.191
389.749
369.854
346.765
320.788
292.279
261.629
229.259
195.602
161.098
126.175
91.2435
56.6851
22.849
-9.96973
-41.5134
-71.5701
-99.9738
-126.601
-151.363
-174.205
-195.099
-214.041
-231.042
-246.133
-259.357
-270.764
-280.414
-288.371
-294.703
-299.486
-302.784
-304.674
-305.222
-304.48
-302.487
-299.268
-294.828
-289.159
-282.24
-274.038
-264.511
-253.613
-241.296
-227.511
-212.207
-195.339
-176.869
-156.774
-135.048
-111.702
-86.7733
-60.3206
-32.4292
-3.20684
27.2343
58.6243
90.7818
123.457
156.36
189.168
221.52
253.023
283.267
311.818
338.239
362.093
382.965
400.462
414.235
423.993
429.506
430.612
427.267
419.499
407.399
391.161
371.054
347.416
320.643
291.18
259.503
226.117
191.531
156.244
120.73
85.4302
50.7476
17.0275
-15.4251
-46.3601
-75.5854
-102.969
-128.432
-151.947
-173.519
-193.183
-210.993
-227.006
-241.289
-253.912
-264.943
-274.453
-282.508
-289.17
-294.492
-298.523
-301.3
-302.851
-303.189
-302.328
-300.256
-296.95
-292.382
-286.516
-279.312
-270.725
-260.705
-249.198
-236.151
-221.517
-205.253
-187.326
-167.712
-146.401
-123.401
-98.7404
-72.4792
-44.7067
-15.5479
14.8418
46.3566
78.6056
111.388
144.38
177.221
209.512
240.833
270.747
298.81
324.585
347.64
367.572
384.002
396.599
405.089
409.266
409.011
404.326
395.263
381.981
364.724
343.814
319.63
292.602
263.19
231.868
199.121
165.425
131.247
97.0631
63.4227
30.4434
-1.48883
-32.1134
-61.2451
-88.7541
-114.552
-138.582
-160.821
-181.279
-199.992
-217.012
-232.415
-246.271
-258.637
-269.547
-279.022
-287.11
-293.826
-299.152
-303.064
-305.49
-306.382
-305.961
-304.104
-300.747
-295.8
-289.19
-280.847
-270.626
-258.445
-244.202
-227.821
-209.287
-188.612
-165.809
-140.931
-114.09
-85.3827
-54.9834
-23.0548
10.2789
44.9289
80.0356
115.437
150.752
185.621
219.604
252.259
283.192
311.971
338.164
361.408
381.352
397.684
410.149
418.541
422.73
422.645
418.341
409.85
397.279
380.82
360.745
337.349
310.986
282.036
250.897
218.028
183.863
148.82
113.336
77.786
42.5356
14.2007
-19.2558
-51.4444
-82.1615
-111.246
-138.59
-164.121
-187.787
-209.572
-229.463
-247.471
-263.655
-278.076
-266.867
-252.604
-236.583
-218.772
-199.154
-177.688
-154.356
-129.183
-102.209
-73.5124
-43.2647
-12.1142
20.7221
54.5299
89.0261
123.874
158.709
193.162
226.764
259.043
289.593
317.982
343.783
366.666
386.311
402.432
414.801
423.23
427.6
427.844
424.005
416.148
404.394
388.957
370.071
348.023
323.178
295.891
266.542
235.563
203.361
170.342
136.888
103.362
70.1283
37.5196
6.21483
-23.9142
-53.1268
-81.1221
-107.693
-132.715
-156.116
-177.855
-197.915
-216.299
-233.027
-248.121
-261.616
-273.549
-283.957
-292.882
-300.356
-306.414
-311.088
-314.391
-316.34
-316.785
-315.878
-313.606
-309.925
-304.809
-298.202
-290.038
-280.28
-268.881
-255.792
-240.986
-224.439
-206.15
-186.134
-164.418
-141.044
-116.081
-89.6084
-61.725
-32.5806
-1.7704
29.5561
61.737
94.5156
127.629
160.776
193.626
225.82
256.988
286.75
314.73
340.561
363.892
384.396
401.778
415.779
426.186
432.832
435.596
434.416
429.297
420.261
407.398
390.857
370.843
347.616
321.488
292.818
262.002
229.466
195.649
160.992
125.93
90.874
56.2078
22.2827
-10.6087
-42.2073
-72.3031
-100.732
-127.371
-152.135
-174.972
-195.853
-214.776
-231.756
-246.822
-260.02
-271.399
-281.021
-288.95
-295.255
-300.009
-303.283
-305.152
-305.682
-304.927
-302.927
-299.706
-295.271
-289.612
-282.707
-274.523
-265.016
-254.139
-241.845
-228.083
-212.802
-195.955
-177.503
-157.421
-135.702
-112.356
-87.4196
-60.95
-33.0323
-3.77577
26.7275
58.1818
90.42
123.191
156.207
189.144
221.638
253.298
283.708
312.431
339.025
363.048
384.078
401.717
415.609
425.457
431.027
432.156
428.794
420.969
408.778
392.418
372.164
348.356
321.401
291.745
259.876
226.3
191.534
156.081
120.419
84.9898
50.1995
16.391
-16.1284
-47.1096
-76.3614
-103.753
-129.212
-152.71
-174.258
-193.894
-211.673
-227.654
-241.906
-254.497
-265.497
-274.98
-283.01
-289.649
-294.953
-298.968
-301.734
-303.276
-303.617
-302.759
-300.695
-297.401
-292.848
-286.999
-279.815
-271.249
-261.253
-249.77
-236.745
-222.134
-205.89
-187.98
-168.38
-147.077
-124.078
-99.409
-73.129
-45.3256
-16.1227
14.329
45.9039
78.2493
111.14
144.258
177.238
209.684
241.169
271.254
299.491
325.437
348.657
368.74
385.304
398.008
406.575
410.793