/*--------------------------------*- C++ -*----------------------------------*\
| =========                 |                                                 |
| \\      /  F ield         | OpenFOAM: The Open Source CFD Toolbox           |
|  \\    /   O peration     | Version:  3.0.1                                 |
|   \\  /    A nd           | Web:      www.OpenFOAM.org                      |
|    \\/     M anipulation  |                                                 |
\*---------------------------------------------------------------------------*/
FoamFile
{
    version     2.0;
    format      ascii;
    class       surfaceScalarField;
    location    "17.4";
    object      phi;
}
// * * * * * * * * * * * * * * * * * * * * * * * * * * * * * * * * * * * * * //

dimensions      [0 3 -1 0 0 0 0];

internalField   nonuniform List<scalar> 
42423
(
-0.000142934
-7.24099e-06
-0.000134577
-8.35692e-06
-0.000125286
-9.29191e-06
-0.000115027
-1.0259e-05
-0.000103505
-1.1522e-05
-9.10421e-05
-1.24627e-05
-7.73255e-05
-1.37166e-05
-6.26506e-05
-1.4675e-05
-4.70748e-05
-1.55758e-05
-3.0532e-05
-1.65428e-05
-1.31171e-05
-1.7415e-05
4.90478e-06
-1.80219e-05
2.3598e-05
-1.86933e-05
4.27198e-05
-1.91218e-05
6.222e-05
-1.95003e-05
8.18305e-05
-1.96105e-05
0.000101072
-1.92416e-05
0.000119875
-1.88026e-05
0.000138042
-1.81671e-05
0.000155066
-1.70247e-05
0.000170821
-1.57542e-05
0.000185122
-1.43012e-05
0.000197647
-1.2525e-05
0.00020815
-1.0503e-05
0.000216482
-8.33276e-06
0.000222462
-5.98009e-06
0.000225976
-3.51321e-06
0.000227024
-1.04814e-06
0.000225514
1.50943e-06
0.00022141
4.10373e-06
0.000214711
6.69958e-06
0.000205779
8.93216e-06
0.000194729
1.105e-05
0.000181745
1.29836e-05
0.000167068
1.46769e-05
0.000150906
1.61622e-05
0.000133543
1.73624e-05
0.000115295
1.8248e-05
9.64048e-05
1.88906e-05
7.71559e-05
1.92488e-05
5.77945e-05
1.93614e-05
3.84738e-05
1.93207e-05
1.93908e-05
1.9083e-05
9.06482e-07
1.84843e-05
-1.70243e-05
1.79308e-05
-3.42501e-05
1.72258e-05
-5.06241e-05
1.6374e-05
-6.60763e-05
1.54522e-05
-8.05779e-05
1.45016e-05
-9.40785e-05
1.35006e-05
-0.000106557
1.24782e-05
-0.000118036
1.14798e-05
-0.000128509
1.04726e-05
-0.000138018
9.50906e-06
-0.000146562
8.54405e-06
-0.000154201
7.63846e-06
-0.000160986
6.7852e-06
-0.000166896
5.91054e-06
-0.000171984
5.08801e-06
-0.000176313
4.32838e-06
-0.000179862
3.54944e-06
-0.000182699
2.83636e-06
-0.000184726
2.02738e-06
-0.000186001
1.27462e-06
-0.000186583
5.82831e-07
-0.00018636
-2.23185e-07
-0.000185281
-1.07974e-06
-0.00018352
-1.76024e-06
-0.000180823
-2.6977e-06
-0.000177367
-3.45582e-06
-0.000173059
-4.30758e-06
-0.000167866
-5.19312e-06
-0.000161863
-6.00323e-06
-0.000155025
-6.83823e-06
-0.000147229
-7.79578e-06
-0.000138631
-8.59774e-06
-0.000129029
-9.60205e-06
-0.000118674
-1.03548e-05
-0.000107414
-1.12606e-05
-9.52525e-05
-1.21614e-05
-8.24036e-05
-1.2849e-05
-6.87038e-05
-1.36998e-05
-5.41784e-05
-1.45255e-05
-3.88936e-05
-1.52849e-05
-2.28914e-05
-1.60023e-05
-6.21853e-06
-1.66729e-05
1.10454e-05
-1.7264e-05
2.88035e-05
-1.77582e-05
4.69445e-05
-1.8141e-05
6.53083e-05
-1.83639e-05
8.36886e-05
-1.83804e-05
0.000101855
-1.81663e-05
0.000119474
-1.76195e-05
0.000136442
-1.69674e-05
0.000152395
-1.59536e-05
0.000167217
-1.48215e-05
0.000180554
-1.33373e-05
0.000192164
-1.16103e-05
0.000201864
-9.70032e-06
0.000209414
-7.54998e-06
0.000214632
-5.21742e-06
0.000217529
-2.89754e-06
0.000218061
-5.31871e-07
0.000216128
1.93316e-06
0.000211819
4.30883e-06
0.000205142
6.67718e-06
0.000196271
8.87109e-06
0.000185332
1.09388e-05
0.000172506
1.28255e-05
0.000158073
1.44335e-05
0.000142179
1.58941e-05
0.000125124
1.70549e-05
0.000107091
1.80326e-05
8.83395e-05
1.87517e-05
6.91298e-05
1.92097e-05
4.96623e-05
1.94675e-05
3.01783e-05
1.94839e-05
1.09674e-05
1.92109e-05
-7.87365e-06
1.88411e-05
-2.60501e-05
1.81764e-05
-4.34588e-05
1.74088e-05
-5.99424e-05
1.64836e-05
-7.53919e-05
1.54494e-05
-8.9786e-05
1.43941e-05
-0.000103053
1.32667e-05
-0.000115194
1.21417e-05
-0.000126179
1.09849e-05
-0.000136054
9.8747e-06
-0.000144796
8.74253e-06
-0.000152522
7.72517e-06
-0.000159268
6.74608e-06
-0.000165097
5.8291e-06
-0.000169968
4.87099e-06
-0.000174061
4.09357e-06
-0.000177387
3.32609e-06
-0.000179911
2.52358e-06
-0.00018167
1.75909e-06
-0.00018273
1.0598e-06
-0.000183102
3.71705e-07
-0.000182838
-2.63646e-07
-0.000181791
-1.04673e-06
-0.000180056
-1.73551e-06
-0.000177624
-2.43189e-06
-0.000174361
-3.26256e-06
-0.000170393
-3.96854e-06
-0.000165659
-4.73409e-06
-0.000160035
-5.62416e-06
-0.000153472
-6.56248e-06
-0.000145998
-7.47389e-06
-0.000137608
-8.38994e-06
-0.000128409
-9.19965e-06
-0.000118243
-1.01657e-05
-0.000107023
-1.12198e-05
-9.49758e-05
-1.20474e-05
-8.20656e-05
-1.29103e-05
-6.81596e-05
-1.3906e-05
-5.35029e-05
-1.46568e-05
-3.79475e-05
-1.55554e-05
-2.16629e-05
-1.62846e-05
-4.93641e-06
-1.67266e-05
1.24239e-05
-1.73603e-05
3.00801e-05
-1.76563e-05
4.79883e-05
-1.79082e-05
6.59442e-05
-1.79559e-05
8.38094e-05
-1.78653e-05
0.000101397
-1.75873e-05
0.000118485
-1.70885e-05
0.000134822
-1.63369e-05
0.000150293
-1.54709e-05
0.000164657
-1.43645e-05
0.000177571
-1.29136e-05
0.00018905
-1.14793e-05
0.000198791
-9.74139e-06
0.000206443
-7.65216e-06
0.000212062
-5.61835e-06
0.000215463
-3.40122e-06
0.000216748
-1.2854e-06
0.000215684
1.06437e-06
0.00021206
3.62397e-06
0.000206124
5.93597e-06
0.000197856
8.26785e-06
0.000187325
1.05305e-05
0.00017474
1.25852e-05
0.000160229
1.45114e-05
0.00014407
1.61589e-05
0.00012651
1.75603e-05
0.000107808
1.87017e-05
8.83139e-05
1.94941e-05
6.829e-05
2.00239e-05
4.80896e-05
2.02004e-05
2.79572e-05
2.01324e-05
8.20387e-06
1.97533e-05
-1.0992e-05
1.91958e-05
-2.92835e-05
1.82915e-05
-4.66017e-05
1.73182e-05
-6.27684e-05
1.61668e-05
-7.77224e-05
1.4954e-05
-9.138e-05
1.36576e-05
-0.000103796
1.24156e-05
-0.000114898
1.11029e-05
-0.000124805
9.90698e-06
-0.000133555
8.74997e-06
-0.000141244
7.68843e-06
-0.000147906
6.66262e-06
-0.000153612
5.70588e-06
-0.000158578
4.96548e-06
-0.000162715
4.13691e-06
-0.000166181
3.46583e-06
-0.000169032
2.85136e-06
-0.000171314
2.28168e-06
-0.000173094
1.78036e-06
-0.000174383
1.28954e-06
-0.000175216
8.3237e-07
-0.000175569
3.52743e-07
-0.000175484
-8.41827e-08
-0.000174974
-5.10865e-07
-0.000173829
-1.1443e-06
-0.000172105
-1.72405e-06
-0.000169827
-2.27842e-06
-0.000166839
-2.98751e-06
-0.000163215
-3.62421e-06
-0.000158645
-4.56989e-06
-0.00015323
-5.41511e-06
-0.000147048
-6.18199e-06
-0.000139872
-7.17639e-06
-0.000131406
-8.46597e-06
-0.000121973
-9.43307e-06
-0.000111176
-1.07972e-05
-9.94268e-05
-1.1749e-05
-8.65992e-05
-1.28276e-05
-7.24896e-05
-1.41097e-05
-5.73757e-05
-1.5114e-05
-4.12794e-05
-1.60963e-05
-2.41627e-05
-1.71168e-05
-6.25872e-06
-1.7904e-05
1.23498e-05
-1.86085e-05
3.144e-05
-1.90903e-05
5.08324e-05
-1.93925e-05
7.03439e-05
-1.95115e-05
8.96907e-05
-1.93469e-05
0.000108541
-1.885e-05
0.000126715
-1.81746e-05
0.000143932
-1.7217e-05
0.000159791
-1.58588e-05
0.000174216
-1.44252e-05
0.000186788
-1.25726e-05
0.000197555
-1.07664e-05
0.000206236
-8.68097e-06
0.000212507
-6.27178e-06
0.000216473
-3.96529e-06
0.000218016
-1.54287e-06
0.000217252
7.63354e-07
0.000213838
3.41424e-06
0.000208207
5.63085e-06
0.000200457
7.74984e-06
0.000190591
9.86564e-06
0.000178853
1.17382e-05
0.00016545
1.34028e-05
0.00015057
1.48808e-05
0.000134453
1.6116e-05
0.000117385
1.70688e-05
9.95252e-05
1.78594e-05
8.11779e-05
1.83473e-05
6.24752e-05
1.87026e-05
4.37044e-05
1.87709e-05
2.50253e-05
1.86791e-05
6.6221e-06
1.84032e-05
-1.12566e-05
1.78787e-05
-2.86003e-05
1.73438e-05
-4.52193e-05
1.66189e-05
-6.09988e-05
1.57795e-05
-7.58467e-05
1.48479e-05
-8.96911e-05
1.38444e-05
-0.000102557
1.28661e-05
-0.000114529
1.19717e-05
-0.000125393
1.0864e-05
-0.000135209
9.81611e-06
-0.000144043
8.83435e-06
-0.000151849
7.80581e-06
-0.000158677
6.82769e-06
-0.000164578
5.90132e-06
-0.000169508
4.92996e-06
-0.000173585
4.07713e-06
-0.000176851
3.26593e-06
-0.000179178
2.32727e-06
-0.00018072
1.54208e-06
-0.000181452
7.31198e-07
-0.000181354
-9.77003e-08
-0.000180538
-8.1605e-07
-0.000178851
-1.68734e-06
-0.000176443
-2.40744e-06
-0.000173278
-3.16471e-06
-0.000169233
-4.04589e-06
-0.000164383
-4.84997e-06
-0.000158764
-5.61874e-06
-0.000152286
-6.47812e-06
-0.000144968
-7.31773e-06
-0.00013696
-8.00855e-06
-0.000127995
-8.9642e-06
-0.000118297
-9.69816e-06
-0.000107661
-1.06359e-05
-9.62713e-05
-1.139e-05
-8.41691e-05
-1.21022e-05
-7.13209e-05
-1.28482e-05
-5.78195e-05
-1.35014e-05
-4.36224e-05
-1.41971e-05
-2.87868e-05
-1.48356e-05
-1.34584e-05
-1.53284e-05
2.44063e-06
-1.58991e-05
1.87493e-05
-1.63087e-05
3.52023e-05
-1.64531e-05
5.18316e-05
-1.66293e-05
6.85324e-05
-1.67009e-05
8.50178e-05
-1.64854e-05
0.000101222
-1.62048e-05
0.000116899
-1.56761e-05
0.000131926
-1.50274e-05
0.0001461
-1.41743e-05
0.000159178
-1.30784e-05
0.000171024
-1.18454e-05
0.000181437
-1.04133e-05
0.000190251
-8.8142e-06
0.000197346
-7.09479e-06
0.000202603
-5.25705e-06
0.000205937
-3.33356e-06
0.000207296
-1.35895e-06
0.000206509
7.86701e-07
0.000203647
2.8618e-06
0.000198771
4.8757e-06
0.000191853
6.91855e-06
0.000183167
8.68563e-06
0.00017282
1.03472e-05
0.000160996
1.18235e-05
0.000147876
1.31205e-05
0.000133594
1.42817e-05
0.000118463
1.5131e-05
0.000102655
1.58079e-05
8.6408e-05
1.62471e-05
6.99413e-05
1.64668e-05
5.34099e-05
1.65314e-05
3.70142e-05
1.63957e-05
2.09729e-05
1.60413e-05
5.30348e-06
1.56694e-05
-9.816e-06
1.51195e-05
-2.43001e-05
1.44841e-05
-3.80298e-05
1.37298e-05
-5.0918e-05
1.28882e-05
-6.2954e-05
1.2036e-05
-7.40834e-05
1.11294e-05
-8.42787e-05
1.01953e-05
-9.3543e-05
9.26431e-06
-0.000101875
8.33227e-06
-0.000109306
7.43107e-06
-0.000115821
6.51437e-06
-0.000121478
5.65738e-06
-0.000126294
4.81561e-06
3.91843e-06
-0.000142976
-1.44768e-05
-0.000134622
-1.67105e-05
-0.000125333
-1.85817e-05
-0.000115078
-2.05141e-05
-0.000103556
-2.30434e-05
-9.10944e-05
-2.49247e-05
-7.737e-05
-2.74411e-05
-6.26994e-05
-2.93457e-05
-4.71236e-05
-3.11517e-05
-3.05667e-05
-3.30999e-05
-1.31465e-05
-3.48353e-05
4.87611e-06
-3.60446e-05
2.35771e-05
-3.73944e-05
4.271e-05
-3.82548e-05
6.22257e-05
-3.90161e-05
8.1849e-05
-3.92339e-05
0.0001011
-3.84931e-05
0.000119916
-3.7618e-05
0.000138102
-3.63533e-05
0.000155143
-3.4066e-05
0.000170925
-3.15364e-05
0.000185235
-2.86114e-05
0.00019776
-2.50498e-05
0.000208287
-2.10303e-05
0.000216624
-1.66705e-05
0.000222594
-1.19494e-05
0.00022611
-7.02937e-06
0.000227166
-2.10442e-06
0.000225644
3.03162e-06
0.000221539
8.208e-06
0.000214835
1.34035e-05
0.000205894
1.78734e-05
0.000194835
2.21092e-05
0.000181843
2.59755e-05
0.000167158
2.93622e-05
0.000150978
3.23414e-05
0.000133601
3.47395e-05
0.000115341
3.6508e-05
9.6439e-05
3.77926e-05
7.71822e-05
3.85057e-05
5.78075e-05
3.8736e-05
3.84746e-05
3.86536e-05
1.93815e-05
3.81761e-05
8.91779e-07
3.6974e-05
-1.7048e-05
3.58706e-05
-3.42812e-05
3.44589e-05
-5.06599e-05
3.27528e-05
-6.61191e-05
3.09113e-05
-8.06263e-05
2.90088e-05
-9.4132e-05
2.70064e-05
-0.000106614
2.49598e-05
-0.000118096
2.29619e-05
-0.00012857
2.09471e-05
-0.000138083
1.90219e-05
-0.00014663
1.70904e-05
-0.000154269
1.52783e-05
-0.000161057
1.35724e-05
-0.000166968
1.18218e-05
-0.000172057
1.01768e-05
-0.000176387
8.65873e-06
-0.000179932
7.0948e-06
-0.000182766
5.67025e-06
-0.000184794
4.05506e-06
-0.000186068
2.54807e-06
-0.000186648
1.16285e-06
-0.000186425
-4.45317e-07
-0.000185349
-2.15667e-06
-0.000183594
-3.51467e-06
-0.000180893
-5.39897e-06
-0.000177436
-6.91292e-06
-0.000173127
-8.61662e-06
-0.000167928
-1.03922e-05
-0.000161929
-1.20019e-05
-0.000155092
-1.36754e-05
-0.0001473
-1.55878e-05
-0.000138698
-1.71994e-05
-0.000129092
-1.92083e-05
-0.000118738
-2.07094e-05
-0.000107498
-2.25e-05
-9.53316e-05
-2.43282e-05
-8.24623e-05
-2.57184e-05
-6.87565e-05
-2.74056e-05
-5.42371e-05
-2.9045e-05
-3.89529e-05
-3.05691e-05
-2.29376e-05
-3.20177e-05
-6.27223e-06
-3.33384e-05
1.09989e-05
-3.45352e-05
2.87611e-05
-3.55205e-05
4.69162e-05
-3.62962e-05
6.52932e-05
-3.6741e-05
8.36901e-05
-3.67775e-05
0.000101864
-3.63405e-05
0.000119497
-3.5252e-05
0.000136491
-3.39616e-05
0.000152458
-3.19212e-05
0.000167292
-2.96557e-05
0.00018064
-2.66855e-05
0.000192257
-2.32273e-05
0.000201969
-1.94128e-05
0.00020954
-1.5121e-05
0.000214776
-1.04531e-05
0.000217663
-5.78436e-06
0.000218202
-1.07135e-06
0.000216261
3.87432e-06
0.000211956
8.61336e-06
0.00020527
1.33635e-05
0.000196397
1.7744e-05
0.000185454
2.18814e-05
0.000172618
2.56621e-05
0.000158176
2.88748e-05
0.000142269
3.1801e-05
0.000125205
3.4119e-05
0.000107164
3.60735e-05
8.84048e-05
3.7511e-05
6.91811e-05
3.84334e-05
4.9698e-05
3.89507e-05
3.01985e-05
3.89834e-05
1.09775e-05
3.84319e-05
-7.87317e-06
3.76918e-05
-2.60625e-05
3.63657e-05
-4.34783e-05
3.48246e-05
-5.9968e-05
3.29733e-05
-7.54228e-05
3.09042e-05
-8.98157e-05
2.8787e-05
-0.00010309
2.65415e-05
-0.000115238
2.42893e-05
-0.000126222
2.19687e-05
-0.000136102
1.97551e-05
-0.000144841
1.74816e-05
-0.000152559
1.54423e-05
-0.000159309
1.34965e-05
-0.000165151
1.16706e-05
-0.000170015
9.73538e-06
-0.000174105
8.18407e-06
-0.000177421
6.64202e-06
-0.000179942
5.04421e-06
-0.000181716
3.53322e-06
-0.000182779
2.12312e-06
-0.000183151
7.42877e-07
-0.000182881
-5.32981e-07
-0.000181841
-2.08707e-06
-0.000180111
-3.46561e-06
-0.000177681
-4.86223e-06
-0.000174429
-6.51465e-06
-0.000170454
-7.94267e-06
-0.000165725
-9.4632e-06
-0.000160107
-1.12428e-05
-0.000153551
-1.3118e-05
-0.000146099
-1.49266e-05
-0.000137683
-1.68054e-05
-0.000128487
-1.83963e-05
-0.000118317
-2.03351e-05
-0.000107098
-2.24389e-05
-9.50527e-05
-2.40929e-05
-8.21431e-05
-2.582e-05
-6.82374e-05
-2.78118e-05
-5.35776e-05
-2.93166e-05
-3.8017e-05
-3.11162e-05
-2.17284e-05
-3.25733e-05
-4.97461e-06
-3.34805e-05
1.23803e-05
-3.47154e-05
3.00401e-05
-3.53162e-05
4.79618e-05
-3.583e-05
6.59264e-05
-3.59207e-05
8.3804e-05
-3.5743e-05
0.000101412
-3.51951e-05
0.000118503
-3.41802e-05
0.000134854
-3.26873e-05
0.000150351
-3.09681e-05
0.000164723
-2.87369e-05
0.000177644
-2.58352e-05
0.000189128
-2.29629e-05
0.000198897
-1.95107e-05
0.000206567
-1.53223e-05
0.000212194
-1.12455e-05
0.000215584
-6.79087e-06
0.000216877
-2.57885e-06
0.000215821
2.12052e-06
0.000212202
7.24327e-06
0.000206266
1.1872e-05
0.00019799
1.65436e-05
0.000187461
2.10598e-05
0.000174868
2.51778e-05
0.000160346
2.90337e-05
0.000144177
3.23277e-05
0.000126598
3.51389e-05
0.00010788
3.74197e-05
8.83732e-05
3.90009e-05
6.83348e-05
4.00622e-05
4.81207e-05
4.04145e-05
2.79707e-05
4.02824e-05
8.20678e-06
3.95172e-05
-1.10038e-05
3.84064e-05
-2.92999e-05
3.65876e-05
-4.6623e-05
3.46414e-05
-6.27987e-05
3.23425e-05
-7.77634e-05
2.99187e-05
-9.14297e-05
2.73239e-05
-0.000103841
2.48272e-05
-0.00011494
2.22014e-05
-0.000124842
1.98087e-05
-0.000133592
1.75005e-05
-0.00014129
1.53866e-05
-0.000147959
1.3331e-05
-0.000153649
1.13958e-05
-0.000158606
9.92245e-06
-0.000162743
8.27482e-06
-0.000166212
6.93458e-06
-0.000169064
5.70344e-06
-0.000171347
4.564e-06
-0.000173121
3.55506e-06
-0.000174419
2.5874e-06
-0.000175261
1.67449e-06
-0.000175613
7.04347e-07
-0.000175523
-1.74364e-07
-0.000175012
-1.02164e-06
-0.000173878
-2.27809e-06
-0.000172153
-3.44934e-06
-0.000169888
-4.54298e-06
-0.000166899
-5.97699e-06
-0.000163282
-7.24154e-06
-0.000158729
-9.12221e-06
-0.0001533
-1.08443e-05
-0.000147125
-1.23576e-05
-0.000139958
-1.43436e-05
-0.000131501
-1.69229e-05
-0.000122066
-1.8868e-05
-0.000111268
-2.15955e-05
-9.95231e-05
-2.34937e-05
-8.66938e-05
-2.56571e-05
-7.25825e-05
-2.8221e-05
-5.7458e-05
-3.02386e-05
-4.13586e-05
-3.21958e-05
-2.42343e-05
-3.42412e-05
-6.32909e-06
-3.58093e-05
1.22988e-05
-3.72365e-05
3.14024e-05
-3.8194e-05
5.08055e-05
-3.87958e-05
7.03316e-05
-3.90377e-05
8.96852e-05
-3.87006e-05
0.000108562
-3.77268e-05
0.000126761
-3.63736e-05
0.00014399
-3.44466e-05
0.00015986
-3.17288e-05
0.000174296
-2.88609e-05
0.000186882
-2.51592e-05
0.000197664
-2.15479e-05
0.000206358
-1.73759e-05
0.000212629
-1.2542e-05
0.000216604
-7.9412e-06
0.000218167
-3.10538e-06
0.000217384
1.54642e-06
0.000213965
6.8327e-06
0.000208328
1.12674e-05
0.000200579
1.54995e-05
0.000190715
1.97293e-05
0.000178972
2.34816e-05
0.000165556
2.68183e-05
0.000150674
2.97632e-05
0.00013454
3.22495e-05
0.000117452
3.4157e-05
9.95784e-05
3.57328e-05
8.12279e-05
3.66978e-05
6.25211e-05
3.74094e-05
4.37295e-05
3.75624e-05
2.50337e-05
3.73749e-05
6.62278e-06
3.68141e-05
-1.12543e-05
3.57558e-05
-2.86147e-05
3.47041e-05
-4.52536e-05
3.32579e-05
-6.10318e-05
3.15577e-05
-7.58809e-05
2.9697e-05
-8.97325e-05
2.7696e-05
-0.000102598
2.57315e-05
-0.000114576
2.39498e-05
-0.000125449
2.17372e-05
-0.000135262
1.96292e-05
-0.000144098
1.76699e-05
-0.000151904
1.56121e-05
-0.00015873
1.36532e-05
-0.000164636
1.18073e-05
-0.00016957
9.86441e-06
-0.000173653
8.15958e-06
-0.000176914
6.5271e-06
-0.000179243
4.65642e-06
-0.000180787
3.08616e-06
-0.000181519
1.46298e-06
-0.000181422
-1.94507e-07
-0.000180607
-1.63129e-06
-0.000178919
-3.3749e-06
-0.000176511
-4.81559e-06
-0.000173344
-6.33134e-06
-0.000169299
-8.09098e-06
-0.000164453
-9.69656e-06
-0.000158818
-1.12534e-05
-0.000152358
-1.29381e-05
-0.000145051
-1.46253e-05
-0.000137033
-1.60265e-05
-0.000128066
-1.79307e-05
-0.000118365
-1.93991e-05
-0.000107731
-2.127e-05
-9.63181e-05
-2.28033e-05
-8.42368e-05
-2.41835e-05
-7.13843e-05
-2.57007e-05
-5.78734e-05
-2.70124e-05
-4.36774e-05
-2.83933e-05
-2.88325e-05
-2.96805e-05
-1.35054e-05
-3.06556e-05
2.37223e-06
-3.17768e-05
1.86922e-05
-3.26287e-05
3.51681e-05
-3.29291e-05
5.1811e-05
-3.32723e-05
6.85157e-05
-3.34056e-05
8.50087e-05
-3.29784e-05
0.00010123
-3.24265e-05
0.000116919
-3.13644e-05
0.000131958
-3.00673e-05
0.000146144
-2.836e-05
0.000159233
-2.61673e-05
0.000171097
-2.37092e-05
0.000181525
-2.08413e-05
0.000190342
-1.76318e-05
0.000197459
-1.42113e-05
0.000202732
-1.05305e-05
0.000206061
-6.66255e-06
0.000207412
-2.7106e-06
0.000206615
1.58456e-06
0.000203749
5.72699e-06
0.000198872
9.75335e-06
0.00019195
1.38398e-05
0.000183258
1.73782e-05
0.000172901
2.07036e-05
0.000161067
2.36571e-05
0.00014794
2.62481e-05
0.000133646
2.85758e-05
0.000118509
3.02674e-05
0.000102688
3.16289e-05
8.64295e-05
3.25058e-05
6.99532e-05
3.2943e-05
5.34136e-05
3.3071e-05
3.70117e-05
3.27975e-05
2.09595e-05
3.20935e-05
5.28414e-06
3.13448e-05
-9.83858e-06
3.02422e-05
-2.43284e-05
2.89739e-05
-3.80633e-05
2.74646e-05
-5.09555e-05
2.57803e-05
-6.29942e-05
2.40747e-05
-7.4125e-05
2.22601e-05
-8.43221e-05
2.03924e-05
-9.35857e-05
1.8528e-05
-0.000101914
1.66607e-05
-0.000109344
1.48609e-05
-0.000115857
1.30276e-05
-0.000121513
1.13137e-05
-0.000126328
9.63036e-06
7.8338e-06
-0.00014305
-2.17104e-05
-0.000134699
-2.50617e-05
-0.00012541
-2.78711e-05
-0.000115159
-3.07655e-05
-0.000103638
-3.45639e-05
-9.11772e-05
-3.73857e-05
-7.74446e-05
-4.11738e-05
-6.27804e-05
-4.401e-05
-4.72098e-05
-4.67225e-05
-3.06293e-05
-4.96804e-05
-1.31986e-05
-5.22661e-05
4.84439e-06
-5.40877e-05
2.35688e-05
-5.61189e-05
4.27308e-05
-5.74169e-05
6.22671e-05
-5.85525e-05
8.19005e-05
-5.88674e-05
0.000101168
-5.77612e-05
0.000120013
-5.64628e-05
0.000138226
-5.45665e-05
0.000155283
-5.11224e-05
0.000171069
-4.73226e-05
0.000185394
-4.2937e-05
0.00019794
-3.75957e-05
0.000208484
-3.15743e-05
0.000216856
-2.50428e-05
0.000222843
-1.79363e-05
0.000226351
-1.05371e-05
0.000227396
-3.15002e-06
0.000225836
4.59138e-06
0.000221728
1.23164e-05
0.000215015
2.01163e-05
0.000206059
2.68298e-05
0.00019498
3.31877e-05
0.000181978
3.89774e-05
0.000167293
4.40473e-05
0.000151074
4.85602e-05
0.000133673
5.21402e-05
0.000115393
5.47877e-05
9.64724e-05
5.67135e-05
7.72094e-05
5.77687e-05
5.78032e-05
5.81422e-05
3.84483e-05
5.80084e-05
1.93436e-05
5.72808e-05
8.41792e-07
5.54758e-05
-1.71096e-05
5.38219e-05
-3.43541e-05
5.17034e-05
-5.07401e-05
4.91387e-05
-6.62044e-05
4.63757e-05
-8.07132e-05
4.35175e-05
-9.42203e-05
4.05135e-05
-0.000106707
3.74466e-05
-0.000118189
3.44441e-05
-0.000128656
3.14141e-05
-0.000138166
2.85312e-05
-0.000146708
2.56327e-05
-0.000154343
2.29134e-05
-0.000161129
2.0359e-05
-0.000167038
1.77305e-05
-0.000172122
1.52611e-05
-0.000176451
1.29871e-05
-0.000179989
1.06331e-05
-0.000182817
8.49821e-06
-0.000184844
6.08187e-06
-0.000186115
3.81903e-06
-0.000186695
1.74349e-06
-0.000186483
-6.57526e-07
-0.000185411
-3.22898e-06
-0.000183657
-5.26821e-06
-0.000180961
-8.09542e-06
-0.000177498
-1.03759e-05
-0.000173192
-1.29227e-05
-0.000167992
-1.55922e-05
-0.000161999
-1.79947e-05
-0.000155164
-2.05109e-05
-0.000147379
-2.33731e-05
-0.00013877
-2.58083e-05
-0.000129156
-2.88225e-05
-0.000118803
-3.10618e-05
-0.000107591
-3.37123e-05
-9.54058e-05
-3.65134e-05
-8.25148e-05
-3.86096e-05
-6.88182e-05
-4.11023e-05
-5.42895e-05
-4.35738e-05
-3.90066e-05
-4.58521e-05
-2.29873e-05
-4.80371e-05
-6.30782e-06
-5.0018e-05
1.09659e-05
-5.18091e-05
2.87418e-05
-5.32965e-05
4.6922e-05
-5.44766e-05
6.5315e-05
-5.5134e-05
8.37347e-05
-5.51973e-05
0.000101921
-5.4527e-05
0.00011957
-5.29014e-05
0.000136586
-5.09771e-05
0.000152562
-4.78972e-05
0.000167425
-4.45189e-05
0.000180792
-4.00529e-05
0.000192413
-3.48486e-05
0.000202156
-2.91559e-05
0.000209722
-2.26869e-05
0.000214972
-1.57026e-05
0.000217865
-8.67745e-06
0.000218387
-1.59418e-06
0.000216432
5.82916e-06
0.000212144
1.29017e-05
0.000205445
2.00623e-05
0.000196556
2.66327e-05
0.000185593
3.28452e-05
0.000172741
3.85133e-05
0.000158283
4.33332e-05
0.000142359
4.77251e-05
0.000125272
5.12055e-05
0.000107215
5.41304e-05
8.844e-05
5.62864e-05
6.92004e-05
5.7673e-05
4.96971e-05
5.8454e-05
3.01755e-05
5.85049e-05
1.09422e-05
5.76652e-05
-7.92604e-06
5.656e-05
-2.61248e-05
5.45645e-05
-4.35535e-05
5.22533e-05
-6.00492e-05
4.9469e-05
-7.55195e-05
4.63746e-05
-8.98917e-05
4.31592e-05
-0.00010317
3.98194e-05
-0.000115326
3.64456e-05
-0.000126308
3.29509e-05
-0.000136187
2.96335e-05
-0.000144917
2.62115e-05
-0.00015262
2.31455e-05
-0.000159379
2.02554e-05
-0.000165216
1.75082e-05
-0.000170077
1.45963e-05
-0.000174166
1.22733e-05
-0.000177486
9.96124e-06
-0.000179999
7.55747e-06
-0.000181762
5.29631e-06
-0.000182823
3.18404e-06
-0.000183194
1.11372e-06
-0.000182934
-7.93033e-07
-0.000181904
-3.11696e-06
-0.00018017
-5.19969e-06
-0.000177734
-7.29821e-06
-0.000174489
-9.75938e-06
-0.000170505
-1.19263e-05
-0.000165794
-1.41742e-05
-0.000160178
-1.68596e-05
-0.000153618
-1.96778e-05
-0.000146187
-2.23572e-05
-0.000137744
-2.52493e-05
-0.00012856
-2.75802e-05
-0.000118396
-3.0499e-05
-0.000107169
-3.36661e-05
-9.51283e-05
-3.61335e-05
-8.22164e-05
-3.87319e-05
-6.83044e-05
-4.17239e-05
-5.36421e-05
-4.39789e-05
-3.80707e-05
-4.66877e-05
-2.1776e-05
-4.88681e-05
-5.01229e-06
-5.02443e-05
1.23609e-05
-5.20887e-05
3.00256e-05
-5.2981e-05
4.79616e-05
-5.37661e-05
6.59473e-05
-5.39065e-05
8.3848e-05
-5.36438e-05
0.000101466
-5.28135e-05
0.000118575
-5.12894e-05
0.000134928
-4.90399e-05
0.000150448
-4.64883e-05
0.000164846
-4.31351e-05
0.000177772
-3.87614e-05
0.000189275
-3.4466e-05
0.00019907
-2.93055e-05
0.000206727
-2.29796e-05
0.000212382
-1.69006e-05
0.000215772
-1.01811e-05
0.000217069
-3.87579e-06
0.000215996
3.19415e-06
0.000212387
1.08522e-05
0.000206447
1.7811e-05
0.000198157
2.48339e-05
0.000187616
3.16013e-05
0.000175001
3.77921e-05
0.000160465
4.35699e-05
0.000144283
4.85093e-05
0.000126687
5.27351e-05
0.000107946
5.61612e-05
8.84073e-05
5.85393e-05
6.8344e-05
6.01255e-05
4.80809e-05
6.06776e-05
2.79268e-05
6.04366e-05
8.15265e-06
5.92913e-05
-1.10675e-05
5.76266e-05
-2.9368e-05
5.4888e-05
-4.66971e-05
5.19705e-05
-6.28828e-05
4.85282e-05
-7.78651e-05
4.4901e-05
-9.153e-05
4.09888e-05
-0.000103939
3.72365e-05
-0.000115032
3.3294e-05
-0.000124922
2.96987e-05
-0.000133665
2.62432e-05
-0.000141365
2.30871e-05
-0.000148036
2.00021e-05
-0.000153708
1.70678e-05
-0.000158669
1.48835e-05
-0.000162794
1.23999e-05
-0.000166245
1.03852e-05
-0.000169093
8.55167e-06
-0.000171379
6.85033e-06
-0.000173154
5.32934e-06
-0.000174444
3.878e-06
-0.000175302
2.53205e-06
-0.00017565
1.05281e-06
-0.000175566
-2.58928e-07
-0.000175057
-1.53064e-06
-0.000173918
-3.41652e-06
-0.000172183
-5.18467e-06
-0.000169943
-6.78276e-06
-0.00016695
-8.97055e-06
-0.000163343
-1.08481e-05
-0.000158801
-1.36645e-05
-0.000153357
-1.62885e-05
-0.000147214
-1.85004e-05
-0.000140045
-2.15126e-05
-0.000131594
-2.53741e-05
-0.000122164
-2.82986e-05
-0.000111354
-3.2405e-05
-9.96178e-05
-3.52301e-05
-8.67882e-05
-3.84868e-05
-7.26681e-05
-4.23413e-05
-5.75361e-05
-4.53706e-05
-4.14333e-05
-4.82988e-05
-2.42959e-05
-5.13787e-05
-6.39094e-06
-5.37144e-05
1.22712e-05
-5.58988e-05
3.13984e-05
-5.73214e-05
5.08173e-05
-5.82147e-05
7.03633e-05
-5.85839e-05
8.97432e-05
-5.80807e-05
0.000108639
-5.66224e-05
0.000126855
-5.45903e-05
0.00014411
-5.17012e-05
0.000160001
-4.76201e-05
0.000174458
-4.33182e-05
0.000187048
-3.77488e-05
0.000197842
-3.23427e-05
0.000206557
-2.60909e-05
0.000212822
-1.88064e-05
0.000216794
-1.19136e-05
0.000218361
-4.67239e-06
0.000217543
2.3642e-06
0.000214141
1.02349e-05
0.000208501
1.69071e-05
0.000200735
2.32657e-05
0.000190855
2.96092e-05
0.000179099
3.52374e-05
0.000165661
4.02564e-05
0.000150754
4.46699e-05
0.000134609
4.83942e-05
0.000117518
5.12482e-05
9.96215e-05
5.36293e-05
8.1244e-05
5.50753e-05
6.25274e-05
5.61259e-05
4.37272e-05
5.63627e-05
2.5016e-05
5.6086e-05
6.57581e-06
5.52543e-05
-1.13084e-05
5.36399e-05
-2.86762e-05
5.2072e-05
-4.53176e-05
4.98993e-05
-6.11107e-05
4.73508e-05
-7.59669e-05
4.45532e-05
-8.98243e-05
4.15534e-05
-0.000102686
3.85933e-05
-0.000114656
3.59197e-05
-0.000125531
3.26121e-05
-0.000135322
2.94206e-05
-0.000144171
2.65184e-05
-0.000151976
2.34176e-05
-0.000158798
2.04749e-05
-0.000164701
1.77102e-05
-0.00016963
1.47929e-05
-0.000173719
1.22494e-05
-0.000176973
9.78108e-06
-0.0001793
6.98344e-06
-0.000180846
4.63214e-06
-0.000181576
2.193e-06
-0.00018148
-2.91334e-07
-0.000180663
-2.44755e-06
-0.000178975
-5.06354e-06
-0.000176566
-7.22409e-06
-0.0001734
-9.49738e-06
-0.000169357
-1.21346e-05
-0.000164511
-1.4542e-05
-0.000158879
-1.68858e-05
-0.000152419
-1.93975e-05
-0.000145114
-2.19304e-05
-0.000137096
-2.40443e-05
-0.000128131
-2.68956e-05
-0.000118429
-2.91017e-05
-0.000107795
-3.19037e-05
-9.63759e-05
-3.42225e-05
-8.43121e-05
-3.62474e-05
-7.14727e-05
-3.85402e-05
-5.79254e-05
-4.05597e-05
-4.37396e-05
-4.25791e-05
-2.88907e-05
-4.45294e-05
-1.35583e-05
-4.59881e-05
2.32238e-06
-4.76576e-05
1.86504e-05
-4.89568e-05
3.51305e-05
-4.94092e-05
5.17756e-05
-4.99175e-05
6.84924e-05
-5.01224e-05
8.50074e-05
-4.94935e-05
0.000101252
-4.86711e-05
0.000116953
-4.7065e-05
0.00013201
-4.51246e-05
0.000146215
-4.25655e-05
0.000159327
-3.9279e-05
0.000171212
-3.55939e-05
0.000181654
-3.12835e-05
0.000190485
-2.64632e-05
0.000197614
-2.13407e-05
0.000202902
-1.58183e-05
0.000206262
-1.00225e-05
0.000207629
-4.07788e-06
0.000206794
2.41986e-06
0.000203902
8.61942e-06
0.000199017
1.4638e-05
0.000192092
2.07647e-05
0.000183388
2.60821e-05
0.000173018
3.10733e-05
0.000161166
3.55092e-05
0.000148028
3.93856e-05
0.000133715
4.28894e-05
0.000118577
4.54048e-05
0.000102732
4.74746e-05
8.64522e-05
4.87854e-05
6.99602e-05
4.9435e-05
5.34089e-05
4.96223e-05
3.70017e-05
4.92047e-05
2.09261e-05
4.8169e-05
5.24206e-06
4.70288e-05
-9.89778e-06
4.5382e-05
-2.43981e-05
4.34742e-05
-3.81393e-05
4.12059e-05
-5.10346e-05
3.86755e-05
-6.30736e-05
3.61138e-05
-7.4203e-05
3.33895e-05
-8.43978e-05
3.05873e-05
-9.36619e-05
2.7792e-05
-0.000101989
2.49881e-05
-0.000109417
2.22882e-05
-0.000115928
1.95391e-05
-0.000121581
1.69664e-05
-0.000126397
1.44463e-05
1.17434e-05
-0.000143162
-2.89406e-05
-0.000134815
-3.34093e-05
-0.000125526
-3.71599e-05
-0.000115273
-4.1019e-05
-0.000103761
-4.60756e-05
-9.13016e-05
-4.98453e-05
-7.75552e-05
-5.49204e-05
-6.29018e-05
-5.86634e-05
-4.73465e-05
-6.22779e-05
-3.07205e-05
-6.63065e-05
-1.3273e-05
-6.97136e-05
4.81577e-06
-7.21766e-05
2.35725e-05
-7.48757e-05
4.27614e-05
-7.66059e-05
6.23197e-05
-7.81109e-05
8.19908e-05
-7.85386e-05
0.000101291
-7.70614e-05
0.000120161
-7.53327e-05
0.000138403
-7.28087e-05
0.000155496
-6.82161e-05
0.000171313
-6.31398e-05
0.00018567
-5.72932e-05
0.000198246
-5.01718e-05
0.000208811
-4.21396e-05
0.000217203
-3.34345e-05
0.00022321
-2.39442e-05
0.000226735
-1.40615e-05
0.000227763
-4.17878e-06
0.000226139
6.21602e-06
0.000222012
1.64427e-05
0.000215284
2.68442e-05
0.000206305
3.58092e-05
0.000195198
4.42946e-05
0.000182179
5.19963e-05
0.000167473
5.8753e-05
0.000151217
6.4817e-05
0.00013378
6.95764e-05
0.000115472
7.30965e-05
9.65221e-05
7.5663e-05
7.72549e-05
7.70359e-05
5.77966e-05
7.76004e-05
3.8409e-05
7.73959e-05
1.92871e-05
7.64027e-05
7.65756e-07
7.39971e-05
-1.72039e-05
7.17916e-05
-3.44634e-05
6.89628e-05
-5.08617e-05
6.5537e-05
-6.63368e-05
6.18507e-05
-8.08506e-05
5.80313e-05
-9.43602e-05
5.40231e-05
-0.000106845
4.99316e-05
-0.000118326
4.59245e-05
-0.000128791
4.18797e-05
-0.000138299
3.80392e-05
-0.000146834
3.41677e-05
-0.000154462
3.05413e-05
-0.000161242
2.71388e-05
-0.000167143
2.36311e-05
-0.000172221
2.03391e-05
-0.000176544
1.73109e-05
-0.000180069
1.41581e-05
-0.000182889
1.13181e-05
-0.000184916
8.10832e-06
-0.000186193
5.09604e-06
-0.000186781
2.33154e-06
-0.000186575
-8.63116e-07
-0.000185509
-4.29552e-06
-0.000183755
-7.02167e-06
-0.000181066
-1.0785e-05
-0.000177595
-1.38465e-05
-0.000173296
-1.72223e-05
-0.000168097
-2.07913e-05
-0.000162108
-2.39833e-05
-0.000155268
-2.73508e-05
-0.000147494
-3.11477e-05
-0.000138882
-3.44203e-05
-0.00012925
-3.84544e-05
-0.00011891
-4.14015e-05
-0.000107726
-4.48961e-05
-9.55311e-05
-4.87088e-05
-8.2605e-05
-5.15357e-05
-6.89215e-05
-5.47859e-05
-5.43644e-05
-5.8131e-05
-3.90725e-05
-6.11441e-05
-2.30566e-05
-6.40532e-05
-6.35775e-06
-6.67169e-05
1.09242e-05
-6.90911e-05
2.87164e-05
-7.10888e-05
4.6918e-05
-7.26783e-05
6.53252e-05
-7.35413e-05
8.37938e-05
-7.36662e-05
0.000102003
-7.27366e-05
0.000119676
-7.05742e-05
0.000136738
-6.80391e-05
0.00015272
-6.38789e-05
0.000167617
-5.94159e-05
0.000181033
-5.34691e-05
0.000192655
-4.64709e-05
0.000202439
-3.89402e-05
0.000210019
-3.02667e-05
0.000215246
-2.09297e-05
0.000218159
-1.15912e-05
0.000218659
-2.09376e-06
0.000216707