/*--------------------------------*- C++ -*----------------------------------*\
| =========                 |                                                 |
| \\      /  F ield         | OpenFOAM: The Open Source CFD Toolbox           |
|  \\    /   O peration     | Version:  3.0.1                                 |
|   \\  /    A nd           | Web:      www.OpenFOAM.org                      |
|    \\/     M anipulation  |                                                 |
\*---------------------------------------------------------------------------*/
FoamFile
{
    version     2.0;
    format      ascii;
    class       volVectorField;
    location    "72.2";
    object      U;
}
// * * * * * * * * * * * * * * * * * * * * * * * * * * * * * * * * * * * * * //

dimensions      [0 1 -1 0 0 0 0];

internalField   nonuniform List<vector> 
21420
(
(-0.0141338 0.00168386 0)
(-0.0289195 0.00159211 0)
(-0.0444816 0.00151408 0)
(-0.0592309 0.00142873 0)
(-0.0730755 0.001326 0)
(-0.0859786 0.00123551 0)
(-0.0979297 0.0011344 0)
(-0.108932 0.00104433 0)
(-0.119002 0.000954729 0)
(-0.128157 0.000861787 0)
(-0.136425 0.000776947 0)
(-0.143834 0.000694039 0)
(-0.15041 0.000611185 0)
(-0.156183 0.000533532 0)
(-0.161178 0.000456636 0)
(-0.165417 0.000383387 0)
(-0.168923 0.000311592 0)
(-0.17171 0.000240776 0)
(-0.173801 0.000170897 0)
(-0.175188 0.000102184 0)
(-0.175876 3.569e-05 0)
(-0.175898 -3.39106e-05 0)
(-0.175207 -0.000103456 0)
(-0.173814 -0.000174416 0)
(-0.171698 -0.00024671 0)
(-0.168842 -0.000321988 0)
(-0.165221 -0.000398844 0)
(-0.160803 -0.000478444 0)
(-0.155558 -0.000563701 0)
(-0.149455 -0.000649467 0)
(-0.142456 -0.000737981 0)
(-0.134527 -0.000835378 0)
(-0.12564 -0.000928824 0)
(-0.115765 -0.00103359 0)
(-0.104892 -0.00112937 0)
(-0.0930099 -0.00122387 0)
(-0.0801068 -0.0013338 0)
(-0.0661916 -0.00142308 0)
(-0.0512959 -0.00150611 0)
(-0.0354579 -0.00161254 0)
(-0.0187075 -0.00168087 0)
(-0.00138945 -0.00176624 0)
(0.0164518 -0.00181342 0)
(0.0348968 -0.00184066 0)
(0.0536798 -0.00188574 0)
(0.0726477 -0.00188116 0)
(0.0915598 -0.00185177 0)
(0.110182 -0.00182963 0)
(0.128309 -0.0017597 0)
(0.14567 -0.00166308 0)
(0.162009 -0.00155993 0)
(0.177082 -0.00141705 0)
(0.190645 -0.00126114 0)
(0.202476 -0.00107822 0)
(0.212368 -0.000873023 0)
(0.22015 -0.000662081 0)
(0.22569 -0.000437616 0)
(0.228886 -0.000196935 0)
(0.229721 2.62007e-05 0)
(0.228266 0.000267433 0)
(0.224309 0.00049395 0)
(0.218206 0.000710758 0)
(0.209971 0.000928202 0)
(0.199694 0.00110935 0)
(0.187607 0.00128409 0)
(0.17389 0.00144504 0)
(0.158751 0.00156488 0)
(0.142446 0.0016784 0)
(0.125206 0.00174927 0)
(0.10721 0.00181308 0)
(0.0887546 0.0018501 0)
(0.0701124 0.00185446 0)
(0.0513473 0.00184624 0)
(0.0327314 0.00182578 0)
(0.0145154 0.00177872 0)
(-0.00319192 0.00172466 0)
(-0.0202412 0.0016539 0)
(-0.0365671 0.00158401 0)
(-0.05207 0.00149706 0)
(-0.0667017 0.00140307 0)
(-0.0805069 0.00131826 0)
(-0.0933392 0.00122868 0)
(-0.105148 0.00112793 0)
(-0.11604 0.00103468 0)
(-0.126015 0.000940593 0)
(-0.135015 0.000841778 0)
(-0.143036 0.000748581 0)
(-0.150079 0.000648768 0)
(-0.156152 0.000552647 0)
(-0.161203 0.000449268 0)
(-0.165245 0.00035324 0)
(-0.168315 0.000257477 0)
(-0.170431 0.000166771 0)
(-0.171657 8.44835e-05 0)
(-0.172125 9.74805e-06 0)
(-0.171849 -6.15504e-05 0)
(-0.170878 -0.000119982 0)
(-0.169268 -0.000189827 0)
(-0.167093 -0.000251668 0)
(-0.164262 -0.000303834 0)
(-0.160808 -0.000369366 0)
(-0.156767 -0.000431983 0)
(-0.152104 -0.000498977 0)
(-0.14673 -0.000558375 0)
(-0.14065 -0.000634288 0)
(-0.133878 -0.000709973 0)
(-0.126345 -0.000786173 0)
(-0.118026 -0.000864905 0)
(-0.108914 -0.000942296 0)
(-0.0990081 -0.00102137 0)
(-0.0882911 -0.0010999 0)
(-0.0767715 -0.0011832 0)
(-0.0644622 -0.00126204 0)
(-0.0513732 -0.00133492 0)
(-0.0375283 -0.00140558 0)
(-0.0230022 -0.00146868 0)
(-0.00784743 -0.00152885 0)
(0.00786994 -0.0015832 0)
(0.0240626 -0.00162432 0)
(0.0406191 -0.00165377 0)
(0.0574405 -0.00167991 0)
(0.0744013 -0.00168193 0)
(0.0913278 -0.0016737 0)
(0.108061 -0.00164444 0)
(0.124416 -0.00160153 0)
(0.140227 -0.00153168 0)
(0.155266 -0.00144493 0)
(0.169311 -0.001337 0)
(0.182154 -0.00120815 0)
(0.193572 -0.00105613 0)
(0.203355 -0.000882792 0)
(0.211304 -0.000691429 0)
(0.217256 -0.000482603 0)
(0.221065 -0.000271861 0)
(0.22264 -5.08526e-05 0)
(0.222003 0.000181862 0)
(0.218952 0.000409944 0)
(0.213654 0.000637189 0)
(0.206173 0.000845877 0)
(0.196627 0.00104467 0)
(0.18517 0.00122596 0)
(0.171977 0.00138512 0)
(0.157283 0.00152115 0)
(0.141315 0.00164144 0)
(0.124302 0.001736 0)
(0.106492 0.00179744 0)
(0.0881492 0.00183712 0)
(0.0695441 0.00185722 0)
(0.0508638 0.00185238 0)
(0.0323426 0.00182123 0)
(0.0142325 0.00177398 0)
(-0.00332806 0.00171394 0)
(-0.020187 0.00163051 0)
(-0.036189 0.00153807 0)
(-0.0512341 0.00145223 0)
(-0.0652732 0.0013441 0)
(-0.078266 0.00123718 0)
(-0.09017 0.00112693 0)
(-0.101005 0.00102443 0)
(-0.110791 0.000917722 0)
(-0.119544 0.000820673 0)
(-0.127327 0.000726893 0)
(-0.134173 0.000633953 0)
(-0.14013 0.000549484 0)
(-0.145253 0.000469935 0)
(-0.149603 0.000394907 0)
(-0.153239 0.000328646 0)
(-0.156213 0.000262761 0)
(-0.158571 0.00020581 0)
(-0.160357 0.000149653 0)
(-0.16158 9.88444e-05 0)
(-0.162266 4.56804e-05 0)
(-0.16248 -1.02642e-05 0)
(-0.162128 -5.53516e-05 0)
(-0.161224 -0.000111621 0)
(-0.159833 -0.00016432 0)
(-0.157917 -0.000214466 0)
(-0.155496 -0.000265291 0)
(-0.152549 -0.000319277 0)
(-0.149088 -0.000368777 0)
(-0.145063 -0.000424862 0)
(-0.140475 -0.000480164 0)
(-0.13535 -0.00053952 0)
(-0.129617 -0.000593543 0)
(-0.123282 -0.000657674 0)
(-0.116318 -0.000723705 0)
(-0.108676 -0.000790996 0)
(-0.10033 -0.000862256 0)
(-0.0912666 -0.00093278 0)
(-0.0814716 -0.00101035 0)
(-0.070916 -0.0010882 0)
(-0.059571 -0.00115936 0)
(-0.0474166 -0.00124142 0)
(-0.0345223 -0.00131863 0)
(-0.0208406 -0.00138998 0)
(-0.00641567 -0.00145916 0)
(0.0086335 -0.00152642 0)
(0.0242478 -0.00157172 0)
(0.0403122 -0.0016099 0)
(0.0566805 -0.00163998 0)
(0.0732599 -0.00164566 0)
(0.0898749 -0.00164549 0)
(0.10632 -0.00161561 0)
(0.122395 -0.00157108 0)
(0.137859 -0.00149375 0)
(0.152441 -0.0013954 0)
(0.165858 -0.0012648 0)
(0.177841 -0.00111185 0)
(0.188166 -0.000929351 0)
(0.196595 -0.000739972 0)
(0.202983 -0.000525504 0)
(0.207205 -0.000308958 0)
(0.209125 -7.63236e-05 0)
(0.208784 0.0001452 0)
(0.205992 0.000390577 0)
(0.200891 0.000611259 0)
(0.193606 0.000832857 0)
(0.184221 0.00102857 0)
(0.17294 0.00120679 0)
(0.159966 0.001357 0)
(0.145545 0.00149908 0)
(0.129896 0.00161272 0)
(0.113263 0.00168826 0)
(0.0959274 0.00174786 0)
(0.0781603 0.00177396 0)
(0.060225 0.00178749 0)
(0.0423033 0.00177268 0)
(0.0246198 0.00173648 0)
(0.00740084 0.00168045 0)
(-0.00919556 0.00160839 0)
(-0.0250487 0.00154561 0)
(-0.0401018 0.00144607 0)
(-0.0542509 0.00136097 0)
(-0.0674754 0.00126762 0)
(-0.0797868 0.00117805 0)
(-0.0911638 0.00108004 0)
(-0.101605 0.000987891 0)
(-0.111155 0.00090499 0)
(-0.119833 0.000814473 0)
(-0.127635 0.000734414 0)
(-0.134567 0.000650533 0)
(-0.140678 0.000568298 0)
(-0.145998 0.00049357 0)
(-0.150543 0.000417089 0)
(-0.154409 0.000349579 0)
(-0.157667 0.000288882 0)
(-0.160381 0.000244504 0)
(-0.162654 0.00020814 0)
(-0.164548 0.00017002 0)
(-0.166046 0.000130913 0)
(-0.167119 8.85176e-05 0)
(-0.167724 4.02442e-05 0)
(-0.167833 -2.22043e-05 0)
(-0.167341 -7.74318e-05 0)
(-0.166242 -0.000137615 0)
(-0.164531 -0.000197681 0)
(-0.162193 -0.000261913 0)
(-0.159257 -0.000331009 0)
(-0.155638 -0.000387796 0)
(-0.151334 -0.000456397 0)
(-0.146364 -0.000532943 0)
(-0.140622 -0.000598714 0)
(-0.134135 -0.00067783 0)
(-0.126889 -0.000753757 0)
(-0.11888 -0.000826993 0)
(-0.110113 -0.00090018 0)
(-0.100581 -0.000978447 0)
(-0.0902958 -0.0010584 0)
(-0.0792505 -0.00113807 0)
(-0.0673741 -0.00121636 0)
(-0.054707 -0.0013007 0)
(-0.041212 -0.00137285 0)
(-0.0269997 -0.00146879 0)
(-0.0120207 -0.00155433 0)
(0.00499223 -0.00162831 0)
(0.0233235 -0.00170184 0)
(0.0417613 -0.00176813 0)
(0.0607614 -0.00180615 0)
(0.0800128 -0.00182201 0)
(0.0993452 -0.00182125 0)
(0.118537 -0.00179388 0)
(0.137247 -0.00174787 0)
(0.155231 -0.00167091 0)
(0.171991 -0.00154527 0)
(0.187017 -0.00139044 0)
(0.199934 -0.00118685 0)
(0.210248 -0.000941916 0)
(0.217767 -0.000679574 0)
(0.222324 -0.000388413 0)
(0.223822 -0.000102282 0)
(0.222635 0.000193834 0)
(0.218551 0.000508235 0)
(0.211878 0.000779843 0)
(0.202672 0.00104079 0)
(0.190954 0.00128254 0)
(0.177044 0.00146682 0)
(0.161311 0.00163482 0)
(0.144056 0.00177287 0)
(0.125707 0.00185217 0)
(0.106589 0.00192295 0)
(0.0870746 0.00194066 0)
(0.0674708 0.00195211 0)
(0.0479822 0.00194154 0)
(0.0290142 0.00189145 0)
(0.0100776 0.00184274 0)
(-0.00926627 0.0017565 0)
(-0.0276906 0.00166472 0)
(-0.0445569 0.00157703 0)
(-0.0602782 0.00147195 0)
(-0.0748726 0.00137428 0)
(-0.0883688 0.00127285 0)
(-0.100756 0.00116423 0)
(-0.112054 0.00106293 0)
(-0.122291 0.000961585 0)
(-0.131483 0.000858608 0)
(-0.13966 0.000761404 0)
(-0.146852 0.000664394 0)
(-0.153086 0.000572193 0)
(-0.15839 0.000481811 0)
(-0.162789 0.000393037 0)
(-0.166302 0.000307129 0)
(-0.168947 0.000221772 0)
(-0.170729 0.000136216 0)
(-0.171668 5.40203e-05 0)
(-0.17183 -2.67825e-05 0)
(-0.171146 -0.00010834 0)
(-0.16964 -0.000190243 0)
(-0.167304 -0.0002736 0)
(-0.164126 -0.000357417 0)
(-0.16009 -0.00044277 0)
(-0.155176 -0.000532234 0)
(-0.149363 -0.000621346 0)
(-0.142628 -0.000712366 0)
(-0.134943 -0.000810769 0)
(-0.126286 -0.00090573 0)
(-0.116635 -0.00101023 0)
(-0.105974 -0.00110769 0)
(-0.0942974 -0.00120462 0)
(-0.0815934 -0.00131464 0)
(-0.0678705 -0.00140856 0)
(-0.0531614 -0.00149753 0)
(-0.0374909 -0.00160263 0)
(-0.0208671 -0.00167768 0)
(-0.00349584 -0.00177484 0)
(0.0145327 -0.00182801 0)
(0.0331961 -0.00186671 0)
(0.0523077 -0.00192338 0)
(0.0716828 -0.00192635 0)
(0.0911087 -0.00190654 0)
(0.110362 -0.00190134 0)
(0.1292 -0.00183385 0)
(0.147366 -0.00177611 0)
(0.164597 -0.00165701 0)
(0.180619 -0.00151346 0)
(0.195171 -0.00137005 0)
(0.207999 -0.00117895 0)
(0.21961 -0.000971094 0)
(-0.0141636 0.00505196 0)
(-0.0289514 0.0047766 0)
(-0.0445163 0.00454244 0)
(-0.0592675 0.00428632 0)
(-0.0731124 0.00397806 0)
(-0.086016 0.00370655 0)
(-0.0979666 0.00340316 0)
(-0.108969 0.00313293 0)
(-0.119037 0.00286412 0)
(-0.128192 0.00258529 0)
(-0.136458 0.00233078 0)
(-0.143866 0.00208208 0)
(-0.150442 0.00183354 0)
(-0.156214 0.00160062 0)
(-0.161207 0.00136996 0)
(-0.165446 0.00115025 0)
(-0.168951 0.000934907 0)
(-0.171737 0.000722484 0)
(-0.173827 0.000512925 0)
(-0.175216 0.000306459 0)
(-0.175903 0.000107641 0)
(-0.175926 -0.000101463 0)
(-0.175235 -0.000310094 0)
(-0.173843 -0.000522982 0)
(-0.171728 -0.00073987 0)
(-0.168872 -0.000965674 0)
(-0.165253 -0.00119627 0)
(-0.160836 -0.00143509 0)
(-0.155592 -0.00169086 0)
(-0.149491 -0.00194819 0)
(-0.142493 -0.00221375 0)
(-0.134566 -0.00250595 0)
(-0.12568 -0.00278636 0)
(-0.115807 -0.00310066 0)
(-0.104934 -0.00338808 0)
(-0.0930515 -0.00367161 0)
(-0.0801487 -0.00400147 0)
(-0.0662321 -0.00426936 0)
(-0.0513352 -0.00451842 0)
(-0.0354956 -0.00483795 0)
(-0.0187404 -0.00504308 0)
(-0.00141867 -0.00529905 0)
(0.0164272 -0.00544083 0)
(0.0348783 -0.00552263 0)
(0.0536685 -0.00565801 0)
(0.0726441 -0.0056444 0)
(0.0915644 -0.00555626 0)
(0.110197 -0.00548978 0)
(0.128333 -0.00528042 0)
(0.145704 -0.00499085 0)
(0.162055 -0.00468116 0)
(0.177138 -0.00425183 0)
(0.190711 -0.00378438 0)
(0.20255 -0.00323549 0)
(0.21245 -0.00262337 0)
(0.220242 -0.00198331 0)
(0.225788 -0.00130875 0)
(0.228983 -0.000599177 0)
(0.22983 8.23486e-05 0)
(0.228361 0.000802687 0)
(0.224407 0.00148133 0)
(0.218304 0.00213255 0)
(0.210067 0.00278517 0)
(0.199783 0.00332861 0)
(0.187689 0.00385341 0)
(0.173963 0.00433609 0)
(0.158815 0.00469556 0)
(0.142498 0.00503558 0)
(0.125248 0.00524946 0)
(0.10724 0.00543815 0)
(0.0887743 0.00555048 0)
(0.0701209 0.00556845 0)
(0.0513448 0.00553859 0)
(0.0327214 0.00547813 0)
(0.0144959 0.00533935 0)
(-0.00322136 0.00517509 0)
(-0.0202759 0.00496396 0)
(-0.0366125 0.00474996 0)
(-0.0521172 0.00448997 0)
(-0.0667508 0.004215 0)
(-0.0805645 0.00394891 0)
(-0.0933936 0.00368499 0)
(-0.105203 0.00338896 0)
(-0.116103 0.00310037 0)
(-0.126072 0.00281729 0)
(-0.135068 0.00252997 0)
(-0.143091 0.00224779 0)
(-0.150131 0.00194421 0)
(-0.156197 0.00165622 0)
(-0.161247 0.00135297 0)
(-0.16529 0.00105207 0)
(-0.168345 0.000761059 0)
(-0.170449 0.000503658 0)
(-0.171672 0.00025382 0)
(-0.172129 3.06488e-05 0)
(-0.17185 -0.00018557 0)
(-0.170887 -0.00037885 0)
(-0.169269 -0.000574746 0)
(-0.167094 -0.00075806 0)
(-0.164267 -0.000916267 0)
(-0.160814 -0.00111275 0)
(-0.15677 -0.00129224 0)
(-0.15211 -0.00149595 0)
(-0.146752 -0.00169834 0)
(-0.14067 -0.0019061 0)
(-0.133895 -0.00212802 0)
(-0.126361 -0.00235649 0)
(-0.118044 -0.00258641 0)
(-0.108936 -0.0028259 0)
(-0.0990309 -0.00306864 0)
(-0.0883097 -0.00330555 0)
(-0.0767877 -0.00354987 0)
(-0.0644732 -0.00378708 0)
(-0.0513802 -0.00400588 0)
(-0.0375273 -0.00421197 0)
(-0.0230073 -0.00441336 0)
(-0.00785143 -0.00459373 0)
(0.00787387 -0.00474369 0)
(0.0240569 -0.00488222 0)
(0.0406151 -0.00497656 0)
(0.0574465 -0.0050323 0)
(0.0743974 -0.0050488 0)
(0.0913279 -0.00502029 0)
(0.108057 -0.0049334 0)
(0.124412 -0.00480458 0)
(0.140223 -0.00459428 0)
(0.155259 -0.00434092 0)
(0.169308 -0.00401171 0)
(0.182147 -0.00361967 0)
(0.193558 -0.00316365 0)
(0.203333 -0.00264672 0)
(0.211277 -0.00207411 0)
(0.217214 -0.00145953 0)
(0.221029 -0.000810359 0)
(0.222596 -0.000149079 0)
(0.221938 0.000544417 0)
(0.218868 0.00123109 0)
(0.213555 0.00190713 0)
(0.206066 0.00253991 0)
(0.196511 0.00313554 0)
(0.185045 0.0036771 0)
(0.171846 0.00415835 0)
(0.157142 0.00456952 0)
(0.141157 0.00492318 0)
(0.124134 0.00520053 0)
(0.106317 0.00539405 0)
(0.0879738 0.00550595 0)
(0.0693575 0.00557688 0)
(0.0506578 0.00554355 0)
(0.0321433 0.00546967 0)
(0.0140263 0.00532254 0)
(-0.00354025 0.00513243 0)
(-0.0203862 0.00489002 0)
(-0.0363888 0.00462248 0)
(-0.0514289 0.0043476 0)
(-0.065467 0.00402677 0)
(-0.0784432 0.00370809 0)
(-0.0903331 0.00338212 0)
(-0.101167 0.00306657 0)
(-0.110946 0.00275758 0)
(-0.1197 0.0024598 0)
(-0.127473 0.00217207 0)
(-0.134304 0.00189981 0)
(-0.140252 0.00164179 0)
(-0.145365 0.00140504 0)
(-0.149706 0.00118772 0)
(-0.153342 0.000980036 0)
(-0.156309 0.000789198 0)
(-0.158661 0.000615545 0)
(-0.160442 0.000448803 0)
(-0.161662 0.000282327 0)
(-0.162343 0.000121635 0)
(-0.162544 -3.60884e-05 0)
(-0.162181 -0.000161682 0)
(-0.161281 -0.000343951 0)
(-0.15988 -0.000486382 0)
(-0.157959 -0.000641021 0)
(-0.155537 -0.000792628 0)
(-0.152591 -0.000957645 0)
(-0.149134 -0.00112289 0)
(-0.145097 -0.00127203 0)
(-0.14051 -0.00143574 0)
(-0.13539 -0.00161938 0)
(-0.129661 -0.00178995 0)
(-0.123326 -0.00197146 0)
(-0.116359 -0.00217321 0)
(-0.108719 -0.00237309 0)
(-0.100379 -0.0025912 0)
(-0.0913209 -0.00280377 0)
(-0.0815321 -0.00302931 0)
(-0.0709857 -0.0032732 0)
(-0.0596363 -0.00347062 0)
(-0.0474933 -0.00372253 0)
(-0.0346078 -0.00395906 0)
(-0.0209343 -0.0041796 0)
(-0.00651127 -0.00437641 0)
(0.00853543 -0.00456758 0)
(0.0241468 -0.00470485 0)
(0.040198 -0.00483413 0)
(0.0565678 -0.00492012 0)
(0.0731489 -0.00493945 0)
(0.0897644 -0.00493085 0)
(0.106203 -0.00485433 0)
(0.12228 -0.00471231 0)
(0.137742 -0.00448375 0)
(0.152325 -0.00418606 0)
(0.165751 -0.00378887 0)
(0.177735 -0.0033341 0)
(0.188063 -0.00280285 0)
(0.196504 -0.00221917 0)
(0.20289 -0.00157803 0)
(0.2071 -0.000932369 0)
(0.209032 -0.000224822 0)
(0.208683 0.000451405 0)
(0.205888 0.00116989 0)
(0.2008 0.00183822 0)
(0.193505 0.00249309 0)
(0.184113 0.00307673 0)
(0.172839 0.00362128 0)
(0.159863 0.00408721 0)
(0.145424 0.00449484 0)
(0.129769 0.00482938 0)
(0.113133 0.00506414 0)
(0.0957908 0.00523535 0)
(0.0780253 0.00531834 0)
(0.0600843 0.00536125 0)
(0.0421576 0.00530663 0)
(0.0244797 0.00520533 0)
(0.00725692 0.00503362 0)
(-0.00933814 0.00483337 0)
(-0.0251928 0.00461796 0)
(-0.0402277 0.00435348 0)
(-0.0543833 0.0040813 0)
(-0.0676056 0.00379814 0)
(-0.0799136 0.00352477 0)
(-0.0912733 0.0032463 0)
(-0.101715 0.00297402 0)
(-0.111275 0.00269592 0)
(-0.119931 0.00243551 0)
(-0.127723 0.00220345 0)
(-0.134655 0.00195723 0)
(-0.140766 0.00170001 0)
(-0.14608 0.00146745 0)
(-0.150616 0.0012494 0)
(-0.15447 0.00105304 0)
(-0.157722 0.000871818 0)
(-0.160436 0.000733096 0)
(-0.162708 0.000626454 0)
(-0.164604 0.000506349 0)
(-0.166106 0.000384807 0)
(-0.167185 0.000249041 0)
(-0.167791 0.000109653 0)
(-0.167893 -5.54545e-05 0)
(-0.167413 -0.000225196 0)
(-0.166325 -0.000411617 0)
(-0.164621 -0.000595538 0)
(-0.16229 -0.000790567 0)
(-0.159344 -0.000987024 0)
(-0.155726 -0.00116194 0)
(-0.15142 -0.00136624 0)
(-0.14645 -0.00160202 0)
(-0.140705 -0.00179815 0)
(-0.134215 -0.00202828 0)
(-0.126966 -0.00225986 0)
(-0.118952 -0.00248068 0)
(-0.110188 -0.00271255 0)
(-0.100645 -0.00293471 0)
(-0.0903576 -0.00317099 0)
(-0.0793136 -0.00341574 0)
(-0.0674357 -0.00365294 0)
(-0.0547626 -0.00390035 0)
(-0.0412728 -0.00412338 0)
(-0.027054 -0.00440692 0)
(-0.012068 -0.00466267 0)
(0.00494434 -0.0048811 0)
(0.0232766 -0.00510781 0)
(0.0417241 -0.00530506 0)
(0.0607327 -0.00541974 0)
(0.0799948 -0.00546488 0)
(0.0993342 -0.00546638 0)
(0.118536 -0.00538008 0)
(0.137258 -0.00524368 0)
(0.155257 -0.0050113 0)
(0.172032 -0.00464823 0)
(0.187084 -0.0041678 0)
(0.20002 -0.00356585 0)
(0.210351 -0.00282407 0)
(0.217884 -0.00203878 0)
(0.222452 -0.00116332 0)
(0.223957 -0.000307811 0)
(0.222756 0.000580642 0)
(0.218674 0.00152504 0)
(0.212002 0.00234023 0)
(0.202787 0.00312322 0)
(0.191058 0.00384844 0)
(0.177134 0.0044005 0)
(0.161386 0.00490616 0)
(0.144117 0.00531016 0)
(0.125754 0.00555696 0)
(0.106623 0.00576969 0)
(0.0870954 0.00582333 0)
(0.0674804 0.00585744 0)
(0.047982 0.00582562 0)
(0.0290058 0.0056752 0)
(0.0100575 0.00552915 0)
(-0.00929321 0.0052698 0)
(-0.0277184 0.00499455 0)
(-0.0445889 0.00473133 0)
(-0.0603125 0.00441605 0)
(-0.074909 0.00412298 0)
(-0.0884064 0.00381867 0)
(-0.100793 0.00349276 0)
(-0.112092 0.00318881 0)
(-0.122329 0.00288472 0)
(-0.13152 0.00257584 0)
(-0.139697 0.00228432 0)
(-0.146888 0.00199319 0)
(-0.153121 0.00171646 0)
(-0.158425 0.00144546 0)
(-0.162823 0.00117916 0)
(-0.166335 0.000921583 0)
(-0.168979 0.000665507 0)
(-0.170764 0.000408899 0)
(-0.171702 0.000162853 0)
(-0.171862 -8.0157e-05 0)
(-0.171179 -0.000324737 0)
(-0.169673 -0.000570509 0)
(-0.167337 -0.000820603 0)
(-0.16416 -0.00107206 0)
(-0.160125 -0.0013281 0)
(-0.155212 -0.00159651 0)
(-0.1494 -0.00186387 0)
(-0.142666 -0.00213693 0)
(-0.134982 -0.00243216 0)
(-0.126326 -0.00271707 0)
(-0.116676 -0.00303061 0)
(-0.106015 -0.00332303 0)
(-0.0943383 -0.00361383 0)
(-0.0816346 -0.00394395 0)
(-0.0679104 -0.00422577 0)
(-0.0531994 -0.00449276 0)
(-0.0375271 -0.00480821 0)
(-0.0209006 -0.00503419 0)
(-0.00352569 -0.00532438 0)
(0.0145088 -0.00548444 0)
(0.0331782 -0.00560071 0)
(0.0522965 -0.00577089 0)
(0.0716798 -0.00577989 0)
(0.0911145 -0.00572052 0)
(0.110378 -0.00570504 0)
(0.129225 -0.00550259 0)
(0.147403 -0.00532942 0)
(0.164644 -0.0049721 0)
(0.180676 -0.00454138 0)
(0.19524 -0.00411112 0)
(0.208076 -0.00353773 0)
(0.219695 -0.00291402 0)
(-0.0142236 0.00842122 0)
(-0.029016 0.00796192 0)
(-0.0445866 0.00757136 0)
(-0.0593416 0.00714425 0)
(-0.0731872 0.00663026 0)
(-0.0860918 0.00617757 0)
(-0.098041 0.0056718 0)
(-0.109042 0.00522132 0)
(-0.11911 0.00477324 0)
(-0.128261 0.0043085 0)
(-0.136526 0.00388431 0)
(-0.143932 0.00346982 0)
(-0.150505 0.00305562 0)
(-0.156275 0.00266746 0)
(-0.161266 0.00228306 0)
(-0.165504 0.00191696 0)
(-0.169007 0.00155811 0)
(-0.171793 0.00120411 0)
(-0.17388 0.000855235 0)
(-0.175271 0.000510487 0)
(-0.175959 0.000179613 0)
(-0.17598 -0.00016849 0)
(-0.175291 -0.000516543 0)
(-0.173899 -0.000871272 0)
(-0.171786 -0.00123273 0)
(-0.168933 -0.00160902 0)
(-0.165315 -0.00199335 0)
(-0.160901 -0.00239133 0)
(-0.15566 -0.00281755 0)
(-0.149562 -0.00324651 0)
(-0.142566 -0.00368913 0)
(-0.134642 -0.00417621 0)
(-0.125757 -0.00464367 0)
(-0.115886 -0.00516754 0)
(-0.105014 -0.00564669 0)
(-0.09313 -0.00611953 0)
(-0.0802271 -0.00666943 0)
(-0.0663071 -0.00711604 0)
(-0.0514069 -0.0075313 0)
(-0.0355633 -0.00806442 0)
(-0.0187979 -0.00840643 0)
(-0.00146807 -0.0088334 0)
(0.0163878 -0.00907011 0)
(0.034852 -0.00920655 0)
(0.0536569 -0.00943264 0)
(0.0726485 -0.00941004 0)
(0.0915853 -0.00926338 0)
(0.110238 -0.00915291 0)
(0.128393 -0.00880396 0)
(0.145783 -0.00832117 0)
(0.162155 -0.00780527 0)
(0.177257 -0.00709002 0)
(0.190849 -0.00631034 0)
(0.202703 -0.00539592 0)
(0.212617 -0.00437201 0)
(0.220419 -0.00330867 0)
(0.22597 -0.00219166 0)
(0.229177 -0.000995969 0)
(0.230021 0.000135079 0)
(0.228526 0.00134174 0)
(0.224578 0.00246867 0)
(0.218472 0.00355596 0)
(0.210225 0.00464415 0)
(0.199927 0.00555011 0)
(0.187817 0.00642535 0)
(0.174075 0.00722981 0)
(0.158909 0.00782895 0)
(0.142572 0.00839549 0)
(0.125302 0.00875198 0)
(0.107277 0.00906485 0)
(0.0887921 0.00925417 0)
(0.0701193 0.0092857 0)
(0.0513312 0.00923508 0)
(0.0326953 0.00913293 0)
(0.0144545 0.00890128 0)
(-0.00327423 0.00862808 0)
(-0.0203348 0.00827416 0)
(-0.0366782 0.00791963 0)
(-0.0521914 0.00748564 0)
(-0.0668302 0.00702112 0)
(-0.0806377 0.00658363 0)
(-0.0934722 0.00614376 0)
(-0.105289 0.005646 0)
(-0.116184 0.00516895 0)
(-0.126153 0.00469935 0)
(-0.135154 0.00421418 0)
(-0.143181 0.0037417 0)
(-0.150216 0.00324083 0)
(-0.156287 0.00276468 0)
(-0.161342 0.00224816 0)
(-0.165378 0.00175615 0)
(-0.168429 0.00127649 0)
(-0.17054 0.000835717 0)
(-0.171768 0.000420901 0)
(-0.172219 4.7321e-05 0)
(-0.171937 -0.000307673 0)
(-0.170976 -0.000625605 0)
(-0.169367 -0.000956803 0)
(-0.167196 -0.00126084 0)
(-0.164381 -0.00152442 0)
(-0.160948 -0.00184988 0)
(-0.156916 -0.00216263 0)
(-0.152255 -0.00248965 0)
(-0.146903 -0.0028178 0)
(-0.140842 -0.00317879 0)
(-0.134083 -0.00355099 0)
(-0.126559 -0.00393023 0)
(-0.118258 -0.0043175 0)
(-0.109157 -0.00471225 0)
(-0.0992387 -0.00510695 0)
(-0.088521 -0.00551279 0)
(-0.0769942 -0.00591547 0)
(-0.0646792 -0.00631778 0)
(-0.0515769 -0.00667457 0)
(-0.0377201 -0.00702442 0)
(-0.0231963 -0.00735271 0)
(-0.00803422 -0.00765708 0)
(0.00769943 -0.00791347 0)
(0.0239012 -0.00812869 0)
(0.0404686 -0.00828366 0)
(0.0572958 -0.00839916 0)
(0.0742603 -0.00841449 0)
(0.0912078 -0.00836579 0)
(0.107954 -0.00822224 0)
(0.124326 -0.00800586 0)
(0.140152 -0.00766054 0)
(0.155202 -0.00723193 0)
(0.169265 -0.00668594 0)
(0.182117 -0.00603383 0)
(0.193543 -0.00527499 0)
(0.203331 -0.00441175 0)
(0.211284 -0.00345526 0)
(0.217233 -0.00242348 0)
(0.221046 -0.00135102 0)
(0.222614 -0.000238946 0)
(0.221932 0.000908327 0)
(0.218858 0.00206345 0)
(0.213538 0.00318237 0)
(0.206037 0.00423407 0)
(0.196469 0.0052323 0)
(0.184985 0.0061305 0)
(0.171772 0.00692581 0)
(0.157053 0.00762017 0)
(0.141041 0.00822482 0)
(0.123994 0.00866472 0)
(0.106163 0.00898864 0)
(0.0877999 0.00919175 0)
(0.0691533 0.00928613 0)
(0.0504394 0.00924541 0)
(0.0319133 0.00911888 0)
(0.0137742 0.00887354 0)
(-0.00381141 0.00855256 0)
(-0.0206619 0.00814708 0)
(-0.0366604 0.00772045 0)
(-0.0517103 0.00723562 0)
(-0.0657491 0.00670804 0)
(-0.0787199 0.00617744 0)
(-0.0906047 0.00563253 0)
(-0.101437 0.00512039 0)
(-0.111218 0.00459114 0)
(-0.119965 0.00409531 0)
(-0.127729 0.00361986 0)
(-0.134553 0.00316095 0)
(-0.140493 0.00273971 0)
(-0.145605 0.00234332 0)
(-0.149947 0.00197562 0)
(-0.15358 0.00163298 0)
(-0.156546 0.00131093 0)
(-0.158901 0.00102057 0)
(-0.160678 0.000743758 0)
(-0.161888 0.00047807 0)
(-0.162564 0.000212913 0)
(-0.162759 -5.52461e-05 0)
(-0.1624 -0.000283534 0)
(-0.161505 -0.000565873 0)
(-0.160103 -0.000815873 0)
(-0.158184 -0.00107408 0)
(-0.155762 -0.00132667 0)
(-0.152814 -0.00159962 0)
(-0.149352 -0.0018671 0)
(-0.145321 -0.00212247 0)
(-0.140733 -0.00239694 0)
(-0.135612 -0.00269613 0)
(-0.129883 -0.00298182 0)
(-0.123556 -0.0032882 0)
(-0.116586 -0.00362335 0)
(-0.108942 -0.00395578 0)
(-0.100602 -0.00430946 0)
(-0.0915546 -0.00467617 0)
(-0.0817633 -0.00504846 0)
(-0.0712066 -0.00543956 0)
(-0.0598666 -0.00579492 0)
(-0.0477245 -0.00620243 0)
(-0.0348322 -0.00660205 0)
(-0.0211541 -0.00694604 0)
(-0.00674086 -0.0073011 0)
(0.00831545 -0.00761905 0)
(0.0239354 -0.00784427 0)
(0.039994 -0.00805466 0)
(0.0563814 -0.0081969 0)
(0.0729717 -0.00823403 0)
(0.0895995 -0.00822469 0)
(0.106058 -0.00808607 0)
(0.122152 -0.00785294 0)
(0.137631 -0.00747247 0)
(0.152231 -0.00697532 0)
(0.16567 -0.00632254 0)
(0.17767 -0.00555565 0)
(0.188015 -0.00466607 0)
(0.196468 -0.00368995 0)
(0.202863 -0.00264074 0)
(0.207086 -0.00154029 0)
(0.209012 -0.000380683 0)
(0.208648 0.000745448 0)
(0.205859 0.00194822 0)
(0.200776 0.00306494 0)
(0.193473 0.00415178 0)
(0.184071 0.00513726 0)
(0.172775 0.00603696 0)
(0.159773 0.0068158 0)
(0.14532 0.00749694 0)
(0.129652 0.0080446 0)
(0.113 0.00844936 0)
(0.0956435 0.0087256 0)
(0.0778629 0.00887426 0)
(0.059899 0.00892747 0)
(0.0419603 0.00885699 0)
(0.0242678 0.00867477 0)
(0.0070371 0.00839266 0)
(-0.0095644 0.00806519 0)
(-0.0254325 0.00769473 0)
(-0.040484 0.00724981 0)
(-0.0546416 0.00679905 0)
(-0.067866 0.0063309 0)
(-0.0801718 0.00587962 0)
(-0.0915342 0.0054019 0)
(-0.101975 0.00493933 0)
(-0.111521 0.0045008 0)
(-0.120175 0.00407391 0)
(-0.12797 0.00366545 0)
(-0.134904 0.0032597 0)
(-0.141006 0.0028257 0)
(-0.146308 0.0024511 0)
(-0.150847 0.00208726 0)
(-0.154705 0.00174721 0)
(-0.157945 0.00145045 0)
(-0.16065 0.00123042 0)
(-0.162925 0.00103626 0)
(-0.164817 0.000837985 0)
(-0.166309 0.000646454 0)
(-0.167388 0.000429404 0)
(-0.168002 0.000191022 0)
(-0.168114 -9.56912e-05 0)
(-0.167639 -0.000379063 0)
(-0.166552 -0.000684486 0)
(-0.164844 -0.000992228 0)
(-0.162505 -0.00131813 0)
(-0.159549 -0.00164826 0)
(-0.155918 -0.0019347 0)
(-0.151613 -0.0022831 0)
(-0.146629 -0.0026689 0)
(-0.140869 -0.00300526 0)
(-0.134378 -0.00338355 0)
(-0.12712 -0.00377296 0)
(-0.119089 -0.00413675 0)
(-0.110314 -0.00451374 0)
(-0.100772 -0.00489456 0)
(-0.0904783 -0.00529012 0)
(-0.0794273 -0.00568939 0)
(-0.0675495 -0.00608752 0)
(-0.0548692 -0.00649713 0)
(-0.0413772 -0.00687864 0)
(-0.0271599 -0.00734034 0)
(-0.0121631 -0.00777528 0)
(0.00485205 -0.00813423 0)
(0.0231907 -0.00851286 0)
(0.0416543 -0.00884429 0)
(0.0606716 -0.00903453 0)
(0.0799505 -0.00911061 0)
(0.0993066 -0.00911155 0)
(0.118519 -0.00896981 0)
(0.137263 -0.0087442 0)
(0.155289 -0.00835656 0)
(0.1721 -0.00774705 0)
(0.187188 -0.00695883 0)
(0.200162 -0.00594817 0)
(0.210527 -0.00471382 0)
(0.21808 -0.00340475 0)
(0.222671 -0.00194283 0)
(0.224182 -0.000511172 0)
(0.22295 0.000972993 0)
(0.218882 0.00254442 0)
(0.21221 0.00390262 0)
(0.202978 0.00520882 0)
(0.191226 0.0064182 0)
(0.177277 0.0073398 0)
(0.161501 0.00817552 0)
(0.144205 0.00889015 0)
(0.125819 0.00927115 0)
(0.106662 0.00962092 0)
(0.0871119 0.00970899 0)
(0.0674769 0.0097657 0)
(0.0479611 0.00971202 0)
(0.0289707 0.00946078 0)
(0.0100006 0.00921699 0)
(-0.00936172 0.00878476 0)
(-0.0277866 0.00832542 0)
(-0.0446639 0.00788631 0)
(-0.0603906 0.00736052 0)
(-0.0749898 0.00687183 0)
(-0.0884886 0.00636445 0)
(-0.100875 0.00582113 0)
(-0.112173 0.00531441 0)
(-0.122409 0.00480746 0)
(-0.131599 0.00429271 0)
(-0.139774 0.00380693 0)
(-0.146962 0.00332153 0)
(-0.153193 0.00286019 0)
(-0.158495 0.00240859 0)
(-0.162891 0.00196466 0)
(-0.166401 0.00153539 0)
(-0.169044 0.00110949 0)
(-0.170832 0.000682936 0)
(-0.171772 0.00027211 0)
(-0.171925 -0.000133117 0)
(-0.171244 -0.000540882 0)
(-0.169738 -0.000950653 0)
(-0.167403 -0.00136746 0)
(-0.164228 -0.00178652 0)
(-0.160194 -0.00221318 0)
(-0.155283 -0.00266051 0)
(-0.149473 -0.0031061 0)
(-0.14274 -0.0035612 0)
(-0.135059 -0.00405328 0)
(-0.126404 -0.00452818 0)
(-0.116756 -0.00505084 0)
(-0.106096 -0.00553827 0)
(-0.0944185 -0.00602307 0)
(-0.0817151 -0.00657344 0)
(-0.0679886 -0.00704334 0)
(-0.0532737 -0.00748859 0)
(-0.0375977 -0.00801476 0)
(-0.0209657 -0.00839288 0)
(-0.00358346 -0.00887441 0)
(0.0144626 -0.00914236 0)
(0.0331438 -0.00933655 0)
(0.0522758 -0.00962067 0)
(0.0716754 -0.00963596 0)
(0.0911275 -0.00953718 0)
(0.110411 -0.00951174 0)
(0.129278 -0.00917439 0)
(0.147478 -0.00888599 0)
(0.16474 -0.00829037 0)
(0.180791 -0.00757232 0)
(0.195377 -0.00685509 0)
(0.20823 -0.00589906 0)
(0.219865 -0.00485913 0)
(-0.0143137 0.0117924 0)
(-0.029113 0.0111486 0)
(-0.0446922 0.0106012 0)
(-0.0594527 0.0100027 0)
(-0.0732993 0.00928271 0)
(-0.0862054 0.00864858 0)
(-0.0981526 0.00794022 0)
(-0.109153 0.00730934 0)
(-0.119218 0.00668188 0)
(-0.128366 0.00603118 0)
(-0.136628 0.0054373 0)
(-0.14403 0.00485705 0)
(-0.1506 0.00427722 0)
(-0.156367 0.00373387 0)
(-0.161355 0.0031958 0)
(-0.165591 0.0026833 0)
(-0.169092 0.00218105 0)
(-0.171876 0.00168561 0)
(-0.173959 0.00119827 0)
(-0.17535 0.000716671 0)
(-0.176047 0.000248464 0)
(-0.176062 -0.000235317 0)
(-0.175374 -0.000722838 0)
(-0.173985 -0.00121914 0)
(-0.171874 -0.0017251 0)
(-0.169023 -0.00225193 0)
(-0.165409 -0.00278988 0)
(-0.160998 -0.00334689 0)
(-0.155762 -0.00394354 0)
(-0.149668 -0.00454409 0)
(-0.142675 -0.00516389 0)
(-0.134756 -0.00584592 0)
(-0.125873 -0.00650053 0)
(-0.116006 -0.00723397 0)
(-0.105133 -0.00790505 0)
(-0.0932478 -0.00856777 0)
(-0.0803447 -0.00933782 0)
(-0.0664197 -0.00996319 0)
(-0.0515146 -0.0105453 0)
(-0.0356651 -0.0112926 0)
(-0.0188843 -0.0117716 0)
(-0.00154234 -0.0123706 0)
(0.0163286 -0.0127025 0)
(0.0348122 -0.0128938 0)
(0.0536394 -0.0132111 0)
(0.0726548 -0.01318 0)
(0.0916166 -0.012975 0)
(0.1103 -0.0128209 0)
(0.128483 -0.0123327 0)
(0.145902 -0.0116569 0)
(0.162306 -0.0109349 0)
(0.177436 -0.00993353 0)
(0.191055 -0.00884154 0)
(0.202933 -0.00756254 0)
(0.212868 -0.00612754 0)
(0.220683 -0.00463757 0)
(0.226246 -0.00307801 0)
(0.229464 -0.00140383 0)
(0.230295 0.000206115 0)
(0.228775 0.00188857 0)
(0.22484 0.00345469 0)
(0.218723 0.0049825 0)
(0.210462 0.00650644 0)
(0.200142 0.007775 0)
(0.188009 0.00900187 0)
(0.174241 0.0101277 0)
(0.159049 0.0109679 0)
(0.142681 0.011759 0)
(0.125381 0.01226 0)
(0.10733 0.0126938 0)
(0.0888178 0.0129619 0)
(0.0701186 0.0130084 0)