/*--------------------------------*- C++ -*----------------------------------*\
| =========                 |                                                 |
| \\      /  F ield         | OpenFOAM: The Open Source CFD Toolbox           |
|  \\    /   O peration     | Version:  3.0.1                                 |
|   \\  /    A nd           | Web:      www.OpenFOAM.org                      |
|    \\/     M anipulation  |                                                 |
\*---------------------------------------------------------------------------*/
FoamFile
{
    version     2.0;
    format      ascii;
    class       volScalarField;
    location    "67.2";
    object      p;
}
// * * * * * * * * * * * * * * * * * * * * * * * * * * * * * * * * * * * * * //

dimensions      [1 -1 -2 0 0 0 0];

internalField   nonuniform List<scalar> 
21420
(
3664.6
3682.97
3702.92
3724.43
3747.48
3771.98
3797.89
3825.12
3853.58
3883.19
3913.79
3945.2
3977.25
4009.7
4042.29
4074.73
4106.66
4137.78
4167.71
4196.02
4222.39
4246.42
4267.74
4286.03
4301
4312.4
4320.05
4323.82
4323.66
4319.51
4311.61
4300.01
4284.84
4266.43
4245.03
4220.96
4194.59
4166.25
4136.27
4105.06
4072.95
4040.29
4007.42
3974.6
3942.16
3910.37
3879.44
3849.6
3821.04
3793.91
3768.33
3744.42
3722.25
3701.87
3683.31
3666.57
3651.64
3638.47
3627.01
3617.17
3608.84
3601.91
3596.23
3591.32
3587.75
3585.23
3583.71
3583.08
3583.26
3584.21
3585.93
3588.43
3591.71
3595.69
3600.34
3605.61
3611.5
3617.97
3625.19
3633.82
3643.83
3655.22
3668.21
3682.97
3699.72
3718.11
3735.65
3754.59
3776.06
3799.59
3824.74
3851.24
3878.85
3907.29
3936.28
3965.53
3994.77
4023.72
4052.08
4079.54
4105.74
4130.36
4153.05
4173.48
4191.37
4206.42
4218.41
4227.13
4232.42
4234.17
4232.25
4226.79
4217.75
4205.28
4189.46
4170.53
4148.72
4124.29
4097.56
4068.85
4038.52
4006.93
3974.47
3941.51
3908.44
3875.61
3843.38
3812.04
3781.88
3753.12
3725.95
3700.51
3676.88
3655.12
3635.25
3617.3
3601.15
3586.77
3574.1
3563.07
3553.58
3545.55
3538.89
3533.5
3529.3
3526.23
3524.22
3523.21
3523.18
3524.07
3525.84
3528.48
3531.97
3536.31
3541.49
3547.54
3554.47
3562.32
3571.14
3580.99
3592.06
3604.2
3617.58
3632.29
3648.4
3665.98
3685.07
3705.7
3727.86
3751.5
3776.54
3802.86
3830.31
3858.69
3887.8
3917.36
3947.09
3976.63
4005.64
4033.71
4060.46
4085.46
4108.32
4128.65
4146.07
4160.26
4170.95
4177.91
4180.86
4179.99
4175.1
4166.28
4153.64
4137.42
4117.87
4095.34
4070.19
4042.85
4013.73
3983.27
3951.93
3920.12
3888.27
3856.75
3825.91
3796.03
3767.36
3740.06
3714.25
3689.99
3667.31
3646.21
3626.64
3608.56
3591.94
3576.67
3562.69
3549.96
3538.42
3528.03
3518.75
3510.54
3503.36
3497.18
3492
3487.79
3484.54
3482.25
3480.91
3480.54
3481.14
3482.74
3485.35
3489.02
3493.79
3499.71
3506.86
3515.31
3525.17
3536.45
3549.26
3563.69
3579.79
3597.62
3617.22
3638.6
3661.73
3686.56
3712.99
3740.9
3770.11
3800.37
3831.44
3863
3894.71
3926.21
3957.12
3987.05
4015.62
4042.43
4067.12
4089.32
4108.69
4124.92
4137.75
4146.94
4152.22
4153.6
4151.04
4144.56
4134.39
4120.73
4103.9
4084.22
4062.09
4037.96
4012.28
3985.46
3958.04
3930.47
3903.13
3876.35
3850.37
3825.4
3801.59
3779
3757.7
3737.71
3718.98
3701.53
3685.29
3670.24
3656.38
3643.63
3631.82
3621.02
3613.7
3606.88
3600.77
3595.48
3591.18
3587.95
3585.76
3584.59
3584.38
3585.3
3587.17
3589.92
3593.46
3597.78
3602.9
3608.84
3615.6
3623.15
3634.5
3644.89
3656.74
3669.99
3684.73
3701.1
3719.12
3738.84
3760.25
3783.31
3807.95
3834.03
3861.4
3889.88
3919.22
3949.17
3979.46
4009.79
4039.83
4069.3
4097.85
4125.18
4150.95
4174.83
4196.56
4215.87
4232.5
4246.24
4256.9
4264.33
4268.43
4269.06
4266.22
4259.87
4250.13
4237.21
4221.3
4202.64
4181.5
4158.17
4133.01
4106.44
4078.94
3566.44
3584.81
3604.76
3626.27
3649.32
3673.82
3699.73
3726.96
3755.43
3785.04
3815.64
3847.05
3879.12
3911.57
3944.18
3976.62
4008.57
4039.71
4069.65
4097.98
4124.37
4148.42
4169.75
4188.05
4203.03
4214.45
4222.1
4225.88
4225.72
4221.56
4213.65
4202.05
4186.87
4168.44
4147.03
4122.94
4096.55
4068.2
4038.2
4006.97
3974.85
3942.18
3909.29
3876.47
3844.02
3812.21
3781.28
3751.43
3722.87
3695.73
3670.16
3646.25
3624.08
3603.69
3585.13
3568.39
3553.46
3540.3
3528.85
3519.01
3510.68
3503.76
3498.09
3493.17
3489.6
3487.09
3485.57
3484.94
3485.13
3486.08
3487.8
3490.3
3493.58
3497.57
3502.22
3507.5
3513.38
3519.86
3527.09
3535.71
3545.72
3557.11
3570.09
3584.84
3601.6
3620.02
3637.41
3656.41
3677.9
3701.44
3726.59
3753.1
3780.71
3809.15
3838.15
3867.41
3896.66
3925.62
3954
3981.46
4007.68
4032.31
4055.02
4075.47
4093.36
4108.44
4120.44
4129.16
4134.45
4136.21
4134.3
4128.82
4119.78
4107.3
4091.48
4072.53
4050.71
4026.26
3999.52
3970.79
3940.44
3908.84
3876.36
3843.39
3810.3
3777.46
3745.21
3713.87
3683.7
3654.94
3627.77
3602.32
3578.69
3556.93
3537.06
3519.12
3502.97
3488.59
3475.93
3464.9
3455.42
3447.39
3440.73
3435.35
3431.15
3428.09
3426.07
3425.07
3425.04
3425.93
3427.7
3430.34
3433.84
3438.17
3443.35
3449.39
3456.32
3464.17
3472.99
3482.84
3493.9
3506.04
3519.42
3534.12
3550.23
3567.81
3586.9
3607.52
3629.68
3653.32
3678.36
3704.69
3732.14
3760.54
3789.65
3819.23
3848.96
3878.52
3907.55
3935.64
3962.4
3987.42
4010.3
4030.65
4048.08
4062.29
4072.99
4079.96
4082.92
4082.03
4077.15
4068.32
4055.67
4039.43
4019.87
3997.32
3972.15
3944.79
3915.65
3885.17
3853.81
3821.99
3790.12
3758.59
3727.74
3697.86
3669.18
3641.88
3616.07
3591.81
3569.14
3548.03
3528.47
3510.4
3493.77
3478.51
3464.53
3451.81
3440.27
3429.89
3420.6
3412.39
3405.21
3399.04
3393.86
3389.65
3386.4
3384.1
3382.77
3382.39
3383
3384.59
3387.2
3390.87
3395.64
3401.56
3408.7
3417.15
3427
3438.28
3451.09
3465.51
3481.61
3499.44
3519.04
3540.41
3563.54
3588.37
3614.82
3642.73
3671.94
3702.22
3733.3
3764.87
3796.59
3828.11
3859.03
3888.99
3917.57
3944.4
3969.11
3991.32
4010.7
4026.95
4039.79
4049
4054.26
4055.64
4053.09
4046.6
4036.42
4022.75
4005.9
3986.21
3964.07
3939.92
3914.22
3887.39
3859.95
3832.38
3805.03
3778.24
3752.26
3727.28
3703.46
3680.87
3659.57
3639.57
3620.85
3603.39
3587.15
3572.1
3558.25
3545.49
3533.66
3522.85
3515.6
3508.74
3502.63
3497.33
3493.04
3489.8
3487.62
3486.45
3486.25
3487.17
3489.04
3491.79
3495.32
3499.65
3504.77
3510.71
3517.47
3525.03
3536.33
3546.72
3558.58
3571.82
3586.56
3602.93
3620.95
3640.66
3662.08
3685.14
3709.78
3735.86
3763.24
3791.72
3821.08
3851.04
3881.34
3911.68
3941.74
3971.21
3999.78
4027.12
4052.9
4076.8
4098.54
4117.87
4134.5
4148.25
4158.92
4166.36
4170.46
4171.1
4168.24
4161.89
4152.15
4139.22
4123.3
4104.63
4083.47
4060.13
4034.96
4008.37
3980.86
3468.22
3486.59
3506.53
3528.04
3551.09
3575.6
3601.51
3628.74
3657.21
3686.83
3717.44
3748.87
3780.95
3813.42
3846.05
3878.52
3910.49
3941.66
3971.63
4000
4026.42
4050.5
4071.86
4090.19
4105.2
4116.63
4124.3
4128.08
4127.93
4123.77
4115.83
4104.21
4089.01
4070.56
4049.12
4025
3998.58
3970.19
3940.17
3908.9
3876.75
3844.06
3811.14
3778.29
3745.83
3714.01
3683.06
3653.2
3624.63
3597.48
3571.9
3547.99
3525.82
3505.44
3486.87
3470.14
3455.21
3442.06
3430.61
3420.78
3412.47
3405.56
3399.92
3394.97
3391.42
3388.91
3387.4
3386.78
3386.96
3387.91
3389.64
3392.15
3395.43
3399.43
3404.08
3409.36
3415.25
3421.74
3428.98
3437.6
3447.59
3458.97
3471.94
3486.69
3503.46
3521.93
3539.02
3558.16
3579.69
3603.23
3628.38
3654.9
3682.52
3710.97
3739.98
3769.26
3798.53
3827.52
3855.92
3883.41
3909.66
3934.33
3957.06
3977.54
3995.46
4010.56
4022.58
4031.32
4036.63
4038.39
4036.5
4030.98
4021.94
4009.45
3993.61
3974.64
3952.79
3928.31
3901.53
3872.77
3842.39
3810.76
3778.25
3745.24
3712.13
3679.26
3646.99
3615.63
3585.44
3556.67
3529.5
3504.05
3480.42
3458.66
3438.79
3420.86
3404.72
3390.35
3377.69
3366.67
3357.2
3349.18
3342.53
3337.15
3332.96
3329.9
3327.89
3326.89
3326.86
3327.75
3329.53
3332.17
3335.66
3340
3345.18
3351.22
3358.14
3365.99
3374.8
3384.64
3395.7
3407.82
3421.19
3435.89
3451.99
3469.56
3488.65
3509.27
3531.43
3555.07
3580.12
3606.45
3633.92
3662.33
3691.47
3721.06
3750.82
3780.41
3809.47
3837.6
3864.4
3889.46
3912.37
3932.75
3950.22
3964.45
3975.17
3982.16
3985.16
3984.23
3979.35
3970.5
3957.83
3941.56
3921.97
3899.38
3874.18
3846.77
3817.59
3787.08
3755.68
3723.83
3691.93
3660.38
3629.51
3599.62
3570.93
3543.62
3517.81
3493.56
3470.89
3449.79
3430.23
3412.17
3395.55
3380.29
3366.32
3353.6
3342.07
3331.69
3322.42
3314.2
3307.03
3300.86
3295.68
3291.47
3288.22
3285.92
3284.59
3284.21
3284.81
3286.41
3289.02
3292.68
3297.44
3303.36
3310.49
3318.93
3328.77
3340.05
3352.85
3367.26
3383.35
3401.18
3420.77
3442.14
3465.28
3490.11
3516.56
3544.49
3573.72
3604.02
3635.12
3666.72
3698.47
3730.02
3760.97
3790.96
3819.58
3846.44
3871.18
3893.43
3912.84
3929.11
3941.97
3951.2
3956.46
3957.83
3955.28
3948.78
3938.58
3924.9
3908.02
3888.29
3866.12
3841.94
3816.21
3789.36
3761.89
3734.29
3706.92
3680.12
3654.12
3629.13
3605.31
3582.71
3561.41
3541.41
3522.68
3505.22
3488.98
3473.93
3460.07
3447.3
3435.46
3424.61
3417.49
3410.58
3404.45
3399.14
3394.85
3391.61
3389.43
3388.27
3388.07
3389
3390.88
3393.62
3397.16
3401.48
3406.6
3412.54
3419.31
3426.88
3438.08
3448.5
3460.35
3473.59
3488.32
3504.68
3522.7
3542.41
3563.83
3586.89
3611.53
3637.63
3665.02
3693.52
3722.89
3752.87
3783.19
3813.56
3843.64
3873.14
3901.74
3929.11
3954.92
3978.84
4000.61
4019.96
4036.62
4050.39
4061.07
4068.52
4072.63
4073.29
4070.39
4064.03
4054.29
4041.34
4025.4
4006.7
3985.52
3962.15
3936.95
3910.33
3882.79
3369.94
3388.3
3408.25
3429.76
3452.81
3477.31
3503.22
3530.46
3558.94
3588.57
3619.19
3650.64
3682.74
3715.24
3747.9
3780.41
3812.43
3843.64
3873.66
3902.08
3928.55
3952.68
3974.09
3992.46
4007.5
4018.96
4026.66
4030.45
4030.29
4026.13
4018.16
4006.51
3991.28
3972.79
3951.3
3927.14
3900.67
3872.23
3842.16
3810.85
3778.65
3745.92
3712.96
3680.09
3647.59
3615.74
3584.77
3554.9
3526.32
3499.16
3473.57
3449.66
3427.48
3407.1
3388.54
3371.81
3356.89
3343.75
3332.31
3322.49
3314.19
3307.31
3301.7
3296.71
3293.19
3290.7
3289.19
3288.58
3288.77
3289.72
3291.45
3293.96
3297.25
3301.26
3305.92
3311.22
3317.11
3323.61
3330.87
3339.48
3349.45
3360.82
3373.77
3388.51
3405.3
3423.87
3440.49
3459.82
3481.41
3504.97
3530.13
3556.65
3584.29
3612.76
3641.78
3671.08
3700.39
3729.41
3757.85
3785.39
3811.69
3836.39
3859.17
3879.7
3897.66
3912.79
3924.85
3933.62
3938.94
3940.71
3938.84
3933.29
3924.24
3911.73
3895.86
3876.85
3854.96
3830.44
3803.61
3774.8
3744.37
3712.69
3680.13
3647.08
3613.92
3581.01
3548.71
3517.32
3487.11
3458.33
3431.14
3405.69
3382.06
3360.31
3340.44
3322.53
3306.39
3292.03
3279.39
3268.38
3258.92
3250.91
3244.27
3238.9
3234.72
3231.67
3229.67
3228.67
3228.65
3229.54
3231.32
3233.97
3237.46
3241.79
3246.97
3253
3259.92
3267.76
3276.56
3286.39
3297.44
3309.55
3322.91
3337.6
3353.69
3371.25
3390.33
3410.95
3433.1
3456.75
3481.81
3508.15
3535.64
3564.07
3593.24
3622.87
3652.67
3682.3
3711.4
3739.58
3766.44
3791.55
3814.53
3834.96
3852.48
3866.75
3877.5
3884.5
3887.55
3886.58
3881.7
3872.83
3860.13
3843.81
3824.17
3801.53
3776.27
3748.8
3719.56
3689
3657.54
3625.64
3593.7
3562.11
3531.21
3501.3
3472.6
3445.29
3419.48
3395.23
3372.57
3351.48
3331.93
3313.88
3297.28
3282.02
3268.06
3255.35
3243.83
3233.45
3224.18
3215.98
3208.8
3202.64
3197.46
3193.25
3190
3187.71
3186.37
3185.99
3186.59
3188.18
3190.78
3194.44
3199.19
3205.1
3212.23
3220.65
3230.49
3241.75
3254.53
3268.94
3285.02
3302.83
3322.42
3343.79
3366.93
3391.78
3418.24
3446.18
3475.43
3505.76
3536.9
3568.54
3600.33
3631.93
3662.93
3692.97
3721.64
3748.56
3773.34
3795.64
3815.09
3831.4
3844.28
3853.54
3858.82
3860.18
3857.61
3851.11
3840.88
3827.16
3810.24
3790.47
3768.25
3744.03
3718.25
3691.35
3663.84
3636.21
3608.81
3581.98
3555.97
3530.96
3507.13
3484.53
3463.21
3443.21
3424.48
3407.02
3390.77
3375.72
3361.85
3349.08
3337.21
3326.3
3319.37
3312.38
3306.22
3300.9
3296.61
3293.38
3291.21
3290.05
3289.86
3290.8
3292.68
3295.43
3298.97
3303.29
3308.4
3314.34
3321.11
3328.71
3339.76
3350.2
3362.07
3375.29
3390.02
3406.37
3424.38
3444.08
3465.5
3488.57
3513.22
3539.33
3566.73
3595.26
3624.66
3654.66
3685.02
3715.43
3745.54
3775.09
3803.73
3831.14
3856.99
3880.95
3902.76
3922.15
3938.84
3952.64
3963.35
3970.81
3974.93
3975.61
3972.67
3966.3
3956.54
3943.57
3927.59
3908.86
3887.64
3864.23
3838.98
3812.32
3784.74
3271.6
3289.95
3309.9
3331.41
3354.46
3378.96
3404.88
3432.12
3460.6
3490.25
3520.89
3552.37
3584.5
3617.04
3649.74
3682.3
3714.37
3745.65
3775.74
3804.22
3830.76
3854.95
3876.42
3894.85
3909.94
3921.44
3929.16
3932.96
3932.8
3928.65
3920.63
3908.95
3893.68
3875.13
3853.59
3829.36
3802.82
3774.31
3744.18
3712.8
3680.55
3647.76
3614.76
3581.84
3549.31
3517.43
3486.43
3456.54
3427.93
3400.76
3375.17
3351.24
3329.07
3308.68
3290.13
3273.4
3258.5
3245.36
3233.94
3224.14
3215.86
3209.01
3203.44
3198.4
3194.92
3192.45
3190.95
3190.34
3190.54
3191.5
3193.23
3195.75
3199.05
3203.07
3207.75
3213.05
3218.95
3225.46
3232.75
3241.35
3251.3
3262.64
3275.57
3290.31
3307.11
3325.84
3341.78
3361.43
3383.08
3406.66
3431.83
3458.36
3486.01
3514.5
3543.55
3572.89
3602.23
3631.3
3659.79
3687.39
3713.75
3738.52
3761.36
3781.94
3799.96
3815.14
3827.24
3836.04
3841.39
3843.17
3841.31
3835.75
3826.68
3814.13
3798.22
3779.17
3757.22
3732.64
3705.75
3676.88
3646.38
3614.63
3582
3548.89
3515.67
3482.72
3450.37
3418.94
3388.71
3359.9
3332.7
3307.25
3283.62
3261.87
3242.01
3224.12
3207.99
3193.65
3181.02
3170.03
3160.58
3152.59
3145.96
3140.61
3136.44
3133.4
3131.4
3130.42
3130.4
3131.3
3133.08
3135.73
3139.22
3143.55
3148.72
3154.75
3161.66
3169.49
3178.28
3188.09
3199.14
3211.23
3224.57
3239.24
3255.32
3272.86
3291.93
3312.55
3334.7
3358.35
3383.42
3409.79
3437.3
3465.76
3494.96
3524.64
3554.49
3584.18
3613.35
3641.6
3668.53
3693.72
3716.77
3737.27
3754.85
3769.18
3779.97
3787
3790.08
3789.1
3784.2
3775.3
3762.55
3746.19
3726.48
3703.76
3678.42
3650.87
3621.56
3590.91
3559.39
3527.42
3495.43
3463.79
3432.85
3402.91
3374.2
3346.88
3321.07
3296.82
3274.17
3253.09
3233.56
3215.52
3198.94
3183.7
3169.75
3157.05
3145.54
3135.17
3125.91
3117.71
3110.54
3104.38
3099.2
3094.99
3091.75
3089.45
3088.11
3087.73
3088.33
3089.91
3092.51
3096.16
3100.9
3106.8
3113.91
3122.32
3132.14
3143.38
3156.15
3170.54
3186.61
3204.41
3224
3245.36
3268.5
3293.36
3319.84
3347.81
3377.09
3407.46
3438.64
3470.33
3502.19
3533.84
3564.91
3595.02
3623.76
3650.74
3675.6
3697.95
3717.46
3733.82
3746.74
3756.02
3761.33
3762.68
3760.1
3753.57
3743.32
3729.55
3712.58
3692.75
3670.46
3646.17
3620.34
3593.37
3565.82
3538.14
3510.7
3483.84
3457.8
3432.77
3408.92
3386.31
3364.98
3344.98
3326.24
3308.78
3292.52
3277.47
3263.59
3250.81
3238.9
3227.93
3221.25
3214.15
3207.94
3202.62
3198.33
3195.1
3192.94
3191.79
3191.62
3192.56
3194.45
3197.2
3200.74
3205.06
3210.17
3216.1
3222.88
3230.52
3241.35
3251.85
3263.72
3276.93
3291.64
3307.98
3325.98
3345.68
3367.1
3390.17
3414.83
3440.96
3468.39
3496.94
3526.38
3556.43
3586.83
3617.28
3647.45
3677.05
3705.74
3733.21
3759.12
3783.14
3805
3824.43
3841.17
3855.01
3865.74
3873.23
3877.36
3878.06
3875.09
3868.7
3858.91
3845.91
3829.89
3811.11
3789.83
3766.36
3741.06
3714.34
3686.71
3173.19
3191.55
3211.48
3232.99
3256.04
3280.55
3306.47
3333.72
3362.21
3391.88
3422.55
3454.05
3486.22
3518.81
3551.56
3584.18
3616.33
3647.68
3677.85
3706.42
3733.04
3757.32
3778.87
3797.37
3812.52
3824.06
3831.81
3835.63
3835.46
3831.3
3823.26
3811.52
3796.2
3777.58
3755.96
3731.65
3705.03
3676.45
3646.23
3614.78
3582.45
3549.59
3516.53
3483.56
3450.98
3419.06
3388.03
3358.11
3329.48
3302.29
3276.68
3252.75
3230.57
3210.19
3191.64
3174.92
3160.02
3146.91
3135.5
3125.73
3117.48
3110.65
3105.16
3100.03
3096.6
3094.16
3092.68
3092.08
3092.28
3093.24
3094.99
3097.51
3100.82
3104.86
3109.55
3114.87
3120.77
3127.3
3134.62
3143.21
3153.14
3164.45
3177.35
3192.07
3208.88
3227.74
3243.01
3262.97
3284.7
3308.29
3333.47
3360.02
3387.69
3416.2
3445.29
3474.67
3504.06
3533.19
3561.75
3589.42
3615.85
3640.7
3663.62
3684.27
3702.36
3717.6
3729.75
3738.6
3743.97
3745.77
3743.91
3738.35
3729.26
3716.66
3700.7
3681.59
3659.57
3634.92
3607.95
3578.99
3548.41
3516.58
3483.87
3450.68
3417.39
3384.37
3351.97
3320.49
3290.22
3261.39
3234.18
3208.72
3185.09
3163.35
3143.49
3125.64
3109.52
3095.19
3082.58
3071.61
3062.18
3054.21
3047.6
3042.26
3038.12
3035.08
3033.1
3032.12
3032.11
3033.02
3034.8
3037.45
3040.94
3045.27
3050.44
3056.46
3063.36
3071.18
3079.96
3089.74
3100.79
3112.85
3126.17
3140.82
3156.88
3174.41
3193.46
3214.07
3236.23
3259.89
3284.97
3311.36
3338.9
3367.4
3396.65
3426.38
3456.3
3486.07
3515.31
3543.65
3570.67
3595.95
3619.09
3639.68
3657.35
3671.75
3682.59
3689.66
3692.76
3691.79
3686.86
3677.92
3665.12
3648.68
3628.88
3606.08
3580.64
3552.99
3523.58
3492.84
3461.23
3429.18
3397.11
3365.41
3334.43
3304.45
3275.72
3248.39
3222.58
3198.34
3175.7
3154.64
3135.13
3117.1
3100.54
3085.32
3071.39
3058.7
3047.2
3036.85
3027.59
3019.4
3012.24
3006.08
3000.91
2996.7
2993.45
2991.16
2989.82
2989.43
2990.02
2991.6
2994.19
2997.83
3002.56
3008.44
3015.54
3023.92
3033.73
3044.95
3057.7
3072.07
3088.12
3105.91
3125.49
3146.85
3170
3194.86
3221.36
3249.36
3278.69
3309.1
3340.35
3372.1
3404.03
3435.76
3466.92
3497.11
3525.93
3553
3577.94
3600.37
3619.96
3636.37
3649.34
3658.64
3663.99
3665.34
3662.74
3656.19
3645.89
3632.06
3615.02
3595.12
3572.75
3548.38
3522.47
3495.43
3467.81
3440.07
3412.58
3385.68
3359.61
3334.56
3310.69
3288.06
3266.73
3246.71
3227.97
3210.5
3194.24
3179.18
3165.3
3152.5
3140.56
3129.49
3123.12
3115.88
3109.62
3104.29
3100
3096.78
3094.62
3093.49
3093.33
3094.29
3096.18
3098.94
3102.48
3106.8
3111.9
3117.83
3124.61
3132.32
3142.87
3153.43
3165.3
3178.5
3193.2
3209.52
3227.51
3247.2
3268.62
3291.7
3316.38
3342.52
3369.99
3398.58
3428.05
3458.15
3488.61
3519.12
3549.36
3579.02
3607.79
3635.33
3661.31
3685.39
3707.32
3726.82
3743.61
3757.49
3768.27
3775.78
3779.92
3780.64
3777.65
3771.22
3761.41
3748.35
3732.28
3713.44
3692.1
3668.55
3643.18
3616.39
3588.7
3074.73
3093.08
3113.01
3134.52
3157.57
3182.07
3208
3235.25
3263.76
3293.45
3324.15
3355.69
3387.91
3420.55
3453.37
3486.07
3518.29
3549.74
3580.01
3608.68
3635.4
3659.78
3681.42
3700
3715.23
3726.83
3734.62
3738.46
3738.28
3734.11
3726.04
3714.23
3698.84
3680.14
3658.44
3634.03
3607.31
3578.63
3548.31
3516.76
3484.35
3451.41
3418.28
3385.24
3352.6
3320.63
3289.56
3259.61
3230.95
3203.75
3178.12
3154.18
3132
3111.62
3093.07
3076.36
3061.48
3048.38
3037
3027.25
3019.03
3012.25
3006.83
3001.61
2998.25
2995.83
2994.36
2993.78
2993.99
2994.95
2996.71
2999.25
3002.57
3006.62
3011.34
3016.67
3022.58
3029.13
3036.48
3045.06
3054.97
3066.24
3079.11
3093.81
3110.61
3129.4
3144.33
3164.47
3186.26
3209.88
3235.07
3261.63
3289.32
3317.87
3346.99
3376.42
3405.88
3435.07
3463.71
3491.47
3517.99
3542.93
3565.94
3586.69
3604.86
3620.18
3632.39
3641.29
3646.7
3648.51
3646.66
3641.1
3631.96
3619.32
3603.3
3584.12
3562.02
3537.27
3510.21
3481.15
3450.47
3418.54
3385.73
3352.45
3319.07
3285.98
3253.5
3221.97
3191.66
3162.8
3135.57
3110.11
3086.48
3064.75
3044.89
3027.08
3010.96
2996.66
2984.08
2973.13
2963.73
2955.78
2949.19
2943.88
2939.74
2936.73
2934.76
2933.79
2933.79
2934.7
2936.49
2939.14
2942.64
2946.96
2952.13
2958.14
2965.03
2972.83
2981.6
2991.37
3002.37
3014.41
3027.71
3042.34
3058.37
3075.88
3094.92
3115.52
3137.68
3161.35
3186.45
3212.86
3240.44
3268.99
3298.29
3328.09
3358.09
3387.94
3417.29
3445.73
3472.86
3498.25
3521.51
3542.2
3559.97
3574.45
3585.36
3592.47
3595.59
3594.63
3589.67
3580.68
3567.81
3551.29
3531.39
3508.47
3482.92
3455.15
3425.62
3394.77
3363.05
3330.9
3298.75
3266.98
3235.94
3205.92
3177.16
3149.82
3124.01
3099.78
3077.16
3056.12
3036.62
3018.62
3002.09
2986.88
2972.97
2960.3
2948.82
2938.47
2929.23
2921.05
2913.89
2907.74
2902.57
2898.37
2895.12
2892.83
2891.48
2891.1
2891.68
2893.25
2895.83
2899.46
2904.17
2910.04
2917.11
2925.47
2935.26
2946.45
2959.18
2973.52
2989.55
3007.33
3026.9
3048.26
3071.41
3096.29
3122.81
3150.85
3180.22
3210.7
3242.01
3273.85
3305.86
3337.69
3368.94
3399.23
3428.16
3455.34
3480.37
3502.9
3522.57
3539.05
3552.08
3561.42
3566.79
3568.15
3565.53
3558.95
3548.59
3534.7
3517.58
3497.58
3475.12
3450.65
3424.64
3397.52
3369.82
3342.01
3314.46
3287.51
3261.4
3236.32
3212.43
3189.78
3168.44
3148.41
3129.67
3112.19
3095.93
3080.86
3066.96
3054.15
3042.16
3031.02
3024.95
3017.56
3011.26
3005.91
3001.62
2998.41
2996.27
2995.16
2995.02
2995.98
2997.89
3000.65
3004.19
3008.51
3013.6
3019.52
3026.31
3034.07
3044.32
3054.96
3066.83
3080.01
3094.68
3110.98
3128.96
3148.65
3170.07
3193.15
3217.85
3244.02
3271.52
3300.15
3329.69
3359.84
3390.37
3420.95
3451.26
3481.01
3509.86
3537.49
3563.55
3587.72
3609.73
3629.3
3646.16
3660.09
3670.92
3678.46
3682.62
3683.34
3680.34
3673.88
3664.02
3650.91
3634.78
3615.86
3594.43
3570.81
3545.34
3518.47
3490.7
2976.2
2994.54
3014.47
3035.98
3059.03
3083.53
3109.46
3136.73
3165.26
3194.97
3225.7
3257.29
3289.56
3322.26
3355.16
3387.94
3420.27
3451.82
3482.2
3510.99
3537.83
3562.33
3584.08
3602.76
3618.07
3629.74
3637.57
3641.44
3641.26
3637.07
3628.95
3617.08
3601.61
3582.82
3561
3536.49
3509.65
3480.85
3450.42
3418.77
3386.25
3353.22
3320
3286.88
3254.18
3222.15
3191.03
3161.04
3132.36
3105.13
3079.49
3055.53
3033.34
3012.96
2994.42
2977.72
2962.86
2949.78
2938.42
2928.71
2920.52
2913.79
2908.44
2903.16
2899.86
2897.47
2896.02
2895.44
2895.67
2896.64
2898.4
2900.95
2904.29
2908.36
2913.11
2918.46
2924.38
2930.94
2938.33
2946.91
2956.78
2968.02
2980.84
2995.52
3012.3
3030.76
3045.79
3065.94
3087.78
3111.4
3136.61
3163.19
3190.91
3219.49
3248.67
3278.15
3307.68
3336.96
3365.69
3393.54
3420.18
3445.23
3468.34
3489.19
3507.46
3522.86
3535.15
3544.11
3549.56
3551.4
3549.54
3543.98
3534.81
3522.11
3506.02
3486.75
3464.55
3439.7
3412.52
3383.35
3352.55
3320.5
3287.59
3254.2
3220.72
3187.53
3154.98
3123.38
3093.02
3064.13
3036.88
3011.4
2987.78
2966.06
2946.23
2928.42
2912.34
2898.06
2885.5
2874.59
2865.21
2857.3
2850.73
2845.44
2841.33
2838.33
2836.38
2835.42
2835.43
2836.35
2838.15
2840.8
2844.29
2848.62
2853.77
2859.78
2866.66
2874.44
2883.19
2892.95
2903.9
2915.92
2929.2
2943.8
2959.8
2977.29
2996.31
3016.9
3039.05
3062.73
3087.85
3114.3
3141.92
3170.52
3199.89
3229.77
3259.85
3289.81
3319.28
3347.84
3375.09
3400.62
3424
3444.83
3462.71
3477.29
3488.28
3495.43
3498.59
3497.64
3492.64
3483.59
3470.64
3454.02
3434.01
3410.96
3385.26
3357.36
3327.68
3296.7
3264.86
3232.6
3200.34
3168.49
3137.38
3107.32
3078.53
3051.18
3025.37
3001.15
2978.54
2957.52
2938.06
2920.08
2903.58
2888.39
2874.5
2861.85
2850.38
2840.06
2830.83
2822.65
2815.51
2809.37
2804.2
2800
2796.76
2794.46
2793.11
2792.72
2793.3
2794.86
2797.43
2801.04
2805.74
2811.58
2818.63
2826.96
2836.73
2847.89
2860.59
2874.91
2890.91
2908.67
2928.22
2949.58
2972.74
2997.63
3024.19
3052.27
3081.69
3112.24
3143.63
3175.56
3207.68
3239.61
3270.98
3301.39
3330.44
3357.74
3382.89
3405.53
3425.3
3441.87
3454.96
3464.34
3469.75
3471.12
3468.47
3461.85
3451.43
3437.46
3420.24
3400.14
3377.56
3352.98
3326.86
3299.64
3271.84
3243.95
3216.34
3189.33
3163.17
3138.06
3114.14
3091.47
3070.11
3050.08
3031.33
3013.84
2997.57
2982.49
2968.59
2955.75
2943.74
2932.54
2926.71
2919.2
2912.85
2907.49
2903.2
2900
2897.87
2896.78
2896.66
2897.64
2899.56
2902.33
2905.87
2910.18
2915.27
2921.18
2927.96
2935.77
2945.74
2956.43
2968.3
2981.45
2996.09
3012.38
3030.33
3050.02
3071.43
3094.53
3119.25
3145.45
3172.99
3201.68
3231.27
3261.5
3292.1
3322.77
3353.17
3383.02
3411.96
3439.69
3465.85
3490.12
3512.22
3531.87
3548.81
3562.82
3573.69
3581.28
3585.46
3586.18
3583.17
3576.66
3566.75
3553.58
3537.37
3518.37
3496.85
3473.12
3447.55
3420.58
3392.71
2877.62
2895.95
2915.88
2937.38
2960.43
2984.93
3010.87
3038.14
3066.69
3096.43
3127.2
3158.84
3191.17
3223.95
3256.93
3289.81
3322.25
3353.93
3384.45
3413.37
3440.34
3464.98
3486.85
3505.65
3521.05
3532.8
3540.68
3544.57
3544.4
3540.18
3532.02
3520.07
3504.5
3485.6
3463.67
3439.02
3412.05
3383.12
3352.56
3320.78
3288.15
3255.01
3221.69
3188.48
3155.7
3123.62
3092.44
3062.41
3033.69
3006.43
2980.77
2956.81
2934.61
2914.23
2895.69
2879.01
2864.16
2851.11
2839.78
2830.1
2821.96
2815.27
2809.99
2804.68
2801.44
2799.07
2797.64
2797.08
2797.31
2798.28
2800.06
2802.63
2805.99
2810.08
2814.85
2820.23
2826.16
2832.71
2840.18
2848.75
2858.59
2869.78
2882.56
2897.21
2913.94
2931.91
2947.3
2967.37
2989.24
3012.88
3038.1
3064.71
3092.45
3121.08
3150.3
3179.85
3209.46
3238.84
3267.67
3295.64
3322.4
3347.57
3370.81
3391.78
3410.16
3425.66
3438.03
3447.06
3452.56
3454.43
3452.58
3447
3437.78
3425.02
3408.85
3389.49
3367.18
3342.21
3314.9
3285.6
3254.66
3222.48
3189.43
3155.92
3122.33
3089.03
3056.39
3024.72
2994.3
2965.37
2938.1
2912.62
2889
2867.29
2847.49
2829.68
2813.64
2799.39
2786.86
2775.98
2766.64
2758.76
2752.22
2746.96
2742.87
2739.89
2737.96
2737.01
2737.04
2737.97
2739.77
2742.43
2745.92
2750.24
2755.39
2761.38
2768.24
2776.01
2784.74
2794.48
2805.37
2817.38
2830.62
2845.19
2861.16
2878.62
2897.62
2918.2
2940.35
2964.04
2989.19
3015.67
3043.34
3072
3101.44
3131.41
3161.6
3191.68
3221.27
3249.98
3277.38
3303.06
3326.59
3347.56
3365.57
3380.26
3391.34
3398.56
3401.74
3400.8
3395.76
3386.65
3373.61
3356.87
3336.72
3313.52
3287.67
3259.6
3229.77
3198.64
3166.65
3134.26
3101.89
3069.94
3038.76
3008.64
2979.82
2952.45
2926.64
2902.44
2879.85
2858.86
2839.42
2821.48
2805
2789.84
2775.98
2763.35
2751.91
2741.6
2732.38
2724.22
2717.09
2710.95
2705.79
2701.6
2698.35
2696.05
2694.7
2694.31
2694.88
2696.43
2698.99
2702.58
2707.26
2713.08
2720.1
2728.4
2738.14
2749.26
2761.93
2776.21
2792.19
2809.93
2829.47
2850.82
2873.98
2898.9
2925.49
2953.62
2983.11
3013.73
3045.22
3077.25
3109.49
3141.55
3173.05
3203.59
3232.78
3260.22
3285.5
3308.27
3328.15
3344.82
3357.98
3367.41
3372.86
3374.24
3371.57
3364.9
3354.41
3340.35
3323.01
3302.79
3280.09
3255.38
3229.13
3201.79
3173.88
3145.9
3118.21
3091.14
3064.93
3039.77
3015.82
2993.14
2971.76
2951.71
2932.95
2915.46
2899.18
2884.09
2870.18
2857.32
2845.27
2834.1
2828.37
2820.78
2814.38
2809.02
2804.73
2801.54
2799.43
2798.36
2798.26
2799.26
2801.19
2803.97
2807.52
2811.83
2816.9
2822.8
2829.58
2837.39
2847.14
2857.85
2869.7
2882.83
2897.44
2913.7
2931.63
2951.31
2972.72
2995.83
3020.57
3046.81
3074.4
3103.15
3132.81
3163.12
3193.81
3224.58
3255.08
3285.03
3314.09
3341.93
3368.21
3392.59
3414.79
3434.55
3451.57
3465.65
3476.59
3484.22
3488.43
3489.15
3486.12
3479.57
3469.61
3456.37
3440.07
3420.96
3399.33
3375.48
3349.8
3322.72
3294.74
2778.97
2797.29
2817.21
2838.72
2861.76
2886.27
2912.21
2939.49
2968.06
2997.84
3028.65
3060.34
3092.75
3125.61
3158.69
3191.68
3224.25
3256.06
3286.73
3315.8
3342.93
3367.71
3389.74
3408.66
3424.17
3436
3443.95
3447.87
3447.69
3443.44
3435.23
3423.19
3407.52
3388.5
3366.43
3341.63
3314.52
3285.43
3254.72
3222.81
3190.04
3156.78
3123.35
3090.05
3057.18
3025.02
2993.79
2963.7
2934.94
2907.66
2881.98
2858
2835.8
2815.42
2796.89
2780.22
2765.39
2752.36
2741.07
2731.43
2723.33
2716.69
2711.46
2706.18
2702.97
2700.64
2699.22
2698.68
2698.92
2699.9
2701.68
2704.27
2707.66
2711.77
2716.58
2721.98
2727.92
2734.42
2742.01
2750.59
2760.38
2771.52
2784.25
2798.87
2815.57
2832.91
2848.77
2868.76
2890.65
2914.31
2939.55
2966.17
2993.95
3022.62
3051.91
3081.53
3111.23
3140.71
3169.67
3197.77
3224.66
3249.97
3273.35
3294.45
3312.96
3328.57
3341.04
3350.14
3355.7
3357.59
3355.75
3350.16
3340.9
3328.06
3311.8
3292.33
3269.89
3244.79
3217.33
3187.88
3156.8
3124.46
3091.27
3057.62
3023.89
2990.48
2957.74
2925.98
2895.5
2866.53
2839.23
2813.74
2790.13
2768.43
2748.66
2730.86
2714.86
2700.65
2688.16
2677.31
2668.01
2660.16
2653.66
2648.43
2644.37
2641.42
2639.5
2638.57
2638.61
2639.55
2641.36
2644.02
2647.51
2651.83
2656.97
2662.95
2669.79
2677.54
2686.24
2695.96
2706.81
2718.78
2731.99
2746.52
2762.45
2779.88
2798.86
2819.42
2841.57
2865.28
2890.45
2916.97
2944.69
2973.42
3002.95
3033.02
3063.33
3093.54
3123.28
3152.14
3179.71
3205.56
3229.26
3250.39
3268.55
3283.37
3294.55
3301.83
3305.06
3304.12
3299.04
3289.85
3276.71
3259.84
3239.54
3216.17
3190.14
3161.9
3131.89
3100.58
3068.43
3035.89
3003.39
2971.33
2940.07
2909.89
2881.03
2853.65
2827.84
2803.65
2781.08
2760.12
2740.72
2722.82
2706.37
2691.24
2677.41
2664.81
2653.38
2643.09
2633.89
2625.75
2618.62
2612.5
2607.35
2603.15
2599.91
2597.61
2596.25
2595.85
2596.42
2597.96
2600.5
2604.08
2608.73
2614.52
2621.52
2629.78
2639.48
2650.57
2663.2
2677.45
2693.4
2711.11
2730.63
2751.98
2775.14
2800.08
2826.71
2854.89
2884.45
2915.17
2946.76
2978.91
3011.28
3043.48
3075.13
3105.83
3135.18
3162.77
3188.2
3211.12
3231.13
3247.9
3261.15
3270.63
3276.13
3277.51
3274.81
3268.09
3257.53
3243.36
3225.9
3205.54
3182.69
3157.83
3131.44
3103.96
3075.94
3047.86
3020.07
2992.93
2966.66
2941.46
2917.48
2894.77
2873.37
2853.31
2834.54
2817.04
2800.76
2785.66
2771.72
2758.85
2746.78
2735.71
2729.9
2722.3
2715.87
2710.5
2706.22
2703.04
2700.95
2699.9
2699.83
2700.85
2702.8
2705.59
2709.14
2713.44
2718.5
2724.38
2731.14
2738.95
2748.49
2759.22
2771.05
2784.14
2798.71
2814.94
2832.86
2852.52
2873.94
2897.06
2921.82
2948.1
2975.74
3004.56
3034.3
3064.7
3095.49
3126.37
3156.99
3187.06
3216.25
3244.22
3270.63
3295.13
3317.45
3337.32
3354.45
3368.61
3379.62
3387.3
3391.53
3392.26
3389.21
3382.61
3372.58
3359.26
3342.86
3323.65
3301.89
3277.91
3252.1
3224.89
3196.79
2680.26
2698.58
2718.49
2739.99
2763.03
2787.54
2813.48
2840.78
2869.38
2899.19
2930.05
2961.81
2994.29
3027.24
3060.42
3093.54
3126.25
3158.22
3189.05
3218.3
3245.59
3270.55
3292.73
3311.79
3327.43
3339.35
3347.37
3351.32
3351.14
3346.86
3338.58
3326.45
3310.66
3291.51
3269.28
3244.33
3217.04
3187.79
3156.92
3124.84
3091.93
3058.53
3024.99
2991.58
2958.62
2926.38
2895.07
2864.93
2836.13
2808.81
2783.11
2759.11
2736.9
2716.52
2698
2681.35
2666.54
2653.55
2642.3
2632.7
2624.65
2618.06
2612.87
2607.66
2604.48
2602.17
2600.77
2600.24
2600.5
2601.49
2603.28
2605.89
2609.3
2613.45
2618.29
2623.72
2629.67
2636.1
2643.84
2652.42
2662.17
2673.25
2685.92
2700.52
2717.19
2733.78
2750.17
2770.1
2792.01
2815.68
2840.94
2867.59
2895.4
2924.12
2953.47
2983.18
3012.98
3042.58
3071.67
3099.91
3126.96
3152.43
3175.96
3197.21
3215.86
3231.6
3244.17
3253.36
3258.98
3260.91
3259.07
3253.46
3244.14
3231.23
3214.87
3195.27
3172.7
3147.44
3119.83
3090.21
3058.96
3026.46
2993.1
2959.29
2925.42
2891.88
2859.02
2827.17
2796.62
2767.6