/*--------------------------------*- C++ -*----------------------------------*\
| =========                 |                                                 |
| \\      /  F ield         | OpenFOAM: The Open Source CFD Toolbox           |
|  \\    /   O peration     | Version:  3.0.1                                 |
|   \\  /    A nd           | Web:      www.OpenFOAM.org                      |
|    \\/     M anipulation  |                                                 |
\*---------------------------------------------------------------------------*/
FoamFile
{
    version     2.0;
    format      ascii;
    class       surfaceScalarField;
    location    "77.6";
    object      phi;
}
// * * * * * * * * * * * * * * * * * * * * * * * * * * * * * * * * * * * * * //

dimensions      [0 3 -1 0 0 0 0];

internalField   nonuniform List<scalar> 
42423
(
-2.90103e-06
2.02214e-06
-4.35432e-06
1.45329e-06
-5.27072e-06
9.16397e-07
-5.66532e-06
3.94598e-07
-5.46406e-06
-2.01259e-07
-4.73975e-06
-7.2432e-07
-3.39222e-06
-1.34753e-06
-1.4388e-06
-1.95343e-06
9.82302e-07
-2.42111e-06
4.13336e-06
-3.15107e-06
8.01231e-06
-3.87896e-06
1.24156e-05
-4.40331e-06
1.76646e-05
-5.24899e-06
2.3605e-05
-5.94048e-06
3.04437e-05
-6.83863e-06
3.81852e-05
-7.74162e-06
4.65365e-05
-8.35127e-06
5.58378e-05
-9.30136e-06
6.61245e-05
-1.02867e-05
7.70645e-05
-1.094e-05
8.89473e-05
-1.18829e-05
0.000101853
-1.29053e-05
0.000115376
-1.35237e-05
0.000129745
-1.43687e-05
0.000144859
-1.51146e-05
0.000160705
-1.58455e-05
0.000177348
-1.66438e-05
0.000194308
-1.69592e-05
0.000211778
-1.7471e-05
0.000229728
-1.795e-05
0.000247727
-1.79989e-05
0.000265799
-1.80721e-05
0.000283717
-1.79184e-05
0.000301315
-1.75984e-05
0.000318458
-1.71427e-05
0.000334715
-1.62571e-05
0.000349962
-1.52476e-05
0.000364022
-1.40597e-05
0.000376532
-1.25108e-05
0.00038736
-1.08277e-05
0.000396253
-8.89332e-06
0.000403016
-6.76317e-06
0.000407576
-4.55995e-06
0.000409715
-2.13936e-06
0.000409423
2.91842e-07
0.00040684
2.58333e-06
0.000401643
5.19667e-06
0.000394154
7.48929e-06
0.000384721
9.4324e-06
0.000373142
1.15786e-05
0.000359768
1.33738e-05
0.000344833
1.49353e-05
0.00032858
1.62526e-05
0.000311369
1.72108e-05
0.000293277
1.80928e-05
0.00027465
1.86261e-05
0.000255776
1.88747e-05
0.000236796
1.89801e-05
0.000217992
1.88038e-05
0.000199527
1.84647e-05
0.000181594
1.79333e-05
0.000164324
1.72695e-05
0.000147806
1.65178e-05
0.00013215
1.56562e-05
0.000117404
1.47457e-05
0.000103534
1.38709e-05
9.05442e-05
1.29893e-05
7.83557e-05
1.21885e-05
6.69574e-05
1.13983e-05
5.63017e-05
1.06557e-05
4.62103e-05
1.00914e-05
3.6546e-05
9.66439e-06
2.72459e-05
9.30001e-06
1.825e-05
8.99594e-06
9.58704e-06
8.66299e-06
1.48149e-06
8.10556e-06
-5.97354e-06
7.45504e-06
-1.2896e-05
6.92244e-06
-1.91473e-05
6.25131e-06
-2.48044e-05
5.6571e-06
-2.96563e-05
4.8519e-06
-3.36479e-05
3.99162e-06
-3.68548e-05
3.20694e-06
-3.92154e-05
2.36058e-06
-4.06844e-05
1.46905e-06
-4.1305e-05
6.20608e-07
-4.09337e-05
-3.71329e-07
-3.9652e-05
-1.28163e-06
-3.74689e-05
-2.18309e-06
-3.44619e-05
-3.00702e-06
-3.06558e-05
-3.8061e-06
-2.61281e-05
-4.52764e-06
-2.08412e-05
-5.28688e-06
-1.49573e-05
-5.88393e-06
-8.43153e-06
-6.52576e-06
-1.31344e-06
-7.11808e-06
6.45971e-06
-7.77315e-06
1.47811e-05
-8.32142e-06
2.36763e-05
-8.89517e-06
3.30761e-05
-9.39983e-06
4.3043e-05
-9.96682e-06
5.35896e-05
-1.05467e-05
6.4705e-05
-1.11153e-05
7.63596e-05
-1.16546e-05
8.85743e-05
-1.22147e-05
0.000101315
-1.27403e-05
0.000114556
-1.32417e-05
0.000128292
-1.37362e-05
0.000142383
-1.40903e-05
0.000156828
-1.44456e-05
0.000171522
-1.46944e-05
0.000186352
-1.48295e-05
0.000201224
-1.48718e-05
0.000215972
-1.4749e-05
0.00023049
-1.45177e-05
0.000244545
-1.40547e-05
0.000257961
-1.34161e-05
0.000270605
-1.26448e-05
0.000282215
-1.16095e-05
0.000292629
-1.0414e-05
0.000301679
-9.04986e-06
0.000309142
-7.46381e-06
0.000314941
-5.79886e-06
0.00031886
-3.91893e-06
0.000320849
-1.98934e-06
0.000320859
-9.62479e-09
0.000318849
2.00961e-06
0.000314708
4.14092e-06
0.000308523
6.18544e-06
0.000300449
8.07398e-06
0.000290587
9.86146e-06
0.000279093
1.14936e-05
0.000266146
1.29474e-05
0.000251961
1.41849e-05
0.000236767
1.51943e-05
0.000220801
1.59655e-05
0.000204289
1.65124e-05
0.000187432
1.68566e-05
0.000170467
1.69649e-05
0.000153525
1.69421e-05
0.000136916
1.66088e-05
0.00012078
1.61361e-05
0.000105326
1.54541e-05
9.06911e-05
1.46347e-05
7.69954e-05
1.36957e-05
6.43627e-05
1.26327e-05
5.2838e-05
1.15247e-05
4.24719e-05
1.03661e-05
3.32661e-05
9.20575e-06
2.52201e-05
8.046e-06
1.83224e-05
6.89777e-06
1.2456e-05
5.86634e-06
7.56427e-06
4.89173e-06
3.57381e-06
3.99044e-06
3.8488e-07
3.18892e-06
-2.03367e-06
2.41854e-06
-3.83324e-06
1.79956e-06
-5.06884e-06
1.23559e-06
-5.7219e-06
6.53052e-07
-5.93149e-06
2.09586e-07
-5.71639e-06
-2.15112e-07
-5.06003e-06
-6.56362e-07
-3.99346e-06
-1.06658e-06
-2.55459e-06
-1.43887e-06
-6.99849e-07
-1.85474e-06
1.49805e-06
-2.19791e-06
4.11273e-06
-2.61468e-06
7.08614e-06
-2.97341e-06
1.03679e-05
-3.28178e-06
1.39051e-05
-3.53715e-06
1.76423e-05
-3.73724e-06
2.15523e-05
-3.90998e-06
2.55432e-05
-3.99093e-06
2.95703e-05
-4.02713e-06
3.36434e-05
-4.07314e-06
3.78091e-05
-4.16565e-06
4.20668e-05
-4.2577e-06
4.65257e-05
-4.45891e-06
5.12621e-05
-4.73644e-06
5.63525e-05
-5.0904e-06
6.18571e-05
-5.50466e-06
6.78837e-05
-6.02664e-06
7.44829e-05
-6.59921e-06
8.17548e-05
-7.27195e-06
8.96716e-05
-7.91683e-06
9.83398e-05
-8.66827e-06
0.000107719
-9.37936e-06
0.000117859
-1.01396e-05
0.000128744
-1.08853e-05
0.000140415
-1.16713e-05
0.000152954
-1.25391e-05
0.000166332
-1.33784e-05
0.00018057
-1.42375e-05
0.000195611
-1.50417e-05
0.000211279
-1.56677e-05
0.000227471
-1.61926e-05
0.000243938
-1.6467e-05
0.000260399
-1.64607e-05
0.000276635
-1.62365e-05
0.00029228
-1.56455e-05
0.000307093
-1.48125e-05
0.000320765
-1.36725e-05
0.000332978
-1.22126e-05
0.000343474
-1.04971e-05
0.00035205
-8.5753e-06
0.000358529
-6.47947e-06
0.000362752
-4.22353e-06
0.000364628
-1.87595e-06
0.000364173
4.54901e-07
0.00036134
2.8331e-06
0.000356175
5.1652e-06
0.0003489
7.27424e-06
0.000339652
9.2479e-06
0.000328641
1.10111e-05
0.000316117
1.25241e-05
0.000302362
1.37547e-05
0.00028762
1.47415e-05
0.000272169
1.5451e-05
0.000256252
1.59173e-05
0.000240103
1.61487e-05
0.000223941
1.61617e-05
0.000207977
1.59641e-05
0.000192393
1.55845e-05
0.000177344
1.50488e-05
0.000162942
1.44019e-05
0.000149315
1.36274e-05
0.000136544
1.27709e-05
0.000124674
1.18694e-05
0.000113719
1.09548e-05
0.000103665
1.00548e-05
9.44343e-05
9.23027e-06
8.59628e-05
8.47141e-06
7.81507e-05
7.81213e-06
7.08876e-05
7.26307e-06
6.41073e-05
6.78025e-06
5.77475e-05
6.35973e-06
5.17625e-05
5.98502e-06
4.61782e-05
5.58426e-06
4.09368e-05
5.24137e-06
3.61055e-05
4.83131e-06
3.16726e-05
4.43286e-06
2.76465e-05
4.02607e-06
2.40729e-05
3.57359e-06
2.0981e-05
3.09189e-06
1.83337e-05
2.64726e-06
1.61043e-05
2.22945e-06
1.42272e-05
1.87706e-06
1.26761e-05
1.55107e-06
1.14277e-05
1.2484e-06
1.04517e-05
9.75951e-07
9.77863e-06
6.73096e-07
9.43591e-06
3.42714e-07
9.43496e-06
9.3511e-10
9.81474e-06
-3.79786e-07
1.06006e-05
-7.85873e-07
1.18397e-05
-1.23905e-06
1.35767e-05
-1.73701e-06
1.58906e-05
-2.31395e-06
1.88364e-05
-2.94586e-06
2.2468e-05
-3.63154e-06
2.6803e-05
-4.33505e-06
3.18982e-05
-5.09516e-06
3.78376e-05
-5.93949e-06
4.45983e-05
-6.76068e-06
5.22103e-05
-7.61202e-06
6.07096e-05
-8.49931e-06
7.01379e-05
-9.42842e-06
8.03957e-05
-1.02578e-05
9.14325e-05
-1.10369e-05
0.000103321
-1.18883e-05
0.000116052
-1.27316e-05
0.000129569
-1.35168e-05
0.000143813
-1.42439e-05
0.000158756
-1.49435e-05
0.000174361
-1.56048e-05
0.000190587
-1.62264e-05
0.000207371
-1.67845e-05
0.000224745
-1.7374e-05
0.000242637
-1.7892e-05
0.000260872
-1.82356e-05
0.000279142
-1.82698e-05
0.000297193
-1.80511e-05
0.000314801
-1.7608e-05
0.000331604
-1.68029e-05
0.000347225
-1.56218e-05
0.000361442
-1.42172e-05
0.000373697
-1.22545e-05
0.000383763
-1.00664e-05
0.000391143
-7.38052e-06
0.000394952
-3.80853e-06
0.00039461
3.41057e-07
0.000390933
3.67709e-06
0.000384834
6.09878e-06
0.000376872
7.96229e-06
0.000366735
1.01366e-05
0.000354809
1.19263e-05
0.00034132
1.3489e-05
0.000326538
1.47819e-05
0.000310944
1.55939e-05
0.000294689
1.62545e-05
0.000278209
1.64799e-05
0.000261627
1.65823e-05
0.000245061
1.65656e-05
0.000228812
1.62485e-05
0.000212931
1.58812e-05
0.000197485
1.54459e-05
0.000182661
1.48237e-05
0.000168456
1.42052e-05
0.000154992
1.34645e-05
0.00014226
1.27313e-05
0.000130285
1.1975e-05
0.00011914
1.1145e-05
0.000108807
1.03332e-05
9.92882e-05
9.51877e-06
9.06054e-05
8.68278e-06
8.27257e-05
7.87972e-06
7.56394e-05
7.08627e-06
6.93018e-05
6.3376e-06
6.36707e-05
5.63109e-06
5.87024e-05
4.96827e-06
5.43361e-05
4.36631e-06
5.05119e-05
3.8242e-06
4.71734e-05
3.33848e-06
4.426e-05
2.91341e-06
4.17216e-05
2.5384e-06
3.95115e-05
2.21005e-06
3.75915e-05
1.92002e-06
3.59417e-05
1.64982e-06
3.45511e-05
1.39063e-06
3.34143e-05
1.1368e-06
3.25493e-05
8.64972e-07
3.19677e-05
5.81649e-07
3.16991e-05
2.68578e-07
3.181e-05
-1.10893e-07
3.23417e-05
-5.31676e-07
3.33368e-05
-9.95113e-07
3.4822e-05
-1.48522e-06
3.68017e-05
-1.97972e-06
3.9365e-05
-2.56333e-06
4.25497e-05
-3.18467e-06
4.6307e-05
-3.7573e-06
5.07896e-05
-4.48256e-06
5.5939e-05
-5.14939e-06
6.18649e-05
-5.92591e-06
6.85554e-05
-6.69051e-06
7.59162e-05
-7.36085e-06
8.41077e-05
-8.19149e-06
9.30967e-05
-8.98897e-06
0.000102764
-9.66688e-06
0.000113287
-1.05235e-05
0.000124485
-1.11981e-05
0.000136503
-1.20175e-05
0.000149213
-1.27102e-05
0.000162418
-1.32048e-05
0.000176293
-1.38756e-05
0.000190722
-1.44282e-05
-1.49964e-05
-2.92119e-06
4.04295e-06
-4.37596e-06
2.90805e-06
-5.29242e-06
1.83285e-06
-5.68551e-06
7.87685e-07
-5.48707e-06
-3.99707e-07
-4.76481e-06
-1.4466e-06
-3.41702e-06
-2.69533e-06
-1.46581e-06
-3.90465e-06
9.51005e-07
-4.83794e-06
4.10675e-06
-6.30684e-06
7.98603e-06
-7.75826e-06
1.23912e-05
-8.8085e-06
1.7636e-05
-1.04939e-05
2.35654e-05
-1.18698e-05
3.04032e-05
-1.36765e-05
3.81454e-05
-1.54838e-05
4.64945e-05
-1.67005e-05
5.57967e-05
-1.86037e-05
6.60848e-05
-2.05749e-05
7.70242e-05
-2.18795e-05
8.89166e-05
-2.37755e-05
0.000101826
-2.58146e-05
0.000115338
-2.70358e-05
0.000129717
-2.87479e-05
0.000144834
-3.02325e-05
0.000160677
-3.16883e-05
0.000177328
-3.32955e-05
0.000194288
-3.39188e-05
0.00021176
-3.49434e-05
0.000229722
-3.59125e-05
0.000247733
-3.60102e-05
0.000265808
-3.61467e-05
0.000283732
-3.58435e-05
0.000301338
-3.52039e-05
0.00031849
-3.42957e-05
0.000334762
-3.25292e-05
0.000350028
-3.05136e-05
0.000364086
-2.81182e-05
0.000376606
-2.5031e-05
0.000387442
-2.16645e-05
0.000396341
-1.77918e-05
0.000403122
-1.35444e-05
0.000407679
-9.11775e-06
0.000409824
-4.28445e-06
0.000409537
5.78463e-07
0.00040695
5.17045e-06
0.000401757
1.03887e-05
0.000394271
1.49755e-05
0.000384833
1.88701e-05
0.000373245
2.31659e-05
0.000359865
2.67536e-05
0.00034492
2.98807e-05
0.000328657
3.25155e-05
0.000311435
3.4432e-05
0.000293332
3.61967e-05
0.000274694
3.7263e-05
0.000255809
3.77598e-05
0.000236819
3.79704e-05
0.000218005
3.76171e-05
0.000199532
3.69382e-05
0.000181591
3.58745e-05
0.000164314
3.45459e-05
0.000147791
3.30411e-05
0.00013213
3.13175e-05
0.00011738
2.9495e-05
0.000103507
2.77446e-05
9.05168e-05
2.5979e-05
7.83268e-05
2.43785e-05
6.69285e-05
2.27966e-05
5.62767e-05
2.13075e-05
4.61894e-05
2.01786e-05
3.65321e-05
1.93217e-05
2.72462e-05
1.85859e-05
1.82669e-05
1.79753e-05
9.61328e-06
1.73166e-05
1.51017e-06
1.62087e-05
-5.91622e-06
1.48814e-05
-1.28249e-05
1.38312e-05
-1.906e-05
1.24864e-05
-2.46984e-05
1.12955e-05
-2.95334e-05
9.68698e-06
-3.35083e-05
7.96654e-06
-3.66979e-05
6.39652e-06
-3.90476e-05
4.7103e-06
-4.04999e-05
2.92144e-06
-4.11043e-05
1.22505e-06
-4.07263e-05
-7.4931e-07
-3.94358e-05
-2.57217e-06
-3.72408e-05
-4.37809e-06
-3.42315e-05
-6.01627e-06
-3.04181e-05
-7.61949e-06
-2.58888e-05
-9.05687e-06
-2.06458e-05
-1.05299e-05
-1.47077e-05
-1.18221e-05
-8.16128e-06
-1.30722e-05
-1.03018e-06
-1.42492e-05
6.72789e-06
-1.55312e-05
1.50461e-05
-1.66397e-05
2.3919e-05
-1.7768e-05
3.33373e-05
-1.88182e-05
4.3302e-05
-1.99316e-05
5.38767e-05
-2.11214e-05
6.49534e-05
-2.21921e-05
7.6615e-05
-2.33162e-05
8.88313e-05
-2.44312e-05
0.000101567
-2.54756e-05
0.00011481
-2.64856e-05
0.000128519
-2.74446e-05
0.000142629
-2.82009e-05
0.000157076
-2.88923e-05
0.000171775
-2.93938e-05
0.000186616
-2.96701e-05
0.000201493
-2.97488e-05
0.000216245
-2.9502e-05
0.000230781
-2.90531e-05
0.000244831
-2.81048e-05
0.00025826
-2.68462e-05
0.000270917
-2.53016e-05
0.00028252
-2.32122e-05
0.000292944
-2.08382e-05
0.000302
-1.81066e-05
0.000309484
-1.49475e-05
0.000315266
-1.1581e-05
0.000319212
-7.8655e-06
0.000321227
-4.00437e-06
0.000321214
3.1675e-09
0.000319156
4.06787e-06
0.000315015
8.28145e-06
0.000308856
1.23446e-05
0.000300806
1.61242e-05
0.000290935
1.9732e-05
0.000279419
2.30094e-05
0.000266507
2.58593e-05
0.000252259
2.84324e-05
0.000237069
3.03843e-05
0.000221064
3.19704e-05
0.000204535
3.30416e-05
0.000187671
3.37203e-05
0.000170674
3.39617e-05
0.000153738
3.3878e-05
0.000137101
3.32458e-05
0.00012099
3.2248e-05
0.000105458
3.09857e-05
9.07945e-05
2.92982e-05
7.70783e-05
2.7412e-05
6.44119e-05
2.52991e-05
5.28742e-05
2.30623e-05
4.24844e-05
2.07559e-05
3.32724e-05
1.84178e-05
2.52114e-05
1.6107e-05
1.82904e-05
1.38188e-05
1.24063e-05
1.17504e-05
7.50871e-06
9.78932e-06
3.48999e-06
8.00914e-06
2.93108e-07
6.38578e-06
-2.13455e-06
4.84618e-06
-3.95676e-06
3.62176e-06
-5.20324e-06
2.48205e-06
-5.8995e-06
1.3493e-06
-6.07776e-06
3.87836e-07
-5.85598e-06
-4.36906e-07
-5.20801e-06
-1.30434e-06
-4.19925e-06
-2.07534e-06
-2.73753e-06
-2.9006e-06
-9.02792e-07
-3.68949e-06
1.29448e-06
-4.39518e-06
3.91329e-06
-5.23349e-06
6.88062e-06
-5.94075e-06
1.01726e-05
-6.5738e-06
1.37201e-05
-7.08467e-06
1.74551e-05
-7.47222e-06
2.13639e-05
-7.81873e-06
2.5347e-05
-7.97412e-06
2.9391e-05
-8.07113e-06
3.34723e-05
-8.15442e-06
3.76334e-05
-8.32676e-06
4.18997e-05
-8.52402e-06
4.63806e-05
-8.93986e-06
5.1106e-05
-9.4619e-06
5.61774e-05
-1.01619e-05
6.17006e-05
-1.10279e-05
6.77373e-05
-1.20634e-05
7.43365e-05
-1.31985e-05
8.16212e-05
-1.45567e-05
8.95431e-05
-1.58388e-05
9.82068e-05
-1.73321e-05
0.00010759
-1.87631e-05
0.000117724
-2.02729e-05
0.000128617
-2.17791e-05
0.000140296
-2.33507e-05
0.000152833
-2.50755e-05
0.000166213
-2.67591e-05
0.000180453
-2.84781e-05
0.000195497
-3.00854e-05
0.000211187
-3.13586e-05
0.000227391
-3.23967e-05
0.000243868
-3.29441e-05
0.000260346
-3.29391e-05
0.000276591
-3.24817e-05
0.000292252
-3.13067e-05
0.000307079
-2.96401e-05
0.00032075
-2.73434e-05
0.000332979
-2.44419e-05
0.000343504
-2.10221e-05
0.000352074
-1.71461e-05
0.000358544
-1.29497e-05
0.000362763
-8.44232e-06
0.000364634
-3.74767e-06
0.000364182
9.07095e-07
0.000361354
5.66034e-06
0.000356168
1.03508e-05
0.000348875
1.45677e-05
0.000339622
1.85009e-05
0.000328599
2.20329e-05
0.000316064
2.50598e-05
0.000302297
2.75211e-05
0.000287547
2.94912e-05
0.000272083
3.0915e-05
0.00025615
3.18498e-05
0.00023999
3.23089e-05
0.000223827
3.23246e-05
0.000207847
3.19437e-05
0.000192245
3.1187e-05
0.000177185
3.0108e-05
0.000162784
2.88034e-05
0.000149157
2.72539e-05
0.00013638
2.55478e-05
0.000124509
2.37406e-05
0.000113555
2.19091e-05
0.0001035
2.01098e-05
9.42797e-05
1.84501e-05
8.58203e-05
1.69307e-05
7.80066e-05
1.56258e-05
7.07409e-05
1.45288e-05
6.39631e-05
1.3558e-05
5.7602e-05
1.27208e-05
5.16174e-05
1.19696e-05
4.6037e-05
1.11646e-05
4.08005e-05
1.04778e-05
3.59583e-05
9.67346e-06
3.15231e-05
8.86804e-06
2.75128e-05
8.03634e-06
2.39409e-05
7.14544e-06
2.08444e-05
6.18836e-06
1.82012e-05
5.29043e-06
1.59775e-05
4.45307e-06
1.41063e-05
3.74828e-06
1.25599e-05
3.09741e-06
1.13126e-05
2.4957e-06
1.03359e-05
1.95267e-06
9.66948e-06
1.33949e-06
9.3233e-06
6.88879e-07
9.31553e-06
8.69192e-09
9.69338e-06
-7.57653e-07
1.04823e-05
-1.57483e-06
1.17299e-05
-2.48668e-06
1.347e-05
-3.47709e-06
1.57747e-05
-4.61873e-06
1.87105e-05
-5.88163e-06
2.234e-05
-7.26106e-06
2.66824e-05
-8.67751e-06
3.17853e-05
-1.01981e-05
3.77279e-05
-1.18822e-05
4.44862e-05
-1.3519e-05
5.20882e-05
-1.52141e-05
6.05901e-05
-1.70013e-05
7.00103e-05
-1.88488e-05
8.02532e-05
-2.05007e-05
9.12982e-05
-2.2082e-05
0.000103201
-2.37914e-05
0.000115934
-2.54643e-05
0.000129458
-2.7041e-05
0.00014371
-2.84967e-05
0.000158665
-2.98979e-05
0.000174281
-3.12216e-05
0.000190515
-3.24607e-05
0.000207306
-3.35757e-05
0.000224683
-3.47511e-05
0.00024258
-3.57894e-05
0.000260819
-3.64751e-05
0.000279095
-3.65458e-05
0.000297152
-3.61082e-05
0.00031476
-3.52164e-05
0.000331559
-3.36028e-05
0.000347174
-3.12366e-05
0.000361345
-2.83886e-05
0.000373528
-2.44378e-05
0.000383452
-1.99904e-05
0.000390635
-1.45637e-05
0.000394414
-7.58812e-06
0.00039418
5.74842e-07
0.000390699
7.15742e-06
0.0003848
1.19977e-05
0.000376911
1.5851e-05
0.00036678
2.02679e-05
0.000354848
2.38576e-05
0.000341355
2.69823e-05
0.000326565
2.95717e-05
0.000310962
3.11967e-05
0.0002947
3.25162e-05
0.000278213
3.29663e-05
0.000261625
3.31704e-05
0.000245054
3.31365e-05
0.000228801
3.25016e-05
0.000212915
3.17665e-05
0.000197466
3.08952e-05
0.000182639
2.96503e-05
0.000168432
2.84128e-05
0.000154965
2.6931e-05
0.000142232
2.54642e-05
0.000130256
2.39513e-05
0.00011911
2.22908e-05
0.000108776
2.0667e-05
9.92572e-05
1.90377e-05
9.05746e-05
1.73654e-05
8.26955e-05
1.57588e-05
7.56102e-05
1.41716e-05
6.92738e-05
1.2674e-05
6.36442e-05
1.12607e-05
5.86775e-05
9.93491e-06
5.43132e-05
8.73061e-06
5.04912e-05
7.64625e-06
4.71544e-05
6.6752e-06
4.42424e-05
5.82541e-06
4.1705e-05
5.07582e-06
3.94944e-05
4.42062e-06
3.75744e-05
3.84008e-06
3.59246e-05
3.29961e-06
3.45319e-05
2.78328e-06
3.33934e-05
2.27536e-06
3.25258e-05
1.73255e-06
3.19397e-05
1.16772e-06
3.16667e-05
5.41618e-07
3.17712e-05
-2.15347e-07
3.22923e-05
-1.05283e-06
3.32748e-05
-1.9776e-06
3.4757e-05
-2.96745e-06
3.67383e-05
-3.96097e-06
3.93037e-05
-5.12878e-06
4.24916e-05
-6.37252e-06
4.62541e-05
-7.5198e-06
5.07329e-05
-8.96139e-06
5.58806e-05
-1.0297e-05
6.18126e-05
-1.18579e-05
6.8507e-05
-1.33849e-05
7.58665e-05
-1.47204e-05
8.40588e-05
-1.63838e-05
9.30499e-05
-1.798e-05
0.000102718
-1.93352e-05
0.000113238
-2.10435e-05
0.000124436
-2.23956e-05
0.000136462
-2.40436e-05
0.000149177
-2.54255e-05
0.00016238
-2.64078e-05
0.00017626
-2.77558e-05
0.000190701
-2.8869e-05
-2.99987e-05
-2.96178e-06
6.06136e-06
-4.41882e-06
4.36508e-06
-5.33515e-06
2.74917e-06
-5.72602e-06
1.17854e-06
-5.53232e-06
-5.93408e-07
-4.81132e-06
-2.16761e-06
-3.46287e-06
-4.04379e-06
-1.52038e-06
-5.84716e-06
9.13882e-07
-7.27222e-06
4.07115e-06
-9.46413e-06
7.9492e-06
-1.16363e-05
1.23604e-05
-1.32197e-05
1.76075e-05
-1.57411e-05
2.35436e-05
-1.78059e-05
3.03804e-05
-2.05134e-05
3.81163e-05
-2.32198e-05
4.64633e-05
-2.50476e-05
5.576e-05
-2.79004e-05
6.60433e-05
-3.08583e-05
7.69866e-05
-3.28228e-05
8.88733e-05
-3.56624e-05
0.000101783
-3.8724e-05
0.000115295
-4.05483e-05
0.000129667
-4.31202e-05
0.00014479
-4.53555e-05
0.000160635
-4.75339e-05
0.000177294
-4.99544e-05
0.000194255
-5.08801e-05
0.000211737
-5.24253e-05
0.00022971
-5.38864e-05
0.000247722
-5.40226e-05
0.000265808
-5.42323e-05
0.000283748
-5.37845e-05
0.000301371
-5.28267e-05
0.000318548
-5.14732e-05
0.000334832
-4.88133e-05
0.000350109
-4.57914e-05
0.000364194
-4.22034e-05
0.000376723
-3.75596e-05
0.000387573
-3.25153e-05
0.000396484
-2.6703e-05
0.000403265
-2.03251e-05
0.000407842
-1.36956e-05
0.000410003
-6.44581e-06
0.000409697
8.84047e-07
0.000407102
7.76539e-06
0.000401922
1.55689e-05
0.000394433
2.24642e-05
0.000384987
2.8316e-05
0.000373385
3.47673e-05
0.000359987
4.01519e-05
0.000345022
4.48453e-05
0.000328739
4.87989e-05
0.000311497
5.16738e-05
0.000293372
5.4321e-05
0.000274716
5.59197e-05
0.000255812
5.66632e-05
0.000236805
5.6977e-05
0.000217978
5.64449e-05
0.000199492
5.5424e-05
0.00018154
5.38258e-05
0.000164256
5.18302e-05
0.000147727
4.95702e-05
0.000132062
4.69819e-05
0.000117313
4.42447e-05
0.000103441
4.16161e-05
9.04549e-05
3.89654e-05
7.82704e-05
3.6563e-05
6.68795e-05
3.41875e-05
5.62387e-05
3.19484e-05
4.61687e-05
3.02486e-05
3.65339e-05
2.89565e-05
2.72769e-05
2.78429e-05
1.8323e-05
2.69292e-05
9.70303e-06
2.59366e-05
1.60513e-06
2.43066e-05
-5.77808e-06
2.22647e-05
-1.26666e-05
2.07197e-05
-1.8875e-05
1.86948e-05
-2.44848e-05
1.69053e-05
-2.92912e-05
1.44934e-05
-3.3231e-05
1.19064e-05
-3.63878e-05
9.55329e-06
-3.87119e-05
7.03447e-06
-4.01464e-05
4.35597e-06
-4.07355e-05
1.81418e-06
-4.034e-05
-1.14485e-06
-3.90347e-05
-3.87746e-06
-3.68333e-05
-6.57938e-06
-3.38108e-05
-9.03883e-06
-3.00165e-05
-1.14137e-05
-2.54611e-05
-1.36122e-05
-2.02256e-05
-1.57654e-05
-1.4355e-05
-1.76927e-05
-7.75661e-06
-1.96705e-05
-5.79049e-07
-2.14267e-05
7.19105e-06
-2.33013e-05
1.55148e-05
-2.49634e-05
2.43617e-05
-2.66149e-05
3.37836e-05
-2.82401e-05
4.37569e-05
-2.99048e-05
5.42856e-05
-3.16502e-05
6.54027e-05
-3.33092e-05
7.70705e-05
-3.49841e-05
8.9276e-05
-3.66368e-05
0.000102011
-3.82107e-05
0.000115257
-3.97321e-05
0.000128943
-4.11307e-05
0.000143077
-4.23344e-05
0.000157526
-4.33419e-05
0.000172214
-4.4082e-05
0.000187071
-4.45264e-05
0.000201965
-4.46434e-05
0.00021673
-4.42669e-05
0.000231227
-4.35504e-05
0.000245311
-4.21893e-05
0.000258799
-4.03343e-05
0.000271409
-3.79114e-05
0.000283045
-3.48486e-05
0.000293507
-3.12995e-05
0.000302522
-2.71217e-05
0.000310031
-2.24568e-05
0.000315828
-1.73783e-05
0.000319802
-1.18401e-05
0.000321807
-6.00864e-06
0.000321796
1.35106e-08
0.000319704
6.15982e-06
0.000315542
1.2443e-05
0.00030943
1.84567e-05
0.000301348
2.42064e-05
0.000291466
2.9614e-05
0.00027992
3.45554e-05
0.000266921
3.88583e-05
0.000252709
4.26442e-05
0.000237567
4.55263e-05
0.000221504
4.80332e-05
0.000204946
4.95991e-05
0.000188101
5.05658e-05
0.000171005
5.10574e-05
0.000154117
5.07654e-05
0.000137403
4.99602e-05
0.000121243
4.84081e-05
0.000105675
4.65539e-05
9.09751e-05
4.39976e-05
7.72265e-05
4.11605e-05
6.45197e-05
3.80059e-05
5.29475e-05
3.46345e-05
4.25232e-05
3.11802e-05
3.32839e-05
2.7657e-05
2.51949e-05
2.4196e-05
1.8248e-05
2.07657e-05
1.23276e-05
1.76708e-05
7.41265e-06
1.47042e-05
3.36727e-06
1.20545e-05
1.46625e-07
9.6064e-06
-2.32788e-06
7.32066e-06
-4.18612e-06
5.47999e-06
-5.42943e-06
3.72535e-06
-6.16201e-06
2.08186e-06
-6.39242e-06
6.18231e-07
-6.17652e-06
-6.52811e-07
-5.56668e-06
-1.91419e-06
-4.53744e-06
-3.1046e-06
-3.09523e-06
-4.34281e-06
-1.28929e-06
-5.49543e-06
9.19388e-07
-6.60386e-06
3.53929e-06
-7.8534e-06
6.5151e-06
-8.91656e-06
9.8088e-06
-9.86751e-06
1.33627e-05
-1.06386e-05
1.71148e-05
-1.12243e-05
2.10403e-05
-1.17443e-05
2.503e-05
-1.19638e-05
2.90762e-05
-1.21173e-05
3.31593e-05
-1.22375e-05
3.73097e-05
-1.24772e-05
4.15727e-05
-1.27871e-05
4.60471e-05
-1.34142e-05
5.07924e-05
-1.42072e-05
5.58703e-05
-1.52399e-05
6.14104e-05
-1.6568e-05
6.74646e-05
-1.81177e-05
7.40695e-05
-1.98035e-05
8.13278e-05
-2.18151e-05
8.9269e-05
-2.37801e-05
9.79353e-05
-2.59986e-05
0.000107322
-2.81504e-05
0.000117454
-3.04043e-05
0.000128339
-3.26642e-05
0.00014002
-3.50325e-05
0.000152563
-3.76182e-05
0.000165946
-4.0143e-05
0.000180193
-4.27253e-05
0.000195249
-4.51414e-05
0.000210956
-4.70658e-05
0.000227187
-4.86283e-05
0.000243683
-4.94404e-05
0.000260185
-4.9441e-05
0.000276457
-4.87535e-05
0.000292143
-4.69937e-05
0.000306999
-4.44958e-05
0.000320689
-4.1034e-05
0.000332926
-3.66795e-05
0.000343472
-3.15684e-05
0.000352072
-2.57454e-05
0.00035855
-1.94281e-05
0.000362764
-1.26563e-05
0.000364634
-5.61885e-06
0.000364149
1.39218e-06
0.000361306
8.50345e-06
0.000356133
1.55238e-05
0.000348832
2.18682e-05
0.000339547
2.77852e-05
0.000328501
3.3079e-05
0.00031594
3.76205e-05
0.000302145
4.13163e-05
0.000287365
4.42706e-05
0.00027188
4.64e-05
0.000255929
4.7801e-05
0.000239745
4.8493e-05
0.000223562
4.85073e-05
0.000207586
4.79191e-05
0.000191964
4.68091e-05
0.00017689
4.51818e-05
0.000162478
4.32153e-05
0.000148848
4.08841e-05
0.000136069
3.83271e-05
0.000124192
3.56172e-05
0.000113237
3.28644e-05
0.000103187
3.01597e-05
9.39751e-05
2.76615e-05
8.55301e-05
2.53757e-05
7.77323e-05
2.34235e-05
7.04738e-05
2.17873e-05
6.36943e-05
2.03374e-05
5.73357e-05
1.90794e-05
5.13569e-05
1.79484e-05
4.57791e-05
1.67423e-05
4.05432e-05
1.57138e-05
3.57106e-05
1.45061e-05
3.12679e-05
1.33107e-05
2.72558e-05
1.20483e-05
2.3701e-05
1.07003e-05
2.06137e-05
9.27566e-06
1.7971e-05
7.93306e-06
1.57512e-05
6.67289e-06
1.38833e-05
5.61616e-06
1.23378e-05
4.64283e-06
1.10866e-05
3.7469e-06
1.01141e-05
2.92516e-06
9.45119e-06
2.00239e-06
9.10163e-06
1.03842e-06
9.09325e-06
1.70579e-08
9.47034e-06
-1.13475e-06
1.02514e-05
-2.35591e-06
1.14913e-05
-3.72663e-06
1.3226e-05
-5.21178e-06
1.55319e-05
-6.92464e-06
1.84682e-05
-8.81797e-06
2.20887e-05
-1.08815e-05
2.64283e-05
-1.30172e-05
3.15389e-05
-1.53088e-05
3.74793e-05
-1.78226e-05
4.42419e-05
-2.02817e-05
5.1852e-05
-2.28242e-05
6.03473e-05
-2.54967e-05
6.97452e-05
-2.82469e-05
7.99839e-05
-3.07395e-05
9.10403e-05
-3.31385e-05
0.000102962
-3.57134e-05
0.000115724
-3.8226e-05
0.00012927
-4.05875e-05
0.000143539
-4.27658e-05
0.000158512
-4.48712e-05
0.000174145
-4.68549e-05
0.000190398
-4.87136e-05
0.000207211
-5.03896e-05
0.000224607
-5.21467e-05
0.000242519
-5.37024e-05
0.000260774
-5.47298e-05
0.000279059
-5.48317e-05
0.000297121
-5.417e-05
0.000314731
-5.28267e-05
0.000331518
-5.03902e-05
0.000347098
-4.68166e-05
0.000361205
-4.24959e-05
0.000373236
-3.64688e-05
0.000382877
-2.96316e-05
0.000389552
-2.12396e-05
0.000392933
-1.09692e-05
0.000392948
5.59116e-07
0.000390196
9.90972e-06
0.000384781
1.74125e-05
0.000376994
2.36377e-05
0.000366865
3.03959e-05
0.000354925
3.57982e-05
0.000341401
4.05052e-05
0.000326608
4.43647e-05
0.00031099
4.68144e-05
0.000294712
4.87945e-05
0.00027821
4.94676e-05
0.00026161
4.97711e-05
0.000245028
4.97179e-05
0.000228766
4.87637e-05
0.000212873
4.76593e-05
0.000197417
4.63507e-05
0.000182586
4.44819e-05
0.000168374
4.26244e-05
0.000154904
4.04007e-05
0.000142169
3.81995e-05
0.000130191
3.59292e-05
0.000119044
3.34376e-05
0.00010871
3.1001e-05
9.91917e-05
2.85562e-05
9.05102e-05
2.60468e-05
8.2633e-05
2.3636e-05
7.55503e-05
2.12543e-05
6.9217e-05
1.90072e-05
6.35913e-05
1.68865e-05
5.86288e-05
1.48974e-05
5.42687e-05
1.30907e-05
5.0451e-05
1.1464e-05
4.71184e-05
1.00079e-05
4.42102e-05
8.73355e-06
4.16755e-05
7.61054e-06
3.94675e-05
6.62864e-06
3.75487e-05
5.75883e-06
3.58989e-05
4.94948e-06
3.4505e-05
4.17713e-06
3.33643e-05
3.41603e-06
3.24936e-05
2.60327e-06
3.19026e-05
1.75868e-06
3.16236e-05
8.20666e-07
3.17223e-05
-3.14016e-07
3.22384e-05
-1.56897e-06
3.32147e-05
-2.95384e-06
3.46936e-05
-4.44638e-06
3.66703e-05
-5.93769e-06
3.92359e-05
-7.69436e-06
4.2423e-05
-9.55964e-06
4.61815e-05
-1.12782e-05
5.06607e-05
-1.34407e-05
5.58082e-05
-1.54445e-05
6.17359e-05
-1.77856e-05
6.84297e-05
-2.00787e-05
7.57898e-05
-2.20805e-05
8.39806e-05
-2.45746e-05
9.29697e-05
-2.69691e-05
0.000102634
-2.89991e-05
0.000113157
-3.15664e-05
0.000124359
-3.35984e-05
0.000136387
-3.60708e-05
0.000149102
-3.81412e-05
0.000162312
-3.96178e-05
0.000176206
-4.16498e-05
0.000190661
-4.33239e-05
-4.50116e-05
-3.02393e-06
8.07749e-06
-4.484e-06
5.82515e-06
-5.40017e-06
3.66533e-06
-5.78878e-06
1.56715e-06
-5.60441e-06
-7.77787e-07
-4.88551e-06
-2.88652e-06
-3.53176e-06
-5.39756e-06
-1.61974e-06
-7.75919e-06
8.54682e-07
-9.74666e-06
4.0193e-06
-1.26288e-05
7.89911e-06
-1.55162e-05
1.23262e-05
-1.76468e-05
1.75785e-05
-2.09934e-05
2.35219e-05
-2.37494e-05
3.03537e-05
-2.73452e-05
3.80743e-05
-3.09404e-05
4.64213e-05
-3.33946e-05
5.57158e-05
-3.7195e-05
6.59908e-05
-4.11334e-05
7.69267e-05
-4.37589e-05
8.88117e-05
-4.75474e-05
0.000101716
-5.16285e-05
0.000115227
-5.4059e-05
0.0001296
-5.74936e-05
0.000144721
-6.04773e-05
0.000160575
-6.33872e-05
0.00017724
-6.66196e-05
0.000194207
-6.78473e-05
0.000211699
-6.99177e-05
0.000229688
-7.1876e-05
0.00024771
-7.20446e-05
0.000265811
-7.2334e-05
0.000283771
-7.17444e-05
0.000301414
-7.04705e-05
0.000318624
-6.86833e-05
0.000334927
-6.51169e-05
0.00035023
-6.10939e-05
0.000364349
-5.6323e-05
0.000376895
-5.01061e-05
0.000387759
-4.33799e-05
0.000396687
-3.56305e-05
0.000403478
-2.71166e-05
0.00040808
-1.82973e-05
0.000410248
-8.61433e-06
0.000409928
1.20396e-06
0.000407337
1.03558e-05
0.000402176
2.07292e-05
0.00039468
2.99601e-05
0.000385217
3.77786e-05
0.000373593
4.63916e-05
0.000360165
5.35793e-05
0.000345174
5.98363e-05
0.00032886
6.51127e-05
0.000311588
6.89462e-05
0.000293433
7.24761e-05
0.000274746
7.46059e-05
0.000255815
7.55939e-05
0.000236784
7.60084e-05
0.000217935
7.52941e-05
0.000199431
7.39281e-05
0.000181464
7.17921e-05
0.000164168
6.91263e-05
0.00014763
6.61077e-05
0.000131961
6.26509e-05
0.000117211
5.89954e-05
0.000103342
5.54844e-05
9.03624e-05
5.19453e-05
7.81855e-05
4.87399e-05
6.68053e-05
4.55677e-05
5.6182e-05
4.25717e-05
4.61369e-05
4.02938e-05
3.65352e-05
3.85581e-05
2.73195e-05
3.70586e-05
1.84025e-05
3.58463e-05
9.82687e-06
3.45122e-05
1.73981e-06
3.23937e-05
-5.57443e-06
2.95789e-05
-1.24342e-05
2.75794e-05
-1.86018e-05
2.48625e-05
-2.41689e-05
2.24725e-05
-2.89323e-05
1.92568e-05
-3.28252e-05
1.57993e-05
-3.59338e-05
1.26619e-05
-3.82103e-05
9.31096e-06
-3.96078e-05
5.75349e-06
-4.01798e-05
2.38619e-06
-3.97638e-05
-1.56078e-06
-3.84412e-05
-5.20006e-06
-3.62263e-05
-8.7943e-06
-3.31931e-05
-1.2072e-05
-2.93851e-05
-1.52217e-05
-2.48293e-05
-1.81681e-05
-1.9558e-05
-2.10366e-05
-1.3698e-05
-2.35527e-05
-7.17117e-06
-2.61973e-05
1.07274e-07
-2.87052e-05
7.88722e-06
-3.10813e-05
1.61839e-05
-3.32601e-05
2.50504e-05
-3.54815e-05
3.4477e-05
-3.76667e-05
4.44446e-05
-3.98725e-05
5.49621e-05
-4.21677e-05
6.60977e-05
-4.44448e-05
7.77258e-05
-4.66122e-05
8.99311e-05
-4.88422e-05
0.000102663
-5.09427e-05
0.00011595
-5.30188e-05
0.000129604
-5.47848e-05
0.000143754
-5.64851e-05
0.000158197
-5.77845e-05
0.00017288
-5.87658e-05
0.000187738
-5.93846e-05
0.000202635
-5.95404e-05
0.000217439
-5.90708e-05
0.000231925
-5.80369e-05
0.000246035
-5.62994e-05
0.000259486
-5.37847e-05
0.000272141
-5.05667e-05
0.00028381
-4.65179e-05
0.000294231
-4.17207e-05
0.0003033
-3.61907e-05
0.00031083
-2.99867e-05
0.000316617
-2.31655e-05