/*--------------------------------*- C++ -*----------------------------------*\
| =========                 |                                                 |
| \\      /  F ield         | OpenFOAM: The Open Source CFD Toolbox           |
|  \\    /   O peration     | Version:  3.0.1                                 |
|   \\  /    A nd           | Web:      www.OpenFOAM.org                      |
|    \\/     M anipulation  |                                                 |
\*---------------------------------------------------------------------------*/
FoamFile
{
    version     2.0;
    format      ascii;
    class       volVectorField;
    location    "13.8";
    object      U;
}
// * * * * * * * * * * * * * * * * * * * * * * * * * * * * * * * * * * * * * //

dimensions      [0 1 -1 0 0 0 0];

internalField   nonuniform List<vector> 
21420
(
(-0.151147 0.00030592 0)
(-0.153178 0.000225744 0)
(-0.155097 0.000147723 0)
(-0.156206 7.34464e-05 0)
(-0.156574 1.29222e-06 0)
(-0.156184 -7.3978e-05 0)
(-0.15505 -0.000149603 0)
(-0.153166 -0.00022516 0)
(-0.150515 -0.000301551 0)
(-0.147086 -0.00038011 0)
(-0.142864 -0.000459067 0)
(-0.137834 -0.00053924 0)
(-0.131977 -0.000624061 0)
(-0.125272 -0.000707604 0)
(-0.117703 -0.000797214 0)
(-0.109256 -0.000882979 0)
(-0.0999265 -0.000967448 0)
(-0.0897193 -0.00105982 0)
(-0.0786656 -0.00113724 0)
(-0.0668156 -0.00120781 0)
(-0.0542303 -0.0012869 0)
(-0.040996 -0.00133967 0)
(-0.027217 -0.00138123 0)
(-0.0130156 -0.00143275 0)
(0.00150735 -0.0014444 0)
(0.0162132 -0.00146973 0)
(0.0309365 -0.00145797 0)
(0.0455368 -0.00143079 0)
(0.0598604 -0.00140766 0)
(0.0737605 -0.00135222 0)
(0.0870824 -0.00128286 0)
(0.0996819 -0.00121271 0)
(0.111429 -0.00111903 0)
(0.122207 -0.00102209 0)
(0.131909 -0.000909217 0)
(0.140447 -0.000789633 0)
(0.14775 -0.000665124 0)
(0.153745 -0.000535905 0)
(0.158413 -0.000400369 0)
(0.16168 -0.000264827 0)
(0.163553 -0.000123492 0)
(0.164007 8.10201e-06 0)
(0.16312 0.000151634 0)
(0.160783 0.000305699 0)
(0.157028 0.000446044 0)
(0.151839 0.000591184 0)
(0.145246 0.000735357 0)
(0.13722 0.00086042 0)
(0.127954 0.000987167 0)
(0.11744 0.00110653 0)
(0.105851 0.00119717 0)
(0.0933671 0.0012834 0)
(0.0800178 0.00134584 0)
(0.0662065 0.00139079 0)
(0.0518217 0.0014289 0)
(0.0373471 0.00143591 0)
(0.02288 0.00143303 0)
(0.0085435 0.00141944 0)
(-0.00533759 0.00138414 0)
(-0.0190369 0.00134635 0)
(-0.0323364 0.00129324 0)
(-0.0451615 0.0012394 0)
(-0.0574291 0.0011762 0)
(-0.0690295 0.00110503 0)
(-0.0800146 0.00103349 0)
(-0.0902206 0.000959757 0)
(-0.0995544 0.000871815 0)
(-0.108095 0.000792734 0)
(-0.11568 0.000704571 0)
(-0.12243 0.000619523 0)
(-0.128332 0.000533988 0)
(-0.133217 0.000443269 0)
(-0.137315 0.000361128 0)
(-0.140532 0.000278701 0)
(-0.142859 0.000189937 0)
(-0.144403 0.000116159 0)
(-0.145218 4.16424e-05 0)
(-0.145254 -2.99883e-05 0)
(-0.144512 -8.50511e-05 0)
(-0.143094 -0.000156925 0)
(-0.141067 -0.000204711 0)
(-0.138397 -0.000268561 0)
(-0.135235 -0.000320154 0)
(-0.131492 -0.000374402 0)
(-0.127225 -0.000415357 0)
(-0.122512 -0.000482139 0)
(-0.117252 -0.00052187 0)
(-0.111482 -0.000584652 0)
(-0.105234 -0.000631712 0)
(-0.0984416 -0.000687883 0)
(-0.0910803 -0.000739912 0)
(-0.0832371 -0.000800488 0)
(-0.0747736 -0.000857892 0)
(-0.0657284 -0.000915667 0)
(-0.0561277 -0.000976498 0)
(-0.0459426 -0.00103569 0)
(-0.0351986 -0.00109562 0)
(-0.0238735 -0.00114949 0)
(-0.011994 -0.0012 0)
(0.000336499 -0.00124776 0)
(0.0131215 -0.00128349 0)
(0.0262047 -0.0013107 0)
(0.0395108 -0.0013229 0)
(0.0528673 -0.00132443 0)
(0.0661365 -0.00130879 0)
(0.0791563 -0.0012729 0)
(0.091751 -0.0012217 0)
(0.103749 -0.00115224 0)
(0.114897 -0.00106366 0)
(0.125068 -0.000952153 0)
(0.134054 -0.000821834 0)
(0.141661 -0.000685069 0)
(0.14779 -0.000528613 0)
(0.152253 -0.000361259 0)
(0.155032 -0.000187468 0)
(0.156018 -1.07684e-05 0)
(0.155209 0.00017049 0)
(0.152564 0.000349367 0)
(0.148181 0.000519795 0)
(0.14212 0.00068038 0)
(0.134488 0.000830457 0)
(0.125467 0.000962496 0)
(0.115167 0.00107706 0)
(0.103791 0.00117433 0)
(0.0915876 0.00125142 0)
(0.0786931 0.0013045 0)
(0.0653094 0.00134233 0)
(0.0516809 0.00136304 0)
(0.0379586 0.00136261 0)
(0.0242828 0.00134811 0)
(0.0108154 0.00132671 0)
(-0.00233523 0.00128596 0)
(-0.0150773 0.00123895 0)
(-0.0273104 0.00119015 0)
(-0.0390001 0.0011283 0)
(-0.0500827 0.00107217 0)
(-0.0605722 0.00100684 0)
(-0.0704063 0.000944889 0)
(-0.0796233 0.000884734 0)
(-0.0882086 0.000818278 0)
(-0.0961789 0.00076332 0)
(-0.10356 0.000702529 0)
(-0.110356 0.000642729 0)
(-0.11655 0.000588173 0)
(-0.122184 0.0005318 0)
(-0.127253 0.000473376 0)
(-0.131743 0.000417987 0)
(-0.135661 0.00035977 0)
(-0.138991 0.000302886 0)
(-0.141738 0.000241473 0)
(-0.143849 0.000177238 0)
(-0.145307 0.000113468 0)
(-0.146106 4.6922e-05 0)
(-0.146228 -2.59772e-05 0)
(-0.145583 -9.68947e-05 0)
(-0.144157 -0.000176203 0)
(-0.141975 -0.00025881 0)
(-0.138949 -0.000340586 0)
(-0.135101 -0.000425137 0)
(-0.130385 -0.000509739 0)
(-0.124778 -0.000596618 0)
(-0.118329 -0.000682223 0)
(-0.110994 -0.000768063 0)
(-0.102831 -0.000854029 0)
(-0.0938061 -0.000935336 0)
(-0.0839975 -0.00100879 0)
(-0.0734585 -0.0010833 0)
(-0.062223 -0.00114489 0)
(-0.0503908 -0.00120055 0)
(-0.0380341 -0.0012492 0)
(-0.0252571 -0.00128829 0)
(-0.0121339 -0.00131259 0)
(0.00118785 -0.00132784 0)
(0.0146167 -0.00133094 0)
(0.0279947 -0.00132337 0)
(0.0412439 -0.00130253 0)
(0.0542155 -0.00126973 0)
(0.0667923 -0.00122345 0)
(0.0788528 -0.00116835 0)
(0.0902974 -0.00109825 0)
(0.100989 -0.0010186 0)
(0.110838 -0.000932742 0)
(0.119729 -0.000832296 0)
(0.127591 -0.000723202 0)
(0.134297 -0.000606423 0)
(0.139787 -0.000480204 0)
(0.14397 -0.000348842 0)
(0.146808 -0.000212264 0)
(0.148232 -6.96697e-05 0)
(0.148219 7.21974e-05 0)
(0.146729 0.000219592 0)
(0.143758 0.000365311 0)
(0.139375 0.000506925 0)
(0.133563 0.000643614 0)
(0.126408 0.000774918 0)
(0.117982 0.0008961 0)
(0.108376 0.00100638 0)
(0.097701 0.00110858 0)
(0.0860835 0.00119606 0)
(0.073668 0.00126717 0)
(0.0605932 0.00132294 0)
(0.0470413 0.00136611 0)
(0.0331382 0.00139067 0)
(0.0190697 0.00139839 0)
(0.00499963 0.00139338 0)
(-0.00893034 0.00137245 0)
(-0.0225896 0.0013386 0)
(-0.0358534 0.00129272 0)
(-0.0485938 0.00123492 0)
(-0.0607168 0.00117028 0)
(-0.0721533 0.0010989 0)
(-0.0828341 0.00102216 0)
(-0.0927231 0.000940945 0)
(-0.101778 0.000855224 0)
(-0.109974 0.000770505 0)
(-0.117308 0.000686088 0)
(-0.123781 0.000599952 0)
(-0.129412 0.000514648 0)
(-0.134186 0.000430621 0)
(-0.138123 0.000353844 0)
(-0.141262 0.000271789 0)
(-0.14362 0.000195359 0)
(-0.1452 0.000120005 0)
(-0.14604 5.18166e-05 0)
(-0.146203 -2.16527e-05 0)
(-0.145628 -9.06903e-05 0)
(-0.144379 -0.000153454 0)
(-0.142482 -0.000221819 0)
(-0.139939 -0.000284666 0)
(-0.136757 -0.000344963 0)
(-0.132974 -0.000406814 0)
(-0.128562 -0.000465953 0)
(-0.123558 -0.000525659 0)
(-0.117957 -0.000584289 0)
(-0.111768 -0.000644446 0)
(-0.104985 -0.000700766 0)
(-0.0976191 -0.000757072 0)
(-0.0897023 -0.000814617 0)
(-0.0812242 -0.000868273 0)
(-0.0721966 -0.000921183 0)
(-0.062646 -0.000970456 0)
(-0.0525991 -0.00101977 0)
(-0.0420909 -0.00106264 0)
(-0.0311739 -0.00110422 0)
(-0.0198544 -0.00113852 0)
(-0.00823443 -0.00116718 0)
(0.00365699 -0.00118842 0)
(0.0157094 -0.00120347 0)
(0.0278705 -0.00120775 0)
(0.0400371 -0.00120261 0)
(0.0520902 -0.00118932 0)
(0.0639446 -0.00116006 0)
(0.0754659 -0.00112236 0)
(0.0865447 -0.00107239 0)
(0.0970333 -0.00100856 0)
(0.106837 -0.00093244 0)
(0.115791 -0.000844663 0)
(0.123811 -0.00074375 0)
(0.130758 -0.000632893 0)
(0.136538 -0.000512005 0)
(0.141068 -0.000382562 0)
(0.144251 -0.000249413 0)
(0.146062 -0.000109181 0)
(0.146451 3.04676e-05 0)
(0.145428 0.000173435 0)
(0.142948 0.00031519 0)
(0.139099 0.000452142 0)
(0.133904 0.000581407 0)
(0.127436 0.000703688 0)
(0.119803 0.000816418 0)
(0.11106 0.000919541 0)
(0.101388 0.00100623 0)
(0.0908526 0.00108204 0)
(0.0796359 0.00114496 0)
(0.0679075 0.00119305 0)
(0.0557814 0.00122338 0)
(0.0433803 0.00123968 0)
(0.0308099 0.00124694 0)
(0.0183971 0.00123138 0)
(0.00615053 0.00120896 0)
(-0.00586135 0.00117981 0)
(-0.0174324 0.0011374 0)
(-0.0286249 0.00108742 0)
(-0.0392951 0.00103205 0)
(-0.0493177 0.000967399 0)
(-0.0587465 0.000905394 0)
(-0.0674722 0.000833767 0)
(-0.0755039 0.000762513 0)
(-0.0828049 0.000692098 0)
(-0.0894042 0.000616479 0)
(-0.0953002 0.000546798 0)
(-0.100404 0.000473441 0)
(-0.104801 0.000400555 0)
(-0.108509 0.000331872 0)
(-0.111521 0.000262761 0)
(-0.113838 0.000192535 0)
(-0.115497 0.000128513 0)
(-0.116481 6.51445e-05 0)
(-0.116819 1.14905e-06 0)
(-0.116518 -6.024e-05 0)
(-0.11558 -0.000121914 0)
(-0.114056 -0.000177681 0)
(-0.111957 -0.000234097 0)
(-0.109276 -0.000290564 0)
(-0.106071 -0.000342506 0)
(-0.102315 -0.000392608 0)
(-0.0980695 -0.000445528 0)
(-0.093307 -0.000491938 0)
(-0.0880784 -0.000541583 0)
(-0.0823791 -0.000584116 0)
(-0.0762495 -0.000625236 0)
(-0.0697045 -0.000669882 0)
(-0.0627269 -0.000705352 0)
(-0.0554068 -0.000739687 0)
(-0.047693 -0.000775829 0)
(-0.0397045 -0.000802919 0)
(-0.0313881 -0.000832529 0)
(-0.0228428 -0.000850628 0)
(-0.0141174 -0.000864609 0)
(-0.00534716 -0.000877536 0)
(0.00334507 -0.000879942 0)
(0.0121346 -0.000875563 0)
(0.0209213 -0.000871657 0)
(0.0296062 -0.000854415 0)
(0.0381129 -0.000836494 0)
(0.0463719 -0.000806051 0)
(0.0543119 -0.000769124 0)
(0.0618662 -0.000730266 0)
(0.0689732 -0.00068141 0)
(0.0755733 -0.000627216 0)
(0.0816119 -0.000570537 0)
(0.0870429 -0.000507359 0)
(0.0918264 -0.000441005 0)
(0.0959309 -0.000372919 0)
(0.0993346 -0.000302268 0)
(0.102025 -0.000231145 0)
(0.103999 -0.000159596 0)
(0.105268 -8.92095e-05 0)
(0.105839 -2.01568e-05 0)
(0.10572 4.67748e-05 0)
(0.104913 0.000112224 0)
(0.103466 0.00017401 0)
(0.101419 0.000232259 0)
(0.0988076 0.000285363 0)
(0.0956778 0.000334624 0)
(0.0920795 0.000379292 0)
(0.0880654 0.000416783 0)
(0.0836891 0.000450545 0)
(0.0790064 0.000479052 0)
(0.0740744 0.000499218 0)
(0.0689509 0.000516258 0)
(0.063694 0.000524835 0)
(0.0583597 0.000530552 0)
(0.0530024 0.000530842 0)
(0.0476745 0.000523208 0)
(0.042429 0.00051331 0)
(0.0364018 0.000498815 0)
(-0.151179 0.000917692 0)
(-0.153209 0.000677214 0)
(-0.155126 0.000443279 0)
(-0.156237 0.000218967 0)
(-0.156603 4.79697e-06 0)
(-0.156213 -0.000221857 0)
(-0.15508 -0.000448796 0)
(-0.153196 -0.000675423 0)
(-0.150546 -0.000904579 0)
(-0.147117 -0.00114024 0)
(-0.142896 -0.00137711 0)
(-0.137867 -0.00161762 0)
(-0.132011 -0.00187208 0)
(-0.125307 -0.00212271 0)
(-0.117739 -0.00239154 0)
(-0.109293 -0.00264892 0)
(-0.0999628 -0.00290237 0)
(-0.0897552 -0.00317954 0)
(-0.0786997 -0.0034119 0)
(-0.0668471 -0.00362368 0)
(-0.0542592 -0.00386102 0)
(-0.0410211 -0.00401939 0)
(-0.0272383 -0.00414405 0)
(-0.0130316 -0.00429846 0)
(0.00149643 -0.00433405 0)
(0.016207 -0.00440985 0)
(0.0309361 -0.00437453 0)
(0.0455421 -0.00429299 0)
(0.0598719 -0.00422364 0)
(0.0737775 -0.00405736 0)
(0.0871046 -0.00384924 0)
(0.09971 -0.00363862 0)
(0.111462 -0.00335776 0)
(0.122244 -0.00306673 0)
(0.13195 -0.00272835 0)
(0.140493 -0.00236905 0)
(0.147795 -0.00199839 0)
(0.153799 -0.00160674 0)
(0.158462 -0.00120393 0)
(0.161741 -0.000791783 0)
(0.163607 -0.000371614 0)
(0.164074 2.75666e-05 0)
(0.16318 0.000456705 0)
(0.16085 0.000916911 0)
(0.157096 0.00133776 0)
(0.151907 0.0017735 0)
(0.145314 0.00220593 0)
(0.137286 0.00258128 0)
(0.128018 0.00296179 0)
(0.117501 0.00331989 0)
(0.105907 0.00359233 0)
(0.0934172 0.00385047 0)
(0.0800602 0.00403867 0)
(0.0662414 0.00417326 0)
(0.051851 0.00428758 0)
(0.0373665 0.00430845 0)
(0.0228917 0.00429905 0)
(0.00854959 0.00426081 0)
(-0.0053384 0.00415384 0)
(-0.0190437 0.00404068 0)
(-0.0323506 0.00388087 0)
(-0.0451822 0.00371778 0)
(-0.0574528 0.00352888 0)
(-0.0690607 0.00331473 0)
(-0.0800469 0.0031018 0)
(-0.0902573 0.00287846 0)
(-0.0995973 0.00261533 0)
(-0.108141 0.0023793 0)
(-0.115728 0.00211382 0)
(-0.122479 0.00185765 0)
(-0.128385 0.00160197 0)
(-0.133273 0.00132878 0)
(-0.137363 0.00108389 0)
(-0.140588 0.000837043 0)
(-0.142913 0.000569577 0)
(-0.14445 0.000351738 0)
(-0.145267 0.00012178 0)
(-0.145302 -9.04656e-05 0)
(-0.144558 -0.000250305 0)
(-0.143137 -0.000475328 0)
(-0.141114 -0.000616598 0)
(-0.138441 -0.000804926 0)
(-0.135285 -0.000956363 0)
(-0.131542 -0.00111652 0)
(-0.127286 -0.00125953 0)
(-0.122563 -0.00144545 0)
(-0.117301 -0.0015635 0)
(-0.111535 -0.00175038 0)
(-0.10529 -0.00189549 0)
(-0.0985127 -0.00206802 0)
(-0.0911395 -0.00222054 0)
(-0.0833034 -0.0024036 0)
(-0.0748363 -0.00257014 0)
(-0.0658002 -0.00275637 0)
(-0.0561829 -0.00292901 0)
(-0.0460024 -0.00310737 0)
(-0.0352578 -0.00328599 0)
(-0.0239256 -0.00345089 0)
(-0.0120563 -0.00360671 0)
(0.000299755 -0.00374621 0)
(0.0130898 -0.00384512 0)
(0.0261771 -0.00393587 0)
(0.0394778 -0.00397504 0)
(0.0528515 -0.00397608 0)
(0.066139 -0.00392691 0)
(0.0791617 -0.00382337 0)
(0.0917725 -0.00366863 0)
(0.103781 -0.00345385 0)
(0.114943 -0.00318735 0)
(0.125115 -0.00285804 0)
(0.134099 -0.00247903 0)
(0.141739 -0.00204972 0)
(0.14786 -0.00158363 0)
(0.152333 -0.00109345 0)
(0.155123 -0.000556905 0)
(0.156106 -3.24917e-05 0)
(0.155295 0.000510753 0)
(0.152648 0.00104645 0)
(0.148263 0.00156138 0)
(0.142196 0.00204152 0)
(0.134553 0.00248568 0)
(0.125528 0.00289031 0)
(0.115222 0.00323033 0)
(0.103831 0.00352171 0)
(0.0916138 0.00375237 0)
(0.0787194 0.00391851 0)
(0.0653315 0.00403127 0)
(0.0516916 0.00409233 0)
(0.0379484 0.0040796 0)
(0.024271 0.00405182 0)
(0.0107895 0.00397059 0)
(-0.00235606 0.00385998 0)
(-0.0150984 0.00372227 0)
(-0.0273475 0.003562 0)
(-0.0390351 0.00339158 0)
(-0.050125 0.00321253 0)
(-0.0605978 0.00302734 0)
(-0.0704534 0.00283387 0)
(-0.0796645 0.0026489 0)
(-0.0882439 0.0024659 0)
(-0.096233 0.0022812 0)
(-0.1036 0.00210739 0)
(-0.110393 0.00193499 0)
(-0.116602 0.00176002 0)
(-0.12223 0.00159254 0)
(-0.127293 0.0014227 0)
(-0.131791 0.00125327 0)
(-0.135711 0.00107848 0)
(-0.139039 0.000909439 0)
(-0.141787 0.000722091 0)
(-0.1439 0.000535895 0)
(-0.145363 0.00034162 0)
(-0.146163 0.000135998 0)
(-0.146285 -7.55722e-05 0)
(-0.145642 -0.000296453 0)
(-0.144223 -0.000532166 0)
(-0.142028 -0.000772735 0)
(-0.13901 -0.00101926 0)
(-0.135163 -0.00127442 0)
(-0.130447 -0.0015311 0)
(-0.124841 -0.00179072 0)
(-0.11839 -0.00205361 0)
(-0.11106 -0.00230952 0)
(-0.102878 -0.00255886 0)
(-0.0938561 -0.00279872 0)
(-0.0840573 -0.00303534 0)
(-0.0734987 -0.00324521 0)
(-0.06227 -0.00343693 0)
(-0.0504285 -0.00360759 0)
(-0.0380628 -0.00374347 0)
(-0.0252794 -0.00386738 0)
(-0.0121524 -0.003935 0)
(0.00117356 -0.00399002 0)
(0.0146073 -0.00399516 0)
(0.0280013 -0.00397241 0)
(0.0412542 -0.00390716 0)
(0.0542311 -0.00380975 0)
(0.0668149 -0.00367321 0)
(0.0788853 -0.00350306 0)
(0.0903273 -0.00329957 0)
(0.101024 -0.00306664 0)
(0.11089 -0.00279313 0)
(0.119788 -0.00249906 0)
(0.127652 -0.00216477 0)
(0.134358 -0.00182696 0)
(0.139853 -0.00144062 0)
(0.144041 -0.0010522 0)
(0.146882 -0.000634844 0)
(0.148304 -0.00021147 0)
(0.148294 0.000214252 0)
(0.146806 0.000663112 0)
(0.143828 0.00108897 0)
(0.139448 0.00152381 0)
(0.133634 0.00193099 0)
(0.126467 0.00232245 0)
(0.118043 0.00269021 0)
(0.108436 0.00302584 0)
(0.0977447 0.00332454 0)
(0.0861175 0.00358511 0)
(0.0737004 0.00380415 0)
(0.0606171 0.00397124 0)
(0.0470516 0.00409875 0)
(0.0331461 0.00417301 0)
(0.0190666 0.00419371 0)
(0.00498567 0.00418129 0)
(-0.00895485 0.00411588 0)
(-0.022621 0.00401485 0)
(-0.0358859 0.00387712 0)
(-0.0486293 0.00370771 0)
(-0.0607588 0.00351116 0)
(-0.0722004 0.0032985 0)
(-0.0828922 0.00306388 0)
(-0.0927753 0.00282246 0)
(-0.101825 0.00257107 0)
(-0.110033 0.00231145 0)
(-0.117372 0.0020538 0)
(-0.123836 0.00180184 0)
(-0.129467 0.00154511 0)
(-0.134247 0.0012913 0)
(-0.138182 0.00105979 0)
(-0.141317 0.000816892 0)
(-0.143676 0.000584934 0)
(-0.145258 0.000360337 0)
(-0.146099 0.000151114 0)
(-0.146253 -6.31152e-05 0)
(-0.145683 -0.000272269 0)
(-0.144438 -0.000467972 0)
(-0.142524 -0.000659151 0)
(-0.139989 -0.000854894 0)
(-0.136804 -0.00103355 0)
(-0.133023 -0.00122243 0)
(-0.12861 -0.00139603 0)
(-0.123603 -0.00158036 0)
(-0.118004 -0.00175378 0)
(-0.11181 -0.00193387 0)
(-0.105027 -0.00210363 0)
(-0.097658 -0.00227201 0)
(-0.0897405 -0.00244374 0)
(-0.081262 -0.00260591 0)
(-0.0722319 -0.00276218 0)
(-0.0626821 -0.00291788 0)
(-0.0526249 -0.0030593 0)
(-0.0421251 -0.00319315 0)
(-0.0311927 -0.00331219 0)
(-0.0198736 -0.0034138 0)
(-0.00824514 -0.00350299 0)
(0.00364719 -0.00356441 0)
(0.0157039 -0.00361644 0)
(0.027877 -0.00362166 0)
(0.0400444 -0.00361121 0)
(0.0521097 -0.00356718 0)
(0.0639596 -0.0034876 0)
(0.0754986 -0.00336578 0)
(0.0865793 -0.00321769 0)
(0.0970792 -0.00302905 0)
(0.106888 -0.00279434 0)
(0.115849 -0.00253729 0)
(0.123875 -0.00223099 0)
(0.130826 -0.00190205 0)
(0.136611 -0.00153883 0)
(0.14114 -0.0011518 0)
(0.144337 -0.000744154 0)
(0.146144 -0.000328448 0)
(0.146538 9.18973e-05 0)
(0.145506 0.000520215 0)
(0.143027 0.000944988 0)
(0.139176 0.00135493 0)
(0.133981 0.00174725 0)
(0.127505 0.00211146 0)
(0.119867 0.00245207 0)
(0.111115 0.00275739 0)
(0.101437 0.00301977 0)
(0.0908962 0.00324658 0)
(0.0796704 0.00343848 0)
(0.0679307 0.00357655 0)
(0.0557998 0.00367273 0)
(0.0433886 0.00372059 0)
(0.0308126 0.00373987 0)
(0.0183914 0.00369569 0)
(0.00614079 0.00363 0)
(-0.00587833 0.00354124 0)
(-0.0174564 0.00341132 0)
(-0.0286498 0.00326333 0)
(-0.0393246 0.00309746 0)
(-0.0493502 0.00290517 0)
(-0.0587849 0.0027138 0)
(-0.067509 0.00250307 0)
(-0.0755419 0.00228786 0)
(-0.0828447 0.00207695 0)
(-0.0894444 0.00185046 0)
(-0.0953402 0.00164075 0)
(-0.100445 0.00142078 0)
(-0.104841 0.00120185 0)
(-0.10855 0.000995893 0)
(-0.111561 0.000787519 0)
(-0.113876 0.000578503 0)
(-0.115535 0.000385513 0)
(-0.116522 0.000192939 0)
(-0.116856 4.83446e-06 0)
(-0.116554 -0.000180832 0)
(-0.115615 -0.000365447 0)
(-0.11409 -0.000533126 0)
(-0.11199 -0.000702133 0)
(-0.109309 -0.000871634 0)
(-0.106102 -0.00102738 0)
(-0.102346 -0.00117776 0)
(-0.0980992 -0.00133653 0)
(-0.0933356 -0.0014758 0)
(-0.0881061 -0.00162473 0)
(-0.0824057 -0.00175235 0)
(-0.076275 -0.00187575 0)
(-0.0697287 -0.00200967 0)
(-0.0627499 -0.00211622 0)
(-0.0554283 -0.00221906 0)
(-0.0477128 -0.00232761 0)
(-0.0397227 -0.00240887 0)
(-0.0314041 -0.00249775 0)
(-0.0228567 -0.00255217 0)
(-0.0141285 -0.00259398 0)
(-0.00535554 -0.00263284 0)
(0.00333908 -0.00264003 0)
(0.0121315 -0.00262695 0)
(0.0209213 -0.00261527 0)
(0.0296091 -0.00256355 0)
(0.038119 -0.0025098 0)
(0.0463811 -0.00241846 0)
(0.0543238 -0.00230768 0)
(0.0618812 -0.00219109 0)
(0.0689908 -0.0020445 0)
(0.0755932 -0.0018819 0)
(0.0816341 -0.00171184 0)
(0.0870669 -0.00152229 0)
(0.0918517 -0.00132321 0)
(0.0959576 -0.00111889 0)
(0.099362 -0.00090688 0)
(0.102053 -0.000693523 0)
(0.104026 -0.000478571 0)
(0.105295 -0.000267867 0)
(0.105866 -6.04432e-05 0)
(0.105746 0.00014037 0)
(0.104938 0.000336782 0)
(0.10349 0.000522138 0)
(0.101441 0.000696918 0)
(0.0988285 0.00085624 0)
(0.0956969 0.00100404 0)
(0.0920966 0.00113808 0)
(0.0880803 0.00125055 0)
(0.0837018 0.00135187 0)
(0.0790168 0.00143739 0)
(0.0740826 0.00149789 0)
(0.0689568 0.00154901 0)
(0.0636975 0.00157473 0)
(0.0583611 0.00159188 0)
(0.0530016 0.00159274 0)
(0.0476717 0.00156983 0)
(0.0424243 0.00154011 0)
(0.0363949 0.00149661 0)
(-0.151241 0.00152922 0)
(-0.153271 0.00112855 0)
(-0.155183 0.000739819 0)
(-0.156294 0.000368872 0)
(-0.156667 3.05029e-06 0)
(-0.156273 -0.00037089 0)
(-0.15514 -0.00074798 0)
(-0.153257 -0.00112557 0)
(-0.150607 -0.00150746 0)
(-0.14718 -0.0019002 0)
(-0.14296 -0.00229496 0)
(-0.137932 -0.00269579 0)
(-0.132078 -0.00311986 0)
(-0.125375 -0.00353762 0)
(-0.117809 -0.00398576 0)
(-0.109363 -0.00441491 0)
(-0.100032 -0.00483751 0)
(-0.0898224 -0.00529972 0)
(-0.0787627 -0.00568725 0)
(-0.0669045 -0.0060404 0)
(-0.0543108 -0.00643623 0)
(-0.0410645 -0.00670033 0)
(-0.0272732 -0.00690803 0)
(-0.0130552 -0.00716435 0)
(0.00148338 -0.00722688 0)
(0.0162037 -0.0073519 0)
(0.0309452 -0.00729287 0)
(0.0455628 -0.00715693 0)
(0.0599053 -0.00704141 0)
(0.0738222 -0.0067642 0)
(0.0871598 -0.00641714 0)
(0.0997764 -0.00606613 0)
(0.111538 -0.00559755 0)
(0.122329 -0.00511279 0)
(0.132041 -0.00454807 0)
(0.140589 -0.00395017 0)
(0.147898 -0.00333152 0)
(0.153904 -0.00267978 0)
(0.158572 -0.00200585 0)
(0.161852 -0.00132135 0)
(0.163719 -0.000620527 0)
(0.16419 4.72554e-05 0)
(0.163289 0.000766266 0)
(0.160966 0.00152891 0)
(0.15721 0.00222967 0)
(0.152019 0.00295672 0)
(0.145421 0.00367726 0)
(0.137387 0.00430319 0)
(0.128111 0.00493788 0)
(0.117584 0.00553456 0)
(0.105977 0.00598968 0)
(0.0934761 0.00641928 0)
(0.0801033 0.00673354 0)
(0.0662691 0.0069576 0)
(0.0518677 0.00714748 0)
(0.0373683 0.0071837 0)
(0.0228826 0.00716652 0)
(0.00852899 0.00710379 0)
(-0.00536744 0.00692579 0)
(-0.0190809 0.00673608 0)
(-0.0323919 0.00647043 0)
(-0.0452305 0.00619698 0)
(-0.0575034 0.0058821 0)
(-0.0691149 0.00552784 0)
(-0.0801072 0.00516642 0)
(-0.0903157 0.00479745 0)
(-0.09966 0.00436045 0)
(-0.108207 0.00396373 0)
(-0.115793 0.00352275 0)
(-0.122545 0.00309656 0)
(-0.128451 0.00266855 0)
(-0.133338 0.00221429 0)
(-0.137422 0.00180774 0)
(-0.140653 0.00139495 0)
(-0.142974 0.00094905 0)
(-0.144515 0.000584579 0)
(-0.145315 0.000207903 0)
(-0.145348 -0.000150278 0)
(-0.144612 -0.000423289 0)
(-0.143177 -0.000787283 0)
(-0.141153 -0.00102636 0)
(-0.138486 -0.0013399 0)
(-0.135332 -0.00159641 0)
(-0.131596 -0.0018639 0)
(-0.12732 -0.00209215 0)
(-0.122612 -0.00241194 0)
(-0.117353 -0.00260653 0)
(-0.111591 -0.00291652 0)
(-0.105347 -0.00315724 0)
(-0.0985738 -0.0034448 0)
(-0.0912004 -0.00369988 0)
(-0.0833677 -0.00400565 0)
(-0.0749102 -0.00429163 0)
(-0.0658652 -0.00458656 0)
(-0.0562462 -0.00488009 0)
(-0.0460749 -0.00518241 0)
(-0.0353208 -0.00547579 0)
(-0.023992 -0.00574996 0)
(-0.0121212 -0.00601502 0)
(0.000249909 -0.00624182 0)
(0.0130379 -0.00641862 0)
(0.0261481 -0.00655016 0)
(0.0394509 -0.00663261 0)
(0.0528371 -0.00662732 0)
(0.0661377 -0.00655044 0)
(0.0791801 -0.00637358 0)
(0.0918088 -0.00610875 0)
(0.103821 -0.00576935 0)
(0.115003 -0.00531225 0)
(0.125185 -0.00477122 0)
(0.134189 -0.00412866 0)
(0.141839 -0.00342053 0)
(0.147965 -0.00264993 0)
(0.15246 -0.00181376 0)
(0.155246 -0.000931438 0)
(0.156231 -6.19864e-05 0)
(0.155416 0.000856627 0)
(0.152768 0.001746 0)
(0.148376 0.00260142 0)
(0.142302 0.00340201 0)
(0.134651 0.00415302 0)
(0.125604 0.0048115 0)
(0.115295 0.00538892 0)
(0.103895 0.00587907 0)
(0.0916492 0.00625558 0)
(0.0787317 0.00652663 0)
(0.0653359 0.00671889 0)
(0.0516903 0.00682131 0)
(0.0379367 0.00681541 0)
(0.0242379 0.00674468 0)
(0.0107501 0.00662556 0)
(-0.0024113 0.00642735 0)
(-0.0151468 0.00620666 0)
(-0.0273982 0.00594462 0)
(-0.0390954 0.00565244 0)
(-0.0501927 0.00534952 0)
(-0.0606626 0.00504395 0)
(-0.0705143 0.00472569 0)
(-0.0797252 0.00441762 0)
(-0.0883149 0.00410299 0)
(-0.096286 0.00380903 0)
(-0.103667 0.0035083 0)
(-0.110454 0.00322306 0)
(-0.116659 0.00293695 0)
(-0.12229 0.00265325 0)
(-0.127352 0.00236969 0)
(-0.131848 0.00209141 0)
(-0.135768 0.00179985 0)
(-0.139105 0.0015089 0)
(-0.141843 0.00121332 0)
(-0.143968 0.000889317 0)
(-0.145436 0.000566331 0)
(-0.146232 0.000233836 0)
(-0.146362 -0.000135084 0)
(-0.145709 -0.0004856 0)
(-0.1443 -0.00088815 0)
(-0.142107 -0.00128877 0)
(-0.139092 -0.00169909 0)
(-0.135245 -0.00212848 0)
(-0.130524 -0.00254874 0)
(-0.124926 -0.00298918 0)
(-0.118464 -0.00341138 0)
(-0.11114 -0.00385211 0)
(-0.102955 -0.00426471 0)
(-0.0939388 -0.00467461 0)
(-0.0841232 -0.0050491 0)
(-0.0735692 -0.00541573 0)
(-0.0623273 -0.00572813 0)
(-0.0504775 -0.00600799 0)
(-0.0381134 -0.00624922 0)
(-0.0253156 -0.0064416 0)
(-0.0121876 -0.00657071 0)
(0.00116149 -0.00664064 0)
(0.0145938 -0.00666836 0)
(0.0280077 -0.00661701 0)
(0.0412617 -0.00651723 0)
(0.0542509 -0.00635195 0)
(0.0668439 -0.00612242 0)
(0.078924 -0.00584044 0)
(0.0903747 -0.00550188 0)
(0.101089 -0.00510211 0)
(0.110949 -0.00466766 0)
(0.119863 -0.00416023 0)
(0.127726 -0.0036207 0)
(0.13445 -0.00303292 0)
(0.139944 -0.00241063 0)
(0.144144 -0.00174579 0)
(0.146983 -0.00106195 0)
(0.148409 -0.000352465 0)
(0.148398 0.000356322 0)
(0.146904 0.00109996 0)
(0.143942 0.00182792 0)
(0.139543 0.00253126 0)
(0.133739 0.00322404 0)
(0.126559 0.00387515 0)
(0.118123 0.00448074 0)
(0.108505 0.00504144 0)
(0.0978149 0.0055439 0)
(0.086176 0.00598029 0)
(0.0737405 0.00633728 0)
(0.0606501 0.0066239 0)
(0.0470646 0.00682972 0)
(0.0331531 0.00695467 0)
(0.0190659 0.00699874 0)
(0.00496909 0.00697091 0)
(-0.00898631 0.00686169 0)
(-0.0226628 0.00669198 0)
(-0.0359333 0.00646176 0)
(-0.0486857 0.00618192 0)
(-0.0608173 0.00585541 0)
(-0.0722646 0.00549801 0)
(-0.0829629 0.00510767 0)
(-0.0928511 0.00470095 0)
(-0.101901 0.00428266 0)
(-0.110102 0.00385834 0)
(-0.117446 0.00342447 0)
(-0.123918 0.00299574 0)
(-0.129536 0.00257939 0)
(-0.134316 0.00215532 0)
(-0.138256 0.00176083 0)
(-0.141387 0.00135904 0)
(-0.143742 0.000977809 0)
(-0.145325 0.000601421 0)
(-0.146167 0.000249157 0)
(-0.146312 -0.00010351 0)
(-0.145742 -0.000455315 0)
(-0.144493 -0.000777857 0)
(-0.142586 -0.00110301 0)
(-0.140042 -0.0014207 0)
(-0.136866 -0.00173146 0)
(-0.133073 -0.00203023 0)
(-0.12867 -0.00233714 0)
(-0.123651 -0.00262574 0)
(-0.118057 -0.00292606 0)
(-0.111858 -0.00322258 0)
(-0.105077 -0.00350481 0)
(-0.0977124 -0.00379111 0)
(-0.0897918 -0.00406873 0)
(-0.0813115 -0.0043496 0)
(-0.0722821 -0.00460689 0)
(-0.0627219 -0.0048583 0)
(-0.052664 -0.0050973 0)
(-0.0421662 -0.00532391 0)
(-0.031226 -0.00552097 0)
(-0.0199113 -0.00569607 0)
(-0.00826572 -0.00583552 0)
(0.00362327 -0.00594783 0)
(0.0156952 -0.00602211 0)
(0.0278718 -0.00604274 0)
(0.0400472 -0.00601557 0)
(0.0521201 -0.00595115 0)
(0.0639845 -0.00581022 0)
(0.0755273 -0.00561431 0)
(0.0866165 -0.00536718 0)
(0.0971372 -0.00504367 0)
(0.106943 -0.00466867 0)
(0.115924 -0.00422387 0)
(0.123954 -0.00372504 0)
(0.130917 -0.00316591 0)
(0.136708 -0.00256651 0)
(0.141241 -0.00192055 0)
(0.144442 -0.00124355 0)
(0.146253 -0.000549423 0)
(0.14665 0.000154355 0)
(0.145608 0.00086892 0)
(0.143132 0.00157612 0)
(0.139281 0.00226001 0)
(0.134075 0.00291171 0)
(0.127597 0.00352138 0)
(0.119947 0.00408562 0)
(0.111189 0.00459876 0)
(0.101499 0.00503427 0)
(0.09095 0.00541469 0)
(0.0797082 0.00572992 0)
(0.067964 0.00596645 0)
(0.055816 0.00612398 0)
(0.043392 0.00619928 0)
(0.0308117 0.0062374 0)
(0.0183762 0.00616365 0)
(0.00611483 0.00604947 0)
(-0.00590803 0.00590285 0)
(-0.0174924 0.00568855 0)
(-0.0286944 0.00543927 0)
(-0.0393719 0.00516381 0)
(-0.0494043 0.00484136 0)
(-0.0588364 0.00452589 0)
(-0.0675682 0.00417059 0)
(-0.0755962 0.00381553 0)
(-0.0829039 0.00346116 0)
(-0.0895033 0.00308397 0)
(-0.0953976 0.0027349 0)
(-0.100504 0.0023681 0)
(-0.104897 0.00200364 0)
(-0.108606 0.00165938 0)
(-0.111614 0.00131411 0)
(-0.113931 0.000963398 0)
(-0.115588 0.000645945 0)
(-0.116572 0.000327734 0)
(-0.116908 4.42267e-06 0)
(-0.116603 -0.000301495 0)
(-0.115662 -0.000609232 0)
(-0.114136 -0.000889012 0)
(-0.112034 -0.00117038 0)
(-0.109352 -0.00145308 0)
(-0.106144 -0.00171233 0)
(-0.102386 -0.00196316 0)
(-0.0981384 -0.00222776 0)
(-0.0933733 -0.0024599 0)
(-0.0881426 -0.00270809 0)
(-0.0824405 -0.00292084 0)
(-0.0763084 -0.00312657 0)
(-0.0697603 -0.0033497 0)
(-0.0627796 -0.0035275 0)
(-0.0554556 -0.00369869 0)
(-0.0477376 -0.0038798 0)
(-0.0397446 -0.00401527 0)
(-0.0314225 -0.00416348 0)
(-0.0228717 -0.00425435 0)
(-0.0141387 -0.00432384 0)
(-0.00536103 -0.00438878 0)
(0.00333768 -0.00440078 0)
(0.0121351 -0.0043791 0)
(0.0209303 -0.00435964 0)
(0.0296234 -0.00427349 0)
(0.0381389 -0.00418389 0)
(0.0464062 -0.00403167 0)
(0.054354 -0.00384698 0)
(0.0619166 -0.00365261 0)
(0.0690307 -0.00340823 0)
(0.0756372 -0.00313713 0)
(0.0816821 -0.00285364 0)
(0.0871179 -0.00253764 0)
(0.0919051 -0.00220571 0)
(0.0960129 -0.00186507 0)
(0.0994181 -0.0015117 0)
(0.10211 -0.00115583 0)
(0.104082 -0.000797983 0)
(0.105351 -0.000445262 0)
(0.105922 -9.98547e-05 0)
(0.105799 0.00023382 0)
(0.104987 0.000561807 0)
(0.103538 0.000870713 0)
(0.101486 0.0011621 0)
(0.0988692 0.00142764 0)
(0.0957338 0.00167407 0)
(0.0921296 0.00189751 0)
(0.0881087 0.00208495 0)
(0.0837259 0.00225389 0)
(0.0790365 0.00239645 0)
(0.0740976 0.00249724 0)
(0.0689674 0.00258245 0)
(0.0637035 0.00262531 0)
(0.0583627 0.00265386 0)
(0.0529989 0.00265527 0)
(0.047665 0.00261703 0)
(0.0424138 0.00256745 0)
(0.0363805 0.00249489 0)
(-0.151336 0.00214034 0)
(-0.153363 0.00157974 0)
(-0.15527 0.00103756 0)
(-0.156386 0.000516002 0)
(-0.156755 2.40302e-06 0)
(-0.156362 -0.000521269 0)
(-0.15523 -0.00104709 0)
(-0.153347 -0.00157549 0)
(-0.150699 -0.00211007 0)
(-0.147274 -0.00265986 0)
(-0.143056 -0.00321244 0)
(-0.13803 -0.00377358 0)
(-0.132178 -0.00436723 0)
(-0.125477 -0.00495218 0)
(-0.117913 -0.00557979 0)
(-0.109468 -0.00618093 0)
(-0.100135 -0.00677298 0)
(-0.0899235 -0.00742066 0)
(-0.0788573 -0.00796364 0)
(-0.0669905 -0.00845857 0)
(-0.0543881 -0.00901324 0)
(-0.0411297 -0.0093833 0)
(-0.0273254 -0.00967399 0)
(-0.0130911 -0.0100302 0)
(0.00146341 -0.0101254 0)
(0.016199 -0.0102971 0)
(0.0309586 -0.0102142 0)
(0.0455936 -0.0100238 0)
(0.0599553 -0.00986216 0)
(0.073889 -0.00947386 0)
(0.0872425 -0.00898778 0)
(0.0998762 -0.0084961 0)
(0.11165 -0.00783967 0)
(0.122455 -0.00716068 0)
(0.132177 -0.00637035 0)
(0.140733 -0.00553207 0)
(0.148051 -0.00466694 0)
(0.154062 -0.00375472 0)
(0.158736 -0.00281055 0)
(0.162019 -0.00185535 0)
(0.163889 -0.00086954 0)
(0.164359 7.64031e-05 0)
(0.163456 0.00108093 0)
(0.161141 0.00214196 0)
(0.157382 0.00312219 0)
(0.152186 0.00414081 0)
(0.145582 0.00514991 0)
(0.137538 0.00602674 0)
(0.128249 0.00691635 0)
(0.117709 0.00775144 0)
(0.106082 0.00839072 0)
(0.0935635 0.00899132 0)
(0.080167 0.00943062 0)
(0.0663104 0.00974581 0)
(0.0518931 0.0100104 0)
(0.0373697 0.0100634 0)
(0.0228675 0.0100364 0)
(0.00849953 0.00995001 0)
(-0.00541151 0.00970075 0)
(-0.019137 0.00943407 0)
(-0.0324561 0.00906116 0)
(-0.0453017 0.00867814 0)
(-0.0575828 0.00823632 0)