/*--------------------------------*- C++ -*----------------------------------*\
| =========                 |                                                 |
| \\      /  F ield         | OpenFOAM: The Open Source CFD Toolbox           |
|  \\    /   O peration     | Version:  3.0.1                                 |
|   \\  /    A nd           | Web:      www.OpenFOAM.org                      |
|    \\/     M anipulation  |                                                 |
\*---------------------------------------------------------------------------*/
FoamFile
{
    version     2.0;
    format      ascii;
    class       surfaceScalarField;
    location    "16.8";
    object      alphaPhi;
}
// * * * * * * * * * * * * * * * * * * * * * * * * * * * * * * * * * * * * * //

dimensions      [0 3 -1 0 0 0 0];

internalField   nonuniform List<scalar> 
42423
(
0.000204031
-1.05261e-05
0.000212719
-8.68773e-06
0.000219169
-6.44994e-06
0.000223223
-4.05392e-06
0.000224907
-1.68431e-06
0.000224141
7.66728e-07
0.000220878
3.26294e-06
0.000215116
5.76138e-06
0.000206896
8.21972e-06
0.000196622
1.02743e-05
0.000184343
1.22795e-05
0.000170184
1.41586e-05
0.000154654
1.55298e-05
0.00013777
1.68844e-05
0.000119972
1.77982e-05
0.000101484
1.84878e-05
8.24196e-05
1.90643e-05
6.31875e-05
1.92322e-05
4.4028e-05
1.91595e-05
2.50032e-05
1.90248e-05
6.48585e-06
1.85173e-05
-1.1545e-05
1.80308e-05
-2.88638e-05
1.73188e-05
-4.53618e-05
1.6498e-05
-6.09606e-05
1.55988e-05
-7.55732e-05
1.46126e-05
-8.92131e-05
1.364e-05
-0.000101818
1.26048e-05
-0.000113396
1.15778e-05
-0.000123969
1.05729e-05
-0.000133549
9.58072e-06
-0.000142171
8.62118e-06
-0.000149857
7.68679e-06
-0.000156646
6.78913e-06
-0.000162572
5.9251e-06
-0.000167674
5.10256e-06
-0.000171965
4.29105e-06
-0.000175481
3.5154e-06
-0.000178258
2.77777e-06
-0.000180283
2.02445e-06
-0.000181635
1.35211e-06
-0.000182311
6.76365e-07
-0.000182221
-9.06986e-08
-0.000181443
-7.77539e-07
-0.000179873
-1.56972e-06
-0.000177604
-2.26892e-06
-0.000174674
-2.93062e-06
-0.000170864
-3.80998e-06
-0.000166323
-4.54095e-06
-0.000161053
-5.26964e-06
-0.000154745
-6.30811e-06
-0.000147679
-7.06669e-06
-0.000139611
-8.06724e-06
-0.000130516
-9.09494e-06
-0.000120652
-9.86471e-06
-0.00010975
-1.09018e-05
-9.77326e-05
-1.20174e-05
-8.49727e-05
-1.27599e-05
-7.11929e-05
-1.37799e-05
-5.65095e-05
-1.46834e-05
-4.1006e-05
-1.55036e-05
-2.47124e-05
-1.62936e-05
-7.84141e-06
-1.68711e-05
9.54833e-06
-1.73898e-05
2.7403e-05
-1.78547e-05
4.54142e-05
-1.80113e-05
6.34911e-05
-1.80769e-05
8.14376e-05
-1.79465e-05
9.91312e-05
-1.76936e-05
0.000116308
-1.71771e-05
0.000132766
-1.64583e-05
0.000148293
-1.55271e-05
0.000162639
-1.43453e-05
0.000175696
-1.30572e-05
0.000187114
-1.14183e-05
0.000196792
-9.67825e-06
0.000204651
-7.85864e-06
0.00021032
-5.66926e-06
0.000213869
-3.54794e-06
0.000215097
-1.22788e-06
0.000213933
1.1638e-06
0.000210494
3.43928e-06
0.000204648
5.84576e-06
0.000196577
8.07137e-06
0.000186432
1.01447e-05
0.00017427
1.21625e-05
0.000160359
1.39109e-05
0.000144937
1.54225e-05
0.000128159
1.67781e-05
0.000110354
1.78048e-05
9.16932e-05
1.8661e-05
7.24992e-05
1.9194e-05
5.29736e-05
1.95257e-05
3.33382e-05
1.96354e-05
1.39085e-05
1.94297e-05
-5.16945e-06
1.90779e-05
-2.368e-05
1.85106e-05
-4.14654e-05
1.77854e-05
-5.83545e-05
1.68891e-05
-7.4224e-05
1.58695e-05
-8.90147e-05
1.47908e-05
-0.000102703
1.36885e-05
-0.000115143
1.24398e-05
-0.00012643
1.12871e-05
-0.000136547
1.01168e-05
-0.000145524
8.97686e-06
-0.00015342
7.89602e-06
-0.000160295
6.87533e-06
-0.000166219
5.92428e-06
-0.000171183
4.96361e-06
-0.000175285
4.10202e-06
-0.000178593
3.30816e-06
-0.000181104
2.51136e-06
-0.000182853
1.74835e-06
-0.000183915
1.06251e-06
-0.000184262
3.46567e-07
-0.00018391
-3.51793e-07
-0.000182905
-1.00447e-06
-0.000181327
-1.57827e-06
-0.000179048
-2.27943e-06
-0.000176166
-2.88148e-06
-0.000172662
-3.504e-06
-0.000168506
-4.15583e-06
-0.00016375
-4.75579e-06
-0.000158363
-5.38718e-06
-0.000152305
-6.05798e-06
-0.000145551
-6.75461e-06
-0.000138063
-7.48769e-06
-0.000129928
-8.13455e-06
-0.000120958
-8.97034e-06
-0.000111144
-9.81397e-06
-0.000100593
-1.05516e-05
-8.90996e-05
-1.14931e-05
-7.66824e-05
-1.24172e-05
-6.3463e-05
-1.32195e-05
-4.92763e-05
-1.41868e-05
-3.41845e-05
-1.50919e-05
-1.84144e-05
-1.57701e-05
-1.8872e-06
-1.65273e-05
1.52692e-05
-1.71564e-05
3.28849e-05
-1.76158e-05
5.0804e-05
-1.79191e-05
6.88325e-05
-1.80287e-05
8.67251e-05
-1.78927e-05
0.000104286
-1.75609e-05
0.000121236
-1.69506e-05
0.00013735
-1.61137e-05
0.00015233
-1.49805e-05
0.000165861
-1.35304e-05
0.000177759
-1.18981e-05
0.00018774
-9.98097e-06
0.000195607
-7.86793e-06
0.000201192
-5.58503e-06
0.000204352
-3.15914e-06
0.000205052
-7.00553e-07
0.000203264
1.78788e-06
0.000198952
4.31239e-06
0.000192276
6.67532e-06
0.000183326
8.95051e-06
0.000172384
1.09415e-05
0.000159613
1.27709e-05
0.00014527
1.43428e-05
0.000129681
1.55898e-05
0.000113073
1.66073e-05
9.57352e-05
1.73382e-05
7.79362e-05
1.7799e-05
5.9931e-05
1.80052e-05
4.19407e-05
1.79902e-05
2.41375e-05
1.78033e-05
6.7289e-06
1.74086e-05
-1.01623e-05
1.68912e-05
-2.64305e-05
1.62682e-05
-4.19781e-05
1.55476e-05
-5.67321e-05
1.47541e-05
-7.06589e-05
1.39267e-05
-8.37082e-05
1.30494e-05
-9.59125e-05
1.22043e-05
-0.000107234
1.13217e-05
-0.000117715
1.04806e-05
-0.000127403
9.68859e-06
-0.000136251
8.84717e-06
-0.000144324
8.07382e-06
-0.000151629
7.3045e-06
-0.000158181
6.55252e-06
-0.000164034
5.8527e-06
-0.000169121
5.08724e-06
-0.000173503
4.3821e-06
-0.000177137
3.63324e-06
-0.000180026
2.88937e-06
-0.000182148
2.12163e-06
-0.000183469
1.32128e-06
-0.000184009
5.40377e-07
-0.00018374
-2.69359e-07
-0.000182588
-1.15159e-06
-0.000180595
-1.99355e-06
-0.000177769
-2.82611e-06
-0.000174028
-3.74031e-06
-0.000169466
-4.56238e-06
-0.000164014
-5.45222e-06
-0.0001577
-6.31367e-06
-0.000150539
-7.16125e-06
-0.000142526
-8.01261e-06
-0.000133693
-8.83365e-06
-0.000124051
-9.64193e-06
-0.000113606
-1.04451e-05
-0.000102387
-1.12186e-05
-9.04167e-05
-1.19703e-05
-7.77083e-05
-1.27084e-05
-6.42991e-05
-1.34093e-05
-5.02152e-05
-1.4084e-05
-3.54998e-05
-1.47154e-05
-2.01816e-05
-1.53182e-05
-4.3185e-06
-1.58632e-05
1.19766e-05
-1.62951e-05
2.86688e-05
-1.66923e-05
4.56068e-05
-1.6938e-05
6.26583e-05
-1.70516e-05
7.96981e-05
-1.70398e-05
9.65246e-05
-1.68265e-05
0.000112937
-1.64124e-05
0.000128765
-1.58286e-05
0.000143741
-1.49753e-05
0.000157631
-1.38903e-05
0.000170199
-1.25677e-05
0.000181192
-1.09939e-05
0.000190397
-9.20433e-06
0.000197604
-7.20757e-06
0.000202631
-5.02676e-06
0.000205359
-2.72835e-06
0.000205726
-3.66684e-07
0.000203624
2.10206e-06
0.000199021
4.60318e-06
0.00019208
6.94071e-06
0.000182912
9.16764e-06
0.000171656
1.12562e-05
0.00015851
1.31465e-05
0.000143775
1.4735e-05
0.000127686
1.60881e-05
0.000110545
1.7141e-05
9.25788e-05
1.79666e-05
7.41752e-05
1.84036e-05
5.55421e-05
1.86331e-05
3.69708e-05
1.85712e-05
1.86563e-05
1.83146e-05
8.43799e-07
1.78125e-05
-1.6307e-05
1.71508e-05
-3.26885e-05
1.63815e-05
-4.81644e-05
1.5476e-05
-6.2676e-05
1.45115e-05
-7.6189e-05
1.35131e-05
-8.86411e-05
1.24521e-05
-0.000100094
1.14529e-05
-0.000110613
1.05191e-05
-0.000120085
9.47215e-06
-0.000128692
8.60665e-06
-0.000136414
7.72236e-06
-0.000143282
6.8679e-06
-0.000149387
6.10476e-06
-0.000154715
5.32842e-06
-0.000159341
4.62582e-06
-0.000163298
3.95722e-06
-0.000166574
3.27576e-06
-0.000169223
2.64881e-06
-0.000171272
2.04925e-06
-0.000172651
1.37925e-06
-0.000173422
7.71085e-07
-0.000173652
2.29134e-07
-0.000173168
-4.83614e-07
-0.000172069
-1.09849e-06
-0.000170294
-1.77534e-06
-0.000167803
-2.49088e-06
-0.000164608
-3.19494e-06
-0.000160601
-4.00676e-06
-0.000155794
-4.80769e-06
-0.000150175
-5.61856e-06
-0.000143637
-6.53818e-06
-0.000136138
-7.49874e-06
-0.000127717
-8.42115e-06
-0.00011833
-9.38697e-06
-0.000107965
-1.03656e-05
-9.6555e-05
-1.14095e-05
-8.42452e-05
-1.23099e-05
-7.0797e-05
-1.34482e-05
-5.65285e-05
-1.42686e-05
-4.14764e-05
-1.50521e-05
-2.54569e-05
-1.60196e-05
-8.91158e-06
-1.65453e-05
8.28909e-06
-1.72007e-05
2.598e-05
-1.7691e-05
4.38563e-05
-1.78764e-05
6.18706e-05
-1.80143e-05
7.98241e-05
-1.79535e-05
9.74096e-05
-1.75856e-05
0.000114491
-1.70811e-05
0.000130806
-1.63159e-05
0.000146129
-1.53227e-05
0.000160238
-1.41089e-05
0.000172885
-1.26469e-05
0.000183918
-1.10331e-05
0.000193036
-9.11816e-06
0.000200185
-7.14926e-06
0.000205205
-5.01972e-06
0.000207911
-2.7058e-06
0.000208313
-4.02171e-07
0.000206448
1.86439e-06
0.000202114
4.33395e-06
0.000195599
6.51478e-06
0.000187075
8.52477e-06
0.000176668
1.04071e-05
0.000164504
1.21638e-05
0.000150906
1.35973e-05
0.000136049
1.48575e-05
0.000120174
1.58749e-05
0.000103563
1.66107e-05
8.65088e-05
1.70542e-05
6.91275e-05
1.73813e-05
5.17382e-05
1.73894e-05
3.4603e-05
1.71352e-05
1.77418e-05
1.68611e-05
1.43841e-06
1.63034e-05
-1.42866e-05
1.5725e-05
-2.92674e-05
1.49808e-05
-4.34136e-05
1.41462e-05
-5.66876e-05
1.3274e-05
-6.90299e-05
1.23423e-05
-8.04365e-05
1.14066e-05
-9.08985e-05
1.0462e-05
-0.000100424
9.52549e-06
-0.000109042
8.61823e-06
-0.000116762
7.71998e-06
-0.000123621
6.85891e-06
-0.000129655
6.03418e-06
-0.000134885
5.22956e-06
-0.000139355
4.47008e-06
-0.000143097
3.74156e-06
-0.000146121
3.0249e-06
-0.000148474
2.35233e-06
-0.000150167
1.69315e-06
-0.000151211
1.04403e-06
-0.000151661
4.50347e-07
-0.000151418
-2.43277e-07
-0.000150485
-9.32543e-07
-0.000148916
-1.56963e-06
-0.000146681
-2.23481e-06
-0.000143823
-2.85795e-06
-0.000140352
-3.47129e-06
-0.000136227
-4.12451e-06
-0.000131476
-4.75094e-06
-0.000126101
-5.37532e-06
-0.000120045
-6.05559e-06
-0.000113357
-6.68797e-06
-0.000105971
-7.38613e-06
-9.79437e-05
-8.0276e-06
-8.92961e-05
-8.6476e-06
-7.98883e-05
-9.40775e-06
-6.98293e-05
-1.0059e-05
-1.0727e-05
0.000204123
-2.1067e-05
0.00021283
-1.73947e-05
0.000219288
-1.29081e-05
0.000223349
-8.11484e-06
0.000225055
-3.39082e-06
0.000224276
1.54591e-06
0.000220998
6.54162e-06
0.000215231
1.15284e-05
0.000207008
1.64427e-05
0.000196724
2.05575e-05
0.000184434
2.457e-05
0.000170267
2.83254e-05
0.000154725
3.10715e-05
0.000137827
3.37831e-05
0.000120017
3.56076e-05
0.000101517
3.69884e-05
8.24382e-05
3.81426e-05
6.31977e-05
3.84728e-05
4.40268e-05
3.83304e-05
2.49898e-05
3.80618e-05
6.46694e-06
3.70402e-05
-1.15689e-05
3.60667e-05
-2.88956e-05
3.46455e-05
-4.53981e-05
3.30005e-05
-6.10009e-05
3.12016e-05
-7.56188e-05
2.92306e-05
-8.92603e-05
2.72814e-05
-0.000101866
2.52106e-05
-0.000113448
2.31601e-05
-0.000124027
2.11517e-05
-0.000133606
1.91597e-05
-0.000142224
1.72387e-05
-0.00014991
1.53733e-05
-0.000156705
1.35844e-05
-0.000162638
1.18578e-05
-0.000167735
1.01993e-05
-0.000172028
8.58427e-06
-0.000175551
7.03851e-06
-0.000178322
5.54876e-06
-0.000180344
4.04627e-06
-0.000181693
2.7012e-06
-0.000182363
1.34658e-06
-0.000182278
-1.7627e-07
-0.000181502
-1.55346e-06
-0.000179936
-3.13516e-06
-0.000177665
-4.53967e-06
-0.000174737
-5.85933e-06
-0.000170931
-7.61576e-06
-0.000166388
-9.08374e-06
-0.00016112
-1.05377e-05
-0.000154829
-1.25994e-05
-0.000147748
-1.41476e-05
-0.000139676
-1.61389e-05
-0.000130589
-1.8183e-05
-0.00012072
-1.97331e-05
-0.000109826
-2.17965e-05
-9.78005e-05
-2.40424e-05
-8.50356e-05
-2.55249e-05
-7.1259e-05
-2.75565e-05
-5.65709e-05
-2.93716e-05
-4.10548e-05
-3.10197e-05
-2.47604e-05
-3.25881e-05
-7.88566e-06
-3.37458e-05
9.51863e-06
-3.47942e-05
2.73798e-05
-3.5716e-05
4.53973e-05
-3.60288e-05
6.3492e-05
-3.61717e-05
8.14438e-05
-3.58985e-05
9.91456e-05
-3.53955e-05
0.000116345
-3.43763e-05
0.000132812
-3.29261e-05
0.000148347
-3.10613e-05
0.00016271
-2.87085e-05
0.000175776
-2.61232e-05
0.000187207
-2.28494e-05
0.000196909
-1.93799e-05
0.000204762
-1.57117e-05
0.000210437
-1.13441e-05
0.000213993
-7.1045e-06
0.000215225
-2.4598e-06
0.000214051
2.33845e-06
0.000210603
6.88769e-06
0.000204756
1.16927e-05
0.000196688
1.61398e-05
0.000186525
2.03075e-05
0.00017434
2.43478e-05
0.000160421
2.78298e-05
0.000144986
3.08585e-05
0.000128228
3.35358e-05
0.000110361
3.56716e-05
9.16947e-05
3.73278e-05
7.24957e-05
3.83931e-05
5.29578e-05
3.90636e-05
3.33038e-05
3.92895e-05
1.38579e-05
3.88756e-05
-5.2298e-06
3.81657e-05
-2.37525e-05
3.70334e-05
-4.15437e-05
3.55766e-05
-5.8443e-05
3.37885e-05
-7.43129e-05
3.17394e-05
-8.91107e-05
2.95886e-05
-0.000102792
2.73696e-05
-0.000115239
2.48871e-05
-0.000126527
2.2575e-05
-0.00013665
2.02398e-05
-0.000145619
1.79461e-05
-0.000153513
1.57896e-05
-0.000160376
1.37386e-05
-0.000166314
1.18621e-05
-0.00017127
9.92015e-06
-0.000175375
8.2071e-06
-0.000178679
6.61207e-06
-0.000181191
5.02311e-06
-0.000182935
3.49248e-06
-0.000183996
2.12372e-06
-0.000184346
6.96719e-07
-0.000183989
-7.08678e-07
-0.000182978
-2.01592e-06
-0.000181404
-3.1524e-06
-0.000179121
-4.56223e-06
-0.000176241
-5.76129e-06
-0.000172734
-7.01113e-06
-0.000168585
-8.3041e-06
-0.000163832
-9.50944e-06
-0.000158432
-1.07868e-05
-0.000152368
-1.21219e-05
-0.000145627
-1.34961e-05
-0.000138141
-1.49738e-05
-0.000129991
-1.62839e-05
-0.000121026
-1.79355e-05
-0.000111214
-1.96257e-05
-0.000100668
-2.1098e-05
-8.91704e-05
-2.29908e-05
-7.67609e-05
-2.48268e-05
-6.35202e-05
-2.64602e-05
-4.93428e-05
-2.83642e-05
-3.42703e-05
-3.01645e-05
-1.84542e-05
-3.15863e-05
-1.92407e-06
-3.30575e-05
1.52365e-05
-3.43171e-05
3.28685e-05
-3.5248e-05
5.07959e-05
-3.58466e-05
6.88437e-05
-3.60765e-05
8.67391e-05
-3.57882e-05
0.000104319
-3.51413e-05
0.000121297
-3.39285e-05
0.000137408
-3.22248e-05
0.000152398
-2.99704e-05
0.000165953
-2.70853e-05
0.000177853
-2.37988e-05
0.000187843
-1.99705e-05
0.000195718
-1.57435e-05
0.000201318
-1.1185e-05
0.000204487
-6.32764e-06
0.000205176
-1.39048e-06
0.00020338
3.58424e-06
0.000199069
8.62383e-06
0.000192394
1.33498e-05
0.000183425
1.79193e-05
0.000172465
2.19015e-05
0.00015969
2.55457e-05
0.00014534
2.86935e-05
0.000129732
3.11974e-05
0.000113109
3.32307e-05
9.57571e-05
3.46896e-05
7.79481e-05
3.5608e-05
5.99321e-05
3.60211e-05
4.19278e-05
3.59945e-05
2.41117e-05
3.56194e-05
6.69405e-06
3.48262e-05
-1.02032e-05
3.37885e-05
-2.64781e-05
3.2543e-05
-4.20295e-05
3.10991e-05
-5.67842e-05
2.95088e-05
-7.07161e-05
2.78586e-05
-8.3772e-05
2.61053e-05
-9.59784e-05
2.44107e-05
-0.000107298
2.26412e-05
-0.000117776
2.09588e-05
-0.000127472
1.93842e-05
-0.000136322
1.76973e-05
-0.000144394
1.61461e-05
-0.000151699
1.46095e-05
-0.000158258
1.31111e-05
-0.000164106
1.17016e-05
-0.000169198
1.01785e-05
-0.000173578
8.76257e-06
-0.000177211
7.26633e-06
-0.000180105
5.78346e-06
-0.00018223
4.24671e-06
-0.000183545
2.63561e-06
-0.000184087
1.08317e-06
-0.000183822
-5.3473e-07
-0.000182665
-2.30914e-06
-0.000180667
-3.99082e-06
-0.000177848
-5.64533e-06
-0.000174111
-7.47755e-06
-0.000169541
-9.13188e-06
-0.000164091
-1.09021e-05
-0.000157777
-1.26282e-05
-0.000150612
-1.43263e-05
-0.000142599
-1.60259e-05
-0.000133764
-1.76684e-05
-0.000124116
-1.92894e-05
-0.000113665
-2.08964e-05
-0.000102451
-2.24326e-05
-9.04766e-05
-2.39449e-05
-7.77552e-05
-2.54298e-05
-6.43569e-05
-2.68076e-05
-5.02654e-05
-2.81756e-05
-3.55321e-05
-2.94488e-05
-2.02196e-05
-3.06307e-05
-4.35235e-06
-3.17305e-05
1.19614e-05
-3.26089e-05
2.86482e-05
-3.33792e-05
4.55944e-05
-3.38842e-05
6.26652e-05
-3.41225e-05
7.97052e-05
-3.40798e-05
9.65507e-05
-3.36721e-05
0.000112988
-3.28501e-05
0.000128815
-3.16551e-05
0.000143799
-2.99595e-05
0.000157707
-2.77982e-05
0.000170284
-2.51451e-05
0.00018129
-2.19997e-05
0.000190499
-1.84136e-05
0.000197729
-1.4437e-05
0.00020277
-1.00681e-05
0.000205487
-5.44571e-06
0.000205849
-7.28047e-07
0.000203747
4.2033e-06
0.000199143
9.20776e-06
0.000192195
1.38887e-05
0.000183032
1.83304e-05
0.000171755
2.25335e-05
0.000158598
2.63035e-05
0.000143849
2.94838e-05
0.000127746
3.21906e-05
0.000110593
3.4294e-05
9.26057e-05
3.59543e-05
7.4182e-05
3.68274e-05
5.5541e-05
3.72742e-05
3.69681e-05
3.71441e-05
1.86398e-05
3.66429e-05
8.09494e-07
3.56428e-05
-1.63497e-05
3.431e-05
-3.2734e-05
3.27658e-05
-4.8213e-05
3.0955e-05
-6.27288e-05
2.90273e-05
-7.62529e-05
2.70373e-05
-8.87058e-05
2.4905e-05
-0.000100158
2.29047e-05
-0.000110672
2.10333e-05
-0.000120154
1.89544e-05
-0.000128746
1.71985e-05
-0.000136472
1.54484e-05
-0.000143341
1.37367e-05
-0.000149449
1.22132e-05
-0.000154776
1.06558e-05
-0.000159398
9.24729e-06
-0.000163356
7.91546e-06
-0.000166637
6.55629e-06
-0.000169285
5.29721e-06
-0.000171331
4.0957e-06
-0.000172715
2.76316e-06
-0.000173484
1.53991e-06
-0.00017372
4.64885e-07
-0.000173229
-9.74937e-07
-0.000172118
-2.20865e-06
-0.000170362
-3.53215e-06
-0.000167869
-4.983e-06
-0.000164672
-6.39284e-06
-0.000160673
-8.00549e-06
-0.000155865
-9.61546e-06
-0.000150248
-1.12359e-05
-0.000143711
-1.30751e-05
-0.000136202
-1.5008e-05
-0.000127787
-1.68353e-05
-0.000118407
-1.87672e-05
-0.000108028
-2.07446e-05
-9.662e-05
-2.2818e-05
-8.42975e-05
-2.46324e-05
-7.08533e-05
-2.68925e-05
-5.65815e-05
-2.85404e-05
-4.15295e-05
-3.01042e-05
-2.54958e-05
-3.20534e-05
-8.94871e-06
-3.30925e-05
8.26315e-06
-3.44127e-05
2.59765e-05
-3.54044e-05
4.38506e-05
-3.57507e-05
6.18796e-05
-3.60434e-05
7.98506e-05
-3.59247e-05
9.74418e-05
-3.51768e-05
0.000114538
-3.41771e-05
0.000130867
-3.26453e-05
0.000146198
-3.0654e-05
0.000160319
-2.823e-05
0.00017297
-2.52982e-05
0.000184018
-2.20805e-05
0.00019315
-1.82504e-05
0.000200299
-1.42985e-05
0.000205333
-1.00533e-05
0.000208042
-5.41526e-06
0.000208438
-7.98591e-07
0.00020657
3.733e-06
0.000202232
8.67117e-06
0.000195713
1.30341e-05
0.000187181
1.70565e-05
0.000176762
2.08262e-05
0.000164589
2.43371e-05
0.000150981
2.72046e-05
0.000136113
2.97262e-05
0.000120223
3.17642e-05
0.000103605
3.32288e-05
8.65365e-05
3.41227e-05
6.91423e-05
3.47754e-05
5.17457e-05
3.4786e-05
3.45993e-05
3.42815e-05
1.77259e-05
3.37345e-05
1.41862e-06
3.26107e-05
-1.43111e-05
3.14546e-05
-2.9298e-05
2.99677e-05
-4.34508e-05
2.8299e-05
-5.67273e-05
2.65505e-05
-6.90695e-05
2.46845e-05
-8.04809e-05
2.2818e-05
-9.09481e-05
2.09292e-05
-0.000100473
1.90501e-05
-0.00010909
1.72352e-05
-0.000116812
1.54422e-05
-0.00012367
1.37171e-05
-0.000129704
1.20678e-05
-0.000134935
1.04604e-05
-0.000139404
8.93917e-06
-0.000143145
7.48271e-06
-0.000146169
6.04942e-06
-0.000148522
4.70507e-06
-0.000150218
3.38937e-06
-0.000151265
2.09104e-06
-0.000151712
8.97151e-07
-0.000151465
-4.90684e-07
-0.00015053
-1.86686e-06
-0.000148958
-3.14184e-06
-0.000146724
-4.46874e-06
-0.000143864
-5.7178e-06
-0.000140393
-6.94237e-06
-0.000136267
-8.25093e-06
-0.000131515
-9.50331e-06
-0.000126137
-1.07526e-05
-0.00012008
-1.21125e-05
-0.00011339
-1.33787e-05
-0.000106001
-1.47744e-05
-9.79727e-05
-1.60563e-05
-8.93239e-05
-1.72964e-05
-7.99153e-05
-1.88164e-05
-6.98551e-05
-2.01192e-05
-2.14556e-05
0.000204303
-3.16348e-05
0.000213046
-2.61377e-05
0.000219533
-1.93945e-05
0.000223608
-1.21904e-05
0.000225329
-5.11174e-06
0.00022451
2.36551e-06
0.000221189
9.8618e-06
0.000215409
1.73088e-05
0.00020718
2.46714e-05
0.000196878
3.08592e-05
0.000184568
3.68802e-05
0.00017039
4.2504e-05
0.000154825
4.66359e-05
0.000137903
5.07053e-05
0.000120078
5.34327e-05
0.000101555
5.55116e-05
8.24542e-05
5.72433e-05
6.32045e-05
5.77225e-05
4.40117e-05
5.75231e-05
2.49546e-05
5.71189e-05
6.42399e-06
5.55708e-05
-1.16277e-05
5.41184e-05
-2.89653e-05
5.19831e-05
-4.54771e-05
4.95123e-05
-6.10884e-05
4.68128e-05
-7.57094e-05
4.38516e-05
-8.93521e-05
4.09242e-05
-0.000101964
3.78225e-05
-0.000113546
3.4742e-05
-0.000124123
3.17288e-05
-0.000133704
2.87411e-05
-0.000142323
2.58576e-05
-0.000150007
2.30567e-05
-0.000156799
2.03764e-05
-0.000162728
1.77865e-05
-0.000167828
1.52993e-05
-0.000172125
1.28813e-05
-0.000175645
1.05589e-05
-0.000178421
8.32513e-06
-0.00018045
6.07443e-06
-0.000181787
4.03856e-06
-0.000182441
2.00033e-06
-0.000182341
-2.75891e-07
-0.000181558
-2.33646e-06
-0.000179999
-4.69441e-06
-0.000177723
-6.81519e-06
-0.000174797
-8.78617e-06
-0.000170997
-1.14158e-05
-0.000166451
-1.3629e-05
-0.000161186
-1.58027e-05
-0.0001549
-1.88852e-05
-0.00014782
-2.12279e-05
-0.000139746
-2.42135e-05
-0.000130665
-2.72637e-05
-0.000120797
-2.96015e-05
-0.00010991
-3.26833e-05
-9.78767e-05
-3.60755e-05
-8.51139e-05
-3.82878e-05
-7.13319e-05
-4.13386e-05
-5.66472e-05
-4.40564e-05
-4.11315e-05
-4.65355e-05
-2.48183e-05
-4.89014e-05
-7.94078e-06
-5.06234e-05
9.4726e-06
-5.22076e-05
2.73528e-05
-5.35962e-05
4.5374e-05
-5.40502e-05
6.34858e-05
-5.42835e-05
8.14586e-05
-5.38714e-05
9.91667e-05
-5.31037e-05
0.000116385
-5.15952e-05
0.000132875
-4.94153e-05
0.000148415
-4.66023e-05
0.000162805
-4.30976e-05
0.000175872
-3.91909e-05
0.000187318
-3.42956e-05
0.000197059
-2.9121e-05
0.000204907
-2.35594e-05
0.000210591
-1.70281e-05
0.000214172
-1.06847e-05
0.000215405
-3.69261e-06
0.000214216
3.52725e-06
0.00021077
1.03337e-05
0.000204913
1.755e-05
0.000196831
2.42218e-05
0.000186653
3.04857e-05
0.000174453
3.65488e-05
0.000160519
4.17635e-05
0.000145056
4.63217e-05
0.000128283
5.03094e-05
0.000110384
5.357e-05
9.16909e-05
5.60213e-05
7.24753e-05
5.76087e-05
5.29309e-05
5.86081e-05
3.32557e-05
5.89647e-05
1.37861e-05
5.83453e-05
-5.3156e-06
5.72675e-05
-2.3848e-05
5.55658e-05
-4.16466e-05
5.33752e-05
-5.85601e-05
5.07021e-05
-7.44493e-05
4.76285e-05
-8.9267e-05
4.44063e-05
-0.000102918
4.10209e-05
-0.000115366
3.73349e-05
-0.000126658
3.38672e-05
-0.000136782
3.03634e-05
-0.000145745
2.69095e-05
-0.000153632
2.36767e-05
-0.00016049
2.05967e-05
-0.000166432
1.78043e-05
-0.000171389
1.48772e-05
-0.000175486
1.23039e-05
-0.000178775
9.90154e-06
-0.000181292
7.54025e-06
-0.000183036
5.23643e-06
-0.000184094
3.1818e-06
-0.00018444
1.04214e-06
-0.000184083
-1.06504e-06
-0.000183061
-3.03815e-06
-0.000181486
-4.72727e-06
-0.000179208
-6.84014e-06
-0.000176329
-8.64023e-06
-0.000172823
-1.05175e-05
-0.000168673
-1.24544e-05
-0.00016391
-1.42723e-05
-0.00015852
-1.61765e-05
-0.000152459
-1.81832e-05
-0.000145709
-2.02456e-05
-0.000138233
-2.24498e-05
-0.000130088
-2.4429e-05
-0.000121121
-2.69024e-05
-0.00011133
-2.94168e-05
-0.000100771
-3.16567e-05
-8.92785e-05
-3.44838e-05
-7.68965e-05
-3.72089e-05
-6.3623e-05
-3.97337e-05
-4.94305e-05
-4.25568e-05
-3.43783e-05
-4.52167e-05
-1.85401e-05
-4.74246e-05
-1.98658e-06
-4.96111e-05
1.51806e-05
-5.14843e-05
3.28252e-05
-5.28927e-05
5.07651e-05
-5.37865e-05
6.88349e-05
-5.41464e-05
8.67543e-05
-5.37076e-05
0.000104344
-5.27315e-05
0.000121346
-5.09298e-05
0.000137484
-4.83631e-05
0.00015248
-4.49662e-05
0.000166072
-4.06777e-05
0.000177995
-3.57215e-05
0.000188008
-2.99838e-05
0.0001959
-2.36355e-05
0.0002015
-1.67855e-05
0.000204681
-9.50854e-06
0.000205368
-2.07779e-06
0.00020354
5.41271e-06
0.000199218
1.29455e-05
0.000192514
2.00534e-05
0.000183565
2.68689e-05
0.000172586
3.28796e-05
0.000159788
3.8344e-05
0.000145413
4.30687e-05
0.000129786
4.68238e-05
0.000113146
4.98714e-05
9.57731e-05
5.20622e-05
7.79434e-05
5.34378e-05
5.99104e-05
5.40541e-05
4.18899e-05
5.4015e-05
2.40567e-05
5.34526e-05
6.62241e-06
5.22605e-05
-1.02837e-05
5.06946e-05
-2.65627e-05
4.8822e-05
-4.21176e-05
4.66541e-05
-5.68737e-05
4.42649e-05
-7.08024e-05
4.17873e-05
-8.38653e-05
3.91682e-05
-9.6082e-05
3.66275e-05
-0.000107398
3.39568e-05
-0.000117863
3.14237e-05
-0.000127552
2.90734e-05
-0.000136408
2.65538e-05
-0.000144486
2.42242e-05
-0.000151791
2.19143e-05
-0.00015835
1.96703e-05
-0.000164186
1.75371e-05
-0.000169278
1.52706e-05
-0.000173666
1.31505e-05
-0.000177299
1.08998e-05
-0.000180189
8.67329e-06
-0.000182318
6.37562e-06
-0.00018364
3.95811e-06
-0.000184177
1.61975e-06
-0.000183906
-8.05113e-07
-0.000182762
-3.45328e-06
-0.000180758
-5.99527e-06
-0.000177928
-8.47512e-06
-0.000174205
-1.12008e-05
-0.000169631
-1.37057e-05
-0.000164174
-1.63594e-05
-0.000157867
-1.89354e-05
-0.000150705
-2.14884e-05
-0.00014268
-2.4051e-05
-0.000133838
-2.65096e-05
-0.000124195
-2.89331e-05
-0.000113744
-3.13466e-05
-0.000102529
-3.36481e-05
-9.05532e-05
-3.59207e-05
-7.78248e-05
-3.81582e-05
-6.44166e-05
-4.02158e-05
-5.03314e-05
-4.22608e-05
-3.55996e-05
-4.41807e-05
-2.02718e-05
-4.59585e-05
-4.39916e-06
-4.76032e-05
1.19207e-05
-4.89288e-05
2.8621e-05
-5.00795e-05
4.55763e-05
-5.08395e-05
6.26621e-05
-5.12083e-05
7.97213e-05
-5.1139e-05
9.65707e-05
-5.05215e-05
0.000113025
-4.93047e-05
0.00012888
-4.75094e-05
0.000143879
-4.49593e-05
0.000157808
-4.17272e-05
0.000170407
-3.77437e-05
0.000181437
-3.30301e-05
0.000190666
-2.76426e-05
0.000197895
-2.16659e-05
0.000202949
-1.51221e-05
0.000205684
-8.18043e-06
0.000206028
-1.07234e-06
0.000203914
6.31696e-06
0.00019931
1.38119e-05
0.000192357
2.08419e-05
0.000183172
2.75152e-05
0.000171884
3.38215e-05
0.00015871
3.94782e-05
0.00014394
4.42531e-05
0.000127817
4.83143e-05
0.000110623
5.14877e-05
9.263e-05
5.39473e-05
7.41834e-05
5.5274e-05
5.55177e-05
5.59399e-05
3.69251e-05
5.57367e-05
1.85988e-05
5.49692e-05
7.4776e-07
5.34939e-05
-1.64223e-05
5.14801e-05
-3.28199e-05
4.91634e-05
-4.83059e-05
4.64411e-05
-6.28165e-05
4.35379e-05
-7.63419e-05
4.05626e-05
-8.88057e-05
3.73688e-05
-0.000100274
3.43733e-05
-0.000110759
3.15181e-05
-0.000120236
2.84312e-05
-0.000128818
2.57802e-05
-0.000136558
2.31884e-05
-0.000143415
2.05947e-05
-0.000149519
1.83171e-05
-0.000154849
1.59857e-05
-0.000159472
1.387e-05
-0.000163423
1.18662e-05
-0.000166698
9.83155e-06
-0.000169349
7.94869e-06
-0.000171397
6.14366e-06
-0.000172787
4.15294e-06
-0.000173561
2.31428e-06
-0.000173778
6.8191e-07
-0.000173298
-1.45508e-06
-0.000172175
-3.33179e-06
-0.000170425
-5.28171e-06
-0.000167941
-7.46711e-06
-0.000164736
-9.59834e-06
-0.000160746
-1.19958e-05
-0.000155951
-1.441e-05
-0.000150327
-1.68598e-05
-0.000143796
-1.96067e-05
-0.000136285
-2.25183e-05
-0.000127871
-2.52498e-05
-0.000118501
-2.81372e-05
-0.000108114
-3.11315e-05
-9.67046e-05
-3.42272e-05
-8.43568e-05
-3.69802e-05
-7.09348e-05
-4.03146e-05
-5.66472e-05
-4.28281e-05
-4.15936e-05
-4.51578e-05
-2.55616e-05
-4.80855e-05
-9.00404e-06
-4.96501e-05
8.22468e-06
-5.16415e-05
2.59338e-05
-5.31135e-05
4.38226e-05
-5.36395e-05
6.18733e-05
-5.40942e-05
7.98652e-05
-5.39166e-05
9.74635e-05
-5.27752e-05
0.000114579
-5.12929e-05
0.000130937
-4.90027e-05
0.000146284
-4.60013e-05
0.000160411
-4.23575e-05
0.000173095
-3.79824e-05
0.000184153
-3.31383e-05
0.000193299
-2.7397e-05
0.000200471
-2.14701e-05
0.000205514
-1.50971e-05
0.000208229
-8.13034e-06
0.000208629
-1.19803e-06
0.00020674
5.62217e-06
0.000202398
1.3013e-05
0.000195875
1.95571e-05
0.000187329
2.56018e-05
0.000176885
3.12698e-05
0.000164703
3.65193e-05
0.000151079
4.08287e-05
0.000136193
4.46124e-05
0.00012028
4.76768e-05
0.000103659
4.98503e-05
8.65592e-05
5.12221e-05
6.91442e-05
5.21903e-05
5.17431e-05
5.21871e-05
3.45734e-05
5.14511e-05
1.76799e-05
5.0628e-05
1.36592e-06
4.89246e-05
-1.43735e-05
4.7194e-05
-2.93685e-05
4.49627e-05
-4.35267e-05
4.24572e-05
-5.68064e-05
3.98301e-05
-6.91531e-05
3.70312e-05
-8.05663e-05
3.42311e-05
-9.1032e-05
3.1395e-05
-0.000100556
2.85739e-05
-0.000109175
2.58538e-05
-0.000116894
2.31621e-05
-0.00012375
2.05728e-05
-0.000129784
1.81014e-05
-0.000135013
1.56896e-05
-0.000139479
1.3405e-05
-0.00014322
1.12237e-05
-0.000146243
9.0725e-06
-0.000148592
7.05413e-06
-0.000150288
5.08512e-06
-0.000151327
3.13053e-06
-0.000151761
1.33069e-06
-0.000151506
-7.45372e-07
-0.000150569
-2.80363e-06
-0.000148997
-4.71388e-06
-0.000146765
-6.70122e-06
-0.000143911
-8.57118e-06
-0.00014044
-1.04138e-05
-0.000136315
-1.23759e-05
-0.000131564
-1.42543e-05
-0.000126186
-1.61302e-05
-0.000120131
-1.81678e-05
-0.000113438
-2.00714e-05
-0.000106049
-2.21634e-05
-9.80223e-05
-2.40833e-05
-8.93734e-05
-2.59453e-05
-7.99654e-05
-2.82243e-05
-6.99048e-05
-3.01798e-05
-3.21856e-05
0.00020457
-4.22386e-05
0.000213368
-3.49363e-05
0.000219904
-2.59299e-05
0.00022402
-1.63067e-05
0.000225736
-6.82839e-06
0.000224847
3.25531e-06
0.000221477
1.32317e-05
0.000215677
2.31087e-05
0.00020744
3.29082e-05
0.00019711
4.11895e-05
0.00018477
4.92197e-05
0.000170574
5.66997e-05
0.000154975
6.22351e-05
0.000138018
6.76623e-05
0.000120171
7.12799e-05
0.000101613
7.40699e-05
8.24784e-05
7.63776e-05
6.32169e-05
7.69839e-05
4.39892e-05
7.67509e-05
2.49022e-05
7.62059e-05
6.35962e-06
7.41134e-05
-1.17168e-05
7.21949e-05
-2.90725e-05
6.93387e-05
-4.5598e-05
6.60379e-05
-6.12188e-05
6.24336e-05
-7.58481e-05
5.84809e-05
-8.94954e-05
5.45715e-05
-0.000102112
5.04389e-05
-0.000113693
4.63228e-05
-0.000124273
4.23088e-05
-0.000133857
3.83251e-05
-0.000142472
3.44729e-05
-0.000150157
3.07414e-05
-0.000156948
2.71682e-05
-0.000162876
2.37139e-05
-0.000167976
2.03994e-05
-0.000172272
1.71777e-05
-0.000175795
1.40819e-05
-0.000178575
1.11044e-05
-0.000180611
8.11139e-06
-0.000181933
5.35973e-06
-0.000182559
2.62646e-06
-0.000182435
-3.99871e-07
-0.000181643
-3.12827e-06
-0.000180094
-6.24298e-06
-0.000177811
-9.09854e-06
-0.000174887
-1.17102e-05
-0.000171096
-1.52071e-05
-0.000166547
-1.81783e-05
-0.000161287
-2.10629e-05
-0.000155009
-2.51629e-05
-0.00014793
-2.83068e-05
-0.000139852
-3.22917e-05
-0.000130781
-3.63347e-05
-0.000120913
-3.94697e-05
-0.000110039
-4.35571e-05
-9.79929e-05
-4.81216e-05
-8.52346e-05
-5.10462e-05
-7.14435e-05
-5.51297e-05
-5.67706e-05
-5.87294e-05
-4.12506e-05
-6.20556e-05
-2.49144e-05
-6.52377e-05
-8.02778e-06
-6.75101e-05
9.39791e-06
-6.96334e-05
2.73021e-05
-7.15005e-05
4.53333e-05
-7.20814e-05
6.34669e-05
-7.24172e-05
8.14668e-05
-7.18714e-05
9.91908e-05
-7.08277e-05
0.000116437
-6.88419e-05
0.00013296
-6.59376e-05
0.000148513
-6.21556e-05
0.000162935
-5.75199e-05
0.000176018
-5.22734e-05
0.00018749
-4.57674e-05
0.000197256
-3.88871e-05
0.000205119
-3.1423e-05
0.000210823
-2.27318e-05
0.000214426
-1.42874e-05
0.000215656
-4.92261e-06
0.000214457
4.72676e-06
0.000211008
1.37824e-05
0.000205148
2.34103e-05
0.000197054
3.23158e-05
0.000186842
4.06985e-05
0.000174611
4.87795e-05
0.000160656
5.5719e-05
0.000145154
6.18237e-05
0.000128363
6.71003e-05
0.000110425
7.15088e-05
9.17028e-05
7.47432e-05
7.24529e-05
7.68586e-05
5.28615e-05
7.81995e-05
3.31778e-05
7.86484e-05
1.36844e-05
7.78387e-05
-5.44069e-06
7.63925e-05
-2.40033e-05
7.41284e-05
-4.1813e-05
7.11849e-05
-5.87345e-05
6.76236e-05
-7.46372e-05
6.35312e-05
-8.94728e-05
5.9242e-05
-0.000103116
5.46641e-05