/*--------------------------------*- C++ -*----------------------------------*\
| =========                 |                                                 |
| \\      /  F ield         | OpenFOAM: The Open Source CFD Toolbox           |
|  \\    /   O peration     | Version:  3.0.1                                 |
|   \\  /    A nd           | Web:      www.OpenFOAM.org                      |
|    \\/     M anipulation  |                                                 |
\*---------------------------------------------------------------------------*/
FoamFile
{
    version     2.0;
    format      ascii;
    class       volScalarField;
    location    "19.6";
    object      p_rgh;
}
// * * * * * * * * * * * * * * * * * * * * * * * * * * * * * * * * * * * * * //

dimensions      [1 -1 -2 0 0 0 0];

internalField   nonuniform List<scalar> 
21420
(
-333.768
-329.204
-323.129
-315.534
-306.395
-295.642
-283.231
-269.109
-253.23
-235.561
-216.076
-194.758
-171.622
-146.706
-120.064
-91.7964
-62.0312
-30.922
1.27371
34.0812
67.8164
101.922
136.003
169.709
202.615
234.32
264.4
292.442
318.094
340.998
360.818
377.28
390.141
399.206
404.339
405.378
402.382
395.4
384.478
369.83
351.658
330.243
305.88
278.91
249.728
218.715
186.266
152.773
118.609
84.1039
49.5212
20.868
-11.9118
-43.6368
-74.0856
-103.116
-130.602
-156.444
-180.589
-202.994
-223.645
-242.538
-259.675
-275.075
-288.751
-300.718
-310.999
-319.6
-326.533
-331.816
-335.468
-337.477
-337.816
-336.574
-333.721
-329.261
-323.208
-315.568
-306.325
-295.501
-283.119
-269.179
-253.697
-236.689
-218.166
-198.141
-176.623
-153.628
-129.185
-103.33
-76.1178
-47.6307
-17.9727
12.7275
44.2375
76.3341
108.742
141.147
173.213
204.579
234.858
263.679
290.663
315.418
337.599
356.887
372.972
385.592
394.526
399.601
400.644
397.69
390.739
379.795
365.034
346.663
324.947
300.212
272.828
243.203
211.765
178.959
145.229
111.003
76.6869
42.6544
9.2434
-23.2537
-54.5851
-84.5452
-112.971
-139.736
-164.753
-187.964
-209.337
-228.86
-246.538
-262.389
-276.439
-288.721
-299.278
-308.157
-315.402
-321.057
-325.197
-327.83
-328.948
-328.687
-327.015
-323.949
-319.484
-313.6
-306.299
-297.551
-287.318
-275.574
-262.279
-247.404
-230.925
-212.814
-193.064
-171.674
-148.662
-124.064
-97.9464
-70.3977
-41.5416
-11.5332
19.5518
51.2692
83.4586
115.824
148.026
179.699
210.47
239.934
267.696
293.367
316.549
336.893
354.09
367.861
377.974
384.253
386.531
384.882
379.225
369.669
356.315
339.372
319.079
295.729
269.657
241.238
210.872
178.973
145.966
112.267
78.2833
44.3983
10.9602
-21.7255
-53.393
-83.8182
-112.821
-140.26
-166.028
-190.05
-212.275
-232.673
-251.229
-267.941
-282.82
-295.887
-307.166
-316.678
-324.458
-330.554
-334.997
-337.806
-339.027
-338.734
-336.945
-333.689
-328.989
-322.883
-315.38
-306.494
-296.225
-284.562
-271.502
-257.022
-241.098
-223.705
-204.821
-184.426
-162.504
-139.055
-114.104
-87.6966
-59.9118
-30.8589
-0.264194
30.8256
62.5986
94.7539
126.95
158.805
189.907
219.824
248.122
274.374
298.146
319.043
336.728
350.887
361.266
367.686
369.993
368.185
362.26
352.376
338.63
321.275
300.589
276.903
250.588
222.041
191.679
159.927
127.204
93.9138
60.4442
27.1568
-5.62902
-37.5931
-68.4741
-98.296
-126.808
-153.896
-179.481
-203.49
-225.901
-246.691
-265.847
-283.371
-299.254
-313.495
-326.096
-337.058
-346.383
-354.073
-360.139
-364.598
-367.45
-368.706
-368.293
-366.307
-362.752
-357.633
-350.969
-342.766
-333.026
-321.778
-309.036
-294.797
-279.089
-261.92
-243.305
-223.267
-201.811
-178.982
-154.834
-129.419
-102.828
-75.3836
-47.2654
-18.1488
11.6287
41.8641
72.2678
102.533
132.384
161.476
189.48
216.041
240.796
263.435
283.63
301.073
315.505
326.684
334.401
338.517
338.789
335.228
327.888
316.836
302.163
284.053
262.743
238.537
211.746
182.751
151.933
119.713
86.5568
52.8976
19.2029
-14.0098
-46.2547
-75.8221
-104.925
-133.223
-160.061
-185.189
-208.446
-333.826
-329.263
-323.19
-315.597
-306.46
-295.71
-283.302
-269.183
-253.306
-235.639
-216.157
-194.839
-171.705
-146.788
-120.144
-91.8745
-62.1048
-30.9893
1.21396
34.028
67.7753
101.895
135.991
169.713
202.636
234.358
264.457
292.517
318.186
341.107
360.941
377.416
390.287
399.359
404.502
405.535
402.535
395.548
384.618
369.959
351.773
330.342
305.962
278.975
249.775
218.745
186.278
152.771
118.594
84.0806
49.4999
20.788
-11.9861
-43.7121
-74.1633
-103.196
-130.683
-156.525
-180.669
-203.074
-223.722
-242.614
-259.749
-275.147
-288.822
-300.788
-311.068
-319.668
-326.6
-331.883
-335.535
-337.541
-337.882
-336.64
-333.787
-329.328
-323.275
-315.636
-306.393
-295.569
-283.188
-269.249
-253.768
-236.76
-218.238
-198.214
-176.697
-153.702
-129.26
-103.404
-76.1909
-47.7011
-18.0389
12.667
44.1846
76.2912
108.711
141.129
173.209
204.592
234.887
263.726
290.727
315.499
337.696
356.999
373.097
385.729
394.672
399.759
400.794
397.841
390.886
379.935
365.163
346.778
325.045
300.292
272.889
243.245
211.787
178.963
145.216
110.974
76.6445
42.6002
9.17949
-23.3254
-54.6627
-84.627
-113.055
-139.822
-164.839
-188.05
-209.421
-228.943
-246.619
-262.468
-276.516
-288.795
-299.35
-308.227
-315.47
-321.123
-325.262
-327.891
-329.01
-328.748
-327.076
-324.01
-319.545
-313.663
-306.364
-297.617
-287.386
-275.644
-262.352
-247.478
-231.001
-212.892
-193.144
-171.755
-148.743
-124.144
-98.0249
-70.4732
-41.6128
-11.5977
19.492
51.2195
83.4201
115.798
148.015
179.704
210.492
239.973
267.754
293.443
316.642
337.002
354.214
367.996
378.119
384.404
386.691
385.03
379.371
369.809
356.446
339.489
319.182
295.815
269.726
241.289
210.904
178.987
145.962
112.247
78.2498
44.3522
10.9035
-21.7908
-53.4651
-83.8953
-112.902
-140.343
-166.112
-190.134
-212.358
-232.755
-251.311
-268.022
-282.898
-295.964
-307.241
-316.751
-324.531
-330.625
-335.067
-337.87
-339.093
-338.798
-337.009
-333.752
-329.052
-322.945
-315.442
-306.556
-296.289
-284.627
-271.568
-257.09
-241.167
-223.776
-204.894
-184.501
-162.58
-139.133
-114.181
-87.773
-59.9857
-30.9287
-0.328271
30.769
62.5524
94.7202
126.931
158.803
189.922
219.858
248.175
274.447
298.237
319.152
336.853
351.025
361.414
367.84
370.156
368.338
362.409
352.518
338.761
321.392
300.69
276.987
250.654
222.088
191.707
159.938
127.198
93.8931
60.4103
27.1116
-5.68338
-37.654
-68.5409
-98.3666
-126.881
-153.97
-179.556
-203.565
-225.975
-246.764
-265.919
-283.442
-299.324
-313.564
-326.164
-337.125
-346.45
-354.138
-360.204
-364.662
-367.513
-368.766
-368.356
-366.369
-362.814
-357.694
-351.031
-342.828
-333.088
-321.841
-309.098
-294.86
-279.152
-261.984
-243.37
-223.331
-201.875
-179.046
-154.897
-129.48
-102.886
-75.4371
-47.3156
-18.1935
11.5916
41.8363
72.2508
102.528
132.392
161.499
189.517
216.094
240.864
263.518
283.728
301.185
315.628
326.817
334.542
338.661
338.945
335.372
328.032
316.973
302.29
284.168
262.843
238.621
211.813
182.799
151.963
119.725
86.5503
52.8737
19.162
-14.0675
-46.3226
-75.8839
-104.996
-133.304
-160.148
-185.281
-208.539
-333.943
-329.382
-323.312
-315.724
-306.591
-295.846
-283.444
-269.33
-253.459
-235.796
-216.317
-195.002
-171.869
-146.952
-120.306
-92.0307
-62.2519
-31.1241
1.09465
33.9217
67.6934
101.84
135.965
169.72
202.677
234.436
264.571
292.667
318.371
341.324
361.188
377.688
390.579
399.666
404.818
405.858
402.843
395.846
384.899
370.217
352.003
330.541
306.128
279.104
249.869
218.804
186.304
152.765
118.563
84.0338
49.4601
20.6256
-12.1345
-43.8623
-74.3184
-103.355
-130.844
-156.687
-180.829
-203.232
-223.877
-242.765
-259.897
-275.291
-288.962
-300.926
-311.203
-319.8
-326.731
-332.014
-335.665
-337.664
-338.011
-336.768
-333.915
-329.455
-323.402
-315.763
-306.522
-295.698
-283.318
-269.38
-253.899
-236.893
-218.371
-198.349
-176.833
-153.84
-129.398
-103.541
-76.3249
-47.8295
-18.1591
12.5583
44.0911
76.2176
108.66
141.104
173.215
204.629
234.957
263.83
290.867
315.671
337.901
357.234
373.358
386.012
394.974
400.075
401.113
398.152
391.189
380.223
365.429
347.015
325.249
300.46
273.019
243.335
211.839
178.978
145.196
110.924
76.5665
42.4988
9.05873
-23.4615
-54.8105
-84.783
-113.216
-139.986
-165.003
-188.213
-209.582
-229.1
-246.772
-262.617
-276.66
-288.935
-299.485
-308.357
-315.596
-321.246
-325.381
-328.002
-329.124
-328.859
-327.187
-324.121
-319.657
-313.776
-306.481
-297.737
-287.509
-275.772
-262.484
-247.615
-231.142
-213.036
-193.291
-171.903
-148.892
-124.293
-98.1699
-70.6123
-41.7434
-11.7154
19.3844
51.1317
83.3543
115.758
148.004
179.724
210.546
240.063
267.879
293.605
316.838
337.229
354.47
368.275
378.416
384.712
387.018
385.333
379.673
370.096
356.713
339.731
319.394
295.994
269.869
241.395
210.973
179.021
145.961
112.215
78.1884
44.2658
10.7962
-21.9153
-53.6031
-84.0432
-113.056
-140.502
-166.273
-190.295
-212.518
-232.913
-251.466
-268.174
-283.047
-296.109
-307.383
-316.89
-324.665
-330.757
-335.195
-337.99
-339.216
-338.917
-337.125
-333.866
-329.164
-323.057
-315.554
-306.669
-296.403
-284.743
-271.687
-257.212
-241.294
-223.906
-205.028
-184.639
-162.721
-139.275
-114.323
-87.9126
-60.1202
-31.0552
-0.443739
30.6685
62.4727
94.6655
126.906
158.81
189.964
219.937
248.293
274.605
298.432
319.381
337.113
351.311
361.72
368.159
370.494
368.65
362.718
352.811
339.031
321.634
300.9
277.162
250.792
222.189
191.771
159.966
127.193
93.8575
60.348
27.0265
-5.78713
-37.7711
-68.6703
-98.5037
-127.024
-154.116
-179.703
-203.712
-226.12
-246.907
-266.06
-283.581
-299.462
-313.7
-326.298
-337.257
-346.581
-354.267
-360.332
-364.79
-367.639
-368.884
-368.479
-366.492
-362.937
-357.817
-351.154
-342.951
-333.211
-321.964
-309.223
-294.985
-279.278
-262.111
-243.498
-223.46
-202.004
-179.174
-155.023
-129.602
-103.003
-75.5436
-47.4158
-18.2827
11.5175
41.7808
72.2169
102.518
132.409
161.544
189.592
216.199
241.001
263.685
283.924
301.407
315.875
327.083
334.823
338.949
339.254
335.662
328.321
317.246
302.544
284.398
263.043
238.789
211.946
182.896
152.022
119.747
86.5372
52.8257
19.0801
-14.183
-46.4589
-76.0074
-105.139
-133.466
-160.324
-185.464
-208.726
-334.117
-329.561
-323.496
-315.913
-306.788
-296.05
-283.656
-269.551
-253.688
-236.032
-216.558
-195.247
-172.117
-147.199
-120.548
-92.2652
-62.473
-31.3267
0.91504
33.7624
67.5703
101.757
135.926
169.73
202.74
234.552
264.742
292.892
318.648
341.65
361.558
378.096
391.018
400.125
405.284
406.346
403.308
396.292
385.321
370.604
352.349
330.84
306.375
279.299
250.01
218.892
186.341
152.757
118.517
83.9624
49.3982
20.3838
-12.3564
-44.0875
-74.5511
-103.593
-131.086
-156.93
-181.07
-203.469
-224.109
-242.992
-260.118
-275.506
-289.172
-301.132
-311.405
-319.999
-326.928
-332.209
-335.859
-337.851
-338.205
-336.959
-334.106
-329.646
-323.593
-315.955
-306.714
-295.892
-283.512
-269.575
-254.096
-237.091
-218.571
-198.55
-177.037
-154.046
-129.604
-103.746
-76.5253
-48.0216
-18.3389
12.3958
43.9516
76.1077
108.585
141.069
173.223
204.685
235.064
263.988
291.076
315.931
338.21
357.588
373.751
386.439
395.426
400.54
401.599
398.622
391.645
380.655
365.828
347.371
325.556
300.712
273.214
243.471
211.917
179
145.167
110.848
76.4498
42.347
8.87775
-23.6656
-55.0322
-85.017
-113.458
-140.231
-165.25
-188.457
-209.822
-229.335
-247.002
-262.84
-276.876
-289.144
-299.687
-308.553
-315.785
-321.429
-325.558
-328.17
-329.293
-329.025
-327.352
-324.287
-319.824
-313.947
-306.656
-297.917
-287.695
-275.964
-262.682
-247.819
-231.353
-213.252
-193.511
-172.126
-149.115
-124.515
-98.3868
-70.8205
-41.9389
-11.8918
19.2239
51.0006
83.2562
115.698
147.988
179.755
210.627
240.197
268.068
293.848
317.133
337.572
354.854
368.695
378.862
385.174
387.502
385.793
380.128
370.528
357.115
340.095
319.713
296.262
270.084
241.555
211.078
179.071
145.96
112.166
78.0964
44.1362
10.6352
-22.102
-53.8099
-84.2649
-113.288
-140.74
-166.514
-190.536
-212.758
-233.15
-251.699
-268.402
-283.27
-296.326
-307.595
-317.097
-324.867
-330.954
-335.384
-338.173
-339.399
-339.094
-337.298
-334.037
-329.333
-323.225
-315.722
-306.837
-296.574
-284.917
-271.865
-257.396
-241.482
-224.101
-205.229
-184.844
-162.93
-139.487
-114.535
-88.1214
-60.3211
-31.2446
-0.615994
30.5186
62.3539
94.5842
126.868
158.821
190.028
220.057
248.472
274.842
298.726
319.726
337.505
351.742
362.18
368.637
370.991
369.127
363.185
353.252
339.439
321.999
301.216
277.425
251
222.34
191.867
160.009
127.186
93.8044
60.2549
26.899
-5.94267
-37.9466
-68.8646
-98.7094
-127.239
-154.335
-179.923
-203.932
-226.338
-247.122
-266.272
-283.789
-299.668
-313.904
-326.499
-337.456
-346.778
-354.462
-360.524
-364.98
-367.826
-369.065
-368.666
-366.677
-363.121
-358.002
-351.338
-343.136
-333.396
-322.15
-309.409
-295.173
-279.467
-262.302
-243.69
-223.653
-202.196
-179.365
-155.211
-129.786
-103.178
-75.7036
-47.5664
-18.4167
11.4062
41.6974
72.166
102.504
132.434
161.612
189.704
216.358
241.206
263.935
284.218
301.742
316.244
327.483
335.245
339.382
339.712
336.102
328.754
317.657
302.926
284.742
263.344
239.041
212.145
183.041
152.112
119.782
86.5175
52.7536
18.957
-14.3569
-46.6647
-76.1917
-105.352
-133.709
-160.587
-185.74
-209.007
-334.35
-329.799
-323.741
-316.166
-307.05
-296.323
-283.939
-269.845
-253.992
-236.346
-216.879
-195.574
-172.446
-147.527
-120.872
-92.5782
-62.7681
-31.5975
0.674117
33.5503
67.406
101.646
135.875
169.744
202.822
234.707
264.97
293.192
319.017
342.085
362.052
378.641
391.603
400.738
405.909
406.99
403.933
396.889
385.883
371.12
352.81
331.238
306.706
279.559
250.198
219.009
186.391
152.745
118.455
83.8649
49.3088
20.0677
-12.651
-44.3878
-74.8614
-103.912
-131.408
-157.253
-181.391
-203.785
-224.419
-243.294
-260.412
-275.794
-289.453
-301.407
-311.675
-320.264
-327.19
-332.469
-336.117
-338.103
-338.462
-337.215
-334.36
-329.901
-323.848
-316.211
-306.971
-296.15
-283.772
-269.836
-254.358
-237.356
-218.838
-198.819
-177.309
-154.321
-129.879
-104.02
-76.793
-48.2782
-18.5792
12.1785
43.7653
75.9607
108.484
141.021
173.234
204.76
235.205
264.199
291.356
316.278
338.621
358.059
374.276
387.008
396.029
401.16
402.242
399.253
392.254
381.233
366.36
347.846
325.965
301.048
273.473
243.652
212.021
179.03
145.128
110.747
76.2935
42.1439
8.63587
-23.9383
-55.3281
-85.3294
-113.781
-140.559
-165.579
-188.783
-210.143
-229.65
-247.308
-263.137
-277.165
-289.423
-299.956
-308.813
-316.036
-321.674
-325.793
-328.395
-329.519
-329.247
-327.573
-324.508
-320.047
-314.174
-306.889
-298.157
-287.942
-276.219
-262.947
-248.092
-231.634
-213.54
-193.804
-172.423
-149.413
-124.811
-98.6764
-71.0985
-42.2001
-12.1283
19.0104
50.8255
83.1252
115.619
147.966
179.795
210.736
240.377
268.319
294.172
317.525
338.028
355.368
369.255
379.458
385.791
388.137
386.417
380.736
371.105
357.652
340.58
320.137
296.62
270.371
241.769
211.218
179.139
145.959
112.1
77.9733
43.9629
10.4201
-22.3514
-54.0862
-84.561
-113.598
-141.057
-166.835
-190.858
-213.078
-233.466
-252.009
-268.707
-283.568
-296.617
-307.878
-317.373
-325.136
-331.216
-335.636
-338.419
-339.642
-339.33
-337.529
-334.265
-329.558
-323.448
-315.945
-307.062
-296.803
-285.149
-272.102
-257.64
-241.734
-224.36
-205.496
-185.118
-163.21
-139.77
-114.818
-88.4
-60.5892
-31.4995
-0.844739
30.3182
62.195
94.4752
126.817
158.836
190.114
220.217
248.711
275.159
299.116
320.187
338.028
352.317
362.794
369.275
371.639
369.775
363.813
353.841
339.982
322.485
301.638
277.776
251.277
222.542
191.995
160.066
127.176
93.733
60.1302
26.7285
-6.15048
-38.1808
-69.1242
-98.984
-127.525
-154.627
-180.217
-204.225
-226.628
-247.409
-266.555
-284.068
-299.943
-314.176
-326.768
-337.722
-347.04
-354.721
-360.781
-365.232
-368.073
-369.311
-368.913
-366.924
-363.367
-358.247
-351.584
-343.382
-333.643
-322.397
-309.658
-295.423
-279.719
-262.556
-243.946
-223.91
-202.453
-179.62
-155.462
-130.031
-103.413
-75.9173
-47.7676
-18.5958
11.2574
41.5858
72.0977
102.484
132.467
161.702
189.854
216.569
241.479
264.269
284.611
302.188
316.737
328.016
335.808
339.961
340.315
336.696
329.332
318.206
303.435
285.202
263.745
239.377
212.411
183.234
152.231
119.827
86.4909
52.6574
18.7927
-14.5898
-46.9419
-76.4358
-105.637
-134.033
-160.939
-186.107
-209.381
-334.641
-330.097
-324.046
-316.482
-307.377
-296.663
-284.293
-270.213
-254.374
-236.739
-217.281
-195.983
-172.858
-147.939
-121.277
-92.9699
-63.1379
-31.937
0.371242
33.2854
67.2003
101.507
135.81
169.76
202.925
234.9
265.255
293.566
319.478
342.628
362.67
379.322
392.334
401.506
406.693
407.789
404.718
397.637
386.587
371.766
353.386
331.735
307.119
279.883
250.432
219.155
186.453
152.73
118.375
83.7395
49.186
19.6828
-13.0172
-44.7629
-75.2496
-104.31
-131.812
-157.658
-181.793
-204.181
-224.806
-243.672
-260.781
-276.153
-289.804
-301.751
-312.013
-320.596
-327.518
-332.794
-336.437
-338.422
-338.784
-337.534
-334.679
-330.22
-324.167
-316.53
-307.292
-296.473
-284.096
-270.162
-254.686
-237.687
-219.172
-199.156
-177.649
-154.664
-130.224
-104.362
-77.1281
-48.5998
-18.8806
11.9059
43.5319
75.7762
108.358
140.961
173.248
204.853
235.382
264.461
291.705
316.711
339.135
358.649
374.931
387.719
396.783
401.939
403.039
400.047
393.017
381.955
367.026
348.441
326.477
301.469
273.797
243.878
212.15
179.067
145.079
110.619
76.0974
41.8892
8.3327
-24.2799
-55.6989
-85.7206
-114.185
-140.969
-165.99
-189.192
-210.545
-230.043
-247.691
-263.509
-277.526
-289.772
-300.294
-309.138
-316.351
-321.979
-326.087
-328.677
-329.801
-329.524
-327.849
-324.785
-320.326
-314.458
-307.181
-298.457
-288.251
-276.539
-263.278
-248.434
-231.985
-213.9
-194.172
-172.795
-149.786
-125.181
-99.039
-71.4469
-42.5274
-12.4257
18.7436
50.6059
82.9607
115.518
147.937
179.845
210.871
240.6
268.634
294.577
318.016
338.599
356.01
369.956
380.203
386.564
388.923
387.203
381.498
371.827
358.322
341.187
320.669
297.068
270.73
242.035
211.392
179.222
145.956
112.017
77.8186
43.7454
10.1505
-22.6639
-54.4322
-84.9318
-113.985
-141.455
-167.238
-191.261
-213.478
-233.861
-252.397
-269.087
-283.94
-296.98
-308.232
-317.718
-325.473
-331.543
-335.951
-338.729
-339.945
-339.625
-337.818
-334.549
-329.839
-323.728
-316.224
-307.343
-297.088
-285.439
-272.399
-257.946
-242.049
-224.685
-205.83
-185.461
-163.56
-140.125
-115.173
-88.7489
-60.925
-31.82
-1.13079
30.0666
61.9954
94.3383
126.753
158.853
190.22
220.417
249.008
275.555
299.605
320.763
338.682
353.036
363.563
370.073
372.446
370.586
364.598
354.578
340.662
323.094
302.164
278.215
251.623
222.794
192.154
160.137
127.162
93.6432
59.9737
26.5145
-6.41093
-38.474
-69.4494
-99.328
-127.883
-154.993
-180.585
-204.592
-226.991
-247.768
-266.909
-284.415
-300.286
-314.516
-327.104
-338.054
-347.369
-355.045
-361.101
-365.547
-368.382
-369.618
-369.223
-367.232
-363.675
-358.555
-351.891
-343.69
-333.951
-322.707
-309.969
-295.736
-280.035
-262.874
-244.266
-224.231
-202.775
-179.939
-155.776
-130.337
-103.707
-76.1851
-48.0197
-18.8203
11.0708
41.4458
72.0119
102.458
132.508
161.814
190.041
216.833
241.82
264.686
285.101
302.745
317.354
328.683
336.513
340.688
341.059
337.444
330.055
318.892
304.072
285.776
264.247
239.797
212.744
183.476
152.38
119.883
86.4574
52.5368
18.5868
-14.8826
-47.2935
-76.7377
-105.992
-134.44
-161.38
-186.567
-209.85
-334.99
-330.454
-324.413
-316.861
-307.77
-297.071
-284.718
-270.655
-254.831
-237.211
-217.764
-196.473
-173.353
-148.433
-121.763
-93.4407
-63.5827
-32.346
0.00616003
32.9675
66.9527
101.339
135.731
169.779
203.048
235.132
265.597
294.016
320.032
343.281
363.411
380.14
393.214
402.428
407.637
408.743
405.662
398.537
387.432
372.542
354.078
332.333
307.615
280.272
250.712
219.329
186.526
152.71
118.277
83.5843
49.0238
19.2341
-13.4539
-45.2127
-75.7157
-104.788
-132.297
-158.144
-182.275
-204.655
-225.271
-244.126
-261.223
-276.584
-290.225
-302.164
-312.418
-320.994
-327.912
-333.184
-336.82
-338.805
-339.169
-337.918
-335.061
-330.603
-324.55
-316.914
-307.678
-296.86
-284.486
-270.554
-255.08
-238.084
-219.573
-199.56
-178.057
-155.077
-130.638
-104.773
-77.5309
-48.9869
-19.2434
11.5775
43.2507
75.5536
108.205
140.887
173.263
204.964
235.593
264.775
292.123
317.231
339.752
359.356
375.719
388.574
397.688
402.876
403.993
401
393.934
382.824
367.825
349.155
327.091
301.973
274.186
244.148
212.304
179.11
145.019
110.465
75.8607
41.5825
7.96782
-24.691
-56.1447
-86.1908
-114.67
-141.462
-166.484
-189.682
-211.027
-230.515
-248.151
-263.956
-277.958
-290.191
-300.698
-309.529
-316.728
-322.345
-326.439
-329.018
-330.14
-329.857
-328.18
-325.117
-320.66
-314.799
-307.531
-298.817
-288.623
-276.923
-263.675
-248.844
-232.407
-214.333
-194.613
-173.242
-150.234
-125.627
-99.4749
-71.866
-42.9211
-12.7843
18.4231
50.3415
82.7623
115.396
147.901
179.905
211.032
240.868
269.01
295.062
318.605
339.284
356.781
370.797
381.098
387.493
389.865
388.149
382.413
372.696
359.128
341.915
321.306
297.605
271.16
242.354
211.6
179.321
145.951
111.917
77.6317
43.4832
9.82584
-23.0399
-54.8484
-85.3776
-114.451
-141.933
-167.721
-191.745
-213.959
-234.335
-252.864
-269.544
-284.387
-297.415
-308.657
-318.133
-325.877
-331.936
-336.331
-339.101
-340.308
-339.98
-338.165
-334.891
-330.176
-324.063
-316.559
-307.681
-297.43
-285.788
-272.756
-258.312
-242.426
-225.074
-206.231
-185.873
-163.981
-140.551
-115.599
-89.1683
-61.3284
-32.204
-1.47717
29.7629
61.7547
94.1727
126.675
158.873
190.346
220.656
249.365
276.029
300.192
321.454
339.467
353.9
364.485
371.033
373.418
371.559
365.54
355.465
341.478
323.824
302.797
278.741
252.038
223.096
192.345
160.22
127.144
93.5346
59.7848
26.2566
-6.72451
-38.8266
-69.8406
-99.7416
-128.314
-155.432
-181.027
-205.033
-227.428
-248.198
-267.333
-284.833
-300.699
-314.924
-327.507
-338.452
-347.762
-355.434
-361.485
-365.926
-368.755
-369.987
-369.593
-367.602
-364.044
-358.924
-352.26
-344.059
-334.321
-323.078
-310.342
-296.112
-280.414
-263.256
-244.651
-224.617
-203.161
-180.322
-156.153
-130.705
-104.06
-76.507
-48.3232
-19.0907
10.8459
41.2772
71.9082
102.427
132.557
161.948
190.264
217.149
242.228
265.186
285.689
303.414
318.095
329.484
337.36
341.562
341.949
338.342
330.923
319.716
304.837
286.467
264.849
240.302
213.143
183.765
152.558
119.95
86.4164
52.3917
18.339
-15.2362
-47.7235
-77.094
-106.418
-134.929
-161.911
-187.12
-210.413
-335.397
-330.87
-324.841
-317.303
-308.228
-297.547
-285.214
-271.17
-255.366
-237.762
-218.328
-197.047
-173.932
-149.01
-122.332
-93.9912
-64.1033
-32.8252
-0.421404
32.5959
66.6627
101.142
135.637
169.8
203.191
235.401
265.995
294.54
320.678
344.043
364.277
381.095
394.24
403.505
408.742
409.858
406.761
399.588
388.419
373.448
354.886
333.03
308.193
280.725
251.039
219.531
186.609
152.685
118.16
83.397
48.8172
18.7257
-13.9603
-45.7372
-76.2601
-105.346
-132.864
-158.711
-182.838
-205.21
-225.814
-244.655
-261.739
-277.088
-290.717
-302.645
-312.889
-321.459
-328.371
-333.639
-337.268
-339.253
-339.618
-338.365
-335.507
-331.049
-324.997
-317.361
-308.128
-297.313
-284.94
-271.011
-255.539
-238.547
-220.041
-200.032
-178.535
-155.558
-131.121
-105.254
-78.0018
-49.4399
-19.6681
11.193
42.9213
75.2925
108.025
140.8
173.279
205.092
235.839
265.142
292.611
317.838
340.472
360.181
376.638
389.571
398.746
403.972
405.109
402.11
395.007
383.838
368.759
349.988
327.808
302.562
274.639
244.463
212.483
179.159
144.947
110.284
75.583
41.2229
7.54063
-25.172
-56.666
-86.7406
-115.237
-142.038
-167.062
-190.254
-211.59
-231.066
-248.688
-264.477
-278.464
-290.68
-301.171
-309.985
-317.169
-322.771
-326.848
-329.417
-330.534
-330.245
-328.566
-325.503
-321.051
-315.197
-307.939
-299.237
-289.057
-277.371
-264.139
-249.323
-232.9
-214.838
-195.128
-173.763
-150.758
-126.147
-99.9844
-72.3562
-43.3816
-13.2046
18.0484
50.0316
82.5295
115.252
147.859
179.973
211.22
241.179
269.449
295.629
319.293
340.084
357.681
371.78
382.144
388.579
390.967
389.25
383.482
373.71
360.07
342.765
322.051
298.232
271.661
242.726
211.842
179.436
145.945
111.798
77.4121
43.1758
9.44571
-23.48
-55.3353
-85.8989
-114.996
-142.491
-168.285
-192.31
-214.52
-234.889
-253.408
-270.078
-284.908
-297.924
-309.153
-318.616
-326.348
-332.393
-336.775
-339.534
-340.731
-340.393
-338.57
-335.289
-330.57
-324.454
-316.95
-308.074
-297.828
-286.194
-273.172
-258.74
-242.867
-225.528
-206.699
-186.354
-164.472
-141.049
-116.098
-89.6586
-61.7995
-32.6373
-1.89936
29.4063
61.4723
93.9781
126.582
158.894
190.492
220.935
249.78
276.581
300.876
322.26
340.384
354.909
365.564
372.155
374.556
372.694
366.639
356.5
342.432
324.677
303.536
279.355
252.522
223.447
192.567
160.316
127.123
93.4067
59.563
25.9542
-7.09182
-39.2391
-70.2979
-100.225
-128.816
-155.945
-181.543
-205.548
-227.937
-248.7
-267.828
-285.32
-301.18
-315.4
-327.977
-338.917
-348.222
-355.888
-361.933
-366.367
-369.191
-370.418
-370.023
-368.031
-364.475
-359.354
-352.69
-344.49
-334.753
-323.511
-310.777
-296.55
-280.856
-263.702
-245.1
-225.068
-203.611
-180.769
-156.594
-131.134
-104.473
-76.8832
-48.6788
-19.4076
10.5825
41.0793
71.7862
102.39
132.613
162.103
190.524
217.518
242.705
265.77
286.376
304.195
318.96
330.42
338.349
342.585
342.99
339.386
331.936
320.678
305.731
287.273
265.552
240.891
213.609
184.103
152.765
120.027
86.3679
52.2219
18.049
-15.6515
-48.2385
-77.4998
-106.913
-135.502
-162.532
-187.766
-211.072
-335.863
-331.346
-325.33
-317.808
-308.751
-298.091
-285.781
-271.759
-255.977
-238.392
-218.973
-197.702
-174.593
-149.671
-122.983
-94.622
-64.7003
-33.3754
-0.911954
32.1702
66.3297
100.914
135.529
169.823
203.353
235.708
266.449
295.139
321.416
344.914
365.268
382.188
395.416
404.739
410.006
411.132
408.016
400.791
389.549
374.484
355.809
333.828
308.853
281.242
251.411
219.761
186.703
152.654
118.022
83.1756
48.5621
18.1605
-14.5356
-46.3363
-76.8829
-105.986
-133.512
-159.361
-183.481
-205.844
-226.434
-245.261
-262.329
-277.663
-291.278
-303.194
-313.429
-321.99
-328.896
-334.158
-337.781
-339.765
-340.128
-338.875
-336.017
-331.559
-325.508
-317.873
-308.642
-297.83
-285.46
-271.533
-256.065
-239.077
-220.575
-200.572
-179.08
-156.108
-131.674
-105.804
-78.5413
-49.9592
-20.1549
10.7515
42.543
74.9922
107.817
140.699
173.296
205.237
236.119
265.559
293.168
318.531
341.295
361.125
377.69
390.713
399.957
405.227
406.385
403.38
396.235
385
369.828
350.942
328.628
303.235
275.156
244.822
212.686
179.214
144.863
110.075
75.2636
40.8099
7.05042
-25.7235
-57.2635
-87.3702
-115.887
-142.697
-167.722
-190.909
-212.235
-231.696
-249.302
-265.073
-279.041
-291.239
-301.711
-310.506
-317.672
-323.258
-327.315
-329.874
-330.984
-330.688
-329.006
-325.945
-321.497
-315.652
-308.405
-299.717
-289.552
-277.883
-264.669
-249.87
-233.463
-215.416
-195.717
-174.36
-151.358
-126.743
-100.568
-72.9176
-43.9097
-13.687
17.6188
49.6759
82.2617
115.086
147.808
180.049
211.432
241.535
269.95
296.276
320.079
340.999
358.711
372.905
383.341
389.822
392.229
390.51
384.704
374.871
361.147
343.737
322.902
298.949
272.234
243.151
212.117
179.566
145.936
111.661
77.1592
42.8223
9.00949
-23.9848
-55.8935
-86.4962
-115.619
-143.13
-168.931
-192.957
-215.162
-235.522
-254.03
-270.688
-285.505
-298.506
-309.72
-319.169
-326.886
-332.916
-337.283
-340.029
-341.215
-340.866
-339.033
-335.743
-331.02
-324.901
-317.396
-308.524
-298.284
-286.658
-273.647
-259.229
-243.371
-226.048
-207.235
-186.904
-165.034
-141.619
-116.668
-90.2203
-62.339
-33.1289
-2.38958
28.9964
61.1477
93.7537
126.474
158.917
190.658
221.252
250.254
277.212
301.658
323.183
341.433
356.063
366.798
373.439
375.86
373.992
367.896
357.686
343.523
325.653
304.38
280.057
253.074
223.848
192.818
160.423
127.096
93.2591
59.3077
25.6066
-7.51353
-39.7121
-70.8216
-100.779
-129.392
-156.533
-182.133
-206.137
-228.519
-249.274
-268.393
-285.877
-301.729
-315.944
-328.515
-339.449
-348.747
-356.407
-362.445
-366.872
-369.689
-370.911
-370.515
-368.523
-364.969
-359.846
-353.181
-344.983
-335.246
-324.006
-311.275
-297.051
-281.361
-264.211
-245.613
-225.584
-204.127
-181.281
-157.098
-131.625
-104.946
-77.3138
-49.0875
-19.7715
10.2799
40.8518
71.6455
102.346
132.676
162.28
190.821
217.938
243.25
266.436
287.16
305.088
319.949
331.49
339.482
343.757
344.181
340.579
333.095
321.779
306.753
288.196
266.357
241.565
214.142
184.489
153.001
120.114
86.3112
52.0271
17.7162
-16.129
-48.8478
-77.9473
-107.48
-136.16
-163.244
-188.507
-211.826
-336.385
-331.88
-325.88
-318.376
-309.34
-298.703
-286.418
-272.422
-256.664
-239.102
-219.7
-198.441
-175.338
-150.416
-123.717
-95.3336
-65.3749
-33.9973
-1.46594
31.6896
65.9529
100.656
135.405
169.846
203.534
236.053
266.959
295.812
322.247
345.894
366.384
383.42
396.74
406.129
411.432
412.567
409.43
402.147
390.822
375.651
356.849
334.725
309.597
281.824
251.829
220.018
186.807
152.616
117.863
82.9178
48.2553
17.5405
-15.1793
-47.0103
-77.5846
-106.706
-134.242
-160.092
-184.207
-206.557
-227.133
-245.942
-262.993
-278.31
-291.91
-303.812
-314.035
-322.588
-329.486
-334.742
-338.36
-340.34
-340.702
-339.449
-336.59
-332.133
-326.083
-318.448
-309.22
-298.413
-286.044
-272.12
-256.656
-239.672
-221.177
-201.18
-179.694
-156.728
-132.297
-106.423
-79.1497
-50.5455
-20.7046
10.2524
42.1151
74.6519
107.582
140.584
173.314
205.399
236.432
266.029
293.794
319.31
342.221
362.188
378.874
391.999
401.322
406.643
407.824
404.81
397.619
386.308
371.032
352.016
329.551
303.991
275.737
245.224
212.913
179.273
144.766
109.836
74.9016
40.3428
6.49636
-26.3463
-57.9379
-88.0805
-116.62
-143.44
-168.466
-191.647
-212.961
-232.406
-249.993
-265.744
-279.69
-291.868
-302.319
-311.093
-318.238
-323.805
-327.842
-330.388
-331.489
-331.186
-329.501
-326.442
-321.998
-316.164
-308.93
-300.257
-290.11
-278.459
-265.265
-250.486
-234.098
-216.067
-196.381
-175.033
-152.033
-127.414
-101.226
-73.551
-44.5059
-14.2323
17.1338
49.2734
81.9581
114.897
147.749
180.133
211.67
241.933
270.513
297.004
320.963
342.029
359.871
374.172
384.689
391.223
393.653
391.928
386.081
376.179
362.36
344.833
323.86
299.755
272.878
243.628
212.426
179.711
145.924
111.504
76.8721
42.4218
8.51647
-24.5551
-56.5236
-87.1699
-116.322
-143.851
-169.66
-193.685
-215.884
-236.235
-254.731
-271.374
-286.175
-299.161
-310.358
-319.791
-327.492
-333.504
-337.855
-340.587
-341.758
-341.398
-339.553
-336.255
-331.526
-325.404
-317.898
-309.03
-298.796
-287.18
-274.182
-259.779
-243.937
-226.632
-207.838
-187.523
-165.667
-142.26
-117.311