/*--------------------------------*- C++ -*----------------------------------*\
| =========                 |                                                 |
| \\      /  F ield         | OpenFOAM: The Open Source CFD Toolbox           |
|  \\    /   O peration     | Version:  3.0.1                                 |
|   \\  /    A nd           | Web:      www.OpenFOAM.org                      |
|    \\/     M anipulation  |                                                 |
\*---------------------------------------------------------------------------*/
FoamFile
{
    version     2.0;
    format      ascii;
    class       volScalarField;
    location    "89.8";
    object      p_rgh;
}
// * * * * * * * * * * * * * * * * * * * * * * * * * * * * * * * * * * * * * //

dimensions      [1 -1 -2 0 0 0 0];

internalField   nonuniform List<scalar> 
21420
(
-279.792
-292.402
-303.671
-313.644
-322.353
-329.831
-336.112
-341.239
-345.266
-348.253
-350.271
-351.374
-351.768
-351.421
-350.432
-348.863
-346.763
-344.166
-341.076
-337.485
-333.36
-328.637
-323.244
-317.092
-310.067
-302.059
-292.95
-282.627
-270.982
-257.927
-243.389
-227.313
-209.676
-190.467
-169.718
-147.48
-123.814
-98.8337
-72.6895
-45.5262
-17.5531
11.007
39.8899
68.7843
97.4287
125.512
152.677
178.617
203.008
225.499
245.784
263.572
278.591
290.624
299.471
304.92
306.92
305.581
300.829
292.547
280.919
266.079
248.197
227.511
204.251
178.757
151.487
122.909
93.4946
63.6005
33.4259
3.40361
-25.9154
-54.9183
-84.4926
-114.511
-144.795
-175.12
-205.226
-234.629
-262.847
-289.538
-314.189
-336.761
-357.027
-375.091
-391.004
-404.988
-417.226
-427.941
-437.355
-445.632
-452.908
-459.272
-464.77
-469.401
-473.124
-475.929
-477.787
-478.651
-478.489
-477.27
-474.969
-471.562
-467.028
-461.348
-454.5
-446.464
-437.218
-426.74
-415.009
-401.999
-387.692
-372.066
-355.1
-336.777
-317.087
-296.031
-273.613
-249.853
-224.788
-198.473
-170.977
-142.398
-112.869
-82.5542
-51.6534
-20.4138
10.8743
41.8896
72.2706
101.635
129.592
155.741
179.701
201.124
219.67
235.046
247.01
255.348
259.919
260.552
257.326
250.165
239.165
224.397
206.073
184.411
159.68
132.218
102.402
70.632
37.33
2.93658
-32.0987
-67.3354
-102.348
-136.739
-170.144
-202.244
-232.77
-261.505
-288.283
-312.995
-335.575
-356.006
-374.308
-390.532
-404.755
-417.065
-427.561
-436.339
-443.498
-449.133
-453.337
-456.199
-457.805
-458.238
-457.571
-455.868
-453.184
-449.574
-445.09
-439.786
-433.717
-426.93
-419.485
-411.44
-402.853
-393.77
-384.229
-374.258
-363.872
-353.07
-341.847
-330.181
-318.052
-305.429
-292.276
-278.551
-264.206
-249.188
-233.437
-216.888
-199.478
-181.146
-161.834
-141.502
-120.132
-97.7362
-74.3774
-50.1577
-25.2173
0.208954
25.8567
51.4445
76.6135
101.004
124.255
145.992
165.852
183.482
198.546
210.75
219.848
225.625
227.744
226.414
221.48
212.973
200.92
185.586
167.229
146.148
122.698
97.2468
70.2042
42.0039
13.0822
-16.1312
-45.2338
-73.8414
-101.625
-128.31
-153.691
-177.633
-200.041
-220.885
-240.176
-257.944
-274.255
-289.185
-302.826
-315.279
-326.654
-337.06
-346.6
-355.371
-363.452
-370.898
-377.75
-384.06
-389.852
-395.161
-400.016
-404.404
-408.299
-411.688
-414.482
-416.589
-418.083
-418.792
-418.645
-417.52
-415.25
-411.657
-406.574
-399.796
-391.179
-380.507
-367.72
-352.588
-335.143
-315.2
-292.845
-268
-240.773
-211.205
-179.39
-145.505
-109.7
-72.1884
-33.2655
6.772
47.5594
88.6852
129.723
170.168
209.61
247.505
283.431
316.904
347.516
374.909
398.703
418.586
434.317
445.694
452.558
455.128
454.05
448.574
438.807
425.369
408.554
388.634
365.997
340.986
313.986
285.465
255.77
225.282
194.434
163.527
132.907
102.827
73.5376
45.2863
18.2135
-7.55082
-31.8992
-54.8045
-76.2504
-96.2447
-114.843
-132.101
-148.099
-162.91
-176.604
-189.255
-200.925
-211.663
-221.51
-230.484
-238.593
-245.824
-252.152
-257.539
-261.942
-265.306
-267.583
-268.727
-268.704
-267.479
-265.003
-261.228
-256.125
-279.849
-292.457
-303.725
-313.696
-322.403
-329.88
-336.158
-341.283
-345.307
-348.291
-350.306
-351.411
-351.797
-351.447
-350.455
-348.885
-346.783
-344.186
-341.097
-337.508
-333.385
-328.666
-323.277
-317.129
-310.109
-302.107
-293.003
-282.684
-271.044
-257.992
-243.457
-227.383
-209.748
-190.54
-169.79
-147.552
-123.883
-98.8988
-72.7496
-45.5798
-17.5989
10.9706
39.8639
68.7702
97.4275
125.525
152.705
178.66
203.066
225.572
245.872
263.674
278.705
290.747
299.602
305.07
307.055
305.711
300.958
292.673
281.037
266.185
248.289
227.588
204.314
178.804
151.517
122.92
93.4907
63.5868
33.4109
3.38284
-25.9487
-54.9442
-84.5037
-114.511
-144.789
-175.11
-205.217
-234.624
-262.849
-289.549
-314.209
-336.787
-357.059
-375.127
-391.041
-405.025
-417.262
-427.975
-437.389
-445.666
-452.943
-459.308
-464.807
-469.441
-473.166
-475.973
-477.833
-478.699
-478.539
-477.321
-475.022
-471.616
-467.084
-461.404
-454.558
-446.524
-437.279
-426.802
-415.072
-402.064
-387.758
-372.134
-355.169
-336.847
-317.159
-296.103
-273.685
-249.924
-224.859
-198.542
-171.043
-142.46
-112.925
-82.6036
-51.6939
-20.4437
10.8569
41.8863
72.2828
101.663
129.637
155.802
179.779
201.216
219.776
235.164
247.137
255.481
260.057
260.702
257.463
250.301
239.296
224.52
206.185
184.51
159.764
132.285
102.451
70.6631
37.3423
2.9303
-32.1228
-67.3763
-102.404
-136.809
-170.225
-202.335
-232.868
-261.607
-288.389
-313.101
-335.681
-356.11
-374.409
-390.629
-404.848
-417.153
-427.645
-436.418
-443.573
-449.204
-453.404
-456.262
-457.865
-458.294
-457.625
-455.919
-453.233
-449.62
-445.134
-439.828
-433.754
-426.967
-419.52
-411.474
-402.884
-393.8
-384.258
-374.287
-363.901
-353.1
-341.878
-330.213
-318.087
-305.466
-292.315
-278.593
-264.251
-249.236
-233.489
-216.943
-199.538
-181.209
-161.901
-141.571
-120.203
-97.8065
-74.4456
-50.2212
-25.2743
0.160687
25.82
51.4211
76.6046
101.011
124.279
146.033
165.911
183.557
198.636
210.854
219.962
225.746
227.887
226.532
221.597
213.085
201.023
185.675
167.301
146.203
122.733
97.2635
70.2021
41.9839
13.0456
-16.183
-45.299
-73.9174
-101.709
-128.4
-153.785
-177.727
-200.134
-220.976
-240.264
-258.028
-274.333
-289.259
-302.894
-315.343
-326.712
-337.114
-346.65
-355.418
-363.496
-370.94
-377.791
-384.099
-389.892
-395.202
-400.057
-404.446
-408.343
-411.734
-414.53
-416.638
-418.133
-418.843
-418.698
-417.574
-415.305
-411.713
-406.63
-399.851
-391.234
-380.56
-367.771
-352.636
-335.188
-315.242
-292.884
-268.036
-240.806
-211.237
-179.42
-145.533
-109.724
-72.2085
-33.2806
6.763
47.5587
88.6939
129.744
170.202
209.658
247.569
283.512
317.004
347.632
375.039
398.847
418.742
434.48
445.863
452.739
455.324
454.195
448.709
438.944
425.495
408.666
388.73
366.075
341.046
314.029
285.491
255.78
225.276
194.415
163.496
132.866
102.778
73.4814
45.225
18.149
-7.61694
-31.9655
-54.8698
-76.3135
-96.3049
-114.9
-132.154
-148.149
-162.956
-176.647
-189.295
-200.963
-211.7
-221.546
-230.52
-238.629
-245.861
-252.19
-257.579
-261.983
-265.349
-267.628
-268.774
-268.752
-267.529
-265.053
-261.28
-256.179
-279.963
-292.567
-303.832
-313.799
-322.503
-329.976
-336.251
-341.371
-345.389
-348.368
-350.378
-351.486
-351.856
-351.499
-350.502
-348.928
-346.824
-344.226
-341.14
-337.553
-333.435
-328.723
-323.342
-317.204
-310.193
-302.201
-293.107
-282.798
-271.167
-258.122
-243.594
-227.524
-209.892
-190.685
-169.935
-147.694
-124.02
-99.0286
-72.8693
-45.6865
-17.6897
10.8984
39.813
68.7429
97.4262
125.552
152.761
178.747
203.184
225.721
246.05
263.878
278.932
290.994
299.864
305.367
307.323
305.976
301.219
292.926
281.273
266.398
248.474
227.745
204.441
178.899
151.577
122.944
93.483
63.5593
33.3808
3.34256
-26.0137
-54.9952
-84.5249
-114.511
-144.774
-175.087
-205.195
-234.611
-262.849
-289.567
-314.242
-336.834
-357.116
-375.19
-391.107
-405.09
-417.324
-428.034
-437.446
-445.723
-453.001
-459.368
-464.868
-469.506
-473.236
-476.046
-477.911
-478.781
-478.623
-477.408
-475.11
-471.707
-467.177
-461.5
-454.655
-446.623
-437.381
-426.907
-415.179
-402.174
-387.871
-372.249
-355.286
-336.966
-317.28
-296.224
-273.806
-250.044
-224.976
-198.655
-171.15
-142.559
-113.013
-82.677
-51.7494
-20.4777
10.8482
41.9058
72.3331
101.746
129.753
155.951
179.959
201.426
220.012
235.423
247.414
255.772
260.357
261.026
257.757
250.596
239.58
224.789
206.433
184.732
159.955
132.443
102.573
70.7486
37.3906
2.94199
-32.1464
-67.4328
-102.49
-136.922
-170.361
-202.489
-233.036
-261.785
-288.572
-313.286
-335.864
-356.29
-374.582
-390.795
-405.004
-417.301
-427.783
-436.548
-443.695
-449.318
-453.51
-456.361
-457.957
-458.38
-457.705
-455.995
-453.304
-449.687
-445.196
-439.886
-433.808
-427.016
-419.564
-411.514
-402.92
-393.833
-384.29
-374.318
-363.932
-353.132
-341.912
-330.25
-318.127
-305.51
-292.364
-278.647
-264.312
-249.304
-233.564
-217.026
-199.629
-181.308
-162.006
-141.681
-120.315
-97.9193
-74.5543
-50.3205
-25.3606
0.0919674
25.7748
51.4024
76.6154
101.055
124.357
146.146
166.059
183.738
198.847
211.092
220.221
226.019
228.203
226.8
221.867
213.341
201.261
185.885
167.479
146.345
122.838
97.3302
70.2318
41.9779
13.0066
-16.2522
-45.3947
-74.0344
-101.842
-128.545
-153.936
-177.88
-200.285
-221.122
-240.403
-258.158
-274.454
-289.37
-302.995
-315.432
-326.791
-337.184
-346.712
-355.473
-363.547
-370.987
-377.836
-384.141
-389.934
-395.245
-400.102
-404.494
-408.395
-411.789
-414.588
-416.7
-418.197
-418.91
-418.769
-417.648
-415.382
-411.792
-406.71
-399.932
-391.314
-380.638
-367.845
-352.706
-335.252
-315.302
-292.94
-268.089
-240.856
-211.284
-179.463
-145.573
-109.76
-72.237
-33.3004
6.75518
47.5656
88.7201
129.791
170.278
209.762
247.704
283.681
317.207
347.868
375.305
399.14
419.057
434.809
446.205
453.1
455.705
454.495
448.987
439.221
425.75
408.89
388.921
366.231
341.167
314.114
285.543
255.8
225.266
194.378
163.435
132.784
102.679
73.3689
45.1026
18.0201
-7.74916
-32.0982
-55.0003
-76.4398
-96.4254
-115.013
-132.261
-148.248
-163.048
-176.733
-189.376
-201.04
-211.773
-221.618
-230.591
-238.701
-245.935
-252.266
-257.658
-262.065
-265.435
-267.718
-268.868
-268.849
-267.63
-265.154
-261.384
-256.286
-280.134
-292.732
-303.992
-313.954
-322.654
-330.122
-336.39
-341.503
-345.513
-348.482
-350.484
-351.597
-351.943
-351.576
-350.571
-348.992
-346.885
-344.287
-341.203
-337.621
-333.511
-328.808
-323.439
-317.315
-310.319
-302.342
-293.263
-282.969
-271.351
-258.318
-243.798
-227.736
-210.108
-190.903
-170.153
-147.908
-124.226
-99.2235
-73.0491
-45.8467
-17.8263
10.7898
39.7364
68.7019
97.424
125.592
152.845
178.877
203.361
225.944
246.316
264.185
279.274
291.365
300.257
305.79
307.741
306.381
301.612
293.305
281.628
266.718
248.752
227.978
204.632
179.042
151.666
122.979
93.471
63.5165
33.3345
3.28299
-26.1099
-55.0728
-84.5571
-114.51
-144.751
-175.052
-205.161
-234.59
-262.849
-289.592
-314.292
-336.904
-357.202
-375.285
-391.205
-405.187
-417.417
-428.122
-437.531
-445.807
-453.087
-459.458
-464.96
-469.603
-473.34
-476.156
-478.026
-478.902
-478.748
-477.537
-475.243
-471.842
-467.315
-461.641
-454.8
-446.772
-437.533
-427.063
-415.339
-402.337
-388.038
-372.42
-355.46
-337.143
-317.459
-296.405
-273.986
-250.222
-225.151
-198.823
-171.309
-142.705
-113.143
-82.7847
-51.8302
-20.5259
10.8378
41.9381
72.4116
101.874
129.931
156.177
180.233
201.744
220.37
235.815
247.835
256.214
260.811
261.506
258.209
251.046
240.011
225.197
206.809
185.068
160.245
132.683
102.761
70.8807
37.4668
2.9631
-32.1781
-67.5143
-102.617
-137.089
-170.562
-202.717
-233.285
-262.048
-288.844
-313.561
-336.137
-356.556
-374.839
-391.04
-405.236
-417.52
-427.989
-436.741
-443.875
-449.487
-453.667
-456.507
-458.092
-458.507
-457.824
-456.106
-453.409
-449.785
-445.288
-439.971
-433.887
-427.088
-419.63
-411.573
-402.974
-393.882
-384.336
-374.363
-363.977
-353.179
-341.962
-330.305
-318.187
-305.577
-292.438
-278.729
-264.403
-249.405
-233.676
-217.15
-199.765
-181.455
-162.163
-141.847
-120.485
-98.0888
-74.7176
-50.4696
-25.4903
-0.0111811
25.707
51.3743
76.6319
101.121
124.475
146.317
166.283
184.011
199.166
211.451
220.612
226.429
228.664
227.216
222.281
213.731
201.622
186.205
167.749
146.563
123
97.4345
70.2806
41.9734
12.9525
-16.3518
-45.5338
-74.2058
-102.039
-128.758
-154.159
-178.106
-200.507
-221.337
-240.608
-258.35
-274.632
-289.532
-303.141
-315.563
-326.907
-337.285
-346.801
-355.553
-363.619
-371.053
-377.9
-384.201
-389.994
-395.307
-400.167
-404.562
-408.468
-411.867
-414.672
-416.788
-418.29
-419.008
-418.872
-417.755
-415.493
-411.907
-406.828
-400.05
-391.431
-380.753
-367.954
-352.81
-335.348
-315.391
-293.024
-268.167
-240.93
-211.354
-179.528
-145.633
-109.813
-72.2802
-33.33
6.74252
47.5766
88.7586
129.865
170.386
209.916
247.906
283.933
317.51
348.22
375.703
399.577
419.527
435.302
446.716
453.637
456.256
454.958
449.413
439.639
426.132
409.228
389.208
366.466
341.348
314.243
285.621
255.829
225.251
194.322
163.343
132.661
102.53
73.2
44.9187
17.8265
-7.9477
-32.2974
-55.1962
-76.6293
-96.6062
-115.184
-132.42
-148.396
-163.186
-176.862
-189.497
-201.154
-211.884
-221.725
-230.698
-238.808
-246.045
-252.38
-257.776
-262.189
-265.565
-267.853
-269.008
-268.993
-267.78
-265.306
-261.54
-256.446
-280.361
-292.952
-304.205
-314.161
-322.854
-330.315
-336.575
-341.679
-345.677
-348.635
-350.625
-351.741
-352.06
-351.679
-350.664
-349.077
-346.966
-344.368
-341.286
-337.711
-333.612
-328.922
-323.569
-317.463
-310.487
-302.531
-293.472
-283.197
-271.596
-258.579
-244.071
-228.018
-210.397
-191.195
-170.443
-148.193
-124.501
-99.4837
-73.2891
-46.0607
-18.0087
10.6447
39.6339
68.6467
97.4207
125.644
152.958
179.05
203.597
226.241
246.672
264.594
279.73
291.861
300.78
306.33
308.308
306.933
302.14
293.813
282.102
267.145
249.123
228.29
204.885
179.232
151.784
123.025
93.4538
63.457
33.2704
3.2046
-26.2356
-55.1782
-84.6013
-114.509
-144.72
-175.003
-205.115
-234.561
-262.848
-289.626
-314.358
-336.997
-357.316
-375.412
-391.336
-405.316
-417.541
-428.24
-437.644
-445.919
-453.201
-459.576
-465.083
-469.733
-473.478
-476.303
-478.181
-479.063
-478.916
-477.71
-475.42
-472.023
-467.5
-461.83
-454.994
-446.97
-437.736
-427.271
-415.552
-402.555
-388.261
-372.648
-355.693
-337.379
-317.698
-296.645
-274.226
-250.46
-225.383
-199.047
-171.521
-142.9
-113.316
-82.9284
-51.9378
-20.5903
10.824
41.9811
72.5167
102.044
130.168
156.48
180.599
202.169
220.848
236.34
248.397
256.803
261.417
262.13
258.827
251.651
240.589
225.742
207.311
185.517
160.633
133.004
103.011
71.0572
37.5688
2.99153
-32.2203
-67.6229
-102.786
-137.311
-170.83
-203.021
-233.617
-262.4
-289.207
-313.928
-336.502
-356.912
-375.182
-391.367
-405.546
-417.812
-428.263
-436.998
-444.116
-449.712
-453.877
-456.702
-458.274
-458.677
-457.983
-456.256
-453.549
-449.917
-445.411
-440.086
-433.993
-427.185
-419.718
-411.652
-403.046
-393.948
-384.398
-374.424
-364.039
-353.244
-342.031
-330.38
-318.269
-305.667
-292.538
-278.84
-264.526
-249.542
-233.828
-217.317
-199.948
-181.654
-162.375
-142.069
-120.713
-98.3172
-74.9379
-50.6712
-25.6659
-0.151247
25.6139
51.3344
76.6517
101.207
124.629
146.543
166.579
184.374
199.59
211.931
221.134
226.977
229.248
227.794
222.841
214.255
202.105
186.632
168.111
146.853
123.215
97.5739
70.3458
41.9673
12.8802
-16.4847
-45.7196
-74.4345
-102.3
-129.042
-154.456
-178.406
-200.804
-221.625
-240.881
-258.606
-274.869
-289.748
-303.336
-315.737
-327.061
-337.42
-346.92
-355.658
-363.714
-371.141
-377.984
-384.281
-390.073
-395.388
-400.252
-404.653
-408.565
-411.972
-414.783
-416.906
-418.414
-419.137
-419.008
-417.897
-415.641
-412.059
-406.984
-400.207
-391.587
-380.905
-368.1
-352.948
-335.475
-315.51
-293.135
-268.272
-241.029
-211.448
-179.616
-145.714
-109.884
-72.3378
-33.3702
6.72618
47.5903
88.8109
129.962
170.535
210.124
248.177
284.271
317.914
348.688
376.232
400.16
420.152
435.961
447.396
454.345
456.967
455.594
449.995
440.199
426.642
409.677
389.591
366.778
341.589
314.413
285.724
255.868
225.23
194.247
163.22
132.496
102.332
72.9744
44.6731
17.5681
-8.21274
-32.5633
-55.4577
-76.8823
-96.8474
-115.411
-132.633
-148.594
-163.37
-177.034
-189.659
-201.307
-212.03
-221.868
-230.84
-238.952
-246.191
-252.531
-257.934
-262.354
-265.737
-268.032
-269.195
-269.186
-267.979
-265.51
-261.748
-256.659
-280.646
-293.228
-304.472
-314.42
-323.105
-330.557
-336.807
-341.898
-345.883
-348.826
-350.801
-351.906
-352.205
-351.808
-350.78
-349.184
-347.068
-344.469
-341.391
-337.824
-333.737
-329.065
-323.731
-317.648
-310.697
-302.766
-293.733
-283.482
-271.904
-258.905
-244.413
-228.371
-210.758
-191.559
-170.806
-148.55
-124.846
-99.8094
-73.5897
-46.3288
-18.2373
10.4626
39.5052
68.5772
97.4161
125.71
153.098
179.267
203.891
226.613
247.116
265.106
280.301
292.48
301.436
307.003
309.01
307.629
302.804
294.448
282.694
267.68
249.587
228.679
205.201
179.469
151.932
123.082
93.4306
63.3789
33.1865
3.10736
-26.3876
-55.3126
-84.6583
-114.507
-144.68
-174.942
-205.056
-234.523
-262.846
-289.667
-314.44
-337.113
-357.458
-375.57
-391.499
-405.478
-417.695
-428.386
-437.786
-446.059
-453.344
-459.724
-465.238
-469.896
-473.652
-476.486
-478.374
-479.266
-479.126
-477.926
-475.641
-472.25
-467.731
-462.067
-455.236
-447.218
-437.99
-427.531
-415.818
-402.828
-388.54
-372.933
-355.983
-337.675
-317.997
-296.946
-274.525
-250.756
-225.674
-199.327
-171.786
-143.144
-113.532
-83.1087
-52.0729
-20.6715
10.8059
42.0343
72.6474
102.257
130.464
156.858
181.056
202.701
221.446
236.996
249.099
257.539
262.176
262.899
259.605
252.408
241.312
226.424
207.939
186.079
161.118
133.405
103.323
71.2774
37.6957
3.0265
-32.2738
-67.7596
-102.999
-137.591
-171.166
-203.403
-234.034
-262.841
-289.662
-314.388
-336.958
-357.358
-375.612
-391.778
-405.935
-418.178
-428.607
-437.321
-444.419
-449.995
-454.141
-456.947
-458.502
-458.89
-458.183
-456.444
-453.726
-450.083
-445.566
-440.23
-434.127
-427.308
-419.83
-411.753
-403.137
-394.032
-384.478
-374.501
-364.117
-353.325
-342.118
-330.474
-318.373
-305.781
-292.664
-278.98
-264.681
-249.715
-234.019
-217.528
-200.179
-181.904
-162.643
-142.35
-121.001
-98.6055
-75.2161
-50.9267
-25.8887
-0.32931
25.4943
51.2814
76.6737
101.311
124.821
146.824
166.948
184.826
200.12
212.529
221.786
227.664
229.959
228.526
223.544
214.913
202.709
187.166
168.563
147.216
123.484
97.7472
70.4261
41.9585
12.7886
-16.6523
-45.9532
-74.7219
-102.629
-129.399
-154.829
-178.783
-201.176
-221.985
-241.223
-258.926
-275.166
-290.019
-303.581
-315.955
-327.253
-337.589
-347.068
-355.791
-363.834
-371.251
-378.088
-384.383
-390.173
-395.49
-400.359
-404.766
-408.687
-412.103
-414.921
-417.053
-418.568
-419.299
-419.178
-418.075
-415.826
-412.25
-407.179
-400.404
-391.782
-381.096
-368.282
-353.12
-335.634
-315.658
-293.274
-268.402
-241.152
-211.565
-179.725
-145.815
-109.973
-72.4104
-33.4206
6.70431
47.6075
88.8749
130.083
170.717
210.384
248.515
284.692
318.419
349.274
376.893
400.888
420.933
436.784
448.247
455.222
457.835
456.404
450.737
440.901
427.281
410.239
390.069
367.169
341.89
314.627
285.852
255.917
225.204
194.153
163.065
132.29
102.083
72.6918
44.3655
17.2445
-8.54455
-32.8961
-55.785
-77.1989
-97.1493
-115.696
-132.898
-148.841
-163.6
-177.248
-189.86
-201.498
-212.214
-222.047
-231.018
-239.131
-246.374
-252.721
-258.131
-262.56
-265.952
-268.257
-269.429
-269.426
-268.228
-265.765
-262.009
-256.926
-280.987
-293.558
-304.792
-314.731
-323.406
-330.847
-337.085
-342.162
-346.131
-349.055
-351.012
-352.098
-352.377
-351.961
-350.918
-349.312
-347.189
-344.589
-341.516
-337.959
-333.888
-329.235
-323.926
-317.871
-310.949
-303.049
-294.046
-283.825
-272.273
-259.297
-244.823
-228.796
-211.191
-191.997
-171.243
-148.979
-125.26
-100.201
-73.9512
-46.6512
-18.5124
10.2434
39.3499
68.493
97.4098
125.789
153.265
179.526
204.244
227.059
247.65
265.72
280.987
293.225
302.224
307.816
309.847
308.463
303.603
295.211
283.405
268.323
250.144
229.146
205.578
179.751
152.108
123.149
93.4004
63.28
33.0802
2.99004
-26.5617
-55.4775
-84.7296
-114.505
-144.631
-174.866
-204.983
-234.476
-262.841
-289.714
-314.538
-337.252
-357.628
-375.759
-391.696
-405.672
-417.88
-428.561
-437.956
-446.227
-453.514
-459.9
-465.423
-470.092
-473.86
-476.707
-478.606
-479.508
-479.377
-478.185
-475.906
-472.521
-468.009
-462.351
-455.527
-447.516
-438.295
-427.843
-416.138
-403.155
-388.875
-373.275
-356.332
-338.029
-318.356
-297.306
-274.885
-251.113
-226.023
-199.664
-172.105
-143.438
-113.793
-83.3259
-52.2362
-20.7699
10.7832
42.0973
72.8035
102.511
130.819
157.311
181.604
203.339
222.164
237.782
249.942
258.424
263.087
263.824
260.538
253.315
242.18
227.242
208.692
186.753
161.7
133.886
103.697
71.541
37.8472
3.06751
-32.3391
-67.9246
-103.255
-137.927
-171.57
-203.863
-234.535
-263.371
-290.21
-314.941
-337.507
-357.895
-376.129
-392.271
-406.402
-418.617
-429.02
-437.708
-444.782
-450.335
-454.458
-457.242
-458.777
-459.146
-458.424
-456.67
-453.939
-450.283
-445.754
-440.405
-434.289
-427.457
-419.965
-411.875
-403.248
-394.134
-384.574
-374.595
-364.212
-353.424
-342.223
-330.589
-318.498
-305.919
-292.817
-279.149
-264.869
-249.923
-234.25
-217.783
-200.457
-182.206
-162.967
-142.69
-121.349
-98.9543
-75.5528
-51.2366
-26.1595
-0.546067
25.3475
51.2146
76.6972
101.434
125.048
147.159
167.389
185.368
200.756
213.247
222.569
228.491
230.811
229.402
224.387
215.705
203.434
187.807
169.105
147.65
123.805
97.9539
70.5212
41.9465
12.677
-16.8553
-46.2355
-75.0685
-103.025
-129.829
-155.278
-179.237
-201.624
-222.419
-241.635
-259.312
-275.523
-290.346
-303.875
-316.217
-327.485
-337.792
-347.247
-355.95
-363.978
-371.385
-378.215
-384.505
-390.294
-395.613
-400.488
-404.903
-408.834
-412.261
-415.088
-417.23
-418.754
-419.494
-419.383
-418.289
-416.048
-412.479
-407.414
-400.641
-392.016
-381.324
-368.5
-353.326
-335.824
-315.835
-293.44
-268.558
-241.3
-211.705
-179.855
-145.936
-110.08
-72.4977
-33.4817
6.67811
47.6268
88.9515
130.228
170.935
210.694
248.921
285.198
319.026
349.977
377.687
401.761
421.872
437.773
449.268
456.269
458.868
457.382
451.641
441.747
428.048
410.915
390.643
367.638
342.252
314.882
286.006
255.974
225.171
194.039
162.878
132.041
101.783
72.3518
43.9956
16.8554
-8.94345
-33.2961
-56.1783
-77.5792
-97.512
-116.037
-133.218
-149.138
-163.876
-177.506
-190.101
-201.726
-212.433
-222.261
-231.23
-239.345
-246.594
-252.948
-258.368
-262.807
-266.21
-268.527
-269.709
-269.715
-268.526
-266.072
-262.322
-257.247
-281.385
-293.943
-305.165
-315.093
-323.758
-331.186
-337.41
-342.47
-346.42
-349.323
-351.256
-352.319
-352.577
-352.14
-351.08
-349.46
-347.33
-344.729
-341.661
-338.116
-334.062
-329.434
-324.153
-318.13
-311.243
-303.379
-294.412
-284.225
-272.704
-259.754
-245.302
-229.291
-211.698
-192.508
-171.753
-149.481
-125.744
-100.659
-74.3741
-47.0285
-18.8344
9.9864
39.1676
68.3937
97.4015
125.879
153.46
179.828
204.656
227.579
248.273
266.438
281.787
294.095
303.146
308.769
310.822
309.434
304.539
296.103
284.237
269.075
250.797
229.69
206.017
180.08
152.313
123.226
93.3621
63.1585
32.948
2.8503
-26.7532
-55.673
-84.8168
-114.501
-144.571
-174.774
-204.894
-234.417
-262.832
-289.767
-314.649
-337.412
-357.826
-375.98
-391.924
-405.898
-418.095
-428.765
-438.153
-446.422
-453.713
-460.106
-465.638
-470.32
-474.102
-476.964
-478.877
-479.791
-479.671
-478.487
-476.216
-472.838
-468.332
-462.682
-455.866
-447.863
-438.651
-428.207
-416.51
-403.536
-389.266
-373.674
-356.739
-338.443
-318.775
-297.728
-275.306
-251.529
-226.43
-200.058
-172.478
-143.782
-114.097
-83.5806
-52.4278
-20.886
10.7554
42.1695
72.9846
102.808
131.232
157.839
182.244
204.082
223.001
238.701
250.926
259.455
264.152
264.904
261.623
254.374
243.194
228.197
209.571
187.539
162.378
134.447
104.133
71.8476
38.0228
3.1142
-32.4165
-68.1187
-103.555
-138.321
-172.044
-204.4
-235.122
-263.992
-290.85
-315.588
-338.149
-358.521
-376.733
-392.847
-406.947
-419.131
-429.503
-438.162
-445.207
-450.732
-454.829
-457.588
-459.098
-459.446
-458.706
-456.935
-454.188
-450.518
-445.974
-440.61
-434.479
-427.631
-420.123
-412.019
-403.377
-394.253
-384.686
-374.706
-364.324
-353.541
-342.347
-330.723
-318.646
-306.081
-292.996
-279.347
-265.089
-250.167
-234.52
-218.081
-200.784
-182.561
-163.345
-143.088
-121.758
-99.3641
-75.9486
-51.6014
-26.4787
-0.802363
25.1726
51.1335
76.7219
101.575
125.311
147.548
167.902
185.999
201.498
214.085
223.483
229.458
231.81
230.42
225.373
216.632
204.282
188.555
169.737
148.156
124.178
98.1938
70.6303
41.9306
12.5445
-17.0947
-46.5671
-75.4755
-103.49
-130.333
-155.805
-179.769
-202.148
-222.926
-242.116
-259.764
-275.941
-290.727
-304.219
-316.524
-327.756
-338.03
-347.456
-356.136
-364.146
-371.541
-378.363
-384.648
-390.435
-395.757
-400.638
-405.062
-409.006
-412.447
-415.283
-417.436
-418.971
-419.722
-419.623
-418.539
-416.308
-412.747
-407.687
-400.917
-392.29
-381.592
-368.754
-353.567
-336.046
-316.041
-293.633
-268.74
-241.472
-211.868
-180.007
-146.077
-110.205
-72.6001
-33.5536
6.64618
47.6485
89.0395
130.395
171.199
211.057
249.394
285.787
319.732
350.797
378.613
402.781
422.967
438.926
450.459
457.485
460.07
458.525
452.704
442.737
428.944
411.702
391.313
368.184
342.673
315.179
286.184
256.04
225.132
193.904
162.66
131.75
101.433
71.9538
43.5628
16.4003
-9.40981
-33.7637
-56.6379
-78.0236
-97.9354
-116.436
-133.59
-149.484
-164.198
-177.805
-190.382
-201.992
-212.689
-222.511
-231.478
-239.595
-246.85
-253.213
-258.644
-263.095
-266.512
-268.841
-270.036
-270.053
-268.875
-266.429
-262.688
-257.621
-281.84
-294.383
-305.592
-315.508
-324.159
-331.574
-337.781
-342.823
-346.75
-349.628
-351.536
-352.569
-352.804
-352.343
-351.263
-349.629
-347.491
-344.889
-341.827
-338.295
-334.262
-329.66
-324.412
-318.425
-311.578
-303.756
-294.83
-284.682
-273.197
-260.277
-245.85
-229.858
-212.277
-193.093
-172.336
-150.055
-126.298
-101.184
-74.8586
-47.4611
-19.204
9.69128
38.9579
68.2788
97.3908
125.981
153.681
180.172
205.127
228.173
248.985
267.258
282.704
295.091
304.201
309.861
311.937
310.543
305.611
297.125
285.188
269.935
251.545
230.313
206.515
180.453
152.545
123.311
93.3144
63.0127
32.7863
2.68528
-26.9579
-55.899
-84.9219
-114.497
-144.501
-174.665
-204.787
-234.345
-262.818
-289.824
-314.774
-337.594
-358.052
-376.232
-392.184
-406.154
-418.339
-428.997
-438.377
-446.644
-453.938
-460.34
-465.884
-470.581
-474.38
-477.257
-479.186
-480.115
-480.006
-478.832
-476.57
-473.199
-468.702
-463.06
-456.253
-448.26
-439.057
-428.624
-416.936
-403.972
-389.712
-374.131
-357.204
-338.916
-319.254
-298.209
-275.786
-252.005
-226.897
-200.508
-172.904
-144.176
-114.447
-83.8729
-52.6483
-21.0202
10.7221
42.2506
73.1904
103.145
131.703
158.442
182.974
204.932
223.957
239.75
252.05
260.635
265.369
266.139
262.861
255.583
244.354
229.288
210.576
188.437
163.152
135.087
104.631
72.197
38.2224
3.16628
-32.5065
-68.3423
-103.901
-138.774
-172.587
-205.017
-235.794
-264.703
-291.583
-316.328
-338.883
-359.239
-377.424
-393.506
-407.57
-419.719
-430.055
-438.68
-445.693
-451.187
-455.253
-457.983
-459.466
-459.79
-459.028
-457.239
-454.474
-450.787
-446.225
-440.845
-434.697
-427.831
-420.305
-412.183
-403.526
-394.39
-384.816
-374.832
-364.452
-353.674
-342.489
-330.877
-318.814
-306.267
-293.2
-279.574
-265.341
-250.447
-234.829
-218.422
-201.158
-182.966
-163.78
-143.544
-122.228
-99.8351
-76.404
-52.022
-26.8469
-1.0985
24.9692
51.0374
76.747
101.733
125.61
147.99
168.487
186.721
202.346
215.043
224.53
230.567
232.955
231.582
226.501
217.694
205.252
189.41
170.46
148.734
124.604
98.4662
70.7529
41.9102
12.3905
-17.3712
-46.9491
-75.9439
-104.025
-130.913
-156.409
-180.38
-202.749
-223.508
-242.669
-260.282
-276.42
-291.165
-304.614
-316.876
-328.067
-338.303
-347.695
-356.348
-364.338
-371.719
-378.533
-384.811
-390.596
-395.921
-400.81
-405.245
-409.204
-412.659
-415.506
-417.673
-419.219
-419.982
-419.897
-418.825
-416.605
-413.054
-408.001
-401.232
-392.603
-381.897
-369.044
-353.841
-336.298
-316.276
-293.852
-268.947
-241.668
-212.053
-180.181
-146.238
-110.348
-72.7175
-33.6366
6.60855
47.6715
89.1386
130.583
171.498
211.471
249.934
286.46
320.539
351.733
379.671
403.947
424.221
440.244
451.821
458.871
461.443
459.834
453.927
443.871
429.969
412.604
392.079
368.809
343.153
315.518
286.387
256.114
225.086
193.749
162.408
131.415
101.03
71.4974
43.0666
15.8788
-9.94405
-34.2991
-57.1641
-78.5321
-98.4199
-116.892
-134.016
-149.88
-164.565
-178.147
-190.703
-202.296
-212.98
-222.795
-231.761
-239.881
-247.143
-253.515
-258.959
-263.425
-266.856
-269.201
-270.409
-270.438
-269.272
-266.838
-263.107
-258.049
-282.351
-294.877
-306.071
-315.974
-324.611
-332.011
-338.2
-343.22
-347.122
-349.973
-351.849
-352.85
-353.058
-352.571
-351.469
-349.819
-347.671
-345.067
-342.012
-338.495
-334.485
-329.914
-324.702
-318.758
-311.956
-304.18
-295.301
-285.197
-273.752
-260.867
-246.468
-230.496
-212.93
-193.753
-172.994
-150.702
-126.923
-101.776
-75.4055
-47.9496
-19.6215
9.35741
38.72
68.1479
97.377
126.095
153.929
180.558
205.655
228.842
249.786
268.183
283.736
296.213
305.391
311.094
313.192
311.791
306.821
298.276
286.261
270.906
252.389
231.013
207.074
180.869
152.805
123.404
93.2558
62.8415
32.5904
2.49155
-27.1731
-56.1537
-85.0465
-114.492
-144.417
-174.538
-204.662
-234.259
-262.797
-289.885
-314.913
-337.796
-358.304
-376.514
-392.477
-406.443
-418.613
-429.256
-438.628
-446.892
-454.19
-460.602
-466.159
-470.873
-474.691
-477.587
-479.534
-480.478
-480.383
-479.22
-476.967
-473.606
-469.117
-463.484
-456.688
-448.705
-439.514
-429.091
-417.415
-404.462
-390.214
-374.644
-357.727
-339.448
-319.792
-298.751
-276.327
-252.541
-227.422
-201.015
-173.385
-144.62
-114.842
-84.2034
-52.8983
-21.1731
10.6827
42.3401
73.4203
103.523
132.233
159.119
183.796
205.888
225.033
240.931
253.315
261.963
266.74
267.531
264.252
256.944
245.658
230.517
211.707
189.447
164.024
135.807
105.19
72.589
38.4455
3.22323
-32.6097
-68.5958
-104.291
-139.285
-173.2
-205.713
-236.553
-265.504
-292.409
-317.163
-339.711
-360.047
-378.202
-394.248
-408.272
-420.38
-430.676
-439.263
-446.24
-451.7
-455.731
-458.427
-459.88
-460.177
-459.392
-457.581
-454.797
-451.09
-446.509
-441.11
-434.943
-428.057
-420.51
-412.368
-403.694
-394.543
-384.961