/*--------------------------------*- C++ -*----------------------------------*\
| =========                 |                                                 |
| \\      /  F ield         | OpenFOAM: The Open Source CFD Toolbox           |
|  \\    /   O peration     | Version:  3.0.1                                 |
|   \\  /    A nd           | Web:      www.OpenFOAM.org                      |
|    \\/     M anipulation  |                                                 |
\*---------------------------------------------------------------------------*/
FoamFile
{
    version     2.0;
    format      ascii;
    class       volScalarField;
    location    "76.8";
    object      p;
}
// * * * * * * * * * * * * * * * * * * * * * * * * * * * * * * * * * * * * * //

dimensions      [1 -1 -2 0 0 0 0];

internalField   nonuniform List<scalar> 
21420
(
4244.55
4260.4
4272.56
4280.91
4285.39
4285.74
4281.73
4273.72
4261.9
4246.29
4227.1
4204.62
4179.19
4151.12
4120.81
4088.66
4055.06
4020.49
3985.35
3950.11
3915.22
3881.16
3848.83
3817.14
3786.45
3757.11
3729.36
3703.34
3679.15
3656.82
3636.38
3617.81
3601.08
3586.15
3572.98
3561.51
3551.69
3543.46
3536.78
3531.6
3527.88
3525.6
3524.77
3525.38
3527.4
3530.9
3535.88
3542.38
3550.43
3560.09
3571.39
3584.38
3599.12
3615.62
3633.95
3654.09
3676.03
3699.76
3725.21
3752.3
3780.92
3810.91
3842.09
3874.26
3907.15
3940.46
3973.91
4007.14
4039.81
4071.55
4101.99
4130.78
4157.55
4181.97
4203.72
4222.5
4238.04
4250.1
4258.49
4263.06
4263.65
4260.33
4253.01
4241.81
4226.88
4208.38
4186.6
4161.82
4134.35
4104.57
4072.86
4039.61
4005.24
3970.16
3934.79
3899.52
3864.74
3830.83
3798.09
3766.81
3737.24
3709.54
3683.86
3660.26
3638.79
3619.44
3602.19
3586.97
3573.72
3562.38
3552.85
3545.07
3538.96
3534.44
3531.46
3529.94
3529.86
3531.2
3533.87
3537.87
3543.19
3549.83
3557.78
3567.04
3577.64
3589.59
3602.92
3617.65
3633.81
3651.45
3670.57
3691.22
3713.39
3737.09
3762.28
3788.93
3816.93
3846.2
3876.58
3907.87
3939.8
3972.1
4004.47
4036.54
4067.93
4098.24
4127.05
4153.93
4178.48
4200.29
4219.01
4234.29
4245.87
4253.5
4257.02
4256.32
4251.41
4242.36
4229.24
4212.26
4191.7
4167.87
4141.16
4111.98
4080.8
4048.1
4014.33
3979.99
3945.53
3911.36
3877.9
3845.43
3814.26
3784.6
3756.63
3730.47
3706.19
3683.83
3663.39
3644.83
3628.12
3613.18
3599.95
3588.38
3578.4
3569.93
3562.93
3557.32
3553.05
3550.09
3548.35
3547.85
3548.56
3550.44
3553.49
3557.73
3563.18
3569.86
3577.8
3587.04
3597.62
3609.6
3623.03
3637.95
3654.4
3672.42
3692.01
3713.2
3735.95
3760.25
3786.02
3813.18
3841.6
3871.12
3901.57
3932.79
3964.34
3996.01
4027.48
4058.38
4088.34
4116.94
4143.78
4168.45
4190.55
4209.67
4225.49
4237.67
4245.99
4250.24
4250.27
4246.13
4237.86
4225.53
4209.38
4189.67
4166.74
4140.97
4112.79
4082.65
4051.03
4018.39
3985.2
3951.91
3918.93
3886.61
3855.26
3825.15
3796.48
3769.41
3744.03
3720.43
3698.64
3678.66
3660.49
3644.07
3629.36
3616.3
3604.82
3594.85
3586.32
3579.18
3573.35
3568.8
3565.48
3563.33
3562.37
3562.57
3563.88
3566.33
3569.9
3574.61
3580.47
3587.53
3595.78
3605.26
3616.02
3628.09
3641.52
3656.34
3672.61
3690.36
3709.64
3730.46
3752.84
3776.75
3802.22
3829.19
3857.56
3887.13
3913.52
3944.46
3976.04
4007.78
4039.24
4070.05
4099.7
4127.71
4153.61
4176.93
4197.26
4214.22
4227.52
4236.93
4242.32
4243.56
4240.66
4233.7
4222.84
4208.3
4190.36
4169.38
4145.72
4119.8
4092.06
4062.97
4032.97
4002.49
3971.94
3941.71
3912.22
3884.18
3856.78
3830.11
3804.42
3779.85
3756.48
3734.36
3713.48
3693.85
3675.47
3658.34
3642.46
3627.85
3614.53
3602.51
3591.82
3582.5
3574.57
3568.08
3563.06
3559.53
3557.55
3557.19
3558.56
3561.63
3566.4
3572.91
3581.16
3591.14
3602.88
3616.35
3631.53
3648.38
3666.81
3686.77
3708.17
4146.57
4162.44
4174.6
4182.96
4187.44
4187.81
4183.79
4175.78
4163.94
4148.32
4129.12
4106.63
4081.17
4053.09
4022.76
3990.59
3956.97
3922.38
3887.23
3851.97
3817.06
3782.99
3750.68
3718.98
3688.28
3658.93
3631.17
3605.16
3580.97
3558.64
3538.2
3519.63
3502.9
3487.98
3474.81
3463.35
3453.53
3445.3
3438.62
3433.44
3429.72
3427.44
3426.62
3427.23
3429.24
3432.74
3437.72
3444.21
3452.26
3461.92
3473.22
3486.21
3500.94
3517.45
3535.77
3555.91
3577.85
3601.58
3627.03
3654.12
3682.75
3712.74
3743.93
3776.11
3809.01
3842.33
3875.79
3909.04
3941.72
3973.48
4003.94
4032.74
4059.53
4083.96
4105.73
4124.52
4140.07
4152.14
4160.54
4165.11
4165.71
4162.38
4155.06
4143.85
4128.91
4110.4
4088.6
4063.8
4036.32
4006.52
3974.79
3941.53
3907.14
3872.04
3836.65
3801.37
3766.58
3732.65
3699.9
3668.62
3639.04
3611.34
3585.66
3562.06
3540.6
3521.25
3504
3488.78
3475.54
3464.2
3454.68
3446.9
3440.79
3436.28
3433.29
3431.78
3431.71
3433.04
3435.71
3439.71
3445.04
3451.67
3459.62
3468.88
3479.48
3491.43
3504.75
3519.48
3535.65
3553.28
3572.4
3593.05
3615.22
3638.91
3664.11
3690.75
3718.76
3748.04
3778.42
3809.72
3841.66
3873.97
3906.35
3938.44
3969.85
4000.17
4029
4055.9
4080.47
4102.3
4121.03
4136.33
4147.92
4155.56
4159.09
4158.38
4153.46
4144.41
4131.28
4114.29
4093.71
4069.86
4043.13
4013.93
3982.73
3950
3916.22
3881.86
3847.38
3813.2
3779.73
3747.26
3716.07
3686.41
3658.44
3632.28
3608
3585.65
3565.21
3546.65
3529.94
3515
3501.78
3490.21
3480.23
3471.77
3464.77
3459.16
3454.9
3451.93
3450.2
3449.7
3450.41
3452.29
3455.34
3459.58
3465.03
3471.71
3479.64
3488.88
3499.46
3511.44
3524.86
3539.78
3556.23
3574.24
3593.84
3615.02
3637.78
3662.07
3687.85
3715.01
3743.43
3772.96
3803.42
3834.64
3866.21
3897.89
3929.37
3960.29
3990.26
4018.89
4045.75
4070.44
4092.55
4111.69
4127.52
4139.72
4148.04
4152.3
4152.33
4148.19
4139.91
4127.57
4111.4
4091.68
4068.73
4042.94
4014.74
3984.58
3952.94
3920.28
3887.08
3853.77
3820.77
3788.44
3757.09
3726.98
3698.3
3671.22
3645.84
3622.24
3600.45
3580.48
3562.31
3545.89
3531.19
3518.13
3506.65
3496.69
3488.16
3481.02
3475.2
3470.65
3467.33
3465.18
3464.22
3464.42
3465.74
3468.18
3471.76
3476.46
3482.33
3489.38
3497.63
3507.11
3517.86
3529.93
3543.36
3558.18
3574.44
3592.19
3611.47
3632.29
3654.66
3678.58
3704.05
3731.02
3759.39
3788.98
3815.35
3846.32
3877.91
3909.66
3941.15
3971.97
4001.64
4029.67
4055.6
4078.93
4099.28
4116.26
4129.56
4138.98
4144.38
4145.62
4142.72
4135.75
4124.88
4110.32
4092.37
4071.37
4047.69
4021.75
3994
3964.88
3934.87
3904.37
3873.8
3843.56
3814.06
3786.04
3758.63
3731.96
3706.26
3681.69
3658.32
3636.2
3615.32
3595.69
3577.31
3560.18
3544.31
3529.7
3516.38
3504.36
3493.67
3484.34
3476.42
3469.92
3464.9
3461.36
3459.39
3459.03
3460.39
3463.46
3468.23
3474.74
3482.99
3492.97
3504.71
3518.17
3533.36
3550.21
3568.64
3588.6
3610.01
4048.71
4064.6
4076.79
4085.16
4089.65
4090.05
4086
4077.98
4066.13
4050.48
4031.26
4008.73
3983.24
3955.12
3924.76
3892.55
3858.89
3824.27
3789.08
3753.79
3718.85
3684.74
3652.46
3620.74
3590.02
3560.66
3532.9
3506.89
3482.69
3460.37
3439.93
3421.37
3404.65
3389.73
3376.57
3365.11
3355.3
3347.08
3340.4
3335.22
3331.51
3329.23
3328.41
3329.01
3331.03
3334.52
3339.5
3345.99
3354.04
3363.69
3374.98
3387.97
3402.7
3419.19
3437.52
3457.65
3479.59
3503.32
3528.77
3555.87
3584.5
3614.51
3645.71
3677.9
3710.82
3744.17
3777.66
3810.93
3843.64
3875.43
3905.92
3934.75
3961.58
3986.04
4007.84
4026.66
4042.23
4054.32
4062.73
4067.32
4067.94
4064.57
4057.25
4046.04
4031.07
4012.54
3990.71
3965.88
3938.36
3908.53
3876.76
3843.46
3809.03
3773.9
3738.48
3703.17
3668.35
3634.4
3601.64
3570.34
3540.75
3513.05
3487.36
3463.77
3442.31
3422.97
3405.72
3390.51
3377.28
3365.95
3356.43
3348.66
3342.56
3338.05
3335.07
3333.56
3333.5
3334.83
3337.5
3341.5
3346.83
3353.46
3361.41
3370.67
3381.27
3393.21
3406.53
3421.26
3437.42
3455.04
3474.16
3494.8
3516.97
3540.66
3565.86
3592.51
3620.53
3649.81
3680.2
3711.51
3743.48
3775.82
3808.22
3840.34
3871.78
3902.14
3931.01
3957.94
3982.55
4004.42
4023.18
4038.51
4050.12
4057.78
4061.33
4060.6
4055.68
4046.62
4033.46
4016.45
3995.83
3971.95
3945.18
3915.94
3884.7
3851.93
3818.11
3783.71
3749.2
3714.99
3681.5
3649
3617.81
3588.14
3560.16
3534
3509.72
3487.37
3466.94
3448.39
3431.68
3416.75
3403.54
3391.98
3382
3373.55
3366.55
3360.95
3356.69
3353.73
3352
3351.5
3352.22
3354.09
3357.14
3361.38
3366.83
3373.5
3381.43
3390.67
3401.24
3413.22
3426.64
3441.55
3457.99
3476
3495.6
3516.78
3539.53
3563.83
3589.61
3616.77
3645.21
3674.75
3705.22
3736.46
3768.05
3799.76
3831.27
3862.22
3892.22
3920.88
3947.78
3972.51
3994.66
4013.83
4029.69
4041.92
4050.26
4054.53
4054.56
4050.41
4042.12
4029.76
4013.56
3993.8
3970.82
3944.99
3916.75
3886.55
3854.87
3822.17
3788.93
3755.59
3722.57
3690.22
3658.85
3628.72
3600.04
3572.95
3547.57
3523.97
3502.19
3482.22
3464.05
3447.64
3432.95
3419.9
3408.43
3398.47
3389.95
3382.81
3377
3372.45
3369.13
3366.99
3366.03
3366.23
3367.55
3369.99
3373.57
3378.27
3384.13
3391.18
3399.43
3408.91
3419.65
3431.72
3445.14
3459.95
3476.21
3493.96
3513.22
3534.04
3556.41
3580.32
3605.79
3632.77
3661.15
3690.78
3717.11
3748.13
3779.75
3811.53
3843.05
3873.91
3903.62
3931.7
3957.66
3981.04
4001.42
4018.43
4031.76
4041.19
4046.6
4047.85
4044.92
4037.94
4027.06
4012.47
3994.49
3973.45
3949.74
3923.75
3895.96
3866.81
3836.76
3806.23
3775.64
3745.36
3715.83
3687.86
3660.43
3633.74
3608.04
3583.46
3560.1
3537.98
3517.1
3497.48
3479.1
3461.97
3446.1
3431.49
3418.17
3406.15
3395.46
3386.13
3378.2
3371.7
3366.68
3363.14
3361.16
3360.8
3362.16
3365.23
3370
3376.5
3384.75
3394.73
3406.47
3419.93
3435.12
3451.97
3470.4
3490.37
3511.78
3950.96
3966.9
3979.11
3987.51
3992.01
3992.45
3988.37
3980.35
3968.46
3952.78
3933.51
3910.94
3885.4
3857.22
3826.8
3794.53
3760.83
3726.14
3690.91
3655.57
3620.58
3586.41
3554.2
3522.44
3491.69
3462.31
3434.54
3408.53
3384.34
3362.02
3341.59
3323.03
3306.32
3291.41
3278.26
3266.81
3257
3248.79
3242.12
3236.95
3233.24
3230.96
3230.14
3230.74
3232.75
3236.25
3241.23
3247.71
3255.75
3265.39
3276.68
3289.65
3304.37
3320.87
3339.18
3359.31
3381.25
3404.98
3430.44
3457.54
3486.18
3516.21
3547.43
3579.64
3612.59
3645.98
3679.5
3712.81
3745.57
3777.41
3807.94
3836.83
3863.7
3888.21
3910.05
3928.91
3944.52
3956.65
3965.08
3969.68
3970.32
3966.92
3959.6
3948.37
3933.37
3914.8
3892.93
3868.04
3840.48
3810.59
3778.76
3745.4
3710.93
3675.74
3640.27
3604.92
3570.07
3536.08
3503.29
3471.98
3442.37
3414.66
3388.97
3365.38
3343.92
3324.59
3307.36
3292.16
3278.94
3267.62
3258.12
3250.35
3244.26
3239.76
3236.79
3235.29
3235.23
3236.56
3239.24
3243.24
3248.57
3255.2
3263.14
3272.4
3283
3294.94
3308.25
3322.97
3339.12
3356.74
3375.86
3396.49
3418.65
3442.35
3467.54
3494.2
3522.22
3551.52
3581.93
3613.27
3645.26
3677.63
3710.08
3742.24
3773.74
3804.15
3833.07
3860.06
3884.72
3906.65
3925.46
3940.83
3952.47
3960.15
3963.72
3963
3958.07
3948.98
3935.79
3918.74
3898.07
3874.13
3847.3
3818
3786.7
3753.87
3719.99
3685.54
3650.98
3616.73
3583.2
3550.68
3519.46
3489.78
3461.79
3435.63
3411.36
3389.01
3368.59
3350.05
3333.35
3318.43
3305.23
3293.68
3283.71
3275.27
3268.28
3262.69
3258.44
3255.48
3253.75
3253.26
3253.97
3255.84
3258.89
3263.13
3268.58
3275.25
3283.17
3292.4
3302.97
3314.93
3328.35
3343.25
3359.69
3377.69
3397.28
3418.46
3441.22
3465.52
3491.3
3518.47
3546.92
3576.48
3606.97
3638.25
3669.86
3701.61
3733.16
3764.16
3794.22
3822.93
3849.89
3874.67
3896.87
3916.1
3932
3944.26
3952.63
3956.92
3956.96
3952.79
3944.48
3932.09
3915.85
3896.04
3873
3847.12
3818.81
3788.55
3756.81
3724.05
3690.76
3657.38
3624.31
3591.93
3560.54
3530.39
3501.69
3474.6
3449.22
3425.62
3403.84
3383.88
3365.72
3349.32
3334.64
3321.6
3310.14
3300.19
3291.68
3284.55
3278.75
3274.21
3270.89
3268.76
3267.8
3268
3269.32
3271.76
3275.33
3280.04
3285.89
3292.93
3301.18
3310.65
3321.39
3333.45
3346.86
3361.66
3377.91
3395.65
3414.91
3435.72
3458.08
3481.99
3507.46
3534.44
3562.84
3592.51
3618.81
3649.89
3681.55
3713.38
3744.95
3775.87
3805.65
3833.79
3859.82
3883.26
3903.69
3920.74
3934.11
3943.56
3948.98
3950.25
3947.28
3940.29
3929.37
3914.75
3896.71
3875.62
3851.85
3825.81
3797.96
3768.76
3738.65
3708.07
3677.44
3647.12
3617.54
3589.63
3562.18
3535.47
3509.75
3485.18
3461.82
3439.7
3418.83
3399.21
3380.83
3363.7
3347.83
3333.23
3319.9
3307.88
3297.19
3287.86
3279.93
3273.43
3268.4
3264.86
3262.88
3262.51
3263.87
3266.93
3271.7
3278.2
3286.44
3296.42
3308.16
3321.62
3336.81
3353.66
3372.1
3392.07
3413.48
3853.34
3869.32
3881.58
3890.01
3894.53
3895
3890.91
3882.87
3870.94
3855.21
3835.89
3813.25
3787.64
3759.39
3728.9
3696.55
3662.77
3628.02
3592.71
3557.3
3522.25
3488.01
3455.88
3424.07
3393.28
3363.88
3336.1
3310.08
3285.89
3263.58
3243.16
3224.61
3207.91
3193.02
3179.88
3168.44
3158.64
3150.44
3143.78
3138.61
3134.91
3132.64
3131.82
3132.41
3134.43
3137.92
3142.89
3149.36
3157.39
3167.02
3178.3
3191.27
3205.98
3222.46
3240.77
3260.9
3282.83
3306.56
3332.02
3359.13
3387.79
3417.84
3449.08
3481.33
3514.32
3547.75
3581.32
3614.69
3647.51
3679.41
3710.01
3738.96
3765.9
3790.47
3812.37
3831.29
3846.95
3859.11
3867.57
3872.2
3872.85
3869.44
3862.1
3850.84
3835.8
3817.18
3795.25
3770.3
3742.66
3712.7
3680.8
3647.37
3612.82
3577.57
3542.03
3506.62
3471.72
3437.69
3404.86
3373.52
3343.9
3316.18
3290.49
3266.9
3245.45
3226.13
3208.91
3193.73
3180.53
3169.22
3159.73
3151.98
3145.9
3141.41
3138.45
3136.96
3136.91
3138.24
3140.92
3144.93
3150.25
3156.89
3164.83
3174.08
3184.67
3196.6
3209.91
3224.62
3240.77
3258.38
3277.48
3298.11
3320.27
3343.96
3369.16
3395.81
3423.85
3453.16
3483.6
3514.97
3547
3579.42
3611.93
3644.15
3675.71
3706.2
3735.19
3762.26
3786.99
3808.99
3827.86
3843.29
3854.97
3862.69
3866.27
3865.56
3860.62
3851.5
3838.27
3821.16
3800.43
3776.41
3749.5
3720.12
3688.73
3655.82
3621.86
3587.34
3552.71
3518.41
3484.83
3452.28
3421.04
3391.34
3363.34
3337.17
3312.91
3290.57
3270.15
3251.63
3234.94
3220.04
3206.85
3195.32
3185.36
3176.93
3169.95
3164.37
3160.13
3157.17
3155.46
3154.97
3155.68
3157.55
3160.6
3164.84
3170.28
3176.94
3184.86
3194.08
3204.64
3216.59
3229.99
3244.89
3261.32
3279.31
3298.9
3320.07
3342.83
3367.13
3392.92
3420.11
3448.57
3478.15
3508.67
3539.99
3571.65
3603.44
3635.05
3666.12
3696.24
3725.03
3752.06
3776.91
3799.19
3818.48
3834.44
3846.76
3855.16
3859.47
3859.52
3855.34
3847
3834.57
3818.27
3798.4
3775.28
3749.32
3720.93
3690.59
3658.76
3625.93
3592.57
3559.12
3526.01
3493.58
3462.15
3431.98
3403.27
3376.17
3350.78
3327.19
3305.41
3285.46
3267.31
3250.93
3236.26
3223.23
3211.79
3201.85
3193.36
3186.24
3180.44
3175.91
3172.6
3170.47
3169.52
3169.72
3171.04
3173.48
3177.05
3181.75
3187.6
3194.64
3202.88
3212.34
3223.07
3235.12
3248.52
3263.31
3279.55
3297.28
3316.52
3337.32
3359.68
3383.59
3409.05
3436.03
3464.45
3494.18
3520.46
3551.61
3583.33
3615.21
3646.85
3677.85
3707.71
3735.94
3762.05
3785.57
3806.08
3823.19
3836.6
3846.09
3851.52
3852.8
3849.81
3842.78
3831.82
3817.15
3799.05
3777.89
3754.04
3727.92
3699.99
3670.71
3640.54
3609.9
3579.2
3548.83
3519.19
3491.36
3463.87
3437.14
3411.41
3386.84
3363.48
3341.37
3320.5
3300.88
3282.51
3265.38
3249.51
3234.91
3221.58
3209.56
3198.87
3189.54
3181.6
3175.09
3170.06
3166.52
3164.53
3164.15
3165.5
3168.57
3173.33
3179.83
3188.07
3198.05
3209.77
3223.24
3238.42
3255.28
3273.72
3293.7
3315.13
3755.84
3771.88
3784.2
3792.66
3797.21
3797.69
3793.61
3785.54
3773.56
3757.77
3738.38
3715.66
3689.97
3661.62
3631.03
3598.59
3564.72
3529.88
3494.49
3459
3423.86
3389.54
3357.5
3325.63
3294.79
3265.37
3237.57
3211.55
3187.36
3165.06
3144.65
3126.11
3109.43
3094.55
3081.42
3070
3060.22
3052.03
3045.38
3040.22
3036.52
3034.26
3033.44
3034.03
3036.04
3039.52
3044.49
3050.95
3058.97
3068.59
3079.85
3092.81
3107.51
3123.98
3142.28
3162.4
3184.33
3208.06
3233.53
3260.65
3289.33
3319.4
3350.68
3382.97
3416.01
3449.49
3483.13
3516.57
3549.46
3581.44
3612.12
3641.15
3668.17
3692.82
3714.8
3733.78
3749.5
3761.71
3770.22
3774.86
3775.53
3772.12
3764.75
3753.45
3738.36
3719.68
3697.67
3672.64
3644.91
3614.86
3582.87
3549.35
3514.71
3479.37
3443.76
3408.27
3373.3
3339.22
3306.35
3274.98
3245.33
3217.6
3191.9
3168.32
3146.88
3127.58
3110.37
3095.21
3082.03
3070.74
3061.27
3053.54
3047.48
3043
3040.06
3038.58
3038.53
3039.87
3042.55
3046.56
3051.89
3058.52
3066.46
3075.71
3086.29
3098.21
3111.51
3126.21
3142.35
3159.95
3179.04
3199.66
3221.81
3245.5
3270.7
3297.36
3325.41
3354.75
3385.21
3416.62
3448.7
3481.19
3513.76
3546.06
3577.7
3608.28
3637.36
3664.53
3689.36
3711.44
3730.39
3745.89
3757.63
3765.39
3768.99
3768.29
3763.33
3754.17
3740.89
3723.71
3702.9
3678.79
3651.78
3622.29
3590.8
3557.78
3523.73
3489.11
3454.41
3420.04
3386.4
3353.8
3322.53
3292.81
3264.8
3238.63
3214.37
3192.04
3171.64
3153.13
3136.46
3121.58
3108.41
3096.89
3086.95
3078.53
3071.57
3066
3061.77
3058.82
3057.12
3056.64
3057.34
3059.22
3062.27
3066.5
3071.93
3078.58
3086.49
3095.7
3106.25
3118.19
3131.58
3146.46
3162.88
3180.86
3200.44
3221.61
3244.37
3268.67
3294.47
3321.67
3350.16
3379.77
3410.32
3441.7
3473.4
3505.26
3536.95
3568.08
3598.29
3627.17
3654.3
3679.25
3701.61
3720.99
3737.03
3749.4
3757.85
3762.18
3762.25
3758.05
3749.67
3737.19
3720.83
3700.87
3677.66
3651.6
3623.11
3592.66
3560.73
3527.81
3494.36
3460.83
3427.65
3395.17
3363.7
3333.49
3304.76
3277.65
3252.26
3228.67
3206.9
3186.96
3168.83
3152.46
3137.81
3124.8
3113.38
3103.46
3094.98
3087.87
3082.09
3077.57
3074.27
3072.15
3071.2
3071.4
3072.72
3075.16
3078.73
3083.43
3089.27
3096.3
3104.53
3113.98
3124.7
3136.74
3150.12
3164.9
3181.12
3198.84
3218.07
3238.85
3261.2
3285.1
3310.56
3337.55
3365.98
3395.77
3422.07
3453.29
3485.07
3517.03
3548.75
3579.85
3609.82
3638.15
3664.37
3688
3708.59
3725.78
3739.25
3748.77
3754.22
3755.5
3752.5
3745.43
3734.42
3719.67
3701.49
3680.24
3656.3
3630.08
3602.06
3572.68
3542.42
3511.7
3480.93
3450.48
3420.77
3393.04
3365.51
3338.74
3313.01
3288.43
3265.08
3242.97
3222.11
3202.49
3184.13
3167
3151.14
3136.53
3123.21
3111.18
3100.49
3091.15
3083.21
3076.7
3071.66
3068.12
3066.12
3065.73
3067.08
3070.14
3074.89
3081.39
3089.62
3099.6
3111.32
3124.78
3139.97
3156.83
3175.28
3195.26
3216.7
3658.45
3674.58
3686.96
3695.47
3700.04
3700.55
3696.47
3688.36
3676.32
3660.47
3640.99
3618.18
3592.38
3563.92
3533.22
3500.66
3466.68
3431.73
3396.25
3360.66
3325.41
3290.99
3259.07
3227.11
3196.22
3166.77
3138.96
3112.93
3088.75
3066.45
3046.05
3027.54
3010.87
2996.01
2982.9
2971.49
2961.73
2953.56
2946.92
2941.77
2938.08
2935.82
2935
2935.58
2937.6
2941.07
2946.03
2952.48
2960.49
2970.09
2981.34
2994.28
3008.96
3025.42
3043.71
3063.82
3085.74
3109.47
3134.95
3162.09
3190.79
3220.89
3252.21
3284.55
3317.65
3351.2
3384.92
3418.44
3451.42
3483.49
3514.27
3543.4
3570.51
3595.26
3617.32
3636.39
3652.18
3664.46
3673.01
3677.69
3678.36
3674.95
3667.55
3656.21
3641.05
3622.3
3600.2
3575.07
3547.24
3517.08
3484.97
3451.34
3416.6
3381.16
3345.45
3309.87
3274.83
3240.69
3207.76
3176.35
3146.67
3118.92
3093.22
3069.65
3048.22
3028.94
3011.75
2996.62
2983.46
2972.19
2962.75
2955.04
2948.99
2944.54
2941.6
2940.14
2940.1
2941.45
2944.13
2948.15
2953.47
2960.1
2968.03
2977.28
2987.85
2999.77
3013.05
3027.74
3043.86
3061.45
3080.53
3101.14
3123.28
3146.97
3172.17
3198.84
3226.91
3256.27
3286.77
3318.23
3350.37
3382.92
3415.57
3447.97
3479.71
3510.4
3539.59
3566.87
3591.81
3614
3633.05
3648.63
3660.45
3668.25
3671.87
3671.19
3666.21
3657
3643.66
3626.4
3605.49
3581.27
3554.13
3524.52
3492.9
3459.76
3425.58
3390.87
3356.06
3321.61
3287.91
3255.25
3223.94
3194.19
3166.17
3140
3115.74
3093.42
3073.04
3054.55
3037.9
3023.04
3009.89
2998.39
2988.47
2980.08
2973.13
2967.57
2963.35
2960.42
2958.73
2958.25
2958.96
2960.84
2963.88
2968.11
2973.53
2980.18
2988.08
2997.27
3007.8
3019.73
3033.1
3047.97
3064.37
3082.35
3101.91
3123.08
3145.83
3170.14
3195.95
3223.17
3251.69
3281.33
3311.92
3343.37
3375.13
3407.07
3438.83
3470.07
3500.38
3529.37
3556.6
3581.67
3604.14
3623.63
3639.75
3652.2
3660.7
3665.06
3665.14
3660.93
3652.51
3639.96
3623.51
3603.46
3580.14
3553.95
3525.34
3494.77
3462.72
3429.68
3396.12
3362.5
3329.24
3296.69
3265.17
3234.93
3206.17
3179.05
3153.66
3130.06
3108.31
3088.38
3070.27
3053.92
3039.29
3026.31
3014.9
3005
2996.54
2989.45
2983.68
2979.17
2975.88
2973.78
2972.83
2973.03
2974.35
2976.79
2980.36
2985.05
2990.89
2997.91
3006.13
3015.57
3026.28
3038.3
3051.67
3066.42
3082.63
3100.32
3119.54
3140.31
3162.65
3186.54
3212
3238.99
3267.44
3297.28
3323.63
3354.93
3386.78
3418.83
3450.66
3481.87
3511.96
3540.43
3566.78
3590.52
3611.23
3628.51
3642.05
3651.62
3657.08
3658.36
3655.35
3648.22
3637.15
3622.32
3604.05
3582.69
3558.63
3532.29
3504.15
3474.67
3444.3
3413.49
3382.62
3352.09
3322.29
3294.69
3267.1
3240.29
3214.54
3189.96
3166.61
3144.51
3123.66
3104.05
3085.69
3068.57
3052.71
3038.1
3024.78
3012.75
3002.05
2992.71
2984.77
2978.25
2973.2
2969.65
2967.65
2967.24
2968.59
2971.64
2976.39
2982.88
2991.11
3001.08
3012.8
3026.26
3041.45
3058.31
3076.77
3096.76
3118.22
3561.19
3577.4
3589.86
3598.42
3603.03
3603.56
3599.48
3591.33
3579.23
3563.3
3543.72
3520.8
3494.88
3466.29
3435.46
3402.76
3368.65
3333.58
3297.98
3262.27
3226.91
3192.36
3160.58
3128.53
3097.57
3068.08
3040.26
3014.22
2990.04
2967.76
2947.37
2928.88
2912.23
2897.39
2884.31
2872.92
2863.18
2855.02
2848.4
2843.26
2839.58
2837.33
2836.51
2837.09
2839.1
2842.57
2847.51
2853.95
2861.94
2871.53
2882.76
2895.68
2910.34
2926.79
2945.06
2965.16
2987.08
3010.81
3036.3
3063.45
3092.18
3122.31
3153.68
3186.08
3219.25
3252.88
3286.68
3320.3
3353.39
3385.57
3416.46
3445.7
3472.93
3497.79
3519.96
3539.12
3555
3567.35
3575.96
3580.67
3581.36
3577.94
3570.51
3559.11
3543.88
3525.04
3502.84
3477.59
3449.64
3419.34
3387.11
3353.35
3318.48
3282.92
3247.1
3211.43
3176.29
3142.07
3109.08
3077.62
3047.92
3020.15
2994.45
2970.88
2949.47
2930.2
2913.05
2897.94
2884.81
2873.57
2864.15
2856.47
2850.44
2846.01
2843.09
2841.64
2841.62
2842.97
2845.66
2849.68
2855
2861.63
2869.56
2878.8
2889.36
2901.26
2914.54
2929.21
2945.32
2962.89
2981.96
3002.55
3024.69
3048.36
3073.57
3100.25
3128.34
3157.72
3188.26
3219.78
3251.99
3284.63
3317.38
3349.88
3381.74
3412.55
3441.88
3469.29
3494.36
3516.67
3535.84
3551.52
3563.41
3571.27
3574.93
3574.26
3569.26
3560
3546.58
3529.22
3508.19
3483.84
3456.56
3426.8
3395.03
3361.75
3327.44
3292.59
3257.68
3223.13
3189.34
3156.63
3125.27
3095.49
3067.46
3041.28
3017.02
2994.72
2974.36
2955.89
2939.27
2924.43
2911.31
2899.83
2889.94
2881.56
2874.63
2869.09
2864.89
2861.97
2860.29
2859.82
2860.53
2862.41
2865.45
2869.67
2875.09
2881.72
2889.6
2898.78
2909.29
2921.2
2934.56
2949.41
2965.8
2983.76
3003.32
3024.48
3047.23
3071.54
3097.37
3124.61
3153.15
3182.84
3213.47
3244.99
3276.83
3308.85
3340.72
3372.06
3402.5
3431.61
3458.98
3484.18
3506.78
3526.38
3542.62
3555.15
3563.71
3568.11
3568.21
3563.98
3555.5
3542.88
3526.33
3506.16
3482.71
3456.38
3427.62
3396.91
3364.71
3331.54
3297.86
3264.13
3230.78
3198.16
3166.57
3136.29
3107.5
3080.36
3054.96
3031.38
3009.63
2989.72
2971.63
2955.3
2940.7
2927.75
2916.36
2906.49
2898.05
2890.98
2885.23
2880.73
2877.46
2875.36
2874.42
2874.62
2875.95
2878.38
2881.94
2886.63
2892.46
2899.47
2907.68
2917.11
2927.8
2939.8
2953.15
2967.89
2984.07
3001.74
3020.94
3041.69
3064.02
3087.9
3113.36
3140.35
3168.82
3198.71
3225.14
3256.52
3288.46
3320.61
3352.56
3383.9
3414.15
3442.77
3469.27
3493.15
3513.98
3531.37
3544.99
3554.62
3560.11
3561.39
3558.35
3551.17
3540.02
3525.1
3506.71
3485.23
3461.04
3434.56
3406.28
3376.67
3346.18
3315.25
3284.28
3253.66
3223.75
3196.29
3168.63
3141.78
3116.01
3091.43
3068.09
3045.99
3025.15
3005.55
2987.2
2970.09
2954.22
2939.62
2926.29
2914.27
2903.56
2894.22
2886.27
2879.74
2874.69
2871.13
2869.12
2868.7
2870.03
2873.08
2877.82
2884.3
2892.53
2902.49
2914.2
2927.66
2942.85
2959.72
2978.19
2998.19
3019.67
3464.04
3480.36
3492.9
3501.53
3506.18
3506.73
3502.64
3494.46
3482.29
3466.26
3446.58
3423.52
3397.46
3368.72
3337.74
3304.89
3270.63
3235.42
3199.68
3163.84
3128.35
3093.65
3062.03
3029.87
2998.84
2969.31
2941.47
2915.43
2891.25
2868.98
2848.61
2830.14
2813.52
2798.7
2785.64
2774.28
2764.56
2756.42
2749.82
2744.7
2741.03
2738.78
2737.96
2738.53
2740.54
2744
2748.93
2755.36
2763.33
2772.9
2784.11
2797.01
2811.65
2828.07
2846.33
2866.42
2888.33
2912.07
2937.56
2964.74
2993.49
3023.67
3055.09
3087.56
3120.8
3154.52
3188.43
3222.16
3255.36
3287.67
3318.69
3348.06
3375.42
3400.41
3422.7
3441.97
3457.95
3470.38
3479.05
3483.8
3484.51
3481.08
3473.61
3462.16
3446.84
3427.9
3405.58
3380.2
3352.11
3321.67
3289.29
3255.38
3220.36
3184.67
3148.72
3112.93
3077.69
3043.38
3010.32
2978.81
2949.07
2921.28
2895.57
2872.01
2850.62
2831.38
2814.25
2799.18
2786.08
2774.87
2765.48
2757.83
2751.83
2747.41
2744.52
2743.09
2743.08
2744.44
2747.14
2751.15
2756.48
2763.1
2771.03
2780.26
2790.81
2802.7
2815.96
2830.62
2846.71
2864.26
2883.31
2903.89
2926.02
2949.69
2974.89
3001.58
3029.69
3059.11
3089.7
3121.29
3153.57
3186.31
3219.17
3251.79
3283.79
3314.74
3344.22
3371.79
3397.01
3419.46
3438.76
3454.55
3466.54
3474.46
3478.15
3477.49
3472.47
3463.15
3449.65
3432.17
3411.01
3386.51
3359.07
3329.14
3297.2
3263.75
3229.28
3194.29
3159.25
3124.59
3090.71
3057.92
3026.52
2996.7
2968.65
2942.47
2918.22
2895.93
2875.59
2857.15
2840.56
2825.75
2812.66
2801.21
2791.34
2782.99
2776.08
2770.56
2766.38
2763.47
2761.81
2761.34
2762.06
2763.93
2766.97
2771.18
2776.59
2783.21
2791.08
2800.24
2810.73
2822.62
2835.95
2850.78
2867.16
2885.1
2904.65
2925.8
2948.55
2972.87
2998.71
3025.97
3054.55
3084.29
3114.99
3146.56
3178.49
3210.62
3242.6
3274.07
3304.65
3333.9
3361.42
3386.77
3409.52
3429.26
3445.62
3458.25
3466.89
3471.33
3471.44
3467.19
3458.65
3445.94
3429.29
3408.98
3385.38
3358.89
3329.96
3299.08
3266.73
3233.39
3199.57
3165.72
3132.26
3099.55
3067.9
3037.57
3008.75
2981.59
2956.19
2932.61
2910.87
2890.98
2872.91
2856.62
2842.04
2829.12
2817.77
2807.92
2799.5
2792.46
2786.72
2782.24
2778.98
2776.89
2775.96
2776.17
2777.5
2779.93
2783.49
2788.17
2793.99
2800.99
2809.18
2818.59
2829.27
2841.25
2854.57
2869.28
2885.45
2903.09
2922.27
2943
2965.31
2989.19
3014.64
3041.64
3070.13
3100.06
3126.61
3158.07
3190.11
3222.37
3254.45
3285.96
3316.37
3345.16
3371.84
3395.89
3416.87
3434.38
3448.09
3457.78
3463.3
3464.58
3461.52
3454.27
3443.03
3428
3409.48
3387.86
3363.51
3336.88
3308.44
3278.68
3248.05
3216.99
3185.91
3155.17
3125.14
3097.86
3070.11
3043.21
3017.42
2992.84
2969.5
2947.42
2926.58
2906.99
2888.65
2871.54
2855.68
2841.08
2827.76
2815.73
2805.02
2795.67
2787.71
2781.18
2776.11
2772.54
2770.52
2770.08
2771.41
2774.45
2779.19
2785.66
2793.88
2803.83
2815.54
2828.99
2844.18
2861.06
2879.54
2899.56
2921.05
3367.02
3383.46
3396.09
3404.79
3409.49
3410.06
3405.97
3397.73
3385.49
3369.36
3349.55
3326.34
3300.12
3271.22
3240.06
3207.05
3172.62
3137.25
3101.36
3065.38
3029.74
2994.86
2963.44
2931.14
2900.03
2870.45
2842.59
2816.54
2792.38
2770.12
2749.77
2731.32
2714.72
2699.94
2686.91
2675.57
2665.88
2657.76
2651.18
2646.07
2642.42
2640.18
2639.35
2639.93
2641.93
2645.38
2650.3
2656.71
2664.66
2674.2
2685.39
2698.26
2712.88
2729.28
2747.53
2767.6
2789.51
2813.24
2838.75
2865.94
2894.73
2924.95
2956.44
2988.97
3022.31
3056.13
3090.15
3124.01
3157.35
3189.8
3220.96
3250.48
3277.99
3303.12
3325.54
3344.94
3361.03
3373.55
3382.29
3387.09
3387.82
3384.39
3376.88
3365.35
3349.94
3330.88
3308.43
3282.9
3254.64
3224.04
3191.49
3157.42
3122.24
3086.39
3050.3
3014.38
2979.03
2944.62
2911.48
2879.9
2850.12
2822.31
2796.6
2773.05
2751.67
2732.46
2715.37
2700.33
2687.27
2676.1
2666.75
2659.12
2653.15
2648.76
2645.89
2644.48
2644.48
2645.85
2648.56
2652.58
2657.91
2664.53
2672.45
2681.67
2692.21
2704.09
2717.33
2731.97
2748.04
2765.57
2784.6
2805.16
2827.28
2850.94
2876.15
2902.85
2930.98
2960.44
2991.08
3022.74
3055.12
3087.96
3120.94
3153.7
3185.85
3216.97
3246.62
3274.36
3299.74
3322.36
3341.81
3357.73
3369.81
3377.82
3381.55
3380.89
3375.84
3366.46
3352.86
3335.26
3313.95
3289.27
3261.65
3231.53
3199.4
3165.76
3131.12
3095.96
3060.77
3025.99
2992.01
2959.14
2927.68
2897.83
2869.75
2843.56
2819.33
2797.06
2776.75
2758.34
2741.78
2727
2713.93
2702.52
2692.68
2684.35
2677.47
2671.98
2667.81
2664.93
2663.27
2662.82
2663.54
2665.41
2668.44
2672.65
2678.05
2684.66
2692.51
2701.64
2712.11
2723.98
2737.29
2752.09
2768.45
2786.38
2805.91
2827.05
2849.8
2874.13
2899.98
2927.27
2955.89
2985.68
3016.45
3048.09
3080.13
3112.37
3144.48
3176.1
3206.82
3236.25
3263.94
3289.45
3312.37
3332.27
3348.76
3361.51
3370.23
3374.72
3374.84
3370.56
3361.96
3349.15
3332.37
3311.91
3288.14
3261.47
3232.36
3201.29
3168.75
3135.24
3101.26
3067.27
3033.69
3000.88
2969.16
2938.77
2909.91
2882.73
2857.33
2833.75
2812.03
2792.16
2774.12
2757.86
2743.31
2730.42
2719.1
2709.29
2700.9
2693.88
2688.16
2683.7
2680.46
2678.39
2677.46
2677.67
2679
2681.43
2684.98
2689.66
2695.47
2702.45
2710.63
2720.03
2730.68
2742.64
2755.93
2770.62
2786.75
2804.38
2823.52
2844.24
2866.53
2890.39
2915.84
2942.84
2971.35
3001.33
3028.03
3059.58
3091.72
3124.11
3156.35
3188.03
3218.64
3247.62
3274.5
3298.73
3319.88
3337.53
3351.35
3361.1
3366.66
3367.93
3364.84
3357.53
3346.18
3331.03
3312.36
3290.58
3266.06
3239.24
3210.63
3180.7
3149.91
3118.72
3087.5
3056.63
3026.45
2999.38
2971.52
2944.58
2918.77
2894.19
2870.85
2848.78
2827.96
2808.38
2790.05
2772.94
2757.09
2742.49
2729.16
2717.13
2706.42
2697.06
2689.09
2682.55
2677.47
2673.9
2671.86
2671.41
2672.73
2675.75
2680.48
2686.95
2695.15
2705.1
2716.8
2730.25
2745.44
2762.32
2780.82
2800.85
2822.37
3270.11
3286.68
3299.43
3308.21
3312.96
3313.55
3309.45
3301.17
3288.83
3272.59
3252.64
3229.27
3202.88
3173.78
3142.44
3109.23
3074.62
3039.07
3003.01
2966.87
2931.06
2895.99
2864.79
2832.33
2801.13
2771.51
2743.62
2717.57
2693.41
2671.17
2650.84
2632.42
2615.86
2601.1
2588.1
2576.8
2567.13
2559.04
2552.48
2547.39
2543.75
2541.52
2540.69
2541.26
2543.26
2546.7
2551.6
2557.99
2565.92
2575.44
2586.6
2599.45
2614.04
2630.42
2648.64
2668.7
2690.6
2714.33
2739.85
2767.07
2795.89
2826.16
2857.72
2890.34
2923.77
2957.71
2991.86
3025.85
3059.34
3091.95
3123.28
3152.96
3180.63
3205.92
3228.49
3248.03
3264.24
3276.87
3285.69
3290.54
3291.29
3287.85
3280.29
3268.68
3253.17
3233.98
3211.38
3185.69
3157.25
3126.47
3093.73
3059.47
3024.11
2988.09
2951.84
2915.77
2880.29
2845.77
2812.55
2780.9
2751.08
2723.25
2697.53
2673.99
2652.64
2633.46
2616.4
2601.4
2588.38
2577.25
2567.94
2560.35
2554.41
2550.05
2547.21
2545.82
2545.83
2547.22
2549.93
2553.96
2559.28
2565.9
2573.81
2583.03
2593.55
2605.41
2618.64
2633.25
2649.3