/*--------------------------------*- C++ -*----------------------------------*\
| =========                 |                                                 |
| \\      /  F ield         | OpenFOAM: The Open Source CFD Toolbox           |
|  \\    /   O peration     | Version:  3.0.1                                 |
|   \\  /    A nd           | Web:      www.OpenFOAM.org                      |
|    \\/     M anipulation  |                                                 |
\*---------------------------------------------------------------------------*/
FoamFile
{
    version     2.0;
    format      ascii;
    class       volScalarField;
    location    "16";
    object      p;
}
// * * * * * * * * * * * * * * * * * * * * * * * * * * * * * * * * * * * * * //

dimensions      [1 -1 -2 0 0 0 0];

internalField   nonuniform List<scalar> 
21420
(
3666.43
3645.16
3625.23
3606.78
3589.94
3574.7
3561.04
3548.94
3538.46
3529.58
3522.35
3516.64
3512.48
3509.88
3508.84
3509.37
3511.5
3515.24
3520.61
3527.66
3536.38
3546.8
3558.93
3572.78
3588.34
3605.61
3624.54
3645.14
3667.34
3690.76
3714.94
3743.41
3776.8
3807.99
3838
3866.96
3894.74
3920.98
3945.38
3967.68
3987.66
4005.21
4020.12
4032.01
4040.49
4046.18
4049.61
4050.51
4048.92
4045.02
4038.97
4031.03
4021.71
4011.42
4000.56
3989.43
3978.31
3967.42
3956.93
3946.98
3937.57
3928.65
3920.17
3912.21
3904.81
3897.99
3891.72
3885.97
3880.67
3875.93
3873.35
3870.31
3867.46
3864.85
3862.47
3860.32
3858.38
3856.62
3855.02
3853.56
3852.22
3851
3849.87
3848.86
3847.96
3847.2
3846.61
3846.24
3846.14
3846.37
3846.97
3848
3849.48
3851.44
3853.9
3856.87
3860.35
3864.32
3868.75
3873.59
3878.9
3884.44
3890.23
3896.21
3902.29
3908.39
3914.43
3920.33
3926.01
3931.4
3936.41
3941
3945.12
3948.73
3951.81
3954.35
3956.36
3957.85
3958.87
3959.43
3959.58
3959.35
3958.79
3957.93
3956.79
3955.41
3953.8
3951.96
3949.92
3947.68
3945.23
3942.56
3939.68
3936.57
3933.22
3929.62
3925.77
3921.65
3917.27
3912.63
3907.76
3902.67
3897.41
3892.03
3886.57
3881.11
3875.72
3870.47
3865.43
3860.68
3856.29
3852.31
3848.81
3845.82
3843.38
3841.51
3840.22
3839.52
3839.4
3839.85
3840.83
3842.31
3844.27
3846.64
3849.39
3852.45
3855.77
3859.3
3862.99
3866.78
3870.65
3874.56
3878.48
3882.4
3886.32
3890.23
3894.13
3898.05
3901.98
3905.94
3909.94
3913.98
3918.07
3922.18
3926.31
3930.43
3934.51
3938.51
3942.38
3946.08
3949.54
3952.72
3955.56
3958.01
3960.01
3961.52
3962.48
3962.88
3962.67
3961.85
3960.39
3958.32
3955.63
3952.37
3948.57
3944.3
3939.61
3934.6
3929.33
3923.89
3918.38
3912.86
3907.41
3902.09
3896.95
3892.04
3887.37
3882.97
3878.85
3874.99
3871.38
3868.03
3864.91
3862.01
3859.33
3856.84
3854.55
3852.46
3850.58
3848.92
3847.49
3846.31
3845.41
3844.8
3844.51
3844.56
3844.96
3845.73
3846.88
3848.42
3850.36
3852.67
3855.38
3858.45
3861.87
3865.63
3869.69
3874.04
3878.63
3883.44
3888.42
3893.54
3898.76
3904.05
3909.36
3914.65
3919.89
3925.03
3930.04
3934.87
3939.49
3943.85
3947.91
3951.64
3954.99
3957.93
3960.43
3962.45
3963.97
3964.96
3965.4
3965.21
3964.44
3963.12
3961.23
3958.81
3955.88
3952.47
3948.63
3944.41
3939.87
3935.08
3930.11
3925.02
3919.88
3914.78
3909.77
3904.9
3900.24
3895.83
3891.69
3887.86
3884.35
3881.2
3878.43
3876.24
3874.32
3872.69
3871.36
3870.32
3869.53
3868.96
3868.59
3868.41
3868.38
3868.48
3868.68
3868.96
3869.29
3869.67
3870.06
3870.46
3870.87
3871.26
3871.64
3871.99
3872.32
3872.63
3872.91
3873.16
3873.39
3873.59
3873.77
3873.93
3874.07
3874.2
3874.3
3874.39
3874.47
3874.54
3874.6
3874.65
3874.7
3874.74
3874.77
3874.8
3874.82
3874.84
3874.86
3874.87
3874.88
3874.89
3874.9
3874.91
3874.92
3874.92
3874.92
3874.93
3874.93
3874.93
3874.94
3874.94
3874.94
3874.94
3874.94
3874.94
3874.94
3568.26
3546.99
3527.06
3508.62
3491.78
3476.54
3462.88
3450.79
3440.31
3431.42
3424.19
3418.47
3414.32
3411.72
3410.68
3411.21
3413.33
3417.07
3422.44
3429.49
3438.21
3448.63
3460.76
3474.6
3490.16
3507.43
3526.37
3546.97
3569.18
3592.6
3616.79
3645.26
3678.65
3709.85
3739.88
3768.86
3796.66
3822.92
3847.34
3869.66
3889.66
3907.22
3922.14
3934.04
3942.51
3948.22
3951.64
3952.52
3950.93
3947.01
3940.94
3932.99
3923.65
3913.35
3902.47
3891.34
3880.21
3869.31
3858.82
3848.85
3839.44
3830.52
3822.04
3814.08
3806.68
3799.86
3793.6
3787.85
3782.55
3777.82
3775.23
3772.19
3769.34
3766.73
3764.36
3762.21
3760.27
3758.51
3756.91
3755.45
3754.11
3752.89
3751.77
3750.75
3749.85
3749.09
3748.5
3748.13
3748.03
3748.25
3748.86
3749.88
3751.36
3753.32
3755.78
3758.75
3762.23
3766.2
3770.63
3775.48
3780.79
3786.33
3792.13
3798.1
3804.19
3810.29
3816.34
3822.24
3827.92
3833.31
3838.33
3842.92
3847.04
3850.65
3853.73
3856.27
3858.28
3859.77
3860.78
3861.34
3861.49
3861.26
3860.7
3859.84
3858.7
3857.32
3855.7
3853.87
3851.83
3849.59
3847.13
3844.47
3841.59
3838.48
3835.13
3831.53
3827.68
3823.56
3819.18
3814.54
3809.67
3804.58
3799.32
3793.93
3788.47
3783.01
3777.61
3772.36
3767.32
3762.57
3758.17
3754.19
3750.69
3747.7
3745.26
3743.39
3742.1
3741.4
3741.28
3741.72
3742.71
3744.19
3746.15
3748.53
3751.28
3754.34
3757.66
3761.2
3764.88
3768.68
3772.55
3776.46
3780.38
3784.3
3788.22
3792.13
3796.03
3799.95
3803.88
3807.84
3811.84
3815.88
3819.96
3824.08
3828.21
3832.33
3836.41
3840.42
3844.29
3847.99
3851.45
3854.64
3857.48
3859.93
3861.93
3863.44
3864.41
3864.8
3864.6
3863.77
3862.32
3860.24
3857.55
3854.29
3850.49
3846.21
3841.53
3836.51
3831.23
3825.8
3820.28
3814.76
3809.3
3803.98
3798.84
3793.93
3789.26
3784.86
3780.73
3776.87
3773.27
3769.92
3766.8
3763.91
3761.22
3758.73
3756.44
3754.35
3752.47
3750.81
3749.38
3748.2
3747.3
3746.69
3746.4
3746.44
3746.84
3747.62
3748.77
3750.31
3752.24
3754.56
3757.26
3760.33
3763.76
3767.52
3771.58
3775.93
3780.52
3785.33
3790.31
3795.43
3800.66
3805.95
3811.26
3816.55
3821.79
3826.94
3831.95
3836.78
3841.4
3845.76
3849.83
3853.55
3856.91
3859.85
3862.35
3864.37
3865.89
3866.88
3867.33
3867.13
3866.37
3865.04
3863.15
3860.73
3857.8
3854.38
3850.54
3846.32
3841.78
3836.99
3832.01
3826.92
3821.78
3816.68
3811.66
3806.79
3802.13
3797.71
3793.58
3789.74
3786.24
3783.09
3780.32
3778.12
3776.2
3774.58
3773.25
3772.21
3771.42
3770.85
3770.49
3770.31
3770.28
3770.38
3770.58
3770.86
3771.19
3771.57
3771.96
3772.37
3772.77
3773.16
3773.54
3773.89
3774.23
3774.53
3774.81
3775.06
3775.29
3775.5
3775.68
3775.83
3775.97
3776.1
3776.2
3776.3
3776.38
3776.44
3776.5
3776.55
3776.6
3776.64
3776.67
3776.7
3776.72
3776.74
3776.76
3776.77
3776.78
3776.79
3776.8
3776.81
3776.82
3776.82
3776.82
3776.83
3776.83
3776.83
3776.84
3776.84
3776.84
3776.84
3776.84
3776.84
3776.84
3470.03
3448.76
3428.83
3410.39
3393.55
3378.32
3364.66
3352.57
3342.09
3333.19
3325.96
3320.25
3316.1
3313.5
3312.45
3312.98
3315.1
3318.83
3324.21
3331.25
3339.96
3350.38
3362.51
3376.36
3391.92
3409.19
3428.13
3448.73
3470.95
3494.39
3518.58
3547.05
3580.46
3611.69
3641.75
3670.76
3698.61
3724.9
3749.36
3771.73
3791.76
3809.35
3824.29
3836.19
3844.66
3850.38
3853.79
3854.65
3853.03
3849.08
3842.98
3835
3825.63
3815.3
3804.4
3793.24
3782.09
3771.18
3760.68
3750.71
3741.29
3732.37
3723.89
3715.92
3708.52
3701.7
3695.44
3689.7
3684.4
3679.7
3677.09
3674.05
3671.21
3668.61
3666.23
3664.09
3662.15
3660.39
3658.79
3657.33
3656
3654.78
3653.66
3652.64
3651.74
3650.97
3650.38
3650.01
3649.9
3650.12
3650.73
3651.75
3653.22
3655.18
3657.64
3660.61
3664.09
3668.06
3672.5
3677.35
3682.66
3688.2
3694.01
3699.99
3706.08
3712.2
3718.25
3724.16
3729.85
3735.24
3740.26
3744.86
3748.98
3752.59
3755.67
3758.21
3760.22
3761.71
3762.72
3763.28
3763.42
3763.19
3762.63
3761.76
3760.62
3759.24
3757.62
3755.79
3753.75
3751.5
3749.05
3746.39
3743.51
3740.4
3737.05
3733.45
3729.6
3725.48
3721.1
3716.46
3711.58
3706.49
3701.23
3695.83
3690.37
3684.9
3679.5
3674.24
3669.2
3664.44
3660.04
3656.06
3652.55
3649.55
3647.11
3645.24
3643.95
3643.25
3643.14
3643.58
3644.57
3646.06
3648.02
3650.4
3653.15
3656.22
3659.55
3663.08
3666.77
3670.58
3674.45
3678.35
3682.28
3686.2
3690.12
3694.03
3697.93
3701.85
3705.78
3709.74
3713.74
3717.78
3721.86
3725.98
3730.11
3734.24
3738.32
3742.32
3746.2
3749.9
3753.38
3756.56
3759.41
3761.86
3763.87
3765.38
3766.35
3766.75
3766.55
3765.72
3764.27
3762.19
3759.5
3756.23
3752.43
3748.14
3743.45
3738.42
3733.15
3727.7
3722.18
3716.65
3711.19
3705.87
3700.73
3695.81
3691.14
3686.74
3682.61
3678.75
3675.15
3671.8
3668.69
3665.79
3663.1
3660.62
3658.33
3656.24
3654.36
3652.69
3651.26
3650.08
3649.17
3648.56
3648.27
3648.32
3648.72
3649.49
3650.64
3652.18
3654.11
3656.43
3659.13
3662.2
3665.63
3669.39
3673.46
3677.81
3682.41
3687.21
3692.2
3697.32
3702.55
3707.84
3713.16
3718.46
3723.7
3728.85
3733.86
3738.7
3743.32
3747.68
3751.75
3755.48
3758.84
3761.79
3764.28
3766.31
3767.83
3768.82
3769.27
3769.07
3768.31
3766.98
3765.09
3762.67
3759.73
3756.31
3752.47
3748.24
3743.7
3738.9
3733.91
3728.82
3723.68
3718.56
3713.54
3708.67
3704.01
3699.59
3695.45
3691.61
3688.11
3684.95
3682.2
3680
3678.08
3676.46
3675.13
3674.09
3673.3
3672.74
3672.37
3672.2
3672.17
3672.28
3672.48
3672.76
3673.09
3673.47
3673.86
3674.27
3674.67
3675.06
3675.44
3675.8
3676.13
3676.44
3676.72
3676.97
3677.2
3677.4
3677.58
3677.74
3677.88
3678
3678.1
3678.2
3678.28
3678.35
3678.4
3678.46
3678.5
3678.54
3678.57
3678.6
3678.62
3678.64
3678.66
3678.67
3678.68
3678.69
3678.7
3678.71
3678.72
3678.72
3678.72
3678.73
3678.73
3678.73
3678.74
3678.74
3678.74
3678.74
3678.74
3678.74
3678.74
3371.73
3350.46
3330.54
3312.1
3295.27
3280.03
3266.38
3254.3
3243.81
3234.9
3227.67
3221.97
3217.82
3215.21
3214.16
3214.69
3216.8
3220.53
3225.9
3232.94
3241.65
3252.06
3264.19
3278.04
3293.6
3310.87
3329.82
3350.43
3372.66
3396.11
3420.31
3448.8
3482.23
3513.49
3543.59
3572.66
3600.56
3626.93
3651.45
3673.87
3693.96
3711.59
3726.55
3738.47
3746.94
3752.68
3756.07
3756.9
3755.24
3751.25
3745.1
3737.07
3727.65
3717.28
3706.34
3695.15
3683.98
3673.04
3662.52
3652.54
3643.11
3634.19
3625.7
3617.73
3610.34
3603.52
3597.26
3591.52
3586.24
3581.56
3578.93
3575.9
3573.06
3570.46
3568.09
3565.95
3564.01
3562.26
3560.66
3559.21
3557.88
3556.66
3555.54
3554.52
3553.61
3552.85
3552.25
3551.88
3551.77
3551.98
3552.58
3553.59
3555.06
3557.02
3559.48
3562.45
3565.93
3569.91
3574.35
3579.21
3584.51
3590.07
3595.89
3601.88
3607.98
3614.1
3620.16
3626.08
3631.78
3637.18
3642.21
3646.81
3650.94
3654.55
3657.63
3660.17
3662.18
3663.67
3664.67
3665.22
3665.36
3665.13
3664.56
3663.69
3662.55
3661.16
3659.55
3657.71
3655.67
3653.43
3650.97
3648.31
3645.43
3642.32
3638.98
3635.38
3631.53
3627.41
3623.02
3618.38
3613.5
3608.41
3603.14
3597.74
3592.27
3586.79
3581.38
3576.11
3571.06
3566.3
3561.89
3557.9
3554.39
3551.39
3548.94
3547.07
3545.78
3545.09
3544.97
3545.42
3546.41
3547.9
3549.87
3552.25
3555.01
3558.09
3561.42
3564.96
3568.66
3572.47
3576.34
3580.25
3584.18
3588.1
3592.02
3595.92
3599.83
3603.74
3607.67
3611.63
3615.63
3619.67
3623.76
3627.87
3632.01
3636.14
3640.23
3644.24
3648.12
3651.83
3655.31
3658.5
3661.36
3663.81
3665.83
3667.34
3668.32
3668.72
3668.52
3667.69
3666.24
3664.16
3661.47
3658.19
3654.38
3650.09
3645.39
3640.35
3635.06
3629.61
3624.07
3618.54
3613.07
3607.74
3602.6
3597.68
3593.01
3588.61
3584.48
3580.62
3577.02
3573.67
3570.56
3567.66
3564.98
3562.49
3560.2
3558.11
3556.23
3554.56
3553.13
3551.95
3551.04
3550.43
3550.13
3550.17
3550.57
3551.34
3552.49
3554.03
3555.96
3558.28
3560.99
3564.06
3567.49
3571.25
3575.32
3579.67
3584.28
3589.09
3594.08
3599.21
3604.44
3609.74
3615.06
3620.36
3625.61
3630.76
3635.78
3640.62
3645.25
3649.62
3653.69
3657.43
3660.79
3663.74
3666.24
3668.27
3669.79
3670.78
3671.23
3671.04
3670.27
3668.94
3667.05
3664.62
3661.68
3658.26
3654.4
3650.17
3645.62
3640.81
3635.82
3630.71
3625.57
3620.45
3615.42
3610.54
3605.87
3601.45
3597.31
3593.47
3589.96
3586.8
3584.07
3581.87
3579.95
3578.33
3577
3575.96
3575.18
3574.62
3574.26
3574.08
3574.06
3574.17
3574.37
3574.66
3574.99
3575.37
3575.77
3576.17
3576.58
3576.97
3577.35
3577.7
3578.03
3578.34
3578.62
3578.87
3579.1
3579.3
3579.48
3579.64
3579.78
3579.9
3580.01
3580.1
3580.18
3580.25
3580.31
3580.36
3580.4
3580.44
3580.47
3580.5
3580.52
3580.54
3580.56
3580.57
3580.58
3580.59
3580.6
3580.61
3580.62
3580.62
3580.62
3580.63
3580.63
3580.63
3580.64
3580.64
3580.64
3580.64
3580.64
3580.64
3580.64
3273.36
3252.1
3232.18
3213.74
3196.91
3181.68
3168.04
3155.96
3145.48
3136.54
3129.32
3123.63
3119.47
3116.87
3115.81
3116.33
3118.44
3122.16
3127.53
3134.55
3143.26
3153.67
3165.8
3179.64
3195.2
3212.48
3231.44
3252.06
3274.3
3297.77
3322
3350.49
3383.95
3415.25
3445.42
3474.56
3502.54
3529
3553.6
3576.1
3596.26
3613.94
3628.94
3640.87
3649.34
3655.11
3658.47
3659.26
3657.55
3653.5
3647.29
3639.19
3629.71
3619.28
3608.29
3597.06
3585.85
3574.89
3564.35
3554.35
3544.91
3535.98
3527.49
3519.52
3512.12
3505.31
3499.06
3493.32
3488.05
3483.41
3480.75
3477.73
3474.9
3472.3
3469.94
3467.8
3465.87
3464.12
3462.53
3461.08
3459.75
3458.53
3457.41
3456.39
3455.49
3454.72
3454.12
3453.73
3453.61
3453.82
3454.41
3455.42
3456.89
3458.84
3461.3
3464.27
3467.75
3471.73
3476.18
3481.05
3486.36
3491.93
3497.75
3503.76
3509.87
3516
3522.08
3528.01
3533.72
3539.13
3544.17
3548.78
3552.92
3556.53
3559.62
3562.15
3564.16
3565.64
3566.64
3567.19
3567.32
3567.08
3566.51
3565.63
3564.49
3563.1
3561.48
3559.65
3557.6
3555.36
3552.91
3550.25
3547.37
3544.26
3540.91
3537.32
3533.47
3529.35
3524.96
3520.32
3515.44
3510.33
3505.06
3499.65
3494.17
3488.68
3483.26
3477.98
3472.91
3468.14
3463.72
3459.72
3456.2
3453.2
3450.75
3448.88
3447.59
3446.89
3446.78
3447.23
3448.23
3449.73
3451.7
3454.09
3456.86
3459.94
3463.29
3466.84
3470.54
3474.35
3478.23
3482.15
3486.07
3490
3493.92
3497.82
3501.73
3505.64
3509.57
3513.52
3517.52
3521.56
3525.65
3529.77
3533.91
3538.04
3542.14
3546.16
3550.05
3553.76
3557.25
3560.46
3563.32
3565.78
3567.8
3569.33
3570.31
3570.72
3570.52
3569.69
3568.24
3566.15
3563.46
3560.18
3556.36
3552.05
3547.34
3542.29
3536.99
3531.52
3525.97
3520.42
3514.95
3509.61
3504.46
3499.54
3494.87
3490.46
3486.34
3482.48
3478.88
3475.54
3472.42
3469.53
3466.84
3464.36
3462.07
3459.98
3458.1
3456.43
3454.99
3453.8
3452.89
3452.28
3451.98
3452.02
3452.41
3453.18
3454.33
3455.87
3457.8
3460.12
3462.83
3465.91
3469.34
3473.1
3477.18
3481.53
3486.14
3490.96
3495.96
3501.09
3506.33
3511.63
3516.96
3522.27
3527.52
3532.68
3537.7
3542.55
3547.19
3551.56
3555.64
3559.38
3562.75
3565.71
3568.21
3570.24
3571.77
3572.77
3573.22
3573.02
3572.26
3570.93
3569.03
3566.6
3563.65
3560.22
3556.36
3552.11
3547.55
3542.73
3537.73
3532.61
3527.45
3522.33
3517.29
3512.41
3507.73
3503.3
3499.15
3495.31
3491.8
3488.63
3485.93
3483.72
3481.8
3480.18
3478.86
3477.83
3477.05
3476.49
3476.14
3475.97
3475.95
3476.06
3476.27
3476.55
3476.89
3477.27
3477.67
3478.08
3478.48
3478.88
3479.25
3479.61
3479.94
3480.25
3480.53
3480.78
3481
3481.21
3481.39
3481.54
3481.68
3481.8
3481.91
3482
3482.08
3482.15
3482.21
3482.26
3482.3
3482.34
3482.37
3482.4
3482.42
3482.44
3482.46
3482.47
3482.48
3482.49
3482.5
3482.51
3482.52
3482.52
3482.53
3482.53
3482.53
3482.53
3482.54
3482.54
3482.54
3482.54
3482.54
3482.54
3482.54
3174.93
3153.67
3133.75
3115.32
3098.5
3083.27
3069.64
3057.57
3047.09
3038.13
3030.91
3025.22
3021.07
3018.46
3017.4
3017.91
3020.01
3023.73
3029.08
3036.1
3044.81
3055.21
3067.33
3081.17
3096.73
3114.02
3132.99
3153.62
3175.88
3199.38
3223.63
3252.13
3285.63
3316.99
3347.23
3376.46
3404.54
3431.1
3455.82
3478.42
3498.66
3516.41
3531.46
3543.41
3551.88
3557.67
3561
3561.74
3559.97
3555.84
3549.55
3541.37
3531.81
3521.31
3510.26
3498.98
3487.72
3476.72
3466.15
3456.13
3446.68
3437.74
3429.24
3421.28
3413.88
3407.07
3400.83
3395.1
3389.84
3385.25
3382.55
3379.55
3376.72
3374.13
3371.78
3369.64
3367.72
3365.97
3364.39
3362.94
3361.62
3360.4
3359.28
3358.26
3357.35
3356.58
3355.97
3355.58
3355.45
3355.64
3356.23
3357.23
3358.69
3360.64
3363.09
3366.07
3369.55
3373.54
3377.99
3382.88
3388.19
3393.77
3399.61
3405.63
3411.76
3417.91
3424
3429.95
3435.68
3441.1
3446.15
3450.77
3454.91
3458.54
3461.62
3464.16
3466.16
3467.64
3468.63
3469.17
3469.29
3469.05
3468.47
3467.59
3466.44
3465.04
3463.42
3461.59
3459.54
3457.3
3454.85
3452.19
3449.31
3446.21
3442.86
3439.27
3435.42
3431.3
3426.91
3422.26
3417.37
3412.27
3406.98
3401.56
3396.07
3390.56
3385.13
3379.83
3374.75
3369.96
3365.54
3361.53
3358
3354.99
3352.54
3350.66
3349.38
3348.68
3348.57
3349.03
3350.03
3351.54
3353.52
3355.92
3358.7
3361.79
3365.15
3368.71
3372.42
3376.24
3380.12
3384.04
3387.97
3391.9
3395.82
3399.72
3403.62
3407.53
3411.46
3415.42
3419.41
3423.45
3427.54
3431.67
3435.81
3439.95
3444.05
3448.08
3451.98
3455.71
3459.21
3462.42
3465.29
3467.77
3469.8
3471.33
3472.32
3472.73
3472.54
3471.72
3470.26
3468.17
3465.47
3462.18
3458.35
3454.03
3449.3
3444.23
3438.92
3433.43
3427.87
3422.31
3416.82
3411.47
3406.31
3401.38
3396.71
3392.31
3388.18
3384.33
3380.73
3377.39
3374.28
3371.39
3368.7
3366.22
3363.93
3361.84
3359.95
3358.28
3356.84
3355.65
3354.73
3354.11
3353.81
3353.85
3354.24
3355.01
3356.15
3357.69
3359.62
3361.95
3364.65
3367.73
3371.17
3374.94
3379.02
3383.38
3388
3392.82
3397.82
3402.97
3408.21
3413.52
3418.86
3424.17
3429.44
3434.6
3439.64
3444.49
3449.13
3453.52
3457.6
3461.36
3464.73
3467.69
3470.21
3472.24
3473.77
3474.77
3475.22
3475.03
3474.26
3472.93
3471.03
3468.59
3465.63
3462.19
3458.32
3454.07
3449.49
3444.66
3439.64
3434.51
3429.34
3424.2
3419.15
3414.26
3409.57
3405.13
3400.98
3397.14
3393.62
3390.45
3387.77
3385.56
3383.64
3382.03
3380.71
3379.68
3378.91
3378.36
3378.01
3377.84
3377.83
3377.95
3378.16
3378.45
3378.79
3379.17
3379.57
3379.98
3380.39
3380.78
3381.16
3381.52
3381.85
3382.16
3382.43
3382.69
3382.91
3383.11
3383.29
3383.45
3383.59
3383.71
3383.81
3383.9
3383.98
3384.05
3384.11
3384.16
3384.2
3384.24
3384.27
3384.3
3384.32
3384.34
3384.36
3384.37
3384.38
3384.39
3384.4
3384.41
3384.42
3384.42
3384.43
3384.43
3384.43
3384.43
3384.44
3384.44
3384.44
3384.44
3384.44
3384.44
3384.44
3076.42
3055.17
3035.26
3016.84
3000.02
2984.8
2971.18
2959.11
2948.63
2939.67
2932.45
2926.76
2922.6
2919.99
2918.92
2919.43
2921.52
2925.23
2930.57
2937.58
2946.28
2956.67
2968.79
2982.63
2998.19
3015.49
3034.46
3055.12
3077.4
3100.92
3125.2
3153.72
3187.26
3218.68
3249.02
3278.35
3306.56
3333.25
3358.09
3380.82
3401.17
3419
3434.1
3446.08
3454.55
3460.35
3463.65
3464.33
3462.48
3458.27
3451.88
3443.6
3433.95
3423.37
3412.24
3400.89
3389.58
3378.54
3367.94
3357.89
3348.42
3339.47
3330.97
3323
3315.61
3308.81
3302.57
3296.84
3291.6
3287.08
3284.34
3281.34
3278.53
3275.94
3273.6
3271.47
3269.55
3267.81
3266.24
3264.8
3263.48
3262.27
3261.15
3260.12
3259.21
3258.43
3257.81
3257.41
3257.27
3257.45
3258.03
3259.02
3260.48
3262.42
3264.87
3267.85
3271.34
3275.33
3279.79
3284.69
3290
3295.61
3301.46
3307.5
3313.65
3319.82
3325.93
3331.9
3337.64
3343.08
3348.15
3352.78
3356.93
3360.56
3363.65
3366.18
3368.18
3369.65
3370.64
3371.17
3371.28
3371.03
3370.44
3369.55
3368.39
3367
3365.37
3363.53
3361.49
3359.25
3356.8
3354.14
3351.26
3348.16
3344.82
3341.23
3337.38
3333.26
3328.87
3324.22
3319.32
3314.2
3308.9
3303.47
3297.96
3292.44
3286.99
3281.68
3276.58
3271.78
3267.33
3263.32
3259.78
3256.76
3254.3
3252.42
3251.14
3250.44
3250.34
3250.8
3251.81
3253.32
3255.32
3257.73
3260.52
3263.63
3267
3270.57
3274.29
3278.12
3282.01
3285.94
3289.87
3293.8
3297.72
3301.62
3305.52
3309.43
3313.35
3317.3
3321.3
3325.34
3329.43
3333.56
3337.71
3341.86
3345.97
3350.01
3353.92
3357.66
3361.17
3364.4
3367.29
3369.78
3371.82
3373.36
3374.36
3374.78
3374.58
3373.76
3372.31
3370.22
3367.51
3364.2
3360.36
3356.03
3351.28
3346.19
3340.85
3335.35
3329.76
3324.19
3318.68
3313.32
3308.16
3303.22
3298.54
3294.14
3290.02
3286.16
3282.57
3279.23
3276.13
3273.24
3270.56
3268.07
3265.78
3263.69
3261.8
3260.12
3258.68
3257.49
3256.56
3255.94
3255.63
3255.66
3256.05
3256.82
3257.96
3259.5
3261.43
3263.76
3266.47
3269.55
3272.99
3276.77
3280.85
3285.22
3289.84
3294.68
3299.69
3304.84
3310.1
3315.41
3320.76
3326.08
3331.35
3336.53
3341.57
3346.44
3351.09
3355.48
3359.58
3363.34
3366.73
3369.7
3372.22
3374.26
3375.79
3376.8
3377.25
3377.06
3376.29
3374.95
3373.05
3370.6
3367.64
3364.19
3360.3
3356.03
3351.43
3346.59
3341.55
3336.41
3331.22
3326.06
3321
3316.1
3311.4
3306.95
3302.8
3298.95
3295.43
3292.25
3289.61
3287.39
3285.47
3283.86
3282.55
3281.53
3280.76
3280.22
3279.88
3279.72
3279.71
3279.83
3280.05
3280.34
3280.69
3281.07
3281.48
3281.89
3282.3
3282.69
3283.07
3283.43
3283.76
3284.07
3284.34
3284.6
3284.82
3285.02
3285.2
3285.36
3285.49
3285.61
3285.72
3285.81
3285.89
3285.95
3286.01
3286.06
3286.11
3286.14
3286.17
3286.2
3286.22
3286.24
3286.26
3286.27
3286.28
3286.29
3286.3
3286.31
3286.32
3286.32
3286.33
3286.33
3286.33
3286.33
3286.34
3286.34
3286.34
3286.34
3286.34
3286.34
3286.34
2977.85
2956.6
2936.7
2918.29
2901.48
2886.27
2872.65
2860.6
2850.12
2841.14
2833.92
2828.24
2824.08
2821.46
2820.38
2820.88
2822.96
2826.66
2831.99
2838.99
2847.68
2858.07
2870.17
2884.01
2899.58
2916.88
2935.87
2956.54
2978.85
3002.41
3026.72
3055.25
3088.84
3120.34
3150.78
3180.24
3208.59
3235.44
3260.43
3283.3
3303.77
3321.7
3336.87
3348.88
3357.36
3363.17
3366.43
3367.05
3365.11
3360.79
3354.28
3345.89
3336.13
3325.45
3314.23
3302.81
3291.44
3280.34
3269.7
3259.63
3250.14
3241.18
3232.67
3224.7
3217.31
3210.52
3204.28
3198.57
3193.34
3188.89
3186.11
3183.13
3180.32
3177.74
3175.4
3173.29
3171.38
3169.65
3168.08
3166.65
3165.33
3164.12
3163
3161.98
3161.06
3160.27
3159.65
3159.24
3159.08
3159.25
3159.81
3160.8
3162.24
3164.18
3166.63
3169.6
3173.1
3177.1
3181.57
3186.48
3191.81
3197.43
3203.31
3209.37
3215.54
3221.73
3227.86
3233.85
3239.62
3245.08
3250.17
3254.81
3258.97
3262.61
3265.69
3268.23
3270.22
3271.69
3272.66
3273.18
3273.29
3273.02
3272.42
3271.52
3270.36
3268.96
3267.33
3265.49
3263.45
3261.2
3258.75
3256.1
3253.22
3250.12
3246.79
3243.2
3239.35
3235.23
3230.84
3226.18
3221.28
3216.15
3210.84
3205.39
3199.86
3194.32
3188.85
3183.51
3178.4
3173.57
3169.12
3165.08
3161.53
3158.51
3156.04
3154.16
3152.87
3152.18
3152.08
3152.55
3153.56
3155.09
3157.1
3159.53
3162.33
3165.45
3168.84
3172.42
3176.16
3180
3183.9
3187.83
3191.77
3195.7
3199.62
3203.52
3207.42
3211.32
3215.24
3219.19
3223.19
3227.23
3231.32
3235.45
3239.61
3243.77
3247.89
3251.94
3255.87
3259.62
3263.15
3266.39
3269.29
3271.8
3273.85
3275.41
3276.41
3276.84
3276.66
3275.84
3274.38
3272.28
3269.56
3266.25
3262.39
3258.04
3253.26
3248.15
3242.79
3237.26
3231.66
3226.06
3220.54
3215.17
3209.99
3205.05
3200.37
3195.96
3191.84
3187.99
3184.4
3181.07
3177.96
3175.08
3172.4
3169.92
3167.63
3165.53
3163.64
3161.96
3160.51
3159.31
3158.38
3157.75
3157.44
3157.47
3157.85
3158.61
3159.75
3161.29
3163.22
3165.55
3168.26
3171.35
3174.8
3178.58
3182.67
3187.05
3191.68
3196.52
3201.55
3206.71
3211.97
3217.3
3222.66
3227.99
3233.28
3238.46
3243.52
3248.4
3253.06
3257.46
3261.57
3265.34
3268.74
3271.72
3274.25
3276.3
3277.84
3278.84
3279.3
3279.11
3278.34
3277
3275.09
3272.63
3269.66
3266.19
3262.29
3258
3253.39
3248.52
3243.47
3238.3
3233.1
3227.92
3222.85
3217.93
3213.22
3208.76
3204.6
3200.75
3197.22
3194.03
3191.44
3189.21
3187.29
3185.68
3184.38
3183.36
3182.6
3182.07
3181.74
3181.59
3181.59
3181.72
3181.94
3182.24
3182.59
3182.98
3183.38
3183.8
3184.21
3184.6
3184.98
3185.34
3185.67
3185.98
3186.26
3186.51
3186.73
3186.93
3187.11
3187.26
3187.4
3187.52
3187.62
3187.71
3187.79
3187.86
3187.92
3187.97
3188.01
3188.04
3188.08
3188.1
3188.12
3188.14
3188.16
3188.17
3188.19
3188.2
3188.2
3188.21
3188.22
3188.22
3188.23
3188.23
3188.23
3188.23
3188.24
3188.24
3188.24
3188.24
3188.24
3188.24
3188.24
2879.21
2857.97
2838.08
2819.67
2802.87
2787.67
2774.06
2762.02
2751.54
2742.56
2735.34
2729.66
2725.49
2722.87
2721.78
2722.27
2724.34
2728.02
2733.34
2740.33
2749.01
2759.38
2771.49
2785.32
2800.89
2818.19
2837.2
2857.9
2880.24
2903.83
2928.19
2956.74
2990.38
3021.97
3052.53
3082.12
3110.64
3137.66
3162.83
3185.87
3206.48
3224.51
3239.77
3251.82
3260.3
3266.11
3269.33
3269.88
3267.83
3263.39
3256.76
3248.24
3238.35
3227.56
3216.24
3204.73
3193.29
3182.13
3171.45
3161.34
3151.83
3142.85
3134.34
3126.37
3118.99
3112.19
3105.97
3100.26
3095.06
3090.68
3087.86
3084.89
3082.09
3079.53
3077.2
3075.09
3073.19
3071.47
3069.91
3068.49
3067.18
3065.97
3064.86
3063.83
3062.91
3062.11
3061.48
3061.05
3060.88
3061.03
3061.58
3062.55
3063.99
3065.92
3068.37
3071.34
3074.84
3078.85
3083.33
3088.26
3093.6
3099.24
3105.14
3111.23
3117.42
3123.64
3129.8
3135.82
3141.61
3147.09
3152.2
3156.86
3161.03
3164.67
3167.76
3170.3
3172.28
3173.74
3174.7
3175.21
3175.3
3175.02
3174.41
3173.51
3172.34
3170.93
3169.3
3167.45
3165.41
3163.17
3160.72
3158.06
3155.19
3152.1
3148.76
3145.18
3141.33
3137.21
3132.81
3128.15
3123.24
3118.1
3112.77
3107.3
3101.76
3096.2
3090.7
3085.34
3080.2
3075.36
3070.88
3066.83
3063.27
3060.23
3057.76
3055.88
3054.59
3053.9
3053.8
3054.28
3055.3
3056.85
3058.86
3061.31
3064.13
3067.27
3070.67
3074.27
3078.02
3081.87
3085.79
3089.72
3093.67
3097.6
3101.52
3105.42
3109.31
3113.21
3117.13
3121.08
3125.07
3129.11
3133.2
3137.34
3141.51
3145.67
3149.81
3153.87
3157.82
3161.59
3165.14
3168.4
3171.32
3173.84
3175.91
3177.48
3178.5
3178.93
3178.75
3177.94
3176.48
3174.38
3171.65
3168.32
3164.44
3160.06
3155.27
3150.13
3144.74
3139.18
3133.55
3127.93
3122.39
3117
3111.81
3106.86
3102.18
3097.77
3093.65
3089.81
3086.22
3082.89
3079.79
3076.91
3074.24
3071.75
3069.47
3067.37
3065.47
3063.79
3062.33
3061.12
3060.19
3059.55
3059.23
3059.25
3059.63
3060.39
3061.53
3063.07
3065
3067.33
3070.04
3073.14
3076.59
3080.38
3084.48
3088.87
3093.51
3098.36
3103.4
3108.57
3113.85
3119.19
3124.56
3129.91
3135.2
3140.4
3145.47
3150.36
3155.03
3159.45
3163.57
3167.36
3170.76
3173.76
3176.3
3178.35
3179.9
3180.91
3181.37
3181.18
3180.41
3179.07
3177.15
3174.68
3171.69
3168.21
3164.29
3159.98
3155.35
3150.46
3145.38
3140.2
3134.97
3129.78
3124.68
3119.75
3115.03
3110.56
3106.39
3102.53
3099
3095.79
3093.26
3091.01
3089.09
3087.49
3086.2
3085.19
3084.44
3083.92
3083.59
3083.45
3083.46
3083.6
3083.83
3084.13
3084.49
3084.88
3085.29
3085.71
3086.12
3086.52
3086.9
3087.26
3087.59
3087.89
3088.17
3088.42
3088.64
3088.84
3089.02
3089.17
3089.31
3089.43
3089.53
3089.62
3089.7
3089.76
3089.82
3089.87
3089.91
3089.95
3089.98
3090
3090.03
3090.04
3090.06
3090.07
3090.09
3090.1
3090.1
3090.11
3090.12
3090.12
3090.13
3090.13
3090.13
3090.14
3090.14
3090.14
3090.14
3090.14
3090.14
3090.14
3090.14
2780.51
2759.27
2739.39
2720.99
2704.2
2689.01
2675.42
2663.38
2652.91
2643.93
2636.7
2631.02
2626.85
2624.21
2623.12
2623.59
2625.65
2629.32
2634.63
2641.6
2650.26
2660.63
2672.72
2686.56
2702.12
2719.44
2738.46
2759.19
2781.56
2805.19
2829.59
2858.17
2891.87
2923.56
2954.25
2984.01
3012.71
3039.93
3065.3
3088.52
3109.29
3127.45
3142.79
3154.89
3163.38
3169.2
3172.37
3172.82
3170.67
3166.09
3159.3
3150.63
3140.61
3129.69
3118.26
3106.65
3095.12
3083.91
3073.17
3063.03
3053.5
3044.5
3035.98
3028.01
3020.63
3013.85
3007.63
3001.93
2996.75
2992.47
2989.61
2986.64
2983.85
2981.3
2978.98
2976.88
2974.99
2973.29
2971.74
2970.32
2969.02
2967.82
2966.7
2965.68
2964.75
2963.94
2963.29
2962.85
2962.67
2962.8
2963.33
2964.29
2965.71
2967.64
2970.08
2973.06
2976.56
2980.58
2985.08
2990.02
2995.38
3001.05
3006.97
3013.08
3019.31
3025.55
3031.74
3037.79
3043.61
3049.12
3054.24
3058.93
3063.11
3066.76
3069.86
3072.39
3074.36
3075.81
3076.76
3077.26
3077.33
3077.04
3076.42
3075.5
3074.33
3072.91
3071.27
3069.43
3067.38
3065.14
3062.69
3060.04
3057.17
3054.08
3050.75
3047.17
3043.32
3039.2
3034.8
3030.13
3025.21
3020.06
3014.71
3009.22
3003.65
2998.07
2992.54
2987.16
2981.99
2977.13
2972.63
2968.56
2964.98
2961.94
2959.46
2957.57
2956.28
2955.59
2955.5
2955.99
2957.02
2958.58
2960.61
2963.08
2965.92
2969.07
2972.49
2976.11
2979.88
2983.75
2987.67
2991.62
2995.56
2999.5
3003.42
3007.32
3011.21
3015.1
3019.01
3022.96
3026.95
3030.99
3035.09
3039.23
3043.41
3047.58
3051.73
3055.81
3059.78
3063.57
3067.13
3070.41
3073.35
3075.89
3077.98
3079.57
3080.6
3081.05
3080.87
3080.06
3078.6
3076.49
3073.75
3070.41
3066.5
3062.1
3057.28
3052.11
3046.69
3041.1
3035.45
3029.8
3024.24
3018.83
3013.63
3008.67
3003.98
2999.57
2995.45
2991.61
2988.03
2984.71
2981.61
2978.74
2976.06
2973.58
2971.29
2969.2
2967.29
2965.6
2964.14
2962.93
2961.98
2961.34
2961.01
2961.03
2961.4
2962.15
2963.29
2964.83
2966.76
2969.09
2971.81
2974.91
2978.37
2982.17
2986.28
2990.68
2995.33
3000.2
3005.24
3010.43
3015.72
3021.08
3026.45
3031.82
3037.13
3042.34
3047.43
3052.33
3057.02
3061.45
3065.59
3069.39
3072.81
3075.81
3078.36
3080.43
3081.98
3083
3083.46
3083.27
3082.5
3081.15
3079.23
3076.75
3073.75
3070.25
3066.31
3061.98
3057.32
3052.41
3047.3
3042.09
3036.84
3031.63
3026.51
3021.56
3016.82
3012.35
3008.16
3004.3
3000.76
2997.54
2995.06
2992.81
2990.88
2989.29
2988.01
2987.01
2986.27
2985.75
2985.44
2985.31
2985.33
2985.48
2985.71
2986.03
2986.39
2986.78
2987.2
2987.62
2988.03
2988.43
2988.81
2989.17
2989.5
2989.81
2990.08
2990.33
2990.55
2990.75
2990.93
2991.08
2991.22
2991.33
2991.44
2991.52
2991.6
2991.67
2991.72
2991.77
2991.81
2991.85
2991.88
2991.91
2991.93
2991.95
2991.96
2991.98
2991.99
2992
2992
2992.01
2992.02
2992.02
2992.03
2992.03
2992.03
2992.04
2992.04
2992.04
2992.04
2992.04
2992.04
2992.04
2992.04
2681.73
2660.51
2640.63
2622.24
2605.47
2590.29
2576.71
2564.69
2554.22
2545.23
2538.01
2532.32
2528.14
2525.5
2524.39
2524.85
2526.89
2530.55
2535.84
2542.8
2551.45
2561.8
2573.89
2587.72
2603.28
2620.61
2639.65
2660.4
2682.82
2706.5
2730.95
2759.55
2793.32
2825.11
2855.95
2885.88
2914.79
2942.23
2967.82
2991.25
3012.21
3030.51
3045.95
3058.11
3066.6
3072.42
3075.53
3075.89
3073.61
3068.87
3061.92
3053.09
3042.9
3031.84
3020.28
3008.57
2996.95
2985.67
2974.87
2964.69
2955.13
2946.12
2937.59
2929.62
2922.25
2915.47
2909.26
2903.58
2898.41
2894.24
2891.33
2888.37
2885.6
2883.05
2880.74
2878.66
2876.79
2875.09
2873.55
2872.15
2870.85
2869.66
2868.55
2867.52
2866.58
2865.76
2865.1
2864.64
2864.44
2864.55
2865.07
2866.01
2867.42
2869.34
2871.78
2874.75
2878.26
2882.29
2886.8
2891.77
2897.14
2902.84
2908.79
2914.93
2921.19
2927.47
2933.69
2939.77
2945.62
2951.15
2956.31
2961.01
2965.21
2968.87
2971.97
2974.5
2976.47
2977.9
2978.84
2979.32
2979.38
2979.07
2978.44
2977.51
2976.32
2974.9
2973.26
2971.41
2969.36