/*--------------------------------*- C++ -*----------------------------------*\
| =========                 |                                                 |
| \\      /  F ield         | OpenFOAM: The Open Source CFD Toolbox           |
|  \\    /   O peration     | Version:  3.0.1                                 |
|   \\  /    A nd           | Web:      www.OpenFOAM.org                      |
|    \\/     M anipulation  |                                                 |
\*---------------------------------------------------------------------------*/
FoamFile
{
    version     2.0;
    format      ascii;
    class       volVectorField;
    location    "35.4";
    object      U;
}
// * * * * * * * * * * * * * * * * * * * * * * * * * * * * * * * * * * * * * //

dimensions      [0 1 -1 0 0 0 0];

internalField   nonuniform List<vector> 
21420
(
(-0.113934 -0.000529557 0)
(-0.108993 -0.000610569 0)
(-0.102426 -0.000692324 0)
(-0.0950067 -0.000777295 0)
(-0.0866951 -0.000870964 0)
(-0.0774585 -0.000961727 0)
(-0.0672672 -0.00106301 0)
(-0.0561002 -0.00115701 0)
(-0.0439505 -0.00124976 0)
(-0.030818 -0.0013558 0)
(-0.0166402 -0.00144367 0)
(-0.00160811 -0.00152777 0)
(0.0142139 -0.00162454 0)
(0.0309132 -0.00168778 0)
(0.0482934 -0.00176767 0)
(0.0662246 -0.00180402 0)
(0.0845379 -0.00182007 0)
(0.103045 -0.00185135 0)
(0.12154 -0.001826 0)
(0.139776 -0.00177452 0)
(0.157497 -0.00173172 0)
(0.174447 -0.00163102 0)
(0.19035 -0.0015045 0)
(0.204932 -0.00137509 0)
(0.217943 -0.00120112 0)
(0.229144 -0.0010173 0)
(0.238324 -0.000803266 0)
(0.245306 -0.000575788 0)
(0.249967 -0.000339193 0)
(0.25216 -9.28228e-05 0)
(0.251943 0.000151258 0)
(0.2492 0.000396181 0)
(0.243959 0.000640187 0)
(0.236417 0.000855129 0)
(0.226682 0.00106772 0)
(0.21492 0.00126926 0)
(0.201339 0.00141911 0)
(0.186197 0.00157012 0)
(0.169726 0.00170147 0)
(0.152188 0.00177158 0)
(0.133841 0.00184724 0)
(0.114963 0.00186746 0)
(0.0957723 0.0018918 0)
(0.0765105 0.00189819 0)
(0.0574001 0.00185281 0)
(0.0384646 0.00182304 0)
(0.0201066 0.00177787 0)
(0.00293199 0.00168614 0)
(-0.0133838 0.00162071 0)
(-0.0291863 0.00154146 0)
(-0.0441749 0.00144787 0)
(-0.0582859 0.00135848 0)
(-0.0714855 0.00126169 0)
(-0.0837578 0.00117073 0)
(-0.0951048 0.0010791 0)
(-0.105539 0.000986174 0)
(-0.115089 0.000899811 0)
(-0.123761 0.000812676 0)
(-0.131584 0.000726713 0)
(-0.138579 0.000647969 0)
(-0.144766 0.000565615 0)
(-0.150197 0.000490098 0)
(-0.154831 0.000414056 0)
(-0.158667 0.000336284 0)
(-0.161794 0.000263086 0)
(-0.164137 0.000189141 0)
(-0.165633 0.000103726 0)
(-0.166379 3.59431e-05 0)
(-0.166318 -5.80632e-05 0)
(-0.165388 -0.000130531 0)
(-0.16377 -0.000214253 0)
(-0.161183 -0.000301786 0)
(-0.15778 -0.000385449 0)
(-0.153544 -0.000464335 0)
(-0.148409 -0.000565249 0)
(-0.142413 -0.00063978 0)
(-0.135501 -0.000744027 0)
(-0.127665 -0.000828416 0)
(-0.118852 -0.000915046 0)
(-0.109349 -0.0010116 0)
(-0.0987723 -0.00108966 0)
(-0.0872778 -0.00118264 0)
(-0.0751112 -0.00126063 0)
(-0.0619185 -0.00135615 0)
(-0.0479152 -0.00142826 0)
(-0.0332173 -0.00150805 0)
(-0.0176748 -0.0015823 0)
(-0.00130402 -0.00164294 0)
(0.015595 -0.00169759 0)
(0.0328893 -0.00174238 0)
(0.0505441 -0.00176409 0)
(0.0683763 -0.0017806 0)
(0.086215 -0.00177194 0)
(0.103872 -0.00173214 0)
(0.121098 -0.00168118 0)
(0.137676 -0.00160683 0)
(0.153382 -0.00150266 0)
(0.167927 -0.00138161 0)
(0.181123 -0.00122767 0)
(0.192699 -0.00106341 0)
(0.202481 -0.000870597 0)
(0.210258 -0.000669989 0)
(0.215896 -0.000449704 0)
(0.219291 -0.000222473 0)
(0.220325 1.36849e-05 0)
(0.219025 0.000250002 0)
(0.215192 0.000495558 0)
(0.209043 0.000723552 0)
(0.200613 0.000947171 0)
(0.190024 0.00114942 0)
(0.177485 0.00133661 0)
(0.163157 0.00150249 0)
(0.147306 0.00163739 0)
(0.130203 0.00175399 0)
(0.112089 0.00184001 0)
(0.0932483 0.00189478 0)
(0.0739965 0.00192456 0)
(0.0545447 0.00193291 0)
(0.0351606 0.00190924 0)
(0.0160892 0.00187248 0)
(-0.00251137 0.0018192 0)
(-0.0204653 0.00174915 0)
(-0.0376662 0.00166553 0)
(-0.0539865 0.00157175 0)
(-0.0693604 0.0014787 0)
(-0.0837325 0.00137387 0)
(-0.0970714 0.0012729 0)
(-0.109372 0.0011723 0)
(-0.120624 0.00106097 0)
(-0.130851 0.000962122 0)
(-0.140029 0.000867297 0)
(-0.148223 0.000759701 0)
(-0.155459 0.000668391 0)
(-0.1617 0.000579584 0)
(-0.167066 0.000488158 0)
(-0.171572 0.000402005 0)
(-0.175208 0.000319824 0)
(-0.178052 0.000243075 0)
(-0.180135 0.000172646 0)
(-0.181502 0.000102068 0)
(-0.182208 4.30021e-05 0)
(-0.182298 -2.30297e-05 0)
(-0.181786 -8.39288e-05 0)
(-0.180628 -0.000143507 0)
(-0.178844 -0.000206902 0)
(-0.17643 -0.000270937 0)
(-0.173346 -0.000332294 0)
(-0.169648 -0.000402456 0)
(-0.165258 -0.000464344 0)
(-0.160215 -0.000534839 0)
(-0.154511 -0.000596544 0)
(-0.148099 -0.000676558 0)
(-0.140912 -0.000747423 0)
(-0.132932 -0.0008343 0)
(-0.124098 -0.000915697 0)
(-0.1144 -0.00101383 0)
(-0.103777 -0.00108968 0)
(-0.0922322 -0.00119272 0)
(-0.0797991 -0.00127175 0)
(-0.0664669 -0.0013665 0)
(-0.0523068 -0.00144155 0)
(-0.0373278 -0.00152629 0)
(-0.0216548 -0.00159497 0)
(-0.00530577 -0.00164434 0)
(0.0115879 -0.00168555 0)
(0.0287759 -0.00171976 0)
(0.0461786 -0.00172924 0)
(0.063585 -0.00172338 0)
(0.0808303 -0.00169114 0)
(0.0976491 -0.00163637 0)
(0.113767 -0.00156316 0)
(0.129004 -0.00145603 0)
(0.143078 -0.00133353 0)
(0.155783 -0.00118207 0)
(0.166872 -0.00101192 0)
(0.176129 -0.000823142 0)
(0.183364 -0.000605265 0)
(0.188379 -0.000384184 0)
(0.191076 -0.000148893 0)
(0.191384 8.48344e-05 0)
(0.189284 0.000326593 0)
(0.184731 0.00056572 0)
(0.177903 0.000786931 0)
(0.168915 0.000995401 0)
(0.157948 0.00118136 0)
(0.145209 0.00134177 0)
(0.130962 0.00148078 0)
(0.115466 0.00159062 0)
(0.0990064 0.00167205 0)
(0.0818715 0.00172516 0)
(0.0643143 0.00175786 0)
(0.0465516 0.00176529 0)
(0.028839 0.00174847 0)
(0.0113639 0.00171832 0)
(-0.00571467 0.00166985 0)
(-0.0222283 0.00161038 0)
(-0.0381024 0.00153901 0)
(-0.0532203 0.00145619 0)
(-0.0674866 0.00137876 0)
(-0.0808946 0.00128673 0)
(-0.0934157 0.00119804 0)
(-0.105052 0.00111018 0)
(-0.115796 0.00102253 0)
(-0.125675 0.000937445 0)
(-0.134681 0.000852131 0)
(-0.142849 0.000765181 0)
(-0.150206 0.000692082 0)
(-0.156772 0.000614406 0)
(-0.162593 0.000540623 0)
(-0.167675 0.00046935 0)
(-0.172054 0.000401134 0)
(-0.175754 0.000332133 0)
(-0.178794 0.000262721 0)
(-0.181145 0.000205038 0)
(-0.182844 0.000129321 0)
(-0.183879 8.42535e-05 0)
(-0.184323 9.21906e-06 0)
(-0.184123 -4.48254e-05 0)
(-0.183299 -0.000113809 0)
(-0.18185 -0.000171902 0)
(-0.179765 -0.000242312 0)
(-0.176984 -0.000312738 0)
(-0.173477 -0.000383128 0)
(-0.169245 -0.000462868 0)
(-0.164207 -0.000528091 0)
(-0.158421 -0.000615434 0)
(-0.151827 -0.000688967 0)
(-0.144432 -0.000772288 0)
(-0.136211 -0.000854161 0)
(-0.127167 -0.000940923 0)
(-0.117301 -0.00102138 0)
(-0.106568 -0.0011048 0)
(-0.094982 -0.00119321 0)
(-0.0825495 -0.00127498 0)
(-0.0693256 -0.00135112 0)
(-0.0553451 -0.00142185 0)
(-0.0405813 -0.00149186 0)
(-0.0252318 -0.00155621 0)
(-0.00925454 -0.00160612 0)
(0.00718822 -0.00164698 0)
(0.0239119 -0.00166935 0)
(0.0407814 -0.00167402 0)
(0.0576387 -0.00166878 0)
(0.074311 -0.00163676 0)
(0.0905742 -0.00158431 0)
(0.106225 -0.00151336 0)
(0.121022 -0.00142079 0)
(0.134776 -0.00129791 0)
(0.147202 -0.00116302 0)
(0.158107 -0.000996546 0)
(0.167229 -0.000816542 0)
(0.174479 -0.000617385 0)
(0.179672 -0.000404335 0)
(0.182656 -0.000188489 0)
(0.183415 3.67424e-05 0)
(0.181907 0.000265698 0)
(0.178007 0.000493988 0)
(0.171947 0.000706405 0)
(0.163795 0.000910373 0)
(0.153675 0.00109234 0)
(0.141806 0.00126198 0)
(0.128358 0.00140143 0)
(0.113607 0.00152496 0)
(0.0977647 0.00161666 0)
(0.0811059 0.00169241 0)
(0.0638793 0.00173553 0)
(0.0462246 0.00175529 0)
(0.0285087 0.00176498 0)
(0.0109862 0.0017341 0)
(-0.00621405 0.00169529 0)
(-0.0229098 0.00163407 0)
(-0.038949 0.00156244 0)
(-0.0542064 0.0014785 0)
(-0.0685601 0.00138576 0)
(-0.0819838 0.00128763 0)
(-0.0943323 0.00117919 0)
(-0.105588 0.00107652 0)
(-0.115805 0.000964437 0)
(-0.124868 0.000854917 0)
(-0.132899 0.000749637 0)
(-0.13992 0.000654489 0)
(-0.145946 0.000556337 0)
(-0.151174 0.000478041 0)
(-0.155592 0.000396232 0)
(-0.159282 0.000321855 0)
(-0.162399 0.000258676 0)
(-0.164817 0.000192927 0)
(-0.166548 0.00013049 0)
(-0.167676 7.62173e-05 0)
(-0.168267 1.67744e-05 0)
(-0.168292 -2.95882e-05 0)
(-0.167714 -8.01547e-05 0)
(-0.166607 -0.000134293 0)
(-0.165032 -0.00018051 0)
(-0.162943 -0.000229972 0)
(-0.16027 -0.000288323 0)
(-0.157099 -0.000340508 0)
(-0.153346 -0.000396414 0)
(-0.148956 -0.000463698 0)
(-0.143914 -0.000527186 0)
(-0.138163 -0.000603676 0)
(-0.131715 -0.000676686 0)
(-0.12449 -0.000749959 0)
(-0.116392 -0.000841052 0)
(-0.107472 -0.000923414 0)
(-0.0976831 -0.00100661 0)
(-0.0869198 -0.00110604 0)
(-0.0752654 -0.0011952 0)
(-0.0626426 -0.0012932 0)
(-0.0491174 -0.00137598 0)
(-0.0348331 -0.0014483 0)
(-0.0196923 -0.00153746 0)
(-0.0039999 -0.00158755 0)
(0.0121205 -0.0016277 0)
(0.0287988 -0.00168179 0)
(0.0457997 -0.00168991 0)
(0.0628984 -0.00170669 0)
(0.079913 -0.00167736 0)
(0.0965992 -0.00162368 0)
(0.112721 -0.00157179 0)
(0.128076 -0.00147673 0)
(0.142424 -0.00135924 0)
(0.155533 -0.00123515 0)
(0.167208 -0.00107894 0)
(0.177255 -0.00091271 0)
(0.185511 -0.000724902 0)
(0.191841 -0.000525687 0)
(0.196145 -0.000317315 0)
(0.198343 -0.000110267 0)
(0.19842 9.93487e-05 0)
(0.196329 0.000310135 0)
(0.192078 0.00051921 0)
(0.185853 0.000718049 0)
(0.177736 0.000891468 0)
(0.167881 0.0010613 0)
(0.156466 0.00119504 0)
(0.143687 0.00132693 0)
(0.129745 0.00144099 0)
(0.114855 0.00150888 0)
(0.0992307 0.00158072 0)
(0.0830729 0.00163369 0)
(0.0665751 0.00164121 0)
(0.0499159 0.00165738 0)
(0.0332527 0.0016325 0)
(0.0165503 0.00161669 0)
(0.000401467 0.00159007 0)
(-0.0151041 0.00152842 0)
(-0.0302788 0.00147881 0)
(-0.0448487 0.00141958 0)
(-0.0587297 0.00133778 0)
(-0.0718578 0.00126537 0)
(-0.0841811 0.00117596 0)
(-0.0956605 0.00109507 0)
(-0.106266 0.00101017 0)
(-0.115974 0.000916152 0)
(-0.124778 0.000828228 0)
(-0.133654 0.000738408 0)
(-0.113965 -0.0015885 0)
(-0.109026 -0.00183155 0)
(-0.10246 -0.00207682 0)
(-0.0950421 -0.00233172 0)
(-0.0867321 -0.00261276 0)
(-0.0774965 -0.00288507 0)
(-0.0673065 -0.00318897 0)
(-0.0561398 -0.00347102 0)
(-0.0439898 -0.0037493 0)
(-0.0308571 -0.00406752 0)
(-0.0166784 -0.00433117 0)
(-0.00164375 -0.00458353 0)
(0.0141814 -0.00487398 0)
(0.030885 -0.0050638 0)
(0.0482698 -0.00530361 0)
(0.0662075 -0.00541272 0)
(0.0845281 -0.00546098 0)
(0.103044 -0.00555497 0)
(0.121548 -0.00547897 0)
(0.139794 -0.00532457 0)
(0.157525 -0.00519629 0)
(0.174486 -0.00489415 0)
(0.190399 -0.00451458 0)
(0.204993 -0.00412632 0)
(0.218012 -0.00360445 0)
(0.229224 -0.00305266 0)
(0.23841 -0.00241048 0)
(0.245397 -0.00172785 0)
(0.250063 -0.00101556 0)
(0.252262 -0.000279734 0)
(0.252046 0.000452559 0)
(0.24929 0.00118871 0)
(0.244053 0.00192058 0)
(0.236505 0.00256585 0)
(0.226764 0.00320378 0)
(0.214996 0.00380862 0)
(0.201405 0.00425819 0)
(0.186254 0.00471131 0)
(0.169774 0.00510548 0)
(0.152225 0.00531577 0)
(0.133868 0.00554274 0)
(0.114982 0.00560332 0)
(0.0957822 0.00567622 0)
(0.0765117 0.00569543 0)
(0.0573949 0.00555924 0)
(0.038455 0.00546928 0)
(0.020088 0.00533436 0)
(0.00290989 0.00505856 0)
(-0.0134065 0.00486279 0)
(-0.0292128 0.00462491 0)
(-0.0442035 0.00434384 0)
(-0.0583164 0.00407573 0)
(-0.0715167 0.00378555 0)
(-0.08379 0.00351238 0)
(-0.0951377 0.00323752 0)
(-0.105572 0.00295933 0)
(-0.115123 0.00269882 0)
(-0.123795 0.00243858 0)
(-0.131619 0.00218103 0)
(-0.138616 0.00194368 0)
(-0.144803 0.00169722 0)
(-0.150236 0.00147259 0)
(-0.154874 0.00124057 0)
(-0.158712 0.00100951 0)
(-0.16184 0.000789574 0)
(-0.164187 0.000566703 0)
(-0.165686 0.000312635 0)
(-0.166432 0.000109231 0)
(-0.166375 -0.000172771 0)
(-0.165445 -0.000391665 0)
(-0.163831 -0.00064355 0)
(-0.161243 -0.00090268 0)
(-0.157849 -0.00116286 0)
(-0.153602 -0.00138776 0)
(-0.14848 -0.00170226 0)
(-0.142472 -0.00191505 0)
(-0.135562 -0.00222867 0)
(-0.127732 -0.00248825 0)
(-0.118909 -0.00274141 0)
(-0.109418 -0.00304541 0)
(-0.0988224 -0.00325915 0)
(-0.08735 -0.00356198 0)
(-0.0751562 -0.00377401 0)
(-0.0619754 -0.0040724 0)
(-0.0479577 -0.00428429 0)
(-0.0332639 -0.00452536 0)
(-0.017716 -0.00474328 0)
(-0.00133573 -0.0049201 0)
(0.015545 -0.00510026 0)
(0.0328604 -0.00523152 0)
(0.0505122 -0.00530045 0)
(0.0683625 -0.00534213 0)
(0.086216 -0.00530544 0)
(0.103861 -0.00521055 0)
(0.121106 -0.00504191 0)
(0.137698 -0.00481837 0)
(0.153403 -0.00452116 0)
(0.167977 -0.00414622 0)
(0.181165 -0.00369515 0)
(0.192764 -0.00319097 0)
(0.202548 -0.00261985 0)
(0.210347 -0.0020088 0)
(0.215998 -0.0013429 0)
(0.219394 -0.000669552 0)
(0.220437 3.53516e-05 0)
(0.219126 0.000745429 0)
(0.2153 0.00148298 0)
(0.20915 0.0021738 0)
(0.200712 0.00283127 0)
(0.190122 0.00345869 0)
(0.177564 0.00400719 0)
(0.163224 0.00449777 0)
(0.147368 0.00491333 0)
(0.130254 0.00526888 0)
(0.112119 0.00551425 0)
(0.0932731 0.00569153 0)
(0.0739971 0.0057789 0)
(0.0545404 0.00578772 0)
(0.0351523 0.00574329 0)
(0.0160563 0.00561986 0)
(-0.00256005 0.00544994 0)
(-0.0205308 0.00524585 0)
(-0.0377306 0.00499159 0)
(-0.0540525 0.00472284 0)
(-0.0694349 0.00443808 0)
(-0.0838075 0.00412741 0)
(-0.0971576 0.0038176 0)
(-0.109462 0.00351262 0)
(-0.120713 0.00318855 0)
(-0.130939 0.00288277 0)
(-0.140123 0.00260195 0)
(-0.148323 0.00227893 0)
(-0.155557 0.00199839 0)
(-0.161803 0.00173778 0)
(-0.167166 0.00146552 0)
(-0.17167 0.00121295 0)
(-0.175312 0.000958899 0)
(-0.178155 0.000732602 0)
(-0.180244 0.000513451 0)
(-0.181609 0.000303148 0)
(-0.182307 0.000126586 0)
(-0.1824 -6.6211e-05 0)
(-0.181877 -0.000244636 0)
(-0.180738 -0.000431442 0)
(-0.17896 -0.000623841 0)
(-0.176552 -0.000820153 0)
(-0.173466 -0.00100613 0)
(-0.169753 -0.00119766 0)
(-0.165381 -0.0014063 0)
(-0.160319 -0.00159416 0)
(-0.154637 -0.00180417 0)
(-0.148205 -0.00201204 0)
(-0.141027 -0.00224916 0)
(-0.13305 -0.00250299 0)
(-0.124214 -0.00275066 0)
(-0.114524 -0.00304576 0)
(-0.103885 -0.00326734 0)
(-0.0923458 -0.00357643 0)
(-0.0799115 -0.00382205 0)
(-0.0665861 -0.00409943 0)
(-0.0524083 -0.00433396 0)
(-0.0374138 -0.00456717 0)
(-0.0217346 -0.00478284 0)
(-0.00537502 -0.00493715 0)
(0.0115091 -0.00507494 0)
(0.0287244 -0.00515942 0)
(0.0461355 -0.00518693 0)
(0.0635527 -0.00517421 0)
(0.080806 -0.00508417 0)
(0.0976333 -0.00491688 0)
(0.113778 -0.0046891 0)
(0.129032 -0.00436728 0)
(0.143114 -0.00400063 0)
(0.155833 -0.00355246 0)
(0.166931 -0.00304146 0)
(0.176204 -0.00246601 0)
(0.183441 -0.00182571 0)
(0.188478 -0.00115526 0)
(0.191177 -0.000449677 0)
(0.191492 0.000253315 0)
(0.189385 0.000978281 0)
(0.184832 0.00170102 0)
(0.177996 0.00235072 0)
(0.169003 0.00298765 0)
(0.158031 0.0035371 0)
(0.145282 0.00403474 0)
(0.131014 0.00443728 0)
(0.115508 0.00477885 0)
(0.0990342 0.00501452 0)
(0.0818911 0.00518555 0)
(0.0643137 0.00527137 0)
(0.0465453 0.00529179 0)
(0.0288233 0.00525426 0)
(0.0113348 0.00514985 0)
(-0.00575144 0.00501446 0)
(-0.0222844 0.00482616 0)
(-0.0381668 0.00461052 0)
(-0.0532821 0.00437274 0)
(-0.0675594 0.00413424 0)
(-0.0809706 0.00385939 0)
(-0.0934904 0.00359679 0)
(-0.10513 0.00333659 0)
(-0.115882 0.00306216 0)
(-0.125757 0.00281156 0)
(-0.134767 0.00255457 0)
(-0.142931 0.0023053 0)
(-0.150295 0.00208026 0)
(-0.156866 0.00183796 0)
(-0.162687 0.00162118 0)
(-0.167772 0.00140362 0)
(-0.172154 0.00120345 0)
(-0.175851 0.000996936 0)
(-0.178886 0.000795048 0)
(-0.181244 0.00061316 0)
(-0.182943 0.000394254 0)
(-0.183988 0.000243593 0)
(-0.184425 3.31733e-05 0)
(-0.184238 -0.000146744 0)
(-0.1834 -0.000337558 0)
(-0.181963 -0.000522126 0)
(-0.179863 -0.000714266 0)
(-0.177095 -0.000936958 0)
(-0.173588 -0.00114616 0)
(-0.169356 -0.00139417 0)
(-0.164322 -0.00158765 0)
(-0.15853 -0.00184258 0)
(-0.151956 -0.00208369 0)
(-0.144546 -0.00231154 0)
(-0.13634 -0.00257266 0)
(-0.127273 -0.00280902 0)
(-0.11743 -0.00307713 0)
(-0.106678 -0.0033096 0)
(-0.0950866 -0.00357292 0)
(-0.082646 -0.00381928 0)
(-0.0694281 -0.00406597 0)
(-0.0554306 -0.00426188 0)
(-0.0406767 -0.00448162 0)
(-0.0253189 -0.00467552 0)
(-0.00932883 -0.00481954 0)
(0.0071297 -0.00493945 0)
(0.0238603 -0.00500536 0)
(0.0407336 -0.00503587 0)
(0.0576115 -0.00499932 0)
(0.0742804 -0.0049199 0)
(0.0905743 -0.00475783 0)
(0.106236 -0.00454415 0)
(0.121048 -0.0042623 0)
(0.134801 -0.00390959 0)
(0.147261 -0.00348416 0)
(0.158158 -0.00299738 0)
(0.167304 -0.00244403 0)
(0.17455 -0.00185682 0)
(0.179754 -0.00122791 0)
(0.182762 -0.000559317 0)
(0.183508 0.000102329 0)
(0.181996 0.000796254 0)
(0.178101 0.00148159 0)
(0.17204 0.00212541 0)
(0.163881 0.00272557 0)
(0.153753 0.00328506 0)
(0.141865 0.00377663 0)
(0.128413 0.00421007 0)
(0.113649 0.00457157 0)
(0.0977961 0.00485463 0)
(0.0811202 0.00507502 0)
(0.0638786 0.00521197 0)
(0.0462151 0.00526777 0)
(0.028485 0.00529777 0)
(0.0109496 0.0052005 0)
(-0.00625669 0.00508438 0)
(-0.022956 0.00490293 0)
(-0.039 0.00468971 0)
(-0.0542642 0.00443259 0)
(-0.0686197 0.00415959 0)
(-0.0820451 0.00386395 0)
(-0.0943939 0.00353856 0)
(-0.105652 0.00322706 0)
(-0.115868 0.00289701 0)
(-0.12493 0.00256692 0)
(-0.132959 0.00225352 0)
(-0.139981 0.0019601 0)
(-0.146002 0.00166824 0)
(-0.151226 0.00143406 0)
(-0.155641 0.00119071 0)
(-0.159331 0.00096487 0)
(-0.162444 0.000774279 0)
(-0.164858 0.000581514 0)
(-0.16659 0.000391036 0)
(-0.167719 0.000230224 0)
(-0.168307 4.79337e-05 0)
(-0.168328 -8.84515e-05 0)
(-0.167749 -0.000238417 0)
(-0.166643 -0.000402472 0)
(-0.165068 -0.000542042 0)
(-0.162978 -0.000689458 0)
(-0.160306 -0.000864703 0)
(-0.157136 -0.00102016 0)
(-0.153383 -0.0011871 0)
(-0.148995 -0.00139153 0)
(-0.143955 -0.00158164 0)
(-0.138204 -0.00181065 0)
(-0.131759 -0.00203017 0)
(-0.124534 -0.00224939 0)
(-0.116437 -0.00252291 0)
(-0.107519 -0.00277023 0)
(-0.0977292 -0.00301957 0)
(-0.0869674 -0.00331841 0)
(-0.0753119 -0.00358503 0)
(-0.0626875 -0.00387963 0)
(-0.0491613 -0.00412846 0)
(-0.0348734 -0.00434487 0)
(-0.0197274 -0.00461274 0)
(-0.0040302 -0.00476296 0)
(0.0120947 -0.00488369 0)
(0.0287803 -0.00504598 0)
(0.0457887 -0.00507056 0)
(0.0628964 -0.00512105 0)
(0.07992 -0.00503299 0)
(0.0966151 -0.00487202 0)
(0.112747 -0.00471642 0)
(0.128111 -0.00443115 0)
(0.142468 -0.00407868 0)
(0.155587 -0.00370634 0)
(0.16727 -0.00323766 0)
(0.177325 -0.00273889 0)
(0.185586 -0.00217489 0)
(0.191921 -0.00157723 0)
(0.196224 -0.000957404 0)
(0.198433 -0.000326227 0)
(0.198508 0.000297936 0)
(0.196408 0.000930881 0)
(0.192159 0.00155787 0)
(0.18593 0.0021546 0)
(0.177806 0.00267493 0)
(0.167944 0.0031846 0)
(0.15652 0.00358583 0)
(0.143734 0.00398155 0)
(0.129785 0.0043238 0)
(0.114885 0.00452743 0)
(0.0992533 0.00474294 0)
(0.0830878 0.00490183 0)
(0.0665826 0.00492433 0)
(0.0499167 0.00497276 0)
(0.0332473 0.0048981 0)
(0.0165396 0.00485067 0)
(0.000385789 0.00477057 0)
(-0.0151239 0.00458561 0)
(-0.0303022 0.00443676 0)
(-0.0448753 0.00425901 0)
(-0.0587585 0.00401357 0)
(-0.0718889 0.00379631 0)
(-0.0842135 0.00352804 0)
(-0.0956943 0.0032853 0)
(-0.106301 0.00303058 0)
(-0.116009 0.0027485 0)
(-0.124814 0.0024847 0)
(-0.133689 0.00221522 0)
(-0.114026 -0.00264696 0)
(-0.10909 -0.00305206 0)
(-0.102527 -0.00346088 0)
(-0.0951121 -0.0038857 0)
(-0.0868052 -0.00435418 0)
(-0.0775714 -0.00480813 0)
(-0.0673838 -0.00531474 0)
(-0.0562175 -0.00578498 0)
(-0.0440666 -0.00624897 0)
(-0.0309336 -0.00677951 0)
(-0.0167526 -0.00721811 0)
(-0.00171276 -0.00764121 0)
(0.014119 -0.00812458 0)
(0.0308313 -0.00844123 0)
(0.0482258 -0.00884131 0)
(0.0661767 -0.00902348 0)
(0.0845122 -0.00910423 0)
(0.103045 -0.00926131 0)
(0.121568 -0.00913484 0)
(0.139833 -0.00887763 0)
(0.157587 -0.00866408 0)
(0.174568 -0.00816043 0)
(0.1905 -0.00752768 0)
(0.205117 -0.00688052 0)
(0.218154 -0.00601033 0)
(0.229385 -0.00509048 0)
(0.238583 -0.00401997 0)
(0.245581 -0.00288026 0)
(0.250255 -0.0016943 0)
(0.252471 -0.000462185 0)
(0.252244 0.000751418 0)
(0.249468 0.00198237 0)
(0.244236 0.00320165 0)
(0.236676 0.00427844 0)
(0.226922 0.00534216 0)
(0.215138 0.00635079 0)
(0.201526 0.00710021 0)
(0.186356 0.00785563 0)
(0.169856 0.0085129 0)
(0.152286 0.00886314 0)
(0.133909 0.00924128 0)
(0.115003 0.00934194 0)
(0.0957854 0.00946307 0)
(0.0764974 0.00949497 0)
(0.0573673 0.00926803 0)
(0.0384189 0.00911577 0)
(0.0200343 0.00889223 0)
(0.00284915 0.00843156 0)
(-0.013468 0.00810627 0)
(-0.0292813 0.00770918 0)
(-0.0442751 0.00724013 0)
(-0.0583905 0.00679309 0)
(-0.071591 0.00630928 0)
(-0.0838638 0.00585428 0)
(-0.0952107 0.0053961 0)
(-0.105643 0.00493185 0)
(-0.115192 0.00449876 0)
(-0.123863 0.00406456 0)
(-0.131684 0.00363461 0)
(-0.138679 0.00324012 0)
(-0.144866 0.00282855 0)
(-0.150296 0.00245495 0)
(-0.154932 0.00207013 0)
(-0.158772 0.00168207 0)
(-0.161898 0.00131796 0)
(-0.164249 0.000944598 0)
(-0.165753 0.000522868 0)
(-0.166497 0.00018164 0)
(-0.166442 -0.000288605 0)
(-0.165509 -0.000652718 0)
(-0.163899 -0.00107332 0)
(-0.161312 -0.0015048 0)
(-0.157915 -0.00193481 0)
(-0.153678 -0.00231595 0)
(-0.148549 -0.00283291 0)
(-0.14255 -0.00319775 0)
(-0.13564 -0.00372143 0)
(-0.127806 -0.00414166 0)
(-0.118986 -0.00456922 0)
(-0.109489 -0.00507262 0)
(-0.0989051 -0.00543658 0)
(-0.0874219 -0.00592983 0)
(-0.0752366 -0.00630358 0)
(-0.0620553 -0.00678022 0)
(-0.0480345 -0.00714221 0)
(-0.0333454 -0.0075517 0)
(-0.0177868 -0.00790225 0)
(-0.00141624 -0.00821155 0)
(0.0154713 -0.00849828 0)
(0.0328039 -0.00871992 0)
(0.0504687 -0.0088331 0)
(0.0683274 -0.00890204 0)
(0.086191 -0.00885827 0)
(0.103854 -0.00868239 0)
(0.121106 -0.00840831 0)
(0.137708 -0.00803968 0)
(0.153438 -0.0075296 0)
(0.168032 -0.00691584 0)
(0.181244 -0.00615167 0)
(0.192848 -0.00532215 0)
(0.202643 -0.00436656 0)
(0.210449 -0.00334785 0)
(0.216104 -0.0022527 0)
(0.219513 -0.00111611 0)
(0.220569 5.99276e-05 0)
(0.21924 0.00125033 0)
(0.215423 0.00247024 0)
(0.209278 0.00362454 0)
(0.200825 0.00472762 0)
(0.190215 0.00575994 0)
(0.177638 0.0066852 0)
(0.163284 0.00750431 0)
(0.147407 0.00819697 0)
(0.130264 0.0087786 0)
(0.11211 0.00919818 0)
(0.0932409 0.00949027 0)
(0.0739474 0.00962923 0)
(0.0544717 0.00965983 0)
(0.03506 0.00956691 0)
(0.01595 0.00937136 0)
(-0.00267871 0.00909142 0)
(-0.0206631 0.0087412 0)
(-0.0378678 0.00832461 0)
(-0.0541946 0.00786849 0)
(-0.0695842 0.00739742 0)
(-0.0839593 0.00687742 0)
(-0.097309 0.00636677 0)
(-0.109618 0.00585401 0)
(-0.120869 0.00531031 0)
(-0.131088 0.00481094 0)
(-0.14028 0.00433371 0)
(-0.148476 0.00379627 0)
(-0.155698 0.00333718 0)
(-0.161948 0.00290142 0)
(-0.167317 0.0024415 0)
(-0.171818 0.00201459 0)
(-0.175451 0.00160053 0)
(-0.178297 0.0012248 0)
(-0.180381 0.000850051 0)
(-0.181739 0.000509201 0)
(-0.18244 0.000208586 0)
(-0.182527 -0.000114671 0)
(-0.182011 -0.00041071 0)
(-0.180866 -0.000710719 0)
(-0.179098 -0.00104764 0)
(-0.176675 -0.00136052 0)
(-0.173597 -0.00167095 0)
(-0.169895 -0.00200037 0)
(-0.165512 -0.0023372 0)
(-0.160454 -0.00266421 0)
(-0.154774 -0.00300074 0)
(-0.148356 -0.00336603 0)
(-0.141168 -0.00373505 0)
(-0.133198 -0.00417586 0)
(-0.124368 -0.00458406 0)
(-0.114667 -0.00506971 0)
(-0.104037 -0.00545293 0)
(-0.0924948 -0.00595409 0)
(-0.0800644 -0.00637155 0)
(-0.0667348 -0.00683516 0)
(-0.052546 -0.00721977 0)
(-0.0375497 -0.00763216 0)
(-0.0218429 -0.00796649 0)
(-0.00547184 -0.00823152 0)
(0.0114176 -0.00845369 0)
(0.0286431 -0.00860766 0)
(0.0460686 -0.00865516 0)
(0.0635054 -0.00861559 0)
(0.0807762 -0.00847195 0)
(0.0976134 -0.00820161 0)
(0.113787 -0.0078175 0)
(0.129054 -0.00728948 0)
(0.143162 -0.00667131 0)
(0.155891 -0.00592409 0)
(0.167006 -0.00506962 0)
(0.176292 -0.00412057 0)
(0.183549 -0.00303862 0)
(0.188597 -0.00192273 0)
(0.191303 -0.000753505 0)
(0.191617 0.000424406 0)
(0.189492 0.00163647 0)
(0.184944 0.00283049 0)
(0.178099 0.0039286 0)
(0.169093 0.00497757 0)
(0.158106 0.00590313 0)
(0.145339 0.00672424 0)
(0.131051 0.00740493 0)
(0.115516 0.00796104 0)
(0.0990214 0.00836598 0)
(0.0818521 0.00864406 0)
(0.0642636 0.0087859 0)
(0.0464762 0.00883009 0)
(0.0287316 0.00875065 0)
(0.0112366 0.00859009 0)
(-0.00586114 0.00836342 0)
(-0.0224012 0.00804783 0)
(-0.0382922 0.00768979 0)
(-0.0534117 0.00728895 0)
(-0.0676918 0.00689294 0)
(-0.0811105 0.0064356 0)
(-0.0936329 0.00598835 0)
(-0.105273 0.00556157 0)
(-0.116023 0.00510814 0)
(-0.125897 0.0046822 0)
(-0.134908 0.00426264 0)
(-0.143071 0.00383964 0)
(-0.150431 0.00346509 0)
(-0.156996 0.00306746 0)
(-0.16281 0.00270459 0)
(-0.167896 0.00234247 0)
(-0.172278 0.00200084 0)
(-0.175982 0.00166129 0)
(-0.179014 0.00132083 0)
(-0.181377 0.00102629 0)
(-0.183072 0.000662441 0)
(-0.184124 0.000401263 0)
(-0.184561 5.58603e-05 0)
(-0.184362 -0.000237884 0)
(-0.183527 -0.000568622 0)
(-0.182079 -0.000862391 0)
(-0.18 -0.00120395 0)
(-0.177229 -0.00155434 0)
(-0.17373 -0.00191922 0)
(-0.169483 -0.00231778 0)
(-0.164454 -0.00264666 0)
(-0.158668 -0.0030688 0)
(-0.152089 -0.00346252 0)
(-0.144692 -0.00385782 0)
(-0.13648 -0.00428103 0)
(-0.127425 -0.00469464 0)
(-0.117567 -0.00512265 0)
(-0.106833 -0.00552056 0)
(-0.0952366 -0.00595924 0)
(-0.0827868 -0.00636907 0)
(-0.0695487 -0.00677076 0)
(-0.055548 -0.00710479 0)
(-0.0407958 -0.00747071 0)
(-0.0254247 -0.0077935 0)
(-0.00942684 -0.00803673 0)
(0.00704702 -0.00822866 0)
(0.0237824 -0.00835744 0)
(0.0406774 -0.00838127 0)
(0.0575556 -0.00834372 0)
(0.0742495 -0.00820316 0)
(0.0905633 -0.00792986 0)
(0.106237 -0.00757977 0)
(0.121067 -0.00710234 0)
(0.134837 -0.00651539 0)
(0.147311 -0.00581376 0)
(0.158227 -0.00499449 0)
(0.167382 -0.00408366 0)
(0.174647 -0.00309612 0)
(0.179869 -0.00204271 0)
(0.182883 -0.000933273 0)
(0.183631 0.000176039 0)
(0.182095 0.00132698 0)
(0.178205 0.00247038 0)
(0.172137 0.00353851 0)
(0.16397 0.0045499 0)
(0.153831 0.00547568 0)
(0.141923 0.00630623 0)
(0.128445 0.00701505 0)
(0.11367 0.00762566 0)
(0.0977993 0.00809246 0)
(0.0811087 0.00846742 0)
(0.0638431 0.00869049 0)
(0.0461734 0.0087789 0)
(0.0284248 0.0088341 0)
(0.0108754 0.00867292 0)
(-0.0063362 0.00847864 0)
(-0.0230394 0.00817373 0)
(-0.0390871 0.00781687 0)
(-0.0543562 0.00739471 0)
(-0.0687167 0.00693388 0)
(-0.0821476 0.00643862 0)
(-0.0944863 0.00590091 0)
(-0.105751 0.00538191 0)
(-0.115968 0.00482619 0)
(-0.125025 0.00428054 0)
(-0.133052 0.00375233 0)
(-0.140064 0.0032671 0)
(-0.146076 0.00278387 0)
(-0.151297 0.00238881 0)
(-0.155708 0.00198364 0)
(-0.15939 0.00160795 0)
(-0.162499 0.00129053 0)
(-0.164911 0.000966066 0)
(-0.166636 0.00065369 0)
(-0.167771 0.000383457 0)
(-0.168351 7.99567e-05 0)
(-0.168368 -0.000147355 0)
(-0.167788 -0.000397035 0)
(-0.166684 -0.000671705 0)
(-0.165108 -0.000903348 0)
(-0.163018 -0.00114837 0)
(-0.16035 -0.00143943 0)
(-0.157181 -0.00169794 0)
(-0.153429 -0.00197929 0)
(-0.149046 -0.00232122 0)
(-0.144008 -0.00263311 0)
(-0.138263 -0.00301763 0)
(-0.131821 -0.0033839 0)
(-0.124597 -0.00374826 0)
(-0.116506 -0.00420431 0)
(-0.10759 -0.00461721 0)
(-0.0977997 -0.00503217 0)
(-0.0870415 -0.00553151 0)
(-0.0753842 -0.00597413 0)
(-0.0627581 -0.00646608 0)
(-0.0492304 -0.00688239 0)
(-0.0349357 -0.00724165 0)
(-0.0197805 -0.007689 0)
(-0.00407481 -0.00793981 0)
(0.0120587 -0.0081414 0)
(0.0287578 -0.0084123 0)
(0.0457804 -0.00845339 0)
(0.0629049 -0.00853788 0)
(0.079945 -0.00839123 0)
(0.0966568 -0.00812295 0)
(0.112809 -0.00786375 0)
(0.12819 -0.00738824 0)
(0.142563 -0.00680067 0)
(0.155701 -0.00617984 0)
(0.167397 -0.00539853 0)
(0.177468 -0.00456685 0)
(0.185739 -0.00362689 0)
(0.192081 -0.00263192 0)
(0.196391 -0.00159475 0)
(0.198606 -0.000543948 0)
(0.198682 0.000497686 0)
(0.196564 0.00155384 0)
(0.192318 0.00259766 0)
(0.18608 0.00359281 0)
(0.177942 0.00446025 0)
(0.168068 0.00531015 0)
(0.156627 0.005979 0)
(0.143825 0.00663864 0)
(0.12986 0.00720916 0)
(0.114943 0.00754844 0)
(0.0992951 0.00790754 0)
(0.0831143 0.00817223 0)
(0.0665945 0.00820949 0)
(0.0499154 0.00829004 0)
(0.0332336 0.00816546 0)
(0.0165158 0.00808614 0)
(0.000352179 0.00795237 0)
(-0.0151655 0.00764381 0)
(-0.0303508 0.00739566 0)
(-0.0449303 0.00709927 0)
(-0.0588176 0.00669001 0)
(-0.0719526 0.00632778 0)
(-0.0842794 0.0058805 0)
(-0.095763 0.00547582 0)
(-0.106372 0.00505119 0)
(-0.11608 0.00458095 0)
(-0.124886 0.00414121 0)
(-0.133762 0.00369199 0)
(-0.114119 -0.00370467 0)
(-0.109187 -0.00427181 0)
(-0.102628 -0.00484424 0)
(-0.095217 -0.00543894 0)
(-0.0869149 -0.00609499 0)
(-0.0776838 -0.0067307 0)
(-0.0674998 -0.00744017 0)
(-0.0563341 -0.0080988 0)
(-0.044182 -0.00874886 0)
(-0.0310482 -0.00949191 0)
(-0.0168643 -0.0101032 0)
(-0.00181663 -0.0107031 0)
(0.0140255 -0.0113771 0)
(0.0307508 -0.011821 0)
(0.0481595 -0.012382 0)
(0.0661302 -0.0126376 0)
(0.0844882 -0.0127514 0)
(0.103047 -0.0129722 0)
(0.121597 -0.0127956 0)
(0.139891 -0.0124357 0)
(0.157679 -0.0121372 0)
(0.174691 -0.011432 0)
(0.190652 -0.0105459 0)
(0.205303 -0.00963967 0)
(0.218366 -0.00842079 0)
(0.229626 -0.00713222 0)
(0.238844 -0.00563283 0)
(0.245859 -0.00403761 0)
(0.250546 -0.0023755 0)
(0.252783 -0.00065864 0)
(0.252531 0.00107125 0)
(0.249741 0.00277892 0)
(0.244513 0.00448412 0)
(0.236932 0.00599408 0)
(0.227159 0.00748429 0)
(0.215352 0.00889749 0)
(0.201709 0.00994708 0)
(0.18651 0.0110051 0)
(0.16998 0.0119257 0)
(0.152376 0.0124157 0)
(0.133969 0.0129449 0)
(0.115034 0.0130852 0)
(0.09579 0.0132541 0)
(0.0764756 0.0132982 0)
(0.0573254 0.0129809 0)
(0.0383642 0.0127629 0)
(0.0199534 0.0124518 0)
(0.00275795 0.0118071 0)
(-0.0135602 0.0113516 0)
(-0.0293844 0.0107948 0)
(-0.0443828 0.0101371 0)
(-0.0585018 0.00951064 0)
(-0.0717021 0.00883343 0)
(-0.0839752 0.0081962 0)
(-0.0953206 0.00755429 0)
(-0.105749 0.00690488 0)
(-0.115296 0.00629806 0)
(-0.123965 0.00569027 0)
(-0.131781 0.00508891 0)
(-0.138775 0.00453621 0)
(-0.144958 0.0039586 0)
(-0.150386 0.00344123 0)
(-0.155024 0.00289765 0)
(-0.158861 0.00235583 0)
(-0.161987 0.0018461 0)
(-0.164344 0.00131896 0)
(-0.165848 0.000737718 0)
(-0.166603 0.000247792 0)
(-0.166541 -0.000402856 0)
(-0.165609 -0.000917833 0)
(-0.164 -0.00150236 0)
(-0.161419 -0.00210589 0)
(-0.15802 -0.00271326 0)
(-0.153789 -0.00323951 0)