/*--------------------------------*- C++ -*----------------------------------*\
| =========                 |                                                 |
| \\      /  F ield         | OpenFOAM: The Open Source CFD Toolbox           |
|  \\    /   O peration     | Version:  3.0.1                                 |
|   \\  /    A nd           | Web:      www.OpenFOAM.org                      |
|    \\/     M anipulation  |                                                 |
\*---------------------------------------------------------------------------*/
FoamFile
{
    version     2.0;
    format      ascii;
    class       volVectorField;
    location    "33";
    object      U;
}
// * * * * * * * * * * * * * * * * * * * * * * * * * * * * * * * * * * * * * //

dimensions      [0 1 -1 0 0 0 0];

internalField   nonuniform List<vector> 
21420
(
(0.101389 -0.00181074 0)
(0.117317 -0.00184471 0)
(0.13576 -0.00182443 0)
(0.154023 -0.00178004 0)
(0.171853 -0.00174627 0)
(0.189004 -0.00165315 0)
(0.205211 -0.00156445 0)
(0.220212 -0.00142115 0)
(0.233741 -0.00125514 0)
(0.245551 -0.00108313 0)
(0.25542 -0.000875392 0)
(0.263147 -0.000652585 0)
(0.268581 -0.000418334 0)
(0.271622 -0.000170081 0)
(0.272111 7.07355e-05 0)
(0.27018 0.000318736 0)
(0.265599 0.000573377 0)
(0.258652 0.000803813 0)
(0.24939 0.00102886 0)
(0.237974 0.00124187 0)
(0.22461 0.00140821 0)
(0.209544 0.00157429 0)
(0.193021 0.00171974 0)
(0.17531 0.00180079 0)
(0.156696 0.00188931 0)
(0.137457 0.00191399 0)
(0.117865 0.00194857 0)
(0.0981544 0.00195922 0)
(0.0785536 0.0019158 0)
(0.0592388 0.00188251 0)
(0.0403509 0.0018333 0)
(0.0220142 0.00173783 0)
(0.0048971 0.00166462 0)
(-0.01102 0.00156027 0)
(-0.0262306 0.00146877 0)
(-0.0404885 0.00137096 0)
(-0.0537247 0.00126093 0)
(-0.0659211 0.00116018 0)
(-0.0770792 0.00105879 0)
(-0.0872105 0.000954562 0)
(-0.0963417 0.000858003 0)
(-0.104505 0.000761756 0)
(-0.111739 0.000672132 0)
(-0.118083 0.00058573 0)
(-0.123578 0.000501808 0)
(-0.128265 0.000423348 0)
(-0.132173 0.00034773 0)
(-0.135356 0.000272521 0)
(-0.137838 0.000205593 0)
(-0.139628 0.000135611 0)
(-0.140763 7.08374e-05 0)
(-0.141288 9.8884e-06 0)
(-0.141139 -6.04776e-05 0)
(-0.140372 -0.000120388 0)
(-0.138934 -0.000184242 0)
(-0.136787 -0.000254488 0)
(-0.133933 -0.000316514 0)
(-0.130407 -0.000383631 0)
(-0.126102 -0.000465957 0)
(-0.120963 -0.000530853 0)
(-0.115094 -0.000621498 0)
(-0.108245 -0.000693875 0)
(-0.100604 -0.000769446 0)
(-0.0921329 -0.000867832 0)
(-0.082532 -0.000945495 0)
(-0.0721984 -0.00102745 0)
(-0.0608663 -0.0011179 0)
(-0.0485026 -0.00120442 0)
(-0.0354836 -0.00128813 0)
(-0.0212912 -0.00137475 0)
(-0.00705808 -0.0014395 0)
(0.00715014 -0.0014979 0)
(0.0224194 -0.00155168 0)
(0.0382986 -0.00158206 0)
(0.0545321 -0.00161202 0)
(0.0710728 -0.00161715 0)
(0.0875685 -0.00160592 0)
(0.10396 -0.00158791 0)
(0.120111 -0.00154187 0)
(0.135657 -0.00148052 0)
(0.150606 -0.0014041 0)
(0.164697 -0.00131208 0)
(0.177666 -0.00120262 0)
(0.189602 -0.00107515 0)
(0.20015 -0.000942538 0)
(0.209278 -0.000789574 0)
(0.216847 -0.000625832 0)
(0.222646 -0.000445859 0)
(0.226636 -0.000252515 0)
(0.228471 -5.2847e-05 0)
(0.228217 0.000182379 0)
(0.225462 0.000420051 0)
(0.220119 0.000675665 0)
(0.212455 0.000900926 0)
(0.20237 0.00113205 0)
(0.190018 0.00133651 0)
(0.175811 0.00150624 0)
(0.159923 0.00165757 0)
(0.142606 0.0017731 0)
(0.124248 0.00186065 0)
(0.105208 0.00191331 0)
(0.0858249 0.00193536 0)
(0.0663043 0.001932 0)
(0.0469567 0.00190486 0)
(0.0280262 0.00185234 0)
(0.0096775 0.0017892 0)
(-0.00788922 0.00170148 0)
(-0.0245692 0.00160833 0)
(-0.0402376 0.0015056 0)
(-0.0548459 0.00139457 0)
(-0.0683748 0.00128394 0)
(-0.0807354 0.00117904 0)
(-0.0919725 0.00106076 0)
(-0.102126 0.000950227 0)
(-0.111219 0.000849275 0)
(-0.119296 0.000755508 0)
(-0.12637 0.00065514 0)
(-0.132544 0.000570371 0)
(-0.137883 0.000484015 0)
(-0.142407 0.000404853 0)
(-0.146142 0.000345119 0)
(-0.149171 0.00026288 0)
(-0.151569 0.000198164 0)
(-0.153255 0.000141761 0)
(-0.154321 8.12384e-05 0)
(-0.154859 2.7268e-05 0)
(-0.154785 -3.31476e-05 0)
(-0.154184 -8.78149e-05 0)
(-0.153027 -0.000142609 0)
(-0.151348 -0.000195753 0)
(-0.149124 -0.000252032 0)
(-0.146313 -0.000299929 0)
(-0.142906 -0.00037009 0)
(-0.138919 -0.000424126 0)
(-0.134289 -0.000488122 0)
(-0.128999 -0.000551455 0)
(-0.123072 -0.000622438 0)
(-0.11646 -0.000693304 0)
(-0.1091 -0.000764471 0)
(-0.100991 -0.000844176 0)
(-0.09209 -0.000919739 0)
(-0.0823997 -0.00100194 0)
(-0.0718443 -0.00108917 0)
(-0.0604945 -0.00116547 0)
(-0.048246 -0.00125763 0)
(-0.0351266 -0.00134029 0)
(-0.0211973 -0.00143241 0)
(-0.00641211 -0.00150027 0)
(0.00920151 -0.00157248 0)
(0.0254175 -0.00163808 0)
(0.0421771 -0.00167949 0)
(0.0592955 -0.00171269 0)
(0.0765683 -0.00171367 0)
(0.0937879 -0.00170031 0)
(0.110781 -0.00166343 0)
(0.12722 -0.00159752 0)
(0.142875 -0.00150692 0)
(0.157506 -0.00138427 0)
(0.17077 -0.00124658 0)
(0.1825 -0.0010733 0)
(0.192358 -0.000880082 0)
(0.200162 -0.000672751 0)
(0.205796 -0.000438856 0)
(0.209035 -0.000201762 0)
(0.209823 3.72485e-05 0)
(0.208204 0.00028178 0)
(0.204051 0.000525901 0)
(0.197589 0.000758116 0)
(0.188872 0.000968029 0)
(0.178128 0.00116568 0)
(0.165525 0.00133724 0)
(0.15131 0.00147802 0)
(0.135758 0.00160684 0)
(0.119118 0.00169366 0)
(0.101685 0.00175361 0)
(0.0837913 0.00179115 0)
(0.0656911 0.00180577 0)
(0.0475941 0.00178909 0)
(0.0297138 0.00175544 0)
(0.0122581 0.00170141 0)
(-0.00454698 0.00163967 0)
(-0.0206299 0.00155684 0)
(-0.0358915 0.00146829 0)
(-0.0501551 0.00137353 0)
(-0.0634675 0.00126779 0)
(-0.0757939 0.00117546 0)
(-0.0871164 0.00107391 0)
(-0.0974937 0.000978477 0)
(-0.106871 0.000890013 0)
(-0.115306 0.000786239 0)
(-0.122822 0.000701599 0)
(-0.129399 0.000606709 0)
(-0.135123 0.000529872 0)
(-0.140048 0.000452611 0)
(-0.144215 0.000377095 0)
(-0.147694 0.000310765 0)
(-0.150529 0.000255122 0)
(-0.152806 0.000195926 0)
(-0.154593 0.000159561 0)
(-0.155983 0.000116728 0)
(-0.157003 8.21188e-05 0)
(-0.157618 4.05684e-05 0)
(-0.157844 4.35786e-06 0)
(-0.157651 -4.15485e-05 0)
(-0.156949 -9.34416e-05 0)
(-0.155717 -0.000156255 0)
(-0.153863 -0.000218933 0)
(-0.151352 -0.000286675 0)
(-0.148035 -0.000360266 0)
(-0.143893 -0.000443726 0)
(-0.138947 -0.000536727 0)
(-0.133107 -0.000623879 0)
(-0.126407 -0.000717252 0)
(-0.118768 -0.000786719 0)
(-0.110307 -0.000883662 0)
(-0.101 -0.000964383 0)
(-0.0907783 -0.00105513 0)
(-0.0797065 -0.00114091 0)
(-0.0677371 -0.00123072 0)
(-0.0549153 -0.00132292 0)
(-0.0412407 -0.00138779 0)
(-0.0267348 -0.00147332 0)
(-0.0115575 -0.00153528 0)
(0.00425187 -0.00159284 0)
(0.0205997 -0.00164281 0)
(0.0373244 -0.00167677 0)
(0.0542888 -0.00168902 0)
(0.0713005 -0.00168467 0)
(0.0881796 -0.00165879 0)
(0.10466 -0.00160737 0)
(0.120502 -0.00153061 0)
(0.135457 -0.00143129 0)
(0.149273 -0.00130449 0)
(0.161731 -0.00116697 0)
(0.172659 -0.00100524 0)
(0.181867 -0.000825133 0)
(0.189208 -0.000631175 0)
(0.194557 -0.000425161 0)
(0.197807 -0.000216496 0)
(0.198901 -5.79196e-07 0)
(0.19782 0.000219922 0)
(0.194398 0.000446122 0)
(0.188792 0.000663035 0)
(0.181051 0.000866424 0)
(0.171347 0.00105816 0)
(0.159842 0.0012246 0)
(0.14676 0.00136012 0)
(0.132383 0.00148715 0)
(0.116959 0.00157343 0)
(0.100795 0.00163322 0)
(0.084144 0.00167047 0)
(0.0672187 0.00169032 0)
(0.0502355 0.00167862 0)
(0.0334373 0.00165553 0)
(0.0169937 0.00161008 0)
(0.00100914 0.00156165 0)
(-0.014391 0.00149894 0)
(-0.0291365 0.00142775 0)
(-0.0431653 0.00135102 0)
(-0.0563971 0.00128052 0)
(-0.0688335 0.00119234 0)
(-0.0804391 0.00111282 0)
(-0.0912122 0.00102492 0)
(-0.101131 0.000951312 0)
(-0.110215 0.000863915 0)
(-0.118525 0.000801082 0)
(-0.125944 0.000712745 0)
(-0.13256 0.000644288 0)
(-0.138354 0.000558754 0)
(-0.143303 0.000487185 0)
(-0.147382 0.000393401 0)
(-0.150545 0.000304056 0)
(-0.152757 0.00021518 0)
(-0.153949 0.000136112 0)
(-0.154277 5.43274e-05 0)
(-0.153875 -3.57329e-05 0)
(-0.152694 -0.000119727 0)
(-0.150587 -0.000189782 0)
(-0.147931 -0.000254441 0)
(-0.144453 -0.000329064 0)
(-0.140363 -0.000385315 0)
(-0.135769 -0.00044879 0)
(-0.130408 -0.000507793 0)
(-0.124688 -0.000547764 0)
(-0.118582 -0.000601827 0)
(-0.111806 -0.000654019 0)
(-0.104746 -0.00069276 0)
(-0.0971609 -0.00075295 0)
(-0.0890298 -0.000808276 0)
(-0.0803819 -0.000872915 0)
(-0.070983 -0.000951678 0)
(-0.0609486 -0.00101369 0)
(-0.0502156 -0.00110451 0)
(-0.0386735 -0.00118015 0)
(-0.0263121 -0.00125921 0)
(-0.0130099 -0.00134895 0)
(0.0025482 -0.00142563 0)
(0.0192028 -0.0014981 0)
(0.0356686 -0.0015783 0)
(0.0525219 -0.00162811 0)
(0.0696238 -0.00168179 0)
(0.0869403 -0.00170272 0)
(0.104214 -0.00169245 0)
(0.121243 -0.00167609 0)
(0.137857 -0.00162449 0)
(0.153794 -0.00153822 0)
(0.168783 -0.00144484 0)
(0.182616 -0.00131229 0)
(0.195042 -0.00116782 0)
(0.205871 -0.000997355 0)
(0.214919 -0.000806627 0)
(0.222012 -0.000608696 0)
(0.227053 -0.000396906 0)
(0.229976 -0.00017715 0)
(0.230729 3.68824e-05 0)
(0.229315 0.000257228 0)
(0.225591 0.000465619 0)
(0.219823 0.00066834 0)
(0.212055 0.000867434 0)
(0.202425 0.00103212 0)
(0.191127 0.00119553 0)
(0.178331 0.00134477 0)
(0.164241 0.00144647 0)
(0.149085 0.00155063 0)
(0.133089 0.00160655 0)
(0.116475 0.00166631 0)
(0.0994491 0.00170787 0)
(0.0821995 0.00170183 0)
(0.0649253 0.00170528 0)
(0.047736 0.00169158 0)
(0.0307644 0.00164181 0)
(0.0138867 0.00160473 0)
(-0.00181814 0.00155358 0)
(-0.0164791 0.00148204 0)
(-0.0310235 0.00141809 0)
(-0.0448728 0.00133383 0)
(-0.0579577 0.00126002 0)
(-0.0702388 0.00118166 0)
(-0.0816845 0.00109135 0)
(-0.0922764 0.00100893 0)
(-0.102001 0.000924041 0)
(-0.110847 0.000832771 0)
(-0.118809 0.000746459 0)
(-0.125884 0.000656151 0)
(-0.132071 0.00056945 0)
(-0.137374 0.000482379 0)
(-0.141796 0.000394611 0)
(-0.145345 0.000308954 0)
(-0.148032 0.000223961 0)
(-0.149874 0.000139149 0)
(-0.150856 5.80727e-05 0)
(-0.151064 -2.28106e-05 0)
(-0.15045 -0.000102132 0)
(-0.149044 -0.00017932 0)
(-0.146867 -0.000255152 0)
(-0.143931 -0.000328592 0)
(-0.139548 -0.000400489 0)
(0.101381 -0.00543292 0)
(0.117315 -0.00553496 0)
(0.135767 -0.00547421 0)
(0.154039 -0.00534109 0)
(0.17188 -0.00523989 0)
(0.18904 -0.00496051 0)
(0.205258 -0.0046944 0)
(0.22027 -0.00426449 0)
(0.233807 -0.00376638 0)
(0.245627 -0.00325034 0)
(0.255503 -0.00262695 0)
(0.263237 -0.00195851 0)
(0.268675 -0.00125531 0)
(0.271715 -0.00051393 0)
(0.272222 0.000214042 0)
(0.270272 0.000958199 0)
(0.265696 0.0017204 0)
(0.258744 0.00241188 0)
(0.249476 0.00308722 0)
(0.238053 0.00372638 0)
(0.224679 0.00422555 0)
(0.209604 0.00472387 0)
(0.19307 0.0051603 0)
(0.175348 0.00540348 0)
(0.156724 0.00566903 0)
(0.137474 0.00574299 0)
(0.117872 0.00584668 0)
(0.0981525 0.00587857 0)
(0.0785439 0.00574813 0)
(0.059222 0.00564824 0)
(0.0403266 0.00550051 0)
(0.0219858 0.00521471 0)
(0.00486588 0.00499349 0)
(-0.0110541 0.00468097 0)
(-0.0262668 0.00440651 0)
(-0.0405262 0.00411299 0)
(-0.0537626 0.00378285 0)
(-0.0659593 0.00348055 0)
(-0.077117 0.00317634 0)
(-0.0872472 0.00286361 0)
(-0.0963775 0.00257389 0)
(-0.10454 0.0022851 0)
(-0.111773 0.00201619 0)
(-0.118115 0.00175708 0)
(-0.123609 0.00150551 0)
(-0.128295 0.00126986 0)
(-0.132203 0.00104248 0)
(-0.135384 0.000818729 0)
(-0.137865 0.000616438 0)
(-0.139656 0.000409636 0)
(-0.140794 0.000210469 0)
(-0.141317 2.94397e-05 0)
(-0.14117 -0.000181065 0)
(-0.140403 -0.000361678 0)
(-0.138967 -0.000552672 0)
(-0.136823 -0.000763359 0)
(-0.133972 -0.000949094 0)
(-0.130449 -0.00115122 0)
(-0.126146 -0.00139678 0)
(-0.12101 -0.00159229 0)
(-0.115144 -0.0018651 0)
(-0.108296 -0.00208057 0)
(-0.100658 -0.00230854 0)
(-0.0921907 -0.00260374 0)
(-0.082587 -0.00283583 0)
(-0.0722574 -0.0030846 0)
(-0.060919 -0.00334992 0)
(-0.0485619 -0.00361694 0)
(-0.0355332 -0.00386616 0)
(-0.0213394 -0.00412026 0)
(-0.00709448 -0.00431976 0)
(0.00712019 -0.004492 0)
(0.0223967 -0.00465239 0)
(0.038286 -0.0047527 0)
(0.0545328 -0.0048342 0)
(0.0710878 -0.00484836 0)
(0.0875852 -0.00482848 0)
(0.103998 -0.00476755 0)
(0.120174 -0.00462483 0)
(0.135721 -0.00444845 0)
(0.150693 -0.00421361 0)
(0.164805 -0.00392593 0)
(0.17779 -0.00360051 0)
(0.189743 -0.00323267 0)
(0.200297 -0.00282986 0)
(0.209434 -0.0023678 0)
(0.217008 -0.00187828 0)
(0.222795 -0.00135409 0)
(0.226801 -0.000754852 0)
(0.228629 -0.000161995 0)
(0.228369 0.00054824 0)
(0.225603 0.00126496 0)
(0.220242 0.00202876 0)
(0.21257 0.00270025 0)
(0.202467 0.00339645 0)
(0.190096 0.00399768 0)
(0.17589 0.00453091 0)
(0.159974 0.00497466 0)
(0.142638 0.00532124 0)
(0.12426 0.00558137 0)
(0.105203 0.00573258 0)
(0.0858081 0.00581145 0)
(0.0662791 0.00580252 0)
(0.0469298 0.00571307 0)
(0.0279883 0.00555629 0)
(0.0096325 0.00536334 0)
(-0.00794064 0.00510706 0)
(-0.0246228 0.0048152 0)
(-0.0402963 0.00452328 0)
(-0.0549224 0.00417638 0)
(-0.0684489 0.00384667 0)
(-0.0808103 0.00353343 0)
(-0.0920392 0.00317888 0)
(-0.102186 0.00286324 0)
(-0.11129 0.00254415 0)
(-0.119363 0.00226461 0)
(-0.126436 0.00197137 0)
(-0.132612 0.00171213 0)
(-0.137948 0.00145409 0)
(-0.142475 0.00121285 0)
(-0.146214 0.00102753 0)
(-0.149242 0.000791546 0)
(-0.151631 0.000600399 0)
(-0.153326 0.00042844 0)
(-0.154402 0.000228318 0)
(-0.154926 7.84662e-05 0)
(-0.154866 -0.000110558 0)
(-0.154247 -0.000246131 0)
(-0.153103 -0.000420022 0)
(-0.151419 -0.000583577 0)
(-0.149215 -0.000770835 0)
(-0.146383 -0.000901648 0)
(-0.142978 -0.00109938 0)
(-0.138997 -0.00126683 0)
(-0.134385 -0.00147595 0)
(-0.129108 -0.00166765 0)
(-0.123155 -0.0018572 0)
(-0.116545 -0.00208163 0)
(-0.109185 -0.0022912 0)
(-0.101077 -0.00252985 0)
(-0.0921851 -0.00275979 0)
(-0.0824918 -0.00300747 0)
(-0.0719451 -0.00326889 0)
(-0.0605841 -0.00349805 0)
(-0.0483474 -0.00377982 0)
(-0.0352088 -0.00402219 0)
(-0.0212869 -0.00429789 0)
(-0.00648923 -0.00449268 0)
(0.00910908 -0.00472247 0)
(0.0253376 -0.00492119 0)
(0.0421151 -0.00504765 0)
(0.0592482 -0.00512734 0)
(0.0765141 -0.00515436 0)
(0.0937668 -0.0051014 0)
(0.110769 -0.00498343 0)
(0.127214 -0.00480178 0)
(0.142887 -0.00451646 0)
(0.157506 -0.00417824 0)
(0.170809 -0.00372772 0)
(0.182529 -0.00322909 0)
(0.192417 -0.00263797 0)
(0.200225 -0.00201584 0)
(0.205866 -0.00131866 0)
(0.209114 -0.000609555 0)
(0.209916 0.000111663 0)
(0.208278 0.000842331 0)
(0.204126 0.0015717 0)
(0.197667 0.00227347 0)
(0.18894 0.00290864 0)
(0.178177 0.0034848 0)
(0.165571 0.00400311 0)
(0.151354 0.00444444 0)
(0.135785 0.00481532 0)
(0.119138 0.00508767 0)
(0.101696 0.00526773 0)
(0.0837765 0.00536614 0)
(0.0656717 0.0054171 0)
(0.0475593 0.00537072 0)
(0.0296764 0.00525781 0)
(0.0122234 0.005109 0)
(-0.00459674 0.00492339 0)
(-0.0206896 0.00465357 0)
(-0.0359477 0.00439906 0)
(-0.0502127 0.00412479 0)
(-0.0635251 0.0038119 0)
(-0.0758592 0.00352926 0)
(-0.0871836 0.00321882 0)
(-0.0975579 0.0029318 0)
(-0.106934 0.00266737 0)
(-0.115369 0.00237156 0)
(-0.122891 0.00210367 0)
(-0.129466 0.00182435 0)
(-0.135194 0.00158258 0)
(-0.140119 0.00134666 0)
(-0.14428 0.00113245 0)
(-0.147752 0.000936215 0)
(-0.150589 0.000766226 0)
(-0.152861 0.000599292 0)
(-0.154664 0.000470219 0)
(-0.156052 0.000346628 0)
(-0.157071 0.000242401 0)
(-0.157678 0.00013108 0)
(-0.157912 1.86385e-05 0)
(-0.157727 -0.00013512 0)
(-0.157028 -0.000279355 0)
(-0.155792 -0.000459143 0)
(-0.15394 -0.000651976 0)
(-0.151436 -0.000861388 0)
(-0.148131 -0.00108936 0)
(-0.144001 -0.00134707 0)
(-0.139041 -0.00159934 0)
(-0.133202 -0.00186682 0)
(-0.126491 -0.00214459 0)
(-0.118873 -0.00238 0)
(-0.110397 -0.00265609 0)
(-0.101086 -0.0028795 0)
(-0.090884 -0.00317309 0)
(-0.0797966 -0.00342442 0)
(-0.0678216 -0.00368396 0)
(-0.0550109 -0.00397277 0)
(-0.0413217 -0.00416591 0)
(-0.0268172 -0.00441975 0)
(-0.0116365 -0.00461615 0)
(0.00417931 -0.00478525 0)
(0.0205389 -0.00492634 0)
(0.037274 -0.00501781 0)
(0.0542263 -0.00507611 0)
(0.0712667 -0.00505503 0)
(0.0881535 -0.00498002 0)
(0.104646 -0.00482547 0)
(0.120503 -0.00459576 0)
(0.135465 -0.00429605 0)
(0.149293 -0.00392183 0)
(0.161757 -0.00349534 0)
(0.172691 -0.00301297 0)
(0.181918 -0.002472 0)
(0.189264 -0.00189565 0)
(0.194615 -0.00128554 0)
(0.19788 -0.000642457 0)
(0.198961 -1.03631e-05 0)
(0.197889 0.000665889 0)
(0.194463 0.00133595 0)
(0.188858 0.00198362 0)
(0.18111 0.00260049 0)
(0.171384 0.0031574 0)
(0.159896 0.00367457 0)
(0.146815 0.00409775 0)
(0.132408 0.00445859 0)
(0.116972 0.00472087 0)
(0.1008 0.00489429 0)
(0.0841391 0.005011 0)
(0.067199 0.00506834 0)
(0.0502071 0.00504416 0)
(0.0334042 0.00496354 0)
(0.0169528 0.00483489 0)
(0.00096393 0.00468247 0)
(-0.0144348 0.00449177 0)
(-0.0291863 0.00428264 0)
(-0.0432125 0.00405119 0)
(-0.0564481 0.0038403 0)
(-0.0688854 0.00357423 0)
(-0.080489 0.00333723 0)
(-0.0912589 0.00308182 0)
(-0.101178 0.0028641 0)
(-0.110261 0.00259208 0)
(-0.118567 0.00239951 0)
(-0.125982 0.00213969 0)
(-0.1326 0.00193613 0)
(-0.138394 0.00167257 0)
(-0.143344 0.00145712 0)
(-0.147426 0.0011773 0)
(-0.150587 0.000918676 0)
(-0.15281 0.000656086 0)
(-0.154007 0.000407867 0)
(-0.154341 0.000161525 0)
(-0.153947 -0.000100974 0)
(-0.15277 -0.000358055 0)
(-0.15067 -0.000568327 0)
(-0.148018 -0.000760979 0)
(-0.144546 -0.000985739 0)
(-0.14046 -0.00115071 0)
(-0.135873 -0.00134954 0)
(-0.130507 -0.00152153 0)
(-0.124786 -0.00164169 0)
(-0.118681 -0.00180553 0)
(-0.1119 -0.00196098 0)
(-0.104842 -0.00207988 0)
(-0.0972549 -0.00226292 0)
(-0.0891158 -0.00242469 0)
(-0.0804693 -0.00262022 0)
(-0.0710662 -0.00285492 0)
(-0.0610292 -0.00304208 0)
(-0.0502924 -0.00331384 0)
(-0.0387454 -0.00354273 0)
(-0.0263821 -0.00377263 0)
(-0.0130734 -0.00405529 0)
(0.0024874 -0.0042658 0)
(0.0191491 -0.00449708 0)
(0.0356209 -0.00474862 0)
(0.0524858 -0.00489268 0)
(0.0695962 -0.00505127 0)
(0.086923 -0.00510996 0)
(0.104209 -0.00507745 0)
(0.121248 -0.00503045 0)
(0.137877 -0.00487196 0)
(0.153821 -0.00461833 0)
(0.168827 -0.00433287 0)
(0.182665 -0.00394089 0)
(0.195106 -0.00350279 0)
(0.205942 -0.00299298 0)
(0.214996 -0.00242035 0)
(0.222096 -0.00182608 0)
(0.227138 -0.00119262 0)
(0.230071 -0.000530306 0)
(0.230822 0.000108682 0)
(0.229398 0.000770747 0)
(0.225674 0.00139666 0)
(0.219905 0.00200512 0)
(0.212133 0.00260275 0)
(0.202495 0.00309691 0)
(0.191191 0.00358724 0)
(0.178388 0.00403512 0)
(0.164288 0.0043402 0)
(0.149123 0.00465278 0)
(0.133117 0.0048204 0)
(0.116496 0.00499976 0)
(0.0994611 0.00512439 0)
(0.0822041 0.00510629 0)
(0.064923 0.00511637 0)
(0.0477273 0.00507535 0)
(0.0307514 0.00492589 0)
(0.0138686 0.00481253 0)
(-0.00183966 0.00466296 0)
(-0.0165027 0.00444653 0)
(-0.0310506 0.00425451 0)
(-0.0449015 0.00400168 0)
(-0.0579882 0.00378021 0)
(-0.0702707 0.0035451 0)
(-0.081717 0.00327415 0)
(-0.0923098 0.00302686 0)
(-0.102035 0.00277218 0)
(-0.110881 0.00249836 0)
(-0.118843 0.00223942 0)
(-0.125918 0.00196848 0)
(-0.132105 0.00170835 0)
(-0.137408 0.00144712 0)
(-0.14183 0.00118379 0)
(-0.145379 0.000926764 0)
(-0.148065 0.000671858 0)
(-0.149907 0.00041734 0)
(-0.15089 0.000173998 0)
(-0.151096 -6.85683e-05 0)
(-0.150481 -0.000306528 0)
(-0.149075 -0.000538062 0)
(-0.146897 -0.000765547 0)
(-0.14396 -0.000985855 0)
(-0.139576 -0.00120154 0)
(0.101365 -0.00905725 0)
(0.117313 -0.00922774 0)
(0.135782 -0.0091267 0)
(0.154072 -0.008905 0)
(0.171934 -0.00873665 0)
(0.189114 -0.008271 0)
(0.205355 -0.00782757 0)
(0.220385 -0.00711087 0)
(0.233941 -0.00628042 0)
(0.245782 -0.00542016 0)
(0.255672 -0.00438069 0)
(0.263417 -0.00326616 0)
(0.268865 -0.00209445 0)
(0.271908 -0.000864669 0)
(0.272437 0.000361579 0)
(0.270458 0.00160287 0)
(0.265889 0.00286862 0)
(0.258925 0.00402158 0)
(0.249645 0.0051478 0)
(0.238208 0.00621348 0)
(0.224812 0.00704583 0)
(0.209718 0.00787663 0)
(0.193164 0.00860419 0)
(0.175418 0.00900941 0)
(0.156772 0.00945205 0)
(0.137501 0.00957502 0)
(0.117879 0.00974772 0)
(0.0981414 0.00980061 0)
(0.078517 0.00958252 0)
(0.0591807 0.00941596 0)
(0.0402705 0.00916923 0)
(0.0219214 0.00869492 0)
(0.00479581 0.00832127 0)
(-0.0111298 0.00780211 0)
(-0.0263463 0.00734475 0)
(-0.0406086 0.00685516 0)
(-0.0538451 0.00630483 0)
(-0.0660418 0.00580075 0)
(-0.0771986 0.00529361 0)
(-0.0873262 0.00477228 0)
(-0.0964541 0.0042894 0)
(-0.104613 0.00380808 0)
(-0.111843 0.00335983 0)
(-0.118182 0.00292791 0)
(-0.123673 0.00250877 0)
(-0.128355 0.00211626 0)
(-0.132262 0.00173754 0)
(-0.135439 0.00136654 0)
(-0.137918 0.00102677 0)
(-0.13971 0.000684141 0)
(-0.140848 0.00034981 0)
(-0.141369 4.84467e-05 0)
(-0.141221 -0.000301287 0)
(-0.140453 -0.000603686 0)
(-0.139018 -0.000921265 0)
(-0.136875 -0.00127195 0)
(-0.134025 -0.0015816 0)
(-0.130504 -0.00191882 0)
(-0.126203 -0.0023268 0)
(-0.121068 -0.00265384 0)
(-0.115204 -0.00310782 0)
(-0.108359 -0.00346812 0)
(-0.100724 -0.00384873 0)
(-0.0922555 -0.00433659 0)
(-0.0826532 -0.00472622 0)
(-0.0723217 -0.00514021 0)
(-0.0609871 -0.00558477 0)
(-0.0486258 -0.00602769 0)
(-0.0355922 -0.00644529 0)
(-0.0214006 -0.00686956 0)
(-0.00713768 -0.00719983 0)
(0.00708174 -0.00749128 0)
(0.0223639 -0.00775986 0)
(0.038279 -0.0079195 0)
(0.0545317 -0.0080648 0)
(0.0711024 -0.00808638 0)
(0.087621 -0.00804959 0)
(0.104056 -0.00794919 0)
(0.120254 -0.00771358 0)
(0.135823 -0.00742102 0)
(0.150818 -0.00702579 0)
(0.164947 -0.00655656 0)
(0.177958 -0.00601693 0)
(0.189937 -0.00538566 0)
(0.200508 -0.00472346 0)
(0.209652 -0.00395617 0)
(0.217239 -0.00313693 0)
(0.223046 -0.00224992 0)
(0.227032 -0.00125727 0)
(0.228882 -0.000256037 0)
(0.228597 0.000918017 0)
(0.22581 0.0021147 0)
(0.220432 0.0033837 0)
(0.212744 0.00451329 0)
(0.202617 0.00566335 0)
(0.190217 0.00667791 0)
(0.175973 0.00754806 0)
(0.160028 0.00829212 0)
(0.142667 0.00887847 0)
(0.124257 0.00930469 0)
(0.105176 0.00957021 0)
(0.0857396 0.00968615 0)
(0.0661895 0.0096652 0)
(0.0468337 0.00952824 0)
(0.0278809 0.00926528 0)
(0.00950524 0.00893624 0)
(-0.00807208 0.0085161 0)
(-0.0247569 0.00803639 0)
(-0.0404479 0.00753908 0)
(-0.0550812 0.00696321 0)
(-0.0686006 0.00641399 0)
(-0.080965 0.00589215 0)
(-0.0921979 0.00529858 0)
(-0.102342 0.00476265 0)
(-0.111436 0.00424242 0)
(-0.119509 0.00377522 0)
(-0.126586 0.00328167 0)
(-0.132756 0.00284866 0)
(-0.138084 0.00242874 0)
(-0.142598 0.00202577 0)
(-0.146341 0.00171034 0)
(-0.149376 0.0013104 0)
(-0.151752 0.00099669 0)
(-0.153449 0.000713488 0)
(-0.154515 0.000392936 0)
(-0.155039 0.000133701 0)
(-0.154977 -0.000176213 0)
(-0.154369 -0.00042687 0)
(-0.153227 -0.000707445 0)
(-0.151535 -0.000969592 0)
(-0.149317 -0.00126847 0)
(-0.146498 -0.00151491 0)
(-0.143088 -0.00183363 0)
(-0.139115 -0.00211747 0)
(-0.134509 -0.00244759 0)
(-0.129233 -0.00277652 0)
(-0.12329 -0.00310757 0)
(-0.116664 -0.00345974 0)
(-0.109316 -0.00383259 0)
(-0.101203 -0.00420795 0)
(-0.0923227 -0.00460621 0)
(-0.0826339 -0.00500265 0)
(-0.0720817 -0.00545416 0)
(-0.0607207 -0.00583098 0)
(-0.0484824 -0.0062981 0)
(-0.0353442 -0.00669715 0)
(-0.0214248 -0.00716293 0)
(-0.00662348 -0.00750534 0)
(0.00898159 -0.00787147 0)
(0.0252297 -0.00819307 0)
(0.0420242 -0.00840977 0)
(0.0591601 -0.00856714 0)
(0.0764535 -0.00859339 0)
(0.0937259 -0.00849799 0)
(0.110734 -0.00832117 0)
(0.127212 -0.00799365 0)
(0.142905 -0.00753957 0)
(0.157554 -0.00695624 0)
(0.170865 -0.00622327 0)
(0.182607 -0.00537869 0)
(0.192505 -0.00441076 0)
(0.200342 -0.00335563 0)
(0.205992 -0.00220937 0)
(0.209263 -0.00101244 0)
(0.210064 0.000184375 0)
(0.208401 0.00140602 0)
(0.204267 0.00262448 0)
(0.197791 0.00379307 0)
(0.189044 0.00484951 0)
(0.178269 0.00581558 0)
(0.165648 0.00667597 0)
(0.151411 0.00741187 0)
(0.135819 0.00803108 0)
(0.119137 0.00847649 0)
(0.101674 0.00878221 0)
(0.0837381 0.00895785 0)
(0.0655976 0.0090296 0)
(0.0474682 0.00894503 0)
(0.029582 0.00877372 0)
(0.0121124 0.00851977 0)
(-0.00472331 0.00820037 0)
(-0.0208202 0.00776611 0)
(-0.0360781 0.00733544 0)
(-0.0503618 0.00687846 0)
(-0.0636811 0.00635103 0)
(-0.0760107 0.00587594 0)
(-0.0873364 0.00536128 0)
(-0.0976925 0.00488836 0)
(-0.107076 0.00445399 0)
(-0.115523 0.00393947 0)
(-0.123036 0.00350455 0)
(-0.129607 0.00304097 0)
(-0.13533 0.00263892 0)
(-0.140252 0.00225312 0)
(-0.14441 0.00187951 0)
(-0.147874 0.00156001 0)
(-0.150706 0.00127482 0)
(-0.15297 0.00099464 0)
(-0.154767 0.000791207 0)
(-0.156154 0.00057487 0)
(-0.157172 0.00039728 0)
(-0.157779 0.00022551 0)
(-0.158021 2.07085e-05 0)
(-0.15783 -0.000209069 0)
(-0.157148 -0.000472732 0)
(-0.155914 -0.000774604 0)
(-0.154057 -0.001077 0)
(-0.151566 -0.0014442 0)
(-0.148255 -0.00179913 0)
(-0.144134 -0.00223981 0)
(-0.139193 -0.00268152 0)
(-0.133344 -0.00311036 0)
(-0.12662 -0.00357289 0)
(-0.118986 -0.00396046 0)
(-0.110518 -0.00441352 0)
(-0.101229 -0.00482361 0)
(-0.0910239 -0.00527966 0)
(-0.0799317 -0.00570552 0)
(-0.0679687 -0.00615316 0)
(-0.0551449 -0.0066073 0)
(-0.0414578 -0.00695393 0)
(-0.0269481 -0.0073685 0)
(-0.0117417 -0.0076901 0)
(0.00408223 -0.00797738 0)
(0.0204494 -0.00820788 0)
(0.0371787 -0.00837822 0)
(0.0541554 -0.00845981 0)
(0.0712174 -0.00842644 0)
(0.0881206 -0.00830285 0)
(0.104638 -0.00804515 0)
(0.120509 -0.0076628 0)
(0.135499 -0.00716068 0)
(0.149339 -0.00653318 0)
(0.161807 -0.00583398 0)
(0.172753 -0.00503024 0)
(0.181997 -0.00412366 0)
(0.189362 -0.00316226 0)
(0.194731 -0.00213994 0)
(0.197998 -0.00107413 0)
(0.199091 -1.30622e-05 0)
(0.198001 0.00110519 0)
(0.194595 0.00223413 0)
(0.188979 0.00331007 0)
(0.181217 0.00433412 0)
(0.171481 0.00528134 0)
(0.159958 0.00611546 0)
(0.146868 0.00682887 0)
(0.132433 0.00743825 0)
(0.11697 0.00786545 0)
(0.100777 0.00817073 0)
(0.084102 0.00835333 0)
(0.067134 0.00845894 0)
(0.0501198 0.00839883 0)
(0.0333092 0.00827933 0)
(0.0168454 0.0080557 0)
(0.000854848 0.00780543 0)
(-0.0145458 0.00749206 0)
(-0.0293052 0.00714059 0)
(-0.0433311 0.00675707 0)
(-0.0565736 0.0063953 0)
(-0.0690085 0.00595734 0)
(-0.0806093 0.00556334 0)
(-0.0913757 0.00513378 0)
(-0.101295 0.00476673 0)
(-0.110353 0.0043198 0)
(-0.118648 0.0040001 0)
(-0.126049 0.00356774 0)
(-0.132657 0.00322491 0)
(-0.138437 0.00279119 0)
(-0.143382 0.00243231 0)
(-0.14746 0.00197019 0)
(-0.150631 0.0015345 0)
(-0.152857 0.00109284 0)
(-0.154053 0.000681553 0)
(-0.154396 0.000264342 0)
(-0.154018 -0.000173709 0)
(-0.152845 -0.0005938 0)
(-0.150757 -0.000945032 0)
(-0.148118 -0.00126751 0)
(-0.144655 -0.00164147 0)
(-0.140579 -0.00191908 0)
(-0.136002 -0.00224636 0)
(-0.130635 -0.0025377 0)
(-0.12491 -0.00273708 0)
(-0.118811 -0.0030096 0)
(-0.112026 -0.0032692 0)
(-0.104964 -0.00346509 0)
(-0.0973789 -0.00377052 0)
(-0.0892372 -0.00404244 0)
(-0.080589 -0.00436657 0)
(-0.0711833 -0.00476015 0)
(-0.0611408 -0.00507048 0)
(-0.0504 -0.00552354 0)
(-0.0388462 -0.00590631 0)
(-0.0264815 -0.0062911 0)
(-0.0131605 -0.00674675 0)
(0.0024044 -0.00712973 0)
(0.0190703 -0.00747706 0)
(0.0355595 -0.00790179 0)
(0.0524385 -0.00815066 0)
(0.069568 -0.00841716 0)
(0.0869121 -0.00851864 0)
(0.10422 -0.00846369 0)
(0.12128 -0.00838491 0)
(0.137929 -0.00812339 0)
(0.153894 -0.00769762 0)
(0.16892 -0.00722604 0)
(0.182778 -0.00656778 0)
(0.195234 -0.0058444 0)
(0.206087 -0.00498907 0)
(0.215151 -0.00403833 0)
(0.222262 -0.00304425 0)
(0.22731 -0.00199187 0)
(0.230252 -0.000886103 0)
(0.231006 0.000179025 0)
(0.229553 0.00128613 0)
(0.225835 0.00232707 0)
(0.220061 0.00334302 0)
(0.21228 0.00433989 0)
(0.202628 0.00516384 0)
(0.191309 0.00598128 0)
(0.17849 0.00672817 0)
(0.164371 0.00723641 0)
(0.14919 0.00775781 0)
(0.133166 0.00803652 0)
(0.116527 0.00833571 0)
(0.0994772 0.00854318 0)
(0.0822058 0.00851295 0)
(0.0649112 0.00852913 0)
(0.0477036 0.00846074 0)
(0.030719 0.00821121 0)
(0.0138277 0.00801797 0)
(-0.0018869 0.00777628 0)
(-0.0165547 0.00741208 0)
(-0.0311087 0.0070916 0)
(-0.0449624 0.00666997 0)
(-0.0580523 0.00630075 0)
(-0.0703372 0.00590882 0)
(-0.0817842 0.00545714 0)
(-0.0923785 0.00504494 0)
(-0.102105 0.00462042 0)
(-0.110951 0.00416401 0)
(-0.118913 0.00373241 0)
(-0.125988 0.0032808 0)
(-0.132175 0.00284721 0)
(-0.137478 0.00241178 0)
(-0.141899 0.00197282 0)
(-0.145447 0.00154432 0)
(-0.148131 0.00111949 0)
(-0.149971 0.000695795 0)
(-0.150957 0.000289405 0)
(-0.151159 -0.000114686 0)
(-0.150544 -0.000511211 0)
(-0.149135 -0.000897052 0)
(-0.146956 -0.00127617 0)
(-0.144018 -0.00164332 0)
(-0.139633 -0.00200277 0)
(0.101341 -0.0126852 0)
(0.117309 -0.0129247 0)
(0.135805 -0.0127837 0)
(0.154122 -0.0124737 0)
(0.172015 -0.0122386 0)
(0.189225 -0.0115867 0)
(0.2055 -0.0109662 0)
(0.220559 -0.00996235 0)
(0.234141 -0.00879914 0)
(0.246013 -0.0075943 0)
(0.255925 -0.00613808 0)
(0.263688 -0.00457685 0)
(0.269151 -0.0029369 0)
(0.272206 -0.00122016 0)
(0.272745 0.000513779 0)
(0.270741 0.00225449 0)
(0.266178 0.00401888 0)
(0.259196 0.00563399 0)
(0.249898 0.00721206 0)
(0.23844 0.00870497 0)
(0.225013 0.00987082 0)
(0.20989 0.0110347 0)
(0.193305 0.0120536 0)
(0.175523 0.0126206 0)
(0.156845 0.0132405 0)
(0.137541 0.0134121 0)
(0.11789 0.0136536 0)
(0.0981247 0.0137273 0)
(0.0784766 0.0134203 0)
(0.0591187 0.013187 0)
(0.0401865 0.0128403 0)
(0.0218243 0.0121803 0)
(0.00469019 0.0116479 0)
(-0.0112431 0.0109242 0)
(-0.0264657 0.0102839 0)
(-0.0407323 0.00959757 0)
(-0.0539689 0.00882706 0)
(-0.0661658 0.0081207 0)
(-0.0773211 0.00741045 0)
(-0.0874447 0.00668037 0)
(-0.096569 0.00600429 0)
(-0.104723 0.00533038 0)
(-0.111948 0.0047028 0)
(-0.118283 0.00409817 0)
(-0.123769 0.00351154 0)
(-0.128446 0.00296209 0)
(-0.13235 0.00243193 0)
(-0.135522 0.00191407 0)
(-0.137998 0.001437 0)
(-0.13979 0.00096285 0)
(-0.140928 0.000483787 0)
(-0.141449 6.37648e-05 0)
(-0.141298 -0.000421557 0)
(-0.140528 -0.000846357 0)
(-0.139095 -0.0012896 0)
(-0.136953 -0.00178028 0)
(-0.134105 -0.00221316 0)
(-0.130588 -0.00268699 0)
(-0.126287 -0.00325485 0)
(-0.121157 -0.00371526 0)
(-0.115297 -0.0043518 0)
(-0.108452 -0.00485375 0)
(-0.100823 -0.00539086 0)
(-0.092354 -0.00606777 0)
(-0.0827542 -0.00661818 0)
(-0.0724199 -0.00719692 0)
(-0.0610891 -0.00781765 0)
(-0.0487247 -0.00844359 0)
(-0.0356848 -0.00902882 0)
(-0.0214865 -0.00961526 0)
(-0.00720497 -0.0100888 0)
(0.00702307 -0.0104899 0)
(0.0223187 -0.01087 0)
(0.0382624 -0.0111004 0)
(0.0545268 -0.0112948 0)
(0.0711301 -0.0113294 0)
(0.0876746 -0.0112813 0)