/*--------------------------------*- C++ -*----------------------------------*\
| =========                 |                                                 |
| \\      /  F ield         | OpenFOAM: The Open Source CFD Toolbox           |
|  \\    /   O peration     | Version:  3.0.1                                 |
|   \\  /    A nd           | Web:      www.OpenFOAM.org                      |
|    \\/     M anipulation  |                                                 |
\*---------------------------------------------------------------------------*/
FoamFile
{
    version     2.0;
    format      ascii;
    class       volScalarField;
    location    "71.2";
    object      p;
}
// * * * * * * * * * * * * * * * * * * * * * * * * * * * * * * * * * * * * * //

dimensions      [1 -1 -2 0 0 0 0];

internalField   nonuniform List<scalar> 
21420
(
3662.04
3681.33
3702.23
3724.66
3748.58
3773.88
3800.52
3828.42
3857.5
3887.67
3918.75
3950.55
3982.87
4015.42
4047.92
4080
4111.27
4141.39
4169.9
4196.35
4220.38
4241.59
4259.62
4274.21
4285.13
4292.23
4295.43
4294.7
4290.02
4281.61
4269.63
4254.2
4235.59
4214.1
4190
4163.58
4135.21
4105.2
4073.88
4041.6
4008.71
3975.54
3942.41
3909.61
3877.45
3846.18
3816.05
3787.26
3759.99
3734.39
3710.55
3688.55
3668.43
3650.17
3633.75
3619.13
3606.21
3594.9
3585.08
3576.63
3569.44
3563.31
3558.12
3553.98
3550.86
3548.69
3547.49
3547.21
3547.85
3549.37
3551.75
3554.94
3558.88
3563.54
3568.83
3574.79
3581.38
3589.03
3597.89
3607.91
3619.2
3631.97
3646.45
3662.97
3680.4
3694.78
3713.72
3734.75
3757.51
3781.75
3807.27
3833.89
3861.38
3889.49
3917.95
3946.48
3974.82
4002.68
4029.8
4055.88
4080.6
4103.68
4124.82
4143.75
4160.21
4173.97
4184.82
4192.57
4197.1
4198.3
4196.05
4190.43
4181.47
4169.31
4154.01
4135.82
4114.96
4091.71
4066.37
4039.25
4010.68
3981
3950.56
3919.69
3888.73
3858
3827.8
3798.4
3770.06
3742.98
3717.33
3693.25
3670.82
3650.1
3631.1
3613.82
3598.23
3584.3
3571.96
3561.13
3551.75
3543.75
3537.05
3531.58
3527.26
3524.03
3521.83
3520.6
3520.27
3520.78
3522.08
3524.12
3526.86
3530.25
3534.28
3538.91
3544.13
3549.92
3556.39
3563.37
3570.97
3579.22
3588.17
3597.87
3608.4
3619.82
3632.22
3645.68
3660.25
3676
3692.99
3711.27
3730.87
3751.8
3774.06
3797.61
3822.38
3848.28
3875.15
3902.8
3931.01
3959.5
3987.98
4016.11
4043.55
4069.91
4094.83
4117.9
4138.76
4157.03
4172.36
4184.44
4193
4197.71
4198.7
4195.71
4188.75
4177.9
4163.35
4145.31
4124.11
4100.1
4073.69
4045.32
4015.46
3984.56
3953.05
3921.36
3889.85
3858.86
3828.65
3799.47
3771.48
3744.8
3719.54
3695.73
3673.4
3652.53
3633.09
3615.05
3598.37
3583
3568.91
3556.03
3544.33
3533.73
3524.18
3515.62
3508.02
3501.33
3495.54
3490.62
3486.55
3483.34
3480.97
3479.45
3478.82
3479.1
3480.35
3482.63
3486.01
3490.58
3496.41
3503.61
3512.25
3522.44
3534.23
3547.71
3562.94
3579.97
3598.82
3619.52
3642.04
3666.37
3692.41
3720.08
3749.25
3779.74
3811.36
3843.88
3877.01
3910.47
3943.91
3976.94
4009.15
4040.11
4069.38
4096.54
4121.24
4143.17
4162.03
4177.51
4189.35
4197.29
4201.42
4202.07
4198.45
4190.47
4178.92
4164.22
4146.64
4126.56
4104.36
4080.4
4055.11
4028.8
4001.8
3974.46
3946.99
3919.71
3892.79
3866.48
3841
3816.49
3793.12
3771.05
3750.37
3731.17
3713.53
3697.47
3683.02
3670.17
3658.88
3649.11
3640.79
3633.83
3628.16
3623.67
3620.28
3617.88
3616.41
3615.78
3615.98
3617.09
3619.04
3621.84
3625.53
3630.2
3635.93
3642.85
3651.05
3660.67
3671.82
3684.59
3699.07
3715.32
3733.39
3753.28
3774.96
3798.37
3823.43
3850
3877.92
3907.04
3937.12
3967.92
3999.16
4030.51
4061.71
4092.38
4122.16
4150.73
4177.73
4202.81
4225.6
4245.78
4263.07
4277.22
4288
4295.22
4298.81
4298.67
4294.87
4287.24
4275.89
4261.29
4243.75
3563.88
3583.18
3604.07
3626.5
3650.42
3675.72
3702.36
3730.26
3759.34
3789.52
3820.6
3852.41
3884.74
3917.3
3949.81
3981.91
4013.2
4043.33
4071.86
4098.33
4122.38
4143.61
4161.65
4176.25
4187.18
4194.28
4197.49
4196.76
4192.07
4183.64
4171.66
4156.21
4137.6
4116.09
4091.97
4065.54
4037.16
4007.14
3975.79
3943.5
3910.6
3877.42
3844.28
3811.47
3779.29
3748.02
3717.88
3689.09
3661.82
3636.21
3612.37
3590.37
3570.25
3551.99
3535.58
3520.96
3508.04
3496.73
3486.92
3478.48
3471.29
3465.16
3459.98
3455.84
3452.72
3450.56
3449.35
3449.08
3449.71
3451.23
3453.62
3456.81
3460.76
3465.42
3470.71
3476.67
3483.26
3490.93
3499.79
3509.81
3521.09
3533.85
3548.33
3564.84
3582.16
3596.66
3615.58
3636.61
3659.36
3683.6
3709.13
3735.75
3763.25
3791.37
3819.83
3848.37
3876.71
3904.59
3931.72
3957.81
3982.55
4005.64
4026.79
4045.73
4062.21
4075.98
4086.84
4094.6
4099.13
4100.33
4098.09
4092.46
4083.5
4071.32
4056.02
4037.81
4016.94
3993.68
3968.32
3941.18
3912.6
3882.91
3852.45
3821.57
3790.6
3759.86
3729.64
3700.24
3671.89
3644.8
3619.15
3595.07
3572.64
3551.91
3532.92
3515.64
3500.06
3486.13
3473.79
3462.96
3453.59
3445.59
3438.89
3433.43
3429.11
3425.89
3423.69
3422.46
3422.13
3422.64
3423.94
3425.99
3428.73
3432.12
3436.15
3440.78
3446
3451.79
3458.26
3465.24
3472.84
3481.08
3490.03
3499.73
3510.25
3521.67
3534.07
3547.52
3562.09
3577.84
3594.83
3613.1
3632.7
3653.63
3675.89
3699.44
3724.22
3750.12
3776.99
3804.66
3832.87
3861.38
3889.87
3918.02
3945.47
3971.85
3996.78
4019.88
4040.75
4059.03
4074.38
4086.47
4095.05
4099.77
4100.74
4097.76
4090.79
4079.93
4065.37
4047.32
4026.1
4002.06
3975.63
3947.25
3917.37
3886.45
3854.93
3823.22
3791.7
3760.7
3730.49
3701.3
3673.3
3646.63
3621.37
3597.56
3575.23
3554.36
3534.93
3516.89
3500.21
3484.85
3470.76
3457.88
3446.18
3435.58
3426.03
3417.48
3409.88
3403.19
3397.4
3392.48
3388.41
3385.2
3382.83
3381.31
3380.68
3380.96
3382.2
3384.48
3387.86
3392.42
3398.25
3405.45
3414.09
3424.27
3436.06
3449.54
3464.76
3481.79
3500.64
3521.33
3543.86
3568.18
3594.23
3621.91
3651.08
3681.58
3713.21
3745.73
3778.88
3812.35
3845.8
3878.85
3911.08
3942.06
3971.35
3998.52
4023.24
4045.19
4064.07
4079.56
4091.41
4099.37
4103.53
4104.14
4100.51
4092.53
4080.98
4066.27
4048.68
4028.59
4006.36
3982.39
3957.09
3930.76
3903.74
3876.39
3848.9
3821.6
3794.68
3768.35
3742.86
3718.34
3694.97
3672.9
3652.21
3633.01
3615.36
3599.31
3584.86
3572.01
3560.72
3550.95
3542.63
3535.68
3530.02
3525.53
3522.14
3519.75
3518.27
3517.65
3517.85
3518.96
3520.91
3523.7
3527.4
3532.06
3537.79
3544.7
3552.9
3562.51
3573.65
3586.42
3600.9
3617.15
3635.21
3655.1
3676.78
3700.2
3725.26
3751.83
3779.76
3808.88
3838.97
3869.79
3901.03
3932.4
3963.61
3994.29
4024.08
4052.68
4079.69
4104.78
4127.59
4147.78
4165.09
4179.25
4190.04
4197.27
4200.87
4200.72
4196.9
4189.27
4177.92
4163.3
4145.76
3465.67
3484.96
3505.85
3528.28
3552.2
3577.5
3604.14
3632.04
3661.13
3691.31
3722.41
3754.23
3786.58
3819.17
3851.7
3883.82
3915.15
3945.32
3973.88
4000.39
4024.47
4045.73
4063.8
4078.42
4089.37
4096.49
4099.69
4098.98
4094.26
4085.82
4073.82
4058.35
4039.71
4018.17
3994.03
3967.57
3939.15
3909.1
3877.73
3845.41
3812.48
3779.28
3746.11
3713.28
3681.09
3649.8
3619.65
3590.84
3563.57
3537.95
3514.11
3492.11
3471.99
3453.73
3437.33
3422.71
3409.81
3398.51
3388.71
3380.28
3373.1
3366.97
3361.8
3357.67
3354.55
3352.38
3351.18
3350.91
3351.54
3353.07
3355.45
3358.66
3362.61
3367.28
3372.57
3378.54
3385.12
3392.82
3401.68
3411.69
3422.96
3435.72
3450.21
3466.69
3483.8
3498.5
3517.39
3538.42
3561.17
3585.41
3610.95
3637.58
3665.08
3693.21
3721.69
3750.24
3778.61
3806.51
3833.66
3859.77
3884.54
3907.66
3928.84
3947.8
3964.3
3978.09
3988.97
3996.74
4001.28
4002.49
4000.27
3994.61
3985.64
3973.46
3958.14
3939.91
3919.01
3895.72
3870.33
3843.16
3814.55
3784.83
3754.34
3723.43
3692.43
3661.67
3631.43
3602.01
3573.65
3546.55
3520.9
3496.81
3474.38
3453.65
3434.66
3417.39
3401.81
3387.89
3375.56
3364.74
3355.37
3347.38
3340.69
3335.23
3330.92
3327.7
3325.51
3324.29
3323.96
3324.47
3325.78
3327.83
3330.57
3333.97
3337.99
3342.63
3347.84
3353.64
3360.1
3367.08
3374.67
3382.92
3391.85
3401.55
3412.06
3423.48
3435.87
3449.31
3463.87
3479.61
3496.6
3514.87
3534.47
3555.39
3577.65
3601.2
3625.99
3651.9
3678.79
3706.47
3734.7
3763.23
3791.75
3819.93
3847.41
3873.83
3898.8
3921.93
3942.83
3961.15
3976.52
3988.64
3997.23
4001.99
4002.93
3999.95
3992.98
3982.11
3967.51
3949.44
3928.18
3904.11
3877.64
3849.21
3819.29
3788.34
3756.79
3725.05
3693.51
3662.49
3632.26
3603.06
3575.06
3548.39
3523.13
3499.32
3477
3456.13
3436.7
3418.67
3402
3386.64
3372.55
3359.69
3347.99
3337.39
3327.85
3319.3
3311.7
3305.02
3299.23
3294.31
3290.24
3287.03
3284.66
3283.14
3282.5
3282.78
3284.02
3286.29
3289.66
3294.21
3300.04
3307.22
3315.86
3326.03
3337.81
3351.29
3366.51
3383.53
3402.38
3423.07
3445.6
3469.93
3495.98
3523.66
3552.84
3583.36
3615
3647.54
3680.71
3714.21
3747.69
3780.77
3813.04
3844.06
3873.38
3900.59
3925.34
3947.33
3966.24
3981.76
3993.63
4001.63
4005.84
4006.37
4002.72
3994.75
3983.2
3968.47
3950.85
3930.73
3908.48
3884.47
3859.13
3832.77
3805.72
3778.34
3750.82
3723.5
3696.55
3670.2
3644.69
3620.16
3596.77
3574.69
3553.99
3534.79
3517.14
3501.08
3486.64
3473.78
3462.5
3452.74
3444.43
3437.49
3431.82
3427.35
3423.96
3421.57
3420.11
3419.49
3419.68
3420.79
3422.74
3425.53
3429.22
3433.87
3439.59
3446.49
3454.68
3464.29
3475.42
3488.18
3502.65
3518.89
3536.96
3556.84
3578.52
3601.94
3627.01
3653.59
3681.53
3710.67
3740.77
3771.61
3802.87
3834.27
3865.5
3896.22
3926.04
3954.66
3981.71
4006.83
4029.67
4049.89
4067.22
4081.41
4092.21
4099.46
4103.07
4102.93
4099.06
4091.43
4080.07
4065.44
4047.87
3367.4
3386.69
3407.57
3430
3453.92
3479.21
3505.85
3533.76
3562.85
3593.05
3624.16
3656.01
3688.39
3721.01
3753.58
3785.75
3817.12
3847.35
3875.97
3902.53
3926.67
3947.97
3966.09
3980.74
3991.71
3998.84
4002.05
4001.34
3996.61
3988.14
3976.11
3960.61
3941.93
3920.35
3896.16
3869.66
3841.19
3811.1
3779.68
3747.32
3714.35
3681.11
3647.91
3615.05
3582.83
3551.52
3521.34
3492.53
3465.24
3439.61
3415.77
3393.77
3373.64
3355.4
3339
3324.4
3311.51
3300.23
3290.44
3282.02
3274.86
3268.74
3263.57
3259.45
3256.33
3254.17
3252.97
3252.7
3253.34
3254.87
3257.26
3260.48
3264.45
3269.12
3274.42
3280.4
3286.98
3294.71
3303.57
3313.57
3324.83
3337.58
3352.06
3368.52
3385.32
3400.29
3419.16
3440.19
3462.94
3487.18
3512.72
3539.36
3566.88
3595.02
3623.52
3652.1
3680.5
3708.43
3735.62
3761.77
3786.58
3809.73
3830.95
3849.96
3866.49
3880.31
3891.21
3899.02
3903.57
3904.78
3902.58
3896.9
3887.92
3875.71
3860.36
3842.1
3821.16
3797.83
3772.4
3745.18
3716.52
3686.75
3656.22
3625.27
3594.24
3563.44
3533.17
3503.73
3475.34
3448.23
3422.56
3398.47
3376.04
3355.32
3336.33
3319.07
3303.5
3289.59
3277.26
3266.46
3257.1
3249.12
3242.44
3236.99
3232.69
3229.48
3227.3
3226.07
3225.75
3226.28
3227.59
3229.64
3232.38
3235.79
3239.81
3244.45
3249.67
3255.46
3261.92
3268.89
3276.48
3284.72
3293.65
3303.33
3313.84
3325.24
3337.62
3351.05
3365.6
3381.33
3398.31
3416.58
3436.17
3457.09
3479.35
3502.9
3527.7
3553.62
3580.53
3608.23
3636.5
3665.06
3693.62
3721.85
3749.38
3775.85
3800.87
3824.05
3845.01
3863.38
3878.79
3890.94
3899.56
3904.37
3905.28
3902.3
3895.31
3884.42
3869.79
3851.66
3830.35
3806.22
3779.69
3751.2
3721.23
3690.22
3658.62
3626.84
3595.27
3564.22
3533.97
3504.76
3476.75
3450.08
3424.82
3401.02
3378.7
3357.84
3338.42
3320.4
3303.73
3288.38
3274.3
3261.44
3249.75
3239.16
3229.63
3221.08
3213.49
3206.81
3201.02
3196.1
3192.04
3188.82
3186.45
3184.93
3184.29
3184.56
3185.79
3188.05
3191.41
3195.96
3201.77
3208.94
3217.57
3227.73
3239.5
3252.97
3268.18
3285.19
3304.04
3324.73
3347.26
3371.59
3397.65
3425.35
3454.54
3485.07
3516.74
3549.31
3582.52
3616.05
3649.58
3682.71
3715.03
3746.1
3775.48
3802.75
3827.55
3849.59
3868.55
3884.12
3896.03
3904.08
3908.35
3908.78
3905.09
3897.14
3885.58
3870.82
3853.16
3833
3810.7
3786.64
3761.26
3734.85
3707.75
3680.31
3652.75
3625.39
3598.4
3572.02
3546.49
3521.93
3498.52
3476.42
3455.72
3436.5
3418.85
3402.79
3388.35
3375.5
3364.23
3354.47
3346.17
3339.24
3333.59
3329.12
3325.74
3323.37
3321.9
3321.29
3321.49
3322.6
3324.54
3327.33
3331
3335.64
3341.35
3348.24
3356.41
3366
3377.12
3389.87
3404.33
3420.56
3438.62
3458.51
3480.19
3503.61
3528.69
3555.28
3583.24
3612.4
3642.52
3673.39
3704.69
3736.12
3767.4
3798.15
3828.02
3856.69
3883.78
3908.95
3931.84
3952.1
3969.47
3983.69
3994.52
4001.8
4005.41
4005.28
4001.37
3993.73
3982.36
3967.69
3950.08
3269.08
3288.35
3309.24
3331.66
3355.57
3380.87
3407.51
3435.41
3464.52
3494.73
3525.87
3557.75
3590.17
3622.83
3655.46
3687.69
3719.13
3749.42
3778.11
3804.75
3828.96
3850.33
3868.49
3883.19
3894.19
3901.35
3904.56
3903.84
3899.11
3890.6
3878.52
3862.98
3844.25
3822.62
3798.37
3771.8
3743.28
3713.12
3681.65
3649.23
3616.21
3582.92
3549.68
3516.78
3484.52
3453.18
3422.98
3394.13
3366.83
3341.19
3317.34
3295.34
3275.22
3256.99
3240.6
3226.01
3213.14
3201.88
3192.11
3183.72
3176.58
3170.45
3165.31
3161.2
3158.09
3155.93
3154.73
3154.46
3155.1
3156.63
3159.04
3162.27
3166.25
3170.95
3176.26
3182.24
3188.82
3196.59
3205.46
3215.45
3226.69
3239.42
3253.91
3270.33
3286.73
3302.03
3320.89
3341.91
3364.67
3388.91
3414.45
3441.11
3468.64
3496.81
3525.34
3553.95
3582.38
3610.36
3637.6
3663.8
3688.66
3711.87
3733.14
3752.19
3768.77
3782.64
3793.58
3801.41
3805.99
3807.21
3805.01
3799.33
3790.33
3778.09
3762.7
3744.39
3723.4
3700.01
3674.52
3647.24
3618.52
3588.69
3558.1
3527.1
3496.01
3465.16
3434.86
3405.38
3376.96
3349.83
3324.15
3300.05
3277.62
3256.9
3237.92
3220.67
3205.11
3191.22
3178.9
3168.11
3158.77
3150.8
3144.14
3138.7
3134.41
3131.21
3129.04
3127.83
3127.51
3128.05
3129.37
3131.42
3134.17
3137.58
3141.61
3146.24
3151.46
3157.26
3163.71
3170.68
3178.26
3186.49
3195.41
3205.08
3215.57
3226.96
3239.32
3252.74
3267.27
3283
3299.96
3318.22
3337.8
3358.72
3380.98
3404.54
3429.34
3455.28
3482.22
3509.96
3538.26
3566.88
3595.49
3623.77
3651.37
3677.91
3703
3726.25
3747.28
3765.71
3781.19
3793.39
3802.04
3806.89
3807.79
3804.81
3797.8
3786.86
3772.18
3754
3732.61
3708.41
3681.8
3653.23
3623.18
3592.1
3560.43
3528.6
3496.98
3465.89
3435.62
3406.39
3378.38
3351.7
3326.44
3302.64
3280.33
3259.49
3240.07
3222.06
3205.41
3190.07
3176
3163.15
3151.47
3140.89
3131.37
3122.83
3115.24
3108.56
3102.78
3097.86
3093.8
3090.58
3088.21
3086.69
3086.04
3086.3
3087.52
3089.77
3093.12
3097.65
3103.45
3110.6
3119.21
3129.36
3141.12
3154.57
3169.77
3186.78
3205.62
3226.31
3248.84
3273.18
3299.25
3326.96
3356.18
3386.73
3418.43
3451.04
3484.29
3517.88
3551.46
3584.66
3617.05
3648.19
3677.65
3704.99
3729.87
3751.98
3771
3786.63
3798.59
3806.7
3811.02
3811.38
3807.64
3799.7
3788.12
3773.32
3755.61
3735.39
3713.02
3688.91
3663.45
3636.97
3609.81
3582.31
3554.7
3527.28
3500.24
3473.82
3448.25
3423.66
3400.22
3378.11
3357.38
3338.16
3320.5
3304.44
3290
3277.16
3265.89
3256.15
3247.86
3240.94
3235.31
3230.85
3227.49
3225.12
3223.67
3223.06
3223.26
3224.37
3226.31
3229.08
3232.75
3237.37
3243.06
3249.93
3258.08
3267.65
3278.76
3291.48
3305.93
3322.15
3340.2
3360.09
3381.77
3405.2
3430.29
3456.9
3484.88
3514.07
3544.22
3575.13
3606.47
3637.95
3669.28
3700.1
3730.03
3758.76
3785.91
3811.15
3834.1
3854.42
3871.84
3886.1
3896.97
3904.27
3907.9
3907.78
3903.83
3896.16
3884.77
3870.06
3852.4
3170.7
3189.96
3210.84
3233.26
3257.17
3282.46
3309.1
3337.01
3366.12
3396.36
3427.53
3459.45
3491.91
3524.63
3557.33
3589.63
3621.15
3651.53
3680.32
3707.05
3731.35
3752.8
3771.03
3785.78
3796.83
3804
3807.23
3806.49
3801.76
3793.21
3781.07
3765.48
3746.68
3724.98
3700.66
3674.01
3645.41
3615.18
3583.63
3551.15
3518.06
3484.71
3451.41
3418.46
3386.16
3354.77
3324.54
3295.67
3268.35
3242.7
3218.84
3196.84
3176.72
3158.5
3142.13
3127.56
3114.71
3103.47
3093.73
3085.37
3078.25
3072.13
3067
3062.9
3059.8
3057.65
3056.45
3056.18
3056.82
3058.37
3060.79
3064.03
3068.04
3072.75
3078.07
3084.06
3090.66
3098.48
3107.34
3117.32
3128.53
3141.25
3155.74
3172.14
3188.03
3203.69
3222.57
3243.59
3266.34
3290.59
3316.15
3342.81
3370.37
3398.56
3427.13
3455.78
3484.27
3512.3
3539.6
3565.86
3590.79
3614.06
3635.4
3654.52
3671.15
3685.07
3696.06
3703.93
3708.53
3709.77
3707.57
3701.89
3692.87
3680.58
3665.14
3646.78
3625.72
3602.26
3576.69
3549.34
3520.54
3490.64
3459.98
3428.9
3397.75
3366.84
3336.49
3306.96
3278.52
3251.36
3225.66
3201.55
3179.12
3158.41
3139.44
3122.2
3106.65
3092.78
3080.48
3069.71
3060.38
3052.44
3045.79
3040.37
3036.09
3032.91
3030.75
3029.55
3029.24
3029.78
3031.11
3033.18
3035.93
3039.34
3043.38
3048.01
3053.24
3059.03
3065.46
3072.44
3080.01
3088.23
3097.13
3106.78
3117.26
3128.63
3140.98
3154.38
3168.89
3184.6
3201.55
3219.8
3239.37
3260.28
3282.54
3306.11
3330.93
3356.89
3383.86
3411.63
3439.99
3468.67
3497.35
3525.71
3553.39
3580.01
3605.19
3628.53
3649.65
3668.16
3683.71
3695.97
3704.66
3709.55
3710.47
3707.47
3700.43
3689.45
3674.71
3656.44
3634.97
3610.66
3583.95
3555.29
3525.14
3493.97
3462.23
3430.33
3398.65
3367.51
3337.21
3307.96
3279.93
3253.25
3227.99
3204.2
3181.9
3161.07
3141.67
3123.67
3107.03
3091.7
3077.64
3064.81
3053.14
3042.58
3033.07
3024.54
3016.96
3010.28
3004.5
2999.59
2995.53
2992.31
2989.94
2988.41
2987.75
2988
2989.21
2991.44
2994.78
2999.29
3005.07
3012.21
3020.79
3030.92
3042.67
3056.1
3071.29
3088.29
3107.12
3127.81
3150.34
3174.69
3200.77
3228.5
3257.74
3288.33
3320.07
3352.73
3386.04
3419.69
3453.35
3486.62
3519.1
3550.34
3579.88
3607.32
3632.29
3654.49
3673.59
3689.3
3701.32
3709.49
3713.86
3714.18
3710.38
3702.44
3690.82
3675.97
3658.2
3637.9
3615.46
3591.26
3565.72
3539.16
3511.91
3484.34
3456.65
3429.16
3402.06
3375.59
3349.97
3325.34
3301.88
3279.73
3258.99
3239.76
3222.09
3206.03
3191.59
3178.75
3167.5
3157.77
3149.5
3142.6
3136.98
3132.54
3129.2
3126.84
3125.4
3124.8
3125.01
3126.11
3128.04
3130.81
3134.45
3139.06
3144.72
3151.57
3159.7
3169.24
3180.32
3193.03
3207.46
3223.67
3241.71
3261.59
3283.28
3306.72
3331.82
3358.45
3386.46
3415.68
3445.88
3476.83
3508.23
3539.77
3571.17
3602.06
3632.06
3660.87
3688.1
3713.42
3736.45
3756.84
3774.32
3788.64
3799.56
3806.89
3810.54
3810.42
3806.44
3798.74
3787.31
3772.55
3754.82
3072.26
3091.52
3112.39
3134.8
3158.7
3183.99
3210.63
3238.54
3267.67
3297.93
3329.14
3361.1
3393.63
3426.42
3459.19
3491.58
3523.2
3553.69
3582.59
3609.44
3633.83
3655.38
3673.7
3688.52
3699.61
3706.81
3710.05
3709.3
3704.55
3695.96
3683.76
3668.1
3649.22
3627.43
3603.02
3576.28
3547.59
3517.27
3485.64
3453.07
3419.9
3386.48
3353.11
3320.1
3287.74
3256.31
3226.03
3197.14
3169.78
3144.12
3120.25
3098.25
3078.14
3059.93
3043.57
3029.03
3016.21
3005
2995.3
2986.97
2979.88
2973.75
2968.65
2964.57
2961.48
2959.33
2958.13
2957.86
2958.52
2960.07
2962.5
2965.77
2969.8
2974.53
2979.87
2985.87
2992.47
3000.35
3009.23
3019.18
3030.37
3043.06
3057.56
3074
3089.17
3105.29
3124.2
3145.22
3167.98
3192.23
3217.79
3244.48
3272.06
3300.29
3328.9
3357.61
3386.15
3414.25
3441.62
3467.96
3492.96
3516.32
3537.73
3556.92
3573.63
3587.61
3598.66
3606.57
3611.21
3612.47
3610.27
3604.58
3595.53
3583.19
3567.7
3549.26
3528.13
3504.58
3478.92
3451.48
3422.59
3392.59
3361.84
3330.69
3299.46
3268.48
3238.07
3208.49
3180
3152.81
3127.1
3102.98
3080.54
3059.84
3040.88
3023.65
3008.13
2994.27
2982
2971.24
2961.94
2954.02
2947.39
2941.98
2937.73
2934.56
2932.42
2931.23
2930.94
2931.49
2932.83
2934.91
2937.67
2941.08
2945.12
2949.76
2954.99
2960.79
2967.2
2974.17
2981.73
2989.94
2998.82
3008.46
3018.91
3030.26
3042.58
3055.96
3070.46
3086.15
3103.08
3121.31
3140.87
3161.78
3184.04
3207.61
3232.45
3258.44
3285.44
3313.27
3341.69
3370.43
3399.2
3427.65
3455.43
3482.15
3507.44
3530.89
3552.11
3570.72
3586.36
3598.69
3607.44
3612.36
3613.31
3610.29
3603.21
3592.18
3577.36
3559
3537.42
3513
3486.16
3457.38
3427.11
3395.83
3364
3332.01
3300.26
3269.08
3238.74
3209.46
3181.41
3154.72
3129.47
3105.69
3083.4
3062.59
3043.21
3025.22
3008.59
2993.28
2979.24
2966.42
2954.77
2944.23
2934.73
2926.21
2918.64
2911.97
2906.19
2901.28
2897.22
2894.01
2891.63
2890.1
2889.43
2889.67
2890.86
2893.08
2896.39
2900.88
2906.63
2913.75
2922.31
2932.42
2944.15
2957.57
2972.74
2989.72
3008.55
3029.23
3051.77
3076.12
3102.22
3129.97
3159.25
3189.87
3221.66
3254.37
3287.75
3321.48
3355.22
3388.6
3421.18
3452.53
3482.19
3509.74
3534.82
3557.12
3576.33
3592.12
3604.22
3612.46
3616.86
3617.15
3613.31
3605.35
3593.69
3578.78
3560.93
3540.54
3518
3493.7
3468.06
3441.4
3414.06
3386.39
3358.61
3331.04
3303.87
3277.33
3251.65
3226.98
3203.48
3181.3
3160.54
3141.29
3123.62
3107.55
3093.12
3080.29
3069.05
3059.33
3051.08
3044.2
3038.61
3034.19
3030.86
3028.53
3027.1
3026.51
3026.72
3027.82
3029.74
3032.49
3036.12
3040.7
3046.34
3053.15
3061.26
3070.77
3081.82
3094.51
3108.91
3125.11
3143.14
3163.02
3184.71
3208.16
3233.28
3259.93
3287.97
3317.23
3347.48
3378.49
3409.95
3441.57
3473.05
3504.02
3534.12
3563.02
3590.35
3615.77
3638.89
3659.36
3676.92
3691.31
3702.28
3709.66
3713.33
3713.2
3709.21
3701.46
3689.98
3675.16
3657.36
2973.76
2993.01
3013.87
3036.28
3060.18
3085.45
3112.09
3140.01
3169.16
3199.45
3230.7
3262.72
3295.31
3328.18
3361.04
3393.54
3425.28
3455.89
3484.92
3511.9
3536.42
3558.07
3576.49
3591.39
3602.54
3609.78
3613.02
3612.26
3607.48
3598.85
3586.57
3570.83
3551.86
3529.98
3505.46
3478.62
3449.82
3419.39
3387.65
3354.99
3321.73
3288.22
3254.77
3221.69
3189.27
3157.78
3127.46
3098.52
3071.15
3045.46
3021.59
2999.58
2979.48
2961.28
2944.95
2930.43
2917.64
2906.47
2896.8
2888.51
2881.47
2875.33
2870.26
2866.2
2863.12
2860.98
2859.78
2859.51
2860.17
2861.73
2864.18
2867.48
2871.54
2876.3
2881.65
2887.64
2894.26
2902.24
2911.11
2921.04
2932.19
2944.87
2959.37
2975.9
2990.14
3006.82
3025.79
3046.81
3069.57
3093.82
3119.4
3146.1
3173.72
3201.99
3230.64
3259.41
3288.03
3316.2
3343.66
3370.09
3395.18
3418.63
3440.13
3459.41
3476.21
3490.26
3501.37
3509.34
3514.02
3515.29
3513.1
3507.41
3498.32
3485.92
3470.36
3451.85
3430.62
3406.97
3381.21
3353.65
3324.65
3294.56
3263.71
3232.45
3201.13
3170.08
3139.59
3109.95
3081.42
3054.19
3028.45
3004.32
2981.88
2961.18
2942.24
2925.03
2909.53
2895.69
2883.45
2872.72
2863.44
2855.54
2848.94
2843.56
2839.33
2836.18
2834.05
2832.88
2832.6
2833.17
2834.52
2836.61
2839.38
2842.8
2846.84
2851.48
2856.71
2862.51
2868.91
2875.87
2883.43
2891.61
2900.48
2910.09
2920.52
2931.84
2944.14
2957.49
2971.97
2987.63
3004.55
3022.76
3042.31
3063.21
3085.47
3109.05
3133.91
3159.93
3186.97
3214.86
3243.35
3272.18
3301.04
3329.6
3357.49
3384.34
3409.75
3433.32
3454.67
3473.39
3489.13
3501.55
3510.36
3515.33
3516.3
3513.26
3506.15
3495.05
3480.14
3461.66
3439.96
3415.4
3388.43
3359.5
3329.1
3297.69
3265.74
3233.66
3201.83
3170.58
3140.2
3110.89
3082.83
3056.13
3030.88
3007.12
2984.84
2964.04
2944.68
2926.72
2910.11
2894.81
2880.79
2867.99
2856.36
2845.83
2836.35
2827.84
2820.28
2813.62
2807.85
2802.94
2798.89
2795.67
2793.29
2791.75
2791.07
2791.29
2792.47
2794.66
2797.95
2802.42
2808.15
2815.23
2823.77
2833.85
2845.55
2858.95
2874.11
2891.08
2909.89
2930.57
2953.11
2977.48
3003.6
3031.37
3060.68
3091.35
3123.19
3155.98
3189.43
3223.25
3257.1
3290.58
3323.29
3354.76
3384.56
3412.24
3437.46
3459.88
3479.2
3495.1
3507.29
3515.59
3520.04
3520.31
3516.43
3508.43
3496.73
3481.74
3463.79
3443.3
3420.65
3396.23
3370.47
3343.7
3316.24
3288.47
3260.58
3232.92
3205.66
3179.04
3153.3
3128.58
3105.03
3082.82
3062.03
3042.76
3025.08
3009.01
2994.58
2981.76
2970.53
2960.84
2952.61
2945.76
2940.19
2935.8
2932.49
2930.17
2928.76
2928.18
2928.4
2929.5
2931.41
2934.14
2937.75
2942.3
2947.91
2954.69
2962.76
2972.24
2983.26
2995.91
3010.29
3026.47
3044.49
3064.36
3086.05
3109.52
3134.66
3161.34
3189.42
3218.72
3249.03
3280.11
3311.65
3343.35
3374.93
3406
3436.2
3465.22
3492.66
3518.19
3541.41
3561.99
3579.64
3594.11
3605.14
3612.57
3616.26
3616.14
3612.12
3604.32
3592.79
3577.89
3559.99
2875.21
2894.45
2915.3
2937.7
2961.59
2986.86
3013.49
3041.42
3070.59
3100.91
3132.21
3164.29
3196.96
3229.92
3262.88
3295.5
3327.37
3358.14
3387.32
3414.44
3439.1
3460.89
3479.42
3494.4
3505.62
3512.9
3516.15
3515.37
3510.57
3501.88
3489.52
3473.69
3454.62
3432.62
3407.98
3381.01
3352.09
3321.54
3289.69
3256.91
3223.55
3189.94
3156.4
3123.24
3090.74
3059.2
3028.82
2999.84
2972.43
2946.72
2922.83
2900.83
2880.73
2862.55
2846.24
2831.76
2819
2807.87
2798.25
2790.01
2783.01
2776.86
2771.83
2767.79
2764.73
2762.59
2761.39
2761.12
2761.79
2763.36
2765.83
2769.16
2773.25
2778.04
2783.42
2789.38
2796.04
2804.12
2812.99
2822.89
2834.01
2846.66
2861.16
2877.56
2891.23
2908.3
2927.33
2948.36
2971.11
2995.37
3020.96
3047.69
3075.34
3103.66
3132.37
3161.21
3189.9
3218.17
3245.72
3272.25
3297.44
3321
3342.61
3361.99
3378.87
3393.02
3404.2
3412.23
3416.95
3418.25
3416.06
3410.36
3401.23
3388.78
3373.14
3354.53
3333.2
3309.43
3283.54
3255.87
3226.75
3196.53
3165.56
3134.2
3102.78
3071.63
3041.06
3011.35
2982.76
2955.5
2929.73
2905.59
2883.15
2862.45
2843.52
2826.34
2810.86
2797.05
2784.83
2774.14
2764.89
2757.02
2750.44
2745.09
2740.88
2737.75
2735.64
2734.49
2734.23
2734.81
2736.18
2738.28
2741.06
2744.49
2748.54
2753.18
2758.41
2764.21
2770.6
2777.55
2785.09
2793.26
2802.1
2811.69
2822.09
2833.38
2845.65
2858.97
2873.42
2889.06
2905.95
2924.14
2943.68
2964.57
2986.83
3010.42
3035.3
3061.36
3088.45
3116.4
3144.98
3173.9
3202.87
3231.55
3259.58
3286.56
3312.12
3335.84
3357.32
3376.17
3392.03
3404.55
3413.43
3418.45
3419.45
3416.39
3409.23
3398.06
3383.04
3364.44
3342.59
3317.88
3290.74
3261.65
3231.1
3199.55
3167.47
3135.28
3103.35
3072.03
3041.59
3012.25
2984.17
2957.47
2932.22
2908.47
2886.21
2865.43
2846.1
2828.15
2811.56
2796.29
2782.29
2769.51
2757.9
2747.39
2737.93
2729.44
2721.89
2715.24
2709.47
2704.57
2700.51
2697.3
2694.91
2693.37
2692.68
2692.88
2694.04
2696.21
2699.47
2703.91
2709.6
2716.66
2725.17
2735.22
2746.89
2760.27
2775.4
2792.35
2811.16
2831.83
2854.38
2878.75
2904.89
2932.7
2962.05
2992.77
3024.68
3057.53
3091.08
3125
3158.97
3192.58
3225.43
3257.05
3287
3314.83
3340.2
3362.77
3382.22
3398.24
3410.52
3418.91
3423.4
3423.65
3419.73
3411.69
3399.92
3384.85
3366.8
3346.19
3323.4
3298.85
3272.96
3246.05
3218.47
3190.56
3162.56
3134.79
3107.43
3080.73
3054.91
3030.13
3006.53
2984.28
2963.46
2944.17
2926.48
2910.41
2895.98
2883.17
2871.96
2862.29
2854.09
2847.27
2841.73
2837.37
2834.08
2831.79
2830.39
2829.83
2830.05
2831.15
2833.05
2835.76
2839.34
2843.86
2849.43
2856.17
2864.2
2873.64
2884.62
2897.24
2911.6
2927.75
2945.75
2965.62
2987.32
3010.8
3035.96
3062.68
3090.8
3120.16
3150.53
3181.68
3213.32
3245.11
3276.8
3307.99
3338.31
3367.45
3395.03
3420.68
3444.03
3464.72
3482.48
3497.04
3508.14
3515.62
3519.34
3519.22
3515.18
3507.32
3495.72
3480.73
3462.73
2776.61
2795.82
2816.66
2839.06
2862.94
2888.2
2914.83
2942.77
2971.96
3002.32
3033.67
3065.82
3098.57
3131.63
3164.72
3197.47
3229.49
3260.42
3289.77
3317.06
3341.88
3363.81
3382.47
3397.56
3408.84
3416.17
3419.44
3418.65
3413.8
3405.05
3392.6
3376.66
3357.47
3335.35
3310.57
3283.47
3254.41
3223.72
3191.74
3158.83
3125.35
3091.63
3058
3024.74
2992.16
2960.55
2930.11
2901.08
2873.63
2847.9
2824
2801.99
2781.91
2763.74
2747.47
2733.01
2720.3
2709.22
2699.64
2691.46
2684.52
2678.34
2673.35
2669.35
2666.3
2664.16
2662.97
2662.7
2663.37
2664.96
2667.45
2670.81
2674.94
2679.77
2685.17
2691.07
2697.86
2706.01
2714.87
2724.74
2735.81
2748.45
2762.93
2778.84
2792.55
2809.74
2828.83
2849.86
2872.61
2896.88
2922.49
2949.24
2976.92
3005.29
3034.07
3062.99
3091.77
3120.13
3147.79
3174.44
3199.75
3223.43
3245.15
3264.65
3281.64
3295.88
3307.15
3315.25
3320.02
3321.35
3319.16
3313.44
3304.27
3291.75
3276.02
3257.31
3235.85
3211.96
3185.94
3158.12
3128.86
3098.51
3067.41
3035.92
3004.39
2973.13
2942.47
2912.69
2884.03
2856.72
2830.93
2806.77
2784.33
2763.65
2744.73
2727.57
2712.12
2698.34
2686.15
2675.49
2666.28
2658.44
2651.89
2646.57
2642.39
2639.28
2637.2
2636.06
2635.83
2636.43
2637.81
2639.92
2642.72
2646.15
2650.21
2654.85
2660.08
2665.88
2672.26
2679.2
2686.73
2694.88
2703.69
2713.25
2723.61
2734.87
2747.11
2760.4
2774.82
2790.43
2807.29
2825.46
2844.98
2865.86
2888.12
2911.73
2936.63
2962.72
2989.88
3017.9
3046.57
3075.6
3104.69
3133.51
3161.68
3188.83
3214.54
3238.42
3260.06
3279.07
3295.06
3307.69
3316.66
3321.73
3322.76
3319.68
3312.47
3301.21
3286.08
3267.33
3245.32
3220.43
3193.11
3163.84
3133.1
3101.39
3069.17
3036.85
3004.82
2973.42
2942.92
2913.55
2885.45
2858.74
2833.5
2809.76
2787.52
2766.76
2747.45
2729.53
2712.97
2697.71
2683.74
2670.98
2659.4
2648.92
2639.47
2631
2623.46
2616.82
2611.06
2606.16
2602.11
2598.9
2596.51
2594.95
2594.25
2594.43
2595.57
2597.71
2600.94
2605.34
2611.01
2618.03
2626.5
2636.52
2648.16
2661.51
2676.62
2693.55
2712.34
2733.01
2755.56
2779.95
2806.11
2833.95
2863.34
2894.13
2926.1
2959.05
2992.69
3026.74
3060.83
3094.59
3127.59
3159.39
3189.5
3217.51
3243.05
3265.78
3285.38
3301.53
3313.93
3322.4
3326.94
3327.18
3323.22
3315.13
3303.29
3288.11
3269.94
3249.2
3226.27
3201.57
3175.53
3148.47
3120.73
3092.69
3064.55
3036.66
3009.19
2982.38
2956.49
2931.63
2907.97
2885.68
2864.83
2845.51
2827.81
2811.74
2797.31
2784.52
2773.33
2763.69
2755.51
2748.72
2743.22
2738.89
2735.64
2733.37
2731.99
2731.44
2731.67
2732.77
2734.65
2737.35
2740.89
2745.38
2750.91
2757.6
2765.58
2774.98
2785.92
2798.5
2812.83
2828.95
2846.94
2866.8
2888.51
2912
2937.19
2963.94
2992.11
3021.53
3051.98
3083.22
3114.95
3146.86
3178.67
3209.99
3240.45
3269.73
3297.45
3323.25
3346.74
3367.56
3385.43
3400.09
3411.28
3418.82
3422.57
3422.46
3418.38
3410.47
3398.79
3383.7
3365.58
2677.94
2697.14
2717.97
2740.36
2764.22
2789.48
2816.11
2844.05
2873.26
2903.67
2935.08
2967.31
3000.16
3033.33
3066.54
3099.44
3131.64
3162.74
3192.28
3219.76
3244.76
3266.86
3285.65
3300.85
3312.22
3319.6
3322.89
3322.07
3317.19
3308.36
3295.81
3279.76
3260.44
3238.17
3213.24
3185.98
3156.77
3125.94
3093.8
3060.76
3027.15
2993.3
2959.56
2926.19
2893.53
2861.83
2831.33
2802.25
2774.76
2749
2725.09
2703.07
2683
2664.86
2648.61
2634.2
2621.53
2610.5
2600.98
2592.86
2586
2579.76
2574.84
2570.87
2567.83
2565.7
2564.51
2564.24
2564.92
2566.52
2569.04
2572.43
2576.61
2581.47
2586.9
2592.76
2599.74
2607.91
2616.76
2626.59
2637.61
2650.23
2664.71
2679.9
2693.92
2711.15
2730.28
2751.31
2774.07
2798.34
2823.96
2850.75
2878.47
2906.9
2935.75
2964.75
2993.63
3022.11
3049.89
3076.66
3102.11
3125.91
3147.77
3167.39
3184.5
3198.85
3210.21
3218.39
3223.21
3224.58
3222.39
3216.66
3207.44
3194.84
3179.02
3160.18
3138.6
3114.56
3088.38
3060.42
3031
3000.5
2969.25
2937.63
2905.96
2874.59
2843.82
2813.96
2785.24
2757.88
2732.05
2707.87
2685.43