/*--------------------------------*- C++ -*----------------------------------*\
| =========                 |                                                 |
| \\      /  F ield         | OpenFOAM: The Open Source CFD Toolbox           |
|  \\    /   O peration     | Version:  3.0.1                                 |
|   \\  /    A nd           | Web:      www.OpenFOAM.org                      |
|    \\/     M anipulation  |                                                 |
\*---------------------------------------------------------------------------*/
FoamFile
{
    version     2.0;
    format      ascii;
    class       volVectorField;
    location    "9";
    object      U;
}
// * * * * * * * * * * * * * * * * * * * * * * * * * * * * * * * * * * * * * //

dimensions      [0 1 -1 0 0 0 0];

internalField   nonuniform List<vector> 
21420
(
(0.0725509 -0.0018681 0)
(0.0885112 -0.00187187 0)
(0.107016 -0.00181647 0)
(0.124989 -0.00173618 0)
(0.142158 -0.00166267 0)
(0.158263 -0.00153242 0)
(0.173039 -0.00140197 0)
(0.186236 -0.00122471 0)
(0.197617 -0.00102904 0)
(0.206975 -0.000824616 0)
(0.214139 -0.000596742 0)
(0.218993 -0.000359097 0)
(0.221453 -0.000116511 0)
(0.221452 0.000124667 0)
(0.218964 0.000368031 0)
(0.213968 0.00060942 0)
(0.206678 0.000840207 0)
(0.197187 0.00104011 0)
(0.185676 0.00123598 0)
(0.172349 0.00141569 0)
(0.157449 0.00154084 0)
(0.14124 0.00166858 0)
(0.12397 0.00177297 0)
(0.105906 0.00181443 0)
(0.0873065 0.00186443 0)
(0.0684072 0.00185678 0)
(0.0493999 0.00185934 0)
(0.0304091 0.00183961 0)
(0.0119675 0.00177057 0)
(-0.0054394 0.00172799 0)
(-0.0221894 0.00166415 0)
(-0.0384209 0.00157514 0)
(-0.0538732 0.00149713 0)
(-0.0684797 0.00140244 0)
(-0.082211 0.00131883 0)
(-0.0950531 0.00123236 0)
(-0.107 0.00113883 0)
(-0.118061 0.0010537 0)
(-0.128241 0.000967556 0)
(-0.137542 0.000878081 0)
(-0.145977 0.000793116 0)
(-0.153551 0.000705574 0)
(-0.160266 0.000620822 0)
(-0.166129 0.000535771 0)
(-0.17115 0.000450718 0)
(-0.175331 0.000367533 0)
(-0.178678 0.000283245 0)
(-0.181209 0.00019863 0)
(-0.182887 0.000119425 0)
(-0.183744 4.08125e-05 0)
(-0.183816 -4.52001e-05 0)
(-0.183044 -0.000125037 0)
(-0.181432 -0.000211424 0)
(-0.179006 -0.000288632 0)
(-0.175729 -0.000372093 0)
(-0.171559 -0.000462884 0)
(-0.166533 -0.000541059 0)
(-0.160645 -0.000624818 0)
(-0.153833 -0.000720175 0)
(-0.146125 -0.000798923 0)
(-0.137532 -0.000898455 0)
(-0.128071 -0.000978521 0)
(-0.117828 -0.00104872 0)
(-0.106759 -0.00113657 0)
(-0.0948743 -0.00120858 0)
(-0.0822843 -0.00126853 0)
(-0.0690316 -0.00134464 0)
(-0.0551615 -0.00139847 0)
(-0.0407326 -0.00146169 0)
(-0.0257272 -0.00151469 0)
(-0.0102235 -0.00155396 0)
(0.00570038 -0.00159331 0)
(0.0219505 -0.00162673 0)
(0.0384414 -0.0016429 0)
(0.0550998 -0.00166045 0)
(0.0718147 -0.00166277 0)
(0.0884817 -0.00165577 0)
(0.105004 -0.00163258 0)
(0.121211 -0.00158869 0)
(0.136908 -0.00153092 0)
(0.151904 -0.001446 0)
(0.165928 -0.00133352 0)
(0.1787 -0.00120074 0)
(0.189969 -0.00103992 0)
(0.199497 -0.000847022 0)
(0.206999 -0.000639919 0)
(0.212275 -0.000411572 0)
(0.215156 -0.000168283 0)
(0.215537 7.81525e-05 0)
(0.213391 0.000339139 0)
(0.208652 0.000593492 0)
(0.201458 0.000830312 0)
(0.191924 0.00105531 0)
(0.180254 0.00125614 0)
(0.166708 0.00143168 0)
(0.15149 0.00158227 0)
(0.134939 0.00169652 0)
(0.117389 0.00178089 0)
(0.0991438 0.00183514 0)
(0.08053 0.00185476 0)
(0.0618781 0.00184345 0)
(0.0434855 0.00180834 0)
(0.0255502 0.00174593 0)
(0.00834235 0.00166776 0)
(-0.00796671 0.00157487 0)
(-0.0232939 0.00146888 0)
(-0.0375203 0.00135641 0)
(-0.0506088 0.00124142 0)
(-0.0625429 0.0011263 0)
(-0.0733411 0.00101541 0)
(-0.0830198 0.000906705 0)
(-0.0916219 0.000804096 0)
(-0.0992328 0.00070538 0)
(-0.105888 0.000614506 0)
(-0.111644 0.000527856 0)
(-0.116556 0.000448262 0)
(-0.120675 0.00037254 0)
(-0.124064 0.000301099 0)
(-0.126754 0.000230423 0)
(-0.128768 0.000168082 0)
(-0.130144 0.000106293 0)
(-0.130903 4.87212e-05 0)
(-0.131103 -1.09299e-05 0)
(-0.130726 -6.60292e-05 0)
(-0.129763 -0.000120103 0)
(-0.128244 -0.000178343 0)
(-0.126185 -0.000231664 0)
(-0.123542 -0.000289103 0)
(-0.120339 -0.000346099 0)
(-0.116558 -0.000404566 0)
(-0.112187 -0.000463277 0)
(-0.107215 -0.00052351 0)
(-0.101637 -0.000584755 0)
(-0.0954482 -0.000645978 0)
(-0.0886216 -0.000705594 0)
(-0.0811656 -0.000769399 0)
(-0.0730967 -0.00083077 0)
(-0.0644232 -0.000888448 0)
(-0.0551648 -0.000946515 0)
(-0.045333 -0.00100224 0)
(-0.0349786 -0.00105215 0)
(-0.0241614 -0.0010975 0)
(-0.0129182 -0.00113244 0)
(-0.00132365 -0.00116636 0)
(0.0105264 -0.00118517 0)
(0.0225722 -0.00119847 0)
(0.0346833 -0.0012002 0)
(0.0467519 -0.00119244 0)
(0.0586684 -0.00117122 0)
(0.0703029 -0.00113666 0)
(0.0815292 -0.00108923 0)
(0.0922137 -0.00102842 0)
(0.102219 -0.000955262 0)
(0.11142 -0.000869507 0)
(0.119705 -0.000770775 0)
(0.126937 -0.000665063 0)
(0.133043 -0.000549264 0)
(0.137951 -0.000421252 0)
(0.141573 -0.000292775 0)
(0.143861 -0.000160812 0)
(0.1448 -2.80947e-05 0)
(0.144431 0.000103066 0)
(0.1427 0.000233812 0)
(0.139713 0.000356836 0)
(0.135532 0.000472322 0)
(0.130225 0.000578526 0)
(0.123903 0.000674124 0)
(0.116678 0.00075753 0)
(0.108678 0.000828492 0)
(0.100034 0.000884961 0)
(0.09088 0.000928903 0)
(0.0813629 0.000958463 0)
(0.0716109 0.000974487 0)
(0.0617613 0.000978595 0)
(0.0519349 0.00097028 0)
(0.04224 0.000951713 0)
(0.032784 0.000923586 0)
(0.0236559 0.00088702 0)
(0.0149269 0.000843437 0)
(0.00666547 0.000794353 0)
(-0.00104918 0.000739498 0)
(-0.00820011 0.000683525 0)
(-0.0147873 0.000623698 0)
(-0.0207625 0.000562243 0)
(-0.0261153 0.000500216 0)
(-0.0308423 0.000438185 0)
(-0.0349445 0.000376354 0)
(-0.0384335 0.000316028 0)
(-0.0413218 0.000257431 0)
(-0.0436284 0.000200446 0)
(-0.0453745 0.000145889 0)
(-0.046582 9.37179e-05 0)
(-0.047276 4.49281e-05 0)
(-0.0474945 -1.74407e-06 0)
(-0.0472536 -4.52836e-05 0)
(-0.0465835 -8.61188e-05 0)
(-0.0455246 -0.00012435 0)
(-0.0441011 -0.000158941 0)
(-0.042334 -0.000191057 0)
(-0.040262 -0.000220405 0)
(-0.0379086 -0.000246213 0)
(-0.0353051 -0.000269633 0)
(-0.0324841 -0.000290196 0)
(-0.0294647 -0.000307342 0)
(-0.0262868 -0.000322591 0)
(-0.0229798 -0.000334507 0)
(-0.0195608 -0.000343932 0)
(-0.0160606 -0.000350283 0)
(-0.0125058 -0.000354299 0)
(-0.00892564 -0.000356038 0)
(-0.00534163 -0.000354703 0)
(-0.0017797 -0.000351387 0)
(0.00173507 -0.000345804 0)
(0.00518249 -0.000338171 0)
(0.00854255 -0.000328372 0)
(0.0117965 -0.000316587 0)
(0.0149227 -0.000303288 0)
(0.0179055 -0.000288314 0)
(0.0207306 -0.00027199 0)
(0.0233837 -0.000254372 0)
(0.0258537 -0.000235821 0)
(0.0281324 -0.00021602 0)
(0.0302104 -0.000195807 0)
(0.0320802 -0.000175067 0)
(0.0337392 -0.000153939 0)
(0.0351836 -0.000132893 0)
(0.0364151 -0.00011137 0)
(0.0374339 -9.04249e-05 0)
(0.0382415 -6.99336e-05 0)
(0.0388447 -4.96466e-05 0)
(0.0392477 -3.02392e-05 0)
(0.0394579 -1.16071e-05 0)
(0.0394853 5.94377e-06 0)
(0.0393398 2.29395e-05 0)
(0.0390278 3.85221e-05 0)
(0.0385646 5.33003e-05 0)
(0.0379607 6.6727e-05 0)
(0.0372255 7.88504e-05 0)
(0.0363741 9.00569e-05 0)
(0.0354168 9.98311e-05 0)
(0.0343663 0.000108281 0)
(0.0332367 0.000115808 0)
(0.0320378 0.000121759 0)
(0.0307838 0.000126959 0)
(0.029485 0.00013065 0)
(0.0281527 0.000133506 0)
(0.0267986 0.000135249 0)
(0.0254304 0.000135934 0)
(0.0240597 0.000135979 0)
(0.022693 0.00013491 0)
(0.0213399 0.000133459 0)
(0.0200064 0.00013099 0)
(0.0186994 0.000128227 0)
(0.0174243 0.000124679 0)
(0.0161857 0.000120936 0)
(0.0149884 0.000116642 0)
(0.0138351 0.00011206 0)
(0.0127296 0.000107295 0)
(0.0116726 0.000102173 0)
(0.0106675 9.72244e-05 0)
(0.00971408 9.19028e-05 0)
(0.00881377 8.66422e-05 0)
(0.00796716 8.14059e-05 0)
(0.00717223 7.60893e-05 0)
(0.00643067 7.1031e-05 0)
(0.00574107 6.59288e-05 0)
(0.00510079 6.09158e-05 0)
(0.00451053 5.61938e-05 0)
(0.00396824 5.15469e-05 0)
(0.00347117 4.7066e-05 0)
(0.00301805 4.2734e-05 0)
(0.00260753 3.87348e-05 0)
(0.00223724 3.48737e-05 0)
(0.00190444 3.12049e-05 0)
(0.00160743 2.77595e-05 0)
(0.001344 2.45329e-05 0)
(0.00111201 2.15257e-05 0)
(0.00090929 1.87344e-05 0)
(0.000733728 1.61508e-05 0)
(0.000583221 1.37677e-05 0)
(0.00045571 1.1578e-05 0)
(0.000348976 9.57586e-06 0)
(0.000261552 7.82096e-06 0)
(0.000191435 6.15494e-06 0)
(0.000136787 4.71694e-06 0)
(9.61613e-05 3.40647e-06 0)
(6.79042e-05 2.25506e-06 0)
(5.05219e-05 1.24736e-06 0)
(4.23402e-05 3.74724e-07 0)
(4.23187e-05 -3.81574e-07 0)
(4.93355e-05 -1.02476e-06 0)
(6.23111e-05 -1.56623e-06 0)
(8.02609e-05 -2.01502e-06 0)
(0.00010229 -2.37878e-06 0)
(0.000127583 -2.66475e-06 0)
(0.000155397 -2.88057e-06 0)
(0.00018506 -3.03279e-06 0)
(0.00021597 -3.12814e-06 0)
(0.000247588 -3.17298e-06 0)
(0.000279437 -3.17323e-06 0)
(0.000311098 -3.13461e-06 0)
(0.000342207 -3.06213e-06 0)
(0.000372447 -2.96066e-06 0)
(0.00040155 -2.83469e-06 0)
(0.000429289 -2.68828e-06 0)
(0.00045548 -2.52524e-06 0)
(0.000479971 -2.34907e-06 0)
(0.000502645 -2.16286e-06 0)
(0.000523416 -1.96943e-06 0)
(0.000542223 -1.77127e-06 0)
(0.000559031 -1.57064e-06 0)
(0.000573823 -1.36952e-06 0)
(0.000586605 -1.16964e-06 0)
(0.000597398 -9.72536e-07 0)
(0.000606238 -7.79518e-07 0)
(0.000613176 -5.91649e-07 0)
(0.00061828 -4.09437e-07 0)
(0.000621628 -2.34708e-07 0)
(0.000623319 -6.80517e-08 0)
(0.000623334 9.00541e-08 0)
(0.000621707 2.39177e-07 0)
(0.000618602 3.79457e-07 0)
(0.000614117 5.10811e-07 0)
(0.000608347 6.33116e-07 0)
(0.000601385 7.46245e-07 0)
(0.000593327 8.50148e-07 0)
(0.000584266 9.44828e-07 0)
(0.000574295 1.03036e-06 0)
(0.000563506 1.10694e-06 0)
(0.000551989 1.17478e-06 0)
(0.000539831 1.23414e-06 0)
(0.000527115 1.28537e-06 0)
(0.000513923 1.3288e-06 0)
(0.000500332 1.36475e-06 0)
(0.000486415 1.39363e-06 0)
(0.000472241 1.4158e-06 0)
(0.000457876 1.43169e-06 0)
(0.000443382 1.4417e-06 0)
(0.000428815 1.44623e-06 0)
(0.000414228 1.44574e-06 0)
(0.000399671 1.44063e-06 0)
(0.000385187 1.43128e-06 0)
(0.000370818 1.41809e-06 0)
(0.000356599 1.40141e-06 0)
(0.000342565 1.38163e-06 0)
(0.000328745 1.35905e-06 0)
(0.000315166 1.33398e-06 0)
(0.00030185 1.30677e-06 0)
(0.000288819 1.27768e-06 0)
(0.000276089 1.24698e-06 0)
(0.000263675 1.21494e-06 0)
(0.000251591 1.18179e-06 0)
(0.000239845 1.14775e-06 0)
(0.000228445 1.113e-06 0)
(0.000217399 1.07768e-06 0)
(0.000206712 1.04198e-06 0)
(0.0001947 1.00601e-06 0)
(0.0725544 -0.00560513 0)
(0.0885223 -0.00561656 0)
(0.107036 -0.00545042 0)
(0.125019 -0.00520958 0)
(0.142199 -0.00498908 0)
(0.158314 -0.00459829 0)
(0.173101 -0.00420693 0)
(0.186307 -0.00367506 0)
(0.197695 -0.00308793 0)
(0.207061 -0.00247455 0)
(0.21423 -0.00179075 0)
(0.219087 -0.00107738 0)
(0.221552 -0.000349793 0)
(0.221554 0.000373434 0)
(0.219056 0.00110455 0)
(0.214061 0.00182858 0)
(0.206767 0.00252113 0)
(0.197267 0.00312095 0)
(0.185749 0.00370873 0)
(0.172415 0.004248 0)
(0.157503 0.00462347 0)
(0.141284 0.00500678 0)
(0.124004 0.00532 0)
(0.105929 0.00544433 0)
(0.0873203 0.00559427 0)
(0.0684121 0.00557121 0)
(0.0493962 0.00557883 0)
(0.0303966 0.00551955 0)
(0.0119512 0.00531213 0)
(-0.00545927 0.00518447 0)
(-0.0222147 0.00499287 0)
(-0.0384485 0.00472567 0)
(-0.0539028 0.00449157 0)
(-0.06851 0.00420739 0)
(-0.0822423 0.00395646 0)
(-0.0950847 0.00369722 0)
(-0.107031 0.00341665 0)
(-0.118092 0.00316117 0)
(-0.128272 0.00290274 0)
(-0.137574 0.0026343 0)
(-0.146009 0.00237921 0)
(-0.153583 0.00211671 0)
(-0.160298 0.00186249 0)
(-0.166161 0.00160781 0)
(-0.171182 0.00135302 0)
(-0.175365 0.00110235 0)
(-0.178712 0.000848987 0)
(-0.181243 0.000595967 0)
(-0.182926 0.000358398 0)
(-0.183781 0.000125432 0)
(-0.183855 -0.000134894 0)
(-0.183084 -0.000375215 0)
(-0.181475 -0.000634023 0)
(-0.17905 -0.000865687 0)
(-0.175776 -0.001116 0)
(-0.171609 -0.00138845 0)
(-0.166585 -0.00162298 0)
(-0.160699 -0.00187422 0)
(-0.153889 -0.00216117 0)
(-0.146183 -0.00239738 0)
(-0.137591 -0.00269444 0)
(-0.128129 -0.0029353 0)
(-0.117885 -0.00314694 0)
(-0.106816 -0.00341028 0)
(-0.0949293 -0.00362629 0)
(-0.0823369 -0.00380635 0)
(-0.0690813 -0.0040348 0)
(-0.0552063 -0.00419554 0)
(-0.040774 -0.00438645 0)
(-0.0257653 -0.00454597 0)
(-0.01025 -0.00465988 0)
(0.00566999 -0.00478538 0)
(0.0219286 -0.00488401 0)
(0.0384259 -0.00493477 0)
(0.0550976 -0.00498083 0)
(0.0718226 -0.00498314 0)
(0.0884968 -0.00496318 0)
(0.105025 -0.00489878 0)
(0.121239 -0.00476895 0)
(0.136949 -0.00459536 0)
(0.151957 -0.00433913 0)
(0.165988 -0.0040073 0)
(0.178774 -0.00360515 0)
(0.190059 -0.00311718 0)
(0.19958 -0.00255768 0)
(0.207106 -0.00191683 0)
(0.21239 -0.00122614 0)
(0.215271 -0.000503546 0)
(0.215649 0.000226353 0)
(0.213496 0.00101907 0)
(0.20876 0.0017843 0)
(0.201557 0.00249215 0)
(0.192016 0.0031612 0)
(0.180344 0.00377597 0)
(0.166777 0.00429613 0)
(0.151545 0.00474561 0)
(0.134981 0.00509246 0)
(0.117415 0.005346 0)
(0.0991514 0.00550132 0)
(0.0805289 0.00556342 0)
(0.0618681 0.00553792 0)
(0.043458 0.00542616 0)
(0.025516 0.00523891 0)
(0.00829593 0.0050051 0)
(-0.00802136 0.00472266 0)
(-0.0233499 0.00440572 0)
(-0.0375802 0.00407069 0)
(-0.0506688 0.00372386 0)
(-0.0626074 0.00338012 0)
(-0.0734018 0.00304137 0)
(-0.083073 0.0027257 0)
(-0.0916819 0.00241115 0)
(-0.0992869 0.00211331 0)
(-0.105941 0.00184518 0)
(-0.111696 0.00158291 0)
(-0.116604 0.0013455 0)
(-0.120725 0.00111496 0)
(-0.124111 0.000897525 0)
(-0.126792 0.000696439 0)
(-0.128812 0.00050484 0)
(-0.130185 0.000318618 0)
(-0.130943 0.000145657 0)
(-0.131142 -3.33887e-05 0)
(-0.130764 -0.000198815 0)
(-0.129804 -0.000364336 0)
(-0.128283 -0.000538994 0)
(-0.126222 -0.000695406 0)
(-0.123579 -0.000867095 0)
(-0.120375 -0.00103689 0)
(-0.116594 -0.00121217 0)
(-0.112222 -0.0013883 0)
(-0.107251 -0.00157026 0)
(-0.101671 -0.00175349 0)
(-0.0954821 -0.00193869 0)
(-0.0886552 -0.00211675 0)
(-0.0811991 -0.00230944 0)
(-0.0731275 -0.00249276 0)
(-0.0644558 -0.00266988 0)
(-0.0551951 -0.00284362 0)
(-0.0453546 -0.00300285 0)
(-0.0349987 -0.00315523 0)
(-0.024179 -0.00329243 0)
(-0.0129318 -0.00339929 0)
(-0.00133286 -0.00350092 0)
(0.0105251 -0.003556 0)
(0.0225729 -0.00359858 0)
(0.0346878 -0.00360614 0)
(0.0467683 -0.00357641 0)
(0.0586924 -0.0035112 0)
(0.0703323 -0.00341021 0)
(0.0815648 -0.00326938 0)
(0.0922565 -0.00308679 0)
(0.102269 -0.00286741 0)
(0.111477 -0.00260976 0)
(0.119764 -0.00231668 0)
(0.127005 -0.00199427 0)
(0.133115 -0.00164531 0)
(0.138026 -0.00126541 0)
(0.141649 -0.000879601 0)
(0.143939 -0.000483157 0)
(0.144879 -8.54223e-05 0)
(0.144506 0.000309128 0)
(0.142773 0.000701776 0)
(0.139785 0.00107081 0)
(0.135599 0.00141772 0)
(0.130287 0.00173584 0)
(0.12396 0.00202345 0)
(0.116728 0.00227354 0)
(0.108722 0.00248678 0)
(0.10007 0.00265618 0)
(0.0909089 0.00278716 0)
(0.0813851 0.00287595 0)
(0.0716269 0.00292465 0)
(0.0617703 0.00293641 0)
(0.0519384 0.00291199 0)
(0.0422373 0.00285577 0)
(0.0327768 0.0027717 0)
(0.0236437 0.00266168 0)
(0.014911 0.00253087 0)
(0.00664584 0.00238355 0)
(-0.00107082 0.00221964 0)
(-0.00822417 0.00205135 0)
(-0.0148135 0.00187147 0)
(-0.0207905 0.00168698 0)
(-0.0261448 0.0015002 0)
(-0.0308718 0.00131435 0)
(-0.034974 0.0011294 0)
(-0.0384632 0.000948142 0)
(-0.0413512 0.00077214 0)
(-0.043657 0.000601463 0)
(-0.0454026 0.000437667 0)
(-0.0466095 0.000281135 0)
(-0.0473024 0.000134675 0)
(-0.0475195 -5.14374e-06 0)
(-0.0472776 -0.000136259 0)
(-0.046606 -0.000258313 0)
(-0.0455458 -0.000373262 0)
(-0.044121 -0.000477061 0)
(-0.0423525 -0.000573414 0)
(-0.0402789 -0.000661444 0)
(-0.037924 -0.000738904 0)
(-0.035319 -0.000809182 0)
(-0.0324963 -0.000870845 0)
(-0.0294754 -0.000922253 0)
(-0.0262959 -0.000968128 0)
(-0.0229873 -0.00100384 0)
(-0.0195666 -0.0010321 0)
(-0.0160648 -0.00105114 0)
(-0.0125084 -0.00106321 0)
(-0.00892667 -0.00106843 0)
(-0.00534106 -0.0010644 0)
(-0.00177771 -0.00105444 0)
(0.00173842 -0.00103774 0)
(0.00518718 -0.00101494 0)
(0.00854875 -0.000985303 0)
(0.0118039 -0.000949993 0)
(0.0149313 -0.000910072 0)
(0.0179152 -0.00086512 0)
(0.0207413 -0.000816084 0)
(0.0233953 -0.000763244 0)
(0.0258661 -0.000707595 0)
(0.0281455 -0.000648146 0)
(0.0302241 -0.000587471 0)
(0.0320944 -0.000525297 0)
(0.0337537 -0.000461914 0)
(0.0351983 -0.000398769 0)
(0.0364301 -0.000334164 0)
(0.0374488 -0.00027133 0)
(0.0382565 -0.000209805 0)
(0.0388595 -0.000148969 0)
(0.0392623 -9.07238e-05 0)
(0.0394722 -3.48178e-05 0)
(0.0394992 1.78368e-05 0)
(0.0393531 6.88637e-05 0)
(0.0390407 0.000115618 0)
(0.038577 0.000159987 0)
(0.0379725 0.000200259 0)
(0.0372367 0.000236661 0)
(0.0363847 0.000270259 0)
(0.0354266 0.00029959 0)
(0.0343755 0.000324974 0)
(0.0332453 0.000347519 0)
(0.0320456 0.00036538 0)
(0.030791 0.000381 0)
(0.0294914 0.000392022 0)
(0.0281585 0.00040067 0)
(0.0268037 0.000405852 0)
(0.025435 0.000407928 0)
(0.0240637 0.00040803 0)
(0.0226964 0.000404826 0)
(0.0213429 0.000400482 0)
(0.0200089 0.000393058 0)
(0.0187015 0.000384775 0)
(0.0174259 0.000374116 0)
(0.016187 0.000362892 0)
(0.0149893 0.000349977 0)
(0.0138357 0.000336273 0)
(0.0127299 0.000321946 0)
(0.0116726 0.00030661 0)
(0.0106674 0.000291697 0)
(0.00971368 0.00027573 0)
(0.00881323 0.000260003 0)
(0.00796646 0.000244255 0)
(0.00717142 0.000228303 0)
(0.00642978 0.000213132 0)
(0.00574007 0.000197814 0)
(0.00509976 0.00018277 0)
(0.00450946 0.000168614 0)
(0.00396712 0.000154656 0)
(0.00347003 0.000141212 0)
(0.00301693 0.000128218 0)
(0.00260643 0.000116227 0)
(0.00223613 0.000104624 0)
(0.00190336 9.3621e-05 0)
(0.00160638 8.3283e-05 0)
(0.00134299 7.36013e-05 0)
(0.00111105 6.45785e-05 0)
(0.000908369 5.62053e-05 0)
(0.000732854 4.84553e-05 0)
(0.000582395 4.1305e-05 0)
(0.000454934 3.47355e-05 0)
(0.000348265 2.87223e-05 0)
(0.000260889 2.346e-05 0)
(0.000190819 1.84477e-05 0)
(0.000136228 1.41585e-05 0)
(9.56489e-05 1.02167e-05 0)
(6.74436e-05 6.76308e-06 0)
(5.01102e-05 3.7379e-06 0)
(4.19738e-05 1.12015e-06 0)
(4.19947e-05 -1.14863e-06 0)
(4.90523e-05 -3.07801e-06 0)
(6.20658e-05 -4.7024e-06 0)
(8.00511e-05 -6.04868e-06 0)
(0.000102114 -7.13978e-06 0)
(0.000127438 -7.99761e-06 0)
(0.00015528 -8.64492e-06 0)
(0.00018497 -9.10137e-06 0)
(0.000215904 -9.38722e-06 0)
(0.000247544 -9.52155e-06 0)
(0.000279412 -9.52212e-06 0)
(0.000311091 -9.40603e-06 0)
(0.000342214 -9.18839e-06 0)
(0.000372468 -8.88377e-06 0)
(0.000401583 -8.50567e-06 0)
(0.000429332 -8.06624e-06 0)
(0.000455531 -7.57697e-06 0)
(0.000480029 -7.0483e-06 0)
(0.000502709 -6.48949e-06 0)
(0.000523484 -5.90907e-06 0)
(0.000542295 -5.31446e-06 0)
(0.000559104 -4.71243e-06 0)
(0.000573898 -4.10895e-06 0)
(0.000586681 -3.50921e-06 0)
(0.000597473 -2.91779e-06 0)
(0.000606312 -2.33863e-06 0)
(0.000613249 -1.77489e-06 0)
(0.000618351 -1.22821e-06 0)
(0.000621697 -7.03963e-07 0)
(0.000623385 -2.03922e-07 0)
(0.000623397 2.70379e-07 0)
(0.000621767 7.17753e-07 0)
(0.000618659 1.13861e-06 0)
(0.00061417 1.53269e-06 0)
(0.000608396 1.89963e-06 0)
(0.000601432 2.23904e-06 0)
(0.00059337 2.55076e-06 0)
(0.000584305 2.83481e-06 0)
(0.000574331 3.09141e-06 0)
(0.000563538 3.32114e-06 0)
(0.000552017 3.52465e-06 0)
(0.000539856 3.70273e-06 0)
(0.000527137 3.85641e-06 0)
(0.000513942 3.98667e-06 0)
(0.000500348 4.09451e-06 0)
(0.000486428 4.18116e-06 0)
(0.000472251 4.24765e-06 0)
(0.000457884 4.29531e-06 0)
(0.000443387 4.32532e-06 0)
(0.000428818 4.3389e-06 0)
(0.000414229 4.33742e-06 0)
(0.00039967 4.32206e-06 0)
(0.000385185 4.29398e-06 0)
(0.000370813 4.25442e-06 0)
(0.000356594 4.20437e-06 0)
(0.000342558 4.14499e-06 0)
(0.000328737 4.07724e-06 0)
(0.000315157 4.00204e-06 0)
(0.00030184 3.92039e-06 0)
(0.000288808 3.83311e-06 0)
(0.000276077 3.74099e-06 0)
(0.000263663 3.64488e-06 0)
(0.000251578 3.54542e-06 0)
(0.000239832 3.44328e-06 0)
(0.000228432 3.33902e-06 0)
(0.000217386 3.23307e-06 0)
(0.000206698 3.12596e-06 0)
(0.000194686 3.01806e-06 0)
(0.0725625 -0.00934469 0)
(0.0885465 -0.00936409 0)
(0.10708 -0.00908734 0)
(0.125082 -0.00868601 0)
(0.142284 -0.00831869 0)
(0.158418 -0.00766721 0)
(0.173228 -0.00701486 0)
(0.18645 -0.00612805 0)
(0.197853 -0.00514908 0)
(0.207235 -0.00412639 0)
(0.214414 -0.00298617 0)
(0.219275 -0.00179577 0)
(0.22175 -0.00058055 0)
(0.221756 0.000618664 0)
(0.219239 0.00184281 0)
(0.214245 0.00304911 0)
(0.206941 0.00420391 0)
(0.197425 0.00520397 0)
(0.185891 0.00618422 0)
(0.17254 0.00708332 0)
(0.157606 0.00770921 0)
(0.141366 0.00834823 0)
(0.124065 0.00887034 0)
(0.105969 0.00907734 0)
(0.0873396 0.00932699 0)
(0.068413 0.00928817 0)
(0.04938 0.00930059 0)
(0.0303626 0.0092016 0)
(0.0119096 0.00885518 0)
(-0.00550821 0.00864213 0)
(-0.0222747 0.00832249 0)
(-0.0385129 0.00787673 0)
(-0.0539712 0.00748627 0)
(-0.0685796 0.00701242 0)
(-0.0823132 0.00659413 0)
(-0.0951559 0.00616214 0)
(-0.107101 0.00569437 0)
(-0.118162 0.00526841 0)
(-0.128342 0.00483776 0)
(-0.137642 0.0043905 0)
(-0.146077 0.00396548 0)
(-0.15365 0.00352807 0)
(-0.160365 0.00310483 0)
(-0.166228 0.00268015 0)
(-0.171249 0.00225498 0)
(-0.17543 0.00183707 0)
(-0.178777 0.0014156 0)
(-0.181307 0.00099569 0)
(-0.182993 0.000600396 0)
(-0.183852 0.000207016 0)
(-0.183919 -0.000225435 0)
(-0.183149 -0.000625942 0)
(-0.18154 -0.00105664 0)
(-0.179116 -0.00144287 0)
(-0.175842 -0.00185992 0)
(-0.171676 -0.0023141 0)
(-0.166653 -0.00270518 0)
(-0.160767 -0.00312393 0)
(-0.153957 -0.00360256 0)
(-0.146252 -0.00399589 0)
(-0.13766 -0.00448967 0)
(-0.128192 -0.00489303 0)
(-0.117945 -0.00524715 0)
(-0.106875 -0.00568459 0)
(-0.0949848 -0.00604453 0)
(-0.0823884 -0.00634365 0)
(-0.0691304 -0.0067256 0)
(-0.0552528 -0.00699338 0)
(-0.0408168 -0.00731058 0)
(-0.0258047 -0.00757837 0)
(-0.0102851 -0.00776822 0)
(0.00564106 -0.00797358 0)
(0.021903 -0.00814195 0)
(0.0384127 -0.00822219 0)
(0.0550851 -0.00830669 0)
(0.0718152 -0.0083146 0)
(0.0885019 -0.00827958 0)
(0.105047 -0.00816912 0)
(0.121278 -0.00795022 0)
(0.137003 -0.00766063 0)
(0.15203 -0.00723563 0)
(0.166083 -0.00667681 0)
(0.178887 -0.00601159 0)
(0.19019 -0.00520057 0)
(0.199734 -0.00425922 0)
(0.20727 -0.0032042 0)
(0.212568 -0.00205313 0)
(0.215465 -0.000841327 0)
(0.21585 0.000384069 0)
(0.213675 0.00170748 0)
(0.208938 0.00296947 0)
(0.201731 0.00415426 0)
(0.192181 0.00527465 0)
(0.180486 0.00629442 0)
(0.166895 0.00716429 0)
(0.151646 0.00791386 0)
(0.135056 0.00849287 0)
(0.117461 0.0089114 0)
(0.0991763 0.00917376 0)
(0.0805297 0.00927963 0)
(0.0618427 0.00923139 0)
(0.0434091 0.00904562 0)
(0.0254542 0.00873175 0)
(0.00822369 0.0083457 0)
(-0.00810433 0.00787217 0)
(-0.0234384 0.00734759 0)
(-0.037676 0.00678284 0)
(-0.0507655 0.00620952 0)
(-0.0627038 0.00563208 0)
(-0.0734908 0.00506859 0)
(-0.0831619 0.00453924 0)
(-0.0917657 0.00401757 0)
(-0.0993633 0.00352574 0)
(-0.106017 0.00307201 0)
(-0.111767 0.0026363 0)
(-0.116673 0.00224036 0)
(-0.120787 0.00185724 0)
(-0.124167 0.00149962 0)
(-0.12685 0.00115809 0)
(-0.128868 0.000838224 0)
(-0.13024 0.000529675 0)
(-0.130997 0.000241875 0)
(-0.131192 -5.68365e-05 0)
(-0.130813 -0.000333425 0)
(-0.12985 -0.000603103 0)
(-0.128327 -0.000893715 0)
(-0.126268 -0.00116042 0)
(-0.123629 -0.00144495 0)
(-0.120425 -0.00172849 0)
(-0.116645 -0.00202214 0)
(-0.112275 -0.00231586 0)
(-0.107304 -0.00261766 0)
(-0.101723 -0.0029222 0)
(-0.0955316 -0.00323234 0)
(-0.0887079 -0.00353023 0)
(-0.0812509 -0.00384604 0)
(-0.0731771 -0.00415374 0)
(-0.0645053 -0.00444888 0)
(-0.0552424 -0.00473877 0)
(-0.045403 -0.00501 0)
(-0.0350397 -0.00526046 0)
(-0.0242141 -0.00548892 0)
(-0.0129598 -0.0056644 0)
(-0.00135533 -0.00583728 0)
(0.0105099 -0.00592788 0)
(0.022564 -0.00599757 0)
(0.0346892 -0.00601003 0)
(0.046776 -0.00596586 0)
(0.05871 -0.0058575 0)
(0.0703638 -0.00568511 0)
(0.0816075 -0.00544972 0)
(0.0923092 -0.0051454 0)
(0.10233 -0.0047804 0)
(0.111548 -0.00435057 0)
(0.119843 -0.00386206 0)
(0.127091 -0.00333145 0)
(0.133211 -0.00274202 0)
(0.138128 -0.00211013 0)
(0.141753 -0.00146505 0)
(0.144044 -0.000804781 0)
(0.144985 -0.000141738 0)
(0.144603 0.000515707 0)
(0.142869 0.00116983 0)
(0.139879 0.00178595 0)
(0.135686 0.00236382 0)
(0.130367 0.00289475 0)
(0.124031 0.00337424 0)
(0.116789 0.00379088 0)
(0.108772 0.00414637 0)
(0.100109 0.00442865 0)
(0.0909377 0.0046471 0)
(0.081403 0.00479532 0)
(0.0716346 0.00487607 0)
(0.0617685 0.004896 0)
(0.0519272 0.00485468 0)
(0.0422185 0.00476105 0)
(0.0327508 0.00462064 0)
(0.0236114 0.00443697 0)
(0.014874 0.00421885 0)
(0.00660417 0.0039724 0)
(-0.00111536 0.00370112 0)
(-0.00827087 0.00341904 0)
(-0.0148618 0.0031195 0)
(-0.0208398 0.00281165 0)
(-0.0261942 0.00250032 0)
(-0.0309207 0.00219081 0)
(-0.0350226 0.00188225 0)
(-0.0385105 0.00157995 0)
(-0.0413972 0.00128693 0)
(-0.0437012 0.00100224 0)
(-0.0454451 0.000729224 0)
(-0.0466503 0.000468359 0)
(-0.0473412 0.000224179 0)
(-0.047556 -9.52442e-06 0)
(-0.047311 -0.000227348 0)
(-0.0466374 -0.000430733 0)
(-0.0455748 -0.000622588 0)
(-0.0441475 -0.000795634 0)
(-0.0423769 -0.00095612 0)
(-0.0403009 -0.00110277 0)
(-0.0379436 -0.00123205 0)
(-0.0353365 -0.00134904 0)
(-0.0325114 -0.00145192 0)
(-0.0294883 -0.00153738 0)
(-0.0263067 -0.00161405 0)
(-0.0229957 -0.00167341 0)
(-0.0195729 -0.00172059 0)
(-0.0160689 -0.00175224 0)
(-0.0125107 -0.00177232 0)
(-0.00892683 -0.00178101 0)
(-0.00533921 -0.00177442 0)
(-0.00177418 -0.00175771 0)
(0.00174366 -0.00172988 0)
(0.00519414 -0.00169195 0)
(0.00855736 -0.00164233 0)
(0.0118139 -0.00158359 0)
(0.0149426 -0.00151703 0)
(0.0179277 -0.00144209 0)
(0.0207548 -0.00136039 0)
(0.0234096 -0.00127236 0)
(0.0258814 -0.00117941 0)
(0.0281614 -0.00108032 0)
(0.0302404 -0.00097928 0)
(0.032111 -0.000875566 0)
(0.0337705 -0.000769897 0)
(0.0352153 -0.00066463 0)
(0.036447 -0.000556929 0)
(0.0374654 -0.000452188 0)
(0.0382727 -0.000349543 0)
(0.0388753 -0.00024822 0)
(0.0392774 -0.000151099 0)
(0.0394867 -5.79603e-05 0)
(0.039513 3.00534e-05 0)
(0.0393658 0.000114899 0)
(0.0390528 0.000192811 0)
(0.0385883 0.000266832 0)
(0.0379827 0.000333905 0)
(0.037246 0.000394662 0)
(0.0363931 0.000450575 0)
(0.0354339 0.000499464 0)
(0.0343819 0.000541868 0)
(0.0332506 0.000579329 0)
(0.0320501 0.000609116 0)
(0.0307945 0.000635182 0)
(0.0294941 0.000653463 0)
(0.0281604 0.000667992 0)
(0.0268047 0.000676533 0)
(0.0254353 0.000680071 0)
(0.0240634 0.00068014 0)
(0.0226954 0.000674807 0)
(0.0213413 0.000667585 0)
(0.0200068 0.000655172 0)
(0.018699 0.000641391 0)
(0.017423 0.000623579 0)
(0.0161838 0.000604897 0)
(0.0149858 0.000583243 0)
(0.013832 0.000560606 0)
(0.012726 0.000536596 0)
(0.0116686 0.00051113 0)
(0.0106633 0.00048611 0)
(0.0097095 0.000459488 0)
(0.00880908 0.000433434 0)
(0.00796227 0.000407083 0)
(0.00716731 0.000380496 0)
(0.00642575 0.00035523 0)
(0.00573606 0.000329671 0)
(0.0050959 0.000304596 0)
(0.00450574 0.00028103 0)
(0.0039635 0.000257726 0)
(0.00346654 0.000235318 0)
(0.00301363 0.000213682 0)
(0.0026033 0.000193715 0)
(0.00223314 0.000174332 0)
(0.00190053 0.000156004 0)
(0.00160373 0.000138773 0)
(0.00134052 0.000122634 0)
(0.00110874 0.000107596 0)
(0.000906235 9.36511e-05 0)
(0.000730882 8.0745e-05 0)
(0.000580579 6.88264e-05 0)
(0.000453268 5.78769e-05 0)
(0.000346772 4.78418e-05 0)
(0.000259527 3.90744e-05 0)
(0.000189588 3.0707e-05 0)
(0.000135139 2.35712e-05 0)
(9.4669e-05 1.70181e-05 0)
(6.65856e-05 1.12706e-05 0)
(4.93629e-05 6.21287e-06 0)
(4.13267e-05 1.85096e-06 0)
(4.14389e-05 -1.92905e-06 0)
(4.85818e-05 -5.14325e-06 0)
(6.16726e-05 -7.84956e-06 0)
(7.97286e-05 -1.00924e-05 0)
(0.000101856 -1.19099e-05 0)
(0.000127239 -1.33389e-05 0)
(0.000155134 -1.44168e-05 0)
(0.000184872 -1.51767e-05 0)
(0.000215849 -1.56523e-05 0)
(0.000247526 -1.58754e-05 0)
(0.000279428 -1.58757e-05 0)
(0.000311135 -1.56815e-05 0)
(0.000342284 -1.53181e-05 0)
(0.000372559 -1.48098e-05 0)
(0.000401691 -1.41791e-05 0)
(0.000429456 -1.34462e-05 0)
(0.000455666 -1.26303e-05 0)
(0.000480173 -1.17487e-05 0)
(0.00050286 -1.0817e-05 0)
(0.00052364 -9.84924e-06 0)
(0.000542454 -8.85791e-06 0)
(0.000559264 -7.85424e-06 0)
(0.000574058 -6.84817e-06 0)
(0.000586839 -5.84837e-06 0)
(0.000597628 -4.86246e-06 0)
(0.000606464 -3.89697e-06 0)
(0.000613397 -2.95715e-06 0)
(0.000618493 -2.04598e-06 0)
(0.000621833 -1.17214e-06 0)
(0.000623514 -3.38641e-07 0)
(0.000623519 4.51812e-07 0)
(0.000621882 1.19744e-06 0)
(0.000618767 1.89888e-06 0)
(0.000614271 2.55571e-06 0)
(0.00060849 3.1673e-06 0)
(0.000601518 3.73299e-06 0)
(0.000593449 4.25253e-06 0)
(0.000584377 4.72592e-06 0)
(0.000574395 5.15357e-06 0)
(0.000563595 5.53642e-06 0)
(0.000552068 5.87556e-06 0)
(0.0005399 6.17231e-06 0)
(0.000527175 6.4284e-06 0)
(0.000513974 6.64544e-06 0)
(0.000500374 6.82513e-06 0)
(0.000486448 6.96949e-06 0)
(0.000472266 7.08025e-06 0)
(0.000457894 7.15963e-06 0)
(0.000443393 7.20959e-06 0)
(0.000428819 7.23217e-06 0)
(0.000414227 7.22964e-06 0)
(0.000399664 7.204e-06 0)
(0.000385176 7.15714e-06 0)
(0.000370802 7.09115e-06 0)
(0.000356579 7.00769e-06 0)
(0.000342542 6.90869e-06 0)
(0.000328718 6.79573e-06 0)
(0.000315136 6.67035e-06 0)
(0.000301818 6.53423e-06 0)
(0.000288784 6.38873e-06 0)
(0.000276053 6.23517e-06 0)
(0.000263638 6.07496e-06 0)
(0.000251551 5.90915e-06 0)
(0.000239804 5.7389e-06 0)
(0.000228405 5.5651e-06 0)
(0.000217358 5.38851e-06 0)
(0.00020667 5.20997e-06 0)
(0.000194658 5.03012e-06 0)
(0.0725746 -0.0130885 0)
(0.0885828 -0.0131164 0)
(0.107145 -0.0127292 0)
(0.125176 -0.0121675 0)
(0.142412 -0.0116536 0)
(0.158575 -0.0107412 0)
(0.173418 -0.00982779 0)
(0.186665 -0.00858548 0)
(0.19809 -0.00721408 0)
(0.207497 -0.00578149 0)
(0.21469 -0.00418423 0)
(0.219558 -0.00251803 0)
(0.222047 -0.000825659 0)
(0.222054 0.000885191 0)
(0.219516 0.00258727 0)
(0.214521 0.00427209 0)
(0.207203 0.00588979 0)
(0.197661 0.00729052 0)
(0.186105 0.00866432 0)
(0.172727 0.00992367 0)
(0.157759 0.0108001 0)
(0.141489 0.011695 0)
(0.124157 0.0124261 0)
(0.106027 0.0127155 0)
(0.0873684 0.0130645 0)
(0.0684144 0.0130093 0)
(0.0493554 0.0130261 0)
(0.0303114 0.012887 0)
(0.011847 0.0124009 0)
(-0.00558186 0.0121018 0)
(-0.022365 0.0116536 0)
(-0.0386097 0.0110288 0)
(-0.054074 0.0104816 0)
(-0.068684 0.00981783 0)
(-0.0824197 0.00923198 0)
(-0.0952629 0.008627 0)
(-0.107207 0.00797184 0)
(-0.118268 0.00737543 0)