/*--------------------------------*- C++ -*----------------------------------*\
| =========                 |                                                 |
| \\      /  F ield         | OpenFOAM: The Open Source CFD Toolbox           |
|  \\    /   O peration     | Version:  3.0.1                                 |
|   \\  /    A nd           | Web:      www.OpenFOAM.org                      |
|    \\/     M anipulation  |                                                 |
\*---------------------------------------------------------------------------*/
FoamFile
{
    version     2.0;
    format      ascii;
    class       volVectorField;
    location    "39.6";
    object      U;
}
// * * * * * * * * * * * * * * * * * * * * * * * * * * * * * * * * * * * * * //

dimensions      [0 1 -1 0 0 0 0];

internalField   nonuniform List<vector> 
21420
(
(-0.168925 -0.000144 0)
(-0.167332 -0.00020991 0)
(-0.16488 -0.000276854 0)
(-0.16174 -0.00034569 0)
(-0.15789 -0.000418265 0)
(-0.153302 -0.000492441 0)
(-0.147945 -0.000572 0)
(-0.141784 -0.000652384 0)
(-0.134785 -0.000735454 0)
(-0.126917 -0.000826522 0)
(-0.118148 -0.000914899 0)
(-0.108455 -0.00100444 0)
(-0.0978153 -0.00110488 0)
(-0.0862198 -0.00119566 0)
(-0.0736673 -0.001299 0)
(-0.060171 -0.0013865 0)
(-0.045756 -0.0014686 0)
(-0.0304577 -0.00156638 0)
(-0.014313 -0.00163519 0)
(0.00252067 -0.0016923 0)
(0.0199488 -0.00176701 0)
(0.0379129 -0.00179792 0)
(0.056215 -0.00180996 0)
(0.0746774 -0.00183792 0)
(0.0931031 -0.00181073 0)
(0.111272 -0.00179468 0)
(0.12896 -0.00172331 0)
(0.145914 -0.00162781 0)
(0.161888 -0.00153439 0)
(0.176654 -0.0013956 0)
(0.18998 -0.00123708 0)
(0.201651 -0.0010699 0)
(0.211483 -0.000876643 0)
(0.219323 -0.00067325 0)
(0.22505 -0.000456519 0)
(0.228593 -0.000233709 0)
(0.229865 -1.11399e-05 0)
(0.228946 0.000209795 0)
(0.225665 0.000437671 0)
(0.220248 0.000639898 0)
(0.212791 0.000841473 0)
(0.203425 0.00100974 0)
(0.192329 0.00117662 0)
(0.179674 0.00133024 0)
(0.165674 0.00143537 0)
(0.150558 0.00154097 0)
(0.134526 0.00162871 0)
(0.117841 0.00166669 0)
(0.10067 0.00170667 0)
(0.0832022 0.00173029 0)
(0.0657387 0.00171364 0)
(0.0483884 0.00169672 0)
(0.0313013 0.00165062 0)
(0.0146767 0.00160594 0)
(-0.00101672 0.00155162 0)
(-0.0159427 0.00148034 0)
(-0.0304623 0.001413 0)
(-0.0442754 0.00133733 0)
(-0.0573075 0.00125321 0)
(-0.069536 0.001172 0)
(-0.0809413 0.00108605 0)
(-0.0915257 0.00100514 0)
(-0.10127 0.000921347 0)
(-0.110191 0.000839185 0)
(-0.118327 0.00076222 0)
(-0.125642 0.000679986 0)
(-0.132172 0.000601837 0)
(-0.137942 0.000529785 0)
(-0.142908 0.000448254 0)
(-0.147159 0.000382635 0)
(-0.150727 0.000307899 0)
(-0.153501 0.00023018 0)
(-0.15554 0.000172895 0)
(-0.156918 9.81499e-05 0)
(-0.157592 2.1045e-05 0)
(-0.157472 -3.86594e-05 0)
(-0.156717 -0.000122757 0)
(-0.155243 -0.000192195 0)
(-0.152968 -0.000256822 0)
(-0.15003 -0.000335403 0)
(-0.146414 -0.000412146 0)
(-0.141955 -0.000476702 0)
(-0.136761 -0.000552219 0)
(-0.130962 -0.000632468 0)
(-0.124286 -0.000695643 0)
(-0.116828 -0.00077441 0)
(-0.108817 -0.000851638 0)
(-0.0999243 -0.000913067 0)
(-0.0902786 -0.000990099 0)
(-0.080072 -0.00106212 0)
(-0.06905 -0.00112327 0)
(-0.0573288 -0.00118974 0)
(-0.0450309 -0.00125497 0)
(-0.0320659 -0.00132089 0)
(-0.0184761 -0.00138163 0)
(-0.00426934 -0.00143173 0)
(0.0105055 -0.00148647 0)
(0.0257645 -0.00153521 0)
(0.0414371 -0.00157066 0)
(0.0574303 -0.00160372 0)
(0.0736808 -0.00161387 0)
(0.0900302 -0.00162134 0)
(0.106318 -0.00161356 0)
(0.12244 -0.00158078 0)
(0.13818 -0.00153592 0)
(0.153349 -0.00147138 0)
(0.167772 -0.00138254 0)
(0.181207 -0.00127744 0)
(0.193482 -0.0011534 0)
(0.204372 -0.00100532 0)
(0.213708 -0.000840629 0)
(0.221303 -0.000661647 0)
(0.227004 -0.000467201 0)
(0.230665 -0.000254973 0)
(0.232154 -4.39819e-05 0)
(0.231501 0.000180589 0)
(0.228467 0.000407231 0)
(0.223207 0.000634171 0)
(0.215762 0.000839627 0)
(0.206248 0.0010472 0)
(0.194751 0.00122837 0)
(0.181484 0.00139362 0)
(0.166701 0.00154173 0)
(0.150559 0.00165598 0)
(0.133348 0.00175241 0)
(0.115333 0.00181756 0)
(0.0967616 0.0018675 0)
(0.0778825 0.00188118 0)
(0.0589181 0.00187869 0)
(0.0401116 0.00185167 0)
(0.0216498 0.00180899 0)
(0.00371982 0.00174699 0)
(-0.0135015 0.00167724 0)
(-0.0299464 0.00159018 0)
(-0.0454915 0.00149637 0)
(-0.0600546 0.00139478 0)
(-0.0736025 0.00128562 0)
(-0.0860498 0.00118888 0)
(-0.0974248 0.00107492 0)
(-0.107742 0.00097247 0)
(-0.117014 0.000866799 0)
(-0.125272 0.000769435 0)
(-0.132515 0.000669191 0)
(-0.138811 0.00058137 0)
(-0.144221 0.00049439 0)
(-0.148789 0.000412462 0)
(-0.152572 0.000338211 0)
(-0.155586 0.000266173 0)
(-0.157919 0.000198529 0)
(-0.159635 0.000136422 0)
(-0.16071 8.36401e-05 0)
(-0.161228 1.7873e-05 0)
(-0.161118 -3.69128e-05 0)
(-0.160416 -9.72578e-05 0)
(-0.159182 -0.000159217 0)
(-0.157301 -0.000208207 0)
(-0.15482 -0.000274345 0)
(-0.15171 -0.000340717 0)
(-0.147938 -0.000404109 0)
(-0.143551 -0.000476557 0)
(-0.138442 -0.000532169 0)
(-0.132628 -0.000612909 0)
(-0.126089 -0.000681548 0)
(-0.118785 -0.000760271 0)
(-0.110764 -0.000844062 0)
(-0.101917 -0.000906887 0)
(-0.0922751 -0.000993594 0)
(-0.0817971 -0.00108168 0)
(-0.0704738 -0.00115557 0)
(-0.0584178 -0.00124047 0)
(-0.0455116 -0.00132617 0)
(-0.0317555 -0.00139436 0)
(-0.0172537 -0.00147351 0)
(-0.00197692 -0.00154769 0)
(0.013951 -0.00160922 0)
(0.0304241 -0.00165655 0)
(0.0473508 -0.0016911 0)
(0.0645221 -0.00171289 0)
(0.0817834 -0.00171181 0)
(0.0989651 -0.00169424 0)
(0.11582 -0.00164237 0)
(0.132071 -0.00157288 0)
(0.147466 -0.00147817 0)
(0.161749 -0.00134735 0)
(0.174621 -0.00120134 0)
(0.185841 -0.00102328 0)
(0.195182 -0.000826571 0)
(0.202419 -0.000607398 0)
(0.207361 -0.000373478 0)
(0.209898 -0.000129035 0)
(0.209958 0.000117252 0)
(0.207441 0.000375615 0)
(0.202403 0.000612398 0)
(0.195015 0.000845791 0)
(0.185357 0.00106737 0)
(0.173622 0.00126176 0)
(0.160024 0.00143052 0)
(0.144822 0.00158387 0)
(0.128279 0.00169957 0)
(0.110678 0.00178465 0)
(0.0923063 0.00185345 0)
(0.0734705 0.00188098 0)
(0.0544577 0.00189156 0)
(0.0355012 0.0018691 0)
(0.0168804 0.00182521 0)
(-0.00119458 0.00176652 0)
(-0.0185933 0.00168601 0)
(-0.0351229 0.00159201 0)
(-0.0506772 0.00150089 0)
(-0.065258 0.00139101 0)
(-0.0788014 0.0012897 0)
(-0.0912313 0.00118213 0)
(-0.102634 0.0010801 0)
(-0.113032 0.000983494 0)
(-0.122408 0.000883541 0)
(-0.130855 0.000794849 0)
(-0.13842 0.000705696 0)
(-0.145142 0.000622421 0)
(-0.151 0.000543484 0)
(-0.15609 0.000465845 0)
(-0.160421 0.000386594 0)
(-0.163986 0.000325581 0)
(-0.166904 0.000255829 0)
(-0.169189 0.000194161 0)
(-0.170803 0.000132767 0)
(-0.17179 7.08915e-05 0)
(-0.172268 1.43104e-05 0)
(-0.172092 -4.54884e-05 0)
(-0.171247 -0.000112646 0)
(-0.169832 -0.000179194 0)
(-0.167673 -0.000240825 0)
(-0.164833 -0.000314586 0)
(-0.16135 -0.00038102 0)
(-0.157132 -0.000446656 0)
(-0.1522 -0.000528143 0)
(-0.146566 -0.000602371 0)
(-0.140089 -0.000674802 0)
(-0.132788 -0.000761579 0)
(-0.124736 -0.000846797 0)
(-0.115771 -0.00092975 0)
(-0.1059 -0.00101569 0)
(-0.0951538 -0.0011172 0)
(-0.0834553 -0.0012017 0)
(-0.0708729 -0.00128731 0)
(-0.0574643 -0.00137332 0)
(-0.0432225 -0.00145459 0)
(-0.028202 -0.00152713 0)
(-0.0125118 -0.00158084 0)
(0.00377891 -0.00163591 0)
(0.0205052 -0.00167011 0)
(0.0374918 -0.00169685 0)
(0.054631 -0.00170098 0)
(0.0717098 -0.00168256 0)
(0.0885142 -0.00164515 0)
(0.104808 -0.00158022 0)
(0.120317 -0.00149553 0)
(0.134829 -0.00137893 0)
(0.148058 -0.0012425 0)
(0.159777 -0.00107984 0)
(0.169729 -0.000889104 0)
(0.177692 -0.000683197 0)
(0.183471 -0.000458062 0)
(0.186926 -0.000221505 0)
(0.187967 1.5938e-05 0)
(0.186597 0.000263213 0)
(0.182649 0.000508555 0)
(0.17635 0.000742017 0)
(0.16783 0.000954008 0)
(0.157301 0.00114458 0)
(0.144888 0.00131682 0)
(0.130896 0.00146241 0)
(0.115715 0.00156268 0)
(0.0995416 0.00164331 0)
(0.0827005 0.00170225 0)
(0.065528 0.00171307 0)
(0.0482648 0.00171091 0)
(0.0310188 0.00168453 0)
(0.0142642 0.00165089 0)
(-0.0015665 0.00157365 0)
(-0.0167516 0.00150244 0)
(-0.0313202 0.00142667 0)
(-0.0450807 0.00133662 0)
(-0.0580271 0.00125786 0)
(-0.0701031 0.00116464 0)
(-0.0813512 0.00107793 0)
(-0.0918446 0.000999393 0)
(-0.101477 0.00091101 0)
(-0.110275 0.000829185 0)
(-0.118259 0.000748872 0)
(-0.125414 0.000666651 0)
(-0.131796 0.00059342 0)
(-0.137378 0.000515621 0)
(-0.14218 0.000441687 0)
(-0.14628 0.000376124 0)
(-0.149681 0.000310793 0)
(-0.152431 0.000246815 0)
(-0.154611 0.000188201 0)
(-0.156196 0.000132456 0)
(-0.15721 7.96004e-05 0)
(-0.157729 3.38707e-05 0)
(-0.157767 -2.17464e-05 0)
(-0.157304 -7.03883e-05 0)
(-0.156304 -0.000122567 0)
(-0.154742 -0.000179031 0)
(-0.152633 -0.000234337 0)
(-0.149925 -0.000298279 0)
(-0.146538 -0.000369625 0)
(-0.142434 -0.000440294 0)
(-0.137548 -0.000523391 0)
(-0.131846 -0.000604677 0)
(-0.125282 -0.000693085 0)
(-0.117768 -0.000794161 0)
(-0.109276 -0.000887003 0)
(-0.0997864 -0.000982127 0)
(-0.0892709 -0.00109414 0)
(-0.0777385 -0.00118953 0)
(-0.0651817 -0.00130033 0)
(-0.0516409 -0.0013859 0)
(-0.037216 -0.00146341 0)
(-0.0219405 -0.00155722 0)
(-0.00596719 -0.00161319 0)
(0.01053 -0.00165256 0)
(0.0274852 -0.00170635 0)
(0.0447217 -0.00171117 0)
(0.0620283 -0.00172616 0)
(0.0791999 -0.00169067 0)
(0.0959923 -0.00163154 0)
(0.112179 -0.00157665 0)
(0.127546 -0.00147537 0)
(0.141858 -0.00135311 0)
(0.154897 -0.00122715 0)
(0.166472 -0.001068 0)
(0.176399 -0.000894316 0)
(0.184523 -0.000712286 0)
(0.190721 -0.000514709 0)
(0.194909 -0.000310703 0)
(0.197031 -0.000103117 0)
(0.197063 0.000101403 0)
(0.195 0.000306373 0)
(0.190833 0.000509003 0)
(0.184741 0.000701716 0)
(0.176807 0.00087152 0)
(0.167174 0.00103687 0)
(0.15601 0.00116941 0)
(0.143502 0.00129923 0)
(0.129842 0.00141221 0)
(0.115232 0.00148125 0)
(0.0998758 0.00155431 0)
(0.0839668 0.0016092 0)
(0.0676947 0.00161925 0)
(0.0512333 0.00163835 0)
(0.0347359 0.001616 0)
(0.0180498 0.001604 0)
(0.00192413 0.00157426 0)
(-0.0134271 0.00151579 0)
(-0.0284087 0.0014671 0)
(-0.044537 0.00140748 0)
(-0.168951 -0.000431816 0)
(-0.167359 -0.000629587 0)
(-0.164907 -0.000830398 0)
(-0.161768 -0.0010369 0)
(-0.15792 -0.00125462 0)
(-0.153333 -0.00147714 0)
(-0.147977 -0.00171582 0)
(-0.141817 -0.00195698 0)
(-0.13482 -0.0022062 0)
(-0.126953 -0.00247942 0)
(-0.118185 -0.00274457 0)
(-0.108492 -0.00301325 0)
(-0.0978538 -0.00331458 0)
(-0.0862582 -0.00358699 0)
(-0.0737059 -0.00389706 0)
(-0.0602084 -0.0041596 0)
(-0.0457916 -0.00440599 0)
(-0.0304916 -0.00469941 0)
(-0.0143435 -0.00490612 0)
(0.00249444 -0.00507709 0)
(0.0199271 -0.00530158 0)
(0.0378974 -0.00539439 0)
(0.0562063 -0.0054306 0)
(0.0746765 -0.0055146 0)
(0.0931106 -0.00543306 0)
(0.111289 -0.00538503 0)
(0.128986 -0.00517093 0)
(0.145949 -0.00488441 0)
(0.161934 -0.00460416 0)
(0.176708 -0.00418774 0)
(0.190043 -0.00371202 0)
(0.201722 -0.00321091 0)
(0.211561 -0.00263029 0)
(0.219407 -0.00201971 0)
(0.225136 -0.00136909 0)
(0.228684 -0.000700078 0)
(0.22996 -3.53983e-05 0)
(0.229033 0.000628725 0)
(0.225748 0.00131313 0)
(0.220331 0.00191978 0)
(0.21287 0.00252493 0)
(0.203497 0.0030298 0)
(0.192395 0.0035305 0)
(0.179733 0.00399151 0)
(0.165725 0.00430692 0)
(0.150601 0.00462373 0)
(0.13456 0.00488697 0)
(0.117867 0.00500095 0)
(0.100689 0.00512071 0)
(0.0832143 0.00519153 0)
(0.0657435 0.00514177 0)
(0.0483864 0.00509066 0)
(0.0312941 0.00495256 0)
(0.0146649 0.00481838 0)
(-0.00103242 0.00465481 0)
(-0.0159613 0.0044418 0)
(-0.0304839 0.00423963 0)
(-0.0443006 0.00401238 0)
(-0.057335 0.00375973 0)
(-0.0695649 0.00351701 0)
(-0.0809722 0.00325888 0)
(-0.0915585 0.00301584 0)
(-0.101306 0.0027642 0)
(-0.110228 0.00251697 0)
(-0.118366 0.00228764 0)
(-0.125682 0.00204108 0)
(-0.132213 0.00180687 0)
(-0.137988 0.00158786 0)
(-0.142953 0.00134591 0)
(-0.147206 0.00114778 0)
(-0.150777 0.000925493 0)
(-0.153548 0.000691131 0)
(-0.155591 0.000515094 0)
(-0.156976 0.000296119 0)
(-0.157648 6.20452e-05 0)
(-0.157524 -0.000114554 0)
(-0.156775 -0.00036387 0)
(-0.155306 -0.000585441 0)
(-0.15302 -0.000765209 0)
(-0.150096 -0.00101276 0)
(-0.146466 -0.00123447 0)
(-0.142008 -0.00142288 0)
(-0.136825 -0.00166478 0)
(-0.131013 -0.00189376 0)
(-0.124343 -0.00208993 0)
(-0.116884 -0.00232077 0)
(-0.108863 -0.00255198 0)
(-0.0999824 -0.00273899 0)
(-0.090338 -0.0029738 0)
(-0.0801245 -0.00318555 0)
(-0.0691071 -0.003367 0)
(-0.057389 -0.00357819 0)
(-0.0450856 -0.00377126 0)
(-0.0321168 -0.00395303 0)
(-0.0185375 -0.00415001 0)
(-0.00432263 -0.00429393 0)
(0.0104495 -0.00446364 0)
(0.0257091 -0.00460323 0)
(0.0413829 -0.00472399 0)
(0.0573901 -0.00481361 0)
(0.0736385 -0.00485183 0)
(0.0900033 -0.00487166 0)
(0.106311 -0.00483241 0)
(0.122433 -0.00474867 0)
(0.138193 -0.00460752 0)
(0.153376 -0.00441488 0)
(0.167802 -0.00415838 0)
(0.18126 -0.00383887 0)
(0.193545 -0.00346413 0)
(0.204449 -0.00301706 0)
(0.213791 -0.00252603 0)
(0.221397 -0.00198382 0)
(0.227106 -0.00140019 0)
(0.230769 -0.000774437 0)
(0.23227 -0.000133163 0)
(0.231607 0.000533935 0)
(0.228574 0.00122571 0)
(0.223318 0.00189326 0)
(0.215872 0.00253168 0)
(0.206339 0.00313276 0)
(0.194834 0.00368205 0)
(0.181555 0.00419204 0)
(0.166744 0.0046207 0)
(0.150601 0.00496771 0)
(0.133381 0.00527428 0)
(0.11534 0.00545568 0)
(0.0967525 0.00559967 0)
(0.0778597 0.00564188 0)
(0.0588865 0.00563676 0)
(0.0400662 0.00555838 0)
(0.0215867 0.00542934 0)
(0.00364575 0.00523911 0)
(-0.0135877 0.00502661 0)
(-0.0300398 0.00476628 0)
(-0.0455943 0.00448757 0)
(-0.0601652 0.0041838 0)
(-0.0737103 0.00386131 0)
(-0.086167 0.00357033 0)
(-0.0975496 0.00322309 0)
(-0.10786 0.00291563 0)
(-0.117129 0.00260304 0)
(-0.12539 0.0023105 0)
(-0.132639 0.00201202 0)
(-0.138947 0.00174036 0)
(-0.144356 0.00147452 0)
(-0.148911 0.00123935 0)
(-0.152703 0.00100795 0)
(-0.155709 0.000791758 0)
(-0.158039 0.000603206 0)
(-0.159763 0.000410516 0)
(-0.160833 0.000240284 0)
(-0.161338 6.5251e-05 0)
(-0.161238 -0.000114677 0)
(-0.160543 -0.000294957 0)
(-0.159296 -0.000480473 0)
(-0.157414 -0.000619257 0)
(-0.154945 -0.000831222 0)
(-0.151827 -0.00102394 0)
(-0.148059 -0.00120616 0)
(-0.143672 -0.00143892 0)
(-0.138545 -0.0015935 0)
(-0.132733 -0.00183446 0)
(-0.126203 -0.00205665 0)
(-0.118894 -0.0022825 0)
(-0.110861 -0.00252567 0)
(-0.102024 -0.00272712 0)
(-0.0923766 -0.00298695 0)
(-0.081897 -0.00324615 0)
(-0.0705832 -0.00348006 0)
(-0.0585127 -0.00372154 0)
(-0.0455929 -0.00397354 0)
(-0.0318475 -0.00419062 0)
(-0.0173318 -0.00442694 0)
(-0.00204496 -0.00463635 0)
(0.0138837 -0.00482827 0)
(0.0303663 -0.00498072 0)
(0.0473075 -0.00507468 0)
(0.064493 -0.00514438 0)
(0.0817753 -0.00514064 0)
(0.0989711 -0.00507556 0)
(0.115829 -0.00494077 0)
(0.132097 -0.00472793 0)
(0.147508 -0.00443663 0)
(0.161804 -0.00405074 0)
(0.174702 -0.00360308 0)
(0.185928 -0.00307332 0)
(0.195279 -0.00248088 0)
(0.202517 -0.00182986 0)
(0.207481 -0.00111651 0)
(0.210021 -0.000379097 0)
(0.210071 0.00034949 0)
(0.207546 0.00111478 0)
(0.20252 0.00184908 0)
(0.195119 0.00253702 0)
(0.185442 0.00320512 0)
(0.173693 0.00377306 0)
(0.160084 0.00429688 0)
(0.144862 0.00474934 0)
(0.128309 0.00509659 0)
(0.110694 0.00536275 0)
(0.092302 0.00555662 0)
(0.0734548 0.00565011 0)
(0.0544229 0.00567843 0)
(0.0354511 0.00561093 0)
(0.0168169 0.00547871 0)
(-0.00127547 0.00529515 0)
(-0.0186825 0.00505316 0)
(-0.0352142 0.00478025 0)
(-0.0507822 0.00450399 0)
(-0.0653672 0.00417242 0)
(-0.0789065 0.00387017 0)
(-0.0913399 0.00355862 0)
(-0.102755 0.00323688 0)
(-0.113155 0.00294668 0)
(-0.122531 0.00264845 0)
(-0.130974 0.00238592 0)
(-0.138543 0.0021122 0)
(-0.14526 0.0018649 0)
(-0.15112 0.00163754 0)
(-0.156206 0.00139403 0)
(-0.160532 0.00116864 0)
(-0.164105 0.000979348 0)
(-0.16703 0.000763758 0)
(-0.169308 0.000566217 0)
(-0.17092 0.000409181 0)
(-0.171922 0.000204616 0)
(-0.172394 3.84954e-05 0)
(-0.172206 -0.00012564 0)
(-0.171373 -0.000339848 0)
(-0.169956 -0.000536955 0)
(-0.167796 -0.000731311 0)
(-0.164937 -0.000934537 0)
(-0.161465 -0.00114794 0)
(-0.157255 -0.0013535 0)
(-0.152307 -0.00157623 0)
(-0.146681 -0.00180731 0)
(-0.140203 -0.00202986 0)
(-0.132894 -0.00228296 0)
(-0.124837 -0.0025411 0)
(-0.115873 -0.00278275 0)
(-0.106018 -0.00306291 0)
(-0.0952542 -0.00335061 0)
(-0.0835504 -0.00359854 0)
(-0.0709717 -0.00387939 0)
(-0.0575504 -0.00411961 0)
(-0.0433069 -0.00436981 0)
(-0.0282855 -0.00458959 0)
(-0.0125727 -0.00474601 0)
(0.00372802 -0.00489723 0)
(0.0204431 -0.00502353 0)
(0.0374533 -0.00509111 0)
(0.0546098 -0.00510474 0)
(0.0716952 -0.00506039 0)
(0.0885197 -0.00493779 0)
(0.104828 -0.00474646 0)
(0.12035 -0.00447938 0)
(0.134867 -0.00415036 0)
(0.148128 -0.00372474 0)
(0.159851 -0.00323309 0)
(0.169806 -0.00267446 0)
(0.177778 -0.00205459 0)
(0.183565 -0.00138193 0)
(0.187029 -0.000673526 0)
(0.188076 5.26519e-05 0)
(0.186687 0.000787074 0)
(0.182742 0.00152936 0)
(0.176442 0.00222925 0)
(0.167908 0.00286517 0)
(0.157369 0.00343351 0)
(0.144951 0.00394663 0)
(0.130945 0.00438949 0)
(0.115753 0.00468547 0)
(0.0995738 0.00493314 0)
(0.082718 0.00510756 0)
(0.0655361 0.00514381 0)
(0.0482598 0.00513579 0)
(0.0310056 0.00505533 0)
(0.014239 0.00495161 0)
(-0.00159779 0.0047206 0)
(-0.0167844 0.00451048 0)
(-0.0313587 0.00427995 0)
(-0.0451193 0.00401156 0)
(-0.0580677 0.00377282 0)
(-0.070144 0.00349526 0)
(-0.0813914 0.00323517 0)
(-0.0918849 0.00299914 0)
(-0.101519 0.00273218 0)
(-0.110314 0.00248711 0)
(-0.118298 0.00224694 0)
(-0.125452 0.00200018 0)
(-0.131833 0.00178032 0)
(-0.137415 0.00154622 0)
(-0.142214 0.00132473 0)
(-0.146312 0.00112912 0)
(-0.149712 0.000932679 0)
(-0.152463 0.000739584 0)
(-0.154641 0.00056179 0)
(-0.156223 0.000397806 0)
(-0.157237 0.000241081 0)
(-0.157754 0.000101421 0)
(-0.157794 -6.52551e-05 0)
(-0.15733 -0.000210923 0)
(-0.15633 -0.000367421 0)
(-0.15477 -0.000536762 0)
(-0.152663 -0.000702465 0)
(-0.149957 -0.000894854 0)
(-0.146572 -0.00110845 0)
(-0.142469 -0.00132049 0)
(-0.137586 -0.00156982 0)
(-0.131886 -0.00181364 0)
(-0.125324 -0.00207911 0)
(-0.117812 -0.00238221 0)
(-0.109321 -0.0026608 0)
(-0.0998314 -0.00294626 0)
(-0.0893168 -0.00328256 0)
(-0.0777833 -0.00356846 0)
(-0.0652251 -0.00390112 0)
(-0.0516816 -0.00415793 0)
(-0.0372533 -0.0043906 0)
(-0.0219737 -0.0046723 0)
(-0.00599474 -0.00483991 0)
(0.0105086 -0.00495819 0)
(0.0274709 -0.00511967 0)
(0.0447153 -0.00513433 0)
(0.0620308 -0.00517943 0)
(0.0792113 -0.00507292 0)
(0.0960125 -0.0048955 0)
(0.112209 -0.00473087 0)
(0.127585 -0.00442705 0)
(0.141905 -0.00406019 0)
(0.154954 -0.0036822 0)
(0.166535 -0.00320472 0)
(0.176469 -0.00268357 0)
(0.184598 -0.00213735 0)
(0.1908 -0.00154441 0)
(0.19499 -0.000931896 0)
(0.197115 -0.000308346 0)
(0.197149 0.000302967 0)
(0.195077 0.000919501 0)
(0.19091 0.00152727 0)
(0.184815 0.00210558 0)
(0.176874 0.00261513 0)
(0.167235 0.00311125 0)
(0.156063 0.00350892 0)
(0.143548 0.00389845 0)
(0.129881 0.00423743 0)
(0.115262 0.00444451 0)
(0.0998983 0.0046637 0)
(0.0839819 0.00482835 0)
(0.0677026 0.00485844 0)
(0.0512346 0.00491569 0)
(0.0347311 0.00484858 0)
(0.0180386 0.00481257 0)
(0.00190803 0.00472327 0)
(-0.0134465 0.00454775 0)
(-0.0284324 0.00440166 0)
(-0.0445649 0.00422277 0)
(-0.169002 -0.000719403 0)
(-0.167411 -0.00104903 0)
(-0.164961 -0.00138364 0)
(-0.161824 -0.00172776 0)
(-0.157978 -0.00209061 0)
(-0.153393 -0.00246146 0)
(-0.14804 -0.00285923 0)
(-0.141883 -0.00326116 0)
(-0.134888 -0.00367659 0)
(-0.127024 -0.00413198 0)
(-0.118258 -0.00457397 0)
(-0.108566 -0.00502191 0)
(-0.0979294 -0.0055242 0)
(-0.0863334 -0.00597838 0)
(-0.0737812 -0.00649533 0)
(-0.060281 -0.0069331 0)
(-0.0458603 -0.00734393 0)
(-0.0305567 -0.00783317 0)
(-0.0144013 -0.00817808 0)
(0.00244526 -0.00846336 0)
(0.0198873 -0.00883792 0)
(0.0378702 -0.00899283 0)
(0.0561931 -0.00905342 0)
(0.0746793 -0.00919379 0)
(0.0931301 -0.00905802 0)
(0.111329 -0.00897822 0)
(0.129044 -0.00862139 0)
(0.146025 -0.0081438 0)
(0.16203 -0.0076767 0)
(0.176821 -0.00698245 0)
(0.190171 -0.0061894 0)
(0.201867 -0.00535363 0)
(0.211718 -0.00438583 0)
(0.219575 -0.00336742 0)
(0.225311 -0.00228292 0)
(0.228865 -0.00116925 0)
(0.23015 -5.72367e-05 0)
(0.229199 0.00104919 0)
(0.225913 0.00218918 0)
(0.220491 0.00320064 0)
(0.21302 0.00421031 0)
(0.203632 0.00505208 0)
(0.192516 0.00588679 0)
(0.179838 0.00665541 0)
(0.165811 0.00718115 0)
(0.15067 0.00770917 0)
(0.134612 0.00814775 0)
(0.117901 0.00833785 0)
(0.100707 0.00853677 0)
(0.0832184 0.00865405 0)
(0.0657326 0.00857263 0)
(0.048362 0.0084861 0)
(0.0312595 0.00825618 0)
(0.0146214 0.00803207 0)
(-0.00108214 0.00775773 0)
(-0.0160155 0.00740487 0)
(-0.030543 0.00706683 0)
(-0.0443637 0.0066881 0)
(-0.0573998 0.00626705 0)
(-0.0696317 0.0058619 0)
(-0.0810384 0.00543161 0)
(-0.091624 0.00502688 0)
(-0.101371 0.00460791 0)
(-0.110291 0.00419582 0)
(-0.118429 0.00381261 0)
(-0.125744 0.00340281 0)
(-0.132274 0.00301026 0)
(-0.138048 0.00264737 0)
(-0.143009 0.0022442 0)
(-0.147262 0.00191287 0)
(-0.150839 0.00154139 0)
(-0.153599 0.00115721 0)
(-0.155645 0.000855674 0)
(-0.157045 0.000491275 0)
(-0.157705 0.000103862 0)
(-0.157581 -0.000190708 0)
(-0.156842 -0.000609208 0)
(-0.155363 -0.000969869 0)
(-0.153083 -0.00127842 0)
(-0.150163 -0.00168557 0)
(-0.146525 -0.0020587 0)
(-0.142078 -0.00237636 0)
(-0.136889 -0.00276946 0)
(-0.131081 -0.00316117 0)
(-0.124415 -0.00348455 0)
(-0.116959 -0.00386809 0)
(-0.108939 -0.00425968 0)
(-0.100063 -0.00456198 0)
(-0.0904242 -0.00495715 0)
(-0.0802085 -0.00531306 0)
(-0.069198 -0.00561314 0)
(-0.0574763 -0.00595943 0)
(-0.0451729 -0.00628681 0)
(-0.032216 -0.00660491 0)
(-0.0186341 -0.00690171 0)
(-0.00442207 -0.00716273 0)
(0.0103421 -0.00743952 0)
(0.025601 -0.00768056 0)
(0.0412911 -0.00785973 0)
(0.057306 -0.00802453 0)
(0.0735645 -0.00808869 0)
(0.0899353 -0.00811049 0)
(0.106242 -0.00807292 0)
(0.12238 -0.00791188 0)
(0.138155 -0.00768107 0)
(0.153352 -0.00736777 0)
(0.167805 -0.00692793 0)
(0.181285 -0.00639942 0)
(0.193587 -0.00577713 0)
(0.20451 -0.00502829 0)
(0.213861 -0.00421267 0)
(0.221472 -0.00331419 0)
(0.227195 -0.0023404 0)
(0.230873 -0.00128617 0)
(0.232382 -0.000220107 0)
(0.231705 0.000894202 0)
(0.228676 0.00204125 0)
(0.223422 0.00316217 0)
(0.215968 0.00421438 0)
(0.206429 0.00522917 0)
(0.194902 0.00614747 0)
(0.181602 0.00698168 0)
(0.166773 0.00770586 0)
(0.150617 0.00828554 0)
(0.133371 0.00878088 0)
(0.115313 0.00910248 0)
(0.096704 0.00933957 0)
(0.0777889 0.00940636 0)
(0.0587999 0.00939959 0)
(0.0399553 0.00927039 0)
(0.0214544 0.00904525 0)
(0.00351727 0.00873298 0)
(-0.0137271 0.00839372 0)
(-0.0301955 0.00795044 0)
(-0.0457564 0.00748443 0)
(-0.0603363 0.00697213 0)
(-0.073883 0.00644274 0)
(-0.0863489 0.00594281 0)
(-0.0977259 0.00537048 0)
(-0.108031 0.00486061 0)
(-0.117302 0.0043379 0)
(-0.125564 0.00384444 0)
(-0.132809 0.00335816 0)
(-0.139114 0.00289926 0)
(-0.144513 0.00246487 0)
(-0.149076 0.00206122 0)
(-0.152856 0.001673 0)
(-0.155853 0.00133892 0)
(-0.158193 0.000998545 0)
(-0.159912 0.000683426 0)
(-0.160981 0.000401629 0)
(-0.161482 0.000102384 0)
(-0.161385 -0.000191332 0)
(-0.160681 -0.000486851 0)
(-0.159433 -0.000789144 0)
(-0.157561 -0.001053 0)
(-0.155092 -0.00137221 0)
(-0.151978 -0.00170389 0)
(-0.148219 -0.00202266 0)
(-0.143812 -0.00238061 0)
(-0.138684 -0.00267142 0)
(-0.132876 -0.00306377 0)
(-0.126343 -0.00341691 0)
(-0.119039 -0.00380063 0)
(-0.111008 -0.0042091 0)
(-0.102168 -0.00456086 0)
(-0.0925274 -0.004966 0)
(-0.082052 -0.00540917 0)
(-0.0707368 -0.00579888 0)
(-0.058663 -0.00620578 0)
(-0.0457433 -0.006623 0)
(-0.0319923 -0.00698641 0)
(-0.0174772 -0.00737717 0)
(-0.00219756 -0.00773733 0)
(0.0137455 -0.00805182 0)
(0.0302465 -0.00829739 0)
(0.0471951 -0.00846669 0)
(0.0644043 -0.00856823 0)
(0.081701 -0.00857078 0)
(0.0989086 -0.00847409 0)
(0.115797 -0.00822664 0)
(0.132082 -0.0078807 0)
(0.147511 -0.00740597 0)
(0.161833 -0.00675147 0)
(0.174755 -0.00600831 0)
(0.186004 -0.00512578 0)
(0.195369 -0.00413512 0)
(0.202625 -0.00304944 0)
(0.207596 -0.0018634 0)
(0.210142 -0.000637767 0)
(0.210192 0.000580592 0)
(0.207659 0.0018693 0)
(0.202634 0.0030777 0)
(0.195225 0.00423491 0)
(0.18553 0.00533894 0)
(0.173774 0.00630025 0)
(0.160147 0.00717487 0)
(0.144896 0.00791401 0)
(0.12832 0.00850618 0)
(0.110677 0.00893938 0)
(0.0922633 0.00926462 0)
(0.0733945 0.00942484 0)
(0.0543354 0.00946678 0)
(0.03534 0.00934929 0)
(0.0166945 0.00913646 0)
(-0.00141314 0.00883049 0)
(-0.0188298 0.00842648 0)
(-0.0353592 0.00796631 0)
(-0.050941 0.00751065 0)
(-0.0655384 0.00695371 0)
(-0.0790768 0.00644899 0)
(-0.0915171 0.00593073 0)
(-0.10293 0.00539473 0)
(-0.113327 0.00491147 0)
(-0.122701 0.00441902 0)
(-0.131138 0.00397329 0)
(-0.138696 0.00351907 0)
(-0.145405 0.003111 0)
(-0.151272 0.00272524 0)
(-0.156361 0.00232535 0)
(-0.160675 0.00194387 0)
(-0.164251 0.00163667 0)
(-0.167172 0.00126477 0)
(-0.169437 0.000955615 0)
(-0.171061 0.000687134 0)
(-0.17207 0.000340558 0)
(-0.172531 6.4169e-05 0)
(-0.172352 -0.000212709 0)
(-0.171524 -0.000569404 0)
(-0.170108 -0.000903505 0)
(-0.167942 -0.00120882 0)
(-0.165085 -0.00156375 0)
(-0.161604 -0.00192034 0)
(-0.157389 -0.00223875 0)
(-0.152451 -0.00263173 0)
(-0.146826 -0.00301437 0)
(-0.14035 -0.0033842 0)
(-0.133036 -0.00380326 0)
(-0.124983 -0.00422743 0)
(-0.116028 -0.00465505 0)
(-0.106172 -0.00509334 0)
(-0.0954099 -0.00558266 0)
(-0.0837038 -0.00601275 0)
(-0.0711199 -0.00645144 0)
(-0.057702 -0.00686959 0)
(-0.0434608 -0.00728854 0)
(-0.0284235 -0.00763628 0)
(-0.0127014 -0.00791318 0)
(0.00359784 -0.00817572 0)
(0.0203282 -0.00836878 0)
(0.0373554 -0.00848824 0)
(0.0545295 -0.00851874 0)
(0.0716412 -0.00842851 0)
(0.0884875 -0.00822884 0)
(0.104811 -0.00791345 0)
(0.120343 -0.00747884 0)
(0.13489 -0.00691612 0)
(0.14817 -0.00620837 0)
(0.15991 -0.00540272 0)
(0.169884 -0.00445729 0)
(0.177869 -0.00342587 0)
(0.183674 -0.00230669 0)
(0.187153 -0.00111564 0)
(0.188204 8.80973e-05 0)
(0.186797 0.00131941 0)
(0.182865 0.00254816 0)
(0.176562 0.00371461 0)
(0.168013 0.00477881 0)
(0.157469 0.00572756 0)
(0.145042 0.00658511 0)
(0.131012 0.00731651 0)
(0.1158 0.00781469 0)
(0.0996108 0.00822733 0)
(0.0827265 0.00851407 0)
(0.0655278 0.00857652 0)
(0.0482365 0.00856419 0)
(0.0309669 0.00842398 0)
(0.0141846 0.0082582 0)
(-0.00166535 0.00787222 0)
(-0.0168497 0.00751853 0)
(-0.0314337 0.00713553 0)
(-0.0451926 0.00668618 0)
(-0.058143 0.00629013 0)
(-0.0702222 0.00582492 0)
(-0.0814627 0.00539071 0)
(-0.091955 0.00499843 0)
(-0.101588 0.00455288 0)
(-0.11038 0.00414475 0)
(-0.118365 0.00374432 0)
(-0.125515 0.00333271 0)
(-0.131894 0.00296742 0)
(-0.137475 0.00257708 0)
(-0.14227 0.00220803 0)
(-0.146364 0.00188268 0)
(-0.149764 0.00155489 0)
(-0.152513 0.0012331 0)
(-0.154686 0.000943823 0)
(-0.156264 0.000668836 0)
(-0.157278 0.000403102 0)
(-0.157798 0.000166835 0)
(-0.157835 -0.000110313 0)
(-0.157372 -0.000351238 0)
(-0.156372 -0.000611867 0)
(-0.154815 -0.000894051 0)
(-0.152712 -0.00117011 0)
(-0.150009 -0.00149102 0)
(-0.146628 -0.00184662 0)
(-0.142529 -0.00219995 0)
(-0.137651 -0.00261558 0)
(-0.131956 -0.0030217 0)
(-0.125398 -0.00346504 0)
(-0.117889 -0.00396982 0)
(-0.1094 -0.00443429 0)
(-0.0999113 -0.00491027 0)
(-0.0893985 -0.00547136 0)
(-0.0778631 -0.00594746 0)
(-0.0653024 -0.00650242 0)
(-0.0517536 -0.00693078 0)
(-0.0373186 -0.00731888 0)
(-0.0220312 -0.00778876 0)
(-0.00604136 -0.00806816 0)
(0.0104739 -0.00826571 0)
(0.02745 -0.0085352 0)
(0.0447098 -0.00855991 0)
(0.0620426 -0.00863525 0)
(0.0792403 -0.00845778 0)
(0.0960585 -0.00816211 0)
(0.112275 -0.0078878 0)
(0.127667 -0.00738131 0)
(0.142003 -0.00676966 0)
(0.15507 -0.00613945 0)
(0.166665 -0.00534337 0)
(0.176609 -0.0044745 0)
(0.184751 -0.00356377 0)
(0.190959 -0.00257505 0)
(0.195153 -0.00155343 0)
(0.197283 -0.000513812 0)
(0.197319 0.000505246 0)
(0.195231 0.00153454 0)
(0.191065 0.00254661 0)
(0.184961 0.00351092 0)
(0.177007 0.00436067 0)
(0.167356 0.00518773 0)
(0.156168 0.00585062 0)
(0.143638 0.00650001 0)
(0.129956 0.00706509 0)
(0.11532 0.00741011 0)
(0.0999415 0.00777539 0)
(0.0840104 0.00804973 0)
(0.0677166 0.00809966 0)
(0.0512355 0.00819493 0)
(0.0347201 0.00808287 0)
(0.0180149 0.00802274 0)
(0.00187466 0.00787371 0)
(-0.0134864 0.00758086 0)
(-0.0284809 0.00733727 0)
(-0.0446212 0.00703898 0)
(-0.16908 -0.00100676 0)
(-0.16749 -0.00146811 0)
(-0.165042 -0.00193643 0)
(-0.161908 -0.00241812 0)
(-0.158065 -0.00292601 0)
(-0.153484 -0.00344514 0)
(-0.148135 -0.00400196 0)
(-0.141982 -0.00456469 0)
(-0.13499 -0.00514637 0)
(-0.127131 -0.00578399 0)
(-0.118367 -0.00640291 0)
(-0.108677 -0.00703028 0)
(-0.0980429 -0.0077337 0)
(-0.0864462 -0.00836986 0)
(-0.0738942 -0.00909395 0)
(-0.0603901 -0.00970727 0)
(-0.0459634 -0.0102827 0)
(-0.0306543 -0.010968 0)
(-0.0144883 -0.0114509 0)
(0.00237132 -0.011853 0)
(0.0198275 -0.0123773 0)
(0.0378293 -0.0125945 0)
(0.0561733 -0.0126799 0)
(0.0746834 -0.0128771 0)
(0.0931594 -0.0126874 0)
(0.111387 -0.0125762 0)
(0.12913 -0.0120766 0)
(0.146138 -0.0114079 0)
(0.162175 -0.0107539 0)
(0.176991 -0.00978152 0)
(0.190364 -0.00867062 0)
(0.202086 -0.00750025 0)
(0.211954 -0.00614446 0)
(0.219828 -0.0047184 0)
(0.225574 -0.00320008 0)
(0.229139 -0.00164146 0)
(0.230429 -7.74997e-05 0)
(0.229445 0.00147872 0)
(0.226163 0.00306687 0)
(0.220731 0.00448324 0)
(0.213244 0.00589867 0)
(0.203834 0.00707806 0)
(0.192696 0.00824702 0)
(0.179995 0.0093236 0)
(0.16594 0.0100599 0)
(0.150773 0.010799 0)
(0.134688 0.0114127 0)
(0.117951 0.0116793 0)
(0.100735 0.0119564 0)
(0.0832239 0.0121194 0)
(0.0657155 0.0120072 0)
(0.0483248 0.0118844 0)
(0.0312074 0.0115626 0)
(0.0145555 0.0112483 0)
(-0.00115689 0.0108613 0)
(-0.0160968 0.0103699 0)
(-0.0306322 0.00989525 0)
(-0.0444587 0.00936469 0)
(-0.0574974 0.0087748 0)
(-0.0697315 0.00820752 0)
(-0.0811374 0.00760486 0)
(-0.0917233 0.00703816 0)
(-0.101469 0.00645174 0)
(-0.110386 0.00587415 0)
(-0.118524 0.00533738 0)
(-0.125838 0.00476483 0)
(-0.132362 0.00421411 0)
(-0.138142 0.00370366 0)
(-0.143096 0.00314499 0)
(-0.147346 0.0026762 0)
(-0.150931 0.0021584 0)
(-0.153683 0.00162179 0)
(-0.155727 0.00119292 0)
(-0.157147 0.000687068 0)