/*--------------------------------*- C++ -*----------------------------------*\
| =========                 |                                                 |
| \\      /  F ield         | OpenFOAM: The Open Source CFD Toolbox           |
|  \\    /   O peration     | Version:  3.0.1                                 |
|   \\  /    A nd           | Web:      www.OpenFOAM.org                      |
|    \\/     M anipulation  |                                                 |
\*---------------------------------------------------------------------------*/
FoamFile
{
    version     2.0;
    format      ascii;
    class       surfaceScalarField;
    location    "92.6";
    object      alphaPhi;
}
// * * * * * * * * * * * * * * * * * * * * * * * * * * * * * * * * * * * * * //

dimensions      [0 3 -1 0 0 0 0];

internalField   nonuniform List<scalar> 
42423
(
0.000442754
-1.11946e-05
0.000452885
-1.01305e-05
0.000461612
-8.72666e-06
0.000468692
-7.08004e-06
0.000474008
-5.31631e-06
0.000477399
-3.39101e-06
0.00047875
-1.35048e-06
0.000478125
6.24408e-07
0.000475107
3.01819e-06
0.000469902
5.20536e-06
0.000462777
7.12434e-06
0.000453477
9.30024e-06
0.000442504
1.0973e-05
0.000429937
1.25674e-05
0.000416121
1.38157e-05
0.000401344
1.47771e-05
0.000385508
1.58363e-05
0.00036907
1.64371e-05
0.000352327
1.67434e-05
0.000335224
1.7103e-05
0.00031809
1.71337e-05
0.000301171
1.69192e-05
0.000284446
1.67252e-05
0.00026814
1.63056e-05
0.000252375
1.57659e-05
0.000237249
1.51253e-05
0.000222875
1.4374e-05
0.000209262
1.36137e-05
0.000196503
1.27591e-05
0.000184632
1.18703e-05
0.000173654
1.09786e-05
0.000163584
1.00701e-05
0.000154406
9.17769e-06
0.000146098
8.30809e-06
0.000138615
7.48271e-06
0.000131908
6.70722e-06
0.000125917
5.99073e-06
0.000120569
5.3479e-06
0.000115793
4.77684e-06
0.000111522
4.27086e-06
0.000107706
3.81558e-06
0.000104299
3.40689e-06
0.000101265
3.03425e-06
9.8581e-05
2.68394e-06
9.62301e-05
2.35093e-06
9.42105e-05
2.01957e-06
9.25262e-05
1.68436e-06
9.11916e-05
1.33463e-06
9.0221e-05
9.70602e-07
8.96274e-05
5.93551e-07
8.94493e-05
1.78134e-07
8.9765e-05
-3.15757e-07
9.05914e-05
-8.26364e-07
9.19155e-05
-1.32407e-06
9.3706e-05
-1.79053e-06
9.60289e-05
-2.32291e-06
9.89171e-05
-2.88825e-06
0.00010232
-3.40241e-06
0.000106384
-4.06407e-06
0.000111087
-4.70338e-06
0.000116575
-5.48797e-06
0.000122903
-6.32795e-06
0.000130084
-7.18147e-06
0.000138247
-8.16273e-06
0.000147471
-9.22418e-06
0.000157651
-1.01797e-05
0.000168872
-1.12215e-05
0.000181082
-1.22101e-05
0.000194094
-1.30118e-05
0.000207919
-1.38249e-05
0.000222113
-1.41942e-05
0.000236529
-1.44155e-05
0.000250788
-1.42598e-05
0.000264886
-1.40981e-05
0.000278381
-1.34944e-05
0.000291436
-1.30558e-05
0.000303734
-1.2298e-05
0.000315404
-1.16696e-05
0.00032684
-1.14361e-05
0.000337694
-1.08547e-05
0.000348331
-1.06374e-05
0.000358824
-1.04928e-05
0.00036918
-1.03559e-05
0.000379362
-1.01822e-05
0.000389113
-9.75056e-06
0.000398105
-8.99293e-06
0.000405919
-7.81348e-06
0.000412167
-6.24859e-06
0.000416536
-4.36915e-06
0.000418872
-2.33535e-06
0.0004191
-2.28492e-07
0.000417127
1.97281e-06
0.000412531
4.59634e-06
0.000405506
7.02539e-06
0.000396386
9.1194e-06
0.000385398
1.09881e-05
0.000372684
1.27141e-05
0.000358494
1.41901e-05
0.000342957
1.55367e-05
0.000326308
1.66487e-05
0.000308772
1.75362e-05
0.000290623
1.81493e-05
0.000272174
1.84486e-05
0.000253632
1.85423e-05
0.000235268
1.8364e-05
0.000217307
1.79611e-05
0.00019984
1.7467e-05
0.000183076
1.67643e-05
0.000167134
1.59425e-05
0.00015203
1.51038e-05
0.000137868
1.41622e-05
0.000124658
1.32095e-05
0.000112384
1.22742e-05
0.000101058
1.1326e-05
9.07133e-05
1.03447e-05
8.13376e-05
9.37571e-06
7.2899e-05
8.43864e-06
6.54352e-05
7.46379e-06
5.89251e-05
6.51009e-06
5.32984e-05
5.62673e-06
4.85493e-05
4.74913e-06
4.46526e-05
3.89669e-06
4.15437e-05
3.10897e-06
3.91947e-05
2.34895e-06
3.75579e-05
1.63688e-06
3.65575e-05
1.00035e-06
3.61945e-05
3.6302e-07
3.64027e-05
-2.08173e-07
3.71224e-05
-7.19644e-07
3.83794e-05
-1.25699e-06
4.00946e-05
-1.71523e-06
4.21929e-05
-2.0983e-06
4.47377e-05
-2.54473e-06
4.76137e-05
-2.87607e-06
5.07855e-05
-3.17172e-06
5.43408e-05
-3.55534e-06
5.81025e-05
-3.76169e-06
6.20786e-05
-3.97608e-06
6.6338e-05
-4.25934e-06
7.073e-05
-4.39204e-06
7.52685e-05
-4.53849e-06
8.006e-05
-4.79143e-06
8.49136e-05
-4.85366e-06
8.9901e-05
-4.98738e-06
9.5101e-05
-5.1999e-06
0.000100439
-5.33847e-06
0.00010602
-5.58081e-06
0.000111865
-5.84453e-06
0.000118013
-6.14779e-06
0.00012453
-6.517e-06
0.000131528
-6.99885e-06
0.000138973
-7.44419e-06
0.000146863
-7.89064e-06
0.00015529
-8.42652e-06
0.000164295
-9.00508e-06
0.000173844
-9.54945e-06
0.000183969
-1.01248e-05
0.000194654
-1.06845e-05
0.000205906
-1.12524e-05
0.000217663
-1.17572e-05
0.00022986
-1.21972e-05
0.000242462
-1.26014e-05
0.000255312
-1.28508e-05
0.000268316
-1.30037e-05
0.000281325
-1.30094e-05
0.000294184
-1.28586e-05
0.00030674
-1.25557e-05
0.000318843
-1.21028e-05
0.000330252
-1.14089e-05
0.000340841
-1.05897e-05
0.000350372
-9.53085e-06
0.000358651
-8.27814e-06
0.000365534
-6.88316e-06
0.000370787
-5.25299e-06
0.000374298
-3.51091e-06
0.000375936
-1.6374e-06
0.000375647
2.89831e-07
0.00037338
2.26697e-06
0.00036904
4.34004e-06
0.000362801
6.23917e-06
0.000354764
8.03727e-06
0.000345023
9.74157e-06
0.000333821
1.12021e-05
0.000321379
1.24427e-05
0.000307909
1.34701e-05
0.000293679
1.42302e-05
0.000278943
1.47364e-05
0.000263929
1.50137e-05
0.000248842
1.50878e-05
0.00023394
1.49012e-05
0.000219328
1.46127e-05
0.000205126
1.42022e-05
0.000191451
1.3675e-05
0.000178346
1.31055e-05
0.000165856
1.24901e-05
0.000153995
1.18609e-05
0.000142784
1.12105e-05
0.000132261
1.05232e-05
0.000122453
9.80787e-06
0.000113364
9.08905e-06
0.000104978
8.38681e-06
9.72927e-05
7.68495e-06
9.02704e-05
7.0223e-06
8.38704e-05
6.4001e-06
7.80742e-05
5.79617e-06
7.27818e-05
5.29247e-06
6.79914e-05
4.79043e-06
6.36409e-05
4.35047e-06
5.9704e-05
3.93695e-06
5.61711e-05
3.53283e-06
5.2955e-05
3.21612e-06
5.018e-05
2.77499e-06
4.77345e-05
2.44557e-06
4.56864e-05
2.04806e-06
4.41106e-05
1.57579e-06
4.29335e-05
1.17709e-06
4.21873e-05
7.46217e-07
4.19011e-05
2.86276e-07
4.20582e-05
-1.57123e-07
4.26813e-05
-6.23056e-07
4.37838e-05
-1.10253e-06
4.53787e-05
-1.59487e-06
4.74943e-05
-2.11565e-06
5.01394e-05
-2.64505e-06
5.32431e-05
-3.10375e-06
5.67877e-05
-3.54453e-06
6.0821e-05
-4.03336e-06
6.52292e-05
-4.4082e-06
7.01651e-05
-4.93585e-06
7.56489e-05
-5.4838e-06
8.16896e-05
-6.04074e-06
8.85332e-05
-6.84357e-06
9.61653e-05
-7.63209e-06
0.000104689
-8.52337e-06
0.000114033
-9.3439e-06
0.000124205
-1.01729e-05
0.000135235
-1.10297e-05
0.000147022
-1.1787e-05
0.000159651
-1.26284e-05
0.000173018
-1.33675e-05
0.000187075
-1.40573e-05
0.000201939
-1.48639e-05
0.000217419
-1.54796e-05
0.000233622
-1.62031e-05
0.000250468
-1.6846e-05
0.0002678
-1.73321e-05
0.000285621
-1.78211e-05
0.000303653
-1.80326e-05
0.000321708
-1.80548e-05
0.00033961
-1.79025e-05
0.000357004
-1.73937e-05
0.000373633
-1.66294e-05
0.000389162
-1.55292e-05
0.000403344
-1.41823e-05
0.000415852
-1.2508e-05
0.000426379
-1.05271e-05
0.000434832
-8.45237e-06
0.000440935
-6.1031e-06
0.0004446
-3.66572e-06
0.000445839
-1.23917e-06
0.00044466
1.1794e-06
0.00044095
3.70918e-06
0.000434733
6.21718e-06
0.000426118
8.615e-06
0.000415187
1.09309e-05
0.000402174
1.30122e-05
0.000387249
1.49253e-05
0.000370707
1.65413e-05
0.000352859
1.78478e-05
0.000334103
1.87552e-05
0.00031456
1.95432e-05
0.000294755
1.98036e-05
0.000275166
1.9589e-05
0.000255985
1.91796e-05
0.000237487
1.84974e-05
0.000220001
1.74847e-05
0.000203672
1.63282e-05
0.000188712
1.49599e-05
0.000175215
1.34961e-05
0.000163257
1.19569e-05
0.000153103
1.0153e-05
0.00014448
8.62265e-06
0.000137261
7.21834e-06
0.000131357
5.90316e-06
0.000126489
4.86723e-06
0.000122437
4.05242e-06
0.000119034
3.40233e-06
0.000116008
3.02582e-06
0.000113262
2.74621e-06
0.000110661
2.60037e-06
0.000108127
2.53375e-06
0.000105665
2.46174e-06
0.000103287
2.37783e-06
0.000101014
2.27343e-06
9.88999e-05
2.11395e-06
9.69933e-05
1.9065e-06
9.53399e-05
1.65338e-06
9.39655e-05
1.37444e-06
9.29044e-05
1.06113e-06
9.21548e-05
7.49603e-07
9.171e-05
4.44731e-07
9.15381e-05
1.7189e-07
9.1682e-05
-1.43859e-07
9.21327e-05
-4.50772e-07
9.28749e-05
-7.42145e-07
9.38607e-05
-9.85795e-07
9.50987e-05
-1.23803e-06
9.65658e-05
-1.46712e-06
9.83002e-05
-1.7344e-06
0.00010034
-2.04012e-06
0.000102692
-2.35187e-06
0.000105446
-2.75422e-06
0.000108681
-3.23445e-06
0.000112403
-3.72268e-06
0.000116846
-4.44228e-06
0.000122001
-5.15573e-06
0.000128047
-6.04593e-06
0.000135122
-7.07507e-06
0.00014302
-7.89814e-06
0.000151976
-8.95566e-06
0.000162143
-1.01668e-05
0.000173097
-1.09546e-05
0.000185183
-1.2086e-05
0.00019812
-1.29366e-05
0.000212068
-1.39481e-05
0.000226953
-1.48846e-05
0.000242286
-1.53334e-05
0.000258226
-1.59404e-05
0.000274729
-1.6503e-05
0.000291336
-1.66064e-05
0.000308009
-1.66734e-05
0.000324719
-1.67099e-05
0.000341052
-1.63332e-05
0.000356901
-1.58495e-05
0.000372068
-1.5167e-05
0.000386398
-1.43298e-05
0.000399682
-1.32848e-05
0.000411692
-1.20096e-05
0.000422196
-1.05041e-05
0.00043113
-8.93373e-06
0.000438282
-7.15225e-06
0.000443579
-5.29728e-06
0.000447003
-3.42407e-06
0.000448395
-1.3917e-06
0.000447802
5.92146e-07
0.000445165
2.63751e-06
0.000440718
4.44687e-06
0.000434703
6.01438e-06
0.000426938
7.76557e-06
0.00041779
9.14794e-06
0.00040735
1.04401e-05
0.000395896
1.14539e-05
0.00038364
1.22553e-05
0.000370562
1.30788e-05
0.000357046
1.35154e-05
0.000343282
1.37637e-05
1.42197e-05
0.00044281
-2.24017e-05
0.000452954
-2.02741e-05
0.000461694
-1.74667e-05
0.000468794
-1.41801e-05
0.00047412
-1.06422e-05
0.000477507
-6.77804e-06
0.000478877
-2.72011e-06
0.000478241
1.26079e-06
0.000475215
6.0438e-06
0.000470009
1.04117e-05
0.00046288
1.42532e-05
0.000453572
1.86078e-05
0.000442592
2.19535e-05
0.000430014
2.51453e-05
0.000416187
2.7643e-05
0.000401399
2.95644e-05
0.000385552
3.16838e-05
0.000369104
3.2885e-05
0.000352352
3.34959e-05
0.000335239
3.42155e-05
0.000318097
3.42758e-05
0.000301171
3.38451e-05
0.000284438
3.34583e-05
0.000268125
3.26188e-05
0.000252352
3.1539e-05
0.00023722
3.02568e-05
0.000222841
2.87531e-05
0.000209226
2.72293e-05
0.000196465
2.55197e-05
0.00018459
2.37452e-05
0.000173608
2.19603e-05
0.000163539
2.01399e-05
0.000154359
1.8357e-05
0.000146048
1.66193e-05
0.000138561
1.49698e-05
0.000131852
1.34163e-05
0.00012586
1.19826e-05
0.000120513
1.06951e-05
0.00011574
9.55019e-06
0.000111477
8.53392e-06
0.000107671
7.62159e-06
0.000104268
6.80917e-06
0.000101236
6.0664e-06
9.85559e-05
5.3643e-06
9.62088e-05
4.69796e-06
9.41903e-05
4.03815e-06
9.25071e-05
3.36757e-06
9.11725e-05
2.66921e-06
9.0202e-05
1.94105e-06
8.96081e-05
1.18752e-06
8.94306e-05
3.55612e-07
8.9747e-05
-6.32143e-07
9.05705e-05
-1.64992e-06
9.1891e-05
-2.64453e-06
9.36798e-05
-3.5793e-06
9.60012e-05
-4.64439e-06
9.88876e-05
-5.77462e-06
0.000102288
-6.80255e-06
0.000106349
-8.12504e-06
0.000111048
-9.40294e-06
0.000116531
-1.0971e-05
0.000122856
-1.2653e-05
0.000130036
-1.43615e-05
0.000138198
-1.63246e-05
0.000147418
-1.84437e-05
0.0001576
-2.0362e-05
0.000168828
-2.24499e-05
0.000181041
-2.44232e-05
0.000194062
-2.60326e-05
0.000207896
-2.76591e-05
0.00022211
-2.84079e-05
0.000236558
-2.88634e-05
0.000250841
-2.85432e-05
0.000264949
-2.82068e-05
0.000278461
-2.70063e-05
0.000291541
-2.61354e-05
0.00030386
-2.46172e-05
0.00031555
-2.33603e-05
0.000327016
-2.2902e-05
0.000337903
-2.17418e-05
0.000348574
-2.13088e-05
0.000359106
-2.10247e-05
0.00036949
-2.07408e-05
0.0003797
-2.03914e-05
0.000389473
-1.95244e-05
0.00039848
-1.79997e-05
0.000406308
-1.56413e-05
0.000412578
-1.25192e-05
0.000416964
-8.75509e-06
0.00041931
-4.68196e-06
0.000419544
-4.62619e-07
0.000417549
3.96846e-06
0.000412926
9.21872e-06
0.000405888
1.40638e-05
0.000396763
1.82443e-05
0.000385773
2.19782e-05
0.000373049
2.54372e-05
0.000358838
2.8402e-05
0.000343288
3.10864e-05
0.000326631
3.33058e-05
0.000309083
3.50838e-05
0.000290924
3.63082e-05
0.000272459
3.6914e-05
0.000253913
3.70879e-05
0.000235546
3.67309e-05
0.000217568
3.594e-05
0.000200087
3.49472e-05
0.000183317
3.35345e-05
0.000167373
3.18873e-05
0.00015227
3.02061e-05
0.000138111
2.83222e-05
0.000124892
2.6428e-05
0.00011261
2.45562e-05
0.000101279
2.26572e-05
9.09357e-05
2.0688e-05
8.15582e-05
1.87533e-05
7.31143e-05
1.68825e-05
6.56548e-05
1.49233e-05
5.91417e-05
1.30233e-05
5.35112e-05
1.12572e-05
4.87571e-05
9.50324e-06
4.48672e-05
7.78659e-06
4.17632e-05
6.21306e-06
3.94123e-05
4.6998e-06
3.77788e-05
3.27044e-06
3.67675e-05
2.01167e-06
3.64099e-05
7.20629e-07
3.66274e-05
-4.25619e-07
3.7345e-05
-1.43721e-06
3.86008e-05
-2.51282e-06
4.0307e-05
-3.4214e-06
4.24106e-05
-4.20182e-06
4.49681e-05
-5.10224e-06
4.78465e-05
-5.75446e-06
5.10191e-05
-6.34426e-06
5.45746e-05
-7.11078e-06
5.83301e-05
-7.51714e-06
6.23125e-05
-7.95852e-06
6.65728e-05
-8.51959e-06
7.09705e-05
-8.78966e-06
7.55175e-05
-9.08553e-06
8.03113e-05
-9.58513e-06
8.51593e-05
-9.70169e-06
9.01444e-05
-9.97244e-06
9.53431e-05
-1.03986e-05
0.000100681
-1.06768e-05
0.000106263
-1.11626e-05
0.000112114
-1.16953e-05
0.000118255
-1.2289e-05
0.000124764
-1.30258e-05
0.000131761
-1.39961e-05
0.000139204
-1.4887e-05
0.000147093
-1.57791e-05
0.000155521
-1.68552e-05
0.000164521
-1.80047e-05
0.000174072
-1.91004e-05
0.000184198
-2.02511e-05
0.000194879
-2.1365e-05
0.000206129
-2.25029e-05
0.000217882
-2.35105e-05
0.000230091
-2.44057e-05
0.000242698
-2.52092e-05
0.000255555
-2.57072e-05
0.00026856
-2.60089e-05
0.000281569
-2.60185e-05
0.000294434
-2.57231e-05
0.000306992
-2.51143e-05
0.000319107
-2.42176e-05
0.000330539
-2.28404e-05
0.000341151
-2.12021e-05
0.000350695
-1.90745e-05
0.000358991
-1.65741e-05
0.000365879
-1.37717e-05
0.000371126
-1.0499e-05
0.000374647
-7.03173e-06
0.000376297
-3.28763e-06
0.000376005
5.82332e-07
0.000373735
4.53684e-06
0.0003694
8.67528e-06
0.000363152
1.2487e-05
0.000355103
1.60872e-05
0.000345352
1.94929e-05
0.000334134
2.24196e-05
0.000321683
2.48939e-05
0.000308205
2.69486e-05
0.000293955
2.84804e-05
0.000279202
2.94893e-05
0.000264168
3.00482e-05
0.000249057
3.01996e-05
0.000234131
2.98268e-05
0.000219499
2.92448e-05
0.00020528
2.84212e-05
0.000191592
2.73638e-05
0.000178463
2.62341e-05
0.000165952
2.50014e-05
0.000154075
2.3738e-05
0.000142845
2.24403e-05
0.000132302
2.10667e-05
0.000122468
1.96417e-05
0.000113352
1.82058e-05
0.000104953
1.67854e-05
9.72536e-05
1.53845e-05
9.02136e-05
1.40624e-05
8.37958e-05
1.28179e-05
7.79826e-05
1.16093e-05
7.26748e-05
1.06003e-05
6.78778e-05
9.58741e-06
6.35154e-05
8.7129e-06
5.95539e-05
7.89841e-06
5.60001e-05
7.08671e-06
5.27661e-05
6.45005e-06
4.99769e-05
5.56419e-06
4.75185e-05
4.90403e-06
4.54552e-05
4.11139e-06
4.3862e-05
3.16896e-06
4.26691e-05
2.36994e-06
4.19096e-05
1.50576e-06
4.16133e-05
5.82605e-07
4.17722e-05
-3.16053e-07
4.24006e-05
-1.25144e-06
4.34912e-05
-2.19318e-06
4.50716e-05
-3.1752e-06
4.71819e-05
-4.22597e-06
4.98206e-05
-5.28368e-06
5.29283e-05
-6.21145e-06
5.64776e-05
-7.09381e-06
6.05078e-05
-8.06352e-06
6.49135e-05
-8.81395e-06
6.98496e-05
-9.87186e-06
7.5333e-05
-1.09672e-05
8.13801e-05
-1.20878e-05
8.82272e-05
-1.36907e-05
9.58649e-05
-1.52697e-05
0.000104405
-1.70635e-05
0.000113754
-1.86924e-05
0.000123939
-2.03585e-05
0.000134976
-2.20661e-05
0.000146784
-2.35951e-05
0.000159425
-2.52698e-05
0.000172797
-2.67391e-05
0.000186875
-2.81357e-05
0.000201756
-2.97451e-05
0.000217244
-3.09674e-05
0.00023346
-3.24189e-05
0.000250321
-3.37069e-05
0.000267664
-3.46753e-05
0.000285508
-3.56657e-05
0.000303554
-3.60779e-05
0.000321623
-3.61241e-05
0.000339532
-3.58115e-05
0.000356943
-3.48052e-05
0.000373594
-3.32799e-05
0.000389142
-3.10777e-05
0.000403344
-2.83842e-05
0.000415866
-2.50302e-05
0.000426401
-2.10626e-05
0.000434853
-1.69047e-05
0.000440963
-1.22126e-05
0.000444631
-7.33435e-06
0.000445866
-2.47453e-06
0.000444682
2.36321e-06
0.000440968
7.42286e-06
0.000434747
1.24387e-05
0.000426128
1.72331e-05
0.000415183
2.18761e-05
0.000402159
2.60354e-05
0.000387214
2.987e-05
0.00037065
3.3105e-05
0.000352797
3.57002e-05
0.000334023
3.75286e-05
0.000314468
3.90981e-05
0.000294666
3.96053e-05
0.000275073
3.91808e-05
0.000255885
3.83666e-05
0.000237386
3.69962e-05
0.000219905
3.49648e-05
0.000203576
3.26561e-05
0.000188614
2.9921e-05
0.000175115
2.69942e-05
0.000163154
2.39176e-05
0.000152995
2.03108e-05
0.000144369
1.72479e-05
0.00013715
1.4437e-05
0.000131245
1.18067e-05
0.000126379
9.73337e-06
0.000122329
8.10227e-06
0.00011893
6.8004e-06
0.000115909
6.04639e-06
0.000113169
5.48663e-06
0.000110575
5.19344e-06
0.000108049
5.0603e-06
0.000105594
4.9162e-06
0.000103223
4.74893e-06
0.000100956
4.54063e-06
9.88478e-05
4.2217e-06
9.69465e-05
3.80775e-06
9.52973e-05
3.30259e-06
9.39267e-05
2.74504e-06
9.28698e-05
2.11802e-06
9.21237e-05
1.49569e-06
9.16813e-05
8.87105e-07
9.15106e-05
3.42573e-07
9.16562e-05
-2.89509e-07
9.21097e-05
-9.04238e-07
9.28533e-05
-1.4858e-06
9.38376e-05
-1.97011e-06
9.50696e-05
-2.47001e-06
9.65314e-05
-2.9289e-06
9.82617e-05
-3.46468e-06
0.000100282
-4.0608e-06
0.000102607
-4.67644e-06
0.000105351
-5.4983e-06
0.000108579
-6.46219e-06
0.000112311
-7.45467e-06
0.000116746
-8.87794e-06
0.000121884
-1.02935e-05
0.000127944
-1.21056e-05
0.000135028
-1.41593e-05
0.000142923
-1.57936e-05
0.000151873
-1.79057e-05
0.000162042
-2.0336e-05
0.000172983
-2.18954e-05
0.000185067
-2.41706e-05
0.000198025
-2.58946e-05
0.000211987
-2.79102e-05
0.000226878
-2.97753e-05
0.000242195
-3.06507e-05
0.000258133
-3.18792e-05
0.000274646
-3.30155e-05
0.000291261
-3.32215e-05
0.000307961
-3.33737e-05
0.000324695
-3.34441e-05
0.000341021
-3.26598e-05
0.000356875
-3.17031e-05
0.000372061
-3.03532e-05
0.000386407
-2.86766e-05
0.000399701
-2.65785e-05
0.000411722
-2.40312e-05
0.000422242
-2.10241e-05
0.000431174
-1.78654e-05
0.000438327
-1.43057e-05
0.000443642
-1.06128e-05
0.000447054
-6.83604e-06
0.000448443
-2.78056e-06
0.000447862
1.17233e-06
0.000445232
5.26823e-06
0.000440794
8.88444e-06
0.000434777
1.2031e-05
0.000427006
1.55371e-05
0.00041785
1.83031e-05
0.000407402
2.08883e-05
0.000395939
2.29165e-05
0.000383675
2.45196e-05
0.000370587
2.61665e-05
0.000357063
2.70388e-05
0.000343293
2.75345e-05
2.84495e-05
0.000442923
-3.36343e-05
0.00045311
-3.04606e-05
0.000461882
-2.62383e-05
0.000468994
-2.1293e-05
0.000474359
-1.60063e-05
0.00047777
-1.0189e-05
0.000479161
-4.11172e-06
0.000478464
1.95845e-06
0.000475384
9.12372e-06
0.000470172
1.56232e-05
0.000463035
2.13905e-05
0.000453713
2.79292e-05
0.000442716
3.29509e-05
0.000430121
3.77406e-05
0.000416275
4.14883e-05
0.000401469
4.43706e-05
0.000385603
4.75506e-05
0.000369137
4.93506e-05
0.000352368
5.02647e-05
0.000335241
5.13426e-05
0.000318085
5.14316e-05
0.000301147
5.07833e-05
0.000284403
5.02028e-05
0.00026808
4.89414e-05
0.000252299
4.73202e-05
0.00023716
4.53957e-05
0.000222777
4.31366e-05
0.000209155
4.08508e-05
0.000196388
3.82864e-05
0.000184512
3.56216e-05
0.000173528
3.29445e-05
0.000163456
3.02122e-05
0.000154276
2.75365e-05
0.000145966
2.49296e-05
0.000138481
2.24547e-05
0.000131769
2.01281e-05
0.000125772
1.79796e-05
0.000120428
1.6039e-05
0.000115667
1.43114e-05
0.000111412
1.27891e-05
0.000107612
1.1422e-05
0.000104219
1.02018e-05
0.000101195
9.09036e-06
9.85174e-05
8.042e-06
9.61755e-05
7.03989e-06
9.41619e-05
6.05179e-06
9.24802e-05
5.04926e-06
9.11476e-05
4.00175e-06
9.01825e-05
2.90618e-06
8.95941e-05
1.77595e-06
8.94173e-05
5.32364e-07
8.97262e-05
-9.41061e-07
9.05392e-05
-2.46289e-06
9.18538e-05
-3.95909e-06
9.36411e-05
-5.36661e-06
9.59611e-05
-6.96441e-06
9.88455e-05
-8.65898e-06
0.000102243
-1.02004e-05
0.0001063
-1.21823e-05
0.000110996
-1.40982e-05
0.000116475
-1.64506e-05
0.000122794
-1.89719e-05
0.000129969
-2.15362e-05
0.000138128
-2.44835e-05
0.000147347
-2.76631e-05
0.000157527
-3.05419e-05
0.000168761
-3.36836e-05
0.000180985
-3.66476e-05
0.000194021
-3.90685e-05
0.000207874
-4.15129e-05
0.000222112
-4.26461e-05
0.000236594
-4.33454e-05
0.000250916
-4.2865e-05
0.000265058
-4.23494e-05
0.000278592
-4.05399e-05
0.000291702
-3.92463e-05
0.000304063
-3.69783e-05
0.000315791
-3.50878e-05
0.000327305
-3.44169e-05
0.000338237
-3.2674e-05
0.00034894
-3.20116e-05
0.000359514
-3.15986e-05
0.000369955
-3.11818e-05
0.000380228
-3.06653e-05
0.000390051
-2.9347e-05
0.000399097
-2.70461e-05
0.000406976
-2.35206e-05
0.000413307
-1.88502e-05
0.000417768
-1.32165e-05
0.000420153
-7.06618e-06
0.000420335
-6.45122e-07
0.00041821
6.09352e-06
0.000413543
1.38857e-05
0.000406503
2.11031e-05
0.000397374
2.73736e-05
0.000386376
3.29766e-05
0.000373655
3.81574e-05
0.000359414
4.26437e-05
0.00034384
4.66597e-05
0.000327159
4.9987e-05
0.000309596
5.26475e-05
0.000291436
5.44678e-05
0.000272959
5.53913e-05
0.000254391
5.56558e-05
0.000236007
5.51147e-05
0.000218016
5.39313e-05
0.000200524
5.24387e-05
0.000183757
5.03019e-05
0.000167806
4.78387e-05
0.000152701
4.53112e-05
0.000138544
4.24793e-05
0.000125326
3.96461e-05
0.000113038
3.68436e-05
0.000101702
3.39933e-05
9.13592e-05
3.10311e-05
8.19816e-05
2.8131e-05
7.35377e-05
2.53264e-05
6.6082e-05
2.2379e-05
5.95631e-05
1.95422e-05
5.39304e-05
1.689e-05
4.91872e-05
1.42464e-05
4.52952e-05
1.16786e-05
4.21867e-05
9.32159e-06
3.98406e-05
7.04593e-06
3.82093e-05
4.90178e-06
3.7202e-05
3.0189e-06
3.6844e-05
1.07873e-06
3.70605e-05
-6.42153e-07
3.77814e-05
-2.1581e-06
3.90392e-05
-3.77054e-06
4.07503e-05
-5.13246e-06
4.28585e-05
-6.31001e-06
4.54137e-05
-7.6574e-06
4.82924e-05
-8.63311e-06
5.14701e-05
-9.522e-06
5.50265e-05
-1.06672e-05
5.87804e-05
-1.12709e-05
6.2767e-05
-1.19451e-05
6.70243e-05
-1.27768e-05
7.14234e-05
-1.31888e-05
7.59814e-05
-1.36435e-05
8.07841e-05
-1.43877e-05
8.5622e-05
-1.45396e-05
9.06026e-05
-1.4953e-05
9.57996e-05
-1.55955e-05
0.000101144
-1.60211e-05
0.000106719
-1.67379e-05
0.000112556
-1.75323e-05
0.000118688
-1.84206e-05
0.0001252
-1.95377e-05
0.0001322
-2.09962e-05
0.000139632
-2.23186e-05
0.000147515
-2.36624e-05
0.000155939
-2.52798e-05
0.000164932
-2.69976e-05
0.000174468
-2.86361e-05
0.000184586
-3.03687e-05
0.000195263
-3.20421e-05
0.000206518
-3.37581e-05
0.000218273
-3.52653e-05
0.000230477
-3.66101e-05
0.000243084
-3.78156e-05
0.000255943
-3.85663e-05
0.000268952
-3.90178e-05
0.000281968
-3.90348e-05
0.000294843
-3.8598e-05
0.000307412
-3.76836e-05
0.000319539
-3.63443e-05
0.000330979
-3.42802e-05
0.000341604
-3.18271e-05
0.000351163
-2.86339e-05
0.00035948
-2.48906e-05
0.000366386
-2.06772e-05
0.000371647
-1.57599e-05
0.000375182
-1.05669e-05
0.000376849
-4.95446e-06
0.000376545
8.86384e-07
0.000374269
6.81263e-06
0.000369942
1.30026e-05
0.000363697
1.87326e-05
0.000355637
2.41476e-05
0.00034587
2.92601e-05
0.000334636
3.36531e-05
0.000322161
3.73699e-05
0.000308654
4.04557e-05
0.000294375
4.27598e-05
0.000279588
4.42761e-05
0.000264525
4.51118e-05
0.000249392
4.53324e-05
0.000234438
4.47808e-05
0.000219774
4.39085e-05
0.000205529
4.26671e-05
0.00019181
4.10821e-05
0.000178657
3.93873e-05
0.000166119
3.75396e-05
0.000154208
3.56489e-05
0.000142947
3.37022e-05
0.000132373
3.16402e-05
0.000122505
2.95096e-05
0.000113356
2.73546e-05
0.000104927
2.52142e-05
9.7198e-05
2.31139e-05
9.01411e-05
2.11193e-05
8.36954e-05
1.92636e-05
7.78537e-05
1.7451e-05
7.2517e-05
1.5937e-05
6.76882e-05
1.44161e-05
6.3299e-05
1.31022e-05
5.93034e-05
1.18939e-05
5.57211e-05
1.0669e-05
5.24652e-05
9.70588e-06
4.96439e-05
8.38551e-06
4.71567e-05
7.39126e-06
4.50636e-05
6.20445e-06
4.34353e-05
4.7972e-06
4.22263e-05
3.57899e-06
4.14479e-05
2.28415e-06
4.11284e-05
9.02083e-07
4.12634e-05
-4.51043e-07
4.18734e-05
-1.86144e-06
4.29504e-05
-3.27015e-06
4.4522e-05
-4.7468e-06
4.66281e-05
-6.33205e-06
4.92667e-05
-7.92227e-06
5.23767e-05
-9.32138e-06
5.59311e-05
-1.06482e-05
5.99631e-05
-1.20955e-05
6.43722e-05
-1.32229e-05
6.93071e-05
-1.48067e-05
7.47856e-05
-1.64457e-05
8.08355e-05
-1.81375e-05
8.76942e-05
-2.05493e-05
9.53447e-05
-2.29201e-05
0.000103897
-2.56153e-05
0.00011326
-2.80559e-05
0.000123463
-3.05608e-05
0.000134508
-3.31111e-05
0.000146337
-3.54246e-05
0.000158993
-3.79251e-05
0.000172378
-4.01248e-05
0.000186477
-4.22339e-05
0.000201372
-4.46406e-05
0.000216885
-4.64805e-05
0.000233116
-4.86491e-05
0.000249989
-5.058e-05
0.000267364
-5.20507e-05
0.000285229
-5.35301e-05
0.000303303
-5.41522e-05
0.000321408
-5.42288e-05
0.000339336
-5.37401e-05
0.000356773
-5.22422e-05
0.000373453
-4.99592e-05
0.000389029
-4.66536e-05
0.00040326
-4.26162e-05
0.000415804
-3.75739e-05
0.000426366
-3.16243e-05
0.000434828
-2.53675e-05
0.000440937
-1.83212e-05
0.000444619
-1.10171e-05
0.000445865
-3.71988e-06
0.000444644
3.58341e-06
0.00044091
1.11573e-05
0.000434678
1.86704e-05
0.000426041
2.58697e-05
0.000415075
3.28416e-05
0.000402028
3.90823e-05
0.000387069
4.48283e-05
0.000370491
4.96828e-05
0.000352629
5.35618e-05
0.000333836
5.6321e-05
0.000314272
5.86619e-05
0.000294469
5.94076e-05
0.000274878
5.87713e-05
0.00025569
5.75533e-05
0.000237193
5.54925e-05
0.000219723
5.24335e-05
0.000203407
4.89709e-05
0.000188452
4.48759e-05
0.000174955
4.04896e-05
0.000162993
3.58789e-05
0.000152832
3.04713e-05
0.000144205
2.58735e-05
0.000136984
2.16573e-05
0.000131083
1.77079e-05
0.000126222
1.45939e-05
0.000122175
1.21485e-05
0.000118783
1.0192e-05
0.000115769
9.05957e-06
0.000113037
8.21897e-06
0.000110454
7.77624e-06
0.000107937
7.57717e-06
0.000105492
7.36126e-06
0.00010313
7.11007e-06
0.000100872
6.79888e-06
9.8773e-05
6.32076e-06
9.68804e-05
5.70039e-06
9.5237e-05
4.94592e-06
9.38723e-05
4.10973e-06
9.28197e-05
3.17061e-06
9.20716e-05
2.24379e-06
9.16316e-05
1.32713e-06
9.14708e-05
5.03286e-07
9.16263e-05
-4.45009e-07
9.20858e-05
-1.36376e-06
9.28329e-05
-2.2329e-06
9.38169e-05
-2.95415e-06
9.50435e-05
-3.69661e-06
9.64936e-05
-4.37896e-06
9.82036e-05
-5.17475e-06
0.000100199
-6.05657e-06
0.000102502
-6.97913e-06
0.00010522
-8.21652e-06
0.000108434
-9.6758e-06
0.000112148
-1.11689e-05
0.000116572
-1.3302e-05
0.000121718
-1.54393e-05
0.000127776
-1.8164e-05
0.000134842
-2.12249e-05
0.00014273
-2.36823e-05
0.000151687
-2.68622e-05
0.000161856
-3.05057e-05
0.000172805
-3.28446e-05
0.000184892
-3.62576e-05
0.000197854
-3.88571e-05
0.000211832
-4.18878e-05
0.000226723
-4.4667e-05
0.000242053
-4.59803e-05
0.000258012
-4.78389e-05
0.000274542
-4.95454e-05
0.000291172
-4.98518e-05
0.000307885
-5.00863e-05
0.000324619
-5.01784e-05
0.000340967
-4.9008e-05
0.000356849
-4.75856e-05
0.000372054
-4.55579e-05
0.00038642
-4.30426e-05
0.000399737
-3.98964e-05
0.000411776
-3.60699e-05
0.000422305
-3.1553e-05
0.000431249
-2.68101e-05
0.000438413
-2.14696e-05
0.00044372
-1.59203e-05
0.000447135
-1.02506e-05
0.000448549
-4.19451e-06
0.000447968
1.75263e-06
0.000445345
7.89123e-06
0.000440923
1.3306e-05
0.000434901
1.80534e-05
0.000427118
2.33203e-05
0.000417949
2.74717e-05
0.000407486
3.13514e-05
0.000396008
3.43942e-05
0.000383728
3.67988e-05
0.000370626
3.92692e-05
0.000357088
4.05763e-05
0.000343304
4.13182e-05
4.26906e-05
0.00044309
-4.49029e-05
0.000453337
-4.07078e-05
0.000462165
-3.50662e-05
0.000469318
-2.84458e-05
0.000474719
-2.14072e-05
0.000478167
-1.36369e-05
0.000479557
-5.50115e-06
0.000478771
2.74416e-06
0.00047564
1.22549e-05
0.000470419
2.08442e-05
0.000463267
2.85421e-05
0.000453926
3.72705e-05
0.000442905
4.39723e-05
0.000430282
5.03633e-05
0.000416408
5.53627e-05
0.000401573
5.92055e-05
0.000385678
6.34455e-05
0.000369186
6.58423e-05
0.000352393
6.70578e-05
0.000335243
6.84923e-05
0.000318067
6.86077e-05
0.000301111
6.77393e-05
0.000284349
6.69649e-05
0.000268011
6.52796e-05
0.000252217
6.31147e-05
0.000237067
6.05453e-05
0.000222675
5.75289e-05
0.000209045
5.44809e-05
0.000196272
5.1059e-05
0.000184393
4.7501e-05
0.000173406
4.39316e-05
0.000163332
4.02859e-05
0.000154152
3.6716e-05
0.000145844
3.32383e-05
0.000138361
2.99375e-05
0.000131649
2.684e-05
0.000125652
2.39762e-05
0.000120309
2.13824e-05
0.000115549
1.90713e-05
0.000111305
1.70331e-05
0.000107516
1.5211e-05
0.000104135
1.35829e-05
0.000101126
1.2099e-05
9.84589e-05
1.07095e-05
9.61229e-05
9.37587e-06
9.41164e-05
8.05825e-06
9.24392e-05
6.7265e-06
9.11111e-05
5.32986e-06
9.01518e-05
3.86552e-06
8.95676e-05
2.36015e-06
8.93909e-05
7.09014e-07
8.96894e-05
-1.23952e-06
9.04886e-05
-3.26208e-06
9.1797e-05
-5.26752e-06
9.35827e-05
-7.1523e-06
9.59009e-05
-9.28261e-06
9.87827e-05
-1.15408e-05
0.000102177
-1.35942e-05
0.000106229
-1.62342e-05
0.000110917
-1.8787e-05
0.000116389
-2.19227e-05
0.0001227
-2.52829e-05
0.000129868
-2.87038e-05
0.000138021
-3.26365e-05
0.000147238
-3.68806e-05
0.00015742
-4.07239e-05
0.00016866
-4.49232e-05
0.000180896
-4.88842e-05
0.000193953
-5.21249e-05
0.000207844
-5.54046e-05
0.000222131
-5.69328e-05
0.000236666
-5.7881e-05
0.000251044
-5.72424e-05
0.000265233
-5.65395e-05
0.000278804
-5.41105e-05
0.00029195
-5.23926e-05
0.000304357
-4.93849e-05
0.000316135
-4.68662e-05
0.000327729
-4.6011e-05
0.00033873
-4.36756e-05
0.000349473
-4.27547e-05
0.000360109
-4.22343e-05
0.000370638
-4.17112e-05
0.000381014
-4.10415e-05
0.000390948
-3.92814e-05
0.000400104
-3.62022e-05
0.000408103
-3.15202e-05
0.000414558
-2.53043e-05
0.000419104
-1.77631e-05
0.000421507
-9.46917e-06
0.000421606
-7.43971e-07
0.000419245
8.45401e-06
0.000414469
1.86616e-05
0.000407421
2.81516e-05
0.000398284
3.65099e-05
0.000387266
4.39948e-05
0.000374544
5.08797e-05
0.000360256
5.69313e-05
0.00034465
6.22663e-05
0.000327942
6.66948e-05
0.000310358
7.02313e-05
0.000292184
7.26415e-05
0.000273686
7.38891e-05
0.000255102
7.42403e-05
0.0002367
7.35166e-05
0.000218683
7.19485e-05
0.000201181
6.99404e-05
0.000184412
6.70712e-05
0.000168459
6.37914e-05
0.000153359
6.0412e-05
0.000139201
5.66372e-05
0.000125975
5.28714e-05
0.000113691
4.91276e-05
0.000102356
4.53291e-05
9.20131e-05
4.13737e-05
8.26253e-05
3.75189e-05
7.41744e-05
3.37773e-05
6.67192e-05
2.98342e-05
6.0198e-05
2.60634e-05
5.45626e-05
2.25255e-05
4.98176e-05
1.89914e-05
4.5931e-05
1.55653e-05
4.2826e-05
1.24266e-05
4.0475e-05
9.3969e-06
3.88516e-05
6.52528e-06
3.78526e-05
4.01785e-06
3.74953e-05
1.43608e-06
3.77143e-05
-8.61163e-07
3.84411e-05
-2.88482e-06
3.96947e-05
-5.02417e-06
4.14033e-05
-6.84101e-06