/*--------------------------------*- C++ -*----------------------------------*\
| =========                 |                                                 |
| \\      /  F ield         | OpenFOAM: The Open Source CFD Toolbox           |
|  \\    /   O peration     | Version:  3.0.1                                 |
|   \\  /    A nd           | Web:      www.OpenFOAM.org                      |
|    \\/     M anipulation  |                                                 |
\*---------------------------------------------------------------------------*/
FoamFile
{
    version     2.0;
    format      ascii;
    class       volScalarField;
    location    "84";
    object      p;
}
// * * * * * * * * * * * * * * * * * * * * * * * * * * * * * * * * * * * * * //

dimensions      [1 -1 -2 0 0 0 0];

internalField   nonuniform List<scalar> 
21420
(
3639.84
3622.39
3606.6
3592.48
3580.04
3569.24
3560.02
3552.35
3546.18
3541.48
3538.21
3536.39
3536.02
3537.15
3539.67
3543.69
3549.19
3556.21
3564.79
3574.99
3586.86
3600.44
3615.8
3632.99
3652.03
3672.93
3695.71
3720.33
3746.77
3774.91
3804.68
3835.88
3868.32
3901.73
3935.72
3970.17
4004.7
4038.89
4072.31
4104.58
4135.25
4163.92
4190.19
4213.67
4234.06
4251.09
4264.51
4274.13
4279.85
4281.53
4279
4272.44
4261.99
4247.73
4229.89
4208.73
4184.54
4157.63
4128.39
4097.19
4064.45
4030.58
3996.01
3961.18
3926.47
3892.5
3859.31
3826.89
3795.53
3765.49
3737
3710.2
3685.19
3662.07
3640.87
3621.6
3604.28
3588.9
3575.43
3563.85
3554.11
3546.2
3540.06
3535.65
3532.96
3531.96
3532.51
3534.63
3538.27
3543.39
3549.96
3557.97
3567.39
3578.23
3590.49
3604.19
3619.35
3636.02
3654.21
3673.95
3695.25
3718.11
3742.5
3768.39
3795.68
3824.29
3854.06
3884.85
3916.43
3948.54
3980.92
4013.26
4045.24
4076.51
4106.69
4135.39
4162.22
4186.79
4208.71
4227.63
4243.21
4255.17
4263.27
4267.34
4267.19
4262.93
4254.54
4242.06
4225.72
4205.74
4182.41
4156.1
4127.18
4096.08
4063.26
4029.17
3994.28
3959.04
3923.89
3889.24
3855.45
3822.84
3791.68
3762.19
3734.52
3708.8
3685.09
3663.4
3643.73
3626.04
3610.27
3596.34
3584.18
3573.71
3564.83
3557.47
3551.55
3547.02
3543.81
3541.86
3541.16
3541.69
3543.4
3546.32
3550.46
3555.84
3562.49
3570.44
3579.74
3590.44
3602.58
3616.19
3631.33
3648.01
3666.29
3686.16
3707.63
3730.68
3755.28
3781.36
3808.82
3837.55
3867.38
3898.14
3929.56
3961.36
3993.25
4024.89
4055.9
4085.88
4114.43
4141.13
4165.57
4187.37
4206.16
4221.62
4233.44
4241.39
4245.3
4245
4240.57
4232.04
4219.5
4203.17
4183.31
4160.26
4134.37
4106.06
4075.75
4043.89
4010.92
3977.29
3943.43
3909.74
3876.62
3844.37
3813.28
3783.58
3755.44
3729
3704.34
3681.51
3660.53
3641.4
3624.09
3608.55
3594.73
3582.59
3572.04
3563.03
3555.5
3549.38
3544.63
3541.18
3538.99
3538.03
3538.3
3539.72
3542.3
3546.02
3550.9
3556.95
3564.19
3572.64
3582.34
3593.34
3605.68
3619.39
3634.5
3651.05
3669.06
3688.53
3709.46
3731.83
3755.6
3780.71
3807.08
3834.6
3863.13
3892.51
3922.56
3952.97
3983.49
4013.81
4043.6
4072.49
4100.09
4125.99
4149.78
4171.05
4189.4
4204.51
4216.04
4223.76
4227.47
4226.99
4222.36
4213.58
4200.76
4184.13
4163.99
4140.7
4114.63
4086.25
4056.02
4024.42
3991.89
3958.91
3925.89
3893.27
3861.5
3831.48
3802.28
3774.51
3748.37
3724.01
3701.48
3680.83
3662.04
3645.07
3629.88
3616.36
3604.43
3593.97
3584.88
3577.04
3570.34
3564.71
3560.06
3556.33
3553.5
3551.55
3550.51
3550.44
3551.37
3553.36
3556.54
3561.03
3566.92
3574.32
3583.37
3594.14
3606.73
3621.18
3637.54
3655.81
3675.98
3697.99
3721.74
3747.12
3773.97
3802.08
3831.25
3861.23
3891.73
3922.48
3953.15
3983.39
4012.88
4041.26
4068.2
4093.38
4116.52
4137.36
4155.65
4171.2
4183.83
4193.43
4199.88
4203.1
4202.41
4198.36
4191.1
4180.76
4167.5
4151.59
4133.31
3541.66
3524.22
3508.43
3494.31
3481.88
3471.08
3461.86
3454.19
3448.02
3443.32
3440.06
3438.24
3437.87
3438.99
3441.52
3445.53
3451.03
3458.05
3466.63
3476.82
3488.68
3502.27
3517.63
3534.81
3553.85
3574.75
3597.52
3622.15
3648.58
3676.73
3706.5
3737.71
3770.15
3803.57
3837.57
3872.04
3906.58
3940.79
3974.23
4006.52
4037.21
4065.89
4092.18
4115.68
4136.09
4153.13
4166.55
4176.18
4181.9
4183.59
4181.05
4174.49
4164.03
4149.76
4131.91
4110.74
4086.53
4059.61
4030.34
3999.13
3966.36
3932.48
3897.89
3863.04
3828.33
3794.35
3761.15
3728.72
3697.36
3667.31
3638.81
3612.01
3587.01
3563.88
3542.68
3523.42
3506.1
3490.72
3477.25
3465.67
3455.94
3448.02
3441.89
3437.48
3434.8
3433.79
3434.34
3436.47
3440.11
3445.23
3451.8
3459.81
3469.23
3480.06
3492.32
3506.02
3521.19
3537.85
3556.03
3575.77
3597.07
3619.93
3644.33
3670.21
3697.51
3726.12
3755.9
3786.69
3818.28
3850.4
3882.79
3915.15
3947.14
3978.42
4008.62
4037.34
4064.18
4088.77
4110.71
4129.64
4145.24
4157.21
4165.32
4169.4
4169.25
4164.98
4156.59
4144.11
4127.75
4107.75
4084.41
4058.07
4029.13
3998.02
3965.17
3931.07
3896.16
3860.9
3825.74
3791.08
3757.27
3724.65
3693.49
3663.99
3636.33
3610.61
3586.89
3565.21
3545.54
3527.85
3512.08
3498.16
3486.01
3475.54
3466.66
3459.3
3453.39
3448.86
3445.65
3443.7
3443.01
3443.54
3445.25
3448.17
3452.31
3457.68
3464.33
3472.28
3481.58
3492.28
3504.41
3518.02
3533.15
3549.84
3568.11
3587.98
3609.45
3632.5
3657.1
3683.18
3710.65
3739.38
3769.22
3799.98
3831.41
3863.23
3895.14
3926.79
3957.81
3987.81
4016.38
4043.1
4067.56
4089.37
4108.18
4123.65
4135.49
4143.45
4147.36
4147.06
4142.62
4134.09
4121.54
4105.19
4085.32
4062.25
4036.35
4008.02
3977.69
3945.8
3912.82
3879.17
3845.29
3811.59
3778.46
3746.2
3715.1
3685.39
3657.25
3630.81
3606.15
3583.32
3562.34
3543.22
3525.91
3510.37
3496.56
3484.42
3473.87
3464.87
3457.34
3451.23
3446.47
3443.02
3440.84
3439.88
3440.15
3441.57
3444.15
3447.87
3452.75
3458.8
3466.03
3474.48
3484.19
3495.19
3507.52
3521.23
3536.34
3552.89
3570.89
3590.36
3611.29
3633.66
3657.43
3682.54
3708.92
3736.44
3764.98
3794.37
3824.43
3854.85
3885.37
3915.71
3945.52
3974.43
4002.04
4027.96
4051.77
4073.05
4091.43
4106.54
4118.09
4125.82
4129.53
4129.05
4124.42
4115.63
4102.8
4086.16
4066.01
4042.7
4016.61
3988.2
3957.96
3926.33
3893.79
3860.79
3827.76
3795.12
3763.34
3733.31
3704.1
3676.32
3650.19
3625.82
3603.3
3582.65
3563.86
3546.9
3531.71
3518.2
3506.27
3495.82
3486.73
3478.89
3472.2
3466.57
3461.92
3458.2
3455.37
3453.42
3452.38
3452.3
3453.22
3455.22
3458.39
3462.87
3468.76
3476.16
3485.2
3495.97
3508.55
3523
3539.35
3557.63
3577.8
3599.81
3623.56
3648.95
3675.8
3703.92
3733.09
3763.08
3793.6
3824.36
3855.04
3885.3
3914.81
3943.2
3970.15
3995.34
4018.5
4039.35
4057.65
4073.21
4085.85
4095.45
4101.91
4105.13
4104.44
4100.38
4093.12
4082.76
4069.5
4053.58
4035.29
3443.4
3425.96
3410.18
3396.07
3383.64
3372.85
3363.64
3355.97
3349.81
3345.11
3341.85
3340.03
3339.66
3340.77
3343.3
3347.31
3352.81
3359.82
3368.4
3378.59
3390.44
3404.02
3419.38
3436.55
3455.58
3476.48
3499.25
3523.88
3550.31
3578.47
3608.25
3639.47
3671.93
3705.37
3739.39
3773.88
3808.45
3842.69
3876.17
3908.49
3939.22
3967.94
3994.26
4017.79
4038.23
4055.29
4068.74
4078.39
4084.12
4085.82
4083.26
4076.69
4066.21
4051.93
4034.05
4012.85
3988.61
3961.65
3932.35
3901.1
3868.3
3834.38
3799.76
3764.87
3730.13
3696.15
3662.93
3630.49
3599.11
3569.05
3540.55
3513.74
3488.73
3465.61
3444.41
3425.15
3407.84
3392.46
3378.99
3367.42
3357.69
3349.78
3343.65
3339.25
3336.57
3335.56
3336.12
3338.24
3341.89
3347.01
3353.58
3361.59
3371.01
3381.84
3394.1
3407.79
3422.95
3439.61
3457.79
3477.53
3498.83
3521.68
3546.08
3571.97
3599.27
3627.88
3657.68
3688.48
3720.09
3752.23
3784.64
3817.02
3849.05
3880.36
3910.59
3939.34
3966.22
3990.84
4012.82
4031.78
4047.41
4059.4
4067.53
4071.62
4071.48
4067.2
4058.79
4046.29
4029.91
4009.88
3986.51
3960.13
3931.15
3900
3867.11
3832.96
3798.02
3762.73
3727.54
3692.85
3659.03
3626.39
3595.21
3565.71
3538.04
3512.32
3488.61
3466.93
3447.27
3429.59
3413.83
3399.91
3387.77
3377.3
3368.43
3361.08
3355.18
3350.65
3347.44
3345.5
3344.81
3345.34
3347.05
3349.97
3354.1
3359.48
3366.12
3374.07
3383.36
3394.05
3406.18
3419.79
3434.92
3451.6
3469.87
3489.73
3511.2
3534.25
3558.85
3584.94
3612.41
3641.15
3671
3701.78
3733.23
3765.07
3797
3828.68
3859.74
3889.78
3918.38
3945.13
3969.63
3991.48
4010.32
4025.82
4037.68
4045.66
4049.59
4049.28
4044.84
4036.29
4023.72
4007.35
3987.45
3964.34
3938.4
3910.03
3879.66
3847.74
3814.71
3781.03
3747.12
3713.4
3680.24
3647.96
3616.85
3587.13
3558.98
3532.54
3507.88
3485.05
3464.08
3444.96
3427.65
3412.12
3398.32
3386.18
3375.65
3366.64
3359.12
3353.01
3348.26
3344.82
3342.63
3341.68
3341.95
3343.38
3345.95
3349.68
3354.56
3360.6
3367.83
3376.28
3385.98
3396.97
3409.3
3423
3438.11
3454.66
3472.66
3492.13
3513.06
3535.43
3559.2
3584.32
3610.69
3638.23
3666.78
3696.18
3726.26
3756.69
3787.25
3817.61
3847.45
3876.39
3904.04
3929.99
3953.84
3975.16
3993.57
4008.72
4020.29
4028.03
4031.76
4031.29
4026.64
4017.85
4005
3988.33
3968.15
3944.8
3918.67
3890.22
3859.93
3828.27
3795.69
3762.65
3729.59
3696.92
3665.13
3635.07
3605.85
3578.06
3551.92
3527.56
3505.03
3484.38
3465.6
3448.65
3433.47
3419.96
3408.05
3397.6
3388.52
3380.7
3374.02
3368.39
3363.75
3360.03
3357.2
3355.25
3354.2
3354.12
3355.04
3357.02
3360.19
3364.66
3370.53
3377.93
3386.96
3397.72
3410.29
3424.74
3441.09
3459.36
3479.53
3501.55
3525.31
3550.7
3577.56
3605.7
3634.89
3664.9
3695.44
3726.22
3756.93
3787.21
3816.75
3845.18
3872.15
3897.38
3920.55
3941.43
3959.75
3975.32
3987.98
3997.6
4004.06
4007.31
4006.58
4002.52
3995.24
3984.88
3971.6
3955.66
3937.35
3345.07
3327.64
3311.86
3297.76
3285.34
3274.55
3265.35
3257.69
3251.53
3246.84
3243.58
3241.76
3241.39
3242.5
3245.03
3249.04
3254.53
3261.54
3270.11
3280.29
3292.13
3305.7
3321.05
3338.21
3357.24
3378.13
3400.9
3425.53
3451.96
3480.13
3509.91
3541.16
3573.64
3607.1
3641.15
3675.68
3710.3
3744.59
3778.12
3810.5
3841.28
3870.06
3896.43
3920.01
3940.5
3957.6
3971.07
3980.74
3986.48
3988.21
3985.62
3979.04
3968.54
3954.23
3936.31
3915.07
3890.78
3863.77
3834.41
3803.1
3770.25
3736.27
3701.6
3666.67
3631.89
3597.9
3564.65
3532.18
3500.78
3470.71
3442.19
3415.38
3390.37
3367.25
3346.05
3326.8
3309.49
3294.12
3280.66
3269.09
3259.37
3251.47
3245.34
3240.94
3238.28
3237.26
3237.83
3239.96
3243.61
3248.73
3255.31
3263.32
3272.73
3283.56
3295.81
3309.5
3324.66
3341.31
3359.49
3379.21
3400.51
3423.36
3447.76
3473.65
3500.96
3529.59
3559.39
3590.22
3621.85
3654.02
3686.46
3718.88
3750.95
3782.31
3812.59
3841.4
3868.33
3893.01
3915.03
3934.05
3949.71
3961.74
3969.9
3974
3973.88
3969.58
3961.15
3948.63
3932.21
3912.13
3888.71
3862.27
3833.24
3802.02
3769.07
3734.87
3699.86
3664.53
3629.29
3594.56
3560.71
3528.05
3496.85
3467.33
3439.66
3413.94
3390.23
3368.56
3348.91
3331.24
3315.49
3301.59
3289.45
3279
3270.14
3262.81
3256.91
3252.39
3249.19
3247.25
3246.56
3247.09
3248.8
3251.72
3255.85
3261.22
3267.86
3275.8
3285.09
3295.77
3307.89
3321.49
3336.61
3353.29
3371.55
3391.41
3412.88
3435.93
3460.53
3486.62
3514.11
3542.86
3572.73
3603.53
3635.01
3666.89
3698.86
3730.58
3761.69
3791.78
3820.44
3847.25
3871.8
3893.7
3912.59
3928.13
3940.02
3948.03
3951.97
3951.68
3947.21
3938.65
3926.05
3909.63
3889.69
3866.53
3840.53
3812.1
3781.67
3749.69
3716.61
3682.87
3648.92
3615.15
3581.96
3549.66
3518.52
3488.79
3460.63
3434.18
3409.52
3386.7
3365.73
3346.62
3329.32
3313.8
3300.01
3287.88
3277.35
3268.36
3260.85
3254.75
3250
3246.57
3244.38
3243.44
3243.71
3245.14
3247.71
3251.44
3256.31
3262.35
3269.58
3278.02
3287.72
3298.71
3311.03
3324.72
3339.83
3356.37
3374.37
3393.83
3414.76
3437.13
3460.9
3486.03
3512.41
3539.96
3568.52
3597.94
3628.05
3658.52
3689.11
3719.51
3749.4
3778.39
3806.09
3832.1
3856
3877.38
3895.83
3911.02
3922.63
3930.4
3934.14
3933.69
3929.02
3920.21
3907.33
3890.63
3870.4
3846.99
3820.81
3792.3
3761.95
3730.23
3697.59
3664.5
3631.39
3598.68
3566.85
3536.75
3507.52
3479.72
3453.57
3429.2
3406.68
3386.04
3367.26
3350.33
3335.16
3321.67
3309.76
3299.34
3290.27
3282.46
3275.79
3270.17
3265.54
3261.82
3258.99
3257.04
3255.99
3255.9
3256.81
3258.78
3261.94
3266.39
3272.25
3279.63
3288.65
3299.4
3311.96
3326.4
3342.75
3361.01
3381.19
3403.2
3426.97
3452.38
3479.26
3507.42
3536.63
3566.67
3597.24
3628.06
3658.81
3689.14
3718.72
3747.19
3774.21
3799.47
3822.69
3843.6
3861.95
3877.55
3890.23
3899.86
3906.34
3909.61
3908.85
3904.77
3897.48
3887.1
3873.79
3857.83
3839.48
3246.66
3229.24
3213.47
3199.38
3186.98
3176.2
3167
3159.35
3153.2
3148.51
3145.26
3143.44
3143.06
3144.17
3146.7
3150.7
3156.19
3163.19
3171.75
3181.91
3193.75
3207.3
3222.64
3239.8
3258.81
3279.7
3302.46
3327.09
3353.53
3381.7
3411.51
3442.77
3475.28
3508.79
3542.88
3577.46
3612.14
3646.49
3680.09
3712.54
3743.4
3772.26
3798.7
3822.34
3842.89
3860.04
3873.55
3883.25
3889.01
3890.75
3888.14
3881.54
3871.01
3856.66
3838.7
3817.39
3793.04
3765.95
3736.53
3705.15
3672.22
3638.17
3603.43
3568.43
3533.6
3499.6
3466.32
3433.81
3402.38
3372.29
3343.76
3316.93
3291.92
3268.8
3247.61
3228.36
3211.06
3195.7
3182.25
3170.69
3160.98
3153.08
3146.96
3142.57
3139.92
3138.91
3139.48
3141.62
3145.27
3150.4
3156.98
3164.98
3174.4
3185.23
3197.47
3211.15
3226.3
3242.94
3261.11
3280.83
3302.12
3324.97
3349.37
3375.26
3402.58
3431.22
3461.05
3491.9
3523.57
3555.77
3588.26
3620.74
3652.86
3684.29
3714.63
3743.51
3770.51
3795.26
3817.36
3836.44
3852.16
3864.23
3872.42
3876.54
3876.44
3872.12
3863.67
3851.11
3834.64
3814.51
3791.01
3764.5
3735.38
3704.08
3671.05
3636.77
3601.69
3566.29
3530.99
3496.22
3462.32
3429.62
3398.4
3368.87
3341.19
3315.47
3291.77
3270.1
3250.47
3232.81
3217.08
3203.19
3191.07
3180.64
3171.79
3164.47
3158.59
3154.08
3150.88
3148.95
3148.27
3148.79
3150.51
3153.42
3157.55
3162.91
3169.54
3177.48
3186.76
3197.43
3209.54
3223.13
3238.24
3254.91
3273.17
3293.02
3314.49
3337.54
3362.14
3388.24
3415.74
3444.51
3474.4
3505.23
3536.75
3568.67
3600.7
3632.48
3663.66
3693.82
3722.55
3749.43
3774.05
3796.03
3814.98
3830.58
3842.52
3850.56
3854.51
3854.24
3849.76
3841.16
3828.52
3812.05
3792.04
3768.81
3742.73
3714.23
3683.72
3651.66
3618.5
3584.7
3550.68
3516.86
3483.62
3451.28
3420.12
3390.37
3362.2
3335.74
3311.08
3288.26
3267.31
3248.2
3230.91
3215.41
3201.63
3189.52
3179
3170.02
3162.52
3156.43
3151.69
3148.26
3146.09
3145.15
3145.42
3146.85
3149.43
3153.15
3158.02
3164.06
3171.28
3179.71
3189.4
3200.38
3212.7
3226.38
3241.48
3258.02
3276.01
3295.47
3316.39
3338.76
3362.54
3387.67
3414.07
3441.63
3470.21
3499.67
3529.81
3560.32
3590.95
3621.41
3651.36
3680.42
3708.19
3734.28
3758.25
3779.7
3798.22
3813.47
3825.12
3832.93
3836.69
3836.25
3831.57
3822.73
3809.82
3793.06
3772.77
3749.29
3723.03
3694.44
3664.01
3632.2
3599.48
3566.32
3533.15
3500.38
3468.51
3438.37
3409.11
3381.29
3355.14
3330.76
3308.24
3287.61
3268.85
3251.93
3236.77
3223.3
3211.42
3201.02
3191.97
3184.17
3177.52
3171.92
3167.29
3163.58
3160.75
3158.8
3157.75
3157.65
3158.53
3160.5
3163.63
3168.07
3173.91
3181.27
3190.27
3201.01
3213.56
3227.98
3244.32
3262.58
3282.76
3304.78
3328.56
3353.99
3380.89
3409.07
3438.32
3468.4
3499.01
3529.88
3560.68
3591.07
3620.71
3649.24
3676.31
3701.63
3724.9
3745.86
3764.26
3779.89
3792.6
3802.25
3808.74
3812.03
3811.26
3807.15
3799.84
3789.43
3776.09
3760.08
3741.7
3148.17
3130.76
3115.01
3100.94
3088.54
3077.77
3068.59
3060.95
3054.81
3050.13
3046.88
3045.07
3044.68
3045.78
3048.32
3052.31
3057.79
3064.78
3073.32
3083.48
3095.29
3108.83
3124.16
3141.3
3160.31
3181.19
3203.94
3228.57
3255.01
3283.2
3313.02
3344.32
3376.86
3410.42
3444.55
3479.2
3513.96
3548.39
3582.08
3614.62
3645.58
3674.52
3701.05
3724.78
3745.4
3762.61
3776.18
3785.91
3791.69
3793.44
3790.83
3784.2
3773.63
3759.23
3741.2
3719.82
3695.38
3668.21
3638.7
3607.22
3574.2
3540.07
3505.24
3470.16
3435.26
3401.25
3367.93
3335.37
3303.9
3273.78
3245.23
3218.4
3193.39
3170.27
3149.08
3129.84
3112.55
3097.2
3083.76
3072.21
3062.51
3054.63
3048.51
3044.14
3041.49
3040.49
3041.07
3043.21
3046.87
3052.01
3058.59
3066.59
3076.01
3086.83
3099.07
3112.74
3127.87
3144.51
3162.66
3182.38
3203.66
3226.5
3250.9
3276.8
3304.14
3332.8
3362.65
3393.53
3425.24
3457.5
3490.04
3522.58
3554.78
3586.28
3616.71
3645.67
3672.77
3697.6
3719.79
3738.95
3754.74
3766.87
3775.1
3779.25
3779.17
3774.84
3766.35
3753.74
3737.21
3716.99
3693.41
3666.8
3637.59
3606.18
3573.06
3538.67
3503.51
3468.02
3432.64
3397.81
3363.86
3331.12
3299.87
3270.32
3242.63
3216.91
3193.21
3171.56
3151.94
3134.3
3118.58
3104.72
3092.63
3082.21
3073.38
3066.08
3060.21
3055.71
3052.53
3050.6
3049.93
3050.45
3052.16
3055.07
3059.2
3064.55
3071.18
3079.1
3088.37
3099.03
3111.13
3124.71
3139.81
3156.47
3174.71
3194.56
3216.02
3239.07
3263.68
3289.79
3317.3
3346.09
3376.02
3406.89
3438.45
3470.43
3502.52
3534.38
3565.64
3595.89
3624.71
3651.68
3676.4
3698.46
3717.5
3733.16
3745.16
3753.24
3757.22
3756.96
3752.46
3743.83
3731.13
3714.6
3694.51
3671.19
3645.02
3616.41
3585.81
3553.65
3520.4
3486.51
3452.41
3418.52
3385.23
3352.84
3321.64
3291.87
3263.68
3237.22
3212.56
3189.75
3168.8
3149.7
3132.43
3116.94
3103.18
3091.08
3080.58
3071.62
3064.13
3058.05
3053.33
3049.91
3047.75
3046.81
3047.09
3048.52
3051.1
3054.82
3059.69
3065.72
3072.93
3081.36
3091.03
3102
3114.31
3127.99
3143.07
3159.6
3177.59
3197.04
3217.96
3240.34
3264.12
3289.26
3315.67
3343.25
3371.86
3401.34
3431.53
3462.09
3492.79
3523.31
3553.34
3582.48
3610.35
3636.52
3660.59
3682.12
3700.73
3716.05
3727.77
3735.62
3739.4
3738.98
3734.28
3725.42
3712.45
3695.63
3675.26
3651.69
3625.33
3596.63
3566.1
3534.19
3501.38
3468.13
3434.88
3402.04
3370.12
3339.92
3310.62
3282.78
3256.62
3232.24
3209.72
3189.1
3170.35
3153.45
3138.32
3124.88
3113.02
3102.64
3093.62
3085.84
3079.21
3073.62
3069.01
3065.3
3062.48
3060.53
3059.46
3059.35
3060.22
3062.16
3065.28
3069.69
3075.51
3082.85
3091.82
3102.54
3115.07
3129.48
3145.81
3164.07
3184.25
3206.28
3230.08
3255.52
3282.45
3310.67
3339.96
3370.08
3400.75
3431.68
3462.54
3493
3522.72
3551.32
3578.47
3603.86
3627.2
3648.21
3666.66
3682.34
3695.08
3704.76
3711.27
3714.57
3713.79
3709.66
3702.31
3691.87
3678.48
3662.43
3643.99
3049.6
3032.21
3016.48
3002.42
2990.04
2979.29
2970.12
2962.49
2956.36
2951.69
2948.45
2946.64
2946.24
2947.34
2949.87
2953.86
2959.33
2966.3
2974.83
2984.97
2996.77
3010.29
3025.6
3042.72
3061.72
3082.59
3105.33
3129.96
3156.41
3184.61
3214.45
3245.79
3278.38
3311.99
3346.19
3380.91
3415.76
3450.29
3484.09
3516.74
3547.81
3576.86
3603.5
3627.33
3648.03
3665.32
3678.95
3688.72
3694.53
3696.28
3693.67
3687.02
3676.39
3661.93
3643.83
3622.36
3597.82
3570.54
3540.92
3509.33
3476.21
3441.96
3407.03
3371.85
3336.87
3302.86
3269.47
3236.86
3205.34
3175.19
3146.63
3119.78
3094.77
3071.65
3050.47
3031.24
3013.96
2998.62
2985.2
2973.66
2963.97
2956.1
2950
2945.64
2943
2942
2942.6
2944.75
2948.41
2953.56
2960.14
2968.15
2977.56
2988.37
3000.6
3014.26
3029.39
3046.01
3064.15
3083.85
3105.12
3127.97
3152.36
3178.27
3205.62
3234.3
3264.19
3295.1
3326.87
3359.18
3391.8
3424.41
3456.69
3488.29
3518.82
3547.89
3575.09
3600.04
3622.32
3641.58
3657.46
3669.66
3677.95
3682.12
3682.05
3677.71
3669.18
3656.52
3639.91
3619.6
3595.91
3569.19
3539.85
3508.33
3475.08
3440.58
3405.3
3369.71
3334.25
3299.34
3265.32
3232.53
3201.25
3171.68
3143.98
3118.25
3094.56
3072.92
3053.32
3035.71
3020.02
3006.18
2994.11
2983.71
2974.91
2967.62
2961.77
2957.29
2954.12
2952.21
2951.53
2952.06
2953.77
2956.68
2960.8
2966.15
2972.76
2980.67
2989.92
3000.57
3012.65
3026.22
3041.3
3057.95
3076.18
3096.02
3117.48
3140.53
3165.14
3191.26
3218.79
3247.62
3277.58
3308.49
3340.12
3372.16
3404.33
3436.28
3467.64
3497.99
3526.92
3554.01
3578.83
3601
3620.13
3635.89
3647.96
3656.09
3660.1
3659.84
3655.33
3646.65
3633.89
3617.28
3597.09
3573.67
3547.38
3518.66
3487.93
3455.66
3422.3
3388.3
3354.11
3320.14
3286.77
3254.33
3223.09
3193.28
3165.08
3138.61
3113.95
3091.14
3070.21
3051.13
3033.88
3018.41
3004.66
2992.59
2982.1
2973.16
2965.68
2959.62
2954.91
2951.51
2949.36
2948.43
2948.71
2950.14
2952.72
2956.44
2961.31
2967.33
2974.53
2982.95
2992.61
3003.57
3015.86
3029.53
3044.6
3061.12
3079.1
3098.55
3119.47
3141.84
3165.63
3190.78
3217.21
3244.81
3273.45
3302.97
3333.22
3363.84
3394.6
3425.21
3455.33
3484.57
3512.55
3538.84
3563.01
3584.66
3603.36
3618.77
3630.56
3638.46
3642.28
3641.87
3637.16
3628.25
3615.23
3598.33
3577.86
3554.18
3527.7
3498.89
3468.23
3436.2
3403.27
3369.91
3336.57
3303.65
3271.66
3241.39
3212.06
3184.2
3158.01
3133.63
3111.12
3090.51
3071.78
3054.9
3039.8
3026.38
3014.56
3004.2
2995.21
2987.46
2980.85
2975.29
2970.69
2966.99
2964.17
2962.21
2961.14
2961.01
2961.86
2963.78
2966.87
2971.26
2977.05
2984.36
2993.31
3004
3016.51
3030.9
3047.22
3065.48
3085.66
3107.7
3131.51
3156.98
3183.95
3212.21
3241.55
3271.72
3302.45
3333.46
3364.4
3394.95
3424.75
3453.45
3480.68
3506.15
3529.57
3550.65
3569.16
3584.9
3597.68
3607.39
3613.93
3617.24
3616.44
3612.28
3604.9
3594.41
3580.98
3564.86
3546.36
2950.95
2933.58
2917.87
2903.83
2891.47
2880.74
2871.59
2863.97
2857.85
2853.19
2849.96
2848.15
2847.75
2848.85
2851.37
2855.35
2860.81
2867.77
2876.28
2886.39
2898.17
2911.67
2926.96
2944.07
2963.04
2983.9
3006.64
3031.27
3057.72
3085.94
3115.81
3147.18
3179.83
3213.51
3247.78
3282.59
3317.54
3352.19
3386.11
3418.9
3450.09
3479.28
3506.04
3529.98
3550.79
3568.17
3581.86
3591.69
3597.52
3599.28
3596.67
3589.98
3579.3
3564.77
3546.57
3525
3500.35
3472.95
3443.19
3411.48
3378.23
3343.85
3308.8
3273.5
3238.41
3204.42
3170.96
3138.27
3106.71
3076.52
3047.93
3021.08
2996.06
2972.94
2951.77
2932.55
2915.28
2899.96
2886.55
2875.03
2865.36
2857.5
2851.41
2847.07
2844.44
2843.46
2844.07
2846.23
2849.9
2855.05
2861.64
2869.64
2879.05
2889.86
2902.08
2915.73
2930.84
2947.44
2965.57
2985.26
3006.52
3029.36
3053.76
3079.67
3107.04
3135.74
3165.66
3196.62
3228.45
3260.83
3293.53
3326.23
3358.61
3390.32
3420.96
3450.16
3477.49
3502.56
3524.97
3544.34
3560.32
3572.61
3580.95
3585.16
3585.1
3580.75
3572.18
3559.44
3542.75
3522.33
3498.52
3471.66
3442.18
3410.51
3377.12
3342.49
3307.08
3271.37
3235.8
3200.8
3166.71
3133.87
3102.54
3072.94
3045.23
3019.5
2995.82
2974.2
2954.62
2937.03
2921.37
2907.56
2895.52
2885.15
2876.38
2869.12
2863.28
2858.82
2855.66
2853.76
2853.09
2853.62
2855.34
2858.24
2862.35
2867.69
2874.28
2882.18
2891.42
2902.05
2914.12
2927.66
2942.73
2959.37
2977.59
2997.42
3018.86
3041.92
3066.54
3092.67
3120.22
3149.07
3179.08
3210.04
3241.74
3273.87
3306.13
3338.18
3369.65
3400.13
3429.19
3456.41
3481.36
3503.65
3522.9
3538.75
3550.91
3559.1
3563.14
3562.9
3558.37
3549.63
3536.8
3520.09
3499.79
3476.24
3449.82
3420.96
3390.09
3357.68
3324.19
3290.07
3255.77
3221.7
3188.25
3155.75
3124.46
3094.62
3066.4
3039.92
3015.26
2992.46
2971.54
2952.48
2935.24
2919.8
2906.08
2894.02
2883.56
2874.64
2867.18
2861.14
2856.45
2853.05
2850.92
2850
2850.28
2851.72
2854.3
2858.02
2862.88
2868.89
2876.09
2884.49
2894.14
2905.08
2917.36
2931.01
2946.07
2962.58
2980.55
2999.99
3020.91
3043.28
3067.07
3092.23
3118.68
3146.31
3174.99
3204.55
3234.87
3265.56
3296.41
3327.11
3357.34
3386.7
3414.8
3441.22
3465.52
3487.29
3506.12
3521.63
3533.5
3541.47
3545.32
3544.92
3540.21
3531.25
3518.16
3501.17
3480.59
3456.78
3430.16
3401.2
3370.4
3338.23
3305.16
3271.68
3238.22
3205.21
3173.14
3142.79
3113.42
3085.52
3059.32
3034.94
3012.43
2991.83
2973.13
2956.27
2941.2
2927.82
2916.03
2905.72
2896.76
2889.04
2882.46
2876.92
2872.33
2868.65
2865.83
2863.87
2862.79
2862.63
2863.46
2865.36
2868.42
2872.77
2878.53
2885.8
2894.72
2905.38
2917.87
2932.24
2948.55
2966.8
2986.98
3009.03
3032.86
3058.36
3085.37
3113.68
3143.08
3173.32
3204.12
3235.21
3266.25
3296.9
3326.81
3355.61
3382.94
3408.51
3432.02
3453.18
3471.77
3487.56
3500.4
3510.15
3516.71
3520.03
3519.22
3515.03
3507.6
3497.06
3483.57
3467.39
3448.8
2852.23
2834.88
2819.19
2805.17
2792.83
2782.12
2772.99
2765.39
2759.29
2754.64
2751.42
2749.61
2749.2
2750.3
2752.82
2756.79
2762.23
2769.17
2777.66
2787.75
2799.51
2812.98
2828.25
2845.33
2864.29
2885.13
2907.87
2932.49
2958.95
2987.18
3017.09
3048.51
3081.22
3114.97
3149.32
3184.24
3219.31
3254.09
3288.15
3321.08
3352.43
3381.76
3408.67
3432.74
3453.67
3471.15
3484.92
3494.81
3500.68
3502.44
3499.83
3493.1
3482.36
3467.74
3449.44
3427.75
3402.97
3375.42
3345.52
3313.66
3280.26
3245.75
3210.55
3175.11
3139.9
3105.95
3072.39
3039.62
3008
2977.77
2949.16
2922.28
2897.26
2874.15
2852.98
2833.77
2816.52
2801.22
2787.83
2776.33
2766.67
2758.83
2752.76
2748.43
2745.82
2744.85
2745.47
2747.64
2751.33
2756.48
2763.07
2771.08
2780.49
2791.29
2803.49
2817.13
2832.22
2848.81
2866.92
2886.59
2907.84
2930.67
2955.07
2981
3008.38
3037.12
3067.08
3098.09
3129.99
3162.45
3195.23
3228.04
3260.54
3292.37
3323.15
3352.48
3379.96
3405.17
3427.72
3447.22
3463.32
3475.7
3484.11
3488.36
3488.32
3483.96
3475.33
3462.52
3445.72
3425.18
3401.23
3374.22
3344.57
3312.74
3279.19
3244.39
3208.84
3173
3137.3
3102.21
3068.03
3035.12
3003.74
2974.12
2946.39
2920.66
2896.99
2875.39
2855.84
2838.28
2822.65
2808.88
2796.87
2786.53
2777.79
2770.55
2764.74
2760.3
2757.16
2755.27
2754.61
2755.14
2756.85
2759.75
2763.85
2769.18
2775.76
2783.64
2792.86
2803.47
2815.52
2829.05
2844.1
2860.71
2878.92
2898.74
2920.18
2943.23
2967.86
2994
3021.58
3050.47
3080.52
3111.55
3143.32
3175.54
3207.91
3240.08
3271.68
3302.3
3331.51
3358.88
3383.98
3406.41
3425.79
3441.76
3454.01
3462.27
3466.35
3466.12
3461.56
3452.77
3439.85
3423.04
3402.61
3378.91
3352.34
3323.32
3292.29
3259.73
3226.08
3191.82
3157.4
3123.22
3089.68
3057.09
3025.75
2995.88
2967.63
2941.14
2916.48
2893.69
2872.78
2853.74
2836.54
2821.11
2807.42
2795.39
2784.96
2776.06
2768.63
2762.6
2757.93
2754.55
2752.43
2751.53
2751.81
2753.25
2755.83
2759.55
2764.4
2770.41
2777.59
2785.98
2795.61
2806.54
2818.8
2832.43
2847.48
2863.97
2881.93
2901.36
2922.28
2944.65
2968.45
2993.63
3020.1
3047.75
3076.47
3106.09
3136.49
3167.25
3198.19
3229.01
3259.36
3288.86
3317.1
3343.67
3368.12
3390.04
3409
3424.62
3436.59
3444.63
3448.53
3448.15
3443.42
3434.41
3421.24
3404.14
3383.43
3359.48
3332.7
3303.58
3272.61
3240.27
3207.05
3173.42
3139.84
3106.71
3074.55
3044.12
3014.69
2986.77
2960.55
2936.16
2913.66
2893.08
2874.4
2857.57
2842.54
2829.19
2817.45
2807.17
2798.25
2790.57
2784.02
2778.5
2773.94
2770.26
2767.45
2765.49
2764.39
2764.22
2765.02
2766.89
2769.91
2774.23
2779.95
2787.18
2796.06
2806.69
2819.15
2833.5
2849.79
2868.04
2888.22
2910.28
2934.14
2959.67
2986.73
3015.09
3044.55
3074.87
3105.76
3136.95
3168.09
3198.86
3228.89
3257.81
3285.26
3310.94
3334.54
3355.81
3374.48
3390.34
3403.23
3413.02
3419.61
3422.96
3422.12
3417.89
3410.42
3399.83
3386.26
3370
3351.33
2753.43
2736.1
2720.43
2706.44
2694.13
2683.44
2674.33
2666.75
2660.66
2656.03
2652.82
2651.01
2650.6
2651.69
2654.21
2658.16
2663.59
2670.51
2678.97
2689.04
2700.77
2714.22
2729.45
2746.52
2765.46
2786.28
2809
2833.62
2860.09
2888.34
2918.29
2949.76
2982.54
3016.38
3050.81
3085.85
3121.05
3155.99
3190.21
3223.31
3254.82
3284.32
3311.39
3335.61
3356.67
3374.27
3388.13
3398.09
3403.99
3405.76
3403.14
3396.37
3385.56
3370.85
3352.43
3330.61
3305.67
3277.97
3247.9
3215.88
3182.31
3147.63
3112.28
3076.69
3041.33
3007.43
2973.76
2940.9
2909.21
2878.93
2850.29
2823.4
2798.37
2775.26
2754.11
2734.92
2717.68
2702.4
2689.03
2677.55
2667.91
2660.09
2654.04
2649.73
2647.13
2646.18
2646.81
2649
2652.69
2657.86
2664.45
2672.46
2681.86
2692.66
2704.85
2718.47
2733.54
2750.11
2768.2
2787.85
2809.09
2831.92
2856.32
2882.25
2909.66
2938.43
2968.43
2999.5
3031.48
3064.02
3096.91
3129.83
3162.46
3194.43
3225.36
3254.85
3282.5
3307.88
3330.58
3350.23
3366.45
3378.94
3387.44
3391.74
3391.71
3387.33
3378.64
3365.75
3348.83
3328.15
3304.04
3276.85
3247.03
3215.01
3181.27
3146.3
3110.58
3074.59
3038.76
3003.55
2969.27
2936.29
2904.86
2875.2
2847.45
2821.73
2798.07
2776.49
2756.96
2739.44
2723.85
2710.11
2698.14
2687.84
2679.13
2671.92
2666.14
2661.72
2658.6
2656.73
2656.08
2656.61
2658.32
2661.21
2665.3
2670.62
2677.18
2685.05
2694.25
2704.83
2716.86
2730.36
2745.4
2761.99
2780.18
2799.99
2821.42
2844.47
2869.1
2895.26
2922.87
2951.8
2981.9
3013
3044.86
3077.18
3109.67
3141.98
3173.73
3204.51
3233.88
3261.42
3286.68
3309.27
3328.8
3344.9
3357.26
3365.6
3369.72
3369.5
3364.93
3356.07
3343.05
3326.11
3305.54
3281.68
3254.94
3225.73
3194.53
3161.79
3127.97
3093.56
3058.98
3024.68
2991.04
2958.37
2926.97
2897.05
2868.78
2842.28
2817.62
2794.84
2773.95
2754.93
2737.75
2722.36
2708.7
2696.7
2686.29
2677.42
2670.01
2664.01
2659.36
2656
2653.9
2653.01
2653.3
2654.74
2657.32
2661.03
2665.88
2671.88
2679.05
2687.42
2697.03
2707.94
2720.18
2733.8
2748.83
2765.3
2783.25
2802.67
2823.58
2845.96
2869.77
2894.96
2921.45
2949.14
2977.9
3007.58
3038.07
3068.92
3099.97
3130.9
3161.39
3191.04
3219.45
3246.19
3270.81
3292.89
3312
3327.76
3339.83
3347.95
3351.91
3351.54
3346.79
3337.73
3324.46
3307.25
3286.4
3262.27
3235.32
3206.01
3174.85
3142.33
3108.93
3075.14
3041.41
3008.17
2975.91
2945.38
2915.89
2887.93
2861.69
2837.29
2814.8
2794.23
2775.58
2758.79
2743.8
2730.5
2718.8
2708.57
2699.7
2692.06
2685.54
2680.05
2675.51
2671.85
2669.04
2667.07
2665.97
2665.77
2666.54
2668.37
2671.36
2675.63
2681.3
2688.49
2697.33
2707.92
2720.35
2734.68
2750.95
2769.19
2789.38
2811.45
2835.34
2860.91
2888.01
2916.44
2945.98
2976.37
3007.36
3038.66
3069.92
3100.82
3130.99
3160.04
3187.62
3213.43
3237.15
3258.52
3277.29
3293.23
3306.19
3316.02
3322.64
3326
3325.15
3320.88
3313.36
3302.7
3289.05
3272.7
3253.94
2654.54
2637.24
2621.61
2607.65
2595.36
2584.7
2575.61
2568.05
2561.98
2557.36
2554.16
2552.36
2551.94
2553.04
2555.54
2559.48
2564.89
2571.78
2580.22
2590.26
2601.96
2615.38
2630.59
2647.62
2666.54
2687.35
2710.06
2734.67
2761.15
2789.42
2819.4
2850.93
2883.79
2917.73
2952.25
2987.42
3022.78
3057.88
3092.28
3125.57
3157.27
3186.96
3214.2
3238.59
3259.8
3277.52
3291.49
3301.52
3307.46
3309.24
3306.61
3299.8
3288.91
3274.09
3255.55
3233.57
3208.47
3180.59
3150.34
3118.12
3084.38
3049.52
3013.99
2978.22
2942.7
2908.86
2875.07
2842.1
2810.34
2780.01
2751.34
2724.43
2699.4
2676.29
2655.15
2635.97
2618.76
2603.5
2590.16
2578.69
2569.08
2561.27
2555.25
2550.96
2548.37
2547.44
2548.09
2550.3
2554
2559.17
2565.78
2573.79
2583.18
2593.97
2606.15
2619.75
2634.8
2651.34
2669.41
2689.05
2710.27
2733.08
2757.49
2783.43
2810.86
2839.67
2869.72
2900.85
2932.92
2965.56
2998.56
3031.61
3064.38
3096.51
3127.61
3157.28
3185.11
3210.67
3233.55
3253.36
3269.73
3282.34
3290.93
3295.28
3295.27
3290.87
3282.12
3269.13
3252.08
3231.25