/*--------------------------------*- C++ -*----------------------------------*\
| =========                 |                                                 |
| \\      /  F ield         | OpenFOAM: The Open Source CFD Toolbox           |
|  \\    /   O peration     | Version:  3.0.1                                 |
|   \\  /    A nd           | Web:      www.OpenFOAM.org                      |
|    \\/     M anipulation  |                                                 |
\*---------------------------------------------------------------------------*/
FoamFile
{
    version     2.0;
    format      ascii;
    class       volScalarField;
    location    "89.6";
    object      p;
}
// * * * * * * * * * * * * * * * * * * * * * * * * * * * * * * * * * * * * * //

dimensions      [1 -1 -2 0 0 0 0];

internalField   nonuniform List<scalar> 
21420
(
3516.49
3521
3527
3534.53
3543.62
3554.32
3566.68
3580.78
3596.65
3614.32
3633.83
3655.2
3678.41
3703.45
3730.25
3758.73
3788.75
3820.17
3852.64
3886.09
3920.41
3955.16
3989.94
4024.41
4058.12
4090.67
4121.61
4150.51
4176.98
4200.64
4221.09
4238.05
4251.23
4260.43
4265.52
4266.3
4262.87
4255.23
4243.5
4227.9
4208.63
4186.03
4160.4
4132.11
4101.59
4069.26
4035.54
4000.86
3965.64
3930.27
3895.13
3860.68
3828.28
3796.12
3765.17
3735.65
3707.75
3681.58
3657.22
3634.71
3614.07
3595.29
3578.36
3563.24
3549.92
3538.35
3528.49
3520.32
3513.8
3508.92
3505.65
3504.01
3503.98
3505.51
3508.64
3513.36
3519.69
3527.62
3537.18
3548.37
3561.21
3575.67
3591.78
3609.53
3628.91
3649.91
3672.49
3696.63
3722.29
3749.39
3777.87
3807.62
3838.5
3870.37
3902.97
3936.08
3969.38
4002.57
4035.29
4067.17
4097.81
4126.83
4153.84
4178.45
4200.32
4219.11
4234.51
4246.26
4254.15
4258
4257.7
4253.23
4244.64
4231.96
4215.38
4195.12
4171.47
4144.78
4115.45
4083.89
4050.58
4015.99
3980.59
3944.84
3909.18
3874.02
3839.73
3806.61
3774.95
3744.95
3716.78
3690.57
3666.39
3644.28
3624.24
3606.25
3590.26
3576.21
3564.02
3553.61
3544.89
3537.79
3532.22
3528.12
3525.41
3524.04
3524
3525.24
3527.72
3531.44
3536.42
3542.65
3550.16
3558.97
3569.12
3580.65
3593.6
3608.02
3623.97
3641.49
3660.61
3681.36
3703.75
3727.77
3753.39
3780.52
3809.09
3838.95
3869.94
3901.99
3934.58
3967.55
4000.57
4033.29
4065.31
4096.23
4125.63
4153.07
4178.13
4200.39
4219.48
4235.05
4246.81
4254.53
4258
4257.19
4252.03
4242.65
4229.14
4211.73
4190.72
4166.46
4139.35
4109.84
4078.4
4045.52
4011.67
3977.31
3942.88
3908.76
3875.33
3842.9
3811.73
3782.06
3754.03
3727.76
3703.33
3680.75
3660.02
3641.11
3624
3608.64
3594.96
3582.93
3572.49
3563.57
3556.13
3550.1
3545.45
3542.1
3540.04
3539.25
3539.71
3541.37
3544.27
3548.41
3553.83
3560.53
3568.54
3577.9
3588.63
3600.78
3614.36
3629.42
3645.98
3664.08
3683.73
3704.93
3727.68
3751.95
3777.68
3804.79
3833.17
3862.67
3893.12
3924.33
3956.03
3987.92
4019.69
4051
4081.48
4110.74
4138.38
4163.97
4187.08
4207.33
4224.31
4237.69
4247.19
4252.59
4253.67
4250.47
4242.99
4231.3
4215.61
4196.19
4173.4
4147.63
4119.33
4088.98
4057.09
4024.13
3990.59
3956.99
3924.04
3891.45
3859.77
3829.28
3800.2
3772.71
3746.91
3722.88
3700.64
3680.21
3661.55
3644.64
3629.43
3615.88
3603.92
3593.5
3584.55
3577
3570.77
3565.8
3561.99
3559.28
3557.62
3556.98
3557.38
3558.75
3561.13
3564.56
3569.11
3574.85
3581.9
3590.37
3600.39
3612.08
3625.56
3640.94
3658.31
3677.69
3699.12
3722.57
3747.98
3775.22
3804.14
3834.56
3866.26
3896.11
3929.04
3962
3994.69
4026.68
4057.61
4087.06
4114.64
4140.01
4162.85
4182.85
4199.78
4213.45
4223.7
4230.47
4233.61
4232.52
4227.9
4219.93
4208.67
4194.37
4177.24
4157.57
4135.6
4111.64
4085.98
4058.93
4030.79
4001.88
3972.5
3943.02
3913.77
3886.84
3859.15
3831.69
3804.96
3779.18
3754.55
3418.34
3422.84
3428.84
3436.37
3445.45
3456.15
3468.51
3482.61
3498.47
3516.14
3535.65
3557.01
3580.23
3605.27
3632.07
3660.55
3690.58
3722
3754.47
3787.93
3822.27
3857.03
3891.83
3926.31
3960.04
3992.61
4023.57
4052.48
4078.98
4102.65
4123.12
4140.09
4153.28
4162.49
4167.58
4168.37
4164.93
4157.28
4145.55
4129.93
4110.65
4088.03
4062.38
4034.07
4003.54
3971.19
3937.45
3902.76
3867.52
3832.14
3796.98
3762.52
3730.11
3697.95
3666.99
3637.47
3609.56
3583.4
3559.04
3536.53
3515.89
3497.11
3480.18
3465.07
3451.75
3440.18
3430.32
3422.15
3415.64
3410.75
3407.49
3405.85
3405.82
3407.35
3410.48
3415.2
3421.53
3429.46
3439.01
3450.21
3463.04
3477.5
3493.61
3511.36
3530.74
3551.73
3574.32
3598.46
3624.11
3651.22
3679.7
3709.45
3740.34
3772.21
3804.83
3837.94
3871.26
3904.46
3937.2
3969.09
3999.75
4028.79
4055.81
4080.44
4102.33
4121.13
4136.54
4148.31
4156.2
4160.06
4159.75
4155.28
4146.69
4134.01
4117.41
4097.14
4073.47
4046.76
4017.4
3985.83
3952.5
3917.89
3882.47
3846.7
3811.03
3775.85
3741.55
3708.43
3676.76
3646.75
3618.58
3592.37
3568.19
3546.08
3526.04
3508.06
3492.07
3478.03
3465.84
3455.43
3446.72
3439.62
3434.06
3429.96
3427.25
3425.89
3425.85
3427.09
3429.56
3433.29
3438.26
3444.49
3452
3460.81
3470.96
3482.49
3495.43
3509.85
3525.8
3543.31
3562.43
3583.18
3605.57
3629.6
3655.21
3682.35
3710.91
3740.78
3771.78
3803.84
3836.44
3869.42
3902.45
3935.19
3967.23
3998.17
4027.58
4055.04
4080.12
4102.4
4121.51
4137.09
4148.86
4156.59
4160.07
4159.25
4154.09
4144.71
4131.18
4113.75
4092.73
4068.45
4041.32
4011.79
3980.33
3947.43
3913.56
3879.18
3844.73
3810.61
3777.17
3744.73
3713.55
3683.87
3655.84
3629.58
3605.14
3582.56
3561.83
3542.93
3525.82
3510.46
3496.79
3484.76
3474.32
3465.41
3457.96
3451.94
3447.29
3443.95
3441.89
3441.1
3441.55
3443.22
3446.12
3450.26
3455.67
3462.37
3470.38
3479.74
3490.47
3502.61
3516.2
3531.25
3547.81
3565.91
3585.56
3606.76
3629.51
3653.78
3679.51
3706.62
3735
3764.51
3794.97
3826.19
3857.9
3889.8
3921.58
3952.91
3983.41
4012.69
4040.34
4065.95
4089.08
4109.34
4126.34
4139.74
4149.25
4154.66
4155.74
4152.53
4145.05
4133.35
4117.65
4098.21
4075.4
4049.61
4021.29
3990.92
3959.01
3926.03
3892.48
3858.85
3825.9
3793.3
3761.6
3731.11
3702.03
3674.53
3648.74
3624.7
3602.47
3582.04
3563.38
3546.47
3531.27
3517.71
3505.76
3495.34
3486.39
3478.85
3472.62
3467.65
3463.85
3461.14
3459.48
3458.85
3459.24
3460.61
3462.99
3466.42
3470.96
3476.7
3483.74
3492.21
3502.22
3513.91
3527.38
3542.76
3560.12
3579.5
3600.93
3624.38
3649.79
3677.03
3705.97
3736.39
3768.1
3797.97
3830.91
3863.89
3896.59
3928.6
3959.55
3989.02
4016.61
4041.99
4064.85
4084.86
4101.8
4115.48
4125.74
4132.51
4135.66
4134.56
4129.93
4121.95
4110.69
4096.37
4079.23
4059.55
4037.56
4013.6
3987.92
3960.85
3932.7
3903.78
3874.39
3844.9
3815.64
3788.71
3761.01
3733.54
3706.81
3681.02
3656.38
3320.12
3324.62
3330.62
3338.14
3347.22
3357.92
3370.27
3384.36
3400.22
3417.89
3437.39
3458.75
3481.96
3507
3533.81
3562.29
3592.33
3623.76
3656.25
3689.73
3724.09
3758.87
3793.7
3828.21
3861.98
3894.58
3925.58
3954.53
3981.07
4004.77
4025.28
4042.27
4055.49
4064.72
4069.81
4070.62
4067.14
4059.49
4047.74
4032.1
4012.79
3990.14
3964.45
3936.11
3905.53
3873.15
3839.37
3804.64
3769.37
3733.96
3698.79
3664.31
3631.88
3599.7
3568.73
3539.2
3511.29
3485.13
3460.77
3438.26
3417.62
3398.85
3381.93
3366.82
3353.5
3341.94
3332.09
3323.92
3317.41
3312.53
3309.26
3307.62
3307.59
3309.13
3312.25
3316.97
3323.3
3331.23
3340.78
3351.97
3364.8
3379.26
3395.37
3413.12
3432.5
3453.49
3476.07
3500.21
3525.87
3552.97
3581.46
3611.21
3642.12
3674
3706.64
3739.77
3773.12
3806.35
3839.11
3871.04
3901.73
3930.8
3957.86
3982.53
4004.45
4023.27
4038.71
4050.5
4058.41
4062.29
4061.97
4057.5
4048.9
4036.2
4019.58
3999.27
3975.57
3948.82
3919.42
3887.81
3854.44
3819.79
3784.33
3748.53
3712.83
3677.63
3643.31
3610.17
3578.48
3548.47
3520.29
3494.08
3469.9
3447.79
3427.76
3409.78
3393.81
3379.77
3367.59
3357.19
3348.49
3341.39
3335.84
3331.74
3329.04
3327.68
3327.65
3328.88
3331.36
3335.08
3340.06
3346.28
3353.79
3362.6
3372.74
3384.27
3397.21
3411.62
3427.56
3445.07
3464.18
3484.93
3507.32
3531.34
3556.96
3584.1
3612.68
3642.55
3673.56
3705.64
3738.26
3771.26
3804.33
3837.09
3869.17
3900.14
3929.6
3957.09
3982.21
4004.53
4023.67
4039.28
4051.07
4058.82
4062.32
4061.48
4056.32
4046.92
4033.37
4015.91
3994.85
3970.53
3943.37
3913.8
3882.3
3849.35
3815.44
3781.03
3746.55
3712.4
3678.94
3646.48
3615.29
3585.6
3557.57
3531.3
3506.87
3484.29
3463.57
3444.67
3427.57
3412.21
3398.55
3386.53
3376.09
3367.18
3359.75
3353.73
3349.08
3345.74
3343.68
3342.9
3343.35
3345.02
3347.91
3352.06
3357.46
3364.16
3372.17
3381.53
3392.25
3404.39
3417.97
3433.02
3449.58
3467.67
3487.32
3508.52
3531.27
3555.54
3581.27
3608.39
3636.78
3666.3
3696.78
3728.01
3759.74
3791.66
3823.47
3854.83
3885.36
3914.68
3942.37
3968.01
3991.19
4011.48
4028.51
4041.94
4051.47
4056.89
4057.98
4054.77
4047.27
4035.55
4019.82
4000.35
3977.5
3951.67
3923.31
3892.9
3860.94
3827.93
3794.34
3760.69
3727.71
3695.09
3663.38
3632.87
3603.78
3576.28
3550.48
3526.45
3504.22
3483.79
3465.14
3448.23
3433.03
3419.48
3407.53
3397.12
3388.18
3380.64
3374.43
3369.46
3365.66
3362.96
3361.3
3360.68
3361.06
3362.43
3364.81
3368.23
3372.77
3378.5
3385.53
3393.99
3403.99
3415.66
3429.13
3444.5
3461.85
3481.23
3502.65
3526.11
3551.52
3578.77
3607.71
3638.15
3669.88
3699.8
3732.76
3765.76
3798.5
3830.54
3861.52
3891.02
3918.65
3944.07
3966.95
3986.99
4003.95
4017.64
4027.91
4034.68
4037.86
4036.73
4032.09
4024.1
4012.82
3998.48
3981.32
3961.6
3939.59
3915.6
3889.9
3862.8
3834.63
3805.68
3776.26
3746.75
3717.48
3690.54
3662.82
3635.34
3608.59
3582.79
3558.14
3221.85
3226.34
3232.34
3239.86
3248.93
3259.61
3271.96
3286.04
3301.89
3319.55
3339.04
3360.4
3383.62
3408.65
3435.46
3463.95
3494
3525.45
3557.96
3591.46
3625.86
3660.68
3695.55
3730.12
3763.93
3796.59
3827.65
3856.66
3883.25
3907.01
3927.56
3944.6
3957.85
3967.1
3972.2
3973.03
3969.53
3961.86
3950.08
3934.4
3915.05
3892.35
3866.61
3838.21
3807.57
3775.13
3741.3
3706.52
3671.21
3635.75
3600.54
3566.04
3533.57
3501.38
3470.39
3440.85
3412.94
3386.77
3362.41
3339.91
3319.28
3300.51
3283.6
3268.5
3255.18
3243.63
3233.78
3225.62
3219.11
3214.23
3210.97
3209.34
3209.3
3210.84
3213.96
3218.68
3225
3232.93
3242.48
3253.67
3266.5
3280.96
3297.06
3314.8
3334.18
3355.17
3377.75
3401.89
3427.55
3454.66
3483.15
3512.92
3543.84
3575.74
3608.4
3641.57
3674.95
3708.23
3741.04
3773.01
3803.76
3832.88
3859.99
3884.71
3906.67
3925.55
3941.03
3952.84
3960.78
3964.68
3964.36
3959.88
3951.26
3938.53
3921.88
3901.53
3877.77
3850.97
3821.51
3789.83
3756.4
3721.69
3686.17
3650.32
3614.58
3579.34
3544.99
3511.82
3480.12
3450.09
3421.91
3395.7
3371.52
3349.42
3329.4
3311.43
3295.46
3281.43
3269.27
3258.88
3250.19
3243.1
3237.56
3233.47
3230.77
3229.42
3229.39
3230.63
3233.11
3236.83
3241.8
3248.03
3255.53
3264.33
3274.47
3285.98
3298.92
3313.33
3329.26
3346.76
3365.87
3386.61
3409
3433.02
3458.63
3485.78
3514.37
3544.26
3575.28
3607.4
3640.04
3673.08
3706.19
3739
3771.12
3802.16
3831.67
3859.22
3884.39
3906.77
3925.95
3941.61
3953.44
3961.2
3964.73
3963.88
3958.71
3949.29
3935.7
3918.21
3897.09
3872.72
3845.49
3815.86
3784.29
3751.29
3717.32
3682.86
3648.34
3614.14
3580.65
3548.16
3516.96
3487.25
3459.21
3432.94
3408.51
3385.94
3365.22
3346.34
3329.25
3313.9
3300.24
3288.23
3277.8
3268.9
3261.47
3255.46
3250.82
3247.49
3245.43
3244.65
3245.1
3246.77
3249.66
3253.8
3259.21
3265.9
3273.9
3283.25
3293.98
3306.11
3319.68
3334.73
3351.28
3369.37
3389.01
3410.21
3432.96
3457.23
3482.97
3510.09
3538.5
3568.03
3598.53
3629.79
3661.55
3693.51
3725.36
3756.76
3787.35
3816.72
3844.46
3870.16
3893.39
3913.74
3930.82
3944.29
3953.85
3959.29
3960.4
3957.17
3949.65
3937.9
3922.13
3902.62
3879.71
3853.81
3825.39
3794.91
3762.9
3729.83
3696.19
3662.49
3629.47
3596.82
3565.09
3534.56
3505.46
3477.95
3452.15
3428.12
3405.89
3385.46
3366.82
3349.92
3334.73
3321.19
3309.25
3298.85
3289.91
3282.39
3276.18
3271.22
3267.43
3264.73
3263.08
3262.46
3262.84
3264.22
3266.58
3270
3274.53
3280.24
3287.26
3295.7
3305.68
3317.34
3330.79
3346.15
3363.49
3382.86
3404.28
3427.74
3453.16
3480.42
3509.38
3539.83
3571.59
3601.59
3634.59
3667.63
3700.4
3732.49
3763.53
3793.08
3820.76
3846.22
3869.15
3889.22
3906.22
3919.93
3930.22
3937
3940.2
3939.04
3934.39
3926.37
3915.06
3900.69
3883.49
3863.74
3841.69
3817.65
3791.91
3764.78
3736.56
3707.57
3678.13
3648.58
3619.29
3592.34
3564.6
3537.09
3510.32
3484.5
3459.84
3123.52
3128.01
3133.99
3141.51
3150.57
3161.24
3173.58
3187.65
3203.49
3221.13
3240.62
3261.97
3285.18
3310.22
3337.04
3365.54
3395.6
3427.07
3459.62
3493.15
3527.58
3562.46
3597.39
3632.02
3665.91
3698.64
3729.78
3758.86
3785.53
3809.36
3829.97
3847.07
3860.36
3869.64
3874.76
3875.61
3872.08
3864.39
3852.57
3836.84
3817.43
3794.66
3768.85
3740.37
3709.66
3677.14
3643.24
3608.39
3573.02
3537.51
3502.25
3467.71
3435.2
3402.98
3371.97
3342.42
3314.5
3288.33
3263.97
3241.48
3220.85
3202.09
3185.19
3170.1
3156.8
3145.25
3135.41
3127.26
3120.75
3115.88
3112.62
3110.99
3110.95
3112.48
3115.61
3120.33
3126.64
3134.57
3144.12
3155.3
3168.12
3182.58
3198.68
3216.42
3235.8
3256.78
3279.36
3303.5
3329.16
3356.27
3384.77
3414.55
3445.49
3477.43
3510.12
3543.34
3576.77
3610.1
3642.97
3675.01
3705.82
3735.02
3762.2
3786.99
3809.01
3827.95
3843.48
3855.34
3863.31
3867.22
3866.91
3862.42
3853.78
3841.02
3824.31
3803.9
3780.08
3753.19
3723.65
3691.89
3658.38
3623.59
3588
3552.09
3516.28
3480.99
3446.6
3413.4
3381.67
3351.63
3323.44
3297.22
3273.05
3250.95
3230.94
3212.99
3197.04
3183.02
3170.87
3160.5
3151.82
3144.75
3139.22
3135.14
3132.45
3131.11
3131.09
3132.32
3134.8
3138.53
3143.49
3149.72
3157.21
3166.01
3176.14
3187.65
3200.57
3214.97
3230.89
3248.38
3267.48
3288.21
3310.6
3334.62
3360.24
3387.4
3415.99
3445.9
3476.95
3509.11
3541.79
3574.87
3608.04
3640.91
3673.1
3704.21
3733.8
3761.43
3786.68
3809.12
3828.38
3844.09
3855.96
3863.76
3867.31
3866.45
3861.27
3851.81
3838.19
3820.63
3799.45
3775
3747.69
3717.97
3686.32
3653.23
3619.2
3584.67
3550.08
3515.84
3482.3
3449.78
3418.54
3388.82
3360.77
3334.5
3310.07
3287.51
3266.8
3247.93
3230.85
3215.51
3201.87
3189.87
3179.45
3170.56
3163.14
3157.14
3152.5
3149.18
3147.13
3146.35
3146.8
3148.47
3151.36
3155.5
3160.9
3167.59
3175.58
3184.93
3195.64
3207.77
3221.33
3236.37
3252.92
3271
3290.63
3311.83
3334.58
3358.85
3384.6
3411.74
3440.15
3469.71
3500.24
3531.53
3563.34
3595.34
3627.25
3658.71
3689.36
3718.8
3746.62
3772.4
3795.7
3816.12
3833.27
3846.79
3856.39
3861.85
3862.98
3859.74
3852.2
3840.41
3824.59
3805
3782.02
3756.04
3727.53
3696.97
3664.87
3631.73
3598.02
3564.26
3531.19
3498.5
3466.73
3436.18
3407.06
3379.54
3353.74
3329.71
3307.48
3287.06
3268.43
3251.54
3236.36
3222.83
3210.9
3200.51
3191.59
3184.08
3177.88
3172.94
3169.16
3166.47
3164.83
3164.2
3164.59
3165.96
3168.32
3171.73
3176.24
3181.94
3188.93
3197.35
3207.31
3218.95
3232.38
3247.72
3265.05
3284.41
3305.83
3329.29
3354.72
3381.99
3410.97
3441.44
3473.23
3503.35
3536.39
3569.48
3602.31
3634.47
3665.57
3695.19
3722.94
3748.46
3771.45
3791.57
3808.61
3822.35
3832.66
3839.45
3842.66
3841.49
3836.83
3828.77
3817.42
3803
3785.76
3765.95
3743.85
3719.76
3693.97
3666.78
3638.51
3609.47
3579.98
3550.39
3521.06
3494.1
3466.33
3438.79
3411.99
3386.15
3361.47
3025.13
3029.61
3035.59
3043.09
3052.14
3062.8
3075.12
3089.18
3105.01
3122.64
3142.12
3163.46
3186.67
3211.71
3238.53
3267.04
3297.12
3328.62
3361.2
3394.78
3429.27
3464.21
3499.22
3533.93
3567.9
3600.73
3631.96
3661.14
3687.9
3711.82
3732.52
3749.68
3763.03
3772.34
3777.48
3778.34
3774.8
3767.07
3755.2
3739.42
3719.94
3697.08
3671.18
3642.6
3611.8
3579.18
3545.19
3510.26
3474.81
3439.22
3403.9
3369.33
3336.75
3304.5
3273.47
3243.91
3215.98
3189.8
3165.45
3142.96
3122.34
3103.59
3086.7
3071.63
3058.33
3046.8
3036.97
3028.82
3022.33
3017.46
3014.2
3012.57
3012.53
3014.07
3017.19
3021.91
3028.22
3036.14
3045.69
3056.87
3069.68
3084.13
3100.23
3117.97
3137.34
3158.32
3180.89
3205.03
3230.69
3257.81
3286.32
3316.12
3347.09
3379.06
3411.8
3445.07
3478.56
3511.97
3544.91
3577.04
3607.93
3637.21
3664.48
3689.36
3711.47
3730.47
3746.07
3757.98
3765.99
3769.92
3769.63
3765.13
3756.46
3743.65
3726.88
3706.39
3682.48
3655.51
3625.86
3594
3560.38
3525.49
3489.81
3453.81
3417.93
3382.58
3348.13
3314.9
3283.14
3253.08
3224.88
3198.65
3174.48
3152.4
3132.4
3114.46
3098.53
3084.54
3072.41
3062.05
3053.39
3046.34
3040.82
3036.76
3034.08
3032.75
3032.73
3033.97
3036.45
3040.17
3045.14
3051.36
3058.85
3067.64
3077.76
3089.25
3102.16
3116.54
3132.45
3149.93
3169.02
3189.74
3212.12
3236.14
3261.77
3288.94
3317.55
3347.49
3378.55
3410.77
3443.49
3476.64
3509.87
3542.83
3575.11
3606.3
3635.98
3663.71
3689.06
3711.59
3730.93
3746.71
3758.64
3766.48
3770.05
3769.21
3764
3754.5
3740.82
3723.19
3701.92
3677.37
3649.96
3620.13
3588.38
3555.2
3521.06
3486.45
3451.79
3417.48
3383.88
3351.32
3320.05
3290.31
3262.24
3235.97
3211.55
3188.99
3168.3
3149.44
3132.37
3117.05
3103.43
3091.44
3081.04
3072.16
3064.75
3058.76
3054.14
3050.82
3048.78
3048.01
3048.45
3050.12
3053.01
3057.14
3062.54
3069.22
3077.21
3086.54
3097.25
3109.37
3122.92
3137.95
3154.49
3172.56
3192.19
3213.38
3236.13
3260.41
3286.16
3313.31
3341.75
3371.34
3401.9
3433.23
3465.09
3497.16
3529.13
3560.67
3591.4
3620.93
3648.84
3674.71
3698.11
3718.62
3735.85
3749.44
3759.09
3764.58
3765.73
3762.49
3754.91
3743.07
3727.18
3707.51
3684.43
3658.35
3629.73
3599.06
3566.86
3533.62
3499.83
3466
3432.86
3400.12
3368.31
3337.73
3308.59
3281.06
3255.25
3231.22
3209
3188.59
3169.96
3153.09
3137.92
3124.4
3112.49
3102.12
3093.21
3085.71
3079.54
3074.6
3070.84
3068.17
3066.54
3065.91
3066.3
3067.67
3070.02
3073.41
3077.91
3083.58
3090.55
3098.95
3108.88
3120.49
3133.89
3149.21
3166.52
3185.87
3207.29
3230.75
3256.19
3283.48
3312.48
3342.99
3374.79
3405.09
3438.17
3471.31
3504.22
3536.46
3567.65
3597.36
3625.18
3650.79
3673.85
3694.04
3711.12
3724.91
3735.24
3742.04
3745.26
3744.08
3739.39
3731.29
3719.89
3705.42
3688.11
3668.24
3646.08
3621.91
3596.06
3568.8
3540.47
3511.37
3481.82
3452.17
3422.8
3395.83
3368.02
3340.43
3313.6
3287.73
3263.02
2926.68
2931.16
2937.13
2944.62
2953.65
2964.3
2976.6
2990.64
3006.45
3024.07
3043.53
3064.87
3088.07
3113.11
3139.94
3168.46
3198.56
3230.09
3262.73
3296.35
3330.91
3365.93
3401.02
3435.84
3469.92
3502.85
3534.19
3563.49
3590.36
3614.39
3635.19
3652.43
3665.85
3675.21
3680.37
3681.24
3677.69
3669.91
3657.99
3642.13
3622.56
3599.6
3573.59
3544.9
3513.98
3481.25
3447.15
3412.11
3376.57
3340.9
3305.51
3270.89
3238.24
3205.95
3174.9
3145.31
3117.37
3091.19
3066.84
3044.35
3023.75
3005.02
2988.14
2973.08
2959.8
2948.28
2938.46
2930.33
2923.84
2918.97
2915.73
2914.1
2914.05
2915.59
2918.71
2923.42
2929.73
2937.65
2947.19
2958.37
2971.17
2985.62
3001.71
3019.44
3038.81
3059.78
3082.36
3106.49
3132.15
3159.28
3187.8
3217.62
3248.62
3280.64
3313.44
3346.77
3380.34
3413.82
3446.87
3479.09
3510.09
3539.47
3566.85
3591.82
3614.03
3633.12
3648.8
3660.78
3668.83
3672.79
3672.52
3668.01
3659.29
3646.43
3629.59
3609.01
3584.99
3557.9
3528.14
3496.15
3462.41
3427.4
3391.61
3355.51
3319.53
3284.11
3249.6
3216.31
3184.52
3154.43
3126.22
3099.99
3075.82
3053.75
3033.77
3015.85
2999.94
2985.97
2973.87
2963.54
2954.9
2947.87
2942.37
2938.32
2935.66
2934.34
2934.32
2935.57
2938.05
2941.77
2946.74
2952.95
2960.43
2969.21
2979.32
2990.8
3003.69
3018.06
3033.95
3051.41
3070.49
3091.2
3113.58
3137.6
3163.23
3190.41
3219.04
3249.01
3280.12
3312.37
3345.16
3378.38
3411.7
3444.74
3477.13
3508.43
3538.23
3566.08
3591.54
3614.18
3633.62
3649.48
3661.48
3669.37
3672.96
3672.13
3666.9
3657.35
3643.6
3625.88
3604.5
3579.84
3552.3
3522.35
3490.48
3457.17
3422.92
3388.2
3353.45
3319.06
3285.4
3252.78
3221.48
3191.71
3163.63
3137.36
3112.94
3090.4
3069.72
3050.87
3033.82
3018.52
3004.92
2992.95
2982.56
2973.7
2966.31
2960.33
2955.72
2952.41
2950.39
2949.61
2950.06
2951.72
2954.61
2958.74
2964.13
2970.8
2978.78
2988.11
2998.8
3010.91
3024.45
3039.47
3056
3074.06
3093.68
3114.86
3137.61
3161.89
3187.66
3214.83
3243.29
3272.91
3303.51
3334.89
3366.82
3398.95
3431.01
3462.63
3493.47
3523.1
3551.13
3577.11
3600.63
3621.24
3638.57
3652.24
3661.96
3667.49
3668.66
3665.4
3657.79
3645.88
3629.91
3610.14
3586.94
3560.74
3531.99
3501.19
3468.87
3435.52
3401.62
3367.71
3334.48
3301.68
3269.83
3239.21
3210.04
3182.5
3156.69
3132.66
3110.44
3090.04
3071.43
3054.57
3039.41
3025.91
3014.02
3003.66
2994.78
2987.3
2981.14
2976.23
2972.48
2969.82
2968.2
2967.57
2967.97
2969.33
2971.68
2975.05
2979.53
2985.17
2992.12
3000.48
3010.37
3021.95
3035.33
3050.62
3067.91
3087.25
3108.65
3132.12
3157.57
3184.89
3213.92
3244.45
3276.27
3306.81
3339.92
3373.14
3406.13
3438.47
3469.76
3499.57
3527.5
3553.2
3576.35
3596.61
3613.76
3627.59
3637.96
3644.77
3647.99
3646.81
3642.08
3633.93
3622.48
3607.94
3590.56
3570.61
3548.37
3524.12
3498.18
3470.85
3442.44
3413.27
3383.64
3353.93
3324.51
3297.53
3269.67
3242.03
3215.15
3189.25
3164.52
2828.18
2832.64
2838.6
2846.08
2855.1
2865.72
2878.01
2892.03
2907.82
2925.42
2944.87
2966.19
2989.39
3014.43
3041.27
3069.81
3099.93
3131.5
3164.19
3197.87
3232.5
3267.61
3302.81
3337.74
3371.95
3405.01
3436.49
3465.92
3492.92
3517.08
3537.99
3555.33
3568.82
3578.24
3583.43
3584.31
3580.74
3572.91
3560.92
3544.97
3525.3
3502.23
3476.09
3447.27
3416.21
3383.35
3349.11
3313.96
3278.31
3242.55
3207.07
3172.39
3139.65
3107.33
3076.24
3046.63
3018.68
2992.49
2968.15
2945.67
2925.08
2906.36
2889.5
2874.46
2861.2
2849.69
2839.89
2831.76
2825.28
2820.43
2817.19
2815.56
2815.51
2817.05
2820.17
2824.88
2831.18
2839.09
2848.63
2859.8
2872.6
2887.03
2903.12
2920.85
2940.21
2961.18
2983.75
3007.88
3033.54
3060.68
3089.21
3119.06
3150.1
3182.16
3215.02
3248.43
3282.09
3315.68
3348.83
3381.16
3412.28
3441.79
3469.29
3494.38
3516.7
3535.9
3551.67
3563.72
3571.83
3575.83
3575.57
3571.05
3562.29
3549.36
3532.43
3511.75
3487.61
3460.38
3430.47
3398.34
3364.45
3329.31
3293.38
3257.16
3221.09
3185.57
3150.99
3117.65
3085.81
3055.7
3027.47
3001.24
2977.07
2955.01
2935.05
2917.15
2901.27
2887.33
2875.26
2864.96
2856.35
2849.34
2843.86
2839.83
2837.18
2835.88
2835.87
2837.12
2839.6
2843.32
2848.28
2854.49
2861.96
2870.73
2880.82
2892.28
2905.16
2919.51
2935.38
2952.82
2971.88
2992.59
3014.95
3038.97
3064.61
3091.8
3120.46
3150.46
3181.63
3213.92
3246.79
3280.1
3313.51
3346.67
3379.17
3410.6
3440.53
3468.52
3494.11
3516.88
3536.43
3552.4
3564.48
3572.43
3576.04
3575.22
3569.97
3560.36
3546.53
3528.7
3507.21
3482.41
3454.73
3424.63
3392.6
3359.15
3324.77
3289.94
3255.08
3220.6
3186.86
3154.18
3122.83
3093.03
3064.94
3038.66
3014.25
2991.72
2971.05
2952.23
2935.2
2919.92
2906.34
2894.39
2884.02
2875.18
2867.81
2861.85
2857.25
2853.96
2851.94
2851.17
2851.62
2853.28
2856.16
2860.28
2865.66
2872.33
2880.3
2889.61
2900.3
2912.39
2925.92
2940.92
2957.44
2975.49
2995.1
3016.28
3039.02
3063.31
3089.09
3116.28
3144.77
3174.42
3205.07
3236.51
3268.51
3300.73
3332.88
3364.61
3395.56
3425.32
3453.48
3479.6
3503.24
3523.98
3541.42
3555.19
3564.98
3570.56
3571.75
3568.49
3560.83
3548.85
3532.78
3512.89
3489.56
3463.21
3434.31
3403.36
3370.89
3337.41
3303.4
3269.38
3236.06
3203.18
3171.27
3140.61
3111.42
3083.87
3058.04
3034.02
3011.81
2991.42
2972.82
2955.97
2940.84
2927.36
2915.49
2905.15
2896.29
2888.83
2882.7
2877.81
2874.08
2871.44
2869.83
2869.22
2869.6
2870.96
2873.29
2876.65
2881.1
2886.71
2893.62
2901.94
2911.8
2923.34
2936.68
2951.94
2969.21
2988.53
3009.93
3033.4
3058.86
3086.21
3115.27
3145.85
3177.69
3208.49
3241.64
3274.94
3308.05
3340.5
3371.91
3401.84
3429.89
3455.7
3478.95
3499.3
3516.52
3530.41
3540.81
3547.65
3550.87
3549.67
3544.91
3536.7
3525.19
3510.57
3493.1
3473.06
3450.72
3426.38
3400.35
3372.92
3344.43
3315.17
3285.45
3255.66
3226.18
3199.19
3171.27
3143.58
3116.65
3090.7
3065.94
2729.62
2734.07
2740.02
2747.48
2756.47
2767.08
2779.34
2793.34
2809.11
2826.69
2846.12
2867.43
2890.62
2915.66
2942.51
2971.07
3001.22
3032.83
3065.58
3099.34
3134.05
3169.27
3204.59
3239.65
3273.99
3307.21
3338.84
3368.42
3395.58
3419.88
3440.92
3458.37
3471.95
3481.43
3486.66
3487.54
3483.96
3476.07
3464
3447.95
3428.17
3404.96
3378.67
3349.7
3318.49
3285.47
3251.09
3215.8
3180.02
3144.15
3108.58
3073.83
3041
3008.63
2977.5
2947.87
2919.9
2893.71
2869.36
2846.9
2826.32
2807.62
2790.78
2775.76
2762.52
2751.03
2741.24
2733.13
2726.66
2721.81
2718.58
2716.95
2716.91
2718.45
2721.56
2726.27
2732.56
2740.47
2750
2761.16
2773.95
2788.38
2804.46
2822.18
2841.53
2862.5
2885.06
2909.2
2934.86
2962
2990.55
3020.43
3051.51
3083.63
3116.57
3150.06
3183.82
3217.52
3250.79
3283.26
3314.52
3344.17
3371.81
3397.04
3419.49
3438.81
3454.68
3466.82
3475
3479.03
3478.79
3474.25
3465.44
3452.44
3435.41
3414.61
3390.33
3362.94
3332.87
3300.57
3266.52
3231.21
3195.14
3158.78
3122.59
3086.97
3052.31
3018.9
2987.02
2956.87
2928.62
2902.39
2878.23
2856.18
2836.24
2818.37
2802.52
2788.62
2776.57
2766.3
2757.72
2750.75
2745.29
2741.28
2738.66
2737.37
2737.36
2738.62
2741.11
2744.82
2749.78
2755.98
2763.44
2772.19
2782.27
2793.71
2806.57
2820.9
2836.74
2854.17
2873.21
2893.9
2916.26
2940.28
2965.92
2993.13
3021.82
3051.85
3083.08
3115.41
3148.38
3181.78
3215.31
3248.59
3281.23
3312.81
3342.9
3371.03
3396.78
3419.7
3439.39
3455.47
3467.64
3475.65
3479.3
3478.49
3473.21
3463.53
3449.6
3431.66
3410.03
3385.07
3357.22
3326.96
3294.76
3261.15
3226.62
3191.65
3156.67
3122.08
3088.25
3055.5
3024.1
2994.26
2966.15
2939.87
2915.47
2892.95
2872.31
2853.51
2836.51
2821.25
2807.69
2795.77
2785.42
2776.6
2769.25
2763.31
2758.73
2755.45
2753.44
2752.67
2753.13
2754.79
2757.67
2761.78
2767.15
2773.8
2781.76
2791.07
2801.74
2813.81
2827.33
2842.32
2858.81
2876.85
2896.45
2917.62
2940.37
2964.66
2990.45
3017.66
3046.18
3075.88
3106.58
3138.09
3170.18
3202.49
3234.75
3266.6
3297.68
3327.59
3355.89
3382.16
3405.96
3426.85
3444.42
3458.3
3468.18
3473.81
3475.02
3471.75
3464.03
3451.98
3435.79
3415.77
3392.28
3365.76
3336.69
3305.57
3272.94
3239.3
3205.15
3171.02
3137.58
3104.63
3072.66
3041.95
3012.73
2985.15
2959.32
2935.29
2913.09
2892.72
2874.14
2857.31
2842.19
2828.74
2816.89
2806.58
2797.75
2790.32
2784.21
2779.34
2775.63
2773.01
2771.42
2770.82
2771.2
2772.55
2774.87
2778.2
2782.62
2788.2
2795.07
2803.35
2813.16
2824.66
2837.96
2853.18
2870.42
2889.72
2911.11
2934.59
2960.07
2987.44
3016.55
3047.18
3079.04
3110.13
3143.33
3176.74
3209.96
3242.54
3274.09
3304.17
3332.35
3358.29
3381.65
3402.11
3419.41
3433.36
3443.81
3450.66
3453.88
3452.67
3447.87
3439.6
3428.01
3413.3
3395.73
3375.59
3353.14
3328.69
3302.55
3275.02
3246.42
3217.06
3187.25
3157.36
3127.82
3100.83
3072.84
3045.07
3018.08
2992.09
2967.29
2631
2635.44
2641.37
2648.81
2657.79
2668.37
2680.61
2694.58
2710.32
2727.88
2747.29
2768.59
2791.77
2816.81
2843.67
2872.25
2902.43
2934.08
2966.91
3000.74
3035.55
3070.89
3106.34
3141.56
3176.06
3209.44
3241.24
3271
3298.32
3322.79
3343.98
3361.56
3375.24
3384.79
3390.05
3390.95
3387.34
3379.39
3367.23
3351.07
3331.15
3307.79
3281.34
3252.19
3220.81
3187.62
3153.07
3117.63
3081.71
3045.71
3010.03
2975.2
2942.27
2909.85
2878.68
2849.02
2821.03
2794.84
2770.5
2748.04
2727.48
2708.8
2691.99
2676.99
2663.77
2652.3
2642.53
2634.43
2627.98
2623.14
2619.91
2618.29
2618.24
2619.78
2622.89
2627.59
2633.88
2641.78
2651.3
2662.46
2675.24
2689.66
2705.73
2723.44
2742.79
2763.75
2786.31
2810.44
2836.1
2863.25
2891.82
2921.73
2952.85
2985.05
3018.06
3051.66
3085.53
3119.36
3152.77
3185.38
3216.8
3246.61
3274.4
3299.79
3322.39
3341.85
3357.84
3370.07
3378.32
3382.4
3382.17
3377.62
3368.76
3355.67
3338.53
3317.59
3293.15
3265.59
3235.33
3202.84
3168.6
3133.12
3096.88
3060.37
3024.04
2988.31
2953.55
2920.07
2888.13
2857.95
2829.68
2803.44
2779.29
2757.26
2737.35
2719.51
2703.69
2689.82
2677.82
2667.58
2659.04
2652.09
2646.66
2642.68
2640.08
2638.8
2638.81
2640.07
2642.56
2646.27
2651.22
2657.41
2664.86
2673.6
2683.66
2695.08
2707.92
2722.22
2738.04
2755.44
2774.46
2795.14
2817.49
2841.5
2867.15
2894.38
2923.1
2953.18
2984.47
3016.85
3049.92
3083.44
3117.09
3150.52
3183.31
3215.06
3245.31
3273.63
3299.55
3322.64
3342.47
3358.69
3370.97
3379.05
3382.74
3381.93
3376.62
3366.87
3352.83
3334.76
3312.96
3287.83
3259.8
3229.34
3196.95
3163.16
3128.46
3093.33
3058.21
3023.51
2989.58
2956.75
2925.29
2895.41
2867.28
2841
2816.6
2794.1
2773.49
2754.71
2737.74
2722.51
2708.98
2697.08
2686.76
2677.97
2670.64
2664.72
2660.15
2656.89
2654.9
2654.14
2654.59
2656.25
2659.12
2663.23
2668.58
2675.23
2683.17
2692.46
2703.12
2715.18
2728.67
2743.64
2760.12
2778.15
2797.73
2818.9
2841.64
2865.94
2891.74
2918.97
2947.53
2977.28
3008.04
3039.62
3071.82
3104.24
3136.61
3168.6
3199.83
3229.9
3258.37
3284.82
3308.78
3329.83
3347.55
3361.56
3371.53
3377.22
3378.46
3375.18
3367.41
3355.26
3338.94
3318.77
3295.11
3268.39
3239.12
3207.81
3174.99
3141.18
3106.88
3072.62
3039.06
3006.02
2973.97
2943.21
2913.95
2886.36
2860.52
2836.49
2814.3
2793.94
2775.38
2758.58
2743.48
2730.05
2718.23
2707.95
2699.15
2691.75
2685.66
2680.82
2677.14
2674.55
2672.97
2672.36
2672.76
2674.11
2676.41
2679.72
2684.1
2689.64
2696.46
2704.69
2714.46
2725.9
2739.16
2754.34
2771.55
2790.83
2812.21
2835.68
2861.19
2888.6
2917.75
2948.43
2980.34
3011.71
3044.99
3078.51
3111.87
3144.6
3176.31
3206.54
3234.87
3260.96
3284.46
3305.02
3322.42
3336.44
3346.94
3353.81
3357.04
3355.81
3350.96
3342.62
3330.95
3316.14
3298.46
3278.19
3255.62
3231.05
3204.79
3177.14
3148.43
3118.96
3089.03
3059.04
3029.41
3002.43
2974.37
2946.52
2919.46
2893.42
2868.57
2532.33
2536.76
2542.67
2550.08
2559.04
2569.59
2581.8
2595.74
2611.46
2628.99
2648.38
2669.67
2692.84
2717.88
2744.75
2773.35
2803.57
2835.27
2868.18
2902.09
2937.01
2972.47
3008.08
3043.46
3078.14
3111.7
3143.7
3173.65
3201.17
3225.81
3247.17
3264.89
3278.68
3288.31
3293.62
3294.52
3290.88
3282.87
3270.61
3254.33
3234.26
3210.73
3184.09
3154.75
3123.17
3089.79
3055.06
3019.44
2983.37
2947.24
2911.44
2876.52
2843.48
2810.99
2779.77
2750.08
2722.08
2695.88
2671.54
2649.1
2628.56
2609.91
2593.11
2578.14
2564.95
2553.5
2543.75
2535.67
2529.23
2524.4
2521.18
2519.56
2519.51
2521.05
2524.16
2528.85
2535.14
2543.03
2552.54
2563.69
2576.45
2590.86
2606.93
2624.64
2643.97
2664.92
2687.48
2711.6
2737.27
2764.43
2793.02
2822.96
2854.14
2886.41
2919.51
2953.21
2987.22
3021.19
3054.75
3087.53
3119.12
3149.11
3177.08
3202.64
3225.4
3245.01
3261.13
3273.48
3281.81
3285.94
3285.73
3281.16
3272.24
3259.06
3241.79
3220.69
3196.07
3168.31
3137.85
3105.15
3070.71
3035.02
2998.6
2961.91
2925.44
2889.58
2854.71