/*--------------------------------*- C++ -*----------------------------------*\
| =========                 |                                                 |
| \\      /  F ield         | OpenFOAM: The Open Source CFD Toolbox           |
|  \\    /   O peration     | Version:  3.0.1                                 |
|   \\  /    A nd           | Web:      www.OpenFOAM.org                      |
|    \\/     M anipulation  |                                                 |
\*---------------------------------------------------------------------------*/
FoamFile
{
    version     2.0;
    format      ascii;
    class       volVectorField;
    location    "25.8";
    object      U;
}
// * * * * * * * * * * * * * * * * * * * * * * * * * * * * * * * * * * * * * //

dimensions      [0 1 -1 0 0 0 0];

internalField   nonuniform List<vector> 
22680
(
(-0.108224 0.000216225 0)
(-0.109535 0.000140033 0)
(-0.110403 6.59957e-05 0)
(-0.110654 -5.39864e-06 0)
(-0.110307 -7.49142e-05 0)
(-0.109387 -0.000141729 0)
(-0.107916 -0.000205778 0)
(-0.105915 -0.00026751 0)
(-0.103403 -0.00032664 0)
(-0.1004 -0.00038427 0)
(-0.0969216 -0.00043951 0)
(-0.092979 -0.000494688 0)
(-0.0885798 -0.000547958 0)
(-0.0837245 -0.000603138 0)
(-0.0784085 -0.000657062 0)
(-0.072624 -0.000711901 0)
(-0.0663565 -0.000771599 0)
(-0.0595922 -0.000829234 0)
(-0.0523194 -0.000892266 0)
(-0.0445362 -0.000949276 0)
(-0.0362519 -0.00101246 0)
(-0.0274946 -0.00106176 0)
(-0.0183138 -0.00111812 0)
(-0.00898496 -0.0011524 0)
(0.00086308 -0.00119021 0)
(0.01123 -0.0012061 0)
(0.021547 -0.00122739 0)
(0.0319104 -0.0012215 0)
(0.0422328 -0.00122152 0)
(0.0524309 -0.00119421 0)
(0.0624177 -0.00117275 0)
(0.0721105 -0.00112563 0)
(0.0814265 -0.00108357 0)
(0.0902912 -0.00101969 0)
(0.0986312 -0.000949486 0)
(0.106386 -0.000882067 0)
(0.113504 -0.000800853 0)
(0.119941 -0.000721359 0)
(0.125661 -0.000632777 0)
(0.130636 -0.000545282 0)
(0.134844 -0.00045275 0)
(0.138272 -0.000360855 0)
(0.140909 -0.000267206 0)
(0.142749 -0.000174367 0)
(0.143781 -8.16883e-05 0)
(0.144001 8.49809e-06 0)
(0.143459 9.7142e-05 0)
(0.142154 0.000183623 0)
(0.140147 0.000265805 0)
(0.137465 0.000344082 0)
(0.13415 0.000418864 0)
(0.130248 0.000490451 0)
(0.125801 0.000554591 0)
(0.120848 0.00061748 0)
(0.115431 0.000670586 0)
(0.109581 0.000724281 0)
(0.103331 0.000765903 0)
(0.0967166 0.00081012 0)
(0.089785 0.0008398 0)
(0.0825834 0.000873515 0)
(0.0751611 0.00089122 0)
(0.0675669 0.000913811 0)
(0.0598465 0.00091966 0)
(0.0520539 0.000930033 0)
(0.0442408 0.000926081 0)
(0.0364509 0.000924451 0)
(0.0287193 0.000909959 0)
(0.0210963 0.000899614 0)
(0.0136133 0.000877936 0)
(0.00629613 0.000859803 0)
(-0.00084734 0.000838765 0)
(-0.00778879 0.000811633 0)
(-0.0145166 0.000787219 0)
(-0.0210193 0.000757619 0)
(-0.0272843 0.000729894 0)
(-0.0332983 0.000696695 0)
(-0.0390419 0.00066469 0)
(-0.0444985 0.000627379 0)
(-0.0496422 0.000589166 0)
(-0.0544521 0.000546039 0)
(-0.0589119 0.000503095 0)
(-0.0629878 0.000454289 0)
(-0.0666596 0.000405901 0)
(-0.0699028 0.000352097 0)
(-0.0726916 0.000296835 0)
(-0.0750105 0.000237212 0)
(-0.07685 0.00018023 0)
(-0.078176 0.000117183 0)
(-0.0789364 5.65725e-05 0)
(-0.0792436 -4.05819e-06 0)
(-0.0789946 -6.78116e-05 0)
(-0.0781408 -0.000127197 0)
(-0.076799 -0.00018756 0)
(-0.074999 -0.00024155 0)
(-0.0726987 -0.000297072 0)
(-0.0699682 -0.00034345 0)
(-0.0668154 -0.000390333 0)
(-0.0632679 -0.000428024 0)
(-0.0594348 -0.000467618 0)
(-0.0553089 -0.0004982 0)
(-0.0508825 -0.000527713 0)
(-0.0462568 -0.000554833 0)
(-0.0414388 -0.000576544 0)
(-0.0364174 -0.000597754 0)
(-0.0312168 -0.000617495 0)
(-0.0258784 -0.000635972 0)
(-0.0203982 -0.000655255 0)
(-0.0147361 -0.000673615 0)
(-0.00899948 -0.000685259 0)
(-0.00311056 -0.000704009 0)
(0.00287209 -0.000710143 0)
(0.0089653 -0.000729725 0)
(0.0151638 -0.000731669 0)
(0.0214312 -0.000747271 0)
(0.0277522 -0.00074605 0)
(0.0341147 -0.000756404 0)
(0.0404819 -0.00075136 0)
(0.0468549 -0.000757285 0)
(0.0531902 -0.000743402 0)
(0.0594765 -0.0007434 0)
(0.0656612 -0.000722754 0)
(0.0717238 -0.000715093 0)
(0.0776982 -0.000689701 0)
(0.0834148 -0.000661932 0)
(0.0888388 -0.000627314 0)
(0.0939998 -0.000593894 0)
(0.0988593 -0.000548375 0)
(0.103238 -0.000491774 0)
(0.107131 -0.00043034 0)
(0.110479 -0.000363214 0)
(0.113265 -0.000296305 0)
(0.115453 -0.00022145 0)
(0.117011 -0.000147555 0)
(0.117918 -6.93891e-05 0)
(0.118156 8.13051e-06 0)
(0.117744 9.0814e-05 0)
(0.116636 0.000168214 0)
(0.114874 0.000248149 0)
(0.112457 0.000322853 0)
(0.109403 0.000397517 0)
(0.105735 0.000470624 0)
(0.101483 0.000537892 0)
(0.09667 0.000601197 0)
(0.091343 0.000660264 0)
(0.0855444 0.00071287 0)
(0.0793212 0.000758738 0)
(0.0727282 0.000799492 0)
(0.0658436 0.000832531 0)
(0.0587399 0.000852703 0)
(0.0514811 0.000867436 0)
(0.0441404 0.00087131 0)
(0.0367851 0.00086776 0)
(0.0294852 0.000858181 0)
(0.0223367 0.000837081 0)
(0.0153794 0.000811654 0)
(0.00865561 0.000780445 0)
(0.00221682 0.00074528 0)
(-0.00391358 0.000708271 0)
(-0.009725 0.000669943 0)
(-0.0152092 0.000630908 0)
(-0.020368 0.000589966 0)
(-0.0252078 0.000553252 0)
(-0.0297266 0.000522125 0)
(-0.0339636 0.000485205 0)
(-0.0379488 0.000455982 0)
(-0.0416541 0.000425227 0)
(-0.0451199 0.000395747 0)
(-0.0483588 0.00036896 0)
(-0.0513415 0.000341953 0)
(-0.0541261 0.000317547 0)
(-0.0566897 0.000289202 0)
(-0.0590434 0.00026622 0)
(-0.0611702 0.000235391 0)
(-0.0630437 0.000210319 0)
(-0.0646818 0.000180704 0)
(-0.0661196 0.000155904 0)
(-0.0672537 0.000115199 0)
(-0.0681528 9.02376e-05 0)
(-0.0687319 4.81237e-05 0)
(-0.0689862 2.14086e-05 0)
(-0.0690306 -8.79469e-06 0)
(-0.0688979 -2.95843e-05 0)
(-0.0685168 -6.62532e-05 0)
(-0.0677429 -0.000104026 0)
(-0.0667412 -0.00014031 0)
(-0.0653195 -0.000191781 0)
(-0.063581 -0.000227703 0)
(-0.0614272 -0.00028064 0)
(-0.058847 -0.000321965 0)
(-0.0558934 -0.000378536 0)
(-0.0524863 -0.000424978 0)
(-0.0486824 -0.000476923 0)
(-0.0444394 -0.000526776 0)
(-0.0397876 -0.000575249 0)
(-0.034726 -0.000624608 0)
(-0.029254 -0.000672384 0)
(-0.023403 -0.000714617 0)
(-0.0171867 -0.000757711 0)
(-0.0106524 -0.000792069 0)
(-0.00382022 -0.000824783 0)
(0.0032832 -0.000849755 0)
(0.0105217 -0.000863626 0)
(0.0178807 -0.00087728 0)
(0.0252754 -0.000874839 0)
(0.0326882 -0.000880864 0)
(0.0400753 -0.000867378 0)
(0.0473866 -0.000862486 0)
(0.0545558 -0.000835488 0)
(0.0615322 -0.000815347 0)
(0.0682406 -0.000774945 0)
(0.0746735 -0.000750424 0)
(0.0808238 -0.000702693 0)
(0.0865766 -0.000658916 0)
(0.0918616 -0.000599594 0)
(0.0967479 -0.000561208 0)
(0.101232 -0.000508066 0)
(0.105262 -0.000442836 0)
(0.108804 -0.000389393 0)
(0.11166 -0.000372197 0)
(0.114377 -0.000343226 0)
(0.116965 -3.88146e-05 0)
(0.117173 0.000277897 0)
(0.112597 0.00144548 0)
(0.0971789 0.00363547 0)
(0.0584478 0.00104665 0)
(-0.108261 0.000648624 0)
(-0.10957 0.000420042 0)
(-0.110438 0.000197643 0)
(-0.110687 -1.60839e-05 0)
(-0.110339 -0.000224897 0)
(-0.109418 -0.000425346 0)
(-0.107946 -0.00061748 0)
(-0.105944 -0.000802663 0)
(-0.103431 -0.000980036 0)
(-0.100427 -0.0011529 0)
(-0.0969476 -0.0013186 0)
(-0.0930047 -0.00148409 0)
(-0.0886054 -0.00164386 0)
(-0.0837504 -0.00180936 0)
(-0.0784349 -0.0019711 0)
(-0.0726511 -0.00213561 0)
(-0.0663845 -0.00231471 0)
(-0.0596208 -0.00248766 0)
(-0.0523483 -0.00267682 0)
(-0.0445645 -0.00284793 0)
(-0.0362792 -0.00303759 0)
(-0.0275193 -0.00318557 0)
(-0.0183356 -0.00335474 0)
(-0.00900195 -0.00345772 0)
(0.000850139 -0.00357119 0)
(0.0112212 -0.00361887 0)
(0.0215432 -0.00368278 0)
(0.0319117 -0.0036651 0)
(0.0422393 -0.00366517 0)
(0.0524422 -0.00358319 0)
(0.0624341 -0.00351879 0)
(0.0721313 -0.00337739 0)
(0.0814519 -0.0032512 0)
(0.0903202 -0.00305951 0)
(0.0986633 -0.00284885 0)
(0.106421 -0.00264654 0)
(0.113541 -0.00240285 0)
(0.119981 -0.00216432 0)
(0.125702 -0.00189852 0)
(0.130679 -0.00163598 0)
(0.134887 -0.00135834 0)
(0.138316 -0.00108257 0)
(0.140953 -0.000801564 0)
(0.142793 -0.000522793 0)
(0.143825 -0.000244945 0)
(0.144045 2.5605e-05 0)
(0.143499 0.000291485 0)
(0.142193 0.000550952 0)
(0.140185 0.00079761 0)
(0.137502 0.00103246 0)
(0.134185 0.00125685 0)
(0.130281 0.0014716 0)
(0.125832 0.00166404 0)
(0.120877 0.00185271 0)
(0.115458 0.00201204 0)
(0.109605 0.00217314 0)
(0.103352 0.00229799 0)
(0.0967361 0.00243064 0)
(0.0898019 0.00251969 0)
(0.0825977 0.00262085 0)
(0.0751729 0.00267396 0)
(0.0675759 0.00274175 0)
(0.0598529 0.00275927 0)
(0.0520578 0.0027905 0)
(0.0442424 0.00277845 0)
(0.0364497 0.00277364 0)
(0.0287165 0.00273014 0)
(0.0210915 0.00269905 0)
(0.013607 0.00263404 0)
(0.00628845 0.00257958 0)
(-0.000856059 0.00251655 0)
(-0.00779837 0.00243511 0)
(-0.0145272 0.00236188 0)
(-0.0210307 0.00227353 0)
(-0.0272974 0.00219014 0)
(-0.0333127 0.00209073 0)
(-0.0390583 0.00199419 0)
(-0.0445167 0.00188268 0)
(-0.0496623 0.0017686 0)
(-0.0544748 0.00163882 0)
(-0.0589371 0.00150891 0)
(-0.0630146 0.00136341 0)
(-0.066689 0.00121797 0)
(-0.0699344 0.00105644 0)
(-0.0727254 0.000890887 0)
(-0.0750448 0.000712921 0)
(-0.0768865 0.000540006 0)
(-0.0782137 0.00035168 0)
(-0.0789763 0.000169276 0)
(-0.0792813 -1.16239e-05 0)
(-0.0790326 -0.000203512 0)
(-0.078178 -0.000381887 0)
(-0.0768351 -0.000563501 0)
(-0.0750331 -0.000725041 0)
(-0.0727307 -0.000891243 0)
(-0.0699981 -0.00103029 0)
(-0.0668428 -0.00117158 0)
(-0.0632927 -0.00128474 0)
(-0.0594591 -0.00140355 0)
(-0.0553288 -0.00149571 0)
(-0.0509016 -0.00158385 0)
(-0.0462725 -0.00166415 0)
(-0.0414534 -0.00172947 0)
(-0.0364314 -0.00179266 0)
(-0.0312277 -0.00185252 0)
(-0.0258862 -0.00191001 0)
(-0.0204039 -0.00196555 0)
(-0.0147413 -0.00202273 0)
(-0.00900915 -0.0020598 0)
(-0.00311501 -0.00211045 0)
(0.00286496 -0.00213177 0)
(0.00896225 -0.00218939 0)
(0.0151641 -0.00219512 0)
(0.021435 -0.00224157 0)
(0.0277596 -0.00223859 0)
(0.034124 -0.00227132 0)
(0.0404977 -0.00225166 0)
(0.0468735 -0.00227188 0)
(0.0532115 -0.00222905 0)
(0.0594992 -0.00223499 0)
(0.0656873 -0.00216657 0)
(0.0717492 -0.00214705 0)
(0.0777268 -0.00207438 0)
(0.0834477 -0.00199005 0)
(0.088872 -0.00188185 0)
(0.0940394 -0.00178231 0)
(0.0989074 -0.00164309 0)
(0.103289 -0.00147683 0)
(0.107183 -0.00129004 0)
(0.110531 -0.00108903 0)
(0.113319 -0.000889763 0)
(0.115508 -0.000665565 0)
(0.117067 -0.000441764 0)
(0.117975 -0.000206934 0)
(0.118214 2.63844e-05 0)
(0.117797 0.000272049 0)
(0.116688 0.000505194 0)
(0.114926 0.000746979 0)
(0.112506 0.000970391 0)
(0.109449 0.00119309 0)
(0.105777 0.00141108 0)
(0.101521 0.0016136 0)
(0.0967049 0.00180467 0)
(0.0913744 0.00198067 0)
(0.0855711 0.00213886 0)
(0.0793443 0.00227582 0)
(0.0727489 0.00240025 0)
(0.0658581 0.00249768 0)
(0.058747 0.00255784 0)
(0.0514823 0.00260254 0)
(0.0441365 0.00261679 0)
(0.0367774 0.00260467 0)
(0.0294729 0.00257567 0)
(0.0223213 0.00251306 0)
(0.0153623 0.00243759 0)
(0.00863574 0.00234245 0)
(0.00219471 0.00223631 0)
(-0.0039374 0.00212493 0)
(-0.00975056 0.00200892 0)
(-0.0152374 0.0018925 0)
(-0.020398 0.00177032 0)
(-0.0252376 0.00165738 0)
(-0.0297575 0.00156545 0)
(-0.0339958 0.00145487 0)
(-0.0379816 0.00136592 0)
(-0.0416855 0.00127458 0)
(-0.0451513 0.0011886 0)
(-0.0483896 0.00110612 0)
(-0.0513715 0.00102626 0)
(-0.0541564 0.000954085 0)
(-0.0567206 0.000867633 0)
(-0.0590761 0.00079669 0)
(-0.0612008 0.000708881 0)
(-0.0630748 0.000630708 0)
(-0.0647145 0.000540341 0)
(-0.0661566 0.000468331 0)
(-0.0672933 0.000344841 0)
(-0.0681932 0.000271058 0)
(-0.0687733 0.000145166 0)
(-0.069024 6.61995e-05 0)
(-0.069068 -2.98238e-05 0)
(-0.0689383 -8.60293e-05 0)
(-0.0685642 -0.000199804 0)
(-0.0677877 -0.000315974 0)
(-0.0667858 -0.000421318 0)
(-0.065362 -0.000573981 0)
(-0.063623 -0.000683281 0)
(-0.0614716 -0.000844697 0)
(-0.0588919 -0.000967031 0)
(-0.0559395 -0.0011377 0)
(-0.0525306 -0.00127376 0)
(-0.0487282 -0.00143168 0)
(-0.0444813 -0.00157923 0)
(-0.039825 -0.00172662 0)
(-0.034756 -0.00187174 0)
(-0.0292761 -0.00201472 0)
(-0.0234217 -0.00214149 0)
(-0.0172034 -0.00227344 0)
(-0.0106684 -0.0023733 0)
(-0.00383304 -0.00247383 0)
(0.00327642 -0.00255198 0)
(0.0105193 -0.00259071 0)
(0.0178825 -0.00263521 0)
(0.0252799 -0.00262526 0)
(0.0326948 -0.00264508 0)
(0.0400854 -0.00260507 0)
(0.0474011 -0.00258964 0)
(0.0545773 -0.00250811 0)
(0.0615599 -0.00244676 0)
(0.0682699 -0.00232474 0)
(0.0747083 -0.00225216 0)
(0.0808656 -0.00210834 0)
(0.08662 -0.00198106 0)
(0.0919043 -0.00180054 0)
(0.0968016 -0.00168294 0)
(0.101282 -0.0015156 0)
(0.10525 -0.00136926 0)
(0.108993 -0.00116285 0)
(0.111927 -0.000957689 0)
(0.114142 -0.000965605 0)
(0.116358 -0.000663978 0)
(0.117589 0.000877104 0)
(0.11514 0.00341085 0)
(0.105209 0.00805883 0)
(0.0743108 0.00863024 0)
(-0.108333 0.00108085 0)
(-0.109641 0.000699873 0)
(-0.110507 0.00032939 0)
(-0.110755 -2.80452e-05 0)
(-0.110404 -0.00037547 0)
(-0.10948 -0.000709424 0)
(-0.108006 -0.00102961 0)
(-0.106001 -0.0013382 0)
(-0.103486 -0.00163378 0)
(-0.100481 -0.00192182 0)
(-0.0969996 -0.00219788 0)
(-0.0930561 -0.00247359 0)
(-0.0886564 -0.00273974 0)
(-0.0838021 -0.00301544 0)
(-0.0784875 -0.00328491 0)
(-0.072705 -0.00355903 0)
(-0.0664403 -0.00385755 0)
(-0.0596777 -0.00414591 0)
(-0.052406 -0.0044614 0)
(-0.0446209 -0.0047469 0)
(-0.0363335 -0.00506334 0)
(-0.0275686 -0.00531028 0)
(-0.018379 -0.00559254 0)
(-0.00903552 -0.00576458 0)
(0.000824724 -0.00595377 0)
(0.0112039 -0.00603337 0)
(0.0215361 -0.00614003 0)
(0.0319148 -0.00611054 0)
(0.0422529 -0.00611067 0)
(0.0524655 -0.00597391 0)
(0.0624675 -0.00586653 0)
(0.0721734 -0.00563073 0)
(0.0815033 -0.00542034 0)
(0.0903787 -0.00510066 0)
(0.098728 -0.00474936 0)
(0.106493 -0.004412 0)
(0.113617 -0.00400567 0)
(0.120061 -0.00360794 0)
(0.125785 -0.00316477 0)
(0.130765 -0.00272701 0)
(0.134975 -0.00226409 0)
(0.138404 -0.00180431 0)
(0.141041 -0.00133582 0)
(0.142881 -0.000871135 0)
(0.143914 -0.000408626 0)
(0.144133 4.3754e-05 0)
(0.143578 0.000486851 0)
(0.142273 0.000918372 0)
(0.140262 0.00132995 0)
(0.137576 0.00172144 0)
(0.134255 0.00209555 0)
(0.130346 0.00245351 0)
(0.125893 0.00277432 0)
(0.120934 0.00308882 0)
(0.115509 0.00335441 0)
(0.109651 0.00362295 0)
(0.103394 0.00383102 0)
(0.096772 0.00405212 0)
(0.0898322 0.00420055 0)
(0.0826225 0.0043692 0)
(0.075192 0.0044577 0)
(0.0675893 0.0045707 0)
(0.0598606 0.00459977 0)
(0.0520603 0.00465223 0)
(0.0442396 0.0046314 0)
(0.0364412 0.0046237 0)
(0.0287046 0.00455109 0)
(0.0210754 0.00449894 0)
(0.013588 0.00439058 0)
(0.00626685 0.00429968 0)
(-0.00087961 0.00419473 0)
(-0.00782309 0.004059 0)
(-0.0145536 0.00393698 0)
(-0.0210582 0.00378978 0)
(-0.0273271 0.00365079 0)
(-0.0333439 0.00348541 0)
(-0.0390915 0.00332455 0)
(-0.0445525 0.00313839 0)
(-0.0497011 0.00294834 0)
(-0.0545156 0.00273232 0)
(-0.0589808 0.00251558 0)
(-0.0630606 0.00227302 0)
(-0.0667377 0.00203058 0)
(-0.069986 0.00176097 0)
(-0.0727791 0.00148611 0)
(-0.0750995 0.00118929 0)
(-0.0769431 0.000899706 0)
(-0.0782712 0.000587231 0)
(-0.0790365 0.000282288 0)
(-0.0793403 -2.08308e-05 0)
(-0.0790892 -0.000339591 0)
(-0.0782327 -0.000636778 0)
(-0.0768872 -0.000940186 0)
(-0.0750818 -0.00120886 0)
(-0.072776 -0.00148647 0)
(-0.0700398 -0.00171856 0)
(-0.0668787 -0.00195318 0)
(-0.0633255 -0.00214186 0)
(-0.0594886 -0.00234065 0)
(-0.055352 -0.00249302 0)
(-0.0509235 -0.00264015 0)
(-0.0462901 -0.0027756 0)
(-0.0414703 -0.00288366 0)
(-0.036449 -0.00298888 0)
(-0.0312401 -0.00308911 0)
(-0.0258934 -0.00318477 0)
(-0.020408 -0.00327747 0)
(-0.0147448 -0.00336943 0)
(-0.00902044 -0.00343126 0)
(-0.00312638 -0.0035203 0)
(0.0028467 -0.00355164 0)
(0.00894805 -0.00365038 0)
(0.0151516 -0.00365939 0)
(0.0214284 -0.00373808 0)
(0.0277573 -0.00373008 0)
(0.0341248 -0.00378823 0)
(0.0405004 -0.00375448 0)
(0.0468799 -0.0037897 0)
(0.0532207 -0.00371588 0)
(0.0595091 -0.00372516 0)
(0.0656969 -0.0036142 0)
(0.0717491 -0.00357877 0)
(0.0777335 -0.00345358 0)
(0.0834618 -0.00331567 0)
(0.0888945 -0.00314211 0)
(0.0940736 -0.00297042 0)
(0.0989545 -0.00274097 0)
(0.103342 -0.00246285 0)
(0.107237 -0.00215304 0)
(0.110586 -0.00181525 0)
(0.113377 -0.00148285 0)
(0.115572 -0.00110888 0)
(0.117134 -0.000738425 0)
(0.118044 -0.000344269 0)
(0.118284 4.25977e-05 0)
(0.117865 0.000455933 0)
(0.116758 0.000842595 0)
(0.114994 0.00124304 0)
(0.112571 0.00161753 0)
(0.109512 0.00198936 0)
(0.105836 0.00235277 0)
(0.101575 0.0026898 0)
(0.0967546 0.00300772 0)
(0.0914191 0.00330172 0)
(0.0856106 0.00356662 0)
(0.0793805 0.00379673 0)
(0.0727821 0.00400021 0)
(0.0658829 0.0041618 0)
(0.0587616 0.00426615 0)
(0.0514844 0.00434016 0)
(0.0441263 0.00436354 0)
(0.0367627 0.0043416 0)
(0.029453 0.00429275 0)
(0.0222967 0.00419145 0)
(0.0153336 0.00406262 0)
(0.00860278 0.00390398 0)
(0.00215881 0.00372788 0)
(-0.00397654 0.00354215 0)
(-0.00979253 0.00334811 0)
(-0.0152844 0.00315453 0)
(-0.0204476 0.00294972 0)
(-0.0252827 0.00276543 0)
(-0.029806 0.00260773 0)
(-0.0340454 0.00242433 0)
(-0.0380289 0.00227869 0)
(-0.0417318 0.00212294 0)
(-0.0451957 0.00197796 0)
(-0.0484307 0.00184291 0)
(-0.0514086 0.00171348 0)
(-0.0541949 0.00158928 0)
(-0.056757 0.00144559 0)
(-0.0591142 0.00132756 0)
(-0.0612385 0.00118157 0)
(-0.0631072 0.00105173 0)
(-0.0647468 0.00090197 0)
(-0.0661971 0.000780668 0)
(-0.0673347 0.000575862 0)
(-0.0682374 0.000452857 0)
(-0.0688212 0.00023889 0)
(-0.0690669 0.000108911 0)
(-0.0691016 -4.7063e-05 0)
(-0.068984 -0.000141267 0)
(-0.0686241 -0.000335644 0)
(-0.0678309 -0.000523491 0)
(-0.0668376 -0.000704147 0)
(-0.0654071 -0.000958493 0)
(-0.0636703 -0.00113922 0)
(-0.0615197 -0.00140767 0)
(-0.0589461 -0.00160914 0)
(-0.0559977 -0.00189664 0)
(-0.0525876 -0.00212394 0)
(-0.0487889 -0.00238616 0)
(-0.0445367 -0.00263411 0)
(-0.0398746 -0.00288035 0)
(-0.0347971 -0.00312379 0)
(-0.0293085 -0.00336128 0)
(-0.0234485 -0.00357087 0)
(-0.0172289 -0.00379001 0)
(-0.0106998 -0.00395776 0)
(-0.00386697 -0.00412506 0)
(0.00325431 -0.00425556 0)
(0.0105008 -0.00431965 0)
(0.0178718 -0.00439212 0)
(0.0252685 -0.00437767 0)
(0.0326855 -0.0044095 0)
(0.0400773 -0.00434109 0)
(0.0473972 -0.00431817 0)
(0.0545806 -0.00417927 0)
(0.0615718 -0.0040817 0)
(0.0682856 -0.00387559 0)
(0.0747261 -0.00375587 0)
(0.0808896 -0.0035136 0)
(0.0866519 -0.00330069 0)
(0.0919394 -0.00300246 0)
(0.0968482 -0.00280829 0)
(0.101352 -0.00251647 0)
(0.105326 -0.00227962 0)
(0.108957 -0.00200966 0)
(0.11201 -0.00162207 0)
(0.114637 -0.00139643 0)
(0.116381 -0.000960517 0)
(0.117232 0.000609442 0)
(0.117325 0.00478676 0)
(0.111923 0.0119313 0)
(0.091993 0.0106453 0)
(-0.108442 0.00151279 0)
(-0.109747 0.000979387 0)
(-0.110611 0.000460542 0)
(-0.110855 -4.13584e-05 0)
(-0.110501 -0.000527009 0)
(-0.109573 -0.000994257 0)
(-0.108095 -0.00144244 0)
(-0.106087 -0.00187438 0)
(-0.103569 -0.00228809 0)
(-0.100561 -0.00269121 0)
(-0.0970776 -0.00307749 0)
(-0.093133 -0.00346324 0)
(-0.0887329 -0.00383558 0)
(-0.0838796 -0.00422128 0)
(-0.0785664 -0.00459831 0)
(-0.0727859 -0.00498197 0)
(-0.066524 -0.00539992 0)
(-0.0597631 -0.00580386 0)
(-0.0524927 -0.00624601 0)
(-0.0447057 -0.00664639 0)
(-0.0364151 -0.00709015 0)
(-0.0276426 -0.0074365 0)
(-0.0184442 -0.00783231 0)
(-0.00908596 -0.00807403 0)
(0.000786565 -0.00833903 0)
(0.011178 -0.00845078 0)
(0.0215255 -0.00860039 0)
(0.0319196 -0.00855901 0)
(0.0422732 -0.00855921 0)
(0.0525004 -0.00836756 0)
(0.0625177 -0.00821714 0)
(0.0722366 -0.00788671 0)
(0.0815804 -0.00759195 0)
(0.0904667 -0.00714403 0)
(0.0988253 -0.00665178 0)
(0.1066 -0.00617912 0)
(0.113731 -0.00560984 0)
(0.120182 -0.00505266 0)
(0.12591 -0.00443182 0)
(0.130894 -0.0038186 0)
(0.135105 -0.0031701 0)
(0.138537 -0.00252604 0)
(0.141174 -0.00186979 0)
(0.143014 -0.00121892 0)
(0.144046 -0.000572008 0)
(0.144262 6.2629e-05 0)
(0.143699 0.000683357 0)
(0.142393 0.00128589 0)
(0.140378 0.00186311 0)
(0.137686 0.00241128 0)
(0.134359 0.00293539 0)
(0.130444 0.00343661 0)
(0.125984 0.00388592 0)
(0.121018 0.00432633 0)
(0.115586 0.00469826 0)
(0.109721 0.00507437 0)
(0.103455 0.00536559 0)
(0.0968259 0.00567523 0)
(0.0898776 0.00588305 0)
(0.0826596 0.00611925 0)
(0.0752207 0.00624309 0)
(0.0676093 0.00640133 0)
(0.0598722 0.00644151 0)
(0.052064 0.00651625 0)
(0.0442353 0.00648547 0)
(0.0364284 0.00647524 0)
(0.0286866 0.00637328 0)
(0.0210512 0.00629967 0)
(0.0135594 0.00614788 0)
(0.00623447 0.0060203 0)
(-0.000914799 0.00587345 0)
(-0.00785999 0.00568343 0)
(-0.014593 0.00551258 0)
(-0.0210992 0.00530656 0)
(-0.0273711 0.00511192 0)
(-0.0333904 0.00488113 0)
(-0.0391414 0.00465536 0)
(-0.0446059 0.00439468 0)
(-0.0497593 0.00412879 0)
(-0.0545768 0.00382641 0)
(-0.0590464 0.00352289 0)
(-0.0631296 0.00318338 0)
(-0.0668108 0.0028437 0)
(-0.0700634 0.00246612 0)
(-0.0728601 0.00208156 0)
(-0.0751815 0.00166662 0)
(-0.077027 0.00125965 0)
(-0.0783597 0.000822475 0)
(-0.0791254 0.000394606 0)
(-0.0794278 -3.03717e-05 0)
(-0.0791746 -0.000476468 0)
(-0.0783156 -0.000892439 0)
(-0.0769654 -0.00131751 0)
(-0.0751557 -0.00169439 0)
(-0.0728435 -0.00208242 0)
(-0.070103 -0.00240782 0)
(-0.0669317 -0.00273658 0)
(-0.0633758 -0.00300011 0)
(-0.0595349 -0.00327918 0)
(-0.0553855 -0.00349232 0)
(-0.0509591 -0.00369654 0)
(-0.0463162 -0.00388758 0)
(-0.0414976 -0.00403842 0)
(-0.036471 -0.00418502 0)
(-0.0312617 -0.0043261 0)
(-0.0259111 -0.00446102 0)
(-0.0204202 -0.00458895 0)
(-0.0147499 -0.00471666 0)
(-0.00904513 -0.00480264 0)
(-0.00313781 -0.00492661 0)
(0.00281812 -0.00497327 0)
(0.00893225 -0.00511231 0)
(0.0151325 -0.00512574 0)
(0.0214221 -0.00523641 0)
(0.0277487 -0.00522539 0)
(0.0341252 -0.00530677 0)
(0.0405 -0.0052586 0)
(0.0468882 -0.00530648 0)
(0.0532253 -0.0052051 0)
(0.0595258 -0.00521483 0)
(0.065715 -0.00505435 0)
(0.0717474 -0.00501402 0)
(0.0777523 -0.00483864 0)
(0.0834915 -0.004642 0)
(0.0889415 -0.00439825 0)
(0.0941116 -0.00416647 0)
(0.0990252 -0.00384005 0)
(0.103404 -0.0034481 0)
(0.107316 -0.0030128 0)
(0.110667 -0.00254536 0)
(0.11347 -0.00207553 0)
(0.115668 -0.00155611 0)
(0.117234 -0.00103321 0)
(0.118149 -0.000482101 0)
(0.118387 6.04879e-05 0)
(0.117968 0.00063884 0)
(0.116862 0.00118033 0)
(0.115098 0.00174026 0)
(0.112669 0.00226588 0)
(0.109608 0.00278776 0)
(0.105925 0.00329341 0)
(0.101659 0.00376765 0)
(0.0968304 0.00421262 0)
(0.0914893 0.00462209 0)
(0.0856727 0.00499779 0)
(0.0794371 0.00532022 0)
(0.0728315 0.00560402 0)
(0.0659222 0.00582634 0)
(0.0587856 0.0059793 0)
(0.0514915 0.00607949 0)
(0.0441155 0.00611361 0)
(0.0367421 0.00608239 0)
(0.0294247 0.00600888 0)
(0.0222583 0.00587155 0)
(0.0152894 0.00568836 0)
(0.00855197 0.00546685 0)
(0.0021019 0.00521968 0)
(-0.00403714 0.00496055 0)
(-0.00985583 0.00468872 0)
(-0.0153508 0.00441664 0)
(-0.0205175 0.00413241 0)
(-0.0253514 0.00387508 0)
(-0.0298717 0.00364823 0)
(-0.0341087 0.00339491 0)
(-0.0380976 0.00319024 0)
(-0.0417937 0.00297062 0)
(-0.0452524 0.00276586 0)
(-0.0484907 0.00258003 0)
(-0.0514558 0.0024024 0)
(-0.0542536 0.00222501 0)
(-0.0568004 0.00202473 0)
(-0.0591714 0.00185354 0)
(-0.0612925 0.00165915 0)
(-0.0631563 0.00147052 0)
(-0.0647992 0.00126146 0)
(-0.0662531 0.00109753 0)
(-0.0673885 0.000806943 0)
(-0.0683035 0.000639896 0)
(-0.0688848 0.000330702 0)
(-0.0691317 0.000148831 0)
(-0.0691392 -6.52922e-05 0)
(-0.069058 -0.000188911 0)
(-0.068717 -0.000470968 0)
(-0.067877 -0.000735443 0)
(-0.0669238 -0.000983611 0)
(-0.0654599 -0.00134217 0)
(-0.0637479 -0.00159076 0)
(-0.0615853 -0.00197112 0)
(-0.0590234 -0.00225251 0)
(-0.0560816 -0.00265365 0)
(-0.0526625 -0.00297241 0)
(-0.0488817 -0.0033424 0)
(-0.0446083 -0.00368903 0)
(-0.0399506 -0.00403547 0)
(-0.0348641 -0.00437557 0)
(-0.0293705 -0.00471005 0)
(-0.0235074 -0.00500093 0)
(-0.0172685 -0.00530311 0)
(-0.0107581 -0.00554013 0)
(-0.00392974 -0.0057802 0)
(0.00322914 -0.00596037 0)
(0.0104681 -0.00605235 0)
(0.0178591 -0.00614821 0)
(0.0252532 -0.00612685 0)
(0.0326817 -0.00617245 0)
(0.0400719 -0.00607795 0)
(0.0473968 -0.00604806 0)
(0.0545801 -0.00585747 0)
(0.0616016 -0.00571355 0)
(0.0683199 -0.00542415 0)
(0.0747624 -0.00526029 0)
(0.0809267 -0.00492281 0)
(0.0866921 -0.00462547 0)
(0.0919986 -0.0042025 0)
(0.0969293 -0.00393655 0)
(0.101422 -0.00353752 0)
(0.105415 -0.00317826 0)
(0.10907 -0.00279266 0)
(0.111981 -0.00231225 0)
(0.114753 -0.00203046 0)
(0.116913 -0.0012644 0)
(0.117196 0.000633862 0)
(0.118148 0.00490469 0)
(0.11686 0.0133348 0)
(0.104351 0.0146682 0)
(-0.108587 0.00194434 0)
(-0.109889 0.00125828 0)
(-0.11075 0.000590461 0)
(-0.110989 -5.56214e-05 0)
(-0.11063 -0.000679673 0)
(-0.109697 -0.00128013 0)
(-0.108214 -0.00185625 0)
(-0.106201 -0.00241146 0)
(-0.103679 -0.00294321 0)
(-0.100668 -0.00346126 0)
(-0.0971815 -0.00395757 0)
(-0.0932356 -0.00445311 0)
(-0.0888348 -0.00493137 0)
(-0.0839829 -0.0054268 0)
(-0.0786716 -0.00591116 0)
(-0.0728937 -0.00640423 0)
(-0.0666358 -0.00694161 0)
(-0.0598771 -0.00746137 0)
(-0.0526084 -0.00803064 0)
(-0.044819 -0.00854657 0)
(-0.0365242 -0.00911843 0)
(-0.0277414 -0.00956487 0)
(-0.0185314 -0.010075 0)
(-0.00915336 -0.010387 0)
(0.000735621 -0.0107281 0)
(0.0111434 -0.0108723 0)
(0.0215114 -0.0110651 0)
(0.031926 -0.0110117 0)
(0.0423004 -0.011012 0)
(0.0525471 -0.0107653 0)
(0.0625848 -0.0105717 0)
(0.072321 -0.0101464 0)
(0.0816834 -0.00976704 0)
(0.090584 -0.00919047 0)
(0.0989551 -0.00855685 0)
(0.106743 -0.00794853 0)
(0.113883 -0.00721587 0)
(0.120344 -0.00649887 0)
(0.126077 -0.0057 0)
(0.131066 -0.00491097 0)
(0.13528 -0.00407656 0)
(0.138714 -0.00324788 0)
(0.141351 -0.00240353 0)
(0.143191 -0.00156604 0)
(0.144221 -0.000733915 0)
(0.144434 8.1967e-05 0)
(0.143863 0.0008807 0)
(0.142553 0.00165411 0)
(0.140532 0.00239761 0)
(0.137832 0.00310231 0)
(0.134498 0.00377682 0)
(0.130575 0.00442138 0)
(0.126105 0.00499937 0)
(0.121131 0.00556582 0)
(0.115688 0.00604418 0)
(0.109814 0.0065281 0)
(0.103538 0.00690235 0)
(0.0968978 0.00730063 0)
(0.0899382 0.00756786 0)
(0.0827092 0.00787169 0)
(0.075259 0.00803081 0)
(0.0676359 0.00823429 0)
(0.0598878 0.00828507 0)
(0.0520688 0.00838332 0)
(0.0442295 0.00834131 0)
(0.0364114 0.00832888 0)
(0.0286625 0.00819719 0)
(0.0210189 0.00810169 0)
(0.0135211 0.00790621 0)
(0.00619133 0.00774169 0)
(-0.000961433 0.00755288 0)
(-0.00790903 0.00730849 0)
(-0.0146448 0.00708898 0)
(-0.0211537 0.00682402 0)
(-0.027429 0.00657379 0)
(-0.0334524 0.00627766 0)
(-0.0392076 0.00598737 0)
(-0.0446773 0.00565154 0)
(-0.0498365 0.00531028 0)
(-0.0546586 0.00492163 0)
(-0.0591333 0.00453142 0)
(-0.063222 0.00409421 0)
(-0.0669074 0.00365786 0)
(-0.0701666 0.00317133 0)
(-0.0729675 0.0026781 0)
(-0.0752918 0.0021441 0)
(-0.0771384 0.00162052 0)
(-0.0784776 0.00105707 0)
(-0.0792417 0.000506741 0)
(-0.0795432 -4.00818e-05 0)
(-0.079288 -0.000614027 0)
(-0.0784256 -0.00114879 0)
(-0.0770694 -0.00169624 0)
(-0.0752541 -0.00218134 0)
(-0.0729338 -0.00268031 0)
(-0.0701875 -0.00309844 0)
(-0.0670027 -0.0035222 0)
(-0.0634444 -0.00385868 0)
(-0.0595959 -0.0042207 0)
(-0.055433 -0.00449189 0)
(-0.0510091 -0.00475605 0)
(-0.0463513 -0.00499735 0)
(-0.04154 -0.00519486 0)
(-0.0364937 -0.0053816 0)
(-0.0312967 -0.00556468 0)
(-0.0259404 -0.0057353 0)
(-0.0204468 -0.00590318 0)
(-0.0147529 -0.00606203 0)
(-0.00909776 -0.00617082 0)
(-0.00313837 -0.00633799 0)
(0.0027728 -0.00638988 0)
(0.00893155 -0.00657766 0)
(0.0150943 -0.00658676 0)
(0.0214231 -0.00673906 0)
(0.0277181 -0.00671401 0)
(0.0341327 -0.00683003 0)
(0.040483 -0.00675512 0)
(0.0469074 -0.00682962 0)
(0.0532161 -0.006688 0)
(0.0595524 -0.00671329 0)
(0.0657285 -0.00648642 0)
(0.0717884 -0.00645186 0)
(0.0777908 -0.00622394 0)
(0.0835293 -0.00597324 0)
(0.0890258 -0.0056631 0)
(0.0941626 -0.00536094 0)
(0.099125 -0.00494238 0)
(0.10347 -0.00442907 0)
(0.107434 -0.00388174 0)
(0.110775 -0.0032762 0)
(0.113602 -0.00267193 0)
(0.115797 -0.0019973 0)
(0.117368 -0.00133302 0)
(0.118295 -0.000617962 0)
(0.118525 7.86055e-05 0)
(0.118113 0.000822228 0)
(0.117 0.00151809 0)
(0.11524 0.0022397 0)
(0.112798 0.00291624 0)
(0.109742 0.003589 0)
(0.106044 0.00423654 0)
(0.101779 0.00484668 0)
(0.0969308 0.00541859 0)
(0.0915881 0.00594554 0)
(0.0857577 0.00643277 0)
(0.0795137 0.00684567 0)
(0.0728895 0.00720826 0)
(0.0659756 0.00749432 0)
(0.058817 0.00769752 0)
(0.0514973 0.00782279 0)
(0.0441102 0.00787189 0)
(0.0367104 0.00782579 0)
(0.0293867 0.00772763 0)
(0.0222101 0.00755392 0)
(0.015221 0.00731674 0)
(0.00848303 0.00703173 0)
(0.00202399 0.00671504 0)
(-0.00411454 0.00638017 0)
(-0.00994489 0.00602915 0)
(-0.0154291 0.00568105 0)
(-0.0206007 0.00531664 0)
(-0.0254388 0.00498223 0)
(-0.0299519 0.00468351 0)
(-0.0341747 0.00436868 0)
(-0.038179 0.00410429 0)
(-0.0418682 0.00380883 0)
(-0.0453129 0.00355508 0)
(-0.0485675 0.00331783 0)
(-0.0515025 0.00308626 0)
(-0.054331 0.00286475 0)
(-0.0568396 0.00259986 0)
(-0.05925 0.00238767 0)
(-0.0613516 0.00213404 0)
(-0.0632143 0.00188899 0)
(-0.0648813 0.00162567 0)
(-0.0663114 0.00141066 0)
(-0.0674547 0.00103849 0)
(-0.0683914 0.000834477 0)
(-0.0689482 0.000417576 0)
(-0.0692248 0.000187183 0)
(-0.0691925 -8.41848e-05 0)
(-0.0691579 -0.000223182 0)
(-0.0688125 -0.000615429 0)
(-0.0679305 -0.000949977 0)
(-0.0670459 -0.00125874 0)
(-0.065523 -0.00172978 0)
(-0.0638714 -0.00203499 0)
(-0.0616708 -0.00254418 0)
(-0.059125 -0.00288517 0)
(-0.0561935 -0.00341718 0)
(-0.0527516 -0.00381647 0)
(-0.0490165 -0.0042961 0)
(-0.0446914 -0.00474954 0)
(-0.0400687 -0.00518768 0)
(-0.0349575 -0.00563133 0)
(-0.0294566 -0.00605636 0)
(-0.0236156 -0.0064297 0)
(-0.0173196 -0.00682224 0)
(-0.0108538 -0.00710925 0)
(-0.00401348 -0.00744091 0)
(0.00321474 -0.00767331 0)
(0.0103971 -0.00777452 0)
(0.0178467 -0.0079169 0)
(0.0252141 -0.0078726 0)
(0.0326967 -0.00794433 0)
(0.0400651 -0.00781003 0)
(0.0474272 -0.00778198 0)
(0.0545904 -0.00753216 0)
(0.0616454 -0.00735909 0)
(0.0683781 -0.0069706 0)
(0.0748464 -0.00676932 0)
(0.0809845 -0.00632258 0)
(0.0867546 -0.00595513 0)
(0.0921023 -0.00541162 0)
(0.0970393 -0.00506734 0)
(0.101513 -0.00453687 0)
(0.105454 -0.00409282 0)
(0.109203 -0.00360049 0)
(0.112067 -0.00300465 0)
(0.115007 -0.00259496 0)
(0.117097 -0.00160387 0)
(0.117949 0.000452369 0)
(0.119124 0.00492408 0)