/*--------------------------------*- C++ -*----------------------------------*\
| =========                 |                                                 |
| \\      /  F ield         | OpenFOAM: The Open Source CFD Toolbox           |
|  \\    /   O peration     | Version:  3.0.1                                 |
|   \\  /    A nd           | Web:      www.OpenFOAM.org                      |
|    \\/     M anipulation  |                                                 |
\*---------------------------------------------------------------------------*/
FoamFile
{
    version     2.0;
    format      ascii;
    class       volScalarField;
    location    "67.2";
    object      p_rgh;
}
// * * * * * * * * * * * * * * * * * * * * * * * * * * * * * * * * * * * * * //

dimensions      [1 -1 -2 0 0 0 0];

internalField   nonuniform List<scalar> 
21420
(
-88.3852
-61.7054
-33.475
-4.49094
22.7021
54.7434
88.0064
121.754
155.559
189.051
221.793
253.377
283.45
311.616
337.515
360.783
381.075
398.125
411.692
421.577
427.657
429.762
427.969
422.273
412.808
399.7
383.172
363.465
340.889
315.762
288.429
259.29
228.722
197.111
164.821
132.196
99.567
67.178
35.2793
8.85134
-20.7758
-49.1032
-76.0244
-101.438
-125.287
-147.526
-168.129
-187.095
-204.434
-220.163
-234.311
-246.91
-257.992
-267.587
-275.721
-282.42
-287.7
-291.575
-294.03
-295.046
-294.63
-292.784
-289.446
-284.615
-278.261
-270.34
-260.828
-249.693
-236.897
-222.425
-206.255
-188.388
-168.837
-147.62
-124.783
-100.397
-74.5342
-47.2973
-18.7863
10.9558
41.9349
73.3983
105.28
137.359
169.408
201.145
232.259
262.422
291.279
318.471
343.646
366.46
386.589
403.746
417.67
428.148
435.009
438.079
437.361
432.785
424.421
412.29
396.553
377.389
355.034
329.77
301.921
271.854
239.967
206.681
172.432
137.658
102.783
68.2082
34.3033
1.38189
-30.2808
-60.4572
-88.9688
-115.685
-140.516
-163.404
-184.323
-203.271
-220.261
-235.326
-248.503
-259.842
-269.401
-277.234
-283.408
-287.993
-291.067
-292.673
-292.847
-291.703
-289.24
-285.488
-280.463
-274.158
-266.561
-257.641
-247.36
-235.678
-222.541
-207.894
-191.692
-173.899
-154.487
-133.444
-110.777
-86.5151
-60.7091
-33.4433
-4.82606
25.0071
55.9472
87.6034
119.796
152.233
184.583
216.479
247.53
277.327
305.448
331.47
354.982
375.594
392.942
406.707
416.622
422.486
424.083
421.509
414.68
403.678
388.693
369.962
347.784
322.516
294.56
264.355
232.363
199.058
164.914
130.383
95.8936
61.8355
28.5561
-3.63869
-34.4906
-63.7932
-91.3943
-117.192
-141.13
-163.189
-183.38
-201.729
-218.277
-233.071
-246.163
-257.605
-267.461
-275.789
-282.641
-288.069
-292.129
-294.854
-296.259
-296.356
-295.195
-292.749
-289.006
-283.949
-277.547
-269.775
-260.607
-250.006
-237.942
-224.388
-209.314
-192.698
-174.523
-154.785
-133.493
-110.669
-86.3533
-60.6138
-33.537
-5.24084
24.1257
54.3855
85.3337
116.675
148.143
179.417
210.141
239.928
268.375
295.063
319.574
341.497
360.441
376.045
387.997
396.04
399.948
399.669
395.128
386.412
373.616
356.976
336.78
313.376
287.16
258.561
228.033
196.047
163.074
129.576
95.9952
62.7434
30.1873
-1.3548
-31.6231
-60.4143
-87.5734
-112.994
-136.621
-158.424
-178.388
-196.533
-212.898
-227.53
-240.477
-251.798
-261.57
-269.868
-276.761
-282.291
-286.537
-289.619
-291.525
-292.303
-292.002
-290.62
-288.141
-284.557
-279.856
-274.026
-267.037
-258.835
-249.379
-238.601
-226.408
-212.711
-197.421
-180.439
-161.696
-141.137
-118.73
-94.4934
-68.4743
-40.7882
-11.6252
18.6943
49.595
81.3995
113.602
145.704
177.246
207.823
236.974
264.253
289.283
311.673
331.087
347.232
359.868
368.833
374.023
375.278
372.577
366.081
355.934
342.358
325.637
306.095
284.05
259.854
233.889
206.511
178.069
148.916
119.373
89.734
60.2714
31.5325
3.26147
-24.5252
-51.5188
-77.5549
-102.507
-126.263
-148.732
-169.829
-189.487
-207.651
-224.267
-239.295
-252.704
-264.468
-274.571
-282.998
-289.744
-294.815
-298.228
-88.4714
-61.786
-33.5459
-4.54206
22.6236
54.6827
87.9625
121.725
155.545
189.053
221.811
253.412
283.502
311.686
337.602
360.886
381.193
398.256
411.832
421.724
427.808
429.924
428.116
422.417
412.946
399.826
383.286
363.565
340.973
315.829
288.479
259.322
228.738
197.112
164.808
132.171
99.5325
67.1386
35.2471
8.76289
-20.8543
-49.18
-76.1011
-101.515
-125.363
-147.602
-168.203
-187.167
-204.504
-220.231
-234.377
-246.973
-258.053
-267.646
-275.779
-282.477
-287.757
-291.631
-294.086
-295.102
-294.689
-292.842
-289.506
-284.677
-278.325
-270.405
-260.896
-249.764
-236.97
-222.499
-206.331
-188.465
-168.914
-147.697
-124.86
-100.472
-74.6077
-47.368
-18.8536
10.8937
41.8817
73.3524
105.242
137.33
169.391
201.139
232.267
262.445
291.317
318.524
343.716
366.545
386.689
403.858
417.794
428.28
435.148
438.229
437.501
432.924
424.556
412.417
396.671
377.494
355.124
329.843
301.977
271.891
239.985
206.68
172.413
137.623
102.733
68.1452
34.2298
1.2996
-30.3695
-60.5506
-89.065
-115.783
-140.614
-163.501
-184.418
-203.363
-220.352
-235.413
-248.587
-259.924
-269.48
-277.31
-283.482
-288.063
-291.135
-292.736
-292.911
-291.765
-289.301
-285.549
-280.524
-274.22
-266.625
-257.707
-247.428
-235.748
-222.614
-207.97
-191.771
-173.98
-154.57
-133.527
-110.861
-86.5985
-60.7912
-33.5227
-4.90162
24.9367
55.8856
87.5504
119.754
152.204
184.568
216.48
247.549
277.364
305.504
331.545
355.076
375.705
393.069
406.847
416.772
422.641
424.249
421.663
414.831
403.821
388.825
370.078
347.883
322.595
294.618
264.393
232.38
199.056
164.893
130.346
95.8416
61.7711
28.4815
-3.72124
-34.5789
-63.8851
-91.4879
-117.286
-141.222
-163.28
-183.468
-201.814
-218.359
-233.15
-246.238
-257.678
-267.53
-275.856
-282.706
-288.132
-292.191
-294.914
-296.316
-296.415
-295.253
-292.808
-289.066
-284.011
-277.61
-269.84
-260.674
-250.074
-238.012
-224.46
-209.388
-192.773
-174.6
-154.863
-133.571
-110.746
-86.43
-60.6886
-33.6089
-5.3083
24.064
54.3311
85.2883
116.64
148.121
179.41
210.149
239.954
268.42
295.126
319.656
341.597
360.558
376.177
388.142
396.193
400.111
399.826
395.282
386.56
373.753
357.099
336.886
313.463
287.227
258.607
228.059
196.053
163.061
129.546
95.9499
62.6851
30.1186
-1.43154
-31.7054
-60.5
-87.6607
-113.081
-136.707
-158.508
-178.47
-196.612
-212.974
-227.602
-240.545
-251.863
-261.631
-269.925
-276.815
-282.34
-286.587
-289.666
-291.57
-292.347
-292.045
-290.664
-288.185
-284.602
-279.902
-274.073
-267.086
-258.888
-249.435
-238.66
-226.471
-212.779
-197.493
-180.516
-161.776
-141.22
-118.814
-94.5772
-68.5557
-40.8651
-11.6951
18.6332
49.5437
81.362
113.581
145.7
177.26
207.856
237.027
264.324
289.372
311.778
331.207
347.364
360.01
368.98
374.172
375.435
372.72
366.219
356.062
342.474
325.738
306.181
284.12
259.907
233.926
206.533
178.077
148.912
119.357
89.7087
60.2374
31.4927
3.21562
-24.5755
-51.5732
-77.6127
-102.568
-126.326
-148.797
-169.894
-189.553
-207.718
-224.335
-239.363
-252.772
-264.536
-274.639
-283.065
-289.811
-294.882
-298.294
-88.6438
-61.9474
-33.6876
-4.6435
22.4659
54.5614
87.8747
121.667
155.517
189.057
221.848
253.483
283.608
311.826
337.776
361.092
381.429
398.517
412.114
422.02
428.111
430.247
428.411
422.708
413.221
400.08
383.514
363.764
341.14
315.963
288.578
259.388
228.77
197.114
164.782
132.121
99.4635
67.0594
35.1812
8.58745
-21.0108
-49.3335
-76.2547
-101.669
-125.516
-147.752
-168.351
-187.312
-204.644
-220.366
-234.507
-247.1
-258.176
-267.766
-275.895
-282.591
-287.869
-291.742
-294.198
-295.213
-294.804
-292.958
-289.624
-284.798
-278.45
-270.534
-261.029
-249.901
-237.11
-222.643
-206.478
-188.613
-169.063
-147.846
-125.007
-100.616
-74.7482
-47.5026
-18.9811
10.777
41.7831
73.2692
105.174
137.282
169.365
201.139
232.294
262.502
291.405
318.645
343.869
366.729
386.902
404.097
418.055
428.559
435.439
438.54
437.792
433.217
424.839
412.686
396.919
377.716
355.317
330.003
302.101
271.979
240.035
206.693
172.391
137.567
102.648
68.0342
34.098
1.15052
-30.5314
-60.7213
-89.2411
-115.961
-140.792
-163.677
-184.59
-203.532
-220.515
-235.571
-248.739
-260.07
-269.619
-277.444
-283.609
-288.186
-291.253
-292.844
-293.019
-291.869
-289.404
-285.652
-280.627
-274.325
-266.733
-257.818
-247.545
-235.871
-222.741
-208.103
-191.909
-174.123
-154.716
-133.676
-111.011
-86.7465
-60.9367
-33.6629
-5.03417
24.8141
55.7806
87.4625
119.687
152.163
184.556
216.5
247.604
277.456
305.633
331.712
355.28
375.943
393.338
407.141
417.086
422.967
424.594
421.986
415.148
404.122
389.101
370.323
348.093
322.766
294.75
264.483
232.429
199.065
164.865
130.285
95.7512
61.6561
28.3462
-3.87231
-34.7413
-64.0546
-91.6606
-117.459
-141.393
-163.446
-183.628
-201.969
-218.508
-233.292
-246.374
-257.808
-267.655
-275.975
-282.82
-288.242
-292.298
-295.019
-296.414
-296.516
-295.356
-292.911
-289.171
-284.118
-277.72
-269.954
-260.791
-250.195
-238.136
-224.588
-209.52
-192.908
-174.737
-155.003
-133.712
-110.886
-86.5685
-60.8235
-33.738
-5.42866
23.955
54.2366
85.212
116.586
148.092
179.409
210.181
240.02
268.522
295.266
319.833
341.811
360.806
376.455
388.444
396.513
400.452
400.151
395.605
386.869
374.041
357.358
337.11
313.649
287.372
258.711
228.121
196.076
163.046
129.496
95.8698
62.5789
29.9911
-1.57524
-31.8605
-60.6621
-87.8265
-113.248
-136.871
-158.669
-178.627
-196.763
-213.118
-227.74
-240.676
-251.987
-261.749
-270.035
-276.92
-282.435
-286.684
-289.756
-291.657
-292.433
-292.129
-290.748
-288.27
-284.689
-279.992
-274.166
-267.183
-258.99
-249.544
-238.777
-226.597
-212.913
-197.636
-180.667
-161.935
-141.384
-118.981
-94.7435
-68.7173
-41.0178
-11.8339
18.5121
49.4421
81.2879
113.538
145.692
177.288
207.923
237.132
264.466
289.55
311.989
331.448
347.629
360.293
369.275
374.47
375.746
373.007
366.496
356.318
342.705
325.941
306.352
284.259
260.013
234
206.577
178.093
148.903
119.325
89.6581
60.1694
31.4131
3.12399
-24.6762
-51.682
-77.7283
-102.689
-126.451
-148.925
-170.026
-189.686
-207.853
-224.471
-239.499
-252.909
-264.672
-274.774
-283.2
-289.945
-295.014
-298.425
-88.9027
-62.1899
-33.9006
-4.79491
22.2282
54.3797
87.7431
121.581
155.475
189.062
221.904
253.589
283.765
312.036
338.036
361.402
381.783
398.909
412.536
422.464
428.565
430.723
428.859
423.147
413.634
400.461
383.857
364.063
341.391
316.164
288.727
259.486
228.819
197.116
164.743
132.046
99.3595
66.9395
35.0782
8.32804
-21.2447
-49.5636
-76.485
-101.899
-125.745
-147.979
-168.573
-187.528
-204.853
-220.569
-234.703
-247.29
-258.359
-267.944
-276.07
-282.762
-288.037
-291.907
-294.364
-295.382
-294.976
-293.131
-289.801
-284.98
-278.638
-270.728
-261.229
-250.107
-237.321
-222.859
-206.698
-188.836
-169.287
-148.069
-125.228
-100.834
-74.9592
-47.7048
-19.1722
10.6018
41.635
73.1443
105.073
137.21
169.327
201.138
232.336
262.588
291.538
318.826
344.099
367.006
387.223
404.457
418.449
428.98
435.878
439.002
438.238
433.662
425.267
413.092
397.294
378.053
355.609
330.246
302.291
272.113
240.113
206.715
172.36
137.487
102.522
67.87
33.9027
0.9291
-30.7719
-60.9751
-89.503
-116.226
-141.056
-163.938
-184.847
-203.781
-220.757
-235.804
-248.964
-260.286
-269.825
-277.641
-283.798
-288.367
-291.425
-293.004
-293.18
-292.023
-289.555
-285.803
-280.779
-274.48
-266.892
-257.983
-247.717
-236.051
-222.93
-208.3
-192.114
-174.335
-154.933
-133.897
-111.233
-86.9667
-61.1529
-33.8711
-5.23076
24.6318
55.6255
87.3326
119.59
152.104
184.54
216.533
247.689
277.596
305.83
331.965
355.588
376.303
393.744
407.587
417.561
423.459
425.107
422.479
415.628
404.577
389.518
370.695
348.411
323.026
294.949
264.619
232.504
199.081
164.825
130.195
95.6175
61.4855
28.1451
-4.09709
-34.983
-64.3071
-91.9178
-117.716
-141.646
-163.693
-183.867
-202.199
-218.729
-233.503
-246.575
-258.001
-267.839
-276.151
-282.989
-288.405
-292.456
-295.173
-296.562
-296.668
-295.507
-293.065
-289.327
-284.277
-277.884
-270.123
-260.965
-250.374
-238.321
-224.779
-209.716
-193.109
-174.942
-155.211
-133.921
-111.095
-86.7747
-61.0242
-33.9299
-5.60764
23.7931
54.0965
85.0993
116.505
148.049
179.41
210.229
240.121
268.677
295.478
320.101
342.134
361.179
376.874
388.899
396.994
400.959
400.645
396.095
387.336
374.475
357.748
337.448
313.93
287.592
258.868
228.217
196.111
163.025
129.423
95.7508
62.4207
29.801
-1.7899
-32.0923
-60.9047
-88.0746
-113.497
-137.118
-158.91
-178.861
-196.99
-213.335
-227.946
-240.872
-252.174
-261.925
-270.2
-277.075
-282.58
-286.829
-289.893
-291.788
-292.561
-292.256
-290.875
-288.398
-284.82
-280.126
-274.305
-267.329
-259.144
-249.709
-238.953
-226.785
-213.115
-197.851
-180.895
-162.173
-141.63
-119.231
-94.9932
-68.96
-41.2471
-12.0427
18.3301
49.2894
81.1764
113.474
145.68
177.331
208.023
237.289
264.68
289.817
312.307
331.809
348.026
360.718
369.718
374.917
376.209
373.443
366.91
356.703
343.052
326.244
306.609
284.467
260.173
234.112
206.644
178.117
148.889
119.278
89.5819
60.0674
31.2935
2.98644
-24.8273
-51.8453
-77.9017
-102.871
-126.639
-149.118
-170.223
-189.886
-208.055
-224.674
-239.703
-253.113
-264.876
-274.977
-283.402
-290.146
-295.214
-298.623
-89.2485
-62.5143
-34.1856
-4.99572
21.9089
54.1377
87.5679
121.465
155.419
189.07
221.978
253.731
283.976
312.315
338.384
361.815
382.255
399.432
413.1
423.056
429.17
431.345
429.468
423.733
414.185
400.97
384.314
364.461
341.726
316.431
288.926
259.616
228.883
197.119
164.69
131.946
99.22
66.7777
34.9339
7.98851
-21.5554
-49.8702
-76.7922
-102.207
-126.051
-148.28
-168.869
-187.816
-205.133
-220.839
-234.965
-247.542
-258.604
-268.183
-276.302
-282.99
-288.261
-292.128
-294.584
-295.611
-295.206
-293.362
-290.037
-285.223
-278.888
-270.986
-261.496
-250.382
-237.603
-223.148
-206.992
-189.133
-169.585
-148.367
-125.523
-101.123
-75.2409
-47.9747
-19.4271
10.3677
41.4372
72.9772
104.937
137.114
169.276
201.138
232.392
262.703
291.716
319.069
344.406
367.376
387.651
404.938
418.975
429.542
436.464
439.605
438.846
434.26
425.84
413.635
397.794
378.503
356
330.571
302.545
272.293
240.217
206.745
172.319
137.379
102.355
67.6511
33.6421
0.634027
-31.0926
-61.3133
-89.8519
-116.58
-141.409
-164.287
-185.189
-204.114
-221.079
-236.115
-249.264
-260.574
-270.1
-277.904
-284.05
-288.607
-291.653
-293.221
-293.392
-292.229
-289.757
-286.004
-280.981
-274.686
-267.104
-258.203
-247.947
-236.292
-223.181
-208.562
-192.388
-174.617
-155.222
-134.191
-111.528
-87.2602
-61.441
-34.1487
-5.49245
24.3881
55.4195
87.1594
119.46
152.025
184.52
216.576
247.802
277.783
306.092
332.304
356
376.784
394.287
408.181
418.195
424.117
425.786
423.143
416.27
405.184
390.076
371.191
348.836
323.374
295.215
264.802
232.604
199.101
164.772
130.075
95.4392
61.258
27.8768
-4.39692
-35.3054
-64.6437
-92.2609
-118.059
-141.984
-164.022
-184.186
-202.506
-219.023
-233.784
-246.844
-258.258
-268.084
-276.385
-283.214
-288.622
-292.666
-295.375
-296.761
-296.869
-295.709
-293.268
-289.535
-284.489
-278.102
-270.348
-261.196
-250.613
-238.568
-225.033
-209.977
-193.377
-175.215
-155.488
-134.199
-111.373
-87.0496
-61.2918
-34.1856
-5.84631
23.5773
53.9092
84.9493
116.399
147.993
179.411
210.295
240.255
268.885
295.76
320.46
342.565
361.678
377.433
389.507
397.637
401.624
401.316
396.752
387.96
375.054
358.268
337.9
314.305
287.886
259.079
228.345
196.159
162.997
129.326
95.592
62.2095
29.5472
-2.07647
-32.4019
-61.2285
-88.4056
-113.83
-137.447
-159.231
-179.174
-197.292
-213.625
-228.222
-241.134
-252.423
-262.16
-270.42
-277.282
-282.776
-287.022
-290.074
-291.963
-292.732
-292.424
-291.043
-288.568
-284.994
-280.305
-274.49
-267.523
-259.35
-249.928
-239.188
-227.036
-213.384
-198.138
-181.199
-162.492
-141.959
-119.566
-95.3265
-69.2843
-41.5534
-12.3218
18.0871
49.0854
81.0272
113.388
145.664
177.388
208.156
237.499
264.964
290.174
312.729
332.29
348.557
361.286
370.309
375.515
376.819
374.03
367.465
357.216
343.514
326.649
306.951
284.744
260.385
234.26
206.732
178.15
148.87
119.214
89.4799
59.9317
31.1337
2.80282
-25.029
-52.0632
-78.1332
-103.113
-126.89
-149.376
-170.485
-190.153
-208.325
-224.946
-239.976
-253.385
-265.148
-275.248
-283.671
-290.413
-295.479
-298.886
-89.6818
-62.9213
-34.5434
-5.2451
21.5065
53.8359
87.3493
121.32
155.349
189.079
222.07
253.907
284.238
312.665
338.819
362.332
382.846
400.086
413.805
423.797
429.929
432.113
430.236
424.466
414.875
401.606
384.885
364.959
342.145
316.766
289.174
259.779
228.963
197.121
164.623
131.819
99.0445
66.5727
34.7434
7.57306
-21.9417
-50.2529
-77.1763
-102.592
-126.434
-148.658
-169.239
-188.176
-205.482
-221.177
-235.291
-247.859
-258.911
-268.48
-276.592
-283.274
-288.541
-292.404
-294.86
-295.896
-295.491
-293.651
-290.332
-285.526
-279.201
-271.309
-261.83
-250.725
-237.955
-223.509
-207.36
-189.505
-169.959
-148.741
-125.893
-101.486
-75.5934
-48.3124
-19.7456
10.0744
41.1892
72.7675
104.767
136.993
169.212
201.136
232.46
262.846
291.937
319.372
344.79
367.838
388.188
405.539
419.633
430.246
437.197
440.353
439.609
435.009
426.559
414.315
398.421
379.065
356.489
330.977
302.862
272.517
240.347
206.783
172.267
137.244
102.146
67.3766
33.3158
0.264484
-31.4944
-61.7367
-90.2885
-117.022
-141.85
-164.723
-185.616
-204.53
-221.482
-236.504
-249.638
-260.933
-270.444
-278.233
-284.364
-288.907
-291.937
-293.493
-293.657
-292.486
-290.009
-286.255
-281.233
-274.944
-267.369
-258.478
-248.235
-236.592
-223.495
-208.89
-192.729
-174.97
-155.584
-134.558
-111.898
-87.6277
-61.8016
-34.4962
-5.82005
24.0818
55.1624
86.9421
119.297
151.925
184.493
216.631
247.943
278.016
306.42
332.726
356.515
377.386
394.966
408.926
418.989
424.941
426.627
423.98
417.075
405.944
390.774
371.811
349.367
323.808
295.547
265.031
232.729
199.127
164.705
129.924
95.2155
60.9728
27.5405
-4.77259
-35.7092
-65.0652
-92.6903
-118.488
-142.407
-164.434
-184.584
-202.889
-219.391
-234.136
-247.18
-258.579
-268.391
-276.678
-283.495
-288.893
-292.927
-295.628
-297.013
-297.12
-295.96
-293.522
-289.794
-284.754
-278.375
-270.629
-261.485
-250.911
-238.876
-225.351
-210.304
-193.712
-175.557
-155.834
-134.548
-111.721
-87.3935
-61.6268
-34.5057
-6.14536
23.3069
53.6743
84.7616
116.264
147.922
179.412
210.375
240.423
269.144
296.114
320.908
343.104
362.303
378.133
390.269
398.443
402.454
402.158
397.575
388.742
375.78
358.92
338.466
314.774
288.253
259.342
228.505
196.219
162.962
129.203
95.3928
61.9446
29.2291
-2.43556
-32.7895
-61.6339
-88.8199
-114.246
-137.858
-159.634
-179.566
-197.67
-213.987
-228.567
-241.462
-252.734
-262.454
-270.695
-277.539
-283.024
-287.26
-290.3
-292.182
-292.946
-292.635
-291.254
-288.781
-285.212
-280.528
-274.722
-267.766
-259.606
-250.202
-239.48
-227.35
-213.72
-198.498
-181.58
-162.889
-142.371
-119.985
-95.7438
-69.6906
-41.9374
-12.6716
17.7827
48.8296
80.84
113.28
145.644
177.459
208.321
237.761
265.32
290.619
313.258
332.892
349.221
361.996
371.049
376.266
377.573
374.769
368.158
357.858
344.093
327.155
307.379
285.091
260.65
234.445
206.842
178.19
148.846
119.133
89.3514
59.7624
30.9335
2.57299
-25.2813
-52.3359
-78.4229
-103.416
-127.204
-149.698
-170.814
-190.486
-208.662
-225.285
-240.316
-253.726
-265.488
-275.587
-284.008
-290.748
-295.811
-299.215
-90.2032
-63.4119
-34.9754
-5.54221
21.019
53.4751
87.0876
121.145
155.264
189.089
222.179
254.118
284.553
313.084
339.341
362.952
383.555
400.871
414.652
424.688
430.843
433.031
431.156
425.347
415.704
402.371
385.571
365.557
342.647
317.166
289.472
259.974
229.058
197.124
164.541
131.665
98.832
66.3228
34.5016
7.08576
-22.4028
-50.7118
-77.6375
-103.054
-126.893
-149.111
-169.683
-188.609
-205.902
-221.583
-235.684
-248.238
-259.278
-268.838
-276.941
-283.616
-288.878
-292.736
-295.192
-296.236
-295.833
-293.997
-290.686
-285.89
-279.576
-271.696
-262.23
-251.137
-238.378
-223.942
-207.801
-189.952
-170.408
-149.189
-126.336
-101.922
-76.0167
-48.7179
-20.1279
9.72141
40.8913
72.5145
104.562
136.848
169.134
201.134
232.541
263.016
292.203
319.735
345.25
368.393
388.831
406.262
420.423
431.09
438.079
441.257
440.523
435.908
427.422
415.131
399.175
379.742
357.076
331.465
303.243
272.786
240.503
206.827
172.204
137.082
101.893
67.0458
32.923
-0.180195
-31.9777
-62.2459
-90.8133
-117.553
-142.381
-165.246
-186.129
-205.029
-221.966
-236.972
-250.088
-261.365
-270.857
-278.628
-284.741
-289.267
-292.278
-293.821
-293.975
-292.793
-290.312
-286.556
-281.536
-275.253
-267.686
-258.807
-248.579
-236.953
-223.872
-209.285
-193.139
-175.394
-156.019
-135
-112.342
-88.0696
-62.2351
-34.9137
-6.21398
23.7109
54.855
86.6798
119.099
151.805
184.46
216.695
248.112
278.295
306.813
333.234
357.134
378.109
395.782
409.82
419.943
425.933
427.636
424.987
418.043
406.857
391.612
372.557
350.006
324.33
295.946
265.304
232.878
199.157
164.623
129.743
94.9457
60.6293
27.1356
-5.2249
-36.1952
-65.5722
-93.2067
-119.004
-142.914
-164.929
-185.063
-203.35
-219.833
-234.559
-247.584
-258.964
-268.759
-277.03
-283.832
-289.218
-293.241
-295.933
-297.315
-297.421
-296.261
-293.827
-290.106
-285.073
-278.703
-270.967
-261.833
-251.27
-239.247
-225.732
-210.696
-194.114
-175.967
-156.25
-134.967
-112.139
-87.8069
-62.0295
-34.8908
-6.50523
22.981
53.3912
84.5356
116.102
147.835
179.412
210.472
240.623
269.454
296.537
321.445
343.752
363.053
378.974
391.184
399.411
403.452
403.168
398.563
389.682
376.651
359.703
339.144
315.337
288.694
259.657
228.696
196.289
162.918
129.055
95.1525
61.6255
28.8461
-2.86761
-33.2559
-62.1214
-89.3177
-114.746
-138.352
-160.117
-180.035
-198.124
-214.422
-228.982
-241.855
-253.106
-262.806
-271.026
-277.849
-283.323
-287.545
-290.571
-292.444
-293.202
-292.888
-291.507
-289.037
-285.473
-280.796
-275
-268.057
-259.914
-250.53
-239.832
-227.726
-214.124
-198.929
-182.036
-163.367
-142.866
-120.488
-96.2456
-70.1794
-42.3998
-13.0929
17.4166
48.5215
80.6142
113.15
145.618
177.543
208.52
238.075
265.747
291.154
313.893
333.616
350.018
362.849
371.938
377.17
378.475
375.657
368.992
358.628
344.787
327.762
307.893
285.507
260.967
234.667
206.974
178.237
148.816
119.036
89.1961
59.5596
30.6923
2.29683
-25.5844
-52.6635
-78.7708
-103.78
-127.581
-150.085
-171.209
-190.887
-209.066
-225.692
-240.725
-254.135
-265.896
-275.993
-284.413
-291.149
-296.21
-299.61
-90.8134
-63.9875
-35.4833
-5.88679
20.4449
53.0562
86.7831
120.942
155.164
189.1
222.307
254.364
284.92
313.572
339.949
363.676
384.383
401.789
415.642
425.728
431.911
434.104
432.226
426.374
416.673
403.263
386.373
366.255
343.233
317.634
289.818
260.2
229.169
197.126
164.445
131.484
98.5818
66.0265
34.2039
6.53007
-22.9375
-51.2466
-78.1758
-103.594
-127.43
-149.64
-170.201
-189.114
-206.391
-222.056
-236.141
-248.681
-259.707
-269.254
-277.347
-284.014
-289.27
-293.124
-295.581
-296.632
-296.231
-294.402
-291.099
-286.315
-280.014
-272.149
-262.697
-251.617
-238.872
-224.449
-208.317
-190.474
-170.932
-149.712
-126.855
-102.43
-76.5108
-49.1914
-20.5745
9.30797
40.5431
72.2174
104.322
136.678
169.041
201.13
232.634
263.214
292.513
320.159
345.786
369.04
389.582
407.106
421.347
432.077
439.11
442.312
441.589
436.956
428.431
416.085
400.054
380.531
357.762
332.034
303.687
273.1
240.684
206.877
172.128
136.89
101.597
66.6582
32.4627
-0.700882
-32.5432
-62.8417
-91.4268
-118.174
-143.001
-165.858
-186.728
-205.613
-222.532
-237.518
-250.613
-261.869
-271.34
-279.089
-285.182
-289.687
-292.676
-294.204
-294.345
-293.152
-290.665
-286.907
-281.89
-275.614
-268.057
-259.193
-248.981
-237.373
-224.313
-209.745
-193.619
-175.889
-156.527
-135.516
-112.861
-88.5862
-62.742
-35.4018
-6.67443
23.2757
54.4959
86.3716
118.868
151.664
184.421
216.768
248.308
278.62
307.271
333.826
357.856
378.952
396.735
410.865
421.058
427.093
428.816
426.16
419.175
407.925
392.592
373.428
350.751
324.939
296.411
265.622
233.051
199.19
164.526
129.528
94.629
60.2266
26.6613
-5.7546
-36.764
-66.1653
-93.8106
-119.607
-143.508
-165.507
-185.622
-203.887
-220.349
-235.053
-248.055
-259.414
-269.188
-277.44
-284.226
-289.597
-293.607
-296.289
-297.667
-297.771
-296.613
-294.184
-290.469
-285.445
-279.085
-271.361
-262.239
-251.689
-239.679
-226.178
-211.155
-194.584
-176.446
-156.736
-135.456
-112.628
-88.2901
-62.5003
-35.3415
-6.92636
22.5994
53.0592
84.2708
115.912
147.733
179.411
210.583
240.855
269.815
297.031
322.072
344.507
363.929
379.956
392.253
400.543
404.62
404.346
399.718
390.782
377.67
360.618
339.937
315.995
289.208
260.025
228.918
196.37
162.866
128.881
94.8704
61.2514
28.3975
-3.37318
-33.8016
-62.6916
-89.8995
-115.33
-138.93
-160.682
-180.584
-198.654
-214.93
-229.465
-242.314
-253.541
-263.217
-271.412
-278.212
-283.671
-287.876
-290.886
-292.75
-293.501
-293.182
-291.801
-289.334
-285.777
-281.108
-275.323
-268.396
-260.273
-250.913
-240.242
-228.166
-214.594
-199.43
-182.567
-163.926
-143.444
-121.075
-96.8324
-70.7514
-42.9413
-13.5864
16.9885
48.1603
80.3492
112.996
145.587
177.64
208.751
238.442
266.245
291.779
314.635
334.46
350.949
363.845
372.977
378.227
379.529
376.69
369.965
359.528
345.598
328.471
308.491
285.991
261.337
234.925
207.126
178.291
148.78
118.92
89.0135
59.323
30.4096
1.97423
-25.9385
-53.0463
-79.1774
-104.206
-128.021
-150.537
-171.669
-191.354
-209.539
-226.168
-241.202
-254.613
-266.373
-276.468
-284.884
-291.618
-296.674
-300.071
-91.5132
-64.6493
-36.0692
-6.28004
19.7836
52.5809
86.4361
120.708
155.048
189.112
222.451
254.645
285.339
314.13
340.644
364.503
385.33
402.839
416.774
426.92
433.134
435.333
433.448
427.55
417.78
404.285
387.289
367.052
343.902
318.168
290.213
260.458
229.294
197.126
164.333
131.273
98.2925
65.6821
33.8464
5.90882
-23.545
-51.8572
-78.7913
-104.211
-128.043
-150.245
-170.794
-189.691
-206.951
-222.597
-236.664
-249.186
-260.197
-269.73
-277.812
-284.469
-289.718
-293.568
-296.025
-297.083
-296.685
-294.863
-291.571
-286.8
-280.514
-272.665
-263.23
-252.167
-239.437
-225.027
-208.906
-191.07
-171.532
-150.311
-127.448
-103.013
-77.0757
-49.7326
-21.0858
8.83337
40.1446
71.876
104.047
136.483
168.934
201.124
232.739
263.44
292.865
320.643
346.4
369.78
390.44
408.071
422.404
433.206
440.291
443.52
442.808
438.156
429.587
417.176
401.061
381.435
358.546
332.684
304.194
273.457
240.89
206.933
172.041
136.669
101.256
66.2127
31.9343
-1.29847
-33.1916
-63.5247
-92.1298
-118.885
-143.71
-166.559
-187.414
-206.28
-223.178
-238.142
-251.214
-262.445
-271.892
-279.616
-285.685
-290.167
-293.132
-294.642
-294.767
-293.563
-291.068
-287.308
-282.294
-276.025
-268.481
-259.633
-249.441
-237.854
-224.817
-210.272
-194.167
-176.456
-157.108
-136.107
-113.456
-89.1779
-63.3225
-35.9611
-7.20154
22.8035
54.0564
86.0165
118.601
151.5
184.374
216.85
248.53
278.99
307.794
334.502
358.681
379.918
397.826
412.062
422.335
428.421
430.166
427.503
420.471
409.147
393.713
374.424
351.603
325.635
296.942
265.985
233.248
199.226
164.414
129.282
94.265
59.7634
26.1168
-6.36229
-37.4167
-66.8451
-94.5025
-120.297
-144.187
-166.168
-186.261
-204.502
-220.939
-235.617
-248.594
-259.929
-269.679
-277.909
-284.676
-290.031
-294.026
-296.697
-298.069
-298.172
-297.015
-294.591
-290.884
-285.87
-279.523
-271.811
-262.703
-252.168
-240.173
-226.687
-211.679
-195.121
-176.995
-157.292
-136.017
-113.188
-88.8435
-63.0398
-35.8583
-7.40938
22.1618
52.6774
83.9666
115.692
147.614
179.407
210.708
241.12
270.227
297.595
322.788
345.371
364.931
381.08
393.476
401.839
405.956
405.695
401.039
392.04
378.836
361.665
340.844
316.746
289.796
260.445
229.171
196.462
162.805
128.68
94.5458
60.8215
27.8824
-3.95312
-34.4271
-63.3449
-90.5659
-115.998
-139.591
-161.328
-181.211
-199.259
-215.51
-230.018
-242.839
-254.038
-263.687
-271.854
-278.627
-284.067
-288.254
-291.246
-293.098
-293.842
-293.519
-292.138
-289.674
-286.124
-281.465
-275.693
-268.783
-260.682
-251.35
-240.71
-228.667
-215.132
-200.005
-183.177
-164.565
-144.105
-121.748
-97.5049
-71.4074
-43.5626
-14.1528
16.4978
47.7452
80.0442
112.819
145.55
177.75
209.014
238.86
266.814
292.492
315.483
335.427
352.015
364.986
374.167
379.438
380.736
377.87
371.079
360.558
346.526
329.281
309.176
286.545
261.759
235.22
207.299
178.351
148.737
118.786
88.803
59.0524
30.0846
1.60513
-26.3437
-53.4845
-79.6427
-104.693
-128.524
-151.053
-172.196
-191.888
-210.079
-226.712
-241.748
-255.158
-266.917
-277.01
-285.424
-292.154
-297.206
-300.597
-92.3035
-65.399
-36.7359
-6.72623
19.037
52.0515
86.0471
120.444
154.917
189.124
222.612
254.959
285.809
314.757
341.427
365.435
386.397
404.021
418.05
428.262
434.513
436.719
434.822
428.874
419.028
405.436
388.321
367.95
344.655
318.768
290.656
260.746
229.432
197.125
164.204
131.033
97.9626
65.2883
33.4257
5.22418
-24.2248
-52.5438
-79.4843
-104.906
-128.735
-150.926
-171.461
-190.34
-207.58
-223.206
-237.252
-249.755
-260.748
-270.266
-278.334
-284.98
-290.222
-294.068
-296.524
-297.589
-297.195
-295.382
-292.102
-287.346
-281.077
-273.247
-263.831
-252.785
-240.073
-225.679
-209.57
-191.742
-172.208
-150.986
-128.116
-103.669
-77.7118
-50.3415
-21.6623
8.29683
39.6952
71.4901
103.738
136.261
168.811
201.116
232.855
263.692
293.26
321.186
347.09
370.613
391.407
409.159
423.595
434.478
441.621
444.884
444.18
439.506
430.889
418.406
402.195
382.453
359.428
333.417
304.765
273.859
241.12
206.995
171.94
136.418
100.87
65.708
31.3371
-1.97398
-33.9237
-64.2954
-92.923
-119.687
-144.51
-167.348
-188.187
-207.032
-223.906
-238.845
-251.89
-263.094
-272.514
-280.21
-286.251
-290.707
-293.646
-295.135
-295.242
-294.024
-291.522
-287.759
-282.748
-276.488
-268.957
-260.128
-249.957
-238.396
-225.385
-210.865
-194.784
-177.094
-157.763
-136.773
-114.126
-89.8452
-63.9771
-36.5926
-7.79641
22.2686
53.561
85.6138
118.299
151.313
184.318
216.941
248.778
279.405
308.381
335.262
359.61
381.004
399.054
413.41
423.774
429.92
431.69
429.016
421.932
410.524
394.977
375.546
352.563
326.418
297.539
266.392
233.467
199.265
164.284
129.001
93.853
59.2385
25.5009
-7.04897
-38.1539
-67.6128
-95.2831
-121.076
-144.952
-166.912
-186.98
-205.195
-221.603
-236.253
-249.201
-260.508
-270.232
-278.438
-285.183
-290.518
-294.497
-297.156
-298.522
-298.621
-297.466
-295.049
-291.351
-286.349
-280.016
-272.318
-263.226
-252.707
-240.73
-227.261
-212.269
-195.727
-177.612
-157.919
-136.648
-113.819
-89.4675
-63.6487
-36.4417
-7.95487
21.6674
52.245
83.6223
115.442
147.478
179.401
210.846
241.416
270.69
298.229
323.594
346.344
366.059
382.347
394.856
403.301
407.465
407.215
402.529
393.46
380.15
362.845
341.865
317.592
290.456
260.916