/*--------------------------------*- C++ -*----------------------------------*\
| =========                 |                                                 |
| \\      /  F ield         | OpenFOAM: The Open Source CFD Toolbox           |
|  \\    /   O peration     | Version:  3.0.1                                 |
|   \\  /    A nd           | Web:      www.OpenFOAM.org                      |
|    \\/     M anipulation  |                                                 |
\*---------------------------------------------------------------------------*/
FoamFile
{
    version     2.0;
    format      ascii;
    class       surfaceScalarField;
    location    "67.2";
    object      phi;
}
// * * * * * * * * * * * * * * * * * * * * * * * * * * * * * * * * * * * * * //

dimensions      [0 3 -1 0 0 0 0];

internalField   nonuniform List<scalar> 
42423
(
-4.77502e-05
-1.32585e-05
-3.32655e-05
-1.44848e-05
-1.76348e-05
-1.56308e-05
-1.16877e-06
-1.64661e-05
1.60852e-05
-1.72541e-05
3.38631e-05
-1.7778e-05
5.2316e-05
-1.8453e-05
7.10597e-05
-1.87439e-05
8.98073e-05
-1.87476e-05
0.000108549
-1.87418e-05
0.000127013
-1.84646e-05
0.000144815
-1.78021e-05
0.000161823
-1.70075e-05
0.000177746
-1.59229e-05
0.000192381
-1.46357e-05
0.000205504
-1.31232e-05
0.000216807
-1.13027e-05
0.000226084
-9.27679e-06
0.000233204
-7.12e-06
0.000238025
-4.8217e-06
0.00024053
-2.50514e-06
0.000240645
-1.14368e-07
0.000238299
2.34539e-06
0.000233536
4.76324e-06
0.000226513
7.02337e-06
0.000217442
9.07049e-06
0.000206421
1.10209e-05
0.000193587
1.28343e-05
0.000179294
1.42931e-05
0.000163723
1.55707e-05
0.000147055
1.66679e-05
0.000129602
1.74529e-05
0.00011162
1.79822e-05
9.32633e-05
1.83564e-05
7.47675e-05
1.84957e-05
5.62916e-05
1.84759e-05
3.81539e-05
1.81377e-05
2.04561e-05
1.76978e-05
3.33991e-06
1.71161e-05
-1.33276e-05
1.66675e-05
-2.92304e-05
1.59028e-05
-4.42992e-05
1.50687e-05
-5.85402e-05
1.4241e-05
-7.1869e-05
1.33288e-05
-8.4307e-05
1.2438e-05
-9.58353e-05
1.15283e-05
-0.000106432
1.05968e-05
-0.000116128
9.69627e-06
-0.000124949
8.8207e-06
-0.00013288
7.9309e-06
-0.000139961
7.08129e-06
-0.00014619
6.22898e-06
-0.000151617
5.42679e-06
-0.000156249
4.63206e-06
-0.000160093
3.84386e-06
-0.000163144
3.05079e-06
-0.000165477
2.33325e-06
-0.000167066
1.58892e-06
-0.000167873
8.06874e-07
-0.000167985
1.11962e-07
-0.000167163
-8.21717e-07
-0.00016563
-1.53326e-06
-0.000163368
-2.26149e-06
-0.000160268
-3.10022e-06
-0.000156392
-3.87579e-06
-0.000151773
-4.61962e-06
-0.000146228
-5.54451e-06
-0.000139849
-6.37956e-06
-0.000132596
-7.25295e-06
-0.000124424
-8.17211e-06
-0.000115493
-8.93053e-06
-0.0001056
-9.89344e-06
-9.49032e-05
-1.06966e-05
-8.33923e-05
-1.1511e-05
-7.09776e-05
-1.24147e-05
-5.77725e-05
-1.32053e-05
-4.37292e-05
-1.40433e-05
-2.89251e-05
-1.48042e-05
-1.35501e-05
-1.5375e-05
2.46412e-06
-1.60143e-05
1.90373e-05
-1.65732e-05
3.59868e-05
-1.69496e-05
5.33812e-05
-1.73945e-05
7.0957e-05
-1.75759e-05
8.85887e-05
-1.76318e-05
0.000106194
-1.76057e-05
0.000123541
-1.73467e-05
0.000140628
-1.70867e-05
0.000157086
-1.6458e-05
0.000172686
-1.56003e-05
0.000187182
-1.44967e-05
0.000200302
-1.31196e-05
0.000211766
-1.1464e-05
0.000221381
-9.61587e-06
0.000228877
-7.49595e-06
0.00023417
-5.29265e-06
0.000237152
-2.98256e-06
0.000237767
-6.14299e-07
0.000236026
1.74014e-06
0.000231849
4.177e-06
0.000225338
6.51089e-06
0.000216623
8.71499e-06
0.000205804
1.08196e-05
0.000193024
1.278e-05
0.000178488
1.45358e-05
0.000162392
1.60956e-05
0.000145008
1.73843e-05
0.000126587
1.84204e-05
0.000107416
1.91716e-05
8.77598e-05
1.96559e-05
6.783e-05
1.99297e-05
4.79473e-05
1.98827e-05
2.83589e-05
1.95884e-05
9.24938e-06
1.91095e-05
-9.24386e-06
1.84932e-05
-2.68957e-05
1.76518e-05
-4.36239e-05
1.67282e-05
-5.93691e-05
1.57452e-05
-7.40212e-05
1.46521e-05
-8.75676e-05
1.35464e-05
-9.99753e-05
1.24077e-05
-0.000111357
1.13821e-05
-0.000121573
1.02158e-05
-0.000130731
9.15799e-06
-0.000138817
8.08538e-06
-0.000145865
7.04858e-06
-0.000151976
6.11034e-06
-0.000157082
5.10677e-06
-0.000161279
4.19657e-06
-0.000164715
3.43639e-06
-0.000167252
2.53709e-06
-0.000169091
1.83829e-06
-0.000170158
1.06752e-06
-0.000170536
3.77984e-07
-0.000170288
-2.48233e-07
-0.000169313
-9.75063e-07
-0.000167833
-1.48004e-06
-0.000165654
-2.17838e-06
-0.000162831
-2.82351e-06
-0.000159387
-3.44414e-06
-0.000155297
-4.08972e-06
-0.000150515
-4.78209e-06
-0.000145054
-5.46118e-06
-0.000138858
-6.19598e-06
-0.000131856
-7.00229e-06
-0.00012417
-7.68555e-06
-0.000115683
-8.48707e-06
-0.000106349
-9.33456e-06
-9.61693e-05
-1.01794e-05
-8.51404e-05
-1.1029e-05
-7.3171e-05
-1.19694e-05
-6.04965e-05
-1.26746e-05
-4.69528e-05
-1.35437e-05
-3.26371e-05
-1.43158e-05
-1.75599e-05
-1.50773e-05
-1.87198e-06
-1.5688e-05
1.44188e-05
-1.62908e-05
3.11494e-05
-1.67307e-05
4.82164e-05
-1.70671e-05
6.54157e-05
-1.71994e-05
8.26082e-05
-1.71926e-05
9.9559e-05
-1.69509e-05
0.000116094
-1.65348e-05
0.00013195
-1.58559e-05
0.000146881
-1.49312e-05
0.000160611
-1.37308e-05
0.000172898
-1.22872e-05
0.000183467
-1.05684e-05
0.000192131
-8.66394e-06
0.000198671
-6.54004e-06
0.000202915
-4.24425e-06
0.000204784
-1.86901e-06
0.000204238
5.45493e-07
0.000201204
3.03358e-06
0.000195644
5.56082e-06
0.000187787
7.85663e-06
0.000177712
1.00748e-05
0.000165637
1.20754e-05
0.00015175
1.38863e-05
0.000136302
1.54477e-05
0.000119609
1.66932e-05
0.000101906
1.77033e-05
8.34837e-05
1.8422e-05
6.46093e-05
1.88744e-05
4.55235e-05
1.90857e-05
2.64459e-05
1.90776e-05
7.59576e-06
1.88501e-05
-1.07989e-05
1.83946e-05
-2.85386e-05
1.77397e-05
-4.54464e-05
1.69078e-05
-6.14335e-05
1.5987e-05
-7.63582e-05
1.49247e-05
-9.02117e-05
1.38535e-05
-0.000103023
1.2811e-05
-0.000114807
1.17844e-05
-0.000125594
1.07872e-05
-0.000135445
9.85056e-06
-0.000144328
8.88292e-06
-0.000152244
7.91628e-06
-0.000159175
6.93109e-06
-0.000165262
6.08628e-06
-0.000170438
5.17626e-06
-0.000174734
4.29601e-06
-0.00017819
3.4559e-06
-0.000180921
2.73156e-06
-0.000182893
1.97177e-06
-0.000184231
1.33789e-06
-0.000184927
6.95614e-07
-0.000185003
7.65044e-08
-0.000184592
-4.11662e-07
-0.000183566
-1.02539e-06
-0.00018196
-1.60572e-06
-0.000179725
-2.23524e-06
-0.000176824
-2.90155e-06
-0.000173359
-3.46491e-06
-0.000169143
-4.21599e-06
-0.000164252
-4.89065e-06
-0.000158628
-5.62452e-06
-0.000152302
-6.32544e-06
-0.000145261
-7.04095e-06
-0.000137461
-7.80073e-06
-0.000128906
-8.55485e-06
-0.000119577
-9.32877e-06
-0.000109428
-1.01488e-05
-9.84209e-05
-1.10074e-05
-8.66555e-05
-1.17655e-05
-7.40064e-05
-1.26491e-05
-6.05679e-05
-1.34386e-05
-4.6306e-05
-1.4262e-05
-3.13663e-05
-1.49397e-05
-1.58074e-05
-1.55589e-05
2.16915e-07
-1.60244e-05
1.66025e-05
-1.63856e-05
3.32069e-05
-1.66045e-05
4.98655e-05
-1.66587e-05
6.64476e-05
-1.65822e-05
8.27373e-05
-1.62898e-05
9.85142e-05
-1.5777e-05
0.000113556
-1.50422e-05
0.000127587
-1.40312e-05
0.000140373
-1.27858e-05
0.000151683
-1.13097e-05
0.000161284
-9.60092e-06
0.000168875
-7.59177e-06
0.00017432
-5.44507e-06
0.000177408
-3.08795e-06
0.000178102
-6.93599e-07
0.000176345
1.75678e-06
0.000172062
4.28279e-06
0.00016536
6.70167e-06
0.000156425
8.93483e-06
0.000145386
1.10399e-05
0.000132457
1.29282e-05
0.000117874
1.45829e-05
0.00010186
1.6014e-05
8.47199e-05
1.71403e-05
6.67438e-05
1.79761e-05
4.82427e-05
1.85011e-05
2.9469e-05
1.87736e-05
1.07286e-05
1.87404e-05
-7.82768e-06
1.85563e-05
-2.58877e-05
1.806e-05
-4.3315e-05
1.74273e-05
-5.99213e-05
1.66063e-05
-7.56207e-05
1.56994e-05
-9.03286e-05
1.47079e-05
-0.000104049
1.372e-05
-0.000116636
1.25872e-05
-0.000128119
1.1483e-05
-0.000138565
1.04463e-05
-0.000147927
9.36162e-06
-0.000156164
8.23674e-06
-0.000163347
7.18323e-06
-0.00016951
6.16281e-06
-0.000174706
5.19645e-06
-0.000178924
4.21802e-06
-0.000182129
3.20443e-06
-0.000184428
2.29922e-06
-0.000185822
1.39419e-06
-0.000186341
5.19186e-07
-0.000186003
-3.3833e-07
-0.00018481
-1.19304e-06
-0.000183036
-1.77342e-06
-0.000180615
-2.42123e-06
-0.00017771
-2.90528e-06
-0.000174501
-3.20885e-06
-0.000170966
-3.53507e-06
-0.000167042
-3.92371e-06
-0.00016281
-4.2318e-06
-0.000158174
-4.63683e-06
-0.000153243
-4.9309e-06
-0.000148048
-5.19509e-06
-0.000142338
-5.70975e-06
-0.000136145
-6.19269e-06
-0.00012951
-6.63538e-06
-0.000122095
-7.4145e-06
-0.000113916
-8.17923e-06
-0.000105004
-8.91181e-06
-9.50491e-05
-9.95534e-06
-8.42013e-05
-1.08478e-05
-7.22397e-05
-1.19617e-05
-5.91785e-05
-1.30613e-05
-4.5298e-05
-1.38806e-05
-3.02712e-05
-1.50268e-05
-1.42041e-05
-1.60672e-05
2.50324e-06
-1.67074e-05
1.98937e-05
-1.73905e-05
3.76734e-05
-1.77798e-05
5.58044e-05
-1.8131e-05
7.39769e-05
-1.81726e-05
9.17689e-05
-1.77921e-05
0.000109041
-1.72722e-05
0.000125522
-1.64815e-05
0.00014082
-1.5298e-05
0.000154815
-1.39943e-05
0.000167188
-1.23734e-05
0.000177765
-1.05774e-05
0.000186301
-8.5354e-06
0.000192632
-6.33114e-06
0.000196735
-4.10367e-06
0.000198539
-1.80364e-06
0.000197884
6.55107e-07
0.000194915
2.96832e-06
0.000189566
5.34985e-06
0.000182233
7.33207e-06
0.000173039
9.19475e-06
0.000162118
1.09211e-05
0.000149809
1.2308e-05
0.000136307
1.35021e-05
0.000121809
1.44984e-05
0.000106565
1.52438e-05
9.07573e-05
1.58077e-05
7.46619e-05
1.60954e-05
5.8448e-05
1.62139e-05
4.21758e-05
1.62722e-05
2.60112e-05
1.61646e-05
1.01406e-05
1.58706e-05
-5.36815e-06
1.55088e-05
-2.04488e-05
1.50806e-05
-3.50788e-05
1.463e-05
-4.91637e-05
1.40849e-05
-6.26305e-05
1.34668e-05
-7.5469e-05
1.28384e-05
-8.76092e-05
1.21402e-05
-9.90583e-05
1.14491e-05
-0.000109761
1.07029e-05
-0.00011968
9.91893e-06
-0.000128818
9.13774e-06
-0.000137136
8.31829e-06
-0.000144613
7.47671e-06
-0.000151242
6.62943e-06
-0.000157009
5.76671e-06
-0.000161911
4.90179e-06
-0.000165942
4.03172e-06
-0.0001691
3.15729e-06
-0.000171395
2.29546e-06
1.42438e-06
-4.77876e-05
-2.65176e-05
-3.32999e-05
-2.89727e-05
-1.76695e-05
-3.12615e-05
-1.19784e-06
-3.2938e-05
1.6057e-05
-3.45091e-05
3.38407e-05
-3.55619e-05
5.23054e-05
-3.69179e-05
7.10666e-05
-3.75053e-05
8.98221e-05
-3.75033e-05
0.000108568
-3.74877e-05
0.000127044
-3.69415e-05
0.000144859
-3.56172e-05
0.00016188
-3.40287e-05
0.000177824
-3.18664e-05
0.000192484
-2.92962e-05
0.000205611
-2.62506e-05
0.000216913
-2.26047e-05
0.000226198
-1.85615e-05
0.000233333
-1.42554e-05
0.000238172
-9.66038e-06
0.000240676
-5.00932e-06
0.000240772
-2.111e-07
0.00023842
4.69764e-06
0.000233654
9.52923e-06
0.000226622
1.40548e-05
0.000217546
1.81467e-05
0.000206515
2.2052e-05
0.000193668
2.56806e-05
0.000179364
2.85976e-05
0.000163782
3.11531e-05
0.000147102
3.33475e-05
0.000129638
3.49171e-05
0.000111647
3.59726e-05
9.32809e-05
3.67226e-05
7.47764e-05
3.70002e-05
5.62929e-05
3.69593e-05
3.81443e-05
3.62863e-05
2.0437e-05
3.5405e-05
3.31327e-06
3.42399e-05
-1.33549e-05
3.33357e-05
-2.92613e-05
3.18092e-05
-4.43342e-05
3.01416e-05
-5.85779e-05
2.84848e-05
-7.19094e-05
2.66603e-05
-8.43483e-05
2.48769e-05
-9.5878e-05
2.30581e-05
-0.00010648
2.11988e-05
-0.000116177
1.93935e-05
-0.000124999
1.76424e-05
-0.000132934
1.58655e-05
-0.000140015
1.41628e-05
-0.000146252
1.2466e-05
-0.000151674
1.08486e-05
-0.000156309
9.26659e-06
-0.000160153
7.68788e-06
-0.000163207
6.10537e-06
-0.000165546
4.67157e-06
-0.000167131
3.17449e-06
-0.000167938
1.61369e-06
-0.000168055
2.29118e-07
-0.000167229
-1.64747e-06
-0.000165706
-3.05637e-06
-0.000163437
-4.53104e-06
-0.000160337
-6.20036e-06
-0.000156461
-7.75175e-06
-0.000151843
-9.23781e-06
-0.000146295
-1.1092e-05
-0.000139918
-1.27563e-05
-0.000132681
-1.44905e-05
-0.000124505
-1.63476e-05
-0.000115575
-1.78607e-05
-0.000105673
-1.97962e-05
-9.4973e-05
-2.13965e-05
-8.34548e-05
-2.30293e-05
-7.10298e-05
-2.48398e-05
-5.78244e-05
-2.64107e-05
-4.37689e-05
-2.8099e-05
-2.8968e-05
-2.96052e-05
-1.35983e-05
-3.07449e-05
2.43113e-06
-3.20439e-05
1.90018e-05
-3.3144e-05
3.5957e-05
-3.39051e-05
5.33694e-05
-3.48071e-05
7.09461e-05
-3.51528e-05
8.86035e-05
-3.52893e-05
0.000106214
-3.52161e-05
0.000123575
-3.47081e-05
0.000140679
-3.41908e-05
0.000157145
-3.29241e-05
0.000172769
-3.12245e-05
0.000187288
-2.90162e-05
0.000200426
-2.62582e-05
0.0002119
-2.29378e-05
0.000221528
-1.92445e-05
0.00022903
-1.49976e-05
0.000234335
-1.05979e-05
0.000237344
-5.99184e-06
0.000237928
-1.19811e-06
0.000236152
3.51607e-06
0.000231966
8.36237e-06
0.000225453
1.30238e-05
0.000216736
1.74323e-05
0.000205908
2.16477e-05
0.000193111
2.55767e-05
0.000178558
2.90883e-05
0.000162451
3.22027e-05
0.000145052
3.47837e-05
0.000126613
3.68594e-05
0.000107428
3.83562e-05
8.77579e-05
3.9326e-05
6.78301e-05
3.98575e-05
4.79156e-05
3.97972e-05
2.83065e-05
3.91974e-05
9.18729e-06
3.82286e-05
-9.30943e-06
3.69899e-05
-2.69785e-05
3.53209e-05
-4.37156e-05
3.34653e-05
-5.94677e-05
3.14973e-05
-7.41297e-05
2.9314e-05
-8.76878e-05
2.71046e-05
-0.000100098
2.48176e-05
-0.000111481
2.27654e-05
-0.000121705
2.04397e-05
-0.000130859
1.83119e-05
-0.000138955
1.61816e-05
-0.000146013
1.41061e-05
-0.000152126
1.22236e-05
-0.000157241
1.02222e-05
-0.000161436
8.39162e-06
-0.000164886
6.88601e-06
-0.00016744
5.09148e-06
-0.000169262
3.65989e-06
-0.000170338
2.14358e-06
-0.000170738
7.77882e-07
-0.000170472
-5.14185e-07
-0.000169504
-1.9435e-06
-0.000168028
-2.95543e-06
-0.000165849
-4.35772e-06
-0.000163039
-5.63373e-06
-0.000159594
-6.88883e-06
-0.000155478
-8.20609e-06
-0.000150723
-9.53646e-06
-0.000145265
-1.09199e-05
-0.000139055
-1.24057e-05
-0.000132058
-1.39996e-05
-0.000124389
-1.53543e-05
-0.000115882
-1.69947e-05
-0.000106549
-1.86671e-05
-9.63599e-05
-2.03688e-05
-8.53266e-05
-2.20625e-05
-7.337e-05
-2.39261e-05
-6.06823e-05
-2.53624e-05
-4.71266e-05
-2.70996e-05
-3.27917e-05
-2.86508e-05
-1.77217e-05
-3.01475e-05
-2.0127e-06
-3.13971e-05
1.43067e-05
-3.26105e-05
3.10459e-05
-3.34701e-05
4.8125e-05
-3.41464e-05
6.53444e-05
-3.4419e-05
8.25651e-05
-3.44135e-05
9.95154e-05
-3.39014e-05
0.000116064
-3.30838e-05
0.000131936
-3.17281e-05
0.000146896
-2.9891e-05
0.000160634
-2.74696e-05
0.000172934
-2.45869e-05
0.000183525
-2.11598e-05
0.000192207
-1.73459e-05
0.00019875
-1.30834e-05
0.000203002
-8.49638e-06
0.00020488
-3.74743e-06
0.000204329
1.09665e-06
0.000201292
6.07018e-06
0.000195731
1.11218e-05
0.000187869
1.57181e-05
0.000177785
2.0159e-05
0.000165701
2.41594e-05
0.000151808
2.77787e-05
0.000136345
3.09114e-05
0.00011963
3.34075e-05
0.000101906
3.54271e-05
8.34736e-05
3.68545e-05
6.46106e-05
3.77373e-05
4.54892e-05
3.8207e-05
2.63922e-05
3.81745e-05
7.53043e-06
3.77118e-05
-1.08802e-05
3.68052e-05
-2.86407e-05
3.55001e-05
-4.55575e-05
3.38246e-05
-6.15481e-05
3.19776e-05
-7.64892e-05
2.98658e-05
-9.03479e-05
2.77122e-05
-0.000103144
2.56067e-05
-0.000114939
2.358e-05
-0.00012573
2.15781e-05
-0.000135602
1.97223e-05
-0.000144489
1.77702e-05
-0.00015242
1.58468e-05
-0.000159372
1.38836e-05
-0.000165431
1.21449e-05
-0.000170622
1.03675e-05
-0.000174916
8.5899e-06
-0.000178384
6.92387e-06
-0.000181113
5.46091e-06
-0.000183083
3.94126e-06
-0.00018442
2.67551e-06
-0.000185115
1.39074e-06
-0.000185187
1.47834e-07
-0.00018479
-8.0885e-07
-0.000183759
-2.0562e-06
-0.000182161
-3.20351e-06
-0.000179924
-4.47283e-06
-0.000177025
-5.80003e-06
-0.00017356
-6.92999e-06
-0.000169344
-8.43169e-06
-0.000164427
-9.8079e-06
-0.000158834
-1.12182e-05
-0.000152502
-1.26575e-05
-0.000145454
-1.40883e-05
-0.000137648
-1.56073e-05
-0.000129093
-1.71097e-05
-0.000119756
-1.86653e-05
-0.000109605
-2.02999e-05
-9.85794e-05
-2.20335e-05
-8.68129e-05
-2.35321e-05
-7.41574e-05
-2.53048e-05
-6.071e-05
-2.68861e-05
-4.64483e-05
-2.85237e-05
-3.14916e-05
-2.98965e-05
-1.59276e-05
-3.11231e-05
1.16498e-07
-3.20687e-05
1.65151e-05
-3.27844e-05
3.31456e-05
-3.32351e-05
4.98091e-05
-3.33223e-05
6.64013e-05
-3.31746e-05
8.26992e-05
-3.25878e-05
9.84903e-05
-3.15682e-05
0.000113548
-3.00996e-05
0.000127601
-2.80848e-05
0.000140411
-2.55961e-05
0.000151737
-2.26352e-05
0.000161346
-1.92104e-05
0.00016894
-1.51865e-05
0.00017439
-1.08948e-05
0.000177496
-6.19381e-06
0.000178189
-1.38658e-06
0.000176413
3.53185e-06
0.000172131
8.56516e-06
0.000165425
1.34077e-05
0.000156474
1.7886e-05
0.000145421
2.20926e-05
0.000132477
2.58723e-05
0.000117867
2.91926e-05
0.000101848
3.20331e-05
8.47074e-05
3.42804e-05
6.67026e-05
3.59808e-05
4.81955e-05
3.70081e-05
2.9416e-05
3.75531e-05
1.06485e-05
3.75078e-05
-7.89463e-06
3.70994e-05
-2.59536e-05
3.61189e-05
-4.33865e-05
3.48601e-05
-5.99993e-05
3.3219e-05
-7.56986e-05
3.13987e-05
-9.04002e-05
2.94094e-05
-0.000104118
2.74379e-05
-0.000116718
2.51876e-05
-0.000128199
2.29638e-05
-0.00013864
2.08874e-05
-0.000147997
1.87187e-05
-0.000156243
1.64818e-05
-0.000163419
1.43598e-05
-0.000169579
1.23229e-05
-0.000174775
1.03926e-05
-0.000178992
8.4351e-06
-0.000182201
6.41327e-06
-0.00018451
4.60744e-06
-0.0001859
2.78453e-06
-0.000186409
1.02795e-06
-0.000186067
-6.79989e-07
-0.000184863
-2.39709e-06
-0.000183093
-3.54341e-06
-0.000180667
-4.84685e-06
-0.000177755
-5.81772e-06
-0.000174542
-6.42188e-06
-0.000171006
-7.07102e-06
-0.000167085
-7.84462e-06
-0.000162853
-8.46389e-06
-0.000158215
-9.27518e-06
-0.000153286
-9.85975e-06
-0.000148094
-1.03867e-05
-0.000142389
-1.14153e-05
-0.000136197
-1.23849e-05
-0.000129562
-1.327e-05
-0.00012215
-1.48267e-05
-0.000113971
-1.63583e-05
-0.00010506
-1.78225e-05
-9.51073e-05
-1.99084e-05
-8.42631e-05
-2.16921e-05
-7.23028e-05
-2.3922e-05
-5.92447e-05
-2.61194e-05
-4.53557e-05
-2.77697e-05
-3.03266e-05
-3.00559e-05
-1.42409e-05
-3.2153e-05
2.4673e-06
-3.34157e-05
1.98684e-05
-3.47917e-05
3.76574e-05
-3.55689e-05
5.57999e-05
-3.62737e-05
7.39866e-05
-3.63593e-05
9.1792e-05
-3.55977e-05
0.000109079
-3.45592e-05
0.000125574
-3.2977e-05
0.000140885
-3.06087e-05
0.000154892
-2.80015e-05
0.000167276
-2.47577e-05
0.000177869
-2.11698e-05
0.000186426
-1.70926e-05
0.000192771
-1.26769e-05
0.000196869
-8.20156e-06
0.000198666
-3.6002e-06
0.000197999
1.32196e-06
0.000195021
5.94567e-06
0.000189669
1.07016e-05
0.000182329
1.46726e-05
0.000173125
1.83988e-05
0.000162193
2.1853e-05
0.000149873
2.46272e-05
0.00013636
2.70158e-05
0.00012185
2.90076e-05
0.0001066
3.04942e-05
9.07835e-05
3.16241e-05
7.46765e-05
3.22024e-05
5.84544e-05
3.24359e-05
4.21785e-05
3.25481e-05
2.60084e-05
3.23346e-05
1.0129e-05
3.175e-05
-5.3811e-06
3.10188e-05
-2.04654e-05
3.01649e-05
-3.50994e-05
2.92639e-05
-4.91877e-05
2.81732e-05
-6.2657e-05
2.69361e-05
-7.54995e-05
2.56809e-05
-8.76401e-05
2.42807e-05
-9.90939e-05
2.29029e-05
-0.000109798
2.14069e-05
-0.000119717
1.98378e-05
-0.000128855
1.82755e-05
-0.000137172
1.66356e-05
-0.000144646
1.49511e-05
-0.000151274
1.32576e-05
-0.000157041
1.15329e-05
-0.000161945
9.80638e-06
-0.000165979
8.06563e-06
-0.000169136
6.31434e-06
-0.000171433
4.59211e-06
2.84496e-06
-4.78601e-05
-3.97799e-05
-3.33662e-05
-4.34668e-05
-1.77371e-05
-4.68908e-05
-1.25297e-06
-4.94224e-05
1.60123e-05
-5.17746e-05
3.3814e-05
-5.33638e-05
5.23007e-05
-5.54048e-05
7.10793e-05
-5.62841e-05
8.98574e-05
-5.62816e-05
0.000108633
-5.62631e-05
0.00012714
-5.54487e-05
0.000144984
-5.34616e-05
0.000162027
-5.10721e-05
0.000177986
-4.7825e-05
0.000192648
-4.39591e-05
0.000205791
-3.93931e-05
0.000217123
-3.39371e-05
0.000226425
-2.78641e-05
0.000233564
-2.1394e-05
0.000238395
-1.44914e-05
0.000240903
-7.51826e-06
0.000240979
-2.86893e-07
0.000238604
7.07308e-06
0.000233836
1.42971e-05
0.000226785
2.11054e-05
0.0002177
2.72312e-05
0.000206655
3.30975e-05
0.000193789
3.85465e-05
0.000179465
4.29209e-05
0.000163863
4.6755e-05
0.000147164
5.0047e-05
0.00012968
5.24012e-05
0.000111675
5.39773e-05
9.32923e-05
5.51053e-05
7.47734e-05
5.55191e-05
5.62808e-05
5.54519e-05
3.81111e-05
5.4456e-05
2.03869e-05
5.31292e-05
3.24602e-06
5.13808e-05
-1.342e-05
5.00017e-05
-2.93293e-05
4.77184e-05
-4.44071e-05
4.52194e-05
-5.8654e-05
4.27317e-05
-7.19906e-05
3.99968e-05
-8.44279e-05
3.73142e-05
-9.59586e-05
3.45888e-05
-0.000106564
3.1804e-05
-0.00011626
2.909e-05
-0.000125082
2.64641e-05
-0.00013302
2.38036e-05
-0.000140099
2.12415e-05
-0.000146341
1.87078e-05
-0.000151757
1.62649e-05
-0.000156394
1.39035e-05
-0.000160238
1.15317e-05
-0.00016329
9.15751e-06
-0.000165623
7.00473e-06
-0.000167204
4.75515e-06
-0.000168006
2.41612e-06
-0.000168114
3.37416e-07
-0.000167294
-2.46821e-06
-0.000165776
-4.5744e-06
-0.000163508
-6.79905e-06
-0.000160415
-9.2935e-06
-0.000156529
-1.16378e-05
-0.000151911
-1.38553e-05
-0.000146359
-1.66444e-05
-0.000139987
-1.91287e-05
-0.000132765
-2.17118e-05
-0.000124589
-2.45236e-05
-0.000115661
-2.67891e-05
-0.000105766
-2.96909e-05
-9.50506e-05
-3.21123e-05
-8.35248e-05
-3.45553e-05
-7.1095e-05
-3.72696e-05
-5.78894e-05
-3.96164e-05
-4.38281e-05
-4.21605e-05
-2.90236e-05
-4.44098e-05
-1.36596e-05
-4.61092e-05
2.37621e-06
-4.80798e-05
1.8954e-05
-4.97219e-05
3.59172e-05
-5.08685e-05
5.33458e-05
-5.22358e-05
7.09222e-05
-5.27293e-05
8.86067e-05
-5.29741e-05
0.000106225
-5.28349e-05
0.000123604
-5.20871e-05
0.000140725
-5.13122e-05
0.000157209
-4.94077e-05
0.000172862
-4.68778e-05
0.000187411
-4.35658e-05
0.000200561
-3.94077e-05
0.000212051
-3.44283e-05
0.000221688
-2.8882e-05
0.000229188
-2.24973e-05
0.000234491
-1.59012e-05
0.000237487
-8.98808e-06
0.00023806
-1.77064e-06
0.000236255
5.32029e-06
0.000232064
1.25535e-05
0.000225533
1.95546e-05
0.000216792
2.61736e-05
0.000205965
3.24745e-05
0.000193133
3.8408e-05
0.000178565
4.36564e-05
0.000162433
4.83352e-05
0.000145003
5.2213e-05
0.000126546
5.53165e-05
0.000107358
5.75441e-05
8.76101e-05
5.90739e-05
6.77037e-05
5.97639e-05
4.77585e-05
5.97424e-05
2.81272e-05
5.88287e-05
8.98768e-06
5.73681e-05
-9.49669e-06
5.54743e-05
-2.7213e-05
5.30371e-05
-4.39399e-05
5.01921e-05
-5.96881e-05
4.72455e-05
-7.43864e-05
4.40123e-05
-8.79544e-05
4.06725e-05
-0.000100387
3.72497e-05
-0.000111681
3.40595e-05
-0.000121938
3.06967e-05
-0.000131096
2.747e-05
-0.000139195
2.42805e-05
-0.000146261
2.11725e-05
-0.000152366
1.83284e-05
-0.00015749
1.53468e-05
-0.00016172
1.26209e-05
-0.000165126
1.02927e-05
-0.000167696
7.66122e-06
-0.000169499
5.46312e-06
-0.000170576
3.22065e-06
-0.000170975
1.17635e-06
-0.000170708
-7.80538e-07
-0.00016979
-2.86159e-06
-0.000168268
-4.47756e-06
-0.000166084
-6.5422e-06
-0.000163273
-8.44424e-06
-0.000159835
-1.03268e-05
-0.000155676
-1.23652e-05
-0.000150978
-1.42344e-05
-0.000145513
-1.6385e-05
-0.000139288
-1.86308e-05
-0.000132345
-2.0943e-05
-0.000124636
-2.30629e-05
-0.000116118
-2.55127e-05
-0.000106792
-2.79935e-05
-9.65951e-05
-3.05659e-05
-8.55632e-05
-3.30945e-05
-7.36691e-05
-3.58203e-05
-6.09339e-05
-3.80977e-05
-4.73652e-05
-4.06685e-05
-3.30088e-05
-4.30074e-05
-1.79392e-05
-4.52172e-05
-2.21147e-06
-4.71251e-05
1.41193e-05
-4.89414e-05
3.08716e-05
-5.02225e-05
4.79633e-05
-5.12383e-05
6.52022e-05
-5.16581e-05
8.24411e-05
-5.16525e-05
9.94077e-05
-5.08682e-05
0.000115977
-4.96538e-05
0.000131866
-4.76167e-05
0.000146853
-4.48784e-05
0.000160613
-4.12293e-05
0.000172936
-3.69103e-05
0.000183552
-3.17762e-05
0.000192237
-2.6031e-05
0.000198794
-1.96406e-05
0.000203067
-1.27694e-05
0.000204953
-5.6336e-06
0.000204377
1.67309e-06
0.000201317
9.12996e-06
0.000195771
1.6667e-05
0.000187899
2.35904e-05
0.000177796
3.02613e-05
0.000165713
3.62429e-05
0.000151823
4.16681e-05
0.000136307
4.64279e-05
0.000119552
5.0162e-05
0.000101811
5.31686e-05
8.33574e-05
5.53075e-05
6.44645e-05
5.66302e-05
4.53404e-05
5.73311e-05
2.62286e-05
5.72863e-05
7.34739e-06
5.6593e-05
-1.10861e-05
5.52387e-05
-2.88549e-05
5.32688e-05
-4.57864e-05
5.0756e-05
-6.17795e-05
4.79706e-05
-7.67422e-05
4.48285e-05
-9.05984e-05
4.15683e-05
-0.000103369
3.83773e-05
-0.00011519
3.54008e-05
-0.000125977
3.23654e-05
-0.000135844
2.95893e-05
-0.000144734
2.66595e-05
-0.000152673
2.37863e-05
-0.000159648
2.08589e-05
-0.000165677
1.81731e-05
-0.00017088
1.55709e-05
-0.000175171
1.28803e-05
-0.000178634
1.03873e-05
-0.000181358
8.18511e-06
-0.000183328
5.91146e-06
-0.000184651
3.99833e-06
-0.000185341
2.08077e-06
-0.000185453
2.59721e-07
-0.000185008
-1.25365e-06
-0.00018398
-3.08483e-06
-0.000182392
-4.79142e-06
-0.000180166
-6.69849e-06
-0.000177305
-8.66125e-06
-0.000173794
-1.04407e-05
-0.000169591
-1.26353e-05
-0.000164632
-1.47668e-05
-0.000159077
-1.67733e-05
-0.000152743
-1.89916e-05
-0.000145687
-2.11441e-05
-0.000137882
-2.3412e-05
-0.000129326
-2.56659e-05
-0.000119979
-2.8013e-05
-0.000109838
-3.04404e-05
-9.88166e-05
-3.30551e-05
-8.70355e-05
-3.53133e-05
-7.43735e-05
-3.79669e-05
-6.09088e-05
-4.03508e-05
-4.66627e-05
-4.277e-05
-3.16964e-05
-4.48629e-05
-1.61259e-05
-4.66936e-05
-6.60812e-08
-4.81287e-05
1.63431e-05
-4.91937e-05
3.29937e-05
-4.98858e-05
4.96688e-05
-4.99975e-05
6.62757e-05
-4.97816e-05
8.25925e-05
-4.89048e-05
9.84062e-05
-4.7382e-05
0.000113484
-4.51777e-05
0.00012756
-4.21604e-05
0.000140395
-3.8432e-05
0.000151735
-3.3975e-05
0.000161355
-2.88304e-05
0.000168976
-2.28077e-05
0.000174436
-1.63548e-05
0.000177562
-9.3198e-06
0.000178235
-2.06e-06
0.000176443
5.32438e-06
0.000172142
1.28652e-05
0.000165452
2.00978e-05
0.000156486
2.68521e-05
0.000145408
3.31702e-05
0.00013244
3.88404e-05
0.000117803
4.383e-05
0.000101777
4.80585e-05
8.46418e-05
5.14159e-05
6.66156e-05
5.40068e-05
4.8096e-05
5.55277e-05
2.93025e-05
5.63464e-05
1.05149e-05
5.62954e-05
-8.01946e-06
5.56337e-05
-2.60823e-05
5.41817e-05
-4.35198e-05
5.22976e-05
-6.01368e-05
4.98359e-05
-7.58343e-05
4.70962e-05
-9.0529e-05
4.4104e-05
-0.000104233
4.11419e-05
-0.00011685
3.78045e-05
-0.000128321
3.44347e-05
-0.000138751
3.13176e-05
-0.000148095
2.80627e-05
-0.000156354
2.47407e-05
-0.000163524
2.15293e-05
-0.000169678
1.84778e-05
-0.00017487
1.55838e-05
-0.000179092
1.26579e-05
-0.000182308
9.62884e-06
-0.000184621
6.92034e-06
-0.000186008
4.1719e-06
-0.000186493
1.51241e-06
-0.000186131
-1.04211e-06
-0.000184921
-3.60646e-06
-0.000183149
-5.31552e-06
-0.000180715
-7.28126e-06
-0.000177792
-8.74003e-06
-0.000174571
-9.64333e-06
-0.00017103
-1.06123e-05
-0.000167099
-1.17757e-05
-0.000162881
-1.26819e-05
-0.000158242
-1.39139e-05
-0.00015332
-1.47814e-05
-0.000148134
-1.55736e-05
-0.000142435
-1.71135e-05
-0.000136247
-1.85735e-05
-0.000129615
-1.9902e-05
-0.000122208
-2.22333e-05
-0.000114032
-2.45344e-05
-0.000105128
-2.67269e-05
-9.51806e-05
-2.98558e-05
-8.43427e-05
-3.25301e-05
-7.23862e-05
-3.58786e-05
-5.93352e-05
-3.91705e-05
-4.54355e-05
-4.16695e-05
-3.04076e-05
-4.50839e-05
-1.42964e-05
-4.82643e-05
2.41894e-06
-5.01311e-05
1.98349e-05
-5.22078e-05
3.76419e-05
-5.3376e-05
5.58051e-05
-5.4437e-05
7.40179e-05
-5.45722e-05
9.18457e-05
-5.34256e-05
0.000109158
-5.1872e-05
0.000125678
-4.94967e-05
0.00014101
-4.59405e-05
0.000155043
-4.20349e-05
0.000167452
-3.71666e-05
0.000178068
-3.17857e-05
0.000186637
-2.56616e-05
0.000192982
-1.90223e-05
0.000197087
-1.23067e-05
0.000198893
-5.40591e-06
0.000198192
2.02271e-06
0.000195183
8.95426e-06
0.000189829
1.60554e-05
0.000182474
2.20282e-05
0.000173253
2.76194e-05
0.000162302
3.28034e-05
0.000149964
3.69656e-05
0.000136431
4.05488e-05
0.000121904
4.35346e-05
0.000106644
4.57536e-05
9.08175e-05
4.74509e-05
7.46881e-05
4.83318e-05
5.84523e-05
4.86717e-05
4.21728e-05
4.88275e-05
2.60001e-05
4.85073e-05
1.01012e-05
4.76489e-05
-5.41598e-06
4.6536e-05
-2.05073e-05
4.52563e-05
-3.51471e-05
4.39037e-05
-4.92395e-05
4.22656e-05
-6.27114e-05
4.0408e-05
-7.5557e-05
3.85266e-05
-8.77006e-05
3.64243e-05
-9.9155e-05
3.43573e-05
-0.00010986
3.21114e-05
-0.000119778
2.97564e-05
-0.000128916
2.74137e-05
-0.000137235
2.49544e-05
-0.000144711
2.24268e-05
-0.00015134
1.98863e-05
-0.000157106
1.72997e-05
-0.000162011
1.47114e-05
-0.000166046
1.21005e-05
-0.000169203
9.47135e-06
-0.000171506
6.89534e-06
4.2596e-06
-4.79691e-05
-5.30469e-05
-3.34664e-05
-5.79696e-05
-1.78392e-05
-6.25182e-05
-1.33611e-06
-6.59256e-05
1.59453e-05
-6.90562e-05
3.37751e-05
-7.11938e-05
5.22934e-05
-7.39233e-05
7.11062e-05
-7.5097e-05
8.99208e-05
-7.50964e-05
0.000108731
-7.50734e-05
0.000127272
-7.39899e-05
0.000145151
-7.13408e-05
0.000162228
-6.81488e-05
0.00017822
-6.38176e-05
0.000192913
-5.86524e-05
0.000206083
-5.25625e-05
0.000217439
-4.52937e-05
0.000226756
-3.71813e-05
0.000233909
-2.8547e-05
0.000238749
-1.9331e-05
0.00024126
-1.00296e-05
0.000241294
-3.20912e-07
0.000238874
9.49301e-06
0.000234115
1.90559e-05
0.00022703
2.81904e-05
0.000217932
3.63287e-05
0.000206866
4.41634e-05
0.00019397
5.14426e-05
0.000179618
5.72726e-05
0.000163987
6.23863e-05
0.000147257
6.67764e-05
0.000129743
6.99154e-05
0.000111698
7.20217e-05
9.33089e-05
7.34948e-05
7.47686e-05
7.40594e-05
5.6265e-05
7.39554e-05
3.80623e-05
7.26587e-05
2.03128e-05
7.08786e-05
3.14823e-06
6.85454e-05
-1.35179e-05
6.66678e-05
-2.94329e-05
6.36335e-05
-4.45214e-05
6.03079e-05
-5.87703e-05
5.69806e-05
-7.21156e-05
5.3342e-05
-8.45489e-05
4.97475e-05
-9.60805e-05
4.61204e-05
-0.000106691
4.24148e-05
-0.00011639
3.87884e-05
-0.000125209
3.52832e-05
-0.000133156
3.17506e-05
-0.000140226
2.83119e-05
-0.000146467
2.49483e-05
-0.000151883
2.16813e-05
-0.000156521
1.85418e-05
-0.000160362
1.53723e-05
-0.000163415
1.22105e-05
-0.000165749
9.33896e-06
-0.000167328
6.33355e-06
-0.000168119
3.20782e-06
-0.000168181
3.99309e-07
-0.000167393
-3.25685e-06
-0.000165893
-6.07452e-06
-0.000163619
-9.07306e-06
-0.00016053
-1.23823e-05
-0.000156637
-1.55309e-05
-0.000152019
-1.8473e-05
-0.000146453
-2.221e-05
-0.000140088
-2.54944e-05
-0.000132887
-2.89127e-05
-0.000124715
-3.26955e-05
-0.000115789
-3.57151e-05
-0.0001059
-3.95797e-05
-9.51641e-05
-4.28488e-05
-8.36347e-05
-4.60847e-05
-7.11955e-05
-4.97089e-05
-5.79888e-05
-5.28233e-05
-4.39216e-05
-5.62278e-05
-2.91067e-05
-5.92248e-05
-1.37537e-05
-6.14623e-05
2.29414e-06
-6.41278e-05
1.88815e-05
-6.63094e-05
3.58598e-05
-6.7847e-05
5.3304e-05
-6.96803e-05
7.08805e-05
-7.03059e-05
8.86087e-05
-7.07024e-05
0.000106232
-7.0458e-05
0.000123654
-6.951e-05
0.000140785
-6.84434e-05
0.000157283
-6.5905e-05
0.000172971
-6.25666e-05
0.000187596
-5.81909e-05
0.000200717
-5.25291e-05
0.000212226
-4.59367e-05
0.000221842
-3.84985e-05
0.00022937
-3.00251e-05
0.000234677
-2.12088e-05
0.00023764
-1.1951e-05
0.000238206
-2.33732e-06
0.000236363
7.16407e-06
0.000232154
1.67622e-05
0.000225641
2.60677e-05
0.000216848
3.49657e-05
0.00020599
4.33332e-05
0.000193127
5.12709e-05
0.000178528