/*--------------------------------*- C++ -*----------------------------------*\
| =========                 |                                                 |
| \\      /  F ield         | OpenFOAM: The Open Source CFD Toolbox           |
|  \\    /   O peration     | Version:  3.0.1                                 |
|   \\  /    A nd           | Web:      www.OpenFOAM.org                      |
|    \\/     M anipulation  |                                                 |
\*---------------------------------------------------------------------------*/
FoamFile
{
    version     2.0;
    format      ascii;
    class       volScalarField;
    location    "90.8";
    object      p_rgh;
}
// * * * * * * * * * * * * * * * * * * * * * * * * * * * * * * * * * * * * * //

dimensions      [1 -1 -2 0 0 0 0];

internalField   nonuniform List<scalar> 
21420
(
358.833
375.762
389.004
398.421
403.921
405.193
401.836
394.336
382.896
367.529
348.466
325.987
300.447
272.173
241.592
209.083
175.092
140.08
104.487
68.7661
33.3887
-1.14978
-33.5558
-65.6722
-96.776
-126.477
-154.551
-180.852
-205.307
-227.879
-248.554
-267.349
-284.294
-299.431
-312.806
-324.472
-334.479
-342.879
-349.714
-355.022
-358.836
-361.182
-362.034
-361.392
-359.264
-355.614
-350.408
-343.631
-335.223
-325.145
-313.362
-299.826
-284.494
-267.343
-248.328
-227.466
-204.778
-180.275
-154.036
-126.161
-96.7587
-66.0015
-34.0815
-1.21366
32.3524
66.3088
100.353
134.134
167.301
199.474
230.271
259.324
286.276
310.773
332.49
351.114
366.379
378.06
385.964
389.931
389.808
385.713
377.552
365.423
349.512
330.027
307.24
281.463
253.038
222.339
189.763
155.718
120.625
84.9104
48.9921
13.2787
-21.8399
-56.0032
-88.8951
-120.236
-149.801
-177.416
-202.96
-226.361
-247.591
-266.659
-283.602
-298.475
-311.35
-322.303
-331.409
-338.748
-344.393
-348.411
-350.87
-351.827
-351.309
-349.345
-346.014
-341.311
-335.255
-327.853
-319.109
-309.022
-297.577
-284.767
-270.569
-254.952
-237.887
-219.351
-199.309
-177.738
-154.628
-129.985
-103.836
-76.2419
-47.2961
-17.129
14.0962
46.1512
78.7453
111.59
144.345
176.642
208.084
238.258
266.741
293.112
316.957
337.885
355.534
369.584
379.765
385.871
387.708
385.289
378.562
367.649
352.663
333.862
311.545
286.075
257.866
227.37
195.065
161.437
126.969
92.1327
57.3683
23.0791
-10.3736
-42.689
-73.6104
-102.939
-130.528
-156.278
-180.133
-202.073
-222.104
-240.257
-256.577
-271.122
-283.954
-295.141
-304.75
-312.837
-319.461
-324.673
-328.514
-331.026
-332.253
-332.197
-330.856
-328.3
-324.502
-319.457
-313.15
-305.559
-296.655
-286.4
-274.758
-261.68
-247.123
-231.047
-213.415
-194.205
-173.41
-151.033
-127.101
-101.669
-74.8086
-46.6265
-17.2634
13.1118
44.2999
76.0861
108.095
140.054
171.624
202.433
232.084
260.163
286.253
309.935
330.812
348.512
362.702
373.104
379.502
381.705
379.716
373.483
363.131
348.779
330.68
309.133
284.497
257.183
227.633
196.315
163.704
130.274
96.4778
62.7418
29.4578
-3.03094
-34.424
-64.4728
-92.9779
-119.787
-144.8
-167.957
-189.234
-208.641
-226.211
-241.994
-256.052
-268.452
-279.266
-288.562
-296.406
-302.859
-307.98
-311.82
-314.417
-315.825
-316.037
-315.048
-312.905
-309.591
-305.103
-299.426
-292.552
-284.463
-275.137
-264.543
-252.648
-239.412
-224.793
-208.749
-191.229
-172.21
-151.677
-129.602
-105.977
-80.841
-54.247
-26.2873
2.8631
32.9247
62.3869
93.5708
125.26
156.94
188.134
218.399
247.24
274.165
298.72
320.459
338.99
353.965
365.098
372.19
375.097
373.571
367.808
357.975
344.26
326.962
306.418
283.034
257.223
229.418
200.095
169.699
138.667
107.403
76.2756
45.5996
15.9767
-12.5206
-40.3162
-67.066
-92.6167
-116.891
-139.839
-161.444
-181.707
-200.631
-218.225
-234.5
-249.454
-263.08
-275.367
-286.29
-295.822
-303.925
-310.561
-315.692
-319.291
-321.325
-321.741
-320.135
-316.806
-311.743
-304.972
-296.464
-286.232
-274.296
-260.654
-245.348
-228.409
-209.906
-189.92
-168.528
-145.822
358.95
375.893
389.147
398.573
404.079
405.371
401.998
394.495
383.045
367.667
348.589
326.094
300.536
272.243
241.642
209.114
175.104
140.074
104.464
68.7257
33.3315
-1.22431
-33.6126
-65.7413
-96.8545
-126.561
-154.638
-180.939
-205.393
-227.964
-248.637
-267.429
-284.371
-299.504
-312.877
-324.54
-334.545
-342.942
-349.775
-355.082
-358.894
-361.239
-362.091
-361.45
-359.324
-355.675
-350.47
-343.695
-335.29
-325.214
-313.433
-299.9
-284.57
-267.421
-248.408
-227.547
-204.859
-180.357
-154.116
-126.238
-96.8315
-66.0691
-34.142
-1.26544
32.3106
66.2786
100.336
134.131
167.313
199.503
230.315
259.386
286.354
310.866
332.599
351.236
366.513
378.204
386.115
390.087
389.974
385.863
377.7
365.565
349.643
330.144
307.341
281.547
253.103
222.386
189.791
155.726
120.616
84.8835
48.9492
13.2213
-21.91
-56.0841
-88.9846
-120.332
-149.902
-177.519
-203.063
-226.463
-247.691
-266.756
-283.695
-298.565
-311.436
-322.385
-331.487
-338.823
-344.465
-348.481
-350.938
-351.893
-351.371
-349.408
-346.076
-341.372
-335.317
-327.915
-319.172
-309.085
-297.642
-284.833
-270.637
-255.022
-237.96
-219.426
-199.386
-177.817
-154.708
-130.065
-103.916
-76.3197
-47.3705
-17.1981
14.0336
46.0983
78.7035
111.561
144.331
176.644
208.103
238.295
266.798
293.187
317.051
337.997
355.662
369.725
379.917
386.03
387.876
385.448
378.718
367.797
352.8
333.984
311.649
286.159
257.93
227.412
195.086
161.437
126.951
92.0971
57.3177
23.0158
-10.4474
-42.7708
-73.6979
-103.03
-130.621
-156.371
-180.225
-202.163
-222.191
-240.341
-256.658
-271.199
-284.027
-295.212
-304.817
-312.902
-319.523
-324.733
-328.573
-331.084
-332.31
-332.251
-330.912
-328.356
-324.558
-319.514
-313.208
-305.618
-296.716
-286.464
-274.824
-261.748
-247.194
-231.12
-213.49
-194.281
-173.487
-151.111
-127.179
-101.745
-74.8826
-46.6968
-17.3286
13.0532
44.2484
76.0468
108.067
140.039
171.624
202.45
232.119
260.217
286.325
310.027
330.921
348.637
362.841
373.254
379.659
381.871
379.873
373.638
363.278
348.915
330.8
309.236
284.581
257.246
227.676
196.336
163.706
130.258
96.4445
62.6937
29.3972
-3.1018
-34.5029
-64.5575
-93.0664
-119.878
-144.891
-168.047
-189.322
-208.726
-226.293
-242.073
-256.127
-268.523
-279.334
-288.627
-296.467
-302.918
-308.036
-311.874
-314.47
-315.876
-316.086
-315.098
-312.955
-309.641
-305.153
-299.477
-292.604
-284.517
-275.192
-264.6
-252.707
-239.473
-224.857
-208.815
-191.299
-172.282
-151.752
-129.678
-106.054
-80.9177
-54.3218
-26.3578
2.79981
32.8716
62.3299
93.5279
125.233
156.931
188.144
218.43
247.292
274.238
298.814
320.573
339.12
354.109
365.253
372.353
375.27
373.731
367.962
358.12
344.394
327.079
306.518
283.114
257.283
229.459
200.116
169.702
138.654
107.377
76.2372
45.5519
15.9248
-12.5791
-40.3779
-67.1298
-92.6814
-116.956
-139.903
-161.506
-181.768
-200.69
-218.283
-234.558
-249.51
-263.137
-275.424
-286.347
-295.88
-303.984
-310.621
-315.754
-319.353
-321.389
-321.805
-320.202
-316.873
-311.81
-305.039
-296.532
-286.301
-274.364
-260.723
-245.417
-228.477
-209.973
-189.986
-168.592
-145.883
359.184
376.155
389.433
398.877
404.395
405.729
402.318
394.814
383.344
367.942
348.836
326.308
300.713
272.383
241.743
209.176
175.128
140.062
104.417
68.645
33.2173
-1.37377
-33.726
-65.8795
-97.0117
-126.729
-154.81
-181.113
-205.566
-228.133
-248.802
-267.588
-284.525
-299.652
-313.019
-324.676
-334.675
-343.068
-349.897
-355.201
-359.011
-361.353
-362.204
-361.567
-359.445
-355.796
-350.595
-343.823
-335.422
-325.351
-313.575
-300.047
-284.721
-267.577
-248.567
-227.708
-205.021
-180.518
-154.274
-126.391
-96.9755
-66.2024
-34.2611
-1.36698
32.2291
66.2202
100.304
134.127
167.34
199.561
230.407
259.511
286.511
311.056
332.818
351.483
366.785
378.495
386.42
390.402
390.306
386.168
378.002
365.853
349.909
330.383
307.55
281.722
253.242
222.487
189.854
155.752
120.606
84.8393
48.8732
13.1167
-22.0396
-56.2349
-89.1524
-120.513
-150.091
-177.713
-203.258
-226.655
-247.879
-266.937
-283.869
-298.731
-311.594
-322.535
-331.63
-338.959
-344.595
-348.606
-351.058
-352.009
-351.48
-349.519
-346.185
-341.48
-335.423
-328.022
-319.28
-309.195
-297.754
-284.948
-270.755
-255.144
-238.087
-219.557
-199.521
-177.956
-154.849
-130.208
-104.058
-76.4577
-47.5019
-17.319
13.9255
46.009
78.6362
111.519
144.318
176.662
208.157
238.385
266.925
293.352
317.253
338.233
355.929
370.019
380.232
386.359
388.225
385.774
379.042
368.105
353.085
334.238
311.868
286.338
258.067
227.507
195.138
161.448
126.924
92.0362
57.2265
22.8994
-10.5845
-42.9239
-73.8623
-103.201
-130.796
-156.547
-180.398
-202.332
-222.354
-240.498
-256.808
-271.342
-284.163
-295.341
-304.94
-313.019
-319.636
-324.842
-328.678
-331.187
-332.41
-332.346
-331.011
-328.454
-324.656
-319.614
-313.309
-305.723
-296.824
-286.576
-274.941
-261.87
-247.32
-231.251
-213.625
-194.419
-173.627
-151.252
-127.319
-101.883
-75.016
-46.8232
-17.4449
12.9497
44.1592
75.9816
108.024
140.022
171.638
202.497
232.201
260.336
286.482
310.221
331.151
348.898
363.129
373.564
379.984
382.214
380.195
373.958
363.581
349.195
331.051
309.451
284.758
257.382
227.77
196.389
163.719
130.234
96.3871
62.6068
29.2854
-3.23384
-34.6509
-64.717
-93.2333
-120.049
-145.062
-168.217
-189.488
-208.886
-226.447
-242.22
-256.267
-268.656
-279.459
-288.746
-296.58
-303.025
-308.139
-311.973
-314.567
-315.97
-316.175
-315.191
-313.046
-309.733
-305.245
-299.572
-292.7
-284.616
-275.294
-264.706
-252.818
-239.589
-224.98
-208.943
-191.433
-172.421
-151.896
-129.826
-106.204
-81.0677
-54.4682
-26.496
2.67586
32.7675
62.2185
93.4442
125.182
156.916
188.167
218.494
247.398
274.387
299.004
320.801
339.383
354.4
365.565
372.679
375.617
374.05
368.272
358.411
344.661
327.314
306.717
283.274
257.404
229.539
200.159
169.709
138.629
107.323
76.1603
45.4564
15.8209
-12.6961
-40.5014
-67.2573
-92.8106
-117.085
-140.03
-161.631
-181.89
-200.809
-218.4
-234.672
-249.624
-263.25
-275.537
-286.462
-295.996
-304.102
-310.741
-315.876
-319.478
-321.517
-321.933
-320.334
-317.005
-311.943
-305.174
-296.668
-286.437
-274.501
-260.86
-245.553
-228.612
-210.106
-190.116
-168.719
-146.005
359.535
376.549
389.862
399.334
404.867
406.251
402.807
395.295
383.792
368.355
349.205
326.628
300.979
272.592
241.894
209.269
175.164
140.043
104.346
68.5237
33.0458
-1.59858
-33.8957
-66.0873
-97.2478
-126.981
-155.069
-181.374
-205.825
-228.387
-249.049
-267.827
-284.755
-299.873
-313.231
-324.879
-334.871
-343.257
-350.081
-355.38
-359.186
-361.525
-362.374
-361.745
-359.625
-355.977
-350.781
-344.015
-335.621
-325.557
-313.789
-300.267
-284.949
-267.811
-248.805
-227.95
-205.264
-180.759
-154.511
-126.619
-97.1918
-66.4026
-34.44
-1.51958
32.1066
66.1323
100.255
134.121
167.38
199.649
230.544
259.698
286.748
311.34
333.148
351.855
367.192
378.932
386.879
390.875
390.799
386.633
378.456
366.285
350.31
330.743
307.864
281.986
253.451
222.641
189.951
155.793
120.592
84.7747
48.761
12.9615
-22.2322
-56.4594
-89.4023
-120.782
-150.372
-178.001
-203.547
-226.942
-248.158
-267.207
-284.128
-298.978
-311.829
-322.758
-331.842
-339.16
-344.787
-348.791
-351.236
-352.181
-351.643
-349.683
-346.345
-341.639
-335.582
-328.181
-319.441
-309.357
-297.921
-285.119
-270.931
-255.326
-238.276
-219.752
-199.723
-178.163
-155.06
-130.42
-104.269
-76.6628
-47.6967
-17.4984
13.7657
45.8773
78.5374
111.458
144.3
176.693
208.239
238.522
267.118
293.602
317.558
338.591
356.334
370.464
380.708
386.855
388.745
386.273
379.533
368.57
353.515
334.622
312.198
286.609
258.275
227.65
195.218
161.467
126.886
91.9466
57.0917
22.7265
-10.7885
-43.1519
-74.1073
-103.457
-131.057
-156.808
-180.656
-202.583
-222.597
-240.731
-257.031
-271.554
-284.365
-295.533
-305.122
-313.193
-319.804
-325.004
-328.835
-331.34
-332.559
-332.488
-331.157
-328.599
-324.803
-319.762
-313.461
-305.879
-296.985
-286.744
-275.115
-262.051
-247.508
-231.445
-213.825
-194.624
-173.835
-151.461
-127.529
-102.089
-75.2146
-47.0115
-17.6177
12.7959
44.0271
75.885
107.961
139.999
171.66
202.569
232.326
260.517
286.72
310.514
331.497
349.292
363.565
374.031
380.472
382.725
380.686
374.441
364.039
349.618
331.428
309.776
285.025
257.588
227.913
196.47
163.741
130.2
96.3028
62.4784
29.1195
-3.43013
-34.871
-64.9545
-93.4819
-120.303
-145.318
-168.47
-189.735
-209.125
-226.677
-242.438
-256.475
-268.853
-279.646
-288.922
-296.748
-303.185
-308.292
-312.12
-314.711
-316.11
-316.308
-315.329
-313.183
-309.87
-305.384
-299.713
-292.845
-284.765
-275.448
-264.867
-252.985
-239.764
-225.164
-209.136
-191.634
-172.631
-152.113
-130.049
-106.43
-81.293
-54.6882
-26.7037
2.48943
32.611
62.0508
93.3183
125.105
156.893
188.201
218.589
247.558
274.609
299.288
321.143
339.776
354.836
366.033
373.168
376.125
374.539
368.741
358.849
345.061
327.667
307.015
283.514
257.584
229.66
200.222
169.719
138.591
107.242
76.0447
45.3132
15.6646
-12.8717
-40.6867
-67.4488
-93.0047
-117.278
-140.221
-161.818
-182.072
-200.987
-218.574
-234.844
-249.794
-263.419
-275.707
-286.633
-296.17
-304.279
-310.921
-316.06
-319.664
-321.707
-322.126
-320.532
-317.203
-312.143
-305.376
-296.871
-286.642
-274.707
-261.066
-245.759
-228.816
-210.307
-190.312
-168.909
-146.187
360.003
377.073
390.435
399.943
405.498
406.919
403.47
395.937
384.39
368.906
349.698
327.055
301.334
272.872
242.094
209.393
175.212
140.018
104.252
68.3618
32.8171
-1.89929
-34.1213
-66.3653
-97.5635
-127.317
-155.415
-181.722
-206.17
-228.726
-249.379
-268.147
-285.063
-300.168
-313.514
-325.151
-335.133
-343.509
-350.325
-355.618
-359.42
-361.754
-362.603
-361.981
-359.863
-356.219
-351.03
-344.272
-335.887
-325.832
-314.073
-300.562
-285.252
-268.122
-249.124
-228.273
-205.588
-181.082
-154.827
-126.925
-97.4807
-66.6699
-34.6788
-1.7235
31.9428
66.0147
100.189
134.113
167.433
199.766
230.727
259.948
287.064
311.719
333.587
352.35
367.735
379.515
387.49
391.505
391.448
387.262
379.063
366.863
350.844
331.223
308.284
282.338
253.73
222.846
190.08
155.847
120.575
84.6886
48.6113
12.7545
-22.4891
-56.7588
-89.7356
-121.141
-150.748
-178.385
-203.933
-227.323
-248.53
-267.567
-284.473
-299.307
-312.142
-323.055
-332.124
-339.429
-345.044
-349.036
-351.472
-352.407
-351.863
-349.902
-346.559
-341.851
-335.793
-328.392
-319.654
-309.574
-298.143
-285.346
-271.164
-255.568
-238.527
-220.011
-199.991
-178.439
-155.341
-130.703
-104.549
-76.9363
-47.9562
-17.7383
13.553
45.702
78.4057
111.377
144.277
176.734
208.349
238.705
267.377
293.936
317.966
339.069
356.875
371.058
381.343
387.518
389.426
386.949
380.192
369.192
354.089
335.136
312.639
286.971
258.553
227.842
195.325
161.493
126.835
91.8272
56.9118
22.4959
-11.0606
-43.4559
-74.4342
-103.798
-131.405
-157.156
-181
-202.919
-222.922
-241.042
-257.328
-271.838
-284.635
-295.788
-305.366
-313.426
-320.027
-325.219
-329.044
-331.544
-332.756
-332.68
-331.352
-328.792
-324.997
-319.959
-313.662
-306.086
-297.199
-286.966
-275.346
-262.292
-247.758
-231.704
-214.092
-194.898
-174.113
-151.741
-127.809
-102.364
-75.4798
-47.2627
-17.8485
12.5903
43.8509
75.7564
107.876
139.968
171.689
202.664
232.493
260.758
287.036
310.905
331.959
349.819
364.146
374.656
381.125
383.394
381.352
375.09
364.652
350.183
331.933
310.211
285.382
257.863
228.104
196.579
163.77
130.155
96.1905
62.3073
28.8984
-3.69179
-35.1644
-65.2709
-93.8131
-120.643
-145.659
-168.806
-190.064
-209.444
-226.982
-242.73
-256.751
-269.115
-279.894
-289.158
-296.971
-303.398
-308.496
-312.316
-314.902
-316.295
-316.488
-315.512
-313.364
-310.053
-305.569
-299.901
-293.038
-284.963
-275.654
-265.08
-253.208
-239.998
-225.409
-209.393
-191.902
-172.911
-152.402
-130.345
-106.731
-81.5939
-54.9821
-26.9814
2.24014
32.4019
61.8264
93.1499
125.002
156.861
188.247
218.716
247.77
274.906
299.668
321.599
340.301
355.417
366.657
373.819
376.787
375.199
369.372
359.435
345.596
328.138
307.413
283.834
257.824
229.821
200.307
169.732
138.54
107.133
75.8899
45.1221
15.4558
-13.1062
-40.934
-67.7043
-93.2637
-117.537
-140.476
-162.067
-182.316
-201.225
-218.807
-235.073
-250.021
-263.646
-275.934
-286.862
-296.402
-304.514
-311.161
-316.304
-319.912
-321.957
-322.386
-320.796
-317.467
-312.41
-305.646
-297.143
-286.915
-274.981
-261.34
-246.032
-229.087
-210.574
-190.574
-169.164
-146.431
360.589
377.73
391.151
400.706
406.291
407.738
404.298
396.736
385.137
369.594
350.315
327.59
301.777
273.221
242.345
209.547
175.27
139.986
104.134
68.1592
32.531
-2.27669
-34.4021
-66.7143
-97.9595
-127.738
-155.848
-182.158
-206.602
-229.15
-249.792
-268.546
-285.447
-300.537
-313.868
-325.491
-335.459
-343.824
-350.631
-355.916
-359.712
-362.04
-362.89
-362.275
-360.16
-356.521
-351.341
-344.592
-336.218
-326.175
-314.429
-300.929
-285.632
-268.512
-249.522
-228.676
-205.994
-181.485
-155.223
-127.307
-97.8424
-67.0047
-34.9778
-1.97909
31.7374
65.8672
100.107
134.102
167.499
199.912
230.956
260.26
287.458
312.193
334.137
352.969
368.415
380.244
388.256
392.294
392.25
388.055
379.825
367.586
351.513
331.824
308.809
282.778
254.079
223.102
190.241
155.915
120.552
84.5802
48.4235
12.495
-22.8109
-57.1338
-90.1531
-121.59
-151.218
-178.866
-204.416
-227.8
-248.996
-268.016
-284.904
-299.719
-312.533
-323.426
-332.477
-339.765
-345.364
-349.344
-351.767
-352.69
-352.141
-350.174
-346.826
-342.116
-336.056
-328.657
-319.921
-309.845
-298.42
-285.631
-271.457
-255.87
-238.841
-220.336
-200.326
-178.784
-155.693
-131.058
-104.901
-77.2791
-48.2816
-18.0392
13.2864
45.4825
78.2403
111.275
144.248
176.784
208.486
238.934
267.7
294.354
318.477
339.666
357.551
371.801
382.139
388.348
390.271
387.801
381.018
369.971
354.808
335.778
313.192
287.425
258.9
228.082
195.458
161.524
126.772
91.6771
56.6859
22.2068
-11.4018
-43.8369
-74.8437
-104.225
-131.84
-157.592
-181.43
-203.338
-223.327
-241.432
-257.7
-272.192
-284.971
-296.108
-305.67
-313.717
-320.307
-325.488
-329.305
-331.798
-333.002
-332.923
-331.594
-329.034
-325.241
-320.206
-313.915
-306.345
-297.468
-287.245
-275.636
-262.594
-248.072
-232.029
-214.427
-195.242
-174.461
-152.092
-128.159
-102.707
-75.8123
-47.5774
-18.138
12.3321
43.6294
75.5953
107.77
139.928
171.724
202.783
232.7
261.059
287.432
311.395
332.537
350.478
364.874
375.437
381.942
384.227
382.19
375.902
365.419
350.89
332.565
310.755
285.829
258.207
228.343
196.714
163.806
130.098
96.0493
62.0928
28.6214
-4.01959
-35.5316
-65.6671
-94.2279
-121.067
-146.085
-169.228
-190.475
-209.841
-227.364
-243.094
-257.098
-269.444
-280.205
-289.452
-297.25
-303.665
-308.751
-312.561
-315.14
-316.526
-316.715
-315.739
-313.592
-310.282
-305.8
-300.137
-293.279
-285.211
-275.911
-265.347
-253.487
-240.29
-225.716
-209.714
-192.238
-173.261
-152.764
-130.716
-107.107
-81.9706
-55.3502
-27.3296
1.92745
32.1404
61.5441
92.9385
124.873
156.822
188.303
218.874
248.035
275.276
300.142
322.17
340.958
356.145
367.438
374.635
377.613
376.022
370.163
360.169
346.265
328.727
307.911
284.233
258.124
230.022
200.412
169.748
138.475
106.997
75.6954
44.883
15.1938
-13.3999
-41.2436
-68.0241
-93.5877
-117.86
-140.795
-162.379
-182.62
-201.522
-219.098
-235.36
-250.305
-263.928
-276.218
-287.149
-296.692
-304.809
-311.461
-316.609
-320.222
-322.268
-322.71
-321.123
-317.797
-312.744
-305.982
-297.483
-287.257
-275.324
-261.684
-246.374
-229.426
-210.908
-190.901
-169.481
-146.736
361.292
378.517
392.011
401.622
407.245
408.718
405.284
397.69
386.034
370.422
351.056
328.232
302.31
273.64
242.645
209.732
175.34
139.948
103.992
67.9161
32.1868
-2.73158
-34.7374
-67.1353
-98.4366
-128.245
-156.369
-182.682
-207.122
-229.66
-250.288
-269.025
-285.908
-300.98
-314.293
-325.898
-335.851
-344.202
-350.997
-356.274
-360.062
-362.385
-363.236
-362.626
-360.516
-356.884
-351.714
-344.977
-336.616
-326.587
-314.856
-301.371
-286.088
-268.979
-250
-229.161
-206.481
-181.97
-155.698
-127.766
-98.2774
-67.4073
-35.3373
-2.28675
31.4902
65.6894
100.008
134.089
167.578
200.087
231.229
260.634
287.931
312.762
334.796
353.712
369.232
381.12
389.176
393.242
393.209
389.01
380.742
368.455
352.316
332.547
309.44
283.306
254.498
223.408
190.433
155.995
120.524
84.449
48.197
12.1823
-23.1986
-57.5853
-90.6556
-122.13
-151.783
-179.445
-204.997
-228.374
-249.556
-268.557
-285.422
-300.213
-313.003
-323.872
-332.901
-340.168
-345.749
-349.712
-352.122
-353.03
-352.474
-350.5
-347.147
-342.434
-336.373
-328.975
-320.242
-310.171
-298.752
-285.972
-271.808
-256.234
-239.217
-220.726
-200.729
-179.198
-156.116
-131.484
-105.324
-77.6913
-48.6733
-18.4014
12.9645
45.2183
78.0404
111.152
144.211
176.844
208.649
239.207
268.087
294.856
319.09
340.384
358.363
372.694
383.095
389.346
391.288
388.822
382.009
370.908
355.673
336.55
313.855
287.968
259.317
228.37
195.617
161.56
126.694
91.4953
56.4132
21.8585
-11.8126
-44.2957
-75.3364
-104.739
-132.364
-158.116
-181.947
-203.843
-223.815
-241.9
-258.147
-272.618
-285.376
-296.492
-306.036
-314.066
-320.642
-325.812
-329.618
-332.102
-333.297
-333.215
-331.885
-329.324
-325.533
-320.503
-314.218
-306.657
-297.79
-287.58
-275.984
-262.956
-248.449
-232.419
-214.829
-195.654
-174.88
-152.514
-128.579
-103.121
-76.2124
-47.956
-18.4866
12.0212
43.3615
75.4015
107.64
139.878
171.766
202.924
232.949
261.42
287.907
311.982
333.232
351.269
365.748
376.376
382.924
385.229
383.195
376.878
366.341
351.74
333.325
311.408
286.366
258.62
228.63
196.876
163.848
130.028
95.8789
61.8342
28.2878
-4.41409
-35.9735
-66.1433
-94.7266
-121.577
-146.598
-169.734
-190.97
-210.319
-227.823
-243.531
-257.513
-269.837
-280.578
-289.805
-297.585
-303.984
-309.057
-312.855
-315.426
-316.803
-316.988
-316.012
-313.864
-310.556
-306.077
-300.42
-293.569
-285.509
-276.219
-265.667
-253.822
-240.641
-226.084
-210.099
-192.641
-173.681
-153.199
-131.162
-107.56
-82.4235
-55.7931
-27.749
1.55067
31.8264
61.2028
92.6838
124.718
156.773
188.369
219.063
248.352
275.721
300.711
322.855
341.746
357.019
368.377
375.614
378.606
377.007
371.113
361.052
347.069
329.434
308.508
284.713
258.483
230.262
200.537
169.766
138.396
106.833
75.4605
44.5959
14.8777
-13.753
-41.6157
-68.4085
-93.9771
-118.248
-141.177
-162.754
-182.986
-201.879
-219.447
-235.703
-250.645
-264.267
-276.558
-287.492
-297.04
-305.163
-311.82
-316.975
-320.593
-322.644
-323.095
-321.515
-318.193
-313.144
-306.387
-297.89
-287.667
-275.736
-262.096
-246.785
-229.833
-211.309
-191.294
-169.863
-147.102
362.113
379.437
393.015
402.692
408.36
409.86
406.432
398.802
387.082
371.387
351.921
328.981
302.932
274.128
242.994
209.946
175.421
139.902
103.825
67.6327
31.7851
-3.26627
-35.1262
-67.6297
-98.996
-128.838
-156.977
-183.293
-207.728
-230.254
-250.866
-269.584
-286.447
-301.497
-314.788
-326.374
-336.308
-344.643
-351.425
-356.69
-360.471
-362.788
-363.64
-363.034
-360.931
-357.307
-352.149
-345.425
-337.081
-327.068
-315.355
-301.886
-286.62
-269.524
-250.558
-229.727
-207.05
-182.536
-156.254
-128.303
-98.786
-67.878
-35.7578
-2.64698
31.2004
65.4808
99.8907
134.072
167.668
200.29
231.548
261.071
288.484
313.425
335.565
354.579
370.185
382.144
390.25
394.349
394.33
390.122
381.814
369.469
353.253
333.39
310.176
283.921
254.987
223.765
190.657
156.088
120.489
84.2944
47.9308
11.8156
-23.6527
-58.1139
-91.244
-122.763
-152.445
-180.122
-205.676
-229.044
-250.21
-269.188
-286.027
-300.79
-313.552
-324.393
-333.395
-340.639
-346.198
-350.143
-352.535
-353.428
-352.861
-350.88
-347.522
-342.805
-336.743
-329.346
-320.616
-310.551
-299.141
-286.37
-272.219
-256.658
-239.657
-221.182
-201.2
-179.683
-156.61
-131.982
-105.818
-78.1734
-49.1322
-18.8253
12.5866
44.9085
77.8055
111.006
144.167
176.912
208.839
239.525
268.538
295.44
319.804
341.222
359.312
373.737
384.212
390.513
392.478
390.014
383.167
372.004
356.683
337.451
314.63
288.603
259.803
228.704
195.802
161.601
126.601
91.2811
56.0932
21.4499
-12.294
-44.833
-75.9132
-105.341
-132.977
-158.729
-182.552
-204.432
-224.384
-242.446
-258.669
-273.115
-285.848
-296.941
-306.463
-314.474
-321.033
-326.189
-329.984
-332.457
-333.642
-333.557
-332.224
-329.663
-325.875
-320.85
-314.572
-307.021
-298.167
-287.971
-276.391
-263.38
-248.889
-232.875
-215.299
-196.135
-175.369
-153.007
-129.071
-103.605
-76.6807
-48.3991
-18.8951
11.6577
43.0462
75.1744
107.487
139.819
171.812
203.087
233.238
261.84
288.461
312.668
334.042
352.193
366.769
377.473
384.072
386.401
384.369
378.017
367.418
352.733
334.211
312.17
286.991
259.101
228.963
197.063
163.895
129.945
95.6785
61.5307
27.8968
-4.8759
-36.4906
-66.7004
-95.3096
-122.174
-147.196
-170.325
-191.547
-210.877
-228.358
-244.042
-257.998
-270.297
-281.013
-290.217
-297.976
-304.356
-309.414
-313.199
-315.758
-317.126
-317.308
-316.329
-314.182
-310.875
-306.401
-300.749
-293.907
-285.856
-276.579
-266.041
-254.212
-241.05
-226.513
-210.548
-193.112
-174.172
-153.707
-131.683
-108.089
-82.9529
-56.3115
-28.2404
1.10889
31.4601
60.8013
92.3855
124.535
156.716
188.445
219.282
248.721
276.24
301.376
323.656
342.667
358.041
369.473
376.759
379.767
378.158
372.221
362.084
348.007
330.259
309.206
285.273
258.902
230.541
200.681
169.785
138.302
106.639
75.1843
44.2605
14.5067
-14.1657
-42.0504
-68.8578
-94.4321
-118.701
-141.624
-163.191
-183.412
-202.295
-219.855
-236.104
-251.042
-264.663
-276.955
-287.893
-297.446
-305.576
-312.24
-317.402
-321.026
-323.082
-323.543
-321.971
-318.655
-313.612
-306.858
-298.366
-288.146
-276.216
-262.577
-247.264
-230.309
-211.778
-191.753
-170.309
-147.529
363.052
380.489
394.164
403.917
409.638
411.166
407.741
400.07
388.28
372.492
352.91
329.837
303.643
274.686
243.393
210.191
175.511
139.849
103.634
67.3091
31.3263
-3.88313
-35.5675
-68.1994
-99.6388
-129.519
-157.674
-183.994
-208.422
-230.935
-251.528
-270.224
-287.062
-302.087
-315.354
-326.917
-336.83
-345.147
-351.913
-357.166
-360.938
-363.249
-364.101
-363.501
-361.404
-357.791
-352.645
-345.937
-337.611
-327.617
-315.925
-302.474
-287.228
-270.148
-251.196
-230.375
-207.702
-183.184
-156.89
-128.917
-99.3687
-68.4172
-36.24
-3.06035
30.8678
65.2411
99.7557
134.052
167.77
200.521
231.911
261.569
289.115
314.184
336.444
355.57
371.275
383.315
391.481
395.616
395.612
391.395
383.041
370.63
354.325
334.356
311.017
284.624
255.546
224.172
190.911
156.192
120.448
84.1155
47.6244
11.3943
-24.1742
-58.7208
-91.9189
-123.488
-153.203
-180.897
-206.454
-229.812
-250.958
-269.91
-286.719
-301.449
-314.179
-324.989
-333.961
-341.177
-346.712
-350.634
-353.008
-353.884
-353.305
-351.315
-347.95
-343.229
-337.167
-329.771
-321.045
-310.986
-299.584
-286.826
-272.688
-257.144
-240.161
-221.704
-201.74
-180.238
-157.176
-132.553
-106.386
-78.726
-49.6589
-19.3116
12.152
44.5526
77.535
110.837
144.114
176.988
209.054
239.888
269.053
296.108
320.622
342.18
360.398
374.932
385.492
391.85
393.841
391.378
384.492
373.258
357.838
338.483
315.517
289.328
260.358
229.085
196.011
161.646
126.493
91.034
55.7247
20.9802
-12.8471
-45.4496
-76.5748
-106.03
-133.679
-159.431
-183.244
-205.107
-225.036
-243.072
-259.266
-273.683
-286.388
-297.454
-306.952
-314.941
-321.481
-326.621
-330.402
-332.863
-334.038
-333.947
-332.612
-330.05
-326.265
-321.246
-314.977
-307.438
-298.597
-288.418
-276.857
-263.864
-249.393
-233.397
-215.837
-196.686
-175.93
-153.572
-129.635
-104.16
-77.2176
-48.9075
-19.364
11.2411
42.6843
74.912
107.309
139.749
171.864
203.273
233.567
262.319
289.093
313.451
334.969
353.251
367.938
378.73
385.387
387.744
385.711
379.322
368.652
353.869
335.226
313.043
287.707
259.651
229.343
197.276
163.948
129.849
95.4475
61.1816
27.4477
-5.40586
-37.0837
-67.3392
-95.9776
-122.857
-147.882
-171.003
-192.208
-211.516
-228.97
-244.626
-258.552
-270.822
-281.51
-290.688
-298.423
-304.782
-309.822
-313.591
-316.138
-317.496
-317.673
-316.691
-314.546
-311.24
-306.771
-301.126
-294.293
-286.253
-276.989
-266.468
-254.657
-241.517
-227.004
-211.062
-193.65
-174.733
-154.288
-132.279
-108.694
-83.5594
-56.9059
-28.8047
0.601004
31.0419
60.3374
92.0431
124.325
156.649
188.53
219.532
249.141
276.833
302.137
324.571
343.72
359.21
370.729
378.069
381.097
379.476
373.487
363.266
349.082
331.204
310.003
285.913
259.38
230.859
200.845
169.806
138.193
106.415
74.8655
43.8764
14.0797
-14.6381
-42.5482
-69.3723
-94.953
-119.22
-142.135
-163.691
-183.899
-202.77
-220.32
-236.561
-251.495
-265.115
-277.409
-288.35
-297.91
-306.047
-312.72
-317.891
-321.521
-323.583
-324.053
-322.491
-319.183
-314.146
-307.397
-298.91
-288.693
-276.766
-263.127
-247.813
-230.852
-212.314
-192.277
-170.819
-148.018
364.108
381.673
395.458
405.298
411.077
412.636
409.212
401.498
389.628
373.736
354.025
330.802
304.444
275.313
243.842
210.464
175.611
139.788
103.418
66.9457
30.8113
-4.5841
-36.0611
-68.8468
-100.367
-130.287
-158.46
-184.783
-209.203
-231.701
-252.273
-270.944
-287.755
-302.752
-315.991
-327.527
-337.417
-345.713
-352.462
-357.702
-361.463
-363.768
-364.62
-364.025
-361.935
-358.335
-353.203
-346.513
-338.208
-328.235
-316.567
-303.136
-287.913
-270.851
-251.914
-231.104
-208.435
-183.914
-157.607
-129.609
-100.026
-69.0253
-36.7849
-3.5275
30.4916
64.9696
99.6021
134.028
167.883
200.78
232.319
262.128
289.824
315.038
337.433
356.685
372.502
384.634
392.868
397.044
397.056
392.827
384.425
371.939
355.533
335.444
311.964
285.415
256.174
224.629
191.197
156.308
120.4
83.9115
47.2772
10.9174
-24.7641
-59.4067
-92.6812
-124.307
-154.06
-181.772
-207.332
-230.678
-251.802
-270.724
-287.498
-302.192
-314.885
-325.659
-334.598
-341.783
-347.29
-351.188
-353.539
-354.397
-353.804
-351.804
-348.432
-343.707
-337.643
-330.248
-321.527
-311.475
-300.084
-287.338
-273.217
-257.69
-240.727
-222.291
-202.347
-180.863
-157.814
-133.197
-107.026
-79.3503
-50.2537
-19.8616
11.6593
44.1502
77.2279
110.645
144.053
177.072
209.295
240.294
269.631
296.859
321.541
343.259
361.62
376.277
386.934
393.357
395.38
392.915
385.986
374.673
359.141
339.646
316.515
290.144
260.982
229.513
196.245
161.694
126.368
90.7531
55.3065
20.4482
-13.4725
-46.1465
-77.3221
-106.809
-134.472
-160.224
-184.025
-205.868
-225.771
-243.776
-259.939
-274.323
-286.997
-298.032
-307.502
-315.466
-321.985
-327.107
-330.873
-333.32
-334.484
-334.387
-333.048
-330.486
-326.704
-321.692
-315.433
-307.906
-299.082
-288.922
-277.381
-264.41
-249.96
-233.985
-216.443
-197.307
-176.561
-154.209
-130.27
-104.786
-77.8237
-49.4819
-19.8938
10.7707
42.2972
74.5914
107.106
139.668
171.92
203.479
233.935
262.857
289.804
314.333