/*--------------------------------*- C++ -*----------------------------------*\
| =========                 |                                                 |
| \\      /  F ield         | OpenFOAM: The Open Source CFD Toolbox           |
|  \\    /   O peration     | Version:  3.0.1                                 |
|   \\  /    A nd           | Web:      www.OpenFOAM.org                      |
|    \\/     M anipulation  |                                                 |
\*---------------------------------------------------------------------------*/
FoamFile
{
    version     2.0;
    format      ascii;
    class       volScalarField;
    location    "33.4";
    object      p_rgh;
}
// * * * * * * * * * * * * * * * * * * * * * * * * * * * * * * * * * * * * * //

dimensions      [1 -1 -2 0 0 0 0];

internalField   nonuniform List<scalar> 
21420
(
-322.86
-308.924
-293.33
-276.047
-257.056
-236.321
-213.823
-189.588
-163.626
-135.972
-107.604
-76.9661
-44.991
-11.961
21.8883
56.2358
90.7281
125.02
158.678
191.244
222.309
251.417
278.117
302.041
322.827
340.15
353.737
363.362
368.88
370.107
367.161
359.95
348.642
333.386
314.429
292.053
266.623
238.508
208.102
175.87
142.254
107.699
72.6381
37.469
2.60578
-31.6281
-64.9104
-96.8459
-126.659
-155.488
-182.679
-208.088
-231.629
-253.267
-272.989
-290.809
-306.758
-320.885
-333.252
-343.923
-352.964
-360.435
-366.393
-370.889
-373.962
-375.638
-376.011
-375.111
-372.758
-368.92
-363.622
-356.875
-348.661
-338.948
-327.713
-314.948
-300.611
-284.7
-267.184
-248.032
-227.248
-204.831
-180.816
-155.239
-128.174
-99.7254
-69.9973
-39.7039
-9.02762
22.9105
55.5129
88.3782
121.052
153.111
184.138
213.714
241.418
266.846
289.618
309.372
325.774
338.542
347.45
352.335
353.008
349.594
342.006
330.366
314.823
295.613
273.021
247.377
219.074
188.538
156.22
122.588
88.1156
53.2693
18.4908
-15.8109
-49.2704
-81.5363
-112.397
-141.608
-169.01
-194.488
-217.975
-239.439
-258.883
-276.338
-291.856
-305.498
-317.343
-327.478
-335.986
-342.955
-348.466
-352.596
-355.411
-356.973
-357.343
-356.537
-354.565
-351.497
-347.305
-341.986
-335.525
-327.893
-319.045
-308.948
-297.549
-284.787
-270.606
-254.954
-237.777
-219.035
-198.699
-176.76
-153.223
-128.132
-101.556
-73.596
-44.3922
-13.8585
17.2486
48.9303
80.8884
112.779
144.227
174.834
204.179
231.83
257.355
280.333
300.369
317.094
330.189
339.395
344.53
345.403
342.133
334.669
323.157
307.787
288.85
266.676
241.645
214.173
184.696
153.664
121.529
88.7328
55.7032
22.842
-9.48119
-40.9336
-71.2518
-100.211
-127.635
-153.404
-177.443
-199.714
-220.216
-238.967
-256.008
-271.389
-285.172
-297.419
-308.191
-317.55
-325.548
-332.23
-337.634
-341.785
-344.719
-346.443
-346.949
-346.248
-344.36
-341.259
-336.921
-331.327
-324.454
-316.262
-306.714
-295.767
-283.378
-269.498
-254.083
-237.105
-218.543
-198.395
-176.679
-153.429
-128.71
-102.606
-75.2316
-46.7286
-17.2346
12.9149
43.5243
74.3139
104.961
135.106
164.363
192.325
218.586
242.739
264.403
283.226
298.898
311.154
319.787
324.652
325.6
322.724
315.983
305.512
291.455
274.047
253.566
230.332
204.701
177.06
147.817
117.383
86.1756
54.6267
23.1518
-7.84439
-37.6256
-66.151
-93.6232
-119.836
-144.53
-167.522
-188.71
-208.025
-225.463
-241.024
-254.782
-266.799
-277.171
-286.012
-293.429
-299.516
-304.381
-308.097
-310.747
-312.389
-313.088
-312.781
-311.43
-308.614
-304.621
-299.361
-292.816
-284.937
-275.671
-264.963
-252.752
-238.985
-223.598
-206.555
-187.827
-167.369
-145.187
-121.319
-95.8105
-68.7732
-40.3342
-10.7679
19.6971
50.9584
82.7295
114.651
146.4
177.62
207.939
237.041
264.576
290.192
313.608
334.527
352.697
367.881
379.889
388.568
393.816
395.453
393.304
387.574
378.402
365.843
350.081
331.356
309.887
285.965
259.902
232.009
202.609
172.061
140.707
108.901
76.9884
45.3642
14.446
-14.8502
-43.8726
-72.1517
-99.3048
-125.053
-149.22
-171.657
-192.265
-211.013
-227.888
-322.925
-308.992
-293.401
-276.12
-257.132
-236.399
-213.902
-189.669
-163.707
-136.053
-107.675
-77.0347
-45.0543
-12.0165
21.8429
56.2027
90.7094
125.018
158.694
191.278
222.364
251.49
278.209
302.151
322.953
340.29
353.888
363.522
369.044
370.282
367.319
360.106
348.79
333.523
314.551
292.159
266.709
238.576
208.15
175.898
142.262
107.69
72.6124
37.4287
2.55248
-31.6909
-64.9823
-96.9226
-126.743
-155.575
-182.767
-208.176
-231.716
-253.352
-273.072
-290.889
-306.835
-320.959
-333.322
-343.99
-353.028
-360.497
-366.452
-370.946
-374.018
-375.695
-376.067
-375.16
-372.81
-368.973
-363.676
-356.93
-348.718
-339.006
-327.772
-315.008
-300.672
-284.764
-267.249
-248.098
-227.316
-204.9
-180.886
-155.309
-128.245
-99.7939
-70.064
-39.768
-9.08409
22.8606
55.4735
88.3516
121.041
153.116
184.161
213.755
241.478
266.924
289.715
309.485
325.901
338.681
347.598
352.489
353.172
349.742
342.153
330.505
314.95
295.725
273.115
247.453
219.129
188.572
156.233
122.581
88.0895
53.2258
18.4318
-15.8832
-49.3532
-81.6286
-112.495
-141.71
-169.114
-194.593
-218.079
-239.541
-258.982
-276.434
-291.948
-305.586
-317.427
-327.557
-336.062
-343.027
-348.534
-352.661
-355.474
-357.034
-357.402
-356.592
-354.622
-351.554
-347.362
-342.043
-335.584
-327.953
-319.108
-309.013
-297.617
-284.857
-270.68
-255.03
-237.856
-219.116
-198.783
-176.844
-153.308
-128.215
-101.637
-73.6733
-44.4658
-13.9217
17.1929
48.8856
80.8567
112.762
144.227
174.852
204.216
231.886
257.43
280.428
300.481
317.222
330.33
339.546
344.687
345.569
342.284
334.817
323.295
307.912
288.958
266.766
241.715
214.223
184.725
153.674
121.52
88.7064
55.6611
22.7861
-9.54879
-41.01
-71.3353
-100.299
-127.726
-153.496
-177.535
-199.805
-220.304
-239.053
-256.09
-271.467
-285.247
-297.491
-308.26
-317.615
-325.611
-332.292
-337.694
-341.844
-344.777
-346.5
-347.005
-346.306
-344.418
-341.317
-336.98
-331.388
-324.517
-316.326
-306.781
-295.836
-283.45
-269.572
-254.16
-237.183
-218.623
-198.476
-176.759
-153.509
-128.788
-102.681
-75.3027
-46.7942
-17.2924
12.8655
43.4854
74.2874
104.949
135.11
164.384
192.365
218.644
242.815
264.496
283.334
299.02
311.286
319.927
324.797
325.752
322.864
316.12
305.641
291.573
274.151
253.653
230.402
204.752
177.093
147.831
117.379
86.155
54.5899
23.0996
-7.90853
-37.6809
-66.2124
-93.693
-119.911
-144.608
-167.6
-188.788
-208.101
-225.535
-241.093
-254.847
-266.86
-277.228
-286.064
-293.477
-299.561
-304.424
-308.138
-310.786
-312.426
-313.122
-312.816
-311.474
-308.658
-304.665
-299.407
-292.865
-284.989
-275.727
-265.022
-252.814
-239.051
-223.667
-206.627
-187.901
-167.445
-145.264
-121.395
-95.8855
-68.8448
-40.401
-10.8279
19.6462
50.9174
82.6998
114.634
146.396
177.631
207.965
237.083
264.632
290.264
313.694
334.626
352.806
368.001
380.017
388.702
393.952
395.6
393.439
387.707
378.529
365.961
350.189
331.452
309.97
286.034
259.956
232.048
202.633
172.071
140.702
108.882
76.9561
45.3178
14.3904
-14.8991
-43.9287
-72.217
-99.377
-125.13
-149.3
-171.739
-192.348
-211.096
-227.97
-323.056
-309.128
-293.542
-276.266
-257.283
-236.554
-214.061
-189.83
-163.871
-136.215
-107.817
-77.172
-45.1808
-12.1276
21.7522
56.1366
90.6721
125.013
158.725
191.348
222.472
251.638
278.394
302.372
323.205
340.57
354.19
363.841
369.372
370.631
367.635
360.42
349.087
333.797
314.796
292.369
266.883
238.711
208.245
175.953
142.28
107.671
72.561
37.3483
2.44583
-31.8168
-65.126
-97.0758
-126.911
-155.748
-182.943
-208.352
-231.89
-253.523
-273.237
-291.049
-306.988
-321.106
-333.462
-344.123
-353.155
-360.618
-366.569
-371.059
-374.128
-375.807
-376.176
-375.253
-372.91
-369.076
-363.781
-357.036
-348.825
-339.116
-327.884
-315.123
-300.79
-284.883
-267.371
-248.223
-227.443
-205.029
-181.016
-155.44
-128.374
-99.92
-70.1862
-39.8846
-9.18454
22.7735
55.4079
88.3118
121.031
153.138
184.22
213.851
241.612
267.096
289.923
309.726
326.171
338.975
347.909
352.81
353.513
350.054
342.463
330.797
315.219
295.965
273.321
247.621
219.257
188.658
156.278
122.586
88.057
53.1587
18.3343
-16.0068
-49.4975
-81.7912
-112.669
-141.892
-169.3
-194.78
-218.263
-239.721
-259.157
-276.602
-292.107
-305.737
-317.57
-327.691
-336.188
-343.145
-348.646
-352.766
-355.575
-357.131
-357.495
-356.68
-354.712
-351.643
-347.452
-342.135
-335.678
-328.051
-319.211
-309.121
-297.73
-284.977
-270.806
-255.162
-237.994
-219.259
-198.93
-176.993
-153.458
-128.364
-101.781
-73.8106
-44.5959
-14.032
17.0974
48.8119
80.809
112.744
144.242
174.902
204.303
232.013
257.596
280.631
300.72
317.492
330.626
339.861
345.012
345.913
342.599
335.127
323.585
308.175
289.188
266.959
241.869
214.336
184.799
153.709
121.518
88.6699
55.5935
22.6912
-9.66685
-41.1452
-71.4846
-100.458
-127.891
-153.663
-177.7
-199.967
-220.461
-239.204
-256.234
-271.605
-285.377
-297.614
-308.377
-317.727
-325.718
-332.395
-337.794
-341.942
-344.874
-346.596
-347.097
-346.402
-344.515
-341.415
-337.08
-331.491
-324.623
-316.437
-306.896
-295.957
-283.575
-269.704
-254.296
-237.323
-218.767
-198.622
-176.905
-153.654
-128.93
-102.816
-75.4306
-46.9117
-17.394
12.7803
43.4207
74.2475
104.937
135.131
164.439
192.456
218.772
242.98
264.695
283.564
299.275
311.563
320.219
325.097
326.068
323.156
316.408
305.911
291.82
274.371
253.842
230.556
204.869
177.172
147.873
117.386
86.1274
54.5298
23.0085
-8.02489
-37.7779
-66.3231
-93.821
-120.049
-144.752
-167.747
-188.933
-208.244
-225.673
-241.224
-254.97
-266.975
-277.336
-286.163
-293.57
-299.649
-304.506
-308.217
-310.862
-312.499
-313.187
-312.883
-311.56
-308.744
-304.751
-299.498
-292.962
-285.092
-275.837
-265.139
-252.938
-239.181
-223.805
-206.771
-188.05
-167.597
-145.419
-121.549
-96.0352
-68.9877
-40.5342
-10.9474
19.5447
50.8354
82.6406
114.6
146.39
177.653
208.017
237.166
264.745
290.406
313.864
334.822
353.026
368.241
380.273
388.969
394.226
395.893
393.709
387.975
378.782
366.197
350.404
331.643
310.135
286.17
260.063
232.126
202.681
172.09
140.693
108.845
76.8915
45.2249
14.2784
-14.9962
-44.0407
-72.3477
-99.5215
-125.284
-149.46
-171.903
-192.514
-211.263
-228.136
-323.253
-309.333
-293.754
-276.486
-257.509
-236.787
-214.299
-190.072
-164.118
-136.458
-108.029
-77.3781
-45.3708
-12.2944
21.6158
56.0371
90.6158
125.006
158.773
191.452
222.635
251.859
278.671
302.702
323.583
340.989
354.645
364.32
369.864
371.147
368.116
360.895
349.533
334.208
315.163
292.686
267.144
238.913
208.387
176.036
142.306
107.644
72.4837
37.2275
2.28564
-32.006
-65.3417
-97.3058
-127.164
-156.008
-183.206
-208.616
-232.152
-253.779
-273.486
-291.288
-307.218
-321.325
-333.672
-344.323
-353.346
-360.801
-366.744
-371.229
-374.294
-375.973
-376.339
-375.396
-373.061
-369.231
-363.938
-357.195
-348.987
-339.281
-328.053
-315.295
-300.966
-285.063
-267.555
-248.411
-227.634
-205.223
-181.211
-155.635
-128.568
-100.108
-70.3691
-40.0585
-9.33434
22.6441
55.311
88.2537
121.018
153.175
184.31
213.998
241.815
267.356
290.237
310.089
326.578
339.418
348.378
353.294
354.021
350.532
342.932
331.24
315.627
296.329
273.632
247.876
219.452
188.791
156.349
122.596
88.0109
53.0608
18.1906
-16.1897
-49.7117
-82.0323
-112.927
-142.162
-169.576
-195.057
-218.538
-239.99
-259.416
-276.851
-292.344
-305.962
-317.782
-327.89
-336.375
-343.321
-348.811
-352.923
-355.723
-357.273
-357.633
-356.81
-354.845
-351.775
-347.585
-342.271
-335.818
-328.196
-319.363
-309.281
-297.898
-285.154
-270.993
-255.359
-238.199
-219.472
-199.148
-177.215
-153.682
-128.585
-101.995
-74.0146
-44.7895
-14.1952
16.956
48.7031
80.7392
112.719
144.266
174.979
204.437
232.205
257.846
280.939
301.081
317.9
331.073
340.337
345.503
346.425
343.082
335.597
324.022
308.572
289.536
267.252
242.103
214.509
184.912
153.763
121.517
88.6171
55.494
22.5507
-9.84208
-41.3462
-71.7068
-100.695
-128.136
-153.91
-177.946
-200.209
-220.696
-239.429
-256.45
-271.809
-285.571
-297.797
-308.551
-317.893
-325.877
-332.548
-337.942
-342.088
-345.017
-346.737
-347.235
-346.545
-344.658
-341.56
-337.229
-331.644
-324.781
-316.601
-307.067
-296.135
-283.762
-269.899
-254.499
-237.532
-218.98
-198.838
-177.122
-153.869
-129.14
-103.018
-75.621
-47.0866
-17.5445
12.6541
43.3253
74.1891
104.922
135.163
164.524
192.596
218.967
243.229
264.995
283.909
299.66
311.98
320.659
325.55
326.539
323.6
316.843
306.32
292.195
274.704
254.126
230.788
205.046
177.292
147.938
117.397
86.0878
54.4414
22.8732
-8.20075
-37.9196
-66.4884
-94.0125
-120.256
-144.969
-167.966
-189.152
-208.458
-225.879
-241.421
-255.156
-267.149
-277.497
-286.313
-293.709
-299.78
-304.63
-308.335
-310.976
-312.607
-313.286
-312.982
-311.688
-308.872
-304.879
-299.634
-293.108
-285.248
-276.002
-265.314
-253.123
-239.377
-224.011
-206.986
-188.273
-167.826
-145.65
-121.779
-96.2598
-69.2022
-40.7342
-11.1265
19.392
50.7122
82.5517
114.549
146.38
177.687
208.096
237.29
264.915
290.62
314.12
335.116
353.355
368.6
380.656
389.37
394.634
396.327
394.12
388.379
379.163
366.552
350.728
331.93
310.382
286.374
260.224
232.241
202.752
172.118
140.678
108.789
76.7946
45.0851
14.108
-15.14
-44.2086
-72.5439
-99.7386
-125.515
-149.701
-172.15
-192.763
-211.513
-228.384
-323.515
-309.605
-294.037
-276.778
-257.812
-237.098
-214.617
-190.394
-164.446
-136.786
-108.312
-77.6529
-45.6245
-12.5173
21.4334
55.904
90.5403
124.997
158.835
191.59
222.852
252.154
279.042
303.142
324.088
341.55
355.25
364.959
370.521
371.82
368.771
361.53
350.128
334.757
315.653
293.107
267.492
239.183
208.577
176.147
142.34
107.606
72.3802
37.066
2.07163
-32.2595
-65.6292
-97.6127
-127.502
-156.355
-183.559
-208.969
-232.501
-254.121
-273.818
-291.608
-307.525
-321.619
-333.951
-344.589
-353.6
-361.044
-366.978
-371.455
-374.515
-376.194
-376.553
-375.594
-373.264
-369.438
-364.147
-357.407
-349.202
-339.501
-328.278
-315.525
-301.201
-285.303
-267.801
-248.661
-227.889
-205.481
-181.472
-155.895
-128.827
-100.359
-70.6138
-40.2906
-9.53457
22.4713
55.1815
88.1761
121.001
153.223
184.43
214.193
242.087
267.703
290.656
310.575
327.121
340.009
349.005
353.941
354.687
351.181
343.56
331.833
316.173
296.815
274.049
248.217
219.713
188.968
156.443
122.61
87.9495
52.9303
17.9988
-16.4338
-49.9977
-82.3538
-113.272
-142.523
-169.945
-195.428
-218.904
-240.347
-259.762
-277.183
-292.66
-306.261
-318.064
-328.155
-336.624
-343.555
-349.031
-353.131
-355.921
-357.463
-357.815
-356.986
-355.021
-351.95
-347.762
-342.452
-336.004
-328.389
-319.567
-309.495
-298.122
-285.391
-271.242
-255.62
-238.473
-219.755
-199.439
-177.511
-153.98
-128.88
-102.281
-74.2866
-45.0491
-14.4118
16.7671
48.558
80.6463
112.686
144.298
175.081
204.615
232.461
258.181
281.349
301.562
318.444
331.67
340.972
346.159
347.097
343.736
336.224
324.607
309.103
290.001
267.643
242.415
214.74
185.062
153.836
121.515
88.5466
55.361
22.3631
-10.0759
-41.6146
-72.0033
-101.011
-128.463
-154.241
-178.274
-200.531
-221.008
-239.73
-256.736
-272.082
-285.829
-298.041
-308.782
-318.114
-326.089
-332.752
-338.14
-342.282
-345.207
-346.922
-347.423
-346.735
-344.85
-341.754
-337.427
-331.848
-324.992
-316.82
-307.294
-296.373
-284.012
-270.159
-254.769
-237.811
-219.265
-199.127
-177.411
-154.156
-129.42
-103.287
-75.8747
-47.3205
-17.7447
12.4859
43.198
74.1112
104.901
135.207
164.636
192.782
219.226
243.561
265.396
284.371
300.175
312.537
321.247
326.155
327.157
324.202
317.426
306.866
292.695
275.148
254.507
231.098
205.282
177.453
148.026
117.413
86.0351
54.3235
22.6926
-8.4372
-38.107
-66.7094
-94.2685
-120.534
-145.258
-168.259
-189.444
-208.744
-226.155
-241.684
-255.404
-267.38
-277.713
-286.513
-293.894
-299.954
-304.794
-308.492
-311.127
-312.752
-313.42
-313.117
-311.852
-309.04
-305.051
-299.816
-293.302
-285.454
-276.222
-265.548
-253.371
-239.639
-224.285
-207.274
-188.571
-168.131
-145.959
-122.086
-96.5596
-69.4884
-41.0009
-11.3651
19.1878
50.5473
82.4326
114.48
146.366
177.732
208.2
237.456
265.142
290.905
314.461
335.509
353.795
369.08
381.168
389.905
395.181
396.891
394.677
388.919
379.672
367.024
351.159
332.313
310.712
286.646
260.438
232.396
202.848
172.155
140.659
108.714
76.6652
44.8982
13.8763
-15.3278
-44.4322
-72.8061
-100.028
-125.823
-150.022
-172.478
-193.095
-211.846
-228.715
-323.843
-309.946
-294.39
-277.144
-258.189
-237.486
-215.014
-190.796
-164.857
-137.197
-108.665
-77.9968
-45.9424
-12.7966
21.2046
55.7367
90.4453
124.984
158.913
191.763
223.123
252.523
279.504
303.693
324.719
342.25
356.008
365.759
371.344
372.651
369.598
362.324
350.874
335.444
316.265
293.635
267.926
239.52
208.814
176.284
142.382
107.559
72.2499
36.8637
1.80342
-32.5778
-65.9886
-97.997
-127.925
-156.79
-184
-209.41
-232.938
-254.548
-274.232
-292.008
-307.908
-321.985
-334.301
-344.922
-353.918
-361.348
-367.27
-371.737
-374.79
-376.467
-376.819
-375.847
-373.519
-369.697
-364.409
-357.672
-349.471
-339.777
-328.559
-315.812
-301.494
-285.603
-268.108
-248.974
-228.207
-205.805
-181.798
-156.22
-129.15
-100.673
-70.9211
-40.5811
-9.78593
22.2544
55.0191
88.0783
120.978
153.283
184.58
214.437
242.426
268.137
291.18
311.183
327.801
340.75
349.79
354.751
355.509
352
344.347
332.575
316.855
297.423
274.57
248.644
220.038
189.19
156.561
122.628
87.8719
52.7662
17.7581
-16.7399
-50.3564
-82.7564
-113.704
-142.974
-170.406
-195.891
-219.362
-240.795
-260.196
-277.598
-293.055
-306.635
-318.417
-328.487
-336.936
-343.848
-349.307
-353.391
-356.169
-357.701
-358.043
-357.207
-355.242
-352.169
-347.984
-342.678
-336.236
-328.631
-319.821
-309.762
-298.403
-285.687
-271.554
-255.947
-238.814
-220.11
-199.804
-177.882
-154.353
-129.249
-102.639
-74.6269
-45.3744
-14.6832
16.5296
48.3759
80.5295
112.643
144.337
175.209
204.837
232.78
258.599
281.863
302.165
319.125
332.416
341.767
346.98
347.929
344.561
337.01
325.34
309.767
290.583
268.131
242.805
215.029
185.25
153.926
121.512
88.4576
55.1939
22.1277
-10.3692
-41.951
-72.375
-101.406
-128.872
-154.655
-178.685
-200.934
-221.4
-240.106
-257.095
-272.423
-286.152
-298.346
-309.072
-318.39
-326.353
-333.007
-338.387
-342.524
-345.445
-347.155
-347.659
-346.972
-345.089
-341.996
-337.675
-332.104
-325.256
-317.093
-307.579
-296.671
-284.323
-270.485
-255.107
-238.159
-219.622
-199.488
-177.773
-154.515
-129.771
-103.624
-76.1925
-47.6151
-17.9942
12.2749
43.0382
74.013
104.875
135.26
164.777
193.014
219.551
243.976
265.897
284.949
300.819
313.235
321.983
326.913
327.922
324.962
318.155
307.55
293.321
275.704
254.982
231.485
205.578
177.655
148.134
117.431
85.9689
54.1757
22.4661
-8.73429
-38.3408
-66.9869
-94.5895
-120.881
-145.62
-168.626
-189.809
-209.102
-226.499
-242.013
-255.714
-267.669
-277.983
-286.762
-294.126
-300.171
-304.998
-308.687
-311.315
-312.933
-313.592
-313.287
-312.05
-309.246
-305.264
-300.044
-293.544
-285.713
-276.497
-265.84
-253.681
-239.966
-224.629
-207.633
-188.943
-168.513
-146.346
-122.471
-96.935
-69.8467
-41.3346
-11.6635
18.9317
50.3406
82.2832
114.394
146.348
177.787
208.331
237.662
265.425
291.262
314.887
336.001
354.344
369.68
381.809
390.575
395.866
397.587
395.376
389.592
380.308
367.616
351.699
332.791
311.124
286.987
260.706
232.589
202.966
172.201
140.635
108.62
76.5033
44.6637
13.5783
-15.5554
-44.7115
-73.1348
-100.392
-126.21
-150.423
-172.889
-193.511
-212.262
-229.129
-324.237
-310.355
-294.814
-277.583
-258.643
-237.952
-215.491
-191.28
-165.349
-137.693
-109.09
-78.4106
-46.3249
-13.133
20.9288
55.5348
90.3301
124.968
159.005
191.97
223.447
252.966
280.059
304.354
325.477
343.092
356.919
366.719
372.333
373.648
370.591
363.278
351.771
336.268
317.001
294.268
268.448
239.924
209.098
176.449
142.432
107.501
72.0926
36.6197
1.48054
-32.9616
-66.4204
-98.4596
-128.433
-157.311
-184.529
-209.941
-233.463
-255.062
-274.73
-292.488
-308.369
-322.425
-334.72
-345.322
-354.299
-361.713
-367.621
-372.076
-375.12
-376.792
-377.137
-376.156
-373.828
-370.008
-364.724
-357.99
-349.795
-340.107
-328.897
-316.157
-301.847
-285.963
-268.476
-249.35
-228.589
-206.193
-182.189
-156.611
-129.538
-101.05
-71.2915
-40.9297
-10.0893
21.9931
54.8231
87.96
120.951
153.356
184.759
214.729
242.834
268.658
291.809
311.912
328.618
341.639
350.733
355.726
356.495
352.985
345.293
333.466
317.674
298.152
275.196
249.155
220.428
189.455
156.701
122.647
87.7776
52.5681
17.4677
-17.1086
-50.7885
-83.2407
-114.224
-143.517
-170.961
-196.448
-219.913
-241.333
-260.716
-278.097
-293.53
-307.084
-318.841
-328.886
-337.31
-344.199
-349.638
-353.704
-356.466
-357.986
-358.315
-357.474
-355.507
-352.433
-348.25
-342.95
-336.516
-328.922
-320.125
-310.082
-298.739
-286.042
-271.929
-256.34
-239.225
-220.535
-200.242
-178.328
-154.801
-129.693
-103.07
-75.0353
-45.7531
-15.0231
16.2425
48.1564
80.3881
112.59
144.383
175.362
205.104
233.164
259.1
282.479
302.887
319.943
333.313
342.722
347.969
348.927
345.552
337.955
326.22
310.565
291.281
268.718
243.272
215.375
185.475
154.033
121.508
88.3495
54.9922
21.8439
-10.7225
-42.356
-72.8222
-101.883
-129.364
-155.152
-179.179
-201.418
-221.869
-240.558
-257.527
-272.832
-286.539
-298.713
-309.42
-318.722
-326.671
-333.312
-338.684
-342.815
-345.729
-347.436
-347.94
-347.255
-345.376
-342.287
-337.973
-332.41
-325.572
-317.421
-307.921
-297.029
-284.698
-270.876
-255.513
-238.578
-220.05
-199.922
-178.209
-154.947
-130.192
-104.029
-76.5746
-47.9706
-18.2936
12.0207
42.8451
73.8939
104.842
135.324
164.945
193.292
219.941
244.475
266.498
285.644
301.593
314.073
322.867
327.823
328.84
325.875
319.03
308.372
294.073
276.372
255.553
231.95
205.932
177.896
148.264
117.453
85.889
53.9977
22.1935
-9.09215
-38.6217
-67.3219
-94.9765
-121.299
-146.056
-169.067
-190.248
-209.531
-226.913
-242.409
-256.086
-268.016
-278.306
-287.062
-294.404
-300.431
-305.243
-308.921
-311.54
-313.151
-313.801
-313.494
-312.28
-309.489
-305.52
-300.316
-293.836
-286.023
-276.828
-266.191
-254.053
-240.359
-225.041
-208.065
-189.391
-168.972
-146.811
-122.933
-97.3863
-70.2773
-41.7357
-12.022
18.6233
50.0914
82.103
114.29
146.327
177.853
208.487
237.91
265.765
291.69
315.399
336.59
355.004
370.4
382.578
391.379
396.69
398.422
396.214
390.4
381.073
368.326
352.347
333.366
311.619
287.395
261.026
232.82
203.108
172.256
140.606
108.508
76.309
44.3815
13.2068
-15.8163
-45.0469
-73.5305
-100.828
-126.674
-150.905
-173.383
-194.011
-212.763
-229.626
-324.696
-310.832
-295.309
-278.096
-259.172
-238.497
-216.047
-191.844
-165.921
-138.271
-109.591
-78.895
-46.7729
-13.527
20.6055
55.2976
90.1942
124.947
159.112
192.21
223.826
253.482
280.707
305.126
326.361
344.075
357.982
367.842
373.489
374.815
371.749
364.392
352.819
337.231
317.86
295.006
269.057
240.395
209.428
176.64
142.489
107.433
71.9082
36.3333
1.10249
-33.4117
-66.925
-99.0015
-129.026
-157.921
-185.148
-210.56
-234.075
-255.661
-275.312
-293.048
-308.906
-322.938
-335.209
-345.788
-354.744
-362.138
-368.03
-372.471
-375.505
-377.171
-377.507
-376.519
-374.188
-370.371
-365.09
-358.362
-350.172
-340.492
-329.292
-316.559
-302.258
-286.384
-268.906
-249.789
-229.036
-206.647
-182.647
-157.068
-129.991
-101.49
-71.7257
-41.3363
-10.4457
21.6867
54.5929
87.8206
120.917
153.439
184.967
215.07
243.308
269.266
292.544
312.764
329.573
342.678
351.835
356.865
357.649
354.132
346.398
334.508
318.631
299.005
275.927
249.752
220.884
189.764
156.864
122.669
87.6661
52.335
17.127
-17.5407
-51.2952
-83.8069
-114.831
-144.152
-171.61
-197.099
-220.557
-241.962
-261.324
-278.679
-294.085
-307.609
-319.336
-329.352
-337.747
-344.609
-350.024
-354.069
-356.813
-358.317
-358.633
-357.786
-355.815
-352.739
-348.56
-343.267
-336.842
-329.261
-320.481
-310.456
-299.133
-286.457
-272.366
-256.799
-239.704
-221.033
-200.754
-178.849
-155.325
-130.211
-103.574
-75.5123
-46.1752
-15.4424
15.9051
47.8988
80.2219
112.528
144.435
175.539
205.413
233.61
259.684
283.197
303.732
320.899
334.362
343.838
349.124
350.094
346.708
339.059
327.249
311.497
292.096
269.402
243.818
215.778
185.737
154.157
121.501
88.2218
54.7553
21.511
-11.1367
-42.83
-73.3457
-102.44
-129.94
-155.734
-179.757
-201.984
-222.418
-241.085
-258.03
-273.31
-286.991
-299.14
-309.826
-319.108
-327.041
-333.669
-339.03
-343.153
-346.061
-347.765
-348.27
-347.586
-345.71
-342.627
-338.321
-332.768
-325.94
-317.804
-308.321
-297.447
-285.135
-271.332
-255.988
-239.067
-220.551
-200.429
-178.717
-155.451
-130.685
-104.502
-77.0212
-48.3877
-18.6434
11.7225
42.6182
73.7533
104.801
135.396
165.14
193.616
220.395
245.057
267.2
286.454
302.496
315.051
323.9
328.888
329.913
326.94
320.054
309.333
294.952
277.152
256.219
232.493
206.344
178.178
148.414
117.478
85.795
53.7893
21.8744
-9.5115
-38.95
-67.7152
-95.43
-121.789
-146.565
-169.582
-190.76
-210.033
-227.397
-242.87
-256.52
-268.422
-278.683
-287.411
-294.728
-300.734
-305.528
-309.193
-311.802
-313.405
-314.047
-313.739
-312.541
-309.769
-305.817
-300.634
-294.175
-286.385
-277.213
-266.6
-254.486
-240.817
-225.523
-208.57
-189.914
-169.508
-147.354
-123.474
-97.9139
-70.781
-42.2046
-12.441
18.2621
49.7995
81.8916
114.167
146.301
177.929
208.668
238.199
266.161
292.189
315.996
337.279
355.774
371.241
383.476
392.319
397.655
399.397
397.189
391.342
381.965
369.155
353.104
334.036
312.197
287.872
261.4
233.089
203.274
172.319
140.571
108.376
76.0821
44.0517
12.7638
-16.1133
-45.4392
-73.994
-101.339
-127.216
-151.468
-173.96
-194.594
-213.347
-230.207
-325.22
-311.377
-295.875
-278.682
-259.777
-239.119
-216.684
-192.49
-166.574
-138.932
-110.166
-79.4512
-47.2872
-13.9795
20.2339
55.0243
90.0368
124.922
159.232
192.484
224.258
254.071
281.448
306.008
327.373
345.199
359.199
369.126
374.813
376.153
373.071
365.666
354.019
338.333
318.842
295.851
269.753
240.933
209.805
176.858
142.554
107.353
71.696
36.0035
0.668797
-33.9289
-67.503
-99.6235
-129.704
-158.618
-185.856
-211.269
-234.777
-256.347
-275.976
-293.688
-309.52
-323.525
-335.768
-346.321
-355.252
-362.624
-368.497
-372.922
-375.945
-377.602
-377.931
-376.936
-374.602
-370.786
-365.51
-358.786
-350.603
-340.933
-329.743
-317.019
-302.729
-286.864
-269.398
-250.291
-229.546
-207.166
-183.171
-157.591
-130.507
-101.993
-72.2241
-41.8009
-10.8565
21.3343
54.328
87.6594
120.876
153.534
185.205
215.458
243.85
269.96
293.383
313.738
330.665
343.868
353.097
358.17
358.97
355.444
347.664
335.701
319.725
299.98
276.763
250.435
221.403
190.117
157.049
122.692
87.5366
52.0661
16.7352
-18.0371
-51.8771
-84.4558
-115.528
-144.879
-172.353
-197.844
-221.294
-242.681
-262.019
-279.346
-294.719
-308.21
-319.902
-329.884
-338.246
-345.078
-350.465
-354.485
-357.209
-358.696
-358.997
-358.142
-356.168
-353.09
-348.914
-343.629
-337.216
-329.649
-320.887
-310.882
-299.582
-286.932
-272.866
-257.324
-240.253
-221.602
-201.34
-179.445
-155.926
-130.806
-104.152
-76.0593
-46.6643
-15.9187
15.5174
47.6022
80.0301
112.455
144.493
175.74
205.766
234.12
260.352
284.019
304.697
321.993
335.561
345.116
350.448
351.431
348.029
340.323
328.427
312.563
293.028
270.184
244.441
216.238
186.034
154.297
121.492
88.0738
54.4826
21.1282
-11.6131
-43.3732
-73.9462
-103.078
-130.599
-156.4
-180.418
-202.631
-223.046
-241.688
-258.605
-273.857
-287.509
-299.63
-310.29
-319.55
-327.464
-334.077
-339.426
-343.54
-346.441
-348.141
-348.646
-347.964
-346.092
-343.015
-338.718
-333.177
-326.362
-318.241
-308.777
-297.924
-285.634
-271.854
-256.53
-239.627
-221.124
-201.009
-179.3
-156.028
-131.249
-105.045
-77.5324
-48.867
-19.044
11.3792
42.3568
73.5905
104.753
135.477
165.361
193.985
220.914
245.722
268.004
287.382
303.531
316.172
325.083
330.107
331.143
328.157
321.225
310.433
295.958
278.044
256.981
233.113
206.816
178.499
148.585
117.505
85.6866
53.5503
21.5086
-9.99374
-39.3255
-68.1681
-95.9511
-122.352
-147.15
-170.173
-191.348
-210.608
-227.95
-243.398
-257.017
-268.885
-279.113
-287.809
-295.097
-301.079
-305.854
-309.504
-312.101
-313.696
-314.331
-314.019
-312.833
-310.086
-306.157
-300.998
-294.563
-286.797
-277.654
-267.068
-254.982
-241.34
-226.073
-209.147
-190.512
-170.122
-147.976
-124.093
-98.5183
-71.3583
-42.7419
-12.9209
17.8477
49.4643
81.6487
114.026
146.269
178.015
208.875
238.529
266.613
292.76
316.679
338.066
356.655
372.203
384.503
393.394
398.76
400.515
398.301
392.418
382.986
370.105
353.969
334.802
312.857
288.417
261.827
233.396
203.462
172.391
140.531
108.226
75.8228
43.675
12.2516
-16.4492
-45.8898
-74.5264
-101.926
-127.838
-152.113
-174.619
-195.261
-214.016
-230.872
-325.81
-311.99
-296.512
-279.342
-260.458
-239.82
-217.401
-193.218
-167.308
-139.675
-110.819
-80.0803
-47.8688
-14.4913
19.8129
54.714
89.8572
124.892
159.366
192.791
224.743
254.735
282.282
307.002
328.513
346.466
360.57
370.574
376.306
377.662
374.56
367.101
355.371
339.574
319.949
296.802
270.536
241.538
210.229
177.102
142.625
107.261
71.4551
35.6294
0.178519
-34.5144
-68.1554
-100.327
-130.469
-159.403
-186.654
-212.068
-235.567
-257.119
-276.725
-294.408
-310.211
-324.184
-336.397
-346.92
-355.824
-363.171
-369.022
-373.429
-376.438
-378.087
-378.407
-377.408
-375.068
-371.253
-365.981
-359.264
-351.089
-341.428
-330.25
-317.536
-303.258
-287.406
-269.951
-250.856
-230.121
-207.75
-183.76
-158.18
-131.087
-102.56
-72.7863
-42.3248
-11.3233
20.9352
54.0278
87.4763
120.828
153.638
185.471
215.893
244.46
270.742
294.329
314.835
331.895
345.208
354.519
359.642
360.459
356.921
349.089
337.045
320.959
301.078
277.704
251.203
221.987
190.512
157.256
122.716
87.3885
51.7607
16.2912
-18.5988
-52.5349
-85.1885
-116.314
-145.7
-173.191
-198.684
-222.124
-243.491
-262.802
-280.096
-295.433
-308.885
-320.539
-330.482
-338.807
-345.605
-350.961
-354.954
-357.654
-359.122
-359.407
-358.542
-356.563
-353.485
-349.312
-344.036
-337.635
-330.085
-321.343
-311.362
-300.089
-287.466
-273.428
-257.915
-240.87
-222.244
-202
-180.118
-156.602
-131.476
-104.804
-76.6776
-47.223
-16.451
15.0793
47.2662
79.8119
112.37
144.556
175.964
206.161
234.692
261.103
284.943
305.784
323.226
336.914
346.556
351.941
352.939
349.517
341.749
329.756
313.764
294.078
271.065
245.141
216.755
186.368
154.453
121.479
87.905
54.1731
20.6946
-12.1527
-43.9864
-74.6247
-103.799
-131.343
-157.151
-181.163
-203.361
-223.753
-242.368
-259.253
-274.472
-288.091
-300.18
-310.812
-320.047
-327.939
-334.536
-339.871
-343.975
-346.868
-348.563
-349.068
-348.388
-346.521
-343.452
-339.165
-333.636
-326.836
-318.733
-309.29
-298.461
-286.197
-272.442
-257.141
-240.258
-221.769
-201.663
-179.956
-156.679
-131.885
-105.656