/*--------------------------------*- C++ -*----------------------------------*\
| =========                 |                                                 |
| \\      /  F ield         | OpenFOAM: The Open Source CFD Toolbox           |
|  \\    /   O peration     | Version:  3.0.1                                 |
|   \\  /    A nd           | Web:      www.OpenFOAM.org                      |
|    \\/     M anipulation  |                                                 |
\*---------------------------------------------------------------------------*/
FoamFile
{
    version     2.0;
    format      ascii;
    class       volScalarField;
    location    "56.4";
    object      p_rgh;
}
// * * * * * * * * * * * * * * * * * * * * * * * * * * * * * * * * * * * * * //

dimensions      [1 -1 -2 0 0 0 0];

internalField   nonuniform List<scalar> 
21420
(
244.282
212.926
180.48
147.279
113.721
80.1362
47.0346
14.8758
-14.8051
-44.7787
-73.9812
-101.922
-128.338
-153.087
-176.087
-197.301
-216.716
-234.349
-250.23
-264.399
-276.904
-287.797
-297.126
-304.941
-311.285
-316.198
-319.717
-321.842
-322.579
-321.863
-319.805
-316.371
-311.528
-305.257
-297.509
-288.237
-277.402
-264.947
-250.811
-234.953
-217.323
-197.894
-176.644
-153.564
-128.695
-102.107
-73.8837
-44.1518
-13.1712
18.5665
51.5903
85.3247
119.443
153.564
187.305
220.306
252.174
282.511
310.952
337.133
360.712
381.385
398.873
412.941
423.407
430.106
432.912
431.684
426.484
417.402
404.545
388.125
368.364
345.501
319.863
291.798
261.662
229.862
196.788
162.838
128.406
93.8533
59.5303
25.7695
-6.98142
-38.8054
-69.382
-98.5063
-126.006
-151.757
-175.667
-197.659
-217.699
-235.767
-251.859
-266.003
-278.242
-288.628
-297.219
-304.09
-309.313
-312.957
-315.089
-315.741
-314.942
-312.766
-309.196
-304.237
-297.88
-290.11
-280.902
-270.229
-258.064
-244.38
-229.152
-212.36
-193.991
-174.034
-152.495
-129.394
-104.763
-78.6491
-51.1272
-22.293
7.73802
38.8612
70.74
103.195
135.967
168.744
201.185
232.917
263.543
292.655
319.839
344.687
366.81
385.844
401.462
413.385
421.391
425.29
425.001
420.51
411.886
399.175
382.581
362.342
338.759
312.182
283.004
251.656
218.597
184.297
149.23
113.857
78.614
43.9074
10.0924
-22.5252
-53.6911
-83.2062
-110.925
-136.747
-160.619
-182.521
-202.465
-220.486
-236.635
-250.975
-263.572
-274.502
-283.834
-291.625
-297.933
-302.812
-306.298
-308.439
-309.237
-308.695
-306.876
-303.755
-299.335
-293.61
-286.568
-278.192
-268.464
-257.35
-244.813
-230.817
-215.317
-198.268
-179.628
-159.362
-137.451
-113.898
-88.7366
-62.036
-33.898
-4.46019
26.0997
57.5828
89.7245
122.239
154.816
187.102
218.71
249.223
278.21
305.231
329.857
351.68
370.324
385.452
396.779
404.08
407.155
405.981
400.511
390.851
377.107
359.526
338.403
314.098
287.021
257.619
226.36
193.725
160.185
126.198
92.1872
58.5436
25.6067
-6.32779
-37.014
-66.2574
-93.9114
-119.872
-144.072
-166.472
-187.06
-205.844
-222.847
-238.107
-251.673
-263.602
-273.962
-282.818
-290.226
-296.246
-300.921
-304.281
-306.357
-307.141
-306.629
-304.876
-301.847
-297.538
-291.942
-285.04
-276.809
-267.225
-256.262
-243.899
-230.118
-214.899
-198.229
-180.103
-160.517
-139.475
-116.996
-93.1256
-67.9045
-41.4001
-13.7132
15.0402
44.7274
75.2223
106.92
138.254
169.303
199.809
229.396
257.687
284.283
308.755
330.692
349.716
365.472
377.665
386.052
390.429
390.642
385.993
377.204
364.478
347.962
327.975
304.886
279.095
251.043
221.19
189.995
157.924
125.426
92.9184
60.7804
29.4847
0.107572
-28.7224
-56.291
-82.4032
-106.965
-129.933
-151.319
-171.167
-189.538
-206.505
-222.137
-236.496
-249.629
-261.562
-272.305
-281.849
-290.168
-297.225
-302.97
-307.349
-310.313
-311.773
-311.654
-309.839
-306.328
-301.08
-294.052
-285.23
-274.575
-262.075
-247.746
-231.591
-213.65
-193.982
-172.667
-149.797
-125.503
-99.9112
-73.1773
-45.515
-17.1637
11.374
39.4005
68.264
96.9833
125.247
152.815
179.286
204.344
244.323
212.95
180.487
147.27
113.696
80.0945
46.9751
14.8047
-14.8566
-44.8396
-74.0526
-101.999
-128.418
-153.168
-176.167
-197.38
-216.793
-234.423
-250.302
-264.468
-276.97
-287.86
-297.187
-305
-311.342
-316.253
-319.771
-321.896
-322.632
-321.917
-319.86
-316.426
-311.584
-305.315
-297.569
-288.301
-277.468
-265.016
-250.883
-235.027
-217.401
-197.974
-176.724
-153.645
-128.775
-102.187
-73.9597
-44.223
-13.2357
18.5071
51.5401
85.2859
119.417
153.552
187.309
220.326
252.211
282.565
311.023
337.219
360.814
381.501
399.001
413.079
423.553
430.258
433.073
431.833
426.63
417.543
404.678
388.247
368.472
345.593
319.938
291.855
261.702
229.884
196.793
162.828
128.38
93.8142
59.4796
25.7091
-7.04956
-38.8808
-69.4632
-98.5919
-126.094
-151.848
-175.759
-197.752
-217.791
-235.858
-251.948
-266.09
-278.326
-288.708
-297.297
-304.164
-309.384
-313.026
-315.155
-315.804
-315.006
-312.829
-309.26
-304.301
-297.945
-290.176
-280.97
-270.299
-258.135
-244.453
-229.227
-212.437
-194.069
-174.113
-152.575
-129.474
-104.842
-78.7269
-51.2028
-22.3652
7.67066
38.8009
70.6874
103.152
135.935
168.726
201.182
232.93
263.574
292.704
319.906
344.773
366.913
385.963
401.595
413.529
421.543
425.451
425.155
420.662
412.033
399.313
382.707
362.452
338.852
312.256
283.058
251.69
218.61
184.291
149.206
113.815
78.5576
43.8387
10.0134
-22.6121
-53.7836
-83.3022
-111.022
-136.845
-160.715
-182.615
-202.557
-220.574
-236.719
-251.055
-263.649
-274.575
-283.904
-291.692
-297.998
-302.875
-306.361
-308.5
-309.295
-308.755
-306.935
-303.815
-299.395
-293.671
-286.629
-278.255
-268.528
-257.416
-244.882
-230.887
-215.39
-198.344
-179.707
-159.443
-137.533
-113.98
-88.8181
-62.1153
-33.9737
-4.53062
26.0363
57.5278
89.6797
122.207
154.798
187.099
218.724
249.256
278.262
305.302
329.947
351.788
370.448
385.59
396.929
404.237
407.322
406.14
400.667
391
377.245
359.649
338.509
314.185
287.087
257.664
226.384
193.729
160.171
126.166
92.1411
58.4851
25.538
-6.40448
-37.0965
-66.3437
-93.9997
-119.961
-144.16
-166.559
-187.146
-205.927
-222.928
-238.185
-251.747
-263.674
-274.031
-282.883
-290.289
-296.307
-300.98
-304.34
-306.415
-307.196
-306.687
-304.933
-301.904
-297.596
-292.001
-285.099
-276.869
-267.288
-256.325
-243.963
-230.183
-214.965
-198.297
-180.171
-160.586
-139.544
-117.065
-93.1933
-67.9708
-41.4643
-13.7744
14.9829
44.6741
75.176
106.891
138.235
169.296
199.816
229.419
257.728
284.342
308.834
330.789
349.831
365.602
377.809
386.205
390.59
390.812
386.15
377.355
364.62
348.09
328.086
304.977
279.166
251.094
221.22
190.006
157.917
125.403
92.8808
60.731
29.4282
0.0400609
-28.7947
-56.3661
-82.4792
-107.04
-130.006
-151.389
-171.233
-189.599
-206.564
-222.192
-236.548
-249.679
-261.612
-272.354
-281.899
-290.219
-297.278
-303.025
-307.406
-310.371
-311.834
-311.718
-309.906
-306.396
-301.149
-294.123
-285.303
-274.649
-262.151
-247.822
-231.667
-213.726
-194.055
-172.738
-149.865
-125.567
-99.9712
-73.2317
-45.5627
-17.2034
11.3408
39.3771
68.2516
96.9819
125.257
152.837
179.32
204.39
244.404
212.997
180.501
147.251
113.645
80.0111
46.856
14.6609
-14.9584
-44.9613
-74.1956
-102.154
-128.579
-153.33
-176.329
-197.539
-216.947
-234.573
-250.445
-264.606
-277.102
-287.987
-297.309
-305.117
-311.456
-316.364
-319.878
-322.003
-322.738
-322.026
-319.969
-316.536
-311.698
-305.432
-297.691
-288.427
-277.6
-265.153
-251.026
-235.176
-217.555
-198.132
-176.886
-153.807
-128.937
-102.345
-74.1114
-44.3652
-13.3644
18.3885
51.4402
85.2087
119.366
153.53
187.317
220.366
252.285
282.673
311.165
337.394
361.018
381.734
399.258
413.356
423.845
430.562
433.396
432.128
426.923
417.826
404.945
388.492
368.689
345.78
320.091
291.973
261.785
229.933
196.808
162.812
128.335
93.7429
59.3859
25.5972
-7.17655
-39.0213
-69.6147
-98.7513
-126.26
-152.017
-175.929
-197.922
-217.96
-236.024
-252.11
-266.247
-278.478
-288.853
-297.435
-304.296
-309.511
-313.148
-315.273
-315.914
-315.119
-312.94
-309.371
-304.413
-298.059
-290.292
-281.089
-270.422
-258.262
-244.583
-229.361
-212.574
-194.208
-174.254
-152.718
-129.618
-104.984
-78.867
-51.3385
-22.494
7.55115
38.6956
70.5977
103.082
135.888
168.705
201.191
232.972
263.651
292.818
320.057
344.959
367.134
386.215
401.874
413.83
421.859
425.789
425.478
420.982
412.342
399.603
382.972
362.687
339.053
312.419
283.18
251.772
218.652
184.293
149.171
113.747
78.4605
43.7169
9.87134
-22.7698
-53.9523
-83.4778
-111.201
-137.024
-160.892
-182.787
-202.723
-220.733
-236.871
-251.2
-263.787
-274.706
-284.029
-291.811
-298.113
-302.987
-306.47
-308.607
-309.396
-308.859
-307.039
-303.918
-299.499
-293.776
-286.737
-278.365
-268.642
-257.533
-245.003
-231.014
-215.522
-198.481
-179.849
-159.589
-137.682
-114.131
-88.9668
-62.2596
-34.111
-4.65741
25.9236
57.4314
89.604
122.155
154.774
187.106
218.766
249.335
278.379
305.457
330.14
352.017
370.709
385.879
397.239
404.563
407.667
406.467
400.991
391.31
377.532
359.907
338.733
314.369
287.231
257.766
226.445
193.75
160.155
126.117
92.0618
58.3811
25.4137
-6.54454
-37.2479
-66.5025
-94.1627
-120.125
-144.324
-166.72
-187.303
-206.08
-223.076
-238.327
-251.883
-263.803
-274.154
-283
-290.4
-296.414
-301.086
-304.444
-306.518
-307.294
-306.789
-305.034
-302.005
-297.699
-292.105
-285.206
-276.979
-267.399
-256.44
-244.08
-230.303
-215.087
-198.422
-180.298
-160.714
-139.673
-117.194
-93.3212
-68.0965
-41.5862
-13.8908
14.8736
44.5724
75.0878
106.838
138.2
169.285
199.832
229.468
257.813
284.464
308.993
330.984
350.061
365.864
378.097
386.513
390.911
391.153
386.462
377.659
364.903
348.345
328.308
305.161
279.309
251.195
221.281
190.028
157.903
125.356
92.8056
60.632
29.315
-0.0950481
-28.9394
-56.5164
-82.6313
-107.19
-130.152
-151.528
-171.364
-189.723
-206.68
-222.302
-236.652
-249.78
-261.711
-272.453
-281.999
-290.321
-297.383
-303.133
-307.519
-310.488
-311.955
-311.845
-310.04
-306.532
-301.289
-294.266
-285.449
-274.798
-262.301
-247.973
-231.819
-213.876
-194.203
-172.881
-150.002
-125.696
-100.091
-73.3405
-45.6583
-17.2829
11.2748
39.33
68.2266
96.979
125.277
152.88
179.388
204.481
244.526
213.068
180.521
147.223
113.57
79.8861
46.6768
14.4414
-15.1075
-45.1438
-74.4106
-102.387
-128.82
-153.574
-176.57
-197.776
-217.178
-234.797
-250.661
-264.813
-277.301
-288.178
-297.493
-305.294
-311.627
-316.53
-320.039
-322.163
-322.899
-322.19
-320.131
-316.701
-311.868
-305.608
-297.873
-288.617
-277.798
-265.359
-251.241
-235.399
-217.786
-198.369
-177.127
-154.05
-129.179
-102.582
-74.3391
-44.5788
-13.5577
18.2103
51.29
85.0926
119.29
153.497
187.329
220.427
252.397
282.835
311.378
337.656
361.326
382.082
399.643
413.771
424.283
431.018
433.876
432.577
427.366
418.252
405.346
388.86
369.016
346.059
320.321
292.151
261.911
230.006
196.831
162.788
128.268
93.6364
59.2457
25.4301
-7.36658
-39.2315
-69.8412
-98.9895
-126.506
-152.269
-176.184
-198.177
-218.213
-236.272
-252.352
-266.482
-278.704
-289.069
-297.641
-304.493
-309.699
-313.328
-315.447
-316.079
-315.285
-313.104
-309.535
-304.58
-298.228
-290.465
-281.267
-270.604
-258.45
-244.777
-229.559
-212.777
-194.415
-174.464
-152.931
-129.831
-105.195
-79.0746
-51.5394
-22.6847
7.37393
38.5406
70.4656
102.979
135.819
168.677
201.208
233.038
263.769
292.991
320.285
345.242
367.468
386.596
402.296
414.285
422.337
426.287
425.974
421.468
412.808
400.043
383.374
363.043
339.356
312.666
283.367
251.898
218.717
184.299
149.122
113.648
78.3171
43.5366
9.66043
-23.0041
-54.2032
-83.739
-111.467
-137.29
-161.154
-183.043
-202.97
-220.971
-237.097
-251.414
-263.991
-274.901
-284.213
-291.988
-298.283
-303.152
-306.631
-308.764
-309.548
-309.014
-307.192
-304.072
-299.654
-293.933
-286.896
-278.529
-268.809
-257.707
-245.184
-231.202
-215.717
-198.685
-180.06
-159.806
-137.904
-114.354
-89.1878
-62.4742
-34.3147
-4.8455
25.7565
57.2889
89.4928
122.08
154.74
187.119
218.831
249.455
278.556
305.693
330.432
352.362
371.103
386.315
397.708
405.054
408.181
406.967
401.483
391.777
377.966
360.297
339.07
314.649
287.45
257.921
226.538
193.783
160.133
126.044
91.9446
58.227
25.2292
-6.75276
-37.4733
-66.7391
-94.4053
-120.37
-144.567
-166.96
-187.538
-206.308
-223.295
-238.538
-252.084
-263.994
-274.336
-283.173
-290.566
-296.575
-301.241
-304.597
-306.668
-307.441
-306.94
-305.183
-302.155
-297.851
-292.261
-285.365
-277.141
-267.565
-256.61
-244.254
-230.481
-215.27
-198.608
-180.487
-160.905
-139.866
-117.388
-93.5127
-68.2848
-41.7689
-14.0651
14.7099
44.4201
74.9553
106.758
138.148
169.269
199.857
229.541
257.939
284.646
309.231
331.278
350.407
366.257
378.529
386.976
391.392
391.657
386.937
378.118
365.329
348.73
328.639
305.435
279.522
251.348
221.372
190.061
157.881
125.286
92.6926
60.4835
29.1447
-0.298062
-29.1565
-56.742
-82.8596
-107.416
-130.371
-151.737
-171.562
-189.909
-206.854
-222.466
-236.809
-249.932
-261.859
-272.601
-282.148
-290.474
-297.54
-303.296
-307.688
-310.663
-312.135
-312.039
-310.239
-306.735
-301.497
-294.48
-285.668
-275.02
-262.527
-248.201
-232.047
-214.101
-194.424
-173.096
-150.207
-125.89
-100.271
-73.5039
-45.8019
-17.4027
11.1761
39.2593
68.1891
96.9746
125.307
152.946
179.49
204.618
244.689
213.162
180.549
147.185
113.469
79.7197
46.437
14.141
-15.2991
-45.3871
-74.6982
-102.699
-129.142
-153.899
-176.893
-198.093
-217.487
-235.095
-250.949
-265.089
-277.566
-288.432
-297.737
-305.53
-311.855
-316.751
-320.254
-322.374
-323.115
-322.408
-320.348
-316.922
-312.095
-305.841
-298.116
-288.87
-278.062
-265.635
-251.528
-235.697
-218.094
-198.685
-177.45
-154.375
-129.502
-102.898
-74.6431
-44.8638
-13.8156
17.972
51.0894
84.9375
119.187
153.451
187.345
220.508
252.545
283.052
311.662
338.005
361.735
382.548
400.156
414.325
424.868
431.625
434.503
433.187
427.96
418.822
405.881
389.35
369.451
346.433
320.628
292.387
262.077
230.103
196.861
162.756
128.178
93.494
59.0583
25.2077
-7.62059
-39.5121
-70.1435
-99.3075
-126.835
-152.605
-176.523
-198.517
-218.55
-236.603
-252.675
-266.795
-279.004
-289.356
-297.915
-304.755
-309.949
-313.568
-315.676
-316.302
-315.506
-313.323
-309.754
-304.8
-298.453
-290.695
-281.502
-270.847
-258.7
-245.034
-229.823
-213.047
-194.691
-174.744
-153.214
-130.114
-105.477
-79.3508
-51.8065
-22.9387
7.13699
38.335
70.2899
102.841
135.728
168.639
201.231
233.127
263.928
293.222
320.59
345.62
367.915
387.106
402.86
414.893
422.976
426.942
426.642
422.122
413.433
400.63
383.91
363.519
339.763
312.996
283.617
252.066
218.804
184.308
149.058
113.516
78.1261
43.2962
9.3793
-23.3164
-54.5377
-84.0873
-111.821
-137.645
-161.504
-183.384
-203.299
-221.286
-237.398
-251.7
-264.262
-275.159
-284.459
-292.223
-298.51
-303.371
-306.845
-308.971
-309.752
-309.22
-307.395
-304.276
-299.859
-294.14
-287.109
-278.746
-269.033
-257.938
-245.423
-231.451
-215.978
-198.956
-180.341
-160.096
-138.199
-114.651
-89.4823
-62.7604
-34.5861
-5.09608
25.5337
57.0992
89.3448
121.981
154.696
187.138
218.917
249.615
278.793
306.007
330.822
352.824
371.63
386.897
398.335
405.71
408.855
407.644
402.144
392.402
378.546
360.819
339.522
315.024
287.742
258.129
226.663
193.828
160.103
125.947
91.7885
58.0216
24.9831
-7.03042
-37.7737
-67.0545
-94.7289
-120.696
-144.892
-167.28
-187.851
-206.611
-223.588
-238.819
-252.353
-264.25
-274.579
-283.403
-290.786
-296.787
-301.449
-304.8
-306.868
-307.64
-307.14
-305.382
-302.356
-298.054
-292.468
-285.576
-277.358
-267.787
-256.836
-244.487
-230.719
-215.513
-198.856
-180.739
-161.161
-140.124
-117.646
-93.7684
-68.5359
-42.0127
-14.2977
14.4915
44.2171
74.778
106.651
138.077
169.246
199.889
229.638
258.108
284.888
309.548
331.669
350.869
366.781
379.106
387.593
392.033
392.312
387.583
378.736
365.899
349.242
329.081
305.8
279.807
251.55
221.493
190.104
157.852
125.191
92.5414
60.2852
28.917
-0.569367
-29.4465
-57.0432
-83.1643
-107.717
-130.663
-152.016
-171.825
-190.156
-207.086
-222.685
-237.018
-250.133
-262.057
-272.798
-282.348
-290.678
-297.75
-303.514
-307.914
-310.896
-312.376
-312.298
-310.504
-307.006
-301.776
-294.765
-285.96
-275.318
-262.828
-248.504
-232.351
-214.402
-194.719
-173.381
-150.481
-126.149
-100.512
-73.722
-45.9937
-17.5631
11.045
39.165
68.139
96.9685
125.347
153.034
179.626
204.801
244.893
213.279
180.582
147.138
113.343
79.5122
46.1364
13.7512
-15.5254
-45.6916
-75.0592
-103.089
-129.545
-154.305
-177.297
-198.489
-217.873
-235.469
-251.308
-265.434
-277.897
-288.749
-298.042
-305.824
-312.139
-317.028
-320.523
-322.639
-323.384
-322.678
-320.619
-317.197
-312.378
-306.133
-298.419
-289.186
-278.392
-265.979
-251.887
-236.069
-218.479
-199.081
-177.853
-154.781
-129.907
-103.295
-75.0235
-45.2207
-14.1381
17.673
50.8377
84.7433
119.058
153.394
187.364
220.609
252.731
283.322
312.016
338.441
362.248
383.129
400.798
415.017
425.6
432.383
435.276
433.958
428.707
419.536
406.551
389.963
369.996
346.899
321.01
292.683
262.285
230.224
196.898
162.715
128.065
93.3151
58.8229
24.9298
-7.93918
-39.8636
-70.5221
-99.7055
-127.247
-153.026
-176.947
-198.942
-218.971
-237.016
-253.079
-267.186
-279.38
-289.716
-298.258
-305.082
-310.262
-313.867
-315.961
-316.581
-315.782
-313.595
-310.027
-305.076
-298.734
-290.982
-281.797
-271.15
-259.012
-245.355
-230.153
-213.385
-195.035
-175.094
-153.567
-130.468
-105.829
-79.6962
-52.1406
-23.2566
6.8389
38.0789
70.0698
102.67
135.614
168.592
201.259
233.237
264.126
293.512
320.972
346.093
368.474
387.744
403.567
415.655
423.776
427.761
427.475
422.942
414.215
401.365
384.582
364.114
340.271
313.409
283.93
252.277
218.913
184.319
148.976
113.351
77.8866
42.9948
9.0272
-23.7075
-54.9565
-84.5232
-112.265
-138.088
-161.942
-183.811
-203.711
-221.681
-237.775
-252.057
-264.602
-275.482
-284.766
-292.517
-298.793
-303.645
-307.112
-309.23
-310.01
-309.475
-307.649
-304.531
-300.116
-294.401
-287.374
-279.018
-269.313
-258.227
-245.723
-231.763
-216.303
-199.294
-180.693
-160.458
-138.568
-115.023
-89.8511
-63.1185
-34.9262
-5.41004
25.2541
56.8619
89.1594
121.855
154.64
187.16
219.025
249.815
279.089
306.4
331.31
353.401
372.289
387.626
399.119
406.532
409.696
408.493
402.971
393.186
379.273
361.471
340.087
315.492
288.107
258.389
226.818
193.884
160.066
125.825
91.5924
57.7641
24.6746
-7.37824
-38.15
-67.4494
-95.1338
-121.104
-145.298
-167.68
-188.242
-206.991
-223.954
-239.17
-252.688
-264.57
-274.882
-283.691
-291.062
-297.053
-301.708
-305.055
-307.117
-307.889
-307.39
-305.631
-302.606
-298.308
-292.726
-285.841
-277.628
-268.064
-257.12
-244.778
-231.016
-215.816
-199.166
-181.055
-161.48
-140.446
-117.97
-94.0885
-68.8501
-42.3178
-14.5888
14.2183
43.9634
74.5554
106.515
137.989
169.217
199.928
229.759
258.318
285.19
309.945
332.158
351.446
367.436
379.827
388.365
392.836
393.12
388.395
379.509
366.613
349.884
329.634
306.257
280.162
251.803
221.644
190.158
157.815
125.073
92.3517
60.0368
28.631
-0.909404
-29.8095
-57.4204
-83.5457
-108.094
-131.029
-152.365
-172.155
-190.465
-207.376
-222.959
-237.279
-250.385
-262.305
-273.045
-282.597
-290.933
-298.012
-303.785
-308.196
-311.187
-312.679
-312.619
-310.835
-307.345
-302.124
-295.122
-286.325
-275.689
-263.205
-248.884
-232.731
-214.779
-195.088
-173.739
-150.824
-126.473
-100.812
-73.9951
-46.2341
-17.7646
10.8815
39.0471
68.0761
96.9606
125.396
153.143
179.796
205.03
245.136
213.42
180.622
147.081
113.192
79.264
45.7752
13.2594
-15.7745
-46.0583
-75.4948
-103.559
-130.03
-154.794
-177.782
-198.965
-218.337
-235.917
-251.739
-265.848
-278.294
-289.131
-298.409
-306.177
-312.481
-317.36
-320.846
-322.957
-323.708
-323.001
-320.944
-317.528
-312.717
-306.484
-298.783
-289.565
-278.788
-266.392
-252.317
-236.517
-218.942
-199.556
-178.337
-155.269
-130.393
-103.771
-75.4807
-45.6497
-14.5254
17.3123
50.5347
84.5095
118.903
153.325
187.387
220.73
252.953
283.646
312.442
338.964
362.863
383.828
401.57
415.849
426.478
433.294
436.201
434.883
429.604
420.394
407.355
390.7
370.65
347.459
321.47
293.037
262.534
230.369
196.942
162.666
127.928
93.0993
58.5396
24.596
-8.32299
-40.2862
-70.9772
-100.184
-127.742
-153.532
-177.458
-199.452
-219.478
-237.514
-253.564
-267.656
-279.832
-290.147
-298.67
-305.474
-310.636
-314.225
-316.305
-316.916
-316.112
-313.922
-310.354
-305.407
-299.071
-291.327
-282.151
-271.514
-259.387
-245.741
-230.55
-213.791
-195.449
-175.514
-153.992
-130.894
-106.252
-80.1111
-52.5421
-23.6388
6.47869
37.7721
69.8046
102.462
135.476
168.535
201.292
233.369
264.363
293.859
321.43
346.661
369.146
388.511
404.415
416.57
424.738
428.747
428.474
423.927
415.157
402.248
385.388
364.829
340.881
313.904
284.305
252.529
219.043
184.331
148.877
113.151
77.5979
42.632
8.60341
-24.1782
-55.4602
-85.0472
-112.798
-138.622
-162.468
-184.323
-204.206
-222.155
-238.227
-252.487
-265.01
-275.87
-285.135
-292.87
-299.133
-303.974
-307.432
-309.542
-310.318
-309.782
-307.955
-304.837
-300.425
-294.713
-287.692
-279.344
-269.648
-258.573
-246.083
-232.138
-216.694
-199.701
-181.115
-160.893
-139.012
-115.47
-90.2943
-63.5492
-35.3353
-5.78785
24.9175
56.5762
88.9359
121.704
154.572
187.186
219.154
250.055
279.444
306.871
331.895
354.095
373.08
388.501
400.061
407.521
410.708
409.511
403.963
394.128
380.145
362.254
340.765
316.053
288.545
258.7
227.004
193.949
160.02
125.678
91.3557
57.4539
24.303
-7.79689
-38.6025
-67.9241
-95.6205
-121.595
-145.786
-168.161
-188.711
-207.446
-224.394
-239.592
-253.091
-264.953
-275.246
-284.037
-291.393
-297.372
-302.018
-305.359
-307.416
-308.188
-307.688
-305.929
-302.907
-298.612
-293.036
-286.158
-277.953
-268.396
-257.461
-245.127
-231.372
-216.181
-199.538
-181.434
-161.864
-140.833
-118.358
-94.4733
-69.2277
-42.684
-14.9384
13.8904
43.6591
74.2865
106.351
137.882
169.18
199.973
229.902
258.569
285.551
310.42
332.745
352.138
368.223
380.693
389.293
393.801
394.092
389.367
380.437
367.471
350.655
330.297
306.805
280.588
252.105
221.825
190.222
157.769
124.929
92.123
59.7381
28.2858
-1.31866
-30.2461
-57.8739
-84.0042
-108.547
-131.468
-152.784
-172.55
-190.836
-207.724
-223.287
-237.591
-250.687
-262.601
-273.34
-282.896
-291.238
-298.327
-304.111
-308.534
-311.536
-313.044
-313.001
-311.23
-307.752
-302.542
-295.55
-286.762
-276.135
-263.657
-249.34
-233.187
-215.231
-195.531
-174.169
-151.235
-126.862
-101.174
-74.3234
-46.5234
-18.0077
10.6855
38.9057
68.0005
96.9507
125.454
153.273
180
205.304
245.42
213.584
180.668
147.014
113.016
78.9756
45.3546
12.6646
-16.0467
-46.4896
-76.0063
-104.109
-130.597
-155.365
-178.348
-199.521
-218.878
-236.44
-252.243
-266.332
-278.757
-289.575
-298.836
-306.589
-312.88
-317.747
-321.224
-323.33
-324.082
-323.376
-321.322
-317.913
-313.113
-306.892
-299.207
-290.008
-279.251
-266.874
-252.819
-237.039
-219.481
-200.111
-178.903
-155.839
-130.96
-104.328
-76.0151
-46.151
-14.9775
16.8889
50.1795
84.2357
118.721
153.244
187.413
220.869
253.211
284.024
312.938
339.575
363.581
384.643
402.47
416.82
427.504
434.356
437.28
435.962
430.653
421.397
408.296
391.561
371.413
348.112
322.007
293.45
262.824
230.537
196.992
162.607
127.766
92.8462
58.2084
24.2054
-8.77244
-40.7806
-71.5093
-100.744
-128.321
-154.123
-178.054
-200.048
-220.069
-238.094
-254.13
-268.204
-280.358
-290.651
-299.15
-305.932
-311.073
-314.643
-316.706
-317.308
-316.496
-314.304
-310.736
-305.793
-299.464
-291.729
-282.564
-271.94
-259.825
-246.192
-231.012
-214.264
-195.932
-176.005
-154.487
-131.392
-106.746
-80.5961
-53.0114
-24.0855
6.05549
37.4144
69.4937
102.219
135.314
168.467
201.329
233.521
264.639
294.263
321.965
347.323
369.93
389.406
405.407
417.639
425.862
429.902
429.64
425.075
416.257
403.28
386.331
365.663
341.594
314.483
284.743
252.823
219.194
184.344
148.76
112.915
77.2591
42.2067
8.10711
-24.7291
-56.0494
-85.66
-113.422
-139.245
-163.082
-184.921
-204.783
-222.708
-238.754
-252.988
-265.485
-276.322
-285.566
-293.282
-299.529
-304.358
-307.806
-309.906
-310.678
-310.14
-308.311
-305.194
-300.785
-295.078
-288.063
-279.725
-270.04
-258.978
-246.503
-232.575
-217.149
-200.176
-181.608
-161.401
-139.531
-115.993
-90.8125
-64.053
-35.8141
-6.23007
24.5232
56.2412
88.6739
121.527
154.491
187.214
219.303
250.334
279.858
307.421
332.578
354.904
374.004
389.524
401.162
408.676
411.892
410.699
405.123
395.23
381.165
363.169
341.557
316.709
289.056
259.062
227.22
194.025
159.964
125.505
91.0778
57.0903
23.8676
-8.28716
-39.1321
-68.4794
-96.1896
-122.168
-146.356
-168.722
-189.259
-207.979
-224.908
-240.085
-253.562
-265.401
-275.671
-284.441
-291.779
-297.744
-302.381
-305.715
-307.766
-308.537
-308.037
-306.278
-303.257
-298.967
-293.398
-286.528
-278.332
-268.785
-257.859
-245.534
-231.789
-216.606
-199.973
-181.876
-162.312
-141.285
-118.813
-94.9231
-69.6689
-43.1117
-15.3467
13.5075
43.3039
73.9701
106.159
137.756
169.134
200.025
230.069
258.86
285.972
310.974
333.429
352.946
369.142
381.706
390.377
394.93
395.232
390.501
381.521
368.473
351.553
331.074
307.447
281.085
252.457
222.035
190.294
157.715
124.761
91.8544
59.3886
27.88
-1.79743
-30.7565
-58.4043
-84.5403
-109.076
-131.98
-153.273
-173.011
-191.269
-208.129
-223.669
-237.955
-251.039
-262.946
-273.685
-283.244
-291.594
-298.694
-304.491
-308.928
-311.945
-313.47
-313.446
-311.691
-308.226
-303.029
-296.049
-287.273
-276.656
-264.185
-249.873
-233.72
-215.759
-196.049
-174.671
-151.716
-127.316
-101.596
-74.7072
-46.862
-18.293
10.4567
38.7406
67.9118
96.9385
125.522
153.425
180.237
205.624
245.744
213.77
180.72
146.937
112.815
78.6479
44.8775
11.9744
-16.3516
-46.9891
-76.5955
-104.74
-131.246
-156.018
-178.996
-200.157
-219.497
-237.038
-252.818
-266.884
-279.286
-290.083
-299.324
-307.06
-313.335
-318.189
-321.656
-323.756
-324.51
-323.804
-321.754
-318.353
-313.564
-307.359
-299.692
-290.513
-279.779
-267.425
-253.393
-237.637
-220.098
-200.745
-179.55
-156.492
-131.61
-104.965
-76.6269
-46.7249
-15.4949
16.4014
49.7716
83.9212
118.511
153.149
187.442
221.028
253.505
284.456
313.505
340.273
364.402
385.576
403.501
417.931
428.678
435.572
438.515
437.194
431.854
422.546
409.372
392.545
372.285
348.86
322.62
293.921
263.155
230.728
197.049
162.537
127.579
92.5555
57.8287
23.7573
-9.28775
-41.3475
-72.1188
-101.384
-128.984
-154.8
-178.737
-200.731
-220.746
-238.759
-254.778
-268.832
-280.961
-291.227
-299.7
-306.456
-311.573
-315.12
-317.165
-317.755
-316.935
-314.739
-311.173
-306.235
-299.914
-292.189
-283.036
-272.426
-260.326
-246.707
-231.542
-214.806
-196.484
-176.567
-155.055
-131.961
-107.311
-81.1514
-53.5488
-24.5971
5.56834
37.0054
69.136
101.938
135.126
168.387
201.369
233.694
264.954
294.724
322.575
348.08
370.826
390.43
406.541
418.863
427.15
431.225
430.975
426.389
417.517
404.461
387.409
366.618
342.408
315.144
285.243
253.158
219.364
184.356
148.624
112.645
76.8692
41.7183
7.53741
-25.3611
-56.725
-86.3624
-114.137
-139.959
-163.786
-185.606
-205.444
-223.341
-239.357
-253.56
-266.03
-276.838
-286.057
-293.753
-299.982
-304.797
-308.232
-310.323
-311.089
-310.548
-308.718
-305.602
-301.197
-295.495
-288.488
-280.16
-270.488
-259.441
-246.983
-233.075
-217.67
-200.719
-182.172
-161.983
-140.126
-116.592
-91.4061
-64.6304
-36.3629
-6.73736
24.0707
55.8562
88.3729
121.322
154.397
187.245
219.473
250.651
280.33
308.049
333.359
355.83
375.061
390.694
402.422
409.999
413.247
412.059
406.45
396.491
382.332
364.216
342.464
317.459
289.639
259.475
227.466
194.11
159.899
125.304
90.7581
56.6722
23.3676
-8.84987
-39.7394
-69.1157
-96.8415
-122.824
-147.008
-169.364
-189.887
-208.588
-225.495
-240.648
-254.1
-265.913
-276.157
-284.902
-292.22
-298.169
-302.794
-306.121
-308.167
-308.936
-308.435
-306.676
-303.658
-299.373
-293.812
-286.951
-278.765
-269.229
-258.314
-246
-232.265
-217.092
-200.47
-182.382
-162.824
-141.803
-119.332
-95.4382
-70.1742
-43.6011
-15.814
13.0694
42.8977
73.6045
105.939
137.611
169.079
200.082
230.258
259.192
286.453
311.606
334.212
353.87
370.194
382.864
391.618
396.224
396.544
391.799
382.76
369.621
352.581
331.966
308.181
281.653
252.859
222.273
190.376
157.651
124.566
91.5452
58.9874
27.4125
-2.34603
-31.3414
-59.012
-85.1543
-109.682
-132.567
-153.832
-173.539
-191.763
-208.592
-224.106
-238.371
-251.441
-263.341
-274.078
-283.642
-292.001
-299.113
-304.925
-309.379
-312.413
-313.957
-313.953
-312.218
-308.768
-303.586
-296.621
-287.857
-277.251
-264.79
-250.482
-234.33
-216.363
-196.641
-175.245
-152.266
-127.836
-102.079
-75.1471
-47.2504
-18.6211
10.1946
38.552
67.8101
96.9237
125.598
153.598
180.507
205.989
246.108
213.978
180.777
146.849
112.588
78.2816
44.3476
11.1956
-16.6979
-47.5615
-77.2644
-105.454
-131.979
-156.755
-179.727
-200.873
-220.193
-237.711
-253.466
-267.505
-279.882
-290.654
-299.873
-307.589
-313.847
-318.687
-322.142
-324.235
-324.989
-324.285
-322.24
-318.847
-314.071
-307.884
-300.237
-291.082
-280.373
-268.046
-254.039
-238.309
-220.793
-201.46
-180.28
-157.227
-132.342
-105.683
-77.3167
-47.371
-16.0784
15.8483
49.3101
83.5656
118.273
153.04
187.472
221.206
253.835
284.941
314.143
341.058
365.326
386.627
404.661
419.182
429.999
436.94
439.907
438.581
433.207
423.84
410.585
393.654
373.267
349.701
323.309
294.451
263.525
230.941
197.111
162.457
127.366
92.2265
57.3999
23.2504
-9.86896
-41.9877
-72.8064
-102.107
-129.731
-155.562
-179.506
-201.5
-221.508
-239.508
-255.508
-269.538
-281.64
-291.876
-300.318
-307.045
-312.134
-315.657
-317.681
-318.257
-317.429
-315.229
-311.664
-306.731
-300.42
-292.707
-283.568
-272.973
-260.889
-247.287
-232.137
-215.416
-197.107
-177.2
-155.694
-132.602
-107.948
-81.7776
-54.155
-25.1735
5.0198
36.5416
68.7304
101.62
134.913
168.294
201.413
233.887
265.306
295.242
323.261
348.932
371.836
391.583
407.82
420.242
428.601
432.718
432.479
427.869
418.938
405.793
388.625
367.694
343.325
315.888
285.805
253.533
219.555
184.368
148.469
112.337
76.4274
41.1659
6.89323
-26.0751
-57.4878
-87.1551
-114.942
-140.764
-164.579
-186.378
-206.188
-224.054
-240.036
-254.205
-266.642
-277.419
-286.611
-294.283
-300.492
-305.289
-308.712
-310.792
-311.552
-311.008
-309.175
-306.062
-301.66
-295.964
-288.966
-280.649
-270.991
-259.961
-247.523
-233.638
-218.257
-201.331
-182.807
-162.639
-140.796
-117.267
-92.0759
-65.2819
-36.9828
-7.31046
23.5593
55.4206
88.0319
121.089
154.289
187.278
219.661
251.007
280.859
308.755
334.238
356.872
376.252
392.013
403.843
411.491
414.776
413.591
407.945
397.913
383.647
365.397
343.485
318.303
290.295
259.939
227.74
194.202