/*--------------------------------*- C++ -*----------------------------------*\
| =========                 |                                                 |
| \\      /  F ield         | OpenFOAM: The Open Source CFD Toolbox           |
|  \\    /   O peration     | Version:  3.0.1                                 |
|   \\  /    A nd           | Web:      www.OpenFOAM.org                      |
|    \\/     M anipulation  |                                                 |
\*---------------------------------------------------------------------------*/
FoamFile
{
    version     2.0;
    format      ascii;
    class       surfaceScalarField;
    location    "18.4";
    object      phi;
}
// * * * * * * * * * * * * * * * * * * * * * * * * * * * * * * * * * * * * * //

dimensions      [0 3 -1 0 0 0 0];

internalField   nonuniform List<scalar> 
42423
(
0.000106479
1.77707e-05
8.83774e-05
1.81012e-05
6.97747e-05
1.86027e-05
5.08653e-05
1.89094e-05
3.19654e-05
1.88999e-05
1.31791e-05
1.87863e-05
-5.10721e-06
1.82863e-05
-2.28994e-05
1.77922e-05
-3.99648e-05
1.70654e-05
-5.61645e-05
1.61997e-05
-7.14607e-05
1.52961e-05
-8.57584e-05
1.42978e-05
-9.90214e-05
1.3263e-05
-0.000111263
1.2242e-05
-0.000122467
1.12037e-05
-0.00013266
1.01933e-05
-0.00014184
9.18011e-06
-0.000150045
8.20414e-06
-0.000157306
7.2611e-06
-0.000163662
6.35654e-06
-0.000169155
5.49308e-06
-0.000173809
4.65373e-06
-0.000177655
3.84586e-06
-0.000180733
3.07828e-06
-0.000183046
2.31295e-06
-0.000184643
1.59636e-06
-0.000185565
9.22121e-07
-0.000185802
2.36903e-07
-0.00018527
-5.31384e-07
-0.000184026
-1.24454e-06
-0.000182112
-1.91321e-06
-0.00017939
-2.72269e-06
-0.000175921
-3.46892e-06
-0.00017163
-4.29061e-06
-0.000166605
-5.02555e-06
-0.000160811
-5.79348e-06
-0.00015409
-6.72087e-06
-0.000146534
-7.5564e-06
-0.000138091
-8.44287e-06
-0.000128528
-9.56271e-06
-0.000118058
-1.04699e-05
-0.00010642
-1.16383e-05
-9.38589e-05
-1.25613e-05
-8.04444e-05
-1.34145e-05
-6.59733e-05
-1.44712e-05
-5.05726e-05
-1.54007e-05
-3.42026e-05
-1.637e-05
-1.71201e-05
-1.70825e-05
7.52986e-07
-1.78731e-05
1.90122e-05
-1.82593e-05
3.77645e-05
-1.87523e-05
5.66986e-05
-1.89342e-05
7.56867e-05
-1.89881e-05
9.45294e-05
-1.88428e-05
0.000112833
-1.83035e-05
0.000130446
-1.76133e-05
0.000147178
-1.67321e-05
0.00016266
-1.54822e-05
0.000176762
-1.4102e-05
0.000189221
-1.2459e-05
0.000199915
-1.06938e-05
0.00020871
-8.79499e-06
0.000215294
-6.58347e-06
0.000219654
-4.36019e-06
0.000221722
-2.06835e-06
0.000221297
4.2533e-07
0.000218498
2.79891e-06
0.000213329
5.1691e-06
0.000205959
7.37e-06
0.000196429
9.53023e-06
0.000184908
1.15201e-05
0.000171545
1.33639e-05
0.000156558
1.49861e-05
0.000140213
1.63455e-05
0.000122745
1.74679e-05
0.000104363
1.83824e-05
8.53798e-05
1.89828e-05
6.59821e-05
1.93977e-05
4.64386e-05
1.95435e-05
2.68791e-05
1.95594e-05
7.5587e-06
1.93204e-05
-1.12616e-05
1.88203e-05
-2.95259e-05
1.82644e-05
-4.70367e-05
1.75108e-05
-6.36299e-05
1.65933e-05
-7.92929e-05
1.56629e-05
-9.39688e-05
1.46759e-05
-0.00010752
1.35508e-05
-0.000119895
1.23751e-05
-0.000131091
1.11958e-05
-0.000141136
1.00459e-05
-0.000150076
8.93982e-06
-0.000157882
7.80524e-06
-0.000164443
6.56108e-06
-0.000169989
5.54675e-06
-0.000174428
4.43891e-06
-0.000178088
3.65989e-06
-0.000180848
2.75941e-06
-0.000182736
1.88863e-06
-0.000184039
1.30314e-06
-0.000184752
7.1283e-07
-0.000184614
-1.38585e-07
-0.00018388
-7.3388e-07
-0.000182564
-1.31616e-06
-0.000180528
-2.036e-06
-0.000177874
-2.65315e-06
-0.000174588
-3.28601e-06
-0.000170624
-3.96468e-06
-0.000166018
-4.60542e-06
-0.000160698
-5.31994e-06
-0.000154595
-6.10355e-06
-0.000147693
-6.90141e-06
-0.000139956
-7.73728e-06
-0.00013138
-8.57614e-06
-0.000121914
-9.46612e-06
-0.000111488
-1.04262e-05
-0.000100207
-1.12811e-05
-8.79295e-05
-1.22772e-05
-7.48064e-05
-1.31232e-05
-6.07728e-05
-1.40336e-05
-4.58624e-05
-1.49104e-05
-3.0123e-05
-1.57395e-05
-1.36617e-05
-1.64612e-05
3.42208e-06
-1.70839e-05
2.1023e-05
-1.76009e-05
3.8969e-05
-1.79461e-05
5.71439e-05
-1.81749e-05
7.53381e-05
-1.81942e-05
9.33861e-05
-1.8048e-05
0.000111065
-1.76788e-05
0.00012812
-1.70549e-05
0.0001443
-1.61807e-05
0.000159457
-1.51563e-05
0.000173262
-1.38053e-05
0.000185449
-1.2187e-05
0.000195844
-1.03949e-05
0.000204241
-8.39692e-06
0.000210444
-6.20308e-06
0.000214318
-3.87391e-06
0.000215764
-1.44598e-06
0.000214815
9.48796e-07
0.000211342
3.47263e-06
0.000205436
5.90636e-06
0.00019722
8.21601e-06
0.000186802
1.04177e-05
0.000174416
1.23859e-05
0.000160331
1.40854e-05
0.000144738
1.55922e-05
0.00012782
1.69183e-05
0.00010983
1.79905e-05
9.10917e-05
1.8738e-05
7.1946e-05
1.91456e-05
5.248e-05
1.9466e-05
3.3026e-05
1.9454e-05
1.39113e-05
1.91148e-05
-4.81358e-06
1.87249e-05
-2.29429e-05
1.81293e-05
-4.02585e-05
1.73156e-05
-5.68233e-05
1.65648e-05
-7.23624e-05
1.55392e-05
-8.68563e-05
1.44938e-05
-0.000100393
1.35368e-05
-0.000112759
1.2366e-05
-0.000124064
1.13047e-05
-0.000134282
1.02187e-05
-0.000143438
9.15558e-06
-0.000151573
8.13514e-06
-0.000158665
7.09171e-06
-0.000164738
6.07346e-06
-0.000169972
5.23402e-06
-0.000174275
4.30324e-06
-0.000177517
3.24171e-06
-0.000180044
2.52691e-06
-0.000181869
1.8245e-06
-0.000182752
8.82962e-07
-0.000182926
1.74327e-07
-0.000181982
-9.4371e-07
-0.00018039
-1.59183e-06
-0.000178216
-2.17454e-06
-0.000175218
-2.99746e-06
-0.000171499
-3.71974e-06
-0.000167141
-4.35748e-06
-0.000162148
-4.99287e-06
-0.000156476
-5.67198e-06
-0.000150083
-6.39304e-06
-0.000142987
-7.09681e-06
-0.000135235
-7.75173e-06
-0.000126737
-8.49748e-06
-0.000117525
-9.21216e-06
-0.000107573
-9.9517e-06
-9.68941e-05
-1.06794e-05
-8.54065e-05
-1.14876e-05
-7.31614e-05
-1.22452e-05
-6.00735e-05
-1.30879e-05
-4.61777e-05
-1.38959e-05
-3.15435e-05
-1.46342e-05
-1.61535e-05
-1.539e-05
-3.01684e-08
-1.61233e-05
1.67405e-05
-1.67707e-05
3.40905e-05
-1.735e-05
5.18563e-05
-1.77658e-05
6.98757e-05
-1.80195e-05
8.79471e-05
-1.80715e-05
0.000105843
-1.78957e-05
0.000123394
-1.75512e-05
0.000140165
-1.67708e-05
0.000155942
-1.57771e-05
0.000170453
-1.4511e-05
0.00018336
-1.29076e-05
0.000194395
-1.10344e-05
0.000203301
-8.906e-06
0.00020988
-6.57915e-06
0.000213975
-4.095e-06
0.000215488
-1.51303e-06
0.000214418
1.06993e-06
0.000210687
3.73079e-06
0.000204502
6.18459e-06
0.00019592
8.58274e-06
0.000185127
1.07923e-05
0.000172366
1.27611e-05
0.000157893
1.44728e-05
0.000142086
1.58071e-05
0.000124985
1.71015e-05
0.000107132
1.78526e-05
8.88606e-05
1.82716e-05
7.02865e-05
1.85741e-05
5.16863e-05
1.86002e-05
3.3327e-05
1.83593e-05
1.52791e-05
1.80478e-05
-2.09864e-06
1.73778e-05
-1.88812e-05
1.67825e-05
-3.49072e-05
1.6026e-05
-4.99803e-05
1.50731e-05
-6.41847e-05
1.42045e-05
-7.7491e-05
1.33062e-05
-8.99149e-05
1.24239e-05
-0.000101478
1.15627e-05
-0.000112086
1.06084e-05
-0.000121896
9.81033e-06
-0.000130918
9.02198e-06
-0.000139175
8.25724e-06
-0.000146627
7.45147e-06
-0.000153482
6.85496e-06
-0.0001596
6.11836e-06
-0.000164933
5.33238e-06
-0.000169653
4.72065e-06
-0.000173437
3.78328e-06
-0.000176629
3.19262e-06
-0.000179215
2.58599e-06
-0.000180914
1.69841e-06
-0.000181909
9.95107e-07
-0.000182206
2.96876e-07
-0.000181879
-3.26946e-07
-0.000180711
-1.1675e-06
-0.00017855
-2.16117e-06
-0.000175656
-2.89437e-06
-0.000171982
-3.67317e-06
-0.000167414
-4.56807e-06
-0.000161956
-5.45875e-06
-0.000155629
-6.32689e-06
-0.000148321
-7.30735e-06
-0.000140083
-8.23845e-06
-0.000130898
-9.18526e-06
-0.000120693
-1.0205e-05
-0.000109524
-1.11692e-05
-9.73341e-05
-1.21895e-05
-8.42435e-05
-1.30905e-05
-7.01754e-05
-1.40682e-05
-5.5253e-05
-1.49224e-05
-3.95428e-05
-1.57102e-05
-2.31181e-05
-1.64247e-05
-6.07313e-06
-1.7045e-05
1.14477e-05
-1.75209e-05
2.93297e-05
-1.7882e-05
4.74172e-05
-1.80875e-05
6.54849e-05
-1.80677e-05
8.33503e-05
-1.78654e-05
0.000100873
-1.75229e-05
0.00011782
-1.69469e-05
0.000133967
-1.61473e-05
0.000149114
-1.51463e-05
0.000163051
-1.39373e-05
0.000175649
-1.25978e-05
0.000186614
-1.09652e-05
0.000195893
-9.2792e-06
0.000203199
-7.30601e-06
0.000208405
-5.20567e-06
0.000211487
-3.08184e-06
0.000212349
-8.62577e-07
0.000210923
1.42577e-06
0.000207113
3.81059e-06
0.000201031
6.08211e-06
0.000192763
8.2679e-06
0.000182433
1.033e-05
0.000170165
1.22676e-05
0.00015617
1.39953e-05
0.000140667
1.55024e-05
0.000123909
1.67588e-05
0.000106187
1.77211e-05
8.77179e-05
1.84696e-05
6.87822e-05
1.89356e-05
4.96393e-05
1.91429e-05
3.04246e-05
1.92147e-05
1.16338e-05
1.87908e-05
-6.79212e-06
1.84259e-05
-2.46016e-05
1.78095e-05
-4.16327e-05
1.7031e-05
-5.77833e-05
1.61506e-05
-7.294e-05
1.51567e-05
-8.70651e-05
1.41251e-05
-0.000100085
1.30195e-05
-0.00011199
1.19055e-05
-0.000122788
1.07983e-05
-0.000132464
9.67595e-06
-0.000141033
8.56854e-06
-0.000148531
7.49805e-06
-0.000154983
6.45225e-06
-0.000160437
5.45356e-06
-0.000164922
4.48535e-06
-0.000168478
3.55545e-06
-0.000171169
2.69102e-06
-0.000173029
1.86001e-06
-0.000174107
1.07802e-06
-0.000174461
3.53996e-07
-0.000173974
-4.87074e-07
-0.00017273
-1.24368e-06
-0.000170756
-1.97356e-06
-0.000168068
-2.68784e-06
-0.000164723
-3.34594e-06
-0.000160727
-3.99554e-06
-0.000155973
-4.75446e-06
-0.000150547
-5.4257e-06
-0.000144499
-6.04737e-06
-0.000137698
-6.80149e-06
-0.00013025
-7.44826e-06
-0.000122058
-8.19164e-06
-0.000113154
-8.90424e-06
-0.000103617
-9.53681e-06
-9.33095e-05
-1.03076e-05
-8.22983e-05
-1.10112e-05
-7.06996e-05
-1.15987e-05
-5.8383e-05
-1.23166e-05
-4.55203e-05
-1.28628e-05
-3.19497e-05
-1.35706e-05
-1.78286e-05
-1.41211e-05
-3.28095e-06
-1.45477e-05
1.17867e-05
-1.50677e-05
2.72372e-05
-1.54506e-05
4.29062e-05
-1.5669e-05
5.88106e-05
-1.59044e-05
7.47185e-05
-1.59079e-05
9.05541e-05
-1.58357e-05
0.000106063
-1.55084e-05
0.000120993
-1.49308e-05
0.000135277
-1.42833e-05
0.000148645
-1.33689e-05
-1.24777e-05
0.000106502
3.55487e-05
8.83941e-05
3.62094e-05
6.9783e-05
3.72138e-05
5.08644e-05
3.7828e-05
3.19574e-05
3.78068e-05
1.31622e-05
3.75816e-05
-5.12901e-06
3.65775e-05
-2.29271e-05
3.55902e-05
-3.99975e-05
3.41359e-05
-5.62021e-05
3.24043e-05
-7.15046e-05
3.05986e-05
-8.58074e-05
2.86005e-05
-9.9072e-05
2.65276e-05
-0.000111313
2.44831e-05
-0.000122518
2.24085e-05
-0.000132712
2.03874e-05
-0.000141894
1.83622e-05
-0.0001501
1.64096e-05
-0.000157367
1.4528e-05
-0.00016373
1.27202e-05
-0.000169221
1.09843e-05
-0.000173872
9.30428e-06
-0.000177715
7.68882e-06
-0.000180791
6.15437e-06
-0.000183108
4.62947e-06
-0.000184709
3.19792e-06
-0.000185625
1.83771e-06
-0.000185855
4.67519e-07
-0.000185325
-1.06209e-06
-0.00018408
-2.48962e-06
-0.000182166
-3.82632e-06
-0.00017945
-5.43945e-06
-0.00017598
-6.93871e-06
-0.000171689
-8.5815e-06
-0.000166663
-1.00512e-05
-0.000160871
-1.15859e-05
-0.00015415
-1.34418e-05
-0.000146592
-1.51149e-05
-0.00013816
-1.68748e-05
-0.000128595
-1.91276e-05
-0.000118126
-2.09389e-05
-0.000106488
-2.32765e-05
-9.39215e-05
-2.51277e-05
-8.05046e-05
-2.68315e-05
-6.60287e-05
-2.89471e-05
-5.06081e-05
-3.08214e-05
-3.4254e-05
-3.27241e-05
-1.7161e-05
-3.41755e-05
7.16414e-07
-3.57506e-05
1.89855e-05
-3.65284e-05
3.77438e-05
-3.75106e-05
5.66828e-05
-3.78732e-05
7.56837e-05
-3.7989e-05
9.45507e-05
-3.77099e-05
0.000112873
-3.66261e-05
0.000130496
-3.52366e-05
0.000147242
-3.34778e-05
0.000162723
-3.0963e-05
0.000176823
-2.82018e-05
0.000189298
-2.49343e-05
0.000200017
-2.14131e-05
0.000208829
-1.76069e-05
0.000215407
-1.31616e-05
0.000219776
-8.72911e-06
0.000221856
-4.14826e-06
0.000221424
8.5737e-07
0.000218623
5.59984e-06
0.000213455
1.0337e-05
0.000206081
1.47441e-05
0.000196543
1.90681e-05
0.000185014
2.30492e-05
0.000171639
2.6739e-05
0.000156639
2.99861e-05
0.000140276
3.27079e-05
0.000122791
3.49533e-05
0.000104396
3.67771e-05
8.53969e-05
3.79819e-05
6.59873e-05
3.88073e-05
4.6422e-05
3.91088e-05
2.68501e-05
3.91313e-05
7.51928e-06
3.86513e-05
-1.13214e-05
3.76609e-05
-2.95976e-05
3.65406e-05
-4.71099e-05
3.50231e-05
-6.37123e-05
3.31956e-05
-7.93799e-05
3.13306e-05
-9.4055e-05
2.93511e-05
-0.000107609
2.71052e-05
-0.000119989
2.47552e-05
-0.000131191
2.2397e-05
-0.000141237
2.00922e-05
-0.000150176
1.78789e-05
-0.000157978
1.56077e-05
-0.000164528
1.31106e-05
-0.00017007
1.10888e-05
-0.000174508
8.87677e-06
-0.000178171
7.32346e-06
-0.000180931
5.5192e-06
-0.000182809
3.76666e-06
-0.000184104
2.59744e-06
-0.000184827
1.43599e-06
-0.00018468
-2.84884e-07
-0.00018393
-1.48485e-06
-0.000182622
-2.6232e-06
-0.000180575
-4.08355e-06
-0.000177926
-5.30242e-06
-0.000174641
-6.57119e-06
-0.000170671
-7.93408e-06
-0.00016607
-9.2065e-06
-0.000160751
-1.06389e-05
-0.000154637
-1.22173e-05
-0.000147731
-1.38076e-05
-0.000139991
-1.54775e-05
-0.000131415
-1.71524e-05
-0.000121938
-1.89431e-05
-0.000111512
-2.08521e-05
-0.000100242
-2.2551e-05
-8.7963e-05
-2.45563e-05
-7.48305e-05
-2.62557e-05
-6.07887e-05
-2.80755e-05
-4.58764e-05
-2.98227e-05
-3.0131e-05
-3.1485e-05
-1.36651e-05
-3.29272e-05
3.4355e-06
-3.41845e-05
2.10467e-05
-3.52122e-05
3.89941e-05
-3.58935e-05
5.71801e-05
-3.6361e-05
7.53834e-05
-3.63976e-05
9.34428e-05
-3.61074e-05
0.000111137
-3.53732e-05
0.000128203
-3.41211e-05
0.00014439
-3.23675e-05
0.00015956
-3.03263e-05
0.000173376
-2.7621e-05
0.00018558
-2.43917e-05
0.000195988
-2.08025e-05
0.000204392
-1.68007e-05
0.000210591
-1.24021e-05
0.00021447
-7.7529e-06
0.000215929
-2.90529e-06
0.000214954
1.92354e-06
0.000211472
6.95444e-06
0.000205559
1.18193e-05
0.000197327
1.64482e-05
0.0001869
2.0845e-05
0.000174499
2.47869e-05
0.000160398
2.81867e-05
0.000144786
3.1204e-05
0.000127839
3.3865e-05
0.00010985
3.59796e-05
9.11007e-05
3.74874e-05
7.19394e-05
3.83069e-05
5.2453e-05
3.89525e-05
3.29864e-05
3.89206e-05
1.38596e-05
3.82416e-05
-4.88215e-06
3.74666e-05
-2.30201e-05
3.62673e-05
-4.03426e-05
3.46381e-05
-5.69199e-05
3.31421e-05
-7.24472e-05
3.10666e-05
-8.69436e-05
2.89903e-05
-0.000100482
2.70756e-05
-0.000112852
2.47359e-05
-0.000124163
2.26152e-05
-0.000134372
2.04276e-05
-0.000143533
1.83163e-05
-0.000151669
1.62713e-05
-0.000158751
1.41743e-05
-0.00016482
1.21425e-05
-0.000170062
1.0476e-05
-0.000174368
8.60929e-06
-0.000177606
6.47914e-06
-0.000180113
5.03444e-06
-0.000181936
3.64736e-06
-0.000182815
1.76226e-06
-0.000183002
3.61039e-07
-0.000182056
-1.88947e-06
-0.000180448
-3.19986e-06
-0.000178269
-4.3539e-06
-0.00017527
-5.99637e-06
-0.000171551
-7.43911e-06
-0.000167188
-8.72064e-06
-0.000162191
-9.98955e-06
-0.000156518
-1.13449e-05
-0.000150126
-1.27852e-05
-0.000143021
-1.42022e-05
-0.000135258
-1.55139e-05
-0.000126772
-1.6984e-05
-0.000117554
-1.843e-05
-0.000107594
-1.99116e-05
-9.69183e-05
-2.13554e-05
-8.54211e-05
-2.29849e-05
-7.3174e-05
-2.44924e-05
-6.00875e-05
-2.61744e-05
-4.61939e-05
-2.77896e-05
-3.15538e-05
-2.92744e-05
-1.6156e-05
-3.07879e-05
-2.76103e-08
-3.22518e-05
1.67479e-05
-3.35463e-05
3.41086e-05
-3.47109e-05
5.18936e-05
-3.55509e-05
6.99236e-05
-3.60496e-05
8.80015e-05
-3.61495e-05
0.000105901
-3.57954e-05
0.000123467
-3.51168e-05
0.000140252
-3.35564e-05
0.000156049
-3.15737e-05
0.000170574
-2.90363e-05
0.000183492
-2.58259e-05
0.000194534
-2.2076e-05
0.00020346
-1.78321e-05
0.000210038
-1.31578e-05
0.000214132
-8.18913e-06
0.000215655
-3.03555e-06
0.000214564
2.16043e-06
0.000210825
7.46997e-06
0.000204633
1.23761e-05
0.000196042
1.71745e-05
0.000185225
2.16085e-05
0.000172448
2.55381e-05
0.000157954
2.89676e-05
0.000142134
3.1627e-05
0.000125024
3.4211e-05
0.000107142
3.57351e-05
8.88552e-05
3.6558e-05
7.02649e-05
3.71644e-05
5.16456e-05
3.72195e-05
3.32719e-05
3.6733e-05
1.52215e-05
3.60983e-05
-2.165e-06
3.47643e-05
-1.89566e-05
3.35742e-05
-3.49858e-05
3.20552e-05
-5.00661e-05
3.01533e-05
-6.42738e-05
2.84122e-05
-7.7576e-05
2.66084e-05
-8.99908e-05
2.48387e-05
-0.000101563
2.31344e-05
-0.000112173
2.12191e-05
-0.000121987
1.96237e-05
-0.000131001
1.80364e-05
-0.000139247
1.6503e-05
-0.000146698
1.4903e-05
-0.000153558
1.37146e-05
-0.00015968
1.22401e-05
-0.000165009
1.06613e-05
-0.000169725
9.43692e-06
-0.0001735
7.55888e-06
-0.000176697
6.38947e-06
-0.000179299
5.18754e-06
-0.000181003
3.40256e-06
-0.000181976
1.96817e-06
-0.00018227
5.90925e-07
-0.000181947
-6.50316e-07
-0.000180777
-2.33758e-06
-0.000178604
-4.33375e-06
-0.000175713
-5.78526e-06
-0.000172037
-7.34945e-06
-0.000167472
-9.13342e-06
-0.000162007
-1.09234e-05
-0.000155677
-1.26567e-05
-0.00014837
-1.46148e-05
-0.000140134
-1.64746e-05
-0.000130948
-1.83706e-05
-0.000120735
-2.04181e-05
-0.000109559
-2.23459e-05
-9.73685e-05
-2.43796e-05
-8.42835e-05
-2.61756e-05
-7.02016e-05
-2.81501e-05
-5.52764e-05
-2.98477e-05
-3.95691e-05
-3.14175e-05
-2.31299e-05
-3.2864e-05
-6.07632e-06
-3.40986e-05
1.14603e-05
-3.50575e-05
2.93466e-05
-3.57684e-05
4.7439e-05
-3.61799e-05
6.55199e-05
-3.61487e-05
8.33949e-05
-3.57405e-05
0.000100926
-3.50544e-05
0.000117876
-3.38966e-05
0.000134032
-3.2303e-05
0.000149186
-3.03006e-05
0.00016313
-2.78818e-05
0.000175737
-2.52044e-05
0.000186708
-2.19363e-05
0.000195999
-1.85705e-05
0.000203316
-1.46233e-05
0.000208526
-1.04154e-05
0.000211611
-6.16643e-06
0.000212481
-1.73296e-06
0.000211047
2.8595e-06
0.00020724
7.61795e-06
0.000201159
1.21632e-05
0.000192886
1.65402e-05
0.000182549
2.06673e-05
0.000170272
2.45445e-05
0.000156267
2.80008e-05
0.000140752
3.10171e-05
0.000123981
3.35297e-05
0.000106249
3.54533e-05
8.77639e-05
3.69545e-05
6.88138e-05
3.78857e-05
4.96583e-05
3.82984e-05
3.04294e-05
3.84436e-05
1.16306e-05
3.75896e-05
-6.80538e-06
3.68619e-05
-2.46251e-05
3.56293e-05
-4.16652e-05
3.40711e-05
-5.78238e-05
3.23092e-05
-7.29856e-05
3.03185e-05
-8.71163e-05
2.82559e-05
-0.000100144
2.60468e-05
-0.000112054
2.38159e-05
-0.000122852
2.15964e-05
-0.000132526
1.93498e-05
-0.000141094
1.71365e-05
-0.000148592
1.49962e-05
-0.000155044
1.29044e-05
-0.000160497
1.09063e-05
-0.000164982
8.9704e-06
-0.00016854
7.11398e-06
-0.00017123
5.38097e-06
-0.000173091
3.7202e-06
-0.000174167
2.15427e-06
-0.000174518
7.05422e-07
-0.000174029
-9.76291e-07
-0.00017278
-2.4931e-06
-0.000170809
-3.94379e-06
-0.000168121
-5.37625e-06
-0.000164774
-6.69266e-06
-0.000160777
-7.99258e-06
-0.000156024
-9.50727e-06
-0.000150597
-1.08529e-05
-0.00014455
-1.2095e-05
-0.000137747
-1.36042e-05
-0.000130297
-1.48985e-05
-0.000122103
-1.63851e-05
-0.000113198
-1.78095e-05
-0.000103661
-1.90739e-05
-9.33531e-05
-2.06153e-05
-8.23392e-05
-2.20252e-05
-7.07397e-05
-2.31982e-05
-5.84151e-05
-2.46412e-05
-4.55481e-05
-2.57298e-05
-3.1974e-05
-2.71448e-05
-1.78498e-05
-2.82453e-05
-3.30632e-06
-2.90913e-05
1.17616e-05
-3.01357e-05
2.72171e-05
-3.09061e-05
4.28836e-05
-3.13356e-05
5.87857e-05
-3.18066e-05
7.46985e-05
-3.18207e-05
9.05435e-05
-3.16808e-05
0.000106065
-3.10296e-05
0.000121009
-2.98752e-05
0.000135305
-2.85796e-05
0.000148687
-2.67512e-05
-2.49635e-05
0.000106546
5.33444e-05
8.84221e-05
5.43335e-05
6.97937e-05
5.58422e-05
5.0857e-05
5.67647e-05
3.19372e-05
5.67265e-05
1.31272e-05
5.63915e-05
-5.17791e-06
5.48827e-05
-2.29907e-05
5.3403e-05
-4.00718e-05
5.1217e-05
-5.62824e-05
4.86149e-05
-7.15894e-05
4.59056e-05
-8.58969e-05
4.29081e-05
-9.91689e-05
3.97995e-05
-0.000111413
3.67275e-05
-0.000122618
3.36132e-05
-0.000132813
3.05824e-05
-0.000141997
2.75459e-05
-0.000150205
2.4618e-05
-0.000157471
2.17938e-05
-0.000163828
1.90769e-05
-0.000169321
1.64772e-05
-0.000173973
1.39566e-05
-0.000177817
1.1533e-05
-0.000180899
9.23599e-06
-0.000183211
6.94133e-06
-0.000184805
4.79258e-06
-0.000185708
2.74055e-06
-0.00018592
6.7984e-07
-0.00018538
-1.60245e-06
-0.000184134
-3.73583e-06
-0.000182222
-5.73848e-06
-0.000179515
-8.14635e-06
-0.000176043
-1.0411e-05
-0.000171751
-1.28728e-05
-0.000166727
-1.50752e-05
-0.000160937
-1.73764e-05
-0.000154217
-2.0162e-05
-0.000146658
-2.26735e-05
-0.000138243
-2.529e-05
-0.000128675
-2.86953e-05
-0.000118209
-3.14046e-05
-0.000106573
-3.49129e-05
-9.40023e-05
-3.76986e-05
-8.05828e-05
-4.0251e-05
-6.61011e-05
-4.34288e-05
-5.06676e-05
-4.62549e-05
-3.43202e-05
-4.90715e-05
-1.72159e-05
-5.12799e-05
6.72266e-07
-5.36389e-05
1.89521e-05
-5.48082e-05
3.77242e-05
-5.62828e-05
5.66773e-05
-5.68264e-05
7.56975e-05
-5.70092e-05
9.45824e-05
-5.65948e-05
0.00011292
-5.49635e-05
0.00013056
-5.28771e-05
0.000147326
-5.02438e-05
0.000162818
-4.64552e-05
0.000176937
-4.23204e-05
0.000189419
-3.74168e-05
0.000200142
-3.21358e-05
0.000208976
-2.64406e-05
0.000215569
-1.9755e-05
0.000219941
-1.31014e-05
0.000222025
-6.23196e-06
0.000221589
1.29333e-06
0.000218786
8.40258e-06
0.000213625
1.54977e-05
0.000206247
2.21223e-05
0.000196698
2.86167e-05
0.000185156
3.45911e-05
0.000171763
4.01322e-05
0.000156743
4.50064e-05
0.000140363
4.90874e-05
0.000122857
5.24599e-05
0.000104447
5.51868e-05
8.54301e-05
5.6999e-05
6.60024e-05
5.82351e-05
4.64158e-05
5.86953e-05
2.68245e-05
5.87227e-05
7.47705e-06
5.79987e-05
-1.13601e-05
5.64981e-05
-2.96676e-05
5.48481e-05
-4.71904e-05
5.25459e-05
-6.37956e-05
4.98008e-05
-7.94611e-05
4.69961e-05
-9.41365e-05
4.40265e-05
-0.000107691
4.06597e-05
-0.000120076
3.71404e-05
-0.000131283
3.3604e-05
-0.00014133
3.01394e-05
-0.000150278
2.68266e-05
-0.000158065
2.33949e-05
-0.000164621
1.96669e-05
-0.000170155
1.66222e-05
-0.000174575
1.32968e-05
-0.000178247
1.09955e-05
-0.000181005
8.27713e-06
-0.00018287
5.63136e-06
-0.000184177
3.90462e-06
-0.000184897
2.15611e-06
-0.000184744
-4.37677e-07
-0.000184002
-2.22745e-06
-0.000182682
-3.94227e-06
-0.000180611
-6.15475e-06
-0.000177973
-7.94074e-06
-0.000174697
-9.84751e-06
-0.000170736
-1.18949e-05
-0.00016614
-1.3802e-05
-0.000160823
-1.59567e-05
-0.00015471
-1.83301e-05
-0.000147807
-2.071e-05
-0.000140069
-2.32159e-05
-0.000131496
-2.57251e-05
-0.00012202
-2.84199e-05
-0.000111592
-3.12797e-05
-0.000100328
-3.38151e-05
-8.80576e-05
-3.68267e-05
-7.49128e-05
-3.94006e-05
-6.08644e-05
-4.21239e-05
-4.59404e-05
-4.47467e-05
-3.01876e-05
-4.72378e-05
-1.37195e-05
-4.93953e-05
3.39776e-06
-5.13018e-05
2.1028e-05
-5.28425e-05
3.89899e-05
-5.38554e-05
5.71892e-05
-5.45604e-05
7.54085e-05
-5.46169e-05
9.34828e-05
-5.41818e-05
0.000111198
-5.30887e-05
0.000128283
-5.12056e-05
0.000144488
-4.85726e-05
0.000159678
-4.55164e-05
0.000173513
-4.14567e-05
0.000185731
-3.66093e-05
0.000196155
-3.1227e-05
0.000204584
-2.52291e-05
0.000210802
-1.86207e-05
0.000214683
-1.1634e-05
0.000216141
-4.36272e-06
0.000215137
2.92763e-06
0.00021165
1.04413e-05
0.000205744
1.77253e-05
0.000197487
2.47048e-05
0.000187044
3.12876e-05
0.000174633
3.71979e-05
0.000160514
4.23065e-05
0.000144874
4.68441e-05
0.000127903
5.0836e-05
0.000109909
5.3973e-05
9.11285e-05
5.62682e-05
7.19473e-05
5.74882e-05
5.24402e-05
5.84596e-05
3.29561e-05
5.84047e-05
1.38168e-05
5.73809e-05
-4.93818e-06
5.62216e-05
-2.3088e-05
5.44172e-05
-4.04213e-05
5.19714e-05
-5.70077e-05
4.97286e-05
-7.25292e-05
4.65881e-05
-8.70232e-05
4.34842e-05
-0.000100566
4.0618e-05
-0.000112929
3.70996e-05
-0.000124237
3.39227e-05
-0.000134452
3.06431e-05
-0.000143627
2.74908e-05
-0.000151762
2.44064e-05
-0.000158833
2.12453e-05
-0.000164889
1.81983e-05
-0.000170147
1.57348e-05
-0.000174454
1.29154e-05
-0.000177673
9.69874e-06
-0.000180178
7.53964e-06
-0.000182018
5.48737e-06
-0.000182881
2.62481e-06
-0.000183079
5.5869e-07
-0.000182134
-2.83364e-06
-0.000180516
-4.81854e-06
-0.00017833
-6.53983e-06
-0.000175325
-9.00079e-06
-0.000171607
-1.1158e-05
-0.000167249
-1.3078e-05
-0.000162256
-1.49829e-05
-0.000156591
-1.701e-05
-0.000150196
-1.91797e-05
-0.000143086
-2.1312e-05
-0.000135323
-2.32778e-05
-0.000126837
-2.54699e-05
-0.000117618
-2.76486e-05
-0.000107671
-2.98584e-05
-9.699e-05
-3.20368e-05
-8.54979e-05
-3.44771e-05
-7.32472e-05
-3.67431e-05
-6.01523e-05
-3.92693e-05
-4.62638e-05
-4.16782e-05
-3.16107e-05
-4.39276e-05
-1.62127e-05
-4.6186e-05
-6.85807e-08
-4.8396e-05
1.67157e-05
-5.03306e-05
3.40821e-05
-5.20774e-05
5.18763e-05
-5.33452e-05
6.99275e-05
-5.41008e-05
8.80319e-05
-5.42539e-05
0.000105952
-5.37159e-05
0.000123547
-5.27121e-05
0.000140346
-5.0355e-05
0.000156168
-4.73962e-05
0.000170725
-4.35934e-05
0.000183667
-3.87674e-05
0.000194719
-3.31278e-05
0.000203657
-2.67707e-05
0.000210261
-1.97616e-05
0.000214353
-1.22812e-05
0.000215877
-4.55999e-06
0.000214754
3.28357e-06
0.000211003
1.12207e-05
0.000204822
1.85575e-05
0.000196227
2.57697e-05
0.000185377
3.24579e-05
0.000172582
3.8333e-05
0.000158065
4.34845e-05
0.000142228
4.74647e-05
0.000125085
5.13535e-05
0.000107164
5.36565e-05
8.88655e-05
5.4856e-05
7.02551e-05
5.57749e-05
5.16219e-05
5.58526e-05
3.32276e-05
5.51273e-05
1.51682e-05
5.41577e-05
-2.22224e-06
5.21547e-05
-1.9029e-05
5.0381e-05
-3.50671e-05
4.80933e-05
-5.01431e-05
4.52294e-05
-6.43504e-05
4.26196e-05
-7.76402e-05
3.98982e-05
-9.00362e-05
3.72347e-05
-0.000101626
3.47238e-05
-0.000112241
3.18349e-05
-0.000122052
2.9434e-05
-0.000131057
2.7042e-05
-0.0001393
2.47455e-05
-0.00014675
2.23531e-05
-0.000153611
2.05758e-05
-0.00015974
1.83688e-05
-0.000165069
1.59902e-05
-0.000169795
1.41637e-05
-0.00017356
1.13236e-05
-0.000176764
9.5931e-06
-0.000179381
7.80418e-06
-0.000181089
5.11105e-06
-0.00018206
2.93869e-06
-0.000182362
8.93863e-07
-0.000182001
-1.01209e-06
-0.000180839
-3.4994e-06
-0.000178672
-6.50031e-06
-0.000175785
-8.67234e-06
-0.000172111
-1.10233e-05
-0.000167547
-1.3698e-05
-0.000162088
-1.63821e-05
-0.000155766
-1.89784e-05
-0.000148457
-2.19242e-05
-0.000140225
-2.4707e-05
-0.000131032
-2.75637e-05
-0.000120815
-3.06348e-05
-0.000109639
-3.35218e-05
-9.74419e-05
-3.65768e-05
-8.43586e-05
-3.92589e-05
-7.02726e-05
-4.22362e-05
-5.53424e-05
-4.4778e-05
-3.96316e-05
-4.71283e-05
-2.31903e-05
-4.93052e-05
-6.12155e-06
-5.11675e-05
1.14357e-05
-5.26148e-05
2.93338e-05
-5.36666e-05
4.74259e-05
-5.4272e-05
6.55287e-05
-5.42515e-05
8.34179e-05
-5.36297e-05
0.000100997
-5.26339e-05
0.000117937
-5.08359e-05
0.000134107
-4.84735e-05
0.000149275
-4.54689e-05
0.000163232
-4.18388e-05
0.000175855
-3.78268e-05
0.000186839
-3.29203e-05
0.00019613
-2.78618e-05
0.00020346
-2.19532e-05
0.000208682
-1.56374e-05
0.000211778
-9.26267e-06
0.000212655
-2.60983e-06
0.000211206
4.30782e-06
0.000207408
1.1416e-05
0.000201329
1.82423e-05
0.000193049
2.48205e-05
0.0001827
3.10162e-05
0.00017041
3.68345e-05
0.000156389
4.20217e-05
0.000140853
4.65531e-05
0.000124067
5.03155e-05
0.000106324
5.31963e-05
8.78008e-05
5.5478e-05
6.88285e-05
5.6858e-05
4.96434e-05
5.74835e-05
3.04068e-05
5.76802e-05
1.15946e-05
5.64018e-05
-6.85749e-06
5.5314e-05
-2.46913e-05
5.34631e-05
-4.17429e-05
5.11227e-05
-5.79106e-05
4.84769e-05
-7.30792e-05
4.54871e-05
-8.72191e-05
4.23957e-05
-0.000100252
3.90799e-05
-0.000112158
3.57217e-05
-0.000122954
3.23923e-05
-0.000132629
2.90245e-05
-0.000141198
2.57056e-05
-0.000148697
2.24955e-05
-0.000155151
1.93583e-05
-0.000160608
1.63631e-05
-0.000165097
1.34595e-05
-0.000168651
1.06684e-05
-0.000171331
8.06109e-06
-0.000173189
5.57737e-06
-0.000174253
3.21902e-06
-0.000174587
1.0389e-06
-0.000174086
-1.47659e-06
-0.000172836
-3.74382e-06
-0.000170864
-5.91572e-06
-0.000168173
-8.0671e-06
-0.000164827
-1.00388e-05
-0.000160831
-1.19881e-05
-0.000156081
-1.42577e-05
-0.000150652
-1.62814e-05
-0.000144604
-1.81431e-05
-0.000137802
-2.04068e-05
-0.000130351
-2.23488e-05
-0.000122158
-2.45782e-05
-0.000113252
-2.67158e-05
-0.000103711
-2.8615e-05
-9.33997e-05
-3.09266e-05
-8.23853e-05
-3.30397e-05
-7.07783e-05
-3.48052e-05
-5.84597e-05
-3.69598e-05
-4.55906e-05
-3.8599e-05
-3.20078e-05
-4.07276e-05
-1.78747e-05
-4.23785e-05
-3.31983e-06
-4.36461e-05
1.17507e-05
-4.52063e-05
2.72043e-05
-4.63598e-05
4.28725e-05
-4.70039e-05
5.87814e-05
-4.77156e-05
7.47005e-05
-4.77398e-05
9.0551e-05
-4.75313e-05
0.00010608
-4.65585e-05
0.000121035
-4.48308e-05
0.000135353
-4.2897e-05
0.000148765
-4.01637e-05
-3.74718e-05
0.000106612
7.11667e-05
8.8464e-05
7.24818e-05
6.98097e-05
7.44966e-05
5.08459e-05
7.57284e-05
3.19069e-05
7.56655e-05
1.30762e-05
7.52222e-05
-5.25143e-06
7.32103e-05
-2.30849e-05
7.12365e-05
-4.01824e-05
6.83145e-05
-5.6405e-05
6.48375e-05
-7.17224e-05
6.1223e-05
-8.60371e-05
5.72227e-05
-9.93106e-05
5.3073e-05
-0.000111557
4.8974e-05
-0.000122766
4.48225e-05
-0.000132966
4.07825e-05
-0.000142152
3.67319e-05
-0.000150361
3.28265e-05
-0.000157626
2.90588e-05
-0.000163984
2.54348e-05
-0.00016948
2.19733e-05
-0.000174132
1.86082e-05
-0.000177976
1.53774e-05
-0.000181058
1.2318e-05
-0.000183371
9.25413e-06
-0.000184963
6.38485e-06
-0.000185843
3.62018e-06
-0.000186021
8.5837e-07
-0.000185463
-2.16014e-06
-0.000184216
-4.98331e-06
-0.000182304
-7.65014e-06
-0.000179614
-1.08369e-05
-0.000176137
-1.38878e-05
-0.000171845
-1.7165e-05
-0.000166823
-2.00969e-05
-0.000161036
-2.31634e-05
-0.000154317
-2.68808e-05
-0.000146759
-3.02317e-05
-0.000138369
-3.36805e-05
-0.000128796
-3.82677e-05
-0.000118335
-4.18656e-05
-0.000106703
-4.65452e-05
-9.41242e-05
-5.02775e-05
-8.0701e-05
-5.36742e-05
-6.6211e-05
-5.79189e-05
-5.07598e-05
-6.17062e-05
-3.44209e-05
-6.54104e-05
-1.72987e-05
-6.84022e-05
6.02334e-07
-7.15399e-05
1.88949e-05
-7.31008e-05
3.76887e-05
-7.50767e-05
5.66621e-05
-7.57999e-05
7.57113e-05
-7.60584e-05
9.46195e-05
-7.55031e-05
0.000112976
-7.33196e-05
0.000130641
-7.05425e-05
0.000147437
-6.70402e-05
0.000162942
-6.19598e-05
0.000177086
-5.64643e-05
0.000189591
-4.99218e-05
0.000200336
-4.28808e-05
0.000209191
-3.52958e-05
0.000215795
-2.63593e-05
0.000220184
-1.74902e-05
0.000222267
-8.31463e-06
0.000221833
1.72716e-06
0.000219035
1.12004e-05
0.000213882
2.06509e-05
0.000206494
2.95096e-05
0.000196928
3.81835e-05
0.000185367
4.61521e-05
0.00017195
5.35486e-05
0.000156902
6.0055e-05
0.000140495
6.54938e-05
0.000122953
7.00019e-05
0.000104517
7.36235e-05
8.54704e-05
7.60451e-05
6.59781e-05
7.77274e-05
4.64096e-05
7.82638e-05
2.67842e-05
7.83481e-05
7.39202e-06
7.73909e-05
-1.14389e-05
7.5329e-05
-2.97584e-05
7.31676e-05
-4.73078e-05
7.00953e-05
-6.39105e-05
6.64036e-05
-7.95737e-05
6.26593e-05
-9.42673e-05
5.87201e-05
-0.000107828
5.42208e-05
-0.000120228
4.95397e-05
-0.000131423
4.47991e-05
-0.000141468
4.01844e-05
-0.000150444
3.58024e-05
-0.000158199
3.11505e-05
-0.000164759
2.62265e-05
-0.000170293
2.21566e-05
-0.000174665
1.76686e-05
-0.000178349
1.46794e-05
-0.00018113
1.1058e-05
-0.000182951
7.45279e-06
-0.000184264
5.2178e-06
-0.000184994
2.88608e-06
-0.000184845
-5.86951e-07