/*--------------------------------*- C++ -*----------------------------------*\
| =========                 |                                                 |
| \\      /  F ield         | OpenFOAM: The Open Source CFD Toolbox           |
|  \\    /   O peration     | Version:  3.0.1                                 |
|   \\  /    A nd           | Web:      www.OpenFOAM.org                      |
|    \\/     M anipulation  |                                                 |
\*---------------------------------------------------------------------------*/
FoamFile
{
    version     2.0;
    format      ascii;
    class       volScalarField;
    location    "65";
    object      p;
}
// * * * * * * * * * * * * * * * * * * * * * * * * * * * * * * * * * * * * * //

dimensions      [1 -1 -2 0 0 0 0];

internalField   nonuniform List<scalar> 
21420
(
4009.35
4041.81
4074.17
4106.03
4136.99
4166.5
4194.13
4219.38
4241.86
4261.25
4277.24
4289.57
4298.07
4302.61
4302.97
4299.3
4291.66
4280.15
4264.93
4246.23
4224.37
4199.65
4172.41
4143.08
4112.02
4079.66
4046.38
4012.58
3978.65
3944.92
3911.74
3879.58
3852.1
3822.58
3794.19
3767.29
3742.03
3718.48
3696.67
3676.61
3658.29
3641.68
3626.76
3613.48
3601.82
3591.72
3583.15
3576.07
3570.47
3566.32
3563.6
3562.31
3562.47
3564.12
3567.22
3571.84
3578.02
3585.78
3595.17
3606.22
3618.99
3633.49
3649.77
3667.84
3687.68
3709.27
3732.58
3757.52
3784.01
3811.88
3840.98
3871.07
3904.85
3936.68
3969.07
4001.67
4034.15
4066.19
4097.42
4127.51
4156.09
4182.83
4207.36
4229.33
4248.44
4264.39
4276.92
4285.83
4290.96
4292.16
4289.43
4282.79
4272.33
4258.09
4240.3
4219.18
4194.98
4168.02
4138.65
4107.24
4074.21
4039.97
4004.97
3969.64
3934.4
3899.68
3865.86
3833.22
3802.04
3772.54
3744.9
3719.22
3695.56
3673.95
3654.39
3636.85
3621.29
3607.65
3595.86
3585.87
3577.6
3570.99
3565.97
3562.5
3560.49
3559.93
3560.8
3562.99
3566.52
3571.37
3577.51
3584.97
3593.75
3603.87
3615.36
3628.26
3642.62
3658.47
3675.86
3694.82
3715.38
3737.53
3761.26
3786.54
3813.29
3841.41
3870.76
3901.18
3932.48
3964.34
3996.5
4028.65
4060.42
4091.45
4121.33
4149.66
4176.04
4200.08
4221.38
4239.61
4254.45
4265.61
4272.9
4276.12
4275.2
4270.13
4260.99
4247.86
4230.95
4210.53
4186.92
4160.5
4131.67
4100.88
4068.58
4035.23
4001.28
3967.16
3933.27
3899.99
3867.63
3836.47
3806.73
3778.58
3752.16
3727.56
3704.84
3684.02
3665.09
3648.02
3632.78
3619.3
3607.53
3597.39
3588.81
3581.71
3576.04
3571.72
3568.7
3566.9
3566.31
3566.94
3568.7
3571.65
3575.78
3581.12
3587.71
3595.6
3604.82
3615.42
3627.44
3640.91
3655.88
3672.37
3690.39
3709.97
3731.11
3753.79
3777.99
3803.67
3830.72
3859.05
3888.49
3918.87
3950.05
3981.53
4013.12
4044.47
4075.21
4104.94
4133.25
4159.73
4183.96
4205.55
4224.13
4239.38
4251.02
4258.81
4262.58
4262.24
4257.78
4249.29
4236.84
4220.65
4201
4178.22
4152.69
4124.85
4095.13
4063.98
4031.86
3999.17
3966.31
3933.66
3901.53
3870.23
3840.02
3811.11
3783.7
3757.9
3733.81
3711.51
3691.01
3672.32
3655.44
3640.31
3626.91
3615.16
3605.03
3596.44
3589.31
3583.59
3579.23
3576.15
3574.34
3573.75
3574.29
3575.98
3578.79
3582.7
3587.71
3593.85
3601.08
3609.45
3619
3629.77
3641.79
3655.15
3669.92
3686.18
3703.98
3723.4
3744.48
3767.25
3791.7
3817.78
3845.4
3874.4
3904.54
3935.46
3967.06
3998.92
4030.6
4061.71
4091.77
4120.31
4146.92
4171.18
4192.69
4211.13
4226.18
4237.64
4245.35
4249.18
4249.02
4244.93
4237.02
4225.43
4210.42
4192.31
4171.4
4148.05
4122.67
4095.64
4067.34
4038.16
4008.43
3978.52
3948.76
3919.41
3890.97
3863.07
3835.84
3809.45
3784.08
3759.85
3736.83
3715.11
3694.73
3675.74
3658.19
3642.11
3627.53
3614.49
3603.01
3593.12
3584.84
3578.18
3573.16
3569.74
3567.96
3567.84
3569.47
3572.78
3577.76
3584.41
3592.72
3911.22
3943.69
3976.07
4007.94
4038.93
4068.46
4096.1
4121.37
4143.87
4163.28
4179.28
4191.62
4200.12
4204.67
4205.04
4201.36
4193.71
4182.19
4166.96
4148.25
4126.37
4101.63
4074.37
4045.02
4013.95
3981.57
3948.28
3914.46
3880.51
3846.78
3813.58
3781.39
3753.95
3724.41
3696.01
3669.11
3643.85
3620.3
3598.49
3578.43
3560.11
3543.51
3528.59
3515.32
3503.65
3493.55
3484.98
3477.91
3472.31
3468.16
3465.44
3464.15
3464.32
3465.96
3469.06
3473.68
3479.85
3487.61
3497
3508.05
3520.81
3535.32
3551.6
3569.66
3589.5
3611.1
3634.41
3659.35
3685.83
3713.72
3742.82
3772.92
3806.69
3838.53
3870.93
3903.55
3936.05
3968.09
3999.34
4029.44
4058.05
4084.8
4109.34
4131.33
4150.46
4166.42
4178.96
4187.88
4193.01
4194.22
4191.48
4184.83
4174.37
4160.12
4142.32
4121.18
4096.97
4069.99
4040.6
4009.18
3976.12
3941.87
3906.85
3871.5
3836.25
3801.51
3767.69
3735.03
3703.85
3674.35
3646.71
3621.02
3597.36
3575.76
3556.2
3538.66
3523.11
3509.47
3497.68
3487.7
3479.43
3472.82
3467.81
3464.34
3462.33
3461.78
3462.64
3464.83
3468.37
3473.21
3479.36
3486.81
3495.59
3505.71
3517.2
3530.1
3544.45
3560.3
3577.69
3596.65
3617.2
3639.35
3663.09
3688.36
3715.11
3743.24
3772.6
3803.02
3834.33
3866.2
3898.38
3930.53
3962.32
3993.37
4023.26
4051.62
4078.02
4102.07
4123.39
4141.63
4156.48
4167.66
4174.96
4178.18
4177.26
4172.18
4163.04
4149.89
4132.97
4112.53
4088.91
4062.47
4033.62
4002.81
3970.49
3937.12
3903.15
3869.02
3835.12
3801.83
3769.46
3738.29
3708.54
3680.39
3653.97
3629.37
3606.65
3585.83
3566.9
3549.84
3534.6
3521.13
3509.36
3499.22
3490.64
3483.55
3477.89
3473.57
3470.54
3468.75
3468.17
3468.79
3470.55
3473.5
3477.62
3482.97
3489.56
3497.44
3506.66
3517.25
3529.27
3542.75
3557.71
3574.2
3592.22
3611.8
3632.94
3655.62
3679.82
3705.49
3732.55
3760.89
3790.34
3820.72
3851.91
3883.4
3915
3946.37
3977.12
4006.87
4035.2
4061.7
4085.95
4107.55
4126.15
4141.42
4153.06
4160.86
4164.64
4164.29
4159.84
4151.34
4138.88
4122.67
4103.01
4080.21
4054.66
4026.8
3997.06
3965.89
3933.75
3901.05
3868.17
3835.51
3803.37
3772.06
3741.84
3712.94
3685.51
3659.71
3635.63
3613.33
3592.83
3574.15
3557.26
3542.14
3528.74
3516.99
3506.86
3498.28
3491.16
3485.44
3481.08
3478
3476.19
3475.61
3476.15
3477.83
3480.64
3484.56
3489.57
3495.7
3502.94
3511.31
3520.85
3531.61
3543.64
3556.99
3571.75
3588.01
3605.81
3625.22
3646.3
3669.07
3693.52
3719.6
3747.22
3776.24
3806.38
3837.31
3868.93
3900.8
3932.5
3963.63
3993.71
4022.27
4048.9
4073.17
4094.7
4113.15
4128.22
4139.69
4147.39
4151.23
4151.07
4146.97
4139.06
4127.46
4112.43
4094.31
4073.38
4050.02
4024.62
3997.57
3969.26
3940.06
3910.32
3880.4
3850.62
3821.27
3792.82
3764.92
3737.68
3711.3
3685.93
3661.69
3638.67
3616.95
3596.57
3577.58
3560.02
3543.94
3529.37
3516.33
3504.85
3494.96
3486.68
3480.02
3474.99
3471.58
3469.8
3469.68
3471.3
3474.62
3479.6
3486.25
3494.56
3813.06
3845.56
3877.97
3909.88
3940.9
3970.47
3998.15
4023.46
4045.99
4065.43
4081.45
4093.82
4102.33
4106.88
4107.28
4103.56
4095.91
4084.37
4069.11
4050.37
4028.46
4003.69
3976.4
3947.01
3915.9
3883.48
3850.16
3816.32
3782.34
3748.58
3715.36
3683.11
3655.76
3626.16
3597.75
3570.85
3545.59
3522.04
3500.23
3480.18
3461.86
3445.26
3430.35
3417.08
3405.42
3395.33
3386.76
3379.7
3374.1
3369.95
3367.23
3365.94
3366.11
3367.74
3370.85
3375.46
3381.63
3389.38
3398.76
3409.81
3422.57
3437.07
3453.35
3471.41
3491.24
3512.84
3536.15
3561.1
3587.59
3615.48
3644.61
3674.72
3708.47
3740.33
3772.76
3805.4
3837.93
3870
3901.28
3931.42
3960.05
3986.83
4011.41
4033.43
4052.59
4068.57
4081.14
4090.07
4095.21
4096.44
4093.68
4087.03
4076.55
4062.29
4044.46
4023.3
3999.05
3972.04
3942.61
3911.15
3878.05
3843.76
3808.71
3773.32
3738.05
3703.28
3669.44
3636.76
3605.57
3576.06
3548.41
3522.73
3499.07
3477.47
3457.92
3440.39
3424.84
3411.21
3399.43
3389.45
3381.19
3374.59
3369.58
3366.11
3364.11
3363.57
3364.43
3366.62
3370.16
3375
3381.15
3388.6
3397.38
3407.49
3418.98
3431.87
3446.22
3462.07
3479.45
3498.4
3518.95
3541.1
3564.84
3590.11
3616.87
3645
3674.37
3704.81
3736.14
3768.03
3800.23
3832.41
3864.23
3895.31
3925.24
3953.63
3980.06
4004.15
4025.51
4043.78
4058.66
4069.86
4077.17
4080.42
4079.47
4074.39
4065.24
4052.07
4035.12
4014.65
3990.99
3964.51
3935.62
3904.77
3872.42
3839.01
3805.01
3770.84
3736.92
3703.6
3671.22
3640.03
3610.28
3582.12
3555.7
3531.1
3508.38
3487.56
3468.64
3451.58
3436.35
3422.88
3411.12
3400.99
3392.42
3385.34
3379.67
3375.36
3372.34
3370.55
3369.97
3370.59
3372.36
3375.3
3379.43
3384.76
3391.35
3399.23
3408.44
3419.04
3431.05
3444.52
3459.48
3475.96
3493.98
3513.56
3534.69
3557.37
3581.58
3607.25
3634.32
3662.66
3692.12
3722.52
3753.73
3785.25
3816.87
3848.27
3879.06
3908.84
3937.21
3963.74
3988.02
4009.66
4028.3
4043.59
4055.25
4063.07
4066.87
4066.51
4062.05
4053.54
4041.05
4024.83
4005.13
3982.29
3956.71
3928.8
3899.02
3867.82
3835.64
3802.91
3770.01
3737.32
3705.16
3673.83
3643.6
3614.68
3587.25
3561.45
3537.37
3515.06
3494.57
3475.89
3459.01
3443.9
3430.5
3418.76
3408.64
3400.06
3392.94
3387.23
3382.87
3379.8
3378
3377.41
3377.96
3379.64
3382.46
3386.37
3391.38
3397.51
3404.74
3413.11
3422.65
3433.41
3445.42
3458.77
3473.53
3489.77
3507.56
3526.97
3548.05
3570.81
3595.26
3621.35
3648.98
3678
3708.16
3739.12
3770.76
3802.66
3834.4
3865.56
3895.68
3924.28
3950.95
3975.26
3996.82
4015.3
4030.39
4041.88
4049.59
4053.43
4053.28
4049.16
4041.24
4029.61
4014.56
3996.4
3975.44
3952.05
3926.61
3899.53
3871.19
3841.96
3812.19
3782.25
3752.45
3723.08
3694.64
3666.73
3639.48
3613.08
3587.71
3563.47
3540.45
3518.72
3498.34
3479.35
3461.8
3445.72
3431.14
3418.1
3406.62
3396.73
3388.45
3381.79
3376.76
3373.35
3371.57
3371.45
3373.08
3376.39
3381.37
3388.02
3396.33
3714.88
3747.42
3779.88
3811.83
3842.91
3872.53
3900.27
3925.64
3948.22
3967.7
3983.77
3996.16
4004.69
4009.25
4009.67
4005.93
3998.27
3986.7
3971.4
3952.61
3930.66
3905.83
3878.48
3849.04
3817.88
3785.41
3752.04
3718.15
3684.14
3650.34
3617.08
3584.74
3557.52
3527.85
3499.41
3472.5
3447.24
3423.7
3401.89
3381.85
3363.54
3346.95
3332.04
3318.78
3307.13
3297.04
3288.48
3281.42
3275.82
3271.68
3268.96
3267.67
3267.84
3269.47
3272.57
3277.18
3283.34
3291.09
3300.46
3311.5
3324.26
3338.75
3355.02
3373.08
3392.91
3414.51
3437.82
3462.77
3489.28
3517.18
3546.33
3576.48
3610.18
3642.09
3674.56
3707.23
3739.8
3771.92
3803.24
3833.42
3862.11
3888.94
3913.56
3935.63
3954.83
3970.85
3983.45
3992.41
3997.57
3998.81
3996.04
3989.38
3978.87
3964.59
3946.73
3925.52
3901.22
3874.16
3844.68
3813.15
3780.01
3745.66
3710.55
3675.12
3639.79
3604.99
3571.12
3538.41
3507.2
3477.68
3450.03
3424.35
3400.69
3379.1
3359.55
3342.03
3326.49
3312.87
3301.11
3291.14
3282.89
3276.29
3271.29
3267.83
3265.84
3265.3
3266.16
3268.36
3271.9
3276.74
3282.89
3290.34
3299.11
3309.22
3320.7
3333.59
3347.93
3363.77
3381.14
3400.09
3420.63
3442.78
3466.51
3491.8
3518.56
3546.7
3576.08
3606.54
3637.9
3669.82
3702.05
3734.28
3766.14
3797.27
3827.25
3855.7
3882.19
3906.33
3927.73
3946.06
3960.97
3972.21
3979.54
3982.81
3981.86
3976.77
3967.59
3954.4
3937.4
3916.89
3893.17
3866.63
3837.68
3806.77
3774.36
3740.89
3706.84
3672.63
3638.67
3605.32
3572.91
3541.7
3511.93
3483.76
3457.34
3432.74
3410.02
3389.21
3370.3
3353.25
3338.02
3324.57
3312.81
3302.7
3294.14
3287.07
3281.41
3277.11
3274.09
3272.3
3271.73
3272.35
3274.12
3277.05
3281.18
3286.51
3293.1
3300.97
3310.17
3320.76
3332.76
3346.23
3361.18
3377.66
3395.67
3415.25
3436.37
3459.06
3483.26
3508.94
3536.02
3564.37
3593.85
3624.27
3655.52
3687.06
3718.73
3750.17
3781.01
3810.84
3839.26
3865.85
3890.19
3911.89
3930.56
3945.9
3957.6
3965.44
3969.26
3968.9
3964.42
3955.89
3943.37
3927.1
3907.35
3884.46
3858.82
3830.85
3801.01
3769.76
3737.53
3704.75
3671.81
3639.08
3606.89
3575.54
3545.29
3516.35
3488.91
3463.11
3439.02
3416.72
3396.23
3377.56
3360.69
3345.58
3332.19
3320.47
3310.35
3301.78
3294.68
3288.97
3284.62
3281.55
3279.76
3279.17
3279.72
3281.41
3284.22
3288.13
3293.15
3299.27
3306.5
3314.86
3324.4
3335.14
3347.15
3360.49
3375.23
3391.47
3409.25
3428.65
3449.72
3472.47
3496.92
3523.02
3550.66
3579.7
3609.88
3640.87
3672.55
3704.51
3736.29
3767.51
3797.69
3826.35
3853.08
3877.44
3899.05
3917.57
3932.7
3944.21
3951.95
3955.79
3955.65
3951.5
3943.55
3931.9
3916.8
3898.6
3877.59
3854.14
3828.65
3801.52
3773.13
3743.86
3714.05
3684.07
3654.24
3624.85
3596.41
3568.49
3541.22
3514.82
3489.43
3465.19
3442.16
3420.43
3400.05
3381.06
3363.51
3347.42
3332.84
3319.8
3308.32
3298.43
3290.15
3283.49
3278.46
3275.06
3273.29
3273.16
3274.79
3278.1
3283.09
3289.74
3298.05
3616.66
3649.25
3681.78
3713.8
3744.95
3774.65
3802.47
3827.91
3850.56
3870.1
3886.22
3898.65
3907.21
3911.78
3912.21
3908.46
3900.77
3889.16
3873.81
3854.97
3832.95
3808.05
3780.63
3751.11
3719.88
3687.34
3653.91
3619.96
3585.9
3552.06
3518.74
3486.29
3459.22
3429.46
3400.99
3374.07
3348.81
3325.27
3303.48
3283.44
3265.14
3248.56
3233.66
3220.41
3208.77
3198.69
3190.14
3183.08
3177.49
3173.35
3170.63
3169.34
3169.51
3171.13
3174.23
3178.84
3184.99
3192.73
3202.09
3213.13
3225.87
3240.35
3256.62
3274.67
3294.5
3316.1
3339.41
3364.37
3390.89
3418.81
3447.99
3478.19
3511.83
3543.79
3576.32
3609.04
3641.67
3673.84
3705.22
3735.47
3764.21
3791.11
3815.8
3837.93
3857.19
3873.26
3885.9
3894.9
3900.07
3901.33
3898.56
3891.88
3881.34
3867.02
3849.11
3827.84
3803.48
3776.35
3746.8
3715.2
3681.97
3647.55
3612.37
3576.87
3541.49
3506.63
3472.72
3439.98
3408.74
3379.21
3351.55
3325.87
3302.22
3280.63
3261.1
3243.59
3228.07
3214.46
3202.71
3192.75
3184.52
3177.93
3172.95
3169.49
3167.51
3166.98
3167.84
3170.05
3173.59
3178.43
3184.58
3192.03
3200.79
3210.89
3222.36
3235.24
3249.57
3265.4
3282.76
3301.71
3322.24
3344.38
3368.12
3393.4
3420.17
3448.33
3477.73
3508.22
3539.61
3571.57
3603.85
3636.13
3668.06
3699.25
3729.31
3757.82
3784.39
3808.6
3830.07
3848.46
3863.43
3874.7
3882.07
3885.35
3884.41
3879.31
3870.1
3856.86
3839.81
3819.23
3795.44
3768.82
3739.79
3708.8
3676.31
3642.77
3608.65
3574.38
3540.36
3506.97
3474.52
3443.29
3413.5
3385.32
3358.89
3334.29
3311.58
3290.78
3271.87
3254.84
3239.63
3226.18
3214.44
3204.34
3195.79
3188.73
3183.09
3178.8
3175.79
3174.01
3173.45
3174.06
3175.83
3178.76
3182.88
3188.21
3194.79
3202.65
3211.84
3222.42
3234.41
3247.87
3262.82
3279.29
3297.3
3316.86
3337.99
3360.67
3384.87
3410.56
3437.65
3466.02
3495.52
3525.97
3557.26
3588.85
3620.57
3652.07
3682.97
3712.88
3741.38
3768.04
3792.45
3814.21
3832.96
3848.34
3860.09
3867.96
3871.79
3871.45
3866.96
3858.39
3845.84
3829.51
3809.69
3786.73
3761.01
3732.96
3703.04
3671.71
3639.41
3606.57
3573.57
3540.8
3508.56
3477.18
3446.9
3417.95
3390.5
3364.68
3340.59
3318.29
3297.81
3279.15
3262.29
3247.19
3233.82
3222.1
3212
3203.44
3196.35
3190.66
3186.32
3183.26
3181.48
3180.88
3181.44
3183.14
3185.95
3189.86
3194.87
3200.99
3208.21
3216.57
3226.1
3236.83
3248.83
3262.15
3276.87
3293.09
3310.86
3330.25
3351.31
3374.06
3398.51
3424.61
3452.26
3481.33
3511.54
3542.58
3574.31
3606.33
3638.19
3669.48
3699.73
3728.47
3755.28
3779.71
3801.39
3819.97
3835.15
3846.7
3854.45
3858.29
3858.17
3853.99
3846.01
3834.31
3819.16
3800.89
3779.81
3756.3
3730.74
3703.54
3675.09
3645.76
3615.89
3585.86
3555.99
3526.57
3498.15
3470.2
3442.91
3416.49
3391.09
3366.84
3343.81
3322.08
3301.7
3282.71
3265.15
3249.07
3234.49
3221.44
3209.96
3200.07
3191.79
3185.13
3180.11
3176.7
3174.94
3174.81
3176.43
3179.75
3184.74
3191.39
3199.7
3518.41
3551.08
3583.68
3615.79
3647.03
3676.83
3704.74
3730.27
3753.01
3772.62
3788.81
3801.29
3809.88
3814.46
3814.91
3811.15
3803.42
3791.76
3776.35
3757.44
3735.34
3710.35
3682.84
3653.23
3621.91
3589.28
3555.77
3521.75
3487.62
3453.72
3420.34
3387.76
3360.86
3330.98
3302.49
3275.56
3250.3
3226.76
3204.98
3184.95
3166.66
3150.09
3135.21
3121.97
3110.34
3100.27
3091.73
3084.68
3079.1
3074.96
3072.25
3070.96
3071.12
3072.74
3075.84
3080.44
3086.58
3094.31
3103.66
3114.68
3127.41
3141.88
3158.14
3176.18
3196.01
3217.61
3240.93
3265.9
3292.43
3320.38
3349.6
3379.87
3413.4
3445.45
3478.04
3510.83
3543.52
3575.76
3607.22
3637.54
3666.37
3693.35
3718.12
3740.33
3759.66
3775.8
3788.5
3797.53
3802.73
3803.99
3801.23
3794.53
3783.96
3769.59
3751.62
3730.28
3705.84
3678.62
3648.97
3617.28
3583.96
3549.45
3514.18
3478.59
3443.14
3408.21
3374.25
3341.46
3310.19
3280.65
3252.98
3227.29
3203.65
3182.07
3162.56
3145.07
3129.56
3115.97
3104.24
3094.3
3086.08
3079.51
3074.54
3071.09
3069.13
3068.6
3069.47
3071.68
3075.22
3080.07
3086.21
3093.66
3102.42
3112.51
3123.97
3136.84
3151.15
3166.97
3184.32
3203.25
3223.78
3245.92
3269.65
3294.94
3321.72
3349.89
3379.32
3409.84
3441.28
3473.29
3505.63
3537.98
3569.98
3601.26
3631.4
3660
3686.66
3710.96
3732.52
3750.98
3766.02
3777.35
3784.75
3788.06
3787.13
3782.01
3772.76
3759.47
3742.35
3721.69
3697.81
3671.09
3641.96
3610.87
3578.28
3544.65
3510.44
3476.09
3442.01
3408.56
3376.07
3344.8
3314.99
3286.8
3260.36
3235.76
3213.05
3192.26
3173.37
3156.35
3141.15
3127.73
3116.01
3105.92
3097.39
3090.35
3084.72
3080.44
3077.44
3075.67
3075.11
3075.73
3077.49
3080.43
3084.54
3089.86
3096.42
3104.28
3113.46
3124.02
3136.01
3149.45
3164.39
3180.85
3198.85
3218.41
3239.53
3262.21
3286.42
3312.11
3339.21
3367.61
3397.14
3427.61
3458.98
3490.61
3522.39
3553.97
3584.96
3614.95
3643.54
3670.29
3694.8
3716.65
3735.47
3750.93
3762.73
3770.64
3774.49
3774.16
3769.65
3761.05
3748.44
3732.04
3712.14
3689.09
3663.27
3635.12
3605.1
3573.68
3541.29
3508.37
3475.3
3442.47
3410.18
3378.75
3348.44
3319.46
3292
3266.17
3242.08
3219.79
3199.31
3180.66
3163.81
3148.73
3135.37
3123.67
3113.59
3105.04
3097.97
3092.29
3087.96
3084.92
3083.14
3082.55
3083.12
3084.82
3087.63
3091.54
3096.55
3102.66
3109.88
3118.23
3127.74
3138.46
3150.44
3163.74
3178.45
3194.65
3212.4
3231.77
3252.82
3275.56
3300.01
3326.12
3353.8
3382.89
3413.15
3444.23
3476.04
3508.13
3540.08
3571.46
3601.81
3630.65
3657.55
3682.08
3703.84
3722.49
3737.73
3749.32
3757.1
3760.95
3760.83
3756.64
3748.6
3736.84
3721.63
3703.29
3682.12
3658.52
3632.88
3605.6
3577.06
3547.65
3517.72
3487.63
3457.7
3428.24
3399.84
3371.87
3344.55
3318.11
3292.7
3268.44
3245.4
3223.67
3203.28
3184.29
3166.73
3150.64
3136.06
3123.02
3111.54
3101.65
3093.37
3086.71
3081.68
3078.28
3076.52
3076.39
3078.02
3081.34
3086.32
3092.98
3101.29
3420.14
3452.88
3485.58
3517.79
3549.14
3579.06
3607.09
3632.73
3655.57
3675.27
3691.53
3704.07
3712.71
3717.31
3717.77
3714
3706.23
3694.51
3679.02
3660.02
3637.82
3612.73
3585.11
3555.39
3523.96
3491.23
3457.62
3423.51
3389.31
3355.34
3321.89
3289.17
3262.42
3232.43
3203.91
3176.97
3151.71
3128.18
3106.4
3086.38
3068.11
3051.56
3036.69
3023.47
3011.85
3001.8
2993.26
2986.23
2980.65
2976.52
2973.81
2972.53
2972.68
2974.29
2977.38
2981.97
2988.1
2995.82
3005.15
3016.16
3028.88
3043.34
3059.58
3077.62
3097.44
3119.04
3142.36
3167.34
3193.89
3221.88
3251.14
3281.5
3314.9
3347.06
3379.73
3412.6
3445.36
3477.69
3509.24
3539.66
3568.58
3595.66
3620.53
3642.83
3662.25
3678.47
3691.23
3700.31
3705.55
3706.82
3704.06
3697.34
3686.72
3672.29
3654.25
3632.82
3608.28
3580.96
3551.2
3519.4
3485.97
3451.34
3415.96
3380.28
3344.73
3309.73
3275.69
3242.86
3211.56
3181.99
3154.31
3128.62
3104.99
3083.42
3063.92
3046.46
3030.97
3017.41
3005.7
2995.78
2987.57
2981.02
2976.07
2972.64
2970.68
2970.17
2971.04
2973.27
2976.81
2981.65
2987.8
2995.24
3003.99
3014.07
3025.52
3038.37
3052.67
3068.47
3085.81
3104.72
3125.24
3147.37
3171.11
3196.4
3223.2
3251.39
3280.85
3311.41
3342.9
3374.97
3407.38
3439.81
3471.91
3503.28
3533.53
3562.24
3589.01
3613.42
3635.08
3653.64
3668.76
3680.15
3687.6
3690.93
3690.01
3684.87
3675.58
3662.22
3645.02
3624.26
3600.27
3573.43
3544.18
3512.97
3480.26
3446.52
3412.21
3377.77
3343.6
3310.09
3277.54
3246.24
3216.4
3188.19
3161.74
3137.14
3114.44
3093.66
3074.78
3057.78
3042.6
3029.2
3017.5
3007.43
2998.92
2991.9
2986.29
2982.03
2979.04
2977.29
2976.73
2977.35
2979.11
2982.04
2986.15
2991.46
2998.01
3005.85
3015.02
3025.57
3037.54
3050.97
3065.9
3082.35
3100.34
3119.89
3141
3163.68
3187.89
3213.59
3240.71
3269.13
3298.7
3329.21
3360.65
3392.34
3424.21
3455.87
3486.96
3517.06
3545.76
3572.62
3597.24
3619.19
3638.11
3653.65
3665.52
3673.48
3677.36
3677.03
3672.51
3663.86
3651.18
3634.71
3614.71
3591.54
3565.6
3537.33
3507.19
3475.65
3443.17
3410.15
3377
3344.09
3311.74
3280.26
3249.91
3220.9
3193.42
3167.58
3143.49
3121.2
3100.73
3082.09
3065.26
3050.2
3036.86
3025.18
3015.11
3006.59
2999.53
2993.87
2989.56
2986.53
2984.76
2984.18
2984.75
2986.45
2989.27
2993.17
2998.18
3004.29
3011.5
3019.84
3029.34
3040.04
3052
3065.28
3079.97
3096.14
3113.87
3133.22
3154.25
3176.99
3201.44
3227.56
3255.25
3284.39
3314.69
3345.84
3377.73
3409.92
3441.96
3473.46
3503.93
3532.88
3559.9
3584.54
3606.4
3625.14
3640.45
3652.1
3659.91
3663.77
3663.65
3659.43
3651.34
3639.51
3624.21
3605.78
3584.51
3560.8
3535.06
3507.68
3479.05
3449.55
3419.54
3389.37
3359.37
3329.86
3301.5
3273.49
3246.14
3219.67
3194.24
3169.97
3146.93
3125.19
3104.8
3085.81
3068.25
3052.16
3037.58
3024.53
3013.05
3003.16
2994.88
2988.22
2983.2
2979.8
2978.04
2977.91
2979.54
2982.86
2987.85
2994.51
3002.82
3321.83
3354.67
3387.47
3419.81
3451.29
3481.34
3509.51
3535.28
3558.24
3578.05
3594.4
3607.01
3615.7
3620.32
3620.78
3617
3609.18
3597.39
3581.82
3562.72
3540.4
3515.19
3487.44
3457.59
3426.03
3393.19
3359.46
3325.25
3290.96
3256.92
3223.39
3190.56
3163.87
3133.79
3105.24
3078.29
3053.03
3029.51
3007.74
2987.74
2969.48
2952.95
2938.1
2924.9
2913.3
2903.26
2894.74
2887.71
2882.14
2878.02
2875.32
2874.03
2874.18
2875.79
2878.87
2883.45
2889.56
2897.26
2906.58
2917.57
2930.27
2944.72
2960.95
2978.98
2998.79
3020.39
3043.72
3068.72
3095.29
3123.3
3152.62
3183.08
3216.36
3248.62
3281.38
3314.34
3347.2
3379.63
3411.28
3441.81
3470.85
3498.04
3523.02
3545.43
3564.95
3581.26
3594.1
3603.24
3608.51
3609.8
3607.05
3600.3
3589.62
3575.13
3557
3535.47
3510.82
3483.37
3453.49
3421.55
3387.99
3353.23
3317.73
3281.93
3246.27
3211.18
3177.07
3144.18
3112.83
3083.24
3055.55
3029.86
3006.23
2984.68
2965.21
2947.76
2932.3
2918.76
2907.08
2897.18
2889
2882.47
2877.53
2874.12
2872.18
2871.68
2872.57
2874.79
2878.34
2883.19
2889.33
2896.76
2905.5
2915.57
2927
2939.84
2954.12
2969.9
2987.22
3006.13
3026.63
3048.76
3072.49
3097.79
3124.6
3152.82
3182.31
3212.91
3244.48
3276.62
3309.11
3341.64
3373.84
3405.33
3435.7
3464.54
3491.43
3515.97
3537.75
3556.42
3571.63
3583.11
3590.61
3593.97
3593.06
3587.9
3578.55
3565.12
3547.82
3526.94
3502.82
3475.85
3446.46
3415.1
3382.25
3348.38
3313.95
3279.4
3245.15
3211.55
3178.95
3147.59
3117.72
3089.49
3063.03
3038.43
3015.74
2994.97
2976.11
2959.13
2943.98
2930.6
2918.93
2908.88
2900.4
2893.4
2887.81
2883.57
2880.6
2878.85
2878.31
2878.92
2880.69
2883.61
2887.71
2893.01
2899.55
2907.37
2916.53
2927.06
2939.01
2952.43
2967.34
2983.78
3001.76
3021.29
3042.4
3065.07
3089.29
3115
3142.14
3170.59
3200.21
3230.78
3262.26
3294.04
3326
3357.77
3388.97
3419.2
3448.03
3475.02
3499.77
3521.85
3540.88
3556.52
3568.46
3576.48
3580.39
3580.07
3575.53
3566.82
3554.07
3537.5
3517.38
3494.08
3468
3439.59
3409.31
3377.64
3345.03
3311.91
3278.67
3245.67
3213.25
3181.71
3151.31
3122.27
3094.76
3068.91
3044.82
3022.53
3002.07
2983.45
2966.63
2951.59
2938.27
2926.62
2916.57
2908.07
2901.03
2895.4
2891.1
2888.09
2886.33
2885.76
2886.34
2888.05
2890.86
2894.77
2899.77
2905.87
2913.07
2921.4
2930.88
2941.56
2953.5
2966.76
2981.42
2997.56
3015.26
3034.59
3055.6
3078.33
3102.78
3128.91
3156.64
3185.82
3216.16
3247.4
3279.38
3311.68
3343.85
3375.48
3406.08
3435.17
3462.33
3487.09
3509.07
3527.92
3543.31
3555.02
3562.87
3566.75
3566.61
3562.37
3554.22
3542.31
3526.91
3508.37
3486.99
3463.15
3437.29
3409.79
3381.05
3351.45
3321.34
3291.09
3261
3231.42
3203.12
3175.06
3147.67
3121.17
3095.73
3071.44
3048.4
3026.65
3006.26
2987.26
2969.7
2953.61
2939.03
2925.98
2914.5
2904.61
2896.33
2889.67
2884.64
2881.25
2879.49
2879.36
2881
2884.33
2889.32
2895.97
2904.29
3223.49
3256.45
3289.37
3321.84
3353.47
3383.68
3412
3437.92
3461.02
3480.95
3497.4
3510.1
3518.84
3523.49
3523.96
3520.17
3512.29
3500.42
3484.75
3465.53
3443.08
3417.73
3389.84
3359.84
3328.14
3295.15
3261.3
3226.97
3192.57
3158.44
3124.83
3091.91
3065.22
3035.07
3006.49
2979.53
2954.27
2930.76
2909
2889.02
2870.78
2854.27
2839.44
2826.26
2814.68
2804.65
2796.15
2789.14
2783.58
2779.46
2776.76
2775.48
2775.62
2777.23
2780.3
2784.87
2790.96
2798.65
2807.95
2818.92
2831.6
2846.03
2862.24
2880.26
2900.07
2921.66
2945
2970.01
2996.61
3024.66
3054.04
3084.59
3117.75
3150.13
3183
3216.06
3249.02
3281.57
3313.34
3343.99
3373.16
3400.48
3425.59
3448.13
3467.77
3484.19
3497.11
3506.32
3511.64
3512.94
3510.19
3503.41
3492.67
3478.1
3459.87
3438.23
3413.45
3385.86
3355.83
3323.74
3290.02
3255.12
3219.47
3183.54
3147.76
3112.57
3078.36
3045.41
3014.02
2984.39
2956.69
2931
2907.38
2885.85
2866.4
2848.98
2833.55
2820.04
2808.39
2798.52
2790.37
2783.86
2778.94
2775.55
2773.63
2773.14
2774.04
2776.27
2779.82
2784.67
2790.81
2798.23
2806.96
2817.02
2828.44
2841.25
2855.51
2871.27
2888.57
2907.46
2927.95
2950.07
2973.8
2999.11
3025.93
3054.18
3083.71
3114.36
3146.01
3178.22
3210.81
3243.45
3275.77
3307.39
3337.91
3366.89
3393.93
3418.61
3440.54
3459.33
3474.65
3486.22
3493.78
3497.17
3496.27
3491.09
3481.67
3468.16
3450.75
3429.74
3405.47
3378.34
3348.78
3317.27
3284.26
3250.24
3215.67
3181
3146.64
3112.96
3080.28
3048.87
3018.96
2990.71
2964.24
2939.64
2916.96
2896.2
2877.37
2860.41
2845.29
2831.93
2820.29
2810.27
2801.82
2794.84
2789.28
2785.06
2782.1
2780.37
2779.83
2780.45
2782.22
2785.13
2789.22
2794.51
2801.03
2808.84
2817.97
2828.49
2840.42
2853.82
2868.72
2885.14
2903.1
2922.63
2943.73
2966.4
2990.62
3016.34
3043.5
3071.99
3101.65
3132.3
3163.83
3195.72
3227.78
3259.67
3291.01
3321.37
3350.35
3377.5
3402.39
3424.61
3443.77
3459.52
3471.56
3479.64
3483.58
3483.27
3478.71
3469.94
3457.11
3440.42
3420.17
3396.71
3370.47
3341.9
3311.46
3279.65
3246.9
3213.65
3180.29
3147.2
3114.7
3083.09
3052.63
3023.55
2996.02
2970.16
2946.06
2923.78
2903.33
2884.73
2867.93
2852.91
2839.62
2828
2817.97
2809.49
2802.48
2796.87
2792.59
2789.6
2787.85
2787.29
2787.88
2789.6
2792.41
2796.32
2801.32
2807.41
2814.59
2822.91
2832.38
2843.03
2854.95
2868.17
2882.8
2898.92
2916.58
2935.89
2956.88
2979.6
3004.04
3030.19
3057.95
3087.17
3117.58
3148.9
3181
3213.42
3245.73
3277.51
3308.27
3337.52
3364.83
3389.74
3411.85
3430.82
3446.31
3458.09
3465.98
3469.88
3469.74
3465.46
3457.24
3445.23
3429.73
3411.05
3389.54
3365.57
3339.56
3311.93
3283.06
3253.34
3223.13
3192.78
3162.6
3132.93
3104.71
3076.59
3049.15
3022.62
2997.15
2972.85
2949.8
2928.05
2907.65
2888.65
2871.09
2855
2840.41
2827.36
2815.88
2805.99
2797.71
2791.05
2786.03
2782.64
2780.88
2780.75
2782.39
2785.72
2790.72
2797.38
2805.7
3125.12
3158.2
3191.26
3223.89
3255.69
3286.07
3314.57
3340.66
3363.91
3383.98
3400.55
3413.33
3422.14
3426.83
3427.3
3423.49
3415.55
3403.59
3387.81
3368.46
3345.86
3320.35
3292.29
3262.13
3230.26
3197.12
3163.12
3128.66
3094.15
3059.92
3026.23
2993.22
2966.46
2936.26
2907.65
2880.69
2855.43
2831.92
2810.18
2790.22
2772
2755.52
2740.71
2727.55
2715.99
2705.99
2697.5
2690.5
2684.96
2680.85
2678.15
2676.88
2677.01
2678.61
2681.67
2686.22
2692.3
2699.96
2709.24
2720.19
2732.85
2747.26
2763.46
2781.46
2801.26
2822.86
2846.2
2871.23
2897.85
2925.95
2955.39
2986.03
3019.1
3051.6
3084.58
3117.75
3150.83
3183.51
3215.41
3246.21
3275.53
3303
3328.25
3350.94
3370.71
3387.24
3400.27
3409.55
3414.91
3416.24
3413.48
3406.67
3395.87
3381.21
3362.87
3341.09
3316.17
3288.42
3258.22
3225.97
3192.08
3157
3121.19
3085.11
3049.2
3013.89
2979.58
2946.55
2915.11
2885.45
2857.73
2832.04
2808.44
2786.93
2767.5
2750.11
2734.72
2721.24
2709.62
2699.79
2691.66
2685.18
2680.29
2676.92
2675.02
2674.54
2675.45
2677.7
2681.25
2686.1
2692.24
2699.65
2708.37
2718.41
2729.81
2742.6
2756.84
2772.58
2789.85
2808.72
2829.2
2851.3
2875.03
2900.35
2927.2
2955.47
2985.05
3015.75
3047.49
3079.79
3112.49
3145.25
3177.71
3209.48
3240.15
3269.3
3296.51
3321.35
3343.43
3362.36
3377.81
3389.48
3397.11
3400.54
3399.65
3394.44
3384.96
3371.34
3353.81
3332.65
3308.21
3280.9
3251.16
3219.46
3186.28
3152.09
3117.37
3082.56
3048.07
3014.29
2981.53
2950.07
2920.11
2891.84
2865.36
2840.76
2818.09
2797.35
2778.54
2761.61
2746.51
2733.19
2721.58
2711.6
2703.17
2696.23
2690.69
2686.49
2683.56
2681.85
2681.31
2681.94
2683.7
2686.61
2690.68
2695.96
2702.46
2710.25
2719.36
2729.86
2741.77
2755.15
2770.03
2786.43
2804.38
2823.9
2844.99
2867.65
2891.87
2917.61
2944.8
2973.32
3003.04
3033.76
3065.36
3097.36
3129.54
3161.57
3193.05
3223.58
3252.72
3280.04
3305.1
3327.48
3346.79
3362.66
3374.81
3382.96
3386.94
3386.64
3382.05
3373.22
3360.28
3343.47
3323.06
3299.44
3273.02
3244.26
3213.65
3181.66
3148.76
3115.37
3081.89
3048.68
3016.08
2984.4
2953.88
2924.76
2897.19
2871.32
2847.22
2824.95
2804.51
2785.93
2769.15
2754.16
2740.9
2729.3
2719.31
2710.86
2703.87
2698.29
2694.03
2691.06
2689.33
2688.78
2689.38
2691.1
2693.92
2697.82
2702.82
2708.9
2716.07
2724.37
2733.82
2744.45
2756.34
2769.53
2784.12
2800.2
2817.83
2837.11
2858.08
2880.78
2905.22
2931.38
2959.18
2988.45
3018.94
3050.36
3082.58
3115.14
3147.6
3179.55
3210.49
3239.92
3267.4
3292.48
3314.75
3333.84
3349.44
3361.31
3369.25
3373.17
3373.02
3368.69
3360.4
3348.29
3332.66
3313.84
3292.18
3268.05
3241.88
3214.1
3185.09
3155.24
3124.9
3094.44
3064.15
3034.38
3006.26
2978.07
2950.57
2924
2898.51
2874.2
2851.14
2829.38
2808.98
2789.98
2772.41
2756.32
2741.73
2728.68
2717.2
2707.31
2699.03
2692.37
2687.35
2683.96
2682.21
2682.08
2683.72
2687.06
2692.06
2698.72
2707.04
3026.72
3059.94
3093.15
3125.95
3157.94
3188.52
3217.21
3243.49
3266.91
3287.13
3303.83
3316.72
3325.6
3330.32
3330.81
3326.96
3318.96
3306.91
3291
3271.5
3248.74
3223.05
3194.81
3164.46
3132.41
3099.09
3064.93
3030.33
2995.69
2961.35
2927.57
2894.5
2867.6
2837.35
2808.73
2781.76
2756.51
2733.01
2711.28
2691.34
2673.15
2656.69
2641.91
2628.78
2617.24
2607.26
2598.8
2591.81
2586.28
2582.18
2579.49
2578.21
2578.34
2579.93
2582.98
2587.52
2593.57
2601.22
2610.47
2621.39
2634.03
2648.41
2664.6
2682.59
2702.38
2723.97
2747.33
2772.37
2799.02
2827.17
2856.67
2887.41
2920.4
2953.03
2986.12
3019.42
3052.64
3085.45
3117.51
3148.46
3177.94
3205.58
3231
3253.84
3273.76
3290.43
3303.56
3312.93
3318.35
3319.7
3316.94
3310.08
3299.21
3284.45
3265.99
3244.07
3218.98
3191.06
3160.67
3128.23
3094.15
3058.88
3022.9
2986.64
2950.58
2915.14
2880.72
2847.61
2816.1
2786.41
2758.68
2732.99
2709.4
2687.91
2668.51
2651.16
2635.8
2622.37
2610.78
2600.98
2592.89
2586.44
2581.57
2578.23
2576.35
2575.89
2576.81
2579.07
2582.63