/*--------------------------------*- C++ -*----------------------------------*\
| =========                 |                                                 |
| \\      /  F ield         | OpenFOAM: The Open Source CFD Toolbox           |
|  \\    /   O peration     | Version:  3.0.1                                 |
|   \\  /    A nd           | Web:      www.OpenFOAM.org                      |
|    \\/     M anipulation  |                                                 |
\*---------------------------------------------------------------------------*/
FoamFile
{
    version     2.0;
    format      ascii;
    class       volScalarField;
    location    "80.8";
    object      p_rgh;
}
// * * * * * * * * * * * * * * * * * * * * * * * * * * * * * * * * * * * * * //

dimensions      [1 -1 -2 0 0 0 0];

internalField   nonuniform List<scalar> 
21420
(
385.251
400.099
411.06
418.04
420.976
419.63
414.179
404.741
391.366
374.24
353.601
329.758
303.084
273.92
242.699
209.808
175.682
140.783
105.534
70.3522
35.8263
2.77624
-29.977
-61.5855
-91.7994
-120.441
-147.392
-172.558
-195.891
-217.372
-236.993
-254.778
-270.756
-284.969
-297.461
-308.279
-317.467
-325.068
-331.118
-335.649
-338.688
-340.214
-340.216
-338.668
-335.633
-331.023
-324.827
-317.023
-307.558
-296.387
-283.484
-268.802
-252.316
-234.015
-213.864
-191.896
-168.151
-142.664
-115.529
-86.8708
-56.8136
-25.5474
6.7077
39.7184
73.2332
106.932
140.498
173.581
205.829
236.879
266.367
293.943
319.264
342.006
361.87
378.578
391.888
401.585
407.499
409.468
407.344
401.181
391.11
377.206
359.662
338.701
314.599
287.679
258.295
226.83
193.686
159.275
124.016
88.3265
52.6211
17.2971
-17.2709
-50.7403
-82.8089
-113.222
-141.773
-168.314
-192.746
-215.016
-235.118
-253.077
-268.944
-282.787
-294.687
-304.734
-313.01
-319.596
-324.571
-328.006
-329.972
-330.501
-329.601
-327.378
-323.825
-318.954
-312.774
-305.29
-296.495
-286.371
-274.899
-262.057
-247.81
-232.126
-214.972
-196.31
-176.106
-154.342
-131.008
-106.114
-79.7067
-51.8612
-22.6911
7.65275
38.9819
71.0446
103.54
136.162
168.562
200.359
231.154
260.532
288.071
313.356
335.994
355.613
371.879
384.504
393.259
397.978
398.481
394.886
387.131
375.329
359.666
340.392
317.81
292.281
264.209
234.027
202.189
169.157
135.383
101.305
67.3332
33.8475
1.16765
-30.424
-60.6955
-89.4644
-116.594
-141.99
-165.596
-187.385
-207.358
-225.535
-241.948
-256.638
-269.654
-281.046
-290.868
-299.172
-306.009
-311.428
-315.471
-318.18
-319.585
-319.695
-318.517
-316.108
-312.439
-307.504
-301.291
-293.784
-284.961
-274.797
-263.265
-250.332
-235.975
-220.171
-202.893
-184.117
-163.833
-142.032
-118.729
-93.9689
-67.8248
-40.4002
-11.8315
17.7171
48.0544
78.9573
110.134
141.308
172.158
202.33
231.443
259.098
284.887
308.405
329.266
347.104
361.591
372.452
379.464
382.456
381.335
376.117
366.889
353.732
336.885
316.623
293.284
267.248
238.933
208.776
177.225
144.722
111.692
78.5361
45.626
13.3013
-18.1371
-48.4261
-77.347
-104.727
-130.438
-154.394
-176.549
-196.883
-215.405
-232.145
-247.142
-260.444
-272.11
-282.198
-290.763
-297.865
-303.565
-307.917
-310.99
-312.818
-313.443
-312.933
-311.317
-308.605
-304.804
-299.93
-293.989
-286.959
-278.813
-269.534
-259.105
-247.485
-234.616
-220.443
-204.934
-188.036
-169.704
-149.911
-128.644
-105.917
-81.7509
-56.1932
-29.3494
-1.38926
27.1244
56.8298
87.2316
117.967
148.636
178.855
208.181
236.155
262.34
286.278
307.559
325.8
340.655
351.86
359.204
362.539
361.799
356.968
348.192
335.604
319.51
300.234
278.121
253.547
226.949
198.753
169.386
139.264
108.76
78.2534
48.0396
18.3717
-10.5048
-35.9298
-62.4389
-87.8359
-111.983
-134.828
-156.356
-176.561
-195.454
-213.056
-229.382
-244.45
-258.271
-270.849
-282.182
-292.256
-301.054
-308.553
-314.723
-319.535
-322.974
-324.987
-325.526
-324.509
-321.955
-317.825
-312.12
-304.854
-296
-285.569
-273.558
-259.987
-244.889
-228.271
-210.17
385.381
400.24
411.211
418.194
421.131
419.801
414.342
404.893
391.507
374.368
353.715
329.854
303.162
273.979
242.739
209.829
175.684
140.769
105.505
70.3094
35.7729
2.71047
-30.0498
-61.6636
-91.8814
-120.526
-147.478
-172.643
-195.975
-217.454
-237.073
-254.855
-270.831
-285.04
-297.53
-308.345
-317.531
-325.13
-331.178
-335.708
-338.746
-340.272
-340.274
-338.729
-335.695
-331.086
-324.891
-317.089
-307.626
-296.458
-283.557
-268.877
-252.394
-234.094
-213.944
-191.977
-168.232
-142.743
-115.606
-86.9441
-56.882
-25.6097
6.65332
39.6736
73.1993
106.91
140.489
173.587
205.851
236.916
266.421
294.013
319.349
342.106
361.983
378.704
392.024
401.729
407.651
409.631
407.493
401.328
391.251
377.337
359.782
338.806
314.688
287.75
258.348
226.864
193.701
159.272
123.995
88.2888
52.568
17.2302
-17.3497
-50.829
-82.9054
-113.324
-141.879
-168.421
-192.852
-215.121
-235.22
-253.176
-269.039
-282.877
-294.773
-304.815
-313.088
-319.671
-324.643
-328.075
-330.04
-330.564
-329.665
-327.44
-323.886
-319.015
-312.836
-305.352
-296.558
-286.435
-274.965
-262.125
-247.88
-232.198
-215.047
-196.387
-176.185
-154.423
-131.09
-106.196
-79.7878
-51.9396
-22.7649
7.58495
38.9213
70.9942
103.501
136.137
168.551
200.365
231.177
260.573
288.131
313.435
336.091
355.726
372.006
384.643
393.406
398.13
398.642
395.033
387.276
375.465
359.79
340.5
317.901
292.353
264.261
234.058
202.201
169.149
135.357
101.263
67.2779
33.781
1.09156
-30.5073
-60.7839
-89.556
-116.687
-142.083
-165.689
-187.476
-207.446
-225.621
-242.03
-256.717
-269.73
-281.119
-290.939
-299.24
-306.075
-311.491
-315.533
-318.241
-319.645
-319.752
-318.576
-316.166
-312.498
-307.563
-301.351
-293.845
-285.023
-274.861
-263.33
-250.399
-236.044
-220.242
-202.966
-184.192
-163.909
-142.109
-118.805
-94.0442
-67.8978
-40.4694
-11.8958
17.6588
48.004
78.9166
110.104
141.291
172.155
202.343
231.473
259.145
284.953
308.489
329.366
347.22
361.721
372.593
379.612
382.614
381.486
376.265
367.03
353.863
337.002
316.724
293.366
267.311
238.976
208.799
177.23
144.709
111.663
78.4927
45.57
13.2345
-18.2128
-48.5088
-77.4347
-104.818
-130.53
-154.486
-176.64
-196.972
-215.492
-232.228
-247.222
-260.521
-272.183
-282.267
-290.83
-297.929
-303.626
-307.975
-311.045
-312.871
-313.492
-312.983
-311.365
-308.652
-304.851
-299.977
-294.036
-287.007
-278.862
-269.585
-259.157
-247.54
-234.674
-220.503
-204.998
-188.102
-169.773
-149.982
-128.717
-105.99
-81.8237
-56.2638
-29.416
-1.4501
27.0639
56.7788
87.1931
117.943
148.628
178.865
208.21
236.205
262.409
286.368
307.667
325.924
340.793
352.008
359.36
362.705
361.953
357.116
348.333
335.736
319.627
300.334
278.204
253.611
226.994
198.779
169.395
139.257
108.74
78.2221
47.9993
18.3261
-10.55
-35.9983
-62.5045
-87.9006
-112.047
-134.891
-156.418
-176.62
-195.512
-213.112
-229.437
-244.503
-258.324
-270.901
-282.234
-292.308
-301.106
-308.605
-314.777
-319.59
-323.03
-325.043
-325.583
-324.568
-322.014
-317.885
-312.181
-304.915
-296.062
-285.632
-273.621
-260.051
-244.953
-228.335
-210.233
385.639
400.523
411.512
418.506
421.444
420.138
414.661
405.199
391.791
374.626
353.941
330.046
303.317
274.096
242.818
209.869
175.689
140.74
105.446
70.2238
35.666
2.57901
-30.1955
-61.8199
-92.0453
-120.694
-147.648
-172.813
-196.144
-217.618
-237.233
-255.01
-270.98
-285.184
-297.669
-308.478
-317.659
-325.254
-331.3
-335.827
-338.863
-340.39
-340.391
-338.851
-335.817
-331.21
-325.019
-317.221
-307.762
-296.598
-283.702
-269.027
-252.547
-234.251
-214.104
-192.137
-168.392
-142.901
-115.758
-87.0896
-57.0176
-25.733
6.54586
39.5854
73.1329
106.868
140.474
173.601
205.895
236.993
266.53
294.153
319.52
342.307
362.212
378.958
392.299
402.023
407.959
409.964
407.797
401.631
391.541
377.61
360.032
339.028
314.878
287.907
258.468
226.948
193.748
159.282
123.97
88.2313
52.48
17.115
-17.4886
-50.9875
-83.0791
-113.509
-142.07
-168.616
-193.046
-215.311
-235.405
-253.353
-269.207
-283.037
-294.925
-304.959
-313.223
-319.8
-324.766
-328.194
-330.155
-330.669
-329.773
-327.547
-323.991
-319.119
-312.941
-305.459
-296.666
-286.546
-275.08
-262.242
-248.002
-232.325
-215.178
-196.523
-176.326
-154.567
-131.235
-106.343
-79.9318
-52.0784
-22.8945
7.46721
38.8182
70.9111
103.441
136.104
168.548
200.395
231.243
260.675
288.27
313.611
336.302
355.97
372.277
384.938
393.719
398.451
398.98
395.347
387.585
375.756
360.056
340.736
318.102
292.515
264.382
234.139
202.242
169.152
135.326
101.2
67.1867
33.6673
0.958886
-30.6543
-60.941
-89.7197
-116.854
-142.251
-165.854
-187.637
-207.604
-225.773
-242.176
-256.858
-269.864
-281.248
-291.062
-299.358
-306.188
-311.601
-315.639
-318.345
-319.747
-319.848
-318.676
-316.266
-312.598
-307.665
-301.455
-293.951
-285.132
-274.974
-263.446
-250.519
-236.168
-220.369
-203.096
-184.326
-164.046
-142.247
-118.944
-94.1801
-68.0291
-40.5935
-12.0099
17.5568
47.9174
78.8493
110.059
141.271
172.163
202.383
231.546
259.255
285.098
308.67
329.582
347.467
361.996
372.889
379.924
382.942
381.803
376.576
367.328
354.141
337.252
316.941
293.547
267.453
239.078
208.863
177.255
144.7
111.622
78.4228
45.475
13.118
-18.3471
-48.6569
-77.5928
-104.982
-130.697
-154.654
-176.805
-197.133
-215.648
-232.378
-247.365
-260.657
-272.314
-282.392
-290.948
-298.042
-303.733
-308.078
-311.143
-312.961
-313.582
-313.072
-311.451
-308.737
-304.936
-300.062
-294.122
-287.095
-278.953
-269.68
-259.256
-247.645
-234.784
-220.62
-205.121
-188.231
-169.907
-150.121
-128.858
-106.134
-81.9669
-56.4031
-29.5472
-1.57032
26.9447
56.6784
87.1174
117.896
148.613
178.886
208.269
236.304
262.549
286.547
307.883
326.172
341.069
352.306
359.672
363.029
362.27
357.415
348.618
335.999
319.861
300.535
278.369
253.738
227.084
198.832
169.414
139.245
108.701
78.1596
47.9187
18.2345
-10.641
-36.1347
-62.6356
-88.03
-112.175
-135.017
-156.54
-176.739
-195.627
-213.224
-229.546
-244.61
-258.429
-271.005
-282.337
-292.411
-301.211
-308.711
-314.885
-319.7
-323.142
-325.155
-325.701
-324.687
-322.133
-318.005
-312.303
-305.039
-296.187
-285.758
-273.749
-260.179
-245.081
-228.463
-210.359
386.027
400.947
411.965
418.975
421.919
420.638
415.141
405.658
392.217
375.013
354.281
330.334
303.55
274.272
242.936
209.93
175.695
140.696
105.357
70.0952
35.5052
2.38162
-30.4142
-62.0545
-92.2914
-120.947
-147.904
-173.068
-196.396
-217.865
-237.474
-255.242
-271.204
-285.399
-297.876
-308.678
-317.852
-325.441
-331.482
-336.005
-339.037
-340.564
-340.569
-339.035
-336.001
-331.397
-325.211
-317.419
-307.966
-296.81
-283.921
-269.252
-252.778
-234.487
-214.343
-192.378
-168.632
-143.137
-115.988
-87.3082
-57.2213
-25.9182
6.38443
39.4527
73.033
106.805
140.452
173.622
205.962
237.107
266.693
294.364
319.777
342.609
362.556
379.339
392.713
402.463
408.422
410.458
408.259
402.088
391.979
378.022
360.408
339.363
315.166
288.144
258.651
227.076
193.821
159.301
123.936
88.1476
52.3505
16.9447
-17.6942
-51.2225
-83.3372
-113.783
-142.355
-168.904
-193.334
-215.594
-235.679
-253.616
-269.458
-283.275
-295.151
-305.172
-313.424
-319.991
-324.949
-328.369
-330.325
-330.826
-329.933
-327.704
-324.145
-319.273
-313.096
-305.616
-296.826
-286.71
-275.248
-262.416
-248.182
-232.512
-215.372
-196.724
-176.534
-154.78
-131.451
-106.559
-80.145
-52.2838
-23.0866
7.29312
38.6665
70.7896
103.355
136.057
168.547
200.443
231.343
260.831
288.482
313.879
336.623
356.339
372.689
385.385
394.191
398.938
399.486
395.828
388.052
376.196
360.46
341.093
318.406
292.762
264.569
234.265
202.308
169.161
135.281
101.108
67.053
33.4998
0.762806
-30.8719
-61.174
-89.9624
-117.101
-142.499
-166.1
-187.878
-207.837
-225.998
-242.393
-257.065
-270.063
-281.438
-291.244
-299.533
-306.357
-311.764
-315.797
-318.498
-319.897
-319.994
-318.825
-316.413
-312.746
-307.815
-301.608
-294.109
-285.294
-275.14
-263.617
-250.695
-236.35
-220.557
-203.289
-184.525
-164.248
-142.452
-119.149
-94.382
-68.224
-40.7774
-12.1791
17.4061
47.7897
78.7508
109.993
141.243
172.178
202.445
231.66
259.422
285.319
308.946
329.909
347.841
362.41
373.337
380.394
383.427
382.289
377.05
367.778
354.56
337.63
317.27
293.821
267.669
239.235
208.961
177.297
144.689
111.563
78.3208
45.3355
12.9461
-18.5457
-48.8764
-77.8273
-105.226
-130.945
-154.902
-177.05
-197.372
-215.879
-232.601
-247.578
-260.861
-272.508
-282.576
-291.124
-298.21
-303.893
-308.23
-311.288
-313.096
-313.718
-313.204
-311.578
-308.863
-305.064
-300.191
-294.252
-287.227
-279.091
-269.823
-259.405
-247.802
-234.949
-220.794
-205.305
-188.425
-170.109
-150.329
-129.071
-106.349
-82.1821
-56.6122
-29.7443
-1.75082
26.7653
56.5273
87.0035
117.825
148.591
178.917
208.358
236.453
262.758
286.815
308.206
326.545
341.483
352.752
360.141
363.505
362.752
357.868
349.045
336.393
320.212
300.837
278.616
253.929
227.218
198.912
169.443
139.226
108.641
78.0654
47.7975
18.0966
-10.7789
-36.3381
-62.832
-88.2242
-112.367
-135.205
-156.724
-176.918
-195.8
-213.392
-229.709
-244.77
-258.586
-271.161
-282.492
-292.567
-301.367
-308.87
-315.046
-319.865
-323.309
-325.322
-325.878
-324.865
-322.311
-318.185
-312.485
-305.223
-296.374
-285.947
-273.94
-260.372
-245.274
-228.655
-210.548
386.544
401.513
412.569
419.604
422.555
421.296
415.785
406.268
392.785
375.528
354.735
330.719
303.86
274.506
243.093
210.011
175.704
140.638
105.238
69.9235
35.2906
2.1179
-30.7061
-62.3677
-92.6198
-121.284
-148.245
-173.409
-196.732
-218.195
-237.794
-255.552
-271.502
-285.686
-298.152
-308.944
-318.109
-325.691
-331.725
-336.243
-339.269
-340.795
-340.809
-339.278
-336.246
-331.647
-325.467
-317.682
-308.239
-297.091
-284.211
-269.552
-253.086
-234.802
-214.662
-192.699
-168.952
-143.453
-116.294
-87.6
-57.4932
-26.1654
6.16891
39.2756
72.8993
106.72
140.421
173.649
206.051
237.259
266.91
294.645
320.121
343.012
363.014
379.848
393.265
403.05
409.038
411.105
408.887
402.702
392.564
378.572
360.911
339.81
315.55
288.46
258.896
227.247
193.918
159.325
123.89
88.0359
52.1778
16.7176
-17.9685
-51.536
-83.6813
-114.149
-142.734
-169.289
-193.718
-215.971
-236.044
-253.967
-269.792
-283.592
-295.451
-305.455
-313.693
-320.245
-325.192
-328.602
-330.548
-331.04
-330.146
-327.913
-324.351
-319.478
-313.302
-305.825
-297.038
-286.928
-275.472
-262.647
-248.421
-232.761
-215.63
-196.992
-176.811
-155.064
-131.739
-106.848
-80.429
-52.5572
-23.3427
7.06065
38.4648
70.6286
103.24
135.996
168.545
200.508
231.479
261.039
288.765
314.237
337.051
356.833
373.24
385.982
394.823
399.588
400.152
396.478
388.678
376.785
360.999
341.571
318.813
293.092
264.818
234.433
202.396
169.173
135.223
100.986
66.8749
33.2766
0.501439
-31.1622
-61.4845
-90.286
-117.431
-142.83
-166.427
-188.198
-208.147
-226.298
-242.681
-257.342
-270.328
-281.692
-291.487
-299.766
-306.581
-311.98
-316.007
-318.702
-320.094
-320.192
-319.022
-316.609
-312.944
-308.016
-301.813
-294.318
-285.51
-275.362
-263.846
-250.931
-236.594
-220.807
-203.547
-184.79
-164.519
-142.725
-119.422
-94.6509
-68.4835
-41.0226
-12.4047
17.2055
47.6194
78.6196
109.905
141.205
172.198
202.528
231.811
259.644
285.615
309.314
330.346
348.34
362.965
373.935
381.022
384.069
382.943
377.686
368.381
355.121
338.135
317.709
294.188
267.958
239.444
209.092
177.353
144.675
111.484
78.185
45.1496
12.7169
-18.8104
-49.169
-78.1398
-105.551
-131.276
-155.233
-177.377
-197.69
-216.187
-232.898
-247.861
-261.131
-272.766
-282.822
-291.359
-298.433
-304.105
-308.433
-311.48
-313.279
-313.898
-313.378
-311.748
-309.031
-305.233
-300.362
-294.425
-287.404
-279.274
-270.014
-259.604
-248.011
-235.169
-221.027
-205.552
-188.683
-170.377
-150.606
-129.355
-106.637
-82.4692
-56.8916
-30.0076
-1.9914
26.5249
56.3254
86.8514
117.73
148.56
178.958
208.477
236.651
263.037
287.173
308.638
327.043
342.036
353.348
360.765
364.138
363.393
358.477
349.617
336.92
320.681
301.239
278.946
254.184
227.397
199.018
169.48
139.201
108.561
77.9393
47.6354
17.9116
-10.9649
-36.6075
-63.0936
-88.4831
-112.623
-135.457
-156.969
-177.156
-196.031
-213.616
-229.927
-244.983
-258.795
-271.368
-282.699
-292.775
-301.577
-309.082
-315.261
-320.085
-323.531
-325.547
-326.113
-325.101
-322.549
-318.426
-312.728
-305.47
-296.623
-286.2
-274.195
-260.628
-245.531
-228.91
-210.8
387.192
402.222
413.326
420.391
423.356
422.11
416.591
407.032
393.495
376.173
355.302
331.199
304.247
274.799
243.289
210.112
175.714
140.564
105.088
69.7084
35.0215
1.78748
-31.0716
-62.7599
-93.0309
-121.707
-148.672
-173.835
-197.153
-218.607
-238.194
-255.939
-271.875
-286.045
-298.497
-309.276
-318.43
-326.002
-332.028
-336.54
-339.56
-341.085
-341.108
-339.58
-336.551
-331.958
-325.787
-318.012
-308.58
-297.444
-284.575
-269.927
-253.471
-235.195
-215.061
-193.101
-169.353
-143.848
-116.677
-87.9654
-57.8337
-26.4749
5.89904
39.0535
72.7316
106.614
140.382
173.683
206.161
237.45
267.181
294.996
320.55
343.516
363.587
380.484
393.955
403.785
409.806
411.9
409.675
403.47
393.296
379.259
361.54
340.369
316.031
288.855
259.201
227.46
194.039
159.355
123.833
87.8955
51.9609
16.4327
-18.3125
-51.9289
-84.1125
-114.607
-143.209
-169.771
-194.198
-216.442
-236.501
-254.406
-270.211
-283.989
-295.826
-305.81
-314.028
-320.564
-325.496
-328.893
-330.824
-331.309
-330.412
-328.173
-324.608
-319.734
-313.56
-306.086
-297.304
-287.2
-275.752
-262.936
-248.721
-233.072
-215.953
-197.327
-177.157
-155.419
-132.1
-107.209
-80.7844
-52.8993
-23.6637
6.76917
38.212
70.4268
103.096
135.918
168.543
200.588
231.647
261.3
289.12
314.684
337.588
357.45
373.929
386.73
395.614
400.404
400.979
397.297
389.463
377.523
361.674
342.168
319.322
293.504
265.13
234.642
202.505
169.187
135.149
100.832
66.6514
32.9967
0.173809
-31.5258
-61.8735
-90.6912
-117.844
-143.244
-166.837
-188.598
-208.536
-226.673
-243.042
-257.688
-270.66
-282.009
-291.791
-300.058
-306.861
-312.251
-316.269
-318.956
-320.341
-320.439
-319.268
-316.855
-313.191
-308.267
-302.069
-294.58
-285.779
-275.639
-264.131
-251.226
-236.898
-221.12
-203.869
-185.121
-164.857
-143.067
-119.765
-94.9878
-68.8083
-41.3297
-12.6873
16.954
47.4055
78.4553
109.795
141.158
172.222
202.631
231.999
259.923
285.985
309.774
330.893
348.965
363.659
374.684
381.809
384.873
383.756
378.483
369.137
355.823
338.767
318.259
294.646
268.318
239.705
209.255
177.422
144.656
111.385
78.0145
44.9165
12.4299
-19.142
-49.5354
-78.5311
-105.958
-131.69
-155.648
-177.786
-198.089
-216.573
-233.268
-248.216
-261.47
-273.089
-283.13
-291.652
-298.712
-304.371
-308.687
-311.719
-313.51
-314.123
-313.596
-311.96
-309.242
-305.445
-300.576
-294.641
-287.624
-279.502
-270.252
-259.852
-248.272
-235.445
-221.318
-205.86
-189.005
-170.713
-150.953
-129.711
-106.997
-82.8286
-57.2417
-30.3374
-2.29176
26.2225
56.0722
86.6607
117.611
148.522
179.009
208.625
236.898
263.385
287.62
309.178
327.665
342.728
354.094
361.546
364.932
364.188
359.244
350.335
337.579
321.267
301.743
279.358
254.501
227.62
199.149
169.526
139.168
108.46
77.7807
47.4318
17.6785
-11.2006
-36.9417
-63.4201
-88.8067
-112.943
-135.771
-157.276
-177.454
-196.32
-213.896
-230.2
-245.249
-259.057
-271.628
-282.958
-293.034
-301.838
-309.347
-315.53
-320.359
-323.808
-325.83
-326.406
-325.396
-322.846
-318.726
-313.033
-305.778
-296.934
-286.515
-274.514
-260.949
-245.852
-229.229
-211.115
387.969
403.073
414.234
421.338
424.321
423.085
417.557
407.948
394.348
376.947
355.983
331.776
304.712
275.15
243.524
210.232
175.725
140.474
104.908
69.4497
34.6972
1.39003
-31.5109
-63.2314
-93.525
-122.214
-149.186
-174.347
-197.659
-219.102
-238.675
-256.404
-272.323
-286.476
-298.911
-309.675
-318.815
-326.375
-332.392
-336.897
-339.91
-341.434
-341.466
-339.941
-336.917
-332.332
-326.171
-318.407
-308.988
-297.866
-285.011
-270.377
-253.934
-235.666
-215.541
-193.583
-169.834
-144.322
-117.138
-88.4045
-58.2431
-26.8471
5.57443
38.7863
72.5295
106.486
140.335
173.723
206.293
237.678
267.506
295.417
321.065
344.12
364.275
381.248
394.784
404.667
410.728
412.843
410.619
404.391
394.177
380.085
362.295
341.041
316.608
289.329
259.568
227.716
194.184
159.391
123.763
87.7257
51.6993
16.0896
-18.7268
-52.4019
-84.6314
-115.159
-143.781
-170.351
-194.775
-217.009
-237.051
-254.933
-270.713
-284.466
-296.277
-306.236
-314.43
-320.945
-325.86
-329.242
-331.157
-331.634
-330.73
-328.485
-324.917
-320.042
-313.87
-306.399
-297.623
-287.526
-276.088
-263.283
-249.08
-233.446
-216.341
-197.729
-177.573
-155.846
-132.533
-107.643
-81.2119
-53.3107
-24.0501
6.41829
37.907
70.1838
102.922
135.824
168.539
200.683
231.849
261.612
289.545
315.221
338.231
358.192
374.757
387.629
396.564
401.384
401.97
398.282
390.406
378.41
362.484
342.886
319.933
294
265.503
234.893
202.636
169.203
135.059
100.646
66.3815
32.6593
-0.2209
-31.9636
-62.3417
-91.1787
-118.341
-143.742
-167.329
-189.08
-209.004
-227.125
-243.475
-258.103
-271.058
-282.39
-292.156
-300.408
-307.198
-312.576
-316.583
-319.261
-320.64
-320.734
-319.563
-317.15
-313.488
-308.568
-302.376
-294.895
-286.102
-275.972
-264.475
-251.58
-237.263
-221.496
-204.256
-185.52
-165.264
-143.479
-120.177
-95.3929
-69.1993
-41.6993
-13.0275
16.6511
47.1474
78.2573
109.662
141.1
172.25
202.754
232.225
260.256
286.428
310.326
331.549
349.716
364.492
375.583
382.755
385.842
384.732
379.44
370.046
356.667
339.526
318.92
295.196
268.751
240.019
209.45
177.504
144.632
111.266
77.8087
44.6357
12.0842
-19.541
-49.9761
-79.0017
-106.447
-132.188
-156.145
-178.277
-198.568
-217.036
-233.714
-248.641
-261.876
-273.476
-283.499
-292.004
-299.047
-304.69
-308.99
-312.008
-313.788
-314.391
-313.856
-312.215
-309.494
-305.699
-300.833
-294.9
-287.889
-279.776
-270.537
-260.151
-248.585
-235.775
-221.668
-206.23
-189.392
-171.116
-151.37
-130.138
-107.431
-83.2608
-57.6628
-30.7339
-2.6517
25.857
55.7671
86.4308
117.467
148.474
179.069
208.802
237.195
263.803
288.157
309.826
328.413
343.559
354.989
362.484
365.888
365.139
360.166
351.198
338.371
321.971
302.347
279.853
254.882
227.887
199.307
169.58
139.128
108.338
77.589
47.1863
17.3962
-11.488
-37.3394
-63.8114
-89.1952
-113.327
-136.149
-157.644
-177.812
-196.666
-214.232
-230.527
-245.569
-259.372
-271.939
-283.268
-293.345
-302.152
-309.664
-315.853
-320.688
-324.141
-326.17
-326.755
-325.749
-323.202
-319.087
-313.398
-306.147
-297.308
-286.894
-274.896
-261.334
-246.238
-229.613
-211.494
388.876
404.066
415.295
422.445
425.452
424.223
418.681
409.017
395.344
377.851
356.778
332.449
305.255
275.559
243.797
210.372
175.737
140.368
104.696
69.1469
34.3167
0.92521
-32.0244
-63.7826
-94.1026
-122.807
-149.785
-174.945
-198.249
-219.679
-239.237
-256.946
-272.846
-286.978
-299.394
-310.14
-319.264
-326.811
-332.817
-337.313
-340.32
-341.842
-341.882
-340.361
-337.343
-332.768
-326.619
-318.869
-309.465
-298.36
-285.521
-270.903
-254.474
-236.217
-216.1
-194.147
-170.396
-144.876
-117.676
-88.9179
-58.7219
-27.2824
5.19454
38.4734
72.2925
106.335
140.279
173.769
206.447
237.944
267.884
295.908
321.666
344.825
365.078
382.14
395.752
405.697
411.803
413.937
411.719
405.466
395.206
381.05
363.176
341.824
317.281
289.882
259.995
228.014
194.351
159.431
123.679
87.5259
51.3921
15.6873
-19.2123
-52.9558
-85.2388
-115.804
-144.449
-171.029
-195.45
-217.671
-237.692
-255.549
-271.299
-285.022
-296.803
-306.733
-314.9
-321.391
-326.284
-329.649
-331.547
-332.013
-331.101
-328.85
-325.278
-320.402
-314.231
-306.764
-297.996
-287.908
-276.481
-263.689
-249.5
-233.882
-216.794
-198.2
-178.059
-156.345
-133.039
-108.15
-81.7118
-53.7922
-24.5026
6.00751
37.5492
69.8988
102.717
135.713
168.533
200.793
232.083
261.976
290.04
315.848
338.983
359.058
375.724
388.679
397.675
402.53
403.128
399.431
391.509
379.446
363.432
343.724
320.647
294.577
265.939
235.185
202.787
169.22
134.952
100.428
66.0647
32.2638
-0.683575
-32.4761
-62.8897
-91.7491
-118.923
-144.324
-167.904
-189.643
-209.55
-227.651
-243.982
-258.589
-271.523
-282.835
-292.582
-300.817
-307.591
-312.955
-316.951
-319.618
-320.988
-321.078
-319.906
-317.494
-313.835
-308.919
-302.735
-295.263
-286.48
-276.361
-264.875
-251.993
-237.689
-221.935
-204.709
-185.984
-165.739
-143.96
-120.658
-95.8668
-69.6568
-42.1318
-13.4257
16.2963
46.8444
78.0253
109.505
141.031
172.281
202.896
232.487
260.644
286.945
310.97
332.314
350.593
365.466
376.634
383.86
386.975
385.872
380.557
371.108
357.652
340.413
319.691
295.837
269.255
240.384
209.676
177.598
144.603
111.124
77.567
44.3065
11.6793
-20.0083
-50.4919
-79.5523
-107.02
-132.77
-156.727
-178.85
-199.127
-217.577
-234.233
-249.138
-262.351
-273.928
-283.93
-292.415
-299.439
-305.062
-309.345
-312.345
-314.112
-314.704
-314.159
-312.512
-309.789
-305.995
-301.133
-295.203
-288.197
-280.095
-270.87
-260.499
-248.951
-236.161
-222.077
-206.662
-189.844
-171.586
-151.858
-130.638
-107.937
-83.7662
-58.1557
-31.198
-3.07095
25.4272
55.4093
86.1613
117.297
148.418
179.139
209.006
237.541
264.291
288.784
310.583
329.286
344.53
356.036
363.58
367.005
366.249
361.241
352.209
339.296
322.794
303.051
280.43
255.326
228.198
199.489
169.642
139.08
108.195
77.3634
46.8981
17.0634
-11.8286
-37.7994
-64.2672
-89.6486
-113.776
-136.59
-158.074
-178.229
-197.07
-214.624
-230.908
-245.941
-259.738
-272.302
-283.63
-293.708
-302.518
-310.035
-316.23
-321.071
-324.53
-326.568
-327.162
-326.161
-323.618
-319.508
-313.824
-306.578
-297.745
-287.336
-275.343
-261.784
-246.689
-230.061
-211.935
389.914
405.202
416.51
423.713
426.747
425.525
419.963
410.24
396.483
378.884
357.687
333.219
305.875
276.026
244.108
210.53
175.749
140.244
104.451
68.7995
33.8788
0.392641
-32.6127
-64.414
-94.764
-123.487
-150.471
-175.63
-198.925
-220.34
-239.878
-257.567
-273.443
-287.553
-299.946
-310.671
-319.777
-327.308
-333.302
-337.788
-340.788
-342.309
-342.357
-340.84
-337.829
-333.265
-327.13
-319.397
-310.01
-298.923
-286.103
-271.504
-255.091
-236.847
-216.74
-194.792
-171.04
-145.511
-118.292
-89.506
-59.2705
-27.7813
4.75866
38.1145
72.0203
106.161
140.213
173.82
206.621
238.246
268.316
296.469
322.353
345.631
365.997
383.159
396.858
406.876
413.032
415.19
412.977
406.696
396.384
382.155
364.185
342.721
318.05
290.513
260.482
228.353
194.542
159.475
123.582
87.2953
51.0386
15.2251
-19.7697
-53.5915
-85.9355
-116.544
-145.216
-171.806
-196.224
-218.43
-238.427
-256.254
-271.971
-285.659
-297.405
-307.301
-315.438
-321.901
-326.77
-330.113
-331.993
-332.447
-331.525
-329.266
-325.69
-320.813
-314.644
-307.182
-298.421
-288.344
-276.93
-264.153
-249.981
-234.381
-217.313
-198.738
-178.616
-156.916
-133.619
-108.732
-82.2846
-54.3447
-25.0217
5.53615
37.1377
69.5713
102.481
135.583
168.524
200.917
232.348
262.391
290.606
316.563
339.842
360.049
376.831
389.88
398.946
403.844
404.455
400.744
392.771
380.632
364.516
344.683
321.463
295.237
266.436
235.518
202.958
169.238
134.827
100.176
65.7001
31.8089
-1.21485
-33.0642
-63.518
-92.403
-119.589
-144.991
-168.563
-190.287
-210.174
-228.254
-244.561
-259.144
-272.055
-283.344
-293.07
-301.284
-308.04
-313.388
-317.37
-320.026
-321.387
-321.474
-320.299
-317.887
-314.231
-309.321
-303.145
-295.683
-286.911
-276.805
-265.334
-252.466
-238.177
-222.438
-205.226
-186.516
-166.283
-144.512
-121.209
-96.4098
-70.1815
-42.6279
-13.8825
15.889
46.4956
77.7589
109.323
140.95
172.314
203.056
232.785
261.086
287.535
311.706
333.19
351.597
366.58
377.837
385.125
388.274
387.177
381.835
372.325
358.78
341.429
320.573
296.571
269.832
240.8
209.934
177.704
144.568
110.961
77.2888
43.9283
11.2144
-20.5444
-51.0834
-80.1835
-107.676
-133.437
-157.393
-179.507
-199.767
-218.196
-234.828
-249.707
-262.893
-274.445
-284.422
-292.884
-299.886
-305.488
-309.75
-312.731
-314.483
-315.062
-314.505
-312.851
-310.125
-306.333
-301.475
-295.549
-288.55
-280.459
-271.25
-260.897
-249.368
-236.601
-222.545
-207.155
-190.36
-172.124
-152.415
-131.209
-108.517
-84.3454
-58.721
-31.7301
-3.54912
24.9313
54.9981
85.8516
117.102
148.351
179.216
209.238
237.934
264.848
289.5
311.449
330.285
345.642
357.234
364.836
368.286
367.52
362.47
353.365
340.355
323.734
303.857
281.089
255.833
228.552
199.696
169.711
139.023
108.028
77.1031
46.5665
16.6788
-12.2239
-38.3212
-64.7874
-90.167
-114.29
-137.094
-158.566
-178.706
-197.532
-215.071
-231.343
-246.367
-260.157
-272.716
-284.043
-294.123
-302.936
-310.458
-316.66
-321.509
-324.975
-327.022
-327.627
-326.632
-324.093
-319.988
-314.311
-307.07
-298.243
-287.842
-275.853
-262.299
-247.204
-230.573
-212.44
391.083
406.482
417.878
425.142
428.208
426.992
421.406
411.616
397.765
380.049
358.71
334.085
306.573
276.551
244.456
210.706
175.76
140.103
104.173
68.4066
33.3824
-0.208042
-33.2763
-65.1263
-95.5099
-124.252
-151.244
-176.401
-199.685
-221.084
-240.601
-258.265
-274.115
-288.198
-300.567
-311.269
-320.354
-327.868
-333.847
-338.323
-341.316
-342.835
-342.888
-341.378
-338.374
-333.824
-327.705
-319.991
-310.623
-299.557
-286.759
-272.179
-255.786
-237.556
-217.461
-195.519
-171.765
-146.225
-118.987
-90.1692
-59.8896
-28.3445
4.26617
37.7087
71.7123
105.964
140.138
173.876
206.817
238.587
268.801
297.099
323.126
346.538
367.031
384.307
398.104
408.204
414.417
416.6
414.392
408.081
397.712
383.398
365.321
343.73
318.916
291.224
261.03
228.734
194.755
159.523
123.471
87.0334
50.6381
14.7019
-20.3998
-54.3101
-86.7226
-117.38
-146.081
-172.683
-197.096
-219.285
-239.255
-257.048
-272.727
-286.375
-298.082
-307.94
-316.042
-322.474
-327.316
-330.636
-332.495
-332.935
-332.002
-329.735
-326.153
-321.275
-315.109
-307.653
-298.901
-288.835
-277.435
-264.674
-250.521
-234.942
-217.896
-199.344
-179.242
-157.559
-134.274
-109.388
-82.9311
-54.9686
-25.6079
5.00315
36.6716
69.2004
102.213
135.436
168.512
201.054
232.646
262.856
291.243
317.369
340.809
361.165
378.078
391.235
400.38
405.325
405.952
402.224
394.195
381.97
365.737
345.763
322.382
295.98
266.994
235.891
203.149
169.255
134.685
99.8892
65.2896
31.291
-1.81564
-33.729
-64.2277
-93.141
-120.34
-145.744
-169.306
-191.013
-210.878
-228.933
-245.214
-259.77
-272.654
-283.917
-293.618
-301.81
-308.546
-313.876
-317.843
-320.486
-321.837
-321.918
-320.74
-318.328
-314.678
-309.774
-303.607
-296.157
-287.397
-277.306
-265.851
-252.999
-238.726
-223.004
-205.809
-187.115
-166.896
-145.133
-121.832
-97.0227
-70.7738
-43.1879
-14.3985
15.4284
46.1002
77.4575
109.117
140.857
172.35
203.235
233.118
261.583
288.199
312.535
334.175
352.727
367.835
379.193
386.552
389.739
388.648
383.275
373.697