/*--------------------------------*- C++ -*----------------------------------*\
| =========                 |                                                 |
| \\      /  F ield         | OpenFOAM: The Open Source CFD Toolbox           |
|  \\    /   O peration     | Version:  3.0.1                                 |
|   \\  /    A nd           | Web:      www.OpenFOAM.org                      |
|    \\/     M anipulation  |                                                 |
\*---------------------------------------------------------------------------*/
FoamFile
{
    version     2.0;
    format      ascii;
    class       volVectorField;
    location    "27.8";
    object      U;
}
// * * * * * * * * * * * * * * * * * * * * * * * * * * * * * * * * * * * * * //

dimensions      [0 1 -1 0 0 0 0];

internalField   nonuniform List<vector> 
21420
(
(-0.16839 0.000363315 0)
(-0.171192 0.000290999 0)
(-0.173779 0.000221368 0)
(-0.175672 0.00015225 0)
(-0.176869 8.42604e-05 0)
(-0.177369 1.84333e-05 0)
(-0.177192 -5.15316e-05 0)
(-0.176321 -0.00012144 0)
(-0.174741 -0.000192467 0)
(-0.172436 -0.000265655 0)
(-0.169385 -0.000340529 0)
(-0.165563 -0.00041768 0)
(-0.160943 -0.000499885 0)
(-0.15549 -0.000583066 0)
(-0.149171 -0.000673079 0)
(-0.141953 -0.000762778 0)
(-0.133798 -0.00085496 0)
(-0.124676 -0.000956999 0)
(-0.114562 -0.0010536 0)
(-0.103436 -0.00115028 0)
(-0.091287 -0.00125987 0)
(-0.0781213 -0.00135442 0)
(-0.0639576 -0.00144456 0)
(-0.0488169 -0.001551 0)
(-0.0327482 -0.00162828 0)
(-0.0158787 -0.00172495 0)
(0.00170923 -0.00178133 0)
(0.0199296 -0.00182333 0)
(0.03862 -0.00188303 0)
(0.0576171 -0.0018912 0)
(0.0767062 -0.00187629 0)
(0.0956681 -0.00187438 0)
(0.114276 -0.00181469 0)
(0.132278 -0.00175976 0)
(0.149424 -0.00165178 0)
(0.165445 -0.00151894 0)
(0.180082 -0.00137948 0)
(0.193102 -0.00120229 0)
(0.204286 -0.00100695 0)
(0.213445 -0.000798463 0)
(0.220419 -0.000571909 0)
(0.225098 -0.000339367 0)
(0.227362 -9.92944e-05 0)
(0.227244 0.000143194 0)
(0.224622 0.000380244 0)
(0.219586 0.000613708 0)
(0.212288 0.000842622 0)
(0.202819 0.00103297 0)
(0.191382 0.00122323 0)
(0.178161 0.00140049 0)
(0.163378 0.00152297 0)
(0.147227 0.00164978 0)
(0.130068 0.00172461 0)
(0.112138 0.00179473 0)
(0.0935227 0.00184656 0)
(0.0747275 0.00185307 0)
(0.0557664 0.00185085 0)
(0.0369093 0.00184178 0)
(0.0184738 0.00178064 0)
(0.000995725 0.0017361 0)
(-0.015601 0.00166345 0)
(-0.031948 0.00159073 0)
(-0.047521 0.00150604 0)
(-0.0622315 0.00141385 0)
(-0.0760703 0.00132212 0)
(-0.0889442 0.00122531 0)
(-0.10084 0.00112597 0)
(-0.111768 0.00103093 0)
(-0.121734 0.000933208 0)
(-0.13077 0.000842599 0)
(-0.138846 0.000746786 0)
(-0.145978 0.00065447 0)
(-0.152221 0.000570553 0)
(-0.157586 0.000479256 0)
(-0.162013 0.000393172 0)
(-0.1656 0.00030701 0)
(-0.168302 0.000224275 0)
(-0.170151 0.000138346 0)
(-0.171247 7.21097e-05 0)
(-0.171489 -2.4282e-05 0)
(-0.170979 -8.61831e-05 0)
(-0.169722 -0.000174432 0)
(-0.167687 -0.00024457 0)
(-0.164859 -0.000323296 0)
(-0.161377 -0.000387816 0)
(-0.157087 -0.000469375 0)
(-0.152147 -0.000525848 0)
(-0.146491 -0.000608087 0)
(-0.140115 -0.000671238 0)
(-0.133069 -0.000735739 0)
(-0.125263 -0.000807116 0)
(-0.116875 -0.000878941 0)
(-0.107682 -0.000944917 0)
(-0.0976868 -0.00102155 0)
(-0.0870141 -0.00110974 0)
(-0.0754482 -0.00118294 0)
(-0.063043 -0.00126583 0)
(-0.0498361 -0.0013448 0)
(-0.0358569 -0.00142346 0)
(-0.0211632 -0.00149526 0)
(-0.00569245 -0.00156295 0)
(0.0104227 -0.00162531 0)
(0.027032 -0.00166769 0)
(0.0440785 -0.00171084 0)
(0.061428 -0.00173176 0)
(0.0789003 -0.00173095 0)
(0.096322 -0.00171764 0)
(0.113479 -0.00168232 0)
(0.130175 -0.00162286 0)
(0.146177 -0.00154557 0)
(0.161279 -0.00144525 0)
(0.175245 -0.00132175 0)
(0.187843 -0.00117067 0)
(0.198864 -0.00100395 0)
(0.208035 -0.000813975 0)
(0.2152 -0.000603187 0)
(0.220172 -0.00038089 0)
(0.2228 -0.000145399 0)
(0.223064 9.0937e-05 0)
(0.220878 0.000340397 0)
(0.216167 0.000581896 0)
(0.209142 0.000809686 0)
(0.199871 0.0010268 0)
(0.188523 0.00121709 0)
(0.17533 0.00139585 0)
(0.160537 0.00154179 0)
(0.144329 0.00166157 0)
(0.127085 0.00176114 0)
(0.109058 0.0018193 0)
(0.0904905 0.00185759 0)
(0.0716822 0.00187369 0)
(0.0528803 0.0018542 0)
(0.0343049 0.00182568 0)
(0.0161901 0.00177167 0)
(-0.00128233 0.00169758 0)
(-0.0179874 0.00161835 0)
(-0.0337804 0.00152 0)
(-0.0486161 0.00141773 0)
(-0.0624046 0.00132 0)
(-0.0751317 0.00120846 0)
(-0.0867936 0.00110456 0)
(-0.0973604 0.000991215 0)
(-0.106888 0.000892125 0)
(-0.11538 0.000787253 0)
(-0.122807 0.00069411 0)
(-0.129256 0.000594968 0)
(-0.134778 0.000500562 0)
(-0.139437 0.000421978 0)
(-0.143294 0.000346271 0)
(-0.146413 0.000271072 0)
(-0.148866 0.000207315 0)
(-0.150668 0.000156071 0)
(-0.151937 9.60647e-05 0)
(-0.152629 4.24963e-05 0)
(-0.152772 -5.89469e-06 0)
(-0.152441 -5.93957e-05 0)
(-0.151595 -0.000104901 0)
(-0.150284 -0.000156325 0)
(-0.148463 -0.000200673 0)
(-0.14609 -0.000265599 0)
(-0.143167 -0.000312426 0)
(-0.139662 -0.000388948 0)
(-0.135476 -0.000446856 0)
(-0.130592 -0.000512558 0)
(-0.124992 -0.000601642 0)
(-0.118607 -0.000664373 0)
(-0.111343 -0.000758991 0)
(-0.103265 -0.000843691 0)
(-0.0943324 -0.000941899 0)
(-0.0844227 -0.00101409 0)
(-0.0735604 -0.00112061 0)
(-0.0618157 -0.00121304 0)
(-0.0491623 -0.00129732 0)
(-0.0355887 -0.00138675 0)
(-0.0211614 -0.00147729 0)
(-0.00582421 -0.00156083 0)
(0.0103737 -0.0016373 0)
(0.0271828 -0.00170137 0)
(0.0445653 -0.00174463 0)
(0.0623597 -0.00178023 0)
(0.0803794 -0.00178848 0)
(0.0984344 -0.00178541 0)
(0.116304 -0.00175527 0)
(0.133749 -0.00170248 0)
(0.150513 -0.00161935 0)
(0.166316 -0.00151559 0)
(0.180945 -0.00138073 0)
(0.194107 -0.00122341 0)
(0.205551 -0.00104186 0)
(0.215099 -0.000843462 0)
(0.222546 -0.000631557 0)
(0.227727 -0.000401871 0)
(0.23057 -0.00016066 0)
(0.230997 6.97776e-05 0)
(0.229017 0.000320628 0)
(0.224527 0.000556923 0)
(0.217798 0.000779784 0)
(0.208891 0.00098593 0)
(0.197997 0.00117758 0)
(0.185324 0.00133528 0)
(0.171069 0.0014804 0)
(0.155551 0.00159726 0)
(0.139015 0.00168429 0)
(0.121663 0.00174796 0)
(0.103787 0.00179158 0)
(0.0856563 0.0018062 0)
(0.0674829 0.0018048 0)
(0.0494363 0.00177378 0)
(0.0317183 0.00173894 0)
(0.0144829 0.00168626 0)
(-0.00215609 0.00161991 0)
(-0.0180906 0.00154415 0)
(-0.0332498 0.00145968 0)
(-0.0475889 0.00137653 0)
(-0.0609856 0.00128227 0)
(-0.0734104 0.00118955 0)
(-0.0849053 0.00109475 0)
(-0.0954867 0.00100338 0)
(-0.105112 0.000910939 0)
(-0.113829 0.000824659 0)
(-0.121705 0.000737215 0)
(-0.128712 0.000652761 0)
(-0.134936 0.000572618 0)
(-0.140295 0.000486214 0)
(-0.144766 0.000405617 0)
(-0.148484 0.000332598 0)
(-0.15145 0.000261085 0)
(-0.153735 0.000190474 0)
(-0.155347 0.00012411 0)
(-0.156213 6.05589e-05 0)
(-0.156464 -8.44567e-06 0)
(-0.156128 -6.94591e-05 0)
(-0.155059 -0.000137707 0)
(-0.15331 -0.000203926 0)
(-0.150927 -0.000275018 0)
(-0.147841 -0.000337199 0)
(-0.144046 -0.000402468 0)
(-0.139588 -0.000480507 0)
(-0.134457 -0.000548573 0)
(-0.128571 -0.000615301 0)
(-0.121905 -0.000692168 0)
(-0.114539 -0.000769849 0)
(-0.106437 -0.00084193 0)
(-0.0975997 -0.000912921 0)
(-0.0879515 -0.000997456 0)
(-0.0775181 -0.00107297 0)
(-0.06625 -0.00116346 0)
(-0.054152 -0.00122791 0)
(-0.0412687 -0.00131501 0)
(-0.0276524 -0.00139001 0)
(-0.0132298 -0.00146445 0)
(0.00186934 -0.00152273 0)
(0.0174991 -0.00157551 0)
(0.0335979 -0.00161626 0)
(0.0501335 -0.00165333 0)
(0.0668915 -0.00167013 0)
(0.0837667 -0.00166707 0)
(0.100511 -0.00164996 0)
(0.116927 -0.00160744 0)
(0.132815 -0.00153999 0)
(0.147909 -0.00144771 0)
(0.161935 -0.00133236 0)
(0.174696 -0.00119126 0)
(0.18589 -0.00102031 0)
(0.195286 -0.000831151 0)
(0.202668 -0.000624557 0)
(0.20784 -0.000402684 0)
(0.210707 -0.000163886 0)
(0.211212 7.49637e-05 0)
(0.209329 0.000312779 0)
(0.204898 0.000558712 0)
(0.198301 0.000771349 0)
(0.189526 0.000976567 0)
(0.178851 0.00115229 0)
(0.166355 0.00131447 0)
(0.15242 0.00145776 0)
(0.137472 0.00155214 0)
(0.121324 0.00163228 0)
(0.10455 0.00169823 0)
(0.0874457 0.00171276 0)
(0.0700766 0.00174016 0)
(0.0526509 0.00171401 0)
(0.0354708 0.00170174 0)
(0.0187299 0.00164857 0)
(0.00267082 0.00158865 0)
(-0.012661 0.00152775 0)
(-0.0274917 0.00144891 0)
(-0.0415467 0.00136433 0)
(-0.0547863 0.00127919 0)
(-0.06713 0.00118383 0)
(-0.0785793 0.00109716 0)
(-0.0890986 0.00100357 0)
(-0.0986824 0.000909947 0)
(-0.107391 0.000826605 0)
(-0.115207 0.000738304 0)
(-0.122181 0.000656297 0)
(-0.128356 0.000579272 0)
(-0.133769 0.000501964 0)
(-0.138446 0.000433056 0)
(-0.142422 0.000363603 0)
(-0.145762 0.000300614 0)
(-0.148473 0.000239337 0)
(-0.150581 0.000176859 0)
(-0.1521 0.000123064 0)
(-0.153023 6.66093e-05 0)
(-0.1534 1.18008e-05 0)
(-0.15318 -4.7572e-05 0)
(-0.152405 -0.000104258 0)
(-0.151047 -0.00016364 0)
(-0.149096 -0.000224134 0)
(-0.146525 -0.000285016 0)
(-0.14329 -0.000353523 0)
(-0.139386 -0.000420399 0)
(-0.134753 -0.000493017 0)
(-0.129353 -0.000574675 0)
(-0.123148 -0.000653584 0)
(-0.116095 -0.000744276 0)
(-0.10817 -0.00082964 0)
(-0.0993315 -0.000917303 0)
(-0.0895592 -0.00101692 0)
(-0.0788534 -0.00110478 0)
(-0.067204 -0.00118996 0)
(-0.0546513 -0.00128986 0)
(-0.0411861 -0.00136567 0)
(-0.0269474 -0.00145646 0)
(-0.0119267 -0.00151541 0)
(0.00363765 -0.001568 0)
(0.0196303 -0.00162863 0)
(0.036134 -0.00164917 0)
(0.052857 -0.0016521 0)
(0.0696339 -0.00166679 0)
(0.0862894 -0.00163457 0)
(0.102611 -0.00158151 0)
(0.118393 -0.00153407 0)
(0.133428 -0.00144088 0)
(0.147501 -0.00134769 0)
(0.160407 -0.00121492 0)
(0.171942 -0.00106486 0)
(0.181917 -0.000908203 0)
(0.190169 -0.000727004 0)
(0.196552 -0.000534627 0)
(0.200957 -0.000333638 0)
(0.203295 -0.000124448 0)
(0.203496 8.39256e-05 0)
(0.201609 0.000294246 0)
(0.197537 0.000506109 0)
(0.191446 0.000702008 0)
(0.183395 0.000892677 0)
(0.173521 0.00107267 0)
(0.161988 0.00121776 0)
(0.148985 0.00136099 0)
(0.134719 0.00145942 0)
(0.119415 0.00155924 0)
(0.103297 0.00163784 0)
(0.0865948 0.00166371 0)
(0.0695286 0.00169665 0)
(0.0504557 0.00170791 0)
(-0.168419 0.00108983 0)
(-0.17122 0.000872906 0)
(-0.173807 0.000664033 0)
(-0.175698 0.000456745 0)
(-0.176896 0.00025264 0)
(-0.177396 5.54901e-05 0)
(-0.17722 -0.000154534 0)
(-0.176349 -0.000364317 0)
(-0.17477 -0.000577359 0)
(-0.172465 -0.000796886 0)
(-0.169415 -0.00102146 0)
(-0.165595 -0.00125295 0)
(-0.160976 -0.00149948 0)
(-0.155524 -0.00174906 0)
(-0.149207 -0.00201908 0)
(-0.14199 -0.00228819 0)
(-0.133837 -0.00256475 0)
(-0.124716 -0.00287088 0)
(-0.114602 -0.00316071 0)
(-0.103477 -0.0034508 0)
(-0.0913286 -0.00377962 0)
(-0.078162 -0.00406334 0)
(-0.0639968 -0.00433382 0)
(-0.0488547 -0.00465325 0)
(-0.0327831 -0.0048852 0)
(-0.0159104 -0.00517526 0)
(0.00168259 -0.00534442 0)
(0.0199084 -0.00547055 0)
(0.0386052 -0.00564983 0)
(0.05761 -0.0056744 0)
(0.0767073 -0.00562977 0)
(0.0956789 -0.00562416 0)
(0.114296 -0.0054451 0)
(0.132309 -0.00528045 0)
(0.149465 -0.00495648 0)
(0.165495 -0.00455794 0)
(0.180144 -0.00413908 0)
(0.193171 -0.00360931 0)
(0.204365 -0.00302034 0)
(0.213529 -0.00239786 0)
(0.220512 -0.00171455 0)
(0.225195 -0.00101686 0)
(0.227466 -0.000298123 0)
(0.227345 0.000428563 0)
(0.224712 0.00114065 0)
(0.219681 0.00184108 0)
(0.21238 0.00252823 0)
(0.202905 0.00309945 0)
(0.191462 0.00367029 0)
(0.178233 0.00420225 0)
(0.163442 0.00456971 0)
(0.147282 0.00495017 0)
(0.130113 0.00517492 0)
(0.112173 0.00538513 0)
(0.0935499 0.00554049 0)
(0.0747444 0.00556009 0)
(0.0557763 0.00555338 0)
(0.0369093 0.00552638 0)
(0.0184661 0.00534234 0)
(0.000983739 0.00520968 0)
(-0.0156202 0.00499173 0)
(-0.0319732 0.00477304 0)
(-0.0475517 0.00451895 0)
(-0.0622668 0.00424111 0)
(-0.076108 0.00396731 0)
(-0.0889859 0.00367732 0)
(-0.100884 0.00337957 0)
(-0.111816 0.00309354 0)
(-0.121786 0.00279668 0)
(-0.13082 0.00252842 0)
(-0.138898 0.00224406 0)
(-0.146033 0.00196189 0)
(-0.152276 0.00171271 0)
(-0.157641 0.00143971 0)
(-0.162074 0.00117943 0)
(-0.165662 0.000916383 0)
(-0.168359 0.000676336 0)
(-0.170213 0.000418782 0)
(-0.17131 0.00021625 0)
(-0.171551 -7.13201e-05 0)
(-0.171042 -0.000264232 0)
(-0.169785 -0.000521659 0)
(-0.167753 -0.000732867 0)
(-0.164928 -0.00096774 0)
(-0.161452 -0.00116384 0)
(-0.157168 -0.00140893 0)
(-0.152228 -0.00158826 0)
(-0.146568 -0.00181336 0)
(-0.140193 -0.00201959 0)
(-0.133143 -0.00219951 0)
(-0.125343 -0.0024205 0)
(-0.116954 -0.00263136 0)
(-0.107768 -0.00284046 0)
(-0.0977837 -0.00308126 0)
(-0.087088 -0.00332807 0)
(-0.0755271 -0.00355679 0)
(-0.0631111 -0.00379314 0)
(-0.0499201 -0.00405162 0)
(-0.0359254 -0.00427093 0)
(-0.0212284 -0.00448386 0)
(-0.00575278 -0.00469373 0)
(0.0103762 -0.00487948 0)
(0.0269891 -0.00500649 0)
(0.0440597 -0.00513043 0)
(0.0614203 -0.00519741 0)
(0.0789038 -0.00520061 0)
(0.0963371 -0.00515945 0)
(0.113512 -0.00504407 0)
(0.130206 -0.00488107 0)
(0.146229 -0.00464868 0)
(0.161347 -0.00433202 0)
(0.175318 -0.00397598 0)
(0.187938 -0.00351919 0)
(0.198967 -0.00301455 0)
(0.208155 -0.0024422 0)
(0.215327 -0.0018092 0)
(0.220306 -0.00113923 0)
(0.222946 -0.000432946 0)
(0.223211 0.000269713 0)
(0.221007 0.00101713 0)
(0.216293 0.0017438 0)
(0.209256 0.00242609 0)
(0.199978 0.0030756 0)
(0.18863 0.0036577 0)
(0.175426 0.00419984 0)
(0.160611 0.00462101 0)
(0.144388 0.00499107 0)
(0.127119 0.00527269 0)
(0.109092 0.00546257 0)
(0.0905028 0.00557931 0)
(0.0716761 0.00561371 0)
(0.0528742 0.00557986 0)
(0.0342707 0.0054761 0)
(0.0161411 0.00530899 0)
(-0.00133716 0.00509463 0)
(-0.018053 0.00485214 0)
(-0.0338478 0.00456321 0)
(-0.0486868 0.00426249 0)
(-0.0624865 0.00396131 0)
(-0.0752171 0.00362681 0)
(-0.0868831 0.00330801 0)
(-0.097443 0.00298346 0)
(-0.106977 0.00267671 0)
(-0.115478 0.00235712 0)
(-0.122917 0.00207516 0)
(-0.12936 0.00177826 0)
(-0.134866 0.0015157 0)
(-0.13954 0.00126746 0)
(-0.143392 0.0010312 0)
(-0.146502 0.000822497 0)
(-0.148965 0.00061507 0)
(-0.15076 0.000471091 0)
(-0.152027 0.000298638 0)
(-0.152726 0.000119623 0)
(-0.152866 -2.11606e-05 0)
(-0.152533 -0.000178396 0)
(-0.151692 -0.000319725 0)
(-0.150373 -0.000465876 0)
(-0.148574 -0.000614322 0)
(-0.146188 -0.000794327 0)
(-0.143275 -0.00094551 0)
(-0.139744 -0.00114945 0)
(-0.135578 -0.00135496 0)
(-0.130681 -0.00154317 0)
(-0.125081 -0.00180002 0)
(-0.1187 -0.00199442 0)
(-0.111439 -0.00228436 0)
(-0.103352 -0.00252923 0)
(-0.0944181 -0.00282188 0)
(-0.08453 -0.00306773 0)
(-0.0736438 -0.00335394 0)
(-0.0619033 -0.00364511 0)
(-0.049233 -0.00389027 0)
(-0.0356711 -0.00416697 0)
(-0.0212248 -0.00442597 0)
(-0.00588595 -0.00468559 0)
(0.0103166 -0.00491926 0)
(0.0271433 -0.00509698 0)
(0.0445292 -0.00523397 0)
(0.0623433 -0.00535197 0)
(0.0803665 -0.00538051 0)
(0.0984535 -0.005354 0)
(0.116328 -0.005273 0)
(0.133791 -0.00510483 0)
(0.150572 -0.00486085 0)
(0.166383 -0.0045514 0)
(0.181033 -0.00414601 0)
(0.194213 -0.00366959 0)
(0.205646 -0.00314344 0)
(0.215222 -0.00253137 0)
(0.222671 -0.00189265 0)
(0.227866 -0.00119972 0)
(0.230716 -0.000480414 0)
(0.231145 0.000211423 0)
(0.229144 0.000962833 0)
(0.224659 0.00167019 0)
(0.217917 0.00233124 0)
(0.209003 0.00296048 0)
(0.198088 0.00352171 0)
(0.185415 0.0040154 0)
(0.171146 0.00444331 0)
(0.155607 0.00478902 0)
(0.139062 0.00505783 0)
(0.121703 0.00525431 0)
(0.103802 0.00537579 0)
(0.0856579 0.00541364 0)
(0.0674752 0.0054192 0)
(0.049423 0.00532725 0)
(0.0316861 0.0052187 0)
(0.0144305 0.00504559 0)
(-0.00220805 0.00485523 0)
(-0.0181469 0.00464108 0)
(-0.0333178 0.00437936 0)
(-0.0476514 0.00413554 0)
(-0.0610588 0.00385601 0)
(-0.073493 0.0035622 0)
(-0.0849844 0.00328707 0)
(-0.0955723 0.00301267 0)
(-0.105211 0.00272368 0)
(-0.113925 0.0024654 0)
(-0.121786 0.00222334 0)
(-0.128806 0.00195583 0)
(-0.135033 0.00172584 0)
(-0.140392 0.00146355 0)
(-0.144861 0.00121554 0)
(-0.148576 0.00100151 0)
(-0.151546 0.000780441 0)
(-0.15384 0.000565989 0)
(-0.155459 0.00036302 0)
(-0.156311 0.000184381 0)
(-0.156565 -1.51268e-05 0)
(-0.156238 -0.000219289 0)
(-0.155152 -0.000398863 0)
(-0.153417 -0.00061794 0)
(-0.151025 -0.000818454 0)
(-0.147936 -0.00101327 0)
(-0.144145 -0.00121705 0)
(-0.139677 -0.00144046 0)
(-0.134554 -0.00164621 0)
(-0.128669 -0.00185139 0)
(-0.122005 -0.00208265 0)
(-0.114619 -0.00229615 0)
(-0.106534 -0.00253887 0)
(-0.0976788 -0.00273637 0)
(-0.0880451 -0.00299734 0)
(-0.0775956 -0.00320921 0)
(-0.0663268 -0.0034982 0)
(-0.0542207 -0.00369247 0)
(-0.0413326 -0.00393964 0)
(-0.0277189 -0.00417354 0)
(-0.0132879 -0.00439909 0)
(0.0018222 -0.00456721 0)
(0.0174531 -0.00473127 0)
(0.0335624 -0.00485187 0)
(0.0500999 -0.00496955 0)
(0.0668888 -0.00500705 0)
(0.0837553 -0.00501963 0)
(0.100527 -0.00494833 0)
(0.116955 -0.00483014 0)
(0.132864 -0.00460883 0)
(0.147959 -0.00435464 0)
(0.162014 -0.00399625 0)
(0.174786 -0.00357174 0)
(0.185975 -0.00307544 0)
(0.195389 -0.00249684 0)
(0.202781 -0.00187725 0)
(0.20798 -0.00119858 0)
(0.210832 -0.000502015 0)
(0.211341 0.000227919 0)
(0.209439 0.000943345 0)
(0.205012 0.00167824 0)
(0.198406 0.00230629 0)
(0.189623 0.00294118 0)
(0.178932 0.0034531 0)
(0.166432 0.0039417 0)
(0.15248 0.00437431 0)
(0.137513 0.00465167 0)
(0.121364 0.00490039 0)
(0.104579 0.00510127 0)
(0.087461 0.00514022 0)
(0.0700821 0.00522328 0)
(0.052646 0.005141 0)
(0.03546 0.00510626 0)
(0.018712 0.00495073 0)
(0.00264633 0.00476475 0)
(-0.0126895 0.00458441 0)
(-0.0275239 0.00434774 0)
(-0.0415815 0.00409467 0)
(-0.0548236 0.00383729 0)
(-0.0671674 0.0035539 0)
(-0.0786191 0.00328996 0)
(-0.0891375 0.00301134 0)
(-0.0987201 0.00273029 0)
(-0.107428 0.00248006 0)
(-0.115244 0.00221428 0)
(-0.122216 0.00196734 0)
(-0.12839 0.0017368 0)
(-0.133801 0.00150452 0)
(-0.138476 0.00130029 0)
(-0.142452 0.00109143 0)
(-0.14579 0.000900517 0)
(-0.1485 0.000718848 0)
(-0.150606 0.000532084 0)
(-0.152127 0.00036752 0)
(-0.15305 0.000199637 0)
(-0.153425 3.63035e-05 0)
(-0.153206 -0.000142392 0)
(-0.152431 -0.000312844 0)
(-0.151074 -0.000490791 0)
(-0.149124 -0.000671913 0)
(-0.146554 -0.000854822 0)
(-0.14332 -0.00106027 0)
(-0.139418 -0.00126098 0)
(-0.134786 -0.00147881 0)
(-0.129388 -0.00172386 0)
(-0.123184 -0.00196052 0)
(-0.116133 -0.00223266 0)
(-0.10821 -0.00248878 0)
(-0.0993711 -0.00275172 0)
(-0.0895997 -0.00305079 0)
(-0.0788935 -0.00331433 0)
(-0.0672429 -0.00356993 0)
(-0.054689 -0.00386977 0)
(-0.0412212 -0.00409724 0)
(-0.0269795 -0.00436995 0)
(-0.0119556 -0.00454632 0)
(0.00361356 -0.00470453 0)
(0.0196126 -0.00488639 0)
(0.0361223 -0.00494813 0)
(0.052852 -0.00495698 0)
(0.0696366 -0.00500113 0)
(0.0863 -0.0049045 0)
(0.102629 -0.00474536 0)
(0.11842 -0.00460311 0)
(0.133464 -0.00432351 0)
(0.147547 -0.00404391 0)
(0.16046 -0.00364553 0)
(0.172001 -0.00319531 0)
(0.181984 -0.00272529 0)
(0.190242 -0.00218158 0)
(0.19663 -0.00160431 0)
(0.201037 -0.00100072 0)
(0.203379 -0.000371136 0)
(0.203584 0.000248385 0)
(0.201689 0.000883019 0)
(0.197619 0.0015185 0)
(0.191523 0.00210643 0)
(0.183468 0.00267856 0)
(0.173588 0.0032187 0)
(0.162047 0.00365407 0)
(0.149035 0.00408387 0)
(0.13476 0.00437914 0)
(0.119447 0.00467864 0)
(0.10332 0.00491446 0)
(0.0866084 0.00499201 0)
(0.0695335 0.00509078 0)
(0.0504513 0.00512452 0)
(-0.168476 0.00181608 0)
(-0.171276 0.00145464 0)
(-0.173862 0.00110656 0)
(-0.175751 0.000761312 0)
(-0.176951 0.000420268 0)
(-0.177451 9.29033e-05 0)
(-0.177275 -0.000257458 0)
(-0.176405 -0.000607105 0)
(-0.174827 -0.000962063 0)
(-0.172524 -0.00132784 0)
(-0.169476 -0.00170207 0)
(-0.165658 -0.00208788 0)
(-0.161041 -0.00249867 0)
(-0.155592 -0.00291464 0)
(-0.149279 -0.00336468 0)
(-0.142064 -0.00381318 0)
(-0.133913 -0.00427419 0)
(-0.124795 -0.00478449 0)
(-0.114682 -0.00526762 0)
(-0.103557 -0.0057513 0)
(-0.0914093 -0.0062995 0)
(-0.0782406 -0.00677255 0)
(-0.0640721 -0.00722359 0)
(-0.0489268 -0.00775619 0)
(-0.032849 -0.0081429 0)
(-0.0159694 -0.00862712 0)
(0.00163405 -0.00890906 0)
(0.0198711 -0.00911966 0)
(0.0385814 -0.0094189 0)
(0.0576019 -0.00946007 0)
(0.0767159 -0.00938589 0)
(0.0957072 -0.00937686 0)
(0.114343 -0.00907847 0)
(0.132379 -0.0088043 0)
(0.149554 -0.0082642 0)
(0.165603 -0.00759988 0)
(0.180272 -0.00690202 0)
(0.193317 -0.00601761 0)
(0.204525 -0.00503725 0)
(0.213703 -0.00399751 0)
(0.220696 -0.00285858 0)
(0.225385 -0.00169541 0)
(0.227667 -0.000495359 0)
(0.227536 0.0007117 0)
(0.224883 0.00190159 0)
(0.219858 0.00306923 0)
(0.212548 0.00421565 0)
(0.203058 0.00516823 0)
(0.1916 0.00611969 0)
(0.178353 0.0070068 0)
(0.163542 0.00761938 0)
(0.147364 0.00825314 0)
(0.130173 0.00862833 0)
(0.112214 0.00897837 0)
(0.0935734 0.0092365 0)
(0.074748 0.00926994 0)
(0.0557664 0.00925735 0)
(0.0368818 0.00921276 0)
(0.0184258 0.0089063 0)
(0.000937135 0.00868498 0)
(-0.0156778 0.008321 0)
(-0.0320381 0.00795669 0)
(-0.047622 0.00753333 0)
(-0.0623396 0.00706966 0)
(-0.0761826 0.00661382 0)
(-0.0890639 0.00612895 0)
(-0.100962 0.00563237 0)
(-0.111892 0.00515765 0)
(-0.121861 0.0046626 0)
(-0.130895 0.00421421 0)
(-0.138976 0.00373812 0)
(-0.146102 0.00327304 0)
(-0.152351 0.00285464 0)
(-0.157712 0.00239693 0)
(-0.162142 0.00197088 0)
(-0.165731 0.0015321 0)
(-0.168432 0.00112426 0)
(-0.170289 0.000696346 0)
(-0.171388 0.000359442 0)
(-0.171625 -0.000121372 0)
(-0.171106 -0.000436848 0)
(-0.169864 -0.000872764 0)
(-0.167826 -0.00122004 0)
(-0.165009 -0.00161547 0)
(-0.16153 -0.00193889 0)
(-0.157249 -0.00235028 0)
(-0.152303 -0.00264569 0)
(-0.146663 -0.00302834 0)
(-0.140273 -0.00335952 0)
(-0.133229 -0.0036785 0)
(-0.125421 -0.00402949 0)
(-0.117052 -0.00439066 0)
(-0.107865 -0.00473194 0)
(-0.0978887 -0.0051291 0)
(-0.0871922 -0.00555262 0)
(-0.0756247 -0.00592862 0)
(-0.0632153 -0.00632185 0)
(-0.0500186 -0.00674269 0)
(-0.0360297 -0.0071283 0)
(-0.0213281 -0.00746949 0)
(-0.00586086 -0.00782492 0)
(0.0102727 -0.00813138 0)
(0.0268896 -0.00835423 0)
(0.0439783 -0.00856203 0)
(0.061377 -0.00865345 0)
(0.0788618 -0.00867885 0)
(0.0963174 -0.00859639 0)
(0.113502 -0.00841609 0)
(0.130216 -0.008135 0)
(0.146266 -0.0077415 0)
(0.161388 -0.00723132 0)
(0.175382 -0.0066269 0)
(0.188028 -0.00586207 0)
(0.199062 -0.00503595 0)
(0.208276 -0.0040696 0)
(0.215459 -0.00302247 0)
(0.220446 -0.00190695 0)
(0.223101 -0.000726639 0)
(0.223366 0.000455906 0)
(0.221144 0.00170143 0)
(0.216437 0.00291379 0)
(0.209392 0.00404294 0)
(0.200101 0.00513244 0)
(0.188733 0.00609573 0)
(0.175513 0.00699447 0)
(0.16068 0.00771128 0)
(0.14444 0.00831867 0)
(0.127146 0.00880211 0)
(0.109088 0.00910619 0)
(0.0904815 0.00929908 0)
(0.0716354 0.00936785 0)
(0.0528087 0.00929409 0)
(0.0341959 0.00913236 0)
(0.0160492 0.00885869 0)
(-0.00144562 0.00848689 0)
(-0.0181641 0.00809192 0)
(-0.0339729 0.00760573 0)
(-0.0488134 0.00710308 0)
(-0.0626223 0.00659963 0)
(-0.0753534 0.00604372 0)
(-0.087014 0.00552144 0)
(-0.0975783 0.0049622 0)
(-0.107106 0.00446061 0)
(-0.115601 0.00394141 0)
(-0.123045 0.00346083 0)
(-0.129489 0.00295949 0)
(-0.134985 0.00251572 0)
(-0.139647 0.0021155 0)
(-0.143504 0.0017241 0)
(-0.14661 0.00136078 0)
(-0.149056 0.00103353 0)
(-0.150865 0.000776493 0)
(-0.152129 0.000491296 0)
(-0.152813 0.000210802 0)
(-0.152963 -4.13043e-05 0)
(-0.152621 -0.000296385 0)
(-0.151773 -0.000531859 0)
(-0.150463 -0.000772027 0)
(-0.14867 -0.00102035 0)
(-0.146284 -0.0013248 0)
(-0.143374 -0.00158148 0)
(-0.13985 -0.00192711 0)
(-0.135659 -0.00224487 0)
(-0.130778 -0.0025751 0)
(-0.125171 -0.00299451 0)
(-0.118808 -0.00333018 0)
(-0.111548 -0.00379823 0)
(-0.103463 -0.00422684 0)
(-0.094525 -0.00469833 0)
(-0.0846453 -0.00509941 0)
(-0.0737765 -0.00560069 0)
(-0.0620133 -0.00607477 0)
(-0.0493436 -0.00648561 0)
(-0.0357786 -0.00694289 0)
(-0.0213462 -0.00739057 0)
(-0.00599779 -0.00779658 0)
(0.0102023 -0.00820807 0)
(0.0270452 -0.00850448 0)
(0.0444437 -0.00873125 0)
(0.0622763 -0.00891131 0)
(0.0803229 -0.00897151 0)
(0.0984215 -0.00893105 0)
(0.116313 -0.00878724 0)
(0.133793 -0.0085156 0)
(0.150597 -0.00810672 0)
(0.16643 -0.00759311 0)
(0.181108 -0.00690881 0)
(0.194308 -0.00612563 0)
(0.205769 -0.0052295 0)
(0.215345 -0.00422203 0)
(0.222797 -0.00316484 0)
(0.22801 -0.00200572 0)
(0.230871 -0.000803515 0)
(0.231299 0.000357491 0)
(0.22927 0.00160349 0)
(0.224802 0.00278632 0)
(0.218055 0.00389486 0)
(0.209127 0.00493476 0)
(0.198194 0.00588394 0)
(0.185491 0.00668626 0)
(0.171211 0.00740571 0)
(0.155649 0.00798875 0)
(0.139082 0.00843578 0)
(0.1217 0.00875623 0)
(0.103786 0.00896472 0)
(0.0856248 0.0090312 0)
(0.067412 0.00902762 0)
(0.0493505 0.00888144 0)
(0.0316142 0.00870156 0)
(0.0143506 0.00842568 0)
(-0.00230341 0.00809189 0)
(-0.0182496 0.00773375 0)
(-0.0334296 0.0072981 0)
(-0.0477756 0.00688374 0)
(-0.0611819 0.00643339 0)
(-0.0736228 0.00594101 0)
(-0.0851149 0.00547008 0)
(-0.0956942 0.00502008 0)
(-0.10533 0.00455348 0)
(-0.114044 0.0041082 0)
(-0.1219 0.00369603 0)
(-0.128906 0.00327086 0)
(-0.135159 0.00286523 0)
(-0.140515 0.00242499 0)
(-0.144958 0.00203849 0)
(-0.148679 0.00167029 0)
(-0.151651 0.00129609 0)
(-0.153943 0.000953536 0)
(-0.155561 0.000608159 0)
(-0.156422 0.000300566 0)
(-0.156673 -2.97221e-05 0)
(-0.156337 -0.000365 0)
(-0.155262 -0.000672004 0)
(-0.153523 -0.00101945 0)
(-0.151139 -0.00137598 0)
(-0.148025 -0.00168545 0)
(-0.144238 -0.00202766 0)
(-0.139763 -0.00239909 0)
(-0.134642 -0.00274499 0)
(-0.128764 -0.00308002 0)
(-0.122108 -0.00347545 0)
(-0.114717 -0.00383141 0)
(-0.106625 -0.00421952 0)
(-0.0977834 -0.00457754 0)
(-0.0881495 -0.00498806 0)
(-0.077717 -0.00536253 0)
(-0.066424 -0.00581197 0)
(-0.0543228 -0.00616256 0)
(-0.0414444 -0.00657446 0)
(-0.0278256 -0.00694645 0)
(-0.0134003 -0.00733828 0)
(0.00172713 -0.0076148 0)
(0.0173625 -0.00788973 0)
(0.0334783 -0.00808983 0)
(0.0500321 -0.00828463 0)
(0.0668369 -0.00834733 0)
(0.0837217 -0.00836185 0)
(0.100507 -0.00825328 0)
(0.116959 -0.0080501 0)
(0.13287 -0.00770079 0)
(0.147993 -0.00725551 0)
(0.162074 -0.00666253 0)
(0.174862 -0.00596302 0)
(0.186082 -0.00511705 0)
(0.195501 -0.00416866 0)
(0.202907 -0.00313473 0)
(0.208127 -0.00200009 0)
(0.210997 -0.00083114 0)
(0.211499 0.000379831 0)
(0.209572 0.00157682 0)
(0.20516 0.00279534 0)
(0.198547 0.00385375 0)
(0.18974 0.00489626 0)
(0.179047 0.00575938 0)
(0.166536 0.00657405 0)
(0.152561 0.0072977 0)
(0.137571 0.00776128 0)
(0.121409 0.00816601 0)
(0.104601 0.00850376 0)
(0.0874687 0.00857571 0)
(0.0700717 0.00870409 0)
(0.0526288 0.00857116 0)
(0.0354281 0.00851349 0)
(0.0186619 0.00825128 0)
(0.00259747 0.0079451 0)
(-0.0127497 0.00764214 0)
(-0.0275899 0.0072482 0)
(-0.0416508 0.00682506 0)
(-0.0548973 0.00639641 0)
(-0.0672412 0.00592222 0)
(-0.0786915 0.0054845 0)
(-0.0892116 0.00501848 0)
(-0.0987908 0.00455123 0)
(-0.107498 0.00413247 0)
(-0.115312 0.00369189 0)
(-0.12228 0.00328055 0)
(-0.128452 0.00289949 0)
(-0.133858 0.00250929 0)
(-0.13853 0.00216549 0)
(-0.142505 0.00182 0)
(-0.145839 0.00150016 0)
(-0.148549 0.0012006 0)
(-0.150652 0.000884413 0)
(-0.152171 0.000613927 0)
(-0.153098 0.000332754 0)
(-0.153471 5.94554e-05 0)
(-0.153252 -0.000236996 0)
(-0.152477 -0.000521989 0)
(-0.151122 -0.000817703 0)
(-0.149173 -0.001119 0)
(-0.146604 -0.00142419 0)
(-0.143374 -0.00176645 0)
(-0.139474 -0.00210121 0)
(-0.134846 -0.00246416 0)
(-0.129452 -0.00287291 0)
(-0.12325 -0.00326699 0)
(-0.116203 -0.0037208 0)
(-0.108281 -0.00414764 0)
(-0.0994435 -0.00458573 0)
(-0.0896738 -0.00508495 0)
(-0.0789668 -0.00552402 0)
(-0.0673141 -0.00595015 0)
(-0.0547579 -0.00645033 0)
(-0.041285 -0.0068294 0)
(-0.0270376 -0.00728483 0)
(-0.0120074 -0.00757666 0)
(0.0035711 -0.00784412 0)
(0.0195827 -0.00814578 0)
(0.0361043 -0.00824897 0)
(0.0528471 -0.00826391 0)
(0.0696466 -0.00833776 0)
(0.0863253 -0.00817681 0)
(0.10267 -0.00791163 0)
(0.118479 -0.00767468 0)
(0.133539 -0.00720858 0)
(0.14764 -0.00674254 0)
(0.160568 -0.00607839 0)
(0.172122 -0.00532782 0)
(0.182121 -0.00454424 0)
(0.190389 -0.0036377 0)
(0.196785 -0.0026754 0)
(0.201199 -0.00166958 0)
(0.203545 -0.000625535 0)
(0.203761 0.000419827 0)
(0.201849 0.00147425 0)
(0.197782 0.00253167 0)
(0.191677 0.00351221 0)
(0.183612 0.00446613 0)
(0.17372 0.00536688 0)
(0.162162 0.00609274 0)
(0.149135 0.00680942 0)
(0.13484 0.00730156 0)
(0.11951 0.00780084 0)
(0.103365 0.00819389 0)
(0.0866343 0.00832294 0)
(0.0695423 0.00848743 0)
(0.0504421 0.00854349 0)
(-0.168562 0.00254191 0)
(-0.17136 0.00203609 0)
(-0.173944 0.00154887 0)
(-0.17583 0.00106619 0)
(-0.177029 0.000590174 0)
(-0.177536 0.000126254 0)
(-0.177357 -0.000360849 0)
(-0.176489 -0.000849743 0)
(-0.174912 -0.00134645 0)
(-0.172612 -0.00185835 0)
(-0.169567 -0.00238218 0)
(-0.165752 -0.00292218 0)
(-0.16114 -0.0034973 0)
(-0.155694 -0.00407955 0)
(-0.149386 -0.00470967 0)
(-0.142175 -0.00533748 0)
(-0.134026 -0.00598305 0)
(-0.124913 -0.00669762 0)
(-0.114802 -0.00737415 0)
(-0.103677 -0.00805171 0)
(-0.0915305 -0.00881957 0)
(-0.0783587 -0.00948222 0)
(-0.064185 -0.0101142 0)
(-0.049035 -0.0108602 0)
(-0.032948 -0.0114015 0)
(-0.0160581 -0.0120817 0)
(0.00156116 -0.0124765 0)
(0.019815 -0.012772 0)
(0.0385455 -0.0131917 0)
(0.0575897 -0.0132499 0)
(0.0767288 -0.0131464 0)
(0.0957495 -0.0131344 0)
(0.114413 -0.0127168 0)
(0.132483 -0.0123334 0)
(0.149687 -0.0115772 0)
(0.165764 -0.0106467 0)
(0.180466 -0.00966944 0)
(0.193535 -0.0084315 0)
(0.204766 -0.00705722 0)
(0.213966 -0.00560197 0)
(0.220973 -0.00400765 0)
(0.225673 -0.00237956 0)
(0.22797 -0.000701998 0)
(0.227811 0.00101627 0)
(0.225145 0.00266437 0)
(0.220124 0.00429881 0)
(0.2128 0.00590597 0)
(0.203288 0.00724078 0)
(0.191807 0.00857305 0)
(0.178534 0.00981598 0)
(0.163693 0.0106741 0)
(0.147486 0.0115604 0)
(0.130262 0.0120869 0)
(0.112274 0.0125767 0)
(0.0936083 0.0129364 0)
(0.0747527 0.0129843 0)
(0.0557505 0.0129639 0)
(0.0368403 0.0129021 0)
(0.0183644 0.0124742 0)
(0.000866451 0.0121629 0)
(-0.0157638 0.0116533 0)
(-0.0321364 0.0111425 0)
(-0.0477282 0.0105487 0)
(-0.0624493 0.00989908 0)
(-0.0762967 0.00926088 0)
(-0.0891808 0.00858192 0)
(-0.101078 0.00788621 0)
(-0.112012 0.00722106 0)
(-0.121974 0.00652563 0)
(-0.131006 0.005901 0)
(-0.139094 0.0052348 0)
(-0.146211 0.00458135 0)
(-0.152458 0.00399907 0)
(-0.157824 0.00335217 0)
(-0.162251 0.00276045 0)
(-0.165836 0.00214498 0)