/*--------------------------------*- C++ -*----------------------------------*\
| =========                 |                                                 |
| \\      /  F ield         | OpenFOAM: The Open Source CFD Toolbox           |
|  \\    /   O peration     | Version:  3.0.1                                 |
|   \\  /    A nd           | Web:      www.OpenFOAM.org                      |
|    \\/     M anipulation  |                                                 |
\*---------------------------------------------------------------------------*/
FoamFile
{
    version     2.0;
    format      ascii;
    class       volScalarField;
    location    "90.8";
    object      p_rgh;
}
// * * * * * * * * * * * * * * * * * * * * * * * * * * * * * * * * * * * * * //

dimensions      [1 -1 -2 0 0 0 0];

internalField   nonuniform List<scalar> 
21420
(
357.901
375.111
388.689
398.492
404.415
406.143
403.051
395.815
384.669
369.603
350.842
328.656
303.393
275.377
245.029
212.727
178.914
144.05
108.571
72.9135
37.5124
2.7506
-30.7962
-62.9403
-94.1307
-123.903
-152.059
-178.457
-203.021
-225.712
-246.508
-265.423
-282.487
-297.739
-311.228
-323.006
-333.126
-341.641
-348.596
-354.035
-357.992
-360.497
-361.533
-361.095
-359.168
-355.764
-350.829
-344.352
-336.267
-326.537
-315.127
-301.971
-287.044
-270.3
-251.712
-231.28
-209.025
-184.957
-159.142
-131.682
-102.676
-72.2903
-40.7036
-8.15172
25.1445
58.8892
92.7729
126.455
159.586
191.798
222.719
251.98
279.225
304.101
326.286
345.474
361.382
373.767
382.436
387.225
387.968
384.764
377.501
366.283
351.234
332.574
310.548
285.457
257.641
227.472
195.344
161.666
126.855
91.3361
55.5275
19.8369
-15.3464
-49.651
-82.7617
-114.387
-144.289
-172.285
-198.24
-222.073
-243.748
-263.264
-280.653
-295.97
-309.283
-320.666
-330.199
-337.956
-344.011
-348.433
-351.277
-352.62
-352.489
-350.891
-347.929
-343.595
-337.907
-330.883
-322.524
-312.83
-301.792
-289.398
-275.624
-260.443
-243.83
-225.746
-206.166
-185.067
-162.433
-138.267
-112.594
-85.4634
-56.959
-27.1981
3.67002
35.4487
67.8407
100.578
133.339
165.764
197.463
228.025
257.023
284.03
308.627
330.41
349.01
364.095
375.388
382.663
385.741
384.54
379.06
369.393
355.607
337.945
316.683
292.164
264.783
234.978
203.215
169.972
135.732
100.967
66.129
31.6428
-2.08907
-34.785
-66.1506
-95.9609
-124.052
-150.313
-174.678
-197.117
-217.634
-236.259
-253.041
-268.037
-281.312
-292.935
-302.968
-311.473
-318.511
-324.137
-328.402
-331.353
-333.04
-333.463
-332.631
-330.598
-327.329
-322.811
-317.022
-309.938
-301.526
-291.759
-280.603
-268.029
-254.006
-238.5
-221.483
-202.932
-182.825
-161.154
-137.935
-113.201
-87.0159
-59.481
-30.7258
-0.924735
29.7
61.4506
93.1001
124.885
156.45
187.429
217.439
246.075
272.926
297.577
319.625
338.683
354.398
366.463
374.628
378.71
378.534
374.163
365.626
352.996
336.502
316.42
293.089
266.897
238.278
207.696
175.631
142.563
108.962
75.2701
41.8964
9.19163
-22.5326
-53.0154
-82.0474
-109.465
-135.154
-159.037
-181.074
-201.256
-219.597
-236.134
-250.916
-264.005
-275.468
-285.378
-293.807
-300.818
-306.474
-310.839
-313.951
-315.849
-316.569
-316.141
-314.477
-311.708
-307.801
-302.766
-296.558
-289.164
-280.571
-270.721
-259.587
-247.14
-233.333
-218.112
-201.433
-183.268
-163.584
-142.352
-119.569
-95.2643
-69.4645
-42.2211
-13.6428
16.1277
45.9499
77.2046
108.915
140.693
172.119
202.789
232.231
259.964
285.534
308.492
328.438
345.012
357.907
366.903
371.863
372.634
369.189
361.601
350.088
334.878
316.28
294.66
270.403
243.915
215.656
186.067
155.588
124.624
93.5825
62.8315
32.8017
4.41075
-23.521
-50.756
-77.003
-102.086
-125.904
-148.414
-169.6
-189.451
-207.968
-225.155
-241.004
-255.507
-268.653
-280.416
-290.771
-299.681
-307.111
-313.02
-317.369
-320.142
-321.275
-320.713
-318.398
-314.309
-308.475
-300.88
-291.541
-280.482
-267.705
-253.248
-237.144
-219.459
-200.268
-179.636
-157.639
358.015
375.239
388.829
398.642
404.572
406.327
403.213
395.973
384.818
369.741
350.966
328.763
303.483
275.448
245.08
212.759
178.927
144.045
108.55
72.8764
37.462
2.68812
-30.8623
-63.0152
-94.2111
-123.987
-152.145
-178.544
-203.108
-225.797
-246.59
-265.503
-282.564
-297.813
-311.299
-323.074
-333.191
-341.704
-348.657
-354.094
-358.049
-360.553
-361.59
-361.151
-359.228
-355.824
-350.89
-344.414
-336.333
-326.605
-315.198
-302.044
-287.119
-270.378
-251.792
-231.361
-209.106
-185.038
-159.222
-131.759
-102.749
-72.3588
-40.7654
-8.2051
25.101
58.8569
92.7532
126.449
159.595
191.823
222.76
252.037
279.298
304.191
326.391
345.593
361.512
373.908
382.585
387.379
388.132
384.914
377.651
366.425
351.367
332.694
310.653
285.545
257.712
227.524
195.377
161.679
126.85
91.3136
55.4887
19.7833
-15.4131
-49.7291
-82.8489
-114.481
-144.388
-172.387
-198.343
-222.175
-243.848
-263.361
-280.747
-296.061
-309.369
-320.748
-330.277
-338.032
-344.084
-348.503
-351.345
-352.687
-352.551
-350.954
-347.991
-343.656
-337.968
-330.945
-322.587
-312.893
-301.857
-289.464
-275.691
-260.513
-243.901
-225.82
-206.242
-185.145
-162.512
-138.347
-112.674
-85.5418
-57.0344
-27.2692
3.60511
35.3928
67.795
100.544
133.319
165.76
197.477
228.057
257.074
284.1
308.716
330.517
349.133
364.233
375.536
382.819
385.908
384.699
379.216
369.544
355.748
338.071
316.792
292.254
264.853
235.027
203.242
169.979
135.72
100.937
66.0833
31.5825
-2.15884
-34.8645
-66.2368
-96.0514
-124.145
-150.407
-174.77
-197.207
-217.722
-236.344
-253.122
-268.114
-281.387
-293.006
-303.036
-311.538
-318.573
-324.198
-328.461
-331.41
-333.095
-333.516
-332.687
-330.654
-327.385
-322.868
-317.081
-309.998
-301.588
-291.822
-280.668
-268.096
-254.074
-238.571
-221.556
-203.007
-182.901
-161.231
-138.012
-113.277
-87.0902
-59.5517
-30.7915
-0.982674
29.6468
61.4078
93.0655
124.865
156.444
187.439
217.466
246.12
272.989
297.66
319.725
338.801
354.53
366.608
374.782
378.874
378.694
374.32
365.777
353.138
336.63
316.532
293.181
266.969
238.329
207.726
175.641
142.553
108.934
75.227
41.8406
9.12501
-22.6078
-53.0971
-82.1334
-109.554
-135.244
-159.127
-181.163
-201.342
-219.68
-236.214
-250.993
-264.078
-275.538
-285.444
-293.869
-300.877
-306.532
-310.893
-314.004
-315.901
-316.618
-316.185
-314.525
-311.756
-307.85
-302.815
-296.608
-289.216
-280.624
-270.776
-259.644
-247.199
-233.395
-218.177
-201.501
-183.339
-163.658
-142.427
-119.646
-95.3413
-69.541
-42.2957
-13.7142
16.0612
45.8986
77.1621
108.885
140.679
172.122
202.811
232.274
260.028
285.619
308.596
328.559
345.149
358.055
367.059
372.024
372.802
369.341
361.749
350.226
335.003
316.388
294.75
270.474
243.966
215.688
186.082
155.585
124.605
93.5494
62.7842
32.7397
4.36845
-23.5723
-50.8146
-77.0652
-102.149
-125.968
-148.477
-169.662
-189.512
-208.027
-225.213
-241.062
-255.565
-268.711
-280.475
-290.83
-299.741
-307.171
-313.082
-317.432
-320.207
-321.337
-320.781
-318.465
-314.376
-308.543
-300.948
-291.61
-280.551
-267.773
-253.316
-237.212
-219.525
-200.334
-179.699
-157.7
358.244
375.496
389.111
398.942
404.887
406.695
403.534
396.291
385.117
370.017
351.214
328.978
303.663
275.59
245.184
212.824
178.953
144.035
108.506
72.8021
37.3612
2.56315
-30.9949
-63.165
-94.3718
-124.155
-152.317
-178.717
-203.28
-225.966
-246.756
-265.663
-282.719
-297.961
-311.441
-323.21
-333.322
-341.829
-348.779
-354.212
-358.165
-360.666
-361.703
-361.264
-359.346
-355.943
-351.012
-344.54
-336.463
-326.74
-315.338
-302.189
-287.269
-270.532
-251.95
-231.521
-209.267
-185.198
-159.38
-131.912
-102.895
-72.4936
-40.887
-8.30975
25.0162
58.7944
92.7161
126.439
159.615
191.875
222.844
252.154
279.448
304.372
326.602
345.833
361.777
374.193
382.887
387.692
388.463
385.219
377.955
366.715
351.638
332.94
310.869
285.728
257.859
227.634
195.449
161.714
126.849
91.2776
55.4204
19.6858
-15.5364
-49.8748
-83.0125
-114.658
-144.575
-172.579
-198.537
-222.367
-244.036
-263.543
-280.922
-296.228
-309.528
-320.9
-330.421
-338.168
-344.215
-348.628
-351.466
-352.804
-352.66
-351.065
-348.099
-343.763
-338.075
-331.051
-322.694
-313.002
-301.968
-289.578
-275.809
-260.635
-244.027
-225.95
-206.376
-185.283
-162.653
-138.49
-112.815
-85.6809
-57.1676
-27.394
3.49218
35.2981
67.7201
100.493
133.296
165.768
197.519
228.135
257.19
284.255
308.908
330.745
349.392
364.52
375.846
383.144
386.253
385.029
379.542
369.856
356.039
338.334
317.021
292.445
265.003
235.135
203.308
170.004
135.706
100.888
66.0016
31.4716
-2.28839
-35.0136
-66.3991
-96.2224
-124.32
-150.584
-174.945
-197.378
-217.888
-236.503
-253.274
-268.259
-281.524
-293.136
-303.159
-311.656
-318.686
-324.306
-328.565
-331.512
-333.193
-333.609
-332.785
-330.751
-327.484
-322.968
-317.183
-310.104
-301.697
-291.934
-280.784
-268.216
-254.197
-238.697
-221.687
-203.142
-183.039
-161.371
-138.152
-113.415
-87.2246
-59.6791
-30.9092
-1.08495
29.5677
61.3215
93.0091
124.836
156.444
187.471
217.531
246.221
273.127
297.835
319.937
339.046
354.805
366.908
375.1
379.204
379.031
374.643
366.089
353.43
336.895
316.763
293.375
267.122
238.44
207.795
175.669
142.543
108.888
75.1501
41.7382
9.00118
-22.7486
-53.2506
-82.2955
-109.721
-135.413
-159.296
-181.329
-201.504
-219.837
-236.365
-251.136
-264.213
-275.666
-285.566
-293.984
-300.986
-306.636
-310.993
-314.1
-315.994
-316.708
-316.264
-314.613
-311.845
-307.939
-302.905
-296.702
-289.312
-280.723
-270.88
-259.752
-247.312
-233.514
-218.302
-201.632
-183.476
-163.799
-142.574
-119.795
-95.4919
-69.6907
-42.4419
-13.854
15.9306
45.7984
77.0793
108.827
140.651
172.129
202.858
232.362
260.157
285.79
308.805
328.804
345.423
358.354
367.374
372.346
373.136
369.646
362.046
350.503
335.253
316.605
294.931
270.616
244.069
215.753
186.11
155.58
124.569
93.4832
62.6896
32.6153
4.28415
-23.6752
-50.932
-77.1898
-102.277
-126.095
-148.603
-169.786
-189.633
-208.146
-225.33
-241.178
-255.681
-268.827
-280.591
-290.948
-299.86
-307.293
-313.206
-317.559
-320.335
-321.464
-320.916
-318.6
-314.511
-308.679
-301.085
-291.746
-280.688
-267.91
-253.452
-237.347
-219.659
-200.464
-179.827
-157.823
358.586
375.881
389.533
399.392
405.356
407.23
404.026
396.772
385.565
370.431
351.585
329.301
303.932
275.803
245.338
212.92
178.992
144.02
108.44
72.6904
37.2099
2.37577
-31.1942
-63.3901
-94.6131
-124.407
-152.575
-178.978
-203.539
-226.221
-247.004
-265.903
-282.95
-298.183
-311.655
-323.414
-333.518
-342.018
-348.962
-354.39
-358.339
-360.836
-361.871
-361.437
-359.524
-356.122
-351.196
-344.729
-336.659
-326.943
-315.549
-302.408
-287.495
-270.764
-252.186
-231.761
-209.509
-185.439
-159.617
-132.141
-103.113
-72.6962
-41.0698
-8.46703
24.8887
58.7004
92.6601
126.425
159.645
191.953
222.97
252.33
279.673
304.645
326.92
346.192
362.174
374.622
383.34
388.16
388.954
385.682
378.413
367.152
352.045
333.31
311.194
286.003
258.081
227.801
195.56
161.768
126.848
91.225
55.3195
19.541
-15.7197
-50.0919
-83.2562
-114.923
-144.854
-172.866
-198.826
-222.654
-244.316
-263.814
-281.183
-296.476
-309.765
-321.124
-330.634
-338.372
-344.409
-348.814
-351.646
-352.978
-352.823
-351.229
-348.26
-343.922
-338.233
-331.209
-322.853
-313.163
-302.133
-289.746
-275.982
-260.815
-244.213
-226.143
-206.576
-185.488
-162.863
-138.701
-113.026
-85.8874
-57.3654
-27.5791
3.32495
35.1581
67.6097
100.419
133.263
165.783
197.584
228.255
257.367
284.489
309.198
331.089
349.785
364.954
376.313
383.635
386.762
385.535
380.036
370.327
356.479
338.731
317.367
292.734
265.23
235.298
203.408
170.043
135.687
100.815
65.8809
31.3066
-2.48077
-35.2357
-66.641
-96.4772
-124.582
-150.847
-175.206
-197.633
-218.134
-236.74
-253.5
-268.474
-281.728
-293.33
-303.343
-311.832
-318.854
-324.466
-328.72
-331.662
-333.339
-333.75
-332.929
-330.895
-327.629
-323.117
-317.336
-310.26
-301.858
-292.1
-280.956
-268.393
-254.38
-238.886
-221.882
-203.342
-183.244
-161.579
-138.36
-113.621
-87.4248
-59.8688
-31.0842
-1.23713
29.4634
61.1806
92.9262
124.794
156.446
187.52
217.63
246.375
273.336
298.1
320.257
339.416
355.22
367.36
375.58
379.696
379.541
375.134
366.559
353.87
337.294
317.113
293.668
267.354
238.609
207.901
175.712
142.528
108.821
75.0362
41.5864
8.81709
-22.9581
-53.4793
-82.5371
-109.971
-135.666
-159.548
-181.577
-201.746
-220.071
-236.589
-251.349
-264.415
-275.857
-285.747
-294.155
-301.149
-306.791
-311.142
-314.243
-316.132
-316.84
-316.385
-314.745
-311.976
-308.073
-303.04
-296.841
-289.456
-280.872
-271.035
-259.914
-247.482
-233.693
-218.489
-201.828
-183.681
-164.013
-142.793
-120.019
-95.718
-69.9155
-42.6615
-14.064
15.7343
45.6475
76.9547
108.74
140.61
172.141
202.928
232.493
260.35
286.045
309.12
329.171
345.835
358.801
367.845
372.829
373.633
370.111
362.493
350.92
335.628
316.931
295.202
270.829
244.224
215.85
186.153
155.571
124.514
93.3838
62.5477
32.4284
4.1579
-23.8299
-51.1085
-77.377
-102.467
-126.286
-148.791
-169.971
-189.814
-208.324
-225.506
-241.352
-255.854
-269.001
-280.766
-291.125
-300.04
-307.475
-313.392
-317.749
-320.528
-321.655
-321.118
-318.801
-314.714
-308.882
-301.289
-291.951
-280.893
-268.115
-253.657
-237.55
-219.858
-200.66
-180.018
-158.007
359.042
376.395
390.095
399.993
405.984
407.906
404.689
397.413
386.162
370.983
352.081
329.732
304.292
276.087
245.544
213.049
179.044
143.999
108.352
72.5407
37.0077
2.12611
-31.4606
-63.6907
-94.9353
-124.743
-152.92
-179.325
-203.885
-226.561
-247.335
-266.224
-283.259
-298.48
-311.939
-323.687
-333.779
-342.27
-349.205
-354.627
-358.57
-361.062
-362.096
-361.668
-359.76
-356.36
-351.44
-344.981
-336.92
-327.214
-315.83
-302.699
-287.795
-271.073
-252.502
-232.082
-209.832
-185.761
-159.934
-132.447
-103.405
-72.9664
-41.3137
-8.67718
24.7181
58.5747
92.5849
126.405
159.685
192.056
223.138
252.564
279.973
305.009
327.344
346.672
362.704
375.194
383.943
388.785
389.597
386.31
379.025
367.735
352.59
333.803
311.628
286.371
258.378
228.024
195.707
161.84
126.847
91.1548
55.1849
19.3479
-15.9645
-50.3811
-83.5813
-115.275
-145.225
-173.248
-199.211
-223.036
-244.69
-264.176
-281.53
-296.808
-310.08
-321.424
-330.918
-338.642
-344.667
-349.061
-351.885
-353.207
-353.042
-351.448
-348.473
-344.133
-338.443
-331.419
-323.065
-313.378
-302.352
-289.971
-276.214
-261.054
-244.461
-226.4
-206.842
-185.761
-163.141
-138.983
-113.307
-86.1625
-57.6292
-27.8257
3.10183
34.9715
67.4625
100.32
133.22
165.802
197.672
228.415
257.603
284.802
309.587
331.548
350.309
365.534
376.937
384.29
387.431
386.216
380.7
370.957
357.067
339.262
317.83
293.119
265.533
235.517
203.542
170.095
135.661
100.718
65.72
31.0871
-2.73799
-35.5321
-66.9637
-96.8171
-124.931
-151.198
-175.553
-197.972
-218.463
-237.056
-253.802
-268.761
-282.001
-293.588
-303.589
-312.066
-319.078
-324.681
-328.926
-331.861
-333.532
-333.94
-333.121
-331.087
-327.823
-323.316
-317.539
-310.469
-302.074
-292.322
-281.184
-268.63
-254.623
-239.138
-222.142
-203.609
-183.517
-161.856
-138.638
-113.896
-87.6918
-60.1221
-31.3176
-1.44128
29.3115
61.0052
92.8164
124.739
156.448
187.585
217.763
246.579
273.615
298.454
320.683
339.91
355.775
367.964
376.22
380.354
380.216
375.793
367.189
354.458
337.827
317.579
294.059
267.663
238.834
208.041
175.771
142.509
108.731
74.8844
41.3842
8.57162
-23.2374
-53.7839
-82.8591
-110.303
-136.003
-159.883
-181.908
-202.068
-220.382
-236.887
-251.633
-264.684
-276.112
-285.987
-294.383
-301.365
-306.998
-311.339
-314.433
-316.316
-317.016
-316.554
-314.92
-312.152
-308.252
-303.22
-297.027
-289.649
-281.07
-271.242
-260.131
-247.709
-233.931
-218.738
-202.09
-183.955
-164.297
-143.086
-120.318
-96.0199
-70.2156
-42.9547
-14.3445
15.4723
45.4453
76.7879
108.623
140.554
172.155
203.02
232.668
260.608
286.386
309.539
329.661
346.385
359.398
368.474
373.473
374.284
370.741
363.091
351.477
336.129
317.366
295.563
271.113
244.429
215.979
186.209
155.56
124.441
93.251
62.3585
32.1784
3.98994
-24.037
-51.3446
-77.6269
-102.722
-126.54
-149.043
-170.218
-190.056
-208.562
-225.741
-241.584
-256.086
-269.232
-280.999
-291.36
-300.279
-307.719
-313.64
-318.002
-320.782
-321.914
-321.387
-319.07
-314.984
-309.154
-301.562
-292.224
-281.167
-268.389
-253.93
-237.82
-220.125
-200.922
-180.272
-158.252
359.613
377.037
390.799
400.745
406.769
408.721
405.512
398.211
386.909
371.673
352.701
330.271
304.742
276.442
245.801
213.209
179.109
143.973
108.241
72.3527
36.7543
1.81431
-31.7947
-64.0675
-95.3385
-125.165
-153.352
-179.76
-204.317
-226.986
-247.75
-266.625
-283.645
-298.85
-312.294
-324.027
-334.106
-342.585
-349.509
-354.922
-358.859
-361.345
-362.378
-361.956
-360.053
-356.657
-351.746
-345.295
-337.247
-327.553
-316.182
-303.063
-288.17
-271.459
-252.898
-232.484
-210.237
-186.164
-160.33
-132.83
-103.769
-73.3047
-41.6192
-8.94051
24.5042
58.417
92.4904
126.38
159.735
192.185
223.348
252.856
280.348
305.463
327.874
347.272
363.367
375.909
384.699
389.566
390.392
387.104
379.792
368.465
353.271
334.421
312.17
286.83
258.749
228.302
195.89
161.93
126.846
91.0663
55.0158
19.1056
-16.2717
-50.7434
-83.9887
-115.717
-145.69
-173.726
-199.693
-223.514
-245.157
-264.628
-281.964
-297.222
-310.474
-321.798
-331.274
-338.98
-344.99
-349.37
-352.183
-353.492
-353.319
-351.721
-348.741
-344.396
-338.706
-331.682
-323.33
-313.647
-302.626
-290.252
-276.504
-261.354
-244.771
-226.722
-207.174
-186.103
-163.49
-139.336
-113.658
-86.507
-57.9599
-28.1344
2.82175
34.7377
67.2778
100.195
133.165
165.825
197.781
228.615
257.898
285.193
310.072
332.122
350.964
366.259
377.718
385.11
388.269
387.066
381.533
371.748
357.802
339.926
318.408
293.601
265.913
235.79
203.709
170.159
135.629
100.596
65.5181
30.813
-3.06165
-35.9039
-67.368
-97.2427
-125.368
-151.638
-175.988
-198.397
-218.874
-237.451
-254.179
-269.12
-282.341
-293.912
-303.896
-312.359
-319.358
-324.948
-329.184
-332.111
-333.772
-334.179
-333.361
-331.327
-328.066
-323.564
-317.794
-310.73
-302.343
-292.599
-281.471
-268.925
-254.929
-239.453
-222.467
-203.943
-183.859
-162.204
-138.987
-114.24
-88.0262
-60.4397
-31.6103
-1.69886
29.1081
60.7978
92.6798
124.67
156.45
187.666
217.929
246.835
273.964
298.897
321.216
340.529
356.469
368.72
377.022
381.18
381.054
376.621
367.978
355.195
338.494
318.163
294.548
268.05
239.115
208.217
175.843
142.485
108.618
74.6936
41.1307
8.26396
-23.5873
-54.1652
-83.2622
-110.719
-136.424
-160.303
-182.321
-202.471
-220.771
-237.259
-251.988
-265.021
-276.43
-286.288
-294.668
-301.636
-307.256
-311.587
-314.67
-316.545
-317.238
-316.768
-315.139
-312.371
-308.475
-303.445
-297.26
-289.89
-281.318
-271.502
-260.401
-247.993
-234.228
-219.049
-202.418
-184.297
-164.652
-143.452
-120.692
-96.3977
-70.5913
-43.3218
-14.6956
15.1446
45.1911
76.5783
108.476
140.484
172.173
203.135
232.886
260.93
286.812
310.063
330.273
347.073
360.145
369.262
374.28
375.091
371.536
363.842
352.173
336.755
317.909
296.015
271.468
244.686
216.139
186.279
155.544
124.349
93.0845
62.1218
31.865
3.78058
-24.2973
-51.6408
-77.9401
-103.041
-126.859
-149.357
-170.526
-190.359
-208.859
-226.033
-241.874
-256.375
-269.522
-281.291
-291.655
-300.578
-308.023
-313.949
-318.318
-321.1
-322.238
-321.722
-319.405
-315.321
-309.493
-301.903
-292.566
-281.51
-268.731
-254.271
-238.158
-220.458
-201.249
-180.591
-158.559
360.298
377.809
391.645
401.649
407.713
409.684
406.493
399.165
387.806
372.502
353.445
330.917
305.281
276.868
246.109
213.401
179.185
143.941
108.107
72.1256
36.4491
1.44056
-32.1974
-64.5208
-95.8232
-125.671
-153.87
-180.283
-204.836
-227.496
-248.247
-267.106
-284.108
-299.295
-312.72
-324.436
-334.498
-342.962
-349.874
-355.277
-359.206
-361.685
-362.717
-362.299
-360.404
-357.014
-352.112
-345.673
-337.639
-327.959
-316.603
-303.5
-288.621
-271.924
-253.372
-232.966
-210.722
-186.647
-160.805
-133.29
-104.207
-73.7113
-41.9864
-9.25741
24.2465
58.2269
92.3762
126.35
159.794
192.34
223.599
253.206
280.797
306.008
328.51
347.992
364.163
376.768
385.605
390.505
391.344
388.058
380.714
369.342
354.088
335.162
312.821
287.382
259.194
228.635
196.11
162.036
126.842
90.9589
54.8117
18.8136
-16.6417
-51.1796
-84.479
-116.248
-146.249
-174.301
-200.272
-224.088
-245.718
-265.171
-282.485
-297.719
-310.947
-322.248
-331.701
-339.386
-345.378
-349.742
-352.54
-353.835
-353.653
-352.048
-349.061
-344.713
-339.022
-331.998
-323.648
-313.97
-302.955
-290.589
-276.852
-261.714
-245.144
-227.108
-207.574
-186.514
-163.91
-139.76
-114.081
-86.9215
-58.3578
-28.5062
2.48404
34.4561
67.0549
100.044
133.097
165.852
197.91
228.855
258.251
285.662
310.655
332.812
351.752
367.13
378.657
386.096
389.278
388.084
382.533
372.698
358.686
340.724
319.103
294.18
266.368
236.117
203.909
170.235
135.588
100.449
65.2747
30.4899
-3.45905
-36.3519
-67.8547
-97.7549
-125.893
-152.166
-176.511
-198.908
-219.369
-237.925
-254.632
-269.551
-282.75
-294.3
-304.265
-312.711
-319.694
-325.27
-329.493
-332.41
-334.062
-334.466
-333.648
-331.616
-328.358
-323.862
-318.1
-311.044
-302.666
-292.933
-281.814
-269.28
-255.296
-239.831
-222.858
-204.344
-184.27
-162.622
-139.406
-114.654
-88.4284
-60.8221
-31.9629
-2.01095
28.8532
60.5574
92.5164
124.585
156.452
187.761
218.127
247.141
274.382
299.427
321.857
341.272
357.302
369.629
377.985
382.174
382.059
377.616
368.927
356.08
339.296
318.864
295.135
268.515
239.453
208.426
175.929
142.454
108.482
74.4633
40.8255
7.89359
-24.0082
-54.6238
-83.7467
-111.219
-136.931
-160.808
-182.818
-202.955
-221.238
-237.707
-252.414
-265.425
-276.812
-286.649
-295.009
-301.961
-307.566
-311.884
-314.956
-316.822
-317.506
-317.031
-315.401
-312.634
-308.743
-303.716
-297.539
-290.178
-281.616
-271.812
-260.726
-248.334
-234.586
-219.423
-202.812
-184.709
-165.08
-143.892
-121.141
-96.8516
-71.0428
-43.7631
-15.1177
14.7511
44.8839
76.3252
108.298
140.398
172.193
203.272
233.147
261.318
287.323
310.693
331.009
347.9
361.043
370.208
375.25
376.059
372.491
364.746
353.011
337.508
318.562
296.557
271.894
244.994
216.331
186.362
155.525
124.238
92.8844
61.837
31.4875
3.53029
-24.6118
-51.9979
-78.317
-103.425
-127.242
-149.735
-170.897
-190.722
-209.216
-226.385
-242.222
-256.721
-269.869
-281.64
-292.009
-300.937
-308.388
-314.32
-318.696
-321.482
-322.629
-322.122
-319.807
-315.726
-309.9
-302.312
-292.976
-281.921
-269.142
-254.68
-238.564
-220.858
-201.641
-180.974
-158.928
361.098
378.709
392.632
402.705
408.817
410.811
407.633
400.274
388.853
373.469
354.314
331.672
305.911
277.365
246.468
213.624
179.273
143.902
107.948
71.8589
36.0912
1.00531
-32.6698
-65.0512
-96.3898
-126.263
-154.476
-180.893
-205.443
-228.092
-248.827
-267.668
-284.649
-299.814
-313.217
-324.912
-334.955
-343.402
-350.3
-355.691
-359.611
-362.083
-363.114
-362.698
-360.812
-357.429
-352.539
-346.114
-338.096
-328.433
-317.094
-304.01
-289.147
-272.465
-253.926
-233.528
-211.289
-187.212
-161.361
-133.828
-104.719
-74.1865
-42.416
-9.62832
23.9446
58.0039
92.2419
126.313
159.862
192.52
223.891
253.615
281.321
306.645
329.252
348.832
365.092
377.772
386.664
391.602
392.457
389.17
381.792
370.368
355.044
336.027
313.582
288.026
259.713
229.023
196.365
162.159
126.837
90.8321
54.5718
18.4709
-17.0754
-51.6905
-85.0529
-116.87
-146.904
-174.973
-200.95
-224.759
-246.375
-265.806
-283.094
-298.3
-311.499
-322.772
-332.199
-339.86
-345.83
-350.175
-352.957
-354.235
-354.043
-352.43
-349.435
-345.083
-339.39
-332.366
-324.019
-314.346
-303.339
-290.983
-277.258
-262.134
-245.579
-227.559
-208.041
-186.994
-164.4
-140.256
-114.576
-87.4065
-58.8233
-28.9417
2.08794
34.126
66.793
99.8659
133.017
165.881
198.06
229.133
258.663
286.209
311.334
333.618
352.671
368.148
379.754
387.248
390.46
389.274
383.7
373.809
359.719
341.655
319.913
294.856
266.898
236.498
204.141
170.323
135.54
100.275
64.9888
30.1115
-3.9255
-36.8769
-68.4245
-98.3542
-126.508
-152.784
-177.123
-199.505
-219.947
-238.48
-255.16
-270.054
-283.228
-294.754
-304.696
-313.122
-320.086
-325.646
-329.854
-332.759
-334.402
-334.801
-333.983
-331.952
-328.699
-324.21
-318.457
-311.41
-303.044
-293.323
-282.216
-269.695
-255.724
-240.273
-223.314
-204.814
-184.75
-163.11
-139.896
-115.139
-88.8993
-61.2698
-32.3764
-2.37851
28.5471
60.2826
92.326
124.486
156.453
187.872
218.356
247.497
274.869
300.046
322.604
342.139
358.276
370.69
379.111
383.337
383.235
378.777
370.036
357.115
340.233
319.683
295.821
269.057
239.846
208.67
176.028
142.417
108.32
74.1923
40.4679
7.45979
-24.501
-55.1604
-84.3132
-111.804
-137.522
-161.397
-183.398
-203.52
-221.783
-238.229
-252.912
-265.897
-277.258
-287.07
-295.407
-302.339
-307.928
-312.23
-315.289
-317.144
-317.82
-317.34
-315.707
-312.941
-309.055
-304.032
-297.864
-290.515
-281.964
-272.174
-261.105
-248.731
-235.002
-219.859
-203.272
-185.189
-165.578
-144.406
-121.666
-97.3819
-71.5705
-44.2791
-15.6112
14.2913
44.5226
76.0277
108.088
140.296
172.215
203.431
233.451
261.77
287.921
311.428
331.868
348.865
362.092
371.314
376.385
377.192
373.605
365.802
353.989
338.387
319.324
297.19
272.39
245.352
216.554
186.458
155.501
124.108
92.6508
61.5037
31.0446
3.23976
-24.9815
-52.4168
-78.7581
-103.873
-127.689
-150.175
-171.329
-191.146
-209.632
-226.795
-242.628
-257.126
-270.274
-282.048
-292.421
-301.356
-308.813
-314.754
-319.137
-321.928
-323.084
-322.588
-320.276
-316.199
-310.376
-302.789
-293.455
-282.4
-269.621
-255.158
-239.037
-221.325
-202.1
-181.42
-159.359
362.013
379.739
393.761
403.913
410.08
412.103
408.934
401.54
390.051
374.576
355.308
332.536
306.63
277.933
246.877
213.878
179.373
143.856
107.766
71.5522
35.6796
0.508535
-33.2131
-65.659
-97.0386
-126.941
-155.171
-181.592
-206.137
-228.773
-249.491
-268.31
-285.267
-300.407
-313.785
-325.456
-335.477
-343.905
-350.786
-356.164
-360.073
-362.538
-363.567
-363.156
-361.277
-357.903
-353.027
-346.617
-338.618
-328.975
-317.655
-304.593
-289.748
-273.086
-254.56
-234.172
-211.938
-187.858
-161.998
-134.444
-105.306
-74.7308
-42.9085
-10.0537
23.598
57.7475
92.0872
126.269
159.939
192.724
224.225
254.081
281.92
307.372
330.101
349.792
366.154
378.92
387.876
392.857
393.733
390.441
383.026
371.542
356.136
337.017
314.451
288.763
260.305
229.467
196.656
162.299
126.83
90.6853
54.2954
18.0767
-17.5733
-52.277
-85.7115
-117.584
-147.655
-175.744
-201.726
-225.528
-247.126
-266.532
-283.791
-298.965
-312.131
-323.372
-332.769
-340.402
-346.347
-350.67
-353.433
-354.693
-354.489
-352.865
-349.863
-345.506
-339.811
-332.788
-324.444
-314.776
-303.778
-291.434
-277.722
-262.615
-246.078
-228.076
-208.575
-187.544
-164.962
-140.824
-115.143
-87.9628
-59.3571
-29.4415
1.63248
33.7473
66.4914
99.6601
132.923
165.913
198.23
229.45
259.133
286.834
312.111
334.539
353.723
369.313
381.009
388.568
391.813
390.635
385.035
375.082
360.902
342.722
320.841
295.628
267.504
236.932
204.404
170.421
135.482
100.074
64.6594
29.6749
-4.46021
-37.4795
-69.0781
-99.0415
-127.213
-153.492
-177.823
-200.189
-220.608
-239.114
-255.766
-270.629
-283.774
-295.273
-305.19
-313.592
-320.535
-326.076
-330.267
-333.158
-334.79
-335.184
-334.365
-332.337
-329.089
-324.608
-318.865
-311.83
-303.476
-293.768
-282.676
-270.169
-256.214
-240.779
-223.836
-205.351
-185.301
-163.669
-140.457
-115.694
-89.4393
-61.7832
-32.8513
-2.80181
28.1889
59.9726
92.1083
124.371
156.451
187.996
218.617
247.902
275.425
300.753
323.458
343.131
359.391
371.905
380.4
384.67
384.581
380.105
371.306
358.3
341.305
320.62
296.605
269.676
240.294
208.948
176.139
142.373
108.134
73.8796
40.0572
6.96174
-25.0662
-55.7754
-84.9625
-112.473
-138.199
-162.072
-184.062
-204.167
-222.407
-238.827
-253.481
-266.436
-277.768
-287.551
-295.862
-302.771
-308.341
-312.626
-315.67
-317.513
-318.18
-317.694
-316.057
-313.292
-309.41
-304.393
-298.235
-290.9
-282.361
-272.588
-261.538
-249.185
-235.478
-220.358
-203.798
-185.738
-166.148
-144.994
-122.267
-97.989
-72.175
-44.8701
-16.1765
13.7648
44.1064
75.6848
107.846
140.177
172.238
203.61
233.796
262.284
288.603
312.269
332.851
349.97
363.293
372.581
377.684
378.492
374.878
367.012
355.109
339.393
320.196
297.913
272.957
245.76
216.808
186.565
155.472
123.958
92.3839
61.1224
30.5342
2.90982
-25.4082
-52.8985
-79.264
-104.386
-128.2
-150.679
-171.824
-191.63
-210.107
-227.263
-243.092
-257.588
-270.737
-282.514
-292.892
-301.834
-309.3
-315.249
-319.64
-322.439
-323.605
-323.12
-320.812
-316.74
-310.919
-303.335
-294.002
-282.949
-270.17
-255.705
-239.579
-221.86
-202.624
-181.931
-159.851
363.042
380.898
395.033
405.274
411.504
413.562
410.397
402.963
391.399
375.823
356.427
333.509
307.44
278.571
247.336
214.162
179.482
143.804
107.558
71.2047
35.2134
-0.0503651
-33.8286
-66.3446
-97.7702
-127.706
-155.953
-182.38
-206.919
-229.541
-250.239
-269.033
-285.963
-301.074
-314.424
-326.068
-336.065
-344.47
-351.332
-356.695
-360.593
-363.05
-364.078
-363.672
-361.799
-358.435
-353.576
-347.184
-339.206
-329.585
-318.287
-305.249
-290.426
-273.784
-255.273
-234.897
-212.668
-188.587
-162.715
-135.139
-105.967
-75.3451
-43.4641
-10.5341
23.206
57.457
91.9112
126.219
160.025
192.952
224.599
254.605
282.593
308.19
331.057
350.873
367.35
380.214
389.241
394.271
395.17
391.873
384.417
372.865
357.367
338.131
315.43
289.591
260.972
229.964
196.981
162.454
126.819
90.5176
53.9814
17.63
-18.1363
-52.9402
-86.4557
-118.389
-148.502
-176.614
-202.603
-226.396
-247.973
-267.351
-284.575
-299.713
-312.842
-324.047
-333.41
-341.012
-346.93
-351.228
-353.969
-355.21
-354.99
-353.356
-350.345
-345.983
-340.285
-333.262
-324.922
-315.261
-304.272
-291.942
-278.246
-263.156
-246.639
-228.657
-209.176
-188.163
-165.596
-141.465
-115.783
-88.5907
-59.9601
-30.006
1.11678
33.3189
66.1489
99.4259
132.815
165.947
198.418
229.804
259.66
287.536
312.985
335.576
354.908
370.626
382.424
390.056
393.341
392.17
386.54
376.517
362.235
343.924
321.887
296.498
268.186
237.421
204.699
170.529
135.415
99.8441
64.2856
29.179
-5.06403
-38.1606
-69.8167
-99.8178
-128.008
-154.291
-178.612
-200.96
-221.353
-239.829
-256.447
-271.278
-284.39
-295.857
-305.745
-314.121
-321.041
-326.56
-330.732
-333.607
-335.227
-335.615
-334.795
-332.77
-329.528
-325.056
-319.325
-312.302
-303.962
-294.27
-283.194
-270.704
-256.766
-241.349
-224.424
-205.957
-185.921
-164.299
-141.09
-116.321
-90.0492
-62.3631
-33.3886
-3.28167
27.7794
59.6253
91.8621
124.239
156.448
188.134
218.909
248.357
276.049
301.548
324.42
344.248
360.646
373.275
381.854
386.173
386.1