/*--------------------------------*- C++ -*----------------------------------*\
| =========                 |                                                 |
| \\      /  F ield         | OpenFOAM: The Open Source CFD Toolbox           |
|  \\    /   O peration     | Version:  3.0.1                                 |
|   \\  /    A nd           | Web:      www.OpenFOAM.org                      |
|    \\/     M anipulation  |                                                 |
\*---------------------------------------------------------------------------*/
FoamFile
{
    version     2.0;
    format      ascii;
    class       surfaceScalarField;
    location    "90.8";
    object      phi;
}
// * * * * * * * * * * * * * * * * * * * * * * * * * * * * * * * * * * * * * //

dimensions      [0 3 -1 0 0 0 0];

internalField   nonuniform List<scalar> 
42423
(
0.00021225
-1.19821e-05
0.000222452
-1.02022e-05
0.000230515
-8.06273e-06
0.000236201
-5.68625e-06
0.000239538
-3.33715e-06
0.000240444
-9.05167e-07
0.00023883
1.61346e-06
0.000234609
4.2216e-06
0.00022778
6.82813e-06
0.000218733
9.04763e-06
0.000207525
1.12079e-05
0.000194301
1.32244e-05
0.000179437
1.48634e-05
0.000163135
1.63023e-05
0.000145734
1.74008e-05
0.000127483
1.82506e-05
0.000108514
1.89695e-05
8.9303e-05
1.92108e-05
6.99208e-05
1.93822e-05
5.0718e-05
1.92028e-05
3.1761e-05
1.89569e-05
1.34384e-05
1.83227e-05
-4.34006e-06
1.77784e-05
-2.13281e-05
1.69881e-05
-3.74695e-05
1.61414e-05
-5.26702e-05
1.52007e-05
-6.69259e-05
1.42557e-05
-8.01769e-05
1.32511e-05
-9.24153e-05
1.22384e-05
-0.000103673
1.12577e-05
-0.000113945
1.02716e-05
-0.000123255
9.31061e-06
-0.000131655
8.39967e-06
-0.000139154
7.49927e-06
-0.000145803
6.64921e-06
-0.00015161
5.80634e-06
-0.000156628
5.01877e-06
-0.000160891
4.26206e-06
-0.000164409
3.51806e-06
-0.000167193
2.78474e-06
-0.000169268
2.0744e-06
-0.000170655
1.3872e-06
-0.000171362
7.07291e-07
-0.000171355
-6.80554e-09
-0.000170604
-7.51658e-07
-0.000169122
-1.4822e-06
-0.000166977
-2.14456e-06
-0.000163921
-3.056e-06
-0.000160178
-3.74278e-06
-0.000155663
-4.51523e-06
-0.000150163
-5.49997e-06
-0.000143917
-6.24562e-06
-0.000136551
-7.3662e-06
-0.00012835
-8.20096e-06
-0.000119209
-9.14137e-06
-0.000109055
-1.0154e-05
-9.78105e-05
-1.12445e-05
-8.58121e-05
-1.19984e-05
-7.25842e-05
-1.32279e-05
-5.86457e-05
-1.39384e-05
-4.35596e-05
-1.50862e-05
-2.76056e-05
-1.5954e-05
-1.10332e-05
-1.65725e-05
6.20809e-06
-1.72413e-05
2.40302e-05
-1.78222e-05
4.21078e-05
-1.80776e-05
6.04516e-05
-1.83438e-05
7.88004e-05
-1.83488e-05
9.69997e-05
-1.81993e-05
0.000114836
-1.78361e-05
0.000132075
-1.72388e-05
0.000148445
-1.63708e-05
0.000163794
-1.53486e-05
0.000177819
-1.40254e-05
0.000190363
-1.2544e-05
0.00020121
-1.08468e-05
0.000210153
-8.94321e-06
0.000217044
-6.8904e-06
0.000221768
-4.72484e-06
0.000224157
-2.38865e-06
0.000224296
-1.3917e-07
0.000222048
2.24774e-06
0.000217559
4.48945e-06
0.000210816
6.74296e-06
0.000202113
8.70319e-06
0.000191588
1.05251e-05
0.000179374
1.22136e-05
0.000165612
1.37619e-05
0.000150415
1.51975e-05
0.000133949
1.64656e-05
0.000116411
1.7538e-05
9.80368e-05
1.8374e-05
7.90577e-05
1.89791e-05
5.97855e-05
1.92722e-05
4.04794e-05
1.93062e-05
2.13952e-05
1.90842e-05
2.75058e-06
1.86446e-05
-1.52447e-05
1.79953e-05
-3.24389e-05
1.71942e-05
-4.86849e-05
1.6246e-05
-6.3867e-05
1.51821e-05
-7.7919e-05
1.4052e-05
-9.08141e-05
1.28951e-05
-0.000102603
1.17888e-05
-0.000113244
1.06415e-05
-0.000122865
9.62061e-06
-0.000131375
8.51044e-06
-0.000138896
7.52066e-06
-0.000145456
6.56004e-06
-0.000151098
5.6422e-06
-0.000155885
4.78659e-06
-0.00015988
3.99527e-06
-0.000163099
3.21833e-06
-0.000165575
2.47613e-06
-0.000167366
1.79103e-06
-0.000168464
1.09811e-06
-0.000168885
4.21385e-07
-0.000168713
-1.72127e-07
-0.000167786
-9.27248e-07
-0.000166334
-1.45151e-06
-0.000164122
-2.21247e-06
-0.000161298
-2.82383e-06
-0.000157788
-3.51e-06
-0.000153603
-4.18499e-06
-0.000148722
-4.88135e-06
-0.000143128
-5.594e-06
-0.000136906
-6.22153e-06
-0.000129868
-7.0387e-06
-0.000122109
-7.75885e-06
-0.000113536
-8.57276e-06
-0.000104105
-9.43128e-06
-9.38905e-05
-1.02142e-05
-8.27481e-05
-1.11424e-05
-7.07278e-05
-1.20203e-05
-5.78526e-05
-1.28752e-05
-4.40745e-05
-1.37781e-05
-2.94908e-05
-1.45838e-05
-1.409e-05
-1.54008e-05
1.99123e-06
-1.60812e-05
1.86727e-05
-1.66815e-05
3.58444e-05
-1.71717e-05
5.33806e-05
-1.75362e-05
7.09852e-05
-1.76046e-05
8.85528e-05
-1.75677e-05
0.000105839
-1.72862e-05
0.000122625
-1.67858e-05
0.000138579
-1.5954e-05
0.000153497
-1.49181e-05
0.000167089
-1.35919e-05
0.000179111
-1.2022e-05
0.000189298
-1.01876e-05
0.000197434
-8.13631e-06
0.000203365
-5.93071e-06
0.000206953
-3.58741e-06
0.00020805
-1.09775e-06
0.000206743
1.30693e-06
0.000202917
3.82638e-06
0.000196585
6.33152e-06
0.000187983
8.60252e-06
0.000177248
1.07345e-05
0.00016455
1.26984e-05
0.000150156
1.43935e-05
0.000134305
1.58517e-05
0.000117333
1.69719e-05
9.95083e-05
1.78246e-05
8.11138e-05
1.83945e-05
6.24008e-05
1.8713e-05
4.36722e-05
1.87285e-05
2.51548e-05
1.85174e-05
7.05076e-06
1.8104e-05
-1.05168e-05
1.75676e-05
-2.73227e-05
1.68058e-05
-4.33135e-05
1.59908e-05
-5.84111e-05
1.50976e-05
-7.26025e-05
1.41914e-05
-8.58279e-05
1.32254e-05
-9.80662e-05
1.22383e-05
-0.000109302
1.12354e-05
-0.000119703
1.04013e-05
-0.000129148
9.44521e-06
-0.000137719
8.57059e-06
-0.000145435
7.71674e-06
-0.000152249
6.81337e-06
-0.000158183
5.93432e-06
-0.000163309
5.12552e-06
-0.000167597
4.28878e-06
-0.000171113
3.51575e-06
-0.000173888
2.77509e-06
-0.000175997
2.10843e-06
-0.000177474
1.47685e-06
-0.000178326
8.52093e-07
-0.000178729
4.03402e-07
-0.00017852
-2.08867e-07
-0.000177759
-7.6161e-07
-0.000176475
-1.28362e-06
-0.000174696
-1.77928e-06
-0.000172334
-2.36167e-06
-0.0001695
-2.83456e-06
-0.000165992
-3.50797e-06
-0.000161826
-4.16581e-06
-0.000156971
-4.85487e-06
-0.00015137
-5.60063e-06
-0.00014499
-6.38054e-06
-0.000137924
-7.06552e-06
-0.000130021
-7.90359e-06
-0.000121343
-8.67718e-06
-0.000111806
-9.53747e-06
-0.000101347
-1.04588e-05
-8.99893e-05
-1.1358e-05
-7.77069e-05
-1.22825e-05
-6.44752e-05
-1.32317e-05
-5.04732e-05
-1.40019e-05
-3.5606e-05
-1.48673e-05
-2.01566e-05
-1.54493e-05
-4.09899e-06
-1.60577e-05
1.24332e-05
-1.65322e-05
2.92898e-05
-1.68567e-05
4.6358e-05
-1.70681e-05
6.3417e-05
-1.70591e-05
8.0325e-05
-1.6908e-05
9.68268e-05
-1.65018e-05
0.00011266
-1.58327e-05
0.000127592
-1.49322e-05
0.000141325
-1.37337e-05
0.000153599
-1.22733e-05
0.000164166
-1.05671e-05
0.00017274
-8.57401e-06
0.000179164
-6.42427e-06
0.000183257
-4.09273e-06
0.000184924
-1.6675e-06
0.000184154
7.70061e-07
0.000180889
3.26459e-06
0.000175204
5.68591e-06
0.000167241
7.96267e-06
0.000157124
1.01167e-05
0.000145091
1.20328e-05
0.000131374
1.37178e-05
0.000116223
1.51508e-05
9.98586e-05
1.63642e-05
8.25883e-05
1.72703e-05
6.4716e-05
1.78723e-05
4.65116e-05
1.82043e-05
2.82347e-05
1.82769e-05
1.01273e-05
1.81074e-05
-7.57633e-06
1.77036e-05
-2.47126e-05
1.71363e-05
-4.12321e-05
1.65195e-05
-5.69214e-05
1.56893e-05
-7.17785e-05
1.48571e-05
-8.58149e-05
1.40363e-05
-9.88973e-05
1.30824e-05
-0.000111093
1.2196e-05
-0.00012233
1.12365e-05
-0.000132692
1.03619e-05
-0.000142131
9.4395e-06
-0.000150674
8.54263e-06
-0.000158287
7.61303e-06
-0.00016509
6.80309e-06
-0.000171126
6.03598e-06
-0.000176328
5.20232e-06
-0.000180778
4.45005e-06
-0.000184529
3.75032e-06
-0.000187578
3.04956e-06
-0.000189966
2.38768e-06
-0.000191797
1.83115e-06
-0.000193058
1.2612e-06
-0.000193683
6.24854e-07
-0.000193833
1.49545e-07
-0.000193316
-5.16195e-07
-0.00019237
-9.46678e-07
-0.000190678
-1.69183e-06
-0.00018845
-2.22828e-06
-0.000185723
-2.72667e-06
-0.000182136
-3.5872e-06
-0.000178039
-4.09688e-06
-0.000173149
-4.89006e-06
-0.000167451
-5.6984e-06
-0.000160949
-6.50189e-06
-0.000153472
-7.4763e-06
-0.000145074
-8.398e-06
-0.000135604
-9.47063e-06
-0.000124997
-1.0607e-05
-0.000113313
-1.16839e-05
-0.000100617
-1.26957e-05
-8.68554e-05
-1.37617e-05
-7.21424e-05
-1.47131e-05
-5.67157e-05
-1.54267e-05
-4.04237e-05
-1.6292e-05
-2.3523e-05
-1.69006e-05
-5.98283e-06
-1.75402e-05
1.21203e-05
-1.81031e-05
3.0493e-05
-1.83727e-05
4.91484e-05
-1.86554e-05
6.79487e-05
-1.88004e-05
8.64581e-05
-1.85094e-05
0.000104552
-1.80942e-05
0.000121988
-1.74357e-05
0.000138337
-1.63486e-05
0.000153472
-1.5135e-05
0.000166948
-1.34765e-05
0.000178593
-1.1645e-05
0.000188187
-9.59415e-06
0.000195445
-7.25751e-06
0.00020032
-4.87513e-06
0.000202654
-2.33417e-06
0.000202265
3.89016e-07
0.000199382
2.88299e-06
0.000194005
5.37725e-06
0.000186402
7.60207e-06
0.000176775
9.6275e-06
0.000165238
1.15365e-05
0.000152157
1.30817e-05
0.000137794
1.43624e-05
0.000122388
1.54064e-05
0.00010628
1.61082e-05
8.9627e-05
1.66525e-05
7.28945e-05
1.67325e-05
5.60538e-05
1.68407e-05
3.95123e-05
1.65415e-05
2.31916e-05
1.63206e-05
7.50657e-06
1.56851e-05
-7.75874e-06
1.52653e-05
-2.23528e-05
1.45941e-05
-3.62946e-05
1.39417e-05
-4.95378e-05
1.32433e-05
-6.21142e-05
1.25764e-05
-7.40104e-05
1.18961e-05
-8.52318e-05
1.12215e-05
-9.58218e-05
1.059e-05
-0.000105773
9.95141e-06
-0.000115096
9.32276e-06
-0.000123806
8.70966e-06
-0.000131886
8.08016e-06
-0.000139325
7.43924e-06
-0.000146117
6.79194e-06
-0.000152222
6.10522e-06
-0.000157634
5.41193e-06
-0.000162331
4.69677e-06
-0.000166254
3.92348e-06
-0.000169386
3.13161e-06
-0.000171698
2.31186e-06
-0.000173174
1.47628e-06
-0.000173819
6.44951e-07
-0.000173507
-3.11752e-07
-0.000172247
-1.26039e-06
-0.000170079
-2.16843e-06
-0.000166944
-3.13468e-06
-0.0001629
-4.04411e-06
-0.000157957
-4.94319e-06
-0.000152042
-5.91459e-06
-0.000145257
-6.78496e-06
-0.00013752
-7.73736e-06
-0.000128957
-8.56236e-06
-0.000119582
-9.37555e-06
-0.000109271
-1.03103e-05
-9.81779e-05
-1.10935e-05
-1.18516e-05
0.000212339
-2.39817e-05
0.000222555
-2.04178e-05
0.000230634
-1.61418e-05
0.00023634
-1.13923e-05
0.000239679
-6.67587e-06
0.000240581
-1.80768e-06
0.000238955
3.24024e-06
0.000234728
8.44788e-06
0.000227897
1.36595e-05
0.000218841
1.81033e-05
0.000207623
2.24258e-05
0.000194391
2.6457e-05
0.000179515
2.97395e-05
0.000163202
3.26151e-05
0.000145787
3.48161e-05
0.000127524
3.65128e-05
0.000108539
3.79545e-05
8.9319e-05
3.84312e-05
6.99237e-05
3.87774e-05
5.07145e-05
3.84121e-05
3.17464e-05
3.7925e-05
1.34108e-05
3.66583e-05
-4.36647e-06
3.55556e-05
-2.13589e-05
3.39804e-05
-3.75055e-05
3.22881e-05
-5.27091e-05
3.04043e-05
-6.69679e-05
2.85145e-05
-8.02218e-05
2.65049e-05
-9.24638e-05
2.44805e-05
-0.000103722
2.25158e-05
-0.000113993
2.05429e-05
-0.000123308
1.86251e-05
-0.000131706
1.67981e-05
-0.000139203
1.49959e-05
-0.000145847
1.32938e-05
-0.00015166
1.16185e-05
-0.000156684
1.00433e-05
-0.000160944
8.5222e-06
-0.00016446
7.03353e-06
-0.000167246
5.57112e-06
-0.000169322
4.15014e-06
-0.000170713
2.77804e-06
-0.000171424
1.41869e-06
-0.000171413
-1.80167e-08
-0.000170655
-1.50988e-06
-0.000169174
-2.96316e-06
-0.000167018
-4.29995e-06
-0.000163976
-6.09791e-06
-0.000160235
-7.48398e-06
-0.000155725
-9.02529e-06
-0.000150224
-1.10011e-05
-0.000143985
-1.24846e-05
-0.000136616
-1.47357e-05
-0.000128418
-1.63991e-05
-0.000119275
-1.82837e-05
-0.000109125
-2.03045e-05
-9.78754e-05
-2.2494e-05
-8.58636e-05
-2.40102e-05
-7.26461e-05
-2.64455e-05
-5.86964e-05
-2.78882e-05
-4.36169e-05
-3.01657e-05
-2.76884e-05
-3.18824e-05
-1.10777e-05
-3.31833e-05
6.17025e-06
-3.44893e-05
2.40062e-05
-3.56582e-05
4.20892e-05
-3.61606e-05
6.04494e-05
-3.67042e-05
7.87988e-05
-3.66982e-05
9.70067e-05
-3.64072e-05
0.00011486
-3.56898e-05
0.000132117
-3.44952e-05
0.000148491
-3.27455e-05
0.000163855
-3.07121e-05
0.000177888
-2.80589e-05
0.000190445
-2.51013e-05
0.000201302
-2.17033e-05
0.000210247
-1.78882e-05
0.000217149
-1.37923e-05
0.000221887
-9.46312e-06
0.000224278
-4.78021e-06
0.000224415
-2.7607e-07
0.00022216
4.50329e-06
0.000217683
8.96632e-06
0.000210931
1.34948e-05
0.000202226
1.74083e-05
0.000191703
2.10477e-05
0.000179489
2.44277e-05
0.000165725
2.75257e-05
0.000150527
3.03958e-05
0.000134057
3.29351e-05
0.000116516
3.50796e-05
9.81308e-05
3.6759e-05
7.91547e-05
3.79553e-05
5.9865e-05
3.85618e-05
4.05366e-05
3.86346e-05
2.14293e-05
3.81916e-05
2.7606e-06
3.73132e-05
-1.52478e-05
3.60037e-05
-3.24532e-05
3.43996e-05
-4.8704e-05
3.24969e-05
-6.38975e-05
3.03755e-05
-7.79659e-05
2.81205e-05
-9.08666e-05
2.57958e-05
-0.00010267
2.35919e-05
-0.000113314
2.12856e-05
-0.000122937
1.92436e-05
-0.000131456
1.70299e-05
-0.000138978
1.50427e-05
-0.00014554
1.31217e-05
-0.00015118
1.12828e-05
-0.000155969
9.57491e-06
-0.000159968
7.99502e-06
-0.000163195
6.4449e-06
-0.000165668
4.9495e-06
-0.000167476
3.59811e-06
-0.000168571
2.19353e-06
-0.000168985
8.35653e-07
-0.000168807
-3.50682e-07
-0.000167891
-1.8433e-06
-0.000166448
-2.89372e-06
-0.000164252
-4.40849e-06
-0.000161429
-5.64719e-06
-0.000157928
-7.01083e-06
-0.000153752
-8.36132e-06
-0.000148878
-9.75553e-06
-0.000143308
-1.11635e-05
-0.00013707
-1.246e-05
-0.000130047
-1.40618e-05
-0.000122264
-1.55416e-05
-0.000113733
-1.71036e-05
-0.000104315
-1.88495e-05
-9.4098e-05
-2.04313e-05
-8.29591e-05
-2.22814e-05
-7.09575e-05
-2.40219e-05
-5.80826e-05
-2.57501e-05
-4.43124e-05
-2.75484e-05
-2.97299e-05
-2.91663e-05
-1.43446e-05
-3.07862e-05
1.75295e-06
-3.21789e-05
1.84361e-05
-3.33647e-05
3.56224e-05
-3.4358e-05
5.31384e-05
-3.50523e-05
7.07779e-05
-3.52441e-05
8.8375e-05
-3.51648e-05
0.000105664
-3.45752e-05
0.000122466
-3.35885e-05
0.000138439
-3.19264e-05
0.000153374
-2.98529e-05
0.000166985
-2.72036e-05
0.000179031
-2.40683e-05
0.00018924
-2.03964e-05
0.00019741
-1.63058e-05
0.000203339
-1.18598e-05
0.000206923
-7.17217e-06
0.000208053
-2.22778e-06
0.000206754
2.60602e-06
0.000202903
7.67773e-06
0.000196631
1.26031e-05
0.000188003
1.72307e-05
0.00017725
2.14875e-05
0.000164543
2.54057e-05
0.000150136
2.88001e-05
0.00013428
3.17075e-05
0.000117303
3.39496e-05
9.94618e-05
3.56653e-05
8.10577e-05
3.67985e-05
6.23428e-05
3.74279e-05
4.35971e-05
3.74742e-05
2.50723e-05
3.70422e-05
6.95724e-06
3.62191e-05
-1.06143e-05
3.51391e-05
-2.74273e-05
3.36188e-05
-4.34182e-05
3.19818e-05
-5.8523e-05
3.02024e-05
-7.27181e-05
2.83865e-05
-8.59451e-05
2.64524e-05
-9.81848e-05
2.44779e-05
-0.000109446
2.24971e-05
-0.000119818
2.07729e-05
-0.000129277
1.89041e-05
-0.000137853
1.71462e-05
-0.000145569
1.5433e-05
-0.00015238
1.36243e-05
-0.000158331
1.18858e-05
-0.000163436
1.02299e-05
-0.000167737
8.59024e-06
-0.000171252
7.03049e-06
-0.000174023
5.54647e-06
-0.000176142
4.22696e-06
-0.000177611
2.94621e-06
-0.000178517
1.75776e-06
-0.000178875
7.61235e-07
-0.000178675
-4.08762e-07
-0.000177927
-1.50878e-06
-0.000176628
-2.58354e-06
-0.000174881
-3.52534e-06
-0.000172541
-4.70203e-06
-0.000169697
-5.67857e-06
-0.000166196
-7.00934e-06
-0.00016204
-8.32193e-06
-0.00015719
-9.70458e-06
-0.000151598
-1.1193e-05
-0.000145236
-1.27424e-05
-0.000138156
-1.41454e-05
-0.000130265
-1.57945e-05
-0.000121575
-1.73676e-05
-0.000112041
-1.90706e-05
-0.000101604
-2.08967e-05
-9.02321e-05
-2.27294e-05
-7.79641e-05
-2.45505e-05
-6.47433e-05
-2.64525e-05
-5.07169e-05
-2.80284e-05
-3.58874e-05
-2.96968e-05
-2.03906e-05
-3.09462e-05
-4.26343e-06
-3.21849e-05
1.22257e-05
-3.30213e-05
2.90987e-05
-3.37298e-05
4.61843e-05
-3.41538e-05
6.32527e-05
-3.41276e-05
8.01752e-05
-3.38305e-05
9.67169e-05
-3.30436e-05
0.000112567
-3.16832e-05
0.000127534
-2.98987e-05
0.000141268
-2.74676e-05
0.000153555
-2.45611e-05
0.00016415
-2.11617e-05
0.000172728
-1.7152e-05
0.000179175
-1.2871e-05
0.000183274
-8.19255e-06
0.00018495
-3.3428e-06
0.000184181
1.53868e-06
0.000180913
6.53277e-06
0.000175226
1.13732e-05
0.000167235
1.5953e-05
0.000157125
2.02265e-05
0.000145091
2.40667e-05
0.000131362
2.74474e-05
0.000116196
3.03163e-05
9.97987e-05
3.27617e-05
8.25215e-05
3.45475e-05
6.46417e-05
3.57521e-05
4.64108e-05
3.64352e-05
2.81208e-05
3.6567e-05
1.00004e-05
3.62277e-05
-7.71077e-06
3.54148e-05
-2.4848e-05
3.42735e-05
-4.13768e-05
3.30482e-05
-5.70674e-05
3.13799e-05
-7.19427e-05
2.97324e-05
-8.59509e-05
2.80446e-05
-9.90295e-05
2.6161e-05
-0.000111214
2.43806e-05
-0.000122457
2.24798e-05
-0.000132819
2.07237e-05
-0.000142254
1.88745e-05
-0.000150784
1.70724e-05
-0.000158423
1.52516e-05
-0.000165192
1.35724e-05
-0.000171219
1.20632e-05
-0.000176425
1.04082e-05
-0.000180871
8.89613e-06
-0.000184622
7.50091e-06
-0.000187668
6.09558e-06
-0.000190045
4.7653e-06
-0.000191872
3.65737e-06
-0.000193135
2.52496e-06
-0.000193759
1.24832e-06
-0.000193903
2.93873e-07
-0.000193383
-1.03604e-06
-0.000192429
-1.90136e-06
-0.000190741
-3.37956e-06
-0.000188507
-4.46244e-06
-0.000185784
-5.44907e-06
-0.000182198
-7.17329e-06
-0.000178095
-8.20042e-06
-0.000173214
-9.77137e-06
-0.000167519
-1.13929e-05
-0.000161015
-1.30058e-05
-0.000153537
-1.49546e-05
-0.000145148
-1.67872e-05
-0.000135676
-1.89428e-05
-0.000125065
-2.12177e-05
-0.000113381
-2.33678e-05
-0.000100682
-2.53943e-05
-8.6913e-05
-2.75313e-05
-7.21904e-05
-2.94357e-05
-5.67632e-05
-3.0854e-05
-4.04665e-05
-3.25888e-05
-2.35619e-05
-3.38053e-05
-6.01648e-06
-3.50857e-05
1.2099e-05
-3.62186e-05
3.04836e-05
-3.67574e-05
4.91458e-05
-3.73177e-05
6.79577e-05
-3.76123e-05
8.64769e-05
-3.70286e-05
0.00010458
-3.61971e-05
0.000122036
-3.48918e-05
0.000138404
-3.27168e-05
0.000153546
-3.02772e-05
0.000167032
-2.6962e-05
0.000178692
-2.3305e-05
0.000188295
-1.91976e-05
0.000195558
-1.45208e-05
0.000200435
-9.75152e-06
0.000202781
-4.68027e-06
0.000202385
7.84904e-07
0.000199492
5.77575e-06
0.000194116
1.07535e-05
0.000186505
1.52127e-05
0.00017687
1.9262e-05
0.00016532
2.30865e-05
0.000152228
2.61735e-05
0.000137851
2.87398e-05
0.000122434
3.08235e-05
0.00010631
3.22325e-05
8.96493e-05
3.33128e-05
7.29078e-05
3.3474e-05
5.60563e-05
3.36922e-05
3.95094e-05
3.30884e-05
2.31803e-05
3.26497e-05
7.48327e-06
3.13821e-05
-7.77957e-06
3.05281e-05
-2.23756e-05
2.91901e-05
-3.63194e-05
2.78855e-05
-4.95653e-05
2.64892e-05
-6.21449e-05
2.51559e-05
-7.40417e-05
2.3793e-05
-8.52629e-05
2.24426e-05
-9.58552e-05
2.11823e-05
-0.000105811
1.99073e-05
-0.000115133
1.8645e-05
-0.000123842
1.74186e-05
-0.000131929
1.61667e-05
-0.00013937
1.488e-05
-0.000146158
1.358e-05
-0.000152268
1.2216e-05
-0.000157683
1.08264e-05
-0.000162379
9.39321e-06
-0.000166302
7.84587e-06
-0.000169435
6.26475e-06
-0.00017175
4.62651e-06
-0.000173228
2.95467e-06
-0.000173871
1.28815e-06
-0.000173557
-6.26188e-07
-0.000172298
-2.51878e-06
-0.00017013
-4.33635e-06
-0.000166993
-6.27211e-06
-0.000162947
-8.08979e-06
-0.000158003
-9.88712e-06
-0.000152086
-1.18318e-05
-0.000145299
-1.35721e-05
-0.000137559
-1.54777e-05
-0.000128994
-1.71269e-05
-0.000119617
-1.87529e-05
-0.000109304
-2.06227e-05
-9.82086e-05
-2.21893e-05
-2.37059e-05
0.000212511
-3.60083e-05
0.000222758
-3.06654e-05
0.000230869
-2.4253e-05
0.000236592
-1.71148e-05
0.000239935
-1.0019e-05
0.000240834
-2.70649e-06
0.00023916
4.91419e-06
0.00023492
1.26875e-05
0.000228081
2.04989e-05
0.000219008
2.71763e-05
0.000207771
3.36626e-05
0.000194524
3.97043e-05
0.000179625
4.46378e-05
0.000163294
4.89458e-05
0.000145855
5.22553e-05
0.000127574
5.47943e-05
0.000108564
5.69643e-05
8.93291e-05
5.76661e-05
6.99127e-05
5.81938e-05
5.06945e-05
5.76303e-05
3.17104e-05
5.69091e-05
1.33494e-05
5.50193e-05
-4.43015e-06
5.33352e-05
-2.14307e-05
5.0981e-05
-3.75843e-05
4.84417e-05
-5.27936e-05
4.56136e-05
-6.70574e-05
4.27783e-05
-8.0313e-05
3.97604e-05
-9.25527e-05
3.67201e-05
-0.000103813
3.37765e-05
-0.000114083
3.08129e-05
-0.000123394
2.79359e-05
-0.000131792
2.51958e-05
-0.000139287
2.2491e-05
-0.000145931
1.99378e-05
-0.000151742
1.74298e-05
-0.000156763
1.50643e-05
-0.000161024
1.27824e-05
-0.00016454
1.05501e-05
-0.000167327
8.35813e-06
-0.000169403
6.22575e-06
-0.000170792
4.16777e-06
-0.000171488
2.11462e-06
-0.000171469
-3.71368e-08
-0.00017071
-2.26929e-06
-0.00016923
-4.44318e-06
-0.000167066
-6.46349e-06
-0.000164036
-9.12779e-06
-0.000160298
-1.12223e-05
-0.000155795
-1.3529e-05
-0.000150291
-1.65042e-05
-0.000144063
-1.87132e-05
-0.000136689
-2.21101e-05
-0.000128496
-2.45918e-05
-0.000119352
-2.74272e-05
-0.000109207
-3.04503e-05
-9.79505e-05
-3.37501e-05
-8.59261e-05
-3.60347e-05
-7.27171e-05
-3.96545e-05
-5.87402e-05
-4.18651e-05
-4.36839e-05
-4.5222e-05
-2.77512e-05
-4.78152e-05
-1.11343e-05
-4.98002e-05
6.11743e-06
-5.17411e-05
2.39676e-05
-5.35085e-05
4.20583e-05
-5.42513e-05
6.04429e-05
-5.50888e-05
7.88029e-05
-5.50583e-05
9.70217e-05
-5.4626e-05
0.000114892
-5.35605e-05
0.000132172
-5.17748e-05
0.000148555
-4.91289e-05
0.000163941
-4.60976e-05
0.000177987
-4.21053e-05
0.000190562
-3.7676e-05
0.000201439
-3.25807e-05
0.000210395
-2.68445e-05
0.000217311
-2.07085e-05
0.000222066
-1.42177e-05
0.000224461
-7.17544e-06
0.000224579
-3.93709e-07
0.000222322
6.7601e-06
0.000217861
1.34275e-05
0.000211089
2.02665e-05
0.000202369
2.61279e-05
0.000191834
3.15829e-05
0.00017961
3.66512e-05
0.000165842
4.12944e-05
0.000150632
4.56053e-05
0.000134151
4.94159e-05
0.000116592
5.26394e-05
9.81803e-05
5.51702e-05
7.91676e-05
5.69679e-05
5.98444e-05
5.7885e-05
4.04819e-05
5.79971e-05
2.13486e-05
5.73249e-05
2.64377e-06
5.6018e-05
-1.53993e-05
5.40467e-05
-3.26224e-05
5.16227e-05
-4.8901e-05
4.87755e-05
-6.41096e-05
4.55842e-05
-7.81936e-05
4.22044e-05
-9.11521e-05
3.87544e-05
-0.000102932
3.53716e-05
-0.000113578
3.19317e-05
-0.000123152
2.88173e-05
-0.000131712
2.559e-05
-0.000139233
2.25635e-05
-0.000145796
1.96852e-05
-0.000151439
1.69257e-05
-0.000156225
1.43613e-05
-0.000160215
1.19844e-05
-0.000163453
9.68356e-06
-0.000165875
7.37138e-06
-0.000167749
5.47216e-06
-0.000168836
3.28032e-06
-0.000169241
1.2409e-06
-0.000169075
-5.17402e-07
-0.000168204
-2.71421e-06
-0.000166705
-4.39226e-06
-0.000164524
-6.59006e-06
-0.000161687
-8.48344e-06
-0.000158198
-1.05001e-05
-0.000154024
-1.25357e-05
-0.000149162
-1.46174e-05
-0.000143614
-1.67116e-05
-0.000137351
-1.87228e-05
-0.000130338
-2.10748e-05
-0.000122509
-2.33703e-05
-0.000114034
-2.5579e-05
-0.000104623
-2.82609e-05
-9.43818e-05
-3.06722e-05
-8.32751e-05
-3.33882e-05
-7.12755e-05
-3.60216e-05
-5.84005e-05
-3.86251e-05
-4.46402e-05
-4.13087e-05
-3.00483e-05
-4.37583e-05
-1.46504e-05
-4.61841e-05
1.44192e-06
-4.82712e-05
1.81428e-05
-5.00656e-05
3.53684e-05
-5.15837e-05
5.28779e-05
-5.25619e-05
7.05426e-05
-5.29089e-05
8.81581e-05
-5.27803e-05
0.000105475
-5.18925e-05
0.000122283
-5.03962e-05
0.000138287
-4.79306e-05
0.000153248
-4.48134e-05
0.00016691
-4.08665e-05
0.000178953
-3.61107e-05
0.000189176
-3.06201e-05
0.000197357
-2.44869e-05
0.000203329
-1.78317e-05
0.000206916
-1.0759e-05
0.00020809
-3.4019e-06
0.000206732
3.96415e-06
0.000202872
1.15379e-05
0.000196583
1.88914e-05
0.000187968
2.58456e-05
0.000177188
3.22682e-05
0.000164468
3.81258e-05
0.000150035
4.32323e-05
0.000134168
4.75745e-05
0.00011716
5.09582e-05
9.92842e-05
5.35407e-05
8.08607e-05
5.5222e-05
6.21432e-05
5.61454e-05
4.33584e-05
5.6259e-05
2.4824e-05
5.55767e-05
6.69525e-06
5.43478e-05
-1.08924e-05
5.27268e-05
-2.77162e-05
5.04426e-05
-4.36956e-05
4.79611e-05
-5.88279e-05
4.53347e-05
-7.30165e-05
4.2575e-05
-8.62412e-05
3.96772e-05
-9.84866e-05
3.67233e-05
-0.000109777
3.37872e-05
-0.000120125
3.11215e-05
-0.000129587
2.83662e-05
-0.000138154
2.57123e-05
-0.000145871
2.31505e-05
-0.000152695
2.0448e-05
-0.000158646
1.7837e-05
-0.000163699
1.52832e-05
-0.000168043
1.29339e-05
-0.000171552
1.05398e-05
-0.000174273
8.26688e-06
-0.000176434
6.38807e-06
-0.000177872
4.38454e-06
-0.000178821
2.70706e-06
-0.00017916
1.10011e-06
-0.000178951
-6.1819e-07
-0.000178211
-2.24859e-06
-0.00017687
-3.92513e-06
-0.000175166
-5.22917e-06
-0.000172847
-7.02048e-06
-0.00016999
-8.5356e-06
-0.000166498
-1.05013e-05
-0.000162352
-1.24685e-05
-0.000157493
-1.45635e-05
-0.000151902
-1.67836e-05
-0.00014556
-1.90842e-05
-0.000138472
-2.1234e-05
-0.000130592
-2.36749e-05
-0.000121824
-2.61352e-05
-0.000112374
-2.85209e-05
-0.000101938
-3.13325e-05
-9.04882e-05
-3.41791e-05
-7.82889e-05
-3.67499e-05
-6.50727e-05
-3.96688e-05
-5.10285e-05
-4.20726e-05
-3.6196e-05
-4.45294e-05
-2.06869e-05
-4.64553e-05
-4.50686e-06
-4.8365e-05
1.1966e-05
-4.94942e-05
2.88597e-05
-5.06236e-05
4.59558e-05
-5.125e-05
6.30574e-05
-5.12292e-05
7.99993e-05
-5.07724e-05
9.65458e-05
-4.95902e-05
0.000112432
-4.75694e-05
0.000127396
-4.48626e-05
0.000141181
-4.12527e-05
0.000153501
-3.68814e-05
0.000164101
-3.1762e-05
0.000172701
-2.57513e-05
0.000179157
-1.9327e-05
0.000183272
-1.23076e-05
0.000184961
-5.0317e-06
0.000184195
2.30456e-06
0.000180887
9.84033e-06
0.000175196
1.70643e-05
0.000167226
2.39226e-05
0.000157075
3.03781e-05
0.000145018
3.61235e-05
0.000131247
4.12179e-05
0.000116027
4.55364e-05
9.96135e-05
4.91752e-05
8.23382e-05
5.18228e-05
6.44546e-05
5.36356e-05
4.61749e-05
5.47149e-05
2.7872e-05
5.48699e-05
9.77102e-06
5.43287e-05
-7.98915e-06
5.31749e-05
-2.51597e-05
5.1444e-05
-4.16524e-05
4.95409e-05
-5.73426e-05
4.70701e-05
-7.22208e-05
4.46106e-05
-8.62012e-05
4.2025e-05
-9.92731e-05
3.92329e-05
-0.00011144
3.65471e-05
-0.000122695
3.37353e-05
-0.000133041
3.10698e-05
-0.000142467
2.82999e-05
-0.000150966
2.55722e-05
-0.000158642
2.29272e-05
-0.000165401
2.03314e-05
-0.000171364
1.80262e-05
-0.000176591
1.56355e-05
-0.000181033
1.33378e-05
-0.000184774
1.12423e-05
-0.00018781
9.13164e-06
-0.000190179
7.13397e-06
-0.000191992
5.47018e-06
-0.000193262
3.79548e-06
-0.000193881
1.86681e-06
-0.000194001
4.13654e-07
-0.000193469
-1.56788e-06
-0.000192507
-2.86333e-06
-0.000190831
-5.05589e-06
-0.000188574
-6.71858e-06
-0.00018585
-8.17304e-06
-0.000182278
-1.07461e-05
-0.000178162
-1.23162e-05
-0.000173293
-1.46405e-05
-0.000167607
-1.70786e-05
-0.000161101
-1.95121e-05
-0.000153624
-2.2431e-05
-0.000145242
-2.51693e-05
-0.000135768
-2.84171e-05
-0.000125158
-3.18279e-05
-0.000113471
-3.50546e-05
-0.000100768
-3.80972e-05
-8.69912e-05
-4.13084e-05
-7.22642e-05
-4.41627e-05
-5.68325e-05
-4.62858e-05
-4.05243e-05
-4.8897e-05
-2.36107e-05
-5.07189e-05
-6.0568e-06
-5.26396e-05
1.20682e-05
-5.43437e-05
3.04641e-05
-5.51534e-05
4.91391e-05
-5.59928e-05
6.79696e-05
-5.6443e-05
8.65045e-05
-5.55635e-05
0.000104637
-5.43299e-05
0.000122097
-5.23514e-05
0.000138498
-4.91185e-05
0.00015366
-4.54386e-05
0.000167164
-4.0466e-05
0.000178847
-3.49884e-05
0.000188463
-2.88137e-05
0.000195735
-2.17931e-05
0.000200621
-1.46373e-05
0.000202986
-7.04551e-06
0.000202572
1.1987e-06
0.000199663
8.68454e-06
0.000194289
1.61279e-05
0.000186661
2.28406e-05
0.000177015
2.89083e-05
0.00016544
3.46613e-05
0.000152331
3.92824e-05
0.000137927
4.31441e-05
0.000122492
4.62586e-05
0.000106337
4.83872e-05
8.96679e-05
4.99816e-05
7.29102e-05
5.02317e-05
5.60431e-05
5.05593e-05
3.9487e-05
4.96444e-05
2.31497e-05
4.8987e-05
7.4258e-06
4.71059e-05
-7.83325e-06
4.57872e-05
-2.24328e-05
4.37896e-05
-3.6379e-05
4.18317e-05
-4.96257e-05
3.97359e-05
-6.22055e-05
3.77357e-05
-7.4104e-05
3.56915e-05
-8.53257e-05
3.36643e-05
-9.59154e-05
3.17721e-05
-0.000105868
2.98599e-05
-0.000115192
2.79686e-05
-0.000123901
2.61277e-05
-0.000131986
2.42517e-05
-0.00013943
2.23242e-05
-0.000146223
2.03727e-05
-0.000152332
1.83254e-05
-0.00015775
1.62441e-05
-0.00016245
1.40931e-05
-0.000166375
1.1771e-05
-0.000169509
9.399e-06
-0.000171827
6.9442e-06
-0.000173307
4.43498e-06
-0.000173943
1.92404e-06
-0.000173629
-9.40361e-07
-0.000172368
-3.77963e-06
-0.0001702
-6.50403e-06
-0.000167063
-9.40887e-06
-0.000163017
-1.21362e-05
-0.000158073
-1.4831e-05
-0.000152155
-1.77501e-05
-0.000145367
-2.036e-05
-0.000137625
-2.32198e-05
-0.000129059
-2.56927e-05
-0.00011968
-2.81317e-05
-0.000109366
-3.0937e-05
-9.82676e-05
-3.32877e-05
-3.55631e-05
0.000212766
-4.80743e-05
0.000223072
-4.09716e-05
0.000231231
-3.24118e-05
0.000236992
-2.28757e-05
0.000240365
-1.33919e-05
0.00024126
-3.6016e-06
0.00023949
6.6841e-06
0.000235208
1.6969e-05
0.000228357
2.73499e-05
0.000219258
3.62759e-05
0.000207993
4.49272e-05
0.000194723
5.29743e-05
0.000179791
5.95695e-05
0.000163434
6.53036e-05
0.000145959
6.97301e-05
0.000127648
7.31052e-05
0.000108601
7.60108e-05
8.93443e-05
7.69232e-05
6.98964e-05
7.76418e-05
5.06643e-05
7.68623e-05
3.16587e-05
7.59147e-05
1.32592e-05
7.34188e-05
-4.52589e-06
7.11203e-05
-2.15395e-05
6.79946e-05
-3.77044e-05
6.46065e-05
-5.29219e-05
6.08311e-05
-6.71912e-05
5.70476e-05
-8.04513e-05
5.30205e-05
-9.26905e-05
4.89593e-05
-0.000103956
4.50419e-05
-0.000114222
4.1079e-05
-0.000123529
3.72426e-05
-0.000131924
3.35912e-05
-0.000139415
2.99823e-05
-0.000146059
2.65819e-05
-0.000151871
2.32409e-05
-0.000156889
2.00827e-05
-0.000161152
1.70451e-05
-0.000164662
1.40604e-05
-0.000167451
1.11469e-05
-0.000169526
8.30107e-06
-0.000170921
5.5623e-06
-0.000171597
2.79154e-06
-0.000171559
-7.53572e-08
-0.000170794
-3.0344e-06
-0.000169315
-5.92228e-06
-0.000167145
-8.63324e-06
-0.000164128
-1.21454e-05
-0.000160393
-1.49567e-05
-0.0001559
-1.80227e-05
-0.000150393
-2.20105e-05
-0.000144181
-2.4925e-05
-0.000136799
-2.94927e-05
-0.000128614
-3.27765e-05
-0.000119469
-3.65719e-05
-0.000109331
-4.05893e-05
-9.80651e-05
-4.50156e-05
-8.60232e-05
-4.80767e-05
-7.28262e-05
-5.28515e-05
-5.88193e-05
-5.58721e-05
-4.37871e-05
-6.02543e-05
-2.78439e-05
-6.37585e-05
-1.12236e-05
-6.64205e-05
6.03226e-06
-6.8997e-05
2.3899e-05
-7.13753e-05
4.20097e-05
-7.2362e-05
6.04345e-05
-7.35138e-05
7.88023e-05
-7.34261e-05
9.70342e-05
-7.2858e-05
0.000114939
-7.14657e-05
0.000132254
-6.90901e-05
0.000148648
-6.55227e-05
0.000164064
-6.15131e-05
0.000178134
-5.61754e-05
0.000190736
-5.02782e-05
0.000201644
-4.34892e-05
0.000210613
-3.58129e-05
0.000217553
-2.76485e-05
0.000222328
-1.89927e-05
0.000224723
-9.57129e-06
0.000224822
-4.91962e-07
0.000222559
9.023e-06
0.000218084
1.7902e-05
0.000211308
2.70422e-05
0.000202566
3.48705e-05
0.000192007
4.21419e-05
0.000179756
4.89015e-05
0.000165972
5.50791e-05
0.000150744
6.08332e-05
0.000134237
6.59225e-05
0.000116643
7.02336e-05
9.81947e-05
7.36187e-05
7.91132e-05
7.60494e-05
5.97349e-05
7.72633e-05
4.03151e-05
7.74169e-05
2.113e-05
7.651e-05
2.41743e-06
7.47306e-05
-1.56985e-05
7.21627e-05
-3.29574e-05
6.88816e-05
-4.92623e-05
6.50803e-05
-6.44916e-05
6.08136e-05
-7.855e-05
5.62628e-05
-9.15942e-05
5.17986e-05
-0.000103377
4.71541e-05