/*--------------------------------*- C++ -*----------------------------------*\
| =========                 |                                                 |
| \\      /  F ield         | OpenFOAM: The Open Source CFD Toolbox           |
|  \\    /   O peration     | Version:  3.0.1                                 |
|   \\  /    A nd           | Web:      www.OpenFOAM.org                      |
|    \\/     M anipulation  |                                                 |
\*---------------------------------------------------------------------------*/
FoamFile
{
    version     2.0;
    format      ascii;
    class       volVectorField;
    location    "62.4";
    object      U;
}
// * * * * * * * * * * * * * * * * * * * * * * * * * * * * * * * * * * * * * //

dimensions      [0 1 -1 0 0 0 0];

internalField   nonuniform List<vector> 
21420
(
(0.337953 0.00108431 0)
(0.327916 0.0012284 0)
(0.314752 0.00137537 0)
(0.300267 0.00150542 0)
(0.284705 0.0015829 0)
(0.268282 0.00166937 0)
(0.251216 0.00170175 0)
(0.233724 0.00174561 0)
(0.216003 0.00177065 0)
(0.198244 0.00174626 0)
(0.180628 0.00173476 0)
(0.163307 0.00170764 0)
(0.146421 0.00164289 0)
(0.130095 0.00158994 0)
(0.114434 0.00150779 0)
(0.0995268 0.00143617 0)
(0.0854423 0.00135677 0)
(0.0722344 0.00126003 0)
(0.0599434 0.00117191 0)
(0.0485898 0.00108076 0)
(0.0381792 0.000983028 0)
(0.0287044 0.000892863 0)
(0.0201363 0.00080439 0)
(0.0124133 0.000716635 0)
(0.00544698 0.000636615 0)
(-0.000521197 0.000554995 0)
(-0.00563054 0.000488522 0)
(-0.0102045 0.000424056 0)
(-0.01416 0.000363543 0)
(-0.0175353 0.000307799 0)
(-0.0203726 0.000255841 0)
(-0.0227044 0.00020686 0)
(-0.0245547 0.000159993 0)
(-0.025945 0.000114424 0)
(-0.0268866 6.80997e-05 0)
(-0.0273652 2.26885e-05 0)
(-0.0273617 -2.58551e-05 0)
(-0.0268704 -7.54387e-05 0)
(-0.025861 -0.000127966 0)
(-0.0242938 -0.000185463 0)
(-0.0221379 -0.000245243 0)
(-0.0193353 -0.000310233 0)
(-0.0158477 -0.00038282 0)
(-0.011637 -0.000453394 0)
(-0.00661759 -0.000536293 0)
(-0.000834239 -0.000615683 0)
(0.00574217 -0.00069934 0)
(0.0132506 -0.000796774 0)
(0.0217308 -0.000888383 0)
(0.0311626 -0.000975998 0)
(0.0415661 -0.00108386 0)
(0.0529734 -0.00117374 0)
(0.0653592 -0.00128043 0)
(0.0787365 -0.00137133 0)
(0.0930367 -0.00144701 0)
(0.108165 -0.00153684 0)
(0.124093 -0.00160753 0)
(0.1407 -0.00165509 0)
(0.157826 -0.00171258 0)
(0.175368 -0.00173725 0)
(0.193138 -0.00175832 0)
(0.210982 -0.00175488 0)
(0.228745 -0.00173168 0)
(0.246214 -0.00169075 0)
(0.2632 -0.00163612 0)
(0.279552 -0.00155657 0)
(0.295092 -0.0014645 0)
(0.309593 -0.00134556 0)
(0.322761 -0.00120817 0)
(0.33434 -0.00103736 0)
(0.343939 -0.000837113 0)
(0.351081 -0.000591355 0)
(0.355319 -0.000323473 0)
(0.356224 -3.72888e-05 0)
(0.353876 0.000297738 0)
(0.347982 0.000673898 0)
(0.339365 0.00102074 0)
(0.327812 0.00133032 0)
(0.313607 0.00159861 0)
(0.297339 0.00181288 0)
(0.279334 0.00196662 0)
(0.26042 0.00207165 0)
(0.240781 0.00212566 0)
(0.220973 0.00213475 0)
(0.201227 0.00212349 0)
(0.181689 0.00208188 0)
(0.162548 0.0020352 0)
(0.143802 0.00197553 0)
(0.125541 0.00191581 0)
(0.107708 0.00184475 0)
(0.0904623 0.00177262 0)
(0.0736259 0.00169863 0)
(0.0574071 0.00161344 0)
(0.0418046 0.00153073 0)
(0.0268143 0.00145465 0)
(0.012744 0.00137527 0)
(-0.000443138 0.00127513 0)
(-0.0127386 0.00119065 0)
(-0.0242287 0.00109495 0)
(-0.034818 0.00101576 0)
(-0.0445127 0.000919364 0)
(-0.0533079 0.000825181 0)
(-0.0611641 0.000736124 0)
(-0.0681174 0.000643963 0)
(-0.0741428 0.000557323 0)
(-0.0792757 0.000469031 0)
(-0.0835457 0.000380562 0)
(-0.0869799 0.000301216 0)
(-0.0896133 0.00022084 0)
(-0.0914531 0.000144977 0)
(-0.092521 6.90558e-05 0)
(-0.092878 -6.25692e-07 0)
(-0.0925118 -7.2074e-05 0)
(-0.091471 -0.000136257 0)
(-0.0897956 -0.000203961 0)
(-0.087465 -0.000262741 0)
(-0.0844715 -0.000320819 0)
(-0.0809072 -0.00038113 0)
(-0.0767478 -0.000449558 0)
(-0.0719156 -0.000517449 0)
(-0.0663479 -0.000587491 0)
(-0.0600132 -0.000667534 0)
(-0.0528158 -0.000759006 0)
(-0.0447401 -0.000847442 0)
(-0.0357519 -0.000946355 0)
(-0.0257922 -0.00101616 0)
(-0.0149863 -0.00111461 0)
(-0.00335228 -0.00118326 0)
(0.00899513 -0.00124568 0)
(0.0219179 -0.00131175 0)
(0.0354247 -0.00137361 0)
(0.0494913 -0.00140662 0)
(0.0639977 -0.00147581 0)
(0.0789824 -0.00150693 0)
(0.0944323 -0.00154686 0)
(0.110257 -0.00160269 0)
(0.126524 -0.00162536 0)
(0.143124 -0.00166658 0)
(0.160059 -0.00168969 0)
(0.177158 -0.0017028 0)
(0.194329 -0.00170267 0)
(0.211488 -0.00169072 0)
(0.228421 -0.0016624 0)
(0.244944 -0.00161168 0)
(0.260887 -0.00154031 0)
(0.275997 -0.00144832 0)
(0.290024 -0.00133351 0)
(0.302744 -0.00118956 0)
(0.313892 -0.00102108 0)
(0.323252 -0.000830715 0)
(0.330576 -0.000612649 0)
(0.335636 -0.000387887 0)
(0.338298 -0.000142616 0)
(0.338511 0.000105537 0)
(0.33611 0.000364548 0)
(0.331024 0.000628181 0)
(0.323458 0.000872051 0)
(0.313459 0.00109787 0)
(0.301254 0.00131763 0)
(0.287007 0.00149804 0)
(0.271053 0.00165983 0)
(0.253647 0.00179239 0)
(0.235114 0.00187978 0)
(0.21585 0.00194291 0)
(0.196108 0.0019687 0)
(0.176253 0.00196709 0)
(0.156537 0.00194067 0)
(0.137216 0.00189076 0)
(0.118494 0.00182594 0)
(0.100488 0.0017473 0)
(0.0833265 0.00165097 0)
(0.0671232 0.00156116 0)
(0.0519432 0.00145519 0)
(0.0378425 0.00134409 0)
(0.0248743 0.00122809 0)
(0.0130546 0.00111611 0)
(0.00240537 0.00100125 0)
(-0.00706446 0.000878486 0)
(-0.0153872 0.00077452 0)
(-0.0226028 0.000661485 0)
(-0.0287697 0.00056621 0)
(-0.033934 0.000466426 0)
(-0.0381829 0.000377969 0)
(-0.0415699 0.000292187 0)
(-0.0441653 0.000218607 0)
(-0.0460422 0.000154365 0)
(-0.0472893 8.55557e-05 0)
(-0.0479555 3.85423e-05 0)
(-0.0481413 -8.36863e-07 0)
(-0.0478683 -3.83573e-05 0)
(-0.0471619 -8.75139e-05 0)
(-0.0461113 -0.000135624 0)
(-0.0446199 -0.000171106 0)
(-0.0427255 -0.000207868 0)
(-0.0404432 -0.000240325 0)
(-0.0377343 -0.000285951 0)
(-0.0346968 -0.00031444 0)
(-0.0312564 -0.000356739 0)
(-0.0274842 -0.000394703 0)
(-0.0233211 -0.000428821 0)
(-0.0187964 -0.000459506 0)
(-0.0139315 -0.000503027 0)
(-0.0086591 -0.000542026 0)
(-0.00299457 -0.000578149 0)
(0.00308952 -0.000629011 0)
(0.00969664 -0.000680137 0)
(0.0168417 -0.000733273 0)
(0.0245866 -0.000805138 0)
(0.0330246 -0.000864012 0)
(0.0421634 -0.0009467 0)
(0.0521556 -0.00103346 0)
(0.0630056 -0.00112343 0)
(0.0747863 -0.0012145 0)
(0.0874824 -0.00130191 0)
(0.101007 -0.00137673 0)
(0.115303 -0.00144976 0)
(0.130238 -0.0015089 0)
(0.145627 -0.00154047 0)
(0.161304 -0.00156304 0)
(0.177089 -0.00156064 0)
(0.192746 -0.00153995 0)
(0.208048 -0.00150019 0)
(0.222826 -0.00142827 0)
(0.236836 -0.00134851 0)
(0.249926 -0.00124829 0)
(0.261872 -0.00112538 0)
(0.27246 -0.000973623 0)
(0.281507 -0.00080867 0)
(0.288802 -0.000630862 0)
(0.294133 -0.000430735 0)
(0.297399 -0.000216346 0)
(0.298462 -2.8526e-06 0)
(0.297385 0.000221303 0)
(0.293947 0.000445067 0)
(0.288409 0.000644643 0)
(0.280912 0.000848796 0)
(0.271489 0.00101303 0)
(0.260414 0.00117541 0)
(0.247909 0.00130856 0)
(0.234081 0.0014252 0)
(0.219254 0.00152019 0)
(0.203559 0.00158861 0)
(0.187259 0.001639 0)
(0.17063 0.00166178 0)
(0.153849 0.00166516 0)
(0.137172 0.0016377 0)
(0.120799 0.00160095 0)
(0.104982 0.00153815 0)
(0.0899314 0.00145507 0)
(0.0757251 0.00136004 0)
(0.0624964 0.00125889 0)
(0.0503105 0.00116337 0)
(0.0391442 0.00105154 0)
(0.0289786 0.000968174 0)
(0.0197741 0.000866811 0)
(0.0114719 0.000782077 0)
(0.00400279 0.000704031 0)
(-0.00267975 0.000627265 0)
(-0.0086807 0.000563453 0)
(-0.0140324 0.000509505 0)
(-0.0188721 0.000454287 0)
(-0.0233546 0.00041086 0)
(-0.0274448 0.000388959 0)
(-0.0312397 0.000359433 0)
(-0.0348211 0.000347954 0)
(-0.0381912 0.000328652 0)
(-0.0412964 0.000313035 0)
(-0.0440375 0.000288717 0)
(-0.0465178 0.000248285 0)
(-0.0484974 0.000196894 0)
(-0.0499209 0.000142282 0)
(-0.0506249 6.7649e-05 0)
(-0.0505712 -1.01059e-05 0)
(-0.0497588 -9.68302e-05 0)
(-0.048125 -0.000192076 0)
(-0.045621 -0.000280126 0)
(-0.0423686 -0.000369707 0)
(-0.0382282 -0.000463471 0)
(-0.0330929 -0.000543598 0)
(-0.0270565 -0.000626032 0)
(-0.0202217 -0.000701442 0)
(-0.0132619 -0.000772777 0)
(-0.0069241 -0.000803261 0)
(0.00267613 -0.000823191 0)
(0.0146032 -0.00089538 0)
(0.0259935 -0.000956619 0)
(0.0380247 -0.000988841 0)
(0.0501334 -0.00102568 0)
(0.0626747 -0.00106 0)
(0.0753769 -0.00108731 0)
(0.0882647 -0.00112585 0)
(0.101537 -0.00116622 0)
(0.115035 -0.00120765 0)
(0.128851 -0.00125725 0)
(0.143111 -0.00131748 0)
(0.157725 -0.00136734 0)
(0.172813 -0.00143754 0)
(0.18829 -0.00148207 0)
(0.204061 -0.00153076 0)
(0.22007 -0.00154961 0)
(0.236077 -0.00156143 0)
(0.251933 -0.00154546 0)
(0.267364 -0.00149173 0)
(0.282047 -0.00141457 0)
(0.295733 -0.00130499 0)
(0.308122 -0.00115976 0)
(0.318893 -0.000996825 0)
(0.32786 -0.00080188 0)
(0.334791 -0.000593952 0)
(0.339551 -0.000371557 0)
(0.342054 -0.000127579 0)
(0.342319 0.000110295 0)
(0.340317 0.000344416 0)
(0.335837 0.000568836 0)
(0.329189 0.000761286 0)
(0.320527 0.00095801 0)
(0.310048 0.00111637 0)
(0.297984 0.00126896 0)
(0.284517 0.00140742 0)
(0.269883 0.00149391 0)
(0.254362 0.00157895 0)
(0.238154 0.0016465 0)
(0.221494 0.0016625 0)
(0.204621 0.00168344 0)
(0.187736 0.0016598 0)
(0.171037 0.0016419 0)
(0.154668 0.00160909 0)
(0.138781 0.00154288 0)
(0.123502 0.00148445 0)
(0.108906 0.0014178 0)
(0.0950592 0.00133322 0)
(0.0819982 0.00125867 0)
(0.0697233 0.00118352 0)
(0.0582264 0.00110207 0)
(0.0474807 0.0010317 0)
(0.037447 0.000958729 0)
(0.0280831 0.000896016 0)
(0.0193353 0.000836549 0)
(0.0111361 0.000775801 0)
(0.00358856 0.000717755 0)
(-0.00329897 0.000667287 0)
(-0.00968247 0.000611523 0)
(-0.0155675 0.000558611 0)
(-0.0209144 0.000502646 0)
(-0.0257086 0.000447629 0)
(-0.0299352 0.000390785 0)
(-0.0335765 0.000331119 0)
(-0.0366154 0.000270787 0)
(-0.0390344 0.000208538 0)
(-0.0408189 0.000144441 0)
(-0.0419494 7.92953e-05 0)
(-0.0424387 1.32428e-05 0)
(-0.0422598 -5.48491e-05 0)
(-0.0413737 -0.000123989 0)
(-0.0397843 -0.000194077 0)
(-0.0374812 -0.000264754 0)
(-0.0338955 -0.000336193 0)
(0.338019 0.00325358 0)
(0.327975 0.00368593 0)
(0.314804 0.00412691 0)
(0.300311 0.00451711 0)
(0.28474 0.00474953 0)
(0.268308 0.00500894 0)
(0.251233 0.00510602 0)
(0.233734 0.0052376 0)
(0.216006 0.00531267 0)
(0.19824 0.00523942 0)
(0.180618 0.00520486 0)
(0.163291 0.00512347 0)
(0.1464 0.00492914 0)
(0.13007 0.00477023 0)
(0.114406 0.00452371 0)
(0.0994957 0.00430877 0)
(0.0854088 0.00407052 0)
(0.0721997 0.00378025 0)
(0.0599076 0.00351581 0)
(0.0485534 0.00324233 0)
(0.0381434 0.00294903 0)
(0.0286692 0.00267848 0)
(0.0201022 0.00241299 0)
(0.0123811 0.00214969 0)
(0.00541558 0.00190991 0)
(-0.000549782 0.00166467 0)
(-0.00565612 0.00146553 0)
(-0.0102289 0.0012721 0)
(-0.0141827 0.00109051 0)
(-0.0175564 0.000923349 0)
(-0.0203925 0.000767498 0)
(-0.0227234 0.000620581 0)
(-0.0245731 0.000480012 0)
(-0.0259634 0.000343258 0)
(-0.0269055 0.000205243 0)
(-0.0273846 6.82246e-05 0)
(-0.0273821 -7.70277e-05 0)
(-0.026892 -0.000225978 0)
(-0.0258842 -0.000383678 0)
(-0.024319 -0.000556259 0)
(-0.0221647 -0.000735489 0)
(-0.0193653 -0.000931324 0)
(-0.0158801 -0.00114758 0)
(-0.0116708 -0.00135987 0)
(-0.006654 -0.00160857 0)
(-0.000873132 -0.00184661 0)
(0.00570078 -0.00209764 0)
(0.0132067 -0.00239 0)
(0.0216853 -0.0026648 0)
(0.0311153 -0.00292792 0)
(0.0415177 -0.00325121 0)
(0.0529243 -0.00352122 0)
(0.0653092 -0.0038419 0)
(0.0786887 -0.00411299 0)
(0.0929895 -0.00434177 0)
(0.10812 -0.00461151 0)
(0.124052 -0.00482288 0)
(0.140664 -0.00496483 0)
(0.157796 -0.00513751 0)
(0.175343 -0.00521513 0)
(0.193127 -0.00527283 0)
(0.210971 -0.00527069 0)
(0.228751 -0.00519285 0)
(0.246225 -0.00507838 0)
(0.263227 -0.00490821 0)
(0.27959 -0.0046696 0)
(0.295141 -0.0043921 0)
(0.309656 -0.0040402 0)
(0.322845 -0.00361537 0)
(0.334424 -0.00313109 0)
(0.34406 -0.00250547 0)
(0.351216 -0.00177894 0)
(0.355483 -0.000964684 0)
(0.356405 -0.000109674 0)
(0.354037 0.000889871 0)
(0.348176 0.00202607 0)
(0.339568 0.00305627 0)
(0.328025 0.00399183 0)
(0.31382 0.00479522 0)
(0.297559 0.00543813 0)
(0.279555 0.00590911 0)
(0.260632 0.00621103 0)
(0.240999 0.00637244 0)
(0.2212 0.00640499 0)
(0.201458 0.00637127 0)
(0.181922 0.00624962 0)
(0.162784 0.00610684 0)
(0.144031 0.00592658 0)
(0.125773 0.00574414 0)
(0.107939 0.00553387 0)
(0.0906955 0.00531783 0)
(0.0738561 0.00509429 0)
(0.0576346 0.004832 0)
(0.0420311 0.00457768 0)
(0.0270434 0.00435163 0)
(0.0129655 0.00410399 0)
(-0.000218584 0.00382139 0)
(-0.0125194 0.00355649 0)
(-0.023996 0.00327718 0)
(-0.0346013 0.00302714 0)
(-0.0442937 0.00274759 0)
(-0.053088 0.00247873 0)
(-0.0609612 0.00219669 0)
(-0.0679149 0.00191856 0)
(-0.0739424 0.00166699 0)
(-0.0790836 0.00139901 0)
(-0.0833626 0.00114278 0)
(-0.0868159 0.000901595 0)
(-0.0894531 0.000653022 0)
(-0.091301 0.000432253 0)
(-0.0923826 0.000216919 0)
(-0.0927522 5.4995e-06 0)
(-0.0924068 -0.000208732 0)
(-0.0913813 -0.000404885 0)
(-0.0897156 -0.000608861 0)
(-0.0874051 -0.000787866 0)
(-0.0844365 -0.000964411 0)
(-0.0808912 -0.00115564 0)
(-0.0767415 -0.00133902 0)
(-0.0719259 -0.00154844 0)
(-0.0663917 -0.0017645 0)
(-0.0600714 -0.00200585 0)
(-0.052885 -0.00227639 0)
(-0.0448192 -0.00253564 0)
(-0.0358345 -0.00283671 0)
(-0.025891 -0.00306425 0)
(-0.0150771 -0.00332339 0)
(-0.00346002 -0.00355647 0)
(0.00888291 -0.00375716 0)
(0.0218285 -0.00392843 0)
(0.0353357 -0.00411955 0)
(0.0493822 -0.00424473 0)
(0.0639095 -0.0043912 0)
(0.0788752 -0.00453398 0)
(0.094316 -0.00465765 0)
(0.110176 -0.00477921 0)
(0.126422 -0.00489096 0)
(0.143047 -0.00498582 0)
(0.159971 -0.00506551 0)
(0.177087 -0.00512048 0)
(0.194274 -0.00511897 0)
(0.211451 -0.00506769 0)
(0.228396 -0.00499271 0)
(0.244929 -0.00484192 0)
(0.260883 -0.00462836 0)
(0.276007 -0.00434993 0)
(0.29006 -0.00398868 0)
(0.302788 -0.00356173 0)
(0.313942 -0.00306455 0)
(0.323308 -0.00248488 0)
(0.330635 -0.00184912 0)
(0.335713 -0.00115655 0)
(0.338384 -0.000429805 0)
(0.338584 0.000295102 0)
(0.336151 0.00110203 0)
(0.33107 0.00187542 0)
(0.323511 0.0026183 0)
(0.313514 0.00331685 0)
(0.301273 0.0039515 0)
(0.287018 0.00450916 0)
(0.271044 0.00498847 0)
(0.25361 0.00535443 0)
(0.235085 0.00565206 0)
(0.215789 0.00582184 0)
(0.196024 0.00590563 0)
(0.176155 0.00591032 0)
(0.156429 0.00582517 0)
(0.137083 0.00566972 0)
(0.118352 0.00547656 0)
(0.100346 0.00524343 0)
(0.0831958 0.00496734 0)
(0.0669594 0.00467157 0)
(0.0517752 0.00436069 0)
(0.0376793 0.00403486 0)
(0.0247098 0.00369541 0)
(0.0128808 0.00334174 0)
(0.00223901 0.00299992 0)
(-0.00723152 0.00264084 0)
(-0.0155666 0.00232247 0)
(-0.022787 0.00198267 0)
(-0.0289462 0.00167847 0)
(-0.0340936 0.00139628 0)
(-0.0383332 0.00113765 0)
(-0.0417137 0.000888281 0)
(-0.0443047 0.000662993 0)
(-0.046186 0.000455585 0)
(-0.0474257 0.000257527 0)
(-0.0480937 0.000120025 0)
(-0.0482783 -1.12434e-05 0)
(-0.0480024 -0.000126062 0)
(-0.0472958 -0.000264534 0)
(-0.0462359 -0.000392383 0)
(-0.0447351 -0.000498062 0)
(-0.042839 -0.000630996 0)
(-0.0405534 -0.000716978 0)
(-0.0378614 -0.000876862 0)
(-0.0348077 -0.000943054 0)
(-0.0313637 -0.00107068 0)
(-0.0275745 -0.00117045 0)
(-0.0234362 -0.0012944 0)
(-0.0189091 -0.00139377 0)
(-0.0140233 -0.00150535 0)
(-0.00874974 -0.00162338 0)
(-0.00308638 -0.00173342 0)
(0.00300149 -0.00188259 0)
(0.00960283 -0.0020426 0)
(0.0167508 -0.00220724 0)
(0.0244903 -0.0024054 0)
(0.0329118 -0.00261053 0)
(0.0420792 -0.00283128 0)
(0.0520537 -0.00309974 0)
(0.0629205 -0.00336258 0)
(0.0746961 -0.00363752 0)
(0.087388 -0.00390638 0)
(0.100925 -0.00414429 0)
(0.11523 -0.00435328 0)
(0.130181 -0.00451501 0)
(0.14557 -0.00463661 0)
(0.161263 -0.00469525 0)
(0.177054 -0.00468789 0)
(0.192723 -0.00461214 0)
(0.208037 -0.00448718 0)
(0.222814 -0.00429396 0)
(0.236841 -0.00404851 0)
(0.249941 -0.00373096 0)
(0.261886 -0.00336927 0)
(0.272468 -0.0029302 0)
(0.28153 -0.00244122 0)
(0.288839 -0.00188076 0)
(0.294161 -0.00130413 0)
(0.297435 -0.000637562 0)
(0.298497 -1.12868e-05 0)
(0.297392 0.000647846 0)
(0.293951 0.00132783 0)
(0.28842 0.00194621 0)
(0.28091 0.00253688 0)
(0.271495 0.00305562 0)
(0.260396 0.00352154 0)
(0.24787 0.00392234 0)
(0.234046 0.00428388 0)
(0.219179 0.0045518 0)
(0.203486 0.00477741 0)
(0.18718 0.00491444 0)
(0.170536 0.00498678 0)
(0.153736 0.00498376 0)
(0.137056 0.00492897 0)
(0.120673 0.00479726 0)
(0.10486 0.00461703 0)
(0.0897852 0.00436046 0)
(0.075582 0.00408692 0)
(0.0623555 0.00378219 0)
(0.0501639 0.0034838 0)
(0.0390021 0.00316935 0)
(0.0288254 0.0028921 0)
(0.0196269 0.00260704 0)
(0.0113296 0.00234392 0)
(0.00386505 0.00210816 0)
(-0.00282073 0.00186966 0)
(-0.00881563 0.00168327 0)
(-0.0141652 0.00152722 0)
(-0.0189954 0.0013649 0)
(-0.0234652 0.00124341 0)
(-0.0275507 0.00116729 0)
(-0.0313282 0.00109436 0)
(-0.034929 0.00103198 0)
(-0.0382745 0.000972265 0)
(-0.0413563 0.000958869 0)
(-0.0441185 0.000853673 0)
(-0.0465883 0.000749425 0)
(-0.0485592 0.000591424 0)
(-0.0499818 0.000418085 0)
(-0.0506725 0.000200116 0)
(-0.0506154 -2.85202e-05 0)
(-0.0497982 -0.000297137 0)
(-0.0481519 -0.000571117 0)
(-0.0456591 -0.000842438 0)
(-0.0424039 -0.00110763 0)
(-0.0382698 -0.0013909 0)
(-0.0331414 -0.00162614 0)
(-0.0271175 -0.00187816 0)
(-0.0202951 -0.00210458 0)
(-0.0133386 -0.0023168 0)
(-0.00700678 -0.00241187 0)
(0.00257105 -0.00246284 0)
(0.0144786 -0.00268465 0)
(0.0258676 -0.00286634 0)
(0.0378958 -0.00296925 0)
(0.0500099 -0.00307313 0)
(0.0625496 -0.00318435 0)
(0.0752627 -0.00326067 0)
(0.0881513 -0.00337715 0)
(0.101431 -0.00350113 0)
(0.114938 -0.0036195 0)
(0.128759 -0.00378182 0)
(0.143027 -0.00393329 0)
(0.157649 -0.00412232 0)
(0.172747 -0.00429795 0)
(0.188231 -0.00444255 0)
(0.20402 -0.00459704 0)
(0.22004 -0.00466757 0)
(0.236063 -0.00469794 0)
(0.251934 -0.00464267 0)
(0.26738 -0.00447892 0)
(0.282079 -0.004245 0)
(0.295779 -0.00391202 0)
(0.308179 -0.00348058 0)
(0.318968 -0.00298438 0)
(0.327934 -0.00241306 0)
(0.334886 -0.00177783 0)
(0.339649 -0.00111836 0)
(0.342162 -0.000377598 0)
(0.342423 0.000323636 0)
(0.340397 0.00103221 0)
(0.335924 0.00170514 0)
(0.329271 0.00228407 0)
(0.320604 0.00287462 0)
(0.310116 0.00334982 0)
(0.298044 0.00380767 0)
(0.284568 0.00422315 0)
(0.269924 0.00448259 0)
(0.254393 0.00473775 0)
(0.238176 0.00494042 0)
(0.221508 0.00498835 0)
(0.204625 0.00505111 0)
(0.187733 0.00498011 0)
(0.171027 0.00492634 0)
(0.154652 0.00482784 0)
(0.138761 0.00462909 0)
(0.123478 0.0044537 0)
(0.108879 0.00425362 0)
(0.0950305 0.00399977 0)
(0.0819687 0.00377604 0)
(0.069694 0.00355052 0)
(0.0581983 0.00330611 0)
(0.0474537 0.00309496 0)
(0.0374217 0.00287606 0)
(0.0280591 0.0026879 0)
(0.0193125 0.00250956 0)
(0.0111136 0.0023273 0)
(0.0035672 0.00215331 0)
(-0.00331937 0.00200181 0)
(-0.00970325 0.00183457 0)
(-0.0155886 0.00167588 0)
(-0.0209359 0.001508 0)
(-0.0257308 0.00134297 0)
(-0.029958 0.00117244 0)
(-0.0336 0.000993432 0)
(-0.0366397 0.000812427 0)
(-0.0390594 0.000625689 0)
(-0.0408442 0.000433405 0)
(-0.0419757 0.000237903 0)
(-0.0424653 3.98145e-05 0)
(-0.0422871 -0.000164574 0)
(-0.0414014 -0.000371936 0)
(-0.0398124 -0.000582191 0)
(-0.0375096 -0.000794218 0)
(-0.0339243 -0.00100854 0)
(0.338151 0.00542494 0)
(0.328092 0.0061457 0)
(0.314907 0.0068809 0)
(0.300397 0.00753142 0)
(0.284807 0.00791872 0)
(0.268359 0.00835108 0)
(0.251266 0.00851268 0)
(0.233751 0.00873187 0)
(0.216009 0.00885687 0)
(0.198229 0.00873449 0)
(0.180594 0.0086767 0)
(0.163256 0.00854084 0)
(0.146356 0.00821671 0)
(0.130018 0.00795164 0)
(0.114347 0.00754053 0)
(0.099431 0.0071821 0)
(0.0853392 0.0067848 0)
(0.072128 0.00630084 0)
(0.0598336 0.00585987 0)
(0.0484785 0.00540395 0)
(0.0380698 0.00491476 0)
(0.0285968 0.00446365 0)
(0.0200322 0.00402094 0)
(0.0123151 0.00358188 0)
(0.00535139 0.00318287 0)
(-0.000608193 0.00277361 0)
(-0.00570831 0.00244228 0)
(-0.0102784 0.00211968 0)
(-0.0142286 0.00181685 0)
(-0.0175991 0.00153847 0)
(-0.0204323 0.00127879 0)
(-0.0227612 0.00103412 0)
(-0.0246095 0.000799863 0)
(-0.0259995 0.000571844 0)
(-0.0269423 0.000343245 0)
(-0.0274218 0.00011386 0)
(-0.0274209 -0.000127218 0)
(-0.0269328 -0.000376123 0)
(-0.0259275 -0.000638983 0)
(-0.0243655 -0.000926706 0)
(-0.0222138 -0.00122532 0)
(-0.0194196 -0.00155374 0)
(-0.0159381 -0.00191004 0)
(-0.0117308 -0.00226555 0)
(-0.00671775 -0.00267965 0)
(-0.000940366 -0.00307766 0)
(0.00563017 -0.00349558 0)
(0.0131333 -0.00398278 0)
(0.0216101 -0.00444108 0)
(0.0310394 -0.00487957 0)
(0.0414407 -0.00541887 0)
(0.052849 -0.0058686 0)
(0.0652357 -0.00640323 0)
(0.0786181 -0.00685646 0)
(0.0929254 -0.00723626 0)
(0.108062 -0.00768684 0)
(0.124002 -0.00804062 0)
(0.140622 -0.00827807 0)
(0.157769 -0.00856326 0)
(0.175326 -0.00869483 0)
(0.193123 -0.00879235 0)
(0.210981 -0.00878586 0)
(0.228776 -0.00865989 0)
(0.246269 -0.00846201 0)
(0.263277 -0.00818949 0)
(0.279663 -0.00778159 0)
(0.29522 -0.00732948 0)
(0.30976 -0.00673115 0)
(0.322963 -0.00603903 0)
(0.334579 -0.00521252 0)
(0.344239 -0.00419322 0)
(0.35143 -0.00297118 0)
(0.355737 -0.0016282 0)
(0.356704 -0.00018388 0)
(0.354269 0.00149542 0)
(0.348488 0.00337336 0)
(0.339907 0.0050941 0)
(0.328368 0.0066494 0)
(0.314169 0.00799073 0)
(0.297909 0.00906165 0)
(0.279908 0.00984469 0)
(0.26099 0.0103545 0)
(0.241356 0.0106212 0)
(0.221558 0.0106729 0)
(0.20182 0.0106181 0)
(0.182291 0.0104133 0)
(0.163156 0.0101797 0)
(0.144404 0.00987937 0)
(0.126146 0.00957603 0)
(0.108308 0.00922395 0)
(0.0910645 0.0088655 0)
(0.0742187 0.00849356 0)
(0.0580012 0.0080612 0)
(0.0423994 0.00764717 0)
(0.0274167 0.00725218 0)
(0.0133299 0.00683474 0)
(0.000147598 0.00638915 0)
(-0.0121562 0.00593246 0)
(-0.0236255 0.00547677 0)
(-0.0342252 0.00506089 0)
(-0.043934 0.00457628 0)
(-0.0527343 0.00413132 0)
(-0.0606106 0.0036757 0)
(-0.0675666 0.00321542 0)
(-0.0735986 0.00277995 0)
(-0.0787488 0.00234467 0)
(-0.0830396 0.00189734 0)
(-0.0865062 0.00150087 0)
(-0.0891543 0.00110237 0)
(-0.0910238 0.000724239 0)
(-0.0921343 0.000357846 0)
(-0.0925278 8.74411e-06 0)
(-0.0922041 -0.000341641 0)
(-0.0912032 -0.000671574 0)
(-0.0895633 -0.00101342 0)
(-0.0872775 -0.00130196 0)
(-0.0843459 -0.00159855 0)
(-0.0808373 -0.00190594 0)
(-0.0767288 -0.00223047 0)
(-0.0719518 -0.00257106 0)
(-0.0664545 -0.00293832 0)
(-0.0601676 -0.00333008 0)
(-0.0530201 -0.00379731 0)
(-0.0449747 -0.00422902 0)
(-0.0360045 -0.00472224 0)
(-0.0260667 -0.00510542 0)
(-0.0152761 -0.0055388 0)
(-0.00366166 -0.00592431 0)
(0.0086906 -0.00624919 0)
(0.0216216 -0.00655631 0)
(0.035135 -0.00685593 0)
(0.0491799 -0.00707614 0)
(0.0636722 -0.00734148 0)
(0.0786571 -0.00754312 0)
(0.0940853 -0.00776327 0)
(0.109933 -0.00798399 0)
(0.126201 -0.00815311 0)
(0.142816 -0.00832806 0)
(0.159754 -0.00844722 0)
(0.176897 -0.00851763 0)
(0.194106 -0.00853778 0)
(0.211302 -0.00846097 0)
(0.228275 -0.00832034 0)
(0.244836 -0.00807388 0)
(0.260806 -0.00771331 0)
(0.275945 -0.00725379 0)
(0.290018 -0.0066578 0)
(0.302768 -0.00593932 0)
(0.313948 -0.00511699 0)
(0.323344 -0.00414948 0)
(0.33069 -0.00307602 0)
(0.335781 -0.00193688 0)
(0.338471 -0.000713615 0)
(0.338661 0.000502148 0)
(0.336189 0.00183991 0)
(0.33113 0.00313846 0)
(0.323557 0.00436673 0)
(0.313541 0.00551054 0)
(0.301296 0.00659915 0)
(0.287009 0.00751077 0)
(0.27101 0.00832129 0)
(0.253544 0.00893152 0)
(0.234981 0.00941697 0)
(0.215673 0.0097248 0)
(0.195868 0.00983904 0)
(0.175963 0.0098563 0)
(0.156219 0.00970923 0)
(0.136868 0.00946346 0)
(0.118108 0.00912353 0)
(0.100091 0.00873752 0)
(0.0829384 0.00827297 0)
(0.0667115 0.00779406 0)
(0.0515027 0.00727779 0)
(0.0373964 0.00672331 0)
(0.0244108 0.00614951 0)
(0.0125853 0.00557504 0)
(0.00194368 0.00500558 0)
(-0.00752917 0.00440312 0)
(-0.0158593 0.00386429 0)
(-0.0230691 0.0033109 0)
(-0.0292109 0.00280701 0)
(-0.0343619 0.00232513 0)
(-0.0385962 0.00188959 0)
(-0.0419719 0.00147849 0)
(-0.0445553 0.00110017 0)
(-0.0464325 0.000752625 0)
(-0.0476683 0.000438517 0)
(-0.0483225 0.000204295 0)
(-0.0485024 -1.95373e-05 0)
(-0.0482296 -0.00021084 0)
(-0.0475261 -0.000443521 0)
(-0.046463 -0.000666167 0)
(-0.0449588 -0.000826798 0)
(-0.0430504 -0.00105617 0)
(-0.0407638 -0.00120082 0)
(-0.0380641 -0.00143057 0)
(-0.0350069 -0.00158855 0)
(-0.031562 -0.00177752 0)
(-0.0277832 -0.00196227 0)
(-0.0236314 -0.00215109 0)
(-0.0191068 -0.00232285 0)
(-0.0142231 -0.00251147 0)
(-0.00895293 -0.0027106 0)
(-0.00329036 -0.00289946 0)
(0.00280084 -0.00313651 0)
(0.0093982 -0.00340527 0)
(0.0165278 -0.00367542 0)
(0.0242595 -0.00401394 0)
(0.032691 -0.00434327 0)
(0.0418471 -0.00473268 0)
(0.0518258 -0.00516239 0)
(0.0626915 -0.00560428 0)
(0.0744568 -0.00607001 0)
(0.0871567 -0.00651405 0)
(0.100712 -0.00690072 0)
(0.115031 -0.00726122 0)
(0.129993 -0.00754167 0)
(0.145407 -0.00771721 0)
(0.161114 -0.00782914 0)
(0.176922 -0.00780875 0)
(0.192595 -0.00770085 0)
(0.207931 -0.00748801 0)
(0.222732 -0.00715289 0)
(0.236775 -0.00674893 0)
(0.24989 -0.00622717 0)
(0.261849 -0.00562789 0)
(0.272455 -0.00488086 0)
(0.281532 -0.00405787 0)
(0.288842 -0.00314537 0)
(0.294187 -0.00216632 0)
(0.297461 -0.00108521 0)
(0.298536 -2.70589e-06 0)
(0.297404 0.00108647 0)
(0.293965 0.0022225 0)
(0.288431 0.00324044 0)
(0.280904 0.00422836 0)
(0.271465 0.00509131 0)
(0.260362 0.00587812 0)
(0.247814 0.00654859 0)
(0.233963 0.00713068 0)
(0.219086 0.00759924 0)
(0.203362 0.0079509 0)
(0.187039 0.00819888 0)
(0.170384 0.00831791 0)
(0.153563 0.00831423 0)
(0.136846 0.00821487 0)
(0.120457 0.00800623 0)
(0.104621 0.00768318 0)
(0.0895343 0.0072697 0)
(0.0753247 0.0068134 0)
(0.062092 0.00631262 0)
(0.0498928 0.00580181 0)
(0.0387323 0.00528203 0)
(0.0285633 0.00481199 0)
(0.0193645 0.00434783 0)
(0.0110861 0.0039092 0)
(0.00363377 0.00351665 0)
(-0.00304948 0.0031242 0)
(-0.0090408 0.0028016 0)
(-0.0143923 0.00254445 0)
(-0.0192205 0.00226842 0)
(-0.0236725 0.00206103 0)
(-0.0277484 0.00194546 0)
(-0.0315281 0.00180626 0)
(-0.0351072 0.00173467 0)
(-0.0384371 0.0016162 0)
(-0.0415069 0.00159173 0)
(-0.0442491 0.0014292 0)
(-0.0467168 0.00124091 0)
(-0.0486734 0.000985311 0)
(-0.0500822 0.000700056 0)
(-0.0507635 0.000331812 0)
(-0.0506922 -5.08946e-05 0)
(-0.0498549 -0.000494958 0)
(-0.0482019 -0.000955262 0)
(-0.045694 -0.0014013 0)
(-0.0424403 -0.00184692 0)
(-0.0383107 -0.00231631 0)
(-0.0331872 -0.00270856 0)
(-0.0271759 -0.00312436 0)
(-0.0203745 -0.00350286 0)
(-0.0134218 -0.00385699 0)
(-0.00709212 -0.0040265 0)
(0.00243886 -0.00409822 0)
(0.0143133 -0.00447384 0)
(0.0256962 -0.00477606 0)
(0.0377262 -0.00494606 0)
(0.0498304 -0.00512356 0)
(0.062376 -0.0053053 0)
(0.0750936 -0.00543628 0)
(0.087983 -0.0056295 0)
(0.101275 -0.00583558 0)
(0.114791 -0.00603749 0)
(0.128619 -0.00629751 0)
(0.1429 -0.00657317 0)
(0.157534 -0.0068559 0)
(0.172646 -0.00717695 0)
(0.188149 -0.00739704 0)
(0.203956 -0.00765705 0)
(0.220004 -0.00776441 0)
(0.236051 -0.00782443 0)
(0.251952 -0.00773627 0)
(0.267427 -0.00745984 0)
(0.282154 -0.00707848 0)
(0.295882 -0.00652471 0)
(0.308304 -0.00579792 0)
(0.319113 -0.00498135 0)
(0.3281 -0.00401492 0)
(0.335059 -0.00297475 0)
(0.339842 -0.00186261 0)
(0.342364 -0.000644067 0)
(0.342619 0.000545822 0)
(0.34055 0.00171324 0)
(0.336088 0.00283835 0)
(0.329427 0.00380822 0)
(0.320748 0.00479355 0)
(0.310242 0.00558583 0)
(0.298153 0.00634913 0)
(0.284659 0.00704176 0)
(0.269995 0.00747406 0)
(0.254446 0.0078993 0)
(0.23821 0.00823704 0)
(0.221525 0.00831667 0)
(0.204626 0.00842112 0)
(0.18772 0.00830247 0)
(0.171 0.0082126 0)
(0.154613 0.00804813 0)
(0.138713 0.0077165 0)
(0.123423 0.00742382 0)
(0.108819 0.00708999 0)
(0.0949688 0.00666655 0)
(0.081906 0.00629337 0)
(0.069632 0.00591726 0)
(0.058139 0.00550976 0)
(0.0473971 0.0051577 0)
(0.0373688 0.00479294 0)
(0.0280091 0.00447924 0)
(0.0192652 0.00418224 0)
(0.0110672 0.00387837 0)
(0.00352316 0.00358892 0)
(-0.00336136 0.00333616 0)
(-0.00974581 0.00305758 0)
(-0.0156317 0.00279325 0)
(-0.0209795 0.00251348 0)
(-0.0257756 0.0022385 0)
(-0.0300043 0.00195429 0)
(-0.0336475 0.00165594 0)
(-0.0366885 0.00135423 0)
(-0.0391095 0.001043 0)
(-0.0408949 0.000722595 0)
(-0.0420283 0.00039659 0)
(-0.0425188 6.67677e-05 0)
(-0.0423415 -0.000274398 0)
(-0.0414565 -0.000619788 0)
(-0.0398683 -0.000970187 0)
(-0.0375662 -0.00132357 0)
(-0.0339816 -0.00168077 0)
(0.33835 0.00759979 0)
(0.328268 0.00860924 0)
(0.31506 0.00963902 0)
(0.300527 0.0105501 0)
(0.284908 0.0110922 0)
(0.268435 0.0116975 0)
(0.251316 0.0119233 0)
(0.233778 0.01223 0)
(0.216012 0.0124047 0)
(0.198213 0.0122328 0)
(0.180559 0.0121515 0)
(0.163203 0.0119608 0)
(0.146291 0.0115065 0)
(0.129939 0.0111349 0)
(0.114259 0.0105589 0)
(0.0993338 0.0100567 0)
(0.0852347 0.00949997 0)
(0.0720203 0.0088221 0)
(0.0597225 0.00820422 0)
(0.0483661 0.00756568 0)
(0.0379592 0.00688005 0)
(0.0284882 0.00624815 0)
(0.0199272 0.00562791 0)
(0.0122161 0.00501256 0)
(0.00525514 0.00445405 0)
(-0.000695784 0.00388255 0)
(-0.00578656 0.00341865 0)
(-0.0103528 0.0029664 0)
(-0.0142975 0.00254226 0)
(-0.017663 0.0021529 0)
(-0.0204921 0.0017895 0)
(-0.0228179 0.00144729 0)
(-0.0246641 0.00111961 0)
(-0.0260532 0.000800338 0)
(-0.026997 0.000481867 0)
(-0.0274783 0.00015886 0)
(-0.0274791 -0.000176715 0)
(-0.0269941 -0.000525826 0)
(-0.0259925 -0.000893596 0)
(-0.0244353 -0.00129639 0)
(-0.0222877 -0.00171445 0)
(-0.0195007 -0.00217671 0)
(-0.0160247 -0.00266995 0)
(-0.011821 -0.00316964 0)
(-0.0068136 -0.0037471 0)
(-0.00104144 -0.00431103 0)
(0.00552429 -0.00489311 0)
(0.013023 -0.00557515 0)
(0.0214972 -0.00621697 0)
(0.0309254 -0.00683108 0)
(0.0413252 -0.00758644 0)
(0.0527354 -0.00821678 0)
(0.0651248 -0.0089656 0)
(0.0785131 -0.00960044 0)
(0.0928276 -0.0101335 0)
(0.107975 -0.0107642 0)
(0.123926 -0.0112605 0)
(0.140561 -0.0115925 0)
(0.157724 -0.0119958 0)
(0.175301 -0.012177 0)
(0.193119 -0.0123164 0)
(0.210996 -0.012307 0)
(0.228812 -0.0121324 0)
(0.24633 -0.0118536 0)
(0.263356 -0.0114737 0)
(0.279765 -0.0109043 0)
(0.295345 -0.0102629 0)
(0.309911 -0.00943952 0)
(0.323152 -0.00845936 0)
(0.334801 -0.00731767 0)
(0.344515 -0.00589343 0)
(0.351761 -0.0042004 0)
(0.356122 -0.00232158 0)
(0.357096 -0.00023831 0)