/*--------------------------------*- C++ -*----------------------------------*\
| =========                 |                                                 |
| \\      /  F ield         | OpenFOAM: The Open Source CFD Toolbox           |
|  \\    /   O peration     | Version:  3.0.1                                 |
|   \\  /    A nd           | Web:      www.OpenFOAM.org                      |
|    \\/     M anipulation  |                                                 |
\*---------------------------------------------------------------------------*/
FoamFile
{
    version     2.0;
    format      ascii;
    class       surfaceScalarField;
    location    "67.8";
    object      phi;
}
// * * * * * * * * * * * * * * * * * * * * * * * * * * * * * * * * * * * * * //

dimensions      [0 3 -1 0 0 0 0];

internalField   nonuniform List<scalar> 
42423
(
-0.000152719
3.86799e-06
-0.00015588
3.16138e-06
-0.000158424
2.54439e-06
-0.000160358
1.93306e-06
-0.000161681
1.32355e-06
-0.000162416
7.34481e-07
-0.000162544
1.28828e-07
-0.000162006
-5.38588e-07
-0.000160896
-1.10939e-06
-0.000159069
-1.82729e-06
-0.000156569
-2.49977e-06
-0.00015345
-3.11917e-06
-0.000149433
-4.01732e-06
-0.000144696
-4.73739e-06
-0.000139136
-5.5592e-06
-0.000132711
-6.42539e-06
-0.000125576
-7.13545e-06
-0.000117514
-8.06145e-06
-0.000108468
-9.04599e-06
-9.85125e-05
-9.9557e-06
-8.75259e-05
-1.09866e-05
-7.55132e-05
-1.20127e-05
-6.26661e-05
-1.28472e-05
-4.88108e-05
-1.38554e-05
-3.397e-05
-1.48408e-05
-1.82268e-05
-1.57432e-05
-1.66926e-06
-1.65576e-05
1.54248e-05
-1.70942e-05
3.31325e-05
-1.77077e-05
5.13116e-05
-1.81791e-05
6.96233e-05
-1.83118e-05
8.80688e-05
-1.84456e-05
0.000106292
-1.82227e-05
0.000124162
-1.78701e-05
0.000141453
-1.72912e-05
0.000157799
-1.63467e-05
0.000173049
-1.52492e-05
0.000186975
-1.39261e-05
0.00019932
-1.23455e-05
0.000209937
-1.06169e-05
0.00021861
-8.67277e-06
0.000225264
-6.65445e-06
0.000229787
-4.52266e-06
0.00023206
-2.27339e-06
0.000232071
-1.09621e-08
0.000229838
2.23241e-06
0.000225237
4.60123e-06
0.000218634
6.60305e-06
0.000210098
8.53607e-06
0.00019959
1.05077e-05
0.000187545
1.20453e-05
0.000174008
1.35366e-05
0.000159249
1.4759e-05
0.00014346
1.57895e-05
0.000126814
1.66458e-05
0.000109667
1.71467e-05
9.21537e-05
1.75135e-05
7.44956e-05
1.7658e-05
5.67902e-05
1.77054e-05
3.92636e-05
1.75266e-05
2.2041e-05
1.72226e-05
5.29866e-06
1.67423e-05
-1.07831e-05
1.60817e-05
-2.6234e-05
1.54509e-05
-4.10242e-05
1.47902e-05
-5.49901e-05
1.39659e-05
-6.81128e-05
1.31227e-05
-8.03932e-05
1.22804e-05
-9.17625e-05
1.13693e-05
-0.000102306
1.05437e-05
-0.00011193
9.62373e-06
-0.000120644
8.71419e-06
-0.000128618
7.9742e-06
-0.000135688
7.06915e-06
-0.0001419
6.21235e-06
-0.000147317
5.41703e-06
-0.000151853
4.53615e-06
-0.000155633
3.78003e-06
-0.000158628
2.99481e-06
-0.000160765
2.13739e-06
-0.000162154
1.38871e-06
-0.000162814
6.59487e-07
-0.000162659
-1.55019e-07
-0.000161749
-9.09487e-07
-0.00016003
-1.71938e-06
-0.000157494
-2.53603e-06
-0.000154165
-3.32829e-06
-0.000149948
-4.21712e-06
-0.000144965
-4.98287e-06
-0.00013911
-5.85548e-06
-0.000132495
-6.61493e-06
-0.0001251
-7.3955e-06
-0.000116998
-8.10126e-06
-0.000108239
-8.75906e-06
-9.87952e-05
-9.44412e-06
-8.86656e-05
-1.01296e-05
-7.78576e-05
-1.08081e-05
-6.6321e-05
-1.15366e-05
-5.40378e-05
-1.22832e-05
-4.0971e-05
-1.30669e-05
-2.72611e-05
-1.371e-05
-1.2804e-05
-1.44571e-05
2.35649e-06
-1.51606e-05
1.81211e-05
-1.57647e-05
3.44329e-05
-1.63118e-05
5.11368e-05
-1.6704e-05
6.81395e-05
-1.70028e-05
8.52512e-05
-1.71118e-05
0.000102312
-1.70608e-05
0.000119148
-1.6836e-05
0.000135565
-1.64176e-05
0.000151367
-1.58015e-05
0.000166299
-1.49327e-05
0.000180148
-1.38492e-05
0.000192677
-1.25281e-05
0.000203652
-1.09757e-05
0.000212876
-9.22441e-06
0.000220167
-7.29038e-06
0.000225334
-5.16696e-06
0.000228242
-2.90858e-06
0.000228836
-5.94173e-07
0.000227058
1.77873e-06
0.00022283
4.22756e-06
0.000216256
6.57379e-06
0.000207449
8.80741e-06
0.00019656
1.08885e-05
0.000183806
1.27539e-05
0.000169287
1.45194e-05
0.000153385
1.59012e-05
0.000136272
1.71131e-05
0.000118277
1.79947e-05
9.96736e-05
1.86037e-05
8.05886e-05
1.90849e-05
6.13707e-05
1.92179e-05
4.22292e-05
1.91415e-05
2.33953e-05
1.88338e-05
5.0761e-06
1.83192e-05
-1.26381e-05
1.77142e-05
-2.95037e-05
1.68656e-05
-4.55242e-05
1.60205e-05
-6.05164e-05
1.49922e-05
-7.44969e-05
1.39805e-05
-8.73694e-05
1.28724e-05
-9.92792e-05
1.19098e-05
-0.000110034
1.07552e-05
-0.000119799
9.76432e-06
-0.000128534
8.73483e-06
-0.00013628
7.74641e-06
-0.000143106
6.82657e-06
-0.000148984
5.8778e-06
-0.000154129
5.14429e-06
-0.000158432
4.30337e-06
-0.000162009
3.57704e-06
-0.000164857
2.84835e-06
-0.000166998
2.14059e-06
-0.000168482
1.48445e-06
-0.0001693
8.17933e-07
-0.0001695
1.99984e-07
-0.00016907
-4.30114e-07
-0.000168008
-1.06222e-06
-0.000166335
-1.67257e-06
-0.000164035
-2.30035e-06
-0.00016108
-2.95541e-06
-0.000157424
-3.65571e-06
-0.000153167
-4.25704e-06
-0.000148126
-5.04088e-06
-0.000142487
-5.63942e-06
-0.000136048
-6.43884e-06
-0.000128859
-7.18897e-06
-0.000120874
-7.98461e-06
-0.000112042
-8.83249e-06
-0.000102372
-9.67031e-06
-9.18301e-05
-1.05417e-05
-8.03396e-05
-1.14906e-05
-6.81048e-05
-1.22348e-05
-5.5e-05
-1.31049e-05
-4.10541e-05
-1.3946e-05
-2.62882e-05
-1.4766e-05
-1.08049e-05
-1.54834e-05
5.32077e-06
-1.61258e-05
2.19628e-05
-1.66421e-05
3.89761e-05
-1.70134e-05
5.62088e-05
-1.72328e-05
7.34853e-05
-1.72766e-05
9.06173e-05
-1.7132e-05
0.000107379
-1.6762e-05
0.000123505
-1.61257e-05
0.000138761
-1.52562e-05
0.000152832
-1.40713e-05
0.000165409
-1.25771e-05
0.000176284
-1.08744e-05
0.000185233
-8.94899e-06
0.000192035
-6.80271e-06
0.000196584
-4.54851e-06
0.000198777
-2.19321e-06
0.000198595
1.81726e-07
0.000195898
2.69683e-06
0.000190776
5.12211e-06
0.000183327
7.44852e-06
0.000173669
9.65818e-06
0.000161947
1.17217e-05
0.00014841
1.35369e-05
0.00013331
1.51008e-05
0.000116855
1.64549e-05
9.94424e-05
1.74122e-05
8.13055e-05
1.81369e-05
6.28e-05
1.85055e-05
4.41377e-05
1.86622e-05
2.55831e-05
1.85546e-05
7.32306e-06
1.826e-05
-1.04613e-05
1.77843e-05
-2.759e-05
1.71287e-05
-4.40149e-05
1.64249e-05
-5.94708e-05
1.54559e-05
-7.40915e-05
1.46207e-05
-8.76714e-05
1.35798e-05
-0.000100274
1.26029e-05
-0.000111835
1.1561e-05
-0.000122444
1.06084e-05
-0.000132089
9.64516e-06
-0.000140832
8.74287e-06
-0.000148671
7.83958e-06
-0.000155655
6.98342e-06
-0.000161867
6.2117e-06
-0.000167256
5.38952e-06
-0.000171876
4.62031e-06
-0.000175743
3.86697e-06
-0.000178845
3.10152e-06
-0.000181307
2.46193e-06
-0.000183032
1.72561e-06
-0.000184079
1.04624e-06
-0.000184472
3.93295e-07
-0.000184189
-2.82559e-07
-0.000183247
-9.42036e-07
-0.000181671
-1.57661e-06
-0.000179482
-2.18851e-06
-0.000176675
-2.8071e-06
-0.000173218
-3.45683e-06
-0.000169173
-4.0459e-06
-0.000164427
-4.7457e-06
-0.000158994
-5.43264e-06
-0.000152907
-6.08681e-06
-0.000146071
-6.83672e-06
-0.000138502
-7.56875e-06
-0.000130189
-8.31327e-06
-0.000121146
-9.04274e-06
-0.000111371
-9.77486e-06
-0.000100887
-1.04838e-05
-8.95863e-05
-1.13012e-05
-7.76659e-05
-1.19204e-05
-6.49582e-05
-1.27078e-05
-5.15175e-05
-1.34408e-05
-3.73968e-05
-1.41207e-05
-2.26423e-05
-1.47546e-05
-7.35119e-06
-1.52911e-05
8.35903e-06
-1.57103e-05
2.43397e-05
-1.59807e-05
4.04407e-05
-1.6101e-05
5.65018e-05
-1.60612e-05
7.2319e-05
-1.58174e-05
8.76883e-05
-1.53693e-05
0.000102388
-1.47001e-05
0.000116115
-1.37263e-05
0.000128676
-1.25613e-05
0.000139814
-1.11379e-05
0.000149306
-9.49237e-06
0.000156928
-7.62213e-06
0.000162451
-5.52276e-06
0.000165811
-3.36019e-06
0.000166927
-1.1162e-06
0.000165763
1.1644e-06
0.000162376
3.38625e-06
0.000156803
5.57306e-06
0.00014921
7.59339e-06
0.000139847
9.3626e-06
0.000128962
1.08853e-05
0.000116668
1.22941e-05
0.000103462
1.32051e-05
8.94139e-05
1.40485e-05
7.49907e-05
1.44231e-05
6.00521e-05
1.49386e-05
4.51e-05
1.4952e-05
3.00375e-05
1.50625e-05
1.50164e-05
1.50211e-05
2.37609e-07
1.47787e-05
-1.43172e-05
1.45548e-05
-2.84521e-05
1.41349e-05
-4.20883e-05
1.36362e-05
-5.51359e-05
1.30476e-05
-6.74549e-05
1.2319e-05
-7.90603e-05
1.16054e-05
-8.98176e-05
1.07572e-05
-9.97388e-05
9.9212e-06
-0.000108843
9.10408e-06
-0.000117066
8.2228e-06
-0.000124454
7.38841e-06
-0.000131069
6.61493e-06
-0.000136892
5.82319e-06
-0.000141994
5.10151e-06
-0.000146434
4.44075e-06
-0.000150233
3.79826e-06
-0.000153483
3.24984e-06
-0.000156197
2.71463e-06
-0.000158424
2.22663e-06
-0.000160179
1.75542e-06
-0.000161482
1.30318e-06
-0.000162332
8.49951e-07
-0.00016274
4.07358e-07
-0.000162627
-1.13299e-07
-0.000162
-6.26404e-07
-0.000160826
-1.1741e-06
-0.000158971
-1.8554e-06
-0.000156443
-2.52798e-06
-0.000153185
-3.25793e-06
-0.000148962
-4.22285e-06
-0.000143937
-5.02468e-06
-0.000137743
-6.19417e-06
-0.00013056
-7.18346e-06
-0.000122407
-8.15222e-06
-0.000113058
-9.3491e-06
-0.000102629
-1.04298e-05
-9.11823e-05
-1.14462e-05
-7.85611e-05
-1.26212e-05
-6.49904e-05
-1.35708e-05
-5.03242e-05
-1.46662e-05
-3.48296e-05
-1.54946e-05
-1.87885e-05
-1.60412e-05
-2.12072e-06
-1.66678e-05
1.49717e-05
-1.70924e-05
3.22414e-05
-1.72697e-05
4.96461e-05
-1.74048e-05
6.6912e-05
-1.72659e-05
8.37461e-05
-1.68342e-05
0.000100066
-1.63195e-05
0.000115545
-1.54793e-05
0.000130007
-1.44627e-05
0.000143292
-1.32849e-05
0.000155192
-1.19e-05
0.000165535
-1.03431e-05
0.000174198
-8.66242e-06
0.000181046
-6.84788e-06
0.000186007
-4.96153e-06
0.000189026
-3.01892e-06
0.000190085
-1.0589e-06
0.000189093
9.91551e-07
0.000186039
3.05401e-06
0.000181103
4.93591e-06
0.000174368
6.73541e-06
0.000165859
8.50919e-06
0.000155852
1.00069e-05
0.000144357
1.14947e-05
0.000131698
1.26586e-05
0.00011788
1.38186e-05
0.000103028
1.48516e-05
8.75286e-05
1.54997e-05
7.13642e-05
1.61644e-05
1.66418e-05
-0.000152751
7.74183e-06
-0.000155915
6.32567e-06
-0.000158462
5.09141e-06
-0.000160396
3.86689e-06
-0.000161722
2.64953e-06
-0.000162456
1.46799e-06
-0.000162585
2.57588e-07
-0.000162047
-1.07562e-06
-0.00016094
-2.21683e-06
-0.000159114
-3.65296e-06
-0.000156616
-4.99773e-06
-0.000153496
-6.23931e-06
-0.000149481
-8.03242e-06
-0.000144745
-9.47321e-06
-0.000139185
-1.11197e-05
-0.000132761
-1.28495e-05
-0.000125629
-1.42677e-05
-0.00011757
-1.61204e-05
-0.000108505
-1.81111e-05
-9.85651e-05
-1.98955e-05
-8.75785e-05
-2.19733e-05
-7.55631e-05
-2.40281e-05
-6.27167e-05
-2.56937e-05
-4.88565e-05
-2.77156e-05
-3.40086e-05
-2.96888e-05
-1.82618e-05
-3.14901e-05
-1.70118e-06
-3.31183e-05
1.5397e-05
-3.41925e-05
3.31134e-05
-3.54242e-05
5.13055e-05
-3.63713e-05
6.96248e-05
-3.66312e-05
8.80785e-05
-3.68993e-05
0.000106316
-3.64609e-05
0.000124199
-3.57531e-05
0.000141497
-3.45891e-05
0.000157854
-3.27038e-05
0.000173114
-3.05091e-05
0.000187051
-2.78632e-05
0.000199406
-2.47012e-05
0.000210034
-2.12449e-05
0.000218722
-1.73602e-05
0.00022538
-1.33132e-05
0.000229901
-9.04374e-06
0.000232176
-4.54819e-06
0.000232185
-2.03155e-08
0.000229948
4.46993e-06
0.000225346
9.20273e-06
0.000218738
1.32106e-05
0.000210199
1.70752e-05
0.000199683
2.10242e-05
0.000187627
2.41006e-05
0.000174084
2.70796e-05
0.000159315
2.95274e-05
0.000143516
3.15886e-05
0.000126859
3.33028e-05
0.000109702
3.43041e-05
9.2178e-05
3.50372e-05
7.45158e-05
3.53202e-05
5.68006e-05
3.54206e-05
3.92671e-05
3.506e-05
2.20414e-05
3.44482e-05
5.28597e-06
3.34977e-05
-1.08054e-05
3.2173e-05
-2.62677e-05
3.09132e-05
-4.10667e-05
2.95891e-05
-5.50392e-05
2.79385e-05
-6.81687e-05
2.62521e-05
-8.04534e-05
2.4565e-05
-9.1824e-05
2.27399e-05
-0.000102369
2.10889e-05
-0.000111985
1.92393e-05
-0.000120722
1.74513e-05
-0.000128685
1.59377e-05
-0.000135761
1.41451e-05
-0.000141974
1.24256e-05
-0.000147393
1.0835e-05
-0.000151924
9.06788e-06
-0.000155702
7.55776e-06
-0.000158693
5.98581e-06
-0.000160832
4.27628e-06
-0.000162221
2.77742e-06
-0.000162888
1.32659e-06
-0.000162728
-3.15232e-07
-0.000161807
-1.82968e-06
-0.000160089
-3.43788e-06
-0.00015755
-5.07503e-06
-0.000154218
-6.66023e-06
-0.00014999
-8.44488e-06
-0.000145005
-9.9677e-06
-0.00013915
-1.17111e-05
-0.000132528
-1.32364e-05
-0.000125125
-1.4799e-05
-0.000117014
-1.62118e-05
-0.000108251
-1.75222e-05
-9.88067e-05
-1.88888e-05
-8.86817e-05
-2.02547e-05
-7.78816e-05
-2.16082e-05
-6.63454e-05
-2.3073e-05
-5.40634e-05
-2.45654e-05
-4.0998e-05
-2.61324e-05
-2.72983e-05
-2.74098e-05
-1.28396e-05
-2.8916e-05
2.32443e-06
-3.03247e-05
1.8096e-05
-3.15364e-05
3.4409e-05
-3.26249e-05
5.11225e-05
-3.34176e-05
6.81344e-05
-3.40149e-05
8.52494e-05
-3.42269e-05
0.000102325
-3.41365e-05
0.000119177
-3.3688e-05
0.000135603
-3.28439e-05
0.000151415
-3.16141e-05
0.00016636
-2.98773e-05
0.000180213
-2.77026e-05
0.000192752
-2.50675e-05
0.000203745
-2.19684e-05
0.000212984
-1.84632e-05
0.000220281
-1.45878e-05
0.000225448
-1.03343e-05
0.000228351
-5.81181e-06
0.000228932
-1.17549e-06
0.000227132
3.57943e-06
0.000222897
8.46209e-06
0.000216315
1.31552e-05
0.000207488
1.76346e-05
0.000196582
2.17941e-05
0.000183795
2.55412e-05
0.000169268
2.90464e-05
0.000153354
3.18156e-05
0.000136231
3.42355e-05
0.000118195
3.60308e-05
9.95485e-05
3.72502e-05
8.04975e-05
3.81358e-05
6.12391e-05
3.84763e-05
4.20943e-05
3.82863e-05
2.32296e-05
3.76985e-05
4.89194e-06
3.66568e-05
-1.28284e-05
3.54345e-05
-2.97078e-05
3.37449e-05
-4.57334e-05
3.20461e-05
-6.07365e-05
2.99952e-05
-7.47176e-05
2.79616e-05
-8.75909e-05
2.57458e-05
-9.95002e-05
2.38191e-05
-0.000110253
2.1508e-05
-0.000119972
1.94829e-05
-0.000128742
1.75049e-05
-0.000136482
1.54866e-05
-0.000143309
1.36536e-05
-0.000149219
1.17876e-05
-0.000154333
1.02579e-05
-0.000158626
8.59657e-06
-0.000162197
7.14861e-06
-0.000165039
5.68976e-06
-0.000167171
4.27319e-06
-0.000168644
2.95669e-06
-0.000169463
1.63727e-06
-0.000169647
3.844e-07
-0.000169203
-8.74191e-07
-0.000168147
-2.11821e-06
-0.000166468
-3.35212e-06
-0.00016417
-4.59865e-06
-0.000161212
-5.91286e-06
-0.000157576
-7.29176e-06
-0.000153293
-8.54041e-06
-0.00014825
-1.00842e-05
-0.000142611
-1.12783e-05
-0.000136167
-1.28822e-05
-0.00012898
-1.43761e-05
-0.000120987
-1.59776e-05
-0.000112154
-1.76664e-05
-0.000102473
-1.93512e-05
-9.19204e-05
-2.10941e-05
-8.04297e-05
-2.29814e-05
-6.82032e-05
-2.44613e-05
-5.50866e-05
-2.62216e-05
-4.1125e-05
-2.79078e-05
-2.63554e-05
-2.95357e-05
-1.08696e-05
-3.09693e-05
5.26608e-06
-3.22616e-05
2.19206e-05
-3.32968e-05
3.89456e-05
-3.40386e-05
5.6191e-05
-3.44783e-05
7.34746e-05
-3.45603e-05
9.0618e-05
-3.42756e-05
0.000107395
-3.3539e-05
0.000123532
-3.22624e-05
0.000138792
-3.05168e-05
0.000152866
-2.81453e-05
0.000165461
-2.5173e-05
0.000176345
-2.17576e-05
0.000185296
-1.79004e-05
0.000192099
-1.36063e-05
0.000196647
-9.09677e-06
0.00019884
-4.3855e-06
0.000198623
3.98354e-07
0.000195941
5.37831e-06
0.000190808
1.02552e-05
0.000183349
1.49075e-05
0.00017367
1.93365e-05
0.000161929
2.34636e-05
0.000148371
2.70942e-05
0.00013323
3.02415e-05
0.000116779
3.29062e-05
9.93478e-05
3.48433e-05
8.11945e-05
3.62901e-05
6.26602e-05
3.70397e-05
4.39919e-05
3.73304e-05
2.54178e-05
3.71287e-05
7.17155e-06
3.65062e-05
-1.065e-05
3.56059e-05
-2.77814e-05
3.426e-05
-4.42202e-05
3.28637e-05
-5.96842e-05
3.09198e-05
-7.43001e-05
2.92367e-05
-8.78432e-05
2.71228e-05
-0.000100481
2.52406e-05
-0.000112038
2.31184e-05
-0.000122607
2.11776e-05
-0.000132289
1.93271e-05
-0.000141029
1.74826e-05
-0.000148867
1.5677e-05
-0.000155841
1.39579e-05
-0.00016205
1.24203e-05
-0.000167438
1.07783e-05
-0.000172053
9.23487e-06
-0.00017591
7.72388e-06
-0.000179009
6.20043e-06
-0.000181469
4.92181e-06
-0.00018319
3.44686e-06
-0.000184219
2.07525e-06
-0.000184607
7.81665e-07
-0.000184326
-5.63733e-07
-0.000183384
-1.88396e-06
-0.000181804
-3.1566e-06
-0.00017961
-4.38251e-06
-0.000176798
-5.61968e-06
-0.000173347
-6.90705e-06
-0.000169292
-8.10111e-06
-0.000164547
-9.49141e-06
-0.000159091
-1.08886e-05
-0.000153022
-1.21553e-05
-0.000146183
-1.36762e-05
-0.000138609
-1.51421e-05
-0.000130295
-1.66278e-05
-0.000121255
-1.80831e-05
-0.00011147
-1.956e-05
-0.000100984
-2.09698e-05
-8.96843e-05
-2.26006e-05
-7.77693e-05
-2.38355e-05
-6.50543e-05
-2.54229e-05
-5.16074e-05
-2.68878e-05
-3.74916e-05
-2.82366e-05
-2.27337e-05
-2.95126e-05
-7.4337e-06
-3.05913e-05
8.27925e-06
-3.14234e-05
2.42767e-05
-3.19783e-05
4.03924e-05
-3.22169e-05
5.64614e-05
-3.21302e-05
7.22916e-05
-3.16476e-05
8.76808e-05
-3.07586e-05
0.000102392
-2.94116e-05
0.000116146
-2.74798e-05
0.000128728
-2.51435e-05
0.000139876
-2.22861e-05
0.000149378
-1.89951e-05
0.000157011
-1.5255e-05
0.000162547
-1.10583e-05
0.000165912
-6.7254e-06
0.000167035
-2.23989e-06
0.000165861
2.33884e-06
0.000162475
6.77194e-06
0.000156903
1.1145e-05
0.000149296
1.51998e-05
0.000139924
1.87348e-05
0.000129028
2.17811e-05
0.000116724
2.45982e-05
0.000103505
2.64239e-05
8.94504e-05
2.81032e-05
7.50079e-05
2.88656e-05
6.00675e-05
2.98789e-05
4.51087e-05
2.99108e-05
3.00387e-05
3.01324e-05
1.50137e-05
3.00461e-05
2.28875e-07
2.95635e-05
-1.43345e-05
2.91181e-05
-2.84748e-05
2.82751e-05
-4.21173e-05
2.72787e-05
-5.51702e-05
2.61005e-05
-6.74921e-05
2.46408e-05
-7.91029e-05
2.32162e-05
-8.98641e-05
2.15185e-05
-9.9786e-05
1.98431e-05
-0.00010889
1.82084e-05
-0.000117116
1.6448e-05
-0.000124506
1.47789e-05
-0.000131121
1.32298e-05
-0.000136942
1.16445e-05
-0.000142045
1.02043e-05
-0.000146487
8.88257e-06
-0.000150288
7.5989e-06
-0.000153541
6.50277e-06
-0.000156255
5.429e-06
-0.00015847
4.44126e-06
-0.000160224
3.50952e-06
-0.000161526
2.60599e-06
-0.00016238
1.70356e-06
-0.000162782
8.09102e-07
-0.000162671
-2.24606e-07
-0.000162046
-1.25121e-06
-0.000160874
-2.34563e-06
-0.000159021
-3.70846e-06
-0.000156496
-5.05357e-06
-0.000153242
-6.51136e-06
-0.000149023
-8.44195e-06
-0.000144
-1.00478e-05
-0.000137804
-1.23901e-05
-0.000130622
-1.43658e-05
-0.00012247
-1.63036e-05
-0.00011312
-1.86997e-05
-0.000102686
-2.08639e-05
-9.12387e-05
-2.28934e-05
-7.86102e-05
-2.52498e-05
-6.50413e-05
-2.71397e-05
-5.03736e-05
-2.9334e-05
-3.48639e-05
-3.10043e-05
-1.88142e-05
-3.20911e-05
-2.1372e-06
-3.33448e-05
1.49608e-05
-3.41905e-05
3.22354e-05
-3.45444e-05
4.96534e-05
-3.48229e-05
6.69349e-05
-3.45474e-05
8.37772e-05
-3.36766e-05
0.000100103
-3.26458e-05
0.000115597
-3.09733e-05
0.000130079
-2.89443e-05
0.000143369
-2.65756e-05
0.000155271
-2.38018e-05
0.000165621
-2.06926e-05
0.000174289
-1.73312e-05
0.000181143
-1.37017e-05
0.000186108
-9.92674e-06
0.000189128
-6.03893e-06
0.000190191
-2.12146e-06
0.00018919
1.99209e-06
0.000186132
6.11144e-06
0.000181194
9.87442e-06
0.000174453
1.34759e-05
0.000165936
1.70259e-05
0.000155921
2.00224e-05
0.000144417
2.29987e-05
0.000131749
2.5326e-05
0.000117922
2.76461e-05
0.000103061
2.97121e-05
8.7553e-05
3.10077e-05
7.13801e-05
3.23373e-05
3.32921e-05
-0.000152806
1.16172e-05
-0.000155971
9.49067e-06
-0.00015852
7.64081e-06
-0.000160457
5.80403e-06
-0.000161789
3.98094e-06
-0.000162517
2.19658e-06
-0.000162638
3.78024e-07
-0.000162099
-1.61443e-06
-0.000160991
-3.32436e-06
-0.000159168
-5.47649e-06
-0.000156675
-7.49063e-06
-0.000153554
-9.36076e-06
-0.000149537
-1.20495e-05
-0.000144811
-1.41991e-05
-0.000139249
-1.66813e-05
-0.000132827
-1.92714e-05
-0.000125701
-2.13942e-05
-0.000117644
-2.41777e-05
-0.000108576
-2.71789e-05
-9.86336e-05
-2.98377e-05
-8.76465e-05
-3.29605e-05
-7.56367e-05
-3.60379e-05
-6.28021e-05
-3.85284e-05
-4.8934e-05
-4.15837e-05
-3.40717e-05
-4.45512e-05
-1.83184e-05
-4.72436e-05
-1.74683e-06
-4.969e-05
1.53659e-05
-5.13052e-05
3.30993e-05
-5.31578e-05
5.13044e-05
-5.45765e-05
6.96337e-05
-5.49606e-05
8.81067e-05
-5.53725e-05
0.000106358
-5.47124e-05
0.000124257
-5.36525e-05
0.000141577
-5.19083e-05
0.000157951
-4.9078e-05
0.000173229
-4.57879e-05
0.000187185
-4.18195e-05
0.000199557
-3.70727e-05
0.000210196
-3.18839e-05
0.000218892
-2.60568e-05
0.000225558
-1.99787e-05
0.000230086
-1.35721e-05
0.000232364
-6.82624e-06
0.000232363
-1.90559e-08
0.000230109
6.7231e-06
0.000225514
1.3798e-05
0.000218892
1.98326e-05
0.000210346
2.56214e-05
0.000199818
3.15521e-05
0.000187738
3.61805e-05
0.000174183
4.06342e-05
0.000159397
4.43133e-05
0.000143582
4.74042e-05
0.000126908
4.99765e-05
0.000109729
5.14831e-05
9.21855e-05
5.25804e-05
7.45193e-05
5.29863e-05
5.67884e-05
5.31515e-05
3.92452e-05
5.26033e-05
2.20268e-05
5.16666e-05
5.24731e-06
5.02772e-05
-1.08548e-05
4.82751e-05
-2.6329e-05
4.63874e-05
-4.11346e-05
4.43948e-05
-5.51105e-05
4.19143e-05
-6.82418e-05
3.93835e-05
-8.05332e-05
3.68564e-05
-9.19032e-05
3.41099e-05
-0.000102446
3.16315e-05
-0.000112046
2.88391e-05
-0.000120806
2.62119e-05
-0.000128764
2.3895e-05
-0.000135839
2.12207e-05
-0.000142049
1.86352e-05
-0.000147473
1.62592e-05
-0.000152
1.35949e-05
-0.000155784
1.13416e-05
-0.000158776
8.97828e-06
-0.000160912
6.4115e-06
-0.0001623
4.16547e-06
-0.000162962
1.98887e-06
-0.0001628
-4.7745e-07
-0.00016188
-2.74967e-06
-0.000160159
-5.15828e-06
-0.000157614
-7.62052e-06
-0.000154286
-9.98771e-06
-0.000150061
-1.26707e-05
-0.000145071
-1.49573e-05
-0.000139226
-1.75565e-05
-0.000132598
-1.98641e-05
-0.000125198
-2.21995e-05
-0.000117089
-2.43206e-05
-0.00010833
-2.62815e-05
-9.88961e-05
-2.83223e-05
-8.87777e-05
-3.03733e-05
-7.79921e-05
-3.23938e-05
-6.64734e-05
-3.45918e-05
-5.42043e-05
-3.68345e-05
-4.11502e-05
-3.91866e-05
-2.74659e-05
-4.10942e-05
-1.29973e-05
-4.33847e-05
2.16774e-06
-4.54899e-05
1.79524e-05
-4.73212e-05
3.42661e-05
-4.89388e-05
5.09919e-05
-5.01436e-05
6.80093e-05
-5.10325e-05
8.51375e-05
-5.13552e-05
0.00010223
-5.12295e-05
0.0001191
-5.05581e-05
0.000135549
-4.92931e-05
0.000151371
-4.74362e-05
0.000166345
-4.48509e-05
0.000180219
-4.15771e-05
0.000192774
-3.76225e-05
0.000203781
-3.29756e-05
0.000213027
-2.77094e-05
0.000220337
-2.18975e-05
0.000225522
-1.55199e-05
0.000228429
-8.71849e-06
0.000229006
-1.75344e-06
0.000227182
5.40381e-06
0.00022294
1.27043e-05
0.000216371
1.97241e-05
0.000207514
2.64917e-05
0.000196593
3.27143e-05
0.000183764
3.83706e-05
0.000169228
4.35821e-05
0.00015329
4.77539e-05
0.000136183
5.13419e-05
0.000118086
5.41276e-05
9.93934e-05
5.59431e-05
8.0288e-05
5.72412e-05
6.10727e-05
5.76916e-05
4.19232e-05
5.74357e-05
2.30395e-05
5.65823e-05
4.6669e-06
5.50293e-05
-1.30748e-05
5.31762e-05
-2.9977e-05
5.06471e-05
-4.60035e-05
4.80726e-05
-6.10243e-05
4.5016e-05
-7.49944e-05
4.19316e-05
-8.78984e-05
3.86498e-05
-9.97706e-05
3.56913e-05
-0.000110525
3.22623e-05
-0.000120231
2.91887e-05
-0.000129001
2.62749e-05
-0.000136747
2.32332e-05
-0.000143553
2.04597e-05
-0.000149512
1.77458e-05
-0.000154593
1.53391e-05
-0.000158884
1.28879e-05
-0.000162446
1.07107e-05
-0.000165286
8.52935e-06
-0.000167409
6.39591e-06
-0.000168851
4.39898e-06
-0.000169692
2.47871e-06
-0.000169871
5.62767e-07
-0.000169381
-1.364e-06
-0.000168357
-3.14183e-06
-0.000166683
-5.02673e-06
-0.000164393
-6.88882e-06
-0.000161431
-8.87481e-06
-0.000157827
-1.08959e-05
-0.000153533
-1.2834e-05
-0.00014849
-1.51276e-05
-0.000142846
-1.69221e-05
-0.000136386
-1.93424e-05
-0.000129215
-2.15466e-05
-0.000121222
-2.39713e-05
-0.000112389
-2.64996e-05
-0.000102713
-2.90269e-05
-9.21328e-05
-3.16744e-05
-8.07417e-05
-3.43726e-05
-6.8442e-05
-3.67612e-05
-5.53132e-05
-3.93504e-05
-4.13454e-05
-4.18757e-05
-2.65692e-05
-4.4312e-05
-1.10722e-05
-4.64664e-05
5.07427e-06
-4.84082e-05
2.17411e-05
-4.99637e-05
3.87803e-05
-5.1078e-05
5.60556e-05
-5.17537e-05
7.33503e-05
-5.18552e-05
9.05157e-05
-5.14411e-05
0.000107315
-5.03383e-05
0.000123467
-4.84151e-05
0.000138748
-4.57979e-05
0.000152848
-4.22454e-05
0.000165477
-3.78014e-05
0.000176373
-3.26543e-05
0.000185343
-2.68701e-05
0.000192162
-2.04257e-05
0.000196715
-1.36498e-05
0.000198914
-6.58519e-06
0.000198669
6.43382e-07
0.000195973
8.07459e-06
0.000190842
1.53864e-05
0.000183376
2.23733e-05
0.000173677
2.90347e-05
0.000161919
3.52217e-05
0.000148333
4.06801e-05
0.000133155
4.54194e-05
0.000116692
4.93691e-05
9.92324e-05
5.2303e-05
8.10538e-05
5.44686e-05
6.24939e-05
5.55996e-05
4.38431e-05
5.59811e-05
2.52201e-05
5.57517e-05
6.9621e-06
5.47641e-05
-1.08794e-05
5.34473e-05
-2.80495e-05
5.14301e-05
-4.44742e-05
4.92883e-05
-5.99829e-05
4.64285e-05
-7.45677e-05
4.38214e-05
-8.81103e-05
4.06654e-05
-0.000100745
3.78754e-05
-0.000112298
3.46712e-05
-0.000122861
3.1741e-05
-0.000132553
2.90183e-05
-0.000141282
2.62122e-05
-0.000149116
2.35104e-05
-0.000156114
2.09561e-05
-0.000162287
1.8593e-05
-0.000167675
1.61663e-05
-0.00017228
1.38406e-05
-0.000176124
1.15677e-05
-0.000179275
9.35148e-06
-0.000181695
7.34184e-06
-0.000183427
5.17804e-06
-0.00018445
3.0987e-06
-0.000184833
1.16486e-06
-0.000184539
-8.58417e-07
-0.000183612
-2.81089e-06
-0.00018203
-4.7387e-06
-0.000179833
-6.57892e-06
-0.000177008
-8.44466e-06
-0.00017359
-1.03254e-05
-0.000169522
-1.21691e-05
-0.000164774
-1.42392e-05
-0.000159319
-1.63441e-05
-0.000153248
-1.82263e-05
-0.00014641
-2.05136e-05
-0.000138846
-2.27063e-05
-0.000130532
-2.49426e-05
-0.00012149
-2.7125e-05
-0.0001117
-2.93503e-05
-0.000101218
-3.14518e-05
-8.99502e-05
-3.3868e-05
-7.80076e-05
-3.57783e-05
-6.52917e-05
-3.81389e-05
-5.18385e-05
-4.03411e-05
-3.77137e-05
-4.23614e-05
-2.29421e-05
-4.42842e-05
-7.62132e-06
-4.59122e-05
8.10315e-06
-4.71479e-05
2.41217e-05
-4.79969e-05
4.02582e-05
-4.83536e-05
5.63585e-05
-4.82306e-05
7.22177e-05
-4.7507e-05
8.76352e-05
-4.61762e-05
0.000102376
-4.41521e-05
0.000116165
-4.1269e-05
0.000128773
-3.77517e-05
0.000139949
-3.34619e-05
0.000149479
-2.85252e-05
0.000157133
-2.29099e-05
0.000162693
-1.66177e-05
0.000166058
-1.00907e-05
0.000167188
-3.37038e-06
0.000166008
3.5185e-06
0.000162623
1.01567e-05
0.000157049
1.67189e-05
0.000149426
2.28235e-05
0.000140034
2.81265e-05
0.000129117
3.26983e-05
0.000116801
3.69136e-05
0.000103555
3.96696e-05
8.94952e-05
4.21633e-05
7.50069e-05
4.33538e-05
6.00704e-05
4.48153e-05
4.51039e-05
4.48773e-05
3.00179e-05
4.52184e-05
1.49918e-05
4.50722e-05
1.99101e-07
4.43562e-05
-1.43731e-05
4.36903e-05
-2.85213e-05
4.24233e-05
-4.21696e-05
4.09271e-05
-5.52255e-05
3.91563e-05
-6.75515e-05
3.69666e-05
-7.91683e-05
3.4833e-05
-8.99313e-05
3.22815e-05
-9.98529e-05
2.97647e-05
-0.000108958
2.73137e-05
-0.000117184
2.46737e-05
-0.000124575
2.21698e-05
-0.000131188
1.98435e-05
-0.000137008
1.74637e-05
-0.000142115
1.53114e-05
-0.000146556
1.33241e-05
-0.000150355
1.13979e-05
-0.000153604
9.75162e-06
-0.000156324
8.14874e-06
-0.000158523
6.64005e-06
-0.000160275
5.26165e-06
-0.000161579
3.91058e-06
-0.000162441
2.56501e-06
-0.00016283
1.19796e-06
-0.000162715
-3.39734e-07
-0.000162089
-1.87656e-06
-0.000160923
-3.51191e-06
-0.000159076
-5.55581e-06
-0.000156556
-7.57311e-06
-0.000153311
-9.75692e-06
-0.0001491
-1.26528e-05
-0.000144083
-1.50644e-05
-0.000137884
-1.85896e-05
-0.000130704
-2.15453e-05
-0.000122555
-2.44533e-05
-0.000113204
-2.80505e-05
-0.000102769
-3.12989e-05
-9.13185e-05
-3.43438e-05
-7.86851e-05
-3.78833e-05
-6.51211e-05
-4.07038e-05
-5.04414e-05
-4.40137e-05
-3.49197e-05
-4.6526e-05
-1.88576e-05
-4.81532e-05
-2.16577e-06
-5.00367e-05
1.49509e-05
-5.13072e-05
3.22446e-05
-5.18382e-05
4.9684e-05
-5.22624e-05
6.69788e-05
-5.18423e-05
8.38373e-05
-5.05351e-05
0.000100185
-4.89935e-05
0.000115698
-4.64864e-05
0.000130195
-4.34411e-05
0.000143502
-3.98831e-05
0.00015542
-3.57193e-05
0.000165782
-3.10547e-05
0.000174461
-2.60107e-05
0.000181325
-2.0566e-05
0.000186296
-1.48978e-05
0.000189316
-9.05877e-06
0.000190378
-3.18304e-06
0.000189348
3.02129e-06
0.000186278
9.1816e-06
0.000181335
1.48179e-05
0.000174585
2.02257e-05
0.000166059
2.55512e-05
0.000156032
3.00494e-05
0.000144516
3.4515e-05
0.000131836
3.80062e-05
0.000117995
4.1487e-05
0.00010312
4.45867e-05
8.75979e-05
4.653e-05
7.14101e-05
4.8525e-05
4.99575e-05
-0.000152887
1.54938e-05
-0.000156057
1.26611e-05
-0.00015861
1.01936e-05
-0.000160552
7.74591e-06
-0.000161889
5.31856e-06
-0.000162609
2.91643e-06
-0.000162719
4.88141e-07
-0.000162176
-2.1576e-06
-0.000161069
-4.4313e-06
-0.000159249
-7.29633e-06
-0.000156766
-9.97389e-06
-0.000153636
-1.24909e-05
-0.000149621
-1.60643e-05
-0.000144914
-1.89065e-05
-0.000139346
-2.22494e-05
-0.000132927
-2.56905e-05
-0.000125815
-2.85062e-05
-0.000117755
-3.22376e-05
-0.000108682
-3.62524e-05
-9.87392e-05
-3.97801e-05
-8.77524e-05
-4.39474e-05
-7.57497e-05
-4.80407e-05
-6.2944e-05
-5.13343e-05
-4.90349e-05
-5.54929e-05
-3.41659e-05
-5.94202e-05
-1.84031e-05
-6.30065e-05
-1.81464e-06
-6.62786e-05
1.53175e-05
-6.84374e-05
3.30746e-05
-7.0915e-05
5.13014e-05
-7.28035e-05
6.96519e-05
-7.33112e-05
8.81478e-05
-7.38685e-05
0.000106423
-7.29881e-05
0.00012435
-7.15792e-05
0.000141699
-6.92578e-05
0.000158099
-6.54772e-05
0.000173404
-6.10939e-05
0.000187385
-5.58002e-05
0.000199778
-4.94654e-05
0.000210436
-4.25429e-05
0.000219154
-3.47745e-05
0.000225831
-2.6656e-05
0.000230369
-1.81101e-05
0.000232644
-9.10068e-06
0.000232626
-1.36039e-09
0.000230354
8.99506e-06
0.000225771
1.83808e-05
0.000219122
2.64812e-05
0.000210565
3.41784e-05
0.000200023
4.20943e-05
0.000187904
4.82996e-05
0.000174331
5.42065e-05
0.000159519
5.91255e-05
0.000143678
6.32448e-05
0.000126981
6.66741e-05
0.000109769
6.8695e-05
9.21963e-05
7.01529e-05
7.45021e-05
7.06804e-05
5.67692e-05
7.08844e-05
3.92114e-05
7.0161e-05
2.20134e-05
6.88646e-05
5.19262e-06
6.70979e-05
-1.09298e-05
6.43975e-05
-2.64224e-05
6.188e-05
-4.12397e-05
5.92121e-05
-5.52236e-05
5.58982e-05
-6.83539e-05
5.25138e-05
-8.06547e-05
4.91572e-05
-9.20205e-05
4.54757e-05
-0.000102566
4.21772e-05
-0.000112167
3.84402e-05
-0.000120932
3.4977e-05
-0.000128882
3.18445e-05
-0.000135963
2.83017e-05
-0.000142169
2.48413e-05
-0.000147601
2.1691e-05
-0.000152119
1.81132e-05
-0.000155906
1.51288e-05
-0.000158899
1.19706e-05
-0.000161029
8.54227e-06
-0.000162423
5.55917e-06
-0.000163084
2.64983e-06
-0.000162913
-6.48775e-07
-0.000161987
-3.67538e-06
-0.00016027
-6.87546e-06
-0.000157724
-1.01667e-05
-0.000154405
-1.33063e-05
-0.000150177
-1.68988e-05
-0.000145188
-1.99464e-05
-0.000139357
-2.33876e-05
-0.000132721
-2.65004e-05
-0.000125333
-2.95875e-05
-0.000117239
-3.24144e-05
-0.000108486
-3.50342e-05
-9.90683e-05
-3.77405e-05
-8.89652e-05
-4.04764e-05
-7.81982e-05
-4.3161e-05
-6.66994e-05
-4.60906e-05
-5.44448e-05
-4.90893e-05
-4.14623e-05
-5.21691e-05
-2.77292e-05
-5.48275e-05
-1.32677e-05