/*--------------------------------*- C++ -*----------------------------------*\
| =========                 |                                                 |
| \\      /  F ield         | OpenFOAM: The Open Source CFD Toolbox           |
|  \\    /   O peration     | Version:  3.0.1                                 |
|   \\  /    A nd           | Web:      www.OpenFOAM.org                      |
|    \\/     M anipulation  |                                                 |
\*---------------------------------------------------------------------------*/
FoamFile
{
    version     2.0;
    format      ascii;
    class       volVectorField;
    location    "6.8";
    object      U;
}
// * * * * * * * * * * * * * * * * * * * * * * * * * * * * * * * * * * * * * //

dimensions      [0 1 -1 0 0 0 0];

internalField   nonuniform List<vector> 
21420
(
(0.196709 -0.00113316 0)
(0.20527 -0.000939602 0)
(0.213606 -0.000712961 0)
(0.219631 -0.000473308 0)
(0.223204 -0.000222784 0)
(0.224198 3.04485e-05 0)
(0.222712 0.00027629 0)
(0.218564 0.000528809 0)
(0.212 0.000772238 0)
(0.203118 0.000986895 0)
(0.192086 0.00119541 0)
(0.179108 0.00138586 0)
(0.164425 0.00152673 0)
(0.1483 0.00166673 0)
(0.131004 0.00175112 0)
(0.11282 0.00183683 0)
(0.0940215 0.00189655 0)
(0.0748951 0.00190046 0)
(0.0557464 0.00190681 0)
(0.0369506 0.00188858 0)
(0.0193081 0.0018268 0)
(0.00132491 0.00176729 0)
(-0.0168751 0.00168211 0)
(-0.0334352 0.00156696 0)
(-0.0487593 0.00145467 0)
(-0.0627969 0.00132008 0)
(-0.0754821 0.00118796 0)
(-0.0867612 0.0010478 0)
(-0.0965823 0.000898589 0)
(-0.104909 0.000752321 0)
(-0.111711 0.000605318 0)
(-0.116961 0.000457592 0)
(-0.120662 0.000307993 0)
(-0.122784 0.000165011 0)
(-0.123409 2.85476e-05 0)
(-0.122461 -9.74011e-05 0)
(-0.12022 -0.000216422 0)
(-0.116819 -0.000324801 0)
(-0.112447 -0.000421271 0)
(-0.107288 -0.000507232 0)
(-0.101505 -0.000576418 0)
(-0.0952415 -0.000636195 0)
(-0.0886464 -0.000677152 0)
(-0.0818774 -0.000705509 0)
(-0.075024 -0.000726294 0)
(-0.0682 -0.000729182 0)
(-0.0615331 -0.00072244 0)
(-0.0550603 -0.000711338 0)
(-0.04882 -0.000687913 0)
(-0.0428837 -0.000658882 0)
(-0.0371745 -0.000629776 0)
(-0.0316567 -0.000595232 0)
(-0.0263432 -0.000562697 0)
(-0.0212439 -0.000528691 0)
(-0.0163977 -0.000496248 0)
(-0.0118832 -0.000468122 0)
(-0.00782948 -0.000445176 0)
(-0.00398417 -0.000428892 0)
(0.000992217 -0.000396808 0)
(0.00602407 -0.000376066 0)
(0.00967614 -0.00036166 0)
(0.0128999 -0.000351253 0)
(0.0161596 -0.000342455 0)
(0.0194786 -0.00033564 0)
(0.0228045 -0.000326506 0)
(0.0260733 -0.000317243 0)
(0.0292791 -0.000305283 0)
(0.0323801 -0.000291579 0)
(0.0353365 -0.000273055 0)
(0.0381222 -0.000253144 0)
(0.0406674 -0.000226863 0)
(0.0429841 -0.000201866 0)
(0.0450157 -0.000169625 0)
(0.0467817 -0.000139828 0)
(0.0482556 -0.000103865 0)
(0.0495039 -7.2863e-05 0)
(0.0504477 -3.60361e-05 0)
(0.051088 -4.58637e-06 0)
(0.0512808 3.11092e-05 0)
(0.0510206 6.37211e-05 0)
(0.0503496 9.5977e-05 0)
(0.0492373 0.000125633 0)
(0.0478153 0.000153712 0)
(0.0460499 0.000179353 0)
(0.0439996 0.000204683 0)
(0.0417205 0.000226873 0)
(0.0391955 0.000251025 0)
(0.0365002 0.00027401 0)
(0.0335197 0.000296471 0)
(0.0303178 0.00032055 0)
(0.0269488 0.0003468 0)
(0.0232996 0.00037164 0)
(0.0194001 0.000398086 0)
(0.0152887 0.000420712 0)
(0.0108905 0.000442246 0)
(0.00637328 0.000459936 0)
(0.00170518 0.000473034 0)
(-0.00322266 0.000481083 0)
(-0.0081972 0.000482551 0)
(-0.0130413 0.000478205 0)
(-0.0177923 0.000467728 0)
(-0.0224583 0.000453081 0)
(-0.0268717 0.00042989 0)
(-0.0310861 0.000404403 0)
(-0.0349877 0.000371616 0)
(-0.0385489 0.000336583 0)
(-0.0417294 0.000296568 0)
(-0.0444828 0.00025378 0)
(-0.0468222 0.000208948 0)
(-0.0486742 0.000162401 0)
(-0.0500621 0.000116791 0)
(-0.0509537 6.80698e-05 0)
(-0.051414 1.9806e-05 0)
(-0.0513768 -2.79081e-05 0)
(-0.0508617 -7.45696e-05 0)
(-0.0498841 -0.000120602 0)
(-0.0484431 -0.000163903 0)
(-0.0465981 -0.000206389 0)
(-0.0443495 -0.000244553 0)
(-0.0417002 -0.00027987 0)
(-0.0387015 -0.000313378 0)
(-0.0353806 -0.00034306 0)
(-0.0317977 -0.00036908 0)
(-0.0279804 -0.000390755 0)
(-0.0239276 -0.000409431 0)
(-0.0197296 -0.000423713 0)
(-0.0154227 -0.000433995 0)
(-0.0109995 -0.000440404 0)
(-0.00653617 -0.000444451 0)
(-0.0020693 -0.000442799 0)
(0.00239123 -0.00044 0)
(0.00678047 -0.000432496 0)
(0.0110766 -0.000421266 0)
(0.0152582 -0.000407542 0)
(0.019295 -0.000391123 0)
(0.0231453 -0.000372439 0)
(0.0267835 -0.000350456 0)
(0.0302038 -0.000326837 0)
(0.0333842 -0.000300898 0)
(0.0362897 -0.00027345 0)
(0.0389087 -0.000245505 0)
(0.0412249 -0.000215375 0)
(0.0432451 -0.000185127 0)
(0.0449562 -0.00015406 0)
(0.0463539 -0.000123555 0)
(0.0474467 -9.21017e-05 0)
(0.0482183 -6.25062e-05 0)
(0.0486967 -3.26919e-05 0)
(0.0488809 -5.08357e-06 0)
(0.0487873 2.28911e-05 0)
(0.0484296 4.85227e-05 0)
(0.0478239 7.1801e-05 0)
(0.0469913 9.40742e-05 0)
(0.045936 0.00011398 0)
(0.0446951 0.000131998 0)
(0.0432921 0.000147948 0)
(0.0417272 0.000161633 0)
(0.0400404 0.000172756 0)
(0.0382533 0.000182441 0)
(0.0363756 0.000189798 0)
(0.0344346 0.000194395 0)
(0.0324556 0.000198615 0)
(0.0304457 0.000200101 0)
(0.0284295 0.000199667 0)
(0.0264233 0.000198365 0)
(0.024438 0.000195042 0)
(0.0224933 0.000190879 0)
(0.0205906 0.000185796 0)
(0.0187493 0.000179312 0)
(0.0169766 0.00017258 0)
(0.0152748 0.000165025 0)
(0.0136528 0.000156839 0)
(0.0121084 0.000148149 0)
(0.0106565 0.000140034 0)
(0.00929563 0.00013098 0)
(0.00801497 0.00012169 0)
(0.00683129 0.000113411 0)
(0.00573858 0.000104351 0)
(0.00472905 9.56455e-05 0)
(0.00380471 8.68334e-05 0)
(0.00296854 7.90731e-05 0)
(0.00221548 7.10892e-05 0)
(0.00153649 6.3075e-05 0)
(0.000934935 5.62812e-05 0)
(0.000405304 4.88131e-05 0)
(-5.56506e-05 4.29382e-05 0)
(-0.000451474 3.65969e-05 0)
(-0.000790953 3.08939e-05 0)
(-0.00107591 2.55229e-05 0)
(-0.00130827 2.07076e-05 0)
(-0.00149427 1.61582e-05 0)
(-0.00163592 1.21778e-05 0)
(-0.00173943 8.34768e-06 0)
(-0.00180729 5.06955e-06 0)
(-0.00184371 2.21781e-06 0)
(-0.00185195 -4.0496e-07 0)
(-0.00183587 -2.75441e-06 0)
(-0.00179972 -4.65837e-06 0)
(-0.00174392 -6.32698e-06 0)
(-0.00167289 -7.70809e-06 0)
(-0.00158816 -8.8736e-06 0)
(-0.00149409 -9.84641e-06 0)
(-0.00139209 -1.05691e-05 0)
(-0.00128264 -1.10501e-05 0)
(-0.00116892 -1.14835e-05 0)
(-0.00105294 -1.16087e-05 0)
(-0.00093481 -1.16749e-05 0)
(-0.000816991 -1.17163e-05 0)
(-0.000700664 -1.1488e-05 0)
(-0.000585685 -1.12912e-05 0)
(-0.000473816 -1.09247e-05 0)
(-0.000365178 -1.05938e-05 0)
(-0.000261042 -1.00989e-05 0)
(-0.000161758 -9.62678e-06 0)
(-6.74252e-05 -9.10727e-06 0)
(2.14196e-05 -8.58554e-06 0)
(0.000104865 -8.02904e-06 0)
(0.000182901 -7.45947e-06 0)
(0.000255248 -6.89201e-06 0)
(0.000321867 -6.32015e-06 0)
(0.00038278 -5.75923e-06 0)
(0.000438059 -5.20673e-06 0)
(0.000487848 -4.6651e-06 0)
(0.000532281 -4.14383e-06 0)
(0.000571529 -3.63816e-06 0)
(0.000605792 -3.15488e-06 0)
(0.000635291 -2.69176e-06 0)
(0.000660246 -2.25361e-06 0)
(0.000680883 -1.83893e-06 0)
(0.00069746 -1.44774e-06 0)
(0.000710218 -1.08172e-06 0)
(0.000719406 -7.40038e-07 0)
(0.000725277 -4.22547e-07 0)
(0.000728076 -1.30918e-07 0)
(0.00072804 1.38073e-07 0)
(0.000725404 3.84235e-07 0)
(0.000720397 6.08483e-07 0)
(0.000713234 8.11702e-07 0)
(0.000704124 9.94733e-07 0)
(0.000693266 1.1583e-06 0)
(0.000680853 1.30319e-06 0)
(0.00066707 1.43014e-06 0)
(0.000652092 1.54002e-06 0)
(0.000636089 1.63369e-06 0)
(0.000619218 1.71209e-06 0)
(0.000601628 1.77616e-06 0)
(0.00058346 1.82691e-06 0)
(0.000564842 1.86525e-06 0)
(0.000545896 1.89219e-06 0)
(0.00052673 1.90863e-06 0)
(0.000507448 1.91549e-06 0)
(0.000488139 1.91364e-06 0)
(0.000468889 1.90394e-06 0)
(0.000449773 1.88717e-06 0)
(0.000430857 1.86413e-06 0)
(0.000412201 1.83552e-06 0)
(0.000393859 1.80208e-06 0)
(0.000375874 1.76444e-06 0)
(0.000358287 1.72325e-06 0)
(0.000341127 1.67906e-06 0)
(0.000324413 1.6324e-06 0)
(0.000308156 1.58372e-06 0)
(0.000292365 1.53346e-06 0)
(0.000277043 1.48201e-06 0)
(0.000262194 1.42973e-06 0)
(0.000247821 1.37695e-06 0)
(0.000233926 1.32399e-06 0)
(0.000220514 1.27112e-06 0)
(0.000207589 1.2186e-06 0)
(0.000195154 1.16664e-06 0)
(0.000183213 1.11543e-06 0)
(0.000171767 1.06514e-06 0)
(0.000160814 1.01589e-06 0)
(0.00015035 9.67795e-07 0)
(0.000140371 9.20931e-07 0)
(0.000130868 8.75355e-07 0)
(0.00012183 8.31112e-07 0)
(0.000113246 7.88222e-07 0)
(0.000105105 7.46699e-07 0)
(9.73938e-05 7.06541e-07 0)
(9.00991e-05 6.67741e-07 0)
(8.32078e-05 6.30283e-07 0)
(7.67069e-05 5.94148e-07 0)
(7.05829e-05 5.59312e-07 0)
(6.4823e-05 5.25751e-07 0)
(5.9414e-05 4.93438e-07 0)
(5.43433e-05 4.62351e-07 0)
(4.9598e-05 4.32465e-07 0)
(4.51657e-05 4.03761e-07 0)
(4.10339e-05 3.76218e-07 0)
(3.71903e-05 3.49823e-07 0)
(3.36228e-05 3.24561e-07 0)
(3.03191e-05 3.0042e-07 0)
(2.72674e-05 2.7739e-07 0)
(2.44555e-05 2.55463e-07 0)
(2.18716e-05 2.34629e-07 0)
(1.9504e-05 2.1488e-07 0)
(1.73408e-05 1.96209e-07 0)
(1.53706e-05 1.78606e-07 0)
(1.35816e-05 1.6206e-07 0)
(1.19627e-05 1.46556e-07 0)
(1.05027e-05 1.3208e-07 0)
(9.19044e-06 1.18612e-07 0)
(8.01535e-06 1.0613e-07 0)
(6.96694e-06 9.46081e-08 0)
(6.03507e-06 8.40162e-08 0)
(5.20996e-06 7.43214e-08 0)
(4.48223e-06 6.54872e-08 0)
(3.84292e-06 5.74739e-08 0)
(3.28352e-06 5.02393e-08 0)
(2.79601e-06 4.37386e-08 0)
(2.37287e-06 3.79258e-08 0)
(2.00706e-06 3.27533e-08 0)
(1.69208e-06 2.81731e-08 0)
(1.42196e-06 2.41375e-08 0)
(1.1912e-06 2.05992e-08 0)
(9.94852e-07 1.7512e-08 0)
(8.28405e-07 1.48315e-08 0)
(6.87834e-07 1.25152e-08 0)
(5.69546e-07 1.05231e-08 0)
(4.70357e-07 8.81758e-09 0)
(3.87467e-07 7.36399e-09 0)
(3.18422e-07 6.13049e-09 0)
(2.61089e-07 5.08814e-09 0)
(2.13624e-07 4.21087e-09 0)
(1.74439e-07 3.47538e-09 0)
(1.42175e-07 2.86102e-09 0)
(1.15678e-07 2.34962e-09 0)
(9.39679e-08 1.92534e-09 0)
(7.62188e-08 1.57441e-09 0)
(6.17378e-08 1.285e-09 0)
(4.99455e-08 1.04696e-09 0)
(4.03595e-08 8.5167e-10 0)
(3.25795e-08 6.91817e-10 0)
(2.62744e-08 5.61249e-10 0)
(2.11714e-08 4.54811e-10 0)
(1.70463e-08 3.68195e-10 0)
(1.37153e-08 2.97826e-10 0)
(1.10279e-08 2.4074e-10 0)
(8.8617e-09 1.94491e-10 0)
(7.11673e-09 1.57067e-10 0)
(5.71189e-09 1.26818e-10 0)
(4.58132e-09 1.02393e-10 0)
(3.67168e-09 8.26906e-11 0)
(2.9398e-09 6.68116e-11 0)
(2.35079e-09 5.40273e-11 0)
(1.87643e-09 4.37455e-11 0)
(1.49397e-09 3.54876e-11 0)
(1.18499e-09 2.88666e-11 0)
(9.34624e-10 2.35712e-11 0)
(7.30799e-10 1.9351e-11 0)
(5.63697e-10 1.6006e-11 0)
(4.25261e-10 1.33772e-11 0)
(3.08796e-10 1.13393e-11 0)
(2.08637e-10 9.79519e-12 0)
(1.19887e-10 8.67005e-12 0)
(4.34303e-11 7.90913e-12 0)
(0.196786 -0.00340041 0)
(0.205355 -0.00281961 0)
(0.213698 -0.00213955 0)
(0.219728 -0.00142041 0)
(0.223303 -0.000668278 0)
(0.224301 9.11692e-05 0)
(0.222811 0.000828086 0)
(0.218659 0.0015871 0)
(0.212093 0.00231726 0)
(0.203203 0.00296135 0)
(0.192163 0.00358703 0)
(0.179177 0.00415852 0)
(0.164483 0.00458114 0)
(0.148348 0.00500122 0)
(0.131041 0.0052544 0)
(0.112847 0.00551156 0)
(0.094038 0.00569062 0)
(0.0749014 0.00570241 0)
(0.0557429 0.00572142 0)
(0.0369386 0.00566665 0)
(0.0192888 0.00548135 0)
(0.00129663 0.00530272 0)
(-0.016911 0.00504684 0)
(-0.0334758 0.00470137 0)
(-0.0488049 0.00436443 0)
(-0.0628458 0.00396059 0)
(-0.0755342 0.00356421 0)
(-0.0868158 0.00314368 0)
(-0.0966378 0.00269596 0)
(-0.104965 0.00225709 0)
(-0.111767 0.0018158 0)
(-0.117017 0.00137226 0)
(-0.120719 0.000924219 0)
(-0.122844 0.00049475 0)
(-0.12346 8.65261e-05 0)
(-0.12251 -0.000292028 0)
(-0.120267 -0.000649401 0)
(-0.116862 -0.000974757 0)
(-0.112486 -0.00126422 0)
(-0.107323 -0.00152214 0)
(-0.101535 -0.00172971 0)
(-0.0952674 -0.00190906 0)
(-0.0886679 -0.00203194 0)
(-0.0818947 -0.00211702 0)
(-0.0750373 -0.00217938 0)
(-0.0682095 -0.00218801 0)
(-0.0615393 -0.00216774 0)
(-0.0550632 -0.00213446 0)
(-0.0488206 -0.00206432 0)
(-0.042881 -0.00197713 0)
(-0.0371699 -0.00188959 0)
(-0.0316503 -0.00178582 0)
(-0.0263362 -0.00168862 0)
(-0.0212334 -0.00158648 0)
(-0.0163864 -0.00148898 0)
(-0.0118718 -0.00140471 0)
(-0.00781843 -0.00133544 0)
(-0.00396917 -0.00128713 0)
(0.00101003 -0.00119108 0)
(0.00603962 -0.0011296 0)
(0.00969074 -0.00108605 0)
(0.0129135 -0.00105426 0)
(0.0161729 -0.00102754 0)
(0.0194923 -0.00100621 0)
(0.022817 -0.000979255 0)
(0.0260851 -0.000952052 0)
(0.0292916 -0.000914825 0)
(0.0323914 -0.000874392 0)
(0.0353482 -0.000819102 0)
(0.0381338 -0.00076003 0)
(0.0406784 -0.000680291 0)
(0.0429954 -0.000605846 0)
(0.0450266 -0.000508674 0)
(0.046793 -0.000418517 0)
(0.048266 -0.000311929 0)
(0.0495141 -0.000216817 0)
(0.0504573 -0.000107212 0)
(0.0510969 -1.31631e-05 0)
(0.0512893 9.41125e-05 0)
(0.0510284 0.000191657 0)
(0.0503552 0.000287334 0)
(0.0492423 0.000377534 0)
(0.0478198 0.000461637 0)
(0.0460526 0.000538239 0)
(0.0440003 0.000614002 0)
(0.0417206 0.000681165 0)
(0.0391949 0.000753149 0)
(0.036499 0.000822557 0)
(0.0335169 0.000890062 0)
(0.0303155 0.000959907 0)
(0.026947 0.00104197 0)
(0.023297 0.00111647 0)
(0.0193906 0.00119206 0)
(0.0152834 0.00126261 0)
(0.0108822 0.00132728 0)
(0.00636323 0.00137963 0)
(0.00169197 0.00141963 0)
(-0.00323816 0.00144431 0)
(-0.008218 0.00144665 0)
(-0.0130623 0.00143495 0)
(-0.0178161 0.00140371 0)
(-0.0224855 0.00135846 0)
(-0.0269001 0.00128982 0)
(-0.0311167 0.00121335 0)
(-0.0350199 0.0011154 0)
(-0.0385827 0.00100995 0)
(-0.0417654 0.000888725 0)
(-0.0445166 0.000761466 0)
(-0.0468578 0.000627677 0)
(-0.0487093 0.000486686 0)
(-0.0500966 0.000350345 0)
(-0.0509887 0.000204055 0)
(-0.0514471 5.84597e-05 0)
(-0.0514089 -8.38613e-05 0)
(-0.0508921 -0.00022452 0)
(-0.0499131 -0.000362167 0)
(-0.0484701 -0.000492089 0)
(-0.0466227 -0.000620256 0)
(-0.0443719 -0.00073377 0)
(-0.0417199 -0.00084078 0)
(-0.0387192 -0.000940412 0)
(-0.0353949 -0.00103012 0)
(-0.031811 -0.00110828 0)
(-0.0279881 -0.00117239 0)
(-0.0239359 -0.00122945 0)
(-0.0197313 -0.00127132 0)
(-0.015423 -0.00130227 0)
(-0.0109975 -0.00132156 0)
(-0.00653125 -0.00133414 0)
(-0.00206199 -0.00132882 0)
(0.00240077 -0.00132029 0)
(0.00679277 -0.0012981 0)
(0.0110911 -0.00126428 0)
(0.0152746 -0.00122298 0)
(0.0193132 -0.00117387 0)
(0.0231655 -0.00111761 0)
(0.0268052 -0.00105171 0)
(0.0302269 -0.000980539 0)
(0.0334081 -0.00090347 0)
(0.0363153 -0.000820251 0)
(0.0389347 -0.000736386 0)
(0.0412515 -0.000646497 0)
(0.0432722 -0.000555199 0)
(0.0449832 -0.00046243 0)
(0.0463812 -0.000370454 0)
(0.0474735 -0.000276198 0)
(0.0482446 -0.000187565 0)
(0.0487223 -9.83296e-05 0)
(0.0489064 -1.4874e-05 0)
(0.0488114 6.89375e-05 0)
(0.0484524 0.000145705 0)
(0.0478458 0.000215688 0)
(0.047012 0.000282478 0)
(0.0459554 0.000341905 0)
(0.0447131 0.000396499 0)
(0.0433087 0.000444118 0)
(0.0417422 0.00048512 0)
(0.040054 0.000518581 0)
(0.0382655 0.000547598 0)
(0.0363863 0.000569639 0)
(0.034444 0.000583516 0)
(0.0324638 0.000596032 0)
(0.0304525 0.000600524 0)
(0.0284352 0.000599235 0)
(0.0264278 0.0005953 0)
(0.0244415 0.000585338 0)
(0.0224958 0.000572824 0)
(0.0205923 0.000557534 0)
(0.0187501 0.00053813 0)
(0.0169768 0.000517886 0)
(0.0152743 0.000495212 0)
(0.0136517 0.000470637 0)
(0.012107 0.000444531 0)
(0.0106547 0.000420231 0)
(0.0092933 0.000393022 0)
(0.00801253 0.000365118 0)
(0.00682865 0.000340331 0)
(0.00573564 0.000313103 0)
(0.00472596 0.00028698 0)
(0.00380164 0.000260525 0)
(0.00296548 0.000237281 0)
(0.00221223 0.000213282 0)
(0.00153336 0.000189312 0)
(0.000931816 0.000168788 0)
(0.000402284 0.000146557 0)
(-5.85123e-05 0.000128702 0)
(-0.000454353 0.000109789 0)
(-0.000793688 9.26726e-05 0)
(-0.00107849 7.65578e-05 0)
(-0.00131072 6.21115e-05 0)
(-0.00149656 4.84587e-05 0)
(-0.00163806 3.65188e-05 0)
(-0.00174143 2.5025e-05 0)
(-0.00180909 1.51935e-05 0)
(-0.00184536 6.63041e-06 0)
(-0.00185348 -1.22973e-06 0)
(-0.00183723 -8.29076e-06 0)
(-0.00180092 -1.3994e-05 0)
(-0.00174498 -1.90018e-05 0)
(-0.00167382 -2.3144e-05 0)
(-0.00158897 -2.6637e-05 0)
(-0.00149478 -2.95628e-05 0)
(-0.00139265 -3.17262e-05 0)
(-0.0012831 -3.31693e-05 0)
(-0.00116928 -3.44647e-05 0)
(-0.00105319 -3.48452e-05 0)
(-0.000935007 -3.50336e-05 0)
(-0.000817097 -3.51702e-05 0)
(-0.00070069 -3.44789e-05 0)
(-0.000585652 -3.38835e-05 0)
(-0.000473728 -3.2786e-05 0)
(-0.000365037 -3.17886e-05 0)
(-0.000260846 -3.03083e-05 0)
(-0.000161532 -2.88897e-05 0)
(-6.71667e-05 -2.73305e-05 0)
(2.17066e-05 -2.5764e-05 0)
(0.000105181 -2.40935e-05 0)
(0.000183237 -2.23836e-05 0)
(0.000255601 -2.06807e-05 0)
(0.000322232 -1.89642e-05 0)
(0.000383155 -1.72809e-05 0)
(0.000438442 -1.56229e-05 0)
(0.000488234 -1.3998e-05 0)
(0.000532668 -1.24331e-05 0)
(0.000571916 -1.09158e-05 0)
(0.000606177 -9.46534e-06 0)
(0.000635672 -8.07541e-06 0)
(0.000660621 -6.76063e-06 0)
(0.000681251 -5.51633e-06 0)
(0.00069782 -4.34244e-06 0)
(0.000710569 -3.24419e-06 0)
(0.000719747 -2.21888e-06 0)
(0.000725608 -1.26638e-06 0)
(0.000728396 -3.91196e-07 0)
(0.000728348 4.1594e-07 0)
(0.000725701 1.15454e-06 0)
(0.000720681 1.82738e-06 0)
(0.000713507 2.43713e-06 0)
(0.000704385 2.9863e-06 0)
(0.000693515 3.47707e-06 0)
(0.00068109 3.91176e-06 0)
(0.000667295 4.29266e-06 0)
(0.000652306 4.62231e-06 0)
(0.000636291 4.90331e-06 0)
(0.000619409 5.13852e-06 0)
(0.000601808 5.33072e-06 0)
(0.000583629 5.48292e-06 0)
(0.000565001 5.59793e-06 0)
(0.000546045 5.6787e-06 0)
(0.00052687 5.72796e-06 0)
(0.000507578 5.7485e-06 0)
(0.000488261 5.74289e-06 0)
(0.000469003 5.71372e-06 0)
(0.000449878 5.66335e-06 0)
(0.000430955 5.59416e-06 0)
(0.000412292 5.50828e-06 0)
(0.000393943 5.40789e-06 0)
(0.000375952 5.2949e-06 0)
(0.000358359 5.17126e-06 0)
(0.000341193 5.03863e-06 0)
(0.000324474 4.89858e-06 0)
(0.000308212 4.75246e-06 0)
(0.000292417 4.6016e-06 0)
(0.000277091 4.44714e-06 0)
(0.000262238 4.29023e-06 0)
(0.00024786 4.13182e-06 0)
(0.000233963 3.97288e-06 0)
(0.000220548 3.81421e-06 0)
(0.000207619 3.6566e-06 0)
(0.000195182 3.50067e-06 0)
(0.000183239 3.34702e-06 0)
(0.00017179 3.19611e-06 0)
(0.000160835 3.04834e-06 0)
(0.00015037 2.90402e-06 0)
(0.000140389 2.76341e-06 0)
(0.000130884 2.62666e-06 0)
(0.000121844 2.4939e-06 0)
(0.000113259 2.36521e-06 0)
(0.000105117 2.24061e-06 0)
(9.74044e-05 2.12011e-06 0)
(9.01086e-05 2.00369e-06 0)
(8.32164e-05 1.89129e-06 0)
(7.67144e-05 1.78286e-06 0)
(7.05896e-05 1.67833e-06 0)
(6.48288e-05 1.57762e-06 0)
(5.94191e-05 1.48066e-06 0)
(5.43476e-05 1.38738e-06 0)
(4.96016e-05 1.2977e-06 0)
(4.51687e-05 1.21156e-06 0)
(4.10363e-05 1.12892e-06 0)
(3.71922e-05 1.04971e-06 0)
(3.36242e-05 9.73906e-07 0)
(3.03201e-05 9.01466e-07 0)
(2.72679e-05 8.32359e-07 0)
(2.44557e-05 7.66559e-07 0)
(2.18715e-05 7.04041e-07 0)
(1.95036e-05 6.44781e-07 0)
(1.73402e-05 5.88753e-07 0)
(1.53697e-05 5.3593e-07 0)
(1.35807e-05 4.86278e-07 0)
(1.19616e-05 4.39756e-07 0)
(1.05015e-05 3.96317e-07 0)
(9.18919e-06 3.55903e-07 0)
(8.01407e-06 3.18448e-07 0)
(6.96564e-06 2.83873e-07 0)
(6.03377e-06 2.5209e-07 0)
(5.20869e-06 2.22999e-07 0)
(4.481e-06 1.9649e-07 0)
(3.84174e-06 1.72445e-07 0)
(3.2824e-06 1.50736e-07 0)
(2.79497e-06 1.31231e-07 0)
(2.37189e-06 1.13789e-07 0)
(2.00616e-06 9.82682e-08 0)
(1.69126e-06 8.45255e-08 0)
(1.42121e-06 7.24168e-08 0)
(1.19053e-06 6.18003e-08 0)
(9.94253e-07 5.25376e-08 0)
(8.27874e-07 4.44952e-08 0)
(6.87366e-07 3.75456e-08 0)
(5.69137e-07 3.15687e-08 0)
(4.70001e-07 2.64518e-08 0)
(3.87159e-07 2.20909e-08 0)
(3.18157e-07 1.83903e-08 0)
(2.60863e-07 1.52632e-08 0)
(2.13432e-07 1.26314e-08 0)
(1.74276e-07 1.0425e-08 0)
(1.42038e-07 8.58198e-09 0)
(1.15563e-07 7.04789e-09 0)
(9.38718e-08 5.77513e-09 0)
(7.61388e-08 4.72245e-09 0)
(6.16714e-08 3.85432e-09 0)
(4.98906e-08 3.1403e-09 0)
(4.03143e-08 2.55451e-09 0)
(3.25423e-08 2.07502e-09 0)
(2.62439e-08 1.68339e-09 0)
(2.11465e-08 1.36413e-09 0)
(1.7026e-08 1.10434e-09 0)
(1.36987e-08 8.93281e-10 0)
(1.10145e-08 7.22061e-10 0)
(8.85077e-09 5.83348e-10 0)
(7.10788e-09 4.71106e-10 0)
(5.70472e-09 3.80383e-10 0)
(4.57553e-09 3.0713e-10 0)
(3.66701e-09 2.48039e-10 0)
(2.93604e-09 2.00417e-10 0)
(2.34776e-09 1.62077e-10 0)
(1.87401e-09 1.31243e-10 0)
(1.49203e-09 1.06478e-10 0)
(1.18344e-09 8.66238e-11 0)
(9.33397e-10 7.07447e-11 0)
(7.29835e-10 5.80907e-11 0)
(5.6295e-10 4.80619e-11 0)
(4.24693e-10 4.01813e-11 0)
(3.08381e-10 3.40735e-11 0)
(2.08353e-10 2.94471e-11 0)
(1.19719e-10 2.60794e-11 0)
(4.33686e-11 2.38094e-11 0)
(0.19694 -0.00567035 0)
(0.205526 -0.00470194 0)
(0.213882 -0.00356801 0)
(0.219922 -0.002369 0)
(0.223502 -0.00111535 0)
(0.224514 0.000148219 0)
(0.223001 0.00138466 0)
(0.218851 0.00264749 0)
(0.212278 0.00386423 0)
(0.203371 0.00493809 0)
(0.192316 0.00598131 0)
(0.179313 0.00693423 0)
(0.164596 0.0076386 0)
(0.148441 0.00833893 0)
(0.13111 0.00876085 0)
(0.112895 0.00918953 0)
(0.0940655 0.00948777 0)
(0.0749081 0.00950744 0)
(0.0557298 0.00953887 0)
(0.0369082 0.00944715 0)
(0.0192436 0.00913826 0)
(0.00123314 0.00884022 0)
(-0.0169896 0.0084132 0)
(-0.0335636 0.00783722 0)
(-0.0489024 0.00727553 0)
(-0.0629496 0.00660231 0)
(-0.0756444 0.00594138 0)
(-0.0869304 0.00524005 0)
(-0.0967539 0.00449365 0)
(-0.105082 0.00376171 0)
(-0.111883 0.00302543 0)
(-0.117131 0.00228588 0)
(-0.120837 0.00153958 0)
(-0.122964 0.000824468 0)
(-0.123566 0.000145318 0)
(-0.122609 -0.000486759 0)
(-0.120361 -0.0010832 0)
(-0.116947 -0.00162588 0)
(-0.112563 -0.0021085 0)
(-0.107389 -0.00253848 0)
(-0.101591 -0.00288452 0)
(-0.0953134 -0.00318351 0)
(-0.0887033 -0.00338833 0)
(-0.08192 -0.00353011 0)
(-0.0750528 -0.00363401 0)
(-0.0682156 -0.00364832 0)
(-0.0615371 -0.00361444 0)
(-0.0550528 -0.00355883 0)
(-0.0488034 -0.00344184 0)
(-0.0428581 -0.00329633 0)
(-0.0371418 -0.00315029 0)
(-0.0316189 -0.00297718 0)
(-0.0263018 -0.00281494 0)
(-0.0211977 -0.00264484 0)
(-0.0163492 -0.00248182 0)
(-0.0118361 -0.00234123 0)
(-0.00778725 -0.00222583 0)
(-0.00393265 -0.00214562 0)
(0.00104808 -0.00198402 0)
(0.00606969 -0.00188219 0)
(0.00971519 -0.00180969 0)
(0.0129326 -0.00175657 0)
(0.0161874 -0.00171237 0)
(0.0195028 -0.0016769 0)
(0.0228252 -0.00163176 0)
(0.0260906 -0.00158641 0)
(0.0292938 -0.00152494 0)
(0.0323944 -0.00145705 0)
(0.0353496 -0.00136542 0)
(0.0381377 -0.00126628 0)
(0.0406822 -0.00113421 0)
(0.0430007 -0.00100955 0)
(0.0450338 -0.000848223 0)
(0.0468007 -0.000697952 0)
(0.0482769 -0.000520078 0)
(0.0495248 -0.000361002 0)
(0.0504701 -0.000179454 0)
(0.0511124 -2.03999e-05 0)
(0.0513058 0.000156463 0)
(0.0510445 0.000319655 0)
(0.0503744 0.000479853 0)
(0.0492572 0.000627626 0)
(0.0478381 0.000770492 0)
(0.0460699 0.00089751 0)
(0.044019 0.00102427 0)
(0.0417363 0.00113477 0)
(0.0392128 0.00125492 0)
(0.0365154 0.0013714 0)
(0.0335347 0.00148398 0)
(0.0303346 0.00159837 0)
(0.0269691 0.0017385 0)
(0.0233164 0.00186256 0)
(0.019408 0.00198597 0)
(0.0153011 0.00210399 0)
(0.0108983 0.0022145 0)
(0.00637527 0.00230048 0)
(0.00169962 0.0023664 0)
(-0.00323778 0.00240579 0)
(-0.00821898 0.00241192 0)
(-0.0130684 0.00239281 0)
(-0.0178284 0.00233974 0)
(-0.0224998 0.00226509 0)
(-0.0269195 0.0021512 0)
(-0.0311406 0.00202225 0)
(-0.0350477 0.00185952 0)
(-0.0386143 0.00168274 0)
(-0.0417973 0.00148257 0)
(-0.0445513 0.00126935 0)
(-0.0468949 0.00104646 0)
(-0.0487466 0.00081081 0)
(-0.0501346 0.000584178 0)
(-0.0510302 0.000339194 0)
(-0.0514842 9.83639e-05 0)
(-0.0514474 -0.0001406 0)
(-0.0509281 -0.000374216 0)
(-0.0499491 -0.000604071 0)
(-0.0485054 -0.000821321 0)
(-0.0466534 -0.00103359 0)
(-0.044403 -0.00122466 0)
(-0.0417459 -0.00140097 0)
(-0.0387463 -0.00156871 0)
(-0.0354156 -0.00171664 0)
(-0.0318305 -0.00184801 0)
(-0.028004 -0.00195441 0)
(-0.023949 -0.00204907 0)
(-0.0197408 -0.00211964 0)
(-0.01543 -0.00217118 0)
(-0.0110023 -0.00220331 0)
(-0.00653189 -0.00222396 0)
(-0.00206035 -0.00221555 0)
(0.00240461 -0.00220067 0)
(0.00680016 -0.00216444 0)
(0.0111012 -0.00210775 0)
(0.0152865 -0.00203884 0)
(0.0193274 -0.00195623 0)
(0.0231814 -0.00186351 0)
(0.0268235 -0.00175293 0)
(0.0302463 -0.00163492 0)
(0.0334296 -0.00150542 0)
(0.0363375 -0.00136733 0)
(0.0389576 -0.0012276 0)
(0.0412757 -0.00107806 0)
(0.0432965 -0.000925145 0)
(0.045008 -0.000770912 0)
(0.0464059 -0.000617142 0)
(0.0474978 -0.000460411 0)
(0.0482683 -0.000312564 0)
(0.0487455 -0.00016339 0)
(0.0489287 -2.46171e-05 0)
(0.0488323 0.000115 0)
(0.0484717 0.000242823 0)
(0.047864 0.000360024 0)
(0.0470288 0.000471119 0)
(0.0459706 0.000569745 0)
(0.0447267 0.000661532 0)
(0.0433204 0.000740526 0)
(0.0417521 0.000808686 0)
(0.0400623 0.000864792 0)
(0.0382723 0.000912986 0)
(0.0363911 0.000949655 0)
(0.0344475 0.000973076 0)
(0.032466 0.000993478 0)
(0.0304529 0.00100108 0)
(0.0284345 0.000998986 0)
(0.026426 0.000992343 0)
(0.0244385 0.000975801 0)
(0.0224921 0.00095487 0)
(0.0205877 0.000929259 0)
(0.0187449 0.000897135 0)
(0.0169711 0.000863226 0)
(0.0152681 0.000825452 0)
(0.013645 0.000784466 0)
(0.0121004 0.00074086 0)
(0.0106479 0.000700517 0)
(0.00928599 0.000655047 0)
(0.00800556 0.000608459 0)
(0.00682177 0.000567314 0)
(0.00572857 0.000521812 0)
(0.004719 0.000478266 0)
(0.00379506 0.00043414 0)
(0.00295922 0.000395528 0)
(0.00220588 0.000355404 0)
(0.00152747 0.000315647 0)
(0.000926163 0.000281118 0)
(0.000396971 0.00024447 0)
(-6.33861e-05 0.000214185 0)
(-0.000459115 0.000182932 0)
(-0.000798087 0.000154381 0)
(-0.00108253 0.000127541 0)
(-0.00131444 0.000103464 0)
(-0.00149994 8.07083e-05 0)
(-0.00164116 6.07994e-05 0)
(-0.00174426 4.16748e-05 0)
(-0.00181152 2.52875e-05 0)
(-0.00184754 1.09876e-05 0)
(-0.00185545 -2.08166e-06 0)
(-0.00183892 -1.38781e-05 0)
(-0.00180233 -2.33597e-05 0)
(-0.00174619 -3.17082e-05 0)
(-0.00167483 -3.86089e-05 0)
(-0.00158982 -4.44163e-05 0)
(-0.00149546 -4.93117e-05 0)
(-0.00139313 -5.2904e-05 0)
(-0.00128346 -5.53118e-05 0)
(-0.0011695 -5.74531e-05 0)
(-0.00105326 -5.81041e-05 0)
(-0.000935049 -5.83968e-05 0)
(-0.000817023 -5.86438e-05 0)
(-0.000700518 -5.74835e-05 0)
(-0.000585426 -5.64768e-05 0)
(-0.000473449 -5.46542e-05 0)
(-0.000364707 -5.29811e-05 0)
(-0.000260461 -5.05256e-05 0)
(-0.000161136 -4.8157e-05 0)
(-6.67511e-05 -4.55566e-05 0)
(2.21368e-05 -4.29427e-05 0)
(0.00010563 -4.01585e-05 0)
(0.000183691 -3.73068e-05 0)
(0.000256055 -3.44687e-05 0)
(0.000322684 -3.16063e-05 0)
(0.000383599 -2.8801e-05 0)
(0.000438878 -2.6037e-05 0)
(0.000488658 -2.333e-05 0)
(0.000533078 -2.07199e-05 0)
(0.000572311 -1.81914e-05 0)
(0.000606555 -1.57728e-05 0)
(0.000636031 -1.34556e-05 0)
(0.000660961 -1.12646e-05 0)
(0.000681573 -9.19053e-06 0)
(0.000698122 -7.23406e-06 0)
(0.000710851 -5.40344e-06 0)
(0.00072001 -3.69469e-06 0)
(0.000725851 -2.10779e-06 0)
(0.00072862 -6.48571e-07 0)
(0.000728554 6.96556e-07 0)
(0.000725889 1.92747e-06 0)
(0.000720852 3.04876e-06 0)
(0.000713661 4.06491e-06 0)
(0.000704523 4.9801e-06 0)
(0.000693639 5.79796e-06 0)
(0.000681199 6.52235e-06 0)
(0.00066739 7.15707e-06 0)
(0.000652388 7.70638e-06 0)
(0.00063636 8.17459e-06 0)
(0.000619466 8.56647e-06 0)
(0.000601855 8.88668e-06 0)
(0.000583665 9.1402e-06 0)
(0.000565028 9.33176e-06 0)
(0.000546063 9.46625e-06 0)
(0.00052688 9.54822e-06 0)
(0.000507581 9.58233e-06 0)
(0.000488257 9.57286e-06 0)
(0.000468993 9.52413e-06 0)
(0.000449863 9.44007e-06 0)
(0.000430935 9.32464e-06 0)
(0.000412268 9.18142e-06 0)
(0.000393915 9.014e-06 0)
(0.000375921 8.82559e-06 0)
(0.000358326 8.61943e-06 0)
(0.000341158 8.39829e-06 0)
(0.000324436 8.16478e-06 0)
(0.000308173 7.92116e-06 0)
(0.000292377 7.66963e-06 0)
(0.00027705 7.41212e-06 0)
(0.000262197 7.15052e-06 0)
(0.00024782 6.88643e-06 0)
(0.000233923 6.62147e-06 0)
(0.000220508 6.35699e-06 0)
(0.000207581 6.09427e-06 0)
(0.000195145 5.83437e-06 0)
(0.000183202 5.57829e-06 0)
(0.000171755 5.32676e-06 0)
(0.000160801 5.0805e-06 0)
(0.000150337 4.83997e-06 0)
(0.000140358 4.60562e-06 0)
(0.000130854 4.37771e-06 0)
(0.000121816 4.15646e-06 0)
(0.000113233 3.94198e-06 0)
(0.000105092 3.73433e-06 0)
(9.73807e-05 3.5335e-06 0)
(9.00862e-05 3.33947e-06 0)
(8.31952e-05 3.15214e-06 0)
(7.66945e-05 2.97142e-06 0)
(7.05708e-05 2.79721e-06 0)
(6.48111e-05 2.62937e-06 0)
(5.94024e-05 2.46777e-06 0)
(5.43318e-05 2.3123e-06 0)
(4.95868e-05 2.16283e-06 0)
(4.51547e-05 2.01927e-06 0)
(4.10231e-05 1.88153e-06 0)
(3.71797e-05 1.74952e-06 0)
(3.36123e-05 1.62318e-06 0)
(3.03089e-05 1.50244e-06 0)
(2.72573e-05 1.38726e-06 0)
(2.44457e-05 1.27759e-06 0)
(2.1862e-05 1.17339e-06 0)
(1.94946e-05 1.07462e-06 0)
(1.73317e-05 9.81241e-07 0)
(1.53617e-05 8.93199e-07 0)
(1.35731e-05 8.10441e-07 0)
(1.19545e-05 7.32902e-07 0)
(1.04948e-05 6.605e-07 0)
(9.18294e-06 5.93141e-07 0)
(8.00824e-06 5.30713e-07 0)
(6.96022e-06 4.73085e-07 0)
(6.02876e-06 4.20111e-07 0)
(5.20406e-06 3.71625e-07 0)
(4.47675e-06 3.27443e-07 0)
(3.83786e-06 2.87368e-07 0)
(3.27887e-06 2.51187e-07 0)
(2.79177e-06 2.18678e-07 0)
(2.36901e-06 1.89609e-07 0)
(2.00357e-06 1.63743e-07 0)
(1.68896e-06 1.4084e-07 0)
(1.41917e-06 1.20661e-07 0)
(1.18873e-06 1.02969e-07 0)
(9.92672e-07 8.75333e-08 0)
(8.26494e-07 7.41316e-08 0)
(6.86167e-07 6.25515e-08 0)
(5.681e-07 5.25923e-08 0)
(4.6911e-07 4.40664e-08 0)
(3.86396e-07 3.68004e-08 0)
(3.17507e-07 3.06348e-08 0)
(2.60312e-07 2.54249e-08 0)
(2.12966e-07 2.10403e-08 0)
(1.73884e-07 1.73646e-08 0)
(1.4171e-07 1.42944e-08 0)
(1.15289e-07 1.17388e-08 0)
(9.36441e-08 9.6187e-09 0)
(7.59501e-08 7.86524e-09 0)
(6.15155e-08 6.41921e-09 0)
(4.97622e-08 5.22993e-09 0)
(4.02087e-08 4.25426e-09 0)
(3.24558e-08 3.45567e-09 0)
(2.61732e-08 2.80341e-09 0)
(2.10888e-08 2.27171e-09 0)
(1.6979e-08 1.83905e-09 0)
(1.36605e-08 1.48756e-09 0)
(1.09834e-08 1.20242e-09 0)
(8.82564e-09 9.71423e-10 0)
(7.08754e-09 7.84511e-10 0)
(5.68829e-09 6.33438e-10 0)
(4.56227e-09 5.11457e-10 0)
(3.65632e-09 4.13061e-10 0)
(2.92744e-09 3.33765e-10 0)
(2.34086e-09 2.69925e-10 0)
(1.86847e-09 2.18585e-10 0)
(1.4876e-09 1.77352e-10 0)
(1.17992e-09 1.44295e-10 0)
(9.30609e-10 1.17858e-10 0)
(7.27647e-10 9.67923e-11 0)
(5.61255e-10 8.00979e-11 0)
(4.23409e-10 6.69814e-11 0)
(3.07444e-10 5.68175e-11 0)
(2.07716e-10 4.91212e-11 0)
(1.19349e-10 4.35238e-11 0)
(4.32359e-11 3.97609e-11 0)
(0.197172 -0.00794479 0)
(0.205783 -0.00658804 0)
(0.214157 -0.00499957 0)
(0.220213 -0.00332049 0)