/*--------------------------------*- C++ -*----------------------------------*\
| =========                 |                                                 |
| \\      /  F ield         | OpenFOAM: The Open Source CFD Toolbox           |
|  \\    /   O peration     | Version:  3.0.1                                 |
|   \\  /    A nd           | Web:      www.OpenFOAM.org                      |
|    \\/     M anipulation  |                                                 |
\*---------------------------------------------------------------------------*/
FoamFile
{
    version     2.0;
    format      ascii;
    class       volScalarField;
    location    "22.4";
    object      p;
}
// * * * * * * * * * * * * * * * * * * * * * * * * * * * * * * * * * * * * * //

dimensions      [1 -1 -2 0 0 0 0];

internalField   nonuniform List<scalar> 
22680
(
3762.41
3724.07
3686.39
3650.02
3615.44
3582.97
3552.82
3525.23
3500.35
3478.36
3459.35
3443.17
3429.3
3417.94
3411.5
3408.65
3408.55
3411.15
3416.3
3423.79
3433.41
3444.91
3458.05
3472.57
3488.25
3504.82
3522.1
3539.8
3557.8
3575.81
3593.72
3611.2
3628.15
3644.15
3659.14
3672.91
3684.95
3695.11
3702.82
3707.89
3709.74
3708.18
3702.7
3693.13
3679.14
3660.69
3637.84
3609.96
3577.15
3541.22
3501.33
3457.34
3409.67
3357.92
3303.26
3244.95
3184.68
3121.65
3057.77
2992.41
2927.47
2862.65
2799.63
2738.37
2680.36
2625.72
2575.7
2530.38
2490.58
2456.7
2430.06
2408.99
2392.3
2382.25
2377.81
2377.51
2380.75
2387.05
2395.98
2407.24
2420.5
2435.54
2452
2469.66
2488.23
2507.58
2527.31
2546.66
2565.19
2582.95
2599.85
2616
2631.37
2646.16
2660.55
2674.79
2689.28
2704.32
2720.4
2737.83
2757.07
2778.36
2802.03
2828.23
2857.11
2888.65
2922.8
2959.33
2997.92
3038.15
3079.45
3121.18
3162.64
3203.08
3241.71
3277.76
3310.47
3339.13
3363.12
3381.89
3395.01
3402.16
3403.14
3397.92
3386.55
3369.07
3346.51
3319.47
3288.71
3255.14
3219.72
3183.44
3147.21
3111.87
3078.1
3046.45
3017.28
2990.84
2967.23
2946.44
2928.4
2912.92
2899.81
2888.84
2879.77
2872.33
2866.38
2861.7
2857.94
2855.03
2852.78
2851.06
2849.73
2848.69
2847.8
2846.99
2846.14
2845.18
2844.03
2842.63
2840.94
2838.89
2836.47
2833.66
2830.47
2826.92
2823.06
2818.94
2814.65
2810.26
2805.86
2801.57
2797.47
2793.68
2790.29
2787.41
2785.12
2783.53
2782.71
2782.73
2783.65
2785.51
2788.35
2792.18
2797.01
2802.85
2809.69
2817.52
2826.31
2836.06
2846.76
2858.37
2870.91
2884.36
2898.74
2914.02
2930.23
2947.35
2965.37
2984.26
3003.98
3024.49
3045.71
3067.56
3089.96
3112.81
3136.01
3159.45
3183.02
3206.61
3230.09
3253.33
3276.19
3298.52
3320.15
3340.88
3360.51
3378.83
3395.66
3410.82
3424.11
3435.63
3445.54
3453.66
3460.66
3664.24
3625.89
3588.2
3551.81
3517.22
3484.74
3454.57
3426.98
3402.09
3380.09
3361.07
3344.89
3331.08
3319.89
3313.39
3310.46
3310.34
3312.93
3318.08
3325.58
3335.2
3346.7
3359.85
3374.38
3390.07
3406.64
3423.92
3441.63
3459.64
3477.66
3495.57
3513.06
3530.02
3546.03
3561.04
3574.82
3586.88
3597.06
3604.8
3609.89
3611.77
3610.23
3604.78
3595.23
3581.27
3562.84
3539.99
3512.12
3479.35
3443.43
3403.51
3359.51
3311.82
3260.05
3205.36
3147.02
3086.71
3023.64
2959.7
2894.3
2829.32
2764.44
2701.38
2640.08
2582.03
2527.37
2477.32
2431.99
2392.2
2358.33
2331.6
2310.46
2293.93
2283.96
2279.51
2279.23
2282.48
2288.8
2297.75
2309.03
2322.3
2337.35
2353.82
2371.5
2390.09
2409.45
2429.19
2448.56
2467.1
2484.87
2501.77
2517.93
2533.29
2548.07
2562.44
2576.66
2591.13
2606.14
2622.21
2639.61
2658.83
2680.1
2703.76
2729.95
2758.82
2790.37
2824.51
2861.06
2899.67
2939.92
2981.25
3023.02
3064.54
3105.02
3143.71
3179.8
3212.56
3241.27
3265.3
3284.1
3297.24
3304.4
3305.38
3300.14
3288.74
3271.22
3248.6
3221.5
3190.68
3157.05
3121.58
3085.24
3048.98
3013.61
2979.82
2948.16
2918.99
2892.55
2868.95
2848.17
2830.14
2814.68
2801.58
2790.63
2781.57
2774.15
2768.22
2763.54
2759.79
2756.89
2754.65
2752.93
2751.62
2750.57
2749.7
2748.89
2748.05
2747.09
2745.94
2744.55
2742.86
2740.81
2738.39
2735.58
2732.39
2728.84
2724.97
2720.85
2716.55
2712.16
2707.76
2703.46
2699.36
2695.56
2692.16
2689.27
2686.98
2685.39
2684.56
2684.58
2685.5
2687.35
2690.19
2694.02
2698.85
2704.69
2711.53
2719.36
2728.15
2737.9
2748.59
2760.21
2772.75
2786.2
2800.57
2815.85
2832.06
2849.18
2867.2
2886.09
2905.82
2926.33
2947.55
2969.41
2991.81
3014.67
3037.87
3061.32
3084.9
3108.49
3131.98
3155.23
3178.11
3200.44
3222.08
3242.82
3262.47
3280.81
3297.65
3312.82
3326.12
3337.61
3347.48
3355.52
3361.93
3566.01
3527.63
3489.9
3453.49
3418.88
3386.38
3356.19
3328.58
3303.67
3281.66
3262.61
3246.43
3232.74
3221.88
3215.24
3212.16
3212
3214.59
3219.74
3227.25
3236.88
3248.39
3261.56
3276.09
3291.8
3308.38
3325.67
3343.4
3361.42
3379.44
3397.38
3414.88
3431.86
3447.9
3462.93
3476.74
3488.84
3499.07
3506.84
3511.99
3513.92
3512.43
3507.04
3497.54
3483.63
3465.24
3442.37
3414.52
3381.87
3345.94
3305.97
3261.95
3214.23
3162.41
3107.66
3049.25
2988.86
2925.7
2861.68
2796.18
2731.1
2666.13
2602.98
2541.6
2483.49
2428.76
2378.66
2333.3
2293.53
2259.69
2232.8
2211.55
2195.34
2185.47
2181.03
2180.77
2184.06
2190.41
2199.39
2210.69
2223.99
2239.06
2255.56
2273.27
2291.89
2311.3
2331.07
2350.45
2369.02
2386.8
2403.71
2419.87
2435.22
2449.98
2464.32
2478.5
2492.92
2507.89
2523.91
2541.27
2560.45
2581.68
2605.32
2631.48
2660.35
2691.89
2726.05
2762.62
2801.27
2841.57
2882.97
2924.82
2966.42
3007
3045.79
3081.99
3114.85
3143.65
3167.76
3186.63
3199.82
3206.98
3207.96
3202.69
3191.23
3173.6
3150.88
3123.66
3092.72
3058.97
3023.39
2986.96
2950.61
2915.18
2881.36
2849.67
2820.5
2794.07
2770.48
2749.73
2731.73
2716.3
2703.23
2692.31
2683.28
2675.89
2670
2665.33
2661.6
2658.71
2656.49
2654.79
2653.48
2652.45
2651.59
2650.79
2649.96
2649
2647.86
2646.48
2644.79
2642.75
2640.33
2637.52
2634.33
2630.77
2626.9
2622.77
2618.46
2614.06
2609.65
2605.34
2601.22
2597.41
2594.01
2591.11
2588.81
2587.2
2586.37
2586.38
2587.29
2589.14
2591.98
2595.8
2600.63
2606.47
2613.31
2621.13
2629.93
2639.68
2650.37
2661.98
2674.52
2687.96
2702.33
2717.62
2733.82
2750.94
2768.96
2787.86
2807.59
2828.1
2849.33
2871.2
2893.62
2916.49
2939.7
2963.16
2986.75
3010.36
3033.87
3057.14
3080.03
3102.39
3124.05
3144.82
3164.49
3182.86
3199.72
3214.9
3228.23
3239.7
3249.48
3257.46
3263.59
3467.71
3429.29
3391.51
3355.07
3320.42
3287.89
3257.67
3230.03
3205.11
3183.07
3163.99
3147.81
3134.3
3123.71
3116.97
3113.75
3113.54
3116.12
3121.28
3128.8
3138.45
3149.98
3163.16
3177.72
3193.44
3210.04
3227.35
3245.09
3263.13
3281.18
3299.13
3316.66
3333.67
3349.74
3364.82
3378.68
3390.83
3401.12
3408.96
3414.19
3416.19
3414.79
3409.47
3400.05
3386.22
3367.89
3345.03
3317.19
3284.66
3248.73
3208.71
3164.66
3116.89
3065
3010.17
2951.65
2891.15
2827.85
2763.68
2698.04
2632.82
2567.71
2504.44
2442.94
2384.72
2329.89
2279.72
2234.32
2194.55
2160.75
2133.69
2112.35
2096.47
2086.75
2082.34
2082.12
2085.47
2091.88
2100.89
2112.24
2125.57
2140.68
2157.22
2174.98
2193.65
2213.11
2232.93
2252.35
2270.95
2288.76
2305.68
2321.83
2337.17
2351.89
2366.19
2380.31
2394.67
2409.57
2425.52
2442.81
2461.93
2483.11
2506.7
2532.84
2561.68
2593.23
2627.4
2664
2702.72
2743.09
2784.59
2826.55
2868.29
2909.02
2947.97
2984.32
3017.34
3046.28
3070.51
3089.47
3102.73
3109.92
3110.88
3105.56
3094.01
3076.22
3053.35
3025.96
2994.83
2960.9
2925.15
2888.57
2852.11
2816.6
2782.71
2751
2721.81
2695.39
2671.84
2651.12
2633.16
2617.77
2604.76
2593.88
2584.9
2577.56
2571.71
2567.05
2563.36
2560.49
2558.29
2556.62
2555.33
2554.32
2553.47
2552.68
2551.87
2550.93
2549.8
2548.42
2546.75
2544.71
2542.29
2539.48
2536.28
2532.72
2528.84
2524.7
2520.38
2515.95
2511.53
2507.2
2503.07
2499.24
2495.82
2492.9
2490.59
2488.97
2488.12
2488.12
2489.02
2490.87
2493.7
2497.53
2502.35
2508.19
2515.03
2522.85
2531.65
2541.39
2552.08
2563.69
2576.22
2589.67
2604.03
2619.31
2635.5
2652.63
2670.65
2689.55
2709.29
2729.81
2751.06
2772.94
2795.37
2818.26
2841.49
2864.97
2888.58
2912.22
2935.75
2959.04
2981.97
3004.36
3026.06
3046.86
3066.57
3084.98
3101.88
3117.08
3130.43
3141.89
3151.54
3159.37
3165.2
3369.36
3330.86
3293.03
3256.54
3221.84
3189.27
3159.02
3131.35
3106.39
3084.33
3065.23
3049.07
3035.7
3025.27
3018.51
3015.2
3014.96
3017.53
3022.7
3030.24
3039.91
3051.47
3064.67
3079.25
3095
3111.62
3128.95
3146.72
3164.78
3182.85
3200.84
3218.4
3235.45
3251.57
3266.7
3280.63
3292.85
3303.22
3311.16
3316.48
3318.59
3317.29
3312.08
3302.77
3289.03
3270.78
3247.95
3220.17
3187.72
3151.79
3111.72
3067.63
3019.8
2967.82
2912.88
2854.22
2793.55
2730.08
2665.73
2599.89
2534.48
2469.18
2405.74
2344.08
2285.72
2230.77
2180.5
2135.03
2095.26
2061.49
2034.28
2012.9
1997.31
1987.78
1983.43
1983.28
1986.71
1993.2
2002.27
2013.67
2027.05
2042.21
2058.81
2076.62
2095.37
2114.89
2134.77
2154.25
2172.89
2190.73
2207.67
2223.82
2239.13
2253.81
2268.05
2282.1
2296.37
2311.17
2327.02
2344.23
2363.26
2384.37
2407.91
2434
2462.83
2494.37
2528.57
2565.22
2604
2644.48
2686.11
2728.24
2770.16
2811.08
2850.23
2886.79
2920.02
2949.14
2973.53
2992.63
3005.97
3013.2
3014.14
3008.75
2997.09
2979.08
2956.01
2928.38
2897.01
2862.84
2826.86
2790.09
2753.47
2717.84
2683.88
2652.12
2622.93
2596.53
2573
2552.34
2534.43
2519.11
2506.16
2495.34
2486.42
2479.14
2473.34
2468.72
2465.07
2462.24
2460.07
2458.42
2457.16
2456.17
2455.34
2454.58
2453.78
2452.86
2451.74
2450.38
2448.71
2446.69
2444.27
2441.46
2438.26
2434.69
2430.79
2426.64
2422.29
2417.85
2413.41
2409.06
2404.9
2401.05
2397.6
2394.66
2392.33
2390.69
2389.83
2389.81
2390.7
2392.54
2395.37
2399.19
2404.01
2409.85
2416.68
2424.5
2433.3
2443.04
2453.73
2465.34
2477.86
2491.3
2505.66
2520.93
2537.12
2554.24
2572.27
2591.17
2610.92
2631.46
2652.72
2674.62
2697.07
2719.98
2743.24
2766.75
2790.39
2814.05
2837.62
2860.95
2883.91
2906.35
2928.09
2948.95
2968.72
2987.18
3004.13
3019.36
3032.72
3044.2
3053.73
3061.42
3066.9
3270.95
3232.37
3194.46
3157.9
3123.14
3090.53
3060.23
3032.53
3007.54
2985.46
2966.33
2950.19
2936.9
2926.6
2919.86
2916.5
2916.24
2918.82
2924
2931.56
2941.26
2952.85
2966.08
2980.69
2996.46
3013.12
3030.48
3048.27
3066.37
3084.47
3102.5
3120.1
3137.2
3153.38
3168.58
3182.58
3194.9
3205.38
3213.43
3218.87
3221.11
3219.95
3214.87
3205.68
3192.07
3173.92
3151.14
3123.43
3091.05
3055.13
3015.01
2970.88
2922.97
2870.88
2815.79
2756.95
2696.09
2632.39
2567.81
2501.72
2436.07
2370.55
2306.89
2245.03
2186.5
2131.39
2080.99
2035.44
1995.66
1961.89
1934.58
1913.23
1897.86
1888.53
1884.29
1884.26
1887.79
1894.37
1903.52
1914.98
1928.42
1943.65
1960.31
1978.2
1997.03
2016.64
2036.6
2056.14
2074.84
2092.72
2109.68
2125.83
2141.11
2155.74
2169.9
2183.85
2198.01
2212.7
2228.43
2245.52
2264.45
2285.47
2308.94
2334.98
2363.78
2395.32
2429.55
2466.26
2505.14
2545.74
2587.54
2629.86
2672
2713.17
2752.58
2789.41
2822.89
2852.25
2876.85
2896.1
2909.54
2916.82
2917.75
2912.27
2900.46
2882.19
2858.86
2830.93
2799.25
2764.77
2728.52
2691.51
2654.69
2618.92
2584.86
2553.06
2523.85
2497.47
2473.99
2453.38
2435.55
2420.3
2407.43
2396.7
2387.86
2380.65
2374.9
2370.33
2366.73
2363.95
2361.82
2360.2
2358.97
2358.01
2357.21
2356.47
2355.7
2354.79
2353.7
2352.36
2350.7
2348.68
2346.28
2343.46
2340.25
2336.67
2332.76
2328.58
2324.22
2319.75
2315.28
2310.9
2306.71
2302.83
2299.36
2296.39
2294.03
2292.37
2291.49
2291.45
2292.33
2294.16
2296.97
2300.79
2305.61
2311.44
2318.28
2326.1
2334.89
2344.63
2355.31
2366.91
2379.44
2392.86
2407.22
2422.48
2438.67
2455.79
2473.81
2492.73
2512.48
2533.04
2554.32
2576.25
2598.73
2621.67
2644.95
2668.49
2692.17
2715.88
2739.48
2762.86
2785.87
2808.36
2830.17
2851.09
2870.92
2889.45
2906.46
2921.73
2935.11
2946.59
2955.99
2963.51
2968.67
3172.49
3133.79
3095.79
3059.15
3024.33
2991.66
2961.32
2933.57
2908.55
2886.44
2867.29
2851.16
2837.94
2827.73
2821.03
2817.66
2817.38
2819.97
2825.18
2832.77
2842.5
2854.12
2867.39
2882.04
2897.85
2914.54
2931.94
2949.76
2967.89
2986.04
3004.11
3021.76
3038.92
3055.17
3070.45
3084.55
3096.98
3107.58
3115.77
3121.36
3123.75
3122.75
3117.84
3108.81
3095.34
3077.31
3054.61
3026.97
2994.66
2958.74
2918.58
2874.41
2826.39
2774.17
2718.91
2659.85
2598.76
2534.78
2469.93
2403.54
2337.61
2271.8
2207.89
2145.79
2087.05
2031.75
1981.2
1935.55
1895.73
1861.95
1834.58
1813.29
1798.14
1789.02
1784.93
1785.05
1788.71
1795.4
1804.64
1816.18
1829.69
1844.99
1861.73
1879.72
1898.64
1918.36
1938.42
1958.04
1976.8
1994.72
2011.71
2027.86
2043.11
2057.68
2071.74
2085.58
2099.61
2114.15
2129.74
2146.69
2165.5
2186.41
2209.79
2235.78
2264.54
2296.08
2330.34
2367.12
2406.11
2446.87
2488.86
2531.42
2573.84
2615.3
2655.02
2692.16
2725.96
2755.6
2780.44
2799.89
2813.46
2820.8
2821.7
2816.11
2804.14
2785.53
2761.9
2733.61
2701.56
2666.71
2630.12
2592.82
2555.77
2519.82
2485.65
2453.79
2424.57
2398.21
2374.78
2354.25
2336.51
2321.36
2308.58
2297.94
2289.19
2282.08
2276.39
2271.89
2268.35
2265.62
2263.54
2261.96
2260.77
2259.84
2259.08
2258.37
2257.62
2256.74
2255.67
2254.35
2252.71
2250.7
2248.3
2245.48
2242.26
2238.67
2234.74
2230.54
2226.14
2221.65
2217.14
2212.73
2208.51
2204.59
2201.08
2198.08
2195.69
2194
2193.09
2193.04
2193.9
2195.72
2198.52
2202.33
2207.15
2212.98
2219.81
2227.63
2236.42
2246.16
2256.84
2268.43
2280.94
2294.36
2308.71
2323.96
2340.15
2357.26
2375.29
2394.21
2413.98
2434.56
2455.86
2477.82
2500.33
2523.3
2546.63
2570.21
2593.93
2617.68
2641.34
2664.77
2687.84
2710.4
2732.27
2753.27
2773.18
2791.79
2808.87
2824.2
2837.61
2849.06
2858.36
2865.71
2870.55
3073.96
3035.14
2997.03
2960.3
2925.41
2892.66
2862.27
2834.47
2809.42
2787.28
2768.12
2751.99
2738.83
2728.69
2722.03
2718.66
2718.39
2721
2726.23
2733.86
2743.63
2755.29
2768.6
2783.29
2799.14
2815.87
2833.31
2851.18
2869.35
2887.54
2905.66
2923.38
2940.61
2956.94
2972.31
2986.53
2999.08
3009.83
3018.17
3023.94
3026.52
3025.7
3020.98
3012.13
2998.84
2980.94
2958.35
2930.8
2898.55
2862.64
2822.43
2778.2
2730.08
2677.69
2622.23
2562.93
2501.55
2437.26
2372.08
2305.35
2239.08
2172.94
2108.73
2046.35
1987.36
1931.85
1881.13
1835.36
1795.48
1761.68
1734.27
1713.07
1698.14
1689.25
1685.34
1685.64
1689.46
1696.28
1705.63
1717.26
1730.85
1746.23
1763.08
1781.16
1800.21
1820.05
1840.22
1859.93
1878.77
1896.75
1913.78
1929.92
1945.14
1959.63
1973.58
1987.29
2001.15
2015.53
2030.95
2047.74
2066.4
2087.19
2110.47
2136.38
2165.11
2196.64
2230.93
2267.79
2306.92
2347.86
2390.08
2432.92
2475.65
2517.46
2557.55
2595.06
2629.23
2659.2
2684.32
2704
2717.73
2725.13
2725.99
2720.28
2708.13
2689.12
2665.12
2636.42
2603.93
2568.65
2531.66
2494.02
2456.7
2420.55
2386.25
2354.32
2325.09
2298.75
2275.39
2254.95
2237.31
2222.27
2209.61
2199.08
2190.44
2183.43
2177.82
2173.39
2169.92
2167.25
2165.22
2163.7
2162.55
2161.66
2160.93
2160.26
2159.54
2158.69
2157.65
2156.35
2154.73
2152.73
2150.34
2147.52
2144.3
2140.68
2136.73
2132.5
2128.08
2123.54
2119
2114.54
2110.28
2106.33
2102.78
2099.74
2097.31
2095.59
2094.65
2094.57
2095.41
2097.22
2100.01
2103.81
2108.62
2114.45
2121.28
2129.1
2137.89
2147.63
2158.3
2169.88
2182.39
2195.8
2210.13
2225.37
2241.55
2258.67
2276.69
2295.63
2315.41
2336.01
2357.35
2379.34
2401.89
2424.9
2448.27
2471.89
2495.67
2519.47
2543.18
2566.68
2589.82
2612.46
2634.41
2655.5
2675.5
2694.21
2711.37
2726.77
2740.2
2751.63
2760.83
2768
2772.55
2975.37
2936.41
2898.18
2861.34
2826.36
2793.54
2763.08
2735.24
2710.14
2687.97
2668.8
2652.67
2639.55
2629.47
2622.86
2619.51
2619.26
2621.89
2627.16
2634.83
2644.65
2656.35
2669.71
2684.45
2700.35
2717.13
2734.62
2752.53
2770.75
2788.99
2807.17
2824.96
2842.26
2858.68
2874.17
2888.51
2901.21
2912.13
2920.65
2926.62
2929.4
2928.81
2924.29
2915.65
2902.56
2884.83
2862.36
2834.91
2802.71
2766.83
2726.56
2682.28
2634.02
2581.45
2525.76
2466.17
2404.48
2339.82
2274.27
2207.14
2140.48
2073.97
2009.41
1946.71
1887.45
1831.68
1780.76
1734.85
1694.9
1661.08
1633.67
1612.57
1597.87
1589.23
1585.54
1586.04
1590.04
1597.02
1606.49
1618.22
1631.9
1647.38
1664.34
1682.54
1701.73
1721.71
1742.01
1761.82
1780.76
1798.81
1815.87
1832.01
1847.18
1861.58
1875.42
1888.96
1902.65
1916.84
1932.06
1948.66
1967.16
1987.81
2010.97
2036.79
2065.47
2097
2131.34
2168.29
2207.56
2248.71
2291.2
2334.35
2377.45
2419.66
2460.16
2498.09
2532.69
2563.03
2588.49
2608.43
2622.33
2629.81
2630.64
2624.79
2612.42
2592.95
2568.55
2539.35
2506.35
2470.59
2433.14
2395.11
2357.47
2321.09
2286.65
2254.64
2225.4
2199.1
2175.81
2155.47
2137.95
2123.04
2110.51
2100.11
2091.59
2084.69
2079.18
2074.84
2071.45
2068.85
2066.88
2065.41
2064.31
2063.47
2062.78
2062.15
2061.47
2060.66
2059.64
2058.37
2056.77
2054.79
2052.4
2049.59
2046.35
2042.72
2038.74
2034.48
2030.01
2025.44
2020.85
2016.35
2012.04
2008.04
2004.45
2001.36
1998.89
1997.13
1996.16
1996.05
1996.87
1998.66
2001.44
2005.23
2010.04
2015.86
2022.69
2030.51
2039.29
2049.03
2059.69
2071.27
2083.76
2097.16
2111.48
2126.72
2142.88
2160
2178.03
2196.97
2216.77
2237.4
2258.77
2280.8
2303.39
2326.45
2349.87
2373.55
2397.38
2421.24
2445.02
2468.59
2491.81
2514.53
2536.59
2557.77
2577.88
2596.7
2613.96
2629.43
2642.9
2654.31
2663.42
2670.41
2674.67
2876.71
2837.59
2799.23
2762.28
2727.19
2694.29
2663.76
2635.86
2610.72
2588.52
2569.33
2553.21
2540.13
2530.09
2523.52
2520.21
2519.98
2522.65
2527.96
2535.68
2545.55
2557.31
2570.73
2585.52
2601.48
2618.31
2635.84
2653.81
2672.08
2690.38
2708.63
2726.49
2743.88
2760.41
2776.02
2790.5
2803.37
2814.47
2823.2
2829.39
2832.41
2832.05
2827.79
2819.38
2806.51
2788.96
2766.65
2739.31
2707.16
2671.3
2630.97
2586.63
2538.23
2485.46
2429.5
2369.58
2307.53
2242.46
2176.49
2108.91
2041.82
1974.88
1909.93
1846.88
1787.29
1731.24
1680.09
1634.02
1593.99
1560.15
1532.74
1511.77
1497.32
1488.94
1485.51
1486.25
1490.46
1497.61
1507.22
1519.06
1532.85
1548.43
1565.51
1583.86
1603.2
1623.34
1643.78
1663.72
1682.76
1700.89
1717.99
1734.12
1749.25
1763.56
1777.25
1790.62
1804.1
1818.07
1833.06
1849.46
1867.77
1888.25
1911.28
1937.01
1965.64
1997.16
2031.54
2068.6
2108.04
2149.42
2192.2
2235.71
2279.21
2321.88
2362.85
2401.26
2436.34
2467.12
2492.95
2513.19
2527.29
2534.86
2535.65
2529.63
2517.02
2497.03
2472.16
2442.41
2408.84
2372.51
2334.55
2296.07
2258.08
2221.45
2186.84
2154.75
2125.49
2099.24
2076.04
2055.82
2038.43
2023.66
2011.29
2001.03
1992.65
1985.88
1980.48
1976.23
1972.93
1970.41
1968.51
1967.1
1966.06
1965.27
1964.63
1964.04
1963.4
1962.63
1961.65
1960.4
1958.82
1956.86
1954.49
1951.67
1948.42
1944.77
1940.76
1936.46
1931.96
1927.34
1922.7
1918.14
1913.78
1909.73
1906.08
1902.95
1900.43
1898.63
1897.62
1897.48
1898.27
1900.04
1902.81
1906.59
1911.39
1917.21
1924.04
1931.85
1940.64
1950.37
1961.03
1972.6
1985.07
1998.46
2012.76
2027.99
2044.15
2061.25
2079.29
2098.24
2118.07
2138.72
2160.13
2182.2
2204.84
2227.96
2251.43
2275.17
2299.06
2323
2346.85
2370.5
2393.81
2416.63
2438.79
2460.09
2480.32
2499.26
2516.64
2532.19
2545.72
2557.1
2566.12
2572.94
2576.93
2777.99
2738.69
2700.18
2663.1
2627.91
2594.91
2564.3
2536.33
2511.15
2488.92
2469.71
2453.6
2440.55
2430.55
2424.03
2420.75
2420.57
2423.28
2428.64
2436.42
2446.35
2458.16
2471.64
2486.49
2502.51
2519.4
2537
2555.02
2573.35
2591.71
2610.03
2627.97
2645.47
2662.11
2677.85
2692.5
2705.54
2716.86
2725.81
2732.25
2735.53
2735.45
2731.45
2723.31
2710.69
2693.35
2671.21
2643.99
2611.9
2576.07
2535.67
2491.26
2442.7
2389.7
2333.45
2273.17
2210.72
2145.19
2078.74
2010.67
1943.09
1875.68
1810.29
1746.83
1686.89
1630.53
1579.13
1532.87
1492.75
1458.87
1431.5
1410.68
1396.5
1388.4
1385.25
1386.27
1390.72
1398.06
1407.83
1419.79
1433.68
1449.38
1466.6
1485.1
1504.61
1524.93
1545.55
1565.62
1584.78
1602.99
1620.15
1636.28
1651.35
1665.55
1679.08
1692.25
1705.5
1719.22
1733.97
1750.14
1768.23
1788.53
1811.42
1837.04
1865.6
1897.11
1931.55
1968.71
2008.33
2049.97
2093.09
2136.99
2180.96
2224.12
2265.62
2304.56
2340.2
2371.44
2397.69
2418.27
2432.6
2440.27
2441.01
2434.8
2421.91
2401.39
2375.97
2345.59
2311.37
2274.41
2235.88
2196.91
2158.53
2121.62
2086.83
2054.64
2025.38
1999.17
1976.07
1955.98
1938.75
1924.15
1911.94
1901.85
1893.62
1886.99
1881.71
1877.58
1874.37
1871.93
1870.11
1868.77
1867.78
1867.05
1866.47
1865.93
1865.34
1864.61
1863.66
1862.45
1860.9
1858.96
1856.59
1853.78
1850.52
1846.84
1842.8
1838.46
1833.91
1829.23
1824.54
1819.93
1815.51
1811.39
1807.69
1804.5
1801.93
1800.08
1799.03
1798.85
1799.62
1801.37
1804.12
1807.89
1812.69
1818.5
1825.33
1833.14
1841.92
1851.65
1862.3
1873.86
1886.32
1899.69
1913.97
1929.18
1945.33
1962.43
1980.47
1999.44
2019.29
2039.98
2061.43
2083.55
2106.25
2129.42
2152.95
2176.76
2200.72
2224.73
2248.67
2272.41
2295.82
2318.75
2341.03
2362.46
2382.82
2401.89
2419.4
2435.06
2448.64
2460
2468.95
2475.59
2479.34
2679.2
2639.71
2601.03
2563.81
2528.5
2495.4
2464.7
2436.67
2411.43
2389.16
2369.94
2353.83
2340.81
2330.86
2324.38
2321.14
2321
2323.77
2329.19
2337.03
2347.02
2358.91
2372.45
2387.37
2403.46
2420.41
2438.07
2456.15
2474.55
2492.99
2511.38
2529.42
2547.02
2563.78
2579.67
2594.5
2607.74
2619.28
2628.49
2635.21
2638.77
2638.99
2635.29
2627.44
2615.1
2597.99
2576.05
2548.96
2516.93
2481.13
2440.66
2396.18
2347.43
2294.19
2237.62
2176.94
2114.04
2048
1981.03
1912.41
1844.28
1776.35
1710.48
1646.57
1586.24
1529.53
1477.86
1431.4
1391.16
1357.25
1329.93
1309.28
1295.4
1287.61
1284.77
1286.1
1290.81
1298.37
1308.3
1320.4
1334.41
1350.24
1367.61
1386.27
1405.97
1426.5
1447.29
1467.52
1486.81
1505.12
1522.34
1538.47
1553.48
1567.56
1580.92
1593.87
1606.86
1620.31
1634.78
1650.68
1668.54
1688.64
1711.36
1736.86
1765.36
1796.85
1831.34
1868.63
1908.45
1950.37
1993.85
2038.2
2082.66
2126.38
2168.47
2208
2244.25
2276.02
2302.73
2323.68
2338.27
2346.04
2346.74
2340.31
2326.94
2306.17
2279.98
2248.9
2213.96
2176.3
2137.12
2097.61
2058.8
2021.58
1986.59
1954.32
1925.04
1898.9
1875.91
1855.97
1838.9
1824.49
1812.46
1802.55
1794.49
1788.02
1782.88
1778.86
1775.76
1773.42
1771.68
1770.41
1769.5
1768.83
1768.3
1767.82
1767.28
1766.59
1765.69
1764.52
1763
1761.08
1758.72
1755.91
1752.63
1748.93
1744.85
1740.46
1735.86
1731.13
1726.38
1721.7
1717.21
1713.03
1709.26
1706.02
1703.39
1701.48
1700.38
1700.17
1700.91
1702.63
1705.37
1709.13
1713.92
1719.73
1726.55
1734.36
1743.14
1752.86
1763.51
1775.05
1787.5
1800.85
1815.12
1830.31
1846.45
1863.54
1881.58
1900.56
1920.44
1941.17
1962.67
1984.84
2007.6
2030.83
2054.44
2078.32
2102.36
2126.45
2150.48
2174.32
2197.84
2220.89
2243.3
2264.87
2285.38
2304.6
2322.24
2338.02
2351.66
2363.03
2371.9
2378.39
2381.88
2580.33
2540.63
2501.78
2464.41
2428.96
2395.76
2364.97
2336.85
2311.55
2289.26
2270.02
2253.91
2240.92
2231.01
2224.57
2221.38
2221.3
2224.12
2229.61
2237.52
2247.59
2259.54
2273.16
2288.15
2304.31
2321.34
2339.07
2357.22
2375.69
2394.2
2412.68
2430.81
2448.53
2465.43
2481.48
2496.49
2509.96
2521.75
2531.23
2538.25
2542.13
2542.67
2539.3
2531.77
2519.73
2502.88
2481.16
2454.22
2422.26
2386.48
2345.94
2301.38
2252.44
2198.92
2142
2080.88
2017.49
1950.9
1883.35
1814.12
1745.4
1676.89
1610.5
1546.1
1485.34
1428.25
1376.27
1329.59
1289.23
1255.28
1228.03
1207.57
1194.01
1186.55
1184.06
1185.73
1190.74
1198.54
1208.66
1220.89
1235.03
1250.99
1268.53
1287.37
1307.29
1328.04
1349.03
1369.42
1388.86
1407.28
1424.57
1440.69
1455.65
1469.59
1482.76
1495.47
1508.17
1521.32
1535.48
1551.1
1568.69
1588.58
1611.12
1636.49
1664.9
1696.38
1730.93
1768.35
1808.39
1850.61
1894.48
1939.31
1984.33
2028.66
2071.4
2111.56
2148.5
2180.83
2208.07
2229.43
2244.3
2252.19
2252.84
2246.16
2232.33
2211.17
2184.18
2152.32
2116.58
2078.15
2038.28
1998.16
1958.89
1921.33
1886.14
1853.76
1824.49
1798.41
1775.55
1755.77
1738.9
1724.68
1712.86
1703.15
1695.28
1688.97
1683.98
1680.1
1677.11
1674.87
1673.22
1672.03
1671.19
1670.59
1670.13
1669.71
1669.23
1668.59
1667.74
1666.6
1665.11
1663.22
1660.88
1658.06
1654.77
1651.04
1646.92
1642.48
1637.82
1633.03
1628.21
1623.46
1618.9
1614.65
1610.81
1607.49
1604.81
1602.84
1601.69
1601.44
1602.14
1603.84
1606.56
1610.31
1615.09
1620.89
1627.71
1635.52
1644.3
1654.02
1664.65
1676.18
1688.61
1701.94
1716.19
1731.37
1747.49
1764.58
1782.62
1801.62
1821.52
1842.29
1863.84
1886.08
1908.9
1932.2
1955.88
1979.84
2003.97
2028.15
2052.28
2076.22
2099.86
2123.04
2145.6
2167.33
2187.99
2207.38
2225.18
2241.08
2254.8
2266.17
2274.98
2281.33
2284.57
2481.39
2441.46
2402.42
2364.89
2329.31
2295.98
2265.09
2236.89
2211.53
2189.19
2169.94
2153.84
2140.88
2131
2124.61
2121.47
2121.45
2124.34
2129.91
2137.89
2148.04
2160.07
2173.76
2188.84
2205.08
2222.19
2239.99
2258.22
2276.76
2295.35
2313.92
2332.16
2350
2367.05
2383.27
2398.49
2412.2
2424.26
2434.04
2441.38
2445.6
2446.5
2443.49
2436.3
2424.59
2408.03
2386.56
2359.77
2327.88
2292.14
2251.52
2206.87
2157.72
2103.91
2046.59
1985
1921.07
1853.88
1785.7
1715.82
1646.44
1577.31
1510.34
1445.42
1384.18
1326.68
1274.36
1227.43
1186.94
1152.96
1125.78
1105.55
1092.34
1085.24
1083.13
1085.17
1090.51
1098.57
1108.89
1121.27
1135.54
1151.64
1169.36
1188.4
1208.54
1229.54
1250.75
1271.33
1290.94
1309.48
1326.84
1342.96
1357.86
1371.65
1384.6
1397.05
1409.44
1422.26
1436.08
1451.38
1468.69
1488.34
1510.68
1535.9
1564.23
1595.69
1630.3
1667.86
1708.13
1750.68
1794.98
1840.34
1885.96
1930.95
1974.39
2015.3
2052.89
2085.9
2113.7
2135.51
2150.69
2158.72
2159.31
2152.37
2138.06
2116.42
2088.57
2055.85
2019.25
1979.97
1939.33
1898.57
1858.78
1820.86
1785.45
1752.98
1723.7
1697.71
1674.98
1655.39
1638.73
1624.73
1613.14
1603.64
1595.97
1589.84
1585.02
1581.28
1578.42
1576.29
1574.74
1573.63
1572.87
1572.34
1571.95
1571.6
1571.18
1570.6
1569.79
1568.7
1567.25
1565.38
1563.06
1560.24
1556.93
1553.17
1549
1544.51
1539.79
1534.93
1530.03
1525.21
1520.57
1516.24
1512.33
1508.94
1506.18
1504.15
1502.94
1502.65
1503.31
1504.99
1507.69
1511.42
1516.19
1522
1528.81
1536.62
1545.4
1555.11
1565.74
1577.25
1589.66
1602.97
1617.2
1632.35
1648.46
1665.54
1683.59
1702.6
1722.53
1743.34
1764.95
1787.26
1810.15
1833.53
1857.29
1881.33
1905.55
1929.83
1954.07
1978.13
2001.89
2025.22
2047.93
2069.82
2090.67
2110.23
2128.2
2144.24
2158.05
2169.43
2178.19
2184.41
2187.43
2382.37
2342.2
2302.96
2265.26
2229.53
2196.07
2165.06
2136.78
2111.35
2088.97
2069.7
2053.61
2040.67
2030.84
2024.49
2021.41
2021.45
2024.42
2030.07
2038.14
2048.37
2060.49
2074.27
2089.43
2105.76
2122.95
2140.84
2159.14
2177.77
2196.43
2215.1
2233.46
2251.44
2268.64
2285.05
2300.49
2314.44
2326.8
2336.9
2344.59
2349.18
2350.47
2347.84
2341.03
2329.68
2313.43
2292.23
2265.62
2233.8
2198.11
2157.4
2112.66
2063.27
2009.15
1951.41
1889.31
1824.79
1756.95
1688.08
1617.49
1547.39
1477.59
1409.99
1344.5
1282.75
1224.81
1172.13
1124.94
1084.29
1050.26
1023.17
1003.2
990.407
983.656
981.957
984.408
990.113
998.464
1008.99
1021.54
1035.93
1052.19
1070.09
1089.34
1109.74
1131.01
1152.46
1173.24
1193.04
1211.71
1229.16
1245.28
1260.1
1273.75
1286.47
1298.63
1310.67
1323.13
1336.58
1351.54
1368.53
1387.92
1410.05
1435.11
1463.34
1494.78
1529.45
1567.15
1607.67
1650.58
1695.35
1741.26
1787.54
1833.25
1877.46
1919.17
1957.48
1991.2
2019.63
2041.94
2057.46
2065.64
2066.16
2058.94
2044.13
2021.92
1993.13
1959.5
1921.95
1881.75
1840.26
1798.8
1758.47
1720.16
1684.52
1651.95
1622.68
1596.78
1574.21
1554.82
1538.39
1524.64
1513.29
1504.03
1496.57
1490.65
1486
1482.41
1479.69
1477.67
1476.22
1475.21
1474.53
1474.09
1473.77
1473.49
1473.13
1472.61
1471.86
1470.81
1469.4
1467.57
1465.26
1462.44
1459.12
1455.32
1451.1
1446.55
1441.76
1436.83
1431.85
1426.94
1422.22
1417.81
1413.81
1410.35
1407.51
1405.41
1404.15
1403.8
1404.43
1406.07
1408.75
1412.48
1417.24
1423.04
1429.85
1437.66
1446.44
1456.15
1466.76
1478.26
1490.65
1503.93
1518.13
1533.26
1549.35
1566.42
1584.47
1603.5
1623.47
1644.33
1666
1688.38
1711.35
1734.81
1758.65
1782.79
1807.1
1831.5
1855.84
1880.03
1903.93
1927.41
1950.29
1972.37
1993.4
2013.15
2031.3
2047.49
2061.4
2072.8
2081.53
2087.65
2090.45
2283.26
2242.84
2203.39
2165.51
2129.61
2096.02
2064.89
2036.51
2011.01
1988.59
1969.3
1953.21
1940.31
1930.52
1924.21
1921.2
1921.31
1924.36
1930.1
1938.27
1948.59
1960.8
1974.66
1989.93
2006.36
2023.63
2041.61
2059.99
2078.7
2097.46
2116.23
2134.71
2152.83
2170.19
2186.8
2202.48
2216.71
2229.37
2239.82
2247.88
2252.87
2254.57
2252.36
2245.96
2235
2219.09
2198.18
2171.77
2140.02
2104.39
2063.58
2018.74
1969.11
1914.65
1856.44
1793.8
1728.64
1660.1
1590.49
1519.14
1448.26
1377.73
1309.47
1243.36
1181.06
1122.63
1069.56
1022.08
981.271
947.198
920.201
900.512
888.199
881.809
880.551
883.455
889.558
898.221
908.979
921.692
936.218
952.623
970.736
990.213
1010.88
1032.45
1054.16
1075.16
1095.16
1113.98
1131.53
1147.65
1162.4
1175.87
1188.34
1200.19
1211.86
1223.92
1236.97
1251.56
1268.21
1287.32
1309.22
1334.11
1362.22
1393.64
1428.37
1466.23
1507.01
1550.3
1595.55
1642.08
1689.06
1735.55
1780.59
1823.15
1862.26
1896.76
1925.85
1948.71
1964.61
1972.95
1973.41
1965.88
1950.54
1927.7
1897.87
1863.25
1824.67
1783.47
1741.08
1698.85
1657.94
1619.22
1583.35
1550.67
1521.42
1495.63
1473.23
1454.07
1437.89
1424.4
1413.31
1404.31
1397.09
1391.37
1386.91
1383.49
1380.91
1379.02
1377.68
1376.77
1376.18
1375.82
1375.58
1375.37
1375.09
1374.64
1373.94
1372.95
1371.58
1369.78
1367.49
1364.68
1361.33
1357.49
1353.22
1348.61
1343.75
1338.73
1333.67
1328.67
1323.86
1319.35
1315.27
1311.72
1308.8
1306.63
1305.3
1304.89
1305.48
1307.1
1309.76
1313.47
1318.22
1324.01
1330.83
1338.64
1347.41
1357.12
1367.72
1379.2
1391.57
1404.82
1418.99
1434.1
1450.17
1467.23
1485.28
1504.32
1524.33
1545.24
1566.98
1589.44
1612.49
1636.04
1659.97
1684.21
1708.63
1733.14
1757.6
1781.92
1805.97
1829.62
1852.68
1874.95
1896.19
1916.15
1934.49
1950.84
1964.86
1976.3
1985.01
1991.05
1993.65
2184.07
2143.38
2103.71
2065.64
2029.58
1995.83
1964.58
1936.09
1910.51
1888.04
1868.74
1852.66
1839.78
1830.05
1823.78
1820.83
1821.03
1824.17
1830
1838.27
1848.69
1860.99
1874.96
1890.33
1906.86
1924.23
1942.3
1960.77
1979.57
1998.42
2017.3
2035.9
2054.17
2071.71
2088.53
2104.46
2118.98
2131.98
2142.79
2151.25
2156.67
2158.81
2157.05
2151.09
2140.54
2125
2104.42
2078.22
2046.55
2010.98
1970.07
1925.13
1875.23
1820.41
1761.7
1698.47
1632.62
1563.35
1492.93
1420.77
1349.04
1277.73
1208.75
1141.98
1079.08
1020.14
966.643
918.865
877.879
843.75
816.851
797.487
785.741
779.687
778.905
782.304
788.844
797.845
808.85
821.734
836.387
852.951
871.283
891.001
911.954
933.856
955.84
977.079
997.31
1016.3
1033.96
1050.08
1064.75
1078.04
1090.24
1101.75
1113.01
1124.64