/*--------------------------------*- C++ -*----------------------------------*\
| =========                 |                                                 |
| \\      /  F ield         | OpenFOAM: The Open Source CFD Toolbox           |
|  \\    /   O peration     | Version:  3.0.1                                 |
|   \\  /    A nd           | Web:      www.OpenFOAM.org                      |
|    \\/     M anipulation  |                                                 |
\*---------------------------------------------------------------------------*/
FoamFile
{
    version     2.0;
    format      ascii;
    class       surfaceScalarField;
    location    "19.8";
    object      phi;
}
// * * * * * * * * * * * * * * * * * * * * * * * * * * * * * * * * * * * * * //

dimensions      [0 3 -1 0 0 0 0];

internalField   nonuniform List<scalar> 
42423
(
-0.000174981
3.41069e-06
-0.000177582
2.60108e-06
-0.000179474
1.89174e-06
-0.000180676
1.20176e-06
-0.000181216
5.40804e-07
-0.000181054
-1.62183e-07
-0.000180107
-9.47138e-07
-0.00017846
-1.64723e-06
-0.00017619
-2.26983e-06
-0.000173111
-3.0787e-06
-0.000169261
-3.8505e-06
-0.000164641
-4.62004e-06
-0.000159174
-5.46722e-06
-0.000152978
-6.19549e-06
-0.000145801
-7.17676e-06
-0.000137735
-8.06618e-06
-0.00012891
-8.82509e-06
-0.000119129
-9.78122e-06
-0.000108358
-1.07712e-05
-9.67042e-05
-1.16537e-05
-8.40723e-05
-1.2632e-05
-7.04717e-05
-1.36006e-05
-5.59247e-05
-1.45471e-05
-4.04261e-05
-1.54987e-05
-2.42426e-05
-1.61835e-05
-7.27169e-06
-1.6971e-05
1.03763e-05
-1.76481e-05
2.83683e-05
-1.79921e-05
4.67518e-05
-1.83835e-05
6.53845e-05
-1.86328e-05
8.38215e-05
-1.84371e-05
0.000102034
-1.82121e-05
0.000119774
-1.77404e-05
0.000136766
-1.69919e-05
0.000152777
-1.60117e-05
0.00016752
-1.47432e-05
0.000180753
-1.32331e-05
0.000192269
-1.15159e-05
0.000201855
-9.58574e-06
0.000209389
-7.5341e-06
0.00021468
-5.29092e-06
0.000217647
-2.96765e-06
0.000218226
-5.78381e-07
0.000216217
2.00894e-06
0.000211834
4.38237e-06
0.000205257
6.57679e-06
0.000196382
8.87511e-06
0.000185574
1.08085e-05
0.000172977
1.25967e-05
0.000158669
1.43079e-05
0.000143059
1.56099e-05
0.000126398
1.66608e-05
0.00010885
1.75486e-05
9.06474e-05
1.82022e-05
7.21345e-05
1.85129e-05
5.35656e-05
1.85689e-05
3.49909e-05
1.85747e-05
1.67043e-05
1.82866e-05
-1.20267e-06
1.7907e-05
-1.85374e-05
1.73347e-05
-3.51722e-05
1.66348e-05
-5.1094e-05
1.59218e-05
-6.6134e-05
1.504e-05
-8.03033e-05
1.41693e-05
-9.35989e-05
1.32956e-05
-0.000105935
1.23364e-05
-0.000117313
1.13776e-05
-0.000127758
1.04447e-05
-0.000137221
9.46374e-06
-0.000145837
8.61525e-06
-0.000153499
7.66277e-06
-0.000160269
6.76986e-06
-0.000166163
5.89353e-06
-0.000171161
4.99838e-06
-0.000175233
4.07178e-06
-0.000178472
3.23934e-06
-0.000180792
2.3197e-06
-0.000182409
1.61707e-06
-0.000183173
7.63413e-07
-0.000183051
-1.21843e-07
-0.000182216
-8.34892e-07
-0.000180487
-1.72865e-06
-0.000177988
-2.4993e-06
-0.000174757
-3.23112e-06
-0.000170722
-4.03464e-06
-0.000165909
-4.81311e-06
-0.000160485
-5.42431e-06
-0.000154311
-6.17383e-06
-0.000147378
-6.93271e-06
-0.000139718
-7.66044e-06
-0.000131307
-8.41122e-06
-0.000122227
-9.07974e-06
-0.000112473
-9.75359e-06
-0.000101875
-1.05988e-05
-9.05198e-05
-1.13549e-05
-7.82255e-05
-1.22943e-05
-6.52397e-05
-1.29858e-05
-5.14528e-05
-1.3787e-05
-3.68272e-05
-1.46257e-05
-2.14663e-05
-1.53609e-05
-5.59441e-06
-1.5872e-05
1.08568e-05
-1.64513e-05
2.78162e-05
-1.69595e-05
4.50395e-05
-1.72234e-05
6.24037e-05
-1.73643e-05
7.97805e-05
-1.73769e-05
9.6915e-05
-1.71346e-05
0.000113602
-1.66872e-05
0.000129613
-1.60108e-05
0.000144713
-1.51001e-05
0.000158708
-1.39957e-05
0.000171352
-1.2644e-05
0.000182401
-1.10491e-05
0.000191642
-9.24074e-06
0.000198885
-7.24331e-06
0.00020397
-5.08536e-06
0.000206707
-2.73642e-06
0.000207092
-3.8571e-07
0.000205019
2.07285e-06
0.000200525
4.49438e-06
0.000193701
6.82355e-06
0.000184687
9.01446e-06
0.000173632
1.10547e-05
0.000160753
1.2879e-05
0.000146292
1.44609e-05
0.000130502
1.57903e-05
0.000113643
1.68586e-05
9.59756e-05
1.76677e-05
7.77763e-05
1.81992e-05
5.92826e-05
1.84937e-05
4.07807e-05
1.85019e-05
2.24179e-05
1.83628e-05
4.37152e-06
1.80464e-05
-1.31467e-05
1.75183e-05
-3.0015e-05
1.68682e-05
-4.61097e-05
1.60947e-05
-6.1385e-05
1.52753e-05
-7.57673e-05
1.43823e-05
-8.92197e-05
1.34524e-05
-0.000101714
1.24948e-05
-0.000113223
1.15085e-05
-0.000123764
1.05409e-05
-0.000133269
9.50541e-06
-0.000141835
8.56608e-06
-0.000149482
7.64693e-06
-0.000156144
6.66183e-06
-0.000161803
5.65897e-06
-0.000166569
4.76561e-06
-0.000170547
3.9783e-06
-0.000173708
3.1607e-06
-0.00017617
2.46279e-06
-0.000177864
1.69331e-06
-0.000178898
1.03432e-06
-0.00017935
4.52136e-07
-0.000179035
-3.15415e-07
-0.000178074
-9.60799e-07
-0.000176484
-1.59046e-06
-0.000174113
-2.37034e-06
-0.000171329
-2.78452e-06
-0.000167773
-3.55546e-06
-0.000163462
-4.31174e-06
-0.00015848
-4.98131e-06
-0.000152702
-5.77864e-06
-0.000146114
-6.58816e-06
-0.000138731
-7.38245e-06
-0.000130449
-8.28168e-06
-0.000121301
-9.1489e-06
-0.000111281
-1.00192e-05
-0.000100255
-1.10265e-05
-8.83196e-05
-1.19354e-05
-7.552e-05
-1.27997e-05
-6.1863e-05
-1.36571e-05
-4.72508e-05
-1.46123e-05
-3.20061e-05
-1.52447e-05
-1.60072e-05
-1.5999e-05
4.66855e-07
-1.64741e-05
1.76122e-05
-1.71455e-05
3.51731e-05
-1.75609e-05
5.28571e-05
-1.76841e-05
7.05531e-05
-1.76961e-05
8.80812e-05
-1.75281e-05
0.0001052
-1.71186e-05
0.00012166
-1.64603e-05
0.000137266
-1.5606e-05
0.000151789
-1.45236e-05
0.000164997
-1.32079e-05
0.000176668
-1.16708e-05
0.000186617
-9.94971e-06
0.000194628
-8.01104e-06
0.000200563
-5.93458e-06
0.000204296
-3.73327e-06
0.000205764
-1.46794e-06
0.000204916
8.48248e-07
0.000201712
3.20346e-06
0.000196162
5.55063e-06
0.000188377
7.78499e-06
0.000178521
9.85537e-06
0.000166735
1.17859e-05
0.000153147
1.35883e-05
0.00013808
1.50667e-05
0.000121743
1.63374e-05
0.000104413
1.73299e-05
8.6302e-05
1.81107e-05
6.77733e-05
1.85287e-05
4.90037e-05
1.87696e-05
3.02693e-05
1.87344e-05
1.186e-05
1.84093e-05
-6.09931e-06
1.79594e-05
-2.33531e-05
1.72538e-05
-3.98089e-05
1.64558e-05
-5.53364e-05
1.55275e-05
-6.98459e-05
1.45095e-05
-8.32785e-05
1.34326e-05
-9.55858e-05
1.23074e-05
-0.000106812
1.12262e-05
-0.000116967
1.01551e-05
-0.00012595
8.98277e-06
-0.000134045
8.09521e-06
-0.000141177
7.13182e-06
-0.000147427
6.24989e-06
-0.000152961
5.53379e-06
-0.000157654
4.69354e-06
-0.000161836
4.18202e-06
-0.000165371
3.53468e-06
-0.000168147
2.77602e-06
-0.000170415
2.26768e-06
-0.000172169
1.75452e-06
-0.00017341
1.24057e-06
-0.00017425
8.40443e-07
-0.000174428
1.77944e-07
-0.000174083
-3.45364e-07
-0.00017319
-8.93119e-07
-0.000171608
-1.58134e-06
-0.000169295
-2.31281e-06
-0.000166206
-3.08917e-06
-0.000162229
-3.97695e-06
-0.000157492
-4.73701e-06
-0.000151707
-5.78547e-06
-0.00014492
-6.78711e-06
-0.000137094
-7.82565e-06
-0.000128248
-8.8467e-06
-0.000118223
-1.0025e-05
-0.000107132
-1.10909e-05
-9.50341e-05
-1.20976e-05
-8.18016e-05
-1.32326e-05
-6.7636e-05
-1.41656e-05
-5.23798e-05
-1.52563e-05
-3.61992e-05
-1.61807e-05
-1.93541e-05
-1.68452e-05
-1.87421e-06
-1.74799e-05
1.61573e-05
-1.80316e-05
3.44918e-05
-1.83345e-05
5.28232e-05
-1.83315e-05
7.09945e-05
-1.81714e-05
8.89653e-05
-1.79708e-05
0.000106378
-1.74123e-05
0.000122987
-1.66098e-05
0.000138579
-1.55915e-05
0.000152931
-1.43522e-05
0.000165841
-1.29103e-05
0.000177158
-1.13168e-05
0.000186698
-9.53999e-06
0.000194313
-7.61529e-06
0.000199905
-5.59239e-06
0.000203418
-3.5129e-06
0.00020481
-1.3918e-06
0.000204088
7.21803e-07
0.000201266
2.82242e-06
0.000196321
4.94509e-06
0.000189425
6.89561e-06
0.000180651
8.77337e-06
0.000170174
1.04772e-05
0.000158111
1.20632e-05
0.000144646
1.34648e-05
0.000129965
1.46812e-05
0.000114342
1.5623e-05
9.78048e-05
1.65372e-05
8.06221e-05
1.71827e-05
6.30601e-05
1.7562e-05
4.52862e-05
1.77739e-05
2.75353e-05
1.77509e-05
9.86157e-06
1.76738e-05
-7.53714e-06
1.73987e-05
-2.44627e-05
1.69256e-05
-4.07865e-05
1.63238e-05
-5.64711e-05
1.56846e-05
-7.13318e-05
1.48607e-05
-8.53192e-05
1.39875e-05
-9.84009e-05
1.30817e-05
-0.000110499
1.20984e-05
-0.000121689
1.11897e-05
-0.000131821
1.01325e-05
-0.000140918
9.09664e-06
-0.000149036
8.11817e-06
-0.000156122
7.08596e-06
-0.000162206
6.08373e-06
-0.000167343
5.13687e-06
-0.000171465
4.12262e-06
-0.00017465
3.18464e-06
-0.000176949
2.29933e-06
-0.000178351
1.40161e-06
-0.000178974
6.22574e-07
-0.000178713
-2.60396e-07
-0.000177621
-1.09217e-06
-0.00017581
-1.81105e-06
-0.000173281
-2.52892e-06
-0.000169967
-3.31443e-06
-0.000166022
-3.94499e-06
-0.000161315
-4.70692e-06
-0.000155989
-5.32607e-06
-0.000150071
-5.91732e-06
-0.000143351
-6.72057e-06
-0.000135955
-7.39551e-06
-0.000127993
-7.96227e-06
-0.00011923
-8.76279e-06
-0.000109788
-9.44212e-06
-9.94104e-05
-1.03779e-05
-8.82795e-05
-1.1131e-05
-7.65216e-05
-1.17579e-05
-6.38842e-05
-1.26374e-05
-5.03415e-05
-1.35428e-05
-3.61739e-05
-1.41676e-05
-2.12292e-05
-1.49448e-05
-5.72899e-06
-1.55003e-05
1.0605e-05
-1.6334e-05
2.73994e-05
-1.67945e-05
4.44024e-05
-1.7003e-05
6.16484e-05
-1.72462e-05
7.90255e-05
-1.73771e-05
9.61577e-05
-1.71323e-05
0.000112951
-1.67932e-05
0.000129226
-1.62754e-05
0.000144706
-1.54796e-05
0.000159187
-1.4481e-05
0.000172369
-1.31822e-05
0.000184067
-1.16982e-05
0.000194122
-1.00549e-05
0.000202312
-8.19039e-06
0.000208392
-6.08052e-06
0.000212263
-3.87074e-06
0.000213893
-1.62962e-06
0.000213194
6.98983e-07
0.000210007
3.18677e-06
0.000204487
5.51946e-06
0.000196658
7.82884e-06
0.00018656
1.00983e-05
0.000174601
1.19589e-05
0.000160895
1.37054e-05
0.000145605
1.52901e-05
0.00012909
1.65155e-05
0.000111491
1.75987e-05
9.32582e-05
1.82326e-05
7.4505e-05
1.87532e-05
5.53761e-05
1.91288e-05
3.63711e-05
1.90049e-05
1.74775e-05
1.88936e-05
1.84172e-05
-0.000175019
6.82957e-06
-0.000177622
5.20391e-06
-0.00017952
3.79001e-06
-0.00018073
2.41188e-06
-0.000181269
1.07974e-06
-0.000181105
-3.2602e-07
-0.000180157
-1.89542e-06
-0.00017851
-3.29477e-06
-0.000176241
-4.53901e-06
-0.000173161
-6.15826e-06
-0.000169319
-7.69242e-06
-0.000164698
-9.24154e-06
-0.000159229
-1.09357e-05
-0.000153035
-1.23897e-05
-0.000145858
-1.43541e-05
-0.000137797
-1.61271e-05
-0.000128962
-1.76599e-05
-0.000119183
-1.9561e-05
-0.000108413
-2.1541e-05
-9.67566e-05
-2.331e-05
-8.41219e-05
-2.52668e-05
-7.05195e-05
-2.72031e-05
-5.59752e-05
-2.90915e-05
-4.04664e-05
-3.10076e-05
-2.42774e-05
-3.23726e-05
-7.29773e-06
-3.39508e-05
1.03507e-05
-3.52966e-05
2.83479e-05
-3.59894e-05
4.67482e-05
-3.6784e-05
6.53935e-05
-3.72783e-05
8.3832e-05
-3.68758e-05
0.000102065
-3.64455e-05
0.000119821
-3.54958e-05
0.000136815
-3.39862e-05
0.00015285
-3.20468e-05
0.000167607
-2.9501e-05
0.000180841
-2.6467e-05
0.000192368
-2.30434e-05
0.000201962
-1.91791e-05
0.000209509
-1.50817e-05
0.000214809
-1.05909e-05
0.000217773
-5.93176e-06
0.000218352
-1.15757e-06
0.000216335
4.0258e-06
0.000211953
8.76461e-06
0.000205376
1.31531e-05
0.000196492
1.7759e-05
0.000185677
2.16231e-05
0.000173073
2.52008e-05
0.000158753
2.86283e-05
0.000143134
3.12284e-05
0.000126462
3.33333e-05
0.000108901
3.51097e-05
9.06866e-05
3.6416e-05
7.21622e-05
3.70372e-05
5.35852e-05
3.71459e-05
3.50002e-05
3.71597e-05
1.67051e-05
3.65816e-05
-1.21648e-06
3.58285e-05
-1.85628e-05
3.4681e-05
-3.52089e-05
3.32809e-05
-5.11381e-05
3.18509e-05
-6.61864e-05
3.00883e-05
-8.03641e-05
2.8347e-05
-9.36646e-05
2.6596e-05
-0.00010601
2.46815e-05
-0.000117387
2.27551e-05
-0.000127833
2.08905e-05
-0.000137296
1.89264e-05
-0.000145914
1.72334e-05
-0.000153575
1.53239e-05
-0.000160347
1.35423e-05
-0.000166244
1.17903e-05
-0.000171242
9.99584e-06
-0.000175312
8.14185e-06
-0.000178552
6.48013e-06
-0.000180877
4.6443e-06
-0.000182487
3.22661e-06
-0.000183255
1.53148e-06
-0.000183131
-2.45826e-07
-0.000182294
-1.672e-06
-0.000180568
-3.45427e-06
-0.000178076
-4.99087e-06
-0.000174846
-6.4618e-06
-0.000170818
-8.06286e-06
-0.000166029
-9.60151e-06
-0.000160551
-1.09023e-05
-0.000154392
-1.23334e-05
-0.000147457
-1.38678e-05
-0.00013979
-1.53267e-05
-0.000131379
-1.68228e-05
-0.000122293
-1.81658e-05
-0.000112555
-1.94913e-05
-0.000101952
-2.1202e-05
-9.05939e-05
-2.27134e-05
-7.83061e-05
-2.45823e-05
-6.52979e-05
-2.59942e-05
-5.1515e-05
-2.75701e-05
-3.68843e-05
-2.92565e-05
-2.15075e-05
-3.07379e-05
-5.6406e-06
-3.17391e-05
1.08293e-05
-3.29214e-05
2.78145e-05
-3.39449e-05
4.50452e-05
-3.44543e-05
6.24287e-05
-3.47479e-05
7.98097e-05
-3.47581e-05
9.69603e-05
-3.42854e-05
0.000113658
-3.33851e-05
0.000129685
-3.20376e-05
0.000144801
-3.02168e-05
0.0001588
-2.79949e-05
0.000171461
-2.53044e-05
0.000182532
-2.21205e-05
0.000191784
-1.84934e-05
0.00019904
-1.44988e-05
0.000204129
-1.0175e-05
0.000206862
-5.46958e-06
0.000207253
-7.76946e-07
0.000205176
4.15042e-06
0.000200679
8.99051e-06
0.000193842
1.36606e-05
0.000184819
1.80377e-05
0.000173758
2.21154e-05
0.000160872
2.5765e-05
0.000146393
2.89401e-05
0.000130583
3.16001e-05
0.00011371
3.37318e-05
9.60268e-05
3.53504e-05
7.78161e-05
3.641e-05
5.93089e-05
3.70009e-05
4.07919e-05
3.70189e-05
2.24121e-05
3.67426e-05
4.35367e-06
3.61048e-05
-1.31701e-05
3.50421e-05
-3.00464e-05
3.37446e-05
-4.61503e-05
3.21987e-05
-6.14304e-05
3.05555e-05
-7.58202e-05
2.87721e-05
-8.92744e-05
2.69065e-05
-0.000101773
2.49938e-05
-0.000113288
2.30236e-05
-0.000123833
2.10851e-05
-0.000133342
1.90154e-05
-0.000141901
1.71245e-05
-0.000149566
1.5312e-05
-0.000156238
1.33337e-05
-0.000161896
1.13171e-05
-0.000166651
9.52074e-06
-0.000170632
7.95945e-06
-0.000173794
6.32263e-06
-0.000176254
4.92276e-06
-0.000177946
3.38549e-06
-0.000178988
2.07587e-06
-0.00017944
9.04548e-07
-0.000179127
-6.2902e-07
-0.000178159
-1.92848e-06
-0.000176572
-3.17795e-06
-0.000174229
-4.71343e-06
-0.000171421
-5.59224e-06
-0.00016787
-7.10625e-06
-0.000163556
-8.62598e-06
-0.000158572
-9.96488e-06
-0.000152784
-1.15667e-05
-0.000146213
-1.31592e-05
-0.000138817
-1.47786e-05
-0.000130535
-1.65639e-05
-0.000121386
-1.82981e-05
-0.000111361
-2.00443e-05
-0.000100322
-2.20662e-05
-8.83877e-05
-2.38693e-05
-7.56175e-05
-2.557e-05
-6.19363e-05
-2.73385e-05
-4.73123e-05
-2.92363e-05
-3.20562e-05
-3.0501e-05
-1.60457e-05
-3.20096e-05
4.35219e-07
-3.29552e-05
1.75844e-05
-3.42948e-05
3.51663e-05
-3.5143e-05
5.28778e-05
-3.53958e-05
7.05813e-05
-3.53998e-05
8.81187e-05
-3.50657e-05
0.000105256
-3.42556e-05
0.00012173
-3.29345e-05
0.000137345
-3.1222e-05
0.000151886
-2.9064e-05
0.000165111
-2.64331e-05
0.000176792
-2.33518e-05
0.000186746
-1.99044e-05
0.000194772
-1.6037e-05
0.000200715
-1.18777e-05
0.000204453
-7.47083e-06
0.000205932
-2.947e-06
0.000205072
1.70796e-06
0.000201861
6.41444e-06
0.000196309
1.11023e-05
0.00018852
1.55744e-05
0.00017865
1.97253e-05
0.000166847
2.35887e-05
0.000153247
2.71883e-05
0.00013818
3.01336e-05
0.000121832
3.26855e-05
0.000104476
3.46855e-05
8.63427e-05
3.62441e-05
6.77977e-05
3.70736e-05
4.90196e-05
3.75477e-05
3.02733e-05
3.74806e-05
1.18515e-05
3.68311e-05
-6.12176e-06
3.59326e-05
-2.33863e-05
3.45183e-05
-3.98517e-05
3.29213e-05
-5.53884e-05
3.10642e-05
-6.99055e-05
2.90266e-05
-8.334e-05
2.68672e-05
-9.56505e-05
2.46179e-05
-0.000106873
2.2449e-05
-0.000117035
2.03169e-05
-0.000126022
1.79693e-05
-0.000134109
1.61831e-05
-0.000141255
1.4277e-05
-0.000147506
1.25013e-05
-0.000153036
1.10639e-05
-0.000157722
9.37899e-06
-0.000161907
8.36739e-06
-0.000165454
7.08204e-06
-0.000168229
5.55027e-06
-0.000170495
4.53449e-06
-0.000172255
3.51461e-06
-0.000173494
2.47882e-06
-0.000174345
1.6913e-06
-0.000174516
3.49762e-07
-0.000174171
-6.90403e-07
-0.000173281
-1.78364e-06
-0.000171705
-3.15755e-06
-0.000169395
-4.6222e-06
-0.000166309
-6.17517e-06
-0.000162325
-7.96152e-06
-0.000157585
-9.47675e-06
-0.000151798
-1.15724e-05
-0.000145015
-1.35703e-05
-0.000137197
-1.56437e-05
-0.000128337
-1.77069e-05
-0.000118312
-2.00505e-05
-0.000107214
-2.21883e-05
-9.51187e-05
-2.41932e-05
-8.1881e-05
-2.64704e-05
-6.77088e-05
-2.83379e-05
-5.24399e-05
-3.05253e-05
-3.62423e-05
-3.23784e-05
-1.9396e-05
-3.36916e-05
-1.91613e-06
-3.49599e-05
1.61367e-05
-3.60845e-05
3.44929e-05
-3.66909e-05
5.28278e-05
-3.66667e-05
7.10119e-05
-3.63556e-05
8.90117e-05
-3.59707e-05
0.000106436
-3.48368e-05
0.000123054
-3.32276e-05
0.000138662
-3.11999e-05
0.000153037
-2.8727e-05
0.000165952
-2.58257e-05
0.000177278
-2.26429e-05
0.000186815
-1.90774e-05
0.000194446
-1.52456e-05
0.000200059
-1.12056e-05
0.000203568
-7.02259e-06
0.000204953
-2.7768e-06
0.000204216
1.45898e-06
0.000201386
5.65264e-06
0.000196438
9.8927e-06
0.000189548
1.37859e-05
0.000180766
1.75551e-05
0.000170276
2.09666e-05
0.0001582
2.414e-05
0.000144721
2.69429e-05
0.000130036
2.93669e-05
0.000114396
3.12627e-05
9.78448e-05
3.30884e-05
8.0651e-05
3.43765e-05
6.30788e-05
3.51343e-05
4.52961e-05
3.55566e-05
2.7538e-05
3.5509e-05
9.85355e-06
3.53583e-05
-7.5588e-06
3.48111e-05
-2.44929e-05
3.38597e-05
-4.08297e-05
3.26606e-05
-5.6525e-05
3.138e-05
-7.13895e-05
2.97252e-05
-8.53779e-05
2.79758e-05
-9.84611e-05
2.6165e-05
-0.000110561
2.41987e-05
-0.000121754
2.23822e-05
-0.000131888
2.02662e-05
-0.00014099
1.81987e-05
-0.000149109
1.62372e-05
-0.000156193
1.41701e-05
-0.000162275
1.21661e-05
-0.000167411
1.02728e-05
-0.00017154
8.25157e-06
-0.000174723
6.36802e-06
-0.000177024
4.59972e-06
-0.000178425
2.80266e-06
-0.00017905
1.24769e-06
-0.000178789
-5.21949e-07
-0.000177692
-2.18913e-06
-0.000175877
-3.62588e-06
-0.000173346
-5.06008e-06
-0.000170029
-6.63101e-06
-0.000166083
-7.89145e-06
-0.000161374
-9.41593e-06
-0.000156045
-1.06548e-05
-0.000150124
-1.18386e-05
-0.000143411
-1.34332e-05
-0.000136019
-1.47874e-05
-0.000128048
-1.59338e-05
-0.000119282
-1.75282e-05
-0.000109837
-1.88879e-05
-9.94632e-05
-2.07513e-05
-8.83277e-05
-2.22665e-05
-7.65675e-05
-2.35183e-05
-6.39186e-05
-2.52864e-05
-5.03847e-05
-2.70767e-05
-3.62124e-05
-2.83401e-05
-2.12597e-05
-2.98976e-05
-5.73465e-06
-3.10255e-05
1.05802e-05
-3.2649e-05
2.73799e-05
-3.35944e-05
4.43925e-05
-3.40158e-05
6.16536e-05
-3.45074e-05
7.90385e-05
-3.47622e-05
9.61755e-05
-3.42694e-05
0.000112987
-3.36047e-05
0.000129287
-3.25758e-05
0.000144773
-3.09653e-05
0.000159253
-2.89619e-05
0.000172456
-2.63849e-05
0.000184184
-2.34262e-05
0.000194242
-2.01134e-05
0.000202424
-1.63722e-05
0.00020852
-1.21771e-05
0.000212423
-7.77344e-06
0.000214061
-3.26797e-06
0.000213327
1.4322e-06
0.000210128
6.38615e-06
0.000204605
1.1042e-05
0.00019677
1.56635e-05
0.000186661
2.02075e-05
0.000174693
2.39268e-05
0.000160979
2.74193e-05
0.000145672
3.05966e-05
0.000129143
3.30445e-05
0.000111529
3.52127e-05
9.32858e-05
3.6476e-05
7.45188e-05
3.75201e-05
5.53786e-05
3.82689e-05
3.63638e-05
3.80196e-05
1.74577e-05
3.77996e-05
3.6842e-05
-0.000175084
1.02534e-05
-0.000177694
7.81375e-06
-0.0001796
5.69679e-06
-0.000180811
3.62194e-06
-0.000181334
1.60332e-06
-0.000181164
-4.95789e-07
-0.000180213
-2.84677e-06
-0.000178564
-4.9434e-06
-0.000176295
-6.80873e-06
-0.000173216
-9.23726e-06
-0.000169387
-1.15212e-05
-0.000164763
-1.38659e-05
-0.000159288
-1.64108e-05
-0.000153094
-1.85834e-05
-0.000145926
-2.15224e-05
-0.000137883
-2.41692e-05
-0.000129032
-2.65117e-05
-0.000119255
-2.93381e-05
-0.000108491
-3.23048e-05
-9.68291e-05
-3.49721e-05
-8.41914e-05
-3.79046e-05
-7.05882e-05
-4.08064e-05
-5.60468e-05
-4.3633e-05
-4.0528e-05
-4.65266e-05
-2.43317e-05
-4.85689e-05
-7.34276e-06
-5.094e-05
1.03259e-05
-5.29654e-05
2.83311e-05
-5.39948e-05
4.67428e-05
-5.51958e-05
6.54136e-05
-5.59493e-05
8.38718e-05
-5.53342e-05
0.000102117
-5.46911e-05
0.000119895
-5.32742e-05
0.000136914
-5.1005e-05
0.00015296
-4.80931e-05
0.000167741
-4.42819e-05
0.000180998
-3.97242e-05
0.000192536
-3.45813e-05
0.000202136
-2.87791e-05
0.00020969
-2.26356e-05
0.000215005
-1.5906e-05
0.000217979
-8.90631e-06
0.000218547
-1.72555e-06
0.000216506
6.06691e-06
0.000212128
1.31421e-05
0.000205547
1.97345e-05
0.000196647
2.66589e-05
0.000185819
3.24505e-05
0.000173202
3.78181e-05
0.000158859
4.29708e-05
0.000143233
4.68542e-05
0.00012653
5.00364e-05
0.000108944
5.26957e-05
9.0715e-05
5.46451e-05
7.21751e-05
5.5577e-05
5.35807e-05
5.57402e-05
3.49809e-05
5.57595e-05
1.66759e-05
5.48866e-05
-1.26375e-06
5.37681e-05
-1.86219e-05
5.20391e-05
-3.52774e-05
4.99364e-05
-5.12106e-05
4.77842e-05
-6.62615e-05
4.51391e-05
-8.0444e-05
4.25296e-05
-9.375e-05
3.99019e-05
-0.000106097
3.70286e-05
-0.000117479
3.41367e-05
-0.000127923
3.13346e-05
-0.00013738
2.83836e-05
-0.000146008
2.58613e-05
-0.000153664
2.29802e-05
-0.00016043
2.03083e-05
-0.000166328
1.76885e-05
-0.000171329
1.49969e-05
-0.000175405
1.22171e-05
-0.000178651
9.72678e-06
-0.00018097
6.96327e-06
-0.00018257
4.82683e-06
-0.000183331
2.29214e-06
-0.000183202
-3.75147e-07
-0.000182367
-2.5073e-06
-0.000180639
-5.18164e-06
-0.000178148
-7.48222e-06
-0.000174923
-9.68692e-06
-0.000170897
-1.20884e-05
-0.00016611
-1.43888e-05
-0.00016061
-1.6402e-05
-0.000154449
-1.8495e-05
-0.000147508
-2.08082e-05
-0.000139848
-2.29868e-05
-0.000131437
-2.52344e-05
-0.000122348
-2.7255e-05
-0.000112609
-2.92297e-05
-0.000102012
-3.17994e-05
-9.06714e-05
-3.40541e-05
-7.83852e-05
-3.68686e-05
-6.536e-05
-3.90195e-05
-5.15846e-05
-4.13456e-05
-3.69428e-05
-4.38985e-05
-2.15635e-05
-4.61174e-05
-5.70479e-06
-4.7598e-05
1.07818e-05
-4.94081e-05
2.77747e-05
-5.0938e-05
4.50033e-05
-5.16831e-05
6.24265e-05
-5.21713e-05
7.98358e-05
-5.21676e-05
9.70027e-05
-5.14524e-05
0.000113718
-5.01008e-05
0.000129755
-4.80746e-05
0.000144889
-4.53504e-05
0.000158912
-4.20188e-05
0.000171583
-3.79756e-05
0.00018267
-3.32074e-05
0.000191946
-2.77699e-05
0.000199222
-2.17741e-05
0.000204319
-1.52726e-05
0.000207046
-8.19682e-06
0.000207433
-1.16419e-06
0.000205342
6.24135e-06
0.000200849
1.34835e-05
0.00019401
2.05e-05
0.000184966
2.70816e-05
0.000173885
3.31959e-05
0.000160991
3.86593e-05
0.000146495
4.34361e-05
0.000130659
4.74357e-05
0.000113761
5.06295e-05
9.6055e-05
5.30567e-05
7.78328e-05
5.46322e-05
5.93098e-05
5.55239e-05
4.07576e-05
5.5571e-05
2.23737e-05
5.51266e-05
4.30147e-06
5.41771e-05
-1.32355e-05
5.2579e-05
-3.01164e-05
5.06255e-05
-4.62225e-05
4.83048e-05
-6.15018e-05
4.58348e-05
-7.59031e-05
4.31733e-05
-8.93666e-05
4.03701e-05
-0.00010187
3.74969e-05
-0.000113385
3.45389e-05
-0.000123921
3.1621e-05
-0.000133427
2.85218e-05
-0.000141995
2.56925e-05
-0.000149658
2.29742e-05
-0.000156322
1.99984e-05
-0.000161978
1.69723e-05
-0.000166736
1.4279e-05
-0.000170717
1.19408e-05
-0.00017387
9.4756e-06
-0.000176328
7.38077e-06
-0.000178015
5.0725e-06
-0.000179061
3.12125e-06
-0.000179504
1.34817e-06
-0.000179181
-9.51701e-07
-0.000178213
-2.89707e-06
-0.000176638
-4.75331e-06
-0.000174303
-7.0485e-06
-0.000171488
-8.40705e-06
-0.000167941
-1.06529e-05
-0.00016362
-1.29468e-05
-0.000158638
-1.49468e-05
-0.000152845
-1.73603e-05
-0.000146278
-1.97261e-05
-0.000138874
-2.21829e-05
-0.0001306
-2.48379e-05
-0.00012146
-2.74374e-05
-0.000111442
-3.00624e-05
-0.000100396
-3.31126e-05
-8.84559e-05
-3.58094e-05
-7.57219e-05
-3.83041e-05
-6.20058e-05
-4.10547e-05
-4.73669e-05
-4.38754e-05
-3.21142e-05
-4.57538e-05
-1.60956e-05
-4.80284e-05
3.85247e-07
-4.94362e-05
1.75446e-05
-5.14542e-05
3.51433e-05
-5.2742e-05
5.28742e-05
-5.31268e-05
7.05933e-05
-5.3119e-05
8.8152e-05
-5.26245e-05
0.000105306
-5.14101e-05
0.0001218
-4.9428e-05
0.000137424
-4.68466e-05
0.000151982
-4.36215e-05
0.000165233
-3.96844e-05
0.000176934
-3.50527e-05
0.000186896
-2.98667e-05
0.000194931
-2.40726e-05
0.000200888
-1.78344e-05
0.000204637
-1.122e-05
0.000206118
-4.4287e-06
0.000205244
2.58223e-06
0.000202034
9.62484e-06
0.000196476
1.66596e-05
0.000188678
2.33726e-05
0.000178796
2.96071e-05
0.000166978
3.54069e-05
0.00015335
4.08163e-05
0.000138261
4.52219e-05
0.000121904
4.90428e-05
0.00010453
5.20591e-05
8.63701e-05
5.44043e-05
6.77985e-05
5.56453e-05
4.90045e-05
5.63417e-05
3.02412e-05
5.6244e-05
1.18078e-05
5.52645e-05
-6.18005e-06
5.39205e-05
-2.34611e-05
5.17994e-05
-3.99339e-05
4.93942e-05
-5.54678e-05
4.65981e-05
-6.99908e-05
4.35496e-05
-8.34398e-05
4.03161e-05
-9.57612e-05
3.69393e-05
-0.00010701
3.36974e-05
-0.000117135
3.04423e-05
-0.000126113
2.69471e-05
-0.000134191
2.42614e-05
-0.000141335
2.14212e-05
-0.000147579
1.87447e-05
-0.00015311
1.65957e-05
-0.000157773
1.40411e-05
-0.000161962
1.25564e-05
-0.000165523
1.06436e-05
-0.000168285
8.31187e-06
-0.000170551
6.80112e-06
-0.00017231
5.27337e-06
-0.00017355
3.71889e-06
-0.000174417
2.55794e-06
-0.000174568
5.01266e-07
-0.000174222
-1.03648e-06
-0.000173348
-2.65794e-06
-0.000171775
-4.73104e-06
-0.00016947
-6.92687e-06
-0.000166388
-9.25678e-06
-0.000162387
-1.19625e-05
-0.000157651
-1.42135e-05
-0.000151871
-1.73522e-05
-0.000145089
-2.03518e-05
-0.000137282
-2.34511e-05
-0.000128422
-2.65671e-05
-0.000118399
-3.00734e-05
-0.000107296
-3.32918e-05
-9.52013e-05
-3.62877e-05
-8.19578e-05
-3.9714e-05
-6.77895e-05
-4.25064e-05
-5.2514e-05
-4.58008e-05
-3.63001e-05
-4.85924e-05
-1.9452e-05
-5.05398e-05
-1.96227e-06
-5.24498e-05
1.61057e-05
-5.41526e-05
3.44701e-05
-5.50554e-05
5.2831e-05
-5.50277e-05
7.10208e-05
-5.45455e-05
8.90523e-05
-5.40024e-05
0.000106504
-5.22887e-05
0.000123141
-4.9865e-05
0.000138752
-4.68108e-05
0.000153142
-4.31175e-05
0.000166079
-3.87619e-05
0.00017742
-3.39846e-05
0.000186961
-2.86187e-05
0.000194601
-2.28856e-05
0.000200218
-1.6822e-05
0.000203742
-1.05474e-05
0.000205139
-4.17341e-06
0.000204374
2.22347e-06
0.000201536
8.49041e-06
0.000196581
1.48479e-05
0.000189682
2.06853e-05
0.000180886
2.63505e-05
0.000170393
3.14601e-05
0.000158303
3.62302e-05
0.000144805
4.04407e-05
0.000130125
4.40468e-05
0.000114451
4.69361e-05
9.78896e-05
4.96502e-05
8.06735e-05
5.15925e-05
6.30871e-05
5.27207e-05
4.52958e-05
5.33478e-05
2.75259e-05
5.3279e-05
9.82048e-06
5.30637e-05
-7.60819e-06
5.22398e-05
-2.45483e-05
5.07998e-05
-4.08923e-05
4.90046e-05
-5.65927e-05
4.70803e-05
-7.14657e-05
4.45983e-05
-8.54617e-05
4.19718e-05
-9.8554e-05
3.92573e-05
-0.000110652
3.6297e-05
-0.000121841
3.35713e-05
-0.000131975
3.04e-05
-0.000141075
2.72987e-05
-0.000149195
2.43569e-05
-0.000156279
2.12543e-05
-0.000162357
1.82439e-05
-0.000167494
1.54101e-05
-0.000171633
1.23907e-05
-0.000174815
9.55002e-06
-0.000177117
6.90136e-06
-0.000178518
4.2038e-06
-0.000179126
1.856e-06
-0.000178858
-7.90526e-07
-0.000177754
-3.2926e-06
-0.000175937
-5.44353e-06
-0.000173403
-7.5937e-06
-0.000170084
-9.94984e-06
-0.000166136
-1.18398e-05
-0.000161425
-1.41265e-05
-0.000156096
-1.59846e-05
-0.000150173
-1.77608e-05
-0.000143471
-2.01357e-05
-0.000136087
-2.21714e-05
-0.000128103
-2.39178e-05
-0.000119338
-2.62937e-05
-0.00010989
-2.83359e-05
-9.95262e-05
-3.1115e-05
-8.8388e-05
-3.34049e-05
-7.66266e-05
-3.52797e-05
-6.39752e-05
-3.79379e-05
-5.04474e-05
-4.06046e-05
-3.62669e-05
-4.25208e-05
-2.13063e-05
-4.48583e-05
-5.76781e-06
-4.65641e-05
1.05546e-05
-4.89715e-05
2.73633e-05
-5.04033e-05
4.43869e-05
-5.10394e-05
6.16667e-05
-5.17874e-05
7.90784e-05
-5.21741e-05
9.6233e-05
-5.14242e-05
0.000113056
-5.04274e-05
0.000129373
-4.88929e-05
0.000144894
-4.64867e-05
0.0001594
-4.34684e-05
0.000172611
-3.95959e-05
0.000184354
-3.51687e-05
0.000194454
-3.02139e-05
0.000202659
-2.45777e-05
0.000208753
-1.82707e-05
0.000212651
-1.16722e-05
0.000214312
-4.92907e-06
0.000213546
2.19781e-06
0.000210317
9.61533e-06
0.000204784
1.65749e-05
0.000196939
2.35082e-05
0.000186812
3.03349e-05
0.00017483
3.59082e-05
0.000161107
4.11423e-05
0.000145772
4.59314e-05
0.000129223
4.95938e-05
0.000111585
5.28499e-05
9.33264e-05
5.47349e-05
7.45363e-05
5.631e-05
5.53779e-05
5.74272e-05
3.63467e-05
5.70506e-05
1.74178e-05
5.67285e-05
5.52815e-05
-0.000175183
1.36867e-05
-0.000177807
1.04376e-05
-0.000179722
7.61237e-06
-0.000180933
4.83245e-06
-0.000181436
2.1066e-06
-0.000181253
-6.78492e-07
-0.000180297
-3.80332e-06
-0.000178647
-6.59365e-06
-0.000176376
-9.07913e-06
-0.000173299
-1.23147e-05
-0.000169484
-1.53361e-05
-0.000164861
-1.84889e-05
-0.000159374
-2.18978e-05
-0.000153177
-2.47805e-05
-0.000146025
-2.86745e-05
-0.000138006
-3.21886e-05
-0.000129134
-3.53831e-05
-0.000119363
-3.91095e-05
-0.000108609
-4.3059e-05
-9.69393e-05
-4.66417e-05
-8.4297e-05
-5.0547e-05
-7.06836e-05
-5.44199e-05
-5.61549e-05
-5.81617e-05
-4.06223e-05
-6.20594e-05
-2.44145e-05
-6.47769e-05
-7.41071e-06
-6.79439e-05
1.02851e-05
-7.06614e-05
2.83104e-05
-7.20202e-05
4.67459e-05
-7.36315e-05
6.54422e-05
-7.46457e-05
8.39278e-05
-7.38199e-05
0.000102205
-7.29681e-05
0.000120009
-7.10784e-05
0.00013706
-6.80565e-05
0.000153139
-6.41721e-05
0.000167943
-5.90861e-05
0.000181227
-5.30081e-05
0.00019279
-4.61449e-05
0.00020241
-3.83995e-05
0.000209978
-3.02039e-05
0.000215296
-2.1224e-05
0.000218271
-1.18816e-05
0.000218829
-2.28278e-06
0.000216765
8.13022e-06
0.000212397
1.75106e-05
0.000205802
2.63293e-05
0.000196877
3.55832e-05
0.00018603
4.32973e-05
0.000173393
5.0455e-05
0.000159018
5.73466e-05
0.000143385
6.2487e-05
0.000126632
6.6789e-05
0.000109009
7.03186e-05
9.07567e-05
7.28975e-05
7.21946e-05
7.41391e-05
5.3573e-05
7.43617e-05
3.49512e-05
7.43813e-05
1.66314e-05
7.32064e-05
-1.33691e-06
7.17364e-05
-1.87113e-05
6.94135e-05
-3.53795e-05
6.66046e-05
-5.13247e-05
6.37294e-05
-6.63854e-05
6.01999e-05
-8.05722e-05
5.67164e-05
-9.3891e-05
5.32207e-05
-0.000106237
4.93742e-05
-0.000117619
4.55191e-05
-0.000128062
4.17773e-05
-0.000137507
3.78286e-05
-0.000146145
3.44994e-05
-0.000153798
3.06329e-05
-0.000160564
2.70748e-05
-0.00016647
2.35942e-05
-0.000171468
1.99949e-05
-0.000175538
1.62876e-05
-0.000178791
1.29791e-05
-0.000181112
9.28498e-06
-0.000182705
6.41971e-06
-0.000183446
3.03301e-06
-0.000183309
-5.12092e-07
-0.000182488
-3.32814e-06
-0.000180751
-6.9191e-06
-0.000178249
-9.98368e-06
-0.000175034
-1.29021e-05
-0.000171014
-1.61082e-05
-0.000166232
-1.91717e-05
-0.000160706
-2.19272e-05
-0.000154539
-2.46629e-05
-0.000147605
-2.7742e-05
-0.000139945
-3.06466e-05
-0.000131523
-3.36566e-05
-0.000122429
-3.63491e-05
-0.000112706
-3.8953e-05
-0.000102102
-4.24038e-05
-9.07973e-05
-4.53585e-05
-7.85023e-05
-4.91637e-05
-6.54432e-05
-5.20787e-05
-5.16938e-05
-5.50952e-05
-3.70303e-05
-5.85621e-05
-2.16341e-05
-6.15137e-05
-5.79045e-06
-6.34418e-05
1.07279e-05
-6.59266e-05