/*--------------------------------*- C++ -*----------------------------------*\
| =========                 |                                                 |
| \\      /  F ield         | OpenFOAM: The Open Source CFD Toolbox           |
|  \\    /   O peration     | Version:  3.0.1                                 |
|   \\  /    A nd           | Web:      www.OpenFOAM.org                      |
|    \\/     M anipulation  |                                                 |
\*---------------------------------------------------------------------------*/
FoamFile
{
    version     2.0;
    format      ascii;
    class       volScalarField;
    location    "16.4";
    object      p;
}
// * * * * * * * * * * * * * * * * * * * * * * * * * * * * * * * * * * * * * //

dimensions      [1 -1 -2 0 0 0 0];

internalField   nonuniform List<scalar> 
21420
(
4070.25
4042.89
4014.47
3985.27
3955.67
3925.97
3897.3
3871.52
3843.3
3815.8
3789.46
3764.53
3741.19
3719.53
3699.65
3681.58
3665.35
3650.93
3638.31
3627.44
3618.26
3610.71
3604.75
3600.3
3597.36
3595.93
3595.83
3597.06
3599.73
3603.83
3609.41
3616.47
3625.05
3635.18
3646.87
3660.13
3674.95
3691.3
3709.12
3728.32
3748.78
3770.38
3792.95
3816.35
3840.39
3864.88
3889.25
3913.98
3938.61
3962.94
3986.79
4009.96
4032.28
4053.56
4073.64
4092.35
4109.53
4125
4138.61
4150.19
4159.6
4166.7
4171.36
4173.43
4172.78
4169.45
4163.46
4154.77
4143.46
4129.61
4113.37
4094.93
4074.49
4052.31
4028.64
4003.77
3977.99
3951.62
3924.94
3898
3871.14
3845.08
3820.07
3796.27
3773.83
3752.86
3733.45
3715.67
3699.54
3685.08
3672.26
3661.05
3651.41
3643.27
3636.57
3631.25
3627.24
3624.48
3622.91
3622.51
3623.19
3624.94
3627.72
3631.54
3636.39
3642.28
3649.25
3657.31
3666.5
3676.86
3688.43
3701.24
3715.31
3730.66
3747.28
3765.16
3784.26
3804.54
3825.91
3848.26
3871.47
3895.37
3919.77
3944.43
3969.13
3993.59
4017.53
4040.65
4062.67
4083.27
4102.17
4119.09
4133.78
4146.02
4155.64
4162.49
4166.49
4167.56
4165.77
4161.1
4153.68
4143.62
4131.09
4116.3
4099.46
4080.82
4060.63
4039.17
4016.69
3993.47
3969.77
3945.82
3921.85
3898.06
3874.62
3851.7
3829.41
3807.88
3787.19
3767.43
3748.65
3730.91
3714.26
3698.74
3684.39
3671.25
3659.34
3648.69
3639.34
3631.31
3624.63
3619.33
3615.43
3612.96
3611.94
3612.42
3614.35
3617.77
3622.67
3629.07
3636.96
3646.32
3657.13
3669.37
3682.99
3697.96
3714.23
3731.71
3750.34
3770.02
3790.66
3812.14
3834.33
3857.1
3880.31
3903.79
3927.38
3950.9
3974.17
3996.99
4019.16
4040.47
4060.73
4079.72
4097.24
4113.09
4127.08
4139.01
4148.73
4156.06
4160.88
4163.07
4162.55
4159.27
4153.26
4144.49
4133.04
4119.03
4102.6
4083.93
4063.27
4040.86
4017.01
3992.01
3966.21
3939.93
3913.49
3887.22
3861.4
3836.31
3812.17
3789.17
3767.48
3747.21
3728.45
3711.24
3695.61
3681.56
3669.06
3658.07
3648.56
3640.47
3633.75
3628.34
3624.19
3621.26
3619.53
3618.97
3619.54
3621.24
3624.08
3628.06
3633.19
3639.5
3647.02
3655.77
3665.79
3677.09
3689.7
3703.63
3718.89
3735.45
3753.3
3772.38
3792.62
3813.91
3836.11
3859.04
3883.99
3908.03
3932.35
3956.66
3980.69
4004.16
4026.79
4048.27
4068.34
4086.73
4103.17
4117.45
4129.35
4138.7
4145.33
4149.15
4150.11
4148.49
4143.98
4136.63
4126.54
4113.86
4098.76
4081.42
4062.12
4041.13
4018.73
3995.23
3970.92
3946.1
3921.04
3896.01
3871.49
3848.44
3825.3
3802.88
3781.4
3761.01
3741.83
3723.94
3707.4
3692.23
3678.46
3666.07
3655.07
3645.42
3637.09
3630.03
3624.22
3619.6
3616.16
3613.91
3612.79
3612.76
3613.83
3616.04
3619.37
3623.82
3629.4
3636.1
3643.94
3652.94
3663.08
3674.38
3686.84
3700.44
3715.15
3730.92
3747.7
3765.4
3783.93
3803.15
3822.91
3842.97
3863.4
3883.94
3904.36
3924.44
3943.98
3962.77
3980.59
3997.26
4012.59
4026.44
4038.66
4049.14
4057.8
4064.55
4069.32
3972.19
3944.81
3916.39
3887.17
3857.55
3827.85
3799.17
3773.36
3745.14
3717.63
3691.29
3666.36
3643.01
3621.35
3601.47
3583.4
3567.17
3552.76
3540.14
3529.27
3520.09
3512.55
3506.59
3502.14
3499.21
3497.77
3497.67
3498.91
3501.57
3505.67
3511.25
3518.31
3526.89
3537.01
3548.7
3561.96
3576.79
3593.13
3610.96
3630.16
3650.62
3672.23
3694.8
3718.21
3742.26
3766.76
3791.13
3815.87
3840.51
3864.85
3888.7
3911.88
3934.21
3955.5
3975.59
3994.31
4011.49
4026.97
4040.58
4052.17
4061.59
4068.69
4073.36
4075.43
4074.79
4071.46
4065.47
4056.77
4045.45
4031.6
4015.35
3996.9
3976.45
3954.25
3930.57
3905.69
3879.9
3853.52
3826.82
3799.87
3772.99
3746.93
3721.92
3698.11
3675.66
3654.69
3635.28
3617.5
3601.37
3586.91
3574.1
3562.89
3553.25
3545.11
3538.42
3533.1
3529.09
3526.33
3524.76
3524.37
3525.05
3526.79
3529.58
3533.4
3538.25
3544.14
3551.1
3559.16
3568.35
3578.71
3590.28
3603.09
3617.16
3632.5
3649.12
3667
3686.11
3706.39
3727.76
3750.12
3773.33
3797.24
3821.64
3846.32
3871.02
3895.49
3919.44
3942.58
3964.61
3985.23
4004.14
4021.07
4035.77
4048.02
4057.65
4064.51
4068.51
4069.58
4067.77
4063.11
4055.68
4045.61
4033.08
4018.27
4001.42
3982.77
3962.57
3941.09
3918.61
3895.38
3871.67
3847.71
3823.73
3799.93
3776.49
3753.56
3731.27
3709.74
3689.05
3669.28
3650.5
3632.76
3616.11
3600.59
3586.24
3573.09
3561.18
3550.54
3541.18
3533.15
3526.47
3521.17
3517.28
3514.8
3513.78
3514.26
3516.19
3519.61
3524.51
3530.91
3538.8
3548.16
3558.97
3571.21
3584.83
3599.81
3616.07
3633.56
3652.19
3671.88
3692.52
3714
3736.19
3758.97
3782.18
3805.67
3829.27
3852.8
3876.07
3898.9
3921.08
3942.4
3962.67
3981.67
3999.2
4015.06
4029.05
4041
4050.72
4058.05
4062.88
4065.08
4064.56
4061.28
4055.26
4046.49
4035.04
4021.02
4004.58
3985.9
3965.23
3942.81
3918.94
3893.93
3868.11
3841.82
3815.37
3789.09
3763.26
3738.16
3714.01
3691.01
3669.32
3649.05
3630.28
3613.07
3597.44
3583.39
3570.89
3559.91
3550.41
3542.32
3535.59
3530.19
3526.04
3523.12
3521.38
3520.82
3521.4
3523.1
3525.93
3529.91
3535.04
3541.35
3548.87
3557.62
3567.63
3578.93
3591.54
3605.47
3620.73
3637.3
3655.15
3674.23
3694.47
3715.76
3737.97
3760.91
3785.85
3809.9
3834.23
3858.56
3882.6
3906.08
3928.72
3950.21
3970.3
3988.69
4005.15
4019.44
4031.35
4040.7
4047.34
4051.17
4052.13
4050.5
4045.99
4038.64
4028.54
4015.85
4000.74
3983.39
3964.08
3943.07
3920.66
3897.15
3872.83
3847.99
3822.93
3797.88
3773.36
3750.3
3727.16
3704.73
3683.24
3662.86
3643.67
3625.78
3609.24
3594.07
3580.3
3567.92
3556.91
3547.27
3538.93
3531.88
3526.07
3521.46
3518.02
3515.77
3514.65
3514.61
3515.69
3517.9
3521.23
3525.68
3531.26
3537.96
3545.8
3554.79
3564.93
3576.23
3588.69
3602.29
3617
3632.78
3649.56
3667.26
3685.8
3705.02
3724.79
3744.84
3765.28
3785.83
3806.26
3826.35
3845.9
3864.7
3882.52
3899.2
3914.55
3928.4
3940.62
3951.11
3959.77
3966.52
3971.29
3874.17
3846.77
3818.31
3789.07
3759.42
3729.69
3701
3675.14
3646.91
3619.39
3593.04
3568.1
3544.75
3523.09
3503.21
3485.14
3468.92
3454.51
3441.9
3431.03
3421.86
3414.33
3408.37
3403.93
3400.99
3399.56
3399.46
3400.69
3403.35
3407.46
3413.03
3420.09
3428.67
3438.79
3450.47
3463.73
3478.56
3494.91
3512.73
3531.94
3552.42
3574.03
3596.62
3620.03
3644.1
3668.61
3693
3717.75
3742.41
3766.76
3790.63
3813.82
3836.17
3857.47
3877.58
3896.31
3913.51
3929
3942.63
3954.24
3963.67
3970.79
3975.46
3977.54
3976.9
3973.57
3967.58
3958.88
3947.54
3933.68
3917.41
3898.94
3878.47
3856.24
3832.54
3807.63
3781.82
3755.41
3728.69
3701.71
3674.81
3648.72
3623.7
3599.89
3577.43
3556.45
3537.04
3519.26
3503.13
3488.68
3475.86
3464.66
3455.02
3446.89
3440.2
3434.89
3430.89
3428.13
3426.57
3426.18
3426.86
3428.61
3431.4
3435.22
3440.06
3445.95
3452.91
3460.97
3470.15
3480.51
3492.07
3504.88
3518.95
3534.29
3550.91
3568.79
3587.9
3608.18
3629.56
3651.93
3675.15
3699.08
3723.49
3748.19
3772.91
3797.4
3821.38
3844.55
3866.6
3887.24
3906.18
3923.13
3937.85
3950.12
3959.76
3966.63
3970.63
3971.71
3969.89
3965.22
3957.78
3947.7
3935.14
3920.32
3903.45
3884.77
3864.55
3843.05
3820.54
3797.29
3773.56
3749.59
3725.59
3701.78
3678.33
3655.39
3633.09
3611.55
3590.85
3571.08
3552.3
3534.56
3517.91
3502.39
3488.04
3474.89
3462.98
3452.33
3442.98
3434.94
3428.26
3422.96
3419.06
3416.58
3415.57
3416.04
3417.97
3421.39
3426.29
3432.69
3440.58
3449.94
3460.75
3472.99
3486.62
3501.59
3517.86
3535.35
3553.99
3573.68
3594.33
3615.82
3638.03
3660.81
3684.04
3707.54
3731.15
3754.69
3777.98
3800.83
3823.02
3844.37
3864.65
3883.67
3901.22
3917.1
3931.11
3943.07
3952.8
3960.15
3964.98
3967.2
3966.67
3963.4
3957.37
3948.59
3937.13
3923.1
3906.64
3887.94
3867.24
3844.79
3820.9
3795.86
3770.02
3743.69
3717.22
3690.92
3665.07
3639.95
3615.79
3592.79
3571.09
3550.81
3532.04
3514.84
3499.21
3485.16
3472.67
3461.69
3452.19
3444.11
3437.39
3431.98
3427.85
3424.92
3423.19
3422.63
3423.21
3424.91
3427.74
3431.72
3436.85
3443.16
3450.67
3459.42
3469.43
3480.72
3493.33
3507.26
3522.51
3539.08
3556.93
3576.02
3596.27
3617.57
3639.79
3662.75
3687.68
3711.75
3736.1
3760.45
3784.52
3808.02
3830.68
3852.2
3872.31
3890.73
3907.21
3921.52
3933.44
3942.81
3949.46
3953.3
3954.27
3952.62
3948.11
3940.75
3930.64
3917.94
3902.8
3885.43
3866.09
3845.06
3822.63
3799.09
3774.74
3749.88
3724.8
3699.73
3675.2
3652.12
3628.97
3606.53
3585.03
3564.64
3545.46
3527.56
3511.02
3495.85
3482.08
3469.7
3458.7
3449.06
3440.73
3433.68
3427.88
3423.27
3419.84
3417.59
3416.45
3416.42
3417.5
3419.71
3423.04
3427.49
3433.07
3439.77
3447.61
3456.59
3466.73
3478.03
3490.49
3504.09
3518.81
3534.59
3551.37
3569.08
3587.63
3606.86
3626.64
3646.7
3667.15
3687.72
3708.16
3728.28
3747.84
3766.65
3784.5
3801.19
3816.55
3830.42
3842.65
3853.15
3861.82
3868.58
3873.35
3776.19
3748.74
3720.25
3690.97
3661.28
3631.52
3602.8
3576.87
3548.62
3521.08
3494.71
3469.77
3446.41
3424.75
3404.87
3386.81
3370.58
3356.19
3343.58
3332.73
3323.56
3316.04
3310.09
3305.65
3302.72
3301.29
3301.18
3302.42
3305.08
3309.18
3314.75
3321.81
3330.38
3340.49
3352.17
3365.43
3380.26
3396.62
3414.45
3433.67
3454.15
3475.78
3498.39
3521.82
3545.91
3570.44
3594.85
3619.62
3644.3
3668.68
3692.57
3715.79
3738.16
3759.49
3779.61
3798.37
3815.59
3831.11
3844.76
3856.39
3865.84
3872.97
3877.65
3879.76
3879.11
3875.79
3869.79
3861.08
3849.73
3835.84
3819.55
3801.05
3780.54
3758.28
3734.54
3709.59
3683.74
3657.29
3630.53
3603.52
3576.59
3550.47
3525.43
3501.6
3479.13
3458.14
3438.73
3420.94
3404.82
3390.37
3377.56
3366.37
3356.74
3348.62
3341.94
3336.63
3332.64
3329.89
3328.34
3327.94
3328.63
3330.39
3333.17
3336.99
3341.84
3347.72
3354.68
3362.73
3371.91
3382.26
3393.82
3406.62
3420.68
3436.02
3452.64
3470.52
3489.63
3509.92
3531.31
3553.69
3576.94
3600.88
3625.32
3650.04
3674.79
3699.32
3723.33
3746.54
3768.63
3789.32
3808.29
3825.28
3840.03
3852.32
3861.98
3868.86
3872.87
3873.96
3872.12
3867.44
3859.98
3849.88
3837.3
3822.44
3805.53
3786.82
3766.57
3745.03
3722.49
3699.21
3675.45
3651.45
3627.43
3603.6
3580.13
3557.18
3534.87
3513.32
3492.62
3472.84
3454.06
3436.31
3419.66
3404.14
3389.78
3376.63
3364.72
3354.07
3344.71
3336.68
3330
3324.69
3320.79
3318.31
3317.3
3317.77
3319.7
3323.11
3328.01
3334.41
3342.3
3351.66
3362.48
3374.72
3388.35
3403.33
3419.6
3437.1
3455.74
3475.44
3496.1
3517.6
3539.82
3562.63
3585.87
3609.39
3633.02
3656.58
3679.9
3702.77
3724.99
3746.36
3766.67
3785.72
3803.29
3819.2
3833.23
3845.22
3854.97
3862.34
3867.19
3869.42
3868.9
3865.62
3859.59
3850.8
3839.32
3825.26
3808.77
3790.05
3769.31
3746.83
3722.89
3697.81
3671.93
3645.56
3619.06
3592.72
3566.85
3541.7
3517.52
3494.5
3472.79
3452.51
3433.74
3416.54
3400.91
3386.87
3374.38
3363.41
3353.92
3345.84
3339.13
3333.73
3329.6
3326.68
3324.96
3324.4
3324.97
3326.67
3329.51
3333.48
3338.6
3344.91
3352.42
3361.16
3371.17
3382.46
3395.06
3408.99
3424.24
3440.81
3458.67
3477.76
3498.01
3519.33
3541.57
3564.56
3589.46
3613.57
3637.96
3662.34
3686.44
3709.98
3732.68
3754.23
3774.38
3792.83
3809.35
3823.69
3835.64
3845.02
3851.69
3855.54
3856.52
3854.86
3850.34
3842.97
3832.84
3820.11
3804.95
3787.54
3768.16
3747.1
3724.62
3701.04
3676.66
3651.77
3626.65
3601.56
3577.01
3553.9
3530.73
3508.28
3486.77
3466.37
3447.18
3429.29
3412.74
3397.57
3383.81
3371.43
3360.44
3350.8
3342.48
3335.44
3329.64
3325.03
3321.6
3319.36
3318.22
3318.19
3319.27
3321.48
3324.81
3329.26
3334.83
3341.53
3349.37
3358.35
3368.49
3379.79
3392.25
3405.85
3420.57
3436.35
3453.14
3470.86
3489.42
3508.67
3528.47
3548.53
3569.01
3589.6
3610.07
3630.21
3649.8
3668.64
3686.51
3703.23
3718.61
3732.5
3744.75
3755.26
3763.94
3770.7
3775.48
3678.26
3650.75
3622.2
3592.86
3563.12
3533.31
3504.56
3478.54
3450.26
3422.7
3396.32
3371.36
3347.99
3326.33
3306.45
3288.39
3272.18
3257.79
3245.19
3234.35
3225.2
3217.68
3211.74
3207.32
3204.4
3202.96
3202.85
3204.1
3206.76
3210.85
3216.41
3223.46
3232.03
3242.14
3253.81
3267.07
3281.9
3298.26
3316.1
3335.34
3355.84
3377.48
3400.11
3423.57
3447.68
3472.25
3496.68
3521.49
3546.2
3570.6
3594.53
3617.78
3640.17
3661.54
3681.69
3700.48
3717.74
3733.28
3746.97
3758.62
3768.1
3775.26
3779.95
3782.07
3781.44
3778.13
3772.12
3763.38
3752.01
3738.1
3721.77
3703.22
3682.67
3660.36
3636.57
3611.57
3585.67
3559.17
3532.37
3505.29
3478.32
3452.17
3427.11
3403.25
3380.77
3359.77
3340.35
3322.56
3306.45
3292
3279.2
3268.02
3258.4
3250.29
3243.62
3238.32
3234.34
3231.6
3230.06
3229.67
3230.37
3232.12
3234.91
3238.73
3243.57
3249.45
3256.4
3264.44
3273.61
3283.96
3295.51
3308.3
3322.36
3337.7
3354.32
3372.2
3391.32
3411.61
3433.01
3455.41
3478.68
3502.64
3527.12
3551.88
3576.67
3601.25
3625.31
3648.56
3670.71
3691.44
3710.47
3727.5
3742.29
3754.62
3764.31
3771.21
3775.23
3776.32
3774.47
3769.77
3762.29
3752.15
3739.53
3724.64
3707.69
3688.93
3668.62
3647.04
3624.46
3601.14
3577.33
3553.3
3529.25
3505.39
3481.9
3458.93
3436.61
3415.05
3394.34
3374.56
3355.77
3338.02
3321.36
3305.83
3291.48
3278.32
3266.41
3255.76
3246.4
3238.36
3231.68
3226.37
3222.46
3219.98
3218.97
3219.43
3221.36
3224.77
3229.68
3236.07
3243.96
3253.32
3264.14
3276.38
3290.02
3305
3321.28
3338.79
3357.44
3377.16
3397.83
3419.35
3441.59
3464.41
3487.67
3511.22
3534.88
3558.47
3581.82
3604.72
3626.98
3648.38
3668.73
3687.82
3705.43
3721.37
3735.44
3747.45
3757.24
3764.63
3769.5
3771.74
3771.23
3767.95
3761.92
3753.11
3741.61
3727.52
3710.99
3692.22
3671.44
3648.9
3624.91
3599.78
3573.84
3547.42
3520.87
3494.48
3468.57
3443.4
3419.19
3396.15
3374.43
3354.14
3335.37
3318.17
3302.55
3288.51
3276.03
3265.08
3255.59
3247.52
3240.82
3235.43
3231.31
3228.39
3226.68
3226.12
3226.69
3228.39
3231.23
3235.19
3240.32
3246.62
3254.12
3262.86
3272.85
3284.14
3296.74
3310.66
3325.91
3342.48
3360.34
3379.44
3399.71
3421.04
3443.31
3466.35
3491.2
3515.37
3539.8
3564.22
3588.37
3611.96
3634.71
3656.31
3676.51
3695.01
3711.56
3725.94
3737.93
3747.34
3754.03
3757.9
3758.88
3757.21
3752.68
3745.29
3735.14
3722.38
3707.17
3689.72
3670.29
3649.17
3626.65
3603.01
3578.59
3553.65
3528.49
3503.37
3478.79
3455.64
3432.44
3409.98
3388.46
3368.05
3348.85
3330.95
3314.4
3299.24
3285.47
3273.11
3262.12
3252.49
3244.17
3237.14
3231.34
3226.75
3223.33
3221.08
3219.94
3219.91
3221
3223.21
3226.54
3230.99
3236.56
3243.25
3251.08
3260.07
3270.2
3281.5
3293.96
3307.56
3322.28
3338.07
3354.87
3372.6
3391.18
3410.45
3430.28
3450.34
3470.85
3491.48
3511.98
3532.16
3551.78
3570.66
3588.56
3605.31
3620.72
3634.64
3646.91
3657.44
3666.13
3672.91
3677.69
3580.36
3552.78
3524.16
3494.75
3464.94
3435.08
3406.29
3380.15
3351.84
3324.25
3297.85
3272.87
3249.49
3227.82
3207.95
3189.9
3173.69
3159.31
3146.74
3135.91
3126.77
3119.27
3113.34
3108.94
3106.02
3104.58
3104.47
3105.72
3108.37
3112.46
3118.02
3125.06
3133.62
3143.72
3155.39
3168.64
3183.47
3199.84
3217.7
3236.95
3257.47
3279.14
3301.79
3325.28
3349.43
3374.03
3398.5
3423.34
3448.09
3472.53
3496.5
3519.79
3542.22
3563.62
3583.82
3602.65
3619.94
3635.53
3649.25
3660.94
3670.45
3677.63
3682.35
3684.49
3683.88
3680.57
3674.54
3665.79
3654.39
3640.44
3624.06
3605.47
3584.86
3562.49
3538.63
3513.57
3487.6
3461.05
3434.18
3407.04
3380.01
3353.82
3328.72
3304.84
3282.34
3261.32
3241.89
3224.11
3208
3193.56
3180.77
3169.6
3159.99
3151.89
3145.24
3139.96
3135.99
3133.26
3131.74
3131.35
3132.05
3133.81
3136.61
3140.42
3145.26
3151.14
3158.08
3166.11
3175.27
3185.61
3197.15
3209.94
3223.99
3239.32
3255.94
3273.82
3292.94
3313.25
3334.66
3357.09
3380.38
3404.38
3428.89
3453.7
3478.55
3503.18
3527.3
3550.62
3572.83
3593.63
3612.71
3629.81
3644.65
3657.02
3666.74
3673.66
3677.7
3678.79
3676.93
3672.21
3664.69
3654.52
3641.85
3626.91
3609.9
3591.08
3570.72
3549.08
3526.44
3503.07
3479.22
3455.14
3431.05
3407.16
3383.64
3360.65
3338.31
3316.74
3296.01
3276.22
3257.43
3239.67
3223.01
3207.48
3193.12
3179.97
3168.05
3157.39
3148.03
3139.99
3133.3
3127.99
3124.08
3121.6
3120.58
3121.04
3122.97
3126.38
3131.28
3137.67
3145.56
3154.92
3165.74
3177.99
3191.63
3206.62
3222.91
3240.43
3259.1
3278.83
3299.52
3321.05
3343.32
3366.16
3389.45
3413.03
3436.72
3460.36
3483.74
3506.69
3528.99
3550.44
3570.83
3589.96
3607.62
3623.61
3637.72
3649.78
3659.6
3667.02
3671.92
3674.17
3673.67
3670.4
3664.35
3655.52
3643.99
3629.87
3613.29
3594.47
3573.62
3551.02
3526.96
3501.76
3475.75
3449.27
3422.65
3396.22
3370.26
3345.04
3320.81
3297.74
3276
3255.71
3236.93
3219.73
3204.12
3190.09
3177.62
3166.68
3157.2
3149.15
3142.46
3137.08
3132.96
3130.06
3128.35
3127.79
3128.37
3130.07
3132.9
3136.86
3141.98
3148.27
3155.77
3164.5
3174.49
3185.77
3198.36
3212.28
3227.53
3244.1
3261.96
3281.07
3301.35
3322.71
3345.01
3368.1
3392.9
3417.14
3441.63
3466.11
3490.31
3513.96
3536.77
3558.44
3578.69
3597.25
3613.86
3628.29
3640.32
3649.77
3656.49
3660.37
3661.36
3659.68
3655.13
3647.73
3637.55
3624.74
3609.48
3591.97
3572.48
3551.29
3528.7
3505.01
3480.52
3455.52
3430.32
3405.15
3380.54
3357.33
3334.11
3311.62
3290.09
3269.66
3250.46
3232.55
3216.01
3200.84
3187.08
3174.72
3163.74
3154.12
3145.82
3138.79
3133.01
3128.42
3125.01
3122.76
3121.62
3121.59
3122.68
3124.9
3128.22
3132.67
3138.24
3144.92
3152.75
3161.73
3171.86
3183.16
3195.61
3209.22
3223.94
3239.74
3256.55
3274.3
3292.9
3312.2
3332.06
3352.12
3372.68
3393.35
3413.9
3434.11
3453.79
3472.7
3490.65
3507.44
3522.89
3536.83
3549.14
3559.69
3568.4
3575.19
3579.98
3482.5
3454.84
3426.13
3396.64
3366.75
3336.81
3307.98
3281.71
3253.35
3225.73
3199.3
3174.3
3150.91
3129.24
3109.36
3091.32
3075.13
3060.77
3048.2
3037.39
3028.28
3020.79
3014.88
3010.49
3007.59
3006.14
3006.03
3007.28
3009.93
3014.01
3019.56
3026.59
3035.14
3045.23
3056.9
3070.15
3084.98
3101.36
3119.23
3138.5
3159.04
3180.74
3203.43
3226.96
3251.14
3275.79
3300.3
3325.19
3349.98
3374.47
3398.48
3421.82
3444.3
3465.75
3485.99
3504.87
3522.21
3537.84
3551.61
3563.34
3572.89
3580.11
3584.86
3587.01
3586.42
3583.11
3577.07
3568.3
3556.87
3542.87
3526.44
3507.78
3487.1
3464.66
3440.73
3415.59
3389.55
3362.92
3335.98
3308.75
3281.66
3255.42
3230.28
3206.37
3183.84
3162.81
3143.37
3125.59
3109.48
3095.05
3082.27
3071.12
3061.53
3053.45
3046.81
3041.55
3037.59
3034.88
3033.37
3032.99
3033.7
3035.47
3038.26
3042.08
3046.91
3052.78
3059.71
3067.73
3076.89
3087.21
3098.74
3111.52
3125.56
3140.89
3157.5
3175.39
3194.52
3214.83
3236.27
3258.71
3282.04
3306.08
3330.64
3355.5
3380.41
3405.11
3429.31
3452.71
3475
3495.87
3515.03
3532.2
3547.1
3559.53
3569.29
3576.24
3580.28
3581.37
3579.51
3574.76
3567.2
3556.98
3544.26
3529.25
3512.18
3493.29
3472.86
3451.15
3428.44
3405
3381.09
3356.96
3332.83
3308.9
3285.35
3262.33
3239.97
3218.38
3197.64
3177.84
3159.04
3141.28
3124.61
3109.08
3094.71
3081.55
3069.63
3058.97
3049.61
3041.56
3034.87
3029.55
3025.64
3023.16
3022.14
3022.59
3024.52
3027.92
3032.82
3039.21
3047.1
3056.47
3067.29
3079.54
3093.19
3108.18
3124.48
3142.01
3160.7
3180.45
3201.16
3222.72
3245.01
3267.89
3291.21
3314.83
3338.56
3362.24
3385.67
3408.67
3431.02
3452.52
3472.97
3492.16
3509.87
3525.91
3540.08
3552.18
3562.05
3569.51
3574.43
3576.7
3576.22
3572.95
3566.89
3558.04
3546.48
3532.3
3515.68
3496.78
3475.86
3453.18
3429.04
3403.76
3377.66
3351.11
3324.42
3297.92
3271.9
3246.64
3222.36
3199.27
3177.51
3157.2
3138.42
3121.22
3105.62
3091.6
3079.15
3068.22
3058.76
3050.72
3044.05
3038.68
3034.57
3031.68
3029.97
3029.42
3030
3031.7
3034.53
3038.49
3043.6
3049.88
3057.37
3066.09
3076.07
3087.34
3099.92
3113.84
3129.09
3145.66
3163.53
3182.65
3202.94
3224.33
3246.67
3269.82
3294.57
3318.88
3343.44
3367.99
3392.26
3415.98
3438.86
3460.6
3480.93
3499.56
3516.23
3530.72
3542.8
3552.3
3559.05
3562.95
3563.95
3562.27
3557.7
3550.27
3540.05
3527.19
3511.87
3494.29
3474.73
3453.46
3430.79
3407.02
3382.45
3357.39
3332.13
3306.91
3282.26
3258.99
3235.74
3213.22
3191.66
3171.22
3152.01
3134.1
3117.55
3102.39
3088.64
3076.28
3065.31
3055.7
3047.41
3040.39
3034.62
3030.05
3026.64
3024.4
3023.25
3023.23
3024.33
3026.54
3029.86
3034.3
3039.87
3046.55
3054.38
3063.35
3073.47
3084.77
3097.22
3110.83
3125.56
3141.37
3158.19
3175.96
3194.58
3213.92
3233.82
3253.89
3274.5
3295.21
3315.81
3336.08
3355.81
3374.77
3392.77
3409.61
3425.11
3439.09
3451.43
3462.01
3470.74
3477.54
3482.34
3384.68
3356.93
3328.12
3298.53
3268.55
3238.52
3209.64
3183.21
3154.8
3127.14
3100.68
3075.66
3052.25
3030.57
3010.7
2992.67
2976.49
2962.14
2949.6
2938.81
2929.72
2922.25
2916.36
2911.98
2909.09
2907.65
2907.54
2908.78
2911.43
2915.51
2921.04
2928.06
2936.6
2946.68
2958.34
2971.59
2986.43
3002.81
3020.69
3039.99
3060.56
3082.3
3105.02
3128.59
3152.82
3177.52
3202.09
3227.02
3251.87
3276.42
3300.48
3323.87
3346.4
3367.91
3388.21
3407.14
3424.53
3440.22
3454.04
3465.83
3475.42
3482.68
3487.46
3489.64
3489.07
3485.76
3479.71
3470.91
3459.44
3445.39
3428.9
3410.16
3389.41
3366.88
3342.86
3317.63
3291.5
3264.78
3237.76
3210.42
3183.26
3156.97
3131.78
3107.83
3085.27
3064.23
3044.78
3027
3010.89
2996.47
2983.71
2972.57
2963
2954.94
2948.32
2943.08
2939.14
2936.45
2934.95
2934.59
2935.31
2937.08
2939.88
2943.69
2948.52
2954.38
2961.3
2969.31
2978.45
2988.76
3000.28
3013.04
3027.08
3042.4
3059.01
3076.9
3096.03
3116.37
3137.82
3160.3
3183.66
3207.75
3232.37
3257.29
3282.28
3307.05
3331.34
3354.82
3377.2
3398.17
3417.42
3434.67
3449.64
3462.13
3471.94
3478.92
3482.98
3484.07
3482.19
3477.41
3469.82
3459.54
3446.75
3431.67
3414.52
3395.55
3375.03
3353.24
3330.46
3306.94
3282.97
3258.78
3234.59
3210.62
3187.03
3163.97
3141.59
3119.98
3099.23
3079.42
3060.6
3042.84
3026.16
3010.62
2996.25
2983.09
2971.16
2960.5
2951.13
2943.08
2936.38
2931.06
2927.15
2924.66
2923.64
2924.08
2926
2929.41
2934.3
2940.7
2948.58
2957.95
2968.78
2981.03
2994.68
3009.69
3026
3043.55
3062.25
3082.02
3102.76
3124.35
3146.67
3169.59
3192.95
3216.61
3240.39
3264.12
3287.61
3310.66
3333.07
3354.64
3375.15
3394.4
3412.18
3428.28
3442.51
3454.67
3464.59
3472.1
3477.06
3479.35
3478.88
3475.61
3469.54
3460.66
3449.06
3434.83
3418.14
3399.17
3378.16
3355.39
3331.15
3305.77
3279.58
3252.93
3226.16
3199.58
3173.5
3148.18
3123.86
3100.73
3078.95
3058.63
3039.85
3022.65
3007.05
2993.05
2980.61
2969.7
2960.26
2952.24
2945.58
2940.23
2936.14
2933.25
2931.56
2931.01
2931.59
2933.29
2936.11
2940.07
2945.17
2951.45
2958.92
2967.63
2977.6
2988.86
3001.43
3015.34
3030.59
3047.16
3065.03
3084.17
3104.48
3125.89
3148.28
3171.5
3196.21
3220.61
3245.24
3269.86
3294.22
3318.02
3340.99
3362.81
3383.22
3401.94
3418.69
3433.25
3445.39
3454.93
3461.72
3465.65
3466.66
3464.97
3460.39
3452.92
3442.66
3429.74
3414.34
3396.69
3377.03
3355.67
3332.91
3309.04
3284.39
3259.25
3233.92
3208.64
3183.95
3160.6
3137.31
3114.77
3093.18
3072.72
3053.5
3035.58
3019.03
3003.88
2990.13
2977.79
2966.83
2957.23
2948.95
2941.95
2936.19
2931.62
2928.23
2925.99
2924.85
2924.83
2925.92
2928.14
2931.46
2935.9
2941.46
2948.14
2955.96
2964.92
2975.04
2986.33
2998.78
3012.39
3027.13
3042.95
3059.79
3077.58
3096.23
3115.61
3135.56
3155.62
3176.29
3197.07
3217.73
3238.06
3257.85
3276.88
3294.94
3311.83
3327.38
3341.41
3353.79
3364.4
3373.15
3379.97
3384.78
3286.9
3259.04
3230.12
3200.42
3170.33
3140.2
3111.25
3084.65
3056.18
3028.48
3001.98
2976.93
2953.51
2931.83
2911.96
2893.93
2877.77
2863.44
2850.93
2840.16
2831.09
2823.65
2817.78
2813.42
2810.54
2809.1
2808.99
2810.24
2812.88
2816.94
2822.47
2829.48
2838
2848.07
2859.72
2872.96
2887.8
2904.2
2922.1
2941.42
2962.03
2983.8
3006.57
3030.19
3054.47
3079.22
3103.86
3128.85
3153.76
3178.36
3202.49
3225.94
3248.54
3270.11
3290.47
3309.46
3326.92
3342.67
3356.55
3368.39
3378.05
3385.35
3390.17
3392.37
3391.82
3388.52
3382.46
3373.63
3362.11
3347.99
3331.43
3312.62
3291.77
3269.14
3245.02
3219.69
3193.46
3166.64
3139.52
3112.06
3084.82
3058.47
3033.23
3009.23
2986.64
2965.57
2946.12
2928.33
2912.23
2897.83
2885.08
2873.96
2864.41
2856.38
2849.78
2844.56
2840.65
2837.97
2836.49
2836.14
2836.87
2838.65
2841.45
2845.26
2850.09
2855.94
2862.85
2870.84
2879.96
2890.26
2901.76
2914.51
2928.54
2943.85
2960.46
2978.35
2997.49
3017.84
3039.32
3061.83
3085.24
3109.38
3134.07
3159.07
3184.13
3209
3233.38
3256.97
3279.46
3300.53
3319.88
3337.22
3352.28
3364.84
3374.7
3381.72
3385.8
3386.89
3385
3380.18
3372.53
3362.19
3349.33
3334.16
3316.92
3297.86
3277.25
3255.37
3232.49
3208.89
3184.84
3160.57
3136.33
3112.3
3088.67
3065.58
3043.17
3021.53
3000.77
2980.94
2962.12
2944.34
2927.66
2912.12
2897.74
2884.57
2872.64
2861.98
2852.6
2844.55
2837.84
2832.52
2828.59
2826.11
2825.08
2825.52
2827.43
2830.83
2835.73
2842.12
2850.01
2859.37
2870.2
2882.46
2896.12
2911.14
2927.46
2945.03
2963.75
2983.55
3004.31
3025.94
3048.29
3071.25
3094.66
3118.37
3142.21
3165.99
3189.55
3212.67
3235.15
3256.79
3277.38
3296.7
3314.55
3330.72
3345.02
3357.25
3367.22
3374.78
3379.78
3382.1
3381.65
3378.39
3372.29
3363.39
3351.74
3337.45
3320.68
3301.62
3280.52
3257.64
3233.29
3207.8
3181.5
3154.75
3127.87
3101.21
3075.05
3049.67
3025.3
3002.13
2980.33
2959.99
2941.2
2924.01
2908.42
2894.43
2882.01
2871.12
2861.7
2853.7
2847.06
2841.73
2837.65
2834.78
2833.09
2832.55
2833.13
2834.83
2837.65
2841.6
2846.69
2852.96
2860.42
2869.12
2879.07
2890.32
2902.89
2916.79
2932.03
2948.6
2966.48
2985.63
3005.97
3027.41
3049.85
3073.14
3097.81
3122.3
3147.02
3171.73
3196.18
3220.08
3243.14
3265.07
3285.57
3304.38
3321.22
3335.86
3348.07
3357.67
3364.51
3368.46
3369.48
3367.79
3363.19
3355.68
3345.37
3332.38
3316.9
3299.15
3279.39
3257.92
3235.05
3211.09
3186.34
3161.11
3135.7
3110.35
3085.6
3062.17
3038.84
3016.26
2994.65
2974.17
2954.93
2937
2920.45
2905.3
2891.56
2879.23
2868.29
2858.7
2850.44
2843.45
2837.71
2833.16
2829.78
2827.54
2826.4
2826.38
2827.48
2829.69
2833.01
2837.45
2843
2849.68
2857.49
2866.45
2876.56
2887.84
2900.3
2913.91
2928.65
2944.49
2961.34
2979.16
2997.84
3017.26
3037.27
3057.34
3078.08
3098.92
3119.65
3140.05
3159.91
3179.01
3197.13
3214.1
3229.7
3243.79
3256.21
3266.86
3275.64
3282.48
3287.31
3189.17
3161.18
3132.13
3102.3
3072.09
3041.85
3012.83
2986.03
2957.5
2929.75
2903.21
2878.13
2854.69
2833
2813.13
2795.12
2778.97
2764.67
2752.18
2741.44
2732.4
2724.98
2719.13
2714.8
2711.93
2710.5
2710.39
2711.63
2714.26
2718.32
2723.83
2730.83
2739.33
2749.39
2761.03
2774.27
2789.11
2805.52
2823.44
2842.79
2863.44
2885.26
2908.08
2931.75
2956.09
2980.9
3005.61
3030.67
3055.65
3080.32
3104.52
3128.04
3150.7
3172.34
3192.77
3211.84
3229.37
3245.18
3259.13
3271.05
3280.76
3288.12
3292.97
3295.21
3294.69
3291.39
3285.31
3276.44
3264.87
3250.69
3234.05
3215.14
3194.19
3171.45
3147.22
3121.77
3095.42
3068.5
3041.27
3013.66
2986.34
2959.91
2934.61
2910.57
2887.94
2866.85
2847.39
2829.6
2813.51
2799.11
2786.38
2775.29
2765.76
2757.75
2751.19
2745.99
2742.1
2739.45
2737.99
2737.65
2738.4
2740.18
2742.98
2746.79
2751.61
2757.46
2764.35
2772.33
2781.43
2791.71
2803.2
2815.93
2829.95
2845.25
2861.86
2879.75
2898.9
2919.27
2940.77
2963.32
2986.78
3010.98
3035.74
3060.82
3085.98
3110.95
3135.44
3159.15
3181.75
3202.94
3222.41
3239.85
3255.01
3267.64
3277.57
3284.63
3288.73
3289.82
3287.91
3283.06
3275.35
3264.93
3251.99
3236.73
3219.38
3200.22
3179.5
3157.52
3134.54
3110.84
3086.7
3062.36
3038.04
3013.96
2990.28
2967.15
2944.7
2923.05
2902.26
2882.42
2863.58
2845.8
2829.11
2813.56
2799.18
2786.01
2774.07
2763.4
2754.02
2745.96
2739.25
2733.91
2729.99
2727.49
2726.46
2726.9
2728.81
2732.2
2737.09
2743.48
2751.37
2760.74
2771.57
2783.84
2797.5
2812.53
2828.87
2846.46
2865.2
2885.03
2905.82
2927.49
2949.88
2972.89
2996.35
3020.11
3044.01
3067.87
3091.49
3114.69
3137.25
3158.97
3179.64
3199.04
3216.98
3233.23
3247.61
3259.91
3269.95
3277.56
3282.61
3284.96
3284.53
3281.27
3275.16
3266.22
3254.51
3240.16
3223.3
3204.15
3182.93
3159.93
3135.46
3109.84
3083.42
3056.55
3029.57
3002.8
2976.55
2951.1
2926.67
2903.47
2881.63
2861.28
2842.49
2825.3
2809.72
2795.75
2783.35
2772.48
2763.09
2755.11
2748.49
2743.18
2739.12
2736.26
2734.58
2734.05
2734.63
2736.33
2739.15
2743.09
2748.17
2754.42
2761.87
2770.55
2780.5
2791.73
2804.28
2818.17
2833.41
2849.99
2867.88
2887.04
2907.4
2928.89
2951.37
2974.74
2999.39
3023.98
3048.79
3073.6
3098.15
3122.16
3145.33
3167.37
3187.98
3206.9
3223.83
3238.57
3250.85
3260.52
3267.4
3271.39
3272.41
3270.72
3266.1
3258.55
3248.18
3235.11
3219.54
3201.68
3181.81
3160.22
3137.23
3113.15
3088.29
3062.96
3037.45
3012.03
2987.23
2963.7
2940.32
2917.7
2896.06
2875.55
2856.3
2838.37
2821.82
2806.67
2792.94
2780.62
2769.69
2760.12
2751.87
2744.91
2739.18
2734.64
2731.27
2729.04
2727.91
2727.9
2728.99
2731.21
2734.52
2738.96
2744.51
2751.17
2758.97
2767.92
2778.03
2789.31
2801.76
2815.38
2830.13
2845.97
2862.85
2880.7
2899.41
2918.88
2938.96
2959.03
2979.85
3000.77
3021.57
3042.05
3061.99
3081.17
3099.37
3116.41
3132.08
3146.23
3158.7
3169.39
3178.2
3185.07
3189.91
3091.47
3063.34
3034.15
3004.18
2973.83
2943.47
2914.37
2887.36
2858.76
2830.94
2804.35
2779.25
2755.79
2734.09
2714.22
2696.22
2680.1
2665.82
2653.36
2642.65
2633.64
2626.25
2620.43
2616.11
2613.26
2611.84
2611.73
2612.97
2615.6
2619.64
2625.14
2632.12
2640.61
2650.65
2662.27
2675.51
2690.36
2706.78
2724.72
2744.11
2764.79
2786.66
2809.54
2833.27
2857.68
2882.55
2907.35
2932.48
2957.53
2982.28
3006.55
3030.15
3052.9
3074.61
3095.12
3114.27
3131.87
3147.77
3161.8
3173.78
3183.56
3190.98
3195.89
3198.16
3197.66
3194.36
3188.26
3179.36
3167.73
3153.48
3136.75
3117.73
3096.67
3073.81
3049.44
3023.86
2997.39
2970.34
2943
2915.23
2887.81
2861.3
2835.93
2811.84
2789.18
2768.06
2748.58
2730.79
2714.71
2700.33
2687.62
2676.55
2667.06
2659.07
2652.54
2647.37
2643.5
2640.88
2639.44
2639.12
2639.88
2641.67
2644.48
2648.29
2653.1
2658.93
2665.81
2673.77
2682.85
2693.11
2704.58
2717.3
2731.3
2746.59
2763.19
2781.09
2800.25
2820.64
2842.17
2864.76
2888.27
2912.55
2937.38
2962.56