/*--------------------------------*- C++ -*----------------------------------*\
| =========                 |                                                 |
| \\      /  F ield         | OpenFOAM: The Open Source CFD Toolbox           |
|  \\    /   O peration     | Version:  3.0.1                                 |
|   \\  /    A nd           | Web:      www.OpenFOAM.org                      |
|    \\/     M anipulation  |                                                 |
\*---------------------------------------------------------------------------*/
FoamFile
{
    version     2.0;
    format      ascii;
    class       volScalarField;
    location    "63.6";
    object      p_rgh;
}
// * * * * * * * * * * * * * * * * * * * * * * * * * * * * * * * * * * * * * //

dimensions      [1 -1 -2 0 0 0 0];

internalField   nonuniform List<scalar> 
21420
(
-355.087
-356.123
-356.096
-355.003
-352.834
-349.566
-345.214
-339.763
-333.206
-325.543
-316.768
-306.873
-295.69
-283.467
-270.053
-255.44
-239.573
-222.431
-203.989
-184.209
-163.078
-140.594
-116.769
-91.6336
-65.2581
-37.7336
-9.20466
20.1417
50.1199
80.4588
110.835
140.958
170.46
198.972
226.103
251.44
274.644
295.361
313.241
328.006
339.41
347.256
351.44
351.73
348.362
341.213
330.353
316.06
298.546
278.049
254.917
229.498
202.151
173.255
143.157
112.252
80.9002
49.4162
18.1198
-12.7155
-42.8452
-72.0553
-100.163
-127.011
-152.479
-176.471
-198.917
-219.795
-239.101
-256.766
-271.781
-285.901
-298.733
-310.282
-320.671
-330.133
-338.81
-346.788
-354.134
-360.847
-366.888
-372.157
-376.526
-379.916
-382.251
-383.254
-382.673
-380.536
-376.814
-371.531
-364.698
-356.382
-346.643
-335.528
-323.023
-309.106
-293.723
-276.829
-258.34
-238.31
-216.694
-193.487
-168.717
-142.444
-114.767
-85.8239
-55.7949
-24.9036
6.58821
38.3844
70.16
101.565
132.229
161.769
189.8
215.929
239.769
260.961
279.172
294.098
305.479
313.118
316.788
316.553
312.276
304.027
291.878
276.013
256.662
234.103
208.669
180.735
150.711
119.034
86.1552
52.5251
18.5843
-15.2564
-48.617
-81.1606
-112.605
-142.72
-171.327
-198.301
-223.558
-247.051
-268.746
-288.709
-306.951
-323.505
-338.407
-351.703
-363.44
-373.669
-382.447
-389.836
-395.903
-400.715
-404.341
-406.853
-408.306
-408.745
-408.203
-406.696
-404.227
-400.781
-396.33
-390.831
-384.229
-376.464
-367.466
-357.163
-345.434
-332.275
-317.568
-301.248
-283.261
-263.567
-242.138
-218.971
-194.086
-167.535
-139.404
-109.817
-78.9398
-46.9836
-14.2019
19.1078
52.6087
85.9288
118.665
150.398
180.685
209.081
235.145
258.455
278.606
295.238
308.032
316.735
321.139
321.13
316.718
308.005
295.032
278.066
257.397
233.382
206.438
177.017
145.603
112.699
78.8105
44.422
9.99262
-24.0626
-57.3826
-89.664
-120.667
-150.209
-178.161
-204.44
-228.999
-251.824
-272.927
-292.335
-310.089
-326.238
-340.845
-353.969
-365.669
-376.004
-385.025
-392.777
-399.298
-404.621
-408.772
-411.774
-413.641
-414.382
-413.998
-412.488
-409.838
-406.03
-401.062
-394.921
-387.599
-379.089
-369.377
-358.447
-346.269
-332.804
-318.007
-301.831
-284.207
-265.106
-244.551
-222.535
-199.079
-174.238
-148.097
-120.769
-92.4134
-63.2212
-33.4211
-3.2574
27.0064
57.1099
86.7702
115.676
143.501
169.921
194.619
217.315
237.744
255.671
270.877
283.16
292.33
298.257
300.76
299.554
295.083
288.805
279.532
266.971
251.765
234.231
214.466
192.803
169.477
144.83
119.258
93.0358
66.5185
40.0562
13.8734
-11.759
-36.6251
-60.5797
-83.4552
-105.171
-125.629
-144.753
-162.524
-178.95
-194.036
-207.19
-218.004
-228.302
-237.678
-246.001
-253.258
-259.474
-264.701
-268.995
-272.411
-274.992
-276.767
-277.745
-277.927
-277.124
-275.434
-272.751
-268.983
-264.032
-257.802
-250.197
-241.14
-230.56
-218.374
-204.44
-188.904
-171.692
-152.84
-132.36
-110.315
-86.788
-61.8645
-35.6861
-8.40877
19.8244
48.8078
78.3404
108.157
137.969
167.509
196.44
224.412
251.146
276.3
299.575
320.655
339.254
355.146
368.067
377.732
-355.129
-356.165
-356.138
-355.045
-352.877
-349.609
-345.257
-339.806
-333.25
-325.588
-316.813
-306.917
-295.741
-283.517
-270.105
-255.493
-239.628
-222.489
-204.049
-184.272
-163.142
-140.66
-116.836
-91.7
-65.3227
-37.7948
-9.26084
20.0925
50.0798
80.4299
110.819
140.957
170.475
199.003
226.152
251.507
274.727
295.46
313.355
328.132
339.546
347.401
351.589
351.887
348.499
341.348
330.482
316.178
298.649
278.137
254.987
229.551
202.186
173.273
143.158
112.238
80.8735
49.3782
18.0722
-12.7709
-42.9068
-72.1215
-100.232
-127.083
-152.552
-176.545
-198.991
-219.868
-239.173
-256.837
-271.854
-285.968
-298.789
-310.333
-320.714
-330.168
-338.838
-346.81
-354.152
-360.862
-366.901
-372.172
-376.546
-379.942
-382.279
-383.288
-382.713
-380.58
-376.863
-371.583
-364.754
-356.441
-346.705
-335.594
-323.092
-309.177
-293.798
-276.908
-258.419
-238.392
-216.777
-193.571
-168.8
-142.525
-114.844
-85.8949
-55.8583
-24.9574
6.54548
38.3543
70.1441
101.564
132.245
161.802
189.85
215.996
239.853
261.06
279.286
294.223
305.614
313.26
316.942
316.694
312.42
304.165
292.008
276.132
256.767
234.191
208.739
180.785
150.741
119.045
86.1468
52.4987
18.5414
-15.3135
-48.6857
-81.2388
-112.691
-142.81
-171.421
-198.395
-223.652
-247.145
-268.838
-288.799
-307.039
-323.591
-338.49
-351.783
-363.518
-373.745
-382.52
-389.906
-395.97
-400.779
-404.402
-406.912
-408.363
-408.801
-408.257
-406.751
-404.281
-400.837
-396.387
-390.89
-384.291
-376.528
-367.532
-357.231
-345.509
-332.352
-317.648
-301.331
-283.346
-263.654
-242.226
-219.058
-194.173
-167.62
-139.485
-109.893
-79.0091
-47.0443
-14.2523
19.0697
52.5844
85.9201
118.673
150.424
180.73
209.145
235.229
258.556
278.725
295.371
308.178
316.889
321.306
321.286
316.872
308.152
295.17
278.19
257.503
233.47
206.504
177.061
145.626
112.701
78.7924
44.3859
9.94093
-24.1274
-57.4578
-89.7469
-120.755
-150.301
-178.254
-204.534
-229.092
-251.916
-273.017
-292.423
-310.174
-326.32
-340.924
-354.044
-365.742
-376.074
-385.092
-392.842
-399.362
-404.683
-408.833
-411.834
-413.7
-414.44
-414.057
-412.546
-409.895
-406.088
-401.121
-394.98
-387.659
-379.149
-369.438
-358.509
-346.333
-332.87
-318.076
-301.901
-284.28
-265.18
-244.626
-222.61
-199.154
-174.311
-148.166
-120.834
-92.4719
-63.2721
-33.4632
-3.28965
26.9856
57.1023
86.7771
115.699
143.54
169.975
194.688
217.4
237.843
255.784
271.001
283.294
292.473
298.404
300.91
299.733
295.294
288.959
279.66
267.104
251.896
234.349
214.567
192.886
169.541
144.875
119.285
93.0463
66.5145
40.0395
13.8463
-11.7947
-36.6678
-60.6277
-83.5073
-105.226
-125.687
-144.812
-162.585
-179.011
-194.096
-207.235
-218.057
-228.353
-237.728
-246.049
-253.302
-259.515
-264.739
-269.031
-272.444
-275.024
-276.798
-277.776
-277.958
-277.159
-275.473
-272.793
-269.029
-264.082
-257.856
-250.256
-241.202
-230.626
-218.443
-204.511
-188.975
-171.764
-152.912
-132.432
-110.385
-86.8561
-61.9292
-35.7465
-8.46409
19.7752
48.766
78.3075
108.134
137.959
167.512
196.456
224.442
251.191
276.36
299.648
320.742
339.353
355.255
368.185
377.855
-355.215
-356.25
-356.223
-355.129
-352.963
-349.694
-345.343
-339.893
-333.338
-325.677
-316.904
-307.005
-295.842
-283.617
-270.208
-255.6
-239.74
-222.605
-204.17
-184.398
-163.272
-140.793
-116.97
-91.8325
-65.4517
-37.917
-9.37288
19.9944
50
80.3726
110.788
140.955
170.505
199.067
226.25
251.64
274.895
295.659
313.584
328.385
339.819
347.689
351.88
352.204
348.777
341.621
330.741
316.415
298.858
278.313
255.129
229.657
202.256
173.308
143.161
112.211
80.8201
49.302
17.9769
-12.8818
-43.0298
-72.2538
-100.371
-127.226
-152.698
-176.692
-199.138
-220.013
-239.315
-256.977
-271.999
-286.099
-298.9
-310.432
-320.797
-330.234
-338.889
-346.848
-354.18
-360.883
-366.921
-372.194
-376.577
-379.986
-382.325
-383.346
-382.781
-380.658
-376.949
-371.677
-364.853
-356.545
-346.816
-335.709
-323.215
-309.306
-293.932
-277.049
-258.562
-238.541
-216.928
-193.722
-168.949
-142.669
-114.979
-86.0185
-55.9665
-25.0463
6.47923
38.3136
70.1319
101.582
132.296
161.888
189.97
216.151
240.042
261.281
279.535
294.496
305.907
313.566
317.272
316.999
312.73
304.464
292.291
276.393
257
234.391
208.903
180.911
150.827
119.092
86.1559
52.4726
18.4832
-15.3993
-48.7939
-81.3652
-112.83
-142.959
-171.575
-198.552
-223.809
-247.299
-268.988
-288.944
-307.18
-323.727
-338.622
-351.91
-363.64
-373.862
-382.631
-390.013
-396.071
-400.873
-404.492
-406.997
-408.445
-408.88
-408.336
-406.829
-404.361
-400.919
-396.473
-390.98
-384.386
-376.629
-367.639
-357.344
-345.633
-332.481
-317.783
-301.472
-283.492
-263.803
-242.377
-219.211
-194.324
-167.767
-139.625
-110.022
-79.1247
-47.1426
-14.3298
19.0166
52.559
85.9259
118.714
150.5
180.844
209.296
235.419
258.784
278.986
295.662
308.492
317.222
321.663
321.623
317.206
308.473
295.47
278.462
257.741
233.67
206.662
177.176
145.698
112.732
78.7844
44.3426
9.86725
-24.2266
-57.5768
-89.8809
-120.9
-150.451
-178.409
-204.688
-229.245
-252.066
-273.163
-292.564
-310.309
-326.449
-341.047
-354.162
-365.854
-376.181
-385.196
-392.942
-399.458
-404.777
-408.925
-411.925
-413.79
-414.531
-414.147
-412.637
-409.987
-406.181
-401.215
-395.075
-387.754
-379.245
-369.537
-358.611
-346.438
-332.981
-318.191
-302.02
-284.405
-265.307
-244.755
-222.739
-199.281
-174.434
-148.283
-120.942
-92.5676
-63.3529
-33.5261
-3.33311
26.965
57.1082
86.8116
115.764
143.637
170.103
194.848
217.588
238.06
256.028
271.268
283.579
292.774
298.714
301.228
300.105
295.711
289.271
279.922
267.38
252.163
234.588
214.772
193.053
169.669
144.965
119.339
93.0682
66.5069
40.0065
13.7921
-11.8643
-36.753
-60.7238
-83.6115
-105.336
-125.801
-144.93
-162.706
-179.133
-194.215
-207.325
-218.162
-228.456
-237.827
-246.143
-253.39
-259.597
-264.815
-269.101
-272.511
-275.088
-276.861
-277.839
-278.021
-277.229
-275.551
-272.878
-269.122
-264.183
-257.965
-250.372
-241.326
-230.757
-218.581
-204.651
-189.117
-171.908
-153.057
-132.575
-110.526
-86.9921
-62.0584
-35.8672
-8.57458
19.6771
48.6826
78.2418
108.09
137.937
167.517
196.489
224.503
251.281
276.478
299.795
320.915
339.551
355.474
368.421
378.103
-355.343
-356.376
-356.349
-355.255
-353.091
-349.822
-345.473
-340.024
-333.469
-325.811
-317.039
-307.138
-295.993
-283.766
-270.362
-255.759
-239.906
-222.779
-204.351
-184.586
-163.466
-140.991
-117.17
-92.0315
-65.6453
-38.1006
-9.5412
19.847
49.8801
80.2863
110.741
140.952
170.549
199.162
226.398
251.84
275.145
295.959
313.927
328.766
340.229
348.12
352.319
352.671
349.202
342.031
331.13
316.769
299.17
278.576
255.341
229.815
202.361
173.361
143.165
112.17
80.7397
49.1875
17.8337
-13.0483
-43.2146
-72.4525
-100.58
-127.441
-152.917
-176.912
-199.358
-220.231
-239.527
-257.188
-272.216
-286.297
-299.066
-310.58
-320.922
-330.334
-338.965
-346.904
-354.222
-360.916
-366.95
-372.225
-376.625
-380.05
-382.394
-383.431
-382.883
-380.774
-377.078
-371.815
-365.002
-356.701
-346.981
-335.881
-323.397
-309.498
-294.132
-277.259
-258.776
-238.762
-217.153
-193.947
-169.171
-142.884
-115.181
-86.2025
-56.1273
-25.1784
6.38116
38.2541
70.115
101.612
132.374
162.018
190.153
216.385
240.327
261.614
279.911
294.909
306.347
314.026
317.761
317.466
313.198
304.915
292.717
276.787
257.351
234.693
209.151
181.101
150.959
119.165
86.172
52.436
18.3987
-15.5248
-48.9532
-81.5518
-113.037
-143.18
-171.804
-198.784
-224.04
-247.528
-269.208
-289.158
-307.388
-323.927
-338.815
-352.096
-363.819
-374.033
-382.795
-390.168
-396.218
-401.011
-404.623
-407.121
-408.563
-408.995
-408.449
-406.942
-404.477
-401.038
-396.598
-391.111
-384.525
-376.777
-367.797
-357.51
-345.813
-332.671
-317.982
-301.68
-283.708
-264.025
-242.603
-219.437
-194.547
-167.984
-139.831
-110.213
-79.2954
-47.2873
-14.4434
18.9396
52.524
85.9374
118.776
150.617
181.017
209.528
235.708
259.128
279.381
296.101
308.969
317.724
322.186
322.145
317.715
308.959
295.926
278.875
258.103
233.974
206.904
177.353
145.811
112.783
78.7763
44.2816
9.76039
-24.3717
-57.7518
-90.0784
-121.113
-150.674
-178.636
-204.917
-229.471
-252.288
-273.379
-292.772
-310.509
-326.64
-341.23
-354.335
-366.019
-376.339
-385.347
-393.089
-399.6
-404.915
-409.061
-412.058
-413.922
-414.662
-414.28
-412.771
-410.121
-406.318
-401.353
-395.214
-387.895
-379.388
-369.682
-358.76
-346.594
-333.143
-318.362
-302.197
-284.588
-265.495
-244.946
-222.93
-199.47
-174.617
-148.455
-121.101
-92.7086
-63.4717
-33.6181
-3.39545
26.9369
57.1201
86.8666
115.865
143.785
170.298
195.089
217.875
238.389
256.396
271.671
284.011
293.228
299.184
301.711
300.649
296.306
289.754
280.337
267.8
252.565
234.947
215.079
193.304
169.863
145.101
119.421
93.1007
66.4952
39.9567
13.7109
-11.9743
-36.8814
-60.8681
-83.7679
-105.502
-125.974
-145.108
-162.889
-179.317
-194.395
-207.461
-218.319
-228.609
-237.975
-246.284
-253.522
-259.72
-264.928
-269.207
-272.611
-275.184
-276.955
-277.933
-278.114
-277.335
-275.667
-273.006
-269.261
-264.335
-258.129
-250.547
-241.512
-230.954
-218.789
-204.862
-189.331
-172.124
-153.275
-132.791
-110.738
-87.1963
-62.2523
-36.0484
-8.74045
19.5297
48.5573
78.143
108.022
137.906
167.524
196.538
224.595
251.415
276.656
300.015
321.175
339.848
355.803
368.776
378.475
-355.513
-356.546
-356.518
-355.423
-353.261
-349.993
-345.645
-340.198
-333.645
-325.989
-317.22
-307.319
-296.191
-283.965
-270.566
-255.971
-240.129
-223.012
-204.593
-184.838
-163.726
-141.256
-117.438
-92.2971
-65.9038
-38.3457
-9.76609
19.6501
49.7197
80.1708
110.678
140.948
170.609
199.289
226.594
252.106
275.48
296.358
314.384
329.273
340.777
348.695
352.905
353.28
349.783
342.582
331.65
317.243
299.586
278.928
255.623
230.026
202.5
173.431
143.17
112.116
80.6322
49.0344
17.6424
-13.2708
-43.4613
-72.7177
-100.858
-127.728
-153.209
-177.206
-199.652
-220.521
-239.812
-257.468
-272.504
-286.561
-299.288
-310.777
-321.088
-330.467
-339.067
-346.98
-354.278
-360.959
-366.988
-372.268
-376.686
-380.132
-382.492
-383.546
-383.018
-380.929
-377.249
-372.001
-365.199
-356.909
-347.2
-336.111
-323.639
-309.753
-294.399
-277.537
-259.061
-239.057
-217.452
-194.247
-169.467
-143.17
-115.451
-86.4483
-56.3421
-25.3549
6.24975
38.1742
70.0919
101.65
132.478
162.191
190.395
216.697
240.707
262.058
280.411
295.458
306.935
314.638
318.399
318.1
313.823
305.516
293.286
277.31
257.818
235.096
209.481
181.354
151.134
119.261
86.1928
52.3864
18.2855
-15.6926
-49.1662
-81.8009
-113.313
-143.474
-172.109
-199.092
-224.348
-247.833
-269.499
-289.444
-307.665
-324.194
-339.072
-352.344
-364.057
-374.262
-383.013
-390.375
-396.413
-401.195
-404.797
-407.286
-408.721
-409.149
-408.6
-407.093
-404.63
-401.197
-396.763
-391.286
-384.711
-376.974
-368.006
-357.731
-346.053
-332.924
-318.248
-301.957
-283.996
-264.32
-242.902
-219.738
-194.844
-168.273
-140.106
-110.468
-79.523
-47.4804
-14.5948
18.8372
52.4774
85.9528
118.86
150.773
181.249
209.837
236.094
259.588
279.909
296.689
309.605
318.394
322.871
322.85
318.401
309.611
296.535
279.427
258.587
234.38
207.227
177.59
145.962
112.851
78.7658
44.2006
9.61773
-24.5651
-57.985
-90.3418
-121.396
-150.971
-178.939
-205.221
-229.773
-252.584
-273.666
-293.049
-310.775
-326.895
-341.472
-354.565
-366.239
-376.549
-385.549
-393.283
-399.789
-405.099
-409.241
-412.235
-414.098
-414.838
-414.456
-412.948
-410.3
-406.499
-401.536
-395.399
-388.081
-379.577
-369.876
-358.96
-346.801
-333.36
-318.588
-302.433
-284.834
-265.746
-245.201
-223.185
-199.721
-174.861
-148.686
-121.313
-92.8965
-63.6301
-33.7408
-3.47796
26.9002
57.1364
86.9406
116.001
143.983
170.56
195.413
218.258
238.83
256.889
272.21
284.589
293.837
299.815
302.361
301.359
297.051
290.408
280.918
268.371
253.102
235.427
215.489
193.639
170.12
145.282
119.53
93.1437
66.4791
39.8899
13.602
-12.1183
-37.0529
-61.0608
-83.9768
-105.722
-126.203
-145.345
-163.132
-179.563
-194.635
-207.642
-218.528
-228.814
-238.174
-246.473
-253.699
-259.883
-265.08
-269.348
-272.744
-275.312
-277.08
-278.058
-278.239
-277.475
-275.822
-273.175
-269.447
-264.536
-258.347
-250.781
-241.76
-231.216
-219.067
-205.142
-189.616
-172.413
-153.565
-133.08
-111.02
-87.4687
-62.5111
-36.2902
-8.96185
19.3329
48.3899
78.011
107.932
137.863
167.534
196.603
224.717
251.594
276.893
300.308
321.523
340.244
356.242
369.249
378.973
-355.727
-356.757
-356.728
-355.634
-353.472
-350.206
-345.86
-340.415
-333.865
-326.212
-317.447
-307.548
-296.436
-284.212
-270.821
-256.237
-240.407
-223.302
-204.895
-185.152
-164.05
-141.588
-117.772
-92.6295
-66.2275
-38.6528
-10.0479
19.4031
49.5185
80.0258
110.599
140.943
170.683
199.446
226.839
252.439
275.897
296.856
314.956
329.907
341.461
349.415
353.641
354.028
350.519
343.276
332.301
317.835
300.107
279.368
255.977
230.29
202.674
173.519
143.175
112.047
80.4972
48.8423
17.4025
-13.5497
-43.7702
-73.0496
-101.206
-128.087
-153.574
-177.575
-200.019
-220.885
-240.168
-257.819
-272.864
-286.891
-299.568
-311.022
-321.296
-330.634
-339.195
-347.074
-354.347
-361.013
-367.036
-372.321
-376.758
-380.231
-382.616
-383.69
-383.188
-381.123
-377.463
-372.233
-365.445
-357.17
-347.474
-336.399
-323.943
-310.072
-294.733
-277.88
-259.425
-239.426
-217.827
-194.623
-169.838
-143.529
-115.789
-86.7565
-56.6115
-25.5765
6.0845
38.0732
70.062
101.698
132.608
162.406
190.698
217.087
241.182
262.613
281.037
296.144
307.669
315.405
319.187
318.899
314.605
306.268
293.997
277.964
258.401
235.598
209.893
181.67
151.351
119.381
86.2173
52.3227
18.1427
-15.9038
-49.434
-82.1137
-113.659
-143.842
-172.49
-199.479
-224.733
-248.215
-269.864
-289.801
-308.011
-324.528
-339.394
-352.654
-364.356
-374.548
-383.286
-390.634
-396.657
-401.425
-405.014
-407.492
-408.919
-409.34
-408.789
-407.282
-404.822
-401.395
-396.971
-391.505
-384.943
-377.221
-368.268
-358.009
-346.352
-333.241
-318.58
-302.305
-284.355
-264.689
-243.278
-220.114
-195.217
-168.635
-140.451
-110.787
-79.8082
-47.7226
-14.7847
18.7084
52.4185
85.9716
118.964
150.968
181.538
210.223
236.576
260.162
280.57
297.425
310.401
319.234
323.729
323.725
319.262
310.427
297.297
280.117
259.191
234.888
207.631
177.887
146.151
112.935
78.7519
44.0982
9.43831
-24.8077
-58.2778
-90.672
-121.752
-151.342
-179.319
-205.602
-230.15
-252.953
-274.025
-293.396
-311.108
-327.213
-341.775
-354.854
-366.513
-376.812
-385.802
-393.527
-400.025
-405.329
-409.466
-412.457
-414.318
-415.057
-414.676
-413.17
-410.524
-406.726
-401.765
-395.63
-388.315
-379.814
-370.118
-359.209
-347.061
-333.631
-318.872
-302.729
-285.143
-266.058
-245.519
-223.504
-200.036
-175.166
-148.975
-121.579
-93.1321
-63.8288
-33.8953
-3.58113
26.8546
57.1565
87.033
116.17
144.232
170.887
195.818
218.738
239.381
257.506
272.885
285.313
294.601
300.609
303.18
302.232
297.943
291.233
281.672
269.095
253.776
236.027
216.002
194.057
170.442
145.508
119.665
93.1966
66.4582
39.8055
13.4651
-12.3009
-37.2678
-61.3023
-84.2384
-105.998
-126.491
-145.641
-163.436
-179.873
-194.935
-207.871
-218.787
-229.069
-238.422
-246.708
-253.919
-260.088
-265.269
-269.524
-272.91
-275.472
-277.237
-278.214
-278.396
-277.65
-276.016
-273.388
-269.679
-264.789
-258.619
-251.073
-242.07
-231.544
-219.412
-205.495
-189.972
-172.774
-153.928
-133.44
-111.373
-87.8096
-62.8349
-36.5929
-9.23899
19.0864
48.18
77.8454
107.818
137.809
167.546
196.684
224.868
251.818
277.189
300.675
321.957
340.74
356.791
369.842
379.596
-355.982
-357.011
-356.981
-355.887
-353.724
-350.462
-346.118
-340.676
-334.129
-326.479
-317.719
-307.825
-296.729
-284.507
-271.127
-256.556
-240.74
-223.65
-205.259
-185.53
-164.439
-141.986
-118.175
-93.029
-66.6166
-39.0221
-10.3872
19.1057
49.2758
79.8506
110.502
140.935
170.771
199.635
227.133
252.838
276.399
297.455
315.643
330.669
342.283
350.279
354.527
354.921
351.404
344.111
333.083
318.546
300.732
279.895
256.4
230.606
202.882
173.623
143.181
111.963
80.334
48.6106
17.1135
-13.8851
-44.1418
-73.4485
-101.624
-128.519
-154.013
-178.017
-200.461
-221.321
-240.598
-258.24
-273.294
-287.288
-299.908
-311.314
-321.546
-330.834
-339.348
-347.186
-354.43
-361.077
-367.093
-372.385
-376.844
-380.349
-382.764
-383.863
-383.392
-381.354
-377.719
-372.51
-365.741
-357.482
-347.802
-336.744
-324.307
-310.455
-295.133
-278.293
-259.86
-239.869
-218.277
-195.075
-170.284
-143.96
-116.195
-87.1274
-56.9359
-25.8435
5.88508
37.9508
70.025
101.753
132.762
162.663
191.06
217.554
241.751
263.278
281.787
296.967
308.55
316.326
320.131
319.858
315.542
307.172
294.849
278.748
259.102
236.201
210.387
182.049
151.611
119.522
86.245
52.2445
17.9696
-16.159
-49.7572
-82.4907
-114.076
-144.286
-172.95
-199.945
-225.197
-248.674
-270.303
-290.231
-308.427
-324.929
-339.781
-353.027
-364.714
-374.891
-383.614
-390.945
-396.95
-401.702
-405.275
-407.74
-409.156
-409.57
-409.015
-407.508
-405.052
-401.633
-397.219
-391.767
-385.221
-377.517
-368.583
-358.344
-346.711
-333.621
-318.98
-302.721
-284.787
-265.133
-243.729
-220.567
-195.665
-169.07
-140.865
-111.172
-80.1516
-48.0145
-15.0138
18.5528
52.3466
85.9933
119.088
151.2
181.885
210.687
237.155
260.853
281.363
298.308
311.358
320.242
324.764
324.774
320.295
311.409
298.213
280.947
259.917
235.498
208.116
178.242
146.376
113.035
78.734
43.9737
9.22164
-25.1005
-58.6309
-91.0695
-122.18
-151.789
-179.775
-206.06
-230.603
-253.397
-274.457
-293.813
-311.508
-327.595
-342.138
-355.2
-366.843
-377.127
-386.105
-393.819
-400.309
-405.605
-409.736
-412.723
-414.582
-415.321
-414.94
-413.436
-410.793
-406.999
-402.04
-395.908
-388.595
-380.098
-370.408
-359.509
-347.372
-333.956
-319.212
-303.084
-285.514
-266.433
-245.901
-223.887
-200.414
-175.533
-149.323
-121.899
-93.416
-64.068
-34.0821
-3.70583
26.7996
57.18
87.1432
116.373
144.529
171.279
196.304
219.315
240.042
258.247
273.696
286.183
295.521
301.565
304.167
303.268
298.992
292.224
282.594
269.971
254.587
236.749
216.618
194.559
170.827
145.778
119.827
93.2589
66.4319
39.7031
13.3001
-12.5217
-37.5268
-61.5928
-84.5529
-106.33
-126.836
-145.997
-163.802
-180.248
-195.295
-208.147
-219.095
-229.376
-238.72
-246.991
-254.183
-260.333
-265.496
-269.735
-273.109
-275.663
-277.425
-278.401
-278.584
-277.86
-276.248
-273.643
-269.957
-265.092
-258.946
-251.423
-242.442
-231.936
-219.823
-205.924
-190.401
-173.208
-154.365
-133.874
-111.798
-88.2192
-63.2239
-36.9566
-9.57212
18.79
47.9275
77.6457
107.681
137.744
167.559
196.781
225.05
252.085
277.543
301.115
322.478
341.336
357.45
370.554
380.346
-356.281
-357.306
-357.275
-356.182
-354.018
-350.76
-346.419
-340.98
-334.436
-326.791
-318.037
-308.149
-297.07
-284.852
-271.483
-256.927
-241.129
-224.056
-205.683
-185.97
-164.894
-142.451
-118.644
-93.4961
-67.0718
-39.4544
-10.7844
18.7572
48.9912
79.6447
110.389
140.925
170.872
199.855
227.476
253.304
276.984
298.154
316.445
331.559
343.243
351.289
355.564
355.964
352.435
345.089
333.996
319.376
301.462
280.511
256.894
230.974
203.124
173.743
143.186
111.863
80.142
48.3388
16.775
-14.2776
-44.5764
-73.9148
-102.114
-129.022
-154.525
-178.533
-200.976
-221.831
-241.1
-258.73
-273.795
-287.752
-300.308
-311.654
-321.837
-331.067
-339.526
-347.317
-354.526
-361.15
-367.158
-372.458
-376.942
-380.485
-382.936
-384.065
-383.629
-381.625
-378.019
-372.834
-366.086
-357.845
-348.184
-337.148
-324.733
-310.902
-295.6
-278.776
-260.365
-240.387
-218.802
-195.602
-170.805
-144.464
-116.671
-87.5615
-57.3157
-26.1565
5.65104
37.8066
69.9804
101.817
132.941
162.962
191.481
218.098
242.414
264.052
282.662
297.928
309.579
317.402
321.234
320.973
316.636
308.227
295.844
279.664
259.919
236.903
210.964
182.49
151.913
119.686
86.2756
52.1514
17.7655
-16.459
-50.1366
-82.9327
-114.564
-144.806
-173.488
-200.489
-225.739
-249.209
-270.817
-290.734
-308.913
-325.398
-340.233
-353.462
-365.132
-375.293
-383.997
-391.308
-397.293
-402.024
-405.58
-408.029
-409.433
-409.838
-409.279
-407.772
-405.321
-401.91
-397.51
-392.074
-385.546
-377.862
-368.951
-358.736
-347.129
-334.065
-319.446
-303.208
-285.292
-265.652
-244.256
-221.096
-196.189
-169.58
-141.35
-111.621
-80.5536
-48.3565
-15.2829
18.3697
52.2613
86.0171
119.231
151.471
182.288
211.226
237.83
261.658
282.289
299.34
312.476
321.422
325.976
325.999
321.5
312.558
299.284
281.916
260.765
236.21
208.682
178.655
146.638
113.15
78.7111
43.8264
8.96673
-25.4446
-59.0449
-91.5351
-122.681
-152.312
-180.308
-206.595
-231.133
-253.916
-274.961
-294.299
-311.975
-328.041
-342.563
-355.604
-367.228
-377.496
-386.458
-394.161
-400.64
-405.928
-410.052
-413.034
-414.89
-415.628
-415.249
-413.747
-411.108
-407.317
-402.362
-396.232
-388.923
-380.43
-370.747
-359.858
-347.735
-334.336
-319.61
-303.5
-285.949
-266.872
-246.348
-224.335
-200.857
-175.962
-149.73
-122.274
-93.7486
-64.3483
-34.3011
-3.85308
26.7346
57.2066
87.2709
116.609
144.875
171.737
196.871
219.988
240.815
259.111
274.643
287.201
296.597
302.684
305.319
304.466
300.201
293.383
283.684
271.002
255.536
237.592
217.337
195.145
171.277
146.093
120.014
93.3302
66.3996
39.582
13.1056
-12.7745
-37.8297
-61.9326
-84.9208
-106.718
-127.239
-146.413
-164.229
-180.689
-195.721
-208.466
-219.45
-229.734
-239.068
-247.322
-254.492
-260.618
-265.76
-269.981
-273.34
-275.886
-277.644
-278.62
-278.802
-278.105
-276.519
-273.94
-270.282
-265.445
-259.327
-251.831
-242.877
-232.394
-220.3
-206.428
-190.901
-173.715
-154.875
-134.38
-112.294
-88.6977
-63.6785
-37.3816
-9.96155
18.4432
47.6317
77.4115
107.52
137.667
167.575
196.893
225.261
252.397
277.957
301.628
323.087
342.032
358.221
371.386
381.223
-356.621
-357.644
-357.612
-356.518
-354.356
-351.101
-346.763
-341.328
-334.788
-327.148
-318.4
-308.522
-297.457
-285.244
-271.89
-257.352
-241.573
-224.521
-206.168
-186.474
-165.415
-142.984
-119.182
-94.0312
-67.5934
-39.95
-11.2403
18.3568
48.6637
79.4074
110.257
140.912
170.987
200.105
227.867
253.835
277.653
298.954
317.363
332.578
344.342
352.446
356.751
357.159
353.612
346.21
335.043
320.327
302.297
281.215
257.458
231.394
203.399
173.878
143.19
111.748
79.9206
48.0263
16.3862
-14.7277
-45.0747
-74.4492
-102.674
-129.599
-155.111
-179.123
-201.566
-222.414
-241.676
-259.291
-274.366
-288.283
-300.769
-312.041
-322.17
-331.335
-339.73
-347.466
-354.635
-361.233
-367.231
-372.541
-377.052
-380.638
-383.133
-384.296
-383.899
-381.933
-378.36
-373.204
-366.48
-358.26
-348.62
-337.607
-325.218
-311.412
-296.134
-279.33
-260.942
-240.977
-219.403
-196.205
-171.401
-145.041
-117.215
-88.0591
-57.7514
-26.5158
5.3819
37.6402
69.928
101.888
133.144
163.302
191.962
218.719
243.172
264.938
283.663
299.026
310.756
318.633
322.497
322.247
317.888
309.434
296.983
280.71
260.853
237.707
211.622
182.993
152.257
119.872
86.3084
52.0424
17.5294
-16.8047
-50.573
-83.4405
-115.125
-145.402
-174.104
-201.112
-226.359
-249.813
-271.413
-291.309
-309.468
-325.933
-340.749
-353.96
-365.611
-375.752
-384.435
-391.723
-397.685
-402.394
-405.928
-408.359
-409.749
-410.145
-409.58
-408.074
-405.627
-402.227
-397.841
-392.424
-385.917
-378.257
-369.372
-359.184
-347.607
-334.573
-319.98
-303.766
-285.87
-266.245
-244.86
-221.703
-196.789
-170.164
-141.906
-112.137
-81.0152
-48.7494
-15.5923
18.1583
52.1618
86.0424
119.393
151.779
182.749
211.843
238.602
262.579
283.349
300.521
313.755
322.772
327.365
327.401
322.878
313.873
300.509
283.026
261.736
237.025
209.328
179.128
146.937
113.279
78.6826
43.6555
8.67247
-25.8405
-59.5207
-92.0697
-123.256
-152.911
-180.919
-207.208
-231.74
-254.51
-275.538
-294.856
-312.509
-328.551
-343.049
-356.066
-367.668
-377.917
-386.863
-394.551
-401.018
-406.296
-410.413
-413.39
-415.242
-415.979
-415.602
-414.103
-411.468
-407.682
-402.73
-396.603
-389.297
-380.809
-371.134
-360.257
-348.15
-334.771
-320.065
-303.975
-286.446
-267.373
-246.86
-224.849
-201.364
-176.454
-150.196
-122.704
-94.1302
-64.6707
-34.5526
-4.02333
26.6585
57.2357
87.4159
116.877
145.27
172.259
197.52
220.757
241.699
260.101
275.727
288.366
297.83
303.966
306.638
305.823
301.572
294.709
284.941
272.188
256.625
238.558
218.161
195.815
171.79
146.451
120.226
93.4095
66.3605
39.4415
12.8813
-13.0631
-38.1773
-62.3225
-85.3424
-107.163
-127.701
-146.888
-164.717
-181.196
-196.233
-208.81
-219.851
-230.143
-239.467
-247.7
-254.845
-260.945
-266.061
-270.261
-273.604
-276.14
-277.895
-278.87
-279.046
-278.385
-276.828
-274.279
-270.654
-265.849
-259.763
-252.298
-243.373
-232.917
-220.844
-207.007
-191.473
-174.295
-155.458
-134.96
-112.861
-89.2454
-64.1988
-37.8683
-10.4076
18.0457
47.2923
77.1423
107.335
137.578
167.591
197.02
225.501
252.753
278.429
302.215
323.784
342.828
359.103
372.338
382.228
-357.004
-358.024
-357.99
-356.897
-354.738
-351.484
-347.149
-341.718
-335.183
-327.549
-318.808
-308.942
-297.893
-285.684
-272.346
-257.83
-242.073
-225.044
-206.713
-187.042
-166.001
-143.584
-119.789
-94.6347
-68.1821
-40.5097
-11.7555
17.9039
48.2927
79.138
110.107
140.895
171.115
200.385
228.305
254.433
278.405
299.854
318.396
333.725
345.58
353.749
358.09
358.506
354.938
347.474
336.222
321.397
303.237
282.007
258.093
231.865
203.708
174.029
143.193
111.615
79.6687
47.6721
15.9465
-15.2361
-45.6373
-75.0523
-103.306
-130.249
-155.772
-179.788
-202.23
-223.072
-242.324
-259.922
-275.009
-288.88
-301.292
-312.477
-322.544
-331.636
-339.96
-347.633
-354.756
-361.323
-367.311
-372.631
-377.173
-380.809
-383.359
-384.556
-384.202
-382.279
-378.744
-373.619
-366.922
-358.727
-349.11
-338.124
-325.765
-311.987
-296.735
-279.954
-261.59
-241.642
-220.079
-196.885
-172.073
-145.692
-117.83
-88.6207
-58.2434
-26.922
5.0771
37.4512
69.8672
101.967
133.37
163.683
192.502
219.417
244.023
265.934
284.789
300.263
312.08
320.02
323.919
323.68
319.298
310.793
298.265
281.889
261.904
238.611
212.363
183.559
152.643
120.079
86.3429
51.9169
17.2605
-17.197
-51.0674
-84.0153
-115.759
-146.076
-174.8
-201.816
-227.058
-250.495
-272.085
-291.957
-310.094
-326.536
-341.33
-354.52
-366.15
-376.269
-384.928
-392.191
-398.126
-402.81
-406.32
-408.73
-410.104
-410.489
-409.919
-408.413
-405.972
-402.583
-398.215
-392.818
-386.335
-378.702
-369.846
-359.689
-348.144
-335.145
-320.581
-304.394
-286.521
-266.914
-245.54
-222.386
-197.466
-170.822
-142.534
-112.719
-81.5368
-49.1938
-15.943
17.918
52.0476
86.0688
119.573
152.123
183.265
212.536
239.47
263.616
284.542
301.852
315.198
324.295
328.933
328.98
324.43
315.356
301.891
284.276
262.829
237.941
210.054
179.658
147.271
113.423
78.6478