/*--------------------------------*- C++ -*----------------------------------*\
| =========                 |                                                 |
| \\      /  F ield         | OpenFOAM: The Open Source CFD Toolbox           |
|  \\    /   O peration     | Version:  3.0.1                                 |
|   \\  /    A nd           | Web:      www.OpenFOAM.org                      |
|    \\/     M anipulation  |                                                 |
\*---------------------------------------------------------------------------*/
FoamFile
{
    version     2.0;
    format      ascii;
    class       volScalarField;
    location    "39.8";
    object      p_rgh;
}
// * * * * * * * * * * * * * * * * * * * * * * * * * * * * * * * * * * * * * //

dimensions      [1 -1 -2 0 0 0 0];

internalField   nonuniform List<scalar> 
21420
(
-291.694
-299.705
-306.408
-311.825
-315.951
-318.782
-320.315
-320.583
-319.591
-317.35
-313.835
-309.005
-302.816
-295.216
-286.15
-275.563
-263.394
-249.607
-234.163
-217.022
-198.162
-177.577
-155.26
-131.239
-105.573
-78.3395
-49.6652
-19.6951
11.4035
43.3903
76.0054
108.983
141.989
174.688
206.702
237.646
267.179
294.93
320.525
343.647
363.989
381.277
395.284
405.826
412.783
416
415.587
411.479
403.759
392.522
377.969
360.302
339.771
316.66
291.258
263.921
234.999
204.836
173.799
142.234
110.469
78.8044
47.5136
16.8355
-13.0624
-42.1757
-70.2517
-96.9106
-122.02
-145.607
-167.651
-188.153
-207.122
-224.572
-240.528
-255.03
-268.104
-279.794
-290.129
-299.131
-306.823
-313.2
-318.249
-321.986
-324.51
-325.8
-325.204
-323.081
-319.496
-314.444
-307.949
-300.019
-290.672
-279.936
-267.807
-254.262
-239.288
-222.869
-204.981
-185.607
-164.746
-142.407
-118.624
-93.2628
-66.7025
-38.8642
-9.87697
20.1088
50.9153
82.3354
114.132
146.034
177.747
208.949
239.294
268.424
295.97
321.563
344.836
365.435
383.032
397.335
408.091
415.093
418.095
417.185
412.21
403.206
390.263
373.543
353.269
329.709
303.189
274.083
242.792
209.746
175.39
140.168
104.514
68.8463
33.5547
-1.00637
-34.5266
-66.6787
-97.3521
-126.325
-153.468
-178.699
-201.972
-223.269
-242.6
-259.995
-275.497
-289.165
-301.063
-311.263
-319.843
-326.873
-332.421
-336.565
-339.346
-340.792
-340.959
-339.849
-337.474
-333.818
-328.865
-322.591
-314.961
-305.932
-295.456
-283.484
-269.965
-254.848
-238.089
-219.655
-199.525
-177.689
-154.151
-128.931
-102.066
-73.547
-43.6707
-12.5099
19.7492
52.8676
86.5613
120.5
154.312
187.589
219.895
250.77
279.746
306.356
330.15
350.704
367.629
380.585
389.294
393.54
393.161
388.207
378.718
364.743
346.545
324.411
298.693
269.807
238.222
204.442
168.985
132.375
95.1271
57.7342
20.6509
-15.7124
-50.99
-84.7772
-117.043
-147.507
-176.025
-202.506
-226.906
-249.206
-269.423
-287.59
-303.76
-318.001
-330.385
-340.991
-349.894
-357.168
-362.882
-367.1
-369.895
-371.296
-371.326
-370.062
-367.501
-363.654
-358.519
-352.075
-344.293
-335.128
-324.528
-312.434
-298.786
-283.528
-266.607
-247.983
-227.626
-205.527
-181.693
-156.163
-129.001
-100.297
-70.0733
-38.7778
-6.51581
26.4527
59.8201
93.2327
126.304
158.611
189.706
219.137
246.475
271.273
293.114
311.669
326.601
337.631
344.558
347.207
345.643
340.43
331.27
318.195
301.652
282.122
259.933
235.504
209.213
181.469
152.675
123.157
93.2555
63.3112
33.4757
3.8258
-25.9425
-54.3797
-73.6421
-96.4729
-118.728
-139.938
-159.919
-178.527
-195.687
-211.373
-225.576
-238.326
-249.652
-259.597
-268.209
-275.527
-281.589
-286.425
-290.054
-292.481
-293.662
-293.563
-292.049
-289.113
-284.685
-278.66
-270.963
-261.488
-250.156
-236.914
-221.717
-204.538
-185.378
-164.281
-141.298
-116.531
-90.0992
-62.1214
-32.7009
-2.23973
29.1048
61.0509
93.3244
125.665
157.745
189.256
219.844
249.17
276.937
302.823
326.511
347.744
366.259
381.825
394.243
403.344
409.002
411.078
409.454
404.068
395.043
382.511
366.669
347.704
325.868
301.506
275.018
-291.749
-299.758
-306.459
-311.875
-316.001
-318.832
-320.365
-320.632
-319.64
-317.401
-313.888
-309.06
-302.873
-295.275
-286.213
-275.628
-263.462
-249.677
-234.236
-217.097
-198.239
-177.655
-155.339
-131.317
-105.65
-78.4135
-49.7354
-19.7597
11.3462
43.3418
75.9672
108.957
141.977
174.69
206.72
237.679
267.23
294.997
320.608
343.745
364.101
381.4
395.417
405.966
412.926
416.153
415.727
411.617
403.892
392.646
378.083
360.403
339.859
316.732
291.315
263.962
235.025
204.846
173.796
142.218
110.442
78.7678
47.4695
16.786
-13.1176
-42.2428
-70.3222
-96.9809
-122.09
-145.676
-167.719
-188.22
-207.187
-224.635
-240.589
-255.088
-268.16
-279.848
-290.181
-299.181
-306.872
-313.249
-318.3
-322.039
-324.562
-325.846
-325.254
-323.134
-319.552
-314.501
-308.009
-300.081
-290.736
-280.003
-267.876
-254.333
-239.362
-222.944
-205.057
-185.685
-164.824
-142.484
-118.697
-93.3427
-66.7766
-38.9341
-9.94214
20.0497
50.8635
82.2922
114.099
146.013
177.738
208.954
239.315
268.461
296.024
321.633
344.922
365.537
383.148
397.463
408.228
415.236
418.252
417.329
412.356
403.347
390.395
373.664
353.376
329.799
303.261
274.136
242.826
209.761
175.387
140.148
104.478
68.7957
33.4918
-1.0795
-34.6064
-66.7684
-97.4447
-126.42
-153.564
-178.795
-202.067
-223.362
-242.69
-260.082
-275.582
-289.246
-301.14
-311.337
-319.914
-326.941
-332.486
-336.628
-339.406
-340.851
-341.018
-339.908
-337.533
-333.878
-328.926
-322.653
-315.026
-305.998
-295.525
-283.556
-270.04
-254.925
-238.168
-219.736
-199.608
-177.773
-154.235
-129.015
-102.148
-73.6263
-43.7455
-12.5785
19.6885
52.817
86.5226
120.475
154.303
187.598
219.923
250.818
279.814
306.445
330.259
350.831
367.772
380.742
389.46
393.72
393.332
388.375
378.88
364.895
346.683
324.531
298.793
269.885
238.278
204.474
168.995
132.364
95.0976
57.6876
20.5896
-15.786
-51.0748
-84.8653
-117.138
-147.605
-176.125
-202.606
-227.004
-249.302
-269.516
-287.68
-303.847
-318.084
-330.464
-341.067
-349.967
-357.237
-362.948
-367.164
-369.957
-371.355
-371.385
-370.12
-367.559
-363.711
-358.578
-352.135
-344.355
-335.193
-324.595
-312.504
-298.859
-283.604
-266.686
-248.064
-227.709
-205.61
-181.776
-156.245
-129.081
-100.373
-70.1431
-38.8404
-6.56921
26.4105
59.7914
93.2194
126.308
158.633
189.748
219.2
246.558
271.375
293.235
311.808
326.754
337.795
344.733
347.394
345.843
340.605
331.427
318.345
301.794
282.25
260.043
235.596
209.285
181.523
152.712
123.177
93.2588
63.3001
33.4523
3.79295
-25.9789
-54.3931
-73.7155
-96.5405
-118.796
-140.007
-159.989
-178.596
-195.755
-211.438
-225.639
-238.386
-249.709
-259.652
-268.261
-275.577
-281.637
-286.472
-290.101
-292.528
-293.711
-293.616
-292.105
-289.171
-284.746
-278.726
-271.034
-261.563
-250.234
-236.995
-221.8
-204.622
-185.463
-164.365
-141.38
-116.611
-90.1747
-62.1925
-32.7648
-2.29555
29.0579
61.0139
93.2982
125.65
157.744
189.268
219.871
249.212
276.993
302.893
326.595
347.841
366.367
381.944
394.371
403.478
409.142
411.229
409.589
404.2
395.173
382.634
366.783
347.806
325.957
301.581
275.078
-291.86
-299.864
-306.561
-311.975
-316.102
-318.933
-320.466
-320.73
-319.739
-317.502
-313.992
-309.169
-302.987
-295.394
-286.337
-275.758
-263.598
-249.818
-234.382
-217.247
-198.392
-177.811
-155.496
-131.474
-105.804
-78.5616
-49.8757
-19.8887
11.2316
43.2448
75.8909
108.905
141.951
174.694
206.755
237.747
267.33
295.131
320.773
343.941
364.324
381.646
395.682
406.244
413.213
416.459
416.005
411.894
404.157
392.895
378.31
360.605
340.033
316.877
291.429
264.045
235.077
204.868
173.79
142.187
110.388
78.6947
47.3817
16.6875
-13.2273
-42.3767
-70.4625
-97.1204
-122.228
-145.813
-167.853
-188.351
-207.315
-224.759
-240.708
-255.202
-268.268
-279.951
-290.28
-299.276
-306.964
-313.339
-318.393
-322.137
-324.658
-325.927
-325.341
-323.229
-319.651
-314.605
-308.116
-300.191
-290.852
-280.122
-268
-254.461
-239.493
-223.079
-205.195
-185.824
-164.965
-142.623
-118.829
-93.4865
-66.9094
-39.0587
-10.0573
19.9465
50.7751
82.221
114.048
145.985
177.737
208.981
239.372
268.55
296.146
321.789
345.11
365.755
383.394
397.734
408.518
415.539
418.58
417.634
412.663
403.643
390.674
373.921
353.604
329.994
303.421
274.259
242.911
209.807
175.397
140.123
104.422
68.7115
33.3832
-1.20854
-34.7496
-66.929
-97.6119
-126.592
-153.739
-178.969
-202.239
-223.53
-242.853
-260.24
-275.733
-289.39
-301.278
-311.468
-320.039
-327.059
-332.599
-336.737
-339.509
-340.954
-341.119
-340.009
-337.635
-333.982
-329.032
-322.763
-315.139
-306.117
-295.649
-283.685
-270.174
-255.064
-238.312
-219.884
-199.759
-177.926
-154.389
-129.169
-102.298
-73.7704
-43.881
-12.7016
19.5813
52.7297
86.4592
120.44
154.3
187.63
219.992
250.928
279.966
306.637
330.49
351.099
368.072
381.068
389.805
394.086
393.692
388.726
379.218
365.213
346.972
324.784
299.005
270.053
238.401
204.553
169.029
132.357
95.0518
57.6079
20.4808
-15.9193
-51.2302
-85.0275
-117.313
-147.787
-176.309
-202.79
-227.186
-249.48
-269.688
-287.845
-304.006
-318.236
-330.609
-341.204
-350.097
-357.362
-363.067
-367.279
-370.067
-371.459
-371.49
-370.223
-367.661
-363.814
-358.682
-352.243
-344.467
-335.309
-324.717
-312.632
-298.993
-283.743
-266.831
-248.213
-227.861
-205.764
-181.931
-156.397
-129.229
-100.513
-70.2707
-38.9537
-6.66425
26.3379
59.7456
93.2042
126.326
158.689
189.843
219.336
246.735
271.591
293.488
312.095
327.069
338.133
345.09
347.775
346.245
340.96
331.746
318.653
302.084
282.508
260.267
235.782
209.434
181.634
152.786
123.216
93.2667
63.279
33.4064
3.72788
-26.0512
-54.4205
-73.8608
-96.6748
-118.932
-140.145
-160.128
-178.734
-195.89
-211.569
-225.765
-238.506
-249.823
-259.761
-268.365
-275.677
-281.734
-286.567
-290.195
-292.621
-293.809
-293.721
-292.216
-289.287
-284.869
-278.858
-271.175
-261.712
-250.39
-237.157
-221.966
-204.791
-185.632
-164.533
-141.544
-116.77
-90.3257
-62.3344
-32.8926
-2.40725
28.9643
60.9399
93.2459
125.622
157.742
189.294
219.925
249.295
277.105
303.034
326.763
348.035
366.585
382.181
394.625
403.746
409.42
411.529
409.857
404.466
395.432
382.88
367.01
348.01
326.135
301.731
275.198
-292.025
-300.023
-306.715
-312.124
-316.251
-319.086
-320.618
-320.877
-319.887
-317.653
-314.149
-309.332
-303.158
-295.573
-286.524
-275.953
-263.801
-250.029
-234.6
-217.472
-198.623
-178.045
-155.732
-131.709
-106.034
-78.7839
-50.0863
-20.0825
11.0597
43.0991
75.7761
108.826
141.913
174.7
206.807
237.848
267.481
295.331
321.022
344.235
364.659
382.016
396.08
406.663
413.642
416.912
416.429
412.313
404.555
393.268
378.651
360.909
340.295
317.094
291.6
264.168
235.154
204.901
173.782
142.14
110.307
78.5849
47.2497
16.5397
-13.3914
-42.5785
-70.6732
-97.3297
-122.436
-146.018
-168.055
-188.548
-207.506
-224.944
-240.885
-255.372
-268.431
-280.105
-290.427
-299.418
-307.102
-313.475
-318.531
-322.284
-324.801
-326.051
-325.473
-323.37
-319.798
-314.759
-308.275
-300.357
-291.025
-280.301
-268.184
-254.652
-239.69
-223.28
-205.4
-186.033
-165.174
-142.831
-119.027
-93.6981
-67.1064
-39.2436
-10.2278
19.7939
50.6446
82.1166
113.974
145.946
177.737
209.024
239.46
268.687
296.333
322.025
345.395
366.086
383.767
398.144
408.956
415.996
419.068
418.101
413.129
404.092
391.097
374.309
353.949
330.29
303.664
274.446
243.04
209.88
175.415
140.09
104.341
68.588
33.223
-1.39952
-34.9641
-67.1648
-97.8601
-126.848
-153.998
-179.228
-202.494
-223.78
-243.095
-260.474
-275.958
-289.604
-301.482
-311.663
-320.223
-327.233
-332.767
-336.898
-339.662
-341.106
-341.269
-340.16
-337.786
-334.135
-329.19
-322.926
-315.308
-306.292
-295.832
-283.877
-270.373
-255.271
-238.526
-220.103
-199.983
-178.154
-154.618
-129.397
-102.522
-73.9845
-44.0824
-12.8846
19.4222
52.6007
86.366
120.389
154.297
187.68
220.099
251.094
280.194
306.927
330.84
351.503
368.524
381.56
390.326
394.624
394.245
389.26
379.729
365.692
347.407
325.165
299.325
270.309
238.589
204.672
169.083
132.348
94.9853
57.4906
20.3198
-16.1169
-51.4612
-85.2688
-117.575
-148.058
-176.584
-203.064
-227.456
-249.744
-269.944
-288.092
-304.242
-318.461
-330.824
-341.409
-350.291
-357.547
-363.245
-367.45
-370.231
-371.616
-371.646
-370.376
-367.813
-363.967
-358.838
-352.403
-344.632
-335.483
-324.899
-312.822
-299.192
-283.951
-267.046
-248.435
-228.088
-205.994
-182.16
-156.624
-129.449
-100.723
-70.46
-39.1221
-6.80523
26.2308
59.6786
93.1833
126.357
158.775
189.988
219.543
247.002
271.916
293.87
312.527
327.543
338.642
345.627
348.346
346.837
341.499
332.234
319.118
302.52
282.897
260.603
236.061
209.656
181.799
152.897
123.276
93.2785
63.2472
33.3371
3.62951
-26.1603
-54.4648
-74.076
-96.8757
-119.135
-140.353
-160.337
-178.942
-196.093
-211.765
-225.954
-238.686
-249.995
-259.924
-268.52
-275.826
-281.879
-286.708
-290.335
-292.762
-293.954
-293.879
-292.383
-289.461
-285.053
-279.056
-271.386
-261.935
-250.624
-237.399
-222.216
-205.044
-185.887
-164.785
-141.791
-117.008
-90.5523
-62.5474
-33.0848
-2.57499
28.8237
60.8288
93.1672
125.579
157.738
189.331
220.006
249.419
277.273
303.245
327.016
348.326
366.911
382.538
395.007
404.149
409.837
411.971
410.265
404.869
395.821
383.25
367.35
348.316
326.403
301.955
275.378
-292.246
-300.235
-306.92
-312.323
-316.449
-319.292
-320.819
-321.073
-320.084
-317.855
-314.357
-309.55
-303.386
-295.812
-286.773
-276.213
-264.072
-250.31
-234.891
-217.771
-198.93
-178.358
-156.048
-132.023
-106.343
-79.0808
-50.3675
-20.3411
10.83
42.9045
75.6228
108.721
141.861
174.707
206.877
237.982
267.681
295.598
321.354
344.627
365.105
382.51
396.611
407.221
414.215
417.501
417.005
412.874
405.088
393.767
379.107
361.314
340.644
317.384
291.827
264.333
235.257
204.944
173.769
142.076
110.198
78.4379
47.0732
16.3425
-13.6091
-42.8491
-70.9548
-97.6089
-122.712
-146.291
-168.324
-188.811
-207.762
-225.191
-241.122
-255.599
-268.647
-280.312
-290.624
-299.607
-307.285
-313.655
-318.714
-322.474
-324.986
-326.225
-325.649
-323.559
-319.995
-314.964
-308.488
-300.577
-291.255
-280.539
-268.43
-254.906
-239.952
-223.549
-205.674
-186.31
-165.453
-143.109
-119.296
-93.9761
-67.3684
-39.4899
-10.4548
19.5906
50.4708
81.9776
113.875
145.894
177.737
209.081
239.579
268.87
296.582
322.341
345.777
366.529
384.266
398.692
409.542
416.608
419.708
418.736
413.753
404.693
391.663
374.829
354.41
330.687
303.99
274.696
243.213
209.978
175.439
140.045
104.233
68.4237
33.0096
-1.65411
-35.2513
-67.4777
-98.1907
-127.188
-154.343
-179.573
-202.834
-224.112
-243.418
-260.785
-276.257
-289.89
-301.754
-311.921
-320.468
-327.466
-332.99
-337.111
-339.868
-341.309
-341.469
-340.36
-337.987
-334.34
-329.4
-323.143
-315.533
-306.526
-296.077
-284.132
-270.639
-255.548
-238.811
-220.396
-200.282
-178.457
-154.923
-129.701
-102.822
-74.269
-44.3508
-13.1286
19.2101
52.4288
86.2419
120.321
154.293
187.747
220.242
251.317
280.5
307.315
331.306
352.043
369.129
382.217
391.022
395.337
394.982
389.977
380.412
366.333
347.989
325.675
299.753
270.65
238.84
204.832
169.155
132.336
94.8968
57.3341
20.105
-16.3803
-51.769
-85.5908
-117.924
-148.419
-176.95
-203.43
-227.817
-250.097
-270.286
-288.421
-304.557
-318.761
-331.11
-341.68
-350.55
-357.794
-363.481
-367.677
-370.449
-371.824
-371.853
-370.579
-368.015
-364.17
-359.044
-352.616
-344.853
-335.713
-325.14
-313.076
-299.458
-284.228
-267.333
-248.731
-228.391
-206.3
-182.467
-156.926
-129.742
-101.003
-70.7113
-39.3465
-6.99322
26.088
59.5891
93.1554
126.397
158.889
190.182
219.819
247.359
272.351
294.38
313.105
328.177
339.323
346.344
349.098
347.605
342.225
332.901
319.744
303.101
283.415
261.05
236.434
209.953
182.02
153.045
123.356
93.2938
63.2043
33.2438
3.49691
-26.307
-54.5298
-74.3581
-97.1422
-119.406
-140.629
-160.616
-179.218
-196.364
-212.027
-226.205
-238.926
-250.224
-260.141
-268.728
-276.025
-282.071
-286.897
-290.523
-292.95
-294.149
-294.09
-292.604
-289.693
-285.299
-279.319
-271.667
-262.233
-250.936
-237.723
-222.548
-205.381
-186.226
-165.122
-142.121
-117.327
-90.8546
-62.8313
-33.3417
-2.79901
28.636
60.6803
93.062
125.522
157.733
189.382
220.114
249.586
277.498
303.527
327.353
348.714
367.346
383.014
395.517
404.685
410.392
412.545
410.821
405.409
396.343
383.743
367.804
348.725
326.76
302.255
275.617
-292.522
-300.5
-307.176
-312.572
-316.696
-319.55
-321.069
-321.318
-320.329
-318.108
-314.619
-309.822
-303.671
-296.11
-287.085
-276.538
-264.411
-250.662
-235.254
-218.146
-199.314
-178.75
-156.442
-132.416
-106.728
-79.4525
-50.7194
-20.6648
10.5425
42.6606
75.4305
108.588
141.796
174.715
206.964
238.15
267.932
295.932
321.768
345.117
365.664
383.127
397.276
407.919
414.932
418.229
417.733
413.576
405.756
394.391
379.676
361.821
341.081
317.746
292.112
264.539
235.385
204.998
173.753
141.996
110.062
78.2535
46.8519
16.0959
-13.8793
-43.1902
-71.3078
-97.9579
-123.058
-146.633
-168.661
-189.141
-208.082
-225.5
-241.419
-255.882
-268.918
-280.57
-290.871
-299.845
-307.515
-313.881
-318.942
-322.707
-325.213
-326.448
-325.873
-323.795
-320.241
-315.22
-308.754
-300.852
-291.543
-280.836
-268.737
-255.224
-240.279
-223.884
-206.016
-186.657
-165.803
-143.456
-119.635
-94.3206
-67.6957
-39.798
-10.7388
19.3361
50.2529
81.8035
113.752
145.829
177.737
209.152
239.727
269.099
296.894
322.736
346.253
367.083
384.891
399.377
410.276
417.375
420.499
419.536
414.535
405.445
392.371
375.478
354.988
331.182
304.397
275.009
243.43
210.1
175.47
139.989
104.097
68.2176
32.7421
-1.97318
-35.6108
-67.8695
-98.6047
-127.615
-154.775
-180.004
-203.259
-224.528
-243.822
-261.174
-276.63
-290.247
-302.094
-312.245
-320.774
-327.757
-333.268
-337.377
-340.125
-341.562
-341.718
-340.609
-338.239
-334.596
-329.663
-323.414
-315.813
-306.819
-296.382
-284.451
-270.972
-255.893
-239.167
-220.762
-200.656
-178.836
-155.304
-130.082
-103.198
-74.624
-44.6867
-13.4344
18.9443
52.2131
86.0862
120.235
154.287
187.829
220.42
251.596
280.881
307.8
331.89
352.718
369.885
383.039
391.893
396.233
395.896
390.878
381.269
367.134
348.716
326.312
300.289
271.077
239.154
205.032
169.244
132.32
94.7854
57.1377
19.8356
-16.7099
-52.1537
-85.9954
-118.361
-148.871
-177.408
-203.888
-228.268
-250.538
-270.713
-288.832
-304.95
-319.136
-331.468
-342.02
-350.873
-358.102
-363.776
-367.961
-370.721
-372.086
-372.111
-370.832
-368.267
-364.424
-359.302
-352.881
-345.13
-336.002
-325.442
-313.392
-299.79
-284.574
-267.693
-249.102
-228.769
-206.683
-182.85
-157.304
-130.109
-101.356
-71.0248
-39.6277
-7.22886
25.9088
59.4766
93.1198
126.447
159.032
190.424
220.164
247.806
272.895
295.019
313.828
328.971
340.175
347.241
350.032
348.552
343.132
333.748
320.534
303.829
284.064
261.61
236.9
210.323
182.296
153.23
123.454
93.3123
63.1499
33.1259
3.32891
-26.4924
-54.6197
-74.7034
-97.4735
-119.745
-140.975
-160.964
-179.565
-196.702
-212.355
-226.519
-239.227
-250.509
-260.413
-268.987
-276.274
-282.312
-287.133
-290.757
-293.185
-294.393
-294.351
-292.878
-289.982
-285.608
-279.649
-272.019
-262.606
-251.326
-238.128
-222.964
-205.803
-186.65
-165.543
-142.533
-117.725
-91.2329
-63.1862
-33.6637
-3.07957
28.401
60.4944
92.93
125.449
157.726
189.444
220.249
249.793
277.778
303.879
327.774
349.2
367.89
383.609
396.155
405.355
411.085
413.251
411.524
406.088
396.995
384.359
368.373
349.236
327.206
302.63
275.917
-292.853
-300.819
-307.484
-312.871
-316.993
-319.86
-321.368
-321.61
-320.624
-318.41
-314.932
-310.148
-304.012
-296.467
-287.459
-276.928
-264.818
-251.084
-235.69
-218.596
-199.776
-179.22
-156.916
-132.888
-107.192
-79.8994
-51.1425
-21.054
10.1966
42.3671
75.199
108.429
141.717
174.725
207.068
238.351
268.232
296.333
322.266
345.706
366.335
383.869
398.074
408.759
415.795
419.1
418.606
414.42
406.558
395.14
380.36
362.429
341.605
318.18
292.452
264.785
235.538
205.062
173.734
141.9
109.897
78.031
46.5854
15.7997
-14.2001
-43.6042
-71.7325
-98.3769
-123.473
-147.043
-169.065
-189.536
-208.465
-225.87
-241.775
-256.223
-269.243
-280.879
-291.167
-300.129
-307.792
-314.152
-319.215
-322.983
-325.483
-326.715
-326.142
-324.079
-320.537
-315.528
-309.073
-301.182
-291.887
-281.194
-269.106
-255.605
-240.672
-224.287
-206.427
-187.074
-166.223
-143.874
-120.045
-94.7318
-68.0884
-40.1681
-11.0804
19.0302
49.9906
81.5937
113.603
145.751
177.736
209.237
239.904
269.373
297.268
323.21
346.825
367.748
385.641
400.2
411.158
418.297
421.447
420.498
415.474
406.35
393.222
376.259
355.682
331.778
304.885
275.383
243.689
210.245
175.505
139.92
103.933
67.9692
32.4198
-2.35732
-36.0431
-68.3411
-99.1024
-128.128
-155.294
-180.522
-203.77
-225.028
-244.307
-261.641
-277.079
-290.677
-302.502
-312.633
-321.141
-328.106
-333.602
-337.696
-340.435
-341.865
-342.017
-340.908
-338.541
-334.903
-329.978
-323.739
-316.15
-307.17
-296.749
-284.834
-271.371
-256.307
-239.595
-221.202
-201.105
-179.291
-155.763
-130.539
-103.652
-75.0496
-45.0906
-13.8023
18.6242
51.9531
85.8983
120.132
154.279
187.928
220.634
251.93
281.339
308.381
332.591
353.529
370.794
384.028
392.94
397.312
396.99
391.96
382.299
368.098
349.59
327.078
300.933
271.589
239.529
205.271
169.35
132.301
94.6503
56.9006
19.5108
-17.1063
-52.6112
-86.4879
-118.887
-149.414
-177.959
-204.438
-228.811
-251.068
-271.226
-289.326
-305.423
-319.587
-331.897
-342.428
-351.261
-358.472
-364.13
-368.301
-371.047
-372.402
-372.421
-371.137
-368.569
-364.728
-359.612
-353.2
-345.461
-336.348
-325.805
-313.773
-300.188
-284.99
-268.124
-249.547
-229.223
-207.144
-183.311
-157.758
-130.551
-101.782
-71.4005
-39.9662
-7.51277
25.6926
59.3405
93.0758
126.506
159.203
190.714
220.577
248.342
273.549
295.786
314.697
329.925
341.199
348.319
351.149
349.682
344.22
334.771
321.488
304.704
284.843
262.282
237.459
210.768
182.627
153.451
123.572
93.3339
63.0835
32.9824
3.12362
-26.7177
-54.739
-75.1081
-97.8684
-120.15
-141.391
-161.382
-179.981
-197.108
-212.748
-226.897
-239.587
-250.852
-260.74
-269.298
-276.572
-282.601
-287.416
-291.038
-293.469
-294.687
-294.662
-293.206
-290.33
-285.979
-280.045
-272.442
-263.053
-251.795
-238.615
-223.464
-206.311
-187.159
-166.048
-143.028
-118.204
-91.6879
-63.612
-34.0512
-3.41693
28.1184
60.2705
92.7709
125.362
157.716
189.519
220.41
250.042
278.114
304.302
328.279
349.783
368.543
384.323
396.92
406.161
411.917
414.096
412.368
406.906
397.781
385.1
369.055
349.849
327.741
303.079
276.277
-293.24
-301.191
-307.843
-313.22
-317.338
-320.221
-321.713
-321.949
-320.967
-318.763
-315.298
-310.529
-304.41
-296.885
-287.896
-277.383
-265.292
-251.577
-236.199
-219.121
-200.314
-179.769
-157.469
-133.439
-107.733
-80.4219
-51.6371
-21.5091
9.79202
42.0234
74.9276
108.241
141.624
174.735
207.188
238.585
268.582
296.8
322.847
346.393
367.118
384.735
399.007
409.739
416.803
420.117
419.623
415.405
407.495
396.015
381.158
363.139
342.217
318.687
292.849
265.072
235.717
205.135
173.709
141.786
109.703
77.7699
46.2729
15.4536
-14.5691
-44.0941
-72.2295
-98.8658
-123.957
-147.522
-169.537
-189.997
-208.913
-226.303
-242.19
-256.62
-269.621
-281.241
-291.512
-300.461
-308.114
-314.469
-319.531
-323.301
-325.796
-327.026
-326.458
-324.411
-320.882
-315.887
-309.444
-301.568
-292.289
-281.611
-269.537
-256.051
-241.131
-224.757
-206.906
-187.561
-166.713
-144.363
-120.526
-95.2103
-68.5468
-40.6006
-11.4798
18.6723
49.6836
81.3477
113.429
145.657
177.735
209.335
240.11
269.692
297.704
323.763
347.492
368.525
386.517
401.161
412.187
419.376
422.556
421.619
416.573
407.406
394.217
377.17
356.492
332.473
305.455
275.82
243.992
210.414
175.545
139.839
103.741
67.6776
32.0418
-2.80712
-36.549
-68.8929
-99.6843
-128.727
-155.901
-181.128
-204.367
-225.611
-244.873
-262.187
-277.603
-291.177
-302.979
-313.085
-321.57
-328.513
-333.991
-338.069
-340.796
-342.218
-342.366
-341.257
-338.893
-335.261
-330.345
-324.118
-316.543
-307.579
-297.177
-285.282
-271.838
-256.791
-240.095
-221.715
-201.629
-179.823
-156.298
-131.074
-104.185
-75.5454
-45.5633
-14.233
18.2494
51.648
85.6774
120.009
154.268
188.041
220.881
252.318
281.872
309.059
333.408
354.476
371.855
385.183
394.163
398.576
398.269
393.221
383.504
369.224
350.611
327.971
301.684
272.186
239.967
205.549
169.472
132.276
94.491
56.6219
19.13
-17.5701
-53.1298
-87.0815
-119.503
-150.05
-178.602
-205.08
-229.444
-251.686
-271.825
-289.903
-305.975
-320.113
-332.398
-342.904
-351.713
-358.903
-364.542
-368.697
-371.427
-372.771
-372.782
-371.491
-368.922
-365.083
-359.973
-353.572
-345.847
-336.751
-326.228
-314.217
-300.653
-285.475
-268.628
-250.066
-229.754
-207.682
-183.849
-158.289
-131.066
-102.283
-71.8383
-40.3631
-7.8456
25.4388
59.1803
93.0227
126.574
159.401
191.052
221.06
248.967
274.312
296.683
315.711
331.04
342.395
349.578
352.45
350.996
345.491
335.97
322.606
305.728
285.753
263.067
238.111
211.287
183.012
153.709
123.708
93.3582
63.0044
32.8124
2.87838
-26.9838
-54.8919
-75.5681
-98.326
-120.623
-141.876
-161.871
-180.465
-197.582
-213.206
-227.337
-240.007
-251.252
-261.12
-269.661
-276.92
-282.938
-287.746
-291.365
-293.8
-295.029
-295.023
-293.588
-290.735
-286.412
-280.507
-272.934
-263.575
-252.342
-239.183
-224.047
-206.903
-187.754
-166.639
-143.606
-118.763
-92.2201
-64.1089
-34.5049
-3.81131
27.7879
60.0085
92.5842
125.259
157.705
189.605
220.598
250.332
278.506
304.795
328.869
350.463
369.305
385.157
397.814
407.1
412.888
415.081
413.351
407.861
398.698
385.965
369.852
350.565
328.366
303.604
276.696
-293.682
-301.615
-308.253
-313.619
-317.732
-320.633
-322.104
-322.335
-321.359
-319.165
-315.715
-310.963
-304.865
-297.361
-288.396
-277.904
-265.835
-252.14
-236.782
-219.721
-200.93
-180.397
-158.102
-134.07
-108.353
-81.0204
-52.2037
-22.0305
9.32818
41.6291
74.6158
108.026
141.516
174.746
207.324
238.851
268.981
297.333
323.511
347.179
368.015
385.726
400.075
410.861
417.957
421.281
420.784
416.531
408.568
397.016
382.072
363.951
342.917
319.266
293.302
265.399
235.92
205.219
173.68
141.654
109.48
77.4695
45.9142
15.0569
-14.9823
-44.6649
-72.7992
-99.4245
-124.511
-148.07
-170.076
-190.524
-209.426
-226.797
-242.665
-257.074
-270.054
-281.653
-291.906
-300.841
-308.483
-314.831
-319.892
-323.663
-326.153
-327.376
-326.82
-324.79
-321.276
-316.296
-309.868
-302.009
-292.747
-282.087
-270.029
-256.56
-241.655
-225.294
-207.455
-188.117
-167.273
-144.923
-121.079
-95.7565
-69.0714
-41.0958
-11.9375
18.2619
49.3313
81.065
113.227
145.549
177.731
209.446
240.344
270.056
298.201
324.395
348.255
369.412
387.519
402.261
413.366
420.612
423.825
422.9
417.83
408.617
395.355
378.213
357.419
333.269
306.106
276.319
244.336
210.606
175.589
139.744
103.519
67.3422
31.6075
-3.32336
-37.1295
-69.5256
-100.351
-129.414
-156.595
-181.821
-205.05
-226.278
-245.521
-262.811
-278.202
-291.75
-303.524
-313.602
-322.061
-328.979
-334.435
-338.495
-341.209
-342.622
-342.765
-341.656
-339.296
-335.671
-330.765
-324.551
-316.993
-308.047
-297.666
-285.793
-272.371
-257.345
-240.667
-222.302
-202.229
-180.432
-156.911
-131.685
-104.797
-76.1118
-46.1056
-14.7271
17.8192
51.2974
85.4227
119.867
154.254
188.169
221.163
252.762
282.482
309.834
334.343
355.56
373.069
386.505
395.565
400.024
399.732
394.663
384.885
370.513
351.778
328.994
302.543
272.869
240.467
205.866
169.61
132.246
94.3067
56.3008
18.692
-18.1027
-53.7275
-87.7594
-120.209
-150.778
-179.339
-205.815
-230.169
-252.394
-272.51
-290.562
-306.606
-320.715
-332.97
-343.448
-352.231
-359.396
-365.013
-369.15
-371.862
-373.193
-373.194
-371.897
-369.324
-365.489
-360.386
-353.997
-346.288
-337.213
-326.712
-314.724
-301.185
-286.03
-269.205
-250.66
-230.362
-208.297
-184.466
-158.897
-131.657
-102.858
-72.3387
-40.8194
-8.22799
25.1467
58.9952
92.9601
126.649
159.627
191.436
221.61
249.68
275.186
297.708
316.872
332.315
343.765
351.018
353.935
352.495
346.943
337.347
323.889
306.899
286.793
263.964
238.857
211.879
183.451
154.002
123.862
93.3845
62.912
32.6145
2.59144
-27.2938
-55.0819
-76.0797
-98.8452
-121.163
-142.431
-162.43
-181.018
-198.125
-213.731
-227.84
-240.487
-251.71
-261.555
-270.076
-277.317
-283.322
-288.122
-291.74
-294.178
-295.42
-295.435
-294.023
-291.197
-286.907
-281.036
-273.496
-264.172
-252.968
-239.833
-224.715
-207.581
-188.434
-167.315
-144.268
-119.404
-92.8298
-64.6773
-35.0253
-4.26305
27.4093
59.7079
92.3695
125.14
157.691
189.703
220.812
250.662
278.953
305.358
329.544
351.241
370.178
386.111
398.836
408.175
413.999
416.208
414.474
408.956
399.749
386.954
370.763
351.384
329.081
304.204
277.176
-294.178
-302.093
-308.713
-314.066
-318.174
-321.1
-322.539
-322.768
-321.799
-319.617
-316.184
-311.452
-305.376
-297.898
-288.958
-278.491
-266.446
-252.774
-237.438
-220.398
-201.624
-181.104
-158.816
-134.782
-109.052
-81.6955
-52.8429
-22.6188
8.8045
41.1834
74.2629
107.781
141.393
174.756
207.476
239.15
269.43
297.933
324.257
348.064
369.024
386.842
401.277
412.126
419.258
422.592
422.091
417.8
409.776
398.143
383.1
364.865
343.704
319.917
293.812
265.766
236.146
205.311
173.646
141.503
109.226
77.1292
45.5077
14.609
-15.4343
-45.3232
-73.4413
-100.053
-125.134
-148.686
-170.684
-191.118
-210.002
-227.354
-243.2
-257.585
-270.542
-282.117
-292.35
-301.268
-308.897
-315.238
-320.297
-324.068
-326.553
-327.762
-327.227
-325.217
-321.719
-316.755
-310.345
-302.505
-293.261
-282.623
-270.583
-257.132
-242.244
-225.899
-208.072
-188.744
-167.905
-145.553
-121.702
-96.3711
-69.6622
-41.6541
-12.4539
17.7985
48.9331
80.7453
112.999
145.426
177.725
209.569
240.606
270.464
298.759
325.105
349.114
370.412
388.647
403.5
414.695
422.005
425.256
424.342
419.248
409.981
396.638
379.387
358.463
334.164
306.838
276.881
244.723
210.82
175.637
139.636
103.268
66.9621
31.1161
-3.90695
-37.7853
-70.2398
-101.103
-130.189
-157.379
-182.602
-205.82
-227.03
-246.25
-263.514
-278.877
-292.395
-304.137
-314.184
-322.613
-329.503
-334.935
-338.974
-341.673
-343.075
-343.213
-342.103
-339.748
-336.132
-331.237
-325.039
-317.498
-308.574
-298.216
-286.368
-272.971
-257.969
-241.311
-222.964
-202.905
-181.118
-157.602
-132.373
-105.487
-76.7513
-46.7187
-15.2853
17.3327
50.9005
85.1338
119.704
154.236
188.311
221.478
253.259
283.166
310.706
335.395
356.78
374.437
387.995
397.146
401.657
401.382
396.288
386.441
371.965
353.094
330.146
303.51
273.637
241.028
206.22
169.763
132.209
94.0964
55.9361
18.1958
-18.7053
-54.4063
-88.5216
-121.006
-151.599
-180.169
-206.643
-230.986
-253.191
-273.282
-291.304
-307.316
-321.392
-333.614
-344.06
-352.813
-359.951
-365.544
-369.658
-372.351