/*--------------------------------*- C++ -*----------------------------------*\
| =========                 |                                                 |
| \\      /  F ield         | OpenFOAM: The Open Source CFD Toolbox           |
|  \\    /   O peration     | Version:  3.0.1                                 |
|   \\  /    A nd           | Web:      www.OpenFOAM.org                      |
|    \\/     M anipulation  |                                                 |
\*---------------------------------------------------------------------------*/
FoamFile
{
    version     2.0;
    format      ascii;
    class       volScalarField;
    location    "30.4";
    object      p;
}
// * * * * * * * * * * * * * * * * * * * * * * * * * * * * * * * * * * * * * //

dimensions      [1 -1 -2 0 0 0 0];

internalField   nonuniform List<scalar> 
21420
(
4064.67
4031.95
3998.18
3963.66
3928.77
3893.76
3859.06
3825.18
3800.66
3768.9
3738.33
3709.39
3682.22
3656.89
3633.46
3611.93
3592.3
3574.55
3558.63
3544.5
3532.11
3521.4
3512.33
3504.84
3498.89
3494.43
3491.46
3489.95
3489.99
3491.43
3494.32
3498.66
3504.45
3511.73
3520.52
3530.87
3542.8
3556.37
3571.62
3588.57
3607.27
3627.72
3649.92
3673.86
3699.48
3726.68
3755.36
3785.13
3815.75
3847.46
3879.96
3912.85
3945.8
3978.43
4010.34
4041.17
4070.54
4098.05
4123.34
4146.09
4165.95
4182.66
4195.94
4205.61
4211.5
4213.43
4211.32
4205.27
4195.34
4181.53
4164
4142.95
4118.68
4091.48
4061.72
4029.81
3996.19
3961.27
3925.52
3889.4
3853.33
3817.73
3782.96
3748.78
3715.43
3683.88
3654.4
3627.05
3601.88
3578.9
3558.12
3539.51
3523.01
3508.57
3496.1
3485.54
3476.78
3469.75
3464.37
3460.56
3458.24
3457.35
3457.85
3459.69
3462.8
3467.19
3472.85
3479.77
3487.97
3497.47
3508.29
3520.47
3534.04
3549.04
3565.49
3583.44
3602.9
3623.89
3646.41
3670.44
3695.95
3722.87
3751.12
3780.67
3811.17
3842.5
3874.46
3906.77
3939.13
3971.2
4002.61
4032.97
4061.85
4088.84
4113.53
4135.5
4154.39
4169.85
4181.6
4189.41
4193.11
4192.52
4187.75
4178.84
4165.83
4148.95
4128.48
4104.74
4078.11
4049.01
4017.9
3985.26
3951.58
3917.33
3883
3849.02
3815.77
3783.6
3752.81
3723.6
3696.16
3670.61
3647.01
3625.39
3605.73
3588.01
3572.15
3558.09
3545.73
3535.01
3525.85
3518.16
3511.88
3506.94
3503.28
3500.87
3499.63
3499.55
3500.62
3502.8
3506.08
3510.46
3515.96
3522.6
3530.41
3539.43
3549.72
3561.34
3574.35
3588.82
3604.82
3622.38
3641.55
3662.36
3684.79
3708.83
3734.41
3761.47
3789.86
3819.47
3850.05
3881.38
3913.17
3945.12
3976.88
4008.07
4038.29
4067.13
4094.18
4119.02
4141.28
4160.59
4176.63
4189.12
4197.85
4202.67
4203.41
4200.22
4193.04
4182.01
4167.33
4149.23
4128.03
4104.06
4077.7
4049.37
4019.47
3988.44
3956.69
3924.63
3892.62
3861.01
3830.11
3800.19
3771.47
3744.13
3718.32
3694.13
3671.65
3650.9
3631.91
3614.66
3599.13
3585.27
3573.03
3562.35
3553.17
3545.42
3539.05
3534.01
3530.24
3527.71
3526.37
3526.22
3527.27
3529.45
3532.78
3537.27
3542.92
3549.77
3557.84
3567.17
3577.82
3589.83
3603.28
3618.22
3634.7
3652.76
3672.43
3693.68
3716.46
3740.7
3766.21
3792.86
3820.74
3859.53
3891.97
3924.94
3958.38
3992.06
4025.55
4058.48
4090.37
4120.75
4149.16
4175.11
4198.11
4217.79
4233.67
4245.38
4252.81
4256.05
4255.59
4250.83
4241.96
4229.35
4213.11
4193.55
4171.06
4146.01
4118.86
4090.02
4059.91
4029.02
3997.65
3966.18
3934.91
3904.04
3874.46
3847.64
3820.75
3794.65
3769.67
3746.01
3723.78
3703.03
3683.8
3666.09
3649.9
3635.22
3622.02
3610.3
3600.04
3591.24
3583.9
3578.02
3573.61
3570.69
3569.29
3569.45
3571.19
3574.56
3579.56
3586.19
3594.46
3604.35
3615.89
3629.06
3643.85
3660.23
3678.2
3697.7
3718.69
3741.11
3764.88
3789.91
3816.1
3843.33
3869.87
3898.24
3927.19
3956.49
3985.8
4014.88
4043.48
4071.17
4097.55
3966.61
3933.87
3900.08
3865.56
3830.65
3795.63
3760.92
3727.02
3702.49
3670.71
3640.15
3611.2
3584.03
3558.71
3535.27
3513.75
3494.12
3476.37
3460.45
3446.32
3433.94
3423.24
3414.17
3406.68
3400.73
3396.28
3393.3
3391.8
3391.83
3393.27
3396.17
3400.5
3406.29
3413.57
3422.36
3432.7
3444.63
3458.2
3473.44
3490.4
3509.09
3529.54
3551.74
3575.68
3601.3
3628.5
3657.19
3686.97
3717.59
3749.3
3781.82
3814.72
3847.69
3880.33
3912.26
3943.1
3972.49
4000.01
4025.33
4048.08
4067.97
4084.69
4097.98
4107.65
4113.55
4115.49
4113.38
4107.33
4097.39
4083.58
4066.03
4044.97
4020.68
3993.46
3963.68
3931.75
3898.11
3863.18
3827.41
3791.27
3755.19
3719.57
3684.79
3650.6
3617.25
3585.7
3556.21
3528.86
3503.68
3480.71
3459.93
3441.32
3424.83
3410.39
3397.93
3387.36
3378.61
3371.58
3366.2
3362.4
3360.08
3359.2
3359.7
3361.53
3364.65
3369.04
3374.69
3381.62
3389.82
3399.32
3410.14
3422.32
3435.88
3450.88
3467.33
3485.27
3504.73
3525.72
3548.24
3572.27
3597.78
3624.7
3652.96
3682.51
3713.01
3744.35
3776.32
3808.64
3841.02
3873.1
3904.53
3934.9
3963.8
3990.81
4015.52
4037.51
4056.41
4071.89
4083.65
4091.47
4095.18
4094.59
4089.81
4080.89
4067.87
4050.98
4030.49
4006.74
3980.08
3950.96
3919.83
3887.17
3853.47
3819.21
3784.86
3750.86
3717.6
3685.43
3654.63
3625.41
3597.97
3572.41
3548.82
3527.2
3507.55
3489.83
3473.97
3459.91
3447.56
3436.85
3427.69
3420
3413.72
3408.79
3405.13
3402.72
3401.49
3401.41
3402.47
3404.66
3407.93
3412.32
3417.81
3424.45
3432.26
3441.28
3451.57
3463.18
3476.19
3490.66
3506.65
3524.21
3543.38
3564.18
3586.62
3610.65
3636.24
3663.29
3691.7
3721.31
3751.9
3783.24
3815.04
3847
3878.77
3909.98
3940.21
3969.07
3996.14
4021.01
4043.29
4062.61
4078.66
4091.16
4099.9
4104.72
4105.47
4102.26
4095.08
4084.05
4069.35
4051.24
4030.02
4006.03
3979.66
3951.3
3921.39
3890.34
3858.58
3826.5
3794.48
3762.86
3731.95
3702.02
3673.29
3645.95
3620.14
3595.95
3573.47
3552.72
3533.73
3516.48
3500.95
3487.1
3474.86
3464.19
3455.01
3447.26
3440.9
3435.86
3432.09
3429.56
3428.22
3428.08
3429.13
3431.31
3434.64
3439.12
3444.77
3451.62
3459.68
3469.01
3479.66
3491.67
3505.11
3520.05
3536.53
3554.59
3574.25
3595.51
3618.29
3642.53
3668.05
3694.7
3722.56
3761.39
3793.82
3826.8
3860.26
3893.95
3927.45
3960.4
3992.32
4022.72
4051.14
4077.11
4100.14
4119.83
4135.73
4147.47
4154.92
4158.13
4157.64
4152.89
4144.02
4131.39
4115.14
4095.56
4073.05
4047.98
4020.81
3991.95
3961.83
3930.91
3899.53
3868.04
3836.77
3805.89
3776.31
3749.48
3722.58
3696.48
3671.5
3647.84
3625.61
3604.86
3585.63
3567.93
3551.74
3537.06
3523.86
3512.14
3501.88
3493.08
3485.74
3479.86
3475.45
3472.53
3471.14
3471.29
3473.02
3476.39
3481.4
3488.02
3496.29
3506.19
3517.72
3530.89
3545.68
3562.07
3580.03
3599.53
3620.52
3642.95
3666.72
3691.74
3717.94
3745.17
3771.74
3800.11
3829.06
3858.36
3887.68
3916.77
3945.39
3973.09
3999.48
3868.59
3835.82
3802
3767.44
3732.5
3697.46
3662.73
3628.81
3604.24
3572.45
3541.87
3512.93
3485.75
3460.43
3437
3415.48
3395.86
3378.11
3362.2
3348.08
3335.7
3325
3315.94
3308.46
3302.51
3298.06
3295.09
3293.59
3293.61
3295.06
3297.95
3302.28
3308.08
3315.35
3324.13
3334.47
3346.4
3359.96
3375.2
3392.15
3410.84
3431.29
3453.48
3477.42
3503.04
3530.25
3558.95
3588.74
3619.37
3651.1
3683.64
3716.57
3749.56
3782.23
3814.19
3845.07
3874.49
3902.05
3927.39
3950.18
3970.09
3986.84
4000.16
4009.85
4015.75
4017.71
4015.59
4009.54
3999.59
3985.76
3968.19
3947.1
3922.78
3895.52
3865.7
3833.74
3800.06
3765.09
3729.28
3693.11
3657
3621.36
3586.56
3552.35
3518.99
3487.42
3457.93
3430.58
3405.4
3382.43
3361.65
3343.04
3326.56
3312.13
3299.67
3289.11
3280.37
3273.35
3267.98
3264.18
3261.87
3260.99
3261.49
3263.33
3266.45
3270.84
3276.49
3283.41
3291.61
3301.11
3311.93
3324.1
3337.66
3352.65
3369.1
3387.04
3406.5
3427.48
3450
3474.03
3499.54
3526.47
3554.73
3584.29
3614.8
3646.16
3678.15
3710.49
3742.89
3775.01
3806.47
3836.87
3865.81
3892.86
3917.6
3939.63
3958.56
3974.07
3985.85
3993.69
3997.41
3996.82
3992.04
3983.1
3970.06
3953.15
3932.63
3908.83
3882.14
3852.97
3821.8
3789.1
3755.35
3721.06
3686.68
3652.65
3619.37
3587.17
3556.36
3527.14
3499.69
3474.13
3450.54
3428.92
3409.28
3391.57
3375.72
3361.67
3349.33
3338.62
3329.46
3321.79
3315.51
3310.58
3306.94
3304.52
3303.29
3303.22
3304.29
3306.47
3309.75
3314.13
3319.62
3326.26
3334.06
3343.08
3353.36
3364.97
3377.97
3392.43
3408.41
3425.97
3445.14
3465.94
3488.37
3512.4
3537.99
3565.05
3593.46
3623.09
3653.7
3685.05
3716.88
3748.87
3780.67
3811.9
3842.17
3871.07
3898.18
3923.08
3945.39
3964.75
3980.83
3993.35
4002.1
4006.93
4007.7
4004.46
3997.28
3986.23
3971.5
3953.37
3932.11
3908.08
3881.67
3853.28
3823.33
3792.25
3760.45
3728.34
3696.29
3664.65
3633.73
3603.78
3575.04
3547.7
3521.88
3497.69
3475.21
3454.46
3435.48
3418.23
3402.71
3388.86
3376.63
3365.96
3356.79
3349.05
3342.69
3337.66
3333.89
3331.36
3330.03
3329.89
3330.94
3333.12
3336.44
3340.92
3346.58
3353.42
3361.48
3370.81
3381.44
3393.45
3406.89
3421.81
3438.29
3456.35
3476.01
3497.27
3520.05
3544.29
3569.83
3596.48
3624.31
3663.21
3695.62
3728.62
3762.1
3795.82
3829.36
3862.34
3894.3
3924.75
3953.21
3979.23
4002.29
4022.02
4037.95
4049.74
4057.22
4060.38
4059.86
4055.11
4046.24
4033.59
4017.29
3997.68
3975.14
3950.02
3922.81
3893.91
3863.75
3832.8
3801.39
3769.88
3738.58
3707.69
3678.11
3651.25
3624.35
3598.24
3573.26
3549.6
3527.37
3506.62
3487.4
3469.69
3453.51
3438.83
3425.64
3413.92
3403.67
3394.86
3387.52
3381.64
3377.23
3374.31
3372.92
3373.06
3374.8
3378.17
3383.17
3389.79
3398.06
3407.95
3419.49
3432.66
3447.44
3463.83
3481.79
3501.3
3522.29
3544.72
3568.49
3593.52
3619.72
3646.94
3673.57
3701.93
3730.89
3760.22
3789.56
3818.67
3847.31
3875.04
3901.46
3770.61
3737.79
3703.92
3669.31
3634.34
3599.26
3564.5
3530.54
3505.92
3474.09
3443.51
3414.56
3387.39
3362.07
3338.65
3317.13
3297.52
3279.78
3263.88
3249.77
3237.39
3226.71
3217.65
3210.18
3204.24
3199.79
3196.82
3195.32
3195.34
3196.79
3199.68
3204.01
3209.8
3217.06
3225.84
3236.18
3248.09
3261.65
3276.88
3293.82
3312.51
3332.95
3355.15
3379.09
3404.71
3431.93
3460.63
3490.45
3521.09
3552.85
3585.42
3618.38
3651.41
3684.14
3716.14
3747.07
3776.54
3804.15
3829.54
3852.38
3872.34
3889.12
3902.47
3912.19
3918.11
3920.08
3917.97
3911.91
3901.94
3888.08
3870.48
3849.35
3824.98
3797.67
3767.79
3735.77
3702.03
3667
3631.14
3594.92
3558.76
3523.09
3488.25
3454.02
3420.64
3389.06
3359.56
3332.2
3307.03
3284.06
3263.28
3244.68
3228.21
3213.78
3201.34
3190.79
3182.06
3175.05
3169.69
3165.9
3163.6
3162.72
3163.24
3165.07
3168.19
3172.59
3178.24
3185.16
3193.35
3202.85
3213.66
3225.83
3239.39
3254.37
3270.81
3288.74
3308.2
3329.18
3351.69
3375.72
3401.23
3428.16
3456.43
3486.01
3516.54
3547.92
3579.94
3612.31
3644.75
3676.91
3708.42
3738.88
3767.87
3794.98
3819.78
3841.86
3860.84
3876.39
3888.21
3896.07
3899.8
3899.23
3894.42
3885.47
3872.4
3855.44
3834.87
3811.02
3784.27
3755.04
3723.8
3691.03
3657.23
3622.88
3588.45
3554.38
3521.06
3488.84
3458.01
3428.77
3401.32
3375.76
3352.17
3330.56
3310.93
3293.22
3277.39
3263.35
3251.02
3240.33
3231.18
3223.51
3217.25
3212.33
3208.69
3206.28
3205.05
3204.98
3206.06
3208.24
3211.51
3215.89
3221.39
3228.02
3235.81
3244.82
3255.09
3266.69
3279.68
3294.14
3310.11
3327.66
3346.82
3367.62
3390.04
3414.08
3439.68
3466.74
3495.17
3524.81
3555.44
3586.82
3618.68
3650.71
3682.56
3713.84
3744.17
3773.12
3800.28
3825.24
3847.6
3867.01
3883.13
3895.68
3904.46
3909.3
3910.09
3906.82
3899.62
3888.54
3873.78
3855.6
3834.29
3810.21
3783.74
3755.29
3725.29
3694.15
3662.31
3630.15
3598.07
3566.39
3535.44
3505.48
3476.72
3449.36
3423.54
3399.35
3376.87
3356.13
3337.14
3319.91
3304.4
3290.56
3278.34
3267.68
3258.51
3250.78
3244.43
3239.4
3235.64
3233.12
3231.79
3231.65
3232.7
3234.88
3238.21
3242.68
3248.33
3255.17
3263.22
3272.54
3283.17
3295.17
3308.59
3323.52
3339.98
3358.03
3377.69
3398.95
3421.74
3445.99
3471.54
3498.2
3525.99
3564.99
3597.37
3630.4
3663.91
3697.68
3731.27
3764.31
3796.33
3826.84
3855.37
3881.45
3904.57
3924.35
3940.33
3952.18
3959.7
3962.83
3962.26
3957.5
3948.62
3935.93
3919.59
3899.91
3877.31
3852.13
3824.86
3795.9
3765.68
3734.69
3703.23
3671.68
3640.35
3609.43
3579.85
3552.97
3526.05
3499.94
3474.95
3451.28
3429.06
3408.31
3389.09
3371.39
3355.22
3340.54
3327.36
3315.64
3305.39
3296.59
3289.25
3283.36
3278.96
3276.03
3274.64
3274.78
3276.51
3279.88
3284.88
3291.5
3299.76
3309.65
3321.19
3334.36
3349.14
3365.52
3383.49
3402.99
3423.99
3446.42
3470.2
3495.24
3521.44
3548.65
3575.36
3603.72
3632.7
3662.05
3691.42
3720.57
3749.25
3777.02
3803.48
3672.67
3639.78
3605.84
3571.18
3536.15
3501.03
3466.23
3432.21
3407.52
3375.66
3345.06
3316.11
3288.94
3263.62
3240.2
3218.7
3199.09
3181.37
3165.48
3151.38
3139.02
3128.34
3119.3
3111.83
3105.9
3101.46
3098.49
3097
3097.01
3098.47
3101.36
3105.68
3111.46
3118.72
3127.49
3137.82
3149.73
3163.27
3178.49
3195.42
3214.1
3234.54
3256.73
3280.67
3306.3
3333.53
3362.24
3392.09
3422.76
3454.55
3487.15
3520.17
3553.26
3586.04
3618.1
3649.1
3678.64
3706.32
3731.78
3754.68
3774.69
3791.53
3804.92
3814.67
3820.62
3822.6
3820.51
3814.44
3804.44
3790.55
3772.9
3751.71
3727.28
3699.89
3669.94
3637.84
3604.02
3568.92
3532.99
3496.7
3460.49
3424.76
3389.88
3355.62
3322.21
3290.61
3261.1
3233.74
3208.56
3185.59
3164.83
3146.24
3129.77
3115.36
3102.93
3092.4
3083.68
3076.69
3071.34
3067.56
3065.27
3064.41
3064.93
3066.77
3069.89
3074.28
3079.94
3086.85
3095.04
3104.53
3115.34
3127.5
3141.05
3156.02
3172.45
3190.38
3209.82
3230.8
3253.31
3277.34
3302.86
3329.79
3358.07
3387.67
3418.23
3449.64
3481.69
3514.11
3546.6
3578.82
3610.4
3640.92
3669.99
3697.17
3722.04
3744.19
3763.24
3778.85
3790.72
3798.61
3802.35
3801.81
3796.98
3787.99
3774.88
3757.87
3737.23
3713.31
3686.47
3657.16
3625.84
3592.99
3559.1
3524.68
3490.18
3456.06
3422.69
3390.43
3359.57
3330.32
3302.85
3277.29
3253.71
3232.11
3212.49
3194.8
3178.98
3164.96
3152.65
3141.97
3132.84
3125.19
3118.93
3114.02
3110.39
3107.99
3106.77
3106.7
3107.78
3109.96
3113.24
3117.62
3123.1
3129.73
3137.52
3146.51
3156.78
3168.36
3181.34
3195.78
3211.74
3229.28
3248.43
3269.22
3291.65
3315.69
3341.29
3368.36
3396.8
3426.47
3457.13
3488.55
3520.46
3552.54
3584.44
3615.79
3646.19
3675.21
3702.44
3727.48
3749.91
3769.38
3785.56
3798.16
3806.97
3811.83
3812.63
3809.34
3802.12
3791
3776.19
3757.94
3736.57
3712.41
3685.87
3657.34
3627.26
3596.06
3564.15
3531.94
3499.8
3468.08
3437.09
3407.1
3378.33
3350.95
3325.12
3300.93
3278.45
3257.71
3238.74
3221.51
3206.01
3192.18
3179.98
3169.33
3160.18
3152.46
3146.12
3141.1
3137.35
3134.82
3133.5
3133.37
3134.41
3136.6
3139.92
3144.4
3150.04
3156.87
3164.92
3174.23
3184.84
3196.83
3210.24
3225.15
3241.61
3259.65
3279.3
3300.56
3323.36
3347.62
3373.19
3399.86
3427.62
3466.71
3499.07
3532.13
3565.7
3599.53
3633.19
3666.3
3698.4
3729
3757.61
3783.78
3806.98
3826.83
3842.87
3854.78
3862.34
3865.47
3864.84
3860.07
3851.16
3838.41
3822.01
3802.26
3779.57
3754.31
3726.96
3697.91
3667.63
3636.57
3605.05
3573.45
3542.08
3511.13
3481.55
3454.62
3427.68
3401.56
3376.56
3352.9
3330.67
3309.93
3290.72
3273.03
3256.86
3242.19
3229.01
3217.3
3207.05
3198.25
3190.91
3185.03
3180.62
3177.7
3176.3
3176.43
3178.17
3181.53
3186.52
3193.14
3201.4
3211.29
3222.82
3235.99
3250.77
3267.15
3285.11
3304.62
3325.62
3348.06
3371.85
3396.89
3423.11
3450.3
3477.12
3505.48
3534.47
3563.85
3593.27
3622.46
3651.19
3679.02
3705.53
3574.77
3541.79
3507.77
3473.03
3437.94
3402.76
3367.91
3333.83
3309.04
3277.13
3246.53
3217.57
3190.4
3165.09
3141.68
3120.18
3100.59
3082.88
3067
3052.92
3040.57
3029.91
3020.88
3013.42
3007.5
3003.07
3000.11
2998.62
2998.63
3000.08
3002.97
3007.29
3013.07
3020.32
3029.08
3039.39
3051.29
3064.82
3080.03
3096.95
3115.62
3136.05
3158.24
3182.18
3207.81
3235.05
3263.78
3293.67
3324.36
3356.19
3388.85
3421.93
3455.08
3487.94
3520.09
3551.17
3580.79
3608.55
3634.1
3657.07
3677.16
3694.06
3707.52
3717.31
3723.28
3725.28
3723.2
3717.12
3707.1
3693.15
3675.45
3654.19
3629.67
3602.2
3572.16
3539.95
3506.04
3470.84
3434.82
3398.45
3362.16
3326.37
3291.44
3257.13
3223.7
3192.08
3162.55
3135.18
3110.01
3087.04
3066.28
3047.7
3031.25
3016.86
3004.44
2993.93
2985.23
2978.26
2972.92
2969.16
2966.89
2966.04
2966.57
2968.41
2971.54
2975.93
2981.58
2988.5
2996.68
3006.16
3016.96
3029.11
3042.65
3057.61
3074.03
3091.95
3111.39
3132.36
3154.86
3178.9
3204.41
3231.36
3259.65
3289.28
3319.86
3351.31
3383.4
3415.88
3448.44
3480.73
3512.39
3543
3572.16
3599.44
3624.4
3646.64
3665.77
3681.45
3693.38
3701.31
3705.08
3704.54
3699.7
3690.67
3677.51
3660.43
3639.71
3615.69
3588.76
3559.34
3527.91
3494.95
3460.97
3426.45
3391.87
3357.67
3324.25
3291.95
3261.05
3231.77
3204.3
3178.74
3155.16
3133.57
3113.97
3096.3
3080.5
3066.5
3054.21
3043.55
3034.44
3026.8
3020.56
3015.66
3012.04
3009.65
3008.44
3008.38
3009.46
3011.64
3014.92
3019.29
3024.78
3031.39
3039.17
3048.16
3058.4
3069.97
3082.94
3097.36
3113.3
3130.83
3149.97
3170.75
3193.17
3217.21
3242.82
3269.91
3298.37
3328.06
3358.77
3390.23
3422.2
3454.34
3486.32
3517.75
3548.24
3577.35
3604.68
3629.81
3652.33
3671.88
3688.12
3700.78
3709.63
3714.51
3715.32
3712.02
3704.76
3693.59
3678.72
3660.4
3638.94
3614.69
3588.05
3559.43
3529.26
3497.97
3465.98
3433.69
3401.49
3369.72
3338.68
3308.66
3279.86
3252.46
3226.62
3202.43
3179.95
3159.22
3140.25
3123.04
3107.55
3093.74
3081.55
3070.92
3061.79
3054.08
3047.75
3042.74
3039
3036.49
3035.17
3035.04
3036.09
3038.27
3041.59
3046.06
3051.7
3058.52
3066.56
3075.86
3086.46
3098.43
3111.82
3126.72
3143.16
3161.19
3180.84
3202.1
3224.91
3249.19
3274.77
3301.47
3329.2
3368.37
3400.72
3433.82
3467.45
3501.36
3535.11
3568.31
3600.52
3631.22
3659.95
3686.22
3709.52
3729.46
3745.58
3757.56
3765.17
3768.28
3767.62
3762.81
3753.86
3741.05
3724.56
3704.71
3681.92
3656.55
3629.1
3599.96
3569.58
3538.44
3506.85
3475.18
3443.77
3412.78
3383.19
3356.21
3329.25
3303.11
3278.11
3254.44
3232.22
3211.48
3192.28
3174.6
3158.43
3143.78
3130.6
3118.9
3108.66
3099.86
3092.52
3086.64
3082.23
3079.3
3077.9
3078.02
3079.75
3083.11
3088.1
3094.72
3102.97
3112.86
3124.38
3137.55
3152.33
3168.71
3186.67
3206.18
3227.19
3249.63
3273.43
3298.49
3324.71
3351.89
3378.83
3407.19
3436.21
3465.63
3495.1
3524.35
3553.15
3581.04
3607.62
3476.91
3443.83
3409.71
3374.88
3339.7
3304.45
3269.55
3235.39
3210.48
3178.52
3147.9
3118.94
3091.77
3066.46
3043.06
3021.58
3002.01
2984.31
2968.45
2954.39
2942.06
2931.41
2922.4
2914.96
2909.05
2904.63
2901.67
2900.19
2900.2
2901.65
2904.53
2908.85
2914.62
2921.86
2930.6
2940.9
2952.79
2966.3
2981.5
2998.4
3017.06
3037.48
3059.66
3083.6
3109.24
3136.5
3165.24
3195.18
3225.9
3257.78
3290.51
3323.66
3356.9
3389.84
3422.08
3453.26
3482.99
3510.85
3536.5
3559.57
3579.74
3596.73
3610.25
3620.09
3626.1
3628.12
3626.05
3619.97
3609.9
3595.9
3578.13
3556.79
3532.17
3504.59
3474.43
3442.11
3408.08
3372.77
3336.64
3300.17
3263.79
3227.93
3192.93
3158.57
3125.1
3093.46
3063.91
3036.54
3011.36
2988.4
2967.65
2949.08
2932.65
2918.27
2905.88
2895.39
2886.71
2879.76
2874.45
2870.7
2868.45
2867.61
2868.15
2870
2873.14
2877.53
2883.18
2890.09
2898.27
2907.74
2918.53
2930.67
2944.19
2959.14
2975.55
2993.46
3012.88
3033.84
3056.35
3080.38
3105.9
3132.85
3161.15
3190.83
3221.44
3252.93
3285.08
3317.62
3350.26
3382.64
3414.39
3445.12
3474.39
3501.78
3526.85
3549.2
3568.43
3584.19
3596.19
3604.17
3607.97
3607.44
3602.59
3593.51
3580.29
3563.12
3542.31
3518.17
3491.12
3461.57
3430.01
3396.93
3362.83
3328.2
3293.52
3259.24
3225.74
3193.38
3162.44
3133.14
3105.65
3080.09
3056.51
3034.94
3015.36
2997.72
2981.94
2967.97
2955.7
2945.07
2935.98
2928.36
2922.14
2917.25
2913.65
2911.27
2910.07
2910.02
2911.1
2913.28
2916.56
2920.93
2926.41
2933.01
2940.78
2949.75
2959.98
2971.53
2984.47
2998.87
3014.8
3032.31
3051.44
3072.21
3094.63
3118.67
3144.28
3171.39
3199.88
3229.6
3260.35
3291.87
3323.91
3356.13
3388.2
3419.73
3450.32
3479.54
3506.98
3532.22
3554.85
3574.49
3590.82
3603.55
3612.45
3617.35
3618.16
3614.86
3607.55
3596.33
3581.37
3562.96
3541.4
3517.05
3490.29
3461.56
3431.28
3399.88
3367.79
3335.42
3303.14
3271.3
3240.21
3210.14
3181.31
3153.9
3128.04
3103.84
3081.36
3060.64
3041.69
3024.49
3009.02
2995.23
2983.06
2972.45
2963.33
2955.65
2949.33
2944.34
2940.6
2938.1
2936.79
2936.67
2937.71
2939.89
2943.22
2947.68
2953.31
2960.12
2968.15
2977.43
2988.02
2999.96
3013.34
3028.22
3044.64
3062.66
3082.31
3103.57
3126.39
3150.68
3176.3
3203.02
3230.74
3269.94
3302.3
3335.47
3369.18
3403.18
3437.03
3470.35
3502.68
3533.5
3562.36
3588.76
3612.18
3632.23
3648.45
3660.51
3668.16
3671.27
3670.58
3665.72
3656.73
3643.83
3627.24
3607.27
3584.36
3558.87
3531.3
3502.04
3471.55
3440.3
3408.63
3376.89
3345.41
3314.37
3284.79
3257.74
3230.75
3204.6
3179.58
3155.91
3133.69
3112.96
3093.77
3076.1
3059.95
3045.3
3032.14
3020.44
3010.2
3001.41
2994.07
2988.19
2983.77
2980.85
2979.44
2979.56
2981.28
2984.64
2989.62
2996.23
3004.48
3014.36
3025.88
3039.04
3053.82
3070.2
3088.16
3107.68
3128.69
3151.14
3174.95
3200.02
3226.25
3253.43
3280.49
3308.86
3337.92
3367.39
3396.92
3426.24
3455.12
3483.09
3509.75
3379.09
3345.88
3311.65
3276.71
3241.44
3206.12
3171.15
3136.91
3111.83
3079.82
3049.19
3020.22
2993.05
2967.75
2944.36
2922.9
2903.34
2885.67
2869.83
2855.79
2843.48
2832.85
2823.85
2816.43
2810.53
2806.12
2803.18
2801.7
2801.7
2803.15
2806.04
2810.34
2816.1
2823.33
2832.07
2842.35
2854.22
2867.71
2882.89
2899.78
2918.42
2938.83
2961.01
2984.95
3010.6
3037.87
3066.64
3096.63
3127.39
3159.32
3192.12
3225.36
3258.69
3291.75
3324.1
3355.39
3385.24
3413.22
3438.98
3462.16
3482.44
3499.52
3513.11
3523.02
3529.07
3531.11
3529.06
3522.96
3512.86
3498.8
3480.94
3459.5
3434.77
3407.06
3376.77
3344.31
3310.14
3274.7
3238.44
3201.86
3165.38
3129.42
3094.35
3059.94
3026.42
2994.74
2965.18
2937.8
2912.62
2889.66
2868.93
2850.38
2833.96
2819.61
2807.24
2796.78
2788.13
2781.2
2775.91
2772.19
2769.95
2769.14
2769.69
2771.55
2774.68
2779.08
2784.73
2791.63
2799.8
2809.26
2820.04
2832.17
2845.68
2860.61
2877.01
2894.89
2914.31
2935.26
2957.76
2981.79
3007.31
3034.28
3062.59
3092.32
3122.96
3154.5
3186.72
3219.34
3252.07
3284.55
3316.42
3347.27
3376.67
3404.19
3429.4
3451.87
3471.22
3487.08
3499.16
3507.2
3511.03
3510.51
3505.65
3496.51
3483.21
3465.95
3445.02
3420.75
3393.55
3363.86
3332.15
3298.92
3264.67
3229.91
3195.12
3160.74
3127.16
3094.74
3063.75
3034.42
3006.92
2981.35
2957.78
2936.23
2916.67
2899.05
2883.31
2869.36
2857.13
2846.52
2837.45
2829.86
2823.66
2818.79
2815.2
2812.84
2811.65
2811.61
2812.69
2814.88
2818.15
2822.52
2827.99
2834.59
2842.34
2851.29
2861.5
2873.03
2885.94
2900.32
2916.23
2933.72
2952.83
2973.59
2996.01
3020.05
3045.67
3072.8
3101.31
3131.07
3161.88
3193.47
3225.58
3257.9
3290.07
3321.72
3352.43
3381.78
3409.35
3434.72
3457.47
3477.23
3493.66
3506.46
3515.42
3520.35
3521.17
3517.86
3510.5
3499.2
3484.16
3465.64
3443.96
3419.48
3392.59
3363.72
3333.31
3301.79
3269.59
3237.11
3204.74
3172.83
3141.68
3111.56
3082.69
3055.25
3029.38
3005.18
2982.7
2961.99
2943.05
2925.87
2910.42
2896.65
2884.51
2873.92
2864.83
2857.16
2850.86
2845.88
2842.16
2839.67
2838.37
2838.25
2839.3
2841.48
2844.8
2849.26
2854.88
2861.68
2869.69
2878.95
2889.52
2901.44
2914.8
2929.65
2946.05
2964.06
2983.7
3004.96
3027.8
3052.11
3077.76
3104.52
3132.25
3171.44
3203.83
3237.07
3270.88
3304.98
3338.95
3372.41
3404.88
3435.85
3464.87
3491.42
3514.98
3535.16
3551.48
3563.63
3571.34
3574.45
3573.72
3568.82
3559.75
3546.76
3530.05
3509.95
3486.9
3461.26
3433.54
3404.14
3373.52
3342.16
3310.39
3278.55
3247
3215.91
3186.33
3159.2
3132.19
3106.01
3080.99
3057.31
3035.09
3014.37
2995.19
2977.53
2961.39
2946.76
2933.61
2921.92
2911.69
2902.9
2895.56
2889.68
2885.26
2882.33
2880.92
2881.03
2882.75
2886.1
2891.07
2897.68
2905.92
2915.79
2927.31
2940.47
2955.24
2971.62
2989.59
3009.1
3030.12
3052.58
3076.41
3101.5
3127.74
3154.93
3182.1
3210.49
3239.59
3269.12
3298.72
3328.13
3357.1
3385.16
3411.92
3281.31
3247.96
3213.6
3178.53
3143.16
3107.74
3072.7
3038.39
3013.1
2981.03
2950.39
2921.42
2894.25
2868.95
2845.58
2824.13
2804.59
2786.94
2771.13
2757.11
2744.83
2734.22
2725.24
2717.84
2711.96
2707.56
2704.62
2703.15
2703.15
2704.61
2707.48
2711.78
2717.53
2724.75
2733.46
2743.73
2755.58
2769.06
2784.21
2801.08
2819.71
2840.1
2862.27
2886.21
2911.87
2939.16
2967.96
2998.01
3028.8
3060.81
3093.69
3127.03
3160.47
3193.65
3226.13
3257.55
3287.54
3315.65
3341.55
3364.86
3385.25
3402.43
3416.12
3426.1
3432.2
3434.27
3432.23
3426.12
3415.96
3401.84
3383.89
3362.33
3337.46
3309.62
3279.17
3246.55
3212.22
3176.63
3140.23
3103.52
3066.92
3030.86
2995.7
2961.22
2927.65
2895.94
2866.36
2838.97
2813.78
2790.84
2770.11
2751.58
2735.19
2720.86
2708.52
2698.09
2689.47
2682.57
2677.31
2673.61
2671.4
2670.6
2671.17
2673.04
2676.18
2680.58
2686.23
2693.13
2701.29
2710.73
2721.5
2733.61
2747.1
2762.02
2778.4
2796.27
2815.67
2836.61
2859.1
2883.13
2908.66
2935.64
2963.96
2993.75
3024.42
3056.03
3088.32
3121.03
3153.86
3186.46
3218.46
3249.45
3279
3306.67
3332.03
3354.65
3374.13
3390.11
3402.28
3410.39
3414.26
3413.75
3408.87
3399.67
3386.29
3368.92
3347.85
3323.43
3296.07
3266.2
3234.32
3200.92
3166.51
3131.6
3096.68
3062.18
3028.51
2996.02
2964.97
2935.61
2908.09
2882.52
2858.96
2837.43
2817.89
2800.31
2784.6
2770.69
2758.48
2747.91
2738.87
2731.3
2725.13
2720.28
2716.71
2714.36
2713.18
2713.15
2714.24
2716.43
2719.7
2724.07
2729.53
2736.11
2743.85
2752.78
2762.96
2774.47
2787.36
2801.71
2817.59
2835.06
2854.15
2874.9
2897.31
2921.35
2946.99
2974.13
3002.68
3032.49
3063.35
3095.02
3127.22
3159.65
3191.94
3223.71
3254.57
3284.07
3311.79
3337.3
3360.2
3380.09
3396.63
3409.52
3418.54
3423.51
3424.34
3421.01
3413.6
3402.22
3387.07
3368.43
3346.62
3321.98
3294.94
3265.92
3235.36
3203.7
3171.37
3138.77
3106.3
3074.3
3043.08
3012.91
2984
2956.53
2930.64
2906.43
2883.96
2863.26
2844.33
2827.18
2811.75
2798.01
2785.89
2775.33
2766.26
2758.62
2752.34
2747.37
2743.67
2741.19
2739.9
2739.79
2740.83
2743.01
2746.33
2750.79
2756.4
2763.18
2771.18
2780.42
2790.96
2802.86
2816.19
2831.02
2847.4
2865.39
2885.02
2906.28
2929.13
2953.47
2979.16
3005.97
3033.72
3072.86
3105.3
3138.63
3172.55
3206.77
3240.88
3274.48
3307.12
3338.27
3367.46
3394.18
3417.91
3438.23
3454.68
3466.93
3474.7
3477.81
3477.05
3472.09
3462.94
3449.84
3432.99
3412.75
3389.52
3363.71
3335.83
3306.27
3275.51
3244.01
3212.12
3180.18
3148.55
3117.4
3087.82
3060.6
3033.56
3007.36
2982.32
2958.64
2936.42
2915.71
2896.54
2878.9
2862.78
2848.16
2835.02
2823.34
2813.11
2804.33
2796.99
2791.11
2786.69
2783.76
2782.34
2782.44
2784.15
2787.49
2792.46
2799.06
2807.29
2817.16
2828.67
2841.82
2856.6
2872.97
2890.94
2910.46
2931.48
2953.96
2977.8
3002.91
3029.18
3056.38
3083.66
3112.08
3141.23
3170.83
3200.51
3230.01
3259.08
3287.26
3314.12
3183.56
3150.07
3115.55
3080.35
3044.85
3009.33
2974.21
2939.83
2914.26
2882.15
2851.49
2822.52
2795.35
2770.07
2746.71
2725.28
2705.77
2688.14
2672.36
2658.37
2646.11
2635.53
2626.57
2619.19
2613.32
2608.94
2606.01
2604.52
2604.55
2606
2608.87
2613.17
2618.9
2626.1
2634.8
2645.05
2656.87
2670.33
2685.46
2702.31
2720.92
2741.3
2763.46
2787.4
2813.07
2840.38
2869.21
2899.32
2930.16
2962.24
2995.22
3028.67
3062.24
3095.54
3128.17
3159.75
3189.88
3218.15
3244.2
3267.65
3288.18
3305.48
3319.27
3329.33
3335.49
3337.59
3335.56
3329.43
3319.22
3305.02
3286.96
3265.28
3240.26
3212.25
3181.63
3148.83
3114.33
3078.57
3042.01
3005.14
2968.41
2932.23
2896.98
2862.42
2828.8
2797.05
2767.45
2740.04
2714.86
2691.92
2671.21
2652.7
2636.33
2622.04
2609.73
2599.33
2590.74
2583.88
2578.65
2574.98
2572.79
2572.02
2572.6
2574.48
2577.63
2582.03
2587.67
2594.57
2602.72
2612.15
2622.9
2634.99
2648.47
2663.36
2679.72
2697.58
2716.96
2737.89
2760.37
2784.4
2809.94
2836.93
2865.27
2895.12
2925.83
2957.5
2989.88
3022.69
3055.64
3088.38
3120.52
3151.67
3181.39
3209.23
3234.76
3257.54
3277.17
3293.28
3305.56
3313.75
3317.65
3317.16
3312.25
3303
3289.51
3272.01
3250.79
3226.21
3198.66
3168.6
3136.52
3102.93
3068.34
3033.27
2998.19
2963.57
2929.79
2897.21
2866.11
2836.7
2809.16
2783.59
2760.05
2738.54
2719.03
2701.48
2685.81
2671.94
2659.77
2649.23
2640.23
2632.69
2626.54
2621.72
2618.17
2615.84
2614.67
2614.65
2615.75
2617.94
2621.21
2625.57
2631.02
2637.59
2645.31
2654.22
2664.38
2675.85
2688.71
2703.03
2718.88
2736.33
2755.4
2776.14
2798.54
2822.58
2848.23
2875.4
2903.98
2933.84
2964.78
2996.53
3028.83
3061.37
3093.8
3125.72
3156.73
3186.4
3214.29
3239.97
3263.03
3283.06
3299.73
3312.73
3321.82
3326.84
3327.68
3324.32
3316.85
3305.38
3290.12
3271.34
3249.36
3224.56
3197.35
3168.16
3137.43
3105.61
3073.13
3040.4
3007.82
2975.72
2944.42
2914.18
2885.22
2857.73
2831.82
2807.61
2785.14
2764.45
2745.54
2728.41
2713.01
2699.29
2687.2
2676.67
2667.63
2660.02
2653.76
2648.81
2645.13
2642.66
2641.38
2641.27
2642.33
2644.51
2647.82
2652.27
2657.87
2664.64
2672.62
2681.84
2692.35
2704.22
2717.52
2732.32
2748.67
2766.64
2786.26
2807.52
2830.39
2854.77
2880.5
2907.37
2935.15
2974.2
3006.7
3040.14
3074.18
3108.54
3142.8
3176.58
3209.4
3240.75
3270.13
3297.06
3320.97
3341.46
3358.05
3370.4
3378.23
3381.35
3380.56
3375.54
3366.3
3353.07
3336.07
3315.64
3292.23
3266.24
3238.16
3208.43
3177.5
3145.86
3113.83
3081.78
3050.04
3018.83
2989.26
2961.94
2934.86
2908.63
2883.58
2859.89
2837.68
2816.98
2797.83
2780.2
2764.1
2749.49
2736.37
2724.7
2714.48
2705.7
2698.37
2692.48
2688.06
2685.12
2683.69
2683.79
2685.49
2688.83
2693.79
2700.37
2708.6
2718.46
2729.97
2743.12
2757.88
2774.26
2792.22
2811.75
2832.78
2855.27
2879.13
2904.26
2930.55
2957.78
2985.16
3013.62
3042.83
3072.51
3102.28
3131.89
3161.08
3189.38
3216.37
3085.86
3052.19
3017.5
2982.15
2946.51
2910.88
2875.68
2841.24
2815.32
2783.18
2752.51
2723.53
2696.37
2671.09
2647.75
2626.34
2606.86
2589.26
2573.51
2559.55
2547.32
2536.77
2527.84
2520.47
2514.63
2510.26
2507.34
2505.85
2505.88
2507.34
2510.21
2514.49
2520.21
2527.39
2536.08
2546.3
2558.1
2571.53
2586.64
2603.46
2622.05
2642.41
2664.56
2688.5
2714.19
2741.52
2770.39
2800.57
2831.45
2863.62
2896.71
2930.28
2963.98
2997.44
3030.22
3061.97
3092.28
3120.72
3146.93
3170.55
3191.22
3208.65
3222.56
3232.71
3238.93
3241.07
3239.05
3232.9
3222.64
3208.34
3190.17
3168.35
3143.16
3114.97
3084.15
3051.16
3016.46
2980.5
2943.76
2906.73
2869.85
2833.55
2798.19
2763.54
2729.86
2698.07
2668.44
2641.02
2615.84
2592.91
2572.22
2553.73
2537.39
2523.13
2510.86
2500.49
2491.94
2485.12
2479.92
2476.29
2474.13
2473.38
2473.98
2475.87
2479.03
2483.43
2489.07
2495.96
2504.1
2513.52
2524.25
2536.32
2549.77
2564.65
2580.98
2598.82
2618.18
2639.1
2661.57
2685.6
2711.14
2738.15
2766.52
2796.41