/*--------------------------------*- C++ -*----------------------------------*\
| =========                 |                                                 |
| \\      /  F ield         | OpenFOAM: The Open Source CFD Toolbox           |
|  \\    /   O peration     | Version:  3.0.1                                 |
|   \\  /    A nd           | Web:      www.OpenFOAM.org                      |
|    \\/     M anipulation  |                                                 |
\*---------------------------------------------------------------------------*/
FoamFile
{
    version     2.0;
    format      ascii;
    class       surfaceScalarField;
    location    "67";
    object      alphaPhi;
}
// * * * * * * * * * * * * * * * * * * * * * * * * * * * * * * * * * * * * * //

dimensions      [0 3 -1 0 0 0 0];

internalField   nonuniform List<scalar> 
42423
(
8.5477e-05
-1.83556e-05
0.000103965
-1.84882e-05
0.000122178
-1.82127e-05
0.000139806
-1.76289e-05
0.000156842
-1.70362e-05
0.000172886
-1.6044e-05
0.000187807
-1.49208e-05
0.000201273
-1.34656e-05
0.000213075
-1.18026e-05
0.000222991
-9.91596e-06
0.000230842
-7.85113e-06
0.000236458
-5.6161e-06
0.000239764
-3.30587e-06
0.000240706
-9.42298e-07
0.000239313
1.39305e-06
0.000235466
3.84638e-06
0.000229168
6.29855e-06
0.000220817
8.35078e-06
0.000210485
1.03317e-05
0.000198213
1.22719e-05
0.00018448
1.37328e-05
0.000169344
1.51363e-05
0.000153118
1.62256e-05
0.000135957
1.71609e-05
0.000118233
1.77238e-05
0.000100143
1.809e-05
8.18153e-05
1.83279e-05
6.35513e-05
1.8264e-05
4.55284e-05
1.80228e-05
2.78634e-05
1.7665e-05
1.07225e-05
1.71409e-05
-5.78536e-06
1.65079e-05
-2.15989e-05
1.58136e-05
-3.66279e-05
1.50289e-05
-5.08537e-05
1.42258e-05
-6.4202e-05
1.33483e-05
-7.66632e-05
1.24612e-05
-8.82371e-05
1.15739e-05
-9.89288e-05
1.06916e-05
-0.000108734
9.80488e-06
-0.000117708
8.97393e-06
-0.000125832
8.12394e-06
-0.000133177
7.34566e-06
-0.000139716
6.5386e-06
-0.000145517
5.80131e-06
-0.000150567
5.04969e-06
-0.000154863
4.29624e-06
-0.000158448
3.58532e-06
-0.00016134
2.89174e-06
-0.000163507
2.16686e-06
-0.000164981
1.47383e-06
-0.000165739
7.5828e-07
-0.000165768
2.85609e-08
-0.000165029
-7.39108e-07
-0.000163531
-1.49801e-06
-0.000161186
-2.34449e-06
-0.000158085
-3.10144e-06
-0.000154277
-3.80761e-06
-0.000149418
-4.85867e-06
-0.000143881
-5.5373e-06
-0.000137235
-6.64619e-06
-0.000129675
-7.56031e-06
-0.000121316
-8.35884e-06
-0.000111956
-9.35958e-06
-0.000101613
-1.03437e-05
-9.04337e-05
-1.11791e-05
-7.82365e-05
-1.21972e-05
-6.51081e-05
-1.31285e-05
-5.11377e-05
-1.39705e-05
-3.62487e-05
-1.48891e-05
-2.07216e-05
-1.55271e-05
-4.45483e-06
-1.62669e-05
1.22977e-05
-1.67526e-05
2.95474e-05
-1.72498e-05
4.71538e-05
-1.76065e-05
6.49779e-05
-1.78242e-05
8.28087e-05
-1.78309e-05
0.000100621
-1.7812e-05
0.000118047
-1.74267e-05
0.000135095
-1.70476e-05
0.000151438
-1.6343e-05
0.000166853
-1.54152e-05
0.000181305
-1.44524e-05
0.000194433
-1.31274e-05
0.000206047
-1.16141e-05
0.000216021
-9.97398e-06
0.000224144
-8.12284e-06
0.000230424
-6.27914e-06
0.000234549
-4.12509e-06
0.000236437
-1.8872e-06
0.00023604
3.96892e-07
0.000233257
2.78328e-06
0.000228061
5.19684e-06
0.000220582
7.47961e-06
0.000210841
9.74081e-06
0.000199091
1.17503e-05
0.000185497
1.35944e-05
0.000170259
1.52388e-05
0.000153654
1.66046e-05
0.000135924
1.77305e-05
0.000117314
1.86105e-05
9.81118e-05
1.92018e-05
7.85436e-05
1.95682e-05
5.88574e-05
1.96862e-05
3.93053e-05
1.95522e-05
2.00847e-05
1.92206e-05
1.42532e-06
1.86594e-05
-1.65244e-05
1.79497e-05
-3.36105e-05
1.7086e-05
-4.97401e-05
1.61296e-05
-6.49098e-05
1.51698e-05
-7.90026e-05
1.40927e-05
-9.19818e-05
1.29792e-05
-0.000103872
1.189e-05
-0.000114731
1.08594e-05
-0.000124503
9.77183e-06
-0.000133244
8.74143e-06
-0.000141016
7.7715e-06
-0.000147795
6.77908e-06
-0.00015364
5.84525e-06
-0.00015855
4.90988e-06
-0.000162681
4.13075e-06
-0.000165896
3.21464e-06
-0.000168302
2.40656e-06
-0.000169893
1.59099e-06
-0.000170699
8.05515e-07
-0.000170805
1.0652e-07
-0.000170124
-6.81427e-07
-0.000168694
-1.43039e-06
-0.000166698
-1.99591e-06
-0.000163932
-2.76524e-06
-0.000160584
-3.34858e-06
-0.00015654
-4.04382e-06
-0.000151816
-4.72383e-06
-0.000146486
-5.33082e-06
-0.000140378
-6.10762e-06
-0.000133687
-6.69139e-06
-0.000126184
-7.50249e-06
-0.00011787
-8.31424e-06
-0.000108769
-9.10094e-06
-9.88339e-05
-9.9353e-06
-8.80176e-05
-1.08164e-05
-7.63545e-05
-1.16631e-05
-6.3801e-05
-1.25537e-05
-5.03213e-05
-1.34798e-05
-3.6109e-05
-1.42123e-05
-2.11171e-05
-1.49921e-05
-5.38035e-06
-1.57368e-05
1.09857e-05
-1.63662e-05
2.78672e-05
-1.68816e-05
4.51388e-05
-1.72718e-05
6.26293e-05
-1.74906e-05
8.01359e-05
-1.75068e-05
9.74659e-05
-1.73301e-05
0.000114385
-1.69195e-05
0.000130689
-1.63039e-05
0.000146116
-1.54271e-05
0.000160388
-1.42719e-05
0.00017327
-1.28825e-05
0.00018447
-1.12e-05
0.000193793
-9.3236e-06
0.000201002
-7.209e-06
0.000205955
-4.95304e-06
0.000208495
-2.53955e-06
0.000208578
-8.35297e-08
0.000206131
2.44712e-06
0.000201144
4.98699e-06
0.000193722
7.42134e-06
0.000184058
9.66437e-06
0.000172286
1.17715e-05
0.000158638
1.36483e-05
0.000143399
1.52391e-05
0.000126823
1.65755e-05
0.0001092
1.76229e-05
9.07444e-05
1.84555e-05
7.18331e-05
1.89112e-05
5.26672e-05
1.91659e-05
3.35449e-05
1.91223e-05
1.46487e-05
1.88961e-05
-3.80324e-06
1.84519e-05
-2.15888e-05
1.77856e-05
-3.86049e-05
1.70161e-05
-5.47169e-05
1.6112e-05
-6.98563e-05
1.51394e-05
-8.39981e-05
1.41418e-05
-9.71523e-05
1.31542e-05
-0.00010932
1.2168e-05
-0.000120479
1.11587e-05
-0.000130617
1.0138e-05
-0.000139716
9.09893e-06
-0.000147842
8.12608e-06
-0.000154977
7.13475e-06
-0.000161214
6.2368e-06
-0.000166653
5.43984e-06
-0.00017137
4.71672e-06
-0.000175411
4.04081e-06
-0.000178848
3.43749e-06
-0.000181649
2.80034e-06
-0.000183782
2.13343e-06
-0.000185184
1.40206e-06
-0.000185979
7.94307e-07
-0.000186061
8.19707e-08
-0.000185421
-6.39379e-07
-0.000184035
-1.3862e-06
-0.000182006
-2.02934e-06
-0.000179245
-2.76038e-06
-0.000175852
-3.39361e-06
-0.000171763
-4.08876e-06
-0.000166957
-4.80606e-06
-0.000161574
-5.38288e-06
-0.000155448
-6.12655e-06
-0.000148581
-6.86665e-06
-0.000140934
-7.64722e-06
-0.000132429
-8.5043e-06
-0.000123194
-9.23534e-06
-0.000113037
-1.01567e-05
-0.00010203
-1.10073e-05
-9.01381e-05
-1.18922e-05
-7.74338e-05
-1.27043e-05
-6.3945e-05
-1.34889e-05
-4.96914e-05
-1.42537e-05
-3.47573e-05
-1.49341e-05
-1.92275e-05
-1.55299e-05
-3.17261e-06
-1.6055e-05
1.3301e-05
-1.64737e-05
3.00612e-05
-1.67603e-05
4.69736e-05
-1.69125e-05
6.38094e-05
-1.68359e-05
8.04284e-05
-1.66191e-05
9.65788e-05
-1.61505e-05
0.00011202
-1.54411e-05
0.000126447
-1.44276e-05
0.000139669
-1.32213e-05
0.000151425
-1.17569e-05
0.000161484
-1.00588e-05
0.000169667
-8.18294e-06
0.000175756
-6.0887e-06
0.0001796
-3.84407e-06
0.000181097
-1.4979e-06
0.000180202
8.95048e-07
0.000176845
3.35687e-06
0.00017109
5.75527e-06
0.000163053
8.03658e-06
0.000152795
1.02583e-05
0.000140572
1.22225e-05
0.000126556
1.40159e-05
0.000111078
1.5478e-05
9.43844e-05
1.66937e-05
7.67824e-05
1.76018e-05
5.85502e-05
1.82321e-05
4.00203e-05
1.85298e-05
2.14047e-05
1.86156e-05
2.93662e-06
1.8468e-05
-1.5204e-05
1.81407e-05
-3.28872e-05
1.76832e-05
-4.9936e-05
1.70488e-05
-6.62201e-05
1.62842e-05
-8.16092e-05
1.53893e-05
-9.6057e-05
1.44479e-05
-0.000109454
1.33972e-05
-0.000121878
1.24242e-05
-0.000133205
1.13274e-05
-0.000143494
1.02891e-05
-0.000152722
9.22794e-06
-0.000160955
8.23293e-06
-0.00016822
7.2656e-06
-0.000174634
6.41326e-06
-0.000180128
5.49422e-06
-0.000184763
4.63497e-06
-0.000188657
3.89449e-06
-0.000191793
3.13631e-06
-0.000194113
2.31974e-06
-0.000195687
1.57362e-06
-0.000196549
8.62936e-07
-0.000196745
1.9545e-07
-0.000196232
-5.12319e-07
-0.000194939
-1.29311e-06
-0.000192966
-1.97302e-06
-0.000190237
-2.72971e-06
-0.000186641
-3.59577e-06
-0.000182281
-4.35967e-06
-0.000177044
-5.23739e-06
-0.000171144
-5.89981e-06
-0.000164508
-6.63565e-06
-0.00015718
-7.3286e-06
-0.000149326
-7.8537e-06
-0.000140996
-8.33045e-06
-0.000132053
-8.94246e-06
-0.000122566
-9.4874e-06
-0.000112425
-1.01412e-05
-0.000101625
-1.07997e-05
-9.03374e-05
-1.12876e-05
-7.82341e-05
-1.21033e-05
-6.52831e-05
-1.29511e-05
-5.16588e-05
-1.36244e-05
-3.70815e-05
-1.45773e-05
-2.15932e-05
-1.54884e-05
-5.42518e-06
-1.6168e-05
1.15893e-05
-1.70146e-05
2.90807e-05
-1.74914e-05
4.70276e-05
-1.7947e-05
6.52694e-05
-1.82418e-05
8.33265e-05
-1.80572e-05
0.000101096
-1.77699e-05
0.000118298
-1.72017e-05
0.000134498
-1.61998e-05
0.000149529
-1.50316e-05
0.00016304
-1.35111e-05
0.000174909
-1.18684e-05
0.000184802
-9.8939e-06
0.000192479
-7.67613e-06
0.000197872
-5.39387e-06
0.00020088
-3.00732e-06
0.000201419
-5.3933e-07
0.000199426
1.99331e-06
0.000194899
4.52681e-06
0.000188178
6.72044e-06
0.000179441
8.73723e-06
0.000168708
1.07326e-05
0.000156494
1.22141e-05
0.000142916
1.35777e-05
0.000128188
1.47287e-05
0.00011275
1.54371e-05
9.6615e-05
1.61354e-05
8.01748e-05
1.64402e-05
6.36189e-05
1.65559e-05
4.7098e-05
1.65209e-05
3.07861e-05
1.63119e-05
1.47753e-05
1.60107e-05
-8.40037e-07
1.56153e-05
-1.59428e-05
1.51028e-05
-3.05217e-05
1.45788e-05
-4.45003e-05
1.39786e-05
-5.78305e-05
1.33303e-05
-7.05178e-05
1.26872e-05
-8.25148e-05
1.1997e-05
-9.38389e-05
1.1324e-05
-0.000104456
1.06168e-05
-0.000114343
9.88723e-06
-0.000123519
9.17558e-06
-0.000131954
8.43564e-06
-0.000139629
7.67435e-06
-0.000146539
6.91045e-06
-0.000152664
6.12505e-06
-0.000158
5.33622e-06
-0.000162535
4.53462e-06
-0.000166258
3.72277e-06
-0.000169161
2.9032e-06
-0.000171233
2.07253e-06
-0.000172481
1.24801e-06
-0.000172914
4.3289e-07
-0.00017241
-5.04067e-07
-0.000171021
-1.38896e-06
-0.000168767
-2.25379e-06
-0.000165636
-3.13174e-06
-0.000161665
-3.97089e-06
-4.81996e-06
8.54786e-05
-3.67184e-05
0.000103977
-3.69872e-05
0.000122206
-3.64418e-05
0.000139847
-3.52703e-05
0.000156894
-3.40831e-05
0.00017295
-3.21005e-05
0.000187892
-2.98629e-05
0.000201384
-2.69578e-05
0.000213189
-2.36084e-05
0.000223101
-1.98273e-05
0.000230958
-1.57089e-05
0.00023658
-1.12378e-05
0.00023989
-6.61593e-06
0.000240836
-1.88866e-06
0.000239431
2.79759e-06
0.000235578
7.699e-06
0.000229278
1.25987e-05
0.00022092
1.67088e-05
0.000210582
2.06699e-05
0.000198299
2.45547e-05
0.000184557
2.74739e-05
0.000169408
3.02853e-05
0.000153174
3.24602e-05
0.000136002
3.43328e-05
0.000118261
3.54649e-05
0.000100164
3.61871e-05
8.18255e-05
3.66659e-05
6.35512e-05
3.65382e-05
4.55201e-05
3.60539e-05
2.78473e-05
3.53377e-05
1.06994e-05
3.42887e-05
-5.80874e-06
3.3016e-05
-2.16269e-05
3.16317e-05
-3.66611e-05
3.00631e-05
-5.08902e-05
2.84549e-05
-6.4239e-05
2.66971e-05
-7.67026e-05
2.49247e-05
-8.82793e-05
2.31506e-05
-9.89736e-05
2.13859e-05
-0.000108783
1.96141e-05
-0.000117758
1.79495e-05
-0.000125883
1.62487e-05
-0.000133228
1.46906e-05
-0.000139766
1.30766e-05
-0.000145565
1.16005e-05
-0.000150615
1.0099e-05
-0.000154918
8.5992e-06
-0.000158503
7.17031e-06
-0.000161395
5.78392e-06
-0.000163566
4.33834e-06
-0.00016504
2.9473e-06
-0.000165808
1.52681e-06
-0.000165828
4.78525e-08
-0.000165092
-1.47438e-06
-0.000163593
-2.99723e-06
-0.000161251
-4.68634e-06
-0.000158151
-6.20169e-06
-0.000154338
-7.62054e-06
-0.000149486
-9.71045e-06
-0.000143956
-1.10676e-05
-0.000137303
-1.3299e-05
-0.000129754
-1.51095e-05
-0.000121385
-1.67278e-05
-0.000112025
-1.87203e-05
-0.000101679
-2.06892e-05
-9.05002e-05
-2.23583e-05
-7.82972e-05
-2.44003e-05
-6.51688e-05
-2.6257e-05
-5.12145e-05
-2.79249e-05
-3.6318e-05
-2.97858e-05
-2.07879e-05
-3.10574e-05
-4.50601e-06
-3.25489e-05
1.22601e-05
-3.35188e-05
2.95184e-05
-3.45083e-05
4.71379e-05
-3.52261e-05
6.49661e-05
-3.56525e-05
8.28006e-05
-3.56656e-05
0.000100625
-3.56367e-05
0.000118065
-3.48664e-05
0.000135128
-3.4111e-05
0.000151472
-3.26869e-05
0.0001669
-3.08433e-05
0.000181376
-2.8929e-05
0.000194508
-2.62589e-05
0.000206148
-2.32543e-05
0.000216125
-1.99505e-05
0.000224261
-1.62587e-05
0.000230553
-1.25707e-05
0.000234682
-8.25383e-06
0.00023659
-3.79511e-06
0.000236196
7.91384e-07
0.000233409
5.57105e-06
0.000228207
1.03992e-05
0.000220727
1.49594e-05
0.000210975
1.94938e-05
0.000199215
2.35101e-05
0.000185623
2.71865e-05
0.000170337
3.05259e-05
0.000153707
3.32339e-05
0.000135964
3.54736e-05
0.000117341
3.72339e-05
9.81276e-05
3.84155e-05
7.85441e-05
3.91518e-05
5.88383e-05
3.9392e-05
3.92703e-05
3.91202e-05
2.00403e-05
3.84507e-05
1.36798e-06
3.73317e-05
-1.65935e-05
3.59112e-05
-3.36835e-05
3.4176e-05
-4.9819e-05
3.22651e-05
-6.49737e-05
3.03245e-05
-7.90916e-05
2.82106e-05
-9.20815e-05
2.59692e-05
-0.000103971
2.37798e-05
-0.000114825
2.17134e-05
-0.000124607
1.95532e-05
-0.000133351
1.74856e-05
-0.000141123
1.55439e-05
-0.000147908
1.35635e-05
-0.000153761
1.16985e-05
-0.00015867
9.81894e-06
-0.000162801
8.26131e-06
-0.000166024
6.4379e-06
-0.000168425
4.80798e-06
-0.000170025
3.19044e-06
-0.000170836
1.61718e-06
-0.000170944
2.14283e-07
-0.000170273
-1.35288e-06
-0.000168839
-2.86381e-06
-0.000166851
-3.98456e-06
-0.000164113
-5.50276e-06
-0.000160749
-6.7128e-06
-0.000156708
-8.08528e-06
-0.000152012
-9.41909e-06
-0.000146663
-1.06801e-05
-0.000140563
-1.22077e-05
-0.00013388
-1.33744e-05
-0.000126375
-1.50078e-05
-0.000118075
-1.66143e-05
-0.000108975
-1.8201e-05
-9.9011e-05
-1.98994e-05
-8.82223e-05
-2.16051e-05
-7.65605e-05
-2.33251e-05
-6.39913e-05
-2.51229e-05
-5.05136e-05
-2.69576e-05
-3.63182e-05
-2.84078e-05
-2.12981e-05
-3.00124e-05
-5.55605e-06
-3.1479e-05
1.08347e-05
-3.27571e-05
2.77192e-05
-3.37662e-05
4.50078e-05
-3.45605e-05
6.25015e-05
-3.49845e-05
8.00276e-05
-3.50331e-05
9.73749e-05
-3.46777e-05
0.00011431
-3.38552e-05
0.000130634
-3.26277e-05
0.000146097
-3.089e-05
0.000160379
-2.85547e-05
0.000173278
-2.57812e-05
0.000184502
-2.24247e-05
0.000193852
-1.86737e-05
0.000201052
-1.44093e-05
0.000206014
-9.91497e-06
0.000208565
-5.09062e-06
0.000208665
-1.84005e-07
0.000206201
4.9115e-06
0.000201212
9.97594e-06
0.000193792
1.48408e-05
0.000184121
1.93349e-05
0.00017234
2.35527e-05
0.000158681
2.73072e-05
0.000143431
3.04886e-05
0.000126841
3.3166e-05
0.000109206
3.52575e-05
9.07364e-05
3.69251e-05
7.1812e-05
3.78355e-05
5.26322e-05
3.83455e-05
3.35007e-05
3.82538e-05
1.46003e-05
3.77965e-05
-3.8673e-06
3.69195e-05
-2.16696e-05
3.55879e-05
-3.86981e-05
3.40445e-05
-5.48117e-05
3.22256e-05
-6.99496e-05
3.02772e-05
-8.40957e-05
2.82879e-05
-9.7259e-05
2.63175e-05
-0.000109429
2.43378e-05
-0.000120593
2.23226e-05
-0.000130743
2.02885e-05
-0.000139845
1.82008e-05
-0.000147966
1.62469e-05
-0.00015511
1.4279e-05
-0.000161351
1.24777e-05
-0.000166773
1.08618e-05
-0.000171496
9.44007e-06
-0.000175536
8.08002e-06
-0.000178996
6.89755e-06
-0.000181802
5.60671e-06
-0.000183948
4.2795e-06
-0.000185373
2.82692e-06
-0.000186138
1.55962e-06
-0.000186239
1.83174e-07
-0.000185595
-1.28364e-06
-0.000184219
-2.76286e-06
-0.00018219
-4.05746e-06
-0.000179433
-5.51756e-06
-0.000176034
-6.79246e-06
-0.000171949
-8.1743e-06
-0.000167141
-9.61422e-06
-0.000161772
-1.07517e-05
-0.00015564
-1.2259e-05
-0.000148781
-1.37257e-05
-0.000141131
-1.52974e-05
-0.000132633
-1.70021e-05
-0.000123397
-1.84708e-05
-0.000113235
-2.03194e-05
-0.000102196
-2.2046e-05
-9.03401e-05
-2.37482e-05
-7.76272e-05
-2.54174e-05
-6.4127e-05
-2.69891e-05
-4.9863e-05
-2.85178e-05
-3.49228e-05
-2.98745e-05
-1.9379e-05
-3.10738e-05
-3.31422e-06
-3.21198e-05
1.31782e-05
-3.29663e-05
2.99545e-05
-3.35366e-05
4.68795e-05
-3.38377e-05
6.37278e-05
-3.36843e-05
8.0364e-05
-3.32554e-05
9.65317e-05
-3.23184e-05
0.000111979
-3.08888e-05
0.000126435
-2.88834e-05
0.000139674
-2.64605e-05
0.000151461
-2.35445e-05
0.000161524
-2.01211e-05
0.000169713
-1.63721e-05
0.000175806
-1.21823e-05
0.000179661
-7.69854e-06
0.000181165
-3.00287e-06
0.00018027
1.79002e-06
0.000176916
6.71118e-06
0.000171161
1.15103e-05
0.000163119
1.60781e-05
0.000152844
2.05333e-05
0.000140609
2.4457e-05
0.000126585
2.80401e-05
0.000111086
3.0977e-05
9.4375e-05
3.34044e-05
7.67627e-05
3.52141e-05
5.85142e-05
3.64805e-05
3.9962e-05
3.7082e-05
2.13327e-05
3.72448e-05
2.84946e-06
3.69512e-05
-1.53149e-05
3.63051e-05
-3.29948e-05
3.53631e-05
-5.00341e-05
3.40881e-05
-6.63412e-05
3.25914e-05
-8.17269e-05
3.07751e-05
-9.61708e-05
2.88918e-05
-0.000109588
2.68149e-05
-0.000121988
2.48242e-05
-0.000133305
2.26445e-05
-0.000143591
2.05751e-05
-0.000152819
1.84557e-05
-0.000161046
1.64608e-05
-0.0001683
1.45195e-05
-0.000174704
1.28169e-05
-0.000180208
1.09988e-05
-0.000184841
9.26806e-06
-0.000188729
7.78286e-06
-0.000191857
6.26431e-06
-0.000194185
4.64759e-06
-0.000195755
3.14396e-06
-0.00019661
1.71781e-06
-0.000196802
3.86966e-07
-0.000196291
-1.02295e-06
-0.000194998
-2.58608e-06
-0.000193028
-3.94273e-06
-0.000190297
-5.46062e-06
-0.000186703
-7.19026e-06
-0.000182342
-8.72005e-06
-0.000177096
-1.04842e-05
-0.000171204
-1.17916e-05
-0.000164564
-1.32751e-05
-0.00015723
-1.46633e-05
-0.000149372
-1.57113e-05
-0.000141042
-1.66605e-05
-0.000132103
-1.78814e-05
-0.000122617
-1.89742e-05
-0.000112476
-2.02818e-05
-0.000101679
-2.15964e-05
-9.03949e-05
-2.25721e-05
-7.82949e-05
-2.42034e-05
-6.53412e-05
-2.59048e-05
-5.17125e-05
-2.72532e-05
-3.71314e-05
-2.91584e-05
-2.16358e-05
-3.09841e-05
-5.45996e-06
-3.2344e-05
1.1558e-05
-3.40326e-05
2.90571e-05
-3.49906e-05
4.70153e-05
-3.59053e-05
6.52713e-05
-3.6498e-05
8.33401e-05
-3.6126e-05
0.000101125
-3.55547e-05
0.000118343
-3.44202e-05
0.000134562
-3.24188e-05
0.000149609
-3.0079e-05
0.000163127
-2.70286e-05
0.000175005
-2.37471e-05
0.00018491
-1.97985e-05
0.000192593
-1.53597e-05
0.000197993
-1.0794e-05
0.000201004
-6.01811e-06
0.000201542
-1.07716e-06
0.000199539
3.9966e-06
0.000195009
9.05582e-06
0.000188282
1.34478e-05
0.000179538
1.74808e-05
0.000168794
2.14773e-05
0.000156566
2.44418e-05
0.000142978
2.71652e-05
0.000128235
2.94717e-05
0.000112784
3.08888e-05
9.66424e-05
3.22765e-05
8.01907e-05
3.28918e-05
6.36256e-05
3.31209e-05
4.70962e-05
3.30503e-05
3.07767e-05
3.26313e-05
1.47595e-05
3.20279e-05
-8.56018e-07
3.12308e-05
-1.59617e-05
3.02084e-05
-3.05449e-05
2.91621e-05
-4.45265e-05
2.79601e-05
-5.78592e-05
2.6663e-05
-7.05482e-05
2.53762e-05
-8.25475e-05
2.39963e-05
-9.38754e-05
2.26518e-05
-0.000104494
2.12353e-05
-0.000114382
1.97759e-05
-0.00012356
1.83527e-05
-0.000131996
1.68723e-05
-0.000139671
1.53488e-05
-0.000146584
1.38237e-05
-0.000152707
1.22479e-05
-0.000158047
1.06761e-05
-0.000162581
9.06861e-06
-0.000166302
7.44374e-06
-0.000169204
5.80509e-06
-0.000171276
4.14544e-06
-0.000172524
2.4954e-06
-0.000172954
8.62934e-07
-0.000172449
-1.00909e-06
-0.000171058
-2.77942e-06
-0.000168804
-4.50866e-06
-0.000165671
-6.26461e-06
-0.000161699
-7.94295e-06
-9.64139e-06
8.54847e-05
-5.50984e-05
0.000104006
-5.55085e-05
0.000122256
-5.46927e-05
0.000139925
-5.29389e-05
0.000156999
-5.11579e-05
0.000173084
-4.81851e-05
0.000188057
-4.48368e-05
0.000201564
-4.04653e-05
0.000213393
-3.54371e-05
0.000223336
-2.97707e-05
0.00023122
-2.35929e-05
0.00023686
-1.6878e-05
0.000240166
-9.92187e-06
0.000241083
-2.80607e-06
0.000239621
4.2595e-06
0.00023575
1.15695e-05
0.000229446
1.89031e-05
0.000221074
2.50806e-05
0.000210724
3.10199e-05
0.000198422
3.68563e-05
0.000184666
4.12295e-05
0.000169496
4.54551e-05
0.000153246
4.871e-05
0.000136063
5.15166e-05
0.000118288
5.32398e-05
0.000100181
5.42939e-05
8.18287e-05
5.50179e-05
6.35364e-05
5.48304e-05
4.54915e-05
5.40989e-05
2.78059e-05
5.30233e-05
1.06464e-05
5.14482e-05
-5.86623e-06
4.95286e-05
-2.16923e-05
4.74578e-05
-3.67316e-05
4.51023e-05
-5.09657e-05
4.2689e-05
-6.43153e-05
4.00467e-05
-7.6781e-05
3.73904e-05
-8.83595e-05
3.47291e-05
-9.90533e-05
3.20798e-05
-0.000108865
2.94258e-05
-0.000117836
2.69204e-05
-0.000125961
2.43732e-05
-0.000133305
2.20349e-05
-0.000139846
1.96183e-05
-0.00014564
1.73936e-05
-0.000150689
1.51485e-05
-0.000154997
1.2907e-05
-0.00015858
1.0754e-05
-0.000161474
8.67766e-06
-0.000163652
6.51654e-06
-0.000165123
4.41803e-06
-0.000165892
2.29558e-06
-0.000165891
4.71682e-08
-0.000165154
-2.21122e-06
-0.000163653
-4.49858e-06
-0.000161315
-7.02487e-06
-0.000158215
-9.30163e-06
-0.000154397
-1.14387e-05
-0.000149552
-1.45552e-05
-0.000144021
-1.6599e-05
-0.000137381
-1.99389e-05
-0.000129839
-2.26514e-05
-0.000121471
-2.50958e-05
-0.000112117
-2.80742e-05
-0.000101758
-3.10481e-05
-9.0578e-05
-3.35388e-05
-7.83661e-05
-3.66122e-05
-6.52374e-05
-3.93858e-05
-5.12994e-05
-4.1863e-05
-3.63965e-05
-4.46887e-05
-2.08621e-05
-4.65919e-05
-4.58487e-06
-4.88262e-05
1.22085e-05
-5.03123e-05
2.94842e-05
-5.17842e-05
4.71113e-05
-5.28534e-05
6.49526e-05
-5.3494e-05
8.27952e-05
-5.35084e-05
0.00010063
-5.34721e-05
0.000118086
-5.23222e-05
0.000135163
-5.1188e-05
0.000151524
-4.90478e-05
0.000166969
-4.6289e-05
0.000181475
-4.34347e-05
0.00019461
-3.93936e-05
0.00020628
-3.49242e-05
0.000216266
-2.99363e-05
0.000224418
-2.44105e-05
0.000230724
-1.88765e-05
0.00023486
-1.23902e-05
0.000236786
-5.72093e-06
0.000236382
1.19585e-06
0.000233569
8.3851e-06
0.00022836
1.5608e-05
0.000220862
2.24585e-05
0.00021109
2.92657e-05
0.000199307
3.52938e-05
0.000185673
4.08203e-05
0.000170364
4.5835e-05
0.00015371
4.9889e-05
0.000135935
5.32487e-05
0.000117272
5.58965e-05
9.80271e-05
5.76606e-05
7.84433e-05
5.87356e-05
5.86965e-05
5.9139e-05
3.9111e-05
5.87057e-05
1.98582e-05
5.77035e-05
1.16508e-06
5.60247e-05
-1.68008e-05
5.38771e-05
-3.3878e-05
5.12532e-05
-5.00851e-05
4.84721e-05
-6.51927e-05
4.54321e-05
-7.93254e-05
4.23433e-05
-9.23206e-05
3.89643e-05
-0.000104215
3.56744e-05
-0.000115038
3.2536e-05
-0.00012486
2.93753e-05
-0.000133583
2.62088e-05
-0.00014134
2.33005e-05
-0.000148155
2.03789e-05
-0.000154016
1.75594e-05
-0.000158951
1.47539e-05
-0.000162986
1.22965e-05
-0.000166241
9.69209e-06
-0.000168646
7.21295e-06
-0.000170249
4.79364e-06
-0.000171068
2.43639e-06
-0.000171161
3.07691e-07
-0.000170498
-2.01617e-06
-0.000169113
-4.24867e-06
-0.000167073
-6.02499e-06
-0.000164351
-8.22445e-06
-0.00016097
-1.0094e-05
-0.000156936
-1.2119e-05
-0.000152249
-1.41068e-05
-0.000146899
-1.60296e-05
-0.000140852
-1.82552e-05
-0.000134123
-2.01032e-05
-0.000126616
-2.2515e-05
-0.00011832
-2.49104e-05
-0.000109225
-2.7296e-05
-9.92126e-05
-2.99121e-05
-8.84856e-05
-3.23323e-05
-7.6818e-05
-3.49927e-05
-6.4229e-05
-3.7712e-05
-5.08066e-05
-4.03802e-05
-3.65611e-05
-4.26535e-05
-2.1516e-05
-4.50576e-05
-5.77254e-06
-4.72226e-05
1.06424e-05
-4.91723e-05
2.7537e-05
-5.0661e-05
4.48375e-05
-5.18612e-05
6.23335e-05
-5.24807e-05
7.98866e-05
-5.25864e-05
9.72518e-05
-5.2043e-05
0.000114221
-5.08244e-05
0.000130564
-4.89707e-05
0.000146048
-4.63742e-05
0.000160355
-4.28621e-05
0.000173275
-3.87015e-05
0.000184522
-3.36721e-05
0.000193889
-2.80411e-05
0.000201099
-2.1619e-05
0.000206073
-1.48892e-05
0.000208631
-7.64859e-06
0.000208729
-2.82363e-07
0.000206244
7.39633e-06
0.00020125
1.49696e-05
0.000193831
2.22599e-05
0.000184134
2.90315e-05
0.000172335
3.53518e-05
0.000158664
4.09779e-05
0.00014339
4.57623e-05
0.000126767
4.97887e-05
0.000109094
5.29307e-05
9.06213e-05
5.53976e-05
7.1674e-05
5.67827e-05
5.24726e-05
5.75469e-05
3.33407e-05
5.73856e-05
1.44437e-05
5.66935e-05
-4.07449e-06
5.54376e-05
-2.19047e-05
5.34181e-05
-3.89355e-05
5.10753e-05
-5.5053e-05
4.8343e-05
-7.01935e-05
4.54177e-05
-8.43331e-05
4.24275e-05
-9.74932e-05
3.94776e-05
-0.000109665
3.65098e-05
-0.000120838
3.34953e-05
-0.000130981
3.0432e-05
-0.000140085
2.73039e-05
-0.000148195
2.43572e-05
-0.000155355
2.14387e-05
-0.000161587
1.87102e-05
-0.000166976
1.62509e-05
-0.000171726
1.419e-05
-0.000175763
1.21168e-05
-0.000179218
1.03525e-05
-0.000182027
8.41535e-06
-0.000184183
6.43568e-06
-0.000185637
4.28121e-06
-0.000186368
2.29099e-06
-0.000186478
2.92682e-07
-0.000185831
-1.93014e-06
-0.000184457
-4.13718e-06
-0.000182423
-6.09157e-06
-0.000179675
-8.26551e-06
-0.000176265
-1.02024e-05
-0.000172174
-1.22654e-05
-0.000167417
-1.43719e-05
-0.000162
-1.61685e-05
-0.000155866
-1.83932e-05
-0.00014902
-2.05714e-05
-0.000141384
-2.29336e-05
-0.000132927
-2.54587e-05
-0.000123644
-2.77545e-05
-0.00011349
-3.0473e-05
-0.000102405
-3.31311e-05
-9.05872e-05
-3.5566e-05
-7.78701e-05
-3.81346e-05
-6.43552e-05
-4.0504e-05
-5.00847e-05
-4.27884e-05
-3.51351e-05
-4.48241e-05
-1.95685e-05
-4.66406e-05
-3.50205e-06
-4.81863e-05
1.30046e-05
-4.9473e-05
2.98016e-05
-5.03338e-05
4.67462e-05
-5.07824e-05
6.36116e-05
-5.05497e-05
8.0262e-05
-4.99059e-05
9.64469e-05
-4.85034e-05
0.000111909
-4.63507e-05
0.000126389
-4.33638e-05
0.000139647
-3.97186e-05
0.000151462
-3.53597e-05
0.000161537
-3.01965e-05
0.000169739
-2.45743e-05
0.000175847
-1.82898e-05
0.000179715
-1.15665e-05
0.000181229
-4.51712e-06
0.000180314
2.70475e-06
0.000176957
1.00677e-05
0.000171194
1.72737e-05
0.000163127
2.4145e-05
0.000152845
3.08145e-05
0.000140587
3.67154e-05
0.000126562
4.20651e-05
0.000111017
4.65213e-05
9.42809e-05
5.01406e-05
7.6626e-05
5.28688e-05
5.838e-05
5.47264e-05
3.98017e-05
5.56601e-05
2.11464e-05
5.59001e-05
2.64562e-06
5.54519e-05
-1.55376e-05
5.44883e-05
-3.32109e-05
5.30365e-05
-5.02308e-05
5.11081e-05
-6.65464e-05
4.89071e-05
-8.19274e-05
4.61562e-05
-9.63703e-05
4.33349e-05
-0.000109794
4.02384e-05
-0.000122167
3.71979e-05
-0.000133472
3.39494e-05
-0.000143749
3.08521e-05
-0.00015297
2.76766e-05
-0.000161187
2.4678e-05
-0.000168424
2.17574e-05
-0.000174804
1.91966e-05
-0.000180324
1.65192e-05
-0.000184946
1.38899e-05
-0.000188821
1.16586e-05
-0.000191931
9.37426e-06
-0.000194275
6.99113e-06
-0.000195844
4.71295e-06
-0.000196692
2.56628e-06
-0.000196864
5.58945e-07
-0.000196352
-1.53521e-06
-0.000195068
-3.86984e-06
-0.000193095
-5.91613e-06
-0.000190367
-8.18844e-06
-0.000186774
-1.07825e-05
-0.000182403
-1.30913e-05
-0.000177157
-1.57302e-05
-0.00017127
-1.76787e-05
-0.000164625
-1.99199e-05
-0.000157283
-2.20058e-05
-0.000149417
-2.35768e-05
-0.000141085
-2.4993e-05
-0.000132136
-2.68307e-05
-0.000122667
-2.84428e-05
-0.000112529
-3.04202e-05
-0.000101741
-3.23838e-05
-9.04626e-05
-3.38508e-05
-7.83689e-05
-3.62972e-05
-6.54146e-05
-3.88592e-05
-5.17818e-05
-4.08861e-05
-3.71971e-05
-4.37432e-05
-2.16936e-05
-4.64877e-05
-5.50957e-06
-4.85281e-05
1.15177e-05
-5.106e-05
2.90244e-05
-5.24973e-05
4.70004e-05
-5.38814e-05
6.52799e-05
-5.47776e-05
8.33676e-05
-5.42138e-05
0.000101176
-5.33634e-05
0.000118425
-5.16688e-05
0.000134667
-4.86607e-05
0.000149738
-4.51501e-05
0.000163276
-4.05674e-05
0.000175178
-3.56485e-05
0.000185106
-2.97274e-05
0.000192803
-2.3056e-05
0.000198215
-1.62063e-05
0.000201228
-9.03097e-06
0.000201748
-1.59792e-06
0.000199714
6.03032e-06
0.000195181
1.35891e-05
0.000188441
2.01878e-05
0.000179686
2.62362e-05
0.000168923
3.22395e-05
0.000156668
3.66969e-05
0.000143065
4.0768e-05
0.000128299
4.42382e-05
0.000112819
4.63686e-05
9.6672e-05
4.84233e-05
8.02019e-05
4.93619e-05
6.36218e-05
4.9701e-05
4.70788e-05
4.95932e-05
3.07475e-05
4.89626e-05
1.47204e-05
4.80551e-05
-8.98043e-07
4.68492e-05
-1.60093e-05
4.53196e-05
-3.05965e-05
4.37493e-05
-4.45827e-05
4.19462e-05
-5.79181e-05
3.99984e-05
-7.06083e-05
3.80664e-05
-8.26091e-05
3.59971e-05
-9.39388e-05
3.39815e-05
-0.00010456
3.1856e-05
-0.000114449
2.96649e-05
-0.000123627
2.75307e-05
-0.000132063
2.53087e-05
-0.000139736
2.30221e-05
-0.00014665
2.07375e-05
-0.000152774
1.8372e-05
-0.000158113
1.60144e-05
-0.000162645
1.36014e-05
-0.000166365
1.11629e-05
-0.000169266
8.70665e-06
-0.000171344
6.22338e-06
-0.000172594
3.74566e-06
-0.00017302
1.28877e-06
-0.000172515
-1.51388e-06
-0.000171124
-4.1705e-06
-0.000168869
-6.76406e-06
-0.000165736
-9.39781e-06
-0.000161763
-1.19152e-05
-1.4463e-05
8.54923e-05
-7.35026e-05
0.000104047
-7.40631e-05
0.000122334
-7.29806e-05
0.000140043
-7.06482e-05
0.00015716
-6.82746e-05
0.000173289
-6.43144e-05
0.000188307
-5.98547e-05
0.000201855
-5.40135e-05
0.00021372
-4.73029e-05
0.000223693
-3.9744e-05
0.000231598
-3.14972e-05
0.000237252
-2.25331e-05
0.000240565
-1.32341e-05
0.000241461
-3.70306e-06
0.00023992
5.80066e-06
0.000236011
1.54781e-05
0.000229698
2.52168e-05
0.000221305
3.34733e-05
0.000210937
4.13876e-05
0.000198607
4.9186e-05
0.000184829
5.5007e-05
0.000169629
6.06557e-05
0.000153344
6.49942e-05
0.00013616
6.87013e-05
0.000118329
7.10705e-05
0.000100207
7.24162e-05
8.18349e-05
7.33895e-05
6.35149e-05
7.31504e-05
4.54491e-05
7.21647e-05
2.77445e-05
7.07278e-05
1.05676e-05
6.8625e-05
-5.95278e-06
6.6049e-05
-2.17904e-05
6.32954e-05
-3.68392e-05
6.01511e-05
-5.108e-05
5.69298e-05
-6.44311e-05
5.33977e-05
-7.68992e-05
4.98585e-05
-8.84808e-05
4.63107e-05
-9.91736e-05
4.27726e-05
-0.000108991
3.92431e-05
-0.000117957
3.58868e-05
-0.00012609
3.25055e-05
-0.000133425
2.93698e-05
-0.000139974
2.61681e-05
-0.000145754
2.31732e-05
-0.000150803
2.01971e-05
-0.000155119
1.72236e-05
-0.000158706
1.43408e-05
-0.000161598
1.15691e-05
-0.000163792
8.71123e-06
-0.000165251
5.87632e-06
-0.000166005
3.04984e-06
-0.000165988
3.00527e-08
-0.000165248
-2.95061e-06
-0.000163744
-6.00255e-06
-0.000161412
-9.35767e-06
-0.000158313
-1.24008e-05
-0.000154489
-1.52619e-05
-0.000149654
-1.93903e-05
-0.000144087
-2.21667e-05
-0.0001375
-2.6526e-05
-0.00012998
-3.01714e-05
-0.000121604
-3.34721e-05
-0.000112253
-3.7425e-05
-0.000101883
-4.14183e-05
-9.06993e-05
-4.47223e-05
-7.84672e-05
-4.88443e-05
-6.53387e-05
-5.25145e-05
-5.142e-05
-5.57819e-05
-3.65123e-05
-5.95965e-05
-2.09718e-05
-6.21325e-05
-4.69496e-06
-6.51032e-05
1.21347e-05
-6.71421e-05
2.94259e-05
-6.90755e-05
4.70655e-05
-7.04931e-05
6.4926e-05
-7.13547e-05
8.27785e-05
-7.1361e-05
0.000100637
-7.13302e-05
0.000118116
-6.98016e-05
0.000135218
-6.82904e-05
0.000151599
-6.5429e-05
0.000167076
-6.17655e-05
0.000181616
-5.79745e-05
0.000194756
-5.25345e-05
0.000206474
-4.66414e-05
0.000216466
-3.99282e-05
0.000224655
-3.25994e-05
0.00023096
-2.51818e-05
0.000235097
-1.65267e-05
0.000237033
-7.65636e-06
0.000236653
1.57628e-06
0.000233762
1.12771e-05
0.000228544
2.08259e-05
0.000220977
3.00256e-05
0.000211204
3.90393e-05
0.000199386
4.71123e-05
0.000185682
5.45251e-05
0.000170358
6.11585e-05
0.000153663
6.65841e-05
0.00013584
7.10722e-05
0.000117177
7.45597e-05
9.78598e-05
7.69777e-05
7.82313e-05
7.83642e-05
5.845e-05
7.89203e-05
3.88359e-05
7.83198e-05
1.9566e-05