/*--------------------------------*- C++ -*----------------------------------*\
| =========                 |                                                 |
| \\      /  F ield         | OpenFOAM: The Open Source CFD Toolbox           |
|  \\    /   O peration     | Version:  3.0.1                                 |
|   \\  /    A nd           | Web:      www.OpenFOAM.org                      |
|    \\/     M anipulation  |                                                 |
\*---------------------------------------------------------------------------*/
FoamFile
{
    version     2.0;
    format      ascii;
    class       surfaceScalarField;
    location    "17.2";
    object      phi;
}
// * * * * * * * * * * * * * * * * * * * * * * * * * * * * * * * * * * * * * //

dimensions      [0 3 -1 0 0 0 0];

internalField   nonuniform List<scalar> 
44922
(
-5.35688e-05
-1.20915e-05
-4.06681e-05
-1.29008e-05
-2.72323e-05
-1.34358e-05
-1.3098e-05
-1.41343e-05
1.39352e-06
-1.44916e-05
1.6443e-05
-1.50496e-05
3.16797e-05
-1.52367e-05
4.73005e-05
-1.56208e-05
6.29227e-05
-1.56223e-05
7.8693e-05
-1.57703e-05
9.42522e-05
-1.55592e-05
0.000109673
-1.54212e-05
0.00012465
-1.4977e-05
0.000139159
-1.45083e-05
0.00015299
-1.38316e-05
0.000165929
-1.29388e-05
0.000177888
-1.19587e-05
0.000188664
-1.07766e-05
0.000198141
-9.47644e-06
0.000206194
-8.05344e-06
0.00021271
-6.51557e-06
0.000217587
-4.87756e-06
0.000220756
-3.16891e-06
0.000222161
-1.4053e-06
0.000221892
2.68843e-07
0.00021986
2.03285e-06
0.000216168
3.69182e-06
0.000210758
5.40958e-06
0.000203856
6.90249e-06
0.000195382
8.47318e-06
0.000185612
9.77045e-06
0.000174524
1.10878e-05
0.000162401
1.21229e-05
0.000149287
1.31141e-05
0.000135294
1.39928e-05
0.000120629
1.4665e-05
0.000105469
1.51609e-05
8.9926e-05
1.55425e-05
7.41634e-05
1.57626e-05
5.83154e-05
1.5848e-05
4.24906e-05
1.58248e-05
2.67677e-05
1.57229e-05
1.13728e-05
1.53949e-05
-3.70772e-06
1.50805e-05
-1.83645e-05
1.46567e-05
-3.25035e-05
1.4139e-05
-4.60949e-05
1.35914e-05
-5.90669e-05
1.2972e-05
-7.14128e-05
1.2346e-05
-8.3088e-05
1.16752e-05
-9.40994e-05
1.10114e-05
-0.000104425
1.03254e-05
-0.00011406
9.63542e-06
-0.000123024
8.96411e-06
-0.000131301
8.27652e-06
-0.000138913
7.61197e-06
-0.000145859
6.94615e-06
-0.000152172
6.31313e-06
-0.000157843
5.67125e-06
-0.000162908
5.06422e-06
-0.000167356
4.44894e-06
-0.000171221
3.86404e-06
-0.000174516
3.29579e-06
-0.000177255
2.73888e-06
-0.000179423
2.16824e-06
-0.000181047
1.62346e-06
-0.000182121
1.07423e-06
-0.000182672
5.51181e-07
-0.000182695
2.26631e-08
-0.000182202
-4.92817e-07
-0.00018119
-1.01179e-06
-0.000179621
-1.56888e-06
-0.000177591
-2.03037e-06
-0.000174993
-2.59837e-06
-0.000171881
-3.11164e-06
-0.000168173
-3.70817e-06
-0.000164002
-4.1708e-06
-0.000159166
-4.83661e-06
-0.000153851
-5.31489e-06
-0.000147824
-6.02687e-06
-0.000141253
-6.5708e-06
-0.000133968
-7.28523e-06
-0.000126109
-7.85915e-06
-0.000117486
-8.62289e-06
-0.000108285
-9.20044e-06
-9.83291e-05
-9.95619e-06
-8.78155e-05
-1.05136e-05
-7.66277e-05
-1.11878e-05
-6.4715e-05
-1.19127e-05
-5.22994e-05
-1.24156e-05
-3.9271e-05
-1.30284e-05
-2.5806e-05
-1.34651e-05
-1.17793e-05
-1.40268e-05
2.6184e-06
-1.43977e-05
1.74422e-05
-1.48238e-05
3.25165e-05
-1.50743e-05
4.78471e-05
-1.53306e-05
6.31991e-05
-1.53521e-05
7.86022e-05
-1.54031e-05
9.37865e-05
-1.51844e-05
0.00010877
-1.49833e-05
0.000123305
-1.45353e-05
0.000137314
-1.40085e-05
0.000150623
-1.33096e-05
0.000163111
-1.24875e-05
0.00017463
-1.15191e-05
0.000185069
-1.04395e-05
0.000194273
-9.20391e-06
0.000202126
-7.85264e-06
0.000208575
-6.44951e-06
0.00021344
-4.865e-06
0.000216782
-3.34185e-06
0.000218417
-1.63495e-06
0.000218486
-6.96369e-08
0.000216788
1.69823e-06
0.000213486
3.3018e-06
0.000208468
5.01836e-06
0.000201987
6.48106e-06
0.000193913
8.07431e-06
0.000184559
9.35377e-06
0.000173826
1.07329e-05
0.000162091
1.17344e-05
0.000149222
1.28693e-05
0.000135492
1.37301e-05
0.000121091
1.44009e-05
0.000106147
1.49438e-05
9.06319e-05
1.55152e-05
7.48421e-05
1.57899e-05
5.88986e-05
1.59435e-05
4.29156e-05
1.5983e-05
2.70635e-05
1.58521e-05
1.13971e-05
1.56664e-05
-3.94241e-06
1.53395e-05
-1.88948e-05
1.49524e-05
-3.33847e-05
1.44899e-05
-4.73312e-05
1.39464e-05
-6.06981e-05
1.33669e-05
-7.34581e-05
1.276e-05
-8.55528e-05
1.20947e-05
-9.69944e-05
1.14415e-05
-0.000107756
1.07614e-05
-0.000117839
1.00837e-05
-0.000127283
9.44356e-06
-0.000136024
8.74115e-06
-0.000144128
8.1038e-06
-0.000151561
7.43312e-06
-0.000158369
6.80768e-06
-0.000164582
6.21299e-06
-0.000170166
5.58421e-06
-0.00017517
5.00372e-06
-0.000179601
4.43178e-06
-0.000183447
3.8459e-06
-0.000186738
3.29082e-06
-0.000189462
2.72359e-06
-0.000191618
2.1566e-06
-0.000193207
1.58831e-06
-0.00019425
1.04308e-06
-0.000194706
4.56145e-07
-0.000194586
-1.19489e-07
-0.000193876
-7.10709e-07
-0.000192557
-1.31898e-06
-0.000190635
-1.92222e-06
-0.000188104
-2.53061e-06
-0.000184938
-3.16626e-06
-0.000181197
-3.74094e-06
-0.000176766
-4.43119e-06
-0.000171649
-5.1166e-06
-0.000165901
-5.74815e-06
-0.000159407
-6.49335e-06
-0.00015226
-7.14726e-06
-0.000144298
-7.96191e-06
-0.000135604
-8.69422e-06
-0.000126137
-9.46713e-06
-0.00011591
-1.02265e-05
-0.000104782
-1.11287e-05
-9.30011e-05
-1.17807e-05
-8.02462e-05
-1.27549e-05
-6.68425e-05
-1.34038e-05
-5.25328e-05
-1.43097e-05
-3.75481e-05
-1.49847e-05
-2.18191e-05
-1.5729e-05
-5.66624e-06
-1.61529e-05
1.09199e-05
-1.65862e-05
2.80416e-05
-1.71217e-05
4.54065e-05
-1.73649e-05
6.30588e-05
-1.76523e-05
8.06766e-05
-1.76179e-05
9.82678e-05
-1.75913e-05
0.000115528
-1.726e-05
0.000132362
-1.68343e-05
0.000148562
-1.62004e-05
0.000163957
-1.5395e-05
0.000178362
-1.44047e-05
0.000191618
-1.32556e-05
0.000203573
-1.19553e-05
0.000214095
-1.05217e-05
0.000223056
-8.9617e-06
0.000230377
-7.321e-06
0.000235951
-5.57394e-06
0.000239767
-3.81543e-06
0.000241744
-1.97748e-06
0.000241855
-1.11443e-07
0.000240211
1.64412e-06
0.000236645
3.56584e-06
0.000231477
5.16807e-06
0.000224618
6.85879e-06
0.000216284
8.3346e-06
0.000206472
9.81233e-06
0.000195422
1.10496e-05
0.000183176
1.22458e-05
0.000170111
1.30653e-05
0.000156021
1.40898e-05
0.000141301
1.47197e-05
0.000126075
1.52257e-05
0.000110585
1.54901e-05
9.47871e-05
1.57981e-05
7.90011e-05
1.5786e-05
6.33178e-05
1.56833e-05
4.79781e-05
1.53397e-05
3.27219e-05
1.52562e-05
1.72782e-05
1.54437e-05
2.82547e-07
1.69956e-05
-1.6215e-05
1.64975e-05
-2.85273e-05
1.23123e-05
8.5112e-06
-3.70385e-05
-5.36048e-05
-2.41844e-05
-4.07021e-05
-2.58035e-05
-2.72632e-05
-2.68748e-05
-1.31262e-05
-2.82713e-05
1.36849e-06
-2.89863e-05
1.64242e-05
-3.01053e-05
3.16675e-05
-3.04801e-05
4.7296e-05
-3.12493e-05
6.29262e-05
-3.12525e-05
7.8707e-05
-3.15512e-05
9.42719e-05
-3.11241e-05
0.000109704
-3.08535e-05
0.00012469
-2.99626e-05
0.000139209
-2.90272e-05
0.00015305
-2.7673e-05
0.000165994
-2.58824e-05
0.000177962
-2.39271e-05
0.000188746
-2.15603e-05
0.000198228
-1.89593e-05
0.000206287
-1.61123e-05
0.000212809
-1.30368e-05
0.000217688
-9.75712e-06
0.000220858
-6.33925e-06
0.000222274
-2.82116e-06
0.000222001
5.42106e-07
0.000219964
4.06947e-06
0.000216276
7.37985e-06
0.000210862
1.08233e-05
0.000203957
1.38083e-05
0.000195475
1.69551e-05
0.000185702
1.95429e-05
0.000174604
2.21858e-05
0.00016247
2.42573e-05
0.000149343
2.62405e-05
0.000135338
2.79978e-05
0.000120666
2.93372e-05
0.000105497
3.03301e-05
8.99447e-05
3.10948e-05
7.41808e-05
3.15264e-05
5.8318e-05
3.17109e-05
4.24882e-05
3.16546e-05
2.67556e-05
3.14555e-05
1.13559e-05
3.07945e-05
-3.72974e-06
3.01662e-05
-1.83917e-05
2.93187e-05
-3.25345e-05
2.82818e-05
-4.61279e-05
2.71848e-05
-5.91029e-05
2.59471e-05
-7.14509e-05
2.46939e-05
-8.31285e-05
2.33528e-05
-9.41415e-05
2.20243e-05
-0.000104467
2.06513e-05
-0.000114104
1.92725e-05
-0.000123068
1.79276e-05
-0.000131344
1.65527e-05
-0.000138958
1.52256e-05
-0.000145905
1.38936e-05
-0.000152217
1.26246e-05
-0.00015789
1.13446e-05
-0.000162954
1.01286e-05
-0.000167405
8.89927e-06
-0.000171271
7.73084e-06
-0.000174567
6.59097e-06
-0.000177301
5.47344e-06
-0.000179472
4.33871e-06
-0.000181094
3.24577e-06
-0.000182171
2.1509e-06
-0.000182724
1.10447e-06
-0.000182745
4.36196e-08
-0.00018225
-9.87875e-07
-0.00018124
-2.02184e-06
-0.00017967
-3.13888e-06
-0.00017764
-4.06012e-06
-0.000175026
-5.21281e-06
-0.000171934
-6.20346e-06
-0.000168224
-7.41823e-06
-0.000164058
-8.33694e-06
-0.00015922
-9.67384e-06
-0.000153904
-1.06313e-05
-0.000147875
-1.20556e-05
-0.000141308
-1.31378e-05
-0.000134016
-1.45772e-05
-0.000126163
-1.57123e-05
-0.000117539
-1.72467e-05
-0.000108339
-1.84008e-05
-9.83799e-05
-1.99155e-05
-8.78659e-05
-2.10277e-05
-7.66757e-05
-2.23781e-05
-6.47598e-05
-2.38287e-05
-5.23438e-05
-2.48316e-05
-3.93099e-05
-2.60624e-05
-2.58414e-05
-2.69335e-05
-1.18075e-05
-2.80607e-05
2.59754e-06
-2.88028e-05
1.74286e-05
-2.96549e-05
3.25102e-05
-3.01559e-05
4.78491e-05
-3.06696e-05
6.3208e-05
-3.0711e-05
7.86207e-05
-3.08158e-05
9.38128e-05
-3.03765e-05
0.000108808
-2.99783e-05
0.00012335
-2.90775e-05
0.000137368
-2.80272e-05
0.000150685
-2.66266e-05
0.000163185
-2.4987e-05
0.000174716
-2.30505e-05
0.000185164
-2.0887e-05
0.000194374
-1.84143e-05
0.000202231
-1.57099e-05
0.000208687
-1.29055e-05
0.000213553
-9.73092e-06
0.000216903
-6.6916e-06
0.00021854
-3.2726e-06
0.000218607
-1.36543e-07
0.000216898
3.40778e-06
0.000213597
6.602e-06
0.000208574
1.00417e-05
0.000202092
1.29626e-05
0.000194009
1.61575e-05
0.000184651
1.87122e-05
0.000173908
2.14754e-05
0.000162162
2.34806e-05
0.000149292
2.57391e-05
0.000135547
2.74756e-05
0.000121134
2.88136e-05
0.000106186
2.98919e-05
9.06556e-05
3.10454e-05
7.48554e-05
3.159e-05
5.89048e-05
3.18941e-05
4.29137e-05
3.19741e-05
2.70541e-05
3.17117e-05
1.13797e-05
3.13408e-05
-3.96505e-06
3.06843e-05
-1.89273e-05
2.99146e-05
-3.34183e-05
2.89809e-05
-4.73711e-05
2.78993e-05
-6.07381e-05
2.67338e-05
-7.35012e-05
2.55231e-05
-8.55992e-05
2.41928e-05
-9.70412e-05
2.28835e-05
-0.000107805
2.15251e-05
-0.000117887
2.01654e-05
-0.000127332
1.88888e-05
-0.000136075
1.74842e-05
-0.000144176
1.62045e-05
-0.000151611
1.48684e-05
-0.000158416
1.36128e-05
-0.000164631
1.24279e-05
-0.000170215
1.11684e-05
-0.000175218
1.00065e-05
-0.000179649
8.86244e-06
-0.000183494
7.69184e-06
-0.000186786
6.58197e-06
-0.000189509
5.44731e-06
-0.000191667
4.31392e-06
-0.000193255
3.17626e-06
-0.000194301
2.08905e-06
-0.000194753
9.08677e-07
-0.000194635
-2.3785e-07
-0.000193922
-1.42357e-06
-0.000192604
-2.63694e-06
-0.000190684
-3.84229e-06
-0.000188151
-5.06311e-06
-0.000184986
-6.33187e-06
-0.000181247
-7.47937e-06
-0.000176817
-8.86127e-06
-0.000171701
-1.02324e-05
-0.000165952
-1.14973e-05
-0.000159454
-1.29918e-05
-0.000152314
-1.42874e-05
-0.000144353
-1.59225e-05
-0.00013566
-1.73877e-05
-0.000126194
-1.89325e-05
-0.000115966
-2.0455e-05
-0.000104834
-2.22608e-05
-9.30576e-05
-2.35571e-05
-8.0299e-05
-2.55135e-05
-6.68968e-05
-2.6806e-05
-5.25827e-05
-2.86238e-05
-3.75931e-05
-2.99744e-05
-2.1862e-05
-3.14602e-05
-5.70098e-06
-3.2314e-05
1.08911e-05
-3.31784e-05
2.80259e-05
-3.42565e-05
4.53967e-05
-3.47358e-05
6.3062e-05
-3.53177e-05
8.06865e-05
-3.52425e-05
9.82906e-05
-3.51954e-05
0.000115561
-3.45308e-05
0.000132411
-3.36842e-05
0.000148623
-3.24128e-05
0.000164029
-3.08004e-05
0.000178443
-2.88191e-05
0.000191715
-2.65271e-05
0.000203687
-2.39272e-05
0.000214218
-2.10531e-05
0.000223186
-1.79296e-05
0.000230511
-1.46468e-05
0.000236085
-1.11479e-05
0.000239901
-7.63139e-06
0.000241882
-3.95857e-06
0.000241983
-2.12286e-07
0.000240323
3.30438e-06
0.000236757
7.13123e-06
0.00023159
1.03349e-05
0.000224723
1.37267e-05
0.000216385
1.66722e-05
0.000206563
1.9634e-05
0.000195506
2.21071e-05
0.000183253
2.44989e-05
0.00017018
2.61379e-05
0.000156075
2.81948e-05
0.000141346
2.94485e-05
0.000126116
3.04552e-05
0.000110617
3.09895e-05
9.48059e-05
3.16091e-05
7.90147e-05
3.15772e-05
6.33153e-05
3.13826e-05
4.80706e-05
3.05843e-05
3.34045e-05
2.99222e-05
1.97523e-05
2.9096e-05
8.2495e-06
2.84983e-05
-2.20032e-06
2.69473e-05
-1.40563e-05
2.41683e-05
1.9141e-05
-2.46861e-05
-5.36755e-05
-3.62811e-05
-4.07686e-05
-3.87104e-05
-2.73234e-05
-4.03202e-05
-1.31814e-05
-4.24134e-05
1.32921e-06
-4.3497e-05
1.64006e-05
-4.51767e-05
3.1661e-05
-4.57406e-05
4.73081e-05
-4.68964e-05
6.29515e-05
-4.6896e-05
7.87522e-05
-4.73519e-05
9.43297e-05
-4.67016e-05
0.000109779
-4.63029e-05
0.000124773
-4.49563e-05
0.00013931
-4.35649e-05
0.000153171
-4.15337e-05
0.000166126
-3.8837e-05
0.000178108
-3.59097e-05
0.000188902
-3.23539e-05
0.000198396
-2.8454e-05
0.000206459
-2.41756e-05
0.000212985
-1.95628e-05
0.000217867
-1.46388e-05
0.000221042
-9.51384e-06
0.000222465
-4.24481e-06
0.000222184
8.2353e-07
0.000220145
6.10864e-06
0.000216462
1.10628e-05
0.00021104
1.62451e-05
0.000204127
2.07215e-05
0.00019563
2.54518e-05
0.000185849
2.9324e-05
0.000174735
3.32991e-05
0.000162582
3.64107e-05
0.000149435
3.93871e-05
0.00013541
4.20235e-05
0.000120724
4.40225e-05
0.00010554
4.55143e-05
8.99692e-05
4.66656e-05
7.41918e-05
4.73038e-05
5.83137e-05
4.7589e-05
4.24759e-05
4.74924e-05
2.67266e-05
4.72048e-05
1.13185e-05
4.62026e-05
-3.77949e-06
4.52642e-05
-1.84502e-05
4.39894e-05
-3.25992e-05
4.24307e-05
-4.61958e-05
4.07815e-05
-5.91776e-05
3.89289e-05
-7.1528e-05
3.70443e-05
-8.32077e-05
3.50325e-05
-9.42229e-05
3.30396e-05
-0.00010455
3.09786e-05
-0.000114188
2.89104e-05
-0.000123151
2.68904e-05
-0.000131426
2.48277e-05
-0.00013904
2.28398e-05
-0.000145988
2.08414e-05
-0.0001523
1.89367e-05
-0.000157974
1.70184e-05
-0.000163039
1.51935e-05
-0.000167491
1.33514e-05
-0.000171358
1.15981e-05
-0.000174649
9.8815e-06
-0.000177377
8.20186e-06
-0.000179556
6.51714e-06
-0.000181173
4.86333e-06
-0.000182243
3.2208e-06
-0.0001828
1.66177e-06
-0.000182813
5.57783e-08
-0.000182312
-1.48819e-06
-0.000181303
-3.03104e-06
-0.000179731
-4.71055e-06
-0.000177701
-6.09017e-06
-0.000175075
-7.83864e-06
-0.000172001
-9.2782e-06
-0.00016829
-1.11294e-05
-0.000164129
-1.2497e-05
-0.000159295
-1.45086e-05
-0.000153974
-1.59519e-05
-0.000147937
-1.80923e-05
-0.000141381
-1.96942e-05
-0.000134072
-2.18858e-05
-0.000126236
-2.35488e-05
-0.000117614
-2.58686e-05
-0.000108416
-2.75986e-05
-9.84492e-05
-2.98823e-05
-8.79389e-05
-3.15381e-05
-7.67446e-05
-3.35723e-05
-6.48275e-05
-3.57459e-05
-5.24091e-05
-3.725e-05
-3.93669e-05
-3.91046e-05
-2.58961e-05
-4.04044e-05
-1.18525e-05
-4.21043e-05
2.5603e-06
-4.32157e-05
1.74134e-05
-4.45081e-05
3.24968e-05
-4.52394e-05
4.78521e-05
-4.6025e-05
6.32228e-05
-4.60817e-05
7.86468e-05
-4.62399e-05
9.38552e-05
-4.5585e-05
0.000108871
-4.49939e-05
0.000123423
-4.36301e-05
0.000137461
-4.20644e-05
0.000150791
-3.9957e-05
0.000163317
-3.7513e-05
0.000174867
-3.46009e-05
0.00018533
-3.13503e-05
0.00019455
-2.76334e-05
0.00020241
-2.35702e-05
0.000208878
-1.93737e-05
0.000213749
-1.46022e-05
0.000217111
-1.00532e-05
0.000218745
-4.90708e-06
0.000218804
-1.95492e-07
0.000217077
5.13482e-06
0.000213778
9.90132e-06
0.000208744
1.50754e-05
0.000202262
1.94446e-05
0.000194163
2.4256e-05
0.000184791
2.80844e-05
0.000174029
3.22376e-05
0.000162263
3.52466e-05
0.000149387
3.8615e-05
0.000135646
4.12165e-05
0.000121209
4.32509e-05
0.000106236
4.48647e-05
9.06834e-05
4.6598e-05
7.48636e-05
4.74097e-05
5.89019e-05
4.78558e-05
4.28966e-05
4.79794e-05
2.70249e-05
4.75833e-05
1.13376e-05
4.7028e-05
-4.01442e-06
4.60363e-05
-1.89932e-05
4.48933e-05
-3.34829e-05
4.34706e-05
-4.74456e-05
4.1862e-05
-6.08113e-05
4.00994e-05
-7.35768e-05
3.82887e-05
-8.56808e-05
3.62967e-05
-9.71217e-05
3.43245e-05
-0.000107889
3.22919e-05
-0.000117978
3.02552e-05
-0.000127412
2.83219e-05
-0.000136156
2.62287e-05
-0.000144251
2.42994e-05
-0.000151687
2.23046e-05
-0.000158502
2.04272e-05
-0.000164705
1.86309e-05
-0.000170288
1.67522e-05
-0.000175289
1.5007e-05
-0.000179718
1.3292e-05
-0.000183562
1.15351e-05
-0.000186855
9.87497e-06
-0.000189579
8.17143e-06
-0.000191736
6.47088e-06
-0.000193325
4.76508e-06
-0.000194377
3.14156e-06
-0.000194824
1.35529e-06
-0.000194703
-3.5883e-07
-0.000193984
-2.14229e-06
-0.000192669
-3.95175e-06
-0.000190751
-5.76067e-06
-0.00018822
-7.59421e-06
-0.000185051
-9.50049e-06
-0.000181318
-1.12122e-05
-0.00017689
-1.32895e-05
-0.00017178
-1.53425e-05
-0.000166031
-1.72462e-05
-0.000159536
-1.94874e-05
-0.000152396
-2.14271e-05
-0.00014444
-2.38788e-05
-0.000135761
-2.60667e-05
-0.000126285
-2.84081e-05
-0.000116055
-3.06848e-05
-0.000104918
-3.33981e-05
-9.31496e-05
-3.53255e-05
-8.03857e-05
-3.82775e-05
-6.69869e-05
-4.02048e-05
-5.26663e-05
-4.29444e-05
-3.76713e-05
-4.49694e-05
-2.19293e-05
-4.72022e-05
-5.75938e-06
-4.84839e-05
1.08385e-05
-4.97763e-05
2.80009e-05
-5.1419e-05
4.53803e-05
-5.21152e-05
6.30708e-05
-5.30082e-05
8.07077e-05
-5.28794e-05
9.83342e-05
-5.2822e-05
0.000115622
-5.1819e-05
0.000132496
-5.05576e-05
0.000148729
-4.86464e-05
0.000164156
-4.62275e-05
0.000178595
-4.32574e-05
0.000191894
-3.98267e-05
0.000203895
-3.59278e-05
0.000214442
-3.16007e-05
0.000223417
-2.69048e-05
0.000230751
-2.19805e-05
0.000236316
-1.67132e-05
0.000240141
-1.14564e-05
0.000242119
-5.93661e-06
0.000242189
-2.82478e-07
0.000240504
4.9898e-06
0.000236939
1.06957e-05
0.000231768
1.55067e-05
0.000224883
2.06115e-05
0.000216538
2.50168e-05
0.000206699
2.94732e-05
0.00019563
3.31761e-05
0.000183357
3.67714e-05
0.000170267
3.92282e-05
0.000156142
4.23192e-05
0.000141424
4.41674e-05
0.00012618
4.56989e-05
0.000110651
4.65183e-05
9.48188e-05
4.74412e-05
7.8999e-05
4.7397e-05
6.32852e-05
4.70963e-05
4.79458e-05
4.59237e-05
3.27904e-05
4.50776e-05
1.82208e-05
4.36655e-05
5.89305e-06
4.0826e-05
-3.3469e-06
3.61872e-05
-7.8898e-06
2.87111e-05
2.25165e-05
-1.12654e-05
-5.37817e-05
-4.83835e-05
-4.08686e-05
-5.16236e-05
-2.74138e-05
-5.3775e-05
-1.32645e-05
-5.65627e-05
1.26582e-06
-5.80274e-05
1.63561e-05
-6.0267e-05
3.16378e-05
-6.10223e-05
4.73072e-05
-6.25659e-05
6.29737e-05
-6.25625e-05
7.87975e-05
-6.31757e-05
9.43946e-05
-6.22988e-05
0.000109869
-6.1777e-05
0.000124881
-5.9969e-05
0.000139446
-5.81298e-05
0.000153338
-5.54249e-05
0.000166311
-5.18104e-05
0.000178317
-4.79153e-05
0.000189128
-4.31653e-05
0.000198643
-3.79692e-05
0.000206714
-3.22468e-05
0.000213254
-2.61026e-05
0.000218145
-1.95295e-05
0.000221323
-1.26926e-05
0.000222752
-5.67315e-06
0.000222464
1.11144e-06
0.000220423
8.14929e-06
0.000216741
1.47449e-05
0.000211306
2.16807e-05
0.000204381
2.76462e-05
0.000195861
3.39715e-05
0.000186065
3.91204e-05
0.000174928
4.44358e-05
0.000162748
4.8591e-05
0.000149573
5.25623e-05
0.000135518
5.60784e-05
0.000120811
5.87288e-05
0.000105604
6.07213e-05
9.00058e-05
6.22641e-05
7.42076e-05
6.3102e-05
5.83066e-05
6.34899e-05
4.24374e-05
6.33616e-05
2.66846e-05
6.29576e-05
1.12626e-05
6.16246e-05
-3.85406e-06
6.03809e-05
-1.85375e-05
5.86729e-05
-3.26956e-05
5.65889e-05
-4.62995e-05
5.43853e-05
-5.9288e-05
5.19174e-05
-7.16416e-05
4.93979e-05
-8.33237e-05
4.67146e-05
-9.4343e-05
4.40589e-05
-0.000104671
4.13065e-05
-0.000114309
3.8549e-05
-0.00012327
3.58507e-05
-0.00013154
3.3098e-05
-0.000139156
3.04557e-05
-0.000146106
2.7791e-05
-0.000152417
2.52484e-05
-0.000158091
2.26925e-05
-0.000163155
2.02568e-05
-0.000167609
1.78053e-05
-0.000171476
1.54652e-05
-0.000174761
1.31665e-05
-0.000177489
1.09304e-05
-0.000179664
8.69194e-06
-0.000181267
6.46635e-06
-0.000182345
4.29849e-06
-0.000182905
2.22219e-06
-0.000182909
5.98521e-08
-0.000182404
-1.993e-06
-0.000181396
-4.03963e-06
-0.000179822
-6.2841e-06
-0.000177792
-8.12021e-06
-0.000175163
-1.04674e-05
-0.000172098
-1.2344e-05
-0.000168393
-1.48337e-05
-0.000164233
-1.66577e-05
-0.000159401
-1.93409e-05
-0.000154081
-2.12713e-05
-0.000148014
-2.41592e-05
-0.000141491
-2.62176e-05
-0.000134153
-2.92233e-05
-0.000126343
-3.13588e-05
-0.000117726
-3.44859e-05
-0.000108532
-3.67927e-05
-9.85547e-05
-3.98597e-05
-8.8049e-05
-4.20438e-05
-7.68453e-05
-4.47761e-05
-6.49322e-05
-4.7659e-05
-5.25086e-05
-4.96736e-05
-3.94535e-05
-5.21598e-05
-2.59824e-05
-5.38755e-05
-1.19223e-05
-5.61645e-05
2.50016e-06
-5.76381e-05
1.73811e-05
-5.93891e-05
3.24612e-05
-6.03195e-05
4.78471e-05
-6.14109e-05
6.32325e-05
-6.14671e-05
7.86651e-05
-6.16725e-05
9.39106e-05
-6.08304e-05
0.000108953
-6.00363e-05
0.000123525
-5.82017e-05
0.000137593
-5.61325e-05
0.000150944
-5.33086e-05
0.000163498
-5.0067e-05
0.000175068
-4.61707e-05
0.000185557
-4.18399e-05
0.000194802
-3.68782e-05
0.000202669
-3.14372e-05
0.000209155
-2.586e-05
0.000214036
-1.94831e-05
0.000217412
-1.34294e-05
0.000219038
-6.53264e-06
0.000219093
-2.50634e-07
0.000217347
6.88061e-06
0.000214053
1.31956e-05
0.000209002
2.0126e-05
0.00020251
2.5937e-05
0.000194393
3.23723e-05
0.000185006
3.74722e-05
0.00017422
4.30233e-05
0.000162417
4.70488e-05
0.000149525
5.15075e-05
0.0001358
5.49413e-05
0.000121303
5.77477e-05
0.000106298
5.98703e-05
9.07255e-05
6.21701e-05
7.48803e-05
6.32549e-05
5.89025e-05
6.38336e-05
4.28746e-05
6.40072e-05
2.69857e-05
6.34722e-05
1.12786e-05
6.27351e-05
-4.08371e-06
6.13986e-05
-1.90854e-05
5.9895e-05
-3.35756e-05
5.79608e-05
-4.75542e-05
5.58407e-05
-6.09192e-05
5.34644e-05
-7.36789e-05
5.10484e-05
-8.57981e-05
4.84158e-05
-9.72399e-05
4.57663e-05
-0.000108012
4.30642e-05
-0.000118109
4.03516e-05
-0.000127528
3.77413e-05
-0.000136274
3.49751e-05
-0.000144363
3.23878e-05
-0.000151801
2.9743e-05
-0.000158617
2.72428e-05
-0.000164808
2.48216e-05
-0.000170395
2.23397e-05
-0.000175392
2.00039e-05
-0.000179819
1.77191e-05
-0.000183661
1.5377e-05
-0.000186953
1.31674e-05
-0.000189679
1.08971e-05
-0.000191839
8.63032e-06
-0.000193426
6.35222e-06
-0.000194483
4.19866e-06
-0.000194926
1.79828e-06
-0.000194802
-4.8254e-07
-0.000194081
-2.86342e-06
-0.00019277
-5.26235e-06
-0.000190852
-7.6792e-06
-0.000188322
-1.0124e-05
-0.000185155
-1.26677e-05
-0.000181427
-1.49401e-05
-0.000177
-1.77162e-05
-0.000171912
-2.04313e-05
-0.000166166
-2.29913e-05
-0.00015966
-2.59941e-05
-0.000152517
-2.85698e-05
-0.000144565
-3.18306e-05
-0.000135916
-3.47162e-05
-0.00012642
-3.79035e-05
-0.000116191
-4.09144e-05
-0.000105057
-4.45317e-05
-9.32825e-05
-4.71003e-05
-8.05171e-05
-5.10429e-05
-6.7121e-05
-5.36009e-05
-5.27931e-05
-5.72723e-05
-3.78235e-05
-5.99391e-05
-2.20255e-05
-6.30003e-05
-5.8934e-06
-6.46161e-05
1.07544e-05
-6.64241e-05
2.79578e-05
-6.86224e-05
4.53496e-05
-6.95071e-05
6.30781e-05
-7.07368e-05
8.07297e-05
-7.05311e-05
9.83911e-05
-7.04835e-05
0.000115705
-6.91333e-05
0.000132614
-6.74659e-05
0.000148881
-6.49137e-05
0.000164335
-6.1682e-05
0.000178812
-5.77338e-05
0.000192139
-5.3154e-05
0.00020417
-4.79584e-05
0.000214746
-4.21769e-05
0.000223736
-3.58954e-05
0.000231087
-2.93315e-05
0.000236639
-2.22649e-05
0.000240486
-1.53033e-05
0.000242457
-7.90802e-06
0.000242493
-3.18315e-07
0.000240784
6.6987e-06
0.000237222
1.4258e-05
0.000232037
2.06914e-05
0.000225118
2.75304e-05
0.000216771
3.33635e-05
0.000206901
3.93431e-05
0.000195828
4.42489e-05
0.000183525
4.90746e-05
0.000170388
5.23656e-05
0.000156257
5.64499e-05
0.000141549
5.8875e-05
0.000126277
6.09707e-05
0.00011068
6.21153e-05
9.47951e-05
6.33264e-05
7.89868e-05
6.32052e-05
6.32353e-05
6.28478e-05
4.78837e-05
6.12752e-05
3.27991e-05
6.01622e-05
1.82213e-05
5.82433e-05
5.53808e-06
5.35092e-05
-4.14083e-06
4.58661e-05
-1.0163e-05
3.47332e-05
2.77234e-05
-1.53699e-05
-5.39235e-05
-6.04936e-05
-4.10022e-05
-6.4545e-05
-2.75346e-05
-6.72426e-05
-1.33762e-05
-7.07211e-05
1.17491e-06
-7.25785e-05
1.62844e-05
-7.53766e-05
3.15874e-05
-7.63254e-05
4.72808e-05
-7.82594e-05
6.29752e-05
-7.82569e-05
7.88248e-05
-7.90253e-05
9.44509e-05
-7.7925e-05
0.000109955
-7.72815e-05
0.000125
-7.50137e-05
0.000139601
-7.27308e-05
0.000153533
-6.93566e-05
0.00016654
-6.48181e-05
0.000178578
-5.99536e-05
0.00018942
-5.40067e-05
0.000198964
-4.75134e-05
0.000207052
-4.03353e-05
0.000213616
-3.26667e-05
0.000218528
-2.4441e-05
0.000221707
-1.5872e-05
0.000223142
-7.10769e-06
0.000222852
1.40154e-06
0.000220806
1.01947e-05
0.000217115
1.84363e-05
0.00021166
2.71357e-05
0.00020472
3.45861e-05
0.000196168
4.25232e-05
0.000186349
4.89397e-05
0.000175179
5.56057e-05
0.000162964
6.08054e-05
0.000149755
6.57719e-05
0.000135664
7.01695e-05
0.000120928
7.34641e-05
0.00010569
7.59593e-05
9.00552e-05
7.78993e-05
7.42288e-05
7.89284e-05
5.82973e-05
7.94215e-05
4.23837e-05
7.92752e-05
2.66324e-05
7.87089e-05
1.11884e-05
7.70686e-05
-3.95344e-06
7.55227e-05
-1.86528e-05
7.33722e-05
-3.28228e-05
7.07589e-05
-4.6436e-05
6.79985e-05
-5.94325e-05
6.4914e-05
-7.17901e-05
6.17554e-05
-8.3471e-05
5.83955e-05
-9.44991e-05
5.5087e-05
-0.000104827
5.1634e-05
-0.000114465
4.81876e-05
-0.000123419
4.48049e-05
-0.000131685
4.13639e-05
-0.000139297
3.8067e-05
-0.000146251
3.47458e-05
-0.000152561
3.15582e-05
-0.000158235
2.83661e-05
-0.000163293
2.53153e-05
-0.000167749
2.22608e-05
-0.000171614
1.93304e-05
-0.000174891
1.64437e-05
-0.000177618
1.36571e-05
-0.000179776
1.085e-05
-0.000181396
8.08612e-06
-0.000182469
5.37191e-06
-0.00018303
2.78339e-06
-0.00018303
5.99654e-08
-0.000182524
-2.49896e-06
-0.000181515
-5.04913e-06
-0.00017994
-7.8589e-06
-0.000177909
-1.01512e-05
-0.000175284
-1.30922e-05
-0.000172217
-1.54112e-05
-0.000168523
-1.85277e-05
-0.000164365
-2.08162e-05
-0.000159536
-2.41695e-05
-0.00015422
-2.65871e-05
-0.000148156
-3.02234e-05
-0.000141637
-3.27368e-05
-0.000134297
-3.65629e-05
-0.000126481
-3.91754e-05
-0.000117876
-4.30908e-05
-0.000108686
-4.59823e-05
-9.87326e-05
-4.98132e-05
-8.81967e-05
-5.25797e-05
-7.69677e-05
-5.60051e-05
-6.50729e-05
-5.95538e-05
-5.26405e-05
-6.2106e-05
-3.95802e-05
-6.52202e-05
-2.60969e-05
-6.73588e-05
-1.20206e-05
-7.02408e-05
2.41649e-06
-7.20753e-05
1.73226e-05
-7.42953e-05
3.24119e-05
-7.54089e-05
4.78237e-05
-7.68227e-05
6.32334e-05
-7.68769e-05
7.86975e-05
-7.71367e-05
9.39733e-05
-7.61062e-05
0.000109048
-7.51111e-05
0.000123648
-7.28017e-05
0.000137748
-7.02328e-05
0.000151138
-6.66982e-05
0.000163719
-6.26477e-05
0.000175308
-5.77599e-05
0.000185836
-5.23682e-05
0.000195105
-4.61474e-05
0.000202997
-3.93293e-05
0.000209501
-3.23633e-05
0.000214394
-2.43764e-05
0.000217787
-1.68221e-05
0.000219412
-8.15801e-06
0.000219472
-3.10224e-07
0.000217718
8.63457e-06
0.000214421
1.64919e-05
0.000209354
2.51936e-05
0.000202833
3.2458e-05
0.000194703
4.05016e-05
0.000185297
4.68782e-05
0.000174489
5.38318e-05
0.000162638
5.88992e-05
0.000149714
6.44321e-05
0.000135989
6.86663e-05
0.000121414
7.23226e-05
0.000106375
7.49092e-05
9.07852e-05
7.77597e-05
7.49086e-05
7.91315e-05
5.89071e-05
7.98351e-05
4.28655e-05
8.00487e-05
2.69397e-05
7.9398e-05
1.12077e-05
7.84671e-05
-4.16117e-06
7.67674e-05
-1.91976e-05
7.49314e-05
-3.36945e-05
7.24577e-05
-4.76923e-05
6.98384e-05
-6.10616e-05
6.68337e-05
-7.38284e-05
6.38152e-05
-8.59504e-05
6.05378e-05
-9.73944e-05
5.72103e-05
-0.000108173
5.38426e-05
-0.00011827
5.04485e-05
-0.000127681
4.71527e-05
-0.000136428
4.37218e-05
-0.000144511
4.04713e-05
-0.000151952
3.71834e-05
-0.000158761
3.40523e-05
-0.000164943
3.10033e-05
-0.000170533
2.793e-05
-0.000175526
2.49963e-05
-0.000179949
2.21427e-05
-0.000183794
1.92214e-05
-0.000187082
1.64556e-05
-0.000189806
1.36215e-05
-0.000191973
1.07969e-05
-0.000193575
7.95473e-06
-0.000194613
5.23655e-06
-0.000195059
2.24413e-06
-0.000194939
-6.02561e-07
-0.000194216
-3.58613e-06
-0.000192912
-6.56709e-06
-0.000190993
-9.5982e-06
-0.000188452
-1.26645e-05
-0.000185303
-1.5817e-05
-0.000181576
-1.86671e-05
-0.000177153
-2.21389e-05
-0.000172076
-2.55087e-05
-0.000166332
-2.87347e-05
-0.000159842
-3.24845e-05
-0.000152659
-3.57533e-05
-0.00014473
-3.97588e-05
-0.000136102
-4.33446e-05
-0.000126605
-4.74006e-05
-0.000116375
-5.11446e-05
-0.000105251
-5.56556e-05
-9.3458e-05
-5.88932e-05
-8.0698e-05
-6.38029e-05
-6.72982e-05
-6.70008e-05
-5.29659e-05
-7.16046e-05
-3.8005e-05
-7.49e-05
-2.21582e-05
-7.88472e-05
-6.03508e-06
-8.07392e-05
1.06444e-05
-8.31036e-05
2.78907e-05
-8.58688e-05
4.5299e-05
-8.69154e-05
6.30695e-05
-8.85073e-05
8.07513e-05
-8.82129e-05
9.84568e-05
-8.81891e-05
0.000115804
-8.64804e-05
0.000132759
-8.44207e-05
0.000149064
-8.12194e-05
0.000164545
-7.71633e-05
0.000179082
-7.22704e-05
0.000192437
-6.65089e-05
0.000204497
-6.00185e-05
0.000215106
-5.27863e-05
0.000224115
-4.4904e-05
0.000231486
-3.67028e-05
0.000237036
-2.78153e-05
0.000240915
-1.91816e-05
0.000242869
-9.8627e-06
0.000242888
-3.36775e-07
0.000241178
8.40813e-06
0.000237596
1.784e-05
0.000232401
2.58866e-05
0.000225451
3.44799e-05
0.00021709
4.17253e-05
0.000207184
4.92486e-05
0.000196102
5.5331e-05
0.00018378
6.13965e-05
0.000170562
6.55841e-05
0.00015641
7.06015e-05
0.000141688
7.35969e-05
0.000126365
7.62935e-05
0.000110687
7.77932e-05
9.47813e-05
7.92323e-05
7.89687e-05
7.90178e-05
6.31702e-05
7.86463e-05
4.77787e-05
7.66667e-05
3.27485e-05
7.51924e-05
1.83251e-05
7.26667e-05
5.00262e-06
6.68316e-05
-5.75069e-06
5.66193e-05
-1.23893e-05
4.13718e-05
3.22475e-05
-1.69134e-05
-5.4101e-05
-7.26131e-05
-4.11698e-05
-7.74762e-05
-2.76861e-05
-8.07263e-05
-1.35172e-05
-8.48902e-05
1.05916e-06
-8.71549e-05
1.61903e-05
-9.05078e-05
3.15166e-05
-9.16517e-05
4.72384e-05
-9.39813e-05
6.29633e-05
-9.39818e-05
7.8846e-05
-9.49081e-05
9.45093e-05
-9.35884e-05
0.000110049
-9.2821e-05
0.000125137
-9.01017e-05
0.000139786
-8.738e-05
0.000153766
-8.33366e-05
0.000166819
-7.78709e-05
0.000178899
-7.20341e-05
0.000189781
-6.48884e-05
0.000199361
-5.70933e-05
0.000207483
-4.84575e-05
0.000214071
-3.92544e-05
0.000219006
-2.93767e-05
0.0002222
-1.9066e-05
0.000223634
-8.54109e-06
0.000223343
1.69234e-06
0.000221291
1.22468e-05
0.000217583
2.21445e-05
0.000212102
3.26166e-05
0.000205144
4.15438e-05
0.000196549
5.11178e-05
0.000186704
5.87846e-05
0.000175491
6.68196e-05
0.000163234
7.30619e-05
0.000149983
7.90233e-05
0.000135848
8.43042e-05
0.000121076
8.82358e-05
0.000105798
9.12375e-05
9.01178e-05
9.35794e-05
7.42554e-05
9.47908e-05
5.82863e-05
9.53906e-05
4.23272e-05
9.52342e-05
2.65778e-05
9.44583e-05
1.10963e-05
9.25501e-05
-4.07874e-06
9.06977e-05
-1.87969e-05
8.80903e-05
-3.29817e-05
8.49437e-05
-4.6605e-05
8.16218e-05
-5.96107e-05
7.79196e-05
-7.19756e-05
7.41203e-05
-8.36618e-05
7.00817e-05
-9.46926e-05
6.61178e-05
-0.000105019
6.196e-05