/*--------------------------------*- C++ -*----------------------------------*\
| =========                 |                                                 |
| \\      /  F ield         | OpenFOAM: The Open Source CFD Toolbox           |
|  \\    /   O peration     | Version:  3.0.1                                 |
|   \\  /    A nd           | Web:      www.OpenFOAM.org                      |
|    \\/     M anipulation  |                                                 |
\*---------------------------------------------------------------------------*/
FoamFile
{
    version     2.0;
    format      ascii;
    class       surfaceScalarField;
    location    "21.4";
    object      phi;
}
// * * * * * * * * * * * * * * * * * * * * * * * * * * * * * * * * * * * * * //

dimensions      [0 3 -1 0 0 0 0];

internalField   nonuniform List<scalar> 
42423
(
-0.000143861
-7.57255e-06
-0.000135161
-8.69927e-06
-0.00012552
-9.64102e-06
-0.000114915
-1.06058e-05
-0.00010308
-1.18343e-05
-9.02729e-05
-1.28076e-05
-7.62311e-05
-1.40418e-05
-6.12913e-05
-1.49398e-05
-4.56874e-05
-1.56039e-05
-2.90318e-05
-1.66556e-05
-1.16634e-05
-1.73685e-05
6.28885e-06
-1.79523e-05
2.48843e-05
-1.85955e-05
4.38448e-05
-1.89605e-05
6.30694e-05
-1.92247e-05
8.23385e-05
-1.92692e-05
0.000101261
-1.89228e-05
0.000119709
-1.84473e-05
0.000137466
-1.77579e-05
0.000154148
-1.66814e-05
0.000169518
-1.53705e-05
0.000183365
-1.38471e-05
0.000195405
-1.20401e-05
0.000205445
-1.00396e-05
0.000213332
-7.88718e-06
0.000218865
-5.53293e-06
0.000221968
-3.10285e-06
0.000222619
-6.51324e-07
0.000220774
1.8447e-06
0.000216397
4.37736e-06
0.000209526
6.87077e-06
0.000200485
9.04158e-06
0.000189336
1.11489e-05
0.000176419
1.29171e-05
0.000161832
1.45863e-05
0.000145813
1.60194e-05
0.000128731
1.70815e-05
0.000110806
1.79249e-05
9.22919e-05
1.85144e-05
7.34671e-05
1.88248e-05
5.45321e-05
1.8935e-05
3.56184e-05
1.89137e-05
1.70554e-05
1.85629e-05
-1.084e-06
1.81394e-05
-1.86386e-05
1.75546e-05
-3.55081e-05
1.68694e-05
-5.15824e-05
1.60743e-05
-6.67908e-05
1.52084e-05
-8.11224e-05
1.43316e-05
-9.45076e-05
1.33852e-05
-0.000106942
1.24345e-05
-0.00011843
1.14875e-05
-0.000128984
1.05546e-05
-0.000138663
9.67845e-06
-0.00014741
8.74724e-06
-0.000155252
7.84201e-06
-0.000162308
7.05636e-06
-0.000168508
6.19945e-06
-0.000173885
5.3773e-06
-0.000178451
4.56589e-06
-0.00018223
3.77941e-06
-0.000185313
3.08263e-06
-0.000187573
2.25984e-06
-0.000189011
1.43779e-06
-0.000189717
7.06313e-07
-0.000189574
-1.427e-07
-0.000188529
-1.04547e-06
-0.000186716
-1.81295e-06
-0.000183947
-2.76929e-06
-0.000180374
-3.57249e-06
-0.000175958
-4.41601e-06
-0.000170572
-5.3863e-06
-0.000164345
-6.2267e-06
-0.000157272
-7.07342e-06
-0.000149229
-8.0427e-06
-0.000140387
-8.84185e-06
-0.000130575
-9.81206e-06
-0.000119941
-1.0634e-05
-0.000108498
-1.14433e-05
-9.61995e-05
-1.22983e-05
-8.31692e-05
-1.30303e-05
-6.93287e-05
-1.38406e-05
-5.46561e-05
-1.46726e-05
-3.94238e-05
-1.52323e-05
-2.34873e-05
-1.59366e-05
-6.95921e-06
-1.65281e-05
9.9617e-06
-1.6921e-05
2.73769e-05
-1.74152e-05
4.5034e-05
-1.76571e-05
6.28437e-05
-1.78097e-05
8.07084e-05
-1.78648e-05
9.82333e-05
-1.75249e-05
0.000115303
-1.70693e-05
0.000131784
-1.64813e-05
0.000147342
-1.5558e-05
0.000161774
-1.44321e-05
0.0001748
-1.30265e-05
0.0001862
-1.13996e-05
0.000195765
-9.56565e-06
0.000203273
-7.50768e-06
0.000208623
-5.34988e-06
0.000211725
-3.10168e-06
0.000212393
-6.68319e-07
0.000210734
1.65917e-06
0.000206658
4.07533e-06
0.000200162
6.49623e-06
0.000191445
8.71737e-06
0.000180545
1.09001e-05
0.000167694
1.28505e-05
0.000153129
1.45654e-05
0.000137069
1.60594e-05
0.000119826
1.72431e-05
0.000101669
1.81574e-05
8.28998e-05
1.87688e-05
6.37634e-05
1.91364e-05
4.45575e-05
1.92058e-05
2.55205e-05
1.9037e-05
6.86283e-06
1.86577e-05
-1.12726e-05
1.81354e-05
-2.86172e-05
1.73446e-05
-4.5168e-05
1.65509e-05
-6.07923e-05
1.56243e-05
-7.54248e-05
1.46325e-05
-8.90091e-05
1.35843e-05
-0.000101537
1.25276e-05
-0.000113071
1.15338e-05
-0.000123532
1.04614e-05
-0.000132968
9.43584e-06
-0.000141426
8.45833e-06
-0.000148933
7.50718e-06
-0.000155496
6.56257e-06
-0.000161171
5.67501e-06
-0.000166063
4.89185e-06
-0.000170231
4.16865e-06
-0.000173621
3.39002e-06
-0.000176294
2.67266e-06
-0.000178317
2.0228e-06
-0.000179791
1.47435e-06
-0.000180618
8.27165e-07
-0.000180885
2.67157e-07
-0.0001805
-3.85677e-07
-0.000179526
-9.73778e-07
-0.000177951
-1.57515e-06
-0.000175678
-2.27336e-06
-0.00017274
-2.93744e-06
-0.00016907
-3.67009e-06
-0.000164575
-4.4947e-06
-0.000159183
-5.39222e-06
-0.00015297
-6.21276e-06
-0.000145843
-7.12709e-06
-0.000137845
-7.99848e-06
-0.000128854
-8.99087e-06
-0.000118908
-9.94589e-06
-0.000108047
-1.08614e-05
-9.6171e-05
-1.18757e-05
-8.33421e-05
-1.2829e-05
-6.95847e-05
-1.37575e-05
-5.4821e-05
-1.47637e-05
-3.93048e-05
-1.55162e-05
-2.30702e-05
-1.62346e-05
-6.13506e-06
-1.69352e-05
1.12918e-05
-1.74269e-05
2.91435e-05
-1.78518e-05
4.725e-05
-1.81065e-05
6.54131e-05
-1.81631e-05
8.34494e-05
-1.80363e-05
0.000101149
-1.76998e-05
0.00011826
-1.71109e-05
0.000134581
-1.63209e-05
0.000149846
-1.52653e-05
0.000163799
-1.39532e-05
0.000176255
-1.24557e-05
0.000186927
-1.06724e-05
0.000195594
-8.66622e-06
0.000202127
-6.5332e-06
0.000206442
-4.31499e-06
0.000208499
-2.05732e-06
0.000208127
3.71655e-07
0.000205329
2.79778e-06
0.000200192
5.13744e-06
0.000192807
7.38497e-06
0.000183341
9.46575e-06
0.000171965
1.1376e-05
0.000158842
1.31228e-05
0.000144293
1.4549e-05
0.000128511
1.57828e-05
0.000111805
1.6706e-05
9.43694e-05
1.74352e-05
7.64422e-05
1.79271e-05
5.83118e-05
1.81304e-05
4.01709e-05
1.81409e-05
2.22304e-05
1.79406e-05
4.62565e-06
1.76047e-05
-1.24972e-05
1.71228e-05
-2.89467e-05
1.64495e-05
-4.46783e-05
1.57316e-05
-5.95578e-05
1.48795e-05
-7.35799e-05
1.40221e-05
-8.67004e-05
1.31205e-05
-9.88603e-05
1.21599e-05
-0.000110088
1.12274e-05
-0.00012037
1.02822e-05
-0.000129758
9.38832e-06
-0.000138188
8.42966e-06
-0.000145758
7.56996e-06
-0.000152449
6.69127e-06
-0.000158282
5.83305e-06
-0.000163298
5.01552e-06
-0.000167473
4.17576e-06
-0.000170882
3.40857e-06
-0.000173557
2.67522e-06
-0.000175485
1.92761e-06
-0.000176713
1.22807e-06
-0.000177258
5.4498e-07
-0.000177191
-6.65062e-08
-0.00017642
-7.70879e-07
-0.00017489
-1.53019e-06
-0.000172677
-2.21378e-06
-0.000169852
-2.82479e-06
-0.000166277
-3.57477e-06
-0.000162072
-4.20499e-06
-0.000157044
-5.02809e-06
-0.000151329
-5.71453e-06
-0.000144938
-6.39187e-06
-0.000137584
-7.35315e-06
-0.000129332
-8.25284e-06
-0.000120257
-9.07449e-06
-0.000110203
-1.00539e-05
-9.93577e-05
-1.08455e-05
-8.75149e-05
-1.18429e-05
-7.47707e-05
-1.27442e-05
-6.11359e-05
-1.36348e-05
-4.66557e-05
-1.44801e-05
-3.12295e-05
-1.54263e-05
-1.49707e-05
-1.62588e-05
1.93817e-06
-1.69089e-05
1.94664e-05
-1.75283e-05
3.74829e-05
-1.80165e-05
5.57811e-05
-1.82983e-05
7.41591e-05
-1.8378e-05
9.23345e-05
-1.81754e-05
0.000110108
-1.77732e-05
0.000127183
-1.70756e-05
0.000143208
-1.60247e-05
0.000158061
-1.48532e-05
0.000171406
-1.33454e-05
0.000183024
-1.1618e-05
0.00019269
-9.66545e-06
0.000200212
-7.52192e-06
0.000205515
-5.30372e-06
0.000208489
-2.97365e-06
0.000209049
-5.6041e-07
0.000207257
1.79259e-06
0.000203229
4.02742e-06
0.000197035
6.19477e-06
0.000188746
8.28831e-06
0.000178668
1.00786e-05
0.000166892
1.17755e-05
0.00015364
1.32519e-05
0.0001392
1.44404e-05
0.000123769
1.54308e-05
0.000107569
1.61995e-05
9.08151e-05
1.67544e-05
7.3676e-05
1.71391e-05
5.64148e-05
1.72612e-05
3.91628e-05
1.7252e-05
2.20622e-05
1.71006e-05
5.24536e-06
1.68168e-05
-1.11704e-05
1.64158e-05
-2.70077e-05
1.58373e-05
-4.22743e-05
1.52666e-05
-5.67916e-05
1.45173e-05
-7.04917e-05
1.37001e-05
-8.33625e-05
1.28708e-05
-9.53998e-05
1.20373e-05
-0.000106521
1.1121e-05
-0.000116634
1.01136e-05
-0.000125934
9.29986e-06
-0.000134208
8.27377e-06
-0.000141594
7.38602e-06
-0.000148057
6.463e-06
-0.000153578
5.5212e-06
-0.000158315
4.73712e-06
-0.000162144
3.82839e-06
-0.000165142
2.99858e-06
-0.000167299
2.15707e-06
-0.000168703
1.4039e-06
-0.000169268
5.6513e-07
-0.000168938
-3.30518e-07
-0.000167625
-1.31273e-06
-0.000165538
-2.08703e-06
-0.000162628
-2.9099e-06
-0.000158768
-3.86002e-06
-0.000154211
-4.55746e-06
-0.000148854
-5.35713e-06
-0.000142614
-6.23971e-06
-0.000135642
-6.9724e-06
-0.000127981
-7.66047e-06
-0.000119459
-8.52242e-06
-0.000110249
-9.20932e-06
-0.000100206
-1.00434e-05
-8.94241e-05
-1.07819e-05
-7.80797e-05
-1.13444e-05
-6.6013e-05
-1.20668e-05
-5.32672e-05
-1.27458e-05
-4.00258e-05
-1.32414e-05
-2.59875e-05
-1.40383e-05
-1.14797e-05
-1.45079e-05
3.67616e-06
-1.51559e-05
1.93847e-05
-1.57086e-05
3.53569e-05
-1.59723e-05
5.16856e-05
-1.63286e-05
6.82907e-05
-1.66052e-05
8.48797e-05
-1.6589e-05
0.00010145
-1.657e-05
0.000117761
-1.63119e-05
0.000133687
-1.59259e-05
0.000149027
-1.53401e-05
0.000163504
-1.44769e-05
0.00017695
-1.34457e-05
0.000189155
-1.2205e-05
0.000199888
-1.07336e-05
0.00020898
-9.09146e-06
0.000216196
-7.21599e-06
0.000221351
-5.15553e-06
0.000224355
-3.00353e-06
0.000225183
-8.27842e-07
0.000223627
1.55614e-06
0.000219603
4.02387e-06
0.000213109
6.4939e-06
0.000204454
8.65477e-06
0.00019373
1.07242e-05
0.000180989
1.27403e-05
0.000166625
1.43641e-05
0.000150793
1.58322e-05
0.000133859
1.6934e-05
0.000116071
1.77883e-05
9.76626e-05
1.84081e-05
7.89833e-05
1.86792e-05
6.02808e-05
1.87026e-05
4.16801e-05
1.86007e-05
2.35999e-05
1.80802e-05
6.23183e-06
1.7368e-05
-1.0482e-05
1.67138e-05
-2.63617e-05
1.58797e-05
-4.1273e-05
1.49113e-05
-5.51427e-05
1.38697e-05
-6.79666e-05
1.2824e-05
-7.97095e-05
1.17428e-05
-9.03705e-05
1.06611e-05
-9.99838e-05
9.61329e-06
-0.000108568
8.58454e-06
-0.000116174
7.60562e-06
-0.000122835
6.66074e-06
-0.000128597
5.7624e-06
-0.000133515
4.91803e-06
4.03825e-06
-0.000143903
-1.51403e-05
-0.000135206
-1.73957e-05
-0.000125568
-1.92793e-05
-0.000114966
-2.12083e-05
-0.000103132
-2.36678e-05
-9.03238e-05
-2.5616e-05
-7.6278e-05
-2.80877e-05
-6.13344e-05
-2.98836e-05
-4.57237e-05
-3.12147e-05
-2.90678e-05
-3.33115e-05
-1.16915e-05
-3.47449e-05
6.25957e-06
-3.59034e-05
2.48644e-05
-3.72004e-05
4.38367e-05
-3.79329e-05
6.30762e-05
-3.84643e-05
8.23708e-05
-3.85639e-05
0.00010132
-3.78721e-05
0.000119775
-3.69023e-05
0.00013753
-3.55134e-05
0.000154217
-3.33684e-05
0.000169599
-3.07528e-05
0.000183459
-2.77064e-05
0.000195515
-2.40961e-05
0.000205575
-2.01001e-05
0.000213467
-1.57792e-05
0.000218991
-1.10571e-05
0.000222102
-6.2137e-06
0.000222752
-1.30194e-06
0.000220899
3.69845e-06
0.000216519
8.75683e-06
0.000209644
1.37455e-05
0.000200595
1.80906e-05
0.000189436
2.23077e-05
0.00017651
2.58433e-05
0.000161909
2.91874e-05
0.000145878
3.205e-05
0.000128786
3.41742e-05
0.00011085
3.5861e-05
9.23244e-05
3.70395e-05
7.34917e-05
3.76575e-05
5.45446e-05
3.78821e-05
3.56178e-05
3.78405e-05
1.70483e-05
3.71324e-05
-1.09724e-06
3.62849e-05
-1.86598e-05
3.51172e-05
-3.55362e-05
3.37458e-05
-5.16195e-05
3.21576e-05
-6.68358e-05
3.04247e-05
-8.11692e-05
2.86651e-05
-9.45577e-05
2.67736e-05
-0.000106997
2.48742e-05
-0.00011849
2.29798e-05
-0.000129045
2.11101e-05
-0.000138725
1.93587e-05
-0.000147477
1.74984e-05
-0.000155328
1.56934e-05
-0.000162374
1.41019e-05
-0.000168571
1.2397e-05
-0.000173942
1.07479e-05
-0.000178507
9.13146e-06
-0.000182278
7.5496e-06
-0.000185359
6.16411e-06
-0.000187627
4.5281e-06
-0.000189075
2.88578e-06
-0.000189783
1.41386e-06
-0.00018964
-2.85449e-07
-0.000188592
-2.0939e-06
-0.00018678
-3.625e-06
-0.000184013
-5.53593e-06
-0.00018044
-7.14591e-06
-0.000176019
-8.83614e-06
-0.000170634
-1.07723e-05
-0.000164408
-1.24522e-05
-0.000157333
-1.41489e-05
-0.000149288
-1.60874e-05
-0.000140444
-1.76856e-05
-0.000130634
-1.96219e-05
-0.000119998
-2.12699e-05
-0.000108551
-2.28913e-05
-9.62501e-05
-2.45989e-05
-8.3217e-05
-2.60635e-05
-6.93838e-05
-2.76739e-05
-5.47101e-05
-2.93463e-05
-3.94738e-05
-3.04687e-05
-2.35642e-05
-3.18463e-05
-7.00953e-06
-3.30829e-05
9.92748e-06
-3.3858e-05
2.73567e-05
-3.48445e-05
4.50253e-05
-3.53258e-05
6.28514e-05
-3.56359e-05
8.07176e-05
-3.57311e-05
9.82456e-05
-3.50529e-05
0.000115323
-3.41466e-05
0.000131818
-3.29769e-05
0.00014739
-3.11297e-05
0.00016184
-2.88825e-05
0.000174873
-2.6059e-05
0.000186286
-2.28133e-05
0.000195878
-1.91572e-05
0.000203385
-1.50148e-05
0.000208733
-1.06985e-05
0.000211849
-6.21799e-06
0.000212525
-1.34421e-06
0.000210864
3.32003e-06
0.000206791
8.14902e-06
0.00020029
1.29965e-05
0.000191573
1.74345e-05
0.000180656
2.18169e-05
0.000167796
2.57103e-05
0.000153215
2.91468e-05
0.000137148
3.21261e-05
0.000119906
3.44857e-05
0.000101731
3.63316e-05
8.29405e-05
3.75595e-05
6.37823e-05
3.82947e-05
4.4562e-05
3.84261e-05
2.5523e-05
3.8076e-05
6.85714e-06
3.73235e-05
-1.12867e-05
3.62793e-05
-2.86429e-05
3.47007e-05
-4.52015e-05
3.31095e-05
-6.0825e-05
3.12478e-05
-7.54582e-05
2.92657e-05
-8.90498e-05
2.71759e-05
-0.000101585
2.50625e-05
-0.000113122
2.3071e-05
-0.00012359
2.09297e-05
-0.000133022
1.88681e-05
-0.000141472
1.69079e-05
-0.000148983
1.50184e-05
-0.000155556
1.3135e-05
-0.000161231
1.13503e-05
-0.000166122
9.7827e-06
-0.000170283
8.32999e-06
-0.000173679
6.78547e-06
-0.000176355
5.34846e-06
-0.000178377
4.04505e-06
-0.000179852
2.94919e-06
-0.000180677
1.65269e-06
-0.000180945
5.34616e-07
-0.000180564
-7.66708e-07
-0.000179595
-1.94282e-06
-0.000178015
-3.1548e-06
-0.00017574
-4.54833e-06
-0.00017282
-5.85771e-06
-0.000169154
-7.33603e-06
-0.000164658
-8.99066e-06
-0.000159276
-1.07737e-05
-0.000153059
-1.24304e-05
-0.000145922
-1.42637e-05
-0.000137937
-1.59841e-05
-0.000128943
-1.7985e-05
-0.000118998
-1.98907e-05
-0.000108142
-2.17169e-05
-9.62735e-05
-2.37447e-05
-8.34245e-05
-2.5678e-05
-6.96699e-05
-2.75121e-05
-5.48988e-05
-2.95349e-05
-3.94001e-05
-3.1015e-05
-2.31459e-05
-3.24887e-05
-6.1969e-06
-3.38843e-05
1.12419e-05
-3.48658e-05
2.91048e-05
-3.57147e-05
4.72222e-05
-3.6224e-05
6.53919e-05
-3.63328e-05
8.34388e-05
-3.60833e-05
0.000101154
-3.54155e-05
0.000118283
-3.42391e-05
0.000134628
-3.26665e-05
0.000149925
-3.05618e-05
0.000163876
-2.79044e-05
0.000176345
-2.49244e-05
0.000187023
-2.13512e-05
0.000195697
-1.73402e-05
0.000202245
-1.30809e-05
0.000206565
-8.63534e-06
0.000208625
-4.11678e-06
0.000208251
7.44777e-07
0.000205456
5.59325e-06
0.00020032
1.02736e-05
0.000192929
1.47754e-05
0.00018346
1.89349e-05
0.000172066
2.27701e-05
0.000158937
2.62517e-05
0.000144384
2.9102e-05
0.000128585
3.1582e-05
0.00011187
3.34204e-05
9.44143e-05
3.48913e-05
7.64805e-05
3.5861e-05
5.83412e-05
3.62697e-05
4.01901e-05
3.62919e-05
2.22358e-05
3.58949e-05
4.62007e-06
3.52204e-05
-1.25099e-05
3.42528e-05
-2.89669e-05
3.29065e-05
-4.47085e-05
3.14733e-05
-5.95998e-05
2.97708e-05
-7.36261e-05
2.80484e-05
-8.67452e-05
2.62397e-05
-9.89064e-05
2.4321e-05
-0.000110133
2.24538e-05
-0.000120415
2.05647e-05
-0.000129812
1.87845e-05
-0.000138247
1.68655e-05
-0.000145811
1.5134e-05
-0.000152502
1.33814e-05
-0.000158335
1.16669e-05
-0.00016336
1.00397e-05
-0.000167536
8.35228e-06
-0.000170941
6.81365e-06
-0.000173616
5.34987e-06
-0.00017555
3.86151e-06
-0.00017678
2.45877e-06
-0.000177322
1.08673e-06
-0.000177253
-1.35559e-07
-0.000176485
-1.53893e-06
-0.000174953
-3.0619e-06
-0.000172742
-4.42565e-06
-0.000169908
-5.65831e-06
-0.00016635
-7.13275e-06
-0.000162155
-8.39992e-06
-0.000157125
-1.00586e-05
-0.000151407
-1.14319e-05
-0.00014502
-1.27789e-05
-0.000137676
-1.46977e-05
-0.000129428
-1.65012e-05
-0.000120339
-1.81629e-05
-0.000110289
-2.01045e-05
-9.94537e-05
-2.16804e-05
-8.76083e-05
-2.36883e-05
-7.48581e-05
-2.54944e-05
-6.124e-05
-2.72531e-05
-4.6741e-05
-2.89792e-05
-3.13161e-05
-3.08512e-05
-1.50475e-05
-3.25276e-05
1.87937e-06
-3.38358e-05
1.94167e-05
-3.50656e-05
3.74437e-05
-3.60436e-05
5.57504e-05
-3.6605e-05
7.4137e-05
-3.67647e-05
9.23242e-05
-3.63626e-05
0.000110123
-3.55723e-05
0.00012722
-3.41721e-05
0.000143269
-3.20744e-05
0.000158131
-2.97153e-05
0.00017149
-2.67038e-05
0.000183128
-2.32563e-05
0.000192796
-1.93338e-05
0.000200321
-1.50468e-05
0.000205633
-1.0616e-05
0.000208616
-5.9566e-06
0.000209172
-1.11591e-06
0.000207365
3.59933e-06
0.000203341
8.0514e-06
0.000197157
1.23787e-05
0.000188857
1.65877e-05
0.000178766
2.01703e-05
0.000166992
2.35497e-05
0.000153728
2.65156e-05
0.000139269
2.8899e-05
0.000123826
3.08736e-05
0.000107616
3.24098e-05
9.08565e-05
3.35139e-05
7.37089e-05
3.42867e-05
5.64303e-05
3.45398e-05
3.91629e-05
3.45194e-05
2.20609e-05
3.42025e-05
5.2422e-06
3.36355e-05
-1.11934e-05
3.28514e-05
-2.70339e-05
3.16778e-05
-4.23104e-05
3.05431e-05
-5.68459e-05
2.90527e-05
-7.05519e-05
2.74061e-05
-8.34207e-05
2.57396e-05
-9.54681e-05
2.40848e-05
-0.000106591
2.22443e-05
-0.000116702
2.02239e-05
-0.000126004
1.86021e-05
-0.000134287
1.65564e-05
-0.000141678
1.4777e-05
-0.000148149
1.29338e-05
-0.000153676
1.10486e-05
-0.00015841
9.47076e-06
-0.00016223
7.64854e-06
-0.00016523
5.99851e-06
-0.000167385
4.3123e-06
-0.00016878
2.79943e-06
-0.000169344
1.129e-06
-0.000169016
-6.59181e-07
-0.000167702
-2.62654e-06
-0.000165614
-4.17508e-06
-0.000162702
-5.8216e-06
-0.000158847
-7.71552e-06
-0.000154282
-9.12201e-06
-0.000148925
-1.07143e-05
-0.000142683
-1.24817e-05
-0.000135708
-1.3947e-05
-0.000128026
-1.53434e-05
-0.000119516
-1.70316e-05
-0.000110307
-1.84183e-05
-0.000100268
-2.00828e-05
-8.9489e-05
-2.1561e-05
-7.81473e-05
-2.26862e-05
-6.60789e-05
-2.41352e-05
-5.33203e-05
-2.55045e-05
-4.00636e-05
-2.64982e-05
-2.60381e-05
-2.80638e-05
-1.15259e-05
-2.90202e-05
3.63161e-06
-3.03134e-05
1.9346e-05
-3.14231e-05
3.53229e-05
-3.19492e-05
5.16583e-05
-3.26641e-05
6.82722e-05
-3.32191e-05
8.48694e-05
-3.31863e-05
0.00010145
-3.31506e-05
0.000117773
-3.26348e-05
0.000133708
-3.18609e-05
0.000149065
-3.06976e-05
0.000163556
-2.89681e-05
0.000177024
-2.6913e-05
0.000189254
-2.44352e-05
0.000200005
-2.14848e-05
0.000209106
-1.81924e-05
0.000216315
-1.44254e-05
0.000221473
-1.03135e-05
0.000224506
-6.0363e-06
0.000225331
-1.65264e-06
0.000223746
3.14106e-06
0.000219716
8.0539e-06
0.000213219
1.29907e-05
0.000204558
1.73156e-05
0.000193825
2.14568e-05
0.000181074
2.54917e-05
0.000166697
2.87406e-05
0.000150857
3.1672e-05
0.00013391
3.38813e-05
0.000116108
3.559e-05
9.76868e-05
3.68296e-05
7.89947e-05
3.73714e-05
6.02815e-05
3.74157e-05
4.16677e-05
3.72145e-05
2.35806e-05
3.61673e-05
6.2055e-06
3.47431e-05
-1.0512e-05
3.34313e-05
-2.63983e-05
3.1766e-05
-4.13159e-05
2.98289e-05
-5.5186e-05
2.77398e-05
-6.80101e-05
2.56481e-05
-7.9755e-05
2.34877e-05
-9.04166e-05
2.13227e-05
-0.000100029
1.92258e-05
-0.000108611
1.71665e-05
-0.000116214
1.52081e-05
-0.000122872
1.33195e-05
-0.000128633
1.15232e-05
-0.000133549
9.83426e-06
8.07266e-06
-0.000143978
-2.27067e-05
-0.000135284
-2.60907e-05
-0.000125647
-2.89162e-05
-0.000115047
-3.18084e-05
-0.000103214
-3.55001e-05
-9.04044e-05
-3.84261e-05
-7.63541e-05
-4.2138e-05
-6.14042e-05
-4.48335e-05
-4.57899e-05
-4.68291e-05
-2.91221e-05
-4.99794e-05
-1.17367e-05
-5.21305e-05
6.24197e-06
-5.38821e-05
2.48583e-05
-5.58168e-05
4.38445e-05
-5.69192e-05
6.31003e-05
-5.77201e-05
8.24115e-05
-5.78752e-05
0.00010138
-5.68408e-05
0.000119866
-5.53878e-05
0.00013766
-5.33083e-05
0.000154371
-5.00793e-05
0.000169767
-4.61484e-05
0.000183635
-4.15744e-05
0.000195696
-3.61573e-05
0.000205768
-3.0172e-05
0.000213683
-2.36949e-05
0.000219219
-1.65932e-05
0.000222337
-9.33164e-06
0.000222979
-1.94319e-06
0.000221087
5.59005e-06
0.000216701
1.31427e-05
0.000209819
2.06275e-05
0.000200757
2.71528e-05
0.000189581
3.34832e-05
0.000176631
3.87933e-05
0.000162013
4.38059e-05
0.000145965
4.80977e-05
0.000128853
5.12855e-05
0.0001109
5.38148e-05
9.23591e-05
5.55801e-05
7.35213e-05
5.64953e-05
5.45414e-05
5.6862e-05
3.55925e-05
5.67892e-05
1.70136e-05
5.57113e-05
-1.1463e-06
5.44449e-05
-1.87208e-05
5.26917e-05
-3.56074e-05
5.06324e-05
-5.16979e-05
4.8248e-05
-6.69175e-05
4.56443e-05
-8.12543e-05
4.30018e-05
-9.46486e-05
4.0168e-05
-0.000107092
3.73173e-05
-0.000118584
3.4472e-05
-0.000129131
3.16574e-05
-0.000138809
2.90363e-05
-0.000147554
2.62432e-05
-0.000155401
2.35404e-05
-0.000162438
2.11395e-05
-0.000168633
1.85916e-05
-0.000173998
1.61136e-05
-0.000178563
1.3696e-05
-0.000182326
1.13131e-05
-0.000185404
9.24119e-06
-0.000187667
6.79184e-06
-0.00018912
4.33801e-06
-0.000189828
2.12219e-06
-0.000189699
-4.1412e-07
-0.000188655
-3.13821e-06
-0.000186845
-5.43539e-06
-0.000184075
-8.30497e-06
-0.000180505
-1.07166e-05
-0.000176088
-1.32525e-05
-0.000170701
-1.61601e-05
-0.000164475
-1.86776e-05
-0.000157403
-2.12214e-05
-0.000149355
-2.4135e-05
-0.00014051
-2.6531e-05
-0.000130701
-2.9431e-05
-0.000120064
-3.19067e-05
-0.000108615
-3.43404e-05
-9.63132e-05
-3.69008e-05
-8.32786e-05
-3.90981e-05
-6.94493e-05
-4.15033e-05
-5.47722e-05
-4.40235e-05
-3.95334e-05
-4.57076e-05
-2.36333e-05
-4.77464e-05
-7.05526e-06
-4.9661e-05
9.89586e-06
-5.08092e-05
2.73433e-05
-5.2292e-05
4.50181e-05
-5.30007e-05
6.28673e-05
-5.34852e-05
8.07552e-05
-5.36191e-05
9.82938e-05
-5.25916e-05
0.000115392
-5.12453e-05
0.000131904
-4.94881e-05
0.00014749
-4.67157e-05
0.000161957
-4.33503e-05
0.000175002
-3.91036e-05
0.000186422
-3.42336e-05
0.000196037
-2.87721e-05
0.000203554
-2.25323e-05
0.000208894
-1.60377e-05
0.000212027
-9.35176e-06
0.000212701
-2.01785e-06
0.000211029
4.9915e-06
0.000206967
1.22114e-05
0.000200456
1.95068e-05
0.000191729
2.61618e-05
0.000180788
3.27583e-05
0.000167908
3.85901e-05
0.000153312
4.37422e-05
0.000137215
4.82234e-05
0.000119951
5.17502e-05
0.000101762
5.45202e-05
8.29466e-05
5.63749e-05
6.37668e-05
5.74745e-05
4.45209e-05
5.7672e-05
2.54667e-05
5.71302e-05
6.78297e-06
5.60073e-05
-1.13687e-05
5.4431e-05
-2.8732e-05
5.2064e-05
-4.53015e-05
4.96789e-05
-6.09299e-05
4.68762e-05
-7.55642e-05
4.39e-05
-8.91536e-05
4.07654e-05
-0.000101696
3.76047e-05
-0.00011322
3.45949e-05
-0.000123694
3.14037e-05
-0.000133124
2.82988e-05
-0.000141567
2.53502e-05
-0.000149071
2.25225e-05
-0.00015564
1.97043e-05
-0.00016132
1.70307e-05
-0.000166218
1.46798e-05
-0.000170364
1.24761e-05
-0.000173751
1.01732e-05
-0.000176424
8.02121e-06
-0.00017844
6.06097e-06
-0.000179921
4.43038e-06
-0.000180747
2.47844e-06
-0.000181009
7.9669e-07
-0.000180636
-1.1399e-06
-0.000179666
-2.91234e-06
-0.000178086
-4.73525e-06
-0.000175811
-6.82301e-06
-0.000172889
-8.77965e-06
-0.000169238
-1.09869e-05
-0.000164741
-1.34878e-05
-0.000159354
-1.61608e-05
-0.000153147
-1.86373e-05
-0.000146012
-2.13994e-05
-0.000138033
-2.39622e-05
-0.000129035
-2.69839e-05
-0.000119096
-2.98297e-05
-0.000108241
-3.25716e-05
-9.63673e-05
-3.56183e-05
-8.35079e-05
-3.85374e-05
-6.97557e-05
-4.12643e-05
-5.49816e-05
-4.43091e-05
-3.94856e-05
-4.65111e-05
-2.32215e-05
-4.87529e-05
-6.26021e-06
-5.08456e-05
1.11996e-05
-5.23257e-05
2.90904e-05
-5.36056e-05
4.72338e-05
-5.43675e-05
6.5423e-05
-5.45221e-05
8.34787e-05
-5.41391e-05
0.000101202
-5.31385e-05
0.000118342
-5.13793e-05
0.000134711
-4.90353e-05
0.000150026
-4.58778e-05
0.000163985
-4.18634e-05
0.000176483
-3.74216e-05
0.000187189
-3.20578e-05
0.000195869
-2.60202e-05
0.000202418
-1.96301e-05
0.000206741
-1.2958e-05
0.000208818
-6.19423e-06
0.000208416
1.14743e-06
0.000205612
8.3969e-06
0.000200483
1.54031e-05
0.000193077
2.21811e-05
0.000183585
2.84266e-05
0.000172163
3.41921e-05
0.000159029
3.9386e-05
0.000144462
4.36682e-05
0.000128647
4.73973e-05
0.00011192
5.01474e-05
9.44244e-05
5.23869e-05
7.64714e-05
5.3814e-05
5.83136e-05
5.44275e-05
4.01497e-05
5.44558e-05
2.21841e-05
5.38605e-05
4.56343e-06
5.28411e-05
-1.2579e-05
5.13952e-05
-2.90521e-05
4.93797e-05
-4.47917e-05
4.72128e-05
-5.96885e-05
4.46677e-05
-7.37188e-05
4.20787e-05
-8.68446e-05
3.93654e-05
-9.90027e-05
3.64792e-05
-0.000110229
3.36802e-05
-0.000120522
3.0858e-05
-0.000129904
2.81658e-05
-0.00013834
2.53017e-05
-0.000145906
2.27001e-05
-0.000152597
2.00723e-05
-0.000158415
1.74849e-05
-0.00016344
1.50642e-05
-0.000167619
1.25318e-05
-0.000171026
1.0221e-05
-0.000173687
8.01037e-06
-0.000175617
5.79173e-06
-0.000176857
3.69886e-06
-0.000177407
1.63675e-06
-0.000177337
-2.05345e-07
-0.000176567
-2.30952e-06
-0.000175025
-4.60362e-06
-0.000172814
-6.63693e-06
-0.000169965
-8.50679e-06
-0.000166423
-1.06753e-05
-0.000162233
-1.259e-05
-0.000157191
-1.51001e-05
-0.000151477
-1.71461e-05
-0.000145104
-1.91517e-05
-0.000137754
-2.20477e-05
-0.000129522
-2.47335e-05
-0.000120428
-2.72573e-05
-0.000110369
-3.01627e-05
-9.95446e-05
-3.25053e-05
-8.77095e-05
-3.55234e-05
-7.49534e-05
-3.82506e-05
-6.13443e-05
-4.08621e-05
-4.68308e-05
-4.34928e-05
-3.14085e-05
-4.62735e-05
-1.51266e-05
-4.88096e-05
1.8291e-06
-5.07915e-05
1.93897e-05
-5.26262e-05
3.7435e-05
-5.4089e-05
5.57567e-05
-5.49268e-05
7.41544e-05
-5.51625e-05
9.23588e-05
-5.45671e-05
0.000110179
-5.33923e-05
0.000127289
-5.12818e-05
0.000143355
-4.81405e-05
0.000158252
-4.46123e-05
0.000171629
-4.00809e-05
0.000183286
-3.49136e-05
0.000192977
-2.90253e-05
0.000200498
-2.25674e-05
0.000205803
-1.59211e-05
0.000208797
-8.95111e-06
0.00020935
-1.66817e-06
0.000207515
5.43391e-06
0.000203488
1.20785e-05
0.000197298
1.85688e-05
0.000188979
2.4906e-05
0.000178874
3.02759e-05
0.00016708
3.53437e-05
0.000153825
3.97708e-05
0.000139332
4.33914e-05
0.000123868
4.63373e-05
0.000107637
4.86413e-05
9.08622e-05
5.02886e-05
7.37041e-05
5.14448e-05
5.64147e-05
5.18292e-05
3.91326e-05
5.18015e-05
2.20221e-05
5.1313e-05
5.19853e-06
5.04592e-05
-1.1267e-05
4.93169e-05
-2.70979e-05
4.75087e-05
-4.23662e-05
4.58114e-05
-5.692e-05
4.36065e-05
-7.06428e-05
4.11289e-05
-8.35057e-05
3.86025e-05
-9.5553e-05
3.6132e-05
-0.000106683
3.33743e-05
-0.000116799
3.03402e-05
-0.000126111
2.79141e-05
-0.000134406
2.48507e-05
-0.000141798
2.2169e-05
-0.000148277
1.94128e-05
-0.000153793
1.6565e-05
-0.000158534
1.42118e-05
-0.000162355
1.14696e-05
-0.000165355
8.99822e-06
-0.000167511
6.4688e-06
-0.000168886
4.17414e-06
-0.000169429
1.67179e-06
-0.000169092
-9.96401e-07
-0.000167773
-3.94481e-06
-0.000165685
-6.26386e-06
-0.000162773
-8.733e-06
-0.000158918
-1.15706e-05
-0.000154344
-1.36961e-05
-0.000148989
-1.60692e-05
-0.000142744
-1.87263e-05
-0.000135768
-2.09237e-05
-0.000128058
-2.30534e-05
-0.000119569
-2.55205e-05
-0.000110361
-2.76264e-05
-0.000100326
-3.01177e-05
-8.95562e-05
-3.23309e-05
-7.82245e-05
-3.40178e-05
-6.61632e-05
-3.61966e-05
-5.33853e-05
-3.82824e-05
-4.01128e-05
-3.97707e-05
-2.60951e-05
-4.20816e-05
-1.15885e-05
-4.35269e-05
3.55581e-06
-4.54577e-05
1.92823e-05
-4.71496e-05
3.52698e-05
-4.79367e-05
5.16174e-05
-4.90119e-05
6.82465e-05
-4.98483e-05
8.48572e-05
-4.9797e-05
0.000101456
-4.97493e-05
0.000117796
-4.8975e-05
0.00013375
-4.78149e-05
0.000149129
-4.60768e-05
0.000163639
-4.34785e-05
0.000177127
-4.04005e-05
0.000189377
-3.66858e-05
0.000200146
-3.22537e-05
0.000209267
-2.73138e-05
0.00021651
-2.16683e-05
0.000221687
-1.54904e-05
0.000224713
-9.06294e-06
0.000225538
-2.47697e-06
0.000223923
4.75539e-06
0.000219887
1.20903e-05
0.000213385
1.94927e-05
0.000204713
2.59872e-05
0.000193966
3.22041e-05
0.000181196
3.82618e-05
0.000166798
4.31388e-05
0.000150948
4.75219e-05
0.000133978
5.08506e-05
0.000116154
5.3414e-05
9.77108e-05
5.52731e-05
7.89973e-05
5.60848e-05
6.02665e-05
5.61465e-05
4.16327e-05
5.58483e-05
2.35372e-05
5.42628e-05
6.1494e-06
5.21309e-05
-1.05838e-05
5.01645e-05
-2.64787e-05
4.76609e-05
-4.14004e-05
4.47506e-05
-5.52731e-05
4.16125e-05
-6.80978e-05
3.84728e-05
-7.98421e-05
3.52319e-05
-9.05021e-05
3.19827e-05
-0.000100112
2.8836e-05
-0.000108692
2.57458e-05
-0.000116291
2.28076e-05
-0.000122946
1.99748e-05
-0.000128703
1.72795e-05
-0.000133619
1.47501e-05
1.20989e-05
-0.000144092
-3.0271e-05
-0.0001354
-3.47834e-05
-0.000125765
-3.85512e-05
-0.000115168
-4.24048e-05
-0.000103338
-4.73309e-05
-9.05253e-05
-5.12385e-05
-7.64681e-05
-5.61953e-05
-6.151e-05
-5.97917e-05
-4.58876e-05
-6.24516e-05
-2.92072e-05
-6.66598e-05
-1.18055e-05
-6.95322e-05
6.22075e-06
-7.19085e-05
2.48684e-05
-7.44645e-05
4.38831e-05
-7.59339e-05
6.31665e-05
-7.70037e-05
8.25037e-05
-7.72124e-05
0.0001015
-7.58376e-05
0.000120014
-7.39018e-05
0.00013784
-7.11342e-05
0.000154577
-6.6816e-05
0.000170006
-6.15772e-05
0.000183904
-5.54734e-05
0.000195987
-4.82403e-05
0.000206081
-4.02659e-05
0.000214012
-3.16255e-05
0.000219566
-2.21471e-05
0.00022269
-1.24557e-05
0.000223313
-2.56671e-06
0.000221375
7.52851e-06
0.000216976
1.75413e-05
0.000210081
2.75225e-05
0.000200999
3.6235e-05
0.000189798
4.46838e-05
0.000176808
5.17827e-05
0.000162168
5.84464e-05
0.000146094
6.41714e-05
0.000128955
6.84246e-05
0.000110975
7.1795e-05
9.24114e-05
7.41435e-05
7.35638e-05
7.53428e-05
5.45365e-05
7.58893e-05
3.55547e-05
7.57711e-05
1.69614e-05
7.43045e-05
-1.21988e-06
7.26262e-05
-1.88123e-05
7.02841e-05
-3.57135e-05
6.75337e-05
-5.18152e-05
6.43496e-05
-6.70456e-05
6.08748e-05
-8.13863e-05
5.73424e-05
-9.47832e-05
5.35649e-05
-0.000107227
4.97612e-05
-0.00011872
4.59648e-05
-0.000129259
4.21963e-05
-0.000138931
3.87088e-05
-0.000147666
3.49781e-05
-0.000155509
3.1383e-05
-0.000162537
2.81679e-05
-0.000168723
2.47777e-05
-0.00017408
2.147e-05
-0.000178645
1.82618e-05
-0.000182391
1.50589e-05
-0.000185464
1.23141e-05
-0.00018772
9.04757e-06
-0.000189182
5.8005e-06
-0.000189903
2.8426e-06
-0.000189795
-5.22104e-07
-0.000188751
-4.18178e-06
-0.000186945
-7.24166e-06
-0.000184174
-1.10757e-05
-0.000180605
-1.42861e-05
-0.000176192
-1.76658e-05
-0.000170805
-2.15469e-05
-0.000164577
-2.49053e-05
-0.000157504
-2.82943e-05
-0.000149461
-3.21782e-05
-0.000140615
-3.53768e-05
-0.000130805
-3.92413e-05
-0.000120163
-4.2549e-05
-0.000108709
-4.57942e-05
-9.6409e-05
-4.92008e-05
-8.33727e-05
-5.21344e-05
-6.95506e-05
-5.53254e-05
-5.48668e-05
-5.87074e-05
-3.96216e-05
-6.09528e-05
-2.37192e-05
-6.36489e-05
-7.12531e-06
-6.6255e-05
9.86347e-06
-6.77981e-05
2.7326e-05
-6.97546e-05
4.50072e-05
-7.0682e-05
6.28924e-05
-7.13704e-05
8.07999e-05
-7.15267e-05
9.83545e-05
-7.01463e-05
0.000115492
-6.83827e-05
0.000132019
-6.60151e-05
0.000147627
-6.23242e-05
0.000162144
-5.78676e-05
0.000175198
-5.21571e-05
0.000186639
-4.56746e-05
0.000196293
-3.84266e-05
0.000203809
-3.00481e-05
0.000209139
-2.13675e-05
0.000212298
-1.25112e-05
0.000212971
-2.69136e-06
0.000211294
6.66918e-06