/*--------------------------------*- C++ -*----------------------------------*\
| =========                 |                                                 |
| \\      /  F ield         | OpenFOAM: The Open Source CFD Toolbox           |
|  \\    /   O peration     | Version:  3.0.1                                 |
|   \\  /    A nd           | Web:      www.OpenFOAM.org                      |
|    \\/     M anipulation  |                                                 |
\*---------------------------------------------------------------------------*/
FoamFile
{
    version     2.0;
    format      ascii;
    class       surfaceScalarField;
    location    "29.4";
    object      alphaPhi;
}
// * * * * * * * * * * * * * * * * * * * * * * * * * * * * * * * * * * * * * //

dimensions      [0 3 -1 0 0 0 0];

internalField   nonuniform List<scalar> 
44922
(
-6.76473e-05
-7.77403e-06
-5.89017e-05
-8.74556e-06
-4.93453e-05
-9.55644e-06
-3.89172e-05
-1.04281e-05
-2.787e-05
-1.10472e-05
-1.61685e-05
-1.17016e-05
-4.08185e-06
-1.20866e-05
8.56788e-06
-1.26497e-05
2.14034e-05
-1.28355e-05
3.44872e-05
-1.30838e-05
4.75691e-05
-1.30819e-05
6.06548e-05
-1.30858e-05
7.35366e-05
-1.28818e-05
8.61709e-05
-1.26344e-05
9.84743e-05
-1.23034e-05
0.000110274
-1.17998e-05
0.000121544
-1.12698e-05
0.000132184
-1.064e-05
0.000142156
-9.97162e-06
0.000151391
-9.23503e-06
0.000159842
-8.45148e-06
0.000167465
-7.62307e-06
0.000174248
-6.78279e-06
0.00018016
-5.91256e-06
0.00018519
-5.02966e-06
0.000189329
-4.13902e-06
0.00019257
-3.24138e-06
0.000194912
-2.34175e-06
0.000196353
-1.44123e-06
0.000196884
-5.30502e-07
0.000196625
2.59281e-07
0.000195536
1.08906e-06
0.000193607
1.92854e-06
0.000190845
2.762e-06
0.000187216
3.62871e-06
0.000182771
4.44494e-06
0.000177492
5.2797e-06
0.000171417
6.07485e-06
0.000164523
6.89366e-06
0.000156888
7.63535e-06
0.0001485
8.38815e-06
0.000139496
9.00373e-06
0.000129869
9.62639e-06
0.000119707
1.01627e-05
0.000109031
1.06759e-05
9.79967e-05
1.10342e-05
8.66506e-05
1.13461e-05
7.51244e-05
1.15262e-05
6.3498e-05
1.16264e-05
5.18707e-05
1.16273e-05
4.03937e-05
1.1477e-05
2.90488e-05
1.13448e-05
1.8044e-05
1.10049e-05
7.45883e-06
1.05852e-05
-2.68321e-06
1.0142e-05
-1.23254e-05
9.64222e-06
-2.14177e-05
9.0923e-06
-2.99384e-05
8.5207e-06
-3.78667e-05
7.92827e-06
-4.52039e-05
7.33722e-06
-5.19486e-05
6.74468e-06
-5.81163e-05
6.16772e-06
-6.37186e-05
5.6023e-06
-6.87795e-05
5.06086e-06
-7.33114e-05
4.5319e-06
-7.73442e-05
4.03286e-06
-8.0881e-05
3.53678e-06
-8.39483e-05
3.0673e-06
-8.65411e-05
2.59276e-06
-8.86751e-05
2.13405e-06
-9.03446e-05
1.66952e-06
-9.15271e-05
1.18248e-06
-9.22365e-05
7.09366e-07
-9.24469e-05
2.10418e-07
-9.2135e-05
-3.11919e-07
-9.12658e-05
-8.69161e-07
-8.98751e-05
-1.39069e-06
-8.79261e-05
-1.94905e-06
-8.54806e-05
-2.44552e-06
-8.24827e-05
-2.99793e-06
-7.90188e-05
-3.46385e-06
-7.50336e-05
-3.98525e-06
-7.06342e-05
-4.39934e-06
-6.58073e-05
-4.82689e-06
-6.05972e-05
-5.21014e-06
-5.5059e-05
-5.53815e-06
-4.9152e-05
-5.90705e-06
-4.30123e-05
-6.13971e-06
-3.65746e-05
-6.43774e-06
-2.99381e-05
-6.63642e-06
-2.30701e-05
-6.86804e-06
-1.60336e-05
-7.03656e-06
-8.81107e-06
-7.2225e-06
-1.42874e-06
-7.38234e-06
6.10743e-06
-7.53617e-06
1.37808e-05
-7.67342e-06
2.15881e-05
-7.80729e-06
2.9511e-05
-7.92286e-06
3.75534e-05
-8.04248e-06
4.56771e-05
-8.1237e-06
5.38727e-05
-8.19557e-06
6.2134e-05
-8.26132e-06
7.04069e-05
-8.27292e-06
7.8674e-05
-8.26707e-06
8.68787e-05
-8.20474e-06
9.49877e-05
-8.109e-06
0.000102943
-7.95576e-06
0.000110751
-7.8076e-06
0.000118269
-7.51824e-06
0.000125529
-7.25985e-06
0.000132369
-6.83938e-06
0.000138828
-6.45955e-06
0.000144752
-5.92369e-06
0.00015016
-5.4085e-06
0.000154919
-4.75885e-06
0.000159056
-4.13675e-06
0.000162416
-3.35984e-06
0.000165051
-2.63536e-06
0.000166801
-1.74978e-06
0.000167729
-9.28487e-07
0.00016771
1.92425e-08
0.000166787
9.23413e-07
0.00016491
1.8762e-06
0.000162069
2.84114e-06
0.000158265
3.80376e-06
0.000153556
4.70962e-06
0.000147991
5.56443e-06
0.000141596
6.39514e-06
0.000134427
7.16954e-06
0.000126519
7.90815e-06
0.000118006
8.51234e-06
0.00010895
9.05622e-06
9.94859e-05
9.46414e-06
8.96609e-05
9.82496e-06
7.96012e-05
1.00596e-05
6.94047e-05
1.01965e-05
5.91718e-05
1.0233e-05
4.8961e-05
1.02107e-05
3.88958e-05
1.00652e-05
2.90401e-05
9.85571e-06
1.94687e-05
9.57138e-06
1.02189e-05
9.2498e-06
1.39281e-06
8.82608e-06
-6.97504e-06
8.36784e-06
-1.48467e-05
7.87167e-06
-2.22095e-05
7.36279e-06
-2.90191e-05
6.80956e-06
-3.5301e-05
6.28195e-06
-4.10318e-05
5.73076e-06
-4.62331e-05
5.20133e-06
-5.09215e-05
4.68834e-06
-5.51264e-05
4.20494e-06
-5.88907e-05
3.76431e-06
-6.22183e-05
3.32759e-06
-6.51522e-05
2.93389e-06
-6.76942e-05
2.542e-06
-6.98759e-05
2.18166e-06
-7.17148e-05
1.83889e-06
-7.32128e-05
1.49806e-06
-7.43956e-05
1.18279e-06
-7.52596e-05
8.63992e-07
-7.58109e-05
5.51231e-07
-7.60433e-05
2.3247e-07
-7.59593e-05
-8.40327e-08
-7.55743e-05
-3.85001e-07
-7.48578e-05
-7.16503e-07
-7.38207e-05
-1.03707e-06
-7.243e-05
-1.39075e-06
-7.06576e-05
-1.77244e-06
-6.85375e-05
-2.1201e-06
-6.59963e-05
-2.54119e-06
-6.30508e-05
-2.94546e-06
-5.96389e-05
-3.41189e-06
-5.58533e-05
-3.7857e-06
-5.1525e-05
-4.32822e-06
-4.68107e-05
-4.71434e-06
-4.15318e-05
-5.27889e-06
-3.58214e-05
-5.71044e-06
-2.95563e-05
-6.26512e-06
-2.28356e-05
-6.7207e-06
-1.55487e-05
-7.2869e-06
-7.85273e-06
-7.69601e-06
1.42858e-07
-7.99561e-06
8.50376e-06
-8.36092e-06
1.70697e-05
-8.566e-06
2.59156e-05
-8.84589e-06
3.486e-05
-8.94438e-06
4.39325e-05
-9.0725e-06
5.29648e-05
-9.03236e-06
6.19363e-05
-8.97152e-06
7.07387e-05
-8.80241e-06
7.92965e-05
-8.55787e-06
8.75322e-05
-8.2357e-06
9.53661e-05
-7.83393e-06
0.000102732
-7.36578e-06
0.000109572
-6.83993e-06
0.000115816
-6.24382e-06
0.00012144
-5.62453e-06
0.000126388
-4.9477e-06
0.000130623
-4.23574e-06
0.000134132
-3.50887e-06
0.000136817
-2.68485e-06
0.000138725
-1.90802e-06
0.000139757
-1.03159e-06
0.000140012
-2.55154e-07
0.000139423
5.88974e-07
0.000138094
1.32935e-06
0.000135958
2.13558e-06
0.000133166
2.7924e-06
0.000129644
3.52161e-06
0.00012562
4.02389e-06
0.00012105
4.57018e-06
0.000116086
4.96354e-06
0.000110695
5.39125e-06
0.000105157
5.538e-06
9.95092e-05
5.64774e-06
9.38677e-05
5.64149e-06
8.82541e-05
5.61358e-06
8.27227e-05
5.53141e-06
7.78832e-05
4.83949e-06
7.36514e-05
4.23185e-06
6.84257e-05
5.22569e-06
5.79602e-05
1.04654e-05
4.06068e-05
1.73534e-05
1.86769e-05
2.19298e-05
-6.76978e-05
-1.55489e-05
-5.8949e-05
-1.74944e-05
-4.93898e-05
-1.91157e-05
-3.89584e-05
-2.08595e-05
-2.79053e-05
-2.21004e-05
-1.61987e-05
-2.34081e-05
-4.10382e-06
-2.41816e-05
8.54943e-06
-2.5303e-05
2.13942e-05
-2.56803e-05
3.44882e-05
-2.61779e-05
4.75738e-05
-2.61675e-05
6.06641e-05
-2.6176e-05
7.35526e-05
-2.57703e-05
8.61943e-05
-2.52761e-05
9.85081e-05
-2.46173e-05
0.000110318
-2.361e-05
0.000121593
-2.25444e-05
0.000132237
-2.12837e-05
0.000142211
-1.9946e-05
0.000151448
-1.84724e-05
0.000159909
-1.69127e-05
0.000167538
-1.5252e-05
0.000174323
-1.35671e-05
0.000180235
-1.18249e-05
0.000185263
-1.00574e-05
0.000189399
-8.27501e-06
0.000192639
-6.48163e-06
0.00019498
-4.6826e-06
0.000196422
-2.88346e-06
0.000196954
-1.06251e-06
0.000196689
5.24473e-07
0.000195599
2.17854e-06
0.000193671
3.85692e-06
0.000190909
5.52412e-06
0.00018728
7.25741e-06
0.000182835
8.88983e-06
0.000177552
1.0563e-05
0.000171476
1.21502e-05
0.00016458
1.37897e-05
0.000156941
1.5275e-05
0.000148554
1.67748e-05
0.000139544
1.80138e-05
0.000129911
1.92592e-05
0.000119746
2.03277e-05
0.000109066
2.13556e-05
9.80263e-05
2.20741e-05
8.66739e-05
2.26985e-05
7.51421e-05
2.3058e-05
6.35093e-05
2.32591e-05
5.18712e-05
2.32654e-05
4.03806e-05
2.29676e-05
2.90378e-05
2.26876e-05
1.80331e-05
2.20096e-05
7.43656e-06
2.11816e-05
-2.70885e-06
2.02874e-05
-1.23544e-05
1.92878e-05
-2.14498e-05
1.81877e-05
-2.99731e-05
1.7044e-05
-3.79026e-05
1.58578e-05
-4.52401e-05
1.46746e-05
-5.19855e-05
1.34901e-05
-5.81544e-05
1.23367e-05
-6.37581e-05
1.1206e-05
-6.88201e-05
1.01229e-05
-7.33535e-05
9.06522e-06
-7.73867e-05
8.06607e-06
-8.09237e-05
7.07377e-06
-8.39894e-05
6.13309e-06
-8.65824e-05
5.18572e-06
-8.8721e-05
4.2727e-06
-9.03929e-05
3.3414e-06
-9.15756e-05
2.36514e-06
-9.22842e-05
1.41796e-06
-9.24924e-05
4.18608e-07
-9.21805e-05
-6.23772e-07
-9.13112e-05
-1.73848e-06
-8.99224e-05
-2.7795e-06
-8.7977e-05
-3.89447e-06
-8.55268e-05
-4.8957e-06
-8.25272e-05
-5.99752e-06
-7.90625e-05
-6.92851e-06
-7.50735e-05
-7.97434e-06
-7.06742e-05
-8.79864e-06
-6.5844e-05
-9.65703e-06
-6.06308e-05
-1.04234e-05
-5.50839e-05
-1.10851e-05
-4.91817e-05
-1.18093e-05
-4.30377e-05
-1.22837e-05
-3.65997e-05
-1.28758e-05
-2.99598e-05
-1.32763e-05
-2.3092e-05
-1.37358e-05
-1.6052e-05
-1.40766e-05
-8.8298e-06
-1.44448e-05
-1.44625e-06
-1.47659e-05
6.09521e-06
-1.50776e-05
1.37704e-05
-1.53487e-05
2.15803e-05
-1.56171e-05
2.95064e-05
-1.5849e-05
3.75521e-05
-1.60882e-05
4.56778e-05
-1.62494e-05
5.38755e-05
-1.63933e-05
6.2142e-05
-1.65279e-05
7.04172e-05
-1.65481e-05
7.86896e-05
-1.65396e-05
8.68939e-05
-1.6409e-05
9.50105e-05
-1.62257e-05
0.000102973
-1.59179e-05
0.000110787
-1.56219e-05
0.000118309
-1.50407e-05
0.000125573
-1.45232e-05
0.000132416
-1.36826e-05
0.000138883
-1.29269e-05
0.000144808
-1.18484e-05
0.000150223
-1.08236e-05
0.000154984
-9.51981e-06
0.000159129
-8.28159e-06
0.000162493
-6.72365e-06
0.000165136
-5.27855e-06
0.000166891
-3.50501e-06
0.000167827
-1.86407e-06
0.000167802
4.36547e-08
0.000166877
1.84881e-06
0.000165003
3.74947e-06
0.00016216
5.68499e-06
0.000158354
7.60892e-06
0.000153639
9.42453e-06
0.000148075
1.11286e-05
0.000141677
1.27929e-05
0.000134503
1.43437e-05
0.000126587
1.58246e-05
0.000118067
1.70318e-05
0.000109001
1.81223e-05
9.95312e-05
1.89343e-05
8.96949e-05
1.96613e-05
7.96306e-05
2.0124e-05
6.9426e-05
2.04011e-05
5.91841e-05
2.04749e-05
4.89663e-05
2.04285e-05
3.88942e-05
2.01373e-05
2.90321e-05
1.97178e-05
1.94424e-05
1.91611e-05
1.01963e-05
1.84959e-05
1.36587e-06
1.76565e-05
-7.0074e-06
1.67411e-05
-1.48807e-05
1.5745e-05
-2.22469e-05
1.4729e-05
-2.90598e-05
1.36224e-05
-3.53411e-05
1.25633e-05
-4.10695e-05
1.14592e-05
-4.62748e-05
1.04066e-05
-5.09656e-05
9.37921e-06
-5.51722e-05
8.41147e-06
-5.89312e-05
7.5234e-06
-6.22604e-05
6.65671e-06
-6.51913e-05
5.8648e-06
-6.77321e-05
5.08286e-06
-6.99122e-05
4.3617e-06
-7.17502e-05
3.67686e-06
-7.32481e-05
2.99602e-06
-7.44331e-05
2.3678e-06
-7.53e-05
1.73084e-06
-7.58512e-05
1.10248e-06
-7.6085e-05
4.66217e-07
-7.60018e-05
-1.67213e-07
-7.56182e-05
-7.68602e-07
-7.48996e-05
-1.43511e-06
-7.38654e-05
-2.07133e-06
-7.24809e-05
-2.77521e-06
-7.07125e-05
-3.54086e-06
-6.85889e-05
-4.24367e-06
-6.60471e-05
-5.08303e-06
-6.31027e-05
-5.88986e-06
-5.96908e-05
-6.82378e-06
-5.59066e-05
-7.56991e-06
-5.15778e-05
-8.65703e-06
-4.68631e-05
-9.42909e-06
-4.15848e-05
-1.05571e-05
-3.58798e-05
-1.14155e-05
-2.96283e-05
-1.25166e-05
-2.28918e-05
-1.34572e-05
-1.55981e-05
-1.45806e-05
-7.89637e-06
-1.53978e-05
9.70222e-08
-1.5989e-05
8.46202e-06
-1.67259e-05
1.70317e-05
-1.71357e-05
2.58886e-05
-1.77028e-05
3.48381e-05
-1.78939e-05
4.39196e-05
-1.8154e-05
5.29545e-05
-1.80674e-05
6.19336e-05
-1.79506e-05
7.07429e-05
-1.76116e-05
7.93067e-05
-1.71217e-05
8.75482e-05
-1.64773e-05
9.53889e-05
-1.56747e-05
0.000102768
-1.4745e-05
0.000109616
-1.36882e-05
0.000115868
-1.24957e-05
0.0001215
-1.12567e-05
0.00012645
-9.89695e-06
0.000130687
-8.47301e-06
0.000134201
-7.02295e-06
0.000136888
-5.37223e-06
0.000138798
-3.81761e-06
0.000139828
-2.06224e-06
0.000140084
-5.10781e-07
0.000139488
1.18498e-06
0.00013816
2.65685e-06
0.000136024
4.27228e-06
0.000133232
5.58449e-06
0.000129704
7.04937e-06
0.000125678
8.04936e-06
0.000121105
9.14346e-06
0.000116136
9.93225e-06
0.000110745
1.07827e-05
0.000105197
1.10861e-05
9.94962e-05
1.13484e-05
9.38828e-05
1.12549e-05
8.84567e-05
1.10397e-05
8.29425e-05
1.10456e-05
7.76778e-05
1.01042e-05
7.29039e-05
9.00576e-06
6.86719e-05
9.45769e-06
6.15167e-05
1.76206e-05
4.84201e-05
3.04501e-05
3.39566e-05
3.31405e-05
-6.7796e-05
-2.33286e-05
-5.90392e-05
-2.62512e-05
-4.94732e-05
-2.86817e-05
-3.90341e-05
-3.12986e-05
-2.79703e-05
-3.31642e-05
-1.62508e-05
-3.51276e-05
-4.14764e-06
-3.62848e-05
8.53119e-06
-3.79818e-05
2.13922e-05
-3.85413e-05
3.45026e-05
-3.92883e-05
4.76061e-05
-3.9271e-05
6.07138e-05
-3.92837e-05
7.36156e-05
-3.86721e-05
8.62737e-05
-3.79342e-05
9.85988e-05
-3.69424e-05
0.000110416
-3.54276e-05
0.000121702
-3.38297e-05
0.000132352
-3.19342e-05
0.000142334
-2.99274e-05
0.000151574
-2.77131e-05
0.000160034
-2.53728e-05
0.000167663
-2.28802e-05
0.000174448
-2.03522e-05
0.000180361
-1.7738e-05
0.00018539
-1.50864e-05
0.000189525
-1.24105e-05
0.000192766
-9.72193e-06
0.000195107
-7.0239e-06
0.000196547
-4.32382e-06
0.000197077
-1.59206e-06
0.000196794
8.07331e-07
0.000195697
3.27547e-06
0.000193767
5.78674e-06
0.000191004
8.28679e-06
0.000187376
1.08862e-05
0.000182933
1.33324e-05
0.00017764
1.58558e-05
0.000171565
1.82258e-05
0.000164664
2.069e-05
0.000157014
2.29249e-05
0.000148633
2.51566e-05
0.000139611
2.70356e-05
0.000129964
2.89058e-05
0.000119797
3.04952e-05
0.00010911
3.20419e-05
9.80606e-05
3.31239e-05
8.66917e-05
3.40674e-05
7.51519e-05
3.45978e-05
6.35139e-05
3.48971e-05
5.18562e-05
3.49231e-05
4.03443e-05
3.44794e-05
2.90045e-05
3.40275e-05
1.80111e-05
3.3003e-05
7.3845e-06
3.18083e-05
-2.76681e-06
3.04388e-05
-1.24185e-05
2.89395e-05
-2.15178e-05
2.7287e-05
-3.00438e-05
2.557e-05
-3.79754e-05
2.37893e-05
-4.53142e-05
2.20135e-05
-5.20599e-05
2.02358e-05
-5.82287e-05
1.85054e-05
-6.38324e-05
1.68097e-05
-6.8894e-05
1.51845e-05
-7.3427e-05
1.35982e-05
-7.74579e-05
1.2097e-05
-8.09952e-05
1.06111e-05
-8.40637e-05
9.20156e-06
-8.66581e-05
7.78011e-06
-8.8797e-05
6.41168e-06
-9.04702e-05
5.01455e-06
-9.16565e-05
3.55146e-06
-9.2359e-05
2.12041e-06
-9.25555e-05
6.15112e-07
-9.22403e-05
-9.38962e-07
-9.13705e-05
-2.60831e-06
-8.99825e-05
-4.16745e-06
-8.80401e-05
-5.83691e-06
-8.5585e-05
-7.35081e-06
-8.25827e-05
-8.99975e-06
-7.91173e-05
-1.03939e-05
-7.5123e-05
-1.19686e-05
-7.07216e-05
-1.32001e-05
-6.58883e-05
-1.44904e-05
-6.06696e-05
-1.56421e-05
-5.51155e-05
-1.66392e-05
-4.92147e-05
-1.77101e-05
-4.30655e-05
-1.8433e-05
-3.66269e-05
-1.93143e-05
-2.99828e-05
-1.99204e-05
-2.31145e-05
-2.06042e-05
-1.60715e-05
-2.11196e-05
-8.84899e-06
-2.16672e-05
-1.46292e-06
-2.2152e-05
6.08296e-06
-2.26235e-05
1.37597e-05
-2.30254e-05
2.15735e-05
-2.3431e-05
2.9502e-05
-2.37775e-05
3.75527e-05
-2.4139e-05
4.56814e-05
-2.43781e-05
5.38833e-05
-2.45952e-05
6.21555e-05
-2.48e-05
7.04338e-05
-2.48263e-05
7.8716e-05
-2.48218e-05
8.69196e-05
-2.46126e-05
9.50455e-05
-2.43516e-05
0.000103015
-2.38879e-05
0.000110838
-2.34448e-05
0.000118368
-2.25707e-05
0.000125637
-2.17913e-05
0.000132479
-2.0525e-05
0.000138953
-1.94004e-05
0.000144876
-1.77721e-05
0.000150306
-1.62532e-05
0.000155067
-1.42814e-05
0.000159225
-1.24395e-05
0.000162588
-1.00865e-05
0.000165242
-7.93265e-06
0.000166999
-5.26205e-06
0.000167946
-2.81038e-06
0.000167908
8.14976e-08
0.000166977
2.7795e-06
0.000165089
5.63728e-06
0.000162251
8.52297e-06
0.000158458
1.14024e-05
0.00015373
1.41523e-05
0.000148165
1.66939e-05
0.000141763
1.91947e-05
0.000134579
2.1528e-05
0.000126649
2.37542e-05
0.000118119
2.55619e-05
0.00010904
2.72006e-05
9.95456e-05
2.84291e-05
8.97055e-05
2.95014e-05
7.96385e-05
3.01909e-05
6.94244e-05
3.06152e-05
5.91696e-05
3.07297e-05
4.89454e-05
3.06527e-05
3.88631e-05
3.02197e-05
2.89934e-05
2.95875e-05
1.93903e-05
2.87642e-05
1.01415e-05
2.77446e-05
1.30614e-06
2.64918e-05
-7.07234e-06
2.51196e-05
-1.49469e-05
2.36196e-05
-2.23158e-05
2.20978e-05
-2.9129e-05
2.04357e-05
-3.54043e-05
1.88385e-05
-4.11286e-05
1.71835e-05
-4.63338e-05
1.56117e-05
-5.10275e-05
1.40729e-05
-5.52353e-05
1.26193e-05
-5.89852e-05
1.12732e-05
-6.23136e-05
9.98511e-06
-6.52387e-05
8.78993e-06
-6.77764e-05
7.62058e-06
-6.99546e-05
6.53984e-06
-7.17896e-05
5.51191e-06
-7.32861e-05
4.49254e-06
-7.44741e-05
3.5557e-06
-7.53459e-05
2.60268e-06
-7.58987e-05
1.65532e-06
-7.61321e-05
6.99583e-07
-7.60503e-05
-2.49055e-07
-7.56697e-05
-1.14922e-06
-7.4937e-05
-2.16783e-06
-7.39137e-05
-3.09454e-06
-7.25445e-05
-4.14442e-06
-7.0777e-05
-5.30836e-06
-6.86517e-05
-6.36904e-06
-6.61076e-05
-7.6271e-06
-6.31667e-05
-8.83079e-06
-5.97648e-05
-1.02257e-05
-5.5973e-05
-1.13617e-05
-5.16398e-05
-1.29902e-05
-4.69257e-05
-1.41432e-05
-4.16448e-05
-1.5838e-05
-3.59475e-05
-1.71127e-05
-2.97129e-05
-1.87513e-05
-2.29635e-05
-2.02066e-05
-1.56554e-05
-2.18887e-05
-7.94652e-06
-2.31067e-05
4.32921e-08
-2.39788e-05
8.41957e-06
-2.51022e-05
1.69949e-05
-2.5711e-05
2.58663e-05
-2.65742e-05
3.48234e-05
-2.6851e-05
4.39211e-05
-2.72516e-05
5.29613e-05
-2.71076e-05
6.19494e-05
-2.69387e-05
7.07645e-05
-2.64268e-05
7.93354e-05
-2.56926e-05
8.75866e-05
-2.47285e-05
9.54385e-05
-2.35266e-05
0.000102831
-2.21378e-05
0.000109695
-2.05521e-05
0.000115958
-1.87582e-05
0.000121596
-1.68951e-05
0.000126544
-1.48447e-05
0.000130779
-1.27085e-05
0.000134293
-1.05368e-05
0.000136983
-8.06268e-06
0.000138899
-5.733e-06
0.000139918
-3.08157e-06
0.000140167
-7.59414e-07
0.000139551
1.80065e-06
0.000138224
3.98376e-06
0.000136082
6.41425e-06
0.000133289
8.37736e-06
0.000129748
1.05906e-05
0.000125721
1.20769e-05
0.000121134
1.37299e-05
0.000116159
1.49068e-05
0.000110755
1.61874e-05
0.00010522
1.66205e-05
9.95273e-05
1.70414e-05
9.38568e-05
1.69253e-05
8.83462e-05
1.65502e-05
8.30246e-05
1.63671e-05
7.80333e-05
1.50956e-05
7.28039e-05
1.42351e-05
6.8368e-05
1.38936e-05
6.2709e-05
2.32796e-05
5.32596e-05
3.98994e-05
4.4527e-05
4.26892e-05
-6.79435e-05
-3.11152e-05
-5.91748e-05
-3.50199e-05
-4.95986e-05
-3.8258e-05
-3.91479e-05
-4.17493e-05
-2.80687e-05
-4.42434e-05
-1.63303e-05
-4.68661e-05
-4.21186e-06
-4.84032e-05
8.49516e-06
-5.06889e-05
2.13785e-05
-5.14246e-05
3.45116e-05
-5.24215e-05
4.76361e-05
-5.23955e-05
6.07642e-05
-5.24118e-05
7.36853e-05
-5.15932e-05
8.63648e-05
-5.06137e-05
9.87083e-05
-4.9286e-05
0.000110542
-4.72615e-05
0.000121848
-4.51351e-05
0.000132502
-4.25886e-05
0.000142493
-3.9918e-05
0.000151739
-3.69594e-05
0.000160203
-3.38373e-05
0.000167835
-3.05124e-05
0.000174624
-2.71409e-05
0.000180544
-2.36579e-05
0.000185567
-2.01092e-05
0.000189699
-1.65432e-05
0.000192939
-1.29615e-05
0.000195279
-9.3643e-06
0.000196719
-5.76353e-06
0.000197244
-2.11718e-06
0.000196948
1.10324e-06
0.000195845
4.37855e-06
0.000193912
7.72004e-06
0.000191148
1.10502e-05
0.000187519
1.45155e-05
0.000183077
1.77746e-05
0.00017777
2.11621e-05
0.000171697
2.4299e-05
0.000164791
2.75963e-05
0.000157132
3.05841e-05
0.000148749
3.35389e-05
0.000139712
3.60734e-05
0.000130038
3.85799e-05
0.000119871
4.06619e-05
0.000109176
4.27366e-05
9.81109e-05
4.41892e-05
8.67003e-05
4.5478e-05
7.51652e-05
4.6133e-05
6.35e-05
4.65622e-05
5.18347e-05
4.65884e-05
4.0298e-05
4.60161e-05
2.89544e-05
4.53711e-05
1.7986e-05
4.39714e-05
7.30656e-06
4.24877e-05
-2.85287e-06
4.05982e-05
-1.25126e-05
3.85992e-05
-2.16175e-05
3.63919e-05
-3.0147e-05
3.40995e-05
-3.80802e-05
3.17225e-05
-4.54193e-05
2.93526e-05
-5.21644e-05
2.69809e-05
-5.83315e-05
2.46726e-05
-6.39337e-05
2.24118e-05
-6.89936e-05
2.02444e-05
-7.35252e-05
1.81299e-05
-7.75547e-05
1.61264e-05
-8.10915e-05
1.4148e-05
-8.41601e-05
1.22702e-05
-8.6755e-05
1.0375e-05
-8.88958e-05
8.5525e-06
-9.05708e-05
6.68951e-06
-9.17603e-05
4.74093e-06
-9.24589e-05
2.81904e-06
-9.26479e-05
8.0416e-07
-9.23299e-05
-1.25705e-06
-9.14594e-05
-3.47872e-06
-9.00727e-05
-5.55424e-06
-8.81367e-05
-7.77287e-06
-8.56726e-05
-9.81488e-06
-8.2666e-05
-1.20063e-05
-7.91998e-05
-1.38602e-05
-7.51976e-05
-1.59709e-05
-7.07935e-05
-1.76042e-05
-6.5955e-05
-1.93289e-05
-6.07282e-05
-2.08689e-05
-5.51638e-05
-2.22036e-05
-4.92646e-05
-2.36092e-05
-4.31073e-05
-2.45903e-05
-3.66677e-05
-2.57539e-05
-3.00175e-05
-2.65707e-05
-2.31485e-05
-2.74731e-05
-1.60999e-05
-2.81682e-05
-8.87779e-06
-2.88893e-05
-1.4885e-06
-2.95413e-05
6.064e-06
-3.01761e-05
1.37405e-05
-3.07019e-05
2.15607e-05
-3.12513e-05
2.94942e-05
-3.1711e-05
3.75476e-05
-3.21924e-05
4.56803e-05
-3.25108e-05
5.38928e-05
-3.28078e-05
6.21679e-05
-3.30752e-05
7.045e-05
-3.31085e-05
7.87455e-05
-3.31172e-05
8.69554e-05
-3.28225e-05
9.50897e-05
-3.24858e-05
0.00010307
-3.1868e-05
0.000110906
-3.1281e-05
0.000118444
-3.01089e-05
0.000125722
-2.90692e-05
0.000132566
-2.73685e-05
0.000139049
-2.58836e-05
0.000144968
-2.36917e-05
0.000150421
-2.17054e-05
0.000155184
-1.90443e-05
0.000159362
-1.66174e-05
0.000162724
-1.34489e-05
0.000165395
-1.06038e-05
0.000167148
-7.01523e-06
0.000168112
-3.77447e-06
0.000168063
1.30978e-07
0.000167125
3.71767e-06
0.000165225
7.53675e-06
0.000162393
1.1355e-05
0.000158586
1.52091e-05
0.000153863
1.88759e-05
0.000148294
2.22625e-05
0.00014188
2.56084e-05
0.000134683
2.87256e-05
0.000126739
3.16979e-05
0.000118192
3.41087e-05
0.000109099
3.62941e-05
9.95866e-05
3.79414e-05
8.97305e-05
3.93574e-05
7.96518e-05
4.02695e-05
6.94207e-05
4.08464e-05
5.91507e-05
4.09997e-05
4.89146e-05
4.08888e-05
3.88172e-05
4.03171e-05
2.89267e-05
3.94779e-05
1.93263e-05
3.83647e-05
1.00623e-05
3.70086e-05
1.21709e-06
3.53371e-05
-7.1675e-06
3.35042e-05
-1.50545e-05
3.15066e-05
-2.24168e-05
2.94601e-05
-2.92295e-05
2.72484e-05
-3.54975e-05
2.51065e-05
-4.12216e-05
2.29075e-05
-4.64207e-05
2.08108e-05
-5.11151e-05
1.87673e-05
-5.53226e-05
1.68268e-05
-5.90669e-05
1.50176e-05
-6.23918e-05
1.33099e-05
-6.53081e-05
1.17062e-05
-6.78434e-05
1.01559e-05
-7.0018e-05
8.71449e-06
-7.18456e-05
7.33944e-06
-7.33515e-05
5.99844e-06
-7.45356e-05
4.7398e-06
-7.54106e-05
3.47768e-06
-7.59662e-05
2.21095e-06
-7.62e-05
9.33403e-07
-7.61159e-05
-3.33215e-07
-7.57402e-05
-1.52487e-06
-7.50123e-05
-2.89574e-06
-7.39838e-05
-4.1231e-06
-7.26314e-05
-5.49682e-06
-7.0865e-05
-7.07472e-06
-6.87406e-05
-8.49345e-06
-6.61936e-05
-1.01742e-05
-6.3256e-05
-1.17684e-05
-5.98737e-05
-1.3608e-05
-5.60683e-05
-1.5167e-05
-5.17315e-05
-1.73271e-05
-4.70167e-05
-1.8858e-05
-4.17352e-05
-2.11195e-05
-3.60435e-05
-2.28045e-05
-2.98212e-05
-2.49736e-05
-2.30687e-05
-2.69591e-05
-1.57306e-05
-2.92268e-05
-8.03454e-06
-3.08027e-05
-4.06783e-08
-3.19727e-05
8.34898e-06
-3.34919e-05
1.69398e-05
-3.43018e-05
2.58385e-05
-3.54729e-05
3.48041e-05
-3.58167e-05
4.39236e-05
-3.63711e-05
5.29721e-05
-3.61562e-05
6.1975e-05
-3.59417e-05
7.08018e-05
-3.52535e-05
7.93814e-05
-3.42722e-05
8.76485e-05
-3.29956e-05
9.55157e-05
-3.13938e-05
0.000102922
-2.95445e-05
0.0001098
-2.74299e-05
0.000116079
-2.5037e-05
0.00012173
-2.25457e-05
0.000126669
-1.97844e-05
0.000130901
-1.69405e-05
0.000134427
-1.40623e-05
0.00013712
-1.07562e-05
0.000139042
-7.65482e-06
0.00014005
-4.09006e-06
0.000140294
-1.00327e-06
0.000139655
2.44002e-06
0.000138316
5.32299e-06
0.000136171
8.55863e-06
0.000133384
1.11651e-05
0.000129824
1.41505e-05
0.000125785
1.61159e-05
0.000121177
1.83377e-05
0.000116194
1.98895e-05
0.000110779
2.16027e-05
0.000105235
2.21638e-05
9.95206e-05
2.27562e-05
9.38822e-05
2.25637e-05
8.82892e-05
2.21432e-05
8.28578e-05
2.17985e-05
7.80445e-05
1.99088e-05
7.30938e-05
1.91858e-05
6.83101e-05
1.86773e-05
6.39898e-05
2.75998e-05
5.73633e-05
4.65259e-05
5.46791e-05
4.72112e-05
-6.81404e-05
-3.89113e-05
-5.93562e-05
-4.38041e-05
-4.97663e-05
-4.7848e-05
-3.93002e-05
-5.22154e-05
-2.82017e-05
-5.53419e-05
-1.64377e-05
-5.86301e-05
-4.29346e-06
-6.05475e-05
8.43673e-06
-6.34191e-05
2.13431e-05
-6.4331e-05
3.45019e-05
-6.55804e-05
4.76511e-05
-6.55447e-05
6.08047e-05
-6.55654e-05
7.37501e-05
-6.45386e-05
8.64532e-05
-6.33168e-05
9.88192e-05
-6.1652e-05
0.000110672
-5.91147e-05
0.000121997
-5.64601e-05
0.000132663
-5.3254e-05
0.000142668
-4.99231e-05
0.000151923
-4.62146e-05
0.000160394
-4.23081e-05
0.000168033
-3.81512e-05
0.000174831
-3.39395e-05
0.00018075
-2.95764e-05
0.000185772
-2.51315e-05
0.000189904
-2.06755e-05
0.000193144
-1.62009e-05
0.000195484
-1.17044e-05
0.000196924
-7.20407e-06
0.000197447
-2.63947e-06
0.000197154
1.39557e-06
0.000196041
5.49192e-06
0.000194105
9.65625e-06
0.000191341
1.38141e-05
0.00018771
1.8146e-05
0.000183266
2.22184e-05
0.000177952
2.64763e-05
0.000171873
3.03779e-05
0.00016496
3.45098e-05
0.000157294
3.82504e-05
0.000148903
4.19291e-05
0.000139847
4.51298e-05
0.000130158
4.82689e-05
0.000119965
5.08552e-05
0.000109264
5.34375e-05
9.8179e-05
5.52738e-05
8.67426e-05
5.69144e-05
7.5185e-05
5.76906e-05
6.34783e-05
5.82689e-05
5.18097e-05
5.8257e-05
4.02439e-05
5.75819e-05
2.88864e-05
5.67286e-05
1.79006e-05
5.49572e-05
7.20261e-06
5.31856e-05
-2.96654e-06
5.07673e-05
-1.26365e-05
4.82692e-05
-2.17481e-05
4.55036e-05
-3.02815e-05
4.26329e-05
-3.82159e-05
3.96569e-05
-4.55542e-05
3.66909e-05
-5.2297e-05
3.37237e-05
-5.84608e-05
3.08364e-05
-6.40588e-05
2.80098e-05
-6.9115e-05
2.53006e-05
-7.36426e-05
2.26575e-05
-7.76691e-05
2.01529e-05
-8.12032e-05
1.76821e-05
-8.427e-05
1.5337e-05
-8.68645e-05
1.29695e-05
-8.90059e-05
1.06939e-05
-9.06823e-05
8.36583e-06
-9.18728e-05
5.93151e-06
-9.25741e-05
3.52032e-06
-9.27648e-05
9.94806e-07
-9.24487e-05
-1.57313e-06
-9.15778e-05
-4.34958e-06
-9.0192e-05
-6.94003e-06
-8.82549e-05
-9.71004e-06
-8.57892e-05
-1.22806e-05
-8.27765e-05
-1.50191e-05
-7.93098e-05
-1.73268e-05
-7.52967e-05
-1.9984e-05
-7.08901e-05
-2.20108e-05
-6.60441e-05
-2.41748e-05
-6.08065e-05
-2.61065e-05
-5.52292e-05
-2.7781e-05
-4.93317e-05
-2.95068e-05
-4.31628e-05
-3.07592e-05
-3.67219e-05
-3.21948e-05
-3.00633e-05
-3.32294e-05
-2.31929e-05
-3.43435e-05
-1.61371e-05
-3.5224e-05
-8.91548e-06
-3.6111e-05
-1.522e-06
-3.69348e-05
6.03696e-06
-3.7735e-05
1.37135e-05
-3.83784e-05
2.1541e-05
-3.90788e-05
2.94786e-05
-3.96486e-05
3.75353e-05
-4.02491e-05
4.56726e-05
-4.0648e-05
5.38983e-05
-4.10335e-05
6.21711e-05
-4.1348e-05
7.04661e-05
-4.14035e-05
7.87717e-05
-4.14228e-05
8.69961e-05
-4.10469e-05
9.51373e-05
-4.0627e-05
0.00010314
-3.9871e-05
0.000110975
-3.91158e-05
0.000118525
-3.76593e-05
0.000125812
-3.63557e-05
0.000132667
-3.4223e-05
0.000139165
-3.23822e-05
0.000145092
-2.96185e-05
0.000150562
-2.71752e-05
0.00015533
-2.38126e-05
0.000159525
-2.08127e-05
0.000162894
-1.68176e-05
0.000165585
-1.32945e-05
0.000167335
-8.7661e-06
0.00016832
-4.75858e-06
0.000168266
1.84331e-07
0.000167314
4.66944e-06
0.000165423
9.42794e-06
0.000162594
1.41839e-05
0.000158767
1.90362e-05
0.000154048
2.35946e-05
0.00014847
2.78408e-05
0.000142033
3.2045e-05
0.000134824
3.59345e-05
0.000126866
3.96566e-05
0.000118299
4.26751e-05
0.000109181
4.54123e-05
9.9649e-05
4.74734e-05
8.9771e-05
4.92354e-05
7.96732e-05
5.03673e-05
6.94199e-05
5.10997e-05
5.9131e-05
5.12885e-05
4.8876e-05
5.11438e-05
3.87585e-05
5.04346e-05
2.88466e-05
4.93898e-05
1.92289e-05
4.79824e-05
9.97022e-06
4.62672e-05
1.10083e-06
4.42065e-05
-7.29332e-06
4.18983e-05
-1.51913e-05
3.94045e-05
-2.255e-05
3.68188e-05
-2.93657e-05
3.40641e-05
-3.56245e-05
3.13653e-05
-4.13478e-05
2.86308e-05
-4.65434e-05
2.60064e-05
-5.12312e-05
2.34551e-05
-5.54387e-05
2.10343e-05
-5.91817e-05
1.87606e-05
-6.24948e-05
1.6623e-05
-6.53983e-05
1.46097e-05
-6.79367e-05
1.26943e-05
-7.01048e-05
1.08826e-05
-7.19297e-05
9.16431e-06
-7.34396e-05
7.50837e-06
-7.46186e-05
5.91879e-06
-7.54889e-05
4.34797e-06
-7.60344e-05
2.75646e-06
-7.62954e-05
1.1944e-06
-7.61942e-05
-4.34508e-07
-7.58125e-05
-1.90656e-06
-7.51126e-05
-3.59558e-06
-7.40804e-05
-5.15538e-06
-7.27341e-05
-6.8431e-06
-7.09709e-05
-8.83791e-06
-6.88511e-05
-1.06132e-05
-6.62949e-05
-1.27305e-05
-6.3366e-05
-1.46972e-05
-5.99925e-05
-1.69815e-05
-5.61816e-05
-1.8978e-05
-5.18568e-05
-2.16519e-05
-4.71119e-05
-2.3603e-05
-4.1856e-05
-2.63754e-05
-3.61683e-05
-2.84921e-05
-2.99515e-05
-3.11904e-05
-2.31994e-05
-3.37112e-05
-1.58252e-05
-3.6601e-05
-8.15629e-06
-3.84716e-05
-1.47276e-07
-3.99817e-05
8.26521e-06
-4.19044e-05
1.68726e-05
-4.29092e-05
2.5798e-05
-4.43984e-05
3.47686e-05
-4.47872e-05
4.39121e-05
-4.55146e-05
5.29767e-05
-4.52208e-05
6.2007e-05
-4.49719e-05
7.08451e-05
-4.40917e-05
7.94358e-05
-4.28629e-05
8.77301e-05
-4.129e-05
9.56062e-05
-3.927e-05
0.000103033
-3.69709e-05
0.00010992
-3.43176e-05
0.000116216
-3.13329e-05
0.000121891
-2.82205e-05
0.000126813
-2.47064e-05
0.000131053
-2.11809e-05
0.000134597
-1.76066e-05
0.00013729
-1.34487e-05
0.000139213
-9.57832e-06
0.000140218
-5.09507e-06
0.000140465
-1.25047e-06
0.000139815
3.09005e-06
0.000138457
6.68104e-06
0.0001363
1.07158e-05
0.000133515
1.395e-05
0.000129949
1.77168e-05
0.000125893
2.01713e-05
0.000121245
2.29858e-05
0.00011625
2.4885e-05
0.000110832
2.70203e-05
0.000105269
2.77272e-05
9.94811e-05
2.85437e-05
9.37957e-05
2.82491e-05
8.82217e-05
2.77173e-05
8.28366e-05
2.71836e-05
7.7975e-05
2.47704e-05
7.33151e-05
2.38458e-05
6.883e-05
2.31623e-05
6.47559e-05
3.16739e-05
5.91234e-05
5.21584e-05
6.31396e-05
5.06629e-05
-6.83869e-05
-4.6719e-05
-5.95838e-05
-5.26072e-05
-4.99765e-05
-5.74552e-05
-3.94914e-05
-6.27005e-05
-2.8372e-05
-6.64613e-05
-1.65726e-05
-7.04294e-05
-4.38657e-06
-7.27335e-05
8.35898e-06
-7.61646e-05
2.12923e-05
-7.72643e-05
3.44779e-05
-7.8766e-05
4.76625e-05
-7.87293e-05
6.08457e-05
-7.87486e-05
7.38206e-05
-7.75135e-05
8.65516e-05
-7.60478e-05
9.89443e-05
-7.40448e-05
0.00011082
-7.09905e-05
0.000122161
-6.7801e-05
0.000132854
-6.3947e-05
0.000142872
-5.99413e-05
0.000152139
-5.5482e-05
0.000160619
-5.07873e-05
0.000168265
-4.57976e-05
0.000175068
-4.07425e-05
0.000180987
-3.54956e-05
0.000186017
-3.01611e-05
0.000190151
-2.481e-05
0.00019339
-1.94395e-05
0.00019573
-1.40442e-05
0.000197172
-8.64673e-06
0.00019769
-3.15751e-06
0.000197399
1.68717e-06
0.000196278
6.61289e-06
0.000194345
1.15885e-05
0.000191583
1.6577e-05
0.000187949
2.17793e-05
0.000183502
2.66651e-05
0.000178181
3.17979e-05
0.000172092
3.64663e-05
0.000165171
4.14314e-05
0.000157495
4.59257e-05
0.000149094
5.03303e-05
0.000140016
5.42075e-05
0.000130307
5.79779e-05
0.000120071
6.10912e-05
0.000109372
6.41374e-05
9.8265e-05
6.63803e-05
8.68254e-05
6.83541e-05
7.5213e-05
6.93029e-05
6.3473e-05
7.00089e-05
5.17888e-05
6.99412e-05
4.0182e-05
6.91888e-05
2.88025e-05
6.81081e-05
1.7798e-05
6.59617e-05
7.0734e-06
6.39102e-05
-3.10822e-06
6.0949e-05
-1.27909e-05
5.79519e-05
-2.19108e-05
5.46235e-05