/*--------------------------------*- C++ -*----------------------------------*\
| =========                 |                                                 |
| \\      /  F ield         | OpenFOAM: The Open Source CFD Toolbox           |
|  \\    /   O peration     | Version:  3.0.1                                 |
|   \\  /    A nd           | Web:      www.OpenFOAM.org                      |
|    \\/     M anipulation  |                                                 |
\*---------------------------------------------------------------------------*/
FoamFile
{
    version     2.0;
    format      ascii;
    class       volScalarField;
    location    "68";
    object      p_rgh;
}
// * * * * * * * * * * * * * * * * * * * * * * * * * * * * * * * * * * * * * //

dimensions      [1 -1 -2 0 0 0 0];

internalField   nonuniform List<scalar> 
21420
(
-199.054
-216.683
-232.714
-247.132
-259.939
-271.182
-280.901
-289.146
-295.958
-301.378
-305.437
-308.163
-309.578
-309.659
-308.412
-305.884
-302.019
-296.804
-290.209
-282.194
-272.717
-261.731
-249.185
-235.029
-219.221
-201.722
-182.506
-161.549
-138.855
-114.462
-88.4106
-60.7843
-31.7168
-1.34888
30.1079
62.4188
95.3416
128.553
161.721
194.53
226.598
257.564
287.041
314.655
340.08
362.993
383.088
400.116
413.86
424.13
430.802
433.801
433.024
428.581
420.481
408.798
393.748
375.52
354.372
330.572
304.432
276.273
246.441
215.31
183.241
150.586
117.695
84.8974
52.4959
20.8332
-9.50498
-39.0315
-67.35
-94.2667
-119.653
-143.41
-165.461
-185.766
-204.293
-221.037
-235.995
-249.171
-260.587
-270.266
-278.231
-284.516
-289.159
-292.201
-293.657
-293.554
-292.002
-289.005
-284.606
-278.841
-271.736
-263.307
-253.555
-242.473
-230.044
-216.239
-201.022
-184.361
-166.234
-146.619
-125.511
-102.919
-78.8713
-53.4202
-26.6387
1.37179
30.5134
60.5761
91.372
122.687
154.27
185.842
217.094
247.696
277.296
305.526
332.011
356.376
378.253
397.289
413.162
425.587
434.329
439.207
440.01
436.87
429.683
418.521
403.542
384.954
363.023
338.059
310.421
280.501
248.719
215.509
181.313
146.57
111.705
77.1231
43.2015
10.2713
-21.3795
-51.511
-79.937
-106.52
-131.172
-153.846
-174.535
-193.254
-210.045
-224.958
-238.058
-249.418
-259.109
-267.202
-273.767
-278.87
-282.567
-284.916
-285.941
-285.658
-284.109
-281.301
-277.223
-271.862
-265.205
-257.223
-247.889
-237.171
-225.025
-211.413
-196.301
-179.653
-161.437
-141.635
-120.244
-97.2729
-72.7482
-46.7282
-19.2998
9.41309
39.2314
70.302
101.77
133.688
165.721
197.522
228.719
258.923
287.73
314.725
339.49
361.612
380.701
396.394
408.377
416.398
420.262
419.828
415.154
406.293
393.315
376.469
356.031
332.34
305.784
276.793
245.819
213.335
179.815
145.724
111.502
77.5532
44.2419
11.879
-19.2691
-48.9879
-77.1086
-103.508
-128.105
-150.855
-171.742
-190.769
-207.958
-223.343
-236.973
-248.897
-259.169
-267.851
-275.006
-280.694
-284.97
-287.905
-289.517
-289.831
-288.937
-286.816
-283.486
-278.949
-273.198
-266.216
-257.976
-248.443
-237.577
-225.329
-211.656
-196.522
-179.895
-161.756
-142.101
-120.937
-98.2872
-74.1926
-48.7209
-21.9632
5.95632
34.8621
64.4724
95.9917
126.593
157.383
187.923
217.81
246.637
273.996
299.46
322.616
343.072
360.448
374.409
384.68
391.025
393.269
391.291
385.214
374.976
360.759
342.804
321.409
296.955
269.829
240.466
209.351
176.934
143.672
110.01
76.3395
43.067
17.376
-13.3071
-42.6713
-70.4696
-96.5511
-120.838
-143.287
-163.887
-182.667
-199.671
-214.971
-228.655
-240.817
-251.558
-260.973
-269.152
-276.167
-282.077
-286.918
-290.705
-293.428
-295.055
-295.511
-294.743
-292.679
-289.2
-284.227
-277.653
-269.389
-259.36
-247.492
-233.744
-218.084
-200.508
-181.049
-159.766
-136.738
-112.081
-85.957
-58.5339
-30.0057
-0.639918
29.6612
60.0144
90.3599
120.437
149.917
178.491
205.871
231.733
255.795
277.758
297.356
314.362
328.556
339.752
347.817
352.655
354.17
352.389
347.22
338.717
327.08
312.497
-199.13
-216.757
-232.785
-247.201
-260.005
-271.245
-280.961
-289.204
-296.014
-301.432
-305.49
-308.215
-309.629
-309.709
-308.466
-305.938
-302.072
-296.859
-290.266
-282.253
-272.778
-261.795
-249.251
-235.098
-219.293
-201.796
-182.582
-161.627
-138.934
-114.54
-88.4876
-60.8588
-31.7873
-1.4138
30.0502
62.3702
95.3036
128.527
161.709
194.531
226.615
257.598
287.091
314.721
340.162
363.089
383.198
400.238
413.991
424.269
430.946
433.951
433.17
428.718
420.614
408.926
393.865
375.624
354.462
330.648
304.492
276.317
246.469
215.322
183.238
150.569
117.665
84.8565
52.4457
20.7739
-9.57149
-39.1033
-67.4255
-94.3456
-119.734
-143.492
-165.544
-185.849
-204.375
-221.117
-236.075
-249.249
-260.664
-270.341
-278.305
-284.589
-289.231
-292.271
-293.723
-293.621
-292.068
-289.069
-284.669
-278.904
-271.799
-263.371
-253.62
-242.539
-230.112
-216.309
-201.094
-184.435
-166.31
-146.697
-125.589
-102.998
-78.9496
-53.497
-26.713
1.30126
30.447
60.5162
91.32
122.644
154.237
185.822
217.088
247.704
277.32
305.566
332.068
356.451
378.344
397.396
413.282
425.719
434.469
439.353
440.168
437.013
429.825
418.656
403.666
385.065
363.118
338.136
310.479
280.54
248.738
215.509
181.295
146.535
111.655
77.0593
43.1264
10.1869
-21.4711
-51.6075
-80.0364
-106.621
-131.272
-153.945
-174.631
-193.347
-210.134
-225.044
-238.141
-249.496
-259.185
-267.274
-273.836
-278.937
-282.632
-284.979
-286.002
-285.717
-284.17
-281.361
-277.284
-271.924
-265.268
-257.288
-247.956
-237.239
-225.095
-211.486
-196.377
-179.73
-161.516
-141.716
-120.326
-97.3551
-72.8298
-46.8081
-19.3764
9.34194
39.1726
70.2363
101.72
133.65
165.697
197.514
228.727
258.949
287.774
314.788
339.571
361.712
380.818
396.526
408.521
416.552
420.427
419.985
415.308
406.441
393.453
376.593
356.138
332.428
305.853
276.84
245.846
213.341
179.802
145.694
111.456
77.4946
44.1725
11.8009
-19.3538
-49.077
-77.2003
-103.601
-128.197
-150.947
-171.832
-190.856
-208.042
-223.425
-237.052
-248.973
-259.242
-267.921
-275.073
-280.759
-285.033
-287.966
-289.574
-289.889
-288.994
-286.873
-283.542
-279.007
-273.256
-266.275
-258.037
-248.506
-237.642
-225.397
-211.726
-196.594
-179.968
-161.831
-142.177
-121.013
-98.3625
-74.267
-48.7931
-22.0317
5.89344
34.8094
64.4446
95.9278
126.558
157.366
187.922
217.826
246.672
274.048
299.532
322.707
343.179
360.572
374.546
384.829
391.182
393.432
391.459
385.371
375.128
360.901
342.933
321.521
297.049
269.902
240.518
209.383
176.946
143.666
109.988
76.3031
43.0147
17.3091
-13.386
-42.7546
-70.5548
-96.6368
-120.923
-143.37
-163.968
-182.744
-199.744
-215.039
-228.718
-240.876
-251.612
-261.024
-269.199
-276.212
-282.12
-286.96
-290.747
-293.471
-295.1
-295.558
-294.795
-292.735
-289.259
-284.29
-277.72
-269.46
-259.434
-247.57
-233.824
-218.165
-200.59
-181.13
-159.845
-136.815
-112.153
-86.0243
-58.5947
-30.0585
-0.683346
29.6259
59.9901
90.3473
120.437
149.93
178.518
205.912
231.788
255.863
277.839
297.449
314.465
328.67
339.873
347.944
352.786
354.307
352.514
347.343
338.837
327.194
312.601
-199.282
-216.904
-232.927
-247.337
-260.136
-271.37
-281.082
-289.32
-296.126
-301.541
-305.596
-308.319
-309.731
-309.808
-308.573
-306.044
-302.179
-296.968
-290.379
-282.37
-272.9
-261.922
-249.384
-235.236
-219.437
-201.945
-182.735
-161.782
-139.091
-114.696
-88.6414
-61.0075
-31.9282
-1.5434
29.9351
62.2731
95.2278
128.475
161.684
194.536
226.65
257.665
287.191
314.854
340.326
363.283
383.418
400.482
414.254
424.547
431.234
434.244
433.468
428.995
420.882
409.181
394.1
375.834
354.644
330.8
304.612
276.405
246.525
215.347
183.233
150.536
117.607
84.7763
52.3473
20.6581
-9.702
-39.2434
-67.5727
-94.4988
-119.891
-143.651
-165.702
-186.006
-204.53
-221.27
-236.224
-249.395
-260.806
-270.48
-278.44
-284.721
-289.36
-292.396
-293.838
-293.739
-292.181
-289.18
-284.778
-279.011
-271.906
-263.478
-253.729
-242.651
-230.228
-216.428
-201.217
-184.563
-166.442
-146.832
-125.726
-103.135
-79.0864
-53.6311
-26.8422
1.17958
30.3336
60.4156
91.2349
122.577
154.191
185.799
217.092
247.738
277.385
305.664
332.2
356.617
378.543
397.626
413.54
426
434.768
439.662
440.498
437.318
430.127
418.943
403.931
385.303
363.324
338.307
310.612
280.634
248.794
215.527
181.277
146.483
111.572
76.9501
42.9946
10.0368
-21.6352
-51.7813
-80.2158
-106.802
-131.452
-154.122
-174.803
-193.513
-210.293
-225.196
-238.285
-249.633
-259.314
-267.397
-273.953
-279.049
-282.74
-285.084
-286.103
-285.816
-284.271
-281.462
-277.386
-272.028
-265.374
-257.397
-248.069
-237.357
-225.217
-211.612
-196.508
-179.866
-161.656
-141.859
-120.471
-97.5007
-72.9744
-46.9494
-19.5116
9.21737
39.0712
70.1238
101.638
133.594
165.668
197.514
228.76
259.016
287.878
314.929
339.751
361.928
381.068
396.806
408.826
416.874
420.765
420.32
415.633
406.752
393.743
376.855
356.366
332.619
306.003
276.949
245.913
213.368
179.791
145.648
111.38
77.3919
44.0482
11.6594
-19.5082
-49.2404
-77.3686
-103.771
-128.367
-151.114
-171.995
-191.015
-208.195
-223.573
-237.193
-249.108
-259.371
-268.044
-275.19
-280.871
-285.142
-288.07
-289.671
-289.989
-289.09
-286.968
-283.638
-279.104
-273.355
-266.377
-258.142
-248.616
-237.756
-225.515
-211.849
-196.721
-180.099
-161.964
-142.312
-121.149
-98.4974
-74.4
-48.9219
-22.1536
5.78244
34.7179
64.4039
95.8128
126.501
157.344
187.932
217.87
246.751
274.164
299.685
322.896
343.403
360.826
374.828
385.133
391.502
393.761
391.8
385.689
375.435
361.189
343.194
321.749
297.239
270.051
240.625
209.448
176.971
143.654
109.944
76.2312
42.9113
17.1753
-13.5436
-42.9209
-70.7249
-96.8078
-121.093
-143.536
-164.129
-182.898
-199.889
-215.175
-228.845
-240.993
-251.72
-261.124
-269.293
-276.301
-282.206
-287.044
-290.831
-293.557
-295.19
-295.651
-294.9
-292.845
-289.377
-284.416
-277.854
-269.602
-259.583
-247.724
-233.982
-218.327
-200.752
-181.291
-160.004
-136.968
-112.298
-86.1589
-58.7164
-30.1641
-0.770299
29.5552
59.9413
90.3221
120.437
149.957
178.572
205.994
231.898
255.999
278.001
297.636
314.673
328.896
340.115
348.197
353.046
354.581
352.766
347.591
339.077
327.421
312.811
-199.51
-217.125
-233.14
-247.542
-260.332
-271.559
-281.262
-289.493
-296.294
-301.703
-305.755
-308.475
-309.884
-309.96
-308.732
-306.202
-302.339
-297.133
-290.548
-282.546
-273.083
-262.113
-249.583
-235.443
-219.652
-202.167
-182.964
-162.016
-139.326
-114.931
-88.8723
-61.2308
-32.1396
-1.73804
29.7622
62.1272
95.114
128.397
161.646
194.542
226.703
257.766
287.342
315.053
340.572
363.574
383.749
400.847
414.649
424.964
431.665
434.679
433.917
429.416
421.285
409.564
394.452
376.149
354.917
331.028
304.793
276.538
246.609
215.384
183.226
150.487
117.52
84.6557
52.1994
20.4842
-9.89802
-39.4535
-67.7938
-94.7288
-120.126
-143.888
-165.94
-186.242
-204.763
-221.498
-236.447
-249.613
-261.019
-270.687
-278.642
-284.918
-289.552
-292.581
-294.013
-293.915
-292.352
-289.346
-284.94
-279.171
-272.066
-263.638
-253.892
-242.818
-230.4
-216.606
-201.401
-184.754
-166.638
-147.032
-125.93
-103.34
-79.29
-53.8306
-27.0342
0.999064
30.1653
60.2667
91.1092
122.478
154.124
185.768
217.101
247.791
277.485
305.814
332.401
356.869
378.845
397.975
413.931
426.426
435.22
440.129
440.99
437.785
430.585
419.377
404.333
385.664
363.636
338.566
310.815
280.779
248.881
215.557
181.253
146.408
111.452
76.789
42.7995
9.81395
-21.879
-52.0398
-80.4827
-107.072
-131.72
-154.386
-175.059
-193.76
-210.53
-225.421
-238.499
-249.836
-259.507
-267.58
-274.127
-279.216
-282.901
-285.239
-286.251
-285.966
-284.419
-281.612
-277.537
-272.182
-265.532
-257.56
-248.238
-237.53
-225.397
-211.8
-196.703
-180.068
-161.864
-142.072
-120.688
-97.7174
-73.1898
-47.1598
-19.7129
9.03157
38.9163
69.9612
101.517
133.51
165.625
197.516
228.811
259.12
288.036
315.144
340.022
362.255
381.446
397.229
409.286
417.36
421.265
420.831
416.126
407.222
394.182
377.251
356.712
332.908
306.232
277.115
246.016
213.41
179.776
145.581
111.266
77.2397
43.8635
11.4491
-19.738
-49.4835
-77.6194
-104.025
-128.621
-151.364
-172.239
-191.25
-208.423
-223.792
-237.404
-249.309
-259.563
-268.227
-275.364
-281.038
-285.302
-288.224
-289.817
-290.136
-289.233
-287.11
-283.781
-279.248
-273.502
-266.528
-258.298
-248.778
-237.925
-225.69
-212.032
-196.91
-180.293
-162.162
-142.513
-121.351
-98.6984
-74.5983
-49.1138
-22.3353
5.61688
34.5805
64.3461
95.639
126.419
157.312
187.948
217.937
246.871
274.339
299.915
323.18
343.738
361.209
375.252
385.589
391.983
394.256
392.308
386.17
375.898
361.622
343.585
322.09
297.523
270.275
240.786
209.545
177.008
143.637
109.879
76.1236
42.7576
16.9726
-13.7809
-43.1707
-70.9803
-97.0651
-121.348
-143.786
-164.37
-183.128
-200.107
-215.38
-229.035
-241.169
-251.883
-261.275
-269.433
-276.434
-282.334
-287.17
-290.957
-293.686
-295.324
-295.793
-295.057
-293.01
-289.554
-284.606
-278.055
-269.815
-259.806
-247.956
-234.22
-218.569
-200.996
-181.534
-160.242
-137.197
-112.515
-86.3608
-58.8991
-30.3227
-0.901072
29.449
59.8682
90.2843
120.437
149.997
178.654
206.117
232.062
256.203
278.244
297.915
314.985
329.236
340.478
348.577
353.437
354.988
353.146
347.965
339.437
327.762
313.126
-199.814
-217.42
-233.424
-247.815
-260.594
-271.81
-281.503
-289.725
-296.518
-301.92
-305.966
-308.682
-310.087
-310.163
-308.944
-306.412
-302.552
-297.351
-290.774
-282.781
-273.327
-262.367
-249.848
-235.719
-219.939
-202.464
-183.269
-162.327
-139.64
-115.244
-89.1804
-61.5289
-32.422
-1.99796
29.5313
61.9323
94.9618
128.294
161.596
194.549
226.773
257.901
287.543
315.319
340.901
363.961
384.19
401.335
415.176
425.52
432.241
435.26
434.508
429.983
421.825
410.075
394.921
376.568
355.281
331.332
305.033
276.715
246.721
215.433
183.215
150.421
117.403
84.4944
52.0018
20.2522
-10.1597
-39.7337
-68.089
-95.0358
-120.44
-144.205
-166.257
-186.556
-205.073
-221.803
-236.745
-249.905
-261.303
-270.964
-278.911
-285.181
-289.807
-292.825
-294.25
-294.15
-292.578
-289.567
-285.157
-279.385
-272.278
-263.852
-254.108
-243.04
-230.629
-216.843
-201.646
-185.008
-166.9
-147.3
-126.202
-103.613
-79.5611
-54.0963
-27.2901
0.758349
29.941
60.0686
90.9418
122.347
154.035
185.727
217.114
247.862
277.619
306.014
332.67
357.206
379.248
398.44
414.452
426.994
435.823
440.753
441.635
438.417
431.197
419.958
404.87
386.146
364.054
338.913
311.086
280.973
248.997
215.597
181.221
146.309
111.291
76.5742
42.5394
9.51686
-22.2041
-52.3844
-80.8384
-107.432
-132.078
-154.737
-175.4
-194.089
-210.844
-225.721
-238.784
-250.107
-259.763
-267.823
-274.359
-279.437
-283.115
-285.445
-286.45
-286.165
-284.617
-281.811
-277.738
-272.387
-265.743
-257.777
-248.461
-237.762
-225.638
-212.051
-196.963
-180.337
-162.14
-142.356
-120.975
-98.0064
-73.4769
-47.4403
-19.9813
8.7831
38.7031
69.7503
101.356
133.399
165.568
197.519
228.879
259.258
288.248
315.431
340.385
362.691
381.951
397.794
409.9
418.009
421.93
421.513
416.788
407.851
394.768
377.78
357.174
333.294
306.537
277.337
246.154
213.467
179.756
145.491
111.116
77.0367
43.6172
11.1684
-20.0446
-49.8078
-77.954
-104.363
-128.958
-151.696
-172.563
-191.565
-208.727
-224.084
-237.684
-249.577
-259.819
-268.471
-275.597
-281.26
-285.516
-288.427
-290.013
-290.331
-289.423
-287.299
-283.971
-279.439
-273.698
-266.729
-258.506
-248.995
-238.15
-225.925
-212.276
-197.161
-180.551
-162.427
-142.781
-121.62
-98.9667
-74.8626
-49.3698
-22.5776
5.39547
34.3944
64.2411
95.4345
126.311
157.269
187.969
218.025
247.031
274.572
300.222
323.559
344.186
361.72
375.817
386.198
392.625
394.917
392.977
386.818
376.517
362.201
344.107
322.545
297.904
270.573
241
209.675
177.057
143.613
109.791
75.9806
42.5552
16.6986
-14.0987
-43.5043
-71.321
-97.4081
-121.688
-144.119
-164.692
-183.436
-200.398
-215.652
-229.289
-241.404
-252.1
-261.476
-269.621
-276.611
-282.504
-287.338
-291.126
-293.858
-295.502
-295.984
-295.264
-293.23
-289.789
-284.858
-278.324
-270.099
-260.104
-248.265
-234.537
-218.892
-201.321
-181.857
-160.559
-137.503
-112.806
-86.6302
-59.1431
-30.5346
-1.07599
29.3068
59.7707
90.2338
120.437
150.05
178.762
206.281
232.281
256.476
278.569
298.288
315.401
329.69
340.962
349.083
353.958
355.519
353.663
348.466
339.92
328.216
313.546
-200.195
-217.788
-233.779
-248.157
-260.922
-272.124
-281.805
-290.015
-296.798
-302.192
-306.231
-308.941
-310.341
-310.42
-309.206
-306.675
-302.818
-297.625
-291.057
-283.074
-273.632
-262.685
-250.18
-236.064
-220.298
-202.836
-183.651
-162.716
-140.033
-115.636
-89.5659
-61.902
-32.7756
-2.32349
29.242
61.6882
94.7711
128.163
161.532
194.559
226.86
258.069
287.794
315.651
341.311
364.446
384.742
401.946
415.835
426.216
432.961
435.988
435.239
430.697
422.502
410.714
395.509
377.093
355.737
331.712
305.334
276.935
246.861
215.494
183.201
150.337
117.256
84.2921
51.7539
19.9619
-10.4869
-40.0843
-68.4587
-95.42
-120.833
-144.602
-166.653
-186.95
-205.461
-222.185
-237.118
-250.269
-261.658
-271.311
-279.249
-285.509
-290.125
-293.131
-294.549
-294.442
-292.862
-289.843
-285.428
-279.652
-272.544
-264.119
-254.379
-243.318
-230.915
-217.139
-201.953
-185.325
-167.227
-147.635
-126.541
-103.955
-79.9004
-54.4288
-27.6106
0.456327
29.6602
59.8207
90.7322
122.183
153.923
185.675
217.129
247.95
277.786
306.265
333.005
357.627
379.753
399.023
415.105
427.706
436.579
441.536
442.435
439.215
431.964
420.686
405.542
386.749
364.576
339.347
311.426
281.215
249.142
215.647
181.18
146.184
111.089
76.3051
42.2136
9.14464
-22.6114
-52.816
-81.2838
-107.882
-132.526
-155.177
-175.827
-194.5
-211.238
-226.096
-239.14
-250.446
-260.083
-268.127
-274.649
-279.715
-283.381
-285.701
-286.701
-286.414
-284.865
-282.059
-277.989
-272.644
-266.006
-258.047
-248.741
-238.051
-225.939
-212.364
-197.288
-180.673
-162.487
-142.71
-121.335
-98.3684
-73.8363
-47.7916
-20.3177
8.47099
38.4298
69.4913
101.155
133.259
165.496
197.522
228.964
259.431
288.512
315.79
340.839
363.237
382.582
398.501
410.669
418.821
422.764
422.36
417.62
408.639
395.501
378.442
357.751
333.777
306.918
277.613
246.326
213.537
179.73
145.378
110.926
76.782
43.3085
10.8169
-20.4286
-50.2139
-78.3729
-104.787
-129.381
-152.113
-172.969
-191.958
-209.107
-224.45
-238.034
-249.912
-260.139
-268.775
-275.888
-281.538
-285.782
-288.682
-290.261
-290.574
-289.661
-287.536
-284.208
-279.679
-273.943
-266.981
-258.766
-249.265
-238.431
-226.218
-212.58
-197.476
-180.875
-162.757
-143.116
-121.957
-99.3028
-75.1935
-49.6904
-22.8814
5.11728
34.1573
64.0807
95.2066
126.179
157.216
187.994
218.136
247.23
274.862
300.606
324.033
344.745
362.358
376.525
386.96
393.428
395.742
393.808
387.634
377.293
362.924
344.761
323.115
298.379
270.945
241.267
209.836
177.118
143.583
109.681
75.8025
42.3068
16.3495
-14.4981
-43.9219
-71.7475
-97.8375
-122.114
-144.536
-165.095
-183.821
-200.762
-215.993
-229.606
-241.698
-252.371
-261.727
-269.855
-276.833
-282.717
-287.547
-291.336
-294.072
-295.724
-296.223
-295.521
-293.504
-290.083
-285.173
-278.659
-270.453
-260.476
-248.651
-234.934
-219.297
-201.729
-182.262
-160.956
-137.886
-113.169
-86.9674
-59.4486
-30.8002
-1.29554
29.1284
59.6488
90.1704
120.436
150.116
178.897
206.486
232.555
256.817
278.975
298.754
315.921
330.257
341.567
349.716
354.609
356.177
354.315
349.095
340.523
328.785
314.071
-200.651
-218.23
-234.206
-248.567
-261.315
-272.501
-282.166
-290.363
-297.133
-302.517
-306.548
-309.252
-310.647
-310.727
-309.517
-306.988
-303.137
-297.953
-291.395
-283.426
-273.998
-263.067
-250.578
-236.479
-220.728
-203.282
-184.109
-163.184
-140.505
-116.107
-90.0293
-62.3504
-33.2008
-2.71505
28.8938
61.3944
94.5413
128.006
161.454
194.569
226.963
258.271
288.094
316.049
341.804
365.028
385.405
402.679
416.626
427.052
433.825
436.864
436.113
431.555
423.317
411.482
396.214
377.724
356.283
332.168
305.695
277.199
247.028
215.567
183.184
150.236
117.079
84.0483
51.4548
19.6131
-10.8797
-40.5054
-68.903
-95.8817
-121.305
-145.079
-167.13
-187.423
-205.928
-222.643
-237.566
-250.706
-262.085
-271.726
-279.654
-285.903
-290.508
-293.499
-294.908
-294.793
-293.202
-290.175
-285.753
-279.972
-272.863
-264.439
-254.704
-243.652
-231.259
-217.494
-202.321
-185.707
-167.619
-148.037
-126.949
-104.365
-80.3081
-54.8286
-27.996
0.0923024
29.3227
59.5228
90.48
121.985
153.789
185.612
217.146
248.056
277.986
306.564
333.408
358.133
380.359
399.723
415.889
428.561
437.487
442.478
443.392
440.173
432.888
421.561
406.35
387.474
365.204
339.868
311.833
281.506
249.315
215.707
181.13
146.033
110.846
75.9807
41.8214
8.69675
-23.1014
-53.335
-81.8195
-108.423
-133.065
-155.705
-176.34
-194.994
-211.711
-226.546
-239.569
-250.852
-260.468
-268.492
-274.997
-280.047
-283.701
-286.009
-287.003
-286.712
-285.162
-282.357
-278.291
-272.952
-266.321
-258.372
-249.077
-238.399
-226.301
-212.741
-197.679
-181.077
-162.903
-143.136
-121.768
-98.8034
-74.2683
-48.2141
-20.7224
8.09456
38.096
69.1835
100.914
133.09
165.409
197.525
229.065
259.637
288.829
316.22
341.383
363.892
383.341
399.351
411.593
419.798
423.769
423.375
418.618
409.587
396.383
379.237
358.444
334.356
307.376
277.945
246.532
213.62
179.698
145.242
110.697
76.4749
42.9368
10.3936
-20.8906
-50.7023
-78.8766
-105.297
-129.889
-152.613
-173.457
-192.431
-209.563
-224.888
-238.455
-250.314
-260.522
-269.141
-276.237
-281.872
-286.102
-288.987
-290.559
-290.866
-289.947
-287.82
-284.493
-279.967
-274.237
-267.282
-259.079
-249.589
-238.769
-226.57
-212.947
-197.855
-181.264
-163.154
-143.518
-122.362
-99.7068
-75.5914
-50.0761
-23.2472
4.78151
33.8676
63.8623
94.9567
126.024
157.152
188.025
218.267
247.469
275.211
301.066
324.602
345.416
363.125
377.374
387.875
394.393
396.735
394.805
388.614
378.227
363.794
345.546
323.8
298.949
271.392
241.587
210.029
177.19
143.545
109.547
75.5897
42.0158
15.9204
-14.9805
-44.4242
-72.2599
-98.3535
-122.625
-145.036
-165.579
-184.283
-201.199
-216.403
-229.986
-242.05
-252.697
-262.028
-270.136
-277.098
-282.973
-287.798
-291.587
-294.33
-295.992
-296.51
-295.829
-293.833
-290.437
-285.551
-279.062
-270.879
-260.924
-249.115
-235.411
-219.782
-202.218
-182.749
-161.433
-138.347
-113.605
-87.3727
-59.816
-31.1199
-1.56027
28.9138
59.5023
90.0939
120.435
150.195
179.059
206.732
232.883
257.226
279.462
299.313
316.546
330.939
342.294
350.476
355.39
356.966
355.098
349.852
341.249
329.469
314.701
-201.184
-218.746
-234.703
-249.045
-261.774
-272.94
-282.588
-290.768
-297.525
-302.897
-306.919
-309.615
-311.004
-311.086
-309.879
-307.353
-303.511
-298.336
-291.791
-283.836
-274.425
-263.512
-251.042
-236.963
-221.231
-203.802
-184.644
-163.73
-141.056
-116.657
-90.5707
-62.8747
-33.6981
-3.17313
28.4863
61.0505
94.2721
127.821
161.363
194.58
227.084
258.505
288.445
316.514
342.378
365.706
386.179
403.535
417.55
428.029
434.835
437.888
437.134
432.555
424.27
412.379
397.038
378.46
356.921
332.7
306.116
277.507
247.223
215.651
183.163
150.118
116.871
83.7623
51.1029
19.2065
-11.3382
-40.9974
-69.4225
-96.4211
-121.856
-145.636
-167.686
-187.975
-206.472
-223.177
-238.089
-251.217
-262.583
-272.212
-280.126
-286.362
-290.953
-293.93
-295.328
-295.202
-293.599
-290.562
-286.132
-280.346
-273.235
-264.812
-255.084
-244.04
-231.66
-217.908
-202.751
-186.152
-168.078
-148.506
-127.426
-104.844
-80.7847
-55.296
-28.4468
-0.334519
28.9283
59.1744
90.1846
121.752
153.63
185.537
217.165
248.178
278.218
306.913
333.877
358.723
381.066
400.54
416.805
429.56
438.549
443.579
444.512
441.29
433.967
422.583
407.294
388.32
365.937
340.475
312.308
281.844
249.517
215.775
181.071
145.855
110.56
75.6005
41.3619
8.17241
-23.6749
-53.9423
-82.446
-109.057
-133.694
-156.322
-176.94
-195.571
-212.263
-227.073
-240.069
-251.326
-260.917
-268.918
-275.403
-280.435
-284.073
-286.369
-287.354
-287.06
-285.509
-282.705
-278.643
-273.311
-266.689
-258.752
-249.469
-238.806
-226.724
-213.18
-198.135
-181.549
-163.389
-143.634
-122.273
-99.3118
-74.7736
-48.7083
-21.1961
7.653
37.7012
68.8259
100.632
132.893
165.305
197.526
229.182
259.877
289.198
316.721
342.017
364.657
384.226
400.343
412.672
420.94
424.945
424.561
419.783
410.695
397.412
380.166
359.254
335.033
307.91
278.332
246.771
213.716
179.66
145.08
110.429
76.1149
42.5013
9.89788
-21.4312
-51.2736
-79.4657
-105.893
-130.482
-153.197
-174.027
-192.984
-210.096
-225.401
-238.947
-250.784
-260.971
-269.568
-276.644
-282.261
-286.475
-289.345
-290.906
-291.205
-290.28
-288.151
-284.825
-280.303
-274.58
-267.634
-259.443
-249.967
-239.163
-226.982
-213.374
-198.297
-181.718
-163.618
-143.989
-122.836
-100.179
-76.0567
-50.5272
-23.6756
4.38739
33.5241
63.5904
94.6791
125.845
157.076
188.059
218.42
247.746
275.617
301.603
325.266
346.2
364.021
378.366
388.944
395.519
397.894
395.971
389.759
379.319
364.811
346.463
324.599
299.616
271.914
241.96
210.253
177.272
143.499
109.39
75.3421
41.6876
15.4046
-15.5473
-45.0114
-72.8584
-98.9555
-123.222
-145.621
-166.144
-184.823
-201.709
-216.88
-230.43
-242.46
-253.076
-262.379
-270.463
-277.407
-283.27
-288.089
-291.88
-294.63
-296.305
-296.844
-296.188
-294.217
-290.848
-285.993
-279.533
-271.377
-261.446
-249.657
-235.969
-220.35
-202.789
-183.318
-161.991
-138.885
-114.115
-87.8465
-60.2453
-31.4945
-1.87085
28.663
59.3309
90.0039
120.433
150.287
179.248
207.019
233.266
257.703
280.03
299.967
317.276
331.734
343.143
351.363
356.301
357.887
356.011
350.738
342.098
330.267
315.437
-201.793
-219.336
-235.272
-249.592
-262.299
-273.443
-283.069
-291.231
-297.972
-303.331
-307.342
-310.03
-311.413
-311.495
-310.291
-307.769
-303.938
-298.773
-292.242
-284.305
-274.913
-264.021
-251.573
-237.516
-221.806
-204.397
-185.257
-164.354
-141.687
-117.286
-91.1906
-63.4753
-34.2682
-3.69835
28.0189
60.6558
93.963
127.608
161.258
194.591
227.22
258.772
288.845
317.044
343.035
366.483
387.063
404.514
418.607
429.145
435.991
439.061
438.302
433.698
425.361
413.404
397.98
379.302
357.651
333.308
306.597
277.858
247.444
215.746
183.138
149.98
116.632
83.4336
50.6975
18.7412
-11.8626
-41.5604
-70.0174
-97.0386
-122.487
-146.273
-168.323
-188.606
-207.095
-223.789
-238.687
-251.8
-263.153
-272.767
-280.667
-286.888
-291.463
-294.423
-295.809
-295.669
-294.052
-291.004
-286.565
-280.774
-273.659
-265.239
-255.517
-244.484
-232.117
-218.383
-203.244
-186.661
-168.603
-149.043
-127.972
-105.393
-81.3305
-55.8314
-28.9634
-0.82393
28.4758
58.7752
89.8455
121.485
153.447
185.45
217.185
248.315
278.482
307.311
334.412
359.397
381.874
401.475
417.853
430.703
439.765
444.841
445.794
442.568
435.202
423.753
408.374
389.288
366.775
341.17
312.851
282.23
249.746
215.851
181.002
145.65
110.232
75.1633
40.8344
7.5708
-24.3329
-54.6387
-83.1639
-109.782
-134.415
-157.029
-177.625
-196.231
-212.895
-227.675
-240.64
-251.868
-261.431
-269.406
-275.867
-280.878
-284.499
-286.781
-287.757
-287.458
-285.904
-283.103
-279.046
-273.722
-267.11
-259.185
-249.917
-239.27
-227.207
-213.683
-198.657
-182.089
-163.945
-144.203
-122.851
-99.8942
-75.3523
-49.2745
-21.7393
7.1454
37.2441
68.4188
100.309
132.665
165.186
197.527
229.314
260.149
289.618
317.294
342.743
365.531
385.239
401.479
413.908
422.248
426.293
425.919
421.116
411.964
398.591
381.229
360.18
335.806
308.52
278.773
247.043
213.824
179.613
144.894
110.119
75.7009
42.0013
9.32912
-22.0513
-51.9287
-80.1407
-106.575
-131.162
-153.865
-174.679
-193.615
-210.706
-225.987
-239.508
-251.321
-261.484
-270.057
-277.11
-282.705
-286.901
-289.754
-291.304
-291.593
-290.661
-288.53
-285.205
-280.688
-274.971
-268.037
-259.859
-250.4
-239.615
-227.453
-213.863
-198.802
-182.237
-164.148
-144.527
-123.378
-100.72
-76.5898
-51.0444
-24.167
3.93431
33.1261
63.2662
94.3708
125.642
156.989
188.097
218.593
248.062
276.08
302.215
326.025
347.096
365.045
379.502
390.168
396.809
399.222
397.306
391.068
380.57
365.975
347.512
325.515
300.378
272.51
242.385
210.507
177.364
143.444
109.207
75.0597
41.3292
14.7929
-16.1997
-45.684
-73.5434
-99.6439
-123.906
-146.29
-166.791
-185.44
-202.292
-217.426
-230.937
-242.929
-253.508
-262.779
-270.837
-277.76
-283.609
-288.422
-292.214
-294.973
-296.662
-297.225
-296.596
-294.655
-291.319
-286.498
-280.071
-271.945
-262.042
-250.278
-236.607
-220.999
-203.443
-183.968
-162.629
-139.501
-114.699
-88.3893
-60.7369
-31.9246
-2.22801
28.3758
59.1343
89.9002
120.43
150.391
179.463
207.347
233.704
258.248
280.68
300.714
318.111
332.644
344.113
352.378
357.344
358.94
357.055
351.753
343.069
331.18
316.279
-202.479
-220
-235.912
-250.207
-262.889
-274.008
-283.611
-291.752
-298.475
-303.819
-307.818
-310.497
-311.874
-311.955
-310.752
-308.236
-304.417
-299.264
-292.749
-284.832
-275.462
-264.594
-252.169
-238.138
-222.453
-205.067
-185.946
-165.058
-142.397
-117.996
-91.8893
-64.1528
-34.9117
-4.29153
27.4908
60.2097
93.6133
127.367
161.137
194.602
227.372
259.072
289.294
317.641
343.775
367.356
388.06
405.618
419.798
430.404
437.294
440.382
439.618
434.985
426.591
414.559
399.041
380.25
358.473
333.992
307.137
278.252
247.693
215.852
183.109
149.824
116.361
83.0613
50.2382
18.2165
-12.4529
-42.195
-70.6883
-97.7347
-123.198
-146.991
-169.04
-189.317
-207.796
-224.477
-239.359
-252.456
-263.794
-273.391
-281.275
-287.479
-292.036
-294.979
-296.349
-296.195
-294.563
-291.501
-287.053
-281.254
-274.137
-265.718
-256.004
-244.983
-232.632
-218.917
-203.798
-187.235
-169.194
-149.649
-128.587
-106.012
-81.9458
-56.4352
-29.5464
-1.37651
27.9643
58.3246
89.4621
121.182
153.238
185.35
217.206
248.468
278.778
307.757
335.014
360.154
382.784
402.528
419.034
431.991
441.135
446.264
447.24
444.007
436.595
425.072
409.592
390.378
367.718
341.952
313.461
282.663
250.002
215.935
180.922
145.416
109.859
74.6681
40.2381
6.8908
-25.0763
-55.4249
-83.9741
-110.6
-135.227
-157.825
-178.398
-196.975
-213.606
-228.352
-241.284
-252.478
-262.009
-269.955
-276.388
-281.376
-284.978
-287.244
-288.209
-287.905
-286.349
-283.55
-279.5
-274.183
-267.584
-259.673
-250.421
-239.794
-227.751
-214.249
-199.244
-182.697
-164.572
-144.845
-123.503
-100.551
-76.0051
-49.9135
-22.3529
6.57115
36.7244
67.9605
99.9435
132.406
165.048
197.525
229.46
260.455
290.09
317.938
343.558
366.515
386.38
402.758
415.301
423.723
427.814
427.45
422.618
413.395
399.92
382.427
361.224
336.677
309.206
279.268
247.348
213.943
179.558
144.68
109.768
75.2321
41.4357
8.68644
-22.7519
-52.6682
-80.9026
-107.345
-131.928
-154.619
-175.414
-194.327
-211.392
-226.647
-240.141
-251.926
-262.061
-270.608
-277.634
-283.206
-287.381
-290.215