/*--------------------------------*- C++ -*----------------------------------*\
| =========                 |                                                 |
| \\      /  F ield         | OpenFOAM: The Open Source CFD Toolbox           |
|  \\    /   O peration     | Version:  3.0.1                                 |
|   \\  /    A nd           | Web:      www.OpenFOAM.org                      |
|    \\/     M anipulation  |                                                 |
\*---------------------------------------------------------------------------*/
FoamFile
{
    version     2.0;
    format      ascii;
    class       volVectorField;
    location    "97.8";
    object      U;
}
// * * * * * * * * * * * * * * * * * * * * * * * * * * * * * * * * * * * * * //

dimensions      [0 1 -1 0 0 0 0];

internalField   nonuniform List<vector> 
21420
(
(-0.184256 0.000362336 0)
(-0.187048 0.000285506 0)
(-0.189558 0.000211239 0)
(-0.191332 0.00013697 0)
(-0.192344 6.4876e-05 0)
(-0.192642 -6.74077e-06 0)
(-0.192203 -8.01299e-05 0)
(-0.191026 -0.000154129 0)
(-0.189098 -0.000228794 0)
(-0.18641 -0.000305419 0)
(-0.182944 -0.000383045 0)
(-0.178681 -0.000462589 0)
(-0.173596 -0.000546845 0)
(-0.167661 -0.000631584 0)
(-0.160846 -0.000723202 0)
(-0.153118 -0.000814015 0)
(-0.144442 -0.000907003 0)
(-0.134787 -0.00101037 0)
(-0.124131 -0.00110717 0)
(-0.112456 -0.00120407 0)
(-0.0997525 -0.00131478 0)
(-0.0860296 -0.00140886 0)
(-0.0713077 -0.00149816 0)
(-0.0556138 -0.00160494 0)
(-0.0389995 -0.00168094 0)
(-0.0215195 -0.00177553 0)
(-0.00341211 -0.00182588 0)
(0.0151794 -0.00186196 0)
(0.0342361 -0.00191677 0)
(0.0535411 -0.00191624 0)
(0.0728511 -0.00189143 0)
(0.0919324 -0.00187961 0)
(0.110544 -0.00180751 0)
(0.128421 -0.00173939 0)
(0.145302 -0.00161714 0)
(0.16091 -0.00147012 0)
(0.174982 -0.00131413 0)
(0.187281 -0.00112328 0)
(0.197595 -0.000913237 0)
(0.205744 -0.000691181 0)
(0.211603 -0.000452624 0)
(0.215041 -0.000210485 0)
(0.215962 3.427e-05 0)
(0.214434 0.000287744 0)
(0.210287 0.000524706 0)
(0.203817 0.000755708 0)
(0.195072 0.000982981 0)
(0.184202 0.00116498 0)
(0.171446 0.00134776 0)
(0.157004 0.00151386 0)
(0.141086 0.00162456 0)
(0.124014 0.00173795 0)
(0.106026 0.00179477 0)
(0.0873544 0.0018538 0)
(0.0681903 0.0018906 0)
(0.0488576 0.00188505 0)
(0.0295786 0.00187564 0)
(0.0109751 0.00184622 0)
(-0.00688059 0.00179065 0)
(-0.0244273 0.00173066 0)
(-0.0414198 0.00165132 0)
(-0.0576785 0.00157205 0)
(-0.0730801 0.00148249 0)
(-0.0875714 0.00138711 0)
(-0.101145 0.00129288 0)
(-0.113724 0.00119261 0)
(-0.125312 0.00109394 0)
(-0.135925 0.000998538 0)
(-0.145568 0.000900965 0)
(-0.154292 0.000813072 0)
(-0.162056 0.000717084 0)
(-0.168865 0.000625621 0)
(-0.174838 0.000541418 0)
(-0.179902 0.000450012 0)
(-0.184055 0.00035389 0)
(-0.187281 0.000275151 0)
(-0.189558 0.000180774 0)
(-0.191 0.000106535 0)
(-0.191689 1.85937e-05 0)
(-0.191423 -8.32195e-05 0)
(-0.190273 -0.000148771 0)
(-0.188358 -0.000256028 0)
(-0.185507 -0.000346383 0)
(-0.181609 -0.000436961 0)
(-0.176764 -0.000537095 0)
(-0.170867 -0.000623863 0)
(-0.164088 -0.000711117 0)
(-0.156542 -0.000792458 0)
(-0.148288 -0.000863077 0)
(-0.139263 -0.000921698 0)
(-0.129567 -0.000987346 0)
(-0.119341 -0.00104956 0)
(-0.108441 -0.00111744 0)
(-0.0968807 -0.00119001 0)
(-0.0845386 -0.00125629 0)
(-0.071385 -0.00133993 0)
(-0.057494 -0.00141666 0)
(-0.0428125 -0.00149296 0)
(-0.0273699 -0.00156709 0)
(-0.0112162 -0.00163425 0)
(0.00557995 -0.00169085 0)
(0.0228937 -0.00173318 0)
(0.040552 -0.00176701 0)
(0.0584432 -0.00177745 0)
(0.0763555 -0.00177307 0)
(0.0941236 -0.00174918 0)
(0.111519 -0.0017041 0)
(0.128356 -0.00162969 0)
(0.144371 -0.00153937 0)
(0.159312 -0.00141772 0)
(0.172952 -0.00128035 0)
(0.185065 -0.00112126 0)
(0.195428 -0.00093654 0)
(0.203839 -0.00072671 0)
(0.210096 -0.000505126 0)
(0.214054 -0.000275106 0)
(0.215599 -3.77138e-05 0)
(0.214767 0.000210344 0)
(0.211326 0.000460564 0)
(0.205448 0.000700967 0)
(0.197233 0.000924257 0)
(0.186827 0.00113944 0)
(0.17438 0.00132501 0)
(0.160132 0.00149621 0)
(0.144325 0.00163474 0)
(0.127212 0.00175131 0)
(0.109104 0.00183888 0)
(0.0902831 0.00189345 0)
(0.0710163 0.00192703 0)
(0.0515716 0.00193156 0)
(0.0321794 0.00191242 0)
(0.0130693 0.00187275 0)
(-0.00553077 0.00182232 0)
(-0.0234773 0.00174403 0)
(-0.0406281 0.00166217 0)
(-0.0568655 0.00155768 0)
(-0.0720669 0.0014513 0)
(-0.0861895 0.00135505 0)
(-0.0992509 0.00123986 0)
(-0.111193 0.00112972 0)
(-0.122014 0.00102048 0)
(-0.131766 0.000917678 0)
(-0.140485 0.000818261 0)
(-0.148222 0.000719475 0)
(-0.155017 0.000629782 0)
(-0.160906 0.000541459 0)
(-0.165945 0.000460805 0)
(-0.17021 0.000384678 0)
(-0.173736 0.000308727 0)
(-0.176516 0.000246833 0)
(-0.178627 0.000179004 0)
(-0.180105 0.000116854 0)
(-0.180936 5.46765e-05 0)
(-0.181176 -4.0804e-06 0)
(-0.180804 -6.94308e-05 0)
(-0.179809 -0.000122276 0)
(-0.178222 -0.000195042 0)
(-0.175984 -0.000241693 0)
(-0.173093 -0.000317454 0)
(-0.169587 -0.000381812 0)
(-0.165366 -0.000455142 0)
(-0.160446 -0.000515914 0)
(-0.154814 -0.000593773 0)
(-0.148428 -0.000666405 0)
(-0.141259 -0.000753239 0)
(-0.13327 -0.000833467 0)
(-0.124452 -0.000914697 0)
(-0.114784 -0.00100127 0)
(-0.104289 -0.00108242 0)
(-0.0929215 -0.00117467 0)
(-0.0806672 -0.00124834 0)
(-0.067605 -0.00133339 0)
(-0.0537361 -0.00141443 0)
(-0.0391083 -0.00148743 0)
(-0.0237462 -0.00155963 0)
(-0.00769584 -0.0016187 0)
(0.00892611 -0.00167073 0)
(0.0259528 -0.00170648 0)
(0.0432491 -0.00172588 0)
(0.0606596 -0.0017241 0)
(0.0779515 -0.00170375 0)
(0.0949298 -0.00165688 0)
(0.111332 -0.00158841 0)
(0.126933 -0.00150233 0)
(0.141512 -0.00138892 0)
(0.15483 -0.00124853 0)
(0.166623 -0.00108901 0)
(0.1767 -0.000903573 0)
(0.184803 -0.000700286 0)
(0.190765 -0.000480314 0)
(0.19442 -0.000242049 0)
(0.195585 -1.10261e-06 0)
(0.194307 0.000251465 0)
(0.190396 0.000509743 0)
(0.184096 0.000742411 0)
(0.175496 0.000965135 0)
(0.164755 0.00116282 0)
(0.152115 0.00133979 0)
(0.137831 0.00149574 0)
(0.122151 0.00161274 0)
(0.105367 0.00171368 0)
(0.0877643 0.00177515 0)
(0.0696157 0.00181521 0)
(0.0511905 0.00183958 0)
(0.0327156 0.00183083 0)
(0.0144133 0.0018021 0)
(-0.00351086 0.00175517 0)
(-0.0208826 0.00168662 0)
(-0.0375044 0.00162045 0)
(-0.053309 0.00152168 0)
(-0.0682136 0.00143065 0)
(-0.0821206 0.00132762 0)
(-0.0950432 0.00123774 0)
(-0.106983 0.00113701 0)
(-0.117958 0.00104202 0)
(-0.127984 0.000949685 0)
(-0.137077 0.000858126 0)
(-0.145284 0.000773784 0)
(-0.152647 0.000689023 0)
(-0.159184 0.000608817 0)
(-0.164924 0.000529455 0)
(-0.169875 0.000458293 0)
(-0.174126 0.000387343 0)
(-0.177694 0.00031803 0)
(-0.180559 0.000255143 0)
(-0.182803 0.000190854 0)
(-0.184426 0.000127737 0)
(-0.185377 6.76401e-05 0)
(-0.185736 5.52553e-06 0)
(-0.185478 -5.36479e-05 0)
(-0.184608 -0.000112658 0)
(-0.183172 -0.0001661 0)
(-0.181235 -0.00021658 0)
(-0.178821 -0.000261416 0)
(-0.175921 -0.000313677 0)
(-0.172489 -0.000367467 0)
(-0.168427 -0.000438579 0)
(-0.163665 -0.000515203 0)
(-0.158098 -0.000581251 0)
(-0.151712 -0.000672664 0)
(-0.144535 -0.000751321 0)
(-0.136554 -0.000828398 0)
(-0.127855 -0.000892927 0)
(-0.118468 -0.000966135 0)
(-0.108403 -0.00102938 0)
(-0.0976845 -0.00109932 0)
(-0.0862277 -0.0011662 0)
(-0.0740569 -0.00124436 0)
(-0.0611313 -0.00131859 0)
(-0.0474628 -0.00139903 0)
(-0.0330371 -0.00145814 0)
(-0.0179748 -0.00151972 0)
(-0.00240019 -0.00156578 0)
(0.0135569 -0.0015954 0)
(0.0297382 -0.00160703 0)
(0.0459378 -0.00160165 0)
(0.0619801 -0.0015797 0)
(0.0776697 -0.00152998 0)
(0.0927579 -0.00146087 0)
(0.107029 -0.00136448 0)
(0.120229 -0.00124897 0)
(0.132114 -0.00110472 0)
(0.142447 -0.000933043 0)
(0.150972 -0.00074519 0)
(0.157499 -0.000544628 0)
(0.161877 -0.000318689 0)
(0.164028 -9.31039e-05 0)
(0.163848 0.000129985 0)
(0.161396 0.000365342 0)
(0.156693 0.000575391 0)
(0.149871 0.000789365 0)
(0.14109 0.000964692 0)
(0.13046 0.001135 0)
(0.118529 0.00126924 0)
(0.105153 0.00138008 0)
(0.0909526 0.00144976 0)
(0.0760482 0.00150132 0)
(0.0607664 0.00153055 0)
(0.0455088 0.00153047 0)
(0.0301044 0.00150241 0)
(0.0151972 0.0014777 0)
(0.00109152 0.00143469 0)
(-0.0126253 0.00138963 0)
(-0.0260678 0.00133453 0)
(-0.0390697 0.00128106 0)
(-0.0516304 0.00122599 0)
(-0.0635795 0.00115746 0)
(-0.0749277 0.00109007 0)
(-0.0855746 0.00102187 0)
(-0.095462 0.000941033 0)
(-0.104622 0.000869525 0)
(-0.112956 0.000788958 0)
(-0.120469 0.000707296 0)
(-0.127216 0.000633188 0)
(-0.133159 0.000555603 0)
(-0.138344 0.000481471 0)
(-0.142827 0.0004158 0)
(-0.146625 0.000351055 0)
(-0.149821 0.000292276 0)
(-0.152475 0.000240087 0)
(-0.154629 0.000191228 0)
(-0.156337 0.000151363 0)
(-0.157631 0.000111705 0)
(-0.15858 7.57314e-05 0)
(-0.159183 4.37661e-05 0)
(-0.159425 1.24095e-05 0)
(-0.159333 -2.52482e-05 0)
(-0.158882 -6.44497e-05 0)
(-0.157986 -0.000110619 0)
(-0.1566 -0.000163593 0)
(-0.15462 -0.00022631 0)
(-0.151961 -0.000300129 0)
(-0.148537 -0.000380142 0)
(-0.144234 -0.000469186 0)
(-0.13897 -0.00057124 0)
(-0.13268 -0.000674391 0)
(-0.125293 -0.000790496 0)
(-0.11678 -0.000899604 0)
(-0.107129 -0.00101082 0)
(-0.096307 -0.00113416 0)
(-0.0843439 -0.00123829 0)
(-0.0712986 -0.00133607 0)
(-0.0572104 -0.00144751 0)
(-0.0421699 -0.00152617 0)
(-0.0262498 -0.00161894 0)
(-0.00968376 -0.00167225 0)
(0.00728226 -0.00170242 0)
(0.0246214 -0.00174933 0)
(0.0421979 -0.00174642 0)
(0.0597465 -0.00172067 0)
(0.0770445 -0.00170388 0)
(0.0938744 -0.00163507 0)
(0.109992 -0.00154399 0)
(0.125169 -0.00145463 0)
(0.139193 -0.00132305 0)
(0.151862 -0.00118874 0)
(0.163002 -0.00102382 0)
(0.172457 -0.000847842 0)
(0.180106 -0.000666741 0)
(0.185866 -0.000474998 0)
(0.189694 -0.000280866 0)
(0.191562 -8.72582e-05 0)
(0.191498 0.000101523 0)
(0.189538 0.000287471 0)
(0.185697 0.000467469 0)
(0.180133 0.000637554 0)
(0.172931 0.000789514 0)
(0.164218 0.000936122 0)
(0.154123 0.00107145 0)
(0.142791 0.00117772 0)
(0.13037 0.00128413 0)
(0.117014 0.00135721 0)
(0.102874 0.00143352 0)
(0.088096 0.001496 0)
(0.0728254 0.00152117 0)
(0.0571924 0.00155406 0)
(0.0395317 0.00157285 0)
(-0.184286 0.00108691 0)
(-0.187078 0.000856437 0)
(-0.189588 0.000633645 0)
(-0.19136 0.000410942 0)
(-0.192374 0.000193782 0)
(-0.19267 -1.92969e-05 0)
(-0.192232 -0.000240343 0)
(-0.191055 -0.000462385 0)
(-0.189129 -0.000686343 0)
(-0.186441 -0.00091619 0)
(-0.182976 -0.00114905 0)
(-0.178713 -0.00138767 0)
(-0.17363 -0.00164042 0)
(-0.167696 -0.00189462 0)
(-0.160882 -0.00216947 0)
(-0.153156 -0.00244189 0)
(-0.144481 -0.00272088 0)
(-0.134828 -0.003031 0)
(-0.124173 -0.00332144 0)
(-0.112497 -0.00361217 0)
(-0.0997944 -0.00394439 0)
(-0.0860705 -0.00422668 0)
(-0.0713469 -0.00449463 0)
(-0.0556516 -0.00481509 0)
(-0.039034 -0.00504319 0)
(-0.0215498 -0.00532722 0)
(-0.00343701 -0.00547797 0)
(0.0151601 -0.00558651 0)
(0.034224 -0.00575109 0)
(0.0535372 -0.00574958 0)
(0.0728557 -0.00567524 0)
(0.0919475 -0.00563991 0)
(0.110569 -0.00542365 0)
(0.128458 -0.00521934 0)
(0.145349 -0.00485259 0)
(0.160967 -0.00441125 0)
(0.175049 -0.00394425 0)
(0.187358 -0.00337053 0)
(0.19768 -0.00273989 0)
(0.205835 -0.00207321 0)
(0.211699 -0.00135656 0)
(0.215142 -0.000631005 0)
(0.216068 9.87087e-05 0)
(0.214529 0.000862074 0)
(0.210382 0.00157396 0)
(0.203911 0.00226729 0)
(0.195162 0.00294947 0)
(0.184285 0.00349556 0)
(0.171522 0.00404405 0)
(0.157072 0.00454242 0)
(0.141144 0.00487463 0)
(0.124063 0.00521496 0)
(0.106064 0.0053853 0)
(0.0873841 0.00556237 0)
(0.0682114 0.00567255 0)
(0.0488698 0.00565612 0)
(0.0295818 0.00562767 0)
(0.0109711 0.00553928 0)
(-0.00689161 0.00537255 0)
(-0.024445 0.00519343 0)
(-0.0414426 0.00495471 0)
(-0.0577067 0.00471725 0)
(-0.0731128 0.00444852 0)
(-0.0876077 0.00416195 0)
(-0.101185 0.00387936 0)
(-0.113767 0.00357837 0)
(-0.125357 0.00328262 0)
(-0.135974 0.00299649 0)
(-0.145618 0.00270259 0)
(-0.154345 0.00243867 0)
(-0.162109 0.00215118 0)
(-0.168919 0.00188146 0)
(-0.174895 0.00162537 0)
(-0.179964 0.00134624 0)
(-0.184116 0.00106453 0)
(-0.187344 0.000826052 0)
(-0.189619 0.000539528 0)
(-0.191067 0.000319294 0)
(-0.191755 5.67086e-05 0)
(-0.191487 -0.000246795 0)
(-0.190332 -0.000449332 0)
(-0.188423 -0.000763068 0)
(-0.185568 -0.00104155 0)
(-0.181667 -0.00131359 0)
(-0.176821 -0.00161803 0)
(-0.17091 -0.00186731 0)
(-0.164126 -0.0021347 0)
(-0.156571 -0.00238186 0)
(-0.148308 -0.00259874 0)
(-0.139274 -0.00277303 0)
(-0.129567 -0.00296641 0)
(-0.11933 -0.00315264 0)
(-0.108423 -0.00335261 0)
(-0.0968539 -0.00357393 0)
(-0.0845092 -0.00377931 0)
(-0.0713593 -0.00401322 0)
(-0.0574702 -0.00425279 0)
(-0.0427858 -0.00448546 0)
(-0.0273466 -0.00470292 0)
(-0.0111974 -0.00490215 0)
(0.005599 -0.00507625 0)
(0.0228997 -0.00521637 0)
(0.0405755 -0.00529895 0)
(0.0584598 -0.0053388 0)
(0.0763795 -0.00532636 0)
(0.0941571 -0.00524415 0)
(0.111557 -0.00511381 0)
(0.128402 -0.00489279 0)
(0.144422 -0.00461999 0)
(0.159369 -0.00426839 0)
(0.173028 -0.00384737 0)
(0.185151 -0.00335593 0)
(0.195519 -0.00280606 0)
(0.203929 -0.00218254 0)
(0.210187 -0.00152959 0)
(0.214151 -0.000827485 0)
(0.215695 -0.000114642 0)
(0.214844 0.00062623 0)
(0.211391 0.00138032 0)
(0.205505 0.00209411 0)
(0.19728 0.00277281 0)
(0.186856 0.00342766 0)
(0.174382 0.00398157 0)
(0.160105 0.00448694 0)
(0.144277 0.00490914 0)
(0.127147 0.00526754 0)
(0.109014 0.00552209 0)
(0.0901606 0.005683 0)
(0.0708592 0.00577776 0)
(0.051388 0.00579801 0)
(0.0319744 0.00574208 0)
(0.0128499 0.00562 0)
(-0.00576632 0.00547051 0)
(-0.023733 0.0052311 0)
(-0.0408983 0.00497567 0)
(-0.0571279 0.00467941 0)
(-0.0723363 0.00437052 0)
(-0.0864733 0.00405675 0)
(-0.0995363 0.00372214 0)
(-0.111482 0.00338573 0)
(-0.122303 0.00305692 0)
(-0.132054 0.00275118 0)
(-0.14077 0.00244352 0)
(-0.148496 0.00215568 0)
(-0.155283 0.00188422 0)
(-0.161158 0.00161634 0)
(-0.166188 0.00138626 0)
(-0.170453 0.00114776 0)
(-0.173964 0.00092297 0)
(-0.176741 0.000747521 0)
(-0.178859 0.000530361 0)
(-0.180334 0.000342237 0)
(-0.181153 0.000159793 0)
(-0.181385 -1.84905e-05 0)
(-0.181004 -0.000214309 0)
(-0.180002 -0.000373269 0)
(-0.178413 -0.000581404 0)
(-0.176174 -0.000740651 0)
(-0.173274 -0.000948749 0)
(-0.169766 -0.00114669 0)
(-0.16554 -0.00136039 0)
(-0.160623 -0.0015558 0)
(-0.154989 -0.00179927 0)
(-0.148595 -0.00200672 0)
(-0.141413 -0.00225564 0)
(-0.133422 -0.00249726 0)
(-0.124602 -0.00274387 0)
(-0.114933 -0.00299784 0)
(-0.104441 -0.00325532 0)
(-0.0930594 -0.00352588 0)
(-0.0808175 -0.00375742 0)
(-0.0677304 -0.00400951 0)
(-0.0538568 -0.00423841 0)
(-0.0392205 -0.00446783 0)
(-0.0238452 -0.00467589 0)
(-0.00779277 -0.00486012 0)
(0.00883884 -0.00501073 0)
(0.025872 -0.00512197 0)
(0.0431865 -0.0051844 0)
(0.0606017 -0.0051836 0)
(0.0779143 -0.00510603 0)
(0.094894 -0.00497821 0)
(0.111306 -0.00477752 0)
(0.126923 -0.00449948 0)
(0.141511 -0.00416021 0)
(0.154824 -0.00375666 0)
(0.166634 -0.00327097 0)
(0.176714 -0.00271655 0)
(0.184829 -0.00210501 0)
(0.19079 -0.0014428 0)
(0.194439 -0.000721776 0)
(0.195607 7.67387e-06 0)
(0.194305 0.000755208 0)
(0.190388 0.00153017 0)
(0.18407 0.00222664 0)
(0.175447 0.0028912 0)
(0.164686 0.00348437 0)
(0.152024 0.00401775 0)
(0.137721 0.00448824 0)
(0.122024 0.004843 0)
(0.105223 0.00513898 0)
(0.087609 0.00533319 0)
(0.0694413 0.00545649 0)
(0.0509986 0.0055109 0)
(0.0325088 0.00549453 0)
(0.01419 0.00540087 0)
(-0.00374792 0.00526388 0)
(-0.0211299 0.00506427 0)
(-0.0377587 0.00484983 0)
(-0.0535611 0.00456856 0)
(-0.0684665 0.00428766 0)
(-0.0823634 0.0039896 0)
(-0.0952821 0.00371614 0)
(-0.107225 0.00340442 0)
(-0.118197 0.00312127 0)
(-0.128224 0.00283954 0)
(-0.137312 0.00257149 0)
(-0.145512 0.00231756 0)
(-0.152871 0.00206756 0)
(-0.159402 0.0018207 0)
(-0.16513 0.00159466 0)
(-0.170086 0.00136613 0)
(-0.174331 0.00115479 0)
(-0.177889 0.000952718 0)
(-0.180751 0.000765249 0)
(-0.182993 0.00057213 0)
(-0.184616 0.000379132 0)
(-0.185562 0.000210093 0)
(-0.185921 1.36913e-05 0)
(-0.185661 -0.00016443 0)
(-0.184787 -0.000345604 0)
(-0.183349 -0.000500566 0)
(-0.181411 -0.000650102 0)
(-0.179 -0.00079974 0)
(-0.176093 -0.000940111 0)
(-0.172678 -0.00111142 0)
(-0.168615 -0.00130286 0)
(-0.163855 -0.00154851 0)
(-0.158299 -0.00174669 0)
(-0.151908 -0.00202066 0)
(-0.144729 -0.00225353 0)
(-0.136739 -0.00248075 0)
(-0.128039 -0.0026898 0)
(-0.11863 -0.00289842 0)
(-0.108565 -0.00309002 0)
(-0.0978382 -0.00330175 0)
(-0.0863832 -0.00351211 0)
(-0.0741866 -0.00372798 0)
(-0.0612628 -0.00396045 0)
(-0.0475755 -0.00419689 0)
(-0.03314 -0.0043841 0)
(-0.0180679 -0.0045564 0)
(-0.00248 -0.00470114 0)
(0.0134988 -0.00478716 0)
(0.0296842 -0.00483227 0)
(0.0459116 -0.00481129 0)
(0.0619743 -0.00473386 0)
(0.0776598 -0.00460361 0)
(0.0927766 -0.00438366 0)
(0.107061 -0.00409525 0)
(0.120275 -0.00374416 0)
(0.132168 -0.00331599 0)
(0.14251 -0.0028113 0)
(0.151055 -0.00224153 0)
(0.157598 -0.00162406 0)
(0.161976 -0.000945863 0)
(0.164126 -0.000286686 0)
(0.163951 0.000386847 0)
(0.161494 0.00109712 0)
(0.156791 0.00173104 0)
(0.14996 0.00236586 0)
(0.141174 0.00289369 0)
(0.130534 0.00340907 0)
(0.118593 0.00380721 0)
(0.105205 0.00414447 0)
(0.0909868 0.00435129 0)
(0.0760712 0.00450282 0)
(0.0607818 0.00459275 0)
(0.045509 0.00459589 0)
(0.030095 0.00450484 0)
(0.0151863 0.0044355 0)
(0.00107431 0.00430499 0)
(-0.0126448 0.00416939 0)
(-0.0260893 0.00400468 0)
(-0.0390931 0.00384485 0)
(-0.0516577 0.00367674 0)
(-0.0636068 0.0034725 0)
(-0.0749562 0.0032709 0)
(-0.0856069 0.00306618 0)
(-0.0954938 0.0028238 0)
(-0.104655 0.00260898 0)
(-0.112992 0.00236639 0)
(-0.120502 0.00212332 0)
(-0.127249 0.00189906 0)
(-0.133191 0.00166616 0)
(-0.138375 0.00144362 0)
(-0.142856 0.00124546 0)
(-0.146651 0.00105229 0)
(-0.149846 0.000878223 0)
(-0.152498 0.000719466 0)
(-0.154649 0.000574061 0)
(-0.156356 0.000453993 0)
(-0.157648 0.0003355 0)
(-0.158596 0.00022716 0)
(-0.159199 0.000131323 0)
(-0.159441 3.82109e-05 0)
(-0.159351 -7.57956e-05 0)
(-0.158901 -0.00019295 0)
(-0.158008 -0.000331544 0)
(-0.156626 -0.000490368 0)
(-0.15465 -0.000678472 0)
(-0.151995 -0.000900069 0)
(-0.148575 -0.00113991 0)
(-0.144274 -0.00140714 0)
(-0.139014 -0.00171341 0)
(-0.132727 -0.00202283 0)
(-0.125341 -0.00237117 0)
(-0.116829 -0.00269874 0)
(-0.107178 -0.00303248 0)
(-0.0963558 -0.00340257 0)
(-0.0843906 -0.00371505 0)
(-0.0713424 -0.00400847 0)
(-0.0572513 -0.00434285 0)
(-0.0422061 -0.00457903 0)
(-0.0262814 -0.00485771 0)
(-0.00970808 -0.00501713 0)
(0.00726514 -0.00510775 0)
(0.0246111 -0.00524873 0)
(0.042196 -0.0052401 0)
(0.0597532 -0.00516288 0)
(0.0770609 -0.00511255 0)
(0.0938998 -0.00490614 0)
(0.110026 -0.00463286 0)
(0.125213 -0.00436475 0)
(0.139244 -0.00396994 0)
(0.151922 -0.00356693 0)
(0.163067 -0.00307203 0)
(0.172527 -0.00254399 0)
(0.18018 -0.00200055 0)
(0.185941 -0.00142508 0)
(0.18977 -0.000842699 0)
(0.191639 -0.000261352 0)
(0.191576 0.000304107 0)
(0.189608 0.000862817 0)
(0.185766 0.00140268 0)
(0.180198 0.00191306 0)
(0.172991 0.002369 0)
(0.164273 0.00280888 0)
(0.154173 0.00321494 0)
(0.142834 0.00353376 0)
(0.130408 0.00385299 0)
(0.117045 0.00407224 0)
(0.1029 0.00430115 0)
(0.0881153 0.00448862 0)
(0.0728385 0.00456409 0)
(0.0571999 0.00466275 0)
(0.0395327 0.00471911 0)
(-0.184347 0.00181125 0)
(-0.187137 0.00142722 0)
(-0.189646 0.00105595 0)
(-0.191415 0.000685538 0)
(-0.192431 0.000325176 0)
(-0.192731 -3.4617e-05 0)
(-0.19229 -0.000400941 0)
(-0.191114 -0.000770585 0)
(-0.189188 -0.00114374 0)
(-0.186502 -0.00152675 0)
(-0.183039 -0.0019148 0)
(-0.178778 -0.00231244 0)
(-0.173697 -0.00273365 0)
(-0.167765 -0.00315728 0)
(-0.160955 -0.00361537 0)
(-0.153231 -0.00406938 0)
(-0.144558 -0.00453443 0)
(-0.134907 -0.00505139 0)
(-0.124253 -0.00553556 0)
(-0.112578 -0.00602025 0)
(-0.0998754 -0.00657416 0)
(-0.0861491 -0.00704486 0)
(-0.0714218 -0.00749166 0)
(-0.0557231 -0.00802604 0)
(-0.0390984 -0.00840637 0)
(-0.0216054 -0.00888018 0)
(-0.00348147 -0.00913193 0)
(0.0151272 -0.00931327 0)
(0.0342059 -0.00958785 0)
(0.0535359 -0.00958553 0)
(0.0728721 -0.00946183 0)
(0.0919849 -0.00940328 0)
(0.110626 -0.00904287 0)
(0.128538 -0.00870254 0)
(0.14545 -0.00809113 0)
(0.161086 -0.00735564 0)
(0.17519 -0.00657659 0)
(0.187515 -0.00562015 0)
(0.197851 -0.0045687 0)
(0.206019 -0.00345796 0)
(0.21189 -0.0022643 0)
(0.215341 -0.00105713 0)
(0.21628 0.00016865 0)
(0.214707 0.00144017 0)
(0.210563 0.00262377 0)
(0.204087 0.00378025 0)
(0.195326 0.0049182 0)
(0.184432 0.00582857 0)
(0.171652 0.00674318 0)
(0.157183 0.00757392 0)
(0.141235 0.00812765 0)
(0.124132 0.00869506 0)
(0.106112 0.00897881 0)
(0.0874142 0.00927376 0)
(0.0682242 0.00945622 0)
(0.0488656 0.00942961 0)
(0.0295611 0.00938185 0)
(0.0109377 0.00923403 0)
(-0.00693633 0.00895618 0)
(-0.0245007 0.00865797 0)
(-0.0415049 0.00825972 0)
(-0.0577761 0.0078634 0)
(-0.0731864 0.0074155 0)
(-0.0876836 0.00693737 0)
(-0.101263 0.00646677 0)
(-0.113845 0.00596461 0)
(-0.125433 0.00547116 0)
(-0.136051 0.0049962 0)
(-0.145692 0.00450364 0)
(-0.154419 0.00406695 0)
(-0.162183 0.00358638 0)
(-0.168993 0.00313469 0)
(-0.174969 0.00270942 0)
(-0.180041 0.00224482 0)
(-0.184188 0.00177276 0)
(-0.187417 0.00138089 0)
(-0.189688 0.000904933 0)
(-0.191151 0.00052887 0)
(-0.191838 9.31115e-05 0)
(-0.191564 -0.000412453 0)
(-0.190405 -0.000751354 0)
(-0.188508 -0.00127736 0)
(-0.185648 -0.00173574 0)
(-0.181748 -0.00218776 0)
(-0.176902 -0.00269387 0)
(-0.170992 -0.00312224 0)
(-0.164201 -0.00355901 0)
(-0.156636 -0.00396766 0)
(-0.148366 -0.00433058 0)
(-0.13933 -0.00462017 0)
(-0.129625 -0.00494459 0)
(-0.119394 -0.00525627 0)
(-0.108493 -0.00559079 0)
(-0.09693 -0.00595379 0)
(-0.0845969 -0.00630473 0)
(-0.0714645 -0.0067022 0)
(-0.0575776 -0.00707976 0)
(-0.0429057 -0.00747419 0)
(-0.0274777 -0.00783876 0)
(-0.011335 -0.00817339 0)
(0.00546324 -0.00846199 0)
(0.0227768 -0.00868201 0)
(0.0404522 -0.00883157 0)
(0.0583324 -0.00889952 0)
(0.0762654 -0.00886756 0)
(0.0940412 -0.0087555 0)
(0.111459 -0.00852082 0)
(0.128316 -0.00815721 0)
(0.144356 -0.0077044 0)
(0.159326 -0.00711004 0)
(0.173005 -0.00640899 0)
(0.185136 -0.00560375 0)
(0.195517 -0.00468385 0)
(0.20394 -0.00363915 0)
(0.210204 -0.00254723 0)
(0.214173 -0.00138031 0)
(0.215728 -0.00018266 0)
(0.21485 0.00104696 0)
(0.211394 0.00230328 0)
(0.205514 0.00350076 0)
(0.197278 0.0046321 0)
(0.186818 0.00571177 0)
(0.174319 0.00664133 0)
(0.160022 0.00748836 0)
(0.144157 0.00819587 0)
(0.127002 0.00877083 0)
(0.108848 0.00920785 0)
(0.089966 0.00948591 0)
(0.0706275 0.00964666 0)
(0.0511204 0.00966701 0)
(0.0316816 0.00957213 0)
(0.012541 0.00937328 0)
(-0.00609809 0.00912006 0)
(-0.0240799 0.00872437 0)
(-0.0412606 0.00829412 0)
(-0.0574953 0.00779226 0)
(-0.0727107 0.00730214 0)
(-0.0868576 0.00675648 0)
(-0.0999094 0.00620184 0)
(-0.111843 0.00564329 0)
(-0.122665 0.00510375 0)
(-0.132418 0.00458176 0)
(-0.14113 0.00407481 0)
(-0.148853 0.00359022 0)
(-0.155628 0.00312696 0)
(-0.161494 0.00271422 0)
(-0.166532 0.00230011 0)
(-0.170796 0.00191923 0)
(-0.17429 0.00154037 0)
(-0.177062 0.00123505 0)
(-0.179178 0.00088776 0)
(-0.180654 0.000570315 0)
(-0.181477 0.00026854 0)
(-0.181711 -3.12253e-05 0)
(-0.18132 -0.000343373 0)
(-0.180323 -0.000633838 0)
(-0.178729 -0.000969451 0)
(-0.17649 -0.00123384 0)
(-0.173602 -0.00158362 0)
(-0.170093 -0.00191403 0)
(-0.165868 -0.00226966 0)
(-0.160954 -0.00259613 0)
(-0.155307 -0.00298681 0)
(-0.14891 -0.00334123 0)
(-0.141738 -0.00376408 0)
(-0.133745 -0.00417002 0)
(-0.124933 -0.00456802 0)
(-0.115276 -0.00500716 0)
(-0.104768 -0.00542059 0)
(-0.0933778 -0.00587193 0)
(-0.0811242 -0.00626049 0)
(-0.0680456 -0.0066821 0)
(-0.054166 -0.00707359 0)
(-0.0395172 -0.00744215 0)
(-0.0241354 -0.00779838 0)
(-0.00806763 -0.00810315 0)
(0.00857165 -0.00836173 0)
(0.0256275 -0.00853504 0)
(0.0429622 -0.00864137 0)
(0.0604033 -0.008639 0)
(0.0777256 -0.00851367 0)
(0.0947176 -0.00830362 0)
(0.11116 -0.00794717 0)
(0.126789 -0.00751546 0)
(0.141385 -0.00694272 0)
(0.154716 -0.00625649 0)
(0.166548 -0.00545531 0)
(0.176655 -0.00452464 0)
(0.184789 -0.00351003 0)
(0.190766 -0.00239755 0)
(0.194409 -0.00120804 0)
(0.195574 7.70814e-06 0)
(0.194255 0.00126598 0)
(0.190335 0.00254744 0)
(0.184003 0.00371778 0)
(0.17536 0.00482913 0)
(0.164585 0.00581742 0)
(0.151907 0.00670644 0)
(0.137573 0.00747955 0)
(0.121858 0.00807703 0)
(0.105034 0.00857251 0)
(0.0873869 0.00889303 0)
(0.0691977 0.00909662 0)
(0.0507378 0.00918535 0)
(0.0322304 0.0091622 0)
(0.0138972 0.00901604 0)
(-0.00406134 0.00877592 0)
(-0.0214503 0.0084466 0)
(-0.0380947 0.00808794 0)
(-0.0539076 0.00760764 0)
(-0.0688077 0.00715213 0)
(-0.0827078 0.00665726 0)
(-0.0956191 0.00617365 0)
(-0.107556 0.00568185 0)
(-0.118522 0.00520176 0)
(-0.128548 0.00474039 0)
(-0.137643 0.00428763 0)
(-0.14584 0.00386055 0)
(-0.153195 0.00344653 0)
(-0.15973 0.00303277 0)
(-0.165461 0.00264438 0)
(-0.170407 0.00229051 0)
(-0.174649 0.00192332 0)
(-0.178199 0.00158352 0)
(-0.181066 0.00128933 0)
(-0.183312 0.000946462 0)
(-0.184929 0.000630052 0)
(-0.185884 0.000354669 0)
(-0.186243 1.55481e-05 0)
(-0.18598 -0.000273911 0)
(-0.185104 -0.000571194 0)
(-0.183667 -0.00083766 0)
(-0.181723 -0.00108224 0)
(-0.179302 -0.00131966 0)
(-0.176406 -0.00156876 0)
(-0.173006 -0.0018563 0)
(-0.168956 -0.00216616 0)
(-0.16419 -0.00257353 0)
(-0.158638 -0.00291898 0)
(-0.152249 -0.00336267 0)
(-0.145058 -0.00376304 0)
(-0.137058 -0.00414704 0)
(-0.128346 -0.00447807 0)
(-0.118935 -0.00482894 0)
(-0.108865 -0.0051595 0)
(-0.0981198 -0.00550461 0)
(-0.0866404 -0.00584105 0)
(-0.0744425 -0.00622544 0)
(-0.0615113 -0.0066069 0)
(-0.0478007 -0.00698846 0)
(-0.0333437 -0.00730673 0)
(-0.0182654 -0.00760887 0)
(-0.00264944 -0.00783432 0)
(0.0133479 -0.00798603 0)
(0.0295626 -0.0080555 0)
(0.0458204 -0.00801926 0)
(0.061901 -0.00790489 0)
(0.0776172 -0.00766799 0)
(0.0927548 -0.00730987 0)
(0.107059 -0.00682838 0)
(0.120293 -0.0062526 0)
(0.13222 -0.0055293 0)
(0.142592 -0.00467827 0)
(0.151152 -0.00373791 0)
(0.157712 -0.00271612 0)
(0.162099 -0.0015864 0)
(0.164264 -0.000471016 0)
(0.16409 0.000644487 0)
(0.16163 0.0018312 0)
(0.156926 0.00288134 0)
(0.150087 0.00395029 0)
(0.141294 0.00482542 0)
(0.130636 0.00568757 0)
(0.118673 0.00634684 0)
(0.105264 0.00690632 0)
(0.0910224 0.00726292 0)
(0.076091 0.00750588 0)
(0.0607836 0.00766037 0)
(0.0454844 0.00766103 0)
(0.0300622 0.00751228 0)
(0.0151489 0.00739532 0)
(0.00102888 0.00717554 0)
(-0.0126946 0.00695047 0)
(-0.0261396 0.00667554 0)
(-0.0391441 0.00640805 0)
(-0.0517111 0.00612915 0)
(-0.0636637 0.00578868 0)
(-0.0750133 0.00545062 0)
(-0.0856676 0.00511027 0)
(-0.0955563 0.00470684 0)
(-0.104719 0.00434753 0)
(-0.113056 0.00394364 0)
(-0.120566 0.00353952 0)
(-0.12731 0.0031653 0)
(-0.133252 0.0027768 0)
(-0.138431 0.00240812 0)
(-0.142907 0.00208048 0)
(-0.146699 0.00175671 0)
(-0.149891 0.00146079 0)
(-0.152538 0.00119945 0)
(-0.154685 0.000956004 0)
(-0.156387 0.000757227 0)
(-0.157678 0.000559364 0)
(-0.158624 0.000377046 0)
(-0.159224 0.000220234 0)
(-0.159469 6.45178e-05 0)
(-0.159381 -0.000126983 0)
(-0.158935 -0.000320687 0)
(-0.158048 -0.000551745 0)
(-0.156673 -0.000816148 0)
(-0.154703 -0.00112959 0)
(-0.152056 -0.00149922 0)
(-0.148643 -0.00189858 0)
(-0.144349 -0.00234416 0)
(-0.139096 -0.00285491 0)
(-0.132813 -0.00337063 0)
(-0.125431 -0.00395121 0)
(-0.11692 -0.0044979 0)
(-0.107269 -0.00505448 0)
(-0.096446 -0.00567143 0)
(-0.0844767 -0.00619248 0)
(-0.0714227 -0.00668173 0)
(-0.0573257 -0.00723936 0)
(-0.0422715 -0.00763334 0)
(-0.0263375 -0.00809833 0)
(-0.00975002 -0.00836364 0)
(0.00723716 -0.00851507 0)
(0.0245966 -0.00875053 0)
(0.0421978 -0.00873632 0)
(0.0597719 -0.00860769 0)
(0.0770987 -0.00852396 0)
(0.0939553 -0.00817993 0)
(0.110099 -0.00772429 0)
(0.125304 -0.00727733 0)
(0.13935 -0.00661904 0)
(0.152044 -0.00594711 0)
(0.1632 -0.00512184 0)
(0.172668 -0.00424133 0)
(0.18033 -0.00333519 0)
(0.186094 -0.00237584 0)
(0.189922 -0.00140483 0)
(0.191796 -0.000432924 0)
(0.191731 0.000505804 0)
(0.189747 0.00143964 0)
(0.185903 0.00233891 0)
(0.180328 0.00318993 0)
(0.17311 0.00394998 0)
(0.164381 0.00468328 0)
(0.154271 0.00536019 0)
(0.142919 0.00589158 0)
(0.130482 0.00642371 0)
(0.117106 0.00678908 0)
(0.102949 0.00717061 0)
(0.0881527 0.00748305 0)
(0.0728636 0.00760872 0)
(0.0572136 0.00777313 0)
(0.0395341 0.00786701 0)
(-0.184438 0.0025352 0)
(-0.187227 0.00199779 0)
(-0.189734 0.0014781 0)
(-0.191499 0.000960925 0)
(-0.19252 0.000455407 0)
(-0.192818 -4.94821e-05 0)
(-0.192378 -0.000562073 0)
(-0.191203 -0.00107868 0)
(-0.189278 -0.0016009 0)
(-0.186594 -0.00213697 0)
(-0.183133 -0.00268009 0)
(-0.178874 -0.00323671 0)
(-0.173797 -0.00382633 0)
(-0.167869 -0.00441927 0)
(-0.161063 -0.00506069 0)
(-0.153343 -0.00569619 0)
(-0.144673 -0.00634743 0)
(-0.135026 -0.00707135 0)
(-0.124373 -0.00774941 0)
(-0.112698 -0.00842829 0)
(-0.0999968 -0.00920416 0)
(-0.0862671 -0.00986358 0)
(-0.0715342 -0.0104896 0)
(-0.0558304 -0.0112382 0)
(-0.0391951 -0.0117709 0)
(-0.021689 -0.0124347 0)
(-0.00354833 -0.0127897 0)
(0.0150778 -0.0130439 0)
(0.0341787 -0.0134287 0)
(0.0535339 -0.0134259 0)
(0.0728965 -0.0132531 0)
(0.0920409 -0.0131718 0)
(0.110711 -0.0126673 0)
(0.128659 -0.0121911 0)
(0.1456 -0.011335 0)
(0.161265 -0.0103048 0)
(0.175401 -0.00921431 0)
(0.187751 -0.00787462 0)
(0.198109 -0.00640187 0)
(0.206296 -0.00484616 0)
(0.212181 -0.00317247 0)
(0.215643 -0.00148529 0)
(0.216579 0.000243291 0)
(0.214977 0.00202387 0)
(0.210839 0.00367358 0)
(0.204351 0.00529561 0)
(0.195573 0.0068905 0)
(0.184653 0.00816553 0)
(0.171846 0.00944692 0)
(0.15735 0.0106103 0)
(0.141372 0.0113855 0)
(0.124236 0.0121802 0)
(0.106184 0.0125775 0)
(0.0874586 0.0129901 0)
(0.068243 0.0132431 0)
(0.0488588 0.0132074 0)
(0.0295288 0.0131398 0)
(0.0108869 0.0129322 0)
(-0.00700385 0.0125426 0)
(-0.0245849 0.0121252 0)
(-0.0415992 0.0115663 0)
(-0.0578809 0.0110114 0)
(-0.0732975 0.0103833 0)
(-0.0877966 0.00971397 0)
(-0.101381 0.0090549 0)
(-0.113964 0.00835026 0)
(-0.125548 0.00766068 0)
(-0.13617 0.00699559 0)
(-0.145804 0.00630484 0)
(-0.154532 0.0056956 0)
(-0.162299 0.00501962 0)
(-0.169102 0.00439023 0)