/*--------------------------------*- C++ -*----------------------------------*\
| =========                 |                                                 |
| \\      /  F ield         | OpenFOAM: The Open Source CFD Toolbox           |
|  \\    /   O peration     | Version:  3.0.1                                 |
|   \\  /    A nd           | Web:      www.OpenFOAM.org                      |
|    \\/     M anipulation  |                                                 |
\*---------------------------------------------------------------------------*/
FoamFile
{
    version     2.0;
    format      ascii;
    class       surfaceScalarField;
    location    "26.4";
    object      phi;
}
// * * * * * * * * * * * * * * * * * * * * * * * * * * * * * * * * * * * * * //

dimensions      [0 3 -1 0 0 0 0];

internalField   nonuniform List<scalar> 
42423
(
0.000103043
1.71975e-05
8.55442e-05
1.74988e-05
6.7559e-05
1.79851e-05
4.9249e-05
1.831e-05
3.10068e-05
1.82422e-05
1.28068e-05
1.82e-05
-4.94516e-06
1.7752e-05
-2.22523e-05
1.73071e-05
-3.88771e-05
1.66248e-05
-5.46791e-05
1.5802e-05
-6.96362e-05
1.49571e-05
-8.36544e-05
1.40182e-05
-9.66939e-05
1.30394e-05
-0.000108763
1.2069e-05
-0.000119832
1.10689e-05
-0.000129942
1.01097e-05
-0.000139094
9.15245e-06
-0.000147293
8.19936e-06
-0.000154588
7.2949e-06
-0.000160993
6.40504e-06
-0.000166535
5.54151e-06
-0.000171258
4.72348e-06
-0.000175165
3.90633e-06
-0.000178286
3.12183e-06
-0.00018063
2.34318e-06
-0.000182246
1.61654e-06
-0.000183155
9.0895e-07
-0.00018333
1.74507e-07
-0.000182679
-6.50574e-07
-0.000181286
-1.39266e-06
-0.000179132
-2.15454e-06
-0.000176179
-2.95242e-06
-0.000172469
-3.71023e-06
-0.00016791
-4.55894e-06
-0.000162567
-5.34321e-06
-0.000156405
-6.16242e-06
-0.000149303
-7.10203e-06
-0.000141427
-7.87625e-06
-0.000132608
-8.81829e-06
-0.000122817
-9.79155e-06
-0.000112171
-1.0646e-05
-0.000100375
-1.17955e-05
-8.77242e-05
-1.26512e-05
-7.41595e-05
-1.35648e-05
-5.97195e-05
-1.444e-05
-4.42719e-05
-1.54477e-05
-2.81924e-05
-1.60795e-05
-1.14025e-05
-1.67901e-05
6.29429e-06
-1.76968e-05
2.42435e-05
-1.79493e-05
4.25848e-05
-1.83414e-05
6.09986e-05
-1.84139e-05
7.94234e-05
-1.84249e-05
9.76849e-05
-1.82615e-05
0.000115351
-1.7666e-05
0.000132335
-1.69839e-05
0.000148447
-1.61125e-05
0.000163321
-1.48738e-05
0.000176853
-1.35327e-05
0.000188751
-1.18982e-05
0.000198866
-1.01147e-05
0.000207143
-8.27714e-06
0.000213229
-6.08623e-06
0.000217143
-3.91339e-06
0.000218778
-1.63585e-06
0.0002181
6.77823e-07
0.000215092
3.00863e-06
0.000209748
5.34348e-06
0.000202209
7.53957e-06
0.000192453
9.75561e-06
0.000180754
1.16986e-05
0.00016725
1.3504e-05
0.000152093
1.51567e-05
0.000135649
1.64443e-05
0.000118057
1.75921e-05
9.97433e-05
1.83135e-05
8.08507e-05
1.88926e-05
6.16717e-05
1.91789e-05
4.25237e-05
1.9148e-05
2.36082e-05
1.89155e-05
5.08445e-06
1.85237e-05
-1.27797e-05
1.78642e-05
-2.98624e-05
1.70826e-05
-4.60953e-05
1.62329e-05
-6.13786e-05
1.52833e-05
-7.56831e-05
1.43045e-05
-8.89227e-05
1.32396e-05
-0.000101173
1.22503e-05
-0.0001124
1.12269e-05
-0.000122651
1.02511e-05
-0.000131917
9.26586e-06
-0.000140121
8.20393e-06
-0.000147399
7.27833e-06
-0.000153689
6.28993e-06
-0.000159081
5.39183e-06
-0.000163553
4.47192e-06
-0.000167226
3.67311e-06
-0.000170077
2.85067e-06
-0.000172238
2.16146e-06
-0.000173657
1.41841e-06
-0.000174325
6.6875e-07
-0.000174356
3.02677e-08
-0.000173789
-5.6664e-07
-0.000172471
-1.318e-06
-0.00017059
-1.88115e-06
-0.000168069
-2.521e-06
-0.000164941
-3.12809e-06
-0.000161165
-3.77588e-06
-0.000156695
-4.4699e-06
-0.000151536
-5.15935e-06
-0.000145678
-5.85784e-06
-0.000139064
-6.61378e-06
-0.000131682
-7.38232e-06
-0.00012347
-8.21241e-06
-0.000114492
-8.97717e-06
-0.000104679
-9.81348e-06
-9.40354e-05
-1.06437e-05
-8.25364e-05
-1.1499e-05
-7.01882e-05
-1.23482e-05
-5.7085e-05
-1.31033e-05
-4.31214e-05
-1.39637e-05
-2.83266e-05
-1.47949e-05
-1.29169e-05
-1.54098e-05
3.18051e-06
-1.60975e-05
1.99058e-05
-1.67254e-05
3.7093e-05
-1.71873e-05
5.46391e-05
-1.75463e-05
7.23716e-05
-1.77326e-05
9.01086e-05
-1.77372e-05
0.000107658
-1.75493e-05
0.000124793
-1.71357e-05
0.00014126
-1.64669e-05
0.000156764
-1.55043e-05
0.000171085
-1.43211e-05
0.000183954
-1.28688e-05
0.000195075
-1.11214e-05
0.00020427
-9.19466e-06
0.000211329
-7.05903e-06
0.000216123
-4.7947e-06
0.000218514
-2.3907e-06
0.0002185
1.3896e-08
0.000216033
2.46726e-06
0.000211072
4.96079e-06
0.000203799
7.27215e-06
0.000194339
9.4604e-06
0.000182866
1.14733e-05
0.000169595
1.32702e-05
0.000154706
1.48896e-05
0.00013852
1.61851e-05
0.000121257
1.72629e-05
0.000103219
1.80381e-05
8.47953e-05
1.8424e-05
6.61022e-05
1.86931e-05
4.76322e-05
1.847e-05
2.94386e-05
1.81935e-05
1.17712e-05
1.76674e-05
-5.11657e-06
1.68877e-05
-2.12503e-05
1.61337e-05
-3.64043e-05
1.5154e-05
-5.05534e-05
1.41491e-05
-6.378e-05
1.32266e-05
-7.5883e-05
1.2103e-05
-8.70348e-05
1.11518e-05
-9.71618e-05
1.01269e-05
-0.000106383
9.22145e-06
-0.00011466
8.2767e-06
-0.000122055
7.39501e-06
-0.000128626
6.57125e-06
-0.000134396
5.77021e-06
-0.000139413
5.0161e-06
-0.000143699
4.28611e-06
-0.000147346
3.64686e-06
-0.000150367
3.02194e-06
-0.000152672
2.3041e-06
-0.00015438
1.70844e-06
-0.000155395
1.01459e-06
-0.000155774
3.79074e-07
-0.000155662
-1.12068e-07
-0.000154849
-8.13148e-07
-0.000153437
-1.41112e-06
-0.000151442
-1.99503e-06
-0.000148719
-2.7236e-06
-0.00014544
-3.27883e-06
-0.000141369
-4.07098e-06
-0.000136546
-4.82268e-06
-0.000130927
-5.61888e-06
-0.000124533
-6.39413e-06
-0.000117244
-7.28919e-06
-0.000109066
-8.17829e-06
-0.000100006
-9.05972e-06
-9.0023e-05
-9.98328e-06
-7.90836e-05
-1.09394e-05
-6.71503e-05
-1.19333e-05
-5.44212e-05
-1.27291e-05
-4.07261e-05
-1.36952e-05
-2.62005e-05
-1.45256e-05
-1.08779e-05
-1.53227e-05
5.18544e-06
-1.60634e-05
2.18992e-05
-1.67138e-05
3.91574e-05
-1.72583e-05
5.6825e-05
-1.76677e-05
7.47551e-05
-1.79302e-05
9.2763e-05
-1.8008e-05
0.000110662
-1.78988e-05
0.000128271
-1.76096e-05
0.000145323
-1.70514e-05
0.000161609
-1.6286e-05
0.00017688
-1.52721e-05
0.000190918
-1.40372e-05
0.000203459
-1.25415e-05
0.000214283
-1.08239e-05
0.000223244
-8.96068e-06
0.000230102
-6.85812e-06
0.00023477
-4.66892e-06
0.000237135
-2.365e-06
0.000237258
-1.22418e-07
0.000235099
2.15871e-06
0.000230538
4.56067e-06
0.000223813
6.72527e-06
0.00021499
8.82238e-06
0.000204178
1.08122e-05
0.000191696
1.24818e-05
0.000177539
1.41576e-05
0.00016215
1.53887e-05
0.000145706
1.64434e-05
0.000128433
1.72738e-05
0.000110612
1.78208e-05
9.2453e-05
1.81587e-05
7.4117e-05
1.83359e-05
5.59797e-05
1.81372e-05
3.81307e-05
1.7849e-05
2.07429e-05
1.73878e-05
4.05609e-06
1.66868e-05
-1.19026e-05
1.59587e-05
-2.69634e-05
1.50608e-05
-4.10964e-05
1.4133e-05
-5.42086e-05
1.31122e-05
-6.63205e-05
1.21118e-05
-7.74081e-05
1.10876e-05
-8.74204e-05
1.00123e-05
-9.65357e-05
9.11534e-06
-0.000104625
8.08909e-06
-0.000111842
7.21745e-06
-0.000118217
6.375e-06
-0.000123692
5.47455e-06
-0.000128357
4.6653e-06
-0.000132157
3.79985e-06
-0.000135343
3.18584e-06
-0.000137756
2.41292e-06
-0.000139433
1.67694e-06
-0.000140452
1.01934e-06
-0.000140854
4.02124e-07
-0.000140737
-1.17632e-07
-0.000139911
-8.25312e-07
-0.000138347
-1.56415e-06
-0.000136333
-2.01402e-06
-0.000133593
-2.74057e-06
-0.000130241
-3.35127e-06
-0.000126283
-3.95881e-06
-0.000121664
-4.61816e-06
-0.00011642
-5.24441e-06
-0.000110455
-5.96492e-06
-0.000103758
-6.69695e-06
-9.65059e-05
-7.2522e-06
-8.83363e-05
-8.16964e-06
-7.95886e-05
-8.7477e-06
-6.99328e-05
-9.65592e-06
-5.94403e-05
-1.04925e-05
-4.81099e-05
-1.13304e-05
-3.60633e-05
-1.20466e-05
-2.31487e-05
-1.29146e-05
-9.31065e-06
-1.38381e-05
5.16317e-06
-1.44739e-05
2.05441e-05
-1.5381e-05
3.67331e-05
-1.61891e-05
5.35843e-05
-1.68512e-05
7.10545e-05
-1.74702e-05
8.9036e-05
-1.79816e-05
0.000107252
-1.82163e-05
0.000125635
-1.83828e-05
0.000143795
-1.81606e-05
0.000161555
-1.77592e-05
0.000178624
-1.70694e-05
0.00019458
-1.59561e-05
0.000209132
-1.45523e-05
0.000222012
-1.28803e-05
0.000232818
-1.08052e-05
0.000241381
-8.56322e-06
0.000247339
-5.95806e-06
0.000250527
-3.18788e-06
0.000250698
-1.71579e-07
0.000248272
2.42557e-06
0.000243515
4.75749e-06
0.00023657
6.94438e-06
0.000227328
9.24193e-06
0.00021615
1.11785e-05
0.000203123
1.30272e-05
0.000188476
1.46465e-05
0.000172611
1.58654e-05
0.000155664
1.6947e-05
0.000138083
1.75809e-05
0.000119949
1.81333e-05
0.000101527
1.84222e-05
8.31066e-05
1.84205e-05
6.47711e-05
1.83355e-05
4.67706e-05
1.80005e-05
2.92084e-05
1.75622e-05
1.2184e-05
1.70244e-05
-4.01059e-06
1.61946e-05
-1.95176e-05
1.5507e-05
-3.41821e-05
1.46645e-05
-4.78919e-05
1.37097e-05
-6.06308e-05
1.2739e-05
-7.23773e-05
1.17465e-05
-8.31e-05
1.07227e-05
-9.28331e-05
9.73317e-06
-0.000101587
8.75337e-06
-0.000109407
7.82049e-06
-0.000116305
6.89766e-06
-0.000122332
6.02697e-06
-0.000127529
5.19694e-06
-0.000131916
4.3876e-06
-0.00013554
3.62385e-06
-0.00013841
2.86995e-06
-0.000140555
2.14543e-06
-0.000141998
1.44223e-06
-0.000142737
7.39632e-07
-0.000142755
1.79251e-08
-0.000142015
-7.39791e-07
-0.000140544
-1.47109e-06
-0.000138318
-2.22679e-06
-0.000135389
-2.92842e-06
-0.000131796
-3.59298e-06
-0.000127454
-4.342e-06
-0.00012247
-4.9843e-06
-0.00011674
-5.72962e-06
-0.000110331
-6.40945e-06
-0.000103313
-7.01794e-06
-9.552e-05
-7.79291e-06
-8.70359e-05
-8.48419e-06
-7.79825e-05
-9.05344e-06
-6.80766e-05
-9.90585e-06
-5.75197e-05
-1.0557e-05
-4.61611e-05
-1.13586e-05
-3.4113e-05
-1.20482e-05
-2.13292e-05
-1.27838e-05
-7.63786e-06
-1.36914e-05
6.75061e-06
-1.43885e-05
2.17639e-05
-1.50134e-05
3.74776e-05
-1.57137e-05
5.3656e-05
-1.61784e-05
7.03987e-05
-1.67428e-05
8.73943e-05
-1.69957e-05
0.000104357
-1.69626e-05
0.000121318
-1.69608e-05
0.000137933
-1.66159e-05
-1.63367e-05
0.000103066
3.44016e-05
8.55599e-05
3.50047e-05
6.75672e-05
3.59779e-05
4.92493e-05
3.66278e-05
3.09993e-05
3.64921e-05
1.27968e-05
3.64025e-05
-4.96504e-06
3.55138e-05
-2.22785e-05
3.46206e-05
-3.89093e-05
3.32556e-05
-5.47155e-05
3.16082e-05
-6.96754e-05
2.9917e-05
-8.36967e-05
2.80395e-05
-9.67391e-05
2.60818e-05
-0.000108811
2.41405e-05
-0.000119887
2.21449e-05
-0.000129997
2.02199e-05
-0.000139148
1.83035e-05
-0.000147352
1.64039e-05
-0.00015465
1.45922e-05
-0.000161056
1.28116e-05
-0.0001666
1.10848e-05
-0.000171321
9.4452e-06
-0.000175227
7.81224e-06
-0.000178345
6.23992e-06
-0.000180694
4.69159e-06
-0.000182308
3.23118e-06
-0.000183213
1.81327e-06
-0.000183384
3.45958e-07
-0.000182732
-1.30288e-06
-0.000181339
-2.78532e-06
-0.000179192
-4.30136e-06
-0.000176235
-5.90956e-06
-0.000172526
-7.41919e-06
-0.000167968
-9.11691e-06
-0.000162626
-1.06856e-05
-0.000156463
-1.23253e-05
-0.000149364
-1.42015e-05
-0.000141478
-1.5762e-05
-0.000132667
-1.763e-05
-0.000122887
-1.95717e-05
-0.000112223
-2.13094e-05
-0.000100431
-2.35878e-05
-8.7781e-05
-2.53014e-05
-7.42124e-05
-2.71335e-05
-5.97651e-05
-2.88875e-05
-4.43197e-05
-3.08932e-05
-2.82327e-05
-3.21666e-05
-1.14472e-05
-3.35758e-05
6.26369e-06
-3.54079e-05
2.42204e-05
-3.59062e-05
4.25706e-05
-3.66918e-05
6.09976e-05
-3.68411e-05
7.94365e-05
-3.6864e-05
9.77098e-05
-3.6535e-05
0.000115388
-3.5344e-05
0.00013239
-3.39868e-05
0.000148512
-3.2234e-05
0.0001634
-2.97623e-05
0.000176953
-2.70858e-05
0.000188855
-2.38004e-05
0.000198983
-2.02428e-05
0.00020727
-1.65647e-05
0.000213358
-1.21739e-05
0.000217294
-7.84945e-06
0.000218942
-3.28469e-06
0.000218242
1.37751e-06
0.000215226
6.02447e-06
0.000209884
1.06859e-05
0.000202341
1.50828e-05
0.000192576
1.95199e-05
0.000180869
2.34056e-05
0.000167356
2.70166e-05
0.000152185
3.03284e-05
0.00013573
3.28985e-05
0.000118127
3.51955e-05
9.98003e-05
3.664e-05
8.08931e-05
3.77998e-05
6.17017e-05
3.83702e-05
4.25458e-05
3.83038e-05
2.36142e-05
3.78471e-05
5.07639e-06
3.70615e-05
-1.27963e-05
3.57368e-05
-2.98906e-05
3.41769e-05
-4.61327e-05
3.2475e-05
-6.14215e-05
3.05721e-05
-7.57283e-05
2.86113e-05
-8.89722e-05
2.64835e-05
-0.000101229
2.45074e-05
-0.000112463
2.24601e-05
-0.000122716
2.05041e-05
-0.000131988
1.85387e-05
-0.000140193
1.64086e-05
-0.00014748
1.45655e-05
-0.000153764
1.25732e-05
-0.000159153
1.07815e-05
-0.000163635
8.95332e-06
-0.000167311
7.34975e-06
-0.000170153
5.6921e-06
-0.000172321
4.32971e-06
-0.000173752
2.84909e-06
-0.000174403
1.32025e-06
-0.000174417
4.41139e-08
-0.000173851
-1.13243e-06
-0.000172525
-2.64464e-06
-0.000170645
-3.76109e-06
-0.000168128
-5.03804e-06
-0.000164995
-6.26059e-06
-0.00016122
-7.55151e-06
-0.000156759
-8.93091e-06
-0.000151599
-1.03196e-05
-0.000145735
-1.17212e-05
-0.000139114
-1.32355e-05
-0.000131723
-1.47733e-05
-0.000123517
-1.64187e-05
-0.000114542
-1.79523e-05
-0.000104722
-1.96335e-05
-9.40865e-05
-2.12789e-05
-8.25803e-05
-2.30054e-05
-7.02281e-05
-2.47006e-05
-5.71265e-05
-2.6205e-05
-4.31562e-05
-2.79342e-05
-2.83614e-05
-2.95898e-05
-1.29424e-05
-3.08291e-05
3.16224e-06
-3.22023e-05
1.98953e-05
-3.34586e-05
3.7083e-05
-3.43752e-05
5.46357e-05
-3.50992e-05
7.23858e-05
-3.5483e-05
9.01355e-05
-3.5487e-05
0.00010769
-3.51045e-05
0.00012483
-3.42759e-05
0.000141314
-3.29507e-05
0.000156838
-3.10289e-05
0.000171156
-2.8639e-05
0.000184041
-2.57538e-05
0.000195178
-2.22587e-05
0.000204375
-1.83924e-05
0.000211435
-1.41184e-05
0.000216239
-9.5999e-06
0.000218638
-4.78927e-06
0.000218608
4.34547e-08
0.00021613
4.94505e-06
0.000211163
9.92784e-06
0.000203881
1.45538e-05
0.000194408
1.89332e-05
0.000182919
2.29625e-05
0.000169642
2.6547e-05
0.000154747
2.9784e-05
0.000138541
3.23916e-05
0.000121258
3.45454e-05
0.000103208
3.60876e-05
8.47466e-05
3.68857e-05
6.60542e-05
3.73854e-05
4.75663e-05
3.69578e-05
2.93646e-05
3.63951e-05
1.16816e-05
3.53503e-05
-5.20215e-06
3.37714e-05
-2.13303e-05
3.22619e-05
-3.64969e-05
3.03205e-05
-5.06505e-05
2.83027e-05
-6.38759e-05
2.64519e-05
-7.59752e-05
2.42023e-05
-8.71234e-05
2.23e-05
-9.72523e-05
2.02558e-05
-0.000106477
1.84457e-05
-0.000114748
1.65486e-05
-0.000122141
1.47872e-05
-0.000128716
1.31462e-05
-0.000134486
1.15404e-05
-0.000139497
1.00277e-05
-0.000143764
8.55286e-06
-0.000147411
7.29404e-06
-0.000150446
6.05676e-06
-0.000152743
4.6012e-06
-0.000154452
3.41737e-06
-0.000155472
2.03386e-06
-0.00015584
7.47865e-07
-0.000155724
-2.28675e-07
-0.000154909
-1.62767e-06
-0.000153491
-2.82895e-06
-0.000151498
-3.98865e-06
-0.000148776
-5.44593e-06
-0.000145499
-6.55568e-06
-0.000141429
-8.14059e-06
-0.000136596
-9.65607e-06
-0.000130977
-1.12374e-05
-0.000124585
-1.27864e-05
-0.000117301
-1.45732e-05
-0.000109118
-1.63615e-05
-0.000100062
-1.81157e-05
-9.00757e-05
-1.99696e-05
-7.9123e-05
-2.18922e-05
-6.71976e-05
-2.38587e-05
-5.44637e-05
-2.54631e-05
-4.07591e-05
-2.73998e-05
-2.62333e-05
-2.90516e-05
-1.0906e-05
-3.06501e-05
5.17502e-06
-3.21446e-05
2.18811e-05
-3.342e-05
3.91469e-05
-3.45243e-05
5.6829e-05
-3.53499e-05
7.47754e-05
-3.58767e-05
9.27849e-05
-3.60177e-05
0.000110688
-3.58022e-05
0.000128308
-3.523e-05
0.000145377
-3.412e-05
0.000161674
-3.25828e-05
0.000176951
-3.05499e-05
0.000190995
-2.80815e-05
0.000203548
-2.5094e-05
0.000214388
-2.16648e-05
0.000223364
-1.79368e-05
0.000230205
-1.36989e-05
0.000234878
-9.3423e-06
0.000237257
-4.74354e-06
0.00023737
-2.35537e-07
0.000235188
4.33977e-06
0.000230631
9.11805e-06
0.0002239
1.34558e-05
0.000215071
1.76516e-05
0.000204239
2.16443e-05
0.000191719
2.50017e-05
0.000177569
2.83079e-05
0.000162172
3.07853e-05
0.00014572
3.28949e-05
0.000128425
3.45693e-05
0.000110591
3.56549e-05
9.24227e-05
3.63266e-05
7.40751e-05
3.66835e-05
5.59285e-05
3.62838e-05
3.80459e-05
3.57316e-05
2.0661e-05
3.47727e-05
3.96896e-06
3.33788e-05
-1.19838e-05
3.19114e-05
-2.7049e-05
3.01259e-05
-4.11854e-05
2.82695e-05
-5.43107e-05
2.62374e-05
-6.64164e-05
2.42175e-05
-7.75046e-05
2.21758e-05
-8.75375e-05
2.00451e-05
-9.66265e-05
1.82043e-05
-0.000104721
1.61831e-05
-0.000111932
1.44289e-05
-0.000118305
1.27481e-05
-0.000123777
1.09459e-05
-0.000128437
9.32591e-06
-0.000132243
7.60558e-06
-0.000135421
6.36432e-06
-0.000137831
4.82199e-06
-0.0001395
3.34609e-06
-0.000140531
2.05082e-06
-0.000140937
8.07908e-07
-0.000140798
-2.56847e-07
-0.000139986
-1.63696e-06
-0.000138432
-3.11858e-06
-0.000136391
-4.05494e-06
-0.000133648
-5.48335e-06
-0.000130293
-6.70611e-06
-0.000126334
-7.91796e-06
-0.000121714
-9.23847e-06
-0.000116466
-1.04925e-05
-0.000110507
-1.19237e-05
-0.000103801
-1.34027e-05
-9.65585e-05
-1.4495e-05
-8.83928e-05
-1.63354e-05
-7.96262e-05
-1.75144e-05
-6.99728e-05
-1.93093e-05
-5.948e-05
-2.09854e-05
-4.81436e-05
-2.26669e-05
-3.60928e-05
-2.40974e-05
-2.31803e-05
-2.58272e-05
-9.33012e-06
-2.76884e-05
5.13727e-06
-2.89414e-05
2.05168e-05
-3.07607e-05
3.67095e-05
-3.23818e-05
5.35589e-05
-3.37007e-05
7.1033e-05
-3.49445e-05
8.9017e-05
-3.59658e-05
0.000107236
-3.6435e-05
0.000125624
-3.67715e-05
0.00014379
-3.63268e-05
0.000161562
-3.55313e-05
0.000178644
-3.41517e-05
0.00019459
-3.19021e-05
0.000209137
-2.90995e-05
0.000222045
-2.57885e-05
0.000232825
-2.1585e-05
0.000241358
-1.70961e-05
0.000247351
-1.19518e-05
0.000250566
-6.40232e-06
0.000250728
-3.33916e-07
0.000248316
4.83698e-06
0.000243594
9.47987e-06
0.000236665
1.38733e-05
0.00022742
1.84865e-05
0.000216235
2.23633e-05
0.0002032
2.60626e-05
0.000188543
2.93028e-05
0.000172668
3.17407e-05
0.00015571
3.39053e-05
0.000138119
3.51715e-05
0.000119976
3.62767e-05
0.000101544
3.68535e-05
8.31154e-05
3.68493e-05
6.47716e-05
3.66793e-05
4.67639e-05
3.60081e-05
2.91959e-05
3.51301e-05
1.21611e-05
3.40592e-05
-4.03423e-06
3.23899e-05
-1.95472e-05
3.102e-05
-3.42165e-05
2.93338e-05
-4.79297e-05
2.7423e-05
-6.06734e-05
2.54827e-05
-7.24231e-05
2.34961e-05
-8.31457e-05
2.14453e-05
-9.28802e-05
1.94677e-05
-0.000101634
1.75069e-05
-0.000109454
1.56405e-05
-0.000116357
1.38006e-05
-0.000122389
1.20589e-05
-0.000127587
1.03953e-05
-0.000131977
8.77764e-06
-0.000135596
7.24229e-06
-0.00013846
5.73417e-06
-0.000140604
4.29004e-06
-0.000142052
2.89027e-06
-0.000142801
1.4884e-06
-0.00014281
2.66034e-08
-0.000142062
-1.48811e-06
-0.000140585
-2.94771e-06
-0.000138365
-4.44709e-06
-0.000135437
-5.85632e-06
-0.000131839
-7.19083e-06
-0.000127501
-8.67992e-06
-0.000122516
-9.96939e-06
-0.000116788
-1.14574e-05
-0.000110358
-1.284e-05
-0.000103358
-1.40174e-05
-9.55597e-05
-1.55916e-05
-8.70765e-05
-1.69674e-05
-7.80198e-05
-1.81102e-05
-6.81139e-05
-1.98118e-05
-5.75567e-05
-2.11143e-05
-4.61937e-05
-2.27217e-05
-3.41351e-05
-2.41069e-05
-2.1362e-05
-2.5557e-05
-7.67299e-06
-2.73805e-05
6.71407e-06
-2.87757e-05
2.1727e-05
-3.00265e-05
3.74418e-05
-3.14286e-05
5.36253e-05
-3.23621e-05
7.03758e-05
-3.34935e-05
8.7374e-05
-3.3994e-05
0.000104344
-3.39323e-05
0.00012132
-3.39377e-05
0.000137953
-3.32487e-05
-3.2685e-05
0.000103109
5.16219e-05
8.55866e-05
5.25268e-05
6.75778e-05
5.39867e-05
4.92448e-05
5.49608e-05
3.09801e-05
5.47569e-05
1.2777e-05
5.46056e-05
-5.01074e-06
5.33015e-05
-2.23376e-05
5.19474e-05
-3.89773e-05
4.98953e-05
-5.47916e-05
4.74226e-05
-6.97593e-05
4.48847e-05
-8.37848e-05
4.20649e-05
-9.68285e-05
3.91255e-05
-0.000108903
3.62147e-05
-0.000119976
3.32185e-05
-0.000130089
3.03326e-05
-0.000139242
2.74559e-05
-0.000147443
2.46056e-05
-0.000154742
2.18913e-05
-0.000161148
1.92167e-05
-0.000166693
1.66305e-05
-0.000171409
1.4161e-05
-0.000175317
1.17199e-05
-0.00017844
9.36338e-06
-0.000180794
7.04571e-06
-0.000182402
4.83868e-06
-0.000183298
2.70903e-06
-0.000183459
5.07328e-07
-0.00018279
-1.97208e-06
-0.000181398
-4.17725e-06
-0.000179253
-6.44592e-06
-0.000176296
-8.86716e-06
-0.000172588
-1.11272e-05
-0.000168032
-1.36731e-05
-0.000162696
-1.60219e-05
-0.000156532
-1.84891e-05
-0.000149439
-2.12944e-05
-0.000141544
-2.36574e-05
-0.000132739
-2.64351e-05
-0.000122966
-2.93445e-05
-0.000112293
-3.19819e-05
-0.000100505
-3.53768e-05
-8.78592e-05
-3.7947e-05
-7.42839e-05
-4.07089e-05
-5.98299e-05
-4.33417e-05
-4.43844e-05
-4.63389e-05
-2.82852e-05
-4.8266e-05
-1.14854e-05
-5.03757e-05
6.22938e-06
-5.31229e-05
2.41966e-05
-5.38736e-05
4.256e-05
-5.50553e-05
6.10039e-05
-5.52852e-05
7.94562e-05
-5.53164e-05
9.77541e-05
-5.48331e-05
0.000115447
-5.30371e-05
0.000132466
-5.10062e-05
0.000148613
-4.83809e-05
0.000163518
-4.46675e-05
0.000177089
-4.06565e-05
0.000189009
-3.57207e-05
0.000199156
-3.03905e-05
0.000207466
-2.48749e-05
0.000213558
-1.82658e-05
0.000217496
-1.17876e-05
0.00021916
-4.94831e-06
0.000218446
2.09139e-06
0.000215416
9.05446e-06
0.000210066
1.60354e-05
0.000202517
2.26313e-05
0.000192748
2.92895e-05
0.00018102
3.51328e-05
0.000167494
4.05428e-05
0.000152301
4.55208e-05
0.000135825
4.93746e-05
0.000118215
5.28059e-05
9.98681e-05
5.49867e-05
8.09412e-05
5.67266e-05
6.17295e-05
5.7582e-05
4.25601e-05
5.74731e-05
2.36058e-05
5.68013e-05
5.05929e-06
5.5608e-05
-1.28262e-05
5.36223e-05
-2.99303e-05
5.12809e-05
-4.6179e-05
4.87237e-05
-6.14721e-05
4.58651e-05
-7.57876e-05
4.29267e-05
-8.90367e-05
3.97326e-05
-0.000101292
3.67629e-05
-0.000112532
3.36996e-05
-0.000122792
3.07648e-05
-0.000132084
2.78299e-05
-0.000140283
2.46081e-05
-0.000147567
2.18494e-05
-0.000153845
1.88509e-05
-0.000159246
1.61826e-05
-0.000163734
1.34415e-05
-0.000167417
1.10327e-05
-0.000170253
8.52806e-06
-0.000172423
6.49963e-06
-0.000173867
4.29282e-06
-0.000174516
1.96909e-06
-0.00017452
4.81332e-08
-0.000173942
-1.71011e-06
-0.000172599
-3.98776e-06
-0.000170728
-5.63171e-06
-0.000168228
-7.53797e-06
-0.000165085
-9.40416e-06
-0.000161312
-1.13248e-05
-0.000156853
-1.33896e-05
-0.000151698
-1.54743e-05
-0.000145841
-1.75786e-05
-0.000139218
-1.98584e-05
-0.000131827
-2.21642e-05
-0.000123619
-2.46266e-05
-0.000114646
-2.69255e-05
-0.00010483
-2.94496e-05
-9.42004e-05
-3.1909e-05
-8.26929e-05
-3.45129e-05
-7.03578e-05
-3.70358e-05
-5.72258e-05
-3.93372e-05
-4.32601e-05
-4.19001e-05
-2.85113e-05
-4.43387e-05
-1.30367e-05
-4.63039e-05
3.08941e-06
-4.83286e-05
1.98377e-05
-5.02071e-05
3.70331e-05
-5.15709e-05
5.45958e-05
-5.2662e-05
7.23567e-05
-5.32442e-05
9.01291e-05
-5.32596e-05
0.000107708
-5.26835e-05
0.000124869
-5.14374e-05
0.000141365
-4.94468e-05
0.000156908
-4.65716e-05
0.00017125
-4.29816e-05
0.000184155
-3.86594e-05
0.000195319
-3.34221e-05
0.000204533
-2.76074e-05
0.000211596
-2.11812e-05
0.000216403
-1.44067e-05
0.000218826
-7.21276e-06
0.000218783
8.58852e-08
0.00021628
7.44788e-06
0.000211313
1.48947e-05
0.000204017
2.18498e-05
0.000194529
2.84216e-05
0.000183019
3.44721e-05
0.00016973
3.98359e-05
0.000154833
4.46809e-05
0.000138588
4.8636e-05
0.000121275
5.18587e-05
0.000103202
5.41607e-05
8.47092e-05
5.5378e-05
6.60093e-05
5.60852e-05
4.74933e-05
5.54737e-05
2.92888e-05
5.45996e-05
1.15899e-05
5.30492e-05
-5.31514e-06
5.06764e-05
-2.14454e-05
4.83921e-05
-3.6615e-05
4.54901e-05
-5.076e-05
4.24477e-05
-6.39896e-05
3.96815e-05
-7.6076e-05
3.62887e-05
-8.72207e-05
3.34446e-05
-9.73621e-05
3.03972e-05
-0.000106586
2.76699e-05
-0.00011485
2.48128e-05
-0.000122232
2.21687e-05
-0.000128808
1.97225e-05
-0.000134586
1.73175e-05
-0.000139597
1.50393e-05
-0.000143853
1.28087e-05
-0.00014749
1.09306e-05
-0.000150534
9.10073e-06
-0.00015284
6.9076e-06
-0.000154553
5.1303e-06
-0.000155571
3.05211e-06
-0.000155931
1.10788e-06
-0.000155825
-3.34549e-07
-0.000154994
-2.45863e-06
-0.000153575
-4.24815e-06
-0.000151588
-5.97561e-06
-0.000148872
-8.16232e-06
-0.000145603
-9.82454e-06
-0.000141543
-1.22007e-05
-0.000136706
-1.44931e-05
-0.000131086
-1.68573e-05
-0.000124692
-1.91807e-05
-0.000117411
-2.18542e-05
-0.000109243
-2.45295e-05
-0.000100177
-2.71815e-05
-9.01899e-05
-2.9957e-05
-7.92478e-05
-3.28344e-05
-6.73394e-05
-3.57672e-05
-5.45747e-05
-3.82279e-05
-4.08724e-05
-4.11022e-05
-2.63312e-05
-4.35929e-05
-1.09985e-05
-4.59829e-05
5.09504e-06
-4.82382e-05
2.18169e-05
-5.01419e-05
3.90836e-05
-5.17911e-05
5.67756e-05
-5.3042e-05
7.47456e-05
-5.38468e-05
9.2768e-05
-5.40403e-05
0.000110692
-5.37261e-05
0.000128324
-5.28622e-05
0.000145414
-5.12108e-05
0.000161738
-4.89069e-05
0.000177034
-4.58456e-05
0.000191096
-4.21442e-05
0.00020366
-3.76581e-05
0.000214515
-3.25198e-05
0.000223511
-2.69322e-05
0.000230378
-2.05662e-05
0.000235033
-1.39974e-05
0.000237409
-7.12011e-06
0.000237524
-3.50425e-07
0.00023534
6.52376e-06
0.000230765
1.36932e-05
0.000224025
2.01949e-05
0.000215209
2.64677e-05
0.000204346
3.25073e-05
0.000191804
3.75434e-05
0.000177631
4.2481e-05
0.000162209
4.62071e-05
0.00014575
4.93538e-05
0.000128429
5.18907e-05
0.000110578
5.35058e-05
9.23706e-05
5.45335e-05
7.4021e-05
5.50331e-05
5.5869e-05
5.44357e-05
3.79618e-05
5.36387e-05
2.05652e-05
5.21692e-05
3.8461e-06
5.00978e-05
-1.20956e-05
4.7853e-05
-2.71484e-05
4.51787e-05
-4.12858e-05
4.24068e-05
-5.44228e-05
3.93745e-05
-6.65244e-05
3.63191e-05
-7.76193e-05
3.32708e-05
-8.76618e-05
3.00876e-05
-9.67209e-05
2.72634e-05
-0.000104821
2.42835e-05
-0.000112049
2.16571e-05
-0.00011841
1.91082e-05
-0.000123881
1.64178e-05
-0.000128541
1.39854e-05
-0.000132344
1.14086e-05
-0.000135516
9.53643e-06
-0.000137944
7.2496e-06
-0.000139601
5.00371e-06
-0.000140625
3.0749e-06
-0.00014105
1.23234e-06
-0.000140897
-4.09715e-07
-0.000140079
-2.45517e-06
-0.000138544
-4.65327e-06
-0.000136476
-6.1231e-06
-0.000133739
-8.22012e-06
-0.0001304
-1.00453e-05
-0.000126427
-1.18905e-05
-0.000121808
-1.38583e-05
-0.000116548
-1.57526e-05
-0.000110605
-1.78661e-05
-0.000103923
-2.00849e-05
-9.66661e-05
-2.1752e-05
-8.8518e-05
-2.44835e-05
-7.97118e-05
-2.63207e-05
-7.00769e-05
-2.89443e-05
-5.95741e-05
-3.14883e-05
-4.82203e-05
-3.40207e-05
-3.61721e-05
-3.61458e-05
-2.32585e-05
-3.87409e-05
-9.3827e-06
-4.15643e-05
5.07672e-06
-4.34009e-05
2.04636e-05
-4.61476e-05
3.6669e-05
-4.85874e-05
5.35233e-05
-5.05551e-05
7.10026e-05
-5.24239e-05
8.89963e-05
-5.39597e-05
0.000107222
-5.4661e-05
0.000125618
-5.51674e-05
0.000143795
-5.45038e-05
0.000161571
-5.33071e-05
0.000178655
-5.12362e-05
0.000194607
-4.78547e-05
0.000209155
-4.36472e-05
0.000222033
-3.86664e-05
0.000232769
-3.23211e-05
0.000241263
-2.55909e-05
0.00024713
-1.78185e-05
0.000250264
-9.5366e-06
0.000250544
-6.14264e-07
0.000248327
7.05431e-06
0.000243721
1.40853e-05
0.000236818
2.07764e-05
0.000227566
2.77386e-05
0.000216367
3.35618e-05
0.000203304
3.91259e-05
0.000188642
4.39651e-05
0.000172747
4.76355e-05
0.000155763
5.08886e-05
0.000138153
5.27817e-05
0.000119992
5.44382e-05
0.000101543
5.53016e-05
8.31006e-05
5.52921e-05
6.47446e-05
5.50353e-05
4.67236e-05
5.40291e-05
2.91484e-05
5.27053e-05
1.21014e-05
5.11061e-05
-4.09929e-06
4.85906e-05
-1.96209e-05
4.65415e-05
-3.42968e-05
4.40097e-05
-4.80152e-05
4.11414e-05
-6.07637e-05
3.82312e-05
-7.25141e-05
3.52465e-05
-8.32385e-05
3.21697e-05
-9.29752e-05
2.92044e-05
-0.000101728
2.62597e-05
-0.000109548
2.34606e-05
-0.000116449
2.07014e-05
-0.000122477
1.80874e-05
-0.000127676
1.55938e-05
-0.000132064
1.31658e-05
-0.000135685
1.08629e-05
-0.000138552
8.60163e-06
-0.000140694
6.43222e-06
-0.00014214
4.33587e-06
-0.00014288
2.22818e-06
-0.000142867
1.3909e-08
-0.000142116
-2.23918e-06
-0.000140636
-4.42761e-06
-0.000138413
-6.67018e-06
-0.000135484
-8.78523e-06
-0.000131888
-1.07868e-05
-0.000127544
-1.30236e-05
-0.000122562
-1.49521e-05
-0.000116827
-1.71922e-05
-0.000110414
-1.92525e-05
-0.000103397
-2.10351e-05
-9.56087e-05
-2.33797e-05
-8.71228e-05
-2.54533e-05
-7.80724e-05
-2.71607e-05
-6.81722e-05
-2.97121e-05
-5.76094e-05
-3.16772e-05
-4.62464e-05
-3.40848e-05
-3.41833e-05
-3.61701e-05
-2.14219e-05
-3.83185e-05
-7.74245e-06
-4.10601e-05
6.65888e-06
-4.31771e-05
2.16738e-05
-4.50415e-05
3.73886e-05
-4.71436e-05
5.35767e-05
-4.85503e-05
7.03349e-05
-5.02518e-05
8.73456e-05
-5.10048e-05
0.000104332
-5.09191e-05
0.000121328
-5.09337e-05
0.000137989
-4.99093e-05
-4.90597e-05
0.000103173
6.88665e-05
8.56265e-05
7.00733e-05
6.75937e-05
7.20194e-05
4.9238e-05
7.33166e-05
3.09505e-05
7.30444e-05
1.27498e-05
7.28063e-05
-5.08005e-06
7.11313e-05
-2.24271e-05
6.92945e-05
-3.90813e-05
6.65495e-05
-5.49078e-05
6.3249e-05
-6.98846e-05
5.98615e-05
-8.39161e-05
5.60964e-05
-9.69638e-05
5.21733e-05
-0.000109042
4.82925e-05
-0.000120116
4.42924e-05
-0.000130231
4.04485e-05
-0.000139383
3.66072e-05
-0.000147585
3.28076e-05
-0.000154889
2.91955e-05
-0.000161292
2.56199e-05
-0.000166849
2.21878e-05
-0.000171555
1.88663e-05
-0.000175463
1.56278e-05
-0.000178587
1.2488e-05
-0.000180945
9.40384e-06
-0.000182551
6.44447e-06
-0.000183428
3.5864e-06
-0.000183558
6.36756e-07
-0.000182876
-2.65367e-06
-0.000181486
-5.56743e-06
-0.000179346
-8.58647e-06
-0.000176387
-1.1826e-05
-0.00017268
-1.48337e-05
-0.000168127
-1.82264e-05
-0.0001628
-2.13489e-05
-0.000156634
-2.46549e-05
-0.000149555
-2.83734e-05
-0.000141644
-3.15686e-05
-0.000132847
-3.52326e-05
-0.000123078
-3.91134e-05
-0.000112401
-4.26594e-05
-0.000100616
-4.7162e-05
-8.79772e-05
-5.05855e-05
-7.43921e-05
-5.42942e-05
-5.99281e-05
-5.78058e-05
-4.44822e-05
-6.17849e-05
-2.83645e-05
-6.43838e-05
-1.15316e-05
-6.72087e-05
6.17733e-06
-7.0832e-05
2.41604e-05
-7.18569e-05
4.25425e-05
-7.34375e-05
6.10124e-05
-7.37553e-05
7.94858e-05
-7.379e-05
9.78202e-05
-7.31677e-05
0.000115534
-7.07515e-05
0.000132583
-6.80548e-05
0.000148766
-6.45647e-05
0.000163699
-5.96002e-05
0.000177299
-5.42562e-05
0.000189253
-4.76752e-05
0.000199419
-4.0557e-05
0.000207752
-3.32073e-05
0.000213857
-2.43714e-05
0.000217817
-1.57482e-05
0.000219476
-6.60745e-06
0.000218738
2.82947e-06
0.000215696
1.20961e-05
0.000210337
2.13944e-05
0.00020278
3.01888e-05
0.000193
3.90691e-05
0.000181248
4.68851e-05
0.0001677
5.40905e-05
0.000152474
6.07462e-05
0.000135969
6.588e-05
0.000118345
7.04292e-05
9.9968e-05
7.3364e-05
8.10148e-05
7.56797e-05
6.17735e-05
7.68232e-05
4.25829e-05
7.66637e-05
2.35924e-05
7.57918e-05
5.03449e-06
7.41658e-05
-1.28686e-05
7.15253e-05
-2.99837e-05
6.8396e-05
-4.62399e-05
6.498e-05
-6.15457e-05
6.11708e-05
-7.58762e-05
5.72572e-05
-8.91355e-05
5.2992e-05
-0.000101392
4.90199e-05
-0.000112634
4.49408e-05
-0.0001229
4.10305e-05
-0.000132225
3.71558e-05
-0.000140433
3.2816e-05
-0.000147716
2.91319e-05
-0.000153972
2.51072e-05
-0.00015938
2.159e-05
-0.000163879
1.79405e-05
-0.000167554
1.47081e-05
-0.000170386
1.13605e-05
-0.000172586
8.69914e-06
-0.000174042
5.74857e-06
-0.000174665
2.59277e-06
-0.000174668
5.0637e-08
-0.000174072
-2.30639e-06
-0.000172699
-5.36044e-06