/*--------------------------------*- C++ -*----------------------------------*\
| =========                 |                                                 |
| \\      /  F ield         | OpenFOAM: The Open Source CFD Toolbox           |
|  \\    /   O peration     | Version:  3.0.1                                 |
|   \\  /    A nd           | Web:      www.OpenFOAM.org                      |
|    \\/     M anipulation  |                                                 |
\*---------------------------------------------------------------------------*/
FoamFile
{
    version     2.0;
    format      ascii;
    class       volScalarField;
    location    "28.2";
    object      p_rgh;
}
// * * * * * * * * * * * * * * * * * * * * * * * * * * * * * * * * * * * * * //

dimensions      [1 -1 -2 0 0 0 0];

internalField   nonuniform List<scalar> 
22680
(
-31.826
-52.3308
-71.7737
-86.6366
-105.096
-123.724
-141.669
-158.597
-174.358
-188.851
-202.03
-213.874
-224.39
-233.605
-241.561
-248.308
-253.905
-258.41
-261.877
-264.359
-265.899
-266.52
-266.234
-265.11
-263.144
-260.302
-256.592
-251.984
-246.461
-239.986
-232.529
-224.063
-214.57
-204.05
-192.511
-179.974
-166.485
-152.095
-136.89
-120.94
-104.364
-87.3015
-69.2677
-51.3977
-33.4267
-15.4723
2.33678
19.8934
37.0695
53.7594
69.8484
85.2362
99.8363
113.567
126.362
138.166
148.941
158.662
167.316
174.899
181.406
186.833
191.174
194.423
196.572
197.615
197.548
196.305
194.048
190.675
186.181
180.549
173.792
165.942
157.033
147.118
136.259
124.534
112.026
98.8316
85.0448
70.7663
56.0972
41.1352
25.9766
10.7184
-4.54642
-19.7269
-34.7336
-49.4805
-63.884
-77.8936
-91.3992
-104.307
-116.55
-128.068
-138.797
-148.684
-157.683
-165.756
-172.881
-179.045
-184.243
-188.48
-191.773
-194.144
-195.625
-196.258
-196.077
-195.115
-193.408
-191.015
-187.972
-184.316
-180.081
-175.297
-169.992
-164.185
-157.899
-151.144
-143.935
-136.276
-128.174
-119.629
-110.643
-101.217
-91.35
-81.0459
-70.309
-59.1472
-47.567
-35.5574
-23.2201
-10.5631
2.37108
15.5228
28.8209
42.182
55.5119
68.7063
81.652
94.2299
106.316
117.786
128.513
138.377
147.262
155.058
161.667
167.002
170.989
173.573
174.716
174.391
172.586
169.345
164.704
158.696
151.405
142.914
133.323
122.744
111.293
99.0924
86.2678
72.944
59.2426
45.2818
31.1732
17.0208
2.92098
-11.0392
-24.7806
-38.2322
-51.3315
-64.0238
-76.2627
-88.0042
-99.2247
-109.897
-120.001
-129.529
-138.475
-146.841
-154.626
-161.839
-168.487
-174.582
-180.133
-185.148
-189.634
-193.59
-197.011
-199.885
-202.191
-203.903
-204.992
-205.423
-205.158
-204.155
-202.397
-199.845
-196.478
-192.278
-187.237
-181.356
-174.642
-167.12
-158.815
-149.773
-140.035
-129.662
-118.708
-107.242
-95.325
-83.0336
-70.4417
-57.6338
-44.7378
-31.7997
-18.9839
-6.43761
5.65063
16.9544
27.3775
-31.8725
-52.3874
-71.8432
-86.6678
-105.147
-123.788
-141.74
-158.674
-174.437
-188.931
-202.11
-213.952
-224.466
-233.678
-241.63
-248.374
-253.967
-258.468
-261.933
-264.412
-265.951
-266.571
-266.285
-265.16
-263.193
-260.352
-256.643
-252.037
-246.515
-240.042
-232.587
-224.122
-214.63
-204.111
-192.572
-180.032
-166.541
-152.147
-136.938
-120.984
-104.401
-87.3267
-69.3014
-51.4194
-33.4397
-15.4777
2.33851
19.9021
37.0851
53.7815
69.8768
85.2703
99.8757
113.611
126.41
138.217
148.995
158.718
167.373
174.957
181.465
186.893
191.235
194.485
196.635
197.678
197.61
196.371
194.111
190.74
186.244
180.61
173.852
165.999
157.085
147.166
136.302
124.571
112.057
98.8561
85.063
70.7783
56.103
41.1353
25.9711
10.7075
-4.56249
-19.748
-34.7593
-49.5107
-63.9185
-77.9323
-91.4413
-104.353
-116.599
-128.119
-138.851
-148.74
-157.74
-165.814
-172.939
-179.103
-184.3
-188.536
-191.828
-194.197
-195.677
-196.308
-196.124
-195.158
-193.45
-191.056
-188.01
-184.353
-180.117
-175.331
-170.025
-164.218
-157.931
-151.176
-143.967
-136.307
-128.206
-119.661
-110.676
-101.25
-91.3834
-81.0795
-70.3426
-59.1808
-47.6
-35.5887
-23.25
-10.5909
2.34613
15.5015
28.804
42.1702
55.5059
68.7067
81.6592
94.2443
106.338
117.815
128.55
138.422
147.313
155.116
161.73
167.07
171.061
173.648
174.792
174.47
172.661
169.418
164.773
158.761
151.465
142.968
133.37
122.784
111.325
99.1163
86.2841
72.9528
59.2444
45.277
31.1623
17.0044
2.89968
-11.0648
-24.81
-38.2649
-51.3669
-64.0614
-76.302
-88.0449
-99.2662
-109.939
-120.043
-129.571
-138.517
-146.881
-154.666
-161.878
-168.525
-174.619
-180.169
-185.184
-189.67
-193.626
-197.047
-199.921
-202.229
-203.943
-205.033
-205.467
-205.202
-204.202
-202.445
-199.895
-196.529
-192.33
-187.289
-181.407
-174.693
-167.169
-158.863
-149.818
-140.078
-129.702
-118.745
-107.276
-95.3555
-83.0605
-70.4644
-57.6517
-44.7501
-31.8051
-18.981
-6.42298
5.67629
17.0159
27.414
-31.9653
-52.5004
-71.9824
-86.73
-105.25
-123.916
-141.884
-158.827
-174.596
-189.092
-202.27
-214.109
-224.619
-233.824
-241.769
-248.506
-254.092
-258.586
-262.044
-264.519
-266.053
-266.671
-266.389
-265.26
-263.292
-260.452
-256.745
-252.141
-246.624
-240.154
-232.703
-224.241
-214.751
-204.232
-192.692
-180.149
-166.654
-152.253
-137.035
-121.07
-104.474
-87.3786
-69.3668
-51.4624
-33.4654
-15.4883
2.34229
19.9199
37.1165
53.8261
69.9339
85.339
99.9549
113.699
126.506
138.32
149.103
158.83
167.488
175.074
181.584
187.014
191.357
194.608
196.759
197.803
197.734
196.503
194.24
190.871
186.372
180.734
173.972
166.112
157.191
147.263
136.388
124.645
112.119
98.9052
85.0995
70.8025
56.1148
41.1355
25.9603
10.6858
-4.59443
-19.7897
-34.8105
-49.5707
-63.9867
-78.0088
-91.5244
-104.443
-116.695
-128.22
-138.956
-148.849
-157.851
-165.927
-173.052
-179.215
-184.41
-188.644
-191.932
-194.297
-195.773
-196.4
-196.211
-195.238
-193.528
-191.128
-188.079
-184.418
-180.179
-175.391
-170.083
-164.274
-157.986
-151.23
-144.021
-136.362
-128.261
-119.717
-110.732
-101.307
-91.4407
-81.137
-70.4002
-59.238
-47.6566
-35.6409
-23.2996
-10.6364
2.30629
15.4689
28.7802
42.1566
55.5038
68.7174
81.6837
94.2834
106.392
117.885
128.635
138.521
147.427
155.242
161.868
167.217
171.216
173.808
174.955
174.635
172.825
169.575
164.923
158.903
151.595
143.085
133.474
122.873
111.399
99.1748
86.3271
72.9808
59.2584
45.2777
31.1508
16.9819
2.86722
-11.1061
-24.8589
-38.3203
-51.4278
-64.1268
-76.3707
-88.1166
-99.3395
-110.013
-120.118
-129.645
-138.59
-146.953
-154.736
-161.946
-168.592
-174.684
-180.232
-185.246
-189.731
-193.687
-197.11
-199.986
-202.296
-204.013
-205.107
-205.545
-205.282
-204.288
-202.534
-199.987
-196.623
-192.425
-187.385
-181.503
-174.787
-167.26
-158.951
-149.902
-140.156
-129.775
-118.812
-107.337
-95.4097
-83.1074
-70.5031
-57.6808
-44.7678
-31.8092
-18.9679
-6.38691
5.73302
17.1412
27.6417
-32.1036
-52.6691
-72.1915
-86.8233
-105.405
-124.108
-142.101
-159.058
-174.835
-189.334
-202.511
-214.345
-224.847
-234.044
-241.978
-248.703
-254.278
-258.762
-262.211
-264.678
-266.206
-266.821
-266.544
-265.41
-263.439
-260.601
-256.898
-252.298
-246.786
-240.322
-232.877
-224.42
-214.933
-204.415
-192.872
-180.325
-166.822
-152.411
-137.181
-121.201
-104.585
-87.4583
-69.4636
-51.5263
-33.5039
-15.5042
2.34794
19.9466
37.1636
53.893
70.0195
85.442
100.074
113.832
126.651
138.474
149.265
158.998
167.66
175.25
181.763
187.195
191.54
194.794
196.946
197.991
197.92
196.697
194.434
191.066
186.562
180.921
174.151
166.283
157.35
147.408
136.517
124.757
112.212
98.9788
85.1542
70.8386
56.1325
41.1357
25.9439
10.6533
-4.64238
-19.8524
-34.8872
-49.6607
-64.0891
-78.1236
-91.6492
-104.578
-116.839
-128.372
-139.115
-149.012
-158.018
-166.095
-173.221
-179.383
-184.575
-188.806
-192.089
-194.448
-195.918
-196.537
-196.34
-195.36
-193.644
-191.238
-188.183
-184.516
-180.273
-175.481
-170.169
-164.359
-158.069
-151.312
-144.103
-136.444
-128.343
-119.8
-110.816
-101.392
-91.5264
-81.2232
-70.4863
-59.3238
-47.7421
-35.7185
-23.3739
-10.7046
2.24669
15.4202
28.7446
42.1363
55.5009
68.7337
81.7208
94.3424
106.474
117.989
128.762
138.671
147.597
155.432
162.075
167.439
171.449
174.05
175.201
174.88
173.072
169.812
165.149
159.116
151.792
143.263
133.631
123.008
111.51
99.263
86.3922
73.0235
59.2799
45.2793
31.1341
16.9486
2.81908
-11.1673
-24.9317
-38.4029
-51.5187
-64.2243
-76.4733
-88.2236
-99.449
-110.124
-120.229
-129.756
-138.7
-147.061
-154.841
-162.049
-168.691
-174.781
-180.327
-185.338
-189.823
-193.779
-197.203
-200.082
-202.396
-204.119
-205.218
-205.662
-205.405
-204.417
-202.668
-200.124
-196.764
-192.568
-187.528
-181.645
-174.927
-167.397
-159.082
-150.026
-140.274
-129.884
-118.912
-107.428
-95.4906
-83.1775
-70.5608
-57.7245
-44.7942
-31.8153
-18.9483
-6.33262
5.82015
17.3208
27.9217
-32.2866
-52.8929
-72.471
-86.9474
-105.612
-124.365
-142.39
-159.367
-175.154
-189.657
-202.832
-214.66
-225.152
-234.336
-242.256
-248.966
-254.526
-258.996
-262.434
-264.891
-266.41
-267.02
-266.747
-265.607
-263.636
-260.8
-257.101
-252.508
-247.003
-240.547
-233.109
-224.658
-215.175
-204.658
-193.113
-180.56
-167.047
-152.622
-137.375
-121.374
-104.733
-87.5686
-69.5892
-51.6104
-33.555
-15.5253
2.35549
19.9822
37.2265
53.9823
70.1338
85.5794
100.232
114.009
126.844
138.68
149.481
159.222
167.89
175.484
182
187.436
191.784
195.041
197.196
198.242
198.17
196.951
194.694
191.326
186.817
181.169
174.391
166.51
157.562
147.601
136.689
124.905
112.336
99.0769
85.227
70.8866
56.156
41.1358
25.9219
10.6098
-4.70642
-19.936
-34.9897
-49.7809
-64.2259
-78.2768
-91.8156
-104.757
-117.031
-128.574
-139.326
-149.23
-158.241
-166.321
-173.447
-179.607
-184.796
-189.021
-192.298
-194.65
-196.111
-196.721
-196.512
-195.524
-193.798
-191.384
-188.321
-184.647
-180.398
-175.601
-170.285
-164.471
-158.179
-151.421
-144.212
-136.553
-128.453
-119.911
-110.929
-101.505
-91.6409
-81.3383
-70.6013
-59.4383
-47.8566
-35.822
-23.4734
-10.7959
2.16687
15.355
28.6969
42.109
55.4967
68.7551
81.77
94.4209
106.583
118.129
128.933
138.87
147.825
155.685
162.351
167.734
171.76
174.372
175.529
175.207
173.399
170.13
165.452
159.401
152.054
143.5
133.84
123.187
111.659
99.3805
86.4789
73.0802
59.3083
45.2812
31.1116
16.904
2.75461
-11.2494
-25.029
-38.5133
-51.6401
-64.3547
-76.6105
-88.3664
-99.5952
-110.272
-120.378
-129.904
-138.846
-147.204
-154.982
-162.186
-168.824
-174.91
-180.453
-185.462
-189.945
-193.902
-197.328
-200.211
-202.53
-204.259
-205.366
-205.817
-205.569
-204.588
-202.846
-200.308
-196.952
-192.759
-187.72
-181.836
-175.114
-167.579
-159.257
-150.193
-140.43
-130.03
-119.046
-107.549
-95.5988
-83.2711
-70.6381
-57.783
-44.8302
-31.824
-18.9231
-6.26202
5.94111
17.6041
28.2678
-32.5129
-53.1705
-72.8211
-87.1023
-105.873
-124.689
-142.753
-159.754
-175.554
-190.061
-203.234
-215.054
-225.534
-234.702
-242.604
-249.295
-254.837
-259.29
-262.712
-265.156
-266.665
-267.269
-266.994
-265.853
-263.882
-261.049
-257.355
-252.769
-247.274
-240.828
-233.399
-224.956
-215.478
-204.963
-193.415
-180.853
-167.328
-152.887
-137.618
-121.592
-104.92
-87.7152
-69.7388
-51.7141
-33.6185
-15.5516
2.36494
20.0268
37.3052
54.0939
70.2768
85.7514
100.431
114.231
127.086
138.938
149.752
159.502
168.178
175.777
182.298
187.737
192.089
195.349
197.508
198.556
198.483
197.265
195.018
191.648
187.134
181.479
174.69
166.794
157.827
147.843
136.904
125.091
112.49
99.1996
85.3179
70.9464
56.1853
41.1358
25.8942
10.5554
-4.78662
-20.0408
-35.1179
-49.9312
-64.397
-78.4685
-92.0238
-104.982
-117.271
-128.827
-139.59
-149.503
-158.519
-166.603
-173.729
-179.888
-185.072
-189.291
-192.559
-194.902
-196.352
-196.95
-196.728
-195.729
-193.991
-191.566
-188.493
-184.811
-180.554
-175.751
-170.43
-164.612
-158.318
-151.558
-144.348
-136.69
-128.591
-120.05
-111.07
-101.648
-91.7843
-81.4824
-70.7454
-59.5816
-48.0004
-35.9515
-23.5984
-10.9105
2.06654
15.2728
28.6367
42.0743
55.491
68.7814
81.8311
94.5187
106.719
118.303
129.145
139.12
148.109
156.002
162.696
168.104
172.15
174.775
175.939
175.618
173.806
170.528
165.83
159.756
152.382
143.796
134.102
123.411
111.844
99.5269
86.5868
73.1507
59.3433
45.2831
31.083
16.8478
2.67356
-11.3523
-25.151
-38.6517
-51.7922
-64.518
-76.7824
-88.5454
-99.7783
-110.458
-120.564
-130.089
-139.029
-147.384
-155.158
-162.357
-168.991
-175.071
-180.61
-185.616
-190.098
-194.055
-197.484
-200.371
-202.697
-204.435
-205.551
-206.011
-205.773
-204.803
-203.069
-200.538
-197.187
-192.998
-187.96
-182.074
-175.349
-167.807
-159.476
-150.401
-140.626
-130.212
-119.214
-107.701
-95.7343
-83.3885
-70.7351
-57.857
-44.8757
-31.8358
-18.8929
-6.1768
6.09258
17.8488
28.6561
-32.7809
-53.5005
-73.2424
-87.2879
-106.187
-125.08
-143.191
-160.219
-176.035
-190.547
-203.717
-215.528
-225.992
-235.141
-243.021
-249.69
-255.209
-259.641
-263.045
-265.474
-266.971
-267.567
-267.288
-266.147
-264.176
-261.347
-257.66
-253.083
-247.6
-241.165
-233.748
-225.314
-215.842
-205.329
-193.777
-181.206
-167.666
-153.205
-137.911
-121.854
-105.147
-87.8982
-69.9125
-51.8368
-33.6943
-15.5831
2.37629
20.0802
37.3996
54.228
70.4485
85.958
100.669
114.497
127.376
139.248
150.077
159.839
168.523
176.128
182.655
188.099
192.455
195.72
197.882
198.933
198.861
197.644
195.404
192.035
187.516
181.852
175.05
167.136
158.146
148.134
137.162
125.314
112.676
99.3468
85.4268
71.0179
56.2202
41.1357
25.8607
10.4897
-4.88309
-20.1667
-35.2719
-50.112
-64.6028
-78.6986
-92.274
-105.253
-117.559
-129.132
-139.908
-149.831
-158.854
-166.942
-174.069
-180.225
-185.404
-189.615
-192.873
-195.204
-196.642
-197.225
-196.987
-195.974
-194.223
-191.785
-188.7
-185.008
-180.742
-175.931
-170.604
-164.781
-158.484
-151.722
-144.511
-136.854
-128.756
-120.217
-111.239
-101.818
-91.9565
-81.6555
-70.9183
-59.7537
-48.1736
-36.107
-23.749
-11.0486
1.94559
15.1737
28.5638
42.0322
55.4836
68.8125
81.904
94.6357
106.881
118.512
129.4
139.419
148.45
156.382
163.111
168.548
172.617
175.259
176.432
176.113
174.296
171.005
166.285
160.183
152.776
144.152
134.416
123.68
112.067
99.7025
86.716
73.2349
59.385
45.2849
31.0482
16.7798
2.57581
-11.4764
-25.2979
-38.8183
-51.9753
-64.7145
-76.9892
-88.7604
-99.9984
-110.68
-120.787
-130.311
-139.249
-147.6
-155.369
-162.562
-169.19
-175.265
-180.799
-185.802
-190.282
-194.239
-197.671
-200.564
-202.898
-204.645
-205.773
-206.245
-206.019
-205.06
-203.336
-200.814
-197.47
-193.284
-188.248
-182.361
-175.631
-168.081
-159.74
-150.652
-140.862
-130.431
-119.415
-107.884
-95.8972
-83.5296
-70.852
-57.9459
-44.9316
-31.8516
-18.8585
-6.07796
6.26776
18.1252
29.0549
-33.0889
-53.8807
-73.7351
-87.5039
-106.558
-125.54
-143.704
-160.764
-176.597
-191.115
-204.282
-216.081
-226.527
-235.653
-243.508
-250.15
-255.643
-260.051
-263.434
-265.845
-267.328
-267.914
-267.628
-266.489
-264.519
-261.695
-258.015
-253.448
-247.979
-241.558
-234.155
-225.732
-216.268
-205.757
-194.201
-181.619
-168.061
-153.577
-138.253
-122.161
-105.413
-88.1169
-70.1115
-51.9784
-33.7823
-15.6197
2.38954
20.1426
37.5099
54.3845
70.6491
86.1993
100.947
114.809
127.715
139.61
150.457
160.232
168.926
176.539
183.071
188.52
192.882
196.152
198.319
199.373
199.302
198.086
195.854
192.485
187.961
182.287
175.47
167.536
158.518
148.473
137.464
125.574
112.892
99.5185
85.5537
71.1009
56.2608
41.1352
25.8212
10.4128
-4.99592
-20.3138
-35.4518
-50.3232
-64.8432
-78.9672
-92.5662
-105.569
-117.896
-129.487
-140.279
-150.214
-159.246
-167.338
-174.466
-180.618
-185.792
-189.993
-193.239
-195.557
-196.98
-197.545
-197.29
-196.261
-194.494
-192.04
-188.942
-185.237
-180.96
-176.141
-170.806
-164.978
-158.677
-151.914
-144.702
-137.045
-128.948
-120.412
-111.436
-102.018
-92.1576
-81.8577
-71.1204
-59.9544
-48.3761
-36.289
-23.9258
-11.2107
1.80374
15.0572
28.478
41.9822
55.4743
68.8481
81.9884
94.7717
107.071
118.755
129.697
139.768
148.849
156.826
163.595
169.067
173.163
175.824
177.008
176.691
174.867
171.562
166.816
160.682
153.236
144.568
134.782
123.994
112.326
99.907
86.8663
73.3327
59.4329
45.2863
31.0069
16.6998
2.4611
-11.6217
-25.4699
-39.0132
-52.1895
-64.9443
-77.2311
-89.0116
-100.256
-110.941
-121.048
-130.571
-139.505
-147.852
-155.615
-162.802
-169.423
-175.492
-181.019
-186.018
-190.495
-194.453
-197.889
-200.788
-203.132
-204.891
-206.032
-206.517
-206.306
-205.361
-203.649
-201.136
-197.8
-193.62
-188.585
-182.696
-175.961
-168.402
-160.048
-150.944
-141.137
-130.687
-119.651
-108.097
-96.0877
-83.6948
-70.989
-58.0499
-44.9987
-31.8718
-18.8211
-5.96704
6.463
18.4281
29.498
-33.4345
-54.3087
-74.2996
-87.7499
-106.988
-126.07
-144.294
-161.39
-177.242
-191.766
-204.929
-216.714
-227.14
-236.24
-244.065
-250.676
-256.139
-260.519
-263.877
-266.268
-267.736
-268.31
-268.016
-266.879
-264.911
-262.091
-258.421
-253.867
-248.412
-242.008
-234.621
-226.212
-216.755
-206.248
-194.687
-182.092
-168.514
-154.004
-138.644
-122.513
-105.719
-88.3711
-70.3366
-52.1387
-33.8825
-15.6616
2.40466
20.214
37.6359
54.5637
70.8786
86.4754
101.266
115.165
128.103
140.024
150.892
160.682
169.387
177.008
183.547
189.003
193.37
196.646
198.818
199.877
199.808
198.592
196.368
193
188.471
182.786
175.951
167.993
158.944
148.861
137.809
125.872
113.14
99.7145
85.6984
71.1952
56.3068
41.1344
25.7756
10.3244
-5.12523
-20.4824
-35.6578
-50.5649
-65.1186
-79.2743
-92.9008
-105.93
-118.282
-129.894
-140.703
-150.653
-159.694
-167.791
-174.92
-181.069
-186.235
-190.426
-193.659
-195.961
-197.366
-197.912
-197.637
-196.588
-194.803
-192.332
-189.218
-185.499
-181.21
-176.38
-171.038
-165.203
-158.898
-152.132
-144.92
-137.263
-129.168
-120.634
-111.661
-102.246
-92.3877
-82.0889
-71.3515
-60.1837
-48.6069
-36.4987
-24.1292
-11.3969
1.6407
14.9232
28.379
41.9242
55.4627
68.8881
82.0842
94.9268
107.287
119.034
130.037
140.168
149.305
157.334
164.15
169.661
173.789
176.472
177.668
177.353
175.522
172.198
167.424
161.253
153.762
145.043
135.201
124.353
112.622
100.14
87.0375
73.4438
59.4871
45.2872
30.959
16.6076
2.3292
-11.7886
-25.6672
-39.2367
-52.435
-65.2077
-77.5083
-89.2992
-100.55
-111.239
-121.347
-130.868
-139.799
-148.141
-155.897
-163.077
-169.69
-175.75
-181.271
-186.264
-190.739
-194.698
-198.138
-201.045
-203.399
-205.172
-206.328
-206.829
-206.634
-205.705
-204.006
-201.506
-198.178
-194.003
-188.971
-183.08
-176.338
-168.769
-160.4
-151.279
-141.451
-130.979
-119.92
-108.342
-96.3059
-83.8842
-71.1464
-58.1692
-45.0772
-31.8972
-18.7814
-5.84558
6.67679
18.7527
29.9627
-33.8151
-54.7813
-74.9365
-88.025
-107.478
-126.674
-144.962
-162.097
-177.969
-192.501
-205.658
-217.428
-227.83
-236.9
-244.692
-251.268
-256.697
-261.045
-264.376
-266.744
-268.193
-268.755
-268.451
-267.316
-265.35
-262.537
-258.877
-254.337
-248.9
-242.514
-235.145
-226.752
-217.305
-206.801
-195.235
-182.626
-169.025
-154.485
-139.086
-122.91
-106.066
-88.6614
-70.5878
-52.3177
-33.995
-15.7087
2.4216
20.2942
37.7778
54.7654
71.1372
86.7867
101.625
115.566
128.541
140.491
151.382
161.189
169.906
177.536
184.083
189.545
193.919
197.201
199.38
200.443
200.377
199.162
196.946
193.579
189.044
183.347
176.493
168.508
159.424
149.299
138.198
126.207
113.418
99.9348
85.8607
71.3009
56.3581
41.1329
25.7238
10.2244
-5.27118
-20.6724
-35.8901
-50.8374
-65.4292
-79.6199
-93.2779
-106.337
-118.717
-130.353
-141.182
-151.147
-160.199
-168.302
-175.431
-181.577
-186.735
-190.913
-194.131
-196.416
-197.8
-198.324
-198.027
-196.957
-195.15
-192.66
-189.528
-185.794
-181.491
-176.649
-171.297
-165.456
-159.146
-152.378
-145.165
-137.509
-129.416
-120.885
-111.915
-102.502
-92.6467
-82.3493
-71.6116
-60.4412
-48.8542
-36.7484
-24.3598
-11.6076
1.45607
14.7712
28.2664
41.8576
55.4486
68.9321
82.1911
95.1005
107.53
119.346
130.419
140.617
149.818
157.906
164.774
170.33
174.494
177.202
178.412
178.099
176.26
172.916
168.109
161.897
154.355
145.578
135.672
124.756
112.956
100.403
87.2295
73.5681
59.547
45.2873
30.9041
16.5029
2.17981
-11.9772
-25.8901
-39.489
-52.712
-65.5047
-77.821
-89.6235
-100.882
-111.575
-121.684
-131.203
-140.13
-148.466
-156.214
-163.385
-169.99
-176.041
-181.554
-186.541
-191.013
-194.972
-198.417
-201.332
-203.699
-205.487
-206.661
-207.18
-207.003
-206.092
-204.409
-201.921
-198.604
-194.435
-189.405
-183.512
-176.764
-169.182
-160.797
-151.656
-141.806
-131.309
-120.223
-108.617
-96.5519
-84.098
-71.3245
-58.3053
-45.1668
-31.9288
-18.7405
-5.71499
6.90629
19.0947
30.4431
-34.2277
-55.294
-75.648
-88.3262
-108.035
-127.353
-145.71
-162.886
-178.781
-193.32
-206.471
-218.223
-228.599
-237.635
-245.389
-251.926
-257.316
-261.629
-264.928
-267.271
-268.701
-269.249
-268.933
-267.8
-265.838
-263.032
-259.383
-254.86
-249.441
-243.077
-235.729
-227.353
-217.917
-207.417
-195.845
-183.221
-169.595
-155.021
-139.579
-123.354
-106.453
-88.9886
-70.8647
-52.5154
-34.1196
-15.761
2.44034
20.3833
37.9357
54.9899
71.4251
87.1331
102.025
116.014
129.028
141.011
151.927
161.753
170.483
178.124
184.678
190.148
194.529
197.819
200.004
201.073
201.01
199.796
197.589
194.223
189.682
183.972
177.096
169.081
159.958
149.786
138.63
126.58
113.727
100.179
86.0405
71.4176
56.4144
41.1306
25.6655
10.1127
-5.43396
-20.8843
-36.1488
-51.1407
-65.7753
-80.0043
-93.6979
-106.791
-119.201
-130.864
-141.715
-151.697
-160.761
-168.871
-176.001
-182.142
-187.291
-191.456
-194.656
-196.921
-198.283
-198.783
-198.461
-197.366
-195.536
-193.024
-189.872
-186.12
-181.802
-176.948
-171.586
-165.737
-159.421
-152.65
-145.436
-137.782
-129.691
-121.163
-112.196
-102.788
-92.9348
-82.639
-71.901
-60.7273
-49.1281
-37.0286
-24.618
-11.8431
1.24949
14.6008
28.1397
41.7822
55.4315
68.9798
82.3089
95.2927
107.799
119.694
130.843
141.117
150.389
158.542
165.469
171.075
175.278
178.015
179.241
178.93
177.081
173.715
168.872
162.613
155.016
146.174
136.197
125.205
113.326
100.693
87.4421
73.7053
59.6125
45.2862
30.8419
16.3851
2.01269
-12.1879
-26.1389
-39.7705
-53.0209
-65.8359
-78.1695
-89.9847
-101.252
-111.948
-122.058
-131.576
-140.498
-148.827
-156.567
-163.729
-170.323
-176.364
-181.868
-186.848
-191.317
-195.277
-198.726
-201.651
-204.032
-205.837
-207.03
-207.571
-207.414
-206.522
-204.857
-202.384
-199.077
-194.917
-189.889
-183.994
-177.237
-169.642
-161.239
-152.076
-142.2
-131.675
-120.561
-108.924
-96.8259
-84.3364
-71.5236
-58.4579
-45.2688
-31.9669
-18.6998
-5.57698
7.14874
19.4495
30.9308
-34.6689
-55.8411
-76.4406
-88.6456
-108.664
-128.11
-146.539
-163.758
-179.677
-194.223
-207.367
-219.1
-229.445
-238.444
-246.156
-252.65
-257.997
-262.27
-265.535
-267.85
-269.259
-269.791
-269.464
-268.333
-266.373
-263.576
-259.94
-255.434
-250.036
-243.696
-236.371
-228.015
-218.592
-208.098
-196.52
-183.878
-170.224
-155.613
-140.123
-123.843
-106.882
-89.3544
-71.1665
-52.7318
-34.2566
-15.8186
2.46088
20.4813
38.1094
55.2371
71.7422
87.5151
102.466
116.507
129.565
141.584
152.528
162.374
171.119
178.77
185.333
190.811
195.2
198.498
200.691
201.766
201.707
200.496
198.297
194.933
190.385
184.661
177.761
169.713
160.547
150.322
139.106
126.99
114.067
100.448
86.2377
71.5454
56.4753
41.1272
25.6006
9.98914
-5.61381
-21.118
-36.4342
-51.4749
-66.1568
-80.4276
-94.1608
-107.29
-119.735
-131.427
-142.303
-152.304
-161.38
-169.497
-176.628
-182.765
-187.903
-192.053
-195.235
-197.478
-198.815
-199.288
-198.938
-197.816
-195.96
-193.424
-190.251
-186.479
-182.145
-177.276
-171.903
-166.045
-159.724
-152.95
-145.735
-138.082
-129.994
-121.469
-112.507
-103.102
-93.252
-82.958
-72.2198
-61.0425
-49.432
-37.3364
-24.9037
-12.1039
1.02041
14.4115
27.9985
41.6973
55.411
69.0307
82.4373
95.5031
108.095
120.076
131.311
141.667
151.018
159.244
166.235
171.896
176.144
178.912
180.155
179.847
177.987
174.595
169.714
163.403
155.743
146.83
136.774
125.698
113.732
101.013
87.675
73.8549
59.6833
45.2835
30.7719
16.2542
1.82748
-12.4211
-26.414
-40.0814
-53.362
-66.2015
-78.5541
-90.3831
-101.659
-112.36
-122.471
-131.986
-140.903
-149.225
-156.956
-164.106
-170.689
-176.719
-182.213
-187.186
-191.65
-195.61
-199.065
-202.001
-204.397
-206.222
-207.437
-208
-207.867
-206.996
-205.35
-202.893
-199.6
-195.447
-190.423
-184.525
-177.76
-170.15
-161.727
-152.538
-142.635
-132.079
-120.933
-109.262
-97.1282
-84.5997
-71.7442
-58.6313
-45.3801
-32.012
-18.661
-5.43313
7.40181
19.8114
31.4183
-35.1352
-56.4135
-77.2325
-89.0658
-109.375
-128.949
-147.451
-164.715
-180.659
-195.213
-208.348
-220.059
-230.371
-239.328
-246.994
-253.439
-258.738
-262.968
-266.196
-268.48
-269.865
-270.382
-270.044
-268.913
-266.956
-264.167
-260.546
-256.06
-250.685
-244.371
-237.073
-228.74
-219.332
-208.842
-197.258
-184.597
-170.913
-156.26
-140.72
-124.379
-107.353
-89.7609
-71.4913
-52.967
-34.4062
-15.8817
2.48312
20.5882
38.299
55.5072
72.089
87.9327
102.948
117.046
130.153
142.211
153.185
163.053
171.813
179.476
186.048
191.534
195.932
199.238
201.44
202.523
202.468
201.26
199.07
195.707
191.154
185.414
178.489
170.404
161.191
150.909
139.627
127.437
114.438
100.74
86.452
71.684
56.5406
41.1227
25.5289
9.85355
-5.81097
-21.3739
-36.7465
-51.8404
-66.5727
-80.8916
-94.6672
-107.837
-120.318
-132.043
-142.945
-152.967
-162.058
-170.183
-177.315
-183.446
-188.572
-192.706
-195.867
-198.086
-199.396
-199.839
-199.459
-198.307
-196.423
-193.86
-190.663
-186.87
-182.517
-177.634
-172.248
-166.381
-160.053
-153.276
-146.06
-138.408
-130.323
-121.803
-112.845
-103.444
-93.5984
-83.3065
-72.5683
-61.3871
-49.7666
-37.6718
-25.217
-12.3904
0.76839
14.2028
27.8423
41.6027
55.3865
69.0845
82.5759
95.7316
108.416
120.492
131.821
142.268
151.705
160.01
167.073
172.794
177.09
179.893
181.155
180.851
178.979
175.559
170.634
164.267
156.539
147.547
137.405
126.237
114.176
101.36
87.9281
74.0168
59.7589
45.2789
30.6938
16.1096
1.62373
-12.6772
-26.7157
-40.4223
-53.7356
-66.6018
-78.975
-90.819
-102.104
-112.811
-122.923
-132.435
-141.346
-149.659
-157.38
-164.519
-171.088
-177.106
-182.589
-187.553
-192.013
-195.973
-199.434
-202.382
-204.795
-206.641
-207.88
-208.469
-208.361
-207.514
-205.889
-203.45
-200.171
-196.027
-191.006
-185.106
-178.331
-170.705
-162.26
-153.044
-143.109
-132.521
-121.339
-109.631
-97.459
-84.888
-71.9865
-58.8229
-45.5045
-32.065
-18.6251
-5.28512
7.66294
20.1742
31.8976
-35.6229
-57.0035
-77.9982
-89.6156
-110.177
-129.872
-148.447
-165.758
-181.728
-196.289
-209.415
-221.101
-231.376
-240.287
-247.901
-254.293
-259.541
-263.724
-266.91
-269.161
-270.521
-271.021
-270.673
-269.54
-267.587
-264.808
-261.202
-256.737
-251.389
-245.104
-237.834
-229.526
-220.136
-209.652
-198.061
-185.38
-171.662
-156.964
-141.369
-124.963
-107.866
-90.2053
-71.8414
-53.2218
-34.5683
-15.9503
2.50695
20.7038
38.5046
55.8004
72.4654
88.3862
103.472
117.631
130.791
142.892
153.898
163.79
172.567
180.241
186.822
192.317
196.725
200.041
202.252
203.343
203.293
202.086
199.908
196.548
191.988
186.231
179.279
171.155
161.891
151.546
140.192
127.922
114.839
101.056
86.6834
71.8329
56.61
41.1166
25.4502
9.70555
-6.0256
-21.6525
-37.0857
-52.2372
-67.0225
-81.3968
-95.2173
-108.43
-120.952
-132.712
-143.644
-153.688
-162.794
-170.927
-178.06
-184.185
-189.299
-193.415
-196.553
-198.746
-200.025
-200.437
-200.024
-198.839
-196.923
-194.332
-191.109
-187.294
-182.921
-178.02
-172.621
-166.744
-160.41
-153.629
-146.413
-138.762
-130.68
-122.165
-113.211
-103.816
-93.9741
-83.6846
-72.9466
-61.7617
-50.1322
-38.0351
-25.5582
-12.7029
0.49285
13.9741
27.6705
41.4976
55.3576
69.1405
82.7243
95.9778
108.764
120.942
132.373
142.92
152.45
160.842
167.982
173.77
178.118
180.958
182.242
181.942
180.056
176.605
171.634
165.205
157.402
148.325
138.089
126.821
114.656
101.736
88.2009
74.1906
59.8389
45.2719
30.607
15.9509
1.40093
-12.9567
-27.0445
-40.7934
-54.1422
-67.0374
-79.4327
-91.2927
-102.589
-113.3
-123.413
-132.922
-141.827
-150.131
-157.84
-164.966
-171.521
-177.525
-182.995
-187.95
-192.405
-196.365
-199.833
-202.794
-205.225
-207.094
-208.36
-208.977
-208.896
-208.076
-206.474
-204.055
-200.791
-196.657
-191.64
-185.736
-178.952
-171.308
-162.839
-153.593
-143.624
-132.999
-121.78
-110.032
-97.8184
-85.2018
-72.2507
-59.0316
-45.6445
-32.1269
-18.5936
-5.13417
7.92967
20.5313
32.3618
-36.1291
-57.6035
-78.7286
-90.3073
-111.077
-130.882
-149.528
-166.888
-182.885
-197.454
-210.568
-222.226
-232.46
-241.322
-248.88
-255.214
-260.405
-264.536
-267.678
-269.892
-271.226
-271.707
-271.352
-270.215
-268.264
-265.496
-261.907
-257.466
-252.146
-245.893
-238.656
-230.375
-221.004
-210.528
-198.93
-186.228
-172.473
-157.725
-142.071
-125.595
-108.421
-90.6814
-72.2236
-53.4974
-34.7433
-16.0244
2.53234
20.8283
38.7262
56.1166
72.8717
88.8759
104.037
118.264
131.48
143.627
154.668
164.585
173.379
181.065
187.657
193.161
197.579
200.905
203.127
204.227
204.181
202.975
200.811
197.455
192.888
187.114
180.133
171.966
162.647
152.234
140.801
128.445
115.271
101.395
86.9313
71.9919
56.6834
41.1087
25.3641
9.54478
-6.25802
-21.9538
-37.4522
-52.6658
-67.508
-81.9422
-95.8112
-109.071
-121.636
-133.435
-144.398
-154.467
-163.59
-171.731
-178.865
-184.983
-190.083
-194.179
-197.292
-199.457
-200.704
-201.08
-200.632
-199.41
-197.462
-194.84
-191.589
-187.749
-183.354
-178.436
-173.022
-167.134
-160.793
-154.008
-146.791
-139.143
-131.065
-122.554
-113.606
-104.216
-94.379
-84.0924
-73.3548
-62.1668
-50.5289
-38.4269
-25.9277
-13.0422
0.19321
13.7248
27.4824
41.3814
55.3237
69.1983
82.8819
96.2415
109.137
121.427
132.969
143.622
153.254
161.74
168.964
174.823
179.229
182.11
183.416
183.12
181.22
177.736
172.713
166.218
158.335
149.165
138.827
127.45
115.173
102.139
88.4933
74.3757
59.9229
45.262
30.511
15.7776
1.1586
-13.2601
-27.4008
-41.1952
-54.5823
-67.5083
-79.9275
-91.8047
-103.112
-113.829
-123.942
-133.447
-142.345
-150.639
-158.336
-165.447
-171.988
-177.976
-183.433
-188.376
-192.825
-196.786
-200.261
-203.235
-205.687
-207.582
-208.877
-209.524
-209.474
-208.681
-207.105
-204.707
-201.46
-197.337
-192.325
-186.418
-179.622
-171.96
-163.464
-154.185
-144.18
-133.516
-122.255
-110.465
-98.2065
-85.5414
-72.5372
-59.2583
-45.8003
-32.1988
-18.5679
-4.98217
8.20015
20.8778
32.8064
-36.6516
-58.208
-79.4187
-91.1484
-112.081
-131.981
-150.697
-168.105
-184.131
-198.707
-211.808
-223.436
-233.626
-242.432
-249.929
-256.199
-261.329
-265.404
-268.498
-270.673
-271.978
-272.441
-272.077
-270.937
-268.988
-266.231
-262.661
-258.245
-252.957
-246.74
-239.538
-231.287
-221.938
-211.471
-199.866
-187.14
-173.346
-158.545
-142.827
-126.276
-109.018