/*--------------------------------*- C++ -*----------------------------------*\
| =========                 |                                                 |
| \\      /  F ield         | OpenFOAM: The Open Source CFD Toolbox           |
|  \\    /   O peration     | Version:  3.0.1                                 |
|   \\  /    A nd           | Web:      www.OpenFOAM.org                      |
|    \\/     M anipulation  |                                                 |
\*---------------------------------------------------------------------------*/
FoamFile
{
    version     2.0;
    format      ascii;
    class       volScalarField;
    location    "97.2";
    object      p;
}
// * * * * * * * * * * * * * * * * * * * * * * * * * * * * * * * * * * * * * //

dimensions      [1 -1 -2 0 0 0 0];

internalField   nonuniform List<scalar> 
21420
(
3790.96
3820.45
3851.56
3883.81
3908.18
3942.71
3977.8
4012.72
4047.1
4080.61
4112.82
4143.33
4171.76
4197.67
4220.69
4240.44
4256.6
4268.93
4277.23
4281.34
4281.11
4276.67
4268.14
4255.55
4239.13
4219.11
4195.81
4169.54
4140.73
4109.77
4077.09
4043.17
4008.47
3973.45
3938.68
3906.23
3872.98
3840.3
3808.67
3778.38
3749.64
3722.59
3697.3
3673.84
3652.22
3632.43
3614.48
3598.32
3583.92
3571.24
3560.24
3550.88
3543.11
3536.91
3532.24
3529.11
3527.52
3527.51
3528.99
3532.02
3536.63
3542.85
3550.72
3560.28
3571.54
3584.56
3599.36
3615.96
3634.37
3654.56
3676.51
3700.18
3725.48
3752.32
3780.59
3810.15
3840.88
3872.73
3906.62
3939.88
3973.11
4006.17
4038.78
4070.62
4101.34
4130.56
4157.87
4182.93
4205.36
4224.85
4241.09
4253.83
4262.87
4268.04
4269.17
4266.37
4259.54
4248.75
4234.14
4215.9
4194.25
4169.48
4141.93
4111.97
4079.99
4046.45
4011.78
3976.45
3940.9
3905.56
3870.84
3837.07
3804.58
3773.61
3744.37
3717
3691.6
3668.23
3646.9
3627.61
3610.34
3595.03
3581.63
3570.07
3560.29
3552.22
3545.79
3540.93
3537.57
3535.68
3535.2
3536.03
3538.18
3541.62
3546.31
3552.27
3559.5
3568.03
3577.88
3589.09
3601.72
3615.81
3631.41
3648.57
3667.33
3687.7
3709.7
3733.31
3758.5
3785.21
3813.34
3842.77
3873.34
3904.88
3937.05
3969.6
4002.21
4034.53
4066.17
4096.73
4125.79
4152.95
4177.79
4199.92
4218.96
4234.59
4246.51
4254.49
4258.31
4257.94
4253.32
4244.53
4231.67
4214.94
4194.63
4171.06
4144.62
4115.71
4084.8
4052.36
4018.86
3984.8
3950.63
3916.75
3883.53
3851.27
3820.24
3790.63
3762.62
3736.3
3711.77
3689.06
3668.19
3649.15
3631.91
3616.41
3602.59
3590.39
3579.73
3570.55
3562.77
3556.35
3551.24
3547.4
3544.82
3543.5
3543.38
3544.51
3546.89
3550.54
3555.48
3561.73
3569.34
3578.31
3588.69
3600.51
3613.8
3628.6
3644.92
3662.79
3682.21
3703.19
3725.7
3749.71
3775.16
3801.96
3830.02
3859.17
3889.25
3920.14
3951.4
3982.85
4014.2
4045.1
4075.21
4104.16
4131.54
4156.94
4179.95
4200.14
4217.15
4230.65
4240.36
4246.08
4247.65
4245.06
4238.36
4227.56
4212.88
4194.55
4172.87
4148.19
4120.91
4091.48
4060.35
4027.98
3994.85
3961.41
3928.07
3895.24
3863.25
3832.39
3802.9
3774.98
3748.75
3724.32
3701.73
3681.01
3662.13
3645.08
3629.79
3616.19
3604.24
3593.86
3584.96
3577.49
3571.35
3566.51
3562.94
3560.49
3559.16
3558.91
3559.7
3561.53
3564.37
3568.24
3573.16
3579.15
3586.25
3594.47
3603.84
3614.43
3626.3
3639.54
3654.25
3670.54
3688.51
3708.26
3729.87
3753.34
3778.7
3805.86
3834.67
3864.8
3894.54
3926.32
3958.87
3991.52
4023.82
4055.26
4085.35
4113.68
4139.81
4163.35
4183.95
4201.32
4215.22
4225.45
4231.9
4234.45
4233
4227.76
4218.93
4206.62
4191.13
4172.73
4151.76
4128.6
4103.59
4077.1
4049.5
4021.14
3992.32
3963.35
3934.48
3905.95
3878.26
3851.1
3824.48
3798.66
3773.78
3749.97
3727.3
3705.85
3685.69
3666.87
3649.44
3633.44
3618.9
3605.87
3594.36
3584.39
3576
3569.19
3563.98
3560.39
3558.42
3692.77
3722.26
3753.39
3785.64
3810.03
3844.58
3879.68
3914.61
3949.01
3982.53
4014.77
4045.29
4073.74
4099.67
4122.71
4142.48
4158.65
4170.98
4179.29
4183.41
4183.18
4178.74
4170.2
4157.6
4141.16
4121.13
4097.81
4071.52
4042.69
4011.71
3979.01
3945.08
3910.35
3875.32
3840.52
3808.09
3774.82
3742.13
3710.49
3680.2
3651.46
3624.4
3599.12
3575.66
3554.04
3534.26
3516.3
3500.15
3485.75
3473.07
3462.08
3452.71
3444.95
3438.75
3434.08
3430.95
3429.36
3429.35
3430.82
3433.86
3438.47
3444.68
3452.56
3462.11
3473.37
3486.38
3501.18
3517.78
3536.19
3556.38
3578.33
3602
3627.31
3654.15
3682.42
3711.98
3742.72
3774.57
3808.48
3841.75
3874.99
3908.06
3940.69
3972.54
4003.28
4032.51
4059.84
4084.91
4107.36
4126.87
4143.12
4155.87
4164.91
4170.09
4171.23
4168.41
4161.59
4150.79
4136.17
4117.91
4096.25
4071.47
4043.9
4013.91
3981.92
3948.36
3913.67
3878.32
3842.76
3807.41
3772.67
3738.89
3706.39
3675.42
3646.18
3618.81
3593.41
3570.03
3548.71
3529.42
3512.15
3496.84
3483.44
3471.89
3462.12
3454.05
3447.62
3442.77
3439.41
3437.52
3437.04
3437.87
3440.03
3443.46
3448.16
3454.11
3461.34
3469.87
3479.71
3490.92
3503.55
3517.64
3533.24
3550.4
3569.15
3589.52
3611.52
3635.13
3660.32
3687.03
3715.17
3744.61
3775.18
3806.73
3838.91
3871.47
3904.1
3936.43
3968.08
3998.66
4027.75
4054.92
4079.78
4101.92
4120.99
4136.63
4148.56
4156.54
4160.37
4160
4155.38
4146.58
4133.71
4116.97
4096.64
4073.06
4046.59
4017.66
3986.73
3954.27
3920.75
3886.68
3852.48
3818.59
3785.36
3753.1
3722.06
3692.45
3664.43
3638.12
3613.58
3590.88
3570.01
3550.97
3533.73
3518.23
3504.42
3492.22
3481.57
3472.39
3464.61
3458.2
3453.09
3449.24
3446.66
3445.34
3445.23
3446.36
3448.74
3452.38
3457.32
3463.58
3471.18
3480.15
3490.53
3502.35
3515.64
3530.43
3546.75
3564.61
3584.04
3605.01
3627.53
3651.54
3676.98
3703.79
3731.85
3761.01
3791.1
3821.99
3853.27
3884.73
3916.09
3947.01
3977.14
4006.1
4033.5
4058.92
4081.94
4102.16
4119.18
4132.69
4142.41
4148.14
4149.71
4147.12
4140.41
4129.61
4114.92
4096.57
4074.87
4050.17
4022.88
3993.42
3962.27
3929.89
3896.74
3863.28
3829.93
3797.08
3765.08
3734.21
3704.72
3676.79
3650.57
3626.13
3603.55
3582.83
3563.96
3546.9
3531.62
3518.03
3506.08
3495.7
3486.8
3479.33
3473.2
3468.37
3464.79
3462.34
3461.02
3460.77
3461.56
3463.39
3466.23
3470.1
3475.02
3481.01
3488.1
3496.32
3505.69
3516.27
3528.14
3541.37
3556.08
3572.37
3590.33
3610.08
3631.68
3655.16
3680.51
3707.68
3736.49
3766.64
3796.37
3828.18
3860.74
3893.41
3925.73
3957.19
3987.29
4015.65
4041.8
4065.35
4085.97
4103.35
4117.26
4127.49
4133.95
4136.5
4135.04
4129.8
4120.96
4108.64
4093.13
4074.72
4053.74
4030.56
4005.53
3979.03
3951.42
3923.04
3894.2
3865.22
3836.35
3807.81
3780.12
3752.95
3726.33
3700.51
3675.63
3651.81
3629.14
3607.69
3587.53
3568.71
3551.28
3535.27
3520.74
3507.71
3496.19
3486.23
3477.83
3471.02
3465.82
3462.22
3460.25
3594.48
3623.99
3655.13
3687.41
3711.83
3746.41
3781.54
3816.5
3850.93
3884.48
3916.75
3947.32
3975.8
4001.77
4024.84
4044.64
4060.84
4073.19
4081.52
4085.65
4085.4
4080.96
4072.4
4059.79
4043.32
4023.26
3999.9
3973.58
3944.71
3913.69
3880.96
3846.98
3812.22
3777.15
3742.31
3709.91
3676.61
3643.89
3612.24
3581.94
3553.19
3526.14
3500.85
3477.39
3455.77
3436
3418.05
3401.9
3387.51
3374.84
3363.84
3354.48
3346.72
3340.52
3335.86
3332.73
3331.14
3331.13
3332.6
3335.64
3340.24
3346.45
3354.32
3363.87
3375.12
3388.14
3402.93
3419.53
3437.93
3458.12
3480.08
3503.75
3529.05
3555.9
3584.18
3613.75
3644.49
3676.35
3710.31
3743.59
3776.84
3809.94
3842.59
3874.48
3905.25
3934.51
3961.88
3986.98
4009.47
4029
4045.28
4058.05
4067.11
4072.3
4073.45
4070.61
4063.79
4052.97
4038.34
4020.05
3998.36
3973.54
3945.94
3915.91
3883.88
3850.28
3815.56
3780.17
3744.58
3709.19
3674.43
3640.64
3608.12
3577.14
3547.89
3520.52
3495.12
3471.75
3450.43
3431.15
3413.88
3398.58
3385.19
3373.64
3363.87
3355.81
3349.39
3344.54
3341.19
3339.31
3338.82
3339.67
3341.82
3345.25
3349.95
3355.91
3363.13
3371.65
3381.5
3392.7
3405.32
3419.4
3435
3452.16
3470.9
3491.27
3513.27
3536.88
3562.07
3588.78
3616.93
3646.37
3676.96
3708.53
3740.73
3773.31
3805.97
3838.33
3870.02
3900.63
3929.75
3956.97
3981.86
4004.04
4023.14
4038.81
4050.76
4058.76
4062.61
4062.22
4057.6
4048.79
4035.89
4019.13
3998.77
3975.14
3948.63
3919.67
3888.69
3856.19
3822.64
3788.53
3754.3
3720.39
3687.13
3654.85
3623.8
3594.18
3566.16
3539.84
3515.31
3492.61
3471.75
3452.71
3435.48
3419.99
3406.18
3393.99
3383.34
3374.17
3366.4
3359.99
3354.88
3351.04
3348.46
3347.14
3347.03
3348.15
3350.53
3354.18
3359.11
3365.36
3372.96
3381.93
3392.31
3404.12
3417.41
3432.2
3448.51
3466.37
3485.79
3506.77
3529.28
3553.29
3578.75
3605.56
3633.63
3662.8
3692.9
3723.81
3755.1
3786.59
3817.98
3848.93
3879.09
3908.08
3935.52
3960.98
3984.04
4004.29
4021.35
4034.88
4044.62
4050.37
4051.93
4049.34
4042.62
4031.8
4017.09
3998.71
3976.97
3952.24
3924.9
3895.41
3864.22
3831.79
3798.61
3765.12
3731.74
3698.87
3666.85
3635.97
3606.46
3578.53
3552.3
3527.87
3505.28
3484.57
3465.7
3448.66
3433.38
3419.79
3407.85
3397.48
3388.59
3381.13
3375
3370.18
3366.6
3364.15
3362.83
3362.59
3363.38
3365.21
3368.05
3371.92
3376.84
3382.82
3389.91
3398.13
3407.49
3418.07
3429.92
3443.15
3457.85
3474.13
3492.08
3511.82
3533.41
3556.89
3582.24
3609.42
3638.25
3668.42
3698.14
3729.98
3762.58
3795.29
3827.65
3859.14
3889.29
3917.68
3943.87
3967.45
3988.1
4005.51
4019.44
4029.69
4036.15
4038.72
4037.23
4031.98
4023.12
4010.78
3995.24
3976.8
3955.79
3932.57
3907.51
3880.98
3853.34
3824.94
3796.08
3767.08
3738.19
3709.64
3681.94
3654.76
3628.13
3602.3
3577.42
3553.6
3530.92
3509.47
3489.31
3470.48
3453.05
3437.05
3422.51
3409.48
3397.97
3388
3379.61
3372.79
3367.59
3363.99
3362.02
3496.11
3525.63
3556.8
3589.11
3613.58
3648.21
3683.38
3718.38
3752.85
3786.46
3818.78
3849.4
3877.94
3903.97
3927.09
3946.94
3963.18
3975.56
3983.9
3988.06
3987.8
3983.35
3974.77
3962.12
3945.61
3925.51
3902.1
3875.72
3846.79
3815.71
3782.92
3748.89
3714.07
3678.94
3644.04
3611.69
3578.34
3545.59
3513.91
3483.6
3454.84
3427.78
3402.5
3379.04
3357.43
3337.66
3319.72
3303.58
3289.19
3276.53
3265.54
3256.19
3248.43
3242.24
3237.58
3234.45
3232.87
3232.84
3234.32
3237.35
3241.95
3248.16
3256.02
3265.56
3276.8
3289.81
3304.6
3321.19
3339.59
3359.78
3381.74
3405.41
3430.73
3457.58
3485.87
3515.45
3546.2
3578.06
3612.11
3645.4
3678.68
3711.81
3744.5
3776.43
3807.25
3836.56
3863.99
3889.14
3911.67
3931.25
3947.57
3960.38
3969.46
3974.66
3975.84
3972.97
3966.14
3955.3
3940.64
3922.31
3900.58
3875.71
3848.05
3817.97
3785.88
3752.22
3717.44
3682
3646.35
3610.93
3576.13
3542.31
3509.77
3478.78
3449.51
3422.14
3396.74
3373.37
3352.06
3332.79
3315.53
3300.24
3286.86
3275.32
3265.56
3257.51
3251.1
3246.26
3242.91
3241.04
3240.56
3241.41
3243.56
3247
3251.69
3257.65
3264.87
3273.39
3283.22
3294.42
3307.03
3321.11
3336.7
3353.84
3372.58
3392.95
3414.94
3438.55
3463.74
3490.46
3518.62
3548.08
3578.68
3610.28
3642.51
3675.13
3707.82
3740.23
3771.97
3802.64
3831.82
3859.09
3884.04
3906.27
3925.41
3941.13
3953.11
3961.14
3965.02
3964.61
3959.98
3951.15
3938.22
3921.41
3901.01
3877.33
3850.76
3821.73
3790.69
3758.13
3724.52
3690.35
3656.09
3622.13
3588.85
3556.54
3525.47
3495.84
3467.81
3441.49
3416.96
3394.26
3373.4
3354.38
3337.15
3321.67
3307.88
3295.7
3285.06
3275.89
3268.13
3261.73
3256.62
3252.79
3250.22
3248.89
3248.78
3249.9
3252.28
3255.92
3260.85
3267.1
3274.69
3283.66
3294.03
3305.83
3319.12
3333.9
3350.21
3368.07
3387.48
3408.46
3430.97
3454.98
3480.44
3507.26
3535.34
3564.53
3594.65
3625.59
3656.91
3688.44
3719.86
3750.86
3781.06
3810.11
3837.61
3863.12
3886.24
3906.54
3923.65
3937.22
3946.99
3952.75
3954.33
3951.72
3944.98
3934.14
3919.39
3900.97
3879.18
3854.39
3827
3797.44
3766.19
3733.7
3700.47
3666.92
3633.51
3600.6
3568.55
3537.64
3508.13
3480.18
3453.95
3429.51
3406.94
3386.22
3367.37
3350.33
3335.06
3321.49
3309.56
3299.2
3290.32
3282.87
3276.75
3271.94
3268.36
3265.92
3264.61
3264.36
3265.16
3266.99
3269.83
3273.69
3278.61
3284.59
3291.68
3299.89
3309.24
3319.81
3331.65
3344.86
3359.55
3375.81
3393.75
3413.48
3435.06
3458.53
3483.89
3511.07
3539.93
3570.15
3599.84
3631.74
3664.4
3697.16
3729.58
3761.13
3791.34
3819.78
3846.03
3869.66
3890.36
3907.8
3921.76
3932.03
3938.5
3941.08
3939.56
3934.31
3925.41
3913.03
3897.46
3878.97
3857.91
3834.64
3809.54
3782.96
3755.28
3726.84
3697.94
3668.92
3640
3611.43
3583.72
3556.53
3529.89
3504.05
3479.16
3455.33
3432.65
3411.19
3391.02
3372.2
3354.77
3338.76
3324.23
3311.19
3299.68
3289.71
3281.31
3274.5
3269.29
3265.7
3263.73
3397.64
3427.18
3458.38
3490.75
3515.28
3549.98
3585.2
3620.26
3654.79
3688.45
3720.84
3751.54
3780.16
3806.26
3829.46
3849.37
3865.66
3878.08
3886.45
3890.62
3890.38
3885.9
3877.28
3864.59
3848.03
3827.87
3804.39
3777.94
3748.93
3717.78
3684.91
3650.81
3615.91
3580.7
3545.71
3513.43
3480.02
3447.22
3415.51
3385.17
3356.41
3329.34
3304.06
3280.61
3259
3239.24
3221.31
3205.18
3190.81
3178.15
3167.18
3157.83
3150.08
3143.89
3139.24
3136.12
3134.53
3134.5
3135.97
3139
3143.6
3149.79
3157.65
3167.17
3178.41
3191.41
3206.2
3222.78
3241.18
3261.36
3283.32
3307
3332.32
3359.19
3387.49
3417.08
3447.85
3479.72
3513.87
3547.18
3580.49
3613.67
3646.42
3678.41
3709.29
3738.67
3766.16
3791.39
3813.98
3833.62
3850
3862.85
3871.96
3877.18
3878.37
3875.5
3868.64
3857.78
3843.07
3824.7
3802.9
3777.96
3750.23
3720.07
3687.91
3654.17
3619.31
3583.8
3548.09
3512.61
3477.77
3443.91
3411.34
3380.32
3351.05
3323.66
3298.27
3274.9
3253.6
3234.34
3217.09
3201.82
3188.45
3176.93
3167.18
3159.14
3152.74
3147.91
3144.58
3142.72
3142.24
3143.09
3145.25
3148.69
3153.38
3159.34
3166.56
3175.06
3184.89
3196.08
3208.68
3222.75
3238.32
3255.46
3274.19
3294.55
3316.54
3340.15
3365.34
3392.07
3420.24
3449.71
3480.34
3511.98
3544.25
3576.92
3609.67
3642.14
3673.95
3704.69
3733.94
3761.28
3786.31
3808.61
3827.82
3843.59
3855.62
3863.68
3867.58
3867.17
3862.53
3853.67
3840.7
3823.83
3803.36
3779.6
3752.96
3723.85
3692.73
3660.08
3626.4
3592.16
3557.83
3523.82
3490.5
3458.16
3427.06
3397.42
3369.37
3343.05
3318.52
3295.83
3274.98
3255.96
3238.75
3223.28
3209.5
3197.34
3186.72
3177.56
3169.81
3163.41
3158.32
3154.49
3151.92
3150.59
3150.48
3151.6
3153.97
3157.61
3162.53
3168.78
3176.36
3185.32
3195.69
3207.49
3220.76
3235.54
3251.84
3269.69
3289.1
3310.08
3332.59
3356.6
3382.07
3408.9
3437
3466.21
3496.35
3527.34
3558.69
3590.27
3621.74
3652.8
3683.07
3712.19
3739.75
3765.34
3788.54
3808.91
3826.08
3839.7
3849.51
3855.29
3856.89
3854.27
3847.51
3836.63
3821.83
3803.35
3781.49
3756.62
3729.15
3699.51
3668.18
3635.62
3602.31
3568.7
3535.23
3502.27
3470.18
3439.25
3409.71
3381.75
3355.51
3331.08
3308.51
3287.8
3268.96
3251.94
3236.68
3223.13
3211.21
3200.86
3191.99
3184.55
3178.45
3173.65
3170.08
3167.65
3166.34
3166.1
3166.9
3168.73
3171.57
3175.43
3180.34
3186.32
3193.4
3201.6
3210.94
3221.49
3233.32
3246.52
3261.18
3277.42
3295.35
3315.05
3336.63
3360.09
3385.45
3412.65
3441.54
3471.81
3501.47
3533.45
3566.18
3599.03
3631.51
3663.14
3693.43
3721.95
3748.27
3771.97
3792.73
3810.23
3824.22
3834.52
3840.99
3843.59
3842.06
3836.77
3827.84
3815.41
3799.78
3781.23
3760.1
3736.77
3711.6
3684.96
3657.23
3628.73
3599.8
3570.73
3541.78
3513.19
3485.45
3458.24
3431.59
3405.74
3380.84
3357
3334.31
3312.85
3292.68
3273.85
3256.42
3240.41
3225.87
3212.84
3201.32
3191.36
3182.96
3176.15
3170.94
3167.34
3165.37
3299.08
3328.65
3359.89
3392.31
3416.94
3451.71
3487
3522.13
3556.73
3590.47
3622.95
3653.74
3682.46
3708.66
3731.94
3751.93
3768.29
3780.76
3789.16
3793.34
3793.11
3788.62
3779.96
3767.21
3750.59
3730.34
3706.78
3680.24
3651.14
3619.89
3586.92
3552.72
3517.73
3482.42
3447.33
3415.13
3381.64
3348.77
3317.02
3286.67
3257.89
3230.82
3205.54
3182.09
3160.5
3140.75
3122.83
3106.71
3092.35
3079.71
3068.74
3059.41
3051.67
3045.49
3040.84
3037.72
3036.13
3036.1
3037.57
3040.59
3045.18
3051.36
3059.21
3068.72
3079.95
3092.94
3107.71
3124.29
3142.68
3162.87
3184.83
3208.51
3233.84
3260.72
3289.04
3318.65
3349.44
3381.31
3415.6
3448.93
3482.28
3515.52
3548.33
3580.4
3611.36
3640.83
3668.41
3693.72
3716.4
3736.11
3752.55
3765.45
3774.61
3779.85
3781.06
3778.18
3771.3
3760.4
3745.64
3727.2
3705.33
3680.31
3652.49
3622.23
3589.97
3556.13
3521.18
3485.59
3449.79
3414.24
3379.34
3345.43
3312.82
3281.78
3252.49
3225.1
3199.7
3176.35
3155.05
3135.81
3118.58
3103.32
3089.97
3078.46
3068.73
3060.71
3054.33
3049.51
3046.19
3044.34
3043.87
3044.73
3046.89
3050.33
3055.03
3060.98
3068.19
3076.69
3086.5
3097.68
3110.27
3124.32
3139.88
3157.01
3175.73
3196.08
3218.06
3241.67
3266.87
3293.61
3321.79
3351.29
3381.95
3413.63
3445.95
3478.68
3511.5
3544.05
3575.94
3606.77
3636.11
3663.55
3688.67
3711.06
3730.35
3746.19
3758.28
3766.38
3770.3
3769.9
3765.24
3756.34
3743.32
3726.39
3705.83
3681.98
3655.24
3626.02
3594.8
3562.05
3528.27
3493.94
3459.53
3425.46
3392.08
3359.7
3328.58
3298.91
3270.86
3244.53
3220
3197.31
3176.47
3157.47
3140.27
3124.83
3111.07
3098.92
3088.31
3079.17
3071.44
3065.05
3059.96
3056.14
3053.57
3052.24
3052.13
3053.25
3055.61
3059.25
3064.17
3070.4
3077.98
3086.93
3097.29
3109.08
3122.34
3137.11
3153.4
3171.25
3190.66
3211.62
3234.14
3258.15
3283.63
3310.48
3338.59
3367.83
3398.01
3429.04
3460.45
3492.08
3523.62
3554.75
3585.1
3614.31
3641.96
3667.65
3690.94
3711.4
3728.64
3742.33
3752.19
3758
3759.61
3756.99
3750.19
3739.27
3724.41
3705.85
3683.91
3658.94
3631.37
3601.63
3570.2
3537.54
3504.14
3470.45
3436.9
3403.89
3371.75
3340.78
3311.22
3283.24
3256.99
3232.56
3209.99
3189.3
3170.47
3153.47
3138.23
3124.7
3112.79
3102.46
3093.61
3086.19
3080.1
3075.32
3071.75
3069.33
3068.03
3067.8
3068.6
3070.43
3073.26
3077.12
3082.03
3088.01
3095.08
3103.26
3112.59
3123.13
3134.94
3148.11
3162.75
3178.96
3196.86
3216.55
3238.11
3261.56
3286.92
3314.14
3343.08
3373.42
3403.03
3435.11
3467.94
3500.88
3533.46
3565.19
3595.57
3624.19
3650.6
3674.39
3695.22
3712.78
3726.82
3737.15
3743.64
3746.23
3744.7
3739.38
3730.4
3717.91
3702.2
3683.58
3662.37
3638.96
3613.71
3586.99
3559.18
3530.63
3501.64
3472.52
3443.53
3414.91
3387.15
3359.92
3333.25
3307.38
3282.46
3258.62
3235.92
3214.46
3194.28
3175.45
3158.01
3142
3127.46
3114.42
3102.91
3092.94
3084.54
3077.73
3072.52
3068.92
3066.95
3200.42
3230.02
3261.31
3293.81
3318.54
3353.41
3388.78
3423.99
3458.67
3492.52
3525.1
3556.01
3584.84
3611.15
3634.54
3654.63
3671.06
3683.6
3692.03
3696.23
3696.01
3691.5
3682.78
3669.98
3653.27
3632.94
3609.27
3582.62
3553.4
3522.03
3488.95
3454.64
3419.53
3384.1
3348.88
3316.79
3283.2
3250.26
3218.46
3188.08
3159.29
3132.21
3106.93
3083.49
3061.91
3042.17
3024.27
3008.17
2993.82
2981.2
2970.24
2960.92
2953.19
2947.02
2942.38
2939.27
2937.67
2937.63
2939.1
2942.12
2946.69
2952.87
2960.7
2970.2
2981.42
2994.39
3009.16
3025.73
3044.11
3064.29
3086.25
3109.95
3135.29
3162.18
3190.52
3220.16
3250.96
3282.85
3317.29
3350.64
3384.05
3417.35
3450.25
3482.41
3513.47
3543.04
3570.72
3596.13
3618.91
3638.72
3655.24
3668.21
3677.41
3682.68
3683.9
3681.03
3674.11
3663.17
3648.35
3629.83
3607.87
3582.75
3554.81
3524.44
3492.06
3458.11
3423.05
3387.34
3351.46
3315.82
3280.84
3246.87
3214.22
3183.15
3153.84
3126.44
3101.04
3077.7
3056.42
3037.19
3019.98
3004.74
2991.41
2979.93
2970.22
2962.21
2955.85
2951.05
2947.75
2945.9
2945.44
2946.32
2948.49
2951.93
2956.62
2962.57
2969.77
2978.26
2988.06
2999.23
3011.8
3025.83
3041.38
3058.49
3077.2
3097.53
3119.51
3143.12
3168.32
3195.07
3223.27
3252.8
3283.49
3315.24
3347.61
3380.42
3413.32
3445.96
3477.96
3508.89
3538.35
3565.9
3591.13
3613.63
3633.01
3648.94
3661.1
3669.24
3673.19
3672.81
3668.12
3659.17
3646.08
3629.07
3608.41
3584.45
3557.59
3528.25
3496.9
3464.03
3430.13
3395.7
3361.2
3327.05
3293.61
3261.18
3230.02
3200.32
3172.26
3145.92
3121.39
3098.71
3077.89
3058.9
3041.73
3026.3
3012.56
3000.44
2989.85
2980.73
2973.01
2966.63
2961.55
2957.74
2955.18
2953.84
2953.73
2954.85
2957.21
2960.83
2965.75
2971.97
2979.54
2988.49
2998.83
3010.61
3023.86
3038.62
3054.9
3072.74
3092.14
3113.1
3135.61
3159.64
3185.12
3211.98
3240.12
3269.4
3299.62
3330.69
3362.17
3393.87
3425.5
3456.71
3487.16
3516.47
3544.24
3570.04
3593.43
3614
3631.34
3645.11
3655.02
3660.87
3662.49
3659.87
3653.03
3642.06
3627.12
3608.48
3586.43
3561.35
3533.65
3503.79
3472.23
3439.46
3405.95
3372.17
3338.53
3305.45
3273.25
3242.24
3212.64
3184.65
3158.39
3133.96
3111.4
3090.72
3071.91
3054.92
3039.71
3026.2
3014.32
3004
2995.18
2987.77
2981.7
2976.93
2973.38
2970.97
2969.68
2969.45
2970.26
2972.08
2974.92
2978.77
2983.68
2989.65
2996.71
3004.88
3014.19
3024.71
3036.49
3049.64
3064.25
3080.43
3098.3
3117.96
3139.5
3162.94
3188.31
3215.55
3244.54
3274.97
3304.52
3336.73
3369.67
3402.72
3435.41
3467.26
3497.76
3526.49
3553.02
3576.91
3597.83
3615.47
3629.57
3639.94
3646.45
3649.03
3647.49
3642.13
3633.08
3620.53
3604.73
3586.01
3564.71
3541.2
3515.85
3489.04
3461.15
3432.52
3403.46
3374.28
3345.25
3316.6
3288.8
3261.54
3234.86
3208.97
3184.03
3160.17
3137.47
3116
3095.81
3076.98
3059.53
3043.52
3028.98
3015.94
3004.43
2994.46
2986.06
2979.24
2974.03
2970.44
2968.46
3101.67
3131.31
3162.65
3195.24
3220.11
3255.08
3290.55
3325.84
3360.63
3394.59
3427.29
3458.33
3487.3
3513.74
3537.26
3557.46
3573.99
3586.59
3595.07
3599.29
3599.07
3594.54
3585.77
3572.89
3556.09
3535.65
3511.86
3485.08
3455.73
3424.22
3391
3356.56
3321.32
3285.75
3250.37
3218.42
3184.7
3151.67
3119.82
3089.41
3060.6
3033.52
3008.24
2984.81
2963.24
2943.52
2925.64
2909.55
2895.22
2882.61
2871.68
2862.37
2854.65
2848.49
2843.87
2840.75
2839.15
2839.11
2840.58
2843.58
2848.15
2854.31
2862.13
2871.61
2882.81
2895.77
2910.52
2927.08
2945.46
2965.64
2987.6
3011.3
3036.65
3063.57
3091.93
3121.6
3152.42
3184.32
3218.94
3252.32
3285.8
3319.18
3352.18
3384.44
3415.61
3445.3
3473.1
3498.64
3521.53
3541.44
3558.05
3571.1
3580.37
3585.67
3586.91
3584.03
3577.07
3566.08
3551.19
3532.58
3510.51
3485.27
3457.21
3426.71
3394.19
3360.1
3324.91
3289.08
3253.08
3217.34
3182.28
3148.24
3115.54
3084.43
3055.1
3027.69
3002.3
2978.96
2957.69
2938.48
2921.3
2906.08
2892.78
2881.32
2871.63
2863.65
2857.31
2852.52
2849.24
2847.41
2846.96
2847.85
2850.03
2853.47
2858.16
2864.11
2871.3
2879.78
2889.57
2900.71
2913.26
2927.28
2942.8
2959.9
2978.59
2998.92
3020.88
3044.49
3069.7
3096.46
3124.68
3154.25
3184.98
3216.79
3249.23
3282.12
3315.13
3347.88
3379.99
3411.05
3440.63
3468.32
3493.68
3516.3
3535.8
3551.83
3564.07
3572.27
3576.25
3575.88
3571.17
3562.16
3549
3531.89
3511.11
3487.02
3460.02
3430.53
3399.04
3366.02
3331.99
3297.44
3262.83
3228.59
3195.07
3162.58
3131.38
3101.66
3073.57
3047.23
3022.7
3000.03
2979.22
2960.26
2943.1
2927.7
2913.99
2901.89
2891.33
2882.23
2874.53
2868.16
2863.1
2859.29
2856.73
2855.4
2855.28
2856.4
2858.75
2862.37
2867.27
2873.49
2881.05
2889.98
2900.31
2912.08
2925.32
2940.06
2956.33
2974.16
2993.55
3014.51
3037.02
3061.05
3086.54
3113.43
3141.6
3170.91
3201.19
3232.31
3263.86
3295.65
3327.36
3358.68
3389.24
3418.67
3446.57
3472.51
3496.04
3516.73
3534.18
3548.04
3558.02
3563.9
3565.55
3562.91
3556.03
3545
3529.98
3511.22
3489.05
3463.84
3436
3406
3374.3
3341.39
3307.75
3273.85
3240.12
3206.95
3174.68
3143.62
3113.99
3085.97
3059.7
3035.27
3012.72
2992.06
2973.27
2956.31
2941.12
2927.63
2915.77
2905.48
2896.68
2889.3
2883.25
2878.5
2874.96
2872.57
2871.29
2871.06
2871.87
2873.7
2876.54
2880.38
2885.28
2891.24
2898.29
2906.45
2915.75
2926.24
2937.99
2951.1
2965.68
2981.83
2999.67
3019.3
3040.81
3064.23
3089.61
3116.88
3145.92
3176.46
3205.94
3238.3
3271.37
3304.55
3337.38
3369.36
3400
3428.87
3455.52
3479.53
3500.56
3518.28
3532.46
3542.87
3549.4
3551.98
3550.43
3545.03
3535.91
3523.26
3507.37
3488.54
3467.12
3443.5
3418.04
3391.12
3363.14
3334.41
3305.27
3276.03
3246.94
3218.25
3190.41
3163.13
3136.41
3110.5
3085.55
3061.68
3038.96
3017.48
2997.29
2978.45
2961
2944.99
2930.44
2917.4
2905.88
2895.92
2887.51
2880.7
2875.48
2871.89
2869.91
3002.83
3032.51
3063.9
3096.59
3121.63
3156.72
3192.29
3227.69
3262.59
3296.67
3329.53
3360.71
3389.83
3416.44
3440.09
3460.42
3477.06
3489.74
3498.28
3502.52
3502.31
3497.74
3488.91
3475.94
3459.04
3438.47
3414.54
3387.61
3358.11
3326.45
3293.08
3258.48
3223.09
3187.37
3151.79
3120.01
3086.13
3053.01
3021.1
2990.65
2961.82
2934.74
2909.46
2886.04
2864.49
2844.79
2826.92
2810.86
2796.55
2783.96
2773.05
2763.75
2756.05
2749.9
2745.28
2742.18
2740.57
2740.53
2741.99
2744.99
2749.54
2755.69
2763.48
2772.95
2784.13
2797.07
2811.81
2828.35
2846.72
2866.9
2888.87
2912.58
2937.94
2964.88
2993.27
3022.97
3053.82
3085.72
3120.56
3153.96
3187.52
3220.99
3254.1
3286.49
3317.79
3347.61
3375.55
3401.23
3424.25
3444.29
3461.01
3474.14
3483.47
3488.82
3490.08
3487.19
3480.2
3469.14
3454.17
3435.46
3413.27
3387.89
3359.68
3329.02
3296.35
3262.1
3226.76
3190.79
3154.65
3118.8
3083.64
3049.53
3016.77
2985.62
2956.26
2928.85
2903.45
2880.13
2858.88
2839.69
2822.53
2807.35
2794.07
2782.64
2772.98
2765.02
2758.7
2753.94
2750.68
2748.87
2748.44
2749.33
2751.52
2754.96
2759.66
2765.59
2772.78
2781.24
2791.01
2802.14
2814.67
2828.66
2844.16
2861.24
2879.91
2900.23
2922.18
2945.79
2971
2997.78
3026.03
3055.63
3086.41
3118.29
3150.81
3183.8
3216.92
3249.8
3282.04
3313.24
3342.98
3370.81
3396.32
3419.09
3438.72
3454.86
3467.2
3475.47
3479.48
3479.12
3474.38
3465.32
3452.06
3434.84
3413.93
3389.69
3362.52
3332.87
3301.21
3268.03
3233.84
3199.14
3164.41
3130.07
3096.47
3063.91
3032.66
3002.91
2974.8
2948.45
2923.93
2901.27
2880.47
2861.53
2844.41
2829.03
2815.35
2803.28
2792.75
2783.68
2775.99
2769.65
2764.59
2760.79
2758.24
2756.91
2756.79
2757.9
2760.25
2763.86
2768.75
2774.95
2782.5
2791.42
2801.74
2813.49
2826.71
2841.44
2857.7
2875.51
2894.89
2915.85
2938.36
2962.39
2987.9
3014.8
3043.01
3072.36
3102.71
3133.88
3165.52
3197.4
3229.23
3260.66
3291.35
3320.92
3348.97
3375.06
3398.74
3419.57
3437.15
3451.12
3461.17
3467.1
3468.77
3466.12
3459.2
3448.09
3432.97
3414.09
3391.78
3366.41
3338.42
3308.24
3276.38
3243.32
3209.53
3175.5
3141.66
3108.39
3076.05
3044.92
3015.25
2987.21
2960.93
2936.5
2913.96
2893.32
2874.55
2857.61
2842.45
2829
2817.17
2806.9
2798.13
2790.77
2784.76
2780.02
2776.5
2774.13
2772.85
2772.64
2773.45
2775.28
2778.11
2781.95
2786.85
2792.8
2799.84
2807.98
2817.25
2827.71
2839.43
2852.51
2867.04
2883.16
2900.95
2920.55
2942.03
2965.44
2990.82
3018.11
3047.22
3077.89
3107.29
3139.82
3173.04
3206.36
3239.35
3271.48
3302.28
3331.31
3358.11
3382.26
3403.4
3421.24
3435.49
3445.96
3452.51
3455.09
3453.52
3448.06
3438.86
3426.12
3410.11
3391.16
3369.61
3345.85
3320.26
3293.23
3265.13
3236.3
3207.07
3177.74
3148.6
3119.86
3091.98
3064.66
3037.92
3011.98
2987.01
2963.12
2940.39
2918.9
2898.7
2879.85
2862.4
2846.38
2831.84
2818.8
2807.28
2797.31
2788.9
2782.09
2776.87
2773.27
2771.29
2903.9
2933.61
2965.07
2997.87
3023.1
3058.33
3094.01
3129.53
3164.56
3198.78
3231.79
3263.15
3292.45
3319.23
3343.05
3363.52
3380.28
3393.05
3401.65
3405.92
3405.71
3401.11
3392.21
3379.14
3362.12
3341.41
3317.33
3290.23
3260.55
3228.72
3195.17
3160.4
3124.85
3088.95
3053.15
3021.56
2987.51
2954.28
2922.3
2891.81
2862.96
2835.87
2810.6
2787.19
2765.65
2745.97
2728.13
2712.09
2697.81
2685.24
2674.35
2665.07
2657.39
2651.25
2646.64
2643.54
2641.94
2641.89
2643.34
2646.33
2650.87
2656.99
2664.77
2674.22
2685.38
2698.3
2713.02
2729.55
2747.91
2768.08
2790.05
2813.77
2839.15
2866.12
2894.54
2924.28
2955.16
2987.06
3022.14
3055.57
3089.21
3122.79
3156.02
3188.55
3220
3249.97
3278.07
3303.9
3327.08
3347.25
3364.09
3377.33
3386.74
3392.13
3393.41
3390.51
3383.47
3372.35
3357.28
3338.46
3316.13
3290.6
3262.22
3231.39
3198.54
3164.12
3128.6
3092.47
3056.19
3020.21
2984.94
2950.74
2917.91
2886.72
2857.34
2829.91
2804.52
2781.2
2759.98
2740.82
2723.69
2708.53
2695.28
2683.88
2674.25
2666.33
2660.03
2655.3
2652.07
2650.27
2649.85
2650.76
2652.96
2656.41
2661.1
2667.03
2674.21
2682.65
2692.4
2703.5
2716.01
2729.98
2745.46
2762.51
2781.16
2801.46
2823.41
2847.01
2872.23
2899.02
2927.3
2956.94
2987.79
3019.73
3052.35
3085.45
3118.7
3151.71
3184.11
3215.48
3245.38
3273.39
3299.06
3321.99
3341.77
3358.04
3370.48
3378.83
3382.88
3382.53
3377.76
3368.63
3355.28
3337.92
3316.86
3292.45
3265.11
3235.27
3203.42
3170.05
3135.69
3100.83
3065.95
3031.5
2997.8
2965.17
2933.87
2904.08
2875.95
2849.59
2825.07
2802.42
2781.65
2762.73
2745.63
2730.3
2716.65
2704.61
2694.11
2685.06
2677.4
2671.07
2666.03
2662.25
2659.7
2658.36
2658.25
2659.35
2661.69
2665.29
2670.17
2676.36
2683.9
2692.8
2703.1
2714.84
2728.04
2742.75
2758.99
2776.79
2796.17
2817.12
2839.63
2863.66
2889.18
2916.11
2944.35
2973.76
3004.17
3035.41
3067.15
3099.14
3131.09
3162.65
3193.49
3223.22
3251.43
3277.69
3301.54
3322.54
3340.26
3354.34
3364.49
3370.47
3372.16
3369.5
3362.52
3351.33
3336.09
3317.08
3294.61
3269.07
3240.89
3210.54
3178.49
3145.25
3111.3
3077.12
3043.14
3009.77
2977.34
2946.15
2916.43
2888.36
2862.07
2837.64
2815.12
2794.49
2775.75
2758.85
2743.72
2730.3
2718.5
2708.27
2699.53
2692.2
2686.21
2681.5
2677.99
2675.64
2674.38
2674.17
2674.99
2676.82
2679.65
2683.48
2688.37
2694.31
2701.34
2709.46
2718.7
2729.13
2740.82
2753.85
2768.34
2784.41
2802.16
2821.72
2843.17
2866.56
2891.94
2919.26
2948.44
2979.27
3008.56
3041.3
3074.69
3108.17
3141.32
3173.64
3204.61
3233.81
3260.79
3285.09
3306.37
3324.32
3338.66
3349.19
3355.77
3358.35
3356.76
3351.24
3341.95
3329.1
3312.96
3293.87
3272.16
3248.26
3222.53
3195.35
3167.13
3138.19
3108.86
3079.44
3050.22
3021.43
2993.51
2966.16
2939.38
2913.41
2888.41
2864.51
2841.76
2820.26
2800.05
2781.2
2763.74
2747.72
2733.17
2720.13
2708.61
2698.64
2690.23
2683.41
2678.19
2674.59
2672.61
2804.87
2834.63
2866.14
2899.06
2924.54
2959.91
2995.71
3031.36
3066.53
3100.91
3134.1
3165.65
3195.15
3222.12
3246.12
3266.75
3283.64
3296.52
3305.19
3309.49
3309.28
3304.64
3295.67
3282.49
3265.34
3244.47
3220.21
3192.93
3163.06
3131.02
3097.28
3062.33
3026.59
2990.49
2954.45
2923.08
2888.81
2855.47
2823.42
2792.89
2764.01
2736.91
2711.65
2688.25
2666.74
2647.08
2629.27
2613.25
2599
2586.46
2575.58
2566.33
2558.66
2552.54
2547.94
2544.85
2543.25
2543.2
2544.63
2547.61
2552.13
2558.24
2565.99
2575.42
2586.55
2599.45
2614.15
2630.67
2649.02
2669.18
2691.16
2714.89
2740.29
2767.28
2795.74
2825.52
2856.44
2888.34
2923.69
2957.15
2990.88
3024.58
3057.95
3090.63
3122.24
3152.39
3180.66
3206.66
3230.01
3250.33
3267.31
3280.66
3290.15
3295.6
3296.9
3293.99
3286.91
3275.71
3260.54
3241.58
3219.1
3193.4
3164.84
3133.81
3100.76
3066.14
3030.43
2994.12
2957.68
2921.56
2886.17
2851.87
2818.97
2787.72
2758.31
2730.87
2705.49
2682.19
2660.98
2641.85
2624.76
2609.63
2596.42
2585.06
2575.46
2567.57
2561.3
2556.6