/*--------------------------------*- C++ -*----------------------------------*\
| =========                 |                                                 |
| \\      /  F ield         | OpenFOAM: The Open Source CFD Toolbox           |
|  \\    /   O peration     | Version:  3.0.1                                 |
|   \\  /    A nd           | Web:      www.OpenFOAM.org                      |
|    \\/     M anipulation  |                                                 |
\*---------------------------------------------------------------------------*/
FoamFile
{
    version     2.0;
    format      ascii;
    class       volScalarField;
    location    "80.4";
    object      p_rgh;
}
// * * * * * * * * * * * * * * * * * * * * * * * * * * * * * * * * * * * * * //

dimensions      [1 -1 -2 0 0 0 0];

internalField   nonuniform List<scalar> 
21420
(
216.596
184.871
152.169
118.89
85.5302
52.4292
21.1463
-10.3885
-41.5846
-71.7759
-100.653
-128.002
-153.696
-177.658
-199.84
-220.228
-238.822
-255.649
-270.746
-284.149
-295.908
-306.071
-314.681
-321.782
-327.412
-331.607
-334.368
-335.684
-335.391
-333.683
-330.515
-325.879
-319.728
-312.028
-302.724
-291.762
-279.111
-264.707
-248.508
-230.486
-210.614
-188.888
-165.326
-139.95
-112.833
-84.0979
-53.8614
-22.272
10.227
42.9301
76.6366
110.763
144.906
178.601
211.41
242.942
272.766
300.473
325.702
348.106
367.381
383.267
395.54
404.034
408.641
409.236
405.886
398.613
387.451
372.586
354.199
332.557
307.965
280.754
251.307
220.024
187.32
153.611
119.298
84.7707
50.3893
16.9119
-16.1863
-48.2344
-79.0267
-108.39
-136.174
-162.271
-186.591
-209.064
-229.647
-248.314
-265.055
-279.88
-292.814
-303.899
-313.185
-320.732
-326.607
-330.897
-333.645
-334.883
-334.704
-333.133
-330.181
-325.849
-320.128
-312.994
-304.424
-294.387
-282.848
-269.777
-255.145
-238.929
-221.117
-201.705
-180.701
-158.124
-134.019
-108.441
-81.466
-53.1924
-23.746
6.76181
38.0767
70.0119
102.318
134.714
166.88
198.469
229.103
258.39
285.927
311.313
334.158
354.096
370.795
383.966
393.37
398.831
400.169
397.439
390.638
379.784
365.055
346.655
324.848
299.952
272.329
242.389
210.572
177.336
143.152
108.485
73.784
39.4698
5.92307
-26.5313
-57.6177
-87.1167
-114.867
-140.763
-164.742
-186.784
-206.904
-225.135
-241.532
-256.157
-269.082
-280.371
-290.097
-298.328
-305.125
-310.54
-314.635
-317.445
-318.991
-319.298
-318.419
-316.337
-313.057
-308.578
-302.881
-295.946
-287.743
-278.242
-267.402
-255.182
-241.544
-226.446
-209.851
-191.726
-172.043
-150.793
-127.972
-103.61
-77.7561
-50.4918
-21.9339
7.76815
38.4547
69.8152
101.613
133.548
165.281
196.438
226.622
255.417
282.398
307.145
329.249
348.324
364.028
376.063
384.195
388.234
388.12
383.829
375.47
363.128
347.044
327.49
304.795
279.329
251.501
221.74
190.49
158.201
125.313
92.248
59.3961
27.1147
-4.30052
-34.5891
-63.5436
-91.0055
-116.862
-141.04
-163.5
-184.227
-203.234
-220.551
-236.223
-250.308
-262.868
-273.968
-283.666
-292.014
-299.054
-304.813
-309.315
-312.591
-314.644
-315.47
-315.088
-313.547
-310.836
-306.968
-301.949
-295.767
-288.404
-279.833
-270.013
-258.908
-246.481
-232.678
-217.465
-200.815
-182.691
-163.085
-142.015
-119.505
-95.6112
-70.4417
-44.1024
-16.6953
11.9393
45.6442
77.6444
109.557
141.274
172.574
203.025
232.108
259.303
284.083
305.979
324.652
339.789
351.18
358.64
361.996
360.983
356.43
347.965
335.463
318.997
298.833
275.365
249.025
220.307
189.684
157.648
124.72
91.3393
57.9659
25.0509
-7.31311
-41.4741
-72.3766
-101.558
-129.05
-154.834
-178.867
-201.136
-221.65
-240.425
-257.496
-272.899
-286.679
-298.885
-309.563
-318.76
-326.516
-332.867
-337.839
-341.479
-343.802
-344.779
-344.414
-342.722
-339.668
-335.227
-329.369
-322.057
-313.25
-302.899
-290.964
-277.402
-262.178
-245.261
-226.626
-206.282
-184.218
-160.504
-135.187
-108.36
-80.2687
-51.8318
-23.2123
7.19242
38.4338
69.9743
101.511
132.811
163.395
192.836
216.63
184.887
152.168
118.871
85.4955
52.3848
21.0928
-10.4495
-41.6533
-71.8508
-100.732
-128.083
-153.778
-177.74
-199.92
-220.306
-238.899
-255.723
-270.816
-284.217
-295.974
-306.134
-314.742
-321.841
-327.469
-331.663
-334.424
-335.741
-335.448
-333.74
-330.573
-325.938
-319.789
-312.092
-302.79
-291.831
-279.184
-264.782
-248.585
-230.566
-210.696
-188.972
-165.409
-140.033
-112.915
-84.1759
-53.9343
-22.3379
10.1701
42.8795
76.5979
110.738
144.897
178.608
211.435
242.986
272.828
300.552
325.798
348.217
367.506
383.403
395.685
404.186
408.804
409.389
406.036
398.76
387.591
372.715
354.314
332.657
308.047
280.818
251.352
220.051
187.329
153.603
119.274
84.7335
50.341
16.8487
-16.2567
-48.3114
-79.1088
-108.476
-136.263
-162.362
-186.682
-209.155
-229.738
-248.404
-265.144
-279.967
-292.899
-303.981
-313.264
-320.809
-326.681
-330.968
-333.713
-334.947
-334.769
-333.198
-330.245
-325.914
-320.194
-313.061
-304.492
-294.458
-282.921
-269.851
-255.221
-239.007
-221.196
-201.785
-180.781
-158.205
-134.099
-108.519
-81.5414
-53.2645
-23.8131
6.69918
38.022
69.9662
102.283
134.691
166.871
198.475
229.126
258.432
285.987
311.39
334.253
354.207
370.92
384.102
393.515
398.988
400.319
397.587
390.783
379.922
365.182
346.768
324.944
300.03
272.388
242.428
210.591
177.335
143.132
108.447
73.7305
39.403
5.84503
-26.618
-57.7106
-87.2136
-114.966
-140.862
-164.839
-186.88
-206.996
-225.225
-241.617
-256.239
-269.16
-280.446
-290.169
-298.397
-305.191
-310.605
-314.697
-317.505
-319.048
-319.357
-318.477
-316.394
-313.115
-308.636
-302.941
-296.007
-287.806
-278.306
-267.468
-255.251
-241.615
-226.519
-209.927
-191.803
-172.122
-150.873
-128.053
-103.691
-77.8349
-50.5676
-22.0051
7.70271
38.3977
69.7678
101.577
133.526
165.273
196.447
226.649
255.462
282.463
307.229
329.35
348.442
364.16
376.206
384.347
388.395
388.273
383.979
375.613
363.262
347.164
327.593
304.88
279.395
251.547
221.767
190.498
158.19
125.286
92.2061
59.3416
27.0496
-4.37396
-34.669
-63.6277
-91.0923
-116.95
-141.128
-163.586
-184.312
-203.317
-220.631
-236.3
-250.381
-262.938
-274.035
-283.731
-292.077
-299.115
-304.873
-309.375
-312.65
-314.701
-315.525
-315.145
-313.602
-310.891
-307.023
-302.004
-295.823
-288.461
-279.892
-270.074
-258.97
-246.545
-232.744
-217.533
-200.885
-182.763
-163.157
-142.087
-119.576
-95.6804
-70.5072
-44.1655
-16.7579
11.8732
45.6157
77.618
109.537
141.265
172.581
203.049
232.153
259.368
284.169
306.084
324.774
339.928
351.332
358.805
362.174
361.153
356.6
348.128
335.614
319.131
298.948
275.459
249.097
220.358
189.713
157.658
124.711
91.3137
57.9252
24.9965
-7.38104
-41.5378
-72.4473
-101.633
-129.128
-154.912
-178.945
-201.213
-221.725
-240.498
-257.566
-272.966
-286.743
-298.947
-309.623
-318.817
-326.572
-332.921
-337.893
-341.533
-343.855
-344.829
-344.466
-342.776
-339.723
-335.283
-329.428
-322.117
-313.312
-302.964
-291.032
-277.472
-262.25
-245.335
-226.702
-206.359
-184.296
-160.581
-135.262
-108.432
-80.3358
-51.8893
-23.2684
7.14449
38.3965
69.9484
101.497
132.81
163.409
192.865
216.698
184.92
152.165
118.833
85.4257
52.2936
20.9881
-10.5713
-41.7908
-72.0007
-100.891
-128.246
-153.943
-177.903
-200.081
-220.464
-239.051
-255.87
-270.958
-284.353
-296.104
-306.26
-314.863
-321.958
-327.583
-331.774
-334.535
-335.853
-335.563
-333.854
-330.688
-326.057
-319.912
-312.22
-302.923
-291.97
-279.328
-264.932
-248.74
-230.726
-210.859
-189.138
-165.576
-140.199
-113.077
-84.3316
-54.0798
-22.4692
10.0567
42.7788
76.5211
110.689
144.879
178.625
211.487
243.073
272.952
300.711
325.991
348.44
367.756
383.677
395.976
404.491
409.122
409.701
406.34
399.055
387.871
372.973
354.546
332.858
308.214
280.949
251.447
220.109
187.352
153.592
119.233
84.6663
50.2529
16.7316
-16.387
-48.4536
-79.2602
-108.634
-136.425
-162.527
-186.848
-209.321
-229.903
-248.566
-265.303
-280.122
-293.05
-304.126
-313.403
-320.942
-326.809
-331.091
-333.828
-335.06
-334.881
-333.308
-330.356
-326.026
-320.308
-313.178
-304.613
-294.582
-283.049
-269.983
-255.357
-239.146
-221.338
-201.929
-180.925
-158.349
-134.242
-108.659
-81.6766
-53.3931
-23.9318
6.58931
37.9277
69.89
102.228
134.661
166.869
198.504
229.189
258.529
286.121
311.561
334.458
354.444
371.185
384.391
393.821
399.307
400.645
397.902
391.09
380.213
365.451
347.009
325.154
300.203
272.523
242.523
210.645
177.351
143.11
108.39
73.6426
39.2885
5.70861
-26.7713
-57.8761
-87.3868
-115.143
-141.039
-165.014
-187.049
-207.159
-225.381
-241.766
-256.381
-269.294
-280.574
-290.29
-298.512
-305.301
-310.711
-314.8
-317.605
-319.142
-319.454
-318.572
-316.489
-313.212
-308.734
-303.04
-296.11
-287.912
-278.416
-267.582
-255.37
-241.739
-226.648
-210.06
-191.941
-172.264
-151.017
-128.199
-103.835
-77.9764
-50.7032
-22.1318
7.5876
38.2995
69.6885
101.52
133.495
165.273
196.48
226.717
255.568
282.606
307.41
329.567
348.692
364.438
376.507
384.664
388.731
388.591
384.295
375.915
363.543
347.417
327.814
305.065
279.542
251.654
221.835
190.528
158.185
125.248
92.1387
59.2493
26.9363
-4.50353
-34.8109
-63.778
-91.2475
-117.107
-141.285
-163.741
-184.463
-203.463
-220.771
-236.433
-250.508
-263.059
-274.151
-283.842
-292.184
-299.218
-304.973
-309.475
-312.748
-314.799
-315.617
-315.24
-313.696
-310.983
-307.116
-302.098
-295.919
-288.56
-279.994
-270.18
-259.081
-246.66
-232.864
-217.658
-201.014
-182.894
-163.291
-142.222
-119.709
-95.8108
-70.6311
-44.2853
-16.8773
11.7461
45.5639
77.5695
109.5
141.251
172.597
203.101
232.246
259.501
284.343
306.296
325.021
340.207
351.639
359.135
362.524
361.498
356.942
348.456
335.916
319.399
299.179
275.648
249.243
220.46
189.773
157.677
124.693
91.2625
57.8439
24.8878
-7.51757
-41.6647
-72.5887
-101.783
-129.283
-155.069
-179.101
-201.366
-221.875
-240.643
-257.707
-273.102
-286.873
-299.072
-309.743
-318.933
-326.684
-333.031
-338.002
-341.642
-343.958
-344.93
-344.571
-342.883
-339.833
-335.396
-329.544
-322.238
-313.438
-303.094
-291.167
-277.611
-262.394
-245.484
-226.853
-206.514
-184.452
-160.735
-135.413
-108.575
-80.4698
-52.0035
-23.381
7.04854
38.3219
69.8965
101.469
132.809
163.437
192.922
216.8
184.969
152.16
118.776
85.3205
52.1524
20.8352
-10.7536
-41.9971
-72.2258
-101.128
-128.49
-154.19
-178.149
-200.323
-220.699
-239.28
-256.091
-271.17
-284.557
-296.3
-306.448
-315.045
-322.134
-327.755
-331.94
-334.701
-336.023
-335.735
-334.024
-330.862
-326.236
-320.097
-312.412
-303.122
-292.178
-279.544
-265.156
-248.972
-230.965
-211.104
-189.387
-165.827
-140.448
-113.32
-84.5653
-54.2982
-22.6663
9.88626
42.6274
76.4057
110.615
144.852
178.649
211.564
243.205
273.138
300.95
326.28
348.775
368.132
384.087
396.413
404.948
409.588
410.178
406.799
399.498
388.292
373.361
354.894
333.16
308.465
281.146
251.589
220.196
187.386
153.577
119.173
84.5659
50.121
16.557
-16.5815
-48.666
-79.4862
-108.869
-136.667
-162.773
-187.095
-209.568
-230.148
-248.808
-265.54
-280.353
-293.274
-304.342
-313.61
-321.141
-327
-331.272
-333.997
-335.228
-335.046
-333.471
-330.519
-326.191
-320.476
-313.351
-304.791
-294.766
-283.239
-270.179
-255.559
-239.353
-221.548
-202.142
-181.14
-158.564
-134.454
-108.867
-81.8774
-53.584
-24.1078
6.42698
37.7887
69.7781
102.149
134.618
166.868
198.55
229.285
258.679
286.325
311.819
334.768
354.802
371.586
384.827
394.283
399.78
401.142
398.381
391.554
380.654
365.859
347.375
325.471
300.467
272.729
242.669
210.731
177.377
143.08
108.307
73.5136
39.1198
5.50681
-26.9986
-58.1215
-87.6438
-115.406
-141.302
-165.272
-187.301
-207.401
-225.613
-241.987
-256.591
-269.492
-280.762
-290.469
-298.683
-305.464
-310.868
-314.951
-317.752
-319.284
-319.596
-318.712
-316.629
-313.354
-308.878
-303.188
-296.262
-288.07
-278.578
-267.751
-255.546
-241.923
-226.839
-210.258
-192.145
-172.475
-151.231
-128.415
-104.05
-78.1864
-50.9042
-22.3199
7.41741
38.1549
69.572
101.438
133.453
165.276
196.532
226.823
255.729
282.825
307.684
329.896
349.07
364.858
376.962
385.142
389.23
389.08
384.775
376.371
363.967
347.8
328.149
305.345
279.765
251.819
221.941
190.577
158.179
125.193
92.0401
59.1134
26.7689
-4.69539
-35.0213
-64.0009
-91.4778
-117.341
-141.518
-163.97
-184.687
-203.68
-220.979
-236.632
-250.697
-263.238
-274.321
-284.005
-292.341
-299.37
-305.122
-309.622
-312.893
-314.941
-315.755
-315.38
-313.833
-311.12
-307.253
-302.236
-296.06
-288.706
-280.144
-270.337
-259.245
-246.831
-233.042
-217.843
-201.206
-183.091
-163.492
-142.423
-119.908
-96.0058
-70.8167
-44.4643
-17.0558
11.5549
45.4871
77.4964
109.445
141.23
172.621
203.179
232.384
259.701
284.604
306.613
325.392
340.625
352.1
359.63
363.036
362.023
357.46
348.948
336.37
319.804
299.524
275.93
249.46
220.612
189.861
157.706
124.666
91.1855
57.7218
24.7247
-7.72261
-41.8556
-72.8011
-102.009
-129.515
-155.304
-179.335
-201.597
-222.1
-240.862
-257.917
-273.304
-287.068
-299.259
-309.923
-319.106
-326.852
-333.194
-338.164
-341.802
-344.111
-345.085
-344.728
-343.044
-339.998
-335.565
-329.719
-322.418
-313.625
-303.289
-291.369
-277.821
-262.611
-245.707
-227.081
-206.745
-184.685
-160.967
-135.639
-108.791
-80.6708
-52.1745
-23.5506
6.90431
38.2097
69.8185
101.427
132.807
163.478
193.009
216.937
185.034
152.153
118.699
85.1792
51.9613
20.6332
-10.9966
-42.2726
-72.5264
-101.445
-128.817
-154.519
-178.477
-200.646
-221.014
-239.585
-256.385
-271.453
-284.829
-296.561
-306.699
-315.287
-322.369
-327.983
-332.162
-334.919
-336.25
-335.963
-334.251
-331.093
-326.474
-320.343
-312.667
-303.387
-292.455
-279.832
-265.456
-249.282
-231.284
-211.431
-189.719
-166.161
-140.78
-113.645
-84.8772
-54.5897
-22.9297
9.65839
42.4252
76.2514
110.517
144.817
178.681
211.666
243.379
273.385
301.268
326.665
349.222
368.633
384.634
396.997
405.557
410.206
410.812
407.417
400.091
388.853
373.879
355.358
333.562
308.8
281.409
251.778
220.312
187.432
153.556
119.091
84.4314
49.9441
16.3243
-16.841
-48.9494
-79.7879
-109.184
-136.991
-163.101
-187.425
-209.897
-230.474
-249.13
-265.856
-280.661
-293.572
-304.63
-313.887
-321.405
-327.253
-331.512
-334.224
-335.453
-335.265
-333.688
-330.736
-326.411
-320.7
-313.582
-305.029
-295.011
-283.492
-270.44
-255.827
-239.627
-221.828
-202.425
-181.425
-158.85
-134.737
-109.144
-82.1451
-53.8382
-24.343
6.21126
37.6039
69.6293
102.042
134.561
166.867
198.611
229.414
258.879
286.598
312.164
335.183
355.282
372.122
385.41
394.9
400.416
401.798
399.025
392.175
381.244
366.403
347.864
325.895
300.819
273.004
242.865
210.846
177.412
143.039
108.198
73.3418
38.8947
5.23777
-27.3015
-58.4487
-87.9864
-115.756
-141.652
-165.617
-187.636
-207.724
-225.921
-242.281
-256.87
-269.757
-281.013
-290.708
-298.91
-305.681
-311.077
-315.152
-317.944
-319.474
-319.785
-318.898
-316.816
-313.543
-309.07
-303.384
-296.464
-288.279
-278.794
-267.976
-255.781
-242.167
-227.094
-210.522
-192.417
-172.754
-151.516
-128.703
-104.336
-78.4662
-51.1722
-22.5708
7.1902
37.9629
69.4169
101.328
133.396
165.279
196.602
226.964
255.945
283.116
308.052
330.334
349.575
365.42
377.569
385.781
389.885
389.741
385.419
376.981
364.534
348.312
328.595
305.72
280.063
252.038
222.082
190.641
158.172
125.12
91.9087
58.932
26.5458
-4.95121
-35.3017
-64.2981
-91.7847
-117.652
-141.828
-164.275
-184.984
-203.968
-221.255
-236.896
-250.948
-263.476
-274.548
-284.222
-292.55
-299.572
-305.32
-309.817
-313.085
-315.128
-315.943
-315.567
-314.016
-311.302
-307.435
-302.42
-296.249
-288.9
-280.345
-270.546
-259.464
-247.058
-233.279
-218.091
-201.462
-183.353
-163.759
-142.692
-120.173
-96.2658
-71.0647
-44.7028
-17.2935
11.2983
45.3862
77.3977
109.37
141.201
172.653
203.282
232.568
259.966
284.951
307.036
325.885
341.183
352.714
360.288
363.717
362.727
358.153
349.604
336.975
320.343
299.984
276.307
249.75
220.815
189.979
157.744
124.63
91.0824
57.5585
24.507
-7.99602
-42.1112
-73.085
-102.31
-129.826
-155.617
-179.647
-201.904
-222.4
-241.153
-258.198
-273.574
-287.327
-299.508
-310.163
-319.338
-327.076
-333.413
-338.379
-342.014
-344.318
-345.293
-344.939
-343.258
-340.217
-335.79
-329.951
-322.659
-313.876
-303.549
-291.639
-278.101
-262.9
-246.004
-227.385
-207.054
-184.997
-161.276
-135.941
-109.078
-80.9387
-52.4018
-23.7777
6.71145
38.06
69.7142
101.371
132.804
163.532
193.124
217.107
185.116
152.145
118.602
85.0014
51.7202
20.3817
-11.3003
-42.6175
-72.9027
-101.842
-129.225
-154.931
-178.887
-201.049
-221.408
-239.966
-256.753
-271.807
-285.169
-296.887
-307.013
-315.59
-322.662
-328.268
-332.44
-335.192
-336.531
-336.244
-334.535
-331.382
-326.771
-320.65
-312.987
-303.719
-292.801
-280.192
-265.83
-249.669
-231.683
-211.839
-190.135
-166.579
-141.196
-114.052
-85.2676
-54.9545
-23.2595
9.37238
42.1718
76.0577
110.393
144.771
178.72
211.793
243.598
273.695
301.666
327.147
349.781
369.259
385.318
397.726
406.318
410.982
411.597
408.194
400.833
389.556
374.526
355.939
334.065
309.218
281.737
252.014
220.457
187.488
153.53
118.989
84.2622
49.7213
16.0338
-17.166
-49.3043
-80.1657
-109.578
-137.396
-163.512
-187.838
-210.309
-230.883
-249.533
-266.252
-281.047
-293.946
-304.99
-314.232
-321.736
-327.569
-331.812
-334.511
-335.733
-335.539
-333.959
-331.008
-326.686
-320.98
-313.869
-305.325
-295.317
-283.808
-270.766
-256.162
-239.97
-222.179
-202.78
-181.782
-159.207
-135.091
-109.491
-82.4802
-54.1566
-24.6385
5.94173
37.3725
69.4427
101.909
134.489
166.866
198.687
229.575
259.128
286.939
312.596
335.703
355.882
372.793
386.139
395.673
401.213
402.613
399.835
392.953
381.982
367.085
348.476
326.426
301.259
273.348
243.109
210.989
177.456
142.988
108.06
73.126
38.6125
4.90052
-27.6813
-58.8588
-88.4155
-116.194
-142.09
-166.048
-188.055
-208.128
-226.307
-242.648
-257.219
-270.088
-281.326
-291.006
-299.194
-305.953
-311.337
-315.402
-318.186
-319.712
-320.02
-319.132
-317.05
-313.779
-309.31
-303.63
-296.717
-288.54
-279.065
-268.257
-256.074
-242.472
-227.412
-210.851
-192.759
-173.105
-151.873
-129.063
-104.695
-78.8165
-51.5079
-22.8846
6.9042
37.7232
69.2223
101.191
133.325
165.283
196.689
227.139
256.214
283.481
308.511
330.884
350.207
366.124
378.329
386.58
390.701
390.568
386.227
377.746
365.245
348.952
329.154
306.188
280.436
252.312
222.257
190.721
158.162
125.028
91.7435
58.7042
26.2662
-5.27191
-35.6529
-64.6703
-92.169
-118.041
-142.216
-164.657
-185.357
-204.328
-221.601
-237.226
-251.261
-263.774
-274.831
-284.493
-292.811
-299.825
-305.567
-310.06
-313.325
-315.363
-316.177
-315.799
-314.244
-311.529
-307.663
-302.65
-296.484
-289.142
-280.596
-270.808
-259.737
-247.342
-233.576
-218.4
-201.782
-183.681
-164.094
-143.028
-120.505
-96.5908
-71.3754
-45.0004
-17.5899
10.9748
45.2626
77.2725
109.274
141.164
172.691
203.41
232.796
260.297
285.384
307.564
326.502
341.881
353.482
361.113
364.573
363.602
359.02
350.426
337.732
321.017
300.56
276.777
250.113
221.069
190.126
157.791
124.584
90.9528
57.3539
24.2346
-8.3377
-42.4325
-73.4409
-102.688
-130.214
-156.01
-180.038
-202.289
-222.776
-241.516
-258.549
-273.912
-287.652
-299.819
-310.462
-319.627
-327.356
-333.686
-338.648
-342.277
-344.577
-345.553
-345.202
-343.526
-340.491
-336.072
-330.242
-322.96
-314.188
-303.874
-291.977
-278.451
-263.262
-246.375
-227.765
-207.441
-185.387
-161.662
-136.319
-109.437
-81.2736
-52.6852
-24.0631
6.46954
37.8723
69.5834
101.3
132.799
163.599
193.267
217.311
185.213
152.134
118.485
84.7862
51.4283
20.0802
-11.6647
-43.0322
-73.3553
-102.32
-129.716
-155.427
-179.379
-201.533
-221.88
-240.424
-257.195
-272.231
-285.577
-297.279
-307.39
-315.954
-323.014
-328.611
-332.774
-335.521
-336.865
-336.58
-334.874
-331.729
-327.128
-321.019
-313.371
-304.118
-293.217
-280.624
-266.279
-250.134
-232.161
-212.33
-190.634
-167.081
-141.695
-114.54
-85.7369
-55.3928
-23.6566
9.0278
41.8666
75.8242
110.244
144.716
178.767
211.946
243.859
274.066
302.144
327.725
350.452
370.012
386.14
398.602
407.232
411.916
412.539
409.125
401.727
390.4
375.304
356.636
334.67
309.72
282.131
252.297
220.63
187.555
153.497
118.865
84.0576
49.4514
15.6855
-17.5567
-49.731
-80.62
-110.051
-137.882
-164.005
-188.334
-210.805
-231.375
-250.018
-266.727
-281.51
-294.394
-305.423
-314.647
-322.133
-327.949
-332.171
-334.856
-336.069
-335.868
-334.284
-331.334
-327.016
-321.317
-314.215
-305.682
-295.685
-284.188
-271.158
-256.565
-240.383
-222.599
-203.206
-182.212
-159.636
-135.517
-109.907
-82.8832
-54.5397
-24.995
5.61823
37.0942
69.2179
101.747
134.402
166.863
198.778
229.767
259.428
287.348
313.115
336.326
356.603
373.599
387.015
396.602
402.173
403.588
400.808
393.89
382.869
367.904
349.211
327.064
301.788
273.761
243.401
211.16
177.508
142.926
107.893
72.8656
38.2721
4.49428
-28.1386
-59.3525
-88.9319
-116.721
-142.617
-166.567
-188.559
-208.613
-226.771
-243.09
-257.638
-270.485
-281.704
-291.364
-299.535
-306.278
-311.65
-315.703
-318.477
-319.998
-320.303
-319.412
-317.331
-314.062
-309.599
-303.925
-297.02
-288.854
-279.39
-268.595
-256.427
-242.84
-227.794
-211.248
-193.168
-173.526
-152.302
-129.495
-105.125
-79.2379
-51.9119
-23.2619
6.55914
37.4347
68.9876
101.024
133.238
165.286
196.792
227.349
256.536
283.918
309.062
331.543
350.965
366.969
379.243
387.542
391.685
391.56
387.196
378.666
366.098
349.721
329.825
306.751
280.882
252.641
222.467
190.817
158.15
124.916
91.5438
58.4296
25.9292
-5.65814
-36.0758
-65.1181
-92.6312
-118.509
-142.682
-165.117
-185.805
-204.762
-222.017
-237.622
-251.638
-264.131
-275.171
-284.818
-293.124
-300.128
-305.864
-310.353
-313.612
-315.646
-316.459
-316.077
-314.519
-311.802
-307.936
-302.926
-296.766
-289.433
-280.897
-271.122
-260.065
-247.684
-233.932
-218.772
-202.166
-184.075
-164.497
-143.433
-120.904
-96.9807
-71.7491
-45.3567
-17.9443
10.5831
45.1178
77.1191
109.158
141.118
172.736
203.563
233.07
260.694
285.904
308.198
327.243
342.719
354.406
362.104
365.605
364.651
360.059
351.413
338.641
321.826
301.249
277.341
250.547
221.372
190.302
157.846
124.527
90.7963
57.1076
23.9072
-8.74757
-42.8208
-73.8695
-103.142
-130.682
-156.481
-180.507
-202.75
-223.226
-241.953
-258.971
-274.318
-288.041
-300.193
-310.822
-319.973
-327.691
-334.013
-338.969
-342.592
-344.889
-345.865
-345.517
-343.847
-340.82
-336.41
-330.591
-323.322
-314.564
-304.264
-292.382
-278.871
-263.695
-246.821
-228.222
-207.905
-185.855
-162.127
-136.772
-109.869
-81.6752
-53.025
-24.4076
6.17812
37.6465
69.4258
101.214
132.792
163.678
193.438
217.55
185.327
152.12
118.347
84.5326
51.0846
19.7284
-12.09
-43.5172
-73.8848
-102.878
-130.29
-156.005
-179.954
-202.099
-222.431
-240.959
-257.71
-272.727
-286.052
-297.736
-307.829
-316.378
-323.425
-329.01
-333.163
-335.906
-337.252
-336.971
-335.269
-332.133
-327.544
-321.449
-313.819
-304.583
-293.701
-281.128
-266.804
-250.676
-232.72
-212.904
-191.217
-167.668
-142.279
-115.112
-86.2854
-55.9047
-24.1215
8.62408
41.5089
75.5503
110.068
144.651
178.82
212.123
244.164
274.499
302.701
328.4
351.235
370.891
387.099
399.626
408.3
413.007
413.639
410.211
402.771
391.386
376.213
357.45
335.375
310.305
282.59
252.626
220.831
187.632
153.457
118.719
83.8171
49.1339
15.2789
-18.0137
-50.2298
-81.1512
-110.605
-138.45
-164.582
-188.913
-211.383
-231.949
-250.584
-267.282
-282.051
-294.919
-305.928
-315.132
-322.597
-328.391
-332.592
-335.259
-336.46
-336.251
-334.664
-331.714
-327.401
-321.709
-314.618
-306.098
-296.114
-284.631
-271.616
-257.035
-240.865
-223.091
-203.705
-182.714
-160.138
-136.014
-110.394
-83.3544
-54.988
-25.4124
5.23943
36.7684
68.9543
101.558
134.298
166.858
198.883
229.99
259.776
287.825
313.72
337.054
357.444
374.541
388.039
397.688
403.296
404.728
401.942
394.985
383.905
368.861
350.069
327.808
302.405
274.243
243.742
211.358
177.567
142.853
107.697
72.5596
37.8729
4.01821
-28.6743
-59.9304
-89.5363
-117.337
-143.233
-167.173
-189.148
-209.18
-227.313
-243.606
-258.128
-270.949
-282.144
-291.783
-299.933
-306.659
-312.015
-316.055
-318.817
-320.332
-320.632
-319.739
-317.659
-314.393
-309.935
-304.269
-297.374
-289.22
-279.77
-268.99
-256.838
-243.269
-228.24
-211.711
-193.647
-174.017
-152.803
-130.001
-105.629
-79.7309
-52.3844
-23.7035
6.1548
37.0968
68.712
100.829
133.135
165.289
196.911
227.593
256.912
284.428
309.704
332.313
351.852
367.956
380.311
388.665
392.837
392.718
388.327
379.741
367.095
350.62
330.609
307.407
281.404
253.023
222.711
190.927
158.134
124.784
91.3087
58.1072
25.5342
-6.11059
-36.571
-65.642
-93.1719
-119.056
-143.227
-165.654
-186.329
-205.268
-222.503
-238.085
-252.078
-264.549
-275.568
-285.198
-293.489
-300.483
-306.21
-310.694
-313.948
-315.977
-316.788
-316.402
-314.839
-312.12
-308.254
-303.249
-297.095
-289.772
-281.249
-271.488
-260.448
-248.083
-234.348
-219.206
-202.614
-184.537
-164.968
-143.905
-121.37
-97.4358
-72.186
-45.7715
-18.3559
10.1221
44.9528
76.9356
109.018
141.062
172.787
203.74
233.387
261.156
286.508
308.937
328.106
343.697
355.485
363.262
366.812
365.877
361.27
352.566
339.703
322.77
302.056
278.001
251.053
221.726
190.506
157.908
124.459
90.6122
56.819
23.5246
-9.22566
-43.2774
-74.3717
-103.673
-131.228
-157.032
-181.055
-203.289
-223.752
-242.463
-259.463
-274.791
-288.495
-300.629
-311.241
-320.378
-328.083
-334.394
-339.343
-342.959
-345.253
-346.229
-345.885
-344.222
-341.203
-336.803
-330.998
-323.743
-315.002
-304.719
-292.855
-279.362
-264.202
-247.341
-228.754
-208.447
-186.402
-162.671
-137.302
-110.374
-82.1433
-53.4213
-24.8125
5.83663
37.3824
69.2412
101.113
132.782
163.77
193.636
217.822
185.456
152.104
118.189
84.2398
50.6877
19.3263
-12.5763
-44.0731
-74.4918
-103.517
-130.947
-156.668
-180.612
-202.746
-223.062
-241.57
-258.299
-273.293
-286.596
-298.258
-308.331
-316.862
-323.893
-329.466
-333.609
-336.346
-337.692
-337.415
-335.72
-332.595
-328.02
-321.94
-314.33
-305.115
-294.255
-281.705
-267.404
-251.296
-233.36
-213.559
-191.883
-168.34
-142.947
-115.766
-86.9137
-56.491
-24.6544
8.16055
41.0977
75.2353
109.865
144.574
178.879
212.325
244.511
274.993
303.337
329.172
352.131
371.896
388.197
400.797
409.523
414.258
414.897
411.452
403.966
392.514
377.252
358.381
336.181
310.975
283.115
253.002
221.059
187.718
153.41
118.549
83.5399
48.7675
14.8137
-18.5374
-50.8013
-81.7597
-111.239
-139.101
-165.242
-189.576
-212.045
-232.606
-251.232
-267.917
-282.67
-295.518
-306.506
-315.687
-323.127
-328.897
-333.073
-335.721
-336.907
-336.688
-335.097
-332.149
-327.84
-322.158
-315.079
-306.574
-296.606
-285.139
-272.139
-257.573
-241.417
-223.653
-204.275
-183.288
-160.712
-136.583
-110.952
-83.8943
-55.5018
-25.8909
4.80477
36.3943
68.6512
101.339
134.178
166.85
199
230.244
260.174
288.369
314.411
337.886
358.407
375.618
389.211
398.931
404.583
406.034
403.239
396.238
385.091
369.955
351.052
328.659
303.111
274.793
244.131
211.584
177.632
142.766
107.47
72.2071
37.414
3.47127
-29.2894
-60.5934
-90.2293
-118.044
-143.939
-167.867
-189.822
-209.828
-227.933
-244.197
-258.688
-271.48
-282.647
-292.261
-300.389
-307.094
-312.432
-316.456
-319.206
-320.713
-321.009
-320.114
-318.034
-314.771
-310.319
-304.662
-297.78
-289.639
-280.204
-269.442
-257.308
-243.759
-228.751
-212.241
-194.195
-174.58
-153.378
-130.581
-106.207
-80.296
-52.9261
-24.2096
5.69135
36.7076
68.3948
100.603
133.016
165.29
197.045
227.871
257.34
285.01
310.439
333.193
352.865
369.086
381.534
389.952
394.157
394.043
389.622
380.971
368.236
351.648
331.505
308.157
281.999
253.459
222.989
191.051
158.113
124.63
91.0377
57.7363
25.0802
-6.63011
-37.1391
-66.2428
-93.7916
-119.682
-143.852
-166.268
-186.928
-205.848
-223.059
-238.615
-252.581
-265.026
-276.022
-285.632
-293.907
-300.888
-306.607
-311.083
-314.332
-316.356
-317.164
-316.774
-315.206
-312.483
-308.618
-303.617
-297.471
-290.16
-281.652
-271.907
-260.885
-248.539
-234.824
-219.703
-203.126
-185.065
-165.507
-144.445
-121.905
-97.956
-72.6855
-46.2448
-18.8235
9.59152
44.7681
76.7192
108.854
140.996
172.842
203.94
233.747
261.683
287.199
309.781
329.094
344.817
356.72
364.589
368.196
367.28
362.656
353.886
340.919
323.848
302.982
278.756
251.631
222.128
190.737
157.977
124.38
90.3999
56.4878
23.0866
-9.77222
-43.8036
-74.9484
-104.282
-131.853
-157.662
-181.682
-203.906
-224.353
-243.046
-260.025
-275.331
-289.014
-301.127
-311.72
-320.839
-328.53
-334.829
-339.77
-343.379
-345.669
-346.645
-346.306
-344.65
-341.641
-337.253
-331.463
-324.225
-315.502
-305.239
-293.395
-279.922
-264.781
-247.937
-229.364
-209.066
-187.028
-163.294
-137.909
-110.953
-82.6777
-53.8746
-25.2792
5.44448
37.0796
69.0292
100.996
132.77
163.872
193.861
218.129
185.601
152.085
118.008
83.9063
50.2356
18.8743
-13.1238
-44.7006
-75.1771
-104.239
-131.688
-157.414
-181.354
-203.474
-223.772
-242.258
-258.962
-273.93
-287.208
-298.845
-308.895
-317.406
-324.421
-329.979
-334.111
-336.84
-338.186
-337.914
-336.227
-333.114
-328.554
-322.494
-314.905
-305.714
-294.878
-282.353
-268.079
-251.994
-234.079
-214.298
-192.634
-169.097
-143.7
-116.504
-87.6223
-57.1525
-25.2557
7.6363
40.6318
74.8784
109.636
144.486
178.945
212.55
244.901
275.548
304.054
330.04
353.139
373.029
389.434
402.116
410.9
415.667
416.314
412.849
405.313
393.786
378.423
359.429
337.089
311.728
283.704
253.424
221.315
187.813
153.355
118.356
83.225
48.3511
14.2898
-19.1286
-51.4462
-82.4461
-111.954
-139.835
-165.985
-190.324
-212.79
-233.346
-251.962
-268.632
-283.367
-296.194
-307.157
-316.311
-323.724
-329.466
-333.615
-336.24
-337.41
-337.18
-335.584
-332.637
-328.335
-322.663
-315.599
-307.109
-297.159
-285.71
-272.728
-258.18
-242.038
-224.287
-204.917
-183.936
-161.36
-137.224
-111.581
-84.5033
-56.0814
-26.4316
4.31354
35.9715
68.308
101.09
134.041
166.839
199.131
230.528
260.619
288.981
315.188
338.823
359.491
376.832
390.533
400.332
406.034
407.505
404.7
397.651
386.428
371.189
352.158
329.617
303.906
275.412
244.567
211.836
177.705
142.667
107.212
71.8072
36.8945
2.85227
-29.9848
-61.3426
-91.012
-118.841
-144.736
-168.65
-190.582
-210.559
-228.631
-244.861
-259.319
-272.078
-283.214
-292.799
-300.901
-307.583
-312.902
-316.909
-319.645
-321.143
-321.432
-320.535
-318.456
-315.197
-310.752
-305.105
-298.236
-290.111
-280.693
-269.95
-257.838
-244.311
-229.326
-212.838
-194.812
-175.215
-154.025
-131.235
-106.858
-80.9338
-53.5377
-24.7808
5.17778
36.2567
68.0349
100.346
132.879
165.289
197.194
228.182
257.821
285.664
311.265
334.184
354.008
370.36
382.912
391.404
395.646
395.537
391.081
382.359
369.522
352.806