/*--------------------------------*- C++ -*----------------------------------*\
| =========                 |                                                 |
| \\      /  F ield         | OpenFOAM: The Open Source CFD Toolbox           |
|  \\    /   O peration     | Version:  3.0.1                                 |
|   \\  /    A nd           | Web:      www.OpenFOAM.org                      |
|    \\/     M anipulation  |                                                 |
\*---------------------------------------------------------------------------*/
FoamFile
{
    version     2.0;
    format      ascii;
    class       volScalarField;
    location    "26.4";
    object      p_rgh;
}
// * * * * * * * * * * * * * * * * * * * * * * * * * * * * * * * * * * * * * //

dimensions      [1 -1 -2 0 0 0 0];

internalField   nonuniform List<scalar> 
22680
(
-26.6008
-56.5583
-85.1605
-112.108
-137.567
-161.651
-184.65
-206.836
-228.523
-250.029
-271.638
-293.59
-316.057
-339.116
-362.765
-386.911
-411.418
-436.138
-460.847
-485.28
-509.066
-531.872
-553.224
-572.714
-589.7
-605.232
-619.142
-626.459
-628
-625.254
-618.221
-607.113
-592.3
-574.298
-553.624
-530.708
-506.596
-481.514
-456.939
-432.749
-410.919
-390.975
-375.416
-363.581
-358.334
-358.994
-368.245
-385.528
-412.536
-448.92
-495.09
-549.445
-614.444
-684.376
-760.592
-842.689
-927.302
-1015.3
-1101.99
-1193.21
-1281.96
-1377.16
-1483.09
-1599.44
-1715.62
-1831.79
-1937.73
-2032.35
-2107.87
-2161.82
-2191.27
-2201.69
-2197.66
-2183.01
-2162.55
-2138.59
-2113.41
-2087.78
-2062.38
-2037.21
-2012.52
-1988.01
-1963.81
-1939.78
-1915.98
-1891.73
-1866.47
-1839.04
-1809.12
-1777.16
-1743.39
-1706.82
-1666.64
-1623
-1574.61
-1523.1
-1466.69
-1408.17
-1345.82
-1283.1
-1218.95
-1156.78
-1096.31
-1040.28
-988.882
-944.034
-905.913
-875.7
-853.565
-840.629
-836.943
-843.23
-859.923
-886.906
-923.527
-969.296
-1023.04
-1083
-1146.91
-1212.4
-1277
-1338.43
-1394.83
-1445
-1488.42
-1525.14
-1555.54
-1580.31
-1600.39
-1616.59
-1629.51
-1639.8
-1647.96
-1653.92
-1657.8
-1659.83
-1659.82
-1657.73
-1653.66
-1647.65
-1639.74
-1630.22
-1619.29
-1607.03
-1593.57
-1578.9
-1563.07
-1546.08
-1527.92
-1508.67
-1488.35
-1467.14
-1445.1
-1422.37
-1399.07
-1375.33
-1351.27
-1326.99
-1302.57
-1278.09
-1253.57
-1229.06
-1204.59
-1180.17
-1155.83
-1131.56
-1107.41
-1083.4
-1059.6
-1036.04
-1012.75
-989.757
-967.076
-944.744
-922.789
-901.237
-880.095
-859.372
-839.083
-819.286
-800.08
-781.627
-764.145
-747.906
-733.233
-720.479
-710.024
-702.263
-697.611
-696.471
-699.283
-706.455
-718.228
-734.84
-756.357
-782.681
-813.531
-848.468
-886.904
-928.108
-971.207
-1015.18
-1058.95
-1101.4
-1141.55
-1178.73
-1212.49
-1242.94
-1270.39
-1295.09
-1317.04
-1336.23
-1353
-1367.3
-1379.8
-1390.59
-1399.98
-1408.5
-1416.74
-1425.69
-1436.22
-1446.55
-1454.54
-1456.17
-1443.51
-26.6367
-56.6017
-85.2013
-112.139
-137.581
-161.646
-184.622
-206.785
-228.448
-249.932
-271.522
-293.459
-315.918
-338.978
-362.636
-386.797
-411.324
-436.053
-460.759
-485.193
-508.992
-531.828
-553.226
-572.774
-589.834
-605.295
-618.92
-626.386
-628.075
-625.382
-618.373
-607.276
-592.47
-574.47
-553.79
-530.865
-506.741
-481.641
-457.046
-432.83
-410.969
-390.986
-375.384
-363.5
-358.202
-358.808
-368.006
-385.238
-412.198
-448.539
-494.68
-548.989
-613.979
-683.894
-760.152
-842.223
-926.906
-1014.93
-1101.73
-1193.04
-1281.92
-1377.28
-1483.47
-1600.12
-1716.54
-1832.95
-1939.05
-2033.81
-2109.33
-2163.07
-2192.44
-2202.34
-2198.24
-2183.42
-2162.8
-2138.72
-2113.46
-2087.78
-2062.35
-2037.18
-2012.49
-1987.99
-1963.81
-1939.79
-1916.01
-1891.79
-1866.55
-1839.15
-1809.27
-1777.36
-1743.63
-1707.09
-1666.95
-1623.33
-1574.96
-1523.45
-1467.03
-1408.46
-1346.08
-1283.28
-1219.07
-1156.8
-1096.23
-1040.13
-988.664
-943.734
-905.514
-875.213
-853.037
-840.061
-836.395
-842.714
-859.419
-886.394
-923.051
-968.941
-1022.84
-1082.93
-1146.98
-1212.56
-1277.24
-1338.74
-1395.23
-1445.44
-1488.84
-1525.51
-1555.82
-1580.52
-1600.56
-1616.76
-1629.67
-1639.91
-1648.07
-1654
-1657.87
-1659.89
-1659.88
-1657.81
-1653.77
-1647.76
-1639.82
-1630.25
-1619.31
-1607.05
-1593.59
-1578.94
-1563.13
-1546.14
-1527.94
-1508.69
-1488.36
-1467.14
-1445.1
-1422.4
-1399.1
-1375.36
-1351.27
-1326.96
-1302.53
-1278.05
-1253.53
-1229.03
-1204.58
-1180.17
-1155.8
-1131.52
-1107.36
-1083.37
-1059.58
-1036.02
-1012.71
-989.704
-967.021
-944.7
-922.756
-901.203
-880.058
-859.342
-839.065
-819.263
-800.031
-781.548
-764.051
-747.823
-733.136
-720.36
-709.878
-702.078
-697.392
-696.233
-699.044
-706.197
-717.954
-734.54
-756.061
-782.427
-813.32
-848.293
-886.757
-927.993
-971.141
-1015.17
-1059
-1101.52
-1141.72
-1178.91
-1212.69
-1243.15
-1270.6
-1295.29
-1317.2
-1336.39
-1353.12
-1367.51
-1379.97
-1390.74
-1400.09
-1408.57
-1416.79
-1425.78
-1436.39
-1446.84
-1455.13
-1456.58
-1445.6
-26.7085
-56.6887
-85.2832
-112.2
-137.611
-161.636
-184.568
-206.683
-228.299
-249.737
-271.288
-293.195
-315.637
-338.698
-362.372
-386.559
-411.115
-435.872
-460.585
-485.026
-508.851
-531.74
-553.216
-572.87
-590.095
-605.446
-618.442
-626.252
-628.234
-625.639
-618.676
-607.603
-592.81
-574.812
-554.121
-531.179
-507.03
-481.897
-457.26
-432.991
-411.068
-391.007
-375.32
-363.338
-357.938
-358.435
-367.529
-384.657
-411.521
-447.777
-493.861
-548.079
-613.053
-682.936
-759.265
-841.287
-926.114
-1014.18
-1101.2
-1192.7
-1281.83
-1377.51
-1484.22
-1601.48
-1718.39
-1835.27
-1941.7
-2036.74
-2112.21
-2165.53
-2194.53
-2203.98
-2199.4
-2184.22
-2163.3
-2138.98
-2113.55
-2087.77
-2062.29
-2037.11
-2012.44
-1987.96
-1963.81
-1939.83
-1916.08
-1891.9
-1866.72
-1839.39
-1809.58
-1777.75
-1744.11
-1707.64
-1667.58
-1624
-1575.68
-1524.15
-1467.71
-1409.07
-1346.62
-1283.71
-1219.36
-1156.91
-1096.16
-1039.84
-988.18
-943.082
-904.746
-874.368
-852.122
-839.067
-835.34
-841.636
-858.38
-885.465
-922.255
-968.276
-1022.37
-1082.75
-1147.07
-1212.92
-1277.84
-1339.51
-1396.05
-1446.28
-1489.61
-1526.21
-1556.46
-1581.07
-1601
-1617.07
-1629.93
-1640.13
-1648.27
-1654.22
-1658.1
-1660.12
-1660.12
-1658.02
-1653.94
-1647.91
-1639.98
-1630.44
-1619.47
-1607.19
-1593.73
-1579.05
-1563.22
-1546.24
-1528.07
-1508.81
-1488.48
-1467.24
-1445.17
-1422.43
-1399.1
-1375.35
-1351.27
-1326.97
-1302.55
-1278.06
-1253.54
-1229.03
-1204.55
-1180.14
-1155.8
-1131.53
-1107.37
-1083.36
-1059.55
-1035.99
-1012.7
-989.701
-967.017
-944.679
-922.719
-901.165
-880.021
-859.293
-838.996
-819.181
-799.947
-781.456
-763.925
-747.631
-732.894
-720.071
-709.541
-701.703
-696.971
-695.775
-698.532
-705.643
-717.388
-733.996
-755.541
-781.924
-812.861
-847.908
-886.474
-927.824
-971.081
-1015.22
-1059.16
-1101.8
-1142.09
-1179.35
-1213.15
-1243.57
-1270.97
-1295.63
-1317.5
-1336.68
-1353.33
-1367.73
-1380.17
-1390.92
-1400.26
-1408.71
-1416.92
-1425.99
-1436.77
-1447.42
-1456.06
-1457.28
-1446.32
-26.8174
-56.8207
-85.4075
-112.293
-137.655
-161.622
-184.486
-206.53
-228.074
-249.445
-270.936
-292.795
-315.21
-338.268
-361.963
-386.18
-410.762
-435.537
-460.279
-484.762
-508.642
-531.606
-553.176
-572.96
-590.374
-605.615
-618.057
-626.202
-628.499
-626.03
-619.132
-608.095
-593.32
-575.327
-554.619
-531.652
-507.464
-482.281
-457.583
-433.235
-411.218
-391.041
-375.225
-363.095
-357.543
-357.878
-366.815
-383.786
-410.506
-446.635
-492.632
-546.717
-611.677
-681.527
-757.893
-839.88
-924.926
-1013.05
-1100.41
-1192.18
-1281.71
-1377.86
-1485.36
-1603.53
-1721.18
-1838.78
-1945.69
-2041.13
-2116.49
-2169.24
-2197.52
-2206.64
-2201.18
-2185.44
-2164.05
-2139.36
-2113.68
-2087.75
-2062.19
-2037.01
-2012.35
-1987.92
-1963.8
-1939.87
-1916.18
-1892.08
-1866.98
-1839.75
-1810.05
-1778.36
-1744.85
-1708.49
-1668.52
-1625
-1576.77
-1525.25
-1468.85
-1410.15
-1347.59
-1284.46
-1219.85
-1157.13
-1096.12
-1039.53
-987.599
-942.231
-903.674
-873.129
-850.736
-837.578
-833.81
-840.111
-856.937
-884.111
-921.057
-967.331
-1021.76
-1082.51
-1147.26
-1213.55
-1278.82
-1340.73
-1397.38
-1447.59
-1490.87
-1527.35
-1557.47
-1581.95
-1601.71
-1617.62
-1630.32
-1640.49
-1648.62
-1654.58
-1658.45
-1660.5
-1660.52
-1658.42
-1654.32
-1648.27
-1640.31
-1630.71
-1619.71
-1607.4
-1593.94
-1579.3
-1563.48
-1546.49
-1528.31
-1509.04
-1488.68
-1467.42
-1445.33
-1422.56
-1399.19
-1375.42
-1351.33
-1327.02
-1302.61
-1278.12
-1253.59
-1229.05
-1204.57
-1180.16
-1155.83
-1131.57
-1107.42
-1083.39
-1059.56
-1035.99
-1012.7
-989.699
-967.011
-944.68
-922.732
-901.176
-880.026
-859.294
-838.996
-819.164
-799.89
-781.349
-763.77
-747.437
-732.644
-719.752
-709.147
-701.234
-696.415
-695.119
-697.829
-704.898
-716.602
-733.189
-754.761
-781.206
-812.254
-847.412
-886.097
-927.586
-971.006
-1015.33
-1059.44
-1102.23
-1142.67
-1180.02
-1213.84
-1244.21
-1271.57
-1296.13
-1317.92
-1337.07
-1353.66
-1368.04
-1380.44
-1391.15
-1400.45
-1408.89
-1417.13
-1426.29
-1437.29
-1448.3
-1457.35
-1458.38
-1447.74
-26.9653
-57.0003
-85.5762
-112.42
-137.717
-161.605
-184.377
-206.326
-227.773
-249.052
-270.462
-292.254
-314.627
-337.68
-361.402
-385.655
-410.265
-435.063
-459.844
-484.382
-508.335
-531.389
-553.067
-572.987
-590.578
-605.789
-617.965
-626.332
-628.887
-626.558
-619.742
-608.751
-594.002
-576.014
-555.284
-532.283
-508.044
-482.795
-458.016
-433.561
-411.42
-391.088
-375.101
-362.773
-357.018
-357.136
-365.864
-382.627
-409.154
-445.113
-490.994
-544.903
-609.849
-679.655
-756.054
-838.013
-923.342
-1011.55
-1099.36
-1191.48
-1281.54
-1378.33
-1486.89
-1606.3
-1724.93
-1843.5
-1951.04
-2046.97
-2122.14
-2174.27
-2201.71
-2210.12
-2203.58
-2187.07
-2165.05
-2139.86
-2113.85
-2087.71
-2062.06
-2036.87
-2012.24
-1987.86
-1963.8
-1939.94
-1916.31
-1892.3
-1867.32
-1840.22
-1810.68
-1779.19
-1745.84
-1709.62
-1669.79
-1626.35
-1578.21
-1526.7
-1470.31
-1411.49
-1348.81
-1285.45
-1220.57
-1157.49
-1096.09
-1039.1
-986.806
-941.126
-902.298
-871.524
-848.897
-835.593
-831.768
-838.131
-855.019
-882.344
-919.493
-966.07
-1020.95
-1082.27
-1147.6
-1214.37
-1280.06
-1342.3
-1399.16
-1449.42
-1492.61
-1528.91
-1558.81
-1583.06
-1602.58
-1618.31
-1630.9
-1641
-1649.09
-1655.08
-1658.96
-1660.97
-1660.98
-1658.88
-1654.76
-1648.68
-1640.69
-1631.05
-1620.04
-1607.73
-1594.26
-1579.59
-1563.75
-1546.77
-1528.58
-1509.3
-1488.93
-1467.64
-1445.52
-1422.73
-1399.35
-1375.54
-1351.43
-1327.11
-1302.66
-1278.16
-1253.63
-1229.12
-1204.63
-1180.22
-1155.9
-1131.63
-1107.46
-1083.43
-1059.61
-1036.03
-1012.74
-989.739
-967.049
-944.702
-922.734
-901.172
-880.024
-859.288
-838.97
-819.113
-799.814
-781.234
-763.591
-747.165
-732.278
-719.293
-708.591
-700.572
-695.656
-694.272
-696.883
-703.867
-715.544
-732.139
-753.742
-780.27
-811.413
-846.718
-885.589
-927.282
-970.909
-1015.44
-1059.78
-1102.79
-1143.4
-1180.89
-1214.76
-1245.1
-1272.38
-1296.83
-1318.51
-1337.58
-1354.14
-1368.5
-1380.85
-1391.53
-1400.81
-1409.19
-1417.35
-1426.63
-1437.91
-1449.41
-1458.94
-1459.74
-1449.18
-27.1561
-57.2303
-85.7915
-112.581
-137.797
-161.585
-184.243
-206.071
-227.397
-248.559
-269.864
-291.568
-313.879
-336.92
-360.68
-384.986
-409.636
-434.461
-459.283
-483.885
-507.926
-531.089
-552.895
-572.966
-590.732
-605.979
-617.984
-626.619
-629.406
-627.229
-620.508
-609.573
-594.856
-576.875
-556.118
-533.074
-508.772
-483.44
-458.56
-433.973
-411.675
-391.15
-374.947
-362.374
-356.364
-356.211
-364.677
-381.18
-407.466
-443.213
-488.947
-542.64
-607.566
-677.311
-753.774
-835.684
-921.362
-1009.66
-1098.05
-1190.59
-1281.33
-1378.94
-1488.83
-1609.78
-1729.68
-1849.48
-1957.81
-2054.28
-2129.21
-2180.61
-2207.19
-2214.41
-2206.62
-2189.12
-2166.29
-2140.48
-2114.04
-2087.65
-2061.89
-2036.69
-2012.09
-1987.79
-1963.78
-1940.02
-1916.47
-1892.58
-1867.74
-1840.81
-1811.47
-1780.22
-1747.07
-1711.04
-1671.39
-1628.04
-1580.02
-1528.5
-1472.13
-1413.17
-1350.33
-1286.65
-1221.42
-1157.89
-1096.01
-1038.5
-985.745
-939.638
-900.47
-869.439
-846.62
-833.15
-829.27
-835.603
-852.566
-880.062
-917.513
-964.539
-1020
-1081.97
-1147.98
-1215.39
-1281.59
-1344.24
-1401.35
-1451.66
-1494.73
-1530.81
-1560.46
-1584.4
-1603.67
-1619.19
-1631.62
-1641.65
-1649.71
-1655.67
-1659.54
-1661.54
-1661.55
-1659.44
-1655.28
-1649.19
-1641.16
-1631.45
-1620.4
-1608.08
-1594.6
-1579.92
-1564.07
-1547.08
-1528.88
-1509.61
-1489.22
-1467.89
-1445.73
-1422.91
-1399.5
-1375.67
-1351.53
-1327.17
-1302.69
-1278.19
-1253.66
-1229.15
-1204.67
-1180.27
-1155.94
-1131.67
-1107.49
-1083.45
-1059.61
-1036.03
-1012.73
-989.736
-967.04
-944.684
-922.699
-901.132
-879.991
-859.25
-838.917
-819.03
-799.685
-781.042
-763.32
-746.798
-731.805
-718.703
-707.878
-699.73
-694.683
-693.177
-695.675
-702.573
-714.199
-730.791
-752.443
-779.064
-810.352
-845.827
-884.91
-926.851
-970.755
-1015.57
-1060.18
-1103.45
-1144.29
-1181.94
-1215.89
-1246.18
-1273.37
-1297.75
-1319.33
-1338.29
-1354.82
-1369.14
-1381.42
-1392.01
-1401.22
-1409.5
-1417.61
-1427.02
-1438.62
-1450.65
-1460.74
-1461.49
-1450.95
-27.3947
-57.5141
-86.0564
-112.781
-137.897
-161.564
-184.084
-205.766
-226.943
-247.963
-269.139
-290.73
-312.955
-335.974
-359.794
-384.183
-408.883
-433.732
-458.595
-483.269
-507.412
-530.703
-552.656
-572.896
-590.849
-606.192
-618.053
-627.059
-630.062
-628.044
-621.431
-610.561
-595.882
-577.91
-557.121
-534.026
-509.65
-484.219
-459.218
-434.472
-411.987
-391.23
-374.766
-361.898
-355.582
-355.104
-363.255
-379.447
-405.444
-440.934
-486.493
-539.929
-604.828
-674.497
-751.055
-832.894
-918.988
-1007.37
-1096.47
-1189.52
-1281.09
-1379.68
-1491.18
-1614.02
-1735.46
-1856.75
-1966.04
-2063.12
-2137.78
-2188.31
-2213.88
-2219.54
-2210.32
-2191.59
-2167.79
-2141.2
-2114.24
-2087.55
-2061.65
-2036.46
-2011.91
-1987.69
-1963.77
-1940.11
-1916.65
-1892.91
-1868.24
-1841.52
-1812.4
-1781.44
-1748.55
-1712.73
-1673.3
-1630.08
-1582.2
-1530.67
-1474.31
-1415.17
-1352.13
-1288.06
-1222.4
-1158.31
-1095.85
-1037.77
-984.481
-937.885
-898.288
-866.894
-843.841
-830.187
-826.207
-832.547
-849.618
-877.313
-915.089
-962.62
-1018.78
-1081.57
-1148.42
-1216.57
-1283.45
-1346.59
-1403.96
-1454.32
-1497.25
-1533.05
-1562.44
-1586.1
-1605.03
-1620.26
-1632.52
-1642.42
-1650.4
-1656.36
-1660.21
-1662.21
-1662.24
-1660.14
-1655.94
-1649.79
-1641.72
-1631.94
-1620.83
-1608.47
-1594.98
-1580.31
-1564.47
-1547.49
-1529.28
-1509.97
-1489.54
-1468.19
-1445.99
-1423.13
-1399.66
-1375.77
-1351.59
-1327.21
-1302.72
-1278.21
-1253.67
-1229.15
-1204.68
-1180.28
-1155.95
-1131.68
-1107.49
-1083.43
-1059.59
-1036
-1012.72
-989.717
-967.014
-944.631
-922.637
-901.064
-879.923
-859.199
-838.853
-818.933
-799.533
-780.815
-762.997
-746.358
-731.227
-717.976
-707.009
-698.718
-693.516
-691.861
-694.223
-701.016
-712.581
-729.163
-750.869
-777.603
-809.05
-844.762
-884.116
-926.352
-970.562
-1015.7
-1060.67
-1104.28
-1145.4
-1183.25
-1217.23
-1247.45
-1274.56
-1298.82
-1320.28
-1339.14
-1355.61
-1369.86
-1382.04
-1392.54
-1401.65
-1409.84
-1417.87
-1427.43
-1439.33
-1451.94
-1462.67
-1463.45
-1453
-27.686
-57.8565
-86.3743
-113.02
-138.02
-161.544
-183.901
-205.41
-226.413
-247.264
-268.284
-289.734
-311.839
-334.817
-358.735
-383.258
-408.018
-432.874
-457.775
-482.528
-506.789
-530.228
-552.349
-572.782
-590.938
-606.44
-618.33
-627.652
-630.857
-629.005
-622.512
-611.718
-597.083
-579.122
-558.296
-535.142
-510.679
-485.133
-459.991
-435.062
-412.356
-391.329
-374.56
-361.349
-354.674
-353.818
-361.601
-377.429
-403.088
-438.28
-483.632
-536.77
-601.635
-671.219
-747.912
-829.641
-916.218
-1004.69
-1094.63
-1188.25
-1280.8
-1380.57
-1493.97
-1619.05
-1742.33
-1865.4
-1975.83
-2073.56
-2147.92
-2197.43
-2221.69
-2225.53
-2214.68
-2194.49
-2169.52
-2142.02
-2114.44
-2087.4
-2061.36
-2036.18
-2011.68
-1987.57
-1963.75
-1940.21
-1916.87
-1893.29
-1868.81
-1842.33
-1813.5
-1782.87
-1750.27
-1714.71
-1675.54
-1632.47
-1584.79
-1533.23
-1476.88
-1417.53
-1354.27
-1289.76
-1223.58
-1158.85
-1095.73
-1036.96
-983.034
-935.852
-895.762
-863.984
-840.585
-826.694
-822.615
-828.978
-846.171
-874.086
-912.244
-960.36
-1017.35
-1081.07
-1148.93
-1218.04
-1285.69
-1349.43
-1407.14
-1457.55
-1500.3
-1535.8
-1564.76
-1588.02
-1606.58
-1621.51
-1633.54
-1643.28
-1651.17
-1657.14
-1661.02
-1663.02
-1663.07
-1660.96
-1656.72
-1650.52
-1642.39
-1632.53
-1621.36
-1608.97
-1595.47
-1580.81
-1564.97
-1547.99
-1529.77
-1510.4
-1489.93
-1468.5
-1446.25
-1423.34
-1399.84
-1375.91
-1351.71
-1327.3
-1302.78
-1278.26
-1253.72
-1229.19
-1204.71
-1180.31
-1155.99
-1131.73
-1107.53
-1083.45
-1059.58
-1035.98
-1012.68
-989.684
-966.978
-944.601
-922.601
-901.021
-879.865
-859.113
-838.749
-818.792
-799.333
-780.528
-762.594
-745.819
-730.543
-717.138
-705.992
-697.509
-692.119
-690.301
-692.512
-699.174
-710.664
-727.231
-748.998
-775.879
-807.553
-843.53
-883.193
-925.778
-970.36
-1015.89
-1061.26
-1105.28
-1146.72
-1184.81
-1218.85
-1248.96
-1275.92
-1300.05
-1321.39
-1340.11
-1356.5
-1370.67
-1382.73
-1393.12
-1402.16
-1410.25
-1418.17
-1427.89
-1440.11
-1453.23
-1464.68
-1465.75
-1455.42
-28.0362
-58.2627
-86.7497
-113.304
-138.167
-161.527
-183.695
-205.003
-225.804
-246.458
-267.297
-288.576
-310.514
-333.411
-357.484
-382.232
-407.056
-431.886
-456.818
-481.66
-506.053
-529.66
-551.974
-572.622
-591.005
-606.725
-618.963
-628.394
-631.79
-630.115
-623.754
-613.044
-598.46
-580.511
-559.644
-536.423
-511.861
-486.186
-460.883
-435.745
-412.787
-391.451
-374.331
-360.728
-353.641
-352.354
-359.716
-375.13
-400.4
-435.25
-480.364
-533.165
-597.987
-667.482
-744.365
-825.924
-913.053
-1001.59
-1092.52
-1186.76
-1280.48
-1381.61
-1497.22
-1624.88
-1750.36
-1875.47
-1987.25
-2085.68
-2159.66
-2207.95
-2230.72
-2232.38
-2219.75
-2197.85
-2171.49
-2142.92
-2114.62
-2087.18
-2060.99
-2035.83
-2011.41
-1987.43
-1963.73
-1940.33
-1917.1
-1893.71
-1869.47
-1843.25
-1814.74
-1784.51
-1752.23
-1716.97
-1678.09
-1635.2
-1587.75
-1536.21
-1479.92
-1420.35
-1356.83
-1291.8
-1225.05
-1159.56
-1095.64
-1036.05
-981.408
-933.564
-892.91
-860.658
-836.855
-822.693
-818.5
-824.87
-842.17
-870.349
-908.928
-957.72
-1015.64
-1080.53
-1149.59
-1219.77
-1288.33
-1352.75
-1410.82
-1461.28
-1503.81
-1538.9
-1567.4
-1590.21
-1608.34
-1622.9
-1634.68
-1644.26
-1652.08
-1658.06
-1661.95
-1663.94
-1664.01
-1661.9
-1657.61
-1651.35
-1643.17
-1633.23
-1621.98
-1609.53
-1596.02
-1581.37
-1565.53
-1548.55
-1530.31
-1510.91
-1490.4
-1468.91
-1446.59
-1423.63
-1400.07
-1376.09
-1351.84
-1327.4
-1302.85
-1278.32
-1253.77
-1229.26
-1204.79
-1180.39
-1156.07
-1131.8
-1107.59
-1083.49
-1059.59
-1035.97
-1012.68
-989.69
-966.994
-944.606
-922.582
-900.976
-879.814
-859.057
-838.669
-818.662
-799.124
-780.218
-762.16
-745.237
-729.791
-716.203
-704.867
-696.182
-690.585
-688.542
-690.557
-697.085
-708.491
-725.049
-746.895
-773.934
-805.841
-842.117
-882.136
-925.121
-970.132
-1016.12
-1061.96
-1106.42
-1148.22
-1186.6
-1220.73
-1250.72
-1277.52
-1301.48
-1322.63
-1341.2
-1357.48
-1371.58
-1383.54
-1393.84
-1402.77
-1410.78
-1418.61
-1428.34
-1440.82
-1454.44
-1466.69
-1468.24
-1458.15
-28.4524
-58.739
-87.1873
-113.635
-138.343
-161.515
-183.468
-204.548
-225.116
-245.546
-266.176
-287.254
-308.963
-331.697
-355.994
-381.145
-406.03
-430.76
-455.717
-480.658
-505.2
-528.997
-551.527
-572.417
-591.054
-607.041
-619.773
-629.268
-632.859
-631.372
-625.156
-614.54
-600.013
-582.08
-561.167
-537.872
-513.201
-487.38
-461.898
-436.526
-413.282
-391.599
-374.082
-360.039
-352.485
-350.715
-357.602
-372.55
-397.383
-431.848
-476.693
-529.116
-593.884
-663.288
-740.452
-821.741
-909.492
-998.074
-1090.16
-1185.05
-1280.13
-1382.82
-1500.96
-1631.58
-1759.63
-1887.07
-2000.47
-2099.59
-2173.05
-2219.87
-2240.46
-2240.15
-2225.56
-2201.66
-2173.7
-2143.89
-2114.76
-2086.89
-2060.53
-2035.41
-2011.08
-1987.26
-1963.7
-1940.46
-1917.35
-1894.18
-1870.2
-1844.3
-1816.15
-1786.35
-1754.45
-1719.52
-1680.97
-1638.28
-1591.08
-1539.56
-1483.32
-1423.49
-1359.7
-1294.08
-1226.67
-1160.34
-1095.57
-1035.07
-979.581
-930.966
-889.661
-856.872
-832.645
-818.168
-813.82
-820.226
-837.724
-866.186
-905.199
-954.726
-1013.75
-1079.96
-1150.38
-1221.8
-1291.32
-1356.48
-1414.98
-1465.49
-1507.76
-1542.4
-1570.38
-1592.67
-1610.3
-1624.45
-1635.95
-1645.34
-1653.09
-1659.1
-1663.03
-1665.01
-1665.09
-1662.99
-1658.65
-1652.3
-1644.04
-1633.99
-1622.64
-1610.15
-1596.63
-1581.98
-1566.13
-1549.14
-1530.9
-1511.49
-1490.93
-1469.37
-1446.97
-1423.95
-1400.35
-1376.31
-1352.01
-1327.52
-1302.93
-1278.38
-1253.83
-1229.33
-1204.85
-1180.46
-1156.16
-1131.9
-1107.68
-1083.54
-1059.63
-1036
-1012.7
-989.713
-966.996
-944.588
-922.556
-900.955
-879.783
-859.019
-838.619
-818.568
-798.951
-779.93
-761.72
-744.618
-728.977
-715.185
-703.619
-694.695
-688.853
-686.572
-688.364
-694.731
-706.049
-722.599
-744.513
-771.742
-803.931
-840.542
-880.948
-924.384
-969.893
-1016.41
-1062.73
-1107.7
-1149.91
-1188.63
-1222.87
-1252.71
-1279.35
-1303.11
-1324.08
-1342.45
-1358.62
-1372.64
-1384.47
-1394.67
-1403.49
-1411.35
-1419.15
-1428.65
-1441.46
-1455.55
-1468.74
-1471.99
-1461.29
-28.9428
-59.2922
-87.6926
-114.018
-138.552
-161.511
-183.222
-204.043
-224.349
-244.525
-264.919
-285.769
-307.209
-329.647
-354.178
-379.982
-404.954
-429.48
-454.46
-479.512
-504.224
-528.235
-551.006
-572.168
-591.087
-607.384
-620.548
-630.259
-634.059
-632.777
-626.72
-616.208
-601.746
-583.831
-562.867
-539.492
-514.7
-488.719
-463.04
-437.408
-413.846
-391.778
-373.814
-359.284
-351.209
-348.904
-355.262
-369.693
-394.038
-428.074
-472.618
-524.623
-589.325
-658.64
-736.24
-817.089
-905.535
-994.122
-1087.53
-1183.1
-1279.74
-1384.19
-1505.2
-1639.16
-1770.23
-1900.27
-2015.56
-2115.33
-2188.12
-2233.2
-2251.7
-2248.91
-2232.14
-2205.95
-2176.13
-2144.92
-2114.82
-2086.48
-2059.96
-2034.91
-2010.69
-1987.06
-1963.66
-1940.6
-1917.61
-1894.69
-1871
-1845.44
-1817.72
-1788.41
-1756.92
-1722.36
-1684.18
-1641.71
-1594.79
-1543.28
-1487.11
-1427.02
-1362.92
-1296.65
-1228.51
-1161.22
-1095.46
-1033.95
-977.496
-928.032
-886.01
-852.645
-827.921
-813.091
-808.627
-815.101
-832.78
-861.542
-901.041
-951.389
-1011.64
-1079.38
-1151.34
-1224.07
-1294.68
-1360.71
-1419.68
-1470.22
-1512.16
-1546.26
-1573.65
-1595.36
-1612.46
-1626.16
-1637.33
-1646.52
-1654.18
-1660.21
-1664.18
-1666.19
-1666.29
-1664.17
-1659.77
-1653.34
-1644.99
-1634.82
-1623.36
-1610.8
-1597.26
-1582.64
-1566.81
-1549.84
-1531.59
-1512.13
-1491.53
-1469.9
-1447.43
-1424.34
-1400.66
-1376.55
-1352.19
-1327.67
-1303.05
-1278.47
-1253.91
-1229.35
-1204.88
-1180.5
-1156.22
-1131.97
-1107.72
-1083.57
-1059.63
-1035.99
-1012.69
-989.708
-966.986
-944.557
-922.504
-900.893
-879.732
-858.97
-838.542
-818.433
-798.72
-779.573
-761.211
-743.921
-728.062
-714.024
-702.209
-693.023
-686.909
-684.372
-685.944
-692.126
-703.329
-719.838
-741.834
-769.27
-801.772
-838.777
-879.646
-923.59
-969.64
-1016.72
-1063.6
-1109.13
-1151.79
-1190.88
-1225.26
-1254.93
-1281.39
-1304.96
-1325.72
-1343.87
-1359.91
-1373.81
-1385.55
-1395.58
-1404.23
-1411.97
-1419.82
-1429.02
-1441.89
-1456.56
-1470.74
-1474.91
-1464.8
-29.5169
-59.9301
-88.2716
-114.458
-138.796
-161.52
-182.958
-203.49
-223.503
-243.395
-263.526
-284.128
-305.298
-327.472
-352.174
-378.512
-403.609
-428.004
-453.029
-478.213
-503.117
-527.368
-550.41
-571.872
-591.103
-607.741
-621.292
-631.35
-635.387
-634.329
-628.446
-618.048
-603.658
-585.766
-564.749
-541.286
-516.361
-490.207
-464.312
-438.398
-414.482
-391.992
-373.531
-358.469
-349.814
-346.924
-352.699
-366.563
-390.37
-423.932
-468.142
-519.689
-584.309
-653.534
-731.874
-811.957
-901.183
-989.72
-1084.64
-1180.87
-1279.32
-1385.73
-1510.04
-1647.73
-1782.29
-1915.2
-2032.89
-2133.25
-2204.97
-2247.94
-2264.34
-2258.76
-2239.53
-2210.73
-2178.79
-2145.98
-2114.76
-2085.94
-2059.26
-2034.32
-2010.24
-1986.83
-1963.62
-1940.76
-1917.88
-1895.23
-1871.86
-1846.68
-1819.45
-1790.67
-1759.66
-1725.53
-1687.75
-1645.54
-1598.91
-1547.43
-1491.33
-1430.93
-1366.5
-1299.5
-1230.55
-1162.19
-1095.32
-1032.66
-975.194
-924.804
-881.975
-847.961
-822.738
-807.532
-802.916
-809.451
-827.327
-856.413
-896.433
-947.679
-1009.33
-1078.75
-1152.4
-1226.64
-1298.46
-1365.44
-1424.89
-1475.46
-1517.05
-1550.57
-1577.28
-1598.32
-1614.78
-1627.97
-1638.79
-1647.77
-1655.33
-1661.39
-1665.42
-1667.45
-1667.6
-1665.49
-1661.02
-1654.48
-1646.01
-1635.71
-1624.15
-1611.53
-1597.98
-1583.39
-1567.58
-1550.62
-1532.38
-1512.88
-1492.21
-1470.48
-1447.9
-1424.73
-1400.98
-1376.78
-1352.37
-1327.8
-1303.15
-1278.56
-1253.99
-1229.41
-1204.93
-1180.55
-1156.29
-1132.05
-1107.79
-1083.58
-1059.6
-1035.96
-1012.67
-989.691
-966.955
-944.501
-922.429
-900.805
-879.633
-858.866
-838.418
-818.264
-798.462
-779.181
-760.645
-743.139
-727.028
-712.733
-700.649
-691.183
-684.77
-681.938
-683.253
-689.235
-700.303
-716.781
-738.849
-766.507
-799.368
-836.814
-878.183
-922.691
-969.35
-1017.05
-1064.58
-1110.71
-1153.85
-1193.36
-1227.9
-1257.42
-1283.67
-1307.01
-1327.53
-1345.45
-1361.36
-1375.13
-1386.7
-1396.56
-1405.04
-1412.65
-1420.56
-1429.63
-1442.09
-1457.35
-1472.78
-1477.78
-1468.72
-30.185
-60.6615
-88.9311
-114.961
-139.081
-161.543
-182.68
-202.89
-222.576
-242.153
-261.997
-282.337
-303.269
-325.244
-349.992
-376.628
-401.886
-426.293
-451.407
-476.746
-501.87
-526.393
-549.735
-571.529
-591.102
-608.113
-622.041
-632.533
-636.836
-636.028
-630.335
-620.062
-605.753
-587.887
-566.814
-543.257
-518.19
-491.847
-465.719
-439.5
-415.194
-392.247
-373.236
-357.596
-348.304
-344.779
-349.916
-363.162
-386.379
-419.423
-463.265
-514.316
-578.836
-647.955
-727.78
-806.326
-896.432
-984.852
-1081.49
-1178.34
-1278.87
-1387.41
-1515.41
-1657.21
-1795.93
-1931.97
-2052.45
-2153.04
-2223.47
-2264.07
-2278.51
-2269.72
-2247.76
-2216.06
-2181.65
-2147.07
-2114.55
-2085.22
-2058.41
-2033.62
-2009.71
-1986.56
-1963.57
-1940.92
-1918.16
-1895.79
-1872.78
-1848.02
-1821.33
-1793.14
-1762.64
-1728.97
-1691.65
-1649.75
-1603.49
-1552.04
-1496.02
-1435.27
-1370.48
-1302.67
-1232.84
-1163.32
-1095.25
-1031.34
-972.742
-921.336
-877.625
-842.919
-817.126
-801.468
-796.666
-803.277
-821.397
-850.846
-891.388
-943.598
-1006.77
-1078.07
-1153.63
-1229.53
-1302.62
-1370.68
-1430.75
-1481.34
-1522.51
-1555.35
-1581.3
-1601.57
-1617.35
-1629.97
-1640.38
-1649.13
-1656.62
-1662.71
-1666.82
-1668.89
-1669.02
-1666.9
-1662.36
-1655.71
-1647.13
-1636.72
-1625.03
-1612.33
-1598.78
-1584.24
-1568.46
-1551.49
-1533.22
-1513.66
-1492.93
-1471.1
-1448.4
-1425.12
-1401.29
-1377
-1352.52
-1327.93
-1303.24
-1278.63
-1254.07
-1229.51
-1205
-1180.62
-1156.38
-1132.16
-1107.89
-1083.63
-1059.59
-1035.9
-1012.61
-989.664
-966.938
-944.456
-922.345
-900.704
-879.549
-858.796
-838.33
-818.097
-798.173
-778.738
-760.013
-742.28
-725.914
-711.334
-698.949
-689.159
-682.418
-679.265
-680.297
-686.055
-696.969
-713.399
-735.578
-763.498
-796.731
-834.646
-876.582
-921.712
-969.046
-1017.46
-1065.71
-1112.46
-1156.09
-1196.06
-1230.78
-1260.14
-1286.17
-1309.24
-1329.5
-1347.19
-1363
-1376.49
-1387.94
-1397.62
-1405.93
-1413.43
-1421.39
-1430.38
-1442.11
-1457.9
-1474.69
-1480.41
-1473.07
-30.9593
-61.4958
-89.6783
-115.532
-139.413
-161.587
-182.391
-202.244
-221.568
-240.797
-260.328
-280.4
-301.135
-322.942
-347.515
-374.223
-399.779
-424.348
-449.568
-475.094
-500.473
-525.302
-548.979
-571.138
-591.084
-608.492
-622.81
-633.796
-638.4
-637.872
-632.388
-622.252
-608.033
-590.198
-569.066
-545.409
-520.19
-493.646
-467.267
-440.721
-415.987
-392.548
-372.931
-356.67
-346.681
-342.472
-346.915
-359.495
-382.07
-414.55
-457.991
-508.507
-572.905
-641.855
-723.53
-800.138
-891.283
-979.503
-1078.09
-1175.46
-1278.4
-1389.26
-1521.58
-1667.87
-1811.4
-1950.6
-2074.69
-2175.74
-2244.18
-2281.85
-2294.13
-2282.03
-2256.96
-2221.94
-2184.66
-2148.16
-2114.14
-2084.29
-2057.39
-2032.8
-2009.1
-1986.24
-1963.53
-1941.1
-1918.42
-1896.39
-1873.76
-1849.46
-1823.37
-1795.81
-1765.87
-1732.72
-1695.9
-1654.34
-1608.45
-1557.07
-1501.18
-1440.12
-1374.97
-1306.25
-1235.45
-1164.63
-1095.22
-1029.92
-970.075
-917.551
-872.864
-837.39
-810.976
-794.824
-789.861
-796.585
-814.973
-844.722
-885.797
-939.038
-1003.91
-1077.35
-1155.05
-1232.73
-1307.27
-1376.55
-1437.27
-1487.86
-1528.51
-1560.57
-1585.66
-1605.11
-1620.14
-1632.14
-1642.13
-1650.64
-1658.04
-1664.16
-1668.36
-1670.48
-1670.64
-1668.5
-1663.85
-1657.05
-1648.35
-1637.83
-1626.01
-1613.21
-1599.64
-1585.12
-1569.37
-1552.41
-1534.14
-1514.5
-1493.69
-1471.75
-1448.92
-1425.54
-1401.64
-1377.27
-1352.71
-1328.04
-1303.32
-1278.7
-1254.15
-1229.59
-1205.1
-1180.71
-1156.49
-1132.29
-1108
-1083.68
-1059.58
-1035.86
-1012.59
-989.664
-966.942
-944.426
-922.274
-900.614
-879.466
-858.729
-838.25
-817.947
-797.902
-778.3
-759.362
-741.371
-724.737
-709.855
-697.139
-686.997
-679.887
-676.363
-677.063
-682.572
-693.34
-709.736
-732.017
-760.216
-793.882
-832.316
-874.843
-920.648
-968.742
-1017.96
-1067.01
-1114.36
-1158.54
-1198.98
-1233.89
-1263.07
-1288.89
-1311.67
-1331.66
-1349.16
-1364.74
-1377.88
-1389.29
-1398.77
-1406.89
-1414.27
-1422.16
-1431.17
-1442.1
-1458.28
-1476.38
-1483.24
-1477.95
-31.853
-62.4435
-90.5211
-116.179
-139.796
-161.655
-182.092
-201.554
-220.478
-239.325
-258.515
-278.309
-298.885
-320.562
-344.834
-371.385
-397.176
-422.004
-447.45
-473.233
-498.916
-524.092
-548.139
-570.697
-591.047
-608.88
-623.607
-635.122
-640.073
-639.859
-634.604
-624.618
-610.499
-592.701
-571.508
-547.746
-522.365
-495.607
-468.961
-442.069
-416.866
-392.901
-372.62
-355.697
-344.946
-340.009
-343.702
-355.567
-377.446
-409.316
-452.321
-502.263
-566.517
-635.178
-716.981
-793.333
-885.734
-973.654
-1074.43
-1172.2
-1277.91
-1391.13
-1528.3
-1679.49
-1828.78
-1971.46
-2100.57
-2200.66
-2265.59
-2299.82
-2311.16
-2295.98
-2266.81
-2228.4
-2187.83
-2149.2
-2113.5
-2083.11
-2056.17
-2031.85
-2008.39
-1985.87
-1963.48
-1941.28
-1918.68
-1897
-1874.79
-1851
-1825.57
-1798.7
-1769.36
-1736.77
-1700.48
-1659.31
-1613.84
-1562.54
-1506.78
-1445.39
-1379.87
-1310.24
-1238.38
-1166.12
-1095.26
-1028.44
-967.235
-913.533
-867.786
-831.496
-804.427
-787.73
-782.523
-789.394
-808.026
-838.107
-879.706
-934.028
-1000.78
-1076.63
-1156.68
-1236.36
-1312.39
-1383.06
-1444.47
-1494.98
-1535.01
-1566.2
-1590.33
-1608.86
-1623.07
-1634.43
-1643.94