/*--------------------------------*- C++ -*----------------------------------*\
| =========                 |                                                 |
| \\      /  F ield         | OpenFOAM: The Open Source CFD Toolbox           |
|  \\    /   O peration     | Version:  3.0.1                                 |
|   \\  /    A nd           | Web:      www.OpenFOAM.org                      |
|    \\/     M anipulation  |                                                 |
\*---------------------------------------------------------------------------*/
FoamFile
{
    version     2.0;
    format      ascii;
    class       volVectorField;
    location    "21.6";
    object      U;
}
// * * * * * * * * * * * * * * * * * * * * * * * * * * * * * * * * * * * * * //

dimensions      [0 1 -1 0 0 0 0];

internalField   nonuniform List<vector> 
21420
(
(-0.180692 -0.0002065 0)
(-0.178476 -0.000277046 0)
(-0.175327 -0.000347971 0)
(-0.171452 -0.000420569 0)
(-0.166826 -0.000497109 0)
(-0.161426 -0.000574848 0)
(-0.155221 -0.000658401 0)
(-0.148177 -0.000742234 0)
(-0.140257 -0.000828459 0)
(-0.131431 -0.000923763 0)
(-0.121671 -0.00101494 0)
(-0.110953 -0.00110693 0)
(-0.0992619 -0.00121106 0)
(-0.086592 -0.00130289 0)
(-0.0729493 -0.00140883 0)
(-0.0583527 -0.00149486 0)
(-0.0428362 -0.00157385 0)
(-0.0263839 -0.00166995 0)
(-0.0092155 -0.00173423 0)
(0.00846499 -0.00177904 0)
(0.0267124 -0.00184524 0)
(0.0453788 -0.00186118 0)
(0.0642307 -0.00185511 0)
(0.0830559 -0.00186453 0)
(0.101634 -0.00181463 0)
(0.119717 -0.00177313 0)
(0.137055 -0.00167499 0)
(0.153376 -0.00155152 0)
(0.168416 -0.00142516 0)
(0.181938 -0.00125635 0)
(0.193707 -0.00106819 0)
(0.203516 -0.000867706 0)
(0.211193 -0.000645663 0)
(0.216599 -0.000414027 0)
(0.219652 -0.000170686 0)
(0.220252 6.74757e-05 0)
(0.218438 0.000308879 0)
(0.214059 0.000551618 0)
(0.207374 0.000786966 0)
(0.198441 0.000987073 0)
(0.187431 0.00119078 0)
(0.174549 0.00134824 0)
(0.160016 0.00150753 0)
(0.144036 0.00164753 0)
(0.12689 0.0017318 0)
(0.1088 0.00181679 0)
(0.0900008 0.00187676 0)
(0.0708845 0.00189072 0)
(0.0515828 0.00190388 0)
(0.0321564 0.00188752 0)
(0.0133364 0.00184599 0)
(-0.00461596 0.00180657 0)
(-0.0221701 0.00173457 0)
(-0.0392667 0.00166563 0)
(-0.0556182 0.00158456 0)
(-0.0711357 0.00149112 0)
(-0.0857632 0.00140087 0)
(-0.0994426 0.00130368 0)
(-0.112156 0.00120251 0)
(-0.1239 0.00110237 0)
(-0.134669 0.00100344 0)
(-0.144439 0.000907668 0)
(-0.153175 0.000808971 0)
(-0.160926 0.000712707 0)
(-0.167757 0.000623221 0)
(-0.173641 0.000529621 0)
(-0.178588 0.000440259 0)
(-0.18266 0.000356494 0)
(-0.185835 0.000268743 0)
(-0.188183 0.000188205 0)
(-0.189724 0.000103045 0)
(-0.190504 1.98761e-05 0)
(-0.190439 -4.84629e-05 0)
(-0.189489 -0.000125743 0)
(-0.187631 -0.00020649 0)
(-0.18499 -0.000277428 0)
(-0.181516 -0.0003627 0)
(-0.177182 -0.000433081 0)
(-0.172139 -0.000507796 0)
(-0.16627 -0.000587409 0)
(-0.159633 -0.00065487 0)
(-0.152147 -0.000732709 0)
(-0.143949 -0.000819337 0)
(-0.135149 -0.000882312 0)
(-0.125468 -0.000959207 0)
(-0.115117 -0.00104243 0)
(-0.104014 -0.00109976 0)
(-0.0921568 -0.00120446 0)
(-0.0796736 -0.00125876 0)
(-0.0663881 -0.00134449 0)
(-0.0523014 -0.00142114 0)
(-0.0374855 -0.00149079 0)
(-0.0220577 -0.0015504 0)
(-0.0060142 -0.00162215 0)
(0.0106583 -0.00167453 0)
(0.0278757 -0.00172015 0)
(0.0453721 -0.00174714 0)
(0.0630448 -0.00175379 0)
(0.0807841 -0.00174814 0)
(0.0982565 -0.00171528 0)
(0.115258 -0.00166285 0)
(0.131711 -0.00159039 0)
(0.147232 -0.00148797 0)
(0.161622 -0.00136498 0)
(0.174699 -0.00122285 0)
(0.186175 -0.00104298 0)
(0.195792 -0.000861083 0)
(0.203382 -0.000648399 0)
(0.208791 -0.000419043 0)
(0.211885 -0.000182239 0)
(0.21253 5.23064e-05 0)
(0.210772 0.000298712 0)
(0.20641 0.000544245 0)
(0.199701 0.00078053 0)
(0.190704 0.00100373 0)
(0.179535 0.00121114 0)
(0.166386 0.00139294 0)
(0.151492 0.00154938 0)
(0.135147 0.00168846 0)
(0.117657 0.00178217 0)
(0.0992809 0.00185935 0)
(0.0803127 0.00190286 0)
(0.0610217 0.00191986 0)
(0.0416585 0.00191437 0)
(0.022476 0.00188619 0)
(0.00372291 0.00184159 0)
(-0.014464 0.00177407 0)
(-0.0319771 0.00169618 0)
(-0.0486371 0.00160412 0)
(-0.0643005 0.0015092 0)
(-0.0789086 0.00139861 0)
(-0.092469 0.00129008 0)
(-0.104935 0.00118359 0)
(-0.116272 0.00106942 0)
(-0.126497 0.00096122 0)
(-0.135661 0.000857729 0)
(-0.143795 0.000759596 0)
(-0.150943 0.000660252 0)
(-0.157174 0.000574904 0)
(-0.162573 0.000488545 0)
(-0.167151 0.000411936 0)
(-0.170943 0.000348299 0)
(-0.174032 0.00027268 0)
(-0.176458 0.000208478 0)
(-0.178268 0.000148203 0)
(-0.179433 8.95134e-05 0)
(-0.179961 1.8599e-05 0)
(-0.179811 -4.27417e-05 0)
(-0.17906 -9.98296e-05 0)
(-0.177732 -0.000164954 0)
(-0.17581 -0.000222707 0)
(-0.173162 -0.000298759 0)
(-0.16985 -0.000354405 0)
(-0.165949 -0.000426772 0)
(-0.161295 -0.000504544 0)
(-0.155802 -0.000577348 0)
(-0.149496 -0.000665179 0)
(-0.142304 -0.000755183 0)
(-0.134282 -0.000834983 0)
(-0.125383 -0.000929239 0)
(-0.115491 -0.00102771 0)
(-0.104691 -0.00111665 0)
(-0.0929551 -0.00121232 0)
(-0.0802889 -0.00130182 0)
(-0.0667126 -0.00139056 0)
(-0.0522566 -0.00147209 0)
(-0.0369992 -0.00155245 0)
(-0.0209853 -0.00162002 0)
(-0.00424893 -0.00168254 0)
(0.0129517 -0.00173037 0)
(0.0305427 -0.00175901 0)
(0.0484909 -0.0017878 0)
(0.066515 -0.00178556 0)
(0.0843562 -0.00175707 0)
(0.101852 -0.00171804 0)
(0.118839 -0.00164648 0)
(0.135135 -0.00157281 0)
(0.150439 -0.00145304 0)
(0.164386 -0.00131163 0)
(0.176844 -0.00115422 0)
(0.187553 -0.000967175 0)
(0.196282 -0.000764904 0)
(0.202898 -0.000543971 0)
(0.207262 -0.000315495 0)
(0.209275 -8.60536e-05 0)
(0.208956 0.000148673 0)
(0.206174 0.000386343 0)
(0.201085 0.000616047 0)
(0.193779 0.0008319 0)
(0.184391 0.00102894 0)
(0.173104 0.00121065 0)
(0.160086 0.00136516 0)
(0.145565 0.00150586 0)
(0.129803 0.00162176 0)
(0.113028 0.00170519 0)
(0.0955008 0.0017671 0)
(0.0775056 0.00180706 0)
(0.0592309 0.0018196 0)
(0.0409124 0.00181637 0)
(0.0227606 0.00178728 0)
(0.00492121 0.00174836 0)
(-0.012412 0.00169316 0)
(-0.0290968 0.00162117 0)
(-0.0450609 0.00154731 0)
(-0.0602501 0.00146194 0)
(-0.0745282 0.00137173 0)
(-0.0878312 0.00127289 0)
(-0.10019 0.00118043 0)
(-0.111568 0.00107594 0)
(-0.121941 0.000980901 0)
(-0.131309 0.000882756 0)
(-0.139707 0.000784846 0)
(-0.147173 0.000697931 0)
(-0.153722 0.000607335 0)
(-0.159434 0.000521694 0)
(-0.16425 0.000433026 0)
(-0.168197 0.000346832 0)
(-0.171379 0.000278195 0)
(-0.173749 0.000202472 0)
(-0.175393 0.000127255 0)
(-0.176362 6.71795e-05 0)
(-0.176593 -1.03098e-05 0)
(-0.17622 -6.33979e-05 0)
(-0.175308 -0.000130366 0)
(-0.17356 -0.00020708 0)
(-0.171135 -0.000267283 0)
(-0.168099 -0.000334184 0)
(-0.164368 -0.000401626 0)
(-0.160069 -0.00045873 0)
(-0.15503 -0.000536519 0)
(-0.149267 -0.000610603 0)
(-0.14284 -0.00067135 0)
(-0.135559 -0.000763475 0)
(-0.127392 -0.000848279 0)
(-0.118419 -0.000942027 0)
(-0.10842 -0.00103608 0)
(-0.0974252 -0.00113237 0)
(-0.0855445 -0.00123937 0)
(-0.0725833 -0.00132824 0)
(-0.0586342 -0.00142958 0)
(-0.043783 -0.0015198 0)
(-0.0279846 -0.00161052 0)
(-0.0113526 -0.00168035 0)
(0.00594279 -0.00173893 0)
(0.0237928 -0.00179879 0)
(0.0419956 -0.00182342 0)
(0.0605061 -0.00183902 0)
(0.0790712 -0.00183279 0)
(0.0972811 -0.00178883 0)
(0.115024 -0.00172318 0)
(0.132059 -0.00164087 0)
(0.147983 -0.00152033 0)
(0.162508 -0.00136937 0)
(0.175517 -0.00120142 0)
(0.186819 -0.00102494 0)
(0.196129 -0.000820562 0)
(0.203293 -0.000604075 0)
(0.208248 -0.000373318 0)
(0.210871 -0.000147454 0)
(0.211198 7.81307e-05 0)
(0.209232 0.000307252 0)
(0.204969 0.000527939 0)
(0.198647 0.000731488 0)
(0.190357 0.000915866 0)
(0.180279 0.0010871 0)
(0.16854 0.00123615 0)
(0.155364 0.00137109 0)
(0.141114 0.00148309 0)
(0.125786 0.00156306 0)
(0.109635 0.00163585 0)
(0.0930215 0.00168099 0)
(0.0760209 0.00170727 0)
(0.0587313 0.0017144 0)
(0.041335 0.00169674 0)
(0.0241439 0.00168652 0)
(0.00775942 0.00164976 0)
(-0.00795627 0.00160356 0)
(-0.023459 0.00155236 0)
(-0.0384411 0.0014849 0)
(-0.0527071 0.00141573 0)
(-0.066256 0.00133594 0)
(-0.078999 0.00125557 0)
(-0.0909614 0.00117158 0)
(-0.102139 0.00108495 0)
(-0.112378 0.000992776 0)
(-0.121826 0.000904024 0)
(-0.130402 0.000813524 0)
(-0.138024 0.000715214 0)
(-0.14482 0.000628378 0)
(-0.150664 0.000530645 0)
(-0.155614 0.000440735 0)
(-0.15973 0.000346412 0)
(-0.162907 0.000255463 0)
(-0.165195 0.000168676 0)
(-0.166568 8.07857e-05 0)
(-0.167062 -1.08778e-05 0)
(-0.166578 -9.54595e-05 0)
(-0.165209 -0.00018508 0)
(-0.162929 -0.000273805 0)
(-0.1598 -0.000352238 0)
(-0.155835 -0.000438865 0)
(-0.151093 -0.000509557 0)
(-0.145611 -0.000579291 0)
(-0.139376 -0.000656175 0)
(-0.132434 -0.000718923 0)
(-0.124822 -0.000782521 0)
(-0.116501 -0.000856851 0)
(-0.107552 -0.000918678 0)
(-0.0979366 -0.000992143 0)
(-0.0875624 -0.00105447 0)
(-0.0765607 -0.00111754 0)
(-0.0649152 -0.0011931 0)
(-0.0525324 -0.00125283 0)
(-0.0394696 -0.0013096 0)
(-0.0256247 -0.00139263 0)
(-0.0112345 -0.00144983 0)
(0.00344256 -0.00151103 0)
(0.0187072 -0.00155577 0)
(0.0345596 -0.00158727 0)
(0.0507871 -0.00163474 0)
(0.0673011 -0.00164672 0)
(0.0839358 -0.00164151 0)
(0.100545 -0.00164734 0)
(0.116973 -0.00161077 0)
(0.133029 -0.00157813 0)
(0.148518 -0.00150353 0)
(0.163211 -0.00140605 0)
(0.176882 -0.00130384 0)
(0.189321 -0.00116528 0)
(0.200301 -0.00100645 0)
(0.209608 -0.000834953 0)
(0.21706 -0.0006392 0)
(0.22251 -0.000430728 0)
(0.225839 -0.000212154 0)
(0.226879 1.27958e-05 0)
(0.225649 0.000241255 0)
(0.221929 0.000479192 0)
(0.215931 0.000711209 0)
(0.207706 0.000919199 0)
(0.197374 0.00112474 0)
(0.185108 0.0013165 0)
(0.171136 0.00145658 0)
(0.155709 0.00159915 0)
(0.139099 0.00168011 0)
(0.121603 0.00176626 0)
(0.103501 0.00182574 0)
(0.0850753 0.00182165 0)
(0.0665901 0.00182745 0)
(0.0482749 0.00180898 0)
(0.0302713 0.00174006 0)
(0.0123909 0.00167507 0)
(-0.00417263 0.00160744 0)
(-0.0194065 0.00152329 0)
(-0.0342401 0.00143246 0)
(-0.0480996 0.00132185 0)
(-0.0609392 0.00122354 0)
(-0.0745036 0.00112175 0)
(-0.18072 -0.000619238 0)
(-0.178504 -0.000830952 0)
(-0.175356 -0.00104371 0)
(-0.171481 -0.00126148 0)
(-0.166857 -0.00149114 0)
(-0.161458 -0.00172436 0)
(-0.155254 -0.00197503 0)
(-0.148212 -0.00222654 0)
(-0.140293 -0.00248522 0)
(-0.131468 -0.00277115 0)
(-0.121709 -0.00304472 0)
(-0.110993 -0.00332074 0)
(-0.0993018 -0.00363316 0)
(-0.0866316 -0.00390871 0)
(-0.0729887 -0.00422661 0)
(-0.0583904 -0.00448476 0)
(-0.0428715 -0.00472175 0)
(-0.0264173 -0.00501014 0)
(-0.0092442 -0.00520327 0)
(0.00844194 -0.00533761 0)
(0.0266946 -0.00553638 0)
(0.0453683 -0.00558428 0)
(0.0642279 -0.00556617 0)
(0.0830623 -0.00559454 0)
(0.10165 -0.00544486 0)
(0.119744 -0.00532051 0)
(0.137091 -0.00502612 0)
(0.153422 -0.00465566 0)
(0.168474 -0.0042765 0)
(0.182004 -0.00377055 0)
(0.193782 -0.00320531 0)
(0.203599 -0.00260317 0)
(0.211282 -0.00193746 0)
(0.216693 -0.00124265 0)
(0.219744 -0.000522867 0)
(0.220365 0.000211584 0)
(0.218527 0.000928433 0)
(0.214154 0.00165465 0)
(0.207467 0.0023612 0)
(0.198528 0.00296169 0)
(0.187512 0.003573 0)
(0.174622 0.00404546 0)
(0.160081 0.00452345 0)
(0.144092 0.00494356 0)
(0.126937 0.0051963 0)
(0.108837 0.00545127 0)
(0.0900291 0.00563109 0)
(0.0709045 0.00567298 0)
(0.0515921 0.00571269 0)
(0.0321586 0.00566331 0)
(0.0133343 0.0055387 0)
(-0.00462554 0.00542079 0)
(-0.0221859 0.00520453 0)
(-0.0392875 0.00499776 0)
(-0.0556433 0.00475485 0)
(-0.0711642 0.00447399 0)
(-0.0857948 0.00420295 0)
(-0.0994769 0.00391151 0)
(-0.112193 0.00360764 0)
(-0.12394 0.00330705 0)
(-0.13471 0.0030102 0)
(-0.144482 0.00272404 0)
(-0.153222 0.0024257 0)
(-0.160974 0.00213938 0)
(-0.167807 0.00186897 0)
(-0.173692 0.00159055 0)
(-0.17864 0.00132081 0)
(-0.182715 0.00106816 0)
(-0.18589 0.000802296 0)
(-0.188239 0.00056631 0)
(-0.189787 0.000310952 0)
(-0.190561 6.10274e-05 0)
(-0.190496 -0.000148304 0)
(-0.189546 -0.000373676 0)
(-0.187689 -0.000620229 0)
(-0.185048 -0.000832229 0)
(-0.181573 -0.00108641 0)
(-0.177239 -0.00129732 0)
(-0.172197 -0.00152613 0)
(-0.166329 -0.0017592 0)
(-0.159693 -0.00196623 0)
(-0.152212 -0.00220225 0)
(-0.144015 -0.00245502 0)
(-0.135214 -0.0026422 0)
(-0.12554 -0.00287777 0)
(-0.115191 -0.00312749 0)
(-0.104103 -0.00331186 0)
(-0.0922286 -0.00360432 0)
(-0.0797421 -0.00378241 0)
(-0.0664496 -0.00402615 0)
(-0.0523776 -0.0042723 0)
(-0.037549 -0.00445976 0)
(-0.0221196 -0.00465257 0)
(-0.00607047 -0.00486803 0)
(0.0106112 -0.0050226 0)
(0.02784 -0.00516921 0)
(0.0453596 -0.00523988 0)
(0.0630153 -0.00527916 0)
(0.0807787 -0.00525063 0)
(0.0982712 -0.00514816 0)
(0.115287 -0.00498105 0)
(0.131746 -0.00478131 0)
(0.147287 -0.00446239 0)
(0.161698 -0.00409161 0)
(0.17479 -0.00367048 0)
(0.186273 -0.00315139 0)
(0.19592 -0.00257317 0)
(0.203513 -0.00195181 0)
(0.208926 -0.00126259 0)
(0.212014 -0.000565358 0)
(0.21268 0.000155906 0)
(0.210906 0.000897964 0)
(0.206561 0.00164141 0)
(0.199847 0.00233941 0)
(0.190846 0.00301633 0)
(0.179654 0.00363113 0)
(0.166495 0.00417773 0)
(0.1516 0.00465862 0)
(0.135233 0.00506439 0)
(0.117726 0.00534807 0)
(0.0993361 0.00558226 0)
(0.0803561 0.00571754 0)
(0.0610517 0.00576893 0)
(0.0416701 0.00574366 0)
(0.0224843 0.00566055 0)
(0.00371494 0.00553003 0)
(-0.0144952 0.00531908 0)
(-0.0320101 0.00508619 0)
(-0.048667 0.00481632 0)
(-0.0643401 0.0045328 0)
(-0.0789704 0.00418363 0)
(-0.0925267 0.00387161 0)
(-0.104996 0.00354899 0)
(-0.116333 0.00321484 0)
(-0.126567 0.00288053 0)
(-0.135734 0.00256852 0)
(-0.143859 0.00227638 0)
(-0.151002 0.00199138 0)
(-0.157245 0.0017218 0)
(-0.162638 0.00147242 0)
(-0.167216 0.00123797 0)
(-0.171016 0.0010395 0)
(-0.174103 0.00081539 0)
(-0.176527 0.000631021 0)
(-0.178349 0.000442222 0)
(-0.179522 0.00026162 0)
(-0.180037 6.04325e-05 0)
(-0.179898 -0.000135283 0)
(-0.17915 -0.000302804 0)
(-0.177806 -0.000482672 0)
(-0.1759 -0.000670237 0)
(-0.173248 -0.000894341 0)
(-0.169935 -0.00106273 0)
(-0.166043 -0.00127735 0)
(-0.161392 -0.00151899 0)
(-0.155899 -0.0017374 0)
(-0.14959 -0.00199125 0)
(-0.142411 -0.00227831 0)
(-0.134387 -0.00250767 0)
(-0.125494 -0.00279289 0)
(-0.11559 -0.00307647 0)
(-0.104785 -0.00334814 0)
(-0.0930455 -0.00363274 0)
(-0.0803763 -0.00390197 0)
(-0.0667936 -0.0041802 0)
(-0.0523281 -0.00442154 0)
(-0.0370714 -0.00466516 0)
(-0.0210462 -0.00486065 0)
(-0.00430976 -0.00505655 0)
(0.0129102 -0.0051974 0)
(0.0304986 -0.00528339 0)
(0.0484666 -0.00535896 0)
(0.0665069 -0.00535676 0)
(0.0843636 -0.00526772 0)
(0.101876 -0.00515432 0)
(0.118866 -0.00495117 0)
(0.135186 -0.00472246 0)
(0.150491 -0.00437206 0)
(0.164463 -0.00393749 0)
(0.17695 -0.00345493 0)
(0.187667 -0.00290957 0)
(0.196408 -0.00229731 0)
(0.203026 -0.00163941 0)
(0.207401 -0.000951687 0)
(0.209427 -0.000253346 0)
(0.209104 0.000450636 0)
(0.20631 0.0011577 0)
(0.201218 0.00184095 0)
(0.193912 0.00249379 0)
(0.18452 0.00309391 0)
(0.173224 0.0036336 0)
(0.160198 0.00410807 0)
(0.145657 0.00451843 0)
(0.129881 0.00486309 0)
(0.113097 0.00511916 0)
(0.0955551 0.00529895 0)
(0.0775429 0.00541972 0)
(0.0592494 0.00545627 0)
(0.0409178 0.0054487 0)
(0.022761 0.00536357 0)
(0.00491463 0.00524687 0)
(-0.0124233 0.00508193 0)
(-0.029125 0.00487069 0)
(-0.0451048 0.0046347 0)
(-0.0602901 0.004386 0)
(-0.0745692 0.00411745 0)
(-0.0878777 0.00382513 0)
(-0.100249 0.00353447 0)
(-0.111634 0.00322349 0)
(-0.122001 0.00293888 0)
(-0.131362 0.00266262 0)
(-0.139776 0.00235012 0)
(-0.147246 0.00208525 0)
(-0.153792 0.00182146 0)
(-0.159504 0.00157455 0)
(-0.164324 0.00130431 0)
(-0.168267 0.00104172 0)
(-0.17145 0.000831983 0)
(-0.173824 0.000607018 0)
(-0.175474 0.000381646 0)
(-0.176448 0.000200405 0)
(-0.176681 -4.0184e-05 0)
(-0.176295 -0.000184551 0)
(-0.175391 -0.000382782 0)
(-0.173649 -0.00062676 0)
(-0.171236 -0.000813091 0)
(-0.168179 -0.000994858 0)
(-0.164453 -0.00120631 0)
(-0.160162 -0.00137466 0)
(-0.155132 -0.00161265 0)
(-0.149358 -0.00183128 0)
(-0.142938 -0.00201708 0)
(-0.135659 -0.00228338 0)
(-0.127504 -0.00255923 0)
(-0.118521 -0.00282452 0)
(-0.108516 -0.00310382 0)
(-0.0975191 -0.00339949 0)
(-0.0856336 -0.00371841 0)
(-0.0726684 -0.00398186 0)
(-0.0587238 -0.00428805 0)
(-0.0438684 -0.00456263 0)
(-0.0280512 -0.00482859 0)
(-0.0114241 -0.00505618 0)
(0.00587946 -0.00522617 0)
(0.0237538 -0.00538941 0)
(0.0419521 -0.00548202 0)
(0.0604915 -0.00551979 0)
(0.0790855 -0.00548976 0)
(0.0972977 -0.00537036 0)
(0.115055 -0.00518051 0)
(0.132111 -0.00491779 0)
(0.148048 -0.00455858 0)
(0.162591 -0.00410736 0)
(0.17559 -0.00362659 0)
(0.186926 -0.00307804 0)
(0.196255 -0.00245277 0)
(0.203421 -0.00181478 0)
(0.20838 -0.00112679 0)
(0.211013 -0.000434837 0)
(0.211337 0.000234478 0)
(0.209357 0.000919515 0)
(0.20509 0.00157827 0)
(0.19877 0.00218563 0)
(0.190484 0.00275906 0)
(0.180391 0.00326423 0)
(0.168637 0.00370695 0)
(0.155453 0.00410861 0)
(0.141187 0.00444848 0)
(0.125846 0.00468894 0)
(0.109691 0.00490724 0)
(0.0930661 0.00504955 0)
(0.0760462 0.00511836 0)
(0.0587402 0.00514125 0)
(0.0413424 0.00509164 0)
(0.0241422 0.00506307 0)
(0.00774505 0.00495285 0)
(-0.00797463 0.00481595 0)
(-0.0234879 0.00466087 0)
(-0.0384751 0.00445723 0)
(-0.0527502 0.00424668 0)
(-0.0663061 0.00400765 0)
(-0.0790474 0.00376868 0)
(-0.0910125 0.00352041 0)
(-0.102195 0.00325266 0)
(-0.112433 0.00298013 0)
(-0.121883 0.00271586 0)
(-0.130459 0.00244204 0)
(-0.138083 0.00214485 0)
(-0.144879 0.00188127 0)
(-0.150721 0.0015897 0)
(-0.15567 0.00132453 0)
(-0.159785 0.00104285 0)
(-0.162962 0.000765137 0)
(-0.16525 0.000505364 0)
(-0.166623 0.000242797 0)
(-0.167112 -3.47019e-05 0)
(-0.166629 -0.000285982 0)
(-0.165259 -0.000559076 0)
(-0.162977 -0.000820339 0)
(-0.159846 -0.00105763 0)
(-0.155879 -0.00131649 0)
(-0.151134 -0.0015286 0)
(-0.145651 -0.00173804 0)
(-0.139415 -0.00196855 0)
(-0.132472 -0.00215686 0)
(-0.124859 -0.0023478 0)
(-0.116538 -0.00257103 0)
(-0.107589 -0.00275592 0)
(-0.0979732 -0.00297633 0)
(-0.0875996 -0.00316286 0)
(-0.0765969 -0.00335251 0)
(-0.0649508 -0.00357942 0)
(-0.0525676 -0.00375863 0)
(-0.0395053 -0.00392928 0)
(-0.0256604 -0.0041774 0)
(-0.0112651 -0.00434966 0)
(0.00341485 -0.00453294 0)
(0.0186808 -0.00466759 0)
(0.0345375 -0.00476217 0)
(0.0507699 -0.00490468 0)
(0.0672895 -0.00494071 0)
(0.0839302 -0.00492519 0)
(0.100547 -0.00494275 0)
(0.116982 -0.00483315 0)
(0.133047 -0.00473528 0)
(0.148546 -0.00451147 0)
(0.163247 -0.00421909 0)
(0.176928 -0.00391253 0)
(0.189376 -0.00349679 0)
(0.200364 -0.00302027 0)
(0.20968 -0.00250559 0)
(0.217137 -0.0019203 0)
(0.222595 -0.00129083 0)
(0.22593 -0.000633292 0)
(0.226975 3.60735e-05 0)
(0.225741 0.000722532 0)
(0.222019 0.00143762 0)
(0.216021 0.00213391 0)
(0.20779 0.0027581 0)
(0.197452 0.00337492 0)
(0.185179 0.0039504 0)
(0.171195 0.00437074 0)
(0.155758 0.00479855 0)
(0.139136 0.00504141 0)
(0.121628 0.00529989 0)
(0.103516 0.00547829 0)
(0.0850793 0.00546591 0)
(0.0665843 0.00548325 0)
(0.0482601 0.00542775 0)
(0.0302478 0.00522084 0)
(0.0123664 0.00502657 0)
(-0.00420027 0.00482207 0)
(-0.0194432 0.00456998 0)
(-0.0342788 0.00429753 0)
(-0.0481392 0.00396565 0)
(-0.0609799 0.00367068 0)
(-0.074545 0.00336526 0)
(-0.180775 -0.00103176 0)
(-0.17856 -0.00138465 0)
(-0.175413 -0.00173916 0)
(-0.17154 -0.00210201 0)
(-0.166919 -0.0024848 0)
(-0.161522 -0.00287349 0)
(-0.155321 -0.00329127 0)
(-0.14828 -0.00371046 0)
(-0.140364 -0.00414161 0)
(-0.131542 -0.00461822 0)
(-0.121785 -0.00507427 0)
(-0.111069 -0.00553442 0)
(-0.0993793 -0.00605528 0)
(-0.0867078 -0.00651472 0)
(-0.0730643 -0.00704478 0)
(-0.0584622 -0.00747527 0)
(-0.042938 -0.00787039 0)
(-0.0264795 -0.00835116 0)
(-0.00929671 -0.0086735 0)
(0.00840111 -0.00889809 0)
(0.0266646 -0.00922973 0)
(0.0453532 -0.00930976 0)
(0.064229 -0.00927977 0)
(0.0830821 -0.00932738 0)
(0.101688 -0.00907797 0)
(0.119804 -0.00887101 0)
(0.137171 -0.00838031 0)
(0.15352 -0.00776276 0)
(0.168595 -0.00713076 0)
(0.182142 -0.00628702 0)
(0.193935 -0.00534518 0)
(0.203768 -0.00434158 0)
(0.211462 -0.00322986 0)
(0.216883 -0.00207025 0)
(0.219942 -0.000870587 0)
(0.220567 0.000348677 0)
(0.218702 0.00155045 0)
(0.214337 0.00275793 0)
(0.207642 0.00393704 0)
(0.198689 0.00493828 0)
(0.187659 0.00595776 0)
(0.17475 0.00674545 0)
(0.16019 0.00754219 0)
(0.144183 0.00824267 0)
(0.127006 0.0086635 0)
(0.108886 0.00908842 0)
(0.0900595 0.0093881 0)
(0.0709178 0.00945786 0)
(0.051584 0.0095238 0)
(0.0321362 0.00944066 0)
(0.013304 0.00923328 0)
(-0.00466986 0.00903695 0)
(-0.0222408 0.00867607 0)
(-0.0393503 0.00833111 0)
(-0.0557128 0.00792595 0)
(-0.0712363 0.00745753 0)
(-0.0858697 0.0070051 0)
(-0.0995541 0.00651954 0)
(-0.112271 0.00601267 0)
(-0.124017 0.00551178 0)
(-0.134786 0.00501511 0)
(-0.144558 0.00453877 0)
(-0.153295 0.00404344 0)
(-0.161045 0.00356505 0)
(-0.167877 0.00311482 0)
(-0.17376 0.00264946 0)
(-0.178706 0.00219985 0)
(-0.18278 0.00178019 0)
(-0.185953 0.0013359 0)
(-0.188305 0.000940653 0)
(-0.189855 0.000521473 0)
(-0.190621 0.000103088 0)
(-0.190548 -0.000243091 0)
(-0.189606 -0.000625612 0)
(-0.187743 -0.00103273 0)
(-0.185103 -0.00138704 0)
(-0.181631 -0.00181089 0)
(-0.177299 -0.00216442 0)
(-0.17225 -0.00254123 0)
(-0.166386 -0.00293555 0)
(-0.159752 -0.00327536 0)
(-0.15227 -0.00366212 0)
(-0.14408 -0.00409543 0)
(-0.135276 -0.00440489 0)
(-0.125605 -0.00479146 0)
(-0.115257 -0.00521078 0)
(-0.104171 -0.00551663 0)
(-0.0922992 -0.00601322 0)
(-0.0797963 -0.00630165 0)
(-0.0665214 -0.00671434 0)
(-0.0524337 -0.00711375 0)
(-0.0376164 -0.00744625 0)
(-0.0221816 -0.00775398 0)
(-0.00613343 -0.00811651 0)
(0.0105524 -0.00837367 0)
(0.0278066 -0.00860856 0)
(0.045334 -0.0087338 0)
(0.0630018 -0.00879034 0)
(0.0807715 -0.00875942 0)
(0.0982835 -0.00858949 0)
(0.115317 -0.00830387 0)
(0.13178 -0.00797312 0)
(0.147336 -0.00744667 0)
(0.161771 -0.00682727 0)
(0.174903 -0.00611551 0)
(0.186404 -0.00524811 0)
(0.196059 -0.00430652 0)
(0.203675 -0.00324223 0)
(0.209093 -0.00210365 0)
(0.21219 -0.000934684 0)
(0.212854 0.000260712 0)
(0.211054 0.00149407 0)
(0.206726 0.00273108 0)
(0.200018 0.00390797 0)
(0.190997 0.00502933 0)
(0.179781 0.0060572 0)
(0.1666 0.00696437 0)
(0.151699 0.0077619 0)
(0.135307 0.00844629 0)
(0.117779 0.00892489 0)
(0.0993653 0.00931026 0)
(0.0803502 0.00952329 0)
(0.06103 0.00961338 0)
(0.0416353 0.00957487 0)
(0.0224367 0.00943568 0)
(0.00364988 0.00922288 0)
(-0.0145736 0.00887024 0)
(-0.0321059 0.00847468 0)
(-0.0487631 0.00802038 0)
(-0.0644369 0.00755788 0)
(-0.079072 0.00698687 0)
(-0.0926372 0.00644833 0)
(-0.105107 0.00590983 0)
(-0.116446 0.00535525 0)
(-0.126674 0.00480341 0)
(-0.135835 0.00428009 0)
(-0.143957 0.00378893 0)
(-0.151093 0.00331576 0)
(-0.157333 0.00287426 0)
(-0.162728 0.00244569 0)
(-0.167298 0.00206251 0)
(-0.171101 0.00173643 0)
(-0.17418 0.00135743 0)
(-0.176594 0.00104656 0)
(-0.178424 0.000742312 0)
(-0.179608 0.000434994 0)
(-0.180115 9.77423e-05 0)
(-0.179963 -0.000216939 0)
(-0.17922 -0.000508938 0)
(-0.17789 -0.000819219 0)
(-0.17598 -0.00111135 0)
(-0.173319 -0.00148734 0)
(-0.170017 -0.00177918 0)
(-0.166135 -0.00213468 0)
(-0.161473 -0.00252548 0)
(-0.155979 -0.00288873 0)
(-0.149686 -0.00331881 0)
(-0.142497 -0.00379038 0)
(-0.13448 -0.00418263 0)
(-0.125598 -0.00465508 0)
(-0.115699 -0.00513347 0)
(-0.104885 -0.00558391 0)
(-0.0931397 -0.00605997 0)
(-0.0804634 -0.00651413 0)
(-0.0668637 -0.00696051 0)
(-0.0523891 -0.00736459 0)
(-0.0371383 -0.00777356 0)
(-0.0211204 -0.00810203 0)
(-0.00436825 -0.00842959 0)
(0.0128684 -0.00866752 0)
(0.0304612 -0.00880548 0)
(0.0484307 -0.0089378 0)
(0.0664984 -0.00893122 0)
(0.0843781 -0.00878755 0)
(0.10191 -0.00859361 0)
(0.118899 -0.00825425 0)
(0.135242 -0.00786702 0)
(0.150571 -0.00728795 0)
(0.16455 -0.00657841 0)
(0.177061 -0.00576808 0)
(0.187808 -0.00483932 0)
(0.196561 -0.00382959 0)
(0.203183 -0.00273267 0)
(0.207555 -0.00158944 0)
(0.209595 -0.00042473 0)
(0.209267 0.000749849 0)
(0.20647 0.00193525 0)
(0.201375 0.00307314 0)
(0.194052 0.00415574 0)
(0.184646 0.00515412 0)
(0.173333 0.00605809 0)
(0.160292 0.00684602 0)
(0.145737 0.00753676 0)
(0.129943 0.00810661 0)
(0.113135 0.00853245 0)
(0.095579 0.00883923 0)
(0.0775456 0.00904026 0)
(0.0592283 0.00909535 0)
(0.0408808 0.0090834 0)
(0.0227087 0.0089378 0)
(0.00485415 0.00874185 0)
(-0.0124965 0.00846943 0)
(-0.0292041 0.00812028 0)
(-0.0451924 0.00773148 0)
(-0.0603878 0.00730415 0)
(-0.0746675 0.00686279 0)
(-0.0879724 0.00637673 0)
(-0.100347 0.00589738 0)
(-0.111738 0.00537373 0)
(-0.122107 0.00489086 0)
(-0.131459 0.00442882 0)
(-0.139862 0.00392625 0)
(-0.147334 0.00348197 0)
(-0.153893 0.00302967 0)
(-0.159613 0.00261324 0)
(-0.164426 0.00216739 0)
(-0.168356 0.00173542 0)
(-0.171528 0.00139231 0)
(-0.173912 0.00101395 0)
(-0.175567 0.000630443 0)
(-0.176535 0.000335746 0)
(-0.176747 -5.87488e-05 0)
(-0.176365 -0.000325804 0)
(-0.175474 -0.00064309 0)
(-0.173726 -0.00103203 0)
(-0.171309 -0.00135017 0)
(-0.168268 -0.00167344 0)
(-0.164517 -0.00199959 0)
(-0.160246 -0.00229079 0)
(-0.155227 -0.00269559 0)
(-0.149434 -0.00305011 0)
(-0.143024 -0.00337711 0)
(-0.135759 -0.00380207 0)
(-0.127603 -0.00426087 0)
(-0.118636 -0.00471448 0)
(-0.108621 -0.00518377 0)
(-0.0976104 -0.00566132 0)
(-0.085715 -0.00619167 0)
(-0.0727432 -0.00663995 0)
(-0.058808 -0.00715077 0)
(-0.0439524 -0.00760238 0)
(-0.0281253 -0.00804492 0)
(-0.0114897 -0.00842523 0)
(0.00582216 -0.00870965 0)
(0.0236956 -0.00899407 0)
(0.0419177 -0.00913573 0)
(0.0604641 -0.00920071 0)
(0.0790832 -0.00916262 0)
(0.0973237 -0.00895696 0)
(0.115101 -0.00862232 0)
(0.132157 -0.00821215 0)
(0.148124 -0.0076033 0)
(0.162693 -0.00685049 0)
(0.175709 -0.00603325 0)
(0.187054 -0.00514176 0)
(0.196406 -0.0040927 0)
(0.203585 -0.0030202 0)
(0.208534 -0.00188023 0)
(0.211168 -0.000735934 0)
(0.211499 0.000395924 0)
(0.209499 0.00154172 0)
(0.205237 0.00263166 0)
(0.198905 0.00364842 0)
(0.190603 0.00459 0)
(0.180505 0.00544398 0)
(0.168736 0.00618088 0)
(0.155545 0.00685492 0)
(0.141257 0.00742374 0)
(0.125893 0.00781505 0)
(0.109727 0.00818396 0)
(0.093094 0.00841703 0)
(0.076063 0.00854133 0)
(0.0587263 0.00857023 0)
(0.0413292 0.00848923 0)
(0.0241169 0.00844131 0)
(0.00770207 0.0082556 0)
(-0.00801482 0.00802941 0)
(-0.0235438 0.00776893 0)
(-0.038534 0.00743186 0)
(-0.0528153 0.00708438 0)
(-0.0663816 0.00668114 0)
(-0.0791233 0.0062799 0)
(-0.0910951 0.00586573 0)
(-0.102274 0.00542481 0)
(-0.112516 0.00496866 0)
(-0.121968 0.00452611 0)
(-0.130541 0.00407336 0)
(-0.138167 0.00357395 0)
(-0.14496 0.00313522 0)
(-0.150798 0.00265378 0)
(-0.155753 0.00220785 0)
(-0.159864 0.00173719 0)
(-0.163036 0.00127513 0)
(-0.165325 0.000844753 0)
(-0.166705 0.000402463 0)
(-0.167185 -5.67683e-05 0)
(-0.166702 -0.000471579 0)
(-0.165328 -0.000920533 0)
(-0.163043 -0.00137097 0)
(-0.159911 -0.00176098 0)
(-0.155941 -0.00219391 0)
(-0.151192 -0.00254751 0)
(-0.145706 -0.00289749 0)
(-0.139468 -0.00328178 0)
(-0.132524 -0.00359545 0)
(-0.124911 -0.00391356 0)
(-0.116591 -0.00428569 0)
(-0.10764 -0.00459341 0)
(-0.0980253 -0.00496113 0)
(-0.0876535 -0.0052707 0)
(-0.0766493 -0.00558741 0)
(-0.0650027 -0.00596611 0)
(-0.0526194 -0.0062649 0)
(-0.0395584 -0.00655001 0)
(-0.0257143 -0.00696089 0)
(-0.0113099 -0.00725027 0)
(0.00337524 -0.00755496 0)
(0.0186432 -0.0077804 0)
(0.0345077 -0.00793822 0)
(0.0507491 -0.00817594 0)
(0.0672789 -0.00823626 0)
(0.0839308 -0.00821064 0)
(0.100561 -0.00824022 0)
(0.117011 -0.00805769 0)
(0.133093 -0.00789476 0)
(0.148608 -0.00752189 0)
(0.163326 -0.00703453 0)
(0.177026 -0.00652381 0)
(0.18949 -0.00583095 0)
(0.200494 -0.00503656 0)
(0.209827 -0.00417852 0)
(0.217297 -0.00320238 0)
(0.222762 -0.00215583 0)
(0.226107 -0.00105909 0)
(0.227173 6.30325e-05 0)
(0.225918 0.00120755 0)
(0.222197 0.00239756 0)
(0.216199 0.00355785 0)
(0.207955 0.00459885 0)
(0.197604 0.00562747 0)
(0.185315 0.00658717 0)
(0.171309 0.00728808 0)
(0.155851 0.00800134 0)
(0.139205 0.00840604 0)
(0.121675 0.00883689 0)
(0.103541 0.00913413 0)
(0.0850835 0.0091131 0)
(0.0665694 0.00914174 0)
(0.0482274 0.00904898 0)
(0.0301981 0.00870358 0)
(0.0123148 0.00838169 0)
(-0.00425792 0.00803631 0)
(-0.0195186 0.00761708 0)
(-0.0343582 0.00716303 0)
(-0.0482199 0.00660974 0)
(-0.0610627 0.00611794 0)
(-0.0746284 0.00560873 0)
(-0.180857 -0.0014441 0)
(-0.178643 -0.00193803 0)
(-0.175499 -0.0024342 0)
(-0.171628 -0.00294203 0)
(-0.16701 -0.00347788 0)
(-0.161617 -0.00402199 0)
(-0.15542 -0.00460685 0)
(-0.148384 -0.00519374 0)
(-0.140471 -0.0057974 0)
(-0.131653 -0.00646474 0)
(-0.121898 -0.00710343 0)
(-0.111183 -0.00774785 0)
(-0.0994955 -0.00847744 0)
(-0.0868224 -0.00912099 0)
(-0.0731777 -0.00986356 0)
(-0.0585701 -0.0104667 0)
(-0.0430377 -0.0110202 0)
(-0.0265729 -0.0116933 0)
(-0.00937566 -0.0121457 0)
(0.00833976 -0.012462 0)
(0.0266198 -0.0129268 0)
(0.0453306 -0.0130392 0)
(0.0642304 -0.0129977 0)
(0.0831116 -0.013065 0)
(0.101745 -0.012716 0)
(0.119894 -0.0124267 0)
(0.13729 -0.0117397 0)
(0.153668 -0.0108748 0)
(0.168776 -0.00998998 0)
(0.182349 -0.00880828 0)
(0.194165 -0.00748875 0)
(0.204022 -0.00608331 0)
(0.211733 -0.00452753 0)
(0.217169 -0.00290513 0)
(0.220241 -0.0012222 0)
(0.220862 0.000501147 0)
(0.218968 0.0021766 0)
(0.214611 0.00386184 0)
(0.207905 0.0055154 0)
(0.19893 0.0069179 0)
(0.187879 0.00834669 0)
(0.174942 0.00944994 0)
(0.160355 0.0105655 0)
(0.144318 0.0115469 0)
(0.127111 0.0121352 0)
(0.108958 0.01273 0)
(0.0901048 0.0131499 0)
(0.0709372 0.0132473 0)
(0.0515709 0.0133384 0)
(0.0321022 0.013221 0)
(0.0132584 0.0129319 0)
(-0.00473652 0.0126561 0)
(-0.0223235 0.0121501 0)
(-0.0394447 0.0116663 0)
(-0.0558164 0.0110989 0)
(-0.0713447 0.0104419 0)
(-0.0859824 0.00980801 0)
(-0.0996704 0.00912736 0)
(-0.112389 0.00841673 0)
(-0.124134 0.00771601 0)
(-0.134898 0.00701965 0)
(-0.144671 0.00635457 0)
(-0.153407 0.0056589 0)
(-0.161151 0.00499 0)
(-0.167982 0.00435963 0)
(-0.173863 0.00370791 0)
(-0.178803 0.00307959 0)
(-0.182882 0.00249243 0)
(-0.186047 0.0018676 0)
(-0.1884 0.00132128 0)
(-0.189964 0.000732824 0)
(-0.190718 0.000144842 0)
(-0.190629 -0.000338605 0)
(-0.18969 -0.000872559 0)
(-0.187831 -0.00144807 0)