/*--------------------------------*- C++ -*----------------------------------*\
| =========                 |                                                 |
| \\      /  F ield         | OpenFOAM: The Open Source CFD Toolbox           |
|  \\    /   O peration     | Version:  3.0.1                                 |
|   \\  /    A nd           | Web:      www.OpenFOAM.org                      |
|    \\/     M anipulation  |                                                 |
\*---------------------------------------------------------------------------*/
FoamFile
{
    version     2.0;
    format      ascii;
    class       surfaceScalarField;
    location    "40.8";
    object      alphaPhi;
}
// * * * * * * * * * * * * * * * * * * * * * * * * * * * * * * * * * * * * * //

dimensions      [0 3 -1 0 0 0 0];

internalField   nonuniform List<scalar> 
42423
(
0.000226273
-1.23491e-05
0.000237021
-1.07476e-05
0.000245825
-8.80458e-06
0.000252496
-6.67028e-06
0.000256975
-4.47892e-06
0.000259167
-2.19223e-06
0.000259081
8.56993e-08
0.000256628
2.45252e-06
0.0002516
5.02896e-06
0.000244366
7.23394e-06
0.000235051
9.31458e-06
0.000223644
1.14069e-05
0.000210543
1.31009e-05
0.000195866
1.46775e-05
0.000179997
1.58682e-05
0.000163098
1.68991e-05
0.000145354
1.77444e-05
0.00012716
1.81935e-05
0.000108693
1.84672e-05
9.01558e-05
1.85375e-05
7.18098e-05
1.83461e-05
5.38074e-05
1.80023e-05
3.63313e-05
1.74761e-05
1.95406e-05
1.67907e-05
3.47463e-06
1.6066e-05
-1.18924e-05
1.5367e-05
-2.6341e-05
1.44486e-05
-3.98318e-05
1.34907e-05
-5.23337e-05
1.25019e-05
-6.38627e-05
1.1529e-05
-7.44112e-05
1.05485e-05
-8.40044e-05
9.59324e-06
-9.2649e-05
8.6446e-06
-0.000100371
7.72158e-06
-0.000107221
6.85009e-06
-0.000113219
5.99797e-06
-0.000118386
5.16726e-06
-0.00012278
4.39451e-06
-0.000126429
3.64869e-06
-0.000129328
2.89935e-06
-0.00013154
2.21138e-06
-0.00013308
1.54052e-06
-0.00013398
8.99165e-07
-0.00013428
3.00893e-07
-0.000133883
-3.97918e-07
-0.000132826
-1.05608e-06
-0.00013118
-1.64691e-06
-0.000128892
-2.28729e-06
-0.000125856
-3.03623e-06
-0.000122278
-3.57828e-06
-0.000117929
-4.34898e-06
-0.000112951
-4.97757e-06
-0.00010715
-5.80107e-06
-0.000100514
-6.63664e-06
-9.32632e-05
-7.25033e-06
-8.51408e-05
-8.12246e-06
-7.61599e-05
-8.98094e-06
-6.64475e-05
-9.71234e-06
-5.59192e-05
-1.05284e-05
-4.45906e-05
-1.13286e-05
-3.23756e-05
-1.2215e-05
-1.93402e-05
-1.30355e-05
-5.67816e-06
-1.3662e-05
8.75006e-06
-1.44283e-05
2.38296e-05
-1.50796e-05
3.93461e-05
-1.55165e-05
5.53907e-05
-1.60446e-05
7.17665e-05
-1.63758e-05
8.84428e-05
-1.66764e-05
0.000105304
-1.68613e-05
0.000122148
-1.68444e-05
0.000138789
-1.66408e-05
0.000155123
-1.63335e-05
0.000170814
-1.56914e-05
0.000185722
-1.49077e-05
0.000199507
-1.37856e-05
0.00021191
-1.24024e-05
0.000222713
-1.0803e-05
0.000231593
-8.88085e-06
0.000238239
-6.64575e-06
0.000242526
-4.28642e-06
0.000244302
-1.77605e-06
0.000243741
5.61191e-07
0.00024108
2.66036e-06
0.000236484
4.59676e-06
0.000230304
6.17991e-06
0.000222807
7.49693e-06
0.0002142
8.60721e-06
0.000204807
9.39358e-06
0.00019471
1.00971e-05
0.000184012
1.06978e-05
0.000172631
1.13817e-05
0.000160646
1.19854e-05
0.000147917
1.27288e-05
0.000134495
1.34219e-05
0.000120353
1.41423e-05
0.000105516
1.48373e-05
9.01833e-05
1.53324e-05
7.44879e-05
1.56954e-05
5.86169e-05
1.58711e-05
4.27639e-05
1.58531e-05
2.7182e-05
1.55818e-05
1.19993e-05
1.51827e-05
-2.56296e-06
1.45623e-05
-1.6391e-05
1.3828e-05
-2.93749e-05
1.29839e-05
-4.14404e-05
1.20655e-05
-5.25343e-05
1.10939e-05
-6.26563e-05
1.01219e-05
-7.17851e-05
9.12884e-06
-7.9905e-05
8.11989e-06
-8.71728e-05
7.26774e-06
-9.34797e-05
6.30688e-06
-9.89138e-05
5.43409e-06
-0.000103533
4.61966e-06
-0.000107425
3.89149e-06
-0.000110551
3.12653e-06
-0.000112972
2.4207e-06
-0.000114716
1.74383e-06
-0.000115859
1.14279e-06
-0.00011644
5.81577e-07
-0.000116457
1.64821e-08
-0.000115912
-5.45207e-07
-0.000114842
-1.06975e-06
-0.000113272
-1.57005e-06
-0.000111182
-2.08984e-06
-0.000108538
-2.64417e-06
-0.000105491
-3.04736e-06
-0.00010192
-3.57103e-06
-9.78525e-05
-4.06707e-06
-9.32782e-05
-4.57437e-06
-8.81789e-05
-5.09932e-06
-8.26067e-05
-5.57222e-06
-7.64728e-05
-6.1339e-06
-6.97498e-05
-6.72302e-06
-6.24505e-05
-7.29932e-06
-5.45028e-05
-7.94772e-06
-4.59956e-05
-8.50728e-06
-3.68191e-05
-9.17654e-06
-2.69283e-05
-9.89084e-06
-1.63388e-05
-1.05896e-05
-5.04667e-06
-1.12922e-05
6.97633e-06
-1.20231e-05
1.97593e-05
-1.27831e-05
3.32398e-05
-1.34805e-05
4.7373e-05
-1.41333e-05
6.2137e-05
-1.47641e-05
7.74293e-05
-1.52924e-05
9.31487e-05
-1.57195e-05
0.000109202
-1.60533e-05
0.00012538
-1.61785e-05
0.00014152
-1.61398e-05
0.000157461
-1.59414e-05
0.000172933
-1.5472e-05
0.000187741
-1.48077e-05
0.000201663
-1.39229e-05
0.000214424
-1.27602e-05
0.000225815
-1.13919e-05
0.00023555
-9.73436e-06
0.000243461
-7.91147e-06
0.000249393
-5.93236e-06
0.000253124
-3.73127e-06
0.000254579
-1.45503e-06
0.000253767
8.12288e-07
0.000250567
3.20018e-06
0.000245016
5.55073e-06
0.000237234
7.78206e-06
0.000227356
9.87745e-06
0.000215562
1.17944e-05
0.000202066
1.34962e-05
0.000187093
1.49724e-05
0.000170909
1.61849e-05
0.000153716
1.71928e-05
0.000135951
1.77647e-05
0.000117752
1.81991e-05
9.95029e-05
1.82489e-05
8.14108e-05
1.80922e-05
6.36065e-05
1.78043e-05
4.63132e-05
1.72933e-05
2.96562e-05
1.6657e-05
1.36499e-05
1.60062e-05
-1.45837e-06
1.51083e-05
-1.56838e-05
1.42254e-05
-2.89029e-05
1.32191e-05
-4.11381e-05
1.22352e-05
-5.23299e-05
1.11919e-05
-6.25153e-05
1.01854e-05
-7.16813e-05
9.16599e-06
-7.99757e-05
8.2944e-06
-8.73198e-05
7.34406e-06
-9.38573e-05
6.53751e-06
-9.94767e-05
5.61945e-06
-0.000104425
4.94831e-06
-0.000108512
4.08696e-06
-0.000111911
3.39921e-06
-0.000114657
2.74614e-06
-0.000116657
1.99931e-06
-0.000118164
1.50772e-06
-0.000119041
8.76111e-07
-0.000119395
3.54741e-07
-0.000119224
-1.71011e-07
-0.000118539
-6.84884e-07
-0.000117316
-1.22331e-06
-0.00011571
-1.60584e-06
-0.000113512
-2.19808e-06
-0.000110777
-2.73536e-06
-0.000107469
-3.30741e-06
-0.000103581
-3.88798e-06
-9.90737e-05
-4.50777e-06
-9.39271e-05
-5.14665e-06
-8.80941e-05
-5.83305e-06
-8.15568e-05
-6.53735e-06
-7.41987e-05
-7.35805e-06
-6.61303e-05
-8.06851e-06
-5.71604e-05
-8.96985e-06
-4.73017e-05
-9.85874e-06
-3.65718e-05
-1.073e-05
-2.48092e-05
-1.17626e-05
-1.22808e-05
-1.25285e-05
1.25972e-06
-1.35406e-05
1.56203e-05
-1.43606e-05
3.07922e-05
-1.5172e-05
4.66303e-05
-1.58381e-05
6.3078e-05
-1.64477e-05
8.00072e-05
-1.69293e-05
9.71997e-05
-1.71926e-05
0.00011457
-1.73701e-05
0.000131846
-1.72767e-05
0.000148847
-1.70006e-05
0.000165266
-1.64186e-05
0.000180849
-1.55837e-05
0.000195255
-1.44061e-05
0.000208248
-1.29928e-05
0.000219556
-1.13082e-05
0.000228844
-9.28841e-06
0.00023597
-7.12558e-06
0.000240691
-4.7215e-06
0.00024291
-2.21897e-06
0.000242618
2.92291e-07
0.000239673
2.94436e-06
0.000234122
5.55104e-06
0.000226159
7.96286e-06
0.000215947
1.02121e-05
0.00020369
1.22573e-05
0.00018971
1.39796e-05
0.000174227
1.5483e-05
0.000157584
1.66434e-05
0.000140097
1.74863e-05
0.000122116
1.79819e-05
0.000103874
1.82414e-05
8.56264e-05
1.82478e-05
6.76047e-05
1.80216e-05
5.00749e-05
1.75298e-05
3.30488e-05
1.7026e-05
1.6815e-05
1.62338e-05
1.41395e-06
1.5401e-05
-1.31343e-05
1.45482e-05
-2.67676e-05
1.36334e-05
-3.95036e-05
1.27359e-05
-5.13426e-05
1.18391e-05
-6.24456e-05
1.1103e-05
-7.27116e-05
1.0266e-05
-8.22118e-05
9.50025e-06
-9.09983e-05
8.78652e-06
-9.90513e-05
8.05304e-06
-0.000106346
7.29489e-06
-0.000112787
6.44079e-06
-0.0001184
5.61305e-06
-0.000123031
4.63096e-06
-0.000126732
3.7011e-06
-0.000129371
2.63933e-06
-0.000131044
1.67296e-06
-0.000131696
6.52219e-07
-0.000131322
-3.7425e-07
-0.000130048
-1.27386e-06
-0.000127942
-2.10512e-06
-0.000124812
-3.13086e-06
-0.000120856
-3.95557e-06
-0.000116265
-4.59119e-06
-0.000110831
-5.43342e-06
-0.000104734
-6.09763e-06
-9.7855e-05
-6.8787e-06
-9.01176e-05
-7.73743e-06
-8.17511e-05
-8.36652e-06
-7.27258e-05
-9.02525e-06
-6.28657e-05
-9.86019e-06
-5.2507e-05
-1.03587e-05
-4.14611e-05
-1.10459e-05
-2.9876e-05
-1.15851e-05
-1.773e-05
-1.2146e-05
-4.89555e-06
-1.28345e-05
8.31877e-06
-1.32144e-05
2.27388e-05
-1.44201e-05
3.82358e-05
-1.54971e-05
5.4542e-05
-1.63062e-05
7.17518e-05
-1.72099e-05
8.96991e-05
-1.79474e-05
0.000108092
-1.83927e-05
0.000126902
-1.88106e-05
0.000145661
-1.87586e-05
0.000164186
-1.85255e-05
0.000182122
-1.79354e-05
0.000198967
-1.6846e-05
0.00021445
-1.54826e-05
0.000228291
-1.38415e-05
0.000240138
-1.18468e-05
0.00024993
-9.79189e-06
0.000257354
-7.42408e-06
0.000262372
-5.01847e-06
0.000264875
-2.50229e-06
0.000264752
1.22724e-07
0.000262236
2.51552e-06
0.000257372
4.86417e-06
0.000250174
7.19754e-06
0.000241052
9.12196e-06
0.000229993
1.10598e-05
0.000217388
1.26044e-05
0.00020336
1.40277e-05
0.000188044
1.53159e-05
0.000171874
1.61702e-05
0.000154969
1.69047e-05
0.000137491
1.74783e-05
0.000119769
1.77221e-05
0.000101985
1.77837e-05
8.43619e-05
1.76233e-05
6.69326e-05
1.74293e-05
4.98336e-05
1.7099e-05
3.32319e-05
1.66016e-05
1.71486e-05
1.60833e-05
1.83317e-06
1.53154e-05
-1.28818e-05
1.4715e-05
-2.68581e-05
1.39763e-05
-4.00429e-05
1.31848e-05
-5.23986e-05
1.23558e-05
-6.39276e-05
1.1529e-05
-7.45951e-05
1.06674e-05
-8.43938e-05
9.79867e-06
-9.32964e-05
8.90268e-06
-0.000101288
7.99168e-06
-0.000108368
7.07989e-06
-0.000114528
6.1597e-06
-0.00011977
5.24245e-06
-0.000124098
4.32783e-06
-0.000127516
3.41849e-06
-0.000130033
2.5164e-06
-0.000131652
1.61949e-06
-0.000132423
7.7039e-07
-0.00013228
-1.42593e-07
-0.000131237
-1.04282e-06
-0.000129307
-1.92994e-06
-0.000126545
-2.76282e-06
-0.000122934
-3.61066e-06
-0.00011853
-4.40416e-06
-0.000113343
-5.18674e-06
-0.000107318
-6.02459e-06
-0.000100525
-6.79369e-06
-7.56941e-06
0.000226359
-2.47197e-05
0.000237136
-2.15255e-05
0.000245969
-1.7637e-05
0.00025266
-1.33615e-05
0.000257157
-8.97574e-06
0.000259355
-4.39044e-06
0.000259234
2.06413e-07
0.000256744
4.94298e-06
0.000251712
1.00611e-05
0.000244476
1.44696e-05
0.000235152
1.86388e-05
0.000223737
2.2822e-05
0.000210626
2.62115e-05
0.000195938
2.9366e-05
0.000180058
3.17479e-05
0.000163147
3.38102e-05
0.00014539
3.55011e-05
0.000127185
3.63988e-05
0.000108706
3.69456e-05
9.01584e-05
3.70853e-05
7.17954e-05
3.6709e-05
5.37856e-05
3.60121e-05
3.6301e-05
3.49607e-05
1.95009e-05
3.35908e-05
3.45133e-06
3.21155e-05
-1.19269e-05
3.07452e-05
-2.63784e-05
2.89001e-05
-3.98715e-05
2.69838e-05
-5.23739e-05
2.50043e-05
-6.39053e-05
2.30604e-05
-7.44568e-05
2.11e-05
-8.40527e-05
1.91891e-05
-9.26955e-05
1.72874e-05
-0.000100415
1.54412e-05
-0.000107267
1.37018e-05
-0.000113264
1.19953e-05
-0.000118431
1.03339e-05
-0.000122828
8.79208e-06
-0.000126474
7.2948e-06
-0.000129374
5.79847e-06
-0.000131591
4.42878e-06
-0.000133135
3.08473e-06
-0.000134027
1.79137e-06
-0.000134323
5.96564e-07
-0.000133922
-7.99255e-07
-0.000132868
-2.10965e-06
-0.000131223
-3.29198e-06
-0.000128925
-4.5856e-06
-0.000125905
-6.05653e-06
-0.000122327
-7.15602e-06
-0.000117979
-8.69665e-06
-0.000113002
-9.95476e-06
-0.000107193
-1.16099e-05
-0.000100573
-1.32566e-05
-9.33207e-05
-1.45029e-05
-8.52001e-05
-1.62431e-05
-7.62145e-05
-1.79666e-05
-6.65124e-05
-1.94145e-05
-5.59706e-05
-2.10702e-05
-4.46426e-05
-2.26567e-05
-3.24282e-05
-2.44294e-05
-1.93906e-05
-2.60732e-05
-5.72484e-06
-2.73278e-05
8.70251e-06
-2.88557e-05
2.37804e-05
-3.01576e-05
3.92999e-05
-3.10361e-05
5.53541e-05
-3.20989e-05
7.17313e-05
-3.27531e-05
8.84045e-05
-3.33497e-05
0.000105268
-3.37248e-05
0.00012212
-3.36967e-05
0.000138777
-3.32972e-05
0.000155131
-3.26879e-05
0.000170834
-3.13946e-05
0.000185742
-2.98157e-05
0.000199512
-2.75556e-05
0.000211933
-2.48236e-05
0.000222756
-2.16262e-05
0.000231636
-1.77611e-05
0.000238319
-1.33287e-05
0.000242655
-8.62235e-06
0.00024446
-3.58061e-06
0.000243903
1.11768e-06
0.000241263
5.30047e-06
0.000236675
9.18514e-06
0.00023051
1.23452e-05
0.000223002
1.50052e-05
0.000214387
1.72227e-05
0.000204983
1.8798e-05
0.000194882
2.01981e-05
0.000184158
2.14221e-05
0.000172756
2.27839e-05
0.000160756
2.39851e-05
0.00014801
2.54751e-05
0.000134567
2.68651e-05
0.000120405
2.83043e-05
0.000105546
2.96969e-05
9.01926e-05
3.06857e-05
7.44785e-05
3.14095e-05
5.85959e-05
3.17537e-05
4.27282e-05
3.17208e-05
2.71328e-05
3.11773e-05
1.19754e-05
3.03402e-05
-2.62797e-06
2.91657e-05
-1.64565e-05
2.76565e-05
-2.94591e-05
2.59866e-05
-4.15228e-05
2.41292e-05
-5.2608e-05
2.21792e-05
-6.272e-05
2.0234e-05
-7.18476e-05
1.82565e-05
-7.99669e-05
1.62391e-05
-8.72366e-05
1.45375e-05
-9.35468e-05
1.26171e-05
-9.89811e-05
1.08684e-05
-0.000103588
9.22689e-06
-0.000107477
7.78012e-06
-0.000110604
6.25405e-06
-0.000113023
4.83963e-06
-0.000114777
3.49775e-06
-0.000115925
2.29083e-06
-0.000116496
1.1526e-06
-0.000116512
3.22982e-08
-0.000115966
-1.09195e-06
-0.000114894
-2.14086e-06
-0.000113329
-3.13499e-06
-0.000111242
-4.17732e-06
-0.000108631
-5.25474e-06
-0.000105558
-6.12077e-06
-0.000101989
-7.1399e-06
-9.79199e-05
-8.13639e-06
-9.33491e-05
-9.14518e-06
-8.82811e-05
-1.01673e-05
-8.26907e-05
-1.11627e-05
-7.65559e-05
-1.22687e-05
-6.98393e-05
-1.34397e-05
-6.25432e-05
-1.45954e-05
-5.45965e-05
-1.58945e-05
-4.60948e-05
-1.7009e-05
-3.69257e-05
-1.83456e-05
-2.7024e-05
-1.97926e-05
-1.64496e-05
-2.1164e-05
-5.14904e-06
-2.25928e-05
6.88172e-06
-2.40539e-05
1.96719e-05
-2.55734e-05
3.31494e-05
-2.69581e-05
4.72791e-05
-2.82631e-05
6.20543e-05
-2.95394e-05
7.73492e-05
-3.05875e-05
9.30881e-05
-3.14585e-05
0.000109128
-3.20929e-05
0.000125311
-3.23622e-05
0.000141468
-3.22964e-05
0.000157432
-3.19055e-05
0.000172916
-3.09565e-05
0.000187764
-2.96563e-05
0.000201679
-2.78375e-05
0.000214439
-2.55201e-05
0.000225844
-2.27974e-05
0.000235583
-1.94735e-05
0.0002435
-1.58281e-05
0.00024944
-1.18725e-05
0.000253202
-7.4937e-06
0.000254647
-2.90039e-06
0.000253825
1.63459e-06
0.000250618
6.40665e-06
0.000245078
1.10913e-05
0.000237295
1.55644e-05
0.000227411
1.97614e-05
0.000215613
2.35927e-05
0.000202103
2.70057e-05
0.000187115
2.99603e-05
0.000170926
3.23744e-05
0.000153718
3.44008e-05
0.000135943
3.55392e-05
0.000117728
3.64143e-05
9.94726e-05
3.65045e-05
8.137e-05
3.61948e-05
6.35646e-05
3.56097e-05
4.62654e-05
3.45925e-05
2.9592e-05
3.33305e-05
1.35984e-05
3.19999e-05
-1.51565e-06
3.02224e-05
-1.57443e-05
2.8454e-05
-2.89701e-05
2.6445e-05
-4.12029e-05
2.4468e-05
-5.23914e-05
2.23804e-05
-6.2575e-05
2.03689e-05
-7.17569e-05
1.8348e-05
-8.00409e-05
1.65784e-05
-8.73832e-05
1.46864e-05
-9.39202e-05
1.30745e-05
-9.95329e-05
1.12322e-05
-0.000104485
9.90041e-06
-0.000108576
8.17762e-06
-0.000111964
6.78708e-06
-0.000114715
5.49757e-06
-0.000116719
4.00319e-06
-0.000118232
3.02055e-06
-0.000119109
1.75387e-06
-0.000119469
7.14135e-07
-0.000119299
-3.40905e-07
-0.000118616
-1.36759e-06
-0.000117395
-2.44427e-06
-0.000115794
-3.20737e-06
-0.000113594
-4.39755e-06
-0.000110861
-5.46915e-06
-0.00010756
-6.60821e-06
-0.000103675
-7.77271e-06
-9.91728e-05
-9.0101e-06
-9.40302e-05
-1.02893e-05
-8.81975e-05
-1.16657e-05
-8.1657e-05
-1.3078e-05
-7.43125e-05
-1.47025e-05
-6.62352e-05
-1.61459e-05
-5.72658e-05
-1.79392e-05
-4.74162e-05
-1.97084e-05
-3.66873e-05
-2.1459e-05
-2.49265e-05
-2.35234e-05
-1.23922e-05
-2.50629e-05
1.1589e-06
-2.70917e-05
1.55178e-05
-2.87196e-05
3.07036e-05
-3.03579e-05
4.65494e-05
-3.1684e-05
6.30059e-05
-3.29043e-05
7.99325e-05
-3.3856e-05
9.7141e-05
-3.44012e-05
0.000114528
-3.47575e-05
0.000131821
-3.45693e-05
0.000148826
-3.40062e-05
0.000165254
-3.28462e-05
0.000180849
-3.11788e-05
0.000195273
-2.88301e-05
0.00020828
-2.60002e-05
0.000219601
-2.26292e-05
0.000228897
-1.85843e-05
0.000236033
-1.42623e-05
0.000240772
-9.46008e-06
0.000242987
-4.43394e-06
0.000242676
6.02527e-07
0.000239737
5.88376e-06
0.000234188
1.10998e-05
0.000226218
1.59324e-05
0.000215995
2.04359e-05
0.000203734
2.4518e-05
0.000189734
2.79792e-05
0.000174235
3.09824e-05
0.000157599
3.32792e-05
0.000140105
3.498e-05
0.000122103
3.59837e-05
0.000103849
3.64956e-05
8.56294e-05
3.64676e-05
6.75583e-05
3.60927e-05
5.00111e-05
3.50771e-05
3.29925e-05
3.40447e-05
1.67558e-05
3.24705e-05
1.35556e-06
3.08013e-05
-1.3185e-05
2.90887e-05
-2.68194e-05
2.72679e-05
-3.95572e-05
2.54737e-05
-5.14036e-05
2.36855e-05
-6.24923e-05
2.21918e-05
-7.27576e-05
2.05313e-05
-8.22592e-05
1.90019e-05
-9.10329e-05
1.75603e-05
-9.90811e-05
1.61013e-05
-0.000106376
1.45899e-05
-0.000112823
1.28874e-05
-0.000118445
1.12356e-05
-0.000123078
9.26382e-06
-0.000126783
7.40691e-06
-0.000129438
5.29392e-06
-0.000131126
3.3612e-06
-0.000131772
1.29802e-06
-0.000131389
-7.5662e-07
-0.000130127
-2.53583e-06
-0.000128033
-4.19947e-06
-0.000124913
-6.25024e-06
-0.00012097
-7.89861e-06
-0.00011639
-9.17107e-06
-0.000110967
-1.08565e-05
-0.000104879
-1.21858e-05
-9.80073e-05
-1.37507e-05
-9.02695e-05
-1.54752e-05
-8.1904e-05
-1.67321e-05
-7.28792e-05
-1.80501e-05
-6.30105e-05
-1.97289e-05
-5.26443e-05
-2.0725e-05
-4.15928e-05
-2.20975e-05
-2.99991e-05
-2.31788e-05
-1.78459e-05
-2.42994e-05
-5.0551e-06
-2.56254e-05
8.21489e-06
-2.64845e-05
2.26458e-05
-2.88511e-05
3.815e-05
-3.10014e-05
5.44659e-05
-3.26223e-05
7.16815e-05
-3.44257e-05
8.96376e-05
-3.59036e-05
0.000108045
-3.68e-05
0.000126866
-3.76324e-05
0.000145635
-3.75273e-05
0.000164175
-3.70655e-05
0.000182127
-3.58877e-05
0.000198964
-3.36828e-05
0.000214443
-3.09622e-05
0.000228323
-2.7721e-05
0.000240194
-2.37182e-05
0.000249975
-1.95728e-05
0.00025737
-1.48197e-05
0.000262406
-1.00545e-05
0.000264949
-5.04557e-06
0.000264834
2.38178e-07
0.000262319
5.02992e-06
0.000257465
9.71826e-06
0.000250266
1.43962e-05
0.000241138
1.82498e-05
0.000230071
2.21274e-05
0.000217458
2.52172e-05
0.000203421
2.80644e-05
0.000188094
3.06427e-05
0.000171915
3.23493e-05
0.000155001
3.38185e-05
0.000137514
3.49657e-05
0.000119784
3.5452e-05
0.00010199
3.55772e-05
8.43567e-05
3.52566e-05
6.69253e-05
3.48607e-05
4.98208e-05
3.42034e-05
3.32152e-05
3.32072e-05
1.71273e-05
3.21711e-05
1.80596e-06
3.06367e-05
-1.2912e-05
2.94329e-05
-2.68929e-05
2.79571e-05
-4.00807e-05
2.63725e-05
-5.24381e-05
2.47132e-05
-6.39686e-05
2.30595e-05
-7.46367e-05
2.13356e-05
-8.44384e-05
1.96003e-05
-9.33443e-05
1.78086e-05
-0.000101336
1.59835e-05
-0.000108413
1.41572e-05
-0.000114571
1.23171e-05
-0.000119817
1.04889e-05
-0.000124149
8.65944e-06
-0.000127565
6.83507e-06
-0.000130079
5.02948e-06
-0.000131699
3.24043e-06
-0.000132468
1.53873e-06
-0.000132325
-2.85024e-07
-0.000131279
-2.0891e-06
-0.000129347
-3.86195e-06
-0.000126582
-5.5277e-06
-0.000122969
-7.22353e-06
-0.000118564
-8.80985e-06
-0.000113376
-1.03745e-05
-0.00010735
-1.20503e-05
-0.000100556
-1.35883e-05
-1.51399e-05
0.000226512
-3.71164e-05
0.000237313
-3.23264e-05
0.000246167
-2.64906e-05
0.000252876
-2.00704e-05
0.000257384
-1.34845e-05
0.000259599
-6.60534e-06
0.000259461
3.44611e-07
0.00025693
7.47406e-06
0.000251888
1.51029e-05
0.000244649
2.17083e-05
0.000235304
2.79844e-05
0.000223873
3.42528e-05
0.000210745
3.93398e-05
0.000196037
4.40736e-05
0.000180137
4.76476e-05
0.000163206
5.07415e-05
0.000145429
5.32779e-05
0.000127205
5.46232e-05
0.000108708
5.5442e-05
9.01367e-05
5.56569e-05
7.17532e-05
5.50926e-05
5.37317e-05
5.40336e-05
3.62332e-05
5.24592e-05
1.94173e-05
5.04067e-05
3.40162e-06
4.81312e-05
-1.20035e-05
4.61504e-05
-2.64562e-05
4.33528e-05
-3.99512e-05
4.04788e-05
-5.24554e-05
3.75086e-05
-6.39875e-05
3.45924e-05
-7.4542e-05
3.16545e-05
-8.41327e-05
2.87798e-05
-9.27757e-05
2.59304e-05
-0.000100495
2.31601e-05
-0.000107346
2.05534e-05
-0.000113345
1.79938e-05
-0.000118506
1.54957e-05
-0.000122902
1.31878e-05
-0.00012655
1.0943e-05
-0.000129453
8.70104e-06
-0.000131665
6.64101e-06
-0.000133205
4.62491e-06
-0.000134092
2.67802e-06
-0.000134379
8.83645e-07
-0.000133968
-1.21004e-06
-0.000132916
-3.16235e-06
-0.000131271
-4.93643e-06
-0.000128966
-6.89065e-06
-0.000125959
-9.0635e-06
-0.000122381
-1.07345e-05
-0.000118035
-1.30428e-05
-0.000113058
-1.49318e-05
-0.000107246
-1.74219e-05
-0.000100645
-1.98574e-05
-9.33842e-05
-2.17634e-05
-8.52687e-05
-2.43587e-05
-7.62829e-05
-2.69524e-05
-6.6598e-05
-2.90994e-05
-5.6028e-05
-3.16403e-05
-4.4704e-05
-3.39807e-05
-3.2489e-05
-3.66444e-05
-1.94477e-05
-3.91146e-05
-5.78072e-06
-4.09948e-05
8.64652e-06
-4.3283e-05
2.37303e-05
-4.52414e-05
3.92559e-05
-4.65618e-05
5.53149e-05
-4.8158e-05
7.16991e-05
-4.91373e-05
8.83809e-05
-5.00316e-05
0.000105253
-5.05969e-05
0.000122116
-5.05596e-05
0.000138773
-4.99542e-05
0.000155134
-4.90495e-05
0.000170847
-4.71077e-05
0.00018577
-4.47385e-05
0.00019956
-4.13462e-05
0.000211995
-3.72578e-05
0.00022283
-3.2462e-05
0.000231735
-2.66654e-05
0.000238454
-2.00476e-05
0.000242843
-1.30119e-05
0.000244695
-5.43228e-06
0.000244141
1.6719e-06
0.000241536
7.90568e-06
0.000236957
1.37639e-05
0.000230808
1.84946e-05
0.000223285
2.25282e-05
0.000214688
2.58203e-05
0.000205241
2.82444e-05
0.000195128
3.03119e-05
0.000184369
3.21816e-05
0.000172938
3.42147e-05
0.000160912
3.60108e-05
0.000148137
3.8251e-05
0.000134662
4.03397e-05
0.00012047
4.24963e-05
0.000105575
4.4592e-05
9.01768e-05
4.60841e-05
7.44298e-05
4.71566e-05
5.85398e-05
4.76438e-05
4.26447e-05
4.76159e-05
2.70163e-05
4.68058e-05
1.18432e-05
4.55133e-05
-2.78026e-06
4.37892e-05
-1.65968e-05
4.1473e-05
-2.96326e-05
3.90224e-05
-4.16922e-05
3.61889e-05
-5.27832e-05
3.32702e-05
-6.28657e-05
3.03165e-05
-7.20208e-05
2.74115e-05
-8.01281e-05
2.43464e-05
-8.73972e-05
2.18067e-05
-9.3714e-05
1.89339e-05
-9.91478e-05
1.63021e-05
-0.000103736
1.38155e-05
-0.000107616
1.16601e-05
-0.000110755
9.3925e-06
-0.00011317
7.25457e-06
-0.000114931
5.25862e-06
-0.000116081
3.44109e-06
-0.000116639
1.71029e-06
-0.000116651
4.43954e-08
-0.0001161
-1.64227e-06
-0.000115017
-3.22475e-06
-0.000113459
-4.69214e-06
-0.000111378
-6.25826e-06
-0.000108799
-7.83431e-06
-0.000105724
-9.19616e-06
-0.000102123
-1.07407e-05
-9.80518e-05
-1.22073e-05
-9.35063e-05
-1.36907e-05
-8.84299e-05
-1.52438e-05
-8.28267e-05
-1.6766e-05
-7.66903e-05
-1.84051e-05
-6.9974e-05
-2.0156e-05
-6.26763e-05
-2.18931e-05
-5.47373e-05
-2.38336e-05
-4.62409e-05
-2.55054e-05
-3.70654e-05
-2.75212e-05
-2.71444e-05
-2.97137e-05
-1.65969e-05
-3.17117e-05
-5.28559e-06
-3.39042e-05
6.74386e-06
-3.60834e-05
1.95511e-05
-3.83806e-05
3.30242e-05
-4.04313e-05
4.71578e-05
-4.23969e-05
6.19503e-05
-4.4332e-05
7.72427e-05
-4.588e-05
9.30001e-05
-4.7216e-05
0.000109042
-4.81343e-05
0.000125243
-4.85637e-05
0.000141421
-4.84743e-05
0.000157408
-4.78926e-05
0.000172896
-4.64453e-05
0.000187748
-4.45078e-05
0.000201688
-4.17779e-05
0.000214473
-3.83055e-05
0.000225872
-3.41965e-05
0.000235653
-2.92543e-05
0.00024359
-2.37649e-05
0.000249523
-1.78061e-05
0.000253319
-1.12899e-05
0.000254775
-4.35638e-06
0.00025393
2.47947e-06
0.000250707
9.63021e-06
0.000245175
1.66229e-05
0.000237388
2.33511e-05
0.000227492
2.96578e-05
0.000215675
3.54095e-05
0.000202143
4.05371e-05
0.000187133
4.49708e-05
0.000170899
4.86078e-05
0.000153687
5.16134e-05
0.000135863
5.33628e-05
0.000117651
5.46264e-05
9.93748e-05
5.47806e-05
8.1249e-05
5.43205e-05
6.34423e-05
5.34165e-05
4.61261e-05
5.19086e-05
2.94304e-05
5.00262e-05
1.34387e-05
4.79916e-05
-1.69235e-06
4.53534e-05
-1.59111e-05
4.26728e-05
-2.91398e-05
3.96737e-05
-4.13668e-05
3.6695e-05
-5.25645e-05
3.35782e-05
-6.27451e-05
3.05495e-05
-7.19662e-05
2.75691e-05
-8.0225e-05
2.48372e-05
-8.75535e-05
2.20148e-05
-9.40909e-05
1.96119e-05
-9.97107e-05
1.6852e-05
-0.000104648
1.4838e-05
-0.000108741
1.22704e-05
-0.000112107
1.01533e-05
-0.00011486
8.25009e-06
-0.000116913
6.0562e-06
-0.000118385
4.49245e-06
-0.00011925
2.61932e-06
-0.000119602
1.0663e-06
-0.000119429
-5.14598e-07
-0.000118754
-2.04193e-06
-0.000117545
-3.65328e-06
-0.000115927
-4.82576e-06
-0.000113733
-6.59165e-06
-0.000110995
-8.20688e-06
-0.0001077
-9.90348e-06
-0.000103815
-1.16571e-05
-9.93086e-05
-1.35171e-05
-9.41655e-05
-1.54324e-05
-8.83435e-05
-1.74877e-05
-8.178e-05
-1.96415e-05
-7.4463e-05
-2.20196e-05
-6.63777e-05
-2.42313e-05
-5.74036e-05
-2.69134e-05
-4.7574e-05
-2.9538e-05
-3.68428e-05
-3.21903e-05
-2.50811e-05
-3.52851e-05
-1.25596e-05
-3.75845e-05
9.99742e-07
-4.06511e-05
1.53679e-05
-4.30878e-05
3.05781e-05
-4.55682e-05
4.643e-05
-4.7536e-05
6.29164e-05
-4.93908e-05
7.98355e-05
-5.07751e-05
9.70589e-05
-5.16248e-05
0.000114462
-5.21603e-05
0.000131802
-5.19101e-05
0.000148803
-5.10071e-05
0.000165254
-4.92968e-05
0.000180879
-4.68046e-05
0.000195321
-4.32721e-05
0.000208338
-3.90167e-05
0.00021964
-3.39317e-05
0.000229022
-2.79662e-05
0.000236152
-2.1392e-05
0.000240909
-1.42173e-05
0.000243131
-6.65643e-06
0.000242804
9.29274e-07
0.000239854
8.8338e-06
0.000234313
1.66413e-05
0.000226329
2.39161e-05
0.000216087
3.06777e-05
0.000203798
3.68066e-05
0.000189761
4.20162e-05
0.000174235
4.65091e-05
0.000157591
4.99224e-05
0.000140091
5.24801e-05
0.000122039
5.40355e-05
0.000103761
5.47741e-05
8.55345e-05
5.46938e-05
6.74257e-05
5.42016e-05
4.98267e-05
5.2676e-05
3.28358e-05
5.10356e-05
1.65927e-05
4.87136e-05
1.19555e-06
4.61985e-05
-1.33365e-05
4.36208e-05
-2.69785e-05
4.091e-05
-3.97162e-05
3.82114e-05
-5.15914e-05
3.55607e-05
-6.26261e-05
3.32265e-05
-7.28481e-05
3.07532e-05
-8.23901e-05
2.8544e-05
-9.11391e-05
2.63094e-05
-9.9169e-05
2.41312e-05
-0.000106456
2.18766e-05
-0.000112889
1.93212e-05
-0.000118509
1.68554e-05
-0.000123144
1.38989e-05
-0.000126865
1.11277e-05
-0.000129535
7.96416e-06
-0.000131209
5.03521e-06
-0.00013183
1.9196e-06
-0.000131442
-1.14448e-06
-0.000130198
-3.77976e-06
-0.000128125
-6.27322e-06
-0.000125023
-9.35221e-06
-0.000121101
-1.18206e-05
-0.000116546
-1.37252e-05
-0.000111142
-1.62605e-05
-0.000105073
-1.82554e-05
-9.82189e-05
-2.06047e-05
-9.04842e-05
-2.32099e-05
-8.21196e-05
-2.50967e-05
-7.3097e-05
-2.70728e-05
-6.32202e-05
-2.96058e-05
-5.28439e-05
-3.11013e-05
-4.17818e-05
-3.31597e-05
-3.0176e-05
-3.47847e-05
-1.80164e-05
-3.6459e-05
-5.27219e-06
-3.83697e-05
8.05189e-06
-3.98086e-05
2.25065e-05
-4.33058e-05
3.80264e-05
-4.65214e-05
5.43564e-05
-4.89524e-05
7.15892e-05
-5.16586e-05
8.9558e-05
-5.38725e-05
0.000107983
-5.52255e-05
0.000126818
-5.6467e-05
0.000145602
-5.63113e-05
0.000164155
-5.56185e-05
0.000182107
-5.38402e-05
0.000198955
-5.05307e-05
0.00021446
-4.64672e-05
0.000228347
-4.16085e-05
0.000240209
-3.55799e-05
0.00025001
-2.93746e-05
0.000257448
-2.22579e-05
0.000262506
-1.51128e-05
0.000265067
-7.6064e-06
0.000264964
3.41152e-07
0.000262467
7.52711e-06
0.000257631
1.45542e-05
0.000250426
2.16004e-05
0.000241284
2.73918e-05
0.0002302
3.32118e-05
0.000217569
3.78477e-05
0.000203515
4.21185e-05
0.000188167
4.59908e-05
0.00017197
4.8546e-05
0.000155039
5.07494e-05
0.000137535
5.24695e-05
0.000119793
5.31948e-05
0.000101981
5.33887e-05
8.43298e-05
5.29078e-05
6.68961e-05
5.22944e-05
4.97831e-05
5.13163e-05
3.31716e-05
4.98187e-05
1.7081e-05
4.82618e-05
1.74497e-06
4.59727e-05
-1.29789e-05
4.41567e-05
-2.69639e-05
4.19421e-05
-4.01558e-05
3.95645e-05
-5.25171e-05
3.70744e-05
-6.40488e-05
3.45912e-05
-7.4714e-05
3.20008e-05
-8.45127e-05
2.9399e-05
-9.34176e-05
2.67134e-05
-0.00010141
2.39755e-05
-0.00010849
2.12373e-05
-0.00011465
1.84775e-05
-0.000119896
1.57352e-05
-0.000124227
1.29904e-05
-0.000127641
1.02486e-05
-0.000130153
7.5416e-06
-0.000131774
4.86171e-06
-0.000132539
2.30314e-06
-0.000132393
-4.3067e-07
-0.000131344
-3.13855e-06
-0.000129411
-5.7946e-06
-0.000126645
-8.29398e-06
-0.000123031
-1.08375e-05
-0.000118624
-1.32164e-05
-0.000113436
-1.55629e-05
-0.00010741
-1.80763e-05
-0.000100615
-2.03831e-05
-2.27105e-05
0.000226743
-4.95523e-05
0.000237601
-4.31841e-05
0.000246503
-3.53925e-05
0.000253251
-2.68189e-05
0.000257791
-1.80244e-05
0.000260014
-8.82825e-06
0.000259812
5.47353e-07
0.000257211
1.00744e-05
0.000252153
2.01609e-05
0.000244901
2.89609e-05
0.000235532
3.73531e-05
0.000224078
4.5707e-05
0.000210923
5.24945e-05
0.000196186
5.88101e-05
0.000180257
6.35772e-05
0.000163295
6.77033e-05
0.000145488
7.1085e-05
0.000127235
7.28763e-05
0.000108711
7.39654e-05
9.00935e-05
7.42748e-05
7.16948e-05
7.34912e-05
5.36549e-05
7.20735e-05
3.61362e-05
6.99779e-05
1.92975e-05
6.72454e-05
3.30252e-06
6.41261e-05
-1.21198e-05
6.15727e-05
-2.65741e-05
5.7807e-05
-4.00723e-05
5.3977e-05
-5.2578e-05
5.00143e-05
-6.41098e-05
4.61242e-05
-7.46663e-05
4.2211e-05
-8.42549e-05
3.83685e-05
-9.28976e-05
3.45731e-05
-0.000100617
3.08791e-05
-0.000107468
2.74045e-05
-0.000113469
2.39949e-05
-0.000118622
2.06489e-05
-0.000123018
1.75842e-05
-0.000126666
1.45909e-05
-0.000129571
1.16056e-05
-0.000131781
8.85156e-06
-0.000133323
6.16646e-06
-0.000134204
3.55863e-06
-0.00013447
1.14962e-06
-0.00013404
-1.63995e-06
-0.000132987
-4.21464e-06
-0.000131344
-6.57947e-06
-0.000129034
-9.20076e-06
-0.000126045
-1.20529e-05
-0.000122463
-1.43167e-05
-0.000118118
-1.73869e-05
-0.000113142
-1.99082e-05
-0.000107329
-2.32351e-05
-0.000100765
-2.64214e-05
-9.34822e-05
-2.9046e-05
-8.53717e-05
-3.24692e-05
-7.63849e-05
-3.59393e-05
-6.67126e-05
-3.87717e-05
-5.61005e-05
-4.22524e-05
-4.47946e-05
-4.52867e-05
-3.25797e-05
-4.88594e-05
-1.9534e-05
-5.21604e-05
-5.86417e-06
-5.46647e-05
8.56395e-06
-5.77111e-05
2.36532e-05
-6.03307e-05
3.91835e-05
-6.20921e-05
5.52498e-05
-6.42243e-05
7.16431e-05
-6.55307e-05
8.83347e-05
-6.67233e-05
0.000105218
-6.74801e-05
0.000122094
-6.74358e-05
0.000138764
-6.66245e-05
0.000155141
-6.54269e-05
0.000170868
-6.28341e-05
0.000185805
-5.9676e-05
0.000199608
-5.51489e-05
0.000212052
-4.97023e-05
0.000222906
-4.33155e-05
0.000231839
-3.55991e-05
0.000238613
-2.68207e-05
0.000243086
-1.74851e-05
0.000245033
-7.37902e-06
0.000244496
2.20818e-06
0.000241933
1.04693e-05
0.000237373
1.8324e-05
0.000231246
2.46216e-05
0.000223709
3.00654e-05
0.000215119
3.44104e-05
0.00020564
3.7724e-05
0.000195492
4.046e-05
0.00018468
4.29934e-05
0.000173207
4.56883e-05
0.000161139
4.80786e-05
0.000148312
5.10783e-05
0.000134783
5.38688e-05
0.000120534
5.67454e-05
0.000105602
5.95244e-05
9.01485e-05
6.15374e-05
7.436e-05
6.29451e-05
5.84655e-05
6.35383e-05
4.25199e-05
6.35615e-05
2.6844e-05
6.24817e-05
1.15966e-05
6.07607e-05
-3.01749e-06
5.84033e-05
-1.68508e-05
5.53063e-05
-2.98868e-05
5.20584e-05
-4.19188e-05
4.82208e-05
-5.30433e-05
4.43947e-05