/*--------------------------------*- C++ -*----------------------------------*\
| =========                 |                                                 |
| \\      /  F ield         | OpenFOAM: The Open Source CFD Toolbox           |
|  \\    /   O peration     | Version:  3.0.1                                 |
|   \\  /    A nd           | Web:      www.OpenFOAM.org                      |
|    \\/     M anipulation  |                                                 |
\*---------------------------------------------------------------------------*/
FoamFile
{
    version     2.0;
    format      ascii;
    class       volVectorField;
    location    "40.8";
    object      U;
}
// * * * * * * * * * * * * * * * * * * * * * * * * * * * * * * * * * * * * * //

dimensions      [0 1 -1 0 0 0 0];

internalField   nonuniform List<vector> 
21420
(
(0.215416 -0.00129273 0)
(0.226075 -0.00113479 0)
(0.236531 -0.000940108 0)
(0.245003 -0.000731743 0)
(0.251316 -0.000514819 0)
(0.25538 -0.000284364 0)
(0.257104 -5.20469e-05 0)
(0.25648 0.000181046 0)
(0.253452 0.000416861 0)
(0.248079 0.000641274 0)
(0.240513 0.000857188 0)
(0.230863 0.00106198 0)
(0.219306 0.00123006 0)
(0.206049 0.00139593 0)
(0.191319 0.00151293 0)
(0.175366 0.0016312 0)
(0.158438 0.0017275 0)
(0.140791 0.00176528 0)
(0.122683 0.00181077 0)
(0.104345 0.00183381 0)
(0.0859967 0.00180455 0)
(0.067839 0.00178607 0)
(0.0500307 0.00174987 0)
(0.0326702 0.00167484 0)
(0.0157265 0.00160938 0)
(-3.49154e-05 0.00152249 0)
(-0.0146629 0.00144191 0)
(-0.0287176 0.00135613 0)
(-0.0418582 0.00125515 0)
(-0.0540543 0.0011639 0)
(-0.0652927 0.00107068 0)
(-0.0755724 0.000971551 0)
(-0.0849054 0.000880298 0)
(-0.0933103 0.000786848 0)
(-0.100814 0.000700205 0)
(-0.107447 0.000615815 0)
(-0.113239 0.000532831 0)
(-0.118225 0.000454854 0)
(-0.122438 0.000379587 0)
(-0.125909 0.000306484 0)
(-0.128671 0.000236611 0)
(-0.130756 0.000168827 0)
(-0.132168 0.000105271 0)
(-0.132912 4.50818e-05 0)
(-0.133042 -1.97576e-05 0)
(-0.132546 -8.37325e-05 0)
(-0.131417 -0.000145766 0)
(-0.129646 -0.000209855 0)
(-0.127248 -0.000274396 0)
(-0.124201 -0.000337053 0)
(-0.120469 -0.000407531 0)
(-0.116046 -0.000474656 0)
(-0.110896 -0.000552082 0)
(-0.104999 -0.000625372 0)
(-0.0983647 -0.000696035 0)
(-0.0909261 -0.000784627 0)
(-0.0826496 -0.000861341 0)
(-0.0735766 -0.000937728 0)
(-0.0636679 -0.00102744 0)
(-0.0529354 -0.00110624 0)
(-0.0413883 -0.00119983 0)
(-0.0289751 -0.00127721 0)
(-0.0158429 -0.00134275 0)
(-0.0018057 -0.00142826 0)
(0.0130958 -0.00149293 0)
(0.0284821 -0.00154034 0)
(0.04437 -0.00160141 0)
(0.0607489 -0.00163868 0)
(0.0774698 -0.00167636 0)
(0.0944697 -0.00169741 0)
(0.111618 -0.00170022 0)
(0.128687 -0.00168592 0)
(0.145532 -0.00166037 0)
(0.161933 -0.00159928 0)
(0.177595 -0.00152743 0)
(0.192287 -0.00141268 0)
(0.205662 -0.00127454 0)
(0.217455 -0.00111817 0)
(0.227386 -0.000918378 0)
(0.235082 -0.000697658 0)
(0.240359 -0.000467246 0)
(0.242861 -0.000219451 0)
(0.242897 2.10441e-05 0)
(0.240877 0.000238527 0)
(0.237153 0.0004407 0)
(0.231964 0.00060277 0)
(0.225455 0.000733466 0)
(0.217906 0.000846302 0)
(0.209518 0.00092373 0)
(0.200448 0.000992155 0)
(0.190659 0.00104821 0)
(0.18039 0.00111406 0)
(0.1693 0.00117278 0)
(0.157465 0.00124397 0)
(0.144851 0.00131397 0)
(0.131311 0.00138935 0)
(0.117146 0.00146319 0)
(0.102244 0.00151699 0)
(0.086768 0.00155713 0)
(0.0709436 0.0015779 0)
(0.0549922 0.00158213 0)
(0.0391502 0.00155829 0)
(0.023603 0.00152138 0)
(0.00855058 0.00146422 0)
(-0.00583193 0.00139188 0)
(-0.0194372 0.00131009 0)
(-0.0321806 0.00122249 0)
(-0.0440062 0.00112573 0)
(-0.0548512 0.00102905 0)
(-0.0647192 0.000929807 0)
(-0.0736187 0.000829784 0)
(-0.0815244 0.000744322 0)
(-0.0884975 0.000646915 0)
(-0.0946222 0.00056 0)
(-0.0998963 0.000479368 0)
(-0.104334 0.000406273 0)
(-0.108001 0.000331263 0)
(-0.110959 0.000259068 0)
(-0.113227 0.000190222 0)
(-0.114856 0.000131347 0)
(-0.115864 7.44928e-05 0)
(-0.116308 1.93736e-05 0)
(-0.116193 -3.92001e-05 0)
(-0.115544 -9.19151e-05 0)
(-0.114386 -0.0001405 0)
(-0.112696 -0.000193714 0)
(-0.110526 -0.000248529 0)
(-0.107874 -0.000285325 0)
(-0.104703 -0.000336614 0)
(-0.101037 -0.000389543 0)
(-0.0968654 -0.000440242 0)
(-0.0921642 -0.000489552 0)
(-0.0869442 -0.000536951 0)
(-0.081211 -0.000589442 0)
(-0.0749499 -0.000649901 0)
(-0.0681116 -0.000709636 0)
(-0.0607119 -0.000766773 0)
(-0.0526641 -0.000826082 0)
(-0.0439455 -0.000894211 0)
(-0.0346221 -0.00095801 0)
(-0.0245885 -0.00102923 0)
(-0.0138158 -0.00109786 0)
(-0.00232392 -0.00117324 0)
(0.00988452 -0.00124583 0)
(0.0228257 -0.00131863 0)
(0.0364781 -0.00138475 0)
(0.0507441 -0.00144707 0)
(0.0656189 -0.00150274 0)
(0.081008 -0.00154744 0)
(0.096793 -0.00158439 0)
(0.112872 -0.00160007 0)
(0.129057 -0.00160086 0)
(0.145141 -0.00158603 0)
(0.160964 -0.00154723 0)
(0.176294 -0.00148505 0)
(0.190878 -0.00141116 0)
(0.204538 -0.00129967 0)
(0.216977 -0.00116718 0)
(0.227985 -0.00101251 0)
(0.237325 -0.000833899 0)
(0.244779 -0.000640328 0)
(0.250172 -0.000429807 0)
(0.253392 -0.000208818 0)
(0.254324 2.24195e-05 0)
(0.252951 0.00025025 0)
(0.249122 0.000491061 0)
(0.243067 0.000710617 0)
(0.23479 0.000926236 0)
(0.224452 0.00111926 0)
(0.212272 0.00129497 0)
(0.198433 0.00144803 0)
(0.183144 0.00157783 0)
(0.166715 0.00168084 0)
(0.149395 0.00174795 0)
(0.131521 0.00179616 0)
(0.113398 0.00180985 0)
(0.095209 0.00179698 0)
(0.07721 0.00177596 0)
(0.0595468 0.00172794 0)
(0.0423754 0.00167204 0)
(0.0258668 0.0016097 0)
(0.010108 0.00151988 0)
(-0.00478513 0.00143485 0)
(-0.0187406 0.00133721 0)
(-0.0317224 0.00124294 0)
(-0.0436703 0.00113872 0)
(-0.0546243 0.00103514 0)
(-0.0645777 0.00093537 0)
(-0.0735478 0.000848128 0)
(-0.0816201 0.000752565 0)
(-0.088779 0.000670612 0)
(-0.0951 0.000578534 0)
(-0.100578 0.000511253 0)
(-0.105268 0.000425423 0)
(-0.109272 0.00035681 0)
(-0.11251 0.000291222 0)
(-0.115086 0.000219292 0)
(-0.117022 0.000164164 0)
(-0.11834 0.000102958 0)
(-0.119112 5.22415e-05 0)
(-0.11935 1.74638e-06 0)
(-0.119094 -5.23383e-05 0)
(-0.118371 -0.000104962 0)
(-0.117089 -0.000141339 0)
(-0.115287 -0.000202763 0)
(-0.113003 -0.000255181 0)
(-0.110144 -0.000309993 0)
(-0.106724 -0.000370475 0)
(-0.102694 -0.000427796 0)
(-0.0980488 -0.000491234 0)
(-0.092738 -0.000556807 0)
(-0.0867725 -0.000628578 0)
(-0.0800413 -0.000704687 0)
(-0.0725247 -0.00077831 0)
(-0.0642289 -0.000865984 0)
(-0.0550512 -0.000955782 0)
(-0.0449752 -0.00104034 0)
(-0.034032 -0.00114073 0)
(-0.0221172 -0.00122005 0)
(-0.00921718 -0.00132141 0)
(0.00456294 -0.00140687 0)
(0.0191687 -0.0014822 0)
(0.0345008 -0.00155226 0)
(0.05049 -0.00161782 0)
(0.0670379 -0.0016706 0)
(0.0840419 -0.0016952 0)
(0.10128 -0.00172029 0)
(0.118613 -0.00171991 0)
(0.135866 -0.00169687 0)
(0.152751 -0.00164746 0)
(0.168997 -0.001573 0)
(0.18431 -0.0014594 0)
(0.198388 -0.00133011 0)
(0.210982 -0.00117116 0)
(0.221812 -0.000977574 0)
(0.230645 -0.000764842 0)
(0.237212 -0.000534137 0)
(0.241364 -0.000288899 0)
(0.242961 -3.70141e-05 0)
(0.242062 0.000220221 0)
(0.238441 0.000484469 0)
(0.232317 0.000727537 0)
(0.223823 0.000956004 0)
(0.213115 0.00116771 0)
(0.20044 0.00133883 0)
(0.186069 0.00149808 0)
(0.170309 0.00162327 0)
(0.153493 0.00171448 0)
(0.135896 0.00177239 0)
(0.11788 0.00180584 0)
(0.0996495 0.00181241 0)
(0.0814578 0.00179416 0)
(0.0635521 0.00175457 0)
(0.0461116 0.00170749 0)
(0.0293226 0.00163086 0)
(0.0132844 0.00155307 0)
(-0.00191072 0.00146961 0)
(-0.016242 0.00137875 0)
(-0.0296924 0.00129137 0)
(-0.0422813 0.00120306 0)
(-0.0540169 0.00112832 0)
(-0.0649472 0.00104599 0)
(-0.075023 0.000968092 0)
(-0.0843043 0.000894574 0)
(-0.0928536 0.000819233 0)
(-0.100493 0.000742986 0)
(-0.107308 0.000655199 0)
(-0.113191 0.000570853 0)
(-0.11814 0.000473886 0)
(-0.122131 0.000378441 0)
(-0.125066 0.000272826 0)
(-0.126845 0.000177833 0)
(-0.127574 8.07416e-05 0)
(-0.127285 -2.70099e-05 0)
(-0.126041 -0.000119678 0)
(-0.124107 -0.000201118 0)
(-0.121274 -0.00028444 0)
(-0.117409 -0.000355786 0)
(-0.113096 -0.00041151 0)
(-0.108066 -0.000486303 0)
(-0.102327 -0.000542383 0)
(-0.0961152 -0.000610222 0)
(-0.0890986 -0.000684889 0)
(-0.0814013 -0.000739113 0)
(-0.0734107 -0.000793675 0)
(-0.0645775 -0.000867668 0)
(-0.055285 -0.000911539 0)
(-0.0456199 -0.000972774 0)
(-0.0353876 -0.0010231 0)
(-0.0252233 -0.0010763 0)
(-0.0146082 -0.0011405 0)
(-0.00134883 -0.00117196 0)
(0.0140303 -0.00131135 0)
(0.0297824 -0.0014099 0)
(0.0461342 -0.00149709 0)
(0.0630296 -0.00158814 0)
(0.0806517 -0.00167732 0)
(0.0987053 -0.00172873 0)
(0.117098 -0.00178208 0)
(0.135663 -0.00179282 0)
(0.154074 -0.0017939 0)
(0.17213 -0.00174994 0)
(0.189452 -0.00166245 0)
(0.205685 -0.00155215 0)
(0.220566 -0.00140559 0)
(0.233785 -0.00122399 0)
(0.24507 -0.00102749 0)
(0.254221 -0.000801881 0)
(0.261049 -0.000565513 0)
(0.26544 -0.000319049 0)
(0.26738 -5.9569e-05 0)
(0.266937 0.000181914 0)
(0.263918 0.000426108 0)
(0.258484 0.000660014 0)
(0.250831 0.00085916 0)
(0.241144 0.00105953 0)
(0.229624 0.00121657 0)
(0.216514 0.00137073 0)
(0.202013 0.00150819 0)
(0.186364 0.00159113 0)
(0.16984 0.00167649 0)
(0.152644 0.00174293 0)
(0.135004 0.00175725 0)
(0.117138 0.00178085 0)
(0.0992356 0.0017594 0)
(0.0814622 0.00174789 0)
(0.0639423 0.001723 0)
(0.0467847 0.00166392 0)
(0.030064 0.00161889 0)
(0.01384 0.00156237 0)
(-0.00130819 0.00147472 0)
(-0.0155428 0.00141071 0)
(-0.0293158 0.00133924 0)
(-0.042329 0.00125149 0)
(-0.0545314 0.00117247 0)
(-0.0658936 0.00108184 0)
(-0.0763949 0.000998723 0)
(-0.0860193 0.000912952 0)
(-0.094752 0.000820416 0)
(-0.102583 0.000732252 0)
(-0.109505 0.000642466 0)
(-0.115511 0.000549701 0)
(-0.120599 0.000459226 0)
(-0.12477 0.000367725 0)
(-0.128029 0.000278002 0)
(-0.130391 0.000188069 0)
(-0.13184 0.000100018 0)
(-0.132442 1.4091e-05 0)
(-0.13219 -7.11368e-05 0)
(-0.131065 -0.00015508 0)
(-0.129101 -0.000236937 0)
(-0.126315 -0.000318056 0)
(-0.12272 -0.00039693 0)
(-0.11833 -0.000474192 0)
(-0.113158 -0.000552819 0)
(-0.107209 -0.000627942 0)
(-0.0994424 -0.000702077 0)
(0.21548 -0.00387909 0)
(0.226146 -0.00340524 0)
(0.236609 -0.00282107 0)
(0.245086 -0.00219586 0)
(0.251405 -0.00154501 0)
(0.25547 -0.000853822 0)
(0.257198 -0.000155237 0)
(0.256577 0.000543585 0)
(0.253541 0.001251 0)
(0.248166 0.0019242 0)
(0.240596 0.00257214 0)
(0.230939 0.00318665 0)
(0.219373 0.00369099 0)
(0.206108 0.00418869 0)
(0.191368 0.00453972 0)
(0.175406 0.00489458 0)
(0.158467 0.00518348 0)
(0.140811 0.00529679 0)
(0.122694 0.00543323 0)
(0.104347 0.00550229 0)
(0.0859907 0.0054144 0)
(0.067826 0.00535885 0)
(0.0500112 0.00525017 0)
(0.0326456 0.00502516 0)
(0.0156986 0.00482828 0)
(-6.50519e-05 0.00456789 0)
(-0.0146964 0.00432584 0)
(-0.0287526 0.00406853 0)
(-0.0418936 0.00376558 0)
(-0.0540905 0.00349175 0)
(-0.065329 0.00321202 0)
(-0.075608 0.00291461 0)
(-0.0849404 0.0026409 0)
(-0.0933442 0.00236053 0)
(-0.100847 0.00210054 0)
(-0.107479 0.0018474 0)
(-0.11327 0.00159847 0)
(-0.118254 0.00136455 0)
(-0.122466 0.00113865 0)
(-0.125937 0.000919563 0)
(-0.128697 0.000710519 0)
(-0.130781 0.000507059 0)
(-0.132194 0.000314642 0)
(-0.132937 0.000135259 0)
(-0.133068 -5.92855e-05 0)
(-0.132572 -0.000250952 0)
(-0.131443 -0.000437092 0)
(-0.129673 -0.000629164 0)
(-0.127276 -0.000822199 0)
(-0.124231 -0.00101092 0)
(-0.120501 -0.00122229 0)
(-0.11608 -0.00142371 0)
(-0.110932 -0.00165607 0)
(-0.105037 -0.0018751 0)
(-0.0984044 -0.00208792 0)
(-0.0909692 -0.00235383 0)
(-0.0826947 -0.00258384 0)
(-0.0736224 -0.00281249 0)
(-0.0637159 -0.003083 0)
(-0.0529853 -0.0033186 0)
(-0.0414376 -0.00359967 0)
(-0.0290255 -0.00383273 0)
(-0.0158918 -0.00402949 0)
(-0.00185175 -0.00428338 0)
(0.013053 -0.00447699 0)
(0.0284403 -0.00462336 0)
(0.0443341 -0.00480556 0)
(0.0607207 -0.00491485 0)
(0.0774449 -0.00502907 0)
(0.0944512 -0.00509427 0)
(0.11161 -0.00510277 0)
(0.128689 -0.00506632 0)
(0.145549 -0.00498041 0)
(0.161959 -0.00480072 0)
(0.177636 -0.00457466 0)
(0.192338 -0.00424115 0)
(0.205724 -0.00383564 0)
(0.217548 -0.00334547 0)
(0.227485 -0.0027605 0)
(0.2352 -0.00209907 0)
(0.240501 -0.00139732 0)
(0.24302 -0.000657357 0)
(0.243056 6.19772e-05 0)
(0.241038 0.000714612 0)
(0.237336 0.00131705 0)
(0.232154 0.00180194 0)
(0.225655 0.00220478 0)
(0.218092 0.00253555 0)
(0.209693 0.00276807 0)
(0.200618 0.00297331 0)
(0.190814 0.00314617 0)
(0.180523 0.00334202 0)
(0.169416 0.00351532 0)
(0.157569 0.00373621 0)
(0.144935 0.00394641 0)
(0.131372 0.00416646 0)
(0.117187 0.00438579 0)
(0.102265 0.00454898 0)
(0.086771 0.00467347 0)
(0.07093 0.00473729 0)
(0.0549613 0.00474366 0)
(0.0391131 0.00467511 0)
(0.0235565 0.00456314 0)
(0.00849134 0.00439128 0)
(-0.00589952 0.00417573 0)
(-0.0195132 0.00393216 0)
(-0.0322677 0.00365961 0)
(-0.0440851 0.00337365 0)
(-0.0549229 0.00308344 0)
(-0.0647829 0.00278758 0)
(-0.0736787 0.00248909 0)
(-0.0815893 0.00223336 0)
(-0.0885649 0.00194674 0)
(-0.094687 0.00168356 0)
(-0.0999554 0.00143525 0)
(-0.104388 0.00121763 0)
(-0.108054 0.000986383 0)
(-0.111009 0.000775996 0)
(-0.11328 0.000573879 0)
(-0.114918 0.000390412 0)
(-0.115925 0.000222513 0)
(-0.116368 5.24011e-05 0)
(-0.116248 -0.000114699 0)
(-0.115598 -0.000267612 0)
(-0.114446 -0.00042209 0)
(-0.112752 -0.000573297 0)
(-0.110588 -0.000738133 0)
(-0.107941 -0.000867406 0)
(-0.104776 -0.00101596 0)
(-0.101107 -0.00116693 0)
(-0.0969313 -0.00131138 0)
(-0.0922426 -0.00146643 0)
(-0.0870206 -0.00161357 0)
(-0.081296 -0.00177739 0)
(-0.0750354 -0.0019471 0)
(-0.0682012 -0.0021193 0)
(-0.0608094 -0.00231361 0)
(-0.0527584 -0.00247059 0)
(-0.0440495 -0.00267237 0)
(-0.0347341 -0.00288823 0)
(-0.0246937 -0.00308854 0)
(-0.0139312 -0.00330081 0)
(-0.00243212 -0.00351608 0)
(0.00978324 -0.00374443 0)
(0.0227297 -0.00394761 0)
(0.036379 -0.00415006 0)
(0.050647 -0.00434546 0)
(0.0655298 -0.00451078 0)
(0.0809219 -0.00464518 0)
(0.0967097 -0.00475112 0)
(0.112793 -0.0048069 0)
(0.128988 -0.00480944 0)
(0.145084 -0.00476877 0)
(0.16092 -0.0046492 0)
(0.176263 -0.00447176 0)
(0.190878 -0.0042149 0)
(0.204537 -0.00389438 0)
(0.216985 -0.00351127 0)
(0.22801 -0.00302928 0)
(0.237354 -0.00250835 0)
(0.244809 -0.00193686 0)
(0.250226 -0.00128768 0)
(0.25345 -0.000611854 0)
(0.254375 4.98658e-05 0)
(0.253004 0.000758446 0)
(0.249175 0.00146385 0)
(0.243133 0.00214378 0)
(0.234844 0.00277255 0)
(0.224507 0.00336195 0)
(0.212319 0.00388497 0)
(0.198464 0.00434542 0)
(0.183166 0.00472045 0)
(0.166731 0.00504933 0)
(0.149392 0.00523961 0)
(0.131509 0.00539254 0)
(0.113371 0.0054231 0)
(0.0951812 0.00539889 0)
(0.0771713 0.00532615 0)
(0.0595053 0.00518926 0)
(0.0423309 0.00500933 0)
(0.0258178 0.00482477 0)
(0.0100569 0.00456566 0)
(-0.00483952 0.0043072 0)
(-0.0188036 0.00400991 0)
(-0.0317881 0.00371508 0)
(-0.0437309 0.00340444 0)
(-0.0546791 0.00310926 0)
(-0.0646366 0.00280444 0)
(-0.0736154 0.00254291 0)
(-0.0816845 0.00225507 0)
(-0.0888427 0.00201512 0)
(-0.0951583 0.00173747 0)
(-0.100636 0.00153586 0)
(-0.10533 0.00127905 0)
(-0.109332 0.00106864 0)
(-0.112573 0.000874937 0)
(-0.115152 0.000646923 0)
(-0.117081 0.000505355 0)
(-0.118406 0.000312427 0)
(-0.119182 0.000155971 0)
(-0.119427 -2.18094e-06 0)
(-0.119168 -0.000155668 0)
(-0.118448 -0.000312896 0)
(-0.117177 -0.000429339 0)
(-0.115371 -0.000604589 0)
(-0.113084 -0.000761326 0)
(-0.110234 -0.000932382 0)
(-0.106815 -0.0011027 0)
(-0.102793 -0.0012867 0)
(-0.0981534 -0.00147423 0)
(-0.0928459 -0.00167477 0)
(-0.086879 -0.00188187 0)
(-0.0801592 -0.00212721 0)
(-0.0726256 -0.00233239 0)
(-0.0643447 -0.00260097 0)
(-0.0551635 -0.00285919 0)
(-0.0450892 -0.00312408 0)
(-0.0341569 -0.00343061 0)
(-0.0222335 -0.00366033 0)
(-0.0093282 -0.00395802 0)
(0.00445558 -0.00421006 0)
(0.0190557 -0.00445921 0)
(0.034403 -0.00466125 0)
(0.0504016 -0.00484868 0)
(0.0669522 -0.00500549 0)
(0.0839509 -0.00510487 0)
(0.101211 -0.00516957 0)
(0.118567 -0.00515392 0)
(0.13583 -0.00509133 0)
(0.152725 -0.00494125 0)
(0.168983 -0.00471295 0)
(0.1843 -0.00439504 0)
(0.198403 -0.00399157 0)
(0.211009 -0.00351035 0)
(0.221849 -0.00292733 0)
(0.230684 -0.00230509 0)
(0.237274 -0.00160348 0)
(0.241433 -0.000860977 0)
(0.243027 -0.000121223 0)
(0.242125 0.000661635 0)
(0.238501 0.00144624 0)
(0.232384 0.00218138 0)
(0.223876 0.00286522 0)
(0.21316 0.00348793 0)
(0.200489 0.00403154 0)
(0.186106 0.00450041 0)
(0.170331 0.00486874 0)
(0.153501 0.00514309 0)
(0.135895 0.00531548 0)
(0.117867 0.00541369 0)
(0.099629 0.00543505 0)
(0.0814228 0.00539473 0)
(0.0635062 0.00525715 0)
(0.046064 0.0051189 0)
(0.0292708 0.00489811 0)
(0.0132303 0.00465785 0)
(-0.00196278 0.00440251 0)
(-0.0162881 0.00413805 0)
(-0.029742 0.00387389 0)
(-0.0423303 0.0036097 0)
(-0.0540617 0.00338942 0)
(-0.0649986 0.00313132 0)
(-0.0750673 0.00289949 0)
(-0.0843393 0.00268569 0)
(-0.0928821 0.00246036 0)
(-0.100518 0.00222994 0)
(-0.107331 0.00196792 0)
(-0.113222 0.00171774 0)
(-0.118173 0.00141778 0)
(-0.122162 0.00114151 0)
(-0.125102 0.000821589 0)
(-0.126887 0.000537942 0)
(-0.127623 0.000241197 0)
(-0.127337 -8.1355e-05 0)
(-0.126106 -0.000355187 0)
(-0.124182 -0.000597408 0)
(-0.121359 -0.000851901 0)
(-0.117506 -0.00106688 0)
(-0.113204 -0.00123216 0)
(-0.108185 -0.00145482 0)
(-0.102455 -0.00162659 0)
(-0.0962509 -0.00183011 0)
(-0.089239 -0.00205348 0)
(-0.0815368 -0.00221227 0)
(-0.0735527 -0.00238484 0)
(-0.0647147 -0.00260328 0)
(-0.0554115 -0.00273337 0)
(-0.0457441 -0.00291968 0)
(-0.0355031 -0.00306969 0)
(-0.0253313 -0.00323201 0)
(-0.0147036 -0.00341681 0)
(-0.00145169 -0.00352203 0)
(0.0139258 -0.00393032 0)
(0.0296896 -0.00423648 0)
(0.0460547 -0.00448174 0)
(0.0629597 -0.00478164 0)
(0.0805896 -0.00501403 0)
(0.098659 -0.00518923 0)
(0.117067 -0.00536537 0)
(0.135645 -0.00539367 0)
(0.154072 -0.00539037 0)
(0.172144 -0.00525448 0)
(0.189485 -0.00498534 0)
(0.20573 -0.00466015 0)
(0.220629 -0.00421672 0)
(0.23386 -0.00367253 0)
(0.245155 -0.00307972 0)
(0.254311 -0.00240892 0)
(0.261145 -0.00170157 0)
(0.265552 -0.000953674 0)
(0.267491 -0.000179976 0)
(0.267035 0.000545314 0)
(0.264007 0.00127786 0)
(0.258575 0.00197987 0)
(0.250916 0.00257795 0)
(0.241222 0.0031793 0)
(0.229692 0.00365047 0)
(0.216574 0.00411304 0)
(0.202063 0.00452549 0)
(0.186404 0.00477427 0)
(0.169871 0.00503035 0)
(0.152666 0.00522967 0)
(0.135017 0.00527251 0)
(0.117144 0.00534326 0)
(0.0992342 0.0052788 0)
(0.0814546 0.00524427 0)
(0.0639294 0.00516948 0)
(0.0467682 0.0049921 0)
(0.0300434 0.00485691 0)
(0.0138141 0.00468784 0)
(-0.00133526 0.00442384 0)
(-0.01557 0.00423239 0)
(-0.0293455 0.00401794 0)
(-0.0423598 0.00375462 0)
(-0.0545636 0.00351754 0)
(-0.0659263 0.00324563 0)
(-0.0764285 0.00299625 0)
(-0.0860538 0.00273894 0)
(-0.0947868 0.00246132 0)
(-0.102619 0.00219681 0)
(-0.109541 0.00192743 0)
(-0.115547 0.00164916 0)
(-0.120635 0.00137773 0)
(-0.124806 0.00110317 0)
(-0.128064 0.000833948 0)
(-0.130425 0.000564278 0)
(-0.131876 0.000299843 0)
(-0.132477 4.2579e-05 0)
(-0.132224 -0.00021347 0)
(-0.131098 -0.000465307 0)
(-0.129133 -0.000710861 0)
(-0.126347 -0.000954215 0)
(-0.122752 -0.00119083 0)
(-0.118361 -0.0014226 0)
(-0.113189 -0.00165848 0)
(-0.107239 -0.00188384 0)
(-0.0994723 -0.00210625 0)
(0.215607 -0.00646808 0)
(0.22629 -0.00567813 0)
(0.236767 -0.00470408 0)
(0.245255 -0.00366167 0)
(0.251585 -0.00257654 0)
(0.255651 -0.00142306 0)
(0.257387 -0.000255308 0)
(0.256768 0.000903552 0)
(0.253718 0.00208647 0)
(0.24834 0.00320841 0)
(0.24076 0.00428896 0)
(0.231091 0.0053136 0)
(0.219506 0.00615444 0)
(0.206224 0.00698426 0)
(0.191463 0.00756939 0)
(0.175482 0.00816095 0)
(0.158524 0.00864251 0)
(0.140847 0.00883115 0)
(0.122711 0.00905841 0)
(0.104346 0.00917331 0)
(0.0859748 0.00902643 0)
(0.0677959 0.0089335 0)
(0.0499683 0.0087521 0)
(0.0325925 0.00837724 0)
(0.0156388 0.00804727 0)
(-0.000129254 0.00761474 0)
(-0.0147672 0.00721017 0)
(-0.0288264 0.00678126 0)
(-0.0419685 0.00627619 0)
(-0.0541665 0.00581958 0)
(-0.0654053 0.00535318 0)
(-0.0756826 0.00485749 0)
(-0.0850138 0.00440123 0)
(-0.093415 0.0039339 0)
(-0.100916 0.00350045 0)
(-0.107545 0.00307858 0)
(-0.113333 0.00266378 0)
(-0.118315 0.00227388 0)
(-0.122525 0.0018976 0)
(-0.125992 0.00153265 0)
(-0.128751 0.00118421 0)
(-0.130832 0.000845316 0)
(-0.132246 0.000524336 0)
(-0.13299 0.000224501 0)
(-0.133118 -9.97571e-05 0)
(-0.132622 -0.000418152 0)
(-0.131493 -0.000728331 0)
(-0.129725 -0.00104808 0)
(-0.127328 -0.00136872 0)
(-0.124282 -0.0016845 0)
(-0.120555 -0.00203675 0)
(-0.116136 -0.00237253 0)
(-0.110992 -0.00275995 0)
(-0.105097 -0.00312328 0)
(-0.0984654 -0.0034801 0)
(-0.0910333 -0.00392258 0)
(-0.0827599 -0.00430623 0)
(-0.0736859 -0.00468652 0)
(-0.0637807 -0.00514124 0)
(-0.0530515 -0.00553105 0)
(-0.0415018 -0.00599974 0)
(-0.0290872 -0.00638717 0)
(-0.0159511 -0.00671567 0)
(-0.00190758 -0.00714067 0)
(0.0130023 -0.00746321 0)
(0.0283963 -0.00770445 0)
(0.0442955 -0.00801123 0)
(0.0606894 -0.00819295 0)
(0.0774213 -0.00838147 0)
(0.0944359 -0.00848966 0)
(0.111607 -0.00850559 0)
(0.128701 -0.00844361 0)
(0.14557 -0.00831022 0)
(0.162006 -0.00800326 0)
(0.177699 -0.0076326 0)
(0.192429 -0.00706241 0)
(0.205836 -0.00639007 0)
(0.217684 -0.0055861 0)
(0.227653 -0.004602 0)
(0.235391 -0.00350378 0)
(0.24072 -0.00234006 0)
(0.24327 -0.00110624 0)
(0.243296 9.81e-05 0)
(0.241286 0.00118673 0)
(0.237623 0.00219503 0)
(0.232444 0.00300252 0)
(0.225952 0.00367594 0)
(0.218384 0.00423226 0)
(0.209967 0.0046213 0)
(0.20087 0.00495903 0)
(0.191044 0.00525257 0)
(0.180723 0.00557855 0)
(0.169588 0.0058663 0)
(0.157713 0.00623166 0)
(0.14505 0.00658473 0)
(0.131455 0.00695519 0)
(0.117233 0.00732192 0)
(0.10227 0.00759037 0)
(0.086739 0.00778772 0)
(0.0708753 0.00789773 0)
(0.054888 0.00791193 0)
(0.0390169 0.00779616 0)
(0.0234376 0.00760168 0)
(0.00834669 0.00733041 0)
(-0.00605931 0.00695823 0)
(-0.0196838 0.00656008 0)
(-0.0324449 0.0061009 0)
(-0.0442609 0.00562077 0)
(-0.0550943 0.00513877 0)
(-0.0649574 0.00465196 0)
(-0.0738442 0.0041461 0)
(-0.0817523 0.00372072 0)
(-0.0887334 0.00323937 0)
(-0.0948492 0.00280318 0)
(-0.100109 0.00239279 0)
(-0.10454 0.00203152 0)
(-0.108206 0.00164878 0)
(-0.111159 0.00129261 0)
(-0.113425 0.00095596 0)
(-0.115061 0.000654918 0)
(-0.116072 0.000366271 0)
(-0.116511 9.0618e-05 0)
(-0.116392 -0.000189719 0)
(-0.115741 -0.000458506 0)
(-0.114577 -0.000703589 0)
(-0.112895 -0.000965061 0)
(-0.110722 -0.00122359 0)
(-0.108066 -0.00144015 0)
(-0.104915 -0.00169751 0)
(-0.10124 -0.00194213 0)
(-0.097064 -0.00219011 0)
(-0.0923743 -0.00244068 0)
(-0.087153 -0.00268999 0)
(-0.081432 -0.00295535 0)
(-0.075179 -0.00325141 0)
(-0.068337 -0.00353291 0)
(-0.0609482 -0.00384572 0)
(-0.0529106 -0.00412983 0)
(-0.0441977 -0.00445344 0)
(-0.0348772 -0.0048048 0)
(-0.024844 -0.00514611 0)
(-0.0140825 -0.00550286 0)
(-0.00258346 -0.00585964 0)
(0.00963101 -0.00623991 0)
(0.0225795 -0.00659036 0)
(0.0362317 -0.00691957 0)
(0.050508 -0.00724366 0)
(0.0654001 -0.00751107 0)
(0.0807921 -0.00774695 0)
(0.0965898 -0.00792183 0)
(0.112693 -0.0080111 0)
(0.128902 -0.00801905 0)
(0.145014 -0.00794907 0)
(0.160873 -0.0077405 0)
(0.176231 -0.00745139 0)
(0.190857 -0.00704173 0)
(0.204537 -0.00649176 0)
(0.217007 -0.00584609 0)
(0.228045 -0.0050667 0)
(0.237409 -0.0041785 0)
(0.244884 -0.00321699 0)
(0.250304 -0.00215816 0)
(0.253534 -0.00103094 0)
(0.254478 9.46931e-05 0)
(0.253085 0.00126456 0)
(0.249268 0.00244358 0)
(0.243228 0.00356351 0)
(0.234934 0.00463128 0)
(0.224579 0.00560166 0)
(0.212372 0.00647994 0)
(0.198494 0.00724271 0)
(0.183184 0.00788565 0)
(0.166718 0.00841888 0)
(0.149353 0.00873751 0)
(0.131449 0.00898661 0)
(0.113287 0.00904708 0)
(0.0950774 0.00899834 0)
(0.0770524 0.00887845 0)
(0.0593748 0.00864779 0)
(0.0421988 0.00835905 0)
(0.0256666 0.00803852 0)
(0.00988988 0.00760507 0)
(-0.00501086 0.00717496 0)
(-0.0189739 0.00668595 0)
(-0.0319548 0.00619962 0)
(-0.0439003 0.00568375 0)
(-0.0548508 0.00517831 0)
(-0.0648042 0.00468149 0)
(-0.0737921 0.00422867 0)
(-0.0818599 0.00375682 0)
(-0.0890186 0.00335593 0)
(-0.0953222 0.00289378 0)
(-0.100802 0.00256079 0)
(-0.105501 0.00212611 0)
(-0.109487 0.001782 0)
(-0.112724 0.00145738 0)
(-0.115292 0.0010895 0)
(-0.117228 0.000833036 0)
(-0.118548 0.000520886 0)
(-0.119318 0.000260475 0)
(-0.119562 9.98201e-07 0)
(-0.119304 -0.000254271 0)
(-0.118586 -0.000526978 0)
(-0.117314 -0.000713496 0)
(-0.115512 -0.0010063 0)
(-0.113225 -0.00127435 0)
(-0.110375 -0.00155373 0)
(-0.106955 -0.00183931 0)
(-0.102942 -0.00214392 0)
(-0.0983033 -0.00245558 0)
(-0.0929983 -0.00278994 0)
(-0.0870388 -0.00314131 0)
(-0.0803028 -0.00353183 0)
(-0.0727735 -0.00389171 0)
(-0.0644953 -0.00433188 0)
(-0.0553197 -0.00477088 0)
(-0.0452509 -0.00520186 0)
(-0.0343143 -0.00571434 0)
(-0.0223965 -0.00609709 0)
(-0.00950709 -0.00660396 0)
(0.00428207 -0.00702414 0)
(0.0188973 -0.00743115 0)
(0.0342564 -0.00777008 0)
(0.0502555 -0.00809148 0)
(0.0668217 -0.00834731 0)
(0.0838413 -0.00849918 0)
(0.101114 -0.00861274 0)
(0.11849 -0.00860123 0)
(0.135773 -0.00848607 0)
(0.152684 -0.00824306 0)
(0.168965 -0.00786999 0)
(0.184315 -0.00731555 0)
(0.198434 -0.00665233 0)
(0.211054 -0.00585724 0)
(0.221908 -0.0048979 0)
(0.230766 -0.00383781 0)
(0.237376 -0.00267229 0)
(0.241544 -0.00144383 0)
(0.243154 -0.000187688 0)
(0.242234 0.00109483 0)
(0.238623 0.00241808 0)
(0.232501 0.00363729 0)
(0.223982 0.00478058 0)
(0.213245 0.00582871 0)
(0.200546 0.00671842 0)
(0.186138 0.00750092 0)
(0.170338 0.0081132 0)
(0.15348 0.00857367 0)
(0.135853 0.00886883 0)
(0.117804 0.0090338 0)
(0.0995357 0.009053 0)
(0.0813054 0.00899426 0)
(0.0633774 0.00877583 0)
(0.0459211 0.00853092 0)
(0.0291147 0.00815889 0)
(0.0130758 0.00776365 0)
(-0.00211806 0.00734 0)
(-0.0164427 0.00689943 0)
(-0.0299007 0.00645677 0)
(-0.0424852 0.00601658 0)
(-0.0542104 0.00563528 0)
(-0.0651331 0.00521871 0)
(-0.0751868 0.00484254 0)
(-0.0844516 0.00446949 0)
(-0.0929728 0.0040965 0)
(-0.100596 0.00371635 0)
(-0.10739 0.00328076 0)
(-0.113267 0.0028638 0)
(-0.118205 0.0023665 0)
(-0.122191 0.00190194 0)
(-0.125125 0.00137457 0)
(-0.12692 0.000897625 0)
(-0.127663 0.000400791 0)
(-0.127381 -0.0001371 0)
(-0.126164 -0.000589927 0)
(-0.124261 -0.000996146 0)
(-0.121456 -0.00141589 0)
(-0.117616 -0.00177329 0)
(-0.11334 -0.00205082 0)
(-0.108342 -0.00242314 0)
(-0.102626 -0.00270727 0)
(-0.0964423 -0.00304776 0)
(-0.0894424 -0.00342305 0)
(-0.0817337 -0.00368965 0)
(-0.0737566 -0.00397145 0)
(-0.0649163 -0.00434085 0)
(-0.0555992 -0.00455895 0)
(-0.0459273 -0.00486667 0)
(-0.0356691 -0.00511851 0)
(-0.0254896 -0.00538762 0)
(-0.0148448 -0.00568943 0)
(-0.00160702 -0.00587826 0)
(0.0137584 -0.00655609 0)
(0.0295525 -0.00705738 0)
(0.0459315 -0.00748049 0)
(0.0628523 -0.00795693 0)
(0.0805006 -0.00837848 0)
(0.0985895 -0.00863295 0)
(0.117024 -0.00892729 0)
(0.135631 -0.00898093 0)
(0.154089 -0.00898105 0)
(0.172192 -0.0087582 0)
(0.189562 -0.00831169 0)
(0.205837 -0.00776737 0)
(0.22076 -0.00703192 0)
(0.234013 -0.00612522 0)
(0.245325 -0.00513735 0)
(0.254499 -0.00400932 0)
(0.261343 -0.00283429 0)
(0.265758 -0.00159706 0)
(0.267704 -0.000300078 0)
(0.26722 0.000904926 0)
(0.264178 0.00212847 0)
(0.258748 0.00329999 0)
(0.251075 0.00429879 0)
(0.241367 0.00530165 0)
(0.229818 0.00608709 0)
(0.216682 0.0068582 0)
(0.202152 0.00754573 0)
(0.186474 0.00796023 0)
(0.169923 0.00838691 0)
(0.1527 0.008719 0)
(0.135035 0.00879006 0)
(0.117146 0.00890774 0)
(0.099224 0.00879994 0)
(0.0814325 0.00874235 0)
(0.0638973 0.00861728 0)
(0.0467294 0.00832115 0)
(0.0299971 0.0080953 0)
(0.0137578 0.00781476 0)
(-0.00139355 0.00737273 0)
(-0.015628 0.00705486 0)
(-0.0294081 0.00669718 0)
(-0.0424244 0.0062581 0)
(-0.0546305 0.00586289 0)
(-0.0659939 0.00540964 0)
(-0.0764978 0.00499396 0)
(-0.0861244 0.00456507 0)
(-0.0948576 0.00410234 0)
(-0.10269 0.00366145 0)
(-0.109614 0.00321246 0)
(-0.115619 0.00274865 0)
(-0.120707 0.00229622 0)
(-0.124877 0.00183848 0)
(-0.128135 0.00138965 0)
(-0.130493 0.000940651 0)
(-0.131947 0.000499288 0)
(-0.132546 7.12704e-05 0)
(-0.132291 -0.00035604 0)
(-0.131163 -0.00077576 0)
(-0.129198 -0.00118499 0)
(-0.12641 -0.00159056 0)
(-0.122814 -0.00198487 0)
(-0.118422 -0.00237113 0)
(-0.11325 -0.00276424 0)
(-0.107299 -0.00313983 0)
(-0.0995318 -0.00351049 0)
(0.215798 -0.00906141 0)
(0.226506 -0.00795506 0)
(0.237003 -0.00659051 0)
(0.245507 -0.00513025 0)
(0.251854 -0.00361021 0)
(0.255925 -0.00199433 0)
(0.257678 -0.00036282 0)
(0.257047 0.00127593 0)
(0.253987 0.00292582 0)
(0.248602 0.0044949 0)
(0.241006 0.00600888 0)
(0.231319 0.00744435 0)
(0.219706 0.00862211 0)
(0.206399 0.00978454 0)
(0.191605 0.0106039 0)
(0.175596 0.0114323 0)
(0.158609 0.0121066 0)
(0.140901 0.0123702 0)
(0.122737 0.0126881 0)
(0.104346 0.0128485 0)
(0.0859509 0.012642 0)
(0.0677506 0.0125112 0)
(0.0499039 0.0122567 0)
(0.0325126 0.0117321 0)
(0.0155492 0.0112676 0)
(-0.000225502 0.010663 0)
(-0.0148738 0.0100953 0)
(-0.0289371 0.00949461 0)
(-0.0420808 0.00878713 0)
(-0.0542807 0.0081475 0)
(-0.0655197 0.00749413 0)
(-0.0757946 0.00680012 0)
(-0.0851238 0.00616107 0)
(-0.0935213 0.0055067 0)
(-0.101019 0.0048997 0)
(-0.107645 0.00430907 0)
(-0.113428 0.00372859 0)
(-0.118407 0.00318274 0)
(-0.122612 0.00265618 0)
(-0.126076 0.0021458 0)
(-0.128831 0.00165794 0)
(-0.130909 0.00118483 0)
(-0.132321 0.000734132 0)
(-0.133071 0.000307276 0)
(-0.133194 -0.000142556 0)
(-0.132697 -0.00058548 0)
(-0.131567 -0.00101944 0)
(-0.129801 -0.00146658 0)
(-0.127405 -0.00191406 0)
(-0.12436 -0.00235757 0)
(-0.120637 -0.00285067 0)
(-0.116221 -0.00332089 0)
(-0.111081 -0.00386342 0)
(-0.105188 -0.00436902 0)
(-0.0985573 -0.00487282 0)
(-0.09113 -0.00549104 0)
(-0.082858 -0.00602835 0)
(-0.0737822 -0.00655962 0)
(-0.0638791 -0.00720377 0)
(-0.0531516 -0.00774233 0)
(-0.0415985 -0.00840053 0)
(-0.0291799 -0.00894294 0)
(-0.0160415 -0.00940506 0)
(-0.001992 -0.0099964 0)
(0.0129269 -0.0104486 0)
(0.0283301 -0.0107899 0)
(0.0442354 -0.0112179 0)
(0.0606421 -0.0114729 0)
(0.0773858 -0.0117372 0)
(0.0944138 -0.0118904 0)
(0.111605 -0.0119136 0)
(0.128718 -0.0118269 0)
(0.14561 -0.0116356 0)
(0.162074 -0.0112113 0)