/*--------------------------------*- C++ -*----------------------------------*\
| =========                 |                                                 |
| \\      /  F ield         | OpenFOAM: The Open Source CFD Toolbox           |
|  \\    /   O peration     | Version:  3.0.1                                 |
|   \\  /    A nd           | Web:      www.OpenFOAM.org                      |
|    \\/     M anipulation  |                                                 |
\*---------------------------------------------------------------------------*/
FoamFile
{
    version     2.0;
    format      ascii;
    class       volScalarField;
    location    "23.4";
    object      p_rgh;
}
// * * * * * * * * * * * * * * * * * * * * * * * * * * * * * * * * * * * * * //

dimensions      [1 -1 -2 0 0 0 0];

internalField   nonuniform List<scalar> 
22680
(
-275.49
-265.001
-253.145
-239.9
-225.246
-209.172
-191.667
-172.749
-152.425
-130.708
-107.587
-82.5949
-55.6348
-28.6064
-1.05876
27.0195
55.626
84.5607
113.664
142.681
171.381
199.476
226.705
252.781
277.446
300.434
321.51
340.446
357.047
371.131
382.547
391.189
396.925
399.927
400.024
397.146
391.384
382.808
371.517
357.665
341.415
322.97
302.547
280.386
256.733
231.845
205.979
179.401
152.357
125.104
97.8545
70.9706
44.4147
18.3275
-7.13102
-31.8314
-55.6687
-78.5702
-100.48
-121.365
-141.207
-160.003
-177.757
-194.483
-210.201
-224.934
-238.706
-251.541
-263.459
-274.48
-284.617
-293.883
-302.257
-309.734
-316.304
-322
-326.758
-330.552
-333.343
-335.091
-335.748
-335.266
-333.595
-330.683
-326.484
-320.948
-314.039
-305.715
-295.956
-284.734
-272.045
-257.893
-242.285
-225.261
-206.844
-187.087
-166.045
-143.799
-120.421
-96.0074
-70.6457
-44.4018
-17.4305
10.0264
37.873
65.9499
94.1001
122.148
149.914
177.212
203.847
229.625
254.348
277.825
299.861
320.276
338.888
355.534
370.056
382.319
392.196
399.525
404.333
406.494
405.966
402.719
396.779
388.172
376.959
363.225
347.087
328.684
308.185
285.78
261.682
236.123
209.349
181.615
153.179
124.302
95.2365
66.2244
37.4919
9.24517
-18.3312
-45.0777
-70.8569
-95.5568
-119.086
-141.373
-162.363
-182.019
-200.318
-217.253
-232.827
-247.058
-259.972
-271.6
-281.988
-291.185
-299.24
-306.21
-312.148
-317.099
-321.106
-324.203
-326.432
-327.808
-328.345
-328.042
-326.891
-324.874
-321.966
-318.128
-313.316
-307.478
-300.556
-292.491
-283.224
-272.695
-260.842
-247.616
-232.963
-216.851
-199.249
-180.148
-159.549
-137.473
-113.966
-89.0894
-62.9435
-35.6405
-7.33583
21.7969
51.5548
81.7109
112.02
142.22
172.039
201.198
229.418
256.423
281.944
305.722
327.522
347.116
364.31
378.933
390.848
399.947
406.142
409.427
409.8
407.316
402.016
394.038
383.546
370.733
355.859
339.208
321.034
301.66
281.621
261.79
242.057
-275.571
-265.085
-253.233
-239.991
-225.339
-209.266
-191.763
-172.845
-152.521
-130.804
-107.682
-82.6886
-55.712
-28.6762
-1.12257
26.9629
55.5789
84.5253
113.643
142.675
171.391
199.503
226.751
252.844
277.526
300.53
321.621
340.571
357.184
371.279
382.705
391.354
397.094
400.086
400.184
397.305
391.537
382.952
371.649
357.785
341.52
323.06
302.621
280.443
256.773
231.869
205.988
179.395
152.337
125.071
97.8107
70.9228
44.3584
18.2647
-7.19873
-31.9025
-55.7418
-78.6441
-100.553
-121.438
-141.278
-160.072
-177.823
-194.547
-210.262
-224.993
-238.762
-251.595
-263.511
-274.531
-284.667
-293.932
-302.307
-309.78
-316.356
-322.053
-326.813
-330.609
-333.402
-335.153
-335.814
-335.335
-333.668
-330.759
-326.563
-321.03
-314.124
-305.802
-296.044
-284.823
-272.136
-257.983
-242.375
-225.349
-206.931
-187.172
-166.128
-143.879
-120.497
-96.0789
-70.7122
-44.4631
-17.4856
9.9788
37.8335
65.919
94.0787
122.137
149.913
177.223
203.87
229.662
254.398
277.888
299.937
320.364
338.988
355.645
370.176
382.448
392.332
399.674
404.473
406.639
406.11
402.861
396.916
388.303
377.082
363.338
347.188
328.774
308.261
285.842
261.73
236.157
209.369
181.621
153.171
124.281
95.2043
66.1817
37.4398
9.18504
-18.3981
-45.1499
-70.9335
-95.6366
-119.168
-141.457
-162.447
-182.103
-200.402
-217.335
-232.908
-247.137
-260.049
-271.674
-282.059
-291.253
-299.305
-306.271
-312.207
-317.155
-321.158
-324.255
-326.483
-327.859
-328.395
-328.093
-326.944
-324.929
-322.024
-318.188
-313.38
-307.546
-300.628
-292.567
-283.304
-272.78
-260.931
-247.708
-233.058
-216.949
-199.35
-180.249
-159.651
-137.574
-114.065
-89.1838
-63.0321
-35.7217
-7.40778
21.736
51.5064
81.6765
112
142.217
172.052
201.228
229.465
256.487
282.025
305.819
327.634
347.241
364.446
379.079
391.001
400.105
406.308
409.584
409.955
407.466
402.159
394.171
383.666
370.836
355.935
339.252
321.044
301.632
281.526
261.609
241.651
-275.733
-265.254
-253.408
-240.172
-225.525
-209.456
-191.955
-173.037
-152.714
-130.996
-107.873
-82.8759
-55.8665
-28.8158
-1.25036
26.8496
55.4847
84.4544
113.599
142.662
171.412
199.558
226.841
252.969
277.685
300.722
321.843
340.821
357.458
371.574
383.017
391.676
397.434
400.408
400.507
397.623
391.842
383.239
371.914
358.024
341.73
323.239
302.768
280.557
256.854
231.918
206.005
179.383
152.297
125.006
97.7233
70.8268
44.2458
18.139
-7.33423
-32.0448
-55.8882
-78.792
-100.701
-121.583
-141.42
-160.209
-177.955
-194.674
-210.384
-225.109
-238.874
-251.703
-263.616
-274.633
-284.767
-294.03
-302.406
-309.878
-316.461
-322.159
-326.922
-330.723
-333.521
-335.278
-335.945
-335.473
-333.812
-330.91
-326.72
-321.192
-314.291
-305.973
-296.219
-285
-272.314
-258.162
-242.553
-225.525
-207.103
-187.34
-166.291
-144.035
-120.646
-96.2188
-70.8416
-44.5818
-17.5916
9.88788
37.7592
65.862
94.041
122.12
149.919
177.252
203.924
229.741
254.503
278.019
300.094
320.546
339.194
355.873
370.424
382.713
392.609
399.976
404.762
406.934
406.404
403.151
397.197
388.57
377.332
363.569
347.397
328.957
308.418
285.972
261.831
236.229
209.413
181.636
153.16
124.245
95.1446
66.1009
37.3405
9.06967
-18.5268
-45.2895
-71.0816
-95.7911
-119.327
-141.618
-162.61
-182.266
-200.564
-217.495
-233.064
-247.289
-260.195
-271.815
-282.194
-291.382
-299.427
-306.388
-312.318
-317.262
-321.257
-324.353
-326.579
-327.954
-328.49
-328.19
-327.043
-325.032
-322.132
-318.302
-313.501
-307.674
-300.765
-292.713
-283.458
-272.942
-261.102
-247.887
-233.243
-217.14
-199.545
-180.446
-159.849
-137.768
-114.255
-89.3656
-63.2023
-35.877
-7.54446
21.6214
51.4169
81.6148
111.969
142.217
172.086
201.296
229.568
256.623
282.194
306.02
327.864
347.497
364.726
379.377
391.314
400.427
406.644
409.906
410.274
407.774
402.452
394.443
383.911
371.047
356.102
339.358
321.082
301.621
281.496
261.464
241.403
-275.976
-265.508
-253.672
-240.444
-225.804
-209.74
-192.242
-173.326
-153.003
-131.285
-108.16
-83.1576
-56.0981
-29.0253
-1.4423
26.6792
55.343
84.3477
113.534
142.642
171.442
199.64
226.976
253.157
277.924
301.009
322.176
341.195
357.869
372.016
383.485
392.159
397.936
400.899
400.993
398.101
392.3
383.669
372.311
358.382
342.046
323.509
302.989
280.728
256.976
231.99
206.03
179.364
152.237
124.908
97.5924
70.682
44.0765
17.9502
-7.53773
-32.2585
-56.1079
-79.0141
-100.922
-121.801
-141.633
-160.416
-178.154
-194.865
-210.567
-225.285
-239.042
-251.865
-263.773
-274.786
-284.916
-294.176
-302.552
-310.029
-316.618
-322.318
-327.086
-330.893
-333.7
-335.465
-336.142
-335.679
-334.028
-331.136
-326.955
-321.436
-314.542
-306.231
-296.481
-285.266
-272.582
-258.43
-242.819
-225.788
-207.362
-187.593
-166.535
-144.27
-120.87
-96.4289
-71.0361
-44.7603
-17.7506
9.75153
37.6477
65.7766
93.9845
122.094
149.927
177.295
204.004
229.86
254.661
278.217
300.33
320.821
339.504
356.216
370.797
383.11
393.025
400.42
405.202
407.38
406.847
403.587
397.619
388.972
377.709
363.916
347.71
329.234
308.655
286.167
261.983
236.338
209.479
181.66
153.144
124.191
95.0553
65.9799
37.1916
8.89678
-18.7197
-45.4986
-71.3035
-96.0226
-119.565
-141.861
-162.854
-182.51
-200.807
-217.735
-233.299
-247.517
-260.416
-272.027
-282.397
-291.575
-299.611
-306.563
-312.484
-317.419
-321.408
-324.5
-326.723
-328.096
-328.632
-328.334
-327.192
-325.187
-322.293
-318.473
-313.683
-307.867
-300.97
-292.931
-283.689
-273.186
-261.358
-248.154
-233.52
-217.426
-199.837
-180.742
-160.144
-138.061
-114.54
-89.6382
-63.4577
-36.1098
-7.74941
21.4495
51.2828
81.5225
111.922
142.218
172.137
201.399
229.722
256.828
282.449
306.322
328.21
347.883
365.146
379.825
391.783
400.91
407.138
410.397
410.757
408.238
402.893
394.852
384.28
371.367
356.359
339.536
321.176
301.633
281.363
261.078
240.631
-276.3
-265.847
-254.023
-240.807
-226.176
-210.118
-192.625
-173.711
-153.389
-131.67
-108.542
-83.535
-56.4065
-29.3046
-1.69868
26.4514
55.1533
84.2048
113.446
142.616
171.482
199.75
227.157
253.407
278.243
301.393
322.62
341.695
358.418
372.606
384.108
392.804
398.597
401.562
401.644
398.739
392.911
384.244
372.841
358.86
342.466
323.868
303.283
280.956
257.137
232.086
206.064
179.338
152.156
124.778
97.418
70.4879
43.8501
17.698
-7.80954
-32.5439
-56.4013
-79.3106
-101.218
-122.092
-141.917
-160.691
-178.419
-195.119
-210.811
-225.518
-239.266
-252.08
-263.982
-274.989
-285.115
-294.371
-302.746
-310.23
-316.825
-322.529
-327.304
-331.12
-333.938
-335.715
-336.404
-335.954
-334.316
-331.437
-327.269
-321.761
-314.877
-306.574
-296.832
-285.621
-272.939
-258.788
-243.175
-226.14
-207.707
-187.93
-166.861
-144.584
-121.168
-96.7092
-71.2961
-44.9991
-17.9627
9.56967
37.4986
65.6624
93.9087
122.06
149.937
177.353
204.111
230.018
254.871
278.48
300.645
321.186
339.917
356.673
371.294
383.641
393.581
401.001
405.797
407.977
407.439
404.169
398.181
389.508
378.212
364.379
348.128
329.602
308.97
286.426
262.186
236.483
209.566
181.692
153.122
124.118
94.9359
65.8181
36.9927
8.66581
-18.9774
-45.7778
-71.5998
-96.3316
-119.883
-142.184
-163.181
-182.837
-201.131
-218.054
-233.612
-247.822
-260.71
-272.31
-282.668
-291.833
-299.856
-306.795
-312.705
-317.629
-321.61
-324.696
-326.915
-328.286
-328.822
-328.527
-327.389
-325.393
-322.509
-318.701
-313.924
-308.125
-301.244
-293.222
-283.997
-273.511
-261.7
-248.511
-233.89
-217.807
-200.226
-181.136
-160.539
-138.451
-114.921
-90.0024
-63.7988
-36.4209
-8.02326
21.2197
51.1034
81.3989
111.859
142.219
172.204
201.535
229.927
257.101
282.788
306.725
328.672
348.398
365.707
380.423
392.41
401.556
407.791
411.056
411.402
408.858
403.481
395.398
384.773
371.794
356.706
339.788
321.321
301.675
281.284
260.72
239.875
-276.705
-266.27
-254.463
-241.26
-226.641
-210.592
-193.104
-174.193
-153.871
-132.152
-109.021
-84.009
-56.7913
-29.654
-2.02
26.1656
54.9151
84.0252
113.335
142.582
171.532
199.887
227.382
253.72
278.641
301.873
323.176
342.32
359.104
373.345
384.888
393.611
399.42
402.392
402.461
399.537
393.676
384.963
373.504
359.459
342.992
324.316
303.65
281.241
257.339
232.207
206.106
179.305
152.054
124.613
97.2003
70.2434
43.5661
17.3821
-8.15007
-32.9013
-56.7687
-79.6816
-101.587
-122.456
-142.272
-161.035
-178.751
-195.438
-211.115
-225.81
-239.546
-252.35
-264.242
-275.243
-285.364
-294.616
-302.99
-310.48
-317.083
-322.793
-327.577
-331.404
-334.235
-336.027
-336.732
-336.298
-334.677
-331.814
-327.661
-322.167
-315.296
-307.004
-297.27
-286.065
-273.386
-259.235
-243.62
-226.579
-208.139
-188.351
-167.269
-144.977
-121.541
-97.0601
-71.6218
-45.2993
-18.2272
9.34221
37.3117
65.5193
93.8134
122.017
149.949
177.424
204.244
230.216
255.134
278.809
301.039
321.643
340.433
357.245
371.915
384.304
394.278
401.724
406.543
408.723
408.18
404.896
398.885
390.178
378.84
364.958
348.651
330.063
309.364
286.751
262.439
236.664
209.675
181.731
153.094
124.027
94.7859
65.6152
36.7431
8.37639
-19.3002
-46.1276
-71.9708
-96.7184
-120.281
-142.589
-163.589
-183.245
-201.536
-218.454
-234.003
-248.202
-261.077
-272.664
-283.007
-292.156
-300.163
-307.086
-312.981
-317.892
-321.863
-324.941
-327.154
-328.522
-329.059
-328.767
-327.637
-325.65
-322.779
-318.985
-314.226
-308.446
-301.587
-293.586
-284.383
-273.918
-262.128
-248.957
-234.353
-218.284
-200.713
-181.63
-161.034
-138.94
-115.397
-90.4585
-64.2263
-36.8107
-8.3665
20.9315
50.8782
81.2437
111.779
142.22
172.289
201.705
230.183
257.443
283.213
307.229
329.249
349.041
366.408
381.172
393.195
402.364
408.609
411.878
412.209
409.634
404.218
396.082
385.39
372.33
357.147
340.115
321.522
301.741
281.161
260.266
238.984
-277.191
-266.778
-254.991
-241.805
-227.2
-211.161
-193.68
-174.772
-154.45
-132.73
-109.597
-84.5813
-57.252
-30.0734
-2.40689
25.8209
54.6277
83.8082
113.201
142.541
171.591
200.05
227.652
254.096
279.119
302.449
323.843
343.07
359.928
374.232
385.824
394.582
400.409
403.389
403.444
400.497
394.594
385.826
374.3
360.177
343.623
324.855
304.091
281.583
257.581
232.35
206.155
179.265
151.93
124.415
96.939
69.9475
43.2241
17.0018
-8.55981
-33.3313
-57.2104
-80.1277
-102.031
-122.894
-142.699
-161.448
-179.149
-195.82
-211.481
-226.16
-239.882
-252.673
-264.555
-275.548
-285.663
-294.91
-303.285
-310.779
-317.39
-323.109
-327.904
-331.744
-334.591
-336.401
-337.125
-336.711
-335.11
-332.267
-328.132
-322.656
-315.8
-307.52
-297.796
-286.598
-273.923
-259.772
-244.155
-227.108
-208.658
-188.857
-167.759
-145.448
-121.989
-97.4818
-72.0134
-45.6614
-18.5445
9.06896
37.0866
65.3468
93.6982
121.964
149.964
177.509
204.404
230.452
255.449
279.203
301.511
322.191
341.053
357.932
372.661
385.101
395.115
402.592
407.436
409.62
409.071
405.77
399.73
390.983
379.595
365.653
349.278
330.615
309.837
287.14
262.743
236.881
209.806
181.777
153.059
123.916
94.6048
65.3708
36.4426
8.02813
-19.6886
-46.5481
-72.4167
-97.1833
-120.759
-143.075
-164.079
-183.735
-202.023
-218.933
-234.473
-248.659
-261.519
-273.088
-283.413
-292.543
-300.531
-307.435
-313.313
-318.207
-322.165
-325.234
-327.441
-328.806
-329.343
-329.055
-327.933
-325.958
-323.102
-319.327
-314.589
-308.832
-301.998
-294.023
-284.846
-274.407
-262.641
-249.493
-234.909
-218.857
-201.299
-182.223
-161.628
-139.528
-115.97
-91.0071
-64.7404
-37.2798
-8.77967
20.5845
50.6069
81.0565
111.683
142.22
172.389
201.909
230.491
257.853
283.723
307.834
329.943
349.815
367.251
382.071
394.138
403.335
409.593
412.864
413.178
410.567
405.103
396.903
386.132
372.977
357.68
340.517
321.779
301.831
281.028
259.778
238.044
-277.759
-267.371
-255.607
-242.441
-227.853
-211.826
-194.352
-175.447
-155.127
-133.406
-110.271
-85.2536
-57.7876
-30.5629
-2.86015
25.4166
54.2902
83.553
113.043
142.491
171.659
200.24
227.967
254.534
279.678
303.121
324.622
343.947
360.891
375.268
386.918
395.716
401.566
404.553
404.593
401.618
395.668
386.835
375.231
361.016
344.36
325.483
304.606
281.981
257.861
232.517
206.211
179.216
151.785
124.182
96.6339
69.5993
42.8234
16.5566
-9.03939
-33.8343
-57.7271
-80.6491
-102.551
-123.405
-143.197
-161.93
-179.613
-196.265
-211.908
-226.569
-240.274
-253.05
-264.92
-275.903
-286.011
-295.254
-303.628
-311.129
-317.747
-323.477
-328.285
-332.141
-335.007
-336.838
-337.584
-337.193
-335.616
-332.795
-328.682
-323.226
-316.387
-308.122
-298.41
-287.22
-274.549
-260.399
-244.779
-227.725
-209.263
-189.447
-168.331
-145.998
-122.512
-97.9747
-72.4712
-46.0857
-18.9146
8.7496
36.823
65.1446
93.5628
121.901
149.979
177.607
204.589
230.727
255.815
279.662
302.061
322.83
341.776
358.733
373.532
386.032
396.093
403.607
408.478
410.667
410.111
406.79
400.717
391.923
380.476
366.464
350.01
331.26
310.389
287.594
263.096
237.133
209.957
181.83
153.017
123.785
94.3922
65.0842
36.0907
7.62038
-20.1429
-47.04
-72.938
-97.7266
-121.318
-143.643
-164.652
-184.308
-202.591
-219.494
-235.022
-249.193
-262.034
-273.584
-283.887
-292.994
-300.96
-307.843
-313.699
-318.575
-322.519
-325.576
-327.775
-329.136
-329.675
-329.391
-328.279
-326.317
-323.478
-319.725
-315.011
-309.282
-302.477
-294.533
-285.386
-274.977
-263.241
-250.119
-235.559
-219.526
-201.983
-182.916
-162.322
-140.215
-116.64
-91.6488
-65.342
-37.8288
-9.26345
20.178
50.2889
80.8367
111.57
142.22
172.506
202.146
230.849
258.331
284.318
308.54
330.753
350.718
368.235
383.122
395.239
404.47
410.743
414.016
414.309
411.658
406.137
397.863
387
373.735
358.307
340.997
322.091
301.955
280.914
259.293
237.061
-278.408
-268.049
-256.312
-243.169
-228.599
-212.586
-195.12
-176.22
-155.9
-134.179
-111.044
-86.0279
-58.397
-31.1228
-3.38073
24.9515
53.9014
83.2586
112.86
142.433
171.735
200.457
228.326
255.035
280.316
303.89
325.513
344.949
361.992
376.453
388.171
397.016
402.891
405.885
405.911
402.901
396.896
387.99
376.296
361.975
345.202
326.2
305.193
282.435
258.181
232.706
206.273
179.159
151.616
123.914
96.2845
69.1976
42.3636
16.0458
-9.58952
-34.4111
-58.3192
-81.2465
-103.145
-123.99
-143.767
-162.482
-180.144
-196.775
-212.395
-227.035
-240.721
-253.48
-265.336
-276.308
-286.409
-295.647
-304.022
-311.527
-318.155
-323.897
-328.72
-332.595
-335.482
-337.337
-338.108
-337.744
-336.193
-333.398
-329.311
-323.877
-317.058
-308.811
-299.112
-287.932
-275.266
-261.116
-245.493
-228.43
-209.955
-190.123
-168.986
-146.627
-123.111
-98.5393
-72.9961
-46.5708
-19.3388
8.38381
36.5206
64.9121
93.4068
121.828
149.996
177.718
204.799
231.04
256.234
280.186
302.69
323.56
342.603
359.649
374.529
387.096
397.213
404.768
409.669
411.866
411.302
407.958
401.846
392.999
381.483
367.392
350.847
331.997
311.019
288.113
263.499
237.42
210.128
181.889
152.968
123.635
94.1474
64.7548
35.6868
7.15256
-20.6638
-47.6039
-73.535
-98.3488
-121.957
-144.294
-165.307
-184.963
-203.242
-220.135
-235.65
-249.804
-262.624
-274.151
-284.429
-293.51
-301.451
-308.308
-314.139
-318.996
-322.923
-325.965
-328.156
-329.513
-330.053
-329.775
-328.673
-326.727
-323.908
-320.179
-315.494
-309.796
-303.024
-295.115
-286.004
-275.63
-263.926
-250.835
-236.302
-220.292
-202.766
-183.709
-163.117
-141.002
-117.407
-92.3844
-66.0318
-38.4585
-9.81856
19.7113
49.9235
80.5839
111.439
142.218
172.639
202.416
231.258
258.877
284.998
309.348
331.679
351.752
369.362
384.325
396.5
405.769
412.061
415.333
415.603
412.907
407.321
398.963
387.995
374.605
359.03
341.554
322.461
302.115
280.807
258.796
236.043
-279.139
-268.813
-257.105
-243.988
-229.439
-213.442
-195.986
-177.09
-156.771
-135.051
-111.917
-86.9068
-59.0786
-31.7534
-3.9698
24.4243
53.4602
82.9239
112.651
142.364
171.819
200.699
228.73
255.598
281.034
304.756
326.516
346.078
363.233
377.789
389.582
398.48
404.384
407.388
407.396
404.347
398.28
389.291
377.495
363.056
346.152
327.008
305.853
282.944
258.539
232.916
206.342
179.092
151.425
123.609
95.8895
68.7418
41.8443
15.4686
-10.2111
-35.0625
-58.9875
-81.9205
-103.815
-124.649
-144.41
-163.104
-180.743
-197.348
-212.944
-227.56
-241.224
-253.964
-265.804
-276.764
-286.856
-296.089
-304.464
-311.976
-318.613
-324.368
-329.209
-333.105
-336.016
-337.898
-338.698
-338.364
-336.843
-334.078
-330.018
-324.611
-317.815
-309.587
-299.903
-288.734
-276.073
-261.924
-246.298
-229.225
-210.735
-190.883
-169.724
-147.336
-123.786
-99.1762
-73.5901
-47.1153
-19.8178
7.9712
36.1788
64.649
93.2297
121.745
150.012
177.842
205.035
231.391
256.704
280.775
303.397
324.382
343.534
360.681
375.651
388.296
398.474
406.077
411.009
413.215
412.644
409.274
403.118
394.21
382.618
368.436
351.789
332.827
311.728
288.695
263.952
237.742
210.32
181.953
152.911
123.463
93.8698
64.3818
35.23
6.62404
-21.252
-48.2403
-74.2086
-99.0502
-122.678
-145.027
-166.046
-185.701
-203.974
-220.857
-236.357
-250.491
-263.288
-274.789
-285.039
-294.091
-302.003
-308.832
-314.635
-319.468
-323.376
-326.403
-328.584
-329.936
-330.477
-330.206
-329.116
-327.188
-324.391
-320.69
-316.037
-310.374
-303.64
-295.771
-286.699
-276.364
-264.698
-251.641
-237.139
-221.155
-203.648
-184.603
-164.013
-141.889
-118.273
-93.2147
-66.8106
-39.1698
-10.4459
19.1836
49.5099
80.2972
111.29
142.214
172.787
202.719
231.717
259.492
285.764
310.258
332.723
352.916
370.631
385.681
397.922
407.235
413.547
416.818
417.061
414.315
408.657
400.204
389.119
375.589
359.85
342.19
322.891
302.312
280.715
258.309
235.05
-279.951
-269.662
-257.987
-244.899
-230.374
-214.394
-196.949
-178.058
-157.739
-136.02
-112.891
-87.893
-59.8301
-32.4554
-4.62881
23.8334
52.965
82.5477
112.416
142.285
171.91
200.967
229.178
256.224
281.832
305.718
327.633
347.335
364.614
379.276
391.153
400.111
406.048
409.061
409.052
405.957
399.822
390.74
378.829
364.258
347.207
327.906
306.587
283.508
258.936
233.148
206.415
179.016
151.208
123.265
95.4461
68.2326
41.2653
14.824
-10.9049
-35.7893
-59.7326
-82.6716
-104.562
-125.382
-145.124
-163.795
-181.408
-197.986
-213.554
-228.144
-241.783
-254.502
-266.324
-277.27
-287.352
-296.58
-304.955
-312.474
-319.12
-324.891
-329.751
-333.671
-336.61
-338.521
-339.353
-339.053
-337.566
-334.833
-330.805
-325.426
-318.656
-310.449
-300.783
-289.625
-276.97
-262.822
-247.192
-230.109
-211.602
-191.729
-170.544
-148.124
-124.537
-99.886
-74.2528
-47.7202
-20.3519
7.51152
35.797
64.3547
93.0307
121.65
150.029
177.977
205.294
231.78
257.225
281.428
304.183
325.295
344.569
361.828
376.898
389.63
399.878
407.533
412.5
414.717
414.137
410.737
404.533
395.557
383.88
369.598
352.836
333.748
312.516
289.342
264.454
238.098
210.531
182.023
152.846
123.269
93.5587
63.9644
34.7195
6.03397
-21.9081
-48.9497
-74.9594
-99.8314
-123.481
-145.842
-166.867
-186.523
-204.789
-221.66
-237.143
-251.256
-264.027
-275.498
-285.717
-294.736
-302.615
-309.413
-315.186
-319.993
-323.878
-326.889
-329.059
-330.406
-330.947
-330.684
-329.607
-327.698
-324.927
-321.256
-316.639
-311.015
-304.324
-296.499
-287.472
-277.181
-265.556
-252.537
-238.07
-222.114
-204.63
-185.598
-165.011
-142.878
-119.238
-94.1407
-67.6795
-39.9638
-11.1464
18.5939
49.0475
79.976
111.122
142.208
172.95
203.055
232.227
260.175
286.615
311.27
333.884
354.213
372.045
387.191
399.505
408.866
415.202
418.471
418.685
415.883
410.144
401.586
390.371
376.688
360.768
342.906
323.382
302.549
280.646
257.837
234.069
-280.845
-270.596
-258.959
-245.903
-231.404
-215.443
-198.01
-179.124
-158.804
-137.087
-113.97
-88.9894
-60.6492
-33.2296
-5.35954
23.1772
52.4144
82.1285
112.152
142.195
172.007
201.26
229.669
256.912
282.711
306.778
328.862
348.718
366.135
380.915
392.885
401.91
407.882
410.905
410.879
407.731
401.521
392.336
380.298
365.582
348.369
328.894
307.392
284.127
259.37
233.401
206.494
178.929
150.967
122.881
94.9469
67.6751
40.6263
14.1111
-11.6722
-36.5926
-60.5553
-83.5005
-105.385
-126.191
-145.912
-164.557
-182.14
-198.687
-214.225
-228.785
-242.397
-255.092
-266.895
-277.825
-287.898
-297.12
-305.496
-313.021
-319.678
-325.466
-330.347
-334.293
-337.262
-339.207
-340.074
-339.811
-338.361
-335.665
-331.671
-326.324
-319.582
-311.399
-301.751
-290.607
-277.959
-263.812
-248.177
-231.082
-212.557
-192.662
-171.448
-148.992
-125.366
-100.669
-74.9834
-48.3872
-20.9411
7.00359
35.3749
64.0282
92.8093
121.543
150.045
178.124
205.578
232.206
257.796
282.146
305.045
326.299
345.707
363.091
378.272
391.1
401.425
409.138
414.141
416.371
415.782
412.35
406.092
397.041
385.27
370.876
353.989
334.763
313.382
290.053
265.006
238.488
210.762
182.097
152.77
123.053
93.2131
63.5017
34.1544
5.38137
-22.6331
-49.7329
-75.7879
-100.693
-124.366
-146.742
-167.773
-187.428
-205.687
-222.545
-238.009
-252.098
-264.841
-276.28
-286.463
-295.446
-303.288
-310.051
-315.792
-320.568
-324.429
-327.422
-329.579
-330.921
-331.464
-331.208
-330.146
-328.259
-325.516
-321.878
-317.3
-311.721
-305.077
-297.3
-288.323
-278.079
-266.5
-253.524
-239.096
-223.172
-205.713
-186.696
-166.113
-143.97
-120.304
-95.1634
-68.6398
-40.8415
-11.9213
17.9413
48.5351
79.6195
110.934
142.2
173.127
203.423
232.788
260.927
287.552
312.385
335.164
355.641
373.603
388.855
401.25
410.666
417.027
420.293
420.476
417.612
411.785
403.111
391.754
377.903
361.786
343.703
323.935
302.829
280.604
257.383
233.111
-281.821
-271.617
-260.021
-247
-232.53
-216.59
-199.17
-180.287
-159.967
-138.253
-115.151
-90.2022
-61.533
-34.0771
-6.16407
22.4537
51.8066
81.6648
111.859
142.092
172.111
201.577
230.205
257.662
283.67
307.936
330.205
350.23
367.798
382.706
394.78
403.877
409.888
412.922
412.876
409.674
403.378
394.081
381.904
367.028
349.638
329.971
308.27
284.801
259.841
233.673
206.575
178.831
150.699
122.455
94.3812
67.0774
39.9271
13.3284
-12.5142
-37.4732
-61.4568
-84.4079
-106.286
-127.076
-146.773
-165.389
-182.94
-199.453
-214.957
-229.484
-243.067
-255.736
-267.517
-278.431
-288.492
-297.709
-306.084
-313.617
-320.286
-326.091
-330.995
-334.971
-337.972
-339.954
-340.86
-340.637
-339.228
-336.572
-332.617
-327.304
-320.593
-312.436
-302.81
-291.679
-279.039
-264.894
-249.253
-232.145
-213.601
-193.68
-172.436
-149.94
-126.273
-101.524
-75.7814
-49.1186
-21.586
6.44652
34.9116
63.6689
92.5647
121.422
150.059
178.28
205.885
232.669
258.418
282.928
305.986
327.394
346.95
364.47
379.774
392.706
403.116
410.892
415.935
418.18
417.58
414.113
407.795
398.663
386.788
372.273
355.247
335.869
314.326
290.827
265.605
238.911
211.01
182.176
152.685
122.814
92.8318
62.9927
33.5335
4.66532
-23.4281
-50.5909
-76.6949
-101.636
-125.334
-147.725
-168.763
-188.417
-206.668
-223.512
-238.956
-253.018
-265.729
-277.133
-287.278
-296.221
-304.023
-310.747
-316.452
-321.195
-325.03
-328.003
-330.145
-331.481
-332.026
-331.779
-330.733
-328.869
-326.157
-322.556
-318.021
-312.49
-305.897
-298.174
-289.251
-279.06
-267.532
-254.603
-240.216
-224.328
-206.896
-187.896
-167.318
-145.164
-121.471
-96.284
-69.6924
-41.8043
-12.7717
17.2245
47.9718
79.2268
110.726
142.188
173.319
203.823
233.398
261.746
288.575
313.602
336.562
357.203
375.307
390.676
403.159
412.634
419.023
422.287
422.434
419.504
413.58
404.781
393.268
379.235
362.906
344.584
324.551
303.153
280.592
256.957
232.188
-282.879
-272.724
-261.172
-248.189
-233.751
-217.834
-200.428
-181.55
-161.228
-139.515
-116.433
-91.5378
-62.478
-35
-7.04489
21.6605
51.1397
81.1549
111.535
141.975
172.219
201.918
230.783
258.475
284.71
309.191
331.661
351.871
369.603
384.652
396.838
406.015
412.07
415.116
415.046
411.785
405.396
395.975
383.647
368.597
351.013
331.139
309.219
285.53
260.348
233.963
206.659
178.72
150.404
121.984
93.7431
66.4431
39.1663
12.4743
-13.4321
-38.4322
-62.438
-85.3947
-107.265
-128.037
-147.707
-166.291
-183.807
-200.283
-215.75
-230.242
-243.792
-256.433
-268.19
-279.086
-289.135
-298.345
-306.721
-314.26
-320.943
-326.767
-331.697
-335.704
-338.742
-340.763
-341.712
-341.533
-340.169
-337.556
-333.642
-328.367
-321.69
-313.561
-303.957
-292.842
-280.21
-266.068
-250.42
-233.299
-214.733
-194.786
-173.507
-150.971
-127.256
-102.453
-76.6482
-49.9155
-22.2866
5.83968
34.4064
63.2761
92.296
121.289
150.071
178.447
206.215
233.167
259.089
283.773
307.004
328.581
348.297
365.966
381.402
394.449
404.952
412.796
417.882
420.143
419.531
416.027
409.644
400.422
388.436
373.788
356.611
337.068
315.348
291.665
266.253
239.368
211.277
182.257
152.588
122.55
92.414
62.4364
32.8558
3.88456
-24.2938
-51.5247
-77.6811
-102.661
-126.385
-148.792
-169.838
-189.491
-207.733
-224.561
-239.982
-254.015
-266.693
-278.058
-288.161
-297.061
-304.819
-311.5
-317.166
-321.874
-325.68
-328.63
-330.757
-332.087
-332.632
-332.396
-331.367
-329.528
-326.849
-323.289
-318.8
-313.322
-306.786
-299.121
-290.257
-280.124
-268.651
-255.773
-241.432
-225.583
-208.181
-189.2
-168.627
-146.464
-122.741
-97.5037
-70.8389
-42.8535
-13.6991
16.4422
47.3564
78.7968
110.497
142.171
173.524
204.256
234.059
262.634
289.684
314.923
338.08
358.899
377.157
392.653
405.234
414.772
421.193
424.453
424.562
421.559
415.531
406.596
394.916
380.686
364.128
345.549
325.232
303.525
280.614
256.562
231.301
-284.02
-273.917
-262.414
-249.473
-235.069
-219.176
-201.786
-182.912
-162.586
-140.874
-117.817
-93.0021
-63.4807
-36.0008
-8.00493
20.7952
50.4116
80.597
111.178
141.844
172.33
202.283
231.405
259.35
285.83
310.544
333.232
353.641
371.551
386.752
399.06
408.325
414.428
417.487
417.389
414.066
407.575
398.02
385.528
370.289
352.495
332.396
310.241
286.312
260.891
234.272
206.744
178.594
150.08
121.469
93.0226
65.7793
38.3421
11.5471
-14.4275
-39.4711
-63.4999
-86.4619
-108.323
-129.074
-148.716
-167.265
-184.742
-201.178
-216.604
-231.058
-244.573
-257.182
-268.914
-279.79
-289.826
-299.03
-307.406
-314.952
-321.649
-327.494
-332.452
-336.493
-339.569
-341.633
-342.629
-342.498
-341.182
-338.617
-334.747
-329.514
-322.873
-314.775
-305.195
-294.097
-281.475
-267.334
-251.678
-234.542
-215.955
-195.979
-174.663
-152.084
-128.317
-103.455
-77.585
-50.779
-23.0432
5.18275
33.8586
62.8487
92.0023
121.141
150.08
178.623
206.566
233.701
259.809
284.682
308.1
329.859
349.748
367.578
383.158
396.329
406.932
414.85
419.984
422.261
421.637
418.091
411.639
402.321
390.212
375.421
358.081
338.36
316.449
292.565
266.949
239.857
211.561
182.34
152.48
122.261
91.9584
61.8315
32.1202
3.03786
-25.2316
-52.5352
-78.7475
-103.769
-127.521
-149.945
-170.998
-190.649
-208.882
-225.693
-241.09
-255.091
-267.732
-279.055
-289.113
-297.965
-305.676
-312.311
-317.934
-322.604
-326.378
-329.303
-331.414
-332.737
-333.284
-333.058
-332.049
-330.237
-327.593
-324.076
-319.639
-314.217
-307.743
-300.141
-291.341
-281.27
-269.857
-257.035
-242.744
-226.937
-209.569
-190.609
-170.043
-147.869
-124.116
-98.8242
-72.0808
-43.9908
-14.7049
15.5931
46.6876
78.3285
110.246
142.151
173.743
204.719
234.77
263.589
290.88
316.347
339.718
360.73
379.155
394.789
407.475
417.083
423.537
426.793
426.86
423.78
417.638
408.557
396.697
382.258
365.455
346.601
325.979
303.946
280.673
256.2
230.452
-285.243
-275.197
-263.746
-250.85
-236.483
-220.618
-203.244
-184.373
-164.043
-142.328
-119.301
-94.6006
-64.5377
-37.0838
-9.04769
19.8554
49.62
79.9891
110.787
141.695
172.445
202.671
232.07
260.287
287.032
311.996
334.918
355.542
373.643
389.009
401.449
410.809
416.963
420.034
419.908
416.518
409.916
400.216
387.549
372.105
354.085
333.743
311.336
287.147
261.468
234.598
206.829
178.452
149.726
120.91
92.2256
65.077
37.4504
10.5444
-15.502
-40.5912
-64.6438
-87.6105
-109.461
-130.189
-149.799
-168.31
-185.745
-202.137
-217.519
-231.931
-245.408
-257.984
-269.689
-280.544
-290.565
-299.762
-308.138
-315.692
-322.404
-328.271
-333.259
-337.337
-340.455
-342.565
-343.611
-343.532
-342.268
-339.754
-335.932
-330.744
-324.142
-316.077
-306.523
-295.443
-282.832
-268.692
-253.029
-235.877
-217.268
-197.259
-175.903