/*--------------------------------*- C++ -*----------------------------------*\
| =========                 |                                                 |
| \\      /  F ield         | OpenFOAM: The Open Source CFD Toolbox           |
|  \\    /   O peration     | Version:  3.0.1                                 |
|   \\  /    A nd           | Web:      www.OpenFOAM.org                      |
|    \\/     M anipulation  |                                                 |
\*---------------------------------------------------------------------------*/
FoamFile
{
    version     2.0;
    format      ascii;
    class       volVectorField;
    location    "18";
    object      U;
}
// * * * * * * * * * * * * * * * * * * * * * * * * * * * * * * * * * * * * * //

dimensions      [0 1 -1 0 0 0 0];

internalField   nonuniform List<vector> 
21420
(
(-0.121012 0.000973731 0)
(-0.128653 0.00087653 0)
(-0.137065 0.000789379 0)
(-0.144586 0.000704588 0)
(-0.151264 0.000620228 0)
(-0.157129 0.000542272 0)
(-0.162217 0.000465719 0)
(-0.166559 0.00039379 0)
(-0.170183 0.000324107 0)
(-0.173113 0.000255972 0)
(-0.175371 0.000189232 0)
(-0.176981 0.00012291 0)
(-0.177906 6.07892e-05 0)
(-0.17821 -2.36134e-06 0)
(-0.177848 -6.95135e-05 0)
(-0.176816 -0.000137546 0)
(-0.175093 -0.000206623 0)
(-0.172662 -0.000278516 0)
(-0.169502 -0.000352123 0)
(-0.165577 -0.000428364 0)
(-0.160854 -0.0005106 0)
(-0.155303 -0.000593586 0)
(-0.14888 -0.000679869 0)
(-0.141548 -0.000775487 0)
(-0.13327 -0.000868231 0)
(-0.124011 -0.000972687 0)
(-0.113748 -0.00106939 0)
(-0.10246 -0.00116656 0)
(-0.0901295 -0.00127936 0)
(-0.0767587 -0.00137344 0)
(-0.06237 -0.00146292 0)
(-0.0469329 -0.0015726 0)
(-0.0304932 -0.00165279 0)
(-0.0133095 -0.00175185 0)
(0.00435437 -0.00179378 0)
(0.0225503 -0.00183054 0)
(0.0412683 -0.00188415 0)
(0.0602342 -0.00188399 0)
(0.0791908 -0.00185789 0)
(0.0978931 -0.0018399 0)
(0.116107 -0.00176768 0)
(0.133569 -0.00169251 0)
(0.150028 -0.00157187 0)
(0.165215 -0.00142559 0)
(0.178872 -0.00126744 0)
(0.19078 -0.00108151 0)
(0.200766 -0.00087212 0)
(0.208646 -0.000657845 0)
(0.214274 -0.000428677 0)
(0.217534 -0.0001856 0)
(0.218369 4.45069e-05 0)
(0.216799 0.00028658 0)
(0.21269 0.000509768 0)
(0.206353 0.000728128 0)
(0.197825 0.000947375 0)
(0.187257 0.00112527 0)
(0.174844 0.00130033 0)
(0.160827 0.0014607 0)
(0.145424 0.00157498 0)
(0.128849 0.00168243 0)
(0.111371 0.00174629 0)
(0.0931607 0.00179937 0)
(0.0746213 0.00183682 0)
(0.0560034 0.0018369 0)
(0.0374341 0.00183319 0)
(0.0191686 0.00180423 0)
(0.00147148 0.00175213 0)
(-0.0156933 0.00169567 0)
(-0.0324394 0.00162435 0)
(-0.0485234 0.0015519 0)
(-0.0637953 0.0014644 0)
(-0.0782114 0.00137521 0)
(-0.091713 0.00128414 0)
(-0.104178 0.00118558 0)
(-0.115665 0.00108883 0)
(-0.126207 0.000996344 0)
(-0.135779 0.000894691 0)
(-0.144402 0.00080501 0)
(-0.151946 0.000699841 0)
(-0.158542 0.000615532 0)
(-0.164335 0.000526473 0)
(-0.169106 0.000429921 0)
(-0.17293 0.000344518 0)
(-0.176 0.000263351 0)
(-0.178233 0.000173134 0)
(-0.179557 9.37756e-05 0)
(-0.180166 2.32055e-05 0)
(-0.179994 -5.00115e-05 0)
(-0.179099 -0.000120616 0)
(-0.177558 -0.000192414 0)
(-0.175296 -0.000258366 0)
(-0.172489 -0.000314689 0)
(-0.169109 -0.000359843 0)
(-0.164999 -0.000435372 0)
(-0.160369 -0.000490498 0)
(-0.154981 -0.000581343 0)
(-0.148639 -0.000650878 0)
(-0.141802 -0.000714229 0)
(-0.134198 -0.000807078 0)
(-0.125534 -0.000891573 0)
(-0.116168 -0.00096876 0)
(-0.105875 -0.00105489 0)
(-0.0948173 -0.00116513 0)
(-0.082697 -0.00125274 0)
(-0.0693922 -0.00134536 0)
(-0.055352 -0.00144013 0)
(-0.0404415 -0.00152309 0)
(-0.0246748 -0.00160095 0)
(-0.00820648 -0.00166033 0)
(0.00885997 -0.00171468 0)
(0.0263957 -0.0017562 0)
(0.044244 -0.00178293 0)
(0.0622447 -0.00178922 0)
(0.0802059 -0.00177216 0)
(0.0978985 -0.00173274 0)
(0.115065 -0.00167956 0)
(0.131553 -0.00158247 0)
(0.146999 -0.00147535 0)
(0.161192 -0.00134046 0)
(0.17395 -0.00118471 0)
(0.185016 -0.00100823 0)
(0.194197 -0.000815003 0)
(0.201347 -0.000606287 0)
(0.206335 -0.000381376 0)
(0.209044 -0.000156064 0)
(0.209474 7.72564e-05 0)
(0.207528 0.000313005 0)
(0.203108 0.000549221 0)
(0.196442 0.000768069 0)
(0.18758 0.000979302 0)
(0.176743 0.00117564 0)
(0.164046 0.00134941 0)
(0.149643 0.00149758 0)
(0.133838 0.00162803 0)
(0.116911 0.00172615 0)
(0.0991502 0.00179272 0)
(0.0808101 0.00184209 0)
(0.0621375 0.00186375 0)
(0.043373 0.0018593 0)
(0.0247332 0.0018336 0)
(0.00653395 0.00178244 0)
(-0.0111419 0.00172859 0)
(-0.0282097 0.00165039 0)
(-0.0443791 0.00156796 0)
(-0.0597845 0.0014812 0)
(-0.0742555 0.00137798 0)
(-0.0874789 0.00126949 0)
(-0.0997884 0.00116906 0)
(-0.111123 0.0010745 0)
(-0.121463 0.000983505 0)
(-0.130937 0.000887419 0)
(-0.139267 0.000779426 0)
(-0.146748 0.000702541 0)
(-0.153512 0.000621808 0)
(-0.15925 0.00052612 0)
(-0.164151 0.000443475 0)
(-0.168258 0.000373491 0)
(-0.171518 0.000284783 0)
(-0.174135 0.00022313 0)
(-0.176044 0.000152164 0)
(-0.17711 6.84744e-05 0)
(-0.177506 6.67217e-06 0)
(-0.177136 -7.14855e-05 0)
(-0.176076 -0.0001414 0)
(-0.174281 -0.000213522 0)
(-0.17165 -0.000295718 0)
(-0.168287 -0.00036835 0)
(-0.164253 -0.000436687 0)
(-0.159335 -0.00053256 0)
(-0.153508 -0.000610061 0)
(-0.147116 -0.000671147 0)
(-0.139872 -0.000769581 0)
(-0.13163 -0.000854879 0)
(-0.122754 -0.000910802 0)
(-0.113063 -0.00100449 0)
(-0.102599 -0.00106801 0)
(-0.09136 -0.00116411 0)
(-0.0791461 -0.00125445 0)
(-0.0661739 -0.00132293 0)
(-0.0524687 -0.00139474 0)
(-0.0379999 -0.00146681 0)
(-0.022948 -0.00152793 0)
(-0.00727112 -0.00158077 0)
(0.00898517 -0.00162633 0)
(0.0256183 -0.0016692 0)
(0.0426363 -0.00169581 0)
(0.0598009 -0.00171022 0)
(0.0770241 -0.0017102 0)
(0.0941797 -0.00168455 0)
(0.110973 -0.00164694 0)
(0.127246 -0.0015773 0)
(0.142754 -0.00149324 0)
(0.157235 -0.00137897 0)
(0.170445 -0.00124301 0)
(0.182122 -0.0010767 0)
(0.192042 -0.000885791 0)
(0.199957 -0.000675358 0)
(0.20564 -0.000449878 0)
(0.208938 -0.000206619 0)
(0.209758 3.64692e-05 0)
(0.208103 0.000290675 0)
(0.203816 0.000547034 0)
(0.197129 0.000787456 0)
(0.188054 0.00101224 0)
(0.176745 0.00121715 0)
(0.163553 0.00140282 0)
(0.148649 0.00154903 0)
(0.132295 0.00167921 0)
(0.114897 0.00176982 0)
(0.0967424 0.0018328 0)
(0.0781031 0.00186379 0)
(0.0592893 0.00186491 0)
(0.040611 0.00184368 0)
(0.0222944 0.001797 0)
(0.00447025 0.00173498 0)
(-0.0125877 0.00164714 0)
(-0.0287323 0.00155402 0)
(-0.0440105 0.00146439 0)
(-0.0581707 0.00136446 0)
(-0.0714211 0.0012647 0)
(-0.0837389 0.00116554 0)
(-0.0948129 0.00105813 0)
(-0.105221 0.00098989 0)
(-0.114758 0.000891425 0)
(-0.123152 0.000798489 0)
(-0.130884 0.000725388 0)
(-0.137857 0.000663704 0)
(-0.144162 0.000592321 0)
(-0.150036 0.000550904 0)
(-0.155169 0.000477513 0)
(-0.159667 0.000424986 0)
(-0.1638 0.000383907 0)
(-0.167325 0.000320182 0)
(-0.170235 0.00026339 0)
(-0.172613 0.000208337 0)
(-0.174445 0.000146602 0)
(-0.175617 9.13836e-05 0)
(-0.176127 2.00176e-05 0)
(-0.175973 -5.1266e-05 0)
(-0.175192 -0.000119442 0)
(-0.173671 -0.00018485 0)
(-0.171229 -0.000285225 0)
(-0.167943 -0.000361497 0)
(-0.163979 -0.000438799 0)
(-0.158981 -0.000546317 0)
(-0.153086 -0.00062362 0)
(-0.146167 -0.000744827 0)
(-0.138016 -0.000861255 0)
(-0.128963 -0.000948643 0)
(-0.118827 -0.00105843 0)
(-0.107508 -0.00116441 0)
(-0.0952825 -0.00128412 0)
(-0.0818856 -0.00138044 0)
(-0.0673978 -0.00146074 0)
(-0.0520873 -0.00156765 0)
(-0.0358504 -0.0016574 0)
(-0.0188177 -0.00172357 0)
(-0.00113057 -0.00178102 0)
(0.0170899 -0.00182288 0)
(0.0356044 -0.00184657 0)
(0.0542413 -0.0018532 0)
(0.0728149 -0.00183346 0)
(0.0911243 -0.00179572 0)
(0.108951 -0.00173095 0)
(0.12602 -0.00164751 0)
(0.142116 -0.00154264 0)
(0.157042 -0.00140454 0)
(0.170525 -0.00125678 0)
(0.182348 -0.00108878 0)
(0.19241 -0.000891723 0)
(0.200467 -0.000692158 0)
(0.206391 -0.000480426 0)
(0.210125 -0.000260883 0)
(0.211638 -3.61224e-05 0)
(0.210959 0.000186901 0)
(0.207891 0.000419828 0)
(0.202632 0.00063704 0)
(0.195203 0.00084246 0)
(0.185752 0.0010354 0)
(0.174469 0.00121489 0)
(0.161463 0.00137848 0)
(0.146929 0.00151547 0)
(0.13105 0.00163576 0)
(0.114072 0.00173413 0)
(0.0962077 0.00179509 0)
(0.0778098 0.00186073 0)
(0.0590777 0.00188176 0)
(0.0400694 0.00187756 0)
(0.0210465 0.00185528 0)
(0.00281472 0.00181871 0)
(-0.0147608 0.00176829 0)
(-0.0320505 0.00169707 0)
(-0.0485853 0.00161302 0)
(-0.0642896 0.00152424 0)
(-0.0790304 0.00142536 0)
(-0.0927672 0.00132129 0)
(-0.105468 0.00121647 0)
(-0.117083 0.00110784 0)
(-0.127628 0.00100057 0)
(-0.137115 0.000894885 0)
(-0.145563 0.000789106 0)
(-0.152987 0.000690476 0)
(-0.159395 0.000588398 0)
(-0.164826 0.000491452 0)
(-0.169306 0.000399452 0)
(-0.172854 0.000307769 0)
(-0.175514 0.000218444 0)
(-0.177291 0.00013568 0)
(-0.178251 5.61296e-05 0)
(-0.17844 -2.37457e-05 0)
(-0.177778 -0.000103138 0)
(-0.176361 -0.000177906 0)
(-0.174205 -0.000249049 0)
(-0.171308 -0.000320481 0)
(-0.167691 -0.00039333 0)
(-0.163362 -0.000462133 0)
(-0.158323 -0.000535324 0)
(-0.15258 -0.000603273 0)
(-0.146122 -0.000672765 0)
(-0.138942 -0.000748812 0)
(-0.131048 -0.00081728 0)
(-0.122426 -0.000887055 0)
(-0.113067 -0.000966341 0)
(-0.102975 -0.00103471 0)
(-0.0921441 -0.00111521 0)
(-0.0805792 -0.00118166 0)
(-0.0682993 -0.00124627 0)
(-0.0553328 -0.00132342 0)
(-0.0416983 -0.00137863 0)
(-0.0274264 -0.00142805 0)
(-0.0124459 -0.00149416 0)
(0.00272034 -0.00152734 0)
(0.0180579 -0.00155034 0)
(0.0339021 -0.00158531 0)
(0.0498929 -0.00158278 0)
(0.0658835 -0.0015904 0)
(0.0817269 -0.00155891 0)
(0.0972523 -0.00151024 0)
(0.112288 -0.00146694 0)
(0.126665 -0.0013851 0)
(0.140196 -0.00128615 0)
(0.152702 -0.00118557 0)
(0.164012 -0.00105393 0)
(0.173962 -0.000916861 0)
(0.182401 -0.000756729 0)
(0.189193 -0.000586094 0)
(0.194226 -0.000408204 0)
(0.197424 -0.000221192 0)
(0.198738 -3.00391e-05 0)
(0.198168 0.000162353 0)
(0.195599 0.000356802 0)
(0.191089 0.000541764 0)
(0.184726 0.000721442 0)
(0.176605 0.000893051 0)
(0.166845 0.00103909 0)
(0.155616 0.00118146 0)
(0.141091 0.00130781 0)
(-0.121049 0.00292111 0)
(-0.128688 0.00262951 0)
(-0.1371 0.0023681 0)
(-0.144619 0.00211376 0)
(-0.151295 0.00186068 0)
(-0.157159 0.00162684 0)
(-0.162246 0.00139717 0)
(-0.166587 0.00118141 0)
(-0.17021 0.000972436 0)
(-0.173139 0.000768124 0)
(-0.175397 0.000568079 0)
(-0.177005 0.000369234 0)
(-0.177934 0.000181212 0)
(-0.178236 -6.00854e-06 0)
(-0.177874 -0.000208264 0)
(-0.176843 -0.000412418 0)
(-0.175121 -0.000619555 0)
(-0.172691 -0.000835276 0)
(-0.169533 -0.00105612 0)
(-0.165609 -0.00128484 0)
(-0.160888 -0.00153156 0)
(-0.155338 -0.00178053 0)
(-0.148917 -0.00203938 0)
(-0.141587 -0.00232626 0)
(-0.13331 -0.00260451 0)
(-0.124053 -0.00291791 0)
(-0.113791 -0.00320808 0)
(-0.102504 -0.00349961 0)
(-0.0901739 -0.00383809 0)
(-0.0768024 -0.00412045 0)
(-0.0624125 -0.00438894 0)
(-0.0469749 -0.00471788 0)
(-0.0305325 -0.00495875 0)
(-0.0133421 -0.00525571 0)
(0.00432704 -0.00538171 0)
(0.0225264 -0.00549244 0)
(0.0412522 -0.00565342 0)
(0.0602266 -0.00565297 0)
(0.0791918 -0.0055748 0)
(0.097905 -0.00552094 0)
(0.116128 -0.00530434 0)
(0.133602 -0.00507908 0)
(0.150073 -0.0047169 0)
(0.16527 -0.00427702 0)
(0.178938 -0.00380323 0)
(0.190856 -0.00324443 0)
(0.200844 -0.00262393 0)
(0.208742 -0.0019677 0)
(0.214373 -0.00128534 0)
(0.217638 -0.000558233 0)
(0.218477 0.000131503 0)
(0.216896 0.000858896 0)
(0.212792 0.00152873 0)
(0.206455 0.00218421 0)
(0.197925 0.00284236 0)
(0.187351 0.00337625 0)
(0.174932 0.00390155 0)
(0.160907 0.00438292 0)
(0.145495 0.0047258 0)
(0.128909 0.00504828 0)
(0.111419 0.00523989 0)
(0.0931993 0.00539884 0)
(0.0746498 0.00551155 0)
(0.0560219 0.00551304 0)
(0.0374415 0.00550179 0)
(0.0191643 0.00541231 0)
(0.0014603 0.00525876 0)
(-0.0157139 0.00508956 0)
(-0.0324679 0.00487401 0)
(-0.0485591 0.00465344 0)
(-0.0638355 0.00439381 0)
(-0.0782573 0.00412579 0)
(-0.0917634 0.00385675 0)
(-0.104235 0.00355946 0)
(-0.115727 0.00326437 0)
(-0.12627 0.00298801 0)
(-0.135846 0.00268369 0)
(-0.144476 0.00241367 0)
(-0.152023 0.00209577 0)
(-0.158622 0.0018442 0)
(-0.164415 0.00158182 0)
(-0.169187 0.00129283 0)
(-0.173024 0.00103119 0)
(-0.176093 0.000787996 0)
(-0.178318 0.000526625 0)
(-0.179653 0.000283762 0)
(-0.180255 7.49786e-05 0)
(-0.180078 -0.000146036 0)
(-0.17918 -0.000363251 0)
(-0.177631 -0.00057663 0)
(-0.175375 -0.000770321 0)
(-0.172565 -0.000937924 0)
(-0.169192 -0.00107911 0)
(-0.165084 -0.00132121 0)
(-0.160442 -0.00147002 0)
(-0.155054 -0.00173821 0)
(-0.148704 -0.0019549 0)
(-0.141873 -0.00214177 0)
(-0.134271 -0.00241587 0)
(-0.125615 -0.00269354 0)
(-0.116228 -0.0028898 0)
(-0.105948 -0.00317858 0)
(-0.0948791 -0.00349629 0)
(-0.0827646 -0.00376198 0)
(-0.0694473 -0.00403287 0)
(-0.0553918 -0.00431859 0)
(-0.0404787 -0.00457353 0)
(-0.0247055 -0.00480786 0)
(-0.00821793 -0.00498388 0)
(0.00884189 -0.00515506 0)
(0.0263899 -0.00527813 0)
(0.0442562 -0.00535496 0)
(0.0622707 -0.00537175 0)
(0.080246 -0.00531894 0)
(0.0979479 -0.00520251 0)
(0.115152 -0.0050251 0)
(0.131635 -0.00475055 0)
(0.147094 -0.0044305 0)
(0.161305 -0.00401925 0)
(0.174082 -0.00354651 0)
(0.185153 -0.00302334 0)
(0.194338 -0.0024478 0)
(0.201499 -0.00181789 0)
(0.206489 -0.00115012 0)
(0.209211 -0.00045909 0)
(0.209632 0.000222582 0)
(0.207677 0.000940167 0)
(0.203259 0.00164626 0)
(0.196584 0.00230228 0)
(0.18772 0.00294154 0)
(0.176871 0.00352328 0)
(0.164156 0.00404833 0)
(0.149735 0.00449219 0)
(0.133917 0.00488073 0)
(0.116982 0.00518165 0)
(0.0992105 0.00539436 0)
(0.0808404 0.00552348 0)
(0.0621522 0.00558792 0)
(0.0433722 0.00557792 0)
(0.0247236 0.0055024 0)
(0.00651922 0.00536232 0)
(-0.0111784 0.00518222 0)
(-0.028252 0.00495295 0)
(-0.0444328 0.00470459 0)
(-0.0598481 0.00444383 0)
(-0.0743261 0.00413867 0)
(-0.0875518 0.00380821 0)
(-0.0998656 0.00350625 0)
(-0.111204 0.00322559 0)
(-0.121548 0.00294354 0)
(-0.131024 0.00265967 0)
(-0.139344 0.00234779 0)
(-0.146835 0.0021073 0)
(-0.153602 0.00186706 0)
(-0.15934 0.00157937 0)
(-0.164238 0.00133512 0)
(-0.168352 0.0011187 0)
(-0.171606 0.000853362 0)
(-0.174225 0.000670522 0)
(-0.176142 0.000451913 0)
(-0.17721 0.000202653 0)
(-0.177596 1.97074e-05 0)
(-0.177224 -0.000212579 0)
(-0.176156 -0.000417979 0)
(-0.17437 -0.000651527 0)
(-0.171727 -0.000886277 0)
(-0.168362 -0.00109966 0)
(-0.164352 -0.0013239 0)
(-0.159409 -0.00159099 0)
(-0.153579 -0.00183012 0)
(-0.147188 -0.00201193 0)
(-0.139951 -0.00230073 0)
(-0.131712 -0.00257441 0)
(-0.12283 -0.00274047 0)
(-0.113122 -0.00300508 0)
(-0.10265 -0.00319931 0)
(-0.0914193 -0.00349347 0)
(-0.0792065 -0.00377588 0)
(-0.0662243 -0.00396674 0)
(-0.0525089 -0.00417733 0)
(-0.0380329 -0.00440545 0)
(-0.022973 -0.00459394 0)
(-0.00728495 -0.00474352 0)
(0.00897472 -0.00488678 0)
(0.0256273 -0.00500172 0)
(0.0426374 -0.00509671 0)
(0.0598297 -0.00512799 0)
(0.0770692 -0.00512621 0)
(0.0942169 -0.0050654 0)
(0.111038 -0.00494038 0)
(0.127319 -0.00474014 0)
(0.142841 -0.00448525 0)
(0.157349 -0.00412503 0)
(0.170566 -0.00372549 0)
(0.182253 -0.00322898 0)
(0.192179 -0.00266579 0)
(0.200114 -0.00202468 0)
(0.2058 -0.00135348 0)
(0.2091 -0.000623679 0)
(0.209922 0.000106147 0)
(0.208255 0.000874368 0)
(0.203977 0.00163991 0)
(0.197282 0.00235956 0)
(0.188189 0.00303609 0)
(0.176865 0.00364529 0)
(0.163671 0.00421069 0)
(0.148756 0.00466266 0)
(0.132374 0.00503488 0)
(0.114961 0.00531105 0)
(0.096786 0.00549943 0)
(0.0781352 0.00559692 0)
(0.0593017 0.00559969 0)
(0.0406009 0.00552451 0)
(0.0222763 0.00539232 0)
(0.00444296 0.00520947 0)
(-0.0126242 0.00495622 0)
(-0.0287822 0.00465675 0)
(-0.0440628 0.00439279 0)
(-0.0582314 0.00409256 0)
(-0.0714907 0.00379366 0)
(-0.083814 0.00349488 0)
(-0.0948882 0.00317112 0)
(-0.10529 0.00296739 0)
(-0.114829 0.0026873 0)
(-0.123237 0.00239197 0)
(-0.130956 0.00218243 0)
(-0.137936 0.00198962 0)
(-0.144239 0.00177456 0)
(-0.15012 0.00165461 0)
(-0.155253 0.00142996 0)
(-0.159745 0.00127359 0)
(-0.163883 0.00115325 0)
(-0.16741 0.000963557 0)
(-0.170322 0.000786425 0)
(-0.172701 0.000626041 0)
(-0.174532 0.000437699 0)
(-0.175697 0.000276188 0)
(-0.176208 6.60945e-05 0)
(-0.17606 -0.000145924 0)
(-0.175274 -0.000351803 0)
(-0.173776 -0.000562974 0)
(-0.171306 -0.000844648 0)
(-0.168027 -0.00108198 0)
(-0.164062 -0.00131096 0)
(-0.159065 -0.00164019 0)
(-0.153179 -0.00187854 0)
(-0.146255 -0.00223525 0)
(-0.138086 -0.00258317 0)
(-0.12903 -0.0028472 0)
(-0.118909 -0.00317597 0)
(-0.107581 -0.00350689 0)
(-0.0953526 -0.0038559 0)
(-0.0819425 -0.0041274 0)
(-0.0674686 -0.00439479 0)
(-0.0521351 -0.0047054 0)
(-0.0358878 -0.00497841 0)
(-0.0188402 -0.0051715 0)
(-0.00114616 -0.00534359 0)
(0.0170816 -0.00547832 0)
(0.0356149 -0.0055378 0)
(0.0542688 -0.00555676 0)
(0.0728543 -0.00549902 0)
(0.0911722 -0.00539056 0)
(0.10901 -0.00520447 0)
(0.126101 -0.00494345 0)
(0.142214 -0.00462547 0)
(0.157143 -0.00422265 0)
(0.170633 -0.00378087 0)
(0.182479 -0.00326066 0)
(0.19253 -0.00269367 0)
(0.200607 -0.00207192 0)
(0.206536 -0.00143797 0)
(0.210274 -0.00077901 0)
(0.211788 -0.000109639 0)
(0.211099 0.000564781 0)
(0.20802 0.00126139 0)
(0.20276 0.00190728 0)
(0.195326 0.00252801 0)
(0.185866 0.00310821 0)
(0.174573 0.00364617 0)
(0.161553 0.0041361 0)
(0.14701 0.00454665 0)
(0.13112 0.00491114 0)
(0.114129 0.00520329 0)
(0.0962565 0.00538925 0)
(0.0778458 0.00558315 0)
(0.059098 0.00564614 0)
(0.0400785 0.00563429 0)
(0.021044 0.00556481 0)
(0.00280803 0.00545755 0)
(-0.0147762 0.00530662 0)
(-0.0320732 0.00509245 0)
(-0.0486136 0.00484034 0)
(-0.064322 0.00457437 0)
(-0.0790672 0.00427583 0)
(-0.092806 0.00396152 0)
(-0.105508 0.00364968 0)
(-0.117124 0.00332527 0)
(-0.127669 0.00300355 0)
(-0.137156 0.0026856 0)
(-0.145605 0.00236771 0)
(-0.153029 0.00207006 0)
(-0.159435 0.00176507 0)
(-0.164865 0.00147484 0)
(-0.169344 0.00119894 0)
(-0.172891 0.00092327 0)
(-0.17555 0.000656526 0)
(-0.177331 0.000407624 0)
(-0.178286 0.000168501 0)
(-0.178475 -7.09522e-05 0)
(-0.177811 -0.000309084 0)
(-0.176393 -0.000533912 0)
(-0.174237 -0.000747088 0)
(-0.17134 -0.000961345 0)
(-0.167722 -0.0011799 0)
(-0.163394 -0.00138629 0)
(-0.158354 -0.00160587 0)
(-0.152611 -0.00180972 0)
(-0.146154 -0.00201817 0)
(-0.138975 -0.00224623 0)
(-0.13108 -0.00245176 0)
(-0.122458 -0.00266107 0)
(-0.1131 -0.00289897 0)
(-0.103008 -0.00310411 0)
(-0.0921768 -0.00334566 0)
(-0.0806111 -0.00354506 0)
(-0.0683301 -0.00373887 0)
(-0.0553622 -0.00397045 0)
(-0.0417255 -0.00413617 0)
(-0.0274517 -0.00428459 0)
(-0.012468 -0.00448293 0)
(0.00270247 -0.00458194 0)
(0.0180443 -0.00465144 0)
(0.0338937 -0.00475637 0)
(0.04989 -0.00474883 0)
(0.0658867 -0.00477186 0)
(0.0817366 -0.00467741 0)
(0.0972687 -0.00453143 0)
(0.112312 -0.00440158 0)
(0.126696 -0.00415606 0)
(0.140234 -0.00385917 0)
(0.152748 -0.00355745 0)
(0.164064 -0.0031625 0)
(0.174021 -0.00275134 0)
(0.182466 -0.00227074 0)
(0.189261 -0.00175867 0)
(0.194299 -0.00122486 0)
(0.197498 -0.000663594 0)
(0.198816 -9.00272e-05 0)
(0.198247 0.000487142 0)
(0.195673 0.0010706 0)
(0.191161 0.00162553 0)
(0.184795 0.00216477 0)
(0.17667 0.00267972 0)
(0.166903 0.00311791 0)
(0.155667 0.0035451 0)
(0.141135 0.00392422 0)
(-0.121124 0.00486819 0)
(-0.12876 0.00438215 0)
(-0.137169 0.00394647 0)
(-0.144686 0.00352259 0)
(-0.151359 0.00310079 0)
(-0.157221 0.00271109 0)
(-0.162304 0.00232836 0)
(-0.166643 0.00196881 0)
(-0.170265 0.00162056 0)
(-0.173192 0.00128018 0)
(-0.175448 0.00094717 0)
(-0.177054 0.000616703 0)
(-0.177983 0.000305639 0)
(-0.178291 -1.42465e-05 0)
(-0.177928 -0.000348046 0)
(-0.176898 -0.000687102 0)
(-0.175177 -0.00103212 0)
(-0.172749 -0.00139169 0)
(-0.169593 -0.00175975 0)
(-0.165672 -0.00214088 0)
(-0.160954 -0.00255206 0)
(-0.155406 -0.00296701 0)
(-0.148988 -0.00339845 0)
(-0.141662 -0.00387662 0)
(-0.133387 -0.00434045 0)
(-0.124133 -0.00486288 0)
(-0.113872 -0.00534663 0)
(-0.102585 -0.00583265 0)
(-0.0902556 -0.006397 0)
(-0.0768818 -0.00686785 0)
(-0.0624884 -0.00731558 0)
(-0.0470489 -0.00786343 0)
(-0.0306002 -0.00826586 0)
(-0.0133953 -0.00876111 0)
(0.00428544 -0.00897111 0)
(0.022493 -0.00915686 0)
(0.0412351 -0.00942536 0)
(0.060227 -0.0094247 0)
(0.0792101 -0.00929453 0)
(0.0979446 -0.00920505 0)
(0.116187 -0.00884397 0)
(0.133684 -0.00846856 0)
(0.150174 -0.00786503 0)
(0.16539 -0.00713296 0)
(0.179077 -0.00634132 0)
(0.191012 -0.00540908 0)
(0.201014 -0.00437097 0)
(0.208914 -0.0032892 0)
(0.214561 -0.00214281 0)
(0.217836 -0.000927743 0)
(0.21867 0.000213961 0)
(0.217061 0.00143319 0)
(0.212965 0.00254689 0)
(0.206623 0.00364164 0)
(0.198082 0.00473929 0)
(0.187493 0.00562945 0)
(0.175058 0.00650504 0)
(0.161016 0.00730821 0)
(0.145584 0.00787922 0)
(0.128977 0.00841691 0)
(0.111467 0.00873613 0)
(0.0932306 0.00900124 0)
(0.074665 0.00918917 0)
(0.0560202 0.00918992 0)
(0.0374256 0.00917333 0)
(0.0191336 0.0090234 0)
(0.00141821 0.00876721 0)
(-0.0157669 0.00848465 0)
(-0.0325272 0.0081239 0)
(-0.0486239 0.00775871 0)
(-0.0639056 0.00732409 0)
(-0.07833 0.00687736 0)
(-0.0918436 0.00642612 0)
(-0.104315 0.00593353 0)
(-0.115806 0.00544265 0)
(-0.12635 0.00497999 0)
(-0.135925 0.00447422 0)
(-0.14456 0.00402577 0)
(-0.1521 0.0034964 0)
(-0.158697 0.00307223 0)
(-0.164492 0.00263681 0)
(-0.169262 0.00215888 0)
(-0.173099 0.00172421 0)
(-0.17617 0.00131002 0)
(-0.178393 0.000876156 0)
(-0.179728 0.000472007 0)
(-0.180325 0.000117046 0)
(-0.180136 -0.000250456 0)
(-0.179224 -0.000612745 0)
(-0.177668 -0.000949251 0)
(-0.175416 -0.00128095 0)
(-0.1726 -0.0015627 0)
(-0.16925 -0.00179953 0)
(-0.16512 -0.00218388 0)
(-0.160501 -0.00245391 0)
(-0.155128 -0.00290127 0)
(-0.148752 -0.00324815 0)
(-0.141938 -0.00357114 0)
(-0.134345 -0.00402913 0)
(-0.125676 -0.00447731 0)
(-0.116325 -0.00483077 0)
(-0.10602 -0.00529177 0)
(-0.0949674 -0.00583491 0)
(-0.0828825 -0.00626634 0)
(-0.0695443 -0.00673187 0)
(-0.055462 -0.00720025 0)
(-0.0405472 -0.00762247 0)
(-0.024764 -0.00800988 0)
(-0.00827566 -0.00830403 0)
(0.00878869 -0.00859402 0)
(0.0263503 -0.00879566 0)
(0.0442325 -0.00892584 0)
(0.062264 -0.00895482 0)
(0.0802548 -0.00886872 0)
(0.0979747 -0.00867351 0)
(0.115201 -0.00838395 0)
(0.131705 -0.00791667 0)
(0.147179 -0.00738748 0)
(0.16141 -0.00671243 0)
(0.174203 -0.00591947 0)
(0.185296 -0.00503833 0)
(0.194499 -0.00407646 0)
(0.201664 -0.00303422 0)
(0.206654 -0.00192625 0)
(0.209389 -0.000780407 0)
(0.209822 0.000383434 0)
(0.207838 0.00156534 0)
(0.203436 0.00274323 0)
(0.196747 0.00383667 0)
(0.187876 0.0048955 0)
(0.177023 0.00588318 0)
(0.164276 0.00675583 0)
(0.149843 0.00748434 0)
(0.134004 0.0081377 0)
(0.117038 0.00863575 0)
(0.0992476 0.00898452 0)
(0.0808683 0.00921392 0)
(0.0621595 0.00932201 0)
(0.0433535 0.00930151 0)
(0.0246823 0.0091692 0)
(0.00646272 0.00893264 0)
(-0.0112419 0.00864039 0)
(-0.0283193 0.00826052 0)
(-0.0445045 0.00784419 0)
(-0.0599397 0.00740195 0)
(-0.0744217 0.00689831 0)
(-0.0876328 0.00635193 0)
(-0.0999513 0.00584645 0)
(-0.111288 0.00537091 0)
(-0.121627 0.00490517 0)
(-0.131112 0.00444012 0)
(-0.139425 0.00390941 0)
(-0.146909 0.00351296 0)
(-0.153683 0.0031101 0)
(-0.159415 0.00262995 0)
(-0.164305 0.00222363 0)
(-0.168425 0.00186152 0)
(-0.171669 0.00142056 0)
(-0.174291 0.00111621 0)
(-0.176216 0.000754156 0)
(-0.177279 0.000341594 0)
(-0.177661 3.43758e-05 0)
(-0.177283 -0.000353182 0)
(-0.176207 -0.000708476 0)
(-0.174412 -0.00107806 0)
(-0.171776 -0.00147087 0)
(-0.168415 -0.00183447 0)
(-0.164414 -0.00220085 0)
(-0.159489 -0.00266253 0)
(-0.153623 -0.00304589 0)
(-0.147247 -0.00335428 0)
(-0.140032 -0.00383419 0)
(-0.131766 -0.00428432 0)
(-0.12289 -0.00456334 0)
(-0.113197 -0.00502015 0)
(-0.102714 -0.00533042 0)
(-0.0914896 -0.00581032 0)
(-0.0792882 -0.00629889 0)
(-0.0663037 -0.00662618 0)
(-0.0525898 -0.00697142 0)
(-0.0380952 -0.00733429 0)
(-0.0230241 -0.00764995 0)
(-0.00733242 -0.00790804 0)
(0.00892547 -0.00814385 0)
(0.0255785 -0.00834067 0)
(0.0426018 -0.00849753 0)
(0.0598118 -0.00855327 0)
(0.0770719 -0.00854497 0)
(0.0942312 -0.00844305 0)
(0.111074 -0.0082375 0)
(0.127368 -0.00790004 0)
(0.142909 -0.00748312 0)
(0.157432 -0.00689163 0)
(0.170676 -0.00621532 0)
(0.182392 -0.00538565 0)
(0.19234 -0.00444203 0)
(0.200278 -0.00338429 0)
(0.205987 -0.00225124 0)
(0.209296 -0.00103901 0)
(0.210115 0.000167988 0)
(0.208426 0.00145515 0)
(0.204168 0.00273111 0)
(0.197473 0.00394342 0)
(0.188348 0.00506401 0)
(0.177015 0.00607399 0)
(0.163797 0.00702137 0)
(0.148855 0.0077661 0)
(0.132458 0.00839642 0)
(0.115019 0.00885796 0)
(0.0968125 0.00917019 0)
(0.078139 0.00932592 0)
(0.0592958 0.00934026 0)
(0.0405708 0.00921934 0)
(0.0222211 0.00898491 0)
(0.00436851 0.00867911 0)
(-0.0127105 0.00825336 0)
(-0.0288676 0.00776327 0)
(-0.044146 0.00732271 0)
(-0.0583201 0.00682785 0)
(-0.0715808 0.00631712 0)
(-0.0839065 0.00583335 0)
(-0.0949563 0.0052841 0)
(-0.105357 0.00494204 0)
(-0.114918 0.00447517 0)
(-0.123311 0.00399223 0)
(-0.131025 0.00362899 0)
(-0.137997 0.003315 0)
(-0.144286 0.00296184 0)
(-0.150184 0.00275321 0)
(-0.155311 0.00237645 0)
(-0.159785 0.0021279 0)
(-0.163938 0.00191892 0)
(-0.167471 0.00159933 0)
(-0.170372 0.00131131 0)
(-0.172766 0.00104076 0)
(-0.17458 0.00072535 0)
(-0.175734 0.000468502 0)
(-0.176255 0.000109485 0)
(-0.176107 -0.000247061 0)
(-0.175323 -0.000592151 0)
(-0.173836 -0.000934789 0)
(-0.171373 -0.00140683 0)
(-0.168088 -0.00180686 0)
(-0.164136 -0.00218744 0)
(-0.159134 -0.00272534 0)
(-0.153264 -0.00312974 0)
(-0.14636 -0.00372531 0)
(-0.138169 -0.00430403 0)
(-0.129108 -0.00474858 0)
(-0.119017 -0.00528673 0)
(-0.107664 -0.00583972 0)
(-0.0954556 -0.00643998 0)
(-0.082066 -0.00689002 0)
(-0.0675502 -0.0073105 0)
(-0.0522165 -0.00785199 0)
(-0.0359516 -0.00829823 0)
(-0.0189 -0.00862506 0)
(-0.00119646 -0.00890643 0)
(0.0170439 -0.00912677 0)
(0.035586 -0.00923368 0)
(0.0542548 -0.00926798 0)
(0.0728603 -0.00917363 0)
(0.0912003 -0.00898729 0)
(0.109061 -0.00867851 0)
(0.126167 -0.00824495 0)
(0.1423 -0.00771893 0)
(0.157253 -0.00703475 0)
(0.170755 -0.00630133 0)
(0.182622 -0.00543784 0)
(0.192686 -0.00447905 0)
(0.200757 -0.00346652 0)
(0.206704 -0.00239889 0)
(0.210452 -0.00129924 0)
(0.211968 -0.000182254 0)
(0.211258 0.000942073 0)
(0.208182 0.00210037 0)
(0.202926 0.00318161 0)
(0.195483 0.00421308 0)
(0.186013 0.00518782 0)
(0.174705 0.00607958 0)
(0.161669 0.00689565 0)
(0.147109 0.00758106 0)
(0.131203 0.00818673 0)
(0.114192 0.00867749 0)
(0.0963044 0.0089857 0)
(0.0778783 0.00930749 0)
(0.0591056 0.00941374 0)
(0.0400661 0.00939306 0)
(0.0210194 0.00927688 0)
(0.00277438 0.009099 0)
(-0.0148262 0.0088472 0)
(-0.0321345 0.00849014 0)
(-0.048683 0.00806922 0)
(-0.0644003 0.00762506 0)
(-0.0791486 0.00712856 0)
(-0.0928878 0.0066076 0)
(-0.105592 0.00608769 0)
(-0.117209 0.00554339 0)
(-0.127755 0.00500342 0)
(-0.137242 0.00447746 0)
(-0.145686 0.00394563 0)
(-0.153109 0.00345004 0)
(-0.159513 0.00294263 0)
(-0.16494 0.00245882 0)
(-0.169417 0.00199757 0)
(-0.17296 0.00154068 0)
(-0.175618 0.00109513 0)
(-0.1774 0.000678784 0)
(-0.178355 0.000279891 0)
(-0.178537 -0.000118654 0)
(-0.177872 -0.000514917 0)
(-0.176452 -0.000890751 0)
(-0.174294 -0.00124539 0)
(-0.171396 -0.00160237 0)
(-0.167778 -0.0019666 0)
(-0.163449 -0.0023105 0)
(-0.158411 -0.00267646 0)
(-0.152668 -0.00301618 0)
(-0.14621 -0.00336352 0)
(-0.139032 -0.00374344 0)
(-0.131137 -0.00408623 0)
(-0.122516 -0.00443503 0)
(-0.113158 -0.00483164 0)
(-0.103065 -0.00517362 0)
(-0.0922346 -0.00557627 0)
(-0.0806676 -0.00590875 0)
(-0.0683843 -0.00623174 0)
(-0.0554138 -0.00661802 0)
(-0.041773 -0.00689438 0)
(-0.0274953 -0.00714185 0)
(-0.0125058 -0.00747225 0)
(0.00267303 -0.00763797 0)
(0.0180233 -0.00775405 0)
(0.0338829 -0.00792896 0)
(0.0498899 -0.00791648 0)
(0.065899 -0.00795519 0)
(0.0817613 -0.00779785 0)
(0.0973062 -0.00755465 0)
(0.112365 -0.00733837 0)
(0.126762 -0.00692914 0)
(0.140313 -0.00643426 0)
(0.152843 -0.00593134 0)
(0.164171 -0.00527292 0)
(0.174142 -0.00458761 0)
(0.182595 -0.00378625 0)
(0.189399 -0.00293239 0)
(0.194444 -0.00204222 0)
(0.197647 -0.00110588 0)
(0.198974 -0.000148115 0)
(0.198403 0.000810911 0)
(0.195821 0.00178474 0)
(0.191306 0.00271003 0)
(0.184933 0.00360945 0)
(0.176799 0.00446811 0)
(0.167018 0.00519867 0)
(0.15577 0.00591092 0)
(0.14122 0.00654303 0)
(-0.121235 0.00681478 0)
(-0.128868 0.00613423 0)
(-0.137274 0.00552421 0)
(-0.144786 0.00493077 0)
(-0.151454 0.00434026 0)
(-0.157312 0.00379478 0)
(-0.162392 0.0032591 0)
(-0.166727 0.00275587 0)
(-0.170347 0.00226841 0)
(-0.173272 0.00179207 0)
(-0.175525 0.00132679 0)
(-0.177127 0.000866605 0)
(-0.178064 0.000425749 0)
(-0.178368 -2.22948e-05 0)
(-0.178008 -0.000488863 0)
(-0.176979 -0.000961386 0)
(-0.17526 -0.00144413 0)
(-0.172836 -0.00194755 0)
(-0.169682 -0.00246276 0)
(-0.165765 -0.00299621 0)
(-0.161052 -0.00357181 0)
(-0.155509 -0.00415271 0)
(-0.149095 -0.00475676 0)
(-0.141774 -0.00542626 0)
(-0.133502 -0.00607579 0)
(-0.124253 -0.00680738 0)
(-0.113993 -0.00748489 0)
(-0.102706 -0.00816562 0)
(-0.0903783 -0.0089561 0)
(-0.0770011 -0.00961572 0)
(-0.0626022 -0.010243 0)
(-0.04716 -0.0110091 0)
(-0.0307021 -0.0115744 0)
(-0.0134754 -0.0122696 0)
(0.00422255 -0.0125637 0)
(0.0224422 -0.0128257 0)
(0.0412092 -0.0132018 0)
(0.0602273 -0.013201 0)
(0.0792371 -0.0130191 0)
(0.0980039 -0.0128944 0)
(0.116276 -0.012389 0)
(0.133807 -0.0118636 0)
(0.150326 -0.0110186 0)
(0.16557 -0.0099926 0)
(0.179286 -0.00888552 0)
(0.191244 -0.00758059 0)
(0.201268 -0.00612464 0)
(0.209183 -0.00460619 0)
(0.21484 -0.00300934 0)
(0.218125 -0.00130833 0)
(0.218949 0.000312637 0)
(0.217316 0.00200941 0)
(0.213227 0.003564 0)
(0.206874 0.00510165 0)
(0.198318 0.00663956 0)
(0.187705 0.00788643 0)
(0.175247 0.00911265 0)
(0.161178 0.010239 0)
(0.145716 0.0110371 0)
(0.129078 0.01179 0)
(0.111537 0.0122369 0)
(0.0932759 0.0126084 0)
(0.0746867 0.0128709 0)
(0.0560193 0.0128717 0)
(0.0374008 0.0128521 0)
(0.0190851 0.012636 0)
(0.0013548 0.0122775 0)
(-0.0158461 0.0118834 0)
(-0.0326153 0.0113766 0)
(-0.0487246 0.0108635 0)
(-0.0640137 0.0102535 0)
(-0.0784403 0.00963027 0)
(-0.0919594 0.0090014 0)
(-0.104434 0.00830842 0)