/*--------------------------------*- C++ -*----------------------------------*\
| =========                 |                                                 |
| \\      /  F ield         | OpenFOAM: The Open Source CFD Toolbox           |
|  \\    /   O peration     | Version:  3.0.1                                 |
|   \\  /    A nd           | Web:      www.OpenFOAM.org                      |
|    \\/     M anipulation  |                                                 |
\*---------------------------------------------------------------------------*/
FoamFile
{
    version     2.0;
    format      ascii;
    class       surfaceScalarField;
    location    "86.6";
    object      phi;
}
// * * * * * * * * * * * * * * * * * * * * * * * * * * * * * * * * * * * * * //

dimensions      [0 3 -1 0 0 0 0];

internalField   nonuniform List<scalar> 
42423
(
0.000214542
6.11498e-06
0.000206565
7.97638e-06
0.000196429
1.01362e-05
0.000184207
1.22218e-05
0.000170414
1.37928e-05
0.00015502
1.53942e-05
0.000138441
1.65793e-05
0.000120891
1.75501e-05
0.000102545
1.83457e-05
8.38019e-05
1.87433e-05
6.48021e-05
1.89999e-05
4.59214e-05
1.88806e-05
2.71978e-05
1.87236e-05
9.08317e-06
1.81147e-05
-8.63476e-06
1.77179e-05
-2.56108e-05
1.6976e-05
-4.17481e-05
1.61373e-05
-5.69679e-05
1.52198e-05
-7.12484e-05
1.42806e-05
-8.45295e-05
1.3281e-05
-9.67884e-05
1.22589e-05
-0.000108056
1.12676e-05
-0.000118321
1.02651e-05
-0.000127592
9.27121e-06
-0.000135922
8.32993e-06
-0.00014333
7.40785e-06
-0.000149854
6.52411e-06
-0.000155529
5.67455e-06
-0.000160383
4.85437e-06
-0.000164435
4.05177e-06
-0.000167721
3.28574e-06
-0.000170292
2.57143e-06
-0.000172128
1.83567e-06
-0.00017328
1.15269e-06
-0.00017376
4.79953e-07
-0.000173481
-2.79431e-07
-0.000172458
-1.02258e-06
-0.000170739
-1.71968e-06
-0.000168341
-2.3976e-06
-0.000165145
-3.19602e-06
-0.000161211
-3.93386e-06
-0.000156446
-4.76563e-06
-0.00015094
-5.50572e-06
-0.000144653
-6.28744e-06
-0.000137374
-7.2782e-06
-0.000129271
-8.1032e-06
-0.000120342
-8.92929e-06
-0.000110279
-1.00631e-05
-9.93378e-05
-1.0941e-05
-8.75705e-05
-1.17673e-05
-7.46256e-05
-1.2945e-05
-6.08063e-05
-1.38193e-05
-4.60135e-05
-1.47928e-05
-3.01659e-05
-1.58476e-05
-1.37458e-05
-1.64202e-05
3.50377e-06
-1.72496e-05
2.14056e-05
-1.79018e-05
3.96189e-05
-1.82134e-05
5.82479e-05
-1.8629e-05
7.69463e-05
-1.86985e-05
9.55888e-05
-1.86426e-05
0.00011403
-1.84412e-05
0.000131807
-1.7777e-05
0.000148769
-1.69623e-05
0.000164767
-1.59981e-05
0.000179376
-1.46094e-05
0.0001925
-1.31234e-05
0.000203848
-1.13482e-05
0.000213366
-9.51842e-06
0.000220825
-7.45896e-06
0.00022603
-5.20445e-06
0.000228937
-2.90717e-06
0.000229524
-5.86706e-07
0.000227691
1.83209e-06
0.00022339
4.30103e-06
0.000216841
6.5488e-06
0.000208181
8.66088e-06
0.000197427
1.07536e-05
0.000184874
1.2553e-05
0.000170674
1.42003e-05
0.000155047
1.56261e-05
0.000138384
1.66633e-05
0.000120804
1.758e-05
0.000102669
1.81347e-05
8.41909e-05
1.84785e-05
6.56893e-05
1.85016e-05
4.73182e-05
1.83711e-05
2.93562e-05
1.7962e-05
1.18903e-05
1.74659e-05
-4.89089e-06
1.67812e-05
-2.09908e-05
1.60999e-05
-3.63926e-05
1.54018e-05
-5.09948e-05
1.46021e-05
-6.47973e-05
1.38026e-05
-7.77413e-05
1.29439e-05
-8.97949e-05
1.20536e-05
-0.000100871
1.10759e-05
-0.000111011
1.01406e-05
-0.000120094
9.08284e-06
-0.000128162
8.06757e-06
-0.000135207
7.04557e-06
-0.000141328
6.12034e-06
-0.000146473
5.14543e-06
-0.000150731
4.2579e-06
-0.000154124
3.39258e-06
-0.000156731
2.6077e-06
-0.000158567
1.83575e-06
-0.000159691
1.12352e-06
-0.000160127
4.36345e-07
-0.000159881
-2.45605e-07
-0.000158962
-9.1943e-07
-0.000157371
-1.59096e-06
-0.000155103
-2.26747e-06
-0.00015213
-2.97344e-06
-0.000148561
-3.56895e-06
-0.000144238
-4.32328e-06
-0.000139166
-5.07187e-06
-0.000133482
-5.68362e-06
-0.000126981
-6.50107e-06
-0.000119789
-7.19208e-06
-0.000111813
-7.97581e-06
-0.000103083
-8.73065e-06
-9.3584e-05
-9.49884e-06
-8.33755e-05
-1.02085e-05
-7.23164e-05
-1.10591e-05
-6.06078e-05
-1.17086e-05
-4.80807e-05
-1.25271e-05
-3.48167e-05
-1.32641e-05
-2.08338e-05
-1.3983e-05
-6.15432e-06
-1.46795e-05
9.16782e-06
-1.53222e-05
2.50983e-05
-1.59305e-05
4.1528e-05
-1.64298e-05
5.83701e-05
-1.68422e-05
7.54814e-05
-1.71114e-05
9.2673e-05
-1.71917e-05
0.000109832
-1.71589e-05
0.00012664
-1.68084e-05
0.000142976
-1.63363e-05
0.000158504
-1.55275e-05
0.000173033
-1.45294e-05
0.000186296
-1.32625e-05
0.000198048
-1.17522e-05
0.000208047
-9.99883e-06
0.000216145
-8.09864e-06
0.000222032
-5.88712e-06
0.000225683
-3.65071e-06
0.000226953
-1.26991e-06
0.000225836
1.11687e-06
0.000222225
3.61083e-06
0.000216144
6.08093e-06
0.000207734
8.40975e-06
0.000197106
1.06285e-05
0.00018452
1.25854e-05
0.000170095
1.44252e-05
0.000154162
1.59331e-05
0.00013696
1.72019e-05
0.000118807
1.81529e-05
9.99886e-05
1.88186e-05
8.07827e-05
1.92059e-05
6.15107e-05
1.9272e-05
4.24181e-05
1.90926e-05
2.36962e-05
1.87219e-05
5.54802e-06
1.81482e-05
-1.18015e-05
1.73495e-05
-2.82633e-05
1.64618e-05
-4.37411e-05
1.54778e-05
-5.81658e-05
1.44247e-05
-7.14921e-05
1.33263e-05
-8.37271e-05
1.22349e-05
-9.48659e-05
1.11388e-05
-0.000104914
1.00486e-05
-0.000113933
9.01896e-06
-0.000122047
8.11355e-06
-0.000129169
7.12155e-06
-0.000135405
6.23691e-06
-0.000140786
5.38023e-06
-0.000145363
4.57724e-06
-0.000149176
3.81269e-06
-0.000152262
3.086e-06
-0.00015465
2.38878e-06
-0.000156427
1.77623e-06
-0.00015749
1.06333e-06
-0.000157963
4.73522e-07
-0.000157829
-1.34593e-07
-0.000157171
-6.58288e-07
-0.000155968
-1.20237e-06
-0.000154224
-1.74406e-06
-0.000152052
-2.17256e-06
-0.000149314
-2.73795e-06
-0.000146161
-3.15252e-06
-0.00014244
-3.72092e-06
-0.000138133
-4.30685e-06
-0.000133374
-4.75947e-06
-0.000127909
-5.46468e-06
-0.000121831
-6.07847e-06
-0.000115055
-6.77547e-06
-0.000107467
-7.58818e-06
-9.9085e-05
-8.38227e-06
-8.9901e-05
-9.18395e-06
-7.97974e-05
-1.01036e-05
-6.90775e-05
-1.07199e-05
-5.74616e-05
-1.16159e-05
-4.51113e-05
-1.23504e-05
-3.19941e-05
-1.31173e-05
-1.81035e-05
-1.38906e-05
-3.56631e-06
-1.45373e-05
1.17205e-05
-1.52869e-05
2.76116e-05
-1.58912e-05
4.39886e-05
-1.6377e-05
6.07309e-05
-1.67424e-05
7.75885e-05
-1.68577e-05
9.44582e-05
-1.68697e-05
0.000110997
-1.65393e-05
0.00012706
-1.6063e-05
0.000142322
-1.52615e-05
0.000156495
-1.41734e-05
0.000169347
-1.28522e-05
0.000180607
-1.12592e-05
0.000190016
-9.40999e-06
0.000197396
-7.37945e-06
0.000202438
-5.04237e-06
0.00020511
-2.67234e-06
0.000205304
-1.93142e-07
0.000202974
2.32986e-06
0.000198101
4.87279e-06
0.000190821
7.28003e-06
0.000181292
9.529e-06
0.000169749
1.15427e-05
0.000156346
1.34028e-05
0.000141427
1.49193e-05
0.000125209
1.6218e-05
0.000108083
1.71255e-05
9.02979e-05
1.77853e-05
7.21513e-05
1.81466e-05
5.3849e-05
1.83023e-05
3.56769e-05
1.81722e-05
1.78425e-05
1.78343e-05
5.15023e-07
1.73275e-05
-1.62307e-05
1.67457e-05
-3.21705e-05
1.59398e-05
-4.72501e-05
1.50796e-05
-6.14263e-05
1.41761e-05
-7.45641e-05
1.31378e-05
-8.67059e-05
1.21419e-05
-9.78184e-05
1.11125e-05
-0.000107953
1.01345e-05
-0.00011717
9.21714e-06
-0.000125515
8.3454e-06
-0.00013304
7.52417e-06
-0.000139733
6.6929e-06
-0.000145661
5.92831e-06
-0.00015092
5.25964e-06
-0.000155444
4.52329e-06
-0.00015928
3.83602e-06
-0.000162455
3.17513e-06
-0.000165128
2.67267e-06
-0.00016722
2.09262e-06
-0.000168765
1.54518e-06
-0.000169801
1.03606e-06
-0.000170388
5.86609e-07
-0.000170489
1.00784e-07
-0.000170128
-3.61189e-07
-0.000169199
-9.2916e-07
-0.000167864
-1.33427e-06
-0.00016592
-1.94448e-06
-0.000163382
-2.53747e-06
-0.000160183
-3.19948e-06
-0.000156265
-3.91746e-06
-0.000151646
-4.61975e-06
-0.000146186
-5.4598e-06
-0.000139935
-6.25067e-06
-0.000132748
-7.18744e-06
-0.000124747
-8.00089e-06
-0.000115821
-8.92578e-06
-0.000105998
-9.82295e-06
-9.51928e-05
-1.08055e-05
-8.33286e-05
-1.18642e-05
-7.04964e-05
-1.28323e-05
-5.64094e-05
-1.4087e-05
-4.12059e-05
-1.52036e-05
-2.47768e-05
-1.64292e-05
-7.15992e-06
-1.76169e-05
1.14913e-05
-1.86513e-05
3.11597e-05
-1.96684e-05
5.14681e-05
-2.03084e-05
7.18096e-05
-2.03416e-05
9.19799e-05
-2.01704e-05
0.00011149
-1.95097e-05
0.000130143
-1.86535e-05
0.000147679
-1.75364e-05
0.000163684
-1.60042e-05
0.000178007
-1.43237e-05
0.000190402
-1.23945e-05
0.00020048
-1.00785e-05
0.000208176
-7.69558e-06
0.000213245
-5.06909e-06
0.00021545
-2.20509e-06
0.000215177
2.72973e-07
0.000212401
2.77585e-06
0.00020722
5.18127e-06
0.000199604
7.61525e-06
0.000189555
1.00491e-05
0.000177512
1.2043e-05
0.000163633
1.38787e-05
0.000148168
1.54652e-05
0.000131614
1.65536e-05
0.000114059
1.75552e-05
9.60542e-05
1.80049e-05
7.77314e-05
1.83228e-05
5.92427e-05
1.84887e-05
4.11046e-05
1.8138e-05
2.31765e-05
1.79281e-05
5.8571e-06
1.73194e-05
-1.08733e-05
1.67304e-05
-2.68253e-05
1.5952e-05
-4.19176e-05
1.50924e-05
-5.61478e-05
1.42302e-05
-6.94538e-05
1.3306e-05
-8.18116e-05
1.23578e-05
-9.32445e-05
1.14329e-05
-0.000103735
1.04905e-05
-0.000113307
9.57214e-06
-0.000121993
8.68548e-06
-0.000129823
7.83008e-06
-0.000136825
7.00256e-06
-0.000142993
6.16767e-06
-0.000148401
5.40839e-06
-0.000153047
4.64547e-06
-0.000156976
3.92936e-06
-0.000160214
3.23729e-06
-0.000162747
2.53309e-06
-0.000164603
1.85638e-06
-0.000165786
1.18261e-06
-0.000166289
5.03512e-07
-0.000166077
-2.12136e-07
-0.000165165
-9.12424e-07
-0.000163586
-1.5788e-06
-0.000161233
-2.35255e-06
-0.000158158
-3.07503e-06
-0.000154432
-3.72578e-06
-0.000149799
-4.63387e-06
-0.000144513
-5.286e-06
-0.000138219
-6.29345e-06
-0.000131123
-7.09564e-06
-0.00012328
-7.84366e-06
-0.000114292
-8.98769e-06
-0.000104338
-9.95439e-06
-9.34688e-05
-1.08689e-05
-8.13979e-05
-1.20709e-05
-6.83971e-05
-1.30008e-05
-5.41756e-05
-1.42216e-05
-3.90399e-05
-1.51357e-05
-2.30179e-05
-1.6022e-05
-5.69504e-06
-1.73229e-05
1.2146e-05
-1.7841e-05
-1.84197e-05
0.000214633
1.22311e-05
0.000206655
1.59551e-05
0.000196514
2.02772e-05
0.000184285
2.44506e-05
0.000170483
2.75942e-05
0.00015508
3.07979e-05
0.00013849
3.31694e-05
0.000120929
3.51111e-05
0.00010257
3.67042e-05
8.38178e-05
3.74955e-05
6.48063e-05
3.80114e-05
4.59179e-05
3.77689e-05
2.71833e-05
3.74582e-05
9.0507e-06
3.62473e-05
-8.66187e-06
3.54305e-05
-2.56412e-05
3.39553e-05
-4.17819e-05
3.2278e-05
-5.70056e-05
3.04435e-05
-7.12884e-05
2.85634e-05
-8.45709e-05
2.65636e-05
-9.6831e-05
2.4519e-05
-0.000108102
2.2539e-05
-0.000118368
2.0531e-05
-0.000127642
1.85452e-05
-0.000135973
1.66608e-05
-0.00014338
1.4815e-05
-0.000149907
1.30509e-05
-0.00015558
1.13472e-05
-0.00016043
9.70519e-06
-0.000164487
8.10825e-06
-0.00016778
6.57901e-06
-0.000170346
5.13769e-06
-0.000172176
3.6652e-06
-0.000173328
2.30518e-06
-0.000173808
9.59443e-07
-0.00017353
-5.57254e-07
-0.000172507
-2.04591e-06
-0.000170786
-3.44058e-06
-0.00016839
-4.79378e-06
-0.000165196
-6.38999e-06
-0.00016126
-7.86963e-06
-0.000156494
-9.53162e-06
-0.000150989
-1.1011e-05
-0.0001447
-1.25768e-05
-0.000137426
-1.4552e-05
-0.000129322
-1.62071e-05
-0.000120398
-1.78535e-05
-0.000110336
-2.01249e-05
-9.93944e-05
-2.18827e-05
-8.76285e-05
-2.35333e-05
-7.46789e-05
-2.58946e-05
-6.08683e-05
-2.76301e-05
-4.60697e-05
-2.95915e-05
-3.02141e-05
-3.17032e-05
-1.37933e-05
-3.2841e-05
3.46456e-06
-3.45076e-05
2.13755e-05
-3.58129e-05
3.95997e-05
-3.64376e-05
5.82397e-05
-3.72692e-05
7.69514e-05
-3.74103e-05
9.56048e-05
-3.72961e-05
0.000114063
-3.68996e-05
0.000131853
-3.55669e-05
0.00014882
-3.39289e-05
0.000164829
-3.2008e-05
0.000179454
-2.92338e-05
0.000192582
-2.62523e-05
0.000203943
-2.27086e-05
0.000213476
-1.90517e-05
0.000220941
-1.4924e-05
0.00022615
-1.04134e-05
0.00022906
-5.81786e-06
0.000229644
-1.17086e-06
0.000227803
3.6731e-06
0.000223507
8.59698e-06
0.00021695
1.31062e-05
0.000208283
1.73282e-05
0.000197528
2.15083e-05
0.000184958
2.51224e-05
0.000170748
2.8411e-05
0.000155118
3.12555e-05
0.00013844
3.33411e-05
0.000120849
3.51715e-05
0.000102703
3.62802e-05
8.42182e-05
3.69635e-05
6.57098e-05
3.701e-05
4.73366e-05
3.67443e-05
2.93717e-05
3.59269e-05
1.19006e-05
3.49369e-05
-4.88143e-06
3.35633e-05
-2.09764e-05
3.21948e-05
-3.63774e-05
3.08029e-05
-5.09773e-05
2.9202e-05
-6.47802e-05
2.76055e-05
-7.77379e-05
2.59017e-05
-8.97812e-05
2.40969e-05
-0.000100873
2.21679e-05
-0.000110996
2.02639e-05
-0.000120085
1.8171e-05
-0.000128147
1.613e-05
-0.000135186
1.40842e-05
-0.000141325
1.22593e-05
-0.000146476
1.02966e-05
-0.000150736
8.51811e-06
-0.000154124
6.78041e-06
-0.000156737
5.2206e-06
-0.000158579
3.67755e-06
-0.000159708
2.25237e-06
-0.000160151
8.79277e-07
-0.000159896
-4.99893e-07
-0.000158978
-1.83806e-06
-0.000157386
-3.1825e-06
-0.000155128
-4.52521e-06
-0.000152158
-5.94398e-06
-0.000148591
-7.13547e-06
-0.000144282
-8.63308e-06
-0.000139214
-1.01399e-05
-0.00013354
-1.13573e-05
-0.000127048
-1.29929e-05
-0.000119856
-1.43838e-05
-0.000111892
-1.59399e-05
-0.000103172
-1.74509e-05
-9.36899e-05
-1.89813e-05
-8.34845e-05
-2.04139e-05
-7.24307e-05
-2.2113e-05
-6.0736e-05
-2.34034e-05
-4.81871e-05
-2.50761e-05
-3.49725e-05
-2.64788e-05
-2.0949e-05
-2.80065e-05
-6.31983e-06
-2.93088e-05
8.99983e-06
-3.0642e-05
2.49168e-05
-3.18476e-05
4.13555e-05
-3.28686e-05
5.81795e-05
-3.36663e-05
7.52958e-05
-3.42278e-05
9.25087e-05
-3.44047e-05
0.000109633
-3.42837e-05
0.000126452
-3.36267e-05
0.000142763
-3.2648e-05
0.000158317
-3.10816e-05
0.000172861
-2.90736e-05
0.000186132
-2.65338e-05
0.0001979
-2.35202e-05
0.000207914
-2.00128e-05
0.000216009
-1.61934e-05
0.000221924
-1.1802e-05
0.000225585
-7.31179e-06
0.000226858
-2.54325e-06
0.000225757
2.21715e-06
0.000222108
7.26065e-06
0.000216063
1.21253e-05
0.000207663
1.68094e-05
0.000197064
2.12281e-05
0.00018443
2.52194e-05
0.000170027
2.8828e-05
0.000154089
3.18706e-05
0.000136889
3.44024e-05
0.000118735
3.6307e-05
9.99131e-05
3.764e-05
8.06988e-05
3.84202e-05
6.14184e-05
3.85524e-05
4.2326e-05
3.8185e-05
2.36127e-05
3.74353e-05
5.45913e-06
3.63017e-05
-1.18981e-05
3.47067e-05
-2.83668e-05
3.29305e-05
-4.38412e-05
3.09522e-05
-5.82619e-05
2.88454e-05
-7.15838e-05
2.66483e-05
-8.38144e-05
2.44655e-05
-9.49523e-05
2.22767e-05
-0.000105002
2.00979e-05
-0.000114007
1.80239e-05
-0.000122115
1.62219e-05
-0.000129234
1.42402e-05
-0.000135462
1.24652e-05
-0.00014084
1.0758e-05
-0.000145422
9.15996e-06
-0.000149234
7.62462e-06
-0.000152322
6.1738e-06
-0.000154716
4.78244e-06
-0.00015649
3.55088e-06
-0.000157549
2.12157e-06
-0.000158016
9.41218e-07
-0.00015789
-2.61253e-07
-0.000157235
-1.31248e-06
-0.000156042
-2.39593e-06
-0.000154303
-3.48267e-06
-0.00015214
-4.33635e-06
-0.000149405
-5.47297e-06
-0.000146268
-6.28881e-06
-0.000142555
-7.43465e-06
-0.000138286
-8.57574e-06
-0.000133513
-9.53215e-06
-0.000128075
-1.09023e-05
-0.000121954
-1.22e-05
-0.000115232
-1.34977e-05
-0.000107645
-1.51751e-05
-9.92797e-05
-1.67475e-05
-9.01022e-05
-1.83615e-05
-8.0079e-05
-2.01268e-05
-6.93031e-05
-2.14959e-05
-5.76976e-05
-2.32215e-05
-4.53611e-05
-2.4687e-05
-3.22476e-05
-2.62309e-05
-1.83809e-05
-2.77574e-05
-3.81227e-06
-2.9106e-05
1.14615e-05
-3.05607e-05
2.73716e-05
-3.18014e-05
4.3732e-05
-3.27375e-05
6.04844e-05
-3.34948e-05
7.73654e-05
-3.37388e-05
9.42283e-05
-3.37327e-05
0.000110775
-3.3086e-05
0.000126837
-3.21256e-05
0.000142106
-3.05307e-05
0.000156333
-2.83996e-05
0.0001692
-2.57195e-05
0.000180482
-2.25419e-05
0.000189907
-1.88349e-05
0.00019727
-1.47422e-05
0.000202357
-1.01292e-05
0.000205051
-5.36688e-06
0.000205284
-4.26318e-07
0.000202938
4.67552e-06
0.000198072
9.73937e-06
0.000190796
1.45563e-05
0.000181268
1.90569e-05
0.000169699
2.31117e-05
0.000156314
2.67873e-05
0.00014141
2.98238e-05
0.000125177
3.24501e-05
0.000108042
3.42608e-05
9.02492e-05
3.55781e-05
7.21056e-05
3.62902e-05
5.3792e-05
3.66159e-05
3.56102e-05
3.63539e-05
1.77778e-05
3.56667e-05
4.49327e-07
3.4656e-05
-1.63088e-05
3.35039e-05
-3.22506e-05
3.18816e-05
-4.73194e-05
3.01484e-05
-6.15046e-05
2.83614e-05
-7.46459e-05
2.62791e-05
-8.67892e-05
2.42851e-05
-9.79068e-05
2.22301e-05
-0.000108051
2.02785e-05
-0.000117271
1.84377e-05
-0.000125618
1.66915e-05
-0.000133145
1.50517e-05
-0.000139843
1.33908e-05
-0.000145767
1.18528e-05
-0.000151032
1.05239e-05
-0.000155553
9.04462e-06
-0.000159386
7.66866e-06
-0.000162578
6.36753e-06
-0.000165197
5.29132e-06
-0.000167311
4.20638e-06
-0.000168863
3.09778e-06
-0.000169895
2.06795e-06
-0.000170476
1.16712e-06
-0.000170572
1.96888e-07
-0.000170203
-7.30028e-07
-0.000169271
-1.86092e-06
-0.000167942
-2.66376e-06
-0.000165996
-3.88981e-06
-0.000163456
-5.07804e-06
-0.000160259
-6.39667e-06
-0.000156345
-7.83126e-06
-0.000151719
-9.24522e-06
-0.000146259
-1.09197e-05
-0.000140009
-1.25015e-05
-0.000132824
-1.43724e-05
-0.000124823
-1.60016e-05
-0.000115898
-1.7851e-05
-0.000106073
-1.96481e-05
-9.52703e-05
-2.16081e-05
-8.34068e-05
-2.37278e-05
-7.05846e-05
-2.56545e-05
-5.64871e-05
-2.81845e-05
-4.12889e-05
-3.04019e-05
-2.48589e-05
-3.28592e-05
-7.24107e-06
-3.52348e-05
1.1425e-05
-3.73175e-05
3.11061e-05
-3.93497e-05
5.1431e-05
-4.06334e-05
7.17912e-05
-4.07019e-05
9.19792e-05
-4.03585e-05
0.000111505
-3.90353e-05
0.000130174
-3.73233e-05
0.000147732
-3.50941e-05
0.000163754
-3.20266e-05
0.000178096
-2.86652e-05
0.000190508
-2.48069e-05
0.000200599
-2.01699e-05
0.000208303
-1.53996e-05
0.000213387
-1.01528e-05
0.000215592
-4.41021e-06
0.000215309
5.55875e-07
0.000212535
5.54987e-06
0.000207355
1.03612e-05
0.000199732
1.52384e-05
0.000189672
2.01091e-05
0.000177616
2.40983e-05
0.000163724
2.77711e-05
0.000148245
3.09443e-05
0.000131676
3.31227e-05
0.000114109
3.51214e-05
9.6088e-05
3.60262e-05
7.77551e-05
3.66557e-05
5.92496e-05
3.69941e-05
4.11068e-05
3.62808e-05
2.31671e-05
3.58678e-05
5.84556e-06
3.46409e-05
-1.08821e-05
3.3458e-05
-2.68361e-05
3.1906e-05
-4.19324e-05
3.01886e-05
-5.61659e-05
2.84637e-05
-6.9473e-05
2.6613e-05
-8.18292e-05
2.47141e-05
-9.32624e-05
2.28661e-05
-0.000103757
2.09852e-05
-0.000113337
1.91525e-05
-0.000122023
1.73711e-05
-0.000129851
1.56585e-05
-0.000136851
1.40019e-05
-0.000143024
1.23406e-05
-0.000148429
1.08138e-05
-0.000153074
9.29022e-06
-0.000157003
7.85831e-06
-0.000160241
6.47581e-06
-0.000162776
5.06793e-06
-0.000164637
3.71683e-06
-0.000165818
2.36435e-06
-0.000166324
1.00938e-06
-0.000166115
-4.21392e-07
-0.000165203
-1.82445e-06
-0.000163623
-3.15857e-06
-0.000161267
-4.7086e-06
-0.000158196
-6.14616e-06
-0.000154472
-7.44978e-06
-0.000149839
-9.26712e-06
-0.000144554
-1.05712e-05
-0.000138262
-1.25854e-05
-0.000131166
-1.4191e-05
-0.000123321
-1.56886e-05
-0.000114338
-1.79714e-05
-0.000104382
-1.99097e-05
-9.35105e-05
-2.17406e-05
-8.14408e-05
-2.41406e-05
-6.84397e-05
-2.60019e-05
-5.42136e-05
-2.84477e-05
-3.90769e-05
-3.02723e-05
-2.30513e-05
-3.20476e-05
-5.7327e-06
-3.46415e-05
1.21195e-05
-3.56932e-05
-3.68497e-05
0.00021481
1.83562e-05
0.00020682
2.39451e-05
0.000196665
3.04323e-05
0.00018442
3.6696e-05
0.000170599
4.14153e-05
0.000155175
4.62213e-05
0.000138564
4.97809e-05
0.000120982
5.26927e-05
0.0001026
5.50857e-05
8.38331e-05
5.62629e-05
6.48022e-05
5.70422e-05
4.5901e-05
5.66702e-05
2.71501e-05
5.6209e-05
8.98298e-06
5.44144e-05
-8.72425e-06
5.31377e-05
-2.57106e-05
5.09417e-05
-4.18586e-05
4.84259e-05
-5.70875e-05
4.56724e-05
-7.13737e-05
4.28496e-05
-8.46608e-05
3.98507e-05
-9.69226e-05
3.67807e-05
-0.000108193
3.38095e-05
-0.000118456
3.07944e-05
-0.000127729
2.7818e-05
-0.00013606
2.49915e-05
-0.000143467
2.22222e-05
-0.000149989
1.95726e-05
-0.000155659
1.70178e-05
-0.000160516
1.45616e-05
-0.000164572
1.21649e-05
-0.000167867
9.87325e-06
-0.000170426
7.69728e-06
-0.000172255
5.4935e-06
-0.000173405
3.45563e-06
-0.000173872
1.42664e-06
-0.000173585
-8.44078e-07
-0.000172561
-3.06997e-06
-0.000170841
-5.16059e-06
-0.000168446
-7.18905e-06
-0.00016526
-9.57633e-06
-0.000161321
-1.18084e-05
-0.000156558
-1.42952e-05
-0.000151055
-1.65139e-05
-0.000144763
-1.88683e-05
-0.000137496
-2.18187e-05
-0.000129392
-2.43112e-05
-0.000120476
-2.67702e-05
-0.000110417
-3.01836e-05
-9.94738e-05
-3.2826e-05
-8.77088e-05
-3.52984e-05
-7.47535e-05
-3.885e-05
-6.09536e-05
-4.14301e-05
-4.61465e-05
-4.43988e-05
-3.02787e-05
-4.75711e-05
-1.38551e-05
-4.92647e-05
3.41627e-06
-5.17791e-05
2.13428e-05
-5.37396e-05
3.9583e-05
-5.46778e-05
5.82398e-05
-5.59261e-05
7.69691e-05
-5.61397e-05
9.56427e-05
-5.59698e-05
0.00011412
-5.5377e-05
0.000131931
-5.33775e-05
0.000148919
-5.0918e-05
0.000164947
-4.80355e-05
0.000179579
-4.38666e-05
0.000192728
-3.94008e-05
0.000204098
-3.40787e-05
0.000213642
-2.85959e-05
0.000221119
-2.24012e-05
0.000226329
-1.5623e-05
0.000229249
-8.7388e-06
0.000229835
-1.7566e-06
0.000227968
5.53968e-06
0.000223696
1.28692e-05
0.000217125
1.9677e-05
0.000208444
2.6009e-05
0.000197682
3.22706e-05
0.000185085
3.77193e-05
0.000170856
4.26401e-05
0.000155217
4.68943e-05
0.000138503
5.00552e-05
0.000120893
5.27818e-05
0.000102732
5.44411e-05
8.42306e-05
5.54649e-05
6.56949e-05
5.55456e-05
4.72991e-05
5.51401e-05
2.93195e-05
5.39065e-05
1.18405e-05
5.24159e-05
-4.9512e-06
5.0355e-05
-2.10678e-05
4.83114e-05
-3.64561e-05
4.61912e-05
-5.10629e-05
4.38088e-05
-6.4868e-05
4.14106e-05
-7.783e-05
3.88637e-05
-8.98916e-05
3.61585e-05
-0.000100985
3.32613e-05
-0.000111134
3.04124e-05
-0.000120231
2.72682e-05
-0.000128311
2.42106e-05
-0.000135375
2.11477e-05
-0.000141489
1.83739e-05
-0.000146654
1.54614e-05
-0.000150922
1.27862e-05
-0.000154332
1.019e-05
-0.000156944
7.83252e-06
-0.000158802
5.53556e-06
-0.000159925
3.37535e-06
-0.000160327
1.28128e-06
-0.000160128
-6.98618e-07
-0.000159199
-2.76709e-06
-0.000157616
-4.76507e-06
-0.000155355
-6.78681e-06
-0.000152391
-8.90801e-06
-0.000148816
-1.07099e-05
-0.000144506
-1.29436e-05
-0.000139493
-1.51529e-05
-0.000133765
-1.7085e-05
-0.000127301
-1.94568e-05
-0.00012009
-2.15947e-05
-0.000112134
-2.38968e-05
-0.000103414
-2.61701e-05
-9.39483e-05
-2.84474e-05
-8.37331e-05
-3.06292e-05
-7.27044e-05
-3.31417e-05
-6.09766e-05
-3.51313e-05
-4.83938e-05
-3.7659e-05
-3.52144e-05
-3.96582e-05
-2.11411e-05
-4.20799e-05
-6.5551e-06
-4.38949e-05
8.79152e-06
-4.59887e-05
2.46842e-05
-4.77403e-05
4.11351e-05
-4.93196e-05
5.79658e-05
-5.04971e-05
7.50707e-05
-5.13329e-05
9.22858e-05
-5.16199e-05
0.000109422
-5.14204e-05
0.000126268
-5.04724e-05
0.000142589
-4.89687e-05
0.000158179
-4.66725e-05
0.000172738
-4.36324e-05
0.00018605
-3.98461e-05
0.000197806
-3.52757e-05
0.00020784
-3.00475e-05
0.000215929
-2.42824e-05
0.00022191
-1.77836e-05
0.00022558
-1.09811e-05
0.000226843
-3.80619e-06
0.000225688
3.37117e-06
0.000222039
1.09104e-05
0.000215966
1.81975e-05
0.000207575
2.5201e-05
0.000196993
3.181e-05
0.000184376
3.78364e-05
0.000169928
4.32756e-05
0.000153968
4.78303e-05
0.000136759
5.16118e-05
0.000118579
5.44865e-05
9.97307e-05
5.64885e-05
8.05151e-05
5.76357e-05
6.12532e-05
5.78144e-05
4.20666e-05
5.73716e-05
2.33293e-05
5.61725e-05
5.20906e-06
5.44219e-05
-1.21825e-05
5.20983e-05
-2.8659e-05
4.9407e-05
-4.41345e-05
4.64277e-05
-5.85604e-05
4.32713e-05
-7.18782e-05
3.99661e-05
-8.40994e-05
3.66867e-05
-9.52422e-05
3.34196e-05
-0.000105297
3.01529e-05
-0.00011434
2.70672e-05
-0.000122406
2.4287e-05
-0.000129527
2.13612e-05
-0.000135744
1.86822e-05
-0.00014111
1.61241e-05
-0.000145691
1.37413e-05
-0.000149506
1.14391e-05
-0.000152611
9.27899e-06
-0.000155011
7.183e-06
-0.000156745
5.28491e-06
-0.000157812
3.18821e-06
-0.000158213
1.34177e-06
-0.000158148
-3.25531e-07
-0.000157486
-1.9751e-06
-0.00015627
-3.61148e-06
-0.00015459
-5.16295e-06
-0.000152394
-6.53254e-06
-0.000149677
-8.18987e-06
-0.000146505
-9.4608e-06
-0.000142826
-1.11135e-05
-0.000138573
-1.28288e-05
-0.000133786
-1.43189e-05
-0.000128373
-1.63157e-05
-0.000122234
-1.83386e-05
-0.000115506
-2.02262e-05
-0.000107934
-2.27471e-05
-9.95724e-05
-2.51089e-05
-9.03938e-05
-2.75402e-05
-8.03843e-05
-3.01364e-05
-6.95967e-05
-3.22836e-05
-5.79916e-05
-3.48266e-05
-4.56523e-05
-3.70263e-05
-3.25547e-05
-3.93285e-05
-1.87035e-05
-4.16088e-05
-4.09028e-06
-4.37192e-05
1.11665e-05
-4.58176e-05
2.70792e-05
-4.77142e-05
4.34547e-05
-4.91131e-05
6.01924e-05
-5.02326e-05
7.71293e-05
-5.06759e-05
9.39853e-05
-5.05888e-05
0.000110567
-4.96678e-05
0.00012664
-4.81984e-05
0.000141933
-4.58239e-05
0.000156219
-4.26855e-05
0.000169097
-3.85979e-05
0.000180414
-3.38591e-05
0.000189864
-2.82854e-05
0.000197232
-2.21096e-05
0.000202339
-1.52362e-05
0.000205051
-8.07889e-06
0.000205294
-6.69944e-07
0.000202946
7.02416e-06
0.000198054
1.46313e-05
0.000190769
2.18405e-05
0.000181235
2.85909e-05
0.000169627
3.47202e-05
0.000156233
4.01807e-05
0.000141288
4.4769e-05
0.000125059
4.86788e-05
0.000107904
5.14156e-05
9.00894e-05
5.33928e-05
7.18958e-05
5.44838e-05
5.35906e-05
5.4921e-05
3.53934e-05
5.45511e-05
1.75472e-05
5.3513e-05
1.80727e-07
5.20224e-05
-1.65736e-05
5.02582e-05
-3.25215e-05
4.78295e-05
-4.75866e-05
4.52134e-05
-6.17838e-05
4.25586e-05
-7.493e-05
3.94253e-05
-8.70723e-05
3.64274e-05
-9.8194e-05
3.33518e-05
-0.000108336
3.04204e-05
-0.000117554
2.76555e-05
-0.000125896
2.50342e-05
-0.000133416
2.25712e-05
-0.000140115
2.00897e-05
-0.00014607
1.78082e-05
-0.00015128
1.57343e-05
-0.000155784
1.35481e-05
-0.000159618
1.15026e-05
-0.000162822
9.57174e-06
-0.000165388
7.85668e-06
-0.000167459
6.27815e-06
-0.000169038
4.67662e-06
-0.000170055
3.0849e-06
-0.000170618
1.72957e-06
-0.000170722
3.01118e-07
-0.000170333
-1.11863e-06
-0.000169417
-2.77684e-06
-0.000168057
-4.0242e-06
-0.000166109
-5.83772e-06
-0.000163566
-7.62096e-06
-0.000160368
-9.59442e-06
-0.000156455
-1.17443e-05
-0.000151817
-1.38831e-05
-0.000146365
-1.63723e-05
-0.000140114
-1.87528e-05
-0.000132922
-2.15639e-05
-0.000124922
-2.40016e-05
-0.000116008
-2.67657e-05
-0.000106179
-2.94771e-05
-9.53794e-05
-3.24075e-05
-8.35174e-05
-3.55899e-05
-7.07133e-05
-3.84587e-05
-5.66138e-05
-4.22841e-05
-4.14178e-05
-4.5598e-05
-2.49868e-05
-4.92903e-05
-7.36574e-06
-5.2856e-05
1.13172e-05
-5.60005e-05
3.10257e-05
-5.90583e-05
5.1385e-05
-6.09928e-05
7.17753e-05
-6.10922e-05
9.19939e-05
-6.05772e-05
0.000111549
-5.85904e-05
0.000130247
-5.60217e-05
0.000147838
-5.2685e-05
0.000163887
-4.80752e-05
0.00017825
-4.30288e-05
0.000190686
-3.72431e-05
0.000200787
-3.02712e-05
0.0002085
-2.31122e-05
0.000213544
-1.51965e-05
0.000215788
-6.65471e-06
0.000215508
8.3538e-07
0.000212738
8.32057e-06
0.000207555
1.55433e-05
0.000199917
2.28767e-05
0.000189837
3.01886e-05
0.00017776
3.61757e-05
0.000163844
4.16874e-05
0.000148345
4.64427e-05
0.000131742
4.97253e-05
0.000114164
5.27002e-05
9.6112e-05
5.40777e-05
7.77636e-05
5.50041e-05
5.92306e-05
5.55271e-05
4.10806e-05
5.44308e-05
2.31303e-05
5.3818e-05
5.79619e-06
5.1975e-05
-1.09368e-05
5.0191e-05
-2.68906e-05
4.78599e-05
-4.19881e-05
4.52861e-05
-5.62249e-05
4.27004e-05
-6.95319e-05
3.99201e-05
-8.18899e-05
3.7072e-05
-9.33223e-05
3.42985e-05
-0.000103813
3.14754e-05
-0.000113393
2.87324e-05
-0.000122076
2.60545e-05
-0.000129904
2.34865e-05
-0.000136898
2.09958e-05
-0.000143073
1.85161e-05
-0.000148475
1.62158e-05
-0.000153122
1.3937e-05
-0.00015705
1.17857e-05
-0.000160287
9.71327e-06
-0.000162821
7.60202e-06
-0.000164684
5.58e-06
-0.00016587
3.5498e-06
-0.000166374
1.51361e-06
-0.000166166
-6.29196e-07
-0.000165255
-2.73567e-06
-0.00016368
-4.73337e-06
-0.00016132
-7.0685e-06
-0.000158254
-9.21214e-06
-0.000154532
-1.11723e-05
-0.000149902
-1.38968e-05
-0.000144617
-1.58561e-05
-0.000138329
-1.88732e-05
-0.000131235
-2.12852e-05
-0.000123387
-2.35362e-05
-0.000114411
-2.69475e-05
-0.000104456
-2.98652e-05
-9.35804e-05
-3.2616e-05
-8.15154e-05
-3.62056e-05
-6.85162e-05
-3.90011e-05
-5.42839e-05
-4.268e-05
-3.91476e-05
-4.54086e-05
-2.31165e-05
-4.80786e-05
-5.80753e-06
-5.19506e-05
1.20679e-05
-5.35687e-05
-5.52987e-05
0.000215076
2.44946e-05
0.000207069
3.19522e-05
0.000196892
4.06087e-05
0.000184622
4.89662e-05
0.000170771
5.5266e-05
0.000155318
6.16742e-05
0.000138675
6.64249e-05
0.000121062
7.03051e-05
0.000102647
7.3501e-05
8.38558e-05
7.50539e-05
6.47967e-05
7.61014e-05
4.58755e-05
7.55913e-05
2.71027e-05
7.49818e-05
8.8858e-06
7.26314e-05
-8.8185e-06
7.0842e-05
-2.58159e-05
6.79391e-05
-4.19735e-05
6.45835e-05
-5.7211e-05
6.09099e-05
-7.1503e-05
5.71417e-05
-8.47944e-05
5.3142e-05
-9.70591e-05
4.90454e-05
-0.000108328
4.50787e-05
-0.000118591
4.10568e-05
-0.000127864
3.70913e-05
-0.000136193
3.3321e-05
-0.0001436
2.9629e-05
-0.00015012
2.60925e-05
-0.000155788
2.2686e-05
-0.000160646
1.94188e-05
-0.000164705
1.62247e-05
-0.000167998
1.31655e-05
-0.000170554
1.02531e-05
-0.000172379
7.31887e-06
-0.000173522
4.59843e-06
-0.000173969
1.87429e-06
-0.000173669
-1.14448e-06
-0.000172644
-4.09511e-06
-0.000170925
-6.87966e-06
-0.000168531
-9.58317e-06
-0.000165357
-1.275e-05
-0.000161413
-1.57524e-05
-0.000156653
-1.90548e-05
-0.000151154
-2.20137e-05
-0.00014486
-2.51621e-05
-0.000137603
-2.90757e-05
-0.000129499
-3.24154e-05
-0.000120593
-3.56756e-05
-0.000110541
-4.02359e-05
-9.95942e-05
-4.37729e-05
-8.783e-05
-4.70626e-05
-7.48663e-05
-5.18138e-05
-6.10856e-05
-5.52108e-05
-4.62629e-05
-5.92215e-05
-3.03767e-05
-6.34573e-05
-1.39485e-05
-6.5693e-05
3.34348e-06
-6.90712e-05
2.12913e-05
-7.16875e-05
3.95607e-05
-7.29473e-05
5.82412e-05
-7.46067e-05
7.69983e-05
-7.48969e-05
9.57014e-05
-7.46731e-05
0.000114209
-7.38851e-05
0.000132047
-7.12156e-05
0.000149062
-6.79329e-05
0.000165119
-6.40921e-05
0.000179775
-5.85226e-05
0.000192945
-5.25714e-05
0.000204329
-4.54624e-05
0.000213895
-3.81616e-05
0.000221385
-2.98913e-05
0.000226601
-2.08393e-05
0.000229528
-1.16665e-05
0.000230109
-2.33726e-06
0.000228204
7.44509e-06
0.000223969
1.71041e-05
0.000217389
2.62565e-05
0.000208686
3.47122e-05
0.000197939
4.30172e-05
0.000185273
5.03857e-05
0.000171014
5.68992e-05
0.000155384
6.25237e-05
0.000138595
6.68442e-05
0.000120953
7.0424e-05
0.000102757
7.26369e-05
8.42476e-05
7.39742e-05
6.56549e-05
7.41383e-05
4.72276e-05
7.35673e-05
2.92192e-05
7.1915e-05
1.17198e-05
6.99153e-05
-5.09549e-06
6.71703e-05
-2.12302e-05
6.44461e-05
-3.66159e-05
6.15769e-05
-5.12375e-05
5.84305e-05
-6.50528e-05
5.52258e-05
-7.80091e-05
5.182e-05
-9.01133e-05
4.82627e-05
-0.000101207
4.43548e-05
-0.000111391
4.05963e-05
-0.000120498
3.63752e-05
-0.000128612
3.23252e-05
-0.000135718
2.82529e-05
-0.000141821
2.44772e-05
-0.000146989
2.06293e-05
-0.00015127
1.70677e-05