/*--------------------------------*- C++ -*----------------------------------*\
| =========                 |                                                 |
| \\      /  F ield         | OpenFOAM: The Open Source CFD Toolbox           |
|  \\    /   O peration     | Version:  3.0.1                                 |
|   \\  /    A nd           | Web:      www.OpenFOAM.org                      |
|    \\/     M anipulation  |                                                 |
\*---------------------------------------------------------------------------*/
FoamFile
{
    version     2.0;
    format      ascii;
    class       volScalarField;
    location    "78.2";
    object      p_rgh;
}
// * * * * * * * * * * * * * * * * * * * * * * * * * * * * * * * * * * * * * //

dimensions      [1 -1 -2 0 0 0 0];

internalField   nonuniform List<scalar> 
21420
(
-39.894
-68.5764
-96.7618
-123.859
-149.53
-173.626
-196.026
-216.689
-235.578
-252.697
-268.076
-281.741
-293.735
-304.105
-312.894
-320.145
-325.896
-330.183
-333.015
-334.376
-334.313
-332.852
-329.93
-325.542
-319.652
-312.227
-303.213
-292.565
-280.231
-266.152
-250.276
-232.57
-213.002
-191.564
-168.266
-143.126
-116.215
-87.6375
-57.5076
-25.9954
6.66467
39.4087
73.436
107.685
141.845
175.519
208.301
239.821
269.664
297.427
322.761
345.319
364.797
380.934
393.501
402.335
407.331
408.347
405.485
398.663
387.979
373.598
355.696
334.546
310.424
283.638
254.553
223.558
191.053
157.444
123.139
88.5264
54.0233
20.4918
-12.8005
-45.1486
-76.2841
-105.996
-134.103
-160.481
-185.022
-207.648
-228.318
-247.001
-263.693
-278.407
-291.155
-301.98
-310.929
-318.055
-323.444
-327.133
-329.172
-329.709
-328.772
-326.419
-322.693
-317.633
-311.253
-303.543
-294.493
-284.081
-272.267
-259.01
-244.275
-228.023
-210.224
-190.855
-169.91
-147.397
-123.341
-97.7918
-70.8221
-42.5309
-13.0471
17.4764
48.8578
80.8171
113.114
145.457
177.521
208.952
239.372
268.386
295.591
320.587
342.98
362.404
378.525
391.051
399.747
404.434
404.963
401.37
393.691
381.958
366.381
347.192
324.682
299.195
271.118
240.87
208.894
175.645
141.586
107.168
72.8193
38.9763
5.9402
-25.9479
-56.4304
-85.3072
-112.433
-137.712
-161.092
-182.557
-202.123
-219.828
-235.726
-249.879
-262.362
-273.243
-282.594
-290.481
-296.96
-302.083
-305.896
-308.447
-309.736
-309.77
-308.613
-306.235
-302.632
-297.794
-291.697
-284.316
-275.625
-265.581
-254.146
-241.279
-226.936
-211.072
-193.653
-174.652
-154.056
-131.869
-108.115
-82.8432
-56.1292
-28.0831
1.14822
31.3769
62.4887
94.0271
125.807
157.5
188.756
219.203
248.453
276.11
301.773
325.051
345.568
362.976
376.974
387.316
393.819
396.311
394.846
389.364
379.963
366.755
349.95
329.799
306.61
280.741
252.59
222.585
191.176
158.814
125.942
92.9756
60.3038
28.2583
-2.86458
-32.8197
-61.4102
-88.4844
-113.93
-137.671
-159.663
-179.892
-198.364
-215.106
-230.16
-243.575
-255.411
-265.728
-274.585
-282.035
-288.124
-292.895
-296.384
-298.621
-299.614
-299.381
-297.994
-295.445
-291.75
-286.915
-280.941
-273.823
-265.55
-256.109
-245.482
-233.647
-220.573
-206.221
-190.55
-173.52
-155.093
-135.246
-113.972
-91.2904
-67.2407
-41.8947
-15.3547
12.2466
40.7559
70.0486
100.037
130.033
159.89
189.336
218.05
245.678
271.864
296.239
318.412
338.02
354.718
368.185
378.133
384.332
386.621
384.917
379.205
369.575
356.141
339.103
318.789
295.538
269.774
241.931
212.451
181.808
150.447
118.79
87.2291
56.1109
25.92
-2.5301
-30.2664
-56.7202
-81.701
-105.092
-126.835
-146.919
-165.359
-182.202
-197.511
-211.363
-223.846
-235.045
-245.042
-253.915
-261.725
-268.523
-274.341
-279.196
-283.086
-285.998
-287.889
-288.699
-288.377
-286.877
-284.097
-279.98
-274.449
-267.444
-258.917
-248.815
-237.092
-223.739
-208.743
-192.115
-173.879
-154.071
-132.755
-110.019
-85.9663
-60.7334
-34.4892
-7.40711
20.2897
48.3663
76.5903
104.683
132.366
159.377
185.407
210.192
233.435
254.879
274.307
291.442
306.017
-39.9603
-68.6491
-96.8389
-123.939
-149.611
-173.708
-196.107
-216.768
-235.655
-252.772
-268.147
-281.81
-293.801
-304.169
-312.955
-320.205
-325.955
-330.24
-333.072
-334.431
-334.371
-332.909
-329.988
-325.601
-319.713
-312.291
-303.279
-292.634
-280.303
-266.227
-250.354
-232.65
-213.085
-191.648
-168.351
-143.21
-116.298
-87.7174
-57.5831
-26.0653
6.60091
39.363
73.3997
107.661
141.836
175.526
208.325
239.863
269.724
297.504
322.855
345.428
364.92
381.069
393.645
402.484
407.484
408.509
405.632
398.808
388.118
373.727
355.813
334.648
310.51
283.707
254.603
223.591
191.067
157.442
123.121
88.4944
53.9783
20.4339
-12.8672
-45.223
-76.3646
-106.082
-134.192
-160.573
-185.115
-207.741
-228.411
-247.093
-263.784
-278.496
-291.242
-302.065
-311.012
-318.136
-323.521
-327.204
-329.244
-329.778
-328.839
-326.484
-322.758
-317.698
-311.318
-303.609
-294.561
-284.151
-272.339
-259.084
-244.351
-228.102
-210.304
-190.937
-169.993
-147.479
-123.423
-97.8726
-70.9005
-42.6057
-13.117
17.4125
48.8019
80.7706
113.078
145.434
177.513
208.959
239.396
268.428
295.652
320.665
343.076
362.516
378.652
391.189
399.894
404.592
405.113
401.519
393.835
382.094
366.504
347.3
324.772
299.267
271.17
240.902
208.906
175.638
141.561
107.125
72.7622
38.9066
5.85982
-26.0363
-56.5245
-85.405
-112.532
-137.811
-161.19
-182.652
-202.216
-219.918
-235.812
-249.962
-262.441
-273.318
-282.666
-290.55
-297.027
-302.148
-305.96
-308.509
-309.795
-309.831
-308.674
-306.296
-302.693
-297.856
-291.76
-284.381
-275.692
-265.65
-254.216
-241.352
-227.011
-211.149
-193.732
-174.733
-154.138
-131.952
-108.197
-82.9239
-56.207
-28.1566
1.08081
31.3188
62.4349
93.9861
125.779
157.486
188.757
219.221
248.488
276.163
301.844
325.14
345.673
363.096
377.106
387.456
393.966
396.466
394.992
389.508
380.1
366.882
350.064
329.898
306.692
280.804
252.633
222.609
191.181
158.801
125.911
92.9309
60.2468
28.1911
-2.93985
-32.9009
-61.4955
-88.5721
-114.018
-137.76
-159.751
-179.978
-198.448
-215.188
-230.239
-243.651
-255.484
-265.799
-274.653
-282.101
-288.188
-292.957
-296.445
-298.681
-299.671
-299.44
-298.051
-295.501
-291.806
-286.971
-280.997
-273.88
-265.608
-256.168
-245.543
-233.709
-220.637
-206.287
-190.618
-173.59
-155.165
-135.319
-114.046
-91.3632
-67.3113
-41.9624
-15.4181
12.189
40.7052
70.0066
100.005
130.014
159.883
189.342
218.071
245.714
271.916
296.308
318.498
338.121
354.835
368.315
378.274
384.482
386.778
385.081
379.357
369.719
356.277
339.226
318.895
295.625
269.84
241.976
212.477
181.815
150.437
118.764
87.1904
56.0616
25.8628
-2.59719
-30.338
-56.7947
-81.777
-105.168
-126.91
-146.991
-165.428
-182.268
-197.572
-211.421
-223.899
-235.094
-245.088
-253.958
-261.766
-268.562
-274.38
-279.234
-283.125
-286.038
-287.93
-288.742
-288.425
-286.926
-284.15
-280.035
-274.507
-267.505
-258.98
-248.881
-237.16
-223.807
-208.813
-192.185
-173.948
-154.14
-132.822
-110.083
-86.0266
-60.7887
-34.5383
-7.44905
20.2558
48.3417
76.5759
104.68
132.375
159.397
185.44
210.237
233.491
254.947
274.386
291.531
306.113
-40.0931
-68.7946
-96.9932
-124.1
-149.774
-173.871
-196.268
-216.926
-235.809
-252.921
-268.291
-281.949
-293.934
-304.297
-313.079
-320.325
-326.071
-330.353
-333.184
-334.542
-334.488
-333.023
-330.103
-325.72
-319.836
-312.418
-303.411
-292.772
-280.447
-266.377
-250.51
-232.811
-213.25
-191.816
-168.52
-143.379
-116.464
-87.8772
-57.734
-26.2049
6.47449
39.271
73.3274
107.614
141.818
175.541
208.374
239.947
269.844
297.66
323.043
345.647
365.166
381.338
393.932
402.784
407.79
408.831
405.928
399.1
388.396
373.986
356.047
334.852
310.682
283.844
254.705
223.657
191.098
157.439
123.087
88.4329
53.8917
20.3215
-12.996
-45.3662
-76.5191
-106.245
-134.361
-160.745
-185.289
-207.915
-228.583
-247.262
-263.949
-278.656
-291.398
-302.216
-311.157
-318.276
-323.655
-327.327
-329.367
-329.895
-328.951
-326.593
-322.865
-317.805
-311.425
-303.718
-294.673
-284.267
-272.459
-259.209
-244.481
-228.236
-210.442
-191.078
-170.136
-147.623
-123.567
-98.0139
-71.0371
-42.7356
-13.2375
17.3038
48.7092
80.6964
113.026
145.407
177.514
208.992
239.462
268.53
295.79
320.839
343.285
362.758
378.921
391.482
400.204
404.919
405.437
401.835
394.14
382.382
366.767
347.533
324.971
299.429
271.293
240.985
208.95
175.643
141.53
107.062
72.6689
38.788
5.72064
-26.191
-56.6903
-85.5777
-112.708
-137.986
-161.362
-182.82
-202.377
-220.072
-235.959
-250.101
-262.573
-273.444
-282.785
-290.664
-297.136
-302.253
-306.063
-308.609
-309.889
-309.929
-308.771
-306.394
-302.792
-297.957
-291.864
-284.488
-275.802
-265.765
-254.336
-241.476
-227.14
-211.283
-193.871
-174.875
-154.283
-132.097
-108.342
-83.0659
-56.3437
-28.2852
0.964126
31.2199
62.3457
93.9216
125.74
157.475
188.776
219.272
248.574
276.284
302.001
325.332
345.898
363.35
377.384
387.753
394.273
396.791
395.296
389.81
380.387
367.15
350.306
330.109
306.869
280.944
252.734
222.672
191.205
158.789
125.868
92.8582
60.1497
28.0739
-3.07266
-33.0452
-61.6475
-88.7288
-114.177
-137.918
-159.908
-180.131
-198.597
-215.331
-230.376
-243.782
-255.609
-265.918
-274.767
-282.21
-288.294
-293.06
-296.546
-298.779
-299.763
-299.534
-298.144
-295.592
-291.897
-287.063
-281.09
-273.975
-265.704
-256.266
-245.644
-233.813
-220.746
-206.4
-190.737
-173.713
-155.292
-135.448
-114.176
-91.4929
-67.4375
-42.0834
-15.5313
12.0863
40.6156
69.9333
99.9514
129.984
159.876
189.362
218.12
245.792
272.026
296.45
318.672
338.328
355.072
368.578
378.56
384.785
387.092
385.407
379.664
370.01
356.548
339.471
319.106
295.798
269.972
242.068
212.528
181.828
150.415
118.713
87.1128
55.9631
25.7485
-2.73143
-30.4811
-56.9439
-81.929
-105.32
-127.06
-147.136
-165.567
-182.399
-197.695
-211.535
-224.006
-235.193
-245.18
-254.044
-261.848
-268.641
-274.456
-279.311
-283.203
-286.117
-288.014
-288.828
-288.52
-287.026
-284.254
-280.146
-274.624
-267.627
-259.108
-249.013
-237.295
-223.945
-208.952
-192.325
-174.088
-154.278
-132.956
-110.212
-86.1472
-60.8993
-34.6365
-7.5329
20.188
48.2925
76.5472
104.673
132.392
159.438
185.505
210.327
233.605
255.084
274.544
291.708
306.307
-40.2924
-69.013
-97.2247
-124.34
-150.019
-174.116
-196.51
-217.163
-236.04
-253.145
-268.507
-282.156
-294.134
-304.489
-313.265
-320.505
-326.246
-330.523
-333.352
-334.71
-334.662
-333.195
-330.277
-325.899
-320.019
-312.608
-303.61
-292.979
-280.664
-266.602
-250.743
-233.053
-213.498
-192.069
-168.774
-143.632
-116.712
-88.117
-57.9606
-26.4144
6.28491
39.1323
73.2186
107.543
141.791
175.562
208.446
240.073
270.024
297.892
323.326
345.975
365.535
381.741
394.363
403.234
408.25
409.307
406.379
399.538
388.815
374.375
356.398
335.159
310.941
284.051
254.858
223.756
191.144
157.435
123.037
88.3406
53.7621
20.1528
-13.1893
-45.5811
-76.7508
-106.489
-134.614
-161.004
-185.55
-208.175
-228.84
-247.515
-264.196
-278.896
-291.631
-302.441
-311.374
-318.484
-323.854
-327.512
-329.549
-330.068
-329.118
-326.754
-323.024
-317.962
-311.583
-303.879
-294.84
-284.439
-272.638
-259.395
-244.674
-228.435
-210.647
-191.287
-170.349
-147.837
-123.78
-98.223
-71.2394
-42.9277
-13.4155
17.1436
48.5729
80.5879
112.95
145.369
177.518
209.043
239.564
268.685
296
321.104
343.603
363.124
379.33
391.926
400.674
405.402
405.935
402.316
394.603
382.818
367.166
347.887
325.274
299.676
271.481
241.114
209.018
175.655
141.487
106.969
72.5332
38.6125
5.51499
-26.42
-56.936
-85.8336
-112.968
-138.246
-161.618
-183.069
-202.617
-220.301
-236.176
-250.308
-262.768
-273.628
-282.96
-290.831
-297.296
-302.408
-306.214
-308.755
-310.029
-310.073
-308.914
-306.537
-302.938
-298.105
-292.016
-284.645
-275.965
-265.934
-254.512
-241.66
-227.331
-211.482
-194.076
-175.085
-154.497
-132.313
-108.557
-83.2765
-56.5464
-28.4756
0.791416
31.0728
62.2156
93.8276
125.684
157.461
188.808
219.353
248.706
276.469
302.24
325.623
346.238
363.734
377.805
388.201
394.738
397.276
395.761
390.268
380.823
367.555
350.673
330.43
307.138
281.157
252.889
222.768
191.245
158.775
125.804
92.7517
60.0066
27.9007
-3.26937
-33.2591
-61.873
-88.9612
-114.412
-138.153
-160.139
-180.358
-198.817
-215.543
-230.579
-243.976
-255.794
-266.095
-274.936
-282.372
-288.45
-293.212
-296.694
-298.924
-299.9
-299.674
-298.28
-295.727
-292.032
-287.197
-281.227
-274.113
-265.845
-256.412
-245.793
-233.968
-220.906
-206.568
-190.912
-173.895
-155.48
-135.64
-114.37
-91.6855
-67.6252
-42.2633
-15.6996
11.9337
40.4823
69.8245
99.8721
129.94
159.866
189.391
218.193
245.91
272.192
296.664
318.934
338.638
355.427
368.973
378.989
385.239
387.563
385.884
380.133
370.451
356.957
339.84
319.424
296.058
270.171
242.204
212.605
181.848
150.384
118.634
86.9961
55.8152
25.5767
-2.93297
-30.6959
-57.1678
-82.1573
-105.548
-127.284
-147.354
-165.775
-182.596
-197.88
-211.707
-224.165
-235.341
-245.318
-254.173
-261.97
-268.759
-274.572
-279.426
-283.319
-286.236
-288.138
-288.959
-288.662
-287.175
-284.411
-280.312
-274.798
-267.811
-259.299
-249.21
-237.498
-224.152
-209.162
-192.536
-174.298
-154.484
-133.158
-110.405
-86.3282
-61.0653
-34.7841
-7.65882
20.0862
48.2186
76.504
104.663
132.417
159.5
185.604
210.462
233.776
255.289
274.781
291.975
306.598
-40.5584
-69.3045
-97.5338
-124.66
-150.345
-174.442
-196.833
-217.48
-236.349
-253.443
-268.795
-282.433
-294.4
-304.745
-313.512
-320.744
-326.479
-330.75
-333.574
-334.934
-334.893
-333.423
-330.509
-326.137
-320.264
-312.862
-303.875
-293.255
-280.952
-266.902
-251.055
-233.375
-213.829
-192.405
-169.114
-143.97
-117.044
-88.4369
-58.2631
-26.6941
6.03179
38.9469
73.073
107.448
141.754
175.591
208.543
240.241
270.264
298.202
323.703
346.413
366.027
382.28
394.938
403.835
408.864
409.935
406.989
400.124
389.374
374.894
356.867
335.569
311.286
284.326
255.062
223.888
191.205
157.429
122.969
88.2171
53.5891
19.9271
-13.4476
-45.868
-77.0602
-106.816
-134.952
-161.348
-185.898
-208.522
-229.184
-247.853
-264.526
-279.217
-291.942
-302.741
-311.662
-318.762
-324.118
-327.761
-329.792
-330.299
-329.34
-326.969
-323.235
-318.173
-311.793
-304.094
-295.061
-284.668
-272.875
-259.642
-244.93
-228.7
-210.919
-191.566
-170.632
-148.122
-124.063
-98.5017
-71.5089
-43.1836
-13.6528
16.9299
48.3918
80.4435
112.849
145.319
177.525
209.112
239.701
268.893
296.281
321.458
344.027
363.614
379.876
392.519
401.301
406.045
406.597
402.964
395.222
383.401
367.7
348.36
325.678
300.005
271.732
241.285
209.11
175.67
141.431
106.846
72.3523
38.3787
5.24092
-26.7254
-57.2634
-86.1748
-113.316
-138.593
-161.958
-183.4
-202.936
-220.606
-236.466
-250.583
-263.028
-273.875
-283.194
-291.054
-297.509
-302.613
-306.414
-308.948
-310.218
-310.264
-309.104
-306.729
-303.132
-298.303
-292.219
-284.855
-276.182
-266.159
-254.747
-241.905
-227.586
-211.746
-194.349
-175.366
-154.782
-132.6
-108.843
-83.5572
-56.8165
-28.7294
0.560892
30.8749
62.0442
93.7028
125.609
157.442
188.85
219.46
248.883
276.717
302.56
326.012
346.693
364.248
378.367
388.8
395.359
397.914
396.39
390.881
381.405
368.097
351.162
330.858
307.497
281.442
253.097
222.898
191.298
158.757
125.72
92.6098
59.8157
27.6697
-3.53171
-33.5444
-62.1738
-89.2711
-114.725
-138.465
-160.449
-180.66
-199.11
-215.826
-230.85
-244.234
-256.041
-266.33
-275.161
-282.588
-288.658
-293.415
-296.891
-299.114
-300.087
-299.86
-298.461
-295.906
-292.21
-287.377
-281.409
-274.298
-266.033
-256.604
-245.992
-234.173
-221.121
-206.792
-191.145
-174.137
-155.73
-135.896
-114.628
-91.9419
-67.8754
-42.5033
-15.9241
11.7301
40.3045
69.6791
99.7662
129.88
159.853
189.43
218.29
246.066
272.412
296.949
319.284
339.052
355.9
369.5
379.56
385.845
388.191
386.513
380.761
371.044
357.504
340.333
319.848
296.405
270.435
242.386
212.706
181.874
150.34
118.53
86.8399
55.6176
25.347
-3.20193
-30.9826
-57.4666
-82.4619
-105.853
-127.584
-147.644
-166.052
-182.858
-198.126
-211.936
-224.378
-235.538
-245.502
-254.345
-262.133
-268.916
-274.726
-279.579
-283.475
-286.395
-288.303
-289.135
-288.852
-287.374
-284.621
-280.533
-275.032
-268.055
-259.555
-249.473
-237.768
-224.428
-209.441
-192.816
-174.578
-154.76
-133.426
-110.662
-86.5699
-61.2868
-34.9811
-7.82704
19.9503
48.1198
76.4462
104.65
132.451
159.582
185.735
210.642
234.004
255.563
275.097
292.33
306.987
-40.8914
-69.6694
-97.9206
-125.062
-150.753
-174.851
-197.238
-217.876
-236.734
-253.817
-269.155
-282.78
-294.733
-305.066
-313.821
-321.044
-326.771
-331.034
-333.852
-335.216
-335.178
-333.707
-330.798
-326.433
-320.57
-313.18
-304.206
-293.601
-281.312
-267.278
-251.445
-233.778
-214.243
-192.826
-169.538
-144.392
-117.459
-88.8372
-58.6417
-27.0441
5.71508
38.7139
72.89
107.329
141.708
175.625
208.664
240.451
270.564
298.59
324.174
346.961
366.643
382.953
395.657
404.586
409.632
410.711
407.758
400.86
390.073
375.543
357.453
336.082
311.718
284.671
255.316
224.052
191.281
157.422
122.884
88.0621
53.3722
19.6444
-13.7711
-46.2273
-77.4476
-107.224
-135.375
-161.78
-186.333
-208.957
-229.614
-248.276
-264.939
-279.618
-292.33
-303.117
-312.024
-319.108
-324.446
-328.075
-330.094
-330.587
-329.617
-327.238
-323.499
-318.435
-312.057
-304.362
-295.338
-284.954
-273.172
-259.951
-245.251
-229.031
-211.26
-191.916
-170.986
-148.479
-124.418
-98.8504
-71.8463
-43.5041
-13.95
16.6621
48.1653
80.2624
112.723
145.255
177.532
209.198
239.872
269.153
296.633
321.901
344.558
364.226
380.56
393.261
402.086
406.853
407.419
403.777
395.998
384.131
368.368
348.952
326.184
300.418
272.046
241.499
209.225
175.689
141.359
106.692
72.125
38.0857
4.89741
-27.108
-57.6737
-86.602
-113.75
-139.026
-162.385
-183.814
-203.334
-220.988
-236.829
-250.926
-263.353
-274.183
-283.487
-291.332
-297.776
-302.871
-306.663
-309.188
-310.457
-310.503
-309.341
-306.968
-303.375
-298.551
-292.473
-285.118
-276.454
-266.441
-255.042
-242.211
-227.904
-212.077
-194.691
-175.716
-155.138
-132.959
-109.201
-83.9086
-57.1549
-29.0475
0.271678
30.6248
61.8311
93.5464
125.516
157.419
188.903
219.594
249.103
277.026
302.959
326.499
347.263
364.891
379.071
389.55
396.137
398.705
397.182
391.649
382.135
368.775
351.775
331.394
307.947
281.798
253.356
223.059
191.365
158.733
125.614
92.4319
59.5758
27.38
-3.86055
-33.9019
-62.5506
-89.6591
-115.118
-138.857
-160.836
-181.039
-199.477
-216.179
-231.188
-244.558
-256.35
-266.624
-275.442
-282.858
-288.919
-293.668
-297.136
-299.352
-300.323
-300.091
-298.688
-296.131
-292.433
-287.601
-281.636
-274.528
-266.269
-256.846
-246.24
-234.431
-221.388
-207.071
-191.437
-174.441
-156.043
-136.216
-114.952
-92.2627
-68.189
-42.8039
-16.2053
11.4749
40.0814
69.4964
99.6333
129.805
159.837
189.479
218.41
246.262
272.688
297.304
319.721
339.569
356.493
370.159
380.276
386.603
388.975
387.301
381.541
371.789
358.19
340.949
320.378
296.838
270.766
242.613
212.833
181.906
150.286
118.398
86.6436
55.3701
25.0586
-3.53844
-31.3413
-57.8406
-82.843
-106.234
-127.958
-148.007
-166.399
-183.186
-198.433
-212.223
-224.644
-235.785
-245.731
-254.56
-262.337
-269.112
-274.917
-279.77
-283.668
-286.593
-288.508
-289.354
-289.088
-287.623
-284.882
-280.81
-275.323
-268.361
-259.874
-249.803
-238.107
-224.773
-209.791
-193.168
-174.928
-155.106
-133.762
-110.984
-86.8723
-61.5642
-35.2279
-8.03775
19.7801
47.9959
76.3736
104.633
132.493
159.685
185.9
210.867
234.289
255.905
275.493
292.775
307.473
-41.2919
-70.108
-98.3854
-125.544
-151.243
-175.341
-197.723
-218.352
-237.198
-254.265
-269.587
-283.195
-295.133
-305.451
-314.192
-321.403
-327.12
-331.374
-334.186
-335.554
-335.517
-334.048
-331.144
-326.789
-320.937
-313.561
-304.603
-294.015
-281.745
-267.728
-251.913
-234.261
-214.74
-193.332
-170.048
-144.9
-117.958
-89.3182
-59.0968
-27.4647
5.3349
38.4323
72.6691
107.184
141.652
175.666
208.808
240.703
270.924
299.055
324.739
347.619
367.382
383.762
396.521
405.488
410.556
411.641
408.68
401.746
390.913
376.322
358.157
336.697
312.235
285.083
255.621
224.249
191.372
157.411
122.781
87.875
53.1105
19.3047
-14.1604
-46.6593
-77.9133
-107.715
-135.884
-162.299
-186.856
-209.479
-230.13
-248.783
-265.435
-280.099
-292.797
-303.568
-312.458
-319.525
-324.841
-328.454
-330.457
-330.934
-329.949
-327.56
-323.816
-318.75
-312.373
-304.685
-295.67
-285.298
-273.529
-260.322
-245.636
-229.43
-211.67
-192.335
-171.412
-148.907
-124.845
-99.2697
-72.2521
-43.8897
-14.3078
16.3396
47.8928
80.0441
112.57
145.178
177.54
209.3
240.076
269.464
297.054
322.432
345.195
364.962
381.382
394.154
403.03
407.825
408.405
404.753
396.933
385.009
369.17
349.663
326.792
300.913
272.423
241.756
209.362
175.711
141.272
106.505
71.8504
37.7329
4.48367
-27.5688
-58.1675
-87.116
-114.273
-139.548
-162.897
-184.312
-203.814
-221.446
-237.265
-251.339
-263.744
-274.553
-283.838
-291.667
-298.097
-303.18
-306.963
-309.478
-310.744
-310.789
-309.626
-307.255
-303.667
-298.848
-292.778
-285.433
-276.78
-266.78
-255.395
-242.579
-228.287
-212.475
-195.102
-176.138
-155.567
-133.392
-109.631
-84.3313
-57.562
-29.4304
-0.0768106
30.3219
61.5758
93.3582
125.403
157.389
188.964
219.755
249.367
277.397
303.438
327.084
347.946
365.663
379.917
390.451
397.072
399.655
398.134
392.571
383.011
369.59
352.512
332.038
308.486
282.226
253.667
223.253
191.443
158.703
125.486
92.2167
59.2865
27.0309
-4.25655
-34.3322
-63.0039
-90.1257
-115.59
-139.328
-161.3
-181.493
-199.918
-216.604
-231.595
-244.947
-256.72
-266.977
-275.78
-283.182
-289.231
-293.971
-297.431
-299.639
-300.607
-300.369
-298.96
-296.4
-292.701
-287.87
-281.909
-274.806
-266.552
-257.135
-246.538
-234.74
-221.71
-207.406
-191.787
-174.805
-156.419
-136.601
-115.34
-92.6483
-68.5662
-43.1654
-16.5435
11.1677
39.8127
69.2755
99.4735
129.713
159.817
189.536
218.554
246.497
273.018
297.731
320.245
340.19
357.204
370.951
381.135
387.513
389.917
388.249
382.477
372.684
359.016
341.689
321.015
297.358
271.162
242.885
212.984
181.943
150.219
118.238
86.4067
55.0722
24.7107
-3.94262
-31.7723
-58.29
-83.3012
-106.692
-128.409
-148.443
-166.816
-183.58
-198.803
-212.567
-224.963
-236.081
-246.006
-254.818
-262.581
-269.347
-275.147
-279.999
-283.901
-286.832
-288.756
-289.617
-289.37
-287.92
-285.196
-281.142
-275.673
-268.729
-260.257
-250.198
-238.513
-225.187
-210.21
-193.589
-175.348
-155.52
-134.166
-111.371
-87.2357
-61.8976
-35.5247
-8.29116
19.5754
47.8467
76.286
104.612
132.543
159.808
186.096
211.137
234.63
256.315
275.968
293.309
308.057
-41.7602
-70.6208
-98.9287
-126.107
-151.815
-175.915
-198.29
-218.907
-237.738
-254.788
-270.091
-283.68
-295.599
-305.899
-314.625
-321.822
-327.528
-331.772
-334.577
-335.947
-335.911
-334.445
-331.548
-327.204
-321.365
-314.005
-305.066
-294.499
-282.249
-268.254
-252.459
-234.826
-215.32
-193.923
-170.644
-145.493
-118.541
-89.8806
-59.6289
-27.9562
4.89129
38.1011
72.4097
107.014
141.585
175.713
208.976
240.996
271.343
299.598
325.399
348.387
368.246
384.706
397.53
406.543
411.635
412.726
409.756
402.782
391.895
377.232
358.978
337.416
312.839
285.565
255.976
224.477
191.476
157.399
122.659
87.6554
52.8032
18.9078
-14.6158
-47.1644
-78.458
-108.289
-136.478
-162.905
-187.467
-210.088
-230.733
-249.376
-266.014
-280.662
-293.342
-304.095
-312.964
-320.01
-325.303
-328.896
-330.88
-331.338
-330.337
-327.936
-324.185
-319.117
-312.742
-305.062
-296.058
-285.699
-273.946
-260.756
-246.086
-229.895
-212.149
-192.825
-171.91
-149.408
-125.343
-99.76
-72.7268
-44.3408
-14.7263
15.9612
47.5739
79.7881
112.39
145.086
177.548
209.418
240.313
269.826
297.546
323.052
345.939
365.821
382.342
395.196
404.133
408.963
409.556
405.892
398.024
386.034
370.107
350.493
327.501
301.49
272.863
242.055
209.522
175.735
141.169
106.285
71.5279
37.3196
3.99899
-28.1083
-58.7455
-87.7173
-114.884
-140.157
-163.497
-184.895
-204.374
-221.982
-237.775
-251.821
-264.201
-274.985
-284.248
-292.058
-298.471
-303.54
-307.312
-309.817
-311.079
-311.122
-309.959
-307.59
-304.007
-299.195
-293.135
-285.801
-277.161
-267.177
-255.808
-243.009
-228.734
-212.94
-195.582
-176.631
-156.069
-133.897
-110.135
-84.8257
-58.0385
-29.8788
-0.485193
29.9658
61.2772
93.1374
125.27
157.353
189.035
219.94
249.674
277.83
303.996
327.766
348.745
366.565
380.905
391.504
398.166
400.766
399.244
393.649
384.036
370.541
353.371
332.789
309.116
282.724
254.029
223.477
191.534
158.667
125.334
91.9638
58.9471
26.6215
-4.7205
-34.836
-63.5343
-90.6716
-116.141
-139.879
-161.844
-182.024
-200.433
-217.1
-232.071
-245.401
-257.153
-267.39
-276.174
-283.56
-289.596
-294.325
-297.776
-299.975
-300.938
-300.693
-299.278
-296.714
-293.014
-288.185
-282.227
-275.129
-266.882
-257.473
-246.886
-235.1
-222.085
-207.798
-192.197
-175.231
-156.858
-137.05
-115.793
-93.0992
-69.0074
-43.5882
-16.9393
10.8079
39.4977
69.0148
99.2873
129.605
159.794
189.603
218.72
246.77
273.403
298.228
320.857
340.915
358.034
371.875
382.138
388.577
391.018
389.359
383.57
373.729
359.981
342.555
321.759
297.964
271.624
243.201
213.158
181.985
150.139
118.05
86.1286
54.7233
24.3027
-4.41457
-32.276
-58.8152
-83.8367
-107.228
-128.935
-148.952
-167.302
-184.04
-199.233
-212.968
-225.335
-236.425
-246.327
-255.119
-262.866
-269.621
-275.415
-280.266
-284.171
-287.11
-289.046
-289.922
-289.699
-288.267
-285.562
-281.529
-276.081
-269.157
-260.704
-250.66
-238.987
-225.671
-210.7
-194.082
-175.839
-156.005
-134.638
-111.823
-87.6606
-62.2874
-35.872
-8.58759
19.3358
47.6718
76.1831
104.587
132.6
159.951
186.326
211.451
235.029
256.794
276.523
293.933
308.739
-42.297
-71.2082
-99.5509
-126.752
-152.471
-176.57
-198.938
-219.543
-238.356
-255.386
-270.667
-284.234
-296.132
-306.412
-315.12
-322.301
-327.993
-332.227
-335.025
-336.396
-336.36
-334.898
-332.01
-327.677
-321.854
-314.512
-305.596
-295.051
-282.826
-268.856
-253.084
-235.473
-215.983
-194.598
-171.325
-146.172
-119.208
-90.5248
-60.2384
-28.5191
4.38407
37.7189
72.111
106.818
141.506
175.764
209.166
241.33
271.823
300.219
326.154
349.265
369.233
385.787
398.685
407.749
412.87
413.967
410.986
403.969
393.019
378.274
359.918
338.237
313.53
286.115
256.382
224.737
191.594
157.383
122.518
87.4024
52.4492
18.4537
-15.1379
-47.7433
-79.0819
-108.946
-137.159
-163.599
-188.166
-210.785
-231.423
-250.054
-266.676
-281.305
-293.965
-304.697
-313.543
-320.565
-325.832
-329.401
-331.363
-331.799
-330.78
-328.366
-324.607
-319.535
-313.164
-305.492
-296.501
-286.157
-274.422
-261.252
-246.6
-230.427
-212.697
-193.386
-172.48
-149.981
-125.914
-100.322
-73.2708
-44.8577
-15.2064
15.5265
47.2079
79.4937
112.183
144.979
177.556
209.552
240.582
270.24
298.106
323.761
346.79
366.803
383.44
396.39
405.395
410.266
410.874
407.194
399.275
387.208
371.179
351.443
328.312
302.15
273.365
242.395
209.702
175.761
141.049
106.032
71.1565
36.8448
3.44234
-28.7274
-59.4086
-88.4068
-115.584
-140.856
-164.183
-185.561
-205.015
-222.594
-238.357
-252.373
-264.722
-275.479
-284.717
-292.505
-298.899
-303.953
-307.711
-310.206
-311.462
-311.503
-310.34
-307.974
-304.396
-299.592
-293.543
-286.221
-277.596
-267.63
-256.279
-243.5
-229.247
-213.472
-196.131
-177.195
-156.643
-134.476
-110.712
-85.3922
-58.5849
-30.3931
-0.954264
29.5559
60.9351
92.8835
125.116
157.311
189.115
220.152
250.024
278.323
304.634
328.546
349.658
367.597
382.037
392.71
399.418
402.039
400.514
394.883
385.209
371.631
354.355
333.649
309.837
283.294
254.442
223.732
191.635
158.624
125.159
91.6721
58.5567
26.1512
-5.25321
-35.4139
-64.1425
-91.2971
-116.774
-140.509
-162.466
-182.632
-201.022
-217.668
-232.615
-245.92
-257.648
-267.862
-276.625
-283.993
-290.013
-294.73
-298.171
-300.36
-301.316
-301.063
-299.641
-297.072
-293.371
-288.545
-282.592
-275.5
-267.26
-257.86
-247.284
-235.512
-222.514
-208.246
-192.665
-175.718
-157.362
-137.565
-116.313
-93.6158
-69.513
-44.0726
-17.3929
10.3952
39.136
68.7112
99.0768
129.48
159.766
189.678
218.908
247.081
273.841
298.796
321.557
341.744
358.983
372.932
383.286
389.795
392.279
390.63
384.821
374.924
361.087
343.545
322.609
298.658
272.151
243.561
213.356
182.031
150.046
117.836
85.808
54.3221
23.8339
-4.95434
-32.8527
-59.4167
-84.45
-107.841
-129.537
-149.535
-167.859
-184.565
-199.726
-213.426
-225.76
-236.819
-246.693
-255.461
-263.191
-269.933
-275.721
-280.571
-284.481
-287.428
-289.377
-290.272
-290.075
-288.661
-285.981
-281.972
-276.548
-269.648
-261.215
-251.188
-239.529
-226.224
-211.261
-194.645
-176.401
-156.559
-135.179
-112.341
-88.1471
-62.7338
-36.2698
-8.92754
19.061
47.471
76.0646
104.558
132.665
160.114
186.588
211.811
235.485
257.342
277.158
294.646
309.519
-42.9028
-71.8709
-100.253
-127.479
-153.209
-177.309
-199.669
-220.258
-239.052
-256.059
-271.315
-284.857
-296.731
-306.988
-315.676
-322.84
-328.517
-332.739
-335.529
-336.899
-336.864
-335.407
-332.528
-328.209
-322.404
-315.083
-306.192
-295.673
-283.475
-269.532
-253.787
-236.2
-216.73
-195.359
-172.093
-146.938
-119.96
-91.2514
-60.9258
-29.1537
3.81313
37.2847
71.7719
106.594
141.416
175.821
209.379
241.704
272.361
300.917
327.003
350.254
370.346
387.004
399.985
409.109
414.262
415.365
412.37
405.307
394.286
379.447
360.976
339.162
314.307
286.733
256.837
225.029
191.726
157.363
122.357
87.1148
52.0479
17.942
-15.7273
-48.3963
-79.7856
-109.687
-137.926
-164.382
-188.953
-211.571
-232.2
-250.817
-267.421
-282.03
-294.667
-305.375
-314.195
-321.191
-326.428
-329.971
-331.907
-332.318
-331.278
-328.85
-325.082
-320.006
-313.638
-305.976
-296.998
-286.673
-274.959
-261.809
-247.18
-231.026
-213.315
-194.018
-173.122
-150.628
-126.558
-100.955
-73.8844
-45.4411
-15.7483
15.0349
46.7941
79.1599
111.947
144.857
177.562
209.7
240.884
270.703
298.736
324.558
347.748
367.91
384.678
397.735
406.819
411.737
412.361
408.661
400.685
388.531
372.387
352.513
329.225
302.892
273.929
242.777
209.904
175.788
140.911
105.744
70.7352
36.3077
2.81286
-29.4271
-60.1577
-89.1852
-116.375
-141.643
-164.956
-186.312
-205.738
-223.284
-239.013
-252.994
-265.31
-276.035
-285.245
-293.008
-299.381
-304.416
-308.16
-310.644
-311.893
-311.931
-310.768
-308.406
-304.834
-300.039
-294.001
-286.695
-278.087
-268.14
-256.811
-244.054
-229.823
-214.071
-196.75
-177.83
-157.29
-135.129
-111.362
-86.0316
-59.2018
-30.9743
-1.48486
29.0911
60.5489
92.5957
124.94
157.261
189.203
220.388
250.416
278.877
305.352
329.423
350.686
368.76
383.312
394.069
400.831
403.474
401.944
396.273
386.53
372.859
355.464
334.618
310.647
283.935
254.906
224.018
191.748
158.572
124.959
91.341
58.1144
25.6189
-5.8555
-36.0669
-64.8291