/*--------------------------------*- C++ -*----------------------------------*\
| =========                 |                                                 |
| \\      /  F ield         | OpenFOAM: The Open Source CFD Toolbox           |
|  \\    /   O peration     | Version:  3.0.1                                 |
|   \\  /    A nd           | Web:      www.OpenFOAM.org                      |
|    \\/     M anipulation  |                                                 |
\*---------------------------------------------------------------------------*/
FoamFile
{
    version     2.0;
    format      ascii;
    class       volScalarField;
    location    "38";
    object      p_rgh;
}
// * * * * * * * * * * * * * * * * * * * * * * * * * * * * * * * * * * * * * //

dimensions      [1 -1 -2 0 0 0 0];

internalField   nonuniform List<scalar> 
21420
(
-165.482
-183.601
-200.237
-215.358
-228.948
-241.046
-251.686
-260.915
-268.771
-275.293
-280.516
-284.468
-287.172
-288.611
-288.778
-287.648
-285.246
-281.549
-276.529
-270.145
-262.364
-253.135
-242.406
-230.126
-216.245
-200.716
-183.497
-164.551
-143.864
-121.437
-97.2819
-71.4471
-44.0165
-15.0978
15.1294
46.3669
78.6874
111.712
145.131
178.65
211.897
244.515
276.111
306.3
334.736
361.061
384.925
406.038
424.129
438.956
450.336
458.127
462.235
462.551
459.211
452.163
441.482
427.373
410.037
389.691
366.614
341.102
313.459
284.031
253.183
221.259
188.598
155.551
122.447
89.5719
57.2164
25.7607
-4.57166
-33.9801
-62.1985
-89.0514
-114.4
-138.147
-160.21
-180.53
-199.076
-215.817
-230.744
-243.854
-255.151
-264.649
-272.364
-278.326
-282.574
-285.135
-286.034
-285.349
-283.128
-279.391
-274.171
-267.489
-259.359
-249.782
-238.746
-226.23
-212.202
-196.635
-179.505
-160.788
-140.475
-118.578
-95.1196
-70.1461
-43.7283
-15.9638
13.0123
43.303
74.267
105.941
138.074
170.39
202.591
234.352
265.327
295.151
323.443
349.817
373.89
395.29
413.66
428.68
440.073
447.61
451.089
450.436
445.614
436.695
423.707
406.853
386.362
362.526
335.679
306.2
274.502
241.022
206.212
170.531
134.436
98.3708
62.7529
27.9694
-5.65187
-37.8216
-68.3076
-96.9345
-123.581
-148.173
-170.679
-191.103
-209.476
-225.847
-240.279
-252.846
-263.622
-272.683
-280.101
-285.943
-290.266
-293.14
-294.579
-294.594
-293.268
-290.582
-286.547
-281.156
-274.401
-266.273
-256.757
-245.832
-233.473
-219.647
-204.318
-187.454
-169.023
-148.997
-127.365
-104.13
-79.3267
-53.0097
-25.2586
3.79974
34.0091
65.2522
97.1211
129.406
161.78
193.885
225.331
255.712
284.605
311.585
336.231
358.138
376.931
392.266
403.852
411.449
414.878
414.019
408.903
399.604
386.192
368.918
348.065
323.979
297.057
267.74
236.491
203.783
170.094
135.884
101.585
67.5954
34.2676
1.89843
-29.2555
-58.9912
-87.1515
-113.625
-138.331
-161.227
-182.295
-201.533
-218.966
-234.623
-248.547
-260.784
-271.389
-280.417
-287.916
-293.936
-298.516
-301.703
-303.511
-303.948
-303.028
-300.782
-297.192
-292.244
-285.929
-278.227
-269.121
-258.585
-246.592
-233.123
-218.161
-201.687
-183.691
-164.167
-143.123
-120.585
-96.5904
-71.2005
-44.4988
-16.6038
12.3435
42.1765
72.7927
103.695
134.72
165.56
195.877
225.299
253.443
279.918
304.332
326.308
345.489
361.548
374.201
383.192
388.344
389.542
386.711
379.887
369.152
354.625
336.551
315.194
290.895
264.011
234.942
204.119
171.979
138.958
105.474
71.8793
38.4597
10.9739
-20.1935
-49.9613
-78.1829
-104.722
-129.491
-152.433
-173.527
-192.785
-210.239
-225.947
-239.976
-252.399
-263.295
-272.738
-280.797
-287.53
-292.988
-297.21
-300.228
-302.032
-302.615
-301.792
-299.739
-296.355
-291.6
-285.424
-277.757
-268.538
-257.716
-245.243
-231.082
-215.199
-197.588
-178.266
-157.27
-134.651
-110.499
-84.9344
-58.0911
-30.1494
-1.3335
28.3531
58.2778
88.3962
118.422
148.027
176.896
204.719
231.153
255.892
278.613
299.041
316.937
332.062
344.213
353.22
358.938
361.253
359.75
354.675
346.098
334.241
319.341
-165.554
-183.671
-200.305
-215.423
-229.011
-241.106
-251.744
-260.971
-268.824
-275.345
-280.567
-284.518
-287.221
-288.66
-288.828
-287.699
-285.297
-281.601
-276.583
-270.201
-262.422
-253.196
-242.469
-230.192
-216.314
-200.787
-183.571
-164.627
-143.941
-121.515
-97.3603
-71.5244
-44.0915
-15.1691
15.0635
46.307
78.636
111.671
145.102
178.635
211.896
244.53
276.142
306.347
334.8
361.14
385.019
406.146
424.249
439.087
450.474
458.27
462.38
462.705
459.349
452.298
441.612
427.492
410.145
389.786
366.694
341.167
313.508
284.064
253.201
221.262
188.587
155.528
122.411
89.5262
57.162
25.7025
-4.63656
-34.0505
-62.2729
-89.1293
-114.481
-138.229
-160.293
-180.613
-199.159
-215.9
-230.827
-243.936
-255.232
-264.729
-272.444
-278.404
-282.651
-285.21
-286.105
-285.422
-283.199
-279.46
-274.24
-267.559
-259.429
-249.853
-238.819
-226.304
-212.279
-196.714
-179.586
-160.87
-140.558
-118.661
-95.2025
-70.2278
-43.8078
-16.0392
12.9458
43.2312
74.2065
105.89
138.033
170.36
202.575
234.35
265.34
295.181
323.489
349.881
373.972
395.389
413.774
428.809
440.212
447.757
451.248
450.587
445.764
436.839
423.843
406.976
386.471
362.617
335.752
306.253
274.536
241.036
206.206
170.507
134.395
98.3144
62.683
27.8882
-5.74215
-37.9186
-68.409
-97.0384
-123.686
-148.277
-170.781
-191.202
-209.571
-225.938
-240.367
-252.93
-263.702
-272.76
-280.175
-286.014
-290.335
-293.207
-294.643
-294.659
-293.332
-290.646
-286.611
-281.221
-274.466
-266.34
-256.825
-245.902
-233.545
-219.72
-204.394
-187.533
-169.104
-149.079
-127.448
-104.213
-79.4093
-53.0903
-25.3361
3.72691
33.9435
65.1924
97.0724
129.369
161.758
193.878
225.341
255.74
284.653
311.652
336.316
358.242
377.051
392.4
403.998
411.604
415.043
414.177
409.058
399.752
386.33
369.042
348.172
324.067
297.125
267.787
236.516
203.789
170.081
135.853
101.54
67.5372
34.1991
1.82185
-29.3381
-59.0778
-87.2405
-113.715
-138.421
-161.316
-182.382
-201.619
-219.048
-234.703
-248.624
-260.858
-271.461
-280.486
-287.983
-294.001
-298.58
-301.766
-303.572
-304.007
-303.089
-300.844
-297.254
-292.307
-285.992
-278.292
-269.187
-258.653
-246.661
-233.194
-218.233
-201.76
-183.766
-164.243
-143.199
-120.661
-96.6656
-71.2736
-44.569
-16.6697
12.283
42.1226
72.7496
103.663
134.699
165.553
195.885
225.324
253.486
279.979
304.41
326.403
345.6
361.673
374.337
383.338
388.497
389.703
386.864
380.036
369.295
354.758
336.672
315.299
290.984
264.081
234.992
204.15
171.991
138.953
105.455
71.8508
38.4343
10.8863
-20.275
-50.0429
-78.2662
-104.806
-129.575
-152.516
-173.608
-192.863
-210.314
-226.017
-240.042
-252.462
-263.354
-272.794
-280.85
-287.581
-293.037
-297.258
-300.274
-302.079
-302.662
-301.843
-299.79
-296.408
-291.657
-285.483
-277.819
-268.603
-257.784
-245.313
-231.154
-215.272
-197.662
-178.341
-157.344
-134.723
-110.568
-84.9994
-58.1509
-30.2021
-1.37644
28.3119
58.2486
88.3786
118.416
148.035
176.918
204.755
231.203
255.956
278.691
299.132
317.038
332.174
344.334
353.348
359.072
361.396
359.881
354.802
346.222
334.358
319.448
-165.697
-183.81
-200.44
-215.553
-229.136
-241.226
-251.859
-261.081
-268.931
-275.449
-280.668
-284.616
-287.318
-288.758
-288.928
-287.802
-285.399
-281.706
-276.691
-270.313
-262.538
-253.317
-242.595
-230.324
-216.451
-200.93
-183.719
-164.779
-144.096
-121.672
-97.5169
-71.6788
-44.2414
-15.3114
14.9319
46.1874
78.5336
111.589
145.044
178.604
211.895
244.559
276.204
306.442
334.928
361.3
385.209
406.364
424.491
439.348
450.75
458.557
462.672
463.01
459.627
452.57
441.871
427.733
410.362
389.976
366.855
341.297
313.606
284.132
253.238
221.27
188.567
155.482
122.343
89.4378
57.0568
25.5906
-4.7615
-34.1853
-62.4151
-89.2777
-114.633
-138.384
-160.448
-180.769
-199.314
-216.053
-230.978
-244.085
-255.378
-264.872
-272.584
-278.541
-282.785
-285.34
-286.228
-285.546
-283.319
-279.578
-274.357
-267.675
-259.546
-249.972
-238.941
-226.43
-212.408
-196.848
-179.723
-161.01
-140.701
-118.805
-95.3455
-70.3686
-43.9441
-16.1676
12.8333
43.1113
74.1074
105.809
137.972
170.322
202.562
234.365
265.387
295.26
323.603
350.029
374.155
395.605
414.021
429.083
440.509
448.07
451.583
450.905
446.081
437.145
424.131
407.24
386.705
362.817
335.914
306.377
274.62
241.08
206.212
170.477
134.331
98.2196
62.5617
27.7444
-5.90371
-38.0932
-68.5923
-97.2263
-123.874
-148.463
-170.963
-191.378
-209.741
-226.1
-240.521
-253.077
-263.842
-272.892
-280.301
-286.135
-290.453
-293.321
-294.75
-294.769
-293.44
-290.753
-286.719
-281.33
-274.577
-266.453
-256.941
-246.021
-233.668
-219.847
-204.525
-187.669
-169.244
-149.223
-127.594
-104.361
-79.5553
-53.2324
-25.4724
3.59984
33.8305
65.0909
96.9929
129.314
161.731
193.882
225.379
255.814
284.764
311.801
336.503
358.464
377.306
392.684
404.304
411.927
415.385
414.508
409.383
400.063
386.62
369.303
348.399
324.255
297.273
267.892
236.58
203.812
170.066
135.805
101.462
67.4339
34.0754
1.68216
-29.4896
-59.2372
-87.4045
-113.881
-138.587
-161.48
-182.543
-201.775
-219.199
-234.849
-248.764
-260.992
-271.59
-280.609
-288.102
-294.116
-298.692
-301.876
-303.68
-304.11
-303.196
-300.951
-297.361
-292.416
-286.104
-278.406
-269.304
-258.772
-246.783
-233.32
-218.362
-201.892
-183.9
-164.379
-143.337
-120.799
-96.8011
-71.4051
-44.6948
-16.7871
12.1763
42.0288
72.6774
103.61
134.671
165.552
195.915
225.387
253.583
280.111
304.576
326.603
345.83
361.929
374.618
383.637
388.808
390.026
387.176
380.34
369.585
355.029
336.917
315.514
291.163
264.223
235.096
204.214
172.017
138.944
105.417
71.7942
38.3877
10.7083
-20.4372
-50.2057
-78.4325
-104.974
-129.743
-152.682
-173.769
-193.019
-210.463
-226.158
-240.176
-252.588
-263.473
-272.906
-280.957
-287.683
-293.136
-297.354
-300.368
-302.173
-302.756
-301.943
-299.893
-296.515
-291.769
-285.601
-277.943
-268.732
-257.919
-245.453
-231.297
-215.419
-197.81
-178.489
-157.491
-134.867
-110.706
-85.1295
-58.2704
-30.3077
-1.45776
28.2252
58.1904
88.3434
118.405
148.05
176.961
204.827
231.304
256.085
278.847
299.312
317.242
332.398
344.575
353.604
359.339
361.683
360.142
355.059
346.47
334.593
319.664
-165.912
-184.019
-200.642
-215.748
-229.323
-241.406
-252.032
-261.248
-269.092
-275.604
-280.819
-284.765
-287.463
-288.903
-289.08
-287.955
-285.552
-281.863
-276.852
-270.48
-262.712
-253.498
-242.785
-230.522
-216.658
-201.144
-183.941
-165.007
-144.329
-121.907
-97.752
-71.9106
-44.4663
-15.5251
14.7343
46.008
78.3798
111.467
144.958
178.558
211.892
244.604
276.297
306.584
335.119
361.539
385.494
406.69
424.853
439.74
451.166
458.988
463.11
463.462
460.05
452.979
442.262
428.094
410.687
390.262
367.097
341.492
313.754
284.233
253.293
221.281
188.538
155.414
122.24
89.3051
56.8992
25.4226
-4.94907
-34.3877
-62.6286
-89.5003
-114.861
-138.615
-160.681
-181.002
-199.546
-216.282
-231.204
-244.308
-255.596
-265.086
-272.793
-278.746
-282.984
-285.533
-286.414
-285.73
-283.498
-279.754
-274.53
-267.848
-259.72
-250.15
-239.123
-226.617
-212.601
-197.047
-179.928
-161.219
-140.914
-119.019
-95.5583
-70.5781
-44.1469
-16.3589
12.6636
42.9359
73.9612
105.69
137.883
170.267
202.545
234.391
265.459
295.381
323.775
350.255
374.432
395.932
414.395
429.498
440.957
448.542
452.079
451.393
446.563
437.608
424.567
407.639
387.059
363.12
336.161
306.565
274.749
241.15
206.225
170.434
134.237
98.0797
62.382
27.5308
-6.14404
-38.3532
-68.8653
-97.5062
-124.156
-148.742
-171.235
-191.642
-209.994
-226.342
-240.751
-253.295
-264.049
-273.089
-280.489
-286.315
-290.627
-293.488
-294.911
-294.932
-293.6
-290.913
-286.88
-281.491
-274.741
-266.621
-257.113
-246.198
-233.85
-220.036
-204.721
-187.872
-169.454
-149.438
-127.811
-104.58
-79.7729
-53.4444
-25.6756
3.41051
33.662
64.9406
96.8751
129.234
161.692
193.889
225.437
255.926
284.933
312.027
336.785
358.8
377.691
393.112
404.767
412.414
415.887
415.017
409.876
400.533
387.058
369.697
348.742
324.54
297.496
268.053
236.678
203.849
170.047
135.734
101.346
67.2805
33.8915
1.47417
-29.7153
-59.4749
-87.6489
-114.128
-138.834
-161.724
-182.782
-202.007
-219.425
-235.066
-248.972
-261.192
-271.782
-280.793
-288.279
-294.287
-298.859
-302.038
-303.84
-304.266
-303.355
-301.11
-297.522
-292.579
-286.27
-278.575
-269.478
-258.949
-246.966
-233.507
-218.554
-202.089
-184.101
-164.582
-143.542
-121.003
-97.0031
-71.6013
-44.8822
-16.962
12.0175
41.8888
72.5706
103.533
134.629
165.552
195.961
225.482
253.729
280.309
304.826
326.903
346.176
362.315
375.039
384.086
389.275
390.503
387.652
380.799
370.021
355.436
337.285
315.835
291.432
264.436
235.25
204.31
172.057
138.931
105.359
71.708
38.3158
10.4425
-20.6797
-50.45
-78.6821
-105.227
-129.996
-152.932
-174.012
-193.252
-210.686
-226.37
-240.376
-252.777
-263.651
-273.075
-281.116
-287.836
-293.283
-297.497
-300.507
-302.313
-302.899
-302.094
-300.047
-296.676
-291.938
-285.779
-278.129
-268.927
-258.121
-245.662
-231.512
-215.639
-198.033
-178.712
-157.712
-135.082
-110.913
-85.3248
-58.4499
-30.4665
-1.5835
28.0985
58.1032
88.2906
118.389
148.073
177.026
204.935
231.455
256.278
279.08
299.583
317.547
332.734
344.938
353.987
359.741
362.105
360.537
355.446
346.844
334.946
319.988
-166.198
-184.298
-200.912
-216.009
-229.573
-241.646
-252.263
-261.47
-269.306
-275.811
-281.021
-284.962
-287.656
-289.096
-289.283
-288.158
-285.755
-282.072
-277.067
-270.703
-262.944
-253.74
-243.038
-230.786
-216.933
-201.43
-184.237
-165.311
-144.639
-122.22
-98.0656
-72.2198
-44.7665
-15.8103
14.4702
45.7684
78.1743
111.303
144.842
178.496
211.889
244.662
276.421
306.774
335.374
361.859
385.874
407.125
425.336
440.264
451.72
459.562
463.693
464.057
460.622
453.528
442.783
428.575
411.121
390.643
367.419
341.753
313.952
284.368
253.366
221.295
188.497
155.324
122.103
89.1279
56.6888
25.1982
-5.19963
-34.658
-62.9137
-89.7975
-115.166
-138.925
-160.993
-181.313
-199.855
-216.589
-231.507
-244.605
-255.888
-265.371
-273.073
-279.019
-283.249
-285.788
-286.666
-285.976
-283.737
-279.988
-274.762
-268.078
-259.952
-250.386
-239.366
-226.867
-212.859
-197.313
-180.201
-161.497
-141.197
-119.304
-95.8422
-70.8574
-44.417
-16.6143
12.4331
42.7064
73.7669
105.532
137.764
170.194
202.523
234.425
265.555
295.542
324.005
350.555
374.803
396.369
414.895
430.052
441.556
449.172
452.727
452.054
447.212
438.228
425.15
408.172
387.532
363.524
336.491
306.817
274.922
241.243
206.241
170.377
134.112
97.8932
62.1422
27.2459
-6.46466
-38.7001
-69.2296
-97.8795
-124.531
-149.113
-171.598
-191.993
-210.331
-226.664
-241.058
-253.587
-264.325
-273.352
-280.739
-286.555
-290.858
-293.711
-295.127
-295.148
-293.813
-291.125
-287.093
-281.707
-274.96
-266.844
-257.342
-246.433
-234.094
-220.288
-204.982
-188.143
-169.733
-149.724
-128.102
-104.872
-80.0631
-53.7275
-25.9466
3.1577
33.436
64.7407
96.7181
129.126
161.64
193.899
225.515
256.076
285.158
312.328
337.162
359.248
378.205
393.684
405.384
413.065
416.552
415.698
410.538
401.161
387.642
370.224
349.2
324.921
297.795
268.267
236.808
203.899
170.021
135.64
101.192
67.0757
33.646
1.19672
-30.0164
-59.7919
-87.975
-114.458
-139.163
-162.05
-183.101
-202.317
-219.725
-235.355
-249.249
-261.458
-272.037
-281.037
-288.514
-294.515
-299.081
-302.254
-304.051
-304.477
-303.567
-301.322
-297.736
-292.796
-286.492
-278.802
-269.709
-259.186
-247.209
-233.757
-218.811
-202.352
-184.368
-164.853
-143.815
-121.276
-97.2725
-71.8631
-45.1322
-17.1953
11.8057
41.7009
72.4291
103.43
134.573
165.552
196.022
225.608
253.924
280.574
305.16
327.303
346.637
362.83
375.601
384.685
389.898
391.133
388.288
381.414
370.605
355.979
337.775
316.264
291.792
264.72
235.456
204.438
172.108
138.913
105.282
71.5907
38.2114
10.0955
-21.0016
-50.7754
-79.015
-105.565
-130.333
-153.264
-174.335
-193.564
-210.983
-226.652
-240.642
-253.028
-263.888
-273.299
-281.329
-288.04
-293.48
-297.689
-300.693
-302.498
-303.091
-302.293
-300.252
-296.89
-292.163
-286.015
-278.377
-269.186
-258.391
-245.941
-231.799
-215.932
-198.329
-179.01
-158.007
-135.37
-111.189
-85.5854
-58.6896
-30.6791
-1.75802
27.9359
57.9874
88.2198
118.366
148.103
177.112
205.078
231.656
256.535
279.391
299.944
317.954
333.182
345.421
354.499
360.275
362.655
361.076
355.967
347.344
335.417
320.42
-166.557
-184.647
-201.25
-216.334
-229.886
-241.946
-252.551
-261.747
-269.573
-276.07
-281.273
-285.209
-287.898
-289.339
-289.534
-288.409
-286.01
-282.333
-277.335
-270.982
-263.234
-254.043
-243.353
-231.116
-217.277
-201.788
-184.607
-165.692
-145.027
-122.613
-98.4579
-72.6068
-45.1422
-16.1675
14.1394
45.4683
77.9168
111.098
144.696
178.418
211.884
244.735
276.575
307.01
335.693
362.258
386.349
407.668
425.941
440.918
452.413
460.281
464.424
464.791
461.344
454.216
443.434
429.177
411.664
391.119
367.822
342.078
314.198
284.536
253.457
221.312
188.447
155.209
121.931
88.9061
56.4258
24.9169
-5.5134
-34.9963
-63.2706
-90.1696
-115.548
-139.312
-161.382
-181.703
-200.242
-216.972
-231.884
-244.976
-256.253
-265.729
-273.422
-279.36
-283.58
-286.108
-286.982
-286.282
-284.035
-280.281
-275.051
-268.366
-260.242
-250.682
-239.669
-227.179
-213.18
-197.645
-180.542
-161.846
-141.552
-119.661
-96.1975
-71.2071
-44.7551
-16.9347
12.1401
42.423
73.5242
105.333
137.615
170.102
202.494
234.468
265.674
295.744
324.293
350.931
375.265
396.916
415.52
430.746
442.305
449.962
453.536
452.88
448.025
439.004
425.88
408.838
388.123
364.03
336.904
307.133
275.137
241.359
206.261
170.305
133.955
97.6592
61.8417
26.8889
-6.86638
-39.1347
-69.6858
-98.3469
-125.001
-149.578
-172.052
-192.432
-210.753
-227.066
-241.441
-253.951
-264.671
-273.68
-281.052
-286.855
-291.148
-293.99
-295.398
-295.417
-294.08
-291.391
-287.361
-281.977
-275.234
-267.124
-257.628
-246.728
-234.399
-220.603
-205.308
-188.481
-170.083
-150.082
-128.466
-105.238
-80.4263
-54.082
-26.2863
2.84079
33.1518
64.4909
96.5213
128.99
161.573
193.91
225.611
256.263
285.439
312.705
337.632
359.809
378.848
394.399
406.157
413.879
417.386
416.544
411.368
401.948
388.374
370.883
349.772
325.397
298.168
268.535
236.97
203.96
169.988
135.521
100.998
66.819
33.3382
0.849115
-30.3935
-60.1888
-88.3832
-114.871
-139.576
-162.457
-183.499
-202.705
-220.1
-235.717
-249.596
-261.79
-272.356
-281.343
-288.809
-294.8
-299.358
-302.524
-304.315
-304.742
-303.831
-301.587
-298.003
-293.067
-286.768
-279.085
-269.998
-259.483
-247.514
-234.07
-219.132
-202.68
-184.702
-165.192
-144.157
-121.618
-97.6096
-72.1908
-45.4452
-17.4875
11.5404
41.4642
72.2528
103.3
134.503
165.55
196.097
225.766
254.167
280.905
305.577
327.803
347.214
363.474
376.304
385.434
390.677
391.923
389.079
382.186
371.335
356.659
338.389
316.8
292.241
265.075
235.714
204.596
172.172
138.889
105.183
71.4405
38.0671
9.67345
-21.4016
-51.182
-79.4314
-105.987
-130.755
-153.68
-174.74
-193.953
-211.355
-227.005
-240.976
-253.342
-264.184
-273.579
-281.595
-288.294
-293.726
-297.928
-300.927
-302.73
-303.329
-302.541
-300.507
-297.158
-292.444
-286.311
-278.687
-269.51
-258.729
-246.291
-232.158
-216.298
-198.701
-179.382
-158.375
-135.73
-111.535
-85.9117
-58.9898
-30.946
-1.98212
27.7376
57.8428
88.1309
118.338
148.141
177.22
205.258
231.907
256.857
279.78
300.395
318.463
333.742
346.025
355.138
360.942
363.336
361.754
356.622
347.97
336.006
320.961
-166.987
-185.066
-201.655
-216.724
-230.261
-242.306
-252.897
-262.079
-269.894
-276.38
-281.575
-285.505
-288.19
-289.631
-289.835
-288.709
-286.314
-282.647
-277.658
-271.317
-263.583
-254.406
-243.732
-231.512
-217.69
-202.217
-185.051
-166.148
-145.493
-123.084
-98.9291
-73.0717
-45.5938
-16.597
13.7417
45.1071
77.6069
110.85
144.521
178.324
211.877
244.823
276.76
307.294
336.076
362.737
386.919
408.321
426.667
441.705
453.246
461.145
465.302
465.67
462.212
455.044
444.217
429.9
412.316
391.691
368.306
342.468
314.493
284.737
253.566
221.333
188.385
155.071
121.724
88.6395
56.11
24.5781
-5.89059
-35.4028
-63.6997
-90.6167
-116.006
-139.778
-161.85
-182.17
-200.707
-217.431
-232.338
-245.423
-256.692
-266.158
-273.842
-279.77
-283.978
-286.494
-287.361
-286.65
-284.393
-280.632
-275.397
-268.712
-260.591
-251.036
-240.032
-227.553
-213.567
-198.044
-180.952
-162.265
-141.978
-120.089
-96.6245
-71.6272
-45.1617
-17.3208
11.7843
42.0852
73.2331
105.094
137.436
169.991
202.46
234.518
265.817
295.985
324.638
351.381
375.821
397.572
416.27
431.578
443.205
450.91
454.51
453.87
449.001
439.938
426.756
409.639
388.834
364.637
337.399
307.511
275.395
241.498
206.284
170.218
133.765
97.3772
61.4797
26.459
-7.34975
-39.6576
-70.2346
-98.9089
-125.565
-150.137
-172.597
-192.959
-211.259
-227.55
-241.901
-254.388
-265.086
-274.074
-281.428
-287.215
-291.495
-294.324
-295.724
-295.741
-294.4
-291.711
-287.681
-282.301
-275.563
-267.46
-257.972
-247.082
-234.764
-220.981
-205.701
-188.888
-170.503
-150.512
-128.903
-105.678
-80.8627
-54.5084
-26.6949
2.45925
32.8087
64.1907
96.2843
128.826
161.493
193.923
225.726
256.487
285.776
313.157
338.198
360.482
379.62
395.257
407.086
414.858
418.39
417.558
412.365
402.895
389.254
371.675
350.46
325.968
298.615
268.855
237.164
204.033
169.947
135.378
100.765
66.5097
32.9675
0.430799
-30.847
-60.6659
-88.8738
-115.367
-140.071
-162.946
-183.978
-203.171
-220.551
-236.151
-250.012
-262.19
-272.738
-281.71
-289.162
-295.142
-299.69
-302.848
-304.633
-305.059
-304.148
-301.905
-298.324
-293.393
-287.101
-279.424
-270.345
-259.839
-247.879
-234.446
-219.517
-203.074
-185.104
-165.599
-144.567
-122.028
-98.0146
-72.5849
-45.8217
-17.8391
11.2215
41.1777
72.042
103.142
134.418
165.548
196.186
225.954
254.459
281.302
306.078
328.402
347.906
364.248
377.147
386.334
391.612
392.874
390.029
383.113
372.214
357.476
339.126
317.444
292.78
265.5
236.023
204.786
172.248
138.859
105.062
71.2552
37.8762
9.18186
-21.8788
-51.6697
-79.9314
-106.495
-131.261
-154.179
-175.226
-194.421
-211.802
-227.428
-241.375
-253.719
-264.539
-273.915
-281.914
-288.6
-294.02
-298.214
-301.208
-303.009
-303.613
-302.837
-300.814
-297.479
-292.782
-286.667
-279.059
-269.899
-259.134
-246.71
-232.589
-216.739
-199.146
-179.829
-158.818
-136.163
-111.951
-86.304
-59.3508
-31.2675
-2.25559
27.5028
57.6693
88.0237
118.303
148.185
177.349
205.473
232.209
257.242
280.247
300.937
319.073
334.415
346.75
355.906
361.742
364.153
362.567
357.411
348.724
336.713
321.61
-167.49
-185.555
-202.128
-217.18
-230.699
-242.727
-253.3
-262.467
-270.268
-276.742
-281.928
-285.85
-288.531
-289.971
-290.184
-289.057
-286.67
-283.011
-278.034
-271.707
-263.989
-254.83
-244.175
-231.974
-218.171
-202.718
-185.57
-166.681
-146.037
-123.635
-99.4795
-73.615
-46.1216
-17.0992
13.2768
44.684
77.2439
110.561
144.316
178.213
211.869
244.923
276.975
307.625
336.522
363.296
387.585
409.084
427.514
442.623
454.218
462.154
466.329
466.696
463.222
456.013
445.132
430.744
413.077
392.358
368.871
342.923
314.837
284.971
253.692
221.355
188.312
154.91
121.482
88.3275
55.741
24.1813
-6.33157
-35.8777
-64.2012
-91.1391
-116.542
-140.321
-162.396
-182.717
-201.249
-217.968
-232.868
-245.944
-257.203
-266.66
-274.333
-280.248
-284.442
-286.944
-287.801
-287.078
-284.811
-281.042
-275.802
-269.115
-260.998
-251.45
-240.456
-227.99
-214.018
-198.51
-181.431
-162.755
-142.475
-120.59
-97.1236
-72.1181
-45.6373
-17.773
11.3657
41.6924
72.8929
104.814
137.225
169.859
202.418
234.575
265.982
296.265
325.039
351.906
376.469
398.338
417.146
432.551
444.256
452.018
455.651
455.025
450.139
441.03
427.78
410.575
389.663
365.346
337.977
307.951
275.695
241.659
206.309
170.115
133.542
97.0464
61.0553
25.9557
-7.91555
-40.2694
-70.8764
-99.5661
-126.225
-150.789
-173.234
-193.575
-211.851
-228.115
-242.438
-254.898
-265.57
-274.534
-281.867
-287.635
-291.899
-294.714
-296.106
-296.118
-294.773
-292.083
-288.056
-282.679
-275.947
-267.852
-258.373
-247.495
-235.19
-221.422
-206.159
-189.363
-170.993
-151.014
-129.415
-106.192
-81.3727
-55.007
-27.173
2.01252
32.4062
63.8397
96.0064
128.633
161.397
193.936
225.858
256.747
286.169
313.683
338.857
361.267
380.522
396.26
408.171
416.002
419.566
418.742
413.528
404.002
390.281
372.599
351.263
326.634
299.137
269.228
237.39
204.116
169.898
135.208
100.49
66.147
32.5333
-0.0589457
-31.3775
-61.2238
-89.4473
-115.946
-140.649
-163.517
-184.537
-203.715
-221.077
-236.657
-250.499
-262.656
-273.185
-282.138
-289.574
-295.54
-300.078
-303.226
-305.005
-305.428
-304.517
-302.276
-298.698
-293.773
-287.488
-279.819
-270.75
-260.255
-248.306
-234.884
-219.967
-203.534
-185.573
-166.075
-145.047
-122.507
-98.4879
-73.0455
-46.2622
-18.2503
10.849
40.8396
71.7973
102.956
134.316
165.544
196.289
226.173
254.798
281.765
306.661
329.102
348.714
365.153
378.133
387.384
392.706
393.985
391.139
384.194
373.241
358.43
339.987
318.196
293.409
265.997
236.382
205.007
172.335
138.822
104.918
71.0327
37.633
8.62471
-22.432
-52.2385
-80.5153
-107.087
-131.853
-154.763
-175.794
-194.967
-212.323
-227.922
-241.842
-254.158
-264.954
-274.306
-282.286
-288.956
-294.364
-298.549
-301.536
-303.335
-303.944
-303.181
-301.171
-297.854
-293.176
-287.082
-279.494
-270.353
-259.607
-247.199
-233.093
-217.253
-199.667
-180.351
-159.336
-136.668
-112.438
-86.7626
-59.773
-31.6443
-2.57814
27.2307
57.4666
87.8977
118.261
148.236
177.498
205.724
232.561
257.693
280.791
301.57
319.787
335.2
347.597
356.803
362.675
365.107
363.516
358.333
349.605
337.54
322.368
-168.065
-186.114
-202.668
-217.701
-231.2
-243.207
-253.761
-262.91
-270.695
-277.156
-282.331
-286.245
-288.92
-290.361
-290.58
-289.454
-287.076
-283.427
-278.464
-272.153
-264.453
-255.314
-244.68
-232.502
-218.722
-203.291
-186.163
-167.291
-146.659
-124.265
-100.109
-74.237
-46.7262
-17.6747
12.7445
44.1983
76.8273
110.228
144.079
178.085
211.858
245.038
277.22
308.002
337.032
363.935
388.345
409.956
428.484
443.673
455.331
463.309
467.504
467.87
464.377
457.122
446.179
431.711
413.947
393.121
369.516
343.443
315.23
285.238
253.835
221.38
188.228
154.723
121.203
87.9696
55.3187
23.7256
-6.83686
-36.421
-64.7753
-91.7371
-117.154
-140.943
-163.022
-183.341
-201.869
-218.582
-233.474
-246.539
-257.789
-267.233
-274.893
-280.795
-284.974
-287.46
-288.302
-287.567
-285.289
-281.509
-276.263
-269.575
-261.462
-251.923
-240.941
-228.489
-214.534
-199.042
-181.978
-163.316
-143.044
-121.163
-97.6949
-72.68
-46.1823
-18.2917
10.8838
41.244
72.5033
104.493
136.983
169.707
202.368
234.639
266.17
296.585
325.497
352.505
377.209
399.214
418.148
433.663
445.459
453.288
456.958
456.346
451.441
442.279
428.952
411.646
390.612
366.156
338.637
308.454
276.038
241.842
206.337
169.995
133.285
96.6659
60.5679
25.3782
-8.56457
-40.971
-71.612
-100.319
-126.981
-151.536
-173.963
-194.28
-212.527
-228.76
-243.052
-255.481
-266.123
-275.06
-282.367
-288.114
-292.361
-295.16
-296.542
-296.548
-295.199
-292.509
-288.483
-283.111
-276.386
-268.299
-258.832
-247.967
-235.677
-221.926
-206.682
-189.906
-171.553
-151.589
-130
-106.781
-81.9567
-55.5782
-27.7211
1.50004
31.9438
63.4372
95.6871
128.411
161.286
193.949
226.008
257.043
286.617
314.285
339.61
362.166
381.553
397.408
409.413
417.312
420.913
420.098
414.859
405.269
391.457
373.658
352.181
327.397
299.733
269.653
237.646
204.209
169.839
135.013
100.174
65.7302
32.0346
-0.620862
-31.9857
-61.863
-90.1041
-116.61
-141.311
-164.17
-185.177
-204.337
-221.678
-237.237
-251.054
-263.188
-273.695
-282.628
-290.045
-295.995
-300.52
-303.658
-305.43
-305.851
-304.939
-302.7
-299.126
-294.208
-287.931
-280.271
-271.214
-260.731
-248.794
-235.385
-220.481
-204.06
-186.109
-166.619
-145.596
-123.056
-99.0296
-73.5732
-46.7671
-18.7214
10.4224
40.4545
71.5131
102.74
134.199
165.538
196.406
226.423
255.186
282.294
307.329
329.902
349.638
366.188
379.26
388.586
393.957
395.257
392.408
385.432
374.417
359.523
340.972
319.056
294.129
266.565
236.793
205.258
172.432
138.777
104.75
70.771
37.3332
8.00473
-23.0606
-52.8885
-81.1833
-107.764
-132.531
-155.431
-176.443
-195.592
-212.919
-228.487
-242.375
-254.66
-265.427
-274.754
-282.711
-289.362
-294.756
-298.931
-301.912
-303.709
-304.323
-303.572
-301.578
-298.282
-293.627
-287.555
-279.991
-270.872
-260.148
-247.759
-233.669
-217.841
-200.263
-180.949
-159.928
-137.247
-112.994
-87.288
-60.2569
-32.0766
-2.94973
26.9204
57.2344
87.7525
118.213
148.294
177.668
206.01
232.963
258.207
281.414
302.293
320.602
336.098
348.566
357.828
363.742
366.198
364.601
359.388
350.614
338.485
323.235
-168.712
-186.743
-203.277
-218.287
-231.763
-243.747
-254.28
-263.409
-271.176
-277.621
-282.784
-286.689
-289.358
-290.798
-291.021
-289.899
-287.532
-283.894
-278.947
-272.654
-264.975
-255.858
-245.248
-233.095
-219.342
-203.935
-186.831
-167.978
-147.36
-124.976
-100.819
-74.9383
-47.4079
-18.3238
12.144
43.6489
76.3563
109.851
143.811
177.938
211.845
245.165
277.495
308.426
337.605
364.654
389.202
410.937
429.576
444.857
456.585
464.611
468.829
469.193
465.676
458.372
447.358
432.799
414.927
393.979
370.241
344.028
315.671
285.537
253.994
221.406
188.131
154.512
120.888
87.565
54.8427
23.2103
-7.40669
-37.033
-65.4227
-92.411
-117.845
-141.644
-163.726
-184.045
-202.568
-219.273
-234.155
-247.21
-258.447
-267.878
-275.525
-281.41
-285.573
-288.042
-288.867
-288.117
-285.826
-282.035
-276.782
-270.093
-261.985
-252.455
-241.486
-229.051
-215.115
-199.641
-182.595
-163.947
-143.686
-121.808
-98.3389
-73.3135
-46.7972
-18.8773
10.3383
40.7393
72.0638
104.13
136.709
169.535
202.311
234.709
266.378
296.943
326.011
353.179
378.041
400.2
419.277
434.917
446.815
454.718
458.432
457.835
452.907
443.687
430.273
412.852
391.68
367.068
339.38
309.019
276.421
242.046
206.366
169.858
132.994
96.2352
60.0167
24.7257
-9.29777
-41.763
-72.4422
-101.169
-127.833
-152.378
-174.784
-195.073
-213.289
-229.487
-243.744
-256.137
-266.745
-275.651
-282.931
-288.653
-292.88
-295.662
-297.033
-297.032
-295.678
-292.987
-288.964
-283.598
-276.88
-268.803
-259.348
-248.497
-236.225
-222.494
-207.272
-190.517
-172.184
-152.237
-130.659
-107.444
-82.6153
-56.2228
-28.3399
0.920933
31.4198
62.9834
95.3257
128.158
161.159
193.963
226.175
257.374
287.119
314.961
340.458
363.177
382.715
398.701
410.813
418.788
422.432
421.626
416.358
406.698
392.783
374.851
353.215
328.254
300.403
270.131
237.932
204.312
169.771
134.789
99.8158
65.2583
31.4706
-1.25579
-32.6722
-62.584
-90.8447
-117.358
-142.057
-164.906
-185.898
-205.038
-222.355
-237.889
-251.68
-263.788
-274.27
-283.179
-290.575
-296.507
-301.018
-304.144
-305.908
-306.325
-305.413