/*--------------------------------*- C++ -*----------------------------------*\
| =========                 |                                                 |
| \\      /  F ield         | OpenFOAM: The Open Source CFD Toolbox           |
|  \\    /   O peration     | Version:  3.0.1                                 |
|   \\  /    A nd           | Web:      www.OpenFOAM.org                      |
|    \\/     M anipulation  |                                                 |
\*---------------------------------------------------------------------------*/
FoamFile
{
    version     2.0;
    format      ascii;
    class       surfaceScalarField;
    location    "38";
    object      phi;
}
// * * * * * * * * * * * * * * * * * * * * * * * * * * * * * * * * * * * * * //

dimensions      [0 3 -1 0 0 0 0];

internalField   nonuniform List<scalar> 
42423
(
-9.61564e-05
9.82913e-06
-0.000105032
8.87593e-06
-0.000113062
8.03e-06
-0.00012027
7.2074e-06
-0.000126679
6.40898e-06
-0.000132349
5.66987e-06
-0.000137301
4.95262e-06
-0.00014158
4.2788e-06
-0.000145208
3.62843e-06
-0.000148216
3.00763e-06
-0.000150614
2.39769e-06
-0.000152411
1.79697e-06
-0.000153624
1.21316e-06
-0.000154275
6.50903e-07
-0.000154317
4.21886e-08
-0.000153715
-6.01891e-07
-0.000152552
-1.16291e-06
-0.000150726
-1.82581e-06
-0.000148205
-2.52152e-06
-0.000145062
-3.14302e-06
-0.00014117
-3.89228e-06
-0.000136534
-4.63579e-06
-0.000131251
-5.28279e-06
-0.000125067
-6.18419e-06
-0.000118089
-6.97784e-06
-0.000110196
-7.89266e-06
-0.00010145
-8.74605e-06
-9.18557e-05
-9.59481e-06
-8.11966e-05
-1.06591e-05
-6.96248e-05
-1.15718e-05
-5.71545e-05
-1.24703e-05
-4.36447e-05
-1.35098e-05
-2.92975e-05
-1.43472e-05
-1.40384e-05
-1.52591e-05
2.08239e-06
-1.61209e-05
1.87765e-05
-1.66942e-05
3.61429e-05
-1.73664e-05
5.4022e-05
-1.78792e-05
7.2087e-05
-1.8065e-05
9.03383e-05
-1.82513e-05
0.000108517
-1.81792e-05
0.0001265
-1.79824e-05
0.000144013
-1.75134e-05
0.000160725
-1.67122e-05
0.000176514
-1.57887e-05
0.000191177
-1.46627e-05
0.000204339
-1.31628e-05
0.000215946
-1.1607e-05
0.000225811
-9.86436e-06
0.000233672
-7.86115e-06
0.000239506
-5.83432e-06
0.000243163
-3.657e-06
0.000244656
-1.49293e-06
0.000243927
7.29054e-07
0.000240901
3.02519e-06
0.000235751
5.14996e-06
0.000228614
7.1372e-06
0.000219465
9.14963e-06
0.00020855
1.09141e-05
0.000196041
1.25092e-05
0.000182211
1.38306e-05
0.000167164
1.50463e-05
0.000151089
1.60756e-05
0.000134236
1.68529e-05
0.000116869
1.73662e-05
9.91286e-05
1.77408e-05
8.11954e-05
1.79332e-05
6.33424e-05
1.7853e-05
4.5712e-05
1.76304e-05
2.83191e-05
1.73928e-05
1.13403e-05
1.69788e-05
-5.09943e-06
1.64397e-05
-2.09064e-05
1.58069e-05
-3.59799e-05
1.50735e-05
-5.02814e-05
1.43015e-05
-6.37536e-05
1.34722e-05
-7.6354e-05
1.26004e-05
-8.81e-05
1.1746e-05
-9.89626e-05
1.08626e-05
-0.000108854
9.89182e-06
-0.000117841
8.98615e-06
-0.000125915
8.07444e-06
-0.000132955
7.03964e-06
-0.00013919
6.23561e-06
-0.000144353
5.16224e-06
-0.000148738
4.38527e-06
-0.000152107
3.36897e-06
-0.000154673
2.56588e-06
-0.000156326
1.65327e-06
-0.000157229
9.02703e-07
-0.0001573
7.15878e-08
-0.000156669
-6.31035e-07
-0.000155297
-1.3727e-06
-0.000153223
-2.07362e-06
-0.000150463
-2.76004e-06
-0.00014697
-3.49271e-06
-0.000142849
-4.12128e-06
-0.000138021
-4.82778e-06
-0.000132489
-5.5326e-06
-0.00012618
-6.30869e-06
-0.0001192
-6.97964e-06
-0.000111392
-7.8088e-06
-0.000102747
-8.64475e-06
-9.33365e-05
-9.41032e-06
-8.30542e-05
-1.02824e-05
-7.191e-05
-1.11442e-05
-5.99819e-05
-1.19281e-05
-4.72271e-05
-1.27548e-05
-3.36719e-05
-1.35553e-05
-1.94254e-05
-1.42465e-05
-4.50211e-06
-1.49234e-05
1.10343e-05
-1.55364e-05
2.7163e-05
-1.61288e-05
4.3688e-05
-1.65251e-05
6.05577e-05
-1.68698e-05
7.76035e-05
-1.70458e-05
9.46903e-05
-1.70869e-05
0.000111585
-1.68945e-05
0.000128155
-1.65709e-05
0.000144178
-1.60228e-05
0.000159385
-1.52066e-05
0.00017357
-1.41858e-05
0.000186512
-1.29415e-05
0.00019792
-1.14085e-05
0.000207547
-9.62632e-06
0.000215249
-7.70205e-06
0.000220784
-5.53567e-06
0.000224041
-3.25683e-06
0.000224919
-8.78566e-07
0.000223338
1.58177e-06
0.000219249
4.08814e-06
0.000212754
6.49519e-06
0.000203957
8.79746e-06
0.000192972
1.0985e-05
0.000180006
1.29653e-05
0.000165299
1.47074e-05
0.000149066
1.62329e-05
0.000131523
1.75428e-05
0.000113029
1.84941e-05
9.38057e-05
1.92231e-05
7.41975e-05
1.96081e-05
5.44531e-05
1.97444e-05
3.48136e-05
1.96394e-05
1.55297e-05
1.92839e-05
-3.21615e-06
1.87458e-05
-2.12496e-05
1.80334e-05
-3.8433e-05
1.71835e-05
-5.46262e-05
1.61931e-05
-6.98742e-05
1.5248e-05
-8.39892e-05
1.4115e-05
-9.69674e-05
1.29782e-05
-0.000108799
1.18312e-05
-0.0001195
1.07017e-05
-0.000129124
9.62397e-06
-0.000137707
8.58287e-06
-0.000145293
7.58632e-06
-0.000151941
6.64713e-06
-0.000157677
5.7364e-06
-0.000162597
4.91978e-06
-0.000166681
4.08427e-06
-0.000170016
3.33512e-06
-0.000172594
2.57777e-06
-0.000174458
1.86443e-06
-0.00017563
1.17126e-06
-0.00017614
5.10681e-07
-0.000175963
-1.76922e-07
-0.000175108
-8.55261e-07
-0.000173569
-1.53929e-06
-0.000171427
-2.14168e-06
-0.000168594
-2.83279e-06
-0.000165117
-3.47712e-06
-0.000160917
-4.20003e-06
-0.000155969
-4.94816e-06
-0.00015027
-5.69878e-06
-0.000143835
-6.43508e-06
-0.000136636
-7.1993e-06
-0.000128753
-7.88282e-06
-0.000120076
-8.67748e-06
-0.00011062
-9.45546e-06
-0.000100314
-1.03063e-05
-8.92678e-05
-1.10463e-05
-7.73632e-05
-1.19046e-05
-6.45653e-05
-1.27979e-05
-5.10995e-05
-1.34659e-05
-3.67772e-05
-1.43223e-05
-2.17178e-05
-1.50595e-05
-5.94139e-06
-1.57764e-05
1.04489e-05
-1.63903e-05
2.73476e-05
-1.68988e-05
4.45826e-05
-1.72351e-05
6.19758e-05
-1.73933e-05
7.93047e-05
-1.73289e-05
9.62994e-05
-1.69948e-05
0.000112779
-1.64793e-05
0.000128468
-1.56893e-05
0.000143119
-1.46511e-05
0.000156489
-1.33698e-05
0.000168323
-1.18343e-05
0.000178406
-1.00828e-05
0.000186517
-8.11137e-06
0.000192492
-5.97544e-06
0.000196118
-3.62608e-06
0.000197377
-1.25834e-06
0.000196155
1.22179e-06
0.00019244
3.71434e-06
0.000186281
6.15965e-06
0.0001778
8.48026e-06
0.000167159
1.06415e-05
0.000154566
1.25926e-05
0.000140264
1.4302e-05
0.000124491
1.57733e-05
0.000107645
1.68455e-05
8.99167e-05
1.77285e-05
7.16484e-05
1.82683e-05
5.3113e-05
1.85353e-05
3.45346e-05
1.85784e-05
1.61582e-05
1.83764e-05
-1.802e-06
1.79602e-05
-1.91683e-05
1.73663e-05
-3.58342e-05
1.66659e-05
-5.16016e-05
1.57673e-05
-6.65046e-05
1.4903e-05
-8.04159e-05
1.39112e-05
-9.33672e-05
1.29513e-05
-0.000105417
1.20494e-05
-0.000116433
1.10167e-05
-0.000126568
1.01347e-05
-0.000135741
9.17262e-06
-0.000143988
8.24727e-06
-0.000151341
7.35354e-06
-0.00015781
6.46848e-06
-0.000163508
5.69844e-06
-0.000168348
4.83982e-06
-0.000172442
4.09341e-06
-0.000175756
3.31436e-06
-0.000178383
2.62706e-06
-0.000180286
1.90298e-06
-0.000181535
1.24939e-06
-0.000182203
6.67321e-07
-0.000182198
-4.93635e-09
-0.000181579
-6.192e-07
-0.000180252
-1.32696e-06
-0.000178293
-1.95868e-06
-0.000175679
-2.61391e-06
-0.000172402
-3.27687e-06
-0.000168418
-3.98458e-06
-0.00016372
-4.6972e-06
-0.000158329
-5.39127e-06
-0.000152251
-6.07794e-06
-0.000145416
-6.83525e-06
-0.000137789
-7.62671e-06
-0.00012934
-8.4493e-06
-0.000120087
-9.25349e-06
-0.000110024
-1.00624e-05
-9.91439e-05
-1.08804e-05
-8.74722e-05
-1.16717e-05
-7.49443e-05
-1.25279e-05
-6.17485e-05
-1.31959e-05
-4.77826e-05
-1.39659e-05
-3.31586e-05
-1.46241e-05
-1.79406e-05
-1.5218e-05
-2.24837e-06
-1.56923e-05
1.38277e-05
-1.60761e-05
3.01046e-05
-1.6277e-05
4.64761e-05
-1.63716e-05
6.27276e-05
-1.62515e-05
7.87089e-05
-1.59813e-05
9.41923e-05
-1.54835e-05
0.000109022
-1.48296e-05
0.000122897
-1.38751e-05
0.000135676
-1.27796e-05
0.000147182
-1.15058e-05
0.000157291
-1.01085e-05
0.000165786
-8.49527e-06
0.000172431
-6.64509e-06
0.000177291
-4.86025e-06
0.000180252
-2.96071e-06
0.000181184
-9.32097e-07
0.000180083
1.10126e-06
0.000177036
3.04623e-06
0.000171922
5.11468e-06
0.000164939
6.98267e-06
0.000156042
8.89642e-06
0.000145355
1.06876e-05
0.000133163
1.21918e-05
0.000119358
1.38046e-05
0.000104428
1.49306e-05
8.84856e-05
1.59422e-05
7.18229e-05
1.66627e-05
5.47429e-05
1.70799e-05
3.7513e-05
1.72299e-05
2.03771e-05
1.71359e-05
3.55745e-06
1.68196e-05
-1.29389e-05
1.64963e-05
-2.87004e-05
1.57615e-05
-4.36438e-05
1.49435e-05
-5.77153e-05
1.40714e-05
-7.08143e-05
1.3099e-05
-8.29202e-05
1.21059e-05
-9.40261e-05
1.11058e-05
-0.000104135
1.01085e-05
-0.000113292
9.1577e-06
-0.000121512
8.21977e-06
-0.000128854
7.34152e-06
-0.000135373
6.51943e-06
-0.000141107
5.73355e-06
-0.000146116
5.00965e-06
-0.000150429
4.31278e-06
-0.000154091
3.66175e-06
-0.000157173
3.08198e-06
-0.000159632
2.4596e-06
-0.000161519
1.88658e-06
-0.000162854
1.33519e-06
-0.000163617
7.63107e-07
-0.000163814
1.9658e-07
-0.000163359
-4.54606e-07
-0.000162229
-1.13023e-06
-0.000160457
-1.77242e-06
-0.000158021
-2.43515e-06
-0.000154814
-3.2075e-06
-0.000150872
-3.94203e-06
-0.000146182
-4.68967e-06
-0.000140591
-5.59169e-06
-0.000134147
-6.44377e-06
-0.000126668
-7.47851e-06
-0.000118312
-8.35676e-06
-0.000109084
-9.22727e-06
-9.88309e-05
-1.02534e-05
-8.76806e-05
-1.11504e-05
-7.57282e-05
-1.19524e-05
-6.28087e-05
-1.29195e-05
-4.89685e-05
-1.38402e-05
-3.44986e-05
-1.44699e-05
-1.93288e-05
-1.51699e-05
-3.65994e-06
-1.56689e-05
1.2463e-05
-1.6123e-05
2.89053e-05
-1.64424e-05
4.53961e-05
-1.64907e-05
6.19109e-05
-1.65149e-05
7.82681e-05
-1.63572e-05
9.41877e-05
-1.59196e-05
0.000109526
-1.53388e-05
0.000124053
-1.45266e-05
0.000137636
-1.35829e-05
0.000150086
-1.24502e-05
0.000161212
-1.11266e-05
0.000170836
-9.6237e-06
0.000178835
-7.99928e-06
0.000185122
-6.28653e-06
0.000189527
-4.40504e-06
0.000191962
-2.43498e-06
0.000192352
-3.89871e-07
0.00019061
1.74152e-06
0.000186754
3.85574e-06
0.000181002
5.75244e-06
0.00017335
7.65191e-06
9.44983e-06
-9.6195e-05
1.96603e-05
-0.000105071
1.77516e-05
-0.000113101
1.60601e-05
-0.00012031
1.44168e-05
-0.000126722
1.28213e-05
-0.000132392
1.13399e-05
-0.000137343
9.90287e-06
-0.000141622
8.55821e-06
-0.000145254
7.2606e-06
-0.00014826
6.01297e-06
-0.000150654
4.79194e-06
-0.000152456
3.59867e-06
-0.000153669
2.42651e-06
-0.000154318
1.30031e-06
-0.000154358
8.16922e-08
-0.000153756
-1.20339e-06
-0.000152594
-2.32502e-06
-0.000150772
-3.64791e-06
-0.000148248
-5.04585e-06
-0.000145107
-6.28406e-06
-0.000141217
-7.78244e-06
-0.000136581
-9.27181e-06
-0.0001313
-1.05635e-05
-0.000125114
-1.23705e-05
-0.000118139
-1.3953e-05
-0.000110247
-1.57844e-05
-0.000101501
-1.74918e-05
-9.19048e-05
-1.91915e-05
-8.12462e-05
-2.13178e-05
-6.96748e-05
-2.31433e-05
-5.72001e-05
-2.49451e-05
-4.36895e-05
-2.70205e-05
-2.93398e-05
-2.86971e-05
-1.40765e-05
-3.05225e-05
2.04908e-06
-3.22465e-05
1.87442e-05
-3.33895e-05
3.61174e-05
-3.47397e-05
5.40062e-05
-3.57681e-05
7.208e-05
-3.6139e-05
9.03469e-05
-3.65183e-05
0.000108535
-3.63679e-05
0.000126526
-3.59729e-05
0.000144049
-3.50366e-05
0.000160779
-3.34422e-05
0.000176579
-3.15892e-05
0.00019125
-2.93338e-05
0.000204421
-2.63333e-05
0.000216043
-2.32292e-05
0.000225909
-1.97304e-05
0.000233774
-1.57271e-05
0.000239619
-1.16794e-05
0.000243275
-7.31233e-06
0.000244772
-2.99059e-06
0.000244035
1.46631e-06
0.000241007
6.0533e-06
0.000235861
1.02955e-05
0.000228724
1.42746e-05
0.000219568
1.83049e-05
0.000208651
2.1831e-05
0.000196126
2.50343e-05
0.000182286
2.76705e-05
0.000167233
3.00991e-05
0.000151146
3.21627e-05
0.000134281
3.3718e-05
0.000116904
3.47435e-05
9.91563e-05
3.54883e-05
8.12095e-05
3.58799e-05
6.33451e-05
3.57174e-05
4.57091e-05
3.52664e-05
2.82969e-05
3.48049e-05
1.13121e-05
3.39636e-05
-5.13416e-06
3.28859e-05
-2.09465e-05
3.16193e-05
-3.60324e-05
3.01594e-05
-5.0337e-05
2.86061e-05
-6.38142e-05
2.69494e-05
-7.64177e-05
2.52039e-05
-8.81633e-05
2.34915e-05
-9.90297e-05
2.1729e-05
-0.000108921
1.97827e-05
-0.000117911
1.79768e-05
-0.000125986
1.6149e-05
-0.000133032
1.40862e-05
-0.000139265
1.24682e-05
-0.000144424
1.03208e-05
-0.000148814
8.7757e-06
-0.000152182
6.73709e-06
-0.000154753
5.13684e-06
-0.000156391
3.29125e-06
-0.000157305
1.81639e-06
-0.000157378
1.4465e-07
-0.000156748
-1.26117e-06
-0.000155375
-2.74591e-06
-0.000153307
-4.14151e-06
-0.000150544
-5.52305e-06
-0.000147077
-6.95945e-06
-0.000142939
-8.25965e-06
-0.000138108
-9.65857e-06
-0.00013258
-1.10609e-05
-0.00012629
-1.25986e-05
-0.000119294
-1.3975e-05
-0.000111477
-1.56262e-05
-0.000102829
-1.72929e-05
-9.34145e-05
-1.8825e-05
-8.31337e-05
-2.05633e-05
-7.19875e-05
-2.22905e-05
-6.00445e-05
-2.38713e-05
-4.7289e-05
-2.55104e-05
-3.37327e-05
-2.71117e-05
-1.94817e-05
-2.84977e-05
-4.54842e-06
-2.98568e-05
1.10013e-05
-3.10863e-05
2.71339e-05
-3.22616e-05
4.36662e-05
-3.30575e-05
6.05635e-05
-3.37673e-05
7.76069e-05
-3.40894e-05
9.47041e-05
-3.41842e-05
0.000111607
-3.37977e-05
0.000128195
-3.31586e-05
0.000144227
-3.20554e-05
0.000159447
-3.04263e-05
0.000173642
-2.83814e-05
0.000186575
-2.58748e-05
0.000198007
-2.28405e-05
0.000207647
-1.92664e-05
0.000215347
-1.54022e-05
0.000220884
-1.10729e-05
0.000224143
-6.516e-06
0.000225028
-1.76352e-06
0.000223434
3.17579e-06
0.000219337
8.18472e-06
0.000212835
1.29974e-05
0.000204024
1.76086e-05
0.000193031
2.19776e-05
0.000180058
2.59387e-05
0.000165328
2.94371e-05
0.00014908
3.24807e-05
0.000131521
3.51018e-05
0.000113012
3.70024e-05
9.37814e-05
3.84541e-05
7.41582e-05
3.92313e-05
5.43906e-05
3.95119e-05
3.4733e-05
3.9297e-05
1.54308e-05
3.85861e-05
-3.32035e-06
3.74969e-05
-2.13608e-05
3.60738e-05
-3.85489e-05
3.43715e-05
-5.47641e-05
3.24083e-05
-7.00008e-05
3.04848e-05
-8.4112e-05
2.82262e-05
-9.7089e-05
2.59551e-05
-0.000108928
2.36704e-05
-0.000119637
2.14103e-05
-0.000129253
1.92398e-05
-0.000137831
1.7161e-05
-0.000145418
1.51736e-05
-0.000152072
1.33009e-05
-0.000157803
1.14676e-05
-0.000162713
9.82979e-06
-0.000166794
8.16521e-06
-0.000170128
6.66884e-06
-0.000172703
5.15338e-06
-0.000174575
3.73584e-06
-0.000175739
2.33579e-06
-0.000176245
1.01613e-06
-0.000176068
-3.53965e-07
-0.000175218
-1.70461e-06
-0.000173679
-3.07913e-06
-0.000171522
-4.29809e-06
-0.0001687
-5.65534e-06
-0.000165212
-6.96515e-06
-0.00016101
-8.40148e-06
-0.000156065
-9.89322e-06
-0.000150361
-1.14028e-05
-0.00014393
-1.2866e-05
-0.000136734
-1.43956e-05
-0.000128834
-1.57833e-05
-0.000120155
-1.73563e-05
-0.000110695
-1.8915e-05
-0.000100401
-2.0601e-05
-8.93402e-05
-2.21069e-05
-7.74389e-05
-2.3806e-05
-6.46353e-05
-2.56016e-05
-5.11565e-05
-2.69448e-05
-3.68317e-05
-2.86471e-05
-2.1768e-05
-3.01234e-05
-5.98127e-06
-3.15633e-05
1.04129e-05
-3.27845e-05
2.73213e-05
-3.38074e-05
4.45704e-05
-3.44843e-05
6.19747e-05
-3.47977e-05
7.93175e-05
-3.46718e-05
9.63289e-05
-3.40064e-05
0.000112819
-3.297e-05
0.000128515
-3.13847e-05
0.000143175
-2.93114e-05
0.000156552
-2.67472e-05
0.000168394
-2.36764e-05
0.000178487
-2.01756e-05
0.000186608
-1.62322e-05
0.000192588
-1.19563e-05
0.000196218
-7.25564e-06
0.000197473
-2.51325e-06
0.000196245
2.44883e-06
0.000192526
7.43365e-06
0.000186362
1.23235e-05
0.000177864
1.69784e-05
0.000167227
2.12779e-05
0.000154608
2.52121e-05
0.000140291
2.86183e-05
0.000124503
3.15616e-05
0.000107623
3.37258e-05
8.98934e-05
3.54577e-05
7.16189e-05
3.65427e-05
5.3051e-05
3.71031e-05
3.44671e-05
3.71623e-05
1.6083e-05
3.67604e-05
-1.88815e-06
3.59314e-05
-1.92506e-05
3.47286e-05
-3.59349e-05
3.33502e-05
-5.17116e-05
3.1544e-05
-6.66209e-05
2.98123e-05
-8.05358e-05
2.78261e-05
-9.34914e-05
2.59069e-05
-0.000105545
2.41031e-05
-0.000116561
2.20325e-05
-0.000126691
2.02652e-05
-0.000135867
1.83483e-05
-0.000144116
1.64958e-05
-0.000151463
1.47009e-05
-0.000157923
1.29286e-05
-0.000163622
1.13975e-05
-0.000168464
9.68183e-06
-0.000172555
8.18422e-06
-0.000175867
6.62695e-06
-0.000178494
5.25363e-06
-0.00018039
3.79848e-06
-0.000181648
2.50784e-06
-0.000182305
1.32386e-06
-0.000182289
-2.06093e-08
-0.000181683
-1.2248e-06
-0.000180351
-2.65917e-06
-0.000178392
-3.91794e-06
-0.000175772
-5.23355e-06
-0.000172502
-6.54745e-06
-0.000168514
-7.97212e-06
-0.000163792
-9.41977e-06
-0.00015842
-1.07634e-05
-0.000152346
-1.21517e-05
-0.00014551
-1.36712e-05
-0.000137881
-1.52558e-05
-0.000129424
-1.69062e-05
-0.00012015
-1.85276e-05
-0.000110105
-2.01068e-05
-9.92201e-05
-2.17658e-05
-8.75428e-05
-2.33491e-05
-7.5029e-05
-2.50417e-05
-6.18085e-05
-2.64165e-05
-4.78355e-05
-2.79389e-05
-3.32108e-05
-2.92488e-05
-1.79897e-05
-3.04392e-05
-2.29122e-06
-3.13909e-05
1.38045e-05
-3.21719e-05
3.00876e-05
-3.25601e-05
4.64669e-05
-3.2751e-05
6.27278e-05
-3.25125e-05
7.87182e-05
-3.19717e-05
9.42109e-05
-3.09762e-05
0.000109034
-2.96527e-05
0.000122932
-2.77737e-05
0.000135728
-2.55752e-05
0.000147247
-2.30244e-05
0.000157362
-2.02244e-05
0.000165859
-1.69919e-05
0.000172533
-1.33189e-05
0.000177387
-9.71438e-06
0.000180348
-5.92197e-06
0.000181287
-1.87109e-06
0.000180179
2.20842e-06
0.000177137
6.0887e-06
0.000172019
1.02329e-05
0.000165036
1.39655e-05
0.000156134
1.77984e-05
0.000145442
2.13796e-05
0.000133241
2.43925e-05
0.000119427
2.76185e-05
0.000104488
2.98698e-05
8.8532e-05
3.18978e-05
7.18583e-05
3.33364e-05
5.47635e-05
3.41747e-05
3.75212e-05
3.44722e-05
2.03738e-05
3.42832e-05
3.55604e-06
3.36374e-05
-1.2962e-05
3.30144e-05
-2.87308e-05
3.15301e-05
-4.36795e-05
2.98922e-05
-5.77575e-05
2.81494e-05
-7.08599e-05
2.62014e-05
-8.2968e-05
2.4214e-05
-9.40768e-05
2.22146e-05
-0.000104186
2.02179e-05
-0.000113344
1.83154e-05
-0.000121566
1.64421e-05
-0.000128907
1.46826e-05
-0.000135424
1.30357e-05
-0.00014116
1.14699e-05
-0.000146173
1.00226e-05
-0.000150483
8.62288e-06
-0.000154146
7.32414e-06
-0.000157226
6.16273e-06
-0.000159679
4.91195e-06
-0.000161571
3.77932e-06
-0.000162905
2.66828e-06
-0.000163672
1.53024e-06
-0.000163864
3.88649e-07
-0.000163406
-9.11969e-07
-0.000162277
-2.2592e-06
-0.000160507
-3.54295e-06
-0.000158075
-4.86756e-06
-0.00015487
-6.4116e-06
-0.000150929
-7.88386e-06
-0.000146237
-9.38107e-06
-0.000140645
-1.11838e-05
-0.000134204
-1.2885e-05
-0.000126718
-1.49641e-05
-0.000118363
-1.67126e-05
-0.000109136
-1.8454e-05
-9.88814e-05
-2.05078e-05
-8.77293e-05
-2.23025e-05
-7.57777e-05
-2.39041e-05
-6.28402e-05
-2.5857e-05
-4.90049e-05
-2.76756e-05
-3.45331e-05
-2.89417e-05
-1.93594e-05
-3.03436e-05
-3.66929e-06
-3.1359e-05
1.24492e-05
-3.22415e-05
2.89042e-05
-3.28975e-05
4.54081e-05
-3.29947e-05
6.19358e-05
-3.30427e-05
7.82968e-05
-3.27183e-05
9.42191e-05
-3.1842e-05
0.000109567
-3.06871e-05
0.000124107
-2.90666e-05
0.000137707
-2.71821e-05
0.000150162
-2.49057e-05
0.000161289
-2.22532e-05
0.000170917
-1.9252e-05
0.000178924
-1.60067e-05
0.000185213
-1.25754e-05
0.000189607
-8.79904e-06
0.000192041
-4.8689e-06
0.000192434
-7.83073e-07
0.000190687
3.4885e-06
0.000186831
7.71137e-06
0.000181077
1.15068e-05
0.000173419
1.53092e-05
1.89077e-05
-9.62671e-05
2.94908e-05
-0.000105142
2.66265e-05
-0.000113172
2.40897e-05
-0.000120379
2.16245e-05
-0.00012679
1.92316e-05
-0.000132459
1.70096e-05
-0.000137411
1.48548e-05
-0.000141689
1.28359e-05
-0.000145321
1.08928e-05
-0.000148324
9.0156e-06
-0.000150718
7.18564e-06
-0.000152519
5.40007e-06
-0.000153738
3.64537e-06
-0.00015438
1.94245e-06
-0.000154411
1.12989e-07
-0.000153803
-1.81207e-06
-0.000152641
-3.48623e-06
-0.000150828
-5.46125e-06
-0.000148296
-7.57789e-06
-0.000145154
-9.42594e-06
-0.000141268
-1.16685e-05
-0.000136638
-1.39024e-05
-0.000131365
-1.58365e-05
-0.000125175
-1.85597e-05
-0.000118203
-2.09258e-05
-0.000110316
-2.36714e-05
-0.000101576
-2.62311e-05
-9.19764e-05
-2.87915e-05
-8.13187e-05
-3.19756e-05
-6.97534e-05
-3.47086e-05
-5.72723e-05
-3.74262e-05
-4.37609e-05
-4.0532e-05
-2.94078e-05
-4.30503e-05
-1.41381e-05
-4.57923e-05
1.99565e-06
-4.83804e-05
1.87005e-05
-5.00944e-05
3.60866e-05
-5.21258e-05
5.39913e-05
-5.36729e-05
7.20766e-05
-5.42244e-05
9.03575e-05
-5.47993e-05
0.00010856
-5.45702e-05
0.000126571
-5.39842e-05
0.000144116
-5.25817e-05
0.000160863
-5.01894e-05
0.000176674
-4.73997e-05
0.000191374
-4.40342e-05
0.000204551
-3.95105e-05
0.00021618
-3.48579e-05
0.000226072
-2.96228e-05
0.000233935
-2.35903e-05
0.000239784
-1.75284e-05
0.00024344
-1.09685e-05
0.000244946
-4.49637e-06
0.000244194
2.21753e-06
0.000241158
9.08971e-06
0.000236014
1.54389e-05
0.000228876
2.14127e-05
0.000219711
2.74706e-05
0.000208793
3.27488e-05
0.000196236
3.75909e-05
0.000182377
4.1529e-05
0.000167314
4.51625e-05
0.000151209
4.8268e-05
0.000134326
5.06009e-05
0.000116929
5.21403e-05
9.9174e-05
5.32431e-05
8.12098e-05
5.38441e-05
6.33278e-05
5.35993e-05
4.56837e-05
5.29105e-05
2.82415e-05
5.22472e-05
1.12577e-05
5.09474e-05
-5.18982e-06
4.93334e-05
-2.10116e-05
4.7441e-05
-3.61087e-05
4.52566e-05
-5.0414e-05
4.29113e-05
-6.3893e-05
4.04284e-05
-7.65012e-05
3.78121e-05
-8.825e-05
3.52402e-05
-9.91208e-05
3.25998e-05
-0.000109011
2.96725e-05
-0.000118011
2.69767e-05
-0.000126086
2.42242e-05
-0.000133137
2.11379e-05
-0.000139372
1.87023e-05
-0.000144523
1.54719e-05
-0.000148924
1.31773e-05
-0.000152289
1.01022e-05
-0.000154862
7.70985e-06
-0.000156476
4.90526e-06
-0.000157413
2.75344e-06
-0.000157476
2.0703e-07
-0.00015685
-1.8875e-06
-0.000155483
-4.11246e-06
-0.000153418
-6.2068e-06
-0.000150656
-8.28464e-06
-0.000147211
-1.04042e-05
-0.000143069
-1.24018e-05
-0.000138227
-1.45014e-05
-0.000132703
-1.65847e-05
-0.00012644
-1.88615e-05
-0.000119435
-2.09797e-05
-0.000111626
-2.34357e-05
-0.000102982
-2.59363e-05
-9.35671e-05
-2.82404e-05
-8.32812e-05
-3.08493e-05
-7.21388e-05
-3.3433e-05
-6.01814e-05
-3.58288e-05
-4.74095e-05
-3.82823e-05
-3.38707e-05
-4.06507e-05
-1.96143e-05
-4.27541e-05
-4.67511e-06
-4.47961e-05
1.08889e-05
-4.66504e-05
2.70346e-05
-4.84074e-05
4.35811e-05
-4.96042e-05
6.04931e-05
-5.06794e-05
7.75436e-05
-5.114e-05
9.46572e-05
-5.12979e-05
0.000111579
-5.07196e-05
0.000128185
-4.97645e-05
0.00014424
-4.81105e-05
0.000159477
-4.56636e-05
0.000173691
-4.25953e-05
0.000186635
-3.8819e-05
0.000198097
-3.43029e-05
0.000207752
-2.89219e-05
0.00021547
-2.31201e-05
0.000221027
-1.66305e-05
0.000224295
-9.78398e-06
0.000225178
-2.64679e-06
0.000223549
4.80514e-06
0.000219448
1.22859e-05
0.00021295
1.94949e-05
0.000204131
2.64273e-05
0.000193122
3.29866e-05
0.000180124
3.89363e-05
0.00016537
4.41917e-05
0.000149075
4.87751e-05
0.000131523
5.2654e-05
0.000112995
5.55306e-05
9.37359e-05
5.77128e-05
7.4088e-05
5.88792e-05
5.42948e-05
5.9305e-05
3.46212e-05
5.89705e-05
1.53036e-05
5.79037e-05
-3.45833e-06
5.62588e-05
-2.15128e-05
5.41282e-05
-3.8711e-05
5.15697e-05
-5.49586e-05
4.86558e-05
-7.01691e-05
4.56953e-05
-8.42831e-05
4.23401e-05
-9.72616e-05
3.89335e-05
-0.000109103
3.55116e-05
-0.000119812
3.21191e-05
-0.000129422
2.88502e-05
-0.000138
2.57386e-05
-0.000145589
2.27628e-05
-0.000152233
1.99448e-05
-0.000157962
1.71963e-05
-0.000162861
1.47289e-05
-0.00016693
1.22347e-05
-0.00017026
9.99826e-06
-0.000172833
7.72697e-06
-0.000174714
5.61642e-06
-0.000175871
3.49259e-06
-0.000176377
1.52283e-06
-0.000176194
-5.37209e-07
-0.000175353
-2.54585e-06
-0.00017381
-4.62178e-06
-0.000171637
-6.47131e-06
-0.000168839
-8.45303e-06
-0.000165347
-1.04576e-05
-0.000161151
-1.25972e-05
-0.00015621
-1.48346e-05
-0.000150509
-1.71043e-05
-0.000144074
-1.93009e-05
-0.000136886
-2.15833e-05
-0.000128977
-2.3692e-05
-0.000120295
-2.60389e-05
-0.000110842
-2.83681e-05
-0.000100571
-3.08718e-05
-8.94869e-05
-3.31911e-05
-7.75888e-05
-3.57042e-05
-6.48197e-05
-3.83707e-05
-5.1308e-05
-4.04566e-05
-3.6971e-05
-4.29842e-05
-2.1897e-05
-4.51975e-05
-6.10429e-06
-4.7356e-05
1.03027e-05
-4.91917e-05
2.72428e-05
-5.07476e-05
4.4492e-05
-5.17336e-05
6.19187e-05
-5.22246e-05
7.92817e-05
-5.20349e-05
9.63092e-05
-5.10339e-05
0.000112819
-4.94798e-05
0.000128538
-4.71037e-05
0.000143226
-4.39998e-05
0.000156623
-4.01445e-05
0.000168491
-3.55437e-05
0.000178592
-3.02775e-05
0.000186725
-2.43647e-05
0.000192718
-1.79501e-05
0.000196354
-1.08913e-05
0.000197608
-3.76766e-06
0.000196367
3.69015e-06
0.000192638
1.11628e-05
0.000186475
1.84857e-05
0.000177971
2.54824e-05
0.000167338
3.19113e-05
0.000154671
3.78786e-05
0.000140334
4.29551e-05
0.000124518
4.7378e-05
0.000107602
5.06419e-05
8.98593e-05
5.32001e-05
7.15605e-05
5.48415e-05
5.29706e-05
5.56931e-05
3.43818e-05
5.57511e-05
1.59838e-05
5.51583e-05
-2.01581e-06
5.39309e-05
-1.93872e-05
5.21e-05
-3.60836e-05
5.00466e-05
-5.18633e-05
4.73237e-05
-6.67772e-05
4.47261e-05
-8.06937e-05
4.17426e-05
-9.36431e-05
3.88563e-05
-0.000105701
3.61611e-05
-0.000116725
3.30562e-05
-0.000126855
3.03948e-05
-0.000136028
2.75221e-05
-0.000144277
2.47446e-05
-0.000151624
2.20477e-05
-0.000158086
1.93901e-05
-0.000163758
1.70699e-05
-0.000168598
1.45215e-05
-0.000172693
1.22797e-05
-0.000176002
9.93619e-06
-0.000178627
7.87833e-06
-0.00018052
5.69127e-06
-0.000181777
3.76527e-06
-0.000182432
1.97803e-06
-0.000182392
-6.04215e-08
-0.000181811
-1.80601e-06
-0.000180479
-3.99035e-06
-0.000178526
-5.87147e-06
-0.0001759
-7.85962e-06
-0.000172638
-9.80959e-06
-0.000168653
-1.19568e-05
-0.000163931
-1.4142e-05
-0.000158561
-1.61334e-05
-0.000152499
-1.82134e-05
-0.00014566
-2.05106e-05
-0.000138028
-2.28878e-05
-0.000129558
-2.53756e-05
-0.000120266
-2.78204e-05
-0.000110248
-3.01242e-05
-9.93587e-05
-3.26554e-05
-8.76909e-05
-3.5017e-05
-7.51935e-05
-3.75391e-05
-6.19398e-05
-3.96703e-05
-4.79664e-05
-4.19124e-05
-3.33303e-05
-4.38849e-05
-1.81024e-05
-4.56671e-05
-2.39513e-06
-4.70983e-05
1.37189e-05
-4.8286e-05
3.00158e-05
-4.88571e-05
4.64093e-05
-4.91445e-05
6.26836e-05
-4.87869e-05
7.86974e-05
-4.79856e-05
9.42114e-05
-4.64903e-05
0.00010904
-4.44813e-05
0.000122972
-4.17054e-05
0.000135798
-3.8402e-05
0.00014734
-3.45664e-05
0.000157467
-3.0351e-05
0.000165964
-2.5489e-05
0.000172678
-2.00332e-05
0.00017752
-1.45569e-05
0.000180486
-8.8881e-06
0.000181437
-2.82141e-06
0.000180315
3.32991e-06
0.000177284
9.11945e-06
0.000172163
1.53546e-05
0.000165178
2.09498e-05
0.000156264
2.67126e-05
0.000145564
3.2079e-05
0.000133343
3.66137e-05
0.000119519
4.1443e-05
0.000104563
4.48249e-05
8.85856e-05
4.78757e-05
7.18928e-05
5.00291e-05
5.47722e-05
5.12952e-05
3.75014e-05
5.1743e-05
2.03302e-05
5.14543e-05
3.49913e-06
5.04684e-05
-1.30204e-05
4.95339e-05
-2.87959e-05
4.73056e-05
-4.37505e-05
4.48468e-05
-5.78353e-05
4.22342e-05
-7.09413e-05
3.93074e-05
-8.30535e-05
3.63262e-05
-9.41635e-05
3.33245e-05
-0.000104273
3.03275e-05
-0.000113426
2.74685e-05
-0.000121646
2.46619e-05
-0.000128987
2.20234e-05
-0.000135499
1.95484e-05
-0.000141236
1.72063e-05
-0.000146248
1.50347e-05
-0.000150551
1.29257e-05
-0.000154211
1.09848e-05
-0.000157289
9.24064e-06
-0.000159746
7.36913e-06
-0.000161646
5.67874e-06
-0.000162973
3.99531e-06
-0.000163732
2.28909e-06
-0.000163916
5.72929e-07
-0.000163457
-1.37087e-06
-0.000162329
-3.3872e-06
-0.000160562
-5.31003e-06
-0.000158135
-7.2948e-06
-0.000154939
-9.6071e-06
-0.000150999
-1.1824e-05
-0.000146303
-1.40772e-05
-0.000140714
-1.67724e-05
-0.00013428
-1.93194e-05
-0.000126788
-2.24559e-05
-0.000118434
-2.50669e-05
-0.000109209
-2.76791e-05
-9.89541e-05
-3.07625e-05
-8.78012e-05
-3.34555e-05
-7.58479e-05
-3.58575e-05
-6.29004e-05
-3.88045e-05
-4.90608e-05
-4.15153e-05
-3.45784e-05
-4.34242e-05
-1.93891e-05
-4.5533e-05
-3.70218e-06
-4.7046e-05
1.24486e-05
-4.83923e-05
2.89161e-05
-4.9365e-05
4.54332e-05
-4.95119e-05
6.19732e-05
-4.95828e-05
7.83518e-05
-4.90969e-05
9.42972e-05
-4.77874e-05
0.000109668
-4.60576e-05
0.000124222
-4.36214e-05
0.000137825
-4.07853e-05
0.000150288
-3.73683e-05
0.000161425
-3.33909e-05
0.000171063
-2.88892e-05
0.000179069
-2.40129e-05
0.000185357
-1.88639e-05
0.000189752
-1.31944e-05
0.000192189
-7.30544e-06
0.000192583
-1.17746e-06
0.000190828
5.24367e-06
0.000186977
1.15623e-05
0.00018122
1.72636e-05
0.000173554
2.29752e-05
2.83771e-05
-9.63754e-05
3.93201e-05
-0.00010525
3.55009e-05
-0.000113278
3.21181e-05
-0.000120486
2.8832e-05
-0.000126895
2.56412e-05
-0.000132563
2.2677e-05
-0.000137515
1.98069e-05
-0.000141792
1.71126e-05
-0.00014543
1.4531e-05
-0.000148423
1.20093e-05
-0.00015082
9.58239e-06
-0.00015262
7.19952e-06
-0.00015384
4.86585e-06
-0.000154467
2.56932e-06
-0.000154488
1.34042e-07
-0.000153872
-2.42827e-06
-0.000152715
-4.64353e-06
-0.000150893
-7.28311e-06
-0.000148367
-1.01034e-05
-0.000145224
-1.25692e-05
-0.000141345
-1.55474e-05
-0.000136723
-1.85243e-05
-0.000131462
-2.1098e-05
-0.000125267
-2.47541e-05
-0.000118298
-2.78948e-05
-0.000110419
-3.1551e-05
-0.000101689
-3.49607e-05
-9.2084e-05
-3.83969e-05
-8.14282e-05
-4.26314e-05
-6.9872e-05
-4.62649e-05
-5.73813e-05
-4.9917e-05
-4.38687e-05
-5.40446e-05
-2.95105e-05
-5.74085e-05
-1.42301e-05
-6.10727e-05
1.91449e-06
-6.45251e-05
1.86377e-05
-6.68177e-05
3.60392e-05
-6.95275e-05
5.39646e-05
-7.15984e-05
7.20694e-05
-7.23293e-05
9.03758e-05
-7.31058e-05
0.0001086
-7.27946e-05
0.000126641
-7.20251e-05
0.000144213
-7.01537e-05
0.000160989
-6.69653e-05
0.000176819
-6.32303e-05
0.000191548
-5.87632e-05
0.000204745
-5.27077e-05
0.000216388
-4.6501e-05
0.000226307
-3.95413e-05
0.000234169
-3.14529e-05
0.000240025
-2.33849e-05
0.000243682
-1.46255e-05
0.000245194
-6.00763e-06
0.000244434
2.97725e-06
0.000241389
1.21347e-05
0.000236245
2.05829e-05
0.000229104
2.85532e-05
0.000219921
3.66531e-05
0.000208979
4.36906e-05
0.000196399
5.01718e-05
0.000182512
5.54151e-05
0.000167434
6.02413e-05
0.000151301
6.44003e-05
0.000134392
6.75104e-05
0.000116965
6.95668e-05
9.92003e-05
7.10079e-05
8.12111e-05
7.18333e-05
6.33008e-05
7.15096e-05
4.56481e-05
7.05631e-05
2.81628e-05
6.97324e-05
1.11731e-05
6.79371e-05
-5.27259e-06
6.57791e-05
-2.11062e-05
6.32746e-05
-3.62176e-05
6.03679e-05
-5.05303e-05
5.7224e-05
-6.40201e-05
5.39181e-05
-7.66325e-05
5.04245e-05
-8.83844e-05
4.69921e-05
-9.92573e-05
4.34727e-05
-0.000109143
3.95584e-05
-0.000118161
3.59944e-05
-0.000126238
3.23018e-05
-0.000133297
2.81965e-05
-0.000139534
2.4939e-05
-0.000144714
2.06518e-05
-0.000149093
1.75567e-05
-0.000152459
1.34676e-05
-0.000155041
1.02924e-05
-0.000156651
6.51522e-06
-0.000157585
3.68759e-06
-0.000157637
2.59105e-07
-0.000157015
-2.50969e-06
-0.00015565
-5.47755e-06
-0.000153593
-8.26426e-06
-0.000150819
-1.10587e-05
-0.000147411
-1.38114e-05
-0.000143262
-1.65513e-05
-0.000138408
-1.93552e-05
-0.000132894
-2.20987e-05
-0.00012665
-2.5106e-05
-0.000119645
-2.79847e-05