/*--------------------------------*- C++ -*----------------------------------*\
| =========                 |                                                 |
| \\      /  F ield         | OpenFOAM: The Open Source CFD Toolbox           |
|  \\    /   O peration     | Version:  3.0.1                                 |
|   \\  /    A nd           | Web:      www.OpenFOAM.org                      |
|    \\/     M anipulation  |                                                 |
\*---------------------------------------------------------------------------*/
FoamFile
{
    version     2.0;
    format      ascii;
    class       surfaceScalarField;
    location    "22.4";
    object      alphaPhi;
}
// * * * * * * * * * * * * * * * * * * * * * * * * * * * * * * * * * * * * * //

dimensions      [0 3 -1 0 0 0 0];

internalField   nonuniform List<scalar> 
44922
(
9.74828e-05
1.68341e-05
8.04348e-05
1.70479e-05
6.30419e-05
1.7393e-05
4.56747e-05
1.73672e-05
2.82489e-05
1.74258e-05
1.10671e-05
1.71818e-05
-5.93631e-06
1.70034e-05
-2.24453e-05
1.6509e-05
-3.84697e-05
1.60244e-05
-5.38538e-05
1.5384e-05
-6.85942e-05
1.47405e-05
-8.25879e-05
1.39936e-05
-9.58228e-05
1.32349e-05
-0.000108241
1.24179e-05
-0.000119849
1.1608e-05
-0.000130587
1.07385e-05
-0.000140456
9.86866e-06
-0.000149458
9.00248e-06
-0.000157592
8.13412e-06
-0.000164881
7.2889e-06
-0.000171322
6.44085e-06
-0.000176949
5.62658e-06
-0.000181768
4.81962e-06
-0.000185818
4.04956e-06
-0.000189117
3.29909e-06
-0.000191697
2.57982e-06
-0.000193576
1.87959e-06
-0.000194779
1.20272e-06
-0.000195353
5.73475e-07
-0.000195303
-4.9619e-08
-0.000194611
-6.92297e-07
-0.000193346
-1.26429e-06
-0.000191462
-1.88443e-06
-0.000189035
-2.42694e-06
-0.000186109
-2.92631e-06
-0.000182557
-3.5514e-06
-0.00017855
-4.00765e-06
-0.000173939
-4.61092e-06
-0.000168878
-5.06028e-06
-0.000163248
-5.63067e-06
-0.000157212
-6.03575e-06
-0.000150571
-6.64125e-06
-0.000143512
-7.0593e-06
-0.000135881
-7.63039e-06
-0.000127816
-8.06538e-06
-0.000119161
-8.65444e-06
-0.000110068
-9.09299e-06
-0.000100378
-9.69018e-06
-9.02396e-05
-1.01386e-05
-7.94452e-05
-1.07944e-05
-6.8158e-05
-1.12872e-05
-5.64934e-05
-1.16645e-05
-4.42145e-05
-1.2279e-05
-3.15396e-05
-1.26749e-05
-1.82933e-05
-1.32463e-05
-4.74596e-06
-1.35473e-05
9.30208e-06
-1.4048e-05
2.35758e-05
-1.42737e-05
3.81846e-05
-1.46089e-05
5.29114e-05
-1.47268e-05
6.78024e-05
-1.48909e-05
8.26486e-05
-1.48462e-05
9.74675e-05
-1.48189e-05
0.000112051
-1.45832e-05
0.00012636
-1.43095e-05
0.00014019
-1.38299e-05
0.00015349
-1.32998e-05
0.000166065
-1.25754e-05
0.000177806
-1.17402e-05
0.000188612
-1.08064e-05
0.000198251
-9.63887e-06
0.000206687
-8.43618e-06
0.000213709
-7.02259e-06
0.000219338
-5.62891e-06
0.000223377
-4.03866e-06
0.000225843
-2.46587e-06
0.000226599
-7.56393e-07
0.000225737
8.62671e-07
0.000223051
2.68558e-06
0.000218696
4.35481e-06
0.000212667
6.02893e-06
0.000205056
7.6114e-06
0.000195851
9.20516e-06
0.000185202
1.0649e-05
0.000173233
1.19687e-05
0.000160015
1.32183e-05
0.000145656
1.43586e-05
0.000130413
1.52433e-05
0.000114322
1.60904e-05
9.76237e-05
1.66987e-05
8.04868e-05
1.71369e-05
6.30388e-05
1.74479e-05
4.55226e-05
1.75162e-05
2.80147e-05
1.75079e-05
1.07392e-05
1.72755e-05
-6.23527e-06
1.69745e-05
-2.27013e-05
1.6466e-05
-3.86084e-05
1.59071e-05
-5.37954e-05
1.5187e-05
-6.82605e-05
1.44651e-05
-8.18403e-05
1.35798e-05
-9.46327e-05
1.27924e-05
-0.000106433
1.18005e-05
-0.000117361
1.09275e-05
-0.000127272
9.91173e-06
-0.000136342
9.06938e-06
-0.000144438
8.09646e-06
-0.000151661
7.22314e-06
-0.000157974
6.31266e-06
-0.000163469
5.4953e-06
-0.000168161
4.69153e-06
-0.000172095
3.93384e-06
-0.000175359
3.26384e-06
-0.000177905
2.54665e-06
-0.000179896
1.99079e-06
-0.000181239
1.34249e-06
-0.000182143
9.04657e-07
-0.000182476
3.32579e-07
-0.000182475
-4.34394e-10
-0.000181933
-5.4258e-07
-0.000181117
-8.15971e-07
-0.000179725
-1.3918e-06
-0.000178169
-1.55575e-06
-0.000176094
-2.07559e-06
-0.000173654
-2.43964e-06
-0.000170748
-2.90628e-06
-0.000167471
-3.2773e-06
-0.000163736
-3.73483e-06
-0.000159525
-4.21067e-06
-0.000154838
-4.68731e-06
-0.000149601
-5.23648e-06
-0.00014384
-5.76137e-06
-0.00013749
-6.34972e-06
-0.000130575
-6.9155e-06
-0.000123051
-7.52345e-06
-0.000114924
-8.12776e-06
-0.000106156
-8.76747e-06
-9.67898e-05
-9.36626e-06
-8.67805e-05
-1.00093e-05
-7.6156e-05
-1.06246e-05
-6.49147e-05
-1.12413e-05
-5.30721e-05
-1.18427e-05
-4.06477e-05
-1.24244e-05
-2.76595e-05
-1.29882e-05
-1.41546e-05
-1.3505e-05
-1.84751e-07
-1.39698e-05
1.41946e-05
-1.43793e-05
2.89114e-05
-1.47168e-05
4.38733e-05
-1.4962e-05
5.89828e-05
-1.51095e-05
7.41161e-05
-1.51333e-05
8.91536e-05
-1.50375e-05
0.000103955
-1.48019e-05
0.000118392
-1.44363e-05
0.000132306
-1.39139e-05
0.000145552
-1.3246e-05
0.000157979
-1.24269e-05
0.00016947
-1.14916e-05
0.00017985
-1.03802e-05
0.000189003
-9.15274e-06
0.000196806
-7.80293e-06
0.000203142
-6.33587e-06
0.000207916
-4.77415e-06
0.000211047
-3.1315e-06
0.000212485
-1.43763e-06
0.00021226
2.24567e-07
0.00021029
1.97086e-06
0.000206632
3.65775e-06
0.000201317
5.31451e-06
0.000194476
6.84137e-06
0.000186153
8.32341e-06
0.000176473
9.67919e-06
0.000165565
1.09086e-05
0.000153531
1.20332e-05
0.000140548
1.29833e-05
0.000126776
1.37723e-05
0.00011233
1.44456e-05
9.7319e-05
1.50113e-05
8.19473e-05
1.53716e-05
6.61565e-05
1.57908e-05
5.03167e-05
1.58398e-05
3.44364e-05
1.58803e-05
1.87683e-05
1.56681e-05
3.27895e-06
1.54894e-05
-1.17664e-05
1.50453e-05
-2.64281e-05
1.46617e-05
-4.05538e-05
1.41257e-05
-5.40754e-05
1.35216e-05
-6.70293e-05
1.29539e-05
-7.9272e-05
1.22427e-05
-9.08944e-05
1.16224e-05
-0.000101751
1.08569e-05
-0.000111959
1.02075e-05
-0.000121386
9.42754e-06
-0.000130123
8.73632e-06
-0.000138108
7.98505e-06
-0.000145359
7.25126e-06
-0.000151886
6.52654e-06
-0.000157712
5.82692e-06
-0.000162861
5.14813e-06
-0.000167405
4.5441e-06
-0.000171172
3.76702e-06
-0.000174293
3.12096e-06
-0.000176761
2.46855e-06
-0.000178519
1.75737e-06
-0.000179704
1.18525e-06
-0.000180204
5.00539e-07
-0.000180204
2.8089e-11
-0.000179484
-7.20719e-07
-0.000178284
-1.19949e-06
-0.000176438
-1.84667e-06
-0.000174277
-2.16074e-06
-0.000171468
-2.80885e-06
-0.000168259
-3.20863e-06
-0.000164445
-3.81476e-06
-0.000160237
-4.20792e-06
-0.000155357
-4.87954e-06
-0.000149888
-5.46906e-06
-0.00014325
-6.63787e-06
-0.000136004
-7.24579e-06
-0.000131089
-4.9157e-06
-0.000129291
-1.79816e-06
-0.000128015
-1.27516e-06
-0.000125899
-2.11676e-06
-2.09894e-05
-0.000104909
9.75036e-05
3.36762e-05
8.04479e-05
3.41036e-05
6.30468e-05
3.47941e-05
4.56717e-05
3.47422e-05
2.82381e-05
3.48594e-05
1.10516e-05
3.43683e-05
-5.95889e-06
3.40139e-05
-2.24734e-05
3.30235e-05
-3.85034e-05
3.20544e-05
-5.38917e-05
3.07723e-05
-6.86359e-05
2.94847e-05
-8.26331e-05
2.79909e-05
-9.58711e-05
2.64729e-05
-0.00010829
2.4837e-05
-0.000119899
2.32168e-05
-0.00013064
2.14792e-05
-0.000140509
1.97379e-05
-0.000149511
1.80048e-05
-0.000157645
1.6268e-05
-0.000164935
1.45781e-05
-0.000171373
1.28792e-05
-0.000176998
1.1252e-05
-0.000181818
9.6389e-06
-0.000185867
8.09904e-06
-0.000189166
6.5981e-06
-0.000191746
5.15984e-06
-0.000193627
3.76037e-06
-0.000194831
2.40686e-06
-0.000195401
1.14294e-06
-0.000195349
-1.01037e-07
-0.000194657
-1.38479e-06
-0.000193392
-2.52855e-06
-0.000191508
-3.76866e-06
-0.000189076
-4.85931e-06
-0.000186145
-5.85741e-06
-0.000182599
-7.09688e-06
-0.000178584
-8.02249e-06
-0.000173966
-9.22931e-06
-0.000168905
-1.0121e-05
-0.000163283
-1.12527e-05
-0.000157246
-1.20728e-05
-0.000150608
-1.32795e-05
-0.000143551
-1.41168e-05
-0.000135917
-1.5264e-05
-0.000127853
-1.61294e-05
-0.000119197
-1.73102e-05
-0.000110103
-1.81875e-05
-0.000100413
-1.93799e-05
-9.02705e-05
-2.02809e-05
-7.94824e-05
-2.15825e-05
-6.81907e-05
-2.2579e-05
-5.65287e-05
-2.33266e-05
-4.42463e-05
-2.45613e-05
-3.15693e-05
-2.5352e-05
-1.8321e-05
-2.64946e-05
-4.77088e-06
-2.70975e-05
9.27654e-06
-2.80955e-05
2.35522e-05
-2.85493e-05
3.81673e-05
-2.9224e-05
5.29003e-05
-2.94599e-05
6.78009e-05
-2.97915e-05
8.26508e-05
-2.96962e-05
9.74796e-05
-2.96477e-05
0.000112069
-2.91728e-05
0.00012639
-2.86298e-05
0.000140226
-2.7666e-05
0.000153535
-2.66095e-05
0.000166118
-2.51578e-05
0.000177868
-2.3491e-05
0.000188684
-2.16222e-05
0.000198331
-1.92855e-05
0.000206775
-1.68805e-05
0.000213805
-1.40521e-05
0.000219437
-1.12615e-05
0.000223478
-8.07926e-06
0.00022595
-4.9382e-06
0.000226711
-1.51723e-06
0.000225842
1.73144e-06
0.000223155
5.37312e-06
0.000218805
8.70453e-06
0.000212782
1.20515e-05
0.000205161
1.5233e-05
0.000195947
1.84186e-05
0.000185293
2.13027e-05
0.000173312
2.39503e-05
0.00016009
2.64398e-05
0.000145724
2.87248e-05
0.000130467
3.05002e-05
0.000114376
3.21811e-05
9.76576e-05
3.34176e-05
8.05072e-05
3.42873e-05
6.30489e-05
3.49063e-05
4.55343e-05
3.50308e-05
2.80026e-05
3.50395e-05
1.07132e-05
3.4565e-05
-6.27091e-06
3.39585e-05
-2.27441e-05
3.29392e-05
-3.8663e-05
3.18261e-05
-5.38539e-05
3.03778e-05
-6.83279e-05
2.89391e-05
-8.19075e-05
2.71594e-05
-9.47038e-05
2.55886e-05
-0.000106503
2.35994e-05
-0.000117432
2.18568e-05
-0.000127343
1.98224e-05
-0.000136413
1.81397e-05
-0.000144511
1.61946e-05
-0.000151736
1.44481e-05
-0.00015805
1.26263e-05
-0.000163545
1.09902e-05
-0.000168232
9.37825e-06
-0.000172156
7.85826e-06
-0.000175418
6.52565e-06
-0.000177955
5.08378e-06
-0.000179945
3.98076e-06
-0.000181281
2.67832e-06
-0.000182186
1.80963e-06
-0.000182509
6.56193e-07
-0.000182509
-8.25365e-10
-0.000181965
-1.0864e-06
-0.000181154
-1.62761e-06
-0.000179758
-2.78692e-06
-0.0001782
-3.11462e-06
-0.000176134
-4.14063e-06
-0.000173693
-4.88151e-06
-0.000170782
-5.81713e-06
-0.000167506
-6.55318e-06
-0.000163774
-7.46655e-06
-0.000159566
-8.41839e-06
-0.000154881
-9.37315e-06
-0.000149644
-1.04732e-05
-0.000143884
-1.15211e-05
-0.000137533
-1.27008e-05
-0.000130616
-1.38324e-05
-0.000123095
-1.50446e-05
-0.00011497
-1.62527e-05
-0.000106202
-1.75359e-05
-9.68319e-05
-1.87361e-05
-8.68199e-05
-2.00213e-05
-7.6197e-05
-2.12474e-05
-6.49542e-05
-2.24841e-05
-5.31089e-05
-2.3688e-05
-4.06833e-05
-2.485e-05
-2.76947e-05
-2.59768e-05
-1.41838e-05
-2.70159e-05
-2.07658e-07
-2.7946e-05
1.41775e-05
-2.87645e-05
2.89013e-05
-2.94406e-05
4.38697e-05
-2.99304e-05
5.89864e-05
-3.02263e-05
7.41287e-05
-3.02756e-05
8.9175e-05
-3.00839e-05
0.000103986
-2.96129e-05
0.000118434
-2.88843e-05
0.00013236
-2.78398e-05
0.000145617
-2.65028e-05
0.000158058
-2.48683e-05
0.000169559
-2.29925e-05
0.000179946
-2.07677e-05
0.000189108
-1.8314e-05
0.000196916
-1.5611e-05
0.000203252
-1.26721e-05
0.000208027
-9.54905e-06
0.000211159
-6.26381e-06
0.000212598
-2.87606e-06
0.000212364
4.57588e-07
0.000210384
3.95174e-06
0.000206729
7.31189e-06
0.000201412
1.06324e-05
0.000194564
1.36893e-05
0.000186233
1.66539e-05
0.000176544
1.93681e-05
0.000165629
2.18234e-05
0.000153586
2.40768e-05
0.000140588
2.59812e-05
0.000126802
2.75587e-05
0.000112353
2.88938e-05
9.73331e-05
3.00315e-05
8.19451e-05
3.07596e-05
6.61444e-05
3.15915e-05
5.02953e-05
3.1689e-05
3.44069e-05
3.17686e-05
1.87334e-05
3.13416e-05
3.23284e-06
3.09899e-05
-1.18176e-05
3.00957e-05
-2.64793e-05
2.93235e-05
-4.06128e-05
2.82592e-05
-5.41364e-05
2.70451e-05
-6.70953e-05
2.59129e-05
-7.93321e-05
2.44794e-05
-9.09568e-05
2.32471e-05
-0.00010181
2.17105e-05
-0.000112013
2.041e-05
-0.000121441
1.88552e-05
-0.000130177
1.7473e-05
-0.000138164
1.59714e-05
-0.000145416
1.45033e-05
-0.000151941
1.30521e-05
-0.000157767
1.16531e-05
-0.000162913
1.02942e-05
-0.000167463
9.09335e-06
-0.000171233
7.53729e-06
-0.000174354
6.2422e-06
-0.000176826
4.94058e-06
-0.000178581
3.51196e-06
-0.000179767
2.3715e-06
-0.000180258
9.91155e-07
-0.000180256
-1.41325e-09
-0.000179528
-1.44896e-06
-0.000178325
-2.40276e-06
-0.000176474
-3.69714e-06
-0.000174316
-4.31906e-06
-0.000171504
-5.62085e-06
-0.000168293
-6.41989e-06
-0.000164472
-7.63589e-06
-0.00016025
-8.42963e-06
-0.000155336
-9.7935e-06
-0.000150007
-1.07976e-05
-0.000143757
-1.28883e-05
-0.000136132
-1.48705e-05
-0.000128373
-1.26744e-05
-0.000121161
-9.01065e-06
-0.000113063
-9.37307e-06
-0.000102313
-1.28673e-05
-4.48504e-05
-7.84515e-05
9.75441e-05
5.05355e-05
8.0472e-05
5.11756e-05
6.30542e-05
5.2212e-05
4.56632e-05
5.21331e-05
2.82144e-05
5.23083e-05
1.10197e-05
5.1563e-05
-6.00955e-06
5.10431e-05
-2.25343e-05
4.95482e-05
-3.8573e-05
4.80931e-05
-5.39689e-05
4.61683e-05
-6.87193e-05
4.4235e-05
-8.2721e-05
4.19926e-05
-9.59628e-05
3.97147e-05
-0.000108385
3.72588e-05
-0.000119996
3.48282e-05
-0.000130739
3.22219e-05
-0.00014061
2.9609e-05
-0.00014961
2.7005e-05
-0.000157746
2.4404e-05
-0.000165026
2.18586e-05
-0.00017146
1.93129e-05
-0.000177083
1.68749e-05
-0.000181901
1.44569e-05
-0.00018595
1.21483e-05
-0.000189249
9.89646e-06
-0.00019183
7.74113e-06
-0.000193712
5.64215e-06
-0.00019492
3.61498e-06
-0.00019548
1.7032e-06
-0.000195422
-1.5926e-07
-0.000194726
-2.08084e-06
-0.000193462
-3.79269e-06
-0.000191576
-5.65446e-06
-0.000189134
-7.30141e-06
-0.000186188
-8.80296e-06
-0.000182659
-1.06258e-05
-0.00017863
-1.20519e-05
-0.000174012
-1.38472e-05
-0.000168963
-1.51702e-05
-0.000163333
-1.68819e-05
-0.000157294
-1.81124e-05
-0.000150664
-1.99094e-05
-0.000143611
-2.11697e-05
-0.000135973
-2.29023e-05
-0.000127912
-2.41897e-05
-0.000119255
-2.59675e-05
-0.000110159
-2.72839e-05
-0.00010047
-2.90682e-05
-9.03237e-05
-3.04277e-05
-7.95455e-05
-3.23607e-05
-6.82464e-05
-3.38782e-05
-5.65894e-05
-3.49836e-05
-4.43011e-05
-3.68496e-05
-3.1621e-05
-3.80321e-05
-1.83694e-05
-3.97462e-05
-4.81496e-06
-4.06519e-05
9.23555e-06
-4.2146e-05
2.35152e-05
-4.2829e-05
3.81377e-05
-4.38465e-05
5.28807e-05
-4.42029e-05
6.77975e-05
-4.47083e-05
8.2652e-05
-4.45506e-05
9.74998e-05
-4.44955e-05
0.000112101
-4.3774e-05
0.000126438
-4.29665e-05
0.000140285
-4.1513e-05
0.000153611
-3.99354e-05
0.000166207
-3.77541e-05
0.000177974
-3.52583e-05
0.00018881
-3.24586e-05
0.00019847
-2.89455e-05
0.000206926
-2.53359e-05
0.000213966
-2.1092e-05
0.000219608
-1.6904e-05
0.000223653
-1.21237e-05
0.000226133
-7.41825e-06
0.000226895
-2.27997e-06
0.000226014
2.61269e-06
0.000223331
8.05611e-06
0.00021899
1.3046e-05
0.00021297
1.80708e-05
0.000205337
2.28668e-05
0.000196109
2.76466e-05
0.000185449
3.19623e-05
0.000173441
3.59583e-05
0.000160216
3.96651e-05
0.00014584
4.31004e-05
0.000130555
4.57855e-05
0.000114453
4.82824e-05
9.7712e-05
5.0159e-05
8.05381e-05
5.14611e-05
6.30618e-05
5.23826e-05
4.55351e-05
5.25575e-05
2.79796e-05
5.25951e-05
1.06684e-05
5.18762e-05
-6.3285e-06
5.09555e-05
-2.28124e-05
4.94231e-05
-3.87481e-05
4.77617e-05
-5.39436e-05
4.55733e-05
-6.84312e-05
4.34268e-05
-8.20123e-05
4.07404e-05
-9.48135e-05
3.83898e-05
-0.000106612
3.53978e-05
-0.000117541
3.27861e-05
-0.000127447
2.97284e-05
-0.000136519
2.72119e-05
-0.000144623
2.42985e-05
-0.000151854
2.16786e-05
-0.00015817
1.89423e-05
-0.000163672
1.64926e-05
-0.000168356
1.40622e-05
-0.000172259
1.17606e-05
-0.000175517
9.78397e-06
-0.000178037
7.60342e-06
-0.000180028
5.97252e-06
-0.000181347
3.99701e-06
-0.000182256
2.71898e-06
-0.000182563
9.62325e-07
-0.000182566
2.48739e-09
-0.000182023
-1.62895e-06
-0.000181223
-2.42809e-06
-0.000179822
-4.18737e-06
-0.000178254
-4.6826e-06
-0.000176203
-6.19171e-06
-0.000173758
-7.3264e-06
-0.000170839
-8.73629e-06
-0.00016757
-9.82282e-06
-0.000163845
-1.11907e-05
-0.000159642
-1.26216e-05
-0.00015496
-1.40553e-05
-0.000149723
-1.57099e-05
-0.000143968
-1.72764e-05
-0.000137616
-1.90532e-05
-0.000130699
-2.07493e-05
-0.000123177
-2.25664e-05
-0.000115057
-2.43729e-05
-0.000106288
-2.63048e-05
-9.69126e-05
-2.81114e-05
-8.68925e-05
-3.00415e-05
-7.62744e-05
-3.18654e-05
-6.50291e-05
-3.37294e-05
-5.31844e-05
-3.55328e-05
-4.07551e-05
-3.72792e-05
-2.77656e-05
-3.89663e-05
-1.42485e-05
-4.05331e-05
-2.58416e-07
-4.1936e-05
1.41419e-05
-4.31648e-05
2.88771e-05
-4.41759e-05
4.38576e-05
-4.49109e-05
5.89843e-05
-4.53529e-05
7.41392e-05
-4.54305e-05
8.91997e-05
-4.51445e-05
0.000104026
-4.44387e-05
0.000118495
-4.33535e-05
0.000132446
-4.17915e-05
0.000145722
-3.97784e-05
0.000158194
-3.73402e-05
0.000169708
-3.45068e-05
0.000180107
-3.11667e-05
0.000189281
-2.74879e-05
0.000197098
-2.34279e-05
0.000203432
-1.90063e-05
0.00020821
-1.4327e-05
0.000211344
-9.39779e-06
0.000212773
-4.30515e-06
0.000212524
7.06917e-07
0.000210531
5.94403e-06
0.000206889
1.09543e-05
0.000201565
1.59562e-05
0.000194706
2.05481e-05
0.00018637
2.49901e-05
0.000176668
2.90703e-05
0.000165745
3.27461e-05
0.000153685
3.61374e-05
0.000140664
3.90025e-05
0.00012686
4.13625e-05
0.000112412
4.33417e-05
9.73868e-05
4.50564e-05
8.19754e-05
4.61711e-05
6.61424e-05
4.74245e-05
5.02738e-05
4.75576e-05
3.43785e-05
4.76639e-05
1.86981e-05
4.7022e-05
3.182e-06
4.6506e-05
-1.18748e-05
4.51525e-05
-2.65407e-05
4.39894e-05
-4.06889e-05
4.24074e-05
-5.42145e-05
4.05707e-05
-6.7187e-05
3.88854e-05
-7.94159e-05
3.67084e-05
-9.10459e-05
3.48771e-05
-0.000101894
3.25584e-05
-0.000112088
3.06038e-05
-0.000121515
2.82823e-05
-0.000130253
2.62116e-05
-0.000138245
2.39633e-05
-0.000145504
2.17625e-05
-0.000152027
1.95753e-05
-0.000157854
1.74796e-05
-0.000163003
1.54436e-05
-0.000167556
1.3646e-05
-0.000171334
1.13157e-05
-0.000174476
9.38414e-06
-0.000176943
7.40754e-06
-0.000178695
5.26404e-06
-0.00017989
3.56618e-06
-0.000180355
1.45613e-06
-0.000180349
-7.24286e-09
-0.000179613
-2.18503e-06
-0.000178403
-3.61309e-06
-0.000176546
-5.55358e-06
-0.000174383
-6.48232e-06
-0.000171556
-8.44741e-06
-0.000168343
-9.63337e-06
-0.000164512
-1.1467e-05
-0.000160324
-1.26179e-05
-0.000155403
-1.47144e-05
-0.000149955
-1.6245e-05
-0.000143673
-1.91702e-05
-0.000136511
-2.20333e-05
-0.000128143
-2.10423e-05
-0.000118389
-1.87639e-05
-0.000106693
-2.10692e-05
-9.32594e-05
-2.63012e-05
-6.54717e-05
-7.26382e-05
9.76047e-05
6.74205e-05
8.05082e-05
6.82721e-05
6.30653e-05
6.96548e-05
4.56505e-05
6.95479e-05
2.81782e-05
6.97806e-05
1.09497e-05
6.87916e-05
-6.0849e-06
6.80777e-05
-2.26237e-05
6.6087e-05
-3.86754e-05
6.41448e-05
-5.40824e-05
6.15753e-05
-6.88416e-05
5.89943e-05
-8.28504e-05
5.60014e-05
-9.60986e-05
5.29628e-05
-0.000108524
4.96846e-05
-0.000120139
4.64423e-05
-0.000130883
4.29664e-05
-0.000140753
3.94787e-05
-0.000149755
3.60074e-05
-0.000157888
3.25368e-05
-0.000165165
2.91352e-05
-0.000171593
2.5741e-05
-0.00017721
2.24922e-05
-0.000182027
1.92736e-05
-0.000186074
1.61953e-05
-0.000189371
1.31936e-05
-0.000191953
1.03232e-05
-0.000193835
7.52385e-06
-0.000195046
4.82601e-06
-0.000195595
2.25275e-06
-0.000195528
-2.26205e-07
-0.000194829
-2.78004e-06
-0.000193565
-5.05693e-06
-0.000191677
-7.54247e-06
-0.000189221
-9.75759e-06
-0.000186281
-1.17422e-05
-0.00018275
-1.41571e-05
-0.000178703
-1.60992e-05
-0.000174098
-1.8452e-05
-0.000169048
-2.022e-05
-0.000163421
-2.25096e-05
-0.00015737
-2.41627e-05
-0.000150747
-2.65328e-05
-0.0001437
-2.82163e-05
-0.000136056
-3.05465e-05
-0.000128001
-3.22451e-05
-0.000119342
-3.46262e-05
-0.000110243
-3.63828e-05
-0.000100556
-3.87548e-05
-9.04114e-05
-4.05726e-05
-7.96387e-05
-4.31334e-05
-6.83296e-05
-4.51873e-05
-5.66789e-05
-4.66343e-05
-4.43829e-05
-4.91456e-05
-3.16982e-05
-5.07168e-05
-1.8441e-05
-5.30034e-05
-4.87954e-06
-5.42134e-05
9.17746e-06
-5.6203e-05
2.34641e-05
-5.71156e-05
3.80974e-05
-5.84798e-05
5.2855e-05
-5.89606e-05
6.77834e-05
-5.96367e-05
8.26573e-05
-5.94245e-05
9.75312e-05
-5.93694e-05
0.000112151
-5.83941e-05
0.000126509
-5.73246e-05
0.000140376
-5.53794e-05
0.000153724
-5.32838e-05
0.000166343
-5.03731e-05
0.000178133
-4.70485e-05
0.000188997
-4.33226e-05
0.000198678
-3.86259e-05
0.000207152
-3.38101e-05
0.000214206
-2.81459e-05
0.000219865
-2.25628e-05
0.000223917
-1.61763e-05
0.000226408
-9.90924e-06
0.000227173
-3.04531e-06
0.00022627
3.51579e-06
0.000223603
1.07239e-05
0.000219267
1.73814e-05
0.000213242
2.40959e-05
0.000205599
3.05097e-05
0.000196351
3.68952e-05
0.000185687
4.26256e-05
0.000173638
4.80074e-05
0.000160403
5.29007e-05
0.000146021
5.74818e-05
0.000130686
6.11212e-05
0.000114559
6.44087e-05
9.77949e-05
6.69233e-05
8.05846e-05
6.86715e-05
6.30817e-05
6.98854e-05
4.55254e-05
7.01138e-05
2.79453e-05
7.01752e-05
1.06008e-05
6.92206e-05
-6.41488e-06
6.79711e-05
-2.29156e-05
6.59239e-05
-3.88729e-05
6.3719e-05
-5.40766e-05
6.0777e-05
-6.85855e-05
5.79356e-05
-8.21801e-05
5.4335e-05
-9.49733e-05
5.1183e-05
-0.000106775
4.71993e-05
-0.000117712
4.37232e-05
-0.000127614
3.96302e-05
-0.000136678
3.62766e-05
-0.000144786
3.24063e-05
-0.000152021
2.8913e-05
-0.000158335
2.52566e-05
-0.000163843
2.20011e-05
-0.00016852
1.87389e-05
-0.000172409
1.5649e-05
-0.000175647
1.30227e-05
-0.000178152
1.01076e-05
-0.000180144
7.96521e-06
-0.000181442
5.29469e-06
-0.000182359
3.63592e-06
-0.000182645
1.24802e-06
-0.000182639
-3.19284e-09
-0.000182104
-2.16364e-06
-0.000181309
-3.22356e-06
-0.000179907
-5.589e-06
-0.000178345
-6.24455e-06
-0.00017629
-8.24668e-06
-0.000173856
-9.76071e-06
-0.000170925
-1.16675e-05
-0.000167661
-1.30863e-05
-0.000163946
-1.49058e-05
-0.000159746
-1.68216e-05
-0.000155072
-1.87299e-05
-0.000149833
-2.09487e-05
-0.000144087
-2.30218e-05
-0.000137733
-2.54074e-05
-0.000130825
-2.76573e-05
-0.000123296
-3.00958e-05
-0.000115179
-3.24898e-05
-0.000106409
-3.50747e-05
-9.70315e-05
-3.74889e-05
-8.6995e-05
-4.0078e-05
-7.6389e-05
-4.24715e-05
-6.51375e-05
-4.49809e-05
-5.3295e-05
-4.73753e-05
-4.08608e-05
-4.97134e-05
-2.78669e-05
-5.19602e-05
-1.43412e-05
-5.40587e-05
-3.3496e-07
-5.59423e-05
1.40838e-05
-5.75836e-05
2.88376e-05
-5.89297e-05
4.38375e-05
-5.99108e-05
5.89792e-05
-6.04947e-05
7.41511e-05
-6.06023e-05
8.92341e-05
-6.02276e-05
0.000104085
-5.92893e-05
0.000118574
-5.78427e-05
0.000132556
-5.57734e-05
0.000145866
-5.3089e-05
0.000158378
-4.98517e-05
0.000169911
-4.604e-05
0.000180331
-4.15872e-05
0.000189524
-3.66807e-05
0.000197352
-3.12555e-05
0.000203693
-2.53475e-05
0.000208477
-1.91109e-05
0.000211614
-1.25351e-05
0.000213035
-5.72598e-06
0.000212776
9.65979e-07
0.00021077
7.94971e-06
0.00020712
1.46041e-05
0.0002018
2.12768e-05
0.000194926
2.74216e-05
0.000186577
3.33398e-05
0.000176851
3.87957e-05
0.000165916
4.36815e-05
0.00015384
4.82129e-05
0.000140787
5.20556e-05
0.000126952
5.51979e-05
0.000112463
5.78301e-05
9.74457e-05
6.00741e-05
8.20121e-05
6.16046e-05
6.61409e-05
6.32956e-05
5.02423e-05
6.34562e-05
3.43512e-05
6.3555e-05
1.86622e-05
6.2711e-05
3.10849e-06
6.20597e-05
-1.19528e-05
6.02138e-05
-2.66212e-05
5.86578e-05
-4.07822e-05
5.65684e-05
-5.43224e-05
5.41109e-05
-6.73164e-05
5.18793e-05
-7.95333e-05
4.89253e-05
-9.11792e-05
4.6523e-05
-0.000102016
4.33952e-05
-0.000112216
4.08041e-05
-0.000121634
3.77002e-05
-0.000130375
3.49525e-05
-0.000138373
3.19612e-05
-0.000145643
2.90323e-05
-0.000152161
2.60928e-05
-0.000157973
2.32916e-05
-0.000163149
2.06201e-05
-0.000167691
1.81876e-05
-0.000171461
1.50864e-05
-0.000174627
1.25497e-05
-0.000177096
9.87637e-06
-0.00017885
7.01824e-06
-0.000180051
4.76765e-06
-0.00018048
1.8847e-06
-0.000180458
-2.92357e-08
-0.000179722
-2.9211e-06
-0.000178514
-4.82056e-06
-0.000176655
-7.41283e-06
-0.000174473
-8.66417e-06
-0.000171618
-1.13025e-05
-0.000168428
-1.28238e-05
-0.000164605
-1.52902e-05
-0.000160421
-1.68019e-05
-0.000155514
-1.96215e-05
-0.000150102
-2.16562e-05
-0.000143741
-2.55314e-05
-0.000136596
-2.91782e-05
-0.000127984
-2.96545e-05
-0.000117479
-2.92688e-05
-0.000104604
-3.39448e-05
-9.06579e-05
-4.02469e-05
-8.16513e-05
-7.44783e-05
9.76856e-05
8.43398e-05
8.05563e-05
8.54014e-05
6.30802e-05
8.71309e-05
4.56336e-05
8.69945e-05
2.81303e-05
8.72838e-05
1.08543e-05
8.60676e-05
-6.18342e-06
8.51154e-05
-2.27394e-05
8.2643e-05
-3.88081e-05
8.02135e-05
-5.423e-05
7.69972e-05
-6.9001e-05
7.37652e-05
-8.30202e-05
7.00206e-05
-9.62769e-05
6.62196e-05
-0.000108709
6.21166e-05
-0.000120326
5.80589e-05
-0.000131073
5.37136e-05
-0.000140943
4.93487e-05
-0.000149948
4.50129e-05
-0.000158078
4.06662e-05
-0.00016535
3.64081e-05
-0.000171772
3.21628e-05
-0.000177378
2.80982e-05
-0.000182192
2.40879e-05
-0.000186234
2.02365e-05
-0.000189528
1.64881e-05
-0.000192108
1.2903e-05
-0.000193988
9.40385e-06
-0.000195197
6.03475e-06
-0.000195741
2.79652e-06
-0.000195668
-2.99046e-07
-0.000194966
-3.482e-06
-0.000193701
-6.32152e-06
-0.000191811
-9.43255e-06
-0.00018935
-1.22188e-05
-0.000186404
-1.46885e-05
-0.000182872
-1.76887e-05
-0.000178822
-2.01493e-05
-0.000174211
-2.30624e-05
-0.000169162
-2.52697e-05
-0.000163554
-2.81174e-05
-0.000157486
-3.02303e-05
-0.000150856
-3.31633e-05
-0.000143818
-3.52542e-05
-0.000136167
-3.81978e-05
-0.000128117
-4.02946e-05
-0.000119457
-4.3286e-05
-0.000110359
-4.5481e-05
-0.000100669
-4.84446e-05
-9.05284e-05
-5.07136e-05
-7.97614e-05
-5.39003e-05
-6.84441e-05
-5.65047e-05
-5.67962e-05
-5.82821e-05
-4.44914e-05
-6.14504e-05
-3.18004e-05
-6.34078e-05
-1.85351e-05
-6.62687e-05
-4.96341e-06
-6.77851e-05
9.10467e-06
-7.02711e-05
2.34021e-05
-7.1413e-05
3.8049e-05
-7.31268e-05
5.28272e-05
-7.37388e-05
6.77689e-05
-7.45785e-05
8.26713e-05
-7.4327e-05
9.75752e-05
-7.42733e-05
0.000112223
-7.30418e-05
0.000126607
-7.17089e-05
0.000140503
-6.92756e-05
0.000153881
-6.66612e-05
0.00016653
-6.30223e-05
0.000178351
-5.88695e-05
0.000189245
-5.42169e-05
0.000198956
-4.83365e-05
0.000207454
-4.23086e-05
0.000214531
-3.52224e-05
0.000220208
-2.82399e-05
0.000224275
-2.02434e-05
0.000226778
-1.24125e-05
0.000227562
-3.82851e-06
0.000226641
4.43624e-06
0.000223977
1.3388e-05
0.000219641
2.17176e-05
0.000213606
3.01312e-05
0.00020595
3.81653e-05
0.000196675
4.61699e-05
0.000186018
5.32829e-05
0.000173906
6.01186e-05
0.000160652
6.61554e-05
0.000146231
7.19031e-05
0.000130859
7.64924e-05
0.000114701
8.05674e-05
9.79131e-05
8.37108e-05
8.06476e-05
8.5937e-05
6.31111e-05
8.74219e-05
4.55137e-05
8.77112e-05
2.79004e-05
8.77885e-05
1.05115e-05
8.66095e-05
-6.52885e-06
8.50115e-05
-2.30524e-05
8.24474e-05
-3.90378e-05
7.97044e-05
-5.42538e-05
7.5993e-05
-6.87878e-05
7.24695e-05
-8.23939e-05
6.79411e-05
-9.51835e-05
6.39726e-05
-0.000106988
5.90042e-05
-0.000117942
5.46767e-05
-0.000127844
4.95321e-05
-0.000136902
4.53348e-05
-0.000145005
4.05095e-05
-0.000152236
3.6144e-05
-0.000158538
3.1558e-05
-0.000164051
2.75143e-05
-0.000168704
2.33917e-05
-0.000172594
1.95396e-05
-0.000175807
1.62352e-05
-0.000178307
1.26075e-05
-0.000180288
9.94707e-06
-0.00018157
6.57617e-06
-0.000182485
4.55095e-06
-0.000182762
1.52478e-06
-0.000182737
-2.79945e-08
-0.000182185
-2.71592e-06
-0.000181399
-4.00917e-06
-0.000180018
-6.96979e-06
-0.000178444
-7.81882e-06
-0.000176384
-1.03068e-05
-0.000173985
-1.21599e-05
-0.000171038
-1.46146e-05
-0.000167775
-1.63493e-05
-0.000164062
-1.86185e-05
-0.000159864
-2.10193e-05
-0.000155212
-2.33818e-05
-0.00014997
-2.61911e-05
-0.000144239
-2.87527e-05
-0.000137884
-3.17626e-05
-0.000130993
-3.4548e-05
-0.00012345
-3.76392e-05
-0.000115334
-4.06054e-05
-0.000106567
-4.38421e-05
-9.71718e-05
-4.68836e-05
-8.71526e-05
-5.00972e-05
-7.65431e-05
-5.3081e-05
-6.52591e-05
-5.62649e-05
-5.34434e-05
-5.9191e-05
-4.1002e-05
-6.21548e-05
-2.79996e-05
-6.49626e-05
-1.44633e-05
-6.75951e-05
-4.4453e-07
-6.99611e-05
1.3998e-05
-7.20261e-05
2.87751e-05
-7.37068e-05
4.3799e-05
-7.49347e-05
5.89631e-05
-7.56589e-05
7.41592e-05
-7.57984e-05
8.9268e-05
-7.53364e-05
0.000104157
-7.41781e-05
0.000118676
-7.23619e-05
0.000132688
-6.97859e-05
0.00014604
-6.64411e-05
0.000158573
-6.23845e-05
0.000170148
-5.76151e-05
0.000180605
-5.20434e-05
0.000189819
-4.58956e-05
0.000197669
-3.91049e-05
0.000204034
-3.17127e-05
0.000208833
-2.391e-05
0.000211963
-1.56654e-05
0.000213396
-7.15843e-06
0.000213129
1.2331e-06
0.000211116
9.96195e-06
0.000207459
1.82612e-05
0.00020213
2.66063e-05
0.000195234
3.4317e-05
0.000186872
4.17021e-05
0.000177114
4.85538e-05
0.000166142
5.4653e-05
0.000154036
6.03189e-05
0.000140964
6.51275e-05
0.00012708
6.90821e-05
0.00011256
7.23502e-05
9.75013e-05
7.51329e-05
8.20345e-05
7.70714e-05
6.61436e-05
7.91866e-05
5.02147e-05
7.9385e-05
3.43358e-05
7.94339e-05
1.86025e-05
7.84443e-05
3.01083e-06
7.76514e-05
-1.20546e-05
7.52792e-05
-2.67488e-05
7.3352e-05
-4.09136e-05
7.07333e-05
-5.44809e-05
6.76782e-05
-6.74836e-05
6.4882e-05
-7.96961e-05
6.11377e-05
-9.13583e-05
5.81852e-05
-0.000102174
5.42105e-05
-0.000112401
5.10317e-05
-0.000121805
4.71042e-05
-0.000130553
4.37007e-05
-0.000138552
3.996e-05
-0.000145823
3.63031e-05
-0.000152346
3.26153e-05
-0.000158131
2.90767e-05
-0.000163334
2.5823e-05
-0.000167871
2.27249e-05
-0.000171594
1.88099e-05
-0.000174801
1.57562e-05
-0.00017726
1.23353e-05
-0.000179023
8.78161e-06
-0.000180223
5.96769e-06
-0.000180633
2.29466e-06
-0.000180581
-8.09707e-08
-0.000179825
-3.67719e-06
-0.000178651
-5.99521e-06
-0.000176794
-9.26943e-06
-0.000174571
-1.08872e-05
-0.000171724
-1.41497e-05
-0.000168564
-1.59836e-05
-0.000164755
-1.90996e-05
-0.000160573
-2.09834e-05
-0.000155645
-2.45495e-05
-0.000150235
-2.70658e-05
-0.000143896
-3.18709e-05
-0.000136847
-3.62277e-05
-0.000128178
-3.83227e-05
-0.000117468
-3.99787e-05
-0.00010463
-4.67829e-05
-9.1121e-05
-5.37562e-05
-9.56391e-05
-7.71332e-05
9.77865e-05
0.000101302
8.06163e-05
0.000102572
6.30987e-05
0.000104649
4.56124e-05
0.000104481
2.80713e-05
0.000104825
1.07514e-05
0.000103387
-6.30489e-06
0.000102172
-2.28821e-05
9.92202e-05
-3.8973e-05
9.63045e-05
-5.44143e-05
9.24384e-05
-6.92022e-05
8.85531e-05
-8.32345e-05
8.40529e-05
-9.64985e-05
7.94836e-05
-0.00010894
7.45579e-05
-0.000120556
6.96756e-05
-0.00013131
6.4467e-05
-0.000141182
5.92208e-05
-0.00015019
5.4021e-05
-0.000158316
4.87923e-05
-0.000165584
4.36756e-05
-0.000172
3.85788e-05
-0.000177591
3.36897e-05
-0.000182391
2.88877e-05
-0.000186431
2.42763e-05
-0.000189723
1.97807e-05
-0.000192296
1.5476e-05
-0.000194175
1.12824e-05
-0.000195377
7.23642e-06
-0.000195916
3.33611e-06
-0.00019584
-3.75631e-07
-0.000195135
-4.18627e-06
-0.00019387
-7.5868e-06
-0.000191978
-1.13243e-05
-0.000189531
-1.46662e-05
-0.000186554
-1.76656e-05
-0.000183025
-2.12174e-05
-0.000178969
-2.42055e-05
-0.000174352
-2.76792e-05
-0.000169303
-3.03195e-05
-0.000163708
-3.37123e-05
-0.00015763
-3.63085e-05
-0.000150993
-3.98e-05
-0.000143964
-4.22833e-05
-0.000136304
-4.5858e-05