/*--------------------------------*- C++ -*----------------------------------*\
| =========                 |                                                 |
| \\      /  F ield         | OpenFOAM: The Open Source CFD Toolbox           |
|  \\    /   O peration     | Version:  3.0.1                                 |
|   \\  /    A nd           | Web:      www.OpenFOAM.org                      |
|    \\/     M anipulation  |                                                 |
\*---------------------------------------------------------------------------*/
FoamFile
{
    version     2.0;
    format      ascii;
    class       volScalarField;
    location    "39.2";
    object      p;
}
// * * * * * * * * * * * * * * * * * * * * * * * * * * * * * * * * * * * * * //

dimensions      [1 -1 -2 0 0 0 0];

internalField   nonuniform List<scalar> 
21420
(
3791.83
3819.37
3848.61
3879.05
3902.32
3935.57
3969.73
4004.19
4038.6
4072.61
4105.77
4137.66
4167.88
4196
4221.68
4244.55
4264.3
4280.69
4293.49
4302.55
4307.76
4308.96
4306.29
4299.74
4289.45
4275.58
4258.37
4238.08
4215.02
4189.54
4161.96
4132.71
4102.13
4070.63
4038.56
4006.26
3974.03
3942.13
3910.87
3883.6
3854.66
3826.93
3800.55
3775.64
3752.27
3730.47
3710.28
3691.7
3674.72
3659.32
3645.48
3633.16
3622.32
3612.95
3605
3598.45
3593.28
3589.47
3587.01
3585.94
3586.23
3587.89
3590.97
3595.46
3601.4
3608.82
3617.74
3628.18
3640.19
3653.77
3668.93
3685.69
3704.04
3723.96
3745.4
3768.34
3792.71
3818.43
3845.39
3873.5
3903.08
3933.21
3963.98
3995.2
4026.63
4058.06
4089.21
4119.82
4149.57
4178.16
4205.25
4230.53
4253.67
4274.36
4292.33
4307.32
4319.11
4327.51
4332.38
4333.55
4331.11
4324.95
4315.11
4301.69
4284.82
4264.68
4241.5
4215.57
4187.19
4156.74
4124.59
4091.17
4056.88
4022.17
3987.42
3953.03
3919.34
3886.68
3855.29
3825.42
3797.22
3770.84
3746.36
3723.85
3703.34
3684.81
3668.27
3653.67
3640.96
3630.09
3621
3613.61
3607.85
3603.65
3600.93
3599.63
3599.71
3601.08
3603.72
3607.61
3612.73
3619.09
3626.71
3635.61
3645.83
3657.41
3670.41
3684.87
3700.84
3718.36
3737.46
3758.16
3780.47
3804.39
3829.86
3856.82
3885.18
3914.82
3945.6
3977.2
4009.41
4041.95
4074.5
4106.69
4138.14
4168.45
4197.2
4223.96
4248.32
4269.86
4288.22
4303.04
4314.03
4320.96
4323.61
4321.96
4315.94
4305.65
4291.21
4272.84
4250.84
4225.56
4197.42
4166.84
4134.3
4100.27
4065.23
4029.68
3994.04
3958.76
3924.24
3890.76
3858.64
3828.08
3799.26
3772.31
3747.3
3724.27
3703.23
3684.15
3667
3651.73
3638.29
3626.61
3616.63
3608.27
3601.47
3596.16
3592.29
3589.78
3588.63
3588.82
3590.28
3593.04
3597.09
3602.46
3609.16
3617.24
3626.73
3637.67
3650.12
3664.11
3679.69
3696.9
3715.77
3736.32
3758.53
3782.4
3807.87
3834.87
3863.28
3892.96
3923.71
3955.33
3987.49
4019.89
4052.19
4084.02
4114.97
4144.6
4172.49
4198.2
4221.32
4241.46
4258.26
4271.42
4280.68
4285.87
4286.8
4283.58
4276.14
4264.61
4249.18
4230.1
4207.7
4182.34
4154.42
4124.39
4092.7
4059.82
4026.2
3992.28
3958.47
3925.16
3892.65
3861.24
3831.16
3802.59
3775.68
3750.53
3727.19
3705.7
3686.07
3668.29
3652.32
3638.13
3625.66
3614.84
3605.63
3597.95
3591.75
3587.01
3583.68
3581.7
3581.01
3581.58
3583.39
3586.42
3590.68
3596.15
3602.85
3610.81
3620.08
3630.71
3642.77
3656.33
3671.45
3688.22
3706.68
3726.87
3748.8
3772.45
3797.78
3824.69
3853.01
3882.49
3912.03
3943.02
3974.6
4006.29
4037.66
4068.35
4097.91
4125.93
4152.03
4175.83
4196.96
4215.12
4230.02
4241.46
4249.27
4253.33
4253.49
4249.81
4242.39
4231.32
4216.83
4199.17
4178.63
4155.53
4130.23
4103.09
4074.5
4044.83
4014.47
3983.77
3953.07
3922.67
3893.23
3864.37
3836.2
3809.04
3783.05
3758.39
3735.15
3713.41
3693.25
3674.68
3657.74
3642.45
3628.8
3616.81
3606.46
3597.74
3590.63
3585.13
3581.19
3693.64
3721.18
3750.43
3780.89
3804.16
3837.42
3871.59
3906.06
3940.49
3974.51
4007.7
4039.6
4069.84
4097.98
4123.67
4146.56
4166.33
4182.72
4195.54
4204.6
4209.81
4211.02
4208.34
4201.78
4191.48
4177.6
4160.38
4140.08
4117
4091.5
4063.91
4034.64
4004.05
3972.53
3940.44
3908.13
3875.9
3843.99
3812.73
3785.42
3756.49
3728.75
3702.38
3677.47
3654.09
3632.3
3612.11
3593.53
3576.55
3561.16
3547.32
3535
3524.16
3514.79
3506.84
3500.29
3495.12
3491.31
3488.86
3487.78
3488.08
3489.73
3492.81
3497.31
3503.24
3510.66
3519.57
3530.02
3542.02
3555.6
3570.76
3587.52
3605.87
3625.79
3647.24
3670.17
3694.55
3720.27
3747.23
3775.35
3804.93
3835.06
3865.84
3897.06
3928.51
3959.94
3991.11
4021.73
4051.5
4080.1
4107.2
4132.49
4155.65
4176.36
4194.34
4209.34
4221.14
4229.55
4234.42
4235.6
4233.15
4226.99
4217.15
4203.72
4186.84
4166.68
4143.49
4117.54
4089.15
4058.68
4026.51
3993.07
3958.77
3924.04
3889.28
3854.87
3821.18
3788.5
3757.11
3727.23
3699.03
3672.65
3648.17
3625.66
3605.15
3586.63
3570.09
3555.49
3542.78
3531.92
3522.83
3515.44
3509.69
3505.49
3502.77
3501.48
3501.56
3502.93
3505.57
3509.46
3514.58
3520.94
3528.56
3537.46
3547.67
3559.25
3572.25
3586.7
3602.67
3620.19
3639.28
3659.99
3682.3
3706.21
3731.68
3758.65
3787.01
3816.66
3847.44
3879.05
3911.27
3943.83
3976.38
4008.59
4040.06
4070.39
4099.16
4125.94
4150.31
4171.87
4190.25
4205.08
4216.09
4223.03
4225.69
4224.03
4218
4207.71
4193.25
4174.87
4152.85
4127.56
4099.39
4068.79
4036.23
4002.18
3967.13
3931.55
3895.9
3860.61
3826.07
3792.59
3760.45
3729.89
3701.07
3674.12
3649.11
3626.08
3605.04
3585.97
3568.82
3553.56
3540.12
3528.44
3518.46
3510.11
3503.31
3498
3494.13
3491.63
3490.48
3490.67
3492.13
3494.88
3498.93
3504.3
3511
3519.08
3528.57
3539.51
3551.95
3565.94
3581.52
3598.73
3617.59
3638.14
3660.35
3684.22
3709.7
3736.7
3765.11
3794.79
3825.56
3857.19
3889.35
3921.77
3954.09
3985.94
4016.9
4046.55
4074.46
4100.19
4123.32
4143.48
4160.29
4173.46
4182.74
4187.93
4188.87
4185.64
4178.2
4166.66
4151.21
4132.12
4109.7
4084.32
4056.38
4026.33
3994.62
3961.72
3928.08
3894.15
3860.33
3827
3794.49
3763.07
3732.98
3704.41
3677.5
3652.34
3629.01
3607.52
3587.89
3570.11
3554.14
3539.96
3527.49
3516.68
3507.47
3499.79
3493.59
3488.86
3485.53
3483.55
3482.86
3483.43
3485.25
3488.28
3492.53
3498
3504.7
3512.66
3521.93
3532.55
3544.61
3558.16
3573.28
3590.04
3608.5
3628.69
3650.62
3674.27
3699.6
3726.52
3754.85
3784.33
3813.87
3844.88
3876.47
3908.18
3939.57
3970.27
3999.85
4027.88
4054.01
4077.82
4098.96
4117.14
4132.05
4143.5
4151.32
4155.38
4155.54
4151.85
4144.43
4133.35
4118.85
4101.18
4080.62
4057.5
4032.18
4005.03
3976.42
3946.74
3916.36
3885.65
3854.94
3824.53
3795.08
3766.22
3738.04
3710.88
3684.89
3660.22
3636.98
3615.24
3595.07
3576.51
3559.57
3544.28
3530.64
3518.64
3508.29
3499.57
3492.47
3486.97
3483.02
3595.36
3622.91
3652.16
3682.65
3705.95
3739.23
3773.42
3807.91
3842.37
3876.43
3909.65
3941.59
3971.86
4000.04
4025.76
4048.68
4068.47
4084.89
4097.73
4106.8
4112.02
4113.25
4110.53
4103.97
4093.65
4079.75
4062.5
4042.17
4019.06
3993.53
3965.9
3936.6
3905.98
3874.43
3842.31
3809.98
3777.73
3745.81
3714.54
3687.17
3658.24
3630.51
3604.13
3579.22
3555.85
3534.05
3513.87
3495.29
3478.32
3462.93
3449.09
3436.77
3425.95
3416.57
3408.63
3402.08
3396.91
3393.11
3390.65
3389.58
3389.87
3391.52
3394.6
3399.09
3405.02
3412.44
3421.35
3431.79
3443.79
3457.37
3472.53
3489.29
3507.63
3527.55
3549
3571.94
3596.32
3622.04
3649.01
3677.14
3706.72
3736.87
3767.66
3798.9
3830.36
3861.82
3893.01
3923.65
3953.45
3982.08
4009.21
4034.53
4057.71
4078.45
4096.46
4111.49
4123.3
4131.72
4136.61
4137.8
4135.33
4129.17
4119.32
4105.87
4088.97
4068.79
4045.58
4019.59
3991.17
3960.66
3928.46
3894.98
3860.65
3825.88
3791.09
3756.66
3722.95
3690.26
3658.85
3628.96
3600.75
3574.37
3549.89
3527.39
3506.87
3488.36
3471.82
3457.23
3444.53
3433.67
3424.59
3417.21
3411.46
3407.27
3404.55
3403.27
3403.35
3404.73
3407.37
3411.26
3416.38
3422.74
3430.35
3439.25
3449.46
3461.04
3474.02
3488.47
3504.44
3521.95
3541.04
3561.74
3584.05
3607.96
3633.44
3660.41
3688.78
3718.43
3749.23
3780.86
3813.1
3845.68
3878.26
3910.5
3942.01
3972.37
4001.17
4027.99
4052.41
4074
4092.41
4107.28
4118.3
4125.26
4127.94
4126.26
4120.23
4109.92
4095.44
4077.03
4054.98
4029.64
4001.44
3970.79
3938.19
3904.1
3869.01
3833.39
3797.72
3762.39
3727.84
3694.34
3662.19
3631.62
3602.79
3575.84
3550.83
3527.81
3506.77
3487.7
3470.56
3455.3
3441.87
3430.2
3420.23
3411.88
3405.09
3399.79
3395.92
3393.42
3392.27
3392.46
3393.93
3396.68
3400.73
3406.09
3412.79
3420.86
3430.35
3441.28
3453.72
3467.7
3483.28
3500.48
3519.35
3539.89
3562.1
3585.97
3611.45
3638.46
3666.88
3696.57
3727.35
3759
3791.18
3823.63
3855.98
3887.86
3918.86
3948.55
3976.49
4002.26
4025.44
4045.62
4062.47
4075.66
4084.96
4090.16
4091.12
4087.86
4080.41
4068.85
4053.38
4034.26
4011.8
3986.38
3958.4
3928.31
3896.56
3863.62
3829.95
3795.99
3762.14
3728.79
3696.25
3664.82
3634.72
3606.15
3579.23
3554.08
3530.74
3509.25
3489.63
3471.86
3455.9
3441.71
3429.25
3418.45
3409.24
3401.57
3395.38
3390.65
3387.32
3385.34
3384.66
3385.24
3387.05
3390.08
3394.33
3399.8
3406.49
3414.46
3423.72
3434.34
3446.39
3459.93
3475.04
3491.8
3510.25
3530.44
3552.37
3576.02
3601.35
3628.27
3656.62
3686.12
3715.66
3746.69
3778.31
3810.06
3841.48
3872.21
3901.83
3929.9
3956.06
3979.9
4001.08
4019.28
4034.21
4045.68
4053.51
4057.58
4057.75
4054.04
4046.6
4035.51
4020.98
4003.28
3982.69
3959.54
3934.19
3907.01
3878.36
3848.65
3818.24
3787.51
3756.77
3726.35
3696.88
3668.01
3639.83
3612.65
3586.65
3561.98
3538.74
3517
3496.83
3478.26
3461.33
3446.04
3432.4
3420.41
3410.06
3401.34
3394.24
3388.74
3384.8
3496.99
3524.55
3553.82
3584.34
3607.67
3640.99
3675.21
3709.74
3744.24
3778.35
3811.62
3843.62
3873.94
3902.17
3927.95
3950.91
3970.74
3987.2
4000.06
4009.15
4014.37
4015.62
4012.88
4006.31
3995.96
3982.02
3964.73
3944.36
3921.21
3895.62
3867.94
3838.58
3807.92
3776.33
3744.17
3711.8
3679.52
3647.58
3616.31
3588.85
3559.93
3532.19
3505.81
3480.9
3457.52
3435.73
3415.55
3396.98
3380.01
3364.63
3350.8
3338.49
3327.67
3318.3
3310.36
3303.82
3298.65
3294.85
3292.39
3291.32
3291.6
3293.26
3296.33
3300.82
3306.75
3314.16
3323.06
3333.5
3345.49
3359.07
3374.22
3390.98
3409.33
3429.24
3450.69
3473.63
3498.02
3523.75
3550.73
3578.87
3608.45
3638.62
3669.44
3700.71
3732.19
3763.68
3794.91
3825.59
3855.42
3884.09
3911.27
3936.64
3959.86
3980.64
3998.69
4013.75
4025.59
4034.03
4038.93
4040.15
4037.65
4031.5
4021.63
4008.16
3991.23
3971.01
3947.75
3921.72
3893.24
3862.68
3830.42
3796.89
3762.51
3727.7
3692.86
3658.4
3624.65
3591.94
3560.51
3530.61
3502.39
3476
3451.53
3429.02
3408.51
3390.01
3373.48
3358.89
3346.2
3335.36
3326.28
3318.91
3313.17
3308.99
3306.28
3305.01
3305.1
3306.47
3309.12
3313.01
3318.13
3324.48
3332.09
3340.98
3351.19
3362.76
3375.74
3390.18
3406.14
3423.64
3442.73
3463.42
3485.73
3509.64
3535.12
3562.09
3590.48
3620.15
3650.97
3682.62
3714.89
3747.51
3780.13
3812.42
3843.97
3874.39
3903.25
3930.13
3954.6
3976.25
3994.7
4009.61
4020.68
4027.65
4030.36
4028.66
4022.63
4012.3
3997.78
3979.32
3957.22
3931.83
3903.56
3872.85
3840.18
3806.03
3770.88
3735.22
3699.49
3664.13
3629.54
3596.01
3563.84
3533.26
3504.43
3477.47
3452.47
3429.45
3408.41
3389.35
3372.22
3356.98
3343.56
3331.9
3321.93
3313.59
3306.81
3301.51
3297.65
3295.16
3294.02
3294.21
3295.67
3298.42
3302.47
3307.83
3314.53
3322.59
3332.07
3343
3355.43
3369.4
3384.97
3402.17
3421.02
3441.56
3463.77
3487.64
3513.13
3540.14
3568.58
3598.28
3629.09
3660.76
3692.98
3725.47
3757.86
3789.79
3820.85
3850.59
3878.6
3904.42
3927.65
3947.89
3964.78
3978.01
3987.33
3992.55
3993.53
3990.24
3982.78
3971.2
3955.69
3936.52
3914.01
3888.53
3860.49
3830.34
3798.53
3765.53
3731.81
3697.8
3663.9
3630.52
3597.96
3566.5
3536.39
3507.8
3480.88
3455.72
3432.39
3410.91
3391.29
3373.53
3357.58
3343.4
3330.95
3320.15
3310.96
3303.3
3297.11
3292.39
3289.06
3287.09
3286.42
3287
3288.81
3291.84
3296.09
3301.55
3308.24
3316.2
3325.45
3336.06
3348.1
3361.63
3376.73
3393.48
3411.93
3432.11
3454.03
3477.68
3503.02
3529.96
3558.32
3587.85
3617.39
3648.46
3680.13
3711.92
3743.39
3774.17
3803.84
3831.97
3858.18
3882.07
3903.3
3921.54
3936.51
3948
3955.84
3959.91
3960.1
3956.38
3948.92
3937.79
3923.23
3905.49
3884.85
3861.65
3836.26
3809.02
3780.33
3750.57
3720.12
3689.34
3658.58
3628.13
3598.64
3569.74
3541.55
3514.36
3488.35
3463.67
3440.42
3418.69
3398.52
3379.95
3363.02
3347.73
3334.09
3322.11
3311.76
3303.05
3295.95
3290.45
3286.51
3398.54
3426.11
3455.39
3485.96
3509.34
3542.71
3576.97
3611.55
3646.1
3680.28
3713.62
3745.69
3776.08
3804.39
3830.23
3853.25
3873.14
3889.64
3902.53
3911.65
3916.88
3918.15
3915.38
3908.78
3898.4
3884.42
3867.08
3846.64
3823.43
3797.77
3770.03
3740.6
3709.87
3678.22
3646.01
3613.59
3581.27
3549.31
3518.04
3490.45
3461.54
3433.8
3407.42
3382.5
3359.13
3337.34
3317.17
3298.6
3281.64
3266.27
3252.44
3240.14
3229.33
3219.97
3212.03
3205.49
3200.33
3196.53
3194.08
3193.01
3193.28
3194.94
3198.01
3202.49
3208.41
3215.81
3224.72
3235.14
3247.13
3260.7
3275.85
3292.61
3310.95
3330.86
3352.31
3375.26
3399.65
3425.39
3452.39
3480.56
3510.13
3540.33
3571.18
3602.48
3634
3665.53
3696.8
3727.53
3757.42
3786.15
3813.39
3838.81
3862.1
3882.93
3901.03
3916.13
3928.01
3936.48
3941.4
3942.63
3940.13
3933.96
3924.07
3910.57
3893.6
3873.33
3850.02
3823.92
3795.38
3764.74
3732.42
3698.81
3664.36
3629.49
3594.6
3560.08
3526.29
3493.54
3462.09
3432.17
3403.94
3377.55
3353.07
3330.57
3310.07
3291.57
3275.05
3260.48
3247.8
3236.97
3227.91
3220.55
3214.82
3210.66
3207.96
3206.7
3206.79
3208.17
3210.82
3214.71
3219.83
3226.18
3233.79
3242.67
3252.86
3264.42
3277.39
3291.83
3307.77
3325.26
3344.34
3365.03
3387.34
3411.25
3436.73
3463.71
3492.11
3521.8
3552.65
3584.33
3616.65
3649.31
3681.99
3714.34
3745.97
3776.46
3805.39
3832.34
3856.89
3878.61
3897.13
3912.1
3923.21
3930.22
3932.95
3931.24
3925.19
3914.83
3900.27
3881.75
3859.57
3834.1
3805.75
3774.96
3742.21
3707.97
3672.75
3637.01
3601.22
3565.8
3531.17
3497.6
3465.41
3434.81
3405.97
3379.01
3354.01
3330.99
3309.97
3290.92
3273.81
3258.57
3245.17
3233.52
3223.57
3215.24
3208.47
3203.19
3199.33
3196.85
3195.72
3195.9
3197.37
3200.12
3204.16
3209.52
3216.2
3224.26
3233.73
3244.65
3257.07
3271.03
3286.59
3303.78
3322.63
3343.16
3365.37
3389.24
3414.73
3441.75
3470.21
3499.94
3530.77
3562.48
3594.75
3627.29
3659.74
3691.74
3722.87
3752.69
3780.77
3806.67
3829.97
3850.28
3867.23
3880.51
3889.86
3895.11
3896.1
3892.8
3885.32
3873.69
3858.13
3838.9
3816.32
3790.76
3762.64
3732.4
3700.51
3667.44
3633.65
3599.57
3565.62
3532.19
3499.59
3468.11
3437.97
3409.38
3382.45
3357.29
3333.96
3312.49
3292.88
3275.12
3259.18
3245.02
3232.58
3221.8
3212.62
3204.96
3198.78
3194.07
3190.75
3188.79
3188.12
3188.71
3190.52
3193.55
3197.8
3203.26
3209.94
3217.89
3227.13
3237.73
3249.75
3263.27
3278.36
3295.09
3313.52
3333.69
3355.62
3379.27
3404.62
3431.57
3459.96
3489.53
3519.06
3550.19
3581.92
3613.77
3645.3
3676.16
3705.9
3734.09
3760.38
3784.34
3805.62
3823.92
3838.94
3850.46
3858.32
3862.4
3862.61
3858.87
3851.38
3840.21
3825.6
3807.8
3787.1
3763.83
3738.37
3711.07
3682.31
3652.49
3621.98
3591.16
3560.35
3529.87
3500.35
3471.43
3443.21
3416.01
3389.99
3365.3
3342.04
3320.3
3300.13
3281.57
3264.64
3249.35
3235.72
3223.74
3213.39
3204.69
3197.6
3192.1
3188.17
3299.99
3327.57
3356.88
3387.51
3410.96
3444.38
3478.69
3513.32
3547.95
3582.21
3615.64
3647.8
3678.29
3706.68
3732.6
3755.7
3775.66
3792.21
3805.15
3814.3
3819.55
3820.82
3818.04
3811.41
3800.98
3786.94
3769.53
3749.02
3725.73
3699.99
3672.16
3642.65
3611.84
3580.12
3547.84
3515.35
3482.99
3451
3419.71
3391.99
3363.09
3335.34
3308.95
3284.03
3260.66
3238.88
3218.71
3200.16
3183.2
3167.84
3154.02
3141.73
3130.93
3121.58
3113.65
3107.12
3101.96
3098.16
3095.72
3094.64
3094.91
3096.56
3099.63
3104.1
3110.02
3117.41
3126.31
3136.72
3148.71
3162.26
3177.41
3194.16
3212.5
3232.41
3253.87
3276.82
3301.22
3326.97
3353.99
3382.18
3411.75
3441.99
3472.88
3504.22
3535.79
3567.37
3598.7
3629.49
3659.45
3688.25
3715.56
3741.06
3764.41
3785.32
3803.48
3818.64
3830.57
3839.07
3844.01
3845.26
3842.76
3836.57
3826.65
3813.11
3796.09
3775.76
3752.37
3726.2
3697.57
3666.85
3634.43
3600.74
3566.2
3531.25
3496.29
3461.71
3427.87
3395.08
3363.6
3333.65
3305.41
3279
3254.52
3232.03
3211.54
3193.05
3176.54
3161.98
3149.32
3138.51
3129.46
3122.12
3116.41
3112.26
3109.58
3108.33
3108.43
3109.82
3112.47
3116.37
3121.48
3127.83
3135.43
3144.3
3154.48
3166.03
3178.99
3193.41
3209.34
3226.82
3245.89
3266.57
3288.87
3312.78
3338.26
3365.26
3393.67
3423.38
3454.28
3486
3518.37
3551.09
3583.84
3616.27
3647.98
3678.56
3707.59
3734.63
3759.27
3781.09
3799.69
3814.73
3825.9
3832.95
3835.69
3834
3827.93
3817.52
3802.9
3784.31
3762.04
3736.48
3708.02
3677.12
3644.26
3609.93
3574.6
3538.78
3502.91
3467.43
3432.73
3399.12
3366.9
3336.27
3307.42
3280.46
3255.46
3232.46
3211.45
3192.41
3175.31
3160.09
3146.7
3135.08
3125.14
3116.83
3110.07
3104.8
3100.96
3098.48
3097.36
3097.55
3099.01
3101.76
3105.8
3111.15
3117.83
3125.88
3135.33
3146.24
3158.65
3172.6
3188.14
3205.32
3224.16
3244.69
3266.89
3290.76
3316.26
3343.3
3371.77
3401.53
3432.4
3464.16
3496.48
3529.09
3561.62
3593.7
3624.92
3654.83
3683.01
3709.01
3732.4
3752.79
3769.82
3783.16
3792.56
3797.83
3798.83
3795.52
3788.01
3776.33
3760.71
3741.4
3718.73
3693.07
3664.85
3634.51
3602.52
3569.36
3535.47
3501.32
3467.3
3433.81
3401.16
3369.64
3339.48
3310.87
3283.93
3258.77
3235.45
3213.98
3194.38
3176.64
3160.71
3146.57
3134.15
3123.38
3114.21
3106.57
3100.4
3095.69
3092.39
3090.44
3089.78
3090.37
3092.19
3095.22
3099.46
3104.91
3111.59
3119.52
3128.75
3139.33
3151.34
3164.84
3179.91
3196.63
3215.05
3235.21
3257.12
3280.77
3306.13
3333.11
3361.54
3391.15
3420.67
3451.88
3483.68
3515.6
3547.22
3578.16
3607.99
3636.28
3662.65
3686.69
3708.06
3726.42
3741.5
3753.07
3760.95
3765.04
3765.26
3761.5
3753.97
3742.75
3728.08
3710.21
3689.44
3666.09
3640.54
3613.16
3584.32
3554.42
3523.84
3492.95
3462.09
3431.57
3402.01
3373.06
3344.82
3317.59
3291.55
3266.85
3243.59
3221.85
3201.68
3183.11
3166.19
3150.91
3137.28
3125.3
3114.96
3106.26
3099.18
3093.69
3089.76
3201.35
3228.96
3258.29
3288.98
3312.52
3346
3380.37
3415.08
3449.79
3484.15
3517.69
3549.96
3580.55
3609.05
3635.07
3658.27
3678.3
3694.92
3707.92
3717.11
3722.37
3723.64
3720.86
3714.17
3703.69
3689.59
3672.1
3651.49
3628.11
3602.26
3574.34
3544.73
3513.82
3482.01
3449.65
3417.09
3384.67
3352.64
3321.34
3293.46
3264.56
3236.81
3210.41
3185.49
3162.12
3140.34
3120.18
3101.64
3084.7
3069.34
3055.54
3043.26
3032.47
3023.13
3015.21
3008.69
3003.53
2999.74
2997.3
2996.22
2996.49
2998.14
3001.19
3005.66
3011.56
3018.95
3027.83
3038.24
3050.21
3063.76
3078.9
3095.65
3113.99
3133.9
3155.36
3178.32
3202.72
3228.48
3255.53
3283.75
3313.31
3343.6
3374.54
3405.92
3437.55
3469.19
3500.59
3531.46
3561.5
3590.38
3617.78
3643.37
3666.82
3687.8
3706.04
3721.27
3733.25
3741.8
3746.76
3748.03
3745.53
3739.32
3729.37
3715.79
3698.7
3678.3
3654.83
3628.55
3599.82
3568.99
3536.47
3502.67
3468.03
3432.98
3397.93
3363.28
3329.38
3296.54
3265.02
3235.04
3206.78
3180.37
3155.89
3133.4
3112.92
3094.44
3077.95
3063.41
3050.77
3039.97
3030.95
3023.63
3017.94
3013.8
3011.15
3009.91
3010.02
3011.42
3014.08
3017.97
3023.09
3029.43
3037.02
3045.87
3056.05
3067.58
3080.52
3094.92
3110.84
3128.3
3147.36
3168.03
3190.33
3214.24
3239.72
3266.73
3295.17
3324.9
3355.85
3387.62
3420.05
3452.85
3485.68
3518.2
3550.01
3580.7
3609.84
3637
3661.76
3683.68
3702.38
3717.51
3728.74
3735.84
3738.61
3736.93
3730.84
3720.38
3705.69
3687
3664.63
3638.94
3610.36
3579.33
3546.35
3511.89
3476.45
3440.52
3404.55
3368.99
3334.23
3300.57
3268.3
3237.65
3208.79
3181.82
3156.83
3133.83
3112.83
3093.82
3076.73
3061.54
3048.17
3036.56
3026.65
3018.35
3011.61
3006.36
3002.53
3000.07
2998.95
2999.14
3000.6
3003.35
3007.39
3012.73
3019.4
3027.43
3036.88
3047.77
3060.16
3074.1
3089.63
3106.79
3125.62
3146.13
3168.34
3192.21
3217.71
3244.76
3273.26
3303.06
3333.97
3365.79
3398.18
3430.86
3463.49
3495.67
3526.99
3557.02
3585.32
3611.43
3634.94
3655.43
3672.54
3685.96
3695.42
3700.71
3701.73
3698.42
3690.86
3679.13
3663.42
3644.02
3621.24
3595.47
3567.12
3536.66
3504.55
3471.27
3437.28
3403.03
3368.93
3335.37
3302.66
3271.1
3240.91
3212.28
3185.33
3160.17
3136.85
3115.39
3095.81
3078.08
3062.17
3048.05
3035.64
3024.89
3015.74
3008.12
3001.97
2997.26
2993.97
2992.04
2991.39
2991.98
2993.8
2996.83
3001.07
3006.52
3013.19
3021.11
3030.32
3040.88
3052.87
3066.34
3081.39
3098.09
3116.49
3136.64
3158.55
3182.2
3207.57
3234.57
3263.04
3292.72
3322.22
3353.52
3385.41
3417.43
3449.14
3480.19
3510.12
3538.52
3564.99
3589.14
3610.6
3629.04
3644.19
3655.81
3663.73
3667.83
3668.05
3664.28
3656.71
3645.43
3630.68
3612.73
3591.86
3568.41
3542.77
3515.28
3486.35
3456.36
3425.69
3394.72
3363.8
3333.22
3303.62
3274.63
3246.36
3219.11
3193.05
3168.34
3145.07
3123.32
3103.15
3084.59
3067.67
3052.39
3038.77
3026.8
3016.47
3007.77
3000.69
2995.21
2991.29
3102.63
3130.25
3159.61
3190.37
3214.02
3247.58
3282.02
3316.8
3351.61
3386.09
3419.76
3452.16
3482.88
3511.5
3537.64
3560.94
3581.07
3597.77
3610.83
3620.06
3625.34
3626.61
3623.82
3617.09
3606.54
3592.36
3574.78
3554.06
3530.56
3504.61
3476.56
3446.83
3415.81
3383.89
3351.44
3318.8
3286.31
3254.23
3222.91
3194.86
3165.96
3138.2
3111.8
3086.87
3063.5
3041.73
3021.58
3003.05
2986.12
2970.78
2957
2944.73
2933.95
2924.62
2916.71
2910.2
2905.05
2901.27
2898.83
2897.74
2898.01
2899.65
2902.7
2907.16
2913.05
2920.43
2929.3
2939.69
2951.66
2965.2
2980.33
2997.07
3015.4
3035.31
3056.77
3079.74
3104.15
3129.93
3157
3185.27
3214.82
3245.17
3276.15
3307.6
3339.29
3371
3402.48
3433.44
3463.57
3492.56
3520.06
3545.75
3569.3
3590.39
3608.71
3624.02
3636.07
3644.66
3649.66
3650.94
3648.45
3642.22
3632.23
3618.59
3601.43
3580.95
3557.37
3530.99
3502.13
3471.18
3438.53
3404.6
3369.84
3334.68
3299.54
3264.8
3230.82
3197.92
3166.36
3136.35
3108.07
3081.65
3057.17
3034.68
3014.21
2995.75
2979.28
2964.76
2952.14
2941.37
2932.37
2925.07
2919.41
2915.29
2912.65
2911.43
2911.55
2912.97
2915.63
2919.53
2924.64
2930.97
2938.55
2947.4
2957.55
2969.07
2981.99
2996.38
3012.27
3029.72
3048.77
3069.43
3091.71
3115.62
3141.11
3168.14
3196.59
3226.36
3257.37
3289.2
3321.7
3354.58
3387.51
3420.14
3452.07
3482.89
3512.16
3539.45
3564.34
3586.39
3605.21
3620.43
3631.75
3638.91
3641.71
3640.04
3633.91
3623.39
3608.62
3589.83
3567.33
3541.51
3512.77
3481.6
3448.46
3413.86
3378.29
3342.23
3306.15
3270.5
3235.65
3201.93
3169.62
3138.94
3110.06
3083.09
3058.1
3035.12
3014.14
2995.14
2978.08
2962.91
2949.56
2937.98
2928.09
2919.82
2913.1
2907.86
2904.05
2901.6
2900.48
2900.68
2902.15
2904.89
2908.92
2914.25
2920.91
2928.93
2938.36
2949.24
2961.61
2975.53
2991.04
3008.19
3027.01
3047.51
3069.71
3093.58
3119.09
3146.16
3174.69
3204.52
3235.48
3267.38
3299.85
3332.62
3365.35
3397.65
3429.1
3459.27
3487.69
3513.94
3537.58
3558.19
3575.41
3588.91
3598.43
3603.77
3604.8
3601.47
3593.87
3582.07
3566.27
3546.76
3523.85
3497.94
3469.46
3438.85
3406.6
3373.19
3339.07
3304.71
3270.51
3236.87
3204.1
3172.49
3142.26
3113.6
3086.65
3061.48
3038.17
3016.72
2997.15
2979.45
2963.56
2949.45
2937.07
2926.34
2917.22
2909.62
2903.47
2898.77
2895.51
2893.59
2892.95
2893.55
2895.38
2898.41
2902.64
2908.08
2914.73
2922.64
2931.83
2942.37
2954.33
2967.78
2982.8
2999.48
3017.86
3037.99
3059.89
3083.55
3108.93
3135.96
3164.48
3194.23
3223.71
3255.12
3287.11
3319.24
3351.06
3382.23
3412.29
3440.81
3467.41
3491.68
3513.25
3531.79
3547.01
3558.7
3566.66
3570.78
3571
3567.21
3559.58
3548.23
3533.39
3515.35
3494.37
3470.81
3445.04
3417.44
3388.39
3358.3
3327.53
3296.47
3265.47
3234.84
3205.18
3176.15
3147.85
3120.56
3094.48
3069.75
3046.47
3024.72
3004.55
2985.99
2969.07
2953.81
2940.19
2928.23
2917.9
2909.22
2902.14
2896.67
2892.75
3003.81
3031.45
3060.85
3091.67
3115.48
3149.12
3183.63
3218.5
3253.43
3288.04
3321.85
3354.4
3385.27
3414.03
3440.3
3463.72
3483.96
3500.76
3513.89
3523.17
3528.47
3529.75
3526.94
3520.15
3509.53
3495.26
3477.56
3456.73
3433.1
3407.01
3378.83
3348.97
3317.82
3285.78
3253.22
3220.48
3187.91
3155.78
3124.42
3096.2
3067.3
3039.52
3013.11
2988.18
2964.81
2943.05
2922.91
2904.39
2887.48
2872.15
2858.39
2846.14
2835.37
2826.06
2818.16
2811.66
2806.52
2802.74
2800.3
2799.21
2799.47
2801.11
2804.15
2808.6
2814.48
2821.84
2830.7
2841.08
2853.03
2866.56
2881.68
2898.42
2916.75
2936.65
2958.12
2981.1
3005.52
3031.32
3058.41
3086.72
3116.27
3146.68
3177.73
3209.24
3241.01
3272.8
3304.37
3335.43
3365.67
3394.77
3422.4
3448.21
3471.87
3493.07
3511.5
3526.89
3539.02
3547.67
3552.71
3554.01
3551.52
3545.26
3535.23
3521.53
3504.29
3483.7
3460.01
3433.49
3404.5
3373.4
3340.61
3306.54
3271.65
3236.36
3201.1
3166.26
3132.2
3099.23
3067.61
3037.57
3009.27
2982.83
2958.35
2935.88
2915.42
2896.98
2880.53
2866.03
2853.44
2842.69
2833.72
2826.45
2820.81
2816.72
2814.11
2812.9
2813.04
2814.46
2817.14
2821.03
2826.14
2832.47
2840.04
2848.87
2859.01
2870.5
2883.4
2897.76
2913.64
2931.07
2950.1
2970.74
2993.03
3016.93
3042.43
3069.47
3097.95
3127.75
3158.83
3190.72
3223.3
3256.28
3289.33
3322.08
3354.15
3385.11
3414.53
3441.98
3467.02
3489.21
3508.17
3523.51
3534.92
3542.14
3544.98
3543.31
3537.16
3526.57
3511.7
3492.79
3470.15
3444.16
3415.26
3383.92
3350.61
3315.84
3280.11
3243.91
3207.71
3171.94
3137.01
3103.22
3070.86
3040.14
3011.24
2984.27
2959.28
2936.31
2915.36
2896.38
2879.35
2864.2
2850.89
2839.33
2829.46
2821.22
2814.52
2809.31
2805.51
2803.08
2801.97
2802.17
2803.64
2806.38
2810.4
2815.72
2822.37
2830.38
2839.79
2850.64
2863
2876.9
2892.39
2909.52
2928.32
2948.81
2971
2994.87
3020.39
3047.49
3076.04
3105.92
3136.94
3168.92
3201.48
3234.36
3267.21
3299.64
3331.24
3361.55
3390.14
3416.54
3440.33
3461.08
3478.42
3492.02
3501.61
3506.99
3508.04
3504.7
3497.04
3485.16
3469.26
3449.62
3426.57
3400.5
3371.85
3341.08
3308.67
3275.1
3240.85
3206.36
3172.05
3138.31
3105.47
3073.8
3043.53
3014.85
2987.88
2962.71
2939.4
2917.97
2898.42
2880.73
2864.87
2850.79
2838.43
2827.73
2818.63
2811.05
2804.93
2800.22
2796.99
2795.09
2794.47
2795.07
2796.9
2799.93
2804.16
2809.59
2816.23
2824.12
2833.29
2843.8
2855.73
2869.16
2884.15
2900.8
2919.16
2939.27
2961.16
2984.82
3010.22
3037.27
3065.84
3095.69
3125.14
3156.67
3188.79
3221.03
3252.99
3284.29
3314.5
3343.16
3369.91
3394.31
3416
3434.66
3449.97
3461.73
3469.74
3473.88
3474.1
3470.28
3462.59
3451.16
3436.23
3418.07
3396.97
3373.27
3347.37
3319.64
3290.46
3260.24
3229.36
3198.2
3167.1
3136.41
3106.69
3077.62
3049.27
3021.95
2995.84
2971.1
2947.81
2926.05
2905.88
2887.32
2870.41
2855.15
2841.54
2829.59
2819.27
2810.59
2803.53
2798.06
2794.16
2904.91
2932.57
2962
2992.9
3016.88
3050.61
3085.2
3120.17
3155.22
3189.99
3223.97
3256.68
3287.71
3316.63
3343.05
3366.61
3386.98
3403.88
3417.09
3426.43
3431.76
3433.03
3430.2
3423.36
3412.65
3398.28
3380.47
3359.5
3335.72
3309.48
3281.14
3251.13
3219.84
3187.66
3154.98
3122.13
3089.47
3057.27
3025.88
2997.48
2968.56
2940.77
2914.35
2889.42
2866.05
2844.29
2824.16
2805.66
2788.76
2773.46
2759.71
2747.48
2736.74
2727.44
2719.55
2713.06
2707.93
2704.15
2701.72
2700.63
2700.89
2702.52
2705.55
2709.99
2715.85
2723.2
2732.04
2742.41
2754.35
2767.86
2782.97
2799.7
2818.02
2837.93
2859.4
2882.38
2906.82
2932.64
2959.76
2988.1
3017.68
3048.16
3079.27
3110.85
3142.7
3174.58
3206.26
3237.43
3267.79
3297.02
3324.78
3350.73
3374.52
3395.85
3414.39
3429.89
3442.1
3450.82
3455.9
3457.22
3454.73
3448.44
3438.37
3424.59
3407.26
3386.56
3362.74
3336.08
3306.93
3275.67
3242.71
3208.48
3173.43
3138
3102.61
3067.66
3033.51
3000.46
2968.79
2938.7
2910.38
2883.93
2859.45
2836.98
2816.54
2798.12
2781.69
2767.23
2754.66
2743.94
2735
2727.76
2722.15
2718.09
2715.5
2714.32
2714.48
2715.91
2718.59
2722.49
2727.6
2733.92
2741.47
2750.29
2760.4
2771.87
2784.75
2799.09
2814.94
2832.35
2851.36
2871.99
2894.26
2918.16
2943.67
2970.73
2999.24
3029.08
3060.24
3092.2
3124.87
3157.96
3191.14
3224.03
3256.25
3287.37
3316.97
3344.59
3369.8
3392.16
3411.26
3426.73
3438.25
3445.55
3448.43
3446.77
3440.57
3429.91
3414.93
3395.88
3373.08
3346.92
3317.83
3286.29
3252.79
3217.84
3181.93
3145.57
3109.22
3073.33
3038.3
3004.43
2972.01
2941.25
2912.33
2885.35
2860.38
2837.42
2816.49
2797.54
2780.54
2765.42
2752.14
2740.61
2730.77
2722.55
2715.89
2710.7
2706.92
2704.5
2703.41
2703.61
2705.08
2707.82
2711.83
2717.14
2723.77
2731.76
2741.15
2751.99
2764.32
2778.19
2793.66
2810.77
2829.55
2850.03
2872.21
2896.09
2921.62
2948.74
2977.33
3007.26
3038.34
3070.41
3103.07
3136.07
3169.06
3201.65
3233.4
3263.89
3292.65
3319.23
3343.18
3364.09
3381.56
3395.28
3404.95
3410.39
3411.45
3408.09
3400.38
3388.41
3372.39
3352.6
3329.39
3303.15
3274.31
3243.36
3210.76
3177.02
3142.61
3107.97
3073.54
3039.69
3006.76
2975.03
2944.72
2916.01
2889.03
2863.86
2840.55
2819.14
2799.61
2781.94
2766.11
2752.06
2739.73
2729.05
2719.98
2712.43
2706.32
2701.62
2698.42
2696.55
2695.93
2696.55
2698.38
2701.41
2705.63
2711.05
2717.68
2725.54
2734.69
2745.17
2757.07
2770.46
2785.42
2802.04
2820.38
2840.47
2862.35
2886
2911.42
2938.5
2967.13
2997.09
3026.51
3058.18
3090.43
3122.81
3154.92
3186.37
3216.74
3245.57
3272.47
3297.03
3318.87
3337.65
3353.07
3364.9
3372.96
3377.13
3377.35
3373.5
3365.75
3354.23
3339.18
3320.89
3299.66
3275.81
3249.76
3221.88
3192.55
3162.19
3131.18
3099.9
3068.71
3037.94
3008.15
2979.03
2950.64
2923.27
2897.14
2872.37
2849.07
2827.31
2807.14
2788.59
2771.68
2756.42
2742.83
2730.88
2720.58
2711.91
2704.86
2699.4
2695.5
2805.91
2833.6
2863.06
2894.04
2918.24
2952.06
2986.72
3021.81
3057.01
3091.95
3126.11
3159.01
3190.22
3219.32
3245.9
3269.62
3290.12
3307.14
3320.45
3329.84
3335.21
3336.48
3333.62
3326.71
3315.92
3301.43
3283.48
3262.36
3238.42
3212.01
3183.5
3153.32
3121.86
3089.54
3056.72
3023.75
2990.99
2958.71
2927.28
2898.7
2869.76
2841.95
2815.51
2790.57
2767.21
2745.46
2725.34
2706.86
2689.98
2674.7
2660.97
2648.77
2638.04
2628.76
2620.89
2614.4
2609.29
2605.52
2603.09
2602
2602.25
2603.87
2606.89
2611.31
2617.17
2624.5
2633.32
2643.67
2655.59
2669.09
2684.19
2700.91
2719.23
2739.13
2760.61
2783.6
2808.05
2833.89
2861.05
2889.43
2919.03
2949.58
2980.76
3012.42
3044.36
3076.35
3108.14
3139.44
3169.94
3199.31
3227.22
3253.32
3277.26
3298.72
3317.4
3333.01
3345.31
3354.1
3359.23
3360.58
3358.1
3351.78
3341.64
3327.79
3310.35
3289.53
3265.56
3238.74
3209.42
3177.98
3144.84
3110.43
3075.21
3039.61
3004.08
2969
2934.75
2901.62
2869.88
2839.75
2811.4
2784.94
2760.46
2738
2717.57
2699.17
2682.78
2668.34