/*--------------------------------*- C++ -*----------------------------------*\
| =========                 |                                                 |
| \\      /  F ield         | OpenFOAM: The Open Source CFD Toolbox           |
|  \\    /   O peration     | Version:  3.0.1                                 |
|   \\  /    A nd           | Web:      www.OpenFOAM.org                      |
|    \\/     M anipulation  |                                                 |
\*---------------------------------------------------------------------------*/
FoamFile
{
    version     2.0;
    format      ascii;
    class       volScalarField;
    location    "29.2";
    object      p;
}
// * * * * * * * * * * * * * * * * * * * * * * * * * * * * * * * * * * * * * //

dimensions      [1 -1 -2 0 0 0 0];

internalField   nonuniform List<scalar> 
21420
(
3768.48
3796.6
3826.23
3854.64
3886.59
3920.2
3954.53
3989.03
4023.26
4056.84
4089.26
4120.08
4148.91
4175.31
4198.91
4219.38
4236.4
4249.73
4259.17
4264.57
4265.76
4262.67
4255.42
4244.17
4229.03
4210.24
4188.08
4162.84
4134.91
4104.68
4072.54
4038.96
4004.34
3969.14
3933.75
3898.56
3863.91
3830.5
3798.31
3767.11
3737.21
3708.84
3682.13
3657.21
3634.11
3612.86
3593.48
3575.93
3560.19
3546.22
3533.98
3523.4
3514.44
3507.06
3501.22
3496.87
3493.97
3492.54
3492.67
3494.31
3497.44
3502.08
3508.25
3515.96
3525.25
3536.16
3548.71
3562.92
3578.84
3596.44
3615.77
3636.79
3659.5
3683.83
3709.74
3737.15
3765.91
3795.33
3824.48
3854.95
3886.29
3918.09
3950.04
3981.76
4012.87
4043.03
4071.81
4098.79
4123.6
4145.85
4165.16
4181.24
4193.8
4202.6
4207.49
4208.27
4204.99
4197.62
4186.27
4170.99
4152.01
4129.57
4103.99
4075.62
4044.86
4012.13
3977.88
3942.59
3906.71
3870.71
3835
3799.99
3766.01
3733.38
3702.32
3673.02
3645.62
3620.22
3596.85
3575.54
3556.26
3538.98
3523.63
3510.16
3498.48
3488.53
3480.24
3473.51
3468.31
3464.55
3462.17
3461.14
3461.44
3462.97
3465.74
3469.72
3474.91
3481.31
3488.94
3497.81
3507.96
3519.42
3532.26
3546.52
3562.24
3579.5
3598.33
3618.78
3640.86
3664.57
3689.89
3716.76
3745.1
3774.83
3805.64
3837.38
3869.81
3902.63
3935.5
3968.08
3999.95
4030.73
4059.96
4087.24
4112.13
4134.22
4153.13
4168.53
4180.13
4187.71
4191.08
4190.17
4185.01
4175.7
4162.31
4145.11
4124.39
4100.5
4073.84
4044.83
4013.94
3981.62
3948.35
3914.57
3880.7
3847.14
3814.25
3782.34
3751.73
3722.5
3694.89
3669.02
3644.97
3622.78
3602.46
3584
3567.35
3552.46
3539.27
3527.71
3517.71
3509.2
3502.13
3496.44
3492.09
3489.05
3487.28
3486.77
3487.51
3489.53
3492.77
3497.28
3503.07
3510.17
3518.6
3528.41
3539.63
3552.3
3566.49
3582.21
3599.51
3618.43
3638.96
3661.11
3684.87
3710.18
3736.98
3765.14
3794.53
3825.09
3856.4
3888.33
3920.57
3952.82
3984.74
4015.94
4046.06
4074.68
4101.42
4125.89
4147.71
4166.54
4182.07
4194.03
4202.2
4206.45
4206.6
4202.76
4194.89
4183.11
4167.6
4148.59
4126.38
4101.3
4073.74
4044.12
4012.86
3980.41
3947.21
3913.7
3880.28
3847.33
3815.19
3784.19
3754.56
3726.53
3700.25
3675.86
3653.45
3633.05
3614.7
3598.38
3584.05
3571.67
3561.18
3552.49
3545.52
3540.15
3536.23
3533.72
3532.6
3532.69
3534.1
3536.65
3540.39
3545.29
3551.33
3558.55
3566.94
3576.56
3587.46
3599.68
3613.3
3628.37
3644.96
3663.13
3682.93
3704.39
3727.56
3752.39
3778.84
3806.83
3836.28
3867.08
3898.85
3931.35
3964.34
3997.48
4030.42
4062.78
4094.15
4124.18
4152.48
4178.66
4202.4
4223.38
4241.32
4256
4267.2
4274.79
4278.66
4278.68
4274.83
4267.24
4255.94
4241.16
4223.11
4202.08
4178.37
4152.31
4124.3
4094.69
4063.85
4032.21
4000.13
3967.97
3936.1
3904.8
3874.68
3845.7
3817.39
3790.27
3764.53
3740.34
3717.76
3696.88
3677.73
3660.33
3644.68
3630.78
3618.61
3608.15
3599.37
3592.23
3586.7
3582.73
3580.28
3670.29
3698.42
3728.04
3756.49
3788.44
3822.05
3856.4
3890.91
3925.16
3958.76
3991.2
4022.04
4050.88
4077.3
4100.92
4121.41
4138.44
4151.78
4161.23
4166.64
4167.84
4164.73
4157.47
4146.22
4131.06
4112.26
4090.08
4064.83
4036.89
4006.64
3974.48
3940.87
3906.24
3871.02
3835.62
3800.41
3765.76
3732.33
3700.14
3668.94
3639.03
3610.66
3583.95
3559.02
3535.92
3514.68
3495.3
3477.76
3462.02
3448.05
3435.81
3425.23
3416.28
3408.9
3403.06
3398.71
3395.82
3394.38
3394.51
3396.15
3399.28
3403.92
3410.09
3417.8
3427.09
3438
3450.54
3464.76
3480.67
3498.27
3517.6
3538.62
3561.33
3585.66
3611.57
3638.99
3667.75
3697.17
3726.33
3756.81
3788.16
3819.97
3851.93
3883.66
3914.79
3944.97
3973.76
4000.76
4025.59
4047.85
4067.18
4083.27
4095.84
4104.65
4109.54
4110.34
4107.05
4099.68
4088.32
4073.03
4054.03
4031.58
4005.98
3977.59
3946.81
3914.06
3879.79
3844.48
3808.59
3772.57
3736.85
3701.82
3667.84
3635.2
3604.13
3574.83
3547.43
3522.03
3498.66
3477.35
3458.08
3440.79
3425.45
3411.99
3400.31
3390.37
3382.07
3375.35
3370.15
3366.39
3364.02
3362.99
3363.28
3364.82
3367.59
3371.57
3376.76
3383.16
3390.78
3399.65
3409.8
3421.27
3434.1
3448.35
3464.08
3481.33
3500.16
3520.6
3542.68
3566.39
3591.71
3618.59
3646.93
3676.66
3707.48
3739.23
3771.67
3804.5
3837.39
3869.98
3901.87
3932.66
3961.92
3989.22
4014.12
4036.23
4055.16
4070.58
4082.19
4089.77
4093.16
4092.23
4087.07
4077.75
4064.35
4047.14
4026.4
4002.49
3975.81
3946.78
3915.87
3883.53
3850.24
3816.44
3782.56
3748.99
3716.09
3684.16
3653.55
3624.32
3596.71
3570.83
3546.78
3524.59
3504.28
3485.82
3469.17
3454.28
3441.1
3429.54
3419.54
3411.04
3403.97
3398.29
3393.94
3390.9
3389.13
3388.62
3389.36
3391.38
3394.62
3399.13
3404.92
3412.02
3420.45
3430.25
3441.47
3454.14
3468.32
3484.04
3501.34
3520.25
3540.79
3562.94
3586.7
3612.01
3638.81
3666.97
3696.37
3726.93
3758.26
3790.19
3822.45
3854.71
3886.64
3917.86
3947.99
3976.63
4003.39
4027.88
4049.71
4068.56
4084.1
4096.07
4104.26
4108.51
4108.67
4104.81
4096.93
4085.16
4069.63
4050.6
4028.37
4003.28
3975.7
3946.06
3914.78
3882.31
3849.1
3815.57
3782.13
3749.17
3717.03
3686.01
3656.38
3628.34
3602.06
3577.67
3555.26
3534.87
3516.52
3500.2
3485.87
3473.5
3463.01
3454.33
3447.36
3441.99
3438.09
3435.58
3434.47
3434.55
3435.96
3438.51
3442.25
3447.15
3453.2
3460.41
3468.8
3478.42
3489.31
3501.53
3515.14
3530.21
3546.8
3564.97
3584.76
3606.22
3629.39
3654.22
3680.67
3708.66
3738.11
3768.92
3800.7
3833.21
3866.21
3899.36
3932.31
3964.69
3996.08
4026.13
4054.44
4080.64
4104.39
4125.39
4143.35
4158.03
4169.24
4176.83
4180.71
4180.72
4176.87
4169.28
4157.97
4143.18
4125.11
4104.07
4080.35
4054.27
4026.24
3996.61
3965.76
3934.1
3902.01
3869.84
3837.96
3806.64
3776.52
3747.54
3719.22
3692.09
3666.36
3642.16
3619.58
3598.7
3579.56
3562.15
3546.51
3532.61
3520.44
3509.99
3501.2
3494.07
3488.54
3484.57
3482.12
3572.01
3600.15
3629.78
3658.29
3690.24
3723.87
3758.24
3792.78
3827.07
3860.69
3893.18
3924.05
3952.93
3979.38
4003.04
4023.56
4040.61
4053.97
4063.44
4068.86
4070.09
4066.94
4059.68
4048.41
4033.24
4014.41
3992.2
3966.91
3938.93
3908.64
3876.44
3842.8
3808.13
3772.89
3737.45
3702.22
3667.55
3634.1
3601.9
3570.69
3540.77
3512.39
3485.68
3460.76
3437.66
3416.42
3397.04
3379.5
3363.77
3349.81
3337.57
3327
3318.05
3310.68
3304.84
3300.49
3297.6
3296.17
3296.3
3297.94
3301.07
3305.7
3311.87
3319.58
3328.86
3339.77
3352.31
3366.52
3382.43
3400.03
3419.35
3440.38
3463.09
3487.42
3513.34
3540.76
3569.53
3598.96
3628.13
3658.63
3690
3721.83
3753.81
3785.57
3816.73
3846.94
3875.76
3902.8
3927.66
3949.96
3969.32
3985.44
3998.03
4006.86
4011.76
4012.58
4009.26
4001.89
3990.52
3975.21
3956.18
3933.7
3908.07
3879.64
3848.82
3816.02
3781.72
3746.37
3710.44
3674.39
3638.64
3603.59
3569.59
3536.94
3505.86
3476.55
3449.15
3423.74
3400.38
3379.07
3359.81
3342.53
3327.2
3313.74
3302.07
3292.13
3283.84
3277.13
3271.93
3268.18
3265.81
3264.79
3265.08
3266.62
3269.39
3273.37
3278.56
3284.96
3292.58
3301.45
3311.59
3323.05
3335.88
3350.13
3365.85
3383.09
3401.92
3422.36
3444.43
3468.14
3493.46
3520.34
3548.7
3578.43
3609.27
3641.04
3673.49
3706.35
3739.26
3771.88
3803.81
3834.64
3863.94
3891.27
3916.21
3938.36
3957.32
3972.77
3984.4
3992
3995.4
3994.46
3989.29
3979.96
3966.54
3949.29
3928.52
3904.58
3877.85
3848.79
3817.83
3785.46
3752.13
3718.3
3684.39
3650.79
3617.87
3585.92
3555.3
3526.06
3498.44
3472.56
3448.51
3426.33
3406.02
3387.56
3370.92
3356.04
3342.86
3331.31
3321.32
3312.82
3305.76
3300.08
3295.73
3292.69
3290.93
3290.42
3291.17
3293.18
3296.42
3300.93
3306.72
3313.81
3322.24
3332.04
3343.25
3355.92
3370.09
3385.81
3403.11
3422.01
3442.54
3464.7
3488.46
3513.77
3540.57
3568.74
3598.15
3628.72
3660.07
3692.02
3724.3
3756.59
3788.55
3819.8
3849.96
3878.64
3905.43
3929.95
3951.82
3970.7
3986.27
3998.26
4006.46
4010.72
4010.9
4007.02
3999.14
3987.34
3971.79
3952.74
3930.47
3905.34
3877.73
3848.04
3816.73
3784.22
3750.97
3717.41
3683.94
3650.96
3618.79
3587.76
3558.12
3530.07
3503.78
3479.39
3456.98
3436.59
3418.25
3401.93
3387.61
3375.25
3364.77
3356.1
3349.15
3343.79
3339.9
3337.41
3336.3
3336.37
3337.78
3340.34
3344.09
3348.98
3355.03
3362.24
3370.62
3380.24
3391.12
3403.33
3416.94
3431.99
3448.57
3466.74
3486.53
3507.98
3531.14
3555.97
3582.43
3610.42
3639.88
3670.7
3702.49
3735.02
3768.05
3801.22
3834.21
3866.62
3898.04
3928.12
3956.47
3982.7
4006.48
4027.51
4045.49
4060.19
4071.42
4079.02
4082.91
4082.93
4079.06
4071.46
4060.13
4045.32
4027.22
4006.15
3982.4
3956.29
3928.22
3898.56
3867.68
3835.99
3803.87
3771.67
3739.77
3708.43
3678.31
3649.31
3620.98
3593.85
3568.11
3543.91
3521.33
3500.45
3481.3
3463.9
3448.26
3434.37
3422.2
3411.75
3402.97
3395.84
3390.31
3386.35
3383.9
3473.65
3501.8
3531.43
3560.04
3591.99
3625.64
3660.05
3694.63
3728.97
3762.65
3795.19
3826.13
3855.06
3881.56
3905.27
3925.83
3942.93
3956.32
3965.81
3971.24
3972.5
3969.32
3962.05
3950.75
3935.55
3916.67
3894.42
3869.08
3841.04
3810.7
3778.44
3744.74
3710.03
3674.73
3639.25
3603.98
3569.28
3535.81
3503.59
3472.36
3442.43
3414.04
3387.33
3362.4
3339.31
3318.08
3298.7
3281.17
3265.45
3251.5
3239.27
3228.71
3219.76
3212.4
3206.56
3202.22
3199.33
3197.91
3198.03
3199.67
3202.79
3207.43
3213.59
3221.29
3230.57
3241.47
3254.01
3268.22
3284.12
3301.72
3321.04
3342.06
3364.78
3389.11
3415.03
3442.46
3471.25
3500.7
3529.88
3560.41
3591.8
3623.67
3655.69
3687.48
3718.69
3748.94
3777.82
3804.9
3829.81
3852.17
3871.57
3887.73
3900.36
3909.21
3914.13
3914.97
3911.64
3904.25
3892.86
3877.52
3858.46
3835.93
3810.24
3781.76
3750.87
3718.02
3683.66
3648.25
3612.27
3576.17
3540.38
3505.29
3471.26
3438.59
3407.49
3378.18
3350.77
3325.37
3302.01
3280.71
3261.45
3244.19
3228.87
3215.42
3203.76
3193.83
3185.55
3178.85
3173.66
3169.91
3167.55
3166.54
3166.83
3168.38
3171.15
3175.13
3180.32
3186.72
3194.33
3203.19
3213.33
3224.78
3237.6
3251.84
3267.55
3284.79
3303.61
3324.04
3346.11
3369.82
3395.14
3422.03
3450.39
3480.14
3511
3542.79
3575.28
3608.17
3641.13
3673.79
3705.78
3736.66
3766.01
3793.4
3818.4
3840.6
3859.62
3875.1
3886.77
3894.39
3897.81
3896.87
3891.68
3882.32
3868.87
3851.58
3830.76
3806.76
3779.97
3750.84
3719.83
3687.4
3654.01
3620.13
3586.17
3552.54
3519.58
3487.61
3456.98
3427.72
3400.09
3374.21
3350.16
3327.98
3307.67
3289.23
3272.59
3257.73
3244.56
3233.02
3223.04
3214.55
3207.49
3201.82
3197.48
3194.44
3192.68
3192.17
3192.92
3194.93
3198.17
3202.68
3208.46
3215.55
3223.97
3233.76
3244.97
3257.63
3271.8
3287.51
3304.8
3323.7
3344.23
3366.38
3390.14
3415.46
3442.26
3470.45
3499.88
3530.46
3561.83
3593.81
3626.13
3658.46
3690.46
3721.76
3751.97
3780.7
3807.55
3832.12
3854.04
3872.96
3888.57
3900.59
3908.82
3913.09
3913.29
3909.38
3901.49
3889.66
3874.08
3854.98
3832.67
3807.48
3779.81
3750.07
3718.69
3686.13
3652.83
3619.22
3585.71
3552.69
3520.49
3489.44
3459.77
3431.71
3405.41
3381.02
3358.62
3338.23
3319.89
3303.59
3289.28
3276.93
3266.47
3257.81
3250.87
3245.53
3241.66
3239.2
3238.09
3238.15
3239.57
3242.14
3245.88
3250.78
3256.82
3264.03
3272.41
3282.01
3292.89
3305.09
3318.68
3333.72
3350.29
3368.44
3388.22
3409.67
3432.82
3457.65
3484.11
3512.11
3541.57
3572.42
3604.24
3636.79
3669.85
3703.07
3736.1
3768.55
3800.03
3830.16
3858.56
3884.84
3908.67
3929.73
3947.75
3962.49
3973.74
3981.35
3985.24
3985.28
3981.39
3973.77
3962.43
3947.57
3929.44
3908.33
3884.52
3858.37
3830.25
3800.54
3769.61
3737.87
3705.71
3673.47
3641.54
3610.17
3580.04
3551.02
3522.68
3495.53
3469.78
3445.58
3423
3402.12
3382.97
3365.58
3349.94
3336.05
3323.89
3313.45
3304.67
3297.55
3292.03
3288.07
3285.63
3375.19
3403.36
3433
3461.74
3493.68
3527.36
3561.83
3596.47
3630.87
3664.63
3697.24
3728.25
3757.26
3783.84
3807.61
3828.23
3845.38
3858.81
3868.33
3873.79
3875.07
3871.87
3864.58
3853.24
3837.99
3819.06
3796.74
3771.33
3743.23
3712.81
3680.48
3646.7
3611.91
3576.55
3541.01
3505.69
3470.96
3437.45
3405.21
3373.96
3344.01
3315.61
3288.9
3263.97
3240.88
3219.65
3200.29
3182.77
3167.06
3153.12
3140.9
3130.34
3121.41
3114.05
3108.22
3103.88
3101.01
3099.58
3099.71
3101.34
3104.47
3109.1
3115.25
3122.95
3132.22
3143.11
3155.65
3169.84
3185.74
3203.34
3222.65
3243.68
3266.39
3290.73
3316.66
3344.1
3372.91
3402.38
3431.59
3462.14
3493.58
3525.49
3557.55
3589.4
3620.67
3650.98
3679.92
3707.08
3732.06
3754.47
3773.94
3790.16
3802.83
3811.72
3816.66
3817.52
3814.18
3806.78
3795.35
3779.97
3760.86
3738.27
3712.51
3683.95
3652.99
3620.05
3585.61
3550.13
3514.07
3477.91
3442.06
3406.93
3372.86
3340.16
3309.04
3279.71
3252.3
3226.9
3203.55
3182.26
3163.01
3145.76
3130.46
3117.02
3105.38
3095.47
3087.2
3080.51
3075.33
3071.59
3069.24
3068.24
3068.53
3070.08
3072.85
3076.84
3082.02
3088.42
3096.03
3104.88
3115.01
3126.46
3139.27
3153.49
3169.19
3186.42
3205.22
3225.65
3247.71
3271.42
3296.75
3323.64
3352.01
3381.79
3412.67
3444.49
3477.02
3509.96
3542.98
3575.71
3607.76
3638.71
3668.14
3695.61
3720.69
3742.96
3762.04
3777.58
3789.29
3796.94
3800.37
3799.44
3794.23
3784.84
3771.34
3754
3733.11
3709.03
3682.16
3652.95
3621.86
3589.35
3555.89
3521.94
3487.92
3454.24
3421.24
3389.22
3358.58
3329.3
3301.66
3275.77
3251.72
3229.54
3209.25
3190.81
3174.2
3159.34
3146.19
3134.66
3124.69
3116.22
3109.17
3103.5
3099.17
3096.14
3094.38
3093.87
3094.63
3096.63
3099.87
3104.37
3110.15
3117.23
3125.65
3135.44
3146.63
3159.29
3173.44
3189.14
3206.43
3225.32
3245.84
3267.99
3291.75
3317.07
3343.89
3372.09
3401.54
3432.14
3463.55
3495.57
3527.93
3560.32
3592.37
3623.74
3654.02
3682.82
3709.73
3734.37
3756.36
3775.34
3791
3803.07
3811.33
3815.62
3815.83
3811.91
3804
3792.13
3776.5
3757.34
3734.96
3709.7
3681.95
3652.13
3620.68
3588.05
3554.67
3521
3487.43
3454.36
3422.12
3391.03
3361.34
3333.26
3306.96
3282.57
3260.16
3239.78
3221.45
3205.17
3190.87
3178.54
3168.09
3159.45
3152.53
3147.22
3143.38
3140.95
3139.84
3139.9
3141.32
3143.9
3147.65
3152.55
3158.58
3165.78
3174.15
3183.74
3194.6
3206.79
3220.37
3235.39
3251.95
3270.08
3289.85
3311.29
3334.43
3359.26
3385.72
3413.73
3443.2
3474.07
3505.93
3538.52
3571.63
3604.9
3637.99
3670.51
3702.05
3732.25
3760.71
3787.06
3810.95
3832.07
3850.14
3864.92
3876.19
3883.83
3887.72
3887.78
3883.88
3876.22
3864.85
3849.95
3831.77
3810.6
3786.73
3760.5
3732.32
3702.54
3671.55
3639.75
3607.53
3575.24
3543.26
3511.86
3481.72
3452.66
3424.3
3397.14
3371.38
3347.17
3324.59
3303.71
3284.57
3267.18
3251.55
3237.66
3225.51
3215.07
3206.31
3199.19
3193.68
3189.73
3187.29
3276.65
3304.84
3334.49
3363.38
3395.32
3429.04
3463.57
3498.29
3532.78
3566.62
3599.33
3630.44
3659.54
3686.2
3710.06
3730.76
3747.97
3761.46
3771.02
3776.49
3777.79
3774.59
3767.27
3755.88
3740.57
3721.58
3699.18
3673.68
3645.48
3614.97
3582.54
3548.68
3513.8
3478.35
3442.74
3407.35
3372.59
3339.03
3306.75
3275.48
3245.52
3217.1
3190.38
3165.45
3142.36
3121.15
3101.79
3084.29
3068.59
3054.66
3042.45
3031.92
3022.99
3015.65
3009.83
3005.49
3002.62
3001.2
3001.33
3002.96
3006.08
3010.7
3016.85
3024.54
3033.81
3044.69
3057.21
3071.4
3087.29
3104.88
3124.2
3145.22
3167.93
3192.28
3218.22
3245.67
3274.5
3304
3333.24
3363.84
3395.32
3427.28
3459.41
3491.33
3522.66
3553.06
3582.08
3609.32
3634.39
3656.89
3676.43
3692.72
3705.45
3714.39
3719.35
3720.22
3716.89
3709.47
3698
3682.57
3663.38
3640.71
3614.87
3586.21
3555.15
3522.12
3487.58
3452
3415.85
3379.61
3343.69
3308.49
3274.38
3241.64
3210.51
3181.16
3153.75
3128.34
3105
3083.72
3064.49
3047.26
3031.97
3018.55
3006.93
2997.04
2988.78
2982.11
2976.94
2973.21
2970.87
2969.88
2970.18
2971.74
2974.51
2978.5
2983.68
2990.07
2997.68
3006.52
3016.64
3028.08
3040.87
3055.08
3070.77
3087.98
3106.77
3127.18
3149.24
3172.95
3198.28
3225.17
3253.56
3283.37
3314.28
3346.15
3378.73
3411.73
3444.82
3477.62
3509.76
3540.81
3570.33
3597.89
3623.07
3645.43
3664.59
3680.2
3691.97
3699.66
3703.11
3702.19
3696.96
3687.52
3673.96
3656.54
3635.57
3611.39
3584.43
3555.12
3523.92
3491.31
3457.76
3423.72
3389.63
3355.89
3322.83
3290.77
3260.1
3230.79
3203.14
3177.25
3153.2
3131.03
3110.74
3092.32
3075.72
3060.88
3047.75
3036.24
3026.29
3017.83
3010.79
3005.13
3000.81
2997.78
2996.03
2995.52
2996.28
2998.28
3001.52
3006.02
3011.79
3018.87
3027.27
3037.05
3048.24
3060.88
3075.02
3090.71
3107.98
3126.87
3147.38
3169.53
3193.29
3218.62
3245.45
3273.67
3303.14
3333.77
3365.22
3397.29
3429.71
3462.16
3494.29
3525.74
3556.1
3584.98
3611.99
3636.71
3658.78
3677.84
3693.58
3705.7
3714
3718.31
3718.53
3714.6
3706.66
3694.75
3679.05
3659.82
3637.36
3612
3584.16
3554.24
3522.69
3489.96
3456.5
3422.75
3389.11
3355.97
3323.68
3292.56
3262.83
3234.73
3208.42
3184.02
3161.61
3141.25
3122.93
3106.66
3092.38
3080.07
3069.65
3061.04
3054.14
3048.85
3045.04
3042.64
3041.55
3041.62
3043.05
3045.63
3049.38
3054.28
3060.31
3067.5
3075.86
3085.44
3096.28
3108.44
3122
3137.01
3153.54
3171.66
3191.41
3212.84
3235.97
3260.79
3287.26
3315.27
3344.76
3375.67
3407.57
3440.21
3473.37
3506.71
3539.87
3572.47
3604.1
3634.38
3662.93
3689.36
3713.33
3734.52
3752.65
3767.48
3778.79
3786.45
3790.36
3790.43
3786.51
3778.82
3767.4
3752.45
3734.2
3712.96
3689.01
3662.7
3634.43
3604.57
3573.5
3541.62
3509.33
3476.98
3444.94
3413.49
3383.34
3354.24
3325.85
3298.67
3272.9
3248.69
3226.1
3205.23
3186.09
3168.7
3153.08
3139.2
3127.06
3116.63
3107.88
3100.77
3095.27
3091.32
3088.9
3178.02
3206.23
3235.9
3264.97
3296.91
3330.68
3365.28
3400.09
3434.68
3468.63
3501.46
3532.68
3561.89
3588.66
3612.62
3633.41
3650.7
3664.25
3673.86
3679.36
3680.67
3677.47
3670.11
3658.66
3643.29
3624.21
3601.72
3576.11
3547.81
3517.18
3484.64
3450.66
3415.68
3380.14
3344.43
3308.96
3274.15
3240.54
3208.23
3176.93
3146.93
3118.5
3091.77
3066.84
3043.77
3022.56
3003.22
2985.73
2970.05
2956.14
2943.95
2933.42
2924.52
2917.18
2911.37
2907.05
2904.18
2902.77
2902.89
2904.52
2907.64
2912.26
2918.4
2926.07
2935.33
2946.2
2958.71
2972.9
2988.78
3006.36
3025.67
3046.69
3069.4
3093.76
3119.7
3147.18
3176.03
3205.57
3234.84
3265.49
3297.03
3329.06
3361.26
3393.25
3424.68
3455.17
3484.29
3511.63
3536.81
3559.4
3579.04
3595.41
3608.22
3617.2
3622.2
3623.09
3619.76
3612.31
3600.8
3585.3
3566.03
3543.27
3517.32
3488.55
3457.37
3424.22
3389.56
3353.86
3317.61
3281.26
3245.26
3210
3175.83
3143.04
3111.88
3082.52
3055.09
3029.69
3006.36
2985.1
2965.88
2948.67
2933.41
2920.01
2908.42
2898.54
2890.3
2883.65
2878.49
2874.78
2872.46
2871.48
2871.79
2873.34
2876.12
2880.11
2885.29
2891.68
2899.27
2908.11
2918.22
2929.64
2942.42
2956.61
2972.28
2989.47
3008.25
3028.65
3050.7
3074.4
3099.73
3126.64
3155.04
3184.88
3215.83
3247.75
3280.4
3313.47
3346.64
3379.54
3411.78
3442.94
3472.57
3500.26
3525.54
3548.01
3567.27
3582.97
3594.81
3602.54
3606.01
3605.1
3599.85
3590.35
3576.73
3559.22
3538.14
3513.85
3486.77
3457.33
3426.01
3393.28
3359.62
3325.49
3291.31
3257.48
3224.36
3192.25
3161.55
3132.2
3104.53
3078.64
3054.59
3032.43
3012.16
2993.75
2977.17
2962.36
2949.24
2937.75
2927.82
2919.38
2912.36
2906.71
2902.4
2899.38
2897.63
2897.13
2897.89
2899.88
2903.12
2907.62
2913.38
2920.45
2928.84
2938.61
2949.78
2962.41
2976.54
2992.21
3009.47
3028.35
3048.85
3070.99
3094.76
3120.09
3146.94
3175.18
3204.69
3235.34
3266.85
3298.98
3331.47
3364
3396.22
3427.75
3458.22
3487.21
3514.32
3539.15
3561.32
3580.47
3596.28
3608.47
3616.82
3621.16
3621.38
3617.45
3609.47
3597.5
3581.74
3562.42
3539.85
3514.39
3486.43
3456.39
3424.72
3391.88
3358.32
3324.47
3290.74
3257.53
3225.18
3194
3164.24
3136.11
3109.78
3085.38
3062.98
3042.62
3024.32
3008.07
2993.82
2981.53
2971.14
2962.55
2955.69
2950.43
2946.66
2944.3
2943.23
2943.31
2944.74
2947.33
2951.08
2955.97
2962
2969.18
2977.52
2987.08
2997.9
3010.05
3023.58
3038.57
3055.07
3073.17
3092.9
3114.31
3137.44
3162.25
3188.72
3216.75
3246.26
3277.2
3309.15
3341.85
3375.08
3408.5
3441.75
3474.45
3506.17
3536.56
3565.21
3591.74
3615.8
3637.08
3655.28
3670.17
3681.53
3689.22
3693.14
3693.21
3689.29
3681.55
3670.09
3655.07
3636.74
3615.41
3591.36
3564.95
3536.58
3506.63
3475.45
3443.49
3411.1
3378.68
3346.57
3315.07
3284.9
3255.76
3227.34
3200.14
3174.35
3150.12
3127.54
3106.66
3087.53
3070.15
3054.54
3040.67
3028.54
3018.13
3009.38
3002.29
2996.79
2992.86
2990.45
3079.31
3107.55
3137.23
3166.5
3198.43
3232.27
3266.96
3301.88
3336.58
3370.67
3403.62
3434.97
3464.32
3491.22
3515.29
3536.18
3553.57
3567.2
3576.86
3582.4
3583.72
3580.5
3573.11
3561.6
3546.14
3526.97
3504.37
3478.64
3450.2
3419.44
3386.77
3352.67
3317.56
3281.9
3246.08
3210.53
3175.65
3142
3109.64
3078.29
3048.27
3019.82
2993.08
2968.16
2945.08
2923.89
2904.56
2887.09
2871.43
2857.54
2845.37
2834.86
2825.97
2818.65
2812.85
2808.54
2805.69
2804.27
2804.4
2806.03
2809.14
2813.75
2819.88
2827.55
2836.79
2847.65
2860.15
2874.32
2890.19
2907.77
2927.07
2948.09
2970.8
2995.16
3021.12
3048.62
3077.5
3107.08
3136.4
3167.1
3198.71
3230.81
3263.1
3295.19
3326.71
3357.32
3386.55
3414.01
3439.31
3462.02
3481.77
3498.24
3511.12
3520.18
3525.22
3526.12
3522.8
3515.32
3503.74
3488.17
3468.81
3445.94
3419.87
3390.96
3359.64
3326.35
3291.55
3255.72
3219.34
3182.88
3146.78
3111.43
3077.2
3044.36
3013.16
2983.78
2956.35
2930.95
2907.63
2886.38
2867.19
2850.01
2834.77
2821.4
2809.83
2799.97
2791.76
2785.12
2779.99
2776.3
2773.99
2773.02
2773.34
2774.9
2777.69
2781.67
2786.86
2793.23
2800.82
2809.65
2819.74
2831.14
2843.9
2858.08
2873.72
2890.9
2909.65
2930.04
2952.08
2975.77
3001.11
3028.03
3056.45
3086.34
3117.33
3149.31
3182.02
3215.18
3248.45
3281.46
3313.82
3345.11
3374.88
3402.69
3428.11
3450.71
3470.09
3485.89
3497.8
3505.59
3509.08
3508.18
3502.9
3493.34
3479.64
3462.03
3440.83
3416.41
3389.18
3359.59
3328.13
3295.27
3261.48
3227.22
3192.94
3159.03
3125.83
3093.67
3062.9
3033.54
3005.85
2979.94
2955.9
2933.74
2913.49
2895.1
2878.55
2863.76
2850.67
2839.2
2829.29
2820.87
2813.87
2808.24
2803.93
2800.92
2799.18
2798.69
2799.44
2801.44
2804.67
2809.16
2814.92
2821.98
2830.36
2840.11
2851.27
2863.88
2877.99
2893.64
2910.89
2929.75
2950.25
2972.39
2996.15
3021.5
3048.35
3076.62
3106.17
3136.86
3168.42
3200.63
3233.2
3265.82
3298.14
3329.79
3360.37
3389.48
3416.71
3441.67
3463.95
3483.21
3499.12
3511.39
3519.79
3524.17
3524.4
3520.46
3512.43
3500.4
3484.55
3465.13
3442.44
3416.85
3388.75
3358.58
3326.78
3293.8
3260.12
3226.15
3192.33
3159.03
3126.61
3095.37
3065.57
3037.41
3011.06
2986.65
2964.25
2943.91
2925.63
2909.4
2895.18
2882.92
2872.56
2864.01
2857.18
2851.96
2848.23
2845.9
2844.86
2844.96
2846.4
2848.99
2852.75
2857.64
2863.66
2870.82
2879.15
2888.69
2899.49
2911.61
2925.11
2940.06
2956.55
2974.62
2994.32
3015.72
3038.83
3063.63
3090.11
3118.15
3147.68
3178.67
3210.68
3243.45
3276.76
3310.27
3343.63
3376.44
3408.28
3438.78
3467.56
3494.2
3518.37
3539.74
3558.03
3572.99
3584.41
3592.14
3596.08
3596.15
3592.21
3584.43
3572.9
3557.8
3539.38
3517.95
3493.79
3467.27
3438.78
3408.7
3377.42
3345.34
3312.86
3280.35
3248.16
3216.6
3186.4
3157.2
3128.75
3101.52
3075.72
3051.48
3028.9
3008.02
2988.9
2971.53
2955.92
2942.07
2929.95
2919.55
2910.82
2903.74
2898.26
2894.34
2891.93
2980.5
3008.78
3038.5
3067.96
3099.9
3133.81
3168.61
3203.64
3238.48
3272.71
3305.82
3337.33
3366.82
3393.86
3418.07
3439.09
3456.58
3470.29
3480.02
3485.6
3486.94
3483.7
3476.26
3464.68
3449.14
3429.86
3407.12
3381.25
3352.67
3321.75
3288.93
3254.68
3219.43
3183.64
3147.7
3112.04
3077.08
3043.39
3010.98
2979.59
2949.53
2921.06
2894.31
2869.38
2846.32
2825.14
2805.83
2788.38
2772.74
2758.87
2746.72
2736.24
2727.37
2720.06
2714.28
2709.98
2707.13
2705.73
2705.85
2707.48
2710.58
2715.18
2721.3
2728.96
2738.18
2749.03
2761.52
2775.67
2791.53
2809.1
2828.39
2849.41
2872.12
2896.5
2922.47
2949.99
2978.91
3008.54
3037.9
3068.67
3100.36
3132.54
3164.92
3197.12
3228.76
3259.49
3288.86
3316.46
3341.9
3364.74
3384.62
3401.2
3414.18
3423.3
3428.39
3429.31
3425.99
3418.48
3406.84
3391.18
3371.72
3348.72
3322.5
3293.45
3261.97
3228.51
3193.55
3157.56
3121.04
3084.45
3048.24
3012.8
2978.49
2945.6
2914.36
2884.95
2857.51
2832.12
2808.81
2787.58
2768.41
2751.26
2736.05
2722.71
2711.17
2701.34
2693.16
2686.54
2681.43
2677.76
2675.47
2674.51
2674.84
2676.41
2679.2
2683.19
2688.37
2694.74
2702.32
2711.13
2721.21
2732.59
2745.33
2759.48
2775.1
2792.25
2810.99
2831.36
2853.38
2877.07
2902.41
2929.34
2957.79
2987.73
3018.77
3050.81
3083.61
3116.87
3150.25
3183.39
3215.88
3247.31
3277.24
3305.21
3330.78
3353.53
3373.04
3388.95
3400.95
3408.81
3412.33
3411.43
3406.12
3396.49
3382.69
3364.96
3343.63
3319.05
3291.66
3261.91
3230.28
3197.26
3163.32
3128.94
3094.53
3060.52
3027.24
2995.01
2964.18
2934.78
2907.07
2881.16
2857.12
2834.98
2814.74
2796.38
2779.85
2765.09
2752.03
2740.59
2730.71
2722.31
2715.33
2709.71
2705.42
2702.42
2700.68
2700.19
2700.95
2702.94
2706.18
2710.66
2716.41
2723.45
2731.82
2741.55
2752.69
2765.28
2779.37
2795.01
2812.24
2831.09
2851.58
2873.71
2897.47
2922.83
2949.7
2978
3007.58
3038.33
3069.96
3102.24
3134.9
3167.63
3200.07
3231.84
3262.56
3291.81
3319.18
3344.28
3366.7
3386.08
3402.1
3414.46
3422.93
3427.34
3427.58
3423.63
3415.56
3403.45
3387.5
3367.96
3345.14
3319.39
3291.14
3260.81
3228.85
3195.73
3161.9
3127.81
3093.87
3060.47
3027.96
2996.66
2966.81
2938.61
2912.25
2887.83
2865.44
2845.11
2826.85
2810.65
2796.46
2784.24
2773.91
2765.4
2758.61
2753.44
2749.75
2747.46
2746.46
2746.59
2748.02
2750.63
2754.38
2759.27
2765.28
2772.43
2780.74
2790.26
2801.02
2813.11
2826.59
2841.51
2857.96
2876
2895.68
2917.05
2940.15
2964.94
2991.43
3019.49
3049.04
3080.08
3112.15
3145
3178.41
3212.03
3245.5
3278.44
3310.41
3341.06
3369.96
3396.74
3421.03
3442.52
3460.91
3475.95
3487.43
3495.21
3499.16
3499.24
3495.28
3487.44
3475.85
3460.66
3442.14
3420.58
3396.3
3369.64
3341.02
3310.81
3279.39
3247.19
3214.6
3181.98
3149.7
3118.07
3087.84
3058.58
3030.09
3002.84
2977.01
2952.77
2930.18
2909.31
2890.19
2872.83
2857.23
2843.4
2831.3
2820.91
2812.19
2805.12
2799.66
2795.76
2793.36
2881.61
2909.94
2939.7
2969.34
3001.3
3035.3
3070.22
3105.39
3140.38
3174.78
3208.06
3239.74
3269.4
3296.6
3320.96
3342.12
3359.73
3373.53
3383.33
3388.96
3390.32
3387.07
3379.57
3367.92
3352.27
3332.86
3309.98
3283.96
3255.21
3224.12
3191.13
3156.71
3121.3
3085.35
3049.28
3013.5
2978.44
2944.73
2912.25
2880.8
2850.7
2822.21
2795.45
2770.52
2747.47
2726.3
2707.02
2689.59
2673.98
2660.14
2648.01
2637.55
2628.7
2621.42
2615.65
2611.36
2608.53
2607.12
2607.25
2608.87
2611.97
2616.56
2622.66
2630.3
2639.52
2650.35
2662.82
2676.96
2692.8
2710.36
2729.65
2750.67
2773.38
2797.76
2823.75
2851.3
2880.25
2909.94
2939.35
2970.19
3001.97
3034.25
3066.74
3099.06
3130.83
3161.7
3191.22
3218.98
3244.57
3267.57
3287.59
3304.29
3317.38
3326.59
3331.73
3332.68
3329.35
3321.8
3310.09
3294.34
3274.75
3251.61
3225.23
3196.01
3164.34
3130.7
3095.56
3059.4
3022.72
2985.99
2949.64
2914.09
2879.7
2846.74
2815.46
2786.03
2758.58
2733.19
2709.89
2688.69
2669.55
2652.43
2637.25
2623.95
2612.44
2602.65
2594.49
2587.9
2582.81
2579.16
2576.89
2575.95
2576.29
2577.88
2580.67
2584.66
2589.84
2596.2
2603.77
2612.56
2622.62
2633.98
2646.7
2660.82
2676.42
2693.54
2712.25
2732.6
2754.61
2778.3
2803.64
2830.59
2859.05
2889.05
2920.15
2952.26
2985.15
3018.52
3052.03
3085.31
3117.96
3149.56
3179.65
3207.8
3233.55
3256.46
3276.12
3292.16
3304.27
3312.19
3315.75
3314.85
3309.5
3299.8
3285.9
3268.03
3246.54
3221.79
3194.22
3164.28
3132.47
3099.27
3065.16
3030.62
2996.09
2961.95
2928.58
2896.28
2865.38
2835.95
2808.21
2782.29
2758.25
2736.12
2715.91
2697.57
2681.07
2666.34
2653.32
2641.91
2632.06
2623.68
2616.73
2611.13
2606.85
2603.86
2602.13
2601.65
2602.41
2604.4
2607.63
2612.1
2617.84
2624.87
2633.22
2642.94
2654.06
2666.63
2680.7
2696.31
2713.52
2732.35
2752.83
2774.96
2798.72
2824.08
2850.98
2879.31
2908.94
2939.74
2971.44
3003.82
3036.58
3069.43
3102
3133.91
3164.78
3194.19
3221.72
3246.98
3269.55
3289.07
3305.21
3317.67
3326.21
3330.67
3330.93
3326.96
3318.83
3306.64
3290.58
3270.9
3247.93
3222.02
3193.59
3163.08
3130.95
3097.65
3063.67
3029.43
2995.36
2961.85
2929.25
2897.87
2867.96
2839.73
2813.34
2788.92
2766.53
2746.23
2727.99
2711.82
2697.67
2685.48
2675.19
2666.73
2659.99
2654.86
2651.22
2648.98
2648.01
2648.18
2649.62
2652.22
2655.98
2660.87
2666.87
2674.01
2682.29
2691.78
2702.52
2714.57
2728.01
2742.89
2759.31
2777.31
2796.96
2818.31
2841.39
2866.18
2892.67
2920.75
2950.33
2981.41
3013.57
3046.51
3080.02
3113.76
3147.37
3180.45
3212.57
3243.37
3272.44
3299.36
3323.79
3345.41
3363.91
3379.04
3390.6
3398.42
3402.4
3402.48
3398.5
3390.6
3378.93
3363.64
3345
3323.31
3298.88
3272.07
3243.29
3212.93
3181.37
3149.04
3116.31
3083.58
3051.2
3019.49
2989.21
2959.9
2931.37
2904.08
2878.23
2853.97
2831.38
2810.51
2791.4
2774.05
2758.47
2744.65
2732.57
2722.19
2713.5
2706.45
2701
2697.11
2694.74
2782.63
2811.01
2840.84
2870.65
2902.63
2936.74
2971.79
3007.12
3042.28
3076.86
3110.33
3142.2
3172.05
3199.44
3223.96
3245.27
3263.01
3276.93
3286.81
3292.48
3293.87
3290.59
3283.04
3271.3
3255.54
3235.99
3212.95
3186.75
3157.82
3126.54
3093.35
3058.75
3023.16
2987.05
2950.82
2914.9
2879.73
2846.01
2813.46
2781.94
2751.79
2723.27
2696.5
2671.58
2648.53
2627.39
2608.13
2590.72
2575.14
2561.33
2549.23
2538.8
2529.97
2522.71
2516.95
2512.68
2509.86
2508.46
2508.59
2510.21
2513.3
2517.88
2523.97
2531.59
2540.79
2551.6
2564.05
2578.18
2594.01
2611.55
2630.83
2651.85
2674.56
2698.95
2724.96
2752.53
2781.53
2811.28
2840.75
2871.67
2903.54
2935.94
2968.55
3001
3032.92
3063.95
3093.63
3121.56
3147.33
3170.49
3190.68
3207.52
3220.73
3230.03
3235.23
3236.2
3232.88
3225.28
3213.5
3197.64
3177.91
3154.61
3128.06
3098.64
3066.77
3032.93
2997.59
2961.23
2924.37
2887.47
2850.98
2815.32
2780.83
2747.8
2716.47
2687.01
2659.56
2634.17
2610.89
2589.71
2570.6
2553.52
2538.38
2525.12
2513.64