/*--------------------------------*- C++ -*----------------------------------*\
| =========                 |                                                 |
| \\      /  F ield         | OpenFOAM: The Open Source CFD Toolbox           |
|  \\    /   O peration     | Version:  3.0.1                                 |
|   \\  /    A nd           | Web:      www.OpenFOAM.org                      |
|    \\/     M anipulation  |                                                 |
\*---------------------------------------------------------------------------*/
FoamFile
{
    version     2.0;
    format      ascii;
    class       volScalarField;
    location    "55.8";
    object      p;
}
// * * * * * * * * * * * * * * * * * * * * * * * * * * * * * * * * * * * * * //

dimensions      [1 -1 -2 0 0 0 0];

internalField   nonuniform List<scalar> 
21420
(
3564.25
3558.46
3554.04
3550.97
3549.24
3548.86
3549.81
3552.1
3555.73
3560.67
3566.99
3574.69
3583.82
3594.44
3606.58
3620.32
3635.69
3652.72
3671.46
3691.94
3714.16
3738.1
3763.77
3791.09
3819.96
3850.18
3880.63
3913.07
3946.4
3980.21
4014.16
4047.92
4081.09
4113.28
4144.08
4173.07
4199.87
4224.13
4245.47
4263.61
4278.26
4289.22
4296.33
4299.44
4298.46
4293.46
4284.55
4271.82
4255.48
4235.77
4212.99
4187.47
4159.56
4129.64
4098.11
4065.37
4031.84
3997.89
3963.9
3930.25
3897.25
3865.5
3835.02
3805.57
3777.44
3750.82
3725.82
3702.51
3680.95
3661.15
3643.12
3626.85
3612.31
3599.49
3588.36
3578.89
3571.07
3564.87
3560.27
3557.27
3555.83
3555.94
3557.56
3560.66
3565.27
3571.4
3579.04
3588.17
3598.81
3610.97
3624.62
3639.8
3656.53
3674.81
3694.66
3716.11
3739.13
3763.71
3789.78
3817.28
3846.1
3876.09
3907.08
3938.8
3971.02
4003.48
4035.85
4067.82
4099.04
4129.14
4157.77
4184.55
4209.12
4231.13
4250.25
4266.17
4278.61
4287.35
4292.22
4292.98
4289.76
4282.48
4271.17
4256
4237.18
4214.97
4189.69
4161.71
4131.44
4099.3
4065.73
4031.2
3996.14
3960.99
3926.15
3892.01
3858.89
3827.08
3796.82
3768.32
3741.71
3717.1
3694.53
3674.02
3655.56
3639.09
3624.56
3611.89
3600.98
3591.76
3584.14
3578.02
3573.35
3570.04
3568.03
3567.29
3567.84
3569.57
3572.51
3576.67
3582.06
3588.7
3596.62
3605.87
3616.5
3628.54
3642.06
3657.08
3673.66
3691.83
3711.6
3732.98
3755.96
3780.49
3806.54
3834
3862.76
3892.67
3923.55
3955.16
3987.21
4019.41
4051.41
4082.82
4113.24
4142.25
4169.43
4194.36
4216.63
4235.87
4251.73
4263.95
4272.27
4276.53
4276.57
4272.46
4264.21
4251.89
4235.73
4215.98
4192.96
4167.06
4138.7
4108.32
4076.41
4043.41
4009.78
3975.94
3942.3
3909.22
3877.04
3846.01
3816.39
3788.33
3761.98
3737.41
3714.68
3693.8
3674.75
3657.5
3642.02
3628.23
3616.09
3605.54
3596.52
3588.96
3582.8
3578.01
3574.52
3572.28
3571.27
3571.48
3572.89
3575.45
3579.21
3584.15
3590.31
3597.7
3606.36
3616.34
3627.67
3640.41
3654.6
3670.29
3687.5
3706.26
3726.59
3748.46
3771.85
3796.71
3822.95
3850.47
3879.13
3908.76
3939.16
3970.07
4001.2
4032.25
4062.87
4092.68
4121.28
4148.27
4173.22
4195.75
4215.45
4231.98
4245.03
4254.32
4259.67
4260.89
4258.06
4251.1
4240.12
4225.32
4206.95
4185.33
4160.84
4133.87
4104.86
4074.24
4042.47
4009.98
3977.21
3944.73
3916.02
3885.18
3855.04
3826.05
3798.44
3772.4
3748.02
3725.4
3704.57
3685.54
3668.3
3652.81
3639.01
3626.83
3616.19
3606.99
3599.12
3592.49
3587.01
3582.6
3579.17
3576.7
3575.16
3574.58
3575.02
3576.54
3579.26
3583.27
3588.72
3595.72
3604.39
3614.86
3627.21
3641.51
3657.78
3676.04
3696.26
3718.41
3742.38
3768.07
3795.31
3823.9
3853.63
3884.18
3915.19
3946.6
3978.02
4009.05
4039.31
4068.45
4096.11
4121.97
4145.7
4167.03
4185.71
4201.54
4214.36
4224.06
4230.56
4233.78
4233.27
4229.53
4222.66
4212.75
4199.94
4184.39
4166.31
4145.92
4123.46
4099.19
4073.48
4046.67
4019.3
3466.1
3460.31
3455.89
3452.82
3451.09
3450.71
3451.66
3453.95
3457.57
3462.52
3468.83
3476.53
3485.66
3496.28
3508.42
3522.15
3537.52
3554.55
3573.29
3593.76
3615.98
3639.92
3665.59
3692.92
3721.78
3752.02
3782.46
3814.91
3848.25
3882.08
3916.04
3949.82
3983
4015.21
4046.03
4075.03
4101.86
4126.13
4147.49
4165.63
4180.3
4191.27
4198.38
4201.51
4200.51
4195.51
4186.6
4173.86
4157.51
4137.78
4114.99
4089.44
4061.52
4031.58
4000.03
3967.28
3933.73
3899.76
3865.76
3832.1
3799.09
3767.34
3736.84
3707.39
3679.26
3652.64
3627.63
3604.33
3582.77
3562.98
3544.95
3528.67
3514.13
3501.32
3490.19
3480.73
3472.91
3466.7
3462.11
3459.1
3457.67
3457.79
3459.4
3462.5
3467.11
3473.24
3480.88
3490.01
3500.65
3512.8
3526.45
3541.63
3558.36
3576.64
3596.49
3617.94
3640.96
3665.53
3691.61
3719.11
3747.93
3777.93
3808.93
3840.66
3872.89
3905.35
3937.74
3969.72
4000.95
4031.08
4059.72
4086.52
4111.1
4133.13
4152.27
4168.2
4180.65
4189.4
4194.27
4195.04
4191.81
4184.53
4173.21
4158.03
4139.19
4116.97
4091.67
4063.68
4033.38
4001.22
3967.64
3933.09
3898.02
3862.85
3828
3793.84
3760.71
3728.89
3698.63
3670.12
3643.52
3618.9
3596.34
3575.83
3557.37
3540.91
3526.38
3513.71
3502.81
3493.6
3485.97
3479.86
3475.19
3471.88
3469.87
3469.14
3469.69
3471.42
3474.36
3478.52
3483.9
3490.54
3498.46
3507.71
3518.34
3530.38
3543.89
3558.91
3575.49
3593.65
3613.42
3634.8
3657.78
3682.32
3708.37
3735.83
3764.59
3794.51
3825.4
3857.02
3889.08
3921.29
3953.3
3984.73
4015.17
4044.2
4071.4
4096.35
4118.63
4137.89
4153.77
4165.99
4174.32
4178.6
4178.63
4174.51
4166.26
4153.93
4137.76
4117.99
4094.95
4069.03
4040.65
4010.26
3978.32
3945.3
3911.65
3877.8
3844.15
3811.06
3778.87
3747.84
3718.2
3690.15
3663.79
3639.23
3616.5
3595.62
3576.57
3559.33
3543.84
3530.06
3517.93
3507.38
3498.36
3490.8
3484.65
3479.85
3476.36
3474.13
3473.12
3473.33
3474.74
3477.31
3481.06
3486
3492.15
3499.55
3508.21
3518.18
3529.51
3542.25
3556.44
3572.12
3589.33
3608.09
3628.42
3650.29
3673.68
3698.54
3724.79
3752.31
3780.98
3810.61
3841.01
3871.93
3903.08
3934.14
3964.78
3994.61
4023.23
4050.23
4075.21
4097.75
4117.47
4134.01
4147.07
4156.37
4161.73
4162.96
4160.12
4153.16
4142.17
4127.36
4108.97
4087.33
4062.82
4035.83
4006.8
3976.17
3944.38
3911.88
3879.08
3846.58
3817.89
3787.03
3756.88
3727.88
3700.27
3674.22
3649.84
3627.22
3606.39
3587.37
3570.13
3554.64
3540.84
3528.67
3518.03
3508.83
3500.97
3494.35
3488.87
3484.46
3481.03
3478.56
3477.02
3476.45
3476.87
3478.39
3481.11
3485.12
3490.55
3497.55
3506.22
3516.69
3529.03
3543.32
3559.6
3577.86
3598.08
3620.22
3644.2
3669.89
3697.14
3725.74
3755.47
3786.03
3817.06
3848.48
3879.92
3910.96
3941.23
3970.39
3998.07
4023.94
4047.69
4069.02
4087.71
4103.55
4116.38
4126.08
4132.59
4135.82
4135.29
4131.55
4124.68
4114.76
4101.94
4086.38
4068.29
4047.89
4025.41
4001.14
3975.41
3948.59
3921.21
3367.88
3362.09
3357.68
3354.61
3352.89
3352.51
3353.45
3355.74
3359.37
3364.31
3370.62
3378.32
3387.45
3398.05
3410.19
3423.92
3439.28
3456.31
3475.04
3495.51
3517.72
3541.67
3567.33
3594.66
3623.54
3653.8
3684.21
3716.7
3750.06
3783.91
3817.9
3851.71
3884.93
3917.17
3948.02
3977.06
4003.92
4028.23
4049.62
4067.79
4082.48
4093.47
4100.59
4103.73
4102.72
4097.71
4088.78
4076.03
4059.65
4039.9
4017.07
3991.49
3963.53
3933.56
3901.97
3869.19
3835.61
3801.61
3767.59
3733.89
3700.87
3669.11
3638.6
3609.14
3581
3554.38
3529.37
3506.07
3484.51
3464.72
3446.7
3430.42
3415.89
3403.08
3391.95
3382.49
3374.68
3368.48
3363.88
3360.88
3359.44
3359.57
3361.18
3364.28
3368.89
3375.01
3382.65
3391.79
3402.43
3414.58
3428.22
3443.4
3460.12
3478.4
3498.25
3519.69
3542.71
3567.28
3593.37
3620.88
3649.7
3679.71
3710.72
3742.47
3774.72
3807.21
3839.62
3871.63
3902.89
3933.05
3961.72
3988.55
4013.17
4035.23
4054.4
4070.36
4082.83
4091.6
4096.48
4097.27
4094.02
4086.73
4075.4
4060.2
4041.33
4019.08
3993.74
3965.71
3935.38
3903.18
3869.56
3834.97
3799.86
3764.66
3729.78
3695.61
3662.46
3630.62
3600.35
3571.84
3545.23
3520.61
3498.05
3477.55
3459.1
3442.64
3428.12
3415.46
3404.57
3395.36
3387.75
3381.65
3376.98
3373.68
3371.67
3370.95
3371.49
3373.22
3376.16
3380.32
3385.7
3392.34
3400.25
3409.5
3420.12
3432.15
3445.66
3460.68
3477.25
3495.41
3515.18
3536.56
3559.53
3584.07
3610.12
3637.59
3666.36
3696.29
3727.2
3758.83
3790.92
3823.16
3855.2
3886.66
3917.14
3946.21
3973.44
3998.43
4020.75
4040.03
4055.95
4068.19
4076.54
4080.83
4080.87
4076.73
4068.47
4056.12
4039.92
4020.12
3997.05
3971.09
3942.66
3912.23
3880.25
3847.2
3813.52
3779.63
3745.95
3712.84
3680.63
3649.58
3619.94
3591.88
3565.52
3540.96
3518.23
3497.35
3478.31
3461.08
3445.6
3431.82
3419.69
3409.15
3400.14
3392.58
3386.44
3381.65
3378.16
3375.92
3374.92
3375.14
3376.54
3379.11
3382.86
3387.8
3393.95
3401.34
3410
3419.97
3431.3
3444.03
3458.21
3473.88
3491.09
3509.85
3530.17
3552.04
3575.44
3600.3
3626.55
3654.09
3682.76
3712.41
3742.83
3773.77
3804.94
3836.03
3866.7
3896.56
3925.22
3952.26
3977.27
3999.85
4019.6
4036.17
4049.26
4058.58
4063.95
4065.19
4062.33
4055.37
4044.36
4029.52
4011.11
3989.44
3964.89
3937.86
3908.8
3878.13
3846.31
3813.76
3780.93
3748.38
3719.74
3688.82
3658.66
3629.64
3602.01
3575.96
3551.59
3528.97
3508.14
3489.11
3471.88
3456.39
3442.61
3430.44
3419.81
3410.63
3402.77
3396.16
3390.69
3386.28
3382.86
3380.39
3378.85
3378.27
3378.69
3380.2
3382.91
3386.9
3392.33
3399.31
3407.98
3418.43
3430.77
3445.06
3461.33
3479.59
3499.81
3521.96
3545.94
3571.63
3598.89
3627.51
3657.26
3687.84
3718.88
3750.34
3781.8
3812.88
3843.18
3872.36
3900.07
3925.97
3949.75
3971.11
3989.82
4005.68
4018.52
4028.23
4034.74
4038
4037.44
4033.69
4026.81
4016.87
4004.04
3988.46
3970.35
3949.92
3927.42
3903.13
3877.37
3850.53
3823.13
3269.61
3263.83
3259.42
3256.36
3254.63
3254.25
3255.19
3257.49
3261.11
3266.05
3272.35
3280.05
3289.17
3299.77
3311.89
3325.61
3340.96
3357.99
3376.71
3397.18
3419.38
3443.33
3469
3496.33
3525.22
3555.53
3585.89
3618.43
3651.83
3685.71
3719.74
3753.6
3786.86
3819.16
3850.06
3879.16
3906.07
3930.43
3951.86
3970.08
3984.81
3995.82
4002.96
4006.11
4005.09
4000.06
3991.12
3978.33
3961.92
3942.12
3919.25
3893.62
3865.6
3835.58
3803.94
3771.1
3737.47
3703.43
3669.37
3635.64
3602.59
3570.81
3540.29
3510.82
3482.67
3456.04
3431.03
3407.73
3386.18
3366.39
3348.37
3332.1
3317.57
3304.77
3293.65
3284.19
3276.38
3270.18
3265.6
3262.6
3261.16
3261.29
3262.9
3266
3270.6
3276.73
3284.37
3293.5
3304.14
3316.29
3329.93
3345.1
3361.82
3380.09
3399.93
3421.37
3444.39
3468.97
3495.05
3522.57
3551.41
3581.43
3612.47
3644.24
3676.52
3709.04
3741.49
3773.55
3804.85
3835.05
3863.78
3890.66
3915.33
3937.44
3956.65
3972.65
3985.16
3993.95
3998.84
3999.66
3996.39
3989.09
3977.73
3962.5
3943.6
3921.29
3895.9
3867.81
3837.42
3805.16
3771.48
3736.84
3701.68
3666.44
3631.52
3597.31
3564.13
3532.27
3501.98
3473.46
3446.85
3422.23
3399.67
3379.18
3360.74
3344.29
3329.79
3317.14
3306.26
3297.07
3289.47
3283.37
3278.71
3275.42
3273.41
3272.7
3273.24
3274.97
3277.92
3282.07
3287.45
3294.08
3301.99
3311.23
3321.84
3333.87
3347.37
3362.38
3378.95
3397.1
3416.86
3438.24
3461.21
3485.75
3511.81
3539.29
3568.07
3598.02
3628.94
3660.61
3692.73
3725.01
3757.1
3788.61
3819.14
3848.26
3875.56
3900.6
3922.97
3942.31
3958.26
3970.54
3978.91
3983.21
3983.27
3979.12
3970.83
3958.46
3942.21
3922.36
3899.24
3873.22
3844.73
3814.24
3782.2
3749.09
3715.36
3681.43
3647.71
3614.56
3582.32
3551.26
3521.6
3493.53
3467.17
3442.6
3419.88
3399.01
3379.98
3362.75
3347.28
3333.51
3321.4
3310.87
3301.86
3294.31
3288.17
3283.39
3279.91
3277.68
3276.68
3276.9
3278.3
3280.87
3284.61
3289.55
3295.7
3303.08
3311.73
3321.7
3333.02
3345.74
3359.92
3375.59
3392.79
3411.54
3431.86
3453.73
3477.13
3502
3528.25
3555.8
3584.49
3614.16
3644.61
3675.58
3706.79
3737.92
3768.63
3798.54
3827.25
3854.35
3879.42
3902.05
3921.85
3938.47
3951.59
3960.94
3966.33
3967.59
3964.71
3957.73
3946.7
3931.82
3913.36
3891.64
3867.04
3839.96
3810.84
3780.11
3748.24
3715.64
3682.76
3650.13
3621.55
3590.57
3560.37
3531.32
3503.69
3477.63
3453.25
3430.63
3409.8
3390.78
3373.56
3358.08
3344.31
3332.16
3321.54
3312.36
3304.52
3297.92
3292.46
3288.06
3284.65
3282.18
3280.64
3280.05
3280.46
3281.96
3284.65
3288.64
3294.05
3301.01
3309.66
3320.11
3332.43
3346.71
3362.98
3381.23
3401.45
3423.61
3447.6
3473.3
3500.58
3529.22
3558.99
3589.6
3620.68
3652.17
3683.68
3714.8
3745.14
3774.38
3802.13
3828.08
3851.9
3873.29
3892.04
3907.92
3920.78
3930.51
3937.02
3940.3
3939.71
3935.95
3929.05
3919.1
3906.24
3890.63
3872.49
3852.03
3829.49
3805.16
3779.37
3752.49
3725.06
3171.28
3165.5
3161.1
3158.05
3156.33
3155.95
3156.88
3159.18
3162.8
3167.74
3174.03
3181.72
3190.83
3201.42
3213.53
3227.24
3242.58
3259.6
3278.31
3298.77
3320.97
3344.91
3370.58
3397.92
3426.83
3457.19
3487.49
3520.1
3553.55
3587.48
3621.57
3655.48
3688.81
3721.18
3752.15
3781.32
3808.3
3832.73
3854.23
3872.5
3887.27
3898.32
3905.48
3908.64
3907.63
3902.58
3893.6
3880.77
3864.32
3844.46
3821.52
3795.82
3767.73
3737.64
3705.92
3673.02
3639.32
3605.23
3571.11
3537.34
3504.25
3472.45
3441.91
3412.42
3384.26
3357.62
3332.61
3309.3
3287.76
3267.98
3249.96
3233.71
3219.19
3206.39
3195.28
3185.83
3178.02
3171.83
3167.24
3164.25
3162.82
3162.95
3164.55
3167.66
3172.26
3178.39
3186.03
3195.16
3205.79
3217.93
3231.57
3246.74
3263.44
3281.71
3301.55
3322.98
3346
3370.58
3396.67
3424.2
3453.05
3483.09
3514.16
3545.96
3578.29
3610.85
3643.36
3675.47
3706.83
3737.1
3765.89
3792.84
3817.58
3839.75
3859.02
3875.07
3887.63
3896.45
3901.37
3902.21
3898.93
3891.6
3880.22
3864.94
3845.98
3823.61
3798.15
3769.98
3739.51
3707.17
3673.42
3638.7
3603.48
3568.17
3533.19
3498.94
3465.72
3433.83
3403.53
3374.99
3348.37
3323.76
3301.21
3280.73
3262.29
3245.87
3231.38
3218.75
3207.89
3198.71
3191.12
3185.04
3180.39
3177.1
3175.11
3174.41
3174.94
3176.68
3179.62
3183.77
3189.15
3195.77
3203.67
3212.9
3223.5
3235.52
3249.01
3264.01
3280.57
3298.71
3318.47
3339.84
3362.82
3387.36
3413.42
3440.91
3469.71
3499.68
3530.64
3562.34
3594.51
3626.85
3658.99
3690.57
3721.17
3750.37
3777.74
3802.85
3825.3
3844.7
3860.71
3873.04
3881.44
3885.76
3885.83
3881.67
3873.35
3860.94
3844.64
3824.73
3801.53
3775.43
3746.86
3716.29
3684.17
3650.98
3617.18
3583.19
3549.41
3516.22
3483.95
3452.85
3423.18
3395.09
3368.73
3344.16
3321.45
3300.59
3281.56
3264.35
3248.89
3235.14
3223.03
3212.51
3203.52
3195.98
3189.85
3185.08
3181.6
3179.38
3178.39
3178.61
3180.01
3182.58
3186.32
3191.26
3197.4
3204.78
3213.42
3223.37
3234.68
3247.39
3261.56
3277.22
3294.41
3313.16
3333.48
3355.35
3378.75
3403.62
3429.89
3457.45
3486.16
3515.86
3546.34
3577.36
3608.61
3639.8
3670.58
3700.55
3729.34
3756.51
3781.65
3804.35
3824.22
3840.9
3854.07
3863.46
3868.86
3870.15
3867.25
3860.25
3849.18
3834.26
3815.74
3793.95
3769.28
3742.12
3712.92
3682.13
3650.18
3617.52
3584.56
3551.83
3523.33
3492.27
3462.01
3432.94
3405.29
3379.22
3354.83
3332.21
3311.39
3292.38
3275.16
3259.7
3245.94
3233.81
3223.21
3214.05
3206.22
3199.64
3194.19
3189.8
3186.4
3183.93
3182.39
3181.8
3182.19
3183.68
3186.35
3190.31
3195.7
3202.65
3211.27
3221.7
3234.01
3248.28
3264.54
3282.79
3303.01
3325.17
3349.17
3374.89
3402.19
3430.86
3460.67
3491.32
3522.44
3553.98
3585.54
3616.72
3647.13
3676.43
3704.25
3730.25
3754.12
3775.57
3794.35
3810.28
3823.16
3832.9
3839.43
3842.72
3842.12
3838.33
3831.41
3821.43
3808.53
3792.89
3774.7
3754.2
3731.62
3707.24
3681.4
3654.47
3626.99
3072.89
3067.12
3062.73
3059.68
3057.97
3057.59
3058.52
3060.82
3064.43
3069.37
3075.66
3083.33
3092.43
3103.01
3115.11
3128.8
3144.13
3161.13
3179.83
3200.28
3222.48
3246.41
3272.08
3299.43
3328.36
3358.79
3389.03
3421.72
3455.23
3489.22
3523.37
3557.36
3590.77
3623.22
3654.29
3683.54
3710.62
3735.13
3756.7
3775.04
3789.87
3800.96
3808.15
3811.32
3810.32
3805.24
3796.22
3783.35
3766.83
3746.9
3723.88
3698.1
3669.92
3639.73
3607.93
3574.94
3541.17
3506.99
3472.81
3438.98
3405.86
3374.03
3343.45
3313.95
3285.77
3259.11
3234.1
3210.8
3189.26
3169.49
3151.48
3135.24
3120.73
3107.94
3096.84
3087.39
3079.59
3073.41
3068.83
3065.84
3064.41
3064.55
3066.15
3069.25
3073.86
3079.99
3087.62
3096.75
3107.38
3119.52
3133.15
3148.31
3165
3183.26
3203.09
3224.52
3247.53
3272.11
3298.21
3325.75
3354.63
3384.7
3415.8
3447.65
3480.02
3512.64
3545.21
3577.39
3608.84
3639.18
3668.06
3695.09
3719.91
3742.16
3761.5
3777.62
3790.24
3799.11
3804.05
3804.91
3801.63
3794.27
3782.85
3767.51
3748.48
3726.03
3700.48
3672.22
3641.65
3609.21
3575.36
3540.56
3505.24
3469.86
3434.82
3400.51
3367.24
3335.32
3304.98
3276.43
3249.8
3225.19
3202.65
3182.18
3163.76
3147.35
3132.89
3120.28
3109.44
3100.28
3092.71
3086.65
3082.01
3078.74
3076.76
3076.06
3076.6
3078.34
3081.28
3085.43
3090.79
3097.41
3105.3
3114.52
3125.11
3137.12
3150.59
3165.58
3182.13
3200.26
3220.01
3241.38
3264.35
3288.9
3314.97
3342.47
3371.29
3401.29
3432.28
3464.04
3496.27
3528.66
3560.88
3592.55
3623.24
3652.53
3680
3705.2
3727.74
3747.22
3763.3
3775.69
3784.14
3788.47
3788.56
3784.38
3776.03
3763.57
3747.2
3727.21
3703.91
3677.71
3649.05
3618.37
3586.15
3552.87
3518.98
3484.92
3451.07
3417.83
3385.5
3354.37
3324.67
3296.58
3270.2
3245.64
3222.93
3202.08
3183.07
3165.87
3150.43
3136.69
3124.61
3114.1
3105.12
3097.6
3091.48
3086.72
3083.25
3081.03
3080.05
3080.28
3081.67
3084.24
3087.98
3092.91
3099.05
3106.42
3115.05
3124.99
3136.29
3148.99
3163.14
3178.79
3195.97
3214.71
3235.02
3256.89
3280.3
3305.18
3331.46
3359.04
3387.78
3417.51
3448.04
3479.1
3510.42
3541.68
3572.53
3602.59
3631.47
3658.73
3683.96
3706.75
3726.71
3743.46
3756.69
3766.13
3771.57
3772.86
3769.96
3762.93
3751.81
3736.83
3718.23
3696.36
3671.59
3644.34
3615.05
3584.17
3552.14
3519.39
3486.33
3453.48
3425.08
3393.9
3363.59
3334.48
3306.81
3280.73
3256.34
3233.72
3212.9
3193.9
3176.69
3161.25
3147.51
3135.39
3124.81
3115.68
3107.88
3101.31
3095.88
3091.51
3088.11
3085.65
3084.11
3083.5
3083.87
3085.35
3088
3091.93
3097.29
3104.21
3112.81
3123.22
3135.51
3149.77
3166.02
3184.27
3204.49
3226.65
3250.67
3276.41
3303.73
3332.43
3362.28
3392.98
3424.16
3455.77
3487.4
3518.66
3549.15
3578.52
3606.41
3632.49
3656.43
3677.94
3696.78
3712.74
3725.66
3735.42
3741.96
3745.25
3744.65
3740.84
3733.88
3723.87
3710.93
3695.24
3677
3656.44
3633.8
3609.36
3583.46
3556.48
3528.94
2974.44
2968.69
2964.3
2961.27
2959.56
2959.19
2960.11
2962.41
2966.02
2970.95
2977.23
2984.89
2993.97
3004.53
3016.62
3030.29
3045.61
3062.59
3081.28
3101.72
3123.9
3147.84
3173.51
3200.86
3229.81
3260.32
3290.5
3323.29
3356.86
3390.92
3425.15
3459.23
3492.74
3525.3
3556.47
3585.83
3613.01
3637.62
3659.3
3677.72
3692.62
3703.76
3710.99
3714.17
3713.16
3708.07
3699
3686.07
3669.47
3649.45
3626.34
3600.45
3572.16
3541.87
3509.96
3476.86
3442.99
3408.73
3374.47
3340.57
3307.4
3275.53
3244.93
3215.4
3187.19
3160.53
3135.52
3112.22
3090.68
3070.92
3052.93
3036.69
3022.19
3009.42
2998.33
2988.89
2981.1
2974.92
2970.35
2967.37
2965.95
2966.08
2967.69
2970.79
2975.4
2981.53
2989.16
2998.28
3008.91
3021.04
3034.66
3049.81
3066.5
3084.74
3104.57
3125.98
3148.99
3173.58
3199.68
3227.24
3256.14
3286.24
3317.39
3349.29
3381.72
3414.41
3447.06
3479.32
3510.86
3541.3
3570.27
3597.4
3622.33
3644.68
3664.11
3680.31
3692.99
3701.92
3706.89
3707.77
3704.49
3697.1
3685.63
3670.23
3651.11
3628.56
3602.9
3574.52
3543.83
3511.28
3477.31
3442.4
3406.99
3371.51
3336.38
3302.01
3268.68
3236.71
3206.35
3177.78
3151.14
3126.53
3103.99
3083.54
3065.15
3048.76
3034.32
3021.74
3010.92
3001.79
2994.25
2988.2
2983.59
2980.32
2978.36
2977.67
2978.21
2979.95
2982.89
2987.03
2992.39
2999
3006.88
3016.09
3026.66
3038.65
3052.11
3067.08
3083.61
3101.74
3121.48
3142.84
3165.81
3190.36
3216.44
3243.96
3272.81
3302.84
3333.88
3365.69
3397.99
3430.47
3462.78
3494.54
3525.34
3554.75
3582.33
3607.65
3630.29
3649.87
3666.04
3678.49
3686.99
3691.35
3691.45
3687.26
3678.87
3666.34
3649.9
3629.8
3606.4
3580.08
3551.29
3520.48
3488.15
3454.76
3420.77
3386.61
3352.68
3319.37
3286.99
3255.82
3226.09
3197.97
3171.6
3147.04
3124.33
3103.5
3084.5
3067.32
3051.9
3038.18
3026.11
3015.63
3006.66
2999.16
2993.06
2988.3
2984.85
2982.64
2981.67
2981.89
2983.29
2985.86
2989.6
2994.52
3000.65
3008.01
3016.63
3026.56
3037.83
3050.52
3064.66
3080.29
3097.46
3116.19
3136.5
3158.37
3181.77
3206.67
3232.96
3260.57
3289.34
3319.11
3349.69
3380.82
3412.21
3443.55
3474.5
3504.66
3533.64
3561.01
3586.36
3609.26
3629.31
3646.15
3659.46
3668.96
3674.43
3675.74
3672.84
3665.76
3654.59
3639.53
3620.85
3598.87
3574
3546.63
3517.23
3486.24
3454.1
3421.25
3388.09
3355.08
3326.79
3295.49
3265.1
3235.96
3208.25
3182.16
3157.76
3135.14
3114.33
3095.34
3078.15
3062.73
3049.01
3036.92
3026.36
3017.25
3009.48
3002.94
2997.53
2993.17
2989.79
2987.33
2985.78
2985.17
2985.52
2986.97
2989.59
2993.49
2998.82
3005.71
3014.28
3024.66
3036.93
3051.17
3067.41
3085.65
3105.88
3128.05
3152.08
3177.84
3205.2
3233.94
3263.84
3294.6
3325.85
3357.53
3389.25
3420.6
3451.18
3480.65
3508.63
3534.8
3558.82
3580.4
3599.31
3615.33
3628.28
3638.07
3644.62
3647.91
3647.3
3643.47
3636.48
3626.42
3613.43
3597.68
3579.37
3558.74
3536.03
3511.52
3485.56
3458.5
3430.89
2875.93
2870.2
2865.82
2862.8
2861.1
2860.73
2861.65
2863.95
2867.55
2872.47
2878.74
2886.38
2895.46
2906
2918.07
2931.72
2947.02
2963.98
2982.66
3003.08
3025.25
3049.18
3074.85
3102.21
3131.18
3161.76
3191.92
3224.81
3258.45
3292.59
3326.92
3361.1
3394.73
3427.4
3458.7
3488.19
3515.49
3540.22
3562.01
3580.52
3595.5
3606.71
3613.97
3617.18
3616.17
3611.04
3601.92
3588.92
3572.24
3552.12
3528.89
3502.88
3474.47
3444.04
3412.01
3378.79
3344.81
3310.44
3276.09
3242.11
3208.88
3176.98
3146.33
3116.77
3088.54
3061.87
3036.85
3013.55
2992.03
2972.27
2954.29
2938.07
2923.59
2910.83
2899.75
2890.33
2882.54
2876.37
2871.81
2868.83
2867.42
2867.56
2869.17
2872.27
2876.88
2883.01
2890.63
2899.76
2910.38
2922.49
2936.11
2951.25
2967.92
2986.15
3005.97
3027.38
3050.38
3074.97
3101.08
3128.66
3157.59
3187.72
3218.93
3250.88
3283.39
3316.16
3348.89
3381.26
3412.9
3443.45
3472.54
3499.79
3524.83
3547.29
3566.83
3583.13
3595.89
3604.88
3609.89
3610.79
3607.51
3600.08
3588.56
3573.08
3553.86
3531.19
3505.41
3476.9
3446.07
3413.37
3379.28
3344.23
3308.7
3273.12
3237.89
3203.44
3170.04
3138.03
3107.63
3079.03
3052.39
3027.78
3005.25
2984.82
2966.45
2950.09
2935.67
2923.12
2912.34
2903.24
2895.72
2889.7
2885.1
2881.86
2879.91
2879.23
2879.77
2881.51
2884.45
2888.59
2893.94
2900.53
2908.41
2917.59
2928.15
2940.12
2953.56
2968.52
2985.03
3003.14
3022.87
3044.22
3067.19
3091.75
3117.84
3145.38
3174.26
3204.33
3235.42
3267.3
3299.68
3332.25
3364.67
3396.55
3427.47
3457.01
3484.72
3510.18
3532.95
3552.64
3568.91
3581.44
3590
3594.4
3594.51
3590.31
3581.86
3569.27
3552.73
3532.52
3508.98
3482.52
3453.59
3422.64
3390.17
3356.64
3322.53
3288.26
3254.24
3220.85
3188.4
3157.19
3127.42
3099.29
3072.9
3048.34
3025.65
3004.83
2985.86
2968.7
2953.3
2939.6
2927.55
2917.09
2908.14
2900.66
2894.57
2889.84
2886.4
2884.2
2883.24
2883.46
2884.86
2887.43
2891.17
2896.08
2902.2
2909.55
2918.15
2928.06
2939.32
2951.99
2966.11
2981.73
2998.88
3017.61
3037.9
3059.77
3083.18
3108.08
3134.4
3162.03
3190.84
3220.67
3251.3
3282.5
3313.98
3345.42
3376.47
3406.75
3435.86
3463.36
3488.84
3511.86
3532.03
3548.98
3562.38
3571.94
3577.46
3578.78
3575.87
3568.75
3557.52
3542.37
3523.58
3501.49
3476.48
3448.99
3419.46
3388.34
3356.08
3323.11
3289.82
3256.65
3228.46
3197.01
3166.55
3137.35
3109.62
3083.51
3059.1
3036.48
3015.68
2996.7
2979.53
2964.13
2950.44
2938.38
2927.86
2918.78
2911.03
2904.52
2899.14
2894.8
2891.43
2888.98
2887.43
2886.8
2887.13
2888.55
2891.14
2895
2900.29
2907.14
2915.68
2926.02
2938.27
2952.49
2968.72
2986.96
3007.18
3029.36
3053.41
3079.2
3106.59
3135.38
3165.35
3196.18
3227.5
3259.28
3291.1
3322.55
3353.24
3382.82
3410.91
3437.17
3461.29
3482.97
3501.95
3518.03
3531.03
3540.84
3547.4
3550.7
3550.07
3546.22
3539.18
3529.07
3516.02
3500.2
3481.83
3461.12
3438.32
3413.73
3387.68
3360.54
3332.86
2777.37
2771.65
2767.29
2764.27
2762.59
2762.22
2763.14
2765.43
2769.03
2773.95
2780.2
2787.83
2796.88
2807.4
2819.45
2833.07
2848.35
2865.3
2883.95
2904.36
2926.52
2950.44
2976.11
3003.48
3032.48
3063.1
3093.31
3126.27
3159.99
3194.23
3228.66
3262.96
3296.72
3329.53
3360.97
3390.61
3418.05
3442.92
3464.83
3483.46
3498.53
3509.81
3517.12
3520.35
3519.33
3514.17
3504.99
3491.91
3475.13
3454.89
3431.53
3405.38
3376.82
3346.25
3314.07
3280.72
3246.61
3212.13
3177.66
3143.59
3110.3
3078.35
3047.67
3018.07
2989.81
2963.12
2938.1
2914.81
2893.29
2873.55
2855.59
2839.38
2824.92
2812.17
2801.1
2791.7
2783.92
2777.76
2773.21
2770.24
2768.83
2768.98
2770.59
2773.68
2778.3
2784.42
2792.04
2801.17
2811.79
2823.89
2837.5
2852.62
2869.28
2887.5
2907.3
2928.7
2951.7
2976.29
3002.41
3030.01
3058.97
3089.14
3120.41
3152.43
3185.02
3217.88
3250.72
3283.2
3314.96
3345.64
3374.86
3402.25
3427.42
3450.01
3469.68
3486.08
3498.94
3508
3513.06
3513.98
3510.69
3503.23
3491.63
3476.06
3456.74
3433.94
3408.01
3379.34
3348.35
3315.5
3281.24
3246.05
3210.39
3174.68
3139.34
3104.8
3071.33
3039.25
3008.81
2980.19
2953.53
2928.93
2906.41
2886
2867.66
2851.33
2836.95
2824.44
2813.69
2804.62
2797.13
2791.14
2786.57
2783.34
2781.41
2780.73
2781.28
2783.03
2785.97
2790.1
2795.44
2802.02
2809.88
2819.05
2829.58
2841.53
2854.95
2869.89
2886.38
2904.48
2924.19
2945.54
2968.51
2993.07
3019.17
3046.73
3075.64
3105.76
3136.91
3168.87
3201.34
3234.02
3266.55
3298.57
3329.64
3359.33
3387.2
3412.8
3435.71
3455.54
3471.92
3484.55
3493.18
3497.62
3497.74
3493.52
3485.02
3472.34
3455.69
3435.35
3411.66
3385.04
3355.94
3324.83
3292.2
3258.52
3224.27
3189.88
3155.75
3122.27
3089.75
3058.48
3028.67
3000.52
2974.12
2949.57
2926.89
2906.08
2887.13
2869.99
2854.62
2840.95
2828.93
2818.49
2809.57
2802.11
2796.04
2791.32
2787.89
2785.71
2784.76
2784.99
2786.39
2788.95
2792.69
2797.6
2803.7
2811.03
2819.62
2829.51
2840.76
2853.4
2867.5
2883.1
2900.24
2918.95
2939.24
2961.11
2984.52
3009.43
3035.77
3063.43
3092.29
3122.16
3152.87
3184.16
3215.73
3247.28
3278.46
3308.87
3338.12
3365.77
3391.4
3414.57
3434.88
3451.94
3465.44
3475.08
3480.65
3481.99
3479.07
3471.91
3460.59
3445.35
3426.44
3404.2
3379.05
3351.41
3321.73
3290.46
3258.07
3224.96
3191.54
3158.19
3130.06
3098.47
3067.93
3038.68
3010.91
2984.78
2960.37
2937.75
2916.95
2897.99
2880.84
2865.47
2851.8
2839.78
2829.29
2820.24
2812.53
2806.05
2800.7
2796.38
2793.03
2790.59
2789.03
2788.39
2788.69
2790.08
2792.63
2796.45
2801.69
2808.5
2817
2827.31
2839.53
2853.72
2869.94
2888.17
2908.4
2930.59
2954.65
2980.47
3007.91
3036.76
3066.79
3097.7
3129.11
3160.99
3192.93
3224.5
3255.32
3285.02
3313.23
3339.62
3363.85
3385.62
3404.69
3420.84
3433.89
3443.74
3450.32
3453.61
3452.97
3449.08
3442
3431.84
3418.72
3402.82
3384.36
3363.56
3340.67
3315.98
3289.84
3262.61
3234.83
2678.75
2673.05
2668.7
2665.7
2664.02
2663.65
2664.58
2666.87
2670.46
2675.36
2681.6
2689.21
2698.24
2708.74
2720.76
2734.36
2749.62
2766.54
2785.18
2805.56
2827.71
2851.62
2877.29
2904.67
2933.68
2964.32
2994.67
3027.68
3061.48
3095.82
3130.38
3164.82
3198.72
3231.69
3263.3
3293.09
3320.7
3345.72
3367.77
3386.53
3401.7
3413.06
3420.42
3423.68
3422.65
3417.46
3408.21
3395.04
3378.14
3357.77
3334.27
3307.96
3279.24
3248.5
3216.16
3182.66
3148.4
3113.78
3079.19
3045.01
3011.65
2979.67
2948.94
2919.29
2891
2864.3
2839.26
2815.98
2794.47
2774.75
2756.8
2740.61
2726.17
2713.44
2702.39
2693
2685.24
2679.09
2674.54
2671.58
2670.18
2670.34
2671.94
2675.04
2679.65
2685.78
2693.4
2702.52
2713.13
2725.22
2738.82
2753.93
2770.57
2788.77
2808.56
2829.94
2852.94
2877.53
2903.67
2931.29
2960.28
2990.5
3021.85
3053.94
3086.61
3119.58
3152.54
3185.14
3217.04
3247.87
3277.24
3304.78
3330.1
3352.84
3372.64
3389.17
3402.13
3411.27
3416.38
3417.33
3414.03
3406.53
3394.86
3379.19
3359.73
3336.78
3310.69
3281.85
3250.68
3217.65
3183.22
3147.86
3112.04
3076.2
3040.74
3006.09
2972.53
2940.39
2909.91
2881.26
2854.59
2829.98
2807.48
2787.09
2768.78
2752.49
2738.15
2725.68
2714.97
2705.94
2698.49
2692.52
2687.98
2684.77
2682.85
2682.19
2682.75
2684.5
2687.43
2691.56
2696.89
2703.46
2711.29
2720.44
2730.96
2742.88
2756.28
2771.19
2787.67
2805.74
2825.44
2846.78
2869.74
2894.31
2920.43
2948.02
2976.96
3007.13
3038.35
3070.4
3102.97
3135.76
3168.44
3200.6
3231.84
3261.7
3289.74
3315.51
3338.59
3358.57
3375.08
3387.81
3396.51
3401
3401.14
3396.9
3388.34
3375.56
3358.79
3338.3
3314.45
3287.64
3258.35
3227.05
3194.24
3160.4
3126
3091.46
3057.21
3023.62
2991.02
2959.69
2929.84
2901.66
2875.25
2850.7
2828.04
2807.25
2788.33
2771.22
2755.87
2742.23
2730.24
2719.83
2710.93
2703.49
2697.45
2692.75
2689.34
2687.18
2686.23
2686.47
2687.87
2690.43
2694.16
2699.06
2705.16
2712.47
2721.04
2730.91
2742.13
2754.75
2768.82
2784.4
2801.52
2820.22
2840.5
2862.37
2885.79
2910.71
2937.07
2964.77
2993.67
3023.61
3054.39
3085.78
3117.46
3149.13
3180.45
3211.02
3240.43
3268.25
3294.04
3317.37
3337.84
3355.04
3368.65
3378.38
3384
3385.37
3382.43
3375.22
3363.82
3348.46
3329.41
3307.02
3281.7
3253.89
3224.04
3192.61
3160.06
3126.81
3093.24
3059.73
3031.59
2999.87
2969.24
2939.93
2912.13
2885.97
2861.55
2838.93
2818.15
2799.2
2782.08
2766.73
2753.1
2741.11
2730.66
2721.66
2713.99
2707.54
2702.22
2697.93
2694.6
2692.16
2690.6
2689.94
2690.22
2691.57
2694.08
2697.84
2703.04
2709.8
2718.25
2728.52
2740.71
2754.88
2771.08
2789.3
2809.53
2831.73
2855.82
2881.67
2909.16
2938.06
2968.17
2999.17
3030.69
3062.69
3094.75
3126.46
3157.42
3187.26
3215.61
3242.13
3266.49
3288.37
3307.54
3323.77
3336.88
3346.76
3353.36
3356.64
3356
3352.07
3344.94
3334.71
3321.52
3305.53
3286.97
3266.06
3243.07
3218.27
3192.03
3164.69
3136.81
2580.07
2574.39
2570.06
2567.07
2565.41
2565.04
2565.97
2568.25
2571.84
2576.73
2582.95
2590.54
2599.54
2610.02
2622.01
2635.59
2650.81
2667.71
2686.32
2706.69
2728.82
2752.72
2778.39
2805.78
2834.81
2865.44
2896
2929.04
2962.93
2997.39
3032.07
3066.67
3100.73
3133.88
3165.66
3195.64
3223.42
3248.62
3270.83
3289.73
3305.02
3316.46
3323.89
3327.17
3326.13
3320.9
3311.57
3298.3
3281.28
3260.77
3237.09
3210.61
3181.71
3150.79
3118.27
3084.59
3050.17
3015.4
2980.68
2946.38
2912.92
2880.93
2850.13
2820.43
2792.11
2765.39
2740.35
2717.07
2695.57
2675.86
2657.94
2641.77
2627.35
2614.64
2603.61
2594.23
2586.48
2580.35
2575.81
2572.86
2571.47
2571.64
2573.24
2576.34
2580.95
2587.07
2594.69
2603.81
2614.41
2626.5
2640.08
2655.17
2671.79
2689.97
2709.74
2731.12
2754.11
2778.7
2804.85
2832.5
2861.53
2891.8
2923.23
2955.4
2988.17
3021.26
3054.34
3087.09
3119.14
3150.13
3179.67
3207.37
3232.86
3255.77
3275.72
3292.39
3305.47
3314.7
3319.87
3320.84
3317.54
3309.99
3298.24
3282.45
3262.85
3239.74