/*--------------------------------*- C++ -*----------------------------------*\
| =========                 |                                                 |
| \\      /  F ield         | OpenFOAM: The Open Source CFD Toolbox           |
|  \\    /   O peration     | Version:  3.0.1                                 |
|   \\  /    A nd           | Web:      www.OpenFOAM.org                      |
|    \\/     M anipulation  |                                                 |
\*---------------------------------------------------------------------------*/
FoamFile
{
    version     2.0;
    format      ascii;
    class       volScalarField;
    location    "36.4";
    object      p;
}
// * * * * * * * * * * * * * * * * * * * * * * * * * * * * * * * * * * * * * //

dimensions      [1 -1 -2 0 0 0 0];

internalField   nonuniform List<scalar> 
21420
(
4196
4167.7
4137.83
4106.71
4074.65
4041.98
4009.02
3976.03
3943.33
3911.24
3880.03
3849.96
3821.2
3792.66
3767.32
3743.59
3721.54
3701.24
3682.66
3665.79
3650.61
3637.07
3625.11
3614.69
3605.75
3598.23
3592.08
3587.27
3583.76
3581.52
3580.53
3580.81
3582.38
3585.12
3589.17
3594.57
3601.36
3609.58
3619.3
3630.57
3643.47
3658.05
3674.39
3692.53
3712.49
3734.29
3757.93
3783.37
3810.58
3839.66
3867.25
3898.41
3930.32
3962.89
3995.77
4028.74
4061.39
4093.31
4124.16
4153.53
4181.04
4206.33
4229.02
4248.81
4265.45
4278.65
4288.24
4294.07
4295.91
4293.74
4287.84
4278.23
4264.83
4247.78
4227.32
4203.7
4177.24
4148.27
4117.19
4084.42
4050.39
4015.55
3980.31
3945.11
3910.38
3876.41
3841.8
3807.99
3775.9
3746.08
3718.47
3693.07
3669.81
3648.68
3629.6
3612.51
3597.35
3584.05
3572.56
3562.81
3554.74
3548.28
3543.38
3539.96
3537.99
3537.42
3538.24
3540.42
3543.95
3548.82
3555.07
3562.69
3571.74
3582.22
3594.18
3607.66
3622.7
3639.31
3657.53
3677.38
3698.83
3721.89
3746.49
3772.56
3799.98
3828.58
3859.16
3889.77
3921.14
3952.95
3984.86
4016.55
4047.63
4077.71
4106.4
4133.27
4157.93
4179.98
4199.05
4214.83
4227.01
4235.38
4239.76
4239.96
4236.15
4228.24
4216.36
4200.66
4181.4
4158.87
4133.39
4105.35
4075.14
4043.18
4009.93
3975.82
3941.3
3906.78
3872.68
3839.35
3807.21
3776.37
3747.12
3719.64
3694.04
3670.38
3648.69
3628.96
3611.16
3595.23
3581.1
3568.69
3557.93
3548.73
3541.04
3534.78
3529.91
3526.37
3524.11
3523.11
3523.36
3524.8
3527.43
3531.27
3536.31
3542.58
3550.11
3558.93
3569.1
3580.67
3593.66
3608.14
3624.15
3641.71
3660.83
3681.53
3703.78
3727.56
3752.81
3779.42
3807.3
3836.32
3866.2
3896.73
3927.64
3958.64
3989.39
4019.53
4048.67
4076.41
4102.35
4126.08
4147.22
4165.4
4180.31
4191.65
4199.2
4202.81
4202.3
4197.81
4189.35
4176.97
4160.92
4141.46
4118.91
4093.65
4066.08
4036.64
4005.77
3973.92
3941.51
3908.96
3876.63
3844.87
3813.99
3784.24
3755.82
3728.91
3703.62
3680.04
3658.21
3638.16
3619.86
3603.27
3588.33
3575
3563.2
3552.85
3543.91
3536.3
3529.97
3524.88
3521
3518.28
3516.72
3516.32
3517.05
3518.92
3521.95
3526.16
3531.59
3538.26
3546.22
3555.51
3566.15
3578.2
3591.68
3606.62
3623.01
3640.84
3660.06
3680.61
3702.33
3724.99
3748.17
3771.39
3809.75
3840.21
3873.3
3907.36
3941.94
3976.8
4011.51
4045.63
4078.71
4110.27
4139.67
4166.51
4190.11
4210.05
4225.73
4236.44
4242.24
4244.87
4243.41
4237.71
4228.1
4214.81
4198.09
4178.13
4155.41
4130.17
4102.87
4074.01
4043.88
4012.88
3981.47
3949.79
3918.18
3886.59
3855.87
3833.69
3806.74
3780.64
3755.73
3732.2
3710.19
3689.76
3670.94
3653.75
3638.17
3624.19
3611.77
3600.9
3591.57
3583.74
3577.44
3572.64
3569.36
3567.63
3567.42
3568.76
3571.71
3576.25
3582.38
3590.09
3599.39
3610.25
3622.67
3636.61
3652.05
3668.97
3687.31
3707.06
3728.15
3750.53
3774.19
3799.05
3825.14
3853
3880.51
3908.49
3936.8
3965.32
3993.92
4022.26
4050.1
4097.97
4069.66
4039.77
4008.63
3976.56
3943.87
3910.9
3877.9
3845.18
3813.09
3781.87
3751.78
3723.01
3694.49
3669.15
3645.41
3623.37
3603.06
3584.48
3567.62
3552.45
3538.9
3526.95
3516.53
3507.59
3500.07
3493.93
3489.12
3485.61
3483.37
3482.38
3482.66
3484.22
3486.96
3491.02
3496.42
3503.2
3511.42
3521.14
3532.41
3545.3
3559.88
3576.21
3594.35
3614.31
3636.11
3659.74
3685.19
3712.39
3741.44
3769.13
3800.26
3832.18
3864.75
3897.65
3930.62
3963.29
3995.23
4026.1
4055.48
4083.01
4108.31
4131.01
4150.83
4167.48
4180.69
4190.29
4196.12
4197.97
4195.8
4189.89
4180.28
4166.87
4149.81
4129.34
4105.7
4079.22
4050.23
4019.13
3986.35
3952.3
3917.44
3882.18
3846.97
3812.23
3778.24
3743.64
3709.81
3677.72
3647.9
3620.29
3594.88
3571.62
3550.49
3531.42
3514.33
3499.17
3485.87
3474.38
3464.64
3456.58
3450.12
3445.21
3441.8
3439.83
3439.26
3440.08
3442.26
3445.79
3450.67
3456.91
3464.54
3473.58
3484.05
3496.02
3509.5
3524.53
3541.14
3559.36
3579.2
3600.66
3623.71
3648.31
3674.39
3701.82
3730.44
3760.97
3791.61
3823
3854.82
3886.75
3918.44
3949.54
3979.64
4008.34
4035.24
4059.91
4081.98
4101.07
4116.86
4129.05
4137.43
4141.81
4142.03
4138.2
4130.29
4118.4
4102.69
4083.42
4060.87
4035.37
4007.31
3977.08
3945.11
3911.83
3877.71
3843.17
3808.64
3774.52
3741.18
3709.03
3678.18
3648.93
3621.45
3595.85
3572.19
3550.5
3530.78
3512.98
3497.05
3482.92
3470.52
3459.76
3450.57
3442.88
3436.62
3431.75
3428.22
3425.96
3424.96
3425.21
3426.65
3429.28
3433.12
3438.16
3444.43
3451.96
3460.78
3470.95
3482.5
3495.5
3509.97
3525.98
3543.54
3562.66
3583.35
3605.61
3629.39
3654.63
3681.26
3709.13
3738.17
3768.05
3798.59
3829.51
3860.53
3891.29
3921.44
3950.6
3978.36
4004.31
4028.06
4049.22
4067.42
4082.34
4093.69
4101.25
4104.88
4104.36
4099.87
4091.4
4079.01
4062.94
4043.46
4020.9
3995.62
3968.03
3938.57
3907.69
3875.81
3843.39
3810.82
3778.48
3746.71
3715.82
3686.07
3657.64
3630.72
3605.43
3581.85
3560.03
3539.98
3521.68
3505.09
3490.16
3476.83
3465.04
3454.7
3445.75
3438.15
3431.82
3426.74
3422.85
3420.13
3418.58
3418.18
3418.9
3420.77
3423.8
3428.01
3433.43
3440.11
3448.07
3457.35
3467.99
3480.04
3493.52
3508.46
3524.85
3542.68
3561.9
3582.45
3604.18
3626.84
3650.04
3673.29
3711.56
3742.05
3775.17
3809.24
3843.84
3878.71
3913.44
3947.58
3980.68
4012.26
4041.68
4068.54
4092.16
4112.12
4127.81
4138.56
4144.4
4146.98
4145.49
4139.79
4130.18
4116.86
4100.13
4080.15
4057.4
4032.14
4004.82
3975.95
3945.79
3914.78
3883.35
3851.67
3820.05
3788.46
3757.73
3735.5
3708.56
3682.46
3657.55
3634.02
3612.02
3591.58
3572.77
3555.58
3540
3526.02
3513.61
3502.74
3493.4
3485.58
3479.27
3474.48
3471.2
3469.47
3469.26
3470.6
3473.55
3478.09
3484.22
3491.93
3501.22
3512.09
3524.5
3538.44
3553.88
3570.8
3589.15
3608.9
3629.99
3652.37
3676.03
3700.89
3726.98
3754.87
3782.38
3810.36
3838.67
3867.2
3895.8
3924.16
3952.01
4000.01
3971.66
3941.74
3910.57
3878.47
3845.75
3812.75
3779.72
3746.98
3714.87
3683.63
3653.53
3624.73
3596.25
3570.89
3547.15
3525.11
3504.81
3486.23
3469.38
3454.21
3440.67
3428.72
3418.31
3409.37
3401.86
3395.72
3390.92
3387.41
3385.17
3384.19
3384.46
3385.99
3388.76
3392.81
3398.21
3404.99
3413.2
3422.91
3434.18
3447.07
3461.64
3477.96
3496.1
3516.05
3537.85
3561.48
3586.92
3614.11
3643.1
3670.99
3702.07
3733.98
3766.57
3799.49
3832.49
3865.19
3897.16
3928.06
3957.48
3985.05
4010.38
4033.11
4052.96
4069.63
4082.87
4092.48
4098.32
4100.2
4098.01
4092.11
4082.48
4069.05
4051.97
4031.47
4007.8
3981.29
3952.26
3921.13
3888.3
3854.22
3819.33
3784.03
3748.79
3714.03
3680.02
3645.41
3611.56
3579.46
3549.63
3522.01
3496.61
3473.35
3452.22
3433.15
3416.07
3400.91
3387.62
3376.14
3366.4
3358.34
3351.9
3346.99
3343.59
3341.62
3341.05
3341.88
3344.06
3347.58
3352.46
3358.7
3366.32
3375.36
3385.83
3397.79
3411.27
3426.29
3442.9
3461.12
3480.96
3502.41
3525.46
3550.07
3576.14
3603.59
3632.25
3662.72
3693.4
3724.81
3756.65
3788.61
3820.34
3851.46
3881.6
3910.34
3937.27
3961.98
3984.09
4003.21
4019.03
4031.25
4039.64
4044.03
4044.27
4040.41
4032.49
4020.58
4004.85
3985.55
3962.97
3937.44
3909.33
3879.06
3847.05
3813.74
3779.58
3745.01
3710.45
3676.31
3642.95
3610.77
3579.91
3550.66
3523.17
3497.56
3473.91
3452.22
3432.51
3414.72
3398.8
3384.68
3372.28
3361.53
3352.35
3344.66
3338.41
3333.55
3330.01
3327.76
3326.76
3327.02
3328.46
3331.09
3334.92
3339.96
3346.23
3353.75
3362.57
3372.73
3384.28
3397.27
3411.74
3427.74
3445.3
3464.42
3485.11
3507.37
3531.15
3556.39
3583.02
3610.91
3639.95
3669.85
3700.41
3731.35
3762.39
3793.19
3823.37
3852.56
3880.36
3906.35
3930.13
3951.33
3969.56
3984.51
3995.88
4003.46
4007.09
4006.59
4002.07
3993.59
3981.18
3965.09
3945.58
3922.98
3897.66
3870.04
3840.54
3809.61
3777.71
3745.25
3712.65
3680.28
3648.5
3617.59
3587.82
3559.39
3532.46
3507.17
3483.59
3461.77
3441.72
3423.43
3406.85
3391.93
3378.6
3366.81
3356.48
3347.54
3339.94
3333.62
3328.54
3324.65
3321.94
3320.39
3319.99
3320.71
3322.58
3325.6
3329.81
3335.23
3341.9
3349.86
3359.14
3369.78
3381.81
3395.29
3410.23
3426.62
3444.45
3463.67
3484.23
3505.97
3528.66
3551.88
3575.16
3613.3
3643.84
3676.99
3711.1
3745.73
3780.63
3815.4
3849.58
3882.72
3914.35
3943.81
3970.7
3994.37
4014.35
4030.07
4040.89
4046.82
4049.29
4047.76
4042.05
4032.42
4019.08
4002.3
3982.28
3959.49
3934.19
3906.83
3877.91
3847.72
3816.68
3785.22
3753.51
3721.87
3690.28
3659.56
3637.23
3610.3
3584.2
3559.3
3535.77
3513.76
3493.33
3474.52
3457.34
3441.77
3427.79
3415.38
3404.52
3395.18
3387.36
3381.05
3376.26
3372.98
3371.25
3371.03
3372.37
3375.32
3379.86
3385.99
3393.7
3403
3413.86
3426.27
3440.21
3455.66
3472.58
3490.92
3510.68
3531.77
3554.15
3577.81
3602.67
3628.76
3656.7
3684.21
3712.19
3740.52
3769.06
3797.68
3826.05
3853.92
3902.12
3873.73
3843.75
3812.53
3780.38
3747.62
3714.58
3681.51
3648.74
3616.59
3585.33
3555.2
3526.37
3497.94
3472.56
3448.82
3426.77
3406.48
3387.91
3371.06
3355.9
3342.37
3330.43
3320.03
3311.1
3303.59
3297.46
3292.66
3289.16
3286.93
3285.94
3286.21
3287.72
3290.5
3294.55
3299.95
3306.71
3314.92
3324.62
3335.88
3348.76
3363.32
3379.64
3397.77
3417.72
3439.5
3463.13
3488.57
3515.75
3544.65
3572.81
3603.82
3635.73
3668.35
3701.3
3734.35
3767.1
3799.11
3830.06
3859.54
3887.15
3912.53
3935.31
3955.2
3971.91
3985.18
3994.82
4000.68
4002.57
4000.39
3994.48
3984.83
3971.38
3954.27
3933.72
3910.01
3883.44
3854.36
3823.17
3790.29
3756.15
3721.2
3685.86
3650.58
3615.78
3581.73
3547.12
3513.22
3481.11
3451.27
3423.65
3398.25
3374.99
3353.87
3334.8
3317.72
3302.58
3289.3
3277.83
3268.1
3260.05
3253.61
3248.71
3245.31
3243.35
3242.79
3243.62
3245.8
3249.32
3254.19
3260.43
3268.05
3277.08
3287.55
3299.5
3312.97
3327.99
3344.59
3362.8
3382.64
3404.09
3427.14
3451.75
3477.83
3505.3
3534
3564.4
3595.14
3626.59
3658.46
3690.46
3722.23
3753.4
3783.59
3812.39
3839.37
3864.14
3886.3
3905.47
3921.33
3933.58
3942
3946.41
3946.67
3942.78
3934.85
3922.91
3907.15
3887.8
3865.17
3839.58
3811.42
3781.09
3749.02
3715.66
3681.44
3646.82
3612.21
3578.03
3544.64
3512.44
3481.56
3452.29
3424.8
3399.19
3375.54
3353.86
3334.15
3316.37
3300.47
3286.36
3273.98
3263.24
3254.06
3246.39
3240.15
3235.29
3231.76
3229.51
3228.52
3228.77
3230.21
3232.84
3236.67
3241.71
3247.97
3255.49
3264.3
3274.46
3286
3298.98
3313.45
3329.44
3346.99
3366.1
3386.79
3409.05
3432.83
3458.08
3484.72
3512.62
3541.67
3571.6
3602.18
3633.17
3664.24
3695.08
3725.31
3754.56
3782.4
3808.45
3832.29
3853.54
3871.82
3886.81
3898.22
3905.82
3909.46
3908.98
3904.44
3895.93
3883.5
3867.37
3847.81
3825.15
3799.78
3772.09
3742.53
3711.55
3679.59
3647.08
3614.44
3582.04
3550.22
3519.29
3489.5
3461.05
3434.12
3408.82
3385.24
3363.43
3343.39
3325.1
3308.53
3293.62
3280.31
3268.53
3258.21
3249.28
3241.69
3235.37
3230.29
3226.41
3223.7
3222.16
3221.75
3222.47
3224.34
3227.36
3231.57
3236.98
3243.64
3251.59
3260.87
3271.5
3283.53
3297.01
3311.94
3328.32
3346.15
3365.39
3385.95
3407.71
3430.42
3453.68
3477.01
3514.98
3545.57
3578.79
3612.94
3647.62
3682.57
3717.39
3751.63
3784.83
3816.52
3846.05
3873.01
3896.72
3916.75
3932.52
3943.44
3949.46
3951.81
3950.21
3944.49
3934.83
3921.44
3904.61
3884.53
3861.68
3836.31
3808.89
3779.91
3749.67
3718.58
3687.08
3655.33
3623.67
3592.07
3561.35
3538.87
3511.97
3485.87
3460.97
3437.44
3415.44
3395.01
3376.21
3359.03
3343.47
3329.49
3317.09
3306.23
3296.9
3289.08
3282.77
3277.98
3274.7
3272.97
3272.74
3274.09
3277.04
3281.57
3287.7
3295.41
3304.7
3315.57
3327.98
3341.92
3357.37
3374.29
3392.64
3412.39
3433.48
3455.87
3479.54
3504.39
3530.48
3558.5
3586
3613.99
3642.33
3670.89
3699.53
3727.94
3755.84
3804.3
3775.84
3745.8
3714.51
3682.3
3649.48
3616.38
3583.26
3550.44
3518.26
3486.96
3456.79
3427.92
3399.56
3374.15
3350.4
3328.36
3308.07
3289.51
3272.67
3257.52
3244
3232.08
3221.68
3212.76
3205.27
3199.15
3194.35
3190.86
3188.63
3187.64
3187.91
3189.41
3192.19
3196.24
3201.63
3208.39
3216.58
3226.27
3237.52
3250.38
3264.93
3281.23
3299.36
3319.3
3341.08
3364.7
3390.14
3417.3
3446.12
3474.57
3505.51
3537.44
3570.09
3603.09
3636.19
3669
3701.08
3732.1
3761.64
3789.32
3814.77
3837.61
3857.56
3874.32
3887.63
3897.31
3903.18
3905.08
3902.93
3897.02
3887.34
3873.85
3856.69
3836.09
3812.31
3785.68
3756.52
3725.25
3692.3
3658.09
3623.07
3587.66
3552.33
3517.48
3483.39
3448.76
3414.81
3382.68
3352.83
3325.21
3299.8
3276.55
3255.43
3236.37
3219.3
3204.16
3190.9
3179.44
3169.72
3161.69
3155.26
3150.38
3146.98
3145.02
3144.47
3145.3
3147.48
3151
3155.88
3162.11
3169.72
3178.74
3189.21
3201.15
3214.61
3229.62
3246.21
3264.42
3284.25
3305.7
3328.75
3353.36
3379.45
3406.94
3435.69
3466.02
3496.82
3528.32
3560.24
3592.29
3624.12
3655.36
3685.61
3714.48
3741.54
3766.38
3788.61
3807.85
3823.76
3836.07
3844.52
3848.94
3849.22
3845.31
3837.36
3825.39
3809.58
3790.17
3767.47
3741.81
3713.57
3683.17
3651.02
3617.58
3583.29
3548.6
3513.93
3479.7
3446.27
3414.02
3383.12
3353.83
3326.33
3300.72
3277.07
3255.41
3235.71
3217.95
3202.06
3187.97
3175.6
3164.88
3155.72
3148.05
3141.82
3136.97
3133.45
3131.21
3130.23
3130.48
3131.92
3134.55
3138.38
3143.41
3149.67
3157.18
3165.98
3176.13
3187.66
3200.63
3215.09
3231.07
3248.61
3267.72
3288.41
3310.66
3334.44
3359.7
3386.35
3414.27
3443.34
3473.3
3503.92
3534.95
3566.08
3596.97
3627.27
3656.58
3684.5
3710.62
3734.54
3755.85
3774.2
3789.24
3800.7
3808.33
3811.99
3811.53
3806.97
3798.43
3785.95
3769.77
3750.14
3727.42
3701.96
3674.2
3644.56
3613.51
3581.47
3548.9
3516.2
3483.74
3451.88
3420.92
3391.1
3362.64
3335.69
3310.39
3286.81
3265
3244.97
3226.7
3210.14
3195.25
3181.95
3170.18
3159.88
3150.96
3143.38
3137.07
3132
3128.13
3125.42
3123.88
3123.47
3124.19
3126.05
3129.07
3133.27
3138.68
3145.33
3153.28
3162.54
3173.16
3185.19
3198.66
3213.58
3229.96
3247.8
3267.04
3287.62
3309.4
3332.15
3355.46
3378.83
3416.6
3447.25
3480.55
3514.76
3549.5
3584.52
3619.42
3653.73
3687.02
3718.79
3748.41
3775.45
3799.24
3819.33
3835.16
3846.18
3852.3
3854.54
3852.87
3847.12
3837.41
3823.96
3807.05
3786.89
3763.96
3738.5
3711
3681.95
3651.63
3620.47
3588.91
3557.12
3525.42
3493.82
3463.11
3440.43
3413.55
3387.46
3362.55
3339.03
3317.03
3296.61
3277.82
3260.65
3245.09
3231.13
3218.73
3207.88
3198.55
3190.74
3184.43
3179.64
3176.36
3174.62
3174.39
3175.74
3178.69
3183.22
3189.35
3197.06
3206.35
3217.21
3229.63
3243.57
3259.01
3275.93
3294.29
3314.05
3335.14
3357.53
3381.2
3406.05
3432.13
3460.26
3487.77
3515.76
3544.12
3572.71
3601.38
3629.82
3657.77
3706.56
3678.01
3647.89
3616.52
3584.23
3551.33
3518.16
3484.98
3452.1
3419.87
3388.53
3358.31
3329.39
3301.1
3275.66
3251.9
3229.87
3209.58
3191.04
3174.21
3159.07
3145.57
3133.66
3123.28
3114.37
3106.89
3100.78
3095.99
3092.5
3090.28
3089.3
3089.56
3091.06
3093.83
3097.88
3103.26
3110
3118.18
3127.86
3139.09
3151.94
3166.47
3182.76
3200.87
3220.8
3242.57
3266.19
3291.62
3318.77
3347.51
3376.27
3407.15
3439.09
3471.79
3504.85
3538.01
3570.9
3603.06
3634.16
3663.79
3691.56
3717.09
3740.01
3760.03
3776.86
3790.22
3799.94
3805.84
3807.76
3805.63
3799.71
3789.99
3776.47
3759.25
3738.58
3714.72
3687.99
3658.75
3627.38
3594.34
3560.04
3524.92
3489.44
3454.04
3419.13
3385
3350.33
3316.32
3284.17
3254.31
3226.68
3201.27
3178.02
3156.9
3137.85
3120.8
3105.67
3092.42
3080.98
3071.28
3063.26
3056.85
3051.98
3048.6
3046.65
3046.1
3046.93
3049.11
3052.64
3057.5
3063.73
3071.34
3080.35
3090.8
3102.73
3116.18
3131.18
3147.76
3165.96
3185.78
3207.23
3230.28
3254.89
3281
3308.51
3337.31
3367.6
3398.46
3430.01
3461.99
3494.1
3526
3557.32
3587.67
3616.62
3643.78
3668.71
3691.03
3710.35
3726.34
3738.7
3747.19
3751.64
3751.93
3748.02
3740.03
3728.01
3712.14
3692.66
3669.87
3644.12
3615.79
3585.28
3553.04
3519.5
3485.12
3450.35
3415.61
3381.31
3347.83
3315.53
3284.6
3255.29
3227.78
3202.17
3178.52
3156.87
3137.19
3119.45
3103.58
3089.51
3077.16
3066.46
3057.31
3049.66
3043.44
3038.61
3035.1
3032.86
3031.89
3032.14
3033.58
3036.22
3040.04
3045.07
3051.31
3058.81
3067.61
3077.74
3089.26
3102.21
3116.66
3132.63
3150.16
3169.26
3189.95
3212.2
3235.98
3261.25
3287.91
3315.85
3344.95
3374.95
3405.62
3436.7
3467.89
3498.86
3529.24
3558.64
3586.65
3612.86
3636.87
3658.27
3676.7
3691.82
3703.33
3711
3714.68
3714.23
3709.65
3701.07
3688.55
3672.29
3652.59
3629.77
3604.22
3576.36
3546.63
3515.47
3483.35
3450.7
3417.92
3385.4
3353.49
3322.48
3292.63
3264.14
3237.18
3211.88
3188.3
3166.5
3146.48
3128.22
3111.68
3096.81
3083.53
3071.78
3061.49
3052.59
3045.02
3038.72
3033.66
3029.79
3027.09
3025.55
3025.14
3025.86
3027.72
3030.74
3034.93
3040.32
3046.97
3054.9
3064.15
3074.77
3086.79
3100.24
3115.16
3131.54
3149.37
3168.62
3189.22
3211.03
3233.82
3257.2
3280.63
3318.14
3348.88
3382.27
3416.56
3451.38
3486.48
3521.47
3555.88
3589.27
3621.16
3650.88
3678.03
3701.92
3722.09
3738
3749.12
3755.31
3757.48
3755.74
3749.94
3740.17
3726.63
3709.64
3689.37
3666.33
3640.77
3613.16
3584.01
3553.6
3522.36
3490.74
3458.89
3427.14
3395.52
3364.82
3341.92
3315.06
3288.97
3264.07
3240.54
3218.55
3198.14
3179.36
3162.2
3146.66
3132.7
3120.31
3109.47
3100.15
3092.33
3086.03
3081.24
3077.96
3076.22
3075.98
3077.33
3080.28
3084.81
3090.93
3098.64
3107.93
3118.79
3131.21
3145.15
3160.6
3177.52
3195.87
3215.64
3236.74
3259.13
3282.81
3307.65
3333.73
3361.99
3389.49
3417.5
3445.88
3474.5
3503.21
3531.7
3559.71
3608.88
3580.23
3550.01
3518.54
3486.16
3453.17
3419.91
3386.65
3353.71
3321.41
3290.03
3259.76
3230.78
3202.56
3177.09
3153.33
3131.29
3111.02
3092.49
3075.68
3060.56
3047.07
3035.18
3024.81
3015.93
3008.46
3002.36
2997.58
2994.1
2991.88
2990.91
2991.17
2992.67
2995.43
2999.46
3004.83
3011.56
3019.73
3029.38
3040.59
3053.42
3067.94
3084.2
3102.3
3122.22
3143.98
3167.6
3193.03
3220.16
3248.84
3277.89
3308.72
3340.69
3373.45
3406.58
3439.82
3472.8
3505.06
3536.26
3565.99
3593.86
3619.5
3642.51
3662.61
3679.52
3692.95
3702.72
3708.66
3710.59
3708.49
3702.56
3692.8
3679.22
3661.94
3641.18
3617.23
3590.4
3561.04
3529.56
3496.4
3461.99
3426.77
3391.19
3355.71
3320.73
3286.56
3251.81
3217.75
3185.57
3155.7
3128.06
3102.65
3079.4
3058.29
3039.25
3022.21
3007.11
2993.87
2982.45
2972.77
2964.77
2958.38
2953.52
2950.15
2948.21
2947.68
2948.51
2950.69
2954.21
2959.08
2965.3
2972.89
2981.9
2992.34
3004.26
3017.69
3032.67
3049.25
3067.43
3087.24
3108.69
3131.74
3156.36
3182.48
3210.01
3238.86
3269.12
3300.04
3331.65
3363.71
3395.9
3427.89
3459.3
3489.75
3518.82
3546.08
3571.12
3593.55
3612.97
3629.04
3641.47
3650.02
3654.5
3654.8
3650.89
3642.86
3630.78
3614.83
3595.26
3572.38
3546.52
3518.07
3487.44
3455.08
3421.43
3386.94
3352.07
3317.24
3282.86
3249.31
3216.96
3185.99
3156.66
3129.13
3103.52
3079.88
3058.24
3038.58
3020.86
3005.02
2990.98
2978.65
2967.97
2958.85
2951.21
2945.01
2940.19
2936.69
2934.47
2933.5
2933.75
2935.2
2937.83
2941.65
2946.67
2952.91
2960.4
2969.18
2979.29
2990.79
3003.74
3018.17
3034.13
3051.64
3070.74
3091.41
3113.66
3137.45
3162.73
3189.41
3217.37
3246.5
3276.55
3307.28
3338.42
3369.69
3400.75
3431.22
3460.72
3488.84
3515.17
3539.29
3560.8
3579.32
3594.52
3606.1
3613.83
3617.53
3617.08
3612.5
3603.87
3591.28
3574.95
3555.15
3532.22
3506.56
3478.57
3448.72
3417.45
3385.22
3352.47
3319.6
3287.01
3255.03
3223.98
3194.09
3165.57
3138.6
3113.28
3089.7
3067.91
3047.91
3029.67
3013.15
2998.3
2985.04
2973.31
2963.04
2954.16
2946.61
2940.33
2935.27
2931.42
2928.72
2927.18
2926.77
2927.49
2929.34
2932.35
2936.53
2941.92
2948.56
2956.48
2965.71
2976.31
2988.32
3001.77
3016.68
3033.05
3050.89
3070.15
3090.76
3112.61
3135.46
3158.92
3182.42
3219.59
3250.45
3283.96
3318.35
3353.25
3388.45
3423.55
3458.07
3491.59
3523.62
3553.47
3580.74
3604.75
3625.03
3641.04
3652.25
3658.51
3660.62
3658.81
3652.95
3643.1
3629.45
3612.35
3591.97
3568.8
3543.11
3515.37
3486.11
3455.59
3424.25
3392.54
3360.62
3328.82
3297.18
3266.48
3243.32
3216.49
3190.4
3165.5
3141.98
3119.99
3099.59
3080.82
3063.68
3048.15
3034.21
3021.83
3011
3001.68
2993.87
2987.57
2982.77
2979.49
2977.75
2977.51
2978.86
2981.8
2986.33
2992.46
3000.16
3009.45
3020.31
3032.73
3046.67
3062.11
3079.04
3097.4
3117.17
3138.27
3160.68
3184.36
3209.2
3235.25
3263.7
3291.18
3319.2
3347.6
3376.26
3405.02
3433.58
3461.65
3511.28
3482.51
3452.17
3420.59
3388.09
3354.99
3321.64
3288.29
3255.26
3222.9
3191.46
3161.13
3132.09
3103.93
3078.44
3054.67
3032.64
3012.38
2993.86
2977.07
2961.97
2948.51
2936.63
2926.29
2917.42
2909.97
2903.88
2899.12
2895.65
2893.43
2892.46
2892.72
2894.22
2896.97
2901
2906.35
2913.06
2921.21
2930.84
2942.03
2954.84
2969.34
2985.58
3003.66
3023.56
3045.31
3068.93
3094.35
3121.47
3150.13
3179.4
3210.23
3242.24
3275.06
3308.27
3341.62
3374.7
3407.07
3438.39
3468.24
3496.24
3521.99
3545.11
3565.31
3582.31
3595.82
3605.65
3611.63
3613.59
3611.5
3605.56
3595.76
3582.12
3564.76
3543.91
3519.84
3492.88
3463.39
3431.79
3398.49
3363.95
3328.61
3292.92
3257.34
3222.27
3188.06
3153.22
3119.1
3086.9
3057
3029.35
3003.94
2980.69
2959.59
2940.57
2923.54
2908.46
2895.25
2883.85
2874.2
2866.22
2859.84
2855
2851.65
2849.72
2849.2
2850.04
2852.22
2855.74
2860.6
2866.81
2874.4
2883.39
2893.81
2905.72
2919.13
2934.1
2950.66
2968.83
2988.63
3010.07
3033.12
3057.75
3083.88
3111.45
3140.34
3170.58
3201.58
3233.26
3265.39
3297.67
3329.76
3361.29
3391.86
3421.06
3448.45
3473.62
3496.17
3515.71
3531.89
3544.4
3553.01
3557.53
3557.84
3553.92
3545.84
3533.69
3517.66
3497.99
3474.98
3448.99
3420.41
3389.65
3357.15
3323.36
3288.75
3253.76
3218.82
3184.35
3150.73
3118.31
3087.3
3057.93
3030.39
3004.78
2981.15
2959.53
2939.89
2922.2
2906.38
2892.37
2880.08
2869.42
2860.32
2852.71
2846.52
2841.72
2838.23
2836.02
2835.06
2835.32
2836.77
2839.4
2843.22
2848.23
2854.45
2861.93
2870.69
2880.79
2892.27
2905.2
2919.61
2935.55
2953.06
2972.14
2992.81
3015.06
3038.85
3064.14
3090.83
3118.83
3148
3178.1
3208.89
3240.12
3271.47
3302.63
3333.22
3362.84
3391.09
3417.54
3441.79
3463.42
3482.06
3497.37
3509.03
3516.81
3520.54
3520.11
3515.5
3506.82
3494.16
3477.73
3457.81
3434.76
3408.96
3380.84
3350.85
3319.44
3287.09
3254.22
3221.25
3188.57
3156.52
3125.4
3095.47
3066.92
3039.93
3014.6
2991.02
2969.24
2949.25
2931.04
2914.54
2899.72
2886.49
2874.79
2864.54
2855.68
2848.15
2841.88
2836.84
2832.99
2830.3
2828.76
2828.36
2829.07
2830.92
2833.92
2838.09
2843.47
2850.09
2858
2867.22
2877.8
2889.8
2903.23
2918.13
2934.5
2952.33
2971.6
2992.24
3014.13
3037.04
3060.6
3084.22
3120.96
3151.97
3185.62
3220.11
3255.12
3290.43
3325.66
3360.32
3393.99
3426.17
3456.18
3483.6
3507.75
3528.15
3544.27
3555.59
3561.92
3563.97
3562.07
3556.15
3546.21
3532.44
3515.21
3494.68
3471.36
3445.52
3417.64
3388.24
3357.59
3326.14
3294.32
3262.33
3230.45
3198.79
3168.1
3144.66
3117.85
3091.76
3066.85
3043.34
3021.36
3000.97
2982.21
2965.09
2949.58
2935.65
2923.29
2912.46
2903.15
2895.35
2889.05
2884.25
2880.97
2879.22
2878.98
2880.33
2883.27
2887.79
2893.91
2901.62
2910.9
2921.76
2934.18
2948.12
2963.57
2980.5
2998.86
3018.63
3039.74
3062.16
3085.85
3110.68
3136.71
3165.37
3192.83
3220.86
3249.3
3278.01
3306.83
3335.45
3363.6
3413.74
3384.84
3354.37
3322.65
3290.03
3256.81
3223.34
3189.88
3156.77
3124.33
3092.82
3062.43
3033.32
3005.22
2979.71
2955.93
2933.91
2913.66
2895.16
2878.39
2863.32
2849.88
2838.02
2827.7
2818.86
2811.42
2805.35
2800.61
2797.14
2794.94
2793.97
2794.23
2795.73
2798.46
2802.48
2807.81
2814.51
2822.63
2832.24
2843.4
2856.19
2870.66
2886.87
2904.93
2924.82
2946.56
2970.17
2995.59
3022.71
3051.36
3080.82
3111.67
3143.73
3176.63
3209.94
3243.4
3276.6
3309.1
3340.56
3370.55
3398.67
3424.56
3447.81
3468.13
3485.23
3498.83
3508.73
3514.75
3516.74
3514.67
3508.73
3498.88
3485.17
3467.71
3446.75
3422.55
3395.45
3365.81
3334.05
3300.61
3265.92
3230.44
3194.63
3158.93
3123.77
3089.49
3054.58
3020.38
2988.13
2958.22
2930.56
2905.14
2881.9
2860.81
2841.8
2824.8
2809.74
2796.55
2785.18
2775.55
2767.6
2761.25
2756.43
2753.09
2751.18
2750.66
2751.51
2753.69
2757.21
2762.06
2768.27
2775.84
2784.82
2795.23
2807.11
2820.51
2835.46
2852
2870.16
2889.95
2911.38
2934.43
2959.07
2985.22
3012.81
3041.74
3072
3103.06
3134.82
3167.04
3199.43
3231.64
3263.3
3294.01
3323.34
3350.89
3376.21
3398.9
3418.57
3434.87
3447.48
3456.16
3460.72
3461.04
3457.1
3448.98
3436.76
3420.62
3400.83
3377.69
3351.55
3322.81
3291.89
3259.23
3225.3
3190.54
3155.41
3120.36
3085.78
3052.07
3019.58
2988.52
2959.12
2931.56
2905.95
2882.33
2860.72
2841.11
2823.45
2807.67
2793.69
2781.43
2770.8
2761.73
2754.15
2747.98
2743.19
2739.72
2737.52
2736.58
2736.84
2738.29
2740.92
2744.73
2749.73
2755.95
2763.41
2772.15
2782.23
2793.69
2806.6
2820.99
2836.91
2854.4
2873.47
2894.13
2916.38
2940.17
2965.47
2992.19
3020.22
3049.43
3079.6
3110.46
3141.78
3173.24
3204.51
3235.23
3264.99
3293.38
3319.98
3344.38
3366.16
3384.93
3400.35
3412.1
3419.95
3423.72
3423.29
3418.66
3409.92
3397.17
3380.64
3360.59
3337.39
3311.44
3283.16
3253.01
3221.45
3188.95
3155.95
3122.86
3090.08
3057.94
3026.76
2996.78
2968.19
2941.17
2915.84
2892.26
2870.49
2850.52
2832.33
2815.87
2801.07
2787.87
2776.2
2765.98
2757.15
2749.63
2743.38
2738.36
2734.52
2731.84
2730.3
2729.9
2730.61
2732.45
2735.44
2739.6
2744.97
2751.57
2759.46
2768.66
2779.23
2791.21
2804.63
2819.51
2835.88
2853.71
2873
2893.66
2915.6
2938.58
2962.25
2986.03
3022.21
3053.44
3087.24
3121.86
3156.99
3192.43
3227.8
3262.62
3296.45
3328.81
3359
3386.6
3410.91
3431.45
3447.69
3459.13
3465.52
3467.52
3465.54
3459.53
3449.48
3435.6
3418.21
3397.51
3374.02
3348.01
3319.96
3290.39
3259.6
3228.02
3196.09
3164
3132.05
3100.34
3069.68
3045.93
3019.14
2993.04
2968.13
2944.62
2922.65
2902.28
2883.54
2866.43
2850.93
2837.02
2824.68
2813.86
2804.56
2796.76
2790.47
2785.67
2782.39
2780.64
2780.39
2781.73
2784.67
2789.19
2795.31
2803.01
2812.29
2823.15
2835.57
2849.51
2864.96
2881.89
2900.26
2920.04
2941.16
2963.59
2987.28
3012.12
3038.1
3067.02
3094.45
3122.49
3150.97
3179.72
3208.61
3237.31
3265.55
3316.28
3287.23
3256.6
3224.74
3191.97
3158.61
3125.01
3091.44
3058.22
3025.69
2994.12
2963.66
2934.47
2906.43
2880.9
2857.11
2835.1
2814.87
2796.39
2779.64
2764.59
2751.18
2739.35
2729.06
2720.23
2712.82
2706.77
2702.04
2698.59
2696.39
2695.43
2695.69
2697.18
2699.91
2703.91
2709.22
2715.9
2723.99
2733.58
2744.71
2757.47
2771.9
2788.1
2806.13
2826
2847.72
2871.33
2896.75
2923.88
2952.55
2982.15
3013.04
3045.17
3078.16
3111.58
3145.16
3178.5
3211.14
3242.75
3272.9
3301.18
3327.22
3350.61
3371.06
3388.28
3401.98
3411.96
3418.04
3420.06
3418.01
3412.04
3402.15
3388.36
3370.8
3349.71
3325.36
3298.1
3268.3
3236.37
3202.76
3167.9
3132.26
3096.3
3060.48
3025.2
2990.83
2955.89
2921.58
2889.29
2859.35
2831.68
2806.26
2783.03
2761.94
2742.95
2725.97
2710.93
2697.78
2686.44
2676.84
2668.92
2662.59
2657.8
2654.48
2652.58
2652.08
2652.93
2655.11
2658.63
2663.47
2669.67
2677.23
2686.19
2696.58
2708.45
2721.82
2736.75
2753.27
2771.41
2791.19
2812.62
2835.67
2860.31
2886.48
2914.1
2943.07
2973.36
3004.49
3036.34
3068.66
3101.17
3133.51
3165.31
3196.18
3225.68
3253.39
3278.88
3301.74
3321.55
3337.98
3350.7
3359.46
3364.07
3364.41
3360.46
3352.27
3339.97
3323.72
3303.79
3280.5
3254.19
3225.28
3194.18
3161.34
3127.23
3092.31
3057.04
3021.84
2987.15
2953.35
2920.77
2889.65
2860.22
2832.64
2807.02
2783.41
2761.83
2742.25
2724.63
2708.88
2694.94
2682.72
2672.12
2663.08
2655.52
2649.38
2644.61
2641.16
2638.98
2638.04
2638.31
2639.77
2642.4
2646.2
2651.19
2657.39
2664.83
2673.56
2683.61
2695.05
2707.93
2722.3
2738.21
2755.67
2774.73
2795.38
2817.62
2841.42
2866.74
2893.48
2921.54
2950.8
2981.04
3011.99
3043.4
3074.98
3106.39
3137.25
3167.16
3195.72
3222.49
3247.06
3268.99
3287.92
3303.46
3315.32
3323.25
3327.05
3326.64
3321.99
3313.18
3300.33
3283.67
3263.48
3240.12
3213.99
3185.53
3155.19
3123.46
3090.8
3057.65
3024.43
2991.53
2959.3
2928.05
2898.01
2869.38
2842.33
2816.99
2793.42
2771.66
2751.71
2733.55
2717.12
2702.36
2689.19
2677.55
2667.36
2658.56
2651.07
2644.84
2639.83
2636
2633.33
2631.8
2631.39
2632.1
2633.94
2636.92
2641.06
2646.41
2653
2660.87
2670.05
2680.61
2692.57
2705.97
2720.84
2737.19
2755.03
2774.33
2795.02
2817
2840.06
2863.86
2887.87
2923.34
2954.86
2988.84
3023.59
3058.85
3094.44
3129.96
3164.96
3198.99
3231.55
3261.94
3289.73
3314.22
3334.93
3351.31
3362.87
3369.33
3371.27
3369.21
3363.11
3352.93
3338.89
3321.34
3300.45
3276.77
3250.56
3222.32
3192.58
3161.63
3129.9
3097.84
3065.64
3033.61
3001.85
2971.2
2947.14
2920.35
2894.24
2869.33
2845.82
2823.86
2803.51
2784.78
2767.7
2752.22
2738.33
2726
2715.2
2705.91
2698.12
2691.82
2687.03
2683.75
2681.99
2681.73
2683.08
2686.01
2690.52
2696.64
2704.34
2713.62
2724.48
2736.89
2750.84
2766.29
2783.22
2801.59
2821.38
2842.51
2864.96
2888.65
2913.49
2939.41
2968.63
2996.02
3024.09
3052.61
3081.42
3110.38
3139.17
3167.51
3218.89
3189.67
3158.88
3126.85
3093.92
3060.4
3026.66
2992.96
2959.63
2927
2895.34
2864.82
2835.54
2807.54
2782
2758.21
2736.21
2715.99
2697.54
2680.82
2665.8
2652.41
2640.62
2630.35
2621.55
2614.17
2608.14
2603.42
2599.99
2597.8
2596.84
2597.1
2598.59
2601.3
2605.28
2610.58
2617.23
2625.29
2634.85
2645.95
2658.67
2673.08
2689.24
2707.25
2727.1
2748.8
2772.41
2797.83
2824.96
2853.67
2883.4
2914.34
2946.55
2979.64
3013.18
3046.9
3080.39
3113.2
3144.98
3175.3
3203.75
3229.96
3253.51
3274.11
3291.46
3305.27
3315.34
3321.48
3323.54
3321.5
3315.52
3305.57
3291.69
3274.02
3252.78
3228.28
3200.84
3170.85
3138.73
3104.93
3069.88
3034.07
2997.96
2961.99
2926.58
2892.08
2857.14
2822.7
2790.36
2760.39
2732.71
2707.29
2684.06
2662.99
2644.01
2627.06
2612.05
2598.93
2587.62
2578.06
2570.17
2563.87
2559.1
2555.81
2553.93
2553.44
2554.29
2556.48
2559.99
2564.83
2571.02
2578.56
2587.51
2597.88
2609.72
2623.07
2637.98
2654.47
2672.6
2692.36
2713.78
2736.83
2761.48
2787.67
2815.32
2844.34
2874.66
2905.87
2937.82
2970.25