/*--------------------------------*- C++ -*----------------------------------*\
| =========                 |                                                 |
| \\      /  F ield         | OpenFOAM: The Open Source CFD Toolbox           |
|  \\    /   O peration     | Version:  3.0.1                                 |
|   \\  /    A nd           | Web:      www.OpenFOAM.org                      |
|    \\/     M anipulation  |                                                 |
\*---------------------------------------------------------------------------*/
FoamFile
{
    version     2.0;
    format      ascii;
    class       volScalarField;
    location    "7.8";
    object      p;
}
// * * * * * * * * * * * * * * * * * * * * * * * * * * * * * * * * * * * * * //

dimensions      [1 -1 -2 0 0 0 0];

internalField   nonuniform List<scalar> 
21420
(
3572.85
3568.07
3564.63
3562.58
3561.94
3562.57
3564.59
3568.07
3573.07
3579.63
3587.82
3597.69
3609.27
3622.62
3637.76
3654.67
3673.35
3693.7
3715.64
3739.02
3763.67
3789.39
3815.97
3843.18
3870.66
3898.34
3925.91
3953.09
3979.64
4005.3
4029.82
4052.99
4074.61
4094.48
4112.45
4128.37
4142.1
4153.55
4162.61
4169.2
4173.24
4174.58
4173.26
4169.28
4162.63
4153.3
4141.35
4126.9
4110.08
4091.06
4070.08
4047.36
4023.21
3997.91
3971.8
3945.21
3918.44
3891.91
3866.07
3840.59
3815.8
3791.95
3769.24
3747.83
3727.86
3709.46
3692.72
3677.73
3664.52
3653.13
3643.58
3635.84
3629.87
3625.6
3622.99
3621.99
3622.48
3624.35
3627.52
3631.88
3637.35
3643.85
3651.3
3659.67
3668.89
3678.93
3689.78
3701.42
3713.85
3727.09
3741.13
3756
3771.7
3788.23
3805.58
3823.73
3842.62
3862.18
3882.31
3902.89
3923.78
3944.81
3965.81
3986.59
4006.93
4026.62
4045.45
4063.21
4079.68
4094.67
4107.97
4119.42
4128.88
4136.21
4141.33
4144.16
4144.66
4142.85
4138.76
4132.44
4123.99
4113.54
4101.24
4087.26
4071.82
4055.12
4037.41
4018.94
3999.93
3980.65
3961.33
3942.19
3923.44
3905.27
3887.87
3871.35
3855.85
3841.47
3828.28
3816.35
3805.71
3796.37
3788.35
3781.63
3776.19
3771.98
3768.95
3767.07
3766.29
3766.51
3767.7
3769.78
3772.7
3776.39
3780.78
3785.82
3791.44
3797.57
3804.15
3811.11
3818.4
3825.94
3833.69
3841.57
3849.54
3857.52
3865.48
3873.35
3881.09
3888.64
3895.96
3903
3909.73
3916.11
3922.1
3927.68
3932.83
3937.51
3941.73
3945.46
3948.69
3951.43
3953.68
3955.45
3956.74
3957.57
3957.95
3957.92
3957.48
3956.67
3955.52
3954.04
3952.27
3950.23
3947.97
3945.5
3942.86
3940.07
3937.17
3934.18
3931.13
3928.05
3924.95
3921.86
3918.8
3915.78
3912.82
3909.94
3907.15
3904.46
3901.87
3899.4
3897.05
3894.82
3892.72
3890.75
3888.9
3887.19
3885.6
3884.13
3882.79
3881.56
3880.45
3879.45
3878.54
3877.74
3877.03
3876.41
3875.87
3875.41
3875.02
3874.69
3874.42
3874.2
3874.04
3873.91
3873.83
3873.78
3873.77
3873.78
3873.81
3873.87
3873.94
3874.02
3874.12
3874.22
3874.33
3874.45
3874.57
3874.69
3874.81
3874.93
3875.04
3875.15
3875.26
3875.37
3875.47
3875.56
3875.65
3875.73
3875.8
3875.87
3875.93
3875.99
3876.04
3876.08
3876.12
3876.15
3876.17
3876.19
3876.21
3876.22
3876.22
3876.23
3876.22
3876.22
3876.21
3876.19
3876.18
3876.16
3876.14
3876.12
3876.09
3876.07
3876.04
3876.01
3875.98
3875.95
3875.92
3875.89
3875.86
3875.83
3875.8
3875.77
3875.74
3875.71
3875.68
3875.65
3875.62
3875.59
3875.56
3875.53
3875.51
3875.48
3875.46
3875.43
3875.41
3875.39
3875.36
3875.34
3875.32
3875.3
3875.28
3875.27
3875.25
3875.23
3875.22
3875.2
3875.19
3875.17
3875.16
3875.15
3875.13
3875.12
3875.11
3875.1
3875.09
3875.08
3875.07
3875.07
3875.06
3875.05
3875.04
3875.04
3875.03
3875.03
3875.02
3875.02
3875.01
3875.01
3875
3875
3875
3874.99
3874.99
3874.99
3874.98
3874.98
3874.98
3874.98
3874.98
3874.97
3874.97
3874.97
3874.97
3874.97
3874.97
3474.69
3469.92
3466.48
3464.43
3463.78
3464.41
3466.43
3469.91
3474.91
3481.47
3489.65
3499.52
3511.1
3524.45
3539.58
3556.5
3575.17
3595.53
3617.47
3640.85
3665.51
3691.24
3717.83
3745.05
3772.54
3800.23
3827.81
3855
3881.56
3907.23
3931.76
3954.94
3976.57
3996.45
4014.43
4030.35
4044.09
4055.54
4064.61
4071.2
4075.24
4076.59
4075.26
4071.28
4064.63
4055.3
4043.35
4028.89
4012.06
3993.03
3972.03
3949.31
3925.14
3899.83
3873.71
3847.1
3820.32
3793.79
3767.93
3742.45
3717.65
3693.79
3671.07
3649.66
3629.69
3611.29
3594.55
3579.55
3566.34
3554.96
3545.41
3537.66
3531.7
3527.43
3524.83
3523.84
3524.32
3526.2
3529.37
3533.73
3539.21
3545.71
3553.17
3561.53
3570.75
3580.8
3591.65
3603.29
3615.72
3628.95
3642.99
3657.86
3673.56
3690.09
3707.45
3725.6
3744.49
3764.05
3784.18
3804.77
3825.66
3846.7
3867.71
3888.49
3908.84
3928.55
3947.39
3965.15
3981.64
3996.63
4009.94
4021.4
4030.86
4038.2
4043.32
4046.16
4046.65
4044.84
4040.75
4034.42
4025.97
4015.51
4003.2
3989.22
3973.76
3957.06
3939.34
3920.85
3901.83
3882.54
3863.21
3844.06
3825.31
3807.13
3789.72
3773.2
3757.7
3743.32
3730.13
3718.19
3707.55
3698.22
3690.2
3683.48
3678.04
3673.83
3670.81
3668.93
3668.14
3668.37
3669.56
3671.65
3674.57
3678.26
3682.66
3687.7
3693.32
3699.45
3706.03
3713
3720.28
3727.83
3735.58
3743.47
3751.43
3759.42
3767.38
3775.26
3782.99
3790.55
3797.87
3804.91
3811.64
3818.02
3824.02
3829.6
3834.75
3839.43
3843.65
3847.38
3850.61
3853.35
3855.6
3857.37
3858.66
3859.48
3859.87
3859.83
3859.4
3858.59
3857.43
3855.95
3854.18
3852.14
3849.88
3847.41
3844.76
3841.98
3839.07
3836.09
3833.04
3829.95
3826.85
3823.76
3820.69
3817.68
3814.72
3811.84
3809.05
3806.35
3803.77
3801.3
3798.94
3796.72
3794.61
3792.64
3790.8
3789.08
3787.49
3786.03
3784.69
3783.46
3782.35
3781.34
3780.44
3779.64
3778.93
3778.31
3777.77
3777.31
3776.91
3776.58
3776.32
3776.1
3775.93
3775.81
3775.73
3775.68
3775.67
3775.68
3775.71
3775.77
3775.84
3775.92
3776.02
3776.12
3776.23
3776.35
3776.47
3776.59
3776.71
3776.83
3776.94
3777.05
3777.16
3777.27
3777.37
3777.46
3777.55
3777.63
3777.7
3777.77
3777.83
3777.89
3777.94
3777.98
3778.02
3778.05
3778.07
3778.09
3778.11
3778.12
3778.12
3778.13
3778.12
3778.12
3778.11
3778.09
3778.08
3778.06
3778.04
3778.02
3777.99
3777.97
3777.94
3777.91
3777.88
3777.85
3777.82
3777.79
3777.76
3777.73
3777.7
3777.67
3777.64
3777.61
3777.58
3777.55
3777.52
3777.49
3777.46
3777.43
3777.41
3777.38
3777.36
3777.33
3777.31
3777.29
3777.26
3777.24
3777.22
3777.2
3777.18
3777.17
3777.15
3777.13
3777.12
3777.1
3777.09
3777.07
3777.06
3777.05
3777.03
3777.02
3777.01
3777
3776.99
3776.98
3776.97
3776.97
3776.96
3776.95
3776.94
3776.94
3776.93
3776.93
3776.92
3776.92
3776.91
3776.91
3776.9
3776.9
3776.9
3776.89
3776.89
3776.89
3776.88
3776.88
3776.88
3776.88
3776.88
3776.87
3776.87
3776.87
3776.87
3776.87
3776.87
3376.48
3371.71
3368.27
3366.23
3365.56
3366.2
3368.21
3371.69
3376.68
3383.24
3391.42
3401.27
3412.86
3426.2
3441.33
3458.25
3476.92
3497.29
3519.23
3542.63
3567.3
3593.04
3619.65
3646.89
3674.39
3702.1
3729.7
3756.92
3783.5
3809.19
3833.74
3856.94
3878.58
3898.48
3916.47
3932.41
3946.16
3957.63
3966.7
3973.3
3977.34
3978.7
3977.38
3973.4
3966.74
3957.4
3945.43
3930.96
3914.11
3895.06
3874.04
3851.29
3827.09
3801.76
3775.61
3748.98
3722.17
3695.63
3669.75
3644.26
3619.44
3595.57
3572.85
3551.42
3531.45
3513.04
3496.3
3481.3
3468.09
3456.71
3447.16
3439.42
3433.46
3429.2
3426.61
3425.62
3426.12
3428
3431.17
3435.54
3441.02
3447.53
3454.99
3463.36
3472.58
3482.63
3493.48
3505.12
3517.55
3530.78
3544.82
3559.68
3575.38
3591.91
3609.27
3627.42
3646.32
3665.88
3686.03
3706.62
3727.53
3748.58
3769.61
3790.41
3810.77
3830.49
3849.35
3867.14
3883.64
3898.65
3911.97
3923.45
3932.92
3940.27
3945.4
3948.24
3948.73
3946.92
3942.82
3936.49
3928.02
3917.55
3905.22
3891.22
3875.75
3859.02
3841.28
3822.77
3803.74
3784.43
3765.08
3745.91
3727.14
3708.96
3691.54
3675.01
3659.5
3645.11
3631.92
3619.99
3609.35
3600.02
3592
3585.28
3579.84
3575.64
3572.62
3570.75
3569.96
3570.2
3571.39
3573.48
3576.41
3580.1
3584.51
3589.55
3595.18
3601.31
3607.9
3614.87
3622.16
3629.71
3637.47
3645.36
3653.33
3661.32
3669.29
3677.17
3684.91
3692.46
3699.79
3706.83
3713.57
3719.95
3725.95
3731.53
3736.68
3741.37
3745.58
3749.31
3752.55
3755.29
3757.54
3759.3
3760.59
3761.42
3761.8
3761.77
3761.33
3760.52
3759.35
3757.87
3756.1
3754.06
3751.79
3749.32
3746.67
3743.88
3740.98
3737.99
3734.94
3731.85
3728.75
3725.65
3722.59
3719.57
3716.61
3713.73
3710.94
3708.24
3705.66
3703.19
3700.83
3698.61
3696.5
3694.53
3692.69
3690.97
3689.38
3687.92
3686.58
3685.35
3684.24
3683.23
3682.33
3681.53
3680.82
3680.2
3679.66
3679.2
3678.81
3678.48
3678.21
3678
3677.83
3677.71
3677.63
3677.58
3677.56
3677.58
3677.61
3677.66
3677.73
3677.82
3677.92
3678.02
3678.13
3678.25
3678.37
3678.49
3678.61
3678.73
3678.84
3678.95
3679.06
3679.17
3679.27
3679.36
3679.45
3679.53
3679.6
3679.67
3679.73
3679.79
3679.84
3679.88
3679.92
3679.95
3679.97
3679.99
3680.01
3680.02
3680.02
3680.03
3680.02
3680.02
3680.01
3680
3679.98
3679.96
3679.94
3679.92
3679.89
3679.87
3679.84
3679.81
3679.78
3679.75
3679.72
3679.69
3679.66
3679.63
3679.6
3679.57
3679.54
3679.51
3679.48
3679.45
3679.42
3679.39
3679.36
3679.33
3679.31
3679.28
3679.26
3679.23
3679.21
3679.19
3679.16
3679.14
3679.12
3679.1
3679.08
3679.07
3679.05
3679.03
3679.02
3679
3678.99
3678.97
3678.96
3678.95
3678.93
3678.92
3678.91
3678.9
3678.89
3678.88
3678.87
3678.87
3678.86
3678.85
3678.84
3678.84
3678.83
3678.83
3678.82
3678.82
3678.81
3678.81
3678.8
3678.8
3678.8
3678.79
3678.79
3678.79
3678.78
3678.78
3678.78
3678.78
3678.78
3678.77
3678.77
3678.77
3678.77
3678.77
3678.77
3278.21
3273.44
3270.01
3267.97
3267.29
3267.93
3269.94
3273.41
3278.4
3284.94
3293.11
3302.96
3314.54
3327.88
3343
3359.92
3378.6
3398.97
3420.93
3444.34
3469.03
3494.8
3521.43
3548.69
3576.22
3603.97
3631.6
3658.84
3685.45
3711.17
3735.76
3758.99
3780.66
3800.58
3818.6
3834.55
3848.32
3859.8
3868.89
3875.5
3879.55
3880.92
3879.6
3875.62
3868.95
3859.6
3847.62
3833.12
3816.24
3797.16
3776.11
3753.32
3729.08
3703.7
3677.52
3650.85
3624
3597.44
3571.54
3546.02
3521.19
3497.3
3474.56
3453.12
3433.14
3414.73
3397.98
3382.98
3369.77
3358.39
3348.84
3341.11
3335.15
3330.9
3328.32
3327.34
3327.85
3329.75
3332.93
3337.31
3342.8
3349.31
3356.78
3365.15
3374.38
3384.43
3395.28
3406.92
3419.34
3432.57
3446.61
3461.47
3477.17
3493.7
3511.06
3529.21
3548.11
3567.69
3587.84
3608.46
3629.38
3650.46
3671.5
3692.33
3712.72
3732.47
3751.36
3769.17
3785.7
3800.73
3814.08
3825.57
3835.07
3842.43
3847.56
3850.41
3850.91
3849.08
3844.98
3838.63
3830.15
3819.66
3807.31
3793.28
3777.77
3761.02
3743.25
3724.71
3705.65
3686.31
3666.93
3647.74
3628.95
3610.75
3593.32
3576.78
3561.26
3546.86
3533.66
3521.73
3511.09
3501.76
3493.74
3487.03
3481.59
3477.39
3474.38
3472.52
3471.74
3471.98
3473.18
3475.28
3478.21
3481.92
3486.33
3491.38
3497.01
3503.16
3509.75
3516.73
3524.03
3531.59
3539.34
3547.24
3555.22
3563.22
3571.19
3579.08
3586.82
3594.39
3601.71
3608.77
3615.51
3621.89
3627.9
3633.48
3638.63
3643.32
3647.54
3651.27
3654.51
3657.25
3659.5
3661.26
3662.55
3663.37
3663.75
3663.71
3663.27
3662.46
3661.29
3659.81
3658.03
3655.99
3653.71
3651.24
3648.59
3645.8
3642.89
3639.9
3636.84
3633.75
3630.65
3627.55
3624.48
3621.46
3618.5
3615.62
3612.83
3610.13
3607.54
3605.07
3602.72
3600.49
3598.39
3596.42
3594.57
3592.86
3591.27
3589.81
3588.46
3587.24
3586.12
3585.12
3584.22
3583.42
3582.71
3582.09
3581.56
3581.09
3580.7
3580.37
3580.1
3579.89
3579.73
3579.6
3579.52
3579.48
3579.46
3579.47
3579.51
3579.56
3579.63
3579.72
3579.81
3579.92
3580.03
3580.15
3580.27
3580.39
3580.51
3580.63
3580.74
3580.86
3580.96
3581.07
3581.17
3581.26
3581.35
3581.43
3581.5
3581.57
3581.63
3581.69
3581.74
3581.78
3581.82
3581.85
3581.87
3581.89
3581.91
3581.92
3581.92
3581.93
3581.92
3581.92
3581.91
3581.9
3581.88
3581.86
3581.84
3581.82
3581.79
3581.77
3581.74
3581.71
3581.68
3581.65
3581.62
3581.59
3581.56
3581.53
3581.5
3581.47
3581.44
3581.41
3581.38
3581.35
3581.32
3581.29
3581.26
3581.23
3581.21
3581.18
3581.16
3581.13
3581.11
3581.09
3581.06
3581.04
3581.02
3581
3580.98
3580.97
3580.95
3580.93
3580.92
3580.9
3580.89
3580.87
3580.86
3580.85
3580.83
3580.82
3580.81
3580.8
3580.79
3580.78
3580.77
3580.77
3580.76
3580.75
3580.74
3580.74
3580.73
3580.73
3580.72
3580.72
3580.71
3580.71
3580.7
3580.7
3580.7
3580.69
3580.69
3580.69
3580.68
3580.68
3580.68
3580.68
3580.68
3580.67
3580.67
3580.67
3580.67
3580.67
3580.67
3179.89
3175.13
3171.7
3169.65
3168.97
3169.6
3171.61
3175.07
3180.05
3186.58
3194.74
3204.58
3216.15
3229.48
3244.6
3261.51
3280.2
3300.58
3322.56
3345.99
3370.71
3396.5
3423.17
3450.47
3478.03
3505.81
3533.49
3560.77
3587.43
3613.19
3637.82
3661.09
3682.79
3702.75
3720.79
3736.77
3750.57
3762.07
3771.18
3777.8
3781.85
3783.24
3781.92
3777.94
3771.26
3761.89
3749.89
3735.37
3718.45
3699.33
3678.23
3655.38
3631.09
3605.66
3579.43
3552.7
3525.82
3499.23
3473.3
3447.74
3422.87
3398.96
3376.2
3354.75
3334.76
3316.34
3299.59
3284.58
3271.37
3259.99
3250.45
3242.73
3236.78
3232.54
3229.98
3229.01
3229.53
3231.44
3234.64
3239.03
3244.53
3251.05
3258.53
3266.91
3276.14
3286.19
3297.04
3308.68
3321.1
3334.33
3348.36
3363.22
3378.91
3395.45
3412.81
3430.97
3449.88
3469.46
3489.64
3510.27
3531.22
3552.32
3573.4
3594.26
3614.68
3634.47
3653.39
3671.24
3687.81
3702.87
3716.25
3727.78
3737.29
3744.67
3749.82
3752.67
3753.18
3751.34
3747.23
3740.86
3732.36
3721.84
3709.45
3695.39
3679.84
3663.05
3645.24
3626.66
3607.55
3588.18
3568.77
3549.55
3530.73
3512.5
3495.05
3478.49
3462.96
3448.55
3435.35
3423.41
3412.77
3403.44
3395.43
3388.73
3383.3
3379.1
3376.1
3374.25
3373.48
3373.73
3374.94
3377.05
3379.99
3383.71
3388.13
3393.19
3398.83
3404.98
3411.58
3418.57
3425.88
3433.45
3441.22
3449.12
3457.11
3465.12
3473.1
3480.99
3488.75
3496.32
3503.65
3510.71
3517.46
3523.85
3529.86
3535.45
3540.6
3545.3
3549.52
3553.25
3556.48
3559.23
3561.47
3563.23
3564.52
3565.34
3565.72
3565.67
3565.23
3564.41
3563.24
3561.75
3559.97
3557.92
3555.65
3553.17
3550.51
3547.71
3544.8
3541.81
3538.75
3535.65
3532.54
3529.45
3526.38
3523.35
3520.39
3517.51
3514.71
3512.01
3509.43
3506.95
3504.6
3502.37
3500.27
3498.3
3496.45
3494.74
3493.15
3491.69
3490.34
3489.12
3488.01
3487
3486.11
3485.3
3484.6
3483.98
3483.44
3482.98
3482.59
3482.26
3482
3481.78
3481.62
3481.5
3481.42
3481.37
3481.36
3481.37
3481.4
3481.46
3481.53
3481.62
3481.71
3481.82
3481.93
3482.05
3482.17
3482.29
3482.41
3482.53
3482.64
3482.76
3482.86
3482.97
3483.07
3483.16
3483.25
3483.33
3483.4
3483.47
3483.53
3483.59
3483.64
3483.68
3483.72
3483.75
3483.77
3483.79
3483.81
3483.82
3483.83
3483.83
3483.82
3483.82
3483.81
3483.8
3483.78
3483.76
3483.74
3483.72
3483.69
3483.67
3483.64
3483.61
3483.58
3483.55
3483.52
3483.49
3483.46
3483.43
3483.4
3483.37
3483.34
3483.31
3483.28
3483.25
3483.22
3483.19
3483.16
3483.13
3483.11
3483.08
3483.06
3483.03
3483.01
3482.99
3482.96
3482.94
3482.92
3482.9
3482.88
3482.87
3482.85
3482.83
3482.82
3482.8
3482.79
3482.77
3482.76
3482.75
3482.73
3482.72
3482.71
3482.7
3482.69
3482.68
3482.67
3482.67
3482.66
3482.65
3482.64
3482.64
3482.63
3482.63
3482.62
3482.62
3482.61
3482.61
3482.6
3482.6
3482.6
3482.59
3482.59
3482.59
3482.58
3482.58
3482.58
3482.58
3482.57
3482.57
3482.57
3482.57
3482.57
3482.57
3482.57
3081.51
3076.75
3073.33
3071.28
3070.59
3071.22
3073.22
3076.67
3081.64
3088.16
3096.3
3106.13
3117.68
3131
3146.12
3163.03
3181.73
3202.12
3224.12
3247.58
3272.32
3298.15
3324.86
3352.21
3379.82
3407.65
3435.37
3462.71
3489.42
3515.24
3539.92
3563.23
3584.98
3604.98
3623.06
3639.08
3652.9
3664.43
3673.56
3680.2
3684.26
3685.66
3684.36
3680.37
3673.68
3664.29
3652.26
3637.7
3620.74
3601.56
3580.4
3557.5
3533.14
3507.64
3481.33
3454.55
3427.6
3400.98
3375.01
3349.41
3324.51
3300.57
3277.78
3256.31
3236.3
3217.87
3201.11
3186.11
3172.9
3161.52
3151.99
3144.27
3138.34
3134.12
3131.57
3130.62
3131.16
3133.09
3136.3
3140.71
3146.22
3152.76
3160.25
3168.63
3177.87
3187.92
3198.77
3210.41
3222.83
3236.05
3250.08
3264.93
3280.62
3297.15
3314.52
3332.68
3351.6
3371.21
3391.4
3412.06
3433.04
3454.18
3475.29
3496.19
3516.66
3536.49
3555.46
3573.36
3589.97
3605.08
3618.5
3630.06
3639.6
3647.01
3652.17
3655.03
3655.53
3653.69
3649.56
3643.18
3634.64
3624.08
3611.66
3597.55
3581.96
3565.11
3547.25
3528.61
3509.46
3490.04
3470.59
3451.33
3432.47
3414.22
3396.74
3380.17
3364.62
3350.2
3336.99
3325.05
3314.4
3305.08
3297.07
3290.37
3284.95
3280.77
3277.78
3275.94
3275.18
3275.44
3276.66
3278.78
3281.74
3285.46
3289.9
3294.97
3300.62
3306.79
3313.4
3320.4
3327.72
3335.3
3343.08
3351
3359
3367.02
3375.01
3382.91
3390.68
3398.26
3405.6
3412.67
3419.42
3425.82
3431.83
3437.43
3442.59
3447.29
3451.51
3455.24
3458.48
3461.22
3463.47
3465.23
3466.51
3467.33
3467.7
3467.65
3467.2
3466.38
3465.21
3463.71
3461.92
3459.87
3457.59
3455.1
3452.44
3449.64
3446.72
3443.72
3440.65
3437.55
3434.44
3431.34
3428.27
3425.24
3422.28
3419.39
3416.59
3413.89
3411.3
3408.83
3406.47
3404.24
3402.14
3400.17
3398.33
3396.61
3395.03
3393.56
3392.22
3391
3389.89
3388.88
3387.99
3387.19
3386.48
3385.86
3385.33
3384.87
3384.48
3384.15
3383.89
3383.67
3383.51
3383.39
3383.31
3383.27
3383.25
3383.26
3383.3
3383.36
3383.43
3383.51
3383.61
3383.72
3383.83
3383.95
3384.07
3384.19
3384.31
3384.43
3384.54
3384.66
3384.77
3384.87
3384.97
3385.06
3385.15
3385.23
3385.31
3385.37
3385.44
3385.49
3385.54
3385.58
3385.62
3385.65
3385.68
3385.7
3385.71
3385.72
3385.73
3385.73
3385.73
3385.72
3385.71
3385.7
3385.68
3385.66
3385.64
3385.62
3385.6
3385.57
3385.54
3385.51
3385.48
3385.45
3385.42
3385.39
3385.36
3385.33
3385.3
3385.27
3385.24
3385.21
3385.18
3385.15
3385.12
3385.09
3385.06
3385.03
3385.01
3384.98
3384.96
3384.93
3384.91
3384.89
3384.86
3384.84
3384.82
3384.8
3384.78
3384.77
3384.75
3384.73
3384.72
3384.7
3384.69
3384.67
3384.66
3384.65
3384.63
3384.62
3384.61
3384.6
3384.59
3384.58
3384.57
3384.57
3384.56
3384.55
3384.54
3384.54
3384.53
3384.53
3384.52
3384.52
3384.51
3384.51
3384.5
3384.5
3384.5
3384.49
3384.49
3384.49
3384.48
3384.48
3384.48
3384.48
3384.47
3384.47
3384.47
3384.47
3384.47
3384.47
3384.47
2983.07
2978.33
2974.91
2972.86
2972.16
2972.78
2974.77
2978.21
2983.16
2989.67
2997.8
3007.61
3019.14
3032.45
3047.56
3064.48
3083.18
3103.59
3125.61
3149.1
3173.89
3199.76
3226.52
3253.92
3281.58
3309.47
3337.26
3364.66
3391.44
3417.32
3442.05
3465.43
3487.23
3507.28
3525.41
3541.46
3555.32
3566.88
3576.04
3582.7
3586.78
3588.19
3586.9
3582.91
3576.2
3566.79
3554.72
3540.12
3523.1
3503.87
3482.63
3459.65
3435.21
3409.63
3383.25
3356.38
3329.37
3302.71
3276.68
3251.03
3226.09
3202.11
3179.3
3157.81
3137.78
3119.34
3102.57
3087.56
3074.35
3062.98
3053.45
3045.75
3039.83
3035.63
3033.1
3032.17
3032.73
3034.68
3037.92
3042.35
3047.88
3054.43
3061.93
3070.32
3079.56
3089.62
3100.47
3112.11
3124.52
3137.73
3151.76
3166.61
3182.29
3198.82
3216.19
3234.36
3253.3
3272.92
3293.14
3313.82
3334.84
3356.02
3377.18
3398.13
3418.66
3438.54
3457.56
3475.52
3492.18
3507.34
3520.81
3532.41
3541.99
3549.43
3554.61
3557.47
3557.98
3556.14
3551.98
3545.57
3537
3526.4
3513.93
3499.76
3484.11
3467.2
3449.28
3430.59
3411.38
3391.9
3372.39
3353.08
3334.19
3315.9
3298.39
3281.79
3266.22
3251.79
3238.57
3226.62
3215.98
3206.66
3198.66
3191.97
3186.55
3182.39
3179.41
3177.58
3176.84
3177.12
3178.35
3180.49
3183.46
3187.19
3191.64
3196.73
3202.4
3208.58
3215.2
3222.22
3229.55
3237.15
3244.94
3252.87
3260.89
3268.92
3276.92
3284.84
3292.61
3300.2
3307.56
3314.64
3321.4
3327.81
3333.83
3339.43
3344.6
3349.3
3353.52
3357.26
3360.5
3363.24
3365.48
3367.24
3368.52
3369.33
3369.7
3369.65
3369.19
3368.36
3367.18
3365.68
3363.88
3361.82
3359.53
3357.04
3354.37
3351.56
3348.64
3345.63
3342.56
3339.45
3336.34
3333.23
3330.15
3327.12
3324.16
3321.27
3318.47
3315.77
3313.17
3310.7
3308.34
3306.11
3304.01
3302.04
3300.2
3298.48
3296.9
3295.43
3294.09
3292.87
3291.76
3290.76
3289.86
3289.06
3288.36
3287.74
3287.21
3286.75
3286.36
3286.04
3285.77
3285.56
3285.4
3285.28
3285.2
3285.16
3285.15
3285.16
3285.2
3285.25
3285.33
3285.41
3285.51
3285.62
3285.73
3285.85
3285.97
3286.09
3286.21
3286.33
3286.44
3286.56
3286.67
3286.77
3286.87
3286.96
3287.05
3287.13
3287.21
3287.28
3287.34
3287.39
3287.44
3287.48
3287.52
3287.55
3287.58
3287.6
3287.61
3287.62
3287.63
3287.63
3287.63
3287.62
3287.61
3287.6
3287.58
3287.56
3287.54
3287.52
3287.5
3287.47
3287.44
3287.41
3287.38
3287.35
3287.32
3287.29
3287.26
3287.23
3287.2
3287.17
3287.14
3287.11
3287.08
3287.05
3287.02
3286.99
3286.96
3286.93
3286.91
3286.88
3286.86
3286.83
3286.81
3286.79
3286.76
3286.74
3286.72
3286.7
3286.68
3286.67
3286.65
3286.63
3286.62
3286.6
3286.59
3286.57
3286.56
3286.55
3286.53
3286.52
3286.51
3286.5
3286.49
3286.48
3286.47
3286.47
3286.46
3286.45
3286.44
3286.44
3286.43
3286.43
3286.42
3286.42
3286.41
3286.41
3286.4
3286.4
3286.4
3286.39
3286.39
3286.39
3286.38
3286.38
3286.38
3286.38
3286.37
3286.37
3286.37
3286.37
3286.37
3286.37
3286.37
2884.58
2879.84
2876.44
2874.38
2873.68
2874.29
2876.27
2879.7
2884.62
2891.11
2899.22
2909.01
2920.53
2933.83
2948.93
2965.84
2984.55
3004.98
3027.03
3050.56
3075.39
3101.31
3128.13
3155.59
3183.32
3211.28
3239.14
3266.62
3293.47
3319.43
3344.23
3367.68
3389.54
3409.65
3427.82
3443.93
3457.83
3469.43
3478.61
3485.3
3489.4
3490.83
3489.55
3485.55
3478.83
3469.39
3457.28
3442.62
3425.55
3406.23
3384.92
3361.84
3337.31
3311.64
3285.16
3258.21
3231.11
3204.41
3178.32
3152.61
3127.62
3103.6
3080.75
3059.23
3039.18
3020.73
3003.95
2988.93
2975.72
2964.36
2954.84
2947.15
2941.25
2937.07
2934.57
2933.66
2934.25
2936.23
2939.49
2943.94
2949.49
2956.05
2963.57
2971.97
2981.22
2991.28
3002.13
3013.77
3026.18
3039.38
3053.4
3068.24
3083.92
3100.45
3117.82
3136
3154.95
3174.6
3194.84
3215.57
3236.63
3257.86
3279.07
3300.08
3320.66
3340.61
3359.7
3377.72
3394.45
3409.67
3423.19
3434.84
3444.47
3451.93
3457.13
3460.01
3460.52
3458.67
3454.49
3448.05
3439.44
3428.79
3416.26
3402.03
3386.31
3369.33
3351.33
3332.57
3313.29
3293.75
3274.18
3254.82
3235.87
3217.54
3200
3183.37
3167.78
3153.33
3140.1
3128.15
3117.5
3108.19
3100.19
3093.51
3088.11
3083.96
3081
3079.18
3078.46
3078.75
3080
3082.15
3085.14
3088.9
3093.36
3098.47
3104.15
3110.35
3116.99
3124.02
3131.37
3138.98
3146.79
3154.74
3162.77
3170.82
3178.84
3186.77
3194.56
3202.16
3209.53
3216.62
3223.39
3229.81
3235.84
3241.45
3246.62
3251.33
3255.55
3259.29
3262.53
3265.27
3267.52
3269.27
3270.54
3271.35
3271.72
3271.66
3271.2
3270.36
3269.17
3267.66
3265.85
3263.79
3261.49
3258.98
3256.31
3253.49
3250.56
3247.54
3244.47
3241.36
3238.23
3235.12
3232.04
3229
3226.03
3223.14
3220.34
3217.63
3215.04
3212.56
3210.21
3207.98
3205.88
3203.9
3202.06
3200.35
3198.76
3197.3
3195.96
3194.74
3193.63
3192.63
3191.74
3190.94
3190.23
3189.62
3189.09
3188.63
3188.24
3187.92
3187.66
3187.45
3187.29
3187.17
3187.09
3187.05
3187.04
3187.05
3187.09
3187.15
3187.22
3187.31
3187.41
3187.51
3187.63
3187.75
3187.87
3187.99
3188.11
3188.23
3188.35
3188.46
3188.57
3188.67
3188.77
3188.87
3188.95
3189.03
3189.11
3189.18
3189.24
3189.29
3189.34
3189.39
3189.42
3189.45
3189.48
3189.5
3189.51
3189.52
3189.53
3189.53
3189.53
3189.52
3189.51
3189.5
3189.48
3189.46
3189.44
3189.42
3189.4
3189.37
3189.34
3189.31
3189.28
3189.25
3189.22
3189.19
3189.16
3189.13
3189.1
3189.07
3189.04
3189.01
3188.98
3188.95
3188.92
3188.89
3188.86
3188.83
3188.81
3188.78
3188.76
3188.73
3188.71
3188.69
3188.66
3188.64
3188.62
3188.6
3188.58
3188.57
3188.55
3188.53
3188.52
3188.5
3188.49
3188.47
3188.46
3188.45
3188.43
3188.42
3188.41
3188.4
3188.39
3188.38
3188.37
3188.37
3188.36
3188.35
3188.34
3188.34
3188.33
3188.33
3188.32
3188.32
3188.31
3188.31
3188.3
3188.3
3188.3
3188.29
3188.29
3188.29
3188.28
3188.28
3188.28
3188.28
3188.27
3188.27
3188.27
3188.27
3188.27
3188.27
3188.27
2786.03
2781.31
2777.91
2775.85
2775.14
2775.75
2777.71
2781.12
2786.03
2792.49
2800.58
2810.35
2821.85
2835.13
2850.22
2867.13
2885.85
2906.3
2928.38
2951.95
2976.84
3002.82
3029.7
3057.23
3085.04
3113.08
3141.02
3168.59
3195.52
3221.56
3246.45
3269.97
3291.91
3312.08
3330.32
3346.47
3360.43
3372.06
3381.29
3388
3392.13
3393.57
3392.3
3388.3
3381.56
3372.09
3359.94
3345.22
3328.07
3308.67
3287.26
3264.08
3239.44
3213.66
3187.07
3160.02
3132.83
3106.08
3079.92
3054.14
3029.09
3005.03
2982.14
2960.59
2940.52
2922.04
2905.26
2890.23
2877.02
2865.66
2856.16
2848.48
2842.6
2838.45
2835.97
2835.09
2835.72
2837.72
2841.01
2845.48
2851.06
2857.64
2865.17
2873.59
2882.85
2892.91
2903.76
2915.39
2927.8
2941
2955
2969.84
2985.52
3002.04
3019.42
3037.61
3056.58
3076.25
3096.53
3117.29
3138.4
3159.68
3180.96
3202.03
3222.69
3242.71
3261.87
3279.97
3296.77
3312.06
3325.65
3337.35
3347.02
3354.52
3359.75
3362.64
3363.15
3361.29
3357.09
3350.61
3341.95
3331.24
3318.65
3304.35
3288.55
3271.49
3253.41
3234.56
3215.2
3195.59
3175.95
3156.52
3137.52
3119.14
3101.56
3084.9
3069.29
3054.82
3041.58
3029.62
3018.97
3009.66
3001.67
2995
2989.62
2985.48
2982.54
2980.74
2980.03
2980.35
2981.62
2983.79
2986.8
2990.57
2995.05
3000.18
3005.88
3012.1
3018.76
3025.81
3033.18
3040.81
3048.64
3056.6
3064.65
3072.72
3080.75
3088.7
3096.5
3104.12
3111.5
3118.61
3125.39
3131.82
3137.86
3143.48
3148.66
3153.37
3157.6
3161.35
3164.59
3167.33
3169.57
3171.32
3172.59
3173.39
3173.75
3173.68
3173.21
3172.37
3171.17
3169.65
3167.84
3165.76
3163.45
3160.94
3158.25
3155.43
3152.49
3149.46
3146.38
3143.26
3140.13
3137.01
3133.92
3130.88
3127.91
3125.01
3122.2
3119.5
3116.9
3114.43
3112.07
3109.84
3107.73
3105.76
3103.92
3102.21
3100.62
3099.16
3097.82
3096.6
3095.5
3094.5
3093.6
3092.81
3092.11
3091.49
3090.97
3090.51
3090.12
3089.8
3089.54
3089.33
3089.17
3089.06
3088.98
3088.94
3088.93
3088.95
3088.98
3089.04
3089.12
3089.21
3089.3
3089.41
3089.53
3089.64
3089.77
3089.89
3090.01
3090.13
3090.25
3090.36
3090.47
3090.57
3090.67
3090.77
3090.85
3090.94
3091.01
3091.08
3091.14
3091.2
3091.25
3091.29
3091.32
3091.36
3091.38
3091.4
3091.41
3091.42
3091.43
3091.43
3091.43
3091.42
3091.41
3091.4
3091.38
3091.36
3091.34
3091.32
3091.3
3091.27
3091.24
3091.21
3091.19
3091.16
3091.12
3091.09
3091.06
3091.03
3091
3090.97
3090.94
3090.91
3090.88
3090.85
3090.82
3090.79
3090.76
3090.73
3090.71
3090.68
3090.66
3090.63
3090.61
3090.59
3090.56
3090.54
3090.52
3090.5
3090.48
3090.47
3090.45
3090.43
3090.41
3090.4
3090.39
3090.37
3090.36
3090.35
3090.33
3090.32
3090.31
3090.3
3090.29
3090.28
3090.27
3090.27
3090.26
3090.25
3090.24
3090.24
3090.23
3090.23
3090.22
3090.22
3090.21
3090.21
3090.2
3090.2
3090.2
3090.19
3090.19
3090.19
3090.18
3090.18
3090.18
3090.18
3090.17
3090.17
3090.17
3090.17
3090.17
3090.17
3090.17
2687.42
2682.71
2679.32
2677.26
2676.55
2677.14
2679.09
2682.48
2687.36
2693.81
2701.87
2711.61
2723.09
2736.35
2751.43
2768.34
2787.07
2807.55
2829.66
2853.28
2878.22
2904.27
2931.22
2958.84
2986.73
3014.86
3042.9
3070.56
3097.59
3123.73
3148.71
3172.32
3194.34
3214.58
3232.89
3249.1
3263.11
3274.79
3284.05
3290.8
3294.95
3296.42
3295.16
3291.15
3284.39
3274.89
3262.68
3247.9
3230.67
3211.17
3189.65
3166.36
3141.59
3115.69
3088.99
3061.82
3034.52
3007.72
2981.48
2955.62
2930.51
2906.39
2883.46
2861.88
2841.78
2823.29
2806.49
2791.46
2778.25
2766.89
2757.4
2749.74
2743.88
2739.76
2737.31
2736.47
2737.13
2739.16
2742.48
2746.99
2752.58
2759.19
2766.74
2775.17
2784.44
2794.51
2805.36
2816.99
2829.39
2842.58
2856.57
2871.4
2887.07
2903.6
2920.97
2939.18
2958.16
2977.86
2998.18
3018.99
3040.15
3061.5
3082.84
3103.99
3124.73
3144.83
3164.08
3182.25
3199.14
3214.51
3228.17
3239.94
3249.66
3257.21
3262.46
3265.37
3265.88
3264
3259.77
3253.25
3244.54
3233.77
3221.1
3206.72
3190.83
3173.68
3155.51
3136.57
3117.12
3097.42
3077.7
3058.2
3039.14
3020.7
3003.09
2986.39
2970.74
2956.26
2943
2931.04
2920.39
2911.08
2903.1
2896.44
2891.07
2886.95
2884.03
2882.26
2881.57
2881.91
2883.2
2885.39
2888.42
2892.22
2896.72
2901.87
2907.59
2913.83
2920.51
2927.58
2934.98
2942.63
2950.48
2958.46
2966.53
2974.62
2982.67
2990.63
2998.46
3006.09
3013.49
3020.61
3027.41
3033.85
3039.9
3045.53
3050.72
3055.44
3059.67
3063.42
3066.66
3069.4
3071.64
3073.39
3074.65
3075.45
3075.8
3075.73
3075.25
3074.39
3073.18
3071.65
3069.83
3067.74
3065.42
3062.9
3060.2
3057.37
3054.42
3051.38
3048.29
3045.16
3042.02
3038.9
3035.8
3032.76
3029.78
3026.88
3024.07
3021.36
3018.76
3016.28
3013.92
3011.69
3009.59
3007.62
3005.77
3004.06
3002.48
3001.02
2999.68
2998.46
2997.36
2996.36
2995.47
2994.68
2993.98
2993.36
2992.84
2992.39
2992
2991.68
2991.42
2991.22
2991.06
2990.94
2990.87
2990.83
2990.82
2990.84
2990.88
2990.94
2991.01
2991.1
2991.2
2991.31
2991.42
2991.54
2991.67
2991.79
2991.91
2992.03
2992.15
2992.26
2992.37
2992.48
2992.58
2992.67
2992.76
2992.84
2992.91
2992.98
2993.04
2993.1
2993.15
2993.19
2993.23
2993.26
2993.28
2993.3
2993.32
2993.33
2993.33
2993.33
2993.33
2993.32
2993.31
2993.3
2993.28
2993.27
2993.24
2993.22
2993.2
2993.17
2993.14
2993.12
2993.09
2993.06
2993.02
2992.99
2992.96
2992.93
2992.9
2992.87
2992.84
2992.81
2992.78
2992.75
2992.72
2992.69
2992.66
2992.63
2992.61
2992.58
2992.56
2992.53
2992.51
2992.49
2992.46
2992.44
2992.42
2992.4
2992.38
2992.36
2992.35
2992.33
2992.31
2992.3
2992.28
2992.27
2992.26
2992.25
2992.23
2992.22
2992.21
2992.2
2992.19
2992.18
2992.17
2992.17
2992.16
2992.15
2992.14
2992.14
2992.13
2992.13
2992.12
2992.12
2992.11
2992.11
2992.1
2992.1
2992.1
2992.09
2992.09
2992.09
2992.08
2992.08
2992.08
2992.08
2992.07
2992.07
2992.07
2992.07
2992.07
2992.07
2992.07
2588.77
2584.07
2580.68
2578.62
2577.91
2578.49
2580.41
2583.78
2588.64
2595.06
2603.09
2612.8
2624.26
2637.5
2652.57
2669.48
2688.22
2708.72
2730.87
2754.55
2779.55
2805.68
2832.71
2860.41
2888.4
2916.63
2944.77
2972.54
2999.68
3025.92
3051.01
3074.71
3096.82
3117.15
3135.53
3151.81
3165.88
3177.61
3186.92
3193.71
3197.89
3199.37
3198.13
3194.11
3187.33
3177.79
3165.53
3150.67
3133.35
3113.74
3092.1
3068.68
3043.78
3017.74
2990.9
2963.6
2936.19
2909.33
2883
2857.06
2831.88
2807.7
2784.72
2763.1
2742.97
2724.46
2707.64
2692.61
2679.4
2668.05
2658.57
2650.93
2645.1
2641
2638.59
2637.79
2638.48
2640.56
2643.91
2648.45
2654.07
2660.71
2668.28
2676.72
2686
2696.07
2706.93
2718.55
2730.94
2744.12
2758.11
2772.92
2788.59
2805.11
2822.49
2840.7
2859.71
2879.44
2899.8
2920.66
2941.89
2963.3
2984.73
3005.96
3026.78
3046.98
3066.32
3084.59
3101.56
3117.02
3130.76
3142.6
3152.39
3159.98
3165.27
3168.19
3168.7
3166.81
3162.55
3155.98
3147.21
3136.37
3123.62
3109.14
3093.16
3075.9
3057.63
3038.58
3019.04