/*--------------------------------*- C++ -*----------------------------------*\
| =========                 |                                                 |
| \\      /  F ield         | OpenFOAM: The Open Source CFD Toolbox           |
|  \\    /   O peration     | Version:  3.0.1                                 |
|   \\  /    A nd           | Web:      www.OpenFOAM.org                      |
|    \\/     M anipulation  |                                                 |
\*---------------------------------------------------------------------------*/
FoamFile
{
    version     2.0;
    format      ascii;
    class       volScalarField;
    location    "64.2";
    object      p_rgh;
}
// * * * * * * * * * * * * * * * * * * * * * * * * * * * * * * * * * * * * * //

dimensions      [1 -1 -2 0 0 0 0];

internalField   nonuniform List<scalar> 
21420
(
-29.1204
-57.8958
-86.3593
-113.84
-139.964
-164.564
-187.5
-208.718
-228.171
-245.853
-261.785
-275.99
-288.505
-299.377
-308.648
-316.361
-322.555
-327.269
-330.508
-332.27
-332.593
-331.51
-328.968
-324.967
-319.474
-312.461
-303.884
-293.694
-281.841
-268.271
-252.931
-235.784
-216.796
-195.949
-173.247
-148.694
-122.345
-94.2895
-64.6305
-33.5234
-1.19512
31.856
65.7826
100.094
134.48
168.535
201.849
234.05
264.717
293.437
319.852
343.6
364.362
381.859
395.849
406.15
412.634
415.162
413.704
408.261
398.951
385.886
369.256
349.305
326.298
300.55
272.421
242.286
210.546
177.617
143.903
109.794
75.6787
42.1648
9.32843
-22.7921
-53.8586
-83.6592
-111.995
-138.72
-163.733
-186.956
-208.344
-227.861
-245.488
-261.223
-275.08
-287.087
-297.267
-305.654
-312.293
-317.257
-320.578
-322.3
-322.545
-321.328
-318.698
-314.689
-309.318
-302.591
-294.497
-285.015
-274.111
-261.751
-247.897
-232.512
-215.568
-197.049
-176.949
-155.28
-132.068
-107.361
-81.2263
-53.7576
-25.074
4.67951
35.4063
66.7615
98.5892
130.627
162.586
194.149
224.975
254.708
282.97
309.385
333.577
355.18
373.855
389.295
401.23
409.448
413.765
414.099
410.426
402.803
391.26
375.985
357.19
335.143
310.163
282.609
252.872
221.375
188.554
154.855
120.721
86.5802
52.8429
19.8612
-12.0376
-42.5801
-71.5481
-98.7803
-124.166
-147.642
-169.184
-188.802
-206.528
-222.419
-236.544
-248.975
-259.8
-269.099
-276.946
-283.419
-288.582
-292.484
-295.17
-296.653
-296.93
-296.064
-294.032
-290.834
-286.46
-280.892
-274.105
-266.073
-256.767
-246.154
-234.203
-220.881
-206.155
-189.993
-172.359
-153.228
-132.585
-110.421
-86.7533
-61.6174
-35.0792
-7.23517
21.7826
51.8136
82.6474
114
145.606
177.151
208.286
238.636
267.807
295.394
320.986
344.181
364.601
381.901
395.785
406.014
412.411
414.804
413.255
407.697
398.231
384.987
368.187
348.096
325.036
299.377
271.522
241.89
210.916
179.028
146.641
114.148
81.9077
50.2448
19.4408
-10.263
-38.6676
-65.6153
-90.9879
-114.704
-136.714
-156.998
-175.561
-192.431
-207.649
-221.263
-233.322
-243.883
-253.004
-260.734
-267.128
-272.245
-276.148
-278.897
-280.525
-281.057
-280.563
-279.03
-276.455
-272.822
-268.103
-262.262
-255.261
-247.059
-237.618
-226.91
-214.902
-201.574
-186.899
-170.839
-153.361
-134.431
-114.021
-92.1237
-68.7554
-43.9685
-17.854
9.46883
37.8499
67.1133
97.1571
127.722
158.431
188.982
219.073
248.369
276.499
303.059
327.655
349.896
369.381
385.753
398.717
408.011
413.411
414.792
412.049
405.295
394.534
379.944
361.755
340.311
315.96
289.128
260.266
229.825
198.265
166.029
133.524
101.115
69.1086
37.8293
12.5429
-15.966
-43.0813
-68.6208
-92.5124
-114.74
-135.316
-154.285
-171.716
-187.691
-202.304
-215.648
-227.809
-238.859
-248.845
-257.799
-265.726
-272.607
-278.404
-283.063
-286.516
-288.69
-289.48
-288.805
-286.578
-282.709
-277.152
-269.833
-260.699
-249.722
-236.866
-222.131
-205.524
-187.069
-166.822
-144.86
-121.275
-96.1979
-69.7853
-42.2082
-13.6642
15.6445
45.4932
75.6155
105.734
135.568
164.78
193.079
220.119
245.609
269.299
290.85
309.941
-29.1827
-57.9651
-86.4337
-113.918
-140.044
-164.645
-187.58
-208.797
-228.248
-245.927
-261.857
-276.06
-288.573
-299.442
-308.71
-316.422
-322.614
-327.326
-330.565
-332.326
-332.651
-331.567
-329.026
-325.026
-319.535
-312.524
-303.949
-293.762
-281.912
-268.345
-253.008
-235.863
-216.877
-196.032
-173.331
-148.778
-122.428
-94.37
-64.7071
-33.5946
-1.25907
31.8043
65.7413
100.066
134.465
168.536
201.868
234.086
264.771
293.509
319.941
343.704
364.48
381.99
395.99
406.298
412.787
415.323
413.853
408.408
399.092
386.018
369.377
349.411
326.388
300.623
272.477
242.323
210.566
177.619
143.889
109.766
75.6371
42.1138
9.26751
-22.8609
-53.9339
-83.7397
-112.079
-138.807
-163.821
-187.045
-208.432
-227.949
-245.576
-261.309
-275.165
-287.17
-297.348
-305.733
-312.371
-317.332
-320.649
-322.371
-322.614
-321.396
-318.765
-314.754
-309.384
-302.657
-294.566
-285.085
-274.184
-261.826
-247.973
-232.59
-215.648
-197.13
-177.031
-155.362
-132.15
-107.441
-81.3046
-53.8326
-25.1445
4.61561
35.3462
66.7106
98.5481
130.597
162.569
194.145
224.987
254.735
283.015
309.447
333.655
355.275
373.965
389.417
401.364
409.589
413.917
414.244
410.569
402.941
391.39
376.104
357.295
335.232
310.235
282.662
252.906
221.39
188.551
154.834
120.682
86.5266
52.7767
19.7838
-12.1238
-42.6727
-71.645
-98.8795
-124.266
-147.741
-169.281
-188.896
-206.619
-222.506
-236.627
-249.055
-259.875
-269.17
-277.015
-283.485
-288.645
-292.545
-295.231
-296.712
-296.99
-296.123
-294.091
-290.894
-286.521
-280.953
-274.168
-266.137
-256.833
-246.221
-234.272
-220.952
-206.229
-190.068
-172.436
-153.307
-132.665
-110.502
-86.8339
-61.6967
-35.156
-7.30821
21.7149
51.7527
82.5956
113.959
145.577
177.135
208.286
238.652
267.841
295.446
321.057
344.269
364.705
382.02
395.915
406.154
412.556
414.958
413.398
407.839
398.365
385.111
368.298
348.191
325.114
299.437
271.562
241.912
210.92
179.015
146.613
114.105
81.8533
50.1804
19.3681
-10.3419
-38.7511
-65.7017
-91.0759
-114.792
-136.802
-157.084
-175.644
-192.512
-207.727
-221.338
-233.394
-243.953
-253.072
-260.799
-267.19
-272.305
-276.206
-278.953
-280.578
-281.111
-280.616
-279.083
-276.508
-272.876
-268.159
-262.319
-255.321
-247.12
-237.681
-226.974
-214.968
-201.641
-186.967
-170.909
-153.433
-134.504
-114.096
-92.1987
-68.8291
-44.04
-17.9219
9.40566
37.7925
67.0634
97.1151
127.691
158.411
188.974
219.079
248.39
276.537
303.114
327.728
349.986
369.487
385.875
398.853
408.158
413.566
414.951
412.215
405.447
394.68
380.078
361.875
340.413
316.043
289.191
260.308
229.847
198.27
166.016
133.497
101.077
69.0614
37.7648
12.4796
-16.0427
-43.1599
-68.699
-92.5891
-114.815
-135.387
-154.352
-171.778
-187.749
-202.357
-215.698
-227.856
-238.902
-248.888
-257.841
-265.769
-272.651
-278.45
-283.111
-286.567
-288.744
-289.536
-288.866
-286.641
-282.776
-277.222
-269.905
-260.773
-249.798
-236.944
-222.21
-205.603
-187.147
-166.9
-144.934
-121.346
-96.2651
-69.8473
-42.2641
-13.7132
15.6035
45.4615
75.5943
105.724
135.571
164.796
193.108
220.161
245.665
269.366
290.93
310.031
-29.3074
-58.1039
-86.5824
-114.073
-140.203
-164.806
-187.74
-208.955
-228.402
-246.077
-262.002
-276.199
-288.707
-299.572
-308.835
-316.543
-322.732
-327.44
-330.679
-332.438
-332.767
-331.682
-329.142
-325.144
-319.656
-312.649
-304.08
-293.898
-282.054
-268.493
-253.161
-236.021
-217.04
-196.198
-173.499
-148.946
-122.594
-94.531
-64.8601
-33.7369
-1.38645
31.701
65.6588
100.008
134.437
168.539
201.905
234.159
264.88
293.654
320.119
343.914
364.719
382.252
396.272
406.595
413.094
415.646
414.149
408.702
399.375
386.283
369.618
349.624
326.57
300.771
272.589
242.4
210.607
177.626
143.864
109.711
75.5573
42.0158
9.15038
-22.9929
-54.0781
-83.8932
-112.239
-138.97
-163.986
-187.21
-208.597
-228.111
-245.735
-261.465
-275.317
-287.318
-297.492
-305.872
-312.506
-317.462
-320.769
-322.492
-322.729
-321.508
-318.875
-314.863
-309.493
-302.768
-294.679
-285.202
-274.305
-261.952
-248.103
-232.725
-215.786
-197.271
-177.173
-155.505
-132.291
-107.58
-81.4397
-53.9615
-25.2645
4.5084
35.2465
66.6293
98.4862
130.558
162.554
194.158
225.029
254.81
283.123
309.589
333.832
355.484
374.204
389.682
401.649
409.89
414.238
414.551
410.874
403.236
391.669
376.36
357.523
335.429
310.397
282.787
252.993
221.439
188.563
154.811
120.626
86.4404
52.6661
19.6511
-12.2736
-42.8351
-71.8155
-99.0541
-124.441
-147.914
-169.45
-189.059
-206.775
-222.655
-236.767
-249.187
-260
-269.287
-277.125
-283.591
-288.746
-292.643
-295.327
-296.803
-297.083
-296.215
-294.184
-290.988
-286.617
-281.051
-274.269
-266.241
-256.94
-246.332
-234.387
-221.071
-206.352
-190.195
-172.567
-153.442
-132.802
-110.641
-86.9728
-61.8335
-35.2881
-7.43298
21.6005
51.6517
82.5126
113.897
145.539
177.124
208.305
238.705
267.928
295.569
321.216
344.463
364.931
382.274
396.194
406.45
412.863
415.281
413.702
408.139
398.651
385.377
368.536
348.398
325.286
299.572
271.66
241.973
210.945
179.007
146.574
114.039
81.7635
50.0709
19.2425
-10.4798
-38.8978
-65.854
-91.2309
-114.947
-136.955
-157.233
-175.789
-192.651
-207.861
-221.466
-233.516
-244.07
-253.184
-260.906
-267.292
-272.402
-276.299
-279.041
-280.66
-281.195
-280.699
-279.166
-276.592
-272.963
-268.249
-262.413
-255.418
-247.221
-237.785
-227.081
-215.078
-201.754
-187.083
-171.029
-153.558
-134.633
-114.227
-92.3309
-68.9595
-44.1667
-18.0423
9.2938
37.6912
66.9763
97.043
127.641
158.38
188.968
219.099
248.441
276.618
303.229
327.878
350.17
369.704
386.123
399.128
408.454
413.877
415.271
412.55
405.75
394.972
380.348
362.115
340.618
316.209
289.316
260.392
229.893
198.278
165.992
133.445
101.002
68.9673
37.6426
12.3463
-16.1967
-43.3172
-68.8553
-92.7425
-114.963
-135.529
-154.486
-171.903
-187.865
-202.464
-215.797
-227.948
-238.99
-248.973
-257.925
-265.853
-272.738
-278.541
-283.207
-286.668
-288.852
-289.647
-288.988
-286.769
-282.909
-277.361
-270.049
-260.922
-249.951
-237.099
-222.367
-205.761
-187.304
-167.054
-145.084
-121.489
-96.3993
-69.9712
-42.376
-13.8112
15.5214
45.3981
75.552
105.706
135.577
164.828
193.166
220.246
245.775
269.502
291.089
310.211
-29.4946
-58.3121
-86.8056
-114.307
-140.443
-165.047
-187.981
-209.191
-228.634
-246.302
-262.219
-276.409
-288.909
-299.766
-309.023
-316.725
-322.909
-327.611
-330.849
-332.607
-332.941
-331.853
-329.315
-325.321
-319.838
-312.838
-304.275
-294.102
-282.266
-268.714
-253.39
-236.259
-217.284
-196.447
-173.751
-149.198
-122.843
-94.7725
-65.0897
-33.9503
-1.57771
31.5456
65.5349
99.9215
134.394
168.544
201.961
234.268
265.044
293.87
320.387
344.229
365.076
382.647
396.696
407.041
413.553
416.126
414.6
409.146
399.8
386.682
369.98
349.944
326.843
300.992
272.757
242.514
210.668
177.636
143.825
109.628
75.4378
41.8688
8.97463
-23.1908
-54.2943
-84.1233
-112.478
-139.216
-164.233
-187.458
-208.843
-228.354
-245.973
-261.697
-275.544
-287.539
-297.706
-306.079
-312.706
-317.654
-320.95
-322.671
-322.901
-321.675
-319.038
-315.025
-309.655
-302.933
-294.847
-285.375
-274.485
-262.138
-248.296
-232.924
-215.99
-197.479
-177.384
-155.716
-132.501
-107.787
-81.6399
-54.1523
-25.4422
4.34943
35.1004
66.51
98.396
130.5
162.534
194.179
225.096
254.925
283.289
309.806
334.099
355.8
374.565
390.082
402.081
410.344
414.713
415.023
411.339
403.683
392.092
376.748
357.87
335.727
310.644
282.978
253.128
221.517
188.585
154.78
120.546
86.3142
52.5032
19.455
-12.4955
-43.0756
-72.0683
-99.3131
-124.702
-148.171
-169.701
-189.301
-207.006
-222.874
-236.975
-249.383
-260.184
-269.46
-277.289
-283.747
-288.895
-292.786
-295.466
-296.94
-297.221
-296.351
-294.32
-291.127
-286.758
-281.197
-274.418
-266.395
-257.099
-246.496
-234.557
-221.247
-206.534
-190.383
-172.761
-153.642
-133.006
-110.847
-87.1788
-62.0362
-35.4838
-7.61772
21.4314
51.5024
82.3907
113.806
145.484
177.11
208.336
238.786
268.061
295.756
321.457
344.758
365.274
382.66
396.615
406.898
413.327
415.765
414.165
408.595
399.084
385.778
368.897
348.711
325.547
299.779
271.81
242.067
210.985
178.997
146.518
113.942
81.6314
49.909
19.0564
-10.6843
-39.1155
-66.08
-91.4611
-115.177
-137.182
-157.456
-176.005
-192.859
-208.06
-221.655
-233.698
-244.244
-253.35
-261.064
-267.443
-272.546
-276.436
-279.172
-280.783
-281.319
-280.821
-279.288
-276.717
-273.091
-268.381
-262.551
-255.562
-247.37
-237.939
-227.239
-215.24
-201.921
-187.256
-171.208
-153.743
-134.824
-114.423
-92.5278
-69.154
-44.3557
-18.2221
9.12679
37.5399
66.8462
96.9358
127.566
158.333
188.958
219.129
248.516
276.74
303.402
328.104
350.446
370.03
386.495
399.541
408.898
414.344
415.751
413.045
406.211
395.414
380.754
362.477
340.926
316.458
289.504
260.519
229.96
198.291
165.956
133.366
100.889
68.8262
37.4657
12.1401
-16.4285
-43.5533
-69.09
-92.9727
-115.186
-135.742
-154.687
-172.091
-188.039
-202.625
-215.946
-228.087
-239.122
-249.1
-258.05
-265.98
-272.868
-278.677
-283.351
-286.82
-289.013
-289.816
-289.171
-286.961
-283.109
-277.569
-270.265
-261.145
-250.179
-237.332
-222.603
-205.997
-187.539
-167.285
-145.308
-121.703
-96.6008
-70.1572
-42.5438
-13.9583
15.3982
45.3027
75.4885
105.677
135.586
164.876
193.254
220.374
245.942
269.705
291.327
310.481
-29.7445
-58.5901
-87.1035
-114.619
-140.763
-165.369
-188.301
-209.507
-228.942
-246.602
-262.509
-276.688
-289.178
-300.025
-309.273
-316.967
-323.144
-327.84
-331.072
-332.834
-333.171
-332.081
-329.545
-325.556
-320.081
-313.089
-304.536
-294.373
-282.55
-269.009
-253.697
-236.575
-217.609
-196.78
-174.087
-149.534
-123.175
-95.0949
-65.3962
-34.2353
-1.83321
31.3378
65.3691
99.8057
134.336
168.55
202.035
234.413
265.262
294.159
320.743
344.649
365.553
383.172
397.261
407.635
414.164
416.752
415.213
409.742
400.368
387.213
370.463
350.371
327.206
301.288
272.982
242.666
210.749
177.649
143.773
109.517
75.2781
41.6723
8.73981
-23.4551
-54.5831
-84.4307
-112.797
-139.543
-164.564
-187.789
-209.171
-228.677
-246.29
-262.008
-275.847
-287.835
-297.992
-306.355
-312.973
-317.909
-321.194
-322.91
-323.13
-321.896
-319.255
-315.24
-309.871
-303.151
-295.071
-285.606
-274.724
-262.386
-248.553
-233.189
-216.263
-197.756
-177.665
-155.997
-132.781
-108.061
-81.9065
-54.4065
-25.679
4.13638
34.9071
66.3515
98.2761
130.424
162.507
194.209
225.186
255.079
283.51
310.097
334.458
356.224
375.048
390.617
402.658
410.952
415.336
415.66
411.965
404.282
392.657
377.267
358.333
336.127
310.974
283.234
253.307
221.621
188.615
154.738
120.438
86.146
52.2863
19.1936
-12.7913
-43.3963
-72.4053
-99.6585
-125.048
-148.514
-170.035
-189.622
-207.314
-223.167
-237.251
-249.644
-260.43
-269.691
-277.507
-283.954
-289.093
-292.977
-295.651
-297.126
-297.404
-296.532
-294.502
-291.312
-286.947
-281.39
-274.616
-266.6
-257.31
-246.715
-234.783
-221.481
-206.776
-190.634
-173.02
-153.908
-133.278
-111.122
-87.4534
-62.3064
-35.7448
-7.86395
21.2057
51.3032
82.2287
113.685
145.411
177.092
208.379
238.894
268.239
296.007
321.78
345.151
365.732
383.175
397.178
407.496
413.947
416.402
414.791
409.205
399.662
386.314
369.379
349.13
325.896
300.054
272.01
242.192
211.039
178.983
146.443
113.813
81.4553
49.6932
18.8084
-10.9569
-39.4057
-66.3814
-91.7679
-115.485
-137.485
-157.752
-176.292
-193.135
-208.324
-221.908
-233.939
-244.476
-253.571
-261.275
-267.644
-272.737
-276.617
-279.345
-280.949
-281.484
-280.983
-279.451
-276.882
-273.261
-268.558
-262.736
-255.754
-247.569
-238.144
-227.45
-215.457
-202.145
-187.487
-171.446
-153.99
-135.079
-114.683
-92.7906
-69.4137
-44.608
-18.4621
8.90362
37.3382
66.6721
96.793
127.465
158.271
188.944
219.169
248.617
276.903
303.633
328.404
350.815
370.464
386.991
400.091
409.491
414.968
416.391
413.69
406.838
396.006
381.297
362.96
341.337
316.791
289.754
260.687
230.049
198.307
165.906
133.26
100.737
68.6385
37.2355
11.8591
-16.739
-43.8686
-69.4032
-93.2798
-115.483
-136.026
-154.955
-172.341
-188.271
-202.839
-216.145
-228.273
-239.297
-249.269
-258.218
-266.149
-273.042
-278.859
-283.542
-287.023
-289.227
-290.043
-289.414
-287.216
-283.375
-277.847
-270.553
-261.442
-250.485
-237.643
-222.918
-206.313
-187.853
-167.593
-145.607
-121.989
-96.8697
-70.4054
-42.7679
-14.1547
15.2336
45.1753
75.4034
105.639
135.599
164.941
193.371
220.544
246.163
269.977
291.645
310.841
-30.0573
-58.9381
-87.4764
-115.009
-141.163
-165.773
-188.702
-209.902
-229.328
-246.976
-262.871
-277.038
-289.514
-300.349
-309.586
-317.27
-323.438
-328.126
-331.352
-333.118
-333.456
-332.366
-329.834
-325.851
-320.384
-313.403
-304.862
-294.713
-282.904
-269.378
-254.08
-236.971
-218.016
-197.195
-174.507
-149.955
-123.591
-95.4985
-65.7798
-34.5918
-2.15327
31.0772
65.1611
99.6604
134.263
168.557
202.127
234.594
265.534
294.52
321.19
345.175
366.15
383.83
397.969
408.378
414.93
417.525
415.985
410.489
401.079
387.877
371.067
350.904
327.661
301.657
273.262
242.855
210.849
177.664
143.708
109.378
75.0782
41.4258
8.44558
-23.7861
-54.945
-84.8155
-113.197
-139.952
-164.977
-188.203
-209.582
-229.082
-246.687
-262.396
-276.226
-288.204
-298.35
-306.701
-313.306
-318.227
-321.501
-323.207
-323.416
-322.174
-319.526
-315.509
-310.14
-303.425
-295.351
-285.895
-275.023
-262.696
-248.875
-233.521
-216.603
-198.103
-178.016
-156.35
-133.131
-108.405
-82.2402
-54.7246
-25.9757
3.86817
34.6662
66.1531
98.1258
130.329
162.474
194.245
225.298
255.271
283.787
310.459
334.905
356.753
375.653
391.286
403.38
411.713
416.116
416.455
412.749
405.033
393.364
377.917
358.912
336.627
311.386
283.554
253.532
221.751
188.651
154.686
120.303
85.9346
52.0146
18.8659
-13.162
-43.798
-72.8274
-100.091
-125.482
-148.942
-170.452
-190.025
-207.699
-223.534
-237.597
-249.97
-260.737
-269.979
-277.779
-284.212
-289.34
-293.215
-295.882
-297.359
-297.632
-296.758
-294.73
-291.543
-287.182
-281.631
-274.865
-266.856
-257.574
-246.988
-235.066
-221.774
-207.079
-190.947
-173.344
-154.241
-133.618
-111.466
-87.7972
-62.6447
-36.0716
-8.17234
20.9228
51.0531
82.0261
113.534
145.319
177.069
208.431
239.029
268.462
296.32
322.184
345.643
366.306
383.82
397.883
408.245
414.723
417.192
415.58
409.968
400.386
386.985
369.982
349.654
326.333
300.398
272.259
242.349
211.106
178.966
146.349
113.65
81.2344
49.4227
18.4978
-11.2985
-39.7692
-66.7588
-92.152
-115.87
-137.865
-158.123
-176.651
-193.481
-208.655
-222.224
-234.242
-244.766
-253.848
-261.54
-267.895
-272.977
-276.845
-279.56
-281.158
-281.689
-281.185
-279.654
-277.089
-273.474
-268.779
-262.966
-255.994
-247.818
-238.401
-227.714
-215.728
-202.424
-187.775
-171.744
-154.299
-135.398
-115.01
-93.1194
-69.7392
-44.9243
-18.7629
8.6239
37.0856
66.4532
96.6149
127.338
158.193
188.926
219.218
248.741
277.106
303.92
328.78
351.275
371.007
387.612
400.779
410.232
415.748
417.192
414.491
407.627
396.749
381.977
363.564
341.85
317.206
290.066
260.897
230.16
198.326
165.843
133.126
100.546
68.4045
36.9543
11.5003
-17.1293
-44.2632
-69.795
-93.664
-115.855
-136.382
-155.29
-172.654
-188.561
-203.107
-216.392
-228.504
-239.516
-249.48
-258.426
-266.36
-273.259
-279.086
-283.782
-287.276
-289.493
-290.328
-289.717
-287.535
-283.708
-278.194
-270.914
-261.814
-250.866
-238.032
-223.311
-206.708
-188.245
-167.979
-145.982
-122.347
-97.2062
-70.716
-43.0482
-14.4006
15.0275
45.0156
75.2966
105.592
135.614
165.021
193.518
220.756
246.44
270.316
292.043
311.291
-30.4335
-59.3564
-87.9245
-115.478
-141.643
-166.257
-189.184
-210.376
-229.792
-247.426
-263.306
-277.457
-289.918
-300.738
-309.961
-317.633
-323.791
-328.469
-331.689
-333.457
-333.797
-332.707
-330.179
-326.204
-320.748
-313.78
-305.254
-295.121
-283.329
-269.82
-254.539
-237.446
-218.505
-197.695
-175.012
-150.46
-124.09
-95.9835
-66.2408
-35.0201
-2.53835
30.7629
64.9103
99.4851
134.174
168.564
202.237
234.811
265.86
294.953
321.725
345.805
366.866
384.62
398.818
409.271
415.849
418.451
416.912
411.387
401.935
388.676
371.793
351.545
328.207
302.1
273.598
243.082
210.97
177.682
143.628
109.21
74.8377
41.1288
8.09164
-24.1842
-55.3801
-85.2782
-113.678
-140.444
-165.474
-188.7
-210.075
-229.568
-247.163
-262.862
-276.682
-288.647
-298.779
-307.115
-313.707
-318.609
-321.871
-323.563
-323.759
-322.506
-319.851
-315.831
-310.464
-303.753
-295.687
-286.242
-275.383
-263.069
-249.261
-233.919
-217.012
-198.52
-178.438
-156.773
-133.552
-108.819
-82.6415
-55.1072
-26.3327
3.54458
34.3772
65.9144
97.9447
130.214
162.433
194.287
225.431
255.501
284.119
310.895
335.443
357.389
376.378
392.091
404.249
412.627
417.055
417.408
413.689
405.935
394.214
378.697
359.608
337.227
311.881
283.937
253.802
221.906
188.695
154.623
120.14
85.6791
51.6876
18.4713
-13.6082
-44.2816
-73.335
-100.611
-126.004
-149.458
-170.954
-190.509
-208.162
-223.974
-238.013
-250.362
-261.105
-270.325
-278.106
-284.522
-289.636
-293.501
-296.159
-297.638
-297.904
-297.03
-295.004
-291.82
-287.465
-281.922
-275.163
-267.163
-257.892
-247.316
-235.406
-222.126
-207.443
-191.324
-173.733
-154.642
-134.027
-111.88
-88.2105
-63.0515
-36.4648
-8.54345
20.5823
50.7517
81.7822
113.35
145.208
177.04
208.494
239.191
268.729
296.695
322.668
346.233
366.994
384.595
398.729
409.145
415.657
418.139
416.529
410.886
401.257
387.79
370.706
350.283
326.857
300.811
272.559
242.536
211.186
178.945
146.235
113.454
80.9682
49.0969
18.1238
-11.7094
-40.2064
-67.2128
-92.6139
-116.332
-138.322
-158.569
-177.083
-193.896
-209.053
-222.604
-234.605
-245.113
-254.181
-261.857
-268.198
-273.264
-277.118
-279.819
-281.408
-281.935
-281.429
-279.898
-277.338
-273.73
-269.045
-263.243
-256.282
-248.117
-238.71
-228.031
-216.054
-202.759
-188.12
-172.102
-154.67
-135.781
-115.402
-93.5145
-70.1307
-45.305
-19.125
8.28761
36.7818
66.1888
96.4018
127.184
158.098
188.904
219.277
248.889
277.349
304.265
329.229
351.828
371.659
388.357
401.605
411.123
416.685
418.155
415.454
408.573
397.641
382.794
364.289
342.467
317.704
290.44
261.148
230.292
198.348
165.766
132.964
100.316
68.1243
36.626
11.0592
-17.6003
-44.7374
-70.2658
-94.1255
-116.302
-136.808
-155.692
-173.03
-188.909
-203.428
-216.689
-228.781
-239.778
-249.734
-258.677
-266.612
-273.52
-279.358
-284.069
-287.58
-289.813
-290.671
-290.08
-287.917
-284.107
-278.61
-271.346
-262.26
-251.325
-238.5
-223.784
-207.182
-188.717
-168.442
-146.432
-122.777
-97.6105
-71.0894
-43.3851
-14.6963
14.7795
44.8232
75.1678
105.534
135.632
165.117
193.693
221.011
246.773
270.723
292.52
311.832
-30.8735
-59.8454
-88.4483
-116.027
-142.205
-166.823
-189.747
-210.93
-230.333
-247.952
-263.814
-277.946
-290.389
-301.192
-310.399
-318.057
-324.203
-328.871
-332.083
-333.85
-334.193
-333.104
-330.582
-326.616
-321.172
-314.219
-305.71
-295.596
-283.825
-270.337
-255.076
-238.001
-219.075
-198.277
-175.603
-151.051
-124.674
-96.5505
-66.7797
-35.5204
-2.98894
30.3945
64.6162
99.2791
134.069
168.572
202.364
235.064
266.24
295.458
322.35
346.542
367.702
385.543
399.81
410.314
416.922
419.533
417.993
412.436
402.935
389.608
372.64
352.293
328.844
302.617
273.989
243.346
211.109
177.702
143.533
109.013
74.5563
40.7803
7.67763
-24.6497
-55.889
-85.8192
-114.24
-141.019
-166.054
-189.28
-210.651
-230.136
-247.72
-263.407
-277.213
-289.164
-299.281
-307.599
-314.174
-319.057
-322.302
-323.979
-324.159
-322.894
-320.231
-316.207
-310.841
-304.135
-296.079
-286.646
-275.802
-263.504
-249.712
-234.384
-217.489
-199.007
-178.93
-157.267
-134.044
-109.303
-83.1108
-55.5549
-26.7506
3.16521
34.0396
65.6348
97.7321
130.078
162.385
194.335
225.585
255.769
284.505
311.402
336.07
358.131
377.226
393.03
405.263
413.695
418.154
418.52
414.787
406.99
395.207
379.608
360.421
337.927
312.459
284.385
254.116
222.086
188.744
154.548
119.949
85.3787
51.305
18.0086
-14.1307
-44.8476
-73.929
-101.219
-126.614
-150.06
-171.541
-191.075
-208.703
-224.488
-238.499
-250.819
-261.535
-270.73
-278.488
-284.884
-289.982
-293.835
-296.483
-297.951
-298.221
-297.347
-295.323
-292.145
-287.796
-282.26
-275.512
-267.522
-258.263
-247.7
-235.802
-222.536
-207.868
-191.764
-174.187
-155.109
-134.505
-112.363
-88.6936
-63.5274
-36.9247
-8.97776
20.1836
50.3982
81.4968
113.135
145.076
177.004
208.565
239.378
269.038
297.132
323.232
346.922
367.798
385.5
399.718
410.196
416.748
419.247
417.635
411.958
402.274
388.732
371.552
351.018
327.469
301.293
272.907
242.753
211.277
178.918
146.1
113.224
80.6561
48.7151
17.6859
-12.1903
-40.7179
-67.7438
-93.1539
-116.873
-138.856
-159.09
-177.587
-194.381
-209.516
-223.047
-235.03
-245.519
-254.569
-262.228
-268.551
-273.6
-277.436
-280.121
-281.702
-282.222
-281.712
-280.183
-277.628
-274.029
-269.355
-263.566
-256.618
-248.466
-239.07
-228.401
-216.434
-203.151
-188.524
-172.52
-155.103
-136.229
-115.86
-93.9761
-70.5888
-45.7505
-19.5486
7.8946
36.4267
65.8778
96.1543
127.003
157.987
188.876
219.344
249.061
277.631
304.667
329.753
352.472
372.42
389.227
402.57
412.163
417.781
419.28
416.58
409.676
398.683
383.75
365.136
343.187
318.284
290.876
261.439
230.444
198.373
165.675
132.773
100.046
67.7978
36.2559
10.5291
-18.1531
-45.2914
-70.8157
-94.6646
-116.824
-137.307
-156.162
-173.468
-189.314
-203.803
-217.036
-229.104
-240.084
-250.028
-258.968
-266.907
-273.823
-279.675
-284.403
-287.935
-290.188
-291.071
-290.504
-288.361
-284.573
-279.097
-271.851
-262.782
-251.86
-239.045
-224.336
-207.736
-189.267
-168.984
-146.957
-123.28
-98.0829
-71.5256
-43.7788
-15.0422
14.4892
44.5976
75.0166
105.466
135.652
165.228
193.898
221.309
247.161
271.198
293.077
312.464
-31.3778
-60.4056
-89.0482
-116.654
-142.847
-167.47
-190.39
-211.563
-230.951
-248.552
-264.394
-278.505
-290.927
-301.71
-310.899
-318.541
-324.673
-329.33
-332.534
-334.299
-334.644
-333.558
-331.042
-327.087
-321.656
-314.721
-306.232
-296.14
-284.392
-270.928
-255.689
-238.636
-219.728
-198.944
-176.278
-151.727
-125.342
-97.1998
-67.3968
-36.0932
-3.50553
29.9711
64.2779
99.0418
133.948
168.579
202.509
235.352
266.674
296.035
323.064
347.384
368.659
386.598
400.946
411.508
418.151
420.772
419.228
413.637
404.08
390.676
373.609
353.148
329.572
303.208
274.436
243.648
211.268
177.723
143.424
108.786
74.2334
40.3795
7.20327
-25.183
-56.4723
-86.4389
-114.884
-141.678
-166.718
-189.945
-211.31
-230.785
-248.356
-264.03
-277.822
-289.756
-299.854
-308.154
-314.708
-319.57
-322.795
-324.453
-324.616
-323.338
-320.665
-316.636
-311.271
-304.572
-296.527
-287.109
-276.282
-264.002
-250.227
-234.916
-218.035
-199.564
-179.494
-157.833
-134.607
-109.857
-83.6482
-56.0678
-27.2301
2.72921
33.6534
65.3139
97.4875
129.921
162.327
194.389
225.76
256.074
284.946
311.982
336.787
358.979
378.195
394.105
406.424
414.918
419.413
419.793
416.043
408.198
396.343
380.651
361.35
338.729
313.119
284.896
254.475
222.291
188.799
154.46
119.729
85.0422
50.8563
17.477
-14.7304
-45.4967
-74.61
-101.916
-127.313
-150.75
-172.212
-191.722
-209.322
-225.075
-239.054
-251.343
-262.026
-271.192
-278.924
-285.298
-290.378
-294.216
-296.854
-298.32
-298.584
-297.71
-295.689
-292.515
-288.174
-282.647
-275.91
-267.933
-258.687
-248.138
-236.255
-223.006
-208.355
-192.267
-174.707
-155.644
-135.051
-112.916
-89.247
-64.0727
-37.4519
-9.47583
19.726
49.9919
81.1693
112.888
144.924
176.962
208.645
239.59
269.392
297.63
323.878
347.709
368.718
386.535
400.849
411.4
417.998
420.516
418.899
413.185
403.438
389.809
372.52
351.858
328.168
301.842
273.305
243.001
211.38
178.885
145.944
112.959
80.2973
48.2767
17.1832
-12.7418
-41.3044
-68.3523
-93.7728
-117.492
-139.467
-159.686
-178.165
-194.936
-210.047
-223.555
-235.515
-245.983
-255.013
-262.652
-268.955
-273.983
-277.799
-280.467
-282.037
-282.549
-282.036
-280.508
-277.96
-274.37
-269.71
-263.936
-257.003
-248.865
-239.482
-228.825
-216.869
-203.598
-188.985
-172.998
-155.599
-136.741
-116.384
-94.5049
-71.1139
-46.2614
-20.0338
7.44457
36.0198
65.5215
95.8705
126.792
157.86
188.843
219.42
249.255
277.954
305.126
330.351
353.208
373.29
390.222
403.673
413.353
419.034
420.569
417.87
410.938
399.876
384.844
366.106
344.01
318.948
291.373
261.771
230.619
198.399
165.568
132.553
99.7347
67.4244
35.8517
9.9015
-18.7885
-45.9256
-71.445
-95.2816
-117.421
-137.877
-156.699
-173.969
-189.778
-204.23
-217.431
-229.472
-240.432
-250.365
-259.3
-267.242
-274.169
-280.037
-284.786
-288.34
-290.617
-291.528
-290.987
-288.869
-285.106
-279.652
-272.428
-263.378
-252.471
-239.669
-224.968
-208.37
-189.898
-169.604
-147.559
-123.855
-98.6237
-72.0251
-44.2297
-15.4385
14.1561
44.3384
74.8426
105.387
135.674
165.355
194.131
221.649
247.604
271.741
293.714
313.186
-31.9469
-61.0376
-89.7247
-117.362
-143.572
-168.2
-191.115
-212.276
-231.648
-249.228
-265.047
-279.135
-291.533
-302.293
-311.461
-319.085
-325.203
-329.847
-333.042
-334.803
-335.15
-334.068
-331.56
-327.615
-322.201
-315.285
-306.819
-296.751
-285.03
-271.592
-256.379
-239.35
-220.463
-199.696
-177.039
-152.489
-126.095
-97.9321
-68.0929
-36.739
-4.08873
29.4921
63.8946
98.7723
133.81
168.585
202.669
235.675
267.161
296.684
323.869
348.332
369.737
387.787
402.225
412.853
419.535
422.17
420.619
414.99
405.369
391.878
374.702
354.111
330.391
303.873
274.937
243.986
211.446
177.745
143.298
108.527
73.8684
39.9254
6.66826
-25.7848
-57.1304
-87.138
-115.61
-142.42
-167.467
-190.693
-212.052
-231.516
-249.073
-264.731
-278.507
-290.421
-300.499
-308.778
-315.31
-320.147
-323.349
-324.987
-325.13
-323.836
-321.153
-317.119
-311.755
-305.063
-297.031
-287.63
-276.821
-264.562
-250.808
-235.516
-218.651
-200.192
-180.129
-158.471
-135.241
-110.481
-84.2544
-56.6466
-27.7713
2.23603
33.2175
64.9511
97.2103
129.743
162.261
194.447
225.955
256.416
285.441
312.633
337.594
359.934
379.287
395.317
407.733
416.297
420.834
421.227
417.457
409.559
397.624
381.826
362.398
339.631
313.862
285.471
254.877
222.52
188.86
154.359
119.478
84.6596
50.3499
16.8756
-15.4084
-46.2299
-75.3789
-102.702
-128.101
-151.527
-172.969
-192.451
-210.019
-225.737
-239.679
-251.931
-262.579
-271.712
-279.414
-285.763
-290.823
-294.645
-297.27
-298.726
-298.991
-298.118
-296.1
-292.932
-288.599
-283.083
-276.358
-268.395
-259.165
-248.631
-236.766
-223.534
-208.902
-192.834
-175.293
-156.247
-135.668
-113.54
-89.8711
-64.6879
-38.047
-10.0382
19.209
49.5313
80.7997
112.606
144.751
176.912
208.733
239.828
269.788
298.191
324.604
348.596
369.753
387.703
402.125
412.757
419.407
421.947
420.324
414.569
404.751
391.024
373.611
352.805
328.955
302.46
273.751
243.278
211.494
178.847
145.767
112.658
79.8913
47.7809
16.6153
-13.3647
-41.9664