/*--------------------------------*- C++ -*----------------------------------*\
| =========                 |                                                 |
| \\      /  F ield         | OpenFOAM: The Open Source CFD Toolbox           |
|  \\    /   O peration     | Version:  3.0.1                                 |
|   \\  /    A nd           | Web:      www.OpenFOAM.org                      |
|    \\/     M anipulation  |                                                 |
\*---------------------------------------------------------------------------*/
FoamFile
{
    version     2.0;
    format      ascii;
    class       volScalarField;
    location    "93.8";
    object      p;
}
// * * * * * * * * * * * * * * * * * * * * * * * * * * * * * * * * * * * * * //

dimensions      [1 -1 -2 0 0 0 0];

internalField   nonuniform List<scalar> 
21420
(
3549.75
3544.54
3540.83
3538.6
3537.88
3538.6
3540.42
3543.74
3548.59
3554.92
3562.81
3572.28
3583.36
3596.11
3610.57
3626.79
3644.8
3664.64
3686.28
3709.74
3735.02
3762
3790.64
3820.84
3852.43
3885.29
3919.23
3953.83
3988.41
4022.81
4056.66
4089.61
4121.23
4151.11
4178.84
4204.02
4226.3
4245.35
4260.88
4272.66
4280.51
4284.34
4284.02
4279.71
4271.34
4259.01
4242.95
4223.4
4200.64
4174.99
4146.84
4116.57
4084.59
4051.28
4017.09
3982.41
3947.58
3913.1
3880.7
3848.44
3817.07
3786.91
3758.2
3731.07
3705.63
3681.98
3660.16
3640.19
3622.07
3605.81
3591.39
3578.77
3567.93
3558.87
3551.53
3545.9
3541.96
3539.72
3539.17
3540.11
3542.61
3546.7
3552.36
3559.58
3568.33
3578.62
3590.43
3603.74
3618.56
3634.89
3652.73
3672.09
3692.98
3715.38
3739.28
3764.65
3791.42
3819.52
3848.83
3879.18
3910.4
3942.24
3974.42
4006.67
4038.65
4070.05
4100.48
4129.59
4157
4182.33
4205.23
4225.35
4242.36
4255.99
4265.98
4272.14
4274.29
4272.41
4266.49
4256.6
4242.8
4225.33
4204.42
4180.39
4153.57
4124.36
4093.16
4060.41
4026.55
3992.02
3957.25
3922.63
3888.6
3855.43
3823.47
3792.96
3764.13
3737.13
3712.08
3689.06
3668.09
3649.16
3632.25
3617.3
3604.23
3592.97
3583.41
3575.48
3569.09
3564.15
3560.6
3558.37
3557.4
3557.66
3559.15
3561.8
3565.62
3570.62
3576.83
3584.28
3593
3603.04
3614.45
3627.27
3641.55
3657.33
3674.65
3693.52
3713.97
3735.98
3759.54
3784.59
3811.08
3838.89
3867.89
3897.91
3928.77
3960.14
3991.76
4023.3
4054.44
4084.8
4113.99
4141.63
4167.3
4190.61
4211.18
4228.67
4242.76
4253.19
4259.76
4262.3
4260.76
4255.18
4245.64
4232.24
4215.22
4194.88
4171.53
4145.54
4117.33
4087.29
4055.85
4023.43
3990.47
3957.36
3924.51
3892.27
3860.95
3830.8
3802.03
3774.79
3749.2
3725.32
3703.2
3682.85
3664.28
3647.48
3632.42
3619.06
3607.36
3597.25
3588.66
3581.52
3575.77
3571.36
3568.24
3566.37
3565.74
3566.33
3568.14
3571.11
3575.25
3580.52
3586.91
3594.41
3603.01
3612.74
3623.62
3635.72
3649.08
3663.78
3679.86
3697.37
3716.31
3736.71
3758.53
3781.76
3806.33
3832.17
3859.19
3887.27
3916.26
3945.96
3976.14
4006.47
4036.65
4066.34
4095.17
4122.71
4148.57
4172.31
4193.55
4211.9
4227.03
4238.64
4246.5
4250.44
4250.29
4246.15
4238.01
4225.93
4210.13
4190.89
4168.51
4143.4
4115.96
4086.66
4055.92
4024.21
3991.94
3959.46
3927.19
3899.71
3869.79
3840.74
3812.87
3786.37
3761.4
3738.08
3716.46
3696.6
3678.51
3662.16
3647.52
3634.53
3623.11
3613.19
3604.66
3597.42
3591.36
3586.41
3582.45
3579.43
3577.27
3575.95
3575.46
3575.82
3577.01
3579.19
3582.44
3586.84
3592.55
3599.7
3608.39
3618.75
3630.87
3644.83
3660.68
3678.43
3698.09
3719.61
3742.95
3767.97
3794.56
3822.52
3851.64
3882
3912.6
3943.47
3974.3
4004.7
4034.3
4062.77
4089.73
4114.86
4137.84
4158.39
4176.3
4191.33
4203.33
4212.23
4218
4220.65
4220.79
4217.87
4211.92
4203.03
4191.35
4177.09
4160.44
4141.58
4120.71
4098.02
4073.74
4048.07
4021.36
3451.59
3446.38
3442.67
3440.45
3439.72
3440.44
3442.26
3445.58
3450.43
3456.76
3464.65
3474.12
3485.19
3497.94
3512.4
3528.62
3546.62
3566.46
3588.1
3611.56
3636.83
3663.82
3692.46
3722.66
3754.26
3787.13
3821.08
3855.69
3890.29
3924.7
3958.57
3991.54
4023.17
4053.07
4080.82
4106.01
4128.31
4147.38
4162.92
4174.71
4182.57
4186.4
4186.09
4181.76
4173.38
4161.05
4144.98
4125.42
4102.64
4076.97
4048.8
4018.51
3986.51
3953.19
3918.98
3884.28
3849.44
3814.95
3782.54
3750.27
3718.9
3688.73
3660.02
3632.88
3607.45
3583.8
3561.97
3542
3523.89
3507.63
3493.21
3480.59
3469.76
3460.7
3453.37
3447.73
3443.79
3441.55
3441.01
3441.94
3444.44
3448.54
3454.2
3461.42
3470.17
3480.45
3492.27
3505.58
3520.4
3536.72
3554.56
3573.92
3594.8
3617.2
3641.11
3666.47
3693.25
3721.35
3750.66
3781.02
3812.25
3844.09
3876.29
3908.55
3940.55
3971.95
4002.4
4031.53
4058.95
4084.31
4107.22
4127.35
4144.38
4158.02
4168.02
4174.19
4176.35
4174.46
4168.54
4158.64
4144.84
4127.35
4106.43
4082.38
4055.54
4026.31
3995.09
3962.32
3928.45
3893.9
3859.11
3824.48
3790.43
3757.26
3725.28
3694.77
3665.93
3638.93
3613.89
3590.86
3569.89
3550.97
3534.06
3519.12
3506.05
3494.79
3485.24
3477.32
3470.93
3465.99
3462.45
3460.21
3459.24
3459.52
3461
3463.64
3467.47
3472.47
3478.68
3486.12
3494.84
3504.88
3516.28
3529.1
3543.38
3559.16
3576.47
3595.35
3615.79
3637.8
3661.36
3686.42
3712.91
3740.72
3769.73
3799.76
3830.62
3862.01
3893.63
3925.19
3956.34
3986.72
4015.93
4043.58
4069.27
4092.6
4113.19
4130.69
4144.8
4155.24
4161.82
4164.36
4162.81
4157.23
4147.68
4134.27
4117.24
4096.88
4073.51
4047.51
4019.27
3989.21
3957.76
3925.32
3892.34
3859.22
3826.35
3794.11
3762.78
3732.62
3703.85
3676.61
3651.01
3627.13
3605.01
3584.67
3566.1
3549.3
3534.24
3520.89
3509.19
3499.08
3490.49
3483.36
3477.61
3473.2
3470.08
3468.22
3467.59
3468.18
3469.99
3472.96
3477.1
3482.37
3488.76
3496.26
3504.86
3514.58
3525.47
3537.56
3550.92
3565.62
3581.7
3599.2
3618.15
3638.54
3660.37
3683.59
3708.16
3734.01
3761.04
3789.12
3818.11
3847.82
3878.01
3908.35
3938.55
3968.26
3997.1
4024.66
4050.53
4074.3
4095.55
4113.92
4129.06
4140.68
4148.55
4152.5
4152.35
4148.2
4140.06
4127.97
4112.16
4092.9
4070.51
4045.37
4017.92
3988.6
3957.85
3926.12
3893.83
3861.34
3829.07
3801.55
3771.63
3742.57
3714.7
3688.2
3663.23
3639.9
3618.29
3598.43
3580.34
3563.99
3549.35
3536.36
3524.95
3515.03
3506.5
3499.27
3493.22
3488.27
3484.32
3481.29
3479.14
3477.82
3477.33
3477.68
3478.87
3481.05
3484.29
3488.69
3494.4
3501.53
3510.22
3520.58
3532.7
3546.65
3562.5
3580.25
3599.9
3621.43
3644.77
3669.8
3696.39
3724.36
3753.48
3783.85
3814.46
3845.35
3876.2
3906.61
3936.23
3964.71
3991.69
4016.83
4039.83
4060.39
4078.3
4093.34
4105.35
4114.26
4120.02
4122.68
4122.82
4119.89
4113.94
4105.03
4093.35
4079.08
4062.41
4043.54
4022.66
3999.97
3975.67
3950
3923.28
3353.37
3348.15
3344.45
3342.23
3341.5
3342.21
3344.03
3347.36
3352.2
3358.54
3366.42
3375.88
3386.95
3399.69
3414.15
3430.36
3448.37
3468.19
3489.84
3513.3
3538.57
3565.56
3594.2
3624.41
3656.02
3688.9
3722.88
3757.51
3792.14
3826.58
3860.49
3893.48
3925.15
3955.09
3982.88
4008.11
4030.44
4049.54
4065.1
4076.91
4084.79
4088.62
4088.32
4083.97
4075.58
4063.23
4047.13
4027.55
4004.73
3979.03
3950.83
3920.5
3888.46
3855.1
3820.86
3786.13
3751.26
3716.75
3684.32
3652.03
3620.65
3590.47
3561.75
3534.62
3509.18
3485.53
3463.71
3443.74
3425.63
3409.37
3394.96
3382.35
3371.52
3362.46
3355.13
3349.5
3345.56
3343.31
3342.79
3343.71
3346.21
3350.31
3355.97
3363.19
3371.94
3382.23
3394.04
3407.35
3422.16
3438.49
3456.32
3475.68
3496.56
3518.96
3542.86
3568.23
3595.01
3623.12
3652.44
3682.8
3714.05
3745.91
3778.13
3810.41
3842.44
3873.88
3904.36
3933.52
3960.97
3986.36
4009.31
4029.47
4046.53
4060.19
4070.21
4076.39
4078.57
4076.67
4070.74
4060.83
4047.01
4029.49
4008.54
3984.45
3957.58
3928.31
3897.06
3864.25
3830.34
3795.75
3760.93
3726.28
3692.2
3659.01
3627.02
3596.5
3567.65
3540.65
3515.6
3492.57
3471.61
3452.69
3435.79
3420.85
3407.8
3396.54
3387
3379.09
3372.71
3367.78
3364.24
3362.01
3361.04
3361.33
3362.8
3365.45
3369.27
3374.27
3380.47
3387.91
3396.63
3406.66
3418.06
3430.87
3445.15
3460.92
3478.23
3497.1
3517.54
3539.55
3563.11
3588.17
3614.67
3642.49
3671.51
3701.55
3732.42
3763.83
3795.48
3827.07
3858.25
3888.66
3917.9
3945.59
3971.32
3994.68
4015.31
4032.84
4046.97
4057.43
4064.02
4066.59
4065.02
4059.43
4049.87
4036.44
4019.38
3998.99
3975.58
3949.54
3921.27
3891.17
3859.68
3827.21
3794.19
3761.04
3728.15
3695.88
3664.54
3634.37
3605.59
3578.35
3552.75
3528.87
3506.75
3486.41
3467.84
3451.05
3436
3422.65
3410.95
3400.85
3392.27
3385.14
3379.4
3374.99
3371.88
3370.02
3369.39
3369.99
3371.79
3374.77
3378.9
3384.18
3390.57
3398.06
3406.66
3416.38
3427.26
3439.35
3452.71
3467.4
3483.47
3500.97
3519.91
3540.31
3562.13
3585.36
3609.94
3635.79
3662.82
3690.91
3719.92
3749.65
3779.85
3810.22
3840.44
3870.18
3899.06
3926.65
3952.56
3976.37
3997.66
4016.06
4031.23
4042.87
4050.76
4054.71
4054.57
4050.41
4042.26
4030.15
4014.31
3995.02
3972.6
3947.42
3919.93
3890.57
3859.79
3828.03
3795.72
3763.21
3730.92
3703.33
3673.41
3644.34
3616.46
3589.95
3564.97
3541.65
3520.03
3500.18
3482.09
3465.75
3451.12
3438.13
3426.73
3416.82
3408.3
3401.07
3395.03
3390.09
3386.14
3383.13
3380.97
3379.66
3379.17
3379.51
3380.7
3382.87
3386.1
3390.49
3396.18
3403.31
3411.99
3422.34
3434.45
3448.4
3464.24
3481.99
3501.64
3523.17
3546.51
3571.55
3598.15
3626.13
3655.27
3685.65
3716.29
3747.21
3778.08
3808.53
3838.18
3866.69
3893.7
3918.87
3941.89
3962.48
3980.41
3995.47
4007.49
4016.41
4022.17
4024.82
4024.96
4022.03
4016.06
4007.14
3995.44
3981.15
3964.46
3945.57
3924.67
3901.96
3877.64
3851.95
3825.21
3255.08
3249.87
3246.17
3243.95
3243.22
3243.91
3245.75
3249.09
3253.92
3260.25
3268.13
3277.59
3288.65
3301.38
3315.83
3332.04
3350.03
3369.85
3391.49
3414.95
3440.22
3467.21
3495.86
3526.09
3557.71
3590.61
3624.62
3659.29
3693.97
3728.46
3762.41
3795.46
3827.18
3857.17
3885.02
3910.3
3932.68
3951.82
3967.42
3979.26
3987.16
3991
3990.72
3986.33
3977.93
3965.55
3949.42
3929.79
3906.93
3881.17
3852.91
3822.53
3790.44
3757.02
3722.73
3687.96
3653.05
3618.5
3586.04
3553.72
3522.32
3492.13
3463.41
3436.26
3410.82
3387.17
3365.35
3345.39
3327.29
3311.04
3296.63
3284.02
3273.2
3264.15
3256.82
3251.19
3247.26
3245.01
3244.5
3245.41
3247.92
3252.02
3257.68
3264.9
3273.65
3283.94
3295.75
3309.05
3323.86
3340.19
3358.02
3377.37
3398.25
3420.65
3444.55
3469.92
3496.7
3524.82
3554.15
3584.54
3615.8
3647.69
3679.94
3712.26
3744.33
3775.81
3806.34
3835.55
3863.06
3888.49
3911.49
3931.7
3948.8
3962.5
3972.55
3978.75
3980.96
3979.04
3973.1
3963.17
3949.31
3931.76
3910.76
3886.62
3859.7
3830.37
3799.05
3766.19
3732.22
3697.59
3662.72
3628.03
3593.91
3560.69
3528.67
3498.13
3469.28
3442.27
3417.21
3394.19
3373.23
3354.33
3337.44
3322.51
3309.47
3298.23
3288.7
3280.8
3274.42
3269.51
3265.97
3263.75
3262.79
3263.08
3264.55
3267.2
3271.02
3276.02
3282.22
3289.65
3298.36
3308.39
3319.78
3332.59
3346.85
3362.62
3379.93
3398.79
3419.23
3441.24
3464.79
3489.86
3516.36
3544.19
3573.23
3603.29
3634.19
3665.63
3697.32
3728.94
3760.17
3790.62
3819.92
3847.66
3873.44
3896.86
3917.54
3935.12
3949.28
3959.78
3966.39
3968.97
3967.4
3961.79
3952.21
3938.74
3921.64
3901.2
3877.74
3851.64
3823.31
3793.16
3761.61
3729.09
3696.03
3662.83
3629.9
3597.6
3566.23
3536.05
3507.25
3480
3454.4
3430.52
3408.41
3388.07
3369.51
3352.72
3337.68
3324.34
3312.65
3302.56
3293.99
3286.87
3281.14
3276.74
3273.62
3271.77
3271.14
3271.74
3273.55
3276.52
3280.66
3285.94
3292.33
3299.82
3308.42
3318.14
3329.01
3341.09
3354.44
3369.12
3385.18
3402.68
3421.62
3442.01
3463.84
3487.07
3511.65
3537.5
3564.55
3592.66
3621.68
3651.44
3681.67
3712.07
3742.34
3772.12
3801.05
3828.7
3854.66
3878.52
3899.86
3918.31
3933.53
3945.21
3953.11
3957.08
3956.96
3952.78
3944.61
3932.47
3916.6
3897.26
3874.78
3849.55
3822
3792.59
3761.75
3729.95
3697.59
3665.05
3632.74
3605.05
3575.12
3546.04
3518.14
3491.63
3466.65
3443.32
3421.7
3401.85
3383.77
3367.44
3352.81
3339.84
3328.45
3318.55
3310.05
3302.83
3296.8
3291.87
3287.93
3284.92
3282.78
3281.46
3280.97
3281.31
3282.48
3284.65
3287.86
3292.23
3297.91
3305.03
3313.69
3324.02
3336.12
3350.06
3365.89
3383.64
3403.29
3424.82
3448.17
3473.22
3499.84
3527.84
3557.01
3587.41
3618.09
3649.05
3679.96
3710.45
3740.15
3768.71
3795.76
3820.98
3844.04
3864.67
3882.63
3897.72
3909.76
3918.68
3924.44
3927.09
3927.22
3924.28
3918.3
3909.36
3897.63
3883.31
3866.59
3847.66
3826.74
3803.99
3779.65
3753.93
3727.16
3156.73
3151.53
3147.84
3145.62
3144.88
3145.55
3147.41
3150.75
3155.58
3161.91
3169.77
3179.22
3190.28
3203
3217.44
3233.63
3251.62
3271.43
3293.06
3316.52
3341.79
3368.79
3397.45
3427.69
3459.33
3492.26
3526.3
3561.04
3595.78
3630.32
3664.34
3697.46
3729.25
3759.32
3787.23
3812.59
3835.04
3854.24
3869.89
3881.76
3889.69
3893.54
3893.27
3888.86
3880.43
3868.02
3851.84
3832.15
3809.22
3783.39
3755.06
3724.6
3692.44
3658.95
3624.59
3589.76
3554.8
3520.21
3487.7
3455.35
3423.92
3393.72
3364.98
3337.82
3312.38
3288.73
3266.92
3246.96
3228.87
3212.62
3198.22
3185.63
3174.82
3165.77
3158.45
3152.82
3148.89
3146.65
3146.13
3147.05
3149.57
3153.67
3159.33
3166.55
3175.3
3185.59
3197.39
3210.69
3225.5
3241.82
3259.64
3278.99
3299.87
3322.26
3346.16
3371.53
3398.33
3426.46
3455.8
3486.21
3517.51
3549.44
3581.73
3614.1
3646.22
3677.76
3708.35
3737.63
3765.2
3790.71
3813.77
3834.05
3851.2
3864.95
3875.04
3881.27
3883.49
3881.57
3875.62
3865.65
3851.76
3834.16
3813.1
3788.89
3761.88
3732.48
3701.09
3668.15
3634.1
3599.4
3564.47
3529.72
3495.56
3462.3
3430.25
3399.69
3370.81
3343.79
3318.74
3295.72
3274.77
3255.88
3239
3224.09
3211.07
3199.84
3190.33
3182.44
3176.09
3171.18
3167.66
3165.44
3164.5
3164.79
3166.26
3168.91
3172.73
3177.72
3183.92
3191.34
3200.04
3210.06
3221.44
3234.24
3248.49
3264.25
3281.55
3300.41
3320.84
3342.84
3366.4
3391.47
3417.98
3445.83
3474.89
3504.97
3535.9
3567.39
3599.13
3630.81
3662.09
3692.61
3721.98
3749.79
3775.64
3799.13
3819.88
3837.52
3851.74
3862.27
3868.91
3871.5
3869.94
3864.31
3854.69
3841.18
3824.03
3803.52
3779.99
3753.82
3725.41
3695.18
3663.56
3630.97
3597.84
3564.58
3531.6
3499.26
3467.86
3437.65
3408.84
3381.58
3355.98
3332.1
3309.98
3289.65
3271.1
3254.32
3239.29
3225.96
3214.29
3204.21
3195.65
3188.54
3182.82
3178.43
3175.32
3173.47
3172.84
3173.45
3175.25
3178.24
3182.38
3187.66
3194.05
3201.54
3210.13
3219.84
3230.71
3242.77
3256.11
3270.78
3286.83
3304.32
3323.26
3343.65
3365.47
3388.71
3413.29
3439.16
3466.22
3494.35
3523.39
3553.18
3583.46
3613.91
3644.23
3674.08
3703.07
3730.79
3756.83
3780.76
3802.18
3820.69
3835.96
3847.69
3855.63
3859.61
3859.51
3855.31
3847.11
3834.94
3819.01
3799.61
3777.06
3751.75
3724.13
3694.64
3663.74
3631.87
3599.46
3566.87
3534.53
3506.72
3476.78
3447.68
3419.76
3393.23
3368.24
3344.91
3323.29
3303.45
3285.37
3269.05
3254.44
3241.48
3230.11
3220.23
3211.74
3204.54
3198.53
3193.61
3189.69
3186.69
3184.55
3183.23
3182.74
3183.07
3184.23
3186.38
3189.58
3193.93
3199.59
3206.68
3215.32
3225.64
3237.72
3251.65
3267.47
3285.21
3304.86
3326.39
3349.75
3374.81
3401.45
3429.48
3458.69
3489.12
3519.85
3550.86
3581.84
3612.39
3642.14
3670.77
3697.88
3723.16
3746.27
3766.95
3784.96
3800.07
3812.14
3821.08
3826.84
3829.46
3829.62
3826.66
3820.65
3811.68
3799.91
3785.55
3768.78
3749.82
3728.85
3706.07
3681.69
3655.94
3629.13
3058.32
3053.13
3049.44
3047.23
3046.49
3047.14
3049.01
3052.35
3057.18
3063.5
3071.36
3080.8
3091.83
3104.54
3118.97
3135.15
3153.13
3172.93
3194.55
3218.01
3243.28
3270.28
3298.95
3329.21
3360.88
3393.84
3427.93
3462.75
3497.56
3532.18
3566.27
3599.48
3631.36
3661.52
3689.53
3714.98
3737.51
3756.78
3772.5
3784.42
3792.37
3796.24
3795.98
3791.55
3783.09
3770.63
3754.38
3734.62
3711.61
3685.7
3657.27
3626.72
3594.46
3560.89
3526.45
3491.54
3456.51
3421.86
3389.29
3356.9
3325.44
3295.22
3266.46
3239.3
3213.85
3190.21
3168.4
3148.45
3130.37
3114.13
3099.74
3087.16
3076.36
3067.32
3060.01
3054.39
3050.46
3048.22
3047.7
3048.62
3051.15
3055.25
3060.92
3068.14
3076.89
3087.17
3098.97
3112.27
3127.07
3143.38
3161.2
3180.55
3201.41
3223.8
3247.7
3273.08
3299.88
3328.03
3357.39
3387.83
3419.16
3451.14
3483.49
3515.92
3548.11
3579.72
3610.39
3639.75
3667.41
3693
3716.15
3736.5
3753.73
3767.54
3777.68
3783.94
3786.17
3784.27
3778.3
3768.29
3754.35
3736.68
3715.54
3691.24
3664.15
3634.64
3603.15
3570.12
3535.98
3501.2
3466.19
3431.37
3397.15
3363.83
3331.75
3301.15
3272.26
3245.23
3220.18
3197.16
3176.22
3157.34
3140.49
3125.59
3112.59
3101.39
3091.9
3084.03
3077.69
3072.8
3069.29
3067.09
3066.15
3066.44
3067.92
3070.57
3074.39
3079.38
3085.56
3092.98
3101.67
3111.67
3123.04
3135.83
3150.07
3165.82
3183.1
3201.95
3222.38
3244.38
3267.94
3293.02
3319.54
3347.41
3376.49
3406.61
3437.58
3469.12
3500.92
3532.66
3564.02
3594.62
3624.08
3651.98
3677.92
3701.5
3722.33
3740.05
3754.33
3764.92
3771.59
3774.19
3772.64
3766.99
3757.32
3743.76
3726.53
3705.94
3682.32
3656.06
3627.55
3597.23
3565.52
3532.84
3499.63
3466.3
3433.26
3400.86
3369.42
3339.18
3310.35
3283.08
3257.47
3233.59
3211.48
3191.16
3172.61
3155.85
3140.83
3127.52
3115.86
3105.8
3097.26
3090.16
3084.45
3080.07
3076.97
3075.12
3074.5
3075.11
3076.92
3079.9
3084.05
3089.33
3095.72
3103.21
3111.8
3121.5
3132.35
3144.4
3157.72
3172.38
3188.42
3205.9
3224.83
3245.22
3267.05
3290.28
3314.88
3340.76
3367.84
3395.99
3425.06
3454.89
3485.22
3515.73
3546.12
3576.05
3605.12
3632.93
3659.06
3683.09
3704.59
3723.19
3738.53
3750.31
3758.3
3762.3
3762.21
3758
3749.76
3737.54
3721.55
3702.07
3679.43
3654.03
3626.31
3596.74
3565.74
3533.8
3501.32
3468.67
3436.3
3408.33
3378.37
3349.24
3321.31
3294.76
3269.76
3246.42
3224.81
3204.97
3186.91
3170.59
3156
3143.06
3131.71
3121.85
3113.38
3106.2
3100.21
3095.31
3091.41
3088.42
3086.29
3084.97
3084.48
3084.79
3085.95
3088.08
3091.25
3095.57
3101.21
3108.27
3116.88
3127.18
3139.24
3153.15
3168.97
3186.7
3206.35
3227.88
3251.25
3276.33
3302.99
3331.06
3360.31
3390.79
3421.58
3452.66
3483.7
3514.33
3544.16
3572.86
3600.05
3625.4
3648.59
3669.32
3687.39
3702.55
3714.65
3723.6
3729.36
3731.96
3732.13
3729.17
3723.12
3714.1
3702.29
3687.88
3671.06
3652.04
3631.02
3608.19
3583.77
3557.97
3531.11
2959.84
2954.66
2950.98
2948.78
2948.03
2948.67
2950.55
2953.89
2958.72
2965.03
2972.87
2982.3
2993.32
3006.02
3020.43
3036.59
3054.56
3074.35
3095.96
3119.41
3144.68
3171.69
3200.38
3230.66
3262.36
3295.36
3329.51
3364.42
3399.32
3434.03
3468.22
3501.53
3533.52
3563.79
3591.91
3617.46
3640.09
3659.46
3675.24
3687.23
3695.22
3699.11
3698.84
3694.4
3685.89
3673.37
3657.06
3637.21
3614.1
3588.08
3559.54
3528.88
3496.51
3462.83
3428.29
3393.29
3358.18
3323.46
3290.82
3258.39
3226.89
3196.64
3167.86
3140.69
3115.24
3091.6
3069.8
3049.86
3031.78
3015.56
3001.19
2988.62
2977.83
2968.8
2961.49
2955.88
2951.96
2949.73
2949.19
2950.13
2952.66
2956.77
2962.45
2969.66
2978.41
2988.7
3000.49
3013.78
3028.58
3044.88
3062.69
3082.03
3102.89
3125.28
3149.17
3174.56
3201.37
3229.53
3258.92
3289.39
3320.77
3352.81
3385.22
3417.72
3450
3481.7
3512.46
3541.92
3569.68
3595.38
3618.62
3639.07
3656.39
3670.27
3680.47
3686.77
3689.02
3687.13
3681.13
3671.08
3657.07
3639.33
3618.09
3593.69
3566.48
3536.86
3505.25
3472.11
3437.86
3402.97
3367.87
3332.97
3298.67
3265.3
3233.16
3202.53
3173.62
3146.57
3121.52
3098.51
3077.58
3058.72
3041.88
3027.02
3014.04
3002.87
2993.4
2985.55
2979.24
2974.37
2970.87
2968.68
2967.76
2968.06
2969.54
2972.19
2976
2980.98
2987.16
2994.57
3003.24
3013.23
3024.58
3037.35
3051.58
3067.32
3084.59
3103.43
3123.85
3145.85
3169.41
3194.49
3221.03
3248.91
3278.02
3308.19
3339.21
3370.82
3402.68
3434.51
3465.96
3496.66
3526.22
3554.23
3580.28
3603.97
3624.89
3642.7
3657.07
3667.71
3674.42
3677.05
3675.5
3669.82
3660.1
3646.47
3629.16
3608.47
3584.75
3558.37
3529.75
3499.31
3467.49
3434.71
3401.4
3367.98
3334.86
3302.4
3270.91
3240.64
3211.78
3184.5
3158.89
3135.01
3112.9
3092.58
3074.05
3057.3
3042.29
3029
3017.37
3007.32
2998.8
2991.72
2986.03
2981.66
2978.57
2976.72
2976.11
2976.72
2978.53
2981.52
2985.67
2990.96
2997.35
3004.84
3013.42
3023.11
3033.95
3045.98
3059.28
3073.92
3089.95
3107.42
3126.34
3146.72
3168.55
3191.8
3216.4
3242.29
3269.39
3297.57
3326.69
3356.56
3386.96
3417.54
3448.01
3478.03
3507.2
3535.12
3561.36
3585.5
3607.11
3625.8
3641.23
3653.08
3661.12
3665.15
3665.07
3660.86
3652.57
3640.29
3624.23
3604.65
3581.9
3556.39
3528.56
3498.87
3467.77
3435.73
3403.16
3370.44
3338.03
3309.89
3279.91
3250.75
3222.78
3196.21
3171.2
3147.86
3126.25
3106.42
3088.36
3072.07
3057.49
3044.58
3033.24
3023.41
3014.97
3007.82
3001.85
2996.97
2993.09
2990.11
2987.99
2986.68
2986.18
2986.48
2987.62
2989.73
2992.87
2997.17
3002.77
3009.8
3018.38
3028.65
3040.69
3054.58
3070.38
3088.11
3107.75
3129.29
3152.67
3177.77
3204.46
3232.57
3261.88
3292.41
3323.27
3354.43
3385.56
3416.28
3446.21
3475
3502.28
3527.72
3550.99
3571.8
3589.93
3605.14
3617.28
3626.25
3632.01
3634.58
3634.77
3631.79
3625.7
3616.63
3604.76
3590.29
3573.41
3554.33
3533.25
3510.36
3485.88
3460.03
3433.11
2861.31
2856.14
2852.46
2850.27
2849.52
2850.14
2852.03
2855.38
2860.19
2866.5
2874.33
2883.74
2894.75
2907.42
2921.81
2937.96
2955.91
2975.69
2997.29
3020.74
3046
3073.02
3101.72
3132.03
3163.76
3196.81
3231.03
3266.05
3301.05
3335.87
3370.17
3403.6
3435.71
3466.11
3494.36
3520.04
3542.79
3562.26
3578.14
3590.18
3598.22
3602.13
3601.87
3597.41
3588.85
3576.27
3559.86
3539.92
3516.69
3490.54
3461.88
3431.08
3398.58
3364.78
3330.12
3295.01
3259.81
3225.02
3192.3
3159.8
3128.26
3097.98
3069.18
3042
3016.54
2992.9
2971.11
2951.18
2933.12
2916.91
2902.56
2890
2879.23
2870.21
2862.91
2857.31
2853.4
2851.16
2850.62
2851.57
2854.12
2858.23
2863.91
2871.13
2879.88
2890.16
2901.94
2915.23
2930.02
2946.31
2964.12
2983.45
3004.3
3026.68
3050.57
3075.96
3102.79
3130.97
3160.39
3190.9
3222.33
3254.44
3286.92
3319.51
3351.88
3383.69
3414.56
3444.13
3472.02
3497.83
3521.19
3541.75
3559.17
3573.14
3583.4
3589.75
3592.03
3590.15
3584.12
3574.02
3559.94
3542.1
3520.76
3496.23
3468.89
3439.13
3407.39
3374.11
3339.73
3304.72
3269.51
3234.51
3200.13
3166.69
3134.5
3103.83
3074.88
3047.83
3022.76
2999.76
2978.85
2960.01
2943.2
2928.36
2915.42
2904.27
2894.84
2887.02
2880.72
2875.88
2872.4
2870.23
2869.32
2869.62
2871.11
2873.76
2877.57
2882.54
2888.71
2896.1
2904.76
2914.73
2926.07
2938.82
2953.03
2968.75
2986.01
3004.84
3025.25
3047.24
3070.81
3095.9
3122.45
3150.36
3179.5
3209.71
3240.79
3272.48
3304.43
3336.35
3367.9
3398.71
3428.39
3456.53
3482.71
3506.52
3527.57
3545.49
3559.94
3570.66
3577.42
3580.07
3578.52
3572.82
3563.04
3549.32
3531.92
3511.11
3487.26
3460.75
3431.99
3401.42
3369.47
3336.57
3303.14
3269.61
3236.41
3203.88
3172.33
3142.02
3113.14
3085.84
3060.22
3036.34
3014.24
2993.93
2975.41
2958.68
2943.69
2930.42
2918.81
2908.79
2900.29
2893.23
2887.55
2883.19
2880.11
2878.28
2877.67
2878.29
2880.1
2883.1
2887.25
2892.54
2898.94
2906.42
2915
2924.67
2935.49
2947.51
2960.79
2975.41
2991.42
3008.87
3027.78
3048.16
3069.99
3093.24
3117.86
3143.77
3170.89
3199.1
3228.26
3258.19
3288.67
3319.33
3349.9
3380.02
3409.31
3437.36
3463.73
3487.99
3509.73
3528.54
3544.06
3556
3564.1
3568.16
3568.09
3563.87
3555.53
3543.19
3527.03
3507.33
3484.47
3458.82
3430.85
3401.03
3369.81
3337.67
3305
3272.2
3239.73
3211.4
3181.38
3152.18
3124.18
3097.59
3072.56
3049.22
3027.61
3007.79
2989.75
2973.47
2958.91
2946.02
2934.72
2924.92
2916.51
2909.39
2903.45
2898.6
2894.73
2891.77
2889.67
2888.36
2887.85
2888.14
2889.26
2891.35
2894.45
2898.71
2904.27
2911.26
2919.81
2930.05
2942.06
2955.93
2971.71
2989.43
3009.07
3030.62
3054.01
3079.13
3105.86
3134.01
3163.38
3193.99
3224.93
3256.18
3287.41
3318.24
3348.27
3377.18
3404.56
3430.11
3453.47
3474.37
3492.57
3507.85
3520.03
3529.03
3534.79
3537.33
3537.54
3534.53
3528.4
3519.27
3507.33
3492.79
3475.83
3456.68
3435.52
3412.57
3388.03
3362.11
3335.13
2762.71
2757.55
2753.89
2751.7
2750.95
2751.56
2753.46
2756.8
2761.61
2767.9
2775.72
2785.12
2796.1
2808.75
2823.12
2839.25
2857.18
2876.94
2898.54
2921.98
2947.24
2974.26
3002.98
3033.32
3065.09
3098.2
3132.49
3167.64
3202.76
3237.7
3272.12
3305.69
3337.95
3368.5
3396.9
3422.72
3445.6
3465.19
3481.17
3493.3
3501.39
3505.32
3505.06
3500.58
3491.97
3479.3
3462.8
3442.73
3419.38
3393.09
3364.27
3333.32
3300.68
3266.73
3231.93
3196.7
3161.4
3126.52
3093.7
3061.15
3029.56
2999.24
2970.42
2943.22
2917.76
2894.12
2872.33
2852.42
2834.38
2818.19
2803.85
2791.31
2780.56
2771.55
2764.27
2758.67
2754.77
2752.53
2751.97
2752.95
2755.51
2759.63
2765.31
2772.53
2781.28
2791.56
2803.33
2816.61
2831.39
2847.68
2865.48
2884.79
2905.64
2928.01
2951.9
2977.3
3004.13
3032.34
3061.8
3092.36
3123.84
3156.03
3188.6
3221.28
3253.76
3285.69
3316.69
3346.39
3374.41
3400.36
3423.86
3444.55
3462.08
3476.15
3486.49
3492.9
3495.21
3493.33
3487.28
3477.11
3462.95
3445
3423.53
3398.86
3371.37
3341.46
3309.56
3276.12
3241.6
3206.45
3171.11
3136
3101.52
3068
3035.75
3005.03
2976.06
2948.98
2923.92
2900.93
2880.03
2861.21
2844.43
2829.63
2816.72
2805.61
2796.21
2788.42
2782.15
2777.33
2773.88
2771.72
2770.83
2771.14
2772.63
2775.28
2779.09
2784.06
2790.21
2797.59
2806.23
2816.18
2827.5
2840.23
2854.42
2870.12
2887.36
2906.17
2926.57
2948.56
2972.13
2997.23
3023.8
3051.74
3080.92
3111.18
3142.33
3174.11
3206.15
3238.18
3269.85
3300.79
3330.61
3358.9
3385.22
3409.18
3430.36
3448.4
3462.96
3473.76
3480.58
3483.26
3481.71
3475.97
3466.12
3452.31
3434.79
3413.86
3389.86
3363.2
3334.29
3303.56
3271.47
3238.42
3204.86
3171.21
3137.91
3105.29
3073.68
3043.32
3014.41
2987.09
2961.47
2937.59
2915.5
2895.2
2876.7
2859.98
2845.01
2831.77
2820.18
2810.19
2801.72
2794.68
2789.02
2784.68
2781.61
2779.79
2779.19
2779.8
2781.62
2784.62
2788.79
2794.08
2800.48
2807.96
2816.53
2826.19
2836.99
2848.98
2862.24
2876.83
2892.82
2910.26
2929.16
2949.54
2971.37
2994.62
3019.25
3045.18
3072.33
3100.58
3129.79
3159.79
3190.34
3221.1
3251.78
3282.02
3311.45
3339.64
3366.16
3390.57
3412.45
3431.39
3447.04
3459.07
3467.23
3471.34
3471.28
3467.04
3458.64
3446.22
3429.96
3410.14
3387.13
3361.33
3333.21
3303.23
3271.88
3239.61
3206.82
3173.92
3141.4
3112.86
3082.79
3053.55
3025.51
2998.89
2973.85
2950.5
2928.89
2909.08
2891.05
2874.8
2860.27
2847.41
2836.14
2826.37
2817.99
2810.91
2805
2800.18
2796.34
2793.4
2791.31
2790.01
2789.49
2789.76
2790.87
2792.92
2795.99
2800.21
2805.72
2812.67
2821.17
2831.37
2843.36
2857.2
2872.96
2890.67
2910.3
2931.86
2955.26
2980.41
3007.19
3035.39
3064.83
3095.51
3126.55
3157.91
3189.26
3220.2
3250.36
3279.39
3306.9
3332.56
3356.04
3377.03
3395.32
3410.67
3422.91
3431.93
3437.69
3440.2
3440.42
3437.39
3431.21
3422.02
3410
3395.37
3378.33
3359.09
3337.85
3314.82
3290.21
3264.22
3237.16
2664.05
2658.9
2655.25
2653.07
2652.32
2652.92
2654.83
2658.17
2662.97
2669.25
2677.05
2686.43
2697.39
2710.01
2724.36
2740.46
2758.37
2778.12
2799.7
2823.13
2848.39
2875.43
2904.16
2934.54
2966.35
2999.51
3033.89
3069.2
3104.45
3139.51
3174.08
3207.8
3240.23
3270.95
3299.51
3325.5
3348.53
3368.26
3384.35
3396.56
3404.71
3408.68
3408.42
3403.91
3395.23
3382.48
3365.86
3345.67
3322.17
3295.71
3266.73
3235.61
3202.79
3168.69
3133.74
3098.37
3062.94
3027.97
2995.05
2962.42
2930.78
2900.41
2871.56
2844.35
2818.89
2795.25
2773.48
2753.58
2735.55
2719.38
2705.06
2692.55
2681.81
2672.83
2665.55
2659.96
2656.07
2653.83
2653.26
2654.26
2656.83
2660.96
2666.65
2673.86
2682.62
2692.89
2704.66
2717.93
2732.7
2748.98
2766.76
2786.07
2806.9
2829.27
2853.16
2878.56
2905.41
2933.64
2963.14
2993.75
3025.3
3057.58
3090.24
3123.04
3155.64
3187.7
3218.84
3248.7
3276.87
3302.97
3326.62
3347.45
3365.12
3379.3
3389.74
3396.21
3398.55
3396.67
3390.59
3380.35
3366.1
3348.03
3326.42
3301.59
3273.93
3243.84
3211.76
3178.15
3143.46
3108.16
3072.68
3037.44
3002.85
2969.24
2936.92
2906.15
2877.14
2850.05
2824.98
2802
2781.12
2762.33
2745.58
2730.82
2717.94
2706.87
2697.51
2689.76
2683.52
2678.73
2675.3
2673.17
2672.29
2672.61
2674.11
2676.76
2680.56
2685.52
2691.66
2699.02
2707.64
2717.57
2728.86
2741.57
2755.74
2771.42
2788.64
2807.44
2827.83
2849.81
2873.38
2898.49
2925.08
2953.05
2982.28
3012.6
3043.81
3075.7
3107.84
3139.99
3171.8
3202.89
3232.87
3261.32
3287.81
3311.93
3333.26
3351.44
3366.12
3377.02
3383.9
3386.61
3385.06
3379.28
3369.35
3355.45
3337.8
3316.71
3292.55
3265.71
3236.63
3205.74
3173.47
3140.27
3106.56
3072.77
3039.36
3006.65
2974.96
2944.55
2915.61
2888.27
2862.63
2838.76
2816.68
2796.39
2777.91
2761.21
2746.26
2733.04
2721.49
2711.53
2703.09
2696.08
2690.44
2686.12
2683.06
2681.25
2680.65
2681.27
2683.1
2686.11
2690.28
2695.58
2701.98
2709.46
2718.01
2727.66
2738.44
2750.4
2763.63
2778.19
2794.16
2811.58
2830.48
2850.85
2872.68
2895.94
2920.58
2946.54
2973.72
3002.01
3031.27
3061.33
3091.99
3122.86
3153.65
3184.04
3213.62
3241.97
3268.66
3293.24
3315.28
3334.37
3350.14
3362.28
3370.52
3374.67
3374.63
3370.37
3361.91
3349.4
3333.02
3313.06
3289.88
3263.91
3235.61
3205.47
3173.96
3141.55
3108.63
3075.63
3043.03
3014.27
2984.15
2954.85
2926.76
2900.12
2875.05
2851.7
2830.1
2810.3
2792.29
2776.05
2761.55
2748.73
2737.49
2727.76
2719.43
2712.38
2706.51
2701.72
2697.91
2695
2692.92
2691.62
2691.1
2691.35
2692.44
2694.45
2697.48
2701.65
2707.11
2714.01
2722.47
2732.63
2744.57
2758.39
2774.13
2791.82
2811.45
2833.01
2856.44
2881.62
2908.44
2936.7
2966.22
2996.99
3028.13
3059.61
3091.09
3122.17
3152.48
3181.65
3209.3
3235.09
3258.69
3279.79
3298.18
3313.61
3325.91
3334.97
3340.73
3343.21
3343.44
3340.37
3334.13
3324.87
3312.76
3298.04
3280.9
3261.56
3240.24
3217.12
3192.42
3166.35
3139.21
2565.32
2560.2
2556.56
2554.38
2553.63
2554.23
2556.14
2559.48
2564.27
2570.53
2578.31
2587.67
2598.6
2611.2
2625.52
2641.6
2659.49
2679.21
2700.78
2724.2
2749.46
2776.51
2805.27
2835.67
2867.53
2900.76
2935.23
2970.72
3006.11
3041.32
3076.05
3109.94
3142.55
3173.45
3202.21
3228.37
3251.57
3271.45
3287.67
3299.98
3308.2
3312.2
3311.94
3307.39
3298.65
3285.81
3269.06
3248.72
3225.05
3198.42
3169.24
3137.93
3104.94
3070.66
3035.53
3000.01
2964.45
2929.37
2896.33
2863.62
2831.91
2801.51
2772.63
2745.4
2719.93
2696.3
2674.53
2654.65
2636.65
2620.5
2606.2
2593.71
2582.99
2574.03
2566.76
2561.19
2557.3
2555.07
2554.47
2555.51
2558.1
2562.23
2567.92
2575.14
2583.89
2594.16
2605.92
2619.19
2633.95
2650.21
2667.99
2687.28
2708.1
2730.46
2754.35
2779.75
2806.62
2834.88
2864.42
2895.09
2926.71
2959.08
2991.86
3024.77
3057.51
3089.72
3121.03
3151.05
3179.39
3205.67
3229.49
3250.47
3268.28
3282.6
3293.13
3299.67
3302.05
3300.18
3294.06
3283.75
3269.39
3251.18
3229.41
3204.41
3176.56
3146.27