/*--------------------------------*- C++ -*----------------------------------*\
| =========                 |                                                 |
| \\      /  F ield         | OpenFOAM: The Open Source CFD Toolbox           |
|  \\    /   O peration     | Version:  3.0.1                                 |
|   \\  /    A nd           | Web:      www.OpenFOAM.org                      |
|    \\/     M anipulation  |                                                 |
\*---------------------------------------------------------------------------*/
FoamFile
{
    version     2.0;
    format      ascii;
    class       volScalarField;
    location    "27";
    object      p;
}
// * * * * * * * * * * * * * * * * * * * * * * * * * * * * * * * * * * * * * //

dimensions      [1 -1 -2 0 0 0 0];

internalField   nonuniform List<scalar> 
21420
(
4037.31
4069.43
4100.91
4131.26
4160.09
4186.84
4211.13
4232.52
4250.69
4265.37
4276.33
4283.37
4286.31
4285
4279.55
4270.14
4256.78
4239.69
4219.11
4195.36
4168.8
4139.77
4108.66
4075.93
4041.97
4007.22
3972.03
3936.73
3901.76
3874.18
3841.26
3809.56
3779.33
3750.71
3723.81
3698.69
3675.41
3653.97
3634.38
3616.61
3600.63
3586.39
3573.86
3562.98
3553.71
3545.99
3539.78
3535.05
3531.78
3529.98
3529.62
3530.71
3533.24
3537.25
3542.78
3549.84
3558.49
3568.79
3580.76
3594.47
3609.95
3627.23
3646.37
3667.35
3690.15
3714.75
3741.08
3769.02
3798.45
3829.19
3861.11
3894.28
3927.73
3961.34
3994.86
4027.93
4060.23
4091.4
4121.07
4148.89
4174.51
4197.59
4217.79
4234.85
4248.49
4258.48
4264.68
4266.92
4265.22
4259.54
4249.97
4236.61
4219.63
4199.27
4175.8
4149.52
4120.76
4089.89
4057.29
4023.35
3988.5
3953.13
3917.66
3882.48
3847.96
3814.44
3782.22
3751.55
3722.63
3695.6
3670.57
3647.57
3626.63
3607.73
3590.83
3575.88
3562.82
3551.59
3542.11
3534.34
3528.2
3523.64
3520.6
3519.08
3518.98
3520.26
3522.9
3526.87
3532.14
3538.69
3546.51
3555.59
3565.94
3577.57
3590.51
3604.78
3620.42
3637.49
3656.01
3676.03
3697.56
3720.63
3745.22
3771.29
3798.76
3827.55
3857.64
3888.51
3920.07
3952.05
3984.11
4015.91
4047.04
4077.1
4105.67
4132.31
4156.62
4178.18
4196.65
4211.67
4222.97
4230.3
4233.51
4232.41
4227.11
4217.64
4204.05
4186.58
4165.52
4141.19
4113.98
4084.32
4052.67
4019.5
3985.3
3950.53
3915.65
3881.05
3847.11
3814.17
3782.47
3752.24
3723.65
3696.81
3671.82
3648.69
3627.45
3608.06
3590.49
3574.66
3560.51
3547.96
3536.94
3527.38
3519.23
3512.42
3506.93
3502.73
3499.77
3498.08
3497.67
3498.5
3500.61
3504.02
3508.77
3514.88
3522.39
3531.34
3541.78
3553.76
3567.3
3582.46
3599.28
3617.78
3637.97
3659.85
3683.4
3708.56
3735.25
3763.37
3792.8
3823.29
3854.66
3886.65
3918.97
3951.3
3983.28
4014.54
4044.68
4073.32
4100.07
4124.54
4146.39
4165.28
4180.91
4193.05
4201.49
4206.1
4206.67
4203.35
4196.1
4184.97
4170.14
4151.81
4130.26
4105.79
4078.76
4049.57
4018.64
3986.41
3953.32
3919.8
3886.26
3853.1
3820.66
3789.32
3759.19
3730.57
3703.6
3678.41
3655.07
3633.63
3614.09
3596.46
3580.71
3566.78
3554.63
3544.19
3535.39
3528.2
3522.52
3518.3
3515.49
3514.01
3513.83
3514.95
3517.28
3520.84
3525.63
3531.69
3539.03
3547.7
3557.74
3569.21
3582.17
3596.7
3612.84
3630.67
3650.22
3671.52
3694.56
3719.32
3745.75
3773.71
3802.99
3836.05
3868.98
3902.71
3936.98
3971.34
4005.44
4038.85
4071.08
4101.76
4130.44
4156.69
4180.16
4200.51
4217.42
4230.66
4240.01
4245.34
4246.65
4244.46
4238.21
4227.98
4213.99
4196.4
4175.43
4151.39
4124.59
4095.38
4064.18
4031.39
3997.43
3962.75
3927.77
3892.97
3858.91
3827.96
3796.24
3765.45
3736.16
3708.65
3683.09
3659.59
3638.2
3618.93
3601.76
3586.62
3573.46
3562.16
3552.62
3544.73
3538.37
3533.42
3529.79
3527.38
3526.1
3525.89
3526.74
3528.74
3531.86
3536.13
3541.58
3548.32
3556.46
3939.21
3971.34
4002.84
4033.21
4062.05
4088.83
4113.13
4134.53
4152.72
4167.42
4178.38
4185.43
4188.38
4187.06
4181.61
4172.19
4158.82
4141.71
4121.12
4097.36
4070.77
4041.73
4010.6
3977.85
3943.87
3909.11
3873.91
3838.6
3803.61
3776.01
3743.08
3711.38
3681.14
3652.53
3625.62
3600.51
3577.23
3555.79
3536.2
3518.43
3502.45
3488.22
3475.7
3464.82
3455.54
3447.83
3441.62
3436.9
3433.62
3431.82
3431.47
3432.55
3435.08
3439.09
3444.62
3451.68
3460.32
3470.62
3482.59
3496.29
3511.77
3529.06
3548.19
3569.17
3591.97
3616.57
3642.9
3670.84
3700.28
3731.03
3762.95
3796.13
3829.59
3863.22
3896.74
3929.84
3962.15
3993.33
4023.02
4050.86
4076.49
4099.58
4119.8
4136.87
4150.52
4160.53
4166.73
4168.98
4167.27
4161.58
4152.02
4138.64
4121.65
4101.28
4077.79
4051.49
4022.72
3991.83
3959.21
3925.26
3890.39
3855
3819.52
3784.32
3749.79
3716.26
3684.04
3653.36
3624.44
3597.41
3572.37
3549.38
3528.44
3509.54
3492.64
3477.7
3464.65
3453.41
3443.94
3436.17
3430.04
3425.48
3422.44
3420.92
3420.83
3422.11
3424.75
3428.72
3433.99
3440.54
3448.36
3457.44
3467.79
3479.42
3492.35
3506.62
3522.26
3539.32
3557.84
3577.86
3599.39
3622.46
3647.05
3673.11
3700.59
3729.38
3759.48
3790.36
3821.93
3853.92
3886
3917.81
3948.96
3979.04
4007.62
4034.28
4058.61
4080.19
4098.67
4113.71
4125.02
4132.36
4135.58
4134.48
4129.17
4119.69
4106.09
4088.61
4067.53
4043.19
4015.96
3986.28
3954.6
3921.42
3887.19
3852.41
3817.51
3782.9
3748.95
3716
3684.3
3654.06
3625.46
3598.63
3573.63
3550.51
3529.27
3509.89
3492.31
3476.49
3462.34
3449.8
3438.78
3429.23
3421.07
3414.27
3408.78
3404.58
3401.62
3399.94
3399.52
3400.35
3402.46
3405.87
3410.61
3416.72
3424.23
3433.18
3443.62
3455.59
3469.13
3484.29
3501.11
3519.6
3539.8
3561.68
3585.23
3610.38
3637.08
3665.2
3694.63
3725.14
3756.51
3788.51
3820.85
3853.19
3885.18
3916.46
3946.62
3975.27
4002.04
4026.53
4048.39
4067.3
4082.95
4095.09
4103.54
4108.15
4108.73
4105.4
4098.15
4087.01
4072.17
4053.83
4032.26
4007.77
3980.72
3951.52
3920.57
3888.32
3855.21
3821.67
3788.12
3754.95
3722.49
3691.14
3661.01
3632.38
3605.42
3580.22
3556.88
3535.44
3515.91
3498.28
3482.53
3468.6
3456.45
3446.02
3437.23
3430.04
3424.36
3420.14
3417.34
3415.86
3415.68
3416.8
3419.13
3422.69
3427.48
3433.54
3440.88
3449.54
3459.58
3471.05
3484.01
3498.53
3514.67
3532.49
3552.04
3573.34
3596.38
3621.15
3647.58
3675.54
3704.84
3737.86
3770.82
3804.56
3838.85
3873.22
3907.34
3940.76
3973.01
4003.71
4032.41
4058.68
4082.17
4102.53
4119.46
4132.71
4142.07
4147.4
4148.71
4146.51
4140.26
4130.03
4116.03
4098.42
4077.43
4053.38
4026.57
3997.33
3966.12
3933.31
3899.33
3864.63
3829.63
3794.82
3760.73
3729.81
3698.06
3667.27
3637.97
3610.46
3584.89
3561.39
3540
3520.74
3503.57
3488.44
3475.28
3463.99
3454.46
3446.57
3440.21
3435.27
3431.64
3429.24
3427.95
3427.75
3428.6
3430.6
3433.72
3437.98
3443.43
3450.17
3458.31
3841.09
3873.26
3904.79
3935.2
3964.08
3990.89
4015.22
4036.67
4054.88
4069.6
4080.58
4087.64
4090.61
4089.29
4083.83
4074.39
4061
4043.87
4023.25
3999.44
3972.83
3943.74
3912.58
3879.79
3845.78
3810.99
3775.76
3740.44
3705.43
3677.76
3644.82
3613.11
3582.88
3554.26
3527.35
3502.24
3478.96
3457.52
3437.94
3420.18
3404.21
3389.98
3377.46
3366.59
3357.32
3349.61
3343.41
3338.68
3335.41
3333.61
3333.25
3334.34
3336.86
3340.88
3346.4
3353.45
3362.09
3372.38
3384.35
3398.05
3413.52
3430.8
3449.93
3470.9
3493.7
3518.31
3544.64
3572.59
3602.03
3632.79
3664.73
3697.94
3731.42
3765.07
3798.62
3831.74
3864.09
3895.3
3925.03
3952.89
3978.56
4001.68
4021.93
4039.03
4052.7
4062.72
4068.94
4071.2
4069.47
4063.78
4054.2
4040.81
4023.8
4003.4
3979.88
3953.55
3924.73
3893.81
3861.16
3827.17
3792.27
3756.85
3721.34
3686.11
3651.56
3618.02
3585.77
3555.09
3526.16
3499.13
3474.09
3451.1
3430.17
3411.27
3394.38
3379.44
3366.4
3355.17
3345.71
3337.94
3331.81
3327.25
3324.23
3322.71
3322.62
3323.9
3326.55
3330.52
3335.78
3342.34
3350.16
3359.23
3369.58
3381.21
3394.14
3408.4
3424.04
3441.09
3459.61
3479.62
3501.15
3524.21
3548.8
3574.87
3602.35
3631.15
3661.26
3692.16
3723.75
3755.76
3787.86
3819.71
3850.89
3881.01
3909.63
3936.33
3960.69
3982.31
4000.83
4015.89
4027.22
4034.59
4037.81
4036.71
4031.4
4021.91
4008.28
3990.78
3969.67
3945.28
3918.01
3888.29
3856.57
3823.35
3789.08
3754.26
3719.33
3684.7
3650.73
3617.76
3586.04
3555.79
3527.19
3500.36
3475.36
3452.24
3431.01
3411.63
3394.06
3378.25
3364.11
3351.57
3340.56
3331.01
3322.86
3316.07
3310.58
3306.38
3303.42
3301.74
3301.32
3302.15
3304.25
3307.66
3312.4
3318.51
3326.01
3334.96
3345.39
3357.36
3370.9
3386.05
3402.86
3421.35
3441.54
3463.42
3486.97
3512.13
3538.83
3566.96
3596.4
3626.92
3658.32
3690.34
3722.7
3755.07
3787.09
3818.4
3848.59
3877.28
3904.08
3928.61
3950.5
3969.44
3985.11
3997.28
4005.74
4010.35
4010.95
4007.6
4000.34
3989.19
3974.32
3955.96
3934.36
3909.83
3882.75
3853.51
3822.52
3790.23
3757.08
3723.52
3689.94
3656.74
3624.27
3592.89
3562.76
3534.12
3507.14
3481.95
3458.61
3437.17
3417.65
3400.02
3384.28
3370.35
3358.21
3347.78
3339
3331.81
3326.15
3321.93
3319.13
3317.66
3317.49
3318.6
3320.93
3324.49
3329.28
3335.33
3342.67
3351.33
3361.36
3372.82
3385.78
3400.29
3416.43
3434.24
3453.78
3475.08
3498.12
3522.89
3549.33
3577.3
3606.63
3639.6
3672.59
3706.36
3740.68
3775.08
3809.24
3842.7
3874.98
3905.72
3934.46
3960.76
3984.29
4004.68
4021.63
4034.9
4044.28
4049.63
4050.95
4048.7
4042.46
4032.22
4018.2
4000.57
3979.55
3955.47
3928.61
3899.35
3868.09
3835.24
3801.23
3766.5
3731.46
3696.61
3662.48
3631.61
3599.82
3569
3539.69
3512.17
3486.6
3463.11
3441.72
3422.46
3405.3
3390.18
3377.03
3365.75
3356.23
3348.35
3342
3337.07
3333.45
3331.05
3329.77
3329.57
3330.42
3332.42
3335.54
3339.8
3345.24
3351.97
3360.1
3742.97
3775.19
3806.77
3837.23
3866.17
3893.03
3917.42
3938.91
3957.17
3971.93
3982.93
3990.01
3992.99
3991.68
3986.21
3976.74
3963.32
3946.15
3925.48
3901.63
3874.95
3845.82
3814.6
3781.75
3747.7
3712.85
3677.59
3642.24
3607.2
3579.44
3546.48
3514.77
3484.52
3455.9
3429
3403.89
3380.61
3359.18
3339.6
3321.85
3305.89
3291.67
3279.16
3268.29
3259.03
3251.32
3245.13
3240.41
3237.14
3235.35
3234.98
3236.06
3238.59
3242.6
3248.12
3255.17
3263.8
3274.08
3286.03
3299.73
3315.19
3332.46
3351.58
3372.55
3395.36
3419.96
3446.3
3474.26
3503.72
3534.49
3566.45
3599.7
3633.21
3666.9
3700.49
3733.65
3766.05
3797.31
3827.08
3854.99
3880.71
3903.88
3924.18
3941.31
3955.02
3965.07
3971.3
3973.58
3971.83
3966.14
3956.53
3943.11
3926.06
3905.62
3882.06
3855.68
3826.81
3795.84
3763.14
3729.1
3694.14
3658.68
3623.12
3587.85
3553.27
3519.69
3487.43
3456.73
3427.79
3400.75
3375.71
3352.73
3331.8
3312.92
3296.04
3281.11
3268.07
3256.86
3247.4
3239.64
3233.52
3228.97
3225.95
3224.44
3224.35
3225.64
3228.29
3232.26
3237.53
3244.08
3251.9
3260.98
3271.32
3282.94
3295.86
3310.12
3325.75
3342.8
3361.3
3381.31
3402.83
3425.9
3450.48
3476.56
3504.04
3532.85
3562.99
3593.9
3625.52
3657.57
3689.72
3721.61
3752.84
3783.01
3811.69
3838.45
3862.87
3884.54
3903.1
3918.22
3929.58
3936.97
3940.21
3939.12
3933.79
3924.27
3910.62
3893.07
3871.91
3847.47
3820.14
3790.35
3758.58
3725.29
3690.97
3656.1
3621.12
3586.44
3552.44
3519.44
3487.71
3457.45
3428.84
3402
3377
3353.89
3332.67
3313.3
3295.74
3279.94
3265.81
3253.28
3242.28
3232.74
3224.6
3217.81
3212.33
3208.12
3205.17
3203.49
3203.07
3203.89
3206
3209.41
3214.14
3220.24
3227.74
3236.68
3247.1
3259.06
3272.59
3287.74
3304.54
3323.03
3343.21
3365.09
3388.64
3413.81
3440.52
3468.66
3498.11
3528.65
3560.07
3592.13
3624.52
3656.94
3689.01
3720.36
3750.6
3779.35
3806.2
3830.78
3852.72
3871.69
3887.41
3899.61
3908.09
3912.71
3913.33
3909.96
3902.68
3891.51
3876.61
3858.21
3836.56
3811.98
3784.84
3755.54
3724.49
3692.15
3658.95
3625.33
3591.71
3558.48
3525.98
3494.57
3464.42
3435.77
3408.79
3383.59
3360.25
3338.82
3319.3
3301.68
3285.95
3272.03
3259.9
3249.48
3240.71
3233.53
3227.87
3223.66
3220.87
3219.4
3219.24
3220.35
3222.69
3226.24
3231.03
3237.08
3244.41
3253.06
3263.08
3274.54
3287.48
3301.99
3318.11
3335.92
3355.45
3376.74
3399.78
3424.55
3451
3478.99
3508.36
3541.25
3574.3
3608.12
3642.48
3676.93
3711.13
3744.64
3776.99
3807.78
3836.58
3862.94
3886.51
3906.95
3923.94
3937.24
3946.64
3952.01
3953.34
3951.06
3944.8
3934.55
3920.5
3902.84
3881.77
3857.64
3830.74
3801.41
3770.1
3737.2
3703.14
3668.35
3633.25
3598.34
3564.14
3533.35
3501.51
3470.65
3441.32
3413.79
3388.22
3364.72
3343.34
3324.09
3306.94
3291.84
3278.7
3267.43
3257.93
3250.07
3243.73
3238.81
3235.2
3232.81
3231.54
3231.35
3232.2
3234.19
3237.31
3241.56
3246.99
3253.71
3261.83
3644.84
3677.13
3708.78
3739.31
3768.33
3795.26
3819.72
3841.27
3859.59
3874.39
3885.44
3892.53
3895.52
3894.24
3888.75
3879.24
3865.77
3848.55
3827.83
3803.91
3777.16
3747.95
3716.65
3683.74
3649.61
3614.71
3579.4
3544.02
3508.93
3481.03
3448.05
3416.34
3386.09
3357.46
3330.56
3305.45
3282.17
3260.75
3241.18
3223.44
3207.49
3193.29
3180.78
3169.93
3160.68
3152.98
3146.79
3142.08
3138.82
3137.02
3136.65
3137.74
3140.26
3144.26
3149.78
3156.82
3165.44
3175.71
3187.65
3201.33
3216.78
3234.04
3253.16
3274.12
3296.92
3321.53
3347.88
3375.85
3405.33
3436.13
3468.12
3501.41
3534.97
3568.71
3602.35
3635.57
3668.02
3699.35
3729.18
3757.16
3782.94
3806.18
3826.53
3843.72
3857.47
3867.56
3873.81
3876.11
3874.35
3868.65
3859.01
3845.55
3828.46
3807.96
3784.33
3757.89
3728.95
3697.91
3665.13
3631.03
3596
3560.47
3524.85
3489.54
3454.91
3421.29
3389
3358.28
3329.32
3302.28
3277.24
3254.26
3233.35
3214.48
3197.61
3182.7
3169.67
3158.47
3149.03
3141.28
3135.17
3130.63
3127.62
3126.12
3126.03
3127.32
3129.97
3133.95
3139.22
3145.78
3153.6
3162.67
3173.01
3184.62
3197.54
3211.78
3227.4
3244.44
3262.94
3282.93
3304.45
3327.51
3352.09
3378.17
3405.67
3434.48
3464.66
3495.6
3527.26
3559.35
3591.56
3623.51
3654.81
3685.05
3713.81
3740.64
3765.14
3786.89
3805.51
3820.68
3832.09
3839.51
3842.77
3841.7
3836.34
3826.8
3813.11
3795.5
3774.27
3749.75
3722.34
3692.47
3660.62
3627.25
3592.85
3557.91
3522.87
3488.14
3454.09
3421.06
3389.3
3359.02
3330.4
3303.56
3278.56
3255.46
3234.24
3214.89
3197.35
3181.56
3167.44
3154.93
3143.94
3134.42
3126.28
3119.5
3114.02
3109.82
3106.88
3105.2
3104.77
3105.59
3107.69
3111.09
3115.82
3121.91
3129.4
3138.33
3148.75
3160.7
3174.22
3189.36
3206.15
3224.63
3244.81
3266.69
3290.24
3315.41
3342.13
3370.28
3399.76
3430.33
3461.78
3493.88
3526.33
3558.79
3590.92
3622.34
3652.65
3681.47
3708.39
3733.03
3755.04
3774.07
3789.84
3802.08
3810.59
3815.23
3815.86
3812.48
3805.18
3793.97
3779.03
3760.57
3738.86
3714.21
3687
3657.62
3626.5
3594.08
3560.81
3527.12
3493.45
3460.16
3427.62
3396.18
3366.01
3337.34
3310.35
3285.15
3261.81
3240.38
3220.87
3203.26
3187.54
3173.64
3161.52
3151.11
3142.35
3135.18
3129.54
3125.34
3122.55
3121.1
3120.94
3122.05
3124.39
3127.95
3132.73
3138.77
3146.1
3154.74
3164.75
3176.19
3189.12
3203.61
3219.73
3237.52
3257.04
3278.32
3301.36
3326.13
3352.59
3380.61
3410.03
3442.83
3475.95
3509.82
3544.24
3578.75
3613.02
3646.61
3679.02
3709.9
3738.77
3765.2
3788.85
3809.34
3826.39
3839.73
3849.16
3854.56
3855.89
3853.58
3847.3
3837.03
3822.94
3805.23
3784.11
3759.91
3732.93
3703.53
3672.15
3639.17
3605.04
3570.18
3535.01
3500.02
3465.72
3435.05
3403.12
3372.22
3342.86
3315.31
3289.74
3266.24
3244.87
3225.63
3208.5
3193.41
3180.3
3169.05
3159.56
3151.72
3145.41
3140.51
3136.91
3134.53
3133.27
3133.09
3133.94
3135.93
3139.04
3143.29
3148.71
3155.41
3163.51
3546.7
3579.07
3610.81
3641.44
3670.54
3697.57
3722.11
3743.75
3762.14
3777
3788.1
3795.22
3798.23
3796.96
3791.45
3781.9
3768.37
3751.09
3730.28
3706.28
3679.44
3650.13
3618.75
3585.74
3551.54
3516.56
3481.18
3445.76
3410.63
3382.55
3349.55
3317.82
3287.57
3258.94
3232.03
3206.92
3183.66
3162.25
3142.69
3124.96
3109.02
3094.83
3082.34
3071.5
3062.26
3054.57
3048.4
3043.69
3040.44
3038.64
3038.27
3039.35
3041.87
3045.87
3051.37
3058.4
3067.01
3077.26
3089.2
3102.86
3118.3
3135.55
3154.65
3175.61
3198.41
3223.02
3249.38
3277.37
3306.86
3337.7
3369.72
3403.07
3436.69
3470.49
3504.19
3537.49
3570.01
3601.42
3631.34
3659.4
3685.26
3708.58
3729.01
3746.26
3760.06
3770.19
3776.48
3778.79
3777.04
3771.31
3761.63
3748.13
3730.97
3710.4
3686.7
3660.17
3631.15
3600.02
3567.16
3532.96
3497.85
3462.25
3426.55
3391.17
3356.48
3322.82
3290.48
3259.74
3230.77
3203.72
3178.68
3155.71
3134.81
3115.95
3099.1
3084.21
3071.2
3060.01
3050.59
3042.85
3036.76
3032.23
3029.24
3027.73
3027.65
3028.95
3031.61
3035.59
3040.87
3047.42
3055.24
3064.31
3074.64
3086.25
3099.15
3113.39
3129
3146.02
3164.5
3184.48
3205.99
3229.04
3253.63
3279.71
3307.22
3336.04
3366.28
3397.25
3428.95
3461.1
3493.38
3525.41
3556.8
3587.13
3615.98
3642.91
3667.5
3689.34
3708.05
3723.29
3734.76
3742.22
3745.49
3744.44
3739.07
3729.49
3715.74
3698.07
3676.75
3652.14
3624.62
3594.65
3562.69
3529.22
3494.73
3459.7
3424.58
3389.78
3355.68
3322.61
3290.81
3260.51
3231.88
3205.03
3180.04
3156.94
3135.74
3116.4
3098.88
3083.11
3069.01
3056.52
3045.55
3036.03
3027.91
3021.14
3015.67
3011.47
3008.53
3006.85
3006.42
3007.24
3009.34
3012.73
3017.45
3023.53
3031.01
3039.93
3050.34
3062.27
3075.78
3090.9
3107.69
3126.16
3146.33
3168.2
3191.76
3216.93
3243.66
3271.84
3301.34
3331.95
3363.45
3395.59
3428.1
3460.64
3492.84
3524.34
3554.74
3583.64
3610.65
3635.38
3657.47
3676.57
3692.4
3704.69
3713.24
3717.9
3718.54
3715.15
3707.82
3696.57
3681.58
3663.05
3641.25
3616.52
3589.22
3559.74
3528.52
3496.01
3462.65
3428.89
3395.14
3361.79
3329.2
3297.72
3267.51
3238.83
3211.82
3186.62
3163.28
3141.86
3122.36
3104.76
3089.05
3075.17
3063.06
3052.67
3043.93
3036.78
3031.15
3026.97
3024.18
3022.74
3022.6
3023.71
3026.04
3029.6
3034.38
3040.42
3047.73
3056.36
3066.35
3077.78
3090.7
3105.17
3121.27
3139.04
3158.56
3179.83
3202.86
3227.64
3254.11
3282.15
3311.64
3344.33
3377.53
3411.48
3445.97
3480.56
3514.91
3548.59
3581.1
3612.06
3641.04
3667.56
3691.29
3711.86
3728.97
3742.37
3751.84
3757.26
3758.59
3756.27
3749.96
3739.65
3725.52
3707.74
3686.55
3662.27
3635.2
3605.71
3574.23
3541.16
3506.94
3471.99
3436.73
3401.64
3367.22
3336.7
3304.66
3273.7
3244.3
3216.74
3191.16
3167.67
3146.3
3127.08
3109.97
3094.91
3081.81
3070.59
3061.13
3053.32
3047.03
3042.15
3038.57
3036.21
3034.96
3034.79
3035.64
3037.63
3040.74
3044.97
3050.37
3057.05
3065.13
3448.56
3481.02
3512.87
3543.61
3572.83
3599.96
3624.61
3646.35
3664.82
3679.76
3690.91
3698.07
3701.09
3699.84
3694.31
3684.7
3671.12
3653.75
3632.85
3608.74
3581.8
3552.38
3520.88
3487.77
3453.46
3418.39
3382.94
3347.47
3312.31
3283.97
3250.96
3219.23
3188.96
3160.33
3133.42
3108.31
3085.05
3063.66
3044.11
3026.4
3010.48
2996.31
2983.84
2973.01
2963.79
2956.11
2949.94
2945.25
2942
2940.2
2939.83
2940.91
2943.43
2947.42
2952.91
2959.93
2968.52
2978.76
2990.67
3004.32
3019.74
3036.97
3056.07
3077.02
3099.81
3124.43
3150.79
3178.8
3208.33
3239.2
3271.27
3304.69
3338.37
3372.24
3406.03
3439.41
3472.03
3503.53
3533.54
3561.7
3587.67
3611.07
3631.59
3648.93
3662.8
3672.98
3679.3
3681.62
3679.88
3674.12
3664.4
3650.84
3633.61
3612.96
3589.16
3562.53
3533.41
3502.17
3469.2
3434.9
3399.69
3363.99
3328.21
3292.75
3257.99
3224.27
3191.89
3161.11
3132.12
3105.06
3080.03
3057.07
3036.18
3017.34
3000.51
2985.64
2972.65
2961.49
2952.08
2944.36
2938.28
2933.77
2930.79
2929.29
2929.22
2930.53
2933.19
2937.18
2942.46
2949.01
2956.83
2965.89
2976.22
2987.82
3000.71
3014.93
3030.53
3047.53
3066
3085.96
3107.46
3130.51
3155.09
3181.18
3208.7
3237.54
3267.83
3298.84
3330.6
3362.82
3395.18
3427.31
3458.8
3489.24
3518.21
3545.25
3569.95
3591.9
3610.71
3626.03
3637.57
3645.09
3648.39
3647.35
3641.97
3632.33
3618.52
3600.76
3579.35
3554.62
3526.98
3496.88
3464.79
3431.2
3396.59
3361.46
3326.25
3291.37
3257.21
3224.08
3192.25
3161.92
3133.27
3106.42
3081.43
3058.34
3037.15
3017.83
3000.33
2984.59
2970.51
2958.04
2947.09
2937.59
2929.49
2922.72
2917.26
2913.07
2910.14
2908.45
2908.02
2908.84
2910.93
2914.31
2919.02
2925.09
2932.56
2941.47
2951.86
2963.78
2977.27
2992.38
3009.15
3027.61
3047.77
3069.64
3093.2
3118.38
3145.13
3173.33
3202.86
3233.51
3265.06
3297.27
3329.85
3362.47
3394.77
3426.37
3456.87
3485.87
3512.99
3537.82
3560
3579.19
3595.09
3607.45
3616.04
3620.72
3621.38
3617.99
3610.62
3599.32
3584.26
3565.64
3543.75
3518.91
3491.5
3461.91
3430.57
3397.95
3364.49
3330.62
3296.79
3263.37
3230.72
3199.18
3168.94
3140.23
3113.21
3088
3064.67
3043.25
3023.76
3006.18
2990.49
2976.63
2964.54
2954.17
2945.45
2938.31
2932.7
2928.53
2925.77
2924.33
2924.2
2925.31
2927.65
2931.2
2935.98
2942.01
2949.31
2957.93
2967.9
2979.31
2992.21
3006.66
3022.73
3040.5
3059.99
3081.25
3104.28
3129.06
3155.54
3183.62
3213.18
3245.75
3279.05
3313.09
3347.67
3382.35
3416.8
3450.58
3483.21
3514.29
3543.37
3570.01
3593.84
3614.51
3631.7
3645.16
3654.67
3660.12
3661.45
3659.12
3652.78
3642.43
3628.24
3610.38
3589.09
3564.72
3537.55
3507.94
3476.35
3443.17
3408.84
3373.79
3338.42
3303.21
3268.64
3238.3
3206.13
3175.09
3145.66
3118.07
3092.49
3069
3047.65
3028.44
3011.35
2996.32
2983.26
2972.07
2962.64
2954.85
2948.59
2943.74
2940.19
2937.84
2936.61
2936.44
2937.3
2939.29
2942.39
2946.61
2951.99
2958.65
2966.69
3350.4
3382.98
3414.96
3445.82
3475.17
3502.43
3527.2
3549.06
3567.63
3582.65
3593.87
3601.08
3604.12
3602.88
3597.32
3587.66
3574
3556.54
3535.53
3511.31
3484.23
3454.68
3423.06
3389.82
3355.39
3320.21
3284.68
3249.15
3213.97
3185.28
3152.3
3120.55
3090.27
3061.63
3034.72
3009.62
2986.37
2964.98
2945.46
2927.76
2911.86
2897.71
2885.26
2874.45
2865.24
2857.58
2851.43
2846.75
2843.51
2841.71
2841.34
2842.41
2844.92
2848.91
2854.39
2861.39
2869.96
2880.18
2892.07
2905.7
2921.1
2938.32
2957.4
2978.34
3001.13
3025.75
3052.13
3080.16
3109.72
3140.63
3172.76
3206.26
3240.02
3273.97
3307.85
3341.33
3374.05
3405.67
3435.8
3464.08
3490.15
3513.67
3534.3
3551.72
3565.67
3575.92
3582.27
3584.61
3582.87
3577.09
3567.32
3553.69
3536.38
3515.63
3491.72
3464.97
3435.73
3404.37
3371.28
3336.85
3301.53
3265.71
3229.83
3194.27
3159.43
3125.64
3093.21
3062.39
3033.38
3006.32
2981.29
2958.33
2937.46
2918.65
2901.84
2886.99
2874.03
2862.89
2853.5
2845.8
2839.74
2835.24
2832.28
2830.8
2830.73
2832.05
2834.73
2838.72
2844
2850.56
2858.37
2867.43
2877.75
2889.34
2902.21
2916.42
2931.99
2948.98
2967.43
2987.38
3008.86
3031.9
3056.49
3082.58
3110.11
3138.96
3169.33
3200.38
3232.21
3264.52
3296.97
3329.21
3360.82
3391.39
3420.49
3447.67
3472.5
3494.57
3513.5
3528.92
3540.55
3548.12
3551.45
3550.42
3545.03
3535.34
3521.45
3503.59
3482.06
3457.19
3429.41
3399.17
3366.93
3333.2
3298.46
3263.2
3227.88
3192.91
3158.67
3125.48
3093.6
3063.24
3034.58
3007.71
2982.73
2959.65
2938.48
2919.19
2901.71
2886
2871.95
2859.5
2848.58
2839.1
2831.01
2824.26
2818.81
2814.62
2811.69
2810.01
2809.57
2810.38
2812.47
2815.84
2820.54
2826.6
2834.05
2842.94
2853.32
2865.22
2878.69
2893.78
2910.54
2928.98
2949.14
2971.01
2994.56
3019.76
3046.52
3074.75
3104.31
3135.01
3166.62
3198.91
3231.58
3264.29
3296.7
3328.41
3359.03
3388.16
3415.39
3440.34
3462.64
3481.93
3497.92
3510.35
3519
3523.71
3524.38
3520.97
3513.56
3502.21
3487.07
3468.36
3446.35
3421.39
3393.84
3364.12
3332.65
3299.9
3266.31
3232.33
3198.39
3164.89
3132.17
3100.57
3070.29
3041.55
3014.51
2989.29
2965.96
2944.56
2925.08
2907.52
2891.85
2878.01
2865.95
2855.6
2846.9
2839.78
2834.19
2830.05
2827.29
2825.88
2825.75
2826.87
2829.21
2832.76
2837.53
2843.55
2850.84
2859.44
2869.39
2880.78
2893.65
2908.08
2924.13
2941.87
2961.35
2982.6
3005.62
3030.4
3056.9
3085.02
3114.66
3147.1
3180.51
3214.66
3249.33
3284.12
3318.69
3352.6
3385.35
3416.56
3445.78
3472.55
3496.5
3517.27
3534.56
3548.09
3557.66
3563.14
3564.47
3562.13
3555.75
3545.35
3531.09
3513.14
3491.75
3467.26
3439.96
3410.23
3378.51
3345.2
3310.74
3275.56
3240.08
3204.73
3169.97
3139.84
3107.51
3076.39
3046.92
3019.31
2993.72
2970.24
2948.9
2929.71
2912.65
2897.65
2884.62
2873.47
2864.08
2856.33
2850.1
2845.28
2841.75
2839.43
2838.21
2838.06
2838.92
2840.91
2844
2848.2
2853.56
2860.19
2868.2
3252.24
3284.95
3317.07
3348.08
3377.58
3404.99
3429.9
3451.88
3470.57
3485.7
3496.99
3504.25
3507.32
3506.08
3500.49
3490.77
3477.02
3459.45
3438.33
3413.96
3386.74
3357.04
3325.27
3291.88
3257.32
3222.02
3186.38
3150.78
3115.6
3086.51
3053.55
3021.79
2991.5
2962.84
2935.93
2910.84
2887.6
2866.23
2846.72
2829.05
2813.18
2799.05
2786.62
2775.83
2766.64
2759
2752.86
2748.18
2744.96
2743.16
2742.79
2743.86
2746.36
2750.34
2755.8
2762.78
2771.34
2781.53
2793.4
2807.01
2822.39
2839.58
2858.65
2879.58
2902.37
2926.99
2953.39
2981.44
3011.03
3041.99
3074.18
3107.78
3141.62
3175.67
3209.66
3243.26
3276.1
3307.84
3338.1
3366.51
3392.72
3416.36
3437.11
3454.65
3468.69
3479.01
3485.41
3487.77
3486.02
3480.21
3470.38
3456.67
3439.27
3418.4
3394.37
3367.49
3338.11
3306.6
3273.37
3238.81
3203.35
3167.41
3131.4
3095.74
3060.8
3026.93
2994.45
2963.59
2934.55
2907.48
2882.45
2859.51
2838.66
2819.87
2803.09
2788.27
2775.33
2764.22
2754.86
2747.18
2741.14
2736.66
2733.72
2732.24
2732.19
2733.53
2736.2
2740.2
2745.49
2752.05
2759.86
2768.91
2779.22
2790.8
2803.66
2817.85
2833.4
2850.36
2868.79
2888.72
2910.19
2933.22
2957.8
2983.9
3011.46
3040.32
3070.76
3101.86
3133.77
3166.17
3198.74
3231.1
3262.85
3293.57
3322.82
3350.15
3375.14
3397.36
3416.41
3431.96
3443.68
3451.32
3454.69
3453.67
3448.25
3438.5
3424.53
3406.56
3384.89
3359.87
3331.92
3301.51
3269.11
3235.21
3200.31
3164.92
3129.47
3094.4
3060.06
3026.81
2994.88
2964.48
2935.8
2908.93
2883.95
2860.88
2839.73
2820.47
2803.02
2787.33
2773.32
2760.9
2750
2740.55
2732.48
2725.74
2720.3
2716.12
2713.2
2711.51
2711.07
2711.88
2713.95
2717.32
2722.01
2728.05
2735.49
2744.36
2754.71
2766.59
2780.05
2795.12
2811.85
2830.28
2850.43
2872.29
2895.85
2921.05
2947.84
2976.1
3005.7
3036.46
3068.14
3100.51
3133.27
3166.1
3198.63
3230.47
3261.23
3290.5
3317.87
3342.96
3365.38
3384.8
3400.89
3413.4
3422.1
3426.85
3427.53
3424.12
3416.66
3405.24
3390.01
3371.18
3349.06
3323.95
3296.25
3266.37
3234.75
3201.85
3168.11
3134.01
3099.95
3066.35
3033.55
3001.88
2971.55
2942.78
2915.73
2890.5
2867.17
2845.78
2826.32
2808.78
2793.13
2779.32
2767.28
2756.96
2748.29
2741.2
2735.62
2731.5
2728.77
2727.37
2727.25
2728.38
2730.72
2734.27
2739.03
2745.04
2752.31
2760.89
2770.83
2782.19
2795.03
2809.43
2825.45
2843.17
2862.63
2883.86
2906.87
2931.66
2958.18
2986.34
3016.06
3048.38
3081.91
3116.17
3150.96
3185.86
3220.57
3254.62
3287.52
3318.89
3348.27
3375.18
3399.27
3420.17
3437.56
3451.18
3460.8
3466.32
3467.65
3465.3
3458.88
3448.42
3434.08
3416.03
3394.52
3369.89
3342.45
3312.58
3280.7
3247.25
3212.64
3177.32
3141.7
3106.19
3071.22
3041.34
3008.82
2977.61
2948.08
2920.45
2894.85
2871.37
2850.05
2830.89
2813.86
2798.9
2785.91
2774.8
2765.45
2757.74
2751.56
2746.77
2743.27
2740.97
2739.78
2739.64
2740.5
2742.49
2745.56
2749.75
2755.09
2761.68
2769.66
3154.06
3186.93
3219.21
3250.38
3280.05
3307.62
3332.69
3354.82
3373.65
3388.88
3400.26
3407.58
3410.68
3409.44
3403.82
3394.03
3380.18
3362.5
3341.23
3316.71
3289.33
3259.46
3227.51
3193.96
3159.25
3123.81
3088.06
3052.38
3017.19
2987.65
2954.72
2922.95
2892.64
2863.97
2837.06
2811.97
2788.75
2767.39
2747.91
2730.26
2714.41
2700.31
2687.91
2677.15
2667.98
2660.35
2654.23
2649.57
2646.35
2644.56
2644.18
2645.25
2647.75
2651.71
2657.16
2664.12
2672.65
2682.82
2694.66
2708.24
2723.59
2740.77
2759.81
2780.73
2803.52
2828.15
2854.56
2882.64
2912.27
2943.28
2975.54
3009.25
3043.2
3077.35
3111.46
3145.18
3178.16
3210.05
3240.46
3269.02
3295.37
3319.16
3340.05
3357.7
3371.84
3382.24
3388.7
3391.08
3389.34
3383.48
3373.59
3359.79
3342.28
3321.29
3297.12
3270.09
3240.55
3208.88
3175.49
3140.77
3105.16
3069.07
3032.93
2997.15
2962.1
2928.15
2895.6
2864.69
2835.62
2808.54
2783.52
2760.59
2739.76
2721
2704.26
2689.47
2676.56
2665.48
2656.14
2648.49
2642.47
2638.02
2635.09
2633.63
2633.6
2634.94
2637.63
2641.63
2646.93
2653.49
2661.29
2670.35
2680.65
2692.2
2705.05
2719.22
2734.74
2751.68
2770.09
2789.99
2811.45
2834.46
2859.04
2885.15
2912.73
2941.65
2972.11
3003.29
3035.29
3067.8
3100.49
3133
3164.9
3195.79
3225.21
3252.72
3277.87
3300.25
3319.46
3335.13
3346.96
3354.68
3358.1
3357.09
3351.65
3341.83
3327.75
3309.65
3287.83
3262.64
3234.51
3203.91
3171.31
3137.23
3102.16
3066.61
3031.02
2995.83
2961.4
2928.06
2896.07
2865.64
2836.93
2810.05
2785.08
2762.03
2740.9
2721.66
2704.26
2688.6
2674.62
2662.24
2651.37
2641.94
2633.89
2627.17
2621.74
2617.58
2614.65
2612.97
2612.53
2613.33
2615.39
2618.74
2623.42
2629.44
2636.86
2645.71
2656.05
2667.9
2681.33
2696.38
2713.1
2731.51
2751.64
2773.5
2797.06
2822.27
2849.08
2877.37
2907.02
2937.84
2969.61
3002.07
3034.95
3067.9
3100.56
3132.55
3163.46
3192.89
3220.42
3245.67
3268.23
3287.78
3303.99
3316.59
3325.36
3330.15
3330.84
3327.42
3319.91
3308.41
3293.08
3274.13
3251.86
3226.59
3198.73
3168.67
3136.87
3103.8
3069.91
3035.65
3001.47
2967.75
2934.86
2903.12
2872.74
2843.93
2816.86
2791.62
2768.3
2746.91
2727.48
2709.96
2694.34
2680.55
2668.55
2658.25
2649.61
2642.55
2637
2632.91
2630.19
2628.81
2628.71
2629.84
2632.18
2635.72
2640.49
2646.48
2653.73
2662.29
2672.2
2683.53
2696.35
2710.71
2726.71
2744.4
2763.83
2785.05
2808.05
2832.84
2859.38
2887.57
2917.38
2949.59
2983.25
3017.63
3052.55
3087.59
3122.44
3156.66
3189.73
3221.27
3250.83
3277.9
3302.15
3323.19
3340.7
3354.41
3364.11
3369.66
3371
3368.62
3362.17
3351.64
3337.21
3319.04
3297.39
3272.62
3245.02
3214.97
3182.93
3149.31
3114.54
3079.06
3043.29
3007.61
2972.4
2942.77
2910.04
2878.73
2849.15
2821.5
2795.89
2772.42
2751.11
2731.98
2714.99
2700.06
2687.12
2676.06
2666.76
2659.1
2652.95
2648.21
2644.75
2642.47
2641.3
2641.17
2642.04
2644.03
2647.09
2651.26
2656.56
2663.13
2671.06
3055.88
3088.91
3121.37
3152.73
3182.58
3210.34
3235.59
3257.88
3276.85
3292.21
3303.69
3311.07
3314.2
3312.97
3307.31
3297.44
3283.49
3265.67
3244.25
3219.56
3191.99
3161.93
3129.8
3096.07
3061.18
3025.59
2989.71
2953.94
2918.73
2888.73
2855.81
2824.02
2793.7
2765.02
2738.1
2713.02
2689.81
2668.48
2649.02
2631.4
2615.57
2601.5
2589.13
2578.39
2569.25
2561.64
2555.54
2550.89
2547.68
2545.9
2545.52
2546.58
2549.07
2553.03
2558.45
2565.39
2573.9
2584.04
2595.85
2609.4
2624.72
2641.87
2660.9
2681.81
2704.59
2729.22
2755.65
2783.77
2813.44
2844.51
2876.83
2910.68
2944.73
2979
3013.24
3047.11
3080.25
3112.29
3142.86
3171.59
3198.11
3222.06
3243.09
3260.89
3275.14
3285.63
3292.14
3294.56
3292.81
3286.91
3276.95
3263.06
3245.42
3224.28
3199.96
3172.76
3143.04
3111.2
3077.63
3042.74
3006.96
2970.71
2934.42
2898.5
2863.34
2829.29
2796.66
2765.7
2736.61
2709.51
2684.49
2661.58
2640.78
2622.05
2605.34
2590.59
2577.72
2566.67
2557.36
2549.74
2543.75
2539.32
2536.41
2534.97
2534.95
2536.31
2539.01