/*--------------------------------*- C++ -*----------------------------------*\
| =========                 |                                                 |
| \\      /  F ield         | OpenFOAM: The Open Source CFD Toolbox           |
|  \\    /   O peration     | Version:  3.0.1                                 |
|   \\  /    A nd           | Web:      www.OpenFOAM.org                      |
|    \\/     M anipulation  |                                                 |
\*---------------------------------------------------------------------------*/
FoamFile
{
    version     2.0;
    format      ascii;
    class       surfaceScalarField;
    location    "39";
    object      phi;
}
// * * * * * * * * * * * * * * * * * * * * * * * * * * * * * * * * * * * * * //

dimensions      [0 3 -1 0 0 0 0];

internalField   nonuniform List<scalar> 
42423
(
8.67299e-05
-1.84516e-05
0.000105143
-1.84134e-05
0.000123088
-1.79446e-05
0.000140237
-1.71497e-05
0.000156558
-1.6321e-05
0.000171639
-1.50811e-05
0.000185394
-1.37548e-05
0.000197474
-1.2081e-05
0.000207689
-1.02143e-05
0.000215788
-8.09994e-06
0.000221617
-5.82833e-06
0.000225096
-3.47981e-06
0.000226079
-9.82961e-07
0.000224535
1.54375e-06
0.000220462
4.07322e-06
0.000213922
6.53967e-06
0.000204961
8.96123e-06
0.000193986
1.09746e-05
0.00018106
1.29266e-05
0.000166333
1.47269e-05
0.00015024
1.60927e-05
0.000132937
1.73028e-05
0.00011463
1.83072e-05
9.57957e-05
1.88341e-05
7.65871e-05
1.92085e-05
5.72336e-05
1.93535e-05
3.79292e-05
1.93044e-05
1.90432e-05
1.88859e-05
5.10753e-07
1.85324e-05
-1.74062e-05
1.79169e-05
-3.45571e-05
1.71509e-05
-5.08457e-05
1.62885e-05
-6.62067e-05
1.5361e-05
-8.05859e-05
1.43792e-05
-9.39605e-05
1.33746e-05
-0.000106304
1.23438e-05
-0.000117618
1.13134e-05
-0.000127941
1.03231e-05
-0.000137286
9.3451e-06
-0.000145689
8.40278e-06
-0.000153172
7.48353e-06
-0.000159774
6.60153e-06
-0.000165524
5.75015e-06
-0.000170454
4.92979e-06
-0.0001746
4.14652e-06
-0.000177985
3.38467e-06
-0.000180625
2.64026e-06
-0.00018252
1.89464e-06
-0.00018372
1.20015e-06
-0.000184251
5.30577e-07
-0.000183961
-2.89714e-07
-0.000182961
-1.00018e-06
-0.000181146
-1.81498e-06
-0.000178623
-2.52321e-06
-0.000175367
-3.25576e-06
-0.000171188
-4.1785e-06
-0.00016631
-4.87819e-06
-0.000160534
-5.77633e-06
-0.000153863
-6.67093e-06
-0.000146321
-7.54184e-06
-0.000137784
-8.53758e-06
-0.000128284
-9.49944e-06
-0.000117956
-1.03282e-05
-0.000106615
-1.13404e-05
-9.4324e-05
-1.22915e-05
-8.11156e-05
-1.32084e-05
-6.70629e-05
-1.40527e-05
-5.22416e-05
-1.48214e-05
-3.64907e-05
-1.5751e-05
-2.01181e-05
-1.63726e-05
-3.25354e-06
-1.68646e-05
1.42092e-05
-1.74628e-05
3.19823e-05
-1.77732e-05
4.99182e-05
-1.7936e-05
6.78776e-05
-1.79594e-05
8.56737e-05
-1.77962e-05
0.000103195
-1.7521e-05
0.000120147
-1.6952e-05
0.000136477
-1.63309e-05
0.000151801
-1.53234e-05
0.000166087
-1.42858e-05
0.000178934
-1.28475e-05
0.000190164
-1.123e-05
0.000199767
-9.60317e-06
0.000207282
-7.51533e-06
0.0002128
-5.51769e-06
0.000216041
-3.24062e-06
0.000217017
-9.76338e-07
0.000215632
1.38453e-06
0.000211793
3.83888e-06
0.000205708
6.08555e-06
0.000197368
8.33965e-06
0.000186959
1.04089e-05
0.000174565
1.2394e-05
0.000160464
1.41013e-05
0.000144866
1.55979e-05
0.000128007
1.68594e-05
0.000110124
1.78828e-05
9.14485e-05
1.86752e-05
7.22692e-05
1.91793e-05
5.28246e-05
1.94446e-05
3.3381e-05
1.94436e-05
1.41273e-05
1.92537e-05
-4.65525e-06
1.87825e-05
-2.28387e-05
1.81834e-05
-4.02268e-05
1.73882e-05
-5.6712e-05
1.64852e-05
-7.22138e-05
1.55018e-05
-8.66842e-05
1.44704e-05
-0.000100026
1.33418e-05
-0.000112253
1.22274e-05
-0.000123363
1.11093e-05
-0.000133357
9.99468e-06
-0.00014228
8.92312e-06
-0.000150152
7.87128e-06
-0.000157029
6.87743e-06
-0.000162956
5.92673e-06
-0.000167954
4.99774e-06
-0.00017211
4.15629e-06
-0.000175426
3.31575e-06
-0.000177924
2.4983e-06
-0.000179694
1.76982e-06
-0.000180712
1.0186e-06
-0.000181052
3.39558e-07
-0.000180678
-3.74339e-07
-0.00017973
-9.4788e-07
-0.000178071
-1.65862e-06
-0.000175805
-2.26628e-06
-0.00017295
-2.85475e-06
-0.000169446
-3.50383e-06
-0.000165337
-4.10953e-06
-0.000160707
-4.62959e-06
-0.000155445
-5.26253e-06
-0.000149569
-5.87568e-06
-0.000143079
-6.49016e-06
-0.000135888
-7.19106e-06
-0.000128162
-7.72536e-06
-0.000119679
-8.48391e-06
-0.000110538
-9.14052e-06
-0.000100623
-9.91551e-06
-8.99624e-05
-1.06603e-05
-7.85347e-05
-1.14277e-05
-6.63831e-05
-1.21517e-05
-5.34142e-05
-1.29689e-05
-3.97774e-05
-1.36368e-05
-2.54266e-05
-1.43509e-05
-1.0362e-05
-1.50647e-05
5.26356e-06
-1.56256e-05
2.13867e-05
-1.61232e-05
3.78339e-05
-1.64473e-05
5.44925e-05
-1.66587e-05
7.11366e-05
-1.66442e-05
8.76246e-05
-1.6488e-05
0.000103756
-1.6131e-05
0.000119303
-1.55478e-05
0.000134037
-1.47339e-05
0.000147733
-1.36957e-05
0.000160134
-1.24012e-05
0.000171006
-1.08724e-05
0.000180189
-9.18298e-06
0.000187438
-7.24902e-06
0.000192649
-5.21084e-06
0.000195591
-2.94183e-06
0.000196295
-7.04378e-07
0.000194672
1.62273e-06
0.000190672
3.99971e-06
0.00018439
6.28289e-06
0.000175958
8.43104e-06
0.000165491
1.04671e-05
0.000153169
1.23219e-05
0.000139267
1.39021e-05
0.000124014
1.52528e-05
0.000107702
1.63123e-05
9.06054e-05
1.70967e-05
7.29209e-05
1.76845e-05
5.4972e-05
1.79489e-05
3.6964e-05
1.8008e-05
1.90929e-05
1.78711e-05
1.64137e-06
1.74515e-05
-1.52087e-05
1.685e-05
-3.12532e-05
1.60445e-05
-4.6418e-05
1.51648e-05
-6.06136e-05
1.41956e-05
-7.38347e-05
1.32211e-05
-8.6076e-05
1.22413e-05
-9.7312e-05
1.1236e-05
-0.000107653
1.03409e-05
-0.000117135
9.482e-06
-0.000125665
8.52985e-06
-0.000133351
7.68585e-06
-0.000140075
6.72474e-06
-0.00014591
5.83495e-06
-0.000150863
4.9526e-06
-0.00015501
4.14728e-06
-0.000158509
3.4991e-06
-0.000161398
2.88907e-06
-0.000163698
2.30003e-06
-0.000165547
1.8482e-06
-0.000166914
1.36787e-06
-0.000167816
9.01622e-07
-0.000168305
4.88671e-07
-0.000168298
-7.02723e-09
-0.000167782
-5.1621e-07
-0.000166817
-9.65041e-07
-0.000165304
-1.51292e-06
-0.000163333
-1.97016e-06
-0.000160851
-2.48225e-06
-0.000157857
-2.99394e-06
-0.000154373
-3.48418e-06
-0.000150368
-4.00521e-06
-0.000145785
-4.58333e-06
-0.000140665
-5.11969e-06
-0.000134929
-5.73562e-06
-0.000128547
-6.38247e-06
-0.000121511
-7.03632e-06
-0.00011376
-7.75073e-06
-0.000105308
-8.45137e-06
-9.60966e-05
-9.21195e-06
-8.61334e-05
-9.96316e-06
-7.53929e-05
-1.07406e-05
-6.39742e-05
-1.14187e-05
-5.17183e-05
-1.22559e-05
-3.87194e-05
-1.29989e-05
-2.49486e-05
-1.37709e-05
-1.04749e-05
-1.44738e-05
4.59865e-06
-1.50736e-05
2.02106e-05
-1.56121e-05
3.62005e-05
-1.599e-05
5.24602e-05
-1.62597e-05
6.87721e-05
-1.63119e-05
8.49871e-05
-1.6215e-05
0.00010092
-1.59325e-05
0.000116354
-1.5435e-05
0.000131037
-1.46822e-05
0.000144686
-1.36491e-05
0.000157184
-1.24986e-05
0.000168187
-1.10027e-05
0.000177557
-9.37022e-06
0.000185043
-7.48582e-06
0.000190528
-5.48554e-06
0.000193919
-3.39138e-06
0.00019508
-1.16033e-06
0.000194108
9.71204e-07
0.000190898
3.2104e-06
0.000185563
5.33462e-06
0.000178262
7.30102e-06
0.000169099
9.1636e-06
0.000158242
1.08571e-05
0.000145906
1.23357e-05
0.000132314
1.35921e-05
0.000117735
1.45791e-05
0.000102332
1.54025e-05
8.64078e-05
1.59242e-05
7.01232e-05
1.62846e-05
5.37229e-05
1.64003e-05
3.73814e-05
1.63414e-05
2.12961e-05
1.60853e-05
5.51296e-06
1.57832e-05
-9.73945e-06
1.52524e-05
-2.44102e-05
1.46708e-05
-3.84238e-05
1.40136e-05
-5.17305e-05
1.33067e-05
-6.4275e-05
1.25445e-05
-7.60766e-05
1.18016e-05
-8.71567e-05
1.10801e-05
-9.7377e-05
1.02203e-05
-0.000106862
9.48496e-06
-0.000115532
8.66991e-06
-0.000123462
7.92991e-06
-0.000130643
7.18168e-06
-0.000137026
6.38239e-06
-0.000142659
5.63333e-06
-0.000147474
4.81494e-06
-0.000151584
4.10956e-06
-0.000155042
3.45788e-06
-0.000157625
2.58343e-06
-0.00015963
2.00494e-06
-0.000160842
1.21242e-06
-0.000161412
5.70019e-07
-0.000161171
-2.41878e-07
-0.000160239
-9.31789e-07
-0.000158449
-1.79016e-06
-0.000156142
-2.30617e-06
-0.000153196
-2.946e-06
-0.000149598
-3.59893e-06
-0.000145516
-4.08135e-06
-0.000141006
-4.50996e-06
-0.00013594
-5.06655e-06
-0.000130534
-5.40569e-06
-0.000124594
-5.93997e-06
-0.000118218
-6.37609e-06
-0.000111355
-6.86342e-06
-0.00010394
-7.41441e-06
-9.58909e-05
-8.04926e-06
-8.71749e-05
-8.71604e-06
-7.77143e-05
-9.4607e-06
-6.73455e-05
-1.03688e-05
-5.6226e-05
-1.11196e-05
-4.42038e-05
-1.20222e-05
-3.11901e-05
-1.30137e-05
-1.73074e-05
-1.38828e-05
-2.28716e-06
-1.50203e-05
1.32326e-05
-1.55198e-05
2.95791e-05
-1.63466e-05
4.66267e-05
-1.70476e-05
6.39934e-05
-1.73668e-05
8.16456e-05
-1.76523e-05
9.93221e-05
-1.76765e-05
0.00011682
-1.74983e-05
0.000133949
-1.71291e-05
0.000150246
-1.62965e-05
0.000165599
-1.53533e-05
0.000179717
-1.41176e-05
0.000192318
-1.26011e-05
0.000203228
-1.09102e-05
0.000212304
-9.07647e-06
0.000219349
-7.04436e-06
0.000224256
-4.90742e-06
0.000226944
-2.68839e-06
0.000227357
-4.12591e-07
0.000225521
1.83594e-06
0.000221281
4.23987e-06
0.000214979
6.30178e-06
0.000206712
8.26702e-06
0.00019669
1.00216e-05
0.000185151
1.15392e-05
0.00017214
1.30116e-05
0.000158046
1.40932e-05
0.000143108
1.49383e-05
0.000127312
1.57956e-05
0.000111088
1.62246e-05
9.45105e-05
1.65772e-05
7.79094e-05
1.66011e-05
6.12054e-05
1.6704e-05
4.48003e-05
1.64051e-05
2.85572e-05
1.62431e-05
1.28322e-05
1.5725e-05
-2.51148e-06
1.53436e-05
-1.7277e-05
1.47655e-05
-3.14489e-05
1.41719e-05
-4.49428e-05
1.3494e-05
-5.76901e-05
1.27472e-05
-6.96875e-05
1.19974e-05
-8.08751e-05
1.11876e-05
-9.12618e-05
1.03867e-05
-0.000100802
9.5404e-06
-0.000109475
8.67242e-06
-0.000117287
7.81265e-06
-0.000124203
6.91529e-06
-0.000130218
6.01563e-06
-0.000135346
5.12771e-06
-0.000139563
4.21753e-06
-0.000142888
3.32425e-06
-0.000145322
2.4342e-06
-0.000146861
1.53934e-06
-0.000147547
6.86115e-07
-2.56114e-07
8.67401e-05
-3.69119e-05
0.000105166
-3.68392e-05
0.000123126
-3.59049e-05
0.000140292
-3.43162e-05
0.000156629
-3.26587e-05
0.000171721
-3.01734e-05
0.00018549
-2.75238e-05
0.0001976
-2.4191e-05
0.000207816
-2.04309e-05
0.00021591
-1.61942e-05
0.000221743
-1.16613e-05
0.000225229
-6.96577e-06
0.000226213
-1.96739e-06
0.000224659
3.09755e-06
0.00022058
8.15178e-06
0.000214037
1.30825e-05
0.000205069
1.79297e-05
0.000194087
2.19565e-05
0.000181149
2.5864e-05
0.000166412
2.94642e-05
0.000150305
3.21993e-05
0.000132991
3.46165e-05
0.000114671
3.66274e-05
9.58212e-05
3.76839e-05
7.66035e-05
3.84262e-05
5.72384e-05
3.87185e-05
3.79215e-05
3.86213e-05
1.90316e-05
3.77758e-05
4.89312e-07
3.70746e-05
-1.74323e-05
3.58385e-05
-3.45885e-05
3.4307e-05
-5.08826e-05
3.25827e-05
-6.62471e-05
3.07255e-05
-8.06309e-05
2.87629e-05
-9.40102e-05
2.67539e-05
-0.000106354
2.46879e-05
-0.000117667
2.26264e-05
-0.000127993
2.06487e-05
-0.000137342
1.86939e-05
-0.000145744
1.68047e-05
-0.000153225
1.49644e-05
-0.000159829
1.32062e-05
-0.000165585
1.15055e-05
-0.000170514
9.85905e-06
-0.00017466
8.29277e-06
-0.000178045
6.76986e-06
-0.000180684
5.27927e-06
-0.000182583
3.79325e-06
-0.00018378
2.39683e-06
-0.000184309
1.05959e-06
-0.000184023
-5.75059e-07
-0.000183024
-1.9995e-06
-0.000181212
-3.62692e-06
-0.000178688
-5.04752e-06
-0.000175438
-6.5056e-06
-0.000171256
-8.36027e-06
-0.000166385
-9.74902e-06
-0.000160606
-1.15558e-05
-0.000153931
-1.33455e-05
-0.000146395
-1.50778e-05
-0.000137859
-1.70739e-05
-0.000128348
-1.90105e-05
-0.000118034
-2.06424e-05
-0.000106691
-2.26833e-05
-9.43904e-05
-2.45926e-05
-8.11917e-05
-2.64072e-05
-6.71228e-05
-2.81216e-05
-5.22937e-05
-2.96506e-05
-3.65335e-05
-3.15113e-05
-2.01576e-05
-3.27487e-05
-3.2843e-06
-3.37379e-05
1.41842e-05
-3.49314e-05
3.19676e-05
-3.55568e-05
4.9909e-05
-3.58775e-05
6.78772e-05
-3.59278e-05
8.56869e-05
-3.5606e-05
0.000103216
-3.505e-05
0.000120185
-3.39217e-05
0.000136526
-3.26717e-05
0.000151859
-3.06569e-05
0.000166162
-2.85882e-05
0.000179018
-2.57038e-05
0.000190269
-2.24807e-05
0.000199871
-1.92057e-05
0.000207389
-1.50335e-05
0.00021292
-1.10481e-05
0.000216169
-6.49022e-06
0.000217142
-1.94889e-06
0.000215738
2.78829e-06
0.000211901
7.67531e-06
0.00020581
1.21764e-05
0.000197454
1.66955e-05
0.000187031
2.08322e-05
0.000174626
2.47995e-05
0.000160505
2.82218e-05
0.00014489
3.12134e-05
0.000128019
3.37297e-05
0.000110128
3.57744e-05
9.14361e-05
3.73667e-05
7.22483e-05
3.83671e-05
5.27981e-05
3.88948e-05
3.33433e-05
3.88984e-05
1.40749e-05
3.85221e-05
-4.71006e-06
3.75675e-05
-2.29022e-05
3.63756e-05
-4.02942e-05
3.47802e-05
-5.67874e-05
3.29784e-05
-7.23009e-05
3.10153e-05
-8.67681e-05
2.89377e-05
-0.000100107
2.66805e-05
-0.000112333
2.44537e-05
-0.000123442
2.22176e-05
-0.000133436
1.99896e-05
-0.000142362
1.7849e-05
-0.000150235
1.57441e-05
-0.000157106
1.37483e-05
-0.000163028
1.18487e-05
-0.000168031
1.00006e-05
-0.000172191
8.31611e-06
-0.000175509
6.63449e-06
-0.000178
4.98935e-06
-0.000179766
3.53498e-06
-0.000180791
2.04413e-06
-0.000181126
6.74726e-07
-0.000180766
-7.34471e-07
-0.000179813
-1.90113e-06
-0.000178155
-3.3166e-06
-0.00017589
-4.531e-06
-0.000173033
-5.71169e-06
-0.000169531
-7.00576e-06
-0.000165444
-8.19746e-06
-0.000160797
-9.27622e-06
-0.000155536
-1.05231e-05
-0.000149665
-1.17472e-05
-0.000143177
-1.29782e-05
-0.000135981
-1.43868e-05
-0.000128265
-1.54415e-05
-0.000119781
-1.69681e-05
-0.000110638
-1.82832e-05
-0.000100726
-1.9828e-05
-9.00591e-05
-2.13272e-05
-7.86421e-05
-2.28447e-05
-6.6481e-05
-2.4313e-05
-5.35057e-05
-2.59443e-05
-3.98829e-05
-2.72598e-05
-2.55093e-05
-2.87246e-05
-1.04577e-05
-3.01164e-05
5.17991e-06
-3.12633e-05
2.13112e-05
-3.22546e-05
3.77852e-05
-3.29213e-05
5.44394e-05
-3.3313e-05
7.10967e-05
-3.33016e-05
8.75982e-05
-3.29896e-05
0.000103728
-3.22614e-05
0.000119287
-3.11067e-05
0.000134024
-2.94708e-05
0.000147742
-2.74142e-05
0.000160158
-2.4817e-05
0.000171049
-2.17637e-05
0.000180237
-1.83706e-05
0.000187492
-1.45041e-05
0.0001927
-1.04187e-05
0.000195651
-5.89323e-06
0.00019637
-1.42378e-06
0.00019473
3.26293e-06
0.000190733
7.99605e-06
0.000184457
1.25593e-05
0.000176009
1.68792e-05
0.000165537
2.0939e-05
0.000153209
2.46493e-05
0.000139295
2.78169e-05
0.000124031
3.05164e-05
0.000107709
3.26345e-05
9.05985e-05
3.42069e-05
7.29106e-05
3.53723e-05
5.49426e-05
3.59169e-05
3.69189e-05
3.60316e-05
1.90504e-05
3.57396e-05
1.58902e-06
3.49129e-05
-1.52696e-05
3.37086e-05
-3.13186e-05
3.20936e-05
-4.64913e-05
3.03375e-05
-6.06871e-05
2.83914e-05
-7.39011e-05
2.64351e-05
-8.61468e-05
2.4487e-05
-9.7385e-05
2.24742e-05
-0.000107722
2.06782e-05
-0.000117205
1.8965e-05
-0.000125729
1.70541e-05
-0.00013341
1.53661e-05
-0.000140141
1.3456e-05
-0.000145981
1.1675e-05
-0.000150927
9.89891e-06
-0.000155085
8.30465e-06
-0.000158579
6.99381e-06
-0.000161468
5.77768e-06
-0.000163769
4.60065e-06
-0.000165614
3.69364e-06
-0.000166985
2.73876e-06
-0.000167892
1.80834e-06
-0.000168376
9.72822e-07
-0.000168374
-9.37468e-09
-0.000167862
-1.02726e-06
-0.000166897
-1.93043e-06
-0.000165384
-3.02562e-06
-0.000163395
-3.95945e-06
-0.000160939
-4.93868e-06
-0.000157951
-5.98134e-06
-0.00015447
-6.9657e-06
-0.000150464
-8.0108e-06
-0.000145881
-9.16695e-06
-0.000140757
-1.0243e-05
-0.000135026
-1.14668e-05
-0.000128653
-1.27562e-05
-0.000121611
-1.40779e-05
-0.000113872
-1.54896e-05
-0.000105419
-1.69047e-05
-9.61995e-05
-1.84314e-05
-8.62409e-05
-1.99219e-05
-7.55307e-05
-2.14509e-05
-6.40881e-05
-2.28613e-05
-5.18022e-05
-2.4542e-05
-3.88135e-05
-2.59877e-05
-2.50219e-05
-2.75627e-05
-1.05674e-05
-2.89283e-05
4.51061e-06
-3.01517e-05
2.01296e-05
-3.12311e-05
3.6124e-05
-3.19845e-05
5.23987e-05
-3.25345e-05
6.87228e-05
-3.26362e-05
8.49497e-05
-3.2442e-05
0.000100908
-3.18909e-05
0.00011633
-3.08571e-05
0.00013102
-2.93718e-05
0.000144701
-2.73302e-05
0.000157205
-2.50035e-05
0.000168215
-2.20121e-05
0.000177601
-1.87568e-05
0.000185106
-1.49911e-05
0.000190599
-1.09787e-05
0.000193992
-6.78443e-06
0.000195152
-2.32011e-06
0.000194168
1.95491e-06
0.000190956
6.4228e-06
0.000185627
1.06635e-05
0.000178319
1.46084e-05
0.000169154
1.83287e-05
0.000158289
2.17227e-05
0.000145943
2.46812e-05
0.000132337
2.71979e-05
0.000117736
2.918e-05
0.000102338
3.08002e-05
8.64029e-05
3.18597e-05
7.01176e-05
3.25698e-05
5.37059e-05
3.2812e-05
3.73513e-05
3.2696e-05
2.12642e-05
3.21724e-05
5.47129e-06
3.15761e-05
-9.78672e-06
3.05104e-05
-2.44565e-05
2.93405e-05
-3.84786e-05
2.80357e-05
-5.17922e-05
2.66202e-05
-6.43429e-05
2.50953e-05
-7.61428e-05
2.36015e-05
-8.72331e-05
2.21704e-05
-9.74506e-05
2.04378e-05
-0.000106919
1.89536e-05
-0.00011561
1.7361e-05
-0.000123552
1.5872e-05
-0.000130725
1.4354e-05
-0.000137108
1.27654e-05
-0.000142742
1.12678e-05
-0.000147558
9.63074e-06
-0.000151662
8.2138e-06
-0.000155128
6.92397e-06
-0.000157706
5.16148e-06
-0.000159692
3.99071e-06
-0.000160915
2.43559e-06
-0.000161479
1.13363e-06
-0.00016124
-4.81245e-07
-0.000160301
-1.87054e-06
-0.000158512
-3.57953e-06
-0.000156205
-4.61305e-06
-0.000153256
-5.89463e-06
-0.000149654
-7.20064e-06
-0.000145566
-8.16959e-06
-0.000141057
-9.01896e-06
-0.000135987
-1.01367e-05
-0.000130581
-1.08114e-05
-0.000124653
-1.18684e-05
-0.000118268
-1.27612e-05
-0.000111406
-1.37256e-05
-0.000104003
-1.48175e-05
-9.59487e-05
-1.61032e-05
-8.72328e-05
-1.7432e-05
-7.77719e-05
-1.89217e-05
-6.73977e-05
-2.0743e-05
-5.6286e-05
-2.22314e-05
-4.42654e-05
-2.40429e-05
-3.12456e-05
-2.60335e-05
-1.73641e-05
-2.77645e-05
-2.33632e-06
-3.00481e-05
1.31902e-05
-3.10464e-05
2.95454e-05
-3.27019e-05
4.66024e-05
-3.41047e-05
6.39809e-05
-3.47454e-05
8.16435e-05
-3.53151e-05
9.9333e-05
-3.53661e-05
0.000116843
-3.50086e-05
0.00013399
-3.42758e-05
0.000150297
-3.26037e-05
0.000165666
-3.07223e-05
0.000179804
-2.82557e-05
0.000192418
-2.52151e-05
0.000203342
-2.18346e-05
0.000212424
-1.81588e-05
0.00021947
-1.40901e-05
0.000224378
-9.81586e-06
0.000227069
-5.37896e-06
0.000227477
-8.21279e-07
0.000225635
3.67861e-06
0.000221391
8.48385e-06
0.000215088
1.26042e-05
0.000206812
1.65425e-05
0.000196779
2.00553e-05
0.000185231
2.30872e-05
0.000172207
2.60354e-05
0.000158107
2.81926e-05
0.000143151
2.98945e-05
0.000127347
3.15991e-05
0.000111111
3.24609e-05
9.45277e-05
3.31606e-05
7.79143e-05
3.32144e-05
6.12085e-05
3.34097e-05
4.47973e-05
3.28164e-05
2.85464e-05
3.24939e-05
1.28179e-05
3.14535e-05
-2.53065e-06
3.06922e-05
-1.72983e-05
2.95331e-05
-3.14765e-05
2.83501e-05
-4.49738e-05
2.69913e-05
-5.77232e-05
2.54966e-05
-6.97236e-05
2.39977e-05
-8.09164e-05
2.23804e-05
-9.13016e-05
2.07718e-05
-0.000100844
1.90826e-05
-0.00010952
1.73486e-05
-0.000117332
1.56248e-05
-0.000124245
1.38283e-05
-0.000130262
1.20324e-05
-0.000135388
1.02541e-05
-0.000139601
8.43024e-06
-0.000142926
6.64923e-06
-0.000145362
4.87032e-06
-0.000146899
3.07606e-06
-0.000147584
1.37097e-06
-5.14869e-07
8.67605e-05
-5.53894e-05
0.000105208
-5.52874e-05
0.000123192
-5.38891e-05
0.000140386
-5.15102e-05
0.000156748
-4.90209e-05
0.000171878
-4.53037e-05
0.000185683
-4.13294e-05
0.000197808
-3.63156e-05
0.000208052
-3.06758e-05
0.000216174
-2.43157e-05
0.000222007
-1.74943e-05
0.000225497
-1.04569e-05
0.000226467
-2.93727e-06
0.000224862
4.70239e-06
0.000220767
1.22465e-05
0.000214217
1.96328e-05
0.000205234
2.69129e-05
0.000194237
3.29525e-05
0.00018128
3.88213e-05
0.000166526
4.42182e-05
0.000150396
4.83293e-05
0.000133065
5.19477e-05
0.00011473
5.49618e-05
9.58498e-05
5.65641e-05
7.6617e-05
5.76589e-05
5.72328e-05
5.81026e-05
3.78948e-05
5.79593e-05
1.89774e-05
5.66931e-05
4.36387e-07
5.56156e-05
-1.74958e-05
5.37706e-05
-3.46615e-05
5.14728e-05
-5.09632e-05
4.88842e-05
-6.63331e-05
4.60954e-05
-8.07186e-05
4.31484e-05
-9.40998e-05
4.0135e-05
-0.000106447
3.70351e-05
-0.000117763
3.39427e-05
-0.000128087
3.09721e-05
-0.000137433
2.804e-05
-0.000145835
2.52071e-05
-0.000153315
2.24445e-05
-0.000159922
1.98127e-05
-0.000165678
1.72618e-05
-0.000170602
1.47829e-05
-0.00017475
1.24412e-05
-0.000178138
1.01575e-05
-0.000180777
7.91835e-06
-0.000182687
5.70305e-06
-0.00018387
3.57986e-06
-0.000184377
1.56638e-06
-0.000184083
-8.68743e-07
-0.000183082
-3.00069e-06
-0.000181273
-5.43555e-06
-0.000178747
-7.57394e-06
-0.000175506
-9.7467e-06
-0.000171317
-1.25486e-05
-0.000166441
-1.46256e-05
-0.000160674
-1.73223e-05
-0.000153998
-2.00217e-05
-0.000146472
-2.26043e-05
-0.000137941
-2.5605e-05
-0.000128431
-2.85201e-05
-0.000118118
-3.09559e-05
-0.000106774
-3.40267e-05
-9.44638e-05
-3.69033e-05
-8.12732e-05
-3.95979e-05
-6.71913e-05
-4.22036e-05
-5.23547e-05
-4.44873e-05
-3.65824e-05
-4.72837e-05
-2.0205e-05
-4.91262e-05
-3.32434e-06
-5.06188e-05
1.41512e-05
-5.2407e-05
3.19401e-05
-5.33458e-05
4.98994e-05
-5.38368e-05
6.78749e-05
-5.39034e-05
8.57017e-05
-5.3433e-05
0.000103242
-5.25905e-05
0.000120231
-5.09103e-05
0.000136583
-4.90239e-05
0.000151933
-4.60073e-05
0.00016627
-4.29256e-05
0.000179123
-3.85566e-05
0.000190419
-3.37765e-05
0.000200021
-2.88086e-05
0.000207544
-2.25563e-05
0.000213081
-1.65848e-05
0.000216335
-9.74512e-06
0.000217318
-2.93137e-06
0.000215879
4.22721e-06
0.000212044
1.15102e-05
0.000205945
1.82756e-05
0.000197574
2.50657e-05
0.000187123
3.12833e-05
0.000174712
3.72111e-05
0.000160554
4.23794e-05
0.000144927
4.68408e-05
0.000128043
5.06137e-05
0.000110123
5.36944e-05
9.14015e-05
5.60878e-05
7.22198e-05
5.75488e-05
5.27214e-05
5.83932e-05
3.32442e-05
5.83756e-05
1.39598e-05
5.78065e-05
-4.83624e-06
5.63636e-05
-2.30419e-05
5.45813e-05
-4.04414e-05
5.21797e-05
-5.69405e-05
4.94775e-05
-7.24667e-05
4.65415e-05
-8.69345e-05
4.34055e-05
-0.000100282
4.00281e-05
-0.000112507
3.66788e-05
-0.000123613
3.33235e-05
-0.000133605
2.99813e-05
-0.000142522
2.67664e-05
-0.000150384
2.36064e-05
-0.000157259
2.06231e-05
-0.000163186
1.7775e-05
-0.000168184
1.49989e-05
-0.00017233
1.24621e-05
-0.000175651
9.95598e-06
-0.000178139
7.47717e-06
-0.000179891
5.28718e-06
-0.000180948
3.10104e-06
-0.000181268
9.94173e-07
-0.000180911
-1.09074e-06
-0.000179932
-2.8801e-06
-0.000178284
-4.96505e-06
-0.000176025
-6.78983e-06
-0.000173162
-8.57482e-06
-0.000169655
-1.05132e-05
-0.000165587
-1.22647e-05
-0.000160921
-1.39422e-05
-0.000155666
-1.57781e-05
-0.00014979
-1.76233e-05
-0.000143308
-1.94602e-05
-0.000136156
-2.1539e-05
-0.000128397
-2.32003e-05
-0.000119922
-2.54436e-05
-0.000110774
-2.74311e-05
-0.000100866
-2.9736e-05
-9.01985e-05
-3.1995e-05
-7.87827e-05
-3.42606e-05
-6.66235e-05
-3.64723e-05
-5.36754e-05
-3.88925e-05
-4.00257e-05
-4.09096e-05
-2.56142e-05
-4.31362e-05
-1.05858e-05
-4.51448e-05
5.06555e-06
-4.69148e-05
2.12129e-05
-4.8402e-05
3.76895e-05
-4.93981e-05
5.43552e-05
-4.99789e-05
7.10366e-05
-4.99832e-05
8.7552e-05
-4.95051e-05
0.000103701
-4.84107e-05
0.000119282
-4.66876e-05
0.000134033
-4.42223e-05
0.000147756
-4.11371e-05
0.000160205
-3.72661e-05
0.000171111
-3.26695e-05
0.00018032
-2.75798e-05
0.000187592
-2.17766e-05
0.000192824
-1.56507e-05
0.000195784
-8.85342e-06
0.000196499
-2.13862e-06
0.00019483
4.93223e-06
0.000190836
1.19895e-05
0.00018457
1.8825e-05
0.000176092
2.53571e-05
0.000165607
3.14248e-05
0.000153262
3.69943e-05
0.000139333
4.17455e-05
0.00012404
4.58096e-05
0.00010769
4.89844e-05
9.05566e-05
5.13399e-05
7.28875e-05
5.30414e-05
5.48669e-05
5.39375e-05
3.67986e-05
5.40999e-05
1.89078e-05
5.36304e-05
1.45449e-06
5.23662e-05
-1.54169e-05
5.058e-05
-3.14763e-05
4.81529e-05
-4.66515e-05
4.55128e-05
-6.08488e-05
4.25887e-05
-7.40662e-05
3.96526e-05
-8.63106e-05
3.67314e-05
-9.75489e-05
3.37125e-05
-0.00010787
3.09995e-05
-0.00011735
2.84447e-05
-0.000125881
2.55855e-05
-0.000133559
2.30443e-05
-0.000140296
2.01921e-05
-0.000146118
1.74977e-05
-0.000151064
1.48451e-05
-0.000155221
1.24615e-05
-0.000158735
1.05071e-05
-0.000161593
8.63623e-06
-0.00016389
6.89709e-06
-0.000165733
5.53747e-06
-0.000167103
4.1083e-06
-0.000168014
2.71903e-06
-0.000168491
1.45014e-06
-0.000168495
-5.54035e-09
-0.000167981
-1.54111e-06
-0.000167017
-2.89479e-06
-0.000165503
-4.53913e-06
-0.000163497
-5.96566e-06
-0.000161057
-7.37848e-06
-0.000158079
-8.95917e-06
-0.000154594
-1.04512e-05
-0.000150588
-1.20163e-05
-0.000146006
-1.37491e-05
-0.000140884
-1.53656e-05
-0.000135154
-1.71967e-05
-0.000128787
-1.91226e-05
-0.000121745
-2.11205e-05
-0.000114013
-2.3222e-05
-0.000105567
-2.53507e-05
-9.63372e-05
-2.76609e-05
-8.6377e-05
-2.98821e-05
-7.56859e-05
-3.21421e-05
-6.42208e-05
-3.43265e-05
-5.19207e-05
-3.68422e-05
-3.89507e-05
-3.89578e-05
-2.51165e-05
-4.13969e-05
-1.06888e-05
-4.33561e-05
4.40032e-06
-4.52409e-05
2.00269e-05
-4.68578e-05
3.6034e-05
-4.79917e-05
5.23042e-05
-4.88048e-05
6.86638e-05
-4.89958e-05
8.49046e-05
-4.86829e-05
0.000100891
-4.78773e-05
0.000116318
-4.62841e-05
0.000131016
-4.40705e-05
0.000144745
-4.10587e-05
0.000157263
-3.75217e-05
0.00016829
-3.30393e-05
0.000177695
-2.81619e-05
0.000185211
-2.25072e-05
0.000190718
-1.64854e-05
0.000194117
-1.01837e-05
0.000195275
-3.47856e-06
0.000194266
2.9636e-06
0.000191046
9.64301e-06
0.000185726
1.5984e-05
0.000178396
2.19383e-05
0.000169208
2.75166e-05
0.000158325
3.26053e-05
0.000145969
3.70369e-05
0.000132341
4.08265e-05
0.00011771
4.38105e-05
0.000102303
4.6207e-05
8.63484e-05
4.78145e-05
7.00554e-05
4.88627e-05
5.36288e-05
4.92386e-05
3.72538e-05
4.9071e-05
2.11249e-05
4.83012e-05
5.35219e-06
4.73487e-05
-9.918e-06
4.57806e-05
-2.45932e-05
4.40157e-05
-3.86324e-05
4.20749e-05
-5.19383e-05
3.99262e-05
-6.4486e-05
3.7643e-05
-7.62723e-05
3.53878e-05
-8.73587e-05
3.32568e-05
-9.75773e-05
3.06564e-05
-0.000107045
2.84216e-05
-0.000115734
2.60496e-05
-0.000123689
2.38276e-05
-0.000130848
2.15126e-05
-0.000137229
1.91461e-05
-0.000142852
1.68909e-05
-0.000147663
1.44419e-05
-0.000151749
1.22999e-05
-0.000155223
1.0398e-05
-0.000157798
7.73602e-06
-0.000159779
5.972e-06
-0.000161012
3.66835e-06
-0.000161549
1.67066e-06
-0.000161309
-7.20944e-07
-0.000160363
-2.81668e-06
-0.00015857
-5.37223e-06
-0.000156261
-6.92209e-06
-0.000153308
-8.84797e-06
-0.000149703
-1.0806e-05
-0.000145605
-1.22673e-05
-0.000141096
-1.3528e-05
-0.000136023
-1.52095e-05
-0.00013062
-1.62143e-05
-0.000124704
-1.77841e-05
-0.000118313
-1.9153e-05
-0.000111451
-2.05871e-05
-0.000104062
-2.2207e-05
-9.59936e-05
-2.41715e-05
-8.72957e-05
-2.61299e-05
-7.78381e-05
-2.83794e-05
-6.74602e-05
-3.1121e-05
-5.63616e-05
-3.33301e-05
-4.43478e-05
-3.60568e-05
-3.13175e-05
-3.90638e-05
-1.74441e-05
-4.16379e-05
-2.40047e-06
-4.50918e-05
1.3129e-05
-4.6576e-05
2.94972e-05
-4.90702e-05
4.65686e-05
-5.11762e-05
6.39682e-05
-5.21451e-05
8.16502e-05
-5.29971e-05
9.93583e-05
-5.30744e-05
0.000116891
-5.25418e-05
0.000134067
-5.14512e-05
0.000150393
-4.89304e-05
0.000165784
-4.61136e-05
0.000179947
-4.2418e-05
0.000192583
-3.78514e-05
0.000203528
-3.27793e-05
0.000212623
-2.72539e-05
0.000219685
-2.11531e-05
0.000224602
-1.47329e-05
0.0002273
-8.07662e-06
0.000227689
-1.21045e-06
0.000225807
5.5603e-06
0.000221552
1.27391e-05
0.000215253
1.89034e-05
0.000206956
2.48394e-05
0.000196901
3.01098e-05
0.000185338
3.46503e-05
0.000172294
3.90791e-05
0.000158194
4.22928e-05
0.000143193
4.48959e-05
0.000127385
4.74068e-05
0.000111132
4.87137e-05
9.45421e-05
4.97504e-05
7.79054e-05
4.98511e-05
6.12017e-05
5.01133e-05
4.47795e-05
4.92386e-05
2.85182e-05
4.87552e-05
1.2784e-05
4.71876e-05
-2.57754e-06
4.60537e-05
-1.73495e-05
4.4305e-05
-3.15337e-05
4.25343e-05
-4.50368e-05
4.04944e-05
-5.77901e-05
3.825e-05
-6.97924e-05
3.6e-05
-8.09858e-05
3.35739e-05
-9.13757e-05
3.11617e-05
-0.00010092
2.86268e-05
-0.000109593
2.60217e-05
-0.000117406
2.3438e-05
-0.000124319
2.07414e-05
-0.000130332
1.80453e-05
-0.000135459
1.53805e-05
-0.000139673
1.26446e-05
-0.000142995
9.97084e-06
-0.000145433
7.30879e-06
-0.000146975
4.61787e-06
-0.000147654
2.04964e-06
-7.76112e-07
8.67907e-05
-7.38923e-05
0.000105274
-7.37708e-05
0.000123297
-7.19121e-05
0.000140533
-6.87469e-05
0.00015694
-6.54286e-05
0.00017212
-6.04833e-05
0.00018597
-5.51799e-05
0.000198136
-4.84817e-05
0.000208417
-4.09568e-05
0.000216567
-3.24657e-05
0.00022242
-2.33477e-05
0.000225924
-1.39617e-05
0.000226868
-3.88069e-06
0.000225182
6.38767e-06
0.000221049
1.63791e-05
0.000214486
2.61957e-05
0.000205481
3.59184e-05
0.000194464
4.39695e-05
0.000181477
5.18082e-05
0.000166697
5.89975e-05
0.000150532
6.44942e-05
0.000133174
6.93057e-05
0.000114822
7.33138e-05
9.5893e-05
7.54929e-05
7.66371e-05
7.69147e-05
5.72245e-05
7.75152e-05
3.78554e-05
7.73282e-05
1.88988e-05
7.56497e-05
3.5732e-07
7.41571e-05
-1.75924e-05
7.17203e-05
-3.4773e-05
6.86534e-05
-5.10845e-05
6.51957e-05
-6.64645e-05
6.14754e-05
-8.08539e-05
5.75379e-05
-9.42389e-05
5.35199e-05
-0.000106589
4.93856e-05
-0.000117908
4.52609e-05
-0.000128231
4.12951e-05
-0.000137575
3.73847e-05
-0.000145977
3.36092e-05
-0.000153456
2.99231e-05
-0.000160061
2.6418e-05
-0.000165824
2.30244e-05
-0.000170743
1.97024e-05
-0.000174892
1.65892e-05
-0.000178281
1.35471e-05
-0.00018092
1.05569e-05
-0.000182829
7.61196e-06
-0.000184005
4.75597e-06
-0.000184482
2.04408e-06
-0.000184173
-1.17774e-06
-0.00018317
-4.00454e-06
-0.000181366
-7.23875e-06
-0.000178836
-1.01042e-05
-0.000175609
-1.29737e-05
-0.000171411
-1.67463e-05
-0.000166521
-1.95163e-05
-0.00016078
-2.3063e-05
-0.000154102
-2.67004e-05
-0.000146594
-3.01117e-05
-0.000138069
-3.41304e-05
-0.000128561
-3.80277e-05
-0.000118245
-4.12725e-05
-0.000106899
-4.53725e-05
-9.4575e-05
-4.92273e-05
-8.13945e-05
-5.27784e-05
-6.72962e-05
-5.6302e-05
-5.24442e-05
-5.93394e-05
-3.66573e-05
-6.30706e-05
-2.02784e-05
-6.55052e-05
-3.38459e-06
-6.75127e-05
1.41016e-05
-6.98933e-05
3.19017e-05
-7.1146e-05
4.98804e-05
-7.18157e-05
6.78696e-05
-7.18927e-05
8.57182e-05
-7.12816e-05
0.000103275
-7.01471e-05
0.000120295
-6.79306e-05
0.000136664
-6.53927e-05
0.000152042
-6.13857e-05
0.000166427
-5.7311e-05
0.000179284
-5.14134e-05
0.000190656
-4.51487e-05
0.000200231
-3.83837e-05
0.00020777
-3.00957e-05
0.000213317
-2.21322e-05
0.000216576
-1.30039e-05
0.000217573
-3.92822e-06
0.00021608
5.71981e-06
0.000212262
1.53284e-05
0.000206134
2.44034e-05
0.000197746
3.34534e-05
0.000187249
4.1781e-05
0.000174856
4.96036e-05
0.000160628
5.66079e-05
0.000144974
6.24945e-05
0.000128055
6.75322e-05
0.000110081
7.16686e-05
9.13515e-05
7.48172e-05
7.21007e-05
7.67996e-05
5.25981e-05
7.78958e-05
3.30926e-05
7.78811e-05
1.37871e-05
7.7112e-05
-5.02588e-06
7.51766e-05
-2.32439e-05