/*--------------------------------*- C++ -*----------------------------------*\
| =========                 |                                                 |
| \\      /  F ield         | OpenFOAM: The Open Source CFD Toolbox           |
|  \\    /   O peration     | Version:  3.0.1                                 |
|   \\  /    A nd           | Web:      www.OpenFOAM.org                      |
|    \\/     M anipulation  |                                                 |
\*---------------------------------------------------------------------------*/
FoamFile
{
    version     2.0;
    format      ascii;
    class       surfaceScalarField;
    location    "15.4";
    object      alphaPhi;
}
// * * * * * * * * * * * * * * * * * * * * * * * * * * * * * * * * * * * * * //

dimensions      [0 3 -1 0 0 0 0];

internalField   nonuniform List<scalar> 
44922
(
-0.000119247
-7.47362e-06
-0.000110869
-8.37814e-06
-0.00010171
-9.15947e-06
-9.1596e-05
-1.01138e-05
-8.07046e-05
-1.08915e-05
-6.88764e-05
-1.18282e-05
-5.63101e-05
-1.25663e-05
-4.289e-05
-1.34201e-05
-2.88454e-05
-1.40447e-05
-1.41094e-05
-1.4736e-05
1.04109e-06
-1.51505e-05
1.69482e-05
-1.59072e-05
3.31097e-05
-1.61615e-05
4.96452e-05
-1.65355e-05
6.61604e-05
-1.65152e-05
8.24272e-05
-1.62668e-05
9.8565e-05
-1.61378e-05
0.000114083
-1.55178e-05
0.000129001
-1.49185e-05
0.000142907
-1.39061e-05
0.000155722
-1.28145e-05
0.000167172
-1.14505e-05
0.000177128
-9.95567e-06
0.000185444
-8.3156e-06
0.00019204
-6.59611e-06
0.000196871
-4.83155e-06
0.000199948
-3.07654e-06
0.000201293
-1.34545e-06
0.000201017
2.7591e-07
0.000199239
1.77867e-06
0.000196103
3.13538e-06
0.000191788
4.31551e-06
0.000186409
5.37834e-06
0.000180082
6.3271e-06
0.000172916
7.16646e-06
0.000165053
7.86317e-06
0.000156549
8.50377e-06
0.000147533
9.01631e-06
0.000138012
9.52056e-06
0.000128101
9.91149e-06
0.000117757
1.03436e-05
0.000107082
1.06748e-05
9.59808e-05
1.11012e-05
8.45635e-05
1.14174e-05
7.27038e-05
1.18597e-05
6.05572e-05
1.21465e-05
4.80365e-05
1.25208e-05
3.53299e-05
1.27066e-05
2.23916e-05
1.29383e-05
9.42243e-06
1.29692e-05
-3.59617e-06
1.30186e-05
-1.65712e-05
1.2975e-05
-2.93095e-05
1.27383e-05
-4.18361e-05
1.25266e-05
-5.39801e-05
1.2144e-05
-6.57647e-05
1.17846e-05
-7.70546e-05
1.129e-05
-8.78697e-05
1.08151e-05
-9.81105e-05
1.02409e-05
-0.000107793
9.68245e-06
-0.000116857
9.06374e-06
-0.000125312
8.45569e-06
-0.000133131
7.8189e-06
-0.00014032
7.18914e-06
-0.000146873
6.55235e-06
-0.000152806
5.93268e-06
-0.000158122
5.31636e-06
-0.000162846
4.72369e-06
-0.000166989
4.14379e-06
-0.000170579
3.58926e-06
-0.000173633
3.05441e-06
-0.000176173
2.54034e-06
-0.00017822
2.04683e-06
-0.000179788
1.56799e-06
-0.000180885
1.09637e-06
-0.000181519
6.34366e-07
-0.000181709
1.89622e-07
-0.000181468
-2.40254e-07
-0.000180799
-6.69303e-07
-0.00017967
-1.12877e-06
-0.000178085
-1.58563e-06
-0.00017599
-2.09448e-06
-0.000173414
-2.57644e-06
-0.000170253
-3.16029e-06
-0.000166581
-3.67224e-06
-0.000162272
-4.30923e-06
-0.000157423
-4.84923e-06
-0.000151851
-5.5713e-06
-0.000145808
-6.04351e-06
-0.000139155
-6.65308e-06
-0.000131678
-7.4765e-06
-0.000123653
-8.02516e-06
-0.000114704
-8.94891e-06
-0.000105211
-9.49354e-06
-9.48101e-05
-1.04006e-05
-8.38714e-05
-1.09387e-05
-7.20531e-05
-1.18183e-05
-5.97066e-05
-1.23464e-05
-4.66103e-05
-1.30963e-05
-3.29676e-05
-1.36427e-05
-1.87508e-05
-1.42168e-05
-4.03498e-06
-1.47159e-05
1.10838e-05
-1.51188e-05
2.65605e-05
-1.54767e-05
4.23336e-05
-1.57731e-05
5.82119e-05
-1.58783e-05
7.41268e-05
-1.59149e-05
8.99908e-05
-1.5864e-05
0.000105529
-1.55381e-05
0.000120774
-1.52455e-05
0.000135362
-1.45877e-05
0.000149388
-1.4026e-05
0.000162431
-1.30431e-05
0.000174631
-1.21995e-05
0.000185554
-1.09234e-05
0.000195338
-9.78381e-06
0.00020361
-8.27185e-06
0.000210502
-6.89224e-06
0.000215705
-5.20356e-06
0.000219353
-3.64782e-06
0.000221249
-1.89565e-06
0.000221474
-2.24822e-07
0.000220067
1.40715e-06
0.000217074
2.99299e-06
0.000212336
4.73707e-06
0.000206119
6.2172e-06
0.00019842
7.69893e-06
0.000189254
9.1659e-06
0.000178841
1.04133e-05
0.000167244
1.15975e-05
0.000154666
1.25774e-05
0.000141175
1.34909e-05
0.000126963
1.42121e-05
0.00011213
1.48328e-05
9.68726e-05
1.52578e-05
8.12567e-05
1.56159e-05
6.54714e-05
1.57853e-05
4.96326e-05
1.58389e-05
3.38465e-05
1.57861e-05
1.82638e-05
1.55827e-05
2.96227e-06
1.53015e-05
-1.19753e-05
1.49375e-05
-2.64371e-05
1.44618e-05
-4.03706e-05
1.39336e-05
-5.37081e-05
1.33375e-05
-6.64004e-05
1.26923e-05
-7.84074e-05
1.2007e-05
-8.97083e-05
1.1301e-05
-0.000100288
1.05794e-05
-0.000110158
9.87023e-06
-0.00011932
9.16234e-06
-0.00012779
8.47015e-06
-0.000135583
7.79224e-06
-0.000142714
7.13146e-06
-0.000149207
6.49247e-06
-0.000155073
5.86653e-06
-0.000160336
5.26307e-06
-0.000165005
4.66851e-06
-0.000169104
4.09941e-06
-0.000172638
3.53415e-06
-0.000175643
3.00449e-06
-0.000178113
2.47018e-06
-0.000180092
1.97935e-06
-0.000181568
1.47612e-06
-0.000182577
1.00841e-06
-0.000183067
4.90485e-07
-0.00018305
-1.72797e-08
-0.000182583
-4.66697e-07
-0.000181569
-1.01428e-06
-0.000180113
-1.45621e-06
-0.00017806
-2.05238e-06
-0.00017557
-2.49047e-06
-0.000172426
-3.14383e-06
-0.00016883
-3.59604e-06
-0.000164558
-4.27211e-06
-0.000159851
-4.70697e-06
-0.000154305
-5.54604e-06
-0.000148362
-5.94258e-06
-0.000141506
-6.85642e-06
-0.000134201
-7.30546e-06
-0.000125886
-8.31444e-06
-0.000117124
-8.76176e-06
-0.000107749
-9.37564e-06
-9.73841e-05
-1.03646e-05
-8.64163e-05
-1.09678e-05
-7.45133e-05
-1.1903e-05
-6.19677e-05
-1.25457e-05
-4.86198e-05
-1.33479e-05
-3.46262e-05
-1.39936e-05
-2.00111e-05
-1.46151e-05
-4.84924e-06
-1.51618e-05
1.0748e-05
-1.55973e-05
2.67376e-05
-1.59896e-05
4.29739e-05
-1.62363e-05
5.93034e-05
-1.63295e-05
7.56482e-05
-1.63448e-05
9.17974e-05
-1.61492e-05
0.000107698
-1.59008e-05
0.000123074
-1.53756e-05
0.000137856
-1.47819e-05
0.00015197
-1.41139e-05
0.000165033
-1.30632e-05
0.000177153
-1.21205e-05
0.000187995
-1.08419e-05
0.000197698
-9.70316e-06
0.000205931
-8.23301e-06
0.000212851
-6.91996e-06
0.000218153
-5.30121e-06
0.00022202
-3.86738e-06
0.000224164
-2.14404e-06
0.000224787
-6.23165e-07
0.00022381
9.76878e-07
0.000221208
2.60196e-06
0.000216953
4.25529e-06
0.000211131
5.82249e-06
0.000203658
7.47262e-06
0.000194742
8.9156e-06
0.000184306
1.04368e-05
0.000172509
1.17963e-05
0.000159389
1.31202e-05
0.000144857
1.45316e-05
0.000129273
1.55843e-05
0.000112512
1.67606e-05
9.41409e-05
1.83715e-05
1.68384e-05
7.73025e-05
-0.000119295
-1.4943e-05
-0.000110923
-1.675e-05
-0.000101761
-1.83217e-05
-9.16466e-05
-2.02282e-05
-8.07548e-05
-2.17833e-05
-6.89248e-05
-2.36582e-05
-5.63561e-05
-2.51349e-05
-4.29329e-05
-2.68433e-05
-2.88828e-05
-2.80948e-05
-1.41413e-05
-2.94774e-05
1.0142e-06
-3.0306e-05
1.69283e-05
-3.18212e-05
3.3096e-05
-3.23292e-05
4.96396e-05
-3.30791e-05
6.61644e-05
-3.304e-05
8.24416e-05
-3.2544e-05
9.85913e-05
-3.22875e-05
0.000114121
-3.10475e-05
0.000129052
-2.98493e-05
0.000142969
-2.78236e-05
0.000155794
-2.56393e-05
0.000167253
-2.29093e-05
0.000177214
-1.99168e-05
0.000185532
-1.66334e-05
0.000192126
-1.31904e-05
0.000196952
-9.65734e-06
0.000200018
-6.143e-06
0.00020136
-2.68738e-06
0.000201079
5.57782e-07
0.000199298
3.55962e-06
0.000196166
6.2672e-06
0.000191846
8.63482e-06
0.000186462
1.07627e-05
0.000180129
1.26599e-05
0.000172957
1.43383e-05
0.000165089
1.57312e-05
0.000156582
1.70115e-05
0.000147562
1.80355e-05
0.00013804
1.90431e-05
0.000128127
1.98242e-05
0.000117783
2.06881e-05
0.000107107
2.13504e-05
9.60047e-05
2.22036e-05
8.45859e-05
2.28362e-05
7.27244e-05
2.37212e-05
6.05752e-05
2.42957e-05
4.80512e-05
2.50448e-05
3.53404e-05
2.54173e-05
2.23976e-05
2.58811e-05
9.4232e-06
2.59435e-05
-3.60043e-06
2.60422e-05
-1.658e-05
2.59546e-05
-2.93226e-05
2.5481e-05
-4.18531e-05
2.50571e-05
-5.40007e-05
2.42915e-05
-6.57883e-05
2.35722e-05
-7.70809e-05
2.25826e-05
-8.78983e-05
2.16324e-05
-9.81409e-05
2.04835e-05
-0.000107825
1.93662e-05
-0.000116889
1.81281e-05
-0.000125345
1.69116e-05
-0.000133164
1.56377e-05
-0.000140352
1.43778e-05
-0.000146904
1.31037e-05
-0.000152835
1.18638e-05
-0.00015815
1.0631e-05
-0.000162871
9.44535e-06
-0.000167013
8.2855e-06
-0.0001706
7.1768e-06
-0.000173653
6.10738e-06
-0.000176193
5.07938e-06
-0.000178238
4.09259e-06
-0.000179806
3.13563e-06
-0.000180904
2.19485e-06
-0.000181541
1.27096e-06
-0.000181731
3.79812e-07
-0.000181494
-4.77853e-07
-0.000180826
-1.33719e-06
-0.000179698
-2.25618e-06
-0.000178114
-3.16974e-06
-0.000176021
-4.18744e-06
-0.000173446
-5.15116e-06
-0.000170288
-6.31869e-06
-0.000166618
-7.34267e-06
-0.00016231
-8.61703e-06
-0.000157465
-9.69406e-06
-0.000151893
-1.11435e-05
-0.000145851
-1.2085e-05
-0.000139207
-1.32974e-05
-0.000131725
-1.4959e-05
-0.000123701
-1.60485e-05
-0.000114751
-1.78994e-05
-0.000105258
-1.89861e-05
-9.48577e-05
-2.08011e-05
-8.39186e-05
-2.18778e-05
-7.20983e-05
-2.36386e-05
-5.97492e-05
-2.46956e-05
-4.6647e-05
-2.61985e-05
-3.30114e-05
-2.72783e-05
-1.87847e-05
-2.84435e-05
-4.06345e-06
-2.94371e-05
1.10595e-05
-3.02417e-05
2.65381e-05
-3.09554e-05
4.23178e-05
-3.15528e-05
5.82107e-05
-3.17712e-05
7.4136e-05
-3.18402e-05
9.00054e-05
-3.17333e-05
0.000105548
-3.10806e-05
0.0001208
-3.04976e-05
0.000135395
-2.91824e-05
0.000149429
-2.80602e-05
0.00016248
-2.60939e-05
0.000174688
-2.4408e-05
0.000185618
-2.18529e-05
0.00019541
-1.95757e-05
0.000203685
-1.65477e-05
0.000210584
-1.3791e-05
0.000215791
-1.04099e-05
0.000219445
-7.30272e-06
0.000221345
-3.79472e-06
0.000221573
-4.53163e-07
0.000220165
2.81514e-06
0.000217175
5.98277e-06
0.000212435
9.47687e-06
0.000206214
1.24382e-05
0.00019851
1.54031e-05
0.00018934
1.83362e-05
0.000178918
2.08352e-05
0.000167315
2.32001e-05
0.000154727
2.51652e-05
0.00014123
2.69882e-05
0.000127007
2.84347e-05
0.000112166
2.96748e-05
9.68975e-05
3.05259e-05
8.12772e-05
3.12361e-05
6.54824e-05
3.15801e-05
4.96374e-05
3.16839e-05
3.38483e-05
3.15752e-05
1.82552e-05
3.11759e-05
2.94792e-06
3.06087e-05
-1.19961e-05
2.98816e-05
-2.6462e-05
2.89277e-05
-4.03991e-05
2.78706e-05
-5.37391e-05
2.66775e-05
-6.64331e-05
2.53863e-05
-7.84418e-05
2.40157e-05
-8.9744e-05
2.26031e-05
-0.000100324
2.11593e-05
-0.000110194
1.97406e-05
-0.000119356
1.83237e-05
-0.000127825
1.69394e-05
-0.000135617
1.55839e-05
-0.000142747
1.42615e-05
-0.000149238
1.29836e-05
-0.000155103
1.17321e-05
-0.000160365
1.05249e-05
-0.000165032
9.33564e-06
-0.00016913
8.19761e-06
-0.000172664
7.06725e-06
-0.000175667
6.00774e-06
-0.000178136
4.93906e-06
-0.000180114
3.95743e-06
-0.00018159
2.95247e-06
-0.000182603
2.02133e-06
-0.000183094
9.81845e-07
-0.00018308
-3.21703e-08
-0.000182615
-9.31002e-07
-0.000181602
-2.02748e-06
-0.000180147
-2.91144e-06
-0.000178096
-4.10368e-06
-0.000175606
-4.97993e-06
-0.000172464
-6.28627e-06
-0.000168869
-7.19032e-06
-0.000164597
-8.54476e-06
-0.000159896
-9.40801e-06
-0.000154353
-1.1089e-05
-0.000148408
-1.1887e-05
-0.000141553
-1.37113e-05
-0.000134254
-1.46048e-05
-0.000125949
-1.66193e-05
-0.000117176
-1.75346e-05
-0.000107801
-1.87507e-05
-9.74311e-05
-2.07349e-05
-8.64689e-05
-2.193e-05
-7.45558e-05
-2.38161e-05
-6.20164e-05
-2.50851e-05
-4.86674e-05
-2.66968e-05
-3.46678e-05
-2.79932e-05
-2.00481e-05
-2.92348e-05
-4.8803e-06
-3.03297e-05
1.07235e-05
-3.12011e-05
2.67145e-05
-3.19807e-05
4.29588e-05
-3.24806e-05
5.93062e-05
-3.26769e-05
7.56612e-05
-3.26998e-05
9.18154e-05
-3.23033e-05
0.000107721
-3.18067e-05
0.000123103
-3.07573e-05
0.000137891
-2.95704e-05
0.000152014
-2.82367e-05
0.000165084
-2.6133e-05
0.000177211
-2.42472e-05
0.000188057
-2.16885e-05
0.000197768
-1.94135e-05
0.000206004
-1.64697e-05
0.000212929
-1.38451e-05
0.000218234
-1.06057e-05
0.000222107
-7.74065e-06
0.000224258
-4.29479e-06
0.000224889
-1.25388e-06
0.000223906
1.95936e-06
0.00022131
5.19839e-06
0.000217055
8.51048e-06
0.000211233
1.1644e-05
0.000203757
1.49482e-05
0.00019484
1.7833e-05
0.000184398
2.08787e-05
0.000172598
2.35962e-05
0.000159471
2.62475e-05
0.000144957
2.90454e-05
0.000129291
3.12506e-05
0.000111982
3.4069e-05
9.15859e-05
3.8768e-05
3.90035e-05
6.94208e-05
-0.000119388
-2.24064e-05
-0.00011102
-2.51177e-05
-0.00010186
-2.74821e-05
-9.17451e-05
-3.03428e-05
-8.08527e-05
-3.26757e-05
-6.90195e-05
-3.54914e-05
-5.64461e-05
-3.77083e-05
-4.30168e-05
-4.02726e-05
-2.89565e-05
-4.21551e-05
-1.42044e-05
-4.42295e-05
9.60847e-07
-4.54712e-05
1.68895e-05
-4.77499e-05
3.30702e-05
-4.85099e-05
4.96307e-05
-4.96395e-05
6.61751e-05
-4.95844e-05
8.24737e-05
-4.88426e-05
9.86474e-05
-4.84613e-05
0.000114201
-4.66015e-05
0.000129157
-4.48052e-05
0.000143098
-4.17641e-05
0.000155943
-3.84848e-05
0.000167418
-3.43843e-05
0.000177389
-2.98879e-05
0.00018571
-2.49542e-05
0.000192298
-1.97781e-05
0.000197107
-1.44665e-05
0.000200146
-9.18189e-06
0.000201469
-4.01079e-06
0.000201184
8.43267e-07
0.000199417
5.32691e-06
0.000196296
9.38794e-06
0.000191967
1.2964e-05
0.000186569
1.61606e-05
0.000180223
1.9006e-05
0.000173039
2.15221e-05
0.000165161
2.36093e-05
0.000156645
2.55275e-05
0.000147619
2.70611e-05
0.000138092
2.85703e-05
0.000128176
2.97399e-05
0.00011783
3.10344e-05
0.000107153
3.20273e-05
9.60493e-05
3.33076e-05
8.4628e-05
3.42574e-05
7.27633e-05
3.5586e-05
6.0609e-05
3.645e-05
4.80789e-05
3.75749e-05
3.53601e-05
3.81361e-05
2.24085e-05
3.88327e-05
9.42405e-06
3.8928e-05
-3.60982e-06
3.90761e-05
-1.65994e-05
3.89441e-05
-2.93513e-05
3.82329e-05
-4.18903e-05
3.7596e-05
-5.40452e-05
3.64464e-05
-6.58393e-05
3.53663e-05
-7.71375e-05
3.38808e-05
-8.79595e-05
3.24544e-05
-9.82059e-05
3.07299e-05
-0.000107892
2.90527e-05
-0.000116958
2.7194e-05
-0.000125415
2.5368e-05
-0.000133233
2.34556e-05
-0.000140419
2.15644e-05
-0.000146968
1.96523e-05
-0.000152895
1.77912e-05
-0.000158206
1.59414e-05
-0.000162922
1.41622e-05
-0.000167059
1.24222e-05
-0.000170642
1.07593e-05
-0.00017369
9.15562e-06
-0.000176224
7.61403e-06
-0.000178267
6.13493e-06
-0.000179832
4.70111e-06
-0.000180934
3.29641e-06
-0.000181579
1.91621e-06
-0.000181777
5.77364e-07
-0.000181544
-7.105e-07
-0.000180878
-2.00326e-06
-0.000179752
-3.38185e-06
-0.00017817
-4.75199e-06
-0.000176079
-6.27832e-06
-0.000173507
-7.72374e-06
-0.000170351
-9.47469e-06
-0.000166682
-1.1011e-05
-0.000162376
-1.29229e-05
-0.000157537
-1.45332e-05
-0.000151964
-1.67166e-05
-0.000145925
-1.81237e-05
-0.000139291
-1.99315e-05
-0.000131801
-2.24491e-05
-0.000123777
-2.40723e-05
-0.000114826
-2.68508e-05
-0.000105341
-2.84714e-05
-9.49361e-05
-3.12057e-05
-8.39961e-05
-3.28178e-05
-7.21726e-05
-3.54621e-05
-5.98183e-05
-3.70499e-05
-4.67002e-05
-3.93166e-05
-3.30777e-05
-4.09008e-05
-1.8837e-05
-4.26843e-05
-4.10653e-06
-4.41675e-05
1.10223e-05
-4.53706e-05
2.65073e-05
-4.64403e-05
4.23039e-05
-4.73495e-05
5.82216e-05
-4.76888e-05
7.41633e-05
-4.77819e-05
9.00424e-05
-4.76125e-05
0.000105592
-4.66302e-05
0.000120856
-4.57612e-05
0.000135462
-4.37892e-05
0.00014951
-4.21078e-05
0.000162573
-3.91567e-05
0.000174794
-3.66293e-05
0.000185734
-3.27923e-05
0.000195537
-2.93789e-05
0.00020382
-2.48313e-05
0.00021073
-2.07002e-05
0.00021594
-1.56206e-05
0.000219609
-1.09717e-05
0.000221506
-5.69119e-06
0.00022175
-6.97023e-07
0.000220338
4.22653e-06
0.000217356
8.96511e-06
0.000212611
1.42214e-05
0.000206381
1.86684e-05
0.000198666
2.31185e-05
0.000189487
2.75155e-05
0.000179048
3.12737e-05
0.000167436
3.4812e-05
0.000154828
3.77734e-05
0.000141318
4.04977e-05
0.000127076
4.26772e-05
0.000112217
4.4534e-05
9.69225e-05
4.58202e-05
8.13005e-05
4.6858e-05
6.54883e-05
4.73923e-05
4.96313e-05
4.75409e-05
3.38367e-05
4.73698e-05
1.82247e-05
4.67878e-05
2.90631e-06
4.59271e-05
-1.20491e-05
4.4837e-05
-2.65224e-05
4.3401e-05
-4.04658e-05
4.1814e-05
-5.38101e-05
4.00218e-05
-6.65067e-05
3.80829e-05
-7.85182e-05
3.60272e-05
-8.9823e-05
3.39079e-05
-0.000100403
3.17393e-05
-0.000110271
2.96092e-05
-0.000119431
2.7483e-05
-0.000127897
2.54059e-05
-0.000135685
2.33719e-05
-0.000142812
2.1388e-05
-0.0001493
1.94713e-05
-0.000155161
1.7594e-05
-0.000160419
1.57827e-05
-0.000165082
1.39987e-05
-0.000169176
1.22915e-05
-0.000172705
1.05962e-05
-0.000175705
9.00701e-06
-0.00017817
7.40462e-06
-0.000180144
5.9317e-06
-0.000181619
4.42679e-06
-0.000182641
3.0439e-06
-0.000183137
1.47773e-06
-0.000183131
-3.84842e-08
-0.000182671
-1.39098e-06
-0.000181659
-3.03946e-06
-0.000180205
-4.3656e-06
-0.000178155
-6.15361e-06
-0.000175667
-7.46814e-06
-0.000172526
-9.42709e-06
-0.000168933
-1.07832e-05
-0.000164659
-1.28191e-05
-0.000159966
-1.41008e-05
-0.000154428
-1.66269e-05
-0.000148481
-1.78339e-05
-0.000141629
-2.05631e-05
-0.000134338
-2.18959e-05
-0.000126044
-2.49133e-05
-0.000117259
-2.63196e-05
-0.000107887
-2.8123e-05
-9.75066e-05
-3.11149e-05
-8.65545e-05
-3.28821e-05
-7.46348e-05
-3.57358e-05
-6.20951e-05
-3.76249e-05
-4.8743e-05
-4.00489e-05
-3.47344e-05
-4.20019e-05
-2.01065e-05
-4.38627e-05
-4.92678e-06
-4.55094e-05
1.06842e-05
-4.68121e-05
2.66855e-05
-4.79819e-05
4.29502e-05
-4.87453e-05
5.93211e-05
-4.90478e-05
7.56935e-05
-4.90722e-05
9.1858e-05
-4.84679e-05
0.000107774
-4.77231e-05
0.000123166
-4.61489e-05
0.000137964
-4.43683e-05
0.000152102
-4.2375e-05
0.000165182
-3.92126e-05
0.000177318
-3.63827e-05
0.000188171
-3.25421e-05
0.00019789
-2.91328e-05
0.000206133
-2.47125e-05
0.000213065
-2.07771e-05
0.000218377
-1.59178e-05
0.000222255
-1.16189e-05
0.00022442
-6.45933e-06
0.000225067
-1.90127e-06
0.000224074
2.95282e-06
0.000221489
7.78376e-06
0.000217234
1.27651e-05
0.000211412
1.74662e-05
0.00020393
2.24297e-05
0.000195017
2.67465e-05
0.000184556
3.13391e-05
0.000172748
3.54046e-05
0.000159608
3.93874e-05
0.000145105
4.35487e-05
0.000129432
4.69239e-05
0.000112436
5.10646e-05
9.42455e-05
5.69585e-05
6.10977e-05
7.21512e-05
-0.000119523
-2.98646e-05
-0.000111159
-3.34822e-05
-0.000102007
-3.66336e-05
-9.18959e-05
-4.04542e-05
-8.09998e-05
-4.35718e-05
-6.91624e-05
-4.73288e-05
-5.65811e-05
-5.02897e-05
-4.31422e-05
-5.37115e-05
-2.90689e-05
-5.62284e-05
-1.42984e-05
-5.90001e-05
8.81667e-07
-6.06513e-05
1.68314e-05
-6.36996e-05
3.30313e-05
-6.47098e-05
4.9617e-05
-6.62253e-05
6.6191e-05
-6.61584e-05
8.25216e-05
-6.51733e-05
9.87316e-05
-6.46713e-05
0.000114322
-6.2192e-05
0.000129316
-5.97989e-05
0.000143291
-5.57397e-05
0.000156169
-5.13622e-05
0.00016767
-4.58852e-05
0.000177659
-3.98771e-05
0.000185989
-3.3284e-05
0.000192574
-2.63637e-05
0.00019737
-1.92623e-05
0.000200384
-1.21958e-05
0.00020168
-5.30697e-06
0.000201378
1.14563e-06
0.000199614
7.09116e-06
0.000196495
1.25064e-05
0.000192147
1.73116e-05
0.000186729
2.1579e-05
0.000180363
2.53717e-05
0.000173162
2.87238e-05
0.000165268
3.15028e-05
0.000156739
3.40562e-05
0.000147704
3.60962e-05
0.00013817
3.81041e-05
0.00012825
3.96599e-05
0.000117901
4.13834e-05
0.000107223
4.27061e-05
9.61162e-05
4.4414e-05
8.46913e-05
4.56823e-05
7.28216e-05
4.74557e-05
6.066e-05
4.86116e-05
4.81205e-05
5.01144e-05
3.53897e-05
5.08669e-05
2.2425e-05
5.17974e-05
9.42535e-06
5.19277e-05
-3.62393e-06
5.21254e-05
-1.66285e-05
5.19487e-05
-2.93944e-05
5.09988e-05
-4.1946e-05
5.01476e-05
-5.4112e-05
4.86124e-05
-6.59158e-05
4.71702e-05
-7.72223e-05
4.51872e-05
-8.80514e-05
4.32835e-05
-9.83034e-05
4.09819e-05
-0.000107994
3.87434e-05
-0.000117062
3.62621e-05
-0.00012552
3.38254e-05
-0.000133337
3.1273e-05
-0.000140521
2.8749e-05
-0.000147067
2.61977e-05
-0.00015299
2.37142e-05
-0.000158295
2.12467e-05
-0.000163006
1.88732e-05
-0.000167137
1.65528e-05
-0.000170713
1.43356e-05
-0.000173755
1.21978e-05
-0.000176285
1.01433e-05
-0.000178322
8.1727e-06
-0.000179885
6.2639e-06
-0.00018099
4.40098e-06
-0.000181643
2.56986e-06
-0.000181849
7.82816e-07
-0.00018162
-9.39376e-07
-0.000180956
-2.66689e-06
-0.000179833
-4.50491e-06
-0.000178254
-6.33142e-06
-0.000176166
-8.36605e-06
-0.000173597
-1.02931e-05
-0.000170444
-1.26271e-05
-0.000166779
-1.46761e-05
-0.000162476
-1.72257e-05
-0.000157645
-1.93647e-05
-0.000152071
-2.22902e-05
-0.000146037
-2.41578e-05
-0.000139414
-2.6555e-05
-0.000131915
-2.99476e-05
-0.000123885
-3.21023e-05
-0.00011494
-3.57962e-05
-0.000105481
-3.79304e-05
-9.50544e-05
-4.16321e-05
-8.41126e-05
-4.37596e-05
-7.22843e-05
-4.72904e-05
-5.99226e-05
-4.94116e-05
-4.68002e-05
-5.2439e-05
-3.31733e-05
-5.45278e-05
-1.89097e-05
-5.69479e-05
-4.17114e-06
-5.8906e-05
1.09653e-05
-6.0507e-05
2.64658e-05
-6.19408e-05
4.22834e-05
-6.31671e-05
5.82217e-05
-6.36271e-05
7.41862e-05
-6.37464e-05
9.00886e-05
-6.35149e-05
0.000105658
-6.21997e-05
0.000120946
-6.10492e-05
0.000135574
-5.8417e-05
0.000149644
-5.61784e-05
0.000162727
-5.22391e-05
0.00017497
-4.8873e-05
0.000185926
-4.3748e-05
0.000195749
-3.92016e-05
0.000204045
-3.31271e-05
0.000210969
-2.76246e-05
0.000216187
-2.0839e-05
0.00021987
-1.46546e-05
0.000221762
-7.58312e-06
0.00022203
-9.64871e-07
0.000220602
5.65415e-06
0.000217629
1.1939e-05
0.000212875
1.89749e-05
0.000206631
2.49125e-05
0.000198899
3.08505e-05
0.000189704
3.671e-05
0.000179242
4.17358e-05
0.000167614
4.64405e-05
0.000154978
5.04094e-05
0.000141447
5.40279e-05
0.000127178
5.69467e-05
0.000112294
5.94184e-05
9.69743e-05
6.11395e-05
8.13329e-05
6.24994e-05
6.54965e-05
6.32288e-05
4.96185e-05
6.34189e-05
3.38115e-05
6.31767e-05
1.81759e-05
6.24234e-05
2.8397e-06
6.12634e-05
-1.21292e-05
5.98059e-05
-2.66133e-05
5.7885e-05
-4.05663e-05
5.5767e-05
-5.39171e-05
5.33727e-05
-6.66178e-05
5.07835e-05
-7.86332e-05
4.80426e-05
-8.99418e-05
4.52165e-05
-0.000100521
4.23188e-05
-0.000110388
3.94753e-05
-0.000119544
3.66391e-05
-0.000128006
3.38685e-05
-0.000135791
3.11564e-05
-0.000142913
2.851e-05
-0.000149396
2.59543e-05
-0.000155253
2.34514e-05
-0.000160506
2.10359e-05
-0.000165165
1.86573e-05
-0.000169254
1.63804e-05
-0.000172778
1.41203e-05
-0.000175772
1.20012e-05
-0.000178233
9.86598e-06
-0.000180206
7.90461e-06
-0.000181675
5.89557e-06
-0.000182708
4.07678e-06
-0.000183212
1.98204e-06
-0.000183212
-3.81403e-08
-0.000182755
-1.84864e-06
-0.000181744
-4.04984e-06
-0.000180292
-5.81813e-06
-0.000178244
-8.20145e-06
-0.000175758
-9.95445e-06
-0.000172619
-1.25655e-05
-0.000169029
-1.43738e-05
-0.000164752
-1.70955e-05
-0.000160069
-1.87841e-05
-0.000154538
-2.21575e-05
-0.00014859
-2.37821e-05
-0.000141743
-2.74108e-05
-0.00013446
-2.91788e-05
-0.000126178
-3.31947e-05
-0.000117378
-3.51199e-05
-0.000108015
-3.74862e-05
-9.76355e-05
-4.14942e-05
-8.66834e-05
-4.38343e-05
-7.47595e-05
-4.76596e-05
-6.22131e-05
-5.01713e-05
-4.88534e-05
-5.34086e-05
-3.48345e-05
-5.60207e-05
-2.01939e-05
-5.85033e-05
-4.99725e-06
-6.0706e-05
1.06245e-05
-6.24338e-05
2.66466e-05
-6.4004e-05
4.29346e-05
-6.50333e-05
5.93271e-05
-6.54403e-05
7.57264e-05
-6.54715e-05
9.19143e-05
-6.46559e-05
0.000107856
-6.36645e-05
0.000123267
-6.15603e-05
0.000138084
-5.9185e-05
0.000152248
-5.65393e-05
0.000165342
-5.23067e-05
0.000177495
-4.85353e-05
0.000188361
-4.34086e-05
0.000198096
-3.8868e-05
0.000206348
-3.29638e-05
0.000213291
-2.77207e-05
0.000218613
-2.12396e-05
0.000222495
-1.55004e-05
0.000224679
-8.64395e-06
0.000225342
-2.56419e-06
0.000224327
3.96752e-06
0.000221757
1.03539e-05
0.000217501
1.7021e-05
0.000211676
2.32911e-05
0.000204188
2.99183e-05
0.000195273
3.56609e-05
0.000184793
4.18199e-05
0.000172981
4.72159e-05
0.000159814
5.25549e-05
0.000145316
5.8046e-05
0.000129649
6.25915e-05
0.00011262
6.80935e-05
9.42292e-05
7.53493e-05
8.09883e-05
7.43386e-05
-0.000119706
-3.73135e-05
-0.000111349
-4.18394e-05
-0.000102204
-4.57787e-05
-9.20963e-05
-5.05618e-05
-8.11976e-05
-5.44705e-05
-6.93534e-05
-5.91731e-05
-5.67619e-05
-6.28811e-05
-4.33089e-05
-6.71646e-05
-2.92182e-05
-7.03191e-05
-1.44227e-05
-7.37956e-05
7.77904e-07
-7.58518e-05
1.6754e-05
-7.96757e-05
3.2979e-05
-8.09348e-05
4.95985e-05
-8.28447e-05
6.62118e-05
-8.27717e-05
8.25853e-05
-8.15468e-05
9.88438e-05
-8.09298e-05
0.000114483
-7.78316e-05
0.000129528
-7.48435e-05
0.000143551
-6.97626e-05
0.000156472
-6.42831e-05
0.000168009
-5.74222e-05
0.000178025
-4.98931e-05
0.000186372
-4.16306e-05
0.000192962
-3.29546e-05
0.000197754
-2.40534e-05
0.000200753
-1.5195e-05
0.000202026
-6.57997e-06
0.000201694
1.47711e-06
0.000199904
8.8809e-06
0.000196763
1.56474e-05
0.000192389
2.16862e-05
0.000186943
2.70252e-05
0.00018055
3.1764e-05
0.000173325
3.59495e-05
0.000165411
3.94168e-05
0.000156865
4.26019e-05
0.000147818
4.51438e-05
0.000138275
4.7647e-05
0.000128349
4.95857e-05
0.000117996
5.17359e-05
0.000107315
5.33876e-05
9.62053e-05
5.55237e-05
8.47757e-05
5.71119e-05
7.28996e-05
5.93318e-05
6.07282e-05
6.0783e-05
4.81763e-05
6.26663e-05
3.54294e-05
6.36138e-05
2.2447e-05
6.47797e-05
9.42711e-06
6.49476e-05
-3.64276e-06
6.51953e-05
-1.66674e-05
6.49734e-05
-2.94519e-05
6.37833e-05
-4.20204e-05
6.27161e-05
-5.42012e-05
6.07932e-05
-6.6018e-05
5.8987e-05
-7.73356e-05
5.65048e-05
-8.8174e-05
5.4122e-05
-9.84336e-05
5.12415e-05
-0.00010813
4.84399e-05
-0.000117202
4.53338e-05
-0.000125661
4.22849e-05
-0.000133479
3.90906e-05
-0.000140662
3.59321e-05
-0.000147205
3.27405e-05
-0.000153124
2.96333e-05
-0.000158424
2.65473e-05
-0.00016313
2.35788e-05
-0.000167255
2.06776e-05
-0.000170825
1.7906e-05
-0.000173862
1.52343e-05
-0.000176386
1.26674e-05
-0.00017842
1.02064e-05
-0.00017998
7.82395e-06
-0.000181085
5.50625e-06
-0.000181741
3.22597e-06
-0.000181948
9.90105e-07
-0.000181722
-1.16604e-06
-0.000181061
-3.32756e-06
-0.000179941
-5.62453e-06
-0.000178366
-7.90709e-06
-0.000176282
-1.04496e-05
-0.000173717
-1.28581e-05
-0.000170569
-1.57748e-05
-0.000166909
-1.83368e-05
-0.00016261
-2.15243e-05
-0.000157787
-2.41876e-05
-0.000152214
-2.78634e-05
-0.000146198
-3.01735e-05
-0.000139571
-3.31821e-05
-0.000132062
-3.74568e-05
-0.000124047
-4.01173e-05
-0.000115101
-4.4742e-05
-0.000105652
-4.73795e-05
-9.52124e-05
-5.20719e-05
-8.42667e-05
-5.47054e-05
-7.24331e-05
-5.9124e-05
-6.00794e-05
-6.17652e-05
-4.69323e-05
-6.55861e-05
-3.32952e-05
-6.81648e-05
-1.90062e-05
-7.12369e-05
-4.28755e-06
-7.36247e-05
1.08886e-05
-7.56832e-05
2.64126e-05
-7.74647e-05
4.2254e-05
-7.90085e-05
5.82138e-05
-7.95869e-05
7.42072e-05
-7.97398e-05
9.0141e-05
-7.94486e-05
0.000105744
-7.78025e-05
0.000121067
-7.63719e-05
0.000135727
-7.30778e-05
0.000149832
-7.02827e-05
0.000162945
-6.53528e-05
0.000175222
-6.11493e-05
0.000186204
-5.47307e-05
0.000196055
-4.90522e-05
0.000204371
-4.14436e-05
0.000211315
-3.45685e-05
0.000216548
-2.60716e-05
0.000220239
-1.83456e-05
0.000222135
-9.47899e-06
0.000222421
-1.25078e-06
0.000220968
7.10664e-06
0.000217994
1.49127e-05
0.000213227
2.37422e-05
0.000206964
3.11757e-05
0.000199209
3.86052e-05
0.000189992
4.59274e-05
0.000179501
5.22272e-05
0.000167846
5.80947e-05
0.000155177
6.30792e-05
0.000141615
6.75892e-05
0.000127314
7.12481e-05
0.000112397
7.43358e-05
9.70467e-05
7.64893e-05
8.13715e-05
7.81746e-05
6.55072e-05
7.90931e-05
4.95933e-05
7.93328e-05
3.37716e-05
7.89984e-05
1.81059e-05
7.80892e-05
2.73981e-06
7.66294e-05
-1.22364e-05
7.47822e-05
-2.67348e-05
7.23835e-05
-4.07009e-05
6.9733e-05
-5.40618e-05
6.67335e-05
-6.67693e-05
6.34911e-05
-7.87889e-05
6.00622e-05
-9.00994e-05
5.65269e-05
-0.000100679
5.28986e-05
-0.000110545
4.93409e-05
-0.000119698
4.57924e-05
-0.000128156
4.23266e-05
-0.000135936
3.89365e-05
-0.000143053
3.56272e-05
-0.000149532
3.24329e-05
-0.000155385
2.93048e-05
-0.000160634
2.62849e-05
-0.000165289
2.33115e-05
-0.000169373
2.04649e-05
-0.000172892
1.76392e-05
-0.000175882
1.49908e-05
-0.000178339
1.23231e-05
-0.000180312
9.87765e-06
-0.000181778
7.36142e-06
-0.000182812
5.11084e-06
-0.000183321
2.49164e-06
-0.000183323
-3.62946e-08
-0.000182867
-2.30513e-06
-0.000181858
-5.05826e-06
-0.000180408
-7.26851e-06
-0.000178363
-1.02465e-05
-0.000175879
-1.24382e-05
-0.000172744
-1.57007e-05
-0.000169157
-1.79611e-05
-0.000164878
-2.1374e-05
-0.000160202
-2.34602e-05
-0.000154682
-2.76779e-05
-0.000148736
-2.97278e-05
-0.000141893
-3.42537e-05
-0.000134612
-3.64601e-05
-0.000126349
-4.14574e-05
-0.000117536
-4.39329e-05
-0.000108207
-4.6815e-05
-9.78071e-05
-5.18943e-05
-8.68548e-05
-5.47866e-05
-7.49254e-05
-5.95891e-05
-6.23694e-05
-6.27272e-05
-4.89853e-05
-6.67927e-05
-3.49675e-05
-7.00385e-05
-2.03098e-05
-7.3161e-05
-5.09097e-06
-7.59248e-05
1.05457e-05
-7.80705e-05
2.65951e-05
-8.00534e-05
4.29112e-05
-8.13495e-05
5.93308e-05
-8.18599e-05
7.57616e-05
-8.19023e-05
9.19823e-05
-8.08766e-05
0.000107959
-7.96416e-05
0.000123401
-7.70017e-05
0.000138252
-7.40365e-05
0.000152449
-7.07358e-05
0.000165567
-6.54245e-05
0.000177747
-6.07157e-05
0.000188637
-5.42981e-05
0.000198394
-4.86258e-05
0.000206659
-4.1229e-05
0.000213622
-3.46833e-05
0.000218952
-2.65696e-05
0.000222846
-1.93939e-05
0.000225043
-1.08415e-05
0.000225717
-3.23832e-06
0.000224677
5.00753e-06
0.000222118
1.29135e-05
0.000217854
2.12845e-05
0.000212024
2.91212e-05
0.00020453
3.74119e-05
0.000195607
4.45846e-05
0.000185106
5.23202e-05
0.000173284
5.90385e-05
0.000160096
6.57424e-05
0.000145597
7.25451e-05
0.000129929
7.82597e-05
0.000113064
8.49588e-05
9.57667e-05
9.26462e-05
0.000100401
7.63544e-05
-0.000119936
-4.47499e-05
-0.000111589
-5.01867e-05
-0.000102449
-5.49183e-05
-9.23457e-05
-6.06655e-05
-8.14443e-05
-6.53719e-05
-6.95917e-05
-7.10256e-05
-5.69879e-05
-7.5485e-05
-4.35165e-05
-8.06359e-05
-2.9404e-05
-8.44316e-05
-1.45809e-05
-8.86187e-05
6.51667e-07
-9.10844e-05
1.66573e-05
-9.56813e-05
3.29129e-05
-9.71904e-05
4.95745e-05
-9.95064e-05
6.62372e-05
-9.94344e-05
8.26645e-05
-9.79741e-05
9.89839e-05
-9.72492e-05
0.000114685
-9.35326e-05
0.000129793
-8.9952e-05
0.000143876
-8.38452e-05
0.000156852
-7.7259e-05
0.000168435
-6.9005e-05
0.000178485
-5.99439e-05
0.000186854
-4.99996e-05
0.000193454
-3.95545e-05
0.000198242
-2.8841e-05
0.000201227
-1.81807e-05
0.000202477
-7.82915e-06
0.000202113
1.841e-06
0.000200283
1.07105e-05
0.000197102
1.8829e-05
0.000192691
2.60967e-05
0.00018721
3.25066e-05
0.000180784
3.81893e-05
0.000173529
4.32051e-05
0.000165589
4.73564e-05
0.000157023
5.11682e-05
0.000147959
5.42075e-05
0.000138405
5.72011e-05
0.000128472
5.95186e-05
0.000118115
6.20928e-05
0.00010743
6.40722e-05
9.63168e-05
6.66371e-05
8.48814e-05
6.85473e-05
7.29972e-05
7.1216e-05
6.08137e-05
7.29665e-05
4.82463e-05
7.52337e-05
3.54792e-05
7.63809e-05
2.24747e-05
7.77842e-05