/*--------------------------------*- C++ -*----------------------------------*\
| =========                 |                                                 |
| \\      /  F ield         | OpenFOAM: The Open Source CFD Toolbox           |
|  \\    /   O peration     | Version:  3.0.1                                 |
|   \\  /    A nd           | Web:      www.OpenFOAM.org                      |
|    \\/     M anipulation  |                                                 |
\*---------------------------------------------------------------------------*/
FoamFile
{
    version     2.0;
    format      ascii;
    class       volScalarField;
    location    "25.8";
    object      p;
}
// * * * * * * * * * * * * * * * * * * * * * * * * * * * * * * * * * * * * * //

dimensions      [1 -1 -2 0 0 0 0];

internalField   nonuniform List<scalar> 
21420
(
3552.18
3546.22
3541.67
3538.53
3536.82
3536.54
3537.63
3540.14
3544.1
3549.51
3556.42
3564.86
3574.89
3586.54
3599.88
3614.95
3631.8
3650.46
3670.96
3693.29
3717.44
3743.36
3770.99
3800.23
3830.95
3862.98
3896.08
3929.98
3964.41
3998.99
4033.34
4067.09
4099.81
4131.08
4160.46
4187.54
4211.94
4233.33
4251.37
4265.82
4276.48
4283.18
4285.82
4284.08
4278.26
4268.48
4254.82
4237.54
4216.88
4193.11
4166.6
4137.7
4106.83
4074.38
4040.77
4006.41
3971.71
3937.04
3902.78
3869.9
3837.49
3806.23
3776.37
3748.05
3721.41
3696.54
3673.48
3652.25
3632.86
3615.27
3599.48
3585.44
3573.09
3562.41
3553.35
3545.87
3539.99
3535.64
3532.85
3531.65
3532.01
3533.9
3537.38
3542.43
3549.06
3557.28
3567.1
3578.5
3591.48
3606.06
3622.22
3639.97
3659.33
3680.28
3702.81
3726.9
3752.52
3779.59
3808.02
3837.67
3868.38
3900.03
3932.21
3964.74
3997.3
4029.58
4061.23
4091.9
4121.22
4148.83
4174.38
4197.5
4217.87
4235.17
4249.12
4259.48
4266.04
4268.63
4267.18
4261.65
4252.11
4238.6
4221.32
4200.49
4176.41
4149.41
4119.89
4088.27
4054.98
4020.48
3985.22
3949.64
3914.17
3879.21
3845.1
3812.18
3780.7
3750.91
3722.97
3697
3673.09
3651.28
3631.58
3613.93
3598.3
3584.61
3572.76
3562.65
3554.17
3547.24
3541.76
3537.64
3534.81
3533.24
3532.9
3533.73
3535.75
3538.95
3543.36
3548.99
3555.88
3564.07
3573.6
3584.54
3596.93
3610.83
3626.3
3643.37
3662.09
3682.49
3704.58
3728.34
3753.75
3780.74
3809.18
3838.9
3870.33
3902.07
3934.45
3967.12
3999.69
4031.77
4062.93
4092.76
4120.83
4146.71
4170.02
4190.38
4207.47
4221
4230.74
4236.52
4238.2
4235.79
4229.29
4218.84
4204.53
4186.62
4165.38
4141.13
4114.23
4085.08
4054.09
4021.69
3988.3
3954.35
3920.22
3886.3
3852.9
3820.33
3788.82
3758.59
3729.79
3702.57
3677
3653.16
3631.09
3610.8
3592.32
3575.61
3560.67
3547.47
3535.97
3526.14
3517.92
3511.27
3506.15
3502.49
3500.29
3499.51
3500.08
3502
3505.24
3509.81
3515.71
3522.94
3531.52
3541.48
3552.86
3565.68
3579.98
3595.8
3613.17
3632.13
3652.67
3674.8
3698.49
3723.67
3750.28
3778.21
3807.45
3837.53
3868.38
3899.75
3931.38
3962.95
3994.12
4024.53
4053.8
4081.53
4107.34
4130.85
4151.69
4169.53
4184.06
4195.04
4202.26
4205.56
4204.85
4200.16
4191.54
4179.03
4162.86
4143.25
4120.5
4094.94
4066.96
4036.99
4005.44
3972.74
3939.34
3905.66
3872.08
3838.97
3806.64
3775.1
3744.65
3715.88
3688.81
3663.5
3639.94
3618.15
3598.12
3579.81
3563.23
3548.31
3535.05
3523.43
3513.42
3505.02
3498.23
3493.05
3489.5
3487.49
3487.04
3488.3
3491.05
3495.32
3501.12
3508.47
3517.38
3527.83
3539.85
3553.43
3568.57
3585.27
3603.54
3623.37
3644.76
3667.73
3692.23
3718.24
3745.76
3774.67
3804.81
3836.02
3868.4
3901.74
3935.71
3970
4004.29
4038.17
4071.2
4102.94
4132.92
4160.65
4185.65
4207.49
4225.79
4240.21
4250.48
4256.4
4257.72
4254.55
4246.87
4234.82
4218.64
4198.62
4175.12
4148.61
4119.54
4088.46
4055.88
4022.38
3988.69
3955.47
3923.81
3454.02
3448.06
3443.52
3440.37
3438.66
3438.39
3439.47
3441.99
3445.94
3451.35
3458.26
3466.7
3476.72
3488.37
3501.71
3516.77
3533.62
3552.29
3572.78
3595.11
3619.26
3645.18
3672.81
3702.06
3732.78
3764.81
3797.92
3831.83
3866.28
3900.87
3935.24
3969.01
4001.74
4033.03
4062.43
4089.52
4113.95
4135.35
4153.41
4167.87
4178.53
4185.24
4187.9
4186.14
4180.31
4170.52
4156.86
4139.56
4118.89
4095.1
4068.57
4039.66
4008.76
3976.3
3942.67
3908.3
3873.59
3838.9
3804.63
3771.74
3739.32
3708.06
3678.19
3649.87
3623.23
3598.36
3575.29
3554.06
3534.68
3517.1
3501.31
3487.27
3474.92
3464.24
3455.18
3447.71
3441.83
3437.48
3434.69
3433.49
3433.85
3435.74
3439.22
3444.27
3450.89
3459.12
3468.93
3480.33
3493.31
3507.89
3524.05
3541.8
3561.16
3582.11
3604.64
3628.73
3654.35
3681.42
3709.85
3739.51
3770.23
3801.88
3834.07
3866.61
3899.19
3931.48
3963.15
3993.83
4023.17
4050.8
4076.36
4099.5
4119.88
4137.19
4151.16
4161.53
4168.1
4170.69
4169.24
4163.71
4154.16
4140.64
4123.35
4102.5
4078.4
4051.39
4021.85
3990.21
3956.9
3922.38
3887.1
3851.51
3816.03
3781.05
3746.93
3714
3682.52
3652.72
3624.77
3598.81
3574.9
3553.09
3533.39
3515.75
3500.12
3486.43
3474.58
3464.48
3456.01
3449.08
3443.61
3439.49
3436.66
3435.09
3434.75
3435.59
3437.6
3440.8
3445.21
3450.84
3457.72
3465.91
3475.44
3486.38
3498.77
3512.67
3528.13
3545.2
3563.92
3584.31
3606.4
3630.16
3655.57
3682.56
3711.01
3740.75
3772.16
3803.91
3836.31
3869
3901.58
3933.68
3964.86
3994.71
4022.79
4048.7
4072.02
4092.4
4109.5
4123.05
4132.8
4138.58
4140.27
4137.84
4131.34
4120.88
4106.57
4088.64
4067.39
4043.12
4016.2
3987.03
3956.02
3923.6
3890.2
3856.23
3822.09
3788.15
3754.74
3722.16
3690.65
3660.41
3631.62
3604.39
3578.82
3554.98
3532.91
3512.63
3494.14
3477.44
3462.5
3449.3
3437.8
3427.97
3419.75
3413.11
3407.99
3404.34
3402.13
3401.36
3401.93
3403.84
3407.09
3411.66
3417.55
3424.78
3433.37
3443.32
3454.69
3467.51
3481.81
3497.63
3515
3533.96
3554.5
3576.63
3600.32
3625.5
3652.11
3680.05
3709.29
3739.38
3770.23
3801.62
3833.26
3864.84
3896.03
3926.45
3955.74
3983.49
4009.32
4032.84
4053.7
4071.55
4086.1
4097.08
4104.31
4107.62
4106.9
4102.21
4093.59
4081.07
4064.88
4045.26
4022.49
3996.92
3968.92
3938.93
3907.36
3874.64
3841.23
3807.53
3773.94
3740.81
3708.48
3676.93
3646.47
3617.7
3590.63
3565.31
3541.76
3519.97
3499.94
3481.64
3465.05
3450.14
3436.88
3425.26
3415.25
3406.86
3400.07
3394.89
3391.33
3389.32
3388.88
3390.14
3392.89
3397.16
3402.96
3410.3
3419.21
3429.67
3441.68
3455.26
3470.4
3487.11
3505.37
3525.2
3546.59
3569.56
3594.05
3620.07
3647.59
3676.5
3706.65
3737.86
3770.24
3803.59
3837.57
3871.87
3906.18
3940.08
3973.12
4004.89
4034.88
4062.63
4087.66
4109.52
4127.83
4142.27
4152.55
4158.47
4159.81
4156.62
4148.94
4136.88
4120.68
4100.64
4077.12
4050.59
4021.49
3990.39
3957.79
3924.27
3890.56
3857.33
3825.66
3355.8
3349.85
3345.31
3342.16
3340.45
3340.18
3341.26
3343.77
3347.73
3353.13
3360.04
3368.47
3378.49
3390.14
3403.46
3418.52
3435.37
3454.03
3474.51
3496.84
3520.99
3546.91
3574.55
3603.8
3634.53
3666.58
3699.71
3733.64
3768.11
3802.73
3837.13
3870.93
3903.7
3935.03
3964.47
3991.6
4016.06
4037.49
4055.57
4070.06
4080.73
4087.46
4090.14
4088.34
4082.51
4072.71
4059.03
4041.71
4021
3997.19
3970.62
3941.67
3910.74
3878.24
3844.57
3810.17
3775.43
3740.72
3706.42
3673.51
3641.08
3609.81
3579.93
3551.61
3524.96
3500.09
3477.03
3455.8
3436.42
3418.85
3403.06
3389.02
3376.68
3366.01
3356.95
3349.48
3343.6
3339.26
3336.46
3335.27
3335.62
3337.51
3340.99
3346.04
3352.67
3360.89
3370.7
3382.1
3395.08
3409.65
3425.81
3443.56
3462.91
3483.86
3506.39
3530.49
3556.1
3583.18
3611.62
3641.28
3672.02
3703.69
3735.9
3768.46
3801.06
3833.38
3865.08
3895.79
3925.16
3952.82
3978.41
4001.59
4022
4039.34
4053.33
4063.72
4070.31
4072.92
4071.45
4065.92
4056.36
4042.83
4025.51
4004.63
3980.5
3953.45
3923.87
3892.19
3858.84
3824.28
3788.97
3753.34
3717.83
3682.83
3648.69
3615.74
3584.25
3554.44
3526.49
3500.52
3476.61
3454.81
3435.11
3417.48
3401.86
3388.18
3376.34
3366.25
3357.79
3350.87
3345.4
3341.29
3338.46
3336.9
3336.56
3337.39
3339.41
3342.61
3347.01
3352.64
3359.52
3367.7
3377.23
3388.16
3400.54
3414.43
3429.89
3446.96
3465.67
3486.06
3508.14
3531.91
3557.32
3584.31
3612.78
3642.54
3673.92
3705.71
3738.14
3770.85
3803.47
3835.6
3866.82
3896.7
3924.82
3950.76
3974.12
3994.54
4011.67
4025.23
4035
4040.8
4042.5
4040.06
4033.55
4023.07
4008.74
3990.79
3969.5
3945.2
3918.24
3889.03
3857.98
3825.53
3792.09
3758.09
3723.92
3689.96
3656.53
3623.94
3592.41
3562.16
3533.36
3506.13
3480.56
3456.72
3434.65
3414.37
3395.89
3379.19
3364.26
3351.06
3339.57
3329.74
3321.53
3314.89
3309.77
3306.12
3303.92
3303.15
3303.72
3305.64
3308.88
3313.45
3319.34
3326.57
3335.15
3345.11
3356.47
3369.29
3383.58
3399.4
3416.76
3435.71
3456.26
3478.38
3502.07
3527.26
3553.88
3581.82
3611.08
3641.17
3672.04
3703.45
3735.11
3766.72
3797.94
3828.4
3857.71
3885.5
3911.36
3934.92
3955.81
3973.7
3988.26
3999.27
4006.51
4009.84
4009.11
4004.41
3995.78
3983.25
3967.03
3947.39
3924.58
3898.97
3870.94
3840.91
3809.3
3776.55
3743.1
3709.38
3675.76
3642.61
3610.25
3578.68
3548.22
3519.43
3492.36
3467.05
3443.5
3421.71
3401.69
3383.39
3366.81
3351.9
3338.65
3327.03
3317.02
3308.63
3301.84
3296.66
3293.1
3291.09
3290.66
3291.91
3294.66
3298.93
3304.73
3312.08
3320.98
3331.44
3343.45
3357.03
3372.17
3388.87
3407.14
3426.96
3448.35
3471.31
3495.81
3521.83
3549.34
3578.26
3608.42
3639.64
3672.03
3705.39
3739.4
3773.72
3808.06
3841.99
3875.08
3906.88
3936.92
3964.71
3989.78
4011.67
4030.02
4044.49
4054.79
4060.72
4062.08
4058.86
4051.17
4039.09
4022.86
4002.78
3979.22
3952.64
3923.5
3892.36
3859.71
3826.15
3792.4
3759.13
3727.44
3257.52
3251.57
3247.04
3243.9
3242.19
3241.91
3242.99
3245.5
3249.45
3254.86
3261.75
3270.18
3280.19
3291.83
3305.15
3320.2
3337.04
3355.69
3376.17
3398.5
3422.64
3448.57
3476.21
3505.47
3536.22
3568.28
3601.43
3635.4
3669.91
3704.58
3739.02
3772.87
3805.7
3837.08
3866.57
3893.76
3918.27
3939.75
3957.87
3972.39
3983.09
3989.83
3992.55
3990.71
3984.87
3975.05
3961.34
3943.98
3923.23
3899.36
3872.74
3843.73
3812.75
3780.2
3746.47
3712.02
3677.24
3642.49
3608.17
3575.22
3542.77
3511.48
3481.59
3453.26
3426.61
3401.74
3378.68
3357.46
3338.08
3320.52
3304.74
3290.71
3278.38
3267.71
3258.66
3251.2
3245.31
3240.97
3238.18
3236.99
3237.34
3239.23
3242.7
3247.75
3254.38
3262.6
3272.41
3283.8
3296.78
3311.35
3327.51
3345.25
3364.6
3385.54
3408.07
3432.17
3457.79
3484.87
3513.32
3543
3573.76
3605.45
3637.69
3670.28
3702.92
3735.28
3767.02
3797.78
3827.2
3854.91
3880.55
3903.77
3924.23
3941.62
3955.64
3966.06
3972.67
3975.31
3973.83
3968.29
3958.72
3945.15
3927.8
3906.88
3882.69
3855.59
3825.95
3794.2
3760.8
3726.18
3690.82
3655.15
3619.59
3584.55
3550.38
3517.4
3485.89
3456.07
3428.11
3402.14
3378.24
3356.44
3336.75
3319.13
3303.52
3289.85
3278.03
3267.95
3259.5
3252.6
3247.13
3243.03
3240.21
3238.66
3238.32
3239.15
3241.17
3244.36
3248.76
3254.39
3261.26
3269.44
3278.95
3289.87
3302.25
3316.13
3331.58
3348.64
3367.35
3387.73
3409.81
3433.57
3458.99
3485.99
3514.47
3544.27
3575.62
3607.46
3639.93
3672.68
3705.35
3737.52
3768.8
3798.74
3826.92
3852.91
3876.33
3896.79
3913.96
3927.57
3937.36
3943.18
3944.9
3942.43
3935.91
3925.41
3911.04
3893.05
3871.72
3847.36
3820.35
3791.08
3759.98
3727.47
3693.98
3659.93
3625.72
3591.72
3558.26
3525.65
3494.1
3463.84
3435.03
3407.79
3382.22
3358.38
3336.31
3316.04
3297.56
3280.87
3265.94
3252.75
3241.26
3231.44
3223.24
3216.6
3211.5
3207.85
3205.66
3204.89
3205.46
3207.38
3210.62
3215.19
3221.08
3228.31
3236.88
3246.83
3258.19
3271
3285.29
3301.09
3318.45
3337.4
3357.94
3380.07
3403.76
3428.95
3455.57
3483.52
3512.8
3542.92
3573.81
3605.25
3636.95
3668.6
3699.86
3730.36
3759.73
3787.57
3813.49
3837.1
3858.04
3875.96
3890.57
3901.61
3908.87
3912.21
3911.49
3906.78
3898.12
3885.56
3869.31
3849.62
3826.77
3801.1
3773.02
3742.93
3711.26
3678.46
3644.96
3611.19
3577.53
3544.35
3511.95
3480.36
3449.88
3421.09
3394.02
3368.71
3345.16
3323.38
3303.36
3285.07
3268.5
3253.6
3240.35
3228.73
3218.73
3210.34
3203.55
3198.37
3194.8
3192.79
3192.38
3193.63
3196.38
3200.64
3206.44
3213.79
3222.69
3233.14
3245.16
3258.74
3273.87
3290.57
3308.83
3328.65
3350.04
3373
3397.49
3423.51
3451.03
3479.95
3510.12
3541.35
3573.76
3607.15
3641.18
3675.54
3709.93
3743.91
3777.05
3808.92
3839.02
3866.88
3892.01
3913.96
3932.36
3946.87
3957.2
3963.15
3964.53
3961.28
3953.57
3941.45
3925.18
3905.04
3881.42
3854.78
3825.57
3794.35
3761.63
3728.01
3694.2
3660.89
3629.16
3159.18
3153.24
3148.71
3145.58
3143.87
3143.58
3144.66
3147.18
3151.12
3156.52
3163.41
3171.83
3181.82
3193.45
3206.76
3221.8
3238.63
3257.27
3277.74
3300.07
3324.21
3350.14
3377.79
3407.06
3437.82
3469.92
3503.1
3537.11
3571.67
3606.4
3640.9
3674.82
3707.72
3739.18
3768.75
3796.01
3820.59
3842.13
3860.31
3874.87
3885.6
3892.37
3895.1
3893.25
3887.39
3877.53
3863.78
3846.38
3825.56
3801.63
3774.93
3745.86
3714.8
3682.17
3648.38
3613.86
3579.02
3544.23
3509.86
3476.86
3444.39
3413.07
3383.17
3354.83
3328.18
3303.3
3280.25
3259.04
3239.67
3222.12
3206.35
3192.33
3180.01
3169.35
3160.3
3152.85
3146.96
3142.63
3139.84
3138.65
3138.99
3140.88
3144.35
3149.4
3156.02
3164.24
3174.05
3185.44
3198.41
3212.98
3229.13
3246.88
3266.22
3287.16
3309.68
3333.78
3359.4
3386.49
3414.95
3444.66
3475.44
3507.16
3539.44
3572.08
3604.77
3637.18
3668.98
3699.8
3729.29
3757.06
3782.77
3806.06
3826.58
3844.02
3858.09
3868.55
3875.18
3877.84
3876.37
3870.82
3861.22
3847.62
3830.22
3809.24
3784.98
3757.8
3728.09
3696.26
3662.78
3628.09
3592.65
3556.91
3521.3
3486.21
3452
3418.98
3387.45
3357.61
3329.64
3303.67
3279.77
3257.98
3238.29
3220.69
3205.1
3191.45
3179.65
3169.58
3161.16
3154.26
3148.82
3144.72
3141.91
3140.37
3140.03
3140.86
3142.88
3146.07
3150.47
3156.08
3162.95
3171.12
3180.62
3191.53
3203.9
3217.77
3233.2
3250.25
3268.95
3289.33
3311.4
3335.16
3360.58
3387.59
3416.09
3445.93
3477.26
3509.16
3541.68
3574.49
3607.22
3639.46
3670.81
3700.82
3729.08
3755.15
3778.63
3799.16
3816.4
3830.04
3839.87
3845.71
3847.44
3844.98
3838.44
3827.9
3813.49
3795.44
3774.04
3749.62
3722.53
3693.19
3662.01
3629.42
3595.87
3561.76
3527.49
3493.44
3459.94
3427.29
3395.73
3365.44
3336.62
3309.37
3283.8
3259.96
3237.9
3217.63
3199.16
3182.47
3167.55
3154.37
3142.89
3133.08
3124.88
3118.26
3113.16
3109.52
3107.34
3106.57
3107.15
3109.07
3112.31
3116.88
3122.77
3129.99
3138.56
3148.5
3159.85
3172.65
3186.93
3202.72
3220.08
3239.01
3259.55
3281.67
3305.37
3330.56
3357.2
3385.16
3414.47
3444.61
3475.54
3507.01
3538.76
3570.46
3601.78
3632.35
3661.79
3689.7
3715.68
3739.36
3760.37
3778.35
3793.01
3804.09
3811.38
3814.74
3814.03
3809.3
3800.61
3788.02
3771.72
3751.97
3729.05
3703.31
3675.15
3644.99
3613.25
3580.37
3546.81
3512.97
3479.26
3446.03
3413.59
3381.97
3351.47
3322.67
3295.59
3270.28
3246.74
3224.97
3204.96
3186.68
3170.11
3155.22
3141.98
3130.37
3120.37
3111.98
3105.19
3100.01
3096.44
3094.43
3094.03
3095.28
3098.03
3102.29
3108.09
3115.43
3124.34
3134.79
3146.8
3160.38
3175.51
3192.2
3210.46
3230.28
3251.66
3274.61
3299.11
3325.12
3352.65
3381.57
3411.76
3443
3475.43
3508.85
3542.93
3577.34
3611.78
3645.84
3679.06
3711.01
3741.19
3769.13
3794.35
3816.37
3834.84
3849.4
3859.78
3865.75
3867.16
3863.88
3856.14
3843.98
3827.64
3807.43
3783.72
3756.99
3727.68
3696.38
3663.57
3629.86
3595.98
3562.6
3530.83
3060.79
3054.86
3050.33
3047.2
3045.5
3045.21
3046.28
3048.79
3052.73
3058.12
3065
3073.41
3083.39
3095.01
3108.3
3123.33
3140.14
3158.77
3179.24
3201.56
3225.7
3251.63
3279.28
3308.57
3339.36
3371.48
3404.71
3438.78
3473.4
3508.2
3542.78
3576.79
3609.77
3641.33
3670.99
3698.34
3723.01
3744.63
3762.88
3777.49
3788.27
3795.05
3797.8
3795.95
3790.06
3780.17
3766.37
3748.9
3728.01
3703.99
3677.2
3648.03
3616.88
3584.16
3550.29
3515.69
3480.78
3445.92
3411.49
3378.44
3345.93
3314.59
3284.67
3256.32
3229.66
3204.79
3181.74
3160.53
3141.18
3123.64
3107.88
3093.88
3081.57
3070.92
3061.88
3054.43
3048.55
3044.22
3041.44
3040.24
3040.58
3042.47
3045.93
3050.98
3057.6
3065.82
3075.62
3087.01
3099.98
3114.54
3130.69
3148.43
3167.76
3188.7
3211.22
3235.31
3260.94
3288.04
3316.52
3346.25
3377.06
3408.82
3441.15
3473.85
3506.6
3539.08
3570.96
3601.86
3631.42
3659.28
3685.07
3708.43
3729.03
3746.54
3760.68
3771.19
3777.86
3780.53
3779.08
3773.52
3763.88
3750.23
3732.77
3711.71
3687.37
3660.1
3630.28
3598.36
3564.78
3529.99
3494.47
3458.65
3422.96
3387.81
3353.54
3320.49
3288.92
3259.06
3231.08
3205.1
3181.2
3159.42
3139.75
3122.17
3106.6
3092.98
3081.19
3071.15
3062.75
3055.88
3050.45
3046.37
3043.57
3042.03
3041.69
3042.53
3044.54
3047.73
3052.12
3057.73
3064.59
3072.74
3082.24
3093.13
3105.48
3119.34
3134.76
3151.8
3170.48
3190.84
3212.91
3236.67
3262.09
3289.11
3317.64
3347.52
3378.85
3410.8
3443.39
3476.27
3509.08
3541.41
3572.85
3602.95
3631.31
3657.47
3681.04
3701.65
3718.96
3732.67
3742.54
3748.41
3750.15
3747.68
3741.12
3730.53
3716.06
3697.95
3676.47
3651.96
3624.78
3595.34
3564.07
3531.39
3497.75
3463.56
3429.23
3395.12
3361.57
3328.87
3297.28
3266.97
3238.13
3210.88
3185.3
3161.46
3139.4
3119.14
3100.68
3084
3069.09
3055.92
3044.46
3034.66
3026.47
3019.86
3014.76
3011.14
3008.97
3008.2
3008.78
3010.7
3013.95
3018.51
3024.4
3031.61
3040.18
3050.11
3061.45
3074.24
3088.5
3104.29
3121.63
3140.56
3161.09
3183.21
3206.91
3232.11
3258.75
3286.73
3316.08
3346.25
3377.22
3408.74
3440.55
3472.32
3503.71
3534.36
3563.88
3591.88
3617.96
3641.72
3662.81
3680.86
3695.59
3706.72
3714.04
3717.41
3716.72
3711.98
3703.25
3690.61
3674.26
3654.43
3631.43
3605.6
3577.35
3547.08
3515.25
3482.29
3448.64
3414.73
3380.95
3347.67
3315.17
3283.5
3252.98
3224.16
3197.08
3171.77
3148.23
3126.47
3106.48
3088.21
3071.65
3056.77
3043.54
3031.94
3021.95
3013.56
3006.78
3001.59
2998.02
2996.02
2995.62
2996.88
2999.61
3003.88
3009.67
3017.01
3025.92
3036.36
3048.37
3061.95
3077.08
3093.77
3112.02
3131.83
3153.21
3176.16
3200.65
3226.66
3254.19
3283.11
3313.33
3344.58
3377.05
3410.51
3444.64
3479.11
3513.63
3547.77
3581.09
3613.14
3643.43
3671.48
3696.8
3718.92
3737.46
3752.1
3762.53
3768.53
3769.95
3766.66
3758.88
3746.66
3730.24
3709.93
3686.12
3659.27
3629.85
3598.43
3565.51
3531.7
3497.72
3464.26
3432.43
2962.33
2956.41
2951.89
2948.77
2947.07
2946.78
2947.85
2950.35
2954.29
2959.67
2966.53
2974.93
2984.9
2996.49
3009.77
3024.78
3041.58
3060.19
3080.65
3102.96
3127.1
3153.03
3180.7
3210.01
3240.82
3272.98
3306.27
3340.4
3375.09
3409.98
3444.66
3478.76
3511.86
3543.52
3573.31
3600.77
3625.54
3647.25
3665.58
3680.26
3691.08
3697.9
3700.67
3698.8
3692.89
3682.95
3669.09
3651.54
3630.56
3606.44
3579.55
3550.26
3519
3486.17
3452.19
3417.5
3382.5
3347.56
3313.08
3279.96
3247.41
3216.03
3186.09
3157.72
3131.06
3106.18
3083.14
3061.95
3042.6
3025.08
3009.34
2995.35
2983.06
2972.42
2963.4
2955.96
2950.08
2945.75
2942.97
2941.77
2942.11
2943.99
2947.46
2952.5
2959.12
2967.33
2977.13
2988.52
3001.48
3016.04
3032.18
3049.91
3069.24
3090.16
3112.68
3136.78
3162.41
3189.52
3218.02
3247.78
3278.64
3310.44
3342.83
3375.59
3408.42
3440.98
3472.94
3503.94
3533.6
3561.56
3587.45
3610.91
3631.59
3649.19
3663.4
3673.97
3680.68
3683.38
3681.94
3676.37
3666.69
3652.99
3635.45
3614.3
3589.86
3562.47
3532.54
3500.5
3466.8
3431.9
3396.27
3360.35
3324.57
3289.34
3255.02
3221.91
3190.3
3160.42
3132.42
3106.44
3082.54
3060.77
3041.13
3023.56
3008.02
2994.42
2982.67
2972.66
2964.28
2957.43
2952.02
2947.96
2945.18
2943.65
2943.31
2944.15
2946.16
2949.35
2953.73
2959.33
2966.17
2974.31
2983.79
2994.67
3007
3020.84
3036.25
3053.26
3071.93
3092.29
3114.35
3138.1
3163.52
3190.56
3219.11
3249.04
3280.37
3312.4
3345.06
3378.03
3410.93
3443.36
3474.91
3505.13
3533.6
3559.87
3583.55
3604.26
3621.65
3635.44
3645.37
3651.26
3653.01
3650.55
3643.95
3633.32
3618.78
3600.58
3579.01
3554.39
3527.1
3497.55
3466.16
3433.37
3399.63
3365.35
3330.93
3296.74
3263.13
3230.39
3198.76
3168.43
3139.57
3112.3
3086.72
3062.88
3040.83
3020.57
3002.12
2985.45
2970.56
2957.4
2945.95
2936.16
2927.99
2921.39
2916.31
2912.7
2910.54
2909.77
2910.36
2912.29
2915.53
2920.1
2925.98
2933.19
2941.74
2951.66
2962.99
2975.76
2990.01
3005.78
3023.11
3042.03
3062.55
3084.67
3108.37
3133.58
3160.24
3188.24
3217.63
3247.84
3278.85
3310.44
3342.32
3374.17
3405.65
3436.39
3466.02
3494.12
3520.3
3544.17
3565.35
3583.5
3598.3
3609.49
3616.86
3620.25
3619.57
3614.81
3606.04
3593.35
3576.92
3557.01
3533.9
3507.97
3479.6
3449.22
3417.27
3384.2
3350.45
3316.45
3282.6
3249.25
3216.69
3184.96
3154.4
3125.57
3098.49
3073.18
3049.65
3027.9
3007.92
2989.66
2973.12
2958.26
2945.03
2933.44
2923.46
2915.08
2908.29
2903.11
2899.53
2897.54
2897.15
2898.4
2901.14
2905.4
2911.19
2918.53
2927.43
2937.88
2949.88
2963.46
2978.58
2995.26
3013.51
3033.32
3054.69
3077.63
3102.12
3128.13
3155.66
3184.59
3214.83
3246.1
3278.6
3312.12
3346.31
3380.86
3415.47
3449.71
3483.14
3515.32
3545.74
3573.91
3599.35
3621.59
3640.24
3654.96
3665.45
3671.48
3672.92
3669.63
3661.79
3649.49
3632.99
3612.56
3588.62
3561.63
3532.08
3500.52
3467.46
3433.52
3399.43
3365.88
3333.97
2863.82
2857.91
2853.4
2850.29
2848.59
2848.29
2849.36
2851.86
2855.78
2861.15
2868
2876.38
2886.33
2897.91
2911.16
2926.15
2942.93
2961.53
2981.98
3004.28
3028.43
3054.36
3082.04
3111.36
3142.21
3174.41
3207.76
3241.96
3276.75
3311.73
3346.52
3380.75
3413.98
3445.77
3475.69
3503.28
3528.17
3549.99
3568.42
3583.18
3594.06
3600.9
3603.68
3601.82
3595.88
3585.88
3571.94
3554.31
3533.22
3508.98
3481.96
3452.55
3421.16
3388.2
3354.1
3319.29
3284.19
3249.16
3214.61
3181.41
3148.81
3117.4
3087.42
3059.04
3032.37
3007.5
2984.46
2963.28
2943.95
2926.45
2910.73
2896.76
2884.49
2873.86
2864.85
2857.42
2851.55
2847.22
2844.45
2843.24
2843.57
2845.46
2848.92
2853.96
2860.58
2868.78
2878.58
2889.96
2902.92
2917.46
2933.6
2951.32
2970.64
2991.56
3014.08
3038.17
3063.8
3090.93
3119.46
3149.25
3180.15
3212
3244.46
3277.3
3310.22
3342.88
3374.95
3406.05
3435.83
3463.9
3489.9
3513.48
3534.27
3551.96
3566.26
3576.9
3583.67
3586.4
3584.97
3579.38
3569.66
3555.89
3538.26
3517.01
3492.45
3464.93
3434.86
3402.67
3368.83
3333.8
3298.05
3262.01
3226.14
3190.82
3156.42
3123.25
3091.6
3061.68
3033.67
3007.68
2983.79
2962.04
2942.41
2924.87
2909.36
2895.8
2884.08
2874.1
2865.75
2858.93
2853.54
2849.5
2846.74
2845.21
2844.88
2845.72
2847.73
2850.91
2855.29
2860.87
2867.71
2875.83
2885.29
2896.15
2908.46
2922.28
2937.66
2954.66
2973.31
2993.65
3015.7
3039.45
3064.88
3091.93
3120.51
3150.49
3181.84
3213.95
3246.7
3279.77
3312.77
3345.33
3377
3407.36
3435.95
3462.36
3486.17
3506.99
3524.49
3538.35
3548.34
3554.28
3556.05
3553.58
3546.95
3536.25
3521.63
3503.34
3481.65
3456.91
3429.49
3399.8
3368.28
3335.37
3301.5
3267.11
3232.59
3198.32
3164.64
3131.85
3100.17
3069.8
3040.92
3013.65
2988.06
2964.23
2942.18
2921.93
2903.49
2886.83
2871.95
2858.81
2847.38
2837.61
2829.45
2822.87
2817.8
2814.2
2812.06
2811.3
2811.89
2813.82
2817.07
2821.63
2827.5
2834.7
2843.25
2853.16
2864.47
2877.22
2891.46
2907.21
2924.53
2943.43
2963.94
2986.06
3009.76
3034.99
3061.66
3089.67
3119.13
3149.37
3180.44
3212.1
3244.06
3276
3307.59
3338.45
3368.19
3396.41
3422.72
3446.71
3468.01
3486.26
3501.15
3512.41
3519.83
3523.25
3522.57
3517.8
3508.98
3496.22
3479.71
3459.69
3436.47
3410.41
3381.91
3351.4
3319.32
3286.12
3252.25
3218.14
3184.2
3150.78
3118.14
3086.33
3055.74
3026.9
2999.81
2974.51
2950.99
2929.25
2909.29
2891.05
2874.52
2859.67
2846.46
2834.88
2824.9
2816.53
2809.75
2804.56
2800.98
2798.99
2798.61
2799.87
2802.6
2806.86
2812.65
2819.99
2828.88
2839.33
2851.33
2864.9
2880.02
2896.69
2914.93
2934.73
2956.1
2979.03
3003.51
3029.53
3057.06
3086
3116.27
3147.56
3180.1
3213.67
3247.94
3282.58
3317.29
3351.65
3385.22
3417.54
3448.11
3476.44
3502.02
3524.39
3543.16
3557.98
3568.54
3574.62
3576.07
3572.77
3564.86
3552.49
3535.87
3515.31
3491.22
3464.08
3434.36
3402.63
3369.42
3335.33
3301.11
3267.44
3235.46
2765.24
2759.35
2754.85
2751.74
2750.05
2749.75
2750.81
2753.31
2757.22
2762.58
2769.41
2777.77
2787.7
2799.26
2812.49
2827.46
2844.21
2862.79
2883.23
2905.52
2929.66
2955.6
2983.29
3012.64
3043.52
3075.78
3109.19
3143.48
3178.37
3213.47
3248.39
3282.75
3316.12
3348.07
3378.14
3405.88
3430.91
3452.86
3471.39
3486.24
3497.18
3504.07
3506.84
3504.99
3499.02
3488.96
3474.94
3457.2
3435.99
3411.61
3384.45
3354.89
3323.35
3290.24
3256.01
3221.07
3185.85
3150.72
3116.08
3082.8
3050.14
3018.68
2988.68
2960.28
2933.6
2908.73
2885.7
2864.53
2845.22
2827.74
2812.04
2798.1
2785.84
2775.23
2766.24
2758.82
2752.95
2748.63
2745.86
2744.64
2744.98
2746.86
2750.32
2755.35
2761.97
2770.17
2779.96
2791.34
2804.29
2818.83
2834.95
2852.66
2871.97
2892.88
2915.39
2939.48
2965.13
2992.27
3020.82
3050.66
3081.61
3113.52
3146.06
3178.99
3212.01
3244.78
3276.96
3308.19
3338.1
3366.31
3392.44
3416.14
3437.06
3454.87
3469.26
3479.98
3486.81
3489.57
3488.16
3482.55
3472.78
3458.94
3441.21
3419.83
3395.13
3367.46
3337.23
3304.89
3270.89
3235.71
3199.81
3163.64
3127.65
3092.23
3057.75
3024.51
2992.81
2962.86
2934.83
2908.83
2884.95
2863.21
2843.6
2826.1
2810.62
2797.09
2785.41
2775.47
2767.16
2760.37
2755.01
2750.99
2748.25
2746.73
2746.41
2747.25
2749.26
2752.43
2756.8
2762.37
2769.19
2777.29
2786.73
2797.57
2809.85
2823.65
2839.01
2855.99
2874.62
2894.94
2916.98
2940.72
2966.16
2993.23
3021.84
3051.87
3083.26
3115.45
3148.3
3181.47
3214.61
3247.3
3279.12
3309.62
3338.38
3364.93
3388.88
3409.84
3427.45
3441.41
3451.48
3457.46
3459.24
3456.77
3450.1
3439.33
3424.62
3406.22
3384.4
3359.51
3331.94
3302.11
3270.43
3237.38
3203.37
3168.85
3134.22
3099.86
3066.09
3033.24
3001.51
2971.11
2942.2
2914.91
2889.32
2865.49
2843.44
2823.21
2804.78
2788.14
2773.28
2760.15
2748.74
2738.99
2730.85
2724.28
2719.23
2715.65
2713.51
2712.76
2713.37
2715.3
2718.55
2723.1
2728.97
2736.16
2744.7
2754.59
2765.89
2778.62
2792.84
2808.57
2825.87
2844.76
2865.26
2887.38
2911.08
2936.32
2963.01
2991.04
3020.57
3050.85
3081.99
3113.73
3145.78
3177.83
3209.53
3240.52
3270.4
3298.77
3325.21
3349.34
3370.77
3389.14
3404.14
3415.48
3422.96
3426.41
3425.74
3420.95
3412.08
3399.24
3382.63
3362.49
3339.14
3312.93
3284.28
3253.61
3221.38
3188.04
3154.04
3119.81
3085.76
3052.25
3019.54
2987.62
2957
2928.14
2901.05
2875.76
2852.24
2830.52
2810.57
2792.36
2775.85
2761.02
2747.82
2736.25
2726.29
2717.91
2711.14
2705.96
2702.37
2700.39
2700.01
2701.27
2704
2708.25
2714.04
2721.38
2730.27
2740.71
2752.71
2766.28
2781.39
2798.06
2816.29
2836.08
2857.44
2880.36
2904.84
2930.85
2958.38
2987.35
3017.64
3048.95
3081.53
3115.18
3149.53
3184.27
3219.1
3253.6
3287.32
3319.81
3350.55
3379.05
3404.8
3427.32
3446.22
3461.15
3471.8
3477.94
3479.41
3476.08
3468.11
3455.64
3438.9
3418.19
3393.92
3366.59
3336.69
3304.77
3271.38
3237.13
3202.75
3168.95
3136.87
2666.61
2660.73
2656.24
2653.15
2651.45
2651.15
2652.21
2654.7
2658.6
2663.94
2670.76
2679.1
2689.01
2700.53
2713.74
2728.68
2745.42
2763.97
2784.39
2806.68
2830.81
2856.76
2884.46
2913.84
2944.75
2977.07
3010.56
3044.95
3079.96
3115.18
3150.24
3184.76
3218.3
3250.41
3280.66
3308.56
3333.75
3355.84
3374.5
3389.45
3400.47
3407.39
3410.15
3408.32
3402.32
3392.19
3378.07
3360.22
3338.87
3314.34
3287.02
3257.29
3225.57
3192.31
3157.91
3122.83
3087.48
3052.24
3017.5
2984.12
2951.4
2919.89
2889.85
2861.43
2834.74
2809.87
2786.85
2765.7
2746.41
2728.95
2713.29
2699.36
2687.13
2676.54
2667.56
2660.15
2654.3
2649.98
2647.21
2645.99
2646.32
2648.2
2651.65
2656.68
2663.29
2671.49
2681.27
2692.65
2705.59
2720.12
2736.23
2753.93
2773.23
2794.13
2816.64
2840.73
2866.38
2893.54
2922.12
2952
2983.01
3014.99
3047.62
3080.65
3113.78
3146.68
3178.99
3210.37
3240.42
3268.77
3295.05
3318.9
3339.96
3357.89
3372.4
3383.22
3390.11
3392.91
3391.51
3385.88
3376.05
3362.13
3344.28
3322.77
3297.91
3270.07
3239.67
3207.14
3172.96
3137.61
3101.55
3065.24
3029.11
2993.58
2959
2925.69
2893.93
2863.94
2835.89
2809.89
2786.01
2764.29
2744.71
2727.24
2711.8
2698.31
2686.68
2676.78
2668.51
2661.75
2656.43
2652.43
2649.71
2648.21
2647.89
2648.73
2650.74
2653.91
2658.26
2663.82
2670.62
2678.7
2688.11
2698.92
2711.18
2724.95
2740.29
2757.24
2775.85
2796.15
2818.18
2841.92
2867.35
2894.44
2923.09
2953.18
2984.61
3016.89
3049.85
3083.16
3116.43
3149.28
3181.26
3211.94
3240.86
3267.59
3291.7
3312.81
3330.55
3344.62
3354.77
3360.81
3362.61
3360.12
3353.41
3342.56
3327.75
3309.22
3287.26
3262.21
3234.47
3204.46
3172.62
3139.39
3105.23
3070.57
3035.82
3001.34
2967.49
2934.56
2902.77
2872.33
2843.4
2816.09
2790.5
2766.67
2744.63
2724.41
2705.99
2689.37
2674.53
2661.43
2650.03
2640.3
2632.18
2625.63
2620.6
2617.04
2614.92
2614.18
2614.79
2616.73
2619.98
2624.53
2630.39
2637.57
2646.09
2655.97
2667.25
2679.96
2694.15
2709.87
2727.14
2746.02
2766.51
2788.62
2812.33
2837.58
2864.29
2892.34
2921.94
2952.27
2983.49
3015.31
3047.47
3079.65
3111.48
3142.62
3172.65
3201.17
3227.78
3252.07
3273.64
3292.15
3307.26
3318.7
3326.24
3329.73
3329.07
3324.25
3315.32
3302.4
3285.68
3265.4
3241.9
3215.53
3186.7
3155.87
3123.46
3089.96
3055.8
3021.44
2987.28
2953.67
2920.88
2888.82
2858.18
2829.3
2802.21
2776.92
2753.42
2731.72
2711.79
2693.59
2677.11
2662.29
2649.11
2637.56
2627.6
2619.24
2612.47
2607.28
2603.7
2601.72
2601.34
2602.6
2605.33
2609.59
2615.37
2622.71
2631.6
2642.03
2654.03
2667.59
2682.69
2699.36
2717.58
2737.36
2758.7
2781.62
2806.09
2832.1
2859.64
2888.62
2918.93
2950.27
2982.91
3016.63
3051.07
3085.93
3120.89
3155.55
3189.44
3222.12
3253.05
3281.75
3307.69
3330.38
3349.43
3364.5
3375.24
3381.43
3382.92
3379.58
3371.54
3358.95
3342.06
3321.18
3296.72
3269.19
3239.07
3206.95
3173.35
3138.91
3104.36
3070.41
3038.23
2567.92
2562.06
2557.58
2554.49
2552.8
2552.5
2553.56
2556.03
2559.93
2565.25
2572.05
2580.36
2590.25
2601.74
2614.92
2629.83
2646.54
2665.07
2685.47
2707.75
2731.88
2757.83
2785.55
2814.95
2845.91
2878.29
2911.87
2946.37
2981.51
3016.87
3052.09
3086.78
3120.5
3152.81
3183.24
3211.33
3236.7
3258.95
3277.75
3292.81
3303.9
3310.87
3313.61
3311.81
3305.78
3295.57
3281.35
3263.36
3241.86
3217.16
3189.65
3159.74
3127.84
3094.38
3059.82
3024.57
2989.07
2953.7
2918.86
2885.37
2852.58
2821.02
2790.94
2762.5
2735.8
2710.93
2687.92
2666.79
2647.52
2630.09
2614.45
2600.55
2588.35
2577.78
2568.82
2561.43
2555.58
2551.27
2548.5
2547.28
2547.6
2549.48
2552.92
2557.95
2564.56
2572.75
2582.53
2593.89
2606.83
2621.35
2637.45
2655.14
2674.42
2695.31
2717.81
2741.89
2767.55
2794.74
2823.35
2853.28
2884.35
2916.41
2949.14
2982.28
3015.54
3048.57
3081.04
3112.57
3142.78
3171.3
3197.75
3221.76
3242.97
3261.05
3275.68
3286.6
3293.57
3296.42
3295.03
3289.37
3279.49
3265.46
3247.49
3225.83
3200.8
3172.76
3142.16