/*--------------------------------*- C++ -*----------------------------------*\
| =========                 |                                                 |
| \\      /  F ield         | OpenFOAM: The Open Source CFD Toolbox           |
|  \\    /   O peration     | Version:  3.0.1                                 |
|   \\  /    A nd           | Web:      www.OpenFOAM.org                      |
|    \\/     M anipulation  |                                                 |
\*---------------------------------------------------------------------------*/
FoamFile
{
    version     2.0;
    format      ascii;
    class       surfaceScalarField;
    location    "19.2";
    object      phi;
}
// * * * * * * * * * * * * * * * * * * * * * * * * * * * * * * * * * * * * * //

dimensions      [0 3 -1 0 0 0 0];

internalField   nonuniform List<scalar> 
42423
(
-5.03641e-05
-1.38975e-05
-3.52151e-05
-1.51492e-05
-1.90247e-05
-1.61906e-05
-1.94579e-06
-1.7079e-05
1.58128e-05
-1.77587e-05
3.40101e-05
-1.81975e-05
5.2752e-05
-1.87419e-05
7.1652e-05
-1.89001e-05
9.03389e-05
-1.8687e-05
0.000108814
-1.84756e-05
0.000126743
-1.79292e-05
0.000143829
-1.70854e-05
0.000159819
-1.59903e-05
0.000174539
-1.47197e-05
0.000187637
-1.30987e-05
0.000198912
-1.12747e-05
0.00020818
-9.26813e-06
0.000215197
-7.01689e-06
0.000219846
-4.64917e-06
0.000222101
-2.25511e-06
0.000221851
2.49238e-07
0.000219059
2.7928e-06
0.000213659
5.39984e-06
0.000205987
7.67161e-06
0.000196073
9.91376e-06
0.000184248
1.18252e-05
0.000170647
1.36011e-05
0.000155377
1.527e-05
0.000138916
1.64601e-05
0.000121389
1.75278e-05
0.000103032
1.8357e-05
8.42866e-05
1.8745e-05
6.52108e-05
1.90757e-05
4.61119e-05
1.90989e-05
2.72891e-05
1.88227e-05
8.75561e-06
1.85335e-05
-9.20816e-06
1.79638e-05
-2.65289e-05
1.73207e-05
-4.30541e-05
1.65252e-05
-5.87092e-05
1.56551e-05
-7.343e-05
1.47208e-05
-8.71738e-05
1.37438e-05
-9.99204e-05
1.27465e-05
-0.000111669
1.17485e-05
-0.000122398
1.07296e-05
-0.000132163
9.7647e-06
-0.000140964
8.80091e-06
-0.000148822
7.85809e-06
-0.000155821
6.99888e-06
-0.000161934
6.11329e-06
-0.000167205
5.27044e-06
-0.000171693
4.48819e-06
-0.000175403
3.70974e-06
-0.000178404
3.00141e-06
-0.00018064
2.23575e-06
-0.000182174
1.53417e-06
-0.000183042
8.67898e-07
-0.000183182
1.39602e-07
-0.00018245
-7.31362e-07
-0.000181068
-1.38215e-06
-0.000178756
-2.31204e-06
-0.000175796
-2.96036e-06
-0.000172004
-3.79183e-06
-0.000167396
-4.60793e-06
-0.000161883
-5.51249e-06
-0.000155686
-6.19714e-06
-0.000148421
-7.26493e-06
-0.00014044
-7.98154e-06
-0.000131441
-8.99853e-06
-0.000121545
-9.89629e-06
-0.000110775
-1.07703e-05
-9.91547e-05
-1.16203e-05
-8.66407e-05
-1.25141e-05
-7.33021e-05
-1.33387e-05
-5.92262e-05
-1.40759e-05
-4.44236e-05
-1.48027e-05
-2.87953e-05
-1.56284e-05
-1.26703e-05
-1.61251e-05
3.97078e-06
-1.66412e-05
2.11148e-05
-1.71441e-05
3.84379e-05
-1.73232e-05
5.60832e-05
-1.76454e-05
7.36471e-05
-1.7564e-05
9.1155e-05
-1.7508e-05
0.000108262
-1.71066e-05
0.000124813
-1.6552e-05
0.000140555
-1.57415e-05
0.000155277
-1.47222e-05
0.000168679
-1.34017e-05
0.000180541
-1.18626e-05
0.000190645
-1.01043e-05
0.000198816
-8.17048e-06
0.000204856
-6.03997e-06
0.000208609
-3.75367e-06
0.000210042
-1.43258e-06
0.000209146
8.95646e-07
0.000205805
3.3409e-06
0.000200094
5.71133e-06
0.000192137
7.95706e-06
0.000182042
1.0095e-05
0.000169946
1.20952e-05
0.00015608
1.38665e-05
0.000140642
1.54379e-05
0.000123843
1.67994e-05
0.000105963
1.78794e-05
8.72994e-05
1.86638e-05
6.81196e-05
1.91798e-05
4.86535e-05
1.94661e-05
2.91672e-05
1.94863e-05
9.99328e-06
1.9174e-05
-8.7505e-06
1.87438e-05
-2.68437e-05
1.80932e-05
-4.41175e-05
1.72737e-05
-6.04495e-05
1.63321e-05
-7.57866e-05
1.53371e-05
-9.00813e-05
1.42947e-05
-0.000103247
1.31661e-05
-0.000115338
1.20906e-05
-0.000126332
1.09943e-05
-0.000136203
9.87037e-06
-0.000145015
8.81194e-06
-0.00015282
7.80529e-06
-0.000159669
6.84883e-06
-0.000165548
5.87912e-06
-0.000170532
4.98409e-06
-0.000174691
4.15934e-06
-0.000177991
3.30002e-06
-0.000180561
2.56988e-06
-0.000182337
1.77614e-06
-0.000183394
1.05697e-06
-0.000183898
5.03404e-07
-0.00018367
-2.28077e-07
-0.000182864
-8.05654e-07
-0.000181468
-1.39611e-06
-0.000179499
-1.96839e-06
-0.000176933
-2.56656e-06
-0.000173834
-3.09887e-06
-0.000170146
-3.68797e-06
-0.000165858
-4.28799e-06
-0.000160908
-4.94975e-06
-0.000155305
-5.60338e-06
-0.000149044
-6.26083e-06
-0.000141985
-7.05928e-06
-0.00013424
-7.74518e-06
-0.000125573
-8.66641e-06
-0.000116224
-9.34897e-06
-0.0001059
-1.03247e-05
-9.47823e-05
-1.11175e-05
-8.2722e-05
-1.20603e-05
-6.97423e-05
-1.29798e-05
-5.59187e-05
-1.38236e-05
-4.11958e-05
-1.4723e-05
-2.56667e-05
-1.55292e-05
-9.41433e-06
-1.62524e-05
7.46772e-06
-1.68821e-05
2.48511e-05
-1.73835e-05
4.2581e-05
-1.773e-05
6.04695e-05
-1.78886e-05
7.8305e-05
-1.78355e-05
9.58706e-05
-1.75657e-05
0.000112906
-1.7035e-05
0.000129158
-1.6253e-05
0.000144379
-1.5221e-05
0.0001583
-1.39204e-05
0.000170581
-1.22812e-05
0.000181046
-1.04654e-05
0.000189482
-8.43555e-06
0.000195672
-6.19076e-06
0.000199468
-3.79599e-06
0.000200833
-1.36483e-06
0.00019975
1.08313e-06
0.00019616
3.59018e-06
0.000190192
5.96702e-06
0.00018199
8.20191e-06
0.000171691
1.02998e-05
0.000159592
1.20988e-05
0.000145822
1.37696e-05
0.000130729
1.50928e-05
0.00011454
1.61892e-05
9.75304e-05
1.70096e-05
7.99819e-05
1.75485e-05
6.21048e-05
1.78771e-05
4.41475e-05
1.79573e-05
2.63734e-05
1.7774e-05
8.87832e-06
1.74951e-05
-8.10412e-06
1.69824e-05
-2.44817e-05
1.63776e-05
-4.01495e-05
1.56678e-05
-5.50034e-05
1.48539e-05
-6.90415e-05
1.40381e-05
-8.22095e-05
1.31681e-05
-9.44995e-05
1.229e-05
-0.000105925
1.14256e-05
-0.000116508
1.05833e-05
-0.000126208
9.69981e-06
-0.000135106
8.8975e-06
-0.000143188
8.082e-06
-0.000150439
7.25108e-06
-0.000156995
6.55622e-06
-0.000162701
5.70642e-06
-0.000167666
4.96437e-06
-0.000171917
4.25158e-06
-0.000175403
3.48562e-06
-0.000178153
2.75044e-06
-0.000180154
2.00007e-06
-0.000181424
1.27025e-06
-0.00018199
5.66171e-07
-0.000181805
-1.85194e-07
-0.000180888
-9.16658e-07
-0.000179248
-1.63991e-06
-0.000176848
-2.4002e-06
-0.000173677
-3.17076e-06
-0.000169765
-3.91249e-06
-0.000165069
-4.69579e-06
-0.000159572
-5.49747e-06
-0.000153259
-6.3125e-06
-0.000146108
-7.15143e-06
-0.000138109
-7.99866e-06
-0.000129275
-8.8338e-06
-0.000119571
-9.70437e-06
-0.000109004
-1.05674e-05
-9.75664e-05
-1.14371e-05
-8.53213e-05
-1.22452e-05
-7.22592e-05
-1.30621e-05
-5.84227e-05
-1.38365e-05
-4.38563e-05
-1.45664e-05
-2.86399e-05
-1.52164e-05
-1.28277e-05
-1.58123e-05
3.47364e-06
-1.63014e-05
2.01712e-05
-1.66976e-05
3.71227e-05
-1.69516e-05
5.4215e-05
-1.70924e-05
7.12834e-05
-1.70684e-05
8.81439e-05
-1.68605e-05
0.000104626
-1.64823e-05
0.00012053
-1.59044e-05
0.00013564
-1.51092e-05
0.000149736
-1.40967e-05
0.000162593
-1.28566e-05
0.000173939
-1.13462e-05
0.000183589
-9.64979e-06
0.000191316
-7.727e-06
0.000196958
-5.64269e-06
0.000200357
-3.39868e-06
0.000201421
-1.06463e-06
0.00020012
1.30127e-06
0.000196351
3.76869e-06
0.000190225
6.12643e-06
0.000181836
8.38864e-06
0.000171336
1.05005e-05
0.00015896
1.23754e-05
0.000144897
1.40635e-05
0.000129428
1.54692e-05
0.000112869
1.65587e-05
9.54411e-05
1.74278e-05
7.74626e-05
1.79784e-05
5.92389e-05
1.82237e-05
4.09583e-05
1.82807e-05
2.2953e-05
1.80053e-05
5.36348e-06
1.75895e-05
-1.16256e-05
1.69891e-05
-2.78258e-05
1.62002e-05
-4.3192e-05
1.53662e-05
-5.76512e-05
1.44592e-05
-7.10803e-05
1.34291e-05
-8.35877e-05
1.25074e-05
-9.51418e-05
1.15541e-05
-0.000105646
1.05044e-05
-0.000115338
9.69162e-06
-0.000124081
8.74333e-06
-0.000131952
7.87127e-06
-0.000139105
7.1523e-06
-0.000145428
6.32292e-06
-0.000151056
5.62878e-06
-0.000156026
4.96996e-06
-0.0001603
4.27388e-06
-0.000163987
3.68632e-06
-0.000167033
3.0466e-06
-0.000169454
2.42057e-06
-0.000171226
1.77203e-06
-0.000172357
1.13159e-06
-0.000172861
5.0375e-07
-0.000172706
-1.55138e-07
-0.000171775
-9.30686e-07
-0.00017011
-1.6653e-06
-0.00016772
-2.3899e-06
-0.000164552
-3.1683e-06
-0.000160529
-4.02262e-06
-0.000155669
-4.8598e-06
-0.00014989
-5.77975e-06
-0.000143172
-6.71772e-06
-0.000135645
-7.52683e-06
-0.000127113
-8.53267e-06
-0.000117541
-9.57125e-06
-0.000107254
-1.02873e-05
-9.58523e-05
-1.14018e-05
-8.35952e-05
-1.22571e-05
-7.05021e-05
-1.30932e-05
-5.66088e-05
-1.38933e-05
-4.19375e-05
-1.46714e-05
-2.66024e-05
-1.53351e-05
-1.05891e-05
-1.60134e-05
5.95277e-06
-1.65419e-05
2.28716e-05
-1.69189e-05
4.00966e-05
-1.72251e-05
5.72955e-05
-1.71989e-05
7.44741e-05
-1.71787e-05
9.13644e-05
-1.68903e-05
0.000107824
-1.64596e-05
0.000123702
-1.58785e-05
0.000138607
-1.49045e-05
0.000152497
-1.38901e-05
0.000165112
-1.26157e-05
0.000176221
-1.11089e-05
0.000185765
-9.54337e-06
0.000193498
-7.73378e-06
0.000199336
-5.83743e-06
0.000203227
-3.89149e-06
0.000205011
-1.78336e-06
0.000204694
3.16321e-07
0.000202198
2.49642e-06
0.000197517
4.6805e-06
0.000190803
6.71386e-06
0.000182184
8.61907e-06
0.000171763
1.04213e-05
0.000159794
1.19684e-05
0.000146202
1.35927e-05
0.00013152
1.46818e-05
0.000115707
1.58133e-05
9.91655e-05
1.6541e-05
8.20222e-05
1.71433e-05
6.44803e-05
1.75419e-05
4.68854e-05
1.75949e-05
2.93048e-05
1.75805e-05
1.19265e-05
1.73783e-05
-4.89673e-06
1.68232e-05
-2.12559e-05
1.63591e-05
-3.69755e-05
1.57196e-05
-5.19252e-05
1.49497e-05
-6.60821e-05
1.41569e-05
-7.93594e-05
1.32773e-05
-9.1687e-05
1.23276e-05
-0.000103072
1.13845e-05
-0.000113484
1.04124e-05
-0.000122947
9.4635e-06
-0.00013145
8.5021e-06
-0.000138997
7.54786e-06
-0.000145616
6.61836e-06
-0.000151323
5.70747e-06
-0.000156133
4.80969e-06
-0.000160063
3.93009e-06
-0.000163154
3.0915e-06
-0.000165423
2.26888e-06
-0.000166888
1.4642e-06
-0.000167613
7.25292e-07
-0.000167521
-9.1581e-08
-9.06329e-07
-5.03999e-05
-2.77963e-05
-3.52485e-05
-3.03008e-05
-1.90545e-05
-3.23849e-05
-1.9722e-06
-3.41616e-05
1.57877e-05
-3.55189e-05
3.39931e-05
-3.64031e-05
5.27481e-05
-3.74971e-05
7.16617e-05
-3.7814e-05
9.03648e-05
-3.73903e-05
0.000108854
-3.69649e-05
0.0001268
-3.5875e-05
0.0001439
-3.41856e-05
0.000159908
-3.1999e-05
0.000174635
-2.94471e-05
0.000187738
-2.62017e-05
0.000199036
-2.25731e-05
0.000208309
-1.85408e-05
0.000215322
-1.40306e-05
0.000219987
-9.31401e-06
0.000222243
-4.51183e-06
0.000221981
5.11207e-07
0.000219181
5.59349e-06
0.000213779
1.08015e-05
0.0002061
1.53502e-05
0.000196178
1.98354e-05
0.000184342
2.36619e-05
0.00017073
2.72123e-05
0.000155446
3.05539e-05
0.000138975
3.2931e-05
0.000121433
3.50696e-05
0.000103067
3.67234e-05
8.43104e-05
3.75014e-05
6.52222e-05
3.81638e-05
4.61155e-05
3.82056e-05
2.72833e-05
3.76549e-05
8.73794e-06
3.70788e-05
-9.22938e-06
3.5931e-05
-2.65569e-05
3.46482e-05
-4.30884e-05
3.30567e-05
-5.87497e-05
3.13163e-05
-7.34755e-05
2.94466e-05
-8.72223e-05
2.74906e-05
-9.99724e-05
2.54966e-05
-0.000111722
2.34978e-05
-0.000122452
2.146e-05
-0.000132217
1.953e-05
-0.000141023
1.76065e-05
-0.000148887
1.57218e-05
-0.000155888
1.39999e-05
-0.000162
1.22258e-05
-0.00016727
1.05401e-05
-0.000171759
8.97685e-06
-0.000175476
7.42703e-06
-0.000178477
6.00258e-06
-0.000180705
4.46343e-06
-0.000182245
3.07474e-06
-0.000183106
1.72856e-06
-0.000183253
2.86649e-07
-0.000182517
-1.46779e-06
-0.00018114
-2.75852e-06
-0.000178823
-4.62892e-06
-0.000175866
-5.91762e-06
-0.000172068
-7.58973e-06
-0.000167458
-9.21788e-06
-0.000161948
-1.10229e-05
-0.00015575
-1.23951e-05
-0.000148488
-1.45271e-05
-0.000140503
-1.59663e-05
-0.000131504
-1.79982e-05
-0.000121606
-1.97938e-05
-0.000110834
-2.15432e-05
-9.92111e-05
-2.32429e-05
-8.66996e-05
-2.50257e-05
-7.33467e-05
-2.66917e-05
-5.92692e-05
-2.81536e-05
-4.44637e-05
-2.96083e-05
-2.88336e-05
-3.12587e-05
-1.26938e-05
-3.22651e-05
3.95414e-06
-3.32892e-05
2.11107e-05
-3.43008e-05
3.84493e-05
-3.46619e-05
5.61046e-05
-3.53009e-05
7.36792e-05
-3.51389e-05
9.11858e-05
-3.50147e-05
0.000108306
-3.42273e-05
0.000124868
-3.31139e-05
0.00014062
-3.14942e-05
0.000155338
-2.94394e-05
0.000168754
-2.6818e-05
0.000180614
-2.37232e-05
0.000190738
-2.02279e-05
0.000198926
-1.63589e-05
0.000204964
-1.20783e-05
0.00020872
-7.50979e-06
0.000210155
-2.86795e-06
0.000209237
1.814e-06
0.000205889
6.68834e-06
0.00020018
1.14209e-05
0.000192223
1.59141e-05
0.000182121
2.01967e-05
0.000170016
2.41999e-05
0.000156129
2.77532e-05
0.000140683
3.08846e-05
0.000123873
3.3609e-05
0.00010598
3.57725e-05
8.72957e-05
3.73478e-05
6.81021e-05
3.83734e-05
4.86327e-05
3.89355e-05
2.91408e-05
3.89782e-05
9.94948e-06
3.83652e-05
-8.80896e-06
3.75022e-05
-2.69088e-05
3.61931e-05
-4.41918e-05
3.45568e-05
-6.05342e-05
3.26745e-05
-7.58838e-05
3.06867e-05
-9.01783e-05
2.85892e-05
-0.000103346
2.63341e-05
-0.000115422
2.41666e-05
-0.000126414
2.19859e-05
-0.000136295
1.9752e-05
-0.000145109
1.76256e-05
-0.000152916
1.56123e-05
-0.00015976
1.3693e-05
-0.000165638
1.17572e-05
-0.000170627
9.97247e-06
-0.00017478
8.31275e-06
-0.00017808
6.60021e-06
-0.00018064
5.12977e-06
-0.000182428
3.5635e-06
-0.000183481
2.11027e-06
-0.000183966
9.88731e-07
-0.000183744
-4.50304e-07
-0.00018294
-1.6098e-06
-0.000181538
-2.79806e-06
-0.000179572
-3.93486e-06
-0.000177012
-5.12591e-06
-0.000173902
-6.20925e-06
-0.00017021
-7.38e-06
-0.000165931
-8.56697e-06
-0.000160988
-9.89301e-06
-0.000155382
-1.12095e-05
-0.00014912
-1.2523e-05
-0.000142057
-1.41219e-05
-0.000134316
-1.5486e-05
-0.000125672
-1.73106e-05
-0.000116296
-1.87248e-05
-0.000105984
-2.06372e-05
-9.48545e-05
-2.22471e-05
-8.27963e-05
-2.41186e-05
-6.98146e-05
-2.59616e-05
-5.59829e-05
-2.76554e-05
-4.12598e-05
-2.94463e-05
-2.57225e-05
-3.10667e-05
-9.46057e-06
-3.25145e-05
7.43766e-06
-3.37805e-05
2.4827e-05
-3.4773e-05
4.25749e-05
-3.54781e-05
6.04698e-05
-3.57836e-05
7.83126e-05
-3.56785e-05
9.58895e-05
-3.51428e-05
0.000112942
-3.4088e-05
0.000129209
-3.25196e-05
0.000144446
-3.04588e-05
0.000158372
-2.78458e-05
0.000170673
-2.45826e-05
0.00018116
-2.09524e-05
0.000189588
-1.6864e-05
0.000195791
-1.23938e-05
0.000199599
-7.60394e-06
0.000200957
-2.72363e-06
0.000199863
2.17709e-06
0.00019627
7.18302e-06
0.000190298
1.19388e-05
0.000182088
1.64124e-05
0.000171774
2.06138e-05
0.000159664
2.42087e-05
0.000145886
2.75472e-05
0.00013078
3.0199e-05
0.000114577
3.23924e-05
9.75475e-05
3.40387e-05
7.99854e-05
3.51105e-05
6.20978e-05
3.57647e-05
4.41334e-05
3.59217e-05
2.63484e-05
3.55589e-05
8.84108e-06
3.50025e-05
-8.15017e-06
3.39737e-05
-2.4532e-05
3.27595e-05
-4.02146e-05
3.13504e-05
-5.50696e-05
2.97088e-05
-6.91076e-05
2.80761e-05
-8.228e-05
2.63405e-05
-9.45711e-05
2.45811e-05
-0.000105996
2.28509e-05
-0.000116584
2.11711e-05
-0.000126287
1.94025e-05
-0.000135165
1.77752e-05
-0.000143267
1.61846e-05
-0.000150533
1.4517e-05
-0.000157067
1.30904e-05
-0.000162781
1.14204e-05
-0.000167748
9.93137e-06
-0.000171989
8.49237e-06
-0.000175478
6.97505e-06
-0.000178236
5.5079e-06
-0.00018023
3.99399e-06
-0.000181503
2.54295e-06
-0.000182074
1.1375e-06
-0.000181882
-3.76981e-07
-0.000180961
-1.83777e-06
-0.000179323
-3.2775e-06
-0.000176928
-4.79582e-06
-0.000173758
-6.34043e-06
-0.000169842
-7.82828e-06
-0.000165147
-9.39079e-06
-0.000159646
-1.0999e-05
-0.00015333
-1.26287e-05
-0.00014618
-1.43012e-05
-0.000138182
-1.59973e-05
-0.000129345
-1.767e-05
-0.000119638
-1.94123e-05
-0.000109071
-2.1134e-05
-9.76311e-05
-2.28771e-05
-8.53859e-05
-2.44904e-05
-7.23161e-05
-2.6132e-05
-5.84745e-05
-2.76783e-05
-4.39083e-05
-2.91327e-05
-2.86753e-05
-3.04494e-05
-1.28571e-05
-3.16306e-05
3.44778e-06
-3.26063e-05
2.01504e-05
-3.34004e-05
3.71137e-05
-3.39149e-05
5.42108e-05
-3.41896e-05
7.129e-05
-3.41477e-05
8.81629e-05
-3.37335e-05
0.000104658
-3.29775e-05
0.000120571
-3.18174e-05
0.000135698
-3.02364e-05
0.000149813
-2.82111e-05
0.000162675
-2.57191e-05
0.000174025
-2.26958e-05
0.000183683
-1.93087e-05
0.000191435
-1.54791e-05
0.000197089
-1.1296e-05
0.000200478
-6.78823e-06
0.00020155
-2.13659e-06
0.000200236
2.6154e-06
0.000196461
7.54359e-06
0.000190337
1.22499e-05
0.000181946
1.67801e-05
0.000171433
2.10137e-05
0.000159043
2.47646e-05
0.000144968
2.81393e-05
0.000129483
3.09537e-05
0.000112911
3.31311e-05
9.54693e-05
3.48691e-05
7.74742e-05
3.59735e-05
5.92363e-05
3.64616e-05
4.09448e-05
3.65722e-05
2.29286e-05
3.60214e-05
5.34702e-06
3.51712e-05
-1.16676e-05
3.40037e-05
-2.78771e-05
3.24097e-05
-4.32532e-05
3.07423e-05
-5.77216e-05
2.89276e-05
-7.11512e-05
2.68587e-05
-8.36461e-05
2.50024e-05
-9.52058e-05
2.31138e-05
-0.000105713
2.10113e-05
-0.000115406
1.93852e-05
-0.000124157
1.74937e-05
-0.000132023
1.57379e-05
-0.00013917
1.42987e-05
-0.000145492
1.2645e-05
-0.000151123
1.12599e-05
-0.000156098
9.94528e-06
-0.000160374
8.55003e-06
-0.000164064
7.3758e-06
-0.000167102
6.08522e-06
-0.000169527
4.84499e-06
-0.000171298
3.54317e-06
-0.000172425
2.25881e-06
-0.000172926
1.00442e-06
-0.000172765
-3.15983e-07
-0.000171841
-1.85514e-06
-0.000170176
-3.32974e-06
-0.000167781
-4.78521e-06
-0.000164619
-6.32969e-06
-0.000160597
-8.04469e-06
-0.000155737
-9.72007e-06
-0.00014996
-1.15567e-05
-0.00014324
-1.34378e-05
-0.000135716
-1.50506e-05
-0.000127181
-1.70681e-05
-0.000117616
-1.91359e-05
-0.000107322
-2.05813e-05
-9.59219e-05
-2.28025e-05
-8.36649e-05
-2.45141e-05
-7.05671e-05
-2.61911e-05
-5.66591e-05
-2.78014e-05
-4.19912e-05
-2.93393e-05
-2.66436e-05
-3.06829e-05
-1.06319e-05
-3.20251e-05
5.92399e-06
-3.30979e-05
2.28482e-05
-3.38431e-05
4.00838e-05
-3.44608e-05
5.72897e-05
-3.44049e-05
7.44824e-05
-3.43715e-05
9.138e-05
-3.3788e-05
0.000107854
-3.2934e-05
0.000123747
-3.17713e-05
0.000138663
-2.98208e-05
0.000152568
-2.77953e-05
0.000165188
-2.52354e-05
0.000176314
-2.22349e-05
0.000185868
-1.90976e-05
0.000193599
-1.54652e-05
0.000199454
-1.16925e-05
0.000203352
-7.78912e-06
0.000205127
-3.55816e-06
0.000204806
6.36718e-07
0.000202306
4.99635e-06
0.000197626
9.36094e-06
0.000190905
1.3434e-05
0.000182282
1.72422e-05
0.000171851
2.08528e-05
0.000159871
2.39478e-05
0.000146271
2.71924e-05
0.000131576
2.9377e-05
0.000115754
3.16358e-05
9.92021e-05
3.30925e-05
8.20466e-05
3.42987e-05
6.44959e-05
3.50926e-05
4.68914e-05
3.51994e-05
2.92999e-05
3.5172e-05
1.19142e-05
3.4764e-05
-4.91313e-06
3.36505e-05
-2.12786e-05
3.27246e-05
-3.70042e-05
3.14452e-05
-5.19597e-05
2.99052e-05
-6.61256e-05
2.83228e-05
-7.94039e-05
2.65556e-05
-9.17335e-05
2.46572e-05
-0.000103126
2.27767e-05
-0.000113535
2.0822e-05
-0.000122997
1.89251e-05
-0.000131501
1.70059e-05
-0.000139046
1.50932e-05
-0.000145664
1.3236e-05
-0.000151369
1.14128e-05
-0.000156173
9.61368e-06
-0.000160103
7.86e-06
-0.000163193
6.18171e-06
-0.000165461
4.5364e-06
-0.000166924
2.92752e-06
-0.000167646
1.44717e-06
-0.000167552
-1.8569e-07
-1.81482e-06
-5.04691e-05
-4.16996e-05
-3.53127e-05
-4.54575e-05
-1.91124e-05
-4.85855e-05
-2.02198e-06
-5.12522e-05
1.57513e-05
-5.32924e-05
3.3978e-05
-5.463e-05
5.2755e-05
-5.62743e-05
7.1694e-05
-5.67533e-05
9.04226e-05
-5.61191e-05
0.000108937
-5.54793e-05
0.000126906
-5.38447e-05
0.00014403
-5.13101e-05
0.00016006
-4.80289e-05
0.000174816
-4.42035e-05
0.000187935
-3.93201e-05
0.000199242
-3.38807e-05
0.000208539
-2.78382e-05
0.000215558
-2.10497e-05
0.000220227
-1.39825e-05
0.000222497
-6.78268e-06
0.000222206
8.02919e-07
0.000219367
8.43172e-06
0.00021396
1.62082e-05
0.00020627
2.30405e-05
0.000196336
2.97692e-05
0.00018448
3.55173e-05
0.000170853
4.08395e-05
0.000155547
4.58602e-05
0.000139057
4.94204e-05
0.000121491
5.26361e-05
0.000103111
5.51027e-05
8.43325e-05
5.62802e-05
6.52228e-05
5.72735e-05
4.6108e-05
5.73204e-05
2.7256e-05
5.65069e-05
8.68952e-06
5.56452e-05
-9.28579e-06
5.39063e-05
-2.66238e-05
5.19862e-05
-4.31644e-05
4.95972e-05
-5.88327e-05
4.69846e-05
-7.35627e-05
4.41765e-05
-8.73131e-05
4.12411e-05
-0.000100065
3.82489e-05
-0.000111818
3.52503e-05
-0.000122551
3.21926e-05
-0.000132313
2.92922e-05
-0.000141117
2.64105e-05
-0.000148977
2.35825e-05
-0.000155979
2.10017e-05
-0.000162088
1.83348e-05
-0.000167357
1.58084e-05
-0.000171843
1.34633e-05
-0.000175551
1.11348e-05
-0.00017855
9.00177e-06
-0.000180783
6.69599e-06
-0.000182331
4.62335e-06
-0.000183172
2.56895e-06
-0.000183316
4.31041e-07
-0.000182572
-2.21233e-06
-0.000181193
-4.13671e-06
-0.000178881
-6.94123e-06
-0.000175931
-8.86792e-06
-0.000172132
-1.13885e-05
-0.000167511
-1.38392e-05
-0.000162015
-1.65185e-05
-0.000155809
-1.8601e-05
-0.00014856
-2.17765e-05
-0.000140569
-2.39577e-05
-0.000131574
-2.69928e-05
-0.000121673
-2.96952e-05
-0.000110902
-3.23144e-05
-9.92788e-05
-3.48658e-05
-8.67694e-05
-3.75353e-05
-7.34092e-05
-4.00521e-05
-5.93281e-05
-4.22348e-05
-4.4517e-05
-4.44195e-05
-2.88854e-05
-4.68904e-05
-1.2732e-05
-4.84187e-05
3.93716e-06
-4.99585e-05
2.10881e-05
-5.14519e-05
3.84448e-05
-5.20189e-05
5.61173e-05
-5.29735e-05
7.37115e-05
-5.27332e-05
9.12297e-05
-5.25331e-05
0.000108361
-5.13583e-05
0.00012494
-4.9693e-05
0.000140716
-4.72707e-05
0.000155437
-4.41609e-05
0.000168874
-4.02545e-05
0.000180746
-3.55959e-05
0.00019088
-3.03616e-05
0.000199074
-2.45529e-05
0.000205132
-1.81372e-05
0.000208885
-1.12627e-05
0.000210326
-4.30881e-06
0.000209388
2.7522e-06
0.000206034
1.00424e-05
0.000200307
1.7147e-05
0.000192341
2.38801e-05
0.000182236
3.03018e-05
0.000170119
3.63166e-05
0.000156208
4.16649e-05
0.000140736
4.63562e-05
0.000123909
5.0436e-05
0.000106006
5.3675e-05
8.72975e-05
5.60566e-05
6.80715e-05
5.75994e-05
4.85774e-05
5.84296e-05
2.90683e-05
5.84874e-05
9.86825e-06
5.75653e-05
-8.90459e-06
5.62751e-05
-2.70241e-05
5.43126e-05
-4.43161e-05
5.18489e-05
-6.06658e-05
4.90242e-05
-7.6026e-05
4.60469e-05
-9.0307e-05
4.28702e-05
-0.000103479
3.95058e-05
-0.000115556
3.62442e-05
-0.000126548
3.29782e-05
-0.000136429
2.96322e-05
-0.000145248
2.64447e-05
-0.000153055
2.34196e-05
-0.000159883
2.05207e-05
-0.00016576
1.76345e-05
-0.000170755
1.49675e-05
-0.000174893
1.24513e-05
-0.000178194
9.90123e-06
-0.000180742
7.67748e-06
-0.000182536
5.35748e-06
-0.000183582
3.15583e-06
-0.000184069
1.4756e-06
-0.00018385
-6.68704e-07
-0.000183028
-2.432e-06
-0.000181629
-4.19723e-06
-0.000179659
-5.90498e-06
-0.000177091
-7.69361e-06
-0.000173984
-9.31662e-06
-0.000170296
-1.10677e-05
-0.000166017
-1.28461e-05
-0.000161081
-1.48287e-05
-0.000155476
-1.6815e-05
-0.000149222
-1.87765e-05
-0.000142183
-2.11611e-05
-0.000134424
-2.32448e-05
-0.000125804
-2.5931e-05
-0.0001164
-2.81286e-05
-0.000106109
-3.09286e-05
-9.49659e-05
-3.33904e-05
-8.29035e-05
-3.61812e-05
-6.99209e-05
-3.89443e-05
-5.60825e-05
-4.14939e-05
-4.1358e-05
-4.41709e-05
-2.58162e-05
-4.66086e-05
-9.53598e-06
-4.87948e-05
7.38058e-06
-5.06973e-05
2.47682e-05
-5.21608e-05
4.25323e-05
-5.32424e-05
6.04525e-05
-5.3704e-05
7.83146e-05
-5.35407e-05
9.59093e-05
-5.27376e-05
0.000112982
-5.11607e-05
0.000129271
-4.88087e-05
0.000144532
-4.57198e-05
0.000158487
-4.18009e-05
0.000170799
-3.68953e-05
0.000181307
-3.14604e-05
0.000189761
-2.5318e-05
0.000195959
-1.85924e-05
0.000199771
-1.14156e-05
0.000201146
-4.09914e-06
0.000200024
3.29915e-06
0.000196415
1.07918e-05
0.000190439
1.79146e-05
0.000182231
2.46201e-05
0.000171898
3.09474e-05
0.000159761
3.63457e-05
0.000145964
4.13433e-05
0.000130832
4.5331e-05
0.000114616
4.86087e-05
9.75636e-05
5.10911e-05
7.99778e-05
5.26963e-05
6.20629e-05
5.36795e-05
4.40888e-05
5.38957e-05
2.62806e-05
5.33672e-05
8.77919e-06
5.25038e-05
-8.23628e-06
5.09891e-05
-2.46181e-05
4.91413e-05
-4.03053e-05
4.70376e-05
-5.51692e-05
4.45726e-05
-6.92091e-05
4.21161e-05
-8.23807e-05
3.95121e-05
-9.4682e-05
3.68824e-05
-0.00010611
3.42787e-05
-0.000116682
3.17429e-05
-0.000126388
2.91085e-05
-0.000135261
2.6649e-05
-0.000143362
2.42851e-05
-0.000150642
2.1797e-05
-0.000157169
1.96179e-05
-0.000162875
1.71257e-05
-0.000167833
1.48899e-05
-0.000172081
1.27402e-05
-0.000175568
1.04621e-05
-0.000178329
8.2685e-06
-0.000180327
5.99238e-06
-0.000181597
3.81304e-06
-0.000182155
1.69488e-06
-0.000181967
-5.64258e-07
-0.000181051
-2.75441e-06
-0.000179406
-4.92213e-06
-0.000177012
-7.18958e-06
-0.000173846
-9.50686e-06
-0.000169929
-1.17447e-05
-0.000165235
-1.40854e-05
-0.000159734
-1.65001e-05
-0.00015342
-1.8943e-05
-0.00014627
-2.14504e-05
-0.00013828
-2.39874e-05
-0.000129441
-2.65095e-05
-0.000119732
-2.91213e-05
-0.000109161
-3.17049e-05
-9.77217e-05
-3.43163e-05
-8.54737e-05
-3.67384e-05
-7.24003e-05
-3.92055e-05
-5.85484e-05
-4.15302e-05
-4.39793e-05
-4.37019e-05
-2.8741e-05
-4.56878e-05
-1.29113e-05
-4.74603e-05
3.40114e-06
-4.89189e-05
2.01136e-05
-5.01129e-05
3.70888e-05
-5.08902e-05
5.41998e-05
-5.13007e-05
7.12872e-05
-5.12352e-05
8.81799e-05
-5.06263e-05
0.000104694
-4.94914e-05
0.000120623
-4.77467e-05
0.000135763
-4.53765e-05
0.000149903
-4.23508e-05
0.000162791
-3.86075e-05
0.000174153
-3.40575e-05
0.000183825
-2.89815e-05
0.000191585
-2.32392e-05
0.000197256
-1.69669e-05
0.000200661
-1.01932e-05
0.000201736
-3.21196e-06
0.000200404
3.94822e-06
0.000196626
1.13212e-05
0.000190491
1.83848e-05
0.000182085
2.51859e-05
0.000171563
3.15353e-05
0.000159154
3.71744e-05
0.000145054
4.22393e-05
0.00012955
4.64569e-05
0.000112957
4.97242e-05
9.54939e-05
5.23325e-05
7.74723e-05
5.39951e-05
5.92121e-05
5.47217e-05
4.0904e-05
5.48804e-05
2.2872e-05
5.40534e-05
5.29602e-06
5.27471e-05
-1.17452e-05
5.1045e-05
-2.79681e-05
4.86327e-05
-4.33556e-05
4.61297e-05
-5.78183e-05
4.33904e-05
-7.1251e-05
4.02914e-05
-8.37405e-05
3.74919e-05
-9.53066e-05
3.46799e-05
-0.000105811
3.15159e-05
-0.000115495
2.9069e-05
-0.000124252
2.62503e-05
-0.000132108
2.3594e-05
-0.000139244
2.14348e-05
-0.000145562
1.89631e-05
-0.000151201
1.68995e-05
-0.000156178
1.49214e-05
-0.000160441
1.28132e-05
-0.00016414
1.10746e-05
-0.00016718
9.12524e-06
-0.000169608
7.27327e-06
-0.00017138
5.3148e-06
-0.0001725
3.37929e-06
-0.000172994
1.49813e-06
-0.000172823
-4.87192e-07
-0.000171902
-2.77619e-06
-0.00017024
-4.99141e-06
-0.000167836
-7.18914e-06
-0.000164682
-9.48414e-06
-0.000160666
-1.20606e-05
-0.000155806
-1.45801e-05
-0.000150034
-1.73289e-05
-0.000143312
-2.0159e-05
-0.000135792
-2.2571e-05
-0.000127253
-2.56068e-05
-0.000117694
-2.8695e-05
-0.000107398
-3.08774e-05
-9.59971e-05
-3.42036e-05
-8.37439e-05
-3.67674e-05
-7.06479e-05
-3.92871e-05
-5.672e-05
-4.17294e-05
-4.20503e-05
-4.40091e-05
-2.66918e-05
-4.60415e-05
-1.06845e-05
-4.80324e-05
5.88793e-06
-4.96705e-05
2.28187e-05
-5.07739e-05
4.00679e-05
-5.17102e-05
5.72884e-05
-5.16255e-05
7.44983e-05
-5.15815e-05
9.14139e-05
-5.07038e-05
0.000107905
-4.94253e-05
0.000123819
-4.76853e-05
0.000138753
-4.47544e-05
0.000152678
-4.17206e-05
0.00016532
-3.78773e-05
0.000176454
-3.33689e-05
0.000186029
-2.86729e-05
0.000193774
-2.32103e-05
0.000199632
-1.75504e-05
0.00020355
-1.17075e-05
0.000205334
-5.34225e-06
0.000204987
9.83792e-07
0.000202471
7.51189e-06
0.000197787
1.40445e-05
0.000191059
2.01627e-05
0.000182427
2.58737e-05
0.000171981
3.12984e-05
0.00015998
3.59497e-05
0.000146375
4.07972e-05
0.000131653
4.40986e-05
0.000115819
4.74702e-05
9.92487e-05
4.96624e-05
8.20732e-05
5.14742e-05
6.45113e-05
5.26544e-05
4.68894e-05
5.28213e-05
2.92799e-05
5.27815e-05
1.18858e-05
5.21581e-05
-4.9554e-06
5.04918e-05
-2.13338e-05
4.9103e-05
-3.70705e-05
4.71819e-05
-5.20341e-05
4.48688e-05
-6.62005e-05
4.24892e-05
-7.94832e-05
3.98383e-05
-9.18132e-05
3.69872e-05
-0.000103204
3.41677e-05
-0.000113617
3.1235e-05
-0.00012308
2.83878e-05
-0.000131582
2.55082e-05
-0.000139128
2.2639e-05
-0.00014574
1.98482e-05
-0.000151441
1.71137e-05
-0.000156244
1.44168e-05
-0.000160171
1.17867e-05
-0.000163256
9.26731e-06
-0.000165525
6.8053e-06
-0.00016699
4.39225e-06
-0.000167708
2.16524e-06
-0.000167612
-2.81916e-07
-2.7266e-06
-5.05731e-05
-5.56096e-05
-3.54093e-05
-6.06215e-05
-1.91999e-05
-6.47952e-05
-2.09732e-06
-6.8355e-05
1.56954e-05
-7.10854e-05
3.39548e-05
-7.28896e-05
5.27679e-05
-7.50877e-05
7.17467e-05
-7.57322e-05
9.0516e-05
-7.48886e-05
0.000109069
-7.4032e-05
0.000127075
-7.18518e-05
0.000144237
-6.84713e-05
0.0001603
-6.40926e-05
0.000175087
-5.89904e-05
0.00018824
-5.24736e-05
0.00019957
-4.52106e-05
0.000208888
-3.71569e-05
0.000215925
-2.80861e-05
0.0002206
-1.86578e-05
0.000222861
-9.04424e-06
0.000222527
1.13711e-06
0.000219648
1.13104e-05
0.000214235
2.16213e-05
0.000206525
3.07504e-05
0.000196572
3.97216e-05
0.000184689
4.74009e-05
0.000171037
5.44909e-05
0.000155697
6.12002e-05
0.00013918
6.59378e-05
0.000121577
7.0239e-05
0.000103179
7.35005e-05
8.43656e-05
7.50936e-05
6.52239e-05
7.64151e-05
4.60985e-05
7.64457e-05
2.7215e-05
7.53904e-05
8.61731e-06
7.42429e-05
-9.37132e-06
7.18949e-05
-2.67257e-05
6.93406e-05
-4.32805e-05
6.6152e-05
-5.89604e-05
6.26645e-05
-7.36977e-05
5.89138e-05
-8.74549e-05
5.49983e-05
-0.000100211
5.10048e-05
-0.000111965
4.70042e-05
-0.0001227
4.29278e-05
-0.000132459
3.90511e-05
-0.000141263
3.52144e-05
-0.000149121
3.1441e-05
-0.000156119
2.79998e-05
-0.000162225
2.44408e-05
-0.000167491
2.10737e-05
-0.000171972
1.79449e-05
-0.000175677
1.48394e-05
-0.000178663
1.19874e-05
-0.000180896
8.92941e-06
-0.000182432
6.15952e-06
-0.000183276
3.41245e-06
-0.000183397
5.52177e-07
-0.000182656
-2.95279e-06
-0.000181253
-5.5402e-06
-0.000178973
-9.22146e-06
-0.00017603
-1.1811e-05
-0.00017223
-1.51879e-05
-0.000167595
-1.84746e-05
-0.000162118
-2.19951e-05
-0.000155903
-2.48165e-05
-0.000148669
-2.90107e-05
-0.00014067
-3.19564e-05
-0.00013168
-3.5983e-05
-0.000121776
-3.95987e-05
-0.000111006
-4.30847e-05
-9.93821e-05
-4.64901e-05
-8.68751e-05
-5.00423e-05
-7.35027e-05
-5.34246e-05
-5.94153e-05
-5.63223e-05
-4.46009e-05
-5.92341e-05
-2.8971e-05
-6.25204e-05
-1.27892e-05
-6.46006e-05
3.90337e-06
-6.66513e-05
2.105e-05
-6.85987e-05
3.8438e-05
-6.9407e-05
5.6132e-05
-7.06676e-05
7.37498e-05
-7.03512e-05
9.12948e-05
-7.00783e-05
0.000108444
-6.85074e-05
0.000125047
-6.62964e-05
0.000140845
-6.3069e-05
0.000155563
-5.8879e-05
0.000169049
-5.37411e-05
0.000180932
-4.7479e-05
0.000191107
-4.05369e-05
0.000199309
-3.27542e-05
0.000205373
-2.4202e-05
0.00020913
-1.50194e-05
0.000210564
-5.74318e-06
0.000209601
3.71504e-06
0.000206256
1.33876e-05
0.000200512
2.28911e-05
0.00019253
3.18615e-05
0.000182402
4.04297e-05
0.000170259
4.84594e-05
0.000156328
5.55967e-05
0.00014083
6.18533e-05
0.000123965
6.7301e-05
0.000106029
7.16116e-05
8.72895e-05
7.4796e-05
6.80351e-05