/*--------------------------------*- C++ -*----------------------------------*\
| =========                 |                                                 |
| \\      /  F ield         | OpenFOAM: The Open Source CFD Toolbox           |
|  \\    /   O peration     | Version:  3.0.1                                 |
|   \\  /    A nd           | Web:      www.OpenFOAM.org                      |
|    \\/     M anipulation  |                                                 |
\*---------------------------------------------------------------------------*/
FoamFile
{
    version     2.0;
    format      ascii;
    class       volScalarField;
    location    "21.2";
    object      p;
}
// * * * * * * * * * * * * * * * * * * * * * * * * * * * * * * * * * * * * * //

dimensions      [1 -1 -2 0 0 0 0];

internalField   nonuniform List<scalar> 
22680
(
3838.31
3854.43
3875.91
3897.9
3919.48
3940.33
3960.19
3978.94
3996.42
4012.57
4027.31
4040.6
4052.43
4062.77
4071.62
4079.01
4084.94
4089.45
4092.56
4094.3
4094.66
4093.79
4091.69
4088.34
4083.75
4077.94
4070.91
4062.69
4053.31
4042.8
4031.24
4018.68
4005.21
3990.92
3975.92
3960.36
3944.35
3928.04
3911.59
3895.16
3878.9
3862.92
3847.15
3832.27
3818.19
3804.99
3792.74
3781.51
3771.34
3762.23
3754.18
3747.15
3741.11
3736
3731.77
3728.35
3725.69
3723.73
3722.42
3721.72
3721.58
3721.97
3722.87
3724.28
3726.21
3728.66
3731.61
3735.09
3739.12
3743.71
3748.84
3754.5
3760.66
3767.27
3774.29
3781.68
3789.38
3797.36
3805.57
3813.98
3822.56
3831.28
3840.14
3849.11
3858.19
3867.37
3876.62
3885.91
3895.31
3904.78
3914.32
3923.88
3933.44
3942.96
3952.37
3961.61
3970.63
3979.33
3987.64
3995.48
4002.76
4009.39
4015.3
4020.4
4024.61
4027.87
4030.12
4031.31
4031.4
4030.36
4028.17
4024.86
4020.43
4014.92
4008.38
4000.89
3992.51
3983.34
3973.5
3963.09
3952.23
3941.05
3929.66
3918.19
3906.73
3895.39
3884.26
3873.4
3862.87
3852.72
3842.98
3833.66
3824.79
3816.35
3808.36
3800.8
3793.66
3786.94
3780.64
3774.73
3769.23
3764.13
3759.41
3755.09
3751.16
3747.62
3744.47
3741.71
3739.36
3737.4
3735.87
3734.76
3734.1
3733.93
3734.28
3735.18
3736.7
3738.87
3741.77
3745.45
3749.96
3755.35
3761.67
3768.94
3777.18
3786.38
3796.51
3807.53
3819.37
3831.96
3845.18
3858.92
3873.04
3887.4
3901.85
3916.22
3930.35
3944.1
3957.31
3969.85
3981.58
3992.39
4002.18
4010.86
4018.38
4024.69
4029.75
4033.55
4036.09
4037.39
4037.47
4036.35
4034.09
4030.73
4026.28
4020.85
4014.47
4007.19
3999.08
3990.21
3980.64
3970.44
3959.68
3948.44
3936.79
3924.8
3912.52
3900.02
3887.36
3874.57
3861.7
3848.79
3835.86
3822.95
3810.08
3797.3
3784.73
3772.26
3760.04
3748.12
3736.61
3725.57
3715.06
3705.26
3697.71
3740.19
3756.32
3777.82
3799.82
3821.41
3842.27
3862.14
3880.89
3898.38
3914.54
3929.28
3942.58
3954.41
3964.75
3973.6
3980.99
3986.92
3991.43
3994.54
3996.27
3996.63
3995.77
3993.66
3990.31
3985.72
3979.9
3972.87
3964.65
3955.26
3944.75
3933.18
3920.62
3907.14
3892.85
3877.85
3862.27
3846.25
3829.94
3813.48
3797.04
3780.77
3764.78
3749.01
3734.12
3720.03
3706.83
3694.58
3683.35
3673.17
3664.06
3656.01
3648.99
3642.95
3637.85
3633.62
3630.21
3627.55
3625.59
3624.29
3623.58
3623.45
3623.84
3624.75
3626.15
3628.08
3630.53
3633.48
3636.96
3640.99
3645.58
3650.71
3656.37
3662.53
3669.14
3676.17
3683.55
3691.26
3699.24
3707.45
3715.86
3724.44
3733.17
3742.02
3750.99
3760.07
3769.25
3778.51
3787.79
3797.19
3806.67
3816.21
3825.78
3835.34
3844.85
3854.27
3863.52
3872.54
3881.25
3889.56
3897.41
3904.69
3911.33
3917.24
3922.34
3926.56
3929.83
3932.08
3933.27
3933.36
3932.33
3930.14
3926.82
3922.39
3916.88
3910.34
3902.83
3894.45
3885.28
3875.42
3865.01
3854.14
3842.95
3831.56
3820.08
3808.62
3797.28
3786.14
3775.27
3764.74
3754.59
3744.85
3735.53
3726.65
3718.22
3710.23
3702.67
3695.53
3688.81
3682.51
3676.61
3671.11
3666
3661.29
3656.97
3653.04
3649.49
3646.35
3643.59
3641.23
3639.28
3637.74
3636.63
3635.98
3635.81
3636.15
3637.05
3638.56
3640.73
3643.63
3647.3
3651.81
3657.2
3663.52
3670.79
3679.02
3688.22
3698.35
3709.38
3721.23
3733.82
3747.05
3760.79
3774.92
3789.29
3803.74
3818.12
3832.27
3846.02
3859.24
3871.78
3883.52
3894.34
3904.13
3912.82
3920.35
3926.65
3931.71
3935.51
3938.06
3939.36
3939.43
3938.32
3936.06
3932.69
3928.24
3922.8
3916.42
3909.13
3901.02
3892.14
3882.57
3872.36
3861.61
3850.36
3838.71
3826.71
3814.43
3801.92
3789.26
3776.47
3763.6
3750.68
3737.75
3724.84
3711.97
3699.19
3686.62
3674.15
3661.91
3649.99
3638.47
3627.41
3616.86
3607.05
3598.85
3642.05
3658.2
3679.73
3701.75
3723.36
3744.25
3764.14
3782.91
3800.41
3816.57
3831.33
3844.63
3856.46
3866.81
3875.66
3883.05
3888.98
3893.48
3896.59
3898.32
3898.69
3897.82
3895.7
3892.35
3887.75
3881.94
3874.9
3866.67
3857.28
3846.76
3835.18
3822.6
3809.12
3794.81
3779.79
3764.2
3748.16
3731.83
3715.35
3698.89
3682.61
3666.6
3650.81
3635.91
3621.81
3608.6
3596.34
3585.11
3574.94
3565.83
3557.79
3550.77
3544.74
3539.64
3535.42
3532.02
3529.36
3527.42
3526.11
3525.42
3525.28
3525.68
3526.59
3528
3529.92
3532.37
3535.32
3538.79
3542.83
3547.41
3552.55
3558.21
3564.37
3570.99
3578.02
3585.41
3593.12
3601.1
3609.31
3617.73
3626.31
3635.04
3643.89
3652.86
3661.94
3671.12
3680.38
3689.67
3699.07
3708.55
3718.09
3727.66
3737.23
3746.75
3756.17
3765.43
3774.46
3783.18
3791.51
3799.36
3806.66
3813.31
3819.23
3824.34
3828.57
3831.84
3834.1
3835.3
3835.39
3834.35
3832.17
3828.85
3824.41
3818.89
3812.34
3804.83
3796.43
3787.25
3777.38
3766.95
3756.07
3744.87
3733.46
3721.96
3710.49
3699.14
3687.99
3677.12
3666.58
3656.43
3646.68
3637.36
3628.49
3620.06
3612.07
3604.51
3597.37
3590.66
3584.36
3578.46
3572.96
3567.85
3563.14
3558.82
3554.89
3551.35
3548.2
3545.45
3543.09
3541.13
3539.59
3538.48
3537.82
3537.65
3537.98
3538.88
3540.38
3542.55
3545.44
3549.1
3553.61
3558.99
3565.31
3572.58
3580.81
3590.01
3600.15
3611.18
3623.04
3635.64
3648.88
3662.63
3676.77
3691.17
3705.64
3720.03
3734.19
3747.97
3761.2
3773.76
3785.51
3796.33
3806.14
3814.84
3822.37
3828.68
3833.75
3837.55
3840.09
3841.39
3841.46
3840.35
3838.08
3834.7
3830.25
3824.8
3818.42
3811.12
3803
3794.12
3784.53
3774.32
3763.55
3752.3
3740.64
3728.63
3716.34
3703.83
3691.16
3678.36
3665.49
3652.57
3639.63
3626.72
3613.85
3601.06
3588.49
3576.01
3563.77
3551.84
3540.3
3529.23
3518.71
3509.02
3501.03
3543.88
3560.07
3581.64
3603.71
3625.35
3646.27
3666.19
3684.98
3702.5
3718.68
3733.44
3746.76
3758.6
3768.94
3777.8
3785.19
3791.12
3795.62
3798.72
3800.45
3800.82
3799.94
3797.82
3794.46
3789.86
3784.03
3776.99
3768.76
3759.35
3748.82
3737.23
3724.63
3711.13
3696.8
3681.75
3666.13
3650.07
3633.71
3617.21
3600.72
3584.41
3568.38
3552.57
3537.65
3523.54
3510.31
3498.05
3486.81
3476.63
3467.54
3459.5
3452.49
3446.47
3441.39
3437.18
3433.78
3431.14
3429.2
3427.91
3427.22
3427.09
3427.49
3428.41
3429.81
3431.74
3434.18
3437.12
3440.6
3444.63
3449.22
3454.36
3460.02
3466.19
3472.81
3479.84
3487.24
3494.95
3502.94
3511.16
3519.58
3528.16
3536.89
3545.75
3554.72
3563.8
3572.98
3582.24
3591.53
3600.93
3610.41
3619.96
3629.54
3639.12
3648.65
3658.08
3667.35
3676.4
3685.13
3693.47
3701.35
3708.66
3715.32
3721.26
3726.38
3730.62
3733.91
3736.18
3737.38
3737.48
3736.45
3734.26
3730.93
3726.49
3720.97
3714.4
3706.87
3698.46
3689.25
3679.37
3668.91
3658.01
3646.78
3635.36
3623.84
3612.35
3600.98
3589.82
3578.94
3568.39
3558.23
3548.48
3539.17
3530.29
3521.87
3513.87
3506.32
3499.19
3492.48
3486.18
3480.28
3474.78
3469.68
3464.97
3460.65
3456.72
3453.18
3450.03
3447.28
3444.92
3442.96
3441.42
3440.3
3439.64
3439.46
3439.79
3440.68
3442.17
3444.33
3447.2
3450.86
3455.35
3460.73
3467.04
3474.31
3482.55
3491.75
3501.89
3512.93
3524.8
3537.42
3550.67
3564.45
3578.61
3593.03
3607.52
3621.94
3636.13
3649.93
3663.19
3675.77
3687.54
3698.38
3708.21
3716.92
3724.46
3730.78
3735.85
3739.65
3742.19
3743.49
3743.56
3742.44
3740.16
3736.78
3732.32
3726.86
3720.46
3713.16
3705.03
3696.13
3686.53
3676.3
3665.52
3654.26
3642.58
3630.56
3618.26
3605.74
3593.06
3580.25
3567.37
3554.45
3541.51
3528.59
3515.71
3502.92
3490.35
3477.86
3465.6
3453.65
3442.09
3431.01
3420.43
3410.4
3402.16
3445.69
3461.94
3483.56
3505.68
3527.37
3548.33
3568.29
3587.11
3604.65
3620.85
3635.64
3648.96
3660.81
3671.16
3680.02
3687.41
3693.33
3697.83
3700.93
3702.65
3703.02
3702.13
3700.01
3696.64
3692.03
3686.2
3679.15
3670.9
3661.48
3650.93
3639.32
3626.7
3613.17
3598.81
3583.74
3568.09
3551.98
3535.59
3519.05
3502.53
3486.19
3470.12
3454.29
3439.34
3425.2
3411.96
3399.68
3388.44
3378.27
3369.17
3361.14
3354.15
3348.15
3343.07
3338.88
3335.5
3332.87
3330.95
3329.67
3328.99
3328.87
3329.28
3330.19
3331.6
3333.53
3335.96
3338.9
3342.38
3346.4
3350.99
3356.13
3361.8
3367.97
3374.6
3381.64
3389.05
3396.77
3404.76
3412.99
3421.41
3429.99
3438.73
3447.58
3456.56
3465.64
3474.82
3484.08
3493.37
3502.78
3512.27
3521.82
3531.41
3541
3550.54
3559.99
3569.28
3578.34
3587.1
3595.46
3603.35
3610.69
3617.37
3623.33
3628.47
3632.73
3636.03
3638.31
3639.53
3639.63
3638.6
3636.42
3633.09
3628.63
3623.09
3616.51
3608.96
3600.53
3591.3
3581.38
3570.9
3559.96
3548.71
3537.25
3525.71
3514.19
3502.8
3491.62
3480.73
3470.18
3460.01
3450.25
3440.94
3432.06
3423.64
3415.65
3408.1
3400.97
3394.27
3387.97
3382.08
3376.58
3371.48
3366.78
3362.46
3358.53
3354.99
3351.84
3349.09
3346.73
3344.77
3343.22
3342.1
3341.44
3341.24
3341.56
3342.44
3343.92
3346.07
3348.93
3352.57
3357.05
3362.42
3368.72
3375.99
3384.22
3393.43
3403.58
3414.63
3426.52
3439.15
3452.43
3466.24
3480.43
3494.88
3509.41
3523.86
3538.08
3551.91
3565.21
3577.81
3589.61
3600.48
3610.33
3619.06
3626.61
3632.94
3638.01
3641.82
3644.36
3645.66
3645.72
3644.59
3642.31
3638.92
3634.45
3628.98
3622.56
3615.24
3607.09
3598.18
3588.56
3578.32
3567.52
3556.23
3544.54
3532.5
3520.18
3507.65
3494.96
3482.14
3469.25
3456.32
3443.38
3430.45
3417.57
3404.76
3392.2
3379.69
3367.42
3355.45
3343.86
3332.75
3322.17
3312.48
3303.93
3347.48
3363.79
3385.49
3407.67
3429.43
3450.43
3470.43
3489.29
3506.87
3523.1
3537.9
3551.25
3563.1
3573.46
3582.32
3589.7
3595.63
3600.12
3603.21
3604.93
3605.29
3604.4
3602.26
3598.89
3594.27
3588.43
3581.37
3573.11
3563.67
3553.1
3541.46
3528.82
3515.26
3500.86
3485.74
3470.05
3453.9
3437.46
3420.88
3404.31
3387.93
3371.82
3355.95
3340.97
3326.81
3313.54
3301.25
3290
3279.83
3270.74
3262.73
3255.75
3249.76
3244.71
3240.54
3237.17
3234.57
3232.66
3231.39
3230.72
3230.61
3231.03
3231.95
3233.37
3235.28
3237.71
3240.65
3244.12
3248.14
3252.73
3257.88
3263.55
3269.73
3276.37
3283.42
3290.83
3298.56
3306.56
3314.79
3323.22
3331.81
3340.55
3349.41
3358.38
3367.46
3376.65
3385.91
3395.2
3404.61
3414.11
3423.67
3433.27
3442.87
3452.43
3461.9
3471.21
3480.3
3489.08
3497.47
3505.39
3512.75
3519.46
3525.44
3530.61
3534.89
3538.21
3540.51
3541.73
3541.85
3540.82
3538.64
3535.3
3530.84
3525.28
3518.68
3511.11
3502.64
3493.37
3483.42
3472.9
3461.93
3450.64
3439.14
3427.57
3416.02
3404.61
3393.41
3382.49
3371.93
3361.75
3351.99
3342.67
3333.8
3325.38
3317.4
3309.85
3302.73
3296.03
3289.74
3283.85
3278.36
3273.26
3268.56
3264.24
3260.31
3256.78
3253.63
3250.87
3248.51
3246.55
3245
3243.88
3243.2
3243
3243.31
3244.17
3245.64
3247.76
3250.61
3254.24
3258.7
3264.06
3270.35
3277.61
3285.84
3295.05
3305.21
3316.28
3328.19
3340.85
3354.16
3368
3382.23
3396.72
3411.29
3425.78
3440.05
3453.92
3467.25
3479.9
3491.73
3502.63
3512.5
3521.26
3528.83
3535.17
3540.25
3544.06
3546.6
3547.89
3547.95
3546.81
3544.52
3541.11
3536.63
3531.15
3524.71
3517.37
3509.2
3500.26
3490.63
3480.36
3469.53
3458.22
3446.51
3434.45
3422.11
3409.56
3396.85
3384.03
3371.13
3358.19
3345.24
3332.31
3319.41
3306.59
3294.03
3281.5
3269.21
3257.22
3245.6
3234.46
3223.82
3213.8
3205.2
3249.24
3265.64
3287.42
3309.68
3331.51
3352.58
3372.63
3391.53
3409.15
3425.41
3440.24
3453.6
3465.47
3475.84
3484.7
3492.08
3498
3502.49
3505.57
3507.28
3507.63
3506.74
3504.59
3501.21
3496.58
3490.73
3483.65
3475.37
3465.92
3455.32
3443.66
3430.98
3417.38
3402.94
3387.77
3372.03
3355.83
3339.33
3322.69
3306.07
3289.63
3273.48
3257.57
3242.55
3228.35
3215.06
3202.75
3191.5
3181.32
3172.24
3164.24
3157.29
3151.32
3146.29
3142.14
3138.8
3136.22
3134.33
3133.08
3132.43
3132.33
3132.76
3133.68
3135.1
3137.01
3139.43
3142.36
3145.83
3149.85
3154.44
3159.59
3165.27
3171.46
3178.11
3185.17
3192.59
3200.33
3208.34
3216.58
3225.02
3233.61
3242.35
3251.22
3260.19
3269.28
3278.46
3287.72
3297.02
3306.44
3315.94
3325.51
3335.12
3344.74
3354.32
3363.82
3373.15
3382.27
3391.08
3399.51
3407.46
3414.85
3421.59
3427.6
3432.8
3437.11
3440.45
3442.76
3444
3444.13
3443.1
3440.92
3437.58
3433.1
3427.53
3420.9
3413.29
3404.79
3395.49
3385.49
3374.93
3363.91
3352.57
3341.04
3329.42
3317.84
3306.39
3295.16
3284.23
3273.65
3263.46
3253.7
3244.38
3235.51
3227.09
3219.11
3211.57
3204.46
3197.76
3191.48
3185.6
3180.11
3175.02
3170.32
3166
3162.08
3158.54
3155.39
3152.64
3150.28
3148.31
3146.76
3145.63
3144.94
3144.73
3145.02
3145.86
3147.31
3149.42
3152.24
3155.85
3160.3
3165.64
3171.92
3179.17
3187.41
3196.62
3206.8
3217.88
3229.81
3242.51
3255.85
3269.73
3284.01
3298.55
3313.16
3327.71
3342.03
3355.95
3369.33
3382.02
3393.89
3404.83
3414.73
3423.51
3431.1
3437.46
3442.55
3446.37
3448.91
3450.2
3450.25
3449.1
3446.79
3443.37
3438.87
3433.37
3426.91
3419.55
3411.35
3402.39
3392.72
3382.42
3371.57
3360.24
3348.49
3336.41
3324.05
3311.48
3298.75
3285.91
3273
3260.05
3247.09
3234.15
3221.25
3208.41
3195.84
3183.29
3170.98
3158.96
3147.32
3136.14
3125.46
3115.48
3106.6
3150.98
3167.47
3189.35
3211.71
3233.62
3254.76
3274.88
3293.83
3311.5
3327.79
3342.65
3356.04
3367.92
3378.29
3387.16
3394.54
3400.45
3404.93
3408.01
3409.71
3410.05
3409.15
3406.99
3403.6
3398.96
3393.1
3386
3377.7
3368.22
3357.6
3345.9
3333.18
3319.53
3305.04
3289.82
3274.02
3257.75
3241.19
3224.48
3207.8
3191.31
3175.1
3159.14
3144.07
3129.83
3116.51
3104.19
3092.92
3082.75
3073.68
3065.7
3058.76
3052.82
3047.82
3043.7
3040.39
3037.83
3035.96
3034.73
3034.1
3034.02
3034.45
3035.38
3036.8
3038.71
3041.12
3044.05
3047.51
3051.53
3056.12
3061.27
3066.96
3073.16
3079.82
3086.89
3094.33
3102.08
3110.11
3118.35
3126.8
3135.4
3144.14
3153.01
3161.99
3171.07
3180.26
3189.52
3198.82
3208.25
3217.76
3227.34
3236.97
3246.61
3256.21
3265.73
3275.1
3284.25
3293.1
3301.56
3309.55
3316.98
3323.76
3329.8
3335.03
3339.37
3342.74
3345.08
3346.34
3346.47
3345.45
3343.27
3339.92
3335.43
3329.83
3323.17
3315.53
3306.99
3297.64
3287.59
3276.97
3265.9
3254.51
3242.93
3231.26
3219.64
3208.15
3196.89
3185.94
3175.34
3165.14
3155.37
3146.05
3137.18
3128.77
3120.8
3113.26
3106.16
3099.47
3093.19
3087.32
3081.84
3076.75
3072.05
3067.74
3063.82
3060.28
3057.14
3054.38
3052.02
3050.05
3048.49
3047.35
3046.65
3046.42
3046.7
3047.53
3048.95
3051.03
3053.84
3057.42
3061.85
3067.17
3073.44
3080.68
3088.91
3098.14
3108.32
3119.43
3131.39
3144.12
3157.51
3171.43
3185.76
3200.36
3215.04
3229.64
3244.02
3258
3271.43
3284.18
3296.1
3307.08
3317.02
3325.83
3333.45
3339.82
3344.92
3348.74
3351.29
3352.57
3352.61
3351.45
3349.13
3345.68
3341.17
3335.64
3329.15
3321.77
3313.54
3304.55
3294.85
3284.52
3273.64
3262.27
3250.49
3238.38
3225.99
3213.4
3200.65
3187.79
3174.87
3161.91
3148.94
3135.98
3123.08
3110.24
3097.63
3085.06
3072.74
3060.69
3049
3037.78
3027.05
3016.98
3007.91
3052.7
3069.3
3091.3
3113.76
3135.76
3156.99
3177.17
3196.19
3213.91
3230.25
3245.14
3258.55
3270.45
3280.83
3289.7
3297.08
3302.99
3307.46
3310.52
3312.21
3312.55
3311.63
3309.47
3306.06
3301.41
3295.53
3288.41
3280.09
3270.58
3259.93
3248.19
3235.43
3221.73
3207.18
3191.9
3176.02
3159.68
3143.05
3126.27
3109.51
3092.95
3076.67
3060.66
3045.54
3031.26
3017.9
3005.55
2994.27
2984.1
2975.05
2967.09
2960.18
2954.27
2949.3
2945.21
2941.93
2939.39
2937.55
2936.35
2935.74
2935.67
2936.12
2937.06
2938.48
2940.38
2942.79
2945.7
2949.16
2953.18
2957.76
2962.92
2968.62
2974.83
2981.5
2988.59
2996.05
3003.81
3011.85
3020.11
3028.56
3037.17
3045.92
3054.78
3063.77
3072.85
3082.04
3091.31
3100.61
3110.04
3119.56
3129.16
3138.8
3148.47
3158.1
3167.65
3177.05
3186.24
3195.13
3203.64
3211.67
3219.14
3225.96
3232.05
3237.32
3241.69
3245.09
3247.45
3248.73
3248.88
3247.87
3245.68
3242.32
3237.81
3232.19
3225.5
3217.82
3209.22
3199.82
3189.72
3179.04
3167.91
3156.46
3144.81
3133.1
3121.42
3109.89
3098.6
3087.62
3077
3066.78
3057.01
3047.69
3038.82
3030.41
3022.45
3014.93
3007.83
3001.15
2994.88
2989.01
2983.54
2978.46
2973.76
2969.45
2965.53
2962
2958.86
2956.1
2953.73
2951.76
2950.2
2949.05
2948.34
2948.09
2948.35
2949.15
2950.55
2952.61
2955.38
2958.94
2963.34
2968.65
2974.9
2982.13
2990.36
2999.59
3009.8
3020.93
3032.92
3045.69
3059.13
3073.11
3087.5
3102.16
3116.9
3131.58
3146.02
3160.07
3173.57
3186.37
3198.35
3209.38
3219.37
3228.21
3235.85
3242.25
3247.36
3251.19
3253.73
3255
3255.04
3253.86
3251.52
3248.06
3243.52
3237.97
3231.45
3224.03
3215.78
3206.75
3197.01
3186.64
3175.72
3164.32
3152.51
3140.36
3127.94
3115.32
3102.55
3089.67
3076.73
3063.75
3050.77
3037.81
3024.89
3012.05
2999.4
2986.82
2974.47
2962.39
2950.66
2939.39
2928.6
2918.48
2909.21
2954.39
2971.12
2993.24
3015.83
3037.94
3059.25
3079.52
3098.61
3116.38
3132.77
3147.7
3161.14
3173.06
3183.45
3192.32
3199.7
3205.6
3210.06
3213.11
3214.79
3215.11
3214.19
3212.01
3208.59
3203.92
3198.03
3190.89
3182.54
3173
3162.31
3150.53
3137.72
3123.96
3109.35
3093.99
3078.04
3061.62
3044.9
3028.03
3011.19
2994.55
2978.2
2962.13
2946.95
2932.62
2919.22
2906.85
2895.56
2885.39
2876.35
2868.41
2861.53
2855.66
2850.73
2846.67
2843.42
2840.92
2839.11
2837.94
2837.35
2837.3
2837.76
2838.71
2840.13
2842.03
2844.42
2847.33
2850.78
2854.79
2859.38
2864.54
2870.25
2876.47
2883.16
2890.27
2897.74
2905.52
2913.57
2921.84
2930.3
2938.92
2947.67
2956.55
2965.53
2974.62
2983.81
2993.08
3002.39
3011.83
3021.36
3030.97
3040.63
3050.32
3059.98
3069.57
3079.01
3088.24
3097.18
3105.73
3113.81
3121.34
3128.2
3134.34
3139.65
3144.06
3147.49
3149.89
3151.19
3151.35
3150.35
3148.16
3144.79
3140.26
3134.61
3127.88
3120.15
3111.51
3102.04
3091.87
3081.13
3069.93
3058.41
3046.7
3034.92
3023.19
3011.62
3000.28
2989.27
2978.62
2968.4
2958.61
2949.29
2940.43
2932.03
2924.07
2916.56
2909.47
2902.81
2896.55
2890.68
2885.22
2880.14
2875.45
2871.15
2867.23
2863.7
2860.55
2857.8
2855.43
2853.45
2851.88
2850.72
2850
2849.74
2849.97
2850.75
2852.12
2854.14
2856.89
2860.41
2864.79
2870.07
2876.3
2883.53
2891.76
2900.99
2911.21
2922.38
2934.41
2947.22
2960.71
2974.76
2989.21
3003.94
3018.76
3033.52
3048.04
3062.16
3075.74
3088.61
3100.65
3111.74
3121.77
3130.65
3138.32
3144.74
3149.87
3153.7
3156.24
3157.51
3157.53
3156.34
3153.98
3150.49
3145.93
3140.35
3133.8
3126.35
3118.05
3108.98
3099.21
3088.8
3077.83
3066.38
3054.53
3042.35
3029.9
3017.24
3004.44
2991.54
2978.58
2965.59
2952.6
2939.62
2926.69
2913.84
2901.16
2888.57
2876.18
2864.06
2852.3
2840.97
2830.12
2819.92
2810.45
2856.06
2872.92
2895.2
2917.92
2940.14
2961.56
2981.92
3001.09
3018.92
3035.36
3050.33
3063.8
3075.75
3086.15
3095.03
3102.4
3108.29
3112.74
3115.78
3117.44
3117.75
3116.81
3114.62
3111.19
3106.51
3100.59
3093.43
3085.06
3075.48
3064.75
3052.92
3040.05
3026.23
3011.55
2996.11
2980.07
2963.56
2946.74
2929.78
2912.85
2896.13
2879.69
2863.55
2848.3
2833.92
2820.48
2808.07
2796.77
2786.61
2777.58
2769.67
2762.83
2756.99
2752.1
2748.08
2744.87
2742.41
2740.63
2739.49
2738.92
2738.9
2739.37
2740.33
2741.75
2743.64
2746.02
2748.92
2752.36
2756.37
2760.96
2766.12
2771.85
2778.08
2784.79
2791.92
2799.41
2807.21
2815.27
2823.56
2832.03
2840.66
2849.42
2858.29
2867.28
2876.37
2885.56
2894.83
2904.15
2913.59
2923.14
2932.77
2942.45
2952.17
2961.86
2971.49
2980.98
2990.26
2999.24
3007.85
3015.99
3023.56
3030.49
3036.67
3042.03
3046.48
3049.96
3052.38
3053.71
3053.89
3052.89
3050.7
3047.33
3042.78
3037.09
3030.32
3022.54
3013.83
3004.3
2994.06
2983.24
2971.96
2960.36
2948.58
2936.73
2924.94
2913.31
2901.94
2890.89
2880.22
2869.98
2860.19
2850.86
2842
2833.61
2825.66
2818.16
2811.09
2804.43
2798.18
2792.33
2786.87
2781.8
2777.11
2772.81
2768.9
2765.37
2762.23
2759.47
2757.1
2755.12
2753.54
2752.37
2751.63
2751.35
2751.56
2752.31
2753.65
2755.64
2758.35
2761.84
2766.18
2771.44
2777.65
2784.86
2793.09
2802.34
2812.58
2823.77
2835.84
2848.71
2862.26
2876.37
2890.9
2905.71
2920.62
2935.46
2950.07
2964.28
2977.93
2990.88
3002.99
3014.14
3024.22
3033.15
3040.86
3047.3
3052.44
3056.28
3058.82
3060.08
3060.09
3058.88
3056.5
3052.99
3048.4
3042.78
3036.2
3028.7
3020.37
3011.25
3001.43
2990.98
2979.96
2968.47
2956.57
2944.34
2931.86
2919.17
2906.34
2893.41
2880.43
2867.42
2854.42
2841.43
2828.49
2815.62
2802.91
2790.29
2777.88
2765.72
2753.9
2742.51
2731.61
2721.33
2711.69
2757.71
2774.72
2797.16
2820.03
2842.38
2863.92
2884.37
2903.62
2921.53
2938.03
2953.05
2966.55
2978.51
2988.93
2997.81
3005.18
3011.06
3015.5
3018.53
3020.17
3020.47
3019.52
3017.31
3013.86
3009.16
3003.22
2996.04
2987.63
2978.02
2967.24
2955.36
2942.43
2928.54
2913.78
2898.25
2882.11
2865.5
2848.58
2831.52
2814.49
2797.67
2781.14
2764.92
2749.6
2735.15
2721.67
2709.23
2697.91
2687.75
2678.74
2670.86
2664.06
2658.26
2653.42
2649.44
2646.27
2643.85
2642.11
2641
2640.47
2640.46
2640.96
2641.92
2643.34
2645.23
2647.6
2650.48
2653.91
2657.91
2662.5
2667.68
2673.41
2679.67
2686.4
2693.54
2701.05
2708.88
2716.96
2725.26
2733.74
2742.38
2751.14
2760.02
2769.01
2778.1
2787.3
2796.57
2805.9
2815.35
2824.91
2834.55
2844.26
2854
2863.74
2873.41
2882.95
2892.28
2901.33
2909.99
2918.19
2925.82
2932.81
2939.05
2944.46
2948.96
2952.48
2954.94
2956.29
2956.49
2955.51
2953.32
2949.93
2945.35
2939.63
2932.81
2924.98
2916.2
2906.6
2896.27
2885.37
2874
2862.32
2850.46
2838.54
2826.68
2814.99
2803.57
2792.48
2781.78
2771.52
2761.72
2752.39
2743.54
2735.15
2727.22
2719.73
2712.67
2706.03
2699.79
2693.95
2688.5
2683.43
2678.75
2674.46
2670.55
2667.02
2663.88
2661.12
2658.75
2656.77
2655.18
2654
2653.24
2652.94
2653.12
2653.83
2655.14
2657.09
2659.76
2663.22
2667.52
2672.75
2678.94
2686.14
2694.37
2703.62
2713.88
2725.11
2737.23
2750.15
2763.77
2777.96
2792.57
2807.47
2822.47
2837.41
2852.11
2866.41
2880.16
2893.19
2905.38
2916.6
2926.74
2935.72
2943.46
2949.93
2955.09
2958.93
2961.47
2962.72
2962.72
2961.49
2959.08
2955.54
2950.92
2945.27
2938.64
2931.11
2922.73
2913.56
2903.69
2893.18
2882.12
2870.57
2858.63
2846.35
2833.82
2821.09
2808.23
2795.28
2782.28
2769.25
2756.23
2743.23
2730.27
2717.39
2704.64
2692
2679.56
2667.36
2655.48
2644.03
2633.06
2622.7
2612.89
2659.33
2676.51
2699.13
2722.16
2744.66
2766.31
2786.88
2806.22
2824.2
2840.76
2855.83
2869.37
2881.36
2891.79
2900.68
2908.04
2913.91
2918.34
2921.35
2922.98
2923.26
2922.29
2920.07
2916.6
2911.89
2905.93
2898.71
2890.27
2880.62
2869.79
2857.85
2844.86
2830.89
2816.04
2800.42
2784.17
2767.44
2750.41
2733.24
2716.1
2699.17
2682.54
2666.24
2650.84
2636.32
2622.79
2610.32
2598.98
2588.82
2579.83
2571.99
2565.23
2559.48
2554.68
2550.75
2547.63
2545.26
2543.56
2542.48
2541.98
2542
2542.51
2543.48
2544.91
2546.79
2549.15
2552.02
2555.43
2559.42
2564.01
2569.2
2574.94
2581.22
2587.97
2595.14
2602.68
2610.52
2618.62
2626.94
2635.43
2644.08
2652.85
2661.74
2670.73
2679.82
2689.02
2698.3
2707.63
2717.09
2726.66
2736.32
2746.06
2755.84
2765.61
2775.33
2784.92
2794.32
2803.42
2812.16
2820.42
2828.12
2835.16
2841.47
2846.94
2851.49
2855.06
2857.56
2858.94
2859.16
2858.19
2855.99
2852.59
2847.99
2842.23
2835.36
2827.46
2818.61
2808.93
2798.52
2787.52
2776.06
2764.29
2752.34
2740.33
2728.4
2716.65
2705.17
2694.04
2683.31
2673.03
2663.22
2653.89
2645.04
2636.67
2628.75
2621.27
2614.23
2607.6
2601.37
2595.54
2590.1
2585.04
2580.37
2576.08
2572.18
2568.65
2565.51
2562.76
2560.38
2558.39
2556.79
2555.6
2554.82
2554.5
2554.65
2555.33
2556.59
2558.5
2561.13
2564.54
2568.81
2574.01
2580.17
2587.36
2595.58
2604.85
2615.13
2626.4
2638.57
2651.55
2665.24
2679.51
2694.22
2709.22
2724.32
2739.36
2754.17
2768.57
2782.41
2795.54
2807.81
2819.1
2829.31
2838.34
2846.13
2852.62
2857.8
2861.65
2864.19
2865.44
2865.41
2864.17
2861.73
2858.16
2853.5
2847.81
2841.14
2833.56
2825.13
2815.91
2805.98
2795.42
2784.3
2772.7
2760.69
2748.37
2735.79
2723.02
2710.12
2697.14
2684.11
2671.07
2658.03
2645.01
2632.04
2619.14
2606.37
2593.7
2581.22
2568.97
2557.04
2545.52
2534.48
2524.04
2514.07
2560.93
2578.3
2601.1
2624.31
2646.96
2668.75
2689.43
2708.87
2726.94
2743.57
2758.7
2772.28
2784.29
2794.74
2803.62
2810.98
2816.84
2821.25
2824.25
2825.86
2826.12
2825.14
2822.9
2819.42
2814.68
2808.69
2801.45
2792.97
2783.28
2772.39
2760.39
2747.33
2733.28
2718.33
2702.6
2686.24
2669.39
2652.24
2634.94
2617.68
2600.64
2583.9
2567.51
2552.02
2537.43
2523.84
2511.33
2499.98
2489.82
2480.86
2473.05
2466.33
2460.64
2455.89
2452.02
2448.95
2446.62
2444.97
2443.93
2443.46
2443.51
2444.04
2445.02
2446.45
2448.32
2450.67
2453.52
2456.92
2460.9
2465.49
2470.68
2476.45
2482.74
2489.52
2496.72
2504.28
2512.14
2520.27
2528.6
2537.11
2545.77
2554.55
2563.44
2572.43
2581.53
2590.72
2600
2609.34
2618.82
2628.4
2638.09
2647.85
2657.66
2667.48
2677.25
2686.9
2696.36
2705.54
2714.34
2722.67
2730.45
2737.56
2743.93
2749.46
2754.08
2757.69
2760.24
2761.66
2761.9
2760.93
2758.74
2755.32
2750.69
2744.89
2737.97
2730
2721.07
2711.3
2700.79
2689.69
2678.13
2666.26
2654.21
2642.11
2630.1
2618.28
2606.74
2595.56
2584.81
2574.51
2564.69
2555.36
2546.52
2538.15
2530.24
2522.78
2515.76
2509.14
2502.93
2497.11
2491.68
2486.63
2481.97
2477.68
2473.78
2470.26
2467.12
2464.36
2461.99
2459.99
2458.39
2457.18
2456.38
2456.03
2456.15
2456.79
2458.01
2459.88
2462.46
2465.82
2470.05
2475.21
2481.35
2488.52
2496.74
2506.01
2516.32
2527.63
2539.85
2552.91
2566.68
2581.04
2595.84
2610.95
2626.16
2641.31
2656.23
2670.75
2684.7
2697.92
2710.29
2721.66
2731.94
2741.03
2748.86
2755.39
2760.58
2764.45
2766.98
2768.21
2768.18
2766.9
2764.44
2760.83
2756.14
2750.4
2743.69
2736.06
2727.57
2718.3
2708.31
2697.68
2686.5
2674.83
2662.77
2650.39
2637.76
2624.95
2612.01
2599
2585.94
2572.88
2559.82
2546.79
2533.8
2520.88
2508.08
2495.38
2482.87
2470.57
2458.57
2446.98
2435.87
2425.34
2415.23
2462.5
2480.07
2503.08
2526.49
2549.3
2571.24
2592.04
2611.59
2629.75
2646.45
2661.63
2675.26
2687.31
2697.77
2706.65
2714
2719.85
2724.24
2727.22
2728.81
2729.06
2728.06
2725.8
2722.3
2717.54
2711.53
2704.26
2695.74
2685.99
2675.05
2662.99
2649.84
2635.71
2620.66
2604.81
2588.33
2571.35
2554.06
2536.62
2519.24
2502.07
2485.21
2468.73
2453.15
2438.47
2424.81
2412.26
2400.9
2390.74
2381.81
2374.04
2367.37
2361.74
2357.05
2353.23
2350.22
2347.94
2346.34
2345.35
2344.91
2344.99
2345.55
2346.54
2347.97
2349.83
2352.15
2354.99
2358.37
2362.34
2366.93
2372.13
2377.91
2384.23
2391.04
2398.27
2405.85
2413.75
2421.89
2430.25
2438.77
2447.44
2456.23
2465.13
2474.12
2483.22
2492.41
2501.7
2511.05
2520.53
2530.13
2539.83
2549.63
2559.48
2569.34
2579.17
2588.88
2598.41
2607.66
2616.54
2624.96
2632.81
2640
2646.44
2652.04
2656.72
2660.39
2662.98
2664.44
2664.7
2663.75
2661.56
2658.12
2653.46
2647.61
2640.63
2632.59
2623.58
2613.7
2603.09
2591.88
2580.21
2568.23
2556.08
2543.88
2531.78
2519.88
2508.28
2497.06
2486.27
2475.95
2466.12
2456.79
2447.95
2439.6
2431.71
2424.27
2417.25
2410.66
2404.46
2398.66
2393.24
2388.2
2383.54
2379.26
2375.36
2371.84
2368.71
2365.95
2363.57
2361.57
2359.96
2358.73
2357.92
2357.53
2357.62
2358.22
2359.39
2361.21
2363.74
2367.06
2371.24
2376.35
2382.46
2389.61
2397.83
2407.12
2417.46
2428.8
2441.09
2454.22
2468.07
2482.53
2497.44
2512.66
2528
2543.27
2558.32
2572.95
2587.02
2600.35
2612.81
2624.28
2634.63
2643.78
2651.66
2658.22
2663.44
2667.31
2669.84
2671.06
2671.01
2669.71
2667.21
2663.57
2658.83
2653.05
2646.29
2638.6
2630.05
2620.72
2610.67
2599.97
2588.72
2576.99
2564.87
2552.42
2539.74
2526.88
2513.9
2500.85
2487.76
2474.68
2461.6
2448.55
2435.55
2422.61
2409.78
2397.05
2384.5
2372.14
2360.07
2348.4
2337.22
2326.61
2316.36
2364.04
2381.83
2405.08
2428.69
2451.68
2473.77
2494.71
2514.37
2532.63
2549.41
2564.65
2578.33
2590.4
2600.88
2609.77
2617.1
2622.94
2627.32
2630.27
2631.85
2632.07
2631.05
2628.77
2625.25
2620.47
2614.44
2607.13
2598.57
2588.77
2577.77
2565.63
2552.41
2538.18
2523.02
2507.05
2490.43
2473.31
2455.87
2438.29
2420.76
2403.47
2386.48
2369.89
2354.21
2339.45
2325.72
2313.13
2301.74
2291.59
2282.68
2274.96
2268.35
2262.78
2258.16
2254.4
2251.45
2249.22
2247.67
2246.73
2246.34
2246.45
2247.02
2248.03
2249.46
2251.31
2253.61
2256.43
2259.79
2263.75
2268.34
2273.55
2279.35
2285.7
2292.53
2299.79
2307.41
2315.33
2323.5
2331.87
2340.42
2349.1
2357.9
2366.8
2375.79
2384.89
2394.09
2403.38
2412.73
2422.22
2431.84
2441.57
2451.39
2461.29
2471.2
2481.09
2490.87
2500.48
2509.81
2518.77
2527.27
2535.2
2542.47
2548.99
2554.67
2559.41
2563.14
2565.79
2567.28
2567.57
2566.63
2564.44
2560.99
2556.29
2550.4
2543.35
2535.23
2526.12
2516.15
2505.42
2494.1
2482.31
2470.21
2457.94
2445.64
2433.45
2421.47
2409.8
2398.52
2387.69
2377.35
2367.51
2358.18
2349.35
2341.01
2333.14
2325.72
2318.72
2312.14
2305.97
2300.17
2294.77
2289.74
2285.08
2280.81
2276.92
2273.41
2270.27
2267.52
2265.14
2263.13
2261.5
2260.26
2259.42
2259.01
2259.06
2259.62
2260.74
2262.5
2264.97
2268.24
2272.37
2277.44
2283.52
2290.65
2298.86
2308.16
2318.53
2329.92
2342.27
2355.48
2369.43
2383.99
2399.02
2414.36
2429.83
2445.24
2460.41
2475.18
2489.36
2502.82
2515.39
2526.95
2537.38
2546.6
2554.53
2561.12
2566.36
2570.24
2572.77
2573.98
2573.9
2572.58
2570.05
2566.37
2561.58
2555.75
2548.93
2541.19
2532.58
2523.18
2513.06
2502.29
2490.97
2479.17
2466.97
2454.46
2441.72
2428.8
2415.78
2402.69
2389.58
2376.47
2363.37
2350.31
2337.29
2324.32
2311.46
2298.71
2286.11
2273.7
2261.55
2249.8
2238.54
2227.84
2217.48
2265.56
2283.59
2307.08
2330.91
2354.09
2376.34
2397.42
2417.21
2435.57
2452.43
2467.75
2481.47
2493.58
2504.07
2512.96
2520.29
2526.11
2530.46
2533.4
2534.95
2535.15
2534.11
2531.82
2528.28
2523.48
2517.41
2510.07
2501.46
2491.61
2480.54
2468.33
2455.02
2440.69
2425.41
2409.31
2392.55
2375.27
2357.67
2339.94
2322.26
2304.82
2287.7
2271
2255.2
2240.35
2226.55
2213.91
2202.5
2192.37
2183.49
2175.81
2169.27
2163.76
2159.21
2155.52
2152.63
2150.46
2148.97
2148.07
2147.73
2147.88
2148.48
2149.49
2150.92
2152.76
2155.05
2157.83
2161.18
2165.12
2169.71
2174.93
2180.75
2187.13
2193.99
2201.29
2208.94
2216.89
2225.09
2233.48
2242.04
2250.74
2259.55
2268.45
2277.45
2286.55
2295.75
2305.04
2314.4
2323.9
2333.53
2343.29
2353.15