/*--------------------------------*- C++ -*----------------------------------*\
| =========                 |                                                 |
| \\      /  F ield         | OpenFOAM: The Open Source CFD Toolbox           |
|  \\    /   O peration     | Version:  3.0.1                                 |
|   \\  /    A nd           | Web:      www.OpenFOAM.org                      |
|    \\/     M anipulation  |                                                 |
\*---------------------------------------------------------------------------*/
FoamFile
{
    version     2.0;
    format      ascii;
    class       surfaceScalarField;
    location    "20.2";
    object      phi;
}
// * * * * * * * * * * * * * * * * * * * * * * * * * * * * * * * * * * * * * //

dimensions      [0 3 -1 0 0 0 0];

internalField   nonuniform List<scalar> 
42423
(
-3.28121e-05
1.63637e-05
-4.8322e-05
1.55099e-05
-6.30713e-05
1.47493e-05
-7.69763e-05
1.39049e-05
-8.99384e-05
1.29621e-05
-0.00010201
1.20712e-05
-0.000113135
1.11253e-05
-0.000123375
1.024e-05
-0.000132729
9.35366e-06
-0.0001412
8.47134e-06
-0.00014884
7.64002e-06
-0.000155659
6.81858e-06
-0.000161698
6.03931e-06
-0.000166995
5.29671e-06
-0.000171546
4.55146e-06
-0.00017539
3.84375e-06
-0.000178558
3.16806e-06
-0.000181047
2.48925e-06
-0.000182846
1.79928e-06
-0.000183995
1.14845e-06
-0.000184498
5.03302e-07
-0.000184241
-2.57424e-07
-0.000183235
-1.0054e-06
-0.000181442
-1.79291e-06
-0.00017893
-2.51188e-06
-0.000175577
-3.35337e-06
-0.000171421
-4.15605e-06
-0.000166452
-4.9689e-06
-0.000160516
-5.93592e-06
-0.000153678
-6.83783e-06
-0.000145973
-7.70522e-06
-0.000137198
-8.7751e-06
-0.000127492
-9.70661e-06
-0.0001166
-1.08914e-05
-0.00010473
-1.18701e-05
-9.19104e-05
-1.28198e-05
-7.80139e-05
-1.38964e-05
-6.31409e-05
-1.4873e-05
-4.72732e-05
-1.58678e-05
-3.04354e-05
-1.68378e-05
-1.29785e-05
-1.74569e-05
5.25468e-06
-1.82332e-05
2.40212e-05
-1.87665e-05
4.29851e-05
-1.8964e-05
6.21387e-05
-1.91536e-05
8.12744e-05
-1.91357e-05
9.99654e-05
-1.86911e-05
0.000118144
-1.81783e-05
0.000135572
-1.74282e-05
0.000151859
-1.62869e-05
0.000166878
-1.50193e-05
0.000180343
-1.34652e-05
0.000192093
-1.17501e-05
0.000201966
-9.87243e-06
0.000209662
-7.6959e-06
0.000215161
-5.49961e-06
0.000218342
-3.18095e-06
0.000219079
-7.37202e-07
0.00021741
1.66924e-06
0.000213328
4.08233e-06
0.000206994
6.33353e-06
0.000198528
8.46643e-06
0.000187971
1.0557e-05
0.000175551
1.24201e-05
0.000161482
1.40689e-05
0.000145916
1.55653e-05
0.000129186
1.67307e-05
0.00011148
1.77054e-05
9.30467e-05
1.84336e-05
7.42124e-05
1.88343e-05
5.52077e-05
1.90047e-05
3.62247e-05
1.89831e-05
1.73542e-05
1.88704e-05
-1.00634e-06
1.83606e-05
-1.87924e-05
1.77861e-05
-3.59216e-05
1.71292e-05
-5.22439e-05
1.63223e-05
-6.77588e-05
1.55148e-05
-8.22877e-05
1.45289e-05
-9.59033e-05
1.36156e-05
-0.000108532
1.26291e-05
-0.000120119
1.1587e-05
-0.000130712
1.05931e-05
-0.000140315
9.6026e-06
-0.000148852
8.53685e-06
-0.000156428
7.57599e-06
-0.000163036
6.6077e-06
-0.0001686
5.56491e-06
-0.000173272
4.67133e-06
-0.000177038
3.76649e-06
-0.000179958
2.91958e-06
-0.000182102
2.14382e-06
-0.000183451
1.3494e-06
-0.000184034
5.82691e-07
-0.000183919
-1.1505e-07
-0.000183043
-8.76032e-07
-0.000181684
-1.35847e-06
-0.000179666
-2.01864e-06
-0.000176944
-2.72205e-06
-0.000173722
-3.22144e-06
-0.000169939
-3.78301e-06
-0.000165297
-4.64226e-06
-0.000159995
-5.30235e-06
-0.000153975
-6.01915e-06
-0.000147067
-6.9085e-06
-0.00013932
-7.74742e-06
-0.000130723
-8.59653e-06
-0.00012123
-9.49318e-06
-0.000110874
-1.03554e-05
-9.95763e-05
-1.12982e-05
-8.7352e-05
-1.22243e-05
-7.42124e-05
-1.31397e-05
-6.01825e-05
-1.40299e-05
-4.53008e-05
-1.48818e-05
-2.96384e-05
-1.56624e-05
-1.31944e-05
-1.64441e-05
3.84542e-06
-1.70399e-05
2.14704e-05
-1.7625e-05
3.94729e-05
-1.80025e-05
5.76971e-05
-1.82243e-05
7.59906e-05
-1.82935e-05
9.41284e-05
-1.81379e-05
0.00011186
-1.77318e-05
0.000128913
-1.70527e-05
0.000145044
-1.61316e-05
0.000159955
-1.49102e-05
0.000173356
-1.34014e-05
0.000185029
-1.16728e-05
0.000194726
-9.69742e-06
0.000202252
-7.5256e-06
0.000207457
-5.20505e-06
0.000210265
-2.808e-06
0.000210598
-3.33839e-07
0.000208471
2.12748e-06
0.000203854
4.61651e-06
0.000196934
6.92036e-06
0.000187825
9.10922e-06
0.000176707
1.11172e-05
0.000163784
1.2923e-05
0.00014929
1.44939e-05
0.00013349
1.58e-05
0.000116618
1.68721e-05
9.89849e-05
1.76335e-05
8.07786e-05
1.82063e-05
6.2225e-05
1.85537e-05
4.36656e-05
1.85594e-05
2.53007e-05
1.83649e-05
7.24844e-06
1.80523e-05
-1.03349e-05
1.75834e-05
-2.72469e-05
1.6912e-05
-4.33932e-05
1.61463e-05
-5.86785e-05
1.52853e-05
-7.30515e-05
1.4373e-05
-8.63867e-05
1.33352e-05
-9.86116e-05
1.22249e-05
-0.000109844
1.12322e-05
-0.000120007
1.01637e-05
-0.000129161
9.15411e-06
-0.000137518
8.35681e-06
-0.0001448
7.28176e-06
-0.000151259
6.45899e-06
-0.000156928
5.66864e-06
-0.000161754
4.82632e-06
-0.000165866
4.11159e-06
-0.000169308
3.44288e-06
-0.00017207
2.7619e-06
-0.000174215
2.14492e-06
-0.000175728
1.51272e-06
-0.000176556
8.2841e-07
-0.000176893
3.36278e-07
-0.00017659
-3.0256e-07
-0.000175491
-1.09941e-06
-0.000173838
-1.65299e-06
-0.000171602
-2.23612e-06
-0.000168653
-2.94901e-06
-0.000164971
-3.68198e-06
-0.000160256
-4.71511e-06
-0.00015476
-5.49529e-06
-0.000148511
-6.24974e-06
-0.000141325
-7.18589e-06
-0.000133204
-8.12064e-06
-0.000124176
-9.02756e-06
-0.000114191
-9.98532e-06
-0.000103363
-1.08282e-05
-9.15043e-05
-1.18588e-05
-7.86994e-05
-1.28049e-05
-6.50025e-05
-1.36968e-05
-5.0399e-05
-1.46036e-05
-3.50008e-05
-1.53982e-05
-1.88624e-05
-1.61384e-05
-2.08511e-06
-1.67773e-05
1.52476e-05
-1.73328e-05
3.29664e-05
-1.77188e-05
5.09506e-05
-1.79842e-05
6.90033e-05
-1.80527e-05
8.68603e-05
-1.7857e-05
0.000104372
-1.75121e-05
0.000121323
-1.69511e-05
0.000137417
-1.60935e-05
0.000152453
-1.5036e-05
0.000166171
-1.37184e-05
0.000178322
-1.21503e-05
0.000188674
-1.03521e-05
0.000197075
-8.401e-06
0.000203322
-6.24746e-06
0.000207224
-3.90156e-06
0.000208768
-1.54439e-06
0.000207913
8.54998e-07
0.000204577
3.33565e-06
0.000198802
5.77507e-06
0.000190711
8.09103e-06
0.000180452
1.02592e-05
0.000168176
1.22754e-05
0.000154147
1.40297e-05
0.000138595
1.55513e-05
0.000121857
1.67385e-05
0.000104251
1.76055e-05
8.59572e-05
1.82943e-05
6.72838e-05
1.86734e-05
4.85616e-05
1.87222e-05
3.00044e-05
1.85572e-05
1.19444e-05
1.806e-05
-5.63488e-06
1.75793e-05
-2.22907e-05
1.66559e-05
-3.79397e-05
1.56489e-05
-5.27043e-05
1.47647e-05
-6.65156e-05
1.38113e-05
-7.9211e-05
1.26955e-05
-9.09547e-05
1.17437e-05
-0.000101569
1.06145e-05
-0.000111343
9.77363e-06
-0.000120201
8.85803e-06
-0.000128139
7.93831e-06
-0.000135294
7.15528e-06
-0.000141761
6.4662e-06
-0.00014757
5.80906e-06
-0.000152754
5.18466e-06
-0.00015728
4.52588e-06
-0.000161271
3.99078e-06
-0.000164726
3.45529e-06
-0.000167586
2.85955e-06
-0.000169842
2.2566e-06
-0.000171585
1.74222e-06
-0.000172809
1.22471e-06
-0.000173256
4.46122e-07
-0.000173103
-1.52398e-07
-0.000172049
-1.0543e-06
-0.000170262
-1.7873e-06
-0.000167771
-2.49004e-06
-0.000164353
-3.41832e-06
-0.000159957
-4.39575e-06
-0.000154656
-5.30185e-06
-0.000148511
-6.14504e-06
-0.000141334
-7.17637e-06
-0.000132938
-8.39594e-06
-0.000123587
-9.3512e-06
-0.000113177
-1.04097e-05
-0.000101715
-1.14629e-05
-8.93157e-05
-1.23989e-05
-7.59495e-05
-1.33662e-05
-6.16573e-05
-1.42921e-05
-4.6556e-05
-1.51013e-05
-3.07029e-05
-1.58532e-05
-1.42045e-05
-1.64984e-05
2.79346e-06
-1.6998e-05
2.0201e-05
-1.74076e-05
3.78029e-05
-1.76019e-05
5.54956e-05
-1.76928e-05
7.30988e-05
-1.76032e-05
9.03614e-05
-1.72626e-05
0.000107141
-1.67801e-05
0.000123229
-1.60874e-05
0.000138467
-1.52379e-05
0.000152634
-1.4167e-05
0.000165525
-1.28918e-05
0.000176989
-1.1464e-05
0.00018685
-9.86084e-06
0.000195051
-8.20035e-06
0.000201325
-6.27424e-06
0.000205607
-4.28246e-06
0.000207716
-2.10906e-06
0.000207737
-2.05636e-08
0.000205675
2.06187e-06
0.000201472
4.20304e-06
0.000195289
6.18331e-06
0.0001871
8.18823e-06
0.00017698
1.01199e-05
0.00016512
1.18607e-05
0.000151637
1.3483e-05
0.000136812
1.48241e-05
0.000120737
1.6075e-05
0.000103735
1.70023e-05
8.60605e-05
1.76747e-05
6.78489e-05
1.82116e-05
4.93177e-05
1.85312e-05
3.0821e-05
1.84966e-05
1.25345e-05
1.82865e-05
-5.43252e-06
1.7967e-05
-2.28716e-05
1.7439e-05
-3.96448e-05
1.67732e-05
-5.55935e-05
1.59487e-05
-7.06775e-05
1.5084e-05
-8.47576e-05
1.40801e-05
-9.77836e-05
1.3026e-05
-0.000109743
1.19597e-05
-0.000120577
1.08339e-05
-0.000130288
9.71136e-06
-0.000138882
8.59317e-06
-0.000146381
7.4989e-06
-0.000152823
6.44289e-06
-0.000158235
5.4118e-06
-0.000162654
4.41852e-06
-0.000166113
3.45973e-06
-0.000168652
2.53838e-06
-0.000170392
1.73977e-06
-0.000171373
9.80916e-07
-0.000171592
2.19695e-07
-0.000170991
-6.01248e-07
-0.000169662
-1.32866e-06
-0.000167671
-1.99111e-06
-0.000165052
-2.61891e-06
-0.000161853
-3.19911e-06
-0.000157897
-3.95581e-06
-0.000153376
-4.52142e-06
-0.000148181
-5.19536e-06
-0.000142382
-5.79847e-06
-0.000135996
-6.38596e-06
-0.000128843
-7.15322e-06
-0.00012094
-7.90329e-06
-0.000112375
-8.56468e-06
-0.000103009
-9.36627e-06
-9.28252e-05
-1.01836e-05
-8.201e-05
-1.08152e-05
-7.03061e-05
-1.1704e-05
-5.78364e-05
-1.24697e-05
-4.44972e-05
-1.33391e-05
-3.04779e-05
-1.40193e-05
-1.58691e-05
-1.46088e-05
-5.19854e-07
-1.53493e-05
1.54224e-05
-1.59423e-05
3.16894e-05
-1.6267e-05
4.84039e-05
-1.67145e-05
6.52809e-05
-1.6877e-05
8.23452e-05
-1.70643e-05
9.93204e-05
-1.69753e-05
0.00011593
-1.66093e-05
0.000132086
-1.61566e-05
0.000147534
-1.54482e-05
0.000161995
-1.44602e-05
0.000175339
-1.33441e-05
0.000187303
-1.19646e-05
0.000197654
-1.03508e-05
0.00020613
-8.47587e-06
0.000212466
-6.33686e-06
0.000216501
-4.03503e-06
0.000218161
-1.65997e-06
7.64639e-07
-3.28434e-05
3.27304e-05
-4.83555e-05
3.1022e-05
-6.31076e-05
2.95013e-05
-7.70158e-05
2.78132e-05
-8.99801e-05
2.59264e-05
-0.000102052
2.41434e-05
-0.000113179
2.22519e-05
-0.00012342
2.04813e-05
-0.000132775
1.87083e-05
-0.000141247
1.69439e-05
-0.000148887
1.52795e-05
-0.000155709
1.3641e-05
-0.000161747
1.20769e-05
-0.00016705
1.05996e-05
-0.000171607
9.10871e-06
-0.000175446
7.68255e-06
-0.000178608
6.32998e-06
-0.0001811
4.98181e-06
-0.000182903
3.60152e-06
-0.000184047
2.29302e-06
-0.00018455
1.00635e-06
-0.000184293
-5.14569e-07
-0.000183291
-2.00761e-06
-0.000181498
-3.58594e-06
-0.000178987
-5.02275e-06
-0.000175635
-6.7058e-06
-0.000171479
-8.31136e-06
-0.000166513
-9.93538e-06
-0.000160579
-1.18701e-05
-0.000153741
-1.36751e-05
-0.000146038
-1.54086e-05
-0.000137262
-1.7551e-05
-0.000127555
-1.94136e-05
-0.00011667
-2.17771e-05
-0.00010479
-2.37494e-05
-9.19682e-05
-2.56419e-05
-7.80675e-05
-2.77971e-05
-6.31805e-05
-2.97601e-05
-4.73233e-05
-3.1725e-05
-3.04776e-05
-3.36836e-05
-1.30133e-05
-3.49213e-05
5.22393e-06
-3.64705e-05
2.39986e-05
-3.75413e-05
4.29725e-05
-3.7938e-05
6.2139e-05
-3.83201e-05
8.12881e-05
-3.82848e-05
9.99905e-05
-3.73936e-05
0.000118184
-3.63721e-05
0.000135625
-3.48694e-05
0.000151925
-3.25863e-05
0.000166958
-3.00526e-05
0.000180426
-2.69337e-05
0.000192188
-2.35119e-05
0.000202081
-1.97657e-05
0.000209783
-1.53972e-05
0.000215279
-1.09961e-05
0.000218471
-6.37333e-06
0.000219216
-1.48218e-06
0.000217535
3.35047e-06
0.000213455
8.16279e-06
0.000207121
1.26674e-05
0.000198648
1.69393e-05
0.000188082
2.11231e-05
0.000175649
2.48534e-05
0.000161578
2.81399e-05
0.000146001
3.11418e-05
0.000129257
3.34743e-05
0.000111539
3.54241e-05
9.30882e-05
3.68841e-05
7.42414e-05
3.76811e-05
5.52233e-05
3.80227e-05
3.62279e-05
3.79785e-05
1.73462e-05
3.77521e-05
-1.02023e-06
3.6727e-05
-1.8815e-05
3.55809e-05
-3.5952e-05
3.42663e-05
-5.22794e-05
3.26497e-05
-6.78062e-05
3.10417e-05
-8.23361e-05
2.90588e-05
-9.59491e-05
2.72287e-05
-0.000108593
2.52729e-05
-0.000120191
2.31852e-05
-0.000130788
2.11894e-05
-0.000140398
1.92134e-05
-0.00014894
1.70784e-05
-0.00015651
1.5146e-05
-0.000163112
1.32101e-05
-0.000168678
1.1131e-05
-0.000173341
9.334e-06
-0.000177108
7.53325e-06
-0.000180037
5.84843e-06
-0.000182192
4.29897e-06
-0.000183534
2.69211e-06
-0.00018411
1.15844e-06
-0.000183994
-2.31477e-07
-0.000183112
-1.75737e-06
-0.000181754
-2.71712e-06
-0.000179744
-4.02882e-06
-0.000177017
-5.44903e-06
-0.000173783
-6.45472e-06
-0.000170007
-7.55942e-06
-0.000165372
-9.27702e-06
-0.00016006
-1.06144e-05
-0.000154035
-1.20444e-05
-0.00014712
-1.38232e-05
-0.000139375
-1.5493e-05
-0.000130774
-1.71974e-05
-0.000121284
-1.89833e-05
-0.000110926
-2.07133e-05
-9.96178e-05
-2.26066e-05
-8.7402e-05
-2.44402e-05
-7.42563e-05
-2.62854e-05
-6.02113e-05
-2.8075e-05
-4.53236e-05
-2.97696e-05
-2.96488e-05
-3.13372e-05
-1.32017e-05
-3.28913e-05
3.84082e-06
-3.40825e-05
2.14839e-05
-3.52682e-05
3.95007e-05
-3.60194e-05
5.77444e-05
-3.64681e-05
7.60487e-05
-3.6598e-05
9.41978e-05
-3.6287e-05
0.000111943
-3.54772e-05
0.000129012
-3.41215e-05
0.000145149
-3.22687e-05
0.000160068
-2.98295e-05
0.000173481
-2.68144e-05
0.000185155
-2.33473e-05
0.000194872
-1.94144e-05
0.000202416
-1.5069e-05
0.000207609
-1.03984e-05
0.000210418
-5.61678e-06
0.000210743
-6.5958e-07
0.000208607
4.26387e-06
0.000203989
9.23486e-06
0.00019706
1.38492e-05
0.00018794
1.82292e-05
0.000176806
2.22511e-05
0.000163876
2.58529e-05
0.000149367
2.90024e-05
0.000133548
3.16196e-05
0.000116661
3.37587e-05
9.90069e-05
3.52876e-05
8.07831e-05
3.64301e-05
6.22104e-05
3.71264e-05
4.363e-05
3.71398e-05
2.52588e-05
3.6736e-05
7.20526e-06
3.61058e-05
-1.03927e-05
3.51813e-05
-2.73148e-05
3.38341e-05
-4.3479e-05
3.23106e-05
-5.87603e-05
3.05665e-05
-7.31471e-05
2.87599e-05
-8.64834e-05
2.66715e-05
-9.87059e-05
2.44474e-05
-0.000109936
2.24618e-05
-0.000120109
2.03371e-05
-0.00012926
1.83049e-05
-0.000137622
1.67188e-05
-0.000144898
1.45582e-05
-0.00015135
1.29104e-05
-0.000157017
1.13357e-05
-0.000161839
9.6488e-06
-0.000165951
8.22304e-06
-0.000169396
6.88837e-06
-0.000172156
5.52234e-06
-0.000174296
4.2849e-06
-0.000175799
3.0154e-06
-0.000176625
1.65393e-06
-0.000176971
6.82461e-07
-0.000176673
-6.0005e-07
-0.00017557
-2.20265e-06
-0.000173909
-3.31382e-06
-0.000171667
-4.47878e-06
-0.000168717
-5.89892e-06
-0.00016505
-7.34895e-06
-0.000160328
-9.43661e-06
-0.000154831
-1.0993e-05
-0.000148576
-1.25041e-05
-0.000141378
-1.43841e-05
-0.000133261
-1.62379e-05
-0.000124231
-1.80579e-05
-0.000114245
-1.99705e-05
-0.000103413
-2.16607e-05
-9.15505e-05
-2.37213e-05
-7.87316e-05
-2.56239e-05
-6.50292e-05
-2.73992e-05
-5.04284e-05
-2.92045e-05
-3.50261e-05
-3.08005e-05
-1.88725e-05
-3.22921e-05
-2.08742e-06
-3.35625e-05
1.52594e-05
-3.46796e-05
3.2988e-05
-3.54475e-05
5.0982e-05
-3.59782e-05
6.90439e-05
-3.61147e-05
8.69141e-05
-3.57273e-05
0.000104442
-3.50406e-05
0.0001214
-3.39082e-05
0.000137501
-3.21951e-05
0.000152554
-3.00888e-05
0.000166286
-2.74512e-05
0.000178456
-2.43198e-05
0.000188821
-2.07171e-05
0.00019721
-1.67905e-05
0.000203462
-1.24994e-05
0.000207377
-7.81654e-06
0.000208928
-3.09534e-06
0.000208055
1.72792e-06
0.000204711
6.67985e-06
0.000198934
1.15516e-05
0.000190837
1.61884e-05
0.000180559
2.05376e-05
0.000168275
2.45586e-05
0.000154229
2.8076e-05
0.000138661
3.11198e-05
0.000121907
3.34922e-05
0.00010428
3.52324e-05
8.59747e-05
3.65998e-05
6.72733e-05
3.73747e-05
4.85332e-05
3.74623e-05
2.9962e-05
3.71284e-05
1.19004e-05
3.61215e-05
-5.69356e-06
3.51733e-05
-2.23667e-05
3.3329e-05
-3.80248e-05
3.1307e-05
-5.28101e-05
2.955e-05
-6.66016e-05
2.76028e-05
-7.9308e-05
2.54019e-05
-9.10513e-05
2.3487e-05
-0.000101663
2.12263e-05
-0.000111439
1.95499e-05
-0.000120299
1.7718e-05
-0.000128235
1.58746e-05
-0.000135395
1.43146e-05
-0.000141845
1.29163e-05
-0.000147649
1.16127e-05
-0.000152834
1.03698e-05
-0.000157363
9.05555e-06
-0.000161359
7.98618e-06
-0.000164808
6.90465e-06
-0.000167667
5.71895e-06
-0.000169915
4.50362e-06
-0.000171681
3.50859e-06
-0.000172892
2.43628e-06
-0.00017334
8.93187e-07
-0.000173185
-3.0673e-07
-0.000172111
-2.12881e-06
-0.000170332
-3.56636e-06
-0.000167852
-4.96966e-06
-0.000164429
-6.84164e-06
-0.000160031
-8.79315e-06
-0.00015473
-1.06036e-05
-0.000148583
-1.22918e-05
-0.000141413
-1.43462e-05
-0.000133005
-1.68042e-05
-0.000123644
-1.87122e-05
-0.000113233
-2.08207e-05
-0.000101768
-2.29277e-05
-8.93643e-05
-2.48026e-05
-7.59885e-05
-2.6742e-05
-6.16908e-05
-2.85899e-05
-4.65849e-05
-3.02073e-05
-3.07275e-05
-3.17106e-05
-1.42147e-05
-3.30112e-05
2.79787e-06
-3.40106e-05
2.02087e-05
-3.48185e-05
3.78145e-05
-3.52077e-05
5.55194e-05
-3.53977e-05
7.31333e-05
-3.52172e-05
9.04018e-05
-3.45311e-05
0.000107189
-3.35678e-05
0.00012329
-3.21884e-05
0.000138528
-3.04755e-05
0.000152691
-2.83302e-05
0.0001656
-2.58005e-05
0.000177072
-2.2936e-05
0.000186941
-1.973e-05
0.000195147
-1.64065e-05
0.00020142
-1.25476e-05
0.000205672
-8.53374e-06
0.00020776
-4.19745e-06
0.000207807
-6.80018e-08
0.000205766
4.10309e-06
0.000201576
8.39307e-06
0.000195397
1.23625e-05
0.000187204
1.63807e-05
0.000177077
2.0247e-05
0.00016521
2.37284e-05
0.000151718
2.69743e-05
0.000136885
2.96569e-05
0.0001208
3.216e-05
0.00010379
3.4013e-05
8.61021e-05
3.53622e-05
6.78818e-05
3.64319e-05
4.93372e-05
3.70758e-05
3.08283e-05
3.70055e-05
1.2534e-05
3.65807e-05
-5.4443e-06
3.59454e-05
-2.28948e-05
3.48896e-05
-3.96783e-05
3.35567e-05
-5.56349e-05
3.19053e-05
-7.07259e-05
3.0175e-05
-8.48099e-05
2.81642e-05
-9.78437e-05
2.60597e-05
-0.000109808
2.39241e-05
-0.000120643
2.1669e-05
-0.000130357
1.94252e-05
-0.000138955
1.71909e-05
-0.000146456
1.49996e-05
-0.000152902
1.28894e-05
-0.000158308
1.08177e-05
-0.00016272
8.83019e-06
-0.000166185
6.92505e-06
-0.000168737
5.09007e-06
-0.000170464
3.46684e-06
-0.00017143
1.94706e-06
-0.000171646
4.35329e-07
-0.000171047
-1.19961e-06
-0.000169718
-2.65742e-06
-0.000167721
-3.98828e-06
-0.0001651
-5.23982e-06
-0.000161892
-6.40772e-06
-0.000157946
-7.90175e-06
-0.000153425
-9.0427e-06
-0.000148229
-1.03914e-05
-0.000142428
-1.15987e-05
-0.00013604
-1.27742e-05
-0.000128898
-1.42958e-05
-0.00012099
-1.5811e-05
-0.000112423
-1.71313e-05
-0.00010305
-1.87393e-05
-9.2871e-05
-2.0363e-05
-8.20539e-05
-2.16323e-05
-7.03476e-05
-2.34103e-05
-5.78798e-05
-2.49376e-05
-4.45367e-05
-2.66822e-05
-3.05136e-05
-2.80426e-05
-1.58977e-05
-2.92247e-05
-5.45935e-07
-3.07012e-05
1.53969e-05
-3.18852e-05
3.16758e-05
-3.2546e-05
4.84105e-05
-3.34493e-05
6.53106e-05
-3.37773e-05
8.23816e-05
-3.41354e-05
9.93504e-05
-3.39442e-05
0.00011596
-3.32186e-05
0.000132122
-3.23196e-05
0.000147583
-3.09085e-05
0.000162048
-2.89252e-05
0.000175386
-2.66828e-05
0.000187356
-2.39346e-05
0.000197723
-2.07174e-05
0.000206206
-1.69597e-05
0.000212533
-1.26641e-05
0.000216574
-8.07601e-06
0.000218253
-3.33874e-06
1.52578e-06
-3.29068e-05
4.91036e-05
-4.84242e-05
4.65394e-05
-6.31814e-05
4.42585e-05
-7.70936e-05
4.17254e-05
-9.00604e-05
3.88932e-05
-0.000102135
3.62182e-05
-0.000113266
3.33826e-05
-0.000123512
3.07272e-05
-0.000132868
2.8065e-05
-0.000141339
2.54147e-05
-0.000148973
2.29129e-05
-0.000155792
2.04601e-05
-0.000161826
1.81107e-05
-0.000167126
1.59001e-05
-0.000171688
1.36711e-05
-0.000175537
1.15308e-05
-0.000178697
9.49025e-06
-0.000181184
7.46902e-06
-0.00018299
5.40707e-06
-0.000184125
3.42819e-06
-0.000184614
1.49596e-06
-0.000184352
-7.76796e-07
-0.000183353
-3.00677e-06
-0.000181559
-5.38008e-06
-0.000179049
-7.53306e-06
-0.000175699
-1.00558e-05
-0.000171546
-1.24637e-05
-0.000166583
-1.48986e-05
-0.000160652
-1.78012e-05
-0.000153818
-2.05095e-05
-0.000146117
-2.31098e-05
-0.000137342
-2.63256e-05
-0.000127638
-2.91179e-05
-0.000116767
-3.26474e-05
-0.000104873
-3.56442e-05
-9.20486e-05
-3.84662e-05
-7.81428e-05
-4.1703e-05
-6.3247e-05
-4.4656e-05
-4.73963e-05
-4.75758e-05
-3.05385e-05
-5.05414e-05
-1.30641e-05
-5.23958e-05
5.1866e-06
-5.47212e-05
2.39759e-05
-5.63307e-05
4.29631e-05
-5.69253e-05
6.21465e-05
-5.75036e-05
8.13143e-05
-5.74526e-05
0.000100031
-5.61107e-05
0.000118247
-5.45877e-05
0.000135705
-5.23271e-05
0.000152018
-4.88993e-05
0.000167076
-4.51111e-05
0.000180558
-4.04161e-05
0.000192326
-3.52794e-05
0.000202234
-2.9674e-05
0.000209955
-2.31177e-05
0.000215462
-1.65033e-05
0.000218652
-9.56377e-06
0.000219398
-2.22804e-06
0.000217702
5.046e-06
0.000213627
1.22386e-05
0.000207293
1.90007e-05
0.000198812
2.54201e-05
0.000188238
3.1698e-05
0.000175795
3.72963e-05
0.000161699
4.22352e-05
0.000146103
4.67383e-05
0.000129337
5.02396e-05
0.000111595
5.31664e-05
9.31223e-05
5.53568e-05
7.42635e-05
5.65399e-05
5.5227e-05
5.70592e-05
3.62122e-05
5.69932e-05
1.73136e-05
5.66508e-05
-1.0599e-06
5.51005e-05
-1.88605e-05
5.33815e-05
-3.60057e-05
5.14115e-05
-5.23362e-05
4.89801e-05
-6.78664e-05
4.65719e-05
-8.24064e-05
4.35988e-05
-9.6021e-05
4.08433e-05
-0.000108665
3.79164e-05
-0.000120265
3.47857e-05
-0.000130861
3.1785e-05
-0.000140468
2.88205e-05
-0.000149002
2.56125e-05
-0.000156565
2.27093e-05
-0.000163165
1.98098e-05
-0.000168731
1.66972e-05
-0.000173396
1.39984e-05
-0.000177168
1.13053e-05
-0.000180084
8.76482e-06
-0.000182242
6.45693e-06
-0.000183594
4.04375e-06
-0.000184172
1.73657e-06
-0.000184054
-3.48925e-07
-0.000183157
-2.65483e-06
-0.000181808
-4.06641e-06
-0.000179806
-6.0306e-06
-0.000177068
-8.18671e-06
-0.000173847
-9.67622e-06
-0.000170088
-1.13183e-05
-0.000165456
-1.39092e-05
-0.000160152
-1.59182e-05
-0.000154123
-1.80733e-05
-0.000147186
-2.07602e-05
-0.000139447
-2.32325e-05
-0.000130852
-2.57916e-05
-0.000121363
-2.84728e-05
-0.00011102
-3.10563e-05
-9.97073e-05
-3.39194e-05
-8.74858e-05
-3.66617e-05
-7.4343e-05
-3.94282e-05
-6.03003e-05
-4.21178e-05
-4.54161e-05
-4.46538e-05
-2.97178e-05
-4.70356e-05
-1.32619e-05
-4.93473e-05
3.78187e-06
-5.11264e-05
2.14383e-05
-5.29248e-05
3.94689e-05
-5.40501e-05
5.77283e-05
-5.47275e-05
7.60543e-05
-5.49241e-05
9.42287e-05
-5.44616e-05
0.000111986
-5.32341e-05
0.000129082
-5.12183e-05
0.000145247
-4.84336e-05
0.000160191
-4.47733e-05
0.00017363
-4.0254e-05
0.00018532
-3.50377e-05
0.000195045
-2.91388e-05
0.000202594
-2.26183e-05
0.000207814
-1.56183e-05
0.000210616
-8.4193e-06
0.000210936
-9.79409e-07
0.000208776
6.42355e-06
0.000204158
1.38532e-05
0.000197223
2.07835e-05
0.000188095
2.73577e-05
0.000176938
3.3408e-05
0.000163985
3.88061e-05
0.000149453
4.35341e-05
0.000133613
4.74594e-05
0.000116716
5.06559e-05
9.9038e-05
5.29656e-05
8.0787e-05
5.46811e-05
6.22034e-05
5.571e-05
4.36072e-05
5.5736e-05
2.52163e-05
5.51269e-05
7.14461e-06
5.41775e-05
-1.04654e-05
5.27913e-05
-2.73937e-05
5.07625e-05
-4.35842e-05
4.85011e-05
-5.885e-05
4.58324e-05
-7.32448e-05
4.31546e-05
-8.65737e-05
4.00005e-05
-9.87969e-05
3.66706e-05
-0.00011003
3.36952e-05
-0.00012021
3.05167e-05
-0.000129371
2.74655e-05
-0.000137719
2.50672e-05
-0.000144982
2.18208e-05
-0.000151422
1.93506e-05
-0.000157083
1.69972e-05
-0.000161887
1.44526e-05
-0.000165993
1.23288e-05
-0.000169445
1.0341e-05
-0.00017222
8.29738e-06
-0.000174365
6.42976e-06
-0.000175866
4.51656e-06
-0.000176676
2.46296e-06
-0.000177027
1.03435e-06
-0.00017674
-8.87469e-07
-0.000175619
-3.32379e-06
-0.000173961
-4.97211e-06
-0.000171733
-6.70637e-06
-0.000168777
-8.85522e-06
-0.000165139
-1.0987e-05
-0.000160411
-1.41647e-05
-0.000154913
-1.64911e-05
-0.000148672
-1.87449e-05
-0.000141465
-2.15911e-05
-0.000133338
-2.43643e-05
-0.000124319
-2.70772e-05
-0.000114364
-2.9926e-05
-0.000103506
-3.25178e-05
-9.16442e-05
-3.55837e-05
-7.88266e-05
-3.84415e-05
-6.51124e-05
-4.11135e-05
-5.05067e-05
-4.38103e-05
-3.50973e-05
-4.62099e-05
-1.8941e-05
-4.84484e-05
-2.14116e-06
-5.03624e-05
1.52172e-05
-5.2038e-05
3.29611e-05
-5.31915e-05
5.09768e-05
-5.39939e-05
6.9047e-05
-5.4185e-05
8.69448e-05
-5.36251e-05
0.000104492
-5.25876e-05
0.000121474
-5.08908e-05
0.000137591
-4.83117e-05
0.000152658
-4.51563e-05
0.000166409
-4.12024e-05
0.000178594
-3.6504e-05
0.000188982
-3.11054e-05
0.000197394
-2.52023e-05
0.000203651
-1.8757e-05
0.000207568
-1.17334e-05
0.000209139
-4.66682e-06
0.000208249
2.61872e-06
0.000204889
1.00393e-05
0.000199104
1.73371e-05
0.000191001
2.42909e-05
0.000180708
3.08309e-05
0.000168403
3.68639e-05
0.000154329
4.21494e-05
0.000138733
4.67162e-05
0.000121962
5.02624e-05
0.000104316
5.28791e-05
8.59682e-05
5.49473e-05
6.72617e-05
5.60812e-05
4.85093e-05
5.62148e-05
2.99159e-05
5.57219e-05
1.18453e-05
5.41921e-05
-5.76923e-06
5.27879e-05
-2.24584e-05
5.00182e-05
-3.81168e-05
4.69654e-05
-5.29179e-05
4.43511e-05
-6.66939e-05
4.13789e-05
-7.9409e-05
3.8117e-05
-9.11493e-05
3.52273e-05
-0.00010175
3.18267e-05
-0.000111531
2.93311e-05
-0.000120389
2.65763e-05
-0.000128317
2.38023e-05
-0.000135471
2.14684e-05
-0.000141893
1.93387e-05
-0.000147687
1.74061e-05
-0.000152879
1.55623e-05
-0.000157408
1.35841e-05
-0.000161408
1.19862e-05
-0.000164857
1.03543e-05
-0.000167719
8.58019e-06
-0.000169967
6.75241e-06
-0.000171751
5.29216e-06
-0.000172958
3.64371e-06
-0.000173403
1.33737e-06
-0.000173264
-4.45122e-07
-0.000172174
-3.21855e-06
-0.000170394
-5.34731e-06
-0.000167936
-7.42758e-06
-0.000164519
-1.02579e-05
-0.000160127
-1.31856e-05
-0.000154827
-1.59032e-05
-0.000148671
-1.84479e-05
-0.000141507
-2.15109e-05
-0.000133095
-2.52159e-05
-0.00012374
-2.80671e-05
-0.000113327
-3.1234e-05
-0.000101863
-3.43912e-05
-8.94602e-05
-3.72056e-05
-7.60799e-05
-4.01224e-05
-6.17697e-05
-4.29002e-05
-4.66567e-05
-4.53204e-05
-3.07882e-05
-4.75791e-05
-1.42736e-05
-4.95258e-05
2.75561e-06
-5.10399e-05
2.01879e-05
-5.22509e-05
3.78036e-05
-5.28235e-05
5.5519e-05
-5.31131e-05
7.3143e-05
-5.28412e-05
9.04188e-05
-5.1807e-05
0.000107214
-5.03633e-05
0.000123339
-4.83134e-05
0.000138598
-4.5734e-05
0.00015275
-4.24831e-05
0.000165653
-3.87029e-05
0.00017713
-3.44128e-05
0.000187011
-2.96116e-05
0.00019521
-2.46055e-05
0.000201476
-1.88132e-05
0.000205745
-1.28032e-05
0.00020785
-6.30254e-06
0.000207913
-1.31223e-07
0.000205891
6.125e-06
0.000201725
1.25593e-05
0.000195547
1.85407e-05
0.000187349
2.4579e-05
0.000177205
3.03902e-05
0.000165327
3.56072e-05
0.000151825
4.0476e-05
0.000136973
4.45089e-05
0.000120872
4.82611e-05
0.000103852
5.10325e-05
8.6136e-05
5.30786e-05
6.79003e-05
5.46676e-05
4.93326e-05
5.56435e-05
3.08106e-05
5.55275e-05
1.25018e-05
5.48895e-05
-5.49107e-06
5.39383e-05
-2.29571e-05
5.23556e-05
-3.97513e-05
5.0351e-05
-5.5716e-05
4.787e-05
-7.08094e-05
4.52684e-05
-8.49024e-05
4.22572e-05
-9.79487e-05
3.9106e-05
-0.000109914
3.58897e-05
-0.000120752
3.25063e-05
-0.000130467
2.9141e-05
-0.000139065
2.5789e-05
-0.000146564
2.24987e-05
-0.000153006
1.93314e-05
-0.000158415
1.62259e-05
-0.000162832
1.32477e-05
-0.000166296
1.03891e-05
-0.000168839
7.63334e-06
-0.000170559
5.18661e-06
-0.000171517
2.90461e-06
-0.00017171
6.29024e-07
-0.000171108
-1.80228e-06
-0.000169778
-3.98706e-06
-0.00016777
-5.99657e-06
-0.000165147
-7.8629e-06
-0.000161936
-9.61851e-06
-0.000157994
-1.18439e-05
-0.000153472
-1.35651e-05
-0.000148277
-1.55864e-05
-0.000142477
-1.73982e-05
-0.000136089
-1.91625e-05
-0.000128961
-2.14238e-05
-0.000121051
-2.3721e-05
-0.00011248
-2.57018e-05
-0.00010311
-2.81094e-05
-9.29325e-05
-3.05406e-05
-8.21151e-05
-3.24497e-05
-7.04082e-05
-3.51172e-05
-5.79475e-05
-3.73983e-05
-4.45944e-05
-4.00354e-05
-3.0565e-05
-4.20721e-05
-1.59362e-05
-4.38536e-05
-5.58427e-07
-4.6079e-05
1.54002e-05
-4.78439e-05
3.168e-05
-4.88258e-05
4.84174e-05
-5.01868e-05
6.53279e-05
-5.06878e-05
8.24222e-05
-5.12298e-05
9.94157e-05
-5.09378e-05
0.000116039
-4.98422e-05
0.000132203
-4.84833e-05
0.00014767
-4.6376e-05
0.000162144
-4.33986e-05
0.00017549
-4.00296e-05
0.000187457
-3.59011e-05
0.000197826
-3.10865e-05
0.000206328
-2.54624e-05
0.000212675
-1.90113e-05
0.000216727
-1.21274e-05
0.000218422
-5.0337e-06
2.26525e-06
-3.3002e-05
6.54869e-05
-4.85277e-05
6.20652e-05
-6.32924e-05
5.90231e-05
-7.72111e-05
5.56441e-05
-9.0184e-05
5.18662e-05
-0.000102263
4.8297e-05
-0.000113395
4.45152e-05
-0.000123642
4.09736e-05
-0.000132998
3.74208e-05
-0.00014147
3.38867e-05
-0.000149106
3.05489e-05
-0.000155927
2.72815e-05
-0.000161955
2.4139e-05
-0.000167254
2.11993e-05
-0.000171817
1.82333e-05
-0.000175663
1.53771e-05
-0.000178826
1.2653e-05
-0.000181324
9.96768e-06
-0.000183147
7.22952e-06
-0.000184264
4.54499e-06
-0.000184722
1.95451e-06
-0.00018444
-1.05915e-06
-0.000183447
-3.99964e-06
-0.000181652
-7.17525e-06
-0.000179142
-1.00431e-05
-0.000175795
-1.34024e-05
-0.000171647
-1.66117e-05
-0.000166689
-1.98571e-05
-0.000160762
-2.37277e-05
-0.000153933
-2.73391e-05
-0.000146235
-3.08072e-05
-0.000137462
-3.50987e-05
-0.000127761
-3.88185e-05
-0.000116924
-4.3485e-05
-0.000104997
-4.75715e-05
-9.21698e-05
-5.1293e-05
-7.82566e-05
-5.56162e-05
-6.33496e-05
-5.95632e-05
-4.75065e-05
-6.34188e-05
-3.06304e-05
-6.74176e-05
-1.31409e-05
-6.98854e-05
5.12575e-06
-7.29879e-05
2.39391e-05
-7.51441e-05
4.29482e-05
-7.59344e-05
6.21581e-05
-7.67135e-05
8.1352e-05
-7.66466e-05
0.000100092
-7.48509e-05
0.000118337
-7.28331e-05
0.000135825
-6.98146e-05
0.000152158
-6.52327e-05
0.000167245
-6.01977e-05
0.000180745
-5.39164e-05
0.000192537
-4.70715e-05
0.000202466
-3.96033e-05
0.000210201
-3.08527e-05
0.000215722
-2.20241e-05
0.000218916
-1.27572e-05
0.000219661
-2.97405e-06
0.000217954
6.75372e-06
0.000213886
1.63067e-05
0.00020755
2.53357e-05
0.000199058
3.39127e-05
0.000188471
4.22845e-05
0.000176024
4.97435e-05
0.000161887
5.63722e-05
0.000146255
6.23708e-05
0.000129457
6.70376e-05
0.000111678
7.09447e-05
9.31722e-05
7.38629e-05
7.4294e-05
7.54182e-05
5.52309e-05
7.61223e-05
3.61892e-05
7.60349e-05
1.72671e-05
7.55728e-05
-1.11684e-06
7.34845e-05
-1.89271e-05
7.11917e-05
-3.60797e-05
6.85641e-05
-5.2421e-05
6.53215e-05
-6.79539e-05
6.21048e-05
-8.24962e-05
5.81411e-05
-9.61236e-05
5.44708e-05
-0.000108765
5.05581e-05
-0.000120355
4.6375e-05
-0.000130953
4.23834e-05
-0.00014057
3.84378e-05
-0.000149099
3.41411e-05
-0.000156652
3.02624e-05
-0.000163253
2.64106e-05
-0.000168834
2.22789e-05
-0.000173495
1.86592e-05
-0.000177254
1.50637e-05
-0.000180163
1.16743e-05
-0.000182334
8.62787e-06
-0.000183685
5.3943e-06
-0.000184268
2.31946e-06
-0.000184158
-4.58662e-07
-0.000183219
-3.59319e-06
-0.00018189
-5.39615e-06
-0.000179911
-8.00953e-06
-0.00017714
-1.09576e-05
-0.000173928
-1.28881e-05
-0.000170195
-1.50512e-05
-0.000165572
-1.8532e-05