/*--------------------------------*- C++ -*----------------------------------*\
| =========                 |                                                 |
| \\      /  F ield         | OpenFOAM: The Open Source CFD Toolbox           |
|  \\    /   O peration     | Version:  3.0.1                                 |
|   \\  /    A nd           | Web:      www.OpenFOAM.org                      |
|    \\/     M anipulation  |                                                 |
\*---------------------------------------------------------------------------*/
FoamFile
{
    version     2.0;
    format      ascii;
    class       volVectorField;
    location    "70.4";
    object      U;
}
// * * * * * * * * * * * * * * * * * * * * * * * * * * * * * * * * * * * * * //

dimensions      [0 1 -1 0 0 0 0];

internalField   nonuniform List<vector> 
21420
(
(0.116769 0.00180002 0)
(0.100619 0.00183008 0)
(0.0818856 0.00187042 0)
(0.0629745 0.00188729 0)
(0.0441224 0.00184993 0)
(0.025404 0.00182577 0)
(0.00717192 0.00175433 0)
(-0.0101649 0.00170209 0)
(-0.0268369 0.00163445 0)
(-0.0428048 0.00153777 0)
(-0.0579111 0.00145475 0)
(-0.0720942 0.00136537 0)
(-0.0853165 0.00126079 0)
(-0.0975627 0.00116759 0)
(-0.10883 0.00106533 0)
(-0.119129 0.000973268 0)
(-0.128477 0.000881888 0)
(-0.136896 0.000788282 0)
(-0.144416 0.000702218 0)
(-0.151068 0.000618425 0)
(-0.156883 0.000535675 0)
(-0.161894 0.000458045 0)
(-0.166131 0.00038284 0)
(-0.169622 0.000309408 0)
(-0.172392 0.000238529 0)
(-0.174471 0.000168594 0)
(-0.175847 0.000101808 0)
(-0.176534 3.71858e-05 0)
(-0.176564 -3.10067e-05 0)
(-0.175908 -9.98622e-05 0)
(-0.174562 -0.000168973 0)
(-0.172511 -0.000240029 0)
(-0.16974 -0.000312392 0)
(-0.166229 -0.000387956 0)
(-0.161955 -0.000464513 0)
(-0.156881 -0.00054338 0)
(-0.150987 -0.000628432 0)
(-0.144257 -0.000711422 0)
(-0.136654 -0.000796195 0)
(-0.128149 -0.000891367 0)
(-0.11873 -0.000978453 0)
(-0.108372 -0.0010801 0)
(-0.0970595 -0.00116725 0)
(-0.0848015 -0.00125261 0)
(-0.0715736 -0.00135804 0)
(-0.0573682 -0.00143764 0)
(-0.0423037 -0.0015103 0)
(-0.0263196 -0.00160274 0)
(-0.00983559 -0.00166664 0)
(0.00695742 -0.00170429 0)
(0.0244075 -0.00176557 0)
(0.0423142 -0.00178251 0)
(0.0604347 -0.00180777 0)
(0.0785917 -0.00179319 0)
(0.0965623 -0.00175322 0)
(0.114112 -0.00171153 0)
(0.131053 -0.00163568 0)
(0.147153 -0.00153295 0)
(0.162181 -0.00142351 0)
(0.175939 -0.00128139 0)
(0.188187 -0.00112955 0)
(0.198771 -0.000958149 0)
(0.207524 -0.000762147 0)
(0.214282 -0.000559286 0)
(0.218965 -0.000353371 0)
(0.221465 -0.000125799 0)
(0.221682 8.33302e-05 0)
(0.21964 0.000313889 0)
(0.215297 0.00052614 0)
(0.208821 0.000730086 0)
(0.200237 0.00093713 0)
(0.189769 0.00111738 0)
(0.177565 0.00128325 0)
(0.163694 0.00143593 0)
(0.148508 0.00155467 0)
(0.13219 0.00165794 0)
(0.114908 0.00173048 0)
(0.0970455 0.00179251 0)
(0.0788292 0.00182377 0)
(0.0603524 0.00182858 0)
(0.0418286 0.00181895 0)
(0.0235358 0.00179701 0)
(0.00579774 0.00173814 0)
(-0.0114231 0.00167822 0)
(-0.0280153 0.00160352 0)
(-0.0437735 0.00151347 0)
(-0.0585654 0.00141701 0)
(-0.0722761 0.00130895 0)
(-0.0849242 0.00120329 0)
(-0.0964853 0.00109262 0)
(-0.106952 0.000987109 0)
(-0.116398 0.000889946 0)
(-0.124879 0.00079252 0)
(-0.132406 0.000700693 0)
(-0.138993 0.000615468 0)
(-0.144713 0.000526244 0)
(-0.149603 0.000444391 0)
(-0.153671 0.000363367 0)
(-0.156918 0.000284826 0)
(-0.159399 0.000208491 0)
(-0.161172 0.000137949 0)
(-0.162235 6.67414e-05 0)
(-0.162626 1.23673e-05 0)
(-0.162359 -5.4538e-05 0)
(-0.161509 -0.000113364 0)
(-0.160056 -0.00016807 0)
(-0.158048 -0.000231637 0)
(-0.155482 -0.000286209 0)
(-0.152323 -0.00033349 0)
(-0.148569 -0.000397957 0)
(-0.144251 -0.000455128 0)
(-0.139356 -0.000522664 0)
(-0.133783 -0.0005809 0)
(-0.127566 -0.000649228 0)
(-0.120708 -0.000706868 0)
(-0.113186 -0.000776604 0)
(-0.104998 -0.00084388 0)
(-0.0961176 -0.000915582 0)
(-0.08652 -0.000989144 0)
(-0.0761986 -0.00105219 0)
(-0.065204 -0.00112667 0)
(-0.0534955 -0.00119677 0)
(-0.0411352 -0.00126681 0)
(-0.0280596 -0.00132608 0)
(-0.0143098 -0.00138687 0)
(9.59078e-06 -0.00145015 0)
(0.0149143 -0.00150371 0)
(0.0303001 -0.00154696 0)
(0.0460936 -0.00157961 0)
(0.0621629 -0.00160894 0)
(0.0784062 -0.00160844 0)
(0.0946371 -0.00160735 0)
(0.110697 -0.00158164 0)
(0.126416 -0.00153011 0)
(0.141532 -0.00146397 0)
(0.155803 -0.00136363 0)
(0.169015 -0.00125163 0)
(0.180932 -0.0011143 0)
(0.191335 -0.000944029 0)
(0.20001 -0.000769996 0)
(0.206766 -0.000566583 0)
(0.211445 -0.000361531 0)
(0.21394 -0.000136991 0)
(0.214189 8.91803e-05 0)
(0.212131 0.000316298 0)
(0.207727 0.000545307 0)
(0.201134 0.00076031 0)
(0.192447 0.000961879 0)
(0.18179 0.00114934 0)
(0.169344 0.00131902 0)
(0.15529 0.00146406 0)
(0.139882 0.00158453 0)
(0.123359 0.0016932 0)
(0.105969 0.00176082 0)
(0.0879965 0.00180572 0)
(0.0696943 0.00182532 0)
(0.0513227 0.00181527 0)
(0.0331324 0.00179558 0)
(0.0152907 0.00174642 0)
(-0.00199508 0.00168596 0)
(-0.0186001 0.00160876 0)
(-0.0343836 0.00151957 0)
(-0.0492305 0.00142657 0)
(-0.0631034 0.00133463 0)
(-0.075993 0.00122774 0)
(-0.0878811 0.0011301 0)
(-0.0987366 0.00103014 0)
(-0.108632 0.00093068 0)
(-0.117564 0.000839197 0)
(-0.125512 0.000749068 0)
(-0.132614 0.000665136 0)
(-0.138893 0.000580523 0)
(-0.144353 0.000503443 0)
(-0.149108 0.00043772 0)
(-0.153191 0.000375116 0)
(-0.15658 0.000305021 0)
(-0.159338 0.000241429 0)
(-0.161495 0.000185343 0)
(-0.163062 0.000127641 0)
(-0.16407 7.61347e-05 0)
(-0.164574 2.45078e-05 0)
(-0.164552 -2.66699e-05 0)
(-0.163979 -8.72132e-05 0)
(-0.162845 -0.000136355 0)
(-0.161176 -0.000189444 0)
(-0.158959 -0.000249731 0)
(-0.15618 -0.000307887 0)
(-0.152822 -0.000356848 0)
(-0.148883 -0.000412819 0)
(-0.144388 -0.00047733 0)
(-0.139292 -0.000535999 0)
(-0.133521 -0.000604885 0)
(-0.127061 -0.00067841 0)
(-0.119848 -0.000761937 0)
(-0.11178 -0.00083282 0)
(-0.102848 -0.000927256 0)
(-0.0930835 -0.00101785 0)
(-0.0824484 -0.00109043 0)
(-0.0709403 -0.00118088 0)
(-0.0586268 -0.0012617 0)
(-0.045557 -0.00132824 0)
(-0.031831 -0.00139733 0)
(-0.0174227 -0.00146134 0)
(-0.00234009 -0.00151441 0)
(0.0132633 -0.0015692 0)
(0.0293404 -0.00161856 0)
(0.0458084 -0.00165244 0)
(0.0625505 -0.00166913 0)
(0.0793663 -0.00166555 0)
(0.096013 -0.00163532 0)
(0.112245 -0.00158089 0)
(0.127784 -0.00149835 0)
(0.142371 -0.00138513 0)
(0.155729 -0.00125786 0)
(0.167623 -0.00109871 0)
(0.177819 -0.000922292 0)
(0.186135 -0.000722277 0)
(0.192372 -0.000517873 0)
(0.196428 -0.000290315 0)
(0.198135 -4.78675e-05 0)
(0.19748 0.000186889 0)
(0.194267 0.000435934 0)
(0.188696 0.000664927 0)
(0.180876 0.000885308 0)
(0.170933 0.00108607 0)
(0.159076 0.00126429 0)
(0.145536 0.00141594 0)
(0.130595 0.00155131 0)
(0.114455 0.00165221 0)
(0.0974161 0.00172501 0)
(0.0797645 0.00177524 0)
(0.0617539 0.0017967 0)
(0.0436559 0.00179852 0)
(0.0256615 0.00177396 0)
(0.00794011 0.00174193 0)
(-0.0093588 0.00169449 0)
(-0.0260807 0.00162481 0)
(-0.0421078 0.00154615 0)
(-0.0573002 0.0014607 0)
(-0.0715696 0.00137505 0)
(-0.0849138 0.00127807 0)
(-0.0972723 0.00118011 0)
(-0.108624 0.00107879 0)
(-0.119006 0.000982479 0)
(-0.128423 0.000889568 0)
(-0.136883 0.000790358 0)
(-0.144411 0.000700315 0)
(-0.15105 0.000615921 0)
(-0.156826 0.000531246 0)
(-0.161757 0.00045102 0)
(-0.165899 0.000373843 0)
(-0.16931 0.000302946 0)
(-0.172029 0.000234468 0)
(-0.174092 0.000179833 0)
(-0.175597 0.00012416 0)
(-0.176591 7.26898e-05 0)
(-0.17709 1.90741e-05 0)
(-0.177048 -2.42135e-05 0)
(-0.176462 -7.94785e-05 0)
(-0.175358 -0.000135179 0)
(-0.173687 -0.000193947 0)
(-0.171454 -0.000246791 0)
(-0.168679 -0.000305575 0)
(-0.16533 -0.00036285 0)
(-0.161297 -0.000420024 0)
(-0.15658 -0.000490082 0)
(-0.151234 -0.000561862 0)
(-0.14519 -0.000633238 0)
(-0.138235 -0.000721383 0)
(-0.130521 -0.000806328 0)
(-0.121982 -0.000890976 0)
(-0.112399 -0.000978022 0)
(-0.102043 -0.00106453 0)
(-0.0906969 -0.0011639 0)
(-0.0784232 -0.0012553 0)
(-0.0652773 -0.00134685 0)
(-0.0511702 -0.00143564 0)
(-0.0362266 -0.00152903 0)
(-0.0204047 -0.00161844 0)
(-0.00323868 -0.00170833 0)
(0.0148655 -0.00178199 0)
(0.0333328 -0.00184743 0)
(0.0523211 -0.00188875 0)
(0.0715303 -0.00189775 0)
(0.0906587 -0.00188903 0)
(0.109409 -0.00185033 0)
(0.127588 -0.00175942 0)
(0.14478 -0.00165098 0)
(0.160644 -0.00149733 0)
(0.174893 -0.00132801 0)
(0.187231 -0.00111908 0)
(0.197389 -0.000881991 0)
(0.205135 -0.000632114 0)
(0.210308 -0.000360312 0)
(0.212705 -7.16795e-05 0)
(0.212289 0.000203031 0)
(0.208821 0.000485244 0)
(0.202591 0.000753673 0)
(0.193866 0.000981748 0)
(0.182868 0.00120199 0)
(0.169875 0.00136945 0)
(0.155221 0.00152542 0)
(0.139216 0.00165222 0)
(0.122221 0.00171912 0)
(0.104557 0.00177573 0)
(0.0864906 0.0018035 0)
(0.0683659 0.00178271 0)
(0.0503021 0.00176015 0)
(0.0325702 0.00170957 0)
(0.0155375 0.00164531 0)
(-0.000328198 0.00157927 0)
(-0.0153053 0.00149284 0)
(-0.0297974 0.00141427 0)
(-0.0435008 0.00133108 0)
(-0.05636 0.00123956 0)
(-0.0683729 0.00115691 0)
(-0.0795555 0.00107065 0)
(-0.0899353 0.000994072 0)
(-0.0995484 0.000920246 0)
(-0.108427 0.000846172 0)
(-0.116609 0.000779672 0)
(-0.124125 0.00071524 0)
(-0.130995 0.000650021 0)
(-0.137234 0.00058839 0)
(-0.142845 0.000524524 0)
(-0.147821 0.000461462 0)
(-0.152146 0.000395883 0)
(-0.155794 0.000326432 0)
(-0.158735 0.000254318 0)
(-0.16094 0.000177643 0)
(-0.162335 9.93218e-05 0)
(-0.162955 1.70004e-05 0)
(-0.162704 -7.17543e-05 0)
(-0.161527 -0.000163876 0)
(-0.159416 -0.000257765 0)
(-0.156343 -0.000354519 0)
(-0.152292 -0.000451559 0)
(-0.147245 -0.000548932 0)
(-0.1412 -0.000649789 0)
(-0.134163 -0.000746174 0)
(-0.126141 -0.000840427 0)
(-0.11715 -0.00093993 0)
(-0.107217 -0.00102824 0)
(-0.096375 -0.00112333 0)
(-0.0846682 -0.0012025 0)
(-0.072149 -0.001275 0)
(-0.0588701 -0.00135697 0)
(-0.0448961 -0.00141459 0)
(-0.0302894 -0.00146221 0)
(-0.0146262 -0.00151938 0)
(0.00096076 -0.00156167 0)
(0.0163434 -0.00159897 0)
(0.0323722 -0.00160098 0)
(0.0484622 -0.00158932 0)
(0.0644713 -0.00158824 0)
(0.0802374 -0.00154717 0)
(0.0973867 -0.00149041 0)
(0.116794 0.00540108 0)
(0.100635 0.00549119 0)
(0.0818926 0.00561216 0)
(0.0629727 0.00566271 0)
(0.0441129 0.00555053 0)
(0.0253868 0.00547799 0)
(0.00714988 0.00526357 0)
(-0.0101915 0.00510662 0)
(-0.0268681 0.00490368 0)
(-0.0428383 0.00461357 0)
(-0.0579469 0.00436442 0)
(-0.0721315 0.00409619 0)
(-0.085354 0.00378242 0)
(-0.0976005 0.00350278 0)
(-0.108867 0.00319594 0)
(-0.119166 0.00291973 0)
(-0.128513 0.00264557 0)
(-0.136931 0.00236474 0)
(-0.14445 0.00210652 0)
(-0.151101 0.00185512 0)
(-0.156914 0.00160686 0)
(-0.161924 0.00137395 0)
(-0.16616 0.00114833 0)
(-0.16965 0.00092802 0)
(-0.172419 0.000715416 0)
(-0.174497 0.00050573 0)
(-0.175875 0.000305 0)
(-0.176561 0.000111719 0)
(-0.176591 -9.30119e-05 0)
(-0.175936 -0.000299719 0)
(-0.17459 -0.000506999 0)
(-0.17254 -0.000720109 0)
(-0.16977 -0.000937085 0)
(-0.16626 -0.00116395 0)
(-0.161987 -0.0013935 0)
(-0.156915 -0.00163004 0)
(-0.151023 -0.00188512 0)
(-0.144294 -0.00213415 0)
(-0.136692 -0.00238842 0)
(-0.128189 -0.00267404 0)
(-0.11877 -0.00293526 0)
(-0.108413 -0.00324027 0)
(-0.0971018 -0.00350177 0)
(-0.0848439 -0.00375782 0)
(-0.0716164 -0.00407415 0)
(-0.0574101 -0.00431298 0)
(-0.0423434 -0.00453093 0)
(-0.026358 -0.00480829 0)
(-0.00987008 -0.00500046 0)
(0.00692823 -0.00511333 0)
(0.0243826 -0.00529765 0)
(0.0422957 -0.00534786 0)
(0.0604229 -0.00542497 0)
(0.0785886 -0.00538031 0)
(0.0965676 -0.00526056 0)
(0.114128 -0.00513492 0)
(0.131078 -0.00490944 0)
(0.147186 -0.00460219 0)
(0.162229 -0.00426867 0)
(0.175995 -0.00384691 0)
(0.188255 -0.00338706 0)
(0.198848 -0.00287318 0)
(0.20761 -0.00228602 0)
(0.214368 -0.00168911 0)
(0.219072 -0.00105478 0)
(0.221572 -0.000374927 0)
(0.221788 0.000246725 0)
(0.21974 0.000941166 0)
(0.215402 0.00157844 0)
(0.208924 0.00218927 0)
(0.200337 0.0028126 0)
(0.189861 0.00335227 0)
(0.177649 0.00385263 0)
(0.163765 0.00430816 0)
(0.148568 0.004666 0)
(0.132237 0.00497538 0)
(0.114945 0.00519292 0)
(0.0970693 0.00537838 0)
(0.0788395 0.00547282 0)
(0.060351 0.00548758 0)
(0.0418166 0.0054559 0)
(0.0235141 0.00539051 0)
(0.00576909 0.00521446 0)
(-0.0114509 0.00504455 0)
(-0.0280549 0.0048076 0)
(-0.043813 0.00453785 0)
(-0.0586081 0.00425124 0)
(-0.0723216 0.0039218 0)
(-0.0849689 0.00360657 0)
(-0.096521 0.00327606 0)
(-0.106982 0.00296455 0)
(-0.116428 0.00266197 0)
(-0.124901 0.00237516 0)
(-0.132426 0.00209691 0)
(-0.139017 0.00184488 0)
(-0.144745 0.00157644 0)
(-0.149648 0.00132611 0)
(-0.153718 0.00108228 0)
(-0.156962 0.000857471 0)
(-0.159448 0.000628267 0)
(-0.161227 0.000419905 0)
(-0.16229 0.000203315 0)
(-0.162684 3.69031e-05 0)
(-0.162419 -0.000163934 0)
(-0.161574 -0.00033944 0)
(-0.160133 -0.000518437 0)
(-0.158112 -0.000691027 0)
(-0.155553 -0.000861913 0)
(-0.152397 -0.00100779 0)
(-0.148639 -0.00119365 0)
(-0.144329 -0.00138108 0)
(-0.139415 -0.00156673 0)
(-0.133847 -0.00173135 0)
(-0.127642 -0.00194331 0)
(-0.120796 -0.00213606 0)
(-0.113262 -0.00233893 0)
(-0.105071 -0.00254023 0)
(-0.0961933 -0.00274288 0)
(-0.0865963 -0.00296291 0)
(-0.076282 -0.00316789 0)
(-0.0652756 -0.00337672 0)
(-0.0535683 -0.00358613 0)
(-0.0412148 -0.00380223 0)
(-0.0281404 -0.00397025 0)
(-0.0144032 -0.00416677 0)
(-7.71289e-05 -0.00434586 0)
(0.0148289 -0.00450531 0)
(0.0302135 -0.00463926 0)
(0.0459941 -0.00475018 0)
(0.0620727 -0.00482528 0)
(0.0783172 -0.00483199 0)
(0.0945536 -0.00481998 0)
(0.110616 -0.00474464 0)
(0.126335 -0.00458991 0)
(0.141456 -0.00438524 0)
(0.155723 -0.00410746 0)
(0.168951 -0.00374905 0)
(0.180872 -0.00334316 0)
(0.191275 -0.00284321 0)
(0.199954 -0.00230638 0)
(0.206707 -0.00170733 0)
(0.211397 -0.00107861 0)
(0.213887 -0.000411453 0)
(0.214131 0.000254909 0)
(0.212068 0.000952468 0)
(0.207669 0.00163161 0)
(0.201087 0.00227919 0)
(0.192394 0.00288764 0)
(0.181732 0.0034488 0)
(0.169271 0.00395174 0)
(0.155216 0.00439499 0)
(0.139796 0.0047553 0)
(0.123267 0.00507501 0)
(0.10587 0.00527744 0)
(0.0878941 0.00541772 0)
(0.0695856 0.00546811 0)
(0.051225 0.00544864 0)
(0.0330262 0.0053868 0)
(0.0151838 0.00523995 0)
(-0.00211684 0.0050542 0)
(-0.01872 0.00482697 0)
(-0.0345074 0.00456524 0)
(-0.0493618 0.0042731 0)
(-0.0632322 0.00399576 0)
(-0.0761209 0.00368359 0)
(-0.0880088 0.00338624 0)
(-0.0988654 0.00309339 0)
(-0.108759 0.00279038 0)
(-0.117684 0.00250709 0)
(-0.125629 0.00224222 0)
(-0.132726 0.00198413 0)
(-0.138993 0.00174996 0)
(-0.144454 0.00151682 0)
(-0.149215 0.0013092 0)
(-0.153293 0.00111244 0)
(-0.156675 0.000911446 0)
(-0.15943 0.000727509 0)
(-0.16159 0.000554191 0)
(-0.163153 0.000379489 0)
(-0.164161 0.000231429 0)
(-0.164666 6.9692e-05 0)
(-0.164644 -8.79507e-05 0)
(-0.164059 -0.000250336 0)
(-0.162937 -0.000413367 0)
(-0.161269 -0.000580643 0)
(-0.159043 -0.000746429 0)
(-0.156268 -0.00091512 0)
(-0.152922 -0.00107124 0)
(-0.148994 -0.00125391 0)
(-0.144484 -0.00143442 0)
(-0.139393 -0.00159962 0)
(-0.133638 -0.00181854 0)
(-0.127174 -0.00203433 0)
(-0.119961 -0.00228439 0)
(-0.1119 -0.00250209 0)
(-0.10298 -0.00278432 0)
(-0.0932117 -0.00305252 0)
(-0.0825765 -0.00328098 0)
(-0.0710712 -0.00354174 0)
(-0.0587574 -0.0037732 0)
(-0.0456927 -0.00397919 0)
(-0.0319725 -0.0041897 0)
(-0.0175648 -0.00438073 0)
(-0.00249311 -0.00455855 0)
(0.0131151 -0.00471316 0)
(0.0292015 -0.00485069 0)
(0.0456695 -0.00495282 0)
(0.0624147 -0.00500653 0)
(0.0792288 -0.00499841 0)
(0.0958878 -0.00490631 0)
(0.112131 -0.00474159 0)
(0.127683 -0.00449845 0)
(0.142273 -0.00417019 0)
(0.155648 -0.00376771 0)
(0.167546 -0.00329756 0)
(0.177755 -0.00276687 0)
(0.186074 -0.00218271 0)
(0.192338 -0.00154849 0)
(0.196396 -0.000871742 0)
(0.198107 -0.000154422 0)
(0.197447 0.000557859 0)
(0.194238 0.00130092 0)
(0.188674 0.00199658 0)
(0.180853 0.00265339 0)
(0.170902 0.00325604 0)
(0.159039 0.00378656 0)
(0.145498 0.00424595 0)
(0.130547 0.00464745 0)
(0.11441 0.00495501 0)
(0.0973657 0.00518526 0)
(0.0797012 0.00532421 0)
(0.0616802 0.0053891 0)
(0.0435696 0.00538486 0)
(0.0255777 0.00533186 0)
(0.00784513 0.00522458 0)
(-0.00946174 0.00507205 0)
(-0.0261796 0.00487634 0)
(-0.0422116 0.00465029 0)
(-0.0574086 0.00438543 0)
(-0.0716837 0.00412472 0)
(-0.0850294 0.00382395 0)
(-0.0973892 0.00353586 0)
(-0.108744 0.00323273 0)
(-0.11913 0.00294263 0)
(-0.128546 0.00265627 0)
(-0.136994 0.00237814 0)
(-0.144527 0.00211089 0)
(-0.151177 0.00184475 0)
(-0.156951 0.00159135 0)
(-0.161884 0.00135394 0)
(-0.166029 0.00112389 0)
(-0.169441 0.000905308 0)
(-0.172156 0.000700279 0)
(-0.174217 0.000542313 0)
(-0.175721 0.000368215 0)
(-0.176713 0.000214593 0)
(-0.177205 5.65259e-05 0)
(-0.177164 -6.97168e-05 0)
(-0.176576 -0.000252414 0)
(-0.175462 -0.000408548 0)
(-0.173776 -0.000575809 0)
(-0.171547 -0.000745556 0)
(-0.168764 -0.000924737 0)
(-0.1654 -0.00108144 0)
(-0.161376 -0.00125472 0)
(-0.156661 -0.00147945 0)
(-0.151299 -0.0016875 0)
(-0.145259 -0.00190144 0)
(-0.138309 -0.00216239 0)
(-0.130583 -0.00241941 0)
(-0.12204 -0.00266711 0)
(-0.112463 -0.00294154 0)
(-0.102097 -0.00318996 0)
(-0.0907535 -0.00349068 0)
(-0.0784746 -0.00377026 0)
(-0.0653238 -0.00403314 0)
(-0.0512226 -0.00431728 0)
(-0.0362699 -0.00458428 0)
(-0.0204482 -0.00485723 0)
(-0.00327746 -0.00512719 0)
(0.0148354 -0.00534298 0)
(0.0333062 -0.0055467 0)
(0.0523115 -0.00566265 0)
(0.0715261 -0.00570057 0)
(0.0906733 -0.00567013 0)
(0.10944 -0.00554895 0)
(0.127634 -0.0052782 0)
(0.144842 -0.00495676 0)
(0.160714 -0.00450046 0)
(0.174986 -0.00398017 0)
(0.187329 -0.00336556 0)
(0.197506 -0.00263849 0)
(0.205258 -0.00189284 0)
(0.210437 -0.00108091 0)
(0.212839 -0.000219869 0)
(0.212416 0.000606403 0)
(0.208936 0.00145906 0)
(0.202707 0.00225696 0)
(0.193974 0.00294328 0)
(0.182963 0.00360651 0)
(0.169957 0.00410949 0)
(0.155289 0.00457756 0)
(0.139269 0.00495809 0)
(0.12226 0.00515873 0)
(0.104583 0.0053284 0)
(0.0865035 0.0054117 0)
(0.0683685 0.00534916 0)
(0.0502973 0.0052811 0)
(0.0325567 0.00512897 0)
(0.0155168 0.00493733 0)
(-0.000351545 0.0047377 0)
(-0.0153314 0.00447888 0)
(-0.0298257 0.00424307 0)
(-0.0435306 0.0039934 0)
(-0.0563899 0.00371872 0)
(-0.0684028 0.00347072 0)
(-0.0795843 0.00321194 0)
(-0.0899632 0.00298218 0)
(-0.0995753 0.00276068 0)
(-0.108453 0.00253846 0)
(-0.116634 0.00233898 0)
(-0.124149 0.0021457 0)
(-0.131018 0.0019501 0)
(-0.137257 0.00176525 0)
(-0.142869 0.0015736 0)
(-0.147846 0.00138444 0)
(-0.152172 0.00118773 0)
(-0.155821 0.000979351 0)
(-0.158763 0.000763007 0)
(-0.16097 0.000533078 0)
(-0.162369 0.000297862 0)
(-0.162989 5.17079e-05 0)
(-0.16274 -0.000215049 0)
(-0.161565 -0.000491623 0)
(-0.159454 -0.000773365 0)
(-0.156382 -0.00106351 0)
(-0.152332 -0.00135476 0)
(-0.147285 -0.00164683 0)
(-0.14124 -0.00194944 0)
(-0.134203 -0.00223862 0)
(-0.126179 -0.00252139 0)
(-0.117188 -0.00281991 0)
(-0.107253 -0.00308489 0)
(-0.0964103 -0.00337018 0)
(-0.0847012 -0.00360767 0)
(-0.0721794 -0.00382522 0)
(-0.0588982 -0.00407116 0)
(-0.0449208 -0.00424409 0)
(-0.0303099 -0.00438699 0)
(-0.014646 -0.00455899 0)
(0.000945439 -0.00468515 0)
(0.0163359 -0.00479733 0)
(0.0323697 -0.00480344 0)
(0.0484652 -0.00476853 0)
(0.0644803 -0.00476533 0)
(0.0802527 -0.00464215 0)
(0.0974094 -0.0044719 0)
(0.116844 0.00900525 0)
(0.100666 0.00915516 0)
(0.081905 0.00935663 0)
(0.0629674 0.00944068 0)
(0.044092 0.00925334 0)
(0.0253508 0.00913217 0)
(0.00710398 0.00877441 0)
(-0.0102467 0.00851229 0)
(-0.0269323 0.00817384 0)
(-0.0429071 0.00769005 0)
(-0.0580204 0.00727455 0)
(-0.072208 0.00682728 0)
(-0.0854308 0.00630413 0)
(-0.0976779 0.00583792 0)
(-0.108943 0.00532635 0)
(-0.119241 0.00486592 0)
(-0.128586 0.00440893 0)
(-0.137001 0.00394083 0)
(-0.144518 0.00351044 0)
(-0.151167 0.00309143 0)
(-0.156978 0.00267765 0)
(-0.161985 0.00228948 0)
(-0.166219 0.00191348 0)
(-0.169706 0.00154637 0)
(-0.172474 0.00119219 0)
(-0.174549 0.000843107 0)
(-0.175931 0.000507679 0)
(-0.176616 0.000186481 0)
(-0.176645 -0.000155127 0)
(-0.175991 -0.000499612 0)
(-0.174645 -0.000844924 0)
(-0.172597 -0.0012 0)
(-0.169828 -0.00156145 0)
(-0.16632 -0.00193991 0)
(-0.162049 -0.00232222 0)
(-0.156979 -0.00271642 0)
(-0.15109 -0.00314148 0)
(-0.144362 -0.00355668 0)
(-0.136762 -0.00398039 0)
(-0.128261 -0.00445657 0)
(-0.118843 -0.00489195 0)
(-0.108488 -0.00540046 0)
(-0.0971756 -0.00583646 0)
(-0.0849165 -0.00626327 0)
(-0.0716883 -0.00679059 0)
(-0.0574784 -0.00718895 0)
(-0.042406 -0.00755218 0)
(-0.0264168 -0.00801432 0)
(-0.00991954 -0.00833606 0)
(0.00689062 -0.00852408 0)
(0.024355 -0.0088314 0)
(0.0422804 -0.00891566 0)
(0.0604234 -0.00904386 0)
(0.0786043 -0.00897033 0)
(0.096599 -0.00877093 0)
(0.114178 -0.00856114 0)
(0.131145 -0.00818498 0)
(0.147271 -0.00767258 0)
(0.16233 -0.00711827 0)
(0.176111 -0.00641277 0)
(0.188384 -0.00565065 0)
(0.198992 -0.00479415 0)
(0.207765 -0.00381315 0)
(0.214535 -0.00281012 0)
(0.219243 -0.00176297 0)
(0.221747 -0.00063073 0)
(0.22196 0.000412058 0)
(0.219899 0.00156911 0)
(0.215566 0.00262959 0)
(0.209083 0.00365132 0)
(0.200489 0.00468841 0)
(0.189999 0.00559043 0)
(0.177771 0.00642299 0)
(0.163872 0.00718417 0)
(0.148655 0.00777921 0)
(0.132304 0.00829618 0)
(0.114996 0.00865806 0)
(0.097101 0.00896927 0)
(0.0788493 0.00912506 0)
(0.0603424 0.00914949 0)
(0.0417977 0.00909829 0)
(0.0234762 0.00898209 0)
(0.00571586 0.00869319 0)
(-0.0115123 0.0084045 0)
(-0.0281196 0.00801679 0)
(-0.0438855 0.00757057 0)
(-0.0586952 0.00708433 0)
(-0.0724141 0.00654038 0)
(-0.0850705 0.0060116 0)
(-0.0966241 0.0054618 0)
(-0.107083 0.0049404 0)
(-0.116526 0.00443984 0)
(-0.125 0.00395835 0)
(-0.132527 0.00350107 0)
(-0.13913 0.00307948 0)
(-0.144869 0.00263161 0)
(-0.149785 0.00221672 0)
(-0.153869 0.00180452 0)
(-0.157124 0.00142766 0)
(-0.159618 0.00104575 0)
(-0.161413 0.000694431 0)
(-0.162472 0.00033695 0)
(-0.162864 6.22756e-05 0)
(-0.16261 -0.000275868 0)
(-0.16177 -0.000568188 0)
(-0.160331 -0.000854748 0)
(-0.158316 -0.00114947 0)
(-0.155756 -0.00143363 0)
(-0.152601 -0.00168237 0)
(-0.148845 -0.00199052 0)
(-0.144525 -0.00229274 0)
(-0.139616 -0.00261431 0)
(-0.134062 -0.00289319 0)
(-0.127865 -0.0032505 0)
(-0.12101 -0.00354069 0)
(-0.113475 -0.00388837 0)
(-0.105284 -0.00422963 0)
(-0.0964144 -0.00458236 0)
(-0.0868151 -0.00494115 0)
(-0.0764914 -0.00527049 0)
(-0.0654877 -0.0056267 0)
(-0.0537796 -0.00597605 0)
(-0.0414225 -0.00633578 0)
(-0.0283485 -0.00662267 0)
(-0.0146099 -0.00694362 0)
(-0.000285365 -0.00724743 0)
(0.0146309 -0.00751638 0)
(0.0300271 -0.00773113 0)
(0.0458116 -0.00790767 0)
(0.0618966 -0.00804026 0)
(0.078159 -0.00805527 0)
(0.0944097 -0.00803244 0)
(0.110492 -0.0079134 0)
(0.126219 -0.00764956 0)
(0.141345 -0.00731775 0)
(0.155637 -0.00684502 0)
(0.16888 -0.00625177 0)
(0.180828 -0.00556167 0)
(0.191241 -0.00473947 0)
(0.199923 -0.00384948 0)
(0.206686 -0.00284391 0)
(0.211382 -0.0017979 0)
(0.213884 -0.000690329 0)
(0.214128 0.000433313 0)
(0.212055 0.00158554 0)
(0.207671 0.00272372 0)
(0.201083 0.00379745 0)
(0.192379 0.00481377 0)
(0.181701 0.00575272 0)
(0.169216 0.00659028 0)
(0.155137 0.00732475 0)
(0.139704 0.00793641 0)
(0.123149 0.00846007 0)
(0.105736 0.00880081 0)
(0.0877453 0.00902924 0)
(0.069423 0.00911542 0)
(0.0510466 0.0090829 0)
(0.0328296 0.00898518 0)
(0.0149772 0.00873353 0)
(-0.00233179 0.00843255 0)
(-0.0189587 0.00804495 0)
(-0.0347559 0.00759925 0)
(-0.0496124 0.00713595 0)
(-0.0635014 0.00666079 0)
(-0.0763949 0.00613473 0)
(-0.0882684 0.00563921 0)
(-0.0991277 0.0051621 0)
(-0.109021 0.00463869 0)
(-0.117934 0.00418043 0)
(-0.125879 0.0037503 0)
(-0.132983 0.00331031 0)
(-0.139252 0.00290896 0)
(-0.144702 0.00252134 0)
(-0.149455 0.00217966 0)
(-0.15353 0.00185403 0)
(-0.156906 0.00152872 0)
(-0.15966 0.0012118 0)
(-0.161822 0.000920156 0)
(-0.163384 0.000636694 0)
(-0.164399 0.000382431 0)
(-0.164896 0.000116328 0)
(-0.164867 -0.000138397 0)
(-0.164288 -0.000427405 0)
(-0.163161 -0.00068991 0)
(-0.161489 -0.000958762 0)
(-0.159265 -0.00124061 0)
(-0.156495 -0.00152703 0)
(-0.153156 -0.00179739 0)
(-0.149221 -0.00207269 0)
(-0.144709 -0.00238349 0)
(-0.139628 -0.00267941 0)
(-0.133872 -0.00302659 0)
(-0.127411 -0.00339048 0)
(-0.120198 -0.00379182 0)
(-0.112143 -0.00418211 0)
(-0.103226 -0.00463973 0)
(-0.093451 -0.00507637 0)
(-0.0828157 -0.00548601 0)
(-0.0713099 -0.00590102 0)
(-0.0589902 -0.00628612 0)
(-0.0459224 -0.00663723 0)
(-0.0322008 -0.00699056 0)
(-0.0177895 -0.0072884 0)
(-0.00271847 -0.00759045 0)
(0.0128946 -0.00785485 0)
(0.0289845 -0.00809008 0)
(0.0454666 -0.00825998 0)
(0.0622249 -0.00834375 0)
(0.0790646 -0.00833309 0)
(0.0957472 -0.00818268 0)
(0.112009 -0.00790755 0)
(0.127584 -0.00750318 0)
(0.142194 -0.00694043 0)
(0.155579 -0.00629467 0)
(0.167502 -0.00549347 0)
(0.177724 -0.00461836 0)
(0.18606 -0.00363108 0)
(0.192338 -0.00258688 0)
(0.196412 -0.00145397 0)
(0.198136 -0.00025554 0)
(0.197457 0.000933523 0)
(0.194251 0.00216772 0)
(0.188692 0.00332984 0)
(0.180858 0.00442143 0)
(0.170894 0.0054304 0)
(0.159016 0.00631287 0)
(0.145461 0.00708634 0)
(0.130483 0.00774996 0)
(0.114316 0.00826327 0)
(0.0972487 0.00863624 0)
(0.0795652 0.00888065 0)
(0.0615236 0.00898249 0)
(0.0433965 0.00898238 0)
(0.0253815 0.00889306 0)
(0.00763355 0.00870522 0)
(-0.00968043 0.00846329 0)
(-0.0264096 0.00812852 0)
(-0.0424522 0.00774322 0)
(-0.0576539 0.00730868 0)
(-0.0719357 0.00687498 0)
(-0.0852891 0.00637783 0)
(-0.0976545 0.00589437 0)
(-0.109013 0.00539162 0)
(-0.119396 0.00490826 0)
(-0.128808 0.00442887 0)
(-0.137259 0.00396542 0)
(-0.144795 0.00351372 0)
(-0.151443 0.00307511 0)
(-0.157215 0.00265282 0)
(-0.162148 0.00225585 0)
(-0.166286 0.0018705 0)
(-0.169695 0.00151046 0)
(-0.172395 0.00116785 0)
(-0.174448 0.000906539 0)
(-0.175946 0.000610729 0)
(-0.176931 0.000357399 0)
(-0.177407 9.54748e-05 0)
(-0.177357 -0.000126665 0)
(-0.176762 -0.000414883 0)
(-0.175635 -0.000681794 0)
(-0.173941 -0.000964986 0)
(-0.171699 -0.00124386 0)
(-0.168899 -0.00153327 0)
(-0.165529 -0.00181035 0)
(-0.161508 -0.00209731 0)
(-0.156783 -0.00246036 0)
(-0.15141 -0.00281111 0)
(-0.145375 -0.00317346 0)
(-0.138427 -0.00360175 0)
(-0.130689 -0.00403855 0)
(-0.122143 -0.0044449 0)
(-0.112558 -0.00489667 0)
(-0.102197 -0.00532472 0)
(-0.0908494 -0.00581845 0)
(-0.0785616 -0.00628155 0)
(-0.0654151 -0.00672821 0)
(-0.0513028 -0.00718754 0)
(-0.0363561 -0.00764894 0)
(-0.0205282 -0.00809973 0)
(-0.00334836 -0.00853595 0)
(0.0147698 -0.00890963 0)
(0.0332585 -0.00924544 0)
(0.0522804 -0.00944486 0)
(0.0715199 -0.00950082 0)
(0.0906901 -0.00945398 0)
(0.109486 -0.00926004 0)
(0.127711 -0.0088004 0)
(0.144942 -0.00826556 0)
(0.160845 -0.00750279 0)
(0.175138 -0.00664185 0)
(0.187508 -0.00560873 0)
(0.197696 -0.00440836 0)
(0.205467 -0.00316066 0)
(0.210662 -0.00180533 0)
(0.213077 -0.000358753 0)
(0.212628 0.00101064 0)
(0.209133 0.00241785 0)
(0.202904 0.00378403 0)
(0.194154 0.00492084 0)
(0.18312 0.00601791 0)
(0.170088 0.00685364 0)
(0.155394 0.00763378 0)
(0.139347 0.00826812 0)
(0.122312 0.00860223 0)
(0.104609 0.00888437 0)
(0.0865068 0.00902298 0)
(0.0683531 0.00891831 0)
(0.0502688 0.00880344 0)
(0.0325131 0.00854805 0)
(0.0154604 0.00823369 0)
(-0.000411845 0.00789572 0)
(-0.0153955 0.00746569 0)
(-0.0298931 0.00707224 0)
(-0.0435997 0.00665577 0)
(-0.0564582 0.00619776 0)
(-0.0684697 0.00578425 0)
(-0.0796483 0.00535289 0)
(-0.0900246 0.00496988 0)
(-0.0996338 0.00460069 0)
(-0.108508 0.00423036 0)
(-0.116687 0.00389798 0)
(-0.1242 0.00357597 0)
(-0.131068 0.0032501 0)
(-0.137307 0.00294216 0)
(-0.142919 0.00262281 0)
(-0.147897 0.00230766 0)
(-0.152225 0.00197989 0)
(-0.155876 0.00163272 0)
(-0.158821 0.00127229 0)
(-0.161029 0.000889618 0)
(-0.162438 0.000496675 0)
(-0.163058 8.69939e-05 0)
(-0.162811 -0.000358156 0)
(-0.161639 -0.000819176 0)
(-0.159529 -0.00128877 0)
(-0.156459 -0.00177237 0)
(-0.15241 -0.00225789 0)
(-0.147363 -0.00274472 0)
(-0.141319 -0.00324919 0)
(-0.13428 -0.00373126 0)
(-0.126255 -0.00420261 0)
(-0.117262 -0.00470025 0)
(-0.107324 -0.00514198 0)
(-0.0964791 -0.00561758 0)
(-0.0847656 -0.0060135 0)
(-0.0722386 -0.0063762 0)
(-0.0589526 -0.00678626 0)
(-0.0449683 -0.00707465 0)
(-0.0303491 -0.007313 0)
(-0.0146838 -0.00760071 0)
(0.000916383 -0.00780935 0)
(0.0163224 -0.00799699 0)
(0.0323661 -0.0080074 0)
(0.0484724 -0.00794938 0)
(0.0644997 -0.00794425 0)
(0.0802844 -0.00773902 0)
(0.0974556 -0.00745535 0)
(0.116918 0.0126146 0)
(0.100713 0.0128239 0)
(0.0819235 0.0131057 0)
(0.0629594 0.0132229 0)
(0.0440607 0.0129598 0)
(0.0252967 0.0127896 0)
(0.007035 0.0122878 0)
(-0.0103296 0.01192 0)
(-0.0270288 0.0114456 0)
(-0.0430105 0.0107677 0)
(-0.0581308 0.0101855 0)
(-0.072323 0.00955882 0)
(-0.085546 0.00882598 0)
(-0.0977941 0.00817296 0)
(-0.109057 0.00745647 0)
(-0.119353 0.0068117 0)
(-0.128696 0.00617178 0)
(-0.137107 0.00551633 0)
(-0.144621 0.00491372 0)
(-0.151266 0.0043271 0)
(-0.157073 0.00374782 0)
(-0.162077 0.00320444 0)
(-0.166307 0.00267812 0)
(-0.169791 0.00216441 0)
(-0.172556 0.00166912 0)
(-0.174626 0.00118201 0)
(-0.176009 0.000712417 0)
(-0.176703 0.000256075 0)
(-0.176726 -0.000218604 0)
(-0.176073 -0.000699519 0)
(-0.174728 -0.00118262 0)
(-0.172682 -0.00167951 0)
(-0.169916 -0.00218533 0)
(-0.166411 -0.00271562 0)
(-0.162143 -0.00325042 0)
(-0.157075 -0.00380234 0)
(-0.15119 -0.0043975 0)
(-0.144465 -0.00497849 0)
(-0.136866 -0.0055719 0)
(-0.128369 -0.00623872 0)
(-0.118952 -0.00684835 0)
(-0.1086 -0.00756051 0)
(-0.0972866 -0.00817118 0)
(-0.0850256 -0.00876904 0)
(-0.0717964 -0.00950743 0)
(-0.0575812 -0.0100661 0)
(-0.0425001 -0.0105747 0)
(-0.0265052 -0.0112217 0)
(-0.00999399 -0.0116742 0)
(0.00683394 -0.0119376 0)
(0.0243133 -0.0123686 0)
(0.0422576 -0.0124864 0)
(0.060424 -0.0126673 0)
(0.0786281 -0.0125648 0)
(0.0966471 -0.012285 0)
(0.114253 -0.0119925 0)
(0.131246 -0.0114673 0)
(0.147398 -0.0107485 0)
(0.162482 -0.0099723 0)
(0.176287 -0.00898467 0)
(0.188581 -0.00791576 0)
(0.199208 -0.00671683 0)
(0.207999 -0.00534287 0)
(0.214778 -0.00394502 0)
(0.219496 -0.00247538 0)
(0.222012 -0.000887763 0)
(0.222206 0.00058543 0)
(0.22014 0.00219802 0)
(0.215812 0.00367986 0)