/*--------------------------------*- C++ -*----------------------------------*\
| =========                 |                                                 |
| \\      /  F ield         | OpenFOAM: The Open Source CFD Toolbox           |
|  \\    /   O peration     | Version:  3.0.1                                 |
|   \\  /    A nd           | Web:      www.OpenFOAM.org                      |
|    \\/     M anipulation  |                                                 |
\*---------------------------------------------------------------------------*/
FoamFile
{
    version     2.0;
    format      ascii;
    class       surfaceScalarField;
    location    "54.4";
    object      alphaPhi;
}
// * * * * * * * * * * * * * * * * * * * * * * * * * * * * * * * * * * * * * //

dimensions      [0 3 -1 0 0 0 0];

internalField   nonuniform List<scalar> 
42423
(
0.000241979
1.4085e-05
0.000227008
1.49708e-05
0.000211046
1.59618e-05
0.000194215
1.68317e-05
0.000177001
1.7213e-05
0.000159382
1.76192e-05
0.000141719
1.76631e-05
0.000124055
1.76635e-05
0.00010651
1.75456e-05
8.93604e-05
1.71493e-05
7.26381e-05
1.67222e-05
5.65018e-05
1.61363e-05
4.10539e-05
1.54478e-05
2.63703e-05
1.46836e-05
1.25749e-05
1.37954e-05
-4.15147e-07
1.299e-05
-1.25404e-05
1.21252e-05
-2.37531e-05
1.12127e-05
-3.4047e-05
1.02939e-05
-4.34479e-05
9.40087e-06
-5.19565e-05
8.50856e-06
-5.96158e-05
7.65924e-06
-6.64367e-05
6.82088e-06
-7.24655e-05
6.02885e-06
-7.7741e-05
5.27548e-06
-8.22813e-05
4.54024e-06
-8.61436e-05
3.86237e-06
-8.93657e-05
3.22204e-06
-9.19465e-05
2.58077e-06
-9.38874e-05
1.94087e-06
-9.52308e-05
1.34344e-06
-9.59775e-05
7.4666e-07
-9.6118e-05
1.40575e-07
-9.56187e-05
-4.99303e-07
-9.44821e-05
-1.1367e-06
-9.27491e-05
-1.73297e-06
-9.03096e-05
-2.4395e-06
-8.71894e-05
-3.12023e-06
-8.34676e-05
-3.72183e-06
-7.87916e-05
-4.67596e-06
-7.351e-05
-5.28165e-06
-6.72603e-05
-6.24971e-06
-6.01895e-05
-7.07089e-06
-5.23154e-05
-7.87415e-06
-4.34904e-05
-8.82497e-06
-3.35211e-05
-9.96935e-06
-2.27474e-05
-1.07738e-05
-1.09225e-05
-1.1825e-05
1.96568e-06
-1.28882e-05
1.56565e-05
-1.36909e-05
3.03892e-05
-1.47328e-05
4.60025e-05
-1.56134e-05
6.24748e-05
-1.64725e-05
7.98051e-05
-1.73304e-05
9.75968e-05
-1.77918e-05
0.000115823
-1.8226e-05
0.000134511
-1.86886e-05
0.000153144
-1.86326e-05
0.000171753
-1.86094e-05
0.000190016
-1.82637e-05
0.000207738
-1.77216e-05
0.000224876
-1.71383e-05
0.000240938
-1.60621e-05
0.000255784
-1.48459e-05
0.000269339
-1.35549e-05
0.00028118
-1.18411e-05
0.000291288
-1.01086e-05
0.000299445
-8.15674e-06
0.000305516
-6.07179e-06
0.000309346
-3.82971e-06
0.000310702
-1.35631e-06
0.000309752
9.49615e-07
0.000306126
3.62661e-06
0.000299627
6.49897e-06
0.000290436
9.19094e-06
0.000278556
1.18792e-05
0.000264273
1.42833e-05
0.000247825
1.64475e-05
0.000229514
1.83114e-05
0.000209791
1.9723e-05
0.000189085
2.07062e-05
0.000167766
2.13185e-05
0.000146276
2.14905e-05
0.000124932
2.13434e-05
0.000104018
2.09144e-05
8.37218e-05
2.0296e-05
6.4211e-05
1.95108e-05
4.5608e-05
1.86031e-05
2.79278e-05
1.76802e-05
1.14073e-05
1.65205e-05
-4.08333e-06
1.54906e-05
-1.88474e-05
1.4764e-05
-3.26641e-05
1.38166e-05
-4.55322e-05
1.28681e-05
-5.73173e-05
1.17849e-05
-6.81082e-05
1.07909e-05
-7.79129e-05
9.8046e-06
-8.66261e-05
8.71309e-06
-9.43859e-05
7.7597e-06
-0.000101153
6.76748e-06
-0.000106896
5.74282e-06
-0.000111769
4.8729e-06
-0.00011563
3.86039e-06
-0.000118533
2.90289e-06
-0.000120402
1.86881e-06
-0.00012131
9.08269e-07
-0.000121165
-1.4468e-07
-0.000120053
-1.11266e-06
-0.000118053
-2.00018e-06
-0.000115251
-2.80172e-06
-0.000111775
-3.47599e-06
-0.000107879
-3.89576e-06
-0.000103468
-4.41146e-06
-9.86802e-05
-4.78779e-06
-9.35241e-05
-5.15622e-06
-8.79997e-05
-5.52444e-06
-8.20468e-05
-5.95292e-06
-7.56318e-05
-6.41505e-06
-6.8756e-05
-6.87587e-06
-6.13855e-05
-7.37054e-06
-5.33752e-05
-8.01041e-06
-4.46823e-05
-8.69295e-06
-3.52541e-05
-9.42831e-06
-2.52625e-05
-9.99164e-06
-1.44501e-05
-1.08125e-05
-2.84308e-06
-1.16071e-05
9.40862e-06
-1.22518e-05
2.2475e-05
-1.30665e-05
3.6288e-05
-1.38132e-05
5.08359e-05
-1.4548e-05
6.60801e-05
-1.52443e-05
8.19333e-05
-1.58534e-05
9.83625e-05
-1.64294e-05
0.000115243
-1.68808e-05
0.000132488
-1.7245e-05
0.000150004
-1.75162e-05
0.000167531
-1.7527e-05
0.000185038
-1.75078e-05
0.000202207
-1.71685e-05
0.000218892
-1.66857e-05
0.000234842
-1.59504e-05
0.000249794
-1.4952e-05
0.000263435
-1.36413e-05
0.00027557
-1.21348e-05
0.000285955
-1.03853e-05
0.000294346
-8.39129e-06
0.000300541
-6.19519e-06
0.000304427
-3.88633e-06
0.000305835
-1.40804e-06
0.000304826
1.00926e-06
0.000301286
3.53972e-06
0.000295241
6.04443e-06
0.000286953
8.28796e-06
0.000276369
1.05839e-05
0.000263828
1.25413e-05
0.00024949
1.43376e-05
0.000233674
1.58156e-05
0.000216522
1.71524e-05
0.000198461
1.80607e-05
0.00017971
1.8751e-05
0.000160626
1.90839e-05
0.000141273
1.93527e-05
0.000122069
1.92041e-05
0.00010325
1.88184e-05
8.49574e-05
1.82927e-05
6.73498e-05
1.76076e-05
5.0553e-05
1.67967e-05
3.4705e-05
1.5848e-05
1.98745e-05
1.48304e-05
6.00412e-06
1.38704e-05
-6.7976e-06
1.28017e-05
-1.84454e-05
1.16478e-05
-2.90758e-05
1.06303e-05
-3.86733e-05
9.59756e-06
-4.72461e-05
8.5728e-06
-5.48428e-05
7.59667e-06
-6.14997e-05
6.65687e-06
-6.72551e-05
5.75538e-06
-7.21307e-05
4.87563e-06
-7.61964e-05
4.06574e-06
-7.94957e-05
3.29927e-06
-8.21193e-05
2.62353e-06
-8.40258e-05
1.90649e-06
-8.52551e-05
1.2293e-06
-8.5802e-05
5.46919e-07
-8.56585e-05
-1.43497e-07
-8.49468e-05
-7.11712e-07
-8.36824e-05
-1.26444e-06
-8.19173e-05
-1.76507e-06
-7.95044e-05
-2.41295e-06
-7.67095e-05
-2.79483e-06
-7.33733e-05
-3.33623e-06
-6.94569e-05
-3.91649e-06
-6.50778e-05
-4.37905e-06
-6.0076e-05
-5.00186e-06
-5.45758e-05
-5.5002e-06
-4.84202e-05
-6.15561e-06
-4.16177e-05
-6.80253e-06
-3.41587e-05
-7.45911e-06
-2.59836e-05
-8.17512e-06
-1.71137e-05
-8.86995e-06
-7.48547e-06
-9.62824e-06
2.88027e-06
-1.03658e-05
1.40538e-05
-1.11736e-05
2.60655e-05
-1.20117e-05
3.88926e-05
-1.28272e-05
5.25666e-05
-1.36741e-05
6.7042e-05
-1.44754e-05
8.23185e-05
-1.52767e-05
9.82688e-05
-1.59504e-05
0.000114827
-1.6558e-05
0.000131864
-1.7037e-05
0.000149226
-1.73629e-05
0.000166731
-1.75046e-05
0.000184202
-1.74715e-05
0.000201396
-1.71935e-05
0.000218157
-1.67616e-05
0.000234146
-1.59894e-05
0.000249153
-1.50073e-05
0.000262921
-1.37678e-05
0.000275174
-1.22534e-05
0.000285638
-1.04637e-05
0.000294124
-8.48591e-06
0.00030049
-6.36679e-06
0.000304476
-3.9855e-06
0.000306067
-1.59193e-06
0.000305308
7.59212e-07
0.000302065
3.24295e-06
0.000296399
5.66566e-06
0.000288518
7.88136e-06
0.000278492
1.0026e-05
0.00026652
1.1971e-05
0.000252765
1.37557e-05
0.000237564
1.52001e-05
0.000221129
1.64348e-05
0.000203836
1.72935e-05
0.000185845
1.79907e-05
0.000167481
1.83635e-05
0.000148946
1.85353e-05
0.000130556
1.83896e-05
0.000112343
1.82136e-05
9.47163e-05
1.76263e-05
7.76199e-05
1.70963e-05
6.13619e-05
1.62579e-05
4.60058e-05
1.53561e-05
3.15972e-05
1.44086e-05
1.82521e-05
1.33451e-05
5.9806e-06
1.22714e-05
-5.24682e-06
1.12274e-05
-1.53661e-05
1.01193e-05
-2.44211e-05
9.05491e-06
-3.24522e-05
8.03108e-06
-3.94514e-05
6.9992e-06
-4.54381e-05
5.98677e-06
-5.05378e-05
5.09961e-06
-5.47038e-05
4.16607e-06
-5.79933e-05
3.28944e-06
-6.04672e-05
2.47388e-06
-6.22055e-05
1.73831e-06
-6.33102e-05
1.10472e-06
-6.38937e-05
5.83505e-07
-6.40218e-05
1.28111e-07
-6.37916e-05
-2.30221e-07
-6.32892e-05
-5.02439e-07
-6.24064e-05
-8.82767e-07
-6.13269e-05
-1.07942e-06
-5.9774e-05
-1.55297e-06
-5.78489e-05
-1.925e-06
-5.55062e-05
-2.34272e-06
-5.26887e-05
-2.81748e-06
-4.94259e-05
-3.26275e-06
-4.55504e-05
-3.87548e-06
-4.10426e-05
-4.50778e-06
-3.57837e-05
-5.25889e-06
-2.9609e-05
-6.17468e-06
-2.24763e-05
-7.13266e-06
-1.42874e-05
-8.18894e-06
-4.79789e-06
-9.4896e-06
5.87401e-06
-1.0672e-05
1.76997e-05
-1.18258e-05
3.05603e-05
-1.28607e-05
4.43267e-05
-1.37665e-05
5.90074e-05
-1.46808e-05
7.45336e-05
-1.55264e-05
9.0686e-05
-1.61526e-05
0.000107612
-1.69262e-05
0.000125001
-1.73893e-05
0.000142849
-1.78478e-05
0.000161014
-1.81657e-05
0.000179269
-1.82552e-05
0.000197661
-1.83921e-05
0.000215941
-1.82798e-05
0.000233837
-1.78969e-05
0.000251342
-1.75048e-05
0.000268096
-1.67547e-05
0.000283856
-1.57596e-05
0.000298496
-1.46403e-05
0.000311537
-1.3041e-05
0.000322835
-1.12981e-05
0.000331985
-9.15011e-06
0.000338843
-6.85889e-06
0.000343183
-4.34019e-06
0.000344472
-1.289e-06
0.0003432
1.27162e-06
0.000339506
3.69447e-06
0.000333402
6.10403e-06
0.000325178
8.22369e-06
0.000314689
1.04886e-05
0.000302396
1.22927e-05
0.000288418
1.39779e-05
0.000272868
1.55505e-05
0.000256332
1.65352e-05
0.000238944
1.73884e-05
0.000220855
1.80885e-05
0.00020257
1.82851e-05
0.000184143
1.84264e-05
0.000165955
1.81885e-05
0.00014807
1.78849e-05
0.000130622
1.74476e-05
0.000113893
1.67289e-05
9.79083e-05
1.5985e-05
8.27541e-05
1.51542e-05
6.85508e-05
1.42033e-05
5.52719e-05
1.32789e-05
4.29433e-05
1.23285e-05
3.15515e-05
1.13919e-05
2.09747e-05
1.05768e-05
1.1286e-05
9.68865e-06
2.34275e-06
8.94326e-06
-6.02549e-06
8.36823e-06
-1.37477e-05
7.72218e-06
-2.0862e-05
7.11432e-06
-2.74134e-05
6.55144e-06
-3.34098e-05
5.99635e-06
-3.88746e-05
5.46477e-06
-4.38157e-05
4.94114e-06
-4.82018e-05
4.38616e-06
-5.20252e-05
3.82334e-06
-5.52387e-05
3.21349e-06
-5.78073e-05
2.56865e-06
-5.97035e-05
1.8962e-06
-6.08888e-05
1.18528e-06
-6.13478e-05
4.59044e-07
-6.10173e-05
-3.30548e-07
-5.9846e-05
-1.17129e-06
-5.79214e-05
-1.92465e-06
-5.50822e-05
-2.83918e-06
-5.14285e-05
-3.65365e-06
-4.69683e-05
-4.46024e-06
-4.15936e-05
-5.37466e-06
-3.54044e-05
-6.18919e-06
-2.82974e-05
-7.107e-06
-2.03059e-05
-7.99155e-06
-1.14233e-05
-8.88254e-06
-1.42698e-06
-9.99636e-06
9.19357e-06
-1.06205e-05
-1.13505e-05
0.000242026
2.81756e-05
0.00022705
2.99473e-05
0.000211081
3.19302e-05
0.000194242
3.36708e-05
0.000177022
3.44329e-05
0.000159395
3.52455e-05
0.000141725
3.53332e-05
0.000124055
3.53334e-05
0.000106501
3.50993e-05
8.93481e-05
3.43025e-05
7.26201e-05
3.34501e-05
5.64783e-05
3.2278e-05
4.10272e-05
3.08989e-05
2.63422e-05
2.93685e-05
1.25416e-05
2.75959e-05
-4.50172e-07
2.59817e-05
-1.25759e-05
2.42508e-05
-2.37898e-05
2.24266e-05
-3.4084e-05
2.05881e-05
-4.34851e-05
1.88019e-05
-5.19937e-05
1.70171e-05
-5.96533e-05
1.53188e-05
-6.64748e-05
1.36424e-05
-7.25046e-05
1.20586e-05
-7.77791e-05
1.05499e-05
-8.23185e-05
9.07967e-06
-8.61806e-05
7.72443e-06
-8.94011e-05
6.44255e-06
-9.19786e-05
5.15824e-06
-9.39217e-05
3.88396e-06
-9.52711e-05
2.69289e-06
-9.60197e-05
1.49523e-06
-9.61578e-05
2.78637e-07
-9.56561e-05
-1.00104e-06
-9.45191e-05
-2.27364e-06
-9.27869e-05
-3.4652e-06
-9.03479e-05
-4.87858e-06
-8.72269e-05
-6.24119e-06
-8.34945e-05
-7.45428e-06
-7.88376e-05
-9.33287e-06
-7.35523e-05
-1.05671e-05
-6.73265e-05
-1.24756e-05
-6.02346e-05
-1.41628e-05
-5.23725e-05
-1.57363e-05
-4.35135e-05
-1.76841e-05
-3.35662e-05
-1.99167e-05
-2.27959e-05
-2.15442e-05
-1.09706e-05
-2.36505e-05
1.91473e-06
-2.57737e-05
1.56064e-05
-2.73828e-05
3.03417e-05
-2.94683e-05
4.59578e-05
-3.12296e-05
6.24343e-05
-3.29493e-05
7.97733e-05
-3.46695e-05
9.75735e-05
-3.55923e-05
0.00011581
-3.64627e-05
0.00013451
-3.73893e-05
0.000153151
-3.72737e-05
0.000171775
-3.72334e-05
0.000190049
-3.65378e-05
0.000207791
-3.5464e-05
0.000224938
-3.42857e-05
0.000241009
-3.21334e-05
0.000255871
-2.97084e-05
0.000269438
-2.7122e-05
0.000281287
-2.36905e-05
0.000291404
-2.02259e-05
0.000299569
-1.63211e-05
0.000305649
-1.21526e-05
0.000309491
-7.67134e-06
0.000310862
-2.72787e-06
0.000309904
1.90723e-06
0.000306281
7.24998e-06
0.000299788
1.29916e-05
0.0002906
1.83786e-05
0.000278725
2.37541e-05
0.000264447
2.85609e-05
0.000247998
3.28963e-05
0.000229685
3.66241e-05
0.000209968
3.94405e-05
0.000189265
4.14087e-05
0.000167953
4.2631e-05
0.000146466
4.29778e-05
0.000125114
4.26952e-05
0.000104207
4.1821e-05
8.39242e-05
4.0579e-05
6.44188e-05
3.90163e-05
4.58301e-05
3.71919e-05
2.81156e-05
3.53947e-05
1.15902e-05
3.3046e-05
-3.88747e-06
3.09682e-05
-1.86558e-05
2.95323e-05
-3.24781e-05
2.76389e-05
-4.53699e-05
2.57599e-05
-5.71542e-05
2.35692e-05
-6.79501e-05
2.15867e-05
-7.77773e-05
1.96317e-05
-8.65103e-05
1.7446e-05
-9.42771e-05
1.55264e-05
-0.000101072
1.35623e-05
-0.00010683
1.1501e-05
-0.000111724
9.76634e-06
-0.000115606
7.74252e-06
-0.000118526
5.82262e-06
-0.000120415
3.75797e-06
-0.000121335
1.82808e-06
-0.000121205
-2.74731e-07
-0.000120107
-2.21013e-06
-0.000118105
-4.00238e-06
-0.000115303
-5.60366e-06
-0.000111844
-6.9352e-06
-0.000107938
-7.80198e-06
-0.000103536
-8.81355e-06
-9.87553e-05
-9.56872e-06
-9.35883e-05
-1.03233e-05
-8.80737e-05
-1.10391e-05
-8.21263e-05
-1.19005e-05
-7.57253e-05
-1.28161e-05
-6.88677e-05
-1.37335e-05
-6.14856e-05
-1.47527e-05
-5.34677e-05
-1.60284e-05
-4.47732e-05
-1.73875e-05
-3.53849e-05
-1.88167e-05
-2.53495e-05
-2.00271e-05
-1.45385e-05
-2.16236e-05
-2.95784e-06
-2.31879e-05
9.329e-06
-2.45388e-05
2.24052e-05
-2.61428e-05
3.62208e-05
-2.76289e-05
5.07751e-05
-2.91025e-05
6.60225e-05
-3.04919e-05
8.1887e-05
-3.17181e-05
9.83131e-05
-3.28557e-05
0.000115201
-3.3769e-05
0.000132456
-3.45004e-05
0.000149962
-3.50223e-05
0.000167523
-3.50877e-05
0.000185006
-3.49911e-05
0.000202198
-3.43614e-05
0.000218892
-3.33795e-05
0.000234833
-3.1892e-05
0.000249776
-2.98947e-05
0.00026348
-2.73457e-05
0.00027561
-2.42652e-05
0.000286001
-2.07764e-05
0.000294391
-1.67818e-05
0.000300598
-1.24028e-05
0.000304472
-7.76045e-06
0.000305885
-2.82126e-06
0.000304871
2.02335e-06
0.000301312
7.09841e-06
0.000295267
1.20891e-05
0.000286929
1.66252e-05
0.000276427
2.10856e-05
0.000263873
2.50953e-05
0.000249498
2.87126e-05
0.000233621
3.16917e-05
0.00021649
3.42835e-05
0.000198404
3.61465e-05
0.000179641
3.75137e-05
0.000160513
3.82123e-05
0.000141239
3.86263e-05
0.000121994
3.84488e-05
0.000103142
3.76699e-05
8.48399e-05
3.65953e-05
6.7226e-05
3.52214e-05
5.04387e-05
3.3584e-05
3.45876e-05
3.16991e-05
1.96996e-05
2.97184e-05
5.86948e-06
2.77006e-05
-6.93699e-06
2.56082e-05
-1.8597e-05
2.33078e-05
-2.91948e-05
2.12281e-05
-3.88056e-05
1.92084e-05
-4.73704e-05
1.71376e-05
-5.49691e-05
1.51954e-05
-6.16226e-05
1.33104e-05
-6.7373e-05
1.15058e-05
-7.22401e-05
9.7427e-06
-7.62782e-05
8.10389e-06
-7.96347e-05
6.65578e-06
-8.2241e-05
5.22974e-06
-8.41379e-05
3.80338e-06
-8.53546e-05
2.44602e-06
-8.58921e-05
1.08437e-06
-8.57455e-05
-2.9011e-07
-8.50362e-05
-1.42096e-06
-8.376e-05
-2.54062e-06
-8.19927e-05
-3.53239e-06
-7.95835e-05
-4.82219e-06
-7.67906e-05
-5.58778e-06
-7.34488e-05
-6.678e-06
-6.95452e-05
-7.82012e-06
-6.5156e-05
-8.76829e-06
-6.01548e-05
-1.0003e-05
-5.46338e-05
-1.10212e-05
-4.84886e-05
-1.23009e-05
-4.16897e-05
-1.36015e-05
-3.42256e-05
-1.49232e-05
-2.60571e-05
-1.63436e-05
-1.71784e-05
-1.77488e-05
-7.5482e-06
-1.92584e-05
2.82274e-06
-2.07368e-05
1.39975e-05
-2.23484e-05
2.59986e-05
-2.40128e-05
3.88242e-05
-2.56529e-05
5.24948e-05
-2.73448e-05
6.69777e-05
-2.89584e-05
8.22556e-05
-3.05547e-05
9.82134e-05
-3.19083e-05
0.000114775
-3.31199e-05
0.000131821
-3.40831e-05
0.000149171
-3.47127e-05
0.000166685
-3.50193e-05
0.000184159
-3.49455e-05
0.000201359
-3.43934e-05
0.000218136
-3.35393e-05
0.000234133
-3.19857e-05
0.000249166
-3.00407e-05
0.000262926
-2.75284e-05
0.000275204
-2.4532e-05
0.000285674
-2.09338e-05
0.000294169
-1.69807e-05
0.000300511
-1.27092e-05
0.000304506
-7.98061e-06
0.000306111
-3.1971e-06
0.000305331
1.53868e-06
0.000302091
6.48291e-06
0.000296434
1.13227e-05
0.000288569
1.5746e-05
0.000278514
2.00809e-05
0.000266527
2.39575e-05
0.000252758
2.75245e-05
0.000237551
3.04068e-05
0.000221105
3.28807e-05
0.000203788
3.46109e-05
0.000185772
3.60063e-05
0.000167414
3.6721e-05
0.000148903
3.70469e-05
0.000130441
3.68513e-05
0.000112225
3.6429e-05
9.45745e-05
3.52771e-05
7.75193e-05
3.41515e-05
6.12524e-05
3.25247e-05
4.58825e-05
3.0726e-05
3.14673e-05
2.88237e-05
1.81123e-05
2.67002e-05
5.83501e-06
2.45487e-05
-5.37726e-06
2.24397e-05
-1.5484e-05
2.0226e-05
-2.45428e-05
1.81137e-05
-3.2574e-05
1.60622e-05
-3.95668e-05
1.3992e-05
-4.55522e-05
1.19722e-05
-5.06642e-05
1.02117e-05
-5.48264e-05
8.32829e-06
-5.81057e-05
6.56873e-06
-6.05615e-05
4.92966e-06
-6.22645e-05
3.44129e-06
-6.33818e-05
2.22206e-06
-6.39682e-05
1.16986e-06
-6.40951e-05
2.55045e-07
-6.38628e-05
-4.6255e-07
-6.33377e-05
-1.02756e-06
-6.24566e-05
-1.76386e-06
-6.13698e-05
-2.16622e-06
-5.98096e-05
-3.11313e-06
-5.78732e-05
-3.86141e-06
-5.55219e-05
-4.69392e-06
-5.26962e-05
-5.64323e-06
-4.94257e-05
-6.53319e-06
-4.55466e-05
-7.75459e-06
-4.10383e-05
-9.01599e-06
-3.57803e-05
-1.05169e-05
-2.96134e-05
-1.23416e-05
-2.24891e-05
-1.4257e-05
-1.43133e-05
-1.63647e-05
-4.83752e-06
-1.89655e-05
5.8284e-06
-2.1338e-05
1.76372e-05
-2.36347e-05
3.04824e-05
-2.5706e-05
4.42332e-05
-2.75175e-05
5.88984e-05
-2.93463e-05
7.44154e-05
-3.10436e-05
9.0565e-05
-3.23025e-05
0.000107487
-3.38484e-05
0.000124876
-3.47788e-05
0.00014273
-3.57017e-05
0.000160905
-3.63414e-05
0.000179169
-3.65193e-05
0.000197571
-3.67945e-05
0.000215862
-3.65719e-05
0.000233773
-3.58077e-05
0.000251285
-3.50176e-05
0.000268045
-3.35144e-05
0.000283819
-3.15339e-05
0.00029845
-2.92716e-05
0.000311475
-2.60668e-05
0.000322807
-2.263e-05
0.000331976
-1.832e-05
0.000338801
-1.36841e-05
0.000343143
-8.68257e-06
0.000344473
-2.61871e-06
0.000343223
2.52068e-06
0.000339567
7.35026e-06
0.000333492
1.21791e-05
0.000325267
1.64484e-05
0.000314771
2.09841e-05
0.000302469
2.45943e-05
0.000288481
2.79657e-05
0.00027292
3.11117e-05
0.000256374
3.30809e-05
0.000238975
3.4787e-05
0.000220876
3.6187e-05
0.000202582
3.65795e-05
0.000184147
3.68613e-05
0.00016595
3.63851e-05
0.000148058
3.57768e-05
0.000130604
3.49015e-05
0.00011387
3.34629e-05
9.78798e-05
3.19746e-05
8.27234e-05
3.03106e-05
6.85183e-05
2.84083e-05
5.52391e-05
2.6558e-05
4.29101e-05
2.46575e-05
3.15202e-05
2.27817e-05
2.09481e-05
2.11488e-05
1.1253e-05
1.93837e-05
2.31881e-06
1.78775e-05
-6.05112e-06
1.67382e-05
-1.37732e-05
1.54442e-05
-2.08905e-05
1.42317e-05
-2.74393e-05
1.31002e-05
-3.34373e-05
1.19944e-05
-3.88982e-05
1.09256e-05
-4.38463e-05
9.88932e-06
-4.82325e-05
8.77234e-06
-5.20606e-05
7.65146e-06
-5.52727e-05
6.42557e-06
-5.78407e-05
5.1366e-06
-5.97369e-05
3.79243e-06
-6.0924e-05
2.37242e-06
-6.13825e-05
9.1752e-07
-6.1058e-05
-6.55069e-07
-5.98821e-05
-2.34714e-06
-5.79529e-05
-3.85382e-06
-5.51182e-05
-5.67391e-06
-5.14653e-05
-7.30654e-06
-4.70011e-05
-8.92447e-06
-4.16285e-05
-1.07472e-05
-3.54393e-05
-1.23784e-05
-2.83282e-05
-1.42181e-05
-2.0338e-05
-1.59817e-05
-1.14581e-05
-1.77624e-05
-1.46269e-06
-1.99918e-05
9.16025e-06
-2.12435e-05
-2.27044e-05
0.000242116
4.22819e-05
0.000227123
4.49394e-05
0.000211139
4.79146e-05
0.000194283
5.05261e-05
0.000177048
5.16685e-05
0.000159406
5.28868e-05
0.000141721
5.30183e-05
0.000124039
5.30155e-05
0.000106471
5.26674e-05
8.93101e-05
5.1463e-05
7.25733e-05
5.01869e-05
5.64229e-05
4.84283e-05
4.09673e-05
4.63545e-05
2.62824e-05
4.40533e-05
1.24721e-05
4.14061e-05
-5.22869e-07
3.89766e-05
-1.26488e-05
3.63766e-05
-2.38624e-05
3.36402e-05
-3.41556e-05
3.08813e-05
-4.35552e-05
2.82015e-05
-5.20621e-05
2.55241e-05
-5.97193e-05
2.29759e-05
-6.65375e-05
2.04607e-05
-7.25656e-05
1.80866e-05
-7.784e-05
1.58244e-05
-8.23796e-05
1.36192e-05
-8.62397e-05
1.15846e-05
-8.94572e-05
9.66003e-06
-9.20324e-05
7.73337e-06
-9.3978e-05
5.82957e-06
-9.53269e-05
4.04183e-06
-9.60724e-05
2.24073e-06
-9.6209e-05
4.15182e-07
-9.57048e-05
-1.50526e-06
-9.45685e-05
-3.40996e-06
-9.2837e-05
-5.19666e-06
-9.03984e-05
-7.31728e-06
-8.72773e-05
-9.36228e-06
-8.35377e-05
-1.11939e-05
-7.89032e-05
-1.39674e-05
-7.36117e-05
-1.58586e-05
-6.74121e-05
-1.86753e-05
-6.03007e-05
-2.12742e-05
-5.24458e-05
-2.35913e-05
-4.35637e-05
-2.65663e-05
-3.36387e-05
-2.98417e-05
-2.28737e-05
-3.23093e-05
-1.10485e-05
-3.54758e-05
1.83719e-06
-3.86595e-05
1.55311e-05
-4.10768e-05
3.02739e-05
-4.42113e-05
4.58956e-05
-4.68515e-05
6.23797e-05
-4.94336e-05
7.97303e-05
-5.20203e-05
9.75411e-05
-5.34032e-05
0.00011579
-5.47121e-05
0.000134511
-5.61101e-05
0.000153174
-5.59364e-05
0.000171815
-5.58748e-05
0.000190095
-5.48181e-05
0.000207857
-5.32263e-05
0.000225035
-5.14643e-05
0.00024112
-4.82189e-05
0.000256014
-4.46027e-05
0.000269601
-4.07093e-05
0.000281462
-3.55515e-05
0.000291603
-3.03671e-05
0.000299787
-2.45054e-05
0.000305891
-1.82565e-05
0.000309753
-1.15337e-05
0.000311125
-4.10034e-06
0.000310123
2.90965e-06
0.000306495
1.08781e-05
0.000300014
1.94716e-05
0.000290837
2.75562e-05
0.000278967
3.56235e-05
0.000264698
4.28299e-05
0.000248256
4.93384e-05
0.000229948
5.49317e-05
0.000210233
5.91553e-05
0.000189536
6.21061e-05
0.000168231
6.39361e-05
0.000146752
6.44565e-05
0.000125411
6.40358e-05
0.000104497
6.27356e-05
8.42208e-05
6.08549e-05
6.47309e-05
5.85061e-05
4.61504e-05
5.57724e-05
2.85292e-05
5.30159e-05
1.18764e-05
4.96988e-05
-3.57284e-06
4.64175e-05
-1.83588e-05
4.43182e-05
-3.21802e-05
4.14602e-05
-4.50783e-05
3.86579e-05
-5.68716e-05
3.53624e-05
-6.76782e-05
3.23933e-05
-7.75368e-05
2.94901e-05
-8.63062e-05
2.62153e-05
-9.40974e-05
2.33176e-05
-0.000100925
2.03897e-05
-0.000106739
1.7315e-05
-0.000111621
1.46481e-05
-0.000115547
1.16686e-05
-0.000118496
8.77193e-06
-0.000120434
5.69508e-06
-0.000121376
2.77084e-06
-0.000121274
-3.77562e-07
-0.000120202
-3.2824e-06
-0.000118209
-5.9952e-06
-0.00011541
-8.40273e-06
-0.000111999
-1.03464e-05
-0.00010806
-1.17405e-05
-0.000103663
-1.32109e-05
-9.88953e-05
-1.43363e-05
-9.37235e-05
-1.54951e-05
-8.82419e-05
-1.65208e-05
-8.22853e-05
-1.78571e-05
-7.59134e-05
-1.9188e-05
-6.9116e-05
-2.0531e-05
-6.17044e-05
-2.21644e-05
-5.36772e-05
-2.40557e-05
-4.49947e-05
-2.60701e-05
-3.56322e-05
-2.81793e-05
-2.55255e-05
-3.0134e-05
-1.47406e-05
-3.24085e-05
-3.18994e-06
-3.47387e-05
9.14598e-06
-3.68748e-05
2.22235e-05
-3.92205e-05
3.60714e-05
-4.14769e-05
5.06156e-05
-4.36468e-05
6.58601e-05
-4.57365e-05
8.1742e-05
-4.76003e-05
9.81701e-05
-4.92839e-05
0.000115057
-5.06562e-05
0.000132348
-5.17915e-05
0.000149835
-5.25094e-05
0.00016743
-5.26831e-05
0.000184926
-5.24874e-05
0.00020215
-5.1585e-05
0.000218854
-5.00841e-05
0.000234813
-4.78512e-05
0.000249771
-4.48531e-05
0.000263525
-4.10997e-05
0.000275659
-3.64001e-05
0.000286073
-3.11899e-05
0.000294474
-2.51831e-05
0.000300739
-1.86682e-05
0.000304572
-1.15941e-05
0.000306011
-4.26018e-06
0.000304996
3.03782e-06
0.000301362
1.07319e-05
0.000295315
1.81357e-05
0.000286944
2.4996e-05
0.00027642
3.16094e-05
0.000263889
3.76268e-05
0.000249535
4.30657e-05
0.000233572
4.76546e-05
0.00021645
5.14055e-05
0.000198305
5.42913e-05
0.000179517
5.6302e-05
0.000160374
5.73547e-05
0.000141081
5.7919e-05
0.000121873
5.76569e-05
0.00010297
5.65725e-05
8.46651e-05
5.49004e-05
6.70021e-05
5.28843e-05
5.02245e-05
5.03616e-05
3.43998e-05
4.75237e-05
1.9446e-05
4.46722e-05
5.62317e-06
4.15233e-05
-7.17095e-06
3.84023e-05
-1.88434e-05
3.49803e-05
-2.94067e-05
3.17914e-05
-3.89897e-05
2.87913e-05
-4.75497e-05
2.56976e-05
-5.51814e-05
2.28271e-05
-6.18334e-05
1.99623e-05
-6.75743e-05
1.72467e-05
-7.24317e-05
1.46001e-05
-7.6472e-05
1.21442e-05
-7.98362e-05
1.00199e-05
-8.24351e-05
7.82868e-06
-8.4335e-05
5.70329e-06
-8.55477e-05
3.65866e-06
-8.60679e-05
1.60452e-06
-8.59914e-05
-3.66565e-07
-8.52838e-05
-2.12861e-06
-8.39663e-05
-3.8581e-06
-8.21167e-05
-5.38203e-06
-7.98219e-05
-7.117e-06
-7.69737e-05
-8.43603e-06
-7.36212e-05
-1.00305e-05
-6.97457e-05
-1.16957e-05
-6.53441e-05
-1.31699e-05
-6.03566e-05
-1.49905e-05
-5.47614e-05
-1.66164e-05
-4.8683e-05
-1.83793e-05
-4.1887e-05
-2.03975e-05
-3.43853e-05
-2.24249e-05
-2.6254e-05
-2.44749e-05
-1.73514e-05
-2.66514e-05
-7.74508e-06
-2.88648e-05
2.6442e-06
-3.11261e-05
1.38361e-05
-3.35404e-05
2.58037e-05
-3.59804e-05
3.8634e-05
-3.84832e-05
5.2312e-05
-4.10228e-05
6.68026e-05
-4.34491e-05
8.20753e-05
-4.58275e-05
9.80585e-05
-4.78916e-05
0.000114631
-4.96925e-05
0.000131724
-5.11765e-05
0.000149055
-5.20439e-05
0.000166598
-5.25619e-05
0.000184079
-5.24267e-05
0.000201302
-5.16162e-05
0.00021807
-5.03082e-05
0.000234119
-4.80341e-05
0.00024915
-4.50724e-05
0.000262959
-4.13371e-05
0.000275236
-3.68098e-05
0.000285722
-3.14196e-05
0.000294244
-2.55028e-05
0.000300591
-1.90561e-05
0.0003046
-1.19905e-05
0.000306219
-4.81588e-06
0.000305393
2.36381e-06
0.000302146
9.7299e-06
0.000296512
1.69569e-05
0.000288606
2.36519e-05
0.000278545
3.01413e-05
0.000266527
3.59753e-05
0.000252735
4.1316e-05
0.000237513
4.56291e-05
0.000221068
4.93254e-05
0.000203668
5.2011e-05
0.000185645
5.40285e-05
0.000167277
5.50891e-05
0.000148768
5.55554e-05
0.000130235
5.5385e-05
0.000112038
5.46253e-05
9.43552e-05
5.29602e-05
7.7363e-05
5.11437e-05
6.10828e-05
4.88049e-05
4.56882e-05
4.61205e-05
3.12423e-05
4.32696e-05
1.78752e-05
4.00672e-05
5.59068e-06
3.68332e-05
-5.60882e-06
3.36391e-05
-1.56776e-05
3.02948e-05
-2.47615e-05
2.71977e-05
-3.27886e-05
2.40893e-05
-3.97684e-05
2.09717e-05
-4.57956e-05
1.79994e-05
-5.08627e-05
1.52786e-05
-5.50166e-05
1.24822e-05
-5.83005e-05
9.85268e-06
-6.07381e-05
7.36725e-06
-6.24456e-05
5.14876e-06
-6.35157e-05
3.29215e-06
-6.41161e-05
1.77021e-06
-6.42451e-05
3.84069e-07
-6.40282e-05
-6.79386e-07
-6.34313e-05
-1.62448e-06
-6.25968e-05
-2.5984e-06
-6.14894e-05
-3.27361e-06
-5.99229e-05
-4.67961e-06
-5.79568e-05
-5.82743e-06
-5.56104e-05
-7.04036e-06
-5.27655e-05
-8.48808e-06
-4.94761e-05
-9.82251e-06
-4.55744e-05
-1.16563e-05
-4.10472e-05
-1.35431e-05
-3.57827e-05
-1.57815e-05
-2.96107e-05
-1.85136e-05
-2.24829e-05
-2.13848e-05
-1.43148e-05
-2.45328e-05
-4.85112e-06
-2.84293e-05
5.80011e-06
-3.19893e-05
1.75834e-05
-3.54182e-05
3.04024e-05
-3.85251e-05
4.41258e-05
-4.12411e-05
5.87642e-05
-4.39849e-05
7.42624e-05
-4.65421e-05
9.03962e-05
-4.84366e-05
0.000107313
-5.07654e-05
0.000124704
-5.21697e-05
0.000142563
-5.35615e-05
0.000160754
-5.45329e-05
0.000179032
-5.47979e-05
0.000197452
-5.52145e-05
0.000215765
-5.48855e-05
0.00023369
-5.3733e-05
0.000251216
-5.25431e-05
0.000267974
-5.02735e-05
0.000283726
-4.7286e-05
0.00029831
-4.38556e-05
0.000311285
-3.90424e-05
0.000322535
-3.38805e-05
0.000331626
-2.74115e-05
0.000338388
-2.04463e-05
0.000342698
-1.29929e-05
0.000344143
-4.06323e-06
0.000343145
3.5175e-06
0.00033969
1.0805e-05
0.000333666
1.82029e-05
0.000325435
2.46794e-05
0.000314923
3.14965e-05
0.000302601
3.6916e-05
0.000288591
4.19753e-05
0.000273007
4.66955e-05
0.000256439
4.96487e-05
0.000239019
5.22067e-05
0.0002209
5.43055e-05
0.000202587
5.48924e-05
0.000184136
5.53128e-05
0.000165923
5.45978e-05
0.000148017
5.36823e-05
0.000130552
5.23671e-05
0.000113808
5.02064e-05
9.78103e-05
4.79724e-05
8.26502e-05
4.54705e-05
6.84391e-05
4.26195e-05
5.51642e-05
3.98328e-05
4.2836e-05
3.69858e-05
3.14507e-05
3.41669e-05
2.08921e-05
3.17075e-05
1.11843e-05
2.90915e-05
2.26872e-06
2.6793e-05
-6.10395e-06
2.51108e-05
-1.38208e-05
2.31611e-05
-2.09318e-05
2.13426e-05
-2.74808e-05
1.96492e-05
-3.34793e-05
1.79929e-05
-3.89418e-05
1.63881e-05
-4.38904e-05
1.48379e-05
-4.82779e-05
1.31598e-05
-5.21079e-05
1.14815e-05
-5.53246e-05
9.64228e-06
-5.78977e-05
7.70972e-06
-5.97966e-05
5.69127e-06
-6.09876e-05
3.56342e-06
-6.14431e-05
1.37306e-06
-6.11082e-05
-9.89978e-07
-5.99421e-05
-3.51319e-06
-5.80046e-05
-5.7914e-06
-5.51807e-05
-8.49772e-06
-5.15292e-05
-1.09581e-05
-4.70596e-05
-1.3394e-05
-4.16916e-05
-1.61153e-05
-3.55042e-05
-1.85658e-05
-2.83868e-05
-2.13355e-05
-2.04004e-05
-2.39681e-05
-1.1527e-05
-2.66358e-05
-1.53408e-06
-2.99847e-05
9.09438e-06
-3.18719e-05
-3.40645e-05
0.00024225
5.64119e-05
0.000227234
5.99549e-05
0.000211226
6.39229e-05
0.000194346
6.74058e-05
0.000177087
6.89274e-05
0.000159423
7.05507e-05
0.000141714
7.07265e-05
0.000124014
7.07153e-05
0.000106426
7.02556e-05
8.9253e-05
6.8636e-05
7.25041e-05
6.69357e-05
5.6341e-05
6.45913e-05
4.08786e-05
6.18168e-05
2.61954e-05
5.87363e-05
1.23678e-05
5.52337e-05
-6.32057e-07
5.19764e-05
-1.27578e-05
4.85023e-05
-2.39719e-05
4.48542e-05
-3.42644e-05
4.11738e-05
-4.36621e-05
3.75991e-05
-5.2165e-05
3.4027e-05
-5.98188e-05
3.06296e-05
-6.66323e-05
2.72741e-05
-7.2658e-05
2.41124e-05
-7.79322e-05
2.10985e-05
-8.24871e-05
1.81741e-05
-8.63373e-05
1.54348e-05
-8.95508e-05
1.28735e-05
-9.21167e-05
1.02992e-05
-9.40623e-05
7.77511e-06
-9.54121e-05
5.39168e-06
-9.61563e-05
2.98493e-06
-9.62962e-05
5.55063e-07
-9.57786e-05
-2.02285e-06
-9.46431e-05
-4.54554e-06
-9.29127e-05
-6.92704e-06
-9.04751e-05
-9.7549e-06
-8.73545e-05
-1.24829e-05
-8.36102e-05
-1.49383e-05
-7.90091e-05
-1.85685e-05
-7.37019e-05
-2.11659e-05
-6.75161e-05
-2.48611e-05
-6.04006e-05
-2.83898e-05
-5.25574e-05
-3.14345e-05
-4.36529e-05
-3.54709e-05
-3.37493e-05
-3.97454e-05
-2.29927e-05
-4.30661e-05
-1.11673e-05
-4.73013e-05
1.72076e-06
-5.15477e-05
1.54186e-05
-5.47748e-05
3.01722e-05
-5.8965e-05
4.58e-05
-6.24795e-05
6.22959e-05
-6.59297e-05
7.96656e-05
-6.93902e-05
9.74929e-05
-7.12307e-05
0.000115765
-7.29842e-05
0.000134512
-7.48577e-05
0.000153211
-7.46353e-05
0.000171873
-7.45372e-05
0.000190197
-7.31422e-05
0.000207962
-7.09915e-05
0.000225173
-6.86757e-05
0.000241295
-6.43407e-05
0.000256226
-5.95349e-05
0.000269841
-5.43236e-05
0.000281723
-4.74344e-05
0.000291895
-4.05394e-05
0.000300105
-3.27151e-05
0.000306241
-2.4393e-05
0.00031016
-1.54529e-05
0.000311554
-5.49451e-06
0.000310475
3.98905e-06
0.000306816
1.45364e-05
0.000300351
2.59367e-05
0.000291186
3.67209e-05
0.000279333
4.7477e-05
0.000265069
5.70931e-05
0.000248632
6.57754e-05
0.00023033
7.32334e-05
0.00021062
7.88652e-05
0.00018993
8.27961e-05
0.000168634
8.52324e-05
0.000147168
8.59223e-05
0.000125858
8.5346e-05
0.000104926
8.36678e-05
8.4657e-05
8.11237e-05
6.51779e-05
7.79852e-05
4.65914e-05
7.43588e-05
2.9049e-05
7.05583e-05
1.23765e-05
6.63713e-05
-3.12068e-06
6.19147e-05
-1.79228e-05
5.91203e-05
-3.17522e-05
5.52896e-05
-4.4656e-05
5.15616e-05
-5.64665e-05
4.71728e-05
-6.73012e-05
4.32279e-05
-7.71858e-05
3.93746e-05
-8.59858e-05
3.50152e-05
-9.37645e-05
3.10962e-05
-0.000100682
2.73069e-05
-0.000106542
2.31753e-05
-0.000111465
1.95707e-05
-0.000115445
1.56482e-05
-0.000118444
1.17717e-05
-0.000120458
7.70831e-06
-0.000121442
3.75488e-06
-0.000121374
-4.45613e-07
-0.000120336
-4.32041e-06
-0.000118358