/*--------------------------------*- C++ -*----------------------------------*\
| =========                 |                                                 |
| \\      /  F ield         | OpenFOAM: The Open Source CFD Toolbox           |
|  \\    /   O peration     | Version:  3.0.1                                 |
|   \\  /    A nd           | Web:      www.OpenFOAM.org                      |
|    \\/     M anipulation  |                                                 |
\*---------------------------------------------------------------------------*/
FoamFile
{
    version     2.0;
    format      ascii;
    class       volScalarField;
    location    "98";
    object      p;
}
// * * * * * * * * * * * * * * * * * * * * * * * * * * * * * * * * * * * * * //

dimensions      [1 -1 -2 0 0 0 0];

internalField   nonuniform List<scalar> 
21420
(
3665.15
3647.65
3631.78
3617.54
3604.93
3593.89
3584.39
3576.36
3569.79
3564.62
3560.83
3558.39
3557.31
3557.59
3559.2
3562.12
3566.44
3572.16
3579.32
3587.98
3598.18
3609.97
3623.4
3638.53
3655.39
3674.03
3694.45
3716.68
3740.68
3766.41
3793.79
3822.74
3853.07
3884.66
3917.26
3950.46
3984.08
4017.77
4051.17
4083.94
4115.69
4146.01
4174.53
4200.85
4224.65
4245.6
4263.41
4277.85
4288.75
4295.95
4299.36
4298.89
4294.64
4286.61
4274.87
4259.66
4241.17
4219.64
4195.36
4168.67
4139.89
4109.39
4077.51
4044.66
4011.17
3977.38
3943.58
3910.1
3883.22
3851.77
3821.56
3792.79
3765.58
3740.05
3716.25
3694.25
3674.07
3655.74
3639.25
3624.59
3611.75
3600.71
3591.43
3583.88
3578.04
3573.84
3571.25
3570.28
3570.83
3572.85
3576.31
3581.16
3587.37
3594.91
3603.77
3613.94
3625.43
3638.26
3652.45
3668.04
3685.05
3703.52
3723.46
3744.88
3767.77
3792.09
3817.8
3844.81
3873.02
3902.3
3932.48
3963.32
3994.61
4026.1
4057.48
4088.46
4118.69
4147.83
4175.5
4201.33
4224.96
4246.02
4264.17
4279.09
4290.53
4298.26
4302.13
4301.92
4297.81
4289.73
4277.73
4262.03
4242.83
4220.44
4195.15
4167.35
4137.43
4105.8
4072.9
4039.16
4005
3970.83
3937.06
3904.05
3872.07
3841.41
3812.29
3784.88
3759.29
3735.61
3713.87
3694.06
3676.16
3660.13
3645.9
3633.41
3622.58
3613.34
3605.61
3599.35
3594.48
3590.98
3588.77
3587.85
3588.21
3589.79
3592.61
3596.65
3601.94
3608.5
3616.34
3625.5
3636.01
3647.9
3661.23
3676.03
3692.34
3710.18
3729.59
3750.57
3773.13
3797.23
3822.84
3849.88
3878.23
3907.77
3938.32
3969.61
4001.39
4033.34
4065.14
4096.42
4126.79
4155.83
4183.15
4208.32
4230.93
4250.6
4266.96
4279.71
4288.59
4293.43
4294.02
4290.5
4282.79
4270.99
4255.29
4235.97
4213.32
4187.73
4159.62
4129.42
4097.6
4064.61
4030.92
3996.95
3963.11
3929.85
3897.37
3866.01
3836.01
3807.56
3780.79
3755.8
3732.65
3711.36
3691.94
3674.37
3658.62
3644.63
3632.35
3621.69
3612.57
3604.92
3598.67
3593.76
3590.15
3587.8
3586.7
3586.86
3588.23
3590.83
3594.7
3599.83
3606.27
3614.04
3623.17
3633.69
3645.64
3659.03
3673.89
3690.22
3708.06
3727.39
3748.24
3770.58
3794.39
3819.63
3846.2
3874
3902.88
3932.67
3963.17
3994.15
4025.22
4056.07
4086.35
4115.69
4143.68
4169.91
4193.97
4215.45
4233.96
4249.16
4260.71
4268.36
4271.91
4271.21
4266.77
4258.12
4245.34
4228.69
4208.45
4184.94
4158.57
4129.78
4099.05
4066.84
4033.68
4000.08
3966.54
3933.71
3903.06
3872.78
3843.4
3815.26
3788.67
3763.82
3740.78
3719.6
3700.27
3682.74
3666.94
3652.79
3640.18
3629
3619.16
3610.54
3603.08
3596.71
3591.4
3587.12
3583.89
3581.74
3580.76
3581.02
3582.58
3585.57
3590.1
3596.28
3604.21
3613.98
3625.66
3639.31
3654.95
3672.58
3692.17
3713.67
3736.97
3761.95
3788.48
3816.34
3845.34
3875.36
3906.66
3938.13
3969.18
3999.81
4029.8
4058.78
4086.43
4112.45
4136.53
4158.41
4177.82
4194.52
4208.31
4219.04
4226.59
4230.89
4231.89
4229.65
4224.08
4215.21
4203.19
4188.23
4170.53
3566.97
3549.47
3533.6
3519.37
3506.76
3495.73
3486.23
3478.21
3471.63
3466.46
3462.68
3460.24
3459.16
3459.44
3461.04
3463.97
3468.29
3474
3481.16
3489.82
3500.01
3511.8
3525.23
3540.36
3557.22
3575.85
3596.27
3618.49
3642.5
3668.23
3695.62
3724.56
3754.9
3786.49
3819.1
3852.31
3885.94
3919.65
3953.07
3985.86
4017.62
4047.96
4076.49
4102.83
4126.64
4147.61
4165.43
4179.89
4190.79
4197.99
4201.41
4200.95
4196.68
4188.65
4176.9
4161.68
4143.18
4121.63
4097.34
4070.63
4041.84
4011.32
3979.43
3946.55
3913.05
3879.25
3845.44
3811.95
3785.06
3753.6
3723.39
3694.61
3667.4
3641.86
3618.07
3596.06
3575.89
3557.56
3541.07
3526.41
3513.57
3502.54
3493.26
3485.72
3479.87
3475.67
3473.09
3472.12
3472.67
3474.69
3478.16
3483.01
3489.22
3496.76
3505.61
3515.78
3527.27
3540.1
3554.29
3569.88
3586.89
3605.35
3625.29
3646.71
3669.59
3693.92
3719.62
3746.64
3774.85
3804.14
3834.33
3865.18
3896.48
3927.97
3959.37
3990.36
4020.61
4049.76
4077.45
4103.3
4126.94
4148.01
4166.18
4181.12
4192.57
4200.31
4204.18
4203.98
4199.86
4191.77
4179.77
4164.05
4144.84
4122.43
4097.13
4069.31
4039.37
4007.72
3974.8
3941.04
3906.86
3872.68
3838.9
3805.88
3773.89
3743.22
3714.1
3686.68
3661.1
3637.42
3615.67
3595.87
3577.98
3561.95
3547.73
3535.24
3524.41
3515.17
3507.45
3501.18
3496.32
3492.82
3490.61
3489.7
3490.05
3491.64
3494.45
3498.5
3503.79
3510.34
3518.18
3527.34
3537.84
3549.74
3563.07
3577.86
3594.17
3612.01
3631.41
3652.39
3674.95
3699.05
3724.66
3751.7
3780.06
3809.6
3840.16
3871.47
3903.25
3935.22
3967.04
3998.33
4028.71
4057.78
4085.11
4110.3
4132.93
4152.61
4168.99
4181.75
4190.64
4195.48
4196.09
4192.55
4184.84
4173.03
4157.32
4137.98
4115.32
4089.71
4061.57
4031.35
3999.51
3966.51
3932.8
3898.81
3864.96
3831.69
3799.19
3767.83
3737.83
3709.37
3682.6
3657.61
3634.46
3613.17
3593.75
3576.19
3560.44
3546.46
3534.18
3523.52
3514.41
3506.76
3500.51
3495.6
3492
3489.65
3488.55
3488.71
3490.08
3492.68
3496.54
3501.68
3508.11
3515.88
3525.01
3535.53
3547.48
3560.87
3575.72
3592.06
3609.89
3629.23
3650.07
3672.41
3696.22
3721.46
3748.04
3775.84
3804.73
3834.53
3865.04
3896.03
3927.1
3957.97
3988.27
4017.63
4045.63
4071.88
4095.96
4117.46
4135.99
4151.2
4162.76
4170.42
4173.97
4173.28
4168.83
4160.18
4147.39
4130.73
4110.47
4086.94
4060.55
4031.75
4000.99
3968.76
3935.58
3901.95
3868.39
3835.54
3804.92
3774.62
3745.22
3717.08
3690.49
3665.63
3642.6
3621.42
3602.09
3584.56
3568.77
3554.63
3542.02
3530.85
3521.01
3512.4
3504.94
3498.57
3493.25
3488.98
3485.74
3483.6
3482.61
3482.87
3484.43
3487.41
3491.94
3498.11
3506.03
3515.8
3527.48
3541.13
3556.77
3574.4
3593.99
3615.49
3638.79
3663.78
3690.31
3718.18
3747.19
3777.21
3808.53
3840
3871.06
3901.71
3931.72
3960.72
3988.37
4014.4
4038.51
4060.4
4079.82
4096.52
4110.33
4121.07
4128.62
4132.92
4133.93
4131.68
4126.1
4117.23
4105.21
4090.23
4072.52
3468.72
3451.22
3435.36
3421.13
3408.53
3397.5
3388
3379.99
3373.42
3368.25
3364.47
3362.03
3360.95
3361.23
3362.83
3365.76
3370.07
3375.78
3382.94
3391.59
3401.78
3413.56
3426.99
3442.11
3458.97
3477.6
3498.01
3520.23
3544.24
3569.97
3597.36
3626.31
3656.67
3688.27
3720.9
3754.13
3787.78
3821.51
3854.96
3887.78
3919.58
3949.95
3978.52
4004.89
4028.74
4049.73
4067.58
4082.06
4092.98
4100.19
4103.61
4103.16
4098.87
4090.83
4079.07
4063.82
4045.3
4023.72
3999.4
3972.65
3943.83
3913.28
3881.35
3848.45
3814.92
3781.09
3747.27
3713.75
3686.83
3655.35
3625.13
3596.35
3569.14
3543.6
3519.8
3497.8
3477.63
3459.3
3442.81
3428.16
3415.33
3404.29
3395.02
3387.48
3381.64
3377.44
3374.87
3373.9
3374.45
3376.48
3379.94
3384.8
3391.01
3398.55
3407.4
3417.57
3429.05
3441.88
3456.07
3471.65
3488.66
3507.12
3527.05
3548.47
3571.35
3595.68
3621.39
3648.41
3676.63
3705.93
3736.12
3766.99
3798.31
3829.83
3861.25
3892.27
3922.55
3951.73
3979.45
4005.33
4029.01
4050.11
4068.31
4083.28
4094.75
4102.5
4106.38
4106.2
4102.06
4093.96
4081.94
4066.2
4046.97
4024.52
3999.18
3971.33
3941.34
3909.66
3876.7
3842.9
3808.7
3774.49
3740.68
3707.64
3675.64
3644.95
3615.82
3588.4
3562.81
3539.13
3517.4
3497.6
3479.71
3463.69
3449.48
3436.99
3426.17
3416.94
3409.22
3402.97
3398.11
3394.61
3392.41
3391.49
3391.85
3393.44
3396.25
3400.29
3405.58
3412.13
3419.97
3429.12
3439.62
3451.52
3464.84
3479.63
3495.93
3513.77
3533.17
3554.15
3576.7
3600.8
3626.42
3653.46
3681.83
3711.38
3741.95
3773.28
3805.09
3837.08
3868.93
3900.25
3930.67
3959.77
3987.14
4012.37
4035.03
4054.75
4071.16
4083.94
4092.85
4097.7
4098.33
4094.76
4087.05
4075.22
4059.49
4040.11
4017.41
3991.77
3963.59
3933.33
3901.45
3868.41
3834.66
3800.64
3766.76
3733.47
3700.95
3669.57
3639.56
3611.1
3584.33
3559.34
3536.19
3514.9
3495.49
3477.93
3462.19
3448.21
3435.94
3425.29
3416.18
3408.54
3402.3
3397.4
3393.79
3391.44
3390.35
3390.51
3391.88
3394.48
3398.34
3403.47
3409.9
3417.66
3426.79
3437.31
3449.25
3462.64
3477.5
3493.83
3511.66
3530.99
3551.83
3574.17
3597.99
3623.23
3649.81
3677.62
3706.52
3736.33
3766.86
3797.87
3828.97
3859.87
3890.2
3919.59
3947.64
3973.92
3998.04
4019.57
4038.13
4053.37
4064.96
4072.64
4076.21
4075.52
4071.06
4062.39
4049.6
4032.91
4012.61
3989.05
3962.62
3933.77
3902.97
3870.7
3837.47
3803.8
3770.19
3737.28
3706.75
3676.41
3646.98
3618.82
3592.22
3567.36
3544.33
3523.16
3503.83
3486.32
3470.53
3456.4
3443.8
3432.64
3422.81
3414.2
3406.75
3400.39
3395.07
3390.79
3387.56
3385.41
3384.41
3384.66
3386.21
3389.19
3393.71
3399.87
3407.79
3417.55
3429.22
3442.87
3458.5
3476.13
3495.72
3517.22
3540.53
3565.53
3592.07
3619.95
3648.98
3679.02
3710.35
3741.85
3772.94
3803.62
3833.65
3862.68
3890.36
3916.42
3940.55
3962.47
3981.91
3998.64
4012.46
4023.21
4030.77
4035.08
4036.1
4033.83
4028.25
4019.37
4007.33
3992.34
3974.61
3370.39
3352.9
3337.05
3322.83
3310.23
3299.21
3289.72
3281.71
3275.15
3269.99
3266.21
3263.78
3262.69
3262.97
3264.57
3267.49
3271.81
3277.51
3284.66
3293.31
3303.49
3315.26
3328.68
3343.79
3360.64
3379.26
3399.68
3421.89
3445.89
3471.63
3499.03
3527.99
3558.36
3589.98
3622.63
3655.9
3689.59
3723.36
3756.86
3789.72
3821.56
3852
3880.62
3907.04
3930.93
3951.96
3969.85
3984.36
3995.3
4002.53
4005.96
4005.52
4001.2
3993.14
3981.36
3966.09
3947.52
3925.9
3901.54
3874.74
3845.87
3815.26
3783.29
3750.34
3716.78
3682.91
3649.06
3615.49
3588.53
3557.02
3526.79
3498
3470.79
3445.25
3421.45
3399.45
3379.29
3360.96
3344.48
3329.83
3317
3305.98
3296.71
3289.17
3283.34
3279.15
3276.59
3275.62
3276.17
3278.21
3281.68
3286.53
3292.74
3300.28
3309.14
3319.3
3330.78
3343.6
3357.79
3373.36
3390.36
3408.82
3428.75
3450.16
3473.04
3497.37
3523.08
3550.11
3578.34
3607.66
3637.87
3668.77
3700.11
3731.66
3763.12
3794.18
3824.5
3853.73
3881.5
3907.44
3931.16
3952.32
3970.56
3985.57
3997.07
4004.85
4008.74
4008.58
4004.41
3996.3
3984.26
3968.48
3949.2
3926.71
3901.32
3873.4
3843.36
3811.62
3778.61
3744.76
3710.5
3676.25
3642.4
3609.33
3577.3
3546.6
3517.46
3490.03
3464.44
3440.76
3419.03
3399.24
3381.37
3365.36
3351.15
3338.68
3327.87
3318.65
3310.94
3304.69
3299.84
3296.34
3294.15
3293.24
3293.6
3295.18
3298
3302.04
3307.33
3313.87
3321.7
3330.85
3341.35
3353.23
3366.55
3381.33
3397.63
3415.46
3434.85
3455.83
3478.38
3502.48
3528.1
3555.15
3583.53
3613.1
3643.69
3675.04
3706.89
3738.92
3770.81
3802.18
3832.65
3861.81
3889.24
3914.52
3937.24
3957.01
3973.46
3986.28
3995.22
4000.09
4000.73
3997.14
3989.41
3977.55
3961.79
3942.36
3919.61
3893.9
3865.66
3835.34
3803.4
3770.3
3736.5
3702.44
3668.51
3635.2
3602.64
3571.24
3541.21
3512.75
3485.97
3460.98
3437.83
3416.55
3397.14
3379.59
3363.86
3349.9
3337.63
3327
3317.9
3310.27
3304.03
3299.14
3295.54
3293.19
3292.11
3292.26
3293.63
3296.23
3300.08
3305.21
3311.64
3319.4
3328.52
3339.03
3350.97
3364.36
3379.2
3395.53
3413.36
3432.69
3453.52
3475.86
3499.68
3524.93
3551.52
3579.34
3608.26
3638.09
3668.65
3699.69
3730.83
3761.77
3792.15
3821.59
3849.69
3876.04
3900.2
3921.79
3940.41
3955.69
3967.32
3975.02
3978.6
3977.92
3973.46
3964.77
3951.95
3935.22
3914.88
3891.26
3864.77
3835.86
3804.99
3772.65
3739.36
3705.62
3671.94
3638.95
3608.53
3578.14
3548.66
3520.48
3493.87
3469.01
3445.98
3424.81
3405.5
3387.99
3372.23
3358.1
3345.52
3334.38
3324.56
3315.96
3308.52
3302.16
3296.85
3292.57
3289.33
3287.17
3286.17
3286.41
3287.94
3290.91
3295.41
3301.56
3309.46
3319.22
3330.88
3344.52
3360.15
3377.77
3397.37
3418.88
3442.19
3467.2
3493.76
3521.67
3550.72
3580.79
3612.14
3643.68
3674.8
3705.52
3735.6
3764.67
3792.4
3818.5
3842.67
3864.63
3884.11
3900.86
3914.71
3925.48
3933.06
3937.37
3938.41
3936.11
3930.52
3921.62
3909.57
3894.55
3876.79
3271.98
3254.51
3238.66
3224.45
3211.87
3200.86
3191.38
3183.38
3176.82
3171.67
3167.89
3165.47
3164.38
3164.66
3166.25
3169.18
3173.48
3179.18
3186.32
3194.96
3205.13
3216.89
3230.3
3245.4
3262.24
3280.85
3301.26
3323.47
3347.47
3373.21
3400.62
3429.6
3459.98
3491.63
3524.32
3557.63
3591.37
3625.19
3658.74
3691.68
3723.58
3754.08
3782.77
3809.26
3833.22
3854.31
3872.25
3886.8
3897.77
3905.02
3908.46
3908.03
3903.69
3895.6
3883.79
3868.47
3849.86
3828.18
3803.75
3776.89
3747.95
3717.28
3685.24
3652.24
3618.61
3584.7
3550.81
3517.2
3490.17
3458.61
3428.38
3399.58
3372.36
3346.82
3323.02
3301.02
3280.86
3262.54
3246.06
3231.42
3218.61
3207.59
3198.33
3190.8
3184.97
3180.79
3178.24
3177.28
3177.84
3179.88
3183.35
3188.21
3194.43
3201.97
3210.82
3220.98
3232.46
3245.27
3259.45
3275.01
3292
3310.45
3330.37
3351.78
3374.66
3398.99
3424.71
3451.75
3480
3509.33
3539.58
3570.5
3601.88
3633.48
3664.99
3696.1
3726.48
3755.77
3783.61
3809.61
3833.41
3854.63
3872.93
3887.99
3899.54
3907.35
3911.25
3911.12
3906.93
3898.79
3886.71
3870.89
3851.56
3828.99
3803.53
3775.54
3745.43
3713.61
3680.52
3646.6
3612.28
3577.97
3544.07
3510.96
3478.9
3448.17
3419.01
3391.57
3365.98
3342.31
3320.58
3300.8
3282.94
3266.95
3252.76
3240.3
3229.51
3220.3
3212.6
3206.36
3201.52
3198.03
3195.84
3194.94
3195.3
3196.88
3199.69
3203.74
3209.02
3215.56
3223.39
3232.53
3243.01
3254.89
3268.2
3282.97
3299.26
3317.08
3336.47
3357.43
3379.98
3404.09
3429.71
3456.77
3485.17
3514.76
3545.38
3576.77
3608.66
3640.75
3672.69
3704.13
3734.67
3763.9
3791.4
3816.76
3839.55
3859.39
3875.9
3888.77
3897.75
3902.63
3903.3
3899.69
3891.93
3880.04
3864.22
3844.73
3821.91
3796.12
3767.8
3737.39
3705.37
3672.2
3638.33
3604.2
3570.21
3536.87
3504.27
3472.83
3442.79
3414.31
3387.53
3362.53
3339.39
3318.11
3298.71
3281.18
3265.46
3251.51
3239.26
3228.64
3219.56
3211.94
3205.72
3200.83
3197.23
3194.89
3193.81
3193.96
3195.33
3197.93
3201.78
3206.9
3213.32
3221.08
3230.19
3240.7
3252.63
3266.01
3280.85
3297.17
3314.99
3334.32
3355.15
3377.49
3401.31
3426.56
3453.16
3481
3509.94
3539.8
3570.39
3601.49
3632.68
3663.67
3694.11
3723.63
3751.8
3778.22
3802.46
3824.12
3842.8
3858.14
3869.82
3877.57
3881.17
3880.49
3876.03
3867.32
3854.45
3837.67
3817.27
3793.57
3767
3738.01
3707.05
3674.62
3641.25
3607.42
3573.64
3540.54
3510.29
3479.8
3450.27
3422.06
3395.43
3370.56
3347.54
3326.38
3307.08
3289.59
3273.85
3259.75
3247.19
3236.06
3226.25
3217.68
3210.24
3203.89
3198.58
3194.3
3191.06
3188.9
3187.88
3188.1
3189.62
3192.57
3197.05
3203.18
3211.07
3220.81
3232.46
3246.09
3261.71
3279.34
3298.93
3320.45
3343.78
3368.8
3395.39
3423.32
3452.4
3482.5
3513.9
3545.48
3576.65
3607.43
3637.56
3666.69
3694.48
3720.64
3744.86
3766.87
3786.4
3803.19
3817.08
3827.88
3835.47
3839.79
3840.84
3838.53
3832.92
3824
3811.91
3796.86
3779.06
3173.5
3156.03
3140.2
3126.01
3113.44
3102.45
3092.98
3084.99
3078.44
3073.29
3069.52
3067.1
3066.02
3066.29
3067.88
3070.8
3075.1
3080.79
3087.93
3096.55
3106.71
3118.45
3131.85
3146.93
3163.76
3182.36
3202.76
3224.96
3248.96
3274.71
3302.13
3331.13
3361.54
3393.21
3425.95
3459.31
3493.11
3527
3560.63
3593.64
3625.63
3656.22
3684.99
3711.57
3735.6
3756.77
3774.77
3789.37
3800.39
3807.66
3811.11
3810.68
3806.33
3798.2
3786.35
3770.98
3752.3
3730.55
3706.04
3679.1
3650.08
3619.32
3587.21
3554.12
3520.43
3486.47
3452.53
3418.86
3391.73
3360.13
3329.88
3301.07
3273.85
3248.3
3224.5
3202.51
3182.35
3164.04
3147.57
3132.94
3120.13
3109.13
3099.88
3092.36
3086.54
3082.37
3079.84
3078.87
3079.44
3081.49
3084.97
3089.84
3096.06
3103.6
3112.45
3122.61
3134.08
3146.88
3161.05
3176.6
3193.58
3212.02
3231.93
3253.33
3276.22
3300.55
3326.28
3353.33
3381.59
3410.95
3441.23
3472.19
3503.62
3535.27
3566.84
3598.03
3628.48
3657.85
3685.77
3711.86
3735.74
3757.04
3775.42
3790.55
3802.15
3810
3813.93
3813.8
3809.61
3801.44
3789.31
3773.43
3754.02
3731.37
3705.82
3677.74
3647.53
3615.62
3582.44
3548.43
3514.02
3479.64
3445.67
3412.52
3380.41
3349.65
3320.47
3293.02
3267.43
3243.76
3222.04
3202.28
3184.44
3168.46
3154.29
3141.85
3131.08
3121.88
3114.2
3107.98
3103.15
3099.67
3097.49
3096.59
3096.95
3098.53
3101.35
3105.39
3110.66
3117.2
3125.02
3134.15
3144.62
3156.49
3169.78
3184.55
3200.82
3218.63
3238.01
3258.97
3281.52
3305.62
3331.25
3358.32
3386.74
3416.36
3447.02
3478.45
3510.4
3542.55
3574.57
3606.09
3636.71
3666.03
3693.63
3719.08
3741.97
3761.89
3778.48
3791.41
3800.43
3805.35
3806.02
3802.41
3794.62
3782.68
3766.79
3747.22
3724.3
3698.42
3669.99
3639.49
3607.36
3574.1
3540.14
3505.93
3471.88
3438.46
3405.82
3374.35
3344.28
3315.79
3289
3264
3240.86
3219.59
3200.21
3182.68
3166.98
3153.05
3140.82
3130.22
3121.16
3113.56
3107.34
3102.47
3098.88
3096.55
3095.46
3095.61
3096.98
3099.58
3103.42
3108.54
3114.96
3122.7
3131.8
3142.3
3154.23
3167.6
3182.44
3198.75
3216.56
3235.88
3256.71
3279.05
3302.87
3328.13
3354.74
3382.6
3411.56
3441.46
3472.1
3503.26
3534.51
3565.57
3596.1
3625.7
3653.97
3680.47
3704.81
3726.56
3745.32
3760.74
3772.48
3780.27
3783.91
3783.22
3778.77
3770.03
3757.11
3740.27
3719.78
3695.99
3669.32
3640.22
3609.15
3576.62
3543.13
3509.19
3475.29
3442.05
3412.01
3381.41
3351.8
3323.55
3296.91
3272.04
3249.02
3227.87
3208.59
3191.12
3175.4
3161.32
3148.79
3137.68
3127.9
3119.34
3111.93
3105.58
3100.28
3095.99
3092.75
3090.57
3089.55
3089.74
3091.24
3094.17
3098.63
3104.73
3112.6
3122.32
3133.96
3147.57
3163.19
3180.81
3200.41
3221.94
3245.28
3270.33
3296.94
3324.9
3354.02
3384.17
3415.61
3447.25
3478.49
3509.34
3539.54
3568.75
3596.6
3622.83
3647.13
3669.2
3688.78
3705.63
3719.56
3730.39
3738.01
3742.35
3743.4
3741.08
3735.44
3726.5
3714.37
3699.27
3681.42
3074.94
3057.49
3041.68
3027.5
3014.95
3003.97
2994.51
2986.54
2980
2974.86
2971.1
2968.68
2967.61
2967.88
2969.45
2972.37
2976.67
2982.35
2989.47
2998.08
3008.22
3019.95
3033.33
3048.4
3065.2
3083.79
3104.18
3126.38
3150.38
3176.12
3203.56
3232.58
3263.02
3294.74
3327.53
3360.95
3394.82
3428.8
3462.51
3495.62
3527.71
3558.4
3587.28
3613.95
3638.08
3659.34
3677.41
3692.08
3703.14
3710.44
3713.91
3713.48
3709.11
3700.94
3689.04
3673.61
3654.85
3633.02
3608.42
3581.37
3552.25
3521.39
3489.19
3456.01
3422.24
3388.2
3354.21
3320.48
3293.2
3261.57
3231.31
3202.49
3175.25
3149.7
3125.91
3103.92
3083.77
3065.46
3049
3034.38
3021.59
3010.59
3001.35
2993.85
2988.05
2983.89
2981.36
2980.41
2980.99
2983.05
2986.54
2991.41
2997.63
3005.18
3014.03
3024.18
3035.64
3048.44
3062.59
3078.13
3095.1
3113.52
3133.43
3154.82
3177.7
3202.03
3227.77
3254.84
3283.13
3312.51
3342.83
3373.84
3405.33
3437.05
3468.69
3499.96
3530.5
3559.97
3587.99
3614.18
3638.16
3659.56
3678.03
3693.24
3704.91
3712.81
3716.76
3716.65
3712.44
3704.23
3692.05
3676.1
3656.6
3633.86
3608.2
3580
3549.68
3517.65
3484.35
3450.24
3415.74
3381.27
3347.22
3314.02
3281.85
3251.06
3221.84
3194.38
3168.79
3145.12
3123.42
3103.67
3085.85
3069.9
3055.75
3043.34
3032.58
3023.41
3015.75
3009.54
3004.72
3001.25
2999.08
2998.19
2998.55
3000.14
3002.95
3006.98
3012.26
3018.78
3026.59
3035.71
3046.18
3058.03
3071.31
3086.06
3102.32
3120.11
3139.48
3160.44
3182.98
3207.08
3232.72
3259.8
3288.24
3317.9
3348.6
3380.1
3412.11
3444.34
3476.45
3508.06
3538.79
3568.22
3595.93
3621.49
3644.49
3664.51
3681.19
3694.2
3703.28
3708.22
3708.91
3705.3
3697.46
3685.46
3669.5
3649.83
3626.8
3600.8
3572.25
3541.62
3509.37
3475.99
3441.93
3407.63
3373.5
3339.99
3307.3
3275.79
3245.69
3217.18
3190.38
3165.39
3142.25
3120.99
3101.62
3084.11
3068.43
3054.52
3042.32
3031.74
3022.7
3015.12
3008.92
3004.05
3000.47
2998.15
2997.07
2997.22
2998.58
3001.18
3005.02
3010.13
3016.53
3024.27
3033.36
3043.85
3055.77
3069.13
3083.96
3100.27
3118.07
3137.38
3158.2
3180.53
3204.36
3229.63
3256.25
3284.14
3313.13
3343.07
3373.76
3405
3436.33
3467.48
3498.1
3527.8
3556.18
3582.8
3607.24
3629.1
3647.96
3663.47
3675.28
3683.14
3686.81
3686.12
3681.68
3672.9
3659.92
3643
3622.42
3598.52
3571.72
3542.49
3511.29
3478.63
3445.01
3410.94
3376.9
3343.48
3313.69
3282.95
3253.26
3224.96
3198.3
3173.42
3150.41
3129.28
3110.02
3092.58
3076.88
3062.84
3050.33
3039.26
3029.5
3020.96
3013.56
3007.23
3001.93
2997.64
2994.39
2992.21
2991.16
2991.33
2992.8
2995.7
3000.14
3006.22
3014.06
3023.76
3035.37
3048.98
3064.59
3082.2
3101.81
3123.34
3146.7
3171.78
3198.42
3226.42
3255.59
3285.79
3317.28
3349
3380.32
3411.25
3441.54
3470.83
3498.77
3525.09
3549.46
3571.61
3591.27
3608.18
3622.16
3633.03
3640.68
3645.03
3646.09
3643.76
3638.09
3629.12
3616.95
3601.79
3583.87
2976.3
2958.87
2943.08
2928.92
2916.39
2905.43
2895.99
2888.03
2881.5
2876.38
2872.62
2870.21
2869.14
2869.41
2870.98
2873.89
2878.17
2883.84
2890.95
2899.54
2909.67
2921.38
2934.73
2949.78
2966.57
2985.14
3005.52
3027.71
3051.71
3077.46
3104.91
3133.96
3164.44
3196.2
3229.05
3262.54
3296.5
3330.57
3364.39
3397.6
3429.81
3460.63
3489.63
3516.42
3540.66
3562.02
3580.18
3594.92
3606.04
3613.38
3616.86
3616.43
3612.05
3603.83
3591.87
3576.36
3557.51
3535.58
3510.87
3483.71
3454.46
3423.49
3391.17
3357.89
3324.03
3289.91
3255.85
3222.09
3194.58
3162.93
3132.65
3103.82
3076.57
3051.02
3027.22
3005.24
2985.1
2966.8
2950.36
2935.75
2922.97
2911.99
2902.76
2895.27
2889.48
2885.35
2882.83
2881.89
2882.48
2884.56
2888.05
2892.93
2899.16
2906.7
2915.55
2925.69
2937.15
2949.93
2964.07
2979.6
2996.55
3014.96
3034.85
3056.24
3079.11
3103.45
3129.2
3156.28
3184.6
3214.02
3244.39
3275.45
3307.01
3338.8
3370.53
3401.89
3432.54
3462.12
3490.25
3516.56
3540.67
3562.18
3580.76
3596.06
3607.81
3615.76
3619.75
3619.65
3615.44
3607.18
3594.94
3578.9
3559.3
3536.44
3510.65
3482.32
3451.86
3419.7
3386.28
3352.04
3317.43
3282.85
3248.7
3215.45
3183.21
3152.37
3123.13
3095.66
3070.06
3046.4
3024.71
3004.98
2987.18
2971.26
2957.14
2944.75
2934.02
2924.87
2917.23
2911.04
2906.24
2902.78
2900.62
2899.74
2900.1
2901.69
2904.5
2908.53
2913.8
2920.32
2928.12
2937.22
2947.67
2959.51
2972.77
2987.51
3003.75
3021.53
3040.88
3061.83
3084.36
3108.47
3134.11
3161.22
3189.68
3219.38
3250.12
3281.69
3313.78
3346.11
3378.32
3410.04
3440.89
3470.45
3498.29
3523.99
3547.11
3567.26
3584.04
3597.14
3606.28
3611.27
3611.97
3608.35
3600.47
3588.4
3572.34
3552.56
3529.4
3503.26
3474.56
3443.79
3411.4
3377.89
3343.7
3309.29
3275.07
3241.46
3208.72
3177.16
3147.02
3118.49
3091.68
3066.68
3043.55
3022.31
3002.95
2985.46
2969.81
2955.92
2943.75
2933.19
2924.18
2916.62
2910.44
2905.59
2902.02
2899.7
2898.63
2898.78
2900.14
2902.73
2906.56
2911.66
2918.06
2925.78
2934.86
2945.34
2957.25
2970.6
2985.42
3001.71
3019.51
3038.8
3059.62
3081.95
3105.78
3131.06
3157.7
3185.61
3214.65
3244.63
3275.39
3306.71
3338.13
3369.38
3400.11
3429.93
3458.44
3485.2
3509.77
3531.76
3550.73
3566.34
3578.24
3586.17
3589.88
3589.19
3584.76
3575.93
3562.89
3545.87
3525.18
3501.15
3474.21
3444.83
3413.47
3380.65
3346.88
3312.66
3278.45
3244.82
3215.34
3184.43
3154.64
3126.29
3099.61
3074.72
3051.72
3030.6
3011.36
2993.95
2978.29
2964.28
2951.82
2940.78
2931.05
2922.54
2915.16
2908.84
2903.54
2899.25
2895.99
2893.79
2892.73
2892.86
2894.31
2897.18
2901.59
2907.63
2915.45
2925.11
2936.71
2950.3
2965.9
2983.51
3003.12
3024.67
3048.05
3073.15
3099.84
3127.88
3157.11
3187.37
3218.92
3250.72
3282.13
3313.16
3343.55
3372.95
3400.99
3427.4
3451.87
3474.11
3493.85
3510.84
3524.87
3535.8
3543.48
3547.85
3548.91
3546.57
3540.87
3531.86
3519.63
3504.41
3486.42
2877.58
2860.17
2844.4
2830.27
2817.76
2806.82
2797.4
2789.46
2782.95
2777.84
2774.09
2771.69
2770.62
2770.88
2772.45
2775.36
2779.63
2785.28
2792.37
2800.95
2811.05
2822.74
2836.07
2851.1
2867.87
2886.42
2906.78
2928.96
2952.96
2978.72
3006.18
3035.26
3065.78
3097.6
3130.51
3164.09
3198.15
3232.33
3266.26
3299.6
3331.95
3362.9
3392.04
3418.97
3443.34
3464.81
3483.08
3497.9
3509.08
3516.47
3519.96
3519.53
3515.13
3506.86
3494.83
3479.24
3460.29
3438.23
3413.4
3386.1
3356.72
3325.62
3293.17
3259.77
3225.79
3191.59
3157.46
3123.67
3095.86
3064.2
3033.91
3005.07
2977.81
2952.25
2928.46
2906.48
2886.34
2868.06
2851.63
2837.04
2824.28
2813.31
2804.1
2796.63
2790.86
2786.74
2784.23
2783.31
2783.92
2786
2789.51
2794.4
2800.63
2808.17
2817.02
2827.16
2838.6
2851.37
2865.49
2881
2897.93
2916.33
2936.21
2957.59
2980.46
3004.8
3030.56
3057.66
3086.01
3115.47
3145.9
3177.02
3208.65
3240.53
3272.36
3303.83
3334.6
3364.31
3392.58
3419.02
3443.26
3464.91
3483.61
3499.02
3510.86
3518.88
3522.9
3522.82
3518.59
3510.28
3497.97
3481.83
3462.12
3439.12
3413.19
3384.71
3354.09
3321.77
3288.2
3253.82
3219.08
3184.39
3150.13
3116.81
3084.5
3053.6
3024.33
2996.84
2971.24
2947.59
2925.91
2906.21
2888.44
2872.54
2858.46
2846.1
2835.4
2826.28
2818.66
2812.49
2807.7
2804.26
2802.11
2801.24
2801.61
2803.2
2806.01
2810.03
2815.29
2821.8
2829.59
2838.68
2849.11
2860.93
2874.17
2888.89
2905.11
2922.87
2942.21
2963.15
2985.67
3009.78
3035.43
3062.56
3091.06
3120.79
3151.6
3183.24
3215.43
3247.85
3280.18
3312.04
3343.02
3372.73
3400.72
3426.57
3449.84
3470.13
3487.04
3500.23
3509.45
3514.48
3515.2
3511.57
3503.63
3491.48
3475.32
3455.41
3432.1
3405.8
3376.94
3345.99
3313.45
3279.78
3245.45
3210.92
3176.58
3142.88
3110.06
3078.44
3048.27
3019.71
2992.89
2967.89
2944.77
2923.54
2904.2
2886.74
2871.1
2857.25
2845.11
2834.59
2825.6
2818.07
2811.91
2807.07
2803.52
2801.21
2800.14
2800.28
2801.64
2804.23
2808.06
2813.15
2819.53
2827.24
2836.31
2846.77
2858.67
2872.01
2886.81
2903.1
2920.88
2940.17
2960.97
2983.3
3007.13
3032.42
3059.09
3087.03
3116.11
3146.15
3176.97
3208.4
3239.92
3271.28
3302.14
3332.1
3360.76
3387.66
3412.39
3434.52
3453.63
3469.35
3481.36
3489.36
3493.13
3492.43
3488.01
3479.13
3466.01
3448.89
3428.06
3403.88
3376.78
3347.22
3315.69
3282.7
3248.75
3214.36
3179.97
3146.07
3116.96
3085.84
3055.94
3027.54
3000.83
2975.94
2952.94
2931.84
2912.63
2895.26
2879.64
2865.67
2853.24
2842.24
2832.55
2824.07
2816.71
2810.4
2805.11
2800.82
2797.55
2795.34
2794.24
2794.35
2795.76
2798.6
2802.97
2808.98
2816.76
2826.39
2837.96
2851.53
2867.12
2884.73
2904.34
2925.9
2949.31
2974.45
3001.18
3029.28
3058.57
3088.89
3120.51
3152.42
3183.93
3215.07
3245.58
3275.09
3303.25
3329.78
3354.36
3376.7
3396.54
3413.6
3427.71
3438.69
3446.4
3450.8
3451.86
3449.51
3443.78
3434.72
3422.43
3407.13
3389.06
2778.79
2761.4
2745.66
2731.55
2719.07
2708.15
2698.76
2690.84
2684.34
2679.25
2675.51
2673.12
2672.05
2672.31
2673.87
2676.77
2681.02
2686.67
2693.74
2702.29
2712.37
2724.03
2737.34
2752.34
2769.08
2787.62
2807.96
2830.13
2854.12
2879.89
2907.38
2936.48
2967.05
2998.93
3031.91
3065.6
3099.76
3134.06
3168.13
3201.61
3234.11
3265.22
3294.52
3321.6
3346.11
3367.72
3386.1
3401.02
3412.27
3419.7
3423.22
3422.78
3418.36
3410.03
3397.92
3382.24
3363.17
3340.98
3316
3288.56
3259.03
3227.78
3195.18
3161.64
3127.54
3093.23
3059.03
3025.26
2997.02
2965.4
2935.1
2906.24
2878.96
2853.4
2829.6
2807.63
2787.51
2769.24
2752.83
2738.26
2725.51
2714.56
2705.37
2697.91
2692.16
2688.06
2685.58
2684.67
2685.29
2687.39
2690.91
2695.81
2702.05
2709.59
2718.43
2728.57
2740
2752.75
2766.86
2782.35
2799.26
2817.63
2837.5
2858.87
2881.74
2906.08
2931.85
2958.98
2987.36
3016.86
3047.35
3078.55
3110.26
3142.24
3174.18
3205.77
3236.68
3266.53
3294.95
3321.55
3345.94
3367.74
3386.58
3402.11
3414.05
3422.14
3426.21
3426.14
3421.9
3413.53
3401.14
3384.89
3365.05
3341.9
3315.8
3287.15
3256.36
3223.87
3190.13
3155.59
3120.7
3085.88
3051.51
3018.07
2985.7
2954.75
2925.44
2897.93
2872.32
2848.68
2827.03
2807.35
2789.61
2773.75
2759.7
2747.38
2736.71
2727.62
2720.03
2713.88
2709.11
2705.69
2703.55
2702.69
2703.06
2704.66
2707.46
2711.49
2716.74
2723.24
2731.01
2740.08
2750.5
2762.29
2775.51
2790.21
2806.41
2824.15
2843.47
2864.39
2886.91
2911.02
2936.68
2963.83
2992.36
3022.15
3053.02
3084.75
3117.03
3149.58
3182.04
3214.04
3245.19
3275.05
3303.22
3329.24
3352.68
3373.12
3390.17
3403.48
3412.78
3417.87
3418.61
3414.95
3406.96
3394.72
3378.44
3358.38
3334.91
3308.42
3279.37
3248.24
3215.51
3181.67
3147.19
3112.51
3078.05
3044.23
3011.33
2979.65
2949.43
2920.85
2894.02
2869.02
2845.9
2824.69
2805.37
2787.93
2772.33
2758.51
2746.4
2735.92
2726.97
2719.46
2713.33
2708.51
2704.96
2702.66
2701.6
2701.75
2703.1
2705.68
2709.5
2714.58
2720.95
2728.64
2737.7
2748.15
2760.03
2773.35
2788.14
2804.42
2822.18
2841.46
2862.26
2884.58
2908.41
2933.71
2960.4
2988.38
3017.51
3047.61
3078.51
3110.05
3141.69
3173.18
3204.18
3234.3
3263.12
3290.2
3315.09
3337.38
3356.65
3372.5
3384.63
3392.72
3396.55
3395.89
3391.44
3382.5
3369.29
3352.05
3331.07
3306.72
3279.43
3249.68
3217.95
3184.76
3150.62
3116.04
3081.43
3047.25
3018.54
2987.17
2957.15
2928.69
2901.96
2877.06
2854.07
2833
2813.82
2796.49
2780.91
2766.99
2754.61
2743.65
2734
2725.55
2718.22
2711.93
2706.64
2702.35
2699.07
2696.84
2695.71
2695.79
2697.16
2699.96
2704.28
2710.25
2717.99
2727.6
2739.14
2752.68
2768.26
2785.86
2805.48
2827.06
2850.49
2875.67
2902.45
2930.61
2959.97
2990.37
3022.07
3054.09
3085.72
3116.98
3147.62
3177.27
3205.55
3232.21
3256.91
3279.37
3299.32
3316.48
3330.66
3341.7
3349.46
3353.88
3354.95
3352.58
3346.81
3337.7
3325.34
3309.96
3291.79
2679.92
2662.56
2646.84
2632.77
2620.31
2609.42
2600.05
2592.15
2585.68
2580.6
2576.88
2574.49
2573.43
2573.68
2575.24
2578.13
2582.36
2587.99
2595.04
2603.57
2613.62
2625.26
2638.53
2653.51
2670.22
2688.73
2709.05
2731.21
2755.2
2780.98
2808.49
2837.63
2868.25
2900.2
2933.26
2967.05
3001.34
3035.78
3069.99
3103.63
3136.3
3167.58
3197.06
3224.31
3248.99
3270.74
3289.25
3304.27
3315.61
3323.09
3326.63
3326.19
3321.74
3313.35
3301.15
3285.36
3266.16
3243.83
3218.69
3191.08
3161.38
3129.96
3097.2
3063.51
3029.27
2994.85
2960.57
2926.81
2898.09
2866.52
2836.2
2807.32
2780.03
2754.46
2730.67
2708.7
2688.59
2670.34
2653.94
2639.39
2626.67
2615.74
2606.57
2599.13
2593.4
2589.32
2586.86
2585.97
2586.61
2588.72
2592.26
2597.17
2603.41
2610.96
2619.8
2629.92
2641.34
2654.08
2668.16
2683.63
2700.52
2718.87
2738.72
2760.08
2782.94
2807.29
2833.08
2860.23
2888.64
2918.19
2948.76
2980.03
3011.84
3043.92
3075.99
3107.72
3138.77
3168.78
3197.37
3224.15
3248.71
3270.68
3289.67
3305.34
3317.39
3325.57
3329.69
3329.63
3325.37
3316.94
3304.46