/*--------------------------------*- C++ -*----------------------------------*\
| =========                 |                                                 |
| \\      /  F ield         | OpenFOAM: The Open Source CFD Toolbox           |
|  \\    /   O peration     | Version:  3.0.1                                 |
|   \\  /    A nd           | Web:      www.OpenFOAM.org                      |
|    \\/     M anipulation  |                                                 |
\*---------------------------------------------------------------------------*/
FoamFile
{
    version     2.0;
    format      ascii;
    class       surfaceScalarField;
    location    "98";
    object      phi;
}
// * * * * * * * * * * * * * * * * * * * * * * * * * * * * * * * * * * * * * //

dimensions      [0 3 -1 0 0 0 0];

internalField   nonuniform List<scalar> 
42423
(
-0.000118915
1.01614e-05
-0.000128091
9.17544e-06
-0.000136405
8.3138e-06
-0.000143876
7.47187e-06
-0.000150527
6.651e-06
-0.000156395
5.86715e-06
-0.000161499
5.10482e-06
-0.000165879
4.37958e-06
-0.000169549
3.67029e-06
-0.000172503
2.95425e-06
-0.000174771
2.26728e-06
-0.000176384
1.61284e-06
-0.00017733
9.46069e-07
-0.000177581
2.51637e-07
-0.000177112
-4.69503e-07
-0.000175916
-1.19601e-06
-0.000174086
-1.82936e-06
-0.000171434
-2.65228e-06
-0.000168011
-3.42352e-06
-0.000163918
-4.09237e-06
-0.000158885
-5.03284e-06
-0.000152991
-5.89458e-06
-0.000146329
-6.66141e-06
-0.00013863
-7.69983e-06
-0.000130051
-8.57817e-06
-0.000120408
-9.64356e-06
-0.000109799
-1.06086e-05
-9.82308e-05
-1.15685e-05
-8.55488e-05
-1.2682e-05
-7.18432e-05
-1.37057e-05
-5.72752e-05
-1.4568e-05
-4.17076e-05
-1.55677e-05
-2.5326e-05
-1.63816e-05
-7.98071e-06
-1.73453e-05
9.98902e-06
-1.79698e-05
2.83717e-05
-1.83827e-05
4.71903e-05
-1.88186e-05
6.62285e-05
-1.90383e-05
8.51212e-05
-1.88927e-05
0.000103839
-1.87182e-05
0.000122085
-1.82454e-05
0.000139627
-1.75421e-05
0.000156241
-1.66147e-05
0.000171581
-1.53393e-05
0.000185514
-1.39334e-05
0.000197809
-1.22953e-05
0.000208207
-1.03977e-05
0.000216584
-8.37651e-06
0.000222814
-6.23011e-06
0.000226725
-3.91174e-06
0.000228347
-1.6215e-06
0.000227535
8.11856e-07
0.00022446
3.07507e-06
0.000219081
5.3791e-06
0.000211473
7.60768e-06
0.000201924
9.54864e-06
0.00019051
1.14147e-05
0.000177334
1.31752e-05
0.000162777
1.45576e-05
0.000147001
1.57756e-05
0.000130221
1.67807e-05
0.000112619
1.76017e-05
9.44578e-05
1.8161e-05
7.6046e-05
1.84118e-05
5.75192e-05
1.85268e-05
3.91277e-05
1.83915e-05
2.09832e-05
1.81445e-05
3.18253e-06
1.78006e-05
-1.40227e-05
1.72052e-05
-3.06356e-05
1.66129e-05
-4.65083e-05
1.58727e-05
-6.15365e-05
1.50281e-05
-7.57276e-05
1.41911e-05
-8.89966e-05
1.32691e-05
-0.000101292
1.2295e-05
-0.000112686
1.13945e-05
-0.000123049
1.03628e-05
-0.000132545
9.49632e-06
-0.000141058
8.51297e-06
-0.000148604
7.5456e-06
-0.00015528
6.67631e-06
-0.000161017
5.73722e-06
-0.000165804
4.78649e-06
-0.000169673
3.86947e-06
-0.000172487
2.81366e-06
-0.000174279
1.79215e-06
-0.000175058
7.791e-07
-0.000174765
-2.93199e-07
-0.000173532
-1.23278e-06
-0.000171499
-2.03328e-06
-0.000168762
-2.73692e-06
-0.000165436
-3.32584e-06
-0.000161579
-3.85716e-06
-0.00015721
-4.36939e-06
-0.000152336
-4.87368e-06
-0.000146867
-5.46911e-06
-0.000140796
-6.07079e-06
-0.000134133
-6.66297e-06
-0.000126736
-7.39755e-06
-0.000118621
-8.1144e-06
-0.000109729
-8.89221e-06
-0.000100046
-9.68304e-06
-8.95514e-05
-1.04947e-05
-7.82203e-05
-1.13311e-05
-6.60273e-05
-1.2193e-05
-5.30785e-05
-1.29488e-05
-3.93523e-05
-1.37262e-05
-2.48741e-05
-1.44782e-05
-9.72033e-06
-1.51538e-05
6.05835e-06
-1.57787e-05
2.23981e-05
-1.63398e-05
3.91829e-05
-1.67848e-05
5.62909e-05
-1.7108e-05
7.35727e-05
-1.72819e-05
9.08995e-05
-1.73269e-05
0.000108028
-1.71286e-05
0.000124838
-1.68095e-05
0.000141128
-1.62907e-05
0.000156597
-1.54693e-05
0.000171088
-1.44904e-05
0.000184346
-1.32585e-05
0.000196171
-1.1825e-05
0.000206261
-1.00897e-05
0.000214481
-8.22026e-06
0.000220598
-6.1164e-06
0.000224492
-3.89396e-06
0.000226017
-1.52507e-06
0.00022519
8.26305e-07
0.000221937
3.25317e-06
0.000216192
5.74548e-06
0.000208187
8.00435e-06
0.000198044
1.01436e-05
0.000185868
1.21753e-05
0.000171948
1.39205e-05
0.000156426
1.55219e-05
0.000139627
1.6799e-05
0.000121844
1.7783e-05
0.000103173
1.86704e-05
8.40699e-05
1.91035e-05
6.46766e-05
1.93933e-05
4.5311e-05
1.93655e-05
2.61949e-05
1.91161e-05
7.4391e-06
1.87558e-05
-1.06327e-05
1.80718e-05
-2.78807e-05
1.72479e-05
-4.43387e-05
1.6458e-05
-5.97386e-05
1.54e-05
-7.41251e-05
1.43864e-05
-8.74704e-05
1.33453e-05
-9.96892e-05
1.22188e-05
-0.000110849
1.11601e-05
-0.000120925
1.00752e-05
-0.000129979
9.05461e-06
-0.000138049
8.06995e-06
-0.000145173
7.12422e-06
-0.000151381
6.20774e-06
-0.000156853
5.47197e-06
-0.000161452
4.59858e-06
-0.000165293
3.84143e-06
-0.000168505
3.21163e-06
-0.00017098
2.47574e-06
-0.000172794
1.81335e-06
-0.000173968
1.17416e-06
-0.000174501
5.33e-07
-0.000174432
-6.89556e-08
-0.000173728
-7.03944e-07
-0.000172418
-1.30962e-06
-0.000170472
-1.94623e-06
-0.000167922
-2.55019e-06
-0.000164717
-3.20533e-06
-0.000160875
-3.84174e-06
-0.000156368
-4.5075e-06
-0.000151171
-5.19658e-06
-0.000145243
-5.92812e-06
-0.000138441
-6.80176e-06
-0.000130944
-7.49708e-06
-0.00012255
-8.39358e-06
-0.000113285
-9.26533e-06
-0.000103106
-1.01796e-05
-9.21897e-05
-1.09159e-05
-8.03291e-05
-1.18606e-05
-6.75781e-05
-1.2751e-05
-5.39569e-05
-1.36212e-05
-3.95368e-05
-1.44201e-05
-2.43472e-05
-1.51896e-05
-8.49792e-06
-1.58493e-05
7.91315e-06
-1.64111e-05
2.48365e-05
-1.69234e-05
4.20665e-05
-1.723e-05
5.94996e-05
-1.74332e-05
7.68475e-05
-1.73479e-05
9.39627e-05
-1.71152e-05
0.000110605
-1.66422e-05
0.00012654
-1.59348e-05
0.000141567
-1.50274e-05
0.000155422
-1.38552e-05
0.000167862
-1.24396e-05
0.000178613
-1.07516e-05
0.000187491
-8.87817e-06
0.000194204
-6.71284e-06
0.000198631
-4.42643e-06
0.000200604
-1.97342e-06
0.000200079
5.25418e-07
0.000197015
3.06363e-06
0.000191438
5.5767e-06
0.000183512
7.92621e-06
0.000173351
1.01612e-05
0.000161194
1.21562e-05
0.000147248
1.39463e-05
0.000131851
1.53972e-05
0.000115124
1.67266e-05
9.75107e-05
1.76135e-05
7.91889e-05
1.83217e-05
6.05229e-05
1.8666e-05
4.16187e-05
1.89042e-05
2.28262e-05
1.87924e-05
4.31046e-06
1.85157e-05
-1.37032e-05
1.80136e-05
-3.10838e-05
1.73806e-05
-4.76802e-05
1.65964e-05
-6.33722e-05
1.5692e-05
-7.81234e-05
1.47512e-05
-9.18708e-05
1.37473e-05
-0.00010467
1.27991e-05
-0.000116391
1.17208e-05
-0.000127168
1.07778e-05
-0.000136928
9.75982e-06
-0.000145701
8.7723e-06
-0.0001535
7.79952e-06
-0.000160393
6.89265e-06
-0.000166408
6.01546e-06
-0.000171565
5.15691e-06
-0.000175992
4.42671e-06
-0.000179671
3.67928e-06
-0.000182617
2.94589e-06
-0.000184874
2.25722e-06
-0.000186461
1.58642e-06
-0.000187408
9.47253e-07
-0.000187784
3.75752e-07
-0.000187626
-1.57274e-07
-0.000186956
-6.70931e-07
-0.000185781
-1.17457e-06
-0.000184079
-1.70198e-06
-0.000181761
-2.31846e-06
-0.000178915
-2.84516e-06
-0.000175329
-3.58675e-06
-0.000171048
-4.28084e-06
-0.000165943
-5.10485e-06
-0.000160159
-5.78372e-06
-0.000153517
-6.64177e-06
-0.000146147
-7.37038e-06
-0.000137917
-8.2301e-06
-0.000129071
-8.84642e-06
-0.000119373
-9.69747e-06
-0.000108864
-1.05087e-05
-9.74533e-05
-1.14112e-05
-8.52868e-05
-1.21665e-05
-7.21972e-05
-1.30896e-05
-5.82827e-05
-1.39146e-05
-4.36162e-05
-1.46665e-05
-2.82917e-05
-1.53246e-05
-1.24217e-05
-1.587e-05
3.80656e-06
-1.62283e-05
2.02589e-05
-1.64524e-05
3.6795e-05
-1.65361e-05
5.32051e-05
-1.64102e-05
6.92533e-05
-1.60482e-05
8.48215e-05
-1.55683e-05
9.94757e-05
-1.46542e-05
0.00011321
-1.37345e-05
0.00012577
-1.25595e-05
0.000136889
-1.11194e-05
0.000146444
-9.55484e-06
0.000154368
-7.92437e-06
0.000160441
-6.07336e-06
0.000164586
-4.14433e-06
0.000166896
-2.30991e-06
0.000167145
-2.49842e-07
0.000165609
1.5369e-06
0.000162117
3.49103e-06
0.000156651
5.46611e-06
0.000149364
7.28722e-06
0.000140292
9.07254e-06
0.000129479
1.08128e-05
0.000117036
1.24427e-05
0.000103123
1.3913e-05
8.81002e-05
1.50227e-05
7.21137e-05
1.59865e-05
5.55435e-05
1.65702e-05
3.86298e-05
1.69136e-05
2.1587e-05
1.70429e-05
4.80486e-06
1.67821e-05
-1.16143e-05
1.64192e-05
-2.74371e-05
1.58228e-05
-4.24997e-05
1.50625e-05
-5.67016e-05
1.42019e-05
-7e-05
1.32984e-05
-8.22938e-05
1.22938e-05
-9.35694e-05
1.12755e-05
-0.000103854
1.02845e-05
-0.000113135
9.28125e-06
-0.000121498
8.36233e-06
-0.000128977
7.47994e-06
-0.000135621
6.64396e-06
-0.000141521
5.89931e-06
-0.000146728
5.20681e-06
-0.000151323
4.59565e-06
-0.000155371
4.04795e-06
-0.000158899
3.52791e-06
-0.000161986
3.08704e-06
-0.000164598
2.612e-06
-0.000166729
2.13121e-06
-0.000168388
1.65874e-06
-0.000169561
1.17273e-06
-0.0001702
6.39215e-07
-0.000170167
-3.35115e-08
-0.000169414
-7.52706e-07
-0.000167909
-1.50454e-06
-0.00016566
-2.24902e-06
-0.00016242
-3.24025e-06
-0.000158245
-4.17484e-06
-0.000153107
-5.13783e-06
-0.000146809
-6.29859e-06
-0.000139478
-7.33068e-06
-0.000130951
-8.5269e-06
-0.000121321
-9.63053e-06
-0.000110662
-1.06584e-05
-9.88393e-05
-1.18229e-05
-8.60021e-05
-1.28373e-05
-7.22771e-05
-1.3725e-05
-5.75431e-05
-1.4734e-05
-4.19969e-05
-1.55463e-05
-2.59322e-05
-1.60647e-05
-9.22626e-06
-1.67059e-05
7.79448e-06
-1.70208e-05
2.50593e-05
-1.72648e-05
4.23606e-05
-1.73013e-05
5.94105e-05
-1.705e-05
7.61482e-05
-1.67377e-05
9.23789e-05
-1.62307e-05
0.000107806
-1.54271e-05
0.000122284
-1.44778e-05
0.000135621
-1.33375e-05
0.00014767
-1.20483e-05
0.000158271
-1.06018e-05
0.000167292
-9.02103e-06
0.000174597
-7.30484e-06
0.000180112
-5.51443e-06
0.000183759
-3.64738e-06
0.000185472
-1.71279e-06
0.000185155
3.16566e-07
0.000182865
2.29043e-06
0.000178613
4.2521e-06
0.000172471
6.14197e-06
0.000164647
7.8239e-06
0.000155131
9.51602e-06
1.11079e-05
-0.000118956
2.03268e-05
-0.000128131
1.83506e-05
-0.000136446
1.66284e-05
-0.000143919
1.49449e-05
-0.000150571
1.33029e-05
-0.00015644
1.1737e-05
-0.000161549
1.02131e-05
-0.000165927
8.75807e-06
-0.000169595
7.33771e-06
-0.00017255
5.90956e-06
-0.00017482
4.53727e-06
-0.000176439
3.23239e-06
-0.000177384
1.89032e-06
-0.000177628
4.95846e-07
-0.000177159
-9.38576e-07
-0.000175963
-2.39186e-06
-0.000174136
-3.65622e-06
-0.000171483
-5.30499e-06
-0.00016807
-6.83712e-06
-0.000163968
-8.19412e-06
-0.000158937
-1.00637e-05
-0.000153046
-1.17855e-05
-0.000146382
-1.33253e-05
-0.000138685
-1.53971e-05
-0.000130107
-1.71561e-05
-0.000120465
-1.92861e-05
-0.000109856
-2.12177e-05
-9.82829e-05
-2.31413e-05
-8.56004e-05
-2.53646e-05
-7.1892e-05
-2.74141e-05
-5.73226e-05
-2.91374e-05
-4.17477e-05
-3.11426e-05
-2.5353e-05
-3.27763e-05
-8.0136e-06
-3.46848e-05
9.96238e-06
-3.59458e-05
2.83536e-05
-3.6774e-05
4.71788e-05
-3.76438e-05
6.6228e-05
-3.80874e-05
8.51379e-05
-3.78027e-05
0.000103868
-3.74482e-05
0.00012212
-3.64978e-05
0.000139672
-3.50935e-05
0.000156304
-3.32467e-05
0.000171658
-3.06935e-05
0.000185598
-2.78738e-05
0.000197901
-2.45983e-05
0.000208308
-2.08051e-05
0.000216694
-1.67625e-05
0.000222931
-1.24671e-05
0.000226841
-7.82208e-06
0.00022847
-3.25041e-06
0.000227648
1.63403e-06
0.000224571
6.15178e-06
0.000219196
1.07549e-05
0.000211582
1.52213e-05
0.000202028
1.91025e-05
0.000190608
2.28346e-05
0.000177423
2.63599e-05
0.000162852
2.91286e-05
0.000147067
3.15612e-05
0.000130279
3.35688e-05
0.000112665
3.5215e-05
9.44933e-05
3.63331e-05
7.6069e-05
3.68361e-05
5.75394e-05
3.70563e-05
3.91293e-05
3.68016e-05
2.09773e-05
3.62966e-05
3.1667e-06
3.56112e-05
-1.40525e-05
3.44243e-05
-3.06836e-05
3.3244e-05
-4.6555e-05
3.17442e-05
-6.15946e-05
3.00678e-05
-7.57879e-05
2.83843e-05
-8.90608e-05
2.6542e-05
-0.000101359
2.4593e-05
-0.000112757
2.27932e-05
-0.000123122
2.07269e-05
-0.000132618
1.89928e-05
-0.000141127
1.70218e-05
-0.000148666
1.50848e-05
-0.000155356
1.33665e-05
-0.000161088
1.14692e-05
-0.000165872
9.57068e-06
-0.000169735
7.73201e-06
-0.000172552
5.6302e-06
-0.000174344
3.58481e-06
-0.00017511
1.54501e-06
-0.000174807
-5.968e-07
-0.000173566
-2.47334e-06
-0.000171517
-4.08263e-06
-0.000168768
-5.48567e-06
-0.00016543
-6.66359e-06
-0.000161563
-7.72466e-06
-0.000157186
-8.74574e-06
-0.000152312
-9.748e-06
-0.000146844
-1.09371e-05
-0.000140802
-1.21132e-05
-0.000134108
-1.33563e-05
-0.000126718
-1.47876e-05
-0.000118616
-1.6217e-05
-0.00010972
-1.77878e-05
-0.000100052
-1.9351e-05
-8.95631e-05
-2.09838e-05
-7.82229e-05
-2.26714e-05
-6.6043e-05
-2.4373e-05
-5.30924e-05
-2.58995e-05
-3.9368e-05
-2.74506e-05
-2.48951e-05
-2.89512e-05
-9.74123e-06
-3.03077e-05
6.04792e-06
-3.15679e-05
2.23887e-05
-3.26807e-05
3.91772e-05
-3.35734e-05
5.62902e-05
-3.4221e-05
7.35755e-05
-3.45673e-05
9.09084e-05
-3.46598e-05
0.000108048
-3.42683e-05
0.000124864
-3.3625e-05
0.000141158
-3.25849e-05
0.000156636
-3.09481e-05
0.000171139
-2.89928e-05
0.000184399
-2.65192e-05
0.000196234
-2.36599e-05
0.000206322
-2.01774e-05
0.000214537
-1.64357e-05
0.000220653
-1.22324e-05
0.000224554
-7.7946e-06
0.000226052
-3.02383e-06
0.000225196
1.68292e-06
0.000221893
6.55612e-06
0.000216158
1.14802e-05
0.000208142
1.60199e-05
0.000197969
2.0317e-05
0.000185776
2.43678e-05
0.00017183
2.78668e-05
0.000156331
3.1021e-05
0.00013947
3.36593e-05
0.000121639
3.56138e-05
0.000102977
3.73324e-05
8.38536e-05
3.82272e-05
6.44477e-05
3.87992e-05
4.50756e-05
3.87376e-05
2.59095e-05
3.82821e-05
7.17974e-06
3.74855e-05
-1.09e-05
3.61515e-05
-2.81926e-05
3.45405e-05
-4.46139e-05
3.28793e-05
-6.00404e-05
3.08264e-05
-7.43935e-05
2.87395e-05
-8.7748e-05
2.66999e-05
-9.99464e-05
2.44172e-05
-0.000111094
2.23076e-05
-0.000121161
2.0142e-05
-0.000130207
1.8101e-05
-0.000138267
1.61294e-05
-0.00014539
1.42473e-05
-0.000151583
1.24008e-05
-0.000157046
1.09352e-05
-0.000161638
9.19075e-06
-0.0001655
7.70326e-06
-0.000168693
6.405e-06
-0.00017116
4.9421e-06
-0.000172969
3.62242e-06
-0.00017413
2.33507e-06
-0.000174663
1.06648e-06
-0.000174585
-1.47158e-07
-0.000173877
-1.41224e-06
-0.000172563
-2.62316e-06
-0.000170622
-3.88778e-06
-0.000168068
-5.10356e-06
-0.000164849
-6.42457e-06
-0.000161006
-7.68531e-06
-0.000156503
-9.01031e-06
-0.0001513
-1.0399e-05
-0.00014537
-1.18588e-05
-0.000138595
-1.35763e-05
-0.000131073
-1.50189e-05
-0.000122678
-1.67892e-05
-0.000113404
-1.8539e-05
-0.00010326
-2.03241e-05
-9.23134e-05
-2.18623e-05
-8.04486e-05
-2.37254e-05
-6.76948e-05
-2.55049e-05
-5.40704e-05
-2.72456e-05
-3.96447e-05
-2.88459e-05
-2.44572e-05
-3.03771e-05
-8.60786e-06
-3.16987e-05
7.8179e-06
-3.28369e-05
2.47407e-05
-3.38463e-05
4.19872e-05
-3.44765e-05
5.9419e-05
-3.48651e-05
7.67736e-05
-3.47026e-05
9.38943e-05
-3.4236e-05
0.000110546
-3.32938e-05
0.000126488
-3.18765e-05
0.000141512
-3.00518e-05
0.000155365
-2.77083e-05
0.00016779
-2.48653e-05
0.000178564
-2.15249e-05
0.000187438
-1.7753e-05
0.000194162
-1.34362e-05
0.000198584
-8.8486e-06
0.00020056
-3.94996e-06
0.000200024
1.06165e-06
0.000196939
6.14857e-06
0.000191351
1.11651e-05
0.000183402
1.58747e-05
0.000173245
2.03184e-05
0.000161105
2.42963e-05
0.000147111
2.79397e-05
0.000131661
3.08473e-05
0.000114961
3.34272e-05
9.73338e-05
3.52402e-05
7.90116e-05
3.66439e-05
6.03004e-05
3.73772e-05
4.14156e-05
3.77889e-05
2.26212e-05
3.75868e-05
4.10308e-06
3.70338e-05
-1.39176e-05
3.60343e-05
-3.13023e-05
3.47653e-05
-4.78963e-05
3.31903e-05
-6.35946e-05
3.13903e-05
-7.83402e-05
2.94968e-05
-9.20965e-05
2.75036e-05
-0.00010487
2.55729e-05
-0.000116599
2.34493e-05
-0.000127378
2.15569e-05
-0.000137128
1.95097e-05
-0.000145897
1.7542e-05
-0.000153693
1.55952e-05
-0.000160582
1.3782e-05
-0.000166598
1.2031e-05
-0.000171764
1.03227e-05
-0.000176175
8.8377e-06
-0.000179845
7.34968e-06
-0.000182795
5.89585e-06
-0.00018506
4.52221e-06
-0.00018665
3.17669e-06
-0.000187599
1.8955e-06
-0.000187975
7.5231e-07
-0.000187814
-3.18914e-07
-0.00018714
-1.34482e-06
-0.000185945
-2.36979e-06
-0.000184259
-3.38794e-06
-0.000181963
-4.61422e-06
-0.000179088
-5.72012e-06
-0.000175503
-7.17168e-06
-0.000171212
-8.57209e-06
-0.000166117
-1.01995e-05
-0.000160302
-1.15984e-05
-0.000153658
-1.32865e-05
-0.000146277
-1.47507e-05
-0.000138069
-1.64387e-05
-0.000129197
-1.77182e-05
-0.000119488
-1.94067e-05
-0.000108977
-2.10194e-05
-9.75583e-05
-2.28302e-05
-8.5381e-05
-2.43439e-05
-7.22886e-05
-2.6182e-05
-5.83666e-05
-2.78367e-05
-4.36861e-05
-2.93469e-05
-2.83525e-05
-3.06582e-05
-1.24784e-05
-3.17442e-05
3.76814e-06
-3.24749e-05
2.02408e-05
-3.29251e-05
3.67859e-05
-3.30813e-05
5.32064e-05
-3.28307e-05
6.92691e-05
-3.2111e-05
8.48575e-05
-3.11567e-05
9.95135e-05
-2.93103e-05
0.000113261
-2.74825e-05
0.000125829
-2.5127e-05
0.000136959
-2.22498e-05
0.000146526
-1.91216e-05
0.000154475
-1.58731e-05
0.000160533
-1.2132e-05
0.000164683
-8.29409e-06
0.000166991
-4.61831e-06
0.000167241
-4.99276e-07
0.000165705
3.07205e-06
0.000162209
6.98715e-06
0.000156745
1.09304e-05
0.000149458
1.45746e-05
0.000140389
1.81416e-05
0.000129564
2.16373e-05
0.000117113
2.48939e-05
0.000103189
2.78371e-05
8.81555e-05
3.00559e-05
7.21539e-05
3.1988e-05
5.55723e-05
3.31518e-05
3.86481e-05
3.38377e-05
2.1591e-05
3.41e-05
4.79613e-06
3.35769e-05
-1.16332e-05
3.28485e-05
-2.74643e-05
3.16539e-05
-4.25341e-05
3.01323e-05
-5.67439e-05
2.84117e-05
-7.00478e-05
2.66023e-05
-8.23445e-05
2.45905e-05
-9.36205e-05
2.25515e-05
-0.000103905
2.05691e-05
-0.000113187
1.85632e-05
-0.000121548
1.67236e-05
-0.000129023
1.49542e-05
-0.000135666
1.32871e-05
-0.000141564
1.17979e-05
-0.00014677
1.04127e-05
-0.000151365
9.19064e-06
-0.000155414
8.09675e-06
-0.000158947
7.06125e-06
-0.000162035
6.17496e-06
-0.000164642
5.21878e-06
-0.000166774
4.26361e-06
-0.00016844
3.32464e-06
-0.000169619
2.35087e-06
-0.00017024
1.26061e-06
-0.000170215
-5.81044e-08
-0.000169467
-1.50133e-06
-0.000167965
-3.00625e-06
-0.000165718
-4.49579e-06
-0.000162478
-6.48028e-06
-0.000158306
-8.34671e-06
-0.000153171
-1.02731e-05
-0.000146873
-1.2597e-05
-0.000139541
-1.46621e-05
-0.000131013
-1.70551e-05
-0.000121381
-1.92628e-05
-0.000110721
-2.13185e-05
-9.88936e-05
-2.36502e-05
-8.60516e-05
-2.56793e-05
-7.23233e-05
-2.74533e-05
-5.75813e-05
-2.9476e-05
-4.20295e-05
-3.10981e-05
-2.5956e-05
-3.21383e-05
-9.24334e-06
-3.34186e-05
7.7822e-06
-3.40463e-05
2.50582e-05
-3.45409e-05
4.23767e-05
-3.46198e-05
5.9441e-05
-3.41144e-05
7.61818e-05
-3.34785e-05
9.2416e-05
-3.2465e-05
0.000107853
-3.08639e-05
0.000122341
-2.89665e-05
0.000135692
-2.6688e-05
0.000147755
-2.41119e-05
0.00015836
-2.12067e-05
0.000167379
-1.80397e-05
0.000174685
-1.4611e-05
0.000180201
-1.10305e-05
0.000183849
-7.29491e-06
0.000185563
-3.42748e-06
0.000185237
6.43175e-07
0.000182941
4.5861e-06
0.000178689
8.50408e-06
0.000172542
1.22884e-05
0.000164713
1.5653e-05
0.000155191
1.90381e-05
2.22234e-05
-0.000119029
3.0492e-05
-0.000128204
2.75256e-05
-0.00013652
2.49442e-05
-0.000143992
2.24173e-05
-0.000150644
1.99549e-05
-0.000156514
1.76066e-05
-0.000161624
1.53232e-05
-0.000166005
1.31391e-05
-0.000169672
1.10051e-05
-0.000172628
8.86527e-06
-0.000174898
6.80691e-06
-0.000176515
4.8494e-06
-0.000177449
2.82495e-06
-0.000177682
7.28361e-07
-0.000177214
-1.40684e-06
-0.000176017
-3.58817e-06
-0.000174196
-5.47753e-06
-0.000171542
-7.95918e-06
-0.000168153
-1.0226e-05
-0.000164029
-1.23177e-05
-0.000159003
-1.50897e-05
-0.000153121
-1.76681e-05
-0.000146452
-1.99943e-05
-0.000138755
-2.30939e-05
-0.000130181
-2.57302e-05
-0.000120546
-2.89213e-05
-0.00010994
-3.1824e-05
-9.83601e-05
-3.4721e-05
-8.56773e-05
-3.80475e-05
-7.19676e-05
-4.11239e-05
-5.7394e-05
-4.3711e-05
-4.18125e-05
-4.67242e-05
-2.54055e-05
-4.91833e-05
-8.0648e-06
-5.20255e-05
9.92322e-06
-5.39338e-05
2.83249e-05
-5.51757e-05
4.71685e-05
-5.64875e-05
6.62366e-05
-5.71556e-05
8.51636e-05
-5.67297e-05
0.00010391
-5.61947e-05
0.00012218
-5.47681e-05
0.000139754
-5.26677e-05
0.000156405
-4.98971e-05
0.000171773
-4.60614e-05
0.000185732
-4.18332e-05
0.000198052
-3.69183e-05
0.000208471
-3.12246e-05
0.000216874
-2.51652e-05
0.000223129
-1.87221e-05
0.000227025
-1.17186e-05
0.000228661
-4.88611e-06
0.000227817
2.47835e-06
0.00022473
9.2385e-06
0.000219363
1.61213e-05
0.00021174
2.28451e-05
0.000202172
2.86702e-05
0.000190743
3.42633e-05
0.000177548
3.95549e-05
0.000162948
4.37281e-05
0.000147142
4.73672e-05
0.000130344
5.03676e-05
0.000112711
5.2847e-05
9.45262e-05
5.45183e-05
7.6082e-05
5.52803e-05
5.7556e-05
5.55823e-05
3.91091e-05
5.52485e-05
2.09479e-05
5.44578e-05
3.12477e-06
5.34343e-05
-1.41033e-05
5.16524e-05
-3.07513e-05
4.9892e-05
-4.66119e-05
4.76047e-05
-6.1673e-05
4.51289e-05
-7.58714e-05
4.25827e-05
-8.9147e-05
3.98176e-05
-0.000101443
3.68888e-05
-0.00011284
3.41905e-05
-0.000123204
3.1091e-05
-0.000132705
2.84937e-05
-0.00014121
2.55265e-05
-0.000148737
2.26125e-05
-0.000155452
2.00808e-05
-0.000161174
1.71918e-05
-0.000165954
1.435e-05
-0.000169819
1.15975e-05
-0.000172649
8.4606e-06
-0.000174435
5.36991e-06
-0.000175198
2.30856e-06
-0.00017488
-9.1494e-07
-0.00017363
-3.72371e-06
-0.000171568
-6.14472e-06
-0.000168809
-8.24451e-06
-0.000165467
-1.00054e-05
-0.000161598
-1.15933e-05
-0.000157223
-1.31207e-05
-0.000152354
-1.46171e-05
-0.000146903
-1.63882e-05
-0.000140869
-1.81476e-05
-0.0001342
-2.00254e-05
-0.000126827
-2.216e-05
-0.000118733
-2.4311e-05
-0.000109869
-2.66523e-05
-0.0001002
-2.90196e-05
-8.97094e-05
-3.14745e-05
-7.8392e-05
-3.39888e-05
-6.61827e-05
-3.65823e-05
-5.32765e-05
-3.88058e-05
-3.95628e-05
-4.11643e-05
-2.50955e-05
-4.34186e-05
-9.93556e-06
-4.54677e-05
5.86175e-06
-4.73653e-05
2.22057e-05
-4.90247e-05
3.90055e-05
-5.03732e-05
5.61241e-05
-5.13397e-05
7.34274e-05
-5.18707e-05
9.07704e-05
-5.20029e-05
0.000107927
-5.14247e-05
0.000124755
-5.04532e-05
0.00014105
-4.88805e-05
0.000156571
-4.64685e-05
0.000171093
-4.35152e-05
0.000184365
-3.97911e-05
0.000196188
-3.54834e-05
0.00020631
-3.02987e-05
0.000214523
-2.46494e-05
0.000220645
-1.83544e-05
0.000224534
-1.16831e-05
0.00022606
-4.5505e-06
0.000225171
2.57207e-06
0.000221846
9.88076e-06
0.000216114
1.72127e-05
0.00020808
2.40537e-05
0.00019788
3.05171e-05
0.000185664
3.65832e-05
0.000171692
4.18392e-05
0.000156184
4.65281e-05
0.00013928
5.05638e-05
0.00012139
5.35036e-05
0.000102728
5.59945e-05
8.35882e-05
5.73668e-05
6.41717e-05
5.82157e-05
4.48156e-05
5.80937e-05
2.55804e-05
5.75173e-05
6.85424e-06
5.62117e-05
-1.12395e-05
5.42452e-05
-2.8562e-05
5.1863e-05
-4.49776e-05
4.92949e-05
-6.0415e-05
4.62638e-05
-7.48163e-05
4.31408e-05
-8.81232e-05
4.00068e-05
-0.000100317
3.6611e-05
-0.00011146
3.34509e-05
-0.000121513
3.01949e-05
-0.000130551
2.71387e-05
-0.000138592
2.41708e-05
-0.000145713
2.13675e-05
-0.000151954
1.86425e-05
-0.000157365
1.63462e-05
-0.000161972
1.37981e-05
-0.000165867
1.15979e-05
-0.000169015
9.55334e-06
-0.000171419
7.34586e-06
-0.000173291
5.49403e-06
-0.000174435
3.47925e-06
-0.000174984
1.61524e-06
-0.000174876
-2.55164e-07
-0.000174186
-2.10203e-06
-0.000172852
-3.95725e-06
-0.00017092
-5.8195e-06
-0.000168362
-7.66218e-06
-0.00016517
-9.61606e-06
-0.000161321
-1.15343e-05
-0.000156811
-1.35207e-05
-0.000151594
-1.56162e-05
-0.000145668
-1.77842e-05
-0.000138934
-2.03101e-05
-0.000131386
-2.25675e-05
-0.000122988
-2.5187e-05
-0.000113708
-2.78188e-05
-0.000103614
-3.04188e-05
-9.26163e-05
-3.28596e-05
-8.07472e-05
-3.55946e-05
-6.7995e-05
-3.82572e-05
-5.43682e-05
-4.08725e-05
-3.99447e-05
-4.32694e-05
-2.47553e-05
-4.55666e-05
-8.88301e-06
-4.75711e-05
7.56086e-06
-4.92808e-05
2.44991e-05
-5.07846e-05
4.17649e-05
-5.17423e-05
5.91983e-05
-5.22986e-05
7.65734e-05
-5.20777e-05
9.37201e-05
-5.13828e-05
0.000110365
-4.99385e-05
0.000126332
-4.78441e-05
0.000141372
-4.5092e-05
0.000155249
-4.15846e-05
0.000167696
-3.73127e-05
0.00017849
-3.23187e-05
0.000187379
-2.66427e-05
0.000194134
-2.01912e-05
0.000198552
-1.32661e-05
0.00020053
-5.92833e-06
0.000199975
1.61603e-06
0.000196867
9.25693e-06
0.000191277
1.67554e-05
0.000183317
2.38345e-05
0.000173144
3.04914e-05
0.000160965
3.6475e-05
0.000146959
4.19452e-05
0.000131483
4.63241e-05
0.000114778
5.01322e-05
9.71336e-05
5.2884e-05
7.87984e-05
5.49791e-05
6.00655e-05
5.611e-05
4.11591e-05
5.66953e-05
2.23399e-05
5.64059e-05
3.80949e-06
5.55642e-05
-1.42242e-05
5.40679e-05
-3.16105e-05
5.21516e-05
-4.82009e-05
4.97807e-05
-6.39255e-05
4.71148e-05
-7.86791e-05
4.42504e-05
-9.24645e-05
4.1289e-05
-0.000105172
3.82808e-05
-0.000116986
3.52626e-05
-0.000127724
3.22954e-05
-0.000137479
2.92648e-05
-0.000146244
2.63071e-05
-0.000154031
2.33816e-05
-0.000160901
2.06523e-05
-0.000166917
1.80466e-05
-0.0001721
1.5506e-05
-0.00017651
1.32479e-05
-0.000180166
1.10052e-05
-0.000183136
8.86585e-06
-0.000185406
6.79219e-06
-0.000186986
4.75691e-06
-0.000187935
2.84444e-06
-0.000188307
1.12373e-06
-0.000188131
-4.94656e-07
-0.000187459
-2.01712e-06
-0.000186208
-3.62003e-06
-0.000184564
-5.03245e-06
-0.000182273
-6.90543e-06
-0.00017937
-8.6223e-06
-0.000175791
-1.07508e-05
-0.000171482
-1.28819e-05
-0.00016642
-1.5261e-05
-0.000160559
-1.74592e-05
-0.00015391
-1.9936e-05
-0.000146508
-2.21522e-05
-0.000138332
-2.4615e-05
-0.000129414
-2.66366e-05
-0.000119705
-2.91151e-05
-0.000109185
-3.15394e-05
-9.78179e-05
-3.41975e-05
-8.55785e-05
-3.65834e-05
-7.24718e-05
-3.92887e-05
-5.85335e-05
-4.17751e-05
-4.38368e-05
-4.40436e-05
-2.84873e-05
-4.60079e-05
-1.25976e-05
-4.76338e-05
3.67884e-06
-4.87514e-05
2.01677e-05
-4.9414e-05
3.67299e-05
-4.96436e-05
5.31715e-05
-4.92723e-05
6.92587e-05
-4.81983e-05
8.48866e-05
-4.67847e-05
9.9553e-05
-4.39767e-05
0.000113318
-4.12476e-05
0.000125901
-3.77101e-05
0.000137054
-3.34029e-05
0.000146627
-2.8695e-05
0.000154591
-2.3837e-05
0.000160654
-1.81944e-05
0.000164815
-1.24557e-05
0.000167123
-6.92617e-06
0.000167374
-7.50672e-07
0.000165839
4.60704e-06
0.000162335
1.04915e-05
0.00015688
1.63848e-05
0.000149592
2.18627e-05
0.000140518
2.72152e-05
0.000129686
3.24693e-05
0.000117218
3.7362e-05
0.000103278
4.17768e-05
8.82271e-05
4.51071e-05
7.21998e-05
4.80153e-05
5.5595e-05
4.97566e-05
3.8655e-05
5.07776e-05
2.15726e-05
5.11824e-05
4.74826e-06
5.04012e-05
-1.16833e-05
4.928e-05
-2.75258e-05
4.74964e-05
-4.26045e-05
4.5211e-05
-5.68195e-05
4.26265e-05
-7.01271e-05
3.99099e-05
-8.24218e-05
3.68852e-05
-9.37092e-05
3.38389e-05
-0.000103986
3.08463e-05
-0.000113271
2.78476e-05
-0.000121626
2.5079e-05
-0.000129087
2.24146e-05
-0.000135724
1.99242e-05
-0.000141621
1.76951e-05
-0.000146829
1.56209e-05
-0.000151421
1.37824e-05
-0.00015547
1.21459e-05
-0.000159006
1.05974e-05
-0.000162088
9.25721e-06
-0.000164699
7.82963e-06
-0.000166834
6.39851e-06
-0.000168499
4.98916e-06
-0.000169681
3.533e-06
-0.000170301
1.88037e-06
-0.000170274
-8.48278e-08
-0.000169526
-2.24898e-06
-0.00016803
-4.5023e-06
-0.00016579
-6.73576e-06
-0.000162552
-9.71869e-06
-0.000158384
-1.25144e-05
-0.000153252
-1.54053e-05
-0.000146956
-1.8893e-05
-0.000139627
-2.19915e-05
-0.000131099
-2.55826e-05
-0.000121466
-2.88955e-05
-0.000110804
-3.19806e-05
-9.89728e-05
-3.54817e-05
-8.61265e-05
-3.85256e-05
-7.23911e-05
-4.11887e-05
-5.76423e-05
-4.42249e-05
-4.20764e-05
-4.6664e-05
-2.59907e-05
-4.8224e-05
-9.26897e-06
-5.01404e-05
7.7791e-06
-5.10944e-05
2.50756e-05
-5.18374e-05
4.24091e-05
-5.19534e-05
5.94862e-05
-5.11914e-05
7.62443e-05
-5.02366e-05
9.24993e-05
-4.87201e-05
0.000107958
-4.63224e-05
0.000122465
-4.34742e-05
0.000135826
-4.00489e-05
0.000147893
-3.61786e-05
0.000158504
-3.18173e-05
0.000167529
-2.70653e-05
0.000174837
-2.19189e-05
0.000180352
-1.65462e-05
0.000183996
-1.09381e-05
0.000185712
-5.14392e-06
0.000185376
9.79291e-07
0.000183077
6.88499e-06
0.00017883
1.27515e-05
0.000172678
1.84399e-05
0.00016484
2.34905e-05
0.000155308
2.85703e-05
3.33505e-05
-0.000119139
4.06574e-05
-0.000128315
3.6702e-05
-0.000136631
3.32602e-05
-0.000144104
2.98901e-05
-0.000150756
2.66065e-05
-0.000156626
2.34766e-05
-0.000161745
2.04421e-05
-0.000166121
1.75158e-05
-0.000169786
1.46693e-05
-0.000172743
1.18227e-05
-0.000175015
9.07888e-06
-0.00017664
6.47415e-06
-0.000177563
3.74779e-06
-0.000177773
9.38723e-07
-0.000177296
-1.88352e-06
-0.000176099
-4.78582e-06
-0.000174286
-7.28983e-06
-0.000171627
-1.06187e-05
-0.00016825
-1.36023e-05
-0.000164118
-1.64497e-05
-0.000159099
-2.01088e-05
-0.000153238
-2.35292e-05
-0.000146556
-2.66763e-05
-0.000138862
-3.07884e-05
-0.000130293
-3.42993e-05
-0.00012067
-3.85438e-05
-0.000110066
-4.24277e-05
-9.84763e-05
-4.63111e-05
-8.57929e-05
-5.07308e-05
-7.20805e-05
-5.48363e-05
-5.75019e-05
-5.82896e-05
-4.19107e-05
-6.23154e-05
-2.54887e-05
-6.56054e-05
-8.14455e-06
-6.93698e-05
9.86456e-06
-7.1943e-05
2.82848e-05
-7.3596e-05
4.71526e-05
-7.53554e-05
6.62461e-05
-7.62492e-05
8.52031e-05
-7.56868e-05
0.000103977
-7.49686e-05
0.000122273
-7.30643e-05
0.000139874
-7.02691e-05
0.000156554
-6.65766e-05
0.000171947
-6.14548e-05
0.000185936
-5.58224e-05
0.000198282
-4.92636e-05
0.000208713
-4.16563e-05
0.000217137
-3.35892e-05
0.000223399
-2.49843e-05
0.000227296
-1.56156e-05
0.000228937
-6.5269e-06
0.000228067
3.34811e-06
0.000224972
1.23335e-05
0.000219615
2.14785e-05
0.000211975
3.04852e-05
0.000202386
3.82591e-05
0.000190944
4.57056e-05
0.000177738
5.2761e-05
0.000163091
5.83748e-05
0.000147254
6.32037e-05
0.00013044
6.71826e-05
0.000112779
7.05075e-05
9.4578e-05
7.27192e-05
7.61012e-05
7.37571e-05
5.75617e-05
7.41219e-05
3.90778e-05
7.37323e-05
2.09035e-05
7.26321e-05
3.06184e-06
7.12759e-05
-1.41868e-05
6.89011e-05
-3.08569e-05
6.6562e-05
-4.67172e-05
6.34651e-05
-6.17884e-05
6.02001e-05
-7.59954e-05
5.67896e-05
-8.92755e-05
5.30976e-05
-0.000101575
4.91886e-05
-0.000112973
4.55881e-05
-0.000123331
4.14495e-05
-0.000132838
3.80003e-05
-0.000141342
3.40309e-05
-0.000148865
3.01347e-05
-0.000155593
2.68091e-05
-0.000161308
2.29066e-05
-0.000166084
1.91261e-05
-0.000169948
1.54613e-05
-0.000172807
1.13196e-05
-0.000174598
7.16085e-06
-0.000175351
3.0623e-06
-0.000175004
-1.26222e-06
-0.000173746
-4.98182e-06
-0.000171665
-8.22533e-06
-0.000168906
-1.10038e-05
-0.000165563
-1.33482e-05
-0.000161706
-1.54508e-05
-0.000157352
-1.74742e-05
-0.000152496
-1.94734e-05
-0.000147071
-2.18135e-05
-0.000141037
-2.41815e-05
-0.000134418
-2.66443e-05
-0.000127077
-2.95011e-05
-0.000118994
-3.23937e-05
-0.000110166
-3.54807e-05
-0.0001005
-3.86851e-05
-9.00249e-05