/*--------------------------------*- C++ -*----------------------------------*\
| =========                 |                                                 |
| \\      /  F ield         | OpenFOAM: The Open Source CFD Toolbox           |
|  \\    /   O peration     | Version:  3.0.1                                 |
|   \\  /    A nd           | Web:      www.OpenFOAM.org                      |
|    \\/     M anipulation  |                                                 |
\*---------------------------------------------------------------------------*/
FoamFile
{
    version     2.0;
    format      ascii;
    class       volScalarField;
    location    "83";
    object      p_rgh;
}
// * * * * * * * * * * * * * * * * * * * * * * * * * * * * * * * * * * * * * //

dimensions      [1 -1 -2 0 0 0 0];

internalField   nonuniform List<scalar> 
21420
(
166.637
198.812
230.256
260.493
289.13
315.626
339.601
360.647
378.441
392.72
403.25
409.855
412.358
410.639
404.802
395.026
381.333
363.95
343.128
319.174
292.455
263.32
232.163
199.411
165.477
130.778
95.6801
60.5415
25.7303
-2.13303
-34.9187
-66.477
-96.5541
-125.004
-151.729
-176.653
-199.737
-220.964
-240.33
-257.855
-273.571
-287.514
-299.73
-310.26
-319.152
-326.448
-332.186
-336.404
-339.131
-340.356
-340.091
-338.32
-335.111
-330.386
-324.139
-316.362
-307
-296.016
-283.377
-269.039
-252.959
-235.11
-215.457
-193.998
-170.763
-145.79
-119.158
-90.9946
-61.4565
-30.7712
0.810421
36.6316
69.6925
103.021
136.3
169.136
201.164
232.006
261.289
288.651
313.736
336.206
355.747
372.069
384.915
394.074
399.393
400.757
398.142
391.575
381.182
367.038
349.366
328.405
304.433
277.76
248.725
217.689
185.037
151.164
116.475
81.3777
46.2698
11.5273
-22.3584
-55.2935
-86.8657
-116.851
-145.072
-171.396
-195.735
-218.044
-238.311
-256.55
-272.797
-287.099
-299.515
-310.106
-318.935
-326.059
-331.533
-335.408
-337.753
-338.587
-337.931
-335.883
-332.461
-327.686
-321.586
-314.179
-305.474
-295.472
-284.168
-271.548
-257.587
-242.255
-225.524
-207.358
-187.731
-166.624
-144.037
-119.98
-94.4947
-67.6459
-39.523
-10.2576
20.0349
51.0643
82.6224
114.429
146.165
177.482
208.008
237.352
265.118
290.905
314.324
334.995
352.573
366.74
377.223
383.803
386.294
384.611
378.748
368.786
354.778
336.962
315.605
291.036
263.641
233.852
202.125
168.93
134.742
100.026
65.2236
30.745
-3.03845
-35.8047
-67.2823
-97.2481
-125.527
-151.989
-176.552
-199.169
-219.829
-238.549
-255.37
-270.348
-283.548
-295.042
-304.911
-313.229
-320.072
-325.521
-329.646
-332.522
-334.201
-334.709
-334.07
-332.325
-329.451
-325.435
-320.257
-313.888
-306.291
-297.431
-287.264
-275.745
-262.826
-248.464
-232.621
-215.265
-196.373
-175.94
-153.972
-130.497
-105.566
-79.2517
-51.6591
-22.9207
6.81993
37.3248
68.3488
99.6202
130.827
161.625
191.636
220.465
247.698
272.921
295.723
315.712
332.525
345.845
355.406
361.004
362.46
359.806
352.997
342.169
327.445
309.079
287.369
262.67
235.385
205.954
174.843
142.52
109.449
76.0708
42.7916
9.97485
-22.0496
-53.0322
-82.7422
-111
-137.671
-162.659
-185.9
-207.357
-227.015
-244.881
-260.977
-275.337
-288.011
-299.047
-308.502
-316.435
-322.894
-327.945
-331.657
-334.043
-335.157
-335.128
-334.024
-331.792
-328.431
-323.912
-318.209
-311.269
-303.051
-293.479
-282.489
-270.015
-255.969
-240.261
-222.855
-203.672
-182.737
-160.056
-135.675
-109.714
-82.3106
-53.0104
-18.0683
16.1112
50.4468
84.7293
118.778
152.133
184.366
215.116
243.903
270.306
293.988
314.563
331.739
345.242
354.848
360.387
361.866
360.473
355.075
345.715
332.64
316.036
296.131
273.248
247.687
219.825
190.108
158.915
126.682
93.8047
60.6623
27.6383
-4.9694
-36.7881
-65.2157
-94.7965
-123.035
-149.755
-174.86
-198.275
-219.966
-239.912
-258.12
-274.614
-289.423
-302.591
-314.166
-324.195
-332.726
-339.8
-345.461
-349.742
-352.683
-354.307
-354.606
-353.389
-350.792
-346.811
-341.439
-334.619
-326.307
166.632
198.824
230.285
260.541
289.196
315.709
339.702
360.764
378.571
392.863
403.401
410.011
412.524
410.799
404.959
395.175
381.471
364.075
343.238
319.267
292.53
263.376
232.201
199.431
165.481
130.767
95.6555
60.5054
25.6817
-2.20085
-34.9969
-66.5588
-96.638
-125.089
-151.815
-176.738
-199.821
-221.046
-240.41
-257.932
-273.646
-287.586
-299.799
-310.327
-319.217
-326.51
-332.247
-336.463
-339.189
-340.414
-340.147
-338.379
-335.17
-330.445
-324.2
-316.425
-307.065
-296.084
-283.447
-269.112
-253.035
-235.189
-215.537
-194.079
-170.844
-145.87
-119.235
-91.068
-61.5236
-30.8295
0.761751
36.5758
69.6503
102.993
136.287
169.138
201.182
232.04
261.34
288.718
313.819
336.305
355.859
372.194
385.051
394.217
399.541
400.912
398.287
391.717
381.317
367.163
349.48
328.504
304.517
277.827
248.773
217.72
185.05
151.16
116.454
81.3409
46.2189
11.4642
-22.4352
-55.3786
-86.9574
-116.948
-145.171
-171.496
-195.834
-218.142
-238.407
-256.643
-272.887
-287.186
-299.598
-310.186
-319.012
-326.133
-331.605
-335.479
-337.821
-338.651
-337.994
-335.947
-332.524
-327.748
-321.648
-314.241
-305.535
-295.535
-284.232
-271.614
-257.654
-242.324
-225.595
-207.431
-187.807
-166.701
-144.115
-120.058
-94.5722
-67.721
-39.5949
-10.3238
19.9726
51.0113
82.5797
114.398
146.148
177.48
208.022
237.384
265.167
290.973
314.409
335.097
352.69
366.871
377.364
383.952
386.455
384.763
378.898
368.93
354.912
337.082
315.708
291.121
263.706
233.896
202.149
168.934
134.727
99.9935
65.1755
30.6836
-3.11085
-35.8859
-67.3703
-97.3407
-125.622
-152.086
-176.648
-199.264
-219.922
-238.639
-255.456
-270.43
-283.626
-295.117
-304.982
-313.296
-320.136
-325.581
-329.705
-332.578
-334.255
-334.761
-334.123
-332.377
-329.504
-325.49
-320.313
-313.945
-306.35
-297.492
-287.328
-275.811
-262.895
-248.535
-232.693
-215.339
-196.449
-176.017
-154.049
-130.574
-105.641
-79.325
-51.7288
-22.9848
6.76182
37.2751
68.3092
99.5923
130.813
161.625
191.654
220.5
247.751
272.993
295.813
315.819
332.647
345.981
355.552
361.156
362.621
359.956
353.145
342.308
327.573
309.192
287.464
262.746
235.441
205.99
174.858
142.516
109.427
76.0335
42.7409
9.91311
-22.1204
-53.1099
-82.825
-111.086
-137.759
-162.747
-185.988
-207.444
-227.1
-244.963
-261.056
-275.413
-288.083
-299.116
-308.568
-316.498
-322.954
-328.001
-331.709
-334.092
-335.205
-335.177
-334.071
-331.839
-328.478
-323.96
-318.26
-311.322
-303.107
-293.539
-282.552
-270.082
-256.041
-240.337
-222.934
-203.753
-182.819
-160.138
-135.756
-109.794
-82.3894
-53.0895
-18.1167
16.0689
50.4132
84.7076
118.771
152.143
184.395
215.163
243.97
270.392
294.091
314.682
331.873
345.387
355.003
360.552
362.042
360.624
355.22
345.858
332.775
316.158
296.237
273.338
247.758
219.878
190.142
158.931
126.681
93.7884
60.6324
27.5977
-5.01829
-36.8386
-65.2962
-94.8749
-123.114
-149.835
-174.94
-198.355
-220.045
-239.989
-258.194
-274.685
-289.492
-302.657
-314.229
-324.255
-332.784
-339.857
-345.516
-349.796
-352.736
-354.359
-354.655
-353.441
-350.844
-346.865
-341.494
-334.676
-326.366
166.623
198.847
230.344
260.636
289.327
315.876
339.902
360.997
378.833
393.148
403.705
410.323
412.853
411.122
405.276
395.474
381.748
364.326
343.458
319.452
292.68
263.489
232.276
199.472
165.488
130.744
95.6064
60.4336
25.5847
-2.33681
-35.1535
-66.7225
-96.8058
-125.259
-151.986
-176.908
-199.988
-221.21
-240.569
-258.087
-273.795
-287.73
-299.938
-310.461
-319.346
-326.635
-332.369
-336.582
-339.305
-340.529
-340.26
-338.497
-335.287
-330.564
-324.323
-316.55
-307.195
-296.218
-283.587
-269.257
-253.185
-235.343
-215.695
-194.239
-171.004
-146.028
-119.388
-91.2122
-61.6551
-30.9433
0.666623
36.468
69.5691
102.942
136.266
169.148
201.224
232.114
261.447
288.857
313.992
336.509
356.092
372.453
385.331
394.513
399.847
401.234
398.59
392.015
381.601
367.429
349.72
328.717
304.698
277.974
248.885
217.797
185.092
151.166
116.427
81.2822
46.132
11.3577
-22.5784
-55.5337
-87.1255
-117.125
-145.354
-171.681
-196.019
-218.324
-238.583
-256.813
-273.051
-287.343
-299.748
-310.33
-319.149
-326.265
-331.733
-335.603
-337.941
-338.763
-338.107
-336.057
-332.631
-327.854
-321.753
-314.346
-305.641
-295.642
-284.342
-271.726
-257.77
-242.445
-225.72
-207.561
-187.94
-166.838
-144.252
-120.197
-94.7092
-67.8536
-39.721
-10.4391
19.8659
50.9226
82.5117
114.354
146.131
177.493
208.067
237.463
265.282
291.124
314.595
335.317
352.941
367.149
377.664
384.268
386.791
385.084
379.215
369.234
355.197
337.34
315.932
291.307
263.853
234.001
202.212
168.957
134.712
99.9442
65.0953
30.5768
-3.23974
-36.0325
-67.5304
-97.5102
-125.797
-152.264
-176.825
-199.438
-220.091
-238.802
-255.613
-270.579
-283.767
-295.251
-305.108
-313.415
-320.249
-325.687
-329.805
-332.674
-334.347
-334.848
-334.212
-332.467
-329.594
-325.582
-320.408
-314.043
-306.453
-297.599
-287.439
-275.927
-263.016
-248.66
-232.823
-215.473
-196.586
-176.156
-154.189
-130.713
-105.777
-79.4566
-51.8534
-23.0984
6.66018
37.1903
68.2444
99.551
130.798
161.641
191.702
220.584
247.872
273.151
296.008
316.048
332.907
346.267
355.858
361.475
362.958
360.27
353.455
342.602
327.844
309.433
287.67
262.914
235.567
206.074
174.902
142.522
109.398
75.973
42.6538
9.80387
-22.2481
-53.2514
-82.9768
-111.245
-137.921
-162.911
-186.152
-207.605
-227.257
-245.116
-261.203
-275.554
-288.218
-299.245
-308.691
-316.616
-323.065
-328.107
-331.806
-334.185
-335.295
-335.27
-334.159
-331.926
-328.567
-324.052
-318.356
-311.424
-303.215
-293.654
-282.676
-270.215
-256.183
-240.486
-223.09
-203.914
-182.981
-160.3
-135.917
-109.952
-82.5456
-53.2462
-18.2127
15.9852
50.3468
84.665
118.759
152.165
184.452
215.259
244.105
270.563
294.298
314.921
332.141
345.678
355.312
360.883
362.391
360.926
355.512
346.144
333.045
316.403
296.451
273.517
247.901
219.984
190.211
158.963
126.678
93.7555
60.5726
27.5163
-5.11628
-36.9409
-65.4563
-95.0313
-123.273
-149.996
-175.101
-198.514
-220.201
-240.142
-258.342
-274.828
-289.629
-302.789
-314.356
-324.377
-332.901
-339.969
-345.625
-349.903
-352.841
-354.463
-354.755
-353.544
-350.949
-346.971
-341.603
-334.788
-326.482
166.608
198.883
230.432
260.778
289.524
316.126
340.204
361.346
379.225
393.576
404.16
410.793
413.334
411.615
405.752
395.923
382.163
364.702
343.788
319.731
292.904
263.658
232.39
199.533
165.498
130.709
95.5325
60.3261
25.4409
-2.54304
-35.3891
-66.9683
-97.0576
-125.515
-152.242
-177.163
-200.24
-221.456
-240.809
-258.319
-274.019
-287.946
-300.146
-310.661
-319.539
-326.823
-332.552
-336.76
-339.478
-340.701
-340.432
-338.674
-335.463
-330.742
-324.506
-316.738
-307.39
-296.421
-283.798
-269.475
-253.411
-235.576
-215.932
-194.479
-171.245
-146.265
-119.618
-91.429
-61.8527
-31.1144
0.523672
36.3061
69.4469
102.864
136.233
169.162
201.285
232.225
261.608
289.067
314.251
336.816
356.442
372.842
385.752
394.959
400.309
401.708
399.055
392.467
382.03
367.829
350.084
329.038
304.972
278.197
249.056
217.914
185.156
151.178
116.389
81.1966
46.0038
11.1962
-22.787
-55.7639
-87.3755
-117.389
-145.626
-171.956
-196.293
-218.593
-238.846
-257.067
-273.294
-287.576
-299.972
-310.544
-319.354
-326.462
-331.922
-335.786
-338.117
-338.93
-338.274
-336.22
-332.79
-328.01
-321.908
-314.501
-305.797
-295.801
-284.504
-271.893
-257.943
-242.624
-225.906
-207.753
-188.137
-167.04
-144.457
-120.402
-94.9122
-68.0504
-39.9078
-10.6103
19.709
50.7924
82.4125
114.29
146.108
177.515
208.138
237.586
265.459
291.354
314.878
335.651
353.322
367.57
378.118
384.745
387.288
385.578
379.699
369.695
355.628
337.729
316.272
291.59
264.076
234.162
202.31
168.995
134.694
99.8732
64.9776
30.4192
-3.43059
-36.2497
-67.7681
-97.7619
-126.057
-152.527
-177.089
-199.697
-220.343
-239.045
-255.845
-270.8
-283.976
-295.449
-305.295
-313.591
-320.414
-325.843
-329.953
-332.815
-334.482
-334.979
-334.344
-332.599
-329.728
-325.719
-320.549
-314.188
-306.605
-297.757
-287.603
-276.099
-263.195
-248.846
-233.016
-215.671
-196.789
-176.362
-154.396
-130.92
-105.98
-79.652
-52.038
-23.2672
6.5095
37.0655
68.1496
99.4912
130.779
161.667
191.778
220.712
248.056
273.391
296.302
316.394
333.3
346.699
356.319
361.956
363.461
360.75
353.927
343.047
328.253
309.797
287.982
263.168
235.76
206.205
174.972
142.534
109.357
75.8848
42.5255
9.6425
-22.437
-53.4613
-83.2022
-111.481
-138.163
-163.156
-186.395
-207.845
-227.492
-245.344
-261.423
-275.765
-288.42
-299.437
-308.874
-316.791
-323.232
-328.265
-331.953
-334.322
-335.434
-335.407
-334.29
-332.058
-328.701
-324.19
-318.5
-311.576
-303.377
-293.828
-282.862
-270.414
-256.395
-240.709
-223.324
-204.155
-183.225
-160.544
-136.158
-110.189
-82.7802
-53.4816
-18.3563
15.8578
50.2465
84.6007
118.739
152.197
184.539
215.403
244.306
270.821
294.609
315.281
332.542
346.115
355.776
361.377
362.909
361.386
355.954
346.576
333.452
316.77
296.772
273.787
248.116
220.142
190.313
159.012
126.675
93.706
60.4825
27.3937
-5.26368
-37.0968
-65.6945
-95.2657
-123.51
-150.236
-175.342
-198.753
-220.436
-240.371
-258.564
-275.042
-289.835
-302.987
-314.545
-324.558
-333.075
-340.138
-345.789
-350.064
-353
-354.618
-354.906
-353.699
-351.105
-347.13
-341.766
-334.956
-326.656
166.589
198.93
230.55
260.968
289.787
316.46
340.606
361.813
379.749
394.147
404.767
411.421
413.971
412.274
406.389
396.521
382.718
365.203
344.228
320.102
293.204
263.883
232.541
199.613
165.511
130.662
95.4337
60.1835
25.2531
-2.8229
-35.7044
-67.2962
-97.3935
-125.855
-152.584
-177.504
-200.576
-221.785
-241.128
-258.628
-274.318
-288.234
-300.423
-310.928
-319.798
-327.073
-332.795
-336.998
-339.709
-340.928
-340.665
-338.909
-335.698
-330.98
-324.75
-316.989
-307.65
-296.69
-284.078
-269.766
-253.712
-235.886
-216.249
-194.8
-171.566
-146.582
-119.924
-91.7185
-62.1169
-31.3431
0.334112
36.0885
69.2836
102.761
136.19
169.18
201.367
232.373
261.821
289.347
314.597
337.225
356.91
373.361
386.315
395.554
400.925
402.33
399.681
393.074
382.604
368.364
350.57
329.467
305.338
278.496
249.284
218.071
185.242
151.194
116.338
81.0826
45.8327
10.9773
-23.0619
-56.0705
-87.7086
-117.741
-145.99
-172.323
-196.658
-218.953
-239.196
-257.405
-273.619
-287.887
-300.269
-310.828
-319.627
-326.723
-332.174
-336.03
-338.351
-339.155
-338.497
-336.437
-333.001
-328.219
-322.115
-314.707
-306.006
-296.012
-284.72
-272.115
-258.172
-242.862
-226.152
-208.008
-188.4
-167.31
-144.73
-120.676
-95.1822
-68.3127
-40.1571
-10.8397
19.5011
50.6193
82.2804
114.206
146.077
177.545
208.233
237.75
265.694
291.662
315.256
336.097
353.83
368.132
378.724
385.383
387.941
386.244
380.349
370.312
356.204
338.25
316.726
291.969
264.374
234.377
202.442
169.046
134.669
99.7786
64.821
30.209
-3.68491
-36.5394
-68.085
-98.0976
-126.404
-152.879
-177.439
-200.042
-220.679
-239.368
-256.154
-271.094
-284.255
-295.713
-305.544
-313.826
-320.635
-326.052
-330.149
-333.002
-334.66
-335.154
-334.519
-332.774
-329.906
-325.901
-320.737
-314.382
-306.806
-297.967
-287.823
-276.327
-263.433
-249.094
-233.273
-215.935
-197.06
-176.637
-154.673
-131.194
-106.249
-79.9125
-52.2838
-23.4925
6.30859
36.8992
68.0233
99.4116
130.753
161.701
191.879
220.884
248.302
273.711
296.696
316.857
333.826
347.277
356.937
362.598
364.119
361.402
354.559
343.642
328.801
310.285
288.399
263.507
236.017
206.38
175.065
142.55
109.302
75.7676
42.3547
9.42726
-22.6884
-53.7409
-83.5024
-111.795
-138.485
-163.481
-186.72
-208.165
-227.805
-245.648
-261.715
-276.046
-288.688
-299.694
-309.119
-317.024
-323.454
-328.476
-332.149
-334.506
-335.618
-335.588
-334.466
-332.233
-328.879
-324.374
-318.693
-311.78
-303.594
-294.06
-283.11
-270.679
-256.678
-241.008
-223.636
-204.477
-183.551
-160.869
-136.479
-110.506
-83.0936
-53.7961
-18.5475
15.6879
50.1121
84.5144
118.713
152.239
184.654
215.594
244.575
271.164
295.023
315.76
333.078
346.698
356.396
362.031
363.576
362.015
356.555
347.155
333.994
317.26
297.2
274.146
248.402
220.353
190.45
159.076
126.671
93.6395
60.3617
27.229
-5.46084
-37.3087
-66.0092
-95.5777
-123.827
-150.557
-175.663
-199.072
-220.75
-240.677
-258.86
-275.328
-290.11
-303.25
-314.798
-324.801
-333.308
-340.363
-346.007
-350.278
-353.209
-354.823
-355.112
-353.906
-351.314
-347.343
-341.984
-335.181
-326.888
166.564
198.988
230.696
261.205
290.115
316.878
341.109
362.396
380.403
394.861
405.528
412.21
414.771
413.088
407.185
397.27
383.411
365.829
344.778
320.566
293.578
264.164
232.73
199.713
165.527
130.602
95.3096
60.006
25.025
-3.18084
-36.1004
-67.7067
-97.8138
-126.282
-153.012
-177.93
-200.996
-222.196
-241.528
-259.015
-274.691
-288.593
-300.769
-311.263
-320.121
-327.386
-333.099
-337.295
-339.999
-341.215
-340.955
-339.201
-335.99
-331.278
-325.055
-317.303
-307.975
-297.027
-284.428
-270.13
-254.088
-236.273
-216.645
-195.201
-171.968
-146.978
-120.308
-92.0813
-62.4482
-31.6297
0.100037
35.8129
69.0789
102.631
136.136
169.202
201.469
232.558
262.088
289.697
315.029
337.737
357.494
374.01
387.018
396.299
401.696
403.107
400.462
393.835
383.323
369.033
351.178
330.004
305.795
278.868
249.569
218.267
185.349
151.214
116.274
80.9393
45.6175
10.7005
-23.4038
-56.4545
-88.1258
-118.182
-146.444
-172.782
-197.116
-219.403
-239.634
-257.829
-274.025
-288.276
-300.641
-311.184
-319.968
-327.051
-332.489
-336.335
-338.643
-339.438
-338.775
-336.707
-333.265
-328.479
-322.373
-314.966
-306.266
-296.275
-284.99
-272.392
-258.459
-243.16
-226.461
-208.328
-188.73
-167.646
-145.071
-121.018
-95.5202
-68.6412
-40.4696
-11.1287
19.242
50.4026
82.1147
114.099
146.039
177.582
208.352
237.955
265.988
292.046
315.729
336.655
354.466
368.836
379.483
386.181
388.757
387.074
381.165
371.086
356.926
338.902
317.294
292.443
264.747
234.646
202.607
169.109
134.637
99.6596
64.6244
29.9452
-4.00352
-36.9025
-68.4819
-98.5179
-126.839
-153.319
-177.879
-200.474
-221.099
-239.773
-256.542
-271.462
-284.604
-296.043
-305.856
-314.119
-320.911
-326.312
-330.395
-333.235
-334.883
-335.374
-334.738
-332.993
-330.128
-326.129
-320.971
-314.625
-307.058
-298.23
-288.097
-276.614
-263.732
-249.404
-233.594
-216.266
-197.399
-176.981
-155.019
-131.538
-106.587
-80.2386
-52.5915
-23.7753
6.05659
36.6908
67.8647
99.3114
130.72
161.744
192.004
221.099
248.609
274.112
297.188
317.436
334.483
348
357.71
363.403
364.937
362.222
355.351
344.388
329.486
310.895
288.922
263.932
236.339
206.598
175.181
142.569
109.232
75.6203
42.1405
9.15767
-23.0031
-54.0909
-83.8781
-112.188
-138.888
-163.888
-187.125
-208.565
-228.196
-246.027
-262.081
-276.397
-289.024
-300.014
-309.426
-317.316
-323.732
-328.74
-332.395
-334.739
-335.847
-335.811
-334.684
-332.452
-329.101
-324.604
-318.933
-312.034
-303.864
-294.349
-283.42
-271.011
-257.031
-241.382
-224.027
-204.88
-183.959
-161.275
-136.881
-110.901
-83.4855
-54.1913
-18.7855
15.4739
49.9427
84.4054
118.68
152.292
184.797
215.833
244.911
271.594
295.542
316.36
333.749
347.428
357.17
362.842
364.395
362.81
357.315
347.883
334.673
317.873
297.734
274.595
248.759
220.617
190.62
159.156
126.665
93.5555
60.2099
27.0214
-5.70846
-37.5791
-66.3985
-95.9668
-124.223
-150.958
-176.065
-199.471
-221.142
-241.06
-259.231
-275.685
-290.453
-303.579
-315.113
-325.103
-333.6
-340.644
-346.28
-350.544
-353.471
-355.079
-355.37
-354.164
-351.575
-347.608
-342.256
-335.461
-327.179
166.533
199.056
230.871
261.488
290.509
317.379
341.713
363.097
381.19
395.719
406.442
413.159
415.735
414.06
408.138
398.169
384.245
366.582
345.438
321.123
294.026
264.502
232.955
199.832
165.545
130.53
95.1598
59.794
24.7612
-3.62263
-36.5782
-68.1999
-98.3186
-126.794
-153.526
-178.441
-201.5
-222.689
-242.008
-259.48
-275.139
-289.025
-301.185
-311.663
-320.508
-327.762
-333.464
-337.651
-340.347
-341.559
-341.302
-339.55
-336.341
-331.634
-325.42
-317.679
-308.365
-297.431
-284.849
-270.566
-254.539
-236.738
-217.12
-195.683
-172.451
-147.454
-120.769
-92.5178
-62.8471
-31.975
-0.175167
35.4756
68.8324
102.475
136.07
169.229
201.591
232.778
262.408
290.117
315.547
338.35
358.196
374.789
387.863
397.194
402.622
404.044
401.399
394.748
384.187
369.837
351.908
330.648
306.344
279.315
249.911
218.502
185.476
151.237
116.195
80.766
45.3575
10.365
-23.8136
-56.9163
-88.6279
-118.712
-146.99
-173.335
-197.665
-219.943
-240.16
-258.337
-274.513
-288.743
-301.087
-311.611
-320.377
-327.444
-332.867
-336.7
-338.994
-339.779
-339.107
-337.031
-333.583
-328.792
-322.684
-315.276
-306.578
-296.592
-285.314
-272.725
-258.803
-243.517
-226.832
-208.712
-189.125
-168.051
-145.482
-121.429
-95.9267
-69.0365
-40.846
-11.4767
18.93
50.1416
81.9147
113.971
145.991
177.625
208.493
238.2
266.341
292.507
316.297
337.325
355.23
369.681
380.395
387.14
389.741
388.07
382.143
372.017
357.793
339.685
317.976
293.011
265.194
234.968
202.803
169.184
134.598
99.5155
64.387
29.6271
-4.38717
-37.3397
-68.9594
-99.0236
-127.361
-153.849
-178.406
-200.993
-221.603
-240.259
-257.007
-271.904
-285.024
-296.44
-306.23
-314.471
-321.243
-326.624
-330.69
-333.515
-335.152
-335.639
-335
-333.257
-330.396
-326.403
-321.253
-314.917
-307.361
-298.545
-288.427
-276.958
-264.09
-249.777
-233.98
-216.664
-197.806
-177.394
-155.435
-131.952
-106.993
-80.6307
-52.9619
-24.1161
5.75286
36.4399
67.6732
99.1899
130.679
161.794
192.154
221.355
248.977
274.593
297.779
318.132
335.272
348.869
358.639
364.371
365.92
363.206
356.303
345.285
330.31
311.628
289.548
264.441
236.726
206.859
175.32
142.591
109.148
75.4423
41.8823
8.83317
-23.3819
-54.5119
-84.3299
-112.66
-139.373
-164.377
-187.612
-209.046
-228.666
-246.483
-262.52
-276.819
-289.428
-300.399
-309.794
-317.667
-324.066
-329.057
-332.691
-335.021
-336.12
-336.077
-334.946
-332.715
-329.368
-324.88
-319.222
-312.34
-304.189
-294.696
-283.793
-271.41
-257.456
-241.831
-224.496
-205.364
-184.45
-161.763
-137.363
-111.375
-83.9557
-54.6687
-19.07
15.2176
49.7377
84.2732
118.638
152.354
184.969
216.12
245.315
272.11
296.165
317.08
334.555
348.304
358.1
363.811
365.373
363.767
358.233
348.759
335.49
318.609
298.377
275.134
249.188
220.933
190.824
159.25
126.657
93.4536
60.0262
26.7702
-6.0078
-37.9102
-66.8609
-96.4329
-124.699
-151.44
-176.548
-199.95
-221.613
-241.519
-259.676
-276.114
-290.865
-303.974
-315.492
-325.466
-333.949
-340.981
-346.607
-350.864
-353.784
-355.387
-355.678
-354.474
-351.888
-347.927
-342.583
-335.798
-327.527
166.496
199.136
231.075
261.819
290.968
317.963
342.418
363.915
382.107
396.722
407.51
414.27
416.864
415.193
409.247
399.218
385.218
367.46
346.209
321.772
294.549
264.895
233.218
199.97
165.565
130.443
94.9837
59.5472
24.4682
-4.1562
-37.1383
-68.776
-98.9081
-127.392
-154.127
-179.038
-202.089
-223.265
-242.568
-260.022
-275.662
-289.529
-301.67
-312.131
-320.96
-328.199
-333.89
-338.066
-340.754
-341.962
-341.705
-339.956
-336.749
-332.05
-325.846
-318.117
-308.821
-297.903
-285.339
-271.075
-255.066
-237.282
-217.675
-196.245
-173.015
-148.011
-121.308
-93.0285
-63.3146
-32.3794
-0.486423
35.0706
68.5439
102.293
135.993
169.259
201.733
233.034
262.78
290.607
316.152
339.066
359.015
375.699
388.85
398.24
403.705
405.14
402.492
395.812
385.196
370.776
352.76
331.399
306.984
279.837
250.309
218.774
185.624
151.262
116.103
80.5622
45.052
9.97046
-24.2922
-57.4567
-89.2155
-119.332
-147.63
-173.981
-198.308
-220.575
-240.774
-258.93
-275.083
-289.289
-301.609
-312.11
-320.855
-327.902
-333.309
-337.127
-339.404
-340.177
-339.495
-337.409
-333.953
-329.157
-323.046
-315.638
-306.943
-296.962
-285.692
-273.114
-259.206
-243.934
-227.265
-209.16
-189.588
-168.524
-145.961
-121.91
-96.4023
-69.4991
-41.2865
-11.8844
18.5645
49.8356
81.6796
113.819
145.934
177.674
208.656
238.485
266.752
293.045
316.96
338.107
356.121
370.668
381.46
388.261
390.892
389.233
383.285
373.106
358.806
340.6
318.773
293.675
265.716
235.343
203.031
169.27
134.55
99.3455
64.1082
29.2541
-4.83664
-37.8517
-69.5185
-99.6152
-127.972
-154.468
-179.023
-201.6
-222.193
-240.828
-257.55
-272.42
-285.513
-296.903
-306.667
-314.883
-321.63
-326.989
-331.035
-333.842
-335.466
-335.945
-335.306
-333.564
-330.708
-326.723
-321.582
-315.257
-307.714
-298.914
-288.812
-277.36
-264.509
-250.213
-234.431
-217.129
-198.282
-177.877
-155.921
-132.436
-107.469
-81.0892
-53.3956
-24.5156
5.39703
36.1458
67.4481
99.0465
130.63
161.851
192.327
221.654
249.405
275.153
298.469
318.943
336.195
349.883
359.725
365.503
367.07
364.354
357.414
346.332
331.273
312.484
290.28
265.036
237.176
207.163
175.48
142.615
109.048
75.2327
41.5794
8.45317
-23.8252
-55.0042
-84.8583
-113.212
-139.939
-164.948
-188.182
-209.607
-229.215
-247.016
-263.033
-277.311
-289.898
-300.848
-310.223
-318.075
-324.456
-329.427
-333.038
-335.35
-336.438
-336.387
-335.252
-333.02
-329.679
-325.201
-319.558
-312.695
-304.568
-295.101
-284.227
-271.875
-257.951
-242.355
-225.044
-205.93
-185.023
-162.333
-137.925
-111.927
-84.5039
-55.2305
-19.4
14.9192
49.4964
84.1169
118.588
152.425
185.168
216.454
245.785
272.712
296.892
317.921
335.496
349.327
359.186
364.939
366.513
364.885
359.311
349.785
336.444
319.469
299.126
275.763
249.688
221.301
191.061
159.36
126.647
93.3334
59.8098
26.4745
-6.3606
-38.3032
-67.3953
-96.9758
-125.254
-152.002
-177.112
-200.509
-222.163
-242.055
-260.195
-276.614
-291.346
-304.435
-315.934
-325.89
-334.356
-341.374
-346.988
-351.236
-354.149
-355.747
-356.036
-354.835
-352.253
-348.299
-342.963
-336.19
-327.934
166.452
199.225
231.307
262.197
291.493
318.632
343.223
364.85
383.157
397.868
408.732
415.541
418.159
416.488
410.513
400.418
386.332
368.466
347.089
322.515
295.147
265.344
233.516
200.125
165.585
130.342
94.7804
59.2651
24.1553
-4.79225
-37.7814
-69.4352
-99.5827
-128.076
-154.814
-179.721
-202.762
-223.923
-243.208
-260.641
-276.26
-290.104
-302.224
-312.665
-321.476
-328.699
-334.376
-338.541
-341.219
-342.423
-342.166
-340.42
-337.216
-332.525
-326.333
-318.618
-309.341
-298.442
-285.9
-271.657
-255.669
-237.903
-218.31
-196.89
-173.661
-148.648
-121.926
-93.6143
-63.8517
-32.8441
-0.825806
34.589
68.2136
102.084
135.903
169.293
201.894
233.326
263.206
291.167
316.844
339.884
359.951
376.74
389.979
399.436
404.944
406.396
403.742
397.028
386.351
371.85
353.735
332.258
307.715
280.432
250.763
219.085
185.792
151.29
115.995
80.3271
44.7004
9.51611
-24.8406
-58.0765
-89.8895
-120.043
-148.362
-174.72
-199.044
-221.297
-241.477
-259.609
-275.735
-289.912
-302.205
-312.68
-321.401
-328.427
-333.814
-337.614
-339.874
-340.632
-339.939
-337.841
-334.377
-329.575
-323.461
-316.052
-307.359
-297.385
-286.124
-273.559
-259.665
-244.411
-227.76
-209.673
-190.117
-169.065
-146.511
-122.461
-96.9474
-70.0296
-41.7915
-12.3525
18.1447
49.484
81.4089
113.643
145.868
177.728
208.842
238.81
267.22
293.659
317.717
339.001
357.141
371.798
382.679
389.545
392.212
390.564
384.591
374.352
359.965
341.646
319.684
294.435
266.312
235.771
203.29
169.367
134.494
99.1489
63.7869
28.8251
-5.35262
-38.4393
-70.1597
-100.293
-128.673
-155.177
-179.73
-202.294
-222.868
-241.478
-258.171
-273.011
-286.073
-297.432
-307.167
-315.354
-322.073
-327.406
-331.428
-334.215
-335.825
-336.296
-335.655
-333.915
-331.064
-327.088
-321.959
-315.647
-308.119
-299.335
-289.252
-277.82
-264.988
-250.711
-234.947
-217.661
-198.827
-178.431
-156.478
-132.991
-108.013
-81.615
-53.8931
-24.9746
4.98851
35.8082
67.1888
98.8804
130.572
161.914
192.524
221.993
249.894
275.793
299.257
319.872
337.25
351.045
360.968
366.799
368.389
365.668
358.686
347.532
332.375
313.464
291.117
265.716
237.691
207.51
175.662
142.641
108.932
74.991
41.2311
8.01697
-24.3337
-55.5686
-85.4635
-113.845
-140.587
-165.601
-188.833
-210.25
-229.843
-247.625
-263.619
-277.873
-290.436
-301.36
-310.713
-318.543
-324.902
-329.85
-333.437
-335.727
-336.8
-336.739
-335.599
-333.369
-330.035
-325.568
-319.942
-313.102
-305
-295.563
-284.723
-272.407
-258.518
-242.956
-225.67
-206.577
-185.68
-162.987
-138.568
-112.558
-85.1298
-55.8788
-19.7741
14.5712
49.2169
83.9355
118.529
152.504
185.394
216.834
246.322
273.4
297.723
318.884
336.572
350.498
360.428
366.228
367.813
366.166
360.548
350.96
337.536
320.452
299.983
276.482
250.26
221.72
191.33
159.484
126.634
93.1941
59.56
26.1334
-6.76974
-38.7578
-68.0016
-97.5956
-125.888
-152.646
-177.758
-201.149
-222.792
-242.668
-260.789
-277.186
-291.895
-304.962
-316.438
-326.374
-334.822
-341.824
-347.424
-351.66
-354.565
-356.159
-356.445
-355.247
-352.67
-348.723
-343.399
-336.639
-328.398
166.401
199.323
231.566
262.62
292.083
319.383
344.13
365.902
384.34
399.16
410.11
416.976
419.618
417.947
411.938
401.769
387.586
369.598
348.081
323.351
295.818
265.848
233.851
200.298
165.605
130.226
94.5485
58.9461
23.8305
-5.54056
-38.5071
-70.1776
-100.343
-128.847
-155.588
-180.491
-203.52
-224.665
-243.929
-261.338
-276.932
-290.752
-302.848
-313.266
-322.056
-329.262
-334.923
-339.076
-341.744
-342.942
-342.684
-340.94
-337.74
-333.059
-326.881
-319.182
-309.926
-299.048
-286.531
-272.312
-256.347
-238.602
-219.026
-197.615
-174.389
-149.367
-122.623
-94.276
-64.4594
-33.3709
-1.2137
34.0503
67.8422
101.848
135.802
169.329
202.074
233.653
263.683
291.796
317.622
340.804
361.005
377.912
391.251
400.784
406.341
407.812
405.151
398.398
387.653
373.06
354.832
333.225
308.538
281.101
251.273
219.434
185.979
151.319
115.872
80.0601
44.3019
9.00125
-25.4599
-58.7767
-90.6506
-120.846
-149.188
-175.555
-199.874
-222.112
-242.27
-260.374
-276.469
-290.615
-302.876
-313.321
-322.016
-329.017
-334.383
-338.163
-340.403
-341.145
-340.438
-338.328
-334.854
-330.045
-323.927
-316.518
-307.829
-297.861
-286.61
-274.059
-260.183
-244.948
-228.318
-210.251
-190.713
-169.676
-147.13
-123.083
-97.5625
-70.6282
-42.3621
-12.8817
17.6696
49.086
81.1019
113.444
145.79
177.787
209.049
239.174
267.747
294.349
318.569
340.007
358.289
373.071
384.054
390.993
393.701
392.063
386.063
375.758
361.273
342.826
320.711
295.289
266.982
236.251
203.581
169.474
134.428
98.9248
63.4223
28.3394
-5.93622
-39.1036
-70.8839
-101.059
-129.463
-155.977
-180.527
-203.077
-223.629
-242.21
-258.871
-273.677
-286.704
-298.029
-307.73
-315.884
-322.572
-327.875
-331.871
-334.635
-336.229
-336.691
-336.047
-334.31
-331.466
-327.5
-322.382
-316.085
-308.574
-299.81
-289.748
-278.337
-265.528
-251.272
-235.529
-218.26
-199.441
-179.055
-157.106
-133.616
-108.627
-82.2086
-54.455
-25.493
4.52565
35.4264
66.8945
98.6908
130.504
161.983
192.743
222.373
250.443
276.512
300.144
320.918
338.439
352.354
362.37
368.261