/*--------------------------------*- C++ -*----------------------------------*\
| =========                 |                                                 |
| \\      /  F ield         | OpenFOAM: The Open Source CFD Toolbox           |
|  \\    /   O peration     | Version:  3.0.1                                 |
|   \\  /    A nd           | Web:      www.OpenFOAM.org                      |
|    \\/     M anipulation  |                                                 |
\*---------------------------------------------------------------------------*/
FoamFile
{
    version     2.0;
    format      ascii;
    class       surfaceScalarField;
    location    "20.8";
    object      phi;
}
// * * * * * * * * * * * * * * * * * * * * * * * * * * * * * * * * * * * * * //

dimensions      [0 3 -1 0 0 0 0];

internalField   nonuniform List<scalar> 
44922
(
-0.000290981
6.89694e-06
-0.000299272
8.2912e-06
-0.000308932
9.65918e-06
-0.00031948
1.05479e-05
-0.000331041
1.15615e-05
-0.000343135
1.2094e-05
-0.000355919
1.27833e-05
-0.000368947
1.30281e-05
-0.000382399
1.34525e-05
-0.000395884
1.34848e-05
-0.000409588
1.37036e-05
-0.000423167
1.35786e-05
-0.000436801
1.36347e-05
-0.000450183
1.33814e-05
-0.000463522
1.33393e-05
-0.000476636
1.31142e-05
-0.000489303
1.26663e-05
-0.000501645
1.23426e-05
-0.000513409
1.17637e-05
-0.00052469
1.12811e-05
-0.00053526
1.05698e-05
-0.000545182
9.92202e-06
-0.000554271
9.08881e-06
-0.000562564
8.29279e-06
-0.000569929
7.36537e-06
-0.000576413
6.48422e-06
-0.000581969
5.55581e-06
-0.000586646
4.67716e-06
-0.000590248
3.60207e-06
-0.000592148
1.9001e-06
-0.000592212
6.35592e-08
-0.000590333
-1.87876e-06
-0.000587539
-2.79359e-06
-0.000583792
-3.74742e-06
-0.000578779
-5.01331e-06
-0.000572427
-6.35141e-06
-0.000564754
-7.67296e-06
-0.000555737
-9.01697e-06
-0.000545463
-1.0274e-05
-0.000533885
-1.15784e-05
-0.000521163
-1.27219e-05
-0.000507204
-1.39586e-05
-0.000492255
-1.49494e-05
-0.000476165
-1.60892e-05
-0.000459274
-1.68917e-05
-0.000441376
-1.78976e-05
-0.000422902
-1.84739e-05
-0.000403611
-1.92906e-05
-0.000384018
-1.95927e-05
-0.000363891
-2.0127e-05
-0.000343879
-2.00124e-05
-0.000323922
-1.99573e-05
-0.000304016
-1.9905e-05
-0.000284676
-1.93401e-05
-0.000265837
-1.88398e-05
-0.000247938
-1.78986e-05
-0.000231029
-1.69085e-05
-0.000215441
-1.55885e-05
-0.000201401
-1.40399e-05
-0.000189119
-1.22815e-05
-0.000178517
-1.06018e-05
-0.000169651
-8.86648e-06
-0.000162543
-7.10764e-06
-0.00015725
-5.29285e-06
-0.000153701
-3.54883e-06
-0.0001518
-1.90147e-06
-0.000151418
-3.81677e-07
-0.000153539
2.12052e-06
-0.000157872
4.33372e-06
-0.000164624
6.75159e-06
-0.000173664
9.04046e-06
-0.00018504
1.13756e-05
-0.000199054
1.40141e-05
-0.000215474
1.642e-05
-0.000234661
1.91871e-05
-0.000255857
2.11959e-05
-0.000279207
2.335e-05
-0.000303523
2.43163e-05
-0.000328859
2.53354e-05
-0.000354058
2.51991e-05
-0.00037874
2.46824e-05
-0.000401966
2.32254e-05
-0.000423494
2.15288e-05
-0.000442833
1.9339e-05
-0.000459814
1.69808e-05
-0.000474188
1.43738e-05
-0.000485947
1.17594e-05
-0.000495307
9.35958e-06
-0.000502633
7.32579e-06
-0.000508275
5.64191e-06
-0.000512468
4.19325e-06
-0.000515346
2.8778e-06
-0.00051722
1.87468e-06
-0.000518024
8.03897e-07
-0.000517661
-3.63205e-07
-0.00051603
-1.63064e-06
-0.000513386
-2.6441e-06
-0.000509667
-3.71899e-06
-0.000505091
-4.57639e-06
-0.000499428
-5.66291e-06
-0.000493005
-6.42243e-06
-0.000485705
-7.30089e-06
-0.000477607
-8.0976e-06
-0.000469036
-8.57044e-06
-0.000459784
-9.25248e-06
-0.000450366
-9.41743e-06
-0.000440568
-9.79836e-06
-0.000430857
-9.7109e-06
-0.000421092
-9.76463e-06
-0.000411659
-9.43296e-06
-0.000402357
-9.30184e-06
-0.000393585
-8.77191e-06
-0.000385079
-8.5064e-06
-0.000377085
-7.994e-06
-0.000369337
-7.74743e-06
-0.000362026
-7.31152e-06
-0.00035491
-7.11551e-06
-0.000348205
-6.70478e-06
-0.000341609
-6.5963e-06
-0.000335363
-6.24579e-06
-0.000329016
-6.34724e-06
-0.000322853
-6.1622e-06
-0.000316564
-6.28966e-06
-0.000310435
-6.12842e-06
-0.000304105
-6.33025e-06
-0.000297702
-6.40229e-06
-0.000291046
-6.65619e-06
-0.000284197
-6.84858e-06
-0.000277057
-7.14016e-06
-0.000269456
-7.60068e-06
-0.000261434
-8.02194e-06
-0.000252836
-8.59852e-06
-0.000243635
-9.20063e-06
-0.000233604
-1.00311e-05
-0.000222868
-1.07352e-05
-0.000211136
-1.17324e-05
-0.000198514
-1.26212e-05
-0.000184794
-1.37205e-05
-0.000170123
-1.46702e-05
-0.000154332
-1.57911e-05
-0.000137585
-1.67473e-05
-0.000119907
-1.76773e-05
-0.000101426
-1.84808e-05
-8.23396e-05
-1.90864e-05
-6.27686e-05
-1.95708e-05
-4.30229e-05
-1.97456e-05
-2.3291e-05
-1.97317e-05
-3.8942e-06
-1.93967e-05
1.4968e-05
-1.8862e-05
3.29762e-05
-1.80081e-05
4.98974e-05
-1.69211e-05
6.54861e-05
-1.55885e-05
7.95238e-05
-1.40375e-05
9.18365e-05
-1.23126e-05
0.000102305
-1.04682e-05
0.000110834
-8.52916e-06
0.000117392
-6.55757e-06
0.000121955
-4.56263e-06
0.000124552
-2.59747e-06
0.000125224
-6.71979e-07
0.000124107
1.11673e-06
0.000121239
2.8682e-06
0.000116768
4.47136e-06
0.000110863
5.90483e-06
0.000103651
7.21192e-06
9.53108e-05
8.34061e-06
8.59647e-05
9.34614e-06
7.57634e-05
1.02014e-05
6.48297e-05
1.09337e-05
5.32902e-05
1.15396e-05
4.12489e-05
1.20413e-05
2.87486e-05
1.25003e-05
1.59191e-05
1.28295e-05
2.87588e-06
1.30432e-05
-1.02837e-05
1.31596e-05
-2.34572e-05
1.31735e-05
-3.66142e-05
1.3157e-05
-4.97632e-05
1.3149e-05
-6.28441e-05
1.30809e-05
-7.58188e-05
1.29747e-05
-8.85555e-05
1.27367e-05
-0.000101119
1.25637e-05
-0.000113493
1.23739e-05
-0.000125604
1.21113e-05
-0.000137351
1.17464e-05
-0.000148881
1.15301e-05
-0.000159955
1.10742e-05
-0.000170699
1.07438e-05
-0.000180905
1.02056e-05
-0.000190692
9.78699e-06
-0.000199914
9.22246e-06
-0.000208603
8.6886e-06
-0.000216723
8.12032e-06
-0.000224168
7.44443e-06
-0.000231072
6.90474e-06
-0.00023719
6.11733e-06
-0.000242792
5.60192e-06
-0.000247656
4.86382e-06
-0.000251862
4.20689e-06
-0.000255315
3.45285e-06
-0.000257986
2.67072e-06
-0.000259954
1.9679e-06
-0.000261239
1.28458e-06
-0.000261743
5.04754e-07
-0.000261584
-1.59467e-07
-0.000260673
-9.11192e-07
-0.000258938
-1.73458e-06
-0.000256535
-2.40362e-06
-0.00025315
-3.38439e-06
-0.000249067
-4.08283e-06
-0.000244064
-5.00311e-06
-0.000238316
-5.74835e-06
-0.000231397
-6.91906e-06
-0.000223637
-7.75945e-06
-0.000214717
-8.91986e-06
-0.000204934
-9.78296e-06
-0.000193907
-1.10271e-05
-0.000181864
-1.20436e-05
-0.000168223
-1.36407e-05
-0.000153807
-1.4416e-05
-0.000140014
-1.37928e-05
-0.000127952
-1.20619e-05
-0.000117019
-1.09325e-05
-0.000109214
-7.80575e-06
-2.18267e-05
-8.73868e-05
-0.000290917
1.3819e-05
-0.000299193
1.65666e-05
-0.000308849
1.93153e-05
-0.000319404
2.11024e-05
-0.000330974
2.31322e-05
-0.000343077
2.4197e-05
-0.000355869
2.55748e-05
-0.000368904
2.60634e-05
-0.000382363
2.6911e-05
-0.000395853
2.69746e-05
-0.000409561
2.74113e-05
-0.000423142
2.71601e-05
-0.000436778
2.72707e-05
-0.00045016
2.6763e-05
-0.0004635
2.66788e-05
-0.000476615
2.62296e-05
-0.000489282
2.53336e-05
-0.000501626
2.46863e-05
-0.000513391
2.3528e-05
-0.000524672
2.25618e-05
-0.000535242
2.11399e-05
-0.000545165
1.98454e-05
-0.000554246
1.81692e-05
-0.000562526
1.65733e-05
-0.000569872
1.47117e-05
-0.000576319
1.2931e-05
-0.000581797
1.10333e-05
-0.000586348
9.22863e-06
-0.000589818
7.07222e-06
-0.000591673
3.75436e-06
-0.000591782
1.72872e-07
-0.000590163
-3.49771e-06
-0.000587555
-5.40152e-06
-0.000583838
-7.46366e-06
-0.000578831
-1.00202e-05
-0.000572482
-1.27012e-05
-0.000564809
-1.53457e-05
-0.000555791
-1.80344e-05
-0.000545516
-2.0549e-05
-0.000533936
-2.31584e-05
-0.000521212
-2.54458e-05
-0.00050725
-2.79198e-05
-0.000492298
-2.99018e-05
-0.000476205
-3.21821e-05
-0.000459309
-3.37877e-05
-0.000441406
-3.58004e-05
-0.000422926
-3.69536e-05
-0.000403628
-3.8588e-05
-0.000384028
-3.9193e-05
-0.000363892
-4.02628e-05
-0.00034387
-4.00339e-05
-0.000323903
-3.99243e-05
-0.000303988
-3.98203e-05
-0.000284637
-3.86904e-05
-0.000265787
-3.76898e-05
-0.000247879
-3.58068e-05
-0.000230961
-3.38259e-05
-0.000215364
-3.11853e-05
-0.000201316
-2.80885e-05
-0.000189027
-2.45697e-05
-0.00017842
-2.12086e-05
-0.000169548
-1.77391e-05
-0.000162431
-1.42245e-05
-0.000157119
-1.06044e-05
-0.00015356
-7.10843e-06
-0.000151675
-3.78589e-06
-0.000151308
-7.49012e-07
-0.000153421
4.23364e-06
-0.000157752
8.66468e-06
-0.000164497
1.34974e-05
-0.00017353
1.80733e-05
-0.000184898
2.2743e-05
-0.000198905
2.80219e-05
-0.000215327
3.28419e-05
-0.000234528
3.83876e-05
-0.000255748
4.2416e-05
-0.000279132
4.67339e-05
-0.000303485
4.867e-05
-0.000328853
5.07033e-05
-0.000354084
5.04304e-05
-0.000378796
4.93944e-05
-0.000402041
4.64696e-05
-0.000423572
4.30606e-05
-0.000442915
3.8682e-05
-0.000459902
3.39679e-05
-0.000474298
2.87688e-05
-0.000486081
2.35428e-05
-0.000495441
1.87196e-05
-0.000502758
1.46432e-05
-0.000508461
1.13444e-05
-0.000512775
8.50762e-06
-0.000515686
5.78804e-06
-0.000517496
3.68519e-06
-0.000518197
1.50464e-06
-0.000517789
-7.70851e-07
-0.000516146
-3.2733e-06
-0.000513498
-5.29243e-06
-0.000509777
-7.43997e-06
-0.000505197
-9.15624e-06
-0.000499531
-1.13289e-05
-0.000493104
-1.28496e-05
-0.000485797
-1.46072e-05
-0.000477691
-1.62044e-05
-0.000469111
-1.71498e-05
-0.000459846
-1.8517e-05
-0.000450416
-1.88479e-05
-0.000440605
-1.96088e-05
-0.000430883
-1.94332e-05
-0.000421116
-1.95313e-05
-0.000411676
-1.88728e-05
-0.000402374
-1.8604e-05
-0.000393595
-1.75502e-05
-0.000385084
-1.70178e-05
-0.000377087
-1.59901e-05
-0.000369335
-1.55001e-05
-0.000362028
-1.46176e-05
-0.000354917
-1.42269e-05
-0.000348215
-1.34066e-05
-0.000341618
-1.31926e-05
-0.000335375
-1.24894e-05
-0.000329024
-1.26978e-05
-0.000322869
-1.23173e-05
-0.000316581
-1.25768e-05
-0.000310453
-1.22568e-05
-0.000304123
-1.266e-05
-0.000297725
-1.27998e-05
-0.000291072
-1.33087e-05
-0.000284229
-1.36911e-05
-0.000277089
-1.42806e-05
-0.000269498
-1.51914e-05
-0.000261476
-1.60439e-05
-0.000252887
-1.71869e-05
-0.000243682
-1.84057e-05
-0.000233655
-2.0057e-05
-0.000222933
-2.14578e-05
-0.000211195
-2.34693e-05
-0.000198587
-2.52291e-05
-0.000184856
-2.74517e-05
-0.000170191
-2.93348e-05
-0.000154391
-3.15906e-05
-0.000137641
-3.34967e-05
-0.000119952
-3.53661e-05
-0.000101465
-3.69677e-05
-8.23638e-05
-3.8187e-05
-6.27801e-05
-3.91541e-05
-4.30187e-05
-3.95068e-05
-2.32722e-05
-3.94779e-05
-3.85969e-06
-3.88089e-05
1.50187e-05
-3.77402e-05
3.30388e-05
-3.60279e-05
4.99772e-05
-3.38593e-05
6.55748e-05
-3.11859e-05
7.96226e-05
-2.80851e-05
9.19438e-05
-2.46336e-05
0.000102421
-2.09448e-05
0.000110956
-1.70643e-05
0.000117515
-1.31164e-05
0.000122073
-9.1202e-06
0.000124666
-5.1903e-06
0.00012534
-1.34592e-06
0.000124204
2.25237e-06
0.000121324
5.74809e-06
0.000116846
8.94972e-06
0.000110933
1.18183e-05
0.00010371
1.44349e-05
9.53581e-05
1.66925e-05
8.60055e-05
1.86988e-05
7.57918e-05
2.04151e-05
6.48491e-05
2.18764e-05
5.3303e-05
2.30857e-05
4.12545e-05
2.409e-05
2.87464e-05
2.50084e-05
1.59062e-05
2.56698e-05
2.85375e-06
2.60957e-05
-1.03107e-05
2.63241e-05
-2.34847e-05
2.63475e-05
-3.66434e-05
2.63157e-05
-4.97939e-05
2.62995e-05
-6.28789e-05
2.61659e-05
-7.58582e-05
2.5954e-05
-8.85915e-05
2.54701e-05
-0.000101157
2.51288e-05
-0.000113532
2.47492e-05
-0.000125644
2.42232e-05
-0.000137391
2.34932e-05
-0.000148922
2.30609e-05
-0.000159994
2.21462e-05
-0.000170735
2.14856e-05
-0.000180943
2.04134e-05
-0.000190737
1.95809e-05
-0.000199966
1.84507e-05
-0.000208658
1.7381e-05
-0.000216782
1.62438e-05
-0.000224221
1.48843e-05
-0.000231134
1.38168e-05
-0.000237247
1.22306e-05
-0.000242849
1.12035e-05
-0.000247716
9.73094e-06
-0.000251925
8.41587e-06
-0.000255375
6.9029e-06
-0.000258044
5.34013e-06
-0.000260014
3.9378e-06
-0.000261307
2.57736e-06
-0.000261801
9.98555e-07
-0.000261637
-3.23528e-07
-0.000260724
-1.82412e-06
-0.000258986
-3.47283e-06
-0.000256586
-4.80314e-06
-0.000253196
-6.77497e-06
-0.000249116
-8.16291e-06
-0.000244113
-1.00057e-05
-0.000238369
-1.14918e-05
-0.000231444
-1.38447e-05
-0.00022369
-1.55135e-05
-0.000214768
-1.78418e-05
-0.000204988
-1.9562e-05
-0.000193925
-2.20901e-05
-0.000181931
-2.40375e-05
-0.000168628
-2.69442e-05
-0.000154199
-2.88449e-05
-0.000138709
-2.92821e-05
-0.000122859
-2.79116e-05
-0.000106416
-2.7376e-05
-9.10803e-05
-2.31409e-05
-4.6339e-05
-6.65678e-05
-0.00029074
2.07423e-05
-0.000299042
2.4869e-05
-0.00030872
2.89932e-05
-0.000319294
3.16763e-05
-0.000330884
3.4722e-05
-0.000343005
3.63174e-05
-0.000355812
3.83822e-05
-0.000368861
3.91122e-05
-0.000382331
4.03811e-05
-0.000395831
4.04738e-05
-0.000409546
4.11263e-05
-0.000423132
4.07463e-05
-0.00043677
4.09081e-05
-0.000450149
4.01422e-05
-0.000463482
4.0012e-05
-0.000476593
3.93407e-05
-0.000489261
3.80012e-05
-0.000501608
3.70335e-05
-0.000513377
3.52965e-05
-0.000524659
3.38438e-05
-0.000535223
3.17042e-05
-0.000545131
2.97535e-05
-0.000554188
2.72258e-05
-0.000562428
2.48131e-05
-0.000569694
2.19782e-05
-0.000576001
1.92377e-05
-0.000581241
1.62729e-05
-0.000585433
1.34209e-05
-0.000588476
1.01152e-05
-0.000590209
5.48744e-06
-0.000590695
6.58525e-07
-0.000589869
-4.32366e-06
-0.000587633
-7.63714e-06
-0.000583965
-1.1131e-05
-0.000578968
-1.50172e-05
-0.000572621
-1.90489e-05
-0.000564947
-2.30189e-05
-0.000555928
-2.7054e-05
-0.000545649
-3.08273e-05
-0.000534065
-3.47427e-05
-0.000521335
-3.8175e-05
-0.000507368
-4.18875e-05
-0.000492408
-4.48615e-05
-0.000476306
-4.82838e-05
-0.0004594
-5.06935e-05
-0.000441485
-5.37147e-05
-0.000422993
-5.5446e-05
-0.00040368
-5.79004e-05
-0.000384063
-5.88097e-05
-0.000363909
-6.04173e-05
-0.000343867
-6.0075e-05
-0.00032388
-5.99117e-05
-0.000303943
-5.97576e-05
-0.000284571
-5.80621e-05
-0.000265699
-5.65612e-05
-0.000247771
-5.37348e-05
-0.000230835
-5.07616e-05
-0.000215222
-4.67987e-05
-0.000201156
-4.21544e-05
-0.000188855
-3.68707e-05
-0.000178238
-3.18249e-05
-0.000169353
-2.6624e-05
-0.000162214
-2.13639e-05
-0.000156858
-1.59604e-05
-0.000153236
-1.073e-05
-0.000151348
-5.67456e-06
-0.000151053
-1.04356e-06
-0.000153207
6.388e-06
-0.000157537
1.29946e-05
-0.000164276
2.02361e-05
-0.000173299
2.70971e-05
-0.000184658
3.41016e-05
-0.000198662
4.20255e-05
-0.00021509
4.92706e-05
-0.000234314
5.76116e-05
-0.000255575
6.36773e-05
-0.000279019
7.0177e-05
-0.000303442
7.30932e-05
-0.000328878
7.61399e-05
-0.000354183
7.57351e-05
-0.00037895
7.41611e-05
-0.000402217
6.97375e-05
-0.000423741
6.45843e-05
-0.000443033
5.79738e-05
-0.000459962
5.08973e-05
-0.000474369
4.31754e-05
-0.000486204
3.53777e-05
-0.000495595
2.8111e-05
-0.000502948
2.19962e-05
-0.000508782
1.71784e-05
-0.000513287
1.30125e-05
-0.000516323
8.82398e-06
-0.000518062
5.42384e-06
-0.000518509
1.95152e-06
-0.000517958
-1.32105e-06
-0.000516295
-4.93617e-06
-0.000513639
-7.94858e-06
-0.000509915
-1.1164e-05
-0.00050533
-1.3741e-05
-0.000499659
-1.69998e-05
-0.000493226
-1.92834e-05
-0.000485912
-2.19206e-05
-0.000477788
-2.43281e-05
-0.000469195
-2.57436e-05
-0.000459912
-2.77995e-05
-0.000450458
-2.83016e-05
-0.000440629
-2.94377e-05
-0.000430889
-2.91732e-05
-0.000421114
-2.93068e-05
-0.000411663
-2.83237e-05
-0.000402358
-2.79081e-05
-0.000393572
-2.63364e-05
-0.000385055
-2.55347e-05
-0.000377057
-2.39884e-05
-0.000369293
-2.3263e-05
-0.000362004
-2.19074e-05
-0.000354904
-2.13264e-05
-0.000348212
-2.00979e-05
-0.000341618
-1.97868e-05
-0.000335378
-1.87294e-05
-0.000329023
-1.90522e-05
-0.000322881
-1.84596e-05
-0.0003166
-1.8857e-05
-0.000310471
-1.83866e-05
-0.000304139
-1.89913e-05
-0.000297756
-1.91828e-05
-0.00029111
-1.99541e-05
-0.000284276
-2.05255e-05
-0.000277134
-2.14217e-05
-0.000269567
-2.27585e-05
-0.000261544
-2.40662e-05
-0.000252963
-2.57686e-05
-0.00024377
-2.75977e-05
-0.000233753
-3.00734e-05
-0.000223039
-3.21716e-05
-0.000211315
-3.5193e-05
-0.000198728
-3.78159e-05
-0.000184987
-4.11926e-05
-0.000170328
-4.3994e-05
-0.000154509
-4.74086e-05
-0.000137759
-5.02465e-05
-0.000120051
-5.30739e-05
-0.000101548
-5.54706e-05
-8.24208e-05
-5.73138e-05
-6.28135e-05
-5.87612e-05
-4.3039e-05
-5.9281e-05
-2.32485e-05
-5.92682e-05
-3.80636e-06
-5.82508e-05
1.51034e-05
-5.66497e-05
3.31416e-05
-5.40659e-05
5.01081e-05
-5.08256e-05
6.57183e-05
-4.67959e-05
7.97919e-05
-4.21585e-05
9.21349e-05
-3.69764e-05
0.000102627
-3.1437e-05
0.000111171
-2.56079e-05
0.000117737
-1.96818e-05
0.000122294
-1.36772e-05
0.000124882
-7.7783e-06
0.00012555
-2.01412e-06
0.000124383
3.42025e-06
0.000121487
8.64395e-06
0.000116995
1.34411e-05
0.000111066
1.77482e-05
0.000103828
2.16728e-05
9.54596e-05
2.50608e-05
8.60919e-05
2.80666e-05
7.58569e-05
3.06502e-05
6.49013e-05
3.2832e-05
5.33453e-05
3.46418e-05
4.12853e-05
3.615e-05
2.87678e-05
3.75259e-05
1.59097e-05
3.85279e-05
2.83891e-06
3.91665e-05
-1.03354e-05
3.94984e-05
-2.35142e-05
3.95263e-05
-3.66759e-05
3.94773e-05
-4.98188e-05
3.94424e-05
-6.29157e-05
3.92628e-05
-7.59013e-05
3.89395e-05
-8.86263e-05
3.81951e-05
-0.00010119
3.76923e-05
-0.00011357
3.7129e-05
-0.000125682
3.63358e-05
-0.000137425
3.52355e-05
-0.00014896
3.45965e-05
-0.000160038
3.32238e-05
-0.000170782
3.22296e-05
-0.000180992
3.06238e-05
-0.000190796
2.9385e-05
-0.000200033
2.76871e-05
-0.00020873
2.60784e-05
-0.000216865
2.43788e-05
-0.000224301
2.23199e-05
-0.000231223
2.07385e-05
-0.000237326
1.83339e-05
-0.000242933
1.68102e-05
-0.000247802
1.46005e-05
-0.000252027
1.26401e-05
-0.000255476
1.03525e-05
-0.000258138
8.00175e-06
-0.000260114
5.91352e-06
-0.000261427
3.89095e-06
-0.000261896
1.46752e-06
-0.00026173
-4.89762e-07
-0.000260813
-2.74143e-06
-0.000259063
-5.22244e-06
-0.000256679
-7.18732e-06
-0.000253295
-1.01589e-05
-0.000249239
-1.22189e-05
-0.000244201
-1.50443e-05
-0.000238459
-1.72338e-05
-0.000231532
-2.07708e-05
-0.0002238
-2.32454e-05
-0.000214876
-2.67663e-05
-0.000205114
-2.93241e-05
-0.000194036
-3.31675e-05
-0.000182001
-3.60729e-05
-0.000168639
-4.03056e-05
-0.000154497
-4.29867e-05
-0.000139171
-4.46082e-05
-0.000122709
-4.43735e-05
-0.000104334
-4.5751e-05
-8.55167e-05
-4.19579e-05
-7.01162e-05
-6.17394e-05
-0.000290489
2.76824e-05
-0.000298823
3.32032e-05
-0.000308534
3.8704e-05
-0.000319138
4.22804e-05
-0.000330757
4.63408e-05
-0.000342904
4.84636e-05
-0.000355735
5.12131e-05
-0.000368803
5.2181e-05
-0.000382291
5.38686e-05
-0.000395805
5.39873e-05
-0.000409532
5.48533e-05
-0.000423128
5.43423e-05
-0.000436774
5.45536e-05
-0.000450159
5.35272e-05
-0.000463496
5.33497e-05
-0.000476613
5.24577e-05
-0.000489287
5.0675e-05
-0.00050164
4.93866e-05
-0.000513414
4.70699e-05
-0.000524699
4.51288e-05
-0.000535262
4.22677e-05
-0.000545163
3.96541e-05
-0.000554203
3.62654e-05
-0.000562409
3.30196e-05
-0.00056962
2.9189e-05
-0.000575833
2.54504e-05
-0.000580922
2.13625e-05
-0.00058485
1.73489e-05
-0.00058757
1.2835e-05
-0.000589358
7.2757e-06
-0.000590308
1.60783e-06
-0.000589904
-4.72732e-06
-0.000587781
-9.7601e-06
-0.000584159
-1.4753e-05
-0.000579174
-2.00018e-05
-0.000572829
-2.53937e-05
-0.000565155
-3.0693e-05
-0.000556132
-3.60767e-05
-0.000545849
-4.11104e-05
-0.000534258
-4.63337e-05
-0.000521521
-5.09121e-05
-0.000507543
-5.58649e-05
-0.000492572
-5.98322e-05
-0.000476457
-6.43987e-05
-0.000459537
-6.76139e-05
-0.000441605
-7.16465e-05
-0.000423093
-7.39577e-05
-0.000403758
-7.72352e-05
-0.000384117
-7.84509e-05
-0.000363934
-8.05999e-05
-0.000343863
-8.01454e-05
-0.000323845
-7.99298e-05
-0.000303875
-7.97275e-05
-0.000284471
-7.74657e-05
-0.000265568
-7.54647e-05
-0.00024761
-7.16928e-05
-0.000230646
-6.7725e-05
-0.000215008
-6.2437e-05
-0.000200916
-5.62458e-05
-0.000188595
-4.91915e-05
-0.000177965
-4.24555e-05
-0.000169064
-3.55249e-05
-0.000161898
-2.85294e-05
-0.000156495
-2.13639e-05
-0.000152811
-1.44137e-05
-0.000150921
-7.56415e-06
-0.000150694
-1.27053e-06
-0.00015289
8.5838e-06
-0.000157216
1.73208e-05
-0.000163944
2.69636e-05
-0.000172954
3.61073e-05
-0.0001843
4.54481e-05
-0.000198299
5.60243e-05
-0.000214739
6.57105e-05
-0.000233997
7.68695e-05
-0.000255316
8.49966e-05
-0.000278844
9.37054e-05
-0.000303372
9.7621e-05
-0.000328916
0.000101684
-0.000354333
0.000101151
-0.000379183
9.90117e-05
-0.000402479
9.30336e-05
-0.000423956
8.60606e-05
-0.000443112
7.71301e-05
-0.000459858
6.7643e-05
-0.000474194
5.75117e-05
-0.00048617
4.73538e-05
-0.000495748
3.76887e-05
-0.000503238
2.94863e-05
-0.000509176
2.31165e-05
-0.000513719
1.75555e-05
-0.000516768
1.18736e-05
-0.000518477
7.13277e-06
-0.000518803
2.27678e-06
-0.000518197
-1.9267e-06
-0.000516513
-6.61996e-06
-0.000513846
-1.06159e-05
-0.000510115
-1.4895e-05
-0.000505519
-1.83369e-05
-0.000499838
-2.26801e-05
-0.000493393
-2.57285e-05
-0.000486067
-2.92468e-05
-0.000477919
-3.24765e-05
-0.000469307
-3.43551e-05
-0.00046
-3.71059e-05
-0.000450524
-3.77783e-05
-0.000440679
-3.92823e-05
-0.00043091
-3.89421e-05
-0.000421113
-3.91036e-05
-0.000411649
-3.77875e-05
-0.000402333
-3.72237e-05
-0.000393523
-3.51464e-05
-0.000385
-3.40582e-05
-0.000377008
-3.19803e-05
-0.000369235
-3.10358e-05
-0.000361968
-2.9174e-05
-0.00035489
-2.8404e-05
-0.000348201
-2.67867e-05
-0.000341604
-2.63838e-05
-0.000335383
-2.49499e-05
-0.000329022
-2.54138e-05
-0.000322897
-2.45838e-05
-0.000316632
-2.51218e-05
-0.000310495
-2.45235e-05
-0.000304162
-2.53243e-05
-0.000297804
-2.55404e-05
-0.000291168
-2.65903e-05
-0.000284349
-2.73438e-05
-0.000277201
-2.85697e-05
-0.000269667
-3.02926e-05
-0.000261649
-3.2084e-05
-0.000253065
-3.43524e-05
-0.00024391
-3.67525e-05
-0.000233904
-4.00792e-05
-0.000223209
-4.28663e-05
-0.000211498
-4.69036e-05
-0.000198926
-5.03873e-05
-0.00018519
-5.49287e-05
-0.000170534
-5.86498e-05
-0.000154683
-6.32594e-05
-0.000137938
-6.69913e-05
-0.000120201
-7.08106e-05
-0.000101669
-7.40019e-05
-8.25066e-05
-7.64762e-05
-6.28624e-05
-7.84051e-05
-4.30485e-05
-7.90946e-05
-2.32109e-05
-7.91055e-05
-3.72559e-06
-7.77359e-05
1.52298e-05
-7.56049e-05
3.32986e-05
-7.21344e-05
5.03021e-05
-6.78289e-05
6.59444e-05
-6.2438e-05
8.00513e-05
-5.62651e-05
9.24226e-05
-4.93475e-05
0.000102938
-4.19523e-05
0.000111492
-3.41614e-05
0.000118064
-2.62536e-05
0.00012262
-1.82334e-05
0.000125205
-1.03631e-05
0.000125861
-2.67031e-06
0.000124662
4.61987e-06
0.000121735
1.15706e-05
0.000117223
1.7953e-05
0.000111264
2.3708e-05
0.000104006
2.89308e-05
9.56158e-05
3.34509e-05
8.62273e-05
3.74552e-05
7.59605e-05
4.0917e-05
6.49851e-05
4.38075e-05
5.3416e-05
4.62109e-05
4.13372e-05
4.82289e-05
2.88071e-05
5.0056e-05
1.59319e-05
5.14032e-05
2.82401e-06
5.22744e-05
-1.03722e-05
5.26946e-05
-2.35526e-05
5.27067e-05
-3.67176e-05
5.26424e-05
-4.98401e-05
5.25649e-05
-6.29587e-05
5.23814e-05
-7.59606e-05
5.19414e-05
-8.86786e-05
5.09131e-05
-0.000101237
5.02504e-05
-0.00011362
4.95127e-05
-0.000125744
4.84596e-05
-0.000137478
4.69693e-05
-0.000149021
4.61398e-05
-0.000160123
4.43252e-05
-0.000170865
4.29719e-05
-0.000181081
4.08398e-05
-0.000190897
3.92013e-05
-0.000200131
3.69203e-05
-0.000208843
3.47911e-05
-0.00021698
3.25154e-05
-0.000224415
2.97551e-05
-0.000231362
2.76848e-05
-0.000237439
2.44115e-05
-0.000243058
2.2429e-05
-0.000247917
1.94593e-05
-0.000252162
1.68849e-05
-0.000255627
1.38176e-05
-0.00025825
1.06245e-05
-0.000260248
7.91194e-06
-0.000261594
5.23681e-06
-0.000262031
1.90443e-06
-0.00026187
-6.51508e-07
-0.000260938
-3.67263e-06
-0.000259178
-6.98278e-06
-0.000256809
-9.55595e-06
-0.00025345
-1.35182e-05
-0.000249414
-1.62554e-05
-0.000244339
-2.0119e-05
-0.000238591
-2.29821e-05
-0.000231678
-2.76838e-05
-0.000223995
-3.09277e-05
-0.000215062
-3.56992e-05
-0.000205297
-3.9089e-05
-0.000194216
-4.4249e-05
-0.000182212
-4.80769e-05
-0.000168814
-5.37031e-05
-0.000154509
-5.72912e-05
-0.000138911
-6.02065e-05
-0.000122167
-6.1117e-05
-0.000103547
-6.43713e-05
-8.4047e-05
-6.14576e-05
-9.14623e-05
-6.27007e-05
-0.000290178
3.46685e-05
-0.000298547
4.15722e-05
-0.000308298
4.84556e-05
-0.000318942
5.29239e-05
-0.000330599
5.79981e-05
-0.000342779
6.06434e-05
-0.000355641
6.40747e-05
-0.000368736
6.52758e-05
-0.000382247
6.73792e-05
-0.00039578
6.75204e-05
-0.000409524
6.85979e-05
-0.000423136
6.79539e-05
-0.000436797
6.82146e-05
-0.000450198
6.69283e-05
-0.000463553
6.67046e-05
-0.000476687
6.55911e-05
-0.000489376
6.3364e-05
-0.000501744
6.1755e-05
-0.000513533
5.88579e-05
-0.000524833
5.64288e-05
-0.00053541
5.28455e-05
-0.000545325
4.95684e-05
-0.000554375
4.53159e-05
-0.00056259
4.1234e-05
-0.000569805
3.64045e-05
-0.00057602
3.16647e-05
-0.000581105
2.64477e-05
-0.000585021
2.12655e-05
-0.000587734
1.55478e-05
-0.000589533
9.07482e-06
-0.000590461
2.53532e-06
-0.000590081
-5.10742e-06
-0.000588006
-1.18348e-05
-0.000584421
-1.83376e-05
-0.00057945
-2.49732e-05
-0.000573108
-3.17352e-05
-0.000565433
-3.83683e-05
-0.000556406
-4.51036e-05
-0.000546116
-5.14e-05
-0.000534516
-5.79334e-05
-0.000521768
-6.36598e-05
-0.000507778
-6.98553e-05
-0.000492792
-7.48177e-05
-0.00047666
-8.05311e-05
-0.000459719
-8.45539e-05
-0.000441764
-8.96013e-05
-0.000423227
-9.2495e-05
-0.000403862
-9.66e-05
-0.000384188
-9.8125e-05
-0.000363968
-0.00010082
-0.000343858
-0.000100255
-0.000323799
-9.9989e-05
-0.000303785
-9.97413e-05
-0.000284338
-9.69122e-05
-0.000265392
-9.44112e-05
-0.000247393
-8.9691e-05
-0.000230392
-8.47258e-05
-0.00021472
-7.81091e-05
-0.000200594
-7.03716e-05
-0.000188248
-6.15382e-05
-0.000177599
-5.31042e-05
-0.000168683
-4.44409e-05
-0.0001615
-3.57125e-05
-0.000156076
-2.67877e-05
-0.000152378
-1.81113e-05
-0.000150497
-9.44505e-06
-0.000150278
-1.48987e-06
-0.000152471
1.07774e-05
-0.000156789
2.16388e-05
-0.000163501
3.36759e-05
-0.000172493
4.50992e-05
-0.000183823
5.6778e-05
-0.000197815
7.00167e-05
-0.00021427
8.21655e-05
-0.000233574
9.61731e-05
-0.000254971
0.000106394
-0.000278614
0.000117349
-0.000303283
0.00012229
-0.000328974
0.000127374
-0.000354544
0.000126722
-0.000379525
0.000123993
-0.000402896
0.000116404
-0.000424372
0.000107537
-0.000443454
9.62113e-05
-0.000460079
8.42682e-05
-0.000474288
7.17209e-05
-0.000486221
5.92874e-05
-0.000495909
4.7376e-05
-0.00050362
3.71974e-05
-0.000509608
2.9104e-05
-0.000514114
2.20621e-05
-0.000517132
1.48917e-05
-0.000518806
8.80618e-06
-0.000519124
2.59549e-06
-0.000518505
-2.54638e-06
-0.0005168
-8.32463e-06
-0.000514118
-1.32975e-05
-0.000510376
-1.86369e-05
-0.000505763
-2.29502e-05
-0.000500068
-2.83748e-05
-0.000493602
-3.21947e-05
-0.000486256
-3.65929e-05
-0.000478079
-4.06536e-05
-0.000469443
-4.29911e-05
-0.000460104
-4.64448e-05
-0.0004506
-4.72818e-05
-0.000440737
-4.91451e-05
-0.000430928
-4.87515e-05
-0.000421101
-4.89296e-05
-0.000411616
-4.72729e-05
-0.000402284
-4.65554e-05
-0.000393458
-4.39722e-05
-0.000384924
-4.25923e-05
-0.000376952
-3.99522e-05
-0.000369178
-3.88099e-05
-0.000361916
-3.64351e-05
-0.00035486
-3.54602e-05
-0.000348178
-3.34685e-05
-0.000341575
-3.2987e-05
-0.000335395
-3.11297e-05
-0.000329033
-3.17757e-05
-0.000322912
-3.07044e-05
-0.000316663
-3.13709e-05
-0.00031053
-3.06558e-05
-0.000304208
-3.16461e-05
-0.000297871
-3.18772e-05
-0.000291238
-3.32233e-05
-0.000284446
-3.41359e-05
-0.00027731
-3.57055e-05
-0.000269798
-3.78038e-05
-0.000261795
-4.00876e-05
-0.000253234
-4.29131e-05
-0.000244093
-4.58931e-05
-0.000234118
-5.00534e-05
-0.000223409
-5.35748e-05
-0.000211747
-5.85656e-05
-0.000199182
-6.29524e-05
-0.000185432
-6.86785e-05
-0.000170797
-7.32843e-05
-0.000154916
-7.91402e-05
-0.000138184
-8.37227e-05
-0.000120391
-8.86036e-05
-0.000101842
-9.25508e-05
-8.26241e-05
-9.56936e-05
-6.29235e-05
-9.81054e-05
-4.30595e-05
-9.89584e-05
-2.31567e-05
-9.9008e-05
-3.61421e-06
-9.72781e-05
1.54005e-05
-9.46193e-05
3.3523e-05
-9.02566e-05
5.05831e-05
-8.48888e-05
6.6264e-05
-7.81187e-05
8.04151e-05
-7.0416e-05
9.28201e-05
-6.17524e-05
0.000103362
-5.24935e-05
0.00011193
-4.27292e-05
0.000118499
-3.2823e-05
0.000123052
-2.27858e-05
0.000125622
-1.2933e-05
0.000126257
-3.30579e-06
0.000125035
5.84207e-06
0.000122077
1.45293e-05
0.000117537
2.24927e-05
0.000111546
2.96992e-05
0.000104251
3.62257e-05
9.58221e-05
4.188e-05
8.64147e-05
4.68626e-05
7.61081e-05
5.12236e-05
6.51018e-05
5.48139e-05
5.35148e-05
5.77979e-05
4.14097e-05
6.03341e-05
2.8857e-05
6.26087e-05
1.59692e-05
6.42911e-05
2.83309e-06
6.54105e-05
-1.03996e-05
6.59274e-05
-2.35814e-05
6.58885e-05
-3.67474e-05
6.58084e-05
-4.9862e-05
6.56795e-05
-6.29965e-05
6.55159e-05
-7.60114e-05
6.49563e-05
-8.87408e-05
6.36425e-05
-0.000101304
6.28131e-05
-0.000113685
6.18941e-05
-0.000125832
6.06069e-05
-0.000137562
5.86985e-05
-0.000149109
5.76872e-05
-0.000160242
5.54587e-05
-0.000170972
5.3701e-05
-0.000181208
5.10763e-05
-0.000191042
4.90353e-05
-0.000200253
4.61308e-05
-0.000208995
4.35332e-05
-0.000217125
4.06459e-05
-0.000224569
3.71989e-05
-0.000231539
3.46549e-05
-0.000237597
3.04692e-05
-0.000243237
2.80686e-05
-0.000248078
2.43009e-05
-0.000252338
2.11443e-05
-0.00025582
1.73001e-05
-0.00025841
1.32144e-05
-0.000260425
9.92691e-06
-0.000261788
6.59972e-06
-0.000262201
2.31771e-06
-0.000262054
-7.98579e-07
-0.000261108
-4.61861e-06
-0.000259348
-8.74368e-06
-0.000256986
-1.19172e-05
-0.000253644
-1.68604e-05
-0.000249631
-2.02685e-05
-0.000244551
-2.51991e-05
-0.00023878
-2.87525e-05
-0.000231901
-3.45629e-05
-0.000224263
-3.85654e-05
-0.000215317
-4.4645e-05
-0.000205529
-4.88771e-05
-0.000194449
-5.53294e-05
-0.000182454
-6.00718e-05
-0.00016909
-6.70673e-05
-0.000154771
-7.16099e-05
-0.000138932
-7.6045e-05
-0.000121818
-7.82311e-05
-0.00010355
-8.26391e-05
-8.46175e-05
-8.03898e-05
-0.000111577
-6.45031e-05
-0.000289787
4.17106e-05
-0.000298204
4.99899e-05
-0.000308008
5.8259e-05
-0.0003187
6.36163e-05
-0.000330405
6.9703e-05
-0.000342627
7.28651e-05
-0.000355527
7.69747e-05
-0.000368654
7.84031e-05
-0.000382194
8.09189e-05
-0.000395752
8.10783e-05
-0.00040952
8.23653e-05
-0.000423152
8.15863e-05
-0.000436834
8.18964e-05
-0.000450256
8.03506e-05
-0.000463634
8.00819e-05
-0.000476789
7.87463e-05
-0.000489498
7.60734e-05
-0.000501887
7.41439e-05
-0.000513695
7.0666e-05
-0.000525016
6.77498e-05
-0.000535615
6.34439e-05
-0.00054555
5.95037e-05
-0.00055462
5.43857e-05
-0.000562853
4.94669e-05
-0.000570086
4.36379e-05
-0.000576322
3.79e-05
-0.000581432
3.15578e-05
-0.00058539
2.52242e-05
-0.000588168
1.83256e-05
-0.000589968
1.08743e-05
-0.000590796
3.36399e-06
-0.000590359