/*--------------------------------*- C++ -*----------------------------------*\
| =========                 |                                                 |
| \\      /  F ield         | OpenFOAM: The Open Source CFD Toolbox           |
|  \\    /   O peration     | Version:  3.0.1                                 |
|   \\  /    A nd           | Web:      www.OpenFOAM.org                      |
|    \\/     M anipulation  |                                                 |
\*---------------------------------------------------------------------------*/
FoamFile
{
    version     2.0;
    format      ascii;
    class       surfaceScalarField;
    location    "24.2";
    object      alphaPhi;
}
// * * * * * * * * * * * * * * * * * * * * * * * * * * * * * * * * * * * * * //

dimensions      [0 3 -1 0 0 0 0];

internalField   nonuniform List<scalar> 
44922
(
-3.68051e-05
1.53933e-05
-5.14967e-05
1.46916e-05
-6.5534e-05
1.40373e-05
-7.87915e-05
1.32575e-05
-9.13105e-05
1.25191e-05
-0.000103014
1.17033e-05
-0.000113945
1.09307e-05
-0.000124064
1.01195e-05
-0.000133418
9.35375e-06
-0.000141995
8.57717e-06
-0.000149841
7.84599e-06
-0.000156964
7.12315e-06
-0.000163404
6.44014e-06
-0.000169184
5.77934e-06
-0.000174336
5.15279e-06
-0.000178883
4.54628e-06
-0.000182851
3.96782e-06
-0.000186256
3.40499e-06
-0.000189119
2.86315e-06
-0.00019146
2.34148e-06
-0.000193276
1.81589e-06
-0.000194573
1.29668e-06
-0.000195356
7.83002e-07
-0.000195655
2.99225e-07
-0.000195457
-1.97678e-07
-0.00019478
-6.77097e-07
-0.000193581
-1.19917e-06
-0.000191873
-1.70794e-06
-0.00018959
-2.28281e-06
-0.000186789
-2.80162e-06
-0.000183333
-3.45586e-06
-0.000179327
-4.00582e-06
-0.000174585
-4.74165e-06
-0.000169223
-5.36213e-06
-0.000163232
-5.99165e-06
-0.000156393
-6.83859e-06
-0.000148886
-7.50709e-06
-0.000140511
-8.37469e-06
-0.000131439
-9.07238e-06
-0.000121449
-9.99023e-06
-0.000110726
-1.07229e-05
-9.90627e-05
-1.1663e-05
-8.66995e-05
-1.23632e-05
-7.33906e-05
-1.33089e-05
-5.94586e-05
-1.3932e-05
-4.46533e-05
-1.48053e-05
-2.93049e-05
-1.53483e-05
-1.32109e-05
-1.60941e-05
3.31918e-06
-1.653e-05
2.04098e-05
-1.70907e-05
3.78409e-05
-1.7431e-05
5.53422e-05
-1.75013e-05
7.29722e-05
-1.76299e-05
9.04758e-05
-1.75037e-05
0.000107807
-1.73316e-05
0.000124711
-1.69033e-05
0.00014108
-1.63695e-05
0.000156694
-1.56135e-05
0.000171455
-1.47618e-05
0.000185114
-1.36587e-05
0.000197577
-1.2463e-05
0.000208623
-1.10456e-05
0.000218236
-9.61331e-06
0.000226209
-7.97324e-06
0.000232546
-6.33647e-06
0.000237107
-4.56102e-06
0.000239912
-2.80485e-06
0.000240886
-9.74616e-07
0.000240115
7.71458e-07
0.000237582
2.5331e-06
0.000233201
4.38093e-06
0.000227219
5.98152e-06
0.000219601
7.61778e-06
0.000210564
9.0374e-06
0.00020014
1.04242e-05
0.000188506
1.16334e-05
0.000175755
1.27509e-05
0.000162034
1.37218e-05
0.000147446
1.45873e-05
0.00013219
1.52568e-05
0.000116377
1.58125e-05
0.000100101
1.62758e-05
8.35549e-05
1.65464e-05
6.68089e-05
1.6746e-05
5.00479e-05
1.6761e-05
3.33326e-05
1.67153e-05
1.67512e-05
1.65814e-05
4.53595e-07
1.62976e-05
-1.5603e-05
1.60566e-05
-3.12363e-05
1.56333e-05
-4.64159e-05
1.51796e-05
-6.11211e-05
1.47052e-05
-7.52408e-05
1.41196e-05
-8.88207e-05
1.35799e-05
-0.000101721
1.29006e-05
-0.000114028
1.23073e-05
-0.00012563
1.16012e-05
-0.000136569
1.09394e-05
-0.000146775
1.02062e-05
-0.000156312
9.53659e-06
-0.00016504
8.72772e-06
-0.000173082
8.04277e-06
-0.000180285
7.20216e-06
-0.000186736
6.4509e-06
-0.000192347
5.61116e-06
-0.000197238
4.89121e-06
-0.000201295
4.05688e-06
-0.000204553
3.25757e-06
-0.000207007
2.4543e-06
-0.000208675
1.66775e-06
-0.000209591
9.16315e-07
-0.000209766
1.7522e-07
-0.000209203
-5.63259e-07
-0.000207826
-1.37657e-06
-0.000205794
-2.03213e-06
-0.000202976
-2.8183e-06
-0.000199542
-3.43424e-06
-0.000195339
-4.20249e-06
-0.000190621
-4.71795e-06
-0.000185155
-5.46677e-06
-0.000179192
-5.96291e-06
-0.00017249
-6.70149e-06
-0.00016544
-7.04986e-06
-0.000157701
-7.73966e-06
-0.000149478
-8.22276e-06
-0.000140681
-8.79676e-06
-0.000131409
-9.27188e-06
-0.000121701
-9.7086e-06
-0.000111462
-1.0239e-05
-0.00010076
-1.07012e-05
-8.95619e-05
-1.11986e-05
-7.78977e-05
-1.16641e-05
-6.57188e-05
-1.2179e-05
-5.30753e-05
-1.26435e-05
-3.99557e-05
-1.31197e-05
-2.63689e-05
-1.35868e-05
-1.23357e-05
-1.40332e-05
2.10689e-06
-1.44426e-05
1.69408e-05
-1.48339e-05
3.20985e-05
-1.51578e-05
4.75329e-05
-1.54344e-05
6.31552e-05
-1.56223e-05
7.88877e-05
-1.57326e-05
9.46214e-05
-1.57337e-05
0.000110243
-1.56218e-05
0.00012562
-1.53769e-05
0.000140592
-1.49719e-05
0.000155023
-1.44306e-05
0.000168734
-1.37119e-05
0.000181581
-1.28464e-05
0.000193382
-1.18011e-05
0.00020396
-1.05784e-05
0.000213171
-9.21123e-06
0.000220881
-7.70961e-06
0.000226961
-6.08038e-06
0.000231295
-4.33344e-06
0.00023383
-2.53552e-06
0.000234498
-6.67288e-07
0.000233298
1.19992e-06
0.000230106
3.19175e-06
0.00022499
5.11573e-06
0.000218046
6.94429e-06
0.000209324
8.72216e-06
0.000198939
1.03847e-05
0.00018701
1.19293e-05
0.000173707
1.33029e-05
0.000159179
1.45281e-05
0.00014363
1.55484e-05
0.00012721
1.64204e-05
0.000110171
1.70386e-05
9.26419e-05
1.75296e-05
7.48478e-05
1.7794e-05
5.69829e-05
1.78649e-05
3.91963e-05
1.77867e-05
2.16926e-05
1.75037e-05
4.60488e-06
1.70877e-05
-1.19489e-05
1.65538e-05
-2.79116e-05
1.59627e-05
-4.31952e-05
1.52837e-05
-5.78785e-05
1.46832e-05
-7.16734e-05
1.37949e-05
-8.46845e-05
1.30111e-05
-9.68094e-05
1.21249e-05
-0.00010816
1.13504e-05
-0.000118591
1.04315e-05
-0.000128302
9.71039e-06
-0.000137218
8.91608e-06
-0.000145382
8.16396e-06
-0.0001529
7.51868e-06
-0.000159746
6.84546e-06
-0.000166021
6.27492e-06
-0.000171633
5.61248e-06
-0.000176733
5.1e-06
-0.000181228
4.49484e-06
-0.000185214
3.98559e-06
-0.000188652
3.4381e-06
-0.000191588
2.93595e-06
-0.000194017
2.42915e-06
-0.000195956
1.93858e-06
-0.000197408
1.45237e-06
-0.000198445
1.03737e-06
-0.000198968
5.22757e-07
-0.000198967
-6.53363e-10
-0.000198422
-5.45067e-07
-0.000197263
-1.15881e-06
-0.000195532
-1.73181e-06
-0.000193071
-2.46084e-06
-0.000190044
-3.02639e-06
-0.000186179
-3.86588e-06
-0.000181636
-4.54282e-06
-0.000176241
-5.39486e-06
-0.000170248
-5.9929e-06
-0.000163373
-6.87545e-06
-0.000155812
-7.56096e-06
-0.000147383
-8.42896e-06
-0.000138364
-9.01866e-06
-0.000128512
-9.85213e-06
-0.000117702
-1.08099e-05
-0.00010564
-1.20625e-05
-9.33755e-05
-1.2264e-05
-8.45957e-05
-8.7798e-06
-8.07594e-05
-3.8363e-06
-7.73009e-05
-3.45857e-06
-7.59273e-05
-1.37364e-06
-1.41666e-05
-6.17607e-05
-3.6842e-05
3.07903e-05
-5.15363e-05
2.93859e-05
-6.55761e-05
2.80771e-05
-7.88356e-05
2.6517e-05
-9.1357e-05
2.50405e-05
-0.000103062
2.34086e-05
-0.000113993
2.18617e-05
-0.000124113
2.02394e-05
-0.000133466
1.87066e-05
-0.000142041
1.71525e-05
-0.000149884
1.56892e-05
-0.000157005
1.42437e-05
-0.000163443
1.28782e-05
-0.00016922
1.15561e-05
-0.00017437
1.03034e-05
-0.000178914
9.09028e-06
-0.00018288
7.93357e-06
-0.000186284
6.80918e-06
-0.000189147
5.72546e-06
-0.000191487
4.68226e-06
-0.000193304
3.63245e-06
-0.000194604
2.59646e-06
-0.000195392
1.57115e-06
-0.00019569
5.97225e-07
-0.00019549
-3.97802e-07
-0.000194818
-1.3491e-06
-0.000193617
-2.40022e-06
-0.000191912
-3.41255e-06
-0.000189631
-4.56355e-06
-0.000186831
-5.60192e-06
-0.000183376
-6.9107e-06
-0.000179372
-8.00989e-06
-0.000174635
-9.47911e-06
-0.000169271
-1.07253e-05
-0.000163281
-1.19824e-05
-0.000156444
-1.36748e-05
-0.00014894
-1.50112e-05
-0.000140568
-1.67466e-05
-0.000131496
-1.8145e-05
-0.000121506
-1.99798e-05
-0.000110782
-2.14473e-05
-9.91184e-05
-2.33266e-05
-8.67495e-05
-2.47321e-05
-7.34308e-05
-2.66276e-05
-5.94999e-05
-2.78629e-05
-4.46951e-05
-2.96102e-05
-2.93422e-05
-3.07012e-05
-1.32442e-05
-3.21921e-05
3.29065e-06
-3.30649e-05
2.03854e-05
-3.41855e-05
3.78231e-05
-3.48688e-05
5.53322e-05
-3.50104e-05
7.29723e-05
-3.52701e-05
9.04859e-05
-3.50173e-05
0.000107828
-3.46733e-05
0.00012474
-3.38157e-05
0.000141121
-3.27503e-05
0.000156745
-3.1238e-05
0.000171519
-2.95357e-05
0.000185188
-2.73273e-05
0.000197665
-2.49398e-05
0.000208712
-2.20926e-05
0.000218335
-1.92365e-05
0.000226311
-1.59491e-05
0.000232656
-1.26821e-05
0.000237216
-9.12112e-06
0.000240024
-5.61271e-06
0.000241002
-1.95211e-06
0.000240217
1.55608e-06
0.000237683
5.06742e-06
0.000233307
8.75675e-06
0.000227323
1.19654e-05
0.000219698
1.52434e-05
0.000210654
1.80812e-05
0.000200226
2.08522e-05
0.000188581
2.32778e-05
0.000175824
2.55084e-05
0.000162091
2.74541e-05
0.000147497
2.91815e-05
0.000132232
3.05219e-05
0.000116414
3.16308e-05
0.000100128
3.25617e-05
8.35755e-05
3.30989e-05
6.68203e-05
3.35011e-05
5.00482e-05
3.35331e-05
3.33276e-05
3.34359e-05
1.67395e-05
3.31695e-05
4.36634e-07
3.26005e-05
-1.56284e-05
3.21217e-05
-3.12679e-05
3.12727e-05
-4.64537e-05
3.03655e-05
-6.11639e-05
2.94154e-05
-7.5287e-05
2.82427e-05
-8.887e-05
2.71628e-05
-0.000101774
2.58049e-05
-0.000114082
2.46152e-05
-0.000125686
2.32046e-05
-0.00013663
2.18835e-05
-0.000146842
2.04185e-05
-0.000156375
1.90699e-05
-0.000165105
1.74572e-05
-0.000173149
1.60864e-05
-0.000180348
1.4402e-05
-0.000186801
1.29032e-05
-0.00019241
1.12199e-05
-0.000197303
9.7842e-06
-0.000201363
8.11759e-06
-0.000204626
6.51977e-06
-0.000207081
4.90967e-06
-0.000208755
3.34156e-06
-0.000209666
1.82797e-06
-0.000209826
3.34865e-07
-0.000209264
-1.12541e-06
-0.000207882
-2.75834e-06
-0.000205848
-4.06599e-06
-0.000203023
-5.64317e-06
-0.000199589
-6.86888e-06
-0.000195383
-8.40859e-06
-0.000190663
-9.43815e-06
-0.000185194
-1.09356e-05
-0.000179235
-1.19218e-05
-0.000172528
-1.34083e-05
-0.00016548
-1.40975e-05
-0.000157739
-1.54815e-05
-0.000149517
-1.6444e-05
-0.000140718
-1.75956e-05
-0.000131441
-1.85493e-05
-0.000121734
-1.94156e-05
-0.000111498
-2.0475e-05
-0.000100797
-2.14025e-05
-8.95959e-05
-2.23995e-05
-7.79295e-05
-2.33305e-05
-6.57472e-05
-2.43613e-05
-5.31067e-05
-2.52839e-05
-3.99839e-05
-2.62426e-05
-2.63992e-05
-2.71714e-05
-1.23605e-05
-2.80719e-05
2.08651e-06
-2.88896e-05
1.69253e-05
-2.96727e-05
3.20867e-05
-3.03192e-05
4.75282e-05
-3.08759e-05
6.31569e-05
-3.1251e-05
7.88946e-05
-3.14702e-05
9.46362e-05
-3.14753e-05
0.000110267
-3.12521e-05
0.000125652
-3.07619e-05
0.000140633
-2.99536e-05
0.000155072
-2.88696e-05
0.000168789
-2.7429e-05
0.000181651
-2.57077e-05
0.000193461
-2.36113e-05
0.000204048
-2.11657e-05
0.000213271
-1.84344e-05
0.000220989
-1.54276e-05
0.00022708
-1.21707e-05
0.000231423
-8.67659e-06
0.000233968
-5.08065e-06
0.000234632
-1.33094e-06
0.000233417
2.41442e-06
0.00023022
6.38831e-06
0.000225104
1.02325e-05
0.000218151
1.38967e-05
0.000209426
1.74471e-05
0.000199025
2.07864e-05
0.000187085
2.3869e-05
0.000173772
2.66161e-05
0.000159231
2.90684e-05
0.000143672
3.11078e-05
0.000127239
3.28537e-05
0.000110187
3.40907e-05
9.26495e-05
3.50669e-05
7.48436e-05
3.55999e-05
5.69651e-05
3.57434e-05
3.91632e-05
3.55885e-05
2.16478e-05
3.50191e-05
4.55227e-06
3.41833e-05
-1.20041e-05
3.31101e-05
-2.79743e-05
3.19329e-05
-4.32752e-05
3.05846e-05
-5.79542e-05
2.93622e-05
-7.17557e-05
2.75963e-05
-8.47682e-05
2.60237e-05
-9.68892e-05
2.42459e-05
-0.000108239
2.27004e-05
-0.000118671
2.08629e-05
-0.000128377
1.9417e-05
-0.000137291
1.78294e-05
-0.000145458
1.63318e-05
-0.00015298
1.504e-05
-0.000159806
1.36715e-05
-0.000166084
1.25528e-05
-0.000171687
1.12154e-05
-0.000176784
1.01972e-05
-0.000181273
8.9836e-06
-0.000185259
7.97187e-06
-0.000188695
6.87422e-06
-0.00019163
5.87048e-06
-0.000194058
4.85797e-06
-0.000195996
3.87602e-06
-0.000197452
2.90808e-06
-0.000198495
2.08092e-06
-0.000199017
1.04491e-06
-0.000199017
-7.77737e-10
-0.000198477
-1.08522e-06
-0.000197319
-2.31683e-06
-0.000195592
-3.45895e-06
-0.000193129
-4.92323e-06
-0.000190102
-6.05332e-06
-0.000186233
-7.73571e-06
-0.00018169
-9.08529e-06
-0.00017629
-1.0795e-05
-0.000170298
-1.19848e-05
-0.000163418
-1.37552e-05
-0.000155861
-1.51187e-05
-0.000147427
-1.68624e-05
-0.000138345
-1.81013e-05
-0.000128427
-1.977e-05
-0.000118002
-2.12342e-05
-0.000106365
-2.37001e-05
-9.31963e-05
-2.54326e-05
-8.12437e-05
-2.07324e-05
-7.22043e-05
-1.28756e-05
-6.24446e-05
-1.32183e-05
-5.34108e-05
-1.04075e-05
-3.12932e-05
-3.62842e-05
-3.69156e-05
4.61945e-05
-5.16157e-05
4.4086e-05
-6.56599e-05
4.21212e-05
-7.89222e-05
3.97793e-05
-9.14449e-05
3.75632e-05
-0.00010315
3.5114e-05
-0.000114082
3.27929e-05
-0.0001242
3.03575e-05
-0.000133549
2.80561e-05
-0.00014212
2.57233e-05
-0.000149958
2.35273e-05
-0.000157073
2.13585e-05
-0.000163507
1.93124e-05
-0.000169278
1.73269e-05
-0.000174423
1.54484e-05
-0.000178963
1.36304e-05
-0.000182925
1.18952e-05
-0.000186328
1.02124e-05
-0.000189187
8.58454e-06
-0.000191525
7.02067e-06
-0.000193343
5.4504e-06
-0.000194647
3.89969e-06
-0.000195446
2.37033e-06
-0.000195746
8.97478e-07
-0.000195545
-5.99071e-07
-0.000194876
-2.01751e-06
-0.000193668
-3.60841e-06
-0.000191971
-5.10931e-06
-0.000189695
-6.84023e-06
-0.000186896
-8.40023e-06
-0.000183444
-1.03628e-05
-0.000179443
-1.2011e-05
-0.000174715
-1.42074e-05
-0.000169351
-1.60892e-05
-0.000163362
-1.79714e-05
-0.000156531
-2.05057e-05
-0.000149033
-2.25095e-05
-0.000140666
-2.51138e-05
-0.000131592
-2.72188e-05
-0.000121604
-2.9968e-05
-0.000110878
-3.21725e-05
-9.9214e-05
-3.49911e-05
-8.68368e-05
-3.71093e-05
-7.35128e-05
-3.99516e-05
-5.95728e-05
-4.18029e-05
-4.47714e-05
-4.44115e-05
-2.94113e-05
-4.60614e-05
-1.33066e-05
-4.82968e-05
3.23889e-06
-4.96105e-05
2.03452e-05
-5.12918e-05
3.77965e-05
-5.23201e-05
5.53202e-05
-5.25341e-05
7.29788e-05
-5.29287e-05
9.05103e-05
-5.25488e-05
0.000107867
-5.20301e-05
0.000124797
-5.07459e-05
0.000141199
-4.9152e-05
0.000156847
-4.6886e-05
0.000171637
-4.43256e-05
0.000185319
-4.10099e-05
0.000197809
-3.74296e-05
0.000208876
-3.3159e-05
0.000218512
-2.88732e-05
0.000226494
-2.39311e-05
0.000232853
-1.90403e-05
0.00023741
-1.3679e-05
0.000240223
-8.425e-06
0.000241194
-2.9235e-06
0.000240389
2.36097e-06
0.00023786
7.59696e-06
0.000233493
1.31233e-05
0.000227493
1.79654e-05
0.000219862
2.28748e-05
0.000210805
2.71379e-05
0.000200375
3.12825e-05
0.000188704
3.49482e-05
0.000175934
3.8279e-05
0.000162181
4.12069e-05
0.000147575
4.37878e-05
0.000132294
4.58021e-05
0.000116465
4.74598e-05
0.000100162
4.88652e-05
8.35984e-05
4.96623e-05
6.68294e-05
5.02701e-05
5.00359e-05
5.03266e-05
3.33073e-05
5.01646e-05
1.6709e-05
4.97678e-05
3.98602e-07
4.89109e-05
-1.56764e-05
4.81966e-05
-3.1323e-05
4.69194e-05
-4.65166e-05
4.5559e-05
-6.12332e-05
4.41321e-05
-7.53605e-05
4.237e-05
-8.89462e-05
4.07484e-05
-0.000101857
3.87152e-05
-0.000114171
3.69294e-05
-0.000125771
3.48046e-05
-0.000136719
3.28316e-05
-0.000146935
3.06346e-05
-0.000156468
2.86025e-05
-0.000165197
2.61865e-05
-0.000173242
2.41317e-05
-0.000180445
2.16047e-05
-0.000186899
1.93573e-05
-0.000192513
1.68337e-05
-0.000197398
1.46695e-05
-0.000201468
1.21875e-05
-0.00020474
9.79114e-06
-0.0002072
7.36994e-06
-0.000208895
5.03626e-06
-0.000209805
2.73823e-06
-0.000209936
4.66116e-07
-0.000209366
-1.6954e-06
-0.000207975
-4.14937e-06
-0.000205945
-6.09595e-06
-0.000203108
-8.48052e-06
-0.000199674
-1.0303e-05
-0.000195464
-1.26183e-05
-0.000190742
-1.416e-05
-0.000185275
-1.64024e-05
-0.00017933
-1.78676e-05
-0.000172624
-2.01135e-05
-0.000165573
-2.11492e-05
-0.000157809
-2.32449e-05
-0.0001496
-2.46536e-05
-0.000140797
-2.63983e-05
-0.000131538
-2.7808e-05
-0.00012181
-2.91438e-05
-0.00011158
-3.0705e-05
-0.000100879
-3.2104e-05
-8.96742e-05
-3.36039e-05
-7.80065e-05
-3.49981e-05
-6.58071e-05
-3.65607e-05
-5.31817e-05
-3.79093e-05
-4.00508e-05
-3.93735e-05
-2.64685e-05
-4.07537e-05
-1.242e-05
-4.21205e-05
2.03665e-06
-4.33462e-05
1.68872e-05
-4.45232e-05
3.20574e-05
-4.54894e-05
4.75097e-05
-4.63282e-05
6.31483e-05
-4.68896e-05
7.88975e-05
-4.72195e-05
9.46509e-05
-4.72287e-05
0.000110297
-4.68983e-05
0.000125699
-4.61642e-05
0.0001407
-4.49547e-05
0.000155157
-4.33258e-05
0.000168896
-4.11685e-05
0.00018177
-3.8582e-05
0.000193592
-3.54325e-05
0.000204196
-3.17706e-05
0.000213437
-2.76747e-05
0.000221178
-2.31688e-05
0.000227288
-1.8281e-05
0.000231647
-1.30351e-05
0.000234202
-7.63564e-06
0.000234856
-1.98581e-06
0.000233609
3.66184e-06
0.000230409
9.58799e-06
0.000225289
1.53523e-05
0.000218324
2.08622e-05
0.000209599
2.61721e-05
0.000199162
3.12228e-05
0.000187208
3.58237e-05
0.00017388
3.99439e-05
0.000159317
4.36312e-05
0.000143737
4.66876e-05
0.000127283
4.93082e-05
0.000110212
5.11611e-05
9.26676e-05
5.26117e-05
7.48446e-05
5.34229e-05
5.69413e-05
5.36467e-05
3.91154e-05
5.34145e-05
2.15842e-05
5.25503e-05
4.47603e-06
5.12914e-05
-1.20833e-05
4.96694e-05
-2.80618e-05
4.79115e-05
-4.33785e-05
4.59012e-05
-5.80654e-05
4.40492e-05
-7.1871e-05
4.14019e-05
-8.48813e-05
3.9034e-05
-9.69962e-05
3.63608e-05
-0.000108347
3.40509e-05
-0.000118771
3.12867e-05
-0.000128472
2.91186e-05
-0.000137383
2.67407e-05
-0.000145554
2.4502e-05
-0.000153087
2.25729e-05
-0.000159896
2.04807e-05
-0.000166169
1.88257e-05
-0.000171752
1.67983e-05
-0.000176845
1.52909e-05
-0.000181325
1.34636e-05
-0.000185313
1.19602e-05
-0.00018875
1.03112e-05
-0.000191692
8.8118e-06
-0.000194122
7.28797e-06
-0.000196058
5.8122e-06
-0.000197519
4.36874e-06
-0.000198578
3.14055e-06
-0.000199104
1.57086e-06
-0.000199102
-2.58366e-09
-0.000198579
-1.60845e-06
-0.000197424
-3.47243e-06
-0.000195707
-5.17578e-06
-0.000193242
-7.38777e-06
-0.00019022
-9.07574e-06
-0.000186349
-1.16066e-05
-0.00018181
-1.36242e-05
-0.000176397
-1.62085e-05
-0.000170405
-1.79761e-05
-0.000163508
-2.06522e-05
-0.000155946
-2.26807e-05
-0.000147499
-2.53099e-05
-0.000138455
-2.71451e-05
-0.00012848
-2.97445e-05
-0.000117869
-3.18457e-05
-0.000106584
-3.49853e-05
-9.36587e-05
-3.83575e-05
-7.99861e-05
-3.4405e-05
-6.69016e-05
-2.59601e-05
-5.26712e-05
-2.74487e-05
-3.98278e-05
-2.32509e-05
-4.61812e-05
-2.49397e-05
-3.70261e-05
6.16095e-05
-5.17347e-05
5.87945e-05
-6.57852e-05
5.61718e-05
-7.90514e-05
5.30454e-05
-9.15761e-05
5.00879e-05
-0.000103282
4.68197e-05
-0.000114213
4.37244e-05
-0.000124329
4.04729e-05
-0.000133674
3.74015e-05
-0.00014224
3.42888e-05
-0.000150072
3.13595e-05
-0.00015718
2.84668e-05
-0.000163609
2.57413e-05
-0.000169372
2.30902e-05
-0.00017451
2.05864e-05
-0.000179046
1.81662e-05
-0.000183
1.58487e-05
-0.000186404
1.36164e-05
-0.000189259
1.14393e-05
-0.000191593
9.35558e-06
-0.000193412
7.26858e-06
-0.000194718
5.20592e-06
-0.000195525
3.17751e-06
-0.00019583
1.20274e-06
-0.000195638
-7.91278e-07
-0.000194965
-2.69042e-06
-0.000193756
-4.81745e-06
-0.000192061
-6.80445e-06
-0.000189789
-9.11191e-06
-0.000186994
-1.11953e-05
-0.000183546
-1.38106e-05
-0.000179549
-1.60084e-05
-0.000174834
-1.8923e-05
-0.00016947
-2.14525e-05
-0.000163483
-2.39586e-05
-0.000156661
-2.73279e-05
-0.000149171
-2.99998e-05
-0.000140808
-3.34767e-05
-0.000131734
-3.62925e-05
-0.000121747
-3.99552e-05
-0.000111022
-4.28972e-05
-9.93552e-05
-4.6658e-05
-8.69631e-05
-4.95013e-05
-7.36358e-05
-5.3279e-05
-5.96706e-05
-5.57681e-05
-4.48853e-05
-5.91969e-05
-2.95137e-05
-6.1433e-05
-1.33989e-05
-6.44116e-05
3.16245e-06
-6.61718e-05
2.02865e-05
-6.84158e-05
3.7758e-05
-6.97917e-05
5.53043e-05
-7.00804e-05
7.29907e-05
-7.0615e-05
9.05503e-05
-7.01084e-05
0.000107929
-6.9409e-05
0.000124886
-6.77032e-05
0.000141318
-6.55838e-05
0.000156997
-6.2565e-05
0.000171816
-5.91445e-05
0.000185521
-5.4715e-05
0.000198028
-4.99364e-05
0.000209136
-4.42672e-05
0.00021878
-3.85173e-05
0.000226777
-3.19276e-05
0.000233149
-2.54125e-05
0.000237704
-1.82344e-05
0.000240521
-1.1242e-05
0.000241483
-3.88502e-06
0.000240662
3.18209e-06
0.000238135
1.01235e-05
0.000233776
1.74822e-05
0.00022775
2.39916e-05
0.000220108
3.05167e-05
0.000211031
3.62144e-05
0.000200587
4.17267e-05
0.000188888
4.66469e-05
0.000176098
5.10692e-05
0.000162316
5.49888e-05
0.000147691
5.84134e-05
0.000132389
6.11041e-05
0.000116542
6.33064e-05
0.000100213
6.5194e-05
8.36326e-05
6.6243e-05
6.68458e-05
6.70569e-05
5.00196e-05
6.71528e-05
3.32776e-05
6.69065e-05
1.66637e-05
6.63817e-05
3.4195e-07
6.52326e-05
-1.57474e-05
6.42859e-05
-3.14035e-05
6.25756e-05
-4.66094e-05
6.07648e-05
-6.13348e-05
5.88575e-05
-7.54678e-05
5.6503e-05
-8.90569e-05
5.43375e-05
-0.000101977
5.1635e-05
-0.000114298
4.92509e-05
-0.000125896
4.64022e-05
-0.000136852
4.37877e-05
-0.000147068
4.08504e-05
-0.000156605
3.81392e-05
-0.000165337
3.4919e-05
-0.00017338
3.21751e-05
-0.000180588
2.88124e-05
-0.000187053
2.58217e-05
-0.000192673
2.24545e-05
-0.000197542
1.95375e-05
-0.000201618
1.62635e-05
-0.000204902
1.30751e-05
-0.000207359
9.82749e-06
-0.000209074
6.75141e-06
-0.000209982
3.64563e-06
-0.000210096
5.80811e-07
-0.000209513
-2.27848e-06
-0.000208112
-5.55047e-06
-0.000206084
-8.12411e-06
-0.000203232
-1.13329e-05
-0.0001998
-1.37351e-05
-0.000195584
-1.68344e-05
-0.000190863
-1.88812e-05
-0.000185396
-2.18688e-05
-0.000179457
-2.38064e-05
-0.000172761
-2.68095e-05
-0.000165698
-2.82129e-05
-0.000157933
-3.10096e-05
-0.000149715
-3.28715e-05
-0.000140909
-3.52041e-05
-0.000131671
-3.70466e-05
-0.000121914
-3.89e-05
-0.000111694
-4.09256e-05
-0.00010099
-4.28074e-05
-8.97808e-05
-4.48136e-05
-7.81131e-05
-4.66658e-05
-6.59117e-05
-4.87621e-05
-5.3288e-05
-5.0533e-05
-4.01484e-05
-5.25132e-05
-2.65648e-05
-5.43373e-05
-1.25044e-05
-5.61809e-05
1.96005e-06
-5.78106e-05
1.68261e-05
-5.93893e-05
3.20072e-05
-6.06705e-05
4.74755e-05
-6.17965e-05
6.31278e-05
-6.25419e-05
7.88949e-05
-6.29866e-05
9.46681e-05
-6.3002e-05
0.000110336
-6.25666e-05
0.000125764
-6.1592e-05
0.000140796
-5.99863e-05
0.000155281
-5.78105e-05
0.000169052
-5.49402e-05
0.000181945
-5.1475e-05
0.000193786
-4.72731e-05
0.000204416
-4.24011e-05
0.000213682
-3.69399e-05
0.000221449
-3.09367e-05
0.000227585
-2.44164e-05
0.000231964
-1.7414e-05
0.000234523
-1.01947e-05
0.000235177
-2.64027e-06
0.000233903
4.93565e-06
0.000230699
1.27923e-05
0.000225573
2.04787e-05
0.000218588
2.78468e-05
0.000209823
3.49377e-05
0.000199379
4.16664e-05
0.000187411
4.77917e-05
0.000174056
5.32991e-05
0.000159456
5.82308e-05
0.000143844
6.22998e-05
0.00012736
6.57925e-05
0.000110256
6.82645e-05
9.26815e-05
7.01865e-05
7.48358e-05
7.12685e-05
5.69118e-05
7.15707e-05
3.90538e-05
7.12725e-05
2.14978e-05
7.01063e-05
4.36505e-06
6.84241e-05
-1.22065e-05
6.6241e-05
-2.81898e-05
6.38947e-05
-4.35272e-05
6.12387e-05
-5.8232e-05
5.87539e-05
-7.20385e-05
5.52085e-05
-8.50332e-05
5.20287e-05
-9.71461e-05
4.84737e-05
-0.000108504
4.54093e-05
-0.000118907
4.16896e-05
-0.000128609
3.88201e-05
-0.0001375
3.5632e-05
-0.00014568
3.26816e-05
-0.000153226
3.01191e-05
-0.000160008
2.72622e-05
-0.00016629
2.51085e-05
-0.000171852
2.23603e-05
-0.000176952
2.03901e-05
-0.000181412
1.79241e-05
-0.000185405
1.59526e-05
-0.000188849
1.37558e-05
-0.000191793
1.17556e-05
-0.000194221
9.71556e-06
-0.000196141
7.73258e-06
-0.000197622
5.85025e-06
-0.000198692
4.21046e-06
-0.000199213
2.09173e-06
-0.000199217
1.47353e-09
-0.000198708
-2.11783e-06
-0.000197566
-4.61473e-06
-0.000195865
-6.87613e-06
-0.00019339
-9.86296e-06
-0.00019037
-1.20956e-05
-0.000186501
-1.54755e-05
-0.000181977
-1.8148e-05
-0.000176551
-2.16345e-05
-0.000170556
-2.39719e-05
-0.000163631
-2.75769e-05
-0.00015608
-3.02318e-05
-0.000147633
-3.3757e-05
-0.000138575
-3.62031e-05
-0.000128619
-3.97008e-05
-0.000117989
-4.24754e-05
-0.000106569
-4.64049e-05
-9.41453e-05
-5.07814e-05
-7.99286e-05
-4.86217e-05
-6.42672e-05
-4.16215e-05
-4.78326e-05
-4.38833e-05
-3.33788e-05
-3.77048e-05
-5.8078e-05
-2.1482e-05
-3.71736e-05
7.70386e-05
-5.18931e-05
7.3514e-05
-6.5952e-05
7.02307e-05
-7.92237e-05
6.63172e-05
-9.17511e-05
6.26153e-05
-0.000103457
5.85259e-05
-0.000114387
5.46546e-05
-0.000124499
5.05847e-05
-0.000133841
4.67428e-05
-0.000142401
4.28494e-05
-0.000150228
3.91867e-05
-0.000157332
3.557e-05
-0.000163753
3.21624e-05
-0.000169509
2.88462e-05
-0.00017464
2.57176e-05
-0.000179168
2.26945e-05
-0.000183123
1.98035e-05
-0.000186521
1.70143e-05
-0.00018937
1.42886e-05
-0.000191699
1.16846e-05
-0.000193514
9.08314e-06
-0.000194823
6.51524e-06
-0.00019563
3.98431e-06
-0.000195938
1.51041e-06
-0.000195752
-9.76431e-07
-0.000195081
-3.36129e-06
-0.000193873
-6.0256e-06
-0.000192181
-8.49696e-06
-0.000189915
-1.13782e-05
-0.000187125
-1.39851e-05
-0.000183682
-1.72529e-05
-0.000179701
-1.99897e-05
-0.000174989
-2.36347e-05
-0.000169628
-2.68135e-05
-0.000163641
-2.99454e-05
-0.000156833
-3.41363e-05
-0.000149352
-3.74805e-05
-0.000140993
-4.1836e-05
-0.00013192
-4.53653e-05
-0.000121934
-4.99416e-05
-0.000111212
-5.3619e-05
-9.95414e-05
-5.83287e-05
-8.71096e-05
-6.19332e-05
-7.38005e-05
-6.65881e-05
-5.98298e-05
-6.97387e-05
-4.50357e-05
-7.39909e-05
-2.96478e-05
-7.68209e-05
-1.35197e-05
-8.05397e-05
3.06202e-06
-8.27536e-05
2.02107e-05
-8.55645e-05
3.77091e-05
-8.72901e-05
5.52861e-05
-8.76573e-05
7.3002e-05
-8.83309e-05
9.05993e-05
-8.77058e-05
0.000108017
-8.68265e-05
0.000125011
-8.46974e-05
0.000141481
-8.20537e-05
0.000157195
-7.82791e-05
0.000172043
-7.39928e-05
0.000185782
-6.84533e-05
0.000198324
-6.24789e-05
0.000209466
-5.54089e-05
0.000219138
-4.81891e-05
0.000227169
-3.99591e-05
0.000233549
-3.1792e-05
0.000238103
-2.27884e-05
0.000240925
-1.40642e-05
0.00024188
-4.83994e-06
0.000241051
4.01064e-06
0.000238517
1.26577e-05
0.000234159
2.18408e-05
0.000228097
3.00535e-05
0.000220438
3.81757e-05
0.000211334
4.53178e-05
0.000200865
5.21962e-05
0.000189135
5.83768e-05
0.000176318
6.38859e-05
0.0001625
6.88072e-05
0.000147848
7.30656e-05
0.000132518
7.64335e-05
0.000116613
7.92115e-05
0.000100284
8.1523e-05
8.3678e-05
8.28491e-05
6.68786e-05
8.38563e-05
5.00009e-05
8.40305e-05
3.32398e-05
8.36676e-05
1.66041e-05
8.30174e-05
2.6679e-07
8.157e-05
-1.58393e-05
8.0392e-05
-3.15085e-05
7.82447e-05
-4.67291e-05
7.59854e-05
-6.14654e-05
7.35938e-05
-7.56053e-05
7.06429e-05
-8.91967e-05
6.79289e-05
-0.000102132
6.45702e-05
-0.000114462
6.1581e-05
-0.000126061
5.80016e-05
-0.000137025
5.47516e-05
-0.000147243
5.10679e-05
-0.000156787
4.7683e-05
-0.000165524
4.36565e-05
-0.000173562
4.02124e-05
-0.000180778
3.60285e-05
-0.000187254
3.22978e-05
-0.000192882
2.80821e-05
-0.000197756
2.44124e-05
-0.000201812
2.03192e-05
-0.000205107
1.63696e-05
-0.000207551
1.2272e-05
-0.000209269
8.46917e-06
-0.000210176
4.55227e-06
-0.000210292
6.96823e-07
-0.000209698
-2.8724e-06
-0.000208298
-6.9507e-06
-0.000206263
-1.01586e-05
-0.000203389
-1.42073e-05
-0.000199975
-1.71484e-05
-0.000195749
-2.10612e-05
-0.000191023
-2.36066e-05
-0.000185547
-2.73452e-05
-0.000179608
-2.97452e-05
-0.000172914
-3.35031e-05
-0.000165843
-3.52846e-05
-0.000158062
-3.87902e-05
-0.000149879
-4.10549e-05
-0.000141054
-4.4029e-05
-0.000131833
-4.62675e-05
-0.000122014
-4.87185e-05
-0.000111825
-5.11147e-05
-0.000101123
-5.35099e-05
-8.99073e-05
-5.60292e-05
-7.8243e-05
-5.833e-05
-6.60548e-05
-6.09504e-05
-5.34223e-05
-6.31654e-05
-4.0273e-05
-6.56625e-05
-2.66853e-05
-6.79249e-05
-1.25969e-05
-7.02693e-05
1.85742e-06
-7.2265e-05
1.67329e-05
-7.42647e-05
3.19281e-05
-7.58657e-05
4.74187e-05
-7.72872e-05
6.30861e-05
-7.82093e-05
7.88781e-05
-7.87786e-05
9.46792e-05
-7.88031e-05
0.000110375
-7.82625e-05
0.000125835
-7.70519e-05
0.000140908
-7.50593e-05
0.000155435
-7.23373e-05
0.000169245
-6.87505e-05
0.000182167
-6.43971e-05
0.000194036
-5.91418e-05
0.000204703
-5.30684e-05
0.000214013
-4.62495e-05
0.000221798
-3.87219e-05
0.000227952
-3.05708e-05
0.000232362
-2.18232e-05
0.000234942
-1.27748e-05
0.000235594
-3.29294e-06
0.000234306
6.22338e-06
0.000231102
1.59971e-05
0.000225979
2.56016e-05
0.000218964
3.48617e-05
0.000210164
4.3738e-05
0.000199694
5.2136e-05
0.000187712
5.97735e-05
0.0001743
6.67114e-05
0.000159661
7.28698e-05
0.000144009
7.79518e-05
0.000127481
8.23201e-05
0.000110332
8.5414e-05
9.27139e-05
8.78044e-05
7.48307e-05
8.91517e-05
5.68728e-05
8.95286e-05
3.89778e-05
8.91675e-05
2.13971e-05
8.76871e-05
4.25128e-06
8.55699e-05
-1.23604e-05
8.28527e-05
-2.83652e-05
7.98995e-05
-4.37372e-05
7.66107e-05
-5.84558e-05
7.34724e-05
-7.22459e-05
6.89986e-05
-8.52268e-05
6.50096e-05
-9.73583e-05
6.06052e-05
-0.000108713
5.67637e-05
-0.000119091
5.2068e-05
-0.000128802
4.85307e-05
-0.000137665
4.44951e-05
-0.000145854
4.08709e-05
-0.000153397
3.76616e-05
-0.000160167
3.40326e-05
-0.000166455
3.13959e-05
-0.000171988
2.78936e-05
-0.000177105
2.55075e-05
-0.000181543
2.2362e-05
-0.000185541
1.99509e-05
-0.000188985
1.71992e-05
-0.000191913
1.46842e-05
-0.000194363
1.21648e-05
-0.000196251
9.62071e-06
-0.000197771
7.37073e-06
-0.000198835
5.27377e-06
-0.000199332
2.58874e-06
-0.000199372
4.23003e-08
-0.000198856
-2.63432e-06
-0.000197715
-5.75614e-06
-0.000196048
-8.54302e-06
-0.000193569
-1.23416e-05
-0.000190549
-1.51154e-05
-0.000186665
-1.93593e-05
-0.000182169
-2.26444e-05
-0.000176758
-2.7046e-05
-0.000170735
-2.99949e-05
-0.000163793
-3.45189e-05
-0.000156272
-3.7752e-05
-0.000147843
-4.2186e-05
-0.000138772
-4.5274e-05
-0.00012877
-4.97028e-05
-0.000118132
-5.31135e-05
-0.000106679
-5.78583e-05
-9.42486e-05
-6.32114e-05
-8.00287e-05
-6.28416e-05
-6.388e-05
-5.77702e-05
-4.6952e-05
-6.08113e-05
-3.16117e-05
-5.30451e-05
-6.96608e-05
-2.00288e-05
-3.73581e-05
9.24854e-05
-5.20913e-05
8.82472e-05
-6.61604e-05
8.42999e-05
-7.94395e-05
7.95963e-05
-9.19698e-05
7.51455e-05
-0.000103676
7.02317e-05
-0.000114602
6.55808e-05
-0.000124711
6.06942e-05
-0.000134048
5.60799e-05
-0.000142604
5.14048e-05
-0.000150425
4.70078e-05
-0.00015752
4.26658e-05
-0.000163932
3.85739e-05
-0.000169682
3.45965e-05
-0.000174808
3.08428e-05
-0.000179329
2.72164e-05
-0.000183281
2.3755e-05
-0.000186672
2.04058e-05
-0.000189516
1.71323e-05
-0.000191836
1.40042e-05
-0.000193639
1.08861e-05
-0.000194956
7.83235e-06
-0.000195759
4.78793e-06
-0.000196056
1.80663e-06
-0.000195889
-1.14261e-06
-0.000195222
-4.02922e-06
-0.000194018
-7.22868e-06
-0.00019233
-1.0185e-05
-0.000190068
-1.36406e-05
-0.000187287
-1.67657e-05
-0.000183851
-2.06891e-05
-0.000179892
-2.39491e-05
-0.000175182
-2.83448e-05
-0.000169826
-3.21697e-05
-0.000163831
-3.594e-05
-0.000157048
-4.09194e-05
-0.000149578
-4.49505e-05
-0.000141222
-5.01915e-05
-0.000132151
-5.44365e-05
-0.000122166
-5.99266e-05
-0.000111448
-6.43368e-05
-9.97745e-05
-7.00025e-05
-8.73365e-05
-7.43712e-05