/*--------------------------------*- C++ -*----------------------------------*\
| =========                 |                                                 |
| \\      /  F ield         | OpenFOAM: The Open Source CFD Toolbox           |
|  \\    /   O peration     | Version:  3.0.1                                 |
|   \\  /    A nd           | Web:      www.OpenFOAM.org                      |
|    \\/     M anipulation  |                                                 |
\*---------------------------------------------------------------------------*/
FoamFile
{
    version     2.0;
    format      ascii;
    class       volScalarField;
    location    "21.8";
    object      p;
}
// * * * * * * * * * * * * * * * * * * * * * * * * * * * * * * * * * * * * * //

dimensions      [1 -1 -2 0 0 0 0];

internalField   nonuniform List<scalar> 
21420
(
3549.38
3542.98
3538.03
3534.51
3532.47
3531.9
3532.74
3535.06
3538.87
3544.19
3551.04
3559.48
3569.53
3581.26
3594.71
3609.95
3627.02
3645.93
3666.72
3689.38
3713.88
3740.18
3768.21
3797.85
3828.97
3861.37
3894.35
3928.42
3963.04
3997.78
4032.25
4066.08
4098.86
4130.17
4159.58
4186.69
4211.15
4232.61
4250.78
4265.4
4276.28
4283.28
4286.24
4285.13
4279.95
4270.83
4257.85
4241.26
4221.28
4198.18
4172.3
4143.99
4113.63
4081.63
4048.38
4014.32
3979.83
3945.32
3911.29
3878.1
3845.58
3813.95
3783.51
3754.47
3726.98
3701.16
3677.11
3654.86
3634.47
3615.94
3599.28
3584.48
3571.53
3560.42
3551.11
3543.6
3537.85
3533.83
3531.55
3530.97
3532.02
3534.71
3539
3544.85
3552.26
3561.2
3571.63
3583.54
3596.93
3611.78
3628.08
3645.87
3665.13
3685.9
3708.16
3731.91
3757.13
3783.79
3811.8
3841.06
3871.43
3902.76
3934.77
3967.22
3999.84
4032.3
4064.27
4095.38
4125.27
4153.54
4179.83
4203.75
4224.95
4243.08
4257.85
4268.97
4276.23
4279.42
4278.53
4273.46
4264.3
4251.13
4234.14
4213.6
4189.8
4163.12
4133.94
4102.71
4069.86
4035.86
4001.16
3966.19
3931.38
3897.12
3863.74
3831.56
3800.83
3771.74
3744.44
3719.02
3695.53
3673.99
3654.37
3636.64
3620.72
3606.56
3594.08
3583.21
3573.89
3566.05
3559.65
3554.66
3551.04
3548.77
3547.88
3548.38
3550.23
3553.49
3558.2
3564.38
3572.07
3581.33
3592.2
3604.7
3618.89
3634.79
3652.4
3671.75
3692.82
3715.58
3740
3766.01
3793.52
3822.4
3852.51
3883.65
3915.71
3948.23
3981.03
4013.76
4046.09
4077.64
4108.01
4136.81
4163.65
4188.15
4209.96
4228.75
4244.24
4256.21
4264.45
4268.87
4269.3
4265.85
4258.55
4247.44
4232.72
4214.6
4193.34
4169.23
4142.62
4113.88
4083.39
4051.54
4018.73
3985.36
3951.79
3918.38
3885.48
3853.37
3822.32
3792.56
3764.29
3737.63
3712.72
3689.62
3668.38
3649.02
3631.54
3615.89
3602.07
3589.99
3579.61
3570.88
3563.71
3558.06
3553.86
3551.05
3549.62
3549.57
3550.79
3553.32
3557.17
3562.35
3568.89
3576.82
3586.21
3597.1
3609.56
3623.64
3639.42
3656.94
3676.24
3697.34
3720.27
3744.97
3771.38
3799.4
3828.86
3859.59
3891.35
3923.83
3956.71
3989.65
4022.27
4054.16
4084.9
4114.09
4141.34
4166.27
4188.54
4207.84
4223.91
4236.54
4245.58
4250.92
4252.47
4250.34
4244.5
4235.08
4222.22
4206.12
4187
4165.11
4140.72
4114.13
4085.64
4055.56
4024.24
3991.98
3959.1
3925.92
3892.79
3863.82
3831.93
3801
3771.28
3742.96
3716.2
3691.13
3667.85
3646.46
3627
3609.51
3594
3580.45
3568.85
3559.16
3551.32
3545.29
3541
3538.42
3537.5
3538.13
3540.3
3543.94
3548.99
3555.42
3563.18
3572.26
3582.63
3594.3
3607.25
3621.5
3637.05
3653.91
3672.11
3691.64
3712.51
3734.71
3758.2
3782.94
3808.86
3835.71
3863.39
3891.93
3921.04
3950.51
3980.05
4009.35
4038.11
4065.98
4092.58
4117.6
4140.66
4161.42
4179.53
4194.7
4206.66
4215.19
4220.11
4221.19
4218.31
4211.55
4201.09
4186.98
4169.46
4148.76
4125.2
4099.17
4071.06
4041.31
4010.37
3978.72
3946.98
3915.83
3886.7
3451.22
3444.82
3439.87
3436.35
3434.31
3433.75
3434.58
3436.9
3440.71
3446.03
3452.88
3461.31
3471.36
3483.09
3496.54
3511.78
3528.84
3547.75
3568.53
3591.2
3615.7
3642
3670.03
3699.67
3730.79
3763.2
3796.19
3830.28
3864.91
3899.66
3934.15
3968
4000.79
4032.12
4061.55
4088.68
4113.16
4134.63
4152.81
4167.45
4178.33
4185.33
4188.31
4187.18
4182
4172.87
4159.89
4143.29
4123.29
4100.17
4074.27
4045.94
4015.57
3983.56
3950.29
3916.21
3881.71
3847.18
3813.15
3779.95
3747.42
3715.78
3685.34
3656.29
3628.8
3602.98
3578.92
3556.68
3536.29
3517.76
3501.1
3486.3
3473.36
3462.25
3452.94
3445.43
3439.68
3435.67
3433.38
3432.8
3433.86
3436.55
3440.84
3446.69
3454.1
3463.04
3473.46
3485.38
3498.77
3513.61
3529.92
3547.7
3566.97
3587.73
3609.99
3633.74
3658.96
3685.62
3713.64
3742.9
3773.27
3804.61
3836.63
3869.09
3901.72
3934.2
3966.18
3997.31
4027.21
4055.5
4081.8
4105.74
4126.96
4145.11
4159.89
4171.02
4178.29
4181.49
4180.59
4175.52
4166.35
4153.17
4136.17
4115.61
4091.8
4065.09
4035.9
4004.64
3971.78
3937.76
3903.04
3868.06
3833.23
3798.96
3765.57
3733.39
3702.65
3673.55
3646.25
3620.83
3597.35
3575.81
3556.19
3538.46
3522.55
3508.39
3495.92
3485.05
3475.73
3467.89
3461.5
3456.5
3452.88
3450.62
3449.73
3450.22
3452.08
3455.34
3460.04
3466.22
3473.91
3483.17
3494.03
3506.54
3520.72
3536.61
3554.23
3573.57
3594.64
3617.41
3641.83
3667.84
3695.35
3724.23
3754.34
3785.5
3817.56
3850.1
3882.9
3915.65
3948
3979.56
4009.94
4038.76
4065.62
4090.14
4111.96
4130.77
4146.28
4158.25
4166.5
4170.92
4171.35
4167.9
4160.59
4149.48
4134.75
4116.61
4095.33
4071.21
4044.59
4015.83
3985.32
3953.45
3920.63
3887.24
3853.66
3820.24
3787.32
3755.21
3724.15
3694.39
3666.11
3639.45
3614.53
3591.44
3570.2
3550.84
3533.36
3517.72
3503.89
3491.82
3481.45
3472.71
3465.55
3459.9
3455.71
3452.9
3451.47
3451.42
3452.64
3455.17
3459.02
3464.19
3470.73
3478.66
3488.05
3498.94
3511.39
3525.47
3541.24
3558.76
3578.06
3599.16
3622.08
3646.78
3673.2
3701.22
3730.69
3761.42
3793.2
3825.69
3858.58
3891.54
3924.17
3956.08
3986.84
4016.05
4043.31
4068.26
4090.54
4109.85
4125.94
4138.58
4147.62
4152.96
4154.52
4152.38
4146.53
4137.11
4124.24
4108.13
4089
4067.09
4042.7
4016.09
3987.58
3957.49
3926.15
3893.88
3860.99
3827.8
3794.66
3765.67
3733.77
3702.83
3673.11
3644.78
3618.02
3592.94
3569.67
3548.28
3528.82
3511.33
3495.82
3482.27
3470.67
3460.98
3453.15
3447.13
3442.83
3440.26
3439.34
3439.97
3442.14
3445.79
3450.84
3457.27
3465.03
3474.11
3484.48
3496.14
3509.09
3523.34
3538.89
3555.76
3573.95
3593.48
3614.35
3636.55
3660.04
3684.78
3710.7
3737.56
3765.25
3793.79
3822.91
3852.39
3881.94
3911.25
3940.03
3967.9
3994.52
4019.56
4042.63
4063.41
4081.54
4096.72
4108.69
4117.23
4122.16
4123.25
4120.36
4113.6
4103.13
4089.01
4071.47
4050.75
4027.18
4001.14
3973
3943.24
3912.27
3880.61
3848.86
3817.7
3788.55
3353
3346.61
3341.66
3338.14
3336.1
3335.53
3336.36
3338.68
3342.5
3347.81
3354.66
3363.08
3373.13
3384.85
3398.29
3413.52
3430.58
3449.49
3470.27
3492.93
3517.43
3543.73
3571.76
3601.42
3632.55
3664.97
3697.99
3732.09
3766.74
3801.53
3836.04
3869.93
3902.76
3934.12
3963.59
3990.76
4015.26
4036.77
4054.98
4069.63
4080.53
4087.55
4090.54
4089.38
4084.2
4075.06
4062.06
4045.43
4025.41
4002.25
3976.32
3947.96
3917.55
3885.5
3852.2
3818.08
3783.55
3749.01
3714.96
3681.74
3649.19
3617.54
3587.09
3558.03
3530.54
3504.72
3480.66
3458.42
3438.03
3419.5
3402.84
3388.05
3375.11
3364
3354.7
3347.19
3341.44
3337.43
3335.15
3334.57
3335.63
3338.32
3342.61
3348.46
3355.88
3364.82
3375.24
3387.16
3400.54
3415.39
3431.69
3449.47
3468.73
3489.49
3511.75
3535.5
3560.72
3587.38
3615.4
3644.68
3675.06
3706.41
3738.44
3770.93
3803.58
3836.09
3868.1
3899.26
3929.19
3957.52
3983.86
4007.83
4029.08
4047.26
4062.06
4073.22
4080.5
4083.72
4082.8
4077.74
4068.56
4055.35
4038.33
4017.74
3993.89
3967.15
3937.91
3906.62
3873.71
3839.66
3804.9
3769.89
3735.04
3700.74
3667.34
3635.13
3604.38
3575.28
3547.98
3522.56
3499.08
3477.54
3457.93
3440.21
3424.3
3410.15
3397.68
3386.82
3377.51
3369.67
3363.28
3358.29
3354.67
3352.41
3351.53
3352.01
3353.86
3357.12
3361.82
3368
3375.68
3384.94
3395.79
3408.3
3422.48
3438.37
3455.98
3475.32
3496.39
3519.15
3543.58
3569.59
3597.1
3626
3656.12
3687.29
3719.37
3751.93
3784.75
3817.53
3849.91
3881.5
3911.92
3940.77
3967.67
3992.22
4014.08
4032.91
4048.44
4060.44
4068.7
4073.13
4073.57
4070.1
4062.78
4051.65
4036.9
4018.74
3997.43
3973.27
3946.62
3917.82
3887.28
3855.38
3822.52
3789.1
3755.49
3722.05
3689.11
3656.98
3625.91
3596.14
3567.85
3541.19
3516.27
3493.17
3471.93
3452.58
3435.1
3419.47
3405.65
3393.58
3383.21
3374.49
3367.33
3361.68
3357.49
3354.69
3353.26
3353.21
3354.43
3356.97
3360.81
3365.98
3372.52
3380.45
3389.82
3400.71
3413.15
3427.23
3442.99
3460.5
3479.8
3500.9
3523.82
3548.52
3574.94
3602.97
3632.45
3663.2
3694.99
3727.5
3760.43
3793.41
3826.08
3858.02
3888.81
3918.06
3945.36
3970.34
3992.65
4011.99
4028.09
4040.75
4049.81
4055.16
4056.72
4054.56
4048.71
4039.27
4026.39
4010.26
3991.1
3969.16
3944.74
3918.1
3889.56
3859.45
3828.08
3795.78
3762.87
3729.65
3696.48
3667.47
3635.55
3604.6
3574.86
3546.53
3519.75
3494.68
3471.4
3450.01
3430.55
3413.06
3397.55
3384.02
3372.42
3362.73
3354.91
3348.89
3344.6
3342.03
3341.11
3341.75
3343.93
3347.57
3352.63
3359.06
3366.82
3375.9
3386.27
3397.93
3410.88
3425.13
3440.68
3457.54
3475.73
3495.25
3516.12
3538.32
3561.82
3586.56
3612.48
3639.35
3667.05
3695.6
3724.74
3754.24
3783.82
3813.15
3841.95
3869.86
3896.51
3921.58
3944.69
3965.49
3983.66
3998.86
4010.85
4019.41
4024.35
4025.47
4022.55
4015.79
4005.3
3991.16
3973.59
3952.85
3929.24
3903.16
3874.98
3845.18
3814.19
3782.49
3750.71
3719.52
3690.36
3254.72
3248.33
3243.39
3239.87
3237.84
3237.26
3238.09
3240.41
3244.22
3249.52
3256.37
3264.78
3274.82
3286.54
3299.97
3315.19
3332.25
3351.15
3371.92
3394.58
3419.08
3445.39
3473.42
3503.09
3534.23
3566.68
3599.72
3633.86
3668.55
3703.38
3737.94
3771.88
3804.76
3836.18
3865.7
3892.92
3917.48
3939.03
3957.27
3971.96
3982.89
3989.91
3992.93
3991.74
3986.56
3977.39
3964.36
3947.7
3927.63
3904.43
3878.45
3850.03
3819.57
3787.47
3754.11
3719.95
3685.37
3650.79
3616.72
3583.48
3550.91
3519.23
3488.77
3459.7
3432.2
3406.38
3382.32
3360.08
3339.69
3321.17
3304.51
3289.72
3276.79
3265.68
3256.38
3248.87
3243.14
3239.13
3236.85
3236.28
3237.33
3240.03
3244.32
3250.18
3257.6
3266.53
3276.96
3288.87
3302.26
3317.1
3333.4
3351.18
3370.44
3391.19
3413.44
3437.19
3462.41
3489.08
3517.11
3546.39
3576.78
3608.16
3640.22
3672.74
3705.43
3737.97
3770.03
3801.24
3831.22
3859.6
3885.99
3910.01
3931.31
3949.54
3964.38
3975.57
3982.87
3986.12
3985.18
3980.11
3970.91
3957.68
3940.62
3919.98
3896.08
3869.28
3839.98
3808.63
3775.67
3741.56
3706.75
3671.69
3636.8
3602.46
3569.03
3536.8
3506.04
3476.92
3449.61
3424.2
3400.72
3379.19
3359.59
3341.88
3325.98
3311.84
3299.39
3288.54
3279.23
3271.4
3265.02
3260.03
3256.41
3254.15
3253.27
3253.75
3255.6
3258.85
3263.54
3269.71
3277.4
3286.64
3297.49
3309.99
3324.17
3340.05
3357.65
3376.99
3398.06
3420.83
3445.25
3471.27
3498.79
3527.7
3557.84
3589.03
3621.12
3653.72
3686.58
3719.4
3751.82
3783.46
3813.94
3842.84
3869.79
3894.39
3916.3
3935.18
3950.74
3962.76
3971.05
3975.48
3975.94
3972.45
3965.12
3953.96
3939.18
3920.98
3899.62
3875.42
3848.71
3819.86
3789.26
3757.31
3724.41
3690.94
3657.3
3623.82
3590.85
3558.69
3527.6
3497.81
3469.51
3442.84
3417.92
3394.82
3373.59
3354.24
3336.77
3321.14
3307.33
3295.28
3284.92
3276.2
3269.05
3263.41
3259.23
3256.42
3255.01
3254.96
3256.18
3258.71
3262.55
3267.72
3274.25
3282.17
3291.54
3302.41
3314.85
3328.91
3344.67
3362.17
3381.46
3402.55
3425.47
3450.17
3476.6
3504.64
3534.14
3564.91
3596.73
3629.28
3662.24
3695.27
3727.99
3759.98
3790.82
3820.13
3847.48
3872.51
3894.87
3914.24
3930.38
3943.07
3952.14
3957.49
3959.08
3956.88
3951.03
3941.56
3928.65
3912.49
3893.29
3871.32
3846.85
3820.17
3791.59
3761.43
3730.02
3697.69
3664.73
3631.48
3598.27
3569.22
3537.27
3506.29
3476.54
3448.2
3421.41
3396.33
3373.05
3351.66
3332.2
3314.71
3299.21
3285.68
3274.09
3264.41
3256.59
3250.58
3246.3
3243.74
3242.82
3243.47
3245.65
3249.31
3254.36
3260.8
3268.56
3277.64
3288.01
3299.67
3312.62
3326.86
3342.4
3359.26
3377.45
3396.97
3417.84
3440.04
3463.53
3488.28
3514.2
3541.09
3568.8
3597.38
3626.53
3656.07
3685.68
3715.05
3743.9
3771.85
3798.55
3823.66
3846.82
3867.67
3885.88
3901.12
3913.15
3921.73
3926.68
3927.83
3924.89
3918.13
3907.61
3893.45
3875.83
3855.04
3831.38
3805.24
3777.01
3747.15
3716.1
3684.36
3652.54
3621.31
3592.12
3156.37
3150
3145.06
3141.55
3139.51
3138.93
3139.76
3142.07
3145.88
3151.18
3158.01
3166.42
3176.45
3188.15
3201.58
3216.79
3233.83
3252.73
3273.49
3296.15
3320.65
3346.96
3375
3404.68
3435.84
3468.31
3501.41
3535.58
3570.33
3605.21
3639.83
3673.84
3706.79
3738.28
3767.88
3795.17
3819.8
3841.41
3859.71
3874.43
3885.39
3892.44
3895.46
3894.27
3889.07
3879.87
3866.8
3850.09
3829.97
3806.7
3780.65
3752.16
3721.63
3689.45
3656.03
3621.8
3587.17
3552.54
3518.44
3485.16
3452.56
3420.86
3390.37
3361.29
3333.78
3307.95
3283.89
3261.65
3241.27
3222.75
3206.1
3191.32
3178.39
3167.29
3158
3150.49
3144.76
3140.76
3138.49
3137.91
3138.97
3141.67
3145.97
3151.83
3159.25
3168.19
3178.62
3190.53
3203.91
3218.75
3235.05
3252.82
3272.07
3292.81
3315.06
3338.81
3364.03
3390.7
3418.74
3448.04
3478.46
3509.86
3541.96
3574.51
3607.25
3639.85
3671.97
3703.24
3733.29
3761.74
3788.2
3812.29
3833.65
3851.94
3866.84
3878.07
3885.4
3888.68
3887.73
3882.65
3873.42
3860.15
3843.03
3822.33
3798.36
3771.48
3742.11
3710.68
3677.64
3643.45
3608.58
3573.45
3538.51
3504.12
3470.65
3438.4
3407.61
3378.48
3351.17
3325.75
3302.28
3280.76
3261.17
3243.47
3227.59
3213.47
3201.03
3190.19
3180.89
3173.07
3166.69
3161.71
3158.09
3155.84
3154.95
3155.43
3157.28
3160.53
3165.21
3171.37
3179.05
3188.28
3199.12
3211.61
3225.78
3241.66
3259.26
3278.59
3299.66
3322.42
3346.85
3372.87
3400.41
3429.33
3459.49
3490.71
3522.84
3555.47
3588.39
3621.26
3653.74
3685.45
3715.99
3744.97
3771.98
3796.66
3818.62
3837.56
3853.18
3865.24
3873.55
3877.99
3878.46
3874.96
3867.6
3856.41
3841.58
3823.33
3801.91
3777.64
3750.86
3721.94
3691.28
3659.26
3626.3
3592.77
3559.07
3525.54
3492.53
3460.34
3429.22
3399.41
3371.09
3344.41
3319.49
3296.39
3275.16
3255.82
3238.36
3222.74
3208.94
3196.9
3186.55
3177.85
3170.71
3165.07
3160.9
3158.11
3156.7
3156.65
3157.87
3160.4
3164.24
3169.4
3175.92
3183.84
3193.19
3204.06
3216.48
3230.53
3246.27
3263.76
3283.04
3304.13
3327.04
3351.75
3378.19
3406.23
3435.75
3466.56
3498.42
3531.01
3564.03
3597.12
3629.9
3661.95
3692.87
3722.25
3749.67
3774.77
3797.19
3816.62
3832.8
3845.52
3854.61
3859.98
3861.57
3859.36
3853.48
3843.99
3831.04
3814.83
3795.59
3773.56
3749.04
3722.3
3693.66
3663.44
3631.98
3599.59
3566.59
3533.29
3500.03
3470.91
3438.92
3407.92
3378.15
3349.79
3322.99
3297.9
3274.61
3253.22
3233.76
3216.28
3200.78
3187.26
3175.68
3166.01
3158.2
3152.2
3147.94
3145.39
3144.47
3145.13
3147.32
3150.98
3156.05
3162.48
3170.25
3179.33
3189.7
3201.36
3214.3
3228.54
3244.07
3260.92
3279.1
3298.62
3319.49
3341.68
3365.18
3389.93
3415.87
3442.78
3470.5
3499.1
3528.3
3557.87
3587.53
3616.95
3645.85
3673.87
3700.63
3725.8
3749.03
3769.94
3788.21
3803.51
3815.57
3824.19
3829.17
3830.35
3827.4
3820.62
3810.06
3795.85
3778.19
3757.33
3733.6
3707.39
3679.08
3649.15
3618.03
3586.21
3554.33
3523.06
3493.82
3057.97
3051.6
3046.67
3043.17
3041.13
3040.54
3041.37
3043.68
3047.48
3052.77
3059.6
3068
3078.01
3089.7
3103.11
3118.31
3135.33
3154.22
3174.98
3197.63
3222.13
3248.45
3276.5
3306.19
3337.38
3369.88
3403.04
3437.26
3472.07
3507.02
3541.72
3575.81
3608.85
3640.44
3670.13
3697.51
3722.22
3743.91
3762.27
3777.05
3788.05
3795.12
3798.15
3796.96
3791.74
3782.5
3769.38
3752.61
3732.41
3709.06
3682.93
3654.35
3623.73
3591.46
3557.95
3523.64
3488.93
3454.25
3420.11
3386.79
3354.14
3322.41
3291.9
3262.8
3235.27
3209.44
3185.38
3163.15
3142.77
3124.25
3107.62
3092.84
3079.92
3068.82
3059.54
3052.04
3046.31
3042.32
3040.06
3039.48
3040.55
3043.25
3047.56
3053.42
3060.85
3069.79
3080.21
3092.13
3105.51
3120.34
3136.63
3154.39
3173.64
3194.38
3216.62
3240.36
3265.59
3292.26
3320.31
3349.63
3380.07
3411.51
3443.65
3476.26
3509.06
3541.73
3573.92
3605.27
3635.4
3663.94
3690.48
3714.66
3736.11
3754.47
3769.43
3780.72
3788.09
3791.39
3790.45
3785.36
3776.09
3762.76
3745.58
3724.8
3700.74
3673.77
3644.29
3612.76
3579.63
3545.35
3510.39
3475.19
3440.17
3405.72
3372.2
3339.91
3309.1
3279.95
3252.63
3227.21
3203.75
3182.24
3162.67
3144.99
3129.13
3115.02
3102.6
3091.77
3082.49
3074.68
3068.31
3063.34
3059.72
3057.47
3056.58
3057.06
3058.9
3062.14
3066.82
3072.97
3080.63
3089.86
3100.69
3113.16
3127.32
3143.19
3160.78
3180.11
3201.17
3223.94
3248.37
3274.41
3301.95
3330.89
3361.08
3392.34
3424.5
3457.19
3490.17
3523.11
3555.67
3587.45
3618.08
3647.15
3674.25
3699.01
3721.06
3740.07
3755.75
3767.85
3776.2
3780.66
3781.14
3777.62
3770.23
3759
3744.11
3725.79
3704.3
3679.95
3653.08
3624.08
3593.32
3561.22
3528.18
3494.58
3460.81
3427.22
3394.16
3361.92
3330.77
3300.93
3272.59
3245.9
3220.97
3197.87
3176.65
3157.31
3139.86
3124.26
3110.48
3098.45
3088.12
3079.43
3072.3
3066.69
3062.52
3059.74
3058.34
3058.29
3059.51
3062.04
3065.88
3071.03
3077.54
3085.44
3094.79
3105.63
3118.04
3132.07
3147.8
3165.27
3184.54
3205.62
3228.53
3253.24
3279.69
3307.75
3337.3
3368.14
3400.05
3432.7
3465.78
3498.95
3531.81
3563.95
3594.96
3624.42
3651.94
3677.12
3699.61
3719.11
3735.35
3748.11
3757.23
3762.61
3764.2
3761.99
3756.08
3746.55
3733.55
3717.29
3697.98
3675.89
3651.29
3624.48
3595.77
3565.48
3533.95
3501.49
3468.43
3435.08
3401.75
3372.55
3340.52
3309.48
3279.68
3251.3
3224.49
3199.39
3176.09
3154.69
3135.24
3117.77
3102.28
3088.76
3077.2
3067.54
3059.74
3053.75
3049.51
3046.97
3046.06
3046.74
3048.94
3052.6
3057.67
3064.11
3071.88
3080.96
3091.33
3102.99
3115.92
3130.16
3145.69
3162.53
3180.7
3200.21
3221.07
3243.27
3266.77
3291.53
3317.48
3344.41
3372.16
3400.79
3430.02
3459.65
3489.36
3518.85
3547.82
3575.91
3602.75
3628.01
3651.31
3672.31
3690.65
3706.01
3718.13
3726.79
3731.8
3733
3730.05
3723.25
3712.65
3698.39
3680.65
3659.72
3635.9
3609.59
3581.19
3551.17
3519.95
3488.06
3456.11
3424.77
3395.49
2959.51
2953.15
2948.22
2944.73
2942.69
2942.1
2942.92
2945.23
2949.03
2954.31
2961.12
2969.5
2979.5
2991.18
3004.57
3019.75
3036.76
3055.63
3076.39
3099.03
3123.53
3149.85
3177.92
3207.63
3238.84
3271.38
3304.61
3338.9
3373.78
3408.81
3443.61
3477.8
3510.95
3542.65
3572.45
3599.94
3624.75
3646.53
3664.97
3679.81
3690.86
3697.95
3701
3699.81
3694.55
3685.27
3672.09
3655.25
3634.96
3611.52
3585.28
3556.59
3525.86
3493.49
3459.88
3425.47
3390.67
3355.91
3321.73
3288.37
3255.67
3223.9
3193.35
3164.23
3136.69
3110.86
3086.79
3064.56
3044.19
3025.68
3009.05
2994.28
2981.37
2970.29
2961.01
2953.52
2947.8
2943.81
2941.56
2940.99
2942.07
2944.77
2949.08
2954.95
2962.38
2971.32
2981.75
2993.66
3007.04
3021.87
3038.16
3055.91
3075.14
3095.87
3118.1
3141.84
3167.07
3193.74
3221.81
3251.15
3281.63
3313.11
3345.3
3377.98
3410.85
3443.6
3475.87
3507.32
3537.56
3566.19
3592.84
3617.13
3638.67
3657.12
3672.17
3683.52
3690.94
3694.26
3693.34
3688.22
3678.91
3665.52
3648.26
3627.38
3603.21
3576.12
3546.53
3514.88
3481.63
3447.24
3412.18
3376.88
3341.78
3307.26
3273.69
3241.35
3210.5
3181.34
3154.01
3128.59
3105.14
3083.65
3064.09
3046.43
3030.59
3016.51
3004.1
2993.3
2984.03
2976.24
2969.88
2964.91
2961.3
2959.05
2958.16
2958.63
2960.47
2963.7
2968.37
2974.5
2982.16
2991.37
3002.18
3014.65
3028.79
3044.65
3062.23
3081.56
3102.62
3125.38
3149.81
3175.86
3203.42
3232.39
3262.61
3293.91
3326.12
3358.87
3391.92
3424.95
3457.59
3489.48
3520.21
3549.38
3576.6
3601.46
3623.6
3642.7
3658.45
3670.61
3679
3683.48
3683.96
3680.44
3673.01
3661.72
3646.77
3628.37
3606.78
3582.33
3555.36
3526.25
3495.4
3463.2
3430.05
3396.36
3362.51
3328.85
3295.73
3263.44
3232.24
3202.37
3174.01
3147.31
3122.37
3099.27
3078.05
3058.73
3041.3
3025.71
3011.94
2999.94
2989.62
2980.95
2973.84
2968.24
2964.09
2961.31
2959.93
2959.88
2961.1
2963.63
2967.46
2972.61
2979.11
2986.99
2996.32
3007.15
3019.53
3033.55
3049.25
3066.71
3085.96
3107.03
3129.94
3154.65
3181.11
3209.2
3238.78
3269.66
3301.62
3334.34
3367.51
3400.76
3433.72
3465.97
3497.09
3526.66
3554.27
3579.55
3602.14
3621.72
3638.03
3650.84
3660
3665.4
3666.98
3664.76
3658.82
3649.24
3636.19
3619.86
3600.47
3578.3
3553.62
3526.72
3497.92
3467.55
3435.94
3403.4
3370.26
3336.84
3303.44
3274.14
3242.05
3210.97
3181.15
3152.74
3125.9
3100.79
3077.49
3056.09
3036.64
3019.17
3003.69
2990.19
2978.63
2968.99
2961.21
2955.24
2951.01
2948.49
2947.59
2948.28
2950.49
2954.17
2959.25
2965.69
2973.47
2982.54
2992.92
3004.56
3017.49
3031.72
3047.24
3064.08
3082.24
3101.74
3122.6
3144.79
3168.3
3193.06
3219.02
3245.99
3273.76
3302.43
3331.72
3361.4
3391.18
3420.75
3449.8
3477.98
3504.92
3530.27
3553.67
3574.76
3593.19
3608.63
3620.82
3629.53
3634.57
3635.8
3632.86
3626.02
3615.38
3601.05
3583.23
3562.2
3538.28
3511.86
3483.34
3453.21
3421.89
3389.89
3357.86
3326.44
3297.1
2860.98
2854.63
2849.72
2846.23
2844.2
2843.6
2844.42
2846.73
2850.51
2855.78
2862.58
2870.95
2880.93
2892.58
2905.96
2921.11
2938.11
2956.97
2977.71
3000.35
3024.85
3051.17
3079.25
3108.99
3140.23
3172.81
3206.13
3240.49
3275.45
3310.59
3345.49
3379.81
3413.08
3444.91
3474.84
3502.45
3527.38
3549.27
3567.8
3582.72
3593.82
3600.95
3604.01
3602.81
3597.53
3588.19
3574.94
3558.01
3537.63
3514.07
3487.7
3458.89
3428.04
3395.54
3361.81
3327.28
3292.38
3257.54
3223.31
3189.89
3157.13
3125.31
3094.73
3065.59
3038.03
3012.19
2988.12
2965.89
2945.52
2927.03
2910.41
2895.65
2882.75
2871.68
2862.41
2854.93
2849.22
2845.24
2842.99
2842.43
2843.51
2846.23
2850.54
2856.42
2863.85
2872.79
2883.23
2895.13
2908.51
2923.33
2939.61
2957.35
2976.58
2997.29
3019.52
3043.25
3068.48
3095.16
3123.24
3152.61
3183.13
3214.66
3246.91
3279.66
3312.62
3345.46
3377.84
3409.4
3439.75
3468.51
3495.28
3519.69
3541.35
3559.91
3575.04
3586.47
3593.95
3597.29
3596.39
3591.24
3581.88
3568.42
3551.07
3530.08
3505.78
3478.56
3448.83
3417.04
3383.65
3349.13
3313.95
3278.54
3243.34
3208.74
3175.1
3142.71
3111.82
3082.64
3055.29
3029.88
3006.44
2984.96
2965.43
2947.79
2931.98
2917.92
2905.55
2894.76
2885.51
2877.74
2871.39
2866.43
2862.82
2860.58
2859.69
2860.15
2861.98
2865.2
2869.86
2875.98
2883.62
2892.81
2903.61
2916.06
2930.2
2946.04
2963.61
2982.93
3003.98
3026.74
3051.18
3077.24
3104.82
3133.82
3164.08
3195.43
3227.69
3260.52
3293.65
3326.77
3359.52
3391.53
3422.38
3451.68
3479.01
3504
3526.25
3545.45
3561.29
3573.52
3581.96
3586.46
3586.95
3583.41
3575.93
3564.59
3549.56
3531.06
3509.37
3484.8
3457.71
3428.48
3397.5
3365.18
3331.92
3298.13
3264.18
3230.44
3197.25
3164.89
3133.65
3103.74
3075.35
3048.63
3023.69
3000.59
2979.38
2960.07
2942.65
2927.08
2913.34
2901.35
2891.06
2882.41
2875.32
2869.73
2865.6
2862.84
2861.47
2861.41
2862.64
2865.17
2868.99
2874.13
2880.61
2888.48
2897.79
2908.6
2920.96
2934.95
2950.63
2968.07
2987.3
3008.36
3031.26
3055.97
3082.45
3110.56
3140.18
3171.12
3203.15
3235.94
3269.2
3302.56
3335.64
3368.01
3399.25
3428.95
3456.69
3482.08
3504.78
3524.45
3540.84
3553.71
3562.91
3568.33
3569.92
3567.68
3561.7
3552.07
3538.94
3522.53
3503.06
3480.8
3456.02
3429.02
3400.12
3369.65
3337.94
3305.31
3272.08
3238.58
3205.1
3175.66
3143.51
3112.4
3082.53
3054.09
3027.24
3002.11
2978.8
2957.39
2937.95
2920.49
2905.02
2891.53
2879.99
2870.37
2862.61
2856.65
2852.45
2849.94
2849.06
2849.76
2851.99
2855.68
2860.76
2867.22
2874.99
2884.07
2894.44
2906.09
2919.01
2933.23
2948.74
2965.56
2983.71
3003.21
3024.06
3046.25
3069.76
3094.54
3120.51
3147.52
3175.31
3204.03
3233.37
3263.13
3292.99
3322.64
3351.8
3380.08
3407.13
3432.6
3456.11
3477.31
3495.84
3511.38
3523.65
3532.42
3537.5
3538.75
3535.81
3528.95
3518.25
3503.84
3485.93
3464.78
3440.73
3414.18
3385.53
3355.27
3323.82
3291.72
3259.58
3228.08
3198.66
2762.4
2756.06
2751.16
2747.68
2745.65
2745.04
2745.86
2748.16
2751.94
2757.2
2763.98
2772.32
2782.28
2793.91
2807.27
2822.4
2839.38
2858.22
2878.95
2901.58
2926.08
2952.41
2980.51
3010.27
3041.54
3074.17
3107.59
3142.03
3177.1
3212.34
3247.38
3281.82
3315.24
3347.22
3377.3
3405.06
3430.11
3452.13
3470.76
3485.77
3496.93
3504.1
3507.17
3505.97
3500.65
3491.26
3477.93
3460.9
3440.4
3416.71
3390.21
3361.25
3330.25
3297.61
3263.74
3229.08
3194.06
3159.12
3124.85
3091.35
3058.53
3026.65
2996.03
2966.86
2939.29
2913.43
2889.37
2867.14
2846.78
2828.29
2811.69
2796.94
2784.05
2772.99
2763.73
2756.27
2750.56
2746.6
2744.36
2743.81
2744.9
2747.62
2751.94
2757.83
2765.26
2774.21
2784.64
2796.55
2809.92
2824.74
2841.01
2858.74
2877.95
2898.65
2920.86
2944.59
2969.82
2996.51
3024.61
3054.01
3084.57
3116.16
3148.48
3181.31
3214.36
3247.31
3279.81
3311.5
3341.99
3370.89
3397.8
3422.34
3444.13
3462.82
3478.06
3489.57
3497.11
3500.5
3499.6
3494.43
3485.01
3471.47
3454.01
3432.89
3408.45
3381.07
3351.19
3319.24
3285.69
3251.02
3215.7
3180.17
3144.85
3110.16
3076.44
3043.98
3013.06
2983.85
2956.49
2931.08
2907.65
2886.2
2866.69
2849.08
2833.3
2819.27
2806.92
2796.17
2786.94
2779.18
2772.84
2767.89
2764.29
2762.05
2761.16
2761.61
2763.44
2766.65
2771.29
2777.4
2785.02
2794.19
2804.98
2817.41
2831.52
2847.35
2864.91
2884.22
2905.27
2928.03
2952.48
2978.55
3006.15
3035.18
3065.48
3096.89
3129.22
3162.12
3195.35
3228.59
3261.46
3293.59
3324.58
3354.02
3381.5
3406.63
3429.01
3448.32
3464.26
3476.57
3485.06
3489.59
3490.09
3486.53
3479
3467.59
3452.47
3433.86
3412.05
3387.35
3360.12
3330.75
3299.63
3267.17
3233.79
3199.88
3165.82
3131.99
3098.7
3066.28
3034.98
3005.03
2976.61
2949.87
2924.92
2901.83
2880.62
2861.32
2843.92
2828.38
2814.66
2802.7
2792.43
2783.8
2776.74
2771.17
2767.05
2764.31
2762.95
2762.9
2764.13
2766.66
2770.47
2775.6
2782.07
2789.91
2799.2
2809.98
2822.32
2836.28
2851.94
2869.35
2888.55
2909.6
2932.5
2957.21
2983.7
3011.85
3041.51
3072.51
3104.61
3137.5
3170.87
3204.35
3237.55
3270.06
3301.45
3331.29
3359.17
3384.7
3407.52
3427.3
3443.78
3456.72
3465.97
3471.41
3473
3470.74
3464.72
3455.02
3441.82
3425.32
3405.75
3383.38
3358.49
3331.37
3302.36
3271.77
3239.95
3207.21
3173.89
3140.3
3106.74
3077.12
3044.91
3013.75
2983.84
2955.37
2928.49
2903.34
2880.02
2858.62
2839.17
2821.72
2806.27
2792.79
2781.28
2771.67
2763.93
2758
2753.81
2751.33
2750.46
2751.19
2753.43
2757.13
2762.23
2768.69
2776.47
2785.55
2795.92
2807.55
2820.47
2834.68
2850.18
2866.99
2885.13
2904.61
2925.46
2947.65
2971.16
2995.95
3021.94
3048.98
3076.81
3105.58
3134.99
3164.83
3194.78
3224.54
3253.8
3282.21
3309.38
3334.98
3358.63
3379.95
3398.61
3414.25
3426.6
3435.45
3440.58
3441.85
3438.91
3432.02
3421.25
3406.76
3388.74
3367.46
3343.27
3316.57
3287.77
3257.35
3225.76
3193.53
3161.27
3129.67
3100.18
2663.76
2657.43
2652.54
2649.07
2647.04
2646.43
2647.25
2649.54
2653.31
2658.55
2665.31
2673.64
2683.57
2695.18
2708.51
2723.61
2740.56
2759.39
2780.1
2802.73
2827.23
2853.56
2881.68
2911.47
2942.78
2975.46
3008.99
3043.53
3078.7
3114.08
3149.25
3183.85
3217.43
3249.58
3279.83
3307.75
3332.96
3355.11
3373.86
3388.96
3400.2
3407.41
3410.49
3409.3
3403.94
3394.48
3381.05
3363.91
3343.28
3319.44
3292.78
3263.67
3232.5
3199.7
3165.68
3130.87
3095.71
3060.65
3026.34
2992.77
2959.86
2927.92
2897.26
2868.05
2840.46
2814.6
2790.53
2768.31
2747.96
2729.48
2712.89
2698.16
2685.28
2674.24
2664.99
2657.53
2651.84
2647.89
2645.66
2645.12
2646.22
2648.95
2653.27
2659.17
2666.61
2675.56
2686
2697.9
2711.27
2726.08
2742.34
2760.06
2779.25
2799.94
2822.14
2845.86
2871.08
2897.79
2925.91
2955.34
2985.95
3017.6
3050
3082.93
3116.09
3149.16
3181.8
3213.63
3244.27
3273.32
3300.39
3325.09
3347.03
3365.85
3381.22
3392.83
3400.44
3403.87
3402.98
3397.78
3388.3
3374.67
3357.08
3335.81
3311.21
3283.66
3253.59
3221.47
3187.75
3152.91
3117.43
3081.75
3046.32
3011.52
2977.7
2945.18
2914.21
2884.97
2857.6
2832.19
2808.78
2787.35
2767.87
2750.29
2734.55
2720.55
2708.23
2697.5
2688.3
2680.56
2674.24
2669.3
2665.71
2663.47
2662.57
2663.02
2664.84
2668.04
2672.66
2678.75
2686.35
2695.51
2706.27
2718.68
2732.78
2748.59
2766.14
2785.44
2806.48
2829.24
2853.69
2879.78
2907.41
2936.47
2966.82
2998.29
3030.69
3063.69
3097.03
3130.39
3163.4
3195.68
3226.83
3256.43
3284.07
3309.34
3331.88
3351.32
3367.37
3379.77
3388.32
3392.89
3393.38
3389.81
3382.22
3370.73
3355.51
3336.78
3314.83
3289.98
3262.6
3233.06
3201.79
3169.18
3135.65
3101.6
3067.43
3033.48
3000.11
2967.6
2936.24
2906.24
2877.79
2851.03
2826.07
2802.98
2781.78
2762.5
2745.12
2729.6
2715.91
2703.98
2693.74
2685.14
2678.1
2672.55
2668.45
2665.73
2664.38
2664.33
2665.57
2668.09
2671.9
2677.01
2683.46
2691.29
2700.55
2711.3
2723.61
2737.54
2753.17
2770.55
2789.73
2810.76
2833.65
2858.37
2884.88
2913.06
2942.77
2973.83
3006.02
3039.02
3072.5
3106.12
3139.47
3172.13
3203.68
3233.69
3261.73
3287.41
3310.37
3330.27
3346.85
3359.87
3369.17
3374.64
3376.23
3373.95
3367.88
3358.11
3344.83
3328.23
3308.54
3286.05
3261.03
3233.78
3204.63
3173.92
3141.97
3109.12
3075.68
3042
3008.35
2978.51
2946.25
2915.04
2885.08
2856.57
2829.66
2804.49
2781.16
2759.75
2740.31
2722.87
2707.43
2693.98
2682.48
2672.9
2665.19
2659.28
2655.12
2652.65
2651.81
2652.55
2654.81
2658.53
2663.64
2670.11
2677.89
2686.97
2697.34
2708.97
2721.88
2736.07
2751.56
2768.36
2786.48
2805.96
2826.79
2848.98
2872.49
2897.3
2923.32
2950.39
2978.26
3007.09
3036.58
3066.5
3096.55
3126.43
3155.82
3184.37
3211.68
3237.43
3261.22
3282.69
3301.47
3317.24
3329.7
3338.62
3343.8
3345.1
3342.17
3335.23
3324.4
3309.8
3291.66
3270.24
3245.89
3219.02
3190.05
3159.46
3127.71
3095.32
3062.93
3031.22
3001.64
2565.05
2558.75
2553.86
2550.4
2548.37
2547.77
2548.58
2550.86
2554.61
2559.84
2566.58
2574.88
2584.79
2596.37
2609.67
2624.75
2641.67
2660.47
2681.18
2703.79
2728.29
2754.63
2782.77
2812.59
2843.94
2876.68
2910.33
2944.98
2980.28
3015.8
3051.12
3085.9
3119.66
3151.99
3182.43
3210.53
3235.91
3258.21
3277.1
3292.31
3303.62
3310.88
3313.98
3312.78
3307.38
3297.84
3284.32
3267.05
3246.27
3222.27
3195.43
3166.14
3134.79
3101.81
3067.61
3032.64
2997.32
2962.14
2927.78
2894.12
2861.13
2829.12
2798.4
2769.17
2741.55
2715.68
2691.61
2669.39
2649.05
2630.59
2614.01
2599.3
2586.44
2575.41
2566.17
2558.73
2553.05
2549.11
2546.9
2546.37
2547.48
2550.21
2554.55
2560.46
2567.9
2576.85
2587.29
2599.2
2612.55
2627.36
2643.61
2661.31
2680.49
2701.16
2723.34
2747.06
2772.28
2798.99
2827.14
2856.61
2887.27
2918.99
2951.48
2984.51
3017.79
3051
3083.79
3115.78
3146.58
3175.81
3203.06
3227.93
3250.04
3269.02
3284.52
3296.24
3303.94
3307.41
3306.53
3301.3
3291.75
3278
3260.28
3238.85
3214.07
3186.33