/*--------------------------------*- C++ -*----------------------------------*\
| =========                 |                                                 |
| \\      /  F ield         | OpenFOAM: The Open Source CFD Toolbox           |
|  \\    /   O peration     | Version:  3.0.1                                 |
|   \\  /    A nd           | Web:      www.OpenFOAM.org                      |
|    \\/     M anipulation  |                                                 |
\*---------------------------------------------------------------------------*/
FoamFile
{
    version     2.0;
    format      ascii;
    class       surfaceScalarField;
    location    "73.2";
    object      alphaPhi;
}
// * * * * * * * * * * * * * * * * * * * * * * * * * * * * * * * * * * * * * //

dimensions      [0 3 -1 0 0 0 0];

internalField   nonuniform List<scalar> 
42423
(
-4.3992e-05
-1.44666e-05
-2.83082e-05
-1.56838e-05
-1.1763e-05
-1.65453e-05
5.70807e-06
-1.74711e-05
2.39044e-05
-1.81964e-05
4.23925e-05
-1.84882e-05
6.13093e-05
-1.89168e-05
8.02455e-05
-1.89362e-05
9.88744e-05
-1.86289e-05
0.000117197
-1.83228e-05
0.000134857
-1.76595e-05
0.000151512
-1.6655e-05
0.000167015
-1.55039e-05
0.000181016
-1.40007e-05
0.000193285
-1.2269e-05
0.000203617
-1.0332e-05
0.000211776
-8.15867e-06
0.000217675
-5.89968e-06
0.000221143
-3.46772e-06
0.000222069
-9.25954e-07
0.000220514
1.55515e-06
0.000216369
4.14423e-06
0.000209672
6.69752e-06
0.00020078
8.89147e-06
0.00018972
1.10605e-05
0.000176791
1.29291e-05
0.000162146
1.46453e-05
0.000146068
1.60771e-05
0.000128827
1.72411e-05
0.000110648
1.81796e-05
9.177e-05
1.88778e-05
7.2622e-05
1.9148e-05
5.33777e-05
1.92443e-05
3.423e-05
1.91477e-05
1.53345e-05
1.88954e-05
-3.07393e-06
1.84084e-05
-2.08449e-05
1.7771e-05
-3.78993e-05
1.70543e-05
-5.40758e-05
1.61765e-05
-6.93134e-05
1.52376e-05
-8.3579e-05
1.42656e-05
-9.68255e-05
1.32465e-05
-0.000109063
1.2238e-05
-0.000120277
1.12137e-05
-0.000130484
1.02067e-05
-0.000139713
9.22868e-06
-0.000147959
8.24694e-06
-0.00015527
7.31023e-06
-0.000161694
6.42406e-06
-0.000167245
5.55167e-06
-0.000171947
4.70161e-06
-0.000175855
3.90758e-06
-0.00017896
3.10517e-06
-0.00018133
2.37028e-06
-0.000182932
1.60222e-06
-0.000183808
8.76101e-07
-0.000184011
2.02394e-07
-0.000183402
-6.08509e-07
-0.00018198
-1.42271e-06
-0.000179893
-2.08705e-06
-0.000176867
-3.02534e-06
-0.000173116
-3.75089e-06
-0.000168585
-4.53091e-06
-0.00016315
-5.43528e-06
-0.000156944
-6.20665e-06
-0.000149865
-7.07855e-06
-0.000141809
-8.05638e-06
-0.000132976
-8.83319e-06
-0.000123113
-9.86265e-06
-0.000112304
-1.08092e-05
-0.00010061
-1.16942e-05
-8.80653e-05
-1.25443e-05
-7.46602e-05
-1.34051e-05
-6.04984e-05
-1.41619e-05
-4.55169e-05
-1.49815e-05
-2.98045e-05
-1.57125e-05
-1.34373e-05
-1.63671e-05
3.49734e-06
-1.69347e-05
2.0837e-05
-1.73397e-05
3.85668e-05
-1.77298e-05
5.64956e-05
-1.79289e-05
7.452e-05
-1.80244e-05
9.24244e-05
-1.79044e-05
0.00010998
-1.75554e-05
0.000127241
-1.7261e-05
0.000143727
-1.64859e-05
0.000159383
-1.56558e-05
0.000173885
-1.45017e-05
0.000187021
-1.31361e-05
0.000198451
-1.14296e-05
0.000207961
-9.50933e-06
0.000215282
-7.32091e-06
0.000220295
-5.01181e-06
0.000222856
-2.56114e-06
0.000222951
-9.46441e-08
0.000220548
2.40429e-06
0.000215616
4.932e-06
0.000208315
7.30148e-06
0.000198781
9.53441e-06
0.000187164
1.16164e-05
0.000173644
1.35208e-05
0.000158433
1.52108e-05
0.000141771
1.66623e-05
0.000123927
1.78442e-05
0.000105172
1.87554e-05
8.58084e-05
1.93632e-05
6.60763e-05
1.97321e-05
4.62458e-05
1.98305e-05
2.66232e-05
1.96226e-05
7.40352e-06
1.92196e-05
-1.11807e-05
1.85842e-05
-2.8983e-05
1.78023e-05
-4.58703e-05
1.68873e-05
-6.17625e-05
1.58922e-05
-7.65429e-05
1.47804e-05
-9.02563e-05
1.37134e-05
-0.000102773
1.25167e-05
-0.000114164
1.13906e-05
-0.000124414
1.02509e-05
-0.000133536
9.122e-06
-0.000141683
8.14607e-06
-0.000148758
7.07533e-06
-0.00015485
6.09176e-06
-0.000159994
5.14404e-06
-0.00016432
4.32637e-06
-0.000167752
3.43148e-06
-0.000170418
2.66629e-06
-0.000172321
1.90261e-06
-0.000173462
1.14149e-06
-0.000174048
5.86185e-07
-0.000173899
-1.49668e-07
-0.000173092
-8.06932e-07
-0.000171711
-1.38065e-06
-0.000169625
-2.08612e-06
-0.000167126
-2.49919e-06
-0.000163932
-3.19366e-06
-0.000160172
-3.76001e-06
-0.000155806
-4.36603e-06
-0.000150814
-4.99235e-06
-0.000145187
-5.62644e-06
-0.000138894
-6.29373e-06
-0.000131884
-7.01008e-06
-0.000124213
-7.67048e-06
-0.000115751
-8.46239e-06
-0.000106485
-9.26574e-06
-9.6417e-05
-1.00681e-05
-8.54128e-05
-1.10043e-05
-7.36918e-05
-1.17211e-05
-6.10873e-05
-1.26046e-05
-4.76398e-05
-1.34476e-05
-3.33333e-05
-1.43066e-05
-1.84646e-05
-1.48687e-05
-2.85954e-06
-1.56052e-05
1.33248e-05
-1.61844e-05
3.00196e-05
-1.66948e-05
4.69823e-05
-1.69627e-05
6.41627e-05
-1.71806e-05
8.12993e-05
-1.71366e-05
9.82599e-05
-1.69607e-05
0.000114746
-1.6486e-05
0.000130571
-1.58251e-05
0.000145454
-1.48834e-05
0.000159172
-1.37183e-05
0.000171462
-1.22896e-05
0.000182042
-1.05806e-05
0.000190699
-8.65658e-06
0.00019723
-6.53154e-06
0.000201492
-4.26192e-06
0.000203335
-1.84294e-06
0.00020276
5.75367e-07
0.000199671
3.08855e-06
0.000194105
5.56623e-06
0.000186187
7.91774e-06
0.000176075
1.01115e-05
0.000163981
1.20945e-05
0.000150135
1.38452e-05
0.000134806
1.53296e-05
0.000118258
1.6548e-05
0.000100772
1.74858e-05
8.26671e-05
1.81049e-05
6.41512e-05
1.85158e-05
4.55613e-05
1.85899e-05
2.70699e-05
1.84914e-05
8.84819e-06
1.82217e-05
-8.82417e-06
1.76724e-05
-2.58293e-05
1.70051e-05
-4.20346e-05
1.62053e-05
-5.7379e-05
1.53445e-05
-7.17465e-05
1.43675e-05
-8.51479e-05
1.34014e-05
-9.75991e-05
1.24512e-05
-0.000109006
1.14072e-05
-0.000119453
1.0447e-05
-0.000128895
9.44151e-06
-0.000137409
8.51403e-06
-0.000145037
7.62825e-06
-0.00015168
6.64294e-06
-0.00015737
5.68998e-06
-0.000162188
4.81768e-06
-0.000166171
3.98306e-06
-0.00016941
3.23912e-06
-0.000171983
2.57334e-06
-0.000173989
2.00574e-06
-0.000175405
1.41615e-06
-0.000176296
8.90651e-07
-0.000176615
3.1978e-07
-0.000176407
-2.08298e-07
-0.00017557
-8.375e-07
-0.000174184
-1.38583e-06
-0.000172218
-1.96548e-06
-0.000169617
-2.60176e-06
-0.000166526
-3.09022e-06
-0.000162822
-3.70402e-06
-0.000158482
-4.33988e-06
-0.000153525
-4.95725e-06
-0.000147915
-5.61007e-06
-0.000141631
-6.28416e-06
-0.000134675
-6.95595e-06
-0.000126999
-7.67576e-06
-0.000118586
-8.41362e-06
-0.000109421
-9.16522e-06
-9.94557e-05
-9.96495e-06
-8.87161e-05
-1.07396e-05
-7.71368e-05
-1.15794e-05
-6.48657e-05
-1.22711e-05
-5.17723e-05
-1.30935e-05
-3.7898e-05
-1.38744e-05
-2.33284e-05
-1.45696e-05
-8.10242e-06
-1.5226e-05
7.68189e-06
-1.57844e-05
2.38937e-05
-1.62118e-05
4.03837e-05
-1.64901e-05
5.69961e-05
-1.66125e-05
7.35295e-05
-1.65335e-05
8.98054e-05
-1.6276e-05
0.000105557
-1.57519e-05
0.000120577
-1.50195e-05
0.000134567
-1.39906e-05
0.000147272
-1.2705e-05
0.000158453
-1.1181e-05
0.000167842
-9.38874e-06
0.000175282
-7.43975e-06
0.000180523
-5.24125e-06
0.000183503
-2.98025e-06
0.000184097
-5.94432e-07
0.000182235
1.86237e-06
0.000177884
4.35086e-06
0.000171167
6.71678e-06
0.000162222
8.94462e-06
0.000151244
1.09775e-05
0.000138453
1.27907e-05
0.000124041
1.44124e-05
0.000108323
1.57171e-05
9.14902e-05
1.68329e-05
7.39156e-05
1.75745e-05
5.58346e-05
1.80809e-05
3.75281e-05
1.83064e-05
1.92764e-05
1.82517e-05
1.26797e-06
1.80084e-05
-1.62618e-05
1.75297e-05
-3.31808e-05
1.69191e-05
-4.93503e-05
1.61696e-05
-6.46638e-05
1.53135e-05
-7.90763e-05
1.44126e-05
-9.25105e-05
1.34343e-05
-0.000104946
1.24354e-05
-0.000116334
1.13878e-05
-0.000126708
1.03741e-05
-0.000136128
9.42065e-06
-0.000144466
8.33765e-06
-0.000151837
7.37106e-06
-0.000158245
6.40855e-06
-0.000163698
5.45241e-06
-0.000168272
4.57481e-06
-0.000171961
3.68881e-06
-0.000174836
2.87543e-06
-0.000176905
2.06821e-06
-0.000178181
1.2763e-06
-0.000178689
5.08128e-07
-0.000178228
-4.61282e-07
-0.000177
-1.2277e-06
-0.000174939
-2.06061e-06
-0.000172295
-2.64404e-06
-0.000168989
-3.3065e-06
-0.000165139
-3.84953e-06
-0.000161015
-4.12407e-06
-0.000156645
-4.37063e-06
-0.000151838
-4.80617e-06
-0.000146925
-4.9139e-06
-0.00014165
-5.27414e-06
-0.000136112
-5.53805e-06
-0.000130396
-5.71678e-06
-0.000124213
-6.18267e-06
-0.000117467
-6.74609e-06
-0.000110321
-7.1459e-06
-0.000102481
-7.8397e-06
-9.37826e-05
-8.69869e-06
-8.43385e-05
-9.4441e-06
-7.39081e-05
-1.04303e-05
-6.25378e-05
-1.13704e-05
-4.99317e-05
-1.2606e-05
-3.61986e-05
-1.37331e-05
-2.16177e-05
-1.45809e-05
-5.87777e-06
-1.574e-05
1.07994e-05
-1.66772e-05
2.80106e-05
-1.72112e-05
4.58082e-05
-1.77976e-05
6.38203e-05
-1.80122e-05
8.19273e-05
-1.8107e-05
9.98176e-05
-1.78903e-05
0.000117013
-1.71956e-05
0.000133412
-1.63983e-05
0.000148716
-1.53049e-05
0.000162522
-1.38055e-05
0.00017472
-1.21979e-05
0.000185049
-1.03298e-05
0.000193413
-8.36386e-06
0.000199586
-6.17306e-06
0.000203469
-3.88279e-06
0.000205064
-1.59502e-06
0.000204369
6.94929e-07
0.000201267
3.10178e-06
0.000195983
5.2843e-06
0.000188615
7.36828e-06
0.000179467
9.14788e-06
0.000168727
1.07402e-05
0.000156544
1.21827e-05
0.000143206
1.33382e-05
0.000129042
1.41634e-05
0.000114047
1.49951e-05
9.87038e-05
1.53433e-05
8.30679e-05
1.5636e-05
6.72514e-05
1.58165e-05
5.15749e-05
1.56765e-05
3.60945e-05
1.54805e-05
2.08161e-05
1.52783e-05
5.9148e-06
1.49013e-05
-8.52721e-06
1.4442e-05
-2.24763e-05
1.39491e-05
-3.59329e-05
1.34566e-05
-4.883e-05
1.28971e-05
-6.11114e-05
1.22814e-05
-7.27791e-05
1.16677e-05
-8.37825e-05
1.10033e-05
-9.41445e-05
1.0362e-05
-0.000103825
9.68012e-06
-0.000112796
8.97118e-06
-0.000121065
8.26916e-06
-0.000128606
7.54074e-06
-0.000135399
6.79303e-06
-0.000141432
6.03325e-06
-0.000146698
5.26609e-06
-0.000151193
4.49489e-06
-0.000154902
3.709e-06
-0.000157816
2.91401e-06
-0.00015994
2.12432e-06
1.31732e-06
-4.40265e-05
-2.89349e-05
-2.83381e-05
-3.13722e-05
-1.17797e-05
-3.31037e-05
5.68558e-06
-3.49365e-05
2.38857e-05
-3.63966e-05
4.23805e-05
-3.6983e-05
6.13095e-05
-3.78459e-05
8.02662e-05
-3.7893e-05
9.89139e-05
-3.72767e-05
0.000117242
-3.66504e-05
0.000134913
-3.5331e-05
0.000151594
-3.33361e-05
0.000167105
-3.10146e-05
0.000181105
-2.80011e-05
0.000193388
-2.45524e-05
0.000203744
-2.06874e-05
0.000211924
-1.63393e-05
0.000217816
-1.17917e-05
0.000221273
-6.92444e-06
0.000222201
-1.85393e-06
0.000220635
3.12088e-06
0.000216488
8.2917e-06
0.000209787
1.33986e-05
0.000200888
1.77903e-05
0.000189817
2.21309e-05
0.00017688
2.58661e-05
0.000162222
2.93033e-05
0.00014613
3.21685e-05
0.00012888
3.4492e-05
0.000110687
3.63717e-05
9.17972e-05
3.77679e-05
7.26358e-05
3.83094e-05
5.33797e-05
3.85004e-05
3.42264e-05
3.83009e-05
1.53212e-05
3.78006e-05
-3.09379e-06
3.68234e-05
-2.08713e-05
3.55485e-05
-3.79309e-05
3.41139e-05
-5.41131e-05
3.23587e-05
-6.93571e-05
3.04816e-05
-8.36248e-05
2.85333e-05
-9.68718e-05
2.64935e-05
-0.000109112
2.44782e-05
-0.000120327
2.2429e-05
-0.000130535
2.04144e-05
-0.000139764
1.8458e-05
-0.000148015
1.64975e-05
-0.000155331
1.46259e-05
-0.00016176
1.28532e-05
-0.000167308
1.10997e-05
-0.000172005
9.39912e-06
-0.000175915
7.8171e-06
-0.000179022
6.21278e-06
-0.000181395
4.7431e-06
-0.000183001
3.20759e-06
-0.000183882
1.75738e-06
-0.000184082
4.02321e-07
-0.000183469
-1.221e-06
-0.000182048
-2.84435e-06
-0.000179965
-4.16987e-06
-0.000176934
-6.05669e-06
-0.000173187
-7.49793e-06
-0.000168661
-9.05666e-06
-0.000163219
-1.08774e-05
-0.000157012
-1.24131e-05
-0.000149937
-1.41537e-05
-0.000141876
-1.6118e-05
-0.000133046
-1.76625e-05
-0.00012318
-1.97288e-05
-0.000112366
-2.16233e-05
-0.00010067
-2.33901e-05
-8.81322e-05
-2.50824e-05
-7.47166e-05
-2.68208e-05
-6.05517e-05
-2.83268e-05
-4.55653e-05
-2.99679e-05
-2.98428e-05
-3.1435e-05
-1.34667e-05
-3.27434e-05
3.46589e-06
-3.38673e-05
2.08048e-05
-3.46787e-05
3.85437e-05
-3.54686e-05
5.64903e-05
-3.58755e-05
7.45319e-05
-3.60659e-05
9.2443e-05
-3.58156e-05
0.000110017
-3.51292e-05
0.000127285
-3.45295e-05
0.000143787
-3.29875e-05
0.000159471
-3.13391e-05
0.000173991
-2.90214e-05
0.000187142
-2.6287e-05
0.000198591
-2.28786e-05
0.000208127
-1.90449e-05
0.000215456
-1.46493e-05
0.000220471
-1.00257e-05
0.000223038
-5.12833e-06
0.000223121
-1.77135e-07
0.00022069
4.83554e-06
0.000215747
9.87574e-06
0.000208441
1.46076e-05
0.000198892
1.9084e-05
0.000187257
2.32517e-05
0.000173745
2.70326e-05
0.000158491
3.04656e-05
0.000141814
3.33387e-05
0.000123955
3.5704e-05
0.000105177
3.75334e-05
8.57965e-05
3.87436e-05
6.60546e-05
3.9474e-05
4.62083e-05
3.96769e-05
2.65723e-05
3.92586e-05
7.3468e-06
3.84452e-05
-1.12543e-05
3.71853e-05
-2.90728e-05
3.56209e-05
-4.59691e-05
3.37836e-05
-6.18581e-05
3.17813e-05
-7.66445e-05
2.95669e-05
-9.03648e-05
2.74337e-05
-0.000102894
2.50458e-05
-0.00011429
2.2787e-05
-0.000124547
2.05076e-05
-0.000133681
1.82557e-05
-0.000141806
1.62712e-05
-0.000148899
1.41689e-05
-0.000154994
1.21863e-05
-0.000160146
1.02957e-05
-0.000164471
8.65168e-06
-0.000167914
6.87444e-06
-0.000170583
5.33531e-06
-0.000172489
3.80887e-06
-0.000173635
2.28688e-06
-0.000174229
1.18028e-06
-0.000174088
-2.90188e-07
-0.000173286
-1.60913e-06
-0.000171901
-2.76545e-06
-0.000169821
-4.16661e-06
-0.000167324
-4.99617e-06
-0.000164132
-6.38578e-06
-0.000160383
-7.50902e-06
-0.000156015
-8.73336e-06
-0.000151023
-9.98467e-06
-0.000145396
-1.12534e-05
-0.000139092
-1.25977e-05
-0.000132115
-1.39874e-05
-0.000124425
-1.53599e-05
-0.000115943
-1.69448e-05
-0.000106699
-1.85102e-05
-9.66174e-05
-2.01493e-05
-8.56197e-05
-2.2002e-05
-7.38953e-05
-2.34455e-05
-6.12782e-05
-2.52217e-05
-4.78219e-05
-2.69039e-05
-3.35671e-05
-2.85614e-05
-1.86293e-05
-2.98065e-05
-3.0139e-06
-3.12206e-05
1.31922e-05
-3.23905e-05
2.98958e-05
-3.33985e-05
4.68711e-05
-3.3938e-05
6.40639e-05
-3.43735e-05
8.12234e-05
-3.42962e-05
9.81919e-05
-3.39293e-05
0.000114703
-3.29969e-05
0.000130559
-3.16818e-05
0.000145457
-2.97807e-05
0.000159189
-2.74511e-05
0.000171475
-2.45756e-05
0.00018208
-2.11856e-05
0.000190768
-1.73442e-05
0.000197295
-1.30588e-05
0.000201562
-8.52902e-06
0.000203423
-3.70402e-06
0.000202841
1.15678e-06
0.000199746
6.18331e-06
0.000194181
1.11321e-05
0.000186256
1.58418e-05
0.000176131
2.02374e-05
0.000164028
2.41974e-05
0.000150172
2.77009e-05
0.000134826
3.0675e-05
0.000118263
3.31112e-05
0.000100766
3.49827e-05
8.26368e-05
3.62343e-05
6.41208e-05
3.70317e-05
4.55162e-05
3.71946e-05
2.69947e-05
3.70129e-05
8.77309e-06
3.64433e-05
-8.90911e-06
3.53546e-05
-2.59243e-05
3.40203e-05
-4.21422e-05
3.24232e-05
-5.7495e-05
3.06973e-05
-7.18684e-05
2.8741e-05
-8.52737e-05
2.68067e-05
-9.77324e-05
2.491e-05
-0.000109146
2.28204e-05
-0.000119596
2.08979e-05
-0.000129058
1.89028e-05
-0.000137563
1.70198e-05
-0.00014518
1.52451e-05
-0.00015185
1.33131e-05
-0.000157555
1.13947e-05
-0.000162372
9.63456e-06
-0.000166351
7.96209e-06
-0.000169595
6.4831e-06
-0.000172179
5.15753e-06
-0.000174179
4.00609e-06
-0.00017561
2.84635e-06
-0.000176497
1.77776e-06
-0.000176785
6.07942e-07
-0.000176616
-3.77719e-07
-0.000175778
-1.67519e-06
-0.000174396
-2.76726e-06
-0.000172433
-3.92934e-06
-0.000169829
-5.20561e-06
-0.00016674
-6.17852e-06
-0.000163034
-7.41063e-06
-0.000158684
-8.68989e-06
-0.00015372
-9.92152e-06
-0.00014812
-1.12099e-05
-0.000141837
-1.25666e-05
-0.000134885
-1.39086e-05
-0.000127147
-1.54138e-05
-0.000118781
-1.67794e-05
-0.000109614
-1.8332e-05
-9.96444e-05
-1.99347e-05
-8.88867e-05
-2.14973e-05
-7.73001e-05
-2.31661e-05
-6.50276e-05
-2.45436e-05
-5.19243e-05
-2.61968e-05
-3.80505e-05
-2.77482e-05
-2.34591e-05
-2.91611e-05
-8.22113e-06
-3.04641e-05
7.5752e-06
-3.15807e-05
2.37989e-05
-3.24356e-05
4.02992e-05
-3.29904e-05
5.69235e-05
-3.32368e-05
7.34764e-05
-3.30865e-05
8.97668e-05
-3.25664e-05
0.000105538
-3.15237e-05
0.000120579
-3.00605e-05
0.00013458
-2.7991e-05
0.000147299
-2.54242e-05
0.000158492
-2.23748e-05
0.000167896
-1.87926e-05
0.000175348
-1.48916e-05
0.000180589
-1.04827e-05
0.000183577
-5.9685e-06
0.000184172
-1.18873e-06
0.000182297
3.73666e-06
0.000177939
8.70907e-06
0.000171213
1.3442e-05
0.000162255
1.79031e-05
0.000151259
2.19729e-05
0.000138427
2.56226e-05
0.000124018
2.88208e-05
0.000108295
3.14404e-05
9.14552e-05
3.36725e-05
7.38721e-05
3.51575e-05
5.57937e-05
3.61592e-05
3.74741e-05
3.66259e-05
1.92185e-05
3.65073e-05
1.19764e-06
3.60292e-05
-1.63367e-05
3.50641e-05
-3.32575e-05
3.384e-05
-4.9432e-05
3.23441e-05
-6.47516e-05
3.06332e-05
-7.91699e-05
2.8831e-05
-9.26011e-05
2.68656e-05
-0.000105034
2.48681e-05
-0.00011642
2.27743e-05
-0.000126785
2.07393e-05
-0.000136204
1.88397e-05
-0.000144547
1.66804e-05
-0.000151915
1.47391e-05
-0.000158325
1.28188e-05
-0.000163779
1.09066e-05
-0.000168353
9.14839e-06
-0.00017204
7.37657e-06
-0.000174917
5.75222e-06
-0.000176993
4.14434e-06
-0.000178259
2.54231e-06
-0.000178749
9.98328e-07
-0.000178305
-9.05607e-07
-0.000177064
-2.46847e-06
-0.000175002
-4.12318e-06
-0.000172354
-5.29217e-06
-0.000169045
-6.61542e-06
-0.000165186
-7.70849e-06
-0.000161055
-8.25486e-06
-0.000156685
-8.74086e-06
-0.000151879
-9.61205e-06
-0.00014696
-9.83283e-06
-0.000141689
-1.05449e-05
-0.000136151
-1.10757e-05
-0.000130435
-1.14332e-05
-0.00012425
-1.23675e-05
-0.000117513
-1.34837e-05
-0.000110376
-1.4283e-05
-0.000102538
-1.56773e-05
-9.38369e-05
-1.73997e-05
-8.44026e-05
-1.88784e-05
-7.39715e-05
-2.08615e-05
-6.25918e-05
-2.27502e-05
-4.99926e-05
-2.52053e-05
-3.62691e-05
-2.74566e-05
-2.16755e-05
-2.91746e-05
-5.91864e-06
-3.14968e-05
1.07604e-05
-3.33563e-05
2.79816e-05
-3.44324e-05
4.57927e-05
-3.56088e-05
6.38178e-05
-3.60374e-05
8.19401e-05
-3.62293e-05
9.98467e-05
-3.57969e-05
0.000117062
-3.44108e-05
0.000133474
-3.28106e-05
0.000148791
-3.06221e-05
0.000162615
-2.76292e-05
0.000174834
-2.44166e-05
0.000185163
-2.06592e-05
0.000193523
-1.67244e-05
0.000199704
-1.23532e-05
0.000203599
-7.77793e-06
0.000205214
-3.21008e-06
0.000204502
1.40678e-06
0.000201376
6.22788e-06
0.000196087
1.05727e-05
0.000188712
1.47439e-05
0.000179554
1.83055e-05
0.000168802
2.14921e-05
0.00015661
2.43749e-05
0.000143259
2.66891e-05
0.000129087
2.83359e-05
0.000114082
2.99998e-05
9.87252e-05
3.07e-05
8.30835e-05
3.12776e-05
6.72603e-05
3.16397e-05
5.15737e-05
3.13631e-05
3.60909e-05
3.09633e-05
2.08139e-05
3.05552e-05
5.89902e-06
2.98162e-05
-8.54227e-06
2.88833e-05
-2.24957e-05
2.79025e-05
-3.59543e-05
2.69151e-05
-4.88557e-05
2.57984e-05
-6.11396e-05
2.45654e-05
-7.28109e-05
2.3339e-05
-8.38144e-05
2.20068e-05
-9.41772e-05
2.07249e-05
-0.00010386
1.9363e-05
-0.000112828
1.79388e-05
-0.000121098
1.65391e-05
-0.00012864
1.50832e-05
-0.000135432
1.35847e-05
-0.000141464
1.20658e-05
-0.000146727
1.05292e-05
-0.000151221
8.98834e-06
-0.000154932
7.41966e-06
-0.000157848
5.83005e-06
-0.000159976
4.25224e-06
2.63142e-06
-4.40936e-05
-4.34083e-05
-2.8396e-05
-4.70699e-05
-1.1814e-05
-4.96858e-05
5.64707e-06
-5.23976e-05
2.38627e-05
-5.46123e-05
4.23805e-05
-5.55009e-05
6.13331e-05
-5.67985e-05
8.03093e-05
-5.68693e-05
9.89781e-05
-5.59456e-05
0.000117337
-5.50098e-05
0.000135039
-5.30325e-05
0.000151732
-5.00294e-05
0.000167267
-4.65493e-05
0.000181301
-4.20352e-05
0.000193604
-3.68563e-05
0.000203963
-3.10456e-05
0.000212147
-2.45239e-05
0.00021805
-1.7695e-05
0.000221513
-1.03874e-05
0.000222433
-2.77411e-06
0.000220829
4.72557e-06
0.000216673
1.24472e-05
0.000209965
2.01068e-05
0.000201052
2.67027e-05
0.000189964
3.32193e-05
0.000177015
3.88156e-05
0.000162337
4.39807e-05
0.000146219
4.82867e-05
0.000128952
5.17588e-05
0.000110739
5.45844e-05
9.18305e-05
5.66768e-05
7.2644e-05
5.74958e-05
5.33661e-05
5.77784e-05
3.42052e-05
5.74617e-05
1.52839e-05
5.6722e-05
-3.14575e-06
5.5253e-05
-2.09343e-05
5.3337e-05
-3.80041e-05
5.11837e-05
-5.41948e-05
4.85494e-05
-6.94411e-05
4.57279e-05
-8.37127e-05
4.28049e-05
-9.69651e-05
3.97459e-05
-0.00010921
3.67228e-05
-0.000120426
3.36452e-05
-0.000130634
3.06226e-05
-0.000139864
2.76882e-05
-0.000148112
2.47448e-05
-0.000155419
2.19335e-05
-0.000161848
1.92824e-05
-0.000167405
1.6656e-05
-0.000172102
1.40962e-05
-0.000176008
1.17232e-05
-0.000179109
9.31395e-06
-0.000181482
7.11563e-06
-0.000183081
4.80744e-06
-0.000183952
2.62796e-06
-0.000184144
5.93987e-07
-0.000183528
-1.83629e-06
-0.000182106
-4.26632e-06
-0.000180031
-6.24565e-06
-0.000176998
-9.0897e-06
-0.000173251
-1.12443e-05
-0.000168733
-1.35754e-05
-0.000163283
-1.6327e-05
-0.000157074
-1.86217e-05
-0.000150008
-2.12196e-05
-0.000141945
-2.41813e-05
-0.000133123
-2.64846e-05
-0.000123254
-2.95977e-05
-0.000112434
-3.24437e-05
-0.000100738
-3.50856e-05
-8.8207e-05
-3.76139e-05
-7.47851e-05
-4.02427e-05
-6.06173e-05
-4.24947e-05
-4.56229e-05
-4.49623e-05
-2.9898e-05
-4.716e-05
-1.35131e-05
-4.91283e-05
3.4209e-06
-5.08014e-05
2.07677e-05
-5.20255e-05
3.85157e-05
-5.32167e-05
5.64717e-05
-5.38316e-05
7.45261e-05
-5.41203e-05
9.24457e-05
-5.37351e-05
0.000110054
-5.27377e-05
0.000127336
-5.18111e-05
0.000143854
-4.95048e-05
0.000159556
-4.70411e-05
0.000174099
-4.35644e-05
0.000187275
-3.94624e-05
0.000198742
-3.43455e-05
0.000208294
-2.85965e-05
0.000215632
-2.19863e-05
0.000220651
-1.50446e-05
0.000223217
-7.69402e-06
0.000223272
-2.31309e-07
0.000220812
7.2963e-06
0.00021586
1.48279e-05
0.000208533
2.19348e-05
0.000198965
2.86527e-05
0.000187308
3.49084e-05
0.000173744
4.05972e-05
0.000158485
4.57241e-05
0.000141779
5.00453e-05
0.000123883
5.35999e-05
0.000105077
5.63397e-05
8.56727e-05
5.81478e-05
6.59303e-05
5.92164e-05
4.6048e-05
5.95593e-05
2.63963e-05
5.89104e-05
7.1524e-06
5.76891e-05
-1.14677e-05
5.58054e-05
-2.93028e-05
5.3456e-05
-4.62162e-05
5.0697e-05
-6.21116e-05
4.76767e-05
-7.69082e-05
4.43634e-05
-9.06195e-05
4.11451e-05
-0.000103153
3.75797e-05
-0.000114546
3.41798e-05
-0.000124815
3.07763e-05
-0.000133976
2.74167e-05
-0.00014203
2.43253e-05
-0.000149143
2.12822e-05
-0.000155242
1.82854e-05
-0.000160409
1.54623e-05
-0.000164727
1.29692e-05
-0.000168175
1.03227e-05
-0.00017083
7.99038e-06
-0.000172738
5.71684e-06
-0.00017391
3.45871e-06
-0.00017446
1.73038e-06
-0.000174325
-4.24645e-07
-0.000173537
-2.39744e-06
-0.000172153
-4.14961e-06
-0.000170119
-6.20052e-06
-0.00016757
-7.54513e-06
-0.000164381
-9.57512e-06
-0.000160634
-1.12559e-05
-0.000156268
-1.30991e-05
-0.000151281
-1.49717e-05
-0.000145643
-1.68919e-05
-0.000139318
-1.89227e-05
-0.000132389
-2.0916e-05
-0.00012469
-2.30596e-05
-0.000116148
-2.5487e-05
-0.000106952
-2.77058e-05
-9.68725e-05
-3.02287e-05
-8.59449e-05
-3.29295e-05
-7.41583e-05
-3.52321e-05
-6.15408e-05
-3.78392e-05
-4.80774e-05
-4.03674e-05
-3.38516e-05
-4.27872e-05
-1.88759e-05
-4.47823e-05
-3.24195e-06
-4.68546e-05
1.29951e-05
-4.86277e-05
2.968e-05
-5.00834e-05
4.66916e-05
-5.09497e-05
6.38981e-05
-5.15801e-05
8.10839e-05
-5.1482e-05
9.80562e-05
-5.09016e-05
0.000114602
-4.95429e-05
0.00013048
-4.75592e-05
0.000145405
-4.47067e-05
0.000159158
-4.12034e-05
0.000171452
-3.68696e-05
0.000182076
-3.181e-05
0.00019079
-2.60585e-05
0.000197323
-1.95914e-05
0.000201616
-1.28225e-05
0.0002035
-5.58761e-06
0.000202878
1.77796e-06
0.000199791
9.27058e-06
0.000194217
1.6706e-05
0.000186277
2.37818e-05
0.000176132
3.0382e-05
0.00016401
3.63198e-05
0.000150126
4.15843e-05
0.00013476
4.60416e-05
0.000118173
4.96977e-05
0.000100651
5.25048e-05
8.2489e-05
5.43963e-05
6.39654e-05
5.55553e-05
4.53397e-05
5.58203e-05
2.67913e-05
5.55613e-05
8.57274e-06
5.46619e-05
-9.12299e-06
5.30503e-05
-2.61472e-05
5.10445e-05
-4.23783e-05
4.86544e-05
-5.77407e-05
4.60597e-05
-7.21285e-05
4.31287e-05
-8.55661e-05
4.02444e-05
-9.79953e-05
3.73392e-05
-0.000109407
3.42319e-05
-0.000119864
3.13555e-05
-0.000129339
2.83777e-05
-0.000137874
2.55543e-05
-0.000145419
2.27906e-05
-0.000152106
1.99994e-05
-0.000157823
1.71126e-05
-0.000162637
1.44485e-05
-0.000166607
1.1932e-05
-0.000169854
9.72993e-06
-0.000172433
7.73677e-06
-0.000174425
5.99747e-06
-0.000175867
4.28912e-06
-0.00017675
2.65997e-06
-0.000177032
8.90023e-07
-0.000176863
-5.46686e-07
-0.000176028
-2.50992e-06
-0.00017464
-4.15474e-06
-0.000172678
-5.89214e-06
-0.000170115
-7.76828e-06
-0.000166988
-9.30542e-06
-0.000163283
-1.11155e-05
-0.000158925
-1.30482e-05
-0.000153955
-1.48913e-05
-0.000148367
-1.6798e-05
-0.000142088
-1.88461e-05
-0.000135132
-2.08641e-05
-0.000127394
-2.31518e-05
-0.000119034
-2.51391e-05
-0.000109868
-2.74988e-05
-9.99007e-05
-2.99017e-05
-8.91354e-05
-3.22626e-05
-7.75992e-05
-3.47023e-05
-6.5265e-05
-3.68778e-05
-5.21473e-05
-3.93145e-05
-3.82808e-05
-4.16148e-05
-2.36792e-05
-4.37627e-05
-8.3826e-06
-4.57607e-05
7.36945e-06
-4.73328e-05
2.36088e-05
-4.8675e-05
4.01247e-05
-4.95064e-05
5.67764e-05
-4.98885e-05
7.33399e-05
-4.96501e-05
8.96441e-05
-4.88706e-05
0.000105439
-4.73187e-05
0.000120523
-4.51445e-05
0.000134563
-4.20306e-05
0.00014727
-3.8132e-05
0.000158469
-3.35739e-05
0.0001679
-2.8223e-05
0.000175379
-2.23706e-05
0.000180635
-1.57389e-05
0.000183626
-8.95935e-06
0.000184204
-1.76779e-06
0.000182311
5.62972e-06
0.00017795
1.30699e-05
0.000171224
2.01678e-05
0.000162254
2.68729e-05
0.000151224
3.30028e-05
0.000138373
3.84737e-05
0.00012397
4.32228e-05
0.00010818
4.7231e-05
9.13545e-05
5.04976e-05
7.37635e-05
5.27484e-05
5.57071e-05
5.42156e-05
3.73449e-05
5.4988e-05
1.90816e-05
5.47705e-05
1.05438e-06
5.40564e-05
-1.64841e-05
5.26027e-05
-3.34115e-05
5.07674e-05
-4.95841e-05
4.85167e-05
-6.49e-05
4.59492e-05
-7.93197e-05
4.32508e-05
-9.27509e-05
4.02968e-05
-0.000105175
3.72925e-05
-0.000116554
3.41532e-05
-0.000126916
3.11013e-05
-0.000136322
2.82456e-05
-0.000144672
2.50308e-05
-0.000152029
2.20967e-05
-0.000158432
1.92213e-05
-0.000163883
1.63581e-05
-0.000168457
1.37225e-05
-0.000172145
1.10643e-05
-0.000175011
8.61861e-06
-0.000177103
6.236e-06
-0.000178369
3.8081e-06
-0.00017883
1.45999e-06
-0.000178395
-1.34119e-06
-0.000177146
-3.71709e-06
-0.000175063
-6.20599e-06
-0.000172403
-7.95244e-06
-0.000169093
-9.92571e-06
-0.000165222
-1.15791e-05
-0.000161085
-1.23921e-05
-0.000156705
-1.31209e-05
-0.000151901
-1.44159e-05
-0.000146979
-1.47551e-05
-0.000141715
-1.58087e-05
-0.000136176
-1.66147e-05
-0.000130463
-1.71457e-05
-0.000124283
-1.85479e-05
-0.000117558
-2.02085e-05
-0.000110434
-2.14067e-05
-0.000102602
-2.351e-05
-9.39014e-05
-2.61e-05
-8.44845e-05
-2.82954e-05
-7.40525e-05
-3.12934e-05
-6.2666e-05
-3.41367e-05
-5.00774e-05
-3.7794e-05
-3.63724e-05
-4.11616e-05
-2.17613e-05
-4.37857e-05
-5.9812e-06
-4.7277e-05
1.07088e-05
-5.00463e-05
2.79461e-05
-5.16697e-05
4.57788e-05
-5.34415e-05
6.38242e-05
-5.40828e-05
8.19731e-05
-5.43783e-05
9.99077e-05
-5.37315e-05
0.000117146
-5.16494e-05
0.00013358
-4.92446e-05
0.000148928
-4.59704e-05
0.000162767
-4.14679e-05
0.000174999
-3.66485e-05
0.000185347
-3.10074e-05
0.000193727
-2.51046e-05
0.000199928
-1.85534e-05
0.000203826
-1.16761e-05
0.000205434
-4.8182e-06
0.000204689
2.15138e-06
0.000201543
9.37399e-06
0.000196247
1.58691e-05
0.000188858
2.21323e-05
0.000179685
2.74783e-05
0.000168911
3.22662e-05
0.000156703
3.65835e-05
0.000143331
4.00604e-05
0.000129143
4.25244e-05
0.000114127
4.50152e-05
9.87442e-05
4.6083e-05
8.30948e-05
4.6927e-05
6.72656e-05
4.74688e-05
5.15584e-05
4.70703e-05
3.60736e-05
4.6448e-05
2.07939e-05
4.58349e-05
5.86358e-06
4.47466e-05
-8.58097e-06
4.33278e-05
-2.25384e-05
4.18599e-05
-3.59993e-05
4.0376e-05
-4.89064e-05
3.87056e-05
-6.11928e-05
3.68518e-05
-7.28641e-05
3.50102e-05
-8.38701e-05
3.30128e-05
-9.42325e-05
3.10873e-05
-0.000103916
2.90462e-05
-0.000112884
2.69073e-05
-0.000121152
2.48072e-05
-0.000128694
2.26243e-05
-0.000135487
2.0378e-05
-0.000141521
1.80998e-05
-0.000146785
1.57937e-05
-0.00015128
1.34833e-05
-0.000154992
1.11316e-05
-0.000157909
8.74672e-06
-0.000160043
6.38616e-06
3.94236e-06
-4.41944e-05
-5.78891e-05
-2.84837e-05
-6.27807e-05
-1.18678e-05
-6.63018e-05
5.58863e-06
-6.98542e-05
2.3826e-05
-7.28497e-05
4.23746e-05
-7.40497e-05
6.13625e-05
-7.57864e-05
8.03789e-05
-7.58857e-05
9.90903e-05
-7.46571e-05
0.000117486
-7.34052e-05
0.000135223
-7.07697e-05
0.000151951
-6.67577e-05
0.000167519
-6.2117e-05
0.000181584
-5.61004e-05
0.000193914
-4.91863e-05
0.000204298
-4.143e-05
0.000212508
-3.27344e-05
0.000218424
-2.36104e-05
0.000221883
-1.38465e-05
0.000222788
-3.67921e-06
0.000221128
6.38537e-06
0.000216954
1.66214e-05
0.000210233
2.68275e-05
0.0002013
3.56357e-05
0.000190185
4.43341e-05
0.000177216
5.17844e-05
0.000162511
5.86863e-05
0.000146352
6.44454e-05
0.000129061
6.90499e-05
0.000110817
7.2828e-05
9.18815e-05
7.56125e-05
7.26567e-05
7.67206e-05
5.33462e-05
7.70888e-05
3.41733e-05
7.66346e-05
1.52277e-05
7.56675e-05
-3.22466e-06
7.37054e-05
-2.10304e-05
7.11428e-05
-3.81144e-05
6.82678e-05
-5.43184e-05
6.47533e-05
-6.95721e-05
6.09816e-05
-8.38494e-05
5.70821e-05
-9.71068e-05
5.30033e-05
-0.000109355
4.89707e-05
-0.00012057
4.48606e-05
-0.000130779
4.08312e-05
-0.000140009
3.69182e-05
-0.000148259
3.29947e-05
-0.000155565
2.92401e-05
-0.000161993
2.57097e-05
-0.000167548
2.2211e-05
-0.000172242
1.87905e-05
-0.000176149
1.56303e-05
-0.000179249
1.24141e-05
-0.000181625
9.49149e-06
-0.000183219
6.40162e-06
-0.000184076
3.48498e-06
-0.000184248
7.66106e-07
-0.00018362
-2.46457e-06
-0.000182196
-5.69031e-06
-0.000180131
-8.31072e-06
-0.000177095
-1.21255e-05
-0.000173356
-1.49836e-05
-0.000168845
-1.80864e-05
-0.00016338
-2.17922e-05
-0.000157155
-2.4847e-05
-0.000150118
-2.82563e-05
-0.000142051
-3.22482e-05
-0.000133239
-3.52963e-05
-0.000123367
-3.94705e-05
-0.000112536
-4.32738e-05
-0.000100841
-4.67815e-05
-8.83191e-05
-5.01354e-05
-7.48905e-05
-5.36713e-05
-6.07182e-05
-5.66671e-05
-4.5713e-05
-5.99675e-05
-2.99781e-05
-6.2895e-05
-1.35804e-05
-6.5526e-05
3.34538e-06
-6.77272e-05
2.07047e-05
-6.93849e-05
3.84671e-05
-7.09791e-05
5.64386e-05
-7.18031e-05
7.45115e-05
-7.21932e-05
9.24502e-05
-7.16738e-05
0.000110122
-7.04093e-05
0.000127394
-6.90829e-05
0.000143933
-6.60443e-05
0.000159664
-6.27717e-05
0.000174239
-5.81393e-05
0.000187438
-5.26606e-05
0.000198931
-4.58384e-05
0.000208504
-3.81693e-05
0.000215852
-2.93338e-05
0.000220869
-2.00608e-05
0.000223425
-1.02489e-05
0.000223441
-2.47493e-07
0.000220933
9.80516e-06
0.00021596
1.98007e-05
0.000208617
2.92786e-05
0.000199029
3.82408e-05
0.000187326
4.66118e-05
0.000173714
5.42089e-05
0.000158432
6.10064e-05
0.00014169
6.67875e-05
0.00012376