/*--------------------------------*- C++ -*----------------------------------*\
| =========                 |                                                 |
| \\      /  F ield         | OpenFOAM: The Open Source CFD Toolbox           |
|  \\    /   O peration     | Version:  3.0.1                                 |
|   \\  /    A nd           | Web:      www.OpenFOAM.org                      |
|    \\/     M anipulation  |                                                 |
\*---------------------------------------------------------------------------*/
FoamFile
{
    version     2.0;
    format      ascii;
    class       volVectorField;
    location    "15.2";
    object      U;
}
// * * * * * * * * * * * * * * * * * * * * * * * * * * * * * * * * * * * * * //

dimensions      [0 1 -1 0 0 0 0];

internalField   nonuniform List<vector> 
21420
(
(-0.0598296 -0.00145579 0)
(-0.0470092 -0.00155997 0)
(-0.0308779 -0.00163645 0)
(-0.0138965 -0.00170394 0)
(0.00370157 -0.00178522 0)
(0.0218523 -0.00182478 0)
(0.0405263 -0.00188102 0)
(0.0594576 -0.0018841 0)
(0.0784214 -0.00186428 0)
(0.0972154 -0.00185837 0)
(0.115608 -0.00179235 0)
(0.133319 -0.00170098 0)
(0.150102 -0.00161452 0)
(0.165705 -0.00147299 0)
(0.179865 -0.00132902 0)
(0.192343 -0.00114295 0)
(0.202904 -0.000939297 0)
(0.211342 -0.000725233 0)
(0.217471 -0.000493425 0)
(0.221133 -0.000246659 0)
(0.222277 6.33228e-06 0)
(0.221111 0.00025455 0)
(0.217398 0.000500505 0)
(0.211276 0.000721737 0)
(0.202865 0.000944635 0)
(0.192341 0.00113278 0)
(0.179902 0.00131957 0)
(0.165733 0.00148966 0)
(0.150093 0.00160266 0)
(0.133264 0.0017196 0)
(0.115455 0.00181333 0)
(0.0969577 0.0018471 0)
(0.0780887 0.00188671 0)
(0.0591325 0.00187077 0)
(0.0403484 0.00186714 0)
(0.021894 0.00184248 0)
(0.00352223 0.00178454 0)
(-0.014465 0.00172159 0)
(-0.0315593 0.0016494 0)
(-0.047786 0.00155501 0)
(-0.0631026 0.00146872 0)
(-0.0774728 0.00136757 0)
(-0.0908629 0.0012744 0)
(-0.103277 0.00117828 0)
(-0.114694 0.00107735 0)
(-0.125128 0.000982966 0)
(-0.134603 0.000889417 0)
(-0.143137 0.000796341 0)
(-0.150757 0.000708548 0)
(-0.157481 0.000624076 0)
(-0.163345 0.0005416 0)
(-0.168389 0.000461678 0)
(-0.17264 0.000386149 0)
(-0.176117 0.000314796 0)
(-0.178832 0.000239757 0)
(-0.180825 0.000162668 0)
(-0.182135 8.64696e-05 0)
(-0.182822 1.5992e-05 0)
(-0.182789 -4.84044e-05 0)
(-0.181991 -0.000113251 0)
(-0.180461 -0.000185376 0)
(-0.178203 -0.000256872 0)
(-0.175201 -0.000334267 0)
(-0.171356 -0.000419578 0)
(-0.166673 -0.00049962 0)
(-0.161158 -0.000587459 0)
(-0.154649 -0.000688008 0)
(-0.147186 -0.000776929 0)
(-0.138712 -0.000886416 0)
(-0.129159 -0.00097375 0)
(-0.118169 -0.0010713 0)
(-0.106777 -0.00118535 0)
(-0.0946924 -0.00128876 0)
(-0.0815133 -0.00134842 0)
(-0.067632 -0.00149631 0)
(-0.0528134 -0.00156238 0)
(-0.0370688 -0.0016744 0)
(-0.0202368 -0.00173918 0)
(-0.00220074 -0.00178583 0)
(0.0170175 -0.00186743 0)
(0.0364382 -0.0019019 0)
(0.0558314 -0.00190431 0)
(0.0752421 -0.0019109 0)
(0.0945887 -0.00188178 0)
(0.113437 -0.00182226 0)
(0.131583 -0.00174298 0)
(0.148829 -0.00163907 0)
(0.164946 -0.00151141 0)
(0.179533 -0.00136268 0)
(0.192408 -0.00118492 0)
(0.203333 -0.000987255 0)
(0.212061 -0.000774725 0)
(0.21836 -0.000529284 0)
(0.222216 -0.000289355 0)
(0.223609 -2.01636e-05 0)
(0.222723 0.000212892 0)
(0.219419 0.00045203 0)
(0.213462 0.000700485 0)
(0.205099 0.000904552 0)
(0.194677 0.00111548 0)
(0.182028 0.00131977 0)
(0.167451 0.00146508 0)
(0.150459 0.00159749 0)
(0.134617 0.00167881 0)
(0.11835 0.00178737 0)
(0.0999193 0.00185944 0)
(0.0819478 0.00186741 0)
(0.0635337 0.00187509 0)
(0.0451502 0.00186375 0)
(0.0270189 0.00181516 0)
(0.00877835 0.00176411 0)
(-0.00940215 0.00169369 0)
(-0.0264838 0.00161145 0)
(-0.0425679 0.00152907 0)
(-0.0577197 0.00143841 0)
(-0.0719231 0.00135112 0)
(-0.0852277 0.0012621 0)
(-0.0975924 0.00117173 0)
(-0.109047 0.00108544 0)
(-0.119628 0.00100031 0)
(-0.129339 0.000916898 0)
(-0.138219 0.000837404 0)
(-0.146307 0.00076032 0)
(-0.153625 0.000687817 0)
(-0.160176 0.000618366 0)
(-0.16602 0.000550087 0)
(-0.171173 0.000480209 0)
(-0.175611 0.000409221 0)
(-0.179335 0.000337152 0)
(-0.182322 0.000264719 0)
(-0.184564 0.000186202 0)
(-0.186054 0.000102476 0)
(-0.186818 2.17065e-05 0)
(-0.186721 -5.84849e-05 0)
(-0.185731 -0.000137598 0)
(-0.183876 -0.00022609 0)
(-0.181063 -0.000323274 0)
(-0.177301 -0.000416544 0)
(-0.172509 -0.000523529 0)
(-0.166693 -0.000617251 0)
(-0.159917 -0.000719981 0)
(-0.151965 -0.000836372 0)
(-0.142949 -0.000926396 0)
(-0.133117 -0.00102239 0)
(-0.121386 -0.00113759 0)
(-0.109271 -0.00121513 0)
(-0.0971503 -0.00130104 0)
(-0.0835507 -0.00140239 0)
(-0.0698105 -0.00146437 0)
(-0.0553043 -0.00155468 0)
(-0.0397956 -0.00160321 0)
(-0.0241448 -0.00163802 0)
(-0.00715819 -0.00170039 0)
(0.0109044 -0.00173132 0)
(0.0286878 -0.00174004 0)
(0.046583 -0.00176762 0)
(0.0645563 -0.00175922 0)
(0.082389 -0.00175412 0)
(0.100103 -0.00172471 0)
(0.117363 -0.00167295 0)
(0.134062 -0.00160997 0)
(0.15004 -0.00153192 0)
(0.165203 -0.00142811 0)
(0.179178 -0.00130467 0)
(0.191665 -0.00116012 0)
(0.202436 -0.000993776 0)
(0.211327 -0.00079369 0)
(0.217982 -0.000567426 0)
(0.222283 -0.000337202 0)
(0.224235 -8.30521e-05 0)
(0.223785 0.00019182 0)
(0.220674 0.000425584 0)
(0.21513 0.000667885 0)
(0.206846 0.000930262 0)
(0.196101 0.0011364 0)
(0.18326 0.00135927 0)
(0.167884 0.0015256 0)
(0.151022 0.00168217 0)
(0.133642 0.00183339 0)
(0.11538 0.00192618 0)
(0.0962776 0.00199935 0)
(0.076208 0.00204494 0)
(0.0560787 0.00205291 0)
(0.0361419 0.00204346 0)
(0.016278 0.00198006 0)
(-0.00393793 0.00190935 0)
(-0.0237904 0.00181921 0)
(-0.041922 0.00171143 0)
(-0.0588772 0.00159993 0)
(-0.0746755 0.00148022 0)
(-0.0892589 0.0013546 0)
(-0.102621 0.00122984 0)
(-0.114729 0.0011063 0)
(-0.125585 0.0009882 0)
(-0.135249 0.000875434 0)
(-0.143765 0.000770475 0)
(-0.15117 0.000673127 0)
(-0.157512 0.000580617 0)
(-0.162909 0.000493452 0)
(-0.167442 0.000415401 0)
(-0.171179 0.000338159 0)
(-0.174182 0.000267741 0)
(-0.1765 0.000201504 0)
(-0.178165 0.000136979 0)
(-0.179246 6.98815e-05 0)
(-0.179807 1.13016e-05 0)
(-0.179775 -3.88442e-05 0)
(-0.179137 -8.85645e-05 0)
(-0.17794 -0.000143935 0)
(-0.176151 -0.000204175 0)
(-0.173767 -0.00026402 0)
(-0.170733 -0.000332333 0)
(-0.167024 -0.000397621 0)
(-0.162633 -0.000471559 0)
(-0.157396 -0.000557281 0)
(-0.151329 -0.000633789 0)
(-0.144455 -0.000721526 0)
(-0.136544 -0.000828967 0)
(-0.127565 -0.000920153 0)
(-0.116735 -0.00104319 0)
(-0.105925 -0.00112736 0)
(-0.094401 -0.0012326 0)
(-0.0814709 -0.00136391 0)
(-0.0680801 -0.00145925 0)
(-0.0535203 -0.00152115 0)
(-0.0379331 -0.00166162 0)
(-0.0215079 -0.00172428 0)
(-0.00350814 -0.00181893 0)
(0.0160396 -0.00187501 0)
(0.0353213 -0.00189531 0)
(0.0548181 -0.00192906 0)
(0.0745091 -0.00192319 0)
(0.0938822 -0.0018839 0)
(0.112787 -0.00183112 0)
(0.131018 -0.00174835 0)
(0.148348 -0.00163954 0)
(0.164423 -0.00150511 0)
(0.178904 -0.00134467 0)
(0.19157 -0.00116544 0)
(0.202143 -0.000960191 0)
(0.210408 -0.000724768 0)
(0.216249 -0.000492046 0)
(0.219652 -0.000233623 0)
(0.220549 3.74169e-05 0)
(0.219132 0.000267764 0)
(0.215172 0.000507517 0)
(0.20886 0.000705907 0)
(0.200474 0.000913824 0)
(0.189891 0.00111848 0)
(0.177393 0.00126849 0)
(0.162909 0.0014113 0)
(0.146535 0.00152589 0)
(0.131335 0.00160671 0)
(0.116554 0.00169203 0)
(0.09963 0.00173926 0)
(0.0823987 0.00175172 0)
(0.0650776 0.00175664 0)
(0.0477848 0.0017373 0)
(0.0309564 0.00170127 0)
(0.0143452 0.00165016 0)
(-0.00237443 0.0015826 0)
(-0.0186576 0.00149752 0)
(-0.0335823 0.00140658 0)
(-0.047522 0.00131674 0)
(-0.0605559 0.001224 0)
(-0.0726636 0.00112833 0)
(-0.0838467 0.00103436 0)
(-0.0940932 0.000942479 0)
(-0.103397 0.000853226 0)
(-0.111795 0.00076805 0)
(-0.119321 0.000686988 0)
(-0.125982 0.000609388 0)
(-0.131775 0.000534035 0)
(-0.136776 0.000460632 0)
(-0.141024 0.000387178 0)
(-0.144556 0.000317436 0)
(-0.147393 0.000248089 0)
(-0.149545 0.000186212 0)
(-0.151046 0.000117352 0)
(-0.151921 4.65141e-05 0)
(-0.152202 -1.62597e-05 0)
(-0.151803 -7.38183e-05 0)
(-0.150763 -0.000132135 0)
(-0.149115 -0.000194251 0)
(-0.146816 -0.000259771 0)
(-0.143879 -0.00032131 0)
(-0.14032 -0.000386177 0)
(-0.136061 -0.000457029 0)
(-0.131128 -0.000522144 0)
(-0.125481 -0.000597332 0)
(-0.119113 -0.000662671 0)
(-0.112097 -0.000732365 0)
(-0.104313 -0.000813578 0)
(-0.0953965 -0.000880796 0)
(-0.0863971 -0.000946496 0)
(-0.0766309 -0.00102869 0)
(-0.0659777 -0.00109167 0)
(-0.0548782 -0.00116121 0)
(-0.0429281 -0.00122229 0)
(-0.0306608 -0.00127501 0)
(-0.0177125 -0.00134133 0)
(-0.00395081 -0.00138031 0)
(0.0102607 -0.00140514 0)
(0.0246769 -0.00143973 0)
(0.0392746 -0.00144553 0)
(0.0538112 -0.00143484 0)
(0.0682429 -0.001426 0)
(0.082439 -0.00138861 0)
(0.0962184 -0.00134667 0)
(0.109451 -0.0012796 0)
(0.121933 -0.00119611 0)
(0.133561 -0.00110395 0)
(0.144149 -0.000993838 0)
(0.153537 -0.000871864 0)
(0.161647 -0.000741052 0)
(0.168359 -0.000598403 0)
(0.173563 -0.000448638 0)
(0.177188 -0.000292034 0)
(0.17921 -0.000129372 0)
(0.179689 3.17272e-05 0)
(0.178697 0.00018774 0)
(0.176098 0.000335435 0)
(0.172046 0.00046727 0)
(0.166635 0.000598115 0)
(0.159991 0.000710088 0)
(0.152245 0.000815796 0)
(0.143519 0.000909086 0)
(0.133975 0.000975969 0)
(0.123772 0.0010379 0)
(0.11305 0.00108611 0)
(0.101967 0.00110726 0)
(0.0906725 0.00112626 0)
(0.079296 0.00113252 0)
(0.0679698 0.00111514 0)
(0.0568043 0.00109773 0)
(0.0459122 0.00106048 0)
(0.0353952 0.00102306 0)
(0.0253433 0.000978433 0)
(0.0158688 0.00092025 0)
(0.00714275 0.000862782 0)
(-0.00125053 0.000797987 0)
(-0.00918735 0.000727538 0)
(-0.0162054 0.000660313 0)
(-0.0225183 0.000589341 0)
(-0.0281244 0.000520796 0)
(-0.0330266 0.000452263 0)
(-0.0372364 0.000383539 0)
(-0.040767 0.000317247 0)
(-0.0436349 0.000252568 0)
(-0.0458582 0.000189814 0)
(-0.0474595 0.000129261 0)
(-0.0484565 7.07531e-05 0)
(-0.0488647 1.45321e-05 0)
(-0.0487233 -3.8186e-05 0)
(-0.0480721 -8.86307e-05 0)
(-0.0469255 -0.000136449 0)
(-0.0449539 -0.000181583 0)
(-0.0598666 -0.00436752 0)
(-0.0470455 -0.00468013 0)
(-0.0309114 -0.00490963 0)
(-0.0139256 -0.00511314 0)
(0.00367725 -0.00535507 0)
(0.0218337 -0.0054751 0)
(0.0405146 -0.00564385 0)
(0.059454 -0.00565315 0)
(0.0784264 -0.00559376 0)
(0.0972302 -0.00557611 0)
(0.115632 -0.00537808 0)
(0.133353 -0.00510399 0)
(0.150148 -0.00484465 0)
(0.16576 -0.00442046 0)
(0.179931 -0.00398854 0)
(0.192417 -0.00342941 0)
(0.202986 -0.00281842 0)
(0.211431 -0.00217614 0)
(0.217564 -0.0014803 0)
(0.221233 -0.000737878 0)
(0.222382 1.70991e-05 0)
(0.221208 0.00076256 0)
(0.21749 0.00150107 0)
(0.211366 0.00216516 0)
(0.202951 0.00283438 0)
(0.192419 0.00339897 0)
(0.179973 0.00395948 0)
(0.165795 0.00446987 0)
(0.150145 0.00480885 0)
(0.133307 0.00515975 0)
(0.115488 0.00544092 0)
(0.0969805 0.0055423 0)
(0.0781015 0.00566129 0)
(0.0591373 0.00561346 0)
(0.040346 0.0056025 0)
(0.0218858 0.0055284 0)
(0.00350723 0.00535398 0)
(-0.0144869 0.00516505 0)
(-0.0315843 0.00494856 0)
(-0.0478134 0.00466537 0)
(-0.0631324 0.00440645 0)
(-0.0775037 0.00410297 0)
(-0.090895 0.0038234 0)
(-0.10331 0.00353501 0)
(-0.114727 0.00323218 0)
(-0.12516 0.00294902 0)
(-0.134635 0.00266835 0)
(-0.143168 0.00238913 0)
(-0.150787 0.00212566 0)
(-0.15751 0.00187188 0)
(-0.163374 0.00162524 0)
(-0.168419 0.00138872 0)
(-0.172666 0.00116099 0)
(-0.176146 0.00094409 0)
(-0.178863 0.000718697 0)
(-0.180856 0.000487116 0)
(-0.182168 0.000260087 0)
(-0.182851 4.79044e-05 0)
(-0.182818 -0.000144783 0)
(-0.182022 -0.000339252 0)
(-0.180495 -0.000555675 0)
(-0.17824 -0.00077014 0)
(-0.175241 -0.0010023 0)
(-0.171399 -0.00125822 0)
(-0.166719 -0.00149834 0)
(-0.161206 -0.00176187 0)
(-0.1547 -0.00206353 0)
(-0.147239 -0.0023303 0)
(-0.138767 -0.00265878 0)
(-0.129217 -0.0029207 0)
(-0.118227 -0.00321336 0)
(-0.10684 -0.00355568 0)
(-0.094751 -0.00386552 0)
(-0.0815741 -0.00404694 0)
(-0.0676964 -0.00448805 0)
(-0.0528709 -0.00468784 0)
(-0.0371254 -0.00502357 0)
(-0.0202898 -0.00521806 0)
(-0.00225076 -0.00535802 0)
(0.0169738 -0.00560308 0)
(0.0364033 -0.00570675 0)
(0.0558055 -0.00571415 0)
(0.0752273 -0.00573413 0)
(0.0945852 -0.00564692 0)
(0.113445 -0.00546843 0)
(0.131604 -0.00523052 0)
(0.14886 -0.00491899 0)
(0.164984 -0.00453601 0)
(0.179597 -0.00408 0)
(0.192485 -0.00355261 0)
(0.203417 -0.00295038 0)
(0.212153 -0.0023155 0)
(0.218461 -0.00157813 0)
(0.22232 -0.000867929 0)
(0.223731 -5.8725e-05 0)
(0.222822 0.000634208 0)
(0.219522 0.00135333 0)
(0.21357 0.00210039 0)
(0.205205 0.00271345 0)
(0.194778 0.00334657 0)
(0.182121 0.0039597 0)
(0.167533 0.00439569 0)
(0.150529 0.0047932 0)
(0.134683 0.00503846 0)
(0.118409 0.00536261 0)
(0.0999613 0.00558007 0)
(0.0819778 0.00560358 0)
(0.0635559 0.00562701 0)
(0.0451626 0.00559192 0)
(0.0270228 0.00544659 0)
(0.0087748 0.0052934 0)
(-0.00941173 0.0050816 0)
(-0.026497 0.00483493 0)
(-0.0425846 0.00458771 0)
(-0.0577386 0.00431568 0)
(-0.0719438 0.00405377 0)
(-0.0852496 0.00378668 0)
(-0.0976151 0.00351555 0)
(-0.109071 0.00325668 0)
(-0.119652 0.00300128 0)
(-0.129363 0.00275103 0)
(-0.138242 0.0025125 0)
(-0.146329 0.00228107 0)
(-0.153646 0.00206363 0)
(-0.160198 0.00185625 0)
(-0.166045 0.00164841 0)
(-0.1712 0.00143881 0)
(-0.175638 0.0012248 0)
(-0.179363 0.00101015 0)
(-0.182353 0.000794435 0)
(-0.1846 0.000559945 0)
(-0.186094 0.000308757 0)
(-0.186854 6.5467e-05 0)
(-0.186759 -0.000174751 0)
(-0.185773 -0.000412039 0)
(-0.183921 -0.000677622 0)
(-0.181111 -0.000969203 0)
(-0.177352 -0.00124903 0)
(-0.172563 -0.00157003 0)
(-0.166749 -0.00185124 0)
(-0.159974 -0.00215951 0)
(-0.152023 -0.00250877 0)
(-0.143008 -0.00277889 0)
(-0.133175 -0.00306685 0)
(-0.121444 -0.00341249 0)
(-0.10933 -0.00364521 0)
(-0.097207 -0.0039031 0)
(-0.0836043 -0.00420715 0)
(-0.0698625 -0.00439375 0)
(-0.0553537 -0.00466454 0)
(-0.0398415 -0.00481012 0)
(-0.0241877 -0.00491456 0)
(-0.00719829 -0.00510188 0)
(0.0108686 -0.00519434 0)
(0.0286569 -0.00522073 0)
(0.0465583 -0.00530366 0)
(0.0645372 -0.00527857 0)
(0.0823774 -0.00526339 0)
(0.100099 -0.00517533 0)
(0.117367 -0.00501988 0)
(0.134075 -0.00483273 0)
(0.150065 -0.0045916 0)
(0.165228 -0.00428896 0)
(0.179228 -0.0039163 0)
(0.191737 -0.00347497 0)
(0.202501 -0.00297912 0)
(0.211409 -0.00237923 0)
(0.218085 -0.0017044 0)
(0.22239 -0.00101556 0)
(0.224356 -0.000254656 0)
(0.223894 0.00057117 0)
(0.220778 0.00127419 0)
(0.215243 0.00200192 0)
(0.20696 0.00279035 0)
(0.196212 0.00340915 0)
(0.183364 0.00407808 0)
(0.167978 0.00457722 0)
(0.151106 0.00504715 0)
(0.133719 0.00550128 0)
(0.115444 0.00578057 0)
(0.0963261 0.00599968 0)
(0.0762464 0.00613623 0)
(0.0561062 0.00616047 0)
(0.0361531 0.00613222 0)
(0.0162763 0.00594175 0)
(-0.00394859 0.00572906 0)
(-0.0238087 0.00545851 0)
(-0.0419461 0.00513512 0)
(-0.0589064 0.00480051 0)
(-0.0747085 0.00444123 0)
(-0.0892945 0.00406425 0)
(-0.102658 0.00368988 0)
(-0.114766 0.00331918 0)
(-0.125622 0.00296481 0)
(-0.135285 0.00262659 0)
(-0.143797 0.00231224 0)
(-0.151201 0.0020207 0)
(-0.157544 0.00174062 0)
(-0.162939 0.00147832 0)
(-0.16747 0.00124331 0)
(-0.171209 0.00101394 0)
(-0.174208 0.000801804 0)
(-0.176526 0.000601732 0)
(-0.178194 0.000411429 0)
(-0.179275 0.000210102 0)
(-0.179832 3.20486e-05 0)
(-0.1798 -0.000115937 0)
(-0.179164 -0.000265138 0)
(-0.177969 -0.000431304 0)
(-0.176183 -0.000612001 0)
(-0.173801 -0.000791505 0)
(-0.17077 -0.000996412 0)
(-0.167064 -0.00119226 0)
(-0.162676 -0.00141406 0)
(-0.157443 -0.00167121 0)
(-0.151379 -0.00190071 0)
(-0.144508 -0.00216393 0)
(-0.136601 -0.00248628 0)
(-0.127625 -0.00275978 0)
(-0.116796 -0.00312895 0)
(-0.105989 -0.00338192 0)
(-0.0944676 -0.00369679 0)
(-0.0815377 -0.00409193 0)
(-0.0681417 -0.00437561 0)
(-0.053583 -0.00456547 0)
(-0.0379966 -0.00498506 0)
(-0.0215635 -0.00517325 0)
(-0.00355964 -0.00545904 0)
(0.0159948 -0.00562598 0)
(0.0352854 -0.005687 0)
(0.0547926 -0.00578848 0)
(0.0744946 -0.00577107 0)
(0.0938791 -0.00565327 0)
(0.112796 -0.00549522 0)
(0.131041 -0.00524566 0)
(0.148381 -0.00492321 0)
(0.164467 -0.00451242 0)
(0.178971 -0.004031 0)
(0.191648 -0.00348468 0)
(0.202229 -0.00287029 0)
(0.210504 -0.00216791 0)
(0.216353 -0.00146886 0)
(0.219764 -0.000699246 0)
(0.220663 0.000110836 0)
(0.219228 0.000801246 0)
(0.215272 0.00152059 0)
(0.208961 0.00211702 0)
(0.200573 0.00274146 0)
(0.189983 0.00335573 0)
(0.177477 0.00380582 0)
(0.162981 0.00423393 0)
(0.146598 0.00457834 0)
(0.131394 0.00482152 0)
(0.116606 0.00507733 0)
(0.0996676 0.0052198 0)
(0.082424 0.00525626 0)
(0.0650982 0.00527096 0)
(0.0477968 0.0052132 0)
(0.0309591 0.00510506 0)
(0.0143419 0.00495146 0)
(-0.00238546 0.0047486 0)
(-0.0186751 0.00449292 0)
(-0.0336019 0.00422022 0)
(-0.0475441 0.00395065 0)
(-0.06058 0.00367231 0)
(-0.0726892 0.0033852 0)
(-0.0838733 0.00310323 0)
(-0.0941199 0.00282758 0)
(-0.103423 0.00255981 0)
(-0.111821 0.00230427 0)
(-0.119346 0.00206122 0)
(-0.126006 0.00182904 0)
(-0.131802 0.00160053 0)
(-0.136801 0.00137847 0)
(-0.14105 0.00115956 0)
(-0.144587 0.000956136 0)
(-0.147418 0.000747453 0)
(-0.149571 0.000555413 0)
(-0.151075 0.000352359 0)
(-0.151954 0.000141721 0)
(-0.15223 -4.408e-05 0)
(-0.151831 -0.000220574 0)
(-0.150793 -0.000395983 0)
(-0.149147 -0.000582408 0)
(-0.146849 -0.000778972 0)
(-0.143913 -0.000963586 0)
(-0.140355 -0.00115819 0)
(-0.136098 -0.00137074 0)
(-0.131166 -0.00156609 0)
(-0.12552 -0.00179166 0)
(-0.119154 -0.00198769 0)
(-0.112138 -0.0021968 0)
(-0.104356 -0.00244045 0)
(-0.0954388 -0.00264213 0)
(-0.0864392 -0.00283941 0)
(-0.0766735 -0.00308592 0)
(-0.0660187 -0.00327522 0)
(-0.0549175 -0.00348444 0)
(-0.0429669 -0.00366747 0)
(-0.0306979 -0.00382554 0)
(-0.0177462 -0.00402453 0)
(-0.00398006 -0.00414135 0)
(0.0102363 -0.00421581 0)
(0.024658 -0.00431977 0)
(0.0392617 -0.00433726 0)
(0.0538045 -0.00430526 0)
(0.0682434 -0.00427881 0)
(0.0824463 -0.00416668 0)
(0.0962334 -0.0040409 0)
(0.109473 -0.00383954 0)
(0.121962 -0.0035898 0)
(0.133597 -0.00331223 0)
(0.144189 -0.00298469 0)
(0.153587 -0.00261397 0)
(0.161701 -0.00222389 0)
(0.168417 -0.00179502 0)
(0.173624 -0.00134512 0)
(0.177252 -0.000875482 0)
(0.179278 -0.000387142 0)
(0.179758 9.469e-05 0)
(0.178755 0.000562854 0)
(0.176154 0.00100537 0)
(0.172101 0.00140179 0)
(0.166687 0.00179467 0)
(0.160038 0.00213068 0)
(0.152286 0.00244788 0)
(0.143555 0.00272781 0)
(0.134004 0.00292846 0)
(0.123796 0.00311425 0)
(0.113067 0.0032589 0)
(0.101979 0.0033223 0)
(0.0906785 0.00337928 0)
(0.0792968 0.00339807 0)
(0.0679659 0.00334587 0)
(0.056796 0.00329359 0)
(0.0459 0.00318185 0)
(0.0353794 0.00306962 0)
(0.0253247 0.00293565 0)
(0.0158478 0.00276111 0)
(0.00711899 0.00258892 0)
(-0.00127615 0.0023938 0)
(-0.0092134 0.00218264 0)
(-0.016232 0.00198099 0)
(-0.022545 0.00176805 0)
(-0.0281513 0.00156239 0)
(-0.0330534 0.00135677 0)
(-0.0372627 0.00115058 0)
(-0.0407928 0.000951712 0)
(-0.04366 0.000757653 0)
(-0.0458824 0.000569332 0)
(-0.0474827 0.000387696 0)
(-0.0484796 0.000212207 0)
(-0.0488864 4.37568e-05 0)
(-0.0487437 -0.000114591 0)
(-0.0480917 -0.00026597 0)
(-0.046944 -0.000409437 0)
(-0.0449711 -0.000544848 0)
(-0.0599397 -0.00727974 0)
(-0.0471162 -0.00780106 0)
(-0.0309765 -0.00818366 0)
(-0.0139813 -0.00852429 0)
(0.00363128 -0.00892558 0)
(0.0217991 -0.00912754 0)
(0.040494 -0.00940905 0)
(0.0594499 -0.00942472 0)
(0.0784396 -0.00932591 0)
(0.0972631 -0.0092968 0)
(0.115685 -0.00896683 0)
(0.133425 -0.00851009 0)
(0.150243 -0.00807805 0)
(0.165874 -0.00737145 0)
(0.180068 -0.00665158 0)
(0.192569 -0.00571846 0)
(0.203152 -0.00469946 0)
(0.211611 -0.00362789 0)
(0.217752 -0.00246604 0)
(0.221431 -0.0012343 0)
(0.222599 3.03169e-05 0)
(0.221394 0.00126988 0)
(0.217671 0.00249987 0)
(0.211541 0.00360895 0)
(0.203118 0.00472603 0)
(0.192569 0.00566748 0)
(0.180107 0.00660206 0)
(0.165911 0.00745306 0)
(0.150238 0.00801803 0)
(0.13338 0.00860295 0)
(0.115541 0.00907152 0)
(0.0970127 0.00924051 0)
(0.0781129 0.00943907 0)
(0.0591322 0.00935948 0)
(0.0403261 0.00934027 0)
(0.0218539 0.00921623 0)
(0.00346166 0.00892423 0)
(-0.0145461 0.00860923 0)
(-0.0316493 0.00824847 0)
(-0.0478828 0.00777631 0)
(-0.0632062 0.00734455 0)
(-0.0775791 0.00683856 0)
(-0.090972 0.00637243 0)
(-0.103388 0.00589163 0)
(-0.114803 0.00538679 0)
(-0.125235 0.00491475 0)
(-0.134708 0.0044469 0)
(-0.143238 0.0039815 0)
(-0.150853 0.00354283 0)
(-0.157575 0.00311992 0)
(-0.163438 0.00270887 0)
(-0.168478 0.00231692 0)
(-0.172724 0.0019319 0)
(-0.176201 0.00157015 0)
(-0.178924 0.00119702 0)
(-0.180916 0.000815239 0)
(-0.182232 0.000435901 0)
(-0.182903 8.13326e-05 0)
(-0.182868 -0.000240731 0)
(-0.182076 -0.000564601 0)
(-0.180553 -0.000925553 0)
(-0.1783 -0.00128296 0)
(-0.175304 -0.00166987 0)
(-0.171465 -0.00209637 0)
(-0.166788 -0.00249662 0)
(-0.161277 -0.00293589 0)
(-0.154774 -0.00343869 0)
(-0.147314 -0.00388334 0)
(-0.138845 -0.00443085 0)
(-0.129297 -0.00486728 0)
(-0.118306 -0.00535512 0)
(-0.106925 -0.00592577 0)
(-0.0948264 -0.00644001 0)
(-0.0816512 -0.0067504 0)
(-0.0677786 -0.00747818 0)
(-0.0529384 -0.0078153 0)
(-0.0371897 -0.00837359 0)
(-0.0203463 -0.00869809 0)
(-0.00230132 -0.00893122 0)
(0.0169349 -0.00934059 0)
(0.0363808 -0.00951387 0)
(0.0557991 -0.00952644 0)
(0.0752408 -0.0095601 0)
(0.0946183 -0.00941491 0)
(0.113498 -0.00911746 0)
(0.131678 -0.0087202 0)
(0.148951 -0.00820296 0)
(0.165089 -0.00755583 0)
(0.179735 -0.00681089 0)
(0.192664 -0.00591331 0)
(0.203592 -0.0049151 0)
(0.212337 -0.00385639 0)
(0.218657 -0.0026254 0)
(0.222522 -0.00144686 0)
(0.223935 -0.000110809 0)
(0.222992 0.00104557 0)
(0.219697 0.00224855 0)
(0.213749 0.00349968 0)
(0.205375 0.00452383 0)
(0.194934 0.00557982 0)
(0.18226 0.00660224 0)
(0.167647 0.00732912 0)
(0.150616 0.00799189 0)
(0.134761 0.00840439 0)
(0.118474 0.0089386 0)
(0.099993 0.00930451 0)
(0.0819861 0.00934244 0)
(0.0635502 0.00938511 0)
(0.0451391 0.00931859 0)
(0.0269849 0.00907983 0)
(0.00872423 0.00882405 0)
(-0.00947148 0.0084703 0)
(-0.0265611 0.00805897 0)
(-0.042653 0.00764657 0)
(-0.0578086 0.00719298 0)
(-0.0720147 0.00675632 0)
(-0.0853203 0.00631106 0)
(-0.0976849 0.00585911 0)
(-0.109139 0.00542759 0)
(-0.119718 0.00500185 0)
(-0.129427 0.00458471 0)
(-0.138304 0.00418708 0)
(-0.146387 0.00380129 0)
(-0.153699 0.00343909 0)
(-0.160249 0.00309158 0)
(-0.166098 0.00274552 0)
(-0.171258 0.00239535 0)
(-0.175696 0.00203438 0)
(-0.179419 0.00167945 0)
(-0.182412 0.00132227 0)
(-0.184665 0.000933561 0)
(-0.186168 0.00051548 0)
(-0.186917 0.000110456 0)
(-0.186823 -0.000290545 0)
(-0.185841 -0.000685641 0)
(-0.183993 -0.00112866 0)
(-0.181187 -0.00161468 0)
(-0.17743 -0.00208111 0)
(-0.172644 -0.00261619 0)
(-0.166831 -0.00308501 0)
(-0.160057 -0.003599 0)
(-0.152106 -0.00418132 0)
(-0.143089 -0.00463163 0)
(-0.133254 -0.00511157 0)
(-0.12152 -0.00568776 0)
(-0.109404 -0.00607568 0)
(-0.0972766 -0.00650557 0)
(-0.0836666 -0.00701237 0)
(-0.0699199 -0.00732462 0)
(-0.0554046 -0.00777563 0)
(-0.0398848 -0.00801822 0)
(-0.0242248 -0.00819214 0)
(-0.00722993 -0.00850456 0)
(0.0108448 -0.00865834 0)
(0.0286415 -0.00870258 0)
(0.0465541 -0.00884112 0)
(0.0645423 -0.00879943 0)
(0.0823952 -0.00877435 0)
(0.10013 -0.00862778 0)
(0.11741 -0.00836871 0)
(0.134134 -0.00805714 0)
(0.150138 -0.00765435 0)
(0.165306 -0.00714205 0)
(0.179349 -0.00653 0)
(0.191875 -0.0057974 0)
(0.202667 -0.00494863 0)
(0.21158 -0.00395244 0)
(0.218261 -0.00284377 0)
(0.222584 -0.00170044 0)
(0.224573 -0.000436182 0)
(0.224084 0.000940437 0)
(0.220954 0.00211664 0)
(0.215432 0.00333356 0)
(0.207146 0.00465143 0)
(0.196386 0.00568377 0)
(0.183522 0.00679936 0)
(0.168112 0.00763158 0)
(0.15122 0.00841506 0)
(0.133816 0.00917221 0)
(0.115513 0.00964032 0)
(0.0963666 0.0100038 0)
(0.0762679 0.0102313 0)
(0.056108 0.0102726 0)
(0.0361244 0.010223 0)
(0.0162245 0.00990631 0)
(-0.00401493 0.00955019 0)
(-0.0238864 0.00909894 0)
(-0.0420322 0.00855965 0)
(-0.0589991 0.00800157 0)
(-0.0748052 0.00740236 0)
(-0.0893932 0.00677363 0)
(-0.102756 0.00614941 0)
(-0.114862 0.00553135 0)
(-0.125713 0.00494051 0)
(-0.13537 0.0043766 0)
(-0.143874 0.00385223 0)
(-0.151272 0.00336523 0)
(-0.157617 0.00289942 0)
(-0.163008 0.00246153 0)
(-0.167529 0.00206767 0)
(-0.171264 0.00168504 0)
(-0.174267 0.00133374 0)
(-0.176576 0.00099994 0)
(-0.178244 0.000685829 0)
(-0.179334 0.000351536 0)
(-0.179874 5.8029e-05 0)
(-0.179839 -0.0001928 0)
(-0.179206 -0.000441115 0)
(-0.178014 -0.000718302 0)
(-0.17623 -0.00101941 0)
(-0.173851 -0.0013185 0)
(-0.170824 -0.00165993 0)
(-0.167122 -0.00198632 0)
(-0.162737 -0.00235597 0)
(-0.157509 -0.0027845 0)
(-0.151449 -0.00316698 0)
(-0.144582 -0.0036057 0)
(-0.136679 -0.004143 0)
(-0.127706 -0.00459882 0)
(-0.116879 -0.00521423 0)
(-0.106075 -0.00563699 0)
(-0.0945562 -0.00615903 0)
(-0.0816249 -0.00682069 0)
(-0.0682174 -0.00728844 0)
(-0.0536594 -0.00761386 0)
(-0.0380725 -0.00830916 0)
(-0.0216239 -0.00862358 0)
(-0.00361184 -0.00910332 0)
(0.0159552 -0.00937922 0)
(0.0352619 -0.00948096 0)
(0.0547878 -0.0096505 0)
(0.0745091 -0.00962174 0)
(0.0939131 -0.00942555 0)
(0.112852 -0.00916213 0)
(0.131118 -0.00874658 0)
(0.148476 -0.00820392 0)
(0.164573 -0.00753127 0)
(0.179134 -0.00671657 0)
(0.191818 -0.00580424 0)
(0.202409 -0.00478167 0)
(0.210695 -0.00361148 0)
(0.216549 -0.00245879 0)
(0.219978 -0.0011701 0)
(0.220868 0.000179616 0)
(0.219387 0.00132936 0)
(0.215442 0.0025288 0)
(0.209128 0.00352841 0)
(0.200729 0.00457093 0)
(0.190123 0.00559531 0)
(0.177598 0.00634555 0)
(0.163078 0.00705845 0)
(0.146676 0.0076335 0)
(0.131463 0.00803971 0)
(0.11666 0.0084654 0)
(0.0996936 0.00870492 0)
(0.0824263 0.00876325 0)
(0.0650928 0.00878812 0)
(0.0477761 0.0086918 0)
(0.0309218 0.00851143 0)
(0.0142952 0.00825528 0)
(-0.00244495 0.00791322 0)
(-0.0187447 0.00748821 0)
(-0.0336728 0.0070341 0)
(-0.0476173 0.00658462 0)
(-0.0606543 0.00612044 0)
(-0.072764 0.00564158 0)
(-0.0839473 0.00517153 0)
(-0.0941916 0.00471209 0)
(-0.103492 0.00426579 0)
(-0.111887 0.00383982 0)
(-0.119406 0.00343447 0)
(-0.126063 0.0030468 0)
(-0.131861 0.00266625 0)
(-0.136863 0.00229114 0)
(-0.141104 0.00192745 0)
(-0.144639 0.00159557 0)
(-0.147473 0.00124548 0)
(-0.149624 0.000921294 0)
(-0.151132 0.000580411 0)
(-0.152006 0.000240732 0)
(-0.152281 -6.83288e-05 0)
(-0.151878 -0.00036435 0)
(-0.150842 -0.000659538 0)
(-0.149197 -0.000970444 0)
(-0.1469 -0.00129805 0)
(-0.143965 -0.00160572 0)
(-0.140408 -0.00193005 0)
(-0.136152 -0.00228429 0)
(-0.131221 -0.00260985 0)
(-0.125577 -0.0029858 0)
(-0.119211 -0.00331254 0)
(-0.112196 -0.00366113 0)
(-0.104415 -0.00406723 0)
(-0.0954967 -0.00440344 0)
(-0.0864957 -0.00473264 0)
(-0.0767303 -0.00514312 0)
(-0.0660723 -0.00545885 0)
(-0.0549673 -0.00580135 0)
(-0.0430154 -0.00611399 0)
(-0.0307432 -0.00637712 0)
(-0.0177851 -0.0067089 0)
(-0.004011 -0.00690363 0)
(0.0102139 -0.0070276 0)
(0.0246454 -0.00720121 0)
(0.0392596 -0.00723054 0)
(0.0538131 -0.00717731 0)
(0.0682646 -0.00713339 0)
(0.0824791 -0.00694654 0)
(0.0962797 -0.00673696 0)
(0.109532 -0.00640136 0)
(0.122033 -0.00598497 0)
(0.133678 -0.00552462 0)
(0.144283 -0.00497505 0)
(0.153689 -0.00436077 0)
(0.161813 -0.00370556 0)
(0.168535 -0.00299095 0)
(0.173748 -0.00224152 0)
(0.177382 -0.00145771 0)
(0.179412 -0.000643868 0)
(0.179889 0.000156052 0)
(0.178864 0.000935449 0)
(0.176265 0.00167293 0)
(0.172206 0.00233695 0)
(0.166785 0.00299256 0)
(0.160125 0.00355283 0)
(0.152363 0.00408166 0)
(0.14362 0.00454832 0)
(0.134056 0.00488271 0)
(0.123836 0.00519235 0)
(0.113096 0.0054334 0)
(0.101996 0.00553892 0)
(0.090685 0.00563381 0)
(0.0792932 0.00566507 0)
(0.0679533 0.00557791 0)
(0.056775 0.00549051 0)
(0.0458716 0.00530422 0)
(0.0353443 0.00511734 0)
(0.0252842 0.00489368 0)
(0.0158028 0.00460277 0)
(0.00706867 0.00431621 0)
(-0.00132988 0.00398934 0)
(-0.00926744 0.0036378 0)
(-0.0162869 0.00330176 0)
(-0.0226 0.00294681 0)
(-0.0282063 0.00260394 0)
(-0.033108 0.00226116 0)
(-0.037316 0.00191745 0)
(-0.0408449 0.00158596 0)
(-0.0437106 0.00126247 0)
(-0.0459311 0.000948463 0)
(-0.0475293 0.000645808 0)
(-0.0485256 0.000353333 0)
(-0.0489299 7.33439e-05 0)
(-0.0487845 -0.000191155 0)
(-0.0481307 -0.000443597 0)
(-0.0469809 -0.000682738 0)
(-0.0450054 -0.000908439 0)
(-0.0600495 -0.0101928 0)
(-0.0472224 -0.0109232 0)
(-0.0310742 -0.011459 0)
(-0.0140647 -0.0119369 0)
(0.00356222 -0.0124992 0)
(0.0217469 -0.0127834 0)
(0.0404632 -0.0131782 0)
(0.0594437 -0.0132005 0)
(0.0784593 -0.0130625 0)
(0.0973125 -0.0130224 0)
(0.115764 -0.0125606 0)
(0.133533 -0.0119213 0)
(0.150386 -0.011317 0)
(0.166045 -0.0103281 0)
(0.180272 -0.00932032 0)
(0.192798 -0.00801267 0)
(0.203401 -0.00658399 0)
(0.211881 -0.00508078 0)
(0.218037 -0.00344874 0)
(0.221733 -0.00173118 0)
(0.222911 3.51827e-05 0)
(0.221672 0.00177308 0)
(0.217948 0.00349426 0)
(0.211806 0.00505397 0)
(0.203368 0.0066209 0)
(0.192793 0.0079399 0)
(0.180307 0.00924914 0)
(0.166084 0.0104412 0)
(0.150379 0.0112322 0)
(0.13349 0.0120513 0)
(0.115621 0.0127072 0)
(0.0970609 0.0129438 0)
(0.0781301 0.0132221 0)
(0.0591244 0.0131114 0)
(0.0402959 0.0130816 0)
(0.0218056 0.0129069 0)
(0.00339303 0.0124957 0)
(-0.0146351 0.012055 0)
(-0.0317471 0.0115498 0)
(-0.0479871 0.0108883 0)
(-0.063317 0.0102834 0)
(-0.0776924 0.00957459 0)
(-0.0910878 0.00892163 0)
(-0.103504 0.00824818 0)
(-0.114918 0.00754116 0)
(-0.125348 0.00688009 0)
(-0.134818 0.00622492 0)
(-0.143344 0.00557325 0)
(-0.150953 0.00495941 0)
(-0.15767 0.00436723 0)
(-0.16353 0.00379355 0)
(-0.168569 0.00324149 0)
(-0.172813 0.00269731 0)
(-0.176285 0.00219101 0)
(-0.179008 0.00167419 0)
(-0.181004 0.00115075 0)
(-0.182326 0.000620412 0)
(-0.182991 0.000123164 0)
(-0.182942 -0.000331366 0)
(-0.182156 -0.000788849 0)
(-0.180638 -0.00129469 0)
(-0.17839 -0.00179501 0)
(-0.175398 -0.00233661 0)
(-0.171564 -0.00293368 0)
(-0.166891 -0.00349413 0)
(-0.161384 -0.00410923 0)
(-0.154886 -0.00481322 0)
(-0.147428 -0.00543584 0)
(-0.138963 -0.00620244 0)
(-0.129417 -0.00681335 0)
(-0.118424 -0.00749659 0)
(-0.107053 -0.00829552 0)
(-0.094941 -0.0090105 0)
(-0.0817677 -0.00946148 0)
(-0.0679021 -0.0104658 0)