/*--------------------------------*- C++ -*----------------------------------*\
| =========                 |                                                 |
| \\      /  F ield         | OpenFOAM: The Open Source CFD Toolbox           |
|  \\    /   O peration     | Version:  3.0.1                                 |
|   \\  /    A nd           | Web:      www.OpenFOAM.org                      |
|    \\/     M anipulation  |                                                 |
\*---------------------------------------------------------------------------*/
FoamFile
{
    version     2.0;
    format      ascii;
    class       volScalarField;
    location    "40.6";
    object      p_rgh;
}
// * * * * * * * * * * * * * * * * * * * * * * * * * * * * * * * * * * * * * //

dimensions      [1 -1 -2 0 0 0 0];

internalField   nonuniform List<scalar> 
21420
(
399.546
390.805
378.46
362.67
343.634
321.618
296.926
269.89
240.852
210.22
178.389
145.742
112.689
79.6057
46.8445
14.7188
-16.4858
-46.4209
-74.2622
-101.476
-127.241
-151.421
-173.939
-194.766
-213.894
-231.34
-247.132
-261.309
-273.917
-285.009
-294.633
-302.84
-309.677
-315.187
-319.41
-322.368
-324.064
-324.518
-323.769
-321.786
-318.551
-314.045
-308.232
-301.072
-292.526
-282.543
-271.064
-258.053
-243.473
-227.268
-209.43
-189.953
-168.842
-146.135
-121.88
-96.1587
-69.1033
-40.8258
-11.4986
18.6683
49.4596
80.6119
111.849
142.898
173.455
203.2
231.837
259.048
284.534
308
329.165
347.777
363.612
376.456
386.135
392.532
395.531
395.025
390.795
382.896
371.611
357.074
339.44
318.895
295.706
270.198
242.725
213.653
183.364
152.22
120.561
88.7204
57.0123
25.7012
-4.94989
-34.7681
-63.4495
-90.8247
-116.785
-141.214
-164.017
-185.127
-204.502
-222.125
-238.003
-252.16
-264.641
-275.501
-284.807
-292.626
-299.027
-304.074
-307.831
-310.34
-311.627
-311.757
-310.737
-308.584
-305.306
-300.903
-295.367
-288.684
-280.839
-271.813
-261.581
-250.117
-237.399
-223.399
-208.087
-191.438
-173.425
-154.028
-133.235
-111.039
-87.4323
-62.4777
-36.2281
-8.75975
19.8136
49.3468
79.6517
110.505
141.642
172.762
203.527
233.572
262.516
289.961
315.506
338.763
359.354
376.937
391.206
401.891
408.786
411.651
410.549
405.345
396.093
382.876
365.881
345.335
321.527
294.811
265.583
234.275
201.345
167.263
132.499
97.5071
62.7152
28.51
-4.77315
-36.851
-67.4817
-96.5212
-123.831
-149.332
-172.982
-194.773
-214.716
-232.84
-249.187
-263.804
-276.746
-288.074
-297.849
-306.133
-312.984
-318.459
-322.62
-325.499
-327.111
-327.525
-326.744
-324.765
-321.588
-317.196
-311.563
-304.657
-296.428
-286.824
-275.781
-263.229
-249.097
-233.326
-215.856
-196.643
-175.654
-152.881
-128.337
-102.058
-74.0852
-44.6605
-13.8925
18.0115
50.8018
84.1845
117.818
151.329
184.304
216.306
246.876
275.546
301.846
325.313
345.517
362.057
374.586
382.834
386.528
385.686
380.191
370.161
355.708
337.107
314.69
288.854
260.055
228.785
195.56
160.905
125.33
89.3249
53.3457
17.8078
-16.9265
-50.5468
-82.7934
-113.477
-142.444
-169.589
-194.847
-218.188
-239.606
-259.12
-276.768
-292.599
-306.673
-319.056
-329.807
-338.984
-346.634
-352.796
-357.502
-360.774
-362.589
-362.939
-361.892
-359.452
-355.497
-349.972
-342.802
-333.914
-323.226
-310.638
-296.046
-279.376
-260.589
-239.631
-216.588
-191.69
-165.978
-140.679
-103.697
-68.1541
-29.6759
9.8286
49.9791
90.5757
131.21
171.387
210.668
248.509
284.354
317.743
348.158
375.142
398.339
417.383
432.031
442.054
447.489
448.662
445.375
437.638
425.818
410.225
391.174
368.982
344.023
316.74
287.49
256.679
224.749
192.042
158.951
125.795
92.9127
60.6349
29.1935
-1.17942
-29.9302
-57.4565
-83.9161
-109.129
-132.91
-155.167
-175.855
-194.94
-212.406
-228.242
-242.433
-254.967
-265.833
-275.016
-282.508
-288.297
-292.388
-294.757
-295.38
-294.247
-291.372
-286.803
-280.528
-272.584
-263.001
-251.786
-238.965
-224.568
-208.613
-191.134
-172.175
-151.801
-130.115
-107.419
-84.5265
399.694
390.946
378.592
362.79
343.74
321.709
297.001
269.948
240.892
210.242
178.395
145.731
112.664
79.5675
46.7953
14.6606
-16.5505
-46.4884
-74.3379
-101.553
-127.319
-151.499
-174.017
-194.842
-213.968
-231.411
-247.201
-261.375
-273.98
-285.069
-294.69
-302.895
-309.73
-315.239
-319.459
-322.418
-324.111
-324.568
-323.818
-321.835
-318.601
-314.097
-308.286
-301.128
-292.585
-282.604
-271.128
-258.12
-243.541
-227.339
-209.503
-190.027
-168.917
-146.209
-121.953
-96.2293
-69.1699
-40.8876
-11.554
18.6205
49.4208
80.5833
111.832
142.893
173.463
203.221
231.873
259.097
284.597
308.077
329.254
347.878
363.723
376.576
386.269
392.676
395.672
395.149
390.923
383.022
371.73
357.182
339.535
318.977
295.773
270.251
242.762
213.676
183.373
152.215
120.544
88.692
56.9736
25.6531
-5.0062
-34.8318
-63.5196
-90.8995
-116.864
-141.295
-164.1
-185.211
-204.585
-222.207
-238.083
-252.238
-264.715
-275.573
-284.875
-292.691
-299.089
-304.134
-307.89
-310.395
-311.682
-311.811
-310.79
-308.638
-305.36
-300.958
-295.422
-288.74
-280.897
-271.872
-261.641
-250.179
-237.463
-223.464
-208.154
-191.507
-173.496
-154.1
-133.308
-111.113
-87.5069
-62.5512
-36.2997
-8.82828
19.7496
49.2889
79.6017
110.465
141.613
172.746
203.526
233.587
262.549
290.011
315.574
338.848
359.456
377.054
391.336
402.031
408.933
411.811
410.696
405.493
396.236
383.01
366.003
345.441
321.616
294.881
265.634
234.305
201.355
167.255
132.473
97.4648
62.6591
28.4423
-4.8498
-36.9341
-67.5696
-96.6117
-123.923
-149.423
-173.072
-194.861
-214.801
-232.922
-249.266
-263.88
-276.82
-288.144
-297.917
-306.198
-313.046
-318.519
-322.679
-325.554
-327.167
-327.58
-326.799
-324.821
-321.644
-317.253
-311.622
-304.718
-296.492
-286.891
-275.851
-263.302
-249.173
-233.405
-215.939
-196.728
-175.741
-152.969
-128.424
-102.144
-74.1683
-44.7384
-13.9639
17.9485
50.7494
84.1446
117.793
151.32
184.313
216.334
246.925
275.616
301.937
325.425
345.647
362.203
374.746
383.004
386.711
385.857
380.361
370.322
355.857
337.24
314.803
288.946
260.124
228.83
195.584
160.907
125.313
89.2904
53.2961
17.7456
-16.9989
-50.6267
-82.879
-113.566
-142.535
-169.68
-194.938
-218.278
-239.693
-259.205
-276.849
-292.677
-306.749
-319.128
-329.876
-339.051
-346.699
-352.86
-357.565
-360.835
-362.649
-362.998
-361.955
-359.515
-355.562
-350.037
-342.87
-333.983
-323.299
-310.713
-296.123
-279.456
-260.669
-239.711
-216.667
-191.76
-166.019
-140.672
-103.856
-68.2274
-29.727
9.7871
49.9488
90.5584
131.208
171.403
210.702
248.563
284.429
317.838
348.274
375.276
398.488
417.546
432.205
442.242
447.696
448.832
445.531
437.79
425.962
410.354
391.286
369.076
344.099
316.797
287.53
256.701
224.755
192.032
158.929
125.76
92.8668
60.5788
29.1289
-1.24837
-29.9928
-57.5214
-83.9847
-109.2
-132.982
-155.239
-175.926
-195.011
-212.476
-228.311
-242.502
-255.036
-265.901
-275.084
-282.576
-288.365
-292.456
-294.824
-295.446
-294.315
-291.439
-286.869
-280.595
-272.651
-263.067
-251.852
-239.031
-224.634
-208.678
-191.2
-172.241
-151.867
-130.18
-107.482
-84.5858
399.991
391.229
378.856
363.03
343.954
321.892
297.151
270.064
240.972
210.287
178.406
145.71
112.614
79.491
46.6966
14.544
-16.6801
-46.6236
-74.4891
-101.708
-127.476
-151.656
-174.172
-194.994
-214.116
-231.554
-247.338
-261.507
-274.106
-285.189
-294.806
-303.006
-309.837
-315.342
-319.559
-322.515
-324.206
-324.667
-323.916
-321.933
-318.702
-314.201
-308.394
-301.24
-292.702
-282.726
-271.256
-258.253
-243.679
-227.481
-209.649
-190.175
-169.067
-146.358
-122.099
-96.3702
-69.3028
-41.0107
-11.6644
18.5255
49.3437
80.5268
111.798
142.884
173.479
203.265
231.944
259.197
284.725
308.231
329.434
348.08
363.947
376.819
386.531
392.951
395.964
395.407
391.183
383.279
371.971
357.401
339.731
319.146
295.914
270.363
242.844
213.731
183.4
152.217
120.521
88.6471
56.9084
25.5696
-5.10569
-34.9456
-63.646
-91.035
-117.007
-141.443
-164.252
-185.363
-204.736
-222.356
-238.227
-252.377
-264.848
-275.7
-284.996
-292.805
-299.198
-304.239
-307.99
-310.489
-311.776
-311.903
-310.882
-308.729
-305.452
-301.05
-295.516
-288.836
-280.996
-271.973
-261.746
-250.287
-237.574
-223.578
-208.272
-191.628
-173.621
-154.228
-133.438
-111.244
-87.64
-62.6822
-36.4268
-8.94939
19.6375
49.1891
79.5174
110.399
141.571
172.73
203.54
233.633
262.629
290.126
315.724
339.033
359.673
377.301
391.608
402.324
409.239
412.142
411.004
405.803
396.534
383.291
366.258
345.666
321.807
295.034
265.747
234.379
201.389
167.251
132.434
97.3935
62.5603
28.3206
-4.98935
-37.0864
-67.7315
-96.7786
-124.091
-149.591
-173.237
-195.022
-214.957
-233.073
-249.411
-264.019
-276.952
-288.271
-298.037
-306.313
-313.157
-318.626
-322.782
-325.65
-327.264
-327.676
-326.894
-324.917
-321.741
-317.353
-311.726
-304.826
-296.606
-287.01
-275.977
-263.434
-249.313
-233.552
-216.091
-196.885
-175.901
-153.131
-128.586
-102.303
-74.3211
-44.881
-14.0936
17.8357
50.6575
84.0774
117.754
151.314
184.343
216.403
247.035
275.768
302.13
325.659
345.918
362.507
375.077
383.353
387.088
386.207
380.711
370.655
356.164
337.515
315.039
289.139
260.271
228.932
195.641
160.922
125.289
89.2319
53.2076
17.6318
-17.1326
-50.7755
-83.0389
-113.733
-142.705
-169.852
-195.108
-218.445
-239.856
-259.362
-277
-292.822
-306.887
-319.26
-330.003
-339.174
-346.818
-352.976
-357.679
-360.946
-362.756
-363.107
-362.07
-359.631
-355.68
-350.159
-342.996
-334.114
-323.435
-310.855
-296.271
-279.608
-260.824
-239.867
-216.819
-191.896
-166.098
-140.652
-104.173
-68.3686
-29.8257
9.70706
49.8907
90.5263
131.206
171.435
210.772
248.673
284.581
318.032
348.506
375.547
398.79
417.874
432.554
442.618
448.108
449.17
445.846
438.096
426.251
410.613
391.511
369.264
344.25
316.911
287.608
256.745
224.767
192.014
158.884
125.691
92.7749
60.4664
28.9997
-1.38659
-30.1175
-57.6512
-84.122
-109.342
-133.126
-155.383
-176.069
-195.152
-212.616
-228.45
-242.64
-255.173
-266.037
-275.22
-282.712
-288.501
-292.592
-294.958
-295.581
-294.451
-291.573
-287.002
-280.728
-272.783
-263.199
-251.984
-239.163
-224.765
-208.81
-191.332
-172.373
-151.999
-130.31
-107.608
-84.7044
400.436
391.653
379.251
363.391
344.273
322.166
297.376
270.237
241.092
210.354
178.421
145.678
112.538
79.3761
46.5484
14.3688
-16.8749
-46.8266
-74.716
-101.941
-127.712
-151.892
-174.405
-195.222
-214.338
-231.768
-247.544
-261.704
-274.295
-285.369
-294.978
-303.171
-309.996
-315.495
-319.708
-322.661
-324.35
-324.814
-324.062
-322.081
-318.853
-314.357
-308.555
-301.408
-292.878
-282.91
-271.447
-258.453
-243.885
-227.695
-209.868
-190.398
-169.291
-146.581
-122.317
-96.5815
-69.5024
-41.1955
-11.8301
18.3829
49.228
80.4418
111.746
142.869
173.504
203.331
232.052
259.347
284.916
308.462
329.703
348.384
364.283
377.182
386.92
393.361
396.399
395.804
391.575
383.666
372.333
357.731
340.025
319.401
296.126
270.532
242.969
213.815
183.443
152.22
120.488
88.581
56.8119
25.4457
-5.25367
-35.1152
-63.8339
-91.2369
-117.219
-141.664
-164.477
-185.589
-204.961
-222.576
-238.442
-252.583
-265.046
-275.888
-285.174
-292.975
-299.358
-304.392
-308.138
-310.629
-311.915
-312.039
-311.016
-308.863
-305.586
-301.186
-295.654
-288.978
-281.141
-272.123
-261.899
-250.446
-237.737
-223.747
-208.446
-191.808
-173.806
-154.418
-133.631
-111.439
-87.8369
-62.8761
-36.6148
-9.1284
19.4721
49.0419
79.3936
110.304
141.511
172.709
203.563
233.704
262.751
290.302
315.953
339.314
360.003
377.675
392.021
402.766
409.702
412.635
411.475
406.273
396.985
383.715
366.644
346.006
322.095
295.267
265.92
234.491
201.442
167.247
132.376
97.2884
62.4137
28.1397
-5.19687
-37.3131
-67.9726
-97.0271
-124.343
-149.841
-173.484
-195.261
-215.19
-233.297
-249.626
-264.225
-277.149
-288.458
-298.216
-306.484
-313.32
-318.783
-322.934
-325.793
-327.407
-327.818
-327.034
-325.059
-321.886
-317.501
-311.88
-304.986
-296.774
-287.188
-276.164
-263.631
-249.521
-233.769
-216.317
-197.118
-176.14
-153.372
-128.826
-102.539
-74.548
-45.093
-14.2863
17.6684
50.5217
83.9787
117.699
151.308
184.391
216.508
247.202
275.998
302.423
326.013
346.328
362.966
375.576
383.879
387.648
386.741
381.242
371.157
356.629
337.929
315.395
289.43
260.495
229.086
195.728
160.946
125.255
89.1458
53.0762
17.4627
-17.3319
-50.9973
-83.2772
-113.982
-142.959
-170.107
-195.362
-218.694
-240.098
-259.596
-277.225
-293.037
-307.093
-319.457
-330.192
-339.356
-346.994
-353.148
-357.848
-361.111
-362.916
-363.269
-362.24
-359.804
-355.857
-350.341
-343.184
-334.31
-323.639
-311.068
-296.492
-279.835
-261.056
-240.1
-217.047
-192.1
-166.221
-140.613
-104.66
-68.5758
-29.9735
9.58665
49.8033
90.4777
131.203
171.483
210.877
248.838
284.808
318.321
348.857
375.951
399.243
418.365
433.077
443.18
448.701
449.689
446.325
438.559
426.684
411.001
391.848
369.547
344.477
317.083
287.726
256.811
224.784
191.987
158.816
125.587
92.637
60.2977
28.8053
-1.59477
-30.304
-57.8456
-84.328
-109.555
-133.341
-155.598
-176.283
-195.364
-212.825
-228.658
-242.846
-255.378
-266.242
-275.424
-282.915
-288.705
-292.794
-295.158
-295.785
-294.654
-291.774
-287.202
-280.927
-272.981
-263.397
-252.182
-239.361
-224.963
-209.008
-191.53
-172.571
-152.196
-130.505
-107.798
-84.8824
401.03
392.219
379.779
363.872
344.7
322.532
297.676
270.467
241.251
210.443
178.442
145.634
112.436
79.2225
46.3503
14.1347
-17.1354
-47.0973
-75.0186
-102.252
-128.027
-152.206
-174.716
-195.527
-214.634
-232.054
-247.819
-261.967
-274.546
-285.61
-295.208
-303.392
-310.208
-315.701
-319.907
-322.855
-324.543
-325.01
-324.257
-322.278
-319.054
-314.564
-308.77
-301.632
-293.112
-283.154
-271.703
-258.719
-244.161
-227.98
-210.16
-190.695
-169.59
-146.879
-122.609
-96.8634
-69.769
-41.4422
-12.0513
18.1924
49.0735
80.3281
111.678
142.85
173.537
203.418
232.195
259.546
285.171
308.77
330.062
348.79
364.731
377.667
387.437
393.904
396.97
396.345
392.103
384.181
372.816
358.172
340.418
319.74
296.41
270.757
243.136
213.927
183.5
152.224
120.443
88.4928
56.683
25.2801
-5.45134
-35.3419
-64.0845
-91.5061
-117.503
-141.958
-164.777
-185.891
-205.261
-222.871
-238.727
-252.859
-265.309
-276.138
-285.412
-293.2
-299.572
-304.596
-308.333
-310.817
-312.099
-312.219
-311.194
-309.041
-305.765
-301.367
-295.838
-289.166
-281.334
-272.321
-262.104
-250.656
-237.955
-223.971
-208.678
-192.047
-174.052
-154.67
-133.888
-111.699
-88.0989
-63.1339
-36.8652
-9.36663
19.2519
48.846
79.2289
110.178
141.43
172.681
203.595
233.8
262.915
290.537
316.259
339.689
360.444
378.176
392.571
403.358
410.32
413.28
412.114
406.902
397.589
384.282
367.161
346.461
322.481
295.578
266.152
234.642
201.513
167.241
132.3
97.1482
62.2182
27.8984
-5.4737
-37.6156
-68.294
-97.3585
-124.677
-150.175
-173.811
-195.581
-215.499
-233.595
-249.912
-264.499
-277.411
-288.708
-298.454
-306.711
-313.537
-318.992
-323.134
-325.986
-327.599
-328.007
-327.222
-325.248
-322.078
-317.699
-312.084
-305.199
-296.998
-287.424
-276.413
-263.894
-249.797
-234.058
-216.618
-197.429
-176.458
-153.693
-129.147
-102.855
-74.8497
-45.3755
-14.543
17.4454
50.3407
83.8473
117.625
151.299
184.454
216.65
247.424
276.305
302.814
326.486
346.876
363.579
376.242
384.581
388.379
387.467
381.953
371.829
357.249
338.483
315.87
289.819
260.793
229.293
195.845
160.979
125.21
89.0306
52.9007
17.2371
-17.5977
-51.2935
-83.5948
-114.313
-143.299
-170.448
-195.7
-219.025
-240.421
-259.908
-277.525
-293.324
-307.368
-319.719
-330.443
-339.599
-347.229
-353.378
-358.073
-361.331
-363.131
-363.484
-362.465
-360.033
-356.092
-350.583
-343.435
-334.571
-323.912
-311.351
-296.787
-280.139
-261.366
-240.411
-217.352
-192.374
-166.391
-140.541
-105.329
-68.8427
-30.1701
9.42562
49.6862
90.4126
131.199
171.547
211.017
249.059
285.112
318.709
349.324
376.491
399.847
419.022
433.774
443.917
449.452
450.395
446.982
439.18
427.263
411.52
392.298
369.924
344.78
317.311
287.882
256.899
224.807
191.95
158.725
125.448
92.453
60.0724
28.5455
-1.87406
-30.5513
-58.1046
-84.603
-109.839
-133.629
-155.886
-176.568
-195.647
-213.105
-228.935
-243.122
-255.652
-266.515
-275.696
-283.187
-288.976
-293.064
-295.426
-296.057
-294.924
-292.042
-287.468
-281.192
-273.246
-263.661
-252.446
-239.624
-225.226
-209.272
-191.795
-172.836
-152.46
-130.766
-108.051
-85.1199
401.773
392.927
380.439
364.474
345.234
322.99
298.051
270.755
241.45
210.554
178.468
145.58
112.308
79.0297
46.102
13.8412
-17.4622
-47.4359
-75.3971
-102.64
-128.42
-152.6
-175.105
-195.908
-215.004
-232.411
-248.162
-262.296
-274.861
-285.911
-295.496
-303.668
-310.474
-315.957
-320.155
-323.097
-324.785
-325.254
-324.5
-322.524
-319.305
-314.824
-309.039
-301.912
-293.405
-283.46
-272.022
-259.052
-244.506
-228.336
-210.525
-191.066
-169.964
-147.251
-122.975
-97.2161
-70.1028
-41.7511
-12.3283
17.9538
48.8798
80.1855
111.592
142.825
173.578
203.527
232.374
259.796
285.49
309.156
330.511
349.297
365.291
378.272
388.081
394.581
397.672
397.033
392.767
384.826
373.421
358.724
340.909
320.165
296.764
271.039
243.345
214.065
183.57
152.229
120.387
88.382
56.5211
25.0724
-5.69919
-35.6261
-64.3981
-91.8433
-117.858
-142.326
-165.152
-186.268
-205.636
-223.239
-239.085
-253.203
-265.639
-276.451
-285.708
-293.481
-299.839
-304.851
-308.576
-311.053
-312.329
-312.443
-311.417
-309.263
-305.989
-301.593
-296.068
-289.402
-281.576
-272.569
-262.359
-250.92
-238.226
-224.252
-208.968
-192.346
-174.36
-154.986
-134.21
-112.024
-88.4262
-63.4564
-37.1785
-9.66474
18.9763
48.6006
79.0227
110.02
141.33
172.646
203.633
233.92
263.12
290.831
316.642
340.158
360.995
378.801
393.26
404.098
411.095
414.078
412.922
407.69
398.345
384.991
367.806
347.03
322.964
295.966
266.441
234.83
201.602
167.234
132.204
96.972
61.973
27.5961
-5.82068
-37.9945
-68.6964
-97.7733
-125.097
-150.592
-174.222
-195.98
-215.886
-233.968
-250.271
-264.842
-277.738
-289.021
-298.752
-306.995
-313.809
-319.253
-323.384
-326.228
-327.837
-328.242
-327.456
-325.484
-322.319
-317.945
-312.34
-305.466
-297.278
-287.719
-276.724
-264.222
-250.143
-234.42
-216.994
-197.818
-176.855
-154.096
-129.549
-103.251
-75.2262
-45.7293
-14.8647
17.1662
50.1137
83.6824
117.533
151.287
184.533
216.825
247.703
276.689
303.303
327.077
347.561
364.346
377.075
385.46
389.284
388.384
382.843
372.672
358.026
339.176
316.465
290.306
261.165
229.55
195.99
161.018
125.152
88.8858
52.6806
16.9543
-17.9308
-51.6644
-83.9926
-114.729
-143.723
-170.874
-196.123
-219.44
-240.824
-260.298
-277.9
-293.683
-307.711
-320.047
-330.758
-339.901
-347.522
-353.665
-358.354
-361.606
-363.401
-363.751
-362.745
-360.32
-356.386
-350.885
-343.749
-334.897
-324.252
-311.706
-297.156
-280.519
-261.753
-240.8
-217.733
-192.719
-166.618
-140.447
-106.173
-69.1605
-30.4151
9.22357
49.539
90.3302
131.192
171.627
211.192
249.335
285.492
319.193
349.91
377.167
400.604
419.843
434.644
444.828
450.373
451.28
447.815
439.963
427.987
412.168
392.861
370.395
345.157
317.597
288.077
257.008
224.835
191.904
158.61
125.273
92.2227
59.7904
28.2191
-2.2261
-30.8582
-58.428
-84.9474
-110.196
-133.99
-156.246
-176.925
-196
-213.455
-229.282
-243.466
-255.994
-266.856
-276.036
-283.526
-289.315
-293.4
-295.762
-296.397
-295.261
-292.377
-287.8
-281.524
-273.576
-263.991
-252.776
-239.954
-225.555
-209.601
-192.125
-173.167
-152.789
-131.091
-108.367
-85.4169
402.665
393.777
381.232
365.196
345.875
323.539
298.501
271.101
241.688
210.687
178.498
145.513
112.154
78.7974
45.8029
13.4879
-17.8563
-47.8426
-75.8516
-103.107
-128.893
-153.072
-175.572
-196.366
-215.449
-232.84
-248.574
-262.691
-275.238
-286.271
-295.841
-303.999
-310.792
-316.265
-320.454
-323.388
-325.075
-325.546
-324.792
-322.819
-319.607
-315.135
-309.362
-302.249
-293.756
-283.827
-272.406
-259.452
-244.92
-228.764
-210.964
-191.513
-170.413
-147.698
-123.414
-97.6398
-70.5043
-42.1225
-12.6615
17.6668
48.6467
80.0136
111.488
142.795
173.627
203.658
232.589
260.095
285.872
309.62
331.05
349.907
365.964
378.999
388.854
395.392
398.505
397.864
393.57
385.602
374.147
359.386
341.498
320.674
297.189
271.376
243.595
214.231
183.653
152.234
120.32
88.2482
56.3257
24.8221
-5.99758
-35.9684
-64.7752
-92.2488
-118.286
-142.768
-165.603
-186.722
-206.087
-223.681
-239.514
-253.616
-266.034
-276.827
-286.065
-293.819
-300.16
-305.156
-308.868
-311.337
-312.605
-312.713
-311.684
-309.53
-306.257
-301.864
-296.344
-289.684
-281.866
-272.867
-262.665
-251.236
-238.553
-224.589
-209.316
-192.705
-174.729
-155.364
-134.596
-112.415
-88.8194
-63.8438
-37.555
-10.0232
18.6447
48.3052
78.7742
109.829
141.207
172.603
203.679
234.063
263.366
291.183
317.101
340.721
361.657
379.553
394.088
404.987
412.026
415.034
413.893
408.638
399.254
385.842
368.582
347.714
323.543
296.432
266.788
235.056
201.707
167.224
132.088
96.7593
61.6773
27.2318
-6.2385
-38.4509
-69.1799
-98.272
-125.6
-151.093
-174.714
-196.46
-216.351
-234.416
-250.701
-265.254
-278.131
-289.396
-299.109
-307.336
-314.135
-319.566
-323.684
-326.52
-328.123
-328.524
-327.737
-325.768
-322.608
-318.241
-312.646
-305.785
-297.613
-288.073
-277.098
-264.616
-250.558
-234.854
-217.447
-198.285
-177.333
-154.579
-130.033
-103.729
-75.6777
-46.1547
-15.2518
16.8301
49.8403
83.4835
117.42
151.273
184.627
217.036
248.036
277.149
303.89
327.787
348.384
365.268
378.078
386.518
390.37
389.485
383.912
373.685
358.96
340.009
317.179
290.889
261.612
229.858
196.164
161.064
125.081
88.7107
52.4151
16.6135
-18.3318
-52.1105
-84.4711
-115.228
-144.233
-171.387
-196.631
-219.939
-241.309
-260.766
-278.349
-294.114
-308.122
-320.441
-331.135
-340.264
-347.874
-354.009
-358.692
-361.937
-363.727
-364.07
-363.081
-360.665
-356.738
-351.248
-344.126
-335.289
-324.661
-312.132
-297.599
-280.976
-262.218
-241.268
-218.191
-193.139
-166.909
-140.411
-107.11
-69.5182
-30.7088
8.97987
49.3611
90.2301
131.183
171.721
211.4
249.665
285.948
319.774
350.613
377.979
401.513
420.83
435.689
445.917
451.468
452.341
448.821
440.908
428.857
412.946
393.536
370.961
345.61
317.939
288.311
257.138
224.868
191.847
158.472
125.062
91.9461
59.4517
27.8252
-2.65333
-31.2228
-58.8155
-85.3614
-110.623
-134.422
-156.678
-177.354
-196.424
-213.875
-229.698
-243.879
-256.405
-267.265
-276.444
-283.933
-289.721
-293.804
-296.166
-296.804
-295.665
-292.779
-288.2
-281.922
-273.973
-264.387
-253.173
-240.349
-225.95
-209.997
-192.522
-173.564
-153.185
-131.482
-108.747
-85.7735
403.707
394.769
382.158
366.04
346.623
324.18
299.026
271.503
241.966
210.841
178.532
145.434
111.972
78.5249
45.4525
13.074
-18.3188
-48.3177
-76.3822
-103.652
-129.445
-153.624
-176.118
-196.9
-215.968
-233.341
-249.055
-263.151
-275.679
-286.692
-296.244
-304.385
-311.164
-316.624
-320.803
-323.728
-325.413
-325.884
-325.131
-323.163
-319.958
-315.498
-309.739
-302.641
-294.166
-284.256
-272.854
-259.918
-245.404
-229.264
-211.476
-192.034
-170.938
-148.221
-123.927
-98.1351
-70.9734
-42.5566
-13.0511
17.331
48.3737
79.8121
111.366
142.759
173.683
203.81
232.839
260.445
286.319
310.161
331.679
350.619
366.748
379.848
389.755
396.337
399.475
398.834
394.51
386.507
374.996
360.16
342.186
321.269
297.685
271.769
243.886
214.423
183.75
152.239
120.24
88.091
56.0963
24.5286
-6.34697
-36.3691
-65.2163
-92.7229
-118.785
-143.286
-166.131
-187.253
-206.613
-224.198
-240.016
-254.099
-266.495
-277.266
-286.481
-294.213
-300.534
-305.513
-309.209
-311.666
-312.926
-313.028
-311.996
-309.841
-306.57
-302.181
-296.667
-290.014
-282.204
-273.214
-263.023
-251.605
-238.933
-224.982
-209.722
-193.124
-175.16
-155.807
-135.047
-112.871
-89.2789
-64.2966
-37.9951
-10.4425
18.2564
47.9593
78.4828
109.604
141.063
172.551
203.731
234.229
263.651
291.593
317.636
341.379
362.43
380.43
395.055
406.026
413.116
416.152
415.023
409.745
400.316
386.837
369.488
348.513
324.22
296.975
267.192
235.318
201.829
167.212
131.95
96.5094
61.3304
26.8048
-6.72792
-38.9851
-69.7454
-98.8549
-126.189
-151.678
-175.29
-197.021
-216.894
-234.939
-251.203
-265.735
-278.59
-289.833
-299.526
-307.734
-314.516
-319.931
-324.034
-326.86
-328.456
-328.853
-328.066
-326.099
-322.944
-318.587
-313.003
-306.158
-298.005
-288.486
-277.534
-265.077
-251.042
-235.362
-217.975
-198.83
-177.892
-155.144
-130.598
-104.289
-76.2043
-46.6525
-15.7049
16.4363
49.5196
83.2499
117.288
151.254
184.734
217.28
248.424
277.685
304.575
328.615
349.345
366.345
379.249
387.755
391.642
390.768
385.162
374.869
360.051
340.981
318.012
291.57
262.133
230.217
196.365
161.117
124.997
88.5043
52.1033
16.214
-18.8013
-52.6327
-85.0309
-115.812
-144.829
-171.985
-197.224
-220.521
-241.875
-261.313
-278.875
-294.616
-308.602
-320.899
-331.575
-340.687
-348.284
-354.41
-359.085
-362.323
-364.109
-364.439
-363.473
-361.066
-357.149
-351.672
-344.565
-335.746
-325.137
-312.628
-298.116
-281.508
-262.762
-241.813
-218.725
-193.634
-167.275
-140.477
-108.095
-69.9056
-31.0518
8.69392
49.1519
90.1116
131.171
171.829
211.641
250.049
286.479
320.453
351.434
378.93
402.575
421.982
436.909
447.182
452.74
453.582
450.001
442.014
429.874
413.855
394.324
371.62
346.138
318.337
288.582
257.288
224.906
191.78
158.31
124.816
91.623
59.0563
27.3627
-3.15915
-31.6425
-59.267
-85.8456
-111.124
-134.928
-157.182
-177.854
-196.919
-214.364
-230.183
-244.361
-256.884
-267.742
-276.92
-284.408
-290.196
-294.276
-296.639
-297.278
-296.136
-293.247
-288.665
-282.386
-274.436
-264.85
-253.635
-240.811
-226.412
-210.458
-192.985
-174.028
-153.648
-131.939
-109.191
-86.1899
404.9
395.905
383.217
367.005
347.478
324.913
299.626
271.963
242.283
211.015
178.569
145.343
111.763
78.2116
45.0501
12.599
-18.8478
-48.8638
-76.9894
-104.276
-130.077
-154.256
-176.742
-197.511
-216.561
-233.913
-249.605
-263.678
-276.182
-287.173
-296.704
-304.826
-311.588
-317.034
-321.201
-324.117
-325.8
-326.27
-325.519
-323.556
-320.36
-315.912
-310.169
-303.09
-294.634
-284.745
-273.365
-260.452
-245.958
-229.835
-212.062
-192.63
-171.538
-148.819
-124.515
-98.7026
-71.5107
-43.054
-13.4977
16.9458
48.0604
79.5806
111.225
142.717
173.747
203.983
233.125
260.844
286.828
310.779
332.399
351.432
367.645
380.818
390.786
397.418
400.584
399.941
395.587
387.543
375.966
361.044
342.972
321.949
298.252
272.218
244.219
214.641
183.858
152.243
120.147
87.9099
55.8323
24.1915
-6.74794
-36.8285
-65.7218
-93.2661
-119.358
-143.878
-166.735
-187.86
-207.216
-224.79
-240.59
-254.652
-267.023
-277.767
-286.956
-294.663
-300.961
-305.92
-309.599
-312.044
-313.293
-313.388
-312.352
-310.197
-306.928
-302.543
-297.035
-290.39
-282.59
-273.612
-263.432
-252.026
-239.369
-225.431
-210.186
-193.603
-175.654
-156.313
-135.563
-113.394
-89.8048
-64.815
-38.4994
-10.923
17.8111
47.5623
78.1479
109.346
140.897
172.49
203.788
234.417
263.977
292.061
318.248
342.13
363.314
381.433
396.162
407.216
414.363
417.434
416.316
411.012
401.532
387.976
370.525
349.427
324.993
297.597
267.653
235.617
201.966
167.195
131.791
96.2216
60.9316
26.3143
-7.28971
-39.5979
-70.3936
-99.5229
-126.863
-152.348
-175.948
-197.662
-217.515
-235.537
-251.777
-266.284
-279.115
-290.334
-300.003
-308.188
-314.951
-320.348
-324.434
-327.249
-328.837
-329.229
-328.44
-326.477
-323.329
-318.982
-313.412
-306.584
-298.452
-288.958
-278.032
-265.603
-251.596
-235.942
-218.579
-199.454
-178.531
-155.791
-131.245
-104.931
-76.8071
-47.2234
-16.2246
15.9841
49.151
82.981
117.134
151.231
184.856
217.557
248.866
278.297
305.357
329.562
350.444
367.578
380.59
389.171
393.1
392.236
386.592
376.225
361.3
342.094
318.966
292.349
262.727
230.627
196.594
161.174
124.898
88.2659
51.7444
15.7549
-19.3405
-53.2314
-85.6728
-116.481
-145.512
-172.671
-197.904
-221.187
-242.522
-261.938
-279.475
-295.19
-309.151
-321.424
-332.077
-341.171
-348.754
-354.868
-359.534
-362.765
-364.546
-364.857
-363.921
-361.525
-357.618
-352.156
-345.067
-336.268
-325.681
-313.196
-298.707
-282.117
-263.383
-242.437
-219.338
-194.208
-167.718
-140.672
-109.101
-70.3161
-31.4458
8.36472
48.9106
89.9739
131.155
171.95
211.915
250.486
287.085
321.229
352.372
380.017
403.791
423.302
438.303
448.625
454.191
455.001
451.355
443.282
431.038
414.894
395.224
372.373
346.741
318.791
288.891
257.459
224.947
191.701
158.123
124.532
91.2531
58.6043
26.8306
-3.74847
-32.1132
-59.7823
-86.4005
-111.697
-135.506
-157.759
-178.426
-197.485
-214.924
-230.738
-244.911
-257.432
-268.288
-277.464
-284.951
-290.737
-294.816
-297.178
-297.82
-296.674
-293.783
-289.198
-282.916
-274.966
-265.379
-254.163
-241.338
-226.939
-210.986
-193.514
-174.558
-154.177
-132.463
-109.7
-86.6662
406.243
397.184
384.411
368.092
348.442
325.738
300.301
272.48
242.638
211.211
178.61
145.238
111.526
77.8568
44.5949
12.0627
-19.4435
-49.4831
-77.6736
-104.979
-130.789
-154.967
-177.446
-198.199
-217.229
-234.558
-250.223
-264.27
-276.748
-287.714
-297.221
-305.322
-312.065
-317.494
-321.649
-324.555
-326.234
-326.702
-325.954
-323.998
-320.812
-316.378
-310.653
-303.594
-295.16
-285.296
-273.941
-261.053
-246.582
-230.479
-212.723
-193.301
-172.215
-149.493
-125.177
-99.3427
-72.1165
-43.6153
-14.0019
16.5107
47.7063
79.3188
111.066
142.669
173.817
204.176
233.445
261.292
287.402
311.475
333.209
352.348
368.655
381.91
391.946
398.634
401.832
401.188
396.802
388.711
377.06
362.04
343.858
322.714
298.889
272.723
244.593
214.885
183.979
152.247
120.042
87.7043
55.533
23.8102
-7.20119
-37.3474
-66.2923
-93.879
-120.003
-144.546
-167.416
-188.545
-207.896
-225.456
-241.237
-255.274
-267.617
-278.332
-287.491
-295.169
-301.442
-306.378
-310.037
-312.469
-313.706
-313.793
-312.753
-310.597
-307.33
-302.95
-297.45
-290.814
-283.025
-274.059
-263.892
-252.501
-239.858
-225.937
-210.709
-194.143
-176.209
-156.883
-136.145
-113.984
-90.3975
-65.3992
-39.0682
-11.4655
17.3082
47.1135
77.7688
109.054
140.707
172.42
203.851
234.626
264.342
292.587
318.936
342.976
364.309
382.563
397.409
408.556
415.77
418.879
417.772
412.44
402.903
389.259
371.693
350.456
325.864
298.296
268.172
235.951
202.12
167.175
131.609
95.8948
60.4798
25.7593
-7.9247
-40.2901
-71.1253
-100.277
-127.623
-153.104
-176.689
-198.384
-218.214
-236.211
-252.424
-266.903
-279.706
-290.897
-300.539
-308.7
-315.44
-320.817
-324.885
-327.686
-329.265
-329.651
-328.862
-326.902
-323.761
-319.426
-313.871
-307.063
-298.955
-289.489
-278.593
-266.196
-252.22
-236.595
-219.259
-200.158
-179.251
-156.521
-131.974
-105.656
-77.4868
-47.8685
-16.8116
15.4727
48.7337
82.6757
116.959
151.203
184.99
217.867
249.362
278.985
306.237