/*--------------------------------*- C++ -*----------------------------------*\
| =========                 |                                                 |
| \\      /  F ield         | OpenFOAM: The Open Source CFD Toolbox           |
|  \\    /   O peration     | Version:  3.0.1                                 |
|   \\  /    A nd           | Web:      www.OpenFOAM.org                      |
|    \\/     M anipulation  |                                                 |
\*---------------------------------------------------------------------------*/
FoamFile
{
    version     2.0;
    format      ascii;
    class       surfaceScalarField;
    location    "23";
    object      phi;
}
// * * * * * * * * * * * * * * * * * * * * * * * * * * * * * * * * * * * * * //

dimensions      [0 3 -1 0 0 0 0];

internalField   nonuniform List<scalar> 
42423
(
8.20507e-05
-1.80914e-05
0.000100109
-1.80587e-05
0.000117708
-1.75991e-05
0.000134521
-1.68126e-05
0.000150518
-1.5997e-05
0.000165294
-1.4776e-05
0.000178766
-1.34727e-05
0.000190627
-1.18606e-05
0.000200579
-9.95257e-06
0.000208516
-7.93669e-06
0.000214268
-5.7523e-06
0.000217669
-3.40056e-06
0.000218698
-1.02884e-06
0.000217228
1.46933e-06
0.000213325
3.90338e-06
0.000207024
6.30062e-06
0.000198389
8.6353e-06
0.000187823
1.05654e-05
0.000175443
1.23808e-05
0.000161314
1.41287e-05
0.000145888
1.54257e-05
0.000129292
1.65961e-05
0.000111808
1.74834e-05
9.37505e-05
1.80579e-05
7.54003e-05
1.83501e-05
5.69309e-05
1.84694e-05
3.85175e-05
1.84134e-05
2.03246e-05
1.81929e-05
2.65905e-06
1.76655e-05
-1.45263e-05
1.71854e-05
-3.09905e-05
1.64641e-05
-4.66618e-05
1.56713e-05
-6.14802e-05
1.48184e-05
-7.53786e-05
1.38984e-05
-8.83538e-05
1.29752e-05
-0.000100388
1.20339e-05
-0.000111477
1.10893e-05
-0.00012167
1.01934e-05
-0.000130953
9.28309e-06
-0.000139351
8.39791e-06
-0.000146904
7.55304e-06
-0.000153621
6.71647e-06
-0.000159548
5.92684e-06
-0.000164705
5.15683e-06
-0.000169106
4.40136e-06
-0.00017278
3.67376e-06
-0.000175749
2.96979e-06
-0.000177991
2.24172e-06
-0.000179543
1.55169e-06
-0.000180389
8.4638e-07
-0.000180467
7.78891e-08
-0.000179797
-6.69751e-07
-0.000178261
-1.53666e-06
-0.000175972
-2.28842e-06
-0.000172931
-3.04095e-06
-0.000168971
-3.96049e-06
-0.000164166
-4.80497e-06
-0.000158498
-5.66847e-06
-0.000151841
-6.65604e-06
-0.000144359
-7.48216e-06
-0.000135848
-8.51095e-06
-0.000126364
-9.48457e-06
-0.00011605
-1.03143e-05
-0.00010469
-1.13595e-05
-9.24292e-05
-1.2261e-05
-7.93189e-05
-1.31103e-05
-6.54201e-05
-1.38988e-05
-5.06805e-05
-1.47397e-05
-3.51609e-05
-1.55196e-05
-1.90473e-05
-1.61136e-05
-2.37252e-06
-1.66748e-05
1.4704e-05
-1.70766e-05
3.21444e-05
-1.74404e-05
4.96564e-05
-1.75121e-05
6.71508e-05
-1.74944e-05
8.44255e-05
-1.72747e-05
0.000101496
-1.70706e-05
0.000118015
-1.65187e-05
0.000133728
-1.57134e-05
0.000148534
-1.48059e-05
0.000162205
-1.36716e-05
0.000174469
-1.22632e-05
0.000185137
-1.06688e-05
0.000194024
-8.8871e-06
0.000200931
-6.9064e-06
0.000205712
-4.78119e-06
0.000208188
-2.47568e-06
0.000208437
-2.49667e-07
0.000206354
2.08294e-06
0.000201893
4.46103e-06
0.000195179
6.71411e-06
0.000186274
8.90501e-06
0.000175416
1.08579e-05
0.00016274
1.26758e-05
0.000148448
1.42921e-05
0.000132757
1.5691e-05
0.00011582
1.69372e-05
9.80052e-05
1.78147e-05
7.94584e-05
1.85468e-05
6.0478e-05
1.89804e-05
4.13963e-05
1.90817e-05
2.23078e-05
1.90885e-05
3.52255e-06
1.87853e-05
-1.46331e-05
1.81557e-05
-3.229e-05
1.76569e-05
-4.90451e-05
1.67551e-05
-6.48439e-05
1.57987e-05
-7.96297e-05
1.47858e-05
-9.32831e-05
1.36534e-05
-0.000105845
1.2562e-05
-0.00011729
1.14446e-05
-0.000127593
1.03035e-05
-0.00013687
9.27708e-06
-0.000145172
8.30133e-06
-0.000152471
7.29969e-06
-0.000158882
6.41058e-06
-0.000164418
5.5359e-06
-0.000169153
4.7349e-06
-0.000173106
3.9532e-06
-0.000176261
3.15492e-06
-0.000178788
2.52747e-06
-0.000180547
1.75929e-06
-0.000181648
1.10049e-06
-0.000182081
4.33064e-07
-0.000181949
-1.31588e-07
-0.000181099
-8.50737e-07
-0.000179662
-1.43653e-06
-0.000177623
-2.03912e-06
-0.000174949
-2.67451e-06
-0.000171669
-3.27994e-06
-0.000167754
-3.91429e-06
-0.000163152
-4.6022e-06
-0.000157874
-5.27822e-06
-0.000151944
-5.93037e-06
-0.000145225
-6.71818e-06
-0.000137691
-7.53475e-06
-0.000129292
-8.39908e-06
-0.00012
-9.29186e-06
-0.000109791
-1.02085e-05
-9.86636e-05
-1.11277e-05
-8.64953e-05
-1.21683e-05
-7.33395e-05
-1.31559e-05
-5.9287e-05
-1.40525e-05
-4.42723e-05
-1.50148e-05
-2.84476e-05
-1.58247e-05
-1.18615e-05
-1.65861e-05
5.41684e-06
-1.72784e-05
2.32518e-05
-1.7835e-05
4.14462e-05
-1.81945e-05
5.98367e-05
-1.83905e-05
7.81569e-05
-1.83202e-05
9.62178e-05
-1.80609e-05
0.000113706
-1.74879e-05
0.0001304
-1.6694e-05
0.000146042
-1.56423e-05
0.000160383
-1.43407e-05
0.000173161
-1.27783e-05
0.00018412
-1.09592e-05
0.000193037
-8.91726e-06
0.000199789
-6.7521e-06
0.000204195
-4.40543e-06
0.00020621
-2.01548e-06
0.000205835
3.75153e-07
0.00020303
2.80445e-06
0.000197865
5.16504e-06
0.000190496
7.36917e-06
0.000181079
9.41754e-06
0.000169774
1.13048e-05
0.000156848
1.2926e-05
0.000142467
1.43803e-05
0.000126941
1.55265e-05
0.000110429
1.65114e-05
9.31623e-05
1.72671e-05
7.55309e-05
1.76314e-05
5.76466e-05
1.78844e-05
3.9768e-05
1.78785e-05
2.20335e-05
1.77345e-05
4.49178e-06
1.75417e-05
-1.24388e-05
1.69306e-05
-2.88412e-05
1.64024e-05
-4.45562e-05
1.5715e-05
-5.94511e-05
1.4895e-05
-7.3509e-05
1.40579e-05
-8.66568e-05
1.31478e-05
-9.8895e-05
1.22381e-05
-0.000110202
1.1307e-05
-0.000120545
1.03435e-05
-0.000129975
9.42941e-06
-0.000138453
8.4785e-06
-0.000146041
7.58767e-06
-0.000152779
6.73782e-06
-0.000158622
5.84301e-06
-0.000163704
5.08246e-06
-0.000168022
4.31798e-06
-0.000171614
3.59151e-06
-0.000174518
2.90393e-06
-0.0001767
2.18229e-06
-0.000178181
1.48101e-06
-0.000178976
7.94877e-07
-0.000179027
5.06816e-08
-0.000178448
-5.78992e-07
-0.000177085
-1.36239e-06
-0.000174995
-2.09054e-06
-0.00017211
-2.88455e-06
-0.000168522
-3.58857e-06
-0.000164144
-4.37807e-06
-0.000158923
-5.22006e-06
-0.000152918
-6.00567e-06
-0.000146081
-6.83704e-06
-0.000138398
-7.68281e-06
-0.000129852
-8.5461e-06
-0.000120417
-9.43444e-06
-0.000110178
-1.02391e-05
-9.90256e-05
-1.11527e-05
-8.7019e-05
-1.20066e-05
-7.42449e-05
-1.27741e-05
-6.05455e-05
-1.36995e-05
-4.6078e-05
-1.44675e-05
-3.08977e-05
-1.51803e-05
-1.49887e-05
-1.5909e-05
1.37504e-06
-1.63637e-05
1.8261e-05
-1.6886e-05
3.54549e-05
-1.71939e-05
5.28137e-05
-1.73588e-05
7.03206e-05
-1.7507e-05
8.77057e-05
-1.73851e-05
0.000104769
-1.70632e-05
0.000121288
-1.65188e-05
0.000136991
-1.57037e-05
0.000151682
-1.46903e-05
0.000165073
-1.33911e-05
0.000176975
-1.19023e-05
0.000187188
-1.02135e-05
0.000195513
-8.32474e-06
0.000201787
-6.27396e-06
0.000205876
-4.08922e-06
0.000207704
-1.8276e-06
0.000207288
4.15951e-07
0.000204528
2.75962e-06
0.000199452
5.07658e-06
0.000192178
7.27351e-06
0.000182842
9.33637e-06
0.000171601
1.12407e-05
0.000158684
1.29167e-05
0.000144323
1.43617e-05
0.000128749
1.55734e-05
0.000112239
1.65104e-05
9.49255e-05
1.73134e-05
7.72227e-05
1.77028e-05
5.93027e-05
1.792e-05
4.12788e-05
1.80238e-05
2.34708e-05
1.7808e-05
6.16574e-06
1.73051e-05
-1.05472e-05
1.67129e-05
-2.66409e-05
1.60937e-05
-4.19391e-05
1.52982e-05
-5.63435e-05
1.44043e-05
-6.98826e-05
1.35392e-05
-8.24389e-05
1.25563e-05
-9.40772e-05
1.16383e-05
-0.000104776
1.06984e-05
-0.000114592
9.81676e-06
-0.000123507
8.91491e-06
-0.000131599
8.09149e-06
-0.000138851
7.25179e-06
-0.000145336
6.48491e-06
-0.000151031
5.69527e-06
-0.000155965
4.93407e-06
-0.000160162
4.19728e-06
-0.000163682
3.51936e-06
-0.000166392
2.71021e-06
-0.000168321
1.92934e-06
-0.000169511
1.18946e-06
-0.000170008
4.97592e-07
-0.000169566
-4.41908e-07
-0.000168318
-1.24801e-06
-0.000166327
-1.9909e-06
-0.000163344
-2.98331e-06
-0.000159568
-3.77594e-06
-0.000154882
-4.68566e-06
-0.000149262
-5.62087e-06
-0.000142771
-6.49012e-06
-0.000135343
-7.42814e-06
-0.000127033
-8.31078e-06
-0.00011794
-9.09286e-06
-0.00010787
-1.00694e-05
-9.71158e-05
-1.07545e-05
-8.53988e-05
-1.1717e-05
-7.30118e-05
-1.2387e-05
-5.97932e-05
-1.32186e-05
-4.58243e-05
-1.39689e-05
-3.13239e-05
-1.45004e-05
-1.62058e-05
-1.51182e-05
-4.58507e-07
-1.57473e-05
1.56039e-05
-1.60625e-05
3.20526e-05
-1.64487e-05
4.88078e-05
-1.67553e-05
6.5615e-05
-1.68071e-05
8.25256e-05
-1.69107e-05
9.92434e-05
-1.67177e-05
0.000115721
-1.6478e-05
0.000131861
-1.61402e-05
0.000147306
-1.54446e-05
0.000162002
-1.46956e-05
0.000175808
-1.38064e-05
0.000188295
-1.24867e-05
0.00019948
-1.11853e-05
0.000209136
-9.65592e-06
0.000217088
-7.95188e-06
0.000223172
-6.08475e-06
0.000227229
-4.05685e-06
0.000229214
-1.98442e-06
0.000228957
2.56861e-07
0.000226248
2.7088e-06
0.000221244
5.00384e-06
0.000213953
7.29112e-06
0.0002046
9.35338e-06
0.000193283
1.13163e-05
0.000180099
1.31846e-05
0.000165418
1.46802e-05
0.0001495
1.59187e-05
0.00013238
1.71198e-05
0.000114557
1.78227e-05
9.62199e-05
1.83373e-05
7.77946e-05
1.84253e-05
5.93526e-05
1.8442e-05
4.1182e-05
1.81705e-05
2.34462e-05
1.77358e-05
6.43956e-06
1.70067e-05
-9.70572e-06
1.61453e-05
-2.4988e-05
1.52823e-05
-3.92675e-05
1.42796e-05
-5.24697e-05
1.32022e-05
-6.45409e-05
1.20712e-05
-7.54986e-05
1.09577e-05
-8.53429e-05
9.84426e-06
-9.4111e-05
8.76806e-06
-0.000101835
7.72354e-06
-0.000108549
6.71464e-06
-0.000114312
5.76259e-06
-0.000119186
4.87409e-06
-0.00012322
4.03454e-06
-0.00012646
3.23927e-06
-0.000128966
2.5065e-06
-0.000130779
1.8124e-06
-0.000131939
1.16074e-06
-0.000132494
5.54711e-07
-0.000132393
-1.00945e-07
-0.000131656
-7.37104e-07
-0.000130307
-1.34861e-06
-0.00012837
-1.93715e-06
-0.000125851
-2.51947e-06
-0.000122762
-3.08864e-06
-0.000119096
-3.66619e-06
-0.000114816
-4.27939e-06
-0.000109936
-4.88094e-06
-5.51405e-06
8.20596e-05
-3.61904e-05
0.00010013
-3.61296e-05
0.000117748
-3.52165e-05
0.000134571
-3.36361e-05
0.000150574
-3.20006e-05
0.000165367
-2.95687e-05
0.000178856
-2.69624e-05
0.000190725
-2.37294e-05
0.000200689
-1.9917e-05
0.000208643
-1.58909e-05
0.000214396
-1.1505e-05
0.000217797
-6.8013e-06
0.000218832
-2.06458e-06
0.00021735
2.95192e-06
0.000213442
7.81139e-06
0.000207137
1.26048e-05
0.000198495
1.72775e-05
0.000187922
2.11381e-05
0.000175531
2.47718e-05
0.000161388
2.82716e-05
0.000145952
3.0862e-05
0.000129342
3.32053e-05
0.000111845
3.4981e-05
9.37765e-05
3.61261e-05
7.54162e-05
3.67105e-05
5.69366e-05
3.69489e-05
3.85149e-05
3.68351e-05
2.03092e-05
3.63985e-05
2.63975e-06
3.53349e-05
-1.45493e-05
3.43744e-05
-3.10189e-05
3.29336e-05
-4.66962e-05
3.13486e-05
-6.15177e-05
2.96399e-05
-7.54201e-05
2.78007e-05
-8.84028e-05
2.59579e-05
-0.00010044
2.40713e-05
-0.000111532
2.21806e-05
-0.000121723
2.03846e-05
-0.000131003
1.85636e-05
-0.000139404
1.67983e-05
-0.000146955
1.51049e-05
-0.000153673
1.34338e-05
-0.000159601
1.18548e-05
-0.000164758
1.03145e-05
-0.000169163
8.80604e-06
-0.000172838
7.3491e-06
-0.000175811
5.942e-06
-0.000178053
4.48411e-06
-0.000179605
3.10409e-06
-0.00018045
1.69057e-06
-0.000180531
1.59418e-07
-0.000179864
-1.33654e-06
-0.000178332
-3.0687e-06
-0.000176042
-4.57852e-06
-0.000173003
-6.08059e-06
-0.000169042
-7.92075e-06
-0.000164244
-9.60359e-06
-0.000158573
-1.13392e-05
-0.000151915
-1.33143e-05
-0.000144437
-1.496e-05
-0.000135927
-1.70213e-05
-0.000126433
-1.89784e-05
-0.000116118
-2.06293e-05
-0.000104771
-2.27062e-05
-9.24924e-05
-2.454e-05
-7.94028e-05
-2.61999e-05
-6.54808e-05
-2.78208e-05
-5.07314e-05
-2.94892e-05
-3.52126e-05
-3.10384e-05
-1.90836e-05
-3.22428e-05
-2.39986e-06
-3.33586e-05
1.46794e-05
-3.41559e-05
3.21219e-05
-3.4883e-05
4.96492e-05
-3.50395e-05
6.71647e-05
-3.50099e-05
8.44447e-05
-3.45548e-05
0.000101529
-3.41547e-05
0.00011805
-3.304e-05
0.000133774
-3.14371e-05
0.000148593
-2.96257e-05
0.000162276
-2.73542e-05
0.000174544
-2.45314e-05
0.000185218
-2.13433e-05
0.000194133
-1.78013e-05
0.000201026
-1.38e-05
0.000205793
-9.54836e-06
0.000208288
-4.97087e-06
0.000208542
-5.02937e-07
0.000206442
4.18236e-06
0.000201982
8.92075e-06
0.000195264
1.34326e-05
0.000186346
1.78233e-05
0.000175489
2.17142e-05
0.000162805
2.53603e-05
0.000148497
2.85996e-05
0.000132798
3.13905e-05
0.000115852
3.38826e-05
9.80238e-05
3.56433e-05
7.94657e-05
3.7105e-05
6.04684e-05
3.79777e-05
4.13861e-05
3.8164e-05
2.23021e-05
3.81725e-05
3.49552e-06
3.75919e-05
-1.46761e-05
3.63273e-05
-3.2334e-05
3.53148e-05
-4.90989e-05
3.35201e-05
-6.48987e-05
3.15985e-05
-7.96961e-05
2.95833e-05
-9.33576e-05
2.73148e-05
-0.000105912
2.51162e-05
-0.000117344
2.28771e-05
-0.00012765
2.06088e-05
-0.000136923
1.85505e-05
-0.000145226
1.66043e-05
-0.000152536
1.46093e-05
-0.000158946
1.28213e-05
-0.000164471
1.10602e-05
-0.000169189
9.45363e-06
-0.000173144
7.90779e-06
-0.000176308
6.31876e-06
-0.000178839
5.05883e-06
-0.000180603
3.5227e-06
-0.00018171
2.20742e-06
-0.000182143
8.66825e-07
-0.00018199
-2.84493e-07
-0.00018114
-1.70141e-06
-0.000179706
-2.86989e-06
-0.000177673
-4.07239e-06
-0.000174999
-5.34825e-06
-0.000171722
-6.55762e-06
-0.000167805
-7.83064e-06
-0.000163206
-9.20187e-06
-0.000157928
-1.05563e-05
-0.000151999
-1.18591e-05
-0.000145282
-1.34354e-05
-0.000137748
-1.50683e-05
-0.000129358
-1.67891e-05
-0.000120067
-1.85831e-05
-0.000109857
-2.0419e-05
-9.87296e-05
-2.22547e-05
-8.65612e-05
-2.43368e-05
-7.33991e-05
-2.6318e-05
-5.93502e-05
-2.81015e-05
-4.43345e-05
-3.00305e-05
-2.84967e-05
-3.16626e-05
-1.19142e-05
-3.31687e-05
5.36792e-06
-3.45606e-05
2.32171e-05
-3.56843e-05
4.14186e-05
-3.6396e-05
5.98256e-05
-3.67976e-05
7.81469e-05
-3.66416e-05
9.6226e-05
-3.61401e-05
0.000113731
-3.49932e-05
0.000130428
-3.33904e-05
0.000146077
-3.12923e-05
0.000160434
-2.86973e-05
0.00017322
-2.55639e-05
0.000184192
-2.19317e-05
0.000193111
-1.78361e-05
0.000199876
-1.35175e-05
0.000204301
-8.83009e-06
0.000206309
-4.02376e-06
0.000205925
7.58785e-07
0.000203113
5.61706e-06
0.000197945
1.03326e-05
0.000190572
1.47426e-05
0.000181147
1.88419e-05
0.000169836
2.26159e-05
0.000156893
2.5869e-05
0.000142509
2.87646e-05
0.000126978
3.10567e-05
0.00011046
3.30293e-05
9.31742e-05
3.45533e-05
7.55254e-05
3.52801e-05
5.76381e-05
3.57717e-05
3.97513e-05
3.57653e-05
2.20134e-05
3.54724e-05
4.46922e-06
3.50859e-05
-1.24668e-05
3.38666e-05
-2.88758e-05
3.28114e-05
-4.4601e-05
3.14402e-05
-5.9499e-05
2.9793e-05
-7.35538e-05
2.81127e-05
-8.66994e-05
2.62934e-05
-9.8944e-05
2.44827e-05
-0.000110256
2.26192e-05
-0.000120598
2.06856e-05
-0.000130028
1.88596e-05
-0.00013851
1.69605e-05
-0.000146093
1.51698e-05
-0.000152829
1.34743e-05
-0.000158669
1.16827e-05
-0.000163753
1.01665e-05
-0.000168073
8.63795e-06
-0.000171655
7.17401e-06
-0.000174564
5.8131e-06
-0.000176756
4.37413e-06
-0.000178243
2.96739e-06
-0.000179036
1.58791e-06
-0.000179083
9.80836e-08
-0.0001785
-1.16238e-06
-0.000177128
-2.73387e-06
-0.000175045
-4.17351e-06
-0.000172172
-5.75819e-06
-0.000168578
-7.18254e-06
-0.000164197
-8.75856e-06
-0.000158983
-1.04338e-05
-0.000152977
-1.20124e-05
-0.000146137
-1.36768e-05
-0.000138454
-1.53653e-05
-0.000129912
-1.70889e-05
-0.000120481
-1.88652e-05
-0.000110244
-2.04761e-05
-9.90886e-05
-2.23082e-05
-8.70716e-05
-2.40237e-05
-7.43044e-05
-2.55413e-05
-6.06003e-05
-2.74035e-05
-4.61228e-05
-2.89451e-05
-3.09377e-05
-3.03655e-05
-1.50387e-05
-3.1808e-05
1.3231e-06
-3.27256e-05
1.82247e-05
-3.37876e-05
3.54392e-05
-3.44085e-05
5.27974e-05
-3.47171e-05
7.03056e-05
-3.50151e-05
8.76998e-05
-3.47794e-05
0.000104772
-3.41352e-05
0.000121305
-3.30517e-05
0.000137026
-3.14247e-05
0.000151712
-2.93765e-05
0.000165122
-2.68014e-05
0.000177038
-2.38186e-05
0.000187248
-2.04237e-05
0.000195584
-1.66608e-05
0.000201873
-1.25622e-05
0.000205964
-8.18063e-06
0.000207796
-3.65977e-06
0.000207372
8.40341e-07
0.000204601
5.53057e-06
0.000199538
1.0139e-05
0.000192268
1.45439e-05
0.000182932
1.86725e-05
0.000171663
2.25093e-05
0.000158742
2.5838e-05
0.000144375
2.87288e-05
0.000128786
3.11615e-05
0.000112262
3.30352e-05
9.49368e-05
3.46383e-05
7.72271e-05
3.54125e-05
5.92975e-05
3.58496e-05
4.12588e-05
3.60625e-05
2.34474e-05
3.56195e-05
6.13637e-06
3.46161e-05
-1.05814e-05
3.34306e-05
-2.66865e-05
3.21988e-05
-4.19925e-05
3.06043e-05
-5.63878e-05
2.87996e-05
-6.99294e-05
2.70807e-05
-8.24924e-05
2.51194e-05
-9.4134e-05
2.32799e-05
-0.000104833
2.13977e-05
-0.00011465
1.96333e-05
-0.000123562
1.78269e-05
-0.000131649
1.61791e-05
-0.000138902
1.45046e-05
-0.000145392
1.29745e-05
-0.000151092
1.13955e-05
-0.000156025
9.86726e-06
-0.000160223
8.39468e-06
-0.000163742
7.03926e-06
-0.000166458
5.42541e-06
-0.000168385
3.85688e-06
-0.000169578
2.38252e-06
-0.000170079
9.98422e-07
-0.000169634
-8.86655e-07
-0.000168393
-2.48968e-06
-0.000166397
-3.98646e-06
-0.000163416
-5.96452e-06
-0.000159632
-7.55955e-06
-0.000154953
-9.36493e-06
-0.000149334
-1.12402e-05
-0.000142836
-1.29882e-05
-0.000135409
-1.4855e-05
-0.000127095
-1.66243e-05
-0.000118002
-1.81866e-05
-0.000107933
-2.01379e-05
-9.71742e-05
-2.15135e-05
-8.54558e-05
-2.34355e-05
-7.30664e-05
-2.47764e-05
-5.98404e-05
-2.64447e-05
-4.58602e-05
-2.79491e-05
-3.13626e-05
-2.8998e-05
-1.62454e-05
-3.02355e-05
-4.87597e-07
-3.15051e-05
1.5584e-05
-3.21341e-05
3.20422e-05
-3.29069e-05
4.87946e-05
-3.35077e-05
6.56052e-05
-3.36177e-05
8.25325e-05
-3.38381e-05
9.92609e-05
-3.34462e-05
0.000115748
-3.2965e-05
0.000131894
-3.22861e-05
0.000147343
-3.08943e-05
0.000162059
-2.94112e-05
0.00017588
-2.76275e-05
0.000188371
-2.49782e-05
0.000199573
-2.23872e-05
0.000209237
-1.93201e-05
0.000217191
-1.59058e-05
0.000223288
-1.21818e-05
0.000227357
-8.12572e-06
0.000229344
-3.97146e-06
0.000229082
5.18984e-07
0.000226368
5.42271e-06
0.000221364
1.0008e-05
0.000214069
1.4586e-05
0.000204705
1.87175e-05
0.00019338
2.26412e-05
0.000180185
2.6379e-05
0.000165494
2.93713e-05
0.000149562
3.18509e-05
0.000132427
3.42548e-05
0.00011459
3.56596e-05
9.6242e-05
3.66852e-05
7.78046e-05
3.68626e-05
5.93514e-05
3.68952e-05
4.1165e-05
3.6357e-05
2.34272e-05
3.54736e-05
6.42763e-06
3.40062e-05
-9.73557e-06
3.23085e-05
-2.50254e-05
3.05721e-05
-3.93114e-05
2.85656e-05
-5.25192e-05
2.641e-05
-6.45958e-05
2.41477e-05
-7.55538e-05
2.19158e-05
-8.53958e-05
1.96862e-05
-9.41609e-05
1.75332e-05
-0.000101885
1.54473e-05
-0.000108603
1.34327e-05
-0.000114367
1.15271e-05
-0.000119239
9.74563e-06
-0.000123266
8.06153e-06
-0.000126508
6.48106e-06
-0.000129013
5.01226e-06
-0.000130824
3.62344e-06
-0.00013198
2.31622e-06
-0.000132533
1.10792e-06
-0.000132431
-2.03393e-07
-0.000131691
-1.47673e-06
-0.000130339
-2.70059e-06
-0.0001284
-3.87594e-06
-0.000125878
-5.04132e-06
-0.000122788
-6.17871e-06
-0.000119122
-7.33281e-06
-0.000114842
-8.55914e-06
-0.000109961
-9.76188e-06
-1.10282e-05
8.20804e-05
-5.43074e-05
0.000100173
-5.42219e-05
0.000117813
-5.28566e-05
0.000134672
-5.04955e-05
0.000150705
-4.80342e-05
0.000165524
-4.43873e-05
0.000179049
-4.04877e-05
0.000190942
-3.56229e-05
0.000200917
-2.98916e-05
0.000208901
-2.38756e-05
0.00021467
-1.72737e-05
0.000218053
-1.01847e-05
0.00021907
-3.08188e-06
0.000217545
4.47693e-06
0.000213623
1.17332e-05
0.000207311
1.89174e-05
0.000198654
2.59339e-05
0.00018807
3.17225e-05
0.000175657
3.7184e-05
0.00016149
4.24387e-05
0.000146037
4.6315e-05
0.000129409
4.98336e-05
0.000111889
5.25005e-05
9.38057e-05
5.42098e-05
7.54273e-05
5.50889e-05
5.69307e-05
5.54454e-05
3.84957e-05
5.52702e-05
2.02677e-05
5.46265e-05
2.58978e-06
5.30128e-05
-1.46102e-05
5.15743e-05
-3.10884e-05
4.94119e-05
-4.67737e-05
4.70338e-05
-6.16026e-05
4.44688e-05
-7.5508e-05
4.17062e-05
-8.84918e-05
3.89416e-05
-0.000100532
3.61117e-05
-0.000111622
3.32704e-05
-0.000121817
3.05794e-05
-0.000131101
2.78481e-05
-0.000139502
2.51994e-05
-0.000147053
2.26552e-05
-0.000153767
2.01476e-05
-0.000159694
1.77827e-05
-0.000164855
1.54746e-05
-0.000169249
1.32007e-05
-0.000172917
1.10172e-05
-0.000175889
8.9137e-06
-0.000178133
6.72801e-06
-0.000179694
4.66477e-06
-0.000180535
2.53151e-06
-0.000180599
2.24131e-07
-0.000179927
-2.00899e-06
-0.000178399
-4.59709e-06
-0.000176105
-6.87174e-06
-0.000173068
-9.11807e-06
-0.000169107
-1.18818e-05
-0.000164316
-1.43939e-05
-0.000158649
-1.70062e-05
-0.000151991
-1.99732e-05
-0.000144516
-2.24351e-05
-0.000136012
-2.55247e-05
-0.000126515
-2.84758e-05
-0.000116205
-3.09393e-05
-0.000104856
-3.40557e-05
-9.25746e-05
-3.68209e-05
-7.94819e-05
-3.92926e-05
-6.55468e-05
-4.17559e-05
-5.07964e-05
-4.42397e-05
-3.52732e-05
-4.65617e-05
-1.91319e-05
-4.83841e-05
-2.4378e-06
-5.00528e-05
1.46523e-05
-5.1246e-05
3.21078e-05
-5.23385e-05
4.96309e-05
-5.25627e-05
6.71571e-05
-5.25362e-05
8.44604e-05
-5.18581e-05
0.00010157
-5.12643e-05
0.000118092
-4.95617e-05
0.000133831
-4.71763e-05
0.000148675
-4.44702e-05
0.000162388
-4.10669e-05
0.000174652
-3.67959e-05
0.000185343
-3.20337e-05
0.000194275
-2.6734e-05
0.00020118
-2.07043e-05
0.000205965
-1.43339e-05
0.000208468
-7.47392e-06
0.000208714
-7.4934e-07
0.000206597
6.29926e-06
0.000202133
1.3385e-05
0.000195419
2.01465e-05
0.000186486
2.67567e-05
0.000175622
3.2578e-05
0.000162924
3.80588e-05
0.000148593
4.29299e-05
0.000132874
4.71096e-05
0.000115908
5.08492e-05
9.80464e-05
5.35045e-05
7.94664e-05
5.5685e-05
6.04471e-05
5.6997e-05
4.13324e-05
5.72788e-05
2.22489e-05
5.7256e-05
3.42823e-06
5.64125e-05
-1.47665e-05
5.4522e-05
-3.24248e-05
5.29731e-05
-4.92134e-05
5.03087e-05
-6.50097e-05
4.73948e-05
-7.98071e-05
4.43807e-05
-9.34721e-05
4.09799e-05
-0.000106037
3.76816e-05
-0.000117478
3.43174e-05
-0.000127778
3.09088e-05
-0.000137029
2.7802e-05
-0.000145327
2.49022e-05
-0.00015264
2.19222e-05
-0.000159048
1.92299e-05
-0.000164572
1.65838e-05
-0.000169293
1.41741e-05
-0.000173233
1.18477e-05
-0.000176387
9.47326e-06
-0.000178929
7.60099e-06
-0.000180696
5.28922e-06
-0.000181803
3.31477e-06
-0.000182247
1.31061e-06
-0.000182068
-4.63602e-07
-0.000181214
-2.55484e-06
-0.000179785
-4.2988e-06
-0.000177742
-6.1155e-06
-0.000175067
-8.02332e-06
-0.000171793
-9.83206e-06
-0.000167884
-1.17395e-05
-0.000163287
-1.3799e-05
-0.000158004
-1.58388e-05
-0.00015208
-1.77833e-05
-0.000145373
-2.01431e-05
-0.000137836
-2.26052e-05
-0.000129445
-2.51798e-05
-0.00012016
-2.78682e-05
-0.000109961
-3.06177e-05
-9.8827e-05
-3.33892e-05
-8.66661e-05
-3.64978e-05
-7.35069e-05
-3.94773e-05
-5.94439e-05
-4.21646e-05
-4.44242e-05
-4.50502e-05
-2.8577e-05
-4.75099e-05
-1.19846e-05
-4.97611e-05
5.30243e-06
-5.18477e-05
2.31685e-05
-5.35504e-05
4.13879e-05
-5.46156e-05
5.98191e-05
-5.52289e-05
7.8157e-05
-5.49796e-05
9.62533e-05
-5.42364e-05
0.000113776
-5.25163e-05
0.000130503
-5.01169e-05
0.000146175
-4.69642e-05
0.000160557
-4.30794e-05
0.000173359
-3.83664e-05
0.000184341
-3.29138e-05
0.000193275
-2.67702e-05
0.000200045
-2.02872e-05
0.000204476
-1.32617e-05
0.000206503
-6.05064e-06
0.000206111
1.1511e-06
0.000203286
8.4416e-06
0.000198106
1.55124e-05
0.000190715
2.21336e-05
0.000181279
2.82782e-05
0.000169947
3.39478e-05
0.00015698
3.88365e-05
0.00014258
4.31638e-05
0.000127035
4.66019e-05
0.000110506
4.95585e-05
9.31864e-05
5.18728e-05
7.55049e-05
5.29617e-05
5.76116e-05
5.36649e-05
3.97066e-05
5.36703e-05
2.1956e-05
5.3223e-05
4.40448e-06
5.26374e-05
-1.2539e-05
5.08101e-05
-2.89581e-05
4.92304e-05
-4.46956e-05
4.71777e-05
-5.96039e-05
4.47013e-05
-7.36676e-05
4.21765e-05
-8.68051e-05
3.94309e-05
-9.90416e-05
3.67192e-05
-0.000110361
3.39386e-05
-0.000120708
3.10323e-05
-0.000130136
2.82874e-05
-0.000138619
2.5444e-05
-0.000146197
2.27473e-05
-0.000152931
2.02084e-05
-0.000158767
1.75189e-05
-0.00016384
1.52395e-05
-0.000168164
1.29622e-05
-0.000171747
1.07573e-05
-0.000174643
8.70916e-06
-0.000176834
6.56421e-06
-0.000178328
4.46203e-06
-0.000179132
2.39212e-06
-0.000179179
1.449e-07
-0.000178585
-1.75687e-06
-0.000177219
-4.09997e-06
-0.000175129
-6.26308e-06
-0.000172254
-8.63301e-06
-0.000168664
-1.07728e-05
-0.000164286
-1.31368e-05
-0.000159069
-1.56509e-05
-0.000153068
-1.80133e-05
-0.000146236
-2.05084e-05
-0.000138545
-2.30564e-05
-0.000129993
-2.56414e-05
-0.000120568
-2.82895e-05
-0.000110334
-3.07106e-05
-9.91803e-05
-3.34619e-05
-8.71691e-05
-3.60349e-05
-7.44018e-05
-3.83087e-05
-6.0692e-05
-4.11134e-05
-4.62079e-05
-4.34293e-05
-3.10132e-05
-4.55602e-05
-1.51094e-05
-4.77119e-05
1.26989e-06
-4.91049e-05
1.81849e-05
-5.07027e-05
3.54107e-05
-5.16343e-05
5.27886e-05
-5.2095e-05
7.03061e-05
-5.25326e-05
8.77132e-05
-5.21866e-05
0.000104804
-5.12258e-05
0.000121351
-4.95994e-05
0.000137094
-4.71669e-05
0.0001518
-4.40833e-05
0.000165222
-4.02235e-05
0.000177155
-3.57515e-05
0.000187385
-3.06533e-05
0.000195726
-2.50023e-05
0.000202042
-1.88779e-05
0.00020616
-1.22984e-05
0.000207991
-5.49146e-06
0.000207545
1.28663e-06
0.000204762
8.31361e-06
0.0001997
1.52009e-05
0.000192404
2.18396e-05
0.000183081
2.79959e-05
0.000171782
3.38085e-05
0.000158834
3.87855e-05
0.000144455
4.31075e-05
0.000128847
4.67696e-05
0.000112294
4.95883e-05
9.49379e-05
5.19945e-05
7.72083e-05
5.3142e-05
5.92773e-05
5.37806e-05
4.12104e-05
5.41294e-05
2.33876e-05
5.34423e-05
6.07282e-06
5.19308e-05
-1.06557e-05
5.01592e-05
-2.67773e-05
4.83204e-05
-4.20996e-05
4.59266e-05
-5.64929e-05
4.31929e-05
-7.00354e-05
4.06232e-05
-8.25987e-05
3.76826e-05
-9.4244e-05
3.49253e-05
-0.000104938
3.20919e-05
-0.000114752
2.94471e-05
-0.000123664
2.67392e-05
-0.000131747
2.42619e-05
-0.000138996
2.17535e-05
-0.000145486
1.94642e-05
-0.000151187
1.7097e-05
-0.000156107
1.47875e-05
-0.000160311
1.25982e-05
-0.00016382
1.05479e-05
-0.000166557
8.16278e-06
-0.000168479
5.77864e-06
-0.000169662
3.56612e-06
-0.000170164
1.50021e-06
-0.000169723
-1.32769e-06
-0.000168485
-3.72779e-06
-0.000166474
-5.9973e-06
-0.000163504
-8.93487e-06
-0.000159707
-1.13567e-05
-0.000155034
-1.4038e-05
-0.000149417
-1.6857e-05
-0.000142909
-1.94964e-05
-0.000135483
-2.22806e-05
-0.000127164
-2.49435e-05
-0.000118075
-2.72754e-05
-0.000107999
-3.02141e-05
-9.72396e-05
-3.22728e-05
-8.55239e-05
-3.51512e-05
-7.31298e-05
-3.71705e-05
-5.99068e-05
-3.96678e-05
-4.59209e-05
-4.19351e-05
-3.14092e-05
-4.35096e-05
-1.63002e-05
-4.53445e-05
-5.39923e-07
-4.72655e-05
1.55395e-05
-4.82136e-05
3.20143e-05
-4.93818e-05
4.87695e-05
-5.02629e-05
6.55881e-05
-5.04364e-05
8.25207e-05
-5.07707e-05
9.92611e-05
-5.01866e-05
0.000115769
-4.94732e-05
0.000131937
-4.84539e-05
0.000147401
-4.63586e-05
0.000162137
-4.41472e-05
0.000175972
-4.14627e-05
0.000188484
-3.749e-05
0.000199706
-3.36095e-05
0.00020939
-2.90037e-05
0.000217365
-2.38807e-05
0.000223472
-1.82887e-05
0.000227557
-1.22113e-05
0.000229568
-5.9825e-06
0.000229283
8.04368e-07
0.000226541
8.16419e-06
0.000221536
1.50132e-05
0.000214236
2.18859e-05
0.000204854
2.80993e-05
0.000193518
3.39772e-05
0.00018031
3.95871e-05
0.000165604
4.40777e-05
0.000149646
4.78089e-05
0.000132487
5.14134e-05
0.000114626
5.35208e-05
9.62616e-05
5.50493e-05
7.78023e-05
5.53219e-05
5.93307e-05
5.53668e-05
4.11164e-05
5.45712e-05
2.33794e-05
5.32106e-05
6.4124e-06
5.09732e-05
-9.80677e-06
4.85276e-05
-2.51124e-05
4.58777e-05
-3.94071e-05
4.28603e-05
-5.26148e-05
3.96176e-05
-6.46907e-05
3.62237e-05
-7.56474e-05
3.28725e-05
-8.54861e-05
2.95249e-05
-9.425e-05
2.62971e-05
-0.000101969
2.31663e-05
-0.000108679
2.01427e-05
-0.000114437
1.72853e-05
-0.000119307
1.46155e-05
-0.000123334
1.20886e-05
-0.00012657
9.71744e-06
-0.000129073
7.51456e-06
-0.000130883
5.43403e-06
-0.000132039
3.47175e-06
-0.000132589
1.65839e-06
-0.000132481
-3.11656e-07
-0.000131735
-2.22269e-06
-0.000130381
-4.05468e-06
-0.000128443
-5.81378e-06
-0.000125921
-7.56352e-06
-0.000122831
-9.26845e-06
-0.000119166
-1.09979e-05
-0.000114888
-1.28373e-05
-0.000110009
-1.46406e-05
-1.65399e-05
8.21103e-05
-7.24502e-05
0.000100239
-7.23509e-05
0.000117917
-7.05349e-05
0.000134817
-6.73957e-05
0.000150898
-6.41147e-05
0.000165766
-5.92561e-05
0.000179334
-5.40554e-05
0.000191269
-4.75585e-05
0.000201281
-3.9903e-05
0.000209292
-3.18865e-05
0.000215082
-2.30645e-05
0.000218475
-1.35777e-05
0.000219471
-4.07746e-06
0.000217858
6.08948e-06
0.000213897
1.56943e-05
0.000207571
2.52435e-05
0.000198893
3.46116e-05
0.000188293
4.23223e-05
0.000175847
4.96298e-05
0.000161644
5.6642e-05
0.000146166
6.17933e-05
0.000129508
6.64907e-05
0.000111957
7.00521e-05
9.38499e-05
7.23166e-05
7.54437e-05
7.3495e-05
5.69216e-05
7.39674e-05
3.84669e-05
7.37249e-05
2.02063e-05
7.28871e-05
2.51489e-06
7.07041e-05
-1.47018e-05
6.8791e-05
-3.11941e-05
6.59042e-05
-4.68918e-05
6.27315e-05
-6.17294e-05
5.93063e-05
-7.56427e-05
5.56195e-05
-8.86322e-05
5.19311e-05
-0.000100675
4.81547e-05
-0.000111765
4.43604e-05
-0.00012196
4.07743e-05
-0.00013124
3.71282e-05
-0.000139638
3.35976e-05
-0.000147188
3.02045e-05
-0.000153903
2.68632e-05
-0.000159826
2.37057e-05
-0.000164983
2.06316e-05
-0.00016938
1.75978e-05
-0.000173055
1.46921e-05
-0.000176031
1.18892e-05
-0.000178277
8.97435e-06
-0.000179836
6.22378e-06
-0.000180658
3.35307e-06
-0.000180699
2.65599e-07
-0.000180021
-2.68719e-06
-0.000178499
-6.11898e-06
-0.000176202
-9.16935e-06
-0.000173169
-1.21509e-05
-0.000169207
-1.5844e-05
-0.000164427
-1.91737e-05
-0.000158763
-2.26704e-05
-0.000152108
-2.66281e-05
-0.000144646
-2.98967e-05
-0.000136147
-3.40237e-05
-0.000126646
-3.7977e-05
-0.00011631
-4.1276e-05
-0.000104981
-4.53842e-05
-9.26962e-05
-4.91058e-05
-7.96032e-05
-5.23857e-05
-6.56477e-05
-5.57114e-05
-5.08911e-05
-5.89963e-05
-3.53606e-05
-6.20923e-05
-1.9203e-05
-6.45417e-05
-2.50182e-06
-6.67541e-05
1.46016e-05
-6.83495e-05
3.20757e-05
-6.98128e-05
4.96064e-05
-7.00934e-05
6.7152e-05
-7.00819e-05
8.44752e-05
-6.91814e-05
0.00010162
-6.84093e-05
0.000118152
-6.60934e-05
0.000133918
-6.29427e-05
0.000148791
-5.93435e-05
0.000162542
-5.48174e-05
0.000174813
-4.90672e-05
0.000185531
-4.27519e-05
0.000194499
-3.57022e-05
0.00020141
-2.76147e-05
0.000206218
-1.91426e-05
0.000208734
-9.98979e-06
0.000208967
-9.81813e-07
0.000206838
8.42825e-06
0.000202372
1.78504e-05
0.000195651
2.6868e-05
0.000186686
3.57212e-05
0.000175816
4.34486e-05
0.000163089
5.07851e-05
0.000148731
5.72879e-05
0.000132984
6.28566e-05
0.000115992
6.78417e-05
9.81047e-05
7.13914e-05
7.94792e-05
7.43106e-05
6.04124e-05
7.60637e-05
4.12718e-05
7.64193e-05
2.21819e-05
7.63459e-05
3.3327e-06
7.52617e-05
-1.48871e-05
7.27419e-05
-3.25692e-05