/*--------------------------------*- C++ -*----------------------------------*\
| =========                 |                                                 |
| \\      /  F ield         | OpenFOAM: The Open Source CFD Toolbox           |
|  \\    /   O peration     | Version:  3.0.1                                 |
|   \\  /    A nd           | Web:      www.OpenFOAM.org                      |
|    \\/     M anipulation  |                                                 |
\*---------------------------------------------------------------------------*/
FoamFile
{
    version     2.0;
    format      ascii;
    class       surfaceScalarField;
    location    "37.2";
    object      alphaPhi;
}
// * * * * * * * * * * * * * * * * * * * * * * * * * * * * * * * * * * * * * //

dimensions      [0 3 -1 0 0 0 0];

internalField   nonuniform List<scalar> 
42423
(
-2.80427e-05
-1.04838e-05
-1.61963e-05
-1.18465e-05
-3.19553e-06
-1.30009e-05
1.05026e-05
-1.36982e-05
2.52604e-05
-1.47579e-05
4.07104e-05
-1.545e-05
5.70326e-05
-1.63223e-05
7.39253e-05
-1.68927e-05
9.11291e-05
-1.72039e-05
0.00010873
-1.76006e-05
0.000126493
-1.77631e-05
0.000144035
-1.75421e-05
0.000161337
-1.7302e-05
0.000178069
-1.67329e-05
0.000194077
-1.60073e-05
0.00020912
-1.50438e-05
0.000222821
-1.37011e-05
0.000235071
-1.22495e-05
0.000245621
-1.05506e-05
0.000254243
-8.62152e-06
0.000260873
-6.63038e-06
0.000265329
-4.45606e-06
0.000267538
-2.20906e-06
0.000267433
1.04864e-07
0.000264954
2.47872e-06
0.000260219
4.73496e-06
0.000253412
6.80766e-06
0.000244458
8.95366e-06
0.000233693
1.07647e-05
0.000221378
1.23152e-05
0.000207483
1.38951e-05
0.000192373
1.51094e-05
0.00017636
1.60134e-05
0.000159579
1.67811e-05
0.000142316
1.72624e-05
0.0001248
1.7516e-05
0.000107171
1.76291e-05
8.95915e-05
1.75798e-05
7.23173e-05
1.72741e-05
5.55377e-05
1.67796e-05
3.92333e-05
1.63044e-05
2.35384e-05
1.56949e-05
8.67611e-06
1.48623e-05
-5.50947e-06
1.41856e-05
-1.88896e-05
1.33801e-05
-3.14575e-05
1.2568e-05
-4.3191e-05
1.17334e-05
-5.40913e-05
1.09003e-05
-6.41975e-05
1.01061e-05
-7.34968e-05
9.29931e-06
-8.20026e-05
8.50584e-06
-8.9799e-05
7.79639e-06
-9.68646e-05
7.06559e-06
-0.000103254
6.38909e-06
-0.000108958
5.70446e-06
-0.000113975
5.01684e-06
-0.000118384
4.40946e-06
-0.00012216
3.77593e-06
-0.000125263
3.10285e-06
-0.000127767
2.50371e-06
-0.000129594
1.8268e-06
-0.000130804
1.2104e-06
-0.000131379
5.74715e-07
-0.000131171
-2.08247e-07
-0.000130265
-9.05704e-07
-0.000128687
-1.57778e-06
-0.000126227
-2.46044e-06
-0.000123083
-3.14335e-06
-0.000119034
-4.04903e-06
-0.000114153
-4.88128e-06
-0.000108488
-5.66483e-06
-0.000101986
-6.50262e-06
-9.44893e-05
-7.49655e-06
-8.62724e-05
-8.217e-06
-7.71302e-05
-9.1422e-06
-6.72039e-05
-9.92642e-06
-5.64383e-05
-1.07656e-05
-4.48418e-05
-1.15965e-05
-3.24936e-05
-1.23483e-05
-1.94522e-05
-1.30415e-05
-5.75582e-06
-1.36964e-05
8.65178e-06
-1.44077e-05
2.36707e-05
-1.5019e-05
3.93016e-05
-1.5631e-05
5.54768e-05
-1.61753e-05
7.2148e-05
-1.66713e-05
8.92763e-05
-1.71283e-05
0.000106809
-1.75325e-05
0.000124558
-1.77496e-05
0.000142432
-1.7874e-05
0.000160109
-1.76764e-05
0.000177277
-1.71682e-05
0.000193556
-1.62789e-05
0.000208494
-1.49383e-05
0.000221727
-1.32331e-05
0.000232893
-1.11656e-05
0.000241752
-8.85894e-06
0.000248064
-6.31187e-06
0.00025175
-3.68575e-06
0.000252812
-1.06233e-06
0.000251192
1.61959e-06
0.000246943
4.24897e-06
0.0002402
6.74331e-06
0.000231169
9.03095e-06
0.000219944
1.1225e-05
0.000206843
1.31012e-05
0.000192022
1.48205e-05
0.000175712
1.63101e-05
0.000158271
1.74417e-05
0.000139929
1.83415e-05
0.000120979
1.895e-05
0.000101681
1.92976e-05
8.23264e-05
1.9355e-05
6.31428e-05
1.91836e-05
4.42296e-05
1.89132e-05
2.59117e-05
1.83178e-05
8.30275e-06
1.7609e-05
-8.53359e-06
1.68363e-05
-2.44626e-05
1.5929e-05
-3.94036e-05
1.4941e-05
-5.33624e-05
1.39587e-05
-6.62909e-05
1.29285e-05
-7.81734e-05
1.18826e-05
-8.90076e-05
1.08342e-05
-9.88842e-05
9.87654e-06
-0.000107743
8.85836e-06
-0.000115708
7.96536e-06
-0.000122725
7.01664e-06
-0.000128873
6.14806e-06
-0.000134125
5.25225e-06
-0.000138626
4.5008e-06
-0.000142362
3.7367e-06
-0.000145301
2.93825e-06
-0.000147482
2.18188e-06
-0.000148918
1.43506e-06
-0.000149645
7.27562e-07
-0.000149793
1.47753e-07
-0.000149205
-5.8783e-07
-0.000147937
-1.26829e-06
-0.000146041
-1.8953e-06
-0.000143428
-2.61297e-06
-0.000140202
-3.22674e-06
-0.00013624
-3.96177e-06
-0.000131623
-4.61704e-06
-0.000126279
-5.3443e-06
-0.000120161
-6.118e-06
-0.00011323
-6.93083e-06
-0.000105466
-7.76353e-06
-9.68225e-05
-8.6439e-06
-8.72819e-05
-9.54064e-06
-7.68293e-05
-1.04527e-05
-6.54512e-05
-1.13781e-05
-5.32032e-05
-1.22481e-05
-4.00544e-05
-1.31488e-05
-2.59615e-05
-1.4093e-05
-1.11854e-05
-1.47761e-05
4.45207e-06
-1.56376e-05
2.07581e-05
-1.63061e-05
3.77158e-05
-1.69578e-05
5.50681e-05
-1.73524e-05
7.27389e-05
-1.76708e-05
9.0567e-05
-1.78282e-05
0.000108281
-1.77137e-05
0.000125696
-1.74155e-05
0.000142532
-1.68362e-05
0.00015857
-1.60383e-05
0.000173532
-1.49623e-05
0.000187152
-1.36196e-05
0.000199218
-1.20657e-05
0.000209442
-1.0225e-05
0.000217624
-8.1815e-06
0.00022359
-5.96608e-06
0.000227172
-3.58213e-06
0.000228314
-1.14247e-06
0.000227
1.31389e-06
0.000223155
3.84491e-06
0.000216853
6.30191e-06
0.000208162
8.69094e-06
0.000197335
1.0827e-05
0.000184545
1.27901e-05
0.000170079
1.44658e-05
0.000154207
1.58722e-05
0.000137227
1.69799e-05
0.000119465
1.77625e-05
0.000101191
1.82734e-05
8.2735e-05
1.84564e-05
6.42963e-05
1.84387e-05
4.60751e-05
1.82212e-05
2.82245e-05
1.78506e-05
1.09511e-05
1.72733e-05
-5.68609e-06
1.66372e-05
-2.16278e-05
1.59417e-05
-3.67267e-05
1.50988e-05
-5.09215e-05
1.41948e-05
-6.41869e-05
1.32654e-05
-7.6568e-05
1.23811e-05
-8.79058e-05
1.13378e-05
-9.83263e-05
1.04205e-05
-0.000107761
9.43437e-06
-0.000116287
8.52632e-06
-0.000123915
7.62792e-06
-0.000130644
6.72938e-06
-0.000136506
5.86181e-06
-0.000141538
5.03173e-06
-0.000145806
4.26811e-06
-0.000149336
3.52949e-06
-0.000152106
2.77085e-06
-0.000154173
2.06658e-06
-0.000155626
1.45254e-06
-0.00015646
8.34971e-07
-0.000156627
1.66814e-07
-0.000156163
-4.64771e-07
-0.000155098
-1.06428e-06
-0.000153436
-1.66234e-06
-0.000151131
-2.30473e-06
-0.000148189
-2.94274e-06
-0.000144724
-3.46493e-06
-0.000140523
-4.20069e-06
-0.000135643
-4.87972e-06
-0.000130066
-5.57756e-06
-0.000123757
-6.30863e-06
-0.000116629
-7.12855e-06
-0.000108845
-7.78357e-06
-0.000100119
-8.72562e-06
-9.04502e-05
-9.66925e-06
-7.9955e-05
-1.04953e-05
-6.83911e-05
-1.1564e-05
-5.59346e-05
-1.24565e-05
-4.24329e-05
-1.35018e-05
-2.80382e-05
-1.43947e-05
-1.26851e-05
-1.53532e-05
3.37067e-06
-1.60558e-05
2.01087e-05
-1.67382e-05
3.74804e-05
-1.73717e-05
5.52774e-05
-1.77971e-05
7.33282e-05
-1.80509e-05
9.14204e-05
-1.80922e-05
0.000109346
-1.79257e-05
0.000126826
-1.74801e-05
0.00014366
-1.68341e-05
0.000159493
-1.58332e-05
0.000174123
-1.46294e-05
0.000187211
-1.30887e-05
0.000198533
-1.13223e-05
0.000207873
-9.33984e-06
0.00021499
-7.1167e-06
0.000219778
-4.78797e-06
0.000222113
-2.33508e-06
0.000222011
1.01405e-07
0.000219418
2.59316e-06
0.000214357
5.06088e-06
0.000206983
7.37424e-06
0.00019742
9.56316e-06
0.000185946
1.14732e-05
0.000172769
1.3177e-05
0.000158102
1.46676e-05
0.000142232
1.58696e-05
0.000125413
1.68184e-05
0.000107857
1.75562e-05
8.97833e-05
1.80738e-05
7.14717e-05
1.83116e-05
5.30752e-05
1.83964e-05
3.47248e-05
1.83504e-05
1.67064e-05
1.80183e-05
-8.05542e-07
1.75119e-05
-1.77272e-05
1.69217e-05
-3.37974e-05
1.60702e-05
-4.89002e-05
1.51028e-05
-6.29185e-05
1.40184e-05
-7.5728e-05
1.28095e-05
-8.72405e-05
1.15126e-05
-9.74251e-05
1.01847e-05
-0.000106302
8.87718e-06
-0.000113925
7.62294e-06
-0.000120387
6.46201e-06
-0.000125689
5.30165e-06
-0.000129931
4.24204e-06
-0.000133253
3.32243e-06
-0.000135753
2.49959e-06
-0.000137487
1.734e-06
-0.000138695
1.2086e-06
-0.000139297
6.01739e-07
-0.000139344
4.67458e-08
-0.000138892
-4.51255e-07
-0.000137944
-9.48138e-07
-0.000136635
-1.30945e-06
-0.000135134
-1.50062e-06
-0.000133279
-1.85521e-06
-0.000131148
-2.13088e-06
-0.000128589
-2.55867e-06
-0.000125517
-3.07258e-06
-0.000121916
-3.60104e-06
-0.000117635
-4.28093e-06
-0.000112625
-5.01002e-06
-0.000106881
-5.7436e-06
-0.000100211
-6.6705e-06
-9.26929e-05
-7.51794e-06
-8.42853e-05
-8.40766e-06
-7.47124e-05
-9.57295e-06
-6.43833e-05
-1.03291e-05
-5.2773e-05
-1.16103e-05
-4.02375e-05
-1.25355e-05
-2.66866e-05
-1.3551e-05
-1.21189e-05
-1.45677e-05
3.41477e-06
-1.55337e-05
1.96645e-05
-1.62498e-05
3.67557e-05
-1.70913e-05
5.44077e-05
-1.76521e-05
7.26119e-05
-1.82042e-05
9.10865e-05
-1.84747e-05
0.000109446
-1.83598e-05
0.000127613
-1.81664e-05
0.000145325
-1.77129e-05
0.000162214
-1.68886e-05
0.000178131
-1.59172e-05
0.000192803
-1.46716e-05
0.000206006
-1.32033e-05
0.000217523
-1.15172e-05
0.000227128
-9.60533e-06
0.000234741
-7.61327e-06
0.000240179
-5.43766e-06
0.000243414
-3.23481e-06
0.000244359
-9.45308e-07
0.000243033
1.32596e-06
0.000239482
3.55085e-06
0.000233844
5.63848e-06
0.000226097
7.747e-06
0.000216473
9.62315e-06
0.000205232
1.12411e-05
0.000192305
1.29272e-05
0.000178127
1.4178e-05
0.000162826
1.53011e-05
0.000146568
1.6258e-05
0.000129621
1.69471e-05
0.000112238
1.73831e-05
9.45604e-05
1.76771e-05
7.68459e-05
1.77145e-05
5.91428e-05
1.7703e-05
4.17867e-05
1.73561e-05
2.47412e-05
1.70455e-05
8.3287e-06
1.64125e-05
-7.54351e-06
1.58722e-05
-2.26963e-05
1.51527e-05
-3.7028e-05
1.43318e-05
-5.05219e-05
1.34939e-05
-6.3102e-05
1.258e-05
-7.47237e-05
1.16217e-05
-8.53833e-05
1.06596e-05
-9.50607e-05
9.67738e-06
-0.000103735
8.67452e-06
-0.000111432
7.69677e-06
-0.000118153
6.72143e-06
-0.000123916
5.76291e-06
-0.00012875
4.83359e-06
-0.000132676
3.92618e-06
-0.000135719
3.04267e-06
2.17532e-06
-2.80764e-05
-2.09695e-05
-1.62315e-05
-2.36916e-05
-3.23332e-06
-2.59993e-05
1.04652e-05
-2.7397e-05
2.5228e-05
-2.95208e-05
4.06818e-05
-3.09039e-05
5.70106e-05
-3.26514e-05
7.39204e-05
-3.38026e-05
9.11297e-05
-3.44134e-05
0.00010873
-3.52005e-05
0.000126505
-3.55392e-05
0.000144057
-3.50935e-05
0.000161374
-3.46195e-05
0.000178116
-3.3475e-05
0.000194138
-3.20299e-05
0.000209198
-3.01034e-05
0.000222927
-2.74302e-05
0.000235184
-2.45066e-05
0.000245727
-2.10938e-05
0.000254369
-1.72642e-05
0.000261002
-1.32627e-05
0.000265448
-8.90248e-06
0.00026767
-4.43134e-06
0.000267559
2.1548e-07
0.00026507
4.96809e-06
0.000260333
9.47189e-06
0.000253519
1.36216e-05
0.00024456
1.79125e-05
0.000233784
2.15402e-05
0.00022146
2.46392e-05
0.000207552
2.78034e-05
0.000192436
3.02254e-05
0.00017641
3.20396e-05
0.000159616
3.35743e-05
0.000142347
3.4532e-05
0.00012482
3.5043e-05
0.000107183
3.52656e-05
8.95934e-05
3.51694e-05
7.2315e-05
3.45525e-05
5.55277e-05
3.35668e-05
3.9214e-05
3.26182e-05
2.35175e-05
3.13913e-05
8.65389e-06
2.97259e-05
-5.53567e-06
2.83751e-05
-1.8919e-05
2.67634e-05
-3.14904e-05
2.51394e-05
-4.32279e-05
2.34709e-05
-5.41328e-05
2.18052e-05
-6.4237e-05
2.02103e-05
-7.35348e-05
1.85971e-05
-8.20486e-05
1.70196e-05
-8.98456e-05
1.55934e-05
-9.69135e-05
1.41336e-05
-0.000103303
1.27785e-05
-0.000109007
1.14088e-05
-0.000114016
1.00255e-05
-0.00011842
8.81352e-06
-0.000122195
7.55121e-06
-0.000125305
6.21205e-06
-0.000127808
5.00739e-06
-0.000129637
3.65563e-06
-0.000130848
2.42116e-06
-0.000131427
1.15389e-06
-0.000131219
-4.16427e-07
-0.000130313
-1.81149e-06
-0.000128739
-3.15167e-06
-0.000126281
-4.91883e-06
-0.000123136
-6.28829e-06
-0.00011909
-8.09509e-06
-0.000114205
-9.76618e-06
-0.000108539
-1.13308e-05
-0.000102028
-1.30136e-05
-9.45411e-05
-1.49839e-05
-8.63198e-05
-1.64384e-05
-7.71697e-05
-1.82924e-05
-6.72364e-05
-1.98598e-05
-5.64651e-05
-2.15371e-05
-4.48592e-05
-2.32026e-05
-3.2501e-05
-2.47066e-05
-1.94497e-05
-2.6093e-05
-5.74006e-06
-2.74062e-05
8.68409e-06
-2.8832e-05
2.37191e-05
-3.00542e-05
3.93658e-05
-3.12779e-05
5.55575e-05
-3.23671e-05
7.22411e-05
-3.33549e-05
8.93741e-05
-3.42615e-05
0.000106913
-3.50714e-05
0.000124673
-3.551e-05
0.000142563
-3.57636e-05
0.000160239
-3.53528e-05
0.000177405
-3.43339e-05
0.000193686
-3.25602e-05
0.00020863
-2.98821e-05
0.000221844
-2.64464e-05
0.000233024
-2.23462e-05
0.000241882
-1.77169e-05
0.000248193
-1.26231e-05
0.000251876
-7.36878e-06
0.000252915
-2.10128e-06
0.000251295
3.24015e-06
0.000247047
8.49691e-06
0.000240294
1.3496e-05
0.000231248
1.80769e-05
0.000220034
2.24389e-05
0.000206915
2.62199e-05
0.000192091
2.96449e-05
0.000175771
3.26295e-05
0.00015832
3.48932e-05
0.00013996
3.67013e-05
0.000120997
3.79136e-05
0.000101689
3.86054e-05
8.2319e-05
3.8725e-05
6.31114e-05
3.83913e-05
4.42025e-05
3.78222e-05
2.58756e-05
3.66448e-05
8.26025e-06
3.52244e-05
-8.58042e-06
3.36771e-05
-2.45239e-05
3.18726e-05
-3.9472e-05
2.98891e-05
-5.34421e-05
2.79289e-05
-6.63698e-05
2.58563e-05
-7.82482e-05
2.37611e-05
-8.90896e-05
2.16755e-05
-9.89784e-05
1.97654e-05
-0.000107839
1.77193e-05
-0.000115794
1.59206e-05
-0.000122815
1.40368e-05
-0.000128962
1.22951e-05
-0.000134234
1.05247e-05
-0.000138735
9.00144e-06
-0.000142459
7.46135e-06
-0.000145397
5.87554e-06
-0.000147586
4.37101e-06
-0.000149029
2.87828e-06
-0.000149779
1.47718e-06
-0.000149898
2.66928e-07
-0.000149307
-1.17903e-06
-0.000148048
-2.52678e-06
-0.000146152
-3.79176e-06
-0.000143528
-5.23693e-06
-0.000140305
-6.44993e-06
-0.000136354
-7.91275e-06
-0.000131695
-9.2752e-06
-0.000126381
-1.06591e-05
-0.000120267
-1.22313e-05
-0.000113329
-1.38689e-05
-0.00010559
-1.55032e-05
-9.69448e-05
-1.72889e-05
-8.73673e-05
-1.91182e-05
-7.69434e-05
-2.08766e-05
-6.55672e-05
-2.27544e-05
-5.33089e-05
-2.45064e-05
-4.01514e-05
-2.63064e-05
-2.60586e-05
-2.81859e-05
-1.12822e-05
-2.95526e-05
4.36446e-06
-3.12843e-05
2.06728e-05
-3.26146e-05
3.76245e-05
-3.39096e-05
5.49968e-05
-3.47249e-05
7.26776e-05
-3.53517e-05
9.05154e-05
-3.56663e-05
0.000108251
-3.54496e-05
0.000125678
-3.4842e-05
0.000142536
-3.36943e-05
0.000158599
-3.2102e-05
0.000173564
-2.99278e-05
0.000187206
-2.72611e-05
0.000199277
-2.41373e-05
0.000209508
-2.04563e-05
0.000217719
-1.63927e-05
0.000223686
-1.19328e-05
0.000227283
-7.17952e-06
0.000228424
-2.28339e-06
0.000227095
2.64264e-06
0.000223241
7.69874e-06
0.000216927
1.26162e-05
0.00020825
1.73677e-05
0.000197421
2.16562e-05
0.000184625
2.55855e-05
0.00017014
2.89513e-05
0.000154256
3.17559e-05
0.000137266
3.39697e-05
0.000119489
3.55396e-05
0.000101206
3.65567e-05
8.27327e-05
3.69296e-05
6.42843e-05
3.68871e-05
4.6051e-05
3.64545e-05
2.81986e-05
3.57031e-05
1.09062e-05
3.45657e-05
-5.73401e-06
3.32774e-05
-2.16796e-05
3.18873e-05
-3.6789e-05
3.02083e-05
-5.09912e-05
2.83971e-05
-6.42552e-05
2.65294e-05
-7.66383e-05
2.47641e-05
-8.79798e-05
2.26793e-05
-9.84112e-05
2.08519e-05
-0.000107859
1.88821e-05
-0.000116381
1.70485e-05
-0.000123999
1.52462e-05
-0.000130726
1.34555e-05
-0.000136596
1.17321e-05
-0.000141636
1.00716e-05
-0.000145902
8.53463e-06
-0.000149426
7.05356e-06
-0.000152204
5.54828e-06
-0.000154277
4.13968e-06
-0.000155727
2.90217e-06
-0.000156562
1.67066e-06
-0.000156728
3.32391e-07
-0.00015623
-9.62226e-07
-0.000155196
-2.09861e-06
-0.000153522
-3.3366e-06
-0.000151233
-4.59314e-06
-0.000148297
-5.87926e-06
-0.000144826
-6.93589e-06
-0.000140622
-8.40499e-06
-0.000135749
-9.75214e-06
-0.000130174
-1.11532e-05
-0.000123871
-1.26118e-05
-0.000116756
-1.42429e-05
-0.000108954
-1.55861e-05
-0.000100232
-1.74469e-05
-9.05582e-05
-1.93435e-05
-8.00715e-05
-2.09821e-05
-6.85098e-05
-2.31257e-05
-5.60411e-05
-2.49253e-05
-4.25372e-05
-2.70058e-05
-2.81422e-05
-2.87898e-05
-1.27795e-05
-3.0716e-05
3.27904e-06
-3.21145e-05
2.00257e-05
-3.34849e-05
3.7411e-05
-3.47572e-05
5.5216e-05
-3.56022e-05
7.32795e-05
-3.61145e-05
9.13834e-05
-3.61963e-05
0.00010932
-3.58623e-05
0.000126821
-3.49818e-05
0.000143651
-3.3664e-05
0.000159517
-3.16994e-05
0.000174154
-2.92664e-05
0.000187263
-2.61976e-05
0.000198597
-2.2657e-05
0.000207959
-1.8702e-05
0.00021508
-1.42375e-05
0.000219877
-9.58487e-06
0.000222216
-4.67426e-06
0.000222107
2.10334e-07
0.000219509
5.19139e-06
0.000214449
1.01201e-05
0.000207071
1.47527e-05
0.000197502
1.91322e-05
0.000186018
2.29573e-05
0.000172835
2.63598e-05
0.000158155
2.93468e-05
0.000142278
3.17475e-05
0.000125446
3.36502e-05
0.000107882
3.51202e-05
8.9803e-05
3.61527e-05
7.14816e-05
3.6633e-05
5.30934e-05
3.67847e-05
3.47185e-05
3.67253e-05
1.66963e-05
3.60405e-05
-8.18638e-07
3.50269e-05
-1.77537e-05
3.38568e-05
-3.38329e-05
3.21494e-05
-4.89415e-05
3.02114e-05
-6.29674e-05
2.80444e-05
-7.57858e-05
2.56279e-05
-8.7305e-05
2.30319e-05
-9.74983e-05
2.0378e-05
-0.000106386
1.77653e-05
-0.000114021
1.52581e-05
-0.000120493
1.29339e-05
-0.000125805
1.06138e-05
-0.000130064
8.50087e-06
-0.00013341
6.66865e-06
-0.00013593
5.01966e-06
-0.000137652
3.45615e-06
-0.000138835
2.3907e-06
-0.000139429
1.19614e-06
-0.000139473
9.09823e-08
-0.000139017
-9.07211e-07
-0.000138062
-1.9031e-06
-0.000136746
-2.62577e-06
-0.000135241
-3.00536e-06
-0.000133382
-3.71455e-06
-0.000131245
-4.26797e-06
-0.000128683
-5.11991e-06
-0.000125608
-6.14798e-06
-0.000122003
-7.20633e-06
-0.000117718
-8.56604e-06
-0.000112705
-1.00231e-05
-0.00010696
-1.14887e-05
-0.000100285
-1.33451e-05
-9.27656e-05
-1.50374e-05
-8.43564e-05
-1.68168e-05
-7.47778e-05
-1.91516e-05
-6.44302e-05
-2.06768e-05
-5.28438e-05
-2.31967e-05
-4.02915e-05
-2.5088e-05
-2.67644e-05
-2.70782e-05
-1.22149e-05
-2.91174e-05
3.32498e-06
-3.10736e-05
1.95764e-05
-3.25013e-05
3.66802e-05
-3.41952e-05
5.43473e-05
-3.53193e-05
7.25426e-05
-3.63996e-05
9.10205e-05
-3.69527e-05
0.000109393
-3.67324e-05
0.000127574
-3.63475e-05
0.000145304
-3.54428e-05
0.000162204
-3.37892e-05
0.000178138
-3.18509e-05
0.000192821
-2.93553e-05
0.000206048
-2.64297e-05
0.000217581
-2.30511e-05
0.000227201
-1.92251e-05
0.000234827
-1.5239e-05
0.000240269
-1.08797e-05
0.00024351
-6.47638e-06
0.00024446
-1.89485e-06
0.000243126
2.65981e-06
0.000239578
7.09891e-06
0.00023394
1.1276e-05
0.000226188
1.54984e-05
0.000216558
1.92533e-05
0.00020531
2.24892e-05
0.000192373
2.58642e-05
0.000178187
2.83641e-05
0.000162875
3.06126e-05
0.000146609
3.25245e-05
0.000129651
3.39049e-05
0.00011226
3.47743e-05
9.45719e-05
3.53646e-05
7.68508e-05
3.54356e-05
5.91384e-05
3.54153e-05
4.1777e-05
3.47175e-05
2.47232e-05
3.40993e-05
8.30756e-06
3.2828e-05
-7.56985e-06
3.17496e-05
-2.27277e-05
3.03106e-05
-3.70637e-05
2.86678e-05
-5.05596e-05
2.69898e-05
-6.31436e-05
2.5164e-05
-7.47664e-05
2.32445e-05
-8.54269e-05
2.13201e-05
-9.51048e-05
1.93553e-05
-0.000103778
1.73474e-05
-0.000111473
1.53925e-05
-0.000118192
1.34396e-05
-0.000123954
1.15257e-05
-0.000128788
9.66709e-06
-0.000132713
7.85096e-06
-0.000135755
6.08495e-06
4.34691e-06
-2.81428e-05
-3.14601e-05
-1.63012e-05
-3.55333e-05
-3.30807e-06
-3.89927e-05
1.03979e-05
-4.11031e-05
2.5171e-05
-4.42942e-05
4.06408e-05
-4.63739e-05
5.69886e-05
-4.89993e-05
7.39123e-05
-5.07265e-05
9.11427e-05
-5.16439e-05
0.000108762
-5.28197e-05
0.000126562
-5.33391e-05
0.00014413
-5.26619e-05
0.000161473
-5.19626e-05
0.000178232
-5.02343e-05
0.000194276
-4.80745e-05
0.00020935
-4.51773e-05
0.000223086
-4.11659e-05
0.00023537
-3.67911e-05
0.000245922
-3.16459e-05
0.000254567
-2.59091e-05
0.000261215
-1.99106e-05
0.000265659
-1.33467e-05
0.000267888
-6.66083e-06
0.00026776
3.43537e-07
0.00026524
7.48783e-06
0.000260499
1.42127e-05
0.000253673
2.04482e-05
0.000244706
2.6879e-05
0.000233913
3.23328e-05
0.000221573
3.69791e-05
0.000207643
4.17336e-05
0.00019252
4.53488e-05
0.000176468
4.8091e-05
0.000159654
5.03884e-05
0.000142375
5.18113e-05
0.000124826
5.25918e-05
0.000107177
5.29141e-05
8.95716e-05
5.27752e-05
7.22899e-05
5.18342e-05
5.54867e-05
5.037e-05
3.91566e-05
4.89483e-05
2.34623e-05
4.70855e-05
8.59683e-06
4.45914e-05
-5.60169e-06
4.25736e-05
-1.89885e-05
4.01502e-05
-3.15627e-05
3.77135e-05
-4.32991e-05
3.52073e-05
-5.42019e-05
3.2708e-05
-6.4302e-05
3.03105e-05
-7.35985e-05
2.78936e-05
-8.21194e-05
2.55405e-05
-8.99096e-05
2.33836e-05
-9.69752e-05
2.11992e-05
-0.000103361
1.9164e-05
-0.000109061
1.7109e-05
-0.000114063
1.50273e-05
-0.000118464
1.32147e-05
-0.00012224
1.1327e-05
-0.000125352
9.3242e-06
-0.000127848
7.50302e-06
-0.00012967
5.47772e-06
-0.000130879
3.63033e-06
-0.000131472
1.74709e-06
-0.000131269
-6.19917e-07
-0.000130364
-2.71613e-06
-0.000128795
-4.72108e-06
-0.000126336
-7.37774e-06
-0.000123187
-9.43677e-06
-0.000119148
-1.21349e-05
-0.000114261
-1.46533e-05
-0.000108595
-1.69968e-05
-0.000102077
-1.95309e-05
-9.45936e-05
-2.24676e-05
-8.63661e-05
-2.4666e-05
-7.72112e-05
-2.74474e-05
-6.72676e-05
-2.98035e-05
-5.64901e-05
-3.23147e-05
-4.48709e-05
-3.48219e-05
-3.25008e-05
-3.70768e-05
-1.94371e-05
-3.91568e-05
-5.71014e-06
-4.11333e-05
8.73185e-06
-4.32741e-05
2.37893e-05
-4.51119e-05
3.94575e-05
-4.69461e-05
5.56698e-05
-4.85795e-05
7.23714e-05
-5.00567e-05
8.95269e-05
-5.1417e-05
0.000107076
-5.26208e-05
0.000124842
-5.3276e-05
0.00014274
-5.36614e-05
0.00016042
-5.3033e-05
0.000177601
-5.15143e-05
0.000193886
-4.88456e-05
0.000208827
-4.48232e-05
0.000222035
-3.96541e-05
0.000233228
-3.3539e-05
0.00024208
-2.65693e-05
0.00024838
-1.89226e-05
0.000252058
-1.10468e-05
0.000253079
-3.12295e-06
0.000251424
4.89583e-06
0.000247162
1.27585e-05
0.000240404
2.0254e-05
0.000231337
2.71438e-05
0.000220108
3.36679e-05
0.000206965
3.93631e-05
0.000192124
4.44855e-05
0.000175802
4.89521e-05
0.000158323
5.23714e-05
0.000139946
5.50781e-05
0.000120967
5.68931e-05
0.000101616
5.79563e-05
8.22234e-05
5.81178e-05
6.29977e-05
5.76169e-05
4.40893e-05
5.67306e-05
2.57471e-05
5.49871e-05
8.10878e-06
5.28627e-05
-8.72817e-06
5.0514e-05
-2.46757e-05
4.78202e-05
-3.96314e-05
4.48448e-05
-5.36032e-05
4.19007e-05
-6.65343e-05
3.87874e-05
-7.84142e-05
3.5641e-05
-8.92401e-05
3.25014e-05
-9.9132e-05
2.96573e-05
-0.000108005
2.65927e-05
-0.000115954
2.38694e-05
-0.000122969
2.10514e-05
-0.000129073
1.83989e-05
-0.000134416
1.58678e-05
-0.000138893
1.34782e-05
-0.000142595
1.1164e-05
-0.00014554
8.82061e-06
-0.00014773
6.5603e-06
-0.000149176
4.32496e-06
-0.000149936
2.23684e-06
-0.000150027
3.58026e-07
-0.000149436
-1.77041e-06
-0.00014819
-3.77197e-06
-0.000146287
-5.69525e-06
-0.000143666
-7.85802e-06
-0.000140435
-9.68025e-06
-0.000136488
-1.18607e-05
-0.000131826
-1.39363e-05
-0.000126519
-1.59668e-05
-0.000120422
-1.83281e-05
-0.000113444
-2.08466e-05
-0.000105745
-2.32021e-05
-9.71047e-05
-2.59296e-05
-8.74944e-05
-2.87285e-05
-7.70962e-05
-3.12749e-05
-6.57202e-05
-3.41304e-05
-5.34551e-05
-3.67716e-05
-4.03032e-05
-3.94584e-05
-2.62283e-05
-4.22609e-05
-1.14233e-05
-4.43578e-05
4.23437e-06
-4.69421e-05
2.05569e-05
-4.89372e-05
3.75128e-05
-5.08656e-05
5.48966e-05
-5.21088e-05
7.25975e-05
-5.30527e-05
9.04496e-05
-5.35184e-05
0.000108208
-5.32082e-05
0.000125672
-5.2306e-05
0.000142545
-5.05679e-05
0.000158634
-4.81907e-05
0.000173628
-4.49221e-05
0.000187292
-4.09252e-05
0.00019937
-3.62156e-05
0.000209618
-3.07045e-05
0.000217872
-2.46465e-05
0.000223831
-1.7892e-05
0.000227436
-1.07846e-05
0.000228581
-3.42866e-06
0.000227219
4.00473e-06
0.000223348
1.15693e-05
0.000217023
1.89416e-05
0.000208342
2.60489e-05
0.000197503
3.2495e-05
0.0001847
3.83885e-05
0.000170178
4.34728e-05
0.000154283
4.76513e-05
0.000137262
5.09902e-05
0.000119446
5.33559e-05
0.000101154
5.4849e-05
8.26596e-05
5.54238e-05
6.41965e-05
5.53501e-05
4.59431e-05
5.47079e-05
2.80749e-05
5.35713e-05
1.07681e-05
5.18725e-05
-5.87196e-06
4.99175e-05
-2.18297e-05
4.7845e-05
-3.69463e-05
4.53249e-05
-5.11507e-05
4.26015e-05
-6.44121e-05
3.97908e-05
-7.67964e-05
3.71484e-05
-8.81314e-05
3.40143e-05
-9.85543e-05
3.12748e-05
-0.000108017
2.83446e-05
-0.000116533
2.55643e-05
-0.000124147
2.28602e-05
-0.000130873
2.01819e-05
-0.000136745
1.7604e-05
-0.00014178
1.51062e-05
-0.000146037
1.27923e-05
-0.000149563
1.05791e-05
-0.000152346
8.3309e-06
-0.000154411
6.2053e-06
-0.000155862
4.35347e-06
-0.000156704
2.51246e-06
-0.000156857
4.85497e-07
-0.000156349
-1.47083e-06
-0.000155304
-3.14379e-06
-0.00015361
-5.03023e-06
-0.00015137
-6.83287e-06
-0.000148478
-8.77205e-06
-0.000144956
-1.04576e-05
-0.000140762
-1.25987e-05
-0.000135897
-1.4617e-05
-0.000130316
-1.67342e-05
-0.000124015
-1.89129e-05
-0.000116909
-2.13494e-05
-0.000109094
-2.34005e-05
-0.000100381
-2.616e-05
-9.07673e-05
-2.89578e-05
-8.02333e-05
-3.15161e-05
-6.86677e-05
-3.46913e-05
-5.61931e-05
-3.74e-05
-4.26909e-05
-4.0508e-05
-2.82906e-05
-4.31901e-05
-1.29108e-05
-4.60959e-05
3.14456e-06
-4.81699e-05
1.99195e-05
-5.026e-05
3.72988e-05
-5.21366e-05
5.51249e-05
-5.34284e-05
7.32022e-05
-5.41919e-05
9.13343e-05
-5.43285e-05
0.000109291
-5.38195e-05
0.00012682
-5.25101e-05
0.000143669
-5.05133e-05
0.000159566
-4.75966e-05
0.000174224
-4.39252e-05
0.00018736
-3.93333e-05
0.000198713
-3.40097e-05
0.0002081
-2.8089e-05
0.000215221
-2.13588e-05
0.000220021
-1.43854e-05
0.000222375
-7.02815e-06
0.00022225
3.35385e-07
0.000219621
7.82057e-06
0.000214561
1.51794e-05
0.00020717
2.21439e-05
0.000197576
2.87257e-05
0.000186069
3.44648e-05
0.000172875
3.9553e-05
0.000158181
4.40412e-05
0.000142288
4.76405e-05
0.000125429
5.05093e-05
0.000107856
5.26926e-05
8.97772e-05
5.42316e-05
7.14339e-05
5.49762e-05
5.30365e-05
5.51821e-05
3.46508e-05
5.5111e-05
1.66273e-05
5.4064e-05
-8.79104e-07
5.25332e-05
-1.7821e-05
5.07987e-05
-3.38945e-05
4.82229e-05
-4.9e-05
4.53169e-05
-6.30236e-05
4.2068e-05
-7.58488e-05
3.84532e-05
-8.73745e-05
3.45576e-05
-9.75751e-05
3.05787e-05
-0.000106472
2.66618e-05
-0.000114129
2.29158e-05
-0.000120621
1.94261e-05
-0.000125953
1.59457e-05
-0.00013024
1.27876e-05
-0.000133621
1.00502e-05
-0.000136199
7.59775e-06
-0.000137958
5.2152e-06
-0.000139089
3.5215e-06
-0.000139619
1.72638e-06
-0.000139637
1.0868e-07
-0.000139175
-1.36917e-06
-0.000138212
-2.86606e-06
-0.000136883
-3.95455e-06
-0.000135371
-4.51808e-06
-0.000133505
-5.58029e-06
-0.000131363
-6.40989e-06
-0.000128797
-7.68626e-06
-0.000125716
-9.22864e-06
-0.000122106
-1.0816e-05
-0.000117816
-1.2856e-05
-0.0001128
-1.50392e-05
-0.000107052
-1.72371e-05
-0.000100372
-2.00253e-05
-9.28567e-05
-2.25527e-05
-8.44401e-05
-2.52335e-05
-7.48542e-05
-2.87376e-05
-6.44931e-05
-3.1038e-05
-5.29338e-05
-3.47561e-05
-4.03577e-05
-3.76641e-05
-2.68624e-05
-4.05737e-05
-1.23401e-05
-4.36397e-05
3.19835e-06
-4.66121e-05
1.94464e-05
-4.87495e-05
3.65514e-05
-5.13003e-05
5.42239e-05
-5.29919e-05
7.24505e-05
-5.46263e-05
9.09527e-05
-5.5455e-05
0.000109341
-5.51208e-05
0.000127543
-5.45493e-05
0.000145298
-5.31978e-05
0.000162219
-5.07108e-05
0.000178182
-4.78141e-05
0.000192884
-4.40574e-05
0.000206126
-3.96719e-05
0.000217679
-3.46038e-05
0.000227311
-2.88574e-05
0.000234956
-2.28839e-05
0.000240416
-1.63406e-05
0.00024367
-9.7306e-06
0.000244635
-2.85974e-06
0.000243279
4.01642e-06
0.000239735
1.0642e-05
0.000234097
1.69139e-05
0.000226336
2.32593e-05
0.000216693
2.88965e-05
0.000205431
3.37515e-05
0.000192476
3.88186e-05
0.000178275
4.25652e-05
0.000162945
4.59429e-05
0.000146663
4.88058e-05
0.000129687
5.08807e-05
0.000112282
5.21796e-05
9.4577e-05
5.30698e-05
7.68451e-05
5.31675e-05
5.91178e-05
5.31426e-05
4.17483e-05
5.2087e-05
2.46818e-05
5.11657e-05
8.26172e-06
4.92481e-05
-7.63046e-06
4.76417e-05
-2.27949e-05
4.54749e-05
-3.71364e-05
4.30093e-05
-5.06367e-05
4.04901e-05
-6.32224e-05
3.77497e-05
-7.48473e-05
3.48694e-05
-8.55076e-05
3.19804e-05
-9.5184e-05
2.90316e-05
-0.000103856
2.60196e-05
-0.00011155
2.30865e-05
-0.000118268
2.01571e-05
-0.000124026
1.72842e-05
-0.000128858
1.44985e-05
-0.000132782
1.17754e-05
-0.000135826
9.12914e-06
6.51197e-06
-2.82428e-05
-4.19574e-05
-1.64067e-05
-4.73696e-05
-3.42068e-06
-5.19788e-05
1.02967e-05
-5.48206e-05
2.5088e-05
-5.90856e-05
4.05811e-05
-6.18672e-05
5.69541e-05
-6.53725e-05
7.39067e-05
-6.76792e-05
9.11703e-05
-6.89077e-05
0.00010882
-7.04691e-05
0.000126649
-7.11692e-05
0.000144246
-7.02586e-05
0.00016162
-6.9337e-05
0.00017841
-6.70237e-05
0.000194481
-6.41462e-05
0.000209579
-6.02754e-05
0.000223344
-5.49311e-05
0.000235653
-4.90999e-05
0.000246221
-4.22142e-05
0.000254882
-3.45703e-05
0.00026154
-2.65682e-05
0.000265985
-1.77919e-05
0.000268212
-8.88846e-06
0.000268051
5.04706e-07
0.000265497
1.00416e-05
0.000260752
1.89577e-05
0.000253904
2.72958e-05
0.000244925
3.58582e-05
0.000234108
4.31502e-05
0.000221743
4.93436e-05
0.000207781
5.56954e-05
0.000192648
6.04815e-05
0.000176557
6.41829e-05
0.000159712
6.72333e-05
0.000142419
6.91039e-05
0.000124835
7.01758e-05
0.000107157
7.05924e-05
8.95392e-05
7.03926e-05
7.22549e-05
6.91185e-05
5.54253e-05
6.71995e-05
3.90725e-05
6.53011e-05
2.33809e-05
6.27771e-05
8.51131e-06
5.94609e-05
-5.70177e-06
5.67867e-05
-1.90935e-05
5.3542e-05
-3.16716e-05
5.02916e-05
-4.34072e-05
4.69429e-05
-5.4311e-05
4.36118e-05
-6.44065e-05
4.04059e-05
-7.36995e-05
3.71866e-05
-8.22358e-05
3.40768e-05
-9.00072e-05
3.11549e-05
-9.70705e-05
2.82625e-05
-0.000103449
2.55429e-05
-0.000109121
2.27809e-05
-0.000114131
2.00372e-05
-0.000118527
1.76105e-05
-0.000122297
1.50975e-05
-0.000125406
1.24325e-05
-0.000127897
9.99438e-06
-0.000129719
7.29947e-06
-0.000130928
4.83949e-06
-0.000131538
2.35668e-06
-0.000131342
-8.15852e-07
-0.000130443
-3.61527e-06
-0.000128878
-6.28581e-06
-0.000126418
-9.83729e-06
-0.000123268
-1.25869e-05
-0.000119237
-1.61666e-05
-0.000114345
-1.95454e-05
-0.000108678
-2.26631e-05
-0.000102152
-2.60577e-05
-9.46759e-05
-2.99434e-05
-8.64379e-05
-3.29041e-05
-7.72716e-05
-3.66137e-05
-6.73174e-05
-3.97578e-05
-5.65342e-05
-4.30981e-05
-4.4893e-05
-4.64632e-05
-3.25013e-05
-4.94685e-05
-1.94209e-05
-5.22374e-05
-5.66649e-06
-5.48879e-05
8.80493e-06
-5.77457e-05
2.38869e-05
-6.01939e-05
3.95902e-05
-6.26496e-05
5.58309e-05
-6.48203e-05
7.25605e-05
-6.67864e-05
8.97465e-05
-6.86031e-05
0.000107306
-7.01802e-05
0.000125085
-7.1055e-05
0.000143
-7.15767e-05
0.000160692
-7.07248e-05
0.000177894
-6.87165e-05
0.000194189
-6.51398e-05
0.000209126
-5.97605e-05
0.000222318
-5.28458e-05
0.000233519
-4.47408e-05
0.000242368
-3.54177e-05
0.000248658
-2.52129e-05
0.000252336
-1.47248e-05
0.000253335
-4.12148e-06
0.000251621
6.60925e-06
0.000247341
1.70383e-05
0.000240563
2.70325e-05
0.000231464
3.62427e-05
0.000220222
4.49097e-05
0.000207056
5.25295e-05
0.000192173
5.93682e-05