/*--------------------------------*- C++ -*----------------------------------*\
| =========                 |                                                 |
| \\      /  F ield         | OpenFOAM: The Open Source CFD Toolbox           |
|  \\    /   O peration     | Version:  3.0.1                                 |
|   \\  /    A nd           | Web:      www.OpenFOAM.org                      |
|    \\/     M anipulation  |                                                 |
\*---------------------------------------------------------------------------*/
FoamFile
{
    version     2.0;
    format      ascii;
    class       volVectorField;
    location    "37.2";
    object      U;
}
// * * * * * * * * * * * * * * * * * * * * * * * * * * * * * * * * * * * * * //

dimensions      [0 1 -1 0 0 0 0];

internalField   nonuniform List<vector> 
21420
(
(-0.038089 -0.00109481 0)
(-0.0281895 -0.00119115 0)
(-0.0152982 -0.00127282 0)
(-0.0018997 -0.0013737 0)
(0.0118438 -0.00146395 0)
(0.0268619 -0.00153277 0)
(0.0426855 -0.00161826 0)
(0.0591929 -0.00166997 0)
(0.0762488 -0.00170664 0)
(0.0937164 -0.00175876 0)
(0.111439 -0.00176352 0)
(0.129221 -0.00174725 0)
(0.146861 -0.00174297 0)
(0.164139 -0.00168394 0)
(0.180823 -0.00163114 0)
(0.196675 -0.00152607 0)
(0.211447 -0.00139835 0)
(0.224899 -0.00126788 0)
(0.236816 -0.00109915 0)
(0.246991 -0.000914089 0)
(0.255245 -0.000719091 0)
(0.261434 -0.00050658 0)
(0.265474 -0.000286066 0)
(0.267253 -6.15943e-05 0)
(0.266829 0.000162422 0)
(0.264043 0.000387429 0)
(0.259006 0.000605395 0)
(0.251869 0.000815888 0)
(0.242743 0.000994289 0)
(0.231805 0.00117053 0)
(0.219235 0.0013331 0)
(0.205245 0.00144465 0)
(0.190072 0.00156059 0)
(0.173952 0.00162305 0)
(0.157129 0.00169092 0)
(0.139819 0.00173955 0)
(0.122233 0.00173697 0)
(0.104584 0.00174189 0)
(0.0870389 0.00172964 0)
(0.0697416 0.00167944 0)
(0.0528816 0.00163833 0)
(0.0365544 0.00156961 0)
(0.0207382 0.00150034 0)
(0.00605248 0.00143693 0)
(-0.00761429 0.00135317 0)
(-0.0207809 0.00127691 0)
(-0.0331898 0.00119777 0)
(-0.0448025 0.00111311 0)
(-0.0556174 0.00103498 0)
(-0.0656457 0.000957191 0)
(-0.0749051 0.000878475 0)
(-0.0834199 0.000806297 0)
(-0.0912228 0.000733192 0)
(-0.0983404 0.000665092 0)
(-0.104781 0.000597125 0)
(-0.110564 0.000529188 0)
(-0.115702 0.000466785 0)
(-0.120178 0.000402574 0)
(-0.123995 0.000336691 0)
(-0.127178 0.000275638 0)
(-0.129714 0.000207232 0)
(-0.131618 0.000144324 0)
(-0.132884 7.82457e-05 0)
(-0.133474 7.74394e-06 0)
(-0.133327 -5.62042e-05 0)
(-0.132428 -0.000120157 0)
(-0.13069 -0.00020253 0)
(-0.128208 -0.000266987 0)
(-0.124865 -0.000352845 0)
(-0.1206 -0.000432323 0)
(-0.115604 -0.000507282 0)
(-0.109695 -0.000587595 0)
(-0.102783 -0.000681941 0)
(-0.0951092 -0.000747861 0)
(-0.0865623 -0.000839381 0)
(-0.0770755 -0.000913825 0)
(-0.0668309 -0.000995325 0)
(-0.0557006 -0.00107577 0)
(-0.043719 -0.00114991 0)
(-0.0309177 -0.00122226 0)
(-0.017342 -0.00128584 0)
(-0.0040541 -0.00135937 0)
(0.0093297 -0.00142571 0)
(0.0240124 -0.00149267 0)
(0.0395634 -0.00155364 0)
(0.0557539 -0.00161154 0)
(0.0726988 -0.0016682 0)
(0.0901694 -0.0017195 0)
(0.108172 -0.00175109 0)
(0.126518 -0.00177286 0)
(0.144866 -0.00176817 0)
(0.163062 -0.00172853 0)
(0.180532 -0.00164683 0)
(0.196872 -0.00152186 0)
(0.211734 -0.00136406 0)
(0.224739 -0.00116127 0)
(0.235469 -0.000937046 0)
(0.243776 -0.000690454 0)
(0.249491 -0.000433717 0)
(0.252514 -0.000175194 0)
(0.252883 9.2004e-05 0)
(0.250651 0.000351642 0)
(0.245733 0.000602214 0)
(0.238449 0.00083643 0)
(0.228914 0.00105912 0)
(0.21725 0.00124708 0)
(0.203713 0.00142682 0)
(0.188566 0.00158395 0)
(0.172017 0.00170241 0)
(0.154353 0.00179892 0)
(0.135865 0.00186931 0)
(0.116824 0.00190864 0)
(0.0975002 0.00192006 0)
(0.0781309 0.00191112 0)
(0.0589964 0.00189066 0)
(0.0402518 0.00183669 0)
(0.0220642 0.00177025 0)
(0.00461256 0.0016929 0)
(-0.012021 0.00160983 0)
(-0.027742 0.0015125 0)
(-0.0425006 0.00141648 0)
(-0.0562364 0.00131478 0)
(-0.068975 0.00120986 0)
(-0.0806899 0.0011036 0)
(-0.0913237 0.00101342 0)
(-0.100986 0.000910209 0)
(-0.109665 0.000818429 0)
(-0.117417 0.000719417 0)
(-0.124295 0.00063569 0)
(-0.130276 0.000547507 0)
(-0.135405 0.000468375 0)
(-0.139709 0.000394501 0)
(-0.143246 0.000312805 0)
(-0.146018 0.000235893 0)
(-0.148043 0.000164348 0)
(-0.149346 9.06584e-05 0)
(-0.14997 3.47833e-05 0)
(-0.149897 -3.75395e-05 0)
(-0.149195 -0.000107879 0)
(-0.147792 -0.000168936 0)
(-0.14575 -0.000238123 0)
(-0.14301 -0.00030101 0)
(-0.139547 -0.000373335 0)
(-0.135519 -0.000435677 0)
(-0.130718 -0.0005081 0)
(-0.125169 -0.00058523 0)
(-0.118901 -0.000666661 0)
(-0.111739 -0.000747624 0)
(-0.103748 -0.000831576 0)
(-0.0949412 -0.000921971 0)
(-0.0851571 -0.00101159 0)
(-0.0744502 -0.00110616 0)
(-0.062888 -0.00118696 0)
(-0.0504179 -0.00128076 0)
(-0.0371032 -0.00137741 0)
(-0.0228658 -0.00144285 0)
(-0.00776557 -0.00153241 0)
(0.00806574 -0.00159893 0)
(0.0245501 -0.00167089 0)
(0.0416096 -0.00171102 0)
(0.0590891 -0.00174973 0)
(0.076824 -0.00176748 0)
(0.0946542 -0.00176341 0)
(0.112318 -0.00174129 0)
(0.129615 -0.00168585 0)
(0.146291 -0.00161665 0)
(0.162109 -0.0015192 0)
(0.176791 -0.00138737 0)
(0.190062 -0.00124706 0)
(0.201763 -0.00106368 0)
(0.211563 -0.000870527 0)
(0.219284 -0.000653229 0)
(0.224724 -0.000422799 0)
(0.227772 -0.000180952 0)
(0.228347 5.80638e-05 0)
(0.226477 0.000310886 0)
(0.221987 0.000559356 0)
(0.215155 0.000797553 0)
(0.206012 0.00101888 0)
(0.194699 0.00121773 0)
(0.181541 0.00139135 0)
(0.166743 0.00154222 0)
(0.150586 0.00166028 0)
(0.133438 0.00174347 0)
(0.11556 0.0018021 0)
(0.0972585 0.00182795 0)
(0.078797 0.00183499 0)
(0.0603707 0.00181804 0)
(0.042226 0.00178427 0)
(0.0244868 0.0017311 0)
(0.0072808 0.00167595 0)
(-0.00922374 0.00160742 0)
(-0.02499 0.00152561 0)
(-0.039949 0.00143919 0)
(-0.0540095 0.00134634 0)
(-0.0671092 0.00125984 0)
(-0.0792642 0.00115345 0)
(-0.0904584 0.00106215 0)
(-0.100656 0.000967047 0)
(-0.109918 0.000874222 0)
(-0.118267 0.000783094 0)
(-0.125696 0.000689731 0)
(-0.132221 0.000602523 0)
(-0.137891 0.000521391 0)
(-0.14276 0.000443491 0)
(-0.146851 0.00037131 0)
(-0.150211 0.000290387 0)
(-0.152871 0.00022438 0)
(-0.15482 0.000162856 0)
(-0.156071 9.83727e-05 0)
(-0.156718 3.17514e-05 0)
(-0.156766 -2.78981e-05 0)
(-0.156148 -8.95971e-05 0)
(-0.154941 -0.000144162 0)
(-0.153138 -0.000214283 0)
(-0.150728 -0.00027382 0)
(-0.14767 -0.000322969 0)
(-0.143958 -0.000398498 0)
(-0.139647 -0.000465652 0)
(-0.134592 -0.000534608 0)
(-0.128817 -0.000602803 0)
(-0.122367 -0.00068521 0)
(-0.11511 -0.000748559 0)
(-0.107032 -0.00084334 0)
(-0.0981469 -0.000937004 0)
(-0.0882727 -0.00102028 0)
(-0.0773985 -0.00112246 0)
(-0.0656359 -0.00121156 0)
(-0.0528704 -0.00131701 0)
(-0.0391154 -0.00140689 0)
(-0.0245215 -0.00150112 0)
(-0.00899701 -0.00157361 0)
(0.00737331 -0.00164351 0)
(0.0243163 -0.0017105 0)
(0.0417845 -0.0017607 0)
(0.0596611 -0.0017874 0)
(0.0777388 -0.00179707 0)
(0.0958052 -0.00178381 0)
(0.113624 -0.00174813 0)
(0.130946 -0.00169252 0)
(0.147561 -0.00159562 0)
(0.163125 -0.00148875 0)
(0.177399 -0.00133821 0)
(0.190081 -0.00117296 0)
(0.200952 -0.000977619 0)
(0.209772 -0.000766112 0)
(0.216368 -0.000538822 0)
(0.220588 -0.00029835 0)
(0.222327 -5.41431e-05 0)
(0.221695 0.000190504 0)
(0.21846 0.000437397 0)
(0.212824 0.000670567 0)
(0.204963 0.000892951 0)
(0.194979 0.00108585 0)
(0.183096 0.00126209 0)
(0.169588 0.00141806 0)
(0.154654 0.00154655 0)
(0.138546 0.00164761 0)
(0.121545 0.00172879 0)
(0.103817 0.00178778 0)
(0.0856235 0.00181823 0)
(0.0672079 0.00182997 0)
(0.0487923 0.00182998 0)
(0.0305138 0.00180094 0)
(0.0125663 0.00175345 0)
(-0.00469436 0.00169656 0)
(-0.0211279 0.00161389 0)
(-0.0366734 0.00151597 0)
(-0.051158 0.00140707 0)
(-0.0644571 0.00128707 0)
(-0.0764413 0.00115632 0)
(-0.0870614 0.00102448 0)
(-0.0963585 0.000894882 0)
(-0.104296 0.000773541 0)
(-0.111063 0.000660027 0)
(-0.116696 0.000550281 0)
(-0.121137 0.000448157 0)
(-0.124699 0.000359467 0)
(-0.12747 0.000279004 0)
(-0.129396 0.000201322 0)
(-0.130727 0.000145809 0)
(-0.131432 8.30263e-05 0)
(-0.131556 2.55782e-05 0)
(-0.131435 -1.35432e-05 0)
(-0.130998 -5.67415e-05 0)
(-0.130058 -8.66544e-05 0)
(-0.129087 -0.000103524 0)
(-0.127872 -0.000132391 0)
(-0.126388 -0.000157559 0)
(-0.124725 -0.000195901 0)
(-0.122521 -0.00024196 0)
(-0.119948 -0.000291036 0)
(-0.116795 -0.000354836 0)
(-0.11292 -0.000424484 0)
(-0.108402 -0.000496765 0)
(-0.103058 -0.00058404 0)
(-0.096768 -0.000672314 0)
(-0.0895824 -0.000757905 0)
(-0.0813493 -0.000872802 0)
(-0.0720687 -0.000956863 0)
(-0.0615751 -0.00108479 0)
(-0.0499555 -0.00118163 0)
(-0.0373602 -0.001289 0)
(-0.0237049 -0.00140715 0)
(-0.00905923 -0.00150487 0)
(0.00653983 -0.00158691 0)
(0.0230203 -0.00168752 0)
(0.0402881 -0.00174451 0)
(0.0581713 -0.00181416 0)
(0.0764901 -0.00183624 0)
(0.0949883 -0.00183004 0)
(0.113432 -0.00182867 0)
(0.131584 -0.00177929 0)
(0.149172 -0.00170024 0)
(0.165927 -0.00161861 0)
(0.181608 -0.00149318 0)
(0.195969 -0.00135936 0)
(0.208792 -0.00119208 0)
(0.219877 -0.00100762 0)
(0.229057 -0.000812919 0)
(0.236179 -0.000602862 0)
(0.241177 -0.000384731 0)
(0.24397 -0.000158343 0)
(0.2445 5.53174e-05 0)
(0.242871 0.000274374 0)
(0.238914 0.000491912 0)
(0.232895 0.000699836 0)
(0.224871 0.000883095 0)
(0.214997 0.00106379 0)
(0.203425 0.00123267 0)
(0.190336 0.00135839 0)
(0.175948 0.00148582 0)
(0.160464 0.00159588 0)
(0.144095 0.00165413 0)
(0.127067 0.0017201 0)
(0.10959 0.00173567 0)
(0.0918694 0.00176112 0)
(0.0740851 0.00176876 0)
(0.0564055 0.00173208 0)
(0.0389715 0.00170732 0)
(0.021785 0.00166645 0)
(0.00538356 0.00159302 0)
(-0.0101483 0.00153128 0)
(-0.0251008 0.00144365 0)
(-0.0392886 0.00136669 0)
(-0.05262 0.00128237 0)
(-0.0650367 0.00118208 0)
(-0.0765016 0.00109001 0)
(-0.08699 0.000994545 0)
(-0.0964873 0.000891809 0)
(-0.10499 0.000795188 0)
(-0.112504 0.00069515 0)
(-0.119039 0.000600375 0)
(-0.124615 0.000506771 0)
(-0.129251 0.000414087 0)
(-0.132975 0.000325268 0)
(-0.136091 0.000238475 0)
(-0.0381244 -0.00328443 0)
(-0.0282252 -0.00357356 0)
(-0.0153375 -0.00381895 0)
(-0.00193707 -0.00412092 0)
(0.0118119 -0.00439189 0)
(0.0268319 -0.00459853 0)
(0.0426581 -0.00485516 0)
(0.0591701 -0.00501036 0)
(0.0762315 -0.00512051 0)
(0.0937051 -0.00527696 0)
(0.111435 -0.00529132 0)
(0.129225 -0.00524258 0)
(0.146873 -0.00522984 0)
(0.164161 -0.00505278 0)
(0.180855 -0.00489445 0)
(0.196716 -0.00457917 0)
(0.211496 -0.00419597 0)
(0.224959 -0.00380457 0)
(0.236883 -0.0032983 0)
(0.247065 -0.00274307 0)
(0.255326 -0.00215769 0)
(0.261519 -0.00152001 0)
(0.265561 -0.000858225 0)
(0.267349 -0.000185736 0)
(0.266922 0.000487228 0)
(0.264126 0.00116246 0)
(0.25909 0.00181633 0)
(0.25195 0.00244811 0)
(0.242817 0.00298352 0)
(0.231872 0.00351231 0)
(0.219294 0.00400014 0)
(0.205295 0.0043348 0)
(0.190113 0.00468266 0)
(0.173985 0.00487006 0)
(0.157153 0.00507363 0)
(0.139835 0.00521951 0)
(0.122241 0.0052117 0)
(0.104585 0.00522636 0)
(0.0870333 0.00518954 0)
(0.0697311 0.00503886 0)
(0.0528666 0.0049156 0)
(0.0365343 0.00470921 0)
(0.020716 0.00450129 0)
(0.00602956 0.00431102 0)
(-0.00763949 0.00405971 0)
(-0.0208073 0.00383094 0)
(-0.0332168 0.00359354 0)
(-0.0448294 0.00333954 0)
(-0.0556444 0.00310496 0)
(-0.0656724 0.00287169 0)
(-0.0749311 0.00263587 0)
(-0.0834459 0.00241899 0)
(-0.0912485 0.00219994 0)
(-0.0983664 0.00199522 0)
(-0.104807 0.00179135 0)
(-0.110591 0.0015873 0)
(-0.115729 0.00139989 0)
(-0.120207 0.00120885 0)
(-0.124028 0.00101012 0)
(-0.127211 0.00082682 0)
(-0.129749 0.000621767 0)
(-0.131658 0.000432454 0)
(-0.132926 0.000236221 0)
(-0.133517 2.3286e-05 0)
(-0.133372 -0.000168974 0)
(-0.132475 -0.000358796 0)
(-0.13074 -0.00060613 0)
(-0.128262 -0.000803339 0)
(-0.12492 -0.00105991 0)
(-0.120652 -0.00129598 0)
(-0.115655 -0.00152048 0)
(-0.109748 -0.00176196 0)
(-0.102832 -0.00204151 0)
(-0.0951613 -0.00225192 0)
(-0.0866047 -0.00251491 0)
(-0.0771125 -0.00274198 0)
(-0.0668595 -0.00298562 0)
(-0.0557237 -0.00322882 0)
(-0.0437325 -0.00345223 0)
(-0.0309203 -0.00365869 0)
(-0.0173348 -0.00386298 0)
(-0.00403361 -0.00407712 0)
(0.00936202 -0.00427466 0)
(0.0240606 -0.00447778 0)
(0.0396215 -0.00466569 0)
(0.0558289 -0.00484085 0)
(0.0727785 -0.00500749 0)
(0.0902507 -0.00516322 0)
(0.108263 -0.00525468 0)
(0.126603 -0.00533776 0)
(0.144971 -0.00530785 0)
(0.163165 -0.00518305 0)
(0.180646 -0.00494206 0)
(0.196982 -0.00456607 0)
(0.21185 -0.00408263 0)
(0.224847 -0.00349677 0)
(0.235583 -0.00282189 0)
(0.243897 -0.00207376 0)
(0.249615 -0.00129784 0)
(0.252632 -0.000511954 0)
(0.252995 0.000259897 0)
(0.250743 0.00105159 0)
(0.245833 0.00181692 0)
(0.238539 0.00250156 0)
(0.229005 0.003168 0)
(0.217343 0.00375167 0)
(0.20379 0.00428029 0)
(0.188632 0.00474387 0)
(0.172079 0.00510621 0)
(0.154402 0.00539837 0)
(0.135888 0.00559792 0)
(0.11684 0.00572681 0)
(0.0975081 0.00576957 0)
(0.078123 0.00573686 0)
(0.0589811 0.00566843 0)
(0.0402211 0.00550884 0)
(0.0220303 0.00530954 0)
(0.00457651 0.00509377 0)
(-0.0120754 0.00482501 0)
(-0.0277998 0.00453869 0)
(-0.0425722 0.00424956 0)
(-0.0563156 0.00394271 0)
(-0.0690486 0.00363116 0)
(-0.0807627 0.00331944 0)
(-0.091414 0.00302742 0)
(-0.101074 0.00272274 0)
(-0.109751 0.00245369 0)
(-0.117503 0.00217437 0)
(-0.124393 0.00190549 0)
(-0.130373 0.00163214 0)
(-0.135491 0.0014153 0)
(-0.139808 0.00118036 0)
(-0.143342 0.000938724 0)
(-0.146116 0.000715318 0)
(-0.148155 0.000487158 0)
(-0.149454 0.000279496 0)
(-0.150071 9.977e-05 0)
(-0.150006 -0.00011803 0)
(-0.149291 -0.000319301 0)
(-0.147892 -0.00050408 0)
(-0.145872 -0.000723712 0)
(-0.143119 -0.000901554 0)
(-0.139657 -0.00111628 0)
(-0.135637 -0.00132036 0)
(-0.130832 -0.0015264 0)
(-0.12527 -0.00175537 0)
(-0.119009 -0.00199187 0)
(-0.111864 -0.00223995 0)
(-0.103873 -0.00250457 0)
(-0.0950601 -0.00276984 0)
(-0.0852762 -0.00303493 0)
(-0.0745613 -0.00331037 0)
(-0.0630092 -0.00357835 0)
(-0.0505255 -0.0038421 0)
(-0.0371985 -0.00412062 0)
(-0.022973 -0.00433842 0)
(-0.00786325 -0.00459774 0)
(0.00796884 -0.00480553 0)
(0.024461 -0.0050081 0)
(0.0415243 -0.00514106 0)
(0.0590159 -0.0052461 0)
(0.0767555 -0.00531478 0)
(0.094605 -0.00528935 0)
(0.112291 -0.0052219 0)
(0.129587 -0.00507548 0)
(0.146295 -0.00485181 0)
(0.16213 -0.00455391 0)
(0.176809 -0.00417954 0)
(0.190112 -0.0037299 0)
(0.2018 -0.00321058 0)
(0.211636 -0.00261381 0)
(0.219349 -0.00196767 0)
(0.224819 -0.00126949 0)
(0.227865 -0.00054599 0)
(0.22846 0.00018249 0)
(0.226563 0.000928508 0)
(0.222082 0.00167781 0)
(0.215251 0.00239962 0)
(0.2061 0.00305074 0)
(0.194786 0.00365394 0)
(0.181616 0.00417754 0)
(0.1668 0.00461909 0)
(0.150632 0.00497178 0)
(0.13348 0.00523358 0)
(0.115587 0.00540958 0)
(0.097268 0.00548754 0)
(0.0787913 0.00549817 0)
(0.0603627 0.00545448 0)
(0.042211 0.00536157 0)
(0.0244545 0.00520622 0)
(0.00723545 0.00502118 0)
(-0.00926927 0.00482267 0)
(-0.0250428 0.0045811 0)
(-0.0400151 0.00431472 0)
(-0.0540746 0.00404097 0)
(-0.0671791 0.00377606 0)
(-0.0793316 0.00346557 0)
(-0.0905375 0.00319141 0)
(-0.100749 0.00289195 0)
(-0.110014 0.00261782 0)
(-0.118358 0.00234724 0)
(-0.125777 0.00207817 0)
(-0.132305 0.00181714 0)
(-0.137987 0.00156575 0)
(-0.142859 0.00133444 0)
(-0.146946 0.00110348 0)
(-0.150301 0.00088496 0)
(-0.152973 0.000668116 0)
(-0.154925 0.000481353 0)
(-0.156177 0.000299395 0)
(-0.156817 0.000100362 0)
(-0.156872 -9.16765e-05 0)
(-0.156246 -0.000264649 0)
(-0.155042 -0.000447424 0)
(-0.153236 -0.000628741 0)
(-0.150835 -0.000821846 0)
(-0.147784 -0.00098062 0)
(-0.144059 -0.0011933 0)
(-0.139748 -0.00138945 0)
(-0.134695 -0.00159675 0)
(-0.128934 -0.001819 0)
(-0.122473 -0.00205699 0)
(-0.115217 -0.00225229 0)
(-0.107146 -0.00252762 0)
(-0.0982574 -0.00280935 0)
(-0.0883842 -0.00305172 0)
(-0.0775229 -0.00337422 0)
(-0.0657521 -0.00364409 0)
(-0.0529763 -0.00395117 0)
(-0.0392214 -0.00421853 0)
(-0.0246283 -0.00451271 0)
(-0.00908855 -0.00472341 0)
(0.00727052 -0.00494147 0)
(0.0242255 -0.00513405 0)
(0.0417102 -0.00527026 0)
(0.0595935 -0.00536306 0)
(0.0776856 -0.00538948 0)
(0.095761 -0.00536261 0)
(0.113598 -0.00524293 0)
(0.130939 -0.00507213 0)
(0.147551 -0.00480287 0)
(0.163152 -0.00445652 0)
(0.177426 -0.00402928 0)
(0.190129 -0.00351513 0)
(0.201001 -0.00294861 0)
(0.209845 -0.00229983 0)
(0.21646 -0.00161325 0)
(0.220682 -0.000889828 0)
(0.222423 -0.000172839 0)
(0.221782 0.000564832 0)
(0.218551 0.0013091 0)
(0.212914 0.00201083 0)
(0.20505 0.00267454 0)
(0.195061 0.00326442 0)
(0.183163 0.00379025 0)
(0.169651 0.00425495 0)
(0.154709 0.00463604 0)
(0.138591 0.00494267 0)
(0.12158 0.00518467 0)
(0.103841 0.00536124 0)
(0.0856423 0.00545008 0)
(0.0672222 0.00549263 0)
(0.0487923 0.00549557 0)
(0.0305076 0.0054053 0)
(0.0125621 0.0052607 0)
(-0.00470521 0.00509632 0)
(-0.0211544 0.00483893 0)
(-0.0367007 0.00455147 0)
(-0.0511887 0.00422363 0)
(-0.0644957 0.00385962 0)
(-0.0764861 0.00347233 0)
(-0.0871134 0.00307674 0)
(-0.0964182 0.00268892 0)
(-0.104364 0.00231856 0)
(-0.111141 0.00198397 0)
(-0.116781 0.00164997 0)
(-0.121225 0.00134921 0)
(-0.1248 0.00108395 0)
(-0.127575 0.000838598 0)
(-0.129507 0.000600858 0)
(-0.130842 0.000436294 0)
(-0.131547 0.000250603 0)
(-0.13167 8.05055e-05 0)
(-0.131549 -4.39761e-05 0)
(-0.131102 -0.000169672 0)
(-0.130158 -0.000261114 0)
(-0.129179 -0.000308247 0)
(-0.127965 -0.000401011 0)
(-0.126473 -0.000472123 0)
(-0.124806 -0.000586655 0)
(-0.122603 -0.00072694 0)
(-0.120024 -0.000874494 0)
(-0.11687 -0.00106599 0)
(-0.112991 -0.00127359 0)
(-0.108471 -0.00148738 0)
(-0.103125 -0.00175962 0)
(-0.0968335 -0.00200873 0)
(-0.0896476 -0.00228699 0)
(-0.0814117 -0.00262346 0)
(-0.0721315 -0.002876 0)
(-0.0616374 -0.00325345 0)
(-0.0500168 -0.00354706 0)
(-0.0374192 -0.00386506 0)
(-0.0237603 -0.00422107 0)
(-0.00911101 -0.00451509 0)
(0.00649281 -0.00476052 0)
(0.0229795 -0.00506321 0)
(0.0402537 -0.00523453 0)
(0.0581464 -0.00544232 0)
(0.076474 -0.00551023 0)
(0.0949832 -0.00549067 0)
(0.113437 -0.005488 0)
(0.131601 -0.00533855 0)
(0.149198 -0.00510265 0)
(0.165966 -0.00485644 0)
(0.181655 -0.00448154 0)
(0.196028 -0.00407883 0)
(0.208858 -0.00357758 0)
(0.21995 -0.00302377 0)
(0.229137 -0.00243831 0)
(0.236263 -0.00180975 0)
(0.241266 -0.0011515 0)
(0.244052 -0.000486903 0)
(0.244605 0.000173553 0)
(0.24295 0.000824364 0)
(0.238997 0.0014755 0)
(0.232976 0.00209981 0)
(0.224946 0.00264977 0)
(0.215067 0.00319196 0)
(0.203488 0.00369872 0)
(0.19039 0.00407592 0)
(0.175995 0.00445825 0)
(0.160502 0.00478851 0)
(0.144124 0.00496322 0)
(0.127087 0.00516113 0)
(0.109602 0.00520777 0)
(0.0918739 0.00528409 0)
(0.0740825 0.00530695 0)
(0.0563968 0.00519686 0)
(0.0389566 0.0051225 0)
(0.0217647 0.005 0)
(0.00535952 0.00477934 0)
(-0.0101761 0.00459408 0)
(-0.0251311 0.00433121 0)
(-0.0393217 0.00410032 0)
(-0.0526555 0.0038473 0)
(-0.0650732 0.00354639 0)
(-0.0765394 0.00327013 0)
(-0.0870287 0.00298369 0)
(-0.0965259 0.00267545 0)
(-0.105029 0.00238556 0)
(-0.112542 0.00208542 0)
(-0.119077 0.00180108 0)
(-0.124651 0.00152026 0)
(-0.129286 0.0012422 0)
(-0.133009 0.000975733 0)
(-0.136124 0.000715353 0)
(-0.0381948 -0.00547411 0)
(-0.0282957 -0.00595636 0)
(-0.0154148 -0.00636645 0)
(-0.00201036 -0.00686763 0)
(0.0117497 -0.00732006 0)
(0.0267735 -0.00766504 0)
(0.0426052 -0.00809323 0)
(0.0591267 -0.00835223 0)
(0.0761993 -0.00853615 0)
(0.0936852 -0.00879725 0)
(0.111429 -0.00882138 0)
(0.129235 -0.00874035 0)
(0.146902 -0.00871945 0)
(0.164207 -0.00842441 0)
(0.180921 -0.00816072 0)
(0.196801 -0.00763511 0)
(0.211599 -0.00699626 0)
(0.225081 -0.00634382 0)
(0.23702 -0.00549974 0)
(0.247215 -0.00457392 0)
(0.255489 -0.00359809 0)
(0.26169 -0.00253381 0)
(0.265735 -0.0014342 0)
(0.267541 -0.000304267 0)
(0.267104 0.00081015 0)
(0.26429 0.0019387 0)
(0.259256 0.00302818 0)
(0.252107 0.00408207 0)
(0.242958 0.00497497 0)
(0.232 0.00585653 0)
(0.219406 0.00666987 0)
(0.205387 0.00722761 0)
(0.190187 0.00780751 0)
(0.174039 0.00811981 0)
(0.15719 0.008459 0)
(0.139854 0.00870197 0)
(0.122245 0.0086887 0)
(0.104574 0.0087127 0)
(0.0870094 0.00865111 0)
(0.0696974 0.00839966 0)
(0.0528237 0.00819437 0)
(0.0364814 0.00784933 0)
(0.0206589 0.00750263 0)
(0.00597149 0.00718571 0)
(-0.00770182 0.0067665 0)
(-0.0208714 0.00638512 0)
(-0.0332816 0.00598935 0)
(-0.0448933 0.0055659 0)
(-0.0557073 0.00517484 0)
(-0.0657339 0.00478595 0)
(-0.0749902 0.00439357 0)
(-0.0835031 0.00403158 0)
(-0.091304 0.00366635 0)
(-0.0984197 0.00332527 0)
(-0.10486 0.00298569 0)
(-0.110642 0.00264339 0)
(-0.115778 0.00233257 0)
(-0.120257 0.00201396 0)
(-0.124075 0.00168462 0)
(-0.12726 0.00137739 0)
(-0.129799 0.00103597 0)
(-0.131707 0.000721501 0)
(-0.132982 0.000394271 0)
(-0.133567 4.00376e-05 0)
(-0.133421 -0.000281097 0)
(-0.132526 -0.00059765 0)
(-0.130794 -0.00101052 0)
(-0.128314 -0.00133778 0)
(-0.124974 -0.00176472 0)
(-0.120708 -0.00216121 0)
(-0.115706 -0.00253461 0)
(-0.109805 -0.00293942 0)
(-0.102885 -0.00340153 0)
(-0.095203 -0.00374974 0)
(-0.0866506 -0.0041963 0)
(-0.077145 -0.00457031 0)
(-0.0668855 -0.00497738 0)
(-0.0557424 -0.00538263 0)
(-0.0437356 -0.00575382 0)
(-0.0309132 -0.00610689 0)
(-0.0173111 -0.00643786 0)
(-0.00400224 -0.00680179 0)
(0.0094136 -0.00713207 0)
(0.02413 -0.00746959 0)
(0.0397057 -0.00778188 0)
(0.0559313 -0.0080717 0)
(0.0728886 -0.00834776 0)
(0.090382 -0.00860633 0)
(0.10839 -0.00876315 0)
(0.126745 -0.0088901 0)
(0.145123 -0.0088424 0)
(0.163313 -0.00864479 0)
(0.180812 -0.00823071 0)
(0.197142 -0.00761645 0)
(0.212014 -0.00680038 0)
(0.225017 -0.00581646 0)
(0.235758 -0.00469636 0)
(0.24407 -0.00345663 0)
(0.249774 -0.00216877 0)
(0.252785 -0.000868386 0)
(0.253147 0.000457558 0)
(0.250852 0.00175633 0)
(0.245942 0.00301444 0)
(0.238649 0.00418146 0)
(0.229098 0.00528735 0)
(0.21741 0.00624896 0)
(0.20385 0.00713507 0)
(0.188678 0.0079146 0)
(0.172099 0.00851413 0)
(0.154402 0.00900089 0)
(0.135869 0.0093417 0)
(0.116788 0.00955287 0)
(0.097427 0.00961238 0)
(0.0780366 0.00956521 0)
(0.0588803 0.00945162 0)
(0.0401005 0.00918306 0)
(0.0218962 0.00885437 0)
(0.00442883 0.00847937 0)
(-0.0122238 0.00805076 0)
(-0.0279558 0.007566 0)
(-0.0427341 0.00708189 0)
(-0.0564808 0.00656865 0)
(-0.0692189 0.00604914 0)
(-0.0809209 0.00553033 0)
(-0.0915659 0.00505853 0)
(-0.101229 0.00454352 0)
(-0.109911 0.00408948 0)
(-0.11767 0.00361075 0)
(-0.124549 0.00317161 0)
(-0.130517 0.00274598 0)
(-0.135637 0.00234914 0)
(-0.13995 0.00196032 0)
(-0.143483 0.00156898 0)
(-0.146264 0.00118985 0)
(-0.148306 0.000816749 0)
(-0.149603 0.000464397 0)
(-0.150207 0.000165477 0)
(-0.150145 -0.000198353 0)
(-0.149419 -0.000527249 0)
(-0.148033 -0.000850072 0)
(-0.146012 -0.00120299 0)
(-0.143261 -0.00149996 0)
(-0.139801 -0.00186603 0)
(-0.135771 -0.00219699 0)
(-0.130967 -0.00253496 0)
(-0.125421 -0.00292198 0)
(-0.119171 -0.00333843 0)
(-0.112027 -0.0037258 0)
(-0.104036 -0.00416604 0)
(-0.0952242 -0.00462507 0)
(-0.0854356 -0.00505322 0)
(-0.0747231 -0.00552265 0)
(-0.0631663 -0.00595503 0)
(-0.0506899 -0.00640616 0)
(-0.0373591 -0.00688011 0)
(-0.0231257 -0.00722535 0)
(-0.00800856 -0.00766421 0)
(0.00782656 -0.00800864 0)
(0.0243274 -0.00834755 0)
(0.0414013 -0.00857156 0)
(0.0589009 -0.00874913 0)
(0.0766667 -0.00884741 0)
(0.0945229 -0.00883795 0)
(0.112244 -0.00870919 0)
(0.129572 -0.00845197 0)
(0.146289 -0.00810237 0)
(0.162156 -0.00759168 0)
(0.176856 -0.006967 0)
(0.190168 -0.00622503 0)
(0.201886 -0.0053385 0)
(0.21173 -0.00436581 0)
(0.21947 -0.00327735 0)
(0.224945 -0.0021184 0)
(0.228003 -0.000910974 0)
(0.228593 0.000300966 0)
(0.226668 0.00155676 0)
(0.222196 0.0028 0)
(0.215354 0.00399261 0)
(0.206191 0.00508885 0)
(0.194864 0.00609259 0)
(0.181672 0.00696772 0)
(0.166835 0.00770479 0)
(0.150648 0.00829539 0)
(0.133464 0.00872687 0)
(0.115542 0.00901957 0)
(0.0972026 0.00914792 0)
(0.0787183 0.0091697 0)
(0.060275 0.00909851 0)
(0.0420971 0.0089367 0)
(0.0243234 0.00866956 0)
(0.00710437 0.00836979 0)
(-0.00940933 0.00804373 0)
(-0.0251971 0.00763752 0)
(-0.0401727 0.00719088 0)
(-0.0542321 0.00673132 0)
(-0.0673389 0.00629828 0)
(-0.0794916 0.00577724 0)
(-0.0906931 0.00531777 0)
(-0.100905 0.00483001 0)
(-0.110168 0.00436582 0)
(-0.11851 0.0039118 0)
(-0.125927 0.00346126 0)
(-0.132456 0.00302618 0)
(-0.13814 0.00260548 0)
(-0.143001 0.00221439 0)
(-0.147082 0.00185441 0)
(-0.150444 0.00146776 0)
(-0.153107 0.00111399 0)
(-0.155058 0.000811138 0)
(-0.156321 0.000495867 0)
(-0.156959 0.000166031 0)
(-0.157 -0.000157016 0)
(-0.156359 -0.000433416 0)
(-0.155156 -0.000740853 0)
(-0.153368 -0.00105537 0)
(-0.150965 -0.00136731 0)
(-0.147916 -0.00162824 0)
(-0.144201 -0.00199193 0)
(-0.139895 -0.00232374 0)
(-0.134847 -0.00266885 0)
(-0.129087 -0.00302068 0)
(-0.122614 -0.00341962 0)
(-0.115358 -0.00375967 0)
(-0.1073 -0.00421498 0)
(-0.0984114 -0.00467711 0)
(-0.0885539 -0.00509788 0)
(-0.0776908 -0.0056218 0)
(-0.0659105 -0.00606498 0)
(-0.0531382 -0.00658711 0)
(-0.0393842 -0.00703706 0)
(-0.0247736 -0.00751429 0)
(-0.00922303 -0.0078753 0)
(0.00714511 -0.00822944 0)
(0.0240916 -0.00856314 0)
(0.0415844 -0.00879578 0)
(0.0594851 -0.00894318 0)
(0.0776013 -0.00899055 0)
(0.0957089 -0.00893132 0)
(0.113554 -0.00875479 0)
(0.130927 -0.00845662 0)
(0.147571 -0.00800212 0)
(0.163186 -0.0074403 0)
(0.177495 -0.0067104 0)
(0.190213 -0.00586577 0)
(0.201101 -0.0049124 0)
(0.209963 -0.00382893 0)
(0.21658 -0.00269785 0)
(0.220806 -0.0014958 0)
(0.222561 -0.0002739 0)
(0.221896 0.000942293 0)
(0.218655 0.00218344 0)
(0.213024 0.00335256 0)
(0.205145 0.0044664 0)
(0.195126 0.00544075 0)
(0.183215 0.00631412 0)
(0.169691 0.00709682 0)
(0.154732 0.00773224 0)
(0.138597 0.00824226 0)
(0.121567 0.00864449 0)
(0.103812 0.0089337 0)
(0.0856055 0.00908726 0)
(0.0671767 0.00915606 0)
(0.0487306 0.0091625 0)
(0.0304386 0.00900638 0)
(0.0125061 0.00876889 0)
(-0.00475731 0.00849474 0)
(-0.021209 0.00807179 0)
(-0.0367533 0.00758397 0)
(-0.0512323 0.00704089 0)
(-0.064544 0.00643653 0)
(-0.076539 0.00578761 0)
(-0.0871729 0.00512834 0)
(-0.0964801 0.0044832 0)
(-0.104432 0.00387232 0)
(-0.111234 0.00330513 0)
(-0.116882 0.00275468 0)
(-0.121336 0.00225397 0)
(-0.124928 0.00181107 0)
(-0.127713 0.00140785 0)
(-0.129647 0.00100566 0)
(-0.131 0.000717081 0)
(-0.131712 0.000411405 0)
(-0.131829 0.000130476 0)
(-0.131699 -7.30266e-05 0)
(-0.13125 -0.000285383 0)
(-0.130292 -0.000436846 0)
(-0.129304 -0.000516463 0)
(-0.128085 -0.000667263 0)
(-0.126587 -0.00078916 0)
(-0.124918 -0.00097927 0)
(-0.12271 -0.00121172 0)
(-0.120127 -0.00145778 0)
(-0.116971 -0.00177713 0)
(-0.113089 -0.00212351 0)
(-0.108565 -0.0024817 0)
(-0.103218 -0.00292826 0)
(-0.0969266 -0.00335341 0)
(-0.0897411 -0.00378471 0)
(-0.0814985 -0.00437095 0)
(-0.0722194 -0.00479309 0)
(-0.0617273 -0.00541667 0)
(-0.0501062 -0.00591473 0)
(-0.0375067 -0.00643801 0)
(-0.0238424 -0.00703284 0)
(-0.00918786 -0.00752755 0)
(0.00642508 -0.00793393 0)
(0.0229231 -0.00844013 0)
(0.04021 -0.00872646 0)
(0.0581182 -0.00907321 0)
(0.0764628 -0.00918614 0)
(0.0949891 -0.00915449 0)
(0.113464 -0.0091498 0)
(0.131647 -0.00890165 0)
(0.149264 -0.00850743 0)
(0.166052 -0.00809805 0)
(0.18176 -0.00747175 0)
(0.196152 -0.00680131 0)
(0.208996 -0.00596563 0)
(0.220102 -0.00504137 0)
(0.229298 -0.00406792 0)
(0.236435 -0.00301543 0)
(0.24144 -0.00192398 0)
(0.244237 -0.000807047 0)
(0.24479 0.000283939 0)
(0.243106 0.00137618 0)
(0.239161 0.00245895 0)
(0.233133 0.00350109 0)
(0.225092 0.00441823 0)
(0.2152 0.0053222 0)
(0.203608 0.00616711 0)
(0.190493 0.00679589 0)
(0.176081 0.00743324 0)
(0.160572 0.00798379 0)
(0.144176 0.00827482 0)
(0.127123 0.00860465 0)
(0.109622 0.00868212 0)
(0.0918783 0.00880922 0)
(0.074073 0.00884707 0)
(0.0563754 0.00866344 0)
(0.0389231 0.00853919 0)
(0.0217207 0.00833525 0)
(0.00530844 0.00796646 0)
(-0.0102344 0.00765772 0)
(-0.0251941 0.00721955 0)
(-0.0393902 0.0068346 0)
(-0.0527283 0.00641273 0)
(-0.0651479 0.00591104 0)
(-0.0766165 0.00545046 0)
(-0.0871072 0.00497293 0)
(-0.096604 0.00445907 0)
(-0.105107 0.00397582 0)
(-0.112618 0.00347552 0)
(-0.119152 0.00300155 0)
(-0.124725 0.00253346 0)
(-0.129358 0.00207 0)
(-0.133079 0.00162586 0)
(-0.136191 0.00119189 0)
(-0.0383005 -0.00766386 0)
(-0.0284016 -0.0083398 0)
(-0.0155305 -0.00891601 0)
(-0.00212012 -0.00961359 0)
(0.0116561 -0.0102487 0)
(0.0266859 -0.0107328 0)
(0.0425258 -0.0113333 0)
(0.0590613 -0.0116966 0)
(0.0761508 -0.0119547 0)
(0.0936551 -0.012321 0)
(0.111421 -0.0123552 0)
(0.129251 -0.0122422 0)
(0.146944 -0.0122136 0)
(0.164276 -0.0118007 0)
(0.181022 -0.0114319 0)
(0.196928 -0.0106958 0)
(0.211752 -0.00980106 0)
(0.225265 -0.00888737 0)
(0.237226 -0.00770502 0)
(0.24744 -0.00640807 0)
(0.255735 -0.00504097 0)
(0.261947 -0.0035513 0)
(0.266002 -0.0020096 0)
(0.267827 -0.000431499 0)
(0.267366 0.00114898 0)
(0.264541 0.00271734 0)
(0.259506 0.00424176 0)
(0.252343 0.00571889 0)
(0.243171 0.00697001 0)
(0.232191 0.00820475 0)
(0.219574 0.00934402 0)
(0.205525 0.0101247 0)
(0.190298 0.0109369 0)
(0.174121 0.0113741 0)
(0.157246 0.0118488 0)
(0.139884 0.0121886 0)
(0.122251 0.0121695 0)
(0.104558 0.0122022 0)
(0.0869734 0.0121155 0)
(0.0696468 0.0117629 0)
(0.0527591 0.0114754 0)
(0.0364018 0.0109902 0)
(0.0205734 0.0105048 0)
(0.00588426 0.0100618 0)
(-0.00779551 0.00947398 0)
(-0.0209678 0.00893965 0)
(-0.0333789 0.00838534 0)
(-0.0449891 0.00779224 0)
(-0.0558019 0.00724445 0)
(-0.0658263 0.00669995 0)
(-0.0750789 0.00615175 0)
(-0.0835891 0.00564272 0)
(-0.0913869 0.00513265 0)
(-0.0985005 0.00465496 0)
(-0.10494 0.00417745 0)
(-0.110718 0.00369992 0)
(-0.115851 0.00326452 0)
(-0.12033 0.00281997 0)
(-0.124146 0.00235953 0)
(-0.127334 0.0019269 0)
(-0.129874 0.00144911 0)
(-0.131782 0.00100956 0)
(-0.133061 0.000558905 0)
(-0.133646 5.60374e-05 0)
(-0.133496 -0.00039314 0)
(-0.132604 -0.000834768 0)
(-0.130874 -0.00141433 0)
(-0.128394 -0.00187526 0)
(-0.125059 -0.00246935 0)
(-0.120791 -0.00302672 0)
(-0.115784 -0.00354893 0)
(-0.10989 -0.00411707 0)
(-0.102965 -0.0047609 0)
(-0.0952734 -0.00525537 0)
(-0.0867163 -0.00587465 0)
(-0.0771933 -0.00640432 0)
(-0.0669308 -0.00697103 0)