/*--------------------------------*- C++ -*----------------------------------*\
| =========                 |                                                 |
| \\      /  F ield         | OpenFOAM: The Open Source CFD Toolbox           |
|  \\    /   O peration     | Version:  3.0.1                                 |
|   \\  /    A nd           | Web:      www.OpenFOAM.org                      |
|    \\/     M anipulation  |                                                 |
\*---------------------------------------------------------------------------*/
FoamFile
{
    version     2.0;
    format      ascii;
    class       surfaceScalarField;
    location    "12";
    object      alphaPhi;
}
// * * * * * * * * * * * * * * * * * * * * * * * * * * * * * * * * * * * * * //

dimensions      [0 3 -1 0 0 0 0];

internalField   nonuniform List<scalar> 
42423
(
-0.000133216
9.57388e-06
-0.000141742
8.52621e-06
-0.000149374
7.6323e-06
-0.000156134
6.75951e-06
-0.00016204
5.90612e-06
-0.000167146
5.10626e-06
-0.000171479
4.33284e-06
-0.000175073
3.59465e-06
-0.000177944
2.87051e-06
-0.000180084
2.14003e-06
-0.000181528
1.44357e-06
-0.000182319
7.91053e-07
-0.000182413
9.4229e-08
-0.000181758
-6.5482e-07
-0.000180358
-1.40032e-06
-0.000178241
-2.11641e-06
-0.000175429
-2.81282e-06
-0.000171859
-3.56952e-06
-0.00016756
-4.29923e-06
-0.000162442
-5.11821e-06
-0.000156429
-6.01255e-06
-0.000149641
-6.78825e-06
-0.000142035
-7.60544e-06
-0.000133404
-8.63138e-06
-0.000123828
-9.57582e-06
-0.000113204
-1.06248e-05
-0.000101681
-1.15231e-05
-8.92529e-05
-1.24276e-05
-7.57645e-05
-1.34885e-05
-6.11701e-05
-1.45944e-05
-4.57532e-05
-1.54171e-05
-2.94621e-05
-1.62911e-05
-1.24628e-05
-1.69994e-05
5.36253e-06
-1.78254e-05
2.37236e-05
-1.83612e-05
4.2345e-05
-1.86215e-05
6.12399e-05
-1.88949e-05
8.01862e-05
-1.89464e-05
9.87736e-05
-1.85875e-05
0.000116941
-1.81678e-05
0.000134391
-1.74499e-05
0.000150904
-1.65126e-05
0.000166208
-1.53046e-05
0.00017995
-1.37421e-05
0.00019201
-1.20595e-05
0.000202176
-1.01663e-05
0.000210213
-8.03734e-06
0.000216068
-5.85537e-06
0.000219554
-3.48592e-06
0.000220591
-1.03642e-06
0.000219215
1.37525e-06
0.000215313
3.9022e-06
0.000209183
6.12963e-06
0.000200943
8.24042e-06
0.000190555
1.03874e-05
0.000178251
1.23039e-05
0.00016431
1.39415e-05
0.000148952
1.53581e-05
0.000132445
1.65066e-05
0.000114958
1.74875e-05
9.67443e-05
1.82133e-05
7.80669e-05
1.86773e-05
5.92499e-05
1.8817e-05
4.05414e-05
1.87086e-05
2.19489e-05
1.85925e-05
3.66818e-06
1.82807e-05
-1.40976e-05
1.77658e-05
-3.12662e-05
1.71685e-05
-4.76821e-05
1.64159e-05
-6.33884e-05
1.57063e-05
-7.82174e-05
1.4829e-05
-9.21695e-05
1.39521e-05
-0.000105233
1.3063e-05
-0.000117275
1.20426e-05
-0.00012834
1.1065e-05
-0.000138474
1.0134e-05
-0.000147492
9.01752e-06
-0.000155568
8.0756e-06
-0.000162583
7.01477e-06
-0.000168621
6.03804e-06
-0.00017371
5.08901e-06
-0.000177729
4.01884e-06
-0.0001808
3.0714e-06
-0.000182931
2.13115e-06
-0.000184153
1.22144e-06
-0.000184508
3.55254e-07
-0.000184093
-4.15151e-07
-0.000182808
-1.28547e-06
-0.000180791
-2.01685e-06
-0.000178071
-2.71987e-06
-0.000174693
-3.3782e-06
-0.000170669
-4.02379e-06
-0.000165997
-4.67267e-06
-0.000160755
-5.24168e-06
-0.000154961
-5.79441e-06
-0.000148512
-6.44895e-06
-0.000141443
-7.06907e-06
-0.000133718
-7.7252e-06
-0.000125298
-8.42014e-06
-0.000116148
-9.15004e-06
-0.000106309
-9.83882e-06
-9.56241e-05
-1.06849e-05
-8.4132e-05
-1.14922e-05
-7.175e-05
-1.23822e-05
-5.85012e-05
-1.32489e-05
-4.43691e-05
-1.41323e-05
-2.94842e-05
-1.4885e-05
-1.37632e-05
-1.57213e-05
2.67822e-06
-1.64416e-05
1.97485e-05
-1.70705e-05
3.73222e-05
-1.75739e-05
5.529e-05
-1.7968e-05
7.34218e-05
-1.81321e-05
9.15076e-05
-1.8086e-05
0.000109337
-1.78297e-05
0.00012662
-1.72837e-05
0.00014312
-1.64995e-05
0.000158463
-1.53431e-05
0.000172374
-1.39112e-05
0.000184569
-1.21957e-05
0.000194799
-1.02303e-05
0.000202777
-7.97829e-06
0.000208331
-5.55369e-06
0.000211363
-3.03206e-06
0.000211779
-4.1674e-07
0.000209602
2.17669e-06
0.000204833
4.76932e-06
0.000197661
7.17156e-06
0.000188276
9.3848e-06
0.000176884
1.13919e-05
0.000163749
1.31349e-05
0.000149166
1.45838e-05
0.000133412
1.57535e-05
0.000116765
1.6647e-05
9.94903e-05
1.72746e-05
8.18705e-05
1.76197e-05
6.40957e-05
1.77748e-05
4.63885e-05
1.77072e-05
2.89401e-05
1.74483e-05
1.18841e-05
1.7056e-05
-4.66405e-06
1.65482e-05
-2.06285e-05
1.59645e-05
-3.59411e-05
1.53125e-05
-5.05409e-05
1.45998e-05
-6.44214e-05
1.38805e-05
-7.75614e-05
1.31401e-05
-8.99905e-05
1.24291e-05
-0.000101626
1.16353e-05
-0.000112508
1.0882e-05
-0.000122626
1.01177e-05
-0.000131987
9.36089e-06
-0.000140574
8.58717e-06
-0.000148375
7.80116e-06
-0.000155382
7.00758e-06
-0.000161626
6.24346e-06
-0.000167067
5.4409e-06
-0.000171702
4.63529e-06
-0.000175512
3.80985e-06
-0.000178489
2.97661e-06
-0.00018061
2.12154e-06
-0.000181905
1.29464e-06
-0.000182361
4.56045e-07
-0.000181945
-4.15394e-07
-0.000180662
-1.28354e-06
-0.000178514
-2.14833e-06
-0.000175481
-3.03228e-06
-0.000171582
-3.89918e-06
-0.000166791
-4.79072e-06
-0.000161111
-5.68025e-06
-0.000154523
-6.58831e-06
-0.000147059
-7.46398e-06
-0.0001387
-8.35862e-06
-0.000129451
-9.24907e-06
-0.000119331
-1.01206e-05
-0.000108342
-1.09893e-05
-9.6501e-05
-1.18406e-05
-8.38409e-05
-1.26601e-05
-7.04048e-05
-1.34362e-05
-5.62472e-05
-1.41577e-05
-4.1427e-05
-1.48203e-05
-2.6013e-05
-1.54141e-05
-1.00662e-05
-1.59469e-05
6.21423e-06
-1.62805e-05
2.2806e-05
-1.65918e-05
3.95527e-05
-1.67469e-05
5.63078e-05
-1.67552e-05
7.29378e-05
-1.66301e-05
8.92391e-05
-1.63014e-05
0.000105052
-1.58127e-05
0.000120201
-1.51494e-05
0.000134501
-1.42997e-05
0.00014779
-1.32893e-05
0.000159863
-1.20728e-05
0.000170567
-1.07047e-05
0.000179766
-9.19909e-06
0.000187306
-7.53976e-06
0.00019311
-5.80403e-06
0.000197074
-3.96416e-06
0.000199131
-2.05747e-06
0.000199312
-1.81117e-07
0.000197599
1.71351e-06
0.000193975
3.62403e-06
0.000188563
5.41208e-06
0.000181438
7.12484e-06
0.00017273
8.70746e-06
0.000162578
1.01517e-05
0.000151134
1.14447e-05
0.000138571
1.25629e-05
0.000125068
1.35033e-05
0.000110825
1.42424e-05
9.60346e-05
1.47904e-05
8.08853e-05
1.51494e-05
6.55657e-05
1.53196e-05
5.0242e-05
1.53236e-05
3.50804e-05
1.51617e-05
2.02287e-05
1.48516e-05
5.81516e-06
1.44136e-05
-8.04652e-06
1.38617e-05
-2.12573e-05
1.32107e-05
-3.3744e-05
1.24867e-05
-4.54499e-05
1.17059e-05
-5.63276e-05
1.08777e-05
-6.63385e-05
1.00109e-05
-7.5463e-05
9.12457e-06
-8.37028e-05
8.23976e-06
-9.10396e-05
7.33683e-06
-9.74804e-05
6.44074e-06
-0.000103036
5.55564e-06
-0.00010773
4.69449e-06
-0.00011156
3.8294e-06
-0.000114546
2.98625e-06
-0.000116718
2.17154e-06
-0.000118097
1.37931e-06
-0.00011869
5.92789e-07
-0.000118539
-1.50399e-07
-0.000117632
-9.07095e-07
-0.000115997
-1.63562e-06
-0.000113654
-2.34279e-06
-0.000110616
-3.03823e-06
-0.000106909
-3.70705e-06
-0.000102536
-4.37228e-06
-9.75165e-05
-5.01982e-06
-9.1871e-05
-5.64558e-06
-8.56168e-05
-6.2542e-06
-7.87824e-05
-6.83439e-06
-7.13876e-05
-7.39485e-06
-6.34827e-05
-7.90484e-06
-5.5078e-05
-8.40477e-06
-4.62109e-05
-8.86706e-06
-3.6942e-05
-9.26894e-06
-2.73126e-05
-9.62945e-06
-1.73787e-05
-9.93388e-06
-7.20696e-06
-1.01718e-05
3.13941e-06
-1.03464e-05
1.35819e-05
-1.04425e-05
2.40403e-05
-1.04584e-05
3.44342e-05
-1.03939e-05
4.46711e-05
-1.0237e-05
5.46605e-05
-9.98942e-06
6.4312e-05
-9.65157e-06
7.35366e-05
-9.22459e-06
8.2234e-05
-8.69744e-06
9.03452e-05
-8.11118e-06
9.77483e-05
-7.4031e-06
0.000104385
-6.63677e-06
0.000110201
-5.81606e-06
0.000115131
-4.93013e-06
0.00011913
-3.99912e-06
0.000122173
-3.04277e-06
0.000124238
-2.06521e-06
0.000125331
-1.0933e-06
0.000125464
-1.32643e-07
0.000124609
8.55261e-07
0.000122841
1.76819e-06
0.000120211
2.62915e-06
0.000116774
3.43751e-06
0.000112608
4.16549e-06
0.000107753
4.8558e-06
0.000102314
5.43851e-06
9.6377e-05
5.93702e-06
9.00367e-05
6.34034e-06
8.33889e-05
6.64772e-06
7.64841e-05
6.90479e-06
6.94289e-05
7.05519e-06
6.23174e-05
7.11158e-06
5.52215e-05
7.09584e-06
4.82118e-05
7.00972e-06
4.13559e-05
6.85591e-06
3.47079e-05
6.64796e-06
2.83186e-05
6.38925e-06
2.22323e-05
6.08629e-06
1.64846e-05
5.74776e-06
1.11096e-05
5.375e-06
6.13801e-06
4.97155e-06
1.55104e-06
4.58696e-06
-2.6552e-06
4.20623e-06
-6.44148e-06
3.78627e-06
-9.80406e-06
3.36259e-06
-1.27478e-05
2.94378e-06
-1.5281e-05
2.53314e-06
-1.74143e-05
2.1333e-06
-1.91633e-05
1.74898e-06
-2.05398e-05
1.37651e-06
-2.15599e-05
1.02012e-06
-2.22405e-05
6.80641e-07
-2.26019e-05
3.61314e-07
-2.26582e-05
5.6315e-08
-2.24225e-05
-2.35677e-07
-2.1922e-05
-5.00542e-07
-2.11782e-05
-7.4375e-07
-2.02089e-05
-9.69308e-07
-1.9034e-05
-1.17486e-06
-1.76745e-05
-1.35954e-06
-1.61484e-05
-1.52609e-06
-1.44684e-05
-1.68004e-06
-1.26602e-05
-1.8082e-06
-1.0739e-05
-1.92116e-06
-8.7216e-06
-2.01742e-06
-6.62541e-06
-2.0962e-06
-4.46833e-06
-2.15708e-06
-2.26896e-06
-2.19937e-06
-4.10118e-08
-2.22795e-06
2.19765e-06
-2.23867e-06
4.43162e-06
-2.23397e-06
6.64721e-06
-2.21559e-06
8.82995e-06
-2.18274e-06
1.09658e-05
-2.13586e-06
1.30435e-05
-2.07772e-06
1.50527e-05
-2.00917e-06
1.69823e-05
-1.92965e-06
1.88234e-05
-1.8411e-06
2.05679e-05
-1.74443e-06
2.22088e-05
-1.64092e-06
2.37407e-05
-1.53189e-06
2.5158e-05
-1.4173e-06
2.64569e-05
-1.29891e-06
2.76342e-05
-1.17732e-06
2.86873e-05
-1.05313e-06
2.96154e-05
-9.28052e-07
3.04184e-05
-8.02976e-07
3.10974e-05
-6.79003e-07
3.16548e-05
-5.57415e-07
3.20919e-05
-4.37136e-07
3.24122e-05
-3.20293e-07
3.26195e-05
-2.07338e-07
3.27176e-05
-9.80128e-08
3.27009e-05
1.66414e-08
3.25745e-05
1.26442e-07
3.23469e-05
2.2759e-07
3.2026e-05
3.2084e-07
3.16186e-05
4.07432e-07
3.11318e-05
4.86828e-07
3.05719e-05
5.59847e-07
2.99457e-05
6.26263e-07
2.92602e-05
6.85486e-07
2.85215e-05
7.38694e-07
7.85824e-07
-0.00013326
1.91541e-05
-0.000141789
1.70553e-05
-0.000149423
1.52659e-05
-0.000156181
1.35177e-05
-0.000162091
1.18157e-05
-0.000167203
1.02183e-05
-0.000171534
8.66465e-06
-0.000175125
7.18544e-06
-0.000177995
5.74034e-06
-0.000180139
4.2843e-06
-0.000181588
2.89235e-06
-0.00018239
1.59284e-06
-0.000182478
1.81818e-07
-0.00018181
-1.32193e-06
-0.000180407
-2.80392e-06
-0.000178291
-4.23196e-06
-0.000175489
-5.6153e-06
-0.000171912
-7.14614e-06
-0.000167611
-8.60054e-06
-0.000162499
-1.02303e-05
-0.000156487
-1.2025e-05
-0.000149697
-1.35774e-05
-0.000142092
-1.52114e-05
-0.000133466
-1.72572e-05
-0.000123888
-1.91542e-05
-0.000113262
-2.12509e-05
-0.000101735
-2.30496e-05
-8.93049e-05
-2.48582e-05
-7.58192e-05
-2.69742e-05
-6.12202e-05
-2.91936e-05
-4.57983e-05
-3.08391e-05
-2.95011e-05
-3.25885e-05
-1.2493e-05
-3.40076e-05
5.33252e-06
-3.56511e-05
2.37013e-05
-3.67301e-05
4.23305e-05
-3.72509e-05
6.12424e-05
-3.7807e-05
8.02021e-05
-3.79062e-05
9.87954e-05
-3.7181e-05
0.000116977
-3.63495e-05
0.000134437
-3.49102e-05
0.000150966
-3.30421e-05
0.000166288
-3.06261e-05
0.000180038
-2.74921e-05
0.000192102
-2.41239e-05
0.00020228
-2.03444e-05
0.000210332
-1.60898e-05
0.00021619
-1.17131e-05
0.000219674
-6.97078e-06
0.000220718
-2.0796e-06
0.000219334
2.75836e-06
0.000215432
7.8041e-06
0.000209306
1.2256e-05
0.000201062
1.64846e-05
0.000190666
2.07833e-05
0.000178353
2.46167e-05
0.000164402
2.78925e-05
0.000149035
3.07245e-05
0.000132516
3.30257e-05
0.000115017
3.49861e-05
9.67881e-05
3.64426e-05
7.80986e-05
3.73668e-05
5.92703e-05
3.76452e-05
4.05504e-05
3.74285e-05
2.19523e-05
3.71906e-05
3.65698e-06
3.6576e-05
-1.41244e-05
3.55472e-05
-3.13043e-05
3.43484e-05
-4.7731e-05
3.28427e-05
-6.34449e-05
3.14201e-05
-7.82804e-05
2.96645e-05
-9.22347e-05
2.79063e-05
-0.000105302
2.61305e-05
-0.00011735
2.40904e-05
-0.00012841
2.21245e-05
-0.000138542
2.02661e-05
-0.000147569
1.80453e-05
-0.000155649
1.61546e-05
-0.000162665
1.40306e-05
-0.000168703
1.20767e-05
-0.000173795
1.01802e-05
-0.000177814
8.03847e-06
-0.000180892
6.14948e-06
-0.000183025
4.26365e-06
-0.000184241
2.4373e-06
-0.000184594
7.08528e-07
-0.000184173
-8.36636e-07
-0.000182897
-2.56115e-06
-0.000180869
-4.04558e-06
-0.000178153
-5.4358e-06
-0.00017477
-6.76157e-06
-0.000170758
-8.03596e-06
-0.000166082
-9.34786e-06
-0.000160819
-1.05051e-05
-0.00015503
-1.15834e-05
-0.000148584
-1.28949e-05
-0.000141522
-1.41317e-05
-0.000133797
-1.54497e-05
-0.000125379
-1.6839e-05
-0.000116224
-1.83051e-05
-0.000106384
-1.96785e-05
-9.56988e-05
-2.13703e-05
-8.41911e-05
-2.3e-05
-7.18193e-05
-2.47542e-05
-5.85742e-05
-2.64942e-05
-4.44271e-05
-2.82796e-05
-2.95412e-05
-2.97712e-05
-1.38082e-05
-3.14545e-05
2.63572e-06
-3.28857e-05
1.97152e-05
-3.41503e-05
3.73091e-05
-3.5168e-05
5.52807e-05
-3.59398e-05
7.34217e-05
-3.62733e-05
9.15266e-05
-3.61912e-05
0.000109375
-3.56781e-05
0.000126669
-3.45777e-05
0.000143183
-3.30143e-05
0.000158543
-3.07037e-05
0.000172472
-2.78402e-05
0.000184682
-2.44058e-05
0.000194925
-2.04731e-05
0.000202916
-1.59704e-05
0.000208476
-1.11132e-05
0.000211523
-6.08014e-06
0.000211917
-8.1027e-07
0.000209735
4.35782e-06
0.000204965
9.53959e-06
0.000197785
1.43512e-05
0.000188389
1.87804e-05
0.000176984
2.27972e-05
0.000163838
2.62801e-05
0.000149244
2.91778e-05
0.000133472
3.15255e-05
0.000116809
3.33099e-05
9.95255e-05
3.45582e-05
8.18855e-05
3.52597e-05
6.41018e-05
3.55584e-05
4.63943e-05
3.54147e-05
2.89344e-05
3.49082e-05
1.18663e-05
3.41241e-05
-4.68787e-06
3.31024e-05
-2.0659e-05
3.19356e-05
-3.59744e-05
3.06279e-05
-5.05795e-05
2.9205e-05
-6.44692e-05
2.77702e-05
-7.76121e-05
2.62831e-05
-9.0035e-05
2.4852e-05
-0.000101677
2.32772e-05
-0.000112566
2.17712e-05
-0.000122681
2.02323e-05
-0.000132039
1.87199e-05
-0.000140619
1.71665e-05
-0.000148424
1.5606e-05
-0.00015545
1.40341e-05
-0.000161696
1.24889e-05
-0.000167126
1.08709e-05
-0.000171758
9.26795e-06
-0.000175569
7.62066e-06
-0.000178553
5.9601e-06
-0.000180681
4.24985e-06
-0.000181973
2.58726e-06
-0.000182427
9.09734e-07
-0.000182012
-8.30877e-07
-0.000180727
-2.56832e-06
-0.00017858
-4.29499e-06
-0.000175552
-6.06016e-06
-0.000171647
-7.80418e-06
-0.00016685
-9.58853e-06
-0.000161174
-1.13555e-05
-0.000154586
-1.31766e-05
-0.000147126
-1.49247e-05
-0.000138762
-1.67217e-05
-0.00012951
-1.8502e-05
-0.000119387
-2.02428e-05
-0.000108395
-2.19823e-05
-9.65538e-05
-2.36814e-05
-8.38846e-05
-2.53293e-05
-7.04436e-05
-2.68774e-05
-5.62909e-05
-2.83104e-05
-4.14631e-05
-2.96482e-05
-2.60366e-05
-3.08407e-05
-1.00871e-05
-3.18966e-05
6.19999e-06
-3.25676e-05
2.28028e-05
-3.31948e-05
3.95544e-05
-3.34985e-05
5.63229e-05
-3.35238e-05
7.29589e-05
-3.32662e-05
8.92721e-05
-3.26148e-05
0.000105098
-3.16391e-05
0.000120252
-3.03034e-05
0.000134563
-2.86109e-05
0.000147861
-2.65868e-05
0.000159945
-2.41567e-05
0.000170664
-2.14246e-05
0.000179867
-1.84018e-05
0.000187409
-1.50816e-05
0.000193217
-1.16121e-05
0.000197182
-7.92928e-06
0.000199253
-4.12876e-06
0.000199432
-3.60469e-07
0.000197704
3.44173e-06
0.000194077
7.25111e-06
0.000188661
1.08278e-05
0.000181535
1.42508e-05
0.000172821
1.74216e-05
0.000162656
2.03167e-05
0.000151203
2.28977e-05
0.000138629
2.51362e-05
0.000125118
2.7015e-05
0.000110867
2.84932e-05
9.60656e-05
2.95917e-05
8.09057e-05
3.03093e-05
6.55792e-05
3.06461e-05
5.02448e-05
3.0658e-05
3.50738e-05
3.03327e-05
2.02133e-05
2.97121e-05
5.79652e-06
2.88304e-05
-8.07431e-06
2.77325e-05
-2.12902e-05
2.64266e-05
-3.37806e-05
2.49771e-05
-4.54894e-05
2.34147e-05
-5.63707e-05
2.1759e-05
-6.63833e-05
2.00235e-05
-7.55106e-05
1.82518e-05
-8.37511e-05
1.64803e-05
-9.10877e-05
1.46735e-05
-9.75289e-05
1.2882e-05
-0.000103086
1.11126e-05
-0.000107782
9.39047e-06
-0.000111612
7.65922e-06
-0.000114597
5.97104e-06
-0.000116769
4.3439e-06
-0.000118148
2.75839e-06
-0.000118737
1.18162e-06
-0.000118586
-3.00911e-07
-0.00011768
-1.81316e-06
-0.000116041
-3.27462e-06
-0.000113696
-4.6877e-06
-0.000110652
-6.08249e-06
-0.000106951
-7.40819e-06
-0.000102576
-8.74675e-06
-9.75549e-05
-1.00414e-05
-9.19085e-05
-1.1292e-05
-8.56529e-05
-1.25098e-05
-7.88166e-05
-1.36707e-05
-7.14151e-05
-1.47964e-05
-6.35112e-05
-1.58087e-05
-5.5104e-05
-1.68121e-05
-4.62332e-05
-1.77378e-05
-3.69596e-05
-1.85425e-05
-2.73288e-05
-1.92603e-05
-1.73897e-05
-1.9873e-05
-7.2115e-06
-2.035e-05
3.13653e-06
-2.06944e-05
1.35847e-05
-2.08908e-05
2.40498e-05
-2.09235e-05
3.44463e-05
-2.07904e-05
4.46901e-05
-2.04808e-05
5.46862e-05
-1.99856e-05
6.43412e-05
-1.93066e-05
7.35696e-05
-1.8453e-05
8.22742e-05
-1.74021e-05
9.03933e-05
-1.62303e-05
9.77963e-05
-1.48062e-05
0.000104436
-1.32767e-05
0.000110255
-1.16346e-05
0.00011519
-9.86564e-06
0.000119193
-8.00162e-06
0.000122234
-6.08391e-06
0.0001243
-4.13129e-06
0.000125403
-2.19618e-06
0.000125519
-2.48862e-07
0.000124664
1.71012e-06
0.000122895
3.53718e-06
0.000120263
5.26057e-06
0.000116827
6.87394e-06
0.000112652
8.34055e-06
0.000107793
9.7147e-06
0.00010235
1.08811e-05
9.64097e-05
1.18777e-05
9.00687e-05
1.26813e-05
8.34123e-05
1.33041e-05
7.64989e-05
1.38182e-05
6.94406e-05
1.41135e-05
6.23254e-05
1.42267e-05
5.52259e-05
1.41953e-05
4.8213e-05
1.40226e-05
4.1354e-05
1.3715e-05
3.47033e-05
1.32986e-05
2.8312e-05
1.27806e-05
2.22241e-05
1.21742e-05
1.64755e-05
1.14964e-05
1.11009e-05
1.07495e-05
6.13281e-06
9.93964e-06
1.53783e-06
9.18194e-06
-2.67252e-06
8.41658e-06
-6.4599e-06
7.57364e-06
-9.82289e-06
6.72558e-06
-1.27665e-05
5.88734e-06
-1.53007e-05
5.06738e-06
-1.74337e-05
4.26633e-06
-1.91815e-05
3.49676e-06
-2.05586e-05
2.75362e-06
-2.15778e-05
2.03932e-06
-2.2258e-05
1.36075e-06
-2.26186e-05
7.21915e-07
-2.2674e-05
1.11722e-07
-2.24378e-05
-4.71872e-07
-2.1936e-05
-1.00228e-06
-2.11908e-05
-1.48899e-06
-2.02212e-05
-1.9389e-06
-1.90455e-05
-2.35061e-06
-1.76847e-05
-2.72026e-06
-1.6157e-05
-3.05386e-06
-1.44767e-05
-3.36033e-06
-1.26675e-05
-3.61739e-06
-1.07452e-05
-3.84348e-06
-8.72688e-06
-4.0357e-06
-6.62957e-06
-4.1935e-06
-4.47154e-06
-4.3151e-06
-2.27095e-06
-4.39997e-06
-4.27979e-08
-4.4561e-06
2.19638e-06
-4.47784e-06
4.43105e-06
-4.46865e-06
6.64744e-06
-4.43198e-06
8.83097e-06
-4.36628e-06
1.09675e-05
-4.2724e-06
1.30459e-05
-4.15611e-06
1.50558e-05
-4.01907e-06
1.69861e-05
-3.85995e-06
1.88277e-05
-3.68273e-06
2.05727e-05
-3.48937e-06
2.22141e-05
-3.28236e-06
2.37466e-05
-3.06434e-06
2.51644e-05
-2.83517e-06
2.64637e-05
-2.59813e-06
2.76411e-05
-2.35472e-06
2.86943e-05
-2.10637e-06
2.96225e-05
-1.85625e-06
3.04256e-05
-1.60605e-06
3.11047e-05
-1.35809e-06
3.16621e-05
-1.11487e-06
3.20993e-05
-8.74362e-07
3.24195e-05
-6.4042e-07
3.26264e-05
-4.14281e-07
3.2724e-05
-1.95636e-07
3.2707e-05
3.36531e-08
3.25802e-05
2.53313e-07
3.23521e-05
4.55614e-07
3.20308e-05
6.42142e-07
3.16229e-05
8.15333e-07
3.11356e-05
9.74115e-07
3.05753e-05
1.12014e-06
2.99486e-05
1.25296e-06
2.92627e-05
1.37138e-06
2.85236e-05
1.47783e-06
1.57222e-06
-0.000133339
2.87369e-05
-0.000141868
2.5584e-05
-0.000149504
2.29022e-05
-0.000156266
2.02795e-05
-0.000162179
1.77291e-05
-0.000167287
1.53261e-05
-0.000171614
1.29914e-05
-0.000175208
1.07799e-05
-0.000178086
8.61745e-06
-0.000180243
6.44182e-06
-0.000181684
4.33374e-06
-0.000182461
2.36898e-06
-0.000182534
2.54771e-07
-0.000181867
-1.98873e-06
-0.000180461
-4.21016e-06
-0.000178347
-6.34524e-06
-0.000175548
-8.41496e-06
-0.00017197
-1.07239e-05
-0.000167672
-1.28988e-05
-0.000162567
-1.53347e-05
-0.000156555
-1.80373e-05
-0.000149766
-2.03668e-05
-0.000142161
-2.28163e-05
-0.000133548
-2.58699e-05
-0.000123967
-2.87356e-05
-0.00011334
-3.18774e-05
-0.000101812
-3.45778e-05
-8.93794e-05
-3.72912e-05
-7.58848e-05
-4.0469e-05
-6.1297e-05
-4.37814e-05
-4.58667e-05
-4.62696e-05
-2.95609e-05
-4.88944e-05
-1.25434e-05
-5.10253e-05
5.29594e-06
-5.34906e-05
2.36841e-05
-5.51184e-05
4.23215e-05
-5.58885e-05
6.12462e-05
-5.67318e-05
8.02289e-05
-5.68891e-05
9.88443e-05
-5.57965e-05
0.000117041
-5.45469e-05
0.000134516
-5.23845e-05
0.000151059
-4.9586e-05
0.000166406
-4.59731e-05
0.000180178
-4.12643e-05
0.00019226
-3.62054e-05
0.000202439
-3.0524e-05
0.000210496
-2.41471e-05
0.000216364
-1.75809e-05
0.00021986
-1.04671e-05
0.000220905
-3.12434e-06
0.000219499
4.16378e-06
0.000215603
1.17003e-05
0.000209485
1.83744e-05
0.000201223
2.47456e-05
0.000190806
3.12006e-05
0.000178483
3.69402e-05
0.000164516
4.18592e-05
0.00014914
4.60998e-05
0.000132592
4.95743e-05
0.000115076
5.25019e-05
9.68196e-05
5.46988e-05
7.81149e-05
5.60715e-05
5.9273e-05
5.64871e-05
4.0533e-05
5.61685e-05
2.19286e-05
5.5795e-05
3.61254e-06
5.4892e-05
-1.41807e-05
5.33404e-05
-3.13689e-05
5.15366e-05
-4.78006e-05
4.92743e-05
-6.35209e-05
4.71404e-05
-7.83584e-05
4.45021e-05
-9.23197e-05
4.18675e-05
-0.000105397
3.92082e-05
-0.000117447
3.61399e-05
-0.000128504
3.31811e-05
-0.000138633
3.03958e-05
-0.000147675
2.70868e-05
-0.000155756
2.42355e-05
-0.000162762
2.10363e-05
-0.000168789
1.81038e-05
-0.000173894
1.52853e-05
-0.000177918
1.20621e-05
-0.000180989
9.22053e-06
-0.000183126
6.4005e-06
-0.000184346
3.6568e-06
-0.000184686
1.04854e-06
-0.000184233
-1.28918e-06
-0.000182972
-3.82302e-06
-0.000180939
-6.0786e-06
-0.000178229
-8.14565e-06
-0.000174831
-1.01595e-05
-0.000170815
-1.20518e-05
-0.000166147
-1.40161e-05
-0.000160893
-1.57597e-05
-0.000155099
-1.7377e-05
-0.000148644
-1.93499e-05
-0.000141582
-2.11938e-05
-0.000133869
-2.31631e-05
-0.000125457
-2.52504e-05
-0.000116301
-2.74614e-05
-0.000106457
-2.95232e-05
-9.57908e-05
-3.20362e-05
-8.42776e-05
-3.45134e-05
-7.18974e-05
-3.71346e-05
-5.86574e-05
-3.97343e-05
-4.45077e-05
-4.24294e-05
-2.96175e-05
-4.46616e-05
-1.3878e-05
-4.71942e-05
2.58017e-06
-4.93441e-05
1.96694e-05
-5.12397e-05
3.72744e-05
-5.27732e-05
5.52634e-05
-5.39291e-05
7.34259e-05
-5.44361e-05
9.15436e-05
-5.43092e-05
0.000109414
-5.35485e-05
0.000126737
-5.19013e-05
0.000143275
-4.95523e-05
0.000158652
-4.60808e-05
0.000172613
-4.18018e-05
0.000184851
-3.66439e-05
0.000195097
-3.072e-05
0.000203103
-2.39767e-05
0.000208682
-1.66924e-05
0.000211744
-9.14225e-06
0.000212128
-1.19436e-06
0.000209922
6.56378e-06
0.000205141
1.43208e-05
0.000197944
2.15472e-05
0.000188529
2.81953e-05
0.000177111
3.42152e-05
0.00016395
3.94416e-05
0.000149328
4.37993e-05
0.000133532
4.73209e-05
0.000116847
4.99948e-05
9.95552e-05
5.185e-05
8.189e-05
5.29249e-05
6.40909e-05
5.33575e-05
4.63635e-05
5.3142e-05
2.88892e-05
5.23825e-05
1.18162e-05
5.1197e-05
-4.74499e-06
4.96636e-05
-2.07241e-05
4.79148e-05
-3.60412e-05
4.5945e-05
-5.06463e-05
4.38101e-05
-6.45403e-05
4.16642e-05
-7.7691e-05
3.94337e-05
-9.01073e-05
3.72683e-05
-0.000101748
3.49177e-05
-0.000112629
3.26526e-05
-0.000122734
3.03372e-05
-0.00013211
2.80963e-05
-0.000140696
2.5752e-05
-0.000148499
2.34086e-05
-0.000155523
2.10588e-05
-0.000161768
1.87338e-05
-0.000167204
1.63068e-05
-0.000171839
1.39031e-05
-0.00017565
1.14314e-05
-0.000178631
8.94052e-06
-0.00018076
6.37892e-06
-0.000182054
3.88129e-06
-0.0001825
1.35621e-06
-0.000182081
-1.24958e-06
-0.000180799
-3.85088e-06
-0.000178648
-6.44573e-06
-0.000175623
-9.08533e-06
-0.000171724
-1.1703e-05
-0.000166926
-1.43869e-05
-0.000161244
-1.70369e-05
-0.00015466
-1.97614e-05
-0.0001472
-2.23848e-05
-0.00013884
-2.50812e-05
-0.000129586
-2.77561e-05
-0.000119455
-3.03736e-05
-0.000108458
-3.29795e-05
-9.66133e-05
-3.55264e-05
-8.39424e-05
-3.80003e-05
-7.05047e-05
-4.03151e-05
-5.63422e-05
-4.2473e-05
-4.15103e-05
-4.44801e-05
-2.60787e-05
-4.62724e-05
-1.01306e-05
-4.78448e-05
6.18074e-06
-4.88791e-05
2.27919e-05
-4.9806e-05
3.95581e-05
-5.02648e-05
5.63472e-05
-5.0313e-05
7.29877e-05
-4.99069e-05
8.9311e-05
-4.89382e-05
0.000105157
-4.74851e-05
0.00012033
-4.54769e-05
0.000134661
-4.29414e-05
0.000147966
-3.98921e-05
0.000160056
-3.62466e-05
0.000170786
-3.2155e-05
0.000180004
-2.76199e-05
0.000187561
-2.26392e-05
0.000193374
-1.7425e-05
0.000197337
-1.18919e-05
0.000199414
-6.20588e-06
0.000199583
-5.3003e-07
0.000197842
5.18289e-06
0.000194213
1.08796e-05
0.000188794
1.62472e-05
0.000181658
2.13869e-05
0.00017293
2.61496e-05
0.000162752
3.04942e-05
0.000151289
3.43607e-05
0.000138699
3.77261e-05
0.000125173
4.05406e-05
0.000110907
4.27589e-05
9.60902e-05
4.44089e-05
8.09151e-05
4.54844e-05
6.55788e-05
4.59824e-05
5.02293e-05
4.60074e-05
3.50444e-05
4.55176e-05
2.01746e-05
4.4582e-05
5.75687e-06
4.32481e-05
-8.12659e-06
4.1616e-05
-2.13487e-05
3.96488e-05
-3.38456e-05
3.7474e-05
-4.55522e-05
3.51213e-05
-5.64399e-05
3.26468e-05
-6.64542e-05
3.00378e-05
-7.55834e-05
2.73809e-05
-8.38203e-05
2.47172e-05
-9.11602e-05
2.20134e-05
-9.76027e-05
1.93245e-05
-0.000103159
1.66692e-05
-0.00010785
1.40816e-05
-0.000111678
1.14869e-05
-0.000114663
8.9561e-06
-0.000116838
6.51852e-06
-0.000118217
4.13725e-06
-0.000118797
1.76206e-06
-0.000118644
-4.53601e-07
-0.000117736
-2.72115e-06
-0.000116098
-4.91294e-06
-0.000113751
-7.03461e-06
-0.000110701
-9.13277e-06
-0.000107
-1.1109e-05
-0.000102626
-1.31205e-05
-9.76035e-05
-1.50643e-05
-9.19538e-05
-1.69417e-05
-8.56982e-05
-1.87655e-05
-7.88606e-05
-2.05083e-05
-7.14521e-05
-2.22049e-05
-6.35462e-05
-2.37147e-05
-5.51341e-05
-2.52242e-05
-4.62648e-05
-2.66071e-05
-3.69876e-05
-2.78198e-05
-2.73486e-05
-2.88993e-05
-1.74066e-05
-2.98151e-05
-7.22301e-06
-3.05336e-05
3.13294e-06
-3.10504e-05
1.35857e-05
-3.13436e-05
2.40579e-05
-3.13957e-05
3.44622e-05
-3.11948e-05
4.47109e-05
-3.07295e-05
5.47153e-05
-2.999e-05
6.438e-05
-2.89714e-05
7.36145e-05
-2.76876e-05
8.23248e-05
-2.61124e-05
9.04529e-05
-2.43584e-05
9.78609e-05
-2.22142e-05
0.000104507
-1.9923e-05
0.000110328
-1.7456e-05
0.000115265
-1.48025e-05
0.000119273
-1.20091e-05
0.000122318
-9.12895e-06
0.000124384
-6.1977e-06
0.000125484
-3.29627e-06
0.000125584
-3.48316e-07
0.000124732
2.56199e-06
0.000122962
5.30671e-06
0.000120327
7.89511e-06
0.000116899
1.03024e-05
0.000112702
1.25372e-05
0.000107838
1.45786e-05
0.00010239
1.63295e-05
9.64446e-05
1.7823e-05
9.01092e-05
1.90167e-05
8.34323e-05
1.9981e-05
7.65058e-05
2.07447e-05
6.94426e-05
2.11766e-05
6.23227e-05
2.13467e-05
5.52182e-05
2.12998e-05
4.82007e-05
2.10401e-05
4.13374e-05
2.05782e-05
3.46833e-05
1.99527e-05
2.82891e-05
1.91748e-05
2.21995e-05
1.82638e-05
1.64508e-05
1.72451e-05
1.10794e-05
1.61209e-05
6.10143e-06
1.49176e-05
1.50794e-06
1.37754e-05
-2.7063e-06
1.26308e-05
-6.49383e-06
1.13612e-05
-9.85625e-06
1.0088e-05
-1.27993e-05
8.83035e-06
-1.53326e-05
7.60069e-06
-1.74646e-05
6.39837e-06
-1.92116e-05
5.24378e-06
-2.05873e-05
4.12932e-06
-2.16053e-05
3.05724e-06
-2.2284e-05
2.0395e-06
-2.26431e-05
1.08099e-06
-2.26964e-05
1.65067e-07
-2.24585e-05
-7.09841e-07
-2.19552e-05
-1.50554e-06
-2.12085e-05
-2.2357e-06
-2.02374e-05
-2.91001e-06
-1.90601e-05
-3.52786e-06
-1.7698e-05
-4.08245e-06
-1.61688e-05
-4.58303e-06
-1.44871e-05
-5.04206e-06
-1.26764e-05
-5.428e-06
-1.07528e-05
-5.76715e-06
-8.73328e-06
-6.05521e-06
-6.63446e-06
-6.29232e-06
-4.47509e-06
-6.47448e-06
-2.27321e-06
-6.60185e-06
-4.37335e-08
-6.68558e-06
2.19673e-06
-6.7183e-06
4.4326e-06
-6.70451e-06
6.65014e-06
-6.64952e-06
8.83476e-06
-6.5509e-06
1.09723e-05
-6.40994e-06
1.30516e-05
-6.2354e-06
1.50623e-05
-6.02981e-06
1.69934e-05
-5.79107e-06
1.88358e-05
-5.52505e-06
2.05812e-05
-5.23486e-06
2.22231e-05
-4.92426e-06
2.3756e-05
-4.59721e-06
2.51742e-05
-4.25334e-06
2.64738e-05
-3.89774e-06
2.76515e-05
-3.53249e-06
2.87049e-05
-3.15969e-06
2.9633e-05
-2.78437e-06
3.04359e-05
-2.40898e-06
3.11149e-05
-2.03708e-06
3.16721e-05
-1.67205e-06
3.2109e-05
-1.3113e-06
3.2429e-05
-9.6034e-07
3.26357e-05
-6.21041e-07
3.27329e-05
-2.928e-07
3.27152e-05
5.13572e-08
3.25877e-05
3.80837e-07
3.23592e-05
6.84081e-07
3.20374e-05
9.63919e-07
3.1629e-05
1.22373e-06
3.11412e-05
1.4619e-06
3.05804e-05
1.68094e-06
2.99532e-05
1.88016e-06
2.92668e-05
2.05778e-06
2.85272e-05
2.21746e-06
2.3591e-06
-0.000133457
3.8323e-05
-0.00014199
3.41175e-05
-0.000149632
3.05439e-05
-0.000156396
2.70438e-05
-0.00016231
2.36425e-05
-0.000167418
2.04343e-05
-0.000171748
1.73216e-05
-0.000175347
1.43785e-05
-0.000178222
1.1493e-05
-0.000180383
8.60285e-06
-0.000181819
5.76973e-06
-0.000182573
3.1226e-06
-0.000182622
3.04231e-07
-0.000181952
-2.65928e-06
-0.000180539
-5.62331e-06
-0.000178431
-8.45307e-06
-0.000175636
-1.12096e-05
-0.000172056
-1.43044e-05
-0.000167764
-1.7191e-05
-0.00016267
-2.04282e-05
-0.00015666
-2.40479e-05
-0.000149868
-2.71588e-05
-0.000142264
-3.04199e-05
-0.000133668
-3.44662e-05
-0.000124086
-3.83173e-05
-0.00011346
-4.25039e-05
-0.000101928
-4.61101e-05
-8.94915e-05
-4.97275e-05
-7.59863e-05
-5.39744e-05
-6.14128e-05
-5.8355e-05
-4.597e-05
-6.17125e-05
-2.96513e-05
-6.52132e-05
-1.26193e-05
-6.80575e-05
5.24038e-06
-7.13504e-05
2.3656e-05
-7.35342e-05
4.2312e-05
-7.45446e-05
6.12629e-05
-7.56829e-05
8.02685e-05
-7.58949e-05
9.89108e-05
-7.4439e-05
0.000117137
-7.27734e-05
0.000134639
-6.98862e-05
0.000151211
-6.61586e-05
0.000166584
-6.1346e-05
0.00018038
-5.50602e-05
0.000192491
-4.83164e-05
0.000202683
-4.07165e-05
0.000210751
-3.22155e-05
0.00021662
-2.345e-05
0.000220123
-1.39699e-05
0.000221172
-4.17303e-06
0.00021975
5.58521e-06
0.000215862
1.55884e-05
0.000209755
2.44812e-05
0.000201465
3.30352e-05
0.000191016
4.16492e-05
0.000178676
4.92811e-05
0.000164686
5.58489e-05
0.000149301
6.14847e-05
0.000132703
6.61717e-05
0.000115163
7.00423e-05
9.68658e-05
7.29958e-05
7.81375e-05
7.47998e-05
5.92779e-05
7.53466e-05
4.0506e-05
7.49404e-05
2.18564e-05
7.44446e-05
3.54507e-06
7.32033e-05
-1.42667e-05
7.11522e-05
-3.14676e-05
6.87375e-05
-4.79098e-05
6.57165e-05
-6.36433e-05
6.28738e-05
-7.84862e-05
5.9345e-05
-9.24524e-05
5.58336e-05
-0.00010554
5.22954e-05
-0.000117597
4.8197e-05
-0.000128655
4.4239e-05
-0.000138772
4.05127e-05
-0.000147826
3.61412e-05
-0.000155912
3.23211e-05
-0.000162922
2.80462e-05
-0.000168939
2.41202e-05
-0.000174056
2.04023e-05
-0.000178078
1.60846e-05
-0.000181143
1.22854e-05
-0.000183281
8.53762e-06
-0.000184496
4.87223e-06
-0.000184821
1.37323e-06
-0.000184332
-1.77821e-06
-0.000183087
-5.06854e-06
-0.000181046
-8.11937e-06
-0.000178336
-1.08555e-05
-0.000174927
-1.35685e-05
-0.000170911
-1.60679e-05
-0.000166241
-1.86868e-05
-0.000160989
-2.10113e-05
-0.000155196
-2.31701e-05
-0.000148745
-2.58014e-05
-0.00014168
-2.82582e-05
-0.000133968
-3.0875e-05
-0.000125566
-3.36533e-05
-0.000116417
-3.661e-05
-0.000106566
-3.93743e-05
-9.59117e-05
-4.26906e-05
-8.43902e-05
-4.60351e-05
-7.20187e-05
-4.95063e-05
-5.87793e-05