/*--------------------------------*- C++ -*----------------------------------*\
| =========                 |                                                 |
| \\      /  F ield         | OpenFOAM: The Open Source CFD Toolbox           |
|  \\    /   O peration     | Version:  3.0.1                                 |
|   \\  /    A nd           | Web:      www.OpenFOAM.org                      |
|    \\/     M anipulation  |                                                 |
\*---------------------------------------------------------------------------*/
FoamFile
{
    version     2.0;
    format      ascii;
    class       volVectorField;
    location    "91.2";
    object      U;
}
// * * * * * * * * * * * * * * * * * * * * * * * * * * * * * * * * * * * * * //

dimensions      [0 1 -1 0 0 0 0];

internalField   nonuniform List<vector> 
21420
(
(-0.0483678 -0.00142981 0)
(-0.0350415 -0.0015352 0)
(-0.0189826 -0.00161358 0)
(-0.00222873 -0.00169283 0)
(0.0150137 -0.00177747 0)
(0.0331278 -0.00182307 0)
(0.0517756 -0.00188567 0)
(0.0707701 -0.0018976 0)
(0.0899006 -0.00188679 0)
(0.108948 -0.00188979 0)
(0.127672 -0.00183148 0)
(0.145803 -0.00174668 0)
(0.163069 -0.00166778 0)
(0.179197 -0.00153062 0)
(0.193917 -0.00139223 0)
(0.206972 -0.00120628 0)
(0.218122 -0.00100138 0)
(0.227153 -0.000786964 0)
(0.233893 -0.000549804 0)
(0.238221 -0.000303105 0)
(0.23999 -5.44065e-05 0)
(0.239292 0.000196242 0)
(0.235991 0.00045351 0)
(0.230191 0.000691875 0)
(0.222043 0.000925203 0)
(0.211676 0.00112461 0)
(0.199292 0.00132066 0)
(0.185104 0.00149947 0)
(0.169359 0.00162059 0)
(0.152335 0.00174551 0)
(0.134291 0.00184705 0)
(0.115494 0.00188442 0)
(0.0962075 0.0019312 0)
(0.0766739 0.00191993 0)
(0.0571011 0.00191952 0)
(0.0377151 0.00189876 0)
(0.0185225 0.0018303 0)
(0.00036281 0.00177814 0)
(-0.0167627 0.00171049 0)
(-0.0334601 0.00161585 0)
(-0.0492969 0.00153044 0)
(-0.0642042 0.00142738 0)
(-0.0781398 0.00133357 0)
(-0.0910801 0.00123613 0)
(-0.103015 0.00113233 0)
(-0.113955 0.00103599 0)
(-0.123915 0.000940059 0)
(-0.132914 0.000844051 0)
(-0.140984 0.000753827 0)
(-0.148154 0.000665438 0)
(-0.154456 0.000579031 0)
(-0.159919 0.000496498 0)
(-0.164577 0.000414855 0)
(-0.168446 0.000337378 0)
(-0.17153 0.000260564 0)
(-0.173869 0.000182684 0)
(-0.175439 0.000111824 0)
(-0.176235 3.90795e-05 0)
(-0.176259 -4.69045e-05 0)
(-0.175491 -0.000118188 0)
(-0.173904 -0.000208681 0)
(-0.171519 -0.000279079 0)
(-0.168331 -0.000359915 0)
(-0.164284 -0.000450894 0)
(-0.159332 -0.000529649 0)
(-0.153532 -0.000611632 0)
(-0.146819 -0.000711192 0)
(-0.139268 -0.000792638 0)
(-0.130825 -0.000899289 0)
(-0.12136 -0.000986038 0)
(-0.110977 -0.00106595 0)
(-0.0997499 -0.00116431 0)
(-0.0875656 -0.00125512 0)
(-0.0745704 -0.00133158 0)
(-0.060731 -0.00142249 0)
(-0.0460628 -0.00149554 0)
(-0.030806 -0.00157517 0)
(-0.0146207 -0.00162877 0)
(0.00237619 -0.00169702 0)
(0.019774 -0.00173529 0)
(0.0374566 -0.00177843 0)
(0.0554101 -0.00178759 0)
(0.0734738 -0.00180762 0)
(0.0915698 -0.00179434 0)
(0.109538 -0.00177251 0)
(0.127211 -0.00173885 0)
(0.144419 -0.00168227 0)
(0.160981 -0.00160495 0)
(0.176624 -0.00148989 0)
(0.190998 -0.00134362 0)
(0.203747 -0.00117035 0)
(0.214552 -0.000963797 0)
(0.223149 -0.000731489 0)
(0.229342 -0.000486179 0)
(0.232987 -0.000231764 0)
(0.234028 1.67408e-05 0)
(0.232553 0.000276898 0)
(0.228353 0.000534722 0)
(0.221761 0.000776455 0)
(0.2128 0.00100294 0)
(0.20163 0.00120891 0)
(0.188436 0.00139961 0)
(0.173441 0.00156495 0)
(0.156885 0.00171459 0)
(0.13898 0.00183299 0)
(0.120033 0.00192579 0)
(0.100349 0.00198204 0)
(0.0801932 0.00201568 0)
(0.0598809 0.00201697 0)
(0.0396616 0.00199307 0)
(0.0197786 0.00194756 0)
(0.000464895 0.00188498 0)
(-0.0181254 0.00180579 0)
(-0.0358536 0.00171332 0)
(-0.0525796 0.0016105 0)
(-0.0682328 0.00150004 0)
(-0.0827845 0.00138414 0)
(-0.0961649 0.00126991 0)
(-0.108402 0.00115232 0)
(-0.119477 0.00104888 0)
(-0.12941 0.000928862 0)
(-0.138255 0.000827227 0)
(-0.14602 0.000719597 0)
(-0.152757 0.000621456 0)
(-0.158533 0.000525039 0)
(-0.163387 0.000431592 0)
(-0.167336 0.000353878 0)
(-0.17046 0.000267391 0)
(-0.172797 0.000194473 0)
(-0.174342 0.000117091 0)
(-0.175176 4.85067e-05 0)
(-0.17539 -9.55432e-06 0)
(-0.174892 -7.90923e-05 0)
(-0.173793 -0.000140991 0)
(-0.172078 -0.000199221 0)
(-0.169756 -0.000261417 0)
(-0.16683 -0.000319522 0)
(-0.163294 -0.000380353 0)
(-0.159125 -0.00044505 0)
(-0.154312 -0.000513804 0)
(-0.148809 -0.000572724 0)
(-0.142627 -0.000650474 0)
(-0.13575 -0.000726832 0)
(-0.128075 -0.000790032 0)
(-0.119604 -0.000875988 0)
(-0.110333 -0.000960908 0)
(-0.100229 -0.00104333 0)
(-0.0892412 -0.00113806 0)
(-0.0773631 -0.00122698 0)
(-0.0645703 -0.00130579 0)
(-0.0509195 -0.00138919 0)
(-0.0364881 -0.00146805 0)
(-0.0212868 -0.00154407 0)
(-0.00535305 -0.00161027 0)
(0.0111973 -0.00165816 0)
(0.0282149 -0.00171034 0)
(0.0456051 -0.00174133 0)
(0.0631979 -0.00174524 0)
(0.0807869 -0.00173535 0)
(0.0981641 -0.00170715 0)
(0.115094 -0.00164943 0)
(0.131314 -0.00156638 0)
(0.146562 -0.00145132 0)
(0.160561 -0.00131662 0)
(0.173067 -0.00115645 0)
(0.183834 -0.000972952 0)
(0.192629 -0.000765612 0)
(0.199254 -0.00054754 0)
(0.20354 -0.000309307 0)
(0.205377 -6.2764e-05 0)
(0.204812 0.000186531 0)
(0.201614 0.00043511 0)
(0.195995 0.000675635 0)
(0.188069 0.000897637 0)
(0.177934 0.00110844 0)
(0.165779 0.00129886 0)
(0.151839 0.00145985 0)
(0.13641 0.00159737 0)
(0.119712 0.00171548 0)
(0.101996 0.00179633 0)
(0.083555 0.00185649 0)
(0.0646538 0.00189259 0)
(0.0456056 0.00188763 0)
(0.0266749 0.00186307 0)
(0.008109 0.00182427 0)
(-0.00992947 0.00175746 0)
(-0.0272868 0.00168628 0)
(-0.0438373 0.00160256 0)
(-0.0595207 0.00151102 0)
(-0.074271 0.00141435 0)
(-0.0880224 0.00131287 0)
(-0.100765 0.0012152 0)
(-0.112475 0.00110768 0)
(-0.123157 0.00101251 0)
(-0.132872 0.000917355 0)
(-0.141651 0.000826263 0)
(-0.149528 0.00073502 0)
(-0.15652 0.000654569 0)
(-0.162627 0.000558916 0)
(-0.167878 0.000480347 0)
(-0.172322 0.000404175 0)
(-0.175999 0.000327096 0)
(-0.178959 0.000257232 0)
(-0.181258 0.000201516 0)
(-0.182981 0.000139534 0)
(-0.184129 9.00554e-05 0)
(-0.184703 2.96598e-05 0)
(-0.18469 -3.73616e-05 0)
(-0.184038 -9.17909e-05 0)
(-0.182725 -0.000158563 0)
(-0.180777 -0.000228329 0)
(-0.178177 -0.000284079 0)
(-0.174952 -0.000358972 0)
(-0.171087 -0.000402866 0)
(-0.166644 -0.000474216 0)
(-0.161556 -0.000531969 0)
(-0.155845 -0.000597865 0)
(-0.149482 -0.00067233 0)
(-0.142354 -0.000734443 0)
(-0.134488 -0.000817014 0)
(-0.125821 -0.000897861 0)
(-0.116333 -0.000984651 0)
(-0.106005 -0.00106708 0)
(-0.0948143 -0.00115335 0)
(-0.082763 -0.00123226 0)
(-0.0698855 -0.00131837 0)
(-0.0561759 -0.00139579 0)
(-0.0417155 -0.00146959 0)
(-0.0265855 -0.00154134 0)
(-0.0108185 -0.00158188 0)
(0.00547263 -0.00163251 0)
(0.0221109 -0.00166233 0)
(0.0389614 -0.00167412 0)
(0.0558245 -0.00167255 0)
(0.0725403 -0.00164041 0)
(0.0888718 -0.0015894 0)
(0.10456 -0.00151541 0)
(0.119356 -0.00141929 0)
(0.133032 -0.00129132 0)
(0.145316 -0.00113868 0)
(0.155949 -0.000966047 0)
(0.164722 -0.000768085 0)
(0.171411 -0.000554953 0)
(0.17587 -0.000323672 0)
(0.177953 -9.29683e-05 0)
(0.177702 0.000140345 0)
(0.175011 0.0003847 0)
(0.169952 0.000613047 0)
(0.162668 0.000827838 0)
(0.153306 0.00103078 0)
(0.142005 0.00121041 0)
(0.128992 0.00136697 0)
(0.114534 0.00149823 0)
(0.0988213 0.00161382 0)
(0.0821073 0.0017031 0)
(0.0646417 0.00176099 0)
(0.0466934 0.00179404 0)
(0.0285078 0.00181047 0)
(0.0102971 0.00180439 0)
(-0.0076898 0.00176778 0)
(-0.0252461 0.00171557 0)
(-0.0421782 0.00165381 0)
(-0.0583844 0.00157608 0)
(-0.0738196 0.00148816 0)
(-0.088323 0.00139888 0)
(-0.10178 0.00130221 0)
(-0.114311 0.00119912 0)
(-0.125891 0.00110694 0)
(-0.136431 0.0010027 0)
(-0.145949 0.000908229 0)
(-0.154527 0.000797555 0)
(-0.162151 0.000714514 0)
(-0.168736 0.000617958 0)
(-0.174439 0.000509962 0)
(-0.179227 0.000432961 0)
(-0.182995 0.000331869 0)
(-0.185879 0.000242964 0)
(-0.187874 0.000157562 0)
(-0.188926 7.03144e-05 0)
(-0.189053 -1.30621e-05 0)
(-0.18833 -0.000100688 0)
(-0.186862 -0.000177094 0)
(-0.184674 -0.000236774 0)
(-0.18194 -0.000295937 0)
(-0.178643 -0.000348448 0)
(-0.175053 -0.000379467 0)
(-0.171164 -0.000410909 0)
(-0.166875 -0.000452694 0)
(-0.16224 -0.000476447 0)
(-0.157209 -0.000520265 0)
(-0.15178 -0.00055127 0)
(-0.146016 -0.00058884 0)
(-0.139759 -0.000648189 0)
(-0.132923 -0.00069962 0)
(-0.125535 -0.000757888 0)
(-0.11744 -0.000843933 0)
(-0.108505 -0.000920823 0)
(-0.0987506 -0.00100339 0)
(-0.0880179 -0.00111253 0)
(-0.0762744 -0.00120411 0)
(-0.063511 -0.0013225 0)
(-0.0496321 -0.00141738 0)
(-0.034709 -0.00150011 0)
(-0.0189259 -0.00161968 0)
(-0.00244717 -0.00167953 0)
(0.0146898 -0.00172837 0)
(0.0324254 -0.00178901 0)
(0.0505119 -0.00179695 0)
(0.068662 -0.00180825 0)
(0.0866395 -0.00176784 0)
(0.104136 -0.0016959 0)
(0.120855 -0.00161948 0)
(0.13655 -0.00149721 0)
(0.150935 -0.00134852 0)
(0.163752 -0.00118838 0)
(0.174787 -0.000996998 0)
(0.183841 -0.000794337 0)
(0.190773 -0.000573437 0)
(0.19547 -0.000344652 0)
(0.197872 -0.000114938 0)
(0.197941 0.000111706 0)
(0.195614 0.000346178 0)
(0.190981 0.000560385 0)
(0.18427 0.000767236 0)
(0.175608 0.000941263 0)
(0.165202 0.00110798 0)
(0.153262 0.00125638 0)
(0.140033 0.00135803 0)
(0.125767 0.00145723 0)
(0.110695 0.00153538 0)
(0.0950405 0.00156707 0)
(0.0790132 0.00160326 0)
(0.062791 0.00162261 0)
(0.0465313 0.00160455 0)
(0.0303372 0.00159618 0)
(0.0143154 0.00155674 0)
(-0.00124996 0.0015284 0)
(-0.0163502 0.00149249 0)
(-0.0310898 0.00143441 0)
(-0.0453325 0.00138796 0)
(-0.0590256 0.00133568 0)
(-0.0721218 0.00126602 0)
(-0.0845817 0.0012054 0)
(-0.0963681 0.0011301 0)
(-0.107446 0.00106217 0)
(-0.117784 0.000989807 0)
(-0.127348 0.000907311 0)
(-0.136112 0.000829072 0)
(-0.14405 0.000747422 0)
(-0.151141 0.000659918 0)
(-0.157365 0.000574454 0)
(-0.162711 0.000485418 0)
(-0.167168 0.000397767 0)
(-0.170731 0.000309323 0)
(-0.173401 0.000220147 0)
(-0.175177 0.000131051 0)
(-0.176035 4.3555e-05 0)
(-0.0484056 -0.00428953 0)
(-0.0350782 -0.00460591 0)
(-0.019018 -0.00484142 0)
(-0.00226026 -0.00507855 0)
(0.0149882 -0.0053328 0)
(0.0331075 -0.00546976 0)
(0.0517614 -0.00565772 0)
(0.0707637 -0.00569362 0)
(0.0899028 -0.00566128 0)
(0.10896 -0.00567042 0)
(0.127694 -0.00549548 0)
(0.145835 -0.00524108 0)
(0.163113 -0.00500445 0)
(0.179251 -0.00459292 0)
(0.193983 -0.00417771 0)
(0.207047 -0.00361977 0)
(0.218204 -0.00300496 0)
(0.227243 -0.00236163 0)
(0.233988 -0.00164957 0)
(0.238318 -0.000908799 0)
(0.240095 -0.000164176 0)
(0.239395 0.000588993 0)
(0.236085 0.00136093 0)
(0.230284 0.00207592 0)
(0.222132 0.00277619 0)
(0.211757 0.00337457 0)
(0.199364 0.00396285 0)
(0.185168 0.00449937 0)
(0.169412 0.00486277 0)
(0.152377 0.00523757 0)
(0.134323 0.00554224 0)
(0.115516 0.00565428 0)
(0.0962195 0.00579457 0)
(0.076677 0.00576067 0)
(0.0570961 0.0057594 0)
(0.0377019 0.00569705 0)
(0.0185039 0.0054912 0)
(0.000339584 0.00533504 0)
(-0.0167907 0.0051319 0)
(-0.0334909 0.00484785 0)
(-0.0493304 0.00459156 0)
(-0.064239 0.00428233 0)
(-0.0781758 0.00400083 0)
(-0.0911168 0.00370852 0)
(-0.103051 0.00339711 0)
(-0.113991 0.00310808 0)
(-0.12395 0.00282047 0)
(-0.132949 0.00253235 0)
(-0.141018 0.00226132 0)
(-0.148188 0.00199609 0)
(-0.154489 0.00173738 0)
(-0.159951 0.00148997 0)
(-0.164609 0.00124558 0)
(-0.168479 0.0010137 0)
(-0.171565 0.000780337 0)
(-0.173903 0.000548194 0)
(-0.175478 0.000335439 0)
(-0.176274 0.000118071 0)
(-0.1763 -0.000139344 0)
(-0.175534 -0.000354541 0)
(-0.17395 -0.000624938 0)
(-0.171566 -0.000835676 0)
(-0.168381 -0.00108076 0)
(-0.164338 -0.00135287 0)
(-0.159387 -0.0015882 0)
(-0.153589 -0.00183445 0)
(-0.146879 -0.00213254 0)
(-0.139329 -0.00237726 0)
(-0.13089 -0.00269907 0)
(-0.121419 -0.00295796 0)
(-0.111035 -0.00319684 0)
(-0.0998111 -0.00349404 0)
(-0.0876227 -0.00376418 0)
(-0.0746262 -0.003997 0)
(-0.0607827 -0.00426555 0)
(-0.0461127 -0.00449076 0)
(-0.0308437 -0.00472056 0)
(-0.0146688 -0.0048961 0)
(0.00235122 -0.0050879 0)
(0.019742 -0.005213 0)
(0.037452 -0.00532827 0)
(0.0553955 -0.00537291 0)
(0.0734837 -0.00541816 0)
(0.0915797 -0.00539254 0)
(0.109571 -0.00531515 0)
(0.12725 -0.00522186 0)
(0.144481 -0.00504745 0)
(0.161067 -0.00480617 0)
(0.176721 -0.0044837 0)
(0.19112 -0.00404983 0)
(0.203899 -0.00351318 0)
(0.214724 -0.00289528 0)
(0.223339 -0.00220454 0)
(0.229549 -0.00146534 0)
(0.2332 -0.00070462 0)
(0.234254 5.55094e-05 0)
(0.232747 0.000828767 0)
(0.228541 0.00160054 0)
(0.221935 0.00232259 0)
(0.212965 0.00300211 0)
(0.201791 0.00363599 0)
(0.188575 0.00420225 0)
(0.173565 0.00470694 0)
(0.156979 0.00514653 0)
(0.139051 0.00549341 0)
(0.120088 0.00577854 0)
(0.10038 0.00594892 0)
(0.0802038 0.00604349 0)
(0.0598746 0.00605029 0)
(0.0396398 0.00597803 0)
(0.0197438 0.0058527 0)
(0.000407296 0.00566015 0)
(-0.0181978 0.0054154 0)
(-0.0359389 0.00512955 0)
(-0.052674 0.00482579 0)
(-0.0683384 0.0044941 0)
(-0.0828874 0.00415306 0)
(-0.0962735 0.00382252 0)
(-0.108523 0.00345979 0)
(-0.119608 0.00314749 0)
(-0.129553 0.00278341 0)
(-0.138405 0.00247748 0)
(-0.146178 0.00215704 0)
(-0.152926 0.00186164 0)
(-0.158705 0.0015734 0)
(-0.163559 0.00130544 0)
(-0.167521 0.00106288 0)
(-0.170656 0.000797734 0)
(-0.173001 0.000581115 0)
(-0.174555 0.000357295 0)
(-0.175392 0.000152509 0)
(-0.175615 -3.02804e-05 0)
(-0.175129 -0.000244049 0)
(-0.174025 -0.000416396 0)
(-0.172326 -0.000593658 0)
(-0.170005 -0.000783191 0)
(-0.167082 -0.00095549 0)
(-0.163562 -0.00114911 0)
(-0.159395 -0.0013304 0)
(-0.154588 -0.00153833 0)
(-0.149083 -0.00172175 0)
(-0.142908 -0.00195412 0)
(-0.136019 -0.00217754 0)
(-0.128347 -0.00237869 0)
(-0.119873 -0.0026304 0)
(-0.110606 -0.0028905 0)
(-0.100486 -0.00313576 0)
(-0.0895079 -0.00342048 0)
(-0.0776134 -0.00367253 0)
(-0.0648215 -0.00392442 0)
(-0.0511576 -0.00417834 0)
(-0.0367123 -0.00441123 0)
(-0.0215004 -0.00462868 0)
(-0.00553828 -0.00483284 0)
(0.0110106 -0.00499616 0)
(0.0280614 -0.00513328 0)
(0.0454614 -0.00522282 0)
(0.0630732 -0.00524512 0)
(0.0806865 -0.0052188 0)
(0.0980909 -0.00511781 0)
(0.115035 -0.00494227 0)
(0.131271 -0.00469821 0)
(0.146529 -0.00436693 0)
(0.160547 -0.00396201 0)
(0.173078 -0.00347882 0)
(0.183862 -0.0029238 0)
(0.19267 -0.00230622 0)
(0.199322 -0.00162824 0)
(0.203611 -0.000922852 0)
(0.205449 -0.000200069 0)
(0.20488 0.000550917 0)
(0.201684 0.00130872 0)
(0.196065 0.00201926 0)
(0.188143 0.00269694 0)
(0.177997 0.00333157 0)
(0.165825 0.00389155 0)
(0.151874 0.00437828 0)
(0.136434 0.00478972 0)
(0.119724 0.00515224 0)
(0.101988 0.00539389 0)
(0.0835225 0.00556993 0)
(0.0646041 0.00566881 0)
(0.0455477 0.0056635 0)
(0.0266 0.00559624 0)
(0.00801113 0.00546359 0)
(-0.0100284 0.00528623 0)
(-0.0274019 0.00506209 0)
(-0.0439666 0.00479994 0)
(-0.0596596 0.00453195 0)
(-0.074423 0.00423803 0)
(-0.088177 0.00394244 0)
(-0.100922 0.00365712 0)
(-0.112646 0.00333631 0)
(-0.123345 0.00303249 0)
(-0.133066 0.00274523 0)
(-0.141852 0.00247803 0)
(-0.149738 0.00220028 0)
(-0.156734 0.00196268 0)
(-0.162844 0.00168974 0)
(-0.168104 0.00144292 0)
(-0.172554 0.00120801 0)
(-0.176234 0.000980906 0)
(-0.17919 0.000773231 0)
(-0.181497 0.000608859 0)
(-0.183227 0.000418911 0)
(-0.184378 0.000263065 0)
(-0.184952 8.70959e-05 0)
(-0.18494 -9.89095e-05 0)
(-0.184305 -0.000282827 0)
(-0.182998 -0.000480916 0)
(-0.181033 -0.000682618 0)
(-0.178441 -0.000860834 0)
(-0.175204 -0.00106068 0)
(-0.171354 -0.00122876 0)
(-0.166899 -0.00141876 0)
(-0.161812 -0.00160341 0)
(-0.156088 -0.00179133 0)
(-0.149724 -0.00201709 0)
(-0.142597 -0.00221341 0)
(-0.134721 -0.00245912 0)
(-0.126059 -0.00270278 0)
(-0.116544 -0.00294634 0)
(-0.10622 -0.00320769 0)
(-0.0950165 -0.00345512 0)
(-0.0829651 -0.00370422 0)
(-0.0700728 -0.00396168 0)
(-0.056361 -0.0041858 0)
(-0.0418898 -0.0044167 0)
(-0.0267357 -0.00462041 0)
(-0.0109645 -0.00474863 0)
(0.00533551 -0.00490512 0)
(0.0219947 -0.00498968 0)
(0.0388534 -0.00503104 0)
(0.0557406 -0.00501484 0)
(0.0724649 -0.00492832 0)
(0.0888065 -0.00477864 0)
(0.104513 -0.00455607 0)
(0.11933 -0.00425807 0)
(0.133021 -0.00387098 0)
(0.145314 -0.00341799 0)
(0.155953 -0.00290244 0)
(0.164732 -0.00231151 0)
(0.171429 -0.00166686 0)
(0.175886 -0.000981984 0)
(0.177975 -0.000279719 0)
(0.177726 0.000419936 0)
(0.175032 0.00116187 0)
(0.169966 0.0018327 0)
(0.16269 0.00248352 0)
(0.153319 0.00309368 0)
(0.142015 0.003619 0)
(0.129006 0.00410345 0)
(0.11454 0.0045018 0)
(0.0988123 0.00484445 0)
(0.0820849 0.00509917 0)
(0.0646196 0.00528231 0)
(0.0466595 0.00538586 0)
(0.0284653 0.00543484 0)
(0.0102497 0.00541112 0)
(-0.00774624 0.00530156 0)
(-0.0253073 0.00515602 0)
(-0.0422508 0.00496052 0)
(-0.0584559 0.00472342 0)
(-0.0738885 0.00446381 0)
(-0.0883951 0.00419849 0)
(-0.101857 0.00390987 0)
(-0.114386 0.00360129 0)
(-0.125967 0.00331666 0)
(-0.136499 0.00300423 0)
(-0.146016 0.00273372 0)
(-0.154596 0.002395 0)
(-0.162219 0.00213923 0)
(-0.168806 0.00185125 0)
(-0.174499 0.00153222 0)
(-0.17929 0.00129964 0)
(-0.183059 0.000995927 0)
(-0.18594 0.000732119 0)
(-0.187942 0.000472912 0)
(-0.188985 0.000212869 0)
(-0.189114 -4.29153e-05 0)
(-0.188388 -0.000303392 0)
(-0.186912 -0.000528909 0)
(-0.184726 -0.000712746 0)
(-0.181985 -0.000888675 0)
(-0.178683 -0.00104351 0)
(-0.175092 -0.00113712 0)
(-0.171201 -0.00123396 0)
(-0.16691 -0.00135712 0)
(-0.162274 -0.00142911 0)
(-0.157245 -0.00156185 0)
(-0.151817 -0.00165399 0)
(-0.146053 -0.00176475 0)
(-0.139799 -0.0019434 0)
(-0.132966 -0.00209822 0)
(-0.12558 -0.00227324 0)
(-0.117488 -0.00253336 0)
(-0.108557 -0.00276103 0)
(-0.0988025 -0.00300671 0)
(-0.0880716 -0.00333796 0)
(-0.0763301 -0.00361321 0)
(-0.0635658 -0.00396803 0)
(-0.0496843 -0.00425248 0)
(-0.0347608 -0.00450003 0)
(-0.0189717 -0.00485956 0)
(-0.00248476 -0.00503954 0)
(0.0146585 -0.00518618 0)
(0.032404 -0.00536789 0)
(0.0505002 -0.00539175 0)
(0.0686621 -0.00542601 0)
(0.086651 -0.00530502 0)
(0.104158 -0.0050895 0)
(0.120892 -0.00485946 0)
(0.136597 -0.00449257 0)
(0.150992 -0.00404639 0)
(0.163821 -0.00356592 0)
(0.174863 -0.00299164 0)
(0.183925 -0.00238341 0)
(0.190861 -0.00172177 0)
(0.195563 -0.00103157 0)
(0.197967 -0.000344532 0)
(0.198037 0.000332742 0)
(0.195698 0.00103888 0)
(0.191065 0.00168151 0)
(0.184349 0.00230229 0)
(0.175678 0.00282456 0)
(0.165264 0.00332477 0)
(0.153315 0.00377003 0)
(0.140076 0.00407496 0)
(0.125801 0.00437257 0)
(0.11072 0.00460701 0)
(0.0950571 0.00470197 0)
(0.0790226 0.00481047 0)
(0.062794 0.00486844 0)
(0.0465289 0.00481416 0)
(0.0303301 0.00478902 0)
(0.0143045 0.00467078 0)
(-0.0012642 0.00458525 0)
(-0.016367 0.00447768 0)
(-0.0311084 0.00430344 0)
(-0.0453533 0.00416407 0)
(-0.0590484 0.00400722 0)
(-0.072146 0.00379822 0)
(-0.0846076 0.00361636 0)
(-0.0963951 0.00339045 0)
(-0.107475 0.00318664 0)
(-0.117814 0.00296956 0)
(-0.127379 0.00272205 0)
(-0.136144 0.00248732 0)
(-0.144084 0.00224236 0)
(-0.151174 0.00197984 0)
(-0.1574 0.00172343 0)
(-0.162745 0.00145631 0)
(-0.167203 0.00119335 0)
(-0.170766 0.000927982 0)
(-0.173435 0.000660431 0)
(-0.175211 0.000393431 0)
(-0.176072 0.000130471 0)
(-0.048481 -0.00714965 0)
(-0.0351508 -0.00767749 0)
(-0.0190875 -0.00807138 0)
(-0.00232216 -0.00846434 0)
(0.0149383 -0.00888939 0)
(0.0330682 -0.00911819 0)
(0.0517346 -0.00943197 0)
(0.0707526 -0.0094921 0)
(0.0899089 -0.00943849 0)
(0.108986 -0.00945415 0)
(0.12774 -0.00916263 0)
(0.145902 -0.00873864 0)
(0.163203 -0.00834439 0)
(0.179362 -0.00765832 0)
(0.194117 -0.00696619 0)
(0.207198 -0.00603593 0)
(0.21837 -0.0050108 0)
(0.227425 -0.0039381 0)
(0.234179 -0.00275102 0)
(0.238513 -0.00151492 0)
(0.240304 -0.000268024 0)
(0.239598 0.000980611 0)
(0.236275 0.00226962 0)
(0.23047 0.00346119 0)
(0.222308 0.00462918 0)
(0.211914 0.00562696 0)
(0.199506 0.00660787 0)
(0.185291 0.0075024 0)
(0.169512 0.00810812 0)
(0.152457 0.0087329 0)
(0.134382 0.00924074 0)
(0.115553 0.0094272 0)
(0.0962363 0.00966083 0)
(0.0766757 0.00960396 0)
(0.0570782 0.00960155 0)
(0.0376677 0.00949747 0)
(0.0184587 0.00915312 0)
(0.00028531 0.00889355 0)
(-0.0168545 0.0085544 0)
(-0.0335605 0.00808063 0)
(-0.0494052 0.00765321 0)
(-0.0643159 0.00713759 0)
(-0.0782549 0.00666824 0)
(-0.0911966 0.00618092 0)
(-0.10313 0.00566176 0)
(-0.114069 0.00517999 0)
(-0.124026 0.00470065 0)
(-0.133022 0.00422035 0)
(-0.141089 0.0037688 0)
(-0.148256 0.00332699 0)
(-0.154555 0.00289567 0)
(-0.160016 0.0024839 0)
(-0.164672 0.00207619 0)
(-0.16854 0.00168972 0)
(-0.171625 0.00130168 0)
(-0.173962 0.000914568 0)
(-0.175541 0.000558939 0)
(-0.176338 0.000196103 0)
(-0.176361 -0.000231104 0)
(-0.175597 -0.000591004 0)
(-0.174014 -0.00103924 0)
(-0.171628 -0.0013899 0)
(-0.168446 -0.00180343 0)
(-0.164404 -0.00225379 0)
(-0.159455 -0.00264761 0)
(-0.153657 -0.00305636 0)
(-0.146951 -0.00355612 0)
(-0.139403 -0.00396207 0)
(-0.130965 -0.00449817 0)
(-0.121487 -0.0049262 0)
(-0.111108 -0.00533347 0)
(-0.0998835 -0.0058227 0)
(-0.0876961 -0.00627749 0)
(-0.0746919 -0.00665843 0)
(-0.0608537 -0.00711552 0)
(-0.046172 -0.00748189 0)
(-0.0309033 -0.00787696 0)
(-0.0147204 -0.00815385 0)
(0.00230039 -0.00848595 0)
(0.0197105 -0.00868713 0)
(0.0374238 -0.00888545 0)
(0.0553808 -0.00895216 0)
(0.073474 -0.0090407 0)
(0.091595 -0.00898602 0)
(0.109596 -0.0088636 0)
(0.127286 -0.00870845 0)
(0.144535 -0.00842015 0)
(0.161137 -0.00802746 0)
(0.176828 -0.00746919 0)
(0.191256 -0.00674605 0)
(0.204058 -0.00586266 0)
(0.214912 -0.00482987 0)
(0.223551 -0.00366995 0)
(0.22976 -0.0024444 0)
(0.233412 -0.00116996 0)
(0.234455 8.96539e-05 0)
(0.232906 0.00138732 0)
(0.228695 0.0026704 0)
(0.222074 0.00387999 0)
(0.21308 0.00501375 0)
(0.201875 0.00606062 0)
(0.18863 0.0070059 0)
(0.173584 0.00784501 0)
(0.156967 0.00858353 0)
(0.139009 0.00916789 0)
(0.120014 0.00963735 0)
(0.100272 0.00991823 0)
(0.0800665 0.0100801 0)
(0.0597074 0.0100917 0)
(0.0394493 0.00997536 0)
(0.0195276 0.00975366 0)
(0.000172044 0.00943116 0)
(-0.0184498 0.00902586 0)
(-0.0361973 0.00855528 0)
(-0.0529472 0.00806203 0)
(-0.0686244 0.00749169 0)
(-0.083172 0.00692668 0)
(-0.0965698 0.00636663 0)
(-0.108814 0.00576898 0)
(-0.119905 0.00524586 0)
(-0.12985 0.00464474 0)
(-0.138704 0.00413233 0)
(-0.146484 0.00360154 0)
(-0.153234 0.00310624 0)
(-0.159014 0.00262479 0)
(-0.163862 0.00217551 0)
(-0.167822 0.00176803 0)
(-0.170959 0.00133751 0)
(-0.173306 0.000963708 0)
(-0.174866 0.000608196 0)
(-0.175701 0.000249828 0)
(-0.175925 -5.4651e-05 0)
(-0.175437 -0.000394764 0)
(-0.174342 -0.000694648 0)
(-0.172653 -0.000994508 0)
(-0.170334 -0.00129863 0)
(-0.167414 -0.00159561 0)
(-0.163888 -0.00190698 0)
(-0.159727 -0.00222433 0)
(-0.15492 -0.00255175 0)
(-0.149432 -0.00288207 0)
(-0.143248 -0.00324377 0)
(-0.136358 -0.00362327 0)
(-0.128674 -0.00397558 0)
(-0.120209 -0.00438566 0)
(-0.110935 -0.00481219 0)
(-0.100825 -0.00523072 0)
(-0.0898492 -0.00569651 0)
(-0.0779441 -0.00611279 0)
(-0.065145 -0.00654511 0)
(-0.0514785 -0.00696394 0)
(-0.0370417 -0.00737515 0)
(-0.0218171 -0.00770479 0)
(-0.00584056 -0.00806063 0)
(0.0107368 -0.00832771 0)
(0.0277991 -0.00855941 0)
(0.0452247 -0.00870742 0)
(0.0628569 -0.00874762 0)
(0.0804887 -0.00869199 0)
(0.0979062 -0.00854015 0)
(0.114865 -0.00825502 0)
(0.131129 -0.00783581 0)
(0.146416 -0.00727153 0)
(0.160457 -0.00660488 0)
(0.173012 -0.0057992 0)
(0.183812 -0.00487363 0)
(0.192636 -0.00384471 0)
(0.199298 -0.00272731 0)
(0.203605 -0.00154559 0)
(0.205459 -0.000324284 0)
(0.204877 0.000927745 0)
(0.201673 0.00217548 0)
(0.196059 0.00336677 0)
(0.188129 0.0044991 0)
(0.177967 0.00555379 0)
(0.165777 0.00649251 0)
(0.151805 0.00730213 0)
(0.136341 0.00798933 0)
(0.119601 0.00858078 0)
(0.101841 0.00899954 0)
(0.0833537 0.00929212 0)
(0.0644112 0.00945356 0)
(0.045327 0.00944449 0)
(0.0263583 0.00932821 0)
(0.00775735 0.00911038 0)
(-0.0103058 0.00881522 0)
(-0.0276923 0.0084279 0)
(-0.0442559 0.00800661 0)
(-0.0599606 0.00756558 0)
(-0.0747264 0.00707083 0)
(-0.0884866 0.00658417 0)
(-0.101241 0.00607844 0)
(-0.112966 0.0055576 0)
(-0.123661 0.00505372 0)
(-0.133377 0.0045804 0)
(-0.142171 0.0041455 0)
(-0.150063 0.0036706 0)
(-0.157067 0.00326673 0)
(-0.163173 0.00280885 0)
(-0.168424 0.00240856 0)
(-0.172872 0.0020187 0)
(-0.176547 0.00163522 0)
(-0.179502 0.00129354 0)
(-0.181816 0.00101137 0)
(-0.183546 0.000698504 0)
(-0.184695 0.000429364 0)
(-0.185267 0.000160346 0)
(-0.185261 -0.000168213 0)
(-0.184631 -0.000480216 0)
(-0.183321 -0.000781464 0)
(-0.181354 -0.00114158 0)
(-0.178756 -0.00142825 0)
(-0.175522 -0.00177517 0)
(-0.171666 -0.00204958 0)
(-0.167222 -0.00237704 0)
(-0.162119 -0.00265134 0)
(-0.1564 -0.0029983 0)
(-0.150021 -0.00335269 0)
(-0.142894 -0.0036893 0)
(-0.135026 -0.00409844 0)
(-0.126359 -0.00450053 0)
(-0.116859 -0.00491613 0)
(-0.106529 -0.00535566 0)
(-0.0953323 -0.00575045 0)
(-0.0832702 -0.00617746 0)
(-0.0703646 -0.00660306 0)
(-0.0566547 -0.00697941 0)
(-0.0421833 -0.00736099 0)
(-0.0270178 -0.00769803 0)
(-0.0112423 -0.0079337 0)
(0.00507442 -0.00817373 0)
(0.0217506 -0.00832241 0)
(0.0386225 -0.0083888 0)
(0.0555281 -0.00835944 0)
(0.0722777 -0.00821595 0)
(0.088643 -0.0079665 0)
(0.104369 -0.00759481 0)
(0.119204 -0.00710067 0)
(0.13291 -0.00645897 0)
(0.145213 -0.00570752 0)
(0.155875 -0.00483721 0)
(0.164673 -0.00384677 0)
(0.17138 -0.00277914 0)
(0.175849 -0.00163689 0)
(0.177951 -0.000463478 0)
(0.177695 0.000703747 0)
(0.174996 0.00192865 0)
(0.169948 0.00305821 0)
(0.162672 0.00414438 0)
(0.153294 0.00514792 0)
(0.141991 0.00604256 0)
(0.128971 0.00683844 0)
(0.114488 0.00750336 0)
(0.0987482 0.00807785 0)
(0.0820123 0.00850322 0)
(0.0645356 0.00880745 0)
(0.04656 0.00898441 0)
(0.0283509 0.00905242 0)
(0.0101277 0.00901941 0)
(-0.00787664 0.0088423 0)
(-0.0254504 0.00859108 0)
(-0.0423961 0.00826943 0)
(-0.0585977 0.00787688 0)
(-0.0740287 0.00744007 0)
(-0.0885321 0.00699989 0)
(-0.101997 0.00651667 0)
(-0.114517 0.00599915 0)
(-0.126091 0.00552923 0)
(-0.136614 0.0050108 0)
(-0.146136 0.00455134 0)
(-0.154703 0.00398987 0)
(-0.162311 0.00356399 0)
(-0.168906 0.00309114 0)
(-0.174587 0.0025519 0)
(-0.179374 0.00216616 0)
(-0.183145 0.00166521 0)
(-0.186024 0.00121991 0)
(-0.188032 0.000786282 0)
(-0.189067 0.000353022 0)
(-0.189185 -6.80144e-05 0)
(-0.188459 -0.00050687 0)
(-0.186976 -0.000884085 0)
(-0.184781 -0.00118721 0)
(-0.182031 -0.0014822 0)
(-0.178723 -0.00174191 0)
(-0.175125 -0.00189788 0)
(-0.171231 -0.00205543 0)
(-0.166938 -0.00226301 0)
(-0.162302 -0.00238152 0)
(-0.157275 -0.0026018 0)
(-0.151849 -0.00275572 0)
(-0.14609 -0.00294106 0)
(-0.139842 -0.00323873 0)
(-0.133016 -0.00349659 0)
(-0.125636 -0.00378805 0)
(-0.117551 -0.00421882 0)
(-0.108625 -0.00460236 0)
(-0.0988764 -0.00501424 0)
(-0.088151 -0.00556182 0)
(-0.0764117 -0.00602065 0)
(-0.0636475 -0.00661282 0)
(-0.0497625 -0.00708825 0)
(-0.0348396 -0.00749915 0)
(-0.0190402 -0.00810294 0)
(-0.00253718 -0.00840049 0)
(0.0146161 -0.00864617 0)
(0.0323795 -0.00894972 0)
(0.0504939 -0.0089897 0)
(0.0686776 -0.00904687 0)
(0.0866884 -0.00884512 0)
(0.104217 -0.00848589 0)
(0.120974 -0.00810287 0)
(0.1367 -0.00749119 0)
(0.151114 -0.0067474 0)
(0.163962 -0.00594623 0)
(0.17502 -0.00498864 0)
(0.184096 -0.0039746 0)
(0.19104 -0.00287044 0)
(0.195745 -0.00172427 0)
(0.198159 -0.000572496 0)
(0.198224 0.00055651 0)
(0.195866 0.00173367 0)
(0.191231 0.00280436 0)
(0.184504 0.00383946 0)
(0.175814 0.00471039 0)
(0.165383 0.00554431 0)
(0.153417 0.00628658 0)
(0.140157 0.00679464 0)
(0.125864 0.00729067 0)
(0.110766 0.00768125 0)
(0.0950863 0.00783918 0)
(0.0790374 0.0080197 0)
(0.0627962 0.00811602 0)
(0.0465207 0.00802519 0)
(0.0303127 0.00798314 0)
(0.0142798 0.00778615 0)
(-0.00129541 0.00764249 0)
(-0.016403 0.00746351 0)
(-0.0311479 0.00717307 0)
(-0.0453969 0.00694073 0)
(-0.0590959 0.00667926 0)
(-0.0721959 0.00633088 0)
(-0.0846609 0.00602774 0)
(-0.0964504 0.00565119 0)
(-0.107533 0.00531149 0)
(-0.117875 0.00494966 0)
(-0.127442 0.0045371 0)
(-0.136209 0.00414584 0)
(-0.144151 0.00373754 0)
(-0.151242 0.00329994 0)
(-0.157469 0.00287254 0)
(-0.162815 0.00242729 0)
(-0.167273 0.00198898 0)
(-0.170837 0.00154656 0)
(-0.173505 0.00110063 0)
(-0.175279 0.000656425 0)
(-0.176145 0.000216854 0)
(-0.0485941 -0.0100104 0)
(-0.0352601 -0.0107504 0)
(-0.0191917 -0.0113052 0)
(-0.00241489 -0.01185 0)
(0.0148634 -0.0124482 0)
(0.0330092 -0.0127695 0)
(0.0516942 -0.0132099 0)
(0.0707357 -0.0132947 0)
(0.0899181 -0.0132202 0)
(0.109025 -0.013243 0)
(0.127809 -0.0128351 0)
(0.146001 -0.0122415 0)
(0.163339 -0.0116898 0)
(0.179527 -0.0107289 0)
(0.194317 -0.00975969 0)
(0.207424 -0.00845653 0)
(0.218618 -0.00702043 0)
(0.227698 -0.00551778 0)
(0.234466 -0.00385476 0)
(0.238809 -0.00212617 0)
(0.240622 -0.000369305 0)
(0.239893 0.00138771 0)
(0.236562 0.00318163 0)
(0.23075 0.00484867 0)
(0.222572 0.00648551 0)
(0.212151 0.00788337 0)
(0.199718 0.00925754 0)
(0.185475 0.0105106 0)
(0.169662 0.0113587 0)
(0.152576 0.0122336 0)
(0.134469 0.0129447 0)
(0.115608 0.0132052 0)
(0.0962613 0.0135319 0)
(0.0766737 0.0134515 0)
(0.0570513 0.0134474 0)
(0.0376161 0.0133013 0)
(0.0183909 0.012817 0)
(0.000203819 0.0124548 0)
(-0.0169506 0.0119789 0)
(-0.0336649 0.0113148 0)
(-0.0495175 0.0107158 0)
(-0.0644314 0.00999341 0)
(-0.0783736 0.00933604 0)
(-0.0913164 0.00865338 0)
(-0.103248 0.00792623 0)
(-0.114186 0.00725157 0)
(-0.124141 0.00658057 0)
(-0.133132 0.00590797 0)
(-0.141196 0.00527588 0)
(-0.14836 0.00465742 0)
(-0.154655 0.0040539 0)
(-0.160113 0.00347776 0)
(-0.164765 0.00290672 0)
(-0.168631 0.00236765 0)
(-0.171716 0.00182273 0)
(-0.174049 0.00128211 0)
(-0.175633 0.000783567 0)
(-0.176441 0.000265913 0)
(-0.176454 -0.000323646 0)
(-0.17569 -0.000828095 0)
(-0.17411 -0.00145019 0)
(-0.171723 -0.00194501 0)
(-0.168544 -0.00252454 0)
(-0.164503 -0.00315517 0)
(-0.159557 -0.00370661 0)
(-0.153762 -0.0042793 0)
(-0.147059 -0.00497893 0)
(-0.139517 -0.00555004 0)
(-0.13108 -0.00629617 0)
(-0.121593 -0.00689736 0)
(-0.111216 -0.00746714 0)
(-0.0999979 -0.00815591 0)
(-0.0878031 -0.00878878 0)
(-0.0747994 -0.00932907 0)
(-0.0609542 -0.00995974 0)