/*--------------------------------*- C++ -*----------------------------------*\
| =========                 |                                                 |
| \\      /  F ield         | OpenFOAM: The Open Source CFD Toolbox           |
|  \\    /   O peration     | Version:  3.0.1                                 |
|   \\  /    A nd           | Web:      www.OpenFOAM.org                      |
|    \\/     M anipulation  |                                                 |
\*---------------------------------------------------------------------------*/
FoamFile
{
    version     2.0;
    format      ascii;
    class       surfaceScalarField;
    location    "47.4";
    object      phi;
}
// * * * * * * * * * * * * * * * * * * * * * * * * * * * * * * * * * * * * * //

dimensions      [0 3 -1 0 0 0 0];

internalField   nonuniform List<scalar> 
42423
(
-0.000137285
-7.34202e-06
-0.000128906
-8.3782e-06
-0.000119631
-9.27594e-06
-0.000109412
-1.0219e-05
-9.80471e-05
-1.13645e-05
-8.57502e-05
-1.22969e-05
-7.22906e-05
-1.34596e-05
-5.80012e-05
-1.42894e-05
-4.28967e-05
-1.51044e-05
-2.68216e-05
-1.60751e-05
-9.99453e-06
-1.68271e-05
7.48932e-06
-1.74839e-05
2.5615e-05
-1.81257e-05
4.41365e-05
-1.85216e-05
6.29823e-05
-1.88457e-05
8.19532e-05
-1.89709e-05
0.000100594
-1.86408e-05
0.000118785
-1.81911e-05
0.000136332
-1.75466e-05
0.000152849
-1.65179e-05
0.000168142
-1.52931e-05
0.000181978
-1.38358e-05
0.00019404
-1.20617e-05
0.000204188
-1.01483e-05
0.000212155
-7.96636e-06
0.00021784
-5.68546e-06
0.000221173
-3.33325e-06
0.000221985
-8.11244e-07
0.000220354
1.63099e-06
0.000216182
4.17133e-06
0.000209493
6.68904e-06
0.000200682
8.81113e-06
0.000189776
1.09057e-05
0.000177036
1.27407e-05
0.000162625
1.44102e-05
0.000146817
1.58085e-05
0.00012994
1.6877e-05
0.000112127
1.7813e-05
9.3698e-05
1.84289e-05
7.50411e-05
1.86569e-05
5.61436e-05
1.88975e-05
3.74367e-05
1.87069e-05
1.91006e-05
1.83361e-05
1.17018e-06
1.79304e-05
-1.61709e-05
1.7341e-05
-3.27867e-05
1.66158e-05
-4.8555e-05
1.57684e-05
-6.34274e-05
1.48724e-05
-7.73699e-05
1.39425e-05
-9.03304e-05
1.29605e-05
-0.000102319
1.19888e-05
-0.000113326
1.10066e-05
-0.000123357
1.00312e-05
-0.000132462
9.10536e-06
-0.000140639
8.17645e-06
-0.000147906
7.26716e-06
-0.000154322
6.41633e-06
-0.000159898
5.57573e-06
-0.000164639
4.74105e-06
-0.000168592
3.95244e-06
-0.000171763
3.17137e-06
-0.00017424
2.47736e-06
-0.000175968
1.72723e-06
-0.00017694
9.72597e-07
-0.000177262
3.21855e-07
-0.000176855
-4.07145e-07
-0.00017558
-1.27483e-06
-0.000173599
-1.98071e-06
-0.000170764
-2.83528e-06
-0.000167242
-3.52213e-06
-0.000162941
-4.30047e-06
-0.000157733
-5.20848e-06
-0.00015171
-6.02283e-06
-0.000144839
-6.87094e-06
-0.000137074
-7.7648e-06
-0.00012853
-8.54454e-06
-0.000119035
-9.4953e-06
-0.000108583
-1.04518e-05
-9.73861e-05
-1.11967e-05
-8.53502e-05
-1.20359e-05
-7.2468e-05
-1.28822e-05
-5.86826e-05
-1.37854e-05
-4.43238e-05
-1.43588e-05
-2.90913e-05
-1.52325e-05
-1.31674e-05
-1.59238e-05
3.32936e-06
-1.64968e-05
2.03706e-05
-1.70413e-05
3.79149e-05
-1.75443e-05
5.57148e-05
-1.77999e-05
7.36568e-05
-1.79421e-05
9.15081e-05
-1.78514e-05
0.000109066
-1.7558e-05
0.000126081
-1.70145e-05
0.000142325
-1.62445e-05
0.00015759
-1.5265e-05
0.000171611
-1.40213e-05
0.000184173
-1.25621e-05
0.000195062
-1.0889e-05
0.000204118
-9.05568e-06
0.000211145
-7.02665e-06
0.000216041
-4.89661e-06
0.000218637
-2.59619e-06
0.000218939
-3.01635e-07
0.000216893
2.04572e-06
0.000212422
4.47086e-06
0.00020568
6.74228e-06
0.000196702
8.97847e-06
0.000185634
1.10674e-05
0.000172676
1.29585e-05
0.000158047
1.46292e-05
0.000141916
1.61301e-05
0.000124613
1.73031e-05
0.000106413
1.82005e-05
8.75868e-05
1.8826e-05
6.83822e-05
1.92046e-05
4.90902e-05
1.9292e-05
2.9946e-05
1.91442e-05
1.11622e-05
1.87837e-05
-7.04627e-06
1.82085e-05
-2.45375e-05
1.74912e-05
-4.12116e-05
1.66741e-05
-5.68995e-05
1.5688e-05
-7.15729e-05
1.46734e-05
-8.51312e-05
1.35582e-05
-9.75905e-05
1.24593e-05
-0.000109017
1.14263e-05
-0.000119273
1.02566e-05
-0.00012853
9.25669e-06
-0.00013665
8.11994e-06
-0.000143846
7.19604e-06
-0.00015
6.15414e-06
-0.000155229
5.22855e-06
-0.00015958
4.35125e-06
-0.000163081
3.50128e-06
-0.000165848
2.76634e-06
-0.000167859
2.01118e-06
-0.000169208
1.34906e-06
-0.000169893
6.85503e-07
-0.000169997
1.038e-07
-0.000169581
-4.16098e-07
-0.000168525
-1.05637e-06
-0.000166919
-1.60563e-06
-0.000164718
-2.2012e-06
-0.000162067
-2.65115e-06
-0.000158806
-3.26088e-06
-0.00015497
-3.83576e-06
-0.000150537
-4.43278e-06
-0.000145616
-4.92145e-06
-0.000140008
-5.60805e-06
-0.000133744
-6.26389e-06
-0.000126752
-6.99237e-06
-0.000119034
-7.71803e-06
-0.000110535
-8.49856e-06
-0.000101227
-9.30796e-06
-9.11039e-05
-1.01231e-05
-8.01228e-05
-1.09811e-05
-6.83358e-05
-1.1787e-05
-5.56792e-05
-1.26566e-05
-4.21508e-05
-1.35284e-05
-2.7855e-05
-1.42958e-05
-1.27533e-05
-1.51018e-05
2.94469e-06
-1.5698e-05
1.92656e-05
-1.63209e-05
3.60038e-05
-1.67382e-05
5.30903e-05
-1.70865e-05
7.03243e-05
-1.7234e-05
8.74435e-05
-1.71192e-05
0.000104283
-1.68397e-05
0.000120594
-1.63112e-05
0.000136154
-1.556e-05
0.000150644
-1.44898e-05
0.000163867
-1.32232e-05
0.00017554
-1.16731e-05
0.000185438
-9.89772e-06
0.000193331
-7.89281e-06
0.000199042
-5.71131e-06
0.000202421
-3.37859e-06
0.000203371
-9.50437e-07
0.000201841
1.52964e-06
0.000197811
4.03042e-06
0.000191378
6.43272e-06
0.000182706
8.6726e-06
0.000172018
1.06879e-05
0.000159415
1.26024e-05
0.000145316
1.40994e-05
0.0001299
1.54161e-05
0.000113447
1.64533e-05
9.62383e-05
1.72082e-05
7.84664e-05
1.77719e-05
6.03078e-05
1.81586e-05
4.2016e-05
1.82917e-05
2.38785e-05
1.81375e-05
6.09158e-06
1.77869e-05
-1.11001e-05
1.71917e-05
-2.75429e-05
1.64428e-05
-4.31112e-05
1.55684e-05
-5.76732e-05
1.4562e-05
-7.12291e-05
1.35559e-05
-8.37465e-05
1.25174e-05
-9.52686e-05
1.15221e-05
-0.000105844
1.05758e-05
-0.00011549
9.64554e-06
-0.000124251
8.76162e-06
-0.000132165
7.91312e-06
-0.000139232
7.06768e-06
-0.000145456
6.2239e-06
-0.000150953
5.49675e-06
-0.000155636
4.6827e-06
-0.000159569
3.93293e-06
-0.000162745
3.17625e-06
-0.000165246
2.50131e-06
-0.000167203
1.95684e-06
-0.000168527
1.32421e-06
-0.000169305
7.77654e-07
-0.000169583
2.78298e-07
-0.000169352
-2.30997e-07
-0.000168558
-7.93689e-07
-0.0001673
-1.25873e-06
-0.000165432
-1.86761e-06
-0.000162999
-2.43295e-06
-0.000159922
-3.07671e-06
-0.000156308
-3.61475e-06
-0.000152006
-4.30128e-06
-0.000147049
-4.95777e-06
-0.000141513
-5.53602e-06
-0.000135228
-6.28482e-06
-0.000128238
-6.98946e-06
-0.000120574
-7.66476e-06
-0.000112113
-8.46085e-06
-0.00010282
-9.29274e-06
-9.28343e-05
-9.98581e-06
-8.19613e-05
-1.0873e-05
-7.02746e-05
-1.16866e-05
-5.77767e-05
-1.24979e-05
-4.44813e-05
-1.32955e-05
-3.03917e-05
-1.40896e-05
-1.56436e-05
-1.47481e-05
-2.43579e-07
-1.54e-05
1.57188e-05
-1.59624e-05
3.2126e-05
-1.64072e-05
4.88177e-05
-1.66917e-05
6.56645e-05
-1.68468e-05
8.24327e-05
-1.67682e-05
9.89545e-05
-1.65218e-05
0.000114959
-1.60048e-05
0.000130175
-1.52155e-05
0.000144346
-1.41713e-05
0.000157212
-1.28657e-05
0.000168525
-1.13131e-05
0.000178048
-9.5236e-06
0.000185582
-7.53407e-06
0.000190948
-5.36553e-06
0.000194011
-3.06285e-06
0.000194632
-6.20765e-07
0.000192879
1.75258e-06
0.000188639
4.23985e-06
0.000182023
6.61642e-06
0.000173183
8.8401e-06
0.000162287
1.08957e-05
0.000149525
1.27615e-05
0.000135141
1.43844e-05
0.000119415
1.57255e-05
0.000102654
1.67615e-05
8.51843e-05
1.74695e-05
6.71741e-05
1.80102e-05
4.90958e-05
1.80783e-05
3.11261e-05
1.79696e-05
1.34858e-05
1.76403e-05
-3.67446e-06
1.71603e-05
-2.00848e-05
1.64104e-05
-3.56834e-05
1.55986e-05
-5.02897e-05
1.46063e-05
-6.39197e-05
1.363e-05
-7.64646e-05
1.25449e-05
-8.79288e-05
1.14642e-05
-9.82421e-05
1.03134e-05
-0.000107442
9.20023e-06
-0.000115601
8.15823e-06
-0.0001226
6.99906e-06
-0.000128609
6.00903e-06
-0.000133654
5.04512e-06
-0.000137807
4.15275e-06
-0.000141248
3.44192e-06
-0.000143987
2.73857e-06
-0.000146115
2.12745e-06
-0.000147752
1.63743e-06
-0.000148941
1.18899e-06
-0.000149643
7.02145e-07
-0.000150031
3.87894e-07
-0.00014995
-8.0877e-08
-0.00014952
-4.29861e-07
-0.000148752
-7.6786e-07
-0.000147558
-1.19421e-06
-0.000146064
-1.49446e-06
-0.000144204
-1.85943e-06
-0.000141911
-2.29377e-06
-0.00013924
-2.67008e-06
-0.000136134
-3.10629e-06
-0.000132284
-3.85053e-06
-0.000127974
-4.30939e-06
-0.000122946
-5.02778e-06
-0.000117093
-5.8537e-06
-0.000110523
-6.56984e-06
-0.000103025
-7.49759e-06
-9.44921e-05
-8.53323e-06
-8.50197e-05
-9.47248e-06
-7.4389e-05
-1.06306e-05
-6.2747e-05
-1.16421e-05
-4.97722e-05
-1.29748e-05
-3.57521e-05
-1.402e-05
-2.09467e-05
-1.48054e-05
-5.14589e-06
-1.58008e-05
1.14896e-05
-1.66355e-05
2.85735e-05
-1.70839e-05
4.61598e-05
-1.75863e-05
6.39359e-05
-1.77761e-05
8.1725e-05
-1.77891e-05
9.93263e-05
-1.76014e-05
0.000116397
-1.70709e-05
0.000132737
-1.63401e-05
0.000148124
-1.53863e-05
0.00016224
-1.41165e-05
0.000174981
-1.27412e-05
0.000186049
-1.10683e-05
0.000195306
-9.25694e-06
0.000202643
-7.33687e-06
0.000207914
-5.27052e-06
0.000211023
-3.10968e-06
0.00021199
-9.66461e-07
0.0002108
1.19007e-06
0.000207459
3.34096e-06
0.000202062
5.39646e-06
0.000194747
7.31511e-06
0.000185736
9.01156e-06
0.000175092
1.06441e-05
0.000163189
1.19027e-05
0.000150119
1.30698e-05
0.000135959
1.41604e-05
0.000121065
1.4894e-05
0.000105626
1.5439e-05
8.96681e-05
1.59575e-05
7.34909e-05
1.61771e-05
5.73042e-05
1.61867e-05
4.12098e-05
1.60944e-05
2.52411e-05
1.59686e-05
9.56239e-06
1.56787e-05
-5.60534e-06
1.51677e-05
-2.03168e-05
1.47114e-05
-3.44382e-05
1.41215e-05
-4.78885e-05
1.34503e-05
-6.06388e-05
1.27503e-05
-7.26253e-05
1.19865e-05
-8.38502e-05
1.12249e-05
-9.42625e-05
1.04124e-05
-0.000103838
9.57542e-06
-0.000112595
8.75674e-06
7.81456e-06
-0.000137324
-1.46796e-05
-0.000128948
-1.67538e-05
-0.000119676
-1.85486e-05
-0.000109458
-2.04371e-05
-9.80945e-05
-2.27275e-05
-8.57959e-05
-2.45956e-05
-7.23369e-05
-2.69186e-05
-5.80437e-05
-2.85827e-05
-4.29345e-05
-3.02137e-05
-2.68554e-05
-3.21542e-05
-1.00186e-05
-3.3664e-05
7.46417e-06
-3.49667e-05
2.55964e-05
-3.62579e-05
4.41341e-05
-3.70593e-05
6.29989e-05
-3.77106e-05
8.19755e-05
-3.79476e-05
0.000100621
-3.72861e-05
0.000118825
-3.63957e-05
0.000136396
-3.51167e-05
0.000152925
-3.30473e-05
0.000168221
-3.05888e-05
0.000182072
-2.76872e-05
0.000194146
-2.41354e-05
0.000204299
-2.03014e-05
0.000212272
-1.594e-05
0.000217972
-1.13853e-05
0.00022131
-6.67124e-06
0.000222113
-1.61415e-06
0.000220474
3.26986e-06
0.0002163
8.34563e-06
0.000209608
1.33808e-05
0.000200787
1.76321e-05
0.000189871
2.18217e-05
0.000177123
2.54888e-05
0.000162702
2.88308e-05
0.000146878
3.16329e-05
0.000129992
3.37625e-05
0.000112166
3.5639e-05
9.37235e-05
3.68715e-05
7.50602e-05
3.73202e-05
5.61506e-05
3.78071e-05
3.74316e-05
3.74259e-05
1.90912e-05
3.66765e-05
1.15071e-06
3.58709e-05
-1.61945e-05
3.46862e-05
-3.28148e-05
3.32362e-05
-4.85882e-05
3.15417e-05
-6.34645e-05
2.97487e-05
-7.74113e-05
2.78893e-05
-9.03757e-05
2.59249e-05
-0.000102367
2.39805e-05
-0.000113378
2.20172e-05
-0.000123413
2.00662e-05
-0.000132518
1.82102e-05
-0.000140698
1.63568e-05
-0.000147973
1.45417e-05
-0.000154385
1.2829e-05
-0.00015996
1.11507e-05
-0.000164709
9.48932e-06
-0.000168663
7.90724e-06
-0.000171833
6.34103e-06
-0.00017431
4.9541e-06
-0.000176039
3.45654e-06
-0.000177011
1.94452e-06
-0.00017733
6.40599e-07
-0.000176922
-8.14499e-07
-0.000175648
-2.54962e-06
-0.000173669
-3.95951e-06
-0.00017083
-5.67381e-06
-0.000167313
-7.03977e-06
-0.000163012
-8.60091e-06
-0.000157802
-1.04185e-05
-0.000151773
-1.20516e-05
-0.000144906
-1.37387e-05
-0.000137144
-1.55267e-05
-0.000128594
-1.70946e-05
-0.000119096
-1.89932e-05
-0.000108639
-2.09082e-05
-9.74492e-05
-2.23869e-05
-8.54076e-05
-2.40775e-05
-7.25084e-05
-2.57814e-05
-5.87227e-05
-2.75711e-05
-4.43671e-05
-2.87145e-05
-2.91277e-05
-3.0472e-05
-1.31903e-05
-3.18612e-05
3.30281e-06
-3.299e-05
2.03475e-05
-3.4086e-05
3.79109e-05
-3.51077e-05
5.57173e-05
-3.56063e-05
7.36672e-05
-3.5892e-05
9.15349e-05
-3.57191e-05
0.000109094
-3.51175e-05
0.000126116
-3.40361e-05
0.000142367
-3.24957e-05
0.000157637
-3.05354e-05
0.00017166
-2.80434e-05
0.00018423
-2.51322e-05
0.000195137
-2.17961e-05
0.000204193
-1.81121e-05
0.000211229
-1.40623e-05
0.000216136
-9.80355e-06
0.000218733
-5.19394e-06
0.000219032
-6.00178e-07
0.000216981
4.09679e-06
0.000212512
8.93981e-06
0.000205764
1.34903e-05
0.000196783
1.79586e-05
0.000185716
2.21346e-05
0.000172743
2.59318e-05
0.000158105
2.92674e-05
0.000141961
3.22733e-05
0.00012465
3.46144e-05
0.000106435
3.64153e-05
8.75927e-05
3.76686e-05
6.83674e-05
3.84299e-05
4.90601e-05
3.85992e-05
2.98986e-05
3.83057e-05
1.11017e-05
3.75806e-05
-7.11569e-06
3.64259e-05
-2.46178e-05
3.49933e-05
-4.1295e-05
3.33513e-05
-5.69931e-05
3.13861e-05
-7.16713e-05
2.93515e-05
-8.52395e-05
2.71264e-05
-9.76987e-05
2.49186e-05
-0.000109134
2.28618e-05
-0.000119402
2.05247e-05
-0.000128647
1.8501e-05
-0.000136777
1.62503e-05
-0.000143974
1.43934e-05
-0.000150126
1.23059e-05
-0.000155363
1.04653e-05
-0.000159712
8.70068e-06
-0.000163215
7.00372e-06
-0.000165974
5.52525e-06
-0.000167993
4.03057e-06
-0.000169342
2.69764e-06
-0.000170024
1.36804e-06
-0.000170122
2.01134e-07
-0.000169709
-8.28993e-07
-0.000168654
-2.11097e-06
-0.000167049
-3.21099e-06
-0.000164849
-4.40063e-06
-0.000162211
-5.28987e-06
-0.00015894
-6.53099e-06
-0.000155096
-7.67982e-06
-0.000150697
-8.83225e-06
-0.000145745
-9.87312e-06
-0.00014014
-1.12128e-05
-0.000133849
-1.2555e-05
-0.000126877
-1.39648e-05
-0.000119162
-1.54329e-05
-0.000110663
-1.6998e-05
-0.000101373
-1.85976e-05
-9.12428e-05
-2.02533e-05
-8.02154e-05
-2.20085e-05
-6.84551e-05
-2.35474e-05
-5.58007e-05
-2.5311e-05
-4.22756e-05
-2.70535e-05
-2.79593e-05
-2.86122e-05
-1.28387e-05
-3.02223e-05
2.84785e-06
-3.13846e-05
1.91832e-05
-3.26563e-05
3.5942e-05
-3.34971e-05
5.30374e-05
-3.41819e-05
7.02764e-05
-3.44731e-05
8.74104e-05
-3.42533e-05
0.000104268
-3.36972e-05
0.000120587
-3.26304e-05
0.000136157
-3.11301e-05
0.000150671
-2.90036e-05
0.000163904
-2.64562e-05
0.000175596
-2.33651e-05
0.000185508
-1.98095e-05
0.000193409
-1.57944e-05
0.000199133
-1.14355e-05
0.000202516
-6.76074e-06
0.00020347
-1.90464e-06
0.000201937
3.06221e-06
0.000197911
8.05651e-06
0.000191469
1.28744e-05
0.000182788
1.73535e-05
0.000172075
2.14012e-05
0.000159468
2.5209e-05
0.000145361
2.82064e-05
0.000129945
3.08321e-05
0.000113481
3.29175e-05
9.62525e-05
3.44368e-05
7.84489e-05
3.55755e-05
6.02902e-05
3.63173e-05
4.19858e-05
3.65961e-05
2.38335e-05
3.62898e-05
6.0348e-06
3.55856e-05
-1.11814e-05
3.44078e-05
-2.76267e-05
3.28881e-05
-4.31995e-05
3.11411e-05
-5.77747e-05
2.91372e-05
-7.13393e-05
2.71204e-05
-8.38584e-05
2.50365e-05
-9.5377e-05
2.30406e-05
-0.000105951
2.11496e-05
-0.000115599
1.92935e-05
-0.000124365
1.75279e-05
-0.000132284
1.58315e-05
-0.000139354
1.41379e-05
-0.000145579
1.24494e-05
-0.000151074
1.09918e-05
-0.00015576
9.36789e-06
-0.0001597
7.87353e-06
-0.000162878
6.35424e-06
-0.000165383
5.00648e-06
-0.000167332
3.90517e-06
-0.000168657
2.64903e-06
-0.000169439
1.56007e-06
-0.000169712
5.51739e-07
-0.000169484
-4.5903e-07
-0.000168688
-1.59024e-06
-0.000167439
-2.50754e-06
-0.000165569
-3.73719e-06
-0.000163132
-4.87047e-06
-0.000160073
-6.13548e-06
-0.00015644
-7.24824e-06
-0.000152143
-8.5977e-06
-0.000147181
-9.92037e-06
-0.00014165
-1.10662e-05
-0.000135361
-1.25744e-05
-0.000128366
-1.39843e-05
-0.000120706
-1.53251e-05
-0.000112242
-1.69243e-05
-0.000102978
-1.8557e-05
-9.29598e-05
-2.0004e-05
-8.2096e-05
-2.17368e-05
-7.04091e-05
-2.33736e-05
-5.78951e-05
-2.50119e-05
-4.45838e-05
-2.66068e-05
-3.04923e-05
-2.81812e-05
-1.57344e-05
-2.9506e-05
-3.12023e-07
-3.08225e-05
1.56456e-05
-3.192e-05
3.20546e-05
-3.28162e-05
4.8762e-05
-3.33992e-05
6.56263e-05
-3.37111e-05
8.24028e-05
-3.35448e-05
9.89385e-05
-3.30575e-05
0.000114971
-3.20377e-05
0.000130187
-3.0431e-05
0.000144375
-2.836e-05
0.000157259
-2.57495e-05
0.00016858
-2.26341e-05
0.000178119
-1.9062e-05
0.000185674
-1.50892e-05
0.000191042
-1.07339e-05
0.000194114
-6.13507e-06
0.000194741
-1.24802e-06
0.000192968
3.52594e-06
0.000188724
8.48427e-06
0.00018211
1.32297e-05
0.000173266
1.76842e-05
0.000162355
2.18072e-05
0.00014957
2.55464e-05
0.000135172
2.87819e-05
0.000119434
3.14642e-05
0.000102656
3.35391e-05
8.51553e-05
3.49701e-05
6.71458e-05
3.60197e-05
4.90488e-05
3.61753e-05
3.10723e-05
3.59461e-05
1.34139e-05
3.52987e-05
-3.73685e-06
3.4311e-05
-2.0153e-05
3.28265e-05
-3.57573e-05
3.12029e-05
-5.03623e-05
2.92113e-05
-6.39896e-05
2.72573e-05
-7.65395e-05
2.50948e-05
-8.80025e-05
2.29272e-05
-9.83132e-05
2.0624e-05
-0.000107515
1.84025e-05
-0.00011568
1.63229e-05
-0.000122679
1.3998e-05
-0.000128688
1.2018e-05
-0.000133733
1.00902e-05
-0.000137875
8.29442e-06
-0.000141312
6.87929e-06
-0.000144044
5.4703e-06
-0.000146169
4.25231e-06
-0.000147806
3.27468e-06
-0.000148993
2.37568e-06
-0.000149692
1.40136e-06
-0.00015008
7.76313e-07
-0.000149994
-1.66778e-07
-0.000149562
-8.62048e-07
-0.000148793
-1.53732e-06
-0.000147599
-2.3878e-06
-0.000146106
-2.98733e-06
-0.000144245
-3.72084e-06
-0.000141955
-4.58325e-06
-0.000139286
-5.33974e-06
-0.000136185
-6.20687e-06
-0.000132332
-7.70367e-06
-0.000128034
-8.60787e-06
-0.000123004
-1.00572e-05
-0.000117147
-1.1711e-05
-0.000110585
-1.31322e-05
-0.000103088
-1.49938e-05
-9.45496e-05
-1.7072e-05
-8.50824e-05
-1.89398e-05
-7.4451e-05
-2.1262e-05
-6.27959e-05
-2.32972e-05
-4.98272e-05
-2.59435e-05
-3.58042e-05
-2.80431e-05
-2.09934e-05
-2.96163e-05
-5.17434e-06
-3.16199e-05
1.14604e-05
-3.32702e-05
2.85533e-05
-3.41769e-05
4.61479e-05
-3.51809e-05
6.39355e-05
-3.55637e-05
8.1741e-05
-3.55946e-05
9.93541e-05
-3.52145e-05
0.000116434
-3.41509e-05
0.000132789
-3.26946e-05
0.000148193
-3.07912e-05
0.000162319
-2.82424e-05
0.000175065
-2.54865e-05
0.000186147
-2.2151e-05
0.000195423
-1.85323e-05
0.000202762
-1.4676e-05
0.000208028
-1.0537e-05
0.00021114
-6.22175e-06
0.000212108
-1.93442e-06
0.000210906
2.39236e-06
0.000207561
6.68534e-06
0.00020216
1.07975e-05
0.000194838
1.46375e-05
0.000185821
1.80288e-05
0.000175168
2.12965e-05
0.000163254
2.3817e-05
0.000150177
2.6147e-05
0.00013601
2.83273e-05
0.000121101
2.98032e-05
0.00010565
3.08895e-05
8.9688e-05
3.19196e-05
7.35018e-05
3.23634e-05
5.73061e-05
3.23824e-05
4.12072e-05
3.21933e-05
2.52323e-05
3.19435e-05
9.54727e-06
3.13638e-05
-5.62177e-06
3.03368e-05
-2.03365e-05
2.94261e-05
-3.44608e-05
2.82458e-05
-4.79122e-05
2.69017e-05
-6.06646e-05
2.55026e-05
-7.26539e-05
2.39758e-05
-8.38798e-05
2.24508e-05
-9.42935e-05
2.08261e-05
-0.00010387
1.91514e-05
-0.000112629
1.75159e-05
1.56285e-05
-0.000137395
-2.20152e-05
-0.000129021
-2.51278e-05
-0.000119752
-2.78176e-05
-0.000109533
-3.0656e-05
-9.81735e-05
-3.40875e-05
-8.58715e-05
-3.68976e-05
-7.24165e-05
-4.03736e-05
-5.81177e-05
-4.28815e-05
-4.29981e-05
-4.53333e-05
-2.69172e-05
-4.82351e-05
-1.00693e-05
-5.05119e-05
7.43579e-06
-5.24718e-05
2.5596e-05
-5.44181e-05
4.415e-05
-5.56134e-05
6.30231e-05
-5.65837e-05
8.20192e-05
-5.69437e-05
0.000100696
-5.59627e-05
0.000118923
-5.46231e-05
0.000136503
-5.26962e-05
0.000153051
-4.95959e-05
0.000168373
-4.59103e-05
0.000182241
-4.15557e-05
0.000194332
-3.62266e-05
0.000204498
-3.04674e-05
0.000212489
-2.39311e-05
0.000218188
-1.70844e-05
0.000221529
-1.00119e-05
0.000222327
-2.4121e-06
0.000220663
4.93352e-06
0.000216484
1.25252e-05
0.000209791
2.00736e-05
0.000200949
2.64738e-05
0.000190014
3.27569e-05
0.000177254
3.82486e-05
0.000162821
4.32643e-05
0.000146963
4.74902e-05
0.000130063
5.06632e-05
0.000112214
5.34876e-05
9.37476e-05
5.5338e-05
7.5058e-05
5.60098e-05
5.61425e-05
5.67225e-05
3.7403e-05
5.61654e-05
1.90567e-05
5.50228e-05
1.09595e-06
5.38316e-05
-1.62576e-05
5.20398e-05
-3.28868e-05
4.98654e-05
-4.8667e-05
4.73219e-05
-6.35479e-05
4.46296e-05
-7.7499e-05
4.18404e-05
-9.04652e-05
3.88912e-05
-0.000102457
3.59721e-05
-0.000113467
3.30277e-05
-0.000123504
3.01032e-05
-0.000132609
2.73149e-05
-0.000140787
2.45346e-05
-0.000148061
2.1816e-05
-0.00015447
1.92383e-05
-0.000160045
1.67253e-05
-0.000164792
1.42367e-05
-0.000168741
1.18556e-05
-0.000171909
9.50969e-06
-0.000174385
7.42928e-06
-0.000176115
5.18711e-06
-0.000177084
2.91354e-06
-0.000177396
9.52042e-07
-0.000176983
-1.22683e-06
-0.000175707
-3.82622e-06
-0.000173731
-5.93561e-06
-0.000170897
-8.50774e-06
-0.000167379
-1.05576e-05
-0.000163081
-1.28987e-05
-0.000157871
-1.56288e-05
-0.00015184
-1.80827e-05
-0.000144976
-2.06027e-05
-0.000137218
-2.32848e-05
-0.000128669
-2.56435e-05
-0.000119168
-2.84938e-05
-0.00010871
-3.13661e-05
-9.75237e-05
-3.35735e-05
-8.5477e-05
-3.61242e-05
-7.25701e-05
-3.86883e-05
-5.87869e-05
-4.13544e-05
-4.44334e-05
-4.3068e-05
-2.91919e-05
-4.57135e-05
-1.32465e-05
-4.78066e-05
3.24119e-06
-4.94777e-05
2.02938e-05
-5.11387e-05
3.78692e-05
-5.26831e-05
5.56825e-05
-5.34196e-05
7.36455e-05
-5.3855e-05
9.1564e-05
-5.36376e-05
0.000109106
-5.26591e-05
0.00012613
-5.10608e-05
0.0001424
-4.87654e-05
0.000157676
-4.58116e-05
0.000171717
-4.2084e-05
0.000184302
-3.77176e-05
0.00019524
-3.27341e-05
0.000204287
-2.71585e-05
0.000211335
-2.11109e-05
0.000216246
-1.47146e-05
0.000218844
-7.7921e-06
0.000219136
-8.92399e-07
0.000217072
6.16135e-06
0.000212614
1.33974e-05
0.000205851
2.02536e-05
0.000196858
2.69515e-05
0.000185788
3.3204e-05
0.000172783
3.89373e-05
0.000158099
4.39515e-05
0.000141968
4.84039e-05
0.000124635
5.19479e-05
0.000106393
5.46564e-05
8.75621e-05
5.65e-05
6.82854e-05
5.77065e-05
4.89552e-05
5.79295e-05
2.97766e-05
5.74842e-05
1.09601e-05
5.63971e-05
-7.28275e-06
5.46688e-05
-2.4805e-05
5.25155e-05
-4.14774e-05
5.00237e-05
-5.71787e-05
4.70874e-05
-7.18625e-05
4.40352e-05
-8.54391e-05
4.0703e-05
-9.79327e-05
3.74122e-05
-0.000109329
3.42577e-05
-0.000119613
3.08088e-05
-0.000128839
2.77275e-05
-0.000136962
2.43731e-05
-0.000144162
2.15933e-05
-0.000150314
1.84584e-05
-0.000155548
1.56993e-05
-0.000159892
1.30441e-05
-0.000163399
1.05105e-05
-0.00016615
8.27703e-06
-0.000168165
6.04494e-06
-0.000169515
4.04799e-06
-0.000170191
2.04346e-06
-0.000170279
2.89369e-07
-0.000169865
-1.24325e-06
-0.000168813
-3.16215e-06
-0.000167211
-4.81382e-06
-0.000165069
-6.5421e-06
-0.000162374
-7.98493e-06
-0.000159097
-9.8079e-06
-0.000155262
-1.1515e-05
-0.000150891
-1.32035e-05
-0.000145908
-1.48559e-05
-0.000140306
-1.68147e-05
-0.000133984
-1.88765e-05
-0.000127054
-2.08951e-05
-0.000119332
-2.31551e-05
-0.000110821
-2.55087e-05
-0.000101554
-2.78652e-05
-9.14259e-05
-3.03813e-05
-8.04025e-05
-3.30319e-05
-6.86429e-05
-3.5307e-05
-5.59796e-05
-3.79744e-05
-4.24498e-05
-4.05833e-05
-2.81174e-05
-4.29446e-05
-1.29931e-05
-4.53467e-05
2.70777e-06
-4.70854e-05
1.90492e-05
-4.89977e-05
3.58236e-05
-5.02715e-05
5.29278e-05
-5.12862e-05
7.01917e-05
-5.1737e-05
8.73497e-05
-5.14113e-05
0.000104217
-5.05649e-05
0.000120561
-4.89742e-05
0.000136144
-4.67126e-05
0.000150678
-4.35385e-05
0.000163942
-3.97197e-05
0.000175648
-3.50712e-05
0.000185576
-2.97378e-05
0.000193508
-2.37262e-05
0.000199258
-1.71856e-05
0.000202624
-1.0127e-05
0.00020358
-2.86063e-06
0.000202024
4.61843e-06
0.000198003
1.20772e-05
0.000191554
1.93241e-05
0.000182852
2.6055e-05
0.000172109
3.21448e-05
0.0001595
3.78171e-05
0.000145372
4.2335e-05
0.000129933
4.62708e-05
0.000113441
4.94094e-05
9.61928e-05
5.16851e-05
7.83672e-05
5.34011e-05
6.02037e-05
5.44808e-05
4.18828e-05
5.4917e-05
2.37064e-05
5.44662e-05
5.89008e-06
5.34019e-05
-1.13589e-05
5.16568e-05
-2.78432e-05
4.93724e-05
-4.33841e-05
4.6682e-05
-5.7999e-05
4.37521e-05
-7.1528e-05
4.06495e-05
-8.40471e-05
3.75556e-05
-9.55633e-05
3.45568e-05
-0.000106135
3.17209e-05
-0.00011578
2.8939e-05
-0.000124553
2.63008e-05
-0.000132466
2.37443e-05
-0.000139535
2.12073e-05
-0.000145783
1.86967e-05
-0.000151248
1.64577e-05
-0.000155924
1.40436e-05
-0.000159865
1.18148e-05
-0.00016305
9.5385e-06
-0.000165595
7.55188e-06
-0.000167503
5.8136e-06
-0.000168828
3.97394e-06
-0.0001696
2.33144e-06
-0.000169863
8.14508e-07
-0.000169633
-6.88192e-07
-0.000168837
-2.38609e-06
-0.000167599
-3.74616e-06
-0.00016573
-5.60588e-06
-0.000163296
-7.30515e-06
-0.000160246
-9.18531e-06
-0.000156599
-1.08945e-05
-0.000152305
-1.2892e-05
-0.000147351
-1.48741e-05
-0.000141807
-1.66105e-05
-0.000135529
-1.88528e-05
-0.000128549
-2.0964e-05
-0.000120877
-2.29973e-05
-0.000112413
-2.53877e-05
-0.000103192
-2.77786e-05
-9.3133e-05
-3.00628e-05
-8.22738e-05
-3.25961e-05
-7.05915e-05
-3.50559e-05
-5.80549e-05
-3.75485e-05
-4.47255e-05
-3.99362e-05
-3.06276e-05
-4.22792e-05
-1.5876e-05
-4.42575e-05
-4.5712e-07
-4.62414e-05
1.55185e-05
-4.78957e-05
3.19448e-05
-4.92426e-05
4.86652e-05
-5.01195e-05
6.55422e-05
-5.05881e-05
8.23397e-05
-5.03423e-05
9.88937e-05
-4.96115e-05
0.000114953
-4.80974e-05
0.00013018
-4.56573e-05
0.000144392
-4.25721e-05
0.000157291
-3.86484e-05
0.000168637
-3.39802e-05
0.000178193
-2.86183e-05
0.000185762
-2.26586e-05
0.000191148
-1.61199e-05
0.000194231
-9.21794e-06
0.000194855
-1.87159e-06
0.000193058
5.32309e-06
0.000188813
1.27293e-05
0.000182209
1.9833e-05
0.000173326
2.6567e-05
0.000162394
3.27392e-05
0.000149596
3.83446e-05
0.000135181
4.31972e-05
0.000119421
4.72235e-05
0.000102618
5.03427e-05
8.50818e-05
5.25061e-05
6.70767e-05
5.40248e-05
4.89622e-05
5.42898e-05
3.09622e-05
5.39461e-05
1.32817e-05
5.29792e-05
-3.85635e-06
5.1449e-05
-2.02671e-05
4.92373e-05
-3.58765e-05
4.68122e-05
-5.04835e-05
4.38182e-05
-6.41015e-05
4.08753e-05
-7.66499e-05
3.76432e-05
-8.81135e-05
3.43908e-05
-9.84256e-05
3.09361e-05
-0.000107628
2.76047e-05
-0.000115799
2.44936e-05
-0.000122792
2.09913e-05
-0.000128787
1.80128e-05
-0.000133831
1.51342e-05
-0.000137964
1.24275e-05
-0.000141401
1.03161e-05
-0.000144121
8.19038e-06
-0.000146226
6.35732e-06
-0.00014786
4.90952e-06
-0.000149036
3.55138e-06
-0.000149731
2.0962e-06
-0.000150121
1.16581e-06
-0.000150022
-2.64895e-07
-0.00014959
-1.29476e-06
-0.000148821
-2.30612e-06
-0.000147628
-3.58075e-06
-0.000146138
-4.47716e-06
-0.000144276
-5.58281e-06
-0.000141991
-6.86885e-06
-0.000139323
-8.00733e-06
-0.000136211
-9.31861e-06
-0.000132381
-1.1534e-05
-0.000128096
-1.28927e-05
-0.000123066
-1.50872e-05
-0.00011721
-1.75675e-05
-0.00011066
-1.9682e-05
-0.000103168
-2.24855e-05
-9.46271e-05
-2.56131e-05
-8.51681e-05
-2.83988e-05
-7.45383e-05
-3.18918e-05
-6.28614e-05
-3.49742e-05
-4.99098e-05
-3.8895e-05
-3.58834e-05
-4.20695e-05
-2.10666e-05
-4.44331e-05
-5.225e-06
-4.74616e-05
1.1419e-05
-4.99142e-05
2.85268e-05
-5.12847e-05
4.61435e-05
-5.27977e-05
6.39509e-05
-5.33712e-05
8.17757e-05
-5.34194e-05
9.94085e-05
-5.28474e-05
0.000116514
-5.1256e-05
0.000132894
-4.90749e-05
0.000148314
-4.62112e-05
0.000162458
-4.23862e-05
0.000175226
-3.82553e-05
0.000186332
-3.32564e-05
0.00019561
-2.78109e-05
0.000202959
-2.20243e-05
0.000208247
-1.58249e-05
0.000211366
-9.34079e-06
0.000212322
-2.8903e-06
0.000211076
3.63832e-06
0.000207718
1.00426e-05
0.000202309
1.62063e-05
0.000194972
2.19747e-05
0.000185946
2.70552e-05
0.000175282
3.196e-05
0.000163345
3.57538e-05
0.000150256
3.92363e-05
0.000136073
4.25108e-05
0.000121146
4.47294e-05
0.000105677
4.63592e-05
8.97095e-05
4.78868e-05
7.35098e-05
4.8563e-05
5.72983e-05
4.85939e-05
4.11937e-05
4.82979e-05
2.52096e-05
4.79275e-05
9.51615e-06
4.70572e-05
-5.66014e-06
4.55131e-05
-2.03825e-05
4.41485e-05
-3.45129e-05
4.23762e-05
-4.7968e-05
4.03567e-05
-6.0722e-05
3.82566e-05
-7.27129e-05
3.59667e-05
-8.39412e-05
3.36791e-05
-9.43576e-05
3.12425e-05
-0.000103935
2.87286e-05
-0.000112697
2.6278e-05
2.3441e-05
-0.000137503
-2.93477e-05
-0.000129131
-3.34994e-05
-0.000119868
-3.70811e-05
-0.000109647
-4.08761e-05
-9.82921e-05
-4.54429e-05
-8.59849e-05
-4.92049e-05
-7.25373e-05
-5.38212e-05
-5.82286e-05
-5.71903e-05
-4.30942e-05
-6.04677e-05
-2.70111e-05
-6.43183e-05
-1.01472e-05
-6.73758e-05
7.39241e-06
-7.00114e-05
2.55884e-05
-7.26141e-05
4.41705e-05
-7.41955e-05
6.30729e-05
-7.54861e-05
8.20982e-05
-7.59691e-05
0.000100808
-7.46726e-05
0.000119062
-7.28774e-05
0.000136671
-7.03044e-05
0.000153253
-6.61778e-05
0.000168602
-6.12594e-05
0.000182493
-5.54471e-05
0.000194612
-4.83454e-05
0.000204803
-4.06584e-05
0.00021281
-3.19384e-05
0.000218519
-2.27934e-05
0.000221871
-1.33634e-05
0.000222653
-3.19474e-06
0.000220952
6.63431e-06
0.000216761
1.67167e-05
0.000210068
2.67661e-05
0.000201193
3.53496e-05
0.000190229
4.37208e-05
0.000177451
5.10265e-05
0.000163001
5.77136e-05
0.000147092
6.33998e-05
0.000130168
6.75869e-05
0.000112286
7.13698e-05
9.37839e-05
7.38399e-05
7.50526e-05
7.47412e-05
5.61303e-05
7.56448e-05
3.736e-05
7.49357e-05
1.90048e-05
7.33781e-05
1.01403e-06
7.18223e-05
-1.63524e-05
6.94062e-05
-3.29936e-05
6.65066e-05
-4.87837e-05
6.31119e-05
-6.36723e-05
5.95181e-05
-7.76302e-05
5.57984e-05
-9.06004e-05
5.18614e-05
-0.000102595
4.79663e-05
-0.000113606
4.40389e-05
-0.000123644
4.01417e-05
-0.000132745
3.64153e-05
-0.000140918
3.27083e-05
-0.000148199
2.90961e-05
-0.0001546
2.56399e-05
-0.00016017
2.22954e-05
-0.000164926
1.89923e-05
-0.000168868
1.5798e-05
-0.000172034
1.26751e-05
-0.00017451
9.90529e-06
-0.000176244
6.92157e-06
-0.000177202
3.87095e-06
-0.000177501
1.25099e-06
-0.000177074
-1.65328e-06
-0.000175795
-5.10502e-06
-0.000173825
-7.9055e-06
-0.000171014
-1.13194e-05
-0.000167482
-1.40891e-05
-0.000163186
-1.71949e-05
-0.000157977
-2.08378e-05
-0.000151939
-2.41209e-05
-0.000145083
-2.74588e-05
-0.000137337
-3.10309e-05
-0.000128781
-3.41988e-05
-0.000119275
-3.80006e-05
-0.000108821
-4.18194e-05
-9.76429e-05
-4.47521e-05
-8.55885e-05
-4.81785e-05
-7.26608e-05
-5.16161e-05
-5.89211e-05
-5.50941e-05
-4.45395e-05
-5.74496e-05
-2.93027e-05
-6.09502e-05
-1.33383e-05
-6.37711e-05
3.14549e-06
-6.59616e-05
2.02017e-05
-6.8195e-05
3.77952e-05
-7.02766e-05
5.56166e-05
-7.1241e-05
7.36017e-05
-7.18401e-05
9.15435e-05
-7.15794e-05
0.000109098
-7.0214e-05
0.000126137
-6.80994e-05
0.000142462
-6.50909e-05
0.000157721
-6.10705e-05
0.000171784
-5.61474e-05
0.000184391
-5.03245e-05
0.000195326
-4.36691e-05
0.000204417
-3.6249e-05
0.000211495
-2.81896e-05
0.000216372
-1.95916e-05
0.000218997
-1.04164e-05
0.000219277
-1.17319e-06