/*--------------------------------*- C++ -*----------------------------------*\
| =========                 |                                                 |
| \\      /  F ield         | OpenFOAM: The Open Source CFD Toolbox           |
|  \\    /   O peration     | Version:  3.0.1                                 |
|   \\  /    A nd           | Web:      www.OpenFOAM.org                      |
|    \\/     M anipulation  |                                                 |
\*---------------------------------------------------------------------------*/
FoamFile
{
    version     2.0;
    format      ascii;
    class       volScalarField;
    location    "45.6";
    object      p;
}
// * * * * * * * * * * * * * * * * * * * * * * * * * * * * * * * * * * * * * //

dimensions      [1 -1 -2 0 0 0 0];

internalField   nonuniform List<scalar> 
21420
(
3541.3
3546.15
3552.49
3560.34
3569.73
3580.73
3593.41
3607.82
3624
3641.99
3661.81
3683.48
3706.99
3732.29
3759.34
3788.06
3818.35
3850.05
3882.92
3915.88
3950.39
3985.26
4020.08
4054.49
4088.04
4120.31
4150.86
4179.26
4205.15
4228.15
4247.93
4264.21
4276.76
4285.4
4290
4290.4
4286.7
4278.92
4267.15
4251.61
4232.51
4210.16
4184.85
4156.94
4126.85
4094.96
4061.67
4027.41
3992.59
3957.59
3922.98
3892.73
3860.08
3828.14
3797.39
3768.09
3740.38
3714.4
3690.2
3667.82
3647.28
3628.58
3611.71
3596.64
3583.34
3571.79
3561.94
3553.78
3547.27
3542.4
3539.15
3537.55
3537.57
3539.15
3542.34
3547.12
3553.52
3561.52
3571.14
3582.37
3595.2
3609.64
3625.68
3643.29
3662.47
3683.19
3705.42
3729.14
3754.32
3780.9
3808.81
3837.95
3868.2
3899.41
3931.34
3963.75
3996.36
4028.85
4060.9
4092.14
4122.19
4150.69
4177.26
4201.53
4223.15
4241.82
4257.23
4269.13
4277.32
4281.64
4281.92
4278.22
4270.52
4258.86
4243.39
4224.33
4201.92
4176.5
4148.44
4118.13
4086.03
4052.58
4018.25
3983.49
3948.72
3914.35
3880.74
3848.2
3816.99
3787.35
3759.43
3733.36
3709.23
3687.09
3666.95
3648.79
3632.61
3618.33
3605.91
3595.28
3586.34
3579.03
3573.25
3568.93
3565.98
3564.34
3563.96
3564.8
3566.78
3569.9
3574.15
3579.52
3586.04
3593.71
3602.58
3612.69
3624.07
3636.79
3650.87
3666.37
3683.33
3701.77
3721.72
3743.18
3766.13
3790.55
3816.37
3843.51
3871.85
3901.23
3931.48
3962.34
3993.57
4024.87
4055.9
4086.32
4115.75
4143.79
4170.04
4194.1
4215.59
4234.17
4249.5
4261.33
4269.41
4273.62
4273.79
4270.01
4262.31
4250.76
4235.6
4217.08
4195.52
4171.27
4144.72
4116.29
4086.41
4055.49
4023.96
3992.21
3960.62
3929.6
3899.33
3870.14
3842.23
3815.75
3790.83
3767.53
3745.9
3725.94
3707.65
3690.97
3675.88
3662.3
3650.17
3639.43
3630.02
3621.86
3614.91
3609.12
3604.45
3600.87
3598.35
3596.87
3596.42
3596.99
3598.55
3601.12
3604.69
3609.28
3614.91
3621.59
3629.36
3638.26
3648.3
3659.54
3672.02
3685.78
3700.87
3717.31
3735.14
3754.37
3774.99
3796.97
3820.28
3844.85
3870.58
3897.37
3925.07
3953.63
3982.61
4011.9
4041.24
4070.34
4098.88
4126.53
4152.93
4177.72
4200.54
4221.04
4238.89
4253.79
4265.49
4273.78
4278.52
4279.56
4276.98
4270.78
4261.03
4247.92
4231.68
4212.59
4190.95
4167.12
4141.48
4114.39
4086.22
4057.33
4028.05
3998.67
3969.49
3940.87
3914.09
3887.31
3861.41
3836.57
3812.9
3790.48
3769.38
3749.63
3731.25
3714.26
3698.64
3684.39
3671.48
3659.88
3649.54
3640.42
3632.47
3625.63
3619.84
3615.05
3611.22
3608.32
3606.31
3605.2
3605.02
3605.85
3607.63
3610.46
3614.39
3619.49
3625.86
3633.6
3642.78
3653.5
3665.84
3679.87
3695.66
3713.22
3732.57
3753.71
3776.58
3801.1
3827.17
3854.64
3883.31
3912.94
3943.45
3974.53
4005.9
4037.22
4068.18
4098.44
4127.66
4155.51
4181.64
4205.74
4227.52
4246.71
4263.07
4276.38
4286.51
4293.32
4296.71
4296.55
4292.85
4285.75
4275.27
4261.57
4244.84
4225.31
4203.22
4178.87
4152.58
4124.77
4095.9
3443.15
3447.99
3454.33
3462.17
3471.56
3482.57
3495.24
3509.64
3525.82
3543.81
3563.63
3585.3
3608.8
3634.1
3661.16
3689.88
3720.17
3751.88
3784.77
3817.72
3852.24
3887.13
3921.97
3956.4
3989.96
4022.25
4052.82
4081.24
4107.15
4130.17
4149.96
4166.26
4178.82
4187.46
4192.06
4192.47
4188.76
4180.97
4169.19
4153.64
4134.53
4112.16
4086.84
4058.91
4028.8
3996.89
3963.59
3929.31
3894.47
3859.45
3824.82
3794.6
3761.92
3729.97
3699.21
3669.9
3642.2
3616.22
3592.01
3569.64
3549.1
3530.4
3513.53
3498.47
3485.17
3473.62
3463.77
3455.61
3449.11
3444.24
3440.99
3439.39
3439.41
3440.99
3444.17
3448.96
3455.35
3463.36
3472.97
3484.2
3497.04
3511.48
3527.51
3545.12
3564.3
3585.02
3607.25
3630.97
3656.15
3682.73
3710.64
3739.79
3770.04
3801.26
3833.2
3865.62
3898.24
3930.75
3962.81
3994.06
4024.13
4052.64
4079.23
4103.52
4125.16
4143.84
4159.26
4171.17
4179.37
4183.7
4183.97
4180.27
4172.57
4160.9
4145.42
4126.34
4103.92
4078.48
4050.4
4020.07
3987.95
3954.49
3920.14
3885.36
3850.58
3816.2
3782.57
3750.02
3718.81
3689.16
3661.24
3635.17
3611.04
3588.9
3568.76
3550.61
3534.42
3520.16
3507.74
3497.11
3488.18
3480.86
3475.09
3470.77
3467.82
3466.19
3465.81
3466.65
3468.63
3471.75
3476
3481.38
3487.89
3495.56
3504.43
3514.54
3525.92
3538.63
3552.71
3568.21
3585.16
3603.6
3623.55
3645.01
3667.96
3692.38
3718.21
3745.35
3773.69
3803.08
3833.33
3864.21
3895.45
3926.75
3957.8
3988.24
4017.68
4045.74
4072
4096.08
4117.6
4136.19
4151.53
4163.37
4171.46
4175.68
4175.84
4172.06
4164.35
4152.8
4137.62
4119.09
4097.51
4073.24
4046.67
4018.23
3988.33
3957.39
3925.84
3894.08
3862.47
3831.44
3801.17
3771.97
3744.05
3717.58
3692.65
3669.35
3647.72
3627.77
3609.48
3592.81
3577.71
3564.14
3552.01
3541.28
3531.86
3523.71
3516.76
3510.97
3506.3
3502.73
3500.21
3498.73
3498.28
3498.85
3500.41
3502.97
3506.54
3511.13
3516.76
3523.45
3531.22
3540.11
3550.15
3561.39
3573.86
3587.62
3602.71
3619.15
3636.98
3656.21
3676.82
3698.81
3722.12
3746.69
3772.43
3799.22
3826.93
3855.49
3884.47
3913.77
3943.12
3972.24
4000.8
4028.46
4054.88
4079.68
4102.52
4123.03
4140.89
4155.81
4167.52
4175.82
4180.57
4181.61
4179.02
4172.81
4163.05
4149.93
4133.68
4114.58
4092.93
4069.08
4043.42
4016.32
3988.14
3959.23
3929.93
3900.55
3871.36
3842.74
3815.94
3789.16
3763.26
3738.41
3714.74
3692.32
3671.22
3651.47
3633.09
3616.1
3600.49
3586.24
3573.33
3561.73
3551.39
3542.28
3534.33
3527.49
3521.7
3516.91
3513.09
3510.18
3508.17
3507.07
3506.89
3507.72
3509.49
3512.31
3516.24
3521.34
3527.71
3535.44
3544.62
3555.33
3567.67
3581.7
3597.48
3615.04
3634.4
3655.53
3678.4
3702.93
3729
3756.48
3785.15
3814.79
3845.31
3876.39
3907.77
3939.12
3970.08
4000.36
4029.6
4057.46
4083.61
4107.72
4129.51
4148.72
4165.08
4178.41
4188.54
4195.35
4198.75
4198.58
4194.88
4187.77
4177.29
4163.58
4146.84
4127.3
4105.2
4080.83
4054.53
4026.7
3997.82
3344.93
3349.77
3356.11
3363.95
3373.33
3384.33
3396.99
3411.39
3427.57
3445.55
3465.37
3487.04
3510.54
3535.84
3562.89
3591.62
3621.92
3653.65
3686.57
3719.49
3754.06
3788.98
3823.85
3858.31
3891.91
3924.24
3954.85
3983.3
4009.24
4032.29
4052.12
4068.44
4081.02
4089.67
4094.28
4094.71
4090.97
4083.17
4071.37
4055.8
4036.66
4014.26
3988.9
3960.94
3930.79
3898.85
3865.51
3831.2
3796.32
3761.27
3726.58
3696.43
3663.7
3631.72
3600.96
3571.64
3543.93
3517.95
3493.75
3471.37
3450.84
3432.14
3415.28
3400.22
3386.92
3375.38
3365.54
3357.38
3350.88
3346.01
3342.76
3341.17
3341.18
3342.76
3345.95
3350.73
3357.12
3365.13
3374.74
3385.97
3398.8
3413.24
3429.27
3446.88
3466.06
3486.78
3509.01
3532.73
3557.91
3584.49
3612.41
3641.56
3671.83
3703.06
3735.01
3767.45
3800.1
3832.63
3864.72
3896
3926.11
3954.66
3981.27
4005.59
4027.27
4045.98
4061.42
4073.36
4081.57
4085.91
4086.19
4082.47
4074.77
4063.08
4047.59
4028.48
4006.03
3980.55
3952.43
3922.06
3889.9
3856.4
3822.01
3787.2
3752.39
3717.98
3684.34
3651.77
3620.55
3590.89
3562.96
3536.89
3512.76
3490.62
3470.48
3452.34
3436.16
3421.9
3409.49
3398.87
3389.94
3382.64
3376.87
3372.56
3369.62
3367.98
3367.62
3368.46
3370.44
3373.56
3377.81
3383.18
3389.69
3397.36
3406.23
3416.33
3427.71
3440.41
3454.49
3469.98
3486.93
3505.37
3525.31
3546.77
3569.72
3594.14
3619.97
3647.12
3675.47
3704.87
3735.14
3766.03
3797.29
3828.63
3859.71
3890.18
3919.65
3947.74
3974.04
3998.16
4019.7
4038.33
4053.7
4065.55
4073.67
4077.89
4078.06
4074.26
4066.54
4054.97
4039.77
4021.21
3999.59
3975.28
3948.68
3920.2
3890.26
3859.29
3827.71
3795.91
3764.29
3733.24
3702.95
3673.73
3645.81
3619.33
3594.4
3571.1
3549.47
3529.52
3511.23
3494.57
3479.48
3465.91
3453.8
3443.07
3433.66
3425.51
3418.57
3412.78
3408.12
3404.54
3402.02
3400.55
3400.1
3400.67
3402.23
3404.79
3408.36
3412.95
3418.58
3425.26
3433.02
3441.91
3451.95
3463.18
3475.66
3489.41
3504.49
3520.93
3538.75
3557.98
3578.59
3600.58
3623.89
3648.47
3674.21
3701.02
3728.73
3757.31
3786.31
3815.63
3845
3874.14
3902.73
3930.42
3956.87
3981.71
4004.58
4025.12
4043.01
4057.95
4069.68
4078
4082.75
4083.8
4081.2
4074.98
4065.21
4052.07
4035.79
4016.66
3994.97
3971.1
3945.4
3918.27
3890.06
3861.13
3831.81
3802.4
3773.21
3744.57
3717.74
3690.95
3665.05
3640.19
3616.52
3594.1
3573
3553.25
3534.87
3517.88
3502.27
3488.03
3475.12
3463.53
3453.2
3444.08
3436.14
3429.3
3423.52
3418.74
3414.91
3412.01
3410
3408.9
3408.71
3409.54
3411.31
3414.13
3418.05
3423.14
3429.5
3437.22
3446.39
3457.1
3469.43
3483.45
3499.23
3516.79
3536.14
3557.27
3580.15
3604.68
3630.76
3658.25
3686.93
3716.58
3747.12
3778.23
3809.63
3841
3871.99
3902.3
3931.57
3959.46
3985.64
4009.78
4031.6
4050.82
4067.21
4080.55
4090.69
4097.52
4100.93
4100.75
4097.04
4089.92
4079.42
4065.7
4048.94
4029.37
4007.25
3982.85
3956.52
3928.67
3899.76
3246.66
3251.5
3257.82
3265.66
3275.03
3286.02
3298.68
3313.07
3329.24
3347.21
3367.03
3388.69
3412.19
3437.49
3464.55
3493.28
3523.59
3555.34
3588.31
3621.21
3655.84
3690.8
3725.72
3760.23
3793.88
3826.26
3856.93
3885.44
3911.43
3934.54
3954.4
3970.76
3983.37
3992.04
3996.66
3997.11
3993.34
3985.53
3973.7
3958.09
3938.91
3916.46
3891.05
3863.04
3832.83
3800.83
3767.44
3733.08
3698.16
3663.05
3628.27
3598.23
3565.42
3533.41
3502.62
3473.3
3445.58
3419.6
3395.39
3373.02
3352.5
3333.81
3316.95
3301.89
3288.61
3277.07
3267.23
3259.08
3252.58
3247.71
3244.47
3242.88
3242.89
3244.47
3247.65
3252.44
3258.83
3266.83
3276.44
3287.67
3300.5
3314.94
3330.97
3348.58
3367.76
3388.47
3410.7
3434.42
3459.61
3486.19
3514.11
3543.27
3573.55
3604.8
3636.79
3669.26
3701.93
3734.51
3766.64
3797.97
3828.13
3856.73
3883.39
3907.76
3929.48
3948.23
3963.72
3975.69
3983.92
3988.27
3988.57
3984.84
3977.12
3965.41
3949.88
3930.73
3908.23
3882.7
3854.52
3824.1
3791.88
3758.32
3723.88
3689.01
3654.16
3619.71
3586.03
3553.44
3522.2
3492.53
3464.59
3438.52
3414.39
3392.26
3372.12
3353.99
3337.82
3323.57
3311.17
3300.56
3291.64
3284.35
3278.59
3274.29
3271.36
3269.73
3269.38
3270.21
3272.2
3275.33
3279.57
3284.94
3291.45
3299.12
3307.98
3318.07
3329.44
3342.14
3356.21
3371.69
3388.64
3407.07
3427.01
3448.46
3471.41
3495.84
3521.67
3548.83
3577.19
3606.61
3636.9
3667.83
3699.12
3730.49
3761.61
3792.13
3821.65
3849.8
3876.15
3900.32
3921.92
3940.58
3956
3967.88
3976.02
3980.25
3980.44
3976.62
3968.88
3957.28
3942.04
3923.43
3901.76
3877.4
3850.75
3822.21
3792.21
3761.19
3729.56
3697.72
3666.05
3634.98
3604.66
3575.43
3547.49
3521
3496.07
3472.77
3451.15
3431.2
3412.92
3396.27
3381.19
3367.63
3355.52
3344.8
3335.4
3327.26
3320.33
3314.54
3309.88
3306.31
3303.8
3302.32
3301.88
3302.45
3304.01
3306.57
3310.14
3314.72
3320.35
3327.02
3334.79
3343.67
3353.7
3364.93
3377.39
3391.14
3406.21
3422.65
3440.47
3459.69
3480.3
3502.29
3525.61
3550.19
3575.94
3602.76
3630.49
3659.09
3688.12
3717.46
3746.87
3776.05
3804.68
3832.42
3858.91
3883.8
3906.71
3927.3
3945.24
3960.21
3971.97
3980.31
3985.07
3986.14
3983.52
3977.29
3967.49
3954.32
3938
3918.82
3897.09
3873.17
3847.43
3820.25
3792
3763.03
3733.67
3704.24
3675.02
3646.36
3619.5
3592.7
3566.79
3541.92
3518.25
3495.83
3474.72
3454.97
3436.59
3419.61
3404
3389.76
3376.86
3365.27
3354.95
3345.84
3337.9
3331.08
3325.3
3320.52
3316.7
3313.8
3311.8
3310.69
3310.5
3311.32
3313.09
3315.9
3319.81
3324.89
3331.24
3338.95
3348.1
3358.8
3371.12
3385.14
3400.91
3418.46
3437.81
3458.94
3481.82
3506.35
3532.45
3559.95
3588.65
3618.33
3648.89
3680.03
3711.47
3742.87
3773.91
3804.26
3833.57
3861.51
3887.73
3911.91
3933.77
3953.04
3969.45
3982.82
3992.98
3999.82
4003.24
4003.06
3999.33
3992.19
3981.68
3967.92
3951.13
3931.53
3909.37
3884.93
3858.57
3830.66
3801.72
3148.33
3153.16
3159.48
3167.31
3176.67
3187.65
3200.3
3214.68
3230.83
3248.8
3268.6
3290.26
3313.76
3339.06
3366.12
3394.86
3425.19
3456.96
3489.99
3522.86
3557.57
3592.6
3627.57
3662.15
3695.88
3728.33
3759.08
3787.66
3813.72
3836.89
3856.82
3873.22
3885.87
3894.57
3899.2
3899.66
3895.87
3888.03
3876.17
3860.52
3841.28
3818.77
3793.29
3765.2
3734.92
3702.85
3669.39
3634.96
3599.97
3564.79
3529.89
3499.99
3467.08
3435.02
3404.21
3374.87
3347.15
3321.16
3296.96
3274.59
3254.07
3235.39
3218.54
3203.5
3190.22
3178.69
3168.86
3160.71
3154.22
3149.36
3146.12
3144.53
3144.53
3146.11
3149.3
3154.08
3160.47
3168.47
3178.08
3189.3
3202.13
3216.57
3232.6
3250.21
3269.38
3290.09
3312.32
3336.05
3361.23
3387.82
3415.75
3444.92
3475.22
3506.5
3538.52
3571.03
3603.75
3636.38
3668.58
3699.97
3730.19
3758.85
3785.59
3810.02
3831.81
3850.61
3866.15
3878.16
3886.42
3890.79
3891.11
3887.37
3879.63
3867.89
3852.31
3833.11
3810.54
3784.94
3756.68
3726.18
3693.88
3660.24
3625.73
3590.8
3555.88
3521.38
3487.67
3455.04
3423.77
3394.08
3366.14
3340.06
3315.94
3293.8
3273.68
3255.56
3239.4
3225.16
3212.78
3202.18
3193.28
3186
3180.26
3175.97
3173.05
3171.44
3171.09
3171.93
3173.92
3177.05
3181.29
3186.66
3193.16
3200.82
3209.67
3219.76
3231.12
3243.81
3257.87
3273.34
3290.28
3308.7
3328.63
3350.08
3373.04
3397.46
3423.3
3450.48
3478.86
3508.3
3538.62
3569.58
3600.92
3632.34
3663.52
3694.1
3723.69
3751.91
3778.33
3802.57
3824.24
3842.96
3858.43
3870.36
3878.52
3882.77
3882.97
3879.13
3871.37
3859.73
3844.44
3825.77
3804.03
3779.6
3752.86
3724.25
3694.18
3663.09
3631.4
3599.51
3567.78
3536.67
3506.31
3477.06
3449.1
3422.6
3397.67
3374.37
3352.75
3332.81
3314.54
3297.9
3282.83
3269.29
3257.19
3246.49
3237.1
3228.97
3222.04
3216.26
3211.61
3208.04
3205.53
3204.06
3203.62
3204.19
3205.75
3208.31
3211.87
3216.46
3222.08
3228.75
3236.5
3245.38
3255.4
3266.62
3279.08
3292.81
3307.88
3324.3
3342.12
3361.34
3381.95
3403.94
3427.26
3451.85
3477.62
3504.45
3532.19
3560.84
3589.89
3619.28
3648.73
3677.96
3706.65
3734.45
3761
3785.95
3808.93
3829.58
3847.57
3862.6
3874.4
3882.77
3887.54
3888.62
3885.99
3879.74
3869.91
3856.69
3840.32
3821.08
3799.29
3775.3
3749.5
3722.26
3693.95
3664.93
3635.52
3606.05
3576.8
3548.12
3521.21
3494.4
3468.47
3443.6
3419.91
3397.49
3376.38
3356.63
3338.25
3321.27
3305.67
3291.44
3278.55
3266.96
3256.65
3247.56
3239.63
3232.81
3227.04
3222.27
3218.46
3215.56
3213.56
3212.45
3212.26
3213.07
3214.83
3217.63
3221.52
3226.59
3232.92
3240.62
3249.76
3260.44
3272.74
3286.75
3302.51
3320.05
3339.39
3360.53
3383.41
3407.96
3434.07
3461.59
3490.32
3520.01
3550.62
3581.79
3613.28
3644.74
3675.83
3706.24
3735.61
3763.6
3789.89
3814.12
3836.04
3855.35
3871.81
3885.21
3895.39
3902.25
3905.68
3905.51
3901.76
3894.59
3884.05
3870.26
3853.43
3833.78
3811.57
3787.07
3760.65
3732.7
3703.7
3049.95
3054.77
3061.08
3068.89
3078.25
3089.21
3101.84
3116.21
3132.35
3150.3
3170.1
3191.75
3215.25
3240.55
3267.61
3296.36
3326.71
3358.51
3391.61
3424.47
3459.27
3494.36
3529.42
3564.08
3597.89
3630.45
3661.28
3689.96
3716.11
3739.36
3759.36
3775.83
3788.53
3797.26
3801.91
3802.37
3798.57
3790.69
3778.79
3763.07
3743.76
3721.17
3695.6
3667.42
3637.05
3604.89
3571.34
3536.83
3501.76
3466.49
3431.45
3401.71
3368.67
3336.55
3305.72
3276.36
3248.63
3222.64
3198.44
3176.08
3155.57
3136.9
3120.06
3105.03
3091.76
3080.24
3070.42
3062.28
3055.79
3050.93
3047.71
3046.11
3046.11
3047.7
3050.88
3055.66
3062.05
3070.04
3079.65
3090.87
3103.7
3118.13
3134.16
3151.77
3170.94
3191.65
3213.87
3237.6
3262.78
3289.38
3317.31
3346.51
3376.83
3408.14
3440.2
3472.77
3505.55
3538.25
3570.52
3601.99
3632.29
3661.04
3687.86
3712.37
3734.24
3753.11
3768.71
3780.77
3789.08
3793.47
3793.8
3790.06
3782.29
3770.51
3754.88
3735.6
3712.96
3687.27
3658.91
3628.3
3595.9
3562.17
3527.57
3492.55
3457.56
3423
3389.23
3356.56
3325.26
3295.55
3267.6
3241.51
3217.39
3195.26
3175.15
3157.04
3140.9
3126.68
3114.31
3103.73
3094.85
3087.6
3081.87
3077.59
3074.69
3073.09
3072.75
3073.59
3075.59
3078.72
3082.97
3088.33
3094.83
3102.48
3111.32
3121.39
3132.74
3145.42
3159.47
3174.93
3191.85
3210.27
3230.19
3251.64
3274.59
3299.02
3324.87
3352.06
3380.46
3409.93
3440.29
3471.3
3502.7
3534.18
3565.43
3596.09
3625.77
3654.07
3680.58
3704.91
3726.66
3745.46
3761
3772.98
3781.18
3785.45
3785.66
3781.81
3774
3762.32
3746.96
3728.21
3706.39
3681.87
3655.04
3626.33
3596.17
3565
3533.22
3501.26
3469.48
3438.3
3407.91
3378.62
3350.64
3324.13
3299.19
3275.89
3254.28
3234.35
3216.09
3199.46
3184.41
3170.88
3158.81
3148.12
3138.74
3130.62
3123.7
3117.94
3113.29
3109.73
3107.22
3105.76
3105.32
3105.89
3107.45
3110.01
3113.57
3118.15
3123.76
3130.43
3138.18
3147.04
3157.06
3168.26
3180.71
3194.43
3209.49
3225.9
3243.71
3262.92
3283.53
3305.52
3328.85
3353.45
3379.23
3406.09
3433.86
3462.54
3491.63
3521.07
3550.58
3579.88
3608.63
3636.51
3663.14
3688.17
3711.23
3731.96
3750.02
3765.11
3776.96
3785.36
3790.16
3791.25
3788.61
3782.32
3772.45
3759.18
3742.74
3723.43
3701.56
3677.49
3651.61
3624.29
3595.91
3566.82
3537.36
3507.84
3478.55
3449.84
3422.88
3396.05
3370.1
3345.21
3321.52
3299.09
3277.97
3258.22
3239.86
3222.88
3207.28
3193.06
3180.18
3168.61
3158.3
3149.22
3141.3
3134.5
3128.74
3123.98
3120.18
3117.29
3115.29
3114.18
3113.97
3114.78
3116.53
3119.31
3123.19
3128.24
3134.55
3142.23
3151.35
3162.01
3174.3
3188.28
3204.03
3221.57
3240.9
3262.04
3284.92
3309.48
3335.61
3363.16
3391.92
3421.65
3452.3
3483.53
3515.07
3546.6
3577.76
3608.24
3637.68
3665.75
3692.11
3716.42
3738.4
3757.77
3774.28
3787.72
3797.94
3804.81
3808.25
3808.08
3804.32
3797.12
3786.53
3772.7
3755.82
3736.11
3713.84
3689.28
3662.79
3634.76
3605.69
2951.5
2956.32
2962.61
2970.42
2979.75
2990.7
3003.31
3017.66
3033.79
3051.73
3071.52
3093.16
3116.65
3141.95
3169.02
3197.78
3228.15
3259.98
3293.17
3326.02
3360.93
3396.1
3431.25
3466.01
3499.93
3532.6
3563.55
3592.34
3618.6
3641.95
3662.03
3678.58
3691.33
3700.11
3704.78
3705.25
3701.43
3693.51
3681.55
3665.76
3646.37
3623.67
3598
3569.72
3539.24
3506.96
3473.31
3438.7
3403.53
3368.16
3332.95
3303.38
3270.2
3238.02
3207.14
3177.77
3150.03
3124.03
3099.84
3077.48
3056.98
3038.32
3021.5
3006.48
2993.23
2981.72
2971.91
2963.78
2957.3
2952.45
2949.23
2947.63
2947.63
2949.22
2952.4
2957.17
2963.56
2971.55
2981.15
2992.37
3005.2
3019.63
3035.65
3053.26
3072.43
3093.13
3115.36
3139.08
3164.27
3190.87
3218.82
3248.03
3278.39
3309.73
3341.85
3374.47
3407.33
3440.11
3472.46
3504.03
3534.43
3563.28
3590.2
3614.82
3636.77
3655.74
3671.41
3683.53
3691.88
3696.3
3696.65
3692.9
3685.1
3673.28
3657.58
3638.22
3615.47
3589.67
3561.2
3530.48
3497.96
3464.1
3429.39
3394.28
3359.2
3324.56
3290.73
3258.01
3226.67
3196.94
3168.96
3142.88
3118.75
3096.63
3076.53
3058.44
3042.32
3028.12
3015.77
3005.22
2996.36
2989.13
2983.42
2979.16
2976.28
2974.69
2974.36
2975.22
2977.22
2980.35
2984.6
2989.96
2996.45
3004.09
3012.92
3022.98
3034.31
3046.97
3061.01
3076.46
3093.37
3111.77
3131.68
3153.12
3176.07
3200.51
3226.37
3253.58
3282.01
3311.52
3341.92
3372.99
3404.45
3436.01
3467.35
3498.1
3527.88
3556.28
3582.91
3607.34
3629.19
3648.08
3663.7
3675.74
3683.99
3688.28
3688.5
3684.64
3676.79
3665.04
3649.61
3630.77
3608.84
3584.21
3557.27
3528.45
3498.18
3466.9
3435.03
3402.98
3371.12
3339.87
3309.43
3280.11
3252.11
3225.58
3200.63
3177.34
3155.73
3135.81
3117.57
3100.96
3085.93
3072.42
3060.36
3049.69
3040.33
3032.23
3025.33
3019.57
3014.93
3011.37
3008.88
3007.42
3006.98
3007.55
3009.11
3011.67
3015.23
3019.8
3025.41
3032.06
3039.8
3048.66
3058.66
3069.85
3082.28
3096
3111.03
3127.44
3145.24
3164.44
3185.05
3207.04
3230.38
3254.99
3280.79
3307.68
3335.49
3364.19
3393.34
3422.84
3452.42
3481.79
3510.63
3538.6
3565.33
3590.46
3613.61
3634.43
3652.58
3667.74
3679.65
3688.1
3692.92
3694.01
3691.36
3685.04
3675.12
3661.79
3645.27
3625.87
3603.9
3579.74
3553.76
3526.35
3497.88
3468.72
3439.19
3409.61
3380.27
3351.52
3324.49
3297.64
3271.68
3246.77
3223.07
3200.63
3179.51
3159.76
3141.4
3124.43
3108.84
3094.63
3081.76
3070.2
3059.91
3050.84
3042.94
3036.14
3030.4
3025.65
3021.86
3018.97
3016.98
3015.87
3015.65
3016.45
3018.19
3020.96
3024.81
3029.84
3036.13
3043.78
3052.87
3063.52
3075.78
3089.75
3105.48
3123
3142.33
3163.47
3186.36
3210.93
3237.08
3264.66
3293.46
3323.23
3353.93
3385.22
3416.84
3448.45
3479.69
3510.26
3539.79
3567.95
3594.39
3618.79
3640.85
3660.29
3676.86
3690.35
3700.61
3707.51
3710.95
3710.79
3707.01
3699.77
3689.14
3675.25
3658.31
3638.53
3616.18
3591.54
3564.97
3536.86
3507.71
2853
2857.8
2864.09
2871.88
2881.2
2892.12
2904.71
2919.04
2935.15
2953.08
2972.85
2994.49
3017.97
3043.27
3070.35
3099.12
3129.51
3161.38
3194.63
3227.55
3262.55
3297.82
3333.07
3367.95
3402
3434.8
3465.88
3494.8
3521.18
3544.64
3564.83
3581.47
3594.29
3603.12
3607.81
3608.28
3604.45
3596.48
3584.45
3568.58
3549.09
3526.28
3500.49
3472.07
3441.46
3409.06
3375.29
3340.56
3305.28
3269.79
3234.41
3204.98
3171.65
3139.4
3108.49
3079.09
3051.34
3025.34
3001.15
2978.8
2958.31
2939.67
2922.87
2907.86
2894.63
2883.13
2873.34
2865.22
2858.75
2853.9
2850.68
2849.09
2849.08
2850.67
2853.85
2858.62
2865.01
2873
2882.59
2893.81
2906.63
2921.05
2937.08
2954.68
2973.84
2994.55
3016.77
3040.49
3065.68
3092.29
3120.25
3149.49
3179.88
3211.27
3243.45
3276.15
3309.09
3341.96
3374.42
3406.09
3436.61
3465.58
3492.62
3517.35
3539.41
3558.48
3574.24
3586.44
3594.84
3599.3
3599.66
3595.91
3588.07
3576.19
3560.41
3540.96
3518.1
3492.17
3463.56
3432.69
3400.03
3366.04
3331.2
3295.97
3260.79
3226.06
3192.15
3159.38
3128
3098.23
3070.24
3044.15
3020.02
2997.91
2977.83
2959.75
2943.65
2929.48
2917.16
2906.63
2897.81
2890.59
2884.91
2880.68
2877.81
2876.25
2875.93
2876.79
2878.81
2881.94
2886.18
2891.54
2898.02
2905.65
2914.47
2924.51
2935.83
2948.47
2962.48
2977.92
2994.81
3013.2
3033.11
3054.54
3077.49
3101.93
3127.8
3155.03
3183.49
3213.04
3243.5
3274.63
3306.17
3337.82
3369.26
3400.12
3430.02
3458.55
3485.3
3509.86
3531.82
3550.83
3566.53
3578.66
3586.96
3591.28
3591.5
3587.63
3579.73
3567.91
3552.38
3533.43
3511.39
3486.62
3459.55
3430.6
3400.2
3368.8
3336.82
3304.67
3272.73
3241.39
3210.9
3181.53
3153.5
3126.95
3102
3078.7
3057.1
3037.2
3018.98
3002.39
2987.39
2973.9
2961.86
2951.21
2941.88
2933.79
2926.9
2921.16
2916.53
2912.98
2910.49
2909.03
2908.6
2909.17
2910.73
2913.29
2916.84
2921.41
2927.01
2933.66
2941.39
2950.23
2960.22
2971.39
2983.81
2997.5
3012.53
3028.92
3046.71
3065.9
3086.51
3108.5
3131.84
3156.47
3182.3
3209.21
3237.07
3265.8
3295.02
3324.59
3354.25
3383.71
3412.65
3440.72
3467.56
3492.81
3516.07
3537
3555.24
3570.49
3582.47
3590.97
3595.82
3596.93
3594.27
3587.9
3577.92
3564.51
3547.9
3528.39
3506.32
3482.04
3455.95
3428.43
3399.87
3370.61
3341
3311.35
3281.96
3253.17
3226.06
3199.19
3173.2
3148.27
3124.55
3102.11
3080.99
3061.24
3042.88
3025.92
3010.34
2996.14
2983.28
2971.74
2961.46
2952.41
2944.53
2937.75
2932.02
2927.29
2923.5
2920.63
2918.64
2917.52
2917.29
2918.08
2919.81
2922.56
2926.39
2931.39
2937.65
2945.27
2954.34
2964.95
2977.19
2991.14
3006.85
3024.36
3043.68
3064.82
3087.72
3112.31
3138.49
3166.1
3194.94
3224.76
3255.52
3286.89
3318.59
3350.28
3381.63
3412.3
3441.93
3470.19
3496.74
3521.24
3543.39
3562.92
3579.56
3593.11
3603.41
3610.34
3613.8
3613.64
3609.83
3602.54
3591.87
3577.91
3560.9
3541.04
3518.6
3493.87
3467.2
3439
3409.75
2754.44
2759.24
2765.51
2773.27
2782.57
2793.48
2806.04
2820.35
2836.44
2854.34
2874.1
2895.73
2919.21
2944.51
2971.59
3000.38
3030.79
3062.7
3096
3129.04
3164.13
3199.5
3234.87
3269.89
3304.08
3337.03
3368.27
3397.34
3423.86
3447.46
3467.77
3484.5
3497.4
3506.28
3511
3511.48
3507.63
3499.6
3487.5
3471.53
3451.92
3428.99
3403.06
3374.49
3343.74
3311.19
3277.28
3242.42
3207.01
3171.4
3135.86
3106.49
3073.03
3040.71
3009.76
2980.33
2952.57
2926.56
2902.38
2880.04
2859.57
2840.94
2824.15
2809.17
2795.95
2784.47
2774.69
2766.58
2760.12
2755.28
2752.07
2750.48
2750.47
2752.06
2755.24
2760.01
2766.39
2774.37
2783.97
2795.18
2807.99
2822.42
2838.44
2856.04
2875.19
2895.89
2918.11
2941.84
2967.03
2993.64
3021.62
3050.89
3081.31
3112.76
3145.01
3177.79
3210.82
3243.8
3276.38
3308.18
3338.83
3367.93
3395.11
3419.97
3442.16
3461.34
3477.21
3489.49
3497.96
3502.45
3502.84
3499.07
3491.19
3479.25
3463.38
3443.81
3420.82
3394.75
3365.98
3334.95
3302.13
3267.99
3233
3197.64
3162.33
3127.51
3093.51
3060.67
3029.24
2999.44
2971.43
2945.33
2921.21
2899.11
2879.04
2860.98
2844.91
2830.76
2818.48
2807.98
2799.18
2792
2786.35
2782.14
2779.3
2777.75
2777.45
2778.33
2780.35
2783.48
2787.73
2793.08
2799.55
2807.16
2815.96
2825.99
2837.29
2849.91
2863.9
2879.32
2896.19
2914.57
2934.46
2955.89
2978.83
3003.28
3029.17
3056.42
3084.92
3114.52
3145.04
3176.24
3207.87
3239.62
3271.18
3302.16
3332.2
3360.87
3387.76
3412.46
3434.56
3453.69
3469.51
3481.72
3490.08
3494.43
3494.67
3490.77
3482.81
3470.91
3455.28
3436.21
3414.02
3389.11
3361.89
3332.78
3302.24
3270.7
3238.59
3206.32
3174.29
3142.86
3112.3
3082.88
3054.82
3028.25
3003.29
2979.99
2958.41
2938.52
2920.32
2903.75
2888.77
2875.31
2863.31
2852.68
2843.37
2835.3
2828.43
2822.7
2818.08
2814.54
2812.06
2810.61
2810.18
2810.76
2812.32
2814.87
2818.42
2822.98
2828.57
2835.21
2842.92
2851.75
2861.72
2872.88
2885.28
2898.95
2913.96
2930.33
2948.11
2967.3
2987.9
3009.9
3033.25
3057.89
3083.74
3110.69
3138.6
3167.37
3196.66
3226.31
3256.07
3285.63
3314.68
3342.88
3369.85
3395.22
3418.61
3439.66
3458.02
3473.37
3485.43
3493.99
3498.88
3499.99
3497.31
3490.9
3480.86
3467.36
3450.64
3431.01
3408.81
3384.4
3358.18
3330.54
3301.86
3272.5
3242.8
3213.07
3183.62
3154.77
3127.59
3100.68
3074.66
3049.72
3025.98
3003.53
2982.4
2962.66
2944.3
2927.35
2911.78
2897.59
2884.75
2873.22
2862.97
2853.93
2846.07
2839.31
2833.6
2828.89
2825.11
2822.24
2820.26
2819.14
2818.9
2819.68
2821.39
2824.12
2827.92
2832.89
2839.12
2846.71
2855.74
2866.33
2878.53
2892.45
2908.15
2925.64
2944.96
2966.09
2989
3013.61
3039.82
3067.47
3096.37
3126.23
3157.07
3188.52
3220.31
3252.11
3283.57
3314.36
3344.11
3372.49
3399.15
3423.76
3446.02
3465.65
3482.38
3496
3506.35
3513.3
3516.77
3516.61
3512.78
3505.45
3494.71
3480.68
3463.59
3443.63
3421.09
3396.25
3369.48
3341.16
3311.8
2655.83
2660.61
2666.86
2674.61
2683.88
2694.77
2707.3
2721.59
2737.65
2755.53
2775.27
2796.89
2820.36
2845.66
2872.75
2901.56
2931.99
2963.95
2997.28
3030.51
3065.67
3101.16
3136.66
3171.83
3206.19
3239.31
3270.72
3299.96
3326.64
3350.39
3370.83
3387.67
3400.67
3409.61
3414.36
3414.84
3410.97
3402.88
3390.7
3374.62
3354.88
3331.8
3305.71
3276.98
3246.05
3213.34
3179.27
3144.27
3108.72
3072.97
3037.28
3007.91
2974.33
2941.94
2910.94
2881.49
2853.71
2827.7
2803.52
2781.19
2760.74
2742.13
2725.36
2710.4
2697.21
2685.75
2675.98
2667.89
2661.44
2656.6
2653.4
2651.81
2651.8
2653.39
2656.57
2661.33
2667.71
2675.69
2685.27
2696.48
2709.29
2723.71
2739.73
2757.32
2776.48
2797.17
2819.39
2843.11
2868.3
2894.93
2922.93
2952.22
2982.69
3014.19
3046.52
3079.39
3112.54
3145.64
3178.35
3210.29
3241.09
3270.35
3297.67
3322.69
3345.02
3364.33
3380.31
3392.68
3401.23
3405.76
3406.17
3402.4
3394.47
3382.45
3366.49
3346.79
3323.65
3297.41
3268.47
3237.26
3204.26
3169.94
3134.78
3099.27
3063.83
3028.89
2994.8
2961.88
2930.4
2900.56
2872.53
2846.42
2822.3
2800.21
2780.16
2762.13
2746.09
2731.97
2719.72
2709.26
2700.5
2693.35
2687.73
2683.55
2680.73
2679.21
2678.92
2679.81
2681.84
2684.98
2689.22
2694.57
2701.03
2708.63
2717.41
2727.42
2738.69
2751.29
2765.26
2780.66
2797.51
2815.87
2835.75
2857.16
2880.11
2904.56
2930.46
2957.74
2986.28
3015.94
3046.52
3077.82
3109.54
3141.41
3173.09
3204.22
3234.41
3263.24
3290.29
3315.15
3337.41
3356.68
3372.62
3384.92
3393.36
3397.75
3397.99
3394.07
3386.05
3374.06
3358.31
3339.1
3316.75
3291.68
3264.28
3235
3204.3
3172.6
3140.34
3107.95
3075.8
3044.27
3013.64
2984.17
2956.06
2929.47
2904.5
2881.21
2859.63
2839.77
2821.59
2805.05
2790.1
2776.67
2764.69
2754.09
2744.81
2736.76
2729.91
2724.2
2719.59
2716.06
2713.59
2712.15
2711.72
2712.3
2713.86
2716.41
2719.95
2724.51
2730.09
2736.71
2744.42
2753.23
2763.18
2774.32
2786.69
2800.35
2815.33
2831.69
2849.45
2868.63
2889.23
2911.23
2934.59
2959.25
2985.13
3012.12
3040.08
3068.9
3098.27
3128.02
3157.87
3187.55
3216.73
3245.06
3272.18
3297.69
3321.23
3342.42
3360.91
3376.37
3388.53
3397.15
3402.07
3403.2
3400.5
3394.04
3383.92
3370.32
3353.49
3333.72
3311.38
3286.82
3260.45
3232.68
3203.87
3174.39
3144.58
3114.77
3085.25
3056.34
3029.07
3002.12
2976.07
2951.1
2927.35
2904.89
2883.76
2864.02
2845.67
2828.72
2813.17
2798.99
2786.17
2774.66
2764.42
2755.41
2747.57
2740.84
2735.15
2730.45
2726.69
2723.83
2721.85
2720.73
2720.47
2721.24
2722.93
2725.63
2729.4
2734.34
2740.53
2748.09
2757.08
2767.63
2779.8
2793.7
2809.37
2826.84
2846.15
2867.29
2890.21
2914.83
2941.07
2968.77
2997.73
3027.65
3058.57
3090.11
3122.01
3153.93
3185.51
3216.43
3246.32
3274.83
3301.63
3326.37
3348.75
3368.49
3385.31
3399
3409.41
3416.4
3419.89
3419.72
3415.86
3408.48
3397.67
3383.56
3366.37
3346.31
3323.66
3298.7
3271.8
3243.36
3213.88
2557.16
2561.92
2568.15
2575.88
2585.13
2595.98
2608.49
2622.75
2638.78
2656.64
2676.36
2697.97
2721.43
2746.73
2773.83
2802.65
2833.12
2865.11
2898.47
2931.95
2967.17
3002.78
3038.44
3073.78
3108.32
3141.63
3173.23
3202.65
3229.51
3253.43
3274.02
3290.99
3304.09
3313.1
3317.89
3318.37
3314.48
3306.32
3294.04
3277.83
3257.96
3234.71
3208.44
3179.53
3148.42
3115.53
3081.27
3046.11
3010.41
2974.52
2938.68
2909.25
2875.55
2843.09
2812.04
2782.56
2754.77
2728.75
2704.58
2682.26
2661.82
2643.24
2626.5
2611.56
2598.39
2586.95
2577.2
2569.12
2562.68
2557.86
2554.67
2553.07
2553.07
2554.66
2557.83
2562.59
2568.96
2576.93
2586.51
2597.71
2610.52
2624.94
2640.95
2658.54
2677.69
2698.38
2720.59
2744.31
2769.51
2796.14
2824.16
2853.49
2884
2915.57
2947.99
2980.97
3014.23
3047.46
3080.32
3112.42
3143.39
3172.82
3200.31
3225.49
3247.98
3267.44
3283.55
3296.03
3304.65
3309.24
3309.67
3305.88
3297.91
3285.81
3269.73
3249.89
3226.59
3200.16
3171.02
3139.61
3106.41
3071.89
3036.55
3000.87
2965.28
2930.21
2896.02
2863.01
2831.47
2801.59