/*--------------------------------*- C++ -*----------------------------------*\
| =========                 |                                                 |
| \\      /  F ield         | OpenFOAM: The Open Source CFD Toolbox           |
|  \\    /   O peration     | Version:  3.0.1                                 |
|   \\  /    A nd           | Web:      www.OpenFOAM.org                      |
|    \\/     M anipulation  |                                                 |
\*---------------------------------------------------------------------------*/
FoamFile
{
    version     2.0;
    format      ascii;
    class       volScalarField;
    location    "26.6";
    object      p;
}
// * * * * * * * * * * * * * * * * * * * * * * * * * * * * * * * * * * * * * //

dimensions      [1 -1 -2 0 0 0 0];

internalField   nonuniform List<scalar> 
21420
(
4272.32
4258.85
4241.91
4221.67
4198.4
4172.39
4144
4113.6
4081.55
4048.27
4014.16
3979.58
3944.91
3910.47
3882.22
3849.49
3817.94
3787.77
3759.11
3732.1
3706.8
3683.26
3661.53
3641.6
3623.45
3607.08
3592.44
3579.5
3568.22
3558.56
3550.49
3543.97
3538.99
3535.53
3533.62
3533.23
3534.32
3536.95
3541.14
3546.89
3554.24
3563.22
3573.87
3586.23
3600.32
3616.18
3633.86
3653.35
3674.65
3697.76
3722.64
3749.21
3777.38
3807.01
3837.95
3869.94
3900.59
3933.87
3967.45
4000.91
4033.91
4066.08
4097.07
4126.54
4154.13
4179.5
4202.34
4222.37
4239.3
4252.91
4262.99
4269.37
4271.96
4270.68
4265.47
4256.4
4243.55
4227.09
4207.21
4184.18
4158.31
4129.92
4099.4
4067.13
4033.52
3998.98
3963.92
3928.73
3893.8
3859.55
3826.16
3793.97
3763.24
3734.2
3707
3681.78
3658.62
3637.57
3618.63
3601.8
3587.02
3574.22
3563.32
3554.22
3546.84
3541.08
3536.85
3534.09
3532.76
3532.81
3534.16
3536.82
3540.78
3546.05
3552.61
3560.5
3569.71
3580.28
3592.22
3605.56
3620.31
3636.51
3654.17
3673.31
3693.94
3716.08
3739.7
3764.78
3791.27
3819.09
3848.12
3878.23
3909.19
3940.76
3972.67
4004.59
4036.16
4067
4096.68
4124.79
4150.9
4174.6
4195.49
4213.21
4227.45
4237.92
4244.41
4246.78
4244.9
4238.84
4228.67
4214.46
4196.47
4174.95
4150.24
4122.74
4092.87
4061.1
4027.88
3993.72
3959.08
3924.39
3890.07
3856.48
3823.93
3792.64
3762.82
3734.61
3708.11
3683.37
3660.43
3639.28
3619.91
3602.28
3586.35
3572.07
3559.38
3548.24
3538.59
3530.36
3523.53
3518.05
3513.89
3511.03
3509.47
3509.21
3510.25
3512.62
3516.34
3521.48
3528.06
3536.12
3545.72
3556.89
3569.67
3584.1
3600.2
3617.98
3637.45
3658.6
3681.38
3705.75
3731.63
3758.91
3787.46
3817.19
3847.74
3878.97
3910.6
3942.36
3973.9
4004.9
4034.97
4063.75
4090.85
4115.9
4138.54
4158.43
4175.27
4188.79
4198.76
4205.02
4207.44
4205.94
4200.55
4191.36
4178.41
4161.91
4142.07
4119.17
4093.52
4065.48
4035.44
4003.8
3970.98
3937.42
3903.53
3869.73
3836.37
3803.81
3772.35
3742.23
3713.66
3686.8
3661.77
3638.65
3617.47
3598.24
3580.94
3565.53
3551.96
3540.17
3530.09
3521.65
3514.78
3509.42
3505.52
3503.01
3501.84
3502
3503.46
3506.15
3510.07
3515.22
3521.59
3529.19
3538.04
3548.16
3559.6
3572.38
3586.55
3602.16
3619.27
3637.88
3658.04
3679.77
3703.04
3727.82
3754.04
3781.64
3810.61
3840.84
3871.76
3903.23
3935.03
3966.88
3998.46
4029.41
4059.36
4087.93
4114.73
4139.36
4161.46
4180.7
4196.76
4209.36
4218.27
4223.34
4224.37
4221.43
4214.47
4203.55
4188.91
4170.78
4149.46
4125.27
4098.62
4069.92
4039.6
4008.08
3975.77
3943.06
3910.29
3877.74
3845.68
3820.32
3790.88
3762.77
3736.19
3711.23
3687.96
3666.45
3646.72
3628.77
3612.59
3598.16
3585.45
3574.41
3565
3557.18
3550.89
3546.08
3542.71
3540.75
3540.18
3541.1
3543.38
3547.02
3551.98
3558.27
3565.88
3574.81
3585.08
3596.71
3609.72
3624.13
3639.98
3657.28
3676.07
3696.36
3718.15
3741.44
3766.15
3792.07
3818.36
3827.76
3850.91
4174.37
4160.89
4143.93
4123.68
4100.39
4074.37
4045.96
4015.54
3983.47
3950.18
3916.05
3881.46
3846.78
3812.35
3784.04
3751.31
3719.76
3689.59
3660.93
3633.91
3608.61
3585.08
3563.35
3543.42
3525.28
3508.91
3494.27
3481.33
3470.05
3460.39
3452.32
3445.81
3440.83
3437.37
3435.46
3435.07
3436.15
3438.79
3442.98
3448.73
3456.08
3465.05
3475.7
3488.05
3502.15
3518.01
3535.68
3555.17
3576.47
3599.58
3624.46
3651.03
3679.21
3708.84
3739.78
3771.79
3802.44
3835.74
3869.33
3902.81
3935.82
3968
3999.01
4028.49
4056.09
4081.48
4104.34
4124.38
4141.32
4154.94
4165.03
4171.42
4174.02
4172.73
4167.51
4158.45
4145.58
4129.11
4109.22
4086.18
4060.28
4031.88
4001.35
3969.06
3935.43
3900.88
3865.8
3830.59
3795.65
3761.39
3727.98
3695.79
3665.06
3636.01
3608.81
3583.58
3560.42
3539.37
3520.44
3503.61
3488.84
3476.04
3465.14
3456.05
3448.67
3442.92
3438.69
3435.94
3434.61
3434.65
3436.01
3438.67
3442.63
3447.89
3454.46
3462.34
3471.56
3482.12
3494.06
3507.4
3522.15
3538.34
3556
3575.14
3595.77
3617.91
3641.53
3666.61
3693.1
3720.92
3749.96
3780.08
3811.04
3842.62
3874.54
3906.48
3938.07
3968.92
3998.62
4026.75
4052.88
4076.6
4097.5
4115.24
4129.49
4139.97
4146.47
4148.85
4146.97
4140.9
4130.72
4116.51
4098.49
4076.96
4052.23
4024.71
3994.83
3963.03
3929.8
3895.61
3860.95
3826.25
3791.92
3758.31
3725.76
3694.47
3664.64
3636.43
3609.93
3585.19
3562.25
3541.1
3521.73
3504.1
3488.18
3473.9
3461.22
3450.08
3440.43
3432.21
3425.38
3419.9
3415.74
3412.88
3411.32
3411.06
3412.09
3414.46
3418.19
3423.32
3429.9
3437.96
3447.55
3458.72
3471.5
3485.93
3502.03
3519.81
3539.28
3560.42
3583.21
3607.58
3633.46
3660.75
3689.3
3719.03
3749.59
3780.83
3812.47
3844.24
3875.8
3906.81
3936.9
3965.7
3992.82
4017.88
4040.54
4060.44
4077.29
4090.82
4100.8
4107.07
4109.5
4107.99
4102.6
4093.4
4080.44
4063.93
4044.08
4021.16
3995.5
3967.44
3937.38
3905.72
3872.88
3839.31
3805.4
3771.58
3738.21
3705.64
3674.18
3644.05
3615.48
3588.61
3563.58
3540.46
3519.28
3500.06
3482.76
3467.35
3453.79
3442
3431.92
3423.48
3416.62
3411.26
3407.37
3404.85
3403.69
3403.85
3405.31
3408
3411.92
3417.07
3423.44
3431.04
3439.88
3450.01
3461.45
3474.22
3488.39
3504
3521.1
3539.71
3559.87
3581.6
3604.87
3629.65
3655.88
3683.47
3712.44
3742.69
3773.62
3805.09
3836.9
3868.77
3900.36
3931.32
3961.29
3989.88
4016.69
4041.34
4063.46
4082.72
4098.79
4111.4
4120.32
4125.39
4126.43
4123.48
4116.51
4105.59
4090.94
4072.8
4051.46
4027.25
4000.58
3971.86
3941.53
3909.99
3877.66
3844.93
3812.15
3779.6
3747.53
3722.15
3692.7
3664.59
3638.01
3613.05
3589.78
3568.27
3548.54
3530.59
3514.41
3499.99
3487.28
3476.24
3466.84
3459.02
3452.73
3447.92
3444.56
3442.6
3442.02
3442.95
3445.23
3448.87
3453.83
3460.12
3467.72
3476.65
3486.93
3498.55
3511.56
3525.97
3541.82
3559.12
3577.9
3598.19
3619.98
3643.27
3667.98
3693.89
3720.19
3729.65
3752.8
4076.56
4063.06
4046.07
4025.8
4002.47
3976.42
3947.97
3917.52
3885.42
3852.09
3817.93
3783.32
3748.63
3714.2
3685.77
3653.05
3621.5
3591.33
3562.67
3535.65
3510.35
3486.82
3465.09
3445.16
3427.03
3410.66
3396.03
3383.09
3371.82
3362.16
3354.1
3347.59
3342.61
3339.15
3337.24
3336.85
3337.93
3340.57
3344.75
3350.5
3357.85
3366.82
3377.46
3389.81
3403.9
3419.75
3437.43
3456.91
3478.21
3501.32
3526.2
3552.78
3580.96
3610.6
3641.56
3673.6
3704.23
3737.57
3771.19
3804.69
3837.73
3869.95
3900.98
3930.49
3958.13
3983.55
4006.44
4026.5
4043.47
4057.11
4067.22
4073.62
4076.23
4074.92
4069.71
4060.63
4047.76
4031.26
4011.34
3988.27
3962.34
3933.91
3903.33
3871.01
3837.35
3802.76
3767.65
3732.42
3697.45
3663.16
3629.74
3597.53
3566.78
3537.73
3510.52
3485.29
3462.14
3441.09
3422.16
3405.34
3390.57
3377.78
3366.9
3357.81
3350.44
3344.69
3340.47
3337.72
3336.4
3336.45
3337.8
3340.46
3344.43
3349.69
3356.25
3364.13
3373.35
3383.91
3395.84
3409.18
3423.93
3440.12
3457.77
3476.91
3497.54
3519.67
3543.29
3568.37
3594.87
3622.69
3651.74
3681.87
3712.85
3744.45
3776.39
3808.36
3839.97
3870.86
3900.6
3928.76
3954.93
3978.69
3999.63
4017.4
4031.67
4042.17
4048.69
4051.09
4049.19
4043.12
4032.93
4018.69
4000.65
3979.08
3954.32
3926.76
3896.83
3864.99
3831.72
3797.5
3762.8
3728.07
3693.71
3660.09
3627.52
3596.21
3566.38
3538.17
3511.66
3486.93
3463.99
3442.84
3423.48
3405.86
3389.94
3375.67
3362.99
3351.86
3342.21
3333.99
3327.17
3321.69
3317.54
3314.67
3313.12
3312.86
3313.89
3316.25
3319.98
3325.1
3331.68
3339.74
3349.33
3360.49
3373.27
3387.69
3403.78
3421.56
3441.03
3462.17
3484.96
3509.33
3535.22
3562.51
3591.08
3620.82
3651.39
3682.65
3714.32
3746.11
3777.7
3808.74
3838.86
3867.69
3894.84
3919.94
3942.63
3962.56
3979.44
3992.99
4002.99
4009.27
4011.71
4010.19
4004.8
3995.58
3982.61
3966.08
3946.19
3923.25
3897.55
3869.46
3839.36
3807.66
3774.79
3741.18
3707.24
3673.39
3640
3607.41
3575.93
3545.79
3517.21
3490.34
3465.31
3442.19
3421.01
3401.79
3384.5
3369.1
3355.54
3343.76
3333.69
3325.25
3318.4
3313.05
3309.15
3306.65
3305.49
3305.65
3307.11
3309.8
3313.73
3318.87
3325.24
3332.84
3341.68
3351.8
3363.23
3376
3390.16
3405.77
3422.87
3441.48
3461.63
3483.35
3506.63
3531.41
3557.64
3585.24
3614.22
3644.48
3675.42
3706.91
3738.75
3770.64
3802.26
3833.25
3863.26
3891.88
3918.73
3943.41
3965.57
3984.85
4000.95
4013.58
4022.52
4027.61
4028.67
4025.68
4018.71
4007.78
3993.1
3974.92
3953.55
3929.31
3902.6
3873.85
3843.47
3811.9
3779.54
3746.79
3713.98
3681.42
3649.34
3623.89
3594.44
3566.33
3539.74
3514.78
3491.52
3470.01
3450.28
3432.34
3416.17
3401.74
3389.04
3378.01
3368.61
3360.79
3354.51
3349.71
3346.35
3344.39
3343.82
3344.74
3347.03
3350.67
3355.63
3361.91
3369.52
3378.45
3388.72
3400.34
3413.34
3427.75
3443.59
3460.89
3479.67
3499.95
3521.74
3545.03
3569.73
3595.65
3621.94
3631.53
3654.67
3978.9
3965.37
3948.34
3928.02
3904.65
3878.54
3850.05
3819.54
3787.38
3754.01
3719.81
3685.16
3650.44
3616.02
3587.42
3554.72
3523.17
3492.99
3464.32
3437.3
3412
3388.47
3366.75
3346.83
3328.7
3312.34
3297.72
3284.79
3273.52
3263.87
3255.81
3249.31
3244.33
3240.87
3238.97
3238.56
3239.65
3242.29
3246.47
3252.21
3259.55
3268.52
3279.15
3291.5
3305.58
3321.43
3339.1
3358.57
3379.87
3402.98
3427.86
3454.44
3482.63
3512.29
3543.27
3575.36
3605.97
3639.37
3673.03
3706.57
3739.65
3771.91
3802.99
3832.55
3860.23
3885.7
3908.63
3928.74
3945.74
3959.41
3969.54
3975.97
3978.6
3977.27
3972.05
3962.96
3950.07
3933.54
3913.58
3890.46
3864.48
3835.99
3805.36
3772.99
3739.27
3704.63
3669.47
3634.2
3599.19
3564.87
3531.42
3499.19
3468.43
3439.36
3412.14
3386.91
3363.76
3342.71
3323.79
3306.98
3292.23
3279.45
3268.58
3259.51
3252.15
3246.41
3242.2
3239.45
3238.15
3238.19
3239.54
3242.21
3246.17
3251.43
3257.99
3265.87
3275.08
3285.64
3297.57
3310.9
3325.64
3341.83
3359.47
3378.61
3399.23
3421.36
3444.98
3470.06
3496.56
3524.4
3553.46
3583.6
3614.61
3646.24
3678.22
3710.22
3741.89
3772.82
3802.61
3830.84
3857.06
3880.87
3901.87
3919.69
3934
3944.53
3951.07
3953.48
3951.59
3945.5
3935.29
3921.02
3902.94
3881.32
3856.5
3828.88
3798.89
3766.98
3733.65
3699.38
3664.63
3629.85
3595.45
3561.8
3529.2
3497.88
3468.04
3439.82
3413.32
3388.58
3365.65
3344.51
3325.15
3307.54
3291.63
3277.37
3264.7
3253.58
3243.94
3235.73
3228.91
3223.44
3219.28
3216.42
3214.87
3214.6
3215.63
3217.99
3221.71
3226.83
3233.4
3241.45
3251.03
3262.19
3274.96
3289.38
3305.46
3323.24
3342.7
3363.85
3386.63
3411.01
3436.91
3464.21
3492.79
3522.55
3553.15
3584.43
3616.13
3647.96
3679.59
3710.67
3740.84
3769.72
3796.93
3822.08
3844.81
3864.79
3881.71
3895.29
3905.32
3911.62
3914.08
3912.55
3907.14
3897.91
3884.91
3868.34
3848.42
3825.43
3799.68
3771.53
3741.37
3709.62
3676.7
3643.04
3609.06
3575.16
3541.74
3509.11
3477.61
3447.45
3418.86
3391.98
3366.95
3343.83
3322.66
3303.44
3286.16
3270.77
3257.22
3245.45
3235.39
3226.96
3220.11
3214.78
3210.89
3208.39
3207.23
3207.4
3208.86
3211.55
3215.48
3220.63
3226.99
3234.59
3243.43
3253.54
3264.97
3277.73
3291.88
3307.48
3324.57
3343.18
3363.33
3385.04
3408.31
3433.1
3459.33
3486.95
3515.93
3546.22
3577.18
3608.7
3640.57
3672.5
3704.16
3735.2
3765.26
3793.93
3820.83
3845.57
3867.77
3887.1
3903.24
3915.91
3924.87
3929.97
3931.05
3928.04
3921.05
3910.1
3895.38
3877.17
3855.75
3831.45
3804.68
3775.87
3745.44
3713.82
3681.41
3648.62
3615.78
3583.2
3551.11
3525.54
3496.09
3467.99
3441.4
3416.44
3393.18
3371.67
3351.95
3334.01
3317.84
3303.43
3290.73
3279.71
3270.32
3262.51
3256.23
3251.44
3248.08
3246.13
3245.56
3246.48
3248.77
3252.42
3257.37
3263.66
3271.26
3280.18
3290.45
3302.07
3315.07
3329.47
3345.31
3362.6
3381.37
3401.65
3423.43
3446.71
3471.41
3497.32
3523.63
3533.39
3556.52
3881.39
3867.81
3850.73
3830.35
3806.92
3780.74
3752.18
3721.59
3689.37
3655.93
3621.67
3586.97
3552.22
3517.81
3488.99
3456.31
3424.76
3394.57
3365.89
3338.87
3313.57
3290.05
3268.33
3248.42
3230.3
3213.95
3199.33
3186.42
3175.16
3165.52
3157.46
3150.96
3145.99
3142.54
3140.63
3140.22
3141.31
3143.94
3148.12
3153.86
3161.19
3170.15
3180.78
3193.11
3207.19
3223.03
3240.69
3260.16
3281.45
3304.56
3329.45
3356.03
3384.23
3413.91
3444.91
3477.07
3507.66
3541.13
3574.85
3608.44
3641.57
3673.89
3705.04
3734.66
3762.41
3787.93
3810.92
3831.08
3848.14
3861.85
3872.02
3878.47
3881.11
3879.79
3874.56
3865.44
3852.51
3835.94
3815.93
3792.75
3766.7
3738.14
3707.44
3674.99
3641.21
3606.5
3571.28
3535.95
3500.89
3466.52
3433.03
3400.77
3369.98
3340.9
3313.67
3288.44
3265.28
3244.25
3225.34
3208.54
3193.8
3181.04
3170.19
3161.13
3153.79
3148.06
3143.87
3141.13
3139.83
3139.87
3141.24
3143.9
3147.86
3153.12
3159.68
3167.55
3176.76
3187.31
3199.24
3212.56
3227.29
3243.47
3261.11
3280.24
3300.86
3322.98
3346.6
3371.69
3398.19
3426.04
3455.11
3485.28
3516.32
3547.99
3580.01
3612.07
3643.8
3674.81
3704.67
3732.97
3759.27
3783.15
3804.22
3822.1
3836.47
3847.05
3853.62
3856.03
3854.16
3848.05
3837.8
3823.49
3805.35
3783.67
3758.77
3731.07
3701
3669.01
3635.6
3601.25
3566.43
3531.59
3497.14
3463.45
3430.82
3399.48
3369.62
3341.4
3314.89
3290.16
3267.23
3246.1
3226.76
3209.15
3193.25
3179.01
3166.35
3155.24
3145.61
3137.4
3130.59
3125.13
3120.98
3118.12
3116.56
3116.29
3117.32
3119.67
3123.38
3128.5
3135.06
3143.1
3152.68
3163.82
3176.59
3190.99
3207.07
3224.84
3244.3
3265.45
3288.24
3312.62
3338.53
3365.84
3394.44
3424.22
3454.85
3486.17
3517.92
3549.79
3581.48
3612.62
3642.86
3671.8
3699.08
3724.29
3747.09
3767.13
3784.1
3797.73
3807.79
3814.12
3816.58
3815.07
3809.65
3800.39
3787.35
3770.74
3750.75
3727.7
3701.88
3673.66
3643.43
3611.6
3578.61
3544.88
3510.84
3476.89
3443.41
3410.75
3379.21
3349.03
3320.42
3293.54
3268.5
3245.38
3224.22
3205.01
3187.74
3172.36
3158.83
3147.07
3137.02
3128.61
3121.77
3116.44
3112.56
3110.07
3108.93
3109.1
3110.56
3113.26
3117.19
3122.33
3128.7
3136.29
3145.12
3155.23
3166.64
3179.4
3193.54
3209.13
3226.21
3244.8
3264.95
3286.66
3309.93
3334.72
3360.96
3388.58
3417.58
3447.9
3478.9
3510.45
3542.37
3574.34
3606.06
3637.17
3667.29
3696.03
3723
3747.8
3770.07
3789.47
3805.66
3818.37
3827.37
3832.49
3833.59
3830.56
3823.55
3812.56
3797.8
3779.53
3758.04
3733.66
3706.82
3677.94
3647.43
3615.74
3583.27
3550.42
3517.55
3484.94
3452.84
3427.11
3397.67
3369.56
3342.98
3318.02
3294.76
3273.25
3253.54
3235.6
3219.45
3205.04
3192.36
3181.35
3171.96
3164.16
3157.9
3153.11
3149.76
3147.82
3147.25
3148.17
3150.47
3154.11
3159.07
3165.35
3172.95
3181.87
3192.13
3203.74
3216.73
3231.13
3246.96
3264.24
3283.01
3303.27
3325.05
3348.33
3373.02
3398.93
3425.24
3435.24
3458.36
3784.02
3770.39
3753.25
3732.8
3709.28
3683.02
3654.36
3623.69
3591.38
3557.86
3523.53
3488.76
3453.97
3419.57
3390.49
3357.83
3326.27
3296.06
3267.39
3240.36
3215.06
3191.54
3169.83
3149.93
3131.82
3115.49
3100.88
3087.98
3076.73
3067.1
3059.05
3052.56
3047.59
3044.15
3042.23
3041.82
3042.91
3045.54
3049.71
3055.44
3062.77
3071.71
3082.33
3094.66
3108.72
3124.55
3142.2
3161.66
3182.95
3206.06
3230.95
3257.54
3285.75
3315.45
3346.49
3378.7
3409.32
3442.87
3476.64
3510.3
3543.5
3575.9
3607.12
3636.82
3664.65
3690.25
3713.31
3733.54
3750.66
3764.42
3774.63
3781.11
3783.77
3782.45
3777.21
3768.06
3755.09
3738.46
3718.39
3695.13
3669
3640.35
3609.56
3577.02
3543.15
3508.35
3473.05
3437.65
3402.53
3368.11
3334.57
3302.27
3271.45
3242.35
3215.11
3189.87
3166.72
3145.69
3126.79
3110.01
3095.29
3082.55
3071.72
3062.69
3055.36
3049.66
3045.48
3042.76
3041.46
3041.51
3042.88
3045.54
3049.51
3054.76
3061.32
3069.18
3078.38
3088.93
3100.85
3114.16
3128.89
3145.06
3162.69
3181.8
3202.42
3224.54
3248.15
3273.24
3299.75
3327.61
3356.71
3386.9
3417.98
3449.7
3481.79
3513.91
3545.72
3576.81
3606.77
3635.16
3661.56
3685.53
3706.69
3724.65
3739.09
3749.72
3756.32
3758.76
3756.89
3750.76
3740.47
3726.11
3707.9
3686.13
3661.14
3633.34
3603.16
3571.07
3537.55
3503.11
3468.2
3433.29
3398.78
3365.03
3332.37
3301
3271.12
3242.89
3216.38
3191.65
3168.73
3147.61
3128.28
3110.69
3094.81
3080.58
3067.94
3056.84
3047.22
3039.03
3032.22
3026.76
3022.62
3019.77
3018.21
3017.93
3018.96
3021.3
3025.01
3030.11
3036.66
3044.69
3054.25
3065.39
3078.14
3092.54
3108.61
3126.37
3145.83
3166.97
3189.76
3214.15
3240.07
3267.41
3296.03
3325.83
3356.51
3387.87
3419.67
3451.61
3483.37
3514.59
3544.9
3573.93
3601.29
3626.59
3649.47
3669.59
3686.62
3700.31
3710.41
3716.77
3719.24
3717.74
3712.3
3703
3689.92
3673.25
3653.2
3630.06
3604.16
3575.85
3545.53
3513.61
3480.52
3446.71
3412.59
3378.57
3345.03
3312.32
3280.74
3250.53
3221.9
3195.01
3169.97
3146.85
3125.69
3106.5
3089.24
3073.88
3060.36
3048.62
3038.59
3030.19
3023.37
3018.05
3014.19
3011.7
3010.57
3010.75
3012.22
3014.92
3018.84
3023.99
3030.35
3037.94
3046.77
3056.86
3068.27
3081.01
3095.14
3110.71
3127.78
3146.37
3166.5
3188.21
3211.48
3236.27
3262.52
3290.16
3319.17
3349.53
3380.57
3412.17
3444.13
3476.18
3507.96
3539.14
3569.35
3598.18
3625.24
3650.13
3672.48
3691.95
3708.21
3720.98
3730.02
3735.17
3736.28
3733.24
3726.2
3715.17
3700.35
3682
3660.42
3635.96
3609.02
3580.04
3549.44
3517.67
3485.12
3452.21
3419.28
3386.64
3354.55
3328.58
3299.16
3271.06
3244.47
3219.51
3196.25
3174.75
3155.04
3137.12
3120.98
3106.58
3093.91
3082.91
3073.55
3065.76
3059.5
3054.73
3051.39
3049.45
3048.89
3049.81
3052.11
3055.75
3060.71
3066.99
3074.58
3083.5
3093.75
3105.35
3118.34
3132.73
3148.55
3165.82
3184.57
3204.83
3226.6
3249.87
3274.55
3300.46
3326.79
3337.06
3360.17
3686.8
3673.1
3655.89
3635.35
3611.73
3585.37
3556.61
3525.83
3493.41
3459.79
3425.37
3390.53
3355.69
3321.28
3291.92
3259.27
3227.7
3197.48
3168.79
3141.76
3116.47
3092.95
3071.25
3051.36
3033.27
3016.95
3002.36
2989.47
2978.23
2968.61
2960.58
2954.09
2949.14
2945.69
2943.77
2943.36
2944.45
2947.07
2951.24
2956.96
2964.28
2973.21
2983.82
2996.13
3010.18
3026
3043.64
3063.09
3084.37
3107.48
3132.37
3158.97
3187.2
3216.93
3247.99
3280.27
3310.94
3344.57
3378.42
3412.15
3445.44
3477.92
3509.24
3539.03
3566.95
3592.65
3615.8
3636.11
3653.3
3667.13
3677.39
3683.91
3686.58
3685.27
3680.02
3670.83
3657.81
3641.12
3620.96
3597.61
3571.38
3542.62
3511.72
3479.07
3445.1
3410.2
3374.8
3339.32
3304.12
3269.63
3236.04
3203.69
3172.84
3143.7
3116.46
3091.21
3068.05
3047.04
3028.16
3011.4
2996.7
2983.99
2973.18
2964.18
2956.87
2951.19
2947.03
2944.33
2943.04
2943.1
2944.47
2947.14
2951.1
2956.35
2962.9
2970.76
2979.95
2990.49
3002.4
3015.7
3030.42
3046.58
3064.2
3083.3
3103.91
3126.02
3149.63
3174.72
3201.24
3229.11
3258.24
3288.47
3319.59
3351.37
3383.53
3415.74
3447.64
3478.84
3508.9
3537.41
3563.92
3588.01
3609.27
3627.32
3641.84
3652.54
3659.19
3661.65
3659.79
3653.64
3643.3
3628.87
3610.57
3588.7
3563.6
3535.68
3505.37
3473.15
3439.52
3404.96
3369.95
3334.95
3300.36
3266.55
3233.84
3202.44
3172.54
3144.3
3117.78
3093.06
3070.15
3049.05
3029.73
3012.16
2996.3
2982.08
2969.46
2958.37
2948.77
2940.59
2933.8
2928.35
2924.21
2921.36
2919.8
2919.53
2920.54
2922.88
2926.57
2931.66
2938.2
2946.22
2955.77
2966.89
2979.63
2994.01
3010.07
3027.83
3047.28
3068.42
3091.21
3115.61
3141.55
3168.91
3197.56
3227.39
3258.11
3289.54
3321.4
3353.41
3385.25
3416.56
3446.97
3476.1
3503.56
3528.97
3551.94
3572.15
3589.26
3603.02
3613.18
3619.57
3622.06
3620.56
3615.11
3605.77
3592.63
3575.89
3555.75
3532.52
3506.51
3478.09
3447.66
3415.63
3382.44
3348.52
3314.31
3280.21
3246.6
3213.83
3182.2
3151.95
3123.3
3096.39
3071.34
3048.23
3027.08
3007.9
2990.66
2975.32
2961.82
2950.1
2940.09
2931.72
2924.91
2919.61
2915.75
2913.29
2912.17
2912.34
2913.82
2916.53
2920.45
2925.6
2931.95
2939.53
2948.36
2958.44
2969.83
2982.56
2996.68
3012.23
3029.28
3047.86
3067.99
3089.69
3112.95
3137.75
3164.01
3191.67
3220.7
3251.1
3282.19
3313.84
3345.87
3377.99
3409.86
3441.14
3471.44
3500.37
3527.54
3552.54
3574.99
3594.55
3610.89
3623.73
3632.83
3638
3639.13
3636.09
3629
3617.92
3603.03
3584.59
3562.91
3538.33
3511.28
3482.19
3451.48
3419.6
3386.96
3353.96
3320.97
3288.3
3256.23
3229.96
3200.57
3172.48
3145.89
3120.92
3097.67
3076.17
3056.47
3038.56
3022.43
3008.05
2995.4
2984.42
2975.06
2967.29
2961.05
2956.29
2952.96
2951.03
2950.47
2951.4
2953.7
2957.35
2962.3
2968.58
2976.17
2985.08
2995.32
3006.91
3019.89
3034.27
3050.07
3067.33
3086.08
3106.32
3128.08
3151.34
3176.01
3201.91
3228.29
3238.85
3261.97
3589.73
3575.96
3558.65
3538.01
3514.28
3487.79
3458.91
3428
3395.47
3361.73
3327.2
3292.28
3257.37
3222.94
3193.28
3160.64
3129.05
3098.82
3070.12
3043.08
3017.79
2994.28
2972.59
2952.72
2934.64
2918.34
2903.77
2890.89
2879.67
2870.07
2862.04
2855.57
2850.62
2847.18
2845.25
2844.84
2845.93
2848.55
2852.71
2858.41
2865.72
2874.65
2885.23
2897.53
2911.56
2927.37
2944.99
2964.44
2985.71
3008.82
3033.71
3060.32
3088.57
3118.33
3149.43
3181.76
3212.54
3246.25
3280.17
3313.99
3347.38
3379.97
3411.39
3441.3
3469.33
3495.13
3518.39
3538.79
3556.07
3569.97
3580.29
3586.85
3589.55
3588.25
3582.97
3573.75
3560.67
3543.89
3523.64
3500.18
3473.84
3444.96
3413.93
3381.15
3347.05
3312.03
3276.53
3240.94
3205.66
3171.08
3137.43
3105.02
3074.13
3044.97
3017.71
2992.45
2969.3
2948.29
2929.43
2912.7
2898.03
2885.35
2874.57
2865.6
2858.32
2852.66
2848.52
2845.84
2844.56
2844.63
2846.01
2848.68
2852.63
2857.88
2864.43
2872.28
2881.46
2891.99
2903.89
2917.18
2931.89
2948.03
2965.64
2984.74
3005.33
3027.44
3051.04
3076.13
3102.66
3130.55
3159.7
3189.98
3221.16
3253.01
3285.25
3317.56
3349.57
3380.88
3411.07
3439.71
3466.36
3490.58
3511.96
3530.13
3544.75
3555.52
3562.22
3564.7
3562.85
3556.68
3546.28
3531.77
3513.38
3491.39
3466.16
3438.09
3407.64
3375.27
3341.49
3306.8
3271.67
3236.56
3201.88
3168.01
3135.24
3103.8
3073.88
3045.62
3019.11
2994.39
2971.49
2950.41
2931.11
2913.56
2897.71
2883.52
2870.92
2859.85
2850.26
2842.1
2835.32
2829.88
2825.75
2822.91
2821.35
2821.07
2822.08
2824.4
2828.08
2833.16
2839.68
2847.68
2857.22
2868.33
2881.05
2895.42
2911.47
2929.21
2948.66
2969.79
2992.59
3017
3042.95
3070.33
3099.02
3128.89
3159.67
3191.16
3223.1
3255.2
3287.13
3318.55
3349.07
3378.32
3405.9
3431.42
3454.51
3474.82
3492.03
3505.86
3516.09
3522.52
3525.03
3523.53
3518.06
3508.68
3495.48
3478.65
3458.41
3435.07
3408.95
3380.4
3349.83
3317.67
3284.36
3250.32
3216
3181.8
3148.11
3115.26
3083.58
3053.29
3024.61
2997.68
2972.63
2949.52
2928.39
2909.22
2892
2876.68
2863.21
2851.51
2841.52
2833.17
2826.39
2821.1
2817.27
2814.81
2813.71
2813.9
2815.38
2818.09
2822.02
2827.16
2833.51
2841.08
2849.9
2859.97
2871.34
2884.06
2898.15
2913.69
2930.72
2949.28
2969.4
2991.1
3014.36
3039.15
3065.42
3093.11
3122.16
3152.62
3183.76
3215.48
3247.58
3279.79
3311.76
3343.15
3373.57
3402.62
3429.91
3455.03
3477.6
3497.27
3513.7
3526.62
3535.78
3540.99
3542.13
3539.09
3531.96
3520.82
3505.83
3487.29
3465.49
3440.79
3413.6
3384.37
3353.53
3321.53
3288.78
3255.69
3222.63
3189.91
3157.87
3131.25
3101.91
3073.81
3047.22
3022.25
2999
2977.51
2957.82
2939.93
2923.81
2909.45
2896.81
2885.85
2876.52
2868.76
2862.53
2857.79
2854.48
2852.56
2852.01
2852.94
2855.25
2858.89
2863.84
2870.11
2877.7
2886.6
2896.83
2908.41
2921.38
2935.74
2951.53
2968.78
2987.51
3007.75
3029.49
3052.74
3077.4
3103.29
3129.72
3140.62
3163.75
3492.8
3478.95
3461.54
3440.77
3416.92
3390.29
3361.26
3330.22
3297.54
3263.67
3229.02
3194
3159.01
3124.56
3094.58
3061.94
3030.33
3000.08
2971.37
2944.32
2919.03
2895.53
2873.85
2853.99
2835.94
2819.65
2805.1
2792.25
2781.05
2771.46
2763.45
2756.98
2752.04
2748.61
2746.68
2746.27
2747.35
2749.96
2754.11
2759.81
2767.1
2776.01
2786.58
2798.86
2812.88
2828.66
2846.27
2865.7
2886.97
2910.08
2934.97
2961.59
2989.87
3019.65
3050.8
3083.19
3114.1
3147.89
3181.9
3215.83
3249.33
3282.04
3313.58
3343.62
3371.77
3397.7
3421.07
3441.59
3458.96
3472.95
3483.33
3489.95
3492.67
3491.38
3486.08
3476.81
3463.67
3446.8
3426.44
3402.86
3376.37
3347.35
3316.17
3283.26
3249.01
3213.86
3178.23
3142.52
3107.14
3072.48
3038.74
3006.28
2975.34
2946.15
2918.86
2893.6
2870.45
2849.45
2830.62
2813.91
2799.27
2786.63
2775.89
2766.95
2759.71
2754.08
2749.96
2747.3
2746.03
2746.11
2747.49
2750.16
2754.12
2759.37
2765.9
2773.75
2782.92
2793.44
2805.33
2818.6
2833.29
2849.43
2867.02
2886.1
2906.69
2928.78
2952.38
2977.48
3004.01
3031.93
3061.11
3091.43
3122.68
3154.6
3186.94
3219.36
3251.49
3282.94
3313.28
3342.08
3368.87
3393.25
3414.77
3433.07
3447.79
3458.65
3465.42
3467.93
3466.08
3459.89
3449.42
3434.83
3416.32
3394.19
3368.81
3340.58
3309.95
3277.42
3243.48
3208.63
3173.37
3138.13
3103.36
3069.4
3036.57
3005.08
2975.14
2946.87
2920.35
2895.64
2872.75
2851.68
2832.41
2814.88
2799.06
2784.89
2772.31
2761.27
2751.7
2743.56
2736.79
2731.36
2727.24
2724.4
2722.84
2722.55
2723.56
2725.87
2729.54
2734.6
2741.1
2749.09
2758.6
2769.69
2782.4
2796.75
2812.79
2830.52
2849.96
2871.09
2893.89
2918.31
2944.28
2971.69
3000.42
3030.33
3061.17
3092.74
3124.76
3156.96
3189.01
3220.54
3251.2
3280.58
3308.3
3333.95
3357.17
3377.6
3394.92
3408.85
3419.14
3425.62
3428.16
3426.67
3421.17
3411.73
3398.46
3381.53
3361.19
3337.72
3311.45
3282.76
3252.05
3219.74
3186.28
3152.1
3117.66
3083.34
3049.56
3016.63
2984.89
2954.55
2925.83
2898.89
2873.83
2850.73
2829.61
2810.46
2793.26
2777.97
2764.53
2752.86
2742.89
2734.57
2727.8
2722.54
2718.72
2716.29
2715.2
2715.41
2716.88
2719.6
2723.53
2728.67
2735.02
2742.58
2751.39
2761.45
2772.8
2785.49
2799.57
2815.09
2832.09
2850.64
2870.75
2892.43
2915.69
2940.49
2966.77
2994.48
3023.55
3054.09
3085.29
3117.08
3149.27
3181.58
3213.66
3245.17
3275.72
3304.92
3332.35
3357.6
3380.31
3400.1
3416.65
3429.66
3438.89
3444.15
3445.3
3442.24
3435.07
3423.85
3408.77
3390.11
3368.18
3343.32
3315.98
3286.6
3255.61
3223.47
3190.59
3157.39
3124.25
3091.48
3059.45
3032.46
3003.16
2975.07
2948.47
2923.5
2900.25
2878.77
2859.09
2841.21
2825.12
2810.78
2798.16
2787.22
2777.91
2770.17
2763.96
2759.23
2755.94
2754.03
2753.49
2754.43
2756.74
2760.38
2765.33
2771.6
2779.18
2788.07
2798.29
2809.86
2822.81
2837.16
2852.94
2870.16
2888.88
2909.1
2930.83
2954.07
2978.71
3004.59
3031.07
3042.38
3065.51
3396.03
3382.08
3364.55
3343.65
3319.65
3292.87
3263.68
3232.47
3199.63
3165.61
3130.83
3095.69
3060.61
3026.12
2995.82
2963.16
2931.53
2901.25
2872.53
2845.48
2820.18
2796.69
2775.03
2755.19
2737.16
2720.9
2706.37
2693.54
2682.35
2672.78
2664.79
2658.33
2653.4
2649.97
2648.04
2647.63
2648.71
2651.32
2655.46
2661.14
2668.42
2677.31
2687.86
2700.12
2714.11
2729.88
2747.48
2766.89
2788.15
2811.25
2836.15
2862.79
2891.08
2920.9
2952.1
2984.53
3015.64
3049.5
3083.61
3117.65
3151.27
3184.12
3215.81
3245.98
3274.29
3300.35
3323.86
3344.5
3361.98
3376.06
3386.52
3393.19
3395.95
3394.66
3389.34
3380.02
3366.8
3349.83
3329.35
3305.63
3278.99
3249.81
3218.47
3185.39
3150.98
3115.67
3079.9
3044.07
3008.57
2973.8
2939.98
2907.45
2876.46
2847.23
2819.92
2794.65
2771.51
2750.52
2731.71
2715.03
2700.43
2687.83
2677.13
2668.23
2661.03
2655.43
2651.34
2648.7
2647.45
2647.54
2648.93
2651.6
2655.56
2660.8
2667.33
2675.16
2684.33
2694.83
2706.7
2719.96
2734.64
2750.76
2768.34
2787.4
2807.97
2830.05
2853.65
2878.75
2905.3
2933.23
2962.45
2992.83
3024.14
3056.16
3088.6
3121.15
3153.42
3185.03
3215.53
3244.5
3271.47
3296.01
3317.69
3336.14
3350.99
3361.94
3368.78
3371.33
3369.48
3363.26
3352.72
3338.02
3319.39
3297.1
3271.55
3243.13
3212.32
3179.6
3145.48
3110.46
3075.03
3039.66
3004.77
2970.72
2937.82
2906.29
2876.31
2848.03
2821.51
2796.8
2773.93
2752.88
2733.63
2716.13
2700.34
2686.2
2673.65
2662.63
2653.08
2644.96
2638.21
2632.79
2628.68
2625.84
2624.28
2623.99
2624.99
2627.28
2630.94
2635.98
2642.46
2650.43
2659.92
2670.99
2683.68
2698.01
2714.03
2731.75
2751.18
2772.31
2795.12
2819.55
2845.54
2872.98
2901.76
2931.72
2962.63
2994.27
3026.4
3058.71
3090.88
3122.55
3153.35
3182.89
3210.76
3236.57
3259.93
3280.5
3297.94
3311.97
3322.34
3328.88
3331.45
3329.96
3324.43
3314.93
3301.58
3284.55
3264.07
3240.46
3214.04
3185.18
3154.3
3121.82
3088.2
3053.87
3019.28
2984.84
2950.95
2917.93
2886.11
2855.73
2826.97
2800.01
2774.95
2751.85
2730.74
2711.61
2694.44
2679.18
2665.77
2654.13
2644.2
2635.9
2629.16
2623.92
2620.13
2617.71
2616.63
2616.86
2618.34
2621.06
2625
2630.13
2636.48
2644.03
2652.82
2662.87
2674.2
2686.87
2700.93
2716.42
2733.4
2751.93
2772.02
2793.7
2816.95
2841.75
2868.05
2895.78
2924.89
2955.5
2986.76
3018.64
3050.92
3083.34
3115.55
3147.21
3177.91
3207.26
3234.85
3260.27
3283.12
3303.05
3319.72
3332.84
3342.15
3347.46
3348.63
3345.56
3338.33
3327.03
3311.84
3293.04
3270.96
3245.93
3218.42
3188.86
3157.71
3125.41
3092.39
3059.07
3025.83
2992.99
2960.97
2933.62
2904.34
2876.25
2849.64
2824.67
2801.42
2779.95
2760.29
2742.42
2726.35
2712.03
2699.44
2688.52
2679.23
2671.52
2665.33
2660.62
2657.34
2655.45
2654.92
2655.86
2658.18
2661.82
2666.77
2673.03
2680.6
2689.48
2699.69
2711.25
2724.18
2738.51
2754.27
2771.48
2790.18
2810.39
2832.1
2855.32
2879.95
2905.81
2932.34
2944.14
2967.25
3299.4
3285.34
3267.68
3246.64
3222.47
3195.52
3166.15
3134.76
3101.74
3067.56
3032.62
2997.36
2962.17
2927.62
2897
2864.32
2832.65
2802.35
2773.6
2746.55
2721.26
2697.78
2676.13
2656.31
2638.3
2622.07
2607.57
2594.76
2583.6
2574.04
2566.06
2559.63
2554.7
2551.28
2549.35
2548.93
2550.01
2552.61
2556.74
2562.41
2569.67
2578.54
2589.07
2601.31
2615.28
2631.03
2648.6
2668
2689.24
2712.34
2737.25
2763.9
2792.22
2822.08
2853.33
2885.8
2917.15
2951.07
2985.29
3019.46
3053.23
3086.22
3118.07
3148.4
3176.87
3203.09
3226.74
3247.51
3265.12
3279.31
3289.86
3296.59
3299.38
3298.1
3292.76
3283.39
3270.08
3253
3232.38
3208.49
3181.69
3152.33
3120.8
3087.54
3052.95
3017.48
2981.55
2945.57
2909.94
2875.06
2841.15
2808.54
2777.5
2748.22
2720.89
2695.61
2672.47
2651.5
2632.71
2616.07
2601.51
2588.96
2578.3
2569.45
2562.28
2556.72
2552.66
2550.05
2548.82
2548.92
2550.31
2552.99
2556.94
2562.18
2568.7
2576.53
2585.67
2596.16
2608.02
2621.27
2635.93
2652.03
2669.59
2688.63
2709.19
2731.26
2754.85