/*--------------------------------*- C++ -*----------------------------------*\
| =========                 |                                                 |
| \\      /  F ield         | OpenFOAM: The Open Source CFD Toolbox           |
|  \\    /   O peration     | Version:  3.0.1                                 |
|   \\  /    A nd           | Web:      www.OpenFOAM.org                      |
|    \\/     M anipulation  |                                                 |
\*---------------------------------------------------------------------------*/
FoamFile
{
    version     2.0;
    format      ascii;
    class       volScalarField;
    location    "34.4";
    object      p;
}
// * * * * * * * * * * * * * * * * * * * * * * * * * * * * * * * * * * * * * //

dimensions      [1 -1 -2 0 0 0 0];

internalField   nonuniform List<scalar> 
21420
(
4141.57
4111.18
4079.17
4045.84
4011.55
3976.67
3941.62
3906.77
3872.5
3839.2
3807.15
3776.87
3748.52
3721.2
3695.56
3671.73
3649.79
3629.76
3611.61
3595.32
3580.83
3568.1
3557.07
3547.66
3539.83
3533.52
3528.67
3525.26
3523.23
3522.58
3523.3
3525.39
3528.84
3533.67
3539.93
3547.65
3556.85
3567.6
3579.95
3593.95
3609.67
3627.14
3646.41
3667.53
3690.46
3715.2
3741.71
3769.92
3799.7
3829.85
3861.83
3894.72
3928.27
3962.14
3995.91
4029.26
4061.77
4093
4122.59
4150.12
4175.24
4197.6
4216.87
4232.77
4245.1
4253.63
4258.24
4258.7
4255.3
4247.88
4236.52
4221.3
4202.41
4180.1
4154.7
4126.53
4096.02
4063.59
4029.7
3994.8
3959.41
3924.02
3889.15
3855.33
3816.46
3783.52
3752.09
3722.49
3694.89
3669.37
3645.99
3624.77
3605.67
3588.64
3573.61
3560.53
3549.29
3539.82
3532.03
3525.84
3521.17
3517.94
3516.08
3515.54
3516.29
3518.31
3521.54
3526.01
3531.74
3538.72
3547
3556.61
3567.6
3580.01
3593.9
3609.3
3626.26
3644.81
3664.99
3686.78
3710.17
3735.13
3761.58
3789.43
3818.53
3848.75
3879.85
3911.59
3943.71
3975.89
4007.8
4039.06
4069.28
4098.06
4124.97
4149.61
4171.58
4190.52
4206.09
4217.99
4226.01
4229.99
4229.74
4225.38
4216.93
4204.44
4188.17
4168.35
4145.3
4119.4
4091.03
4060.62
4028.62
3995.5
3961.69
3927.65
3893.79
3860.5
3828.13
3796.97
3767.25
3739.17
3712.88
3688.46
3665.97
3645.4
3626.73
3609.91
3594.88
3581.57
3569.9
3559.79
3551.17
3543.96
3538.12
3533.57
3530.26
3528.14
3527.18
3527.35
3528.62
3530.98
3534.44
3539.03
3544.79
3551.77
3560.01
3569.59
3580.57
3593.01
3606.97
3622.5
3639.65
3658.45
3678.9
3701.01
3724.74
3750.03
3776.8
3804.92
3834.23
3864.59
3895.59
3927.01
3958.53
3989.82
4020.48
4050.14
4078.4
4104.87
4129.14
4150.84
4169.62
4185.16
4197.16
4205.4
4209.72
4209.94
4206.19
4198.41
4186.74
4171.36
4152.54
4130.59
4105.86
4078.75
4049.68
4019.09
3987.42
3955.09
3922.51
3890.08
3858.15
3827.03
3796.97
3768.21
3740.92
3715.21
3691.19
3668.89
3648.34
3629.53
3612.42
3596.99
3583.17
3570.9
3560.12
3550.77
3542.79
3536.16
3530.81
3526.74
3523.89
3522.27
3521.9
3522.71
3524.74
3527.99
3532.48
3538.22
3545.26
3553.63
3563.38
3574.54
3587.18
3601.33
3617.01
3634.27
3653.1
3673.49
3695.42
3718.86
3743.66
3769.72
3796.85
3825.64
3857.79
3891.03
3924.59
3958.41
3992.18
4025.62
4058.32
4089.83
4119.71
4147.49
4172.67
4194.83
4213.48
4228.23
4238.55
4244.37
4247.66
4246.69
4241.34
4232.07
4219.04
4202.49
4182.76
4160.13
4135.06
4107.9
4079.07
4049.02
4018.1
3986.69
3955.14
3923.7
3892.58
3862.54
3835.96
3808.85
3782.53
3757.41
3733.68
3711.45
3690.8
3671.73
3654.28
3638.43
3624.15
3611.42
3600.22
3590.52
3582.32
3575.6
3570.36
3566.6
3564.35
3563.63
3564.51
3566.95
3570.98
3576.59
3583.8
3592.59
3602.99
3614.98
3628.55
3643.68
3660.35
3678.52
3698.12
3719.11
3741.4
3764.91
3789.53
3815.12
3841.21
3867.38
3894.78
3922.8
3951.07
3979.37
4007.53
4035.18
4061.99
4043.53
4013.13
3981.1
3947.75
3913.45
3878.54
3843.49
3808.62
3774.34
3741.03
3708.97
3678.69
3650.33
3623.01
3597.37
3573.54
3551.61
3531.57
3513.43
3497.14
3482.66
3469.93
3458.9
3449.5
3441.67
3435.36
3430.52
3427.1
3425.08
3424.42
3425.15
3427.23
3430.68
3435.52
3441.77
3449.49
3458.68
3469.43
3481.78
3495.78
3511.5
3528.96
3548.24
3569.35
3592.28
3617.02
3643.53
3671.74
3701.52
3731.69
3763.68
3796.57
3830.13
3864.01
3897.8
3931.17
3963.7
3994.94
4024.55
4052.1
4077.24
4099.61
4118.89
4134.81
4147.14
4155.68
4160.3
4160.77
4157.35
4149.94
4138.57
4123.34
4104.43
4082.11
4056.69
4028.51
3997.97
3965.52
3931.61
3896.69
3861.28
3825.88
3790.98
3757.12
3718.33
3685.36
3653.92
3624.3
3596.7
3571.18
3547.8
3526.58
3507.48
3490.45
3475.43
3462.35
3451.12
3441.65
3433.87
3427.68
3423.01
3419.78
3417.93
3417.39
3418.14
3420.16
3423.39
3427.86
3433.58
3440.57
3448.84
3458.45
3469.44
3481.85
3495.73
3511.13
3528.09
3546.64
3566.81
3588.61
3612
3636.96
3663.41
3691.26
3720.37
3750.59
3781.7
3813.45
3845.58
3877.78
3909.7
3940.98
3971.22
4000.01
4026.94
4051.6
4073.59
4092.54
4108.12
4120.04
4128.07
4132.05
4131.8
4127.43
4118.98
4106.49
4090.2
4070.36
4047.3
4021.38
3992.98
3962.56
3930.54
3897.39
3863.57
3829.51
3795.64
3762.34
3729.96
3698.79
3669.06
3640.98
3614.69
3590.28
3567.78
3547.21
3528.55
3511.73
3496.71
3483.4
3471.73
3461.63
3453.01
3445.81
3439.97
3435.42
3432.11
3430
3429.03
3429.2
3430.48
3432.83
3436.29
3440.88
3446.65
3453.61
3461.85
3471.43
3482.4
3494.84
3508.8
3524.33
3541.48
3560.27
3580.72
3602.83
3626.56
3651.86
3678.63
3706.76
3736.07
3766.44
3797.45
3828.88
3860.42
3891.71
3922.39
3952.07
3980.35
4006.83
4031.12
4052.85
4071.64
4087.19
4099.2
4107.45
4111.77
4112
4108.24
4100.46
4088.78
4073.39
4054.56
4032.58
4007.83
3980.7
3951.62
3921.01
3889.32
3856.97
3824.38
3791.94
3759.99
3728.86
3698.8
3670.04
3642.74
3617.03
3593.01
3570.71
3550.16
3531.35
3514.25
3498.82
3485
3472.73
3461.96
3452.61
3444.64
3438
3432.66
3428.58
3425.74
3424.12
3423.75
3424.56
3426.59
3429.84
3434.32
3440.06
3447.1
3455.47
3465.22
3476.38
3489.02
3503.16
3518.84
3536.1
3554.93
3575.32
3597.25
3620.68
3645.49
3671.55
3698.69
3727.48
3759.65
3792.89
3826.46
3860.29
3894.08
3927.54
3960.26
3991.79
4021.68
4049.49
4074.68
4096.86
4115.54
4130.3
4140.65
4146.5
4149.74
4148.75
4143.4
4134.13
4121.09
4104.52
4084.77
4062.12
4037.03
4009.85
3981
3950.94
3920
3888.57
3857.01
3825.56
3794.43
3764.38
3737.79
3710.68
3684.36
3659.24
3635.51
3613.28
3592.62
3573.56
3556.11
3540.26
3525.98
3513.25
3502.05
3492.36
3484.16
3477.44
3472.2
3468.44
3466.19
3465.47
3466.34
3468.78
3472.82
3478.43
3485.63
3494.43
3504.82
3516.82
3530.39
3545.52
3562.19
3580.35
3599.96
3620.95
3643.24
3666.75
3691.38
3716.97
3743.06
3769.24
3796.65
3824.67
3852.95
3881.26
3909.43
3937.09
3963.91
3945.57
3915.13
3883.07
3849.68
3815.34
3780.4
3745.31
3710.42
3676.12
3642.79
3610.72
3580.43
3552.06
3524.74
3499.09
3475.27
3453.34
3433.31
3415.17
3398.89
3384.41
3371.69
3360.67
3351.27
3343.45
3337.14
3332.3
3328.89
3326.87
3326.22
3326.94
3329.03
3332.47
3337.31
3343.56
3351.27
3360.46
3371.2
3383.55
3397.54
3413.25
3430.71
3449.98
3471.09
3494.02
3518.76
3545.27
3573.48
3603.26
3633.48
3665.47
3698.37
3731.96
3765.86
3799.68
3833.08
3865.64
3896.93
3926.56
3954.15
3979.32
4001.73
4021.03
4036.98
4049.33
4057.89
4062.51
4063
4059.57
4052.15
4040.77
4025.51
4006.58
3984.22
3958.77
3930.55
3899.97
3867.48
3833.53
3798.58
3763.13
3727.68
3692.74
3658.82
3620.15
3587.13
3555.66
3526.03
3498.42
3472.9
3449.52
3428.3
3409.21
3392.19
3377.17
3364.1
3352.87
3343.42
3335.64
3329.46
3324.79
3321.57
3319.72
3319.18
3319.94
3321.96
3325.19
3329.66
3335.38
3342.36
3350.63
3360.24
3371.22
3383.63
3397.5
3412.89
3429.85
3448.4
3468.57
3490.36
3513.75
3538.71
3565.17
3593.02
3622.14
3652.37
3683.5
3715.27
3747.42
3779.65
3811.6
3842.91
3873.18
3902.01
3928.98
3953.67
3975.7
3994.69
4010.3
4022.24
4030.29
4034.28
4034.03
4029.65
4021.18
4008.67
3992.36
3972.49
3949.39
3923.43
3895
3864.53
3832.48
3799.29
3765.43
3731.34
3697.44
3664.11
3631.72
3600.53
3570.79
3542.71
3516.41
3492
3469.51
3448.95
3430.29
3413.48
3398.46
3385.16
3373.5
3363.4
3354.79
3347.6
3341.76
3337.22
3333.92
3331.8
3330.84
3331.02
3332.29
3334.64
3338.1
3342.69
3348.45
3355.41
3363.64
3373.21
3384.18
3396.61
3410.56
3426.09
3443.23
3462.02
3482.47
3504.58
3528.31
3553.61
3580.39
3608.52
3637.85
3668.24
3699.26
3730.72
3762.28
3793.61
3824.32
3854.04
3882.35
3908.87
3933.19
3954.95
3973.78
3989.35
4001.39
4009.65
4013.99
4014.24
4010.44
4002.66
3990.95
3975.54
3956.68
3934.67
3909.88
3882.72
3853.59
3822.95
3791.22
3758.84
3726.22
3693.75
3661.78
3630.63
3600.56
3571.78
3544.48
3518.77
3494.74
3472.45
3451.9
3433.1
3416
3400.58
3386.77
3374.51
3363.74
3354.4
3346.43
3339.8
3334.46
3330.38
3327.54
3325.93
3325.55
3326.37
3328.39
3331.64
3336.12
3341.86
3348.89
3357.26
3367
3378.16
3390.79
3404.93
3420.61
3437.86
3456.69
3477.08
3499.01
3522.44
3547.25
3573.32
3600.47
3629.26
3661.46
3694.72
3728.31
3762.16
3795.98
3829.47
3862.23
3893.79
3923.74
3951.58
3976.82
3999.04
4017.74
4032.54
4042.94
4048.86
4052
4050.98
4045.63
4036.34
4023.27
4006.68
3986.88
3964.2
3939.07
3911.85
3882.96
3852.86
3821.89
3790.44
3758.85
3727.38
3696.24
3666.18
3639.56
3612.44
3586.12
3560.99
3537.26
3515.03
3494.38
3475.32
3457.88
3442.03
3427.75
3415.03
3403.83
3394.14
3385.94
3379.22
3373.98
3370.22
3367.97
3367.25
3368.12
3370.56
3374.59
3380.2
3387.41
3396.2
3406.59
3418.59
3432.15
3447.29
3463.96
3482.13
3501.73
3522.73
3545.02
3568.53
3593.17
3618.77
3644.87
3671.05
3698.47
3726.51
3754.8
3783.13
3811.32
3839
3865.85
3847.67
3817.17
3785.06
3751.62
3717.22
3682.24
3647.11
3612.18
3577.83
3544.47
3512.39
3482.1
3453.71
3426.38
3400.73
3376.91
3354.98
3334.96
3316.83
3300.55
3286.09
3273.38
3262.37
3252.98
3245.16
3238.86
3234.03
3230.62
3228.61
3227.96
3228.69
3230.76
3234.21
3239.04
3245.29
3252.99
3262.18
3272.91
3285.24
3299.23
3314.93
3332.38
3351.64
3372.75
3395.68
3420.41
3446.93
3475.14
3504.91
3535.2
3567.2
3600.13
3633.74
3667.69
3701.55
3735
3767.61
3798.95
3828.64
3856.28
3881.5
3903.95
3923.3
3939.28
3951.67
3960.25
3964.88
3965.4
3961.94
3954.52
3943.11
3927.83
3908.85
3886.45
3860.94
3832.66
3802.02
3769.47
3735.46
3700.45
3664.94
3629.44
3594.44
3560.41
3521.94
3488.84
3457.32
3427.68
3400.06
3374.53
3351.15
3329.94
3310.85
3293.84
3278.83
3265.77
3254.56
3245.11
3237.34
3231.17
3226.52
3223.31
3221.46
3220.93
3221.69
3223.71
3226.94
3231.41
3237.13
3244.11
3252.37
3261.97
3272.94
3285.34
3299.21
3314.59
3331.54
3350.08
3370.25
3392.03
3415.43
3440.39
3466.85
3494.71
3523.85
3554.1
3585.25
3617.05
3649.24
3681.5
3713.5
3744.86
3775.18
3804.06
3831.09
3855.84
3877.92
3896.96
3912.61
3924.59
3932.66
3936.66
3936.43
3932.03
3923.54
3911
3894.64
3874.73
3851.58
3825.56
3797.07
3766.54
3734.43
3701.19
3667.27
3633.13
3599.19
3565.83
3533.41
3502.19
3472.44
3444.35
3418.05
3393.63
3371.15
3350.59
3331.94
3315.15
3300.14
3286.85
3275.2
3265.12
3256.52
3249.33
3243.51
3238.97
3235.67
3233.56
3232.61
3232.79
3234.06
3236.41
3239.87
3244.45
3250.2
3257.16
3265.38
3274.94
3285.9
3298.32
3312.26
3327.78
3344.91
3363.7
3384.14
3406.25
3429.98
3455.29
3482.07
3510.22
3539.57
3569.98
3601.04
3632.53
3664.13
3695.5
3726.26
3756.03
3784.4
3810.97
3835.35
3857.16
3876.03
3891.65
3903.72
3912.01
3916.36
3916.63
3912.81
3905.01
3893.27
3877.82
3858.91
3836.85
3812.01
3784.78
3755.6
3724.9
3693.12
3660.68
3628.02
3595.51
3563.51
3532.33
3502.24
3473.45
3446.14
3420.42
3396.4
3374.11
3353.57
3334.77
3317.69
3302.27
3288.47
3276.22
3265.46
3256.13
3248.17
3241.54
3236.21
3232.13
3229.29
3227.69
3227.31
3228.12
3230.15
3233.39
3237.87
3243.6
3250.63
3258.99
3268.72
3279.87
3292.5
3306.63
3322.3
3339.55
3358.38
3378.76
3400.69
3424.13
3448.95
3475.03
3502.18
3530.99
3563.23
3596.52
3630.13
3664.02
3697.88
3731.41
3764.23
3795.86
3825.86
3853.77
3879.07
3901.35
3920.1
3934.94
3945.42
3951.42
3954.45
3953.39
3948.03
3938.72
3925.61
3908.95
3889.11
3866.36
3841.18
3813.89
3784.95
3754.8
3723.78
3692.28
3660.66
3629.16
3598
3567.93
3541.26
3514.14
3487.8
3462.67
3438.94
3416.71
3396.06
3377.01
3359.57
3343.73
3329.46
3316.74
3305.55
3295.86
3287.66
3280.94
3275.71
3271.94
3269.69
3268.97
3269.84
3272.28
3276.31
3281.92
3289.12
3297.91
3308.3
3320.29
3333.86
3348.99
3365.66
3383.83
3403.44
3424.44
3446.74
3470.26
3494.91
3520.52
3546.63
3572.82
3600.26
3628.32
3656.64
3684.99
3713.21
3740.93
3767.8
3749.84
3719.27
3687.08
3653.57
3619.11
3584.05
3548.86
3513.88
3479.49
3446.09
3413.98
3383.68
3355.27
3327.93
3302.28
3278.46
3256.54
3236.52
3218.4
3202.15
3187.7
3175
3164
3154.62
3146.82
3140.53
3135.7
3132.3
3130.29
3129.65
3130.37
3132.45
3135.89
3140.72
3146.96
3154.65
3163.83
3174.55
3186.88
3200.85
3216.54
3233.98
3253.23
3274.33
3297.25
3321.99
3348.5
3376.72
3406.49
3436.86
3468.87
3501.83
3535.49
3569.49
3603.41
3636.92
3669.6
3701.01
3730.77
3758.48
3783.77
3806.29
3825.69
3841.72
3854.15
3862.76
3867.41
3867.95
3864.49
3857.05
3845.61
3830.28
3811.25
3788.78
3763.2
3734.84
3704.12
3671.49
3637.4
3602.31
3566.73
3531.16
3496.06
3461.91
3423.68
3390.48
3358.91
3329.24
3301.6
3276.07
3252.7
3231.49
3212.41
3195.4
3180.41
3167.36
3156.17
3146.74
3138.98
3132.83
3128.19
3124.99
3123.15
3122.63
3123.4
3125.41
3128.65
3133.12
3138.83
3145.8
3154.06
3163.65
3174.61
3187
3200.85
3216.23
3233.16
3251.7
3271.86
3293.64
3317.03
3341.99
3368.46
3396.34
3425.49
3455.77
3486.95
3518.79
3551.02
3583.34
3615.39
3646.82
3677.21
3706.17
3733.27
3758.1
3780.25
3799.35
3815.06
3827.08
3835.19
3839.21
3839
3834.57
3826.05
3813.47
3797.06
3777.09
3753.87
3727.77
3699.2
3668.59
3636.4
3603.08
3569.1
3534.89
3500.89
3467.48
3435.02
3403.78
3374
3345.9
3319.59
3295.18
3272.7
3252.16
3233.52
3216.74
3201.75
3188.48
3176.84
3166.77
3158.18
3151.01
3145.2
3140.67
3137.38
3135.28
3134.34
3134.51
3135.78
3138.13
3141.59
3146.16
3151.9
3158.85
3167.06
3176.61
3187.56
3199.96
3213.89
3229.4
3246.53
3265.3
3285.74
3307.84
3331.58
3356.89
3383.69
3411.85
3441.22
3471.67
3502.77
3534.3
3565.96
3597.39
3628.22
3658.05
3686.49
3713.14
3737.59
3759.47
3778.41
3794.08
3806.2
3814.52
3818.89
3819.17
3815.33
3807.51
3795.74
3780.23
3761.26
3739.13
3714.21
3686.91
3657.65
3626.87
3595.01
3562.52
3529.8
3497.23
3465.19
3433.97
3403.85
3375.04
3347.72
3322
3297.97
3275.69
3255.15
3236.37
3219.3
3203.9
3190.11
3177.87
3167.12
3157.8
3149.85
3143.23
3137.9
3133.84
3131
3129.4
3129.02
3129.83
3131.85
3135.09
3139.57
3145.29
3152.31
3160.66
3170.38
3181.53
3194.14
3208.26
3223.93
3241.17
3259.99
3280.38
3302.31
3325.75
3350.57
3376.66
3403.82
3432.66
3464.96
3498.27
3531.92
3565.86
3599.77
3633.38
3666.26
3697.97
3728.06
3756.06
3781.44
3803.79
3822.62
3837.53
3848.09
3854.14
3857.1
3855.99
3850.61
3841.25
3828.08
3811.36
3791.44
3768.62
3743.35
3715.99
3686.97
3656.75
3625.67
3594.11
3562.44
3530.9
3499.72
3469.62
3442.9
3415.76
3389.41
3364.27
3340.54
3318.31
3297.67
3278.62
3261.19
3245.36
3231.1
3218.39
3207.2
3197.52
3189.32
3182.61
3177.37
3173.61
3171.36
3170.63
3171.49
3173.93
3177.96
3183.57
3190.76
3199.55
3209.94
3221.93
3235.49
3250.63
3267.3
3285.47
3305.09
3326.09
3348.4
3371.93
3396.59
3422.21
3448.35
3474.54
3502
3530.1
3558.45
3586.84
3615.1
3642.86
3669.78
3652.08
3621.42
3589.14
3555.53
3520.98
3485.85
3450.58
3415.53
3381.08
3347.63
3315.49
3285.19
3256.74
3229.39
3203.74
3179.92
3158.01
3138.01
3119.9
3103.66
3089.23
3076.55
3065.56
3056.2
3048.41
3042.13
3037.32
3033.93
3031.92
3031.28
3032.01
3034.07
3037.52
3042.34
3048.58
3056.26
3065.42
3076.13
3088.44
3102.4
3118.07
3135.5
3154.74
3175.83
3198.75
3223.48
3250
3278.22
3307.98
3338.46
3370.49
3403.49
3437.2
3471.26
3505.26
3538.85
3571.62
3603.11
3632.96
3660.76
3686.13
3708.73
3728.21
3744.3
3756.78
3765.43
3770.1
3770.65
3767.2
3759.74
3748.25
3732.87
3713.77
3691.22
3665.56
3637.1
3606.28
3573.54
3539.35
3504.17
3468.49
3432.82
3397.63
3363.32
3325.37
3292.05
3260.41
3230.71
3203.06
3177.52
3154.15
3132.95
3113.88
3096.89
3081.91
3068.88
3057.7
3048.29
3040.56
3034.42
3029.8
3026.61
3024.79
3024.28
3025.05
3027.06
3030.3
3034.77
3040.47
3047.44
3055.69
3065.27
3076.22
3088.59
3102.43
3117.79
3134.72
3153.24
3173.39
3195.17
3218.56
3243.53
3270
3297.9
3327.07
3357.38
3388.6
3420.49
3452.78
3485.16
3517.29
3548.79
3579.28
3608.33
3635.52
3660.44
3682.68
3701.87
3717.65
3729.73
3737.88
3741.92
3741.72
3737.28
3728.72
3716.09
3699.62
3679.56
3656.25
3630.06
3601.38
3570.68
3538.39
3504.97
3470.9
3436.62
3402.54
3369.07
3336.57
3305.28
3275.48
3247.36
3221.05
3196.64
3174.16
3153.63
3135.02
3118.26
3103.29
3090.03
3078.42
3068.37
3059.79
3052.64
3046.84
3042.32
3039.05
3036.95
3036.01
3036.19
3037.47
3039.81
3043.26
3047.83
3053.56
3060.49
3068.69
3078.22
3089.15
3101.54
3115.46
3130.95
3148.06
3166.83
3187.26
3209.36
3233.1
3258.42
3285.23
3313.41
3342.81
3373.32
3404.46
3436.05
3467.78
3499.28
3530.19
3560.11
3588.64
3615.37
3639.91
3661.88
3680.9
3696.64
3708.82
3717.19
3721.57
3721.87
3718.02
3710.16
3698.34
3682.77
3663.72
3641.5
3616.49
3589.09
3559.73
3528.86
3496.91
3464.33
3431.54
3398.91
3366.81
3335.55
3305.39
3276.56
3249.21
3223.49
3199.46
3177.18
3156.66
3137.89
3120.83
3105.45
3091.68
3079.46
3068.73
3059.42
3051.48
3044.87
3039.55
3035.49
3032.66
3031.06
3030.68
3031.49
3033.51
3036.75
3041.21
3046.93
3053.94
3062.28
3071.99
3083.12
3095.72
3109.83
3125.49
3142.72
3161.54
3181.92
3203.86
3227.3
3252.13
3278.23
3305.4
3334.28
3366.64
3399.99
3433.69
3467.68
3501.67
3535.35
3568.33
3600.15
3630.34
3658.45
3683.93
3706.38
3725.3
3740.28
3750.93
3757.03
3759.94
3758.77
3753.36
3743.95
3730.7
3713.89
3693.88
3670.96
3645.59
3618.13
3589.02
3558.71
3527.55
3495.92
3464.19
3432.59
3401.38
3371.27
3344.47
3317.31
3290.95
3265.8
3242.06
3219.84
3199.2
3180.17
3162.75
3146.92
3132.67
3119.97
3108.79
3099.12
3090.93
3084.21
3078.98
3075.22
3072.96
3072.22
3073.09
3075.52
3079.55
3085.15
3092.34
3101.13
3111.52
3123.5
3137.07
3152.2
3168.88
3187.05
3206.67
3227.68
3250
3273.54
3298.22
3323.86
3350.03
3376.22
3403.72
3431.85
3460.24
3488.67
3516.98
3544.79
3571.77
3554.39
3523.62
3491.22
3457.51
3422.85
3387.62
3352.26
3317.13
3282.61
3249.1
3216.93
3186.62
3158.13
3130.77
3105.11
3081.3
3059.4
3039.41
3021.32
3005.1
2990.69
2978.03
2967.06
2957.72
2949.94
2943.68
2938.88
2935.49
2933.5
2932.86
2933.59
2935.65
2939.09
2943.91
2950.13
2957.8
2966.95
2977.64
2989.94
3003.88
3019.53
3036.95
3056.17
3077.24
3100.16
3124.89
3151.41
3179.64
3209.4
3240
3272.05
3305.09
3338.87
3373.01
3407.1
3440.79
3473.66
3505.26
3535.21
3563.12
3588.59
3611.28
3630.85
3647.01
3659.55
3668.25
3672.95
3673.52
3670.07
3662.58
3651.05
3635.6
3616.42
3593.77
3568
3539.42
3508.48
3475.63
3441.31
3406.01
3370.23
3334.45
3299.13
3264.65
3226.99
3193.54
3161.84
3132.1
3104.43
3078.89
3055.52
3034.32
3015.26
2998.29
2983.33
2970.32
2959.17
2949.78
2942.07
2935.96
2931.36
2928.18
2926.37
2925.88
2926.65
2928.67
2931.91
2936.37
2942.07
2949.02
2957.26
2966.83
2977.77
2990.12
3003.95
3019.3
3036.2
3054.72
3074.85
3096.62
3120.01
3144.99
3171.47
3199.38
3228.59
3258.93
3290.2
3322.14
3354.5
3386.96
3419.18
3450.79
3481.38
3510.54
3537.84
3562.88
3585.23
3604.51
3620.38
3632.53
3640.73
3644.79
3644.6
3640.15
3631.55
3618.85
3602.3
3582.15
3558.73
3532.42
3503.63
3472.8
3440.39
3406.86
3372.68
3338.3
3304.15
3270.6
3238.04
3206.71
3176.88
3148.73
3122.41
3098
3075.54
3055.03
3036.43
3019.7
3004.75
2991.52
2979.93
2969.9
2961.35
2954.21
2948.43
2943.93
2940.66
2938.58
2937.65
2937.83
2939.1
2941.45
2944.89
2949.45
2955.17
2962.08
2970.27
2979.78
2990.69
3003.06
3016.96
3032.43
3049.53
3068.28
3088.71
3110.8
3134.54
3159.87
3186.7
3214.91
3244.34
3274.91
3306.1
3337.77
3369.57
3401.17
3432.18
3462.2
3490.83
3517.68
3542.33
3564.39
3583.51
3599.34
3611.58
3620
3624.42
3624.72
3620.87
3612.96
3601.08
3585.44
3566.29
3543.97
3518.84
3491.32
3461.85
3430.87
3398.81
3366.13
3333.25
3300.54
3268.37
3237.06
3206.86
3177.99
3150.63
3124.9
3100.87
3078.6
3058.09
3039.33
3022.3
3006.94
2993.19
2980.99
2970.28
2960.99
2953.06
2946.46
2941.15
2937.09
2934.27
2932.67
2932.29
2933.1
2935.12
2938.35
2942.81
2948.52
2955.52
2963.84
2973.54
2984.65
2997.24
3011.33
3026.98
3044.21
3063.01
3083.39
3105.33
3128.78
3153.62
3179.74
3206.92
3235.84
3268.28
3301.68
3335.42
3369.49
3403.56
3437.34
3470.44
3502.37
3532.7
3560.93
3586.54
3609.11
3628.14
3643.21
3653.96
3660.11
3662.97
3661.75
3656.29
3646.8
3633.47
3616.55
3596.43
3573.39
3547.9
3520.32
3491.1
3460.69
3429.43
3397.71
3365.91
3334.25
3302.99
3272.87
3245.98
3218.8
3192.42
3167.26
3143.52
3121.29
3100.66
3081.64
3064.23
3048.42
3034.18
3021.49
3010.32
3000.65
2992.47
2985.76
2980.52
2976.77
2974.51
2973.76
2974.62
2977.06
2981.08
2986.68
2993.86
3002.64
3013.03
3025.01
3038.57
3053.7
3070.38
3088.56
3108.19
3129.21
3151.54
3175.1
3199.79
3225.46
3251.65
3277.85
3305.39
3333.56
3362
3390.49
3418.86
3446.73
3473.78
3456.77
3425.86
3393.34
3359.5
3324.72
3289.37
3253.9
3218.67
3184.08
3150.49
3118.28
3087.97
3059.43
3032.06
3006.4
2982.59
2960.7
2940.72
2922.66
2906.46
2892.07
2879.44
2868.49
2859.17
2851.41
2845.17
2840.38
2837.01
2835.02
2834.39
2835.11
2837.18
2840.62
2845.42
2851.63
2859.29
2868.42
2879.09
2891.36
2905.28
2920.92
2938.32
2957.52
2978.58
3001.49
3026.22
3052.75
3080.98
3110.75
3141.47
3173.54
3206.64
3240.5
3274.74
3308.93
3342.73
3375.72
3407.44
3437.52
3465.55
3491.14
3513.94
3533.61
3549.86
3562.47
3571.22
3575.96
3576.55
3573.1
3565.57
3553.99
3538.47
3519.2
3496.43
3470.53
3441.82
3410.74
3377.74
3343.29
3307.85
3271.93
3236.02
3200.56
3165.9
3128.56
3094.97
3063.18
3033.39
3005.71
2980.16
2956.79
2935.61
2916.56
2899.61
2884.67
2871.68
2860.56
2851.2
2843.52
2837.43
2832.85
2829.7
2827.91
2827.42
2828.21
2830.23
2833.47
2837.93
2843.62
2850.56
2858.79
2868.34
2879.26
2891.6
2905.4
2920.73
2937.62
2956.12
2976.24
2998
3021.39
3046.37
3072.87
3100.8
3130.04
3160.43
3191.75
3223.76
3256.2
3288.75
3321.07
3352.79
3383.51
3412.8
3440.23
3465.4
3487.88
3507.28
3523.25
3535.48
3543.74
3547.83
3547.65
3543.19
3534.53
3521.76
3505.11
3484.85
3461.31
3434.86
3405.93
3374.96
3342.41
3308.75
3274.45
3239.95
3205.7
3172.06
3139.44
3108.05
3078.18
3050.02
3023.69
2999.28
2976.83
2956.34
2937.77
2921.06
2906.14
2892.94
2881.38
2871.37
2862.84
2855.73
2849.96
2845.48
2842.23
2840.16
2839.24
2839.43
2840.7
2843.05
2846.48
2851.03
2856.73
2863.62
2871.79
2881.28
2892.16
2904.51
2918.39
2933.84
2950.93
2969.66
2990.08
3012.17
3035.91
3061.25
3088.1
3116.34
3145.8
3176.45
3207.7
3239.45
3271.35
3303.05
3334.17
3364.31
3393.08
3420.05
3444.82
3467.01
3486.24
3502.17
3514.5
3522.98
3527.43
3527.74
3523.88
3515.92
3503.97
3488.23
3468.98
3446.53
3421.27
3393.62
3364.01
3332.89
3300.71
3267.91
3234.92
3202.12
3169.88
3138.5
3108.25
3079.35
3051.97
3026.23
3002.2
2979.93
2959.44
2940.7
2923.69
2908.35
2894.63
2882.46
2871.77
2862.49
2854.59
2848
2842.7
2838.65
2835.83
2834.24
2833.85
2834.67
2836.68
2839.91
2844.36
2850.06
2857.04
2865.35
2875.02
2886.12
2898.69
2912.77
2928.4
2945.62
2964.41
2984.79
3006.73
3030.19
3055.05
3081.18
3108.39
3137.34
3169.87
3203.33
3237.14
3271.28
3305.45
3339.35
3372.58
3404.65
3435.13
3463.51
3489.27
3511.98
3531.13
3546.32
3557.16
3563.37
3566.19
3564.91
3559.39
3549.82
3536.38
3519.34
3499.08
3475.91
3450.28
3422.56
3393.2
3362.67
3331.3
3299.48
3267.59
3235.86
3204.55
3174.41
3147.42
3120.21
3093.82
3068.64
3044.89
3022.67
3002.05
2983.04
2965.65
2949.85
2935.63
2922.95
2911.79
2902.13
2893.95
2887.25
2882.01
2878.26
2876
2875.24
2876.09
2878.53
2882.54
2888.14
2895.32
2904.09
2914.47
2926.45
2940.01
2955.14
2971.83
2990.01
3009.65
3030.68
3053.02
3076.59
3101.31
3127.01
3153.23
3179.44
3207.02
3235.25
3263.75
3292.3
3320.73
3348.68
3375.81
3359.21
3328.15
3295.49
3261.5
3226.58
3191.1
3155.5
3120.17
3085.48
3051.82
3019.54
2989.24
2960.65
2933.26
2907.59
2883.79
2861.91
2841.96
2823.92
2807.74
2793.38
2780.77
2769.85
2760.56
2752.82
2746.59
2741.82
2738.46
2736.49
2735.86
2736.59
2738.65
2742.08
2746.88
2753.08
2760.71
2769.83
2780.47
2792.73
2806.62
2822.23
2839.61
2858.79
2879.84
2902.74
2927.46
2954
2982.24
3012.02
3042.86
3074.97
3108.14
3142.09
3176.43
3210.74
3244.67
3277.8
3309.67
3339.89
3368.06
3393.78
3416.71
3436.49
3452.85
3465.54
3474.35
3479.13
3479.74
3476.29
3468.73
3457.09
3441.48
3422.09
3399.2
3373.15
3344.29
3313.04
3279.88
3245.27
3209.67
3173.61
3137.55
3101.94
3067.09
3030.04
2996.31
2964.43
2934.6
2906.9
2881.34
2857.98
2836.8
2817.77
2800.84
2785.93
2772.97
2761.88
2752.55
2744.9
2738.85
2734.29
2731.16
2729.39
2728.92
2729.71
2731.74
2734.98
2739.44
2745.12
2752.05
2760.26
2769.79
2780.69
2793.01
2806.79
2822.1
2838.97
2857.45
2877.56
2899.31
2922.7
2947.68
2974.2
3002.15
3031.42
3061.86
3093.25
3125.33
3157.86
3190.52
3222.96
3254.81
3285.67
3315.11
3342.7
3368.01
3390.63
3410.17
3426.26
3438.59
3446.91
3451.04
3450.87
3446.39
3437.67
3424.82
3408.06
3387.67
3363.98
3337.38
3308.29
3277.16
3244.45
3210.64
3176.19
3141.57
3107.19
3073.46
3040.76
3009.32
2979.4
2951.21
2924.87
2900.47
2878.04
2857.57
2839.02
2822.34
2807.46
2794.29
2782.76
2772.78
2764.28
2757.19
2751.45
2746.98
2743.75
2741.7
2740.79
2740.98
2742.26
2744.6
2748.02
2752.56
2758.24
2765.11
2773.25
2782.72
2793.58
2805.9
2819.75
2835.19
2852.25
2870.97
2891.37
2913.45
2937.2
2962.55
2989.42
3017.7
3047.2
3077.93
3109.26
3141.1
3173.11
3204.93
3236.18
3266.46
3295.37
3322.48
3347.41
3369.73
3389.09
3405.13
3417.56
3426.11
3430.6
3430.93
3427.04
3419.03
3407
3391.16
3371.78
3349.19
3323.78
3295.96
3266.2
3234.93
3202.61
3169.68
3136.56
3103.66
3071.32
3039.88
3009.57
2980.63
2953.22
2927.47
2903.45
2881.19
2860.71
2842
2825.01
2809.7
2796.01
2783.86
2773.2
2763.95
2756.06
2749.49
2744.19
2740.15
2737.34
2735.75
2735.37
2736.18
2738.19
2741.41
2745.85
2751.54
2758.51
2766.8
2776.45
2787.53
2800.08
2814.14
2829.76
2846.96
2865.74
2886.12
2908.06
2931.53
2956.4
2982.56
3009.79
3038.77
3071.42
3104.94
3138.82
3173.05
3207.33
3241.37
3274.74
3306.98
3337.63
3366.19
3392.12
3414.99
3434.29
3449.6
3460.55
3466.81
3469.6
3468.25
3462.66
3453
3439.44
3422.27
3401.85
3378.51
3352.72
3324.85
3295.34
3264.67
3233.17
3201.24
3169.24
3137.42
3106.05
3075.9
3048.8
3021.56
2995.14
2969.94
2946.19
2923.98
2903.36
2884.37
2866.99
2851.22
2837.01
2824.35
2813.2
2803.55
2795.38
2788.68
2783.44
2779.69
2777.42
2776.66
2777.51
2779.93
2783.95
2789.53
2796.71
2805.48
2815.85
2827.83
2841.38
2856.52
2873.2
2891.4
2911.04
2932.08
2954.44
2978.03
3002.78
3028.51
3054.77
3080.98
3108.61
3136.9
3165.47
3194.09
3222.6
3250.64
3277.86
3261.72
3230.5
3197.66
3163.51
3128.43
3092.8
3057.07
3021.61
2986.81
2953.07
2920.73
2890.43
2861.78
2834.37
2808.7
2784.9
2763.03
2743.11
2725.09
2708.95
2694.62
2682.04
2671.15
2661.88
2654.17
2647.97
2643.21
2639.87
2637.9
2637.29
2638.01
2640.07
2643.49
2648.28
2654.46
2662.08
2671.17
2681.79
2694.02
2707.89
2723.47
2740.83
2759.98
2781.01
2803.9
2828.63
2855.17
2883.43
2913.24
2944.18
2976.34
3009.59
3043.64
3078.1
3112.54
3146.62
3179.9
3211.93
3242.31
3270.64
3296.52
3319.59
3339.5
3355.97
3368.76
3377.64
3382.46
3383.1
3379.65
3372.05
3360.33
3344.63
3325.12
3302.08
3275.87
3246.83
3215.4
3182.05
3147.25
3111.49
3075.26
3039.04
3003.26
2968.2
2931.46
2897.57
2865.6
2835.72
2807.99
2782.43
2759.07
2737.91
2718.9
2701.99
2687.11
2674.18
2663.12
2653.83
2646.22
2640.2
2635.68
2632.57
2630.82
2630.37
2631.17
2633.2
2636.44
2640.89
2646.57
2653.48
2661.68
2671.19
2682.07
2694.36
2708.12
2723.4
2740.25
2758.7
2778.8
2800.54
2823.92
2848.91
2875.45
2903.43
2932.74
2963.23
2994.69
3026.87
3059.5
3092.27
3124.85
3156.85
3187.86
3217.47
3245.23
3270.71
3293.5
3313.19
3329.4
3341.84
3350.24
3354.42
3354.26
3349.75
3340.96
3328.02
3311.14
3290.6
3266.75
3239.98
3210.7
3179.39
3146.5
3112.52
3077.91
3043.14
3008.64
2974.8
2942.01
2910.5
2880.54
2852.32
2825.97
2801.57
2779.15
2758.71
2740.19
2723.55
2708.71
2695.57
2684.07
2674.13
2665.66
2658.6
2652.88
2648.44
2645.23
2643.19
2642.29
2642.49
2643.77
2646.11
2649.52
2654.04
2659.7
2666.55
2674.67
2684.1
2694.93
2707.23
2721.05
2736.46
2753.5
2772.2
2792.58
2814.66
2838.41
2863.78
2890.68
2918.99
2948.54
2979.36
3010.77
3042.72
3074.85
3106.81
3138.2
3168.64
3197.71
3224.99
3250.07
3272.56
3292.06
3308.24
3320.76
3329.39
3333.94
3334.27
3330.37
3322.3
3310.18
3294.22
3274.69
3251.94
3226.36
3198.37
3168.42
3136.98
3104.5
3071.42
3038.17
3005.15
2972.71
2941.18
2910.82
2881.83
2854.4
2828.63
2804.61
2782.36
2761.9
2743.21
2726.26
2710.98
2697.32
2685.2
2674.57
2665.34
2657.48
2650.92
2645.64
2641.61
2638.81
2637.22
2636.84
2637.65
2639.66
2642.87
2647.3
2652.97
2659.92
2668.19
2677.82
2688.88
2701.4
2715.44
2731.04
2748.23
2767
2787.37
2809.32
2832.79
2857.69
2883.87
2911.14
2940.14
2972.92
3006.51
3040.47
3074.81
3109.22
3143.4
3176.94
3209.37
3240.21
3268.97
3295.09
3318.14
3337.6
3353.06
3364.12
3370.45
3373.2
3371.79
3366.12
3356.34
3342.65
3325.31
3304.72
3281.2
3255.23
3227.18
3197.5
3166.67
3135.03
3102.97
3070.86
3038.94
3007.5
2977.34
2950.12
2922.83
2896.38
2871.17
2847.42
2825.2
2804.6
2785.63
2768.27
2752.51
2738.33
2725.68
2714.55
2704.91
2696.74
2690.05
2684.82
2681.06
2678.79
2678.02
2678.86
2681.28
2685.29
2690.87
2698.04
2706.8
2717.17
2729.14
2742.69
2757.82
2774.52
2792.71
2812.37
2833.42
2855.79
2879.41
2904.19
2929.96
2956.25
2982.47
3010.17
3038.53
3067.16
3095.86
3124.46
3152.6
3179.93
3164.3
3132.89
3099.87
3065.53
3030.28
2994.48
2958.59
2923
2888.09
2854.24
2821.82
2791.54
2762.83
2735.4
2709.71
2685.92
2664.07
2644.17
2626.19
2610.08
2595.78
2583.24
2572.38
2563.14
2555.46
2549.28
2544.54
2541.22
2539.26
2538.65
2539.38
2541.43
2544.85
2549.63
2555.79
2563.39
2572.46
2583.05
2595.25
2609.09
2624.64
2641.96
2661.1
2682.11
2704.98
2729.71
2756.26
2784.54
2814.38
2845.41
2877.64
2910.98
2945.15
2979.74
3014.33
3048.57
3082.03
3114.23
3144.79
3173.3
3199.34
3222.57
3242.63
3259.23
3272.12
3281.08
3285.96
3286.62
3283.16
3275.52
3263.73
3247.92
3228.27
3205.07
3178.67
3149.43
3117.8
3084.25
3049.25
3013.29
2976.88
2940.48
2904.52
2869.25
2832.79
2798.74
2766.68
2736.75
2709
2683.43
2660.08
2638.93
2619.94
2603.06
2588.21
2575.32
2564.3
2555.05
2547.48
2541.49
2537
2533.93
2532.2
2531.76
2532.58
2534.62
2537.86
2542.3
2547.96
2554.87
2563.04
2572.53
2583.38
2595.65
2609.38
2624.63
2641.45
2659.89
2679.96
2701.7
2725.08
2750.07
2776.62
2804.64
2834
2864.55
2896.08
2928.35
2961.1
2994
3026.73
3058.89
3090.09
3119.88
3147.83