/*--------------------------------*- C++ -*----------------------------------*\
| =========                 |                                                 |
| \\      /  F ield         | OpenFOAM: The Open Source CFD Toolbox           |
|  \\    /   O peration     | Version:  3.0.1                                 |
|   \\  /    A nd           | Web:      www.OpenFOAM.org                      |
|    \\/     M anipulation  |                                                 |
\*---------------------------------------------------------------------------*/
FoamFile
{
    version     2.0;
    format      ascii;
    class       surfaceScalarField;
    location    "16.6";
    object      alphaPhi;
}
// * * * * * * * * * * * * * * * * * * * * * * * * * * * * * * * * * * * * * //

dimensions      [0 3 -1 0 0 0 0];

internalField   nonuniform List<scalar> 
42423
(
0.000206388
6.85102e-06
0.000197763
8.6254e-06
0.000187016
1.07472e-05
0.000174227
1.27884e-05
0.0001599
1.43277e-05
0.000144017
1.58824e-05
0.000126973
1.70444e-05
0.000108962
1.8011e-05
9.02356e-05
1.87263e-05
7.11366e-05
1.9099e-05
5.1868e-05
1.92686e-05
3.26784e-05
1.91896e-05
1.37964e-05
1.8882e-05
-4.63504e-06
1.84314e-05
-2.2427e-05
1.77919e-05
-3.95035e-05
1.70765e-05
-5.57085e-05
1.6205e-05
-7.09679e-05
1.52594e-05
-8.52688e-05
1.43009e-05
-9.85474e-05
1.32786e-05
-0.000110799
1.22512e-05
-0.000122049
1.12505e-05
-0.000132284
1.02349e-05
-0.00014152
9.23629e-06
-0.0001498
8.27951e-06
-0.000157155
7.35485e-06
-0.000163597
6.44263e-06
-0.00016915
5.55239e-06
-0.000173859
4.70915e-06
-0.000177744
3.88568e-06
-0.000180847
3.10262e-06
-0.000183184
2.33695e-06
-0.000184775
1.59136e-06
-0.000185654
8.79011e-07
-0.000185802
1.47991e-07
-0.00018516
-6.42084e-07
-0.000183727
-1.43376e-06
-0.000181575
-2.15201e-06
-0.000178696
-2.87897e-06
-0.000174977
-3.7186e-06
-0.000170535
-4.44235e-06
-0.000165177
-5.35728e-06
-0.00015896
-6.2173e-06
-0.000151933
-7.02692e-06
-0.000143895
-8.03802e-06
-0.000135057
-8.83849e-06
-0.000125369
-9.68814e-06
-0.000114542
-1.08263e-05
-0.000102745
-1.17969e-05
-9.01946e-05
-1.25509e-05
-7.65777e-05
-1.3617e-05
-6.21506e-05
-1.44271e-05
-4.67862e-05
-1.53645e-05
-3.04863e-05
-1.62999e-05
-1.36399e-05
-1.68464e-05
3.80864e-06
-1.74486e-05
2.17743e-05
-1.79657e-05
3.98768e-05
-1.81025e-05
5.81648e-05
-1.8288e-05
7.6347e-05
-1.81823e-05
9.43145e-05
-1.79675e-05
0.00011187
-1.7556e-05
0.000128656
-1.67858e-05
0.000144529
-1.58724e-05
0.000159342
-1.48133e-05
0.00017278
-1.34383e-05
0.000184749
-1.19693e-05
0.000194972
-1.02225e-05
0.000203416
-8.44432e-06
0.00020983
-6.41375e-06
0.000214129
-4.29896e-06
0.000216181
-2.05225e-06
0.000215961
2.20493e-07
0.000213411
2.54986e-06
0.000208567
4.8441e-06
0.000201365
7.2011e-06
0.000192116
9.2498e-06
0.000180757
1.13587e-05
0.000167719
1.30379e-05
0.000153019
1.47001e-05
0.000136827
1.61917e-05
0.000119587
1.72403e-05
0.000101464
1.81236e-05
8.27589e-05
1.87046e-05
6.37542e-05
1.90047e-05
4.46226e-05
1.91316e-05
2.55158e-05
1.91068e-05
6.80748e-06
1.87084e-05
-1.1285e-05
1.80925e-05
-2.87434e-05
1.74584e-05
-4.55034e-05
1.67601e-05
-6.14284e-05
1.5925e-05
-7.63938e-05
1.49654e-05
-9.0304e-05
1.39102e-05
-0.000103293
1.29892e-05
-0.000115179
1.18861e-05
-0.000126257
1.10778e-05
-0.000136291
1.00345e-05
-0.00014533
9.03901e-06
-0.000153595
8.26446e-06
-0.000160974
7.37954e-06
-0.000167213
6.23879e-06
-0.000172608
5.39452e-06
-0.000177041
4.43303e-06
-0.000180459
3.41788e-06
-0.00018306
2.60094e-06
-0.000184731
1.6714e-06
-0.00018553
7.99078e-07
-0.000185564
3.43485e-08
-0.000184682
-8.82068e-07
-0.000183009
-1.67361e-06
-0.00018052
-2.48908e-06
-0.000177272
-3.24734e-06
-0.000173297
-3.97552e-06
-0.000168589
-4.70824e-06
-0.000163011
-5.57753e-06
-0.000156771
-6.23997e-06
-0.000149659
-7.11196e-06
-0.000141752
-7.90749e-06
-0.000133036
-8.71554e-06
-0.000123445
-9.59163e-06
-0.000112949
-1.0496e-05
-0.000101507
-1.14412e-05
-8.92085e-05
-1.2299e-05
-7.59867e-05
-1.32219e-05
-6.19247e-05
-1.4062e-05
-4.69696e-05
-1.49552e-05
-3.12067e-05
-1.5763e-05
-1.46974e-05
-1.65093e-05
2.44348e-06
-1.7141e-05
2.00935e-05
-1.765e-05
3.79581e-05
-1.78647e-05
5.61225e-05
-1.81645e-05
7.42884e-05
-1.8166e-05
9.21714e-05
-1.78831e-05
0.000109612
-1.74409e-05
0.000126424
-1.68116e-05
0.000142351
-1.59276e-05
0.000157182
-1.48303e-05
0.000170624
-1.34422e-05
0.000182563
-1.19391e-05
0.000192795
-1.02319e-05
0.000201118
-8.32336e-06
0.000207475
-6.35736e-06
0.000211624
-4.14922e-06
0.000213612
-1.98729e-06
0.00021348
1.31283e-07
0.000211177
2.30332e-06
0.000206607
4.5705e-06
0.000199994
6.61226e-06
0.000191272
8.72269e-06
0.000180791
1.04802e-05
0.000168561
1.22304e-05
0.000154671
1.38897e-05
0.000139541
1.51306e-05
0.000123224
1.6317e-05
0.000105859
1.73641e-05
8.78422e-05
1.80173e-05
6.91732e-05
1.8669e-05
5.02016e-05
1.89717e-05
3.11647e-05
1.90369e-05
1.20255e-05
1.91392e-05
-6.71105e-06
1.87366e-05
-2.49942e-05
1.82831e-05
-4.26421e-05
1.76479e-05
-5.9583e-05
1.69409e-05
-7.56678e-05
1.60849e-05
-9.07438e-05
1.5076e-05
-0.000104713
1.39696e-05
-0.000117694
1.29804e-05
-0.000129481
1.17875e-05
-0.000139779
1.02974e-05
-0.000149088
9.30957e-06
-0.000157409
8.32105e-06
-0.000164216
6.80685e-06
-0.000169959
5.74313e-06
-0.000174281
4.32134e-06
-0.000177657
3.37663e-06
-0.000180212
2.55434e-06
-0.000181696
1.48428e-06
-0.000182301
6.05171e-07
-0.000182201
-9.99324e-08
-0.000181287
-9.14201e-07
-0.000179765
-1.52177e-06
-0.00017758
-2.18552e-06
-0.000174746
-2.83355e-06
-0.000171437
-3.30918e-06
-0.000167566
-3.87036e-06
-0.000163141
-4.42576e-06
-0.000158205
-4.93587e-06
-0.000152788
-5.4166e-06
-0.000146756
-6.03256e-06
-0.000140228
-6.5274e-06
-0.000132971
-7.2575e-06
-0.00012502
-7.951e-06
-0.000116354
-8.66619e-06
-0.000106954
-9.39998e-06
-9.66674e-05
-1.02864e-05
-8.55202e-05
-1.11472e-05
-7.34141e-05
-1.21061e-05
-6.03685e-05
-1.30457e-05
-4.63966e-05
-1.39719e-05
-3.15026e-05
-1.48941e-05
-1.57872e-05
-1.57154e-05
9.07906e-07
-1.66952e-05
1.82444e-05
-1.73366e-05
3.60984e-05
-1.78541e-05
5.44701e-05
-1.83718e-05
7.30318e-05
-1.85618e-05
9.15737e-05
-1.85419e-05
0.000109853
-1.8279e-05
0.00012759
-1.77373e-05
0.000144484
-1.6894e-05
0.000160283
-1.57997e-05
0.000174671
-1.43881e-05
0.000187313
-1.26414e-05
0.000198086
-1.07727e-05
0.000206726
-8.64014e-06
0.000213
-6.27417e-06
0.000216768
-3.76788e-06
0.000218008
-1.2403e-06
0.000216835
1.17313e-06
0.000213032
3.80234e-06
0.000206623
6.40976e-06
0.000197986
8.63648e-06
0.000187345
1.06413e-05
0.000174631
1.27139e-05
0.00016037
1.42615e-05
0.000144434
1.59358e-05
0.00012743
1.70037e-05
0.000109556
1.78743e-05
9.09394e-05
1.86163e-05
7.21055e-05
1.88339e-05
5.32303e-05
1.88752e-05
3.44669e-05
1.87634e-05
1.60192e-05
1.84477e-05
-1.95782e-06
1.7977e-05
-1.91854e-05
1.72276e-05
-3.57095e-05
1.65241e-05
-5.14402e-05
1.57307e-05
-6.63404e-05
1.49002e-05
-8.03425e-05
1.40021e-05
-9.3569e-05
1.32265e-05
-0.000105897
1.23277e-05
-0.000117201
1.13043e-05
-0.000127751
1.05501e-05
-0.000137056
9.30447e-06
-0.000145699
8.64326e-06
-0.000153687
7.98864e-06
-0.000160542
6.85416e-06
-0.000166621
6.0789e-06
-0.000171961
5.34064e-06
-0.000176556
4.5953e-06
-0.000180229
3.67223e-06
-0.000182969
2.74049e-06
-0.000184919
1.9497e-06
-0.000186093
1.17398e-06
-0.000186422
3.28788e-07
-0.000185882
-5.39588e-07
-0.000184575
-1.30685e-06
-0.00018237
-2.20532e-06
-0.000179381
-2.98844e-06
-0.000175501
-3.88001e-06
-0.000170737
-4.76467e-06
-0.000165133
-5.60368e-06
-0.000158584
-6.54875e-06
-0.000151223
-7.36117e-06
-0.000142846
-8.37725e-06
-0.000133559
-9.28735e-06
-0.000123395
-1.01633e-05
-0.000112319
-1.10762e-05
-0.000100353
-1.19663e-05
-8.74656e-05
-1.28873e-05
-7.37436e-05
-1.3722e-05
-5.92253e-05
-1.45184e-05
-4.39854e-05
-1.52399e-05
-2.81271e-05
-1.58584e-05
-1.1651e-05
-1.64762e-05
5.2656e-06
-1.69167e-05
2.25806e-05
-1.73151e-05
4.01227e-05
-1.75421e-05
5.7573e-05
-1.74504e-05
7.50142e-05
-1.74412e-05
9.21515e-05
-1.71374e-05
0.000108768
-1.66163e-05
0.000124709
-1.59409e-05
0.00013977
-1.50614e-05
0.00015378
-1.40102e-05
0.000166528
-1.27479e-05
0.00017783
-1.13023e-05
0.000187557
-9.72714e-06
0.000195507
-7.95032e-06
0.000201633
-6.12602e-06
0.000205822
-4.18831e-06
0.000207901
-2.07972e-06
0.000207903
-1.74791e-09
0.000205843
2.06029e-06
0.000201651
4.19124e-06
0.000195445
6.20592e-06
0.000187325
8.12049e-06
0.000177496
9.82848e-06
0.000166102
1.13945e-05
0.000153305
1.27967e-05
0.000139333
1.39726e-05
0.000124394
1.49383e-05
0.000108653
1.57409e-05
9.23786e-05
1.62747e-05
7.57836e-05
1.6595e-05
5.90968e-05
1.66868e-05
4.25176e-05
1.65792e-05
2.62161e-05
1.63016e-05
1.02822e-05
1.59339e-05
-5.18337e-06
1.54656e-05
-2.00188e-05
1.48355e-05
-3.41163e-05
1.40975e-05
-4.74295e-05
1.33132e-05
-5.9891e-05
1.24615e-05
-7.14935e-05
1.16024e-05
-8.22072e-05
1.07138e-05
-9.20215e-05
9.81426e-06
-0.000100962
8.94034e-06
-0.000109037
8.07521e-06
-0.000116234
7.19699e-06
-0.000122596
6.36198e-06
-0.000128142
5.54571e-06
-0.000132873
4.73175e-06
-0.000136813
3.93932e-06
-0.000139982
3.16881e-06
-0.000142407
2.42586e-06
-0.000144111
1.70331e-06
-0.000145121
1.01055e-06
-0.000145442
3.20665e-07
-0.00014496
-4.82367e-07
-0.000143739
-1.22096e-06
-0.000141831
-1.90731e-06
-0.000139227
-2.60393e-06
-0.000135947
-3.27995e-06
-0.000132018
-3.92987e-06
-0.000127429
-4.58844e-06
-0.000122239
-5.19041e-06
-0.000116461
-5.77802e-06
-0.000110011
-6.44956e-06
-0.000102978
-7.03339e-06
-9.5281e-05
-7.6968e-06
-8.70215e-05
-8.25944e-06
-7.82294e-05
-8.79214e-06
-6.88145e-05
-9.41489e-06
-5.8858e-05
-9.95653e-06
-4.83555e-05
-1.05025e-05
-3.72853e-05
-1.10701e-05
-2.57409e-05
-1.15444e-05
-1.36335e-05
-1.21075e-05
-1.13823e-06
-1.24952e-05
1.15066e-05
-1.26449e-05
2.44577e-05
-1.2951e-05
3.74971e-05
-1.30394e-05
-1.30923e-05
0.000206479
1.3703e-05
0.000197851
1.7253e-05
0.000187099
2.14992e-05
0.000174304
2.5584e-05
0.000159968
2.86634e-05
0.000144076
3.17745e-05
0.000127021
3.40997e-05
0.000108998
3.60336e-05
9.026e-05
3.74643e-05
7.11499e-05
3.82091e-05
5.18708e-05
3.85477e-05
3.26714e-05
3.8389e-05
1.37803e-05
3.7773e-05
-4.6553e-06
3.68671e-05
-2.24523e-05
3.55889e-05
-3.95344e-05
3.41586e-05
-5.57444e-05
3.24149e-05
-7.10101e-05
3.05251e-05
-8.53187e-05
2.86095e-05
-9.86043e-05
2.65642e-05
-0.000110859
2.45058e-05
-0.00012211
2.2502e-05
-0.000132351
2.0476e-05
-0.000141598
1.84826e-05
-0.000149881
1.65628e-05
-0.000157222
1.46955e-05
-0.000163656
1.28766e-05
-0.000169208
1.11052e-05
-0.000173923
9.42318e-06
-0.000177815
7.77798e-06
-0.000180913
6.20053e-06
-0.000183245
4.6688e-06
-0.000184836
3.18238e-06
-0.000185712
1.75585e-06
-0.00018586
2.95277e-07
-0.000185221
-1.28113e-06
-0.000183787
-2.86724e-06
-0.000181635
-4.30407e-06
-0.000178757
-5.75712e-06
-0.000175039
-7.43687e-06
-0.000170596
-8.8847e-06
-0.000165236
-1.07178e-05
-0.00015903
-1.24236e-05
-0.000152003
-1.40538e-05
-0.000143963
-1.60773e-05
-0.000135123
-1.76793e-05
-0.000125433
-1.93782e-05
-0.000114612
-2.16467e-05
-0.000102813
-2.35966e-05
-9.02588e-05
-2.51047e-05
-7.66376e-05
-2.72383e-05
-6.22062e-05
-2.88585e-05
-4.68326e-05
-3.07381e-05
-3.05297e-05
-3.26029e-05
-1.36805e-05
-3.36957e-05
3.77968e-06
-3.49089e-05
2.1753e-05
-3.59391e-05
3.9868e-05
-3.62176e-05
5.81804e-05
-3.66004e-05
7.63824e-05
-3.63844e-05
9.43585e-05
-3.59437e-05
0.00011193
-3.51279e-05
0.000128723
-3.35781e-05
0.000144609
-3.17586e-05
0.000159444
-2.96484e-05
0.000172887
-2.6882e-05
0.000184863
-2.39451e-05
0.000195085
-2.04449e-05
0.000203544
-1.69027e-05
0.000209958
-1.28284e-05
0.000214273
-8.6134e-06
0.000216335
-4.11435e-06
0.000216098
4.57222e-07
0.000213541
5.10662e-06
0.000208691
9.6948e-06
0.000201479
1.44123e-05
0.000192223
1.85063e-05
0.000180848
2.27341e-05
0.000167796
2.60895e-05
0.000153079
2.94169e-05
0.000136867
3.24037e-05
0.000119612
3.44961e-05
0.000101463
3.62721e-05
8.27422e-05
3.74257e-05
6.37332e-05
3.80137e-05
4.46009e-05
3.82639e-05
2.55009e-05
3.82069e-05
6.76348e-06
3.74458e-05
-1.13498e-05
3.62058e-05
-2.88184e-05
3.49271e-05
-4.55716e-05
3.35132e-05
-6.1507e-05
3.18605e-05
-7.64726e-05
2.9931e-05
-9.03827e-05
2.78204e-05
-0.00010337
2.59767e-05
-0.000115252
2.37679e-05
-0.000126339
2.21651e-05
-0.000136376
2.00713e-05
-0.000145398
1.80613e-05
-0.000153668
1.65346e-05
-0.000161059
1.47703e-05
-0.000167296
1.24754e-05
-0.000172674
1.07725e-05
-0.000177103
8.86247e-06
-0.000180516
6.83097e-06
-0.000183129
5.21364e-06
-0.000184795
3.33768e-06
-0.000185583
1.58736e-06
-0.000185616
6.70102e-08
-0.000184732
-1.7665e-06
-0.000183053
-3.35183e-06
-0.000180559
-4.98394e-06
-0.000177309
-6.49642e-06
-0.000173327
-7.95752e-06
-0.000168617
-9.4186e-06
-0.000163042
-1.11528e-05
-0.000156804
-1.24776e-05
-0.000149692
-1.42244e-05
-0.000141781
-1.58183e-05
-0.000133066
-1.74305e-05
-0.000123473
-1.91851e-05
-0.000112975
-2.09934e-05
-0.000101536
-2.28808e-05
-8.92264e-05
-2.46084e-05
-7.60003e-05
-2.6448e-05
-6.1939e-05
-2.81234e-05
-4.69799e-05
-2.99144e-05
-3.12104e-05
-3.15325e-05
-1.46925e-05
-3.30274e-05
2.45843e-06
-3.4292e-05
2.01168e-05
-3.53085e-05
3.79823e-05
-3.57304e-05
5.61695e-05
-3.63518e-05
7.43431e-05
-3.63396e-05
9.22412e-05
-3.57813e-05
0.000109701
-3.49005e-05
0.000126516
-3.36271e-05
0.00014245
-3.18613e-05
0.000157285
-2.96661e-05
0.000170744
-2.6901e-05
0.000182693
-2.38878e-05
0.000192923
-2.04627e-05
0.000201248
-1.66479e-05
0.000207596
-1.27055e-05
0.000211756
-8.3098e-06
0.000213743
-3.97383e-06
0.000213598
2.76299e-07
0.00021128
4.62128e-06
0.000206707
9.14357e-06
0.000200088
1.3231e-05
0.000191354
1.74565e-05
0.000180865
2.09696e-05
0.000168622
2.44729e-05
0.000154719
2.77936e-05
0.000139578
3.02714e-05
0.000123236
3.26591e-05
0.000105866
3.47339e-05
8.78385e-05
3.60448e-05
6.91433e-05
3.73642e-05
5.017e-05
3.79451e-05
3.11283e-05
3.80786e-05
1.19829e-05
3.82846e-05
-6.75711e-06
3.74766e-05
-2.5059e-05
3.6585e-05
-4.27126e-05
3.53016e-05
-5.96582e-05
3.38866e-05
-7.57534e-05
3.218e-05
-9.0833e-05
3.01558e-05
-0.000104801
2.79373e-05
-0.000117789
2.5969e-05
-0.000129579
2.35772e-05
-0.00013987
2.05883e-05
-0.000149169
1.8609e-05
-0.000157495
1.66467e-05
-0.000164301
1.36133e-05
-0.000170054
1.14954e-05
-0.000174366
8.63422e-06
-0.00017772
6.73019e-06
-0.000180267
5.10095e-06
-0.000181759
2.97646e-06
-0.00018236
1.2064e-06
-0.000182242
-2.18185e-07
-0.000181325
-1.83134e-06
-0.000179808
-3.03831e-06
-0.000177611
-4.38279e-06
-0.000174776
-5.6685e-06
-0.000171465
-6.62002e-06
-0.000167593
-7.74203e-06
-0.000163166
-8.8532e-06
-0.000158228
-9.87397e-06
-0.000152812
-1.08324e-05
-0.000146779
-1.2066e-05
-0.000140252
-1.30539e-05
-0.000132991
-1.45189e-05
-0.000125039
-1.59031e-05
-0.000116373
-1.73323e-05
-0.000106977
-1.87956e-05
-9.66993e-05
-2.05642e-05
-8.55413e-05
-2.23053e-05
-7.34322e-05
-2.42153e-05
-6.03852e-05
-2.60927e-05
-4.64094e-05
-2.79478e-05
-3.15159e-05
-2.97877e-05
-1.57921e-05
-3.14393e-05
9.14062e-07
-3.34015e-05
1.82566e-05
-3.46792e-05
3.61282e-05
-3.57258e-05
5.45053e-05
-3.6749e-05
7.3077e-05
-3.71337e-05
9.16304e-05
-3.70953e-05
0.000109926
-3.65749e-05
0.000127677
-3.54878e-05
0.000144579
-3.37963e-05
0.000160387
-3.16085e-05
0.000174796
-2.87971e-05
0.000187453
-2.52985e-05
0.000198224
-2.15435e-05
0.00020687
-1.72856e-05
0.000213139
-1.25437e-05
0.000216913
-7.54216e-06
0.000218152
-2.47945e-06
0.00021696
2.36499e-06
0.000213151
7.61184e-06
0.000206719
1.28415e-05
0.00019808
1.72758e-05
0.000187413
2.13077e-05
0.000174695
2.54322e-05
0.000160408
2.85486e-05
0.000144458
3.18862e-05
0.000127454
3.40076e-05
0.00010956
3.57678e-05
9.09312e-05
3.72455e-05
7.20854e-05
3.76797e-05
5.31935e-05
3.77672e-05
3.44152e-05
3.75418e-05
1.59716e-05
3.68914e-05
-2.01778e-06
3.59664e-05
-1.92581e-05
3.4468e-05
-3.57869e-05
3.3053e-05
-5.15228e-05
3.14667e-05
-6.6412e-05
2.97894e-05
-8.04157e-05
2.80059e-05
-9.36446e-05
2.64555e-05
-0.000105975
2.46578e-05
-0.000117276
2.26061e-05
-0.000127811
2.1085e-05
-0.000137124
1.86169e-05
-0.000145772
1.72916e-05
-0.000153759
1.5976e-05
-0.000160615
1.37098e-05
-0.000166693
1.21575e-05
-0.000172021
1.06686e-05
-0.000176615
9.18901e-06
-0.000180297
7.3538e-06
-0.000183034
5.47748e-06
-0.000184974
3.89021e-06
-0.000186136
2.33631e-06
-0.000186472
6.64665e-07
-0.000185926
-1.08602e-06
-0.000184615
-2.61744e-06
-0.000182414
-4.40672e-06
-0.000179427
-5.97564e-06
-0.000175551
-7.75595e-06
-0.000170774
-9.54128e-06
-0.000165164
-1.12138e-05
-0.000158621
-1.30915e-05
-0.000151268
-1.47147e-05
-0.000142877
-1.67681e-05
-0.000133581
-1.8583e-05
-0.000123429
-2.0316e-05
-0.000112351
-2.21535e-05
-0.00010037
-2.39481e-05
-8.74781e-05
-2.57788e-05
-7.37611e-05
-2.74391e-05
-5.92482e-05
-2.90313e-05
-4.39983e-05
-3.04898e-05
-2.81335e-05
-3.17233e-05
-1.16587e-05
-3.2951e-05
5.27294e-06
-3.38484e-05
2.2603e-05
-3.46452e-05
4.0148e-05
-3.50872e-05
5.76039e-05
-3.49064e-05
7.50679e-05
-3.49053e-05
9.22106e-05
-3.42802e-05
0.000108834
-3.32395e-05
0.000124779
-3.18862e-05
0.000139852
-3.01349e-05
0.000153866
-2.80241e-05
0.000166627
-2.55089e-05
0.000177943
-2.2618e-05
0.000187688
-1.94724e-05
0.000195642
-1.59048e-05
0.00020176
-1.22437e-05
0.000205947
-8.3753e-06
0.000208029
-4.16221e-06
0.000208027
4.93494e-10
0.000205963
4.12398e-06
0.00020177
8.38389e-06
0.000195561
1.24152e-05
0.000187433
1.62486e-05
0.000177596
1.9665e-05
0.000166193
2.27979e-05
0.000153387
2.5603e-05
0.000139404
2.79549e-05
0.000124457
2.98851e-05
0.000108705
3.14936e-05
9.24177e-05
3.25616e-05
7.5811e-05
3.32017e-05
5.91115e-05
3.33863e-05
4.25216e-05
3.31691e-05
2.62112e-05
3.2612e-05
1.0274e-05
3.18711e-05
-5.20097e-06
3.09405e-05
-2.00418e-05
2.96763e-05
-3.41436e-05
2.81993e-05
-4.74614e-05
2.66309e-05
-5.99268e-05
2.4927e-05
-7.15332e-05
2.32088e-05
-8.22528e-05
2.14334e-05
-9.20772e-05
1.96387e-05
-0.000101024
1.78868e-05
-0.000109093
1.61445e-05
-0.000116288
1.43921e-05
-0.000122649
1.27229e-05
-0.000128191
1.10877e-05
-0.000132925
9.46614e-06
-0.000136864
7.87782e-06
-0.000140033
6.33781e-06
-0.000142459
4.85224e-06
-0.000144163
3.40756e-06
-0.000145172
2.01921e-06
-0.000145491
6.39637e-07
-0.000145009
-9.64422e-07
-0.000143787
-2.44275e-06
-0.00014188
-3.81492e-06
-0.000139276
-5.20788e-06
-0.000135997
-6.55877e-06
-0.000132066
-7.86045e-06
-0.000127476
-9.17915e-06
-0.000122284
-1.03821e-05
-0.000116505
-1.15568e-05
-0.000110052
-1.29027e-05
-0.000103016
-1.40695e-05
-9.53171e-05
-1.53956e-05
-8.70556e-05
-1.65209e-05
-7.82597e-05
-1.7588e-05
-6.88419e-05
-1.88328e-05
-5.88812e-05
-1.99172e-05
-4.838e-05
-2.10037e-05
-3.73072e-05
-2.2143e-05
-2.57603e-05
-2.30913e-05
-1.36497e-05
-2.4218e-05
-1.15111e-06
-2.49939e-05
1.14952e-05
-2.52911e-05
2.44502e-05
-2.59061e-05
3.7495e-05
-2.60842e-05
-2.6191e-05
0.000206653
2.05647e-05
0.000198013
2.58927e-05
0.000187246
3.2266e-05
0.000174433
3.83969e-05
0.000160079
4.30179e-05
0.000144167
4.76866e-05
0.00012709
5.11762e-05
0.000109047
5.40771e-05
9.02887e-05
5.62224e-05
7.11598e-05
5.7338e-05
5.18635e-05
5.7844e-05
3.26481e-05
5.76044e-05
1.37426e-05
5.66784e-05
-4.70911e-06
5.53188e-05
-2.2519e-05
5.33988e-05
-3.96121e-05
5.12517e-05
-5.58309e-05
4.86338e-05
-7.11061e-05
4.58003e-05
-8.54207e-05
4.29241e-05
-9.87106e-05
3.98541e-05
-0.000110974
3.6769e-05
-0.000122224
3.37523e-05
-0.000132459
3.07109e-05
-0.000141699
2.77229e-05
-0.000149978
2.48417e-05
-0.000157318
2.20355e-05
-0.000163758
1.93164e-05
-0.000169318
1.66655e-05
-0.000174034
1.41386e-05
-0.000177921
1.16652e-05
-0.000181015
9.29459e-06
-0.000183355
7.00844e-06
-0.000184954
4.78207e-06
-0.00018582
2.6212e-06
-0.000185938
4.13213e-07
-0.000185283
-1.93552e-06
-0.000183848
-4.30238e-06
-0.000181696
-6.4562e-06
-0.000178818
-8.63524e-06
-0.0001751
-1.1155e-05
-0.000170657
-1.33273e-05
-0.000165297
-1.60778e-05
-0.000159102
-1.86186e-05
-0.000152076
-2.10803e-05
-0.000144036
-2.41169e-05
-0.000135196
-2.652e-05
-0.000125506
-2.90683e-05
-0.000114693
-3.24595e-05
-0.00010289
-3.54e-05
-9.03329e-05
-3.76615e-05
-7.67069e-05
-4.08643e-05
-6.227e-05
-4.32955e-05
-4.68861e-05
-4.61221e-05
-3.05791e-05
-4.891e-05
-1.37233e-05
-5.05516e-05
3.74527e-06
-5.23775e-05
2.173e-05
-5.39239e-05
3.98603e-05
-5.4348e-05
5.81855e-05
-5.49257e-05
7.64046e-05
-5.46036e-05
9.44035e-05
-5.39426e-05
0.000111998
-5.27227e-05
0.000128807
-5.03873e-05
0.000144698
-4.76499e-05
0.00015955
-4.44999e-05
0.000173018
-4.03507e-05
0.000185012
-3.59392e-05
0.000195249
-3.0681e-05
0.000203712
-2.53663e-05
0.000210136
-1.92524e-05
0.000214471
-1.29487e-05
0.000216541
-6.18366e-06
0.000216283
7.15258e-07
0.00021372
7.66978e-06
0.000208868
1.4546e-05
0.000201647
2.16336e-05
0.000192384
2.77696e-05
0.00018099
3.41273e-05
0.000167926
3.91537e-05
0.000153188
4.4155e-05
0.000136955
4.86366e-05
0.000119683
5.17684e-05
0.000101506
5.44491e-05
8.27615e-05
5.61703e-05
6.3743e-05
5.70322e-05
4.46019e-05
5.7405e-05
2.55104e-05
5.72984e-05
6.74062e-06
5.62157e-05
-1.13958e-05
5.43423e-05
-2.88694e-05
5.24007e-05
-4.56221e-05
5.02659e-05
-6.15817e-05
4.78202e-05
-7.65407e-05
4.48899e-05
-9.04581e-05
4.17378e-05
-0.000103455
3.89736e-05
-0.000115317
3.56297e-05
-0.000126421
3.32696e-05
-0.000136465
3.01147e-05
-0.000145462
2.70587e-05
-0.000153759
2.48318e-05
-0.000161147
2.21583e-05
-0.000167385
1.87131e-05
-0.000172761
1.61486e-05
-0.000177174
1.32756e-05
-0.000180571
1.02277e-05
-0.000183203
7.84557e-06
-0.000184873
5.00851e-06
-0.00018566
2.37394e-06
-0.000185682
8.88624e-08
-0.000184792
-2.65599e-06
-0.000183109
-5.03542e-06
-0.000180621
-7.47214e-06
-0.000177372
-9.74537e-06
-0.000173387
-1.19427e-05
-0.00016867
-1.41351e-05
-0.000163101
-1.6722e-05
-0.000156866
-1.8712e-05
-0.000149753
-2.13375e-05
-0.000141853
-2.3719e-05
-0.000133127
-2.61558e-05
-0.000123538
-2.8775e-05
-0.000113036
-3.14951e-05
-0.000101616
-3.43013e-05
-8.92843e-05
-3.69397e-05
-7.60561e-05
-3.96763e-05
-6.19944e-05
-4.21851e-05
-4.70327e-05
-4.48763e-05
-3.12554e-05
-4.73099e-05
-1.47181e-05
-4.95648e-05
2.44285e-06
-5.1453e-05
2.00988e-05
-5.29645e-05
3.79913e-05
-5.3623e-05
5.6186e-05
-5.45466e-05
7.43772e-05
-5.45309e-05
9.22911e-05
-5.36953e-05
0.000109769
-5.23788e-05
0.000126612
-5.04703e-05
0.000142566
-4.78148e-05
0.000157415
-4.45153e-05
0.000170883
-4.03692e-05
0.00018284
-3.58453e-05
0.000193086
-3.07082e-05
0.000201434
-2.49961e-05
0.000207776
-1.90479e-05
0.000211948
-1.24815e-05
0.000213935
-5.961e-06
0.000213777
4.34132e-07
0.000211441
6.95752e-06
0.00020687
1.37141e-05
0.000200239
1.9862e-05
0.000191491
2.62047e-05
0.000180997
3.14637e-05
0.000168735
3.67347e-05
0.00015482
4.17085e-05
0.00013967
4.54219e-05
0.000123301
4.9028e-05
0.000105922
5.21123e-05
8.78701e-05
5.40972e-05
6.91512e-05
5.60832e-05
5.01692e-05
5.69271e-05
3.1126e-05
5.71218e-05
1.19728e-05
5.74378e-05
-6.77981e-06
5.62293e-05
-2.5099e-05
5.49043e-05
-4.27664e-05
5.2969e-05
-5.97314e-05
5.08516e-05
-7.58352e-05
4.82839e-05
-9.09166e-05
4.52372e-05
-0.000104882
4.19031e-05
-0.000117887
3.89735e-05
-0.000129685
3.5375e-05
-0.000139967
3.08706e-05
-0.000149254
2.78958e-05
-0.000157585
2.49784e-05
-0.000164397
2.04246e-05
-0.000170172
1.72708e-05
-0.000174472
1.29345e-05
-0.000177804
1.00618e-05
-0.000180332
7.62871e-06
-0.000181829
4.47334e-06
-0.000182427
1.80459e-06
-0.000182307
-3.3792e-07
-0.000181391
-2.74771e-06
-0.000179864
-4.56537e-06
-0.000177663
-6.58307e-06
-0.000174816
-8.51603e-06
-0.0001715
-9.93624e-06
-0.000167628
-1.16132e-05
-0.000163207
-1.3275e-05
-0.000158274
-1.4807e-05
-0.000152862
-1.62439e-05
-0.000146836
-1.80923e-05
-0.000140297
-1.95925e-05
-0.000133029
-2.17874e-05
-0.000125083
-2.38493e-05
-0.000116423
-2.59917e-05
-0.000107038
-2.81813e-05
-9.67588e-05
-3.0843e-05
-8.56076e-05
-3.34566e-05
-7.3498e-05
-3.6325e-05
-6.04475e-05
-3.91434e-05
-4.64738e-05
-4.19215e-05
-3.15775e-05
-4.4684e-05
-1.58495e-05
-4.71674e-05
8.72546e-07
-5.01237e-05
1.82156e-05
-5.20223e-05
3.6114e-05
-5.36243e-05
5.45134e-05
-5.51485e-05
7.3105e-05
-5.57253e-05
9.16775e-05
-5.56679e-05
0.00010999
-5.48878e-05
0.000127772
-5.32697e-05
0.000144691
-5.07153e-05
0.000160519
-4.74368e-05
0.00017494
-4.32176e-05
0.000187619
-3.79776e-05
0.000198419
-3.2344e-05
0.000207094
-2.59607e-05
0.000213352
-1.88018e-05
0.000217138
-1.13279e-05
0.000218386
-3.72749e-06
0.000217159
3.59142e-06
0.000213341
1.14307e-05
0.000206882
1.93006e-05
0.000198238
2.59189e-05
0.000187552
3.19937e-05
0.000174821
3.81635e-05
0.000160504
4.28657e-05
0.000144532
4.78581e-05
0.000127529
5.10107e-05
0.000109604
5.36924e-05
9.09554e-05
5.58946e-05
7.20889e-05
5.65462e-05
5.31756e-05
5.66806e-05
3.43886e-05
5.63287e-05
1.59588e-05
5.53212e-05
-2.0515e-06
5.39768e-05
-1.93104e-05
5.17269e-05
-3.58448e-05
4.95874e-05
-5.15874e-05
4.72093e-05
-6.64666e-05
4.46686e-05
-8.04722e-05
4.20116e-05
-9.37122e-05
3.96954e-05
-0.000106041
3.69867e-05
-0.000117344
3.39089e-05
-0.000127884
3.16254e-05
-0.0001372
2.79325e-05
-0.000145839
2.59309e-05
-0.00015384
2.39765e-05
-0.000160694
2.05645e-05
-0.000166777
1.82399e-05
-0.000172107
1.59986e-05
-0.000176662
1.37444e-05
-0.000180357
1.10484e-05
-0.000183107
8.22765e-06
-0.000185054
5.83778e-06
-0.000186214
3.49576e-06
-0.000186539
9.90042e-07
-0.000185999
-1.62655e-06
-0.000184688
-3.92829e-06
-0.00018247
-6.62465e-06
-0.000179489
-8.9567e-06
-0.000175623
-1.16222e-05
-0.000170842
-1.43224e-05
-0.000165231
-1.68244e-05
-0.000158689
-1.9634e-05
-0.000151339
-2.20639e-05
-0.000142946
-2.51613e-05
-0.000133662
-2.78672e-05
-0.0001235
-3.04781e-05
-0.000112422
-3.32312e-05
-0.00010043
-3.59407e-05
-8.75396e-05
-3.8669e-05
-7.38226e-05
-4.11561e-05
-5.93108e-05
-4.35432e-05
-4.40506e-05
-4.57501e-05
-2.81745e-05
-4.75995e-05
-1.16929e-05
-4.94328e-05
5.25454e-06
-5.07959e-05
2.25973e-05
-5.1988e-05
4.01495e-05
-5.26396e-05
5.76123e-05
-5.23694e-05
7.51027e-05
-5.23958e-05
9.22659e-05
-5.14435e-05
0.000108904
-4.98782e-05
0.00012487
-4.78518e-05
0.000139943
-4.52083e-05
0.000153969
-4.20497e-05
0.000166744
-3.82846e-05
0.000178073
-3.39469e-05
0.000187832
-2.92315e-05
0.000195801
-2.38733e-05
0.000201919
-1.83625e-05
0.000206101
-1.25567e-05
0.00020819
-6.25118e-06
0.000208192
-1.82236e-09
0.000206112
6.20406e-06
0.000201912
1.25835e-05
0.000195702
1.86251e-05
0.000187568
2.43824e-05
0.000177721
2.95122e-05
0.000166305
3.4214e-05
0.000153485
3.84226e-05
0.00013949
4.19504e-05
0.000124535
4.48402e-05
0.000108763
4.72652e-05
9.24563e-05
4.88683e-05
7.58306e-05
4.98274e-05
5.91082e-05
5.01086e-05
4.24991e-05
4.97782e-05
2.61723e-05
4.89388e-05
1.02367e-05
4.78068e-05
-5.25458e-06
4.64318e-05
-2.01035e-05
4.45253e-05
-3.42135e-05
4.23094e-05
-4.75382e-05
3.99556e-05
-6.00095e-05
3.73983e-05
-7.162e-05
3.48193e-05
-8.23405e-05
3.21539e-05
-9.21624e-05
2.94606e-05
-0.000101106
2.68306e-05
-0.000109173
2.42117e-05
-0.000116377
2.1596e-05
-0.000122741
1.9087e-05
-0.000128279
1.6625e-05
-0.000133017
1.42047e-05
-0.000136953
1.18134e-05
-0.000140119
9.50427e-06
-0.000142544
7.27669e-06
-0.000144244
5.10768e-06
-0.000145241
3.01619e-06
-0.000145549
9.48113e-07
-0.000145064
-1.4493e-06
-0.000143841
-3.66644e-06
-0.000141932
-5.72322e-06
-0.000139328
-7.81188e-06
-0.000136052
-9.835e-06
-0.000132122
-1.1791e-05
-0.000127527
-1.37734e-05
-0.000122332
-1.55772e-05
-0.00011655
-1.73389e-05
-0.000110093
-1.93597e-05
-0.000103054
-2.11086e-05
-9.53561e-05
-2.30936e-05
-8.70956e-05
-2.47814e-05
-7.83023e-05
-2.63814e-05
-6.88819e-05
-2.82532e-05
-5.89184e-05
-2.98807e-05
-4.84181e-05
-3.1504e-05
-3.73432e-05
-3.32179e-05
-2.57942e-05
-3.46404e-05
-1.36801e-05
-3.63322e-05
-1.17521e-06
-3.74987e-05
1.14761e-05
-3.79425e-05
2.44391e-05
-3.88691e-05
3.74933e-05
-3.91384e-05
-3.92999e-05
0.000206913
2.74408e-05
0.000198256
3.45505e-05
0.000187467
4.3055e-05
0.000174628
5.1236e-05
0.000160245
5.74005e-05
0.000144303
6.36288e-05
0.000127195
6.82844e-05
0.00010912
7.21519e-05
9.03316e-05
7.50106e-05
7.11744e-05
7.64951e-05
5.18524e-05
7.7166e-05
3.26131e-05
7.68437e-05
1.3686e-05
7.56055e-05
-4.78815e-06
7.3793e-05
-2.26162e-05
7.12268e-05
-3.97246e-05
6.83602e-05
-5.59531e-05
6.48623e-05
-7.1242e-05
6.10892e-05
-8.55665e-05
5.72486e-05
-9.88634e-05
5.3151e-05
-0.000111132
4.90378e-05
-0.000122388
4.50077e-05
-0.000132625
4.09483e-05
-0.000141867
3.69651e-05
-0.000150149
3.31234e-05
-0.000157487
2.9374e-05
-0.000163925
2.57539e-05
-0.000169488
2.22289e-05
-0.000174201
1.88511e-05
-0.000178092
1.5556e-05
-0.00018119
1.23931e-05
-0.000183531
9.34967e-06
-0.000185122
6.37293e-06
-0.000185959
3.45781e-06
-0.000186045
4.98937e-07
-0.000185377
-2.60273e-06
-0.000183941
-5.73917e-06
-0.000181788
-8.60879e-06
-0.00017891
-1.15133e-05
-0.000175192
-1.48726e-05
-0.00017075
-1.777e-05
-0.000165391
-2.14367e-05
-0.000159213
-2.47965e-05
-0.000152187
-2.81063e-05
-0.000144147
-3.21568e-05
-0.000135306
-3.53607e-05
-0.000125617
-3.87576e-05
-0.000114815
-4.32611e-05
-0.000103007
-4.72085e-05
-9.04451e-05
-5.02235e-05
-7.68122e-05
-5.44971e-05
-6.23674e-05
-5.77404e-05
-4.69681e-05
-6.15215e-05
-3.06538e-05
-6.52243e-05
-1.37888e-05
-6.74167e-05
3.69322e-06
-6.98596e-05
2.16926e-05
-7.19234e-05
3.98485e-05
-7.25039e-05
5.81993e-05
-7.32765e-05
7.6442e-05
-7.28464e-05
9.44635e-05
-7.19642e-05
0.000112088
-7.03475e-05
0.000128928
-6.72267e-05
0.000144847
-6.35698e-05
0.000159725
-5.93781e-05
0.000173215
-5.38398e-05
0.000185228
-4.79526e-05
0.000195481
-4.09338e-05
0.000203961
-3.38463e-05
0.000210393
-2.56851e-05
0.000214757
-1.73131e-05
0.000216842
-8.26816e-06
0.000216562
9.95579e-07
0.000213989
1.02425e-05
0.00020913
1.94053e-05
0.000201892
2.8871e-05
0.000192624
3.7038e-05
0.000181204
4.55469e-05
0.000168122
5.22363e-05
0.000153352
5.89252e-05
0.000137082
6.49067e-05
0.000119785
6.90647e-05
0.00010158
7.26547e-05
8.27943e-05
7.49558e-05
6.37548e-05
7.60717e-05
4.46018e-05
7.65581e-05
2.54857e-05
7.64145e-05
6.6942e-06
7.50072e-05
-1.14826e-05
7.25191e-05
-2.89637e-05
6.98819e-05
-4.5707e-05
6.70093e-05
-6.16959e-05
6.38091e-05
-7.6649e-05
5.9843e-05
-9.05768e-05
5.56657e-05
-0.000103582
5.19786e-05
-0.000115408
4.74563e-05
-0.000126532
4.43931e-05
-0.000136605
4.01877e-05
-0.000145551
3.60053e-05
-0.000153872
3.31526e-05
-0.000161273
2.95587e-05
-0.000167517
2.49573e-05
-0.000172899
2.15314e-05
-0.000177268
1.76441e-05