/*--------------------------------*- C++ -*----------------------------------*\
| =========                 |                                                 |
| \\      /  F ield         | OpenFOAM: The Open Source CFD Toolbox           |
|  \\    /   O peration     | Version:  3.0.1                                 |
|   \\  /    A nd           | Web:      www.OpenFOAM.org                      |
|    \\/     M anipulation  |                                                 |
\*---------------------------------------------------------------------------*/
FoamFile
{
    version     2.0;
    format      ascii;
    class       surfaceScalarField;
    location    "20.8";
    object      alphaPhi;
}
// * * * * * * * * * * * * * * * * * * * * * * * * * * * * * * * * * * * * * //

dimensions      [0 3 -1 0 0 0 0];

internalField   nonuniform List<scalar> 
42423
(
0.000189515
-5.57851e-06
0.00019356
-4.04499e-06
0.000195877
-2.31702e-06
0.000196512
-6.34907e-07
0.00019557
9.42317e-07
0.000192834
2.7363e-06
0.000188317
4.51709e-06
0.000182138
6.17834e-06
0.000174275
7.86307e-06
0.000164913
9.36204e-06
0.000154154
1.0759e-05
0.00014195
1.22045e-05
0.00012863
1.33193e-05
0.000114305
1.43253e-05
9.91409e-05
1.51643e-05
8.32505e-05
1.58903e-05
6.68381e-05
1.64124e-05
5.0291e-05
1.65471e-05
3.3667e-05
1.66241e-05
1.71094e-05
1.65576e-05
9.07567e-07
1.62018e-05
-1.48521e-05
1.57597e-05
-2.99631e-05
1.5111e-05
-4.43208e-05
1.43577e-05
-5.78281e-05
1.35073e-05
-7.03937e-05
1.25657e-05
-8.20043e-05
1.16106e-05
-9.26331e-05
1.06288e-05
-0.000102258
9.62503e-06
-0.000110877
8.6189e-06
-0.000118524
7.64742e-06
-0.000125235
6.71068e-06
-0.000131024
5.78927e-06
-0.000135925
4.90075e-06
-0.000139994
4.06856e-06
-0.000143273
3.27933e-06
-0.000145774
2.501e-06
-0.00014753
1.75566e-06
-0.000148604
1.07442e-06
-0.000149006
4.02252e-07
-0.000148737
-2.69038e-07
-0.000147703
-1.03431e-06
-0.000145977
-1.72584e-06
-0.000143517
-2.45984e-06
-0.000140272
-3.24526e-06
-0.000136302
-3.97005e-06
-0.000131567
-4.73487e-06
-0.000126003
-5.5645e-06
-0.000119706
-6.29633e-06
-0.000112682
-7.02388e-06
-0.000104858
-7.8242e-06
-9.63817e-05
-8.47665e-06
-8.71908e-05
-9.19096e-06
-7.74324e-05
-9.7584e-06
-6.71721e-05
-1.02604e-05
-5.6397e-05
-1.07751e-05
-4.52068e-05
-1.11902e-05
-3.36895e-05
-1.15174e-05
-2.1845e-05
-1.18445e-05
-9.79079e-06
-1.20543e-05
2.49568e-06
-1.22865e-05
1.49049e-05
-1.24093e-05
2.73105e-05
-1.24056e-05
3.97173e-05
-1.24069e-05
5.20276e-05
-1.23104e-05
6.41196e-05
-1.2092e-05
7.59398e-05
-1.18203e-05
8.73585e-05
-1.14189e-05
9.83046e-05
-1.09461e-05
0.000108601
-1.02969e-05
0.000118099
-9.49779e-06
0.000126713
-8.61372e-06
0.000134228
-7.51518e-06
0.000140519
-6.29087e-06
0.000145569
-5.05012e-06
0.000149194
-3.62481e-06
0.000151311
-2.11711e-06
0.000151922
-6.11409e-07
0.000151107
8.1508e-07
0.000148745
2.36168e-06
0.000144808
3.93777e-06
0.00013936
5.44814e-06
0.000132474
6.88559e-06
0.000124222
8.25198e-06
0.000114737
9.48472e-06
0.000104095
1.06429e-05
9.24962e-05
1.15985e-05
7.99627e-05
1.25335e-05
6.67407e-05
1.32221e-05
5.3162e-05
1.35787e-05
3.90543e-05
1.41077e-05
2.48886e-05
1.41657e-05
1.08335e-05
1.40551e-05
-3.11698e-06
1.39505e-05
-1.66454e-05
1.35284e-05
-2.96066e-05
1.29613e-05
-4.19744e-05
1.23678e-05
-5.36966e-05
1.17223e-05
-6.45924e-05
1.08958e-05
-7.46881e-05
1.00957e-05
-8.39804e-05
9.29232e-06
-9.24087e-05
8.42836e-06
-0.000100008
7.59909e-06
-0.000106781
6.77324e-06
-0.000112754
5.97263e-06
-0.000117959
5.20512e-06
-0.000122398
4.43919e-06
-0.000126179
3.7807e-06
-0.000129311
3.13263e-06
-0.000131857
2.54624e-06
-0.000133832
1.97434e-06
-0.000135268
1.43595e-06
-0.000136193
9.25256e-07
-0.000136626
4.32888e-07
-0.000136562
-6.40989e-08
-0.000135981
-5.80475e-07
-0.000134939
-1.0423e-06
-0.000133386
-1.55337e-06
-0.000131303
-2.08221e-06
-0.000128674
-2.6299e-06
-0.000125479
-3.19463e-06
-0.000121676
-3.80294e-06
-0.000117209
-4.4666e-06
-0.000112098
-5.11157e-06
-0.000106287
-5.81093e-06
-9.97853e-05
-6.50168e-06
-9.25629e-05
-7.22239e-06
-8.46601e-05
-7.90284e-06
-7.60244e-05
-8.63577e-06
-6.66805e-05
-9.34396e-06
-5.66659e-05
-1.00146e-05
-4.59806e-05
-1.06854e-05
-3.46461e-05
-1.13345e-05
-2.27048e-05
-1.19414e-05
-1.026e-05
-1.24448e-05
2.61266e-06
-1.28728e-05
1.58221e-05
-1.32096e-05
2.92528e-05
-1.34307e-05
4.27693e-05
-1.35166e-05
5.62138e-05
-1.34446e-05
6.9423e-05
-1.32093e-05
8.22355e-05
-1.28125e-05
9.44789e-05
-1.22436e-05
0.000105983
-1.15038e-05
0.000116577
-1.05949e-05
0.000126101
-9.52385e-06
0.000134407
-8.30563e-06
0.000141372
-6.96504e-06
0.000146901
-5.52894e-06
0.000150935
-4.03485e-06
0.000153384
-2.44823e-06
0.000154237
-8.5302e-07
0.000153513
7.23822e-07
0.000151185
2.32723e-06
0.000147337
3.84814e-06
0.000142046
5.29168e-06
0.000135401
6.64454e-06
0.000127537
7.86446e-06
0.000118583
8.9537e-06
0.000108648
9.93507e-06
9.79195e-05
1.07282e-05
8.65278e-05
1.13917e-05
7.46397e-05
1.18881e-05
6.23964e-05
1.22433e-05
4.99235e-05
1.2473e-05
3.73554e-05
1.25681e-05
2.48094e-05
1.2546e-05
1.23903e-05
1.24191e-05
1.78084e-07
1.22122e-05
-1.1739e-05
1.19171e-05
-2.32916e-05
1.15526e-05
-3.44192e-05
1.11277e-05
-4.50613e-05
1.06421e-05
-5.5194e-05
1.01327e-05
-6.47659e-05
9.57189e-06
-7.37483e-05
8.98239e-06
-8.21233e-05
8.37502e-06
-8.98581e-05
7.73488e-06
-9.69379e-05
7.0798e-06
-0.000103352
6.41382e-06
-0.000109091
5.73942e-06
-0.000114132
5.04066e-06
-0.000118471
4.3392e-06
-0.000122088
3.61744e-06
-0.000125039
2.95085e-06
-0.000127264
2.22442e-06
-0.000128806
1.54196e-06
-0.000129668
8.62394e-07
-0.00012986
1.91794e-07
-0.000129379
-4.8068e-07
-0.00012821
-1.16904e-06
-0.000126365
-1.84508e-06
-0.000123862
-2.50315e-06
-0.000120676
-3.18589e-06
-0.000116824
-3.85154e-06
-0.00011231
-4.51458e-06
-0.000107146
-5.16413e-06
-0.000101312
-5.83397e-06
-9.48283e-05
-6.48353e-06
-8.76855e-05
-7.14279e-06
-7.98906e-05
-7.79494e-06
-7.14759e-05
-8.41477e-06
-6.24126e-05
-9.06331e-06
-5.28259e-05
-9.58671e-06
-4.26573e-05
-1.01686e-05
-3.19771e-05
-1.06802e-05
-2.08322e-05
-1.11449e-05
-9.2594e-06
-1.15729e-05
2.66337e-06
-1.19228e-05
1.48937e-05
-1.22303e-05
2.73627e-05
-1.24691e-05
3.99868e-05
-1.26241e-05
5.26568e-05
-1.26701e-05
6.52923e-05
-1.26355e-05
7.7759e-05
-1.24668e-05
8.99532e-05
-1.21943e-05
0.000101731
-1.17783e-05
0.000112968
-1.12362e-05
0.000123543
-1.05756e-05
0.000133309
-9.76603e-06
0.000142099
-8.79005e-06
0.000149843
-7.74351e-06
0.000156391
-6.54877e-06
0.000161627
-5.23609e-06
0.000165472
-3.84459e-06
0.000167831
-2.35898e-06
0.000168662
-8.31549e-07
0.000167906
7.56271e-07
0.000165554
2.35171e-06
0.000161617
3.93763e-06
0.000156141
5.47598e-06
0.000149219
6.92145e-06
0.000140929
8.29021e-06
0.000131389
9.54038e-06
0.00012077
1.06182e-05
0.000109196
1.15742e-05
9.68548e-05
1.23413e-05
8.3907e-05
1.29478e-05
7.05415e-05
1.33656e-05
5.69304e-05
1.36111e-05
4.3243e-05
1.36873e-05
2.96441e-05
1.35989e-05
1.62842e-05
1.33599e-05
3.25846e-06
1.30258e-05
-9.26749e-06
1.2526e-05
-2.12182e-05
1.19507e-05
-3.24937e-05
1.12755e-05
-4.31068e-05
1.06131e-05
-5.29258e-05
9.819e-06
-6.19468e-05
9.02095e-06
-7.01697e-05
8.22295e-06
-7.75803e-05
7.41054e-06
-8.41958e-05
6.6155e-06
-9.00306e-05
5.8348e-06
-9.51011e-05
5.07048e-06
-9.94435e-05
4.34239e-06
-0.000103106
3.66216e-06
-0.000106132
3.02646e-06
-0.000108531
2.39854e-06
-0.000110331
1.79992e-06
-0.000111596
1.26545e-06
-0.000112357
7.60698e-07
-0.000112604
2.47571e-07
-0.000112344
-2.59831e-07
-0.000111598
-7.46539e-07
-0.000110344
-1.25359e-06
-0.00010863
-1.71413e-06
-0.000106374
-2.25568e-06
-0.000103498
-2.87623e-06
-0.000100167
-3.33112e-06
-9.61163e-05
-4.05085e-06
-9.1453e-05
-4.66331e-06
-8.61846e-05
-5.26833e-06
-8.00933e-05
-6.09138e-06
-7.32644e-05
-6.82883e-06
-6.56384e-05
-7.62605e-06
-5.73076e-05
-8.33081e-06
-4.81347e-05
-9.17289e-06
-3.81621e-05
-9.97261e-06
-2.74072e-05
-1.0755e-05
-1.60312e-05
-1.1376e-05
-4.01752e-06
-1.20138e-05
8.60066e-06
-1.26182e-05
2.16112e-05
-1.30106e-05
3.4993e-05
-1.33818e-05
4.85802e-05
-1.35873e-05
6.21802e-05
-1.36001e-05
7.56945e-05
-1.35143e-05
8.89229e-05
-1.32285e-05
0.000101735
-1.28122e-05
0.000114006
-1.22708e-05
0.000125491
-1.14855e-05
0.000136107
-1.06161e-05
0.000145702
-9.59469e-06
0.000154103
-8.40069e-06
0.000161269
-7.16658e-06
0.000167089
-5.81984e-06
0.000171407
-4.31797e-06
0.000174267
-2.86022e-06
0.000175581
-1.31433e-06
0.000175497
8.46312e-08
0.000174024
1.47254e-06
0.000171152
2.87225e-06
0.000166978
4.17369e-06
0.000161496
5.48175e-06
0.000154716
6.7799e-06
0.000146833
7.88353e-06
0.000137832
9.00095e-06
0.000127954
9.87814e-06
0.000117185
1.07683e-05
0.000105625
1.15606e-05
9.35449e-05
1.20797e-05
8.08947e-05
1.26502e-05
6.78544e-05
1.30402e-05
5.46355e-05
1.32189e-05
4.13368e-05
1.32987e-05
2.79885e-05
1.33483e-05
1.47995e-05
1.3189e-05
1.84615e-06
1.29534e-05
-1.07787e-05
1.26248e-05
-2.29755e-05
1.21968e-05
-3.46206e-05
1.16452e-05
-4.56429e-05
1.10223e-05
-5.59941e-05
1.03511e-05
-6.56144e-05
9.62033e-06
-7.4471e-05
8.85661e-06
-8.25487e-05
8.07768e-06
-8.98119e-05
7.2632e-06
-9.62595e-05
6.44759e-06
-0.00010191
5.65064e-06
-0.00010674
4.82985e-06
-0.000110762
4.02168e-06
-0.000113984
3.22208e-06
-0.000116439
2.45504e-06
-0.00011816
1.72077e-06
-0.000119191
1.03153e-06
-0.000119536
3.45181e-07
-0.000119172
-3.64391e-07
-0.000118099
-1.07321e-06
-0.000116389
-1.71003e-06
-0.000114046
-2.34302e-06
-0.000111075
-2.9703e-06
-0.000107507
-3.56821e-06
-0.00010326
-4.24698e-06
-9.84088e-05
-4.85129e-06
-9.29333e-05
-5.47549e-06
-8.67702e-05
-6.16308e-06
-7.99589e-05
-6.81128e-06
-7.25056e-05
-7.45332e-06
-6.43754e-05
-8.13021e-06
-5.56203e-05
-8.75513e-06
-4.61546e-05
-9.46565e-06
-3.61164e-05
-1.00382e-05
-2.55314e-05
-1.0585e-05
-1.43135e-05
-1.12179e-05
-2.5977e-06
-1.17158e-05
-1.18863e-05
0.000189604
-1.11775e-05
0.000193654
-8.09577e-06
0.000195968
-4.63107e-06
0.000196608
-1.27413e-06
0.000195663
1.887e-06
0.000192925
5.474e-06
0.000188408
9.03438e-06
0.000182228
1.23581e-05
0.000174362
1.57292e-05
0.000164995
1.8729e-05
0.000154233
2.15213e-05
0.000142021
2.44164e-05
0.000128693
2.66477e-05
0.000114359
2.86591e-05
9.91873e-05
3.03357e-05
8.32858e-05
3.17918e-05
6.68601e-05
3.28382e-05
5.03024e-05
3.31048e-05
3.36672e-05
3.32592e-05
1.71029e-05
3.31219e-05
8.93201e-07
3.24115e-05
-1.48718e-05
3.15247e-05
-2.99899e-05
3.02291e-05
-4.43559e-05
2.87237e-05
-5.78753e-05
2.70267e-05
-7.04499e-05
2.51403e-05
-8.20596e-05
2.32203e-05
-9.26845e-05
2.12536e-05
-0.000102316
1.92563e-05
-0.000110944
1.72473e-05
-0.000118586
1.52892e-05
-0.00012529
1.34145e-05
-0.000131085
1.15842e-05
-0.000135991
9.80717e-06
-0.000140054
8.13152e-06
-0.000143329
6.55451e-06
-0.000145837
5.00844e-06
-0.0001476
3.51859e-06
-0.000148664
2.13894e-06
-0.000149059
7.96698e-07
-0.000148788
-5.39165e-07
-0.000147754
-2.06872e-06
-0.000146031
-3.44864e-06
-0.000143576
-4.91476e-06
-0.000140333
-6.48887e-06
-0.000136364
-7.93848e-06
-0.000131631
-9.46854e-06
-0.000126065
-1.11307e-05
-0.000119768
-1.25925e-05
-0.000112743
-1.4049e-05
-0.000104915
-1.56522e-05
-9.64379e-05
-1.69542e-05
-8.72431e-05
-1.83858e-05
-7.7479e-05
-1.95226e-05
-6.72172e-05
-2.05223e-05
-5.64373e-05
-2.1555e-05
-4.52382e-05
-2.23895e-05
-3.37222e-05
-2.30335e-05
-2.18736e-05
-2.36933e-05
-9.81491e-06
-2.41131e-05
2.47937e-06
-2.45809e-05
1.48988e-05
-2.48289e-05
2.7311e-05
-2.48179e-05
3.97267e-05
-2.48228e-05
5.20473e-05
-2.46311e-05
6.41476e-05
-2.41926e-05
7.59816e-05
-2.36544e-05
8.74123e-05
-2.28497e-05
9.83637e-05
-2.18977e-05
0.000108673
-2.06062e-05
0.00011818
-1.90051e-05
0.0001268
-1.72337e-05
0.000134322
-1.50376e-05
0.000140628
-1.25966e-05
0.000145703
-1.01253e-05
0.00014933
-7.25225e-06
0.000151434
-4.22099e-06
0.000152043
-1.22026e-06
0.000151232
1.62603e-06
0.00014887
4.72386e-06
0.000144926
7.88132e-06
0.00013947
1.09046e-05
0.000132576
1.37792e-05
0.000124318
1.65102e-05
0.000114822
1.89812e-05
0.000104161
2.13038e-05
9.25489e-05
2.32107e-05
8.00007e-05
2.50817e-05
6.67542e-05
2.64686e-05
5.31576e-05
2.71754e-05
3.90464e-05
2.82189e-05
2.48705e-05
2.83417e-05
1.07822e-05
2.81435e-05
-3.15664e-06
2.78894e-05
-1.66877e-05
2.70595e-05
-2.96666e-05
2.59402e-05
-4.20411e-05
2.47424e-05
-5.37625e-05
2.34436e-05
-6.46677e-05
2.1801e-05
-7.47709e-05
2.0199e-05
-8.40655e-05
1.85869e-05
-9.24857e-05
1.68486e-05
-0.000100093
1.52065e-05
-0.000106861
1.35414e-05
-0.000112828
1.19394e-05
-0.000118033
1.04102e-05
-0.000122485
8.89072e-06
-0.000126267
7.56287e-06
-0.000129395
6.26072e-06
-0.000131929
5.08082e-06
-0.000133905
3.94949e-06
-0.000135348
2.87944e-06
-0.000136275
1.85181e-06
-0.000136695
8.52922e-07
-0.000136627
-1.32168e-07
-0.000136056
-1.15059e-06
-0.000135004
-2.09513e-06
-0.000133452
-3.10458e-06
-0.000131383
-4.15111e-06
-0.00012875
-5.26347e-06
-0.000125551
-6.39315e-06
-0.000121748
-7.60631e-06
-0.000117285
-8.92933e-06
-0.000112176
-1.0221e-05
-0.00010636
-1.16266e-05
-9.98527e-05
-1.30092e-05
-9.26286e-05
-1.44465e-05
-8.4726e-05
-1.58055e-05
-7.60896e-05
-1.72723e-05
-6.67422e-05
-1.86914e-05
-5.67255e-05
-2.00314e-05
-4.60315e-05
-2.13794e-05
-3.46941e-05
-2.2672e-05
-2.27423e-05
-2.38933e-05
-1.03053e-05
-2.48818e-05
2.58648e-06
-2.57646e-05
1.58153e-05
-2.64385e-05
2.92596e-05
-2.68751e-05
4.27682e-05
-2.70253e-05
5.6216e-05
-2.68925e-05
6.94371e-05
-2.64305e-05
8.22612e-05
-2.56367e-05
9.45158e-05
-2.44983e-05
0.000106027
-2.3015e-05
0.000116632
-2.12005e-05
0.000126171
-1.90627e-05
0.000134477
-1.66112e-05
0.000141456
-1.39442e-05
0.000146987
-1.10609e-05
0.000151016
-8.0634e-06
0.000153467
-4.89917e-06
0.000154327
-1.71291e-06
0.000153596
1.45437e-06
0.000151272
4.65095e-06
0.000147416
7.70402e-06
0.000142116
1.05923e-05
0.000135471
1.32893e-05
0.000127597
1.57385e-05
0.000118622
1.79283e-05
0.000108683
1.98739e-05
9.79599e-05
2.14517e-05
8.65576e-05
2.2794e-05
7.46588e-05
2.3787e-05
6.24018e-05
2.45003e-05
4.992e-05
2.49548e-05
3.73471e-05
2.5141e-05
2.47928e-05
2.51003e-05
1.23714e-05
2.48406e-05
1.55614e-07
2.4428e-05
-1.1775e-05
2.38477e-05
-2.33329e-05
2.31106e-05
-3.44626e-05
2.22573e-05
-4.51067e-05
2.12863e-05
-5.52413e-05
2.02674e-05
-6.48164e-05
1.9147e-05
-7.38074e-05
1.79734e-05
-8.21853e-05
1.6753e-05
-8.9921e-05
1.54707e-05
-9.70046e-05
1.41634e-05
-0.000103417
1.28267e-05
-0.000109156
1.14778e-05
-0.000114202
1.0087e-05
-0.000118546
8.68282e-06
-0.000122164
7.23532e-06
-0.000125113
5.89989e-06
-0.00012734
4.45129e-06
-0.000128876
3.07857e-06
-0.000129737
1.72372e-06
-0.000129935
3.89477e-07
-0.000129447
-9.69061e-07
-0.000128282
-2.33338e-06
-0.000126422
-3.70512e-06
-0.000123931
-4.99451e-06
-0.000120747
-6.36985e-06
-0.000116896
-7.70274e-06
-0.000112365
-9.04583e-06
-0.000107214
-1.03152e-05
-0.000101385
-1.1663e-05
-9.48966e-05
-1.29714e-05
-8.77479e-05
-1.42916e-05
-7.99453e-05
-1.55975e-05
-7.15277e-05
-1.68324e-05
-6.24636e-05
-1.81274e-05
-5.28798e-05
-1.91705e-05
-4.27058e-05
-2.03427e-05
-3.20201e-05
-2.13659e-05
-2.08712e-05
-2.22939e-05
-9.29548e-06
-2.31486e-05
2.63525e-06
-2.38536e-05
1.4879e-05
-2.44741e-05
2.73415e-05
-2.49317e-05
3.9974e-05
-2.52566e-05
5.26584e-05
-2.53546e-05
6.52969e-05
-2.52741e-05
7.77756e-05
-2.49456e-05
8.99806e-05
-2.43993e-05
0.000101761
-2.35584e-05
0.000113006
-2.24811e-05
0.000123583
-2.11529e-05
0.000133364
-1.95474e-05
0.000142171
-1.75968e-05
0.000149914
-1.54869e-05
0.000156472
-1.31071e-05
0.000161713
-1.04769e-05
0.000165556
-7.68798e-06
0.00016792
-4.72227e-06
0.000168749
-1.66106e-06
0.000167991
1.51472e-06
0.00016564
4.70253e-06
0.000161706
7.8709e-06
0.000156227
1.09555e-05
0.000149297
1.38511e-05
0.000141
1.65871e-05
0.000131457
1.90837e-05
0.000120829
2.12459e-05
0.00010924
2.31631e-05
9.68932e-05
2.46886e-05
8.3938e-05
2.5903e-05
7.05558e-05
2.67478e-05
5.69313e-05
2.72356e-05
4.32366e-05
2.7382e-05
2.96347e-05
2.72008e-05
1.62639e-05
2.67307e-05
3.23782e-06
2.60519e-05
-9.30013e-06
2.50639e-05
-2.12606e-05
2.39112e-05
-3.25344e-05
2.25494e-05
-4.31536e-05
2.12323e-05
-5.29809e-05
1.96463e-05
-6.20027e-05
1.80427e-05
-7.0224e-05
1.64443e-05
-7.76335e-05
1.482e-05
-8.42519e-05
1.32339e-05
-9.00866e-05
1.16696e-05
-9.51549e-05
1.01388e-05
-9.95018e-05
8.68926e-06
-0.000103165
7.32508e-06
-0.000106186
6.04802e-06
-0.000108586
4.79859e-06
-0.000110384
3.59752e-06
-0.000111653
2.53466e-06
-0.000112415
1.52209e-06
-0.000112655
4.87856e-07
-0.000112392
-5.2269e-07
-0.000111656
-1.48261e-06
-0.000110401
-2.50844e-06
-0.000108681
-3.43459e-06
-0.000106425
-4.51128e-06
-0.000103563
-5.73775e-06
-0.000100226
-6.66849e-06
-9.61788e-05
-8.09816e-06
-9.15103e-05
-9.33184e-06
-8.62448e-05
-1.05338e-05
-8.01424e-05
-1.21938e-05
-7.3318e-05
-1.36532e-05
-6.56907e-05
-1.52534e-05
-5.73651e-05
-1.66565e-05
-4.81876e-05
-1.83504e-05
-3.82087e-05
-1.99516e-05
-2.7456e-05
-2.15077e-05
-1.60742e-05
-2.27579e-05
-4.05683e-06
-2.40311e-05
8.56493e-06
-2.524e-05
2.15818e-05
-2.60276e-05
3.49671e-05
-2.67672e-05
4.85594e-05
-2.71797e-05
6.21672e-05
-2.72079e-05
7.56834e-05
-2.70306e-05
8.89162e-05
-2.64614e-05
0.00010174
-2.5636e-05
0.00011402
-2.45512e-05
0.000125509
-2.29739e-05
0.000136124
-2.12317e-05
0.000145723
-1.91943e-05
0.000154137
-1.68141e-05
0.000161284
-1.43136e-05
0.000167092
-1.16285e-05
0.000171438
-8.66415e-06
0.000174322
-5.74359e-06
0.000175636
-2.62838e-06
0.00017555
1.70164e-07
0.000174086
2.93587e-06
0.000171225
5.73385e-06
0.000167052
8.34663e-06
0.000161567
1.09661e-05
0.000154784
1.35629e-05
0.000146898
1.57702e-05
0.000137891
1.80069e-05
0.000128008
1.97614e-05
0.000117235
2.1541e-05
0.000105668
2.31284e-05
9.35822e-05
2.4165e-05
8.09268e-05
2.53056e-05
6.78795e-05
2.60875e-05
5.46516e-05
2.64468e-05
4.13469e-05
2.66034e-05
2.79933e-05
2.67019e-05
1.47969e-05
2.63853e-05
1.83816e-06
2.59121e-05
-1.07928e-05
2.52557e-05
-2.29941e-05
2.43981e-05
-3.46446e-05
2.32957e-05
-4.56707e-05
2.20484e-05
-5.60285e-05
2.07089e-05
-6.56557e-05
1.92475e-05
-7.4514e-05
1.7715e-05
-8.2593e-05
1.61566e-05
-8.98636e-05
1.45338e-05
-9.63095e-05
1.28934e-05
-0.000101958
1.12992e-05
-0.000106796
9.6674e-06
-0.000110822
8.04811e-06
-0.000114045
6.44521e-06
-0.000116493
4.90272e-06
-0.000118209
3.43652e-06
-0.000119238
2.06125e-06
-0.000119582
6.89293e-07
-0.000119218
-7.28498e-07
-0.000118144
-2.14795e-06
-0.000116432
-3.42106e-06
-0.00011409
-4.6858e-06
-0.00011112
-5.93951e-06
-0.000107551
-7.13766e-06
-0.000103303
-8.49464e-06
-9.84549e-05
-9.69979e-06
-9.29769e-05
-1.09535e-05
-8.68114e-05
-1.23285e-05
-7.99981e-05
-1.36246e-05
-7.25427e-05
-1.49086e-05
-6.44084e-05
-1.62645e-05
-5.56486e-05
-1.7515e-05
-4.61806e-05
-1.89336e-05
-3.61395e-05
-2.00793e-05
-2.55515e-05
-2.1173e-05
-1.43299e-05
-2.24396e-05
-2.60879e-06
-2.34369e-05
-2.37782e-05
0.000189752
-1.67893e-05
0.000193819
-1.21624e-05
0.000196147
-6.96002e-06
0.000196782
-1.90911e-06
0.000195808
2.86156e-06
0.000193058
8.22404e-06
0.000188538
1.35543e-05
0.000182354
1.85417e-05
0.000174482
2.36015e-05
0.000165107
2.81043e-05
0.000154338
3.22895e-05
0.000142115
3.66404e-05
0.000128773
3.99897e-05
0.000114424
4.30075e-05
9.92433e-05
4.55165e-05
8.33254e-05
4.77097e-05
6.68809e-05
4.92827e-05
5.03049e-05
4.96808e-05
3.36522e-05
4.9912e-05
1.70803e-05
4.96938e-05
8.51239e-07
4.86406e-05
-1.49293e-05
4.73053e-05
-3.00612e-05
4.53609e-05
-4.44356e-05
4.30981e-05
-5.79604e-05
4.05515e-05
-7.05396e-05
3.77195e-05
-8.21585e-05
3.48391e-05
-9.27871e-05
3.18823e-05
-0.000102414
2.8883e-05
-0.000111044
2.58772e-05
-0.000118695
2.29403e-05
-0.000125397
2.01163e-05
-0.000131182
1.73695e-05
-0.000136091
1.47163e-05
-0.000140164
1.22041e-05
-0.000143434
9.82494e-06
-0.000145933
7.50715e-06
-0.000147702
5.2874e-06
-0.000148762
3.19972e-06
-0.000149127
1.1614e-06
-0.00014884
-8.26066e-07
-0.000147806
-3.10325e-06
-0.000146085
-5.16907e-06
-0.000143635
-7.36518e-06
-0.000140389
-9.73476e-06
-0.000136421
-1.19067e-05
-0.000131689
-1.42005e-05
-0.000126123
-1.6697e-05
-0.000119825
-1.88899e-05
-0.0001128
-2.10742e-05
-0.000104969
-2.34832e-05
-9.64876e-05
-2.54357e-05
-8.72892e-05
-2.75844e-05
-7.75204e-05
-2.92914e-05
-6.72543e-05
-3.07885e-05
-5.64694e-05
-3.234e-05
-4.52656e-05
-3.35934e-05
-3.37445e-05
-3.45546e-05
-2.18917e-05
-3.55462e-05
-9.83008e-06
-3.61748e-05
2.47202e-06
-3.68832e-05
1.48997e-05
-3.72568e-05
2.73198e-05
-3.72381e-05
3.97426e-05
-3.72457e-05
5.207e-05
-3.69586e-05
6.41817e-05
-3.63044e-05
7.60249e-05
-3.54976e-05
8.74662e-05
-3.42911e-05
9.84348e-05
-3.28665e-05
0.000108764
-3.09351e-05
0.000118284
-2.85256e-05
0.000126924
-2.5874e-05
0.000134469
-2.25828e-05
0.00014079
-1.89175e-05
0.000145874
-1.52094e-05
0.000149515
-1.08932e-05
0.00015163
-6.33595e-06
0.000152222
-1.81282e-06
0.000151391
2.45769e-06
0.000149022
7.09279e-06
0.000145078
1.18257e-05
0.000139618
1.63643e-05
0.000132714
2.06832e-05
0.00012444
2.47842e-05
0.000114929
2.84929e-05
0.000104246
3.19866e-05
9.26147e-05
3.48418e-05
8.00511e-05
3.76455e-05
6.67768e-05
3.97429e-05
5.31596e-05
4.07926e-05
3.90384e-05
4.23402e-05
2.48416e-05
4.25385e-05
1.06981e-05
4.2287e-05
-3.21523e-06
4.18027e-05
-1.67572e-05
4.06015e-05
-2.97545e-05
3.89375e-05
-4.21316e-05
3.71195e-05
-5.38622e-05
3.51743e-05
-6.47726e-05
3.27114e-05
-7.48969e-05
3.03233e-05
-8.41696e-05
2.78596e-05
-9.25766e-05
2.52557e-05
-0.000100194
2.28236e-05
-0.00010696
2.03079e-05
-0.000112926
1.79055e-05
-0.000118132
1.56161e-05
-0.00012258
1.33384e-05
-0.000126357
1.13403e-05
-0.000129479
9.38288e-06
-0.000132008
7.60972e-06
-0.000133988
5.9297e-06
-0.000135425
4.31633e-06
-0.000136348
2.77469e-06
-0.000136774
1.27901e-06
-0.000136706
-2.00754e-07
-0.000136129
-1.72773e-06
-0.000135063
-3.16091e-06
-0.000133526
-4.64119e-06
-0.000131466
-6.21174e-06
-0.000128835
-7.89437e-06
-0.000125634
-9.59351e-06
-0.000121828
-1.14129e-05
-0.000117363
-1.33941e-05
-0.000112264
-1.53202e-05
-0.00010645
-1.74407e-05
-9.99402e-05
-1.95188e-05
-9.27163e-05
-2.16705e-05
-8.4807e-05
-2.37148e-05
-7.6174e-05
-2.59053e-05
-6.68209e-05
-2.80445e-05
-5.68081e-05
-3.00443e-05
-4.61105e-05
-3.2077e-05
-3.4764e-05
-3.40185e-05
-2.27925e-05
-3.58649e-05
-1.03629e-05
-3.73115e-05
2.53537e-06
-3.8663e-05
1.57718e-05
-3.9675e-05
2.92298e-05
-4.03332e-05
4.2752e-05
-4.05476e-05
5.62132e-05
-4.03538e-05
6.94471e-05
-3.96645e-05
8.22881e-05
-3.84779e-05
9.45532e-05
-3.67635e-05
0.000106077
-3.45385e-05
0.000116699
-3.18231e-05
0.00012625
-2.86141e-05
0.000134558
-2.49193e-05
0.000141562
-2.09481e-05
0.000147091
-1.65899e-05
0.000151121
-1.20933e-05
0.00015358
-7.35849e-06
0.000154439
-2.57156e-06
0.000153695
2.19808e-06
0.000151386
6.95953e-06
0.000147506
1.15846e-05
0.000142198
1.58999e-05
0.000135541
1.99458e-05
0.000127656
2.36239e-05
0.00011868
2.69046e-05
0.000108726
2.98278e-05
9.79825e-05
3.21949e-05
8.65709e-05
3.42056e-05
7.46612e-05
3.56967e-05
6.23975e-05
3.6764e-05
4.99035e-05
3.74488e-05
3.73217e-05
3.77228e-05
2.47578e-05
3.76642e-05
1.23219e-05
3.72766e-05
1.03928e-07
3.66459e-05
-1.18276e-05
3.57792e-05
-2.33894e-05
3.46724e-05
-3.4525e-05
3.3393e-05
-4.51776e-05
3.19389e-05
-5.53175e-05
3.04073e-05
-6.48906e-05
2.87201e-05
-7.38803e-05
2.69631e-05
-8.22615e-05
2.51343e-05
-9.00002e-05
2.32094e-05
-9.70831e-05
2.12463e-05
-0.000103503
1.9247e-05
-0.000109241
1.72155e-05
-0.000114282
1.51281e-05
-0.000118627
1.30278e-05
-0.000122244
1.08526e-05
-0.000125199
8.85473e-06
-0.000127424
6.67617e-06
-0.000128959
4.61336e-06
-0.000129823
2.58829e-06
-0.000130016
5.81642e-07
-0.000129517
-1.46793e-06
-0.000128358
-3.49245e-06
-0.000126492
-5.57025e-06
-0.000124005
-7.48168e-06
-0.000120822
-9.5532e-06
-0.000116974
-1.15511e-05
-0.000112444
-1.35758e-05
-0.000107285
-1.54739e-05
-0.000101454
-1.74937e-05
-9.49694e-05
-1.94563e-05
-8.78206e-05
-2.14404e-05
-8.00187e-05
-2.33994e-05
-7.16045e-05
-2.52467e-05
-6.25509e-05
-2.7181e-05
-5.29389e-05
-2.87826e-05
-4.27639e-05
-3.05177e-05
-3.20786e-05
-3.20512e-05
-2.09253e-05
-3.34472e-05
-9.34318e-06
-3.47308e-05
2.59911e-06
-3.57959e-05
1.48497e-05
-3.67247e-05
2.73157e-05
-3.73978e-05
3.99566e-05
-3.78976e-05
5.26476e-05
-3.80456e-05
6.5296e-05
-3.79226e-05
7.77837e-05
-3.74333e-05
8.99951e-05
-3.66108e-05
0.000101789
-3.53521e-05
0.000113049
-3.37417e-05
0.000123636
-3.17396e-05
0.000133417
-2.93284e-05
0.000142241
-2.64214e-05
0.000149995
-2.32403e-05
0.000156563
-1.96752e-05
0.000161814
-1.57284e-05
0.000165663
-1.15373e-05
0.000168034
-7.09283e-06
0.000168861
-2.48817e-06
0.000168098
2.27726e-06
0.000165742
7.05927e-06
0.000161807
1.18055e-05
0.000156319
1.64432e-05
0.000149382
2.07881e-05
0.000141087
2.48828e-05
0.000131526
2.86439e-05
0.000120882
3.189e-05
0.000109285
3.476e-05
9.6915e-05
3.70589e-05
8.39486e-05
3.88693e-05
7.05579e-05
4.01385e-05
5.69244e-05
4.08691e-05
4.3216e-05
4.10904e-05
2.95992e-05
4.08177e-05
1.621e-05
4.01199e-05
3.17876e-06
3.90832e-05
-9.36519e-06
3.76079e-05
-2.1329e-05
3.5875e-05
-3.26113e-05
3.38317e-05
-4.32317e-05
3.18527e-05
-5.30622e-05
2.94768e-05
-6.20785e-05
2.70591e-05
-7.03115e-05
2.46773e-05
-7.77013e-05
2.22099e-05
-8.43287e-05
1.98612e-05
-9.01647e-05
1.75055e-05
-9.52256e-05
1.51997e-05
-9.95774e-05
1.3041e-05
-0.00010324
1.09876e-05
-0.000106247
9.05512e-06
-0.000108649
7.20052e-06
-0.000110446
5.39478e-06
-0.000111715
3.80363e-06
-0.000112469
2.27561e-06
-0.000112711
7.30067e-07
-0.000112453
-7.8083e-07
-0.000111712
-2.22372e-06
-0.000110458
-3.76244e-06
-0.000108742
-5.15019e-06
-0.000106476
-6.77776e-06
-0.000103634
-8.57978e-06
-0.000100287
-1.00155e-05
-9.62386e-05
-1.21461e-05
-9.15712e-05
-1.39993e-05
-8.63149e-05
-1.579e-05
-8.01946e-05
-1.83141e-05
-7.33864e-05
-2.04614e-05
-6.57553e-05
-2.28844e-05
-5.74401e-05
-2.49718e-05
-4.82543e-05
-2.75362e-05
-3.82667e-05
-2.99392e-05
-2.75184e-05
-3.2256e-05
-1.61278e-05
-3.41485e-05
-4.10533e-06
-3.60537e-05
8.52118e-06
-3.78666e-05
2.15432e-05
-3.90496e-05
3.49346e-05
-4.01587e-05
4.85367e-05
-4.07818e-05
6.21495e-05
-4.08208e-05
7.56725e-05
-4.05537e-05
8.89178e-05
-3.97068e-05
0.00010175
-3.84684e-05
0.000114033
-3.68345e-05
0.000125514
-3.4455e-05
0.000136133
-3.18502e-05
0.000145745
-2.88069e-05
0.000154149
-2.52184e-05
0.000161288
-2.14522e-05
0.000167099
-1.74393e-05
0.000171432
-1.29973e-05
0.000174309
-8.62125e-06
0.000175659
-3.97807e-06
0.00017561
2.18516e-07
0.000174178
4.36841e-06
0.000171331
8.58073e-06
0.000167155
1.25224e-05
0.000161664
1.64566e-05
0.000154875
2.03526e-05
0.000146981
2.36635e-05
0.000137968
2.70196e-05
0.000128073
2.9657e-05
0.000117293
3.23204e-05
0.000105715
3.47063e-05
9.36168e-05
3.62634e-05
8.0956e-05
3.79664e-05
6.79041e-05
3.91393e-05
5.46568e-05
3.9694e-05
4.13389e-05
3.99212e-05
2.79823e-05
4.00585e-05
1.47757e-05
3.95919e-05
1.80716e-06
3.88806e-05
-1.0832e-05
3.78949e-05
-2.30412e-05
3.66073e-05
-3.47e-05
3.49544e-05
-4.57332e-05
3.30816e-05
-5.60941e-05
3.10698e-05
-6.57247e-05
2.8878e-05
-7.45894e-05
2.65797e-05
-8.26699e-05
2.42371e-05
-8.99406e-05
2.18045e-05
-9.63914e-05
1.93442e-05
-0.000102039
1.69465e-05
-0.000106875
1.4504e-05
-0.000110896
1.20694e-05
-0.000114127
9.67625e-06
-0.000116582
7.35702e-06
-0.000118293
5.1478e-06
-0.000119308
3.07591e-06
-0.000119641
1.02217e-06
-0.000119271
-1.09838e-06
-0.000118195
-3.2238e-06
-0.00011648
-5.13618e-06
-0.000114139
-7.02642e-06
-0.000111171
-8.90727e-06
-0.000107597
-1.07125e-05
-0.000103347
-1.27438e-05
-9.84993e-05
-1.45478e-05
-9.30241e-05
-1.64287e-05
-8.68629e-05
-1.84897e-05
-8.00486e-05
-2.04389e-05
-7.2595e-05
-2.23623e-05
-6.44575e-05
-2.44019e-05
-5.56936e-05
-2.62788e-05
-4.62243e-05
-2.8403e-05
-3.61803e-05
-3.01232e-05
-2.55889e-05
-3.17644e-05
-1.43615e-05
-3.36669e-05
-2.63062e-06
-3.51678e-05
-3.56811e-05
0.000189978
-2.24242e-05
0.000194088
-1.62717e-05
0.000196447
-9.31926e-06
0.00019707
-2.53214e-06
0.000196037
3.89408e-06
0.000193257
1.10045e-05
0.000188733
1.80784e-05
0.000182543
2.47311e-05
0.000174662
3.1483e-05
0.000165274
3.74924e-05
0.000154497
4.30667e-05
0.000142255
4.88821e-05
0.000128893
5.3352e-05
0.000114522
5.73782e-05
9.93274e-05
6.07113e-05
8.33849e-05
6.36522e-05
6.69127e-05
6.57548e-05
5.03088e-05
6.62847e-05
3.36298e-05
6.6591e-05
1.70465e-05
6.62772e-05
7.87504e-07
6.48996e-05
-1.50164e-05
6.31091e-05
-3.01664e-05
6.05109e-05
-4.45563e-05
5.74881e-05
-5.80967e-05
5.40919e-05
-7.06828e-05
5.03056e-05
-8.2306e-05
4.64623e-05
-9.2939e-05
4.25154e-05
-0.000102572
3.85162e-05
-0.000111203
3.45079e-05
-0.000118848
3.05853e-05
-0.00012555
2.68181e-05
-0.000131337
2.31568e-05
-0.000136241
1.96203e-05
-0.000140308
1.62711e-05
-0.000143584
1.31009e-05
-0.000146089
1.00124e-05
-0.000147853
7.05136e-06
-0.000148891
4.23768e-06
-0.000149221
1.4909e-06
-0.000148916
-1.13076e-06
-0.000147883
-4.13597e-06
-0.000146166
-6.88644e-06
-0.000143724
-9.80751e-06
-0.000140473
-1.29848e-05
-0.000136507
-1.58735e-05
-0.000131777
-1.893e-05
-0.000126211
-2.22633e-05
-0.000119911
-2.51899e-05
-0.000112886
-2.80996e-05
-0.00010505
-3.13188e-05
-9.65629e-05
-3.3923e-05
-8.73594e-05
-3.67879e-05
-7.75833e-05
-3.90676e-05
-6.73099e-05
-4.1062e-05
-5.65179e-05
-4.3132e-05
-4.53074e-05
-4.48041e-05
-3.37787e-05
-4.60834e-05
-2.19203e-05
-4.74047e-05
-9.85353e-06
-4.82417e-05
2.46093e-06
-4.91977e-05
1.49004e-05
-4.96964e-05
2.73326e-05
-4.96705e-05
3.9767e-05
-4.96802e-05
5.21105e-05
-4.93022e-05
6.42386e-05
-4.84326e-05
7.60956e-05
-4.73548e-05
8.75594e-05
-4.5755e-05
9.85514e-05
-4.38585e-05
0.000108898
-4.1282e-05
0.000118443
-3.80709e-05
0.000127107
-3.45382e-05
0.000134669
-3.01448e-05
0.000141018
-2.52659e-05
0.000146121
-2.0313e-05
0.000149775
-1.45467e-05
0.000151921
-8.48232e-06
0.000152504
-2.3962e-06
0.000151636
3.32564e-06
0.000149251
9.47785e-06
0.000145299
1.57781e-05
0.000139832
2.18318e-05
0.000132917
2.75979e-05
0.000124624
3.30771e-05
0.000115086
3.80312e-05
0.000104366
4.27063e-05
9.27138e-05
4.64944e-05
8.01289e-05
5.02304e-05
6.68054e-05
5.30664e-05
5.31546e-05
5.44435e-05
3.90239e-05
5.64709e-05
2.47984e-05
5.67641e-05
1.05782e-05
5.65073e-05
-3.30567e-06
5.56866e-05
-1.68542e-05
5.415e-05
-2.98726e-05
5.1956e-05
-4.22946e-05
4.95415e-05
-5.4002e-05
4.68817e-05
-6.49241e-05
4.36335e-05
-7.50648e-05
4.0464e-05
-8.43218e-05
3.71166e-05
-9.27223e-05
3.36562e-05
-0.000100348
3.04494e-05
-0.000107111
2.70707e-05