/*--------------------------------*- C++ -*----------------------------------*\
| =========                 |                                                 |
| \\      /  F ield         | OpenFOAM: The Open Source CFD Toolbox           |
|  \\    /   O peration     | Version:  3.0.1                                 |
|   \\  /    A nd           | Web:      www.OpenFOAM.org                      |
|    \\/     M anipulation  |                                                 |
\*---------------------------------------------------------------------------*/
FoamFile
{
    version     2.0;
    format      ascii;
    class       volVectorField;
    location    "37.6";
    object      U;
}
// * * * * * * * * * * * * * * * * * * * * * * * * * * * * * * * * * * * * * //

dimensions      [0 1 -1 0 0 0 0];

internalField   nonuniform List<vector> 
21420
(
(-0.150535 -8.07255e-05 0)
(-0.149538 -0.000140005 0)
(-0.147822 -0.000200256 0)
(-0.145487 -0.000262297 0)
(-0.142514 -0.000327513 0)
(-0.138875 -0.000394703 0)
(-0.13454 -0.000466529 0)
(-0.129474 -0.000540225 0)
(-0.123639 -0.000616985 0)
(-0.117 -0.000700654 0)
(-0.109525 -0.000783849 0)
(-0.10118 -0.0008692 0)
(-0.0919364 -0.00096397 0)
(-0.0817711 -0.00105303 0)
(-0.0706691 -0.00115315 0)
(-0.0586268 -0.00124261 0)
(-0.0456472 -0.001329 0)
(-0.031749 -0.00142969 0)
(-0.0169705 -0.00150826 0)
(-0.00136282 -0.00157819 0)
(0.0150039 -0.00166538 0)
(0.0320421 -0.00171664 0)
(0.0496277 -0.0017523 0)
(0.067622 -0.00180524 0)
(0.085861 -0.001808 0)
(0.104157 -0.00182469 0)
(0.122309 -0.00178763 0)
(0.140082 -0.00172633 0)
(0.157237 -0.00167188 0)
(0.173546 -0.00156653 0)
(0.18876 -0.0014384 0)
(0.202635 -0.00130533 0)
(0.214958 -0.00113612 0)
(0.225525 -0.000956847 0)
(0.234161 -0.000754724 0)
(0.240733 -0.000539802 0)
(0.245123 -0.000317734 0)
(0.247228 -9.49955e-05 0)
(0.247117 0.000131391 0)
(0.244689 0.000355519 0)
(0.23998 0.000577353 0)
(0.233173 0.000772539 0)
(0.224379 0.000964259 0)
(0.21373 0.00114822 0)
(0.201412 0.00128729 0)
(0.187648 0.00142537 0)
(0.172647 0.00154799 0)
(0.156609 0.00161893 0)
(0.139802 0.00169215 0)
(0.12241 0.00174411 0)
(0.104674 0.00175508 0)
(0.086761 0.00176381 0)
(0.0689049 0.00174279 0)
(0.0512167 0.00171566 0)
(0.0337851 0.00168631 0)
(0.0169284 0.00162271 0)
(0.00111073 0.00156918 0)
(-0.0138933 0.00150537 0)
(-0.028574 0.00142802 0)
(-0.0425481 0.00135374 0)
(-0.0557619 0.00127034 0)
(-0.0682048 0.00119229 0)
(-0.0798374 0.00110993 0)
(-0.0906384 0.0010259 0)
(-0.100656 0.000948384 0)
(-0.109841 0.000865826 0)
(-0.118205 0.000780023 0)
(-0.125773 0.000705446 0)
(-0.132491 0.000620637 0)
(-0.138458 0.000546544 0)
(-0.14363 0.000464827 0)
(-0.147932 0.000387381 0)
(-0.15149 0.000309503 0)
(-0.154244 0.000227792 0)
(-0.156154 0.000144004 0)
(-0.15727 6.65189e-05 0)
(-0.157545 -1.53577e-05 0)
(-0.156981 -9.97071e-05 0)
(-0.155626 -0.000175143 0)
(-0.153408 -0.00026918 0)
(-0.15034 -0.00034781 0)
(-0.146404 -0.000426435 0)
(-0.141677 -0.000519086 0)
(-0.136028 -0.000596032 0)
(-0.129599 -0.000687407 0)
(-0.122275 -0.000763299 0)
(-0.114146 -0.000851679 0)
(-0.105142 -0.000933172 0)
(-0.0953357 -0.00102043 0)
(-0.0846631 -0.00109516 0)
(-0.0732274 -0.0011823 0)
(-0.0609673 -0.00125164 0)
(-0.0478979 -0.0013302 0)
(-0.0341074 -0.00140297 0)
(-0.0196037 -0.00147298 0)
(-0.00439243 -0.00153786 0)
(0.0114648 -0.00159809 0)
(0.0278278 -0.00164851 0)
(0.0446571 -0.00168116 0)
(0.0617666 -0.00170997 0)
(0.0790499 -0.00171573 0)
(0.096337 -0.00171121 0)
(0.113474 -0.00168352 0)
(0.130235 -0.00163663 0)
(0.146432 -0.00156981 0)
(0.161822 -0.00148048 0)
(0.176205 -0.00136734 0)
(0.189328 -0.00123323 0)
(0.200979 -0.00107508 0)
(0.21096 -0.000892603 0)
(0.219034 -0.000702503 0)
(0.225061 -0.000492588 0)
(0.228904 -0.000267585 0)
(0.230433 -3.51309e-05 0)
(0.229636 0.000197128 0)
(0.226299 0.000440989 0)
(0.220623 0.000682668 0)
(0.212643 0.000901177 0)
(0.202477 0.0011144 0)
(0.190266 0.00130595 0)
(0.176227 0.0014733 0)
(0.160591 0.00162063 0)
(0.143628 0.00174382 0)
(0.125613 0.0018295 0)
(0.106787 0.00190261 0)
(0.087423 0.00193766 0)
(0.0677806 0.00195653 0)
(0.0481102 0.00194772 0)
(0.0286466 0.0019147 0)
(0.0095925 0.00186866 0)
(-0.00888783 0.0017971 0)
(-0.026626 0.00171767 0)
(-0.0434645 0.00163273 0)
(-0.0593759 0.0015264 0)
(-0.0742604 0.00142468 0)
(-0.088042 0.0013144 0)
(-0.100738 0.00120279 0)
(-0.112303 0.00109273 0)
(-0.122771 0.000980041 0)
(-0.132141 0.000881946 0)
(-0.140461 0.000775293 0)
(-0.147787 0.000675214 0)
(-0.154086 0.000580221 0)
(-0.159458 0.000484521 0)
(-0.163938 0.000399374 0)
(-0.167553 0.00032278 0)
(-0.170372 0.000240855 0)
(-0.172463 0.000172435 0)
(-0.173828 0.00010168 0)
(-0.174553 4.15763e-05 0)
(-0.174618 -2.76026e-05 0)
(-0.173988 -9.0325e-05 0)
(-0.172743 -0.000158099 0)
(-0.170812 -0.000217951 0)
(-0.168259 -0.000289124 0)
(-0.165041 -0.000348413 0)
(-0.16117 -0.000413691 0)
(-0.156655 -0.000482459 0)
(-0.151438 -0.000546959 0)
(-0.145531 -0.000630868 0)
(-0.138858 -0.000693428 0)
(-0.131418 -0.000783301 0)
(-0.123148 -0.000852995 0)
(-0.114026 -0.000946537 0)
(-0.104063 -0.00103224 0)
(-0.0931818 -0.00111517 0)
(-0.0814855 -0.00120569 0)
(-0.068898 -0.00128545 0)
(-0.0555 -0.00136768 0)
(-0.041341 -0.00144075 0)
(-0.0264774 -0.00150931 0)
(-0.0109352 -0.00157074 0)
(0.00522338 -0.00162922 0)
(0.0219128 -0.00167038 0)
(0.038954 -0.00170201 0)
(0.0561773 -0.00171825 0)
(0.0734618 -0.00170528 0)
(0.0905466 -0.00167941 0)
(0.1072 -0.00162534 0)
(0.123223 -0.00154278 0)
(0.138291 -0.00144124 0)
(0.152182 -0.00131002 0)
(0.164627 -0.00115303 0)
(0.175375 -0.000974992 0)
(0.184202 -0.000778227 0)
(0.19094 -0.000553568 0)
(0.195394 -0.000327483 0)
(0.197445 -8.18929e-05 0)
(0.197099 0.000155681 0)
(0.194211 0.000402116 0)
(0.188908 0.000644048 0)
(0.181288 0.000868627 0)
(0.171496 0.00107229 0)
(0.159741 0.00125573 0)
(0.146229 0.00142436 0)
(0.131219 0.00155481 0)
(0.114962 0.00166564 0)
(0.0977323 0.00174761 0)
(0.0798466 0.00179683 0)
(0.0615735 0.00182383 0)
(0.0431694 0.00182741 0)
(0.0248462 0.00180844 0)
(0.00684442 0.00176543 0)
(-0.0106656 0.00170644 0)
(-0.0274927 0.00163666 0)
(-0.043561 0.00155256 0)
(-0.0587922 0.00146833 0)
(-0.0730808 0.00137183 0)
(-0.0864249 0.00127732 0)
(-0.0988098 0.00118166 0)
(-0.110213 0.00108129 0)
(-0.120618 0.000979945 0)
(-0.130049 0.000888707 0)
(-0.13851 0.000792734 0)
(-0.146054 0.000704843 0)
(-0.152735 0.000621359 0)
(-0.158587 0.000543257 0)
(-0.163691 0.000472246 0)
(-0.16808 0.000396823 0)
(-0.171781 0.000335438 0)
(-0.17476 0.000260613 0)
(-0.177071 0.000193597 0)
(-0.178724 0.000132447 0)
(-0.179707 6.7227e-05 0)
(-0.180108 1.19732e-05 0)
(-0.179897 -5.62415e-05 0)
(-0.179019 -0.000111037 0)
(-0.177537 -0.00017715 0)
(-0.175422 -0.000243395 0)
(-0.172616 -0.000310714 0)
(-0.169145 -0.000377658 0)
(-0.164961 -0.00045015 0)
(-0.16007 -0.00052477 0)
(-0.154424 -0.000591901 0)
(-0.148015 -0.000670662 0)
(-0.140855 -0.000748657 0)
(-0.132877 -0.000829216 0)
(-0.124093 -0.000910848 0)
(-0.114482 -0.000991638 0)
(-0.104053 -0.0010796 0)
(-0.0927888 -0.0011545 0)
(-0.0807256 -0.00124695 0)
(-0.0677885 -0.001317 0)
(-0.0540452 -0.00139861 0)
(-0.0395577 -0.00147166 0)
(-0.0243815 -0.00153492 0)
(-0.0085949 -0.00158945 0)
(0.00766578 -0.00162975 0)
(0.0242476 -0.00165714 0)
(0.0409941 -0.00166353 0)
(0.0577278 -0.00165572 0)
(0.0743038 -0.00162731 0)
(0.0905109 -0.00158156 0)
(0.106139 -0.00151262 0)
(0.120932 -0.00142142 0)
(0.134686 -0.00130337 0)
(0.147145 -0.00115953 0)
(0.158055 -0.00100046 0)
(0.167237 -0.000817396 0)
(0.174466 -0.000615335 0)
(0.179598 -0.00040068 0)
(0.182492 -0.000172214 0)
(0.183087 5.59732e-05 0)
(0.181361 0.000293283 0)
(0.177183 0.000531282 0)
(0.170773 0.000747151 0)
(0.162201 0.000954563 0)
(0.151649 0.00114244 0)
(0.139403 0.00130128 0)
(0.125578 0.00143576 0)
(0.110552 0.00155205 0)
(0.0946487 0.00162239 0)
(0.077971 0.00168114 0)
(0.061005 0.00169754 0)
(0.0438243 0.00170713 0)
(0.0267651 0.00167859 0)
(0.0102342 0.00163209 0)
(-0.00571002 0.00158639 0)
(-0.0210429 0.00151724 0)
(-0.0357537 0.00143462 0)
(-0.0496211 0.00135549 0)
(-0.0626309 0.00126379 0)
(-0.0748476 0.00117983 0)
(-0.0861539 0.00108746 0)
(-0.0965607 0.00100051 0)
(-0.1062 0.0009203 0)
(-0.114991 0.000833539 0)
(-0.12294 0.000750199 0)
(-0.13011 0.000670883 0)
(-0.136501 0.000589572 0)
(-0.142136 0.000520707 0)
(-0.146996 0.0004464 0)
(-0.151119 0.000370221 0)
(-0.154563 0.000308385 0)
(-0.157347 0.000244189 0)
(-0.159499 0.000180671 0)
(-0.161059 0.000127459 0)
(-0.162027 7.14242e-05 0)
(-0.16249 1.94468e-05 0)
(-0.162424 -3.2699e-05 0)
(-0.161779 -8.77062e-05 0)
(-0.160661 -0.000137305 0)
(-0.158988 -0.000191519 0)
(-0.156729 -0.000248939 0)
(-0.153923 -0.00030795 0)
(-0.150484 -0.000368399 0)
(-0.146373 -0.000439379 0)
(-0.141569 -0.000510036 0)
(-0.135986 -0.000591418 0)
(-0.129623 -0.000668784 0)
(-0.122427 -0.000752876 0)
(-0.114308 -0.000848901 0)
(-0.105289 -0.000936453 0)
(-0.0953424 -0.00102603 0)
(-0.0843936 -0.00113042 0)
(-0.0725192 -0.00121839 0)
(-0.0597011 -0.00132157 0)
(-0.0459062 -0.00139787 0)
(-0.0313858 -0.0014709 0)
(-0.0161259 -0.00155322 0)
(-0.000219505 -0.00160749 0)
(0.0161426 -0.00163818 0)
(0.0329347 -0.00168412 0)
(0.0499326 -0.00168333 0)
(0.0669359 -0.00169187 0)
(0.0837483 -0.00165188 0)
(0.100138 -0.00158911 0)
(0.115882 -0.00152961 0)
(0.130771 -0.00142569 0)
(0.144576 -0.00130145 0)
(0.157084 -0.00117262 0)
(0.168111 -0.00101258 0)
(0.177478 -0.000838347 0)
(0.185034 -0.000655513 0)
(0.190666 -0.000458438 0)
(0.194294 -0.000255465 0)
(0.195837 -5.14647e-05 0)
(0.195334 0.000154291 0)
(0.192703 0.000359417 0)
(0.188032 0.000558996 0)
(0.181445 0.000749588 0)
(0.173041 0.000916193 0)
(0.162969 0.0010789 0)
(0.1514 0.00120745 0)
(0.138522 0.00133397 0)
(0.12453 0.00144331 0)
(0.109631 0.0015077 0)
(0.0940327 0.00157637 0)
(0.0779302 0.00162633 0)
(0.0615183 0.00163072 0)
(0.044976 0.00164364 0)
(0.0284436 0.00161428 0)
(0.0113936 0.00159602 0)
(-0.00464791 0.00157757 0)
(-0.0195236 0.00151304 0)
(-0.0344924 0.00145828 0)
(-0.0504573 0.00139378 0)
(-0.150558 -0.000242075 0)
(-0.149562 -0.000419965 0)
(-0.147846 -0.000600694 0)
(-0.145512 -0.000786801 0)
(-0.14254 -0.000982441 0)
(-0.138903 -0.001184 0)
(-0.134569 -0.00139945 0)
(-0.129504 -0.00162054 0)
(-0.123671 -0.00185081 0)
(-0.117034 -0.00210182 0)
(-0.10956 -0.00235142 0)
(-0.101216 -0.00260748 0)
(-0.0919734 -0.00289181 0)
(-0.0818086 -0.00315902 0)
(-0.0707074 -0.00345942 0)
(-0.0586648 -0.00372781 0)
(-0.0456843 -0.0039871 0)
(-0.0317854 -0.00428923 0)
(-0.0170047 -0.004525 0)
(-0.00139409 -0.00473484 0)
(0.0149756 -0.00499654 0)
(0.0320185 -0.00515039 0)
(0.0496096 -0.00525749 0)
(0.06761 -0.00541642 0)
(0.0858563 -0.00542476 0)
(0.10416 -0.00547495 0)
(0.122321 -0.00536383 0)
(0.140103 -0.00517994 0)
(0.157269 -0.00501667 0)
(0.173587 -0.00470062 0)
(0.188809 -0.00431615 0)
(0.202695 -0.00391701 0)
(0.215025 -0.00340901 0)
(0.2256 -0.00287157 0)
(0.234243 -0.00226369 0)
(0.240817 -0.00162268 0)
(0.245211 -0.00095774 0)
(0.247329 -0.000278924 0)
(0.247212 0.000394412 0)
(0.244771 0.00106684 0)
(0.240067 0.00173191 0)
(0.233255 0.00231807 0)
(0.224456 0.00289326 0)
(0.213802 0.00344532 0)
(0.201476 0.00386261 0)
(0.187704 0.0042769 0)
(0.172695 0.00464481 0)
(0.156649 0.00485758 0)
(0.139834 0.00507727 0)
(0.122434 0.00523312 0)
(0.104691 0.00526603 0)
(0.0867711 0.00529211 0)
(0.0689085 0.00522924 0)
(0.0512149 0.0051471 0)
(0.0337783 0.0050589 0)
(0.0169164 0.00486813 0)
(0.00109585 0.00470921 0)
(-0.0139125 0.00451666 0)
(-0.0285961 0.00428504 0)
(-0.0425738 0.00406151 0)
(-0.0557899 0.00381166 0)
(-0.0682356 0.00357761 0)
(-0.079871 0.00333012 0)
(-0.0906736 0.00307816 0)
(-0.100694 0.00284585 0)
(-0.109882 0.00259771 0)
(-0.118248 0.00234048 0)
(-0.125818 0.00211601 0)
(-0.132538 0.00186403 0)
(-0.138507 0.00163902 0)
(-0.143679 0.00139593 0)
(-0.147987 0.00116193 0)
(-0.151548 0.000925584 0)
(-0.154297 0.000687519 0)
(-0.156213 0.000434472 0)
(-0.157331 0.00019871 0)
(-0.157605 -4.30652e-05 0)
(-0.157051 -0.000307633 0)
(-0.155681 -0.00052151 0)
(-0.153469 -0.0008081 0)
(-0.150399 -0.00103778 0)
(-0.146473 -0.00128649 0)
(-0.141739 -0.00155923 0)
(-0.136089 -0.00178979 0)
(-0.129653 -0.00205273 0)
(-0.122347 -0.00230707 0)
(-0.114198 -0.00255046 0)
(-0.10521 -0.00280341 0)
(-0.0953948 -0.00305996 0)
(-0.0847209 -0.00328875 0)
(-0.0732873 -0.00354146 0)
(-0.0610291 -0.00375481 0)
(-0.0479583 -0.00399203 0)
(-0.0341846 -0.00421916 0)
(-0.0196672 -0.0044189 0)
(-0.00445694 -0.00461345 0)
(0.0114065 -0.00479555 0)
(0.0277861 -0.00494681 0)
(0.0445986 -0.00505918 0)
(0.0617393 -0.00512635 0)
(0.0790148 -0.00515753 0)
(0.0963274 -0.00513559 0)
(0.113466 -0.00504896 0)
(0.130238 -0.00492291 0)
(0.146457 -0.00471146 0)
(0.161865 -0.00444346 0)
(0.176266 -0.00410323 0)
(0.1894 -0.00370372 0)
(0.201063 -0.00322598 0)
(0.211028 -0.00269907 0)
(0.219133 -0.00210783 0)
(0.225168 -0.00148191 0)
(0.229017 -0.000801112 0)
(0.23055 -0.000119964 0)
(0.229756 0.000596375 0)
(0.226417 0.00133368 0)
(0.220738 0.0020447 0)
(0.212751 0.00270285 0)
(0.202573 0.00334233 0)
(0.190357 0.00391882 0)
(0.176301 0.00442582 0)
(0.160638 0.00485757 0)
(0.14367 0.00522996 0)
(0.125643 0.00550283 0)
(0.106793 0.00570284 0)
(0.0874201 0.00581951 0)
(0.0677561 0.00586445 0)
(0.0480718 0.00583864 0)
(0.0285942 0.00575142 0)
(0.00952855 0.00559943 0)
(-0.00895857 0.00539333 0)
(-0.0267059 0.00515056 0)
(-0.0435574 0.00489692 0)
(-0.0594738 0.00458587 0)
(-0.0743686 0.00427734 0)
(-0.0881614 0.00393371 0)
(-0.100847 0.00360794 0)
(-0.112417 0.0032836 0)
(-0.122882 0.0029411 0)
(-0.13225 0.00265516 0)
(-0.140578 0.00231796 0)
(-0.147902 0.00202882 0)
(-0.154209 0.00173675 0)
(-0.159585 0.00145142 0)
(-0.164063 0.00119202 0)
(-0.167671 0.000976065 0)
(-0.1705 0.000722573 0)
(-0.172581 0.000514499 0)
(-0.173945 0.000305497 0)
(-0.174667 0.000125766 0)
(-0.174732 -8.75055e-05 0)
(-0.174111 -0.000271077 0)
(-0.172859 -0.000472886 0)
(-0.170941 -0.00066561 0)
(-0.168362 -0.000860938 0)
(-0.16516 -0.00104825 0)
(-0.1613 -0.00125154 0)
(-0.156774 -0.00145083 0)
(-0.15157 -0.0016496 0)
(-0.145638 -0.0018784 0)
(-0.138972 -0.00208216 0)
(-0.131522 -0.00235122 0)
(-0.123259 -0.0025607 0)
(-0.114133 -0.00284537 0)
(-0.10416 -0.00309136 0)
(-0.0932929 -0.00335846 0)
(-0.0815749 -0.00361173 0)
(-0.0690034 -0.00386642 0)
(-0.0555911 -0.00410533 0)
(-0.0414232 -0.00431963 0)
(-0.0265506 -0.00452985 0)
(-0.0110029 -0.00471334 0)
(0.00515635 -0.0048935 0)
(0.021855 -0.00501769 0)
(0.0388979 -0.00511541 0)
(0.0561473 -0.00515371 0)
(0.0734463 -0.00511635 0)
(0.0905415 -0.00504364 0)
(0.10722 -0.0048806 0)
(0.123247 -0.00463707 0)
(0.138345 -0.00432186 0)
(0.152238 -0.00393443 0)
(0.164697 -0.00346545 0)
(0.175458 -0.00292926 0)
(0.184302 -0.00233362 0)
(0.191047 -0.00166435 0)
(0.195508 -0.00097173 0)
(0.197556 -0.000259817 0)
(0.197206 0.000464684 0)
(0.194319 0.00120723 0)
(0.189015 0.00193846 0)
(0.181382 0.00259568 0)
(0.171588 0.00321857 0)
(0.159817 0.00377326 0)
(0.146282 0.00426209 0)
(0.131264 0.00466707 0)
(0.114986 0.00499836 0)
(0.097746 0.00523458 0)
(0.0798562 0.00540888 0)
(0.061558 0.00547944 0)
(0.0431395 0.00548102 0)
(0.0248006 0.00542485 0)
(0.0067803 0.00528633 0)
(-0.0107288 0.00511985 0)
(-0.0275641 0.00491962 0)
(-0.0436425 0.00465824 0)
(-0.0588792 0.00440544 0)
(-0.0731764 0.00411576 0)
(-0.0865267 0.00383273 0)
(-0.0989188 0.00353932 0)
(-0.110318 0.00324355 0)
(-0.120725 0.00295121 0)
(-0.130158 0.00266159 0)
(-0.138615 0.00238422 0)
(-0.146167 0.00211204 0)
(-0.15285 0.00186263 0)
(-0.158704 0.00162341 0)
(-0.163799 0.00141541 0)
(-0.16819 0.00119649 0)
(-0.171896 0.000997471 0)
(-0.174869 0.000782801 0)
(-0.177175 0.000596899 0)
(-0.178839 0.000391209 0)
(-0.179821 0.000204994 0)
(-0.180229 3.14237e-05 0)
(-0.180016 -0.000173214 0)
(-0.179134 -0.000334267 0)
(-0.177651 -0.000529871 0)
(-0.175539 -0.000728949 0)
(-0.172736 -0.000928074 0)
(-0.16927 -0.0011449 0)
(-0.165072 -0.00134696 0)
(-0.160186 -0.0015744 0)
(-0.154535 -0.00177738 0)
(-0.148129 -0.00201865 0)
(-0.140964 -0.00224611 0)
(-0.132987 -0.00249302 0)
(-0.124206 -0.00273935 0)
(-0.114581 -0.00297709 0)
(-0.10415 -0.0032304 0)
(-0.0928898 -0.00347048 0)
(-0.0808102 -0.00373522 0)
(-0.0678827 -0.00395777 0)
(-0.0541213 -0.00419561 0)
(-0.0396435 -0.00442156 0)
(-0.0244543 -0.0046127 0)
(-0.00865959 -0.00476894 0)
(0.00761304 -0.00489593 0)
(0.0242122 -0.00496715 0)
(0.0409604 -0.0049943 0)
(0.0577054 -0.00496772 0)
(0.0742788 -0.0048992 0)
(0.0905221 -0.00474267 0)
(0.106155 -0.00454336 0)
(0.120968 -0.00426922 0)
(0.134743 -0.00390221 0)
(0.147195 -0.00349478 0)
(0.158132 -0.00300147 0)
(0.167318 -0.00244963 0)
(0.174558 -0.00184978 0)
(0.179695 -0.0012027 0)
(0.182593 -0.000520264 0)
(0.18319 0.000166381 0)
(0.181445 0.000880958 0)
(0.17727 0.00158829 0)
(0.170856 0.00224405 0)
(0.162283 0.00286061 0)
(0.151717 0.00343315 0)
(0.139454 0.00390276 0)
(0.125628 0.00430837 0)
(0.110589 0.00465903 0)
(0.0946711 0.00486649 0)
(0.0779846 0.00504652 0)
(0.061005 0.00509048 0)
(0.04382 0.00512021 0)
(0.0267486 0.00504087 0)
(0.0102098 0.00489925 0)
(-0.00573543 0.00476037 0)
(-0.021082 0.00455119 0)
(-0.0357901 0.00430527 0)
(-0.0496608 0.0040704 0)
(-0.0626758 0.00379098 0)
(-0.0748915 0.00353982 0)
(-0.0861959 0.00326319 0)
(-0.0966043 0.00300117 0)
(-0.106244 0.00276192 0)
(-0.115033 0.00250041 0)
(-0.122981 0.00225105 0)
(-0.13015 0.00201276 0)
(-0.136538 0.00176968 0)
(-0.142176 0.0015625 0)
(-0.147036 0.00133815 0)
(-0.151155 0.00110939 0)
(-0.154596 0.000925996 0)
(-0.15738 0.000731433 0)
(-0.159531 0.000540984 0)
(-0.161088 0.000381111 0)
(-0.162055 0.000216872 0)
(-0.16252 5.84724e-05 0)
(-0.162451 -9.85129e-05 0)
(-0.161807 -0.000262718 0)
(-0.160689 -0.00041208 0)
(-0.159016 -0.000574111 0)
(-0.156759 -0.000746688 0)
(-0.153954 -0.000923731 0)
(-0.150515 -0.00110456 0)
(-0.146407 -0.00131876 0)
(-0.141605 -0.00152958 0)
(-0.136024 -0.00177398 0)
(-0.129662 -0.00200627 0)
(-0.122467 -0.00225827 0)
(-0.11435 -0.0025465 0)
(-0.105332 -0.00280929 0)
(-0.0953852 -0.00307795 0)
(-0.0844367 -0.0033912 0)
(-0.0725612 -0.00365526 0)
(-0.0597412 -0.00396488 0)
(-0.0459443 -0.00419377 0)
(-0.0314201 -0.00441321 0)
(-0.0161566 -0.00466106 0)
(-0.000244941 -0.0048219 0)
(0.0161243 -0.00491501 0)
(0.0329231 -0.00505308 0)
(0.0499285 -0.00505077 0)
(0.0669405 -0.00507644 0)
(0.0837616 -0.00495653 0)
(0.10016 -0.00476826 0)
(0.115914 -0.00458972 0)
(0.130811 -0.00427798 0)
(0.144624 -0.00390522 0)
(0.157142 -0.00351869 0)
(0.168175 -0.00303846 0)
(0.177548 -0.00251569 0)
(0.18511 -0.00196703 0)
(0.190745 -0.00137529 0)
(0.194375 -0.000766179 0)
(0.195921 -0.000155082 0)
(0.195418 0.000463074 0)
(0.19278 0.00107858 0)
(0.188108 0.00167729 0)
(0.181517 0.00224925 0)
(0.173107 0.00274915 0)
(0.163029 0.00323737 0)
(0.151452 0.00362308 0)
(0.138567 0.00400268 0)
(0.124567 0.00433073 0)
(0.10966 0.00452388 0)
(0.0940533 0.00472989 0)
(0.0779432 0.00487977 0)
(0.0615239 0.00489287 0)
(0.0449746 0.00493158 0)
(0.0284362 0.00484339 0)
(0.0113833 0.00478815 0)
(-0.00466311 0.00473362 0)
(-0.0195454 0.00453951 0)
(-0.0345182 0.00437515 0)
(-0.0504868 0.00418161 0)
(-0.150604 -0.000403249 0)
(-0.149609 -0.00069975 0)
(-0.147895 -0.00100089 0)
(-0.145563 -0.00131102 0)
(-0.142593 -0.00163703 0)
(-0.138958 -0.00197292 0)
(-0.134627 -0.00233196 0)
(-0.129564 -0.00270045 0)
(-0.123734 -0.00308419 0)
(-0.1171 -0.00350259 0)
(-0.109629 -0.00391863 0)
(-0.101286 -0.00434546 0)
(-0.0920462 -0.00481941 0)
(-0.0818821 -0.00526487 0)
(-0.0707823 -0.00576568 0)
(-0.0587388 -0.00621313 0)
(-0.0457562 -0.00664546 0)
(-0.0318558 -0.00714924 0)
(-0.0170703 -0.00754237 0)
(-0.00145362 -0.00789253 0)
(0.0149222 -0.00832897 0)
(0.0319748 -0.00858565 0)
(0.0495773 -0.00876445 0)
(0.0675904 -0.00902971 0)
(0.0858514 -0.00904383 0)
(0.104172 -0.00912782 0)
(0.12235 -0.00894273 0)
(0.14015 -0.0086363 0)
(0.157336 -0.00836438 0)
(0.173673 -0.00783751 0)
(0.188912 -0.00719664 0)
(0.202818 -0.00653106 0)
(0.215163 -0.00568461 0)
(0.225755 -0.00478737 0)
(0.234407 -0.00377604 0)
(0.240991 -0.00270342 0)
(0.245391 -0.00159562 0)
(0.247519 -0.000465291 0)
(0.247393 0.000655204 0)
(0.244931 0.00177923 0)
(0.240233 0.0028868 0)
(0.233411 0.00386532 0)
(0.224599 0.00482427 0)
(0.213931 0.00574484 0)
(0.201588 0.00644051 0)
(0.1878 0.00713105 0)
(0.172773 0.00774429 0)
(0.156709 0.00809877 0)
(0.139876 0.00846489 0)
(0.12246 0.00872443 0)
(0.104701 0.00877917 0)
(0.0867672 0.00882211 0)
(0.0688912 0.0087176 0)
(0.0511874 0.0085789 0)
(0.033742 0.0084301 0)
(0.0168714 0.00811635 0)
(0.0010466 0.00785151 0)
(-0.0139683 0.00752906 0)
(-0.0286558 0.00714235 0)
(-0.042636 0.00677014 0)
(-0.0558536 0.00635372 0)
(-0.0683007 0.00596256 0)
(-0.0799357 0.00555145 0)
(-0.0907374 0.00513166 0)
(-0.100758 0.004742 0)
(-0.109947 0.00433119 0)
(-0.11831 0.00390144 0)
(-0.125881 0.00352703 0)
(-0.132601 0.0031051 0)
(-0.13857 0.0027331 0)
(-0.143741 0.00232997 0)
(-0.148049 0.00193406 0)
(-0.151611 0.00154606 0)
(-0.154362 0.00114437 0)
(-0.156286 0.000722833 0)
(-0.157404 0.000330465 0)
(-0.157675 -7.43725e-05 0)
(-0.157115 -0.000507441 0)
(-0.155756 -0.000876008 0)
(-0.153539 -0.00134802 0)
(-0.150469 -0.0017313 0)
(-0.14655 -0.00214197 0)
(-0.141812 -0.00259582 0)
(-0.136172 -0.0029894 0)
(-0.129738 -0.00342243 0)
(-0.122423 -0.00383464 0)
(-0.114289 -0.00425508 0)
(-0.105302 -0.00467421 0)
(-0.0954852 -0.00509551 0)
(-0.0848153 -0.00548503 0)
(-0.0733867 -0.00591289 0)
(-0.0611243 -0.00625331 0)
(-0.0480675 -0.00665616 0)
(-0.0342877 -0.00702527 0)
(-0.0197748 -0.00736557 0)
(-0.00457029 -0.00770035 0)
(0.0113016 -0.00798849 0)
(0.0276819 -0.00825349 0)
(0.0445155 -0.00842113 0)
(0.0616591 -0.00855162 0)
(0.0789518 -0.00858997 0)
(0.0962676 -0.00856015 0)
(0.113409 -0.00842945 0)
(0.13021 -0.00819764 0)
(0.14644 -0.00786385 0)
(0.161878 -0.00740674 0)
(0.176292 -0.00684941 0)
(0.189455 -0.00617036 0)
(0.201133 -0.00538654 0)
(0.21112 -0.00448779 0)
(0.21923 -0.00351878 0)
(0.22528 -0.00247209 0)
(0.22914 -0.00133955 0)
(0.230684 -0.000185651 0)
(0.229863 0.000992811 0)
(0.226526 0.00221195 0)
(0.220858 0.00341156 0)
(0.212865 0.00451437 0)
(0.202672 0.00556924 0)
(0.190436 0.00653655 0)
(0.176358 0.00738112 0)
(0.160677 0.00810076 0)
(0.143683 0.00872386 0)
(0.125635 0.00916891 0)
(0.10676 0.00951164 0)
(0.0873679 0.00969795 0)
(0.0676958 0.00978679 0)
(0.0479848 0.00974033 0)
(0.0284878 0.00958129 0)
(0.00940775 0.00934037 0)
(-0.00909434 0.00898802 0)
(-0.0268416 0.0085927 0)
(-0.0437127 0.00816889 0)
(-0.0596414 0.00763872 0)
(-0.0745355 0.00712874 0)
(-0.0883254 0.00656037 0)
(-0.101015 0.00602035 0)
(-0.11259 0.0054645 0)
(-0.123052 0.00490815 0)
(-0.132422 0.00441153 0)
(-0.140742 0.00386574 0)
(-0.148062 0.00338473 0)
(-0.154374 0.00289347 0)
(-0.159745 0.00242227 0)
(-0.164217 0.00198482 0)
(-0.167829 0.00162648 0)
(-0.170652 0.00120425 0)
(-0.172726 0.000857639 0)
(-0.17409 0.000509044 0)
(-0.174817 0.000193506 0)
(-0.174871 -0.000127568 0)
(-0.17426 -0.000462338 0)
(-0.173005 -0.000785724 0)
(-0.171076 -0.00110743 0)
(-0.1685 -0.00143702 0)
(-0.1653 -0.00174742 0)
(-0.161441 -0.00207527 0)
(-0.156917 -0.00242174 0)
(-0.151716 -0.00273547 0)
(-0.145797 -0.0031477 0)
(-0.139116 -0.00346837 0)
(-0.131666 -0.00392217 0)
(-0.123399 -0.00426726 0)
(-0.114278 -0.00474484 0)
(-0.104308 -0.00515433 0)
(-0.0934289 -0.00559195 0)
(-0.0817216 -0.0060188 0)
(-0.0691503 -0.00644114 0)
(-0.0557363 -0.00684282 0)
(-0.041561 -0.00721016 0)
(-0.0266714 -0.00754396 0)
(-0.0111302 -0.00786686 0)
(0.00504437 -0.00814643 0)
(0.0217438 -0.00836597 0)
(0.038795 -0.00852601 0)
(0.0560644 -0.00859238 0)
(0.0733763 -0.00853816 0)
(0.0904971 -0.00840376 0)
(0.107195 -0.00814174 0)
(0.123246 -0.0077286 0)
(0.138361 -0.00721172 0)
(0.152279 -0.00655923 0)
(0.164762 -0.00577461 0)
(0.175531 -0.00488933 0)
(0.184401 -0.00389104 0)
(0.191157 -0.00278052 0)
(0.195627 -0.00162808 0)
(0.197691 -0.000418751 0)
(0.197322 0.000773749 0)
(0.194431 0.0020156 0)
(0.189127 0.00322632 0)
(0.181489 0.00433296 0)
(0.17168 0.00537172 0)
(0.159887 0.00628788 0)
(0.146335 0.00711126 0)
(0.131292 0.00779005 0)
(0.114993 0.00832949 0)
(0.0977364 0.00873648 0)
(0.0798129 0.00901353 0)
(0.0614914 0.00913003 0)
(0.0430586 0.00913844 0)
(0.0247068 0.00904781 0)
(0.00667216 0.00882146 0)
(-0.0108491 0.00853734 0)
(-0.0277042 0.00819981 0)
(-0.0437858 0.00776315 0)
(-0.0590276 0.00734263 0)
(-0.0733284 0.00686222 0)
(-0.0866787 0.00638531 0)
(-0.0990703 0.00590259 0)
(-0.110477 0.00540956 0)
(-0.120889 0.00491076 0)
(-0.130316 0.00443629 0)
(-0.138774 0.00397149 0)
(-0.146319 0.00352132 0)
(-0.152999 0.00310836 0)
(-0.158845 0.00270637 0)
(-0.163939 0.00236366 0)
(-0.168324 0.00198542 0)
(-0.172028 0.00167354 0)
(-0.175012 0.00130338 0)
(-0.177314 0.000983834 0)
(-0.178972 0.000658975 0)
(-0.179957 0.000339001 0)
(-0.180362 5.8874e-05 0)
(-0.180152 -0.000294202 0)
(-0.179263 -0.000550344 0)
(-0.177794 -0.000887564 0)
(-0.175682 -0.00121171 0)
(-0.172884 -0.0015586 0)
(-0.16941 -0.0018956 0)
(-0.165222 -0.002249 0)
(-0.16033 -0.00263341 0)
(-0.154667 -0.00295123 0)
(-0.148263 -0.00336185 0)
(-0.141097 -0.00374734 0)
(-0.133124 -0.00414869 0)
(-0.124339 -0.00456199 0)
(-0.114716 -0.00496169 0)
(-0.10429 -0.00539052 0)
(-0.0930295 -0.00578175 0)
(-0.0809575 -0.00623199 0)
(-0.0680171 -0.00659436 0)
(-0.0542573 -0.00699378 0)
(-0.0397724 -0.00737139 0)
(-0.0245759 -0.00768525 0)
(-0.0087809 -0.00795588 0)
(0.00750623 -0.00815504 0)
(0.0241125 -0.00829147 0)
(0.0408802 -0.00831836 0)
(0.057634 -0.00828828 0)
(0.0742374 -0.00815984 0)
(0.0904986 -0.00790938 0)
(0.106145 -0.00757732 0)
(0.120983 -0.00711443 0)
(0.13477 -0.00651622 0)
(0.147243 -0.00581754 0)
(0.158195 -0.00500675 0)
(0.167397 -0.00409206 0)
(0.174656 -0.003079 0)
(0.179803 -0.00200376 0)
(0.182709 -0.000869898 0)
(0.18331 0.000282011 0)
(0.181551 0.00147101 0)
(0.177382 0.00264864 0)
(0.170969 0.00373984 0)
(0.162386 0.00477387 0)
(0.151807 0.00572348 0)
(0.139526 0.00651215 0)
(0.125689 0.00718536 0)
(0.110633 0.00776699 0)
(0.0946933 0.00811497 0)
(0.0779953 0.00841163 0)
(0.0609991 0.00849156 0)
(0.0438003 0.00853355 0)
(0.0267058 0.00840735 0)
(0.0101538 0.00816512 0)
(-0.00578753 0.00793803 0)
(-0.0211539 0.00758821 0)
(-0.0358619 0.00717607 0)
(-0.0497356 0.00678556 0)
(-0.062754 0.00631992 0)
(-0.0749703 0.00589734 0)
(-0.0862686 0.00543955 0)
(-0.0966743 0.00500409 0)
(-0.106315 0.00460098 0)
(-0.115102 0.00416788 0)
(-0.123049 0.00375123 0)
(-0.130216 0.00335421 0)
(-0.136599 0.00294883 0)
(-0.142234 0.00260392 0)
(-0.147097 0.00222812 0)
(-0.151209 0.00185004 0)
(-0.154646 0.00154587 0)
(-0.157431 0.0012178 0)
(-0.159577 0.000905086 0)
(-0.161131 0.000641493 0)
(-0.162102 0.000364359 0)
(-0.162561 9.33174e-05 0)
(-0.162493 -0.000163264 0)
(-0.161849 -0.00043778 0)
(-0.160731 -0.000687008 0)
(-0.15906 -0.000956452 0)
(-0.156806 -0.00124405 0)
(-0.154003 -0.00153836 0)
(-0.150566 -0.00184002 0)
(-0.146463 -0.00219858 0)
(-0.141664 -0.00254827 0)
(-0.136087 -0.00295604 0)
(-0.129729 -0.00334352 0)
(-0.122537 -0.00376311 0)
(-0.114423 -0.00424375 0)
(-0.105407 -0.00468208 0)
(-0.0954599 -0.00512977 0)
(-0.0845124 -0.00565198 0)
(-0.0726349 -0.00609259 0)
(-0.0598113 -0.00660878 0)
(-0.0460106 -0.00699012 0)
(-0.0314793 -0.00735718 0)
(-0.0162087 -0.00777141 0)
(-0.000287016 -0.00803661 0)
(0.0160959 -0.00819356 0)
(0.0329076 -0.00842414 0)
(0.0499276 -0.0084205 0)
(0.0669564 -0.0084635 0)
(0.0837942 -0.00826375 0)
(0.100209 -0.00794998 0)
(0.115982 -0.00765241 0)
(0.130896 -0.00713278 0)
(0.144724 -0.00651134 0)
(0.157259 -0.00586695 0)
(0.168305 -0.00506628 0)
(0.177689 -0.00419465 0)
(0.185262 -0.00327977 0)
(0.190903 -0.00229333 0)
(0.194536 -0.00127711 0)
(0.196091 -0.000254598 0)
(0.195584 0.00077065 0)
(0.192935 0.00179891 0)
(0.188261 0.00279671 0)
(0.181662 0.00375053 0)
(0.173238 0.00458397 0)
(0.163148 0.00539796 0)
(0.151554 0.00604097 0)
(0.138654 0.00667376 0)
(0.124639 0.0072206 0)
(0.109714 0.00754244 0)
(0.0940927 0.00788574 0)
(0.0779675 0.00813549 0)
(0.0615333 0.00815712 0)
(0.0449703 0.00822153 0)
(0.0284199 0.00807415 0)
(0.0113617 0.00798028 0)
(-0.00469445 0.00789261 0)
(-0.0195902 0.0075672 0)
(-0.0345709 0.00729294 0)
(-0.0505463 0.00697022 0)
(-0.150674 -0.000564289 0)
(-0.14968 -0.00097927 0)
(-0.147967 -0.00140073 0)
(-0.145638 -0.00183477 0)
(-0.142671 -0.00229105 0)
(-0.13904 -0.00276123 0)
(-0.134713 -0.00326377 0)
(-0.129655 -0.00377968 0)
(-0.123828 -0.00431683 0)
(-0.117199 -0.0049027 0)
(-0.109731 -0.00548523 0)
(-0.101392 -0.0060829 0)
(-0.0921554 -0.00674665 0)
(-0.0819925 -0.00737051 0)
(-0.0708947 -0.00807193 0)
(-0.0588498 -0.00869873 0)
(-0.0458642 -0.00930424 0)
(-0.0319614 -0.01001 0)
(-0.0171688 -0.0105606 0)
(-0.00154304 -0.0110521 0)
(0.0148421 -0.0116635 0)
(0.0319092 -0.0120234 0)
(0.0495286 -0.0122744 0)
(0.0675607 -0.0126465 0)
(0.0858439 -0.0126667 0)
(0.10419 -0.012785 0)
(0.122394 -0.0125262 0)
(0.14022 -0.0120973 0)
(0.157438 -0.011717 0)
(0.173802 -0.0109792 0)
(0.189067 -0.0100815 0)
(0.203003 -0.00914963 0)
(0.21537 -0.0079636 0)
(0.225986 -0.00670769 0)
(0.234655 -0.00528926 0)
(0.241252 -0.00379014 0)
(0.245663 -0.002241 0)
(0.247803 -0.000659578 0)
(0.247653 0.000936894 0)
(0.245178 0.00249405 0)
(0.240483 0.00404266 0)
(0.233643 0.00541471 0)
(0.224814 0.00675859 0)
(0.214126 0.00804828 0)
(0.201756 0.00902265 0)
(0.187943 0.00998954 0)
(0.17289 0.0108482 0)
(0.156799 0.0113442 0)
(0.139939 0.0118568 0)
(0.122499 0.0122197 0)
(0.104716 0.0122962 0)
(0.0867608 0.0123549 0)
(0.0688648 0.0122093 0)
(0.0511451 0.0120119 0)
(0.0336873 0.0118016 0)
(0.0168041 0.0113688 0)
(0.000971623 0.0109962 0)
(-0.0140527 0.0105424 0)
(-0.0287449 0.0100013 0)
(-0.0427306 0.00947907 0)
(-0.0559492 0.00889626 0)
(-0.0683978 0.00834925 0)
(-0.0800349 0.00777264 0)
(-0.0908335 0.00718429 0)
(-0.100854 0.00663979 0)
(-0.110046 0.00606294 0)
(-0.118403 0.00546236 0)
(-0.125978 0.00493813 0)
(-0.132697 0.00434754 0)
(-0.138665 0.00382334 0)
(-0.143836 0.00326673 0)
(-0.148143 0.00270441 0)
(-0.151708 0.00216362 0)
(-0.154465 0.001604 0)