/*--------------------------------*- C++ -*----------------------------------*\
| =========                 |                                                 |
| \\      /  F ield         | OpenFOAM: The Open Source CFD Toolbox           |
|  \\    /   O peration     | Version:  3.0.1                                 |
|   \\  /    A nd           | Web:      www.OpenFOAM.org                      |
|    \\/     M anipulation  |                                                 |
\*---------------------------------------------------------------------------*/
FoamFile
{
    version     2.0;
    format      ascii;
    class       surfaceScalarField;
    location    "47.6";
    object      phi;
}
// * * * * * * * * * * * * * * * * * * * * * * * * * * * * * * * * * * * * * //

dimensions      [0 3 -1 0 0 0 0];

internalField   nonuniform List<scalar> 
42423
(
-0.000177611
-1.56599e-06
-0.000175255
-2.35618e-06
-0.000172192
-3.0623e-06
-0.000168394
-3.79876e-06
-0.000163721
-4.67231e-06
-0.000158275
-5.44608e-06
-0.00015182
-6.45546e-06
-0.000144603
-7.21721e-06
-0.000136545
-8.05739e-06
-0.000127432
-9.11285e-06
-0.000117412
-1.00199e-05
-0.00010647
-1.09422e-05
-9.4244e-05
-1.22262e-05
-8.10717e-05
-1.31723e-05
-6.69098e-05
-1.41619e-05
-5.16584e-05
-1.52514e-05
-3.57542e-05
-1.59042e-05
-1.89726e-05
-1.67817e-05
-1.38966e-06
-1.75829e-05
1.66967e-05
-1.80863e-05
3.53659e-05
-1.86693e-05
5.44325e-05
-1.90667e-05
7.34876e-05
-1.90551e-05
9.25239e-05
-1.90364e-05
0.000111177
-1.86529e-05
0.000129273
-1.80963e-05
0.000146582
-1.73091e-05
0.000162657
-1.60752e-05
0.000177338
-1.46804e-05
0.000190415
-1.30771e-05
0.000201625
-1.12105e-05
0.000210836
-9.21076e-06
0.000217757
-6.92111e-06
0.000222297
-4.54e-06
0.000224383
-2.08541e-06
0.000223973
4.09489e-07
0.0002211
2.87283e-06
0.000215748
5.35271e-06
0.000207992
7.75549e-06
0.000198198
9.79403e-06
0.00018631
1.18879e-05
0.00017278
1.35304e-05
0.000157771
1.50082e-05
0.000141356
1.64158e-05
0.000124021
1.73345e-05
0.000105968
1.80532e-05
8.73815e-05
1.85865e-05
6.85555e-05
1.8826e-05
4.98123e-05
1.87432e-05
3.11796e-05
1.86328e-05
1.29064e-05
1.82732e-05
-4.85712e-06
1.77635e-05
-2.19366e-05
1.70795e-05
-3.82734e-05
1.63368e-05
-5.37584e-05
1.5485e-05
-6.83387e-05
1.45804e-05
-8.19984e-05
1.36596e-05
-9.46889e-05
1.26905e-05
-0.000106395
1.17066e-05
-0.000117137
1.07416e-05
-0.000126919
9.78213e-06
-0.000135817
8.89791e-06
-0.000143781
7.96405e-06
-0.00015085
7.06918e-06
-0.000157118
6.26768e-06
-0.000162528
5.40951e-06
-0.000167058
4.53027e-06
-0.000170811
3.75354e-06
-0.000173727
2.91552e-06
-0.00017596
2.23349e-06
-0.000177404
1.44377e-06
-0.000178048
6.43821e-07
-0.000177987
-6.09849e-08
-0.000177107
-8.79502e-07
-0.000175412
-1.69502e-06
-0.000173009
-2.403e-06
-0.000169698
-3.31172e-06
-0.000165553
-4.1452e-06
-0.000160671
-4.8819e-06
-0.000154924
-5.74633e-06
-0.000148333
-6.5917e-06
-0.000140814
-7.5191e-06
-0.000132599
-8.21464e-06
-0.000123394
-9.2054e-06
-0.000113358
-1.0036e-05
-0.000102546
-1.0812e-05
-9.0805e-05
-1.17405e-05
-7.82156e-05
-1.25895e-05
-6.48396e-05
-1.3376e-05
-5.05972e-05
-1.42424e-05
-3.56912e-05
-1.4906e-05
-2.00689e-05
-1.56224e-05
-3.94084e-06
-1.61281e-05
1.26909e-05
-1.66317e-05
2.9806e-05
-1.71151e-05
4.72329e-05
-1.7427e-05
6.48291e-05
-1.75962e-05
8.24172e-05
-1.75881e-05
9.98527e-05
-1.74356e-05
0.000116905
-1.70523e-05
0.000133407
-1.65023e-05
0.000149079
-1.5672e-05
0.000163732
-1.46532e-05
0.000177138
-1.34055e-05
0.000189058
-1.19204e-05
0.000199308
-1.02496e-05
0.000207638
-8.33001e-06
0.000213877
-6.23926e-06
0.0002179
-4.02326e-06
0.000219618
-1.7179e-06
0.000218954
6.64561e-07
0.000215843
3.1106e-06
0.000210307
5.53619e-06
0.000202479
7.82734e-06
0.000192448
1.00311e-05
0.000180395
1.20535e-05
0.000166523
1.38717e-05
0.000151062
1.54611e-05
0.000134292
1.67702e-05
0.000116478
1.78135e-05
9.78764e-05
1.86018e-05
7.88125e-05
1.90639e-05
5.9538e-05
1.92745e-05
4.0339e-05
1.9199e-05
2.14112e-05
1.89278e-05
2.90321e-06
1.8508e-05
-1.48992e-05
1.78024e-05
-3.19719e-05
1.70728e-05
-4.80595e-05
1.60876e-05
-6.32362e-05
1.51767e-05
-7.72966e-05
1.40604e-05
-9.02867e-05
1.29901e-05
-0.000102176
1.18898e-05
-0.000112958
1.07812e-05
-0.000122703
9.74479e-06
-0.000131382
8.6791e-06
-0.00013907
7.68814e-06
-0.000145753
6.68283e-06
-0.000151532
5.7791e-06
-0.000156463
4.93104e-06
-0.000160501
4.03851e-06
-0.000163765
3.26411e-06
-0.000166263
2.49798e-06
-0.000168179
1.91612e-06
-0.000169414
1.2349e-06
-0.000170072
6.57279e-07
-0.000170166
9.47972e-08
-0.000169814
-3.52265e-07
-0.000168868
-9.46249e-07
-0.000167391
-1.47709e-06
-0.000165333
-2.05746e-06
-0.000162713
-2.62031e-06
-0.000159497
-3.21597e-06
-0.000155663
-3.83425e-06
-0.000151184
-4.4785e-06
-0.000146023
-5.16093e-06
-0.000140204
-5.81933e-06
-0.000133619
-6.58546e-06
-0.000126244
-7.37422e-06
-0.000118103
-8.14187e-06
-0.00010908
-9.02296e-06
-9.9291e-05
-9.78863e-06
-8.85985e-05
-1.06925e-05
-7.707e-05
-1.15285e-05
-6.46252e-05
-1.24448e-05
-5.1333e-05
-1.32923e-05
-3.72554e-05
-1.40776e-05
-2.24154e-05
-1.484e-05
-6.89476e-06
-1.55207e-05
9.25101e-06
-1.61458e-05
2.58486e-05
-1.65976e-05
4.28411e-05
-1.69925e-05
6.00419e-05
-1.72008e-05
7.72891e-05
-1.72473e-05
9.43764e-05
-1.70873e-05
0.000111101
-1.6725e-05
0.000127217
-1.61152e-05
0.000142484
-1.52676e-05
0.000156593
-1.41086e-05
0.000169319
-1.27265e-05
0.000180385
-1.10661e-05
0.00018953
-9.14472e-06
0.000196592
-7.06203e-06
0.000201317
-4.72496e-06
0.000203724
-2.40723e-06
0.000203742
-1.73357e-08
0.000201329
2.41302e-06
0.000196521
4.80793e-06
0.000189417
7.10376e-06
0.000180061
9.3556e-06
0.000168622
1.14396e-05
0.000155357
1.32643e-05
0.000140497
1.48603e-05
0.000124367
1.61297e-05
0.000107259
1.71088e-05
8.94723e-05
1.77862e-05
7.13468e-05
1.81255e-05
5.31201e-05
1.82267e-05
3.50334e-05
1.80867e-05
1.72558e-05
1.77776e-05
-9.1834e-08
1.73476e-05
-1.6838e-05
1.67462e-05
-3.28932e-05
1.60552e-05
-4.81668e-05
1.52735e-05
-6.25567e-05
1.43899e-05
-7.5984e-05
1.34273e-05
-8.84857e-05
1.25017e-05
-9.99274e-05
1.14417e-05
-0.00011033
1.04031e-05
-0.000119682
9.3519e-06
-0.000128072
8.38954e-06
-0.000135619
7.54732e-06
-0.000142268
6.64871e-06
-0.000148128
5.86e-06
-0.000153273
5.14543e-06
-0.000157716
4.44299e-06
-0.000161451
3.73474e-06
-0.000164592
3.14043e-06
-0.000167057
2.46541e-06
-0.000168924
1.86738e-06
-0.000170154
1.23015e-06
-0.000170882
7.27447e-07
-0.000171002
1.19996e-07
-0.000170568
-4.33645e-07
-0.000169657
-9.11447e-07
-0.000168132
-1.52465e-06
-0.000166056
-2.07576e-06
-0.000163456
-2.60012e-06
-0.000160234
-3.22226e-06
-0.000156353
-3.881e-06
-0.000151934
-4.4187e-06
-0.000146795
-5.13929e-06
-0.000140979
-5.81574e-06
-0.000134446
-6.5336e-06
-0.000127173
-7.27285e-06
-0.000119101
-8.0724e-06
-0.00011028
-8.8201e-06
-0.000100593
-9.68761e-06
-9.0138e-05
-1.04548e-05
-7.87874e-05
-1.13507e-05
-6.65537e-05
-1.22337e-05
-5.35739e-05
-1.29797e-05
-3.97598e-05
-1.38142e-05
-2.51595e-05
-1.46003e-05
-9.87204e-06
-1.52874e-05
5.99731e-06
-1.58694e-05
2.23402e-05
-1.63429e-05
3.90198e-05
-1.66796e-05
5.58891e-05
-1.68693e-05
7.27628e-05
-1.68737e-05
8.94546e-05
-1.66919e-05
0.000105737
-1.62827e-05
0.000121392
-1.56547e-05
0.000136094
-1.47016e-05
0.000149671
-1.35778e-05
0.000161842
-1.21708e-05
0.00017233
-1.04872e-05
0.000180911
-8.58191e-06
0.000187402
-6.4904e-06
0.00019161
-4.20789e-06
0.000193401
-1.79179e-06
0.000192757
6.44402e-07
0.000189596
3.1608e-06
0.000184011
5.58544e-06
0.000176041
7.96988e-06
0.000166012
1.0029e-05
0.000154079
1.19333e-05
0.000140478
1.36006e-05
0.000125447
1.50306e-05
0.000109408
1.60397e-05
9.26942e-05
1.67135e-05
7.5642e-05
1.70522e-05
5.82558e-05
1.73861e-05
4.11759e-05
1.70799e-05
2.44625e-05
1.67133e-05
8.30304e-06
1.61595e-05
-7.21343e-06
1.55165e-05
-2.19294e-05
1.4716e-05
-3.56519e-05
1.37225e-05
-4.84285e-05
1.27765e-05
-6.01873e-05
1.17589e-05
-7.0939e-05
1.07517e-05
-8.07989e-05
9.85992e-06
-8.97363e-05
8.93734e-06
-9.78713e-05
8.13499e-06
-0.000105297
7.42621e-06
-0.00011203
6.73215e-06
-0.000118083
6.05329e-06
-0.000123593
5.50983e-06
-0.000128464
4.87164e-06
-0.000132806
4.34133e-06
-0.000136566
3.75998e-06
-0.000139743
3.1773e-06
-0.000142427
2.68436e-06
-0.000144555
2.12722e-06
-0.000146166
1.61137e-06
-0.000147356
1.18953e-06
-0.000148069
7.13393e-07
-0.000148282
2.13559e-07
-0.00014811
-1.72535e-07
-0.000147478
-6.3187e-07
-0.000146393
-1.0853e-06
-0.000144892
-1.50115e-06
-0.000142889
-2.00266e-06
-0.000140352
-2.5367e-06
-0.000137257
-3.09521e-06
-0.000133423
-3.83444e-06
-0.000128904
-4.51896e-06
-0.000123323
-5.58109e-06
-0.000116867
-6.45574e-06
-0.000109532
-7.33506e-06
-0.000101005
-8.52682e-06
-9.13623e-05
-9.64267e-06
-8.0722e-05
-1.06404e-05
-6.88338e-05
-1.18882e-05
-5.59978e-05
-1.28359e-05
-4.20465e-05
-1.39514e-05
-2.70942e-05
-1.49522e-05
-1.14017e-05
-1.56925e-05
4.99062e-06
-1.63923e-05
2.20015e-05
-1.70109e-05
3.9281e-05
-1.72795e-05
5.6874e-05
-1.7593e-05
7.44415e-05
-1.75675e-05
9.18439e-05
-1.74024e-05
0.000108898
-1.70537e-05
0.000125239
-1.63414e-05
0.000140676
-1.54373e-05
0.000155007
-1.43305e-05
0.000167944
-1.29372e-05
0.000179402
-1.14582e-05
0.000189215
-9.81245e-06
0.000197162
-7.94712e-06
0.000203148
-5.98654e-06
0.000207078
-3.93015e-06
0.000208975
-1.89636e-06
0.000208841
1.33754e-07
0.000206571
2.26953e-06
0.000202313
4.2586e-06
0.000196197
6.11596e-06
0.00018819
8.00645e-06
0.000178626
9.5648e-06
0.000167611
1.10141e-05
0.000155361
1.22508e-05
0.000141958
1.34022e-05
0.000127549
1.44097e-05
0.000112473
1.50757e-05
9.67899e-05
1.56831e-05
8.07388e-05
1.60511e-05
6.44299e-05
1.63089e-05
4.79711e-05
1.64588e-05
3.16619e-05
1.63092e-05
1.54506e-05
1.62113e-05
-4.80661e-07
1.59312e-05
-1.60159e-05
1.55353e-05
-3.10543e-05
1.50383e-05
1.4337e-05
-0.000177644
-3.12657e-06
-0.000175291
-4.70944e-06
-0.000172233
-6.12049e-06
-0.000168437
-7.59432e-06
-0.000163768
-9.34151e-06
-0.000158323
-1.08908e-05
-0.00015187
-1.29086e-05
-0.000144653
-1.44343e-05
-0.000136596
-1.61144e-05
-0.000127484
-1.82247e-05
-0.000117462
-2.00423e-05
-0.000106521
-2.18823e-05
-9.42964e-05
-2.44513e-05
-8.11235e-05
-2.63453e-05
-6.69585e-05
-2.83269e-05
-5.16989e-05
-3.0511e-05
-3.57923e-05
-3.18108e-05
-1.90058e-05
-3.35682e-05
-1.41497e-06
-3.51738e-05
1.66792e-05
-3.61805e-05
3.53518e-05
-3.73419e-05
5.44318e-05
-3.81467e-05
7.3499e-05
-3.81223e-05
9.25442e-05
-3.80815e-05
0.000111209
-3.73182e-05
0.000129325
-3.62123e-05
0.000146649
-3.46324e-05
0.000162735
-3.21613e-05
0.000177429
-2.93743e-05
0.000190518
-2.61666e-05
0.000201736
-2.24281e-05
0.000210949
-1.84245e-05
0.000217875
-1.38472e-05
0.000222421
-9.08591e-06
0.000224511
-4.17533e-06
0.000224094
8.26326e-07
0.000221219
5.74761e-06
0.000215865
1.07074e-05
0.000208101
1.55188e-05
0.000198304
1.95915e-05
0.000186403
2.37887e-05
0.000172861
2.70728e-05
0.000157845
3.00242e-05
0.000141414
3.28467e-05
0.000124067
3.46808e-05
0.000106003
3.61178e-05
8.74075e-05
3.71818e-05
6.85681e-05
3.76654e-05
4.98127e-05
3.74985e-05
3.11783e-05
3.72672e-05
1.28972e-05
3.65543e-05
-4.87553e-06
3.55362e-05
-2.19623e-05
3.41662e-05
-3.83045e-05
3.2679e-05
-5.37961e-05
3.09766e-05
-6.83847e-05
2.91689e-05
-8.20465e-05
2.73214e-05
-9.47399e-05
2.5384e-05
-0.000106454
2.34205e-05
-0.0001172
2.14874e-05
-0.000126983
1.95656e-05
-0.000135882
1.77973e-05
-0.000143849
1.59301e-05
-0.000150919
1.41395e-05
-0.000157187
1.25361e-05
-0.000162596
1.08186e-05
-0.000167127
9.06114e-06
-0.000170881
7.50782e-06
-0.000173793
5.82729e-06
-0.000176033
4.47326e-06
-0.000177478
2.88832e-06
-0.000178116
1.28257e-06
-0.000178052
-1.25668e-07
-0.000177176
-1.75546e-06
-0.000175482
-3.38823e-06
-0.000173076
-4.80901e-06
-0.000169763
-6.62481e-06
-0.000165616
-8.29248e-06
-0.000160742
-9.75644e-06
-0.000154989
-1.14992e-05
-0.000148385
-1.31959e-05
-0.00014087
-1.50333e-05
-0.000132658
-1.64275e-05
-0.000123448
-1.84153e-05
-0.000113402
-2.00813e-05
-0.000102593
-2.16211e-05
-9.08599e-05
-2.34739e-05
-7.8259e-05
-2.51903e-05
-6.488e-05
-2.67551e-05
-5.06444e-05
-2.8478e-05
-3.57405e-05
-2.981e-05
-2.01308e-05
-3.12321e-05
-3.97697e-06
-3.22819e-05
1.26542e-05
-3.3263e-05
2.97726e-05
-3.42335e-05
4.71995e-05
-3.4854e-05
6.4799e-05
-3.51957e-05
8.24033e-05
-3.51925e-05
9.98435e-05
-3.48758e-05
0.000116907
-3.41156e-05
0.000133426
-3.30216e-05
0.000149109
-3.13547e-05
0.000163774
-2.93185e-05
0.000177198
-2.68299e-05
0.000189129
-2.38508e-05
0.000199382
-2.05024e-05
0.000207724
-1.66727e-05
0.000213987
-1.25021e-05
0.000218019
-8.0556e-06
0.000219749
-3.44788e-06
0.000219067
1.34628e-06
0.000215949
6.22862e-06
0.000210417
1.10688e-05
0.000202582
1.56619e-05
0.000192535
2.00786e-05
0.000180468
2.41202e-05
0.000166578
2.77612e-05
0.0001511
3.09392e-05
0.000134318
3.3553e-05
0.000116488
3.56432e-05
9.78734e-05
3.72163e-05
7.87902e-05
3.8147e-05
5.95009e-05
3.85639e-05
4.02828e-05
3.8417e-05
2.13448e-05
3.78658e-05
2.82055e-06
3.70322e-05
-1.50008e-05
3.56237e-05
-3.20723e-05
3.41443e-05
-4.81761e-05
3.21914e-05
-6.33572e-05
3.03578e-05
-7.74211e-05
2.81243e-05
-9.04222e-05
2.59911e-05
-0.000102311
2.37782e-05
-0.000113097
2.15674e-05
-0.000122839
1.94873e-05
-0.000131526
1.73655e-05
-0.000139211
1.53734e-05
-0.000145892
1.33637e-05
-0.000151668
1.15549e-05
-0.000156605
9.86838e-06
-0.000160642
8.07583e-06
-0.000163906
6.52806e-06
-0.000166408
4.99946e-06
-0.000168324
3.8325e-06
-0.000169548
2.45887e-06
-0.000170202
1.31101e-06
-0.000170325
2.17731e-07
-0.000169944
-7.33383e-07
-0.000169
-1.88981e-06
-0.000167495
-2.98247e-06
-0.00016546
-4.09217e-06
-0.000162844
-5.23613e-06
-0.000159628
-6.43226e-06
-0.00015581
-7.6523e-06
-0.000151321
-8.96757e-06
-0.000146119
-1.03626e-05
-0.000140331
-1.16077e-05
-0.000133751
-1.31652e-05
-0.00012638
-1.47453e-05
-0.000118223
-1.62993e-05
-0.000109189
-1.80562e-05
-9.93901e-05
-1.95878e-05
-8.87186e-05
-2.13641e-05
-7.71736e-05
-2.30735e-05
-6.47303e-05
-2.48881e-05
-5.144e-05
-2.65826e-05
-3.73561e-05
-2.81614e-05
-2.25037e-05
-2.96925e-05
-6.98028e-06
-3.10441e-05
9.17071e-06
-3.22968e-05
2.5787e-05
-3.3214e-05
4.27846e-05
-3.39901e-05
6.0001e-05
-3.44173e-05
7.72643e-05
-3.45106e-05
9.43628e-05
-3.41858e-05
0.000111106
-3.3468e-05
0.000127233
-3.22428e-05
0.000142514
-3.0548e-05
0.000156642
-2.82365e-05
0.000169392
-2.54769e-05
0.000180468
-2.21418e-05
0.00018962
-1.82976e-05
0.000196688
-1.41293e-05
0.00020143
-9.467e-06
0.000203835
-4.81297e-06
0.000203851
-3.34106e-08
0.000201439
4.82574e-06
0.000196627
9.61969e-06
0.0001895
1.42306e-05
0.000180144
1.87116e-05
0.000168692
2.28912e-05
0.000155413
2.65434e-05
0.000140539
2.9735e-05
0.00012438
3.22879e-05
0.000107259
3.42299e-05
8.94584e-05
3.55869e-05
7.131e-05
3.62739e-05
5.30662e-05
3.64705e-05
3.49673e-05
3.61856e-05
1.71796e-05
3.55653e-05
-1.70786e-07
3.4698e-05
-1.69264e-05
3.35018e-05
-3.29924e-05
3.21213e-05
-4.82768e-05
3.05579e-05
-6.26747e-05
2.87878e-05
-7.61061e-05
2.68587e-05
-8.86094e-05
2.5005e-05
-0.000100058
2.28904e-05
-0.00011047
2.08148e-05
-0.000119824
1.87064e-05
-0.000128216
1.67812e-05
-0.000135754
1.50852e-05
-0.000142404
1.32986e-05
-0.000148268
1.17245e-05
-0.000153411
1.02885e-05
-0.000157855
8.88635e-06
-0.000161588
7.46776e-06
-0.000164737
6.28955e-06
-0.000167195
4.92402e-06
-0.000169058
3.72982e-06
-0.000170304
2.47628e-06
-0.000171016
1.43927e-06
-0.000171138
2.42336e-07
-0.0001707
-8.71709e-07
-0.000169792
-1.81968e-06
-0.000168262
-3.05463e-06
-0.000166183
-4.15416e-06
-0.000163587
-5.1961e-06
-0.000160363
-6.44634e-06
-0.000156509
-7.73541e-06
-0.000152061
-8.86667e-06
-0.000146935
-1.02656e-05
-0.000141119
-1.16313e-05
-0.000134572
-1.30812e-05
-0.000127288
-1.45567e-05
-0.000119217
-1.61428e-05
-0.000110393
-1.76443e-05
-0.000100718
-1.93627e-05
-9.02466e-05
-2.09263e-05
-7.89008e-05
-2.26966e-05
-6.66597e-05
-2.44748e-05
-5.36701e-05
-2.59693e-05
-3.98535e-05
-2.76309e-05
-2.52489e-05
-2.92049e-05
-9.94341e-06
-3.0593e-05
5.92708e-06
-3.17399e-05
2.22807e-05
-3.26966e-05
3.89759e-05
-3.33749e-05
5.58533e-05
-3.37467e-05
7.27377e-05
-3.37581e-05
8.94532e-05
-3.34074e-05
0.000105748
-3.25776e-05
0.000121418
-3.13245e-05
0.000136142
-2.94254e-05
0.000149725
-2.71613e-05
0.000161901
-2.43466e-05
0.000172405
-2.09917e-05
0.000181004
-1.7181e-05
0.0001875
-1.29856e-05
0.000191704
-8.41195e-06
0.000193497
-3.58524e-06
0.000192844
1.29706e-06
0.000189677
6.32828e-06
0.000184076
1.11865e-05
0.00017611
1.59355e-05
0.000166064
2.0075e-05
0.00015412
2.38768e-05
0.0001405
2.72209e-05
0.000125477
3.00541e-05
0.000109426
3.209e-05
9.26953e-05
3.34445e-05
7.56439e-05
3.41036e-05
5.82447e-05
3.47853e-05
4.11507e-05
3.4174e-05
2.44294e-05
3.34346e-05
8.2756e-06
3.23133e-05
-7.25666e-06
3.10487e-05
-2.19821e-05
2.94414e-05
-3.57097e-05
2.74501e-05
-4.84897e-05
2.55565e-05
-6.02512e-05
2.35204e-05
-7.09995e-05
2.15e-05
-8.08577e-05
1.97181e-05
-8.97902e-05
1.78698e-05
-9.79241e-05
1.62689e-05
-0.000105351
1.48536e-05
-0.000112082
1.34623e-05
-0.000118133
1.21048e-05
-0.000123644
1.10212e-05
-0.000128512
9.73961e-06
-0.000132852
8.68062e-06
-0.00013661
7.51843e-06
-0.000139787
6.35367e-06
-0.000142473
5.37064e-06
-0.000144596
4.24988e-06
-0.000146208
3.22373e-06
-0.000147399
2.38093e-06
-0.000148118
1.43217e-06
-0.000148324
4.19805e-07
-0.00014816
-3.36535e-07
-0.000147526
-1.26638e-06
-0.000146436
-2.17564e-06
-0.00014494
-2.99681e-06
-0.000142939
-4.00399e-06
-0.000140398
-5.07721e-06
-0.000137309
-6.18398e-06
-0.000133478
-7.66584e-06
-0.000128952
-9.04435e-06
-0.000123382
-1.11518e-05
-0.000116929
-1.29086e-05
-0.000109596
-1.46678e-05
-0.00010106
-1.70631e-05
-9.14215e-05
-1.92811e-05
-8.07799e-05
-2.12819e-05
-6.8889e-05
-2.37792e-05
-5.60504e-05
-2.56745e-05
-4.20956e-05
-2.79063e-05
-2.71364e-05
-2.99114e-05
-1.14502e-05
-3.13787e-05
4.96168e-06
-3.28043e-05
2.1984e-05
-3.40332e-05
3.92722e-05
-3.45678e-05
5.68721e-05
-3.5193e-05
7.44534e-05
-3.51488e-05
9.1873e-05
-3.48221e-05
0.000108936
-3.4117e-05
0.000125285
-3.26899e-05
0.000140734
-3.08865e-05
0.000155079
-2.86759e-05
0.000168036
-2.58937e-05
0.000179498
-2.29205e-05
0.000189315
-1.96295e-05
0.000197282
-1.59146e-05
0.000203286
-1.19898e-05
0.000207214
-7.8587e-06
0.000209105
-3.78676e-06
0.000208955
2.83293e-07
0.000206673
4.55116e-06
0.000202408
8.52391e-06
0.000196286
1.2238e-05
0.000188276
1.60164e-05
0.000178703
1.91379e-05
0.00016768
2.20372e-05
0.000155422
2.45082e-05
0.000142011
2.68134e-05
0.000127592
2.88289e-05
0.000112507
3.01601e-05
9.68143e-05
3.13762e-05
8.07553e-05
3.21101e-05
6.44388e-05
3.26254e-05
4.79736e-05
3.2924e-05
3.16555e-05
3.26273e-05
1.54376e-05
3.24292e-05
-4.98879e-07
3.18676e-05
-1.60369e-05
3.10732e-05
-3.10792e-05
3.00806e-05
2.86777e-05
-0.0001777
-4.68664e-06
-0.000175348
-7.06124e-06
-0.000172293
-9.17574e-06
-0.000168498
-1.1389e-05
-0.000163833
-1.40063e-05
-0.000158389
-1.63351e-05
-0.000151943
-1.93549e-05
-0.000144726
-2.16513e-05
-0.000136667
-2.41732e-05
-0.000127561
-2.7331e-05
-0.000117536
-3.00668e-05
-0.0001066
-3.28192e-05
-9.43718e-05
-3.66791e-05
-8.12072e-05
-3.95099e-05
-6.70398e-05
-4.24943e-05
-5.17672e-05
-4.57837e-05
-3.58534e-05
-4.77247e-05
-1.90576e-05
-5.0364e-05
-1.45572e-06
-5.27757e-05
1.66552e-05
-5.42915e-05
3.53478e-05
-5.60345e-05
5.44432e-05
-5.72422e-05
7.35288e-05
-5.72079e-05
9.25918e-05
-5.71446e-05
0.000111282
-5.6008e-05
0.000129411
-5.43422e-05
0.000146756
-5.19766e-05
0.000162864
-4.82695e-05
0.000177588
-4.40983e-05
0.000190692
-3.92714e-05
0.00020192
-3.36558e-05
0.000211151
-2.76556e-05
0.000218088
-2.07839e-05
0.000222645
-1.36432e-05
0.000224745
-6.27577e-06
0.000224294
1.27748e-06
0.000221401
8.64047e-06
0.000216043
1.60655e-05
0.000208267
2.3295e-05
0.00019845
2.94079e-05
0.000186541
3.56982e-05
0.000172977
4.06362e-05
0.000157948
4.50537e-05
0.000141492
4.93026e-05
0.000124125
5.20478e-05
0.000106037
5.42052e-05
8.74277e-05
5.57916e-05
6.85647e-05
5.65283e-05
4.97814e-05
5.62818e-05
3.11521e-05
5.58965e-05
1.28587e-05
5.48476e-05
-4.93125e-06
5.33262e-05
-2.20275e-05
5.12625e-05
-3.83773e-05
4.90288e-05
-5.3874e-05
4.64733e-05
-6.84675e-05
4.37623e-05
-8.21316e-05
4.09855e-05
-9.48271e-05
3.80795e-05
-0.000106542
3.51354e-05
-0.000117285
3.22301e-05
-0.000127068
2.93486e-05
-0.000135965
2.66948e-05
-0.00014393
2.38948e-05
-0.000151001
2.12106e-05
-0.000157272
1.88074e-05
-0.00016268
1.6226e-05
-0.000167209
1.35908e-05
-0.000170964
1.12628e-05
-0.000173874
8.73643e-06
-0.000176119
6.71855e-06
-0.000177567
4.33615e-06
-0.000178194
1.90972e-06
-0.000178119
-2.00674e-07
-0.000177241
-2.63369e-06
-0.00017555
-5.07834e-06
-0.000173147
-7.21293e-06
-0.000169832
-9.93953e-06
-0.000165685
-1.24389e-05
-0.000160815
-1.46266e-05
-0.00015506
-1.72541e-05
-0.000148454
-1.98026e-05
-0.000140945
-2.2542e-05
-0.000132732
-2.46408e-05
-0.000123527
-2.76204e-05
-0.000113478
-3.01295e-05
-0.000102667
-3.24328e-05
-9.09496e-05
-3.51913e-05
-7.83486e-05
-3.77913e-05
-6.4967e-05
-4.01367e-05
-5.07614e-05
-4.26837e-05
-3.58468e-05
-4.47246e-05
-2.02661e-05
-4.68129e-05
-4.0663e-06
-4.84817e-05
1.25655e-05
-4.98949e-05
2.96821e-05
-5.13501e-05
4.7119e-05
-5.2291e-05
6.47308e-05
-5.28076e-05
8.23658e-05
-5.28275e-05
9.97995e-05
-5.23094e-05
0.000116881
-5.11968e-05
0.000133414
-4.9555e-05
0.00014911
-4.70511e-05
0.000163791
-4.39993e-05
0.000177237
-4.02761e-05
0.000189194
-3.58079e-05
0.000199459
-3.07674e-05
0.000207816
-2.503e-05
0.000214098
-1.87839e-05
0.000218127
-1.20846e-05
0.000219842
-5.16267e-06
0.00021917
2.01824e-06
0.000216048
9.35081e-06
0.000210513
1.66032e-05
0.000202699
2.3476e-05
0.000192613
3.01647e-05
0.000180526
3.62069e-05
0.000166619
4.16682e-05
0.000151118
4.64407e-05
0.000134301
5.03694e-05
0.000116439
5.35055e-05
9.7812e-05
5.58435e-05
7.87107e-05
5.72483e-05
5.93991e-05
5.78755e-05
4.01566e-05
5.76595e-05
2.11754e-05
5.68469e-05
2.6668e-06
5.55409e-05
-1.51814e-05
5.34718e-05
-3.2249e-05
5.1212e-05
-4.83574e-05
4.82998e-05
-6.35499e-05
4.55503e-05
-7.7619e-05
4.21934e-05
-9.06202e-05
3.89923e-05
-0.000102509
3.5667e-05
-0.000113303
3.23611e-05
-0.00012304
2.92242e-05
-0.000131722
2.6048e-05
-0.000139406
2.30568e-05
-0.000146081
2.00391e-05
-0.00015185
1.73237e-05
-0.000156788
1.48062e-05
-0.000160825
1.2113e-05
-0.000164089
9.79188e-06
-0.000166633
7.54341e-06
-0.000168496
5.69636e-06
-0.000169713
3.67567e-06
-0.00017037
1.96758e-06
-0.000170513
3.61118e-07
-0.000170101
-1.14579e-06
-0.00016916
-2.83104e-06
-0.000167624
-4.5184e-06
-0.000165628
-6.08813e-06
-0.000163002
-7.86168e-06
-0.000159776
-9.65844e-06
-0.00015598
-1.14487e-05
-0.000151495
-1.34525e-05
-0.0001463
-1.55577e-05
-0.000140512
-1.73952e-05
-0.000133927
-1.97508e-05
-0.000126556
-2.21157e-05
-0.000118392
-2.44633e-05
-0.000109365
-2.70834e-05
-9.95377e-05
-2.94153e-05
-8.88951e-05
-3.20067e-05
-7.73428e-05
-3.46258e-05
-6.49144e-05
-3.73166e-05
-5.16114e-05
-3.98857e-05
-3.75143e-05
-4.22585e-05
-2.26622e-05
-4.45446e-05
-7.12877e-06
-4.65776e-05
9.02762e-06
-4.84532e-05
2.56535e-05
-4.98399e-05
4.26728e-05
-5.10094e-05
5.98997e-05
-5.16442e-05
7.71758e-05
-5.17867e-05
9.43049e-05
-5.1315e-05
0.000111083
-5.02464e-05
0.000127213
-4.83727e-05
0.000142514
-4.58489e-05
0.000156664
-4.23871e-05
0.000169441
-3.82536e-05
0.000180535
-3.32355e-05
0.000189707
-2.74696e-05
0.000196776
-2.11989e-05
0.000201536
-1.42269e-05
0.00020395
-7.22636e-06
0.000203958
-4.12951e-08
0.000201525
7.25861e-06
0.000196709
1.44349e-05
0.000189572
2.13679e-05
0.000180216
2.80675e-05
0.000168751
3.43567e-05
0.000155448
3.98457e-05
0.00014055
4.46332e-05
0.000124349
4.84885e-05
0.000107178
5.14019e-05
8.93899e-05
5.33745e-05
7.11883e-05
5.44754e-05
5.29536e-05
5.47052e-05
3.48372e-05
5.4302e-05
1.70342e-05
5.33683e-05
-3.22705e-07
5.20549e-05
-1.70879e-05
5.02669e-05
-3.31701e-05
4.82034e-05
-4.84577e-05
4.58455e-05
-6.28641e-05
4.31942e-05
-7.632e-05
4.03146e-05
-8.87976e-05
3.74826e-05
-0.000100242
3.43349e-05
-0.000110659
3.12311e-05
-0.000120022
2.80696e-05
-0.000128449
2.52089e-05
-0.000135945
2.25811e-05
-0.00014259
1.99431e-05
-0.000148438
1.75731e-05
-0.000153575
1.54256e-05
-0.000158021
1.33317e-05
-0.000161748
1.11948e-05
-0.000164907
9.44916e-06
-0.000167365
7.38212e-06
-0.000169225
5.58949e-06
-0.000170477
3.72765e-06
-0.000171174
2.13691e-06
-0.000171297
3.64806e-07
-0.000170863
-1.30528e-06
-0.000169938
-2.74483e-06
-0.000168423
-4.56993e-06
-0.000166357
-6.21976e-06
-0.000163746
-7.80741e-06
-0.000160524
-9.66785e-06
-0.000156709
-1.15507e-05
-0.000152224
-1.33512e-05
-0.000147106
-1.53837e-05
-0.000141295
-1.74423e-05
-0.000134731
-1.96453e-05
-0.000127438
-2.18498e-05
-0.000119367
-2.42138e-05
-0.000110555
-2.6456e-05
-0.000100904
-2.90146e-05
-9.04204e-05
-3.14096e-05
-7.90728e-05
-3.40442e-05
-6.68241e-05
-3.67235e-05
-5.38368e-05
-3.89566e-05
-4.00145e-05
-4.14531e-05
-2.54029e-05
-4.38166e-05
-1.00855e-05
-4.59105e-05
5.79051e-06
-4.76159e-05
2.21574e-05
-4.90635e-05
3.88605e-05
-5.0078e-05
5.57574e-05
-5.06436e-05
7.26599e-05
-5.06607e-05
8.93939e-05
-5.01414e-05
0.000105713
-4.88968e-05
0.000121406
-4.70179e-05
0.000136153
-4.41721e-05
0.000149755
-4.07635e-05
0.000161953
-3.65445e-05
0.000172489
-3.15274e-05
0.000181084
-2.57764e-05
0.000187589
-1.94901e-05
0.000191805
-1.2628e-05
0.000193609
-5.38959e-06
0.000192945
1.96131e-06
0.000189767
9.5056e-06
0.000184152
1.68022e-05
0.000176195
2.38918e-05
0.000166136
3.01342e-05
0.000154169
3.58441e-05
0.000140522
4.0868e-05
0.000125498
4.50775e-05
0.00010944
4.81478e-05
9.26837e-05
5.02012e-05
7.55787e-05
5.12085e-05
5.82099e-05
5.21541e-05
4.10995e-05
5.12844e-05
2.43621e-05
5.0172e-05
8.21468e-06
4.84607e-05
-7.33804e-06
4.66014e-05
-2.20742e-05
4.41776e-05
-3.58061e-05
4.1182e-05
-4.85837e-05
3.83341e-05
-6.03473e-05
3.52839e-05
-7.10916e-05
3.22444e-05
-8.09495e-05
2.95759e-05
-8.98733e-05
2.67936e-05
-9.79939e-05
2.43896e-05
-0.000105419
2.22785e-05
-0.000112139
2.01828e-05
-0.000118187
1.81526e-05
-0.000123699
1.6533e-05
-0.000128557
1.4598e-05
-0.000132896
1.30193e-05
-0.000136653
1.12752e-05
-0.000139826
9.52663e-06
-0.000142515
8.0601e-06
-0.000144633
6.36742e-06
-0.000146243
4.83368e-06
-0.000147438
3.57649e-06
-0.000148144
2.13775e-06
-0.000148361
6.37346e-07
-0.000148202
-4.96091e-07
-0.000147564
-1.90432e-06
-0.00014647
-3.27001e-06
-0.000144981
-4.48513e-06
-0.000142983
-6.00221e-06
-0.000140441
-7.61873e-06
-0.000137363
-9.26296e-06
-0.000133538
-1.14899e-05
-0.000129003
-1.35799e-05
-0.000123455
-1.66999e-05
-0.000117009
-1.93543e-05
-0.000109684
-2.19934e-05
-0.00010114
-2.56065e-05
-9.15079e-05
-2.89135e-05
-8.08665e-05
-3.19233e-05
-6.89725e-05
-3.56731e-05
-5.61322e-05
-3.85149e-05
-4.21744e-05
-4.18641e-05
-2.72055e-05
-4.48803e-05
-1.15381e-05
-4.70461e-05
4.92469e-06
-4.92671e-05
2.19617e-05
-5.10703e-05
3.92658e-05
-5.18719e-05
5.68859e-05
-5.28131e-05
7.44898e-05
-5.27528e-05
9.19234e-05
-5.22557e-05
0.000109006
-5.11991e-05
0.000125382
-4.90662e-05
0.000140855
-4.636e-05
0.000155218
-4.30386e-05
0.000168186
-3.8862e-05
0.000179664
-3.43984e-05
0.000189503
-2.94682e-05
0.000197472
-2.38841e-05
0.000203477
-1.79947e-05
0.000207414
-1.17957e-05
0.000209309
-5.68214e-06
0.00020914
4.52992e-07
0.000206828
6.86321e-06
0.000202554
1.2798e-05
0.00019642
1.83718e-05
0.000188404
2.40318e-05
0.000178818
2.87242e-05
0.000167779
3.30761e-05
0.000155511
3.67761e-05
0.000142086
4.02388e-05
0.000127652
4.3262e-05
0.000112553
4.52592e-05
9.68454e-05
4.70842e-05
8.07739e-05
4.81816e-05
6.44458e-05
4.89535e-05
4.79723e-05
4.93975e-05
3.16385e-05
4.89611e-05
1.54099e-05
4.86578e-05
-5.36769e-07
4.78143e-05
-1.60816e-05
4.66181e-05
-3.11309e-05
4.51299e-05
4.30239e-05
-0.000177784
-6.2457e-06
-0.000175434
-9.41117e-06
-0.000172384
-1.22262e-05
-0.00016859
-1.51825e-05
-0.000163932
-1.86645e-05
-0.000158488
-2.17789e-05
-0.000152054
-2.57896e-05
-0.000144836
-2.88689e-05
-0.000136775
-3.22345e-05
-0.000127677
-3.64288e-05
-0.000117649
-4.00947e-05
-0.000106715
-4.37532e-05
-9.44862e-05
-4.89082e-05
-8.13364e-05
-5.26597e-05
-6.71587e-05
-5.66722e-05
-5.18692e-05
-6.10731e-05
-3.59457e-05
-6.36482e-05
-1.91374e-05
-6.71723e-05
-1.51541e-06
-7.03978e-05
1.66259e-05
-7.24328e-05
3.5342e-05
-7.47506e-05
5.44585e-05
-7.63588e-05
7.35726e-05
-7.6322e-05
9.26667e-05
-7.62387e-05
0.000111386
-7.4727e-05
0.000129545
-7.25014e-05
0.000146924
-6.93563e-05
0.000163064
-6.44088e-05
0.000177825
-5.88596e-05
0.000190957
-5.24029e-05
0.000202208
-4.49072e-05
0.000211454
-3.69012e-05
0.000218399
-2.77293e-05
0.00022297
-1.82145e-05
0.000225077
-8.38281e-06
0.000224583
1.77161e-06
0.000221679
1.1545e-05
0.000216313
2.1431e-05
0.000208515
3.10929e-05
0.000198668
3.92549e-05
0.000186747
4.76194e-05
0.000173152
5.42311e-05
0.000158102
6.01036e-05
0.00014161
6.57949e-05
0.000124211
6.94467e-05
0.00010609
7.23266e-05
8.74578e-05
7.44234e-05
6.856e-05
7.54261e-05
4.9737e-05
7.51047e-05
3.10937e-05
7.45399e-05
1.2801e-05
7.31402e-05
-5.01623e-06
7.11435e-05
-2.21264e-05
6.83726e-05
-3.84864e-05
6.53888e-05
-5.39906e-05
6.19774e-05
-6.85939e-05
5.83656e-05
-8.22603e-05
5.4652e-05
-9.49567e-05
5.07758e-05
-0.000106679
4.68573e-05
-0.000117419
4.29708e-05
-0.000127201
3.913e-05
-0.000136099
3.55928e-05
-0.000144063
3.1859e-05
-0.000151129
2.82761e-05
-0.000157403
2.50818e-05
-0.000162806
2.16288e-05
-0.000167331
1.81164e-05
-0.000171089
1.50206e-05
-0.000174006
1.16528e-05
-0.000176248
8.96083e-06
-0.000177697
5.78569e-06
-0.000178304
2.51593e-06
-0.000178213
-2.91722e-07
-0.000177341
-3.50518e-06
-0.000175659
-6.76017e-06
-0.00017325
-9.62178e-06
-0.000169935
-1.3255e-05
-0.000165797
-1.65768e-05
-0.000160934
-1.94896e-05
-0.000155174
-2.30141e-05
-0.000148556
-2.64209e-05
-0.000141089
-3.00087e-05
-0.000132852
-3.28779e-05
-0.000123661
-3.68113e-05
-0.0001136
-4.01909e-05
-0.000102765
-4.32679e-05
-9.10956e-05
-4.68603e-05
-7.84999e-05
-5.03871e-05
-6.51045e-05
-5.35321e-05
-5.09334e-05
-5.68548e-05
-3.60189e-05
-5.96392e-05
-2.04628e-05
-6.23689e-05
-4.25993e-06
-6.46847e-05
1.24419e-05
-6.65967e-05
2.9534e-05
-6.84422e-05
4.69851e-05
-6.97422e-05
6.4614e-05
-7.04364e-05
8.22462e-05
-7.04598e-05
9.97259e-05
-6.97892e-05
0.000116845
-6.83159e-05
0.000133362
-6.60722e-05
0.000149103
-6.27918e-05
0.000163809