/*--------------------------------*- C++ -*----------------------------------*\
| =========                 |                                                 |
| \\      /  F ield         | OpenFOAM: The Open Source CFD Toolbox           |
|  \\    /   O peration     | Version:  3.0.1                                 |
|   \\  /    A nd           | Web:      www.OpenFOAM.org                      |
|    \\/     M anipulation  |                                                 |
\*---------------------------------------------------------------------------*/
FoamFile
{
    version     2.0;
    format      ascii;
    class       volVectorField;
    location    "29.2";
    object      U;
}
// * * * * * * * * * * * * * * * * * * * * * * * * * * * * * * * * * * * * * //

dimensions      [0 1 -1 0 0 0 0];

internalField   nonuniform List<vector> 
21420
(
(-0.0525338 -0.00146816 0)
(-0.0389028 -0.00157171 0)
(-0.0225969 -0.0016479 0)
(-0.00554496 -0.00171671 0)
(0.012068 -0.00179734 0)
(0.0303411 -0.0018365 0)
(0.0490964 -0.00189254 0)
(0.0681238 -0.00189673 0)
(0.0872093 -0.00187827 0)
(0.106132 -0.00187333 0)
(0.124656 -0.00180799 0)
(0.142516 -0.00171726 0)
(0.159448 -0.00163171 0)
(0.175191 -0.00149061 0)
(0.189484 -0.00134763 0)
(0.202086 -0.00116042 0)
(0.212769 -0.00095587 0)
(0.221339 -0.000741831 0)
(0.227642 -0.000507581 0)
(0.231569 -0.000265278 0)
(0.232993 -2.14001e-05 0)
(0.232027 0.000220913 0)
(0.228506 0.000470572 0)
(0.222601 0.000698916 0)
(0.214432 0.00092344 0)
(0.204141 0.00111311 0)
(0.191926 0.00130011 0)
(0.177998 0.00146992 0)
(0.1626 0.0015831 0)
(0.146 0.00170044 0)
(0.128451 0.00179485 0)
(0.110202 0.00182711 0)
(0.0915154 0.0018688 0)
(0.0726033 0.00185424 0)
(0.0537082 0.00185082 0)
(0.0349555 0.00182385 0)
(0.0165987 0.00175793 0)
(-0.000694374 0.00170664 0)
(-0.0171645 0.00163504 0)
(-0.0330861 0.00154063 0)
(-0.0481536 0.00145531 0)
(-0.0622965 0.00135314 0)
(-0.0754762 0.00125969 0)
(-0.0876705 0.00116329 0)
(-0.0988713 0.00106089 0)
(-0.10909 0.0009658 0)
(-0.118344 0.000871258 0)
(-0.126654 0.000776771 0)
(-0.134051 0.000687934 0)
(-0.140563 0.000600827 0)
(-0.146221 0.000516658 0)
(-0.151062 0.000435258 0)
(-0.155124 0.000357182 0)
(-0.158432 0.000283263 0)
(-0.16099 0.000209602 0)
(-0.162856 0.000136569 0)
(-0.164006 7.14968e-05 0)
(-0.164466 3.65782e-06 0)
(-0.164201 -7.05137e-05 0)
(-0.16322 -0.000136772 0)
(-0.161512 -0.000213699 0)
(-0.159093 -0.000280315 0)
(-0.155942 -0.000351055 0)
(-0.152017 -0.000438054 0)
(-0.147225 -0.000509621 0)
(-0.14162 -0.00058752 0)
(-0.135205 -0.00068769 0)
(-0.12789 -0.000772982 0)
(-0.119566 -0.00087103 0)
(-0.11019 -0.000966909 0)
(-0.10002 -0.00105692 0)
(-0.0889049 -0.00116819 0)
(-0.0766019 -0.00125549 0)
(-0.063424 -0.00134161 0)
(-0.0495363 -0.00144179 0)
(-0.0346378 -0.00151862 0)
(-0.0190099 -0.00159367 0)
(-0.0024278 -0.00167002 0)
(0.0149133 -0.00172085 0)
(0.0324654 -0.00176892 0)
(0.0504318 -0.00180008 0)
(0.0686287 -0.00181804 0)
(0.0868478 -0.00182468 0)
(0.1051 -0.00180116 0)
(0.123052 -0.00177474 0)
(0.140541 -0.00171003 0)
(0.157412 -0.00163073 0)
(0.173334 -0.00153446 0)
(0.188119 -0.0014043 0)
(0.201515 -0.00124848 0)
(0.213221 -0.00108316 0)
(0.223126 -0.000882364 0)
(0.231024 -0.00067326 0)
(0.236697 -0.000455276 0)
(0.240091 -0.000218243 0)
(0.241119 6.50985e-06 0)
(0.239863 0.000249277 0)
(0.236074 0.000483858 0)
(0.230006 0.000712475 0)
(0.221739 0.000923333 0)
(0.211452 0.00111829 0)
(0.199182 0.001308 0)
(0.185227 0.00146482 0)
(0.169787 0.00160373 0)
(0.153003 0.00171705 0)
(0.135212 0.00181174 0)
(0.116593 0.00187734 0)
(0.0974287 0.00192155 0)
(0.0780019 0.00193398 0)
(0.0585364 0.00192381 0)
(0.0393148 0.00189173 0)
(0.0204876 0.00184235 0)
(0.00227261 0.00177011 0)
(-0.0151459 0.0016853 0)
(-0.0316639 0.0016013 0)
(-0.0472315 0.0014921 0)
(-0.0617538 0.00138088 0)
(-0.0751395 0.00127787 0)
(-0.0874229 0.00116128 0)
(-0.0985843 0.00105474 0)
(-0.108644 0.000946166 0)
(-0.117626 0.000838426 0)
(-0.125578 0.000735075 0)
(-0.132516 0.000642204 0)
(-0.138441 0.000540001 0)
(-0.143455 0.000448814 0)
(-0.147549 0.000364571 0)
(-0.150754 0.000274571 0)
(-0.153178 0.000202342 0)
(-0.154785 0.000121283 0)
(-0.155627 4.78407e-05 0)
(-0.155767 -2.04599e-05 0)
(-0.155258 -8.88733e-05 0)
(-0.154057 -0.000143801 0)
(-0.152235 -0.0002078 0)
(-0.149864 -0.000264375 0)
(-0.146882 -0.000327484 0)
(-0.143338 -0.000373579 0)
(-0.139234 -0.000437357 0)
(-0.134582 -0.000488673 0)
(-0.129353 -0.000544847 0)
(-0.123553 -0.000604049 0)
(-0.117163 -0.000662221 0)
(-0.110153 -0.000723756 0)
(-0.102529 -0.000796303 0)
(-0.0941347 -0.000866879 0)
(-0.0849634 -0.000944 0)
(-0.0750406 -0.00102216 0)
(-0.0643209 -0.00110507 0)
(-0.0527912 -0.00118347 0)
(-0.0404631 -0.0012574 0)
(-0.0272838 -0.00134152 0)
(-0.0133667 -0.0014209 0)
(0.00134736 -0.00149825 0)
(0.0168488 -0.00156243 0)
(0.0329666 -0.00163379 0)
(0.0496566 -0.0016774 0)
(0.0667747 -0.00171761 0)
(0.0841703 -0.00173638 0)
(0.10172 -0.001732 0)
(0.119107 -0.00171507 0)
(0.136161 -0.00166828 0)
(0.152649 -0.00159638 0)
(0.168281 -0.00150017 0)
(0.182803 -0.00137224 0)
(0.195912 -0.00122317 0)
(0.207368 -0.00104646 0)
(0.21691 -0.000835698 0)
(0.224263 -0.000622111 0)
(0.229312 -0.000381258 0)
(0.231858 -0.000126837 0)
(0.231846 0.0001315 0)
(0.229117 0.00039708 0)
(0.223763 0.000649531 0)
(0.216027 0.000886751 0)
(0.205983 0.00110814 0)
(0.193831 0.00130232 0)
(0.179759 0.00148204 0)
(0.164155 0.00161901 0)
(0.147229 0.0017344 0)
(0.129285 0.00181406 0)
(0.110734 0.00186944 0)
(0.0917815 0.00189149 0)
(0.0727155 0.00189217 0)
(0.0537732 0.00186517 0)
(0.0351904 0.00182055 0)
(0.0171441 0.00176366 0)
(-0.000257709 0.0016902 0)
(-0.0168372 0.00159852 0)
(-0.0325065 0.00151452 0)
(-0.047239 0.00141296 0)
(-0.0609829 0.00130971 0)
(-0.0737316 0.00120863 0)
(-0.08542 0.00111937 0)
(-0.0961394 0.00100963 0)
(-0.105912 0.000922095 0)
(-0.114662 0.000827604 0)
(-0.122541 0.000732994 0)
(-0.129595 0.000654366 0)
(-0.135759 0.000580717 0)
(-0.141196 0.000498819 0)
(-0.145943 0.000431218 0)
(-0.149929 0.000374739 0)
(-0.153289 0.000297168 0)
(-0.15607 0.000243989 0)
(-0.158231 0.000191686 0)
(-0.159804 0.000125351 0)
(-0.160808 7.2044e-05 0)
(-0.161276 1.992e-05 0)
(-0.161158 -3.72257e-05 0)
(-0.160472 -9.84353e-05 0)
(-0.159262 -0.000157522 0)
(-0.15735 -0.000207568 0)
(-0.154821 -0.000276685 0)
(-0.151729 -0.00034938 0)
(-0.147896 -0.000411017 0)
(-0.14327 -0.000495597 0)
(-0.137898 -0.000567146 0)
(-0.131744 -0.000656377 0)
(-0.124711 -0.000737713 0)
(-0.116832 -0.000825724 0)
(-0.108036 -0.000909629 0)
(-0.0983619 -0.00100915 0)
(-0.0877989 -0.00109295 0)
(-0.0762468 -0.00120193 0)
(-0.0637269 -0.00128408 0)
(-0.0502693 -0.00137988 0)
(-0.0359036 -0.0014658 0)
(-0.0206663 -0.00154189 0)
(-0.00472467 -0.00161469 0)
(0.0118616 -0.00167435 0)
(0.0289606 -0.00171399 0)
(0.0464157 -0.00174516 0)
(0.0640695 -0.00175363 0)
(0.0817226 -0.00174747 0)
(0.0991888 -0.00171387 0)
(0.116196 -0.00165857 0)
(0.132546 -0.0015804 0)
(0.147988 -0.00147404 0)
(0.162236 -0.00135096 0)
(0.175114 -0.00119769 0)
(0.186324 -0.00102281 0)
(0.195656 -0.000823917 0)
(0.202941 -0.000612638 0)
(0.208017 -0.000390076 0)
(0.210774 -0.000157937 0)
(0.211201 7.17983e-05 0)
(0.209216 0.00031385 0)
(0.204771 0.000551069 0)
(0.198132 0.000775301 0)
(0.189266 0.000981327 0)
(0.178345 0.00117342 0)
(0.165655 0.0013419 0)
(0.151452 0.0014812 0)
(0.135954 0.00159009 0)
(0.119431 0.00168509 0)
(0.102136 0.00174556 0)
(0.0842918 0.00179286 0)
(0.0661476 0.00180794 0)
(0.047888 0.0018086 0)
(0.0297546 0.00178716 0)
(0.0119437 0.00175058 0)
(-0.00543208 0.00169974 0)
(-0.0222285 0.00163275 0)
(-0.0382719 0.00154986 0)
(-0.0534823 0.00147316 0)
(-0.0678034 0.00137718 0)
(-0.0811371 0.00127049 0)
(-0.0934863 0.00117804 0)
(-0.104799 0.00107719 0)
(-0.11515 0.000971249 0)
(-0.124446 0.000885678 0)
(-0.132784 0.000771037 0)
(-0.140168 0.000689424 0)
(-0.146553 0.000591193 0)
(-0.152104 0.000502883 0)
(-0.156673 0.000416244 0)
(-0.160465 0.00033362 0)
(-0.163503 0.000266506 0)
(-0.165773 0.000181212 0)
(-0.167384 0.000121729 0)
(-0.168256 5.57175e-05 0)
(-0.168539 -1.0477e-05 0)
(-0.168249 -6.12229e-05 0)
(-0.167421 -0.00013103 0)
(-0.16596 -0.000176072 0)
(-0.164012 -0.000228096 0)
(-0.161474 -0.000302486 0)
(-0.158281 -0.000350717 0)
(-0.154517 -0.00043101 0)
(-0.149963 -0.000498094 0)
(-0.144652 -0.000568653 0)
(-0.138595 -0.000665343 0)
(-0.131569 -0.000749568 0)
(-0.123615 -0.000838593 0)
(-0.114746 -0.000947929 0)
(-0.104767 -0.00105207 0)
(-0.0937284 -0.00114823 0)
(-0.0816269 -0.00126862 0)
(-0.0684836 -0.00136984 0)
(-0.0541652 -0.00148711 0)
(-0.0387443 -0.00157881 0)
(-0.022537 -0.00166099 0)
(-0.00498052 -0.00176451 0)
(0.0137341 -0.00182754 0)
(0.0327254 -0.00186355 0)
(0.0519954 -0.00191629 0)
(0.0714556 -0.00191483 0)
(0.0908609 -0.0019211 0)
(0.110024 -0.0018745 0)
(0.128618 -0.00179553 0)
(0.146347 -0.00171461 0)
(0.162991 -0.00158682 0)
(0.178249 -0.00142957 0)
(0.191836 -0.00126263 0)
(0.203541 -0.00106221 0)
(0.21314 -0.000846682 0)
(0.220448 -0.000614223 0)
(0.225347 -0.000368255 0)
(0.227695 -0.000118305 0)
(0.227628 0.000128621 0)
(0.225109 0.00038014 0)
(0.220099 0.000608579 0)
(0.212813 0.000833659 0)
(0.203366 0.00102684 0)
(0.191963 0.00121721 0)
(0.178796 0.00139145 0)
(0.164095 0.00151259 0)
(0.148126 0.00163658 0)
(0.131126 0.00173928 0)
(0.11334 0.00178407 0)
(0.0950195 0.00183765 0)
(0.0763777 0.00187017 0)
(0.057625 0.00185132 0)
(0.0389282 0.00184424 0)
(0.0204826 0.00179313 0)
(0.00256852 0.00175381 0)
(-0.0147508 0.00170286 0)
(-0.0314821 0.0016199 0)
(-0.0474854 0.00155008 0)
(-0.0626759 0.00147133 0)
(-0.0769889 0.00137216 0)
(-0.0903795 0.00128371 0)
(-0.102816 0.00118094 0)
(-0.114277 0.00108774 0)
(-0.124754 0.000992341 0)
(-0.134245 0.000890955 0)
(-0.142758 0.000796665 0)
(-0.150308 0.000703116 0)
(-0.156916 0.000609229 0)
(-0.162609 0.000520753 0)
(-0.167419 0.000433973 0)
(-0.171379 0.000351948 0)
(-0.174526 0.000273156 0)
(-0.176894 0.000197691 0)
(-0.178521 0.000125358 0)
(-0.17941 5.6245e-05 0)
(-0.0525706 -0.00440465 0)
(-0.0389385 -0.00471539 0)
(-0.0226299 -0.00494407 0)
(-0.00557358 -0.00515056 0)
(0.0120446 -0.00539246 0)
(0.0303234 -0.00551009 0)
(0.0490851 -0.00567837 0)
(0.0681205 -0.00569102 0)
(0.0872146 -0.0056357 0)
(0.106148 -0.00562101 0)
(0.12468 -0.00542502 0)
(0.14255 -0.00515281 0)
(0.159494 -0.00489618 0)
(0.175246 -0.00447286 0)
(0.189551 -0.00404386 0)
(0.202161 -0.0034821 0)
(0.212852 -0.00286835 0)
(0.221429 -0.00222605 0)
(0.227735 -0.00152385 0)
(0.231665 -0.000793567 0)
(0.233094 -6.49159e-05 0)
(0.232126 0.000662108 0)
(0.228598 0.00141195 0)
(0.222691 0.0020971 0)
(0.214518 0.00277092 0)
(0.204218 0.00334008 0)
(0.191995 0.00390117 0)
(0.178059 0.00441071 0)
(0.16265 0.00475025 0)
(0.14604 0.00510236 0)
(0.128481 0.00538559 0)
(0.110222 0.00548231 0)
(0.0915259 0.00560732 0)
(0.0726055 0.00556355 0)
(0.053702 0.00555331 0)
(0.034942 0.00547223 0)
(0.0165812 0.00527496 0)
(-0.000717644 0.0051197 0)
(-0.0171928 0.00490541 0)
(-0.0331165 0.00462224 0)
(-0.0481866 0.0043662 0)
(-0.0623307 0.00405962 0)
(-0.0755115 0.00377922 0)
(-0.0877063 0.00348994 0)
(-0.0989068 0.00318277 0)
(-0.109125 0.00289747 0)
(-0.118379 0.00261405 0)
(-0.126688 0.00233046 0)
(-0.134084 0.00206349 0)
(-0.140595 0.00180314 0)
(-0.146254 0.00155051 0)
(-0.151093 0.00130576 0)
(-0.155155 0.00107293 0)
(-0.158464 0.000848418 0)
(-0.161022 0.000628838 0)
(-0.162889 0.000410814 0)
(-0.164042 0.000214769 0)
(-0.164501 1.1595e-05 0)
(-0.164239 -0.000211297 0)
(-0.163259 -0.00041035 0)
(-0.161555 -0.000640424 0)
(-0.159138 -0.00084002 0)
(-0.15599 -0.00105357 0)
(-0.152068 -0.00131367 0)
(-0.147279 -0.00152837 0)
(-0.141678 -0.00176319 0)
(-0.135263 -0.00206206 0)
(-0.127954 -0.00232295 0)
(-0.119623 -0.00260966 0)
(-0.110257 -0.00290594 0)
(-0.100081 -0.00316792 0)
(-0.0889633 -0.00350495 0)
(-0.0766588 -0.00376736 0)
(-0.0634761 -0.00402057 0)
(-0.0495954 -0.00433309 0)
(-0.0346806 -0.00455407 0)
(-0.0190502 -0.00478716 0)
(-0.00246171 -0.00500708 0)
(0.0148924 -0.00515529 0)
(0.0324329 -0.00532297 0)
(0.0504227 -0.00540203 0)
(0.0686282 -0.00545482 0)
(0.0868589 -0.00546862 0)
(0.105113 -0.0054032 0)
(0.123072 -0.005327 0)
(0.140577 -0.00513941 0)
(0.157452 -0.0048888 0)
(0.173383 -0.00460678 0)
(0.188179 -0.00421829 0)
(0.201576 -0.0037538 0)
(0.213298 -0.00324702 0)
(0.223208 -0.00265636 0)
(0.231102 -0.00203242 0)
(0.2368 -0.00135578 0)
(0.240186 -0.000666082 0)
(0.241231 2.19916e-05 0)
(0.239959 0.000748006 0)
(0.236171 0.00145575 0)
(0.230099 0.00213294 0)
(0.22184 0.00277809 0)
(0.211538 0.00335149 0)
(0.199261 0.00391193 0)
(0.185296 0.00439245 0)
(0.169857 0.00480571 0)
(0.15307 0.00516493 0)
(0.135253 0.00542208 0)
(0.116632 0.00563745 0)
(0.0974426 0.00576069 0)
(0.0780075 0.00579453 0)
(0.0585432 0.00578896 0)
(0.0392997 0.00567631 0)
(0.020467 0.0055253 0)
(0.00224136 0.00531173 0)
(-0.0151881 0.00505668 0)
(-0.0317202 0.00479433 0)
(-0.0472875 0.00447362 0)
(-0.0618047 0.00415587 0)
(-0.0751981 0.00383733 0)
(-0.0874803 0.00348414 0)
(-0.098649 0.00316476 0)
(-0.108715 0.00283297 0)
(-0.117696 0.00251655 0)
(-0.125647 0.00220744 0)
(-0.132588 0.00191796 0)
(-0.138513 0.00161968 0)
(-0.143525 0.00134136 0)
(-0.147614 0.00110671 0)
(-0.150832 0.00083278 0)
(-0.153256 0.000600012 0)
(-0.154858 0.000361099 0)
(-0.1557 0.000148383 0)
(-0.155849 -6.61372e-05 0)
(-0.15533 -0.000270518 0)
(-0.154134 -0.000426293 0)
(-0.152317 -0.000629879 0)
(-0.149935 -0.000784973 0)
(-0.146953 -0.00098211 0)
(-0.143421 -0.00113041 0)
(-0.139305 -0.00130437 0)
(-0.134667 -0.00147115 0)
(-0.129436 -0.00163396 0)
(-0.123635 -0.00180729 0)
(-0.117259 -0.00200297 0)
(-0.110231 -0.00216286 0)
(-0.102612 -0.00239003 0)
(-0.0942184 -0.0025939 0)
(-0.0850563 -0.00283978 0)
(-0.0751364 -0.00306611 0)
(-0.064413 -0.00331205 0)
(-0.0529008 -0.00356677 0)
(-0.0405469 -0.00377101 0)
(-0.0273846 -0.00403629 0)
(-0.0134482 -0.00425732 0)
(0.00126952 -0.00448841 0)
(0.0167683 -0.00469332 0)
(0.0329009 -0.00488947 0)
(0.0495883 -0.00503789 0)
(0.0667198 -0.00515953 0)
(0.0841314 -0.00519693 0)
(0.101663 -0.00521825 0)
(0.119082 -0.00514853 0)
(0.136149 -0.005001 0)
(0.152662 -0.00478741 0)
(0.168314 -0.00450386 0)
(0.182839 -0.00412333 0)
(0.195963 -0.00367728 0)
(0.207437 -0.00313 0)
(0.216974 -0.00253173 0)
(0.224366 -0.00185974 0)
(0.229415 -0.00113914 0)
(0.231964 -0.000388581 0)
(0.231955 0.000391439 0)
(0.229217 0.0011899 0)
(0.223875 0.00195977 0)
(0.216124 0.0026532 0)
(0.206078 0.00332201 0)
(0.193914 0.00391136 0)
(0.179828 0.00443305 0)
(0.164215 0.0048549 0)
(0.147279 0.00519837 0)
(0.129331 0.00545235 0)
(0.110764 0.00560906 0)
(0.0917952 0.00567654 0)
(0.0727105 0.00566686 0)
(0.0537656 0.00559956 0)
(0.0351772 0.00547219 0)
(0.0171143 0.00528353 0)
(-0.000290898 0.00506232 0)
(-0.0168701 0.00480653 0)
(-0.0325592 0.00453981 0)
(-0.0472933 0.00423973 0)
(-0.0610358 0.00393553 0)
(-0.0737834 0.00363388 0)
(-0.0854799 0.00335213 0)
(-0.0962015 0.00303004 0)
(-0.105974 0.00275301 0)
(-0.114717 0.00249207 0)
(-0.122602 0.00220422 0)
(-0.129655 0.0019621 0)
(-0.135821 0.00174454 0)
(-0.14126 0.00149938 0)
(-0.14601 0.00128586 0)
(-0.150001 0.00111463 0)
(-0.153355 0.00090189 0)
(-0.156143 0.000729322 0)
(-0.158301 0.000569769 0)
(-0.159868 0.000381561 0)
(-0.160877 0.000221643 0)
(-0.16135 5.80295e-05 0)
(-0.161227 -0.000112083 0)
(-0.160543 -0.00028858 0)
(-0.159337 -0.000478876 0)
(-0.157437 -0.000633509 0)
(-0.154907 -0.000836067 0)
(-0.151819 -0.00104731 0)
(-0.147978 -0.00122271 0)
(-0.143374 -0.00149799 0)
(-0.137988 -0.00169778 0)
(-0.131828 -0.00195984 0)
(-0.124803 -0.00221388 0)
(-0.116926 -0.00247921 0)
(-0.108145 -0.00274586 0)
(-0.0984536 -0.00302156 0)
(-0.0878953 -0.00327463 0)
(-0.076343 -0.00359946 0)
(-0.0638168 -0.00384325 0)
(-0.0503758 -0.00415785 0)
(-0.0359876 -0.00439706 0)
(-0.020762 -0.00463319 0)
(-0.00480217 -0.00484134 0)
(0.0117907 -0.00502563 0)
(0.0288915 -0.00514612 0)
(0.0463573 -0.00524746 0)
(0.0640218 -0.00525369 0)
(0.0816857 -0.0052388 0)
(0.0991632 -0.00514574 0)
(0.116186 -0.0049787 0)
(0.132555 -0.00474693 0)
(0.148001 -0.00443379 0)
(0.162278 -0.00404812 0)
(0.175164 -0.00358552 0)
(0.186384 -0.0030773 0)
(0.195729 -0.00247697 0)
(0.203009 -0.00184887 0)
(0.208108 -0.00117704 0)
(0.210875 -0.000472091 0)
(0.211306 0.000217508 0)
(0.209307 0.000946037 0)
(0.204859 0.00164672 0)
(0.198221 0.0023215 0)
(0.189365 0.00294416 0)
(0.178436 0.00352971 0)
(0.165712 0.00401856 0)
(0.151505 0.00443614 0)
(0.136004 0.00477859 0)
(0.119462 0.00505083 0)
(0.102159 0.00523755 0)
(0.0843063 0.00537882 0)
(0.0661586 0.00543009 0)
(0.0478919 0.00542917 0)
(0.0297429 0.00536221 0)
(0.0119203 0.00524941 0)
(-0.0054631 0.00509936 0)
(-0.0222646 0.00489942 0)
(-0.0383126 0.0046616 0)
(-0.0535364 0.00440991 0)
(-0.0678584 0.00412867 0)
(-0.0811931 0.00381531 0)
(-0.0935489 0.00353503 0)
(-0.10487 0.00323034 0)
(-0.115216 0.0029081 0)
(-0.124509 0.00266136 0)
(-0.132852 0.00231311 0)
(-0.140237 0.00207007 0)
(-0.146621 0.00177737 0)
(-0.15217 0.0015092 0)
(-0.156741 0.00125158 0)
(-0.160528 0.00100515 0)
(-0.163566 0.000797128 0)
(-0.165834 0.000547727 0)
(-0.167447 0.00036692 0)
(-0.168319 0.000158507 0)
(-0.168588 -2.55076e-05 0)
(-0.168304 -0.000181075 0)
(-0.167474 -0.000391935 0)
(-0.166013 -0.000534012 0)
(-0.164059 -0.000681567 0)
(-0.161523 -0.000903913 0)
(-0.158333 -0.00105584 0)
(-0.154567 -0.00129273 0)
(-0.150015 -0.00149121 0)
(-0.144707 -0.00170675 0)
(-0.13865 -0.00199648 0)
(-0.131626 -0.00224817 0)
(-0.123674 -0.00251328 0)
(-0.114807 -0.00284812 0)
(-0.104828 -0.00315183 0)
(-0.0937883 -0.00344145 0)
(-0.0816872 -0.00381042 0)
(-0.0685413 -0.0041105 0)
(-0.0542215 -0.00446379 0)
(-0.0387969 -0.00473733 0)
(-0.0225872 -0.00498371 0)
(-0.00502395 -0.00529393 0)
(0.0136979 -0.00548279 0)
(0.0326975 -0.00559147 0)
(0.0519777 -0.00574913 0)
(0.0714464 -0.00574634 0)
(0.0908642 -0.00576426 0)
(0.110039 -0.0056239 0)
(0.128644 -0.00538846 0)
(0.146387 -0.00514505 0)
(0.163042 -0.00476038 0)
(0.178309 -0.00429127 0)
(0.191909 -0.00378864 0)
(0.203623 -0.00318524 0)
(0.213226 -0.00254396 0)
(0.220545 -0.00184109 0)
(0.225447 -0.00110395 0)
(0.227801 -0.000355171 0)
(0.227732 0.00038421 0)
(0.225198 0.00114057 0)
(0.22019 0.00182552 0)
(0.2129 0.00250142 0)
(0.203446 0.00308115 0)
(0.192035 0.00365239 0)
(0.178859 0.00417525 0)
(0.164147 0.00453867 0)
(0.148169 0.00491069 0)
(0.13116 0.00521881 0)
(0.113364 0.00535309 0)
(0.0950342 0.00551381 0)
(0.0763841 0.00561131 0)
(0.0576236 0.00555467 0)
(0.0389197 0.00553342 0)
(0.020468 0.00538017 0)
(0.0025484 0.00526171 0)
(-0.0147752 0.00510895 0)
(-0.0315097 0.00486004 0)
(-0.0475165 0.00465052 0)
(-0.0627098 0.00441421 0)
(-0.0770242 0.00411664 0)
(-0.0904165 0.00385125 0)
(-0.102853 0.0035429 0)
(-0.114315 0.00326325 0)
(-0.124793 0.00297702 0)
(-0.134283 0.00267282 0)
(-0.142795 0.00238992 0)
(-0.150345 0.00210924 0)
(-0.156952 0.00182755 0)
(-0.162644 0.0015621 0)
(-0.167452 0.00130175 0)
(-0.171411 0.00105565 0)
(-0.174556 0.000819268 0)
(-0.176923 0.000592842 0)
(-0.178549 0.000375984 0)
(-0.179437 0.000168525 0)
(-0.0526437 -0.00734162 0)
(-0.0390089 -0.00785989 0)
(-0.022695 -0.00824138 0)
(-0.00562962 -0.0085856 0)
(0.011999 -0.00898903 0)
(0.0302892 -0.00918552 0)
(0.0490641 -0.00946648 0)
(0.0681154 -0.0094878 0)
(0.0872268 -0.00939583 0)
(0.106179 -0.00937169 0)
(0.124732 -0.00904511 0)
(0.142622 -0.00859141 0)
(0.159589 -0.00816378 0)
(0.17536 -0.00745806 0)
(0.189687 -0.0067429 0)
(0.202312 -0.00580625 0)
(0.213017 -0.00478287 0)
(0.221609 -0.00371211 0)
(0.227923 -0.00254091 0)
(0.231857 -0.0013271 0)
(0.233301 -0.000102994 0)
(0.232319 0.00110493 0)
(0.228782 0.00235475 0)
(0.22287 0.00349671 0)
(0.214686 0.00462049 0)
(0.204368 0.00556949 0)
(0.192129 0.00650498 0)
(0.178175 0.00735459 0)
(0.162744 0.00792036 0)
(0.146114 0.00850744 0)
(0.128534 0.00897944 0)
(0.110255 0.0091404 0)
(0.0915392 0.00934858 0)
(0.0726015 0.00927524 0)
(0.0536809 0.00925819 0)
(0.0349063 0.00912244 0)
(0.0165372 0.00879538 0)
(-0.00077315 0.00853216 0)
(-0.0172582 0.00817652 0)
(-0.033186 0.00770462 0)
(-0.0482611 0.00727759 0)
(-0.0624072 0.00676637 0)
(-0.0755899 0.00629883 0)
(-0.0877852 0.00581653 0)
(-0.0989845 0.0053045 0)
(-0.109202 0.00482907 0)
(-0.118454 0.00435651 0)
(-0.12676 0.00388397 0)
(-0.134154 0.00343921 0)
(-0.140663 0.00300498 0)
(-0.146319 0.00258406 0)
(-0.151156 0.00217754 0)
(-0.155216 0.00178785 0)
(-0.158521 0.00141508 0)
(-0.161079 0.00104875 0)
(-0.162946 0.000684261 0)
(-0.164099 0.00035998 0)
(-0.164556 1.7916e-05 0)
(-0.164294 -0.00035175 0)
(-0.163314 -0.000684852 0)
(-0.16161 -0.00106639 0)
(-0.159195 -0.00140025 0)
(-0.156048 -0.00175515 0)
(-0.15213 -0.00219084 0)
(-0.147341 -0.0025457 0)
(-0.141745 -0.00293912 0)
(-0.135335 -0.00343744 0)
(-0.128024 -0.00386901 0)
(-0.119699 -0.00434999 0)
(-0.110331 -0.00484014 0)
(-0.100165 -0.00528747 0)
(-0.0890392 -0.00583963 0)
(-0.0767329 -0.006281 0)
(-0.0635511 -0.00670641 0)
(-0.0496658 -0.0072222 0)
(-0.0347455 -0.00758877 0)
(-0.0191051 -0.00798314 0)
(-0.00251995 -0.0083495 0)
(0.0148469 -0.00859405 0)
(0.0323983 -0.00886529 0)
(0.0503953 -0.00900416 0)
(0.0686072 -0.0091023 0)
(0.0868577 -0.00912086 0)
(0.105112 -0.00900925 0)
(0.123093 -0.00887666 0)
(0.140621 -0.00856684 0)
(0.157497 -0.00815875 0)
(0.173452 -0.00767491 0)
(0.188275 -0.00703022 0)
(0.201678 -0.00626257 0)
(0.213421 -0.00541381 0)
(0.223342 -0.00442576 0)
(0.231238 -0.00338345 0)
(0.236942 -0.00227036 0)
(0.240341 -0.00110603 0)
(0.241386 4.12307e-05 0)
(0.24008 0.0012449 0)
(0.2363 0.00242717 0)
(0.230222 0.00355433 0)
(0.221947 0.00462474 0)
(0.211642 0.00559585 0)
(0.199348 0.00652968 0)
(0.185367 0.00731583 0)
(0.169919 0.00801737 0)
(0.153114 0.00861017 0)
(0.135275 0.00905283 0)
(0.116626 0.00939559 0)
(0.0974159 0.00961133 0)
(0.0779544 0.00966154 0)
(0.0584654 0.00964214 0)
(0.0392174 0.00946286 0)
(0.0203707 0.00921527 0)
(0.0021218 0.00885902 0)
(-0.0153089 0.00842731 0)
(-0.0318466 0.0079999 0)
(-0.0474307 0.00745691 0)
(-0.0619481 0.00691941 0)
(-0.0753468 0.00639378 0)
(-0.0876249 0.00580963 0)
(-0.0987878 0.00527512 0)
(-0.108855 0.00472637 0)
(-0.117835 0.00418981 0)
(-0.125783 0.00367613 0)
(-0.13272 0.00319714 0)
(-0.138637 0.00270575 0)
(-0.143643 0.00224791 0)
(-0.147751 0.00182818 0)
(-0.15096 0.00137671 0)
(-0.153364 0.0010085 0)
(-0.154972 0.000610929 0)
(-0.155815 0.000240345 0)
(-0.155951 -0.000112553 0)
(-0.155427 -0.000435551 0)
(-0.154241 -0.000721935 0)
(-0.152421 -0.0010434 0)
(-0.150046 -0.00132619 0)
(-0.147046 -0.00162959 0)
(-0.143511 -0.00188356 0)
(-0.139406 -0.00217832 0)
(-0.134762 -0.00244499 0)
(-0.12955 -0.00272958 0)
(-0.12374 -0.0030093 0)
(-0.117359 -0.00333192 0)
(-0.110345 -0.00362049 0)
(-0.102719 -0.00398006 0)
(-0.094341 -0.00432602 0)
(-0.0851697 -0.00472181 0)
(-0.075262 -0.00511953 0)
(-0.0645362 -0.00551909 0)
(-0.0530119 -0.00592605 0)
(-0.0406679 -0.00630065 0)
(-0.0274947 -0.00671683 0)
(-0.0135748 -0.00711048 0)
(0.00115913 -0.00748067 0)
(0.016651 -0.00782524 0)
(0.0327933 -0.00815954 0)
(0.0495015 -0.00839649 0)
(0.0666499 -0.00859274 0)
(0.0840658 -0.00867789 0)
(0.101618 -0.00868279 0)
(0.119053 -0.00858679 0)
(0.136139 -0.00835435 0)
(0.152688 -0.00797807 0)
(0.168371 -0.00750826 0)
(0.182913 -0.00687917 0)
(0.196056 -0.00612185 0)
(0.207543 -0.00523806 0)
(0.217114 -0.00420589 0)
(0.22451 -0.00310209 0)
(0.229564 -0.00190666 0)
(0.232134 -0.000643866 0)
(0.232115 0.00065531 0)
(0.229354 0.0019729 0)
(0.224027 0.00326326 0)
(0.216264 0.00443529 0)
(0.20619 0.00553861 0)
(0.19401 0.00651759 0)
(0.179911 0.00740503 0)
(0.164268 0.00809608 0)
(0.147299 0.00866862 0)
(0.129334 0.00908153 0)
(0.110746 0.00935562 0)
(0.0917569 0.00946388 0)
(0.0726511 0.00946041 0)
(0.0536767 0.00932108 0)
(0.035076 0.00911936 0)
(0.0170128 0.00881231 0)
(-0.000400201 0.00844961 0)
(-0.0169926 0.00800688 0)
(-0.0326936 0.00756742 0)
(-0.0474349 0.00706846 0)
(-0.0611781 0.00655423 0)
(-0.0739113 0.00604947 0)
(-0.085612 0.00559611 0)
(-0.0963342 0.00504836 0)
(-0.106096 0.0045931 0)
(-0.114847 0.00414648 0)
(-0.122729 0.0036693 0)
(-0.129768 0.00326853 0)
(-0.135937 0.00291045 0)
(-0.141379 0.00249292 0)
(-0.146109 0.00214729 0)
(-0.150103 0.00187101 0)
(-0.153466 0.00149502 0)
(-0.156243 0.00121698 0)
(-0.158403 0.000947688 0)
(-0.159973 0.000636199 0)
(-0.160984 0.000364013 0)
(-0.161453 9.48728e-05 0)
(-0.161326 -0.000184637 0)
(-0.160651 -0.000490624 0)
(-0.159426 -0.000789186 0)
(-0.157525 -0.00104772 0)
(-0.155005 -0.00138968 0)
(-0.151922 -0.00174002 0)
(-0.148103 -0.00205231 0)
(-0.143492 -0.00248212 0)
(-0.138119 -0.00285237 0)
(-0.131955 -0.00326381 0)
(-0.124933 -0.00369092 0)
(-0.117052 -0.00412519 0)
(-0.108263 -0.00457023 0)
(-0.098578 -0.00503828 0)
(-0.0880231 -0.00546453 0)
(-0.0764858 -0.00600595 0)
(-0.0639494 -0.00641197 0)
(-0.050496 -0.00692574 0)
(-0.0361071 -0.00732557 0)
(-0.0208688 -0.00771958 0)
(-0.00490892 -0.00808067 0)
(0.0117023 -0.00837048 0)
(0.0288148 -0.00857961 0)
(0.046294 -0.00873696 0)
(0.0639546 -0.00877661 0)
(0.0816389 -0.00873188 0)
(0.0991375 -0.00858443 0)
(0.116199 -0.00830205 0)
(0.132595 -0.0079142 0)
(0.148062 -0.00738957 0)
(0.162347 -0.00675563 0)
(0.17525 -0.00598858 0)
(0.186506 -0.00511125 0)
(0.195857 -0.00413735 0)
(0.203145 -0.00308077 0)
(0.208248 -0.00196077 0)
(0.211021 -0.000790132 0)
(0.211451 0.000361006 0)
(0.209439 0.00158033 0)
(0.204992 0.00274962 0)
(0.198335 0.00386471 0)
(0.189478 0.00491277 0)
(0.178529 0.0058845 0)
(0.165785 0.0066999 0)
(0.15156 0.00740076 0)
(0.136047 0.00796548 0)
(0.119479 0.00842999 0)
(0.10215 0.00872956 0)
(0.084271 0.00896833 0)
(0.066103 0.00903827 0)
(0.0478328 0.0090555 0)
(0.029667 0.0089451 0)
(0.0118317 0.00875269 0)
(-0.00555747 0.00849752 0)
(-0.0223708 0.00817366 0)
(-0.0384214 0.00776195 0)
(-0.053647 0.00735743 0)
(-0.0679794 0.00688463 0)
(-0.0813193 0.00635836 0)
(-0.0936658 0.00589089 0)
(-0.104991 0.00538729 0)
(-0.115313 0.00484561 0)
(-0.124613 0.00443826 0)
(-0.132954 0.00385893 0)
(-0.140326 0.00344979 0)
(-0.146712 0.00296128 0)
(-0.152253 0.00251359 0)
(-0.156823 0.00208742 0)
(-0.160599 0.00167237 0)
(-0.163635 0.00133319 0)
(-0.165904 0.000909029 0)
(-0.167511 0.000611318 0)
(-0.168382 0.000266902 0)
(-0.168645 -4.62699e-05 0)
(-0.168359 -0.000302709 0)
(-0.167528 -0.000654415 0)
(-0.166057 -0.000887356 0)
(-0.164113 -0.00113782 0)
(-0.161577 -0.00150732 0)
(-0.158384 -0.00175579 0)
(-0.154625 -0.00215566 0)
(-0.150076 -0.00248629 0)
(-0.144772 -0.00284173 0)
(-0.13872 -0.00332758 0)
(-0.131699 -0.0037463 0)
(-0.123751 -0.00418876 0)
(-0.114888 -0.00474668 0)
(-0.104912 -0.00525387 0)
(-0.093872 -0.00573026 0)
(-0.0817729 -0.00635027 0)
(-0.0686249 -0.00684865 0)
(-0.0542989 -0.00743801 0)
(-0.0388729 -0.00789897 0)
(-0.022658 -0.00830641 0)
(-0.00508435 -0.00882535 0)
(0.0136505 -0.00914011 0)
(0.0326653 -0.00932112 0)
(0.0519621 -0.00958583 0)
(0.0714485 -0.00957986 0)
(0.0908878 -0.00960994 0)
(0.110084 -0.00937772 0)
(0.128709 -0.00898406 0)
(0.146476 -0.00857797 0)
(0.163152 -0.00793845 0)
(0.178439 -0.00715392 0)
(0.192059 -0.00631701 0)
(0.203789 -0.00531245 0)
(0.213408 -0.0042386 0)
(0.220736 -0.00307225 0)
(0.225646 -0.00184238 0)
(0.228011 -0.000591029 0)
(0.22793 0.00063981 0)
(0.225375 0.00190094 0)
(0.220368 0.0030425 0)
(0.213069 0.00417102 0)
(0.203599 0.00513778 0)
(0.192173 0.0060902 0)
(0.17898 0.00696191 0)
(0.164247 0.00756761 0)
(0.148249 0.00818772 0)
(0.131222 0.00870126 0)
(0.113406 0.00892478 0)
(0.0950588 0.00919256 0)
(0.0763922 0.00935487 0)
(0.0576166 0.00926007 0)
(0.0388988 0.00922452 0)
(0.0204352 0.0089692 0)
(0.00250487 0.00877064 0)
(-0.014827 0.00851617 0)
(-0.0315677 0.00810113 0)
(-0.047581 0.00775175 0)
(-0.0627796 0.00735772 0)
(-0.0770966 0.00686156 0)
(-0.090492 0.00641909 0)
(-0.102929 0.00590503 0)
(-0.114393 0.00543882 0)
(-0.124871 0.00496165 0)
(-0.13436 0.00445454 0)
(-0.142871 0.00398295 0)
(-0.150419 0.00351507 0)
(-0.157023 0.00304551 0)
(-0.162714 0.00260305 0)
(-0.167519 0.00216909 0)
(-0.171475 0.00175891 0)
(-0.174618 0.00136492 0)
(-0.176981 0.000987478 0)
(-0.178603 0.00062648 0)
(-0.179492 0.00028035 0)
(-0.0527534 -0.0102794 0)
(-0.0391147 -0.0110057 0)
(-0.0227926 -0.0115406 0)
(-0.00571374 -0.0120225 0)
(0.0119304 -0.0125881 0)
(0.0302378 -0.0128641 0)
(0.0490324 -0.0132584 0)
(0.0681077 -0.0132888 0)
(0.087245 -0.0131605 0)
(0.106227 -0.0131274 0)
(0.124809 -0.0126703 0)
(0.142728 -0.0120351 0)
(0.15973 -0.0114366 0)
(0.17553 -0.0104482 0)
(0.18989 -0.00944664 0)
(0.20254 -0.00813454 0)
(0.213265 -0.00670088 0)
(0.22188 -0.00520093 0)
(0.228206 -0.00356104 0)
(0.232149 -0.00186261 0)
(0.23361 -0.000145207 0)
(0.2326 0.0015586 0)
(0.229063 0.00329992 0)
(0.223139 0.00489888 0)
(0.214939 0.00647353 0)
(0.204594 0.00780293 0)
(0.192331 0.00911333 0)
(0.178349 0.0103036 0)
(0.162885 0.0110955 0)
(0.146225 0.0119176 0)
(0.128614 0.0125784 0)
(0.110303 0.0128033 0)
(0.0915589 0.0130944 0)
(0.0725956 0.0129909 0)
(0.0536492 0.012967 0)
(0.0348529 0.0127757 0)
(0.0164708 0.0123211 0)
(-0.000856946 0.0119442 0)
(-0.017356 0.011449 0)
(-0.0332904 0.0107884 0)
(-0.048373 0.0101899 0)
(-0.0625222 0.00947364 0)
(-0.0757076 0.0088187 0)
(-0.0879038 0.00814307 0)
(-0.0991013 0.00742608 0)
(-0.109317 0.00676036 0)
(-0.118566 0.00609874 0)
(-0.126869 0.00543718 0)
(-0.134259 0.00481437 0)
(-0.140764 0.00420663 0)
(-0.146416 0.00361755 0)
(-0.151249 0.00304923 0)
(-0.155306 0.00250487 0)
(-0.158608 0.00197985 0)
(-0.161165 0.00146914 0)
(-0.163027 0.000958252 0)
(-0.164188 0.000506041 0)
(-0.16464 1.80277e-05 0)
(-0.164376 -0.000493051 0)
(-0.163395 -0.000958771 0)
(-0.161694 -0.00149285 0)
(-0.159281 -0.00195932 0)
(-0.156137 -0.00245772 0)
(-0.152223 -0.00306746 0)
(-0.147437 -0.00356282 0)
(-0.141847 -0.00411412 0)
(-0.135445 -0.0048137 0)
(-0.128133 -0.00541803 0)
(-0.11981 -0.00608647 0)
(-0.110447 -0.00678012 0)
(-0.100289 -0.00740075 0)
(-0.0891581 -0.00818135 0)
(-0.0768385 -0.00879011 0)
(-0.0636719 -0.0093905 0)
(-0.0497766 -0.0101165 0)
(-0.0348381 -0.0106245 0)
(-0.0192004 -0.0111934 0)