/*--------------------------------*- C++ -*----------------------------------*\
| =========                 |                                                 |
| \\      /  F ield         | OpenFOAM: The Open Source CFD Toolbox           |
|  \\    /   O peration     | Version:  3.0.1                                 |
|   \\  /    A nd           | Web:      www.OpenFOAM.org                      |
|    \\/     M anipulation  |                                                 |
\*---------------------------------------------------------------------------*/
FoamFile
{
    version     2.0;
    format      ascii;
    class       volVectorField;
    location    "12.2";
    object      U;
}
// * * * * * * * * * * * * * * * * * * * * * * * * * * * * * * * * * * * * * //

dimensions      [0 1 -1 0 0 0 0];

internalField   nonuniform List<vector> 
21420
(
(-0.0231833 0.00170048 0)
(-0.0372505 0.00160858 0)
(-0.0529298 0.00153091 0)
(-0.0678068 0.00144488 0)
(-0.0817805 0.00133996 0)
(-0.0947978 0.00124681 0)
(-0.106836 0.00114184 0)
(-0.117887 0.00104749 0)
(-0.127962 0.000952884 0)
(-0.137071 0.000854704 0)
(-0.145241 0.000764561 0)
(-0.152501 0.000676483 0)
(-0.158879 0.000589106 0)
(-0.164409 0.000507254 0)
(-0.169122 0.000426935 0)
(-0.173046 0.000350505 0)
(-0.17621 0.000275863 0)
(-0.178641 0.000202268 0)
(-0.180359 0.000130279 0)
(-0.18133 6.31829e-05 0)
(-0.181636 -4.7422e-06 0)
(-0.181226 -7.56803e-05 0)
(-0.180106 -0.000147019 0)
(-0.178273 -0.000219051 0)
(-0.175716 -0.000291568 0)
(-0.172419 -0.000366821 0)
(-0.168364 -0.00044242 0)
(-0.163519 -0.000520514 0)
(-0.157863 -0.000604667 0)
(-0.151373 -0.000688001 0)
(-0.144015 -0.000773296 0)
(-0.13575 -0.000868902 0)
(-0.126548 -0.000959031 0)
(-0.116377 -0.0010633 0)
(-0.105218 -0.00115575 0)
(-0.0930569 -0.00124841 0)
(-0.0798702 -0.00136037 0)
(-0.065658 -0.00144713 0)
(-0.0505016 -0.00152849 0)
(-0.0344187 -0.00163244 0)
(-0.0175008 -0.00169662 0)
(-0.000120971 -0.00178387 0)
(0.0178085 -0.00182559 0)
(0.0363202 -0.00184579 0)
(0.0550959 -0.00188076 0)
(0.0739715 -0.00186722 0)
(0.0926881 -0.0018271 0)
(0.110994 -0.00178775 0)
(0.128671 -0.00170545 0)
(0.145448 -0.00159469 0)
(0.161059 -0.00147643 0)
(0.175296 -0.00131901 0)
(0.187895 -0.00115022 0)
(0.198661 -0.000963346 0)
(0.207426 -0.00075059 0)
(0.214041 -0.00053143 0)
(0.218393 -0.000302304 0)
(0.220307 -5.89439e-05 0)
(0.219834 0.000165131 0)
(0.216838 0.000408013 0)
(0.211531 0.000625207 0)
(0.204011 0.000840859 0)
(0.194298 0.00105072 0)
(0.182611 0.00122141 0)
(0.16918 0.00138857 0)
(0.154333 0.00154152 0)
(0.138184 0.00164891 0)
(0.120892 0.00174364 0)
(0.10286 0.00180397 0)
(0.0842365 0.0018536 0)
(0.0652627 0.00187351 0)
(0.0462179 0.00186914 0)
(0.027242 0.00186273 0)
(0.00887725 0.00182974 0)
(-0.00906998 0.00178219 0)
(-0.0267688 0.00172569 0)
(-0.0437786 0.0016488 0)
(-0.0601066 0.00157498 0)
(-0.075622 0.00148235 0)
(-0.0901723 0.00139214 0)
(-0.103729 0.00129466 0)
(-0.116243 0.00118248 0)
(-0.127681 0.00107868 0)
(-0.138034 0.000971506 0)
(-0.147299 0.00085703 0)
(-0.155476 0.00074622 0)
(-0.162524 0.000648095 0)
(-0.16843 0.000533256 0)
(-0.173331 0.000431057 0)
(-0.177231 0.000331546 0)
(-0.180109 0.000237828 0)
(-0.182034 0.000149858 0)
(-0.183102 6.56888e-05 0)
(-0.183446 -1.07896e-05 0)
(-0.182944 -8.23492e-05 0)
(-0.181719 -0.000152806 0)
(-0.179885 -0.00021364 0)
(-0.177399 -0.000271035 0)
(-0.174358 -0.000332374 0)
(-0.170786 -0.000386164 0)
(-0.166615 -0.000438247 0)
(-0.161847 -0.000494513 0)
(-0.156553 -0.000554237 0)
(-0.150632 -0.000619672 0)
(-0.14407 -0.000679773 0)
(-0.136902 -0.000754107 0)
(-0.12896 -0.00082117 0)
(-0.120206 -0.000899753 0)
(-0.110702 -0.000985144 0)
(-0.100318 -0.00106531 0)
(-0.0890974 -0.00115572 0)
(-0.0769893 -0.0012491 0)
(-0.0639659 -0.00133943 0)
(-0.0500063 -0.00142226 0)
(-0.0351859 -0.00151373 0)
(-0.0195196 -0.00159473 0)
(-0.00306165 -0.00167029 0)
(0.0141205 -0.00172855 0)
(0.0318828 -0.0017829 0)
(0.0500722 -0.00181662 0)
(0.0684719 -0.00183614 0)
(0.0869186 -0.00182084 0)
(0.105134 -0.0017847 0)
(0.122794 -0.00172359 0)
(0.139651 -0.00161554 0)
(0.155368 -0.00148586 0)
(0.169615 -0.00133351 0)
(0.182112 -0.00114496 0)
(0.192596 -0.000934514 0)
(0.200855 -0.00070237 0)
(0.206709 -0.000455934 0)
(0.21004 -0.000203872 0)
(0.210832 4.16428e-05 0)
(0.209145 0.000293961 0)
(0.204863 0.000536616 0)
(0.198327 0.000757711 0)
(0.189653 0.000965159 0)
(0.179019 0.00114684 0)
(0.166667 0.00129764 0)
(0.152877 0.00143319 0)
(0.137877 0.00153862 0)
(0.121927 0.00162121 0)
(0.105281 0.00167926 0)
(0.0881714 0.00171338 0)
(0.0707986 0.00172889 0)
(0.0533496 0.0017306 0)
(0.0360089 0.00171381 0)
(0.0189079 0.00168142 0)
(0.0021658 0.00164242 0)
(-0.0141381 0.00159423 0)
(-0.0298979 0.00153495 0)
(-0.0450321 0.00146993 0)
(-0.0595285 0.00140128 0)
(-0.0733168 0.0013306 0)
(-0.0863569 0.00126133 0)
(-0.0986487 0.00118063 0)
(-0.110165 0.00110133 0)
(-0.120868 0.00102009 0)
(-0.130737 0.000937764 0)
(-0.139778 0.000855807 0)
(-0.147978 0.000770961 0)
(-0.1553 0.000684939 0)
(-0.161763 0.000599642 0)
(-0.167359 0.00051074 0)
(-0.17206 0.000423653 0)
(-0.175886 0.000336464 0)
(-0.178838 0.000253006 0)
(-0.180922 0.000161394 0)
(-0.182116 7.87344e-05 0)
(-0.182495 -7.08928e-06 0)
(-0.181978 -8.97058e-05 0)
(-0.1806 -0.000175759 0)
(-0.17839 -0.000263517 0)
(-0.17532 -0.00034615 0)
(-0.171392 -0.000431518 0)
(-0.16661 -0.000517019 0)
(-0.160967 -0.000598794 0)
(-0.154484 -0.000686977 0)
(-0.147136 -0.000772433 0)
(-0.138914 -0.00085275 0)
(-0.129868 -0.000939344 0)
(-0.120008 -0.00102496 0)
(-0.109299 -0.00110004 0)
(-0.0977538 -0.00118071 0)
(-0.0854555 -0.00125685 0)
(-0.0724064 -0.00132962 0)
(-0.058658 -0.00139947 0)
(-0.0442285 -0.00145791 0)
(-0.0292212 -0.00151468 0)
(-0.0137092 -0.00156297 0)
(0.00222976 -0.00159724 0)
(0.0184778 -0.00162597 0)
(0.0349408 -0.00163566 0)
(0.0514572 -0.00163419 0)
(0.067876 -0.00162074 0)
(0.084048 -0.00158728 0)
(0.0998099 -0.00153869 0)
(0.114991 -0.00147182 0)
(0.129415 -0.00138266 0)
(0.142879 -0.00128385 0)
(0.155237 -0.00116531 0)
(0.166307 -0.00102931 0)
(0.175935 -0.000879405 0)
(0.183989 -0.000715376 0)
(0.190347 -0.000542774 0)
(0.194923 -0.000363506 0)
(0.197644 -0.000177412 0)
(0.198475 7.2738e-06 0)
(0.197471 0.00019584 0)
(0.194513 0.000381767 0)
(0.189774 0.00055699 0)
(0.183312 0.000723997 0)
(0.175204 0.000878711 0)
(0.165611 0.00102074 0)
(0.154689 0.00114665 0)
(0.142573 0.00125513 0)
(0.129437 0.00134676 0)
(0.115488 0.00141774 0)
(0.100926 0.00147085 0)
(0.085923 0.00150349 0)
(0.0706607 0.00151647 0)
(0.0553558 0.00151892 0)
(0.0401698 0.00149939 0)
(0.0252256 0.00146592 0)
(0.0106725 0.00142099 0)
(-0.00335472 0.0013636 0)
(-0.0167568 0.00129615 0)
(-0.0294575 0.00122336 0)
(-0.0413955 0.00114474 0)
(-0.0525048 0.00106065 0)
(-0.0627566 0.000972832 0)
(-0.072118 0.000884745 0)
(-0.0805809 0.000795568 0)
(-0.0881468 0.000704492 0)
(-0.094803 0.000616784 0)
(-0.100552 0.000527662 0)
(-0.105429 0.000441224 0)
(-0.109445 0.000354609 0)
(-0.112617 0.00027215 0)
(-0.114955 0.000190956 0)
(-0.116458 0.000113018 0)
(-0.117203 3.65166e-05 0)
(-0.117188 -3.9128e-05 0)
(-0.116418 -0.000112862 0)
(-0.114919 -0.000183475 0)
(-0.112727 -0.000253598 0)
(-0.109836 -0.00031962 0)
(-0.106263 -0.000386715 0)
(-0.102036 -0.000450427 0)
(-0.0971701 -0.000513812 0)
(-0.0916858 -0.000574496 0)
(-0.0855973 -0.000631967 0)
(-0.0789359 -0.000689006 0)
(-0.0717249 -0.000743202 0)
(-0.0639858 -0.000791058 0)
(-0.0557596 -0.000838932 0)
(-0.047087 -0.000882149 0)
(-0.0380026 -0.000918657 0)
(-0.0285639 -0.000952736 0)
(-0.0188215 -0.000979881 0)
(-0.00883886 -0.00100142 0)
(0.00132874 -0.00101347 0)
(0.0115866 -0.00102294 0)
(0.0218796 -0.00102026 0)
(0.0321372 -0.00101019 0)
(0.042243 -0.000993002 0)
(0.0521211 -0.000964778 0)
(0.0616818 -0.000930086 0)
(0.0708386 -0.000885801 0)
(0.0795057 -0.000832692 0)
(0.0875918 -0.000772059 0)
(0.095028 -0.000702939 0)
(0.101748 -0.000624815 0)
(0.107671 -0.000544516 0)
(0.112739 -0.000457819 0)
(0.116903 -0.000366779 0)
(0.120147 -0.000274918 0)
(0.122462 -0.000178431 0)
(0.123813 -8.35893e-05 0)
(0.124207 8.82942e-06 0)
(0.123681 9.99592e-05 0)
(0.122231 0.000186747 0)
(0.11995 0.000271186 0)
(0.116868 0.00034926 0)
(0.113026 0.000418642 0)
(0.10851 0.000481976 0)
(0.103398 0.000537631 0)
(0.0977695 0.000583531 0)
(0.0917149 0.000622207 0)
(0.0853165 0.000650684 0)
(0.0786614 0.000671903 0)
(0.0718384 0.000685152 0)
(0.0649226 0.000688847 0)
(0.0579914 0.000686175 0)
(0.0511202 0.000678 0)
(0.0443731 0.000662224 0)
(0.0377983 0.000642386 0)
(0.0314531 0.000618636 0)
(0.0253859 0.000588015 0)
(0.0196258 0.000555429 0)
(0.0142036 0.000519334 0)
(0.00914484 0.000481848 0)
(0.00447526 0.000442468 0)
(0.000310264 0.000402383 0)
(-0.00342493 0.000363881 0)
(-0.00684534 0.000324446 0)
(-0.00988286 0.000284563 0)
(-0.0125319 0.000245416 0)
(-0.0147966 0.000207014 0)
(-0.0166848 0.000169915 0)
(-0.0182098 0.000134112 0)
(-0.019386 9.98112e-05 0)
(-0.0202289 6.71969e-05 0)
(-0.0207535 3.6369e-05 0)
(-0.0209808 6.98378e-06 0)
(-0.0209196 -2.0137e-05 0)
(-0.0205857 -4.55876e-05 0)
(-0.020004 -6.90345e-05 0)
(-0.0191949 -9.05834e-05 0)
(-0.0181775 -0.000110521 0)
(-0.0169692 -0.000128388 0)
(-0.0155884 -0.000144419 0)
(-0.0140539 -0.000158932 0)
(-0.0123842 -0.000171352 0)
(-0.0105958 -0.000182364 0)
(-0.00870474 -0.000191325 0)
(-0.00672699 -0.000198607 0)
(-0.00467269 -0.000204684 0)
(-0.00254357 -0.000208953 0)
(-0.000433954 -0.000211465 0)
(0.00166178 -0.000212893 0)
(0.00380096 -0.000212447 0)
(0.0059328 -0.000210624 0)
(0.00804225 -0.00020788 0)
(0.0101159 -0.000203534 0)
(0.0121415 -0.000198395 0)
(0.0141079 -0.000191858 0)
(0.0160048 -0.000184373 0)
(0.017823 -0.000176287 0)
(0.0195541 -0.000167165 0)
(0.0211908 -0.000157386 0)
(0.0227268 -0.000147213 0)
(0.0241567 -0.000136381 0)
(0.0254759 -0.000125295 0)
(0.0266812 -0.000113782 0)
(0.0277697 -0.000102072 0)
(0.0287398 -9.03034e-05 0)
(0.0295906 -7.84277e-05 0)
(0.030322 -6.65978e-05 0)
(0.0309346 -5.49013e-05 0)
(0.0314301 -4.33635e-05 0)
(0.0318104 -3.20799e-05 0)
(0.0320783 -2.10918e-05 0)
(0.0322373 -1.04517e-05 0)
(0.0322931 -1.95414e-07 0)
(0.0322494 9.5899e-06 0)
(0.0320677 1.89009e-05 0)
(-0.0232128 0.00510186 0)
(-0.0372818 0.00482606 0)
(-0.0529641 0.00459297 0)
(-0.0678434 0.00433482 0)
(-0.0818179 0.00401999 0)
(-0.094836 0.00374049 0)
(-0.106874 0.00342555 0)
(-0.117925 0.00314244 0)
(-0.127999 0.0028586 0)
(-0.137108 0.00256404 0)
(-0.145277 0.0022936 0)
(-0.152535 0.00202937 0)
(-0.158912 0.00176718 0)
(-0.16444 0.00152159 0)
(-0.169152 0.00128066 0)
(-0.173076 0.00105138 0)
(-0.176238 0.000827483 0)
(-0.178669 0.000606672 0)
(-0.180386 0.000390632 0)
(-0.181359 0.000189039 0)
(-0.181663 -1.27387e-05 0)
(-0.181254 -0.000227076 0)
(-0.180135 -0.000441114 0)
(-0.178303 -0.000657065 0)
(-0.175746 -0.000874682 0)
(-0.17245 -0.00110039 0)
(-0.168396 -0.00132715 0)
(-0.163553 -0.0015614 0)
(-0.157898 -0.00181378 0)
(-0.15141 -0.0020639 0)
(-0.144053 -0.0023197 0)
(-0.13579 -0.00260652 0)
(-0.126589 -0.00287692 0)
(-0.11642 -0.00318972 0)
(-0.105262 -0.00346719 0)
(-0.0931017 -0.00374503 0)
(-0.0799156 -0.00408119 0)
(-0.0657025 -0.00434152 0)
(-0.0505448 -0.0045858 0)
(-0.03446 -0.00489771 0)
(-0.0175389 -0.00509043 0)
(-0.000155014 -0.00535171 0)
(0.0177804 -0.00547724 0)
(0.0362982 -0.00553823 0)
(0.0550826 -0.00564299 0)
(0.0739657 -0.0056034 0)
(0.092692 -0.00548306 0)
(0.11101 -0.00536373 0)
(0.128697 -0.00511711 0)
(0.145485 -0.0047861 0)
(0.16111 -0.00442938 0)
(0.175352 -0.00396108 0)
(0.187963 -0.00345473 0)
(0.198744 -0.00289077 0)
(0.207522 -0.00224853 0)
(0.214144 -0.00159021 0)
(0.218502 -0.000907981 0)
(0.22042 -0.000181805 0)
(0.219945 0.000493336 0)
(0.216948 0.00122297 0)
(0.211645 0.00187542 0)
(0.204123 0.0025227 0)
(0.194405 0.00315242 0)
(0.182711 0.00366454 0)
(0.169273 0.00416695 0)
(0.154416 0.00462593 0)
(0.138255 0.00494804 0)
(0.120951 0.00523378 0)
(0.102906 0.00541378 0)
(0.0842689 0.00556124 0)
(0.0652827 0.00561976 0)
(0.046228 0.0056061 0)
(0.0272442 0.0055897 0)
(0.00886709 0.00549202 0)
(-0.0090853 0.0053481 0)
(-0.0267915 0.00518423 0)
(-0.0438155 0.00495017 0)
(-0.0601537 0.00472534 0)
(-0.0756717 0.00444778 0)
(-0.0902288 0.00417404 0)
(-0.103795 0.00388317 0)
(-0.11631 0.00354979 0)
(-0.127758 0.00323549 0)
(-0.138117 0.00290762 0)
(-0.147379 0.0025751 0)
(-0.155563 0.00224459 0)
(-0.162626 0.00193414 0)
(-0.168527 0.00159759 0)
(-0.173421 0.00129586 0)
(-0.17732 0.0010006 0)
(-0.180202 0.000714467 0)
(-0.182135 0.000441469 0)
(-0.183199 0.000190227 0)
(-0.183531 -2.73758e-05 0)
(-0.183021 -0.00023756 0)
(-0.181801 -0.000459831 0)
(-0.179965 -0.000643437 0)
(-0.177489 -0.000826201 0)
(-0.174436 -0.000994763 0)
(-0.170867 -0.001165 0)
(-0.166686 -0.00130605 0)
(-0.161932 -0.0014945 0)
(-0.156617 -0.00165615 0)
(-0.150699 -0.00185035 0)
(-0.14416 -0.00205152 0)
(-0.136971 -0.00226002 0)
(-0.12903 -0.00245982 0)
(-0.120286 -0.00270863 0)
(-0.110769 -0.00294798 0)
(-0.100407 -0.00321068 0)
(-0.0891655 -0.00346467 0)
(-0.0770539 -0.00374225 0)
(-0.0640245 -0.00401408 0)
(-0.0500764 -0.00428325 0)
(-0.0352409 -0.00453966 0)
(-0.0195694 -0.00478352 0)
(-0.00310099 -0.00500752 0)
(0.0140766 -0.00520357 0)
(0.0318547 -0.00535176 0)
(0.0500537 -0.00545824 0)
(0.0684778 -0.00550706 0)
(0.0869365 -0.00546982 0)
(0.105167 -0.00535123 0)
(0.122849 -0.00516182 0)
(0.1397 -0.00486346 0)
(0.155442 -0.00447643 0)
(0.169719 -0.00399311 0)
(0.182224 -0.00343471 0)
(0.192718 -0.00280146 0)
(0.200985 -0.00210566 0)
(0.206844 -0.00137242 0)
(0.210183 -0.000621298 0)
(0.21098 0.000129167 0)
(0.209269 0.000881464 0)
(0.204993 0.00161215 0)
(0.19845 0.00227387 0)
(0.189759 0.00288801 0)
(0.179119 0.00343203 0)
(0.166767 0.00390886 0)
(0.152953 0.00430104 0)
(0.137943 0.00462035 0)
(0.121978 0.00486447 0)
(0.10532 0.00504075 0)
(0.0882006 0.00514125 0)
(0.0708127 0.00518767 0)
(0.0533528 0.00518968 0)
(0.0360074 0.00514619 0)
(0.0188982 0.00504503 0)
(0.00214332 0.00492409 0)
(-0.0141709 0.00477109 0)
(-0.0299289 0.00460332 0)
(-0.0450626 0.00441649 0)
(-0.0595586 0.00421105 0)
(-0.0733636 0.00399471 0)
(-0.0864153 0.00377273 0)
(-0.0986985 0.00354457 0)
(-0.110214 0.00330924 0)
(-0.120917 0.0030656 0)
(-0.130792 0.00281971 0)
(-0.139839 0.0025645 0)
(-0.148037 0.00231342 0)
(-0.155366 0.00205542 0)
(-0.16183 0.00179275 0)
(-0.167421 0.00153436 0)
(-0.172126 0.00127039 0)
(-0.175957 0.00100916 0)
(-0.178911 0.00075027 0)
(-0.180984 0.000492029 0)
(-0.182184 0.000236102 0)
(-0.182564 -2.28784e-05 0)
(-0.18205 -0.000274999 0)
(-0.180675 -0.000530854 0)
(-0.178455 -0.000783686 0)
(-0.175386 -0.00103731 0)
(-0.17146 -0.00129524 0)
(-0.166677 -0.00155176 0)
(-0.161042 -0.00180847 0)
(-0.154547 -0.00205655 0)
(-0.147195 -0.00231235 0)
(-0.138988 -0.00256867 0)
(-0.129928 -0.00281492 0)
(-0.120065 -0.00307194 0)
(-0.109356 -0.00330085 0)
(-0.0978087 -0.00354399 0)
(-0.085507 -0.00377076 0)
(-0.0724562 -0.00399034 0)
(-0.0587001 -0.0041984 0)
(-0.0442726 -0.00438309 0)
(-0.0292551 -0.0045453 0)
(-0.0137338 -0.00468503 0)
(0.0022067 -0.00479608 0)
(0.0184665 -0.00487843 0)
(0.0349327 -0.00491524 0)
(0.051459 -0.00491026 0)
(0.0678923 -0.00486004 0)
(0.0840746 -0.00475825 0)
(0.0998429 -0.00461782 0)
(0.115038 -0.00441629 0)
(0.129462 -0.00416087 0)
(0.142944 -0.00385104 0)
(0.155314 -0.00349207 0)
(0.166392 -0.00308624 0)
(0.176024 -0.0026401 0)
(0.184083 -0.00215136 0)
(0.190452 -0.00163163 0)
(0.195032 -0.00108981 0)
(0.197753 -0.000533303 0)
(0.198585 1.98065e-05 0)
(0.197574 0.00058369 0)
(0.194617 0.00114477 0)
(0.189878 0.00167187 0)
(0.18341 0.00217328 0)
(0.175295 0.00263796 0)
(0.165696 0.00306283 0)
(0.154766 0.00344082 0)
(0.14264 0.00376855 0)
(0.129493 0.00403969 0)
(0.115535 0.00425576 0)
(0.100961 0.00441229 0)
(0.0859493 0.00451151 0)
(0.0706776 0.00455103 0)
(0.0553624 0.00455764 0)
(0.0401686 0.00449862 0)
(0.0252159 0.00439851 0)
(0.0106546 0.00426268 0)
(-0.00337953 0.00409073 0)
(-0.0167839 0.00389201 0)
(-0.0294909 0.00367135 0)
(-0.041433 0.00343584 0)
(-0.0525484 0.0031808 0)
(-0.0627995 0.00291809 0)
(-0.0721638 0.00265447 0)
(-0.0806286 0.00238771 0)
(-0.0881973 0.00211288 0)
(-0.094852 0.00185021 0)
(-0.100604 0.00158188 0)
(-0.105482 0.00132185 0)
(-0.109494 0.00106747 0)
(-0.112667 0.000815755 0)
(-0.115004 0.000575615 0)
(-0.116512 0.00033669 0)
(-0.117253 0.000109426 0)
(-0.117237 -0.000117843 0)
(-0.116465 -0.000338694 0)
(-0.114967 -0.000551772 0)
(-0.112773 -0.000760544 0)
(-0.109881 -0.000958926 0)
(-0.106307 -0.00116034 0)
(-0.102082 -0.00135554 0)
(-0.0972099 -0.00153937 0)
(-0.0917248 -0.00172252 0)
(-0.0856391 -0.00189964 0)
(-0.0789706 -0.00206557 0)
(-0.0717581 -0.00222856 0)
(-0.0640201 -0.00237711 0)
(-0.0557882 -0.00251633 0)
(-0.047112 -0.00264531 0)
(-0.0380283 -0.00276069 0)
(-0.0285823 -0.00285703 0)
(-0.0188364 -0.00293958 0)
(-0.00884862 -0.00300365 0)
(0.00131911 -0.003045 0)
(0.011585 -0.00306962 0)
(0.0218842 -0.00305957 0)
(0.0321458 -0.0030314 0)
(0.0422572 -0.00297919 0)
(0.0521372 -0.00289945 0)
(0.061707 -0.00278928 0)
(0.0708685 -0.00265718 0)
(0.0795396 -0.00249872 0)
(0.0876309 -0.00231779 0)
(0.095069 -0.00211189 0)
(0.101795 -0.00187466 0)
(0.107723 -0.0016317 0)
(0.112792 -0.00137359 0)
(0.116957 -0.00110121 0)
(0.120203 -0.000824653 0)
(0.122519 -0.000536015 0)
(0.12387 -0.000251188 0)
(0.124262 2.57283e-05 0)
(0.123733 0.000299381 0)
(0.122282 0.000560681 0)
(0.12 0.000814059 0)
(0.116914 0.00104801 0)
(0.113069 0.00125646 0)
(0.108549 0.00144632 0)
(0.103433 0.00161333 0)
(0.0978008 0.0017512 0)
(0.0917417 0.00186711 0)
(0.0853391 0.00195257 0)
(0.0786797 0.00201626 0)
(0.0718526 0.00205599 0)
(0.0649328 0.00206698 0)
(0.057998 0.00205871 0)
(0.0511237 0.00203478 0)
(0.0443734 0.0019871 0)
(0.037796 0.00192751 0)
(0.0314481 0.00185594 0)
(0.0253786 0.00176455 0)
(0.0196166 0.00166661 0)
(0.0141927 0.00155824 0)
(0.00913267 0.00144578 0)
(0.00446217 0.00132766 0)
(0.000296926 0.00120721 0)
(-0.00343862 0.00109184 0)
(-0.00685962 0.000973481 0)
(-0.00989737 0.000853825 0)
(-0.0125465 0.000736317 0)
(-0.014811 0.00062108 0)
(-0.016699 0.000509745 0)
(-0.0182235 0.000402375 0)
(-0.0193993 0.00029945 0)
(-0.0202417 0.000201586 0)
(-0.0207659 0.000109059 0)
(-0.0209924 2.10786e-05 0)
(-0.0209305 -6.04377e-05 0)
(-0.0205959 -0.00013681 0)
(-0.0200135 -0.000207147 0)
(-0.0192038 -0.000271802 0)
(-0.0181856 -0.000331618 0)
(-0.0169766 -0.000385224 0)
(-0.0155951 -0.000433316 0)
(-0.0140599 -0.000476859 0)
(-0.0123895 -0.000514122 0)
(-0.0106004 -0.00054716 0)
(-0.00870866 -0.000574045 0)
(-0.00673024 -0.000595896 0)
(-0.00467533 -0.00061415 0)
(-0.00254554 -0.000626937 0)
(-0.000435254 -0.000634409 0)
(0.00166109 -0.000638724 0)
(0.00380086 -0.00063739 0)
(0.00593327 -0.00063192 0)
(0.00804325 -0.000623687 0)
(0.0101174 -0.000610648 0)
(0.0121434 -0.000595229 0)
(0.0141103 -0.000575617 0)
(0.0160076 -0.000553158 0)
(0.0178261 -0.000528897 0)
(0.0195576 -0.000501527 0)
(0.0211946 -0.000472187 0)
(0.0227308 -0.000441663 0)
(0.0241608 -0.000409163 0)
(0.0254803 -0.000375903 0)
(0.0266856 -0.000341357 0)
(0.0277742 -0.000306225 0)
(0.0287444 -0.000270916 0)
(0.0295952 -0.000235285 0)
(0.0303266 -0.000199792 0)
(0.0309392 -0.000164699 0)
(0.0314346 -0.000130083 0)
(0.0318148 -9.62293e-05 0)
(0.0320826 -6.32625e-05 0)
(0.0322415 -3.13337e-05 0)
(0.0322971 -5.62386e-07 0)
(0.0322532 2.87857e-05 0)
(0.0320713 5.67269e-05 0)
(-0.0232727 0.00850442 0)
(-0.0373461 0.00804442 0)
(-0.0530348 0.00765569 0)
(-0.0679185 0.00722522 0)
(-0.0818944 0.00670027 0)
(-0.0949144 0.00623427 0)
(-0.106951 0.00570922 0)
(-0.118003 0.00523725 0)
(-0.128075 0.00476409 0)
(-0.137182 0.0042731 0)
(-0.145348 0.0038223 0)
(-0.152604 0.0033819 0)
(-0.158978 0.00294488 0)
(-0.164505 0.00253556 0)
(-0.169214 0.00213407 0)
(-0.173136 0.00175201 0)
(-0.176297 0.00137904 0)
(-0.178724 0.00101152 0)
(-0.18044 0.000652682 0)
(-0.181414 0.000318219 0)
(-0.181723 -2.61467e-05 0)
(-0.18131 -0.000379758 0)
(-0.180192 -0.000735228 0)
(-0.17836 -0.00109474 0)
(-0.175804 -0.00145773 0)
(-0.17251 -0.00183377 0)
(-0.168457 -0.00221159 0)
(-0.163616 -0.00260197 0)
(-0.157965 -0.0030225 0)
(-0.151479 -0.00343942 0)
(-0.144124 -0.00386579 0)
(-0.135863 -0.00434382 0)
(-0.126664 -0.00479455 0)
(-0.116498 -0.00531591 0)
(-0.10534 -0.00577863 0)
(-0.0931797 -0.00624163 0)
(-0.0799933 -0.00680236 0)
(-0.0657769 -0.00723647 0)
(-0.0506151 -0.00764392 0)
(-0.0345247 -0.00816428 0)
(-0.0175957 -0.00848609 0)
(-0.000202071 -0.00892052 0)
(0.017746 -0.00913072 0)
(0.0362774 -0.00923292 0)
(0.0550785 -0.00940798 0)
(0.0739794 -0.00934167 0)
(0.0927231 -0.00914146 0)
(0.111061 -0.00894435 0)
(0.128769 -0.00853203 0)
(0.145577 -0.00797934 0)
(0.161222 -0.00738461 0)
(0.175481 -0.00660142 0)
(0.188107 -0.00575865 0)
(0.198899 -0.00482242 0)
(0.20769 -0.00375331 0)
(0.21432 -0.00265805 0)
(0.21869 -0.00151722 0)
(0.22062 -0.000298879 0)
(0.22012 0.000818914 0)
(0.217117 0.00203785 0)
(0.211818 0.00312607 0)
(0.204287 0.00420596 0)
(0.194555 0.00525628 0)
(0.182847 0.00611015 0)
(0.169396 0.00694755 0)
(0.154519 0.00771395 0)
(0.138336 0.00825024 0)
(0.121011 0.00872511 0)
(0.102949 0.00902574 0)
(0.0842928 0.00927113 0)
(0.0652896 0.00936988 0)
(0.0462252 0.00935002 0)
(0.0272258 0.00932011 0)
(0.00883028 0.00915639 0)
(-0.00913 0.00891603 0)
(-0.0268501 0.00863961 0)
(-0.0438804 0.00825475 0)
(-0.0602319 0.00787544 0)
(-0.0757493 0.00741048 0)
(-0.0903057 0.00696109 0)
(-0.103888 0.00647606 0)
(-0.116409 0.00591622 0)
(-0.127854 0.00539495 0)
(-0.138219 0.00485006 0)
(-0.147487 0.00429005 0)
(-0.155667 0.00373517 0)
(-0.162726 0.00322577 0)
(-0.168628 0.00266609 0)
(-0.173521 0.00215512 0)
(-0.177421 0.00166106 0)
(-0.18029 0.00119027 0)
(-0.182223 0.000746477 0)
(-0.183291 0.000317656 0)
(-0.183625 -6.21115e-05 0)
(-0.183108 -0.000403805 0)
(-0.18187 -0.000759268 0)
(-0.18003 -0.00106791 0)
(-0.177557 -0.00137392 0)
(-0.174511 -0.00166622 0)
(-0.17093 -0.00193964 0)
(-0.166752 -0.00218145 0)
(-0.161999 -0.00248671 0)
(-0.1567 -0.00277289 0)
(-0.150774 -0.00308389 0)
(-0.144228 -0.00341022 0)
(-0.137054 -0.00377681 0)
(-0.129108 -0.00409579 0)
(-0.120371 -0.00451387 0)
(-0.110863 -0.00492043 0)
(-0.100493 -0.00534012 0)
(-0.0892676 -0.00578641 0)
(-0.0771536 -0.00624353 0)
(-0.0641122 -0.00668635 0)
(-0.0501623 -0.00713193 0)
(-0.0353385 -0.00757842 0)
(-0.0196549 -0.00797377 0)
(-0.00317494 -0.00835167 0)
(0.0140126 -0.00867078 0)
(0.0317946 -0.00892756 0)
(0.0500178 -0.00909411 0)
(0.0684679 -0.00917617 0)
(0.0869349 -0.00912502 0)
(0.105181 -0.00893038 0)
(0.122894 -0.00861632 0)
(0.13978 -0.00810466 0)
(0.155544 -0.00745604 0)
(0.169841 -0.00666679 0)
(0.182372 -0.00572745 0)
(0.192882 -0.00467317 0)
(0.201159 -0.00351643 0)
(0.20703 -0.00228823 0)
(0.210378 -0.00102784 0)
(0.211169 0.000211222 0)
(0.209432 0.00147108 0)
(0.205162 0.00268295 0)
(0.198606 0.00379294 0)
(0.189908 0.00482004 0)
(0.179249 0.0057318 0)
(0.166866 0.00651197 0)
(0.153037 0.0071721 0)
(0.138009 0.00770414 0)
(0.122022 0.00810994 0)
(0.105343 0.0084008 0)
(0.0882108 0.00857096 0)
(0.0708067 0.00864883 0)
(0.0533354 0.00865264 0)
(0.0359718 0.00857265 0)
(0.0188572 0.00841038 0)
(0.00209768 0.00821031 0)
(-0.0142141 0.00795968 0)
(-0.0299837 0.00767891 0)
(-0.0451295 0.007357 0)
(-0.0596262 0.0070176 0)
(-0.0734287 0.00665987 0)
(-0.0864837 0.00629806 0)
(-0.098776 0.00590121 0)
(-0.11029 0.00551279 0)
(-0.120995 0.00510807 0)
(-0.130871 0.004696 0)
(-0.139914 0.0042746 0)
(-0.148116 0.00385713 0)
(-0.155448 0.00342342 0)
(-0.161908 0.00298961 0)
(-0.167498 0.00255772 0)
(-0.172204 0.00212113 0)
(-0.176035 0.00168164 0)
(-0.178992 0.00125084 0)
(-0.18107 0.000813164 0)
(-0.182261 0.000402134 0)
(-0.182641 -3.85034e-05 0)
(-0.182128 -0.000457101 0)
(-0.18076 -0.00088877 0)
(-0.178538 -0.00131613 0)
(-0.175463 -0.00173011 0)
(-0.171534 -0.00215694 0)
(-0.166752 -0.00258293 0)
(-0.161117 -0.00301036 0)
(-0.154628 -0.00343771 0)
(-0.14727 -0.00385307 0)
(-0.139058 -0.00427389 0)
(-0.130012 -0.00470069 0)
(-0.12014 -0.00512108 0)
(-0.109421 -0.00549894 0)
(-0.0978839 -0.00591375 0)
(-0.0855761 -0.0062886 0)
(-0.0725202 -0.00665159 0)
(-0.0587589 -0.00699556 0)
(-0.0443283 -0.00730424 0)
(-0.0293094 -0.00758299 0)
(-0.0137771 -0.00781397 0)
(0.00217643 -0.00799328 0)
(0.0184474 -0.00812886 0)
(0.0349264 -0.00818878 0)
(0.0514585 -0.0081849 0)
(0.0679005 -0.00810921 0)
(0.0840988 -0.00793789 0)
(0.0998837 -0.00769751 0)
(0.115095 -0.00736011 0)
(0.129533 -0.00693303 0)
(0.143022 -0.00642659 0)
(0.155406 -0.00582785 0)
(0.1665 -0.00514891 0)
(0.176144 -0.00440309 0)
(0.184216 -0.00358462 0)
(0.190592 -0.00271892 0)
(0.195175 -0.00181727 0)
(0.1979 -0.000891408 0)
(0.198734 3.31542e-05 0)
(0.197705 0.000978125 0)
(0.194753 0.00190872 0)
(0.190013 0.00278813 0)
(0.183533 0.00362367 0)
(0.17541 0.00439533 0)
(0.1658 0.00510736 0)
(0.154857 0.00573892 0)
(0.142713 0.00628141 0)
(0.129555 0.00673398 0)
(0.115582 0.00709602 0)
(0.100993 0.00735657 0)
(0.0859648 0.00752248 0)
(0.0706797 0.00758625 0)
(0.0553525 0.00759865 0)
(0.0401453 0.00750067 0)
(0.0251821 0.0073334 0)
(0.0106118 0.00710648 0)
(-0.00342977 0.00682038 0)
(-0.0168424 0.00648734 0)
(-0.0295555 0.00611839 0)
(-0.0415019 0.0057256 0)
(-0.0526187 0.00530175 0)
(-0.0628692 0.00486617 0)
(-0.0722349 0.00442613 0)
(-0.0807046 0.00397855 0)
(-0.0882712 0.00351983 0)
(-0.0949229 0.00308488 0)
(-0.100675 0.00263837 0)
(-0.105552 0.00220286 0)
(-0.109565 0.00177595 0)
(-0.112734 0.00135881 0)
(-0.11507 0.000959178 0)
(-0.116581 0.000561654 0)
(-0.117316 0.000180777 0)
(-0.117296 -0.000195992 0)
(-0.116524 -0.000564204 0)
(-0.115026 -0.000920569 0)
(-0.11283 -0.00127095 0)
(-0.109935 -0.00159744 0)
(-0.10636 -0.00193263 0)
(-0.102134 -0.00225761 0)
(-0.0972627 -0.00256939 0)
(-0.0917731 -0.00287093 0)
(-0.0856843 -0.0031644 0)
(-0.0790181 -0.00344618 0)
(-0.0717999 -0.00371307 0)
(-0.0640586 -0.00396129 0)
(-0.0558265 -0.00419653 0)
(-0.0471449 -0.00440902 0)
(-0.0380565 -0.00459972 0)
(-0.02861 -0.00476592 0)
(-0.0188572 -0.0049004 0)
(-0.00886283 -0.00500665 0)
(0.00131008 -0.00507417 0)
(0.0115801 -0.00511945 0)
(0.0218872 -0.00510226 0)
(0.0321561 -0.00505241 0)
(0.042275 -0.00496578 0)
(0.0521619 -0.00483186 0)
(0.0617358 -0.00465312 0)
(0.0709064 -0.00443038 0)
(0.0795849 -0.0041646 0)
(0.0876824 -0.00386463 0)
(0.0951274 -0.00351771 0)
(0.101857 -0.00312707 0)
(0.107787 -0.00272257 0)
(0.112862 -0.00229018 0)
(0.117031 -0.00183724 0)
(0.120278 -0.00137315 0)
(0.122595 -0.000892647 0)
(0.123945 -0.000418068 0)
(0.124336 4.28564e-05 0)
(0.1238 0.000498592 0)
(0.12235 0.000936179 0)
(0.120065 0.00135858 0)
(0.116973 0.00174741 0)
(0.113122 0.00209483 0)
(0.108596 0.0024116 0)
(0.103474 0.00269004 0)
(0.0978343 0.00291979 0)
(0.0917684 0.00311302 0)
(0.0853589 0.00325539 0)
(0.0786929 0.0033615 0)
(0.0718593 0.00342754 0)
(0.0649333 0.00344566 0)
(0.0579933 0.00343217 0)
(0.0511141 0.00339258 0)
(0.0443591 0.00331255 0)
(0.0377781 0.00321311 0)
(0.0314265 0.00309312 0)
(0.0253536 0.00294203 0)
(0.0195892 0.00277823 0)
(0.0141635 0.00259749 0)
(0.00910182 0.00241 0)
(0.00443045 0.00221322 0)
(0.000265678 0.00201178 0)
(-0.00346975 0.00181996 0)
(-0.0068912 0.00162256 0)
(-0.00992882 0.00142301 0)
(-0.0125773 0.00122715 0)
(-0.014841 0.00103501 0)
(-0.016728 0.000849431 0)
(-0.0182514 0.000670519 0)
(-0.0194259 0.000498947 0)
(-0.020267 0.000335838 0)
(-0.0207901 0.000181555 0)
(-0.0210151 3.48883e-05 0)
(-0.0209514 -0.000100982 0)
(-0.0206154 -0.000228265 0)
(-0.0200315 -0.000345484 0)
(-0.0192202 -0.000453247 0)
(-0.0182006 -0.000552939 0)
(-0.0169902 -0.000642285 0)
(-0.0156072 -0.00072243 0)
(-0.0140706 -0.000795006 0)
(-0.0123988 -0.000857109 0)
(-0.0106083 -0.000912169 0)
(-0.00871523 -0.000956971 0)
(-0.00673551 -0.000993391 0)
(-0.00467941 -0.00102383 0)
(-0.00254835 -0.00104511 0)
(-0.000436781 -0.0010575 0)
(0.00166073 -0.00106472 0)
(0.00380164 -0.00106249 0)
(0.00593511 -0.00105337 0)
(0.00804611 -0.00103964 0)
(0.0101212 -0.00101789 0)
(0.0121481 -0.000992187 0)
(0.0141157 -0.000959489 0)
(0.0160138 -0.000922047 0)
(0.017833 -0.000881599 0)
(0.019565 -0.00083597 0)
(0.0212025 -0.000787057 0)
(0.0227392 -0.000736171 0)
(0.0241695 -0.000681992 0)
(0.0254893 -0.000626547 0)
(0.0266948 -0.000568958 0)
(0.0277836 -0.000510393 0)
(0.0287538 -0.000451533 0)
(0.0296046 -0.000392138 0)
(0.0303359 -0.000332972 0)
(0.0309484 -0.000274474 0)
(0.0314436 -0.000216771 0)
(0.0318236 -0.00016034 0)
(0.0320912 -0.000105388 0)
(0.0322498 -5.21814e-05 0)
(0.0323051 -8.62775e-07 0)
(0.0322608 4.80423e-05 0)
(0.0320784 9.46173e-05 0)
(-0.0233625 0.011909 0)
(-0.0374427 0.0112643 0)
(-0.0531408 0.0107195 0)
(-0.0680312 0.0101164 0)
(-0.0820093 0.00938098 0)
(-0.0950319 0.00872822 0)
(-0.107068 0.00799283 0)
(-0.118119 0.00733182 0)
(-0.12819 0.0066692 0)
(-0.137292 0.00598168 0)
(-0.145456 0.00535042 0)
(-0.152709 0.00473379 0)
(-0.159078 0.00412197 0)
(-0.164601 0.003549 0)
(-0.169307 0.00298699 0)
(-0.173226 0.00245226 0)
(-0.176384 0.0019305 0)
(-0.178807 0.00141735 0)
(-0.180519 0.000917221 0)
(-0.181503 0.000441922 0)
(-0.181805 -4.01972e-05 0)
(-0.181395 -0.00053389 0)
(-0.180276 -0.0010293 0)
(-0.178446 -0.00153186 0)
(-0.175891 -0.00204066 0)
(-0.1726 -0.00256685 0)
(-0.16855 -0.00309553 0)
(-0.163712 -0.00364201 0)
(-0.158065 -0.00423063 0)
(-0.151582 -0.0048141 0)
(-0.144229 -0.00541135 0)
(-0.135974 -0.00608053 0)
(-0.126778 -0.00671169 0)
(-0.116615 -0.00744161 0)
(-0.105458 -0.00808994 0)
(-0.0932969 -0.00873828 0)
(-0.0801101 -0.00952376 0)
(-0.0658886 -0.0101324 0)
(-0.0507207 -0.0107032 0)
(-0.034622 -0.0114328 0)
(-0.0176811 -0.0118843 0)
(-0.000273089 -0.0124922 0)
(0.0176942 -0.0127874 0)
(0.036246 -0.0129312 0)
(0.0550722 -0.0131775 0)
(0.073999 -0.0130852 0)
(0.09277 -0.012805 0)
(0.11114 -0.0125284 0)
(0.128876 -0.011953 0)
(0.145712 -0.0111793 0)
(0.161388 -0.0103456 0)
(0.175675 -0.00924943 0)
(0.188324 -0.00807006 0)
(0.199136 -0.00675725 0)
(0.207948 -0.00525623 0)
(0.214587 -0.00372346 0)
(0.218966 -0.00213443 0)
(0.220906 -0.000425485 0)
(0.220374 0.00115442 0)
(0.217379 0.00285071 0)