/*--------------------------------*- C++ -*----------------------------------*\
| =========                 |                                                 |
| \\      /  F ield         | OpenFOAM: The Open Source CFD Toolbox           |
|  \\    /   O peration     | Version:  3.0.1                                 |
|   \\  /    A nd           | Web:      www.OpenFOAM.org                      |
|    \\/     M anipulation  |                                                 |
\*---------------------------------------------------------------------------*/
FoamFile
{
    version     2.0;
    format      ascii;
    class       volScalarField;
    location    "70.2";
    object      p_rgh;
}
// * * * * * * * * * * * * * * * * * * * * * * * * * * * * * * * * * * * * * //

dimensions      [1 -1 -2 0 0 0 0];

internalField   nonuniform List<scalar> 
21420
(
-33.9958
-63.4466
-92.3713
-120.195
-146.586
-171.4
-194.51
-215.873
-235.448
-253.235
-269.259
-283.545
-296.133
-307.067
-316.386
-324.132
-330.34
-335.044
-338.232
-339.898
-340.152
-338.958
-336.269
-332.074
-326.348
-319.059
-310.165
-299.62
-287.378
-273.39
-257.607
-239.992
-220.523
-199.183
-175.983
-150.936
-124.103
-95.5798
-65.4811
-33.9744
-1.28405
32.3099
66.5489
101.089
135.612
169.709
202.966
234.999
265.379
293.689
319.562
342.639
362.603
379.182
392.137
401.295
406.539
407.711
404.931
398.11
387.351
372.837
354.762
333.401
309.031
281.976
252.629
221.384
188.646
154.815
120.289
85.4662
50.7427
17.589
-15.6897
-48.0714
-79.2641
-109.073
-137.316
-163.864
-188.617
-211.509
-232.492
-251.541
-268.647
-283.815
-297.06
-308.406
-317.895
-325.579
-331.516
-335.751
-338.336
-339.357
-338.891
-336.956
-333.591
-328.822
-322.658
-315.098
-306.121
-295.702
-283.811
-270.414
-255.477
-238.971
-220.87
-201.161
-179.851
-156.956
-132.515
-106.585
-79.2483
-50.6115
-20.8117
10.0037
41.6263
73.7964
106.261
138.727
170.865
202.321
232.716
261.657
288.741
313.573
335.765
354.953
370.807
383.043
391.432
395.789
395.98
392.04
384.002
371.899
355.936
336.345
313.418
287.495
258.965
228.249
195.791
162.053
127.498
92.5835
57.7423
23.4392
-10.0585
-42.3789
-73.2663
-102.514
-129.973
-155.542
-179.165
-200.827
-220.542
-238.348
-254.301
-268.471
-280.936
-291.774
-301.067
-308.892
-315.319
-320.409
-324.229
-326.808
-328.154
-328.308
-327.282
-325.05
-321.596
-316.886
-310.882
-303.549
-294.84
-284.714
-273.127
-260.039
-245.413
-229.215
-211.419
-192.005
-170.966
-148.319
-124.092
-98.3431
-71.1556
-42.6452
-12.9594
17.7251
49.2035
81.1465
113.285
145.292
176.806
207.446
236.81
264.485
290.058
313.126
333.306
350.252
363.66
373.286
378.946
380.449
377.887
371.191
360.457
345.859
327.631
306.063
281.502
254.336
224.988
193.908
161.554
128.384
94.8373
61.3221
28.4158
-3.9103
-35.1801
-65.172
-93.7089
-120.656
-145.918
-169.437
-191.18
-211.14
-229.329
-245.775
-260.515
-273.6
-285.085
-295.026
-303.482
-310.518
-316.188
-320.547
-323.639
-325.521
-326.206
-325.686
-324.028
-321.215
-317.244
-312.109
-305.798
-298.3
-289.598
-279.666
-268.472
-255.974
-242.129
-226.89
-210.217
-192.074
-172.439
-151.306
-128.692
-104.636
-79.205
-52.4872
-24.6037
4.29531
34.042
64.5799
95.2971
125.961
156.304
185.987
214.646
241.907
267.389
290.704
311.481
329.347
343.975
355.075
362.385
365.719
364.979
360.067
351.208
338.382
321.775
301.702
278.514
252.599
224.413
194.438
163.146
131.014
98.4889
65.9996
33.9668
2.86991
-25.8649
-54.2198
-81.4068
-107.098
-131.121
-153.395
-173.902
-192.669
-209.755
-225.248
-239.247
-251.863
-263.205
-273.375
-282.457
-290.518
-297.603
-303.731
-308.902
-313.093
-316.263
-318.362
-319.296
-318.982
-317.35
-314.317
-309.796
-303.735
-296.063
-286.728
-275.691
-262.918
-248.395
-232.125
-214.13
-194.446
-173.129
-150.249
-125.897
-100.206
-73.314
-45.2988
-15.0067
14.4059
43.9527
73.4563
102.673
131.273
158.934
185.371
210.258
233.332
254.317
272.979
289.119
302.513
312.958
-34.0596
-63.5172
-92.4468
-120.274
-146.667
-171.482
-194.591
-215.952
-235.526
-253.31
-269.331
-283.615
-296.201
-307.132
-316.449
-324.194
-330.399
-335.102
-338.29
-339.961
-340.212
-339.017
-336.328
-332.134
-326.41
-319.123
-310.231
-299.689
-287.45
-273.465
-257.685
-240.073
-220.605
-199.267
-176.067
-151.02
-124.186
-95.6599
-65.5568
-34.0438
-1.34548
32.2586
66.5091
101.063
135.6
169.714
202.989
235.04
265.439
293.767
319.657
342.749
362.728
379.318
392.283
401.448
406.695
407.876
405.08
398.258
387.492
372.968
354.881
333.504
309.117
282.044
252.679
221.416
188.66
154.812
120.271
85.4343
50.6983
17.5318
-15.7558
-48.1446
-79.343
-109.156
-137.402
-163.952
-188.707
-211.599
-232.582
-251.631
-268.736
-283.902
-297.145
-308.489
-317.976
-325.659
-331.593
-335.825
-338.405
-339.427
-338.959
-337.023
-333.658
-328.888
-322.725
-315.166
-306.19
-295.773
-283.884
-270.489
-255.554
-239.05
-220.951
-201.243
-179.933
-157.038
-132.596
-106.664
-79.325
-50.6844
-20.8792
9.9425
41.5731
73.7528
106.229
138.707
170.86
202.331
232.743
261.702
288.805
313.655
335.864
355.068
370.935
383.183
391.58
395.949
396.133
392.19
384.148
372.036
356.06
336.455
313.51
287.569
259.019
228.283
195.805
162.047
127.474
92.5425
57.6886
23.3673
-10.1386
-42.4671
-73.3604
-102.612
-130.072
-155.641
-179.264
-200.924
-220.635
-238.438
-254.387
-268.553
-281.013
-291.848
-301.137
-308.959
-315.383
-320.471
-324.29
-326.867
-328.211
-328.366
-327.341
-325.11
-321.657
-316.948
-310.946
-303.615
-294.909
-284.785
-273.2
-260.114
-245.49
-229.293
-211.499
-192.086
-171.048
-148.4
-124.173
-98.4222
-71.2317
-42.7171
-13.0256
17.6664
49.1543
81.1082
113.259
145.281
176.811
207.468
236.849
264.542
290.135
313.22
333.417
350.377
363.798
373.433
379.099
380.611
378.036
371.338
360.597
345.987
327.744
306.159
281.58
254.394
225.026
193.926
161.553
128.366
94.8036
61.2707
28.3587
-3.98075
-35.2576
-65.2547
-93.7951
-120.744
-146.007
-169.526
-191.268
-211.226
-229.413
-245.856
-260.593
-273.676
-285.157
-295.096
-303.549
-310.582
-316.25
-320.607
-323.698
-325.579
-326.26
-325.742
-324.083
-321.27
-317.3
-312.165
-305.855
-298.358
-289.658
-279.727
-268.535
-256.039
-242.196
-226.959
-210.289
-192.148
-172.513
-151.381
-128.766
-104.709
-79.2753
-52.5537
-24.6653
4.24008
33.9956
64.5451
95.2739
125.95
156.307
186.005
214.68
241.957
267.456
290.789
311.581
329.463
344.106
355.218
362.537
365.877
365.14
360.235
351.358
338.525
321.905
301.816
278.608
252.672
224.466
194.469
163.157
131.007
98.4646
65.9593
33.9094
2.79181
-25.916
-54.2865
-81.4828
-107.177
-131.201
-153.474
-173.978
-192.741
-209.823
-225.311
-239.305
-251.915
-263.254
-273.419
-282.498
-290.558
-297.641
-303.77
-308.941
-313.133
-316.306
-318.407
-319.344
-319.033
-317.406
-314.375
-309.857
-303.799
-296.13
-286.797
-275.762
-262.99
-248.468
-232.199
-214.204
-194.519
-173.201
-150.319
-125.963
-100.269
-73.3718
-45.351
-15.0432
14.3767
43.9327
73.4473
102.677
131.29
158.965
185.415
210.316
233.403
254.399
273.071
289.221
302.623
313.073
-34.1874
-63.6586
-92.5979
-120.432
-146.828
-171.644
-194.752
-216.111
-235.68
-253.46
-269.477
-283.755
-296.336
-307.262
-316.576
-324.316
-330.519
-335.219
-338.408
-340.084
-340.332
-339.135
-336.447
-332.256
-326.535
-319.252
-310.365
-299.828
-287.594
-273.615
-257.84
-240.233
-220.77
-199.434
-176.236
-151.188
-124.351
-95.8199
-65.7079
-34.1824
-1.46816
32.1561
66.4298
101.01
135.577
169.724
203.034
235.122
265.558
293.922
319.846
342.97
362.977
379.591
392.575
401.753
407.008
408.205
405.382
398.554
387.775
373.231
355.117
333.711
309.291
282.182
252.781
221.482
188.691
154.809
120.237
85.3728
50.6128
17.4202
-15.884
-48.2864
-79.4954
-109.317
-137.568
-164.121
-188.877
-211.769
-232.75
-251.796
-268.898
-284.06
-297.298
-308.638
-318.121
-325.799
-331.728
-335.954
-338.525
-339.548
-339.076
-337.137
-333.77
-329
-322.839
-315.281
-306.308
-295.895
-284.011
-270.62
-255.69
-239.189
-221.092
-201.387
-180.078
-157.184
-132.74
-106.805
-79.4607
-50.8127
-20.9968
9.83725
41.4835
73.6824
106.181
138.685
170.866
202.369
232.815
261.809
288.948
313.833
336.077
355.312
371.208
383.478
391.892
396.278
396.456
392.507
384.454
372.325
356.325
336.689
313.71
287.732
259.143
228.366
195.849
162.052
127.443
92.4783
57.5973
23.2443
-10.2797
-42.624
-73.5285
-102.787
-130.251
-155.82
-179.439
-201.095
-220.8
-238.595
-254.537
-268.695
-281.147
-291.974
-301.256
-309.072
-315.491
-320.574
-324.39
-326.963
-328.304
-328.462
-327.437
-325.208
-321.757
-317.051
-311.054
-303.727
-295.026
-284.906
-273.325
-260.243
-245.623
-229.431
-211.64
-192.23
-171.194
-148.546
-124.317
-98.5632
-71.3671
-42.8442
-13.1417
17.5652
49.0717
81.0474
113.224
145.273
176.835
207.526
236.943
264.673
290.302
313.423
333.653
350.642
364.087
373.74
379.417
380.947
378.35
371.647
360.889
346.256
327.983
306.365
281.748
254.523
225.116
193.977
161.566
128.344
94.7511
61.187
28.2558
-4.10609
-35.3966
-65.4038
-93.951
-120.904
-146.168
-169.685
-191.425
-211.379
-229.561
-245.999
-260.731
-273.808
-285.284
-295.216
-303.664
-310.691
-316.355
-320.708
-323.796
-325.675
-326.35
-325.834
-324.176
-321.363
-317.394
-312.259
-305.951
-298.457
-289.759
-279.832
-268.643
-256.153
-242.315
-227.082
-210.416
-192.279
-172.647
-151.516
-128.901
-104.841
-79.4027
-52.6744
-24.7769
4.14051
33.913
64.485
95.236
125.936
156.319
186.048
214.753
242.064
267.595
290.962
311.786
329.699
344.37
355.506
362.843
366.196
365.464
360.568
351.66
338.812
322.167
302.044
278.798
252.82
224.57
194.532
163.18
130.992
98.4161
65.8792
33.7948
2.63481
-26.0172
-54.4201
-81.6349
-107.337
-131.362
-153.632
-174.131
-192.887
-209.959
-225.437
-239.42
-252.021
-263.35
-273.508
-282.582
-290.637
-297.718
-303.846
-309.019
-313.214
-316.391
-318.497
-319.44
-319.137
-317.517
-314.491
-309.979
-303.926
-296.263
-286.935
-275.903
-263.135
-248.615
-232.347
-214.352
-194.666
-173.345
-150.458
-126.096
-100.393
-73.4872
-45.4544
-15.1175
14.3183
43.8926
73.4293
102.683
131.323
159.026
185.504
210.431
233.543
254.562
273.256
289.424
302.841
313.303
-34.3791
-63.8707
-92.8246
-120.669
-147.071
-171.888
-194.995
-216.349
-235.913
-253.686
-269.695
-283.966
-296.539
-307.458
-316.765
-324.5
-330.698
-335.392
-338.582
-340.269
-340.511
-339.311
-336.626
-332.438
-326.722
-319.446
-310.566
-300.037
-287.811
-273.841
-258.073
-240.473
-221.016
-199.685
-176.489
-151.441
-124.6
-96.0602
-65.9348
-34.3905
-1.6525
32.0023
66.3107
100.93
135.543
169.74
203.102
235.245
265.737
294.155
320.13
343.302
363.351
380.001
393.013
402.211
407.477
408.693
405.84
399
388.201
373.626
355.473
334.021
309.551
282.389
252.934
221.58
188.736
154.804
120.185
85.2805
50.4848
17.2526
-16.0764
-48.4991
-79.724
-109.557
-137.816
-164.374
-189.132
-212.022
-233.001
-252.043
-269.14
-284.297
-297.528
-308.861
-318.337
-326.008
-331.928
-336.144
-338.707
-339.727
-339.249
-337.306
-333.937
-329.167
-323.007
-315.452
-306.483
-296.076
-284.198
-270.813
-255.89
-239.394
-221.302
-201.601
-180.294
-157.399
-132.953
-107.014
-79.6615
-51.0026
-21.171
9.68186
41.3519
73.5796
106.111
138.654
170.878
202.428
232.924
261.971
289.165
314.104
336.4
355.683
371.62
383.925
392.363
396.764
396.953
392.99
384.917
372.762
356.725
337.044
314.014
287.979
259.332
228.495
195.917
162.063
127.399
92.385
57.4613
23.065
-10.4882
-42.8564
-73.7777
-103.047
-130.515
-156.084
-179.7
-201.348
-221.044
-238.828
-254.758
-268.905
-281.345
-292.161
-301.432
-309.238
-315.648
-320.726
-324.536
-327.102
-328.443
-328.603
-327.579
-325.353
-321.905
-317.205
-311.214
-303.893
-295.198
-285.085
-273.51
-260.436
-245.822
-229.635
-211.849
-192.443
-171.41
-148.763
-124.531
-98.7722
-71.5676
-43.0322
-13.3133
17.4155
48.9505
80.9587
113.172
145.264
176.874
207.615
237.085
264.87
290.555
313.73
334.009
351.042
364.523
374.204
379.897
381.447
378.829
372.114
361.33
346.662
328.345
306.676
282.003
254.719
225.253
194.055
161.588
128.314
94.6749
61.0817
28.086
-4.29186
-35.6027
-65.6251
-94.1822
-121.14
-146.406
-169.922
-191.658
-211.607
-229.782
-246.212
-260.936
-274.003
-285.47
-295.394
-303.833
-310.853
-316.509
-320.856
-323.941
-325.816
-326.483
-325.97
-324.312
-321.499
-317.531
-312.398
-306.092
-298.602
-289.908
-279.986
-268.804
-256.32
-242.489
-227.265
-210.605
-192.473
-172.846
-151.717
-129.101
-105.037
-79.5923
-52.8539
-24.9429
3.99213
33.79
64.3959
95.1798
125.916
156.339
186.113
214.863
242.224
267.804
291.221
312.094
330.053
344.767
355.938
363.303
366.674
365.95
361.061
352.119
339.243
322.561
302.387
279.082
253.042
224.728
194.625
163.213
130.97
98.3434
65.7584
33.623
2.39816
-26.1682
-54.6215
-81.8635
-107.576
-131.603
-153.87
-174.36
-193.104
-210.163
-225.626
-239.594
-252.18
-263.495
-273.642
-282.706
-290.755
-297.833
-303.961
-309.136
-313.336
-316.518
-318.631
-319.582
-319.294
-317.684
-314.665
-310.162
-304.118
-296.462
-287.141
-276.116
-263.353
-248.835
-232.569
-214.574
-194.886
-173.561
-150.667
-126.295
-100.581
-73.6605
-45.6115
-15.2274
14.2306
43.8323
73.4023
102.694
131.374
159.117
185.636
210.604
233.754
254.808
273.534
289.728
303.169
313.648
-34.6351
-64.1539
-93.1272
-120.985
-147.394
-172.213
-195.318
-216.667
-236.223
-253.986
-269.985
-284.246
-296.809
-307.719
-317.018
-324.745
-330.937
-335.624
-338.81
-340.505
-340.748
-339.546
-336.864
-332.681
-326.972
-319.704
-310.833
-300.315
-288.1
-274.141
-258.384
-240.794
-221.345
-200.019
-176.828
-151.778
-124.932
-96.3809
-66.2377
-34.6683
-1.89901
31.7969
66.1513
100.824
135.497
169.76
203.192
235.408
265.975
294.465
320.51
343.745
363.85
380.548
393.598
402.822
408.102
409.334
406.46
399.597
388.769
374.152
355.947
334.435
309.898
282.665
253.137
221.711
188.796
154.797
120.116
85.1569
50.3141
17.0285
-16.3334
-48.783
-80.0292
-109.878
-138.148
-164.712
-189.472
-212.361
-233.336
-252.373
-269.464
-284.612
-297.834
-309.158
-318.625
-326.286
-332.193
-336.397
-338.952
-339.966
-339.479
-337.531
-334.159
-329.388
-323.23
-315.678
-306.716
-296.316
-284.447
-271.071
-256.156
-239.667
-221.581
-201.885
-180.581
-157.686
-133.237
-107.292
-79.9289
-51.2552
-21.4033
9.47465
41.177
73.4431
106.019
138.613
170.894
202.507
233.071
262.189
289.455
314.466
336.831
356.178
372.171
384.522
392.992
397.408
397.617
393.639
385.538
373.346
357.26
337.519
314.42
288.31
259.584
228.668
196.01
162.078
127.342
92.2607
57.279
22.8273
-10.766
-43.166
-74.1099
-103.393
-130.868
-156.437
-180.047
-201.686
-221.369
-239.139
-255.054
-269.184
-281.608
-292.409
-301.666
-309.459
-315.858
-320.927
-324.729
-327.287
-328.63
-328.79
-327.767
-325.545
-322.102
-317.408
-311.426
-304.114
-295.428
-285.323
-273.757
-260.691
-246.086
-229.907
-212.128
-192.727
-171.697
-149.051
-124.816
-99.0506
-71.8348
-43.2827
-13.5417
17.2155
48.7893
80.8407
113.104
145.253
176.925
207.734
237.276
265.135
290.893
314.139
334.485
351.577
365.107
374.824
380.538
382.107
379.475
372.739
361.92
347.204
328.828
307.091
282.345
254.982
225.436
194.16
161.618
128.274
94.5732
60.9351
27.866
-4.53923
-35.8772
-65.9199
-94.4903
-121.456
-146.723
-170.238
-191.969
-211.91
-230.076
-246.495
-261.208
-274.264
-285.719
-295.63
-304.059
-311.068
-316.715
-321.054
-324.133
-326.002
-326.663
-326.152
-324.493
-321.681
-317.714
-312.583
-306.281
-298.795
-290.107
-280.192
-269.018
-256.543
-242.722
-227.508
-210.857
-192.733
-173.11
-151.984
-129.367
-105.299
-79.8449
-53.0933
-25.1645
3.79384
33.6257
64.2769
95.1046
125.89
156.365
186.198
215.01
242.436
268.082
291.568
312.504
330.524
345.296
356.514
363.916
367.312
366.599
361.712
352.738
339.821
323.086
302.845
279.462
253.337
224.937
194.75
163.257
130.94
98.2461
65.5975
33.394
2.08093
-26.3682
-54.8915
-82.1694
-107.895
-131.925
-154.187
-174.666
-193.395
-210.435
-225.878
-239.825
-252.391
-263.688
-273.82
-282.872
-290.913
-297.987
-304.115
-309.292
-313.497
-316.688
-318.809
-319.773
-319.504
-317.905
-314.897
-310.406
-304.374
-296.729
-287.417
-276.4
-263.643
-249.129
-232.865
-214.87
-195.179
-173.849
-150.946
-126.561
-100.83
-73.8918
-45.826
-15.3701
14.1136
43.7517
73.366
102.707
131.44
159.239
185.813
210.835
234.035
255.136
273.904
290.135
303.606
314.109
-34.9556
-64.5083
-93.506
-121.38
-147.799
-172.62
-195.722
-217.064
-236.611
-254.363
-270.349
-284.597
-297.147
-308.045
-317.333
-325.052
-331.236
-335.915
-339.097
-340.794
-341.041
-339.839
-337.161
-332.985
-327.284
-320.026
-311.168
-300.662
-288.461
-274.516
-258.772
-241.195
-221.756
-200.438
-177.25
-152.2
-125.347
-96.7824
-66.6169
-35.0163
-2.20801
31.5396
65.9515
100.69
135.438
169.784
203.305
235.613
266.272
294.853
320.984
344.298
364.473
381.232
394.329
403.587
408.885
410.127
407.242
400.346
389.48
374.81
356.54
334.952
310.332
283.01
253.391
221.875
188.871
154.788
120.029
85.0016
50.1005
16.7475
-16.6554
-49.1385
-80.4114
-110.28
-138.563
-165.134
-189.898
-212.785
-233.755
-252.786
-269.868
-285.007
-298.217
-309.53
-318.986
-326.634
-332.525
-336.713
-339.259
-340.263
-339.767
-337.811
-334.436
-329.665
-323.508
-315.962
-307.007
-296.617
-284.758
-271.393
-256.488
-240.009
-221.931
-202.241
-180.94
-158.045
-133.593
-107.639
-80.2636
-51.5713
-21.6945
9.21452
40.9584
73.272
105.904
138.561
170.914
202.605
233.254
262.461
289.818
314.92
337.37
356.797
372.861
385.268
393.78
398.218
398.441
394.454
386.316
374.077
357.929
338.113
314.928
288.725
259.9
228.883
196.125
162.097
127.269
92.1046
57.0493
22.5303
-11.114
-43.5537
-74.5259
-103.827
-131.31
-156.878
-180.481
-202.108
-221.776
-239.528
-255.423
-269.533
-281.938
-292.719
-301.958
-309.736
-316.121
-321.178
-324.97
-327.521
-328.862
-329.024
-328.003
-325.784
-322.348
-317.664
-311.691
-304.39
-295.715
-285.621
-274.066
-261.011
-246.416
-230.248
-212.476
-193.082
-172.057
-149.411
-125.173
-99.3992
-72.1692
-43.5964
-13.8276
16.9644
48.5878
80.6926
113.019
145.239
176.99
207.883
237.515
265.465
291.316
314.652
335.081
352.247
365.837
375.6
381.342
382.926
380.29
373.522
362.659
347.883
329.433
307.611
282.771
255.311
225.665
194.291
161.655
128.223
94.4448
60.745
27.5961
-4.84868
-36.221
-66.2892
-94.8761
-121.85
-147.121
-170.633
-192.357
-212.289
-230.444
-246.849
-261.548
-274.59
-286.03
-295.927
-304.342
-311.337
-316.973
-321.302
-324.373
-326.234
-326.89
-326.379
-324.72
-321.908
-317.942
-312.815
-306.517
-299.036
-290.355
-280.449
-269.286
-256.822
-243.013
-227.811
-211.172
-193.057
-173.442
-152.319
-129.701
-105.627
-80.1612
-53.393
-25.442
3.54478
33.4195
64.128
95.0101
125.856
156.397
186.304
215.193
242.702
268.43
292
313.017
331.115
345.958
357.235
364.683
368.111
367.411
362.519
353.517
340.545
323.744
303.417
279.936
253.706
225.198
194.905
163.312
130.902
98.1241
65.3964
33.1085
1.68189
-26.6164
-55.2319
-82.5532
-108.296
-132.328
-154.583
-175.049
-193.758
-210.776
-226.192
-240.114
-252.655
-263.93
-274.042
-283.079
-291.11
-298.179
-304.306
-309.487
-313.699
-316.901
-319.033
-320.013
-319.764
-318.181
-315.187
-310.711
-304.693
-297.062
-287.762
-276.755
-264.005
-249.497
-233.235
-215.241
-195.547
-174.21
-151.295
-126.894
-101.142
-74.1813
-46.1001
-15.5439
13.9671
43.6504
73.3203
102.724
131.523
159.391
186.035
211.123
234.387
255.546
274.367
290.644
304.154
314.685
-35.341
-64.9344
-93.9613
-121.856
-148.285
-173.109
-196.207
-217.541
-237.076
-254.814
-270.785
-285.018
-297.553
-308.437
-317.712
-325.419
-331.594
-336.264
-339.441
-341.14
-341.391
-340.191
-337.517
-333.349
-327.659
-320.413
-311.569
-301.079
-288.894
-274.966
-259.239
-241.676
-222.249
-200.94
-177.758
-152.707
-125.846
-97.2651
-67.0727
-35.4348
-2.57978
31.2296
65.7107
100.529
135.367
169.812
203.439
235.858
266.629
295.319
321.553
344.963
365.223
382.053
395.208
404.505
409.825
411.074
408.181
401.247
390.335
375.601
357.253
335.574
310.852
283.424
253.696
222.07
188.96
154.775
119.923
84.8142
49.8433
16.4094
-17.0426
-49.5659
-80.871
-110.764
-139.062
-165.642
-190.409
-213.294
-234.258
-253.282
-270.353
-285.481
-298.678
-309.976
-319.419
-327.051
-332.924
-337.095
-339.627
-340.619
-340.112
-338.148
-334.768
-329.996
-323.843
-316.303
-307.357
-296.978
-285.132
-271.78
-256.888
-240.42
-222.351
-202.669
-181.371
-158.477
-134.02
-108.057
-80.6659
-51.9514
-22.0449
8.90093
40.6954
73.0658
105.764
138.497
170.937
202.723
233.473
262.787
290.253
315.463
338.018
357.541
373.689
386.165
394.727
399.192
399.43
395.431
387.251
374.957
358.733
338.827
315.538
289.222
260.279
229.141
196.264
162.119
127.181
91.916
56.7713
22.1734
-11.5328
-44.0205
-75.0265
-104.348
-131.84
-157.408
-181.003
-202.616
-222.265
-239.995
-255.866
-269.952
-282.333
-293.091
-302.309
-310.067
-316.436
-321.48
-325.259
-327.802
-329.142
-329.303
-328.285
-326.072
-322.644
-317.97
-312.01
-304.722
-296.059
-285.979
-274.437
-261.395
-246.813
-230.656
-212.895
-193.509
-172.489
-149.844
-125.603
-99.8185
-72.5716
-43.974
-14.1715
16.6613
48.3453
80.5137
112.915
145.221
177.066
208.061
237.8
265.861
291.823
315.267
335.796
353.05
366.715
376.533
382.309
383.907
381.269
374.463
363.548
348.698
330.159
308.235
283.283
255.704
225.94
194.447
161.697
128.161
94.2889
60.511
27.2755
-5.22071
-36.6346
-66.7334
-95.34
-122.325
-147.599
-171.108
-192.824
-212.745
-230.885
-247.275
-261.957
-274.981
-286.403
-296.282
-304.681
-311.661
-317.283
-321.599
-324.66
-326.512
-327.164
-326.651
-324.991
-322.18
-318.217
-313.094
-306.8
-299.326
-290.654
-280.758
-269.608
-257.157
-243.363
-228.176
-211.551
-193.447
-173.84
-152.721
-130.102
-106.021
-80.5416
-53.7534
-25.7757
3.24427
33.1704
63.9493
94.8957
125.815
156.435
186.43
215.413
243.02
268.848
292.519
313.632
331.824
346.752
358.1
365.604
369.071
368.387
363.487
354.454
341.417
324.535
304.104
280.506
254.149
225.511
195.091
163.376
130.855
97.977
65.1545
32.7675
1.19982
-26.9125
-55.6446
-83.0162
-108.778
-132.813
-155.06
-175.508
-194.195
-211.184
-226.57
-240.461
-252.971
-264.219
-274.308
-283.327
-291.347
-298.409
-304.535
-309.721
-313.942
-317.155
-319.302
-320.302
-320.076
-318.511
-315.535
-311.077
-305.077
-297.461
-288.176
-277.181
-264.441
-249.938
-233.68
-215.686
-195.988
-174.643
-151.714
-127.294
-101.517
-74.5289
-46.4347
-15.7488
13.7903
43.5279
73.2649
102.743
131.623
159.574
186.3
211.469
234.809
256.039
274.923
291.255
304.811
315.378
-35.7917
-65.4325
-94.4934
-122.412
-148.853
-173.68
-196.774
-218.098
-237.62
-255.341
-271.295
-285.509
-298.026
-308.893
-318.154
-325.848
-332.012
-336.673
-339.845
-341.543
-341.797
-340.6
-337.933
-333.774
-328.095
-320.864
-312.036
-301.565
-289.4
-275.492
-259.783
-242.238
-222.826
-201.527
-178.352
-153.3
-126.429
-97.8293
-67.6058
-35.9246
-3.0147
30.8664
65.4284
100.339
135.283
169.844
203.595
236.143
267.045
295.862
322.217
345.738
366.098
383.012
396.234
405.579
410.925
412.179
409.276
402.301
391.334
376.525
358.084
336.299
311.459
283.907
254.051
222.297
189.063
154.76
119.799
84.5939
49.5418
16.014
-17.4956
-50.0657
-81.4084
-111.328
-139.645
-166.235
-191.006
-213.889
-234.846
-253.86
-270.92
-286.034
-299.215
-310.498
-319.924
-327.538
-333.39
-337.542
-340.056
-341.035
-340.515
-338.541
-335.156
-330.383
-324.233
-316.7
-307.766
-297.4
-285.568
-272.232
-257.354
-240.9
-222.842
-203.168
-181.875
-158.981
-134.519
-108.545
-81.1363
-52.3961
-22.4553
8.53341
40.3877
72.8239
105.6
138.422
170.962
202.858
233.728
263.166
290.76
316.098
338.774
358.41
374.657
387.214
395.834
400.333
400.584
396.571
388.345
375.984
359.673
339.661
316.25
289.803
260.721
229.441
196.424
162.143
127.077
91.694
56.4448
21.7554
-12.0235
-44.5669
-75.6124
-104.958
-132.461
-158.028
-181.613
-203.209
-222.836
-240.54
-256.384
-270.442
-282.795
-293.525
-302.719
-310.455
-316.803
-321.832
-325.597
-328.131
-329.468
-329.63
-328.615
-326.408
-322.989
-318.328
-312.382
-305.109
-296.462
-286.397
-274.871
-261.843
-247.276
-231.133
-213.384
-194.008
-172.994
-150.351
-126.104
-100.309
-73.0424
-44.4158
-14.5745
16.3056
48.0615
80.3034
112.792
145.198
177.153
208.268
238.132
266.323
292.415
315.985
336.632
353.989
367.74
377.623
383.44
385.054
382.41
375.564
364.585
349.651
331.008
308.964
283.88
256.164
226.259
194.628
161.746
128.086
94.1044
60.233
26.9028
-5.6559
-37.1187
-67.2531
-95.8828
-122.88
-148.157
-171.662
-193.37
-213.277
-231.401
-247.772
-262.434
-275.438
-286.839
-296.698
-305.077
-312.038
-317.644
-321.946
-324.996
-326.837
-327.483
-326.969
-325.308
-322.498
-318.538
-313.419
-307.131
-299.665
-291.002
-281.119
-269.982
-257.548
-243.772
-228.603
-211.993
-193.903
-174.306
-153.191
-130.571
-106.481
-80.9864
-54.1748
-26.1661
2.8922
32.8764
63.7415
94.7613
125.767
156.478
186.576
215.669
243.39
269.336
293.124
314.351
332.652
347.678
359.111
366.682
370.193
369.527
364.617
355.546
342.437
325.458
304.907
281.171
254.665
225.875
195.306
163.449
130.799
97.804
64.8734
32.373
0.634989
-27.2579
-56.1325
-83.5596
-109.342
-133.38
-155.617
-176.045
-194.705
-211.661
-227.011
-240.865
-253.34
-264.556
-274.618
-283.616
-291.621
-298.677
-304.802
-309.993
-314.224
-317.452
-319.616
-320.639
-320.439
-318.895
-315.941
-311.504
-305.524
-297.928
-288.659
-277.678
-264.949
-250.454
-234.199
-216.205
-196.503
-175.148
-152.205
-127.761
-101.954
-74.9341
-46.8295
-15.9856
13.582
43.3837
73.1994
102.765
131.738
159.786
186.61
211.873
235.302
256.613
275.572
291.969
305.579
316.188
-36.3082
-66.0032
-95.1029
-123.048
-149.503
-174.333
-197.423
-218.736
-238.242
-255.944
-271.877
-286.07
-298.567
-309.415
-318.658
-326.338
-332.49
-337.141
-340.306
-342.001
-342.261
-341.068
-338.408
-334.26
-328.594
-321.38
-312.571
-302.121
-289.978
-276.092
-260.406
-242.881
-223.485
-202.199
-179.03
-153.978
-127.097
-98.4755
-68.2167
-36.4863
-3.51329
30.4493
65.1037
100.121
135.184
169.88
203.772
236.468
267.52
296.483
322.977
346.626
367.098
384.11
397.408
406.807
412.183
413.443
410.528
403.508
392.477
377.582
359.035
337.128
312.153
284.458
254.456
222.556
189.179
154.74
119.655
84.3399
49.1951
15.5609
-18.0148
-50.6384
-82.024
-111.975
-140.312
-166.914
-191.689
-214.57
-235.519
-254.523
-271.568
-286.666
-299.83
-311.095
-320.503
-328.094
-333.924
-338.054
-340.546
-341.51
-340.975
-338.99
-335.599
-330.825
-324.678
-317.154
-308.232
-297.882
-286.067
-272.749
-257.888
-241.448
-223.404
-203.739
-182.452
-159.558
-135.091
-109.104
-81.6751
-52.9057
-22.9264
8.11163
40.0347
72.5456
105.41
138.334
170.989
203.012
234.017
263.599
291.339
316.823
339.639
359.404
375.764
388.414
397.102
401.64
401.905
397.875
389.597
377.16
360.748
340.614
317.065
290.466
261.226
229.784
196.606
162.169
126.955
91.438
56.0687
21.2755
-12.5869
-45.194
-76.2842
-105.657
-133.172
-158.739
-182.312
-203.887
-223.489
-241.164
-256.976
-271.002
-283.322
-294.022
-303.187
-310.897
-317.224
-322.233
-325.983
-328.508
-329.841
-330.002
-328.991
-326.792
-323.384
-318.737
-312.808
-305.552
-296.923
-286.875
-275.366
-262.356
-247.806
-231.679
-213.944
-194.579
-173.572
-150.93
-126.679
-100.871
-73.5819
-44.9224
-15.037
15.8959
47.7365
80.0612
112.65
145.17
177.252
208.503
238.511
266.85
293.092
316.806
337.588
355.064
368.914
378.871
384.735
386.369
383.716
376.824
365.774
350.741
331.979
309.797
284.562
256.688
226.623
194.833
161.8
127.999
93.8907
59.9104
26.4768
-6.15492
-37.6741
-67.8489
-96.5047
-123.516
-148.797
-172.297
-193.995
-213.886
-231.991
-248.341
-262.98
-275.961
-287.338
-297.174
-305.53
-312.47
-318.056
-322.343
-325.379
-327.208
-327.848
-327.332
-325.669
-322.861
-318.905
-313.791
-307.509
-300.052
-291.4
-281.531
-270.411
-257.995
-244.239
-229.09
-212.499
-194.425
-174.839
-153.73
-131.108
-107.009
-81.496
-54.6576
-26.6132
2.48864
32.5337
63.5063
94.6066
125.71
156.526
186.74
215.961
243.812
269.893
293.815
315.173
333.6
348.738
360.266
367.915
371.478
370.833
365.912
356.796
343.605
326.516
305.826
281.931
255.254
226.29
195.55
163.531
130.733
97.6047
64.555
31.9269
-0.00802703
-27.6584
-56.6992
-84.1849
-109.989
-134.029
-156.254
-176.66
-195.288
-212.207
-227.515
-241.327
-253.761
-264.94
-274.971
-283.946
-291.935
-298.982
-305.106
-310.303
-314.546
-317.791
-319.976
-321.024
-320.854
-319.335
-316.405
-311.992
-306.036
-298.462
-289.212
-278.247
-265.531
-251.043
-234.793
-216.8
-197.093
-175.727
-152.766
-128.296
-102.454
-75.3961
-47.2837
-16.2564
13.341
43.2171
73.1233
102.789
131.869
160.028
186.963
212.334
235.865
257.271
276.314
292.786
306.458
317.114
-36.8911
-66.647
-95.7902
-123.765
-150.236
-175.07
-198.153
-219.453
-238.941
-256.623
-272.532
-286.701
-299.175
-310.002
-319.226
-326.889
-333.027
-337.667
-340.825
-342.516
-342.782
-341.594
-338.942
-334.805
-329.155
-321.959
-313.172
-302.746
-290.628
-276.768
-261.107
-243.604
-224.228
-202.956
-179.795
-154.742
-127.85
-99.2044
-68.906
-37.1207
-4.07617
29.9775
64.7361
99.873
135.072
169.917
203.97
236.833
268.054
297.182
323.832
347.625
368.226
385.346
398.731
408.191
413.602
414.868
411.936
404.869
393.764
378.772
360.107
338.062
312.934
285.078
254.911
222.845
189.308
154.716
119.491
84.0514
48.8023
15.0495
-18.6006
-51.2849
-82.7185
-112.704
-141.065
-167.679
-192.458
-215.336
-236.278
-255.269
-272.297
-287.377
-300.522
-311.768
-321.153
-328.72
-334.525
-338.631
-341.097
-342.045
-341.492
-339.495
-336.097
-331.321
-325.179
-317.665
-308.757
-298.424
-286.629
-273.33
-258.489
-242.067
-224.037
-204.383
-183.102
-160.209
-135.735
-109.735
-82.2828
-53.4807
-23.4583
7.63406
39.6362
72.2303
105.194
138.234
171.018
203.183
234.342
264.084
291.99
317.638
340.613
360.524
377.012
389.766
398.531
403.114
403.394
399.344
391.009
378.485
361.96
341.687
317.982
291.213
261.793
230.168
196.809
162.196
126.817
91.1469
55.6423
20.7324
-13.224
-45.9027
-77.0431
-106.447
-133.975
-159.54
-183.099
-204.652
-224.225
-241.867
-257.643
-271.633
-283.916
-294.582
-303.714
-311.395
-317.697
-322.685
-326.417
-328.931
-330.259
-330.42
-329.415
-327.225
-323.829
-319.198
-313.287
-306.05
-297.442
-287.413
-275.924
-262.933
-248.402
-232.294
-214.575
-195.223
-174.223
-151.584
-127.327
-101.504
-74.1907
-45.4945
-15.5598
15.432
47.369
79.7858
112.488
145.137
177.361
208.765
238.935
267.442
293.852
317.731
338.664
356.275
370.236
380.278
386.196
387.851
385.187
378.245
367.113
351.971
333.073
310.735
285.33
257.278
227.031
195.063
161.858
127.898
93.6468
59.5429