/*--------------------------------*- C++ -*----------------------------------*\
| =========                 |                                                 |
| \\      /  F ield         | OpenFOAM: The Open Source CFD Toolbox           |
|  \\    /   O peration     | Version:  3.0.1                                 |
|   \\  /    A nd           | Web:      www.OpenFOAM.org                      |
|    \\/     M anipulation  |                                                 |
\*---------------------------------------------------------------------------*/
FoamFile
{
    version     2.0;
    format      ascii;
    class       surfaceScalarField;
    location    "55.8";
    object      alphaPhi;
}
// * * * * * * * * * * * * * * * * * * * * * * * * * * * * * * * * * * * * * //

dimensions      [0 3 -1 0 0 0 0];

internalField   nonuniform List<scalar> 
42423
(
-0.000172549
3.28987e-06
-0.000175063
2.51336e-06
-0.000176895
1.83192e-06
-0.000178055
1.16038e-06
-0.00017856
5.04828e-07
-0.000178387
-1.72876e-07
-0.000177455
-9.32154e-07
-0.000175858
-1.59626e-06
-0.000173641
-2.21738e-06
-0.000170621
-3.02012e-06
-0.000166845
-3.77625e-06
-0.000162372
-4.47263e-06
-0.000156984
-5.38764e-06
-0.000150774
-6.21088e-06
-0.000143652
-7.12116e-06
-0.000135674
-7.97818e-06
-0.000126943
-8.73169e-06
-0.000117123
-9.81977e-06
-0.000106349
-1.07739e-05
-9.46841e-05
-1.16649e-05
-8.1959e-05
-1.27251e-05
-6.82032e-05
-1.37558e-05
-5.36107e-05
-1.45925e-05
-3.79993e-05
-1.56114e-05
-2.1622e-05
-1.63774e-05
-4.40151e-06
-1.72205e-05
1.3513e-05
-1.79146e-05
3.17897e-05
-1.82767e-05
5.04643e-05
-1.86746e-05
6.93593e-05
-1.8895e-05
8.81198e-05
-1.87605e-05
0.000106645
-1.85249e-05
0.0001246
-1.79556e-05
0.000141787
-1.71866e-05
0.000157962
-1.61749e-05
0.000172801
-1.48395e-05
0.000186083
-1.32817e-05
0.000197604
-1.1521e-05
0.000207117
-9.51296e-06
0.000214457
-7.34063e-06
0.000219462
-5.00501e-06
0.000222109
-2.64655e-06
0.000222306
-1.9742e-07
0.000219975
2.33124e-06
0.000215234
4.74106e-06
0.00020827
6.96376e-06
0.000199071
9.19914e-06
0.000187858
1.12126e-05
0.000174863
1.29952e-05
0.000160243
1.46198e-05
0.00014433
1.5913e-05
0.000127368
1.69623e-05
0.000109627
1.77411e-05
9.13438e-05
1.82831e-05
7.27599e-05
1.85839e-05
5.41599e-05
1.86e-05
3.56486e-05
1.85112e-05
1.74041e-05
1.82445e-05
-2.29196e-07
1.76333e-05
-1.72684e-05
1.70392e-05
-3.35479e-05
1.62795e-05
-4.90438e-05
1.54959e-05
-6.35968e-05
1.4553e-05
-7.72137e-05
1.36169e-05
-8.98812e-05
1.26675e-05
-0.000101522
1.16411e-05
-0.000112179
1.06564e-05
-0.000121888
9.70951e-06
-0.000130622
8.73358e-06
-0.000138499
7.8768e-06
-0.000145451
6.95263e-06
-0.000151564
6.11292e-06
-0.000156974
5.41017e-06
-0.000161593
4.61873e-06
-0.000165422
3.82888e-06
-0.000168562
3.13949e-06
-0.000170893
2.3313e-06
-0.0001726
1.70723e-06
-0.000173604
1.0033e-06
-0.00017391
3.06008e-07
-0.000173417
-4.92871e-07
-0.000172177
-1.2401e-06
-0.000170121
-2.05573e-06
-0.00016723
-2.89172e-06
-0.000163567
-3.6632e-06
-0.000159037
-4.53029e-06
-0.000153622
-5.41459e-06
-0.000147299
-6.32327e-06
-0.000140141
-7.15827e-06
-0.000132125
-8.0166e-06
-0.000123292
-8.83365e-06
-0.000113613
-9.67866e-06
-0.000103138
-1.04749e-05
-9.18819e-05
-1.12567e-05
-7.98213e-05
-1.20607e-05
-6.69624e-05
-1.28591e-05
-5.33286e-05
-1.36338e-05
-3.88873e-05
-1.44414e-05
-2.37881e-05
-1.50993e-05
-7.98063e-06
-1.58075e-05
8.42275e-06
-1.64034e-05
2.53267e-05
-1.6904e-05
4.26296e-05
-1.73029e-05
6.01396e-05
-1.75101e-05
7.77189e-05
-1.75793e-05
9.51596e-05
-1.74407e-05
0.000112269
-1.71099e-05
0.000128812
-1.65422e-05
0.000144602
-1.57903e-05
0.00015942
-1.48183e-05
0.000173042
-1.36219e-05
0.000185232
-1.21902e-05
0.000195804
-1.05718e-05
0.000204579
-8.7755e-06
0.000211385
-6.80554e-06
0.00021607
-4.68485e-06
0.000218519
-2.44902e-06
0.000218677
-1.5846e-07
0.000216487
2.19042e-06
0.000211894
4.59296e-06
0.000204995
6.89805e-06
0.000195939
9.05688e-06
0.000184878
1.10602e-05
0.000171945
1.29333e-05
0.000157357
1.45877e-05
0.000141434
1.59231e-05
0.00012434
1.70939e-05
0.000106412
1.79287e-05
8.79084e-05
1.85034e-05
6.90944e-05
1.8814e-05
5.01359e-05
1.89585e-05
3.13456e-05
1.87903e-05
1.28624e-05
1.84832e-05
-5.0639e-06
1.79263e-05
-2.23217e-05
1.72578e-05
-3.87549e-05
1.64332e-05
-5.42756e-05
1.55207e-05
-6.87464e-05
1.44709e-05
-8.21741e-05
1.34276e-05
-9.44563e-05
1.22822e-05
-0.000105626
1.11695e-05
-0.000115649
1.00234e-05
-0.000124615
8.96587e-06
-0.000132482
7.86727e-06
-0.000139323
6.84075e-06
-0.000145258
5.93531e-06
-0.000150225
4.96639e-06
-0.000154336
4.11153e-06
-0.000157623
3.28716e-06
-0.000160148
2.52417e-06
-0.000161945
1.79707e-06
-0.000163061
1.11668e-06
-0.000163568
5.06441e-07
-0.000163467
-1.01142e-07
-0.000162796
-6.70413e-07
-0.000161577
-1.21919e-06
-0.000159821
-1.75643e-06
-0.000157535
-2.28546e-06
-0.000154711
-2.824e-06
-0.000151331
-3.3806e-06
-0.000147436
-3.89512e-06
-0.000142944
-4.49145e-06
-0.000137889
-5.05472e-06
-0.000132175
-5.71489e-06
-0.000125933
-6.24161e-06
-0.000118978
-6.95525e-06
-0.000111303
-7.6746e-06
-0.000102957
-8.3462e-06
-9.37754e-05
-9.18154e-06
-8.37969e-05
-9.97859e-06
-7.29637e-05
-1.08332e-05
-6.13966e-05
-1.15671e-05
-4.90323e-05
-1.23643e-05
-3.58917e-05
-1.31406e-05
-2.19303e-05
-1.39615e-05
-7.21857e-06
-1.47118e-05
8.09646e-06
-1.53151e-05
2.40402e-05
-1.59438e-05
4.04779e-05
-1.64378e-05
5.7276e-05
-1.67982e-05
7.42644e-05
-1.69884e-05
9.12809e-05
-1.70165e-05
0.000108102
-1.68215e-05
0.00012448
-1.63778e-05
0.000140194
-1.57139e-05
0.000154962
-1.47684e-05
0.000168476
-1.35136e-05
0.000180509
-1.2033e-05
0.000190788
-1.02793e-05
0.00019911
-8.32253e-06
0.000205274
-6.16404e-06
0.000209153
-3.87881e-06
0.000210619
-1.46583e-06
0.000209681
9.38325e-07
0.000206261
3.41999e-06
0.00020044
5.82046e-06
0.000192445
7.99511e-06
0.000182271
1.01736e-05
0.000170186
1.20855e-05
0.000156341
1.38451e-05
0.000140941
1.53996e-05
0.000124265
1.66765e-05
0.000106584
1.76809e-05
8.82944e-05
1.82893e-05
6.97027e-05
1.85918e-05
5.11532e-05
1.85495e-05
3.2987e-05
1.81662e-05
1.53561e-05
1.76309e-05
-1.54383e-06
1.68999e-05
-1.76223e-05
1.60785e-05
-3.27547e-05
1.51324e-05
-4.6961e-05
1.42063e-05
-6.02002e-05
1.32392e-05
-7.24776e-05
1.22773e-05
-8.3818e-05
1.13404e-05
-9.42438e-05
1.04258e-05
-0.00010378
9.53587e-06
-0.000112446
8.66628e-06
-0.000120296
7.85e-06
-0.000127297
7.00058e-06
-0.000133497
6.20059e-06
-0.000139019
5.52201e-06
-0.000143759
4.73974e-06
-0.000147799
4.03999e-06
-0.000151142
3.34346e-06
-0.000153905
2.76295e-06
-0.000156054
2.14823e-06
-0.000157609
1.55551e-06
-0.000158593
9.83561e-07
-0.000159031
4.38865e-07
-0.00015891
-1.21112e-07
-0.000158213
-6.96998e-07
-0.000157099
-1.11468e-06
-0.000155381
-1.71803e-06
-0.000153091
-2.28993e-06
-0.000150248
-2.84271e-06
-0.00014683
-3.41809e-06
-0.000142887
-3.94305e-06
-0.000138302
-4.58482e-06
-0.000133083
-5.21895e-06
-0.00012716
-5.92344e-06
-0.000120668
-6.49137e-06
-0.000113355
-7.31361e-06
-0.0001054
-7.95438e-06
-9.67005e-05
-8.6998e-06
-8.71859e-05
-9.51461e-06
-7.69534e-05
-1.02325e-05
-6.59146e-05
-1.10389e-05
-5.40772e-05
-1.18374e-05
-4.14737e-05
-1.26036e-05
-2.81193e-05
-1.33545e-05
-1.40232e-05
-1.40961e-05
6.44875e-07
-1.46681e-05
1.5864e-05
-1.52192e-05
3.15261e-05
-1.56621e-05
4.74408e-05
-1.59148e-05
6.34509e-05
-1.60102e-05
7.93987e-05
-1.59479e-05
9.51192e-05
-1.57206e-05
0.000110438
-1.53191e-05
0.000125113
-1.4675e-05
0.000138933
-1.38207e-05
0.000151685
-1.27515e-05
0.000163057
-1.13722e-05
0.000172862
-9.80541e-06
0.000180807
-7.94586e-06
0.000186736
-5.92839e-06
0.000190512
-3.77668e-06
0.000191916
-1.40414e-06
0.00019098
9.35801e-07
0.000187637
3.34213e-06
0.000182115
5.52214e-06
0.000174571
7.54433e-06
0.000165019
9.55107e-06
0.000153816
1.12038e-05
0.000141207
1.2608e-05
0.000127436
1.37714e-05
0.000112925
1.45111e-05
9.77863e-05
1.51385e-05
8.24847e-05
1.53015e-05
6.7071e-05
1.54138e-05
5.1782e-05
1.5289e-05
3.65196e-05
1.52624e-05
2.16409e-05
1.48786e-05
6.92051e-06
1.47204e-05
-7.5917e-06
1.45122e-05
-2.17389e-05
1.41472e-05
-3.54316e-05
1.36927e-05
-4.86659e-05
1.32343e-05
-6.12906e-05
1.26248e-05
-7.32817e-05
1.19911e-05
-8.44815e-05
1.11998e-05
-9.48668e-05
1.03853e-05
-0.00010447
9.60368e-06
-0.000113238
8.76719e-06
-0.000121184
7.94679e-06
-0.00012836
7.17594e-06
-0.000134733
6.37301e-06
-0.000140329
5.59579e-06
-0.000145175
4.84604e-06
-0.000149257
4.08176e-06
-0.00015262
3.36253e-06
-0.000155226
2.60647e-06
-0.000157041
1.81522e-06
-0.000158089
1.04739e-06
-0.000158345
2.56237e-07
-0.000157971
-3.73393e-07
-0.000156973
-9.98839e-07
-0.00015524
-1.73302e-06
-0.000152765
-2.47435e-06
-0.000149507
-3.2584e-06
-0.00014538
-4.12649e-06
-0.000140392
-4.9887e-06
-0.000134564
-5.82772e-06
-0.000127656
-6.90832e-06
-0.00011984
-7.81594e-06
-0.000110867
-8.97315e-06
-0.000100903
-9.9641e-06
-9.00515e-05
-1.08511e-05
-7.80294e-05
-1.20221e-05
-6.48798e-05
-1.31496e-05
-5.0804e-05
-1.40758e-05
-3.55262e-05
-1.52778e-05
-1.9445e-05
-1.60812e-05
-2.40274e-06
-1.70423e-05
1.53868e-05
-1.77896e-05
3.3636e-05
-1.82492e-05
5.24288e-05
-1.87928e-05
7.15617e-05
-1.9133e-05
9.05865e-05
-1.90248e-05
0.000109495
-1.89087e-05
0.000128044
-1.85492e-05
0.000145789
-1.77446e-05
0.00016262
-1.68307e-05
0.00017824
-1.56206e-05
0.000192429
-1.41891e-05
0.000204937
-1.2508e-05
0.000215457
-1.05202e-05
0.000223856
-8.39868e-06
0.000229989
-6.13313e-06
0.000233694
-3.70476e-06
0.00023495
-1.25624e-06
0.000233727
1.22321e-06
0.000230039
3.68836e-06
0.000223969
6.06966e-06
0.000215599
8.37031e-06
0.000205173
1.04255e-05
0.00019283
1.23434e-05
0.000178687
1.41424e-05
0.000163132
1.55553e-05
0.000146286
1.68456e-05
0.000128611
1.76755e-05
0.000110163
1.84474e-05
9.11297e-05
1.90335e-05
7.20071e-05
1.91226e-05
5.27797e-05
1.92274e-05
1.90601e-05
-0.000172586
6.58761e-06
-0.000175103
5.03013e-06
-0.000176936
3.66481e-06
-0.000178099
2.32324e-06
-0.000178609
1.0152e-06
-0.000178432
-3.50048e-07
-0.000177496
-1.86862e-06
-0.0001759
-3.19135e-06
-0.000173684
-4.43353e-06
-0.00017067
-6.03477e-06
-0.000166894
-7.55237e-06
-0.000162422
-8.94431e-06
-0.000157033
-1.07766e-05
-0.000150825
-1.24187e-05
-0.000143704
-1.42426e-05
-0.000135725
-1.59565e-05
-0.000126996
-1.74611e-05
-0.000117177
-1.96386e-05
-0.000106402
-2.15491e-05
-9.47363e-05
-2.33307e-05
-8.2009e-05
-2.54524e-05
-6.82521e-05
-2.75127e-05
-5.36558e-05
-2.91889e-05
-3.80377e-05
-3.12295e-05
-2.16546e-05
-3.27605e-05
-4.4317e-06
-3.44434e-05
1.34868e-05
-3.58331e-05
3.17729e-05
-3.65629e-05
5.04582e-05
-3.736e-05
6.937e-05
-3.78068e-05
8.81426e-05
-3.75332e-05
0.000106671
-3.70537e-05
0.000124642
-3.59263e-05
0.000141843
-3.43874e-05
0.000158024
-3.23563e-05
0.000172876
-2.96912e-05
0.000186167
-2.65729e-05
0.0001977
-2.30537e-05
0.000207216
-1.90299e-05
0.000214568
-1.4692e-05
0.000219576
-1.00133e-05
0.000222228
-5.29817e-06
0.000222428
-3.98299e-07
0.000220087
4.67242e-06
0.000215344
9.48369e-06
0.000208377
1.39308e-05
0.000199171
1.84053e-05
0.000187954
2.24294e-05
0.000174947
2.60027e-05
0.000160318
2.92485e-05
0.000144396
3.18347e-05
0.000127423
3.39358e-05
0.000109669
3.54947e-05
9.13753e-05
3.6577e-05
7.27818e-05
3.71775e-05
5.41793e-05
3.72024e-05
3.56477e-05
3.70428e-05
1.73944e-05
3.64978e-05
-2.47283e-07
3.5275e-05
-1.72972e-05
3.40891e-05
-3.35867e-05
3.25689e-05
-4.90899e-05
3.09991e-05
-6.36505e-05
2.91135e-05
-7.72737e-05
2.72402e-05
-8.99426e-05
2.53363e-05
-0.000101588
2.32866e-05
-0.000112248
2.13164e-05
-0.000121959
1.94208e-05
-0.000130694
1.74683e-05
-0.00013857
1.57526e-05
-0.000145523
1.39055e-05
-0.000151638
1.22283e-05
-0.000157042
1.08142e-05
-0.000161661
9.23736e-06
-0.000165485
7.65322e-06
-0.000168626
6.28052e-06
-0.000170958
4.66247e-06
-0.000172656
3.40528e-06
-0.000173661
2.00892e-06
-0.000173969
6.13822e-07
-0.000173477
-9.85222e-07
-0.000172237
-2.4807e-06
-0.000170176
-4.11623e-06
-0.000167282
-5.78641e-06
-0.000163615
-7.32994e-06
-0.000159082
-9.0639e-06
-0.00015367
-1.08268e-05
-0.000147348
-1.26453e-05
-0.000140178
-1.43289e-05
-0.000132155
-1.60397e-05
-0.000123322
-1.76673e-05
-0.000113646
-1.93542e-05
-0.000103175
-2.09468e-05
-9.19163e-05
-2.25152e-05
-7.98562e-05
-2.4121e-05
-6.6997e-05
-2.57184e-05
-5.33625e-05
-2.72684e-05
-3.8922e-05
-2.8882e-05
-2.38139e-05
-3.02075e-05
-8.00242e-06
-3.16191e-05
8.40499e-06
-3.28109e-05
2.53143e-05
-3.38133e-05
4.26303e-05
-3.4619e-05
6.01541e-05
-3.5034e-05
7.77541e-05
-3.51795e-05
9.52024e-05
-3.4889e-05
0.00011233
-3.42377e-05
0.000128885
-3.30974e-05
0.000144684
-3.1589e-05
0.000159512
-2.96471e-05
0.000173145
-2.72542e-05
0.000185351
-2.43961e-05
0.000195918
-2.1139e-05
0.000204699
-1.75564e-05
0.000211507
-1.36138e-05
0.000216196
-9.37457e-06
0.000218646
-4.89856e-06
0.00021879
-3.02524e-07
0.00021658
4.39993e-06
0.000211975
9.19819e-06
0.000205069
1.38041e-05
0.000195997
1.81292e-05
0.000184911
2.21463e-05
0.000171963
2.58812e-05
0.000157352
2.91987e-05
0.00014139
3.18851e-05
0.000124293
3.41906e-05
0.000106349
3.5873e-05
8.78163e-05
3.70358e-05
6.89897e-05
3.76406e-05
5.00019e-05
3.79464e-05
3.11956e-05
3.75966e-05
1.27069e-05
3.69719e-05
-5.23773e-06
3.5871e-05
-2.25052e-05
3.45254e-05
-3.89515e-05
3.28795e-05
-5.44775e-05
3.10467e-05
-6.89536e-05
2.8947e-05
-8.23721e-05
2.68461e-05
-9.4646e-05
2.45561e-05
-0.000105825
2.2349e-05
-0.000115867
2.00649e-05
-0.000124819
1.79183e-05
-0.000132687
1.57345e-05
-0.000139519
1.36737e-05
-0.000145452
1.1868e-05
-0.000150419
9.93336e-06
-0.00015452
8.2125e-06
-0.0001578
6.56729e-06
-0.000160319
5.04271e-06
-0.00016211
3.58848e-06
-0.000163222
2.22862e-06
-0.000163717
1.00169e-06
-0.000163612
-2.06638e-07
-0.000162941
-1.34125e-06
-0.000161713
-2.44732e-06
-0.000159948
-3.5212e-06
-0.000157655
-4.57813e-06
-0.000154825
-5.65409e-06
-0.000151448
-6.7584e-06
-0.000147551
-7.79149e-06
-0.000143054
-8.98894e-06
-0.000137992
-1.01164e-05
-0.000132267
-1.14401e-05
-0.000126033
-1.2475e-05
-0.000119079
-1.39093e-05
-0.00011139
-1.53644e-05
-0.000103037
-1.66991e-05
-9.3858e-05
-1.83603e-05
-8.38787e-05
-1.99579e-05
-7.30389e-05
-2.1673e-05
-6.14561e-05
-2.31499e-05
-4.90693e-05
-2.47511e-05
-3.59444e-05
-2.62656e-05
-2.19788e-05
-2.79272e-05
-7.26475e-06
-2.94259e-05
8.06715e-06
-3.06471e-05
2.4026e-05
-3.19027e-05
4.04757e-05
-3.28876e-05
5.72887e-05
-3.36113e-05
7.42885e-05
-3.39883e-05
9.13188e-05
-3.4047e-05
0.000108155
-3.36577e-05
0.000124545
-3.27681e-05
0.000140258
-3.14267e-05
0.000155037
-2.9548e-05
0.000168563
-2.70393e-05
0.000180606
-2.40763e-05
0.000190893
-2.05663e-05
0.00019922
-1.66493e-05
0.00020538
-1.23245e-05
0.000209261
-7.75972e-06
0.00021073
-2.93507e-06
0.000209759
1.90923e-06
0.000206331
6.84836e-06
0.000200492
1.16587e-05
0.000192465
1.6023e-05
0.000182287
2.03512e-05
0.000170186
2.41868e-05
0.00015634
2.76903e-05
0.000140913
3.08273e-05
0.000124209
3.33798e-05
0.000106513
3.53775e-05
8.81897e-05
3.66124e-05
6.96029e-05
3.71787e-05
5.10017e-05
3.71507e-05
3.28167e-05
3.63512e-05
1.51607e-05
3.52869e-05
-1.71678e-06
3.37775e-05
-1.78064e-05
3.21681e-05
-3.2943e-05
3.0269e-05
-4.71572e-05
2.84206e-05
-6.03946e-05
2.64766e-05
-7.2671e-05
2.45538e-05
-8.4009e-05
2.26784e-05
-9.4442e-05
2.08589e-05
-0.000103973
1.90669e-05
-0.000112649
1.73425e-05
-0.00012048
1.56808e-05
-0.000127486
1.40067e-05
-0.000133716
1.24306e-05
-0.0001392
1.10061e-05
-0.000143938
9.47798e-06
-0.000147961
8.06305e-06
-0.000151312
6.6944e-06
-0.00015409
5.54072e-06
-0.000156222
4.28033e-06
-0.000157764
3.09774e-06
-0.000158742
1.96093e-06
-0.000159175
8.72017e-07
-0.000159057
-2.38597e-07
-0.000158391
-1.36292e-06
-0.000157231
-2.27524e-06
-0.000155513
-3.43588e-06
-0.000153231
-4.57182e-06
-0.000150375
-5.69921e-06
-0.000146943
-6.85025e-06
-0.000142996
-7.88929e-06
-0.0001384
-9.18091e-06
-0.000133179
-1.04399e-05
-0.000127251
-1.18513e-05
-0.00012076
-1.2983e-05
-0.000113462
-1.46116e-05
-0.000105468
-1.59483e-05
-9.6775e-05
-1.73927e-05
-8.72576e-05
-1.9032e-05
-7.70128e-05
-2.04774e-05
-6.59697e-05
-2.20819e-05
-5.41327e-05
-2.36744e-05
-4.15232e-05
-2.52131e-05
-2.81583e-05
-2.67194e-05
-1.40596e-05
-2.81948e-05
6.22137e-07
-2.93499e-05
1.58518e-05
-3.04489e-05
3.15233e-05
-3.13336e-05
4.74446e-05
-3.18361e-05
6.34632e-05
-3.20289e-05
7.94228e-05
-3.19076e-05
9.51508e-05
-3.14486e-05
0.000110475
-3.06435e-05
0.000125153
-2.93534e-05
0.000138988
-2.76551e-05
0.000151743
-2.55068e-05
0.000163119
-2.27484e-05
0.000172932
-1.96186e-05
0.000180887
-1.59016e-05
0.000186835
-1.18767e-05
0.000190609
-7.55112e-06
0.000192002
-2.79756e-06
0.000191074
1.86327e-06
0.000187727
6.68926e-06
0.000182198
1.10511e-05
0.00017463
1.51118e-05
0.00016509
1.90909e-05
0.000153877
2.2417e-05
0.000141257
2.52276e-05
0.000127475
2.75532e-05
0.000112942
2.90446e-05
9.78157e-05
3.02646e-05
8.24767e-05
3.06404e-05
6.70893e-05
3.08011e-05
5.17646e-05
3.06137e-05
3.64998e-05
3.05272e-05
2.16246e-05
2.97538e-05
6.90548e-06
2.94395e-05
-7.60826e-06
2.90259e-05
-2.1757e-05
2.8296e-05
-3.54521e-05
2.73878e-05
-4.86885e-05
2.64707e-05
-6.13139e-05
2.52501e-05
-7.33064e-05
2.39835e-05
-8.4506e-05
2.23994e-05
-9.48913e-05
2.07706e-05
-0.000104495
1.92075e-05
-0.000113262
1.75337e-05
-0.000121208
1.58931e-05
-0.000128383
1.43512e-05
-0.000134754
1.27442e-05
-0.000140347
1.11889e-05
-0.00014519
9.68833e-06
-0.00014927
8.16156e-06
-0.000152638
6.73128e-06
-0.000155249
5.21719e-06
-0.000157058
3.62422e-06
-0.000158103
2.09188e-06
-0.000158374
5.27614e-07
-0.000158013
-7.34309e-07
-0.000157011
-2.0005e-06
-0.000155286
-3.45851e-06
-0.000152815
-4.94536e-06
-0.000149558
-6.51509e-06
-0.000145439
-8.24588e-06
-0.000140456
-9.97167e-06
-0.000134631
-1.16521e-05
-0.000127735
-1.38045e-05
-0.000119927
-1.56242e-05
-0.00011095
-1.79503e-05
-0.000100965
-1.99493e-05
-9.0107e-05
-2.17088e-05
-7.80537e-05
-2.40754e-05
-6.49346e-05
-2.62688e-05
-5.08573e-05
-2.81531e-05
-3.55833e-05
-3.05519e-05
-1.94949e-05
-3.21697e-05
-2.451e-06
-3.40862e-05
1.53416e-05
-3.55822e-05
3.35979e-05
-3.65056e-05
5.2401e-05
-3.7596e-05
7.15421e-05
-3.82741e-05
9.05817e-05
-3.80645e-05
0.000109509
-3.78361e-05
0.000128069
-3.71092e-05
0.00014583
-3.55059e-05
0.000162678
-3.36789e-05
0.000178308
-3.12502e-05
0.000192512
-2.83934e-05
0.000205042
-2.50381e-05
0.000215571
-2.10492e-05
0.000223971
-1.67991e-05
0.000230107
-1.22691e-05
0.000233817
-7.41455e-06
0.000235077
-2.51614e-06
0.000233842
2.45852e-06
0.000230152
7.37837e-06
0.000224083
1.21384e-05
0.000215701
1.67525e-05
0.000205269
2.08574e-05
0.000192914
2.46976e-05
0.00017876
2.82968e-05
0.000163192
3.1123e-05
0.000146333
3.37046e-05
0.000128646
3.5363e-05
0.000110186
3.69066e-05
9.11414e-05
3.80785e-05
7.20087e-05
3.82553e-05
5.27714e-05
3.84646e-05
3.81288e-05
-0.000172648
9.8888e-06
-0.000175167
7.54892e-06
-0.000177004
5.50176e-06
-0.00017817
3.48959e-06
-0.000178672
1.51705e-06
-0.000178483
-5.39298e-07
-0.000177547
-2.80479e-06
-0.000175952
-4.78587e-06
-0.000173737
-6.64865e-06
-0.000170731
-9.0407e-06
-0.000166955
-1.13282e-05
-0.000162486
-1.34138e-05
-0.000157096
-1.61662e-05
-0.000150887
-1.86277e-05
-0.000143768
-2.13618e-05
-0.000135793
-2.39318e-05
-0.000127065
-2.61891e-05
-0.000117254
-2.94498e-05
-0.000106478
-3.23248e-05
-9.48157e-05
-3.4993e-05
-8.20823e-05
-3.81859e-05
-6.83162e-05
-4.12788e-05
-5.3713e-05
-4.37922e-05
-3.80917e-05
-4.68508e-05
-2.17021e-05
-4.91502e-05
-4.46896e-06
-5.16766e-05
1.34663e-05
-5.37684e-05
3.17643e-05
-5.48609e-05
5.04671e-05
-5.60629e-05
6.93893e-05
-5.67291e-05
8.81723e-05
-5.63162e-05
0.00010672
-5.56014e-05
0.000124706
-5.39129e-05
0.000141932
-5.16131e-05
0.000158136
-4.85601e-05
0.000173004
-4.45592e-05
0.000186318
-3.9887e-05
0.000197866
-3.46022e-05
0.00020739
-2.85538e-05
0.000214748
-2.20492e-05
0.000219765
-1.50312e-05
0.000222425
-7.95767e-06
0.000222621
-5.94137e-07
0.000220269
7.0241e-06
0.00021552
1.42324e-05
0.000208543
2.09076e-05
0.00019932
2.76284e-05
0.000188097
3.36525e-05
0.000175065
3.90345e-05
0.000160423
4.38908e-05
0.000144489
4.77688e-05
0.000127496
5.0929e-05
0.000109716
5.32738e-05
9.14027e-05
5.48907e-05
7.27959e-05
5.57843e-05
5.41797e-05
5.58185e-05
3.5613e-05
5.56095e-05
1.73532e-05
5.47576e-05
-3.00495e-07
5.29287e-05
-1.73628e-05
5.11514e-05
-3.36618e-05
4.88679e-05
-4.91716e-05
4.65089e-05
-6.37322e-05
4.3674e-05
-7.73556e-05
4.08636e-05
-9.00272e-05
3.80079e-05
-0.000101674
3.49331e-05
-0.000112334
3.19769e-05
-0.000122044
2.91309e-05
-0.000130772
2.61956e-05
-0.000138643
2.36237e-05
-0.000145591
2.08538e-05
-0.000151709
1.8346e-05
-0.000157111
1.62168e-05
-0.000161729
1.38549e-05
-0.000165552
1.14759e-05
-0.000168695
9.42371e-06
-0.000171024
6.99206e-06
-0.000172714
5.09473e-06
-0.000173741
3.03536e-06
-0.00017403
9.0303e-07
-0.000173545
-1.47069e-06
-0.000172303
-3.72213e-06
-0.000170244
-6.17617e-06
-0.000167355
-8.67537e-06
-0.000163684
-1.10012e-05
-0.000159164
-1.35839e-05
-0.000153739
-1.62518e-05
-0.000147426
-1.89588e-05
-0.000140268
-2.14866e-05
-0.000132251
-2.40579e-05
-0.000123417
-2.65015e-05
-0.000113743
-2.90276e-05
-0.00010328
-3.14103e-05
-9.20296e-05
-3.37657e-05
-7.99758e-05
-3.61749e-05
-6.71245e-05
-3.85699e-05
-5.34967e-05
-4.08963e-05
-3.90828e-05
-4.32959e-05
-2.39574e-05
-4.53329e-05
-8.15041e-06
-4.74261e-05
8.26537e-06
-4.92268e-05
2.51818e-05
-5.07298e-05
4.25129e-05
-5.19501e-05
6.00458e-05
-5.2567e-05
7.76538e-05
-5.27875e-05
9.51308e-05
-5.23661e-05
0.000112269
-5.13755e-05
0.000128865
-4.96937e-05
0.000144698
-4.74217e-05
0.000159549
-4.44982e-05
0.000173157
-4.08622e-05
0.000185385
-3.66248e-05
0.000195986
-3.17394e-05
0.000204783
-2.63534e-05
0.0002116
-2.04313e-05
0.000216292
-1.40671e-05
0.000218748
-7.35407e-06
0.000218886
-4.41141e-07
0.000216669
6.61732e-06
0.000212057
1.38106e-05
0.000205141
2.07198e-05
0.000196044
2.72258e-05
0.000184936
3.32546e-05
0.000171969
3.88478e-05
0.000157348
4.38201e-05
0.000141359
4.78742e-05
0.000124265
5.1285e-05
0.000106313
5.38252e-05
8.77277e-05
5.56207e-05
6.88466e-05
5.65217e-05
4.98507e-05
5.69423e-05
3.10256e-05
5.64217e-05
1.25299e-05
5.54676e-05
-5.43982e-06
5.38408e-05
-2.27158e-05
5.18014e-05
-3.91679e-05
4.93316e-05
-5.46991e-05
4.65779e-05
-6.91796e-05
4.34275e-05
-8.26005e-05
4.02671e-05
-9.48951e-05
3.68508e-05
-0.000106068
3.35218e-05
-0.000116113
3.01095e-05
-0.000125052
2.68575e-05
-0.000132918
2.36008e-05
-0.00013978
2.05354e-05
-0.000145678
1.77658e-05
-0.000150645
1.49011e-05
-0.000154737
1.23041e-05
-0.000158014
9.84462e-06
-0.00016053
7.55829e-06
-0.000162311
5.36964e-06
-0.000163411
3.32879e-06
-0.000163898
1.48847e-06
-0.000163761
-3.43429e-07
-0.000163129
-1.97377e-06
-0.000161893
-3.68331e-06
-0.000160121
-5.29322e-06
-0.000157833
-6.86604e-06
-0.000155007
-8.48013e-06
-0.000151621
-1.01443e-05
-0.00014773
-1.16821e-05
-0.000143232
-1.34875e-05
-0.000138172
-1.51762e-05
-0.000132515
-1.70975e-05
-0.000126224
-1.87654e-05
-0.000119268
-2.08651e-05
-0.000111574
-2.30589e-05
-0.00010323
-2.50435e-05
-9.40575e-05
-2.75323e-05
-8.4057e-05
-2.99585e-05
-7.3253e-05
-3.2477e-05
-6.16559e-05
-3.47471e-05
-4.92469e-05
-3.71601e-05
-3.61259e-05
-3.93866e-05
-2.21699e-05
-4.18832e-05
-7.45443e-06
-4.41414e-05
7.90384e-06
-4.60054e-05
2.38724e-05
-4.78712e-05
4.03383e-05
-4.93535e-05
5.71678e-05
-5.04409e-05
7.41811e-05
-5.10016e-05
9.12248e-05
-5.10907e-05
0.000108078
-5.05107e-05
0.000124516
-4.92062e-05
0.000140237
-4.71479e-05
0.000155034
-4.43448e-05
0.000168591
-4.05969e-05
0.000180662
-3.6147e-05
0.000190966
-3.08707e-05
0.000199306
-2.49887e-05
0.000205479
-1.84981e-05
0.000209384
-1.16647e-05
0.000210865
-4.41652e-06
0.00020985
2.92431e-06
0.000206417
1.02817e-05
0.000200556
1.75198e-05
0.000192488
2.40909e-05
0.000182315
3.05244e-05
0.0001702
3.63016e-05
0.000156356
4.15344e-05
0.00014092
4.6263e-05
0.000124165
5.01355e-05
0.000106473
5.30692e-05
8.80832e-05
5.5002e-05
6.94711e-05
5.57907e-05
5.08347e-05
5.57871e-05
3.26226e-05
5.45633e-05
1.49422e-05
5.29673e-05
-1.91688e-06
5.06365e-05
-1.80334e-05
4.82847e-05
-3.31673e-05
4.54029e-05
-4.7386e-05
4.26393e-05
-6.06252e-05
3.97158e-05
-7.28965e-05
3.68251e-05
-8.42213e-05
3.40033e-05
-9.46675e-05
3.13051e-05
-0.000104189
2.85883e-05
-0.000112872
2.60253e-05
-0.000120688
2.34966e-05
-0.0001277
2.10186e-05
-0.000133937
1.86685e-05
-0.00013941
1.64785e-05
-0.000144148
1.4216e-05
-0.000148137
1.20525e-05
-0.000151565
1.01226e-05
-0.000154302
8.27768e-06
-0.000156419
6.39667e-06
-0.000157958
4.63674e-06
-0.000158931
2.93405e-06
-0.000159364
1.30497e-06
-0.000159247
-3.55405e-07
-0.000158583
-2.02673e-06
-0.000157412
-3.44665e-06
-0.000155694
-5.15358e-06
-0.00015343
-6.83623e-06
-0.000150601
-8.52802e-06
-0.000147169
-1.02816e-05
-0.000143182
-1.1877e-05
-0.000138591
-1.37713e-05
-0.000133365
-1.56666e-05
-0.000127469
-1.77466e-05
-0.000120961
-1.94915e-05
-0.000113686
-2.18865e-05
-0.000105663
-2.39712e-05
-9.69548e-05
-2.6101e-05
-8.74636e-05
-2.85232e-05
-7.72063e-05
-3.07347e-05
-6.61605e-05
-3.31278e-05
-5.43179e-05
-3.5517e-05
-4.17007e-05
-3.78303e-05
-2.83379e-05
-4.00822e-05
-1.42546e-05
-4.22781e-05
4.70694e-07
-4.40753e-05
1.5708e-05
-4.56862e-05
3.13903e-05
-4.7016e-05
4.73279e-05
-4.77737e-05
6.33685e-05
-4.80697e-05
7.93407e-05
-4.78799e-05
9.50819e-05
-4.719e-05
0.000110424
-4.59862e-05
0.000125123
-4.40517e-05
0.000138987
-4.15198e-05
0.000151757
-3.82774e-05
0.000163168
-3.4159e-05
0.000173011
-2.94626e-05
0.000180994
-2.38842e-05
0.000187001
-1.7884e-05
0.000190754
-1.13044e-05
0.000192137
-4.18152e-06
0.00019122
2.78056e-06
0.000187856
1.00527e-05
0.000182325
1.65821e-05
0.000174728
2.27086e-05
0.000165196
2.86224e-05
0.000153965
3.3648e-05
0.000141327
3.78654e-05
0.000127532
4.13486e-05
0.000112958
4.36188e-05
9.78716e-05
4.53506e-05
8.24463e-05
4.60657e-05
6.70582e-05
4.61891e-05
5.17179e-05
4.5954e-05
3.64758e-05
4.57694e-05
2.15831e-05
4.46465e-05
6.86648e-06
4.41561e-05
-7.64976e-06
4.35422e-05
-2.18019e-05
4.24481e-05
-3.55013e-05
4.10872e-05
-4.87421e-05
3.97115e-05
-6.13698e-05
3.78778e-05
-7.33641e-05
3.59779e-05
-8.4564e-05
3.35993e-05
-9.49482e-05
3.11547e-05
-0.000104551
2.88105e-05
-0.000113316
2.62984e-05
-0.000121258
2.38353e-05
-0.000128429
2.15217e-05
-0.000134793
1.91086e-05
-0.000140385
1.67812e-05
-0.000145225
1.45281e-05
-0.0001493
1.22365e-05
-0.000152659
1.00905e-05
-0.000155263
7.82064e-06
-0.000157084
5.44594e-06
-0.000158145
3.15239e-06
-0.000158426
8.09127e-07
-0.00015807
-1.0901e-06
-0.000157068
-3.00349e-06
-0.000155347
-5.17884e-06
-0.000152881
-7.41154e-06
-0.000149624
-9.77193e-06
-0.000145513
-1.23573e-05
-0.000140533
-1.49517e-05
-0.000134711
-1.74736e-05
-0.00012782
-2.06954e-05
-0.000120022
-2.34232e-05
-0.000111054
-2.69182e-05
-0.000101058
-2.99452e-05
-9.01933e-05
-3.25734e-05
-7.81011e-05
-3.61676e-05
-6.50235e-05
-3.93464e-05
-5.09452e-05
-4.22314e-05
-3.56736e-05
-4.58236e-05
-1.95797e-05
-4.82636e-05
-2.52815e-06
-5.11378e-05
1.52737e-05
-5.3384e-05
3.35391e-05
-5.47712e-05
5.23556e-05
-5.64125e-05
7.15219e-05
-5.74405e-05
9.05822e-05
-5.71249e-05
0.000109531
-5.67846e-05
0.000128117
-5.5696e-05
0.0001459
-5.32883e-05
0.000162773
-5.05525e-05
0.00017843
-4.6907e-05
0.000192653
-4.26165e-05
0.000205203
-3.75884e-05
0.000215748
-3.15944e-05
0.000224169
-2.52202e-05
0.000230322
-1.84219e-05
0.000234029
-1.11215e-05
0.000235292
-3.77901e-06
0.000234027
3.72333e-06
0.000230331
1.10745e-05
0.000224267
1.82022e-05
0.000215861
2.51589e-05
0.000205418
3.12998e-05
0.000193047
3.70686e-05
0.000178875
4.2469e-05
0.000163288
4.67103e-05
0.000146408
5.05846e-05
0.000128701
5.307e-05
0.000110223
5.53846e-05
9.11587e-05
5.71422e-05
7.20085e-05
5.74056e-05
5.27536e-05
5.77195e-05
5.72133e-05
-0.00017274
1.31951e-05
-0.000175268
1.00766e-05
-0.00017711
7.34398e-06
-0.000178277
4.65652e-06
-0.000178768
2.00744e-06
-0.000178559
-7.47987e-07
-0.000177623
-3.74083e-06
-0.00017603
-6.37919e-06
-0.000173816
-8.86228e-06
-0.000170816
-1.20409e-05
-0.000167048
-1.50962e-05
-0.000162582
-1.78797e-05
-0.000157192
-2.15563e-05
-0.000150981
-2.48389e-05
-0.000143866
-2.84766e-05
-0.000135896
-3.19021e-05
-0.000127171
-3.49137e-05
-0.000117378
-3.92425e-05
-0.000106593
-4.31101e-05
-9.49366e-05
-4.66493e-05
-8.21967e-05
-5.09258e-05
-6.84178e-05
-5.50577e-05
-5.38035e-05
-5.84065e-05
-3.81704e-05
-6.2484e-05
-2.1772e-05
-6.55486e-05
-4.52453e-06
-6.89241e-05
1.34263e-05
-7.17192e-05
3.17453e-05
-7.318e-05
5.04735e-05
-7.47911e-05
6.94208e-05
-7.56764e-05
8.82235e-05
-7.5119e-05
0.000106798
-7.41759e-05
0.000124811
-7.19263e-05
0.000142065
-6.88674e-05
0.000158298
-6.47923e-05
0.000173195
-5.94567e-05
0.000186548
-5.32394e-05
0.000198112
-4.61671e-05
0.00020765
-3.80914e-05
0.000215022
-2.94219e-05
0.000220048
-2.00566e-05
0.000222714
-1.06243e-05
0.000222905
-7.85306e-07
0.000220548
9.38187e-06
0.000215787
1.89931e-05
0.000208792
2.79022e-05
0.000199544
3.68766e-05
0.000188299
4.4898e-05
0.000175243
5.20897e-05
0.00016058
5.85544e-05
0.000144629
6.37193e-05
0.000127607
6.79513e-05
0.000109787
7.10935e-05
9.14438e-05
7.32339e-05
7.28189e-05
7.44092e-05
5.41636e-05
7.44739e-05
3.5563e-05
7.421e-05
1.7292e-05
7.30286e-05
-3.80988e-07
7.06017e-05
-1.74621e-05
6.82326e-05
-3.37758e-05
6.51815e-05
-4.92953e-05
6.20285e-05
-6.38613e-05
5.82399e-05
-7.74899e-05
5.44922e-05
-9.01637e-05
5.06817e-05
-0.000101808
4.65769e-05
-0.000112471
4.264e-05
-0.000122178
3.88385e-05
-0.000130894
3.49115e-05
-0.000138759
3.14886e-05
-0.000145699
2.77935e-05
-0.000151817
2.44639e-05
-0.000157218
2.16179e-05
-0.000161831
1.84676e-05
-0.000165651
1.52962e-05
-0.000168796
1.2569e-05
-0.000171122
9.31804e-06
-0.000172828
6.79998e-06
-0.000173857
4.06456e-06
-0.000174129
1.17467e-06
-0.000173652
-1.94754e-06
-0.000172407
-4.96704e-06
-0.000170351
-8.23257e-06
-0.000167472
-1.15551e-05
-0.000163797
-1.46763e-05
-0.000159291
-1.80895e-05
-0.000153845
-2.16984e-05
-0.00014757
-2.52341e-05
-0.000140425
-2.86322e-05
-0.000132407
-3.20754e-05
-0.000123575
-3.53341e-05
-0.000113898
-3.87049e-05
-0.000103459
-4.18496e-05
-9.22229e-05
-4.50019e-05
-8.0175e-05
-4.82229e-05
-6.73378e-05
-5.14072e-05
-5.37256e-05
-5.45086e-05
-3.93283e-05
-5.76933e-05
-2.41968e-05
-6.04645e-05
-8.38686e-06
-6.32361e-05
8.04285e-06
-6.56565e-05
2.49645e-05