/*--------------------------------*- C++ -*----------------------------------*\
| =========                 |                                                 |
| \\      /  F ield         | OpenFOAM: The Open Source CFD Toolbox           |
|  \\    /   O peration     | Version:  3.0.1                                 |
|   \\  /    A nd           | Web:      www.OpenFOAM.org                      |
|    \\/     M anipulation  |                                                 |
\*---------------------------------------------------------------------------*/
FoamFile
{
    version     2.0;
    format      ascii;
    class       surfaceScalarField;
    location    "57";
    object      phi;
}
// * * * * * * * * * * * * * * * * * * * * * * * * * * * * * * * * * * * * * //

dimensions      [0 3 -1 0 0 0 0];

internalField   nonuniform List<scalar> 
42423
(
8.43915e-05
-1.86022e-05
0.000102973
-1.85816e-05
0.000121116
-1.81428e-05
0.000138477
-1.73613e-05
0.000155038
-1.65614e-05
0.000170397
-1.5359e-05
0.000184394
-1.3997e-05
0.00019669
-1.22963e-05
0.00020706
-1.03695e-05
0.000215375
-8.31493e-06
0.000221398
-6.02323e-06
0.000224971
-3.5732e-06
0.000226082
-1.11146e-06
0.000224649
1.43352e-06
0.000220683
3.96557e-06
0.000214247
6.43664e-06
0.000205354
8.89229e-06
0.000194449
1.0905e-05
0.000181642
1.28076e-05
0.000167003
1.46387e-05
0.000150994
1.60087e-05
0.00013386
1.71344e-05
0.000115765
1.80944e-05
9.70186e-05
1.87464e-05
7.79801e-05
1.90385e-05
5.88986e-05
1.90815e-05
3.97875e-05
1.91111e-05
2.09732e-05
1.88142e-05
2.80437e-06
1.81688e-05
-1.49055e-05
1.77099e-05
-3.1847e-05
1.69415e-05
-4.79305e-05
1.60835e-05
-6.31054e-05
1.51749e-05
-7.73039e-05
1.41984e-05
-9.0544e-05
1.32401e-05
-0.000102769
1.22246e-05
-0.000114002
1.12338e-05
-0.000124261
1.02587e-05
-0.000133554
9.29289e-06
-0.000141911
8.35665e-06
-0.000149386
7.47561e-06
-0.000155985
6.59838e-06
-0.000161742
5.75745e-06
-0.000166688
4.94542e-06
-0.000170867
4.17968e-06
-0.000174267
3.39958e-06
-0.000176918
2.65162e-06
-0.000178854
1.93602e-06
-0.000180064
1.20975e-06
-0.000180565
5.01047e-07
-0.000180278
-2.86984e-07
-0.000179217
-1.06163e-06
-0.000177327
-1.88952e-06
-0.000174761
-2.56649e-06
-0.000171357
-3.40367e-06
-0.000167119
-4.23815e-06
-0.000162042
-5.07712e-06
-0.000156179
-5.8631e-06
-0.000149301
-6.8773e-06
-0.000141706
-7.59531e-06
-0.000132929
-8.77679e-06
-0.000123252
-9.67701e-06
-0.000112693
-1.05592e-05
-0.000101169
-1.15239e-05
-8.86338e-05
-1.25353e-05
-7.53387e-05
-1.32952e-05
-6.10351e-05
-1.43036e-05
-4.59879e-05
-1.50473e-05
-3.00323e-05
-1.59556e-05
-1.3402e-05
-1.66304e-05
3.71789e-06
-1.71199e-05
2.13322e-05
-1.76143e-05
3.92914e-05
-1.79592e-05
5.74498e-05
-1.81584e-05
7.55756e-05
-1.81258e-05
9.35766e-05
-1.8001e-05
0.000111325
-1.77487e-05
0.000128496
-1.7171e-05
0.000144895
-1.63988e-05
0.000160507
-1.56118e-05
0.000174905
-1.4398e-05
0.00018791
-1.30051e-05
0.00019934
-1.14297e-05
0.000209052
-9.71292e-06
0.000216813
-7.76049e-06
0.000222535
-5.72187e-06
0.000225983
-3.44847e-06
0.000227172
-1.18925e-06
0.000225947
1.2253e-06
0.000222282
3.66529e-06
0.000216201
6.08068e-06
0.000207801
8.3999e-06
0.000197268
1.05331e-05
0.00018471
1.25583e-05
0.000170379
1.43309e-05
0.000154497
1.58816e-05
0.000137345
1.71522e-05
0.000119131
1.82145e-05
0.000100197
1.89339e-05
8.07967e-05
1.94e-05
6.11753e-05
1.96214e-05
4.16009e-05
1.95743e-05
2.2232e-05
1.93689e-05
3.3774e-06
1.88546e-05
-1.4811e-05
1.81884e-05
-3.21656e-05
1.73546e-05
-4.8539e-05
1.63734e-05
-6.3903e-05
1.53641e-05
-7.81451e-05
1.42421e-05
-9.12696e-05
1.31245e-05
-0.000103203
1.19337e-05
-0.000113988
1.07843e-05
-0.000123625
9.6377e-06
-0.000132274
8.64856e-06
-0.000139827
7.55342e-06
-0.00014642
6.59282e-06
-0.000152035
5.61512e-06
-0.000156749
4.7135e-06
-0.000160628
3.87917e-06
-0.000163691
3.06327e-06
-0.000165932
2.24077e-06
-0.000167404
1.47212e-06
-0.000168155
7.51016e-07
-0.000168301
1.46194e-07
-0.00016771
-5.90902e-07
-0.000166469
-1.24137e-06
-0.000164599
-1.86972e-06
-0.000162105
-2.49398e-06
-0.000159005
-3.09984e-06
-0.000155285
-3.72036e-06
-0.000150977
-4.30777e-06
-0.000146039
-4.93787e-06
-0.000140529
-5.51068e-06
-0.000134364
-6.16504e-06
-0.00012751
-6.85396e-06
-0.000120072
-7.43758e-06
-0.000111863
-8.2088e-06
-0.000102842
-9.02174e-06
-9.31363e-05
-9.70546e-06
-8.25356e-05
-1.06006e-05
-7.10198e-05
-1.15158e-05
-5.87805e-05
-1.22394e-05
-4.56339e-05
-1.31466e-05
-3.16607e-05
-1.39732e-05
-1.68398e-05
-1.48209e-05
-1.3881e-06
-1.54518e-05
1.48083e-05
-1.61965e-05
3.15402e-05
-1.67319e-05
4.87055e-05
-1.71653e-05
6.61572e-05
-1.74517e-05
8.37073e-05
-1.75502e-05
0.000101161
-1.74535e-05
0.000118314
-1.71533e-05
0.000134843
-1.65286e-05
0.000150535
-1.56926e-05
0.000165091
-1.45562e-05
0.000178311
-1.32198e-05
0.000189896
-1.1585e-05
0.000199642
-9.74556e-06
0.000207297
-7.65537e-06
0.000212698
-5.40051e-06
0.000215686
-2.9887e-06
0.000216211
-5.24436e-07
0.000214257
1.95334e-06
0.000209767
4.49036e-06
0.000202829
6.93767e-06
0.000193643
9.1858e-06
0.000182338
1.13055e-05
0.00016916
1.31777e-05
0.000154356
1.48039e-05
0.00013811
1.62466e-05
0.000120834
1.72753e-05
0.000102768
1.80664e-05
8.4212e-05
1.85559e-05
6.5435e-05
1.8777e-05
4.66782e-05
1.87569e-05
2.81896e-05
1.84886e-05
1.01614e-05
1.80282e-05
-7.22508e-06
1.73864e-05
-2.38902e-05
1.66651e-05
-3.96685e-05
1.57783e-05
-5.45696e-05
1.49011e-05
-6.85175e-05
1.39479e-05
-8.14773e-05
1.29598e-05
-9.34511e-05
1.19738e-05
-0.000104375
1.09235e-05
-0.000114289
9.91422e-06
-0.000123189
8.9003e-06
-0.000131193
8.00433e-06
-0.000138205
7.01164e-06
-0.000144362
6.15732e-06
-0.000149719
5.35706e-06
-0.000154239
4.5196e-06
-0.000157998
3.75869e-06
-0.000161072
3.07465e-06
-0.000163621
2.54894e-06
-0.00016553
1.90877e-06
-0.000166904
1.37361e-06
-0.000167721
8.17149e-07
-0.000168021
3.00138e-07
-0.000167717
-3.04069e-07
-0.000166885
-8.31582e-07
-0.00016544
-1.44498e-06
-0.00016345
-1.99083e-06
-0.000160788
-2.66196e-06
-0.000157548
-3.23923e-06
-0.000153579
-3.96927e-06
-0.000148954
-4.6247e-06
-0.000143618
-5.3364e-06
-0.000137561
-6.05725e-06
-0.000130754
-6.80646e-06
-0.000123189
-7.56505e-06
-0.000114885
-8.30464e-06
-0.000105755
-9.13014e-06
-9.57974e-05
-9.95713e-06
-8.51642e-05
-1.06332e-05
-7.37076e-05
-1.14566e-05
-6.14466e-05
-1.2261e-05
-4.84889e-05
-1.29577e-05
-3.47754e-05
-1.37135e-05
-2.03677e-05
-1.44078e-05
-5.29894e-06
-1.50687e-05
1.03425e-05
-1.56415e-05
2.64756e-05
-1.61331e-05
4.29831e-05
-1.65075e-05
5.97297e-05
-1.67466e-05
7.65058e-05
-1.67762e-05
9.31243e-05
-1.66184e-05
0.000109382
-1.62582e-05
0.000125022
-1.56394e-05
0.000139773
-1.47509e-05
0.000153412
-1.36389e-05
0.000165677
-1.22652e-05
0.000176267
-1.05902e-05
0.000185029
-8.76179e-06
0.000191714
-6.68534e-06
0.000196182
-4.46799e-06
0.000198288
-2.10562e-06
0.000197959
3.28399e-07
0.000195153
2.80618e-06
0.000189803
5.34999e-06
0.000182099
7.7044e-06
0.000172192
9.90685e-06
0.000160158
1.20335e-05
0.000146334
1.38246e-05
0.000130987
1.5347e-05
0.000114397
1.65899e-05
9.69196e-05
1.7477e-05
7.88465e-05
1.80731e-05
6.04594e-05
1.83872e-05
4.1988e-05
1.84714e-05
2.36782e-05
1.83098e-05
5.6754e-06
1.80028e-05
-1.18342e-05
1.75096e-05
-2.87294e-05
1.68952e-05
-4.49502e-05
1.62208e-05
-6.03052e-05
1.5355e-05
-7.47413e-05
1.44361e-05
-8.82112e-05
1.34699e-05
-0.000100682
1.24708e-05
-0.000112141
1.14587e-05
-0.000122596
1.04551e-05
-0.000132068
9.47182e-06
-0.000140583
8.51555e-06
-0.000148188
7.60477e-06
-0.000154884
6.69631e-06
-0.000160747
5.8626e-06
-0.00016581
5.06273e-06
-0.000170112
4.3028e-06
-0.000173707
3.59482e-06
-0.000176608
2.90105e-06
-0.000178811
2.20233e-06
-0.000180334
1.52306e-06
-0.000181231
8.97441e-07
-0.000181439
2.07371e-07
-0.000181023
-4.15696e-07
-0.0001799
-1.12308e-06
-0.000178187
-1.7124e-06
-0.0001756
-2.58712e-06
-0.000172415
-3.18537e-06
-0.000168317
-4.09756e-06
-0.000163398
-4.91885e-06
-0.00015767
-5.72816e-06
-0.000151279
-6.39146e-06
-0.000144126
-7.15237e-06
-0.000136331
-7.79533e-06
-0.000128074
-8.2573e-06
-0.000119147
-8.92706e-06
-0.000109791
-9.35593e-06
-9.97847e-05
-1.00062e-05
-8.90733e-05
-1.07114e-05
-7.79051e-05
-1.11683e-05
-6.59489e-05
-1.19562e-05
-5.31055e-05
-1.28435e-05
-3.96178e-05
-1.34877e-05
-2.51087e-05
-1.4509e-05
-9.70049e-06
-1.54083e-05
6.37139e-06
-1.60719e-05
2.3258e-05
-1.68866e-05
4.06845e-05
-1.74265e-05
5.86041e-05
-1.79197e-05
7.68359e-05
-1.82317e-05
9.49276e-05
-1.80917e-05
0.000112741
-1.78131e-05
0.000130059
-1.7318e-05
0.000146413
-1.63544e-05
0.000161678
-1.52646e-05
0.000175451
-1.37737e-05
0.000187526
-1.20745e-05
0.000197685
-1.01589e-05
0.000205644
-7.95974e-06
0.000211369
-5.72422e-06
0.00021469
-3.32108e-06
0.000215553
-8.63439e-07
0.0002138
1.75298e-06
0.000209534
4.26553e-06
0.000202956
6.57825e-06
0.00019436
8.59631e-06
0.000183731
1.06289e-05
0.00017147
1.22609e-05
0.000157909
1.35614e-05
0.000143082
1.48263e-05
0.000127422
1.56601e-05
0.000111237
1.61854e-05
9.46102e-05
1.66266e-05
7.78404e-05
1.67698e-05
6.11804e-05
1.666e-05
4.47287e-05
1.64517e-05
2.85534e-05
1.61754e-05
1.27924e-05
1.57609e-05
-2.31823e-06
1.51106e-05
-1.6914e-05
1.45958e-05
-3.08877e-05
1.39737e-05
-4.42004e-05
1.33127e-05
-5.68474e-05
1.2647e-05
-6.88065e-05
1.19591e-05
-8.01022e-05
1.12957e-05
-9.06999e-05
1.05977e-05
-0.000100597
9.89756e-06
-0.000109821
9.22384e-06
-0.000118356
8.53481e-06
-0.00012618
7.824e-06
-0.000133301
7.12095e-06
-0.000139694
6.39285e-06
-0.000145361
5.66657e-06
-0.000150279
4.91807e-06
-0.000154437
4.15802e-06
-0.000157822
3.38587e-06
-0.000160422
2.59964e-06
-0.000162215
1.79256e-06
-0.00016321
9.95673e-07
-0.0001634
1.90092e-07
-0.000162655
-7.4586e-07
-0.000161037
-1.61714e-06
-0.000158541
-2.4965e-06
-0.000155189
-3.35182e-06
-4.2199e-06
8.44006e-05
-3.72134e-05
0.000102995
-3.71765e-05
0.000121149
-3.62969e-05
0.000138523
-3.47346e-05
0.000155103
-3.31418e-05
0.000170474
-3.07301e-05
0.000184483
-2.8006e-05
0.000196804
-2.46176e-05
0.000207201
-2.07666e-05
0.000215512
-1.66256e-05
0.000221525
-1.20369e-05
0.000225105
-7.15278e-06
0.00022622
-2.22647e-06
0.000224774
2.87921e-06
0.000220802
7.93728e-06
0.000214361
1.28776e-05
0.000205463
1.77897e-05
0.000194548
2.18202e-05
0.00018173
2.56258e-05
0.000167082
2.92862e-05
0.000151059
3.20315e-05
0.000133911
3.42833e-05
0.000115806
3.61987e-05
9.70463e-05
3.75062e-05
7.79926e-05
3.80921e-05
5.89047e-05
3.81693e-05
3.97833e-05
3.82325e-05
2.0959e-05
3.76385e-05
2.7816e-06
3.63462e-05
-1.49326e-05
3.5424e-05
-3.18794e-05
3.38883e-05
-4.7968e-05
3.21721e-05
-6.31476e-05
3.03545e-05
-7.73487e-05
2.83995e-05
-9.0592e-05
2.64834e-05
-0.000102819
2.44518e-05
-0.000114051
2.24655e-05
-0.00012431
2.05173e-05
-0.000133606
1.85894e-05
-0.000141968
1.67182e-05
-0.000149438
1.49464e-05
-0.000156037
1.31969e-05
-0.000161794
1.15149e-05
-0.000166741
9.89185e-06
-0.000170926
8.36476e-06
-0.000174335
6.80865e-06
-0.000176979
5.2953e-06
-0.000178911
3.86847e-06
-0.000180121
2.4201e-06
-0.000180622
1.002e-06
-0.00018034
-5.68989e-07
-0.000179278
-2.12356e-06
-0.000177393
-3.77482e-06
-0.000174819
-5.14074e-06
-0.000171424
-6.79871e-06
-0.000167189
-8.47349e-06
-0.000162109
-1.01566e-05
-0.000156249
-1.17234e-05
-0.000149375
-1.37511e-05
-0.000141769
-1.52015e-05
-0.000132999
-1.75467e-05
-0.000123318
-1.9358e-05
-0.000112761
-2.1116e-05
-0.000101238
-2.30471e-05
-8.86993e-05
-2.5074e-05
-7.54028e-05
-2.65917e-05
-6.10915e-05
-2.86148e-05
-4.60399e-05
-3.0099e-05
-3.00774e-05
-3.19181e-05
-1.34419e-05
-3.32659e-05
3.68019e-06
-3.4242e-05
2.13023e-05
-3.52365e-05
3.92737e-05
-3.59307e-05
5.74427e-05
-3.63274e-05
7.55716e-05
-3.62548e-05
9.35837e-05
-3.60131e-05
0.000111348
-3.55127e-05
0.000128529
-3.43525e-05
0.000144942
-3.28114e-05
0.00016057
-3.12401e-05
0.00017497
-2.87978e-05
0.000187984
-2.60201e-05
0.000199436
-2.28808e-05
0.000209162
-1.94397e-05
0.000216931
-1.55288e-05
0.000222664
-1.14551e-05
0.000226119
-6.90398e-06
0.000227319
-2.38896e-06
0.00022608
2.46413e-06
0.000222414
7.33111e-06
0.00021633
1.2165e-05
0.000207922
1.68083e-05
0.000197376
2.10783e-05
0.000184806
2.51284e-05
0.000170458
2.86795e-05
0.000154552
3.17873e-05
0.000137369
3.43348e-05
0.000119147
3.64364e-05
0.000100203
3.78781e-05
8.07892e-05
3.88139e-05
6.115e-05
3.92607e-05
4.15475e-05
3.91768e-05
2.2188e-05
3.87284e-05
3.32139e-06
3.77213e-05
-1.48777e-05
3.63875e-05
-3.22456e-05
3.47224e-05
-4.86278e-05
3.27556e-05
-6.39917e-05
3.0728e-05
-7.82365e-05
2.84869e-05
-9.13582e-05
2.62462e-05
-0.000103296
2.38719e-05
-0.000114087
2.15752e-05
-0.000123734
1.92844e-05
-0.00013237
1.72842e-05
-0.000139929
1.51127e-05
-0.000146522
1.31863e-05
-0.000152143
1.12359e-05
-0.00015686
9.43018e-06
-0.000160733
7.75226e-06
-0.000163807
6.13777e-06
-0.000166049
4.48217e-06
-0.000167525
2.9486e-06
-0.000168268
1.4935e-06
-0.000168415
2.93624e-07
-0.000167827
-1.1789e-06
-0.000166588
-2.48053e-06
-0.000164729
-3.72835e-06
-0.000162238
-4.98514e-06
-0.000159132
-6.20563e-06
-0.000155426
-7.42734e-06
-0.000151118
-8.61483e-06
-0.00014619
-9.86643e-06
-0.000140678
-1.10226e-05
-0.000134515
-1.23282e-05
-0.000127698
-1.36709e-05
-0.000120232
-1.49041e-05
-0.000112029
-1.64112e-05
-0.000103007
-1.80439e-05
-9.33021e-05
-1.94104e-05
-8.2707e-05
-2.11958e-05
-7.11896e-05
-2.30332e-05
-5.89513e-05
-2.44777e-05
-4.57981e-05
-2.62999e-05
-3.18177e-05
-2.79536e-05
-1.70265e-05
-2.96121e-05
-1.5283e-06
-3.095e-05
1.4663e-05
-3.23878e-05
3.14117e-05
-3.34806e-05
4.85939e-05
-3.43476e-05
6.60503e-05
-3.49082e-05
8.36136e-05
-3.51136e-05
0.000101086
-3.49257e-05
0.000118232
-3.42998e-05
0.000134789
-3.30856e-05
0.000150519
-3.1423e-05
0.000165094
-2.91309e-05
0.000178323
-2.64488e-05
0.000189927
-2.31886e-05
0.000199693
-1.9512e-05
0.000207354
-1.53165e-05
0.000212767
-1.08139e-05
0.000215766
-5.98701e-06
0.000216289
-1.04789e-06
0.000214322
3.92037e-06
0.000209838
8.97448e-06
0.000202895
1.38801e-05
0.0001937
1.83806e-05
0.000182394
2.26115e-05
0.00016921
2.6362e-05
0.000154396
2.96184e-05
0.000138124
3.25183e-05
0.000120838
3.45608e-05
0.000102765
3.61393e-05
8.41959e-05
3.71253e-05
6.5402e-05
3.75709e-05
4.66353e-05
3.75236e-05
2.81348e-05
3.69891e-05
1.00972e-05
3.60658e-05
-7.27336e-06
3.4757e-05
-2.3956e-05
3.33477e-05
-3.97474e-05
3.15697e-05
-5.46548e-05
2.98085e-05
-6.86008e-05
2.78939e-05
-8.15672e-05
2.59261e-05
-9.35436e-05
2.39503e-05
-0.000104463
2.1843e-05
-0.000114386
1.98374e-05
-0.000123299
1.78129e-05
-0.000131298
1.60036e-05
-0.000138318
1.40313e-05
-0.000144466
1.23054e-05
-0.000149827
1.0718e-05
-0.000154351
9.04369e-06
-0.000158112
7.52044e-06
-0.000161183
6.14476e-06
-0.000163733
5.09908e-06
-0.000165649
3.82468e-06
-0.000167026
2.75071e-06
-0.000167842
1.63338e-06
-0.000168147
6.05604e-07
-0.000167842
-6.09216e-07
-0.000167013
-1.6604e-06
-0.000165579
-2.87988e-06
-0.000163594
-3.97583e-06
-0.000160939
-5.31676e-06
-0.00015769
-6.48765e-06
-0.00015374
-7.91998e-06
-0.000149061
-9.30367e-06
-0.000143778
-1.06189e-05
-0.000137727
-1.21085e-05
-0.000130909
-1.36249e-05
-0.000123363
-1.51102e-05
-0.000115049
-1.66194e-05
-0.000105919
-1.82595e-05
-9.59601e-05
-1.99163e-05
-8.53273e-05
-2.12659e-05
-7.38673e-05
-2.29167e-05
-6.15799e-05
-2.45485e-05
-4.86469e-05
-2.58908e-05
-3.49288e-05
-2.74316e-05
-2.04965e-05
-2.884e-05
-5.44193e-06
-3.01234e-05
1.02069e-05
-3.12903e-05
2.63526e-05
-3.22789e-05
4.28752e-05
-3.30301e-05
5.96519e-05
-3.35233e-05
7.64261e-05
-3.35504e-05
9.30597e-05
-3.3252e-05
0.000109336
-3.25341e-05
0.000124988
-3.1292e-05
0.000139769
-2.95321e-05
0.000153415
-2.72847e-05
0.000165697
-2.4547e-05
0.000176303
-2.11963e-05
0.000185074
-1.75327e-05
0.000191779
-1.33908e-05
0.000196258
-8.9463e-06
0.000198363
-4.21131e-06
0.000198033
6.58781e-07
0.000195226
5.61285e-06
0.000189875
1.0701e-05
0.000182166
1.54131e-05
0.000172233
1.98397e-05
0.000160206
2.40609e-05
0.000146371
2.76601e-05
0.000131008
3.07092e-05
0.000114412
3.31866e-05
9.69165e-05
3.49722e-05
7.88258e-05
3.61638e-05
6.04235e-05
3.67895e-05
4.19545e-05
3.69403e-05
2.36209e-05
3.66434e-05
5.617e-06
3.60067e-05
-1.19122e-05
3.50389e-05
-2.88138e-05
3.37967e-05
-4.5044e-05
3.2451e-05
-6.04047e-05
3.07157e-05
-7.48506e-05
2.8882e-05
-8.8329e-05
2.69484e-05
-0.000100796
2.49382e-05
-0.000112248
2.29105e-05
-0.000122712
2.0919e-05
-0.000132184
1.8944e-05
-0.000140693
1.70245e-05
-0.00014829
1.52019e-05
-0.000154978
1.33843e-05
-0.000160836
1.17204e-05
-0.000165897
1.01234e-05
-0.000170196
8.60187e-06
-0.000173783
7.18217e-06
-0.000176678
5.79626e-06
-0.000178877
4.40133e-06
-0.0001804
3.04561e-06
-0.000181296
1.79391e-06
-0.000181502
4.12995e-07
-0.000181089
-8.29053e-07
-0.000179957
-2.2543e-06
-0.000178249
-3.42089e-06
-0.00017566
-5.17587e-06
-0.00017248
-6.36535e-06
-0.000168384
-8.19355e-06
-0.00016345
-9.85356e-06
-0.000157734
-1.14435e-05
-0.000151338
-1.27875e-05
-0.000144177
-1.43138e-05
-0.000136383
-1.55896e-05
-0.000128124
-1.65154e-05
-0.000119195
-1.78567e-05
-0.000109836
-1.87148e-05
-9.984e-05
-2.00022e-05
-8.91245e-05
-2.14269e-05
-7.79581e-05
-2.23346e-05
-6.60052e-05
-2.39092e-05
-5.31604e-05
-2.56882e-05
-3.96506e-05
-2.69975e-05
-2.51513e-05
-2.90084e-05
-9.74178e-06
-3.08179e-05
6.33072e-06
-3.21444e-05
2.32254e-05
-3.37813e-05
4.06592e-05
-3.48604e-05
5.859e-05
-3.58505e-05
7.68364e-05
-3.64782e-05
9.49414e-05
-3.61968e-05
0.000112772
-3.5644e-05
0.000130108
-3.46541e-05
0.000146472
-3.27175e-05
0.000161749
-3.05418e-05
0.000175538
-2.75626e-05
0.000187633
-2.41701e-05
0.000197803
-2.03283e-05
0.000205763
-1.59198e-05
0.000211489
-1.14511e-05
0.000214816
-6.64806e-06
0.000215681
-1.72863e-06
0.000213919
3.51534e-06
0.00020965
8.53406e-06
0.000203065
1.31641e-05
0.000194457
1.72041e-05
0.00018382
2.12655e-05
0.000171545
2.45357e-05
0.000157974
2.71325e-05
0.000143135
2.96655e-05
0.000127461
3.13346e-05
0.000111267
3.23791e-05
9.46288e-05
3.32645e-05
7.78479e-05
3.35507e-05
6.11783e-05
3.33296e-05
4.47235e-05
3.29064e-05
2.85425e-05
3.23564e-05
1.27785e-05
3.15249e-05
-2.33754e-06
3.02267e-05
-1.69368e-05
2.9195e-05
-3.09124e-05
2.79492e-05
-4.42274e-05
2.66277e-05
-5.68778e-05
2.52973e-05
-6.88378e-05
2.39192e-05
-8.01364e-05
2.25943e-05
-9.07351e-05
2.11963e-05
-0.000100636
1.97982e-05
-0.000109861
1.84493e-05
-0.000118396
1.70701e-05
-0.00012622
1.56478e-05
-0.000133343
1.42437e-05
-0.000139737
1.27871e-05
-0.0001454
1.13294e-05
-0.000150322
9.83983e-06
-0.000154477
8.31366e-06
-0.000157861
6.76948e-06
-0.000160459
5.19807e-06
-0.000162252
3.58536e-06
-0.000163249
1.99233e-06
-0.000163438
3.79392e-07
-0.000162692
-1.49228e-06
-0.000161074
-3.23509e-06
-0.000158576
-4.9939e-06
-0.000155224
-6.70468e-06
-8.44113e-06
8.4419e-05
-5.58421e-05
0.000103035
-5.57929e-05
0.000121216
-5.44781e-05
0.00013862
-5.2138e-05
0.000155226
-4.97483e-05
0.000170624
-4.61279e-05
0.00018467
-4.20528e-05
0.000197019
-3.69666e-05
0.000207426
-3.11731e-05
0.000215756
-2.49563e-05
0.0002218
-1.80808e-05
0.000225389
-1.07416e-05
0.000226481
-3.31897e-06
0.00022498
4.38066e-06
0.000220989
1.19285e-05
0.000214537
1.93286e-05
0.000205631
2.66964e-05
0.000194697
3.27534e-05
0.000181859
3.84638e-05
0.000167198
4.39471e-05
0.000151154
4.80762e-05
0.000133979
5.1458e-05
0.00011586
5.43174e-05
9.70814e-05
5.6285e-05
7.79987e-05
5.71748e-05
5.89009e-05
5.72671e-05
3.97628e-05
5.73706e-05
2.09246e-05
5.64767e-05
2.72775e-06
5.45429e-05
-1.49958e-05
5.31475e-05
-3.19511e-05
5.08436e-05
-4.80464e-05
4.82674e-05
-6.32327e-05
4.55407e-05
-7.74364e-05
4.26032e-05
-9.06814e-05
3.97284e-05
-0.000102909
3.66799e-05
-0.000114143
3.36987e-05
-0.000124402
3.07764e-05
-0.000133695
2.78823e-05
-0.000142053
2.50771e-05
-0.000149525
2.24181e-05
-0.000156123
1.97945e-05
-0.000161879
1.72715e-05
-0.000166828
1.48402e-05
-0.000171011
1.25477e-05
-0.000174422
1.022e-05
-0.000177064
7.93751e-06
-0.000179
5.80391e-06
-0.000180205
3.62499e-06
-0.000180689
1.48634e-06
-0.000180405
-8.53375e-07
-0.00017934
-3.18812e-06
-0.000177456
-5.65833e-06
-0.000174876
-7.72144e-06
-0.000171488
-1.01865e-05
-0.000167256
-1.27054e-05
-0.000162176
-1.52372e-05
-0.000156321
-1.7578e-05
-0.000149448
-2.06244e-05
-0.000141819
-2.28304e-05
-0.000133078
-2.6288e-05
-0.000123396
-2.90397e-05
-0.000112839
-3.16728e-05
-0.000101318
-3.45681e-05
-8.87771e-05
-3.76152e-05
-7.54758e-05
-3.98931e-05
-6.11598e-05
-4.29308e-05
-4.61015e-05
-4.51574e-05
-3.01326e-05
-4.78871e-05
-1.34834e-05
-4.99151e-05
3.63699e-06
-5.13624e-05
2.12612e-05
-5.28607e-05
3.92571e-05
-5.39267e-05
5.74216e-05
-5.44919e-05
7.55658e-05
-5.43991e-05
9.35987e-05
-5.40461e-05
0.000111368
-5.32825e-05
0.000128561
-5.15448e-05
0.000144997
-4.9248e-05
0.000160653
-4.68958e-05
0.000175064
-4.3209e-05
0.000188093
-3.90494e-05
0.000199558
-3.4346e-05
0.000209306
-2.91876e-05
0.000217087
-2.33098e-05
0.00022283
-1.7198e-05
0.000226294
-1.03677e-05
0.000227496
-3.59099e-06
0.000226234
3.7254e-06
0.000222561
1.10045e-05
0.000216473
1.82527e-05
0.000208046
2.52353e-05
0.000197475
3.16498e-05
0.000184881
3.77224e-05
0.0001705
4.30598e-05
0.000154567
4.77209e-05
0.000137353
5.15487e-05
0.000119112
5.46776e-05
0.000100136
5.68537e-05
8.06959e-05
5.82542e-05
6.10385e-05
5.8918e-05
4.13878e-05
5.88275e-05
2.20248e-05
5.80914e-05
3.14059e-06
5.66055e-05
-1.50684e-05
5.45965e-05
-3.24578e-05
5.21118e-05
-4.88735e-05
4.91713e-05
-6.42079e-05
4.60624e-05
-7.84539e-05
4.27329e-05
-9.15817e-05
3.9374e-05
-0.000103524
3.58146e-05
-0.000114315
3.23656e-05
-0.000123989
2.89586e-05
-0.000132598
2.5893e-05
-0.000140151
2.26661e-05
-0.000146734
1.97691e-05
-0.000152359
1.68613e-05
-0.00015708
1.41504e-05
-0.000160904
1.15767e-05
-0.000164013
9.24668e-06
-0.000166254
6.72359e-06
-0.000167733
4.42749e-06
-0.0001685
2.26014e-06
-0.000168602
3.95887e-07
-0.000168009
-1.77232e-06
-0.000166778
-3.7118e-06
-0.000164912
-5.59432e-06
-0.000162432
-7.46522e-06
-0.000159321
-9.31598e-06
-0.000155614
-1.11347e-05
-0.00015131
-1.29185e-05
-0.000146393
-1.47841e-05
-0.000140874
-1.6541e-05
-0.000134708
-1.8494e-05
-0.000127909
-2.04702e-05
-0.000120425
-2.23879e-05
-0.000112231
-2.46058e-05
-0.000103246
-2.70291e-05
-9.35202e-05
-2.91357e-05
-8.29283e-05
-3.17877e-05
-7.14423e-05
-3.45192e-05
-5.9174e-05
-3.67461e-05
-4.6003e-05
-3.94709e-05
-3.20173e-05
-4.19394e-05
-1.72347e-05
-4.43947e-05
-1.70572e-06
-4.6479e-05
1.44849e-05
-4.85785e-05
3.12497e-05
-5.02454e-05
4.84718e-05
-5.15697e-05
6.59152e-05
-5.23516e-05
8.35015e-05
-5.26999e-05
0.000100989
-5.2413e-05
0.000118142
-5.14528e-05
0.000134728
-4.9672e-05
0.00015049
-4.71846e-05
0.000165086
-4.37269e-05
0.000178351
-3.9714e-05
0.000189977
-3.48144e-05
0.000199748
-2.92836e-05
0.000207426
-2.29946e-05
0.000212874
-1.62614e-05
0.000215875
-8.9882e-06
0.000216384
-1.55708e-06
0.000214393
5.91116e-06
0.000209879
1.34883e-05
0.000202941
2.08183e-05
0.000193743
2.75784e-05
0.00018245
3.3905e-05
0.00016921
3.9602e-05
0.000154333
4.44954e-05
0.00013808
4.87707e-05
0.000120773
5.1868e-05
0.000102668
5.42449e-05
8.40833e-05
5.57097e-05
6.52712e-05
5.6383e-05
4.6479e-05
5.63158e-05
2.79522e-05
5.55159e-05
9.91093e-06
5.4107e-05
-7.46587e-06
5.21338e-05
-2.41458e-05
5.00276e-05
-3.99542e-05
4.73781e-05
-5.48646e-05
4.47189e-05
-6.88203e-05
4.18496e-05
-8.17929e-05
3.88988e-05
-9.37725e-05
3.59298e-05
-0.000104682
3.27522e-05
-0.000114612
2.9768e-05
-0.000123532
2.6733e-05
-0.000131511
2.39825e-05
-0.000138534
2.10542e-05
-0.00014466
1.84313e-05
-0.000150022
1.60799e-05
-0.00015455
1.35716e-05
-0.000158306
1.12763e-05
-0.000161412
9.25117e-06
-0.000163916
7.60274e-06
-0.000165842
5.75102e-06
-0.000167222
4.13034e-06
-0.000168031
2.44225e-06
-0.000168335
9.09899e-07
-0.000168038
-9.06833e-07
-0.000167194
-2.50351e-06
-0.000165765
-4.30911e-06
-0.000163775
-5.96597e-06
-0.000161128
-7.96404e-06
-0.000157845
-9.77039e-06
-0.000153941
-1.18241e-05
-0.000149273
-1.39714e-05
-0.000143992
-1.59002e-05
-0.000137937
-1.81635e-05
-0.000131077
-2.04854e-05
-0.000123573
-2.26137e-05
-0.000115255
-2.49372e-05
-0.000106113
-2.74024e-05
-9.61951e-05
-2.98338e-05
-8.55341e-05
-3.19269e-05
-7.40742e-05
-3.43766e-05
-6.17814e-05
-3.68413e-05
-4.88334e-05
-3.88388e-05
-3.5109e-05
-4.11559e-05
-2.06303e-05
-4.33188e-05
-5.62245e-06
-4.51313e-05
1.00362e-05
-4.6949e-05
2.61895e-05
-4.84322e-05
4.273e-05
-4.95706e-05
5.95344e-05
-5.03277e-05
7.63182e-05
-5.03343e-05
9.29676e-05
-4.99014e-05
0.000109284
-4.88503e-05
0.000124948
-4.6956e-05
0.00013976
-4.43446e-05
0.000153421
-4.0946e-05
0.000165708
-3.68334e-05
0.000176342
-3.18301e-05
0.000185133
-2.63244e-05
0.000191852
-2.01097e-05
0.000196338
-1.34318e-05
0.000198461
-6.33434e-06
0.000198114
1.0055e-06
0.000195255
8.47148e-06
0.000189927
1.60289e-05
0.000182215
2.31256e-05
0.000172252
2.9803e-05
0.000160223
3.60892e-05
0.00014637
4.15134e-05
0.000130985
4.60942e-05
0.000114361
4.98106e-05
9.68333e-05
5.24997e-05
7.87172e-05
5.42798e-05
6.02889e-05
5.52178e-05
4.18426e-05
5.53866e-05
2.34497e-05
5.50363e-05
5.42804e-06
5.40283e-05
-1.21083e-05
5.25752e-05
-2.90088e-05
5.06971e-05
-4.52537e-05
4.8696e-05
-6.06265e-05
4.60885e-05
-7.50715e-05
4.33269e-05
-8.85492e-05
4.04261e-05
-0.000101012
3.74007e-05
-0.000112463
3.43615e-05
-0.000122908
3.13646e-05
-0.000132364
2.84001e-05
-0.000140861
2.55212e-05
-0.000148451
2.27917e-05
-0.000155128
2.00611e-05
-0.000160974
1.75662e-05
-0.000166027
1.51771e-05
-0.000170317
1.28911e-05
-0.000173892
1.0758e-05
-0.000176779
8.68277e-06
-0.00017897
6.59272e-06
-0.000180487
4.56206e-06
-0.000181376
2.68336e-06
-0.000181571
6.08044e-07
-0.000181162
-1.23787e-06
-0.000180023
-3.39398e-06
-0.000178312
-5.13121e-06
-0.000175724
-7.76452e-06
-0.000172544
-9.54542e-06
-0.000168456
-1.22816e-05
-0.000163491
-1.48181e-05
-0.0001578
-1.71347e-05
-0.000151397
-1.91901e-05
-0.000144213
-2.14985e-05
-0.000136437
-2.33653e-05
-0.000128171
-2.47814e-05
-0.000119239
-2.67893e-05
-0.000109878
-2.80757e-05
-9.98771e-05
-3.00028e-05
-8.91806e-05
-3.21235e-05
-7.80182e-05
-3.34971e-05
-6.60725e-05
-3.58548e-05
-5.32286e-05
-3.85321e-05
-3.96988e-05
-4.05274e-05
-2.52102e-05
-4.3497e-05
-9.79752e-06
-4.62305e-05
6.27326e-06
-4.82152e-05
2.3179e-05
-5.06871e-05
4.06224e-05
-5.23038e-05
5.85714e-05
-5.37995e-05
7.68425e-05
-5.47493e-05
9.49655e-05
-5.43198e-05
0.000112818
-5.34969e-05
0.000130183
-5.20191e-05
0.000146571
-4.91055e-05
0.000161872
-4.58424e-05
0.000175686
-4.13772e-05
0.000187803
-3.6287e-05
0.00019799
-3.05149e-05
0.000205967
-2.38972e-05
0.000211711
-1.71951e-05
0.00021505
-9.98708e-06
0.000215901
-2.57947e-06
0.000214107
5.30944e-06
0.000209829
1.28119e-05
0.000203231
1.97617e-05
0.000194599
2.58359e-05
0.000183952
3.19134e-05
0.000171653
3.68338e-05
0.000158065
4.07211e-05
0.000143204
4.45261e-05
0.000127506
4.70328e-05
0.000111284
4.86015e-05
9.46421e-05
4.99059e-05
7.78438e-05
5.0349e-05
6.11575e-05
5.00159e-05
4.46997e-05
4.93642e-05
2.85112e-05
4.85448e-05
1.275e-05
4.72861e-05
-2.38336e-06
4.53601e-05
-1.69894e-05
4.38011e-05
-3.09663e-05
4.19261e-05
-4.42828e-05
3.99443e-05
-5.6934e-05
3.79484e-05
-6.88996e-05
3.58848e-05
-8.01947e-05
3.38895e-05
-9.07949e-05
3.17965e-05
-0.000100697
2.97e-05
-0.000109925
2.76778e-05
-0.000118461
2.56062e-05
-0.000126286
2.34725e-05
-0.000133407
2.13647e-05
-0.0001398
1.91798e-05
-0.000145462
1.69913e-05
-0.000150381
1.4759e-05
-0.000154537
1.24702e-05
-0.000157922
1.01538e-05
-0.000160521
7.79768e-06
-0.000162319
5.38263e-06
-0.000163316
2.98931e-06
-0.000163503
5.6683e-07
-0.000162757
-2.238e-06
-0.000161139
-4.85302e-06
-0.000158642
-7.49114e-06
-0.00015529
-1.00574e-05
-1.26622e-05
8.44462e-05
-7.44973e-05
0.000103098
-7.44453e-05
0.000121319
-7.26989e-05
0.000138763
-6.95821e-05
0.000155415
-6.64007e-05
0.000170862
-6.15749e-05
0.000184954
-5.61444e-05
0.000197345
-4.93579e-05
0.000207789
-4.16174e-05
0.000216145
-3.33126e-05
0.000222208
-2.41429e-05
0.000225808
-1.43419e-05
0.000226883
-4.39409e-06
0.000225304
5.95987e-06
0.00022127
1.59615e-05
0.000214803
2.57959e-05
0.000205882
3.56175e-05
0.000194922
4.37132e-05
0.000182054
5.13316e-05
0.000167373
5.86286e-05
0.000151296
6.41525e-05
0.000134082
6.86726e-05
0.000115941
7.2458e-05
9.71361e-05
7.50898e-05
7.80076e-05
7.63033e-05
5.88697e-05
7.6405e-05
3.9732e-05
7.65082e-05
2.08753e-05
7.53334e-05
2.64714e-06
7.27711e-05
-1.50922e-05
7.08868e-05
-3.20605e-05
6.78118e-05
-4.81667e-05
6.43736e-05
-6.33638e-05
6.07378e-05
-7.75732e-05
5.68126e-05
-9.08191e-05
5.29742e-05
-0.000103048
4.89089e-05
-0.000114281
4.49318e-05
-0.00012454
4.10353e-05
-0.000133833
3.71751e-05
-0.00014219
3.34338e-05
-0.000149658
2.98864e-05
-0.000156256
2.63925e-05
-0.000162015
2.30303e-05
-0.000166964
1.97892e-05
-0.000171144
1.67278e-05
-0.000174551
1.36271e-05
-0.000177197
1.05837e-05
-0.000179136
7.74264e-06
-0.000180336
4.82471e-06
-0.000180794
1.94481e-06
-0.000180502
-1.14583e-06
-0.000179433
-4.2573e-06
-0.000177555
-7.53597e-06
-0.000174963
-1.03133e-05
-0.000171585
-1.35642e-05
-0.000167359
-1.69314e-05
-0.000162277
-2.03193e-05
-0.000156431
-2.34246e-05
-0.000149562
-2.74935e-05
-0.000141908
-3.04838e-05
-0.000133197
-3.49989e-05
-0.000123517
-3.87198e-05
-0.000112969
-4.22216e-05
-0.00010143
-4.61067e-05
-8.88959e-05
-5.01493e-05
-7.55899e-05
-5.31991e-05
-6.12636e-05
-5.72572e-05
-4.61922e-05
-6.02288e-05
-3.02157e-05
-6.38637e-05
-1.35456e-05
-6.65853e-05
3.56692e-06
-6.84749e-05
2.11981e-05
-7.04919e-05
3.92217e-05
-7.19504e-05
5.73903e-05
-7.26605e-05
7.55569e-05
-7.25657e-05
9.36141e-05
-7.21032e-05
0.000111397
-7.10658e-05
0.000128615
-6.87628e-05
0.000145082
-6.5715e-05
0.000160771
-6.2585e-05
0.000175192
-5.76296e-05
0.000188246
-5.21037e-05
0.000199741
-4.58409e-05
0.000209509
-3.89554e-05
0.000217303
-3.11041e-05
0.000223059
-2.29539e-05
0.000226529
-1.38383e-05
0.000227726
-4.78799e-06
0.000226438
5.01409e-06
0.00022275
1.46924e-05
0.000216648
2.43543e-05
0.000208194
3.36897e-05
0.000197582
4.2262e-05
0.000184962
5.03422e-05
0.000170539
5.74821e-05
0.000154565
6.36948e-05
0.000137309
6.88048e-05
0.000119031
7.29561e-05
0.000100024
7.58602e-05
8.05485e-05
7.77299e-05
6.08627e-05
7.86039e-05
4.11464e-05
7.85438e-05
2.17638e-05
7.7474e-05
2.85803e-06
7.55112e-05
-1.53674e-05
7.2822e-05
-3.27787e-05
6.95231e-05