/*--------------------------------*- C++ -*----------------------------------*\
| =========                 |                                                 |
| \\      /  F ield         | OpenFOAM: The Open Source CFD Toolbox           |
|  \\    /   O peration     | Version:  3.0.1                                 |
|   \\  /    A nd           | Web:      www.OpenFOAM.org                      |
|    \\/     M anipulation  |                                                 |
\*---------------------------------------------------------------------------*/
FoamFile
{
    version     2.0;
    format      ascii;
    class       surfaceScalarField;
    location    "51.4";
    object      phi;
}
// * * * * * * * * * * * * * * * * * * * * * * * * * * * * * * * * * * * * * //

dimensions      [0 3 -1 0 0 0 0];

internalField   nonuniform List<scalar> 
42423
(
-0.000140009
-7.42867e-06
-0.000131509
-8.50049e-06
-0.000122084
-9.42521e-06
-0.000111684
-1.03996e-05
-0.000100115
-1.15691e-05
-8.76425e-05
-1.24726e-05
-7.38679e-05
-1.37746e-05
-5.92686e-05
-1.45994e-05
-4.39053e-05
-1.53633e-05
-2.76316e-05
-1.62737e-05
-1.04595e-05
-1.71721e-05
7.307e-06
-1.77666e-05
2.56883e-05
-1.83813e-05
4.44709e-05
-1.87827e-05
6.35001e-05
-1.90291e-05
8.26207e-05
-1.91206e-05
0.000101391
-1.87702e-05
0.000119682
-1.82913e-05
0.000137286
-1.76041e-05
0.000153821
-1.65343e-05
0.000169137
-1.53167e-05
0.000183041
-1.39038e-05
0.000195167
-1.2126e-05
0.000205319
-1.01523e-05
0.000213317
-7.99801e-06
0.00021906
-5.74296e-06
0.000222395
-3.33486e-06
0.000223172
-7.76539e-07
0.000221569
1.60214e-06
0.000217431
4.13857e-06
0.00021078
6.65044e-06
0.000202006
8.77475e-06
0.000191022
1.0984e-05
0.000178242
1.27798e-05
0.000163768
1.44737e-05
0.000147856
1.59123e-05
0.000130843
1.70125e-05
0.000112931
1.7912e-05
9.42911e-05
1.864e-05
7.5258e-05
1.9033e-05
5.61228e-05
1.91352e-05
3.7128e-05
1.89948e-05
1.83519e-05
1.8776e-05
5.9e-08
1.82929e-05
-1.76708e-05
1.77298e-05
-3.47025e-05
1.70317e-05
-5.09087e-05
1.62062e-05
-6.62116e-05
1.5303e-05
-8.05821e-05
1.43705e-05
-9.39451e-05
1.3363e-05
-0.000106297
1.23515e-05
-0.000117655
1.13579e-05
-0.00012799
1.03354e-05
-0.000137375
9.38472e-06
-0.000145782
8.40736e-06
-0.000153259
7.47667e-06
-0.000159861
6.60209e-06
-0.00016556
5.69964e-06
-0.000170409
4.84882e-06
-0.000174464
4.05466e-06
-0.000177726
3.26199e-06
-0.000180267
2.54074e-06
-0.000182054
1.78725e-06
-0.000183092
1.03807e-06
-0.000183497
4.05107e-07
-0.000183142
-3.55113e-07
-0.000181987
-1.15483e-06
-0.000180135
-1.85168e-06
-0.000177538
-2.59702e-06
-0.000174159
-3.37988e-06
-0.000169996
-4.16271e-06
-0.00016497
-5.02577e-06
-0.000159054
-5.91654e-06
-0.000152375
-6.67846e-06
-0.000144676
-7.69883e-06
-0.000136117
-8.55949e-06
-0.000126521
-9.596e-06
-0.000115957
-1.05642e-05
-0.000104449
-1.15077e-05
-9.19917e-05
-1.24573e-05
-7.87359e-05
-1.32558e-05
-6.46334e-05
-1.41025e-05
-4.96999e-05
-1.49335e-05
-3.39765e-05
-1.57234e-05
-1.75502e-05
-1.64264e-05
-4.87421e-07
-1.70628e-05
1.70986e-05
-1.7586e-05
3.51344e-05
-1.80359e-05
5.3439e-05
-1.83046e-05
7.18554e-05
-1.84165e-05
9.0168e-05
-1.83126e-05
0.000108165
-1.79973e-05
0.000125586
-1.74204e-05
0.000142157
-1.65713e-05
0.000157637
-1.54804e-05
0.000171784
-1.41466e-05
0.000184354
-1.25697e-05
0.000195171
-1.08176e-05
0.000204017
-8.84613e-06
0.000210772
-6.75506e-06
0.000215288
-4.51539e-06
0.000217498
-2.21034e-06
0.000217412
8.63663e-08
0.000214953
2.45816e-06
0.000210097
4.85675e-06
0.000202977
7.1199e-06
0.000193686
9.29066e-06
0.000182356
1.13295e-05
0.000169145
1.32113e-05
0.000154277
1.48686e-05
0.000137938
1.63384e-05
0.00012044
1.74984e-05
0.00010202
1.84195e-05
8.29507e-05
1.90695e-05
6.34492e-05
1.95015e-05
4.38787e-05
1.95704e-05
2.43988e-05
1.94799e-05
5.20253e-06
1.91963e-05
-1.34357e-05
1.86383e-05
-3.1405e-05
1.79692e-05
-4.85574e-05
1.71524e-05
-6.48044e-05
1.6247e-05
-8.00486e-05
1.52442e-05
-9.42578e-05
1.42092e-05
-0.000107386
1.31285e-05
-0.000119423
1.20362e-05
-0.00013036
1.09378e-05
-0.000140206
9.84585e-06
-0.000148965
8.75869e-06
-0.000156634
7.66913e-06
-0.000163227
6.59278e-06
-0.000168913
5.68645e-06
-0.000173526
4.61283e-06
-0.00017726
3.73396e-06
-0.000180071
2.81083e-06
-0.000182071
2.00026e-06
-0.000183264
1.19241e-06
-0.000183794
5.30153e-07
-0.000183601
-1.92823e-07
-0.000182741
-8.60354e-07
-0.00018138
-1.36026e-06
-0.000179328
-2.05251e-06
-0.000176795
-2.53292e-06
-0.000173586
-3.20838e-06
-0.000169877
-3.70916e-06
-0.000165572
-4.3058e-06
-0.000160752
-4.81932e-06
-0.000155281
-5.47136e-06
-0.00014917
-6.11073e-06
-0.000142395
-6.77545e-06
-0.000134929
-7.46582e-06
-0.000126711
-8.21829e-06
-0.000117724
-8.98634e-06
-0.000107915
-9.80968e-06
-9.73539e-05
-1.05607e-05
-8.59116e-05
-1.14424e-05
-7.36543e-05
-1.22573e-05
-6.04761e-05
-1.31782e-05
-4.66491e-05
-1.3827e-05
-3.19946e-05
-1.46545e-05
-1.66327e-05
-1.53619e-05
-6.65283e-07
-1.59675e-05
1.58202e-05
-1.64856e-05
3.26986e-05
-1.68784e-05
4.97601e-05
-1.70616e-05
6.69316e-05
-1.71715e-05
8.3989e-05
-1.70574e-05
0.000100713
-1.67236e-05
0.0001169
-1.61878e-05
0.00013232
-1.54197e-05
0.000146723
-1.44031e-05
0.000159807
-1.30842e-05
0.000171314
-1.15063e-05
0.000181009
-9.69564e-06
0.000188642
-7.63329e-06
0.000194041
-5.39854e-06
0.000197056
-3.01553e-06
0.000197635
-5.78912e-07
0.0001957
1.93557e-06
0.000191244
4.45618e-06
0.00018434
6.90338e-06
0.000175182
9.15808e-06
0.000163888
1.12944e-05
0.000150697
1.31903e-05
0.000135851
1.48465e-05
0.00011961
1.62412e-05
0.000102244
1.73652e-05
8.40813e-05
1.81631e-05
6.53892e-05
1.86921e-05
4.6488e-05
1.89012e-05
2.76321e-05
1.88558e-05
9.13918e-06
1.84929e-05
-8.84532e-06
1.79845e-05
-2.61177e-05
1.72724e-05
-4.26177e-05
1.65e-05
-5.8373e-05
1.57553e-05
-7.31865e-05
1.48135e-05
-8.71046e-05
1.39181e-05
-0.000100005
1.29002e-05
-0.000111843
1.18381e-05
-0.00012265
1.08076e-05
-0.000132333
9.68211e-06
-0.000140976
8.64381e-06
-0.000148619
7.64289e-06
-0.000155324
6.70465e-06
-0.000161228
5.90385e-06
-0.000166277
5.04954e-06
-0.00017058
4.30322e-06
-0.000174269
3.68849e-06
-0.000177212
2.94335e-06
-0.000179575
2.36252e-06
-0.000181299
1.72439e-06
-0.00018248
1.18061e-06
-0.000183118
6.37815e-07
-0.000183181
6.34732e-08
-0.000182615
-5.6659e-07
-0.000181445
-1.16972e-06
-0.000179646
-1.79865e-06
-0.000177261
-2.38517e-06
-0.000174244
-3.01649e-06
-0.000170661
-3.58341e-06
-0.000166481
-4.18018e-06
-0.000161705
-4.77641e-06
-0.000156323
-5.38175e-06
-0.000150297
-6.02583e-06
-0.000143673
-6.62354e-06
-0.000136355
-7.31818e-06
-0.000128324
-8.03139e-06
-0.000119567
-8.75665e-06
-0.000109999
-9.56802e-06
-9.97067e-05
-1.02925e-05
-8.85662e-05
-1.11405e-05
-7.6579e-05
-1.19873e-05
-6.37146e-05
-1.28643e-05
-5.01528e-05
-1.35619e-05
-3.5748e-05
-1.44048e-05
-2.06219e-05
-1.51261e-05
-4.80341e-06
-1.58186e-05
1.15634e-05
-1.63668e-05
2.82981e-05
-1.67347e-05
4.53023e-05
-1.70042e-05
6.23425e-05
-1.70402e-05
7.92252e-05
-1.68827e-05
9.57143e-05
-1.64891e-05
0.000111513
-1.57983e-05
0.000126428
-1.49152e-05
0.000140159
-1.37317e-05
0.000152477
-1.23176e-05
0.000163146
-1.06686e-05
0.000171938
-8.79282e-06
0.000178635
-6.69665e-06
0.00018309
-4.4552e-06
0.000185196
-2.10546e-06
0.000184885
3.1059e-07
0.000182124
2.76133e-06
0.000176843
5.28109e-06
0.000169268
7.57424e-06
0.000159488
9.78014e-06
0.000147709
1.17792e-05
0.000134192
1.35173e-05
0.000119175
1.50168e-05
0.000102986
1.61893e-05
8.59172e-05
1.70684e-05
6.82492e-05
1.7668e-05
5.03298e-05
1.79194e-05
3.2359e-05
1.79708e-05
1.45696e-05
1.77894e-05
-2.82255e-06
1.73922e-05
-1.96313e-05
1.68087e-05
-3.5784e-05
1.61527e-05
-5.10956e-05
1.53116e-05
-6.54435e-05
1.43478e-05
-7.87786e-05
1.33351e-05
-9.09739e-05
1.21953e-05
-0.000102023
1.10494e-05
-0.000111904
9.88096e-06
-0.000120656
8.75226e-06
-0.000128301
7.64488e-06
-0.000134838
6.53693e-06
-0.000140314
5.47539e-06
-0.000144837
4.52299e-06
-0.000148409
3.57276e-06
-0.000151243
2.83377e-06
-0.000153376
2.13301e-06
-0.00015497
1.59351e-06
-0.000156247
1.27768e-06
-0.000157176
9.28155e-07
-0.000157706
5.30871e-07
-0.00015798
2.7328e-07
-0.000157786
-1.93914e-07
-0.000157262
-5.23991e-07
-0.000156274
-9.87364e-07
-0.000154682
-1.59295e-06
-0.000152569
-2.11232e-06
-0.000149827
-2.74205e-06
-0.000146279
-3.54849e-06
-0.000142019
-4.25926e-06
-0.000136943
-5.07662e-06
-0.00013086
-6.08278e-06
-0.000123914
-6.94599e-06
-0.000115816
-8.09817e-06
-0.000106736
-9.07942e-06
-9.67122e-05
-1.00243e-05
-8.54996e-05
-1.12127e-05
-7.32897e-05
-1.22099e-05
-6.02255e-05
-1.30642e-05
-4.59952e-05
-1.42303e-05
-3.09409e-05
-1.50543e-05
-1.48356e-05
-1.61053e-05
1.99763e-06
-1.68333e-05
1.94456e-05
-1.7448e-05
3.75485e-05
-1.81028e-05
5.61297e-05
-1.85813e-05
7.48134e-05
-1.86836e-05
9.35829e-05
-1.87695e-05
0.000112117
-1.85346e-05
0.000130299
-1.81815e-05
0.000147885
-1.75866e-05
0.000164482
-1.65968e-05
0.000179903
-1.54209e-05
0.00019389
-1.3987e-05
0.000206168
-1.22778e-05
0.000216642
-1.04738e-05
0.000225035
-8.39357e-06
0.000231193
-6.15801e-06
0.000234976
-3.78253e-06
0.000236324
-1.34846e-06
0.000235346
9.78505e-07
0.000232019
3.32691e-06
0.000226204
5.81529e-06
0.000218329
7.87496e-06
0.000208359
9.96959e-06
0.000196469
1.18898e-05
0.000183004
1.34652e-05
0.000168074
1.49295e-05
0.000152022
1.60522e-05
0.000135198
1.68245e-05
0.000117675
1.75229e-05
9.97514e-05
1.79233e-05
8.17829e-05
1.79685e-05
6.38499e-05
1.7933e-05
4.61265e-05
1.77234e-05
2.8893e-05
1.72336e-05
1.22578e-05
1.66352e-05
-3.68812e-06
1.59459e-05
-1.88719e-05
1.51837e-05
-3.32006e-05
1.43287e-05
-4.66542e-05
1.34536e-05
-5.91836e-05
1.25294e-05
-7.07737e-05
1.15902e-05
-8.1448e-05
1.06742e-05
-9.12036e-05
9.75558e-06
-0.000100087
8.88346e-06
-0.000108106
8.01854e-06
-0.000115291
7.1852e-06
-0.00012169
6.39956e-06
5.56946e-06
-0.00014005
-1.48527e-05
-0.000131552
-1.69983e-05
-0.00012213
-1.8847e-05
-0.000111732
-2.0798e-05
-0.000100163
-2.31384e-05
-8.76826e-05
-2.49527e-05
-7.39127e-05
-2.75445e-05
-5.93117e-05
-2.92004e-05
-4.39486e-05
-3.07264e-05
-2.76676e-05
-3.25547e-05
-1.04873e-05
-3.43524e-05
7.28142e-06
-3.55354e-05
2.56695e-05
-3.67694e-05
4.44677e-05
-3.7581e-05
6.35158e-05
-3.80774e-05
8.26447e-05
-3.82495e-05
0.000101419
-3.75451e-05
0.000119721
-3.65933e-05
0.000137341
-3.52235e-05
0.000153898
-3.30919e-05
0.000169236
-3.06541e-05
0.000183141
-2.78097e-05
0.000195269
-2.42537e-05
0.000205431
-2.03146e-05
0.000213447
-1.60137e-05
0.000219194
-1.14904e-05
0.000222537
-6.67752e-06
0.000223311
-1.55005e-06
0.000221689
3.224e-06
0.000217549
8.2785e-06
0.000210892
1.33066e-05
0.000202109
1.75581e-05
0.00019112
2.19734e-05
0.00017833
2.557e-05
0.000163844
2.89594e-05
0.000147918
3.18381e-05
0.000130893
3.4037e-05
0.000112973
3.58325e-05
9.43216e-05
3.72914e-05
7.52789e-05
3.80758e-05
5.61295e-05
3.82845e-05
3.71248e-05
3.79995e-05
1.83397e-05
3.75611e-05
4.22795e-08
3.65904e-05
-1.76938e-05
3.54659e-05
-3.47317e-05
3.40696e-05
-5.09432e-05
3.24177e-05
-6.62509e-05
3.06107e-05
-8.06252e-05
2.87448e-05
-9.39913e-05
2.67291e-05
-0.000106346
2.47067e-05
-0.000117707
2.27183e-05
-0.000128046
2.06744e-05
-0.000137432
1.87713e-05
-0.000145841
1.68162e-05
-0.00015332
1.49557e-05
-0.000159924
1.32059e-05
-0.000165627
1.14029e-05
-0.000170476
9.69768e-06
-0.000174532
8.11081e-06
-0.000177795
6.52447e-06
-0.000180341
5.0866e-06
-0.000182134
3.58011e-06
-0.000183162
2.0663e-06
-0.000183565
8.07907e-07
-0.000183214
-7.0633e-07
-0.000182057
-2.31086e-06
-0.000180221
-3.68855e-06
-0.000177609
-5.20903e-06
-0.000174219
-6.76909e-06
-0.000170071
-8.3111e-06
-0.000165039
-1.00575e-05
-0.00015912
-1.18357e-05
-0.000152447
-1.33521e-05
-0.000144745
-1.54006e-05
-0.000136186
-1.71185e-05
-0.000126582
-1.91998e-05
-0.000116015
-2.11311e-05
-0.000104496
-2.3027e-05
-9.20469e-05
-2.49064e-05
-7.87911e-05
-2.65116e-05
-6.46814e-05
-2.82123e-05
-4.97411e-05
-2.98738e-05
-3.40035e-05
-3.14611e-05
-1.75746e-05
-3.28553e-05
-5.02297e-07
-3.41352e-05
1.70931e-05
-3.51815e-05
3.51355e-05
-3.60783e-05
5.34549e-05
-3.66241e-05
7.18928e-05
-3.68545e-05
9.02126e-05
-3.66324e-05
0.000108221
-3.60059e-05
0.000125652
-3.48511e-05
0.000142234
-3.3154e-05
0.000157729
-3.09754e-05
0.000171889
-2.8306e-05
0.000184471
-2.51519e-05
0.000195292
-2.16394e-05
0.000204137
-1.76903e-05
0.000210896
-1.35142e-05
0.000215413
-9.0326e-06
0.000217632
-4.4297e-06
0.000217545
1.73344e-07
0.000215078
4.92482e-06
0.000210226
9.70954e-06
0.000203107
1.42387e-05
0.000193804
1.85934e-05
0.000182464
2.26699e-05
0.000169242
2.64334e-05
0.000154356
2.97542e-05
0.000138005
3.26889e-05
0.000120489
3.50146e-05
0.000102053
3.68561e-05
8.29686e-05
3.81535e-05
6.34487e-05
3.90214e-05
4.3856e-05
3.91631e-05
2.43585e-05
3.89774e-05
5.15343e-06
3.84014e-05
-1.3503e-05
3.72947e-05
-3.14927e-05
3.5959e-05
-4.86604e-05
3.43201e-05
-6.49175e-05
3.25042e-05
-8.01695e-05
3.04962e-05
-9.43745e-05
2.84142e-05
-0.000107515
2.62688e-05
-0.000119564
2.40857e-05
-0.000130509
2.18822e-05
-0.000140359
1.96957e-05
-0.000149117
1.75177e-05
-0.000156806
1.53573e-05
-0.000163394
1.31813e-05
-0.000169083
1.13753e-05
-0.000173706
9.23528e-06
-0.00017744
7.46821e-06
-0.000180251
5.62166e-06
-0.000182247
3.99682e-06
-0.000183448
2.39295e-06
-0.000183945
1.02695e-06
-0.000183786
-3.50849e-07
-0.000182917
-1.73024e-06
-0.000181548
-2.72922e-06
-0.000179505
-4.09567e-06
-0.00017696
-5.07708e-06
-0.000173774
-6.39472e-06
-0.000170051
-7.43192e-06
-0.000165727
-8.63052e-06
-0.00016092
-9.62637e-06
-0.000155446
-1.09451e-05
-0.000149338
-1.2219e-05
-0.000142551
-1.35623e-05
-0.00013508
-1.49365e-05
-0.000126856
-1.64425e-05
-0.000117867
-1.79755e-05
-0.000108088
-1.95887e-05
-9.7499e-05
-2.11495e-05
-8.60539e-05
-2.28876e-05
-7.37812e-05
-2.453e-05
-6.06311e-05
-2.63285e-05
-4.67593e-05
-2.76988e-05
-3.20862e-05
-2.93277e-05
-1.67207e-05
-3.07274e-05
-7.42548e-07
-3.19457e-05
1.57483e-05
-3.29765e-05
3.26455e-05
-3.37756e-05
4.97312e-05
-3.41474e-05
6.69109e-05
-3.43513e-05
8.39679e-05
-3.41145e-05
0.000100712
-3.34676e-05
0.000116929
-3.24049e-05
0.000132359
-3.08499e-05
0.000146773
-2.88177e-05
0.000159884
-2.61953e-05
0.00017141
-2.30324e-05
0.000181116
-1.94014e-05
0.000188757
-1.52744e-05
0.000194162
-1.08034e-05
0.000197188
-6.04196e-06
0.000197776
-1.1666e-06
0.000195836
3.87597e-06
0.000191379
8.91278e-06
0.000184471
1.38116e-05
0.000175295
1.83335e-05
0.000163987
2.26025e-05
0.000150782
2.63954e-05
0.000135918
2.971e-05
0.000119674
3.24859e-05
0.000102283
3.47562e-05
8.41024e-05
3.63432e-05
6.53864e-05
3.74081e-05
4.64662e-05
3.78215e-05
2.7589e-05
3.77329e-05
9.07453e-06
3.70074e-05
-8.92785e-06
3.59869e-05
-2.62211e-05
3.45656e-05
-4.2717e-05
3.29959e-05
-5.84823e-05
3.15206e-05
-7.331e-05
2.96412e-05
-8.72328e-05
2.78409e-05
-0.000100141
2.58086e-05
-0.000111989
2.36859e-05
-0.000122806
2.16242e-05
-0.000132494
1.93707e-05
-0.000141138
1.72873e-05
-0.000148781
1.52857e-05
-0.000155488
1.34122e-05
-0.000161397
1.18124e-05
-0.000166462
1.0115e-05
-0.000170798
8.6388e-06
-0.000174448
7.33911e-06
-0.000177399
5.89431e-06
-0.000179742
4.70543e-06
-0.000181472
3.45439e-06
-0.00018263
2.33848e-06
-0.000183287
1.29508e-06
-0.000183334
1.1004e-07
-0.000182787
-1.11321e-06
-0.000181614
-2.34294e-06
-0.000179819
-3.59409e-06
-0.000177434
-4.76995e-06
-0.000174421
-6.02948e-06
-0.000170825
-7.17895e-06
-0.000166605
-8.40015e-06
-0.000161862
-9.51959e-06
-0.000156481
-1.07633e-05
-0.000150463
-1.20437e-05
-0.000143833
-1.32532e-05
-0.000136513
-1.46387e-05
-0.000128474
-1.60705e-05
-0.000119703
-1.75269e-05
-0.000110144
-1.91276e-05
-9.98413e-05
-2.0595e-05
-8.86958e-05
-2.22861e-05
-7.67028e-05
-2.39803e-05
-6.38318e-05
-2.57354e-05
-5.02617e-05
-2.71319e-05
-3.58491e-05
-2.88175e-05
-2.07052e-05
-3.027e-05
-4.87795e-06
-3.16458e-05
1.15007e-05
-3.27455e-05
2.82464e-05
-3.34805e-05
4.5268e-05
-3.40259e-05
6.2329e-05
-3.41013e-05
7.92259e-05
-3.37796e-05
9.57326e-05
-3.29958e-05
0.000111547
-3.16133e-05
0.000126472
-2.98398e-05
0.000140226
-2.74862e-05
0.00015257
-2.4661e-05
0.000163245
-2.1344e-05
0.000172043
-1.75906e-05
0.000178759
-1.34129e-05
0.000183226
-8.92231e-06
0.000185334
-4.21294e-06
0.000185018
6.26385e-07
0.000182247
5.53163e-06
0.000176962
1.05662e-05
0.000169373
1.51633e-05
0.000159582
1.95711e-05
0.000147787
2.35742e-05
0.000134251
2.70531e-05
0.000119225
3.00429e-05
0.000103011
3.24029e-05
8.59223e-05
3.41575e-05
6.82358e-05
3.53545e-05
5.02989e-05
3.58562e-05
3.23154e-05
3.59543e-05
1.45216e-05
3.55831e-05
-2.87951e-06
3.47933e-05
-1.96967e-05
3.3626e-05
-3.58572e-05
3.23132e-05
-5.1171e-05
3.06254e-05
-6.5522e-05
2.86988e-05
-7.88656e-05
2.66787e-05
-9.10691e-05
2.43988e-05
-0.000102115
2.20952e-05
-0.000111997
1.97627e-05
-0.000120755
1.75104e-05
-0.000128404
1.52939e-05
-0.000134941
1.30744e-05
-0.000140413
1.09471e-05
-0.000144929
9.03856e-06
-0.000148494
7.13849e-06
-0.00015132
5.65967e-06
-0.000153444
4.25672e-06
-0.000155031
3.18003e-06
-0.000156303
2.55017e-06
-0.00015723
1.85479e-06
-0.00015776
1.06118e-06
-0.000158032
5.45224e-07
-0.000157838
-3.87363e-07
-0.000157316
-1.04642e-06
-0.000156331
-1.97238e-06
-0.00015474
-3.18398e-06
-0.000152629
-4.22309e-06
-0.000149889
-5.48246e-06
-0.000146342
-7.09524e-06
-0.000142084
-8.51742e-06
-0.000137006
-1.01544e-05
-0.000130925
-1.21635e-05
-0.00012398
-1.38912e-05
-0.00011588
-1.61986e-05
-0.000106802
-1.8157e-05
-9.67795e-05
-2.00471e-05
-8.55668e-05
-2.24253e-05
-7.33559e-05
-2.44208e-05
-6.02866e-05
-2.61335e-05
-4.60517e-05
-2.84653e-05
-3.09913e-05
-3.01148e-05
-1.48738e-05
-3.22228e-05
1.95659e-06
-3.36637e-05
1.94033e-05
-3.48947e-05
3.75051e-05
-3.62048e-05
5.60941e-05
-3.71703e-05
7.47794e-05
-3.7369e-05
9.35414e-05
-3.75315e-05
0.000112088
-3.70815e-05
0.000130296
-3.63888e-05
0.000147898
-3.51895e-05
0.000164508
-3.32064e-05
0.000179926
-3.08387e-05
0.000193918
-2.7979e-05
0.000206223
-2.45829e-05
0.000216715
-2.09661e-05
0.000225105
-1.67837e-05
0.000231256
-1.23093e-05
0.000235061
-7.58754e-06
0.000236429
-2.7161e-06
0.000235446
1.96102e-06
0.00023212
6.65314e-06
0.000226309
1.16258e-05
0.000218426
1.57583e-05
0.000208452
1.99434e-05
0.000196551
2.37911e-05
0.000183077
2.69395e-05
0.000168135
2.98707e-05
0.000152071
3.21168e-05
0.000135233
3.36621e-05
0.000117702
3.50543e-05
9.97683e-05
3.58567e-05
8.17862e-05
3.59506e-05
6.38475e-05
3.58716e-05
4.61207e-05
3.54501e-05
2.8872e-05
3.44823e-05
1.2233e-05
3.32742e-05
-3.71301e-06
3.18919e-05
-1.89004e-05
3.03711e-05
-3.3231e-05
2.86594e-05
-4.6686e-05
2.69085e-05
-5.92167e-05
2.506e-05
-7.08069e-05
2.31804e-05
-8.14813e-05
2.13486e-05
-9.12352e-05
1.95095e-05
-0.000100119
1.77669e-05
-0.000108138
1.60375e-05
-0.000115322
1.43694e-05
-0.000121721
1.27988e-05
1.11368e-05
-0.000140124
-2.22744e-05
-0.000131628
-2.54942e-05
-0.000122209
-2.82654e-05
-0.000111811
-3.11967e-05
-0.000100241
-3.47082e-05
-8.77528e-05
-3.74407e-05
-7.39872e-05
-4.13102e-05
-5.93848e-05
-4.38028e-05
-4.4026e-05
-4.60853e-05
-2.77327e-05
-4.8848e-05
-1.05339e-05
-5.15513e-05
7.26522e-06
-5.33346e-05
2.56677e-05
-5.5172e-05
4.44851e-05
-5.63984e-05
6.35452e-05
-5.71375e-05
8.26902e-05
-5.73947e-05
0.000101493
-5.63478e-05
0.00011982
-5.49206e-05
0.000137462
-5.28657e-05
0.000154034
-4.96641e-05
0.00016938
-4.60003e-05
0.000183307
-4.17362e-05
0.000195461
-3.64077e-05
0.000205638
-3.04918e-05
0.000213655
-2.40311e-05
0.000219407
-1.72422e-05
0.000222762
-1.00323e-05
0.000223531
-2.31891e-06
0.000221874
4.8807e-06
0.000217731
1.24214e-05
0.000211065
1.99722e-05
0.000202265
2.63587e-05
0.00019127
3.29684e-05
0.000178462
3.83773e-05
0.000163959
4.3463e-05
0.000148008
4.77889e-05
0.000130961
5.1084e-05
0.000113026
5.37675e-05
9.43555e-05
5.5962e-05
7.53018e-05
5.71294e-05
5.61232e-05
5.74631e-05
3.70998e-05
5.70229e-05
1.83002e-05
5.63607e-05
-5.94969e-09
5.48965e-05
-1.77523e-05
5.32122e-05
-3.47991e-05
5.11163e-05
-5.10175e-05
4.86361e-05
-6.63306e-05
4.59238e-05
-8.07096e-05
4.31238e-05
-9.4079e-05
4.00985e-05
-0.000106437
3.70643e-05
-0.000117797
3.40789e-05
-0.000128138
3.10152e-05
-0.000137526
2.81598e-05
-0.000145932
2.52217e-05
-0.000153408
2.24316e-05
-0.000160011
1.98093e-05
-0.000165714
1.71054e-05
-0.000170555
1.45393e-05
-0.000174609
1.21641e-05
-0.000177868
9.78346e-06
-0.000180408
7.62669e-06
-0.000182202
5.37469e-06
-0.000183224
3.08774e-06
-0.000183621
1.20539e-06
-0.000183269
-1.05814e-06
-0.000182119
-3.46151e-06
-0.000180292
-5.51573e-06
-0.000177668
-7.83211e-06
-0.000174275
-1.01622e-05
-0.000170141
-1.2445e-05
-0.00016511
-1.50892e-05
-0.000159191
-1.77544e-05
-0.000152524
-2.00193e-05
-0.00014482
-2.31041e-05
-0.000136263
-2.56759e-05
-0.000126662
-2.88013e-05
-0.000116091
-3.17014e-05
-0.000104555
-3.45631e-05
-9.2129e-05
-3.73327e-05
-7.88653e-05
-3.97753e-05
-6.47513e-05
-4.23264e-05
-4.98072e-05
-4.4818e-05
-3.40639e-05
-4.72044e-05
-1.76271e-05
-4.92922e-05
-5.43827e-07
-5.12184e-05
1.70536e-05
-5.2779e-05
3.51089e-05
-5.41336e-05
5.34439e-05
-5.49592e-05
7.18911e-05
-5.53017e-05
9.02241e-05
-5.49655e-05
0.000108253
-5.40349e-05
0.000125701
-5.22995e-05
0.000142294
-4.97471e-05
0.0001578
-4.64813e-05
0.00017197
-4.24758e-05
0.000184562
-3.77441e-05
0.000195406
-3.24831e-05
0.000204243
-2.65273e-05
0.000210989
-2.02603e-05
0.00021553
-1.35734e-05
0.000217756
-6.65641e-06
0.000217645
2.84595e-07
0.000215156
7.41431e-06
0.00021031
1.45554e-05
0.00020322
2.13279e-05
0.000193879
2.79348e-05
0.000182525
3.4024e-05
0.000169292
3.96663e-05
0.000154371
4.4675e-05
0.000138006
4.90543e-05
0.000120471
5.25493e-05
0.000102013
5.53141e-05
8.28991e-05
5.72672e-05
6.33532e-05
5.85673e-05
4.37393e-05
5.87769e-05
2.42087e-05
5.8508e-05
5.00974e-06
5.76004e-05
-1.36653e-05
5.59697e-05
-3.16656e-05
5.39592e-05
-4.88463e-05
5.15008e-05
-6.51135e-05
4.87714e-05
-8.03751e-05
4.57578e-05
-9.45793e-05
4.26184e-05
-0.00010771
3.93996e-05
-0.000119761
3.61363e-05
-0.000130705
3.28267e-05
-0.000140562
2.95521e-05
-0.000149285
2.6241e-05
-0.000157009
2.30809e-05
-0.00016363
1.98026e-05
-0.00016929
1.70351e-05
-0.000173916
1.38615e-05
-0.000177642
1.11943e-05
-0.000180451
8.43081e-06
-0.000182438
5.98382e-06
-0.000183642
3.59701e-06
-0.000184094
1.47856e-06
-0.000183966
-4.7863e-07
-0.000183135
-2.56164e-06
-0.000181722
-4.14187e-06
-0.000179694
-6.12342e-06
-0.000177137
-7.63409e-06
-0.000173965
-9.56699e-06
-0.000170234
-1.11635e-05
-0.000165904
-1.29596e-05
-0.000161095
-1.44354e-05
-0.000155626
-1.6415e-05
-0.000149528
-1.8317e-05
-0.000142738
-2.03516e-05
-0.000135271
-2.24035e-05
-0.000127049
-2.46646e-05
-0.00011802
-2.70046e-05
-0.000108299
-2.93101e-05
-9.77026e-05
-3.17457e-05
-8.62535e-05
-3.43368e-05
-7.39746e-05
-3.68089e-05
-6.08536e-05
-3.94495e-05
-4.69259e-05
-4.16266e-05
-3.22501e-05
-4.40035e-05
-1.68779e-05
-4.60997e-05
-8.91004e-07
-4.79327e-05
1.56164e-05
-4.94839e-05
3.25147e-05
-5.0674e-05
4.96257e-05
-5.12584e-05
6.68246e-05
-5.15503e-05
8.38954e-05
-5.11853e-05
0.000100657
-5.02296e-05
0.000116891
-4.86384e-05
0.000132336
-4.62954e-05
0.000146778
-4.32597e-05
0.000159934
-3.93513e-05
0.000171465
-3.45635e-05
0.000181189
-2.91251e-05
0.000188848
-2.29338e-05
0.000194277
-1.62326e-05
0.000197342
-9.10696e-06
0.000197889
-1.71337e-06
0.000195922
5.84284e-06
0.000191462
1.33728e-05
0.000184549
2.07245e-05
0.000175359
2.75233e-05
0.000164035
3.3927e-05
0.000150809
3.96218e-05
0.000135924
4.45946e-05
0.000119649
4.87604e-05
0.000102244
5.21617e-05
8.40377e-05
5.45495e-05
6.53014e-05
5.61444e-05
4.63649e-05
5.6758e-05
2.74449e-05
5.66529e-05
8.91864e-06
5.55337e-05
-9.06877e-06
5.39743e-05
-2.64066e-05
5.19035e-05
-4.29228e-05
4.95121e-05
-5.86676e-05
4.72653e-05
-7.35026e-05
4.44762e-05
-8.74239e-05
4.17622e-05
-0.000100347
3.87315e-05
-0.000112199
3.55381e-05
-0.000123016
3.24416e-05
-0.000132703
2.90577e-05
-0.000141341
2.59245e-05
-0.000148982
2.29269e-05
-0.000155677
2.01075e-05
-0.000161567
1.77026e-05
-0.000166656
1.52036e-05
-0.000171004
1.29869e-05
-0.000174638
1.09727e-05
-0.000177602
8.85827e-06
-0.000179913
7.01727e-06
-0.000181674
5.21459e-06
-0.000182791
3.4555e-06
-0.000183463
1.96709e-06
-0.000183471
1.18574e-07
-0.000182975
-1.60976e-06
-0.000181795
-3.52295e-06
-0.000180006
-5.38263e-06
-0.000177614
-7.16233e-06
-0.000174602
-9.04133e-06
-0.000171
-1.07808e-05
-0.000166765
-1.26357e-05
-0.000162038
-1.42464e-05
-0.00015666
-1.61413e-05
-0.000150654
-1.80493e-05
-0.00014402
-1.98878e-05
-0.000136708
-2.19505e-05
-0.000128667
-2.41111e-05
-0.000119865
-2.63294e-05
-0.000110342
-2.86505e-05
-0.00010003
-3.09068e-05
-8.88831e-05
-3.34332e-05
-7.6874e-05
-3.59894e-05
-6.40665e-05
-3.8543e-05
-5.04246e-05
-4.07739e-05
-3.60111e-05
-4.3231e-05
-2.08584e-05
-4.54227e-05
-5.03002e-06
-4.74743e-05
1.13643e-05
-4.91399e-05
2.81251e-05
-5.02414e-05
4.51606e-05
-5.10614e-05
6.22348e-05
-5.11756e-05
7.91519e-05
-5.06968e-05
9.5684e-05
-4.9528e-05
0.000111523
-4.74518e-05
0.000126473
-4.47908e-05
0.00014025
-4.12624e-05
0.000152611
-3.70221e-05
0.000163308
-3.20409e-05
0.000172127
-2.64097e-05
0.000178857
-2.01427e-05
0.000183326
-1.33922e-05
0.000185445
-6.3314e-06
0.000185115
9.56033e-07
0.000182343
8.30378e-06
0.000177048
1.58613e-05
0.000169446
2.27647e-05
0.00015965
2.93678e-05
0.000147837
3.53863e-05
0.000134281
4.06101e-05
0.00011926
4.50634e-05
0.000102996
4.86674e-05
8.58878e-05
5.12652e-05
6.81835e-05
5.30588e-05
5.02306e-05
5.38092e-05
3.22358e-05
5.3949e-05
1.44292e-05
5.33897e-05
-2.97976e-06
5.22023e-05
-1.97976e-05
5.04438e-05
-3.59671e-05
4.84827e-05
-5.12913e-05
4.59496e-05
-6.56502e-05
4.30577e-05
-7.90009e-05
4.00294e-05
-9.12114e-05
3.66093e-05
-0.000102257
3.31407e-05
-0.000112141
2.96468e-05
-0.000120901
2.627e-05
-0.000128555
2.29485e-05
-0.000135094
1.9613e-05
-0.00014057
1.64234e-05
-0.000145081
1.35493e-05
-0.000148639
1.06969e-05
-0.000151448
8.46792e-06
-0.000153542
6.3512e-06
-0.000155109
4.74727e-06
-0.000156361
3.80188e-06
-0.000157276
2.7697e-06
-0.0001578
1.58568e-06
-0.000158068
8.12708e-07
-0.000157878
-5.77223e-07
-0.000157358
-1.56638e-06
-0.000156378
-2.95259e-06
-0.000154792
-4.77002e-06
-0.000152686
-6.32941e-06
-0.00014995
-8.21836e-06
-0.000146408
-1.06372e-05
-0.000142154
-1.27706e-05
-0.000137076
-1.52326e-05
-0.000131002
-1.82383e-05
-0.000124058
-2.08345e-05
-0.00011596
-2.42971e-05
-0.000106884
-2.72323e-05
-9.68656e-05
-3.00659e-05
-8.56541e-05
-3.36369e-05
-7.34432e-05
-3.66317e-05
-6.03696e-05
-3.92071e-05
-4.61305e-05
-4.27045e-05
-3.10641e-05
-4.51812e-05
-1.49285e-05
-4.83584e-05
1.89796e-06
-5.04902e-05
1.93516e-05
-5.23484e-05
3.74605e-05
-5.43138e-05
5.60532e-05
-5.5763e-05
7.47436e-05
-5.60595e-05
9.35222e-05
-5.63102e-05
0.000112081
-5.56403e-05
0.000130296
-5.46044e-05
0.000147903
-5.27965e-05
0.00016452
-4.98228e-05
0.000179967
-4.62863e-05
0.000193991
-4.20025e-05
0.000206309
-3.69012e-05
0.000216806
-3.14636e-05
0.000225223
-2.52001e-05
0.000231401
-1.84874e-05
0.000235219
-1.14052e-05
0.000236595
-4.09304e-06
0.000235613
2.94292e-06
0.000232286
9.98018e-06
0.000226485
1.74273e-05
0.000218579
2.36644e-05
0.000208602
2.99203e-05
0.000196678
3.57148e-05
0.000183187
4.04304e-05
0.000168226
4.48318e-05
0.00015214
4.82024e-05
0.000135278
5.05242e-05
0.000117733
5.25997e-05
9.97844e-05
5.3805e-05
8.17763e-05
5.39588e-05
6.38292e-05
5.38187e-05
4.61049e-05
5.31745e-05
2.8824e-05
5.17632e-05
1.21786e-05
4.99195e-05
-3.77288e-06
4.78433e-05
-1.8965e-05
4.55632e-05
-3.32989e-05
4.29933e-05
-4.6755e-05
4.03646e-05
-5.92862e-05
3.75912e-05
-7.08757e-05
3.47699e-05
-8.15491e-05
3.2022e-05
-9.13023e-05
2.92626e-05
-0.000100183
2.66479e-05
-0.000108201
2.40548e-05
-0.000115383
2.15522e-05
-0.000121783
1.91983e-05
1.66995e-05
-0.000140234
-2.96926e-05
-0.000131741
-3.39874e-05
-0.000122328
-3.76783e-05
-0.000111929
-4.15956e-05
-0.000100358
-4.62793e-05
-8.78596e-05
-4.99395e-05
-7.40989e-05
-5.5071e-05
-5.94945e-05
-5.84073e-05
-4.4147e-05
-6.14329e-05
-2.7831e-05
-6.5164e-05
-1.06031e-05
-6.87793e-05
7.23884e-06
-7.11765e-05
2.56691e-05
-7.36023e-05
4.45132e-05
-7.52425e-05
6.36009e-05
-7.62252e-05
8.27744e-05
-7.65682e-05
0.000101609
-7.51828e-05
0.000119963
-7.32738e-05
0.000137633
-7.05363e-05
0.000154242
-6.62731e-05
0.000169615
-6.13732e-05
0.000183566
-5.56877e-05
0.000195745
-4.85859e-05
0.000205939
-4.06867e-05
0.000213976
-3.20681e-05
0.000219742
-2.30078e-05
0.000223101
-1.33919e-05
0.000223873
-3.09095e-06
0.000222158
6.59643e-06
0.000218007
1.65721e-05
0.000211326
2.66533e-05
0.0002025
3.51841e-05
0.000191495
4.39739e-05
0.000178661
5.12105e-05
0.000164132
5.7992e-05
0.000148143
6.3778e-05
0.000131063
6.81646e-05
0.000113105
7.17247e-05
9.4406e-05
7.46613e-05
7.53397e-05
7.61956e-05
5.6114e-05
7.66888e-05
3.70627e-05
7.60743e-05
1.82414e-05
7.5182e-05
-7.88916e-08
7.32168e-05
-1.78419e-05
7.09752e-05
-3.49023e-05
6.81767e-05
-5.11309e-05
6.48647e-05
-6.64528e-05
6.12458e-05
-8.08381e-05
5.7509e-05
-9.42126e-05
5.3473e-05
-0.000106573
4.94248e-05
-0.000117935
4.54408e-05
-0.000128278
4.13583e-05
-0.000137666
3.75473e-05
-0.000146066
3.36221e-05
-0.000153543
2.9908e-05
-0.000160146
2.64121e-05
-0.000165847
2.28072e-05
-0.000170685
1.93771e-05
-0.000174731
1.62104e-05
-0.000177981
1.30334e-05
-0.00018052
1.01649e-05
-0.000182317
7.17161e-06
-0.000183321
4.09245e-06
-0.000183712
1.59636e-06
-0.000183357
-1.41357e-06
-0.000182213
-4.60516e-06
-0.000180397
-7.3318e-06
-0.000177762
-1.04669e-05
-0.000174354
-1.35703e-05
-0.000170249
-1.65502e-05
-0.000165218
-2.01206e-05
-0.000159301
-2.36712e-05
-0.000152644
-2.6676e-05
-0.000144938
-3.08099e-05
-0.000136385
-3.42294e-05
-0.000126777
-3.84092e-05
-0.000116206
-4.22729e-05
-0.000104656
-4.61126e-05
-9.22689e-05
-4.97199e-05
-7.89821e-05
-5.30622e-05
-6.48622e-05
-5.64463e-05
-4.99068e-05
-5.97734e-05
-3.41569e-05
-6.29543e-05
-1.77144e-05
-6.57348e-05
-6.17556e-07
-6.83153e-05
1.69885e-05
-7.03851e-05
3.50551e-05
-7.22003e-05
5.34048e-05
-7.33089e-05
7.18697e-05
-7.37666e-05
9.0227e-05
-7.33228e-05
0.000108277
-7.20855e-05
0.000125756
-6.97783e-05
0.000142356
-6.63469e-05
0.000157883
-6.20086e-05
0.000172074
-5.66663e-05
0.000184678
-5.03491e-05
0.000195543
-4.33477e-05
0.000204388
-3.53721e-05
0.000211132
-2.70042e-05
0.000215671
-1.81127e-05
0.000217886
-8.87166e-06