/*--------------------------------*- C++ -*----------------------------------*\
| =========                 |                                                 |
| \\      /  F ield         | OpenFOAM: The Open Source CFD Toolbox           |
|  \\    /   O peration     | Version:  3.0.1                                 |
|   \\  /    A nd           | Web:      www.OpenFOAM.org                      |
|    \\/     M anipulation  |                                                 |
\*---------------------------------------------------------------------------*/
FoamFile
{
    version     2.0;
    format      ascii;
    class       surfaceScalarField;
    location    "16.4";
    object      phi;
}
// * * * * * * * * * * * * * * * * * * * * * * * * * * * * * * * * * * * * * //

dimensions      [0 3 -1 0 0 0 0];

internalField   nonuniform List<scalar> 
42423
(
0.000102865
1.74385e-05
8.51246e-05
1.77408e-05
6.69128e-05
1.82118e-05
4.83763e-05
1.85365e-05
2.98981e-05
1.84782e-05
1.1505e-05
1.83931e-05
-6.50446e-06
1.80094e-05
-2.40044e-05
1.74999e-05
-4.07899e-05
1.67855e-05
-5.67303e-05
1.59404e-05
-7.18062e-05
1.50759e-05
-8.59198e-05
1.41136e-05
-9.90273e-05
1.31076e-05
-0.000111144
1.21165e-05
-0.000122247
1.11028e-05
-0.000132379
1.01322e-05
-0.000141541
9.16183e-06
-0.00014976
8.21937e-06
-0.000157079
7.31866e-06
-0.000163509
6.4299e-06
-0.000169069
5.56008e-06
-0.000173845
4.77587e-06
-0.000177852
4.00724e-06
-0.0001811
3.24864e-06
-0.000183609
2.50892e-06
-0.0001854
1.79083e-06
-0.000186506
1.10585e-06
-0.00018695
4.44239e-07
-0.000186596
-3.53979e-07
-0.000185491
-1.10548e-06
-0.000183675
-1.81609e-06
-0.000181009
-2.66559e-06
-0.0001776
-3.40891e-06
-0.000173323
-4.27713e-06
-0.000168251
-5.07241e-06
-0.000162385
-5.86601e-06
-0.000155519
-6.86599e-06
-0.000147767
-7.75144e-06
-0.000139194
-8.57354e-06
-0.000129456
-9.73826e-06
-0.000118768
-1.06877e-05
-0.00010689
-1.18781e-05
-9.39819e-05
-1.2908e-05
-8.02373e-05
-1.37446e-05
-6.54171e-05
-1.48202e-05
-4.9643e-05
-1.57742e-05
-3.30731e-05
-1.65699e-05
-1.55341e-05
-1.75391e-05
2.61103e-06
-1.81451e-05
2.11507e-05
-1.85397e-05
4.00838e-05
-1.89332e-05
5.91161e-05
-1.90324e-05
7.81618e-05
-1.90457e-05
9.70393e-05
-1.88776e-05
0.000115315
-1.82759e-05
0.000132906
-1.75906e-05
0.000149566
-1.666e-05
0.000164868
-1.53021e-05
0.00017874
-1.38727e-05
0.000190917
-1.21769e-05
0.000201277
-1.03594e-05
0.000209681
-8.40407e-06
0.000215854
-6.17305e-06
0.000219797
-3.94314e-06
0.00022138
-1.58366e-06
0.000220566
8.14056e-07
0.000217309
3.25735e-06
0.000211661
5.64762e-06
0.000203744
7.91777e-06
0.000193704
1.00394e-05
0.000181742
1.19624e-05
0.000167942
1.37997e-05
0.000152577
1.53649e-05
0.000136023
1.65541e-05
0.000118451
1.75725e-05
0.000100075
1.83757e-05
8.12316e-05
1.88432e-05
6.19954e-05
1.92363e-05
4.29227e-05
1.90726e-05
2.40093e-05
1.89134e-05
5.34614e-06
1.86632e-05
-1.24622e-05
1.78084e-05
-2.97185e-05
1.72563e-05
-4.6268e-05
1.65495e-05
-6.18006e-05
1.55326e-05
-7.64255e-05
1.46249e-05
-9.01277e-05
1.37022e-05
-0.000102799
1.26714e-05
-0.000114509
1.171e-05
-0.000125258
1.07486e-05
-0.000135069
9.81177e-06
-0.000144023
8.9536e-06
-0.000152051
8.02787e-06
-0.000159104
7.05296e-06
-0.000165384
6.28026e-06
-0.0001706
5.21584e-06
-0.000175124
4.52359e-06
-0.000179029
3.90524e-06
-0.000181943
2.91456e-06
-0.000184054
2.11093e-06
-0.000185664
1.60975e-06
-0.00018622
5.56442e-07
-0.000186024
-1.96376e-07
-0.000184872
-1.15194e-06
-0.000182916
-1.95642e-06
-0.000180154
-2.76205e-06
-0.000176603
-3.55088e-06
-0.000172133
-4.46937e-06
-0.000166936
-5.19789e-06
-0.000160859
-6.07664e-06
-0.000153899
-6.96002e-06
-0.000145991
-7.90799e-06
-0.000137161
-8.83007e-06
-0.000127401
-9.75993e-06
-0.000116654
-1.07474e-05
-0.000104896
-1.17573e-05
-9.21471e-05
-1.27492e-05
-7.84332e-05
-1.3714e-05
-6.38118e-05
-1.46215e-05
-4.83522e-05
-1.54596e-05
-3.21283e-05
-1.62239e-05
-1.52417e-05
-1.68866e-05
2.25235e-06
-1.74941e-05
2.02116e-05
-1.79593e-05
3.85395e-05
-1.83279e-05
5.70411e-05
-1.85017e-05
7.55029e-05
-1.84619e-05
9.37546e-05
-1.82517e-05
0.000111588
-1.78336e-05
0.000128775
-1.71867e-05
0.000145076
-1.63014e-05
0.000160292
-1.5216e-05
0.00017415
-1.38577e-05
0.000186538
-1.23884e-05
0.000197148
-1.06104e-05
0.000205842
-8.69402e-06
0.000212405
-6.56232e-06
0.000216713
-4.30786e-06
0.00021869
-1.97748e-06
0.000218336
3.54064e-07
0.000215653
2.6826e-06
0.000210522
5.13152e-06
0.000203085
7.43711e-06
0.000193509
9.5757e-06
0.000181931
1.15782e-05
0.000168492
1.34383e-05
0.000153691
1.48016e-05
0.000137597
1.60935e-05
0.000120238
1.73595e-05
0.000102222
1.80154e-05
8.34457e-05
1.87765e-05
6.46547e-05
1.87909e-05
4.5682e-05
1.89728e-05
2.67941e-05
1.88879e-05
8.56064e-06
1.82334e-05
-9.20528e-06
1.77659e-05
-2.63106e-05
1.71053e-05
-4.25206e-05
1.621e-05
-5.79832e-05
1.54626e-05
-7.24195e-05
1.44363e-05
-8.59594e-05
1.35399e-05
-9.85868e-05
1.26274e-05
-0.000110195
1.1608e-05
-0.000120896
1.0701e-05
-0.000130772
9.87585e-06
-0.000139787
9.01511e-06
-0.000148118
8.33129e-06
-0.000155656
7.53766e-06
-0.000162329
6.67358e-06
-0.000168347
6.01791e-06
-0.000173713
5.36556e-06
-0.000178134
4.42142e-06
-0.000181831
3.69714e-06
-0.00018494
3.10889e-06
-0.000187008
2.06761e-06
-0.00018847
1.46188e-06
-0.000188827
3.5767e-07
-0.000188185
-6.42208e-07
-0.0001868
-1.38501e-06
-0.00018452
-2.28033e-06
-0.000181113
-3.40696e-06
-0.000176924
-4.18845e-06
-0.000171787
-5.13744e-06
-0.000165748
-6.03937e-06
-0.000158674
-7.07352e-06
-0.000150545
-8.12909e-06
-0.000141553
-8.99227e-06
-0.000131673
-9.87976e-06
-0.000120883
-1.07906e-05
-0.000109245
-1.16375e-05
-9.67745e-05
-1.24707e-05
-8.34842e-05
-1.32903e-05
-6.94187e-05
-1.40656e-05
-5.47208e-05
-1.46979e-05
-3.92918e-05
-1.5429e-05
-2.3276e-05
-1.60159e-05
-6.69694e-06
-1.65791e-05
1.03832e-05
-1.70802e-05
2.7821e-05
-1.74379e-05
4.54956e-05
-1.76746e-05
6.33168e-05
-1.78213e-05
8.11199e-05
-1.78031e-05
9.87306e-05
-1.76107e-05
0.000115992
-1.72612e-05
0.000132673
-1.6681e-05
0.000148576
-1.59037e-05
0.000163474
-1.48978e-05
0.000177098
-1.36237e-05
0.000189222
-1.21239e-05
0.000199615
-1.03935e-05
0.00020808
-8.46479e-06
0.000214394
-6.31466e-06
0.000218456
-4.06146e-06
0.000220164
-1.70813e-06
0.000219374
7.89554e-07
0.000215985
3.38961e-06
0.000210128
5.8568e-06
0.000201891
8.23646e-06
0.000191328
1.05634e-05
0.00017873
1.2598e-05
0.000164196
1.45341e-05
0.000148111
1.6085e-05
0.000130632
1.74784e-05
0.000112107
1.85256e-05
9.30949e-05
1.9012e-05
7.37182e-05
1.93766e-05
5.40575e-05
1.96607e-05
3.46521e-05
1.94054e-05
1.54566e-05
1.91955e-05
-2.86122e-06
1.83179e-05
-2.05765e-05
1.77152e-05
-3.74339e-05
1.68574e-05
-5.31276e-05
1.56938e-05
-6.77242e-05
1.45966e-05
-8.12837e-05
1.35595e-05
-9.37079e-05
1.24242e-05
-0.00010504
1.13317e-05
-0.000115335
1.02956e-05
-0.000124705
9.36958e-06
-0.000133246
8.5411e-06
-0.000140921
7.67495e-06
-0.000147765
6.8446e-06
-0.000154001
6.23513e-06
-0.000159653
5.65229e-06
-0.00016439
4.73703e-06
-0.000168609
4.21887e-06
-0.000171987
3.37815e-06
-0.000174803
2.81638e-06
-0.000177275
2.47183e-06
-0.00017902
1.74527e-06
-0.000180053
1.03281e-06
-0.000180547
4.93646e-07
-0.000180378
-1.68448e-07
-0.000179708
-6.70539e-07
-0.000177915
-1.79335e-06
-0.000175416
-2.49888e-06
-0.000172284
-3.13215e-06
-0.000168172
-4.1116e-06
-0.000163203
-4.96879e-06
-0.00015735
-5.85289e-06
-0.000150482
-6.86792e-06
-0.0001426
-7.88195e-06
-0.000133652
-8.94896e-06
-0.000123614
-1.00372e-05
-0.000112517
-1.10977e-05
-0.000100321
-1.21955e-05
-8.70038e-05
-1.33175e-05
-7.26264e-05
-1.43774e-05
-5.72686e-05
-1.53578e-05
-4.0956e-05
-1.63126e-05
-2.38072e-05
-1.71488e-05
-5.88544e-06
-1.79219e-05
1.26281e-05
-1.85136e-05
3.16079e-05
-1.89799e-05
5.0868e-05
-1.92602e-05
7.01981e-05
-1.93301e-05
8.93836e-05
-1.91856e-05
0.000108194
-1.88103e-05
0.000126326
-1.81324e-05
0.000143576
-1.72503e-05
0.000159683
-1.61068e-05
0.000174382
-1.46993e-05
0.000187517
-1.31348e-05
0.000198735
-1.12181e-05
0.000207874
-9.13911e-06
0.000214852
-6.97752e-06
0.000219475
-4.62276e-06
0.00022178
-2.30554e-06
0.000221604
1.76425e-07
0.000218941
2.66207e-06
0.000213859
5.08201e-06
0.000206494
7.36582e-06
0.000196954
9.53935e-06
0.000185464
1.14906e-05
0.000172222
1.32416e-05
0.000157453
1.47685e-05
0.000141464
1.59897e-05
0.000124558
1.69053e-05
0.000106785
1.77733e-05
8.86961e-05
1.80889e-05
7.05028e-05
1.81933e-05
5.22888e-05
1.8214e-05
3.43644e-05
1.79244e-05
1.68858e-05
1.74786e-05
-1.85576e-08
1.69044e-05
-1.61843e-05
1.61657e-05
-3.15183e-05
1.5334e-05
-4.59565e-05
1.44382e-05
-5.94291e-05
1.34726e-05
-7.19504e-05
1.25213e-05
-8.34745e-05
1.15241e-05
-9.40188e-05
1.05443e-05
-0.000103623
9.60443e-06
-0.000112294
8.67051e-06
-0.000120047
7.75299e-06
-0.000126936
6.88882e-06
-0.000132983
6.04713e-06
-0.000138214
5.23142e-06
-0.000142658
4.44351e-06
-0.000146352
3.69438e-06
-0.000149323
2.9714e-06
-0.000151614
2.29026e-06
-0.000153247
1.63357e-06
-0.000154247
1.00007e-06
-0.000154621
3.73623e-07
-0.00015428
-3.41324e-07
-0.00015326
-1.01968e-06
-0.00015157
-1.68957e-06
-0.000149245
-2.32502e-06
-0.000146293
-2.95201e-06
-0.000142653
-3.64016e-06
-0.000138376
-4.27709e-06
-0.000133462
-4.91364e-06
-0.000127822
-5.64038e-06
-0.000121528
-6.29425e-06
-0.000114475
-7.05325e-06
-0.000106715
-7.76002e-06
-9.83406e-05
-8.37398e-06
-8.91849e-05
-9.15574e-06
-7.93837e-05
-9.80126e-06
-6.89485e-05
-1.04352e-05
-5.77447e-05
-1.12039e-05
-4.59329e-05
-1.18118e-05
-3.33934e-05
-1.25395e-05
-2.03448e-05
-1.30486e-05
-6.85238e-06
-1.34925e-05
7.20427e-06
-1.40567e-05
2.17272e-05
-1.4523e-05
3.6543e-05
-1.48158e-05
5.16806e-05
-1.51376e-05
6.69062e-05
-1.52256e-05
8.22016e-05
-1.52955e-05
9.73456e-05
-1.51441e-05
0.000112109
-1.47634e-05
0.00012645
-1.43408e-05
0.000140108
-1.36587e-05
-1.30151e-05
0.000102888
3.48835e-05
8.51406e-05
3.54886e-05
6.69207e-05
3.64317e-05
4.83759e-05
3.70813e-05
2.98893e-05
3.69648e-05
1.14883e-05
3.67941e-05
-6.526e-06
3.60237e-05
-2.40308e-05
3.50048e-05
-4.08214e-05
3.3576e-05
-5.67665e-05
3.18855e-05
-7.18469e-05
3.01563e-05
-8.59646e-05
2.82313e-05
-9.90782e-05
2.62212e-05
-0.000111204
2.42423e-05
-0.000122308
2.2207e-05
-0.000132434
2.02581e-05
-0.000141594
1.83213e-05
-0.000149815
1.64407e-05
-0.000157138
1.4642e-05
-0.000163573
1.28651e-05
-0.00016914
1.11264e-05
-0.000173911
9.54762e-06
-0.000177914
8.00963e-06
-0.00018116
6.49519e-06
-0.000183669
5.0176e-06
-0.00018546
3.58142e-06
-0.000186562
2.2086e-06
-0.000187005
8.86307e-07
-0.000186653
-7.05155e-07
-0.000185547
-2.21149e-06
-0.000183724
-3.63987e-06
-0.000181064
-5.3251e-06
-0.000177659
-6.8144e-06
-0.000173383
-8.55277e-06
-0.000168312
-1.01433e-05
-0.000162449
-1.17291e-05
-0.000155587
-1.37283e-05
-0.00014784
-1.54983e-05
-0.000139263
-1.71509e-05
-0.000129525
-1.94758e-05
-0.000118838
-2.13746e-05
-0.000106956
-2.376e-05
-9.40457e-05
-2.58187e-05
-8.02971e-05
-2.74933e-05
-6.54726e-05
-2.96448e-05
-4.96914e-05
-3.15554e-05
-3.3126e-05
-3.31354e-05
-1.55849e-05
-3.50803e-05
2.57897e-06
-3.63091e-05
2.11349e-05
-3.70957e-05
4.00771e-05
-3.78754e-05
5.91213e-05
-3.80766e-05
7.81806e-05
-3.81051e-05
9.70742e-05
-3.77713e-05
0.000115362
-3.65643e-05
0.000132965
-3.51934e-05
0.00014965
-3.33453e-05
0.00016497
-3.06222e-05
0.000178859
-2.77615e-05
0.000191044
-2.43621e-05
0.000201412
-2.07272e-05
0.000209816
-1.68086e-05
0.00021599
-1.23466e-05
0.000219962
-7.91573e-06
0.000221542
-3.16277e-06
0.000220719
1.63676e-06
0.000217459
6.51723e-06
0.000211808
1.12985e-05
0.000203874
1.58518e-05
0.000193829
2.00845e-05
0.000181852
2.39387e-05
0.000168039
2.76135e-05
0.000152656
3.07474e-05
0.000136086
3.31243e-05
0.000118501
3.51569e-05
0.000100098
3.67788e-05
8.12388e-05
3.77027e-05
6.19856e-05
3.84894e-05
4.2896e-05
3.81623e-05
2.39434e-05
3.7866e-05
5.29564e-06
3.73109e-05
-1.25489e-05
3.56529e-05
-2.97865e-05
3.44939e-05
-4.63515e-05
3.31145e-05
-6.1893e-05
3.10742e-05
-7.65197e-05
2.92516e-05
-9.02167e-05
2.73992e-05
-0.00010288
2.53345e-05
-0.000114595
2.34247e-05
-0.000125335
2.1489e-05
-0.000135151
1.96274e-05
-0.000144109
1.79117e-05
-0.000152145
1.60646e-05
-0.000159191
1.40982e-05
-0.000165474
1.25637e-05
-0.00017068
1.04223e-05
-0.000175202
9.04559e-06
-0.000179122
7.82485e-06
-0.000182026
5.81818e-06
-0.000184136
4.22156e-06
-0.000185748
3.22133e-06
-0.000186295
1.10391e-06
-0.000186089
-4.03141e-07
-0.00018495
-2.29063e-06
-0.000182967
-3.93916e-06
-0.000180206
-5.52329e-06
-0.000176657
-7.09952e-06
-0.00017218
-8.94644e-06
-0.000166981
-1.03971e-05
-0.000160907
-1.21511e-05
-0.000153942
-1.39243e-05
-0.000146027
-1.58232e-05
-0.000137196
-1.76619e-05
-0.000127434
-1.95216e-05
-0.000116686
-2.14949e-05
-0.000104925
-2.35191e-05
-9.21706e-05
-2.55034e-05
-7.84501e-05
-2.74345e-05
-6.38215e-05
-2.92503e-05
-4.83578e-05
-3.09234e-05
-3.21255e-05
-3.24563e-05
-1.52197e-05
-3.37924e-05
2.27811e-06
-3.49921e-05
2.02414e-05
-3.59227e-05
3.85802e-05
-3.66668e-05
5.70933e-05
-3.7015e-05
7.55727e-05
-3.69413e-05
9.38432e-05
-3.65223e-05
0.00011168
-3.56708e-05
0.000128877
-3.4384e-05
0.00014519
-3.26142e-05
0.000160416
-3.04419e-05
0.000174281
-2.77226e-05
0.000186676
-2.47842e-05
0.000197301
-2.12353e-05
0.000206009
-1.74017e-05
0.000212567
-1.31204e-05
0.000216874
-8.61501e-06
0.00021885
-3.95376e-06
0.000218486
7.18308e-07
0.000215789
5.37936e-06
0.000210658
1.02621e-05
0.000203213
1.48823e-05
0.000193627
1.91617e-05
0.000182033
2.31721e-05
0.000168577
2.68942e-05
0.000153753
2.96257e-05
0.000137642
3.22044e-05
0.000120269
3.47329e-05
0.000102231
3.60539e-05
8.34313e-05
3.75757e-05
6.46282e-05
3.75941e-05
4.56434e-05
3.79575e-05
2.67439e-05
3.77875e-05
8.50247e-06
3.64749e-05
-9.27334e-06
3.55417e-05
-2.63891e-05
3.42211e-05
-4.26041e-05
3.2425e-05
-5.80752e-05
3.09337e-05
-7.25127e-05
2.88739e-05
-8.60484e-05
2.70756e-05
-9.86609e-05
2.524e-05
-0.000110282
2.3229e-05
-0.000120993
2.14121e-05
-0.00013087
1.97529e-05
-0.000139883
1.80278e-05
-0.000148209
1.66581e-05
-0.000155744
1.50717e-05
-0.000162415
1.33453e-05
-0.000168435
1.20372e-05
-0.000173801
1.07323e-05
-0.000178211
8.83162e-06
-0.000181903
7.38898e-06
-0.000185018
6.22402e-06
-0.000187092
4.14104e-06
-0.000188546
2.91573e-06
-0.000188902
7.14139e-07
-0.000188254
-1.29026e-06
-0.000186863
-2.7758e-06
-0.000184577
-4.56651e-06
-0.00018117
-6.81391e-06
-0.000176977
-8.38137e-06
-0.000171839
-1.02756e-05
-0.0001658
-1.20782e-05
-0.000158721
-1.41529e-05
-0.000150584
-1.62662e-05
-0.000141596
-1.79801e-05
-0.000131695
-1.97813e-05
-0.000120906
-2.15796e-05
-0.000109268
-2.32749e-05
-9.67926e-05
-2.49465e-05
-8.34981e-05
-2.65849e-05
-6.94282e-05
-2.81355e-05
-5.47229e-05
-2.94033e-05
-3.92866e-05
-3.08655e-05
-2.32692e-05
-3.20333e-05
-6.67609e-06
-3.31723e-05
1.0412e-05
-3.41684e-05
2.78585e-05
-3.48844e-05
4.55393e-05
-3.53556e-05
6.33707e-05
-3.56528e-05
8.11847e-05
-3.56172e-05
9.88088e-05
-3.52349e-05
0.000116086
-3.45382e-05
0.000132787
-3.33827e-05
0.000148703
-3.182e-05
0.000163599
-2.97937e-05
0.000177238
-2.7263e-05
0.000189377
-2.42628e-05
0.000199768
-2.07843e-05
0.000208235
-1.6932e-05
0.000214548
-1.26276e-05
0.000218622
-8.13552e-06
0.000220337
-3.42275e-06
0.00021953
1.59638e-06
0.000216134
6.78562e-06
0.000210271
1.17199e-05
0.000202024
1.64833e-05
0.000191448
2.11392e-05
0.000178833
2.52125e-05
0.000164281
2.90859e-05
0.000148182
3.21838e-05
0.000130677
3.49836e-05
0.000112127
3.70755e-05
9.30939e-05
3.80455e-05
7.3703e-05
3.87675e-05
5.40232e-05
3.93405e-05
3.4599e-05
3.88296e-05
1.53944e-05
3.84001e-05
-2.93065e-06
3.66429e-05
-2.0639e-05
3.54236e-05
-3.75158e-05
3.37343e-05
-5.32135e-05
3.13914e-05
-6.78163e-05
2.91994e-05
-8.1379e-05
2.71223e-05
-9.38011e-05
2.48462e-05
-0.000105131
2.26615e-05
-0.000115423
2.05873e-05
-0.000124795
1.87417e-05
-0.000133344
1.70906e-05
-0.000141017
1.53474e-05
-0.000147852
1.36798e-05
-0.000154084
1.24673e-05
-0.000159727
1.12949e-05
-0.000164459
9.46972e-06
-0.000168688
8.44715e-06
-0.000172053
6.74331e-06
-0.000174869
5.63275e-06
-0.000177345
4.94738e-06
-0.000179095
3.49559e-06
-0.000180127
2.06528e-06
-0.000180611
9.77272e-07
-0.000180434
-3.45403e-07
-0.000179759
-1.34585e-06
-0.000177972
-3.58051e-06
-0.000175464
-5.00645e-06
-0.000172326
-6.27069e-06
-0.00016821
-8.22722e-06
-0.000163238
-9.94056e-06
-0.000157402
-1.16897e-05
-0.000150531
-1.37384e-05
-0.000142625
-1.57882e-05
-0.000133676
-1.7898e-05
-0.000123646
-2.00673e-05
-0.000112551
-2.21925e-05
-0.000100353
-2.43935e-05
-8.70311e-05
-2.66397e-05
-7.26531e-05
-2.87555e-05
-5.72837e-05
-3.07274e-05
-4.0964e-05
-3.26324e-05
-2.38079e-05
-3.4305e-05
-5.87978e-06
-3.58501e-05
1.26486e-05
-3.70422e-05
3.16374e-05
-3.79688e-05
5.09116e-05
-3.85345e-05
7.02566e-05
-3.86752e-05
8.94514e-05
-3.83805e-05
0.000108269
-3.76285e-05
0.00012641
-3.62735e-05
0.00014368
-3.45196e-05
0.000159795
-3.22227e-05
0.000174509
-2.94133e-05
0.000187657
-2.62827e-05
0.000198883
-2.24446e-05
0.000208023
-1.82793e-05
0.000215014
-1.39678e-05
0.000219644
-9.25359e-06
0.00022195
-4.61087e-06
0.000221766
3.59637e-07
0.000219097
5.33104e-06
0.000214011
1.0168e-05
0.000206644
1.47324e-05
0.00019709
1.90935e-05
0.000185584
2.29969e-05
0.000172329
2.64963e-05
0.000157546
2.95518e-05
0.000141538
3.1997e-05
0.000124618
3.38257e-05
0.000106832
3.55595e-05
8.87299e-05
3.61907e-05
7.05252e-05
3.63979e-05
5.22997e-05
3.64395e-05
3.43649e-05
3.58593e-05
1.68766e-05
3.49668e-05
-3.78439e-08
3.38188e-05
-1.62133e-05
3.23411e-05
-3.1554e-05
3.06748e-05
-4.59957e-05
2.88799e-05
-5.94713e-05
2.69482e-05
-7.19958e-05
2.50458e-05
-8.35272e-05
2.30555e-05
-9.40747e-05
2.10918e-05
-0.000103675
1.92045e-05
-0.000112342
1.73373e-05
-0.000120095
1.55061e-05
-0.000126984
1.37777e-05
-0.000133031
1.20946e-05
-0.000138263
1.04631e-05
-0.000142708
8.88896e-06
-0.000146406
7.39265e-06
-0.00014939
5.95497e-06
-0.000151679
4.57935e-06
-0.000153308
3.26245e-06
-0.000154306
1.99822e-06
-0.000154675
7.42946e-07
-0.000154332
-6.85277e-07
-0.00015331
-2.04085e-06
-0.00015162
-3.3799e-06
-0.000149294
-4.65084e-06
-0.000146343
-5.9037e-06
-0.000142701
-7.28121e-06
-0.000138424
-8.55487e-06
-0.000133511
-9.82662e-06
-0.00012787
-1.12812e-05
-0.000121576
-1.25884e-05
-0.000114521
-1.41077e-05
-0.000106759
-1.55226e-05
-9.83822e-05
-1.67506e-05
-8.92261e-05
-1.83119e-05
-7.94242e-05
-1.96032e-05
-6.89866e-05
-2.08727e-05
-5.7771e-05
-2.24196e-05
-4.59653e-05
-2.36175e-05
-3.34225e-05
-2.50823e-05
-2.03689e-05
-2.61023e-05
-6.87239e-06
-2.6989e-05
7.18328e-06
-2.81124e-05
2.17124e-05
-2.90521e-05
3.65281e-05
-2.96316e-05
5.16665e-05
-3.02761e-05
6.68964e-05
-3.04556e-05
8.21977e-05
-3.05968e-05
9.73492e-05
-3.02956e-05
0.000112121
-2.95348e-05
0.00012647
-2.86906e-05
0.00014014
-2.73287e-05
-2.6038e-05
0.000102931
5.23445e-05
8.51675e-05
5.3252e-05
6.69305e-05
5.46687e-05
4.83696e-05
5.56422e-05
2.98674e-05
5.5467e-05
1.14524e-05
5.52091e-05
-6.57641e-06
5.40525e-05
-2.40934e-05
5.25217e-05
-4.0894e-05
5.03767e-05
-5.68464e-05
4.78379e-05
-7.19322e-05
4.5242e-05
-8.60536e-05
4.23527e-05
-9.91682e-05
3.93359e-05
-0.000111296
3.63696e-05
-0.000122407
3.33184e-05
-0.000132543
3.03941e-05
-0.000141706
2.74848e-05
-0.000149925
2.46591e-05
-0.000157245
2.19617e-05
-0.000163683
1.93031e-05
-0.000169256
1.67002e-05
-0.000174023
1.43145e-05
-0.000178023
1.20093e-05
-0.00018127
9.74251e-06
-0.000183783
7.52984e-06
-0.000185579
5.3778e-06
-0.000186671
3.30109e-06
-0.000187083
1.29797e-06
-0.000186715
-1.07301e-06
-0.000185608
-3.31917e-06
-0.000183778
-5.46902e-06
-0.000181123
-7.98067e-06
-0.000177721
-1.02161e-05
-0.000173449
-1.28254e-05
-0.000168381
-1.52111e-05
-0.000162521
-1.75886e-05
-0.000155665
-2.05844e-05
-0.000147926
-2.32379e-05
-0.000139344
-2.57329e-05
-0.000129608
-2.92114e-05
-0.000118924
-3.20588e-05
-0.000107038
-3.56455e-05
-9.41298e-05
-3.87274e-05
-8.03754e-05
-4.12478e-05
-6.55456e-05
-4.44746e-05
-4.97578e-05
-4.73433e-05
-3.31977e-05
-4.96955e-05
-1.56483e-05
-5.26297e-05
2.53695e-06
-5.44944e-05
2.11035e-05
-5.56624e-05
4.00625e-05
-5.68344e-05
5.91222e-05
-5.71364e-05
7.81962e-05
-5.71792e-05
9.71083e-05
-5.66835e-05
0.000115414
-5.48699e-05
0.000133037
-5.28169e-05
0.000149744
-5.00523e-05
0.000165089
-4.59676e-05
0.000179001
-4.16732e-05
0.000191205
-3.65665e-05
0.000201586
-3.11076e-05
0.00021
-2.52232e-05
0.00021617
-1.85163e-05
0.000220156
-1.19018e-05
0.000221762
-4.76864e-06
0.000220916
2.48225e-06
0.000217643
9.78988e-06
0.000211994
1.69477e-05
0.000204052
2.37939e-05
0.000193984
3.01522e-05
0.000181996
3.59271e-05
0.000168164
4.14456e-05
0.000152755
4.61564e-05
0.000136168
4.9711e-05
0.000118571
5.27544e-05
0.000100141
5.52085e-05
8.12592e-05
5.65843e-05
6.19854e-05
5.77632e-05
4.28839e-05
5.72638e-05
2.38767e-05
5.68732e-05
5.24542e-06
5.59422e-05
-1.26146e-05
5.35129e-05
-2.98581e-05
5.17374e-05
-4.64191e-05
4.96755e-05
-6.19636e-05
4.66186e-05
-7.65841e-05
4.38721e-05
-9.02797e-05
4.10948e-05
-0.00010294
3.79947e-05
-0.000114654
3.51392e-05
-0.000125395
3.22292e-05
-0.000135205
2.94379e-05
-0.000144165
2.6872e-05
-0.000152205
2.41041e-05
-0.000159252
2.1145e-05
-0.000165545
1.88567e-05
-0.000170735
1.56125e-05
-0.000175257
1.35672e-05
-0.0001792
1.17684e-05
-0.000182096
8.71369e-06
-0.000184208
6.33341e-06
-0.000185818
4.83191e-06
-0.00018637
1.65592e-06
-0.000186148
-6.25585e-07
-0.000185032
-3.40685e-06
-0.000183014
-5.95693e-06
-0.000180263
-8.2739e-06
-0.000176726
-1.06366e-05
-0.000172241
-1.34315e-05
-0.000167044
-1.55945e-05
-0.000160976
-1.82187e-05
-0.000154005
-2.08952e-05
-0.000146094
-2.37348e-05
-0.000137263
-2.64928e-05
-0.000127497
-2.9287e-05
-0.00011675
-3.22424e-05
-0.000104995
-3.52746e-05
-9.22381e-05
-3.826e-05
-7.8512e-05
-4.11606e-05
-6.3878e-05
-4.38843e-05
-4.84108e-05
-4.63907e-05
-3.21795e-05
-4.86876e-05
-1.5263e-05
-5.07091e-05
2.24869e-06
-5.25038e-05
2.02245e-05
-5.38986e-05
3.85843e-05
-5.50267e-05
5.71167e-05
-5.55475e-05
7.56089e-05
-5.54337e-05
9.38925e-05
-5.4806e-05
0.000111748
-5.35263e-05
0.000128964
-5.15997e-05
0.000145304
-4.89545e-05
0.000160545
-4.56831e-05
0.000174433
-4.16108e-05
0.000186836
-3.71866e-05
0.000197468
-3.18679e-05
0.000206204
-2.61374e-05
0.000212784
-1.9701e-05
0.000217097
-1.29279e-05
0.000219072
-5.92869e-06
0.000218676
1.1144e-06
0.000215948
8.10745e-06
0.000210835
1.53744e-05
0.000203382
2.23353e-05
0.000193786
2.8758e-05
0.000182174
3.47837e-05
0.000168701
4.03676e-05
0.000153854
4.44728e-05
0.000137723
4.83352e-05
0.00012034
5.21153e-05
0.000102264
5.41309e-05
8.34391e-05
5.64002e-05
6.46312e-05
5.64019e-05
4.56245e-05
5.69642e-05
2.67112e-05
5.67008e-05
8.46159e-06
5.47245e-05
-9.32572e-06
5.33291e-05
-2.6449e-05
5.13444e-05
-4.26696e-05
4.86456e-05
-5.81548e-05
4.6419e-05
-7.25877e-05
4.33068e-05
-8.61066e-05
4.05945e-05
-9.87019e-05
3.78353e-05
-0.000110342
3.4869e-05
-0.000121054
3.2124e-05
-0.000130924
2.9623e-05
-0.000139937
2.70411e-05
-0.000148275
2.49955e-05
-0.000155806
2.26032e-05
-0.000162469
2.00079e-05
-0.000168493
1.80615e-05
-0.000173866
1.61053e-05
-0.000178274
1.32396e-05
-0.000181967
1.10824e-05
-0.000185072
9.32905e-06
-0.000187151
6.21965e-06
-0.000188623
4.3882e-06
-0.000188982
1.07235e-06
-0.000188333
-1.93888e-06
-0.000186955
-4.15387e-06
-0.000184637
-6.88487e-06
-0.000181235
-1.02156e-05
-0.000177048
-1.25682e-05
-0.000171908
-1.54155e-05
-0.000165868
-1.81185e-05
-0.000158792
-2.12289e-05
-0.000150642
-2.44163e-05
-0.000141668
-2.69543e-05
-0.000131759
-2.96904e-05
-0.000120966
-3.23727e-05
-0.000109325
-3.49158e-05
-9.68534e-05
-3.7418e-05
-8.35569e-05
-3.98815e-05
-6.94857e-05
-4.22068e-05
-5.477e-05
-4.4119e-05
-3.93272e-05
-4.63084e-05
-2.32969e-05
-4.80637e-05
-6.69202e-06
-4.97773e-05
1.04029e-05
-5.12634e-05
2.78508e-05
-5.23324e-05
4.55427e-05
-5.30476e-05
6.33883e-05
-5.34985e-05
8.12179e-05
-5.34469e-05
9.88582e-05
-5.28753e-05
0.000116144
-5.18239e-05
0.000132856
-5.00951e-05
0.000148792
-4.77562e-05
0.000163716
-4.47172e-05
0.000177376
-4.09232e-05
0.00018954
-3.64272e-05
0.000199961
-3.1205e-05
0.000208443
-2.54139e-05
0.000214747
-1.89323e-05
0.000218831
-1.2219e-05
0.000220564
-5.15629e-06
0.000219736
2.42466e-06
0.000216325
1.01962e-05
0.000210459
1.75855e-05
0.000202204
2.47382e-05
0.000191617
3.17265e-05
0.000178983
3.78468e-05
0.000164409
4.36597e-05
0.000148287
4.83056e-05
0.000130755
5.25156e-05
0.000112178
5.56522e-05
9.31203e-05
5.71037e-05
7.37084e-05
5.81794e-05
5.40085e-05
5.90404e-05
3.45608e-05
5.82773e-05
1.53446e-05
5.76162e-05
-2.98853e-06
5.49761e-05
-2.0687e-05
5.31221e-05
-3.75865e-05
5.06337e-05
-5.32906e-05
4.70956e-05
-6.79016e-05
4.38103e-05
-8.14629e-05
4.06837e-05
-9.38758e-05
3.72591e-05
-0.000105194
3.39795e-05
-0.000115478
3.0872e-05
-0.000124858
2.8121e-05
-0.000133408
2.56409e-05
-0.000141071
2.301e-05
-0.000147891
2.05005e-05
-0.000154126
1.87017e-05
-0.000159763
1.69324e-05
-0.000164492
1.41988e-05
-0.00016874
1.26952e-05
-0.00017209
1.00925e-05
-0.00017491
8.45277e-06
-0.000177395
7.43279e-06
-0.000179156
5.25694e-06
-0.000180189
3.09815e-06
-0.00018069
1.47803e-06
-0.000180502
-5.33452e-07
-0.0001798
-2.04773e-06
-0.000178019
-5.36143e-06
-0.000175525
-7.50047e-06
-0.000172389
-9.40691e-06
-0.000168271
-1.23452e-05
-0.000163298
-1.49133e-05
-0.000157478
-1.75102e-05
-0.00015062
-2.05959e-05
-0.000142706
-2.37023e-05
-0.000133758
-2.68464e-05
-0.000123728
-3.0097e-05
-0.000112631
-3.32895e-05
-0.000100441
-3.65837e-05
-8.71158e-05
-3.99651e-05
-7.27287e-05
-4.31426e-05
-5.73559e-05
-4.61002e-05
-4.10283e-05
-4.89602e-05
-2.38615e-05
-5.14719e-05
-5.92778e-06
-5.37839e-05
1.26218e-05
-5.55919e-05
3.16323e-05
-5.69793e-05
5.09206e-05
-5.7823e-05
7.02925e-05
-5.80471e-05
8.95037e-05
-5.75918e-05
0.000108343
-5.64679e-05
0.000126508
-5.44385e-05
0.000143788
-5.18003e-05
0.000159919
-4.83529e-05
0.000174652
-4.41473e-05
0.000187823
-3.94531e-05
0.000199064
-3.36864e-05
0.000208216
-2.74305e-05
0.000215207
-2.09591e-05
0.000219842
-1.38889e-05
0.000222174
-6.94259e-06
0.000221969
5.64373e-07
0.000219282
8.01738e-06
0.000214198
1.52522e-05
0.000206828
2.21025e-05
0.000197258
2.86632e-05
0.000185728
3.45265e-05
0.000172451
3.97735e-05
0.000157646
4.43569e-05
0.000141612
4.80313e-05
0.000124657
5.07806e-05
0.000106867
5.33489e-05
8.87492e-05
5.43089e-05
7.05224e-05
5.46246e-05
5.22802e-05
5.46816e-05
3.43308e-05
5.38087e-05
1.68293e-05
5.24682e-05
-9.93576e-08
5.07475e-05
-1.62845e-05
4.85263e-05
-3.16317e-05
4.6022e-05
-4.60763e-05
4.33245e-05
-5.95583e-05
4.04302e-05
-7.20863e-05
3.75738e-05
-8.3616e-05
3.45852e-05
-9.41618e-05
3.16376e-05
-0.000103765
2.88073e-05
-0.000112434
2.60071e-05
-0.000120187
2.32589e-05
-0.000127073
2.06634e-05
-0.000133116
1.81374e-05
-0.000138348
1.56957e-05
-0.000142803
1.33435e-05
-0.000146508
1.10984e-05
-0.000149505
8.95152e-06
-0.0001518
6.87462e-06
-0.00015342
4.88209e-06
-0.000154402
2.97999e-06
-0.000154745
1.08631e-06
-0.000154387
-1.04303e-06
-0.000153364
-3.0645e-06
-0.000151672
-5.0714e-06
-0.000149346
-6.97722e-06
-0.000146394
-8.85566e-06
-0.000142753
-1.0922e-05
-0.000138476
-1.28317e-05
-0.000133565
-1.47382e-05
-0.000127924
-1.6922e-05
-0.00012163
-1.88825e-05
-0.000114576
-2.11612e-05
-0.000106815
-2.32842e-05
-9.84373e-05
-2.51279e-05
-8.92839e-05
-2.74654e-05
-7.94795e-05
-2.94075e-05
-6.90354e-05
-3.13169e-05
-5.78262e-05
-3.36288e-05
-4.60156e-05
-3.54282e-05
-3.34663e-05
-3.76315e-05
-2.04061e-05
-3.91626e-05
-6.90422e-06
-4.04909e-05
7.1578e-06
-4.21745e-05
2.16903e-05
-4.35846e-05
3.65088e-05
-4.44502e-05
5.1653e-05
-4.54203e-05
6.68884e-05
-4.56911e-05
8.21956e-05
-4.5904e-05
9.73544e-05
-4.54544e-05
0.000112135
-4.43154e-05
0.000126501
-4.3057e-05
0.000140196
-4.10231e-05
-3.90844e-05
0.000102995
6.98297e-05
8.52077e-05
7.10391e-05
6.69452e-05
7.29312e-05
4.83601e-05
7.42274e-05
2.98344e-05
7.39926e-05
1.13984e-05
7.36451e-05
-6.65154e-06
7.21025e-05
-2.41862e-05
7.00564e-05
-4.10029e-05
6.71934e-05
-5.69688e-05
6.38038e-05
-7.20662e-05
6.03394e-05
-8.6197e-05
5.64835e-05
-9.93168e-05
5.24557e-05
-0.000111446
4.84991e-05
-0.000122559
4.44309e-05
-0.000132694
4.05295e-05
-0.000141858
3.66482e-05
-0.00015008
3.28814e-05
-0.000157409
2.92906e-05
-0.000163855
2.57497e-05
-0.000169431
2.22755e-05
-0.0001742
1.90842e-05
-0.000178199
1.6008e-05
-0.000181444
1.29872e-05
-0.000183954
1.00399e-05
-0.000185747
7.17132e-06
-0.000186822
4.37605e-06
-0.000187195
1.6706e-06
-0.000186807
-1.46066e-06
-0.000185698
-4.42827e-06
-0.000183861
-7.30633e-06
-0.000181211
-1.06303e-05
-0.000177815
-1.36123e-05
-0.000173547
-1.70935e-05
-0.000168484
-2.02743e-05
-0.00016263
-2.34427e-05
-0.000155783
-2.74311e-05
-0.000148057
-3.0964e-05
-0.000139466
-3.43245e-05
-0.000129733
-3.8944e-05
-0.000119053
-4.27387e-05
-0.000107161
-4.75383e-05
-9.42578e-05
-5.16302e-05
-8.04933e-05
-5.50123e-05
-6.56559e-05
-5.93121e-05
-4.98579e-05
-6.31413e-05
-3.33056e-05
-6.62479e-05
-1.5748e-05
-7.01874e-05
2.47218e-06
-7.27147e-05
2.10559e-05
-7.42462e-05
4.0042e-05
-7.58206e-05
5.91239e-05
-7.62183e-05
7.82213e-05
-7.62767e-05
9.71625e-05
-7.56248e-05
0.000115492
-7.31991e-05
0.000133143
-7.04679e-05
0.000149868
-6.67776e-05
0.000165268
-6.13676e-05
0.00017921
-5.56158e-05
0.000191439
-4.87951e-05
0.000201845
-4.15135e-05
0.00021028
-3.36589e-05
0.000216449
-2.46853e-05
0.000220446
-1.58981e-05
0.000222069
-6.39186e-06
0.000221206
3.3452e-06
0.000217923
1.30722e-05
0.000212269
2.26015e-05
0.000204319
3.17439e-05
0.000194217
4.02547e-05
0.000182207
4.79372e-05
0.000168347
5.53049e-05
0.000152906
6.15981e-05
0.000136292
6.63248e-05
0.000118669
7.03775e-05
0.000100205
7.36717e-05
8.12905e-05
7.54993e-05
6.19825e-05
7.70712e-05
4.28677e-05
7.63786e-05
2.38163e-05
7.59246e-05
5.16544e-06
7.45931e-05
-1.2719e-05
7.13974e-05
-2.99737e-05
6.89921e-05
-4.65189e-05
6.62207e-05
-6.20729e-05
6.21727e-05
-7.66869e-05
5.84861e-05
-9.03831e-05
5.4791e-05
-0.000103046
5.06576e-05
-0.000114772
4.68648e-05
-0.000125506
4.29636e-05
-0.000135282
3.9214e-05
-0.000144255
3.58452e-05
-0.000152311
3.21598e-05
-0.00015935
2.81846e-05
-0.000165661
2.5167e-05
-0.000170812
2.0764e-05
-0.000175339
1.80945e-05
-0.00017933
1.57594e-05
-0.000182202
1.15855e-05
-0.000184322
8.45277e-06
-0.000185919
6.42982e-06
-0.000186481