/*--------------------------------*- C++ -*----------------------------------*\
| =========                 |                                                 |
| \\      /  F ield         | OpenFOAM: The Open Source CFD Toolbox           |
|  \\    /   O peration     | Version:  3.0.1                                 |
|   \\  /    A nd           | Web:      www.OpenFOAM.org                      |
|    \\/     M anipulation  |                                                 |
\*---------------------------------------------------------------------------*/
FoamFile
{
    version     2.0;
    format      ascii;
    class       volVectorField;
    location    "96";
    object      U;
}
// * * * * * * * * * * * * * * * * * * * * * * * * * * * * * * * * * * * * * //

dimensions      [0 1 -1 0 0 0 0];

internalField   nonuniform List<vector> 
21420
(
(-0.141848 0.00100314 0)
(-0.150215 0.000898998 0)
(-0.158813 0.000803956 0)
(-0.16644 0.000710904 0)
(-0.173138 0.000618094 0)
(-0.178936 0.000531401 0)
(-0.183868 0.000446129 0)
(-0.187965 0.000365399 0)
(-0.191254 0.000286909 0)
(-0.193762 0.000209902 0)
(-0.195521 0.00013396 0)
(-0.196496 6.19162e-05 0)
(-0.19676 -1.02366e-05 0)
(-0.196278 -8.39429e-05 0)
(-0.195061 -0.000158301 0)
(-0.193097 -0.000232827 0)
(-0.190373 -0.000308314 0)
(-0.186877 -0.000386403 0)
(-0.182591 -0.000465361 0)
(-0.177493 -0.000546232 0)
(-0.171557 -0.000632273 0)
(-0.164758 -0.000718028 0)
(-0.157067 -0.000805909 0)
(-0.148451 -0.000902742 0)
(-0.138884 -0.00099539 0)
(-0.12834 -0.00109961 0)
(-0.116803 -0.00119495 0)
(-0.104261 -0.00128932 0)
(-0.090707 -0.00139953 0)
(-0.0761575 -0.00148916 0)
(-0.0606413 -0.00157299 0)
(-0.0442129 -0.0016767 0)
(-0.0269752 -0.00174113 0)
(-0.00901873 -0.00182821 0)
(0.00953712 -0.00186775 0)
(0.0285111 -0.00188784 0)
(0.0477382 -0.00192562 0)
(0.0670285 -0.00190744 0)
(0.086128 -0.00186331 0)
(0.104788 -0.00182748 0)
(0.122762 -0.00173561 0)
(0.139785 -0.00164128 0)
(0.155598 -0.0015003 0)
(0.169941 -0.0013353 0)
(0.182566 -0.00115839 0)
(0.193266 -0.000954595 0)
(0.201865 -0.000732917 0)
(0.2082 -0.000502584 0)
(0.212153 -0.000258974 0)
(0.213626 -1.26569e-05 0)
(0.212696 0.000223957 0)
(0.209134 0.000475702 0)
(0.203192 0.000694809 0)
(0.19501 0.000914681 0)
(0.18467 0.00112821 0)
(0.172354 0.00129528 0)
(0.158289 0.00146134 0)
(0.142702 0.00160887 0)
(0.125853 0.00170534 0)
(0.107992 0.0017987 0)
(0.0894024 0.00184679 0)
(0.0703076 0.00188905 0)
(0.0509774 0.00190579 0)
(0.0315381 0.00188704 0)
(0.0125031 0.00186603 0)
(-0.00569056 0.00182783 0)
(-0.0234901 0.00176446 0)
(-0.0408905 0.00169587 0)
(-0.0575808 0.00161033 0)
(-0.0734717 0.00152816 0)
(-0.088419 0.00143047 0)
(-0.102428 0.00133239 0)
(-0.115507 0.0012383 0)
(-0.127477 0.00112974 0)
(-0.138403 0.00102785 0)
(-0.148353 0.000929214 0)
(-0.157273 0.000822082 0)
(-0.165169 0.000727239 0)
(-0.172011 0.000624056 0)
(-0.177902 0.000522336 0)
(-0.182791 0.000426743 0)
(-0.186602 0.000321745 0)
(-0.189444 0.000219327 0)
(-0.191153 0.000117762 0)
(-0.191823 2.15447e-05 0)
(-0.191584 -8.45793e-05 0)
(-0.190396 -0.000168321 0)
(-0.188281 -0.0002403 0)
(-0.185483 -0.000310594 0)
(-0.182089 -0.000370157 0)
(-0.178073 -0.000427605 0)
(-0.173508 -0.000481188 0)
(-0.168371 -0.000540874 0)
(-0.162659 -0.000599507 0)
(-0.156309 -0.000663595 0)
(-0.149256 -0.00073477 0)
(-0.141489 -0.000806403 0)
(-0.132961 -0.000882653 0)
(-0.12364 -0.000963551 0)
(-0.113503 -0.00104831 0)
(-0.102498 -0.00113081 0)
(-0.0906402 -0.00121598 0)
(-0.0779426 -0.00130157 0)
(-0.064407 -0.00138084 0)
(-0.0500762 -0.00145729 0)
(-0.0349903 -0.00153472 0)
(-0.0192365 -0.00160116 0)
(-0.00281336 -0.00165037 0)
(0.0141733 -0.00169911 0)
(0.0314876 -0.00173323 0)
(0.04907 -0.00174929 0)
(0.06676 -0.00175624 0)
(0.0843877 -0.00174163 0)
(0.101762 -0.00170276 0)
(0.118663 -0.0016434 0)
(0.134861 -0.00156007 0)
(0.150129 -0.00146083 0)
(0.164229 -0.00133321 0)
(0.176912 -0.00118228 0)
(0.187939 -0.00100084 0)
(0.197084 -0.000806039 0)
(0.204149 -0.000588989 0)
(0.208963 -0.000363418 0)
(0.211387 -0.000124003 0)
(0.211418 0.000120006 0)
(0.20889 0.000371298 0)
(0.203818 0.000618344 0)
(0.196422 0.000848622 0)
(0.186742 0.00106599 0)
(0.174953 0.00126904 0)
(0.161277 0.00144224 0)
(0.145924 0.0015994 0)
(0.129171 0.00172218 0)
(0.11131 0.0018196 0)
(0.0926036 0.00189298 0)
(0.0733181 0.00193182 0)
(0.0537607 0.00194086 0)
(0.0342142 0.00193401 0)
(0.0148679 0.00190575 0)
(-0.00404791 0.00184857 0)
(-0.0223064 0.00177619 0)
(-0.0397672 0.00169272 0)
(-0.0563013 0.00159437 0)
(-0.0718227 0.00148688 0)
(-0.0862662 0.00138083 0)
(-0.0995741 0.00126306 0)
(-0.111731 0.00114954 0)
(-0.122762 0.00104023 0)
(-0.132709 0.000934015 0)
(-0.141597 0.000829373 0)
(-0.14945 0.000732526 0)
(-0.156356 0.000642497 0)
(-0.162362 0.000553272 0)
(-0.167488 0.000467077 0)
(-0.171801 0.000393897 0)
(-0.175361 0.000314687 0)
(-0.178178 0.000243699 0)
(-0.180288 0.000175858 0)
(-0.181727 0.000111566 0)
(-0.182511 5.05368e-05 0)
(-0.18273 -1.68962e-05 0)
(-0.182316 -5.91476e-05 0)
(-0.181347 -0.000127384 0)
(-0.179803 -0.000173467 0)
(-0.177649 -0.000241356 0)
(-0.17496 -0.000304639 0)
(-0.171608 -0.000353549 0)
(-0.16764 -0.000426131 0)
(-0.163043 -0.000487301 0)
(-0.15778 -0.00056298 0)
(-0.151774 -0.000626119 0)
(-0.145 -0.000701035 0)
(-0.137509 -0.000784957 0)
(-0.129209 -0.000858927 0)
(-0.120122 -0.000944494 0)
(-0.110201 -0.00102152 0)
(-0.0994687 -0.00110569 0)
(-0.0878967 -0.00118731 0)
(-0.0755087 -0.00127341 0)
(-0.0622662 -0.00136193 0)
(-0.0481514 -0.00143641 0)
(-0.0332196 -0.0015177 0)
(-0.0175189 -0.00158458 0)
(-0.00114335 -0.00165198 0)
(0.0157614 -0.00169646 0)
(0.0330082 -0.00172214 0)
(0.0504067 -0.00172936 0)
(0.0677739 -0.00171315 0)
(0.0848888 -0.0016748 0)
(0.101514 -0.00162032 0)
(0.117471 -0.00154598 0)
(0.13251 -0.00143958 0)
(0.146364 -0.00130554 0)
(0.15878 -0.00115056 0)
(0.169512 -0.000973939 0)
(0.178364 -0.000776878 0)
(0.185141 -0.000562843 0)
(0.189679 -0.000337318 0)
(0.191872 -9.97135e-05 0)
(0.191716 0.000139425 0)
(0.189048 0.000377537 0)
(0.183972 0.000616119 0)
(0.176664 0.000832616 0)
(0.167214 0.0010359 0)
(0.155817 0.00122502 0)
(0.142675 0.00138283 0)
(0.128009 0.0015249 0)
(0.11207 0.00163682 0)
(0.0950968 0.00172848 0)
(0.0773578 0.00178556 0)
(0.05914 0.00181715 0)
(0.0407632 0.00183162 0)
(0.0224298 0.00180777 0)
(0.00439478 0.00176874 0)
(-0.013096 0.00170588 0)
(-0.0298976 0.00163229 0)
(-0.0459169 0.00155134 0)
(-0.0610642 0.00146218 0)
(-0.0753395 0.00137599 0)
(-0.0887376 0.00128292 0)
(-0.101251 0.0011951 0)
(-0.112878 0.00111227 0)
(-0.123629 0.00102604 0)
(-0.133546 0.000939284 0)
(-0.142594 0.000852446 0)
(-0.150765 0.000769565 0)
(-0.158058 0.000674393 0)
(-0.16442 0.000590234 0)
(-0.169844 0.000492191 0)
(-0.174341 0.000402074 0)
(-0.177914 0.000314319 0)
(-0.180638 0.000234609 0)
(-0.182621 0.00016398 0)
(-0.184002 0.000110201 0)
(-0.184886 5.95971e-05 0)
(-0.185316 3.2231e-05 0)
(-0.185366 -1.7367e-05 0)
(-0.185065 -6.23113e-05 0)
(-0.184237 -9.77118e-05 0)
(-0.182874 -0.000159912 0)
(-0.180921 -0.000225418 0)
(-0.178234 -0.000303042 0)
(-0.174797 -0.000373623 0)
(-0.170645 -0.0004461 0)
(-0.165811 -0.000513072 0)
(-0.160318 -0.000572668 0)
(-0.154245 -0.000625021 0)
(-0.14765 -0.000682935 0)
(-0.140488 -0.000735707 0)
(-0.132796 -0.000795102 0)
(-0.124458 -0.000856413 0)
(-0.115477 -0.000922076 0)
(-0.105802 -0.000994367 0)
(-0.0954116 -0.00106658 0)
(-0.0842726 -0.00114237 0)
(-0.0723737 -0.00121318 0)
(-0.0597592 -0.00128527 0)
(-0.0464688 -0.00135927 0)
(-0.0325132 -0.00141474 0)
(-0.017941 -0.00146602 0)
(-0.0028207 -0.00151436 0)
(0.0126988 -0.00155132 0)
(0.0284947 -0.00157412 0)
(0.0444017 -0.00157015 0)
(0.0602352 -0.00154973 0)
(0.0757468 -0.00151082 0)
(0.0907668 -0.00145439 0)
(0.105026 -0.00136482 0)
(0.118331 -0.0012555 0)
(0.130386 -0.00112892 0)
(0.141037 -0.000975595 0)
(0.150199 -0.000809595 0)
(0.157457 -0.000619029 0)
(0.16286 -0.000432639 0)
(0.16617 -0.000221697 0)
(0.167443 -2.01321e-05 0)
(0.166679 0.00018541 0)
(0.163794 0.000390404 0)
(0.159031 0.000570004 0)
(0.152462 0.000746428 0)
(0.144281 0.000908064 0)
(0.134429 0.00104184 0)
(0.123359 0.00118894 0)
(0.110967 0.00130757 0)
(0.0972836 0.00140349 0)
(0.082772 0.00149364 0)
(0.0675329 0.00155648 0)
(0.0517188 0.00158192 0)
(0.0356151 0.00160393 0)
(0.0194792 0.00158822 0)
(0.00396432 0.00156374 0)
(-0.0110999 0.001512 0)
(-0.0258318 0.00144398 0)
(-0.0399021 0.00136892 0)
(-0.0531599 0.00128324 0)
(-0.0655229 0.00118954 0)
(-0.0769592 0.00109529 0)
(-0.0874297 0.000998406 0)
(-0.0969404 0.000901523 0)
(-0.105504 0.000809121 0)
(-0.113152 0.000718788 0)
(-0.119936 0.000635019 0)
(-0.1259 0.000556149 0)
(-0.131112 0.000483893 0)
(-0.135643 0.000420333 0)
(-0.139564 0.000363166 0)
(-0.142956 0.000313533 0)
(-0.145891 0.000271254 0)
(-0.148432 0.000232773 0)
(-0.150612 0.000199176 0)
(-0.152453 0.00016586 0)
(-0.15397 0.000130856 0)
(-0.155125 9.42954e-05 0)
(-0.155851 5.36327e-05 0)
(-0.156149 5.5727e-06 0)
(-0.155918 -5.0777e-05 0)
(-0.155083 -0.000114717 0)
(-0.153578 -0.000184774 0)
(-0.151319 -0.000261954 0)
(-0.148247 -0.000346838 0)
(-0.144302 -0.000435294 0)
(-0.139426 -0.000528709 0)
(-0.133575 -0.000629688 0)
(-0.126718 -0.000728957 0)
(-0.118832 -0.000836782 0)
(-0.109907 -0.000937327 0)
(-0.0999347 -0.00103683 0)
(-0.088923 -0.00114629 0)
(-0.0769051 -0.00123916 0)
(-0.0639233 -0.0013258 0)
(-0.0500297 -0.00142424 0)
(-0.0353184 -0.00149336 0)
(-0.0198933 -0.00155006 0)
(-0.00386063 -0.0016191 0)
(0.0126364 -0.001647 0)
(0.0294356 -0.00168599 0)
(0.0463614 -0.00167899 0)
(0.0632186 -0.00165179 0)
(0.0798115 -0.00163313 0)
(0.0959373 -0.00156664 0)
(0.111385 -0.00148096 0)
(0.125955 -0.00139821 0)
(0.139459 -0.0012767 0)
(0.151722 -0.00115472 0)
(0.162588 -0.00100372 0)
(0.171919 -0.000842844 0)
(0.179603 -0.000678281 0)
(0.185555 -0.00050163 0)
(0.189714 -0.0003218 0)
(0.192052 -0.000139921 0)
(0.192542 4.17381e-05 0)
(0.191269 0.000219957 0)
(0.188157 0.000395749 0)
(0.183333 0.000563789 0)
(0.176856 0.000718754 0)
(0.168835 0.000869076 0)
(0.158193 0.00100933 0)
(-0.141888 0.00300935 0)
(-0.150253 0.00269691 0)
(-0.15885 0.00241178 0)
(-0.166477 0.00213262 0)
(-0.173173 0.00185418 0)
(-0.17897 0.00159412 0)
(-0.183901 0.00133834 0)
(-0.187996 0.00109615 0)
(-0.191285 0.000860658 0)
(-0.193792 0.000629679 0)
(-0.195549 0.000401873 0)
(-0.196526 0.000184691 0)
(-0.196789 -2.98041e-05 0)
(-0.196308 -0.000251739 0)
(-0.19509 -0.000474897 0)
(-0.193127 -0.000698425 0)
(-0.190404 -0.000924863 0)
(-0.186909 -0.00115911 0)
(-0.182624 -0.00139598 0)
(-0.177526 -0.00163859 0)
(-0.171591 -0.00189668 0)
(-0.164794 -0.00215392 0)
(-0.157104 -0.00241759 0)
(-0.14849 -0.00270809 0)
(-0.138924 -0.00298605 0)
(-0.128381 -0.00329871 0)
(-0.116844 -0.00358473 0)
(-0.104302 -0.00386796 0)
(-0.0907484 -0.00419864 0)
(-0.0761976 -0.00446762 0)
(-0.0606794 -0.00471916 0)
(-0.0442483 -0.00503043 0)
(-0.0270066 -0.005224 0)
(-0.00904591 -0.00548513 0)
(0.0095163 -0.00560384 0)
(0.028497 -0.00566422 0)
(0.0477322 -0.00577777 0)
(0.0670312 -0.00572332 0)
(0.0861398 -0.00559097 0)
(0.104811 -0.00548359 0)
(0.122795 -0.00520797 0)
(0.139829 -0.00492504 0)
(0.155652 -0.00450202 0)
(0.170005 -0.00400682 0)
(0.18264 -0.00347598 0)
(0.193349 -0.00286396 0)
(0.201955 -0.00219897 0)
(0.208296 -0.00150884 0)
(0.212253 -0.000782533 0)
(0.213735 -3.50016e-05 0)
(0.212794 0.000671741 0)
(0.209232 0.00142677 0)
(0.203291 0.00208434 0)
(0.195105 0.00274442 0)
(0.18476 0.00338524 0)
(0.172437 0.00388655 0)
(0.158364 0.00438477 0)
(0.142769 0.00482742 0)
(0.12591 0.00511685 0)
(0.108039 0.00539739 0)
(0.089439 0.00554148 0)
(0.0703336 0.00566857 0)
(0.0509917 0.00571811 0)
(0.0315433 0.00566141 0)
(0.0125014 0.00559959 0)
(-0.0057015 0.00548596 0)
(-0.0235114 0.00529462 0)
(-0.0409206 0.00508731 0)
(-0.0576141 0.00483276 0)
(-0.0735112 0.00458657 0)
(-0.0884646 0.00429459 0)
(-0.102478 0.00399822 0)
(-0.115563 0.00371157 0)
(-0.127534 0.00338689 0)
(-0.138461 0.00308621 0)
(-0.148416 0.00278752 0)
(-0.157336 0.00246256 0)
(-0.165229 0.00218451 0)
(-0.172074 0.00187741 0)
(-0.177971 0.00156638 0)
(-0.182849 0.00127951 0)
(-0.186663 0.000973668 0)
(-0.189511 0.000652589 0)
(-0.191214 0.000350915 0)
(-0.191876 6.36557e-05 0)
(-0.191633 -0.000252429 0)
(-0.190435 -0.000510249 0)
(-0.188309 -0.000725672 0)
(-0.185504 -0.000941587 0)
(-0.1821 -0.00111757 0)
(-0.178076 -0.00128703 0)
(-0.1735 -0.00144647 0)
(-0.168354 -0.0016201 0)
(-0.16264 -0.00180303 0)
(-0.156292 -0.00199869 0)
(-0.149242 -0.0022015 0)
(-0.141478 -0.00241546 0)
(-0.132959 -0.00265258 0)
(-0.123647 -0.00289344 0)
(-0.113516 -0.00314414 0)
(-0.102517 -0.00339832 0)
(-0.0906743 -0.0036575 0)
(-0.0779731 -0.0039005 0)
(-0.064442 -0.00414656 0)
(-0.0501228 -0.00438145 0)
(-0.035028 -0.0046012 0)
(-0.0192744 -0.00480776 0)
(-0.00284958 -0.00494885 0)
(0.0141352 -0.00510301 0)
(0.0314581 -0.00520329 0)
(0.0490489 -0.00526147 0)
(0.0667505 -0.00526597 0)
(0.0843874 -0.00522127 0)
(0.101769 -0.00510366 0)
(0.118672 -0.00494017 0)
(0.134878 -0.00469898 0)
(0.150162 -0.00438094 0)
(0.164267 -0.00400217 0)
(0.176953 -0.00354741 0)
(0.187983 -0.00300933 0)
(0.197131 -0.00242718 0)
(0.204198 -0.00177101 0)
(0.209011 -0.00108294 0)
(0.211429 -0.000365301 0)
(0.211444 0.000359413 0)
(0.208893 0.00112032 0)
(0.203818 0.00185846 0)
(0.196408 0.00254839 0)
(0.186703 0.00320174 0)
(0.174883 0.00380755 0)
(0.16118 0.00433177 0)
(0.145807 0.00479604 0)
(0.129036 0.00516949 0)
(0.111151 0.00545946 0)
(0.0924199 0.00566986 0)
(0.0731255 0.00579511 0)
(0.0535599 0.00583679 0)
(0.0339912 0.00581006 0)
(0.0146293 0.00571297 0)
(-0.00429839 0.00554462 0)
(-0.0225658 0.00532108 0)
(-0.0400296 0.00507638 0)
(-0.0565676 0.00477468 0)
(-0.0720862 0.00445809 0)
(-0.0865241 0.00413598 0)
(-0.0998246 0.0037861 0)
(-0.111975 0.0034472 0)
(-0.123 0.00312797 0)
(-0.132939 0.00280002 0)
(-0.141826 0.00249287 0)
(-0.149685 0.00218896 0)
(-0.156584 0.00191308 0)
(-0.162576 0.00165346 0)
(-0.167695 0.00140251 0)
(-0.172008 0.0011681 0)
(-0.175551 0.000943082 0)
(-0.178359 0.000737542 0)
(-0.180471 0.000520059 0)
(-0.181908 0.000331616 0)
(-0.182693 0.000148569 0)
(-0.182894 -4.27165e-05 0)
(-0.182485 -0.00018594 0)
(-0.181513 -0.000397538 0)
(-0.179954 -0.000520251 0)
(-0.177805 -0.000725914 0)
(-0.17511 -0.000911777 0)
(-0.171755 -0.00106427 0)
(-0.167781 -0.00126877 0)
(-0.1632 -0.0014658 0)
(-0.157932 -0.00169917 0)
(-0.15191 -0.0018725 0)
(-0.145153 -0.00212462 0)
(-0.137633 -0.00234395 0)
(-0.129349 -0.00258325 0)
(-0.120241 -0.00282982 0)
(-0.11033 -0.00306619 0)
(-0.0995897 -0.00332039 0)
(-0.0880211 -0.00356143 0)
(-0.0756341 -0.00382338 0)
(-0.0623816 -0.00409193 0)
(-0.0482566 -0.00430584 0)
(-0.0333281 -0.00455514 0)
(-0.0176376 -0.00477479 0)
(-0.00123994 -0.00495298 0)
(0.0156714 -0.00508726 0)
(0.0329246 -0.00516376 0)
(0.0503323 -0.00518564 0)
(0.0677004 -0.00514562 0)
(0.0848159 -0.00503877 0)
(0.101465 -0.00486632 0)
(0.117431 -0.00462969 0)
(0.132467 -0.00431229 0)
(0.146324 -0.00391349 0)
(0.158745 -0.00345496 0)
(0.169482 -0.0029228 0)
(0.178331 -0.00233192 0)
(0.185102 -0.00169339 0)
(0.189636 -0.00101584 0)
(0.191824 -0.000310348 0)
(0.191654 0.000417382 0)
(0.188979 0.00113995 0)
(0.183904 0.00184461 0)
(0.176586 0.00250255 0)
(0.167121 0.00311107 0)
(0.155713 0.00367828 0)
(0.142556 0.00414879 0)
(0.127874 0.00456988 0)
(0.111915 0.00491155 0)
(0.0949233 0.00517518 0)
(0.077179 0.00535627 0)
(0.058955 0.00545356 0)
(0.0405686 0.00549667 0)
(0.0222352 0.00542741 0)
(0.00419875 0.00530588 0)
(-0.0133037 0.00511541 0)
(-0.0301113 0.00489345 0)
(-0.0461285 0.00464984 0)
(-0.0612775 0.00438434 0)
(-0.0755497 0.00412185 0)
(-0.0889407 0.0038451 0)
(-0.101446 0.00358974 0)
(-0.113075 0.00333781 0)
(-0.123827 0.00306979 0)
(-0.13374 0.00281852 0)
(-0.142779 0.00254795 0)
(-0.150948 0.00230906 0)
(-0.158246 0.00202022 0)
(-0.164603 0.00177543 0)
(-0.170033 0.00147328 0)
(-0.174526 0.00120539 0)
(-0.1781 0.000935343 0)
(-0.180818 0.000697705 0)
(-0.182793 0.00049374 0)
(-0.184174 0.000324199 0)
(-0.185054 0.000178153 0)
(-0.185489 8.73387e-05 0)
(-0.185544 -5.10872e-05 0)
(-0.18523 -0.000175369 0)
(-0.18442 -0.000291321 0)
(-0.18307 -0.000487662 0)
(-0.181121 -0.000685345 0)
(-0.178421 -0.000906024 0)
(-0.174983 -0.00111979 0)
(-0.170821 -0.00134352 0)
(-0.165973 -0.00153928 0)
(-0.160477 -0.00171914 0)
(-0.154405 -0.00188606 0)
(-0.147784 -0.00204517 0)
(-0.140628 -0.00221492 0)
(-0.13292 -0.00238538 0)
(-0.124583 -0.00257205 0)
(-0.115593 -0.00277036 0)
(-0.105916 -0.00298346 0)
(-0.0955181 -0.00320009 0)
(-0.0843676 -0.00342847 0)
(-0.0724659 -0.00364476 0)
(-0.0598409 -0.00386306 0)
(-0.0465323 -0.00407724 0)
(-0.0325784 -0.0042496 0)
(-0.0179944 -0.0043957 0)
(-0.00287517 -0.00455654 0)
(0.0126657 -0.00465374 0)
(0.0284704 -0.00471294 0)
(0.0443809 -0.00471504 0)
(0.0602233 -0.00466857 0)
(0.0757645 -0.00453027 0)
(0.090797 -0.00435627 0)
(0.105064 -0.00408851 0)
(0.118379 -0.00377198 0)
(0.130451 -0.00338989 0)
(0.141113 -0.00292352 0)
(0.15028 -0.00243292 0)
(0.157547 -0.00185776 0)
(0.162955 -0.00129878 0)
(0.166273 -0.000667284 0)
(0.16755 -5.89948e-05 0)
(0.166779 0.000558259 0)
(0.163886 0.00116881 0)
(0.159123 0.00171103 0)
(0.152545 0.00223615 0)
(0.14436 0.00272451 0)
(0.134504 0.00312969 0)
(0.123426 0.00356672 0)
(0.111027 0.00392309 0)
(0.0973357 0.00421186 0)
(0.0828165 0.00448268 0)
(0.0675646 0.0046713 0)
(0.0517412 0.00474644 0)
(0.0356281 0.00481327 0)
(0.0194821 0.00476623 0)
(0.00395775 0.00469235 0)
(-0.0111145 0.00453751 0)
(-0.025853 0.00433249 0)
(-0.0399278 0.00410776 0)
(-0.0531899 0.00384946 0)
(-0.0655552 0.0035683 0)
(-0.0769933 0.00328549 0)
(-0.0874644 0.00299566 0)
(-0.0969748 0.00270547 0)
(-0.105537 0.00242719 0)
(-0.113185 0.00215652 0)
(-0.119967 0.00190511 0)
(-0.125929 0.00166792 0)
(-0.131138 0.00145162 0)
(-0.135666 0.00126089 0)
(-0.139584 0.00108944 0)
(-0.142973 0.00094081 0)
(-0.145906 0.000813185 0)
(-0.148446 0.000698357 0)
(-0.150626 0.000597656 0)
(-0.152467 0.000497597 0)
(-0.153984 0.000392866 0)
(-0.155141 0.000283369 0)
(-0.155871 0.000161067 0)
(-0.15617 1.75686e-05 0)
(-0.155942 -0.000151987 0)
(-0.155111 -0.000343799 0)
(-0.153609 -0.000553965 0)
(-0.151352 -0.000785588 0)
(-0.148283 -0.00104022 0)
(-0.14434 -0.00130571 0)
(-0.139466 -0.00158593 0)
(-0.133617 -0.00188882 0)
(-0.126761 -0.00218676 0)
(-0.118875 -0.00251013 0)
(-0.109949 -0.00281211 0)
(-0.0999769 -0.00311052 0)
(-0.0889648 -0.00343896 0)
(-0.076945 -0.00371767 0)
(-0.0639605 -0.00397763 0)
(-0.0500643 -0.00427307 0)
(-0.0353486 -0.00448053 0)
(-0.0199185 -0.00465063 0)
(-0.00388062 -0.00485789 0)
(0.0126229 -0.00494164 0)
(0.0294291 -0.00505869 0)
(0.0463624 -0.00503773 0)
(0.0632274 -0.00495617 0)
(0.079829 -0.00490024 0)
(0.0959626 -0.00470073 0)
(0.111417 -0.00444363 0)
(0.125996 -0.00419541 0)
(0.139507 -0.00383077 0)
(0.151777 -0.00346475 0)
(0.162648 -0.00301168 0)
(0.171983 -0.00252895 0)
(0.179671 -0.00203516 0)
(0.185625 -0.0015051 0)
(0.189785 -0.000965462 0)
(0.192124 -0.000419214 0)
(0.192616 0.000125024 0)
(0.191338 0.000660064 0)
(0.188224 0.0011874 0)
(0.183398 0.00169167 0)
(0.176917 0.00215665 0)
(0.168892 0.00260769 0)
(0.158245 0.00302852 0)
(-0.141968 0.00501534 0)
(-0.150331 0.00449452 0)
(-0.158926 0.00401927 0)
(-0.16655 0.00355398 0)
(-0.173244 0.00308992 0)
(-0.179038 0.00265649 0)
(-0.183966 0.00223024 0)
(-0.188059 0.00182662 0)
(-0.191346 0.00143415 0)
(-0.193851 0.00104937 0)
(-0.195606 0.000670576 0)
(-0.196584 0.000310071 0)
(-0.196849 -5.30493e-05 0)
(-0.196366 -0.000420257 0)
(-0.195149 -0.000791489 0)
(-0.193187 -0.00116383 0)
(-0.190464 -0.00154121 0)
(-0.186971 -0.00193158 0)
(-0.182688 -0.00232632 0)
(-0.177592 -0.00273066 0)
(-0.17166 -0.00316076 0)
(-0.164864 -0.00358946 0)
(-0.157176 -0.00402894 0)
(-0.148565 -0.00451313 0)
(-0.139 -0.00497645 0)
(-0.12846 -0.0054976 0)
(-0.116924 -0.00597433 0)
(-0.104381 -0.00644667 0)
(-0.0908271 -0.00699803 0)
(-0.0762732 -0.00744657 0)
(-0.0607505 -0.00786598 0)
(-0.0443137 -0.00838523 0)
(-0.0270632 -0.00870848 0)
(-0.00909345 -0.00914367 0)
(0.00948194 -0.00934186 0)
(0.0284767 -0.00944289 0)
(0.0477286 -0.00963258 0)
(0.0670456 -0.00954203 0)
(0.0861725 -0.00932158 0)
(0.104866 -0.00914284 0)
(0.122869 -0.00868347 0)
(0.139927 -0.00821197 0)
(0.15577 -0.00750681 0)
(0.17014 -0.00668136 0)
(0.182794 -0.0057966 0)
(0.193517 -0.00477628 0)
(0.202135 -0.00366831 0)
(0.208488 -0.00251495 0)
(0.212452 -0.00130452 0)
(0.213939 -5.79271e-05 0)
(0.212974 0.00111877 0)
(0.209409 0.00237815 0)
(0.203467 0.00347471 0)
(0.19527 0.00457581 0)
(0.184912 0.00564471 0)
(0.172571 0.00648044 0)
(0.158481 0.00731091 0)
(0.142866 0.00804875 0)
(0.125987 0.00853133 0)
(0.108095 0.00899894 0)
(0.0894762 0.00923907 0)
(0.070351 0.00945033 0)
(0.0509908 0.00953322 0)
(0.0315286 0.00943825 0)
(0.0124749 0.00933524 0)
(-0.00574256 0.00914576 0)
(-0.0235639 0.00882694 0)
(-0.0409833 0.00848158 0)
(-0.0576817 0.00805521 0)
(-0.0735851 0.00764613 0)
(-0.0885461 0.00715886 0)
(-0.10256 0.00666245 0)
(-0.115644 0.00618873 0)
(-0.127616 0.0056499 0)
(-0.138547 0.00514316 0)
(-0.148504 0.00464637 0)
(-0.157418 0.00410882 0)
(-0.165312 0.00364316 0)
(-0.172163 0.00312977 0)
(-0.17806 0.00261008 0)
(-0.182931 0.00213579 0)
(-0.186752 0.00161743 0)
(-0.189607 0.0010889 0)
(-0.191311 0.000587246 0)
(-0.191967 0.000100562 0)
(-0.191721 -0.000426581 0)
(-0.190506 -0.000857023 0)
(-0.188371 -0.00120315 0)
(-0.185566 -0.00156322 0)
(-0.18216 -0.00186136 0)
(-0.178135 -0.00214988 0)
(-0.173562 -0.00241827 0)
(-0.168425 -0.00270641 0)
(-0.162719 -0.00300269 0)
(-0.156384 -0.00333225 0)
(-0.149349 -0.00367408 0)
(-0.1416 -0.00402081 0)
(-0.133098 -0.00441918 0)
(-0.123805 -0.00481976 0)
(-0.113684 -0.00523649 0)
(-0.102696 -0.00566348 0)
(-0.0908524 -0.00608632 0)
(-0.0781603 -0.00650111 0)
(-0.0646446 -0.00690622 0)
(-0.0503314 -0.00729533 0)
(-0.0352396 -0.00767214 0)
(-0.0194794 -0.00801344 0)
(-0.00305709 -0.00825104 0)
(0.0139292 -0.00850572 0)
(0.0312706 -0.00867385 0)
(0.0488799 -0.00876196 0)
(0.0665931 -0.00878286 0)
(0.0842404 -0.00870997 0)
(0.101633 -0.00851828 0)
(0.118557 -0.00823192 0)
(0.134785 -0.00782513 0)
(0.150082 -0.00730628 0)
(0.164204 -0.0066673 0)
(0.176905 -0.00591554 0)
(0.187953 -0.00501616 0)
(0.197124 -0.00403559 0)
(0.204201 -0.00295247 0)
(0.209011 -0.00180902 0)
(0.211439 -0.00060801 0)
(0.211435 0.000602871 0)
(0.208859 0.00186468 0)
(0.203802 0.00309858 0)
(0.196383 0.00426229 0)
(0.186649 0.00534339 0)
(0.174797 0.0063548 0)
(0.161064 0.00722632 0)
(0.145666 0.00799699 0)
(0.12887 0.00861643 0)
(0.110961 0.0091125 0)
(0.0921976 0.00946088 0)
(0.0728773 0.00965534 0)
(0.0532878 0.00973069 0)
(0.0336944 0.00969297 0)
(0.0143247 0.00951857 0)
(-0.00460166 0.00924725 0)
(-0.0228882 0.00888186 0)
(-0.0403757 0.00845189 0)
(-0.0569148 0.00796461 0)
(-0.0724404 0.00742979 0)
(-0.0868721 0.00687774 0)
(-0.100175 0.00632754 0)
(-0.112333 0.00573799 0)
(-0.123359 0.00522724 0)
(-0.133291 0.00465614 0)
(-0.142166 0.00414583 0)
(-0.150015 0.00365515 0)
(-0.156909 0.00319461 0)
(-0.162909 0.00275811 0)
(-0.168031 0.00233469 0)
(-0.172333 0.00195051 0)
(-0.175873 0.00157513 0)
(-0.178682 0.00121863 0)
(-0.180793 0.000869505 0)
(-0.18223 0.000546018 0)
(-0.183015 0.000257059 0)
(-0.183209 -7.69186e-05 0)
(-0.182799 -0.00031033 0)
(-0.181813 -0.000650384 0)
(-0.180245 -0.000871641 0)
(-0.178112 -0.00121532 0)
(-0.175412 -0.00152358 0)
(-0.17206 -0.00176502 0)
(-0.168109 -0.00212262 0)
(-0.163526 -0.002448 0)
(-0.158237 -0.00281192 0)
(-0.15222 -0.00313686 0)
(-0.145462 -0.00352958 0)
(-0.137951 -0.00391668 0)
(-0.129657 -0.00430282 0)
(-0.120554 -0.00471896 0)
(-0.110637 -0.00511339 0)
(-0.0998925 -0.00553143 0)
(-0.0883279 -0.00594488 0)
(-0.0759317 -0.00637161 0)
(-0.0626697 -0.00680211 0)
(-0.0485478 -0.00718694 0)
(-0.0336194 -0.00760374 0)
(-0.0179108 -0.00793832 0)
(-0.001506 -0.00825848 0)
(0.0154151 -0.00848513 0)
(0.0326754 -0.0086134 0)
(0.0500953 -0.00864696 0)
(0.067486 -0.00857544 0)
(0.0846311 -0.00839497 0)
(0.101305 -0.00810753 0)
(0.117287 -0.00771995 0)
(0.132331 -0.0071949 0)
(0.146201 -0.00653146 0)
(0.158647 -0.00575854 0)
(0.169401 -0.00487433 0)
(0.178253 -0.00388786 0)
(0.185026 -0.00282098 0)
(0.189575 -0.00168547 0)
(0.191779 -0.000503523 0)
(0.191596 0.000687846 0)
(0.188911 0.00189925 0)
(0.183845 0.00308052 0)
(0.176509 0.00417973 0)
(0.167023 0.00518739 0)
(0.155596 0.00612549 0)
(0.142429 0.00692128 0)
(0.127727 0.00762931 0)
(0.111743 0.00819018 0)
(0.0947343 0.00863751 0)
(0.0769643 0.00892911 0)
(0.0587231 0.00909948 0)
(0.0403058 0.00915976 0)
(0.0219635 0.00904241 0)
(0.00391744 0.00884093 0)
(-0.0135921 0.00852943 0)
(-0.0304092 0.0081687 0)
(-0.0464406 0.00774962 0)
(-0.0615943 0.00730741 0)
(-0.0758642 0.00686854 0)
(-0.0892587 0.00641126 0)
(-0.101769 0.00597473 0)
(-0.113397 0.00556469 0)
(-0.124152 0.00512335 0)
(-0.134062 0.00469403 0)
(-0.1431 0.0042579 0)
(-0.151277 0.00383961 0)
(-0.158568 0.00337313 0)
(-0.164934 0.00295386 0)
(-0.170367 0.00245333 0)
(-0.174862 0.00201063 0)
(-0.178434 0.00155905 0)
(-0.181147 0.00116546 0)
(-0.183111 0.000822344 0)
(-0.184483 0.000542859 0)
(-0.185352 0.000306343 0)
(-0.185797 0.000144002 0)
(-0.185858 -8.30444e-05 0)
(-0.185544 -0.00028751 0)
(-0.184744 -0.000502133 0)
(-0.183397 -0.000807405 0)
(-0.181442 -0.00113781 0)
(-0.178741 -0.00151267 0)
(-0.175294 -0.00187351 0)
(-0.171125 -0.00223977 0)
(-0.166264 -0.002572 0)
(-0.160761 -0.00286225 0)
(-0.154662 -0.00314104 0)
(-0.148029 -0.00341376 0)
(-0.14086 -0.003695 0)
(-0.133147 -0.00398217 0)
(-0.124801 -0.0042769 0)
(-0.115805 -0.0046158 0)
(-0.106128 -0.00497945 0)
(-0.0957191 -0.00533352 0)
(-0.0845609 -0.0057191 0)
(-0.0726467 -0.00607775 0)
(-0.0600039 -0.00643951 0)
(-0.0466833 -0.006793 0)
(-0.0327156 -0.0070845 0)
(-0.0181288 -0.00733485 0)
(-0.00299089 -0.00759096 0)
(0.0125651 -0.00776043 0)
(0.0283827 -0.00786717 0)
(0.0443182 -0.00785751 0)
(0.0601878 -0.00777564 0)
(0.0757492 -0.00755675 0)
(0.0908042 -0.0072685 0)
(0.105093 -0.00682389 0)
(0.118431 -0.00628799 0)
(0.130535 -0.00565345 0)
(0.14121 -0.00488077 0)
(0.150395 -0.00405457 0)
(0.157675 -0.00309945 0)
(0.163095 -0.00216375 0)
(0.166424 -0.00112185 0)
(0.167705 -9.14916e-05 0)
(0.16692 0.00092997 0)
(0.164021 0.00195134 0)
(0.159255 0.00285293 0)
(0.152667 0.00373217 0)
(0.144467 0.00454064 0)
(0.134607 0.00521824 0)
(0.12352 0.0059481 0)
(0.111105 0.00654125 0)
(0.0974035 0.00702197 0)
(0.0828709 0.00747446 0)
(0.0675965 0.00778811 0)
(0.0517576 0.0079152 0)
(0.0356281 0.00802414 0)
(0.0194646 0.00794635 0)
(0.00392503 0.00782383 0)
(-0.0111623 0.00756482 0)
(-0.0259101 0.00722304 0)
(-0.0399943 0.00684713 0)
(-0.0532607 0.00641771 0)
(-0.0656301 0.00594935 0)
(-0.0770699 0.00547882 0)
(-0.0875413 0.00499361 0)
(-0.0970502 0.00450721 0)
(-0.10561 0.0040459 0)
(-0.113254 0.00359348 0)
(-0.120032 0.00317462 0)
(-0.125988 0.00277909 0)
(-0.131192 0.00241853 0)
(-0.135714 0.00210062 0)
(-0.139626 0.00181507 0)
(-0.14301 0.00156731 0)
(-0.145938 0.00135463 0)
(-0.148474 0.00116378 0)
(-0.150652 0.000996012 0)
(-0.152493 0.000829814 0)
(-0.154012 0.000655961 0)
(-0.155171 0.000473781 0)
(-0.155908 0.000269429 0)
(-0.156213 2.89689e-05 0)
(-0.15599 -0.000252732 0)
(-0.155164 -0.00057201 0)
(-0.153667 -0.000922249 0)
(-0.151416 -0.00130854 0)
(-0.148352 -0.0017329 0)
(-0.144413 -0.00217572 0)
(-0.139542 -0.00264271 0)
(-0.133696 -0.00314743 0)
(-0.126842 -0.00364438 0)
(-0.118958 -0.00418323 0)
(-0.110032 -0.00468717 0)
(-0.100058 -0.00518441 0)
(-0.0890449 -0.00573203 0)
(-0.0770212 -0.00619676 0)
(-0.0640315 -0.00663023 0)
(-0.0501298 -0.00712293 0)
(-0.0354057 -0.00746904 0)
(-0.0199657 -0.00775273 0)
(-0.00391732 -0.00809848 0)
(0.0125991 -0.00823823 0)
(0.0294191 -0.00843361 0)
(0.0463674 -0.00839877 0)
(0.0632476 -0.00826286 0)
(0.0798663 -0.00816983 0)
(0.0960155 -0.0078372 0)
(0.111485 -0.00740854 0)
(0.12608 -0.00699476 0)
(0.139604 -0.00638677 0)
(0.151889 -0.00577651 0)
(0.162769 -0.00502107 0)
(0.172112 -0.0042162 0)
(0.179808 -0.0033929 0)
(0.185766 -0.00250908 0)
(0.189929 -0.0016092 0)
(0.192268 -0.000699119 0)
(0.192766 0.000208949 0)
(0.191475 0.00110155 0)
(0.188359 0.00197933 0)
(0.183528 0.00282053 0)
(0.177038 0.00359577 0)
(0.169005 0.0043477 0)
(0.158347 0.00504929 0)
(-0.142088 0.00702096 0)
(-0.150448 0.00629166 0)
(-0.15904 0.0056262 0)
(-0.166661 0.00497474 0)
(-0.17335 0.00432505 0)
(-0.179141 0.00371828 0)
(-0.184064 0.0031216 0)
(-0.188154 0.0025566 0)
(-0.191439 0.00200726 0)
(-0.193941 0.00146891 0)
(-0.19569 0.000940723 0)
(-0.196676 0.000432404 0)
(-0.196935 -7.53528e-05 0)
(-0.196454 -0.000589745 0)
(-0.195238 -0.00110801 0)
(-0.193276 -0.00162886 0)
(-0.190555 -0.00215722 0)
(-0.187064 -0.00270366 0)
(-0.182783 -0.00325619 0)
(-0.17769 -0.00382219 0)
(-0.171762 -0.00442431 0)
(-0.16497 -0.00502444 0)
(-0.157284 -0.00563971 0)
(-0.148678 -0.00631762 0)
(-0.139115 -0.00696639 0)
(-0.128579 -0.00769618 0)
(-0.117043 -0.00836375 0)
(-0.104499 -0.0090255 0)
(-0.0909453 -0.00979783 0)
(-0.0763867 -0.0104263 0)
(-0.0608572 -0.0110138 0)
(-0.0444119 -0.0117417 0)
(-0.0271481 -0.0121954 0)
(-0.00916488 -0.012805 0)
(0.00943026 -0.0130833 0)
(0.0284461 -0.0132255 0)
(0.0477232 -0.0134918 0)
(0.0670669 -0.0133654 0)
(0.0862214 -0.0130571 0)
(0.104948 -0.0128074 0)
(0.122981 -0.0121643 0)
(0.140074 -0.0115044 0)
(0.155945 -0.010517 0)
(0.170343 -0.0093606 0)
(0.183026 -0.00812192 0)
(0.193769 -0.00669224 0)
(0.202407 -0.00513956 0)
(0.208774 -0.00352787 0)
(0.21275 -0.00183491 0)
(0.21424 -7.61703e-05 0)
(0.213236 0.00157612 0)
(0.209682 0.00332931 0)
(0.20373 0.00486665 0)
(0.195519 0.00640933 0)
(0.18514 0.00790822 0)
(0.172772 0.00907877 0)
(0.158656 0.0102416 0)
(0.143012 0.011275 0)
(0.126102 0.0119506 0)
(0.10818 0.0126055 0)
(0.089531 0.0129413 0)
(0.0703764 0.013237 0)
(0.0509881 0.013353 0)
(0.0315057 0.0132191 0)
(0.0124344 0.0130745 0)
(-0.00580479 0.0128084 0)
(-0.023644 0.0123618 0)
(-0.0410789 0.0118767 0)
(-0.0577824 0.0112805 0)
(-0.0736971 0.0107079 0)
(-0.088668 0.0100241 0)
(-0.102679 0.00932953 0)