/*--------------------------------*- C++ -*----------------------------------*\
| =========                 |                                                 |
| \\      /  F ield         | OpenFOAM: The Open Source CFD Toolbox           |
|  \\    /   O peration     | Version:  3.0.1                                 |
|   \\  /    A nd           | Web:      www.OpenFOAM.org                      |
|    \\/     M anipulation  |                                                 |
\*---------------------------------------------------------------------------*/
FoamFile
{
    version     2.0;
    format      ascii;
    class       volScalarField;
    location    "38.2";
    object      p_rgh;
}
// * * * * * * * * * * * * * * * * * * * * * * * * * * * * * * * * * * * * * //

dimensions      [1 -1 -2 0 0 0 0];

internalField   nonuniform List<scalar> 
21420
(
-30.0306
-58.6513
-87.2218
-114.901
-141.258
-166.101
-189.277
-210.728
-230.403
-248.294
-264.423
-278.813
-291.503
-302.539
-311.963
-319.82
-326.148
-330.984
-334.345
-336.222
-336.657
-335.694
-333.269
-329.385
-324.016
-317.138
-308.702
-298.666
-286.982
-273.6
-258.457
-241.516
-222.741
-202.113
-179.625
-155.281
-129.135
-101.266
-71.7636
-40.7687
-8.49012
23.9546
57.9145
92.3107
126.848
161.13
194.751
227.335
258.461
287.716
314.735
339.152
360.64
378.914
393.723
404.877
412.241
415.696
414.604
409.551
400.641
387.945
371.664
352.035
329.319
303.815
275.874
245.88
214.23
181.311
147.524
113.278
78.943
44.924
12.245
-20.1754
-51.5583
-81.6683
-110.303
-137.336
-162.653
-186.17
-207.845
-227.643
-245.542
-261.554
-275.689
-287.959
-298.404
-307.064
-313.986
-319.224
-322.838
-324.863
-325.345
-324.398
-322.03
-318.276
-313.151
-306.671
-298.837
-289.637
-279.047
-267.043
-253.598
-238.684
-222.275
-204.357
-184.919
-163.963
-141.508
-117.59
-92.2628
-65.6029
-37.7098
-8.70741
21.258
52.0125
83.3123
114.934
146.614
178.062
208.96
238.968
267.733
294.885
320.054
342.877
363.005
380.114
393.914
404.161
410.663
413.226
411.893
406.575
397.35
384.315
367.664
347.631
324.509
298.633
270.378
240.148
208.369
175.477
141.914
108.108
74.4701
41.3909
9.19883
-21.8004
-51.3569
-79.2766
-105.417
-129.685
-152.031
-172.445
-190.943
-207.569
-222.382
-235.454
-246.862
-256.689
-265.023
-271.943
-277.53
-281.848
-284.976
-286.957
-287.818
-287.622
-286.388
-284.123
-280.84
-276.535
-271.202
-264.818
-257.362
-248.806
-239.111
-228.239
-216.148
-202.796
-188.136
-172.12
-154.705
-135.843
-115.498
-93.6526
-70.3054
-45.4873
-19.2665
8.23998
36.8243
67.1169
97.4743
128.447
159.689
190.869
221.635
251.609
280.398
307.597
332.807
355.638
375.728
392.745
406.402
416.457
422.728
425.041
423.42
417.83
408.382
395.19
378.492
358.565
335.738
310.38
282.897
253.708
223.244
191.931
160.177
128.364
96.8389
65.9103
35.8412
6.84444
-20.9027
-47.2673
-72.1524
-95.4935
-117.252
-137.416
-155.989
-172.994
-188.467
-202.451
-214.997
-226.156
-235.986
-244.542
-251.874
-258.028
-263.044
-266.951
-269.771
-271.514
-272.164
-271.694
-270.12
-267.391
-263.471
-258.317
-251.881
-244.113
-234.964
-224.392
-212.352
-198.806
-183.723
-167.084
-148.872
-129.085
-107.746
-84.8806
-60.5369
-34.7891
-7.73247
20.522
49.9456
81.6183
112.68
144.015
175.442
206.687
237.402
267.247
295.831
322.774
347.682
370.168
389.882
406.489
419.69
429.248
434.959
436.692
434.301
427.939
417.565
403.304
385.405
364.159
339.91
313.041
283.992
253.211
221.155
188.273
154.988
121.714
88.8152
56.6004
25.4385
-3.49563
-31.7705
-58.6936
-84.0852
-107.868
-130.018
-150.536
-169.452
-186.814
-202.674
-217.084
-230.086
-241.717
-251.997
-260.932
-268.514
-274.723
-279.526
-282.888
-284.737
-284.999
-283.518
-280.337
-275.414
-268.698
-260.155
-249.768
-237.507
-223.379
-207.386
-189.558
-169.944
-148.61
-125.641
-101.151
-75.2822
-48.1819
-20.0377
8.92973
38.6111
68.7293
99.0223
129.233
159.023
188.101
216.106
242.733
267.718
290.687
311.274
-30.0915
-58.7202
-87.296
-114.979
-141.338
-166.182
-189.358
-210.808
-230.481
-248.369
-264.496
-278.884
-291.571
-302.604
-312.026
-319.881
-326.207
-331.042
-334.402
-336.277
-336.716
-335.752
-333.327
-329.444
-324.076
-317.2
-308.767
-298.733
-287.052
-273.673
-258.533
-241.595
-222.822
-202.196
-179.708
-155.364
-129.218
-101.347
-71.8414
-40.8421
-8.55898
23.9046
57.8724
92.28
126.831
161.128
194.766
227.368
258.512
287.785
314.821
339.254
360.756
379.043
393.862
405.023
412.393
415.857
414.754
409.697
400.782
388.079
371.786
352.144
329.412
303.89
275.932
245.921
214.253
181.316
147.514
113.253
78.905
44.8744
12.1825
-20.245
-51.6343
-81.7492
-110.388
-137.423
-162.741
-186.26
-207.935
-227.733
-245.63
-261.641
-275.775
-288.043
-298.487
-307.145
-314.064
-319.3
-322.912
-324.933
-325.416
-324.467
-322.098
-318.342
-313.217
-306.738
-298.906
-289.706
-279.118
-267.115
-253.673
-238.76
-222.353
-204.436
-184.999
-164.044
-141.589
-117.67
-92.3408
-65.6784
-37.7818
-8.77483
21.1965
51.958
83.2666
114.898
146.59
178.05
208.962
238.986
267.767
294.935
320.121
342.961
363.104
380.227
394.039
404.295
410.804
413.376
412.033
406.715
397.484
384.44
367.776
347.729
324.591
298.697
270.423
240.174
208.376
175.466
141.886
108.064
74.4121
41.3205
9.11845
-21.8886
-51.4508
-79.374
-105.516
-129.784
-152.129
-172.54
-191.035
-207.658
-222.467
-235.536
-246.939
-256.763
-265.093
-272.01
-277.594
-281.909
-285.035
-287.014
-287.872
-287.677
-286.442
-284.177
-280.894
-276.589
-271.257
-264.874
-257.419
-248.865
-239.172
-228.302
-216.213
-202.864
-188.206
-172.193
-154.78
-135.921
-115.577
-93.733
-70.3859
-45.5666
-19.3428
8.17037
36.7753
67.0382
97.419
128.405
159.659
190.854
221.635
251.626
280.432
307.648
332.876
355.724
375.829
392.861
406.53
416.594
422.872
425.193
423.563
417.97
408.515
395.313
378.601
358.658
335.813
310.437
282.935
253.729
223.247
191.917
160.148
128.322
96.7856
65.8479
35.7717
6.76956
-20.9813
-47.3481
-72.2344
-95.5754
-117.333
-137.496
-156.067
-173.07
-188.54
-202.521
-215.065
-226.221
-236.049
-244.602
-251.932
-258.084
-263.099
-267.006
-269.825
-271.568
-272.216
-271.749
-270.177
-267.45
-263.531
-258.379
-251.945
-244.179
-235.033
-224.463
-212.425
-198.881
-183.799
-167.161
-148.95
-129.164
-107.825
-84.958
-60.6124
-34.8617
-7.80202
20.4547
49.8743
81.5791
112.639
143.983
175.421
206.679
237.409
267.27
295.87
322.831
347.757
370.26
389.99
406.612
419.826
429.394
435.113
436.849
434.468
428.089
417.71
403.44
385.528
364.265
339.997
313.108
284.039
253.238
221.164
188.264
154.963
121.676
88.7652
56.5416
25.3753
-3.56748
-31.8457
-58.7702
-84.162
-107.944
-130.092
-150.607
-169.52
-186.879
-202.735
-217.143
-230.144
-241.772
-252.052
-260.987
-268.569
-274.779
-279.583
-282.948
-284.799
-285.062
-283.584
-280.405
-275.484
-268.771
-260.229
-249.843
-237.583
-223.456
-207.464
-189.636
-170.02
-148.684
-125.713
-101.219
-75.3461
-48.2405
-20.09
8.88294
38.5728
68.7004
99.0042
129.226
159.029
188.121
216.14
242.78
267.778
290.761
311.36
-30.2136
-58.8578
-87.4447
-115.136
-141.499
-166.344
-189.52
-210.967
-230.636
-248.52
-264.642
-279.025
-291.707
-302.735
-312.152
-320.003
-326.326
-331.157
-334.516
-336.389
-336.832
-335.866
-333.442
-329.561
-324.196
-317.324
-308.896
-298.867
-287.192
-273.819
-258.684
-241.752
-222.983
-202.361
-179.876
-155.532
-129.384
-101.509
-71.9966
-40.9885
-8.69564
23.8041
57.7882
92.2186
126.797
161.126
194.798
227.434
258.615
287.923
314.993
339.458
360.99
379.301
394.14
405.317
412.697
416.179
415.051
409.991
401.066
388.347
372.031
352.361
329.599
304.043
276.049
246.003
214.3
181.329
147.495
113.205
78.8324
44.7799
12.0623
-20.3783
-51.7792
-81.9031
-110.548
-137.588
-162.907
-186.426
-208.1
-227.895
-245.79
-261.798
-275.928
-288.192
-298.631
-307.285
-314.199
-319.431
-323.037
-325.049
-325.533
-324.58
-322.209
-318.451
-313.326
-306.848
-299.017
-289.82
-279.235
-267.236
-253.797
-238.888
-222.485
-204.57
-185.135
-164.181
-141.726
-117.806
-92.4737
-65.8064
-37.9031
-8.88701
21.096
51.8715
83.1974
114.849
146.563
178.049
208.989
239.043
267.856
295.057
320.277
343.149
363.323
380.474
394.309
404.584
411.105
413.697
412.334
407.015
397.771
384.709
368.02
347.944
324.773
298.843
270.533
240.246
208.41
175.465
141.851
107.998
74.318
41.202
8.98052
-22.0419
-51.615
-79.5449
-105.69
-129.958
-152.3
-172.707
-191.195
-207.811
-222.613
-235.673
-247.068
-256.885
-265.207
-272.117
-277.695
-282.005
-285.127
-287.1
-287.957
-287.761
-286.524
-284.258
-280.976
-276.673
-271.341
-264.96
-257.509
-248.958
-239.269
-228.404
-216.319
-202.975
-188.323
-172.315
-154.907
-136.052
-115.713
-93.8707
-70.5242
-45.7029
-19.4732
8.05271
36.7003
66.901
97.33
128.341
159.621
190.843
221.655
251.678
280.519
307.77
333.033
355.915
376.052
393.111
406.804
416.886
423.176
425.514
423.864
418.268
408.798
395.575
378.836
358.861
335.981
310.569
283.029
253.786
223.269
191.906
160.108
128.255
96.6972
65.7415
35.6514
6.63882
-21.1192
-47.4904
-72.3785
-95.7194
-117.476
-137.635
-156.203
-173.201
-188.666
-202.642
-215.18
-226.33
-236.153
-244.702
-252.027
-258.176
-263.188
-267.093
-269.912
-271.655
-272.3
-271.838
-270.269
-267.544
-263.629
-258.482
-252.052
-244.29
-235.149
-224.583
-212.55
-199.01
-183.932
-167.296
-149.087
-129.303
-107.963
-85.0947
-60.7458
-34.9903
-7.92511
20.3352
49.746
81.5136
112.571
143.931
175.389
206.674
237.431
267.324
295.956
322.951
347.911
370.448
390.21
406.862
420.101
429.689
435.422
437.166
434.801
428.392
418.004
403.714
385.773
364.477
340.171
313.243
284.134
253.294
221.181
188.247
154.914
121.599
88.665
56.4238
25.2493
-3.71121
-31.996
-58.9235
-84.3157
-108.096
-130.239
-150.749
-169.656
-187.009
-202.859
-217.261
-230.258
-241.884
-252.162
-261.096
-268.679
-274.891
-279.698
-283.066
-284.923
-285.189
-283.718
-280.542
-275.624
-268.915
-260.377
-249.995
-237.737
-223.612
-207.62
-189.791
-170.173
-148.834
-125.857
-101.356
-75.4737
-48.3577
-20.1951
8.7898
38.4962
68.6426
98.968
129.214
159.042
188.16
216.207
242.874
267.899
290.909
311.532
-30.3968
-59.0645
-87.6677
-115.37
-141.74
-166.588
-189.762
-211.205
-230.869
-248.746
-264.861
-279.236
-291.91
-302.931
-312.341
-320.186
-326.504
-331.33
-334.686
-336.557
-337.008
-336.038
-333.614
-329.737
-324.377
-317.511
-309.089
-299.069
-287.403
-274.037
-258.912
-241.987
-223.226
-202.608
-180.126
-155.783
-129.633
-101.752
-72.2297
-41.2083
-8.90047
23.6525
57.6617
92.1264
126.747
161.122
194.844
227.534
258.769
288.13
315.252
339.765
361.34
379.689
394.559
405.758
413.153
416.655
415.504
410.436
401.493
388.749
372.399
352.687
329.879
304.273
276.226
246.127
214.37
181.348
147.467
113.134
78.7236
44.6379
11.8823
-20.5782
-51.9966
-82.1337
-110.788
-137.833
-163.156
-186.675
-208.347
-228.139
-246.03
-262.032
-276.156
-288.414
-298.846
-307.493
-314.4
-319.624
-323.222
-325.223
-325.707
-324.748
-322.373
-318.613
-313.487
-307.011
-299.182
-289.989
-279.409
-267.415
-253.982
-239.078
-222.68
-204.769
-185.337
-164.385
-141.93
-118.007
-92.6705
-65.9959
-38.0822
-9.0526
20.948
51.7448
83.0966
114.777
146.526
178.05
209.032
239.131
267.992
295.243
320.513
343.435
363.655
380.847
394.718
405.021
411.56
414.175
412.793
407.471
398.206
385.116
368.39
348.27
325.049
299.067
270.701
240.358
208.466
175.467
141.801
107.901
74.1796
41.0272
8.77631
-22.2691
-51.8586
-79.7986
-105.948
-130.216
-152.554
-172.954
-191.433
-208.038
-222.828
-235.876
-247.26
-257.065
-265.376
-272.276
-277.845
-282.147
-285.261
-287.226
-288.083
-287.884
-286.645
-284.379
-281.096
-276.795
-271.465
-265.088
-257.642
-249.097
-239.413
-228.554
-216.477
-203.139
-188.495
-172.495
-155.095
-136.247
-115.914
-94.0753
-70.7296
-45.9051
-19.6668
7.87714
36.5775
66.7097
97.2
128.248
159.566
190.83
221.687
251.76
280.652
307.956
333.271
356.204
376.388
393.49
407.218
417.328
423.634
425.994
424.324
418.72
409.226
395.97
379.19
359.168
336.236
310.769
283.173
253.874
223.304
191.893
160.049
128.158
96.5668
65.584
35.4729
6.44467
-21.3242
-47.7018
-72.5929
-95.9335
-117.687
-137.842
-156.404
-173.396
-188.853
-202.821
-215.35
-226.493
-236.308
-244.849
-252.168
-258.311
-263.319
-267.222
-270.04
-271.784
-272.426
-271.971
-270.405
-267.685
-263.775
-258.634
-252.211
-244.456
-235.322
-224.762
-212.735
-199.201
-184.128
-167.497
-149.29
-129.508
-108.169
-85.2982
-60.9447
-35.1821
-8.10843
20.1576
49.554
81.416
112.468
143.852
175.342
206.665
237.465
267.404
296.085
323.131
348.142
370.731
390.54
407.236
420.513
430.133
435.887
437.642
435.294
428.853
418.445
404.125
386.142
364.795
340.434
313.446
284.276
253.376
221.207
188.22
154.841
121.483
88.5147
56.2464
25.0603
-3.92701
-32.2216
-59.1537
-84.5463
-108.323
-130.46
-150.962
-169.86
-187.203
-203.044
-217.439
-230.429
-242.051
-252.326
-261.26
-268.844
-275.059
-279.871
-283.243
-285.106
-285.382
-283.919
-280.746
-275.834
-269.131
-260.599
-250.222
-237.968
-223.844
-207.854
-190.024
-170.402
-149.057
-126.072
-101.561
-75.6653
-48.5336
-20.3531
8.65022
38.3811
68.5558
98.9134
129.195
159.062
188.22
216.307
243.015
268.081
291.13
311.79
-30.6413
-59.3403
-87.9654
-115.683
-142.062
-166.913
-190.085
-211.524
-231.18
-249.049
-265.153
-279.517
-292.181
-303.192
-312.593
-320.43
-326.741
-331.56
-334.912
-336.784
-337.239
-336.267
-333.844
-329.971
-324.617
-317.759
-309.347
-299.337
-287.683
-274.328
-259.215
-242.301
-223.549
-202.938
-180.461
-156.119
-129.965
-102.076
-72.5406
-41.5015
-9.17352
23.4494
57.4923
92.0029
126.679
161.117
194.906
227.666
258.973
288.406
315.596
340.173
361.807
380.206
395.117
406.346
413.761
417.272
416.121
411.034
402.064
389.286
372.889
353.122
330.252
304.578
276.461
246.291
214.464
181.374
147.429
113.039
78.5779
44.4479
11.6421
-20.845
-52.287
-82.4416
-111.109
-138.162
-163.488
-187.007
-208.677
-228.464
-246.349
-262.344
-276.46
-288.709
-299.132
-307.77
-314.668
-319.882
-323.467
-325.458
-325.938
-324.972
-322.591
-318.828
-313.701
-307.228
-299.402
-290.214
-279.64
-267.653
-254.227
-239.331
-222.939
-205.034
-185.606
-164.657
-142.201
-118.275
-92.9326
-66.2482
-38.321
-9.27325
20.7506
51.5764
82.9624
114.683
146.476
178.051
209.089
239.25
268.175
295.492
320.829
343.816
364.098
381.347
395.265
405.604
412.168
414.804
413.415
408.08
398.788
385.66
368.884
348.706
325.418
299.365
270.925
240.506
208.54
175.469
141.736
107.773
73.9949
40.7941
8.50391
-22.5722
-52.1835
-80.137
-106.293
-130.56
-152.893
-173.283
-191.75
-208.34
-223.115
-236.147
-247.515
-257.305
-265.601
-272.487
-278.044
-282.336
-285.44
-287.396
-288.251
-288.048
-286.806
-284.539
-281.257
-276.958
-271.631
-265.259
-257.82
-249.281
-239.605
-228.755
-216.687
-203.359
-188.725
-172.736
-155.345
-136.506
-116.182
-94.3482
-71.0036
-46.1748
-19.9252
7.64105
36.3921
66.4757
97.0287
128.125
159.493
190.812
221.73
251.869
280.829
308.205
333.59
356.59
376.837
393.995
407.77
417.917
424.246
426.621
424.948
419.326
409.798
396.499
379.665
359.578
336.576
311.035
283.365
253.992
223.352
191.874
159.972
128.028
96.3926
65.3738
35.2347
6.18563
-21.5975
-47.9837
-72.8787
-96.2191
-117.97
-138.118
-156.673
-173.656
-189.103
-203.059
-215.577
-226.709
-236.514
-245.045
-252.355
-258.491
-263.494
-267.394
-270.209
-271.953
-272.597
-272.147
-270.586
-267.872
-263.97
-258.838
-252.422
-244.676
-235.552
-225.001
-212.983
-199.456
-184.39
-167.764
-149.562
-129.783
-108.444
-85.5696
-61.21
-35.438
-8.35266
19.9218
49.2975
81.2846
112.331
143.745
175.278
206.653
237.51
267.51
296.257
323.371
348.45
371.107
390.98
407.735
421.063
430.724
436.508
438.277
435.942
429.477
419.035
404.674
386.634
365.219
340.783
313.715
284.464
253.486
221.242
188.185
154.742
121.329
88.3138
56.0088
24.8086
-4.21522
-32.5228
-59.4608
-84.854
-108.626
-130.756
-151.246
-170.131
-187.462
-203.291
-217.675
-230.657
-242.273
-252.545
-261.478
-269.064
-275.283
-280.1
-283.478
-285.349
-285.641
-284.185
-281.018
-276.115
-269.42
-260.896
-250.524
-238.275
-224.155
-208.166
-190.334
-170.709
-149.356
-126.36
-101.834
-75.9209
-48.7684
-20.5642
8.46412
38.2275
68.4398
98.8404
129.169
159.088
188.299
216.441
243.203
268.322
291.425
312.134
-30.9475
-59.6856
-88.3381
-116.075
-142.464
-167.319
-190.49
-211.922
-231.57
-249.427
-265.518
-279.869
-292.52
-303.518
-312.908
-320.735
-327.037
-331.849
-335.194
-337.069
-337.527
-336.552
-334.131
-330.263
-324.918
-318.07
-309.67
-299.673
-288.033
-274.693
-259.593
-242.694
-223.953
-203.351
-180.879
-156.538
-130.38
-102.482
-72.9298
-41.8683
-9.51455
23.1936
57.2795
91.8477
126.594
161.11
194.983
227.832
259.229
288.751
316.027
340.685
362.391
380.853
395.815
407.082
414.52
418.033
416.893
411.786
402.779
389.957
373.502
353.667
330.72
304.96
276.755
246.497
214.58
181.405
147.38
112.919
78.3951
44.2093
11.3415
-21.1792
-52.6506
-82.8271
-111.51
-138.572
-163.903
-187.423
-209.09
-228.871
-246.749
-262.735
-276.84
-289.079
-299.491
-308.117
-315.003
-320.204
-323.775
-325.753
-326.226
-325.251
-322.864
-319.097
-313.97
-307.498
-299.678
-290.495
-279.929
-267.952
-254.535
-239.647
-223.264
-205.366
-185.943
-164.996
-142.541
-118.611
-93.2607
-66.5642
-38.6199
-9.54966
20.5029
51.3657
82.7943
114.564
146.414
178.053
209.161
239.397
268.402
295.804
321.224
344.294
364.653
381.971
395.949
406.335
412.93
415.583
414.2
408.843
399.517
386.34
369.503
349.25
325.88
299.738
271.205
240.692
208.632
175.471
141.653
107.611
73.7632
40.5019
8.16245
-22.9521
-52.5906
-80.5607
-106.724
-130.991
-153.317
-173.695
-192.146
-208.719
-223.474
-236.486
-247.834
-257.605
-265.882
-272.752
-278.292
-282.572
-285.663
-287.611
-288.46
-288.252
-287.007
-284.739
-281.459
-277.162
-271.839
-265.473
-258.041
-249.511
-239.846
-229.006
-216.949
-203.634
-189.013
-173.037
-155.659
-136.832
-116.517
-94.6899
-71.3468
-46.5126
-20.2493
7.34276
36.1405
66.2011
96.8163
127.971
159.401
190.789
221.784
252.004
281.051
308.515
333.988
357.073
377.398
394.627
408.462
418.655
425.013
427.401
425.732
420.086
410.515
397.161
380.258
360.091
337.001
311.369
283.605
254.139
223.41
191.85
159.873
127.865
96.1739
65.1104
34.9362
5.86105
-21.9398
-48.3367
-73.2365
-96.5766
-118.323
-138.464
-157.009
-173.98
-189.415
-203.357
-215.861
-226.98
-236.772
-245.29
-252.59
-258.717
-263.713
-267.608
-270.422
-272.164
-272.811
-272.367
-270.813
-268.106
-264.214
-259.092
-252.687
-244.953
-235.84
-225.3
-213.292
-199.775
-184.718
-168.099
-149.902
-130.127
-108.787
-85.9093
-61.5423
-35.7585
-8.65782
19.6286
48.9764
81.1186
112.157
143.61
175.199
206.638
237.566
267.643
296.471
323.67
348.835
371.577
391.531
408.359
421.752
431.463
437.285
439.072
436.743
430.263
419.777
405.361
387.249
365.75
341.22
314.052
284.7
253.623
221.284
188.14
154.617
121.135
88.0621
55.7114
24.4927
-4.57629
-32.8999
-59.8452
-85.239
-109.006
-131.125
-151.602
-170.471
-187.786
-203.6
-217.971
-230.942
-242.551
-252.819
-261.751
-269.339
-275.562
-280.387
-283.772
-285.654
-285.963
-284.517
-281.358
-276.465
-269.78
-261.266
-250.903
-238.66
-224.543
-208.556
-190.723
-171.092
-149.73
-126.72
-102.176
-76.2408
-49.0624
-20.8286
8.23147
38.0351
68.2943
98.7487
129.137
159.12
188.398
216.609
243.438
268.625
291.793
312.565
-31.3157
-60.1007
-88.7859
-116.546
-142.948
-167.807
-190.976
-212.4
-232.037
-249.88
-265.956
-280.291
-292.926
-303.91
-313.286
-321.101
-327.393
-332.195
-335.533
-337.41
-337.871
-336.893
-334.475
-330.614
-325.278
-318.442
-310.056
-300.075
-288.453
-275.13
-260.048
-243.165
-224.437
-203.846
-181.382
-157.042
-130.88
-102.969
-73.3976
-42.3089
-9.92319
22.8841
57.0227
91.6603
126.49
161.101
195.074
228.029
259.536
289.165
316.544
341.298
363.092
381.63
396.653
407.966
415.433
418.953
417.818
412.688
403.64
390.764
374.239
354.32
331.28
305.419
277.108
246.743
214.719
181.441
147.322
112.775
78.1746
43.9215
10.9807
-21.5809
-53.0879
-83.2906
-111.992
-139.066
-164.402
-187.922
-209.586
-229.36
-247.229
-263.205
-277.297
-289.524
-299.922
-308.534
-315.405
-320.589
-324.143
-326.108
-326.572
-325.586
-323.191
-319.42
-314.292
-307.823
-300.008
-290.833
-280.276
-268.31
-254.904
-240.027
-223.654
-205.764
-186.348
-165.404
-142.949
-119.015
-93.655
-66.944
-38.9793
-9.88227
20.2045
51.1123
82.5918
114.421
146.339
178.053
209.246
239.574
268.675
296.177
321.698
344.866
365.319
382.721
396.771
407.213
413.845
416.518
415.142
409.761
400.393
387.158
370.246
349.905
326.435
300.186
271.541
240.915
208.743
175.473
141.552
107.416
73.4839
40.1499
7.75134
-23.4093
-53.0803
-81.0704
-107.243
-131.509
-153.826
-174.19
-192.623
-209.173
-223.906
-236.893
-248.217
-257.965
-266.22
-273.07
-278.591
-282.854
-285.931
-287.869
-288.711
-288.497
-287.249
-284.98
-281.701
-277.406
-272.088
-265.73
-258.307
-249.788
-240.134
-229.307
-217.264
-203.963
-189.358
-173.398
-156.036
-137.223
-116.92
-95.1005
-71.7593
-46.9189
-20.6396
6.98135
35.8241
65.8835
96.5627
127.785
159.29
190.761
221.847
252.166
281.317
308.887
334.465
357.652
378.073
395.386
409.292
419.541
425.935
428.338
426.673
420.997
411.376
397.956
380.97
360.707
337.511
311.768
283.892
254.315
223.48
191.821
159.755
127.668
95.9103
64.7931
34.5769
5.47052
-22.3514
-48.7609
-73.6665
-97.0061
-118.747
-138.88
-157.412
-174.37
-189.789
-203.716
-216.202
-227.305
-237.081
-245.585
-252.872
-258.988
-263.976
-267.866
-270.676
-272.416
-273.069
-272.632
-271.084
-268.388
-264.507
-259.397
-253.005
-245.285
-236.186
-225.66
-213.664
-200.159
-185.112
-168.501
-150.31
-130.539
-109.2
-86.3176
-61.942
-36.1437
-9.0238
19.2792
48.5924
80.9156
111.945
143.446
175.102
206.619
237.632
267.801
296.728
324.029
349.297
372.142
392.191
409.109
422.578
432.351
438.218
440.028
437.701
431.207
420.669
406.186
387.988
366.387
341.745
314.455
284.982
253.787
221.335
188.085
154.467
120.902
87.7591
55.3542
24.1116
-5.01072
-33.353
-60.3072
-85.7016
-109.462
-131.568
-152.028
-170.879
-188.174
-203.97
-218.325
-231.284
-242.884
-253.147
-262.079
-269.669
-275.898
-280.731
-284.126
-286.022
-286.349
-284.914
-281.767
-276.885
-270.213
-261.71
-251.357
-239.122
-225.01
-209.024
-191.189
-171.552
-150.179
-127.152
-102.586
-76.6251
-49.4157
-21.147
7.95221
37.8036
68.119
98.638
129.098
159.158
188.517
216.809
243.72
268.987
292.235
313.082
-31.7463
-60.5859
-89.3094
-117.097
-143.513
-168.377
-191.543
-212.959
-232.583
-250.41
-266.468
-280.784
-293.4
-304.367
-313.727
-321.528
-327.807
-332.6
-335.929
-337.806
-338.27
-337.291
-334.877
-331.024
-325.698
-318.877
-310.507
-300.545
-288.943
-275.641
-260.579
-243.715
-225.004
-204.425
-181.969
-157.631
-131.463
-103.538
-73.9442
-42.8236
-10.3992
22.5194
56.721
91.4399
126.368
161.089
195.18
228.26
259.893
289.647
317.147
342.015
363.911
382.537
397.632
408.999
416.499
420.029
418.897
413.742
404.646
391.706
375.099
355.084
331.935
305.954
277.519
247.029
214.88
181.482
147.252
112.604
77.9157
43.5836
10.5594
-22.0508
-53.5991
-83.8325
-112.555
-139.643
-164.985
-188.505
-210.165
-229.93
-247.789
-263.753
-277.831
-290.042
-300.425
-309.021
-315.874
-321.04
-324.573
-326.524
-326.975
-325.977
-323.573
-319.796
-314.668
-308.202
-300.393
-291.227
-280.682
-268.727
-255.334
-240.471
-224.109
-206.23
-186.821
-165.881
-143.425
-119.486
-94.1159
-67.3881
-39.3997
-10.2715
19.8546
50.8161
82.3545
114.253
146.249
178.053
209.344
239.778
268.993
296.611
322.251
345.534
366.096
383.597
397.731
408.239
414.916
417.611
416.241
410.832
401.416
388.112
371.113
350.668
327.082
300.708
271.933
241.174
208.87
175.474
141.433
107.187
73.1564
39.7376
7.26985
-23.9446
-53.6533
-81.6665
-107.85
-132.114
-154.421
-174.768
-193.179
-209.704
-224.409
-237.368
-248.665
-258.385
-266.614
-273.441
-278.94
-283.184
-286.245
-288.17
-289.004
-288.783
-287.531
-285.261
-281.983
-277.691
-272.378
-266.029
-258.618
-250.111
-240.471
-229.659
-217.632
-204.348
-189.761
-173.82
-156.475
-137.68
-117.391
-95.5805
-72.2416
-47.3943
-21.0968
6.55611
35.4452
65.5196
96.2677
127.568
159.159
190.726
221.919
252.354
281.626
309.32
335.022
358.328
378.86
396.272
410.262
420.576
427.013
429.435
427.769
422.061
412.383
398.885
381.801
361.426
338.106
312.234
284.226
254.519
223.559
191.785
159.614
127.436
95.6012
64.4214
34.1562
5.01362
-22.8328
-49.2567
-74.1689
-97.508
-119.243
-139.365
-157.884
-174.825
-190.226
-204.134
-216.601
-227.684
-237.442
-245.929
-253.201
-259.304
-264.282
-268.166
-270.973
-272.712
-273.37
-272.94
-271.401
-268.716
-264.848
-259.752
-253.376
-245.672
-236.589
-226.079
-214.098
-200.607
-185.572
-168.971
-150.788
-131.02
-109.681
-86.7948
-62.4093
-36.5938
-9.45061
18.8751
48.1511
80.6694
111.692
143.252
174.989
206.594
237.709
267.983
297.027
324.446
349.836
372.8
392.962
409.983
423.543
433.389
439.308
441.146
438.822
432.308
421.712
407.151
388.851
367.13
342.355
314.925
285.311
253.977
221.392
188.019
154.291
120.628
87.4044
54.9371
23.6641
-5.5191
-33.8827
-60.8471
-86.2422
-109.994
-132.086
-152.526
-171.354
-188.627
-204.402
-218.738
-231.683
-243.272
-253.53
-262.46
-270.054
-276.289
-281.131
-284.538
-286.45
-286.799
-285.377
-282.242
-277.376
-270.719
-262.229
-251.888
-239.661
-225.554
-209.571
-191.734
-172.09
-150.704
-127.658
-103.066
-77.0741
-49.8286
-21.5195
7.62609
37.5327
67.9134
98.508
129.052
159.201
188.655
217.043
244.048
269.409
292.75
313.686
-32.2398
-61.1418
-89.909
-117.727
-144.16
-169.03
-192.192
-213.598
-233.207
-251.015
-267.053
-281.348
-293.942
-304.888
-314.231
-322.015
-328.281
-333.062
-336.383
-338.259
-338.724
-337.744
-335.335
-331.491
-326.178
-319.373
-311.023
-301.082
-289.503
-276.226
-261.187
-244.344
-225.651
-205.086
-182.64
-158.305
-132.131
-104.19
-74.5701
-43.4127
-10.9426
22.0984
56.3735
91.1859
126.227
161.074
195.3
228.522
260.301
290.199
317.836
342.834
364.847
383.575
398.753
410.181
417.719
421.262
420.131
414.947
405.798
392.784
376.083
355.957
332.683
306.565
277.989
247.355
215.063
181.528
147.171
112.408
77.6176
43.1947
10.0778
-22.5892
-54.1848
-84.4532
-113.2
-140.303
-165.652
-189.172
-210.828
-230.583
-248.43
-264.38
-278.441
-290.635
-301.001
-309.577
-316.411
-321.554
-325.066
-327
-327.435
-326.423
-324.009
-320.227
-315.098
-308.635
-300.833
-291.677
-281.145
-269.205
-255.827
-240.978
-224.63
-206.762
-187.362
-166.427
-143.971
-120.026
-94.6437
-67.8966
-39.8813
-10.7177
19.4531
50.4764
82.082
114.059
146.146
178.051
209.455
240.011
269.355
297.107
322.882
346.298
366.985
384.599
398.83
409.413
416.142
418.864
417.497
412.059
402.588
389.205
372.106
351.542
327.823
301.305
272.38
241.468
209.015
175.474
141.295
106.923
72.78
39.2641
6.71714
-24.5585
-54.3104
-82.3497
-108.544
-132.807
-155.103
-175.43
-193.815
-210.311
-224.985
-237.912
-249.176
-258.866
-267.065
-273.864
-279.338
-283.561
-286.603
-288.514
-289.337
-289.109
-287.854
-285.582
-282.305
-278.017
-272.711
-266.372
-258.973
-250.48
-240.856
-230.061
-218.053
-204.788
-190.221
-174.302
-156.978
-138.202
-117.93
-96.13
-72.7941
-47.9392
-21.6213
6.06641
35.0045
65.1076
95.9309
127.318
159.008
190.685
222
252.567
281.978
309.815
335.658
359.101
379.76
397.286
411.373
421.761
428.247
430.692
429.024
423.279
413.536
399.947
382.753
362.248
338.787
312.767
284.606
254.751
223.649
191.742
159.452
127.169
95.246
63.9948
33.6734
4.48984
-23.3845
-49.8247
-74.744
-98.0825
-119.81
-139.92
-158.423
-175.345
-190.726
-204.612
-217.056
-228.118
-237.854
-246.321
-253.576
-259.665
-264.632
-268.509
-271.312
-273.05
-273.714
-273.291
-271.764
-269.092
-265.239
-260.159
-253.8
-246.115
-237.051
-226.558
-214.594
-201.119
-186.098
-169.508
-151.334
-131.571
-110.233
-87.3411
-62.9445
-37.1094
-9.93847
18.4182
47.67
80.3617
111.396
143.027
174.858
206.565
237.795
268.191
297.367
324.923
350.451
373.552
393.844
410.984
424.647
434.576
440.556
442.427
440.105
433.567
422.908
408.256
389.838
367.98
343.052
315.465
285.688
254.193
221.455
187.942
154.087
120.313
86.9971
54.4595
23.149
-6.10188
-34.4893
-61.4652
-86.8611
-110.604
-132.678
-153.096
-171.898
-189.145
-204.895
-219.21
-232.138
-243.716
-253.967
-262.896
-270.493
-276.736
-281.589
-285.01
-286.941
-287.313
-285.905
-282.786
-277.936
-271.296
-262.822
-252.494
-240.277
-226.177
-210.197
-192.357
-172.705
-151.305
-128.236
-103.616
-77.588
-50.3014
-21.9465
7.25269
37.2218
67.6771
98.3581
128.998
159.251
188.813
217.31
244.423
269.892
293.339
314.376
-32.7967
-61.7689
-90.5852
-118.437
-144.89
-169.765
-192.923
-214.317
-233.909
-251.697
-267.711
-281.981
-294.552
-305.476
-314.797
-322.564
-328.814
-333.582
-336.894
-338.769
-339.231
-338.253
-335.85
-332.016
-326.718
-319.931
-311.602
-301.686
-290.134
-276.883
-261.87
-245.052
-226.38
-205.832
-183.397
-159.064
-132.884
-104.925
-75.2757
-44.0768
-11.5536
21.6198
55.979
90.8975
126.065
161.055
195.434
228.816
260.759
290.819
318.612
343.756
365.902
384.745
400.016
411.513
419.094
422.654
421.52
416.305
407.096
393.999
377.192
356.941
333.525
307.253
278.517
247.721
215.267
181.577
147.078
112.184
77.2787
42.7545
9.53561
-23.1969
-54.8456
-85.1533
-113.927
-141.048
-166.404
-189.924
-211.574
-231.318
-249.152
-265.086
-279.128
-291.303
-301.649
-310.204
-317.014
-322.133
-325.621
-327.535
-327.952
-326.925
-324.499
-320.711
-315.581
-309.122
-301.328
-292.183
-281.666
-269.742
-256.381
-241.549
-225.217
-207.362
-187.971
-167.042
-144.586
-120.635
-95.2388
-68.4701
-40.4247
-11.2215
18.9993
50.0928
81.7736
113.838
146.027
178.047
209.577
240.271
269.761
297.665
323.592
347.157
367.985
385.727
400.067
410.737
417.524
420.276
418.912
413.441
403.909
390.437
373.224
352.526
328.656
301.976
272.882
241.799
209.176
175.471
141.139
106.624
72.3538
38.7286
6.09243
-25.2519
-55.0523
-83.1207
-109.328
-133.589
-155.871
-176.176
-194.532
-210.995
-225.634
-238.524
-249.752
-259.406
-267.572
-274.34
-279.786
-283.985
-287.007
-288.901
-289.712
-289.477
-288.216
-285.944
-282.667
-278.383
-273.084
-266.757
-259.373
-250.895
-241.29
-230.513
-218.526
-205.283
-190.74
-174.845
-157.545
-138.791
-118.537
-96.7495
-73.4172
-48.5542
-22.2141
5.51163
34.5021
64.6461
95.5517
127.036
158.835
190.638
222.09
252.806
282.374
310.371
336.374
359.971
380.773
398.429
412.624
423.096
429.639
432.11
430.437
424.651
414.835
401.145
383.825
363.174
339.553
313.364
285.034
255.01
223.747
191.692
159.267
126.866
94.8439
63.5122
33.1281
3.89849
-24.0069
-50.4653