/*--------------------------------*- C++ -*----------------------------------*\
| =========                 |                                                 |
| \\      /  F ield         | OpenFOAM: The Open Source CFD Toolbox           |
|  \\    /   O peration     | Version:  3.0.1                                 |
|   \\  /    A nd           | Web:      www.OpenFOAM.org                      |
|    \\/     M anipulation  |                                                 |
\*---------------------------------------------------------------------------*/
FoamFile
{
    version     2.0;
    format      ascii;
    class       volVectorField;
    location    "77.2";
    object      U;
}
// * * * * * * * * * * * * * * * * * * * * * * * * * * * * * * * * * * * * * //

dimensions      [0 1 -1 0 0 0 0];

internalField   nonuniform List<vector> 
21420
(
(-0.0622572 -0.00153259 0)
(-0.0481403 -0.00163638 0)
(-0.0312413 -0.00170989 0)
(-0.013011 -0.00177244 0)
(0.00525484 -0.00185259 0)
(0.023472 -0.00188441 0)
(0.0426481 -0.0019314 0)
(0.0619921 -0.00192201 0)
(0.0812524 -0.00188791 0)
(0.100187 -0.00186608 0)
(0.118544 -0.00178228 0)
(0.13605 -0.00167296 0)
(0.152435 -0.00156731 0)
(0.167439 -0.00140817 0)
(0.180808 -0.00124555 0)
(0.192309 -0.00104243 0)
(0.201732 -0.000823729 0)
(0.2089 -0.000595081 0)
(0.21369 -0.000351019 0)
(0.215991 -0.000102894 0)
(0.215814 0.000142062 0)
(0.21311 0.000392207 0)
(0.207889 0.00063896 0)
(0.200351 0.000858786 0)
(0.190598 0.00107596 0)
(0.178817 0.00125325 0)
(0.165231 0.00142858 0)
(0.150069 0.00158481 0)
(0.133583 0.00168183 0)
(0.116043 0.00178428 0)
(0.0976953 0.00186284 0)
(0.0787924 0.00188104 0)
(0.0595584 0.00190905 0)
(0.0401836 0.00188395 0)
(0.0208334 0.00186866 0)
(0.0022746 0.00182815 0)
(-0.0154811 0.00175851 0)
(-0.0328722 0.00169816 0)
(-0.0495565 0.0016243 0)
(-0.0654135 0.00152812 0)
(-0.0803739 0.00144085 0)
(-0.0943917 0.00133877 0)
(-0.107442 0.00124567 0)
(-0.119511 0.00114977 0)
(-0.130596 0.00104883 0)
(-0.140714 0.000955019 0)
(-0.149877 0.000861674 0)
(-0.158107 0.000768261 0)
(-0.165429 0.000679533 0)
(-0.171866 0.000592203 0)
(-0.177444 0.000506357 0)
(-0.182184 0.000424074 0)
(-0.186124 0.000343635 0)
(-0.189276 0.000264963 0)
(-0.191637 0.000186178 0)
(-0.193204 0.000108375 0)
(-0.194023 3.87491e-05 0)
(-0.194058 -4.33791e-05 0)
(-0.193252 -0.000125896 0)
(-0.191651 -0.000203003 0)
(-0.189203 -0.000290748 0)
(-0.185944 -0.000364994 0)
(-0.181843 -0.000448818 0)
(-0.176832 -0.000544359 0)
(-0.170949 -0.000624283 0)
(-0.164217 -0.000709869 0)
(-0.156603 -0.000811368 0)
(-0.148073 -0.000897829 0)
(-0.138534 -0.000994084 0)
(-0.128057 -0.00108221 0)
(-0.116799 -0.00116146 0)
(-0.104716 -0.00125757 0)
(-0.0917412 -0.00134546 0)
(-0.0779754 -0.00140931 0)
(-0.0634725 -0.00148805 0)
(-0.0482599 -0.00154514 0)
(-0.032423 -0.00161655 0)
(-0.0159168 -0.0016609 0)
(0.0013723 -0.00171579 0)
(0.0190243 -0.00174247 0)
(0.0367244 -0.0017662 0)
(0.0544964 -0.00177419 0)
(0.0722167 -0.00176702 0)
(0.0898918 -0.00174028 0)
(0.107189 -0.00171123 0)
(0.123947 -0.00164145 0)
(0.140087 -0.00156778 0)
(0.155328 -0.00146526 0)
(0.169392 -0.00133848 0)
(0.182069 -0.00117726 0)
(0.193008 -0.000994923 0)
(0.201978 -0.000780648 0)
(0.208738 -0.000557067 0)
(0.213111 -0.000313223 0)
(0.214996 -6.73627e-05 0)
(0.214453 0.000179748 0)
(0.211272 0.000433073 0)
(0.205652 0.00067459 0)
(0.197696 0.00089894 0)
(0.187536 0.00111798 0)
(0.175322 0.00130728 0)
(0.16125 0.00147616 0)
(0.145565 0.00163041 0)
(0.128488 0.00175884 0)
(0.110271 0.00184985 0)
(0.0912283 0.00191819 0)
(0.0716622 0.00196633 0)
(0.0517993 0.00197012 0)
(0.0319679 0.00196072 0)
(0.0124286 0.00192264 0)
(-0.00664392 0.00186376 0)
(-0.0250549 0.00178731 0)
(-0.0426062 0.00169834 0)
(-0.0591825 0.00159569 0)
(-0.0747259 0.00148979 0)
(-0.0891921 0.00137967 0)
(-0.1025 0.00126243 0)
(-0.114678 0.00115608 0)
(-0.125729 0.00104047 0)
(-0.135662 0.00093219 0)
(-0.144546 0.000829794 0)
(-0.152393 0.000727577 0)
(-0.159231 0.000630103 0)
(-0.165111 0.000537496 0)
(-0.170083 0.000441322 0)
(-0.174172 0.000372007 0)
(-0.177437 0.000283892 0)
(-0.179932 0.000210065 0)
(-0.181691 0.00014017 0)
(-0.182753 7.46749e-05 0)
(-0.183182 8.72621e-06 0)
(-0.18297 -4.81582e-05 0)
(-0.182167 -0.000106206 0)
(-0.180784 -0.000168628 0)
(-0.178817 -0.000225415 0)
(-0.176272 -0.000273788 0)
(-0.173179 -0.00034407 0)
(-0.169467 -0.000390378 0)
(-0.165174 -0.000460591 0)
(-0.160193 -0.000525304 0)
(-0.154539 -0.000593335 0)
(-0.148202 -0.000665624 0)
(-0.141088 -0.000744674 0)
(-0.133184 -0.000815104 0)
(-0.124491 -0.000904479 0)
(-0.114981 -0.000993562 0)
(-0.104583 -0.00106792 0)
(-0.0933003 -0.00115751 0)
(-0.081204 -0.0012464 0)
(-0.0682323 -0.0013331 0)
(-0.0544348 -0.00140575 0)
(-0.0398662 -0.00147964 0)
(-0.0245795 -0.00153851 0)
(-0.0086849 -0.00159869 0)
(0.00775848 -0.00165149 0)
(0.024599 -0.00168444 0)
(0.0416988 -0.00170527 0)
(0.0588933 -0.00170716 0)
(0.0760118 -0.00168277 0)
(0.092823 -0.00164598 0)
(0.109144 -0.0015863 0)
(0.12472 -0.00150032 0)
(0.139291 -0.00138492 0)
(0.152603 -0.00124815 0)
(0.164406 -0.00108653 0)
(0.174469 -0.000906757 0)
(0.182589 -0.000701284 0)
(0.188559 -0.000478644 0)
(0.19225 -0.000249299 0)
(0.193571 -1.79929e-05 0)
(0.192552 0.000222954 0)
(0.189008 0.000466585 0)
(0.183167 0.000690988 0)
(0.175088 0.000904748 0)
(0.164926 0.00110919 0)
(0.152874 0.00128397 0)
(0.139174 0.0014297 0)
(0.124084 0.00156175 0)
(0.107842 0.00166118 0)
(0.0906981 0.0017372 0)
(0.0729337 0.00178289 0)
(0.0548296 0.0018109 0)
(0.0365847 0.00180786 0)
(0.0184329 0.0017894 0)
(0.000581725 0.00175547 0)
(-0.0168358 0.00170114 0)
(-0.0336531 0.00163442 0)
(-0.0497405 0.0015596 0)
(-0.0650134 0.00146996 0)
(-0.0793632 0.00137829 0)
(-0.0927495 0.00127872 0)
(-0.10514 0.00118102 0)
(-0.116506 0.00107545 0)
(-0.126853 0.000977201 0)
(-0.136207 0.000880206 0)
(-0.144588 0.000785071 0)
(-0.152068 0.000700752 0)
(-0.1587 0.000615777 0)
(-0.164518 0.000539547 0)
(-0.169576 0.000460887 0)
(-0.173922 0.000389231 0)
(-0.17757 0.000338351 0)
(-0.180571 0.000266175 0)
(-0.182923 0.000200612 0)
(-0.184633 0.000138345 0)
(-0.185684 7.46763e-05 0)
(-0.186108 9.48704e-06 0)
(-0.185902 -4.64082e-05 0)
(-0.185145 -9.95821e-05 0)
(-0.18384 -0.000152767 0)
(-0.182035 -0.000208792 0)
(-0.179709 -0.000250767 0)
(-0.176921 -0.000313292 0)
(-0.17356 -0.00034971 0)
(-0.169622 -0.000424263 0)
(-0.165022 -0.000492213 0)
(-0.159685 -0.000561049 0)
(-0.153629 -0.000636329 0)
(-0.146795 -0.000722394 0)
(-0.139123 -0.000795453 0)
(-0.130651 -0.000877654 0)
(-0.121403 -0.000959487 0)
(-0.111317 -0.00104 0)
(-0.100436 -0.00111118 0)
(-0.0888231 -0.00118971 0)
(-0.0764343 -0.00126318 0)
(-0.0633302 -0.00132909 0)
(-0.0496191 -0.00139087 0)
(-0.0353089 -0.00144694 0)
(-0.0204837 -0.00149406 0)
(-0.00520414 -0.001535 0)
(0.0104364 -0.00155757 0)
(0.0262644 -0.0015759 0)
(0.0421838 -0.00158247 0)
(0.058062 -0.0015616 0)
(0.0736775 -0.00152792 0)
(0.0888577 -0.00147887 0)
(0.10343 -0.00140799 0)
(0.117181 -0.00131184 0)
(0.12986 -0.00120112 0)
(0.14127 -0.00106509 0)
(0.151196 -0.000900618 0)
(0.159404 -0.000722093 0)
(0.165738 -0.000527821 0)
(0.170061 -0.000324742 0)
(0.17223 -0.000110944 0)
(0.172256 0.000108807 0)
(0.170022 0.000331185 0)
(0.165528 0.000550975 0)
(0.158892 0.000764935 0)
(0.150175 0.000961998 0)
(0.139512 0.00114768 0)
(0.127086 0.0013153 0)
(0.113126 0.00144964 0)
(0.0978649 0.00157254 0)
(0.0815702 0.00165777 0)
(0.0645396 0.00171608 0)
(0.0470511 0.0017538 0)
(0.0293826 0.00175324 0)
(0.0117716 0.00174195 0)
(-0.0055817 0.00170438 0)
(-0.0224794 0.00165398 0)
(-0.0388112 0.00159569 0)
(-0.054497 0.00152197 0)
(-0.0694291 0.00144498 0)
(-0.0834953 0.00135685 0)
(-0.0966321 0.00125928 0)
(-0.108789 0.00116123 0)
(-0.119959 0.00105772 0)
(-0.130112 0.000957464 0)
(-0.139218 0.000862218 0)
(-0.147399 0.000757613 0)
(-0.154592 0.000668852 0)
(-0.160813 0.000569856 0)
(-0.166105 0.00048012 0)
(-0.170411 0.000382721 0)
(-0.173764 0.000289297 0)
(-0.176163 0.000205628 0)
(-0.177618 0.000116256 0)
(-0.178284 3.20694e-05 0)
(-0.178091 -4.24038e-05 0)
(-0.177092 -0.000123241 0)
(-0.175398 -0.0001865 0)
(-0.173157 -0.000245668 0)
(-0.170438 -0.000292851 0)
(-0.167455 -0.000315111 0)
(-0.164266 -0.000345432 0)
(-0.1608 -0.000372117 0)
(-0.157093 -0.000386521 0)
(-0.153094 -0.000417248 0)
(-0.148812 -0.000433711 0)
(-0.144319 -0.000458067 0)
(-0.139475 -0.000497159 0)
(-0.134253 -0.000530058 0)
(-0.128672 -0.000569569 0)
(-0.122586 -0.000630145 0)
(-0.115902 -0.000687678 0)
(-0.108649 -0.000751024 0)
(-0.100629 -0.000836653 0)
(-0.0917488 -0.000910993 0)
(-0.0820258 -0.00100631 0)
(-0.071408 -0.00109728 0)
(-0.0598888 -0.00117893 0)
(-0.0473946 -0.00128458 0)
(-0.033876 -0.0013666 0)
(-0.0195399 -0.00144418 0)
(-0.00463666 -0.00154417 0)
(0.010948 -0.00159091 0)
(0.0272516 -0.00165622 0)
(0.0440238 -0.00168059 0)
(0.061005 -0.00168066 0)
(0.0779786 -0.00168609 0)
(0.0947644 -0.00164702 0)
(0.1111 -0.00158151 0)
(0.126732 -0.00151283 0)
(0.141432 -0.00140227 0)
(0.154967 -0.00128311 0)
(0.167125 -0.0011317 0)
(0.1777 -0.000961992 0)
(0.186508 -0.000781835 0)
(0.193416 -0.000585668 0)
(0.198338 -0.000380776 0)
(0.201206 -0.000174285 0)
(0.20194 3.40889e-05 0)
(0.200587 0.000237859 0)
(0.197057 0.000443231 0)
(0.19161 0.000635413 0)
(0.184334 0.000802472 0)
(0.175395 0.000962192 0)
(0.164973 0.00110622 0)
(0.153277 0.00121027 0)
(0.140534 0.00131061 0)
(0.126949 0.0013919 0)
(0.112735 0.00143063 0)
(0.0980927 0.00147181 0)
(0.0832014 0.00147496 0)
(0.0682214 0.00148393 0)
(0.0532858 0.00148014 0)
(0.0385072 0.00144735 0)
(0.0239584 0.00142339 0)
(0.00965643 0.00138999 0)
(-0.00407219 0.0013445 0)
(-0.0172497 0.00130224 0)
(-0.0300903 0.00124454 0)
(-0.0424247 0.00119703 0)
(-0.0542244 0.00114637 0)
(-0.0654656 0.00108379 0)
(-0.0761289 0.00102894 0)
(-0.0861951 0.000971349 0)
(-0.095645 0.000904907 0)
(-0.104461 0.000843489 0)
(-0.112626 0.000774787 0)
(-0.120123 0.00070968 0)
(-0.126936 0.000642236 0)
(-0.133046 0.000570161 0)
(-0.138443 0.000499604 0)
(-0.143627 0.000426976 0)
(-0.0622938 -0.00459796 0)
(-0.0481754 -0.00490943 0)
(-0.0312729 -0.00513002 0)
(-0.0130382 -0.00531791 0)
(0.00523297 -0.00555829 0)
(0.0234573 -0.00565395 0)
(0.0426414 -0.00579506 0)
(0.0619943 -0.00576693 0)
(0.0812639 -0.00566467 0)
(0.100209 -0.00559931 0)
(0.118576 -0.00534791 0)
(0.136092 -0.00501991 0)
(0.152489 -0.00470299 0)
(0.167502 -0.00422551 0)
(0.180882 -0.00373757 0)
(0.192391 -0.00312811 0)
(0.20182 -0.00247184 0)
(0.208994 -0.001786 0)
(0.213786 -0.0010535 0)
(0.216094 -0.000307016 0)
(0.215917 0.000425892 0)
(0.213203 0.00117707 0)
(0.207983 0.00191715 0)
(0.200439 0.00257691 0)
(0.19068 0.0032286 0)
(0.178889 0.00376053 0)
(0.165295 0.00428665 0)
(0.150124 0.00475544 0)
(0.133627 0.00504656 0)
(0.116077 0.00535386 0)
(0.0977195 0.00558957 0)
(0.0788069 0.00564406 0)
(0.0595639 0.00572804 0)
(0.0401811 0.00565264 0)
(0.020822 0.0056068 0)
(0.0022574 0.00548484 0)
(-0.0155015 0.0052761 0)
(-0.0328977 0.00509488 0)
(-0.0495859 0.00487325 0)
(-0.065445 0.00458462 0)
(-0.0804077 0.00432271 0)
(-0.0944263 0.00401652 0)
(-0.107478 0.00373714 0)
(-0.119547 0.00344933 0)
(-0.130631 0.00314661 0)
(-0.140749 0.00286523 0)
(-0.149912 0.00258518 0)
(-0.158141 0.00230495 0)
(-0.165463 0.0020388 0)
(-0.171899 0.00177728 0)
(-0.177476 0.00152025 0)
(-0.182217 0.00127237 0)
(-0.186158 0.00103013 0)
(-0.189311 0.000793569 0)
(-0.191671 0.000558342 0)
(-0.193243 0.000326875 0)
(-0.19406 0.000117248 0)
(-0.194098 -0.000129439 0)
(-0.193294 -0.000377519 0)
(-0.191696 -0.000609126 0)
(-0.18925 -0.000871699 0)
(-0.185994 -0.00109516 0)
(-0.181894 -0.00134559 0)
(-0.176888 -0.00163322 0)
(-0.171004 -0.00187266 0)
(-0.164275 -0.00212834 0)
(-0.156665 -0.00243721 0)
(-0.148131 -0.0026923 0)
(-0.138592 -0.0029813 0)
(-0.128115 -0.00324432 0)
(-0.116858 -0.00348807 0)
(-0.104771 -0.00377381 0)
(-0.0917921 -0.00403323 0)
(-0.0780222 -0.00423132 0)
(-0.0635115 -0.00445758 0)
(-0.0483085 -0.00464669 0)
(-0.0324507 -0.00484779 0)
(-0.0159534 -0.00498724 0)
(0.00135566 -0.00514497 0)
(0.0190106 -0.00523162 0)
(0.0367168 -0.00529708 0)
(0.0545038 -0.00532281 0)
(0.0722214 -0.00530645 0)
(0.089915 -0.00522601 0)
(0.107233 -0.00512513 0)
(0.123985 -0.0049388 0)
(0.140159 -0.00470072 0)
(0.155413 -0.00439219 0)
(0.169494 -0.00402186 0)
(0.182196 -0.00353575 0)
(0.193154 -0.00298574 0)
(0.202131 -0.00235532 0)
(0.208909 -0.00166744 0)
(0.213283 -0.000948056 0)
(0.215174 -0.000209772 0)
(0.214625 0.000536263 0)
(0.211436 0.0012984 0)
(0.205815 0.00202863 0)
(0.197842 0.00269854 0)
(0.187658 0.00334571 0)
(0.175434 0.00391644 0)
(0.161349 0.00444837 0)
(0.145636 0.00489185 0)
(0.128541 0.00526626 0)
(0.110316 0.00555237 0)
(0.0912535 0.00576781 0)
(0.0716591 0.00589208 0)
(0.0517875 0.00591811 0)
(0.0319357 0.00588299 0)
(0.0123759 0.00576268 0)
(-0.006702 0.00559346 0)
(-0.0251245 0.00536141 0)
(-0.042692 0.0050863 0)
(-0.0592729 0.00479017 0)
(-0.0748297 0.00447068 0)
(-0.0892955 0.00413595 0)
(-0.102608 0.00379393 0)
(-0.1148 0.00345842 0)
(-0.125855 0.00312028 0)
(-0.1358 0.00280276 0)
(-0.144689 0.00248723 0)
(-0.15254 0.00218177 0)
(-0.159381 0.00188198 0)
(-0.165256 0.00161357 0)
(-0.170224 0.00133213 0)
(-0.174328 0.00112027 0)
(-0.177602 0.000849185 0)
(-0.180102 0.000626663 0)
(-0.181868 0.000419533 0)
(-0.182935 0.000228528 0)
(-0.183362 3.16304e-05 0)
(-0.183159 -0.000148015 0)
(-0.182363 -0.000325239 0)
(-0.18098 -0.000497427 0)
(-0.179021 -0.000671657 0)
(-0.176497 -0.000833682 0)
(-0.173391 -0.00101828 0)
(-0.169696 -0.00117863 0)
(-0.165404 -0.00138439 0)
(-0.160429 -0.00157419 0)
(-0.154771 -0.00177527 0)
(-0.148437 -0.00199742 0)
(-0.141325 -0.00223511 0)
(-0.133427 -0.0024634 0)
(-0.124719 -0.00271087 0)
(-0.115205 -0.00298047 0)
(-0.104804 -0.00319587 0)
(-0.0935222 -0.00348244 0)
(-0.0814151 -0.00374688 0)
(-0.0684444 -0.00399071 0)
(-0.0546366 -0.00422378 0)
(-0.0400504 -0.00443453 0)
(-0.0247701 -0.00463784 0)
(-0.00884518 -0.00480796 0)
(0.00760115 -0.00496124 0)
(0.0244661 -0.0050559 0)
(0.0415884 -0.00511225 0)
(0.0587967 -0.00512277 0)
(0.0759254 -0.00506064 0)
(0.0927625 -0.00494677 0)
(0.109104 -0.00476195 0)
(0.124693 -0.00449579 0)
(0.13927 -0.00416751 0)
(0.15261 -0.00375009 0)
(0.164432 -0.00326909 0)
(0.174512 -0.00271656 0)
(0.182641 -0.00210453 0)
(0.188616 -0.00144503 0)
(0.192326 -0.000756293 0)
(0.193659 -4.81078e-05 0)
(0.192626 0.000665591 0)
(0.189076 0.00139663 0)
(0.18324 0.00207269 0)
(0.175157 0.00272046 0)
(0.164983 0.00331993 0)
(0.152929 0.00384537 0)
(0.139214 0.00430055 0)
(0.124101 0.00467993 0)
(0.107846 0.00498558 0)
(0.090693 0.00520856 0)
(0.0729188 0.005354 0)
(0.0547983 0.00542919 0)
(0.0365446 0.00542841 0)
(0.0183691 0.00537561 0)
(0.00049837 0.00525711 0)
(-0.0169204 0.00510369 0)
(-0.0337532 0.00490491 0)
(-0.0498516 0.00467444 0)
(-0.065131 0.00441701 0)
(-0.0794937 0.00413381 0)
(-0.092882 0.00383919 0)
(-0.105283 0.00353794 0)
(-0.11665 0.00323189 0)
(-0.127007 0.00293645 0)
(-0.136367 0.00263779 0)
(-0.144755 0.0023584 0)
(-0.152249 0.00209624 0)
(-0.158879 0.00184812 0)
(-0.164702 0.00161611 0)
(-0.169758 0.00139042 0)
(-0.174109 0.00117974 0)
(-0.177776 0.00100021 0)
(-0.180774 0.000796018 0)
(-0.183128 0.000604021 0)
(-0.184844 0.000409364 0)
(-0.185896 0.000218817 0)
(-0.186317 3.87222e-05 0)
(-0.186122 -0.000139317 0)
(-0.185371 -0.000304962 0)
(-0.184063 -0.0004693 0)
(-0.182243 -0.000615051 0)
(-0.179937 -0.000761193 0)
(-0.177134 -0.000925784 0)
(-0.17379 -0.00106292 0)
(-0.169836 -0.00126532 0)
(-0.165242 -0.00147426 0)
(-0.159909 -0.00168525 0)
(-0.153857 -0.00192142 0)
(-0.147006 -0.0021611 0)
(-0.139337 -0.00239362 0)
(-0.13086 -0.00263637 0)
(-0.121598 -0.00287885 0)
(-0.111506 -0.00311834 0)
(-0.100624 -0.00334293 0)
(-0.0890064 -0.00358589 0)
(-0.0766001 -0.00378672 0)
(-0.0634938 -0.00399539 0)
(-0.0497598 -0.00417267 0)
(-0.0354414 -0.00433766 0)
(-0.0206083 -0.0044836 0)
(-0.005315 -0.00460229 0)
(0.0103218 -0.00468911 0)
(0.0261773 -0.004741 0)
(0.0421128 -0.00474157 0)
(0.0579888 -0.00469325 0)
(0.0736233 -0.00459737 0)
(0.088826 -0.00444158 0)
(0.10341 -0.00422256 0)
(0.117167 -0.00395195 0)
(0.129875 -0.00359899 0)
(0.141294 -0.00318834 0)
(0.151223 -0.00270152 0)
(0.159435 -0.00217318 0)
(0.165772 -0.00159557 0)
(0.170101 -0.000978102 0)
(0.172282 -0.000334284 0)
(0.172302 0.000325939 0)
(0.170058 0.000996292 0)
(0.165564 0.00165601 0)
(0.158913 0.00229277 0)
(0.150192 0.0028903 0)
(0.139521 0.00344444 0)
(0.127086 0.00393824 0)
(0.113123 0.00435847 0)
(0.0978508 0.00471135 0)
(0.0815573 0.00497626 0)
(0.0645148 0.00515213 0)
(0.047016 0.00525248 0)
(0.0293434 0.00526621 0)
(0.0117228 0.00522141 0)
(-0.0056285 0.00511388 0)
(-0.0225375 0.00496618 0)
(-0.0388769 0.00477943 0)
(-0.0545606 0.00456236 0)
(-0.0694944 0.00433256 0)
(-0.0835633 0.00407494 0)
(-0.0967043 0.00378474 0)
(-0.108862 0.00348571 0)
(-0.120029 0.00317165 0)
(-0.130178 0.0028739 0)
(-0.139291 0.00258191 0)
(-0.14746 0.00227532 0)
(-0.154653 0.00200834 0)
(-0.160877 0.00171108 0)
(-0.166166 0.00143961 0)
(-0.170473 0.00114858 0)
(-0.17382 0.000864754 0)
(-0.17622 0.000619308 0)
(-0.177683 0.00034836 0)
(-0.178337 9.76201e-05 0)
(-0.178145 -0.000128055 0)
(-0.177145 -0.000371587 0)
(-0.175442 -0.000555828 0)
(-0.173202 -0.000739152 0)
(-0.170474 -0.000877643 0)
(-0.167489 -0.000945836 0)
(-0.164297 -0.00103609 0)
(-0.160829 -0.00111689 0)
(-0.157121 -0.00115985 0)
(-0.153122 -0.00125086 0)
(-0.14884 -0.00130089 0)
(-0.144348 -0.00137367 0)
(-0.139506 -0.00149118 0)
(-0.134286 -0.00159007 0)
(-0.128707 -0.0017084 0)
(-0.122624 -0.00189163 0)
(-0.115943 -0.00206148 0)
(-0.108692 -0.00225015 0)
(-0.100674 -0.00251027 0)
(-0.0917954 -0.00273292 0)
(-0.0820754 -0.00301955 0)
(-0.071458 -0.00329224 0)
(-0.0599377 -0.00353668 0)
(-0.0474432 -0.00385408 0)
(-0.0339231 -0.00410095 0)
(-0.0195853 -0.00433186 0)
(-0.00467547 -0.00463217 0)
(0.0109169 -0.00477336 0)
(0.0272265 -0.00496931 0)
(0.0440067 -0.00504238 0)
(0.060996 -0.0050432 0)
(0.07798 -0.00505935 0)
(0.0947756 -0.00494214 0)
(0.111121 -0.00474539 0)
(0.126764 -0.00453947 0)
(0.141473 -0.00420843 0)
(0.155019 -0.00385023 0)
(0.167185 -0.00339551 0)
(0.177767 -0.00288674 0)
(0.186582 -0.00234595 0)
(0.193494 -0.00175704 0)
(0.198419 -0.00114213 0)
(0.201291 -0.000522844 0)
(0.202028 9.96561e-05 0)
(0.200665 0.000712833 0)
(0.197134 0.00133003 0)
(0.191684 0.0019067 0)
(0.184401 0.002408 0)
(0.175455 0.0028873 0)
(0.165025 0.00331944 0)
(0.153321 0.00363159 0)
(0.140569 0.00393266 0)
(0.126976 0.00417649 0)
(0.112754 0.00429264 0)
(0.0981042 0.00441609 0)
(0.0832065 0.00442545 0)
(0.068221 0.00445229 0)
(0.0532807 0.00444085 0)
(0.0384983 0.00434239 0)
(0.0239458 0.00427051 0)
(0.00964244 0.00417046 0)
(-0.00408769 0.00403337 0)
(-0.0172681 0.00390679 0)
(-0.0301095 0.00373373 0)
(-0.0424451 0.0035912 0)
(-0.0542458 0.0034392 0)
(-0.0654876 0.00325145 0)
(-0.0761519 0.00308689 0)
(-0.086219 0.00291413 0)
(-0.0956694 0.0027148 0)
(-0.104487 0.00253055 0)
(-0.112652 0.00232444 0)
(-0.12015 0.00212912 0)
(-0.126963 0.00192678 0)
(-0.133074 0.00171055 0)
(-0.138472 0.00149888 0)
(-0.143656 0.00128099 0)
(-0.0623664 -0.00766397 0)
(-0.0482446 -0.0081834 0)
(-0.031335 -0.00855122 0)
(-0.0130914 -0.00886477 0)
(0.00519057 -0.00926594 0)
(0.0234297 -0.00942577 0)
(0.0426296 -0.00966133 0)
(0.0620005 -0.00961462 0)
(0.0812889 -0.00944434 0)
(0.100256 -0.00933569 0)
(0.118643 -0.00891668 0)
(0.136178 -0.00836993 0)
(0.152598 -0.00784176 0)
(0.16763 -0.0070457 0)
(0.181031 -0.00623227 0)
(0.192555 -0.00521606 0)
(0.201997 -0.00412179 0)
(0.209183 -0.00297814 0)
(0.213979 -0.00175645 0)
(0.216298 -0.000508443 0)
(0.21612 0.000707437 0)
(0.213388 0.00196363 0)
(0.20817 0.00319645 0)
(0.200613 0.00429704 0)
(0.190841 0.00538363 0)
(0.17903 0.0062704 0)
(0.165418 0.00714767 0)
(0.150228 0.00792923 0)
(0.133709 0.00841455 0)
(0.116139 0.00892657 0)
(0.0977607 0.00931944 0)
(0.0788285 0.00940986 0)
(0.0595672 0.00954957 0)
(0.0401681 0.00942349 0)
(0.0207912 0.00934707 0)
(0.0022148 0.00914289 0)
(-0.0155507 0.0087952 0)
(-0.0329572 0.00849272 0)
(-0.0496529 0.00812309 0)
(-0.0655162 0.00764175 0)
(-0.0804829 0.00720494 0)
(-0.0945027 0.00669451 0)
(-0.107556 0.00622863 0)
(-0.119625 0.0057488 0)
(-0.130708 0.00524435 0)
(-0.140824 0.00477522 0)
(-0.149986 0.00430847 0)
(-0.158213 0.00384146 0)
(-0.165532 0.00339808 0)
(-0.171967 0.00296217 0)
(-0.177542 0.00253432 0)
(-0.182281 0.00212162 0)
(-0.18622 0.00171723 0)
(-0.189371 0.00132377 0)
(-0.191731 0.000932993 0)
(-0.193309 0.00054684 0)
(-0.194125 0.000191529 0)
(-0.19416 -0.000215687 0)
(-0.193357 -0.000629296 0)
(-0.191758 -0.00101455 0)
(-0.189314 -0.00145307 0)
(-0.186058 -0.00182516 0)
(-0.181961 -0.00224223 0)
(-0.176957 -0.00272193 0)
(-0.171073 -0.00312065 0)
(-0.164347 -0.00354881 0)
(-0.156739 -0.00406262 0)
(-0.148202 -0.00448601 0)
(-0.138663 -0.00496868 0)
(-0.128187 -0.00540985 0)
(-0.116928 -0.00581253 0)
(-0.104841 -0.00628974 0)
(-0.0918621 -0.00672645 0)
(-0.0780801 -0.00705163 0)
(-0.0635725 -0.00743506 0)
(-0.0483599 -0.0077377 0)
(-0.0325019 -0.00808637 0)
(-0.0159985 -0.00831314 0)
(0.00131847 -0.00857459 0)
(0.0189876 -0.00872027 0)
(0.0366967 -0.00882993 0)
(0.054489 -0.0088766 0)
(0.0722295 -0.00884611 0)
(0.0899338 -0.00871028 0)
(0.10726 -0.00855301 0)
(0.124038 -0.00823191 0)
(0.140224 -0.00784057 0)
(0.155493 -0.00733429 0)
(0.169606 -0.00669949 0)
(0.18233 -0.00589659 0)
(0.193309 -0.00498314 0)
(0.202304 -0.00392503 0)
(0.209084 -0.00279063 0)
(0.213472 -0.00157732 0)
(0.215363 -0.000337595 0)
(0.214779 0.000894002 0)
(0.211578 0.00216276 0)
(0.205946 0.00337923 0)
(0.197953 0.00449963 0)
(0.187747 0.00559032 0)
(0.175487 0.00653942 0)
(0.16137 0.00740516 0)
(0.145632 0.00815622 0)
(0.12851 0.00878949 0)
(0.110247 0.00926462 0)
(0.0911586 0.00960967 0)
(0.0715353 0.00983024 0)
(0.0516344 0.00986573 0)
(0.0317626 0.00980962 0)
(0.0121834 0.00961702 0)
(-0.00691674 0.00932209 0)
(-0.0253486 0.00893746 0)
(-0.0429244 0.00848631 0)
(-0.0595252 0.00799502 0)
(-0.0750932 0.00744269 0)
(-0.0895576 0.00689868 0)
(-0.102874 0.00632403 0)
(-0.115064 0.00577108 0)
(-0.12613 0.00520446 0)
(-0.136086 0.00466811 0)
(-0.144965 0.00414031 0)
(-0.152806 0.00363919 0)
(-0.159634 0.00313749 0)
(-0.165512 0.00270585 0)
(-0.170474 0.00221806 0)
(-0.174584 0.00185992 0)
(-0.177856 0.00141715 0)
(-0.180349 0.00105624 0)
(-0.182129 0.000703616 0)
(-0.183204 0.000372346 0)
(-0.183621 5.10936e-05 0)
(-0.183409 -0.000241718 0)
(-0.182613 -0.0005361 0)
(-0.181233 -0.000828332 0)
(-0.179285 -0.00112167 0)
(-0.176765 -0.00137914 0)
(-0.173671 -0.00169303 0)
(-0.169979 -0.00197855 0)
(-0.165684 -0.00231005 0)
(-0.160714 -0.00261241 0)
(-0.155064 -0.00295976 0)
(-0.148736 -0.00333459 0)
(-0.141617 -0.00371932 0)
(-0.13371 -0.00409866 0)
(-0.125009 -0.0045188 0)
(-0.115485 -0.00495847 0)
(-0.105083 -0.005351 0)
(-0.0937942 -0.0057955 0)
(-0.0816909 -0.00624798 0)
(-0.0687219 -0.00664631 0)
(-0.0549113 -0.0070363 0)
(-0.0403268 -0.00740464 0)
(-0.025022 -0.00772622 0)
(-0.00909107 -0.00801701 0)
(0.00737367 -0.00827283 0)
(0.0242511 -0.00842703 0)
(0.0413848 -0.00853392 0)
(0.0586148 -0.00854331 0)
(0.0757746 -0.0084335 0)
(0.0926371 -0.00824088 0)
(0.108992 -0.00793863 0)
(0.124588 -0.00750839 0)
(0.139189 -0.00694857 0)
(0.152554 -0.00624368 0)
(0.164397 -0.00545258 0)
(0.174498 -0.00453236 0)
(0.182643 -0.0035162 0)
(0.188632 -0.00240964 0)
(0.192347 -0.00126134 0)
(0.193685 -8.37045e-05 0)
(0.192638 0.00111495 0)
(0.189097 0.00232929 0)
(0.183249 0.00345784 0)
(0.175147 0.00453267 0)
(0.164965 0.00553705 0)
(0.152898 0.00642328 0)
(0.139162 0.00716398 0)
(0.124026 0.00780402 0)
(0.107745 0.00831277 0)
(0.0905682 0.00868547 0)
(0.0727733 0.00892539 0)
(0.0546376 0.00906034 0)
(0.0363636 0.00905094 0)
(0.0181679 0.00896129 0)
(0.000284428 0.00876822 0)
(-0.0171439 0.0085064 0)
(-0.0339845 0.00818069 0)
(-0.0500992 0.0077988 0)
(-0.0653866 0.00736126 0)
(-0.0797554 0.00689418 0)
(-0.0931492 0.00639714 0)
(-0.105553 0.00590454 0)
(-0.116925 0.00538335 0)
(-0.127277 0.00488649 0)
(-0.136635 0.00440208 0)
(-0.145027 0.00393044 0)
(-0.152519 0.00349986 0)
(-0.159153 0.00307522 0)
(-0.164965 0.00268814 0)
(-0.170021 0.00233046 0)
(-0.174379 0.0019666 0)
(-0.178051 0.00166801 0)
(-0.181052 0.00133135 0)
(-0.183397 0.00100728 0)
(-0.185108 0.000680567 0)
(-0.186155 0.000361405 0)
(-0.186574 8.03639e-05 0)
(-0.18639 -0.000241329 0)
(-0.185636 -0.000509103 0)
(-0.184321 -0.000771503 0)
(-0.182505 -0.00102981 0)
(-0.180196 -0.00126099 0)
(-0.177405 -0.00154153 0)
(-0.174057 -0.00177717 0)
(-0.170114 -0.0021184 0)
(-0.165511 -0.00244636 0)
(-0.160184 -0.00281556 0)
(-0.154129 -0.00319267 0)
(-0.147278 -0.00359954 0)
(-0.139611 -0.0039932 0)
(-0.131136 -0.00440305 0)
(-0.121858 -0.00480263 0)
(-0.111759 -0.00519136 0)
(-0.100876 -0.00557838 0)
(-0.0892463 -0.00597036 0)
(-0.0768499 -0.0063099 0)
(-0.0637429 -0.00665882 0)
(-0.0500095 -0.00696027 0)
(-0.0356786 -0.00723671 0)
(-0.0208315 -0.00747417 0)
(-0.00553498 -0.00768536 0)
(0.0101232 -0.00780369 0)
(0.0259872 -0.00790095 0)
(0.0419381 -0.00791288 0)
(0.0578285 -0.00782171 0)
(0.0734776 -0.00766053 0)
(0.0886962 -0.00740337 0)
(0.103296 -0.00704913 0)
(0.117079 -0.00657998 0)
(0.129803 -0.00600522 0)
(0.141233 -0.00532354 0)
(0.151169 -0.0045066 0)
(0.159396 -0.00362558 0)
(0.165752 -0.00265128 0)
(0.170089 -0.00163039 0)
(0.172283 -0.000555604 0)
(0.172292 0.000545856 0)
(0.170034 0.00165869 0)
(0.16554 0.00275673 0)
(0.158886 0.00382311 0)
(0.150162 0.0048234 0)
(0.139484 0.00573783 0)
(0.127044 0.00657245 0)
(0.113071 0.00726139 0)
(0.0977949 0.00785043 0)
(0.0814882 0.0082978 0)
(0.0644403 0.00858679 0)
(0.0469277 0.0087615 0)
(0.0292411 0.00877624 0)
(0.0116189 0.00870572 0)
(-0.00574293 0.0085276 0)
(-0.0226588 0.00827629 0)
(-0.0389975 0.00797213 0)
(-0.0546789 0.00760754 0)
(-0.0696136 0.00722218 0)
(-0.0836904 0.00679248 0)
(-0.0968318 0.00630504 0)
(-0.108981 0.00581072 0)
(-0.120143 0.0052844 0)
(-0.130276 0.00478957 0)
(-0.139389 0.00430721 0)
(-0.147552 0.00378692 0)
(-0.154736 0.00335023 0)
(-0.16096 0.00285045 0)
(-0.166243 0.00240009 0)
(-0.170556 0.00191456 0)
(-0.17389 0.00144262 0)
(-0.176292 0.00103826 0)
(-0.17777 0.000578395 0)
(-0.178408 0.000162163 0)
(-0.178212 -0.000214883 0)
(-0.17721 -0.000622207 0)
(-0.175501 -0.000926508 0)
(-0.173246 -0.00123139 0)
(-0.17051 -0.00146466 0)
(-0.167517 -0.00157965 0)
(-0.164321 -0.0017275 0)
(-0.160848 -0.00186189 0)
(-0.15714 -0.00193281 0)
(-0.153143 -0.00208564 0)
(-0.148861 -0.00216784 0)
(-0.144372 -0.00228897 0)
(-0.139535 -0.00248469 0)
(-0.134319 -0.00264901 0)
(-0.128745 -0.00284564 0)
(-0.122669 -0.00315058 0)
(-0.115994 -0.00343502 0)
(-0.10875 -0.00375363 0)
(-0.100738 -0.0041822 0)
(-0.091861 -0.00455182 0)
(-0.0821475 -0.00503245 0)
(-0.0715324 -0.00548785 0)
(-0.060011 -0.00589522 0)
(-0.0475166 -0.0064247 0)
(-0.0339941 -0.00683729 0)
(-0.0196545 -0.00722027 0)
(-0.00473279 -0.00771879 0)
(0.0108738 -0.00795713 0)
(0.0271937 -0.00828437 0)
(0.0439885 -0.00840666 0)
(0.0609939 -0.00840798 0)
(0.0779965 -0.00843535 0)
(0.0948102 -0.00824014 0)
(0.111173 -0.00791237 0)
(0.126837 -0.00756893 0)
(0.141564 -0.00701674 0)
(0.155129 -0.00641998 0)
(0.16731 -0.00566212 0)
(0.177905 -0.00481355 0)
(0.186732 -0.00391238 0)
(0.193653 -0.00293079 0)
(0.198583 -0.00190507 0)
(0.20146 -0.000873511 0)
(0.202206 0.000169639 0)
(0.200816 0.00119218 0)
(0.197286 0.00221798 0)
(0.191829 0.00317985 0)
(0.184531 0.00401558 0)
(0.175572 0.00481479 0)
(0.165126 0.00553518 0)
(0.153403 0.00605539 0)
(0.140635 0.00655724 0)
(0.127026 0.00696356 0)
(0.112788 0.00715694 0)
(0.0981236 0.00736238 0)
(0.0832133 0.00737764 0)
(0.068217 0.00742212 0)
(0.0532675 0.00740279 0)
(0.0384777 0.00723845 0)
(0.0239181 0.00711857 0)
(0.00961208 0.00695197 0)
(-0.00412086 0.00672226 0)
(-0.0173068 0.00651162 0)
(-0.0301497 0.0062232 0)
(-0.0424873 0.00598563 0)
(-0.0542901 0.00573228 0)
(-0.0655328 0.00541933 0)
(-0.076199 0.00514507 0)
(-0.0862678 0.00485713 0)
(-0.0957191 0.00452491 0)
(-0.104538 0.00421781 0)
(-0.112704 0.00387428 0)
(-0.120204 0.00354874 0)
(-0.127018 0.0032115 0)
(-0.13313 0.00285111 0)
(-0.138529 0.00249831 0)
(-0.143715 0.00213512 0)
(-0.0624755 -0.0107311 0)
(-0.0483485 -0.0114589 0)
(-0.0314282 -0.0119742 0)
(-0.0131714 -0.0124136 0)
(0.00512682 -0.0129771 0)
(0.0233881 -0.0132014 0)
(0.0426119 -0.013532 0)
(0.0620097 -0.013467 0)
(0.0813264 -0.0132289 0)
(0.100325 -0.0130773 0)
(0.118743 -0.0124907 0)
(0.136308 -0.0117251 0)
(0.152763 -0.0109857 0)
(0.167822 -0.00987069 0)
(0.181256 -0.00873145 0)
(0.192802 -0.00730784 0)
(0.202262 -0.00577487 0)
(0.209468 -0.00417307 0)
(0.214271 -0.00246267 0)
(0.216607 -0.000724053 0)
(0.216416 0.00100794 0)
(0.213669 0.00275428 0)
(0.208452 0.00447761 0)
(0.200873 0.00602057 0)
(0.191082 0.00754266 0)
(0.179242 0.00878454 0)
(0.165604 0.0100136 0)
(0.150384 0.0111082 0)
(0.133831 0.0117878 0)
(0.116231 0.0125044 0)
(0.0978226 0.0130545 0)
(0.0788607 0.0131802 0)
(0.059572 0.0133752 0)
(0.0401484 0.0131978 0)
(0.0207447 0.0130906 0)
(0.00215072 0.0128037 0)
(-0.0156246 0.012317 0)
(-0.0330465 0.0118925 0)
(-0.0497536 0.0113746 0)
(-0.0656231 0.0107 0)
(-0.0805959 0.0100879 0)
(-0.0946176 0.00937285 0)
(-0.107672 0.00872021 0)
(-0.119742 0.00804811 0)
(-0.130823 0.00734191 0)
(-0.140938 0.0066849 0)
(-0.150097 0.00603153 0)
(-0.158321 0.00537783 0)
(-0.165637 0.0047573 0)
(-0.172069 0.00414735 0)
(-0.177641 0.00354887 0)
(-0.182377 0.0029717 0)
(-0.186314 0.00240532 0)
(-0.189463 0.0018552 0)
(-0.191822 0.00130744 0)
(-0.193403 0.000766667 0)
(-0.194229 0.000257402 0)
(-0.194252 -0.000303907 0)
(-0.193452 -0.000880955 0)
(-0.191853 -0.00141965 0)
(-0.18941 -0.00203324 0)
(-0.186156 -0.0025553 0)
(-0.182063 -0.00313931 0)
(-0.177062 -0.00381078 0)
(-0.171179 -0.00436986 0)
(-0.164456 -0.00496783 0)
(-0.156852 -0.00569357 0)
(-0.148311 -0.0062779 0)
(-0.138771 -0.00695602 0)
(-0.128295 -0.00757399 0)
(-0.117035 -0.00814073 0)
(-0.104951 -0.00881277 0)
(-0.0919642 -0.00941359 0)
(-0.0781746 -0.00988046 0)