/*--------------------------------*- C++ -*----------------------------------*\
| =========                 |                                                 |
| \\      /  F ield         | OpenFOAM: The Open Source CFD Toolbox           |
|  \\    /   O peration     | Version:  3.0.1                                 |
|   \\  /    A nd           | Web:      www.OpenFOAM.org                      |
|    \\/     M anipulation  |                                                 |
\*---------------------------------------------------------------------------*/
FoamFile
{
    version     2.0;
    format      ascii;
    class       volScalarField;
    location    "61.8";
    object      p_rgh;
}
// * * * * * * * * * * * * * * * * * * * * * * * * * * * * * * * * * * * * * //

dimensions      [1 -1 -2 0 0 0 0];

internalField   nonuniform List<scalar> 
21420
(
-344.293
-351.588
-357.49
-362.014
-365.164
-366.928
-367.314
-366.308
-363.893
-360.071
-354.81
-348.066
-339.804
-329.97
-318.514
-305.374
-290.499
-273.851
-255.395
-235.095
-212.942
-188.947
-163.127
-135.548
-106.317
-75.5706
-43.5078
-10.3579
23.625
58.1092
92.7475
127.194
161.033
193.861
225.23
254.702
281.888
306.392
327.841
345.932
360.397
371.019
377.643
380.107
378.38
372.491
362.557
348.722
331.209
310.252
286.185
259.355
230.143
198.959
166.207
132.34
97.7808
62.9297
28.1854
-6.09194
-39.5775
-71.598
-102.665
-132.294
-160.309
-186.588
-211.055
-233.662
-254.396
-273.262
-290.285
-305.509
-318.979
-330.745
-340.853
-349.342
-356.251
-361.613
-365.433
-367.75
-368.542
-367.754
-365.43
-361.559
-356.105
-349.057
-340.407
-330.146
-318.269
-304.773
-289.656
-272.91
-254.528
-234.504
-212.831
-189.513
-164.574
-138.056
-110.03
-80.597
-49.9006
-17.9845
14.6877
47.9844
81.6136
115.25
148.547
181.137
212.64
242.672
270.851
296.8
320.16
340.593
357.786
371.461
381.377
387.351
389.186
386.917
380.475
369.951
355.438
337.155
315.353
290.351
262.508
232.225
199.927
166.059
131.074
95.4227
59.5378
23.8358
-11.2974
-45.5052
-78.4864
-109.972
-139.741
-167.618
-193.474
-217.222
-238.818
-258.255
-275.556
-290.773
-303.978
-315.253
-324.691
-332.392
-338.451
-342.959
-345.997
-347.652
-347.979
-347.019
-344.836
-341.463
-336.902
-331.157
-324.212
-316.045
-306.621
-295.893
-283.819
-270.35
-255.441
-239.046
-221.129
-201.667
-180.648
-158.071
-133.956
-108.345
-81.2987
-52.905
-23.2836
7.4096
39.0776
71.3082
103.908
136.561
168.911
200.572
231.13
260.154
287.199
311.827
333.61
352.145
367.079
378.117
385.034
387.666
385.915
379.835
369.52
355.065
336.742
314.854
289.769
261.905
231.715
199.68
166.287
132.017
97.3396
62.6898
28.4505
-4.62877
-36.9127
-67.7737
-97.0392
-124.573
-150.277
-174.09
-195.988
-215.97
-234.06
-250.309
-264.784
-277.565
-288.735
-298.381
-306.589
-313.43
-318.967
-323.251
-326.324
-328.217
-328.964
-328.565
-327.011
-324.318
-320.471
-315.436
-309.187
-301.692
-292.918
-282.822
-271.366
-258.51
-244.209
-228.41
-211.07
-192.157
-171.644
-149.521
-125.808
-100.556
-73.8463
-45.7898
-16.529
13.759
44.8778
76.6277
108.58
140.471
171.955
202.645
232.131
259.99
285.8
309.153
329.661
346.973
360.775
370.797
376.825
378.676
376.613
370.36
360.038
345.814
327.957
306.773
282.652
255.996
227.245
196.863
165.317
133.072
100.524
68.0534
35.8436
-2.93174
-35.3433
-66.216
-95.631
-123.503
-149.799
-174.428
-197.368
-218.588
-238.062
-255.786
-271.758
-285.973
-298.442
-309.171
-318.172
-325.458
-331.029
-334.907
-337.203
-337.871
-336.718
-334.11
-330.037
-324.435
-317.26
-308.472
-297.993
-285.765
-271.765
-255.939
-238.268
-218.734
-197.328
-174.073
-149.017
-122.214
-93.7601
-63.8001
-32.4983
-0.10108
32.6646
66.6215
100.969
135.32
169.309
202.51
234.51
264.934
293.377
319.463
342.822
363.11
380.048
393.385
402.918
408.507
409.997
407.419
400.808
390.294
376.017
358.209
337.141
313.152
286.581
257.838
227.301
195.418
162.752
129.836
97.6693
-344.352
-351.644
-357.545
-362.068
-365.218
-366.981
-367.369
-366.363
-363.949
-360.128
-354.869
-348.127
-339.867
-330.035
-318.583
-305.446
-290.573
-273.928
-255.474
-235.177
-213.025
-189.031
-163.211
-135.63
-106.395
-75.6435
-43.5737
-10.4148
23.5789
58.0756
92.728
127.19
161.046
193.893
225.28
254.771
281.976
306.498
327.963
346.068
360.544
371.174
377.804
380.279
378.536
372.644
362.704
348.859
331.332
310.36
286.276
259.427
230.197
198.993
166.223
132.338
97.763
62.8971
28.1398
-6.14855
-39.6431
-71.6703
-102.743
-132.376
-160.393
-186.673
-211.139
-233.746
-254.478
-273.341
-290.362
-305.583
-319.05
-330.814
-340.92
-349.406
-356.315
-361.676
-365.497
-367.813
-368.604
-367.815
-365.494
-361.624
-356.172
-349.125
-340.476
-330.215
-318.34
-304.845
-289.729
-272.985
-254.605
-234.582
-212.911
-189.593
-164.654
-138.135
-110.106
-80.6699
-49.967
-18.048
14.6342
47.9415
81.5827
115.233
148.544
181.149
212.67
242.718
270.914
296.88
320.256
340.704
357.911
371.597
381.523
387.503
389.349
387.069
380.625
370.095
355.571
337.274
315.457
290.437
262.575
232.272
199.954
166.066
131.063
95.3938
59.493
23.7767
-11.3688
-45.5869
-78.5766
-110.069
-139.843
-167.722
-193.579
-217.327
-238.922
-258.355
-275.653
-290.866
-304.066
-315.336
-324.77
-332.467
-338.522
-343.026
-346.061
-347.713
-348.038
-347.074
-344.892
-341.518
-336.957
-331.212
-324.269
-316.103
-306.681
-295.955
-283.883
-270.417
-255.51
-239.117
-221.202
-201.741
-180.723
-158.147
-134.032
-108.42
-81.372
-52.9749
-23.349
7.35126
39.0235
71.265
103.877
136.543
168.908
200.586
231.162
260.205
287.27
311.918
333.719
352.271
367.22
378.269
385.194
387.835
386.075
379.992
369.669
355.204
336.865
314.959
289.854
261.969
231.758
199.702
166.288
132
97.3046
62.6404
28.3863
-4.70392
-36.9976
-67.8635
-97.1325
-124.668
-150.373
-174.185
-196.082
-216.061
-234.147
-250.393
-264.864
-277.639
-288.805
-298.448
-306.652
-313.491
-319.025
-323.307
-326.378
-328.271
-329.017
-328.617
-327.061
-324.371
-320.525
-315.491
-309.244
-301.75
-292.978
-282.884
-271.43
-258.577
-244.277
-228.481
-211.144
-192.233
-171.721
-149.598
-125.885
-100.632
-73.9193
-45.8586
-16.5924
13.7022
44.8287
76.5912
108.555
140.46
171.959
202.666
232.17
260.048
285.877
309.247
329.773
347.1
360.914
370.947
376.983
378.843
376.772
370.513
360.184
345.948
328.077
306.877
282.739
256.064
227.293
196.893
165.329
133.068
100.506
68.0267
35.8198
-3.00784
-35.4139
-66.2883
-95.7061
-123.58
-149.877
-174.507
-197.446
-218.665
-238.138
-255.861
-271.832
-286.046
-298.513
-309.242
-318.241
-325.527
-331.098
-334.978
-337.273
-337.933
-336.78
-334.176
-330.104
-324.503
-317.33
-308.543
-298.066
-285.84
-271.842
-256.018
-238.348
-218.816
-197.41
-174.156
-149.099
-122.295
-93.8373
-63.8724
-32.564
-0.160249
32.6121
66.58
100.941
135.307
169.313
202.531
234.548
264.99
293.451
319.554
342.929
363.232
380.183
393.531
403.071
408.665
410.165
407.572
400.958
390.436
376.148
358.327
337.242
313.236
286.647
257.886
227.331
195.431
162.749
129.819
97.6412
-344.469
-351.757
-357.655
-362.177
-365.325
-367.086
-367.48
-366.473
-364.06
-360.242
-354.986
-348.249
-339.994
-330.167
-318.72
-305.589
-290.722
-274.083
-255.633
-235.34
-213.191
-189.199
-163.378
-135.793
-106.552
-75.7893
-43.7053
-10.5286
23.4867
58.0084
92.6889
127.182
161.073
193.956
225.381
254.91
282.152
306.709
328.207
346.339
360.838
371.485
378.126
380.622
378.847
372.952
362.998
349.133
331.58
310.577
286.458
259.572
230.304
199.062
166.255
132.335
97.7273
62.8319
28.0489
-6.26173
-39.7735
-71.8153
-102.9
-132.539
-160.56
-186.843
-211.308
-233.912
-254.64
-273.499
-290.514
-305.729
-319.191
-330.949
-341.05
-349.533
-356.438
-361.798
-365.619
-367.935
-368.721
-367.935
-365.618
-361.749
-356.298
-349.253
-340.606
-330.347
-318.473
-304.98
-289.867
-273.125
-254.749
-234.729
-213.059
-189.743
-164.804
-138.283
-110.249
-80.8047
-50.0886
-18.1638
14.5385
47.8672
81.5324
115.21
148.55
181.187
212.74
242.823
271.052
297.052
320.461
340.939
358.173
371.883
381.827
387.82
389.687
387.384
380.939
370.395
355.852
337.528
315.68
290.624
262.724
232.381
200.024
166.097
131.057
95.3534
59.421
23.6766
-11.4935
-45.7322
-78.7385
-110.243
-140.026
-167.911
-193.77
-217.518
-239.11
-258.538
-275.829
-291.034
-304.225
-315.486
-324.911
-332.6
-338.647
-343.144
-346.172
-347.819
-348.138
-347.17
-344.988
-341.612
-337.051
-331.308
-324.367
-316.205
-306.787
-296.065
-283.998
-270.537
-255.634
-239.246
-221.335
-201.878
-180.862
-158.286
-134.172
-108.558
-81.5061
-53.1026
-23.4678
7.24659
38.9274
71.1905
103.826
136.519
168.915
200.626
231.239
260.32
287.425
312.112
333.95
352.536
367.513
378.586
385.526
388.183
386.413
380.32
369.982
355.494
337.125
315.183
290.039
262.113
231.859
199.76
166.306
131.98
97.2512
62.5585
28.2936
-4.85552
-37.1503
-68.0257
-97.302
-124.841
-150.547
-174.358
-196.252
-216.226
-234.306
-250.543
-265.006
-277.773
-288.93
-298.566
-306.763
-313.596
-319.126
-323.404
-326.473
-328.363
-329.109
-328.707
-327.151
-324.464
-320.619
-315.588
-309.344
-301.854
-293.084
-282.995
-271.546
-258.697
-244.403
-228.612
-211.28
-192.373
-171.864
-149.742
-126.028
-100.772
-74.0537
-45.9847
-16.7079
13.6
44.7416
76.5297
108.516
140.449
171.979
202.72
232.26
260.174
286.04
309.447
330.006
347.363
361.203
371.256
377.308
379.188
377.097
370.829
360.483
346.224
328.324
307.091
282.915
256.203
227.394
196.956
165.356
133.062
100.472
67.9746
35.7739
-3.15905
-35.5536
-66.432
-95.8555
-123.734
-150.033
-174.663
-197.603
-218.82
-238.29
-256.01
-271.979
-286.19
-298.656
-309.382
-318.379
-325.664
-331.236
-335.12
-337.412
-338.056
-336.906
-334.306
-330.237
-324.639
-317.468
-308.685
-298.211
-285.989
-271.994
-256.174
-238.508
-218.978
-197.574
-174.32
-149.263
-122.455
-93.9916
-64.0172
-32.6953
-0.276865
32.5057
66.497
100.886
135.282
169.32
202.572
234.623
265.101
293.597
319.735
343.144
363.476
380.453
393.822
403.377
408.98
410.501
407.877
401.258
390.719
376.41
358.561
337.444
313.404
286.779
257.981
227.39
195.457
162.745
129.787
97.5848
-344.644
-351.927
-357.821
-362.339
-365.485
-367.245
-367.646
-366.638
-364.227
-360.413
-355.162
-348.431
-340.183
-330.364
-318.926
-305.804
-290.946
-274.314
-255.872
-235.585
-213.441
-189.45
-163.628
-136.038
-106.786
-76.0081
-43.903
-10.6996
23.3482
57.9073
92.6301
127.171
161.113
194.051
225.533
255.119
282.417
307.027
328.572
346.745
361.278
371.95
378.607
381.129
379.321
373.417
363.44
349.545
331.952
310.902
286.731
259.79
230.464
199.166
166.303
132.33
97.6735
62.7339
27.9122
-6.43167
-39.9688
-72.0334
-103.134
-132.784
-160.812
-187.097
-211.562
-234.162
-254.884
-273.736
-290.742
-305.948
-319.402
-331.152
-341.246
-349.722
-356.624
-361.981
-365.802
-368.118
-368.898
-368.117
-365.803
-361.936
-356.487
-349.445
-340.8
-330.543
-318.672
-305.182
-290.072
-273.335
-254.963
-234.947
-213.28
-189.967
-165.028
-138.503
-110.462
-81.0053
-50.2699
-18.3349
14.3969
47.7577
81.459
115.177
148.561
181.245
212.848
242.982
271.262
297.312
320.77
341.294
358.57
372.315
382.287
388.298
390.19
387.867
381.416
370.85
356.276
337.912
316.016
290.908
262.951
232.549
200.132
166.147
131.052
95.2957
59.3159
23.5292
-11.6776
-45.9473
-78.9787
-110.503
-140.299
-168.192
-194.055
-217.802
-239.389
-258.81
-276.091
-291.284
-304.462
-315.709
-325.121
-332.797
-338.832
-343.318
-346.337
-347.976
-348.285
-347.314
-345.13
-341.752
-337.191
-331.45
-324.513
-316.356
-306.943
-296.228
-284.168
-270.714
-255.819
-239.437
-221.532
-202.08
-181.067
-158.493
-134.379
-108.763
-81.7051
-53.2924
-23.6438
7.09097
38.7858
71.0811
103.753
136.486
168.927
200.689
231.356
260.495
287.659
312.405
334.299
352.936
367.957
379.064
386.026
388.696
386.931
380.819
370.456
355.933
337.519
315.524
290.32
262.331
232.013
199.851
166.336
131.954
97.1735
62.4378
28.1525
-5.07603
-37.3766
-68.2667
-97.5538
-125.099
-150.806
-174.616
-196.504
-216.47
-234.541
-250.767
-265.217
-277.971
-289.116
-298.741
-306.928
-313.752
-319.275
-323.548
-326.612
-328.5
-329.243
-328.838
-327.286
-324.601
-320.759
-315.731
-309.492
-302.006
-293.242
-283.159
-271.717
-258.876
-244.589
-228.805
-211.481
-192.581
-172.076
-149.956
-126.241
-100.98
-74.2534
-46.1719
-16.879
13.4486
44.6128
76.4394
108.46
140.433
172.01
202.802
232.396
260.366
286.287
309.748
330.357
347.759
361.637
371.72
377.796
379.704
377.592
371.305
360.932
346.638
328.695
307.412
283.181
256.411
227.546
197.051
165.396
133.052
100.421
67.8953
35.7009
-3.3823
-35.7623
-66.6475
-96.0797
-123.964
-150.268
-174.898
-197.837
-219.051
-238.519
-256.235
-272.2
-286.408
-298.869
-309.592
-318.587
-325.869
-331.442
-335.332
-337.619
-338.242
-337.095
-334.503
-330.437
-324.843
-317.676
-308.898
-298.429
-286.212
-272.224
-256.409
-238.748
-219.222
-197.82
-174.568
-149.508
-122.695
-94.2233
-64.2345
-32.8924
-0.450532
32.3445
66.372
100.803
135.244
169.33
202.633
234.737
265.268
293.817
320.007
343.465
363.843
380.858
394.259
403.837
409.453
410.997
408.341
401.71
391.145
376.803
358.912
337.747
313.656
286.976
258.123
227.479
195.496
162.738
129.738
97.5001
-344.878
-352.153
-358.041
-362.555
-365.698
-367.459
-367.865
-366.858
-364.449
-360.64
-355.396
-348.674
-340.436
-330.627
-319.2
-306.09
-291.243
-274.623
-256.191
-235.911
-213.773
-189.786
-163.962
-136.365
-107.1
-76.3004
-44.1671
-10.9279
23.1632
57.7721
92.5513
127.155
161.166
194.177
225.735
255.398
282.77
307.45
329.059
347.288
361.866
372.572
379.249
381.788
379.967
374.042
364.031
350.095
332.449
311.335
287.095
260.08
230.678
199.304
166.367
132.323
97.6014
62.6025
27.7296
-6.65854
-40.2289
-72.3253
-103.447
-133.111
-161.148
-187.436
-211.9
-234.496
-255.21
-274.052
-291.047
-306.241
-319.683
-331.422
-341.506
-349.975
-356.871
-362.225
-366.045
-368.359
-369.135
-368.36
-366.05
-362.185
-356.74
-349.7
-341.058
-330.805
-318.937
-305.451
-290.346
-273.614
-255.248
-235.238
-213.575
-190.265
-165.325
-138.796
-110.745
-81.2726
-50.513
-18.5613
14.2088
47.6122
81.3615
115.133
148.577
181.324
212.992
243.194
271.543
297.66
321.184
341.769
359.099
372.891
382.901
388.937
390.848
388.522
382.057
371.458
356.844
338.426
316.466
291.287
263.254
232.773
200.277
166.215
131.045
95.2191
59.176
23.3329
-11.9229
-46.2339
-79.2988
-110.848
-140.663
-168.567
-194.434
-218.18
-239.761
-259.172
-276.439
-291.617
-304.776
-316.005
-325.4
-333.058
-339.078
-343.549
-346.556
-348.183
-348.481
-347.506
-345.318
-341.937
-337.377
-331.639
-324.707
-316.556
-307.15
-296.445
-284.395
-270.951
-256.066
-239.692
-221.795
-202.349
-181.341
-158.769
-134.655
-109.036
-81.9699
-53.5455
-23.8786
6.88192
38.5991
70.9359
103.655
136.441
168.943
200.773
231.513
260.729
287.971
312.796
334.766
353.471
368.551
379.702
386.696
389.376
387.623
381.49
371.089
356.52
338.045
315.978
290.696
262.622
232.219
199.973
166.377
131.919
97.07
62.276
27.9529
-5.35854
-37.6773
-68.5877
-97.8895
-125.442
-151.152
-174.959
-196.84
-216.797
-234.854
-251.065
-265.499
-278.235
-289.363
-298.973
-307.147
-313.96
-319.473
-323.739
-326.797
-328.682
-329.421
-329.013
-327.466
-324.783
-320.944
-315.922
-309.689
-302.21
-293.453
-283.377
-271.945
-259.114
-244.837
-229.063
-211.75
-192.858
-172.358
-150.24
-126.524
-101.257
-74.5193
-46.4213
-17.1068
13.2468
44.4411
76.3195
108.385
140.413
172.052
202.912
232.578
260.622
286.617
310.149
330.826
348.288
362.217
372.341
378.447
380.381
378.259
371.943
361.533
347.192
329.189
307.84
283.535
256.689
227.747
197.177
165.45
133.039
100.353
67.7873
35.5938
-3.67111
-36.039
-66.9347
-96.3789
-124.272
-150.58
-175.212
-198.149
-219.36
-238.823
-256.535
-272.495
-286.697
-299.154
-309.872
-318.863
-326.143
-331.716
-335.612
-337.89
-338.496
-337.35
-334.765
-330.704
-325.114
-317.953
-309.181
-298.72
-286.51
-272.529
-256.722
-239.068
-219.548
-198.149
-174.897
-149.835
-123.016
-94.5325
-64.5247
-33.1554
-0.679525
32.1264
66.2047
100.691
135.193
169.343
202.715
234.888
265.491
294.111
320.37
343.894
364.332
381.399
394.842
404.451
410.083
411.643
408.969
402.315
391.714
377.327
359.381
338.152
313.991
287.239
258.312
227.597
195.548
162.729
129.672
97.3868
-345.17
-352.436
-358.317
-362.826
-365.964
-367.727
-368.138
-367.132
-364.727
-360.924
-355.689
-348.978
-340.751
-330.957
-319.543
-306.448
-291.616
-275.009
-256.589
-236.32
-214.189
-190.206
-164.38
-136.775
-107.492
-76.6664
-44.4978
-11.2138
22.9313
57.6025
92.4522
127.135
161.231
194.334
225.988
255.746
283.211
307.979
329.669
347.967
362.602
373.349
380.052
382.602
380.781
374.825
364.772
350.783
333.069
311.877
287.55
260.443
230.946
199.476
166.446
132.314
97.5104
62.4376
27.5007
-6.94255
-40.5542
-72.6914
-103.839
-133.521
-161.568
-187.86
-212.323
-234.913
-255.617
-274.446
-291.427
-306.607
-320.035
-331.76
-341.832
-350.291
-357.181
-362.529
-366.348
-368.66
-369.433
-368.663
-366.358
-362.497
-357.055
-350.02
-341.382
-331.132
-319.268
-305.788
-290.689
-273.964
-255.605
-235.601
-213.944
-190.637
-165.698
-139.163
-111.1
-81.6075
-50.819
-18.8429
13.9735
47.43
81.2394
115.078
148.596
181.422
213.173
243.459
271.894
298.096
321.701
342.362
359.762
373.613
383.67
389.737
391.665
389.347
382.859
372.221
357.554
339.068
317.03
291.761
263.633
233.053
200.457
166.299
131.036
95.1229
59.0006
23.0868
-12.2301
-46.5928
-79.6996
-111.281
-141.118
-169.036
-194.909
-218.653
-240.227
-259.625
-276.875
-292.032
-305.17
-316.376
-325.749
-333.386
-339.385
-343.838
-346.83
-348.442
-348.727
-347.747
-345.552
-342.168
-337.609
-331.875
-324.948
-316.806
-307.41
-296.716
-284.679
-271.247
-256.373
-240.01
-222.124
-202.686
-181.683
-159.114
-135
-109.377
-82.3014
-53.8624
-24.1734
6.61896
38.3663
70.7545
103.532
136.386
168.964
200.878
231.709
261.021
288.363
313.286
335.35
354.141
369.293
380.502
387.533
390.231
388.484
382.331
371.883
357.255
338.703
316.548
291.166
262.986
232.476
200.124
166.427
131.874
96.9397
62.0717
27.6933
-5.70343
-38.0528
-68.9895
-98.3095
-125.872
-151.584
-175.389
-197.261
-217.205
-235.246
-251.438
-265.85
-278.565
-289.672
-299.263
-307.421
-314.22
-319.721
-323.977
-327.029
-328.908
-329.643
-329.234
-327.69
-325.01
-321.176
-316.161
-309.935
-302.464
-293.715
-283.65
-272.23
-259.411
-245.146
-229.386
-212.085
-193.204
-172.711
-150.597
-126.879
-101.604
-74.8519
-46.7335
-17.392
12.9942
44.2251
76.17
108.291
140.387
172.104
203.049
232.805
260.942
287.03
310.652
331.412
348.95
362.943
373.117
379.262
381.224
379.091
372.744
362.286
347.884
329.808
308.375
283.977
257.037
227.999
197.333
165.517
133.022
100.266
67.6489
35.4408
-4.01423
-36.3829
-67.2935
-96.7532
-124.657
-150.971
-175.605
-198.54
-219.747
-239.204
-256.909
-272.863
-287.06
-299.51
-310.223
-319.209
-326.485
-332.058
-335.956
-338.226
-338.819
-337.671
-335.093
-331.038
-325.454
-318.299
-309.535
-299.083
-286.883
-272.912
-257.113
-239.468
-219.954
-198.56
-175.31
-150.245
-123.417
-94.9193
-64.8884
-33.4846
-0.96293
31.8498
65.9948
100.552
135.128
169.36
202.816
235.077
265.768
294.477
320.823
344.43
364.943
382.075
395.571
405.219
410.872
412.44
409.761
403.073
392.427
377.984
359.967
338.658
314.41
287.567
258.549
227.745
195.612
162.716
129.59
97.2448
-345.52
-352.775
-358.648
-363.15
-366.284
-368.048
-368.465
-367.461
-365.06
-361.265
-356.041
-349.342
-341.13
-331.352
-319.955
-306.877
-292.062
-275.472
-257.067
-236.81
-214.689
-190.711
-164.883
-137.267
-107.963
-77.1066
-44.8957
-11.5578
22.6521
57.3979
92.3322
127.109
161.309
194.522
226.291
256.164
283.74
308.615
330.4
348.782
363.485
374.283
381.017
383.579
381.756
375.765
365.662
351.609
333.815
312.527
288.096
260.878
231.266
199.682
166.54
132.302
97.4001
62.2386
27.225
-7.28412
-40.9453
-73.1321
-104.31
-134.013
-162.073
-188.37
-212.831
-235.413
-256.106
-274.92
-291.884
-307.046
-320.457
-332.165
-342.222
-350.67
-357.552
-362.895
-366.712
-369.021
-369.793
-369.027
-366.727
-362.871
-357.434
-350.404
-341.77
-331.525
-319.666
-306.191
-291.1
-274.383
-256.033
-236.037
-214.388
-191.085
-166.145
-139.604
-111.527
-82.0109
-51.1884
-19.1805
13.6907
47.2105
81.0922
115.012
148.618
181.539
213.389
243.778
272.315
298.619
322.322
343.075
360.558
374.48
384.594
390.7
392.646
390.336
383.822
373.137
358.407
339.84
317.706
292.331
264.088
233.389
200.674
166.398
131.024
95.0066
58.7889
22.7901
-12.6001
-47.0249
-80.1814
-111.801
-141.665
-169.6
-195.479
-219.222
-240.787
-260.169
-277.399
-292.532
-305.642
-316.821
-326.167
-333.778
-339.754
-344.185
-347.158
-348.752
-349.024
-348.035
-345.833
-342.446
-337.888
-332.158
-325.238
-317.106
-307.722
-297.041
-285.019
-271.602
-256.742
-240.393
-222.519
-203.09
-182.093
-159.528
-135.415
-109.786
-82.6999
-54.2433
-24.5284
6.3005
38.0872
70.5363
103.383
136.318
168.987
201.002
231.943
261.37
288.832
313.874
336.051
354.945
370.186
381.462
388.54
391.259
389.517
383.342
372.838
358.137
339.494
317.231
291.729
263.423
232.784
200.305
166.485
131.819
96.7817
61.8239
27.3726
-6.11082
-38.5035
-69.4726
-98.8145
-126.389
-152.104
-175.905
-197.767
-217.695
-235.717
-251.886
-266.273
-278.961
-290.044
-299.611
-307.749
-314.531
-320.019
-324.264
-327.307
-329.18
-329.91
-329.5
-327.958
-325.282
-321.455
-316.448
-310.23
-302.769
-294.031
-283.978
-272.572
-259.768
-245.518
-229.773
-212.488
-193.62
-173.136
-151.026
-127.305
-102.021
-75.2517
-47.1091
-17.7353
12.6907
43.964
75.9904
108.176
140.355
172.165
203.213
233.077
261.326
287.525
311.255
332.116
349.744
363.814
374.05
380.24
382.241
380.087
373.706
363.191
348.716
330.551
309.017
284.509
257.453
228.3
197.52
165.596
133
100.16
67.4787
35.2368
-4.40746
-36.793
-67.7241
-97.2027
-125.12
-151.441
-176.076
-199.009
-220.211
-239.662
-257.359
-273.305
-287.494
-299.938
-310.644
-319.624
-326.895
-332.466
-336.365
-338.627
-339.21
-338.06
-335.487
-331.439
-325.861
-318.714
-309.96
-299.518
-287.33
-273.37
-257.583
-239.949
-220.443
-199.054
-175.806
-150.737
-123.899
-95.3842
-65.3259
-33.8806
-1.3007
31.5139
65.7419
100.383
135.05
169.379
202.937
235.303
266.101
294.917
321.367
345.074
365.677
382.887
396.448
406.141
411.821
413.395
410.71
403.984
393.284
378.772
360.672
339.266
314.913
287.96
258.832
227.92
195.687
162.701
129.49
97.0738
-345.929
-353.171
-359.033
-363.528
-366.657
-368.422
-368.845
-367.845
-365.449
-361.662
-356.451
-349.767
-341.572
-331.813
-320.435
-307.378
-292.584
-276.013
-257.625
-237.383
-215.272
-191.3
-165.47
-137.842
-108.515
-77.6215
-45.3612
-11.9605
22.3251
57.1579
92.191
127.078
161.399
194.74
226.643
256.65
284.358
309.357
331.255
349.733
364.516
375.374
382.145
384.722
382.894
376.865
366.704
352.575
334.686
313.287
288.733
261.385
231.639
199.921
166.648
132.287
97.2698
62.0048
26.902
-7.68382
-41.4029
-73.6478
-104.862
-134.589
-162.663
-188.966
-213.425
-235.998
-256.677
-275.473
-292.417
-307.559
-320.949
-332.638
-342.677
-351.112
-357.985
-363.321
-367.135
-369.441
-370.214
-369.452
-367.158
-363.308
-357.877
-350.852
-342.223
-331.983
-320.129
-306.662
-291.579
-274.872
-256.533
-236.547
-214.905
-191.608
-166.667
-140.119
-112.026
-82.4834
-51.6217
-19.5744
13.3598
46.9534
80.9193
114.933
148.643
181.674
213.64
244.148
272.806
299.229
323.046
343.907
361.487
375.493
385.674
391.825
393.794
391.49
384.946
374.209
359.404
340.742
318.496
292.995
264.618
233.781
200.926
166.514
131.009
94.8693
58.5404
22.4424
-13.0334
-47.5305
-80.7452
-112.409
-142.304
-170.259
-196.147
-219.887
-241.441
-260.805
-278.01
-293.115
-306.194
-317.34
-326.655
-334.237
-340.184
-344.59
-347.54
-349.114
-349.37
-348.369
-346.16
-342.77
-338.213
-332.487
-325.577
-317.456
-308.085
-297.421
-285.416
-272.016
-257.173
-240.84
-222.98
-203.562
-182.573
-160.013
-135.899
-110.264
-83.166
-54.6891
-24.9442
5.92527
37.762
70.2806
103.209
136.237
169.013
201.146
232.215
261.778
289.379
314.56
336.87
355.885
371.228
382.585
389.717
392.463
390.723
384.52
373.955
359.169
340.418
318.029
292.388
263.933
233.143
200.515
166.553
131.754
96.5952
61.5317
26.9922
-6.58341
-39.0301
-70.0377
-99.4049
-126.993
-152.711
-176.507
-198.358
-218.268
-236.267
-252.409
-266.766
-279.424
-290.477
-300.018
-308.132
-314.894
-320.366
-324.598
-327.631
-329.497
-330.221
-329.81
-328.271
-325.6
-321.78
-316.783
-310.575
-303.124
-294.399
-284.362
-272.971
-260.184
-245.952
-230.226
-212.959
-194.105
-173.632
-151.527
-127.803
-102.508
-75.7194
-47.5485
-18.1371
12.3356
43.6572
75.7802
108.041
140.316
172.236
203.403
233.394
261.773
288.103
311.958
332.938
350.672
364.832
375.139
381.382
383.436
381.248
374.829
364.25
349.689
331.418
309.766
285.128
257.939
228.651
197.738
165.687
132.973
100.035
67.2754
34.9841
-4.85392
-37.2693
-68.2264
-97.7277
-125.66
-151.989
-176.627
-199.557
-220.752
-240.195
-257.884
-273.821
-288.001
-300.436
-311.135
-320.108
-327.374
-332.942
-336.84
-339.093
-339.668
-338.516
-335.947
-331.907
-326.337
-319.199
-310.456
-300.026
-287.851
-273.906
-258.132
-240.51
-221.013
-199.63
-176.384
-151.312
-124.462
-95.9275
-65.838
-34.3446
-1.6929
31.1179
65.4458
100.186
134.958
169.4
203.077
235.566
266.489
295.429
322.001
345.825
366.535
383.836
397.471
407.218
412.929
414.51
411.817
405.047
394.285
379.693
361.494
339.975
315.5
288.419
259.161
228.124
195.774
162.681
129.373
96.8733
-346.396
-353.624
-359.474
-363.96
-367.084
-368.849
-369.278
-368.283
-365.891
-362.116
-356.919
-350.253
-342.077
-332.34
-320.986
-307.95
-293.18
-276.631
-258.263
-238.038
-215.94
-191.975
-166.143
-138.501
-109.147
-78.2118
-45.895
-12.4223
21.9496
56.8819
92.0278
127.041
161.5
194.989
227.045
257.206
285.064
310.205
332.232
350.822
365.697
376.622
383.436
386.03
384.193
378.122
367.896
353.68
335.682
314.156
289.462
261.965
232.066
200.193
166.771
132.267
97.119
61.7358
26.531
-8.14239
-41.9277
-74.2388
-105.493
-135.248
-163.339
-189.648
-214.104
-236.667
-257.33
-276.106
-293.026
-308.145
-321.511
-333.177
-343.198
-351.618
-358.479
-363.808
-367.618
-369.921
-370.695
-369.938
-367.651
-363.807
-358.382
-351.364
-342.741
-332.506
-320.66
-307.201
-292.127
-275.431
-257.104
-237.129
-215.498
-192.206
-167.265
-140.709
-112.598
-83.0252
-52.1204
-20.0249
12.9805
46.658
80.7201
114.842
148.67
181.828
213.927
244.572
273.367
299.926
323.875
344.859
362.55
376.652
386.91
393.114
395.11
392.809
386.234
375.435
360.545
341.775
319.4
293.755
265.224
234.228
201.213
166.644
130.989
94.7105
58.2543
22.0428
-13.5309
-48.1104
-81.3918
-113.107
-143.038
-171.013
-196.91
-220.648
-242.189
-261.532
-278.709
-293.782
-306.825
-317.935
-327.213
-334.76
-340.676
-345.053
-347.977
-349.527
-349.766
-348.752
-346.534
-343.14
-338.584
-332.864
-325.963
-317.856
-308.502
-297.856
-285.87
-272.49
-257.666
-241.351
-223.507
-204.102
-183.123
-160.567
-136.453
-110.812
-83.7
-55.2001
-25.4212
5.49411
37.3883
69.9866
103.007
136.143
169.04
201.309
232.525
262.242
290.003
315.343
337.806
356.96
372.421
383.871
391.066
393.842
392.103
385.868
375.233
360.35
341.476
318.942
293.14
264.515
233.552
200.753
166.628
131.676
96.3794
61.1944
26.5517
-7.12291
-39.6334
-70.6853
-100.081
-127.685
-153.407
-177.198
-199.035
-218.924
-236.897
-253.008
-267.33
-279.953
-290.972
-300.482
-308.57
-315.309
-320.762
-324.98
-328.001
-329.859
-330.578
-330.165
-328.628
-325.963
-322.151
-317.165
-310.969
-303.531
-294.82
-284.799
-273.428
-260.66
-246.449
-230.744
-213.497
-194.661
-174.2
-152.1
-128.373
-103.066
-76.2552
-48.0521
-18.5978
11.9285
43.3041
75.5388
107.884
140.269
172.314
203.618
233.755
262.283
288.763
312.762
333.877
351.733
365.996
376.387
382.687
384.772
382.574
376.113
365.462
350.802
332.41
310.622
285.837
258.494
229.05
197.985
165.79
132.941
99.8887
67.0381
34.6835
-5.35586
-37.8115
-68.8006
-98.3285
-126.279
-152.617
-177.257
-200.183
-221.372
-240.805
-258.484
-274.411
-288.581
-301.007
-311.697
-320.662
-327.922
-333.485
-337.38
-339.626
-340.194
-339.038
-336.474
-332.441
-326.88
-319.753
-311.022
-300.606
-288.448
-274.519
-258.76
-241.151
-221.665
-200.29
-177.047
-151.97
-125.108
-96.5499
-66.4254
-34.8776
-2.13947
30.6608
65.1065
99.9586
134.851
169.423
203.237
235.866
266.932
296.015
322.727
346.684
367.515
384.922
398.642
408.452
414.197
415.786
413.082
406.265
395.431
380.746
362.435
340.786
316.17
288.941
259.535
228.355
195.871
162.657
129.237
96.6431
-346.921
-354.132
-359.969
-364.446
-367.564
-369.329
-369.762
-368.774
-366.389
-362.626
-357.446
-350.799
-342.646
-332.934
-321.605
-308.595
-293.851
-277.327
-258.981
-238.775
-216.692
-192.735
-166.901
-139.244
-109.86
-78.878
-46.4979
-12.944
21.525
56.5691
91.8419
126.998
161.612
195.267
227.496
257.831
285.859
311.16
333.333
352.048
367.026
378.029
384.89
387.502
385.656
379.54
369.239
354.924
336.803
315.134
290.282
262.617
232.544
200.499
166.908
132.243
96.9469
61.4308
26.1111
-8.66054
-42.5208
-74.9057
-106.206
-135.991
-164.101
-190.416
-214.869
-237.42
-258.066
-276.818
-293.712
-308.804
-322.143
-333.784
-343.783
-352.186
-359.035
-364.356
-368.161
-370.461
-371.236
-370.485
-368.205
-364.368
-358.951
-351.941
-343.324
-333.095
-321.256
-307.806
-292.743
-276.06
-257.747
-237.785
-216.165
-192.88
-167.939
-141.374
-113.242
-83.6371
-52.6855
-20.5325
12.5523
46.3237
80.4939
114.738
148.699
182
214.248
245.047
273.998
300.71
324.807
345.93
363.748
377.958
388.302
394.567
396.594
394.295
387.684
376.818
361.831
342.938
320.418
294.611
265.905
234.729
201.534
166.789
130.966
94.5295
57.9298
21.5906
-14.0933
-48.7658
-82.1219
-113.894
-143.865
-171.865
-197.772
-221.507
-243.033
-262.352
-279.498
-294.533
-307.536
-318.604
-327.842
-335.35
-341.229
-345.573
-348.468
-349.993
-350.211
-349.182
-346.954
-343.556
-339.001
-333.288
-326.398
-318.305
-308.97
-298.345
-286.381
-273.024
-258.222
-241.928
-224.101
-204.711
-183.742
-161.192
-137.077
-111.43
-84.3025
-55.7768
-25.9603
5.00657
36.9649
69.6537
102.778
136.034
169.069
201.49
232.871
262.764
290.704
316.225
338.861
358.172
373.766
385.32
392.586
395.397
393.66
387.388
376.675
361.681
342.668
319.97
293.986
265.169
234.011
201.02
166.71
131.587
96.1335
60.8109
26.0508
-7.73092
-40.3139
-71.4162
-100.845
-128.465
-154.192
-177.975
-199.797
-219.663
-237.607
-253.682
-267.965
-280.549
-291.529
-301.004
-309.062
-315.776
-321.208
-325.409
-328.418
-330.267
-330.979
-330.564
-329.03
-326.371
-322.57
-317.595
-311.413
-303.989
-295.294
-285.292