/*--------------------------------*- C++ -*----------------------------------*\
| =========                 |                                                 |
| \\      /  F ield         | OpenFOAM: The Open Source CFD Toolbox           |
|  \\    /   O peration     | Version:  3.0.1                                 |
|   \\  /    A nd           | Web:      www.OpenFOAM.org                      |
|    \\/     M anipulation  |                                                 |
\*---------------------------------------------------------------------------*/
FoamFile
{
    version     2.0;
    format      ascii;
    class       volVectorField;
    location    "19.2";
    object      U;
}
// * * * * * * * * * * * * * * * * * * * * * * * * * * * * * * * * * * * * * //

dimensions      [0 1 -1 0 0 0 0];

internalField   nonuniform List<vector> 
22680
(
(-0.0592399 -0.00149799 0)
(-0.0469995 -0.00158362 0)
(-0.0333519 -0.00164325 0)
(-0.0191362 -0.00172021 0)
(-0.00441521 -0.00176386 0)
(0.0107483 -0.00182654 0)
(0.0262715 -0.00184844 0)
(0.0420495 -0.00189016 0)
(0.0579764 -0.00188482 0)
(0.0739319 -0.00189951 0)
(0.0897871 -0.00186278 0)
(0.105404 -0.00184507 0)
(0.12064 -0.00177439 0)
(0.135344 -0.00171987 0)
(0.149367 -0.00161471 0)
(0.16255 -0.00149424 0)
(0.174743 -0.00138174 0)
(0.185804 -0.00123112 0)
(0.195597 -0.00108225 0)
(0.204002 -0.000906405 0)
(0.21091 -0.000727717 0)
(0.216233 -0.000533694 0)
(0.2199 -0.000335302 0)
(0.221852 -0.00013042 0)
(0.222046 7.35492e-05 0)
(0.220574 0.000277936 0)
(0.217345 0.000478711 0)
(0.212475 0.000674188 0)
(0.206006 0.000853281 0)
(0.198025 0.00103264 0)
(0.188636 0.00118279 0)
(0.177956 0.00133765 0)
(0.166118 0.0014523 0)
(0.153267 0.00157615 0)
(0.139548 0.0016867 0)
(0.12511 0.00174456 0)
(0.110108 0.00181887 0)
(0.0946944 0.00184025 0)
(0.0790123 0.00187991 0)
(0.0631949 0.00186945 0)
(0.0473606 0.00187796 0)
(0.0316082 0.00184185 0)
(0.0160389 0.00182312 0)
(0.000923718 0.0017643 0)
(-0.0137231 0.00172602 0)
(-0.027996 0.00165672 0)
(-0.04176 0.00160201 0)
(-0.054966 0.00152427 0)
(-0.0675768 0.00145942 0)
(-0.0795677 0.00137805 0)
(-0.0909231 0.00130786 0)
(-0.101634 0.00123427 0)
(-0.111692 0.00115291 0)
(-0.121102 0.00107885 0)
(-0.129868 0.000999979 0)
(-0.137997 0.00092686 0)
(-0.1455 0.000851295 0)
(-0.152386 0.000780018 0)
(-0.158668 0.000707842 0)
(-0.164355 0.000638697 0)
(-0.16946 0.000569453 0)
(-0.173992 0.000502337 0)
(-0.17796 0.000435289 0)
(-0.18137 0.000369577 0)
(-0.184232 0.000303998 0)
(-0.186549 0.000239057 0)
(-0.18833 0.000174126 0)
(-0.189567 0.000110246 0)
(-0.190253 4.65947e-05 0)
(-0.190426 -1.73809e-05 0)
(-0.190002 -8.37548e-05 0)
(-0.189017 -0.000151814 0)
(-0.187468 -0.00021812 0)
(-0.18534 -0.000289925 0)
(-0.18262 -0.000356467 0)
(-0.179294 -0.000433928 0)
(-0.175347 -0.000501952 0)
(-0.170761 -0.000584727 0)
(-0.165517 -0.000655816 0)
(-0.159604 -0.000744281 0)
(-0.153003 -0.000817051 0)
(-0.145694 -0.000911615 0)
(-0.137674 -0.000984392 0)
(-0.128927 -0.00108386 0)
(-0.119466 -0.00115634 0)
(-0.109288 -0.00125565 0)
(-0.0983988 -0.00133324 0)
(-0.0867991 -0.0014184 0)
(-0.0744402 -0.00149925 0)
(-0.0614736 -0.00156507 0)
(-0.0479006 -0.00164789 0)
(-0.0338078 -0.00170632 0)
(-0.0191152 -0.00177342 0)
(-0.00381706 -0.00181817 0)
(0.0118576 -0.0018738 0)
(0.027815 -0.00190045 0)
(0.0439909 -0.00193035 0)
(0.0603191 -0.00193935 0)
(0.0766671 -0.00194132 0)
(0.0929662 -0.00192114 0)
(0.109058 -0.00189936 0)
(0.124828 -0.00184806 0)
(0.140167 -0.0017875 0)
(0.154921 -0.00170665 0)
(0.16891 -0.00161652 0)
(0.182036 -0.00149924 0)
(0.194156 -0.00137143 0)
(0.205094 -0.00122067 0)
(0.214715 -0.00105844 0)
(0.222906 -0.00088299 0)
(0.229536 -0.000690882 0)
(0.234555 -0.000493067 0)
(0.237846 -0.000284267 0)
(0.239346 -7.88646e-05 0)
(0.239107 0.000141147 0)
(0.236963 0.000354943 0)
(0.232976 0.000578401 0)
(0.227247 0.000778403 0)
(0.21981 0.000986614 0)
(0.210675 0.00116814 0)
(0.199991 0.00135117 0)
(0.188001 0.00150334 0)
(0.174632 0.00166144 0)
(0.160021 0.00178304 0)
(0.144553 0.00188931 0)
(0.128267 0.00197431 0)
(0.111231 0.0020552 0)
(0.0936416 0.00210399 0)
(0.0757667 0.00213344 0)
(0.0576876 0.0021459 0)
(0.0396185 0.00213638 0)
(0.0216465 0.00211558 0)
(0.00394827 0.00207383 0)
(-0.0133537 0.00202686 0)
(-0.0301739 0.00195936 0)
(-0.0464317 0.00188441 0)
(-0.0619961 0.0018032 0)
(-0.076798 0.00171117 0)
(-0.0908255 0.00161058 0)
(-0.103986 0.00150828 0)
(-0.11626 0.00140103 0)
(-0.127632 0.00129136 0)
(-0.138093 0.00118446 0)
(-0.147628 0.00107428 0)
(-0.156244 0.000967481 0)
(-0.163972 0.000860655 0)
(-0.170806 0.000760884 0)
(-0.176776 0.000656342 0)
(-0.181926 0.000561447 0)
(-0.186277 0.000467484 0)
(-0.189864 0.000380662 0)
(-0.192729 0.000298354 0)
(-0.194932 0.000221496 0)
(-0.19651 0.000146557 0)
(-0.197467 8.51113e-05 0)
(-0.19788 2.27747e-05 0)
(-0.19779 -3.98205e-05 0)
(-0.197224 -0.000100351 0)
(-0.196135 -0.000147735 0)
(-0.194609 -0.000205342 0)
(-0.192662 -0.000255024 0)
(-0.190262 -0.000310551 0)
(-0.187426 -0.000360452 0)
(-0.184138 -0.000414523 0)
(-0.180414 -0.000467474 0)
(-0.1762 -0.000529919 0)
(-0.17144 -0.000593943 0)
(-0.166134 -0.000660548 0)
(-0.160213 -0.000737654 0)
(-0.153675 -0.000810706 0)
(-0.146447 -0.000899346 0)
(-0.138493 -0.00098469 0)
(-0.129788 -0.00107755 0)
(-0.120275 -0.00117234 0)
(-0.109983 -0.00127323 0)
(-0.0988863 -0.00135446 0)
(-0.0869319 -0.00147011 0)
(-0.0742206 -0.00154372 0)
(-0.060749 -0.00165148 0)
(-0.0464985 -0.00172391 0)
(-0.0315027 -0.00180418 0)
(-0.0161168 -0.00185151 0)
(-0.00027951 -0.0019039 0)
(0.0161311 -0.00195423 0)
(0.0327202 -0.00198376 0)
(0.0496133 -0.00201302 0)
(0.066594 -0.00201491 0)
(0.083599 -0.00201002 0)
(0.100463 -0.00198108 0)
(0.117017 -0.00194002 0)
(0.133138 -0.00187552 0)
(0.148648 -0.00179448 0)
(0.1634 -0.00169332 0)
(0.177204 -0.00157403 0)
(0.189932 -0.00143834 0)
(0.201441 -0.00128233 0)
(0.211587 -0.00111353 0)
(0.220234 -0.000931534 0)
(0.227281 -0.000734981 0)
(0.232668 -0.000531302 0)
(0.236243 -0.000312578 0)
(0.23794 -9.35655e-05 0)
(0.237849 0.000118303 0)
(0.235823 0.000348878 0)
(0.23197 0.000556753 0)
(0.226385 0.000766551 0)
(0.21911 0.0009543 0)
(0.210249 0.00114227 0)
(0.199886 0.00130239 0)
(0.188263 0.00145 0)
(0.175557 0.00156263 0)
(0.16178 0.00168828 0)
(0.147193 0.0017565 0)
(0.132108 0.00181738 0)
(0.116617 0.00184524 0)
(0.100888 0.00186976 0)
(0.0851181 0.0018528 0)
(0.0695899 0.00183834 0)
(0.0542769 0.00185179 0)
(0.0388106 0.00201076 0)
(0.0221359 0.00212747 0)
(0.00264469 0.00180145 0)
(-0.0206721 -0.0008123 0)
(-0.035445 -0.00469779 0)
(-0.0400829 -0.00976923 0)
(-0.0592761 -0.00449416 0)
(-0.0470343 -0.00475114 0)
(-0.0333837 -0.00493008 0)
(-0.0191652 -0.00516107 0)
(-0.00443985 -0.00529211 0)
(0.010728 -0.0054802 0)
(0.0262569 -0.00554598 0)
(0.0420409 -0.00567126 0)
(0.0579745 -0.00565527 0)
(0.0739373 -0.00569945 0)
(0.0898001 -0.00558927 0)
(0.105426 -0.00553623 0)
(0.120669 -0.00532418 0)
(0.135383 -0.00516067 0)
(0.149414 -0.00484516 0)
(0.162604 -0.00448369 0)
(0.174807 -0.00414616 0)
(0.185874 -0.00369423 0)
(0.195675 -0.00324752 0)
(0.204085 -0.00271986 0)
(0.210999 -0.00218368 0)
(0.216325 -0.00160145 0)
(0.219995 -0.00100624 0)
(0.22195 -0.000390317 0)
(0.222149 0.000219534 0)
(0.220666 0.000834564 0)
(0.217438 0.0014361 0)
(0.212565 0.00202299 0)
(0.206091 0.00256043 0)
(0.198105 0.00309866 0)
(0.188708 0.00354917 0)
(0.178022 0.00401386 0)
(0.166175 0.00435783 0)
(0.153317 0.00472945 0)
(0.13959 0.00506116 0)
(0.125142 0.00523467 0)
(0.110132 0.00545763 0)
(0.0947101 0.00552169 0)
(0.0790205 0.00564065 0)
(0.063196 0.00560917 0)
(0.0473551 0.00563462 0)
(0.0315969 0.00552621 0)
(0.0160214 0.00547009 0)
(0.000902462 0.00529323 0)
(-0.0137478 0.00517851 0)
(-0.0280236 0.00497052 0)
(-0.0417907 0.00480632 0)
(-0.0549981 0.00457303 0)
(-0.0676108 0.0043784 0)
(-0.0796023 0.00413426 0)
(-0.0909585 0.00392365 0)
(-0.10167 0.00370285 0)
(-0.111728 0.00345874 0)
(-0.121138 0.00323654 0)
(-0.129903 0.00299992 0)
(-0.138032 0.00278056 0)
(-0.145534 0.00255387 0)
(-0.152419 0.00234005 0)
(-0.1587 0.00212353 0)
(-0.164388 0.00191609 0)
(-0.169492 0.00170847 0)
(-0.174023 0.00150707 0)
(-0.177991 0.00130593 0)
(-0.181401 0.00110881 0)
(-0.184262 0.000912536 0)
(-0.18658 0.000717694 0)
(-0.188361 0.000522737 0)
(-0.1896 0.000330787 0)
(-0.190287 0.000141009 0)
(-0.190459 -5.19084e-05 0)
(-0.190035 -0.000251287 0)
(-0.189052 -0.000455564 0)
(-0.187504 -0.000653978 0)
(-0.185377 -0.000869638 0)
(-0.182658 -0.00106918 0)
(-0.179334 -0.00130159 0)
(-0.175388 -0.00150562 0)
(-0.170805 -0.00175401 0)
(-0.165562 -0.00196711 0)
(-0.159651 -0.00223287 0)
(-0.153052 -0.00245128 0)
(-0.145743 -0.00273503 0)
(-0.137724 -0.00295251 0)
(-0.128978 -0.00325201 0)
(-0.119518 -0.00346973 0)
(-0.10934 -0.00376603 0)
(-0.0984486 -0.00399957 0)
(-0.0868475 -0.00425615 0)
(-0.0744896 -0.00449944 0)
(-0.0615195 -0.00469633 0)
(-0.0479434 -0.0049426 0)
(-0.0338469 -0.00512237 0)
(-0.0191495 -0.0053205 0)
(-0.00384732 -0.00545564 0)
(0.0118341 -0.00562127 0)
(0.0277956 -0.00570698 0)
(0.0439786 -0.00579158 0)
(0.0603157 -0.00581728 0)
(0.0766705 -0.00582953 0)
(0.0929767 -0.00576436 0)
(0.109078 -0.00569988 0)
(0.12486 -0.0055434 0)
(0.140203 -0.0053696 0)
(0.154965 -0.00512481 0)
(0.168969 -0.00484384 0)
(0.182106 -0.0045024 0)
(0.194239 -0.00410968 0)
(0.205181 -0.00366689 0)
(0.214809 -0.00317236 0)
(0.223007 -0.00265058 0)
(0.229645 -0.00206884 0)
(0.234667 -0.00148397 0)
(0.237963 -0.000847231 0)
(0.239471 -0.000234575 0)
(0.239225 0.000416466 0)
(0.237072 0.00106775 0)
(0.233093 0.00173703 0)
(0.227365 0.00233509 0)
(0.219921 0.00296274 0)
(0.210781 0.00350352 0)
(0.200088 0.0040528 0)
(0.188091 0.00451134 0)
(0.174709 0.00498598 0)
(0.160087 0.00534864 0)
(0.144611 0.00567383 0)
(0.128321 0.00592566 0)
(0.11127 0.00617221 0)
(0.093666 0.00630964 0)
(0.0757808 0.0064026 0)
(0.057692 0.00643695 0)
(0.0396147 0.00641307 0)
(0.0216334 0.00634852 0)
(0.00392692 0.00621948 0)
(-0.0133829 0.00608384 0)
(-0.0302119 0.00588012 0)
(-0.0464733 0.00565429 0)
(-0.0620442 0.00540941 0)
(-0.076853 0.00513232 0)
(-0.0908823 0.00483523 0)
(-0.104046 0.00452562 0)
(-0.116324 0.00420097 0)
(-0.127694 0.00387894 0)
(-0.138158 0.00355144 0)
(-0.147693 0.00322237 0)
(-0.156309 0.0029034 0)
(-0.164035 0.00257913 0)
(-0.170868 0.00228091 0)
(-0.176837 0.00197169 0)
(-0.181986 0.0016822 0)
(-0.186335 0.00140425 0)
(-0.18992 0.0011438 0)
(-0.192783 0.00089784 0)
(-0.194984 0.000665396 0)
(-0.196559 0.000442407 0)
(-0.197515 0.000253476 0)
(-0.197923 6.73877e-05 0)
(-0.197831 -0.00012206 0)
(-0.197261 -0.000299645 0)
(-0.196172 -0.000445151 0)
(-0.194648 -0.000618915 0)
(-0.1927 -0.000768261 0)
(-0.190301 -0.00093056 0)
(-0.187467 -0.00108267 0)
(-0.18418 -0.00124666 0)
(-0.180459 -0.00140244 0)
(-0.176248 -0.00159201 0)
(-0.171488 -0.00178143 0)
(-0.166186 -0.00198449 0)
(-0.160264 -0.00221416 0)
(-0.15373 -0.00243595 0)
(-0.146502 -0.00269846 0)
(-0.138551 -0.00295284 0)
(-0.12985 -0.00323505 0)
(-0.120333 -0.003516 0)
(-0.11004 -0.00382425 0)
(-0.0989459 -0.00406284 0)
(-0.0869883 -0.00440651 0)
(-0.0742791 -0.00463556 0)
(-0.0608049 -0.00495794 0)
(-0.046548 -0.00516965 0)
(-0.0315476 -0.00541794 0)
(-0.0161548 -0.00555955 0)
(-0.000318943 -0.00570931 0)
(0.0160985 -0.00586904 0)
(0.0326973 -0.00595231 0)
(0.0495962 -0.00604434 0)
(0.0665889 -0.00604297 0)
(0.083601 -0.00603623 0)
(0.100474 -0.00594484 0)
(0.117038 -0.00582489 0)
(0.13317 -0.00562857 0)
(0.14869 -0.00538621 0)
(0.163455 -0.00507834 0)
(0.177271 -0.00472048 0)
(0.190017 -0.00431179 0)
(0.201536 -0.00384547 0)
(0.211688 -0.00333898 0)
(0.220343 -0.00279266 0)
(0.227393 -0.00220316 0)
(0.232787 -0.00159257 0)
(0.236365 -0.000943453 0)
(0.238066 -0.000276933 0)
(0.237966 0.000346756 0)
(0.235925 0.00104323 0)
(0.232086 0.00167327 0)
(0.226495 0.00230026 0)
(0.219218 0.00286629 0)
(0.210348 0.00342968 0)
(0.199977 0.00390438 0)
(0.188345 0.00435182 0)
(0.175634 0.00469173 0)
(0.161838 0.00506204 0)
(0.147239 0.0052707 0)
(0.132148 0.00545681 0)
(0.11665 0.00553787 0)
(0.100908 0.00562025 0)
(0.0851209 0.00556078 0)
(0.0695528 0.00549136 0)
(0.0542314 0.00536658 0)
(0.0394572 0.00560739 0)
(0.0262015 0.00641786 0)
(0.0134588 0.00768602 0)
(0.00246466 0.00875869 0)
(-0.00824038 0.00999942 0)
(-0.0203432 0.013469 0)
(-0.0593484 -0.00749093 0)
(-0.0471038 -0.00791949 0)
(-0.0334471 -0.00821795 0)
(-0.019223 -0.00860323 0)
(-0.00448892 -0.00882185 0)
(0.0106876 -0.0091357 0)
(0.026228 -0.00924555 0)
(0.0420237 -0.0094547 0)
(0.0579709 -0.00942818 0)
(0.0739485 -0.00950212 0)
(0.0898264 -0.00931857 0)
(0.105469 -0.00923042 0)
(0.120729 -0.00887701 0)
(0.135461 -0.00860465 0)
(0.149508 -0.00807868 0)
(0.162713 -0.00747605 0)
(0.174934 -0.00691342 0)
(0.186014 -0.00615985 0)
(0.195832 -0.00541511 0)
(0.204252 -0.00453523 0)
(0.211178 -0.00364119 0)
(0.216511 -0.00267022 0)
(0.220187 -0.00167762 0)
(0.222146 -0.00065472 0)
(0.22235 0.000370019 0)
(0.220852 0.00139319 0)
(0.217623 0.00239358 0)
(0.212745 0.00337316 0)
(0.20626 0.00426942 0)
(0.198264 0.00516692 0)
(0.188851 0.00591802 0)
(0.178152 0.00669283 0)
(0.166287 0.00726621 0)
(0.153414 0.00788575 0)
(0.139671 0.00843878 0)
(0.125205 0.0087278 0)
(0.110179 0.00909941 0)
(0.0947399 0.00920594 0)
(0.0790348 0.00940412 0)
(0.0631962 0.00935134 0)
(0.047342 0.0093934 0)
(0.0315722 0.00921243 0)
(0.0159841 0.00911897 0)
(0.000857644 0.00882346 0)
(-0.0137995 0.00863233 0)
(-0.0280813 0.00828534 0)
(-0.0418543 0.0080114 0)
(-0.0550648 0.00762237 0)
(-0.0676809 0.00729779 0)
(-0.0796735 0.00689072 0)
(-0.0910315 0.00653954 0)
(-0.101743 0.00617144 0)
(-0.111801 0.0057645 0)
(-0.121211 0.0053941 0)
(-0.129975 0.00499969 0)
(-0.138103 0.00463407 0)
(-0.145603 0.00425625 0)
(-0.152488 0.0038999 0)
(-0.158767 0.00353905 0)
(-0.164453 0.00319339 0)
(-0.169556 0.00284744 0)
(-0.174087 0.00251184 0)
(-0.178053 0.00217675 0)
(-0.181462 0.00184833 0)
(-0.184323 0.00152151 0)
(-0.18664 0.00119716 0)
(-0.18842 0.000872442 0)
(-0.189662 0.000552538 0)
(-0.190355 0.00023427 0)
(-0.190521 -8.89208e-05 0)
(-0.190098 -0.000419228 0)
(-0.189116 -0.000759733 0)
(-0.187569 -0.0010893 0)
(-0.185443 -0.00144918 0)
(-0.182725 -0.00178158 0)
(-0.179403 -0.00216895 0)
(-0.175459 -0.00250904 0)
(-0.170878 -0.002923 0)
(-0.165636 -0.00327752 0)
(-0.159727 -0.00372206 0)
(-0.153129 -0.00408557 0)
(-0.145822 -0.00455838 0)
(-0.137804 -0.0049211 0)
(-0.129059 -0.00542038 0)
(-0.119598 -0.0057837 0)
(-0.109423 -0.00627829 0)
(-0.0985258 -0.00666324 0)
(-0.0869239 -0.00709799 0)
(-0.0745656 -0.00750252 0)
(-0.061591 -0.0078275 0)
(-0.0480131 -0.00824141 0)
(-0.0339081 -0.00853851 0)
(-0.019204 -0.00886884 0)
(-0.00389669 -0.00909734 0)
(0.0117932 -0.00937204 0)
(0.0277672 -0.00951526 0)
(0.0439579 -0.00965833 0)
(0.0603056 -0.00969831 0)
(0.0766768 -0.0097204 0)
(0.0929933 -0.00960947 0)
(0.109111 -0.00950757 0)
(0.124909 -0.00924205 0)
(0.140264 -0.00895331 0)
(0.155042 -0.00854392 0)
(0.169065 -0.00808351 0)
(0.182227 -0.00750769 0)
(0.194379 -0.00685537 0)
(0.205333 -0.00611493 0)
(0.214969 -0.00529067 0)
(0.223179 -0.00442225 0)
(0.229828 -0.00345186 0)
(0.23486 -0.00247558 0)
(0.23816 -0.00141761 0)
(0.239678 -0.000389713 0)
(0.239405 0.000709083 0)
(0.237256 0.00177943 0)
(0.233285 0.00289483 0)
(0.22756 0.0038928 0)
(0.220097 0.00494083 0)
(0.210952 0.00583978 0)
(0.200238 0.00676545 0)
(0.18822 0.00752216 0)
(0.17482 0.00830885 0)
(0.160206 0.00892292 0)
(0.144703 0.00945648 0)
(0.128399 0.0098789 0)
(0.111319 0.010286 0)
(0.0936927 0.0105187 0)
(0.0757904 0.010677 0)
(0.0576843 0.0107327 0)
(0.0395922 0.0106889 0)
(0.0215934 0.0105809 0)
(0.00387913 0.0103688 0)
(-0.0134463 0.0101433 0)
(-0.0302905 0.00980087 0)
(-0.0465565 0.00942455 0)
(-0.0621346 0.0090188 0)
(-0.0769536 0.00855668 0)
(-0.0909871 0.00805634 0)
(-0.104157 0.0075437 0)
(-0.116436 0.00700268 0)
(-0.127806 0.00646141 0)
(-0.13827 0.00591867 0)
(-0.147803 0.00536973 0)
(-0.156417 0.00483955 0)
(-0.164136 0.00429779 0)
(-0.170966 0.00380368 0)
(-0.176935 0.00328416 0)
(-0.182079 0.00280472 0)
(-0.186425 0.0023399 0)
(-0.190009 0.00190791 0)
(-0.192868 0.00149583 0)
(-0.195065 0.00110735 0)
(-0.196633 0.000737752 0)
(-0.197585 0.000419283 0)
(-0.197989 0.000106754 0)
(-0.19789 -0.000206453 0)
(-0.197314 -0.000503427 0)
(-0.196227 -0.000741947 0)
(-0.194706 -0.00103361 0)
(-0.192759 -0.00128365 0)
(-0.190362 -0.00155133 0)
(-0.187532 -0.00180427 0)
(-0.184245 -0.00207615 0)
(-0.18053 -0.00233552 0)
(-0.176324 -0.00265207 0)
(-0.171566 -0.00296923 0)
(-0.166269 -0.00330536 0)
(-0.160348 -0.003689 0)
(-0.153819 -0.00405827 0)
(-0.146595 -0.00449825 0)
(-0.13865 -0.00492378 0)
(-0.129953 -0.00538966 0)
(-0.120431 -0.00586032 0)
(-0.110136 -0.00637726 0)
(-0.0990447 -0.00677055 0)
(-0.0870892 -0.00734815 0)
(-0.0743746 -0.00772772 0)
(-0.0608958 -0.00826333 0)
(-0.0466347 -0.00862319 0)
(-0.0316186 -0.00902686 0)
(-0.0162135 -0.0092677 0)
(-0.000391338 -0.00952272 0)
(0.0160498 -0.00977918 0)
(0.0326578 -0.00992673 0)
(0.0495768 -0.0100776 0)
(0.0665846 -0.0100769 0)
(0.0836148 -0.0100612 0)
(0.100501 -0.00991061 0)
(0.117083 -0.00971182 0)
(0.133231 -0.00938787 0)
(0.148769 -0.0089815 0)
(0.163554 -0.00847056 0)
(0.177397 -0.00787804 0)
(0.19017 -0.007195 0)
(0.201708 -0.00641715 0)
(0.211871 -0.00556897 0)
(0.220533 -0.00466157 0)
(0.227586 -0.00367586 0)
(0.232985 -0.00265405 0)
(0.236571 -0.00157559 0)
(0.23827 -0.000465015 0)
(0.238143 0.000594767 0)
(0.2361 0.00174561 0)
(0.232272 0.00278703 0)
(0.226668 0.00383755 0)
(0.219386 0.00477989 0)
(0.2105 0.0057213 0)
(0.200118 0.00651148 0)
(0.188454 0.00725584 0)
(0.175733 0.0078194 0)
(0.161914 0.00844098 0)
(0.147313 0.0087928 0)
(0.132207 0.0090958 0)
(0.116686 0.00923398 0)
(0.100918 0.00936333 0)
(0.0851197 0.00927201 0)
(0.0695735 0.00917593 0)
(0.0542772 0.00893659 0)
(0.0391587 0.00884653 0)
(0.0250812 0.00865127 0)
(0.0122737 0.00791661 0)
(0.00184995 0.0053509 0)
(-0.00591252 0.00202076 0)
(-0.00174126 -0.00156232 0)
(-0.0594569 -0.0104887 0)
(-0.0472081 -0.0110892 0)
(-0.0335423 -0.0115075 0)
(-0.0193097 -0.0120476 0)
(-0.00456263 -0.012354 0)
(0.0106269 -0.0127943 0)
(0.0261844 -0.0129485 0)
(0.0419979 -0.013242 0)
(0.0579656 -0.0132052 0)
(0.0739652 -0.0133094 0)
(0.0898658 -0.0130525 0)
(0.105534 -0.0129297 0)
(0.120818 -0.0124349 0)
(0.135578 -0.0120539 0)
(0.149649 -0.0113173 0)
(0.162877 -0.0104732 0)
(0.175125 -0.0096854 0)
(0.186225 -0.00862968 0)
(0.196067 -0.00758654 0)
(0.204502 -0.00635381 0)
(0.211446 -0.0051013 0)
(0.216789 -0.00374079 0)
(0.220475 -0.00234993 0)
(0.22244 -0.000917955 0)
(0.222649 0.000519205 0)
(0.221134 0.00195442 0)
(0.217903 0.00335174 0)
(0.213016 0.0047257 0)
(0.206513 0.00598151 0)
(0.198503 0.00723893 0)
(0.189066 0.00829098 0)
(0.178348 0.00937641 0)
(0.166456 0.0101793 0)
(0.15356 0.0110471 0)
(0.139793 0.0118216 0)
(0.125299 0.0122259 0)
(0.110249 0.0127462 0)
(0.0947844 0.0128949 0)
(0.0790563 0.0131721 0)
(0.0631965 0.0130976 0)
(0.0473223 0.0131557 0)
(0.0315351 0.0129017 0)
(0.0159281 0.0127708 0)
(0.000790324 0.0123561 0)
(-0.0138771 0.0120884 0)
(-0.028168 0.0116019 0)
(-0.0419498 0.0112178 0)
(-0.0551649 0.0106727 0)
(-0.0677862 0.0102179 0)
(-0.0797804 0.00964762 0)
(-0.0911409 0.00915565 0)
(-0.101854 0.00864007 0)
(-0.11191 0.00807015 0)
(-0.12132 0.00755144 0)
(-0.130082 0.00699918 0)
(-0.138209 0.00648722 0)
(-0.145707 0.00595829 0)
(-0.15259 0.00545944 0)
(-0.158867 0.00495426 0)
(-0.164552 0.00447041 0)
(-0.169653 0.00398626 0)
(-0.174182 0.00351636 0)
(-0.178146 0.00304762 0)
(-0.181554 0.0025879 0)
(-0.184414 0.0021304 0)
(-0.186731 0.00167685 0)
(-0.18851 0.00122278 0)
(-0.189755 0.000773974 0)
(-0.190456 0.000322276 0)
(-0.190614 -0.000126157 0)
(-0.190192 -0.00058751 0)
(-0.189212 -0.00106418 0)
(-0.187666 -0.00152408 0)
(-0.185542 -0.00202831 0)
(-0.182826 -0.00249348 0)
(-0.179507 -0.00303562 0)
(-0.175564 -0.00351184 0)
(-0.170987 -0.00409135 0)
(-0.165748 -0.00458588 0)
(-0.159842 -0.00521224 0)
(-0.153246 -0.00571903 0)
(-0.145941 -0.00638153 0)
(-0.137924 -0.00688976 0)
(-0.129181 -0.00758866 0)
(-0.11972 -0.00809833 0)
(-0.109548 -0.00879036 0)
(-0.0986438 -0.00932559 0)
(-0.0870395 -0.00994172 0)
(-0.0746814 -0.0105062 0)
(-0.0616994 -0.0109612 0)
(-0.0481198 -0.011539 0)
(-0.0340024 -0.0119608 0)
(-0.0192831 -0.0124148 0)
(-0.0039747 -0.0127424 0)
(0.0117339 -0.0131272 0)
(0.0277203 -0.0133252 0)
(0.0439277 -0.0135317 0)
(0.0602906 -0.0135846 0)
(0.0766851 -0.0136187 0)
(0.0930195 -0.013457 0)
(0.10916 -0.0133167 0)
(0.124983 -0.0129449 0)
(0.140354 -0.0125425 0)
(0.155161 -0.0119701 0)
(0.16921 -0.0113233 0)
(0.182395 -0.0105221 0)
(0.194579 -0.00960467 0)
(0.205555 -0.00856882 0)
(0.215206 -0.00741406 0)
(0.223442 -0.0061965 0)
(0.230099 -0.00483923 0)
(0.235153 -0.00347133 0)
(0.238455 -0.00198621 0)
(0.239986 -0.00054527 0)
(0.239678 0.00101313 0)
(0.237548 0.00249522 0)
(0.233574 0.00405292 0)
(0.227851 0.00545339 0)
(0.220358 0.00691907 0)
(0.21121 0.00818158 0)
(0.200471 0.00948507 0)
(0.188424 0.0105294 0)
(0.174984 0.0116402 0)
(0.160383 0.0124986 0)
(0.144846 0.0132423 0)
(0.12849 0.0138379 0)
(0.111407 0.0144129 0)
(0.0937214 0.014735 0)
(0.0758183 0.0149554 0)
(0.0576692 0.0150313 0)
(0.0395662 0.014971 0)
(0.0215369 0.0148176 0)
(0.00380923 0.0145242 0)
(-0.0135375 0.0142049 0)
(-0.0304019 0.0137254 0)
(-0.0466783 0.0132001 0)
(-0.0622722 0.0126262 0)
(-0.077099 0.0119824 0)
(-0.0911399 0.0112814 0)
(-0.104315 0.0105621 0)
(-0.116601 0.00980387 0)
(-0.127971 0.00904724 0)
(-0.138436 0.00828477 0)
(-0.147962 0.00751642 0)
(-0.156576 0.00677553 0)
(-0.164287 0.00601705 0)
(-0.171117 0.00532286 0)
(-0.177077 0.00459949 0)
(-0.182218 0.00392672 0)
(-0.186559 0.00327905 0)
(-0.190139 0.00266859 0)
(-0.192993 0.00209252 0)
(-0.195181 0.00155023 0)
(-0.19674 0.00103436 0)
(-0.197694 0.000578618 0)
(-0.198087 0.000140594 0)
(-0.197979 -0.000289433 0)
(-0.197394 -0.000703187 0)
(-0.19631 -0.00104142 0)
(-0.194791 -0.00144594 0)
(-0.192845 -0.00179444 0)
(-0.190446 -0.00216852 0)
(-0.187624 -0.00252591 0)
(-0.184336 -0.00290002 0)
(-0.180632 -0.00326963 0)
(-0.176429 -0.00371075 0)
(-0.17167 -0.00415247 0)
(-0.166392 -0.00462498 0)
(-0.160463 -0.0051629 0)
(-0.15396 -0.00567924 0)
(-0.146716 -0.00629567 0)
(-0.138795 -0.00688961 0)
(-0.130109 -0.0075476 0)
(-0.120567 -0.00820386 0)
(-0.1103 -0.00893058 0)
(-0.0991861 -0.00947745 0)
(-0.087228 -0.0102872 0)
(-0.0745248 -0.0108178 0)
(-0.0610184 -0.0115716 0)
(-0.0467739 -0.0120751 0)
(-0.0317071 -0.0126452 0)
(-0.0163037 -0.0129682 0)
(-0.000505154 -0.0133378 0)
(0.0159944 -0.0136999 0)
(0.0325918 -0.0138979 0)
(0.0495638 -0.0141168 0)
(0.0665738 -0.0141097 0)
(0.0836359 -0.0140944 0)
(0.100542 -0.0138808 0)
(0.117148 -0.0136047 0)
(0.133331 -0.0131491 0)
(0.148886 -0.0125842 0)
(0.163712 -0.0118717 0)
(0.17758 -0.0110405 0)
(0.190386 -0.0100817 0)
(0.201946 -0.00899775 0)
(0.212132 -0.00780445 0)
(0.22082 -0.00652971 0)
(0.227858 -0.0051533 0)
(0.23328 -0.0037208 0)
(0.236888 -0.00219984 0)
(0.238572 -0.000648221 0)
(0.23842 0.000857955 0)
(0.236382 0.00245684 0)
(0.232556 0.0038985 0)
(0.226926 0.00537795 0)
(0.219641 0.00669511 0)
(0.21072 0.00801028 0)
(0.20034 0.00912372 0)
(0.18863 0.0101656 0)
(0.175865 0.0109542 0)
(0.162029 0.0118243 0)
(0.147439 0.0123117 0)
(0.132301 0.0127427 0)
(0.116705 0.0129355 0)
(0.100921 0.0131217 0)
(0.085103 0.0129874 0)
(0.0695309 0.0128326 0)
(0.0542557 0.0124888 0)
(0.0394042 0.0125158 0)
(0.025459 0.0126174 0)
(0.0126114 0.0122647 0)
(0.00278208 0.0115259 0)
(-0.00492017 0.0101159 0)
(-0.00595907 0.0113504 0)
(-0.0596018 -0.0134878 0)
(-0.0473474 -0.0142608 0)
(-0.0336694 -0.0147995 0)
(-0.0194255 -0.0154949 0)
(-0.00466109 -0.0158897 0)
(0.0105457 -0.0164572 0)
(0.0261262 -0.0166562 0)
(0.0419634 -0.0170348 0)
(0.0579584 -0.016988 0)
(0.0739874 -0.017123 0)
(0.0899183 -0.016793 0)
(0.105621 -0.016636 0)
(0.120936 -0.0159999 0)
(0.135734 -0.0155106 0)
(0.149837 -0.0145631 0)
(0.163095 -0.0134772 0)
(0.17538 -0.012464 0)
(0.186507 -0.0111054 0)
(0.196381 -0.00976339 0)
(0.204837 -0.00817693 0)
(0.211805 -0.00656513 0)
(0.217161 -0.00481406 0)
(0.22086 -0.00302399 0)
(0.22283 -0.00118111 0)
(0.223042 0.000668383 0)
(0.221516 0.00251741 0)
(0.218276 0.00431172 0)
(0.213377 0.00608165 0)
(0.206851 0.00769794 0)
(0.198821 0.0093162 0)
(0.189353 0.0106697 0)
(0.178609 0.0120665 0)
(0.166681 0.0130991 0)
(0.153755 0.0142154 0)
(0.139957 0.0152116 0)
(0.125425 0.0157311 0)
(0.110342 0.0164 0)
(0.0948437 0.0165904 0)
(0.0790848 0.0169464 0)
(0.0631964 0.0168496 0)
(0.0472956 0.016923 0)
(0.0314856 0.0165951 0)
(0.0158533 0.0164269 0)
(0.00070042 0.0158924 0)
(-0.0139807 0.0155477 0)
(-0.0282837 0.0149209 0)
(-0.0420773 0.0144261 0)
(-0.0552984 0.0137244 0)
(-0.0679266 0.0131389 0)
(-0.0799229 0.0124051 0)
(-0.0912868 0.0117721 0)
(-0.102001 0.0111088 0)
(-0.112056 0.0103756 0)
(-0.121466 0.00970845 0)
(-0.130225 0.00899826 0)
(-0.13835 0.00833989 0)
(-0.145845 0.00765983 0)
(-0.152726 0.00701845 0)
(-0.159 0.00636894 0)
(-0.164683 0.00574693 0)
(-0.169782 0.00512462 0)
(-0.174309 0.00452056 0)
(-0.178272 0.00391825 0)
(-0.181678 0.00332738 0)
(-0.184537 0.00273878 0)
(-0.186852 0.00215646 0)
(-0.188632 0.00157151 0)
(-0.189876 0.000996438 0)
(-0.190583 0.000410197 0)
(-0.190738 -0.000164061 0)
(-0.190316 -0.000755971 0)
(-0.18934 -0.00136863 0)
(-0.187795 -0.00195837 0)
(-0.185674 -0.00260678 0)
(-0.182961 -0.00320464 0)
(-0.179645 -0.00390148 0)
(-0.175705 -0.00451358 0)
(-0.171133 -0.00525899 0)
(-0.165898 -0.00589227 0)
(-0.159996 -0.00670296 0)
(-0.153403 -0.00735106 0)
(-0.1461 -0.0082041 0)
(-0.138087 -0.00885838 0)
(-0.129345 -0.0097563 0)
(-0.119884 -0.0104122 0)
(-0.109714 -0.0113059 0)
(-0.0988042 -0.0119829 0)
(-0.0871949 -0.0127866 0)
(-0.0748353 -0.0135098 0)
(-0.0618458 -0.0140945 0)
(-0.0482633 -0.0148391 0)
(-0.0341293 -0.0153809 0)
(-0.0193866 -0.0159669 0)
(-0.00408058 -0.0163857 0)
(0.0116564 -0.0168909 0)
(0.0276551 -0.0171344 0)
(0.0438898 -0.0174144 0)
(0.060274 -0.0174692 0)
(0.0766982 -0.0175242 0)
(0.0930504 -0.0173051 0)
(0.109222 -0.017134 0)
(0.125081 -0.016649 0)
(0.140473 -0.0161428 0)
(0.155324 -0.0154006 0)
(0.169405 -0.0145725 0)
(0.182617 -0.0135368 0)
(0.194835 -0.0123669 0)
(0.205849 -0.0110186 0)
(0.215508 -0.00953931 0)
(0.223807 -0.00797946 0)
(0.230439 -0.0062174 0)
(0.235561 -0.00447773 0)
(0.23882 -0.00254569 0)
(0.240411 -0.000708587 0)
(0.240051 0.00132402 0)
(0.237966 0.00319737 0)
(0.233958 0.00522294 0)
(0.22824 0.00700936 0)
(0.220713 0.00891301 0)
(0.211557 0.0105242 0)
(0.200783 0.0122224 0)
(0.188724 0.0135382 0)
(0.175206 0.014989 0)
(0.160628 0.0160647 0)
(0.145023 0.0170413 0)
(0.128603 0.0178112 0)
(0.111525 0.0185481 0)
(0.0937622 0.0189609 0)
(0.0758743 0.0192385 0)
(0.0576423 0.019344 0)
(0.039538 0.0192529 0)
(0.0214681 0.019068 0)
(0.00371708 0.0186869 0)
(-0.0136494 0.0182719 0)
(-0.0305479 0.0176535 0)
(-0.0468339 0.016985 0)
(-0.0624526 0.0162332 0)
(-0.0772865 0.0154114 0)
(-0.0913418 0.0145058 0)
(-0.104519 0.0135832 0)
(-0.116821 0.0126072 0)
(-0.128184 0.011634 0)
(-0.138653 0.0106512 0)
(-0.148174 0.00966331 0)
(-0.156786 0.00871208 0)
(-0.164494 0.00773658 0)
(-0.17132 0.00683537 0)
(-0.177268 0.00591228 0)
(-0.182403 0.00504932 0)
(-0.186739 0.00421641 0)
(-0.190308 0.00343174 0)
(-0.193157 0.00268652 0)
(-0.195333 0.00199167 0)
(-0.196877 0.00133142 0)
(-0.197833 0.000737708 0)
(-0.198215 0.000171391 0)
(-0.198097 -0.000370142 0)
(-0.197502 -0.000901008 0)
(-0.196423 -0.0013452 0)
(-0.194897 -0.0018531 0)
(-0.192962 -0.00230541 0)
(-0.19055 -0.00278512 0)
(-0.187738 -0.00324434 0)
(-0.184458 -0.00373271 0)
(-0.180752 -0.0041941 0)
(-0.176565 -0.00477945 0)
(-0.171794 -0.0053254 0)
(-0.166546 -0.0059436 0)
(-0.160604 -0.00663725 0)
(-0.154143 -0.00729243 0)
(-0.146865 -0.00809712 0)
(-0.138989 -0.00884574 0)
(-0.130303 -0.00970635 0)
(-0.120744 -0.0105519 0)
(-0.110517 -0.0114714 0)
(-0.0993713 -0.0121919 0)
(-0.0874026 -0.0132326 0)
(-0.0747308 -0.0138998 0)
(-0.0611663 -0.0148809 0)
(-0.046958 -0.015529 0)
(-0.0318221 -0.0162788 0)
(-0.0164333 -0.0166485 0)
(-0.000640071 -0.0171669 0)
(0.0159404 -0.0176387 0)
(0.032496 -0.0178657 0)
(0.0495552 -0.0181725 0)
(0.0665518 -0.0181355 0)
(0.0836631 -0.01815 0)
(0.100604 -0.017848 0)
(0.11723 -0.0175107 0)
(0.133475 -0.0169171 0)
(0.149031 -0.0161912 0)
(0.163932 -0.0152815 0)
(0.177814 -0.0142053 0)
(0.190657 -0.0129776 0)
(0.202254 -0.0115742 0)
(0.212452 -0.0100419 0)
(0.221203 -0.00840208 0)
(0.228198 -0.00661328 0)
(0.233686 -0.00480348 0)
(0.237307 -0.00283217 0)
(0.238944 -0.000811312 0)
(0.238848 0.00110728 0)
(0.236756 0.00317033 0)
(0.232972 0.00500808 0)
(0.227266 0.00693168 0)
(0.219996 0.00860383 0)
(0.211023 0.0103188 0)
(0.200638 0.011732 0)
(0.1889 0.013094 0)
(0.176053 0.0140969 0)
(0.16219 0.0152168 0)
(0.147608 0.0158335 0)
(0.132391 0.0164043 0)
(0.116711 0.0166552 0)
(0.100918 0.0168843 0)
(0.0850793 0.0166998 0)
(0.0694795 0.0165125 0)
(0.0541426 0.0160231 0)
(0.0393674 0.0158444 0)
(0.0255919 0.0153185 0)
(0.0127669 0.0138071 0)
(0.000978388 0.0104492 0)
(-0.00769194 0.00569556 0)
(-0.00717103 0.00311907 0)
(-0.0597831 -0.0164887 0)
(-0.0475217 -0.017435 0)
(-0.0338285 -0.0180946 0)
(-0.0195705 -0.0189462 0)
(-0.00478448 -0.01943 0)
(0.010444 -0.0201256 0)
(0.0260532 -0.0203699 0)
(0.04192 -0.0208346 0)
(0.0579491 -0.0207781 0)
(0.074015 -0.0209448 0)
(0.0899837 -0.0205419 0)
(0.105729 -0.0203513 0)
(0.121084 -0.019574 0)
(0.13593 -0.0189768 0)
(0.150072 -0.0178181 0)
(0.163368 -0.0164898 0)
(0.1757 -0.015251 0)
(0.186859 -0.0135889 0)
(0.196773 -0.0119472 0)
(0.205255 -0.0100059 0)
(0.212253 -0.00803384 0)
(0.217626 -0.00589095 0)
(0.221341 -0.00370043 0)
(0.223318 -0.00144543 0)
(0.223529 0.000819921 0)
(0.222 0.00308044 0)
(0.218744 0.00527497 0)
(0.213829 0.00744212 0)
(0.207274 0.00941999 0)
(0.19922 0.0114002 0)
(0.189712 0.013056 0)
(0.178935 0.0147648 0)
(0.166963 0.0160275 0)
(0.153999 0.0173928 0)
(0.14016 0.0186109 0)
(0.125582 0.0192454 0)
(0.110459 0.0200629 0)
(0.0949176 0.0202943 0)
(0.0791203 0.0207289 0)
(0.0631961 0.0206088 0)