/*--------------------------------*- C++ -*----------------------------------*\
| =========                 |                                                 |
| \\      /  F ield         | OpenFOAM: The Open Source CFD Toolbox           |
|  \\    /   O peration     | Version:  3.0.1                                 |
|   \\  /    A nd           | Web:      www.OpenFOAM.org                      |
|    \\/     M anipulation  |                                                 |
\*---------------------------------------------------------------------------*/
FoamFile
{
    version     2.0;
    format      ascii;
    class       surfaceScalarField;
    location    "22.4";
    object      alphaPhi;
}
// * * * * * * * * * * * * * * * * * * * * * * * * * * * * * * * * * * * * * //

dimensions      [0 3 -1 0 0 0 0];

internalField   nonuniform List<scalar> 
42423
(
0.000101391
1.76978e-05
8.34707e-05
1.79202e-05
6.51476e-05
1.83231e-05
4.65742e-05
1.85734e-05
2.81689e-05
1.84054e-05
9.87785e-06
1.8291e-05
-7.95336e-06
1.78312e-05
-2.52197e-05
1.72664e-05
-4.17416e-05
1.65219e-05
-5.73961e-05
1.56544e-05
-7.21688e-05
1.47727e-05
-8.59789e-05
1.38101e-05
-9.87963e-05
1.28173e-05
-0.000110639
1.1843e-05
-0.000121504
1.08649e-05
-0.000131414
9.91005e-06
-0.000140373
8.9586e-06
-0.000148408
8.03479e-06
-0.000155555
7.147e-06
-0.000161854
6.29951e-06
-0.000167326
5.47154e-06
-0.000172001
4.67512e-06
-0.000175894
3.89346e-06
-0.000179031
3.13644e-06
-0.000181435
2.40394e-06
-0.000183152
1.71708e-06
-0.000184185
1.03312e-06
-0.000184501
3.15794e-07
-0.000184052
-4.49206e-07
-0.000182875
-1.17644e-06
-0.000180987
-1.8883e-06
-0.000178267
-2.71957e-06
-0.000174767
-3.5e-06
-0.000170398
-4.36907e-06
-0.000165185
-5.21356e-06
-0.000159184
-6.00074e-06
-0.000152163
-7.0206e-06
-0.000144196
-7.96732e-06
-0.000135337
-8.85922e-06
-0.000125409
-9.92782e-06
-0.000114562
-1.08476e-05
-0.00010242
-1.21417e-05
-8.94242e-05
-1.29957e-05
-7.55028e-05
-1.39214e-05
-6.03756e-05
-1.51273e-05
-4.44313e-05
-1.59444e-05
-2.76935e-05
-1.67378e-05
-1.02209e-05
-1.74727e-05
8.08159e-06
-1.83025e-05
2.67181e-05
-1.86366e-05
4.57399e-05
-1.90219e-05
6.48589e-05
-1.9119e-05
8.3957e-05
-1.90982e-05
0.000102781
-1.88239e-05
0.000120951
-1.81703e-05
0.000138385
-1.74336e-05
0.000154832
-1.64476e-05
0.00016993
-1.50978e-05
0.000183577
-1.36473e-05
0.00019549
-1.19129e-05
0.000205578
-1.00884e-05
0.000213683
-8.10442e-06
0.000219537
-5.85485e-06
0.000223131
-3.59338e-06
0.000224453
-1.32253e-06
0.000223187
1.26663e-06
0.000219678
3.50822e-06
0.000213733
5.94524e-06
0.000205649
8.0839e-06
0.000195473
1.01763e-05
0.00018349
1.19825e-05
0.000169625
1.38652e-05
0.00015426
1.53649e-05
0.000137782
1.64779e-05
0.000120169
1.76129e-05
0.00010182
1.83493e-05
8.31069e-05
1.87132e-05
6.39006e-05
1.92063e-05
4.46633e-05
1.92373e-05
2.56897e-05
1.89736e-05
6.92956e-06
1.87602e-05
-1.12533e-05
1.81829e-05
-2.88586e-05
1.76052e-05
-4.56508e-05
1.67923e-05
-6.16408e-05
1.59899e-05
-7.66653e-05
1.50245e-05
-9.06516e-05
1.39863e-05
-0.000103596
1.29442e-05
-0.000115504
1.19079e-05
-0.000126241
1.07369e-05
-0.000135946
9.7049e-06
-0.000144547
8.60152e-06
-0.000152035
7.48771e-06
-0.000158417
6.38225e-06
-0.000163776
5.35944e-06
-0.000168138
4.36192e-06
-0.000171679
3.54106e-06
-0.000174322
2.64255e-06
-0.000176104
1.78242e-06
-0.000177281
1.17686e-06
-0.000177754
4.72787e-07
-0.000177397
-3.56795e-07
-0.000176526
-8.71166e-07
-0.000175007
-1.51881e-06
-0.000172772
-2.2349e-06
-0.000169986
-2.78682e-06
-0.000166506
-3.47945e-06
-0.000162413
-4.0927e-06
-0.000157663
-4.75013e-06
-0.000152198
-5.4651e-06
-0.000145981
-6.2169e-06
-0.000138993
-6.98846e-06
-0.000131209
-7.78369e-06
-0.000122653
-8.55594e-06
-0.000113218
-9.43577e-06
-0.00010293
-1.02882e-05
-9.1778e-05
-1.11516e-05
-7.97665e-05
-1.20116e-05
-6.68919e-05
-1.28747e-05
-5.31446e-05
-1.37474e-05
-3.85963e-05
-1.45484e-05
-2.32094e-05
-1.53869e-05
-7.1111e-06
-1.60984e-05
9.64853e-06
-1.67597e-05
2.70274e-05
-1.7379e-05
4.48413e-05
-1.78139e-05
6.2969e-05
-1.81278e-05
8.12114e-05
-1.82425e-05
9.93778e-05
-1.81665e-05
0.000117196
-1.7818e-05
0.000134424
-1.72287e-05
0.000150818
-1.63937e-05
0.000166065
-1.52471e-05
0.000179905
-1.38406e-05
0.000192083
-1.21776e-05
0.000202341
-1.02587e-05
0.00021049
-8.14813e-06
0.000216334
-5.84475e-06
0.000219736
-3.4014e-06
0.000220665
-9.29176e-07
0.000219137
1.52723e-06
0.000215054
4.08322e-06
0.000208563
6.49066e-06
0.000199785
8.77851e-06
0.000188936
1.08494e-05
0.000176228
1.27074e-05
0.00016195
1.42783e-05
0.000146288
1.56615e-05
0.000129489
1.67988e-05
0.00011189
1.75995e-05
9.36749e-05
1.8215e-05
7.52427e-05
1.84322e-05
5.67216e-05
1.85212e-05
3.84724e-05
1.82491e-05
2.06627e-05
1.78097e-05
3.37431e-06
1.72884e-05
-1.31698e-05
1.65441e-05
-2.89133e-05
1.57436e-05
-4.37624e-05
1.4849e-05
-5.76613e-05
1.3899e-05
-7.07041e-05
1.30428e-05
-8.26679e-05
1.19638e-05
-9.37113e-05
1.10433e-05
-0.000103823
1.01114e-05
-0.000112997
9.1745e-06
-0.000121284
8.28673e-06
-0.00012868
7.39646e-06
-0.000135284
6.60362e-06
-0.000141056
5.77179e-06
-0.000146088
5.03249e-06
-0.000150286
4.19738e-06
-0.000153759
3.47331e-06
-0.000156592
2.83262e-06
-0.000158685
2.09335e-06
-0.000160115
1.42977e-06
-0.000160881
7.66337e-07
-0.000160791
-9.01041e-08
-0.000160164
-6.26568e-07
-0.000158978
-1.18599e-06
-0.000157041
-1.93731e-06
-0.000154506
-2.53467e-06
-0.000151386
-3.1206e-06
-0.00014756
-3.82602e-06
-0.000143102
-4.45785e-06
-0.000137819
-5.28312e-06
-0.000131881
-5.93814e-06
-0.000125072
-6.80866e-06
-0.000117493
-7.5791e-06
-0.000109061
-8.43202e-06
-9.97385e-05
-9.32247e-06
-8.95272e-05
-1.02113e-05
-7.83772e-05
-1.115e-05
-6.6293e-05
-1.20843e-05
-5.33165e-05
-1.29766e-05
-3.94325e-05
-1.38841e-05
-2.47031e-05
-1.47294e-05
-9.14598e-06
-1.55572e-05
7.02866e-06
-1.61747e-05
2.38466e-05
-1.6818e-05
4.1169e-05
-1.73225e-05
5.88399e-05
-1.7671e-05
7.67e-05
-1.78602e-05
9.45536e-05
-1.78537e-05
0.000112213
-1.76595e-05
0.000129463
-1.72498e-05
0.000146013
-1.65503e-05
0.000161692
-1.56792e-05
0.000176229
-1.45371e-05
0.000189357
-1.31279e-05
0.000200886
-1.15295e-05
0.000210529
-9.64226e-06
0.000218113
-7.5846e-06
0.000223514
-5.40092e-06
0.000226643
-3.12911e-06
0.000227381
-7.37385e-07
0.000225814
1.56616e-06
0.000221877
3.93752e-06
0.000215685
6.19133e-06
0.000207361
8.32429e-06
0.00019713
1.02312e-05
0.000185034
1.20961e-05
0.000171371
1.36631e-05
0.000156327
1.50436e-05
0.000140203
1.61237e-05
0.000123372
1.68311e-05
0.000105824
1.75481e-05
8.79617e-05
1.78624e-05
6.99251e-05
1.80367e-05
5.18798e-05
1.80452e-05
3.41546e-05
1.77253e-05
1.67742e-05
1.73804e-05
-4.12261e-08
1.68154e-05
-1.61711e-05
1.61298e-05
-3.1515e-05
1.53439e-05
-4.59962e-05
1.44812e-05
-5.95832e-05
1.35869e-05
-7.21916e-05
1.26084e-05
-8.38746e-05
1.1683e-05
-9.45747e-05
1.07002e-05
-0.000104325
9.75065e-06
-0.000113108
8.78261e-06
-0.00012099
7.88239e-06
-0.00012809
7.10005e-06
-0.000134292
6.20202e-06
-0.00013956
5.26732e-06
-0.000144018
4.45829e-06
-0.00014764
3.62231e-06
-0.000150461
2.821e-06
-0.00015265
2.18867e-06
-0.000153985
1.33454e-06
-0.000154629
6.44243e-07
-0.000154655
2.65889e-08
-0.000154111
-5.43954e-07
-0.000152855
-1.25656e-06
-0.000150847
-2.00825e-06
-0.000148227
-2.61932e-06
-0.000144943
-3.28426e-06
-0.000140963
-3.97963e-06
-0.00013626
-4.70388e-06
-0.00013083
-5.4298e-06
-0.00012474
-6.09e-06
-0.000117842
-6.89822e-06
-0.000110144
-7.6975e-06
-0.000101658
-8.48658e-06
-9.23368e-05
-9.32072e-06
-8.21995e-05
-1.01373e-05
-7.11705e-05
-1.10291e-05
-5.93235e-05
-1.1847e-05
-4.6726e-05
-1.25976e-05
-3.31633e-05
-1.35627e-05
-1.8776e-05
-1.43873e-05
-3.70334e-06
-1.50727e-05
1.22183e-05
-1.59217e-05
2.88205e-05
-1.66022e-05
4.59985e-05
-1.7178e-05
6.34632e-05
-1.74648e-05
8.11025e-05
-1.76394e-05
9.88037e-05
-1.77013e-05
0.000116292
-1.74888e-05
0.000133364
-1.70714e-05
0.000149714
-1.63503e-05
0.000165231
-1.55168e-05
0.000179493
-1.42625e-05
0.000192281
-1.27879e-05
0.000203494
-1.12133e-05
0.000212814
-9.31981e-06
0.000219942
-7.12829e-06
0.000224904
-4.9619e-06
0.000227524
-2.61964e-06
0.000227801
-2.7729e-07
0.00022579
2.01075e-06
0.000221286
4.50447e-06
0.000214675
6.61005e-06
0.000205946
8.72942e-06
0.000195282
1.06638e-05
0.000183039
1.2243e-05
0.000169288
1.3751e-05
0.000154304
1.49838e-05
0.000138467
1.58376e-05
0.000121825
1.66418e-05
0.000104671
1.71532e-05
8.72646e-05
1.74068e-05
6.97529e-05
1.75117e-05
5.22974e-05
1.74555e-05
3.49756e-05
1.73217e-05
1.81729e-05
1.68028e-05
1.72438e-06
1.64485e-05
-1.41495e-05
1.58739e-05
-2.9327e-05
1.51775e-05
-4.3782e-05
1.4455e-05
-5.74273e-05
1.36453e-05
-7.02135e-05
1.27862e-05
-8.21267e-05
1.19132e-05
-9.31279e-05
1.10012e-05
-0.000103188
1.00605e-05
-0.00011233
9.14151e-06
-0.00012054
8.21008e-06
-0.000127841
7.30126e-06
-0.000134228
6.3865e-06
-0.000139693
5.46514e-06
-0.000144289
4.59598e-06
-0.000148033
3.74377e-06
-0.00015093
2.89769e-06
-0.000153009
2.07902e-06
-0.000154311
1.30181e-06
-0.000154855
5.44147e-07
-0.000154556
-2.99406e-07
-0.000153455
-1.10083e-06
-0.000151609
-1.84611e-06
-0.000149056
-2.5535e-06
-0.000145766
-3.28938e-06
-0.000141769
-3.99766e-06
-0.000137112
-4.65674e-06
-0.000131696
-5.41555e-06
-0.00012555
-6.14607e-06
-0.000118691
-6.85894e-06
-0.000111132
-7.55904e-06
-0.000102932
-8.19999e-06
-9.39293e-05
-9.003e-06
-8.41591e-05
-9.77021e-06
-7.38128e-05
-1.03463e-05
-6.26238e-05
-1.1189e-05
-5.07548e-05
-1.18691e-05
-3.8033e-05
-1.27218e-05
-2.45827e-05
-1.34504e-05
-1.05667e-05
-1.4016e-05
4.26995e-06
-1.48367e-05
1.97265e-05
-1.54566e-05
3.56496e-05
-1.59231e-05
5.21141e-05
-1.64646e-05
6.885e-05
-1.6736e-05
8.57877e-05
-1.69378e-05
0.000102638
-1.68504e-05
0.000119102
-1.64636e-05
0.000135083
-1.59817e-05
0.000150255
-1.5172e-05
-1.4395e-05
0.000101411
3.54025e-05
8.34831e-05
3.58477e-05
6.51521e-05
3.66541e-05
4.65709e-05
3.71546e-05
2.81566e-05
3.68196e-05
9.85893e-06
3.65887e-05
-7.97656e-06
3.56667e-05
-2.52478e-05
3.45376e-05
-4.17743e-05
3.30484e-05
-5.74331e-05
3.13133e-05
-7.2211e-05
2.95506e-05
-8.60268e-05
2.76259e-05
-9.8848e-05
2.56386e-05
-0.000110694
2.3689e-05
-0.000121559
2.17301e-05
-0.000131468
1.98187e-05
-0.000140425
1.79156e-05
-0.00014846
1.60697e-05
-0.000155611
1.42984e-05
-0.000161914
1.26018e-05
-0.000167381
1.09391e-05
-0.00017205
9.34409e-06
-0.000175947
7.79047e-06
-0.000179091
6.28068e-06
-0.000181506
4.81817e-06
-0.000183216
3.4273e-06
-0.000184236
2.05317e-06
-0.000184553
6.32771e-07
-0.000184106
-8.95856e-07
-0.00018293
-2.35227e-06
-0.000181043
-3.77539e-06
-0.000178324
-5.43856e-06
-0.000174826
-6.99791e-06
-0.000170461
-8.73492e-06
-0.000165246
-1.04282e-05
-0.000159246
-1.20004e-05
-0.000152225
-1.40425e-05
-0.000144261
-1.59313e-05
-0.000135401
-1.77188e-05
-0.000125471
-1.98576e-05
-0.00011463
-2.16889e-05
-0.000102484
-2.42883e-05
-8.94832e-05
-2.59963e-05
-7.55662e-05
-2.78385e-05
-6.04356e-05
-3.02579e-05
-4.44775e-05
-3.19026e-05
-2.77395e-05
-3.34759e-05
-1.02639e-05
-3.49485e-05
8.04953e-06
-3.66161e-05
2.67006e-05
-3.72878e-05
4.57248e-05
-3.80463e-05
6.48558e-05
-3.82501e-05
8.39743e-05
-3.82169e-05
0.000102809
-3.76589e-05
0.000120983
-3.63439e-05
0.000138429
-3.48801e-05
0.000154902
-3.2921e-05
0.000170001
-3.01967e-05
0.000183658
-2.73041e-05
0.000195587
-2.38418e-05
0.000205682
-2.01834e-05
0.000213794
-1.62164e-05
0.000219656
-1.17175e-05
0.000223256
-7.19297e-06
0.000224589
-2.65569e-06
0.000223308
2.54744e-06
0.000219804
7.01241e-06
0.000213856
1.18932e-05
0.000205767
1.61724e-05
0.000195593
2.03498e-05
0.000183589
2.39871e-05
0.000169713
2.77407e-05
0.00015434
3.07376e-05
0.00013784
3.29785e-05
0.000120215
3.52376e-05
0.000101855
3.67091e-05
8.31305e-05
3.7438e-05
6.39001e-05
3.84367e-05
4.46507e-05
3.84868e-05
2.5657e-05
3.79673e-05
6.88681e-06
3.75304e-05
-1.13118e-05
3.63815e-05
-2.89305e-05
3.5224e-05
-4.57314e-05
3.35932e-05
-6.17288e-05
3.19873e-05
-7.67643e-05
3.006e-05
-9.07513e-05
2.79733e-05
-0.000103697
2.58902e-05
-0.000115615
2.38255e-05
-0.000126357
2.14789e-05
-0.000136064
1.94118e-05
-0.000144665
1.7203e-05
-0.000152132
1.49539e-05
-0.000158515
1.27657e-05
-0.000163881
1.07255e-05
-0.000168235
8.71558e-06
-0.000171768
7.07477e-06
-0.000174407
5.28141e-06
-0.000176193
3.56838e-06
-0.000177361
2.34413e-06
-0.000177834
9.46469e-07
-0.000177469
-7.21993e-07
-0.000176597
-1.74329e-06
-0.000175071
-3.04472e-06
-0.000172842
-4.46344e-06
-0.000170045
-5.58474e-06
-0.000166561
-6.96346e-06
-0.000162476
-8.17776e-06
-0.000157721
-9.50439e-06
-0.000152255
-1.09316e-05
-0.000146033
-1.24386e-05
-0.000139033
-1.39883e-05
-0.000131254
-1.55631e-05
-0.000122694
-1.71162e-05
-0.000113256
-1.88738e-05
-0.000102971
-2.05736e-05
-9.18207e-05
-2.23017e-05
-7.98057e-05
-2.40267e-05
-6.69204e-05
-2.576e-05
-5.31745e-05
-2.74935e-05
-3.86174e-05
-2.91056e-05
-2.32265e-05
-3.0778e-05
-7.11135e-06
-3.22137e-05
9.65855e-06
-3.35298e-05
2.70343e-05
-3.47549e-05
4.48605e-05
-3.56403e-05
6.29981e-05
-3.62656e-05
8.12473e-05
-3.64918e-05
9.94297e-05
-3.63491e-05
0.000117269
-3.56572e-05
0.000134503
-3.44634e-05
0.00015091
-3.28003e-05
0.000166177
-3.05148e-05
0.000180017
-2.76807e-05
0.00019221
-2.43704e-05
0.000202484
-2.05333e-05
0.000210629
-1.62927e-05
0.000216478
-1.16943e-05
0.000219877
-6.80072e-06
0.000220805
-1.85671e-06
0.000219266
3.06581e-06
0.00021518
8.16904e-06
0.000208679
1.29919e-05
0.000199884
1.75732e-05
0.000189024
2.17099e-05
0.000176305
2.54257e-05
0.000162009
2.85747e-05
0.000146343
3.13272e-05
0.000129511
3.36309e-05
0.000111894
3.5217e-05
9.3663e-05
3.64455e-05
7.5247e-05
3.68482e-05
5.66711e-05
3.70971e-05
3.83967e-05
3.65235e-05
2.06057e-05
3.56008e-05
3.29997e-06
3.45942e-05
-1.32571e-05
3.31012e-05
-2.90075e-05
3.14939e-05
-4.38687e-05
2.97102e-05
-5.77622e-05
2.77925e-05
-7.08083e-05
2.6089e-05
-8.27696e-05
2.39251e-05
-9.38221e-05
2.20958e-05
-0.000103922
2.02111e-05
-0.000113088
1.83404e-05
-0.000121374
1.65734e-05
-0.000128795
1.48173e-05
-0.000135377
1.31856e-05
-0.000141144
1.15388e-05
-0.000146184
1.00723e-05
-0.00015038
8.39375e-06
-0.000153832
6.92474e-06
-0.000156667
5.66768e-06
-0.000158771
4.19734e-06
-0.000160195
2.85389e-06
-0.000160963
1.53465e-06
-0.000160862
-1.91364e-07
-0.000160238
-1.2508e-06
-0.000159048
-2.37586e-06
-0.000157103
-3.88222e-06
-0.000154563
-5.07421e-06
-0.00015144
-6.24407e-06
-0.000147618
-7.64829e-06
-0.00014316
-8.91542e-06
-0.000137869
-1.05745e-05
-0.000131929
-1.18777e-05
-0.000125127
-1.36108e-05
-0.000117545
-1.51608e-05
-0.000109101
-1.68766e-05
-9.97758e-05
-1.86476e-05
-8.95619e-05
-2.04252e-05
-7.8413e-05
-2.22991e-05
-6.63254e-05
-2.41719e-05
-5.33415e-05
-2.59605e-05
-3.94567e-05
-2.7769e-05
-2.47214e-05
-2.94648e-05
-9.155e-06
-3.11237e-05
7.02109e-06
-3.23509e-05
2.38479e-05
-3.36449e-05
4.11802e-05
-3.46549e-05
5.88659e-05
-3.53569e-05
7.67389e-05
-3.57333e-05
9.45948e-05
-3.57097e-05
0.000112269
-3.53341e-05
0.000129535
-3.45153e-05
0.000146099
-3.31148e-05
0.000161782
-3.1362e-05
0.000176342
-2.90974e-05
0.000189486
-2.62724e-05
0.000201006
-2.30495e-05
0.000210657
-1.92928e-05
0.000218256
-1.51838e-05
0.000223658
-1.08033e-05
0.000226795
-6.26643e-06
0.000227525
-1.46735e-06
0.000225936
3.15498e-06
0.000221994
7.87954e-06
0.000215799
1.23862e-05
0.000207463
1.66611e-05
0.000197224
2.047e-05
0.000185114
2.42057e-05
0.000171423
2.73545e-05
0.000156366
3.01003e-05
0.000140229
3.22607e-05
0.000123371
3.36894e-05
0.000105819
3.50996e-05
8.79349e-05
3.57469e-05
6.98855e-05
3.6086e-05
5.18376e-05
3.60932e-05
3.41027e-05
3.54602e-05
1.67066e-05
3.47766e-05
-1.20196e-07
3.36422e-05
-1.62405e-05
3.22502e-05
-3.16128e-05
3.07163e-05
-4.60909e-05
2.89593e-05
-5.96717e-05
2.71678e-05
-7.22863e-05
2.5223e-05
-8.39637e-05
2.33603e-05
-9.46754e-05
2.14119e-05
-0.00010443
1.95057e-05
-0.000113212
1.75642e-05
-0.000121094
1.57648e-05
-0.000128185
1.41909e-05
-0.000134401
1.24181e-05
-0.000139666
1.05321e-05
-0.000144107
8.89967e-06
-0.000147709
7.22429e-06
-0.000150548
5.65978e-06
-0.000152736
4.37675e-06
-0.000154076
2.67408e-06
-0.000154704
1.27248e-06
-0.000154724
4.64283e-08
-0.000154189
-1.07904e-06
-0.000152927
-2.51786e-06
-0.000150919
-4.01667e-06
-0.000148287
-5.25114e-06
-0.000144995
-6.57687e-06
-0.000141017
-7.95763e-06
-0.000136309
-9.41132e-06
-0.000130887
-1.08521e-05
-0.000124803
-1.21743e-05
-0.00011789
-1.38104e-05
-0.000110191
-1.53965e-05
-0.0001017
-1.69786e-05
-9.23697e-05
-1.86506e-05
-8.22318e-05
-2.02753e-05
-7.12046e-05
-2.20563e-05
-5.93576e-05
-2.3694e-05
-4.67717e-05
-2.51836e-05
-3.32093e-05
-2.71252e-05
-1.88109e-05
-2.87858e-05
-3.72321e-06
-3.01605e-05
1.22045e-05
-3.18496e-05
2.88278e-05
-3.32256e-05
4.59933e-05
-3.43436e-05
6.34555e-05
-3.49271e-05
8.11135e-05
-3.52976e-05
9.88262e-05
-3.54141e-05
0.000116315
-3.49774e-05
0.000133395
-3.41514e-05
0.000149784
-3.27394e-05
0.000165299
-3.10318e-05
0.000179559
-2.85232e-05
0.000192356
-2.55848e-05
0.000203596
-2.24537e-05
0.000212925
-1.86485e-05
0.000220054
-1.4258e-05
0.000225024
-9.9318e-06
0.00022765
-5.24589e-06
0.000227928
-5.55169e-07
0.000225915
4.02375e-06
0.000221409
9.01039e-06
0.000214798
1.32211e-05
0.000206057
1.74699e-05
0.000195385
2.13362e-05
0.000183133
2.44945e-05
0.000169369
2.75157e-05
0.000154374
2.99788e-05
0.000138526
3.16853e-05
0.000121871
3.32966e-05
0.000104708
3.43167e-05
8.72966e-05
3.48178e-05
6.97709e-05
3.50373e-05
5.23046e-05
3.49218e-05
3.49758e-05
3.46506e-05
1.8168e-05
3.36106e-05
1.71066e-06
3.29058e-05
-1.41704e-05
3.1755e-05
-2.93545e-05
3.03615e-05
-4.38147e-05
2.89152e-05
-5.74632e-05
2.72938e-05
-7.02533e-05
2.55763e-05
-8.21689e-05
2.38288e-05
-9.31758e-05
2.20082e-05
-0.000103237
2.01219e-05
-0.000112385
1.8289e-05
-0.000120594
1.64198e-05
-0.000127896
1.46025e-05
-0.000134282
1.27726e-05
-0.000139752
1.09358e-05
-0.000144353
9.19687e-06
-0.000148093
7.48364e-06
-0.000150985
5.78973e-06
-0.000153064
4.15822e-06
-0.000154364
2.60174e-06
-0.000154911
1.09042e-06
-0.000154609
-6.0062e-07
-0.000153507
-2.20295e-06
-0.00015166
-3.69372e-06
-0.000149106
-5.10698e-06
-0.000145816
-6.57992e-06
-0.000141815
-7.99788e-06
-0.000137158
-9.31447e-06
-0.000131746
-1.08272e-05
-0.000125604
-1.22877e-05
-0.000118736
-1.37269e-05
-0.000111176
-1.51199e-05
-0.000102975
-1.64009e-05
-9.39727e-05
-1.80051e-05
-8.41986e-05
-1.95444e-05
-7.38543e-05
-2.06907e-05
-6.26638e-05
-2.23797e-05
-5.07958e-05
-2.37372e-05
-3.80717e-05
-2.5446e-05
-2.46144e-05
-2.69078e-05
-1.05944e-05
-2.80362e-05
4.23667e-06
-2.96678e-05
1.96951e-05
-3.09152e-05
3.56164e-05
-3.18447e-05
5.20843e-05
-3.29326e-05
6.88324e-05
-3.34843e-05
8.57697e-05
-3.38753e-05
0.00010263
-3.37106e-05
0.00011911
-3.29443e-05
0.000135104
-3.19756e-05
0.000150293
-3.03612e-05
-2.88026e-05
0.000101447
5.31238e-05
8.35032e-05
5.3792e-05
6.51557e-05
5.50015e-05
4.65593e-05
5.5751e-05
2.81283e-05
5.52507e-05
9.81906e-06
5.48979e-05
-8.02932e-06
5.35151e-05
-2.53108e-05
5.18191e-05
-4.18454e-05
4.9583e-05
-5.75113e-05
4.69792e-05
-7.22943e-05
4.43336e-05
-8.61136e-05
4.14451e-05
-9.894e-05
3.8465e-05
-0.000110786
3.55352e-05
-0.000121652
3.25964e-05
-0.000131563
2.97294e-05
-0.000140519
2.68718e-05
-0.000148556
2.41061e-05
-0.000155706
2.14484e-05
-0.000162
1.88963e-05
-0.000167467
1.64057e-05
-0.000172143
1.40202e-05
-0.000176046
1.16935e-05
-0.000179192
9.42717e-06
-0.0001816
7.22568e-06
-0.000183307
5.13456e-06
-0.000184328
3.07356e-06
-0.000184625
9.30191e-07
-0.000184165
-1.35557e-06
-0.000182989
-3.52865e-06
-0.000181103
-5.66136e-06
-0.000178386
-8.15539e-06
-0.000174891
-1.04932e-05
-0.000170533
-1.30928e-05
-0.000165316
-1.56453e-05
-0.000159318
-1.79983e-05
-0.000152298
-2.10621e-05
-0.000144341
-2.38889e-05
-0.00013548
-2.65798e-05
-0.00012555
-2.97878e-05
-0.000114721
-3.25174e-05
-0.000102568
-3.6442e-05
-8.95612e-05
-3.90031e-05
-7.5654e-05
-4.17458e-05
-6.05173e-05
-4.53948e-05
-4.45425e-05
-4.78775e-05
-2.78011e-05
-5.02174e-05
-1.03235e-05
-5.24262e-05
8.01003e-06
-5.49497e-05
2.66733e-05
-5.59511e-05
4.57111e-05
-5.70842e-05
6.4851e-05
-5.73902e-05
8.39877e-05
-5.73537e-05
0.000102844
-5.65149e-05
0.000121039
-5.45393e-05
0.000138494
-5.2335e-05
0.000154998
-4.94252e-05
0.000170101
-4.53005e-05
0.000183768
-4.09714e-05
0.000195714
-3.57879e-05
0.00020584
-3.03092e-05
0.000213949
-2.43251e-05
0.000219812
-1.75806e-05
0.000223419
-1.07999e-05
0.000224768
-4.00513e-06
0.000223468
3.84719e-06
0.000219957
1.05238e-05
0.000214023
1.78266e-05
0.00020593
2.42655e-05
0.000195762
3.05177e-05
0.000183711
3.60387e-05
0.000169828
4.1623e-05
0.000154444
4.61215e-05
0.000137911
4.95115e-05
0.000120266
5.28832e-05
0.000101887
5.50883e-05
8.31565e-05
5.61682e-05
6.38982e-05
5.7695e-05
4.46311e-05
5.7754e-05
2.56143e-05
5.69841e-05
6.83375e-06
5.63109e-05
-1.13774e-05
5.45926e-05
-2.90222e-05
5.28688e-05
-4.58315e-05
5.04025e-05
-6.18245e-05
4.79803e-05
-7.68762e-05
4.51117e-05
-9.08604e-05
4.19575e-05
-0.000103793
3.88225e-05
-0.000115721
3.57536e-05
-0.000126463
3.22208e-05
-0.000136165
2.91144e-05
-0.000144777
2.5815e-05
-0.000152238
2.24142e-05
-0.000158608
1.91359e-05
-0.000163972
1.60901e-05
-0.000168331
1.30743e-05
-0.00017187
1.0614e-05
-0.000174491
7.90248e-06
-0.000176272
5.34852e-06
-0.000177438
3.51064e-06
-0.000177932
1.44034e-06
-0.000177559
-1.09527e-06
-0.000176706
-2.5961e-06
-0.000175129
-4.62194e-06
-0.000172905
-6.6868e-06
-0.000170128
-8.36184e-06
-0.000166645
-1.04468e-05
-0.000162548
-1.22748e-05
-0.000157796
-1.42564e-05
-0.000152334
-1.63938e-05
-0.000146128
-1.86447e-05
-0.000139135
-2.09809e-05
-0.000131324
-2.3374e-05
-0.000122787
-2.56534e-05
-0.000113349
-2.83118e-05
-0.000103066
-3.08565e-05
-9.19103e-05
-3.34574e-05
-7.98972e-05
-3.60399e-05
-6.70107e-05
-3.86466e-05
-5.32554e-05
-4.12488e-05
-3.86942e-05
-4.36669e-05
-2.33136e-05
-4.61588e-05
-7.19312e-06
-4.83342e-05
9.59497e-06
-5.0318e-05
2.69858e-05
-5.21459e-05
4.48223e-05
-5.34769e-05
6.29785e-05
-5.44219e-05
8.12498e-05
-5.47633e-05
9.94488e-05
-5.45482e-05
0.000117308
-5.35167e-05
0.000134578
-5.1733e-05
0.000150998
-4.92207e-05
0.000166282
-4.57992e-05
0.000180153
-4.15514e-05
0.000192345
-3.6563e-05
0.000202647
-3.08353e-05
0.000210815
-2.44611e-05
0.000216677
-1.75563e-05
0.000220084
-1.02076e-05
0.000220995
-2.76756e-06
0.000219425
4.63537e-06
0.000215341
1.22527e-05
0.000208837
1.94962e-05
0.000200031
2.63793e-05
0.000189148
3.25922e-05
0.000176407
3.81673e-05
0.000162095
4.28866e-05
0.000146445
4.69768e-05
0.000129552
5.05241e-05
0.000111916
5.28527e-05
9.36594e-05
5.47024e-05
7.52185e-05
5.52891e-05
5.66273e-05
5.56883e-05
3.83333e-05
5.48176e-05
2.05411e-05
5.3393e-05
3.21834e-06
5.19169e-05
-1.33511e-05
4.96706e-05
-2.90975e-05
4.72404e-05
-4.39725e-05
4.45852e-05
-5.78589e-05
4.1679e-05
-7.08927e-05
3.91228e-05
-8.28608e-05
3.58933e-05
-9.39102e-05
3.31452e-05
-0.000104005
3.03058e-05
-0.000113173
2.75087e-05
-0.00012146
2.48604e-05
-0.000128891
2.22479e-05
-0.000135457
1.97521e-05
-0.000141231
1.73122e-05
-0.000146269
1.51106e-05
-0.000150462
1.25868e-05
-0.000153909
1.03712e-05
-0.000156738
8.4967e-06
-0.000158836
6.29577e-06
-0.000160274
4.2922e-06
-0.000161065
2.32499e-06
-0.000160935
-3.21137e-07
-0.000160307
-1.87875e-06
-0.000159134
-3.54869e-06
-0.000157178
-5.83889e-06
-0.000154648
-7.60374e-06
-0.000151525
-9.36731e-06
-0.000147697
-1.14759e-05
-0.000143246
-1.33668e-05
-0.00013795
-1.58701e-05
-0.000132014
-1.78138e-05
-0.000125218
-2.04069e-05
-0.000117645
-2.27334e-05
-0.000109202
-2.53199e-05
-9.9873e-05
-2.79767e-05
-8.96513e-05
-3.0647e-05
-7.85007e-05
-3.34497e-05
-6.6422e-05
-3.62506e-05
-5.34227e-05
-3.89599e-05
-3.95518e-05
-4.164e-05
-2.48162e-05
-4.42004e-05
-9.23389e-06
-4.67061e-05
6.96207e-06
-4.85469e-05
2.38053e-05
-5.04883e-05
4.11473e-05
-5.1997e-05
5.88399e-05
-5.30495e-05
7.67323e-05
-5.36259e-05
9.46114e-05
-5.35889e-05
0.000112305
-5.30279e-05
0.000129566
-5.17764e-05
0.000146164
-4.97124e-05
0.00016188
-4.7079e-05
0.000176446
-4.36635e-05
0.000189611
-3.94376e-05
0.000201154
-3.45924e-05
0.000210815
-2.89535e-05
0.000218419
-2.27878e-05
0.000223835
-1.62198e-05
0.000226984
-9.41491e-06
0.00022771
-2.19345e-06
0.000226092
4.77283e-06
0.00022215
1.18215e-05
0.000215948
1.85877e-05
0.000207586
2.50236e-05
0.000197335
3.07209e-05
0.000185225
3.63153e-05
0.000171503
4.10763e-05
0.000156429
4.51751e-05
0.000140263
4.84262e-05
0.000123385
5.05673e-05
0.000105832
5.26529e-05
8.79157e-05
5.36631e-05
6.98548e-05
5.4147e-05
5.17999e-05
5.41481e-05
3.40427e-05
5.32175e-05
1.66407e-05
5.21785e-05
-1.916e-07
5.04745e-05
-1.63131e-05
4.83717e-05
-3.17053e-05
4.61084e-05
-4.619e-05
4.34441e-05
-5.97634e-05
4.07411e-05
-7.23711e-05
3.78308e-05
-8.40431e-05
3.50323e-05
-9.47623e-05
3.21311e-05
-0.00010452
2.92635e-05
-0.000113301
2.63447e-05
-0.000121179
2.36432e-05
-0.000128262
2.12743e-05
-0.000134484
1.86395e-05
-0.000139756
1.58041e-05
-0.000144213
1.33564e-05
-0.000147784
1.07958e-05
-0.000150632
8.50735e-06
-0.000152814
6.55923e-06
-0.000154165
4.02514e-06
-0.000154795
1.90223e-06
-0.000154814
6.52812e-08
-0.00015427
-1.62317e-06
-0.000152998
-3.79006e-06
-0.000150988
-6.02619e-06
-0.000148365
-7.87389e-06
-0.000145066
-9.87567e-06
-0.000141098
-1.19263e-05
-0.000136392
-1.41175e-05
-0.000130968
-1.62759e-05
-0.000124888
-1.82537e-05
-0.000117987
-2.07121e-05
-0.000110289
-2.30946e-05
-0.000101791
-2.5476e-05
-9.24628e-05
-2.79789e-05
-8.23182e-05
-3.04199e-05
-7.13078e-05
-3.30668e-05
-5.94411e-05
-3.55607e-05
-4.68553e-05
-3.77694e-05
-3.33031e-05
-4.06775e-05
-1.89174e-05
-4.31714e-05
-3.7951e-06
-4.52829e-05
1.21397e-05
-4.77844e-05
2.87713e-05
-4.98573e-05
4.59568e-05
-5.15292e-05
6.34082e-05
-5.23786e-05
8.10819e-05
-5.29713e-05
9.88194e-05
-5.31517e-05
0.000116334
-5.24921e-05
0.000133426
-5.12437e-05
0.000149859
-4.91721e-05
0.000165362
-4.65353e-05
0.000179659
-4.28202e-05
0.000192479
-3.84052e-05
0.000203721
-3.36957e-05
0.000213054
-2.79812e-05
0.000220201
-2.14052e-05
0.000225182
-1.49135e-05
0.000227821
-7.88447e-06
0.000228101
-8.35474e-07
0.000226082
6.04275e-06
0.000221579
1.35137e-05
0.000214964
1.9836e-05
0.000206204
2.62296e-05
0.000195518
3.20216e-05
0.00018325
3.67631e-05
0.000169459
4.13063e-05
0.000154451
4.49864e-05
0.000138584
4.75523e-05
0.000121907
4.99739e-05
0.000104732
5.14922e-05
8.73266e-05
5.22228e-05
6.97668e-05
5.25972e-05
5.22806e-05
5.24079e-05
3.49544e-05
5.19768e-05
1.81343e-05
5.04307e-05
1.66097e-06
4.93792e-05
-1.4229e-05
4.7645e-05
-2.9419e-05
4.55515e-05
-4.38844e-05
4.33806e-05
-5.75373e-05
4.09467e-05
-7.03325e-05
3.83716e-05
-8.22527e-05
3.57489e-05
-9.32649e-05
3.30204e-05
-0.000103326
3.01828e-05
-0.000112475
2.74379e-05
-0.000120683
2.46285e-05
-0.000127986
2.19046e-05
-0.000134377
1.91635e-05
-0.000139849
1.64081e-05
-0.000144442
1.37895e-05
-0.000148183
1.12249e-05
-0.000151076
8.68339e-06
-0.000153154
6.23588e-06
-0.000154449
3.89671e-06
-0.000154986
1.62715e-06
-0.000154672
-9.14369e-07
-0.000153567
-3.30836e-06
-0.000151717
-5.54338e-06
-0.00014916
-7.66394e-06
-0.000145873
-9.86741e-06
-0.000141869
-1.20015e-05
-0.00013721
-1.39734e-05
-0.000131801
-1.62364e-05
-0.000125676
-1.84129e-05
-0.000118791
-2.06115e-05
-0.000111231
-2.268e-05
-0.00010303
-2.46026e-05
-9.40349e-05
-2.69999e-05
-8.42527e-05
-2.93266e-05
-7.38994e-05
-3.1044e-05
-6.27055e-05
-3.35737e-05
-5.08331e-05
-3.56097e-05
-3.81165e-05
-3.81627e-05
-2.46642e-05
-4.03602e-05
-1.0642e-05
-4.20586e-05
4.19753e-06
-4.45075e-05
1.96575e-05
-4.63753e-05
3.55802e-05
-4.77675e-05
5.20493e-05
-4.94019e-05
6.88031e-05
-5.02383e-05
8.57571e-05
-5.08294e-05
0.000102629
-5.05831e-05
0.000119128
-4.94429e-05
0.000135149
-4.79967e-05
0.000150366
-4.55789e-05
-4.32379e-05
0.000101502
7.08702e-05
8.35332e-05
7.17612e-05
6.51611e-05
7.33736e-05
4.65419e-05
7.43702e-05
2.80858e-05
7.37068e-05
9.75907e-06
7.32246e-05
-8.10954e-06
7.13837e-05
-2.54078e-05
6.91173e-05
-4.19558e-05
6.6131e-05
-5.76337e-05
6.2657e-05
-7.24252e-05
5.91252e-05
-8.62491e-05
5.5269e-05
-9.90798e-05
5.12956e-05
-0.00011093
4.73854e-05
-0.000121798
4.34645e-05
-0.000131709
3.96404e-05
-0.000140667
3.583e-05
-0.000148702
3.21406e-05
-0.000155849
2.85954e-05
-0.000162142
2.51897e-05
-0.000167611
2.18748e-05
-0.000172286
1.86953e-05
-0.000176183
1.55903e-05
-0.000179332
1.25765e-05
-0.000181755
9.64854e-06
-0.000183457
6.83668e-06
-0.000184465
4.08102e-06
-0.000184733
1.19815e-06
-0.000184255
-1.83391e-06
-0.000183077
-4.70579e-06
-0.000181193
-7.54606e-06
-0.000178479
-1.08691e-05
-0.000174988
-1.39847e-05
-0.000170643
-1.74376e-05
-0.000165422
-2.08664e-05
-0.000159425
-2.39947e-05
-0.00015241
-2.80777e-05
-0.000144462
-3.18366e-05
-0.000135599
-3.54429e-05
-0.000125668
-3.97194e-05
-0.000114858
-4.3327e-05
-0.000102696
-4.86037e-05
-8.96788e-05
-5.20208e-05
-7.57869e-05
-5.56378e-05
-6.06438e-05
-6.05379e-05
-4.46408e-05
-6.38806e-05
-2.78945e-05
-6.69638e-05
-1.0414e-05
-6.99068e-05
7.95053e-06
-7.33143e-05
2.66255e-05
-7.46262e-05
4.56828e-05
-7.61416e-05
6.48458e-05
-7.65534e-05
8.40106e-05
-7.65185e-05
0.000102885
-7.53894e-05
0.000121105
-7.27593e-05
0.000138586
-6.98162e-05
0.000155125
-6.5964e-05
0.000170239
-6.04153e-05
0.000183932
-5.46641e-05
0.000195898
-4.77545e-05
0.000206045
-4.04559e-05
0.000214172
-3.24522e-05
0.000220043
-2.34516e-05
0.000223655
-1.44123e-05
0.000224999
-5.349e-06
0.000223709
5.1369e-06
0.000220193
1.40398e-05
0.000214271
2.37491e-05
0.000206168
3.2368e-05
0.000196008
4.06781e-05
0.000183897
4.81499e-05
0.000169998
5.55212e-05
0.000154602
6.15182e-05
0.000138016
6.60975e-05
0.000120343
7.05558e-05
0.000101934
7.3497e-05
8.31897e-05
7.49129e-05
6.38888e-05
7.69959e-05
4.46052e-05
7.70376e-05
2.55485e-05
7.60409e-05
6.7488e-06
7.51106e-05
-1.14785e-05
7.282e-05
-2.91537e-05
7.0544e-05
-4.59782e-05
6.72269e-05
-6.19674e-05
6.39695e-05
-7.7035e-05
6.01793e-05
-9.10325e-05
5.59549e-05
-0.000103988
5.17783e-05
-0.000115886
4.7651e-05
-0.000126628
4.29626e-05
-0.000136332
3.88185e-05
-0.000144949
3.44321e-05
-0.000152406
2.98717e-05
-0.00015877
2.54997e-05
-0.000164107
2.14269e-05
-0.000168457
1.74247e-05
-0.000172022
1.41782e-05
-0.000174617
1.04974e-05
-0.000176381
7.11305e-06
-0.000177581
4.71048e-06
-0.000178067
1.9259e-06
-0.000177687