/*--------------------------------*- C++ -*----------------------------------*\
| =========                 |                                                 |
| \\      /  F ield         | OpenFOAM: The Open Source CFD Toolbox           |
|  \\    /   O peration     | Version:  3.0.1                                 |
|   \\  /    A nd           | Web:      www.OpenFOAM.org                      |
|    \\/     M anipulation  |                                                 |
\*---------------------------------------------------------------------------*/
FoamFile
{
    version     2.0;
    format      ascii;
    class       volScalarField;
    location    "88.2";
    object      p_rgh;
}
// * * * * * * * * * * * * * * * * * * * * * * * * * * * * * * * * * * * * * //

dimensions      [1 -1 -2 0 0 0 0];

internalField   nonuniform List<scalar> 
21420
(
-48.11
-77.8027
-107.009
-135.023
-161.51
-186.342
-209.407
-230.677
-250.123
-267.758
-283.615
-297.729
-310.147
-320.921
-330.096
-337.721
-343.836
-348.481
-351.673
-353.418
-353.794
-352.818
-350.409
-346.561
-341.249
-334.44
-326.09
-316.146
-304.548
-291.245
-276.176
-259.281
-240.538
-219.917
-197.43
-173.084
-146.927
-119.063
-89.5933
-58.6572
-26.4848
6.67229
40.5039
74.6864
108.898
142.733
175.779
207.659
237.949
266.234
292.156
315.355
335.509
352.337
365.591
375.092
380.715
382.301
379.895
373.448
363.059
348.871
331.089
309.979
285.816
258.92
229.668
198.46
165.709
131.818
97.1975
62.2678
27.3872
-7.02696
-40.0551
-72.5804
-103.919
-133.848
-162.184
-188.793
-213.572
-236.452
-257.396
-276.38
-293.403
-308.475
-321.619
-332.866
-342.254
-349.831
-355.659
-359.797
-362.293
-363.204
-362.638
-360.624
-357.211
-352.432
-346.305
-338.832
-330.006
-319.811
-308.217
-295.191
-280.698
-264.704
-247.18
-228.104
-207.463
-185.263
-161.527
-136.296
-109.641
-81.6596
-52.4776
-21.795
9.34198
41.1557
73.3885
105.748
137.913
169.531
200.223
229.595
257.239
282.747
305.72
325.778
342.572
355.795
365.197
370.585
371.731
368.788
361.662
350.402
335.211
316.314
293.996
268.6
240.512
210.157
177.983
144.461
110.067
75.2712
40.5229
6.24222
-27.1819
-59.4389
-90.2521
-119.408
-146.75
-172.175
-195.625
-217.085
-236.57
-254.12
-269.793
-283.662
-295.811
-306.326
-315.288
-322.782
-328.891
-333.678
-337.203
-339.528
-340.673
-340.632
-339.472
-337.163
-333.685
-329.012
-323.114
-315.953
-307.485
-297.658
-286.424
-273.741
-259.56
-243.839
-226.541
-207.633
-187.089
-164.906
-141.097
-115.695
-88.7764
-60.4484
-30.8471
-0.147806
31.392
63.495
95.8621
128.15
159.989
190.984
220.727
248.803
274.795
298.29
318.895
336.25
350.037
359.997
365.94
367.658
365.28
358.735
348.11
333.598
315.449
293.967
269.506
242.468
213.286
182.41
150.3
117.409
84.1725
50.9946
18.2849
-13.6941
-44.6255
-74.2792
-102.467
-129.047
-153.917
-177.007
-198.285
-217.744
-235.397
-251.275
-265.427
-277.914
-288.798
-298.147
-306.03
-312.514
-317.657
-321.512
-324.135
-325.554
-325.784
-324.865
-322.834
-319.682
-315.413
-310.019
-303.48
-295.772
-286.857
-276.697
-265.24
-252.434
-238.227
-222.572
-205.425
-186.752
-166.533
-144.763
-121.456
-96.6587
-70.4495
-42.929
-14.2145
15.5035
46.1194
77.4065
108.811
140.053
170.801
200.679
229.276
256.195
281.035
303.363
322.794
338.954
351.515
360.22
364.848
365.249
361.338
353.413
341.357
325.359
305.735
282.836
257.093
228.968
198.962
167.585
135.342
102.711
70.1096
37.9717
6.80208
-22.7093
-51.2335
-78.4522
-104.13
-128.146
-150.444
-171.009
-189.867
-207.083
-222.736
-236.924
-249.747
-261.304
-271.689
-280.978
-289.229
-296.48
-302.745
-308.016
-312.261
-315.43
-317.445
-318.203
-317.643
-315.679
-312.185
-307.058
-300.224
-291.62
-281.181
-268.867
-254.657
-238.561
-220.599
-200.82
-179.316
-156.183
-131.565
-105.586
-78.3151
-49.8803
-19.9886
13.1068
43.5555
73.5652
102.986
131.637
159.305
185.657
210.385
233.252
253.968
272.33
288.096
301.115
311.256
318.363
322.323
-48.1765
-77.8764
-107.087
-135.104
-161.593
-186.425
-209.489
-230.757
-250.202
-267.834
-283.688
-297.799
-310.215
-320.985
-330.158
-337.781
-343.894
-348.538
-351.73
-353.474
-353.852
-352.875
-350.466
-346.619
-341.309
-334.502
-326.155
-316.214
-304.619
-291.319
-276.253
-259.361
-240.62
-220.001
-197.516
-173.17
-147.011
-119.145
-89.6712
-58.7296
-26.5488
6.61812
40.4612
74.6569
108.884
142.735
175.798
207.696
238.004
266.307
292.246
315.461
335.63
352.47
365.735
375.243
380.87
382.466
380.045
373.596
363.201
349.004
331.209
310.084
285.905
258.992
229.721
198.494
165.725
131.817
97.1803
62.236
27.3432
-7.08266
-40.1227
-72.6545
-103.999
-133.932
-162.27
-188.882
-213.662
-236.541
-257.484
-276.467
-293.488
-308.559
-321.701
-332.945
-342.331
-349.906
-355.732
-359.867
-362.359
-363.269
-362.701
-360.686
-357.272
-352.492
-346.366
-338.894
-330.069
-319.875
-308.284
-295.26
-280.769
-264.778
-247.255
-228.181
-207.541
-185.342
-161.605
-136.373
-109.716
-81.7314
-52.5482
-21.8559
9.28537
41.1084
73.352
105.724
137.903
169.536
200.245
229.634
257.297
282.824
305.815
325.889
342.698
355.934
365.345
370.738
371.897
368.939
361.81
350.542
335.34
316.427
294.093
268.678
240.57
210.194
178
144.458
110.046
75.2321
40.4684
6.17441
-27.2603
-59.5257
-90.3448
-119.504
-146.848
-172.273
-195.721
-217.178
-236.66
-254.207
-269.875
-283.74
-295.886
-306.396
-315.354
-322.844
-328.95
-333.735
-337.258
-339.581
-340.724
-340.684
-339.524
-337.215
-333.738
-329.067
-323.171
-316.012
-307.546
-297.721
-286.49
-273.81
-259.631
-243.913
-226.617
-207.711
-187.169
-164.987
-141.177
-115.775
-88.8541
-60.5218
-30.9153
-0.207911
31.3411
63.4554
95.8355
128.139
159.993
191.005
220.767
248.862
274.872
298.385
319.008
336.378
350.178
360.146
366.095
367.823
365.431
358.885
348.251
333.726
315.562
294.063
269.583
242.524
213.322
182.426
150.297
117.389
84.1369
50.9466
18.2232
-13.7639
-44.7023
-74.3611
-102.552
-129.134
-154.004
-177.094
-198.371
-217.828
-235.478
-251.353
-265.503
-277.985
-288.866
-298.212
-306.093
-312.574
-317.714
-321.567
-324.189
-325.606
-325.833
-324.916
-322.884
-319.732
-315.464
-310.071
-303.533
-295.826
-286.914
-276.756
-265.302
-252.498
-238.295
-222.643
-205.497
-186.826
-166.609
-144.839
-121.531
-96.7326
-70.5204
-42.9955
-14.276
15.4497
46.0749
77.3746
108.793
140.048
170.811
200.707
229.321
256.258
281.116
303.462
322.911
339.086
351.66
360.376
365.011
365.415
361.51
353.568
341.505
325.495
305.854
282.936
257.171
229.022
198.994
167.596
135.333
102.684
70.0676
37.9156
6.74249
-22.7784
-51.3089
-78.5313
-104.211
-128.226
-150.523
-171.084
-189.939
-207.15
-222.799
-236.982
-249.8
-261.353
-271.734
-281.021
-289.27
-296.52
-302.785
-308.057
-312.303
-315.475
-317.494
-318.255
-317.7
-315.74
-312.248
-307.125
-300.295
-291.694
-281.258
-268.945
-254.736
-238.641
-220.679
-200.897
-179.39
-156.254
-131.633
-105.648
-78.3719
-49.9307
-20.0315
13.0795
43.5381
73.5579
102.99
131.653
159.335
185.701
210.442
233.322
254.051
272.424
288.201
301.228
311.376
318.488
322.45
-48.3093
-78.0239
-107.244
-135.267
-161.759
-186.591
-209.654
-230.918
-250.358
-267.985
-283.834
-297.939
-310.349
-321.115
-330.283
-337.901
-344.011
-348.651
-351.844
-353.586
-353.968
-352.988
-350.58
-346.735
-341.429
-334.626
-326.284
-316.349
-304.76
-291.467
-276.407
-259.521
-240.785
-220.17
-197.686
-173.34
-147.18
-119.308
-89.8268
-58.8743
-26.6767
6.50996
40.376
74.5981
108.855
142.739
175.837
207.77
238.116
266.454
292.428
315.675
335.873
352.738
366.023
375.545
381.181
382.794
380.346
373.893
363.485
349.27
331.45
310.295
286.084
259.135
229.827
198.563
165.759
131.816
97.147
62.1737
27.2567
-7.19177
-40.2559
-72.8002
-104.155
-134.096
-162.441
-189.055
-213.835
-236.713
-257.654
-276.634
-293.651
-308.717
-321.854
-333.094
-342.476
-350.046
-355.866
-359.996
-362.478
-363.389
-362.816
-360.798
-357.381
-352.601
-346.474
-339.003
-330.181
-319.991
-308.403
-295.384
-280.898
-264.91
-247.392
-228.32
-207.684
-185.485
-161.748
-136.514
-109.853
-81.861
-52.6765
-21.9622
9.18644
41.0281
73.2934
105.69
137.897
169.561
200.304
229.729
257.429
282.992
306.019
326.127
342.966
356.227
365.656
371.059
372.239
369.257
362.121
350.838
335.611
316.669
294.3
268.847
240.699
210.283
178.048
144.467
110.016
75.1681
40.3736
6.05326
-27.403
-59.6852
-90.516
-119.682
-147.03
-172.454
-195.9
-217.352
-236.828
-254.366
-270.027
-283.883
-296.02
-306.522
-315.472
-322.956
-329.056
-333.835
-337.354
-339.676
-340.812
-340.776
-339.615
-337.308
-333.833
-329.165
-323.273
-316.118
-307.657
-297.837
-286.611
-273.936
-259.762
-244.049
-226.758
-207.855
-187.317
-165.137
-141.327
-115.924
-88.9975
-60.6566
-31.0394
-0.316616
31.2512
63.3881
95.7944
128.127
160.014
191.061
220.859
248.991
275.039
298.589
319.246
336.646
350.471
360.459
366.417
368.164
365.749
359.196
348.544
333.995
315.801
294.265
269.747
242.649
213.406
182.47
150.304
117.36
84.0772
50.8612
18.1118
-13.892
-44.8445
-74.5133
-102.711
-129.297
-154.168
-177.257
-198.531
-217.984
-235.629
-251.498
-265.641
-278.117
-288.991
-298.331
-306.206
-312.681
-317.817
-321.666
-324.285
-325.699
-325.921
-325.006
-322.974
-319.821
-315.554
-310.163
-303.628
-295.925
-287.017
-276.864
-265.415
-252.617
-238.419
-222.772
-205.631
-186.964
-166.749
-144.98
-121.672
-96.8706
-70.6528
-43.1194
-14.3902
15.3505
45.9941
77.3184
108.765
140.045
170.839
200.768
229.416
256.39
281.283
303.665
323.148
339.353
351.954
360.691
365.339
365.749
361.855
353.881
341.804
325.768
306.093
283.135
257.326
229.132
199.058
167.617
135.314
102.63
69.9838
37.8039
6.62339
-22.9165
-51.4598
-78.6893
-104.372
-128.387
-150.68
-171.236
-190.082
-207.285
-222.923
-237.097
-249.905
-261.45
-271.824
-281.105
-289.351
-296.599
-302.865
-308.139
-312.389
-315.565
-317.591
-318.358
-317.815
-315.86
-312.376
-307.26
-300.436
-291.842
-281.411
-269.101
-254.895
-238.8
-220.837
-201.052
-179.54
-156.397
-131.767
-105.772
-78.4855
-50.0318
-20.1164
13.0243
43.5029
73.5432
102.999
131.686
159.395
185.789
210.557
233.463
254.217
272.613
288.411
301.456
311.617
318.738
322.705
-48.5088
-78.2453
-107.48
-135.512
-162.008
-186.84
-209.901
-231.16
-250.594
-268.213
-284.053
-298.15
-310.551
-321.309
-330.47
-338.082
-344.186
-348.822
-352.013
-353.754
-354.141
-353.157
-350.751
-346.909
-341.608
-334.812
-326.478
-316.551
-304.972
-291.689
-276.638
-259.761
-241.033
-220.423
-197.943
-173.596
-147.433
-119.553
-90.0603
-59.0915
-26.8688
6.34746
40.248
74.5098
108.812
142.745
175.894
207.882
238.282
266.675
292.7
315.996
336.237
353.14
366.455
375.999
381.646
383.281
380.803
374.341
363.914
349.669
331.812
310.613
286.352
259.349
229.986
198.668
165.809
131.813
97.097
62.08
27.1267
-7.3554
-40.4558
-73.0188
-104.39
-134.343
-162.695
-189.314
-214.095
-236.972
-257.909
-276.884
-293.894
-308.954
-322.084
-333.317
-342.691
-350.254
-356.067
-360.187
-362.658
-363.566
-362.986
-360.963
-357.543
-352.761
-346.635
-339.166
-330.348
-320.162
-308.581
-295.568
-281.088
-265.107
-247.595
-228.528
-207.895
-185.698
-161.961
-136.723
-110.055
-82.0529
-52.866
-22.1204
9.04011
40.91
73.208
105.642
137.891
169.601
200.395
229.873
257.629
283.248
306.329
326.487
343.371
356.669
366.126
371.545
372.749
369.743
362.592
351.285
336.021
317.034
294.614
269.104
240.896
210.418
178.122
144.482
109.975
75.0746
40.2338
5.87402
-27.615
-59.9221
-90.7706
-119.948
-147.3
-172.725
-196.166
-217.611
-237.076
-254.603
-270.251
-284.096
-296.22
-306.709
-315.648
-323.122
-329.212
-333.983
-337.497
-339.815
-340.943
-340.91
-339.75
-337.445
-333.973
-329.31
-323.424
-316.275
-307.82
-298.007
-286.79
-274.123
-259.957
-244.251
-226.967
-208.07
-187.537
-165.36
-141.55
-116.144
-89.2108
-60.8573
-31.2234
-0.478624
31.1181
63.2891
95.7348
128.112
160.048
191.146
220.999
249.187
275.292
298.897
319.605
337.051
350.915
360.929
366.903
368.672
366.233
359.666
348.987
334.402
316.161
294.572
269.995
242.837
213.533
182.538
150.315
117.319
83.9893
50.7341
17.9473
-14.0823
-45.0559
-74.7399
-102.948
-129.539
-154.412
-177.499
-198.77
-218.216
-235.853
-251.713
-265.847
-278.313
-289.177
-298.507
-306.373
-312.84
-317.969
-321.813
-324.427
-325.835
-326.054
-325.14
-323.105
-319.953
-315.688
-310.299
-303.768
-296.07
-287.17
-277.024
-265.583
-252.793
-238.604
-222.964
-205.831
-187.17
-166.958
-145.19
-121.882
-97.0765
-70.8503
-43.304
-14.5606
15.202
45.8738
77.2345
108.723
140.042
170.88
200.86
229.56
256.589
281.535
303.97
323.504
339.754
352.395
361.163
365.832
366.249
362.368
354.356
342.254
326.179
306.453
283.435
257.558
229.295
199.153
167.649
135.287
102.548
69.8578
37.6349
6.44411
-23.1244
-51.6864
-78.9266
-104.614
-128.629
-150.917
-171.463
-190.298
-207.487
-223.111
-237.269
-250.063
-261.596
-271.96
-281.232
-289.472
-296.718
-302.984
-308.261
-312.517
-315.7
-317.737
-318.514
-317.987
-316.041
-312.567
-307.462
-300.649
-292.063
-281.64
-269.336
-255.134
-239.04
-221.074
-201.285
-179.765
-156.612
-131.97
-105.959
-78.656
-50.1839
-20.2453
12.9422
43.4504
73.5211
103.011
131.736
159.485
185.92
210.728
233.673
254.466
272.897
288.726
301.798
311.979
319.114
323.087
-48.7752
-78.5409
-107.794
-135.839
-162.34
-187.173
-210.23
-231.483
-250.907
-268.516
-284.345
-298.43
-310.821
-321.568
-330.719
-338.322
-344.42
-349.049
-352.236
-353.979
-354.37
-353.382
-350.978
-347.141
-341.847
-335.06
-326.736
-316.821
-305.255
-291.985
-276.947
-260.082
-241.363
-220.761
-198.284
-173.938
-147.77
-119.88
-90.372
-59.3816
-27.1255
6.13033
40.0767
74.3915
108.753
142.752
175.971
208.031
238.505
266.969
293.064
316.423
336.723
353.677
367.031
376.604
382.267
383.916
381.424
374.942
364.486
350.202
332.294
311.036
286.709
259.636
230.199
198.806
165.875
131.809
97.0299
61.9545
26.9527
-7.57384
-40.7226
-73.3107
-104.703
-134.673
-163.036
-189.66
-214.443
-237.317
-258.249
-277.217
-294.219
-309.27
-322.391
-333.613
-342.978
-350.531
-356.333
-360.44
-362.902
-363.802
-363.213
-361.183
-357.759
-352.975
-346.848
-339.382
-330.57
-320.391
-308.817
-295.812
-281.342
-265.369
-247.864
-228.804
-208.176
-185.982
-162.244
-137.002
-110.325
-82.3084
-53.1101
-22.3394
8.84463
40.7527
73.0943
105.578
137.883
169.655
200.517
230.067
257.896
283.589
306.742
326.968
343.912
357.26
366.754
372.194
373.421
370.399
363.223
351.881
336.57
317.523
295.034
269.447
241.16
210.6
178.222
144.502
109.92
74.9501
40.0474
5.63497
-27.8977
-60.2381
-91.11
-120.302
-147.66
-173.085
-196.52
-217.955
-237.408
-254.919
-270.551
-284.379
-296.486
-306.958
-315.882
-323.342
-329.419
-334.18
-337.687
-339.998
-341.119
-341.088
-339.929
-337.627
-334.159
-329.502
-323.624
-316.484
-308.038
-298.235
-287.028
-274.372
-260.216
-244.52
-227.245
-208.357
-187.831
-165.657
-141.848
-116.438
-89.4951
-61.1252
-31.4687
-0.695085
30.9406
63.1572
95.6554
128.092
160.093
191.261
221.186
249.449
275.629
299.308
320.085
337.593
351.506
361.558
367.552
369.341
366.887
360.295
349.58
334.944
316.641
294.981
270.327
243.089
213.704
182.628
150.329
117.264
83.872
50.5637
17.7285
-14.3363
-45.3379
-75.0421
-103.264
-129.862
-154.737
-177.822
-199.087
-218.526
-236.152
-252
-266.121
-278.574
-289.423
-298.741
-306.595
-313.052
-318.172
-322.008
-324.615
-326.014
-326.233
-325.317
-323.28
-320.128
-315.865
-310.48
-303.955
-296.264
-287.372
-277.236
-265.806
-253.027
-238.849
-223.221
-206.097
-187.443
-167.236
-145.471
-122.162
-97.3509
-71.1138
-43.5503
-14.7879
15.003
45.7138
77.1229
108.666
140.037
170.935
200.983
229.751
256.853
281.869
304.377
323.978
340.289
352.984
361.793
366.489
366.917
363.044
354.996
342.855
326.727
306.932
283.834
257.869
229.513
199.28
167.691
135.249
102.439
69.6895
37.4109
6.20381
-23.4026
-51.9891
-79.2434
-104.937
-128.951
-151.232
-171.766
-190.585
-207.756
-223.36
-237.499
-250.274
-261.79
-272.139
-281.401
-289.634
-296.876
-303.143
-308.425
-312.687
-315.88
-317.928
-318.724
-318.215
-316.282
-312.822
-307.732
-300.932
-292.359
-281.946
-269.65
-255.452
-239.359
-221.391
-201.595
-180.064
-156.898
-132.239
-106.208
-78.8836
-50.3876
-20.4209
12.8349
43.3807
73.4917
103.027
131.803
159.605
186.095
210.957
233.954
254.797
273.275
289.147
302.253
312.462
319.616
323.599
-49.1088
-78.9109
-108.188
-136.248
-162.756
-187.589
-210.642
-231.886
-251.3
-268.895
-284.71
-298.781
-311.157
-321.891
-331.03
-338.623
-344.712
-349.333
-352.514
-354.259
-354.655
-353.663
-351.262
-347.431
-342.146
-335.37
-327.059
-317.159
-305.609
-292.355
-277.332
-260.482
-241.776
-221.183
-198.712
-174.365
-148.192
-120.29
-90.7621
-59.7445
-27.4475
5.85815
39.862
74.2431
108.68
142.761
176.066
208.216
238.782
267.337
293.518
316.958
337.331
354.347
367.752
377.361
383.044
384.7
382.208
375.695
365.203
350.869
332.898
311.565
287.155
259.993
230.464
198.979
165.957
131.804
96.9453
61.7968
26.734
-7.84746
-41.056
-73.6762
-105.096
-135.086
-163.462
-190.093
-214.877
-237.748
-258.675
-277.634
-294.626
-309.665
-322.774
-333.984
-343.337
-350.878
-356.665
-360.757
-363.207
-364.097
-363.496
-361.458
-358.028
-353.241
-347.115
-339.653
-330.847
-320.676
-309.112
-296.118
-281.659
-265.697
-248.202
-229.15
-208.528
-186.337
-162.598
-137.351
-110.663
-82.6271
-53.3748
-22.6549
8.59879
40.5558
72.9516
105.497
137.872
169.722
200.668
230.308
258.23
284.016
307.259
327.57
344.589
358
367.541
373.009
374.253
371.226
364.015
352.629
337.256
318.135
295.558
269.877
241.489
210.827
178.347
144.527
109.851
74.7936
39.8134
5.3353
-28.2521
-60.6339
-91.5352
-120.745
-148.112
-173.535
-196.963
-218.386
-237.822
-255.314
-270.925
-284.732
-296.818
-307.269
-316.174
-323.617
-329.679
-334.426
-337.924
-340.226
-341.342
-341.311
-340.153
-337.854
-334.392
-329.744
-323.875
-316.745
-308.31
-298.52
-287.327
-274.683
-260.54
-244.857
-227.593
-208.715
-188.198
-166.029
-142.22
-116.805
-89.8509
-61.4612
-31.7761
-0.966599
30.7179
62.9916
95.5555
128.067
160.148
191.403
221.42
249.777
276.051
299.821
320.685
338.27
352.247
362.346
368.367
370.17
367.711
361.083
350.322
335.623
317.242
295.493
270.743
243.403
213.916
182.741
150.347
117.194
83.7242
50.3487
17.4552
-14.6546
-45.6912
-75.4208
-103.659
-130.266
-155.144
-178.227
-199.485
-218.913
-236.525
-252.36
-266.464
-278.9
-289.732
-299.034
-306.873
-313.316
-318.425
-322.251
-324.849
-326.239
-326.457
-325.538
-323.499
-320.347
-316.087
-310.706
-304.188
-296.507
-287.626
-277.502
-266.085
-253.32
-239.156
-223.541
-206.429
-187.785
-167.585
-145.822
-122.512
-97.6943
-71.4437
-43.8588
-15.0726
14.7523
45.5141
76.9832
108.592
140.032
171.004
201.134
229.989
257.183
282.288
304.886
324.571
340.959
353.721
362.581
367.311
367.754
363.879
355.805
343.609
327.414
307.533
284.333
258.256
229.786
199.439
167.742
135.201
102.301
69.4782
37.1316
5.90144
-23.7518
-52.3681
-79.6401
-105.342
-129.355
-151.627
-172.146
-190.945
-208.093
-223.672
-237.786
-250.538
-262.032
-272.364
-281.612
-289.836
-297.074
-303.342
-308.628
-312.9
-316.105
-318.167
-318.987
-318.499
-316.582
-313.141
-308.069
-301.287
-292.729
-282.328
-270.042
-255.85
-239.758
-221.787
-201.983
-180.439
-157.256
-132.577
-106.52
-79.1684
-50.6438
-20.6446
12.703
43.2939
73.4548
103.047
131.886
159.755
186.314
211.243
234.305
255.211
273.748
289.672
302.823
313.067
320.245
324.242
-49.51
-79.3557
-108.661
-136.739
-163.255
-188.089
-211.136
-232.371
-251.771
-269.35
-285.148
-299.202
-311.561
-322.279
-331.404
-338.984
-345.062
-349.675
-352.848
-354.594
-354.995
-354
-351.602
-347.779
-342.504
-335.742
-327.447
-317.564
-306.033
-292.799
-277.795
-260.963
-242.273
-221.69
-199.226
-174.879
-148.699
-120.782
-91.2308
-60.1799
-27.8363
5.53042
39.6034
74.0639
108.59
142.77
176.18
208.439
239.115
267.778
294.063
317.6
338.06
355.153
368.618
378.271
383.978
385.639
383.148
376.601
366.065
351.67
333.622
312.2
287.691
260.422
230.782
199.186
166.054
131.797
96.843
61.6063
26.4691
-8.17656
-41.4558
-74.1155
-105.568
-135.583
-163.974
-190.614
-215.398
-238.267
-259.185
-278.135
-295.114
-310.139
-323.234
-334.43
-343.768
-351.293
-357.064
-361.138
-363.573
-364.45
-363.836
-361.788
-358.351
-353.561
-347.435
-339.977
-331.179
-321.019
-309.466
-296.485
-282.039
-266.091
-248.608
-229.566
-208.951
-186.763
-163.024
-137.771
-111.07
-83.0106
-53.707
-23.0215
8.30309
40.3186
72.7792
105.399
137.858
169.802
200.849
230.597
258.63
284.528
307.88
328.292
345.402
358.889
368.487
373.989
375.25
372.22
364.967
353.527
338.082
318.869
296.188
270.393
241.885
211.098
178.496
144.557
109.766
74.6042
39.5312
4.97411
-28.6789
-61.1105
-92.0469
-121.279
-148.655
-174.077
-197.496
-218.904
-238.32
-255.789
-271.375
-285.157
-297.217
-307.643
-316.525
-323.948
-329.99
-334.722
-338.208
-340.499
-341.61
-341.579
-340.421
-338.126
-334.672
-330.034
-324.176
-317.059
-308.638
-298.863
-287.685
-275.057
-260.93
-245.261
-228.012
-209.146
-188.639
-166.477
-142.669
-117.247
-90.2789
-61.866
-32.1465
-1.29344
30.4496
62.7916
95.4347
128.035
160.214
191.573
221.7
250.169
276.557
300.438
321.406
339.083
353.136
363.292
369.347
371.164
368.7
362.032
351.214
336.439
317.964
296.108
271.241
243.78
214.17
182.875
150.367
117.109
83.5453
50.089
17.126
-15.0381
-46.1165
-75.8765
-104.135
-130.752
-155.633
-178.713
-199.963
-219.377
-236.975
-252.791
-266.876
-279.291
-290.103
-299.386
-307.207
-313.633
-318.728
-322.544
-325.13
-326.511
-326.725
-325.802
-323.761
-320.611
-316.353
-310.978
-304.467
-296.798
-287.93
-277.821
-266.419
-253.672
-239.525
-223.926
-206.828
-188.196
-168.004
-146.244
-122.932
-98.107
-71.8402
-44.2302
-15.4146
14.4486
45.2755
76.8149
108.501
140.024
171.086
201.315
230.275
257.579
282.79
305.496
325.282
341.762
354.605
363.528
368.298
368.76
364.877
356.779
344.518
328.24
308.254
284.932
258.721
230.112
199.628
167.803
135.142
102.134
69.223
36.7972
5.53586
-24.1727
-52.8242
-80.1171
-105.829
-129.84
-152.101
-172.602
-191.377
-208.497
-224.047
-238.131
-250.854
-262.323
-272.634
-281.865
-290.078
-297.311
-303.58
-308.873
-313.156
-316.375
-318.456
-319.303
-318.838
-316.943
-313.525
-308.473
-301.712
-293.173
-282.788
-270.513
-256.328
-240.238
-222.263
-202.449
-180.89
-157.686
-132.981
-106.894
-79.5105
-50.9532
-20.9162
12.5463
43.1898
73.41
103.071
131.985
159.936
186.577
211.586
234.726
255.708
274.315
290.303
303.507
313.794
321.003
325.015
-49.9793
-79.8758
-109.214
-137.313
-163.839
-188.673
-211.714
-232.936
-252.321
-269.882
-285.659
-299.693
-312.033
-322.732
-331.839
-339.405
-345.47
-350.073
-353.239
-354.983
-355.388
-354.392
-351.999
-348.185
-342.922
-336.175
-327.898
-318.037
-306.528
-293.317
-278.335
-261.524
-242.852
-222.283
-199.826
-175.479
-149.291
-121.357
-91.7787
-60.6882
-28.2923
5.14659
39.3002
73.8534
108.485
142.78
176.312
208.697
239.502
268.292
294.699
318.35
338.912
356.093
369.63
379.334
385.071
386.738
384.244
377.66
367.073
352.606
334.469
312.942
288.316
260.922
231.152
199.427
166.167
131.788
96.7223
61.3823
26.1569
-8.562
-41.9219
-74.6291
-106.12
-136.163
-164.572
-191.222
-216.007
-238.872
-259.782
-278.719
-295.683
-310.693
-323.771
-334.95
-344.271
-351.779
-357.53
-361.584
-364.001
-364.861
-364.233
-362.173
-358.728
-353.934
-347.808
-340.356
-331.567
-321.418
-309.879
-296.914
-282.483
-266.55
-249.081
-230.051
-209.445
-187.262
-163.522
-138.261
-111.545
-83.4601
-54.1092
-23.4375
7.95785
40.0408
72.5767
105.283
137.84
169.894
201.059
230.933
259.096
285.126
308.604
329.136
346.352
359.928
369.592
375.136
376.415
373.379
366.081
354.578
339.045
319.727
296.923
270.995
242.345
211.414
178.668
144.589
109.666
74.3815
39.1998
4.55058
-29.1789
-61.6688
-92.646
-121.903
-149.289
-174.711
-198.119
-219.509
-238.901
-256.343
-271.901
-285.653
-297.683
-308.08
-316.936
-324.333
-330.354
-335.068
-338.539
-340.817
-341.923
-341.891
-340.734
-338.444
-334.999
-330.372
-324.528
-317.425
-309.02
-299.263
-288.103
-275.494
-261.385
-245.734
-228.501
-209.65
-189.155
-167
-143.193
-117.765
-90.7798
-62.3398
-32.5806
-1.67683
30.1351
62.5565
95.2922
127.996
160.289
191.771
222.025
250.627
277.147
301.158
322.248
340.033
354.176
364.398
370.493
372.326
369.854
363.14
352.256
337.392
318.807
296.825
271.823
244.22
214.466
183.031
150.389
117.008
83.3345
49.7837
16.7402
-15.4875
-46.6147
-76.4097
-104.691
-131.321
-156.205
-179.281
-200.521
-219.921
-237.5
-253.296
-267.357
-279.748
-290.537
-299.796
-307.596
-314.004
-319.082
-322.884
-325.458
-326.83
-327.039
-326.11
-324.067
-320.918
-316.663
-311.294
-304.794
-297.137
-288.285
-278.193
-266.81
-254.083
-239.956
-224.375
-207.294
-188.676
-168.493
-146.738
-123.424
-98.5893
-72.3038
-44.6654
-15.8138
14.0935
44.9951
76.6173
108.392
140.015
171.181
201.525
230.609
258.039
283.376
306.209
326.112
342.701
355.639
364.634
369.453
369.936
366.044
357.916
345.581
329.206
309.096
285.632
259.264
230.491
199.848
167.872
135.072
101.937
68.923
36.4111
5.10592
-24.666
-53.3576
-80.6752
-106.398
-130.407
-152.655
-173.134
-191.882
-208.969
-224.484
-238.533
-251.223
-262.662
-272.947
-282.16
-290.36
-297.587
-303.857
-309.157
-313.453
-316.69
-318.793
-319.67
-319.232
-317.363
-313.972
-308.946
-302.209
-293.691
-283.324
-271.063
-256.887
-240.799
-222.818
-202.994
-181.416
-158.189
-133.454
-107.331
-79.9102
-51.3169
-21.235
12.3644
43.0677
73.3569
103.097
132.1
160.146
186.883
211.986
235.217
256.288
274.977
291.039
304.306
314.644
321.888
325.92
-50.5173
-80.4717
-109.847
-137.97
-164.507
-189.342
-212.374
-233.583
-252.95
-270.489
-286.244
-300.254
-312.571
-323.249
-332.337
-339.886
-345.937
-350.528
-353.686
-355.429
-355.834
-354.84
-352.452
-348.648
-343.4
-336.67
-328.415
-318.577
-307.094
-293.909
-278.953
-262.166
-243.515
-222.961
-200.512
-176.165
-149.969
-122.016
-92.4063
-61.2702
-28.8164
4.70609
38.9519
73.6111
108.363
142.79
176.461
208.992
239.945
268.88
295.426
319.207
339.887
357.169
370.787
380.55
386.321
387.999
385.496
378.873
368.226
353.677
335.437
313.79
289.031
261.493
231.575
199.702
166.295
131.776
96.5828
61.1241
25.7969
-9.00559
-42.4538
-75.2173
-106.752
-136.827
-165.257
-191.917
-216.705
-239.566
-260.465
-279.387
-296.335
-311.327
-324.385
-335.545
-344.846
-352.334
-358.063
-362.094
-364.49
-365.332
-364.687
-362.613
-359.158
-354.36
-348.235
-340.79
-332.011
-321.875
-310.352
-297.404
-282.991
-267.076
-249.623
-230.606
-210.01
-187.833
-164.092
-138.824
-112.091
-83.9769
-54.5807
-23.9051
7.56322
39.7218
72.3436
105.149
137.819
169.996
201.298
231.316
259.628
285.808
309.433
330.101
347.439
361.117
370.858
376.45
377.749
374.703
367.357
355.78
340.149
320.707
297.764
271.683
242.871
211.775
178.864
144.625
109.549
74.1247
38.8183
4.06374
-29.7535
-62.3095
-93.3333
-122.618
-150.017
-175.437
-198.833
-220.202
-239.567
-256.978
-272.503
-286.22
-298.216
-308.58
-317.405
-324.774
-330.769
-335.463
-338.918
-341.182
-342.282
-342.248
-341.092
-338.809
-335.374
-330.759
-324.93
-317.844
-309.458
-299.721
-288.582
-275.994
-261.905
-246.274
-229.06
-210.227
-189.746
-167.599
-143.793
-118.358
-91.3543
-62.8833
-33.0793
-2.11762
29.774
62.2857
95.1272
127.95
160.374
191.995
222.396
251.149
277.821
301.981
323.211
341.121
355.366
365.665
371.806
373.656
371.173
364.41
353.449
338.483
319.772
297.646
272.487
244.721
214.803
183.207
150.412
116.89
83.091
49.4321
16.2968
-16.0035
-47.1863
-77.0213
-105.329
-131.972
-156.86
-179.931
-201.16
-220.543
-238.101
-253.872
-267.907
-280.271
-291.033
-300.266
-308.042
-314.428
-319.487
-323.274
-325.833
-327.195
-327.397
-326.463
-324.417
-321.268
-317.017
-311.657
-305.168
-297.525
-288.69
-278.618
-267.257
-254.553
-240.448
-224.889
-207.828
-189.225
-169.054
-147.303
-123.986
-99.1416
-72.8351
-45.1649
-16.2702
13.6888
44.6703
76.3893
108.264
140.004
171.288
201.763
230.989
258.565
284.045
307.023
327.061
343.776
356.822
365.9
370.774
371.284
367.381
359.215
346.8
330.312
310.06
286.432
259.884
230.924
200.098
167.949
134.988
101.711
68.5771
35.9731
4.61014
-25.2325
-53.969
-81.3147
-107.049
-131.056
-153.289
-173.743
-192.459
-209.508
-224.983
-238.992
-251.644
-263.048
-273.305
-282.496
-290.681
-297.902
-304.173
-309.481
-313.792
-317.05
-319.178
-320.088
-319.682
-317.843
-314.483
-309.487
-302.777
-294.284
-283.938
-271.693
-257.526
-241.44
-223.455
-203.617
-182.019
-158.764
-133.995
-107.831
-80.3677
-51.736
-21.5999
12.1565
42.9272
73.2948
103.126
132.231
160.385
187.233
212.443
235.779
256.95
275.734
291.881
305.221
315.617
322.902
326.956
-51.1248
-81.144
-110.561
-138.711
-165.26
-190.094
-213.119
-234.312
-253.657
-271.173
-286.901
-300.886
-313.177
-323.831
-332.897
-340.426
-346.461
-351.04
-354.189
-355.93
-356.334
-355.343
-352.961
-349.168
-343.936
-337.227
-328.995
-319.184
-307.73
-294.575
-279.649
-262.889
-244.261
-223.724
-201.286
-176.939
-150.733
-122.759
-93.1143
-61.9264
-29.4095
4.20835
38.5579
73.3361
108.224
142.799
176.628
209.323
240.442
269.541
296.245
320.173
340.985
358.381
372.091
381.921
387.732
389.422
386.907
380.239
369.525
354.883
336.527
314.746
289.835
262.135
232.05
200.009
166.437
131.761
96.4235
60.8311
25.3882
-9.5081
-43.0523
-75.8808
-107.465
-137.577
-166.029
-192.701
-217.49
-240.346
-261.233
-280.14
-297.069
-312.04
-325.077
-336.215
-345.494
-352.958
-358.663
-362.67
-365.041
-365.862
-365.197
-363.107
-359.642
-354.839
-348.716
-341.277
-332.51
-322.389
-310.884
-297.956
-283.564
-267.668
-250.233
-231.232
-210.647
-188.476
-164.735
-139.458
-112.707
-84.5619
-55.1207
-24.426
7.11879
39.3608
72.0789
104.996
137.791
170.11
201.565
231.746
260.226
286.575
310.365
331.188
348.664
362.457
372.286
377.932
379.253
376.195
368.796
357.136
341.391
321.812
298.711
272.457
243.463
212.18
179.083
144.663
109.415
73.8328
38.3858
3.51201
-30.4031
-63.0338
-94.1099
-123.426
-150.838
-176.256
-199.638
-220.983
-240.317
-257.693
-273.181
-286.859
-298.816
-309.143
-317.933
-325.27
-331.237
-335.907
-339.343
-341.593
-342.686
-342.648
-341.494
-339.219
-335.795
-331.194
-325.383
-318.316
-309.951
-300.236
-289.121
-276.557
-262.492
-246.883
-229.691
-210.877
-190.411
-168.274
-144.471
-119.027
-92.0031
-63.4971
-33.6433
-2.61638
29.365
61.9784
94.9387
127.897
160.467
192.246
222.812
251.736
278.58
302.908
324.295
342.346
356.709
367.093
373.288
375.157
372.659
365.841
354.795
339.712
320.858
298.57
273.235
245.285
215.181
183.402
150.435