/*--------------------------------*- C++ -*----------------------------------*\
| =========                 |                                                 |
| \\      /  F ield         | OpenFOAM: The Open Source CFD Toolbox           |
|  \\    /   O peration     | Version:  3.0.1                                 |
|   \\  /    A nd           | Web:      www.OpenFOAM.org                      |
|    \\/     M anipulation  |                                                 |
\*---------------------------------------------------------------------------*/
FoamFile
{
    version     2.0;
    format      ascii;
    class       volVectorField;
    location    "80";
    object      U;
}
// * * * * * * * * * * * * * * * * * * * * * * * * * * * * * * * * * * * * * //

dimensions      [0 1 -1 0 0 0 0];

internalField   nonuniform List<vector> 
21420
(
(-0.122546 0.000989956 0)
(-0.130844 0.000892927 0)
(-0.139414 0.000805077 0)
(-0.147088 0.000719228 0)
(-0.153904 0.00063336 0)
(-0.159888 0.000553403 0)
(-0.165072 0.000474395 0)
(-0.169482 0.000399626 0)
(-0.173144 0.00032673 0)
(-0.176077 0.000255082 0)
(-0.1783 0.000184994 0)
(-0.179832 0.000115304 0)
(-0.180643 4.87793e-05 0)
(-0.180797 -2.01313e-05 0)
(-0.18024 -8.98584e-05 0)
(-0.178985 -0.000160557 0)
(-0.177008 -0.000232386 0)
(-0.174296 -0.00030688 0)
(-0.170827 -0.000382734 0)
(-0.166574 -0.00046112 0)
(-0.161508 -0.000544878 0)
(-0.155599 -0.000629057 0)
(-0.148811 -0.000716063 0)
(-0.141108 -0.00081167 0)
(-0.132459 -0.000904338 0)
(-0.122835 -0.00100779 0)
(-0.112215 -0.00110383 0)
(-0.100586 -0.0011996 0)
(-0.0879363 -0.00130986 0)
(-0.0742786 -0.00140197 0)
(-0.0596367 -0.00148905 0)
(-0.0440351 -0.00159478 0)
(-0.0275444 -0.00166908 0)
(-0.0102887 -0.00175921 0)
(0.00761236 -0.00180864 0)
(0.0260378 -0.00184085 0)
(0.0448547 -0.00189195 0)
(0.0638851 -0.00188948 0)
(0.0828906 -0.00186238 0)
(0.10164 -0.00184593 0)
(0.1199 -0.00177327 0)
(0.13741 -0.00170064 0)
(0.153916 -0.00157926 0)
(0.169146 -0.00143268 0)
(0.182848 -0.00127567 0)
(0.194792 -0.00108744 0)
(0.204758 -0.000878921 0)
(0.212586 -0.0006584 0)
(0.218135 -0.000422979 0)
(0.221262 -0.000182657 0)
(0.22195 5.3495e-05 0)
(0.220223 0.000301568 0)
(0.215941 0.000530751 0)
(0.209411 0.000755011 0)
(0.200684 0.000977663 0)
(0.189899 0.00115686 0)
(0.177288 0.00133419 0)
(0.163052 0.00149563 0)
(0.147422 0.00160668 0)
(0.130678 0.00171376 0)
(0.11307 0.00177627 0)
(0.0948291 0.00183369 0)
(0.0761975 0.00186603 0)
(0.0573977 0.00186275 0)
(0.038641 0.00185322 0)
(0.0201483 0.00182184 0)
(0.00204859 0.00176542 0)
(-0.0154983 0.00170662 0)
(-0.0323674 0.00163221 0)
(-0.0484784 0.00155563 0)
(-0.0636786 0.00146407 0)
(-0.0779939 0.00137317 0)
(-0.0914401 0.00128302 0)
(-0.103901 0.00118323 0)
(-0.115355 0.00108846 0)
(-0.125839 0.000999898 0)
(-0.135397 0.000904445 0)
(-0.144107 0.000823465 0)
(-0.151956 0.000726851 0)
(-0.158872 0.000642535 0)
(-0.164915 0.000566596 0)
(-0.170176 0.000477421 0)
(-0.174598 0.000391278 0)
(-0.178099 0.000315088 0)
(-0.180816 0.00022091 0)
(-0.182671 0.000140245 0)
(-0.183601 5.72722e-05 0)
(-0.183679 -3.58756e-05 0)
(-0.182914 -0.000122792 0)
(-0.181166 -0.000213774 0)
(-0.178534 -0.000302048 0)
(-0.175039 -0.000385291 0)
(-0.17071 -0.000466289 0)
(-0.165615 -0.000537086 0)
(-0.159803 -0.000606802 0)
(-0.15332 -0.000670241 0)
(-0.146198 -0.000739327 0)
(-0.138391 -0.00080622 0)
(-0.129884 -0.000879213 0)
(-0.12067 -0.000958136 0)
(-0.110667 -0.00102641 0)
(-0.0998471 -0.00111624 0)
(-0.0881515 -0.00119749 0)
(-0.0755801 -0.00128286 0)
(-0.0622069 -0.00136618 0)
(-0.0479871 -0.00145187 0)
(-0.0330005 -0.00152688 0)
(-0.0172653 -0.00158595 0)
(-0.000893127 -0.00164906 0)
(0.0159882 -0.00169697 0)
(0.0332606 -0.00172755 0)
(0.0508 -0.00175249 0)
(0.068463 -0.00174886 0)
(0.0860616 -0.00173681 0)
(0.103412 -0.00170368 0)
(0.120327 -0.00164719 0)
(0.136585 -0.00157079 0)
(0.151957 -0.0014695 0)
(0.166214 -0.00135457 0)
(0.179153 -0.00120892 0)
(0.190506 -0.00104063 0)
(0.200047 -0.000853449 0)
(0.207607 -0.000643798 0)
(0.213005 -0.000420006 0)
(0.216072 -0.000190528 0)
(0.216769 4.5017e-05 0)
(0.215097 0.000288954 0)
(0.210897 0.000529879 0)
(0.204392 0.000754895 0)
(0.195664 0.000969948 0)
(0.184861 0.00116905 0)
(0.172163 0.0013455 0)
(0.157795 0.00150544 0)
(0.141973 0.00163197 0)
(0.124974 0.00173815 0)
(0.107072 0.00181201 0)
(0.0884881 0.00187066 0)
(0.0695074 0.00189197 0)
(0.0503959 0.00189764 0)
(0.0313783 0.00187707 0)
(0.0126597 0.00183846 0)
(-0.00555418 0.00177347 0)
(-0.0230905 0.00170603 0)
(-0.0398219 0.00161725 0)
(-0.0556224 0.00151864 0)
(-0.0704015 0.00141415 0)
(-0.0841112 0.00131161 0)
(-0.0967525 0.0011984 0)
(-0.108275 0.00108505 0)
(-0.118701 0.00098811 0)
(-0.128092 0.000881207 0)
(-0.136482 0.000783282 0)
(-0.143922 0.00069115 0)
(-0.150427 0.000600753 0)
(-0.156081 0.000523567 0)
(-0.160926 0.000441616 0)
(-0.16499 0.000368722 0)
(-0.168335 0.000297171 0)
(-0.170991 0.000227125 0)
(-0.172969 0.000166933 0)
(-0.174319 0.000108299 0)
(-0.175081 4.71831e-05 0)
(-0.175248 -1.22355e-05 0)
(-0.174815 -6.70532e-05 0)
(-0.173813 -0.000128073 0)
(-0.172233 -0.00018391 0)
(-0.170047 -0.000247685 0)
(-0.167261 -0.000305574 0)
(-0.163901 -0.000364217 0)
(-0.159902 -0.000422292 0)
(-0.155218 -0.000495357 0)
(-0.149852 -0.000561927 0)
(-0.143793 -0.000637129 0)
(-0.136996 -0.000709357 0)
(-0.129437 -0.000785127 0)
(-0.121123 -0.000863832 0)
(-0.112011 -0.000945205 0)
(-0.102072 -0.00102486 0)
(-0.0913281 -0.00111619 0)
(-0.0796811 -0.00118703 0)
(-0.0671818 -0.00127843 0)
(-0.053867 -0.00136111 0)
(-0.0397311 -0.00144008 0)
(-0.024845 -0.00151081 0)
(-0.00924834 -0.00157779 0)
(0.00698428 -0.00163423 0)
(0.0237043 -0.00168066 0)
(0.0407802 -0.00170657 0)
(0.0580659 -0.00171875 0)
(0.0753644 -0.00170977 0)
(0.0924517 -0.00168128 0)
(0.109125 -0.00162175 0)
(0.125092 -0.00153868 0)
(0.140086 -0.00143154 0)
(0.153873 -0.00129954 0)
(0.16618 -0.00114085 0)
(0.176769 -0.000958142 0)
(0.185457 -0.000760918 0)
(0.192039 -0.000544118 0)
(0.196385 -0.000315599 0)
(0.198393 -8.60707e-05 0)
(0.198076 0.000149507 0)
(0.195292 0.000390976 0)
(0.190153 0.00061915 0)
(0.182775 0.000842904 0)
(0.173274 0.0010403 0)
(0.16185 0.00122423 0)
(0.14871 0.00138033 0)
(0.1341 0.00151597 0)
(0.118271 0.00162308 0)
(0.101453 0.00170547 0)
(0.0839669 0.00175379 0)
(0.0660696 0.00178719 0)
(0.0480096 0.00180086 0)
(0.0300653 0.00176576 0)
(0.0124417 0.00172368 0)
(-0.00465768 0.00167438 0)
(-0.0211013 0.00160115 0)
(-0.0368265 0.00152377 0)
(-0.0517668 0.00143848 0)
(-0.0658684 0.00135945 0)
(-0.0790953 0.00126662 0)
(-0.0914377 0.00118662 0)
(-0.102911 0.00109068 0)
(-0.113454 0.00100239 0)
(-0.123104 0.000911278 0)
(-0.13182 0.000812076 0)
(-0.139565 0.000732604 0)
(-0.146447 0.000638977 0)
(-0.152477 0.000559283 0)
(-0.157694 0.000479621 0)
(-0.162176 0.000408819 0)
(-0.165964 0.000349723 0)
(-0.169108 0.000277587 0)
(-0.171637 0.000224576 0)
(-0.173581 0.000163555 0)
(-0.17494 0.000104483 0)
(-0.175712 5.42571e-05 0)
(-0.175969 -4.29978e-06 0)
(-0.17565 -5.43033e-05 0)
(-0.174773 -0.000109528 0)
(-0.173411 -0.000158907 0)
(-0.171534 -0.000206901 0)
(-0.169202 -0.000254652 0)
(-0.166402 -0.000300886 0)
(-0.16311 -0.000350935 0)
(-0.159294 -0.000405416 0)
(-0.154889 -0.000469613 0)
(-0.149844 -0.000537029 0)
(-0.144078 -0.000602146 0)
(-0.13753 -0.000682804 0)
(-0.130216 -0.000762665 0)
(-0.122099 -0.000847926 0)
(-0.113129 -0.000932263 0)
(-0.103351 -0.00101036 0)
(-0.0928052 -0.00108988 0)
(-0.0814717 -0.00114889 0)
(-0.0694356 -0.00122854 0)
(-0.0566976 -0.00130074 0)
(-0.0432831 -0.00136236 0)
(-0.0292208 -0.00142407 0)
(-0.0146165 -0.00148465 0)
(0.00062161 -0.00152222 0)
(0.0163982 -0.00157039 0)
(0.0324635 -0.00159296 0)
(0.0487893 -0.00160839 0)
(0.0651094 -0.00160162 0)
(0.0813134 -0.00157501 0)
(0.0971273 -0.00152455 0)
(0.112278 -0.00143232 0)
(0.126585 -0.00133704 0)
(0.139653 -0.00121223 0)
(0.151436 -0.00106282 0)
(0.161564 -0.000902656 0)
(0.169923 -0.000716326 0)
(0.176368 -0.000532495 0)
(0.180796 -0.000333774 0)
(0.183153 -0.00013981 0)
(0.183528 6.44457e-05 0)
(0.181994 0.000253589 0)
(0.178353 0.000437709 0)
(0.172908 0.000622253 0)
(0.16543 0.000811088 0)
(0.156128 0.000999797 0)
(0.145261 0.00116432 0)
(0.132682 0.00134044 0)
(0.118607 0.00148087 0)
(0.103286 0.00159111 0)
(0.0870004 0.00167839 0)
(0.0701561 0.00171723 0)
(0.0528886 0.0017348 0)
(0.0357953 0.00172128 0)
(0.0191384 0.00168298 0)
(0.00156125 0.00163034 0)
(-0.0161444 0.00155648 0)
(-0.0323815 0.00147056 0)
(-0.0475897 0.00138435 0)
(-0.061746 0.00129146 0)
(-0.0748469 0.001195 0)
(-0.0869204 0.0011032 0)
(-0.097965 0.0010078 0)
(-0.108008 0.000918204 0)
(-0.117078 0.000829098 0)
(-0.125197 0.00074197 0)
(-0.132408 0.000659519 0)
(-0.138744 0.000579401 0)
(-0.144244 0.000501764 0)
(-0.148943 0.000427661 0)
(-0.152876 0.000355405 0)
(-0.15607 0.000285799 0)
(-0.158539 0.000217873 0)
(-0.160312 0.000148458 0)
(-0.161389 7.96328e-05 0)
(-0.161803 1.52021e-05 0)
(-0.161528 -4.94139e-05 0)
(-0.160618 -0.000113973 0)
(-0.159068 -0.000181489 0)
(-0.156864 -0.000249836 0)
(-0.153955 -0.000320536 0)
(-0.150331 -0.000395574 0)
(-0.14597 -0.000469893 0)
(-0.140821 -0.000547994 0)
(-0.134859 -0.00063276 0)
(-0.128058 -0.000716297 0)
(-0.120379 -0.000808487 0)
(-0.111797 -0.000896816 0)
(-0.102287 -0.000986868 0)
(-0.0918253 -0.00108849 0)
(-0.0803993 -0.00117978 0)
(-0.0680124 -0.00126969 0)
(-0.0546641 -0.00137422 0)
(-0.040366 -0.00145816 0)
(-0.025187 -0.00153661 0)
(-0.00919374 -0.00162965 0)
(0.00754563 -0.00168908 0)
(0.0249453 -0.00176604 0)
(0.0428822 -0.00180059 0)
(0.061187 -0.00181685 0)
(0.0796932 -0.00184843 0)
(0.0982095 -0.00182682 0)
(0.116512 -0.00178244 0)
(0.13438 -0.00174794 0)
(0.151575 -0.00165768 0)
(0.167852 -0.00157148 0)
(0.182971 -0.00143486 0)
(0.196691 -0.00127809 0)
(0.208791 -0.00111703 0)
(0.219077 -0.000923179 0)
(0.227372 -0.000716664 0)
(0.233535 -0.000501894 0)
(0.237461 -0.000276334 0)
(0.239082 -4.49234e-05 0)
(0.238421 0.000183354 0)
(0.235453 0.000411384 0)
(0.230211 0.000625066 0)
(0.222854 0.000831125 0)
(0.212289 0.00102464 0)
(-0.122583 0.00296977 0)
(-0.130879 0.00267866 0)
(-0.139449 0.0024151 0)
(-0.147122 0.00215754 0)
(-0.153936 0.00189991 0)
(-0.15992 0.00166 0)
(-0.165102 0.00142297 0)
(-0.169512 0.00119866 0)
(-0.173172 0.000979964 0)
(-0.176104 0.000765013 0)
(-0.178327 0.000554824 0)
(-0.179859 0.000345794 0)
(-0.180671 0.000146102 0)
(-0.180824 -6.05919e-05 0)
(-0.180268 -0.000269752 0)
(-0.179013 -0.000481801 0)
(-0.177037 -0.000697222 0)
(-0.174326 -0.000920647 0)
(-0.170858 -0.00114818 0)
(-0.166606 -0.00138331 0)
(-0.161542 -0.00163458 0)
(-0.155634 -0.00188706 0)
(-0.148847 -0.00214807 0)
(-0.141146 -0.00243488 0)
(-0.132498 -0.0027129 0)
(-0.122875 -0.00302326 0)
(-0.112257 -0.00331143 0)
(-0.100627 -0.00359876 0)
(-0.0879781 -0.0039296 0)
(-0.0743194 -0.00420603 0)
(-0.0596758 -0.00446734 0)
(-0.0440728 -0.00478467 0)
(-0.0275783 -0.00500757 0)
(-0.0103184 -0.00527797 0)
(0.00758756 -0.00542648 0)
(0.026019 -0.00552323 0)
(0.044843 -0.0056767 0)
(0.0638815 -0.00566933 0)
(0.0828954 -0.00558815 0)
(0.101656 -0.0055389 0)
(0.119925 -0.0053209 0)
(0.137447 -0.00510308 0)
(0.153963 -0.00473899 0)
(0.169203 -0.00429918 0)
(0.182916 -0.00382779 0)
(0.194867 -0.00326295 0)
(0.204843 -0.00263763 0)
(0.212678 -0.00197475 0)
(0.218227 -0.00127692 0)
(0.22137 -0.000542345 0)
(0.222056 0.000158595 0)
(0.220317 0.000904254 0)
(0.216038 0.00159201 0)
(0.209508 0.00226509 0)
(0.200777 0.00293346 0)
(0.189986 0.00347113 0)
(0.177367 0.00400333 0)
(0.163124 0.00448787 0)
(0.147484 0.00482111 0)
(0.13073 0.00514245 0)
(0.113112 0.00532997 0)
(0.094861 0.0055026 0)
(0.0762189 0.00559989 0)
(0.0574093 0.00558994 0)
(0.0386422 0.00555998 0)
(0.0201395 0.00546523 0)
(0.00203286 0.00529902 0)
(-0.0155213 0.00512087 0)
(-0.0323971 0.00489693 0)
(-0.048515 0.00466523 0)
(-0.0637179 0.00439394 0)
(-0.0780379 0.0041219 0)
(-0.0914896 0.00384827 0)
(-0.103951 0.00354937 0)
(-0.115407 0.00326787 0)
(-0.125894 0.00299815 0)
(-0.135453 0.00271354 0)
(-0.144164 0.00246885 0)
(-0.15201 0.00218434 0)
(-0.158929 0.00192687 0)
(-0.164977 0.0016969 0)
(-0.170237 0.0014285 0)
(-0.17465 0.00117712 0)
(-0.178156 0.00094561 0)
(-0.180876 0.000662147 0)
(-0.182729 0.000414272 0)
(-0.183642 0.000181173 0)
(-0.183734 -0.000118344 0)
(-0.182946 -0.000361232 0)
(-0.181212 -0.000645456 0)
(-0.178562 -0.000907662 0)
(-0.175066 -0.0011583 0)
(-0.17073 -0.0014021 0)
(-0.165629 -0.00161972 0)
(-0.159809 -0.00182832 0)
(-0.153323 -0.00202339 0)
(-0.146184 -0.00222029 0)
(-0.138378 -0.00242319 0)
(-0.129876 -0.00263873 0)
(-0.12066 -0.00287434 0)
(-0.110667 -0.00309295 0)
(-0.0998304 -0.00335164 0)
(-0.0881334 -0.00358307 0)
(-0.0755851 -0.00386197 0)
(-0.0621961 -0.00410631 0)
(-0.0479756 -0.00435428 0)
(-0.0329875 -0.00457388 0)
(-0.0172598 -0.00477435 0)
(-0.000870972 -0.00494655 0)
(0.0160147 -0.00509173 0)
(0.0332949 -0.0051811 0)
(0.0508434 -0.00525241 0)
(0.0685129 -0.00525204 0)
(0.0861225 -0.00521286 0)
(0.103482 -0.00511303 0)
(0.120404 -0.00494614 0)
(0.13666 -0.00471948 0)
(0.15203 -0.00442575 0)
(0.166308 -0.00405776 0)
(0.179245 -0.00362436 0)
(0.190591 -0.00311932 0)
(0.200129 -0.00255587 0)
(0.207686 -0.00193189 0)
(0.213076 -0.00126411 0)
(0.216138 -0.000567471 0)
(0.21682 0.000132744 0)
(0.215117 0.000866116 0)
(0.210903 0.0015873 0)
(0.204386 0.00227419 0)
(0.195639 0.00291118 0)
(0.184809 0.00351713 0)
(0.172077 0.00403596 0)
(0.157689 0.00451746 0)
(0.141854 0.00489479 0)
(0.124832 0.00521649 0)
(0.106899 0.00544052 0)
(0.0882863 0.00560725 0)
(0.0692853 0.00568167 0)
(0.050159 0.00568869 0)
(0.0311368 0.00563577 0)
(0.0124144 0.00551127 0)
(-0.00580499 0.00533449 0)
(-0.0233582 0.00511361 0)
(-0.0400904 0.00484996 0)
(-0.0558868 0.00455537 0)
(-0.0706687 0.00424526 0)
(-0.0843911 0.0039217 0)
(-0.0970179 0.00359311 0)
(-0.108534 0.00326226 0)
(-0.118961 0.0029562 0)
(-0.128343 0.00264462 0)
(-0.136726 0.00234893 0)
(-0.144153 0.00206746 0)
(-0.150652 0.00180515 0)
(-0.156297 0.00156429 0)
(-0.161132 0.0013219 0)
(-0.165178 0.00109373 0)
(-0.168509 0.000888424 0)
(-0.17116 0.000679796 0)
(-0.173133 0.000507425 0)
(-0.174484 0.000312536 0)
(-0.175226 0.000135704 0)
(-0.175385 -3.56654e-05 0)
(-0.174953 -0.000218329 0)
(-0.173927 -0.000384152 0)
(-0.172346 -0.000554242 0)
(-0.170152 -0.000733518 0)
(-0.167371 -0.00091329 0)
(-0.164015 -0.00111042 0)
(-0.159993 -0.0012794 0)
(-0.155304 -0.00148212 0)
(-0.149941 -0.00169683 0)
(-0.143869 -0.00191309 0)
(-0.137061 -0.00212994 0)
(-0.129506 -0.00236214 0)
(-0.121176 -0.00258992 0)
(-0.11206 -0.00282427 0)
(-0.102135 -0.00308578 0)
(-0.0913654 -0.00334779 0)
(-0.0797273 -0.00356598 0)
(-0.0672247 -0.00383765 0)
(-0.0539048 -0.0040875 0)
(-0.0397663 -0.00432299 0)
(-0.0248802 -0.0045382 0)
(-0.00926756 -0.00473665 0)
(0.00696918 -0.00490345 0)
(0.0236935 -0.00503435 0)
(0.0407677 -0.00512202 0)
(0.058058 -0.00515969 0)
(0.0753599 -0.00513103 0)
(0.0924515 -0.00504512 0)
(0.109127 -0.00486573 0)
(0.125094 -0.00462428 0)
(0.140089 -0.00429597 0)
(0.153876 -0.00389199 0)
(0.166178 -0.00341747 0)
(0.17676 -0.00288149 0)
(0.185447 -0.00228078 0)
(0.192026 -0.00163638 0)
(0.196364 -0.000949535 0)
(0.198361 -0.000254416 0)
(0.198023 0.000451523 0)
(0.195219 0.00117609 0)
(0.190071 0.00186388 0)
(0.182675 0.00252576 0)
(0.173167 0.00311876 0)
(0.161727 0.00367059 0)
(0.148566 0.00413761 0)
(0.133933 0.0045552 0)
(0.118079 0.00486696 0)
(0.101261 0.00512281 0)
(0.0837671 0.00527966 0)
(0.0658491 0.00535824 0)
(0.047775 0.00538912 0)
(0.0298292 0.00530184 0)
(0.0122052 0.00517769 0)
(-0.00489965 0.00501321 0)
(-0.0213438 0.00479594 0)
(-0.0370625 0.00457249 0)
(-0.0519985 0.00432164 0)
(-0.0661056 0.00406792 0)
(-0.0793265 0.00380094 0)
(-0.0916732 0.00354136 0)
(-0.103121 0.00327405 0)
(-0.113663 0.00300672 0)
(-0.123307 0.00272006 0)
(-0.132006 0.00244252 0)
(-0.139752 0.00219164 0)
(-0.146623 0.00192121 0)
(-0.152651 0.00167161 0)
(-0.15786 0.00143708 0)
(-0.162331 0.00122032 0)
(-0.166108 0.00103995 0)
(-0.169243 0.00084072 0)
(-0.171769 0.000664725 0)
(-0.173702 0.000486502 0)
(-0.175054 0.000315791 0)
(-0.175824 0.000156594 0)
(-0.176078 -2.42166e-05 0)
(-0.175736 -0.000158188 0)
(-0.174866 -0.000334688 0)
(-0.173497 -0.000479716 0)
(-0.171615 -0.000632786 0)
(-0.169274 -0.000764523 0)
(-0.166468 -0.000895409 0)
(-0.163184 -0.00105798 0)
(-0.159368 -0.0012145 0)
(-0.154963 -0.00140804 0)
(-0.149922 -0.00162024 0)
(-0.144156 -0.00180886 0)
(-0.137617 -0.00205031 0)
(-0.130315 -0.00229847 0)
(-0.122188 -0.00253899 0)
(-0.113225 -0.00279222 0)
(-0.103445 -0.00302504 0)
(-0.0928953 -0.00327177 0)
(-0.0815754 -0.00346247 0)
(-0.0695175 -0.00368605 0)
(-0.0567768 -0.0038919 0)
(-0.0433562 -0.00408552 0)
(-0.0292922 -0.00427318 0)
(-0.0146795 -0.00445865 0)
(0.000565444 -0.00457074 0)
(0.0163518 -0.00471117 0)
(0.0324222 -0.00478704 0)
(0.0487644 -0.00483607 0)
(0.0651098 -0.0047963 0)
(0.0813175 -0.00471745 0)
(0.0971441 -0.00457705 0)
(0.112309 -0.0043004 0)
(0.126627 -0.0040116 0)
(0.139709 -0.00362961 0)
(0.15149 -0.00319876 0)
(0.16164 -0.00270624 0)
(0.170002 -0.00214944 0)
(0.17645 -0.00159601 0)
(0.18088 -0.00100263 0)
(0.18324 -0.000420442 0)
(0.183618 0.000194279 0)
(0.182068 0.000760996 0)
(0.178431 0.00131279 0)
(0.172988 0.00186593 0)
(0.16551 0.00243292 0)
(0.156207 0.00299867 0)
(0.145339 0.00349392 0)
(0.132755 0.00402207 0)
(0.118671 0.00444405 0)
(0.103341 0.00477491 0)
(0.0870422 0.00503745 0)
(0.0701839 0.00515297 0)
(0.0529048 0.00520615 0)
(0.0358006 0.00516492 0)
(0.019135 0.00504987 0)
(0.00154921 0.00489154 0)
(-0.0161632 0.0046685 0)
(-0.0324038 0.00440868 0)
(-0.0476155 0.00414903 0)
(-0.0617743 0.00387272 0)
(-0.074876 0.00358801 0)
(-0.0869505 0.00330849 0)
(-0.0979952 0.00302411 0)
(-0.108038 0.00275453 0)
(-0.117108 0.00248751 0)
(-0.125227 0.00222608 0)
(-0.132437 0.00197877 0)
(-0.138773 0.00173797 0)
(-0.144271 0.00150511 0)
(-0.14897 0.00128296 0)
(-0.152903 0.001066 0)
(-0.156096 0.000857939 0)
(-0.158566 0.000654133 0)
(-0.16034 0.000446189 0)
(-0.161418 0.000239595 0)
(-0.161828 4.61074e-05 0)
(-0.161554 -0.000147712 0)
(-0.160644 -0.000341238 0)
(-0.159096 -0.000543807 0)
(-0.156893 -0.000750194 0)
(-0.153985 -0.00096112 0)
(-0.150361 -0.00118649 0)
(-0.146001 -0.00140981 0)
(-0.140854 -0.00164392 0)
(-0.134894 -0.0018981 0)
(-0.128094 -0.00214875 0)
(-0.120417 -0.00242533 0)
(-0.111835 -0.00269033 0)
(-0.102326 -0.0029605 0)
(-0.0918651 -0.0032654 0)
(-0.080439 -0.00353933 0)
(-0.0680515 -0.0038091 0)
(-0.0547028 -0.00412276 0)
(-0.0404032 -0.00437473 0)
(-0.0252212 -0.00461011 0)
(-0.00922494 -0.0048893 0)
(0.00751861 -0.00506751 0)
(0.0249228 -0.00529871 0)
(0.0428658 -0.00540241 0)
(0.0611776 -0.00545126 0)
(0.0796916 -0.00554609 0)
(0.0982163 -0.00548134 0)
(0.116528 -0.00534821 0)
(0.134406 -0.00524482 0)
(0.15161 -0.00497399 0)
(0.167898 -0.00471541 0)
(0.183026 -0.00430549 0)
(0.196753 -0.00383512 0)
(0.208863 -0.00335184 0)
(0.219155 -0.00277019 0)
(0.227455 -0.00215049 0)
(0.233623 -0.00150603 0)
(0.237551 -0.000829046 0)
(0.239174 -0.000134588 0)
(0.238514 0.000550423 0)
(0.235539 0.00123448 0)
(0.230294 0.00187549 0)
(0.222932 0.00249395 0)
(0.212361 0.00307463 0)
(-0.122658 0.00494932 0)
(-0.130952 0.00446408 0)
(-0.139519 0.00402478 0)
(-0.14719 0.00359549 0)
(-0.154001 0.0031661 0)
(-0.159983 0.00276625 0)
(-0.165163 0.00237121 0)
(-0.16957 0.00199738 0)
(-0.17323 0.00163292 0)
(-0.17616 0.00127472 0)
(-0.178381 0.000924583 0)
(-0.179912 0.000576576 0)
(-0.180728 0.000242964 0)
(-0.180878 -0.000101026 0)
(-0.180323 -0.000449931 0)
(-0.17907 -0.000802973 0)
(-0.177095 -0.00116187 0)
(-0.174385 -0.00153417 0)
(-0.17092 -0.00191331 0)
(-0.16667 -0.00230516 0)
(-0.161609 -0.00272391 0)
(-0.155704 -0.00314466 0)
(-0.148919 -0.00357969 0)
(-0.141221 -0.00405774 0)
(-0.132575 -0.00452116 0)
(-0.122955 -0.00503852 0)
(-0.112336 -0.00551892 0)
(-0.100707 -0.00599795 0)
(-0.088058 -0.00654953 0)
(-0.0743967 -0.0070105 0)
(-0.0597492 -0.00744623 0)
(-0.044143 -0.0079754 0)
(-0.0276401 -0.00834701 0)
(-0.0103714 -0.00879822 0)
(0.0075449 -0.00904619 0)
(0.0259888 -0.00920769 0)
(0.0448276 -0.00946387 0)
(0.0638828 -0.00945177 0)
(0.082914 -0.00931668 0)
(0.101695 -0.00923493 0)
(0.119983 -0.00887166 0)
(0.137529 -0.00850875 0)
(0.154064 -0.00790175 0)
(0.169323 -0.00716853 0)
(0.183055 -0.0063831 0)
(0.195023 -0.00544158 0)
(0.205014 -0.00439928 0)
(0.212861 -0.00329438 0)
(0.218418 -0.00212467 0)
(0.221566 -0.000910696 0)
(0.222257 0.000265569 0)
(0.220486 0.00151019 0)
(0.216216 0.00265303 0)
(0.209679 0.00377649 0)
(0.200937 0.00489132 0)
(0.19013 0.00578769 0)
(0.177495 0.00667505 0)
(0.163233 0.00748298 0)
(0.147573 0.00803843 0)
(0.130799 0.00857448 0)
(0.113162 0.00888683 0)
(0.0948912 0.00917445 0)
(0.0762304 0.00933651 0)
(0.0574053 0.00931935 0)
(0.0386238 0.0092695 0)
(0.0201058 0.009111 0)
(0.00198749 0.00883445 0)
(-0.0155759 0.0085372 0)
(-0.0324588 0.00816006 0)
(-0.0485806 0.007777 0)
(-0.0637899 0.00732647 0)
(-0.0781135 0.00686833 0)
(-0.0915669 0.00641427 0)
(-0.104027 0.00591499 0)
(-0.11548 0.00544743 0)
(-0.125969 0.00500006 0)
(-0.135525 0.00452171 0)
(-0.144239 0.00411588 0)
(-0.152086 0.00363829 0)
(-0.158994 0.00321223 0)
(-0.165046 0.00282969 0)
(-0.170316 0.00237882 0)
(-0.17472 0.00195985 0)
(-0.178233 0.00157681 0)
(-0.180954 0.00110263 0)
(-0.182804 0.000691817 0)
(-0.183732 0.000296245 0)
(-0.183808 -0.000192964 0)
(-0.183035 -0.000609286 0)
(-0.181296 -0.00107452 0)
(-0.178645 -0.00151248 0)
(-0.175151 -0.00193606 0)
(-0.170815 -0.00233822 0)
(-0.165709 -0.00269688 0)
(-0.159888 -0.00304441 0)
(-0.1534 -0.00336406 0)
(-0.146268 -0.00369969 0)
(-0.138471 -0.00403816 0)
(-0.129981 -0.00439898 0)
(-0.120777 -0.00479 0)
(-0.110794 -0.00514931 0)
(-0.099969 -0.00558382 0)
(-0.0882881 -0.00598038 0)
(-0.0757387 -0.00643039 0)
(-0.0623542 -0.0068355 0)
(-0.0481454 -0.00726304 0)
(-0.0331628 -0.00763266 0)
(-0.0174307 -0.00794699 0)
(-0.0010425 -0.00824663 0)
(0.0158539 -0.00849295 0)
(0.0331386 -0.00863997 0)
(0.0506932 -0.00876162 0)
(0.0683836 -0.00875821 0)
(0.086014 -0.00868681 0)
(0.103396 -0.00852503 0)
(0.120337 -0.00824023 0)
(0.13661 -0.00786721 0)
(0.151997 -0.00736836 0)
(0.166291 -0.0067664 0)
(0.179245 -0.00604227 0)
(0.190598 -0.00520772 0)
(0.200153 -0.00426416 0)
(0.20773 -0.00321387 0)
(0.213123 -0.00210552 0)
(0.216186 -0.000949912 0)
(0.21687 0.000228124 0)
(0.215139 0.00146175 0)
(0.210929 0.0026465 0)
(0.204404 0.0037907 0)
(0.195639 0.00486445 0)
(0.184775 0.00586302 0)
(0.172023 0.00673344 0)
(0.157611 0.00753597 0)
(0.141754 0.00816723 0)
(0.124706 0.00870671 0)
(0.106739 0.00907701 0)
(0.0880935 0.00935723 0)
(0.0690694 0.00946603 0)
(0.0499256 0.00949221 0)
(0.0308793 0.00940224 0)
(0.0121404 0.00918192 0)
(-0.00609398 0.00889282 0)
(-0.0236681 0.00852838 0)
(-0.0404073 0.0080776 0)
(-0.0561972 0.0075972 0)
(-0.0709874 0.00707571 0)
(-0.084713 0.00654056 0)
(-0.097347 0.00598642 0)
(-0.108862 0.00544173 0)
(-0.119287 0.00492379 0)
(-0.128673 0.0044057 0)
(-0.137049 0.00390631 0)
(-0.144462 0.00344379 0)
(-0.150954 0.00301518 0)
(-0.156596 0.00259967 0)
(-0.161419 0.00219801 0)
(-0.165452 0.00182793 0)
(-0.16879 0.00147824 0)
(-0.171435 0.00112352 0)
(-0.173403 0.000849476 0)
(-0.174746 0.000520618 0)
(-0.175477 0.000232136 0)
(-0.175635 -7.06087e-05 0)
(-0.175193 -0.000351842 0)
(-0.174172 -0.000643367 0)
(-0.172601 -0.000929933 0)
(-0.170417 -0.00123218 0)
(-0.167636 -0.00152444 0)
(-0.164267 -0.00183646 0)
(-0.160244 -0.00213107 0)
(-0.15556 -0.0024791 0)
(-0.150196 -0.00282809 0)
(-0.144122 -0.00318698 0)
(-0.137319 -0.00355525 0)
(-0.12976 -0.00393265 0)
(-0.121432 -0.0043196 0)
(-0.112324 -0.00472913 0)
(-0.102392 -0.00513656 0)
(-0.0916204 -0.0055715 0)
(-0.0799755 -0.00595435 0)
(-0.0674715 -0.00639223 0)
(-0.0541466 -0.00681101 0)
(-0.0400099 -0.00720976 0)
(-0.0251121 -0.00756044 0)
(-0.00949099 -0.00789541 0)
(0.00675926 -0.00817793 0)
(0.023492 -0.00839838 0)
(0.0405795 -0.00854142 0)
(0.0578943 -0.00859476 0)
(0.0752168 -0.00855757 0)
(0.0923284 -0.00840799 0)
(0.109019 -0.00810877 0)
(0.124999 -0.00770096 0)
(0.140012 -0.007159 0)
(0.153812 -0.00649183 0)
(0.166129 -0.00570392 0)
(0.176732 -0.00480149 0)
(0.185432 -0.00379819 0)
(0.19202 -0.00272567 0)
(0.196361 -0.00157866 0)
(0.198362 -0.000413295 0)
(0.198008 0.000751304 0)
(0.195189 0.0019642 0)
(0.190032 0.00310999 0)
(0.18262 0.00421227 0)
(0.173099 0.00520867 0)
(0.161638 0.00612589 0)
(0.148456 0.00691211 0)
(0.133792 0.00759267 0)
(0.117913 0.00811446 0)
(0.101075 0.00853424 0)
(0.0835573 0.00880717 0)
(0.0656295 0.00893695 0)
(0.047536 0.00898626 0)
(0.0295637 0.0088402 0)
(0.0119224 0.00862818 0)
(-0.00518316 0.00834897 0)
(-0.0216295 0.00800623 0)
(-0.0373625 0.00762019 0)
(-0.0522946 0.00719795 0)
(-0.0663944 0.00678332 0)
(-0.0796193 0.00633492 0)
(-0.0919621 0.00590302 0)
(-0.103415 0.00546196 0)
(-0.113955 0.0050025 0)
(-0.123592 0.00453969 0)
(-0.13228 0.00406988 0)
(-0.14003 0.00365251 0)
(-0.146904 0.0031932 0)
(-0.152926 0.00279057 0)
(-0.158133 0.00238957 0)
(-0.162596 0.00204034 0)
(-0.166378 0.00172393 0)
(-0.169507 0.00139645 0)
(-0.172018 0.00110902 0)
(-0.173947 0.000817752 0)
(-0.175301 0.00052171 0)
(-0.176074 0.000257679 0)
(-0.176318 -3.17784e-05 0)
(-0.175978 -0.000274117 0)
(-0.175107 -0.000561375 0)
(-0.173731 -0.000804979 0)
(-0.171842 -0.00104437 0)
(-0.169513 -0.00127058 0)
(-0.166713 -0.00150052 0)
(-0.163425 -0.00176111 0)
(-0.159611 -0.0020277 0)
(-0.155201 -0.00234362 0)
(-0.150163 -0.00269521 0)
(-0.1444 -0.0030146 0)
(-0.137876 -0.00341834 0)
(-0.130572 -0.00382274 0)
(-0.122449 -0.00423503 0)
(-0.11348 -0.00466067 0)
(-0.103686 -0.00503968 0)
(-0.0931264 -0.00544988 0)
(-0.0817869 -0.00576965 0)
(-0.0697293 -0.00614522 0)
(-0.0569787 -0.00650002 0)
(-0.0435431 -0.00680956 0)
(-0.0294627 -0.00712369 0)
(-0.0148256 -0.00742591 0)
(0.000432314 -0.00762421 0)
(0.0162318 -0.00786201 0)
(0.0323297 -0.007975 0)
(0.048695 -0.00805613 0)
(0.0650629 -0.00800683 0)
(0.0812965 -0.0078655 0)
(0.097155 -0.00762531 0)
(0.112345 -0.00717539 0)
(0.126677 -0.00668799 0)
(0.139778 -0.00606147 0)
(0.151584 -0.00532375 0)
(0.16175 -0.00451544 0)
(0.170119 -0.00358488 0)
(0.176573 -0.00266277 0)
(0.181009 -0.00166727 0)
(0.183371 -0.000702323 0)
(0.183747 0.000325824 0)
(0.182171 0.00126024 0)
(0.178545 0.00219483 0)
(0.173104 0.00311318 0)
(0.165621 0.00405166 0)
(0.156319 0.0049945 0)
(0.145452 0.00582629 0)
(0.132861 0.00670463 0)
(0.11876 0.00741025 0)
(0.103412 0.0079615 0)
(0.0870892 0.00839974 0)
(0.0702062 0.00859213 0)
(0.0529051 0.00868011 0)
(0.0357834 0.00861081 0)
(0.0191029 0.00841913 0)
(0.00150086 0.00815492 0)
(-0.0162229 0.00778286 0)
(-0.0324678 0.00735113 0)
(-0.0476827 0.0069197 0)
(-0.061843 0.00646004 0)
(-0.0749457 0.00597717 0)
(-0.0870209 0.00551537 0)
(-0.0980639 0.00503947 0)
(-0.108106 0.00459062 0)
(-0.117174 0.00414537 0)
(-0.12529 0.00370981 0)
(-0.132498 0.00329742 0)
(-0.138832 0.00289561 0)
(-0.144328 0.00250731 0)
(-0.149025 0.00213761 0)
(-0.152957 0.00177592 0)
(-0.156148 0.00142914 0)
(-0.158618 0.00109027 0)
(-0.160393 0.000744309 0)
(-0.161474 0.000400895 0)
(-0.161879 7.91255e-05 0)
(-0.161604 -0.000244465 0)
(-0.160696 -0.000567735 0)
(-0.159149 -0.000906765 0)
(-0.156948 -0.00125003 0)
(-0.154042 -0.00160062 0)
(-0.15042 -0.00197695 0)
(-0.146062 -0.00234979 0)
(-0.140918 -0.00273959 0)
(-0.13496 -0.00316305 0)
(-0.128163 -0.00358087 0)
(-0.120488 -0.00404186 0)
(-0.111908 -0.00448358 0)
(-0.1024 -0.00493393 0)
(-0.0919414 -0.00544222 0)
(-0.0805151 -0.00589891 0)
(-0.0681264 -0.0063487 0)
(-0.054777 -0.00687169 0)
(-0.0404742 -0.00729201 0)
(-0.0252865 -0.00768436 0)
(-0.00928419 -0.00815003 0)
(0.0074676 -0.00844719 0)
(0.0248807 -0.00883307 0)
(0.042836 -0.00900619 0)
(0.0611617 -0.00908778 0)
(0.079691 -0.00924617 0)
(0.0982323 -0.00913844 0)
(0.116561 -0.00891665 0)
(0.134459 -0.00874459 0)
(0.151682 -0.00829312 0)
(0.167991 -0.00786219 0)
(0.183136 -0.0071788 0)
(0.196879 -0.0063946 0)
(0.209008 -0.00558888 0)
(0.219312 -0.00461906 0)
(0.227622 -0.00358573 0)
(0.233799 -0.00251106 0)
(0.23773 -0.00138213 0)
(0.23936 -0.000221493 0)
(0.2387 0.000915147 0)
(0.235711 0.00205842 0)
(0.23046 0.00312686 0)
(0.223088 0.00415857 0)
(0.212504 0.00512685 0)
(-0.12277 0.00692842 0)
(-0.13106 0.00624898 0)
(-0.139625 0.00563388 0)
(-0.147292 0.00503284 0)
(-0.154099 0.0044317 0)
(-0.160077 0.00387193 0)
(-0.165254 0.00331895 0)
(-0.169659 0.00279565 0)
(-0.173316 0.00228547 0)
(-0.176244 0.00178413 0)
(-0.178463 0.00129442 0)
(-0.17999 0.000808706 0)
(-0.180814 0.000337722 0)
(-0.18096 -0.000141934 0)
(-0.180407 -0.000630381 0)
(-0.179154 -0.00112394 0)
(-0.177182 -0.00162616 0)
(-0.174475 -0.00214724 0)
(-0.171012 -0.0026779 0)
(-0.166766 -0.0032264 0)
(-0.161709 -0.00381257 0)
(-0.155807 -0.00440158 0)
(-0.149026 -0.00501065 0)
(-0.141333 -0.00567997 0)
(-0.132689 -0.00632891 0)
(-0.123073 -0.00705341 0)
(-0.112456 -0.0077262 0)
(-0.100826 -0.00839716 0)
(-0.088178 -0.00916978 0)
(-0.0745128 -0.00981556 0)
(-0.0598594 -0.0104261 0)
(-0.0442484 -0.0111673 0)
(-0.0277331 -0.0116879 0)
(-0.0104511 -0.0123212 0)
(0.00748073 -0.0126692 0)
(0.0259433 -0.0128957 0)
(0.0448045 -0.0132551 0)
(0.0638845 -0.0132386 0)
(0.0829416 -0.0130499 0)
(0.101754 -0.012936 0)
(0.120071 -0.0124275 0)
(0.137651 -0.0119197 0)
(0.154216 -0.01107 0)
(0.169503 -0.0100429 0)
(0.183266 -0.00894259 0)
(0.195258 -0.0076247 0)
(0.205272 -0.00616404 0)
(0.213137 -0.00461781 0)
(0.218704 -0.00298471 0)
(0.221865 -0.00127686 0)
(0.222541 0.000383567 0)
(0.220747 0.00212005 0)
(0.216485 0.00371394 0)
(0.209936 0.00529025 0)
(0.201178 0.00685251 0)
(0.190346 0.00810804 0)
(0.177686 0.009351 0)
(0.163396 0.0104827 0)
(0.147706 0.0112606 0)
(0.130901 0.0120118 0)
(0.113236 0.0124487 0)
(0.0949359 0.0128514 0)
(0.0762474 0.0130778 0)
(0.0573989 0.0130529 0)
(0.0385941 0.0129825 0)
(0.0200545 0.0127595 0)
(0.00191995 0.0123737 0)
(-0.0156577 0.0119563 0)
(-0.03255 0.0114248 0)
(-0.0486833 0.0108883 0)
(-0.0638999 0.0102618 0)
(-0.0782244 0.00961643 0)
(-0.0916851 0.00898075 0)