/*--------------------------------*- C++ -*----------------------------------*\
| =========                 |                                                 |
| \\      /  F ield         | OpenFOAM: The Open Source CFD Toolbox           |
|  \\    /   O peration     | Version:  3.0.1                                 |
|   \\  /    A nd           | Web:      www.OpenFOAM.org                      |
|    \\/     M anipulation  |                                                 |
\*---------------------------------------------------------------------------*/
FoamFile
{
    version     2.0;
    format      ascii;
    class       surfaceScalarField;
    location    "43";
    object      alphaPhi;
}
// * * * * * * * * * * * * * * * * * * * * * * * * * * * * * * * * * * * * * //

dimensions      [0 3 -1 0 0 0 0];

internalField   nonuniform List<scalar> 
42423
(
8.83787e-05
-1.84339e-05
0.000106736
-1.8357e-05
0.000124585
-1.78494e-05
0.000141583
-1.69985e-05
0.000157714
-1.6131e-05
0.000172601
-1.48868e-05
0.000186072
-1.34713e-05
0.000197833
-1.17615e-05
0.000207625
-9.7919e-06
0.000215271
-7.64637e-06
0.000220625
-5.35443e-06
0.000223593
-2.96796e-06
0.000224159
-5.65373e-07
0.000222163
1.99569e-06
0.000217666
4.49624e-06
0.000210793
6.87383e-06
0.000201583
9.20982e-06
0.000190367
1.12152e-05
0.000177278
1.30897e-05
0.000162536
1.47415e-05
0.000146466
1.60701e-05
0.000129306
1.716e-05
0.000111208
1.8098e-05
9.254e-05
1.86678e-05
7.35693e-05
1.89706e-05
5.45782e-05
1.89911e-05
3.56815e-05
1.88967e-05
1.71173e-05
1.85642e-05
-9.81113e-07
1.80983e-05
-1.84966e-05
1.75155e-05
-3.52546e-05
1.67579e-05
-5.11629e-05
1.59083e-05
-6.61681e-05
1.50052e-05
-8.022e-05
1.40518e-05
-9.32934e-05
1.30734e-05
-0.000105368
1.20745e-05
-0.000116454
1.10861e-05
-0.000126562
1.01084e-05
-0.000135708
9.14557e-06
-0.000143926
8.21821e-06
-0.000151262
7.33578e-06
-0.000157726
6.46435e-06
-0.000163367
5.64088e-06
-0.000168205
4.83736e-06
-0.000172255
4.05079e-06
-0.000175554
3.29827e-06
-0.000178114
2.56006e-06
-0.000179934
1.82007e-06
-0.000181067
1.13286e-06
-0.000181523
4.55944e-07
-0.00018115
-3.72156e-07
-0.000180047
-1.10317e-06
-0.000178169
-1.8779e-06
-0.000175567
-2.60255e-06
-0.000172174
-3.39283e-06
-0.000167928
-4.24645e-06
-0.000162943
-4.98411e-06
-0.000157165
-5.7788e-06
-0.000150403
-6.76185e-06
-0.000142864
-7.53938e-06
-0.000134338
-8.52513e-06
-0.000124859
-9.47973e-06
-0.000114573
-1.02861e-05
-0.000103324
-1.12488e-05
-9.11644e-05
-1.21595e-05
-7.82475e-05
-1.29169e-05
-6.43421e-05
-1.39055e-05
-4.98245e-05
-1.45177e-05
-3.45261e-05
-1.52984e-05
-1.85058e-05
-1.60203e-05
-2.00497e-06
-1.65009e-05
1.49386e-05
-1.69437e-05
3.22747e-05
-1.73361e-05
4.96621e-05
-1.73875e-05
6.71305e-05
-1.74684e-05
8.44123e-05
-1.72818e-05
0.00010144
-1.70276e-05
0.000117952
-1.65122e-05
0.000133846
-1.58939e-05
0.000148857
-1.50112e-05
0.000162846
-1.39894e-05
0.000175547
-1.27011e-05
0.000186781
-1.12334e-05
0.000196434
-9.65313e-06
0.000204228
-7.79431e-06
0.000210087
-5.85854e-06
0.000213889
-3.8022e-06
0.000215544
-1.65483e-06
0.000214988
5.56222e-07
0.000212166
2.82281e-06
0.000207104
5.06212e-06
0.000199868
7.23638e-06
0.000190561
9.30683e-06
0.000179316
1.12455e-05
0.000166313
1.30032e-05
0.000151777
1.45355e-05
0.000135875
1.59026e-05
0.000118883
1.69916e-05
0.000101038
1.78449e-05
8.25963e-05
1.84421e-05
6.38437e-05
1.87526e-05
4.49971e-05
1.88466e-05
2.62179e-05
1.87792e-05
7.81424e-06
1.84036e-05
-1.00778e-05
1.7892e-05
-2.72444e-05
1.71665e-05
-4.35983e-05
1.63539e-05
-5.90438e-05
1.54455e-05
-7.34548e-05
1.44109e-05
-8.68202e-05
1.33654e-05
-9.91287e-05
1.23086e-05
-0.000110301
1.11719e-05
-0.000120391
1.00905e-05
-0.000129485
9.0937e-06
-0.000137496
8.01159e-06
-0.000144556
7.05947e-06
-0.000150628
6.07177e-06
-0.000155804
5.17649e-06
-0.000160183
4.37862e-06
-0.0001637
3.51766e-06
-0.00016645
2.7491e-06
-0.000168457
2.00791e-06
-0.000169753
1.29594e-06
-0.000170423
6.69939e-07
-0.000170391
-3.20305e-08
-0.000169832
-5.59116e-07
-0.000168587
-1.24539e-06
-0.000166836
-1.75102e-06
-0.000164508
-2.32789e-06
-0.000161629
-2.87878e-06
-0.000158222
-3.40684e-06
-0.000154247
-3.9758e-06
-0.000149771
-4.47556e-06
-0.000144705
-5.06655e-06
-0.000139195
-5.50982e-06
-0.000133091
-6.10368e-06
-0.000126404
-6.68668e-06
-0.00011915
-7.2542e-06
-0.000111198
-7.95282e-06
-0.000102757
-8.44017e-06
-9.35608e-05
-9.19664e-06
-8.38015e-05
-9.75944e-06
-7.33174e-05
-1.04842e-05
-6.2105e-05
-1.12125e-05
-5.01752e-05
-1.19299e-05
-3.75299e-05
-1.26454e-05
-2.41953e-05
-1.33347e-05
-1.02428e-05
-1.39526e-05
4.32495e-06
-1.45678e-05
1.93959e-05
-1.50711e-05
3.48846e-05
-1.54888e-05
5.0697e-05
-1.58124e-05
6.66535e-05
-1.59567e-05
8.26228e-05
-1.59694e-05
9.84216e-05
-1.57989e-05
0.000113836
-1.54149e-05
0.000128669
-1.48327e-05
0.000142676
-1.40075e-05
0.000155653
-1.29769e-05
0.000167377
-1.17245e-05
0.000177621
-1.02435e-05
0.000186225
-8.60444e-06
0.000192938
-6.71298e-06
0.000197677
-4.73932e-06
0.000200281
-2.60347e-06
0.000200665
-3.8396e-07
0.000198837
1.8273e-06
0.000194703
4.13374e-06
0.000188404
6.29902e-06
0.000180108
8.29585e-06
0.000169896
1.02121e-05
0.000158045
1.18512e-05
0.000144701
1.33441e-05
0.000130126
1.4575e-05
0.00011457
1.55554e-05
9.82162e-05
1.63542e-05
8.13923e-05
1.68239e-05
6.43069e-05
1.70853e-05
4.7192e-05
1.71148e-05
3.02672e-05
1.69248e-05
1.36541e-05
1.6613e-05
-2.43749e-06
1.60916e-05
-1.79216e-05
1.54841e-05
-3.26759e-05
1.47542e-05
-4.66306e-05
1.39547e-05
-5.97027e-05
1.30721e-05
-7.18597e-05
1.2157e-05
-8.309e-05
1.12303e-05
-9.33931e-05
1.03031e-05
-0.000102769
9.37566e-06
-0.000111291
8.52207e-06
-0.00011905
7.75897e-06
-0.000126066
7.01635e-06
-0.000132391
6.3244e-06
-0.000138074
5.68385e-06
-0.000143057
4.9827e-06
-0.000147365
4.30773e-06
-0.000151117
3.75229e-06
-0.000154167
3.04946e-06
-0.000156628
2.46156e-06
-0.000158524
1.89548e-06
-0.000159895
1.37175e-06
-0.000160896
1.00069e-06
-0.000161412
5.15927e-07
-0.000161499
8.70252e-08
-0.000161101
-3.97856e-07
-0.000160242
-8.59639e-07
-0.0001589
-1.34119e-06
-0.000157066
-1.83438e-06
-0.000154766
-2.30003e-06
-0.000151951
-2.81546e-06
-0.000148657
-3.29366e-06
-0.000144817
-3.84003e-06
-0.00014045
-4.3671e-06
-0.000135613
-4.83686e-06
-0.000130158
-5.45476e-06
-0.000124077
-6.08108e-06
-0.000117514
-6.5637e-06
-0.000110227
-7.28615e-06
-0.000102223
-8.00447e-06
-9.34604e-05
-8.76274e-06
-8.39117e-05
-9.54879e-06
-7.35307e-05
-1.0381e-05
-6.23725e-05
-1.11583e-05
-5.03762e-05
-1.19964e-05
-3.75759e-05
-1.28004e-05
-2.39593e-05
-1.36167e-05
-9.63657e-06
-1.43228e-05
5.43162e-06
-1.50683e-05
2.11632e-05
-1.57317e-05
3.73694e-05
-1.62063e-05
5.40028e-05
-1.66335e-05
7.0854e-05
-1.68513e-05
8.7746e-05
-1.68922e-05
0.000104497
-1.6751e-05
0.000120839
-1.63422e-05
0.000136525
-1.56866e-05
0.0001513
-1.47749e-05
0.000164907
-1.36069e-05
0.000177049
-1.21426e-05
0.00018754
-1.04911e-05
0.000196131
-8.59041e-06
0.000202652
-6.52109e-06
0.000207001
-4.3495e-06
0.000209004
-2.0029e-06
0.000208698
3.05391e-07
0.000206004
2.69427e-06
0.000200891
5.11317e-06
0.000193555
7.3357e-06
0.000184122
9.43337e-06
0.0001728
1.13212e-05
0.000159769
1.30307e-05
0.000145296
1.44729e-05
0.000129626
1.56705e-05
0.000113031
1.65943e-05
9.58121e-05
1.72192e-05
7.82308e-05
1.75813e-05
6.0473e-05
1.77577e-05
4.27713e-05
1.77016e-05
2.53372e-05
1.74341e-05
8.31454e-06
1.70226e-05
-8.15446e-06
1.6469e-05
-2.40324e-05
1.5878e-05
-3.91944e-05
1.5162e-05
-5.35422e-05
1.43478e-05
-6.71254e-05
1.35832e-05
-7.97862e-05
1.26609e-05
-9.15287e-05
1.17425e-05
-0.000102407
1.08781e-05
-0.000112387
9.98057e-06
-0.000121333
8.94594e-06
-0.000129432
8.09892e-06
-0.000136667
7.23534e-06
-0.00014289
6.22324e-06
-0.000148315
5.42441e-06
-0.0001528
4.48569e-06
-0.00015636
3.55929e-06
-0.000159086
2.72677e-06
-0.000160942
1.85547e-06
-0.000161889
9.46753e-07
-0.00016205
1.61491e-07
-0.000161209
-8.41075e-07
-0.000159709
-1.49971e-06
-0.000157481
-2.22806e-06
-0.000154495
-2.98652e-06
-0.000150959
-3.53592e-06
-0.000146943
-4.01544e-06
-0.000142299
-4.64433e-06
-0.000137242
-5.05705e-06
-0.000131587
-5.65458e-06
-0.000125414
-6.17373e-06
-0.000118783
-6.63019e-06
-0.000111474
-7.30982e-06
-0.000103439
-8.03425e-06
-9.47987e-05
-8.64075e-06
-8.51577e-05
-9.64108e-06
-7.46395e-05
-1.05182e-05
-6.32602e-05
-1.13793e-05
-5.06726e-05
-1.25877e-05
-3.72125e-05
-1.34602e-05
-2.26451e-05
-1.45674e-05
-7.01475e-06
-1.56304e-05
9.27815e-06
-1.6293e-05
2.64126e-05
-1.71345e-05
4.42423e-05
-1.78298e-05
6.23879e-05
-1.81456e-05
8.08766e-05
-1.84888e-05
9.93181e-05
-1.84416e-05
0.000117516
-1.81982e-05
0.000135313
-1.77964e-05
0.000152192
-1.6879e-05
0.000167979
-1.57879e-05
0.000182426
-1.44462e-05
0.00019523
-1.28049e-05
0.000206298
-1.1068e-05
0.000215319
-9.02118e-06
0.000222189
-6.86966e-06
0.000226729
-4.53995e-06
0.000228868
-2.13951e-06
0.000228632
2.36388e-07
0.000225934
2.69758e-06
0.000220695
5.23916e-06
0.00021337
7.32457e-06
0.000203929
9.44157e-06
0.000192744
1.11848e-05
0.000180023
1.27209e-05
0.00016579
1.42331e-05
0.000150522
1.52679e-05
0.00013437
1.61522e-05
0.000117541
1.6829e-05
0.000100229
1.73111e-05
8.27351e-05
1.74943e-05
6.51908e-05
1.75443e-05
4.77744e-05
1.74164e-05
3.05361e-05
1.72383e-05
1.36861e-05
1.685e-05
-2.63513e-06
1.63212e-05
-1.83994e-05
1.57642e-05
-3.34768e-05
1.50774e-05
-4.78397e-05
1.43629e-05
-6.14075e-05
1.35678e-05
-7.41076e-05
1.27001e-05
-8.59376e-05
1.183e-05
-9.68342e-05
1.08966e-05
-0.000106809
9.97451e-06
-0.000115829
9.02003e-06
-0.000123869
8.04021e-06
-0.000130942
7.07343e-06
-0.000137044
6.10142e-06
-0.000142163
5.11871e-06
-0.000146309
4.1461e-06
-0.000149483
3.17476e-06
-0.000151693
2.20965e-06
-0.000152968
1.27466e-06
-0.000153327
3.59347e-07
-0.000152674
-6.53191e-07
-1.61643e-06
8.83896e-05
-3.6876e-05
0.000106757
-3.67241e-05
0.000124619
-3.57117e-05
0.000141631
-3.40107e-05
0.000157775
-3.22756e-05
0.000172674
-2.97858e-05
0.000186158
-2.6956e-05
0.000197931
-2.35342e-05
0.000207733
-1.95945e-05
0.000215394
-1.53071e-05
0.000220773
-1.07336e-05
0.000223761
-5.95685e-06
0.000224311
-1.11532e-06
0.000222284
4.02223e-06
0.000217783
8.99752e-06
0.000210903
1.37533e-05
0.000201691
1.84225e-05
0.000190464
2.24411e-05
0.000177363
2.6191e-05
0.000162609
2.9495e-05
0.000146527
3.21522e-05
0.000129356
3.43314e-05
0.000111245
3.62082e-05
9.25664e-05
3.73467e-05
7.35824e-05
3.79545e-05
5.45802e-05
3.79932e-05
3.56728e-05
3.7804e-05
1.70986e-05
3.71383e-05
-1.00236e-06
3.61993e-05
-1.85228e-05
3.50359e-05
-3.52839e-05
3.3519e-05
-5.11993e-05
3.18236e-05
-6.62099e-05
3.00158e-05
-8.02643e-05
2.81062e-05
-9.33398e-05
2.61489e-05
-0.000105419
2.41533e-05
-0.000116504
2.21716e-05
-0.000126612
2.0216e-05
-0.00013576
1.82937e-05
-0.000143981
1.64391e-05
-0.000151319
1.46738e-05
-0.000157785
1.29301e-05
-0.000163422
1.12786e-05
-0.000168257
9.6716e-06
-0.000172309
8.10346e-06
-0.000175613
6.60175e-06
-0.000178177
5.12397e-06
-0.000179996
3.6392e-06
-0.000181125
2.26188e-06
-0.000181576
9.0695e-07
-0.000181209
-7.387e-07
-0.000180108
-2.20422e-06
-0.000178232
-3.75393e-06
-0.000175625
-5.21021e-06
-0.000172238
-6.77948e-06
-0.000167994
-8.49033e-06
-0.000163024
-9.9546e-06
-0.000157231
-1.15718e-05
-0.000150471
-1.35214e-05
-0.000142931
-1.508e-05
-0.000134411
-1.70452e-05
-0.000124925
-1.89654e-05
-0.000114635
-2.05765e-05
-0.000103388
-2.24957e-05
-9.12235e-05
-2.43243e-05
-7.82944e-05
-2.58461e-05
-6.43945e-05
-2.78055e-05
-4.98798e-05
-2.90325e-05
-3.45726e-05
-3.06057e-05
-1.85429e-05
-3.20502e-05
-2.03838e-06
-3.30055e-05
1.49095e-05
-3.38916e-05
3.22607e-05
-3.46874e-05
4.96591e-05
-3.47861e-05
6.7127e-05
-3.49365e-05
8.44199e-05
-3.45748e-05
0.000101466
-3.4074e-05
0.00011799
-3.30363e-05
0.000133886
-3.17898e-05
0.000148916
-3.00407e-05
0.000162917
-2.79907e-05
0.000175621
-2.54054e-05
0.000186865
-2.2477e-05
0.000196538
-1.9326e-05
0.000204336
-1.55927e-05
0.000210198
-1.17198e-05
0.000214
-7.60479e-06
0.000215672
-3.32638e-06
0.000215106
1.12274e-06
0.000212277
5.65217e-06
0.000207212
1.01272e-05
0.000199959
1.44892e-05
0.000190638
1.86278e-05
0.000179386
2.24982e-05
0.000166369
2.60201e-05
0.000151807
2.90973e-05
0.0001359
3.18098e-05
0.000118899
3.39935e-05
0.000101045
3.56983e-05
8.25928e-05
3.68946e-05
6.38226e-05
3.75229e-05
4.49426e-05
3.77266e-05
2.61658e-05
3.75561e-05
7.76068e-06
3.68088e-05
-1.01278e-05
3.57806e-05
-2.73033e-05
3.4342e-05
-4.36712e-05
3.27219e-05
-5.91219e-05
3.08962e-05
-7.35397e-05
2.88288e-05
-8.69067e-05
2.67324e-05
-9.92099e-05
2.46119e-05
-0.000110387
2.23489e-05
-0.000120471
2.0175e-05
-0.000129566
1.81887e-05
-0.000137581
1.60261e-05
-0.000144637
1.41152e-05
-0.000150708
1.21436e-05
-0.000155887
1.03551e-05
-0.000160254
8.74518e-06
-0.000163779
7.04361e-06
-0.000166535
5.50449e-06
-0.000168547
4.02052e-06
-0.000169852
2.60083e-06
-0.000170511
1.32878e-06
-0.000170473
-7.04161e-08
-0.000169914
-1.11761e-06
-0.000168683
-2.47633e-06
-0.000166913
-3.52135e-06
-0.000164589
-4.65217e-06
-0.000161721
-5.74668e-06
-0.000158314
-6.81407e-06
-0.000154345
-7.94414e-06
-0.000149869
-8.95157e-06
-0.000144801
-1.01352e-05
-0.000139301
-1.10097e-05
-0.000133198
-1.2207e-05
-0.000126508
-1.33765e-05
-0.000119261
-1.45011e-05
-0.000111354
-1.58603e-05
-0.000102867
-1.69267e-05
-9.36728e-05
-1.83911e-05
-8.3916e-05
-1.95163e-05
-7.3426e-05
-2.09742e-05
-6.22169e-05
-2.24217e-05
-5.02726e-05
-2.38743e-05
-3.76463e-05
-2.52718e-05
-2.43087e-05
-2.66725e-05
-1.03504e-05
-2.79111e-05
4.23219e-06
-2.91505e-05
1.93046e-05
-3.01436e-05
3.48011e-05
-3.09855e-05
5.06202e-05
-3.16317e-05
6.6584e-05
-3.19207e-05
8.25689e-05
-3.19544e-05
9.83918e-05
-3.1622e-05
0.000113798
-3.08212e-05
0.000128638
-2.96732e-05
0.000142677
-2.80464e-05
0.000155662
-2.59617e-05
0.000167398
-2.34609e-05
0.00017766
-2.05059e-05
0.000186272
-1.72164e-05
0.000192992
-1.34335e-05
0.000197735
-9.48256e-06
0.000200337
-5.20499e-06
0.000200731
-7.78293e-07
0.000198896
3.66262e-06
0.000194782
8.24752e-06
0.000188465
1.26159e-05
0.000180161
1.65998e-05
0.000169945
2.04279e-05
0.000158077
2.37194e-05
0.000144727
2.66935e-05
0.000130152
2.915e-05
0.000114583
3.11249e-05
9.82177e-05
3.2719e-05
8.13841e-05
3.36574e-05
6.42847e-05
3.41848e-05
4.71597e-05
3.42398e-05
3.02328e-05
3.38517e-05
1.36105e-05
3.32354e-05
-2.48938e-06
3.21915e-05
-1.79769e-05
3.09717e-05
-3.27336e-05
2.95109e-05
-4.66941e-05
2.79152e-05
-5.9775e-05
2.61531e-05
-7.19378e-05
2.43197e-05
-8.31653e-05
2.24579e-05
-9.34665e-05
2.06043e-05
-0.000102844
1.87536e-05
-0.000111364
1.70417e-05
-0.000119118
1.55132e-05
-0.000126134
1.40322e-05
-0.000132464
1.26544e-05
-0.000138153
1.13731e-05
-0.000143148
9.97696e-06
-0.00014747
8.63018e-06
-0.000151194
7.47673e-06
-0.000154247
6.10219e-06
-0.000156712
4.92597e-06
-0.00015861
3.79383e-06
-0.00016001
2.77194e-06
-0.000160984
1.97449e-06
-0.000161491
1.02345e-06
-0.000161586
1.81328e-07
-0.000161194
-7.89379e-07
-0.000160341
-1.71282e-06
-0.000159001
-2.68156e-06
-0.000157172
-3.66309e-06
-0.000154873
-4.59933e-06
-0.000152024
-5.66455e-06
-0.000148764
-6.55356e-06
-0.000144926
-7.67731e-06
-0.000140555
-8.73833e-06
-0.000135723
-9.66911e-06
-0.000130278
-1.08999e-05
-0.000124205
-1.21539e-05
-0.00011764
-1.31289e-05
-0.000110349
-1.45772e-05
-0.000102343
-1.60105e-05
-9.35778e-05
-1.7528e-05
-8.40266e-05
-1.91002e-05
-7.36072e-05
-2.08005e-05
-6.24987e-05
-2.22669e-05
-5.05053e-05
-2.39899e-05
-3.76918e-05
-2.5614e-05
-2.40859e-05
-2.72228e-05
-9.74717e-06
-2.86617e-05
5.32852e-06
-3.01442e-05
2.10473e-05
-3.14506e-05
3.72842e-05
-3.24434e-05
5.39292e-05
-3.32787e-05
7.07921e-05
-3.37144e-05
8.77007e-05
-3.38009e-05
0.000104471
-3.35212e-05
0.000120818
-3.26897e-05
0.00013653
-3.13988e-05
0.000151317
-2.95623e-05
0.000164952
-2.72422e-05
0.000177105
-2.42957e-05
0.000187601
-2.09867e-05
0.000196191
-1.71808e-05
0.00020273
-1.30602e-05
0.00020709
-8.7099e-06
0.00020909
-4.00249e-06
0.000208782
6.12853e-07
0.000206078
5.39775e-06
0.000200969
1.02219e-05
0.000193626
1.46794e-05
0.000184187
1.88722e-05
0.000172862
2.26462e-05
0.000159829
2.60628e-05
0.00014534
2.89622e-05
0.000129651
3.1359e-05
0.000113042
3.32034e-05
9.58115e-05
3.445e-05
7.8226e-05
3.51667e-05
6.04559e-05
3.55277e-05
4.27401e-05
3.54174e-05
2.52905e-05
3.48836e-05
8.25491e-06
3.40582e-05
-8.22508e-06
3.2949e-05
-2.4086e-05
3.17389e-05
-3.92666e-05
3.03427e-05
-5.36199e-05
2.87011e-05
-6.72041e-05
2.71675e-05
-7.9875e-05
2.53319e-05
-9.16079e-05
2.34755e-05
-0.000102481
2.1751e-05
-0.000112471
1.99706e-05
-0.000121412
1.78872e-05
-0.000129499
1.61867e-05
-0.000136742
1.44775e-05
-0.000142967
1.24491e-05
-0.00014839
1.0847e-05
-0.000152873
8.96889e-06
-0.000156434
7.12018e-06
-0.000159165
5.45822e-06
-0.00016102
3.70982e-06
-0.000161966
1.89319e-06
-0.00016212
3.15298e-07
-0.000161276
-1.68486e-06
-0.00015976
-3.01519e-06
-0.000157538
-4.45071e-06
-0.00015455
-5.97424e-06
-0.000151013
-7.07285e-06
-0.000146996
-8.03227e-06
-0.000142349
-9.29165e-06
-0.000137289
-1.0117e-05
-0.000131637
-1.13068e-05
-0.000125463
-1.23474e-05
-0.000118835
-1.32584e-05
-0.000111528
-1.4617e-05
-0.000103495
-1.60678e-05
-9.48619e-05
-1.72735e-05
-8.52395e-05
-1.92636e-05
-7.47021e-05
-2.10557e-05
-6.32973e-05
-2.27842e-05
-5.07272e-05
-2.51578e-05
-3.72686e-05
-2.69189e-05
-2.27003e-05
-2.91358e-05
-7.06681e-06
-3.1264e-05
9.23337e-06
-3.25933e-05
2.63727e-05
-3.4274e-05
4.42158e-05
-3.56731e-05
6.23747e-05
-3.63045e-05
8.08726e-05
-3.69868e-05
9.93281e-05
-3.68971e-05
0.00011754
-3.64103e-05
0.000135351
-3.56072e-05
0.000152244
-3.37728e-05
0.000168053
-3.15966e-05
0.000182522
-2.8916e-05
0.00019533
-2.56128e-05
0.000206402
-2.21395e-05
0.000215428
-1.80472e-05
0.000222307
-1.37491e-05
0.000226865
-9.0977e-06
0.000229022
-4.29694e-06
0.000228771
4.87109e-07
0.000226049
5.41914e-06
0.000220805
1.04838e-05
0.000213472
1.46569e-05
0.000204024
1.88894e-05
0.000192828
2.23808e-05
0.000180099
2.54498e-05
0.000165858
2.84747e-05
0.000150573
3.05519e-05
0.000134414
3.23117e-05
0.000117572
3.36708e-05
0.000100252
3.4631e-05
8.2746e-05
3.50004e-05
6.51923e-05
3.50979e-05
4.77719e-05
3.48367e-05
3.0527e-05
3.44831e-05
1.36803e-05
3.36966e-05
-2.65535e-06
3.26569e-05
-1.84237e-05
3.15325e-05
-3.35048e-05
3.01585e-05
-4.78716e-05
2.87296e-05
-6.14428e-05
2.7139e-05
-7.41463e-05
2.54035e-05
-8.59794e-05
2.36631e-05
-9.68783e-05
2.17955e-05
-0.000106855
1.99515e-05
-0.000115877
1.80415e-05
-0.000123917
1.60806e-05
-0.000130992
1.41482e-05
-0.000137092
1.22018e-05
-0.000142208
1.02343e-05
-0.000146352
8.29036e-06
-0.000149526
6.34835e-06
-0.000151736
4.41993e-06
-0.000153009
2.54754e-06
-0.000153365
7.15702e-07
-0.000152711
-1.30743e-06
-3.23517e-06
8.84135e-05
-5.53362e-05
0.000106804
-5.51153e-05
0.000124694
-5.3602e-05
0.000141733
-5.10498e-05
0.000157905
-4.8448e-05
0.00017283
-4.47104e-05
0.000186346
-4.04728e-05
0.000198155
-3.5343e-05
0.000207988
-2.94283e-05
0.000215666
-2.29851e-05
0.000221038
-1.61061e-05
0.00022401
-8.92835e-06
0.000224542
-1.64736e-06
0.000222481
6.08227e-06
0.00021797
1.35089e-05
0.000211076
2.06473e-05
0.000201848
2.76499e-05
0.00019061
3.36794e-05
0.00017749
3.93109e-05
0.000162714
4.42705e-05
0.000146613
4.8253e-05
0.000129424
5.15203e-05
0.000111295
5.43375e-05
9.26009e-05
5.60404e-05
7.35929e-05
5.69624e-05
5.4571e-05
5.70149e-05
3.5645e-05
5.673e-05
1.70535e-05
5.57298e-05
-1.05359e-06
5.43063e-05
-1.85853e-05
5.25676e-05
-3.53553e-05
5.02889e-05
-5.1277e-05
4.77453e-05
-6.62926e-05
4.50313e-05
-8.03518e-05
4.21654e-05
-9.34282e-05
3.92252e-05
-0.000105507
3.62317e-05
-0.000116595
3.32598e-05
-0.000126705
3.03259e-05
-0.000135848
2.74372e-05
-0.000144068
2.46583e-05
-0.000151409
2.20153e-05
-0.000157875
1.93956e-05
-0.000163512
1.69163e-05
-0.000168345
1.45044e-05
-0.000172393
1.21514e-05
-0.000175695
9.90364e-06
-0.000178259
7.6882e-06
-0.000180087
5.46681e-06
-0.000181217
3.39159e-06
-0.000181644
1.33475e-06
-0.000181269
-1.11413e-06
-0.000180167
-3.30621e-06
-0.000178293
-5.62813e-06
-0.000175682
-7.82089e-06
-0.0001723
-1.01618e-05
-0.000168058
-1.27321e-05
-0.00016309
-1.49225e-05
-0.000157296
-1.73659e-05
-0.00015054
-2.02777e-05
-0.000143003
-2.26175e-05
-0.000134487
-2.55608e-05
-0.000124997
-2.84553e-05
-0.000114709
-3.08644e-05
-0.000103473
-3.37323e-05
-9.12922e-05
-3.65051e-05
-7.83296e-05
-3.88088e-05
-6.44521e-05
-4.16831e-05
-4.99435e-05
-4.35412e-05
-3.46257e-05
-4.59236e-05
-1.85902e-05
-4.80857e-05
-2.07854e-06
-4.95173e-05
1.48799e-05
-5.08502e-05
3.22368e-05
-5.20445e-05
4.96474e-05
-5.21968e-05
6.71273e-05
-5.24165e-05
8.4435e-05
-5.18826e-05
0.000101491
-5.11306e-05
0.000118051
-4.95955e-05
0.000133946
-4.76855e-05
0.000148989
-4.50833e-05
0.000163024
-4.20257e-05
0.000175729
-3.8111e-05
0.000186993
-3.37404e-05
0.000196689
-2.90216e-05
0.000204483
-2.3387e-05
0.000210357
-1.75939e-05
0.000214172
-1.1419e-05
0.000215855
-5.00959e-06
0.000215256
1.72171e-06
0.000212416
8.49271e-06
0.000207347
1.51962e-05
0.000200087
2.17497e-05
0.00019075
2.79649e-05
0.000179475
3.37731e-05
0.000166431
3.90646e-05
0.000151842
4.36868e-05
0.000135917
4.7735e-05
0.000118898
5.10118e-05
0.000101019
5.35779e-05
8.25385e-05
5.53749e-05
6.37652e-05
5.62962e-05
4.48335e-05
5.66583e-05
2.60485e-05
5.63411e-05
7.62726e-06
5.523e-05
-1.02736e-05
5.36815e-05
-2.74604e-05
5.15288e-05
-4.38389e-05
4.91004e-05
-5.92871e-05
4.63444e-05
-7.37129e-05
4.32547e-05
-8.70855e-05
4.01049e-05
-9.93788e-05
3.69053e-05
-0.000110565
3.35348e-05
-0.000120679
3.0289e-05
-0.000129744
2.7254e-05
-0.000137762
2.40441e-05
-0.000144804
2.11573e-05
-0.000150877
1.82167e-05
-0.000156079
1.55567e-05
-0.000160416
1.30826e-05
-0.000163941
1.05687e-05
-0.000166693
8.25582e-06
-0.000168699
6.02722e-06
-0.000170008
3.90993e-06
-0.000170658
1.97832e-06
-0.000170651
-7.74509e-08
-0.000170057
-1.71103e-06
-0.000168839
-3.69434e-06
-0.00016705
-5.31062e-06
-0.000164688
-7.01409e-06
-0.000161856
-8.57855e-06
-0.000158442
-1.02286e-05
-0.000154479
-1.19071e-05
-0.000150001
-1.34294e-05
-0.000144953
-1.51829e-05
-0.000139438
-1.65253e-05
-0.000133338
-1.83069e-05
-0.000126654
-2.00605e-05
-0.000119405
-2.17498e-05
-0.000111518
-2.37476e-05
-0.000103025
-2.54201e-05
-9.38483e-05
-2.75677e-05
-8.40683e-05
-2.92964e-05
-7.35792e-05
-3.14633e-05
-6.23643e-05
-3.36366e-05
-5.0378e-05
-3.58607e-05
-3.78038e-05
-3.78461e-05
-2.4453e-05
-4.00233e-05
-1.04918e-05
-4.18724e-05
4.1169e-06
-4.37594e-05
1.91844e-05
-4.52113e-05
3.46908e-05
-4.6492e-05
5.05233e-05
-4.74643e-05
6.64988e-05
-4.78964e-05
8.25016e-05
-4.79573e-05
9.83486e-05
-4.74692e-05
0.000113764
-4.62369e-05
0.000128621
-4.453e-05
0.000142658
-4.20832e-05
0.000155679
-3.89832e-05
0.000167438
-3.52204e-05
0.000177733
-3.08006e-05
0.000186346
-2.58299e-05
0.000193085
-2.01726e-05
0.000197846
-1.42437e-05
0.000200444
-7.80323e-06
0.000200841
-1.17496e-06
0.000198979
5.52484e-06
0.000194868
1.23582e-05
0.000188543
1.89404e-05
0.000180224
2.49191e-05
0.000170005
3.06465e-05
0.000158106
3.56188e-05
0.000144741
4.00577e-05
0.000130161
4.37301e-05
0.000114531
4.67552e-05
9.81607e-05
4.90889e-05
8.13038e-05
5.05142e-05
6.41928e-05
5.12957e-05
4.70577e-05
5.13748e-05
3.01195e-05
5.079e-05
1.34714e-05
4.98835e-05
-2.64481e-06
4.83076e-05
-1.8131e-05
4.64578e-05
-3.28872e-05
4.42672e-05
-4.68602e-05
4.18881e-05
-5.99444e-05
3.92373e-05
-7.21093e-05
3.64846e-05
-8.3333e-05
3.36816e-05
-9.36324e-05
3.09037e-05
-0.000103013
2.81347e-05
-0.000111524
2.55524e-05
-0.000119255
2.32442e-05
-0.000126285
2.1062e-05
-0.000132616
1.8985e-05
-0.000138294
1.70514e-05
-0.000143298
1.49816e-05
-0.000147646
1.29782e-05
-0.000151339
1.11698e-05
-0.000154395
9.15756e-06
-0.000156849
7.38053e-06
-0.000158747
5.69101e-06
-0.000160172
4.19738e-06
-0.000161123
2.92519e-06
-0.000161591
1.49131e-06
-0.000161715
3.05867e-07
-0.000161312
-1.19297e-06
-0.000160477
-2.54755e-06
-0.000159132
-4.02648e-06
-0.000157303
-5.49205e-06
-0.000155002
-6.90049e-06
-0.000152154
-8.51236e-06
-0.000148901
-9.80711e-06
-0.000145078
-1.14999e-05
-0.000140698
-1.3118e-05
-0.000135865
-1.45024e-05
-0.000130434
-1.63308e-05
-0.000124367
-1.82216e-05
-0.000117785
-1.97101e-05
-0.000110501
-2.18621e-05
-0.000102487
-2.40242e-05
-9.3739e-05
-2.6276e-05
-8.41885e-05
-2.86508e-05
-7.37692e-05
-3.12199e-05
-6.26576e-05
-3.33786e-05
-5.06637e-05
-3.59839e-05
-3.78457e-05
-3.84321e-05
-2.42495e-05
-4.08191e-05
-9.89962e-06
-4.30117e-05
5.18702e-06
-4.52309e-05
2.09085e-05
-4.71723e-05
3.71644e-05
-4.86994e-05
5.3832e-05
-4.99465e-05
7.07095e-05
-5.0592e-05
8.76375e-05
-5.07291e-05
0.00010445
-5.03334e-05
0.000120807
-4.90473e-05
0.000136532
-4.71242e-05
0.000151347
-4.43768e-05
0.000165003
-4.08987e-05
0.000177168
-3.64605e-05
0.000187684
-3.15032e-05
0.000196288
-2.57846e-05
0.000202835
-1.96079e-05
0.000207202
-1.30763e-05
0.00020921
-6.0106e-06
0.000208887
9.35487e-07
0.000206139
8.14551e-06
0.00020105
1.5311e-05
0.000193707
2.2022e-05
0.000184268
2.83112e-05
0.000172909
3.40044e-05
0.000159855
3.91172e-05
0.000145343
4.3474e-05
0.000129634
4.70679e-05
0.000113002
4.9835e-05
9.57531e-05
5.16991e-05
7.81374e-05
5.27822e-05
6.03283e-05
5.33367e-05
4.26229e-05
5.31227e-05
2.51621e-05
5.23443e-05
8.11623e-06
5.1104e-05
-8.37529e-06
4.94404e-05
-2.42259e-05
4.75894e-05
-3.94172e-05
4.5534e-05
-5.3769e-05
4.3053e-05
-6.7313e-05
4.07115e-05
-8.00113e-05
3.80302e-05
-9.17436e-05
3.52079e-05
-0.000102601
3.26083e-05
-0.000112592
2.99619e-05
-0.000121532
2.68269e-05
-0.000129601
2.42561e-05
-0.000136851
2.17275e-05
-0.000143077
1.86752e-05
-0.000148497
1.62669e-05
-0.000152973
1.34449e-05
-0.000156531
1.06787e-05
-0.000159275
8.20221e-06
-0.000161129
5.56409e-06
-0.000162062
2.82569e-06
-0.000162194
4.47357e-07
-0.000161345
-2.53373e-06
-0.000159809
-4.55146e-06
-0.000157591
-6.66834e-06
-0.000154601
-8.96479e-06
-0.000151059
-1.06144e-05
-0.000147039
-1.20524e-05
-0.000142393
-1.39373e-05
-0.000137338
-1.51723e-05
-0.000131684
-1.69609e-05
-0.000125507
-1.85245e-05
-0.000118884
-1.98809e-05
-0.000111583
-2.19186e-05
-0.000103552
-2.40984e-05
-9.49321e-05
-2.58936e-05
-8.53481e-05
-2.88477e-05
-7.47772e-05
-3.16266e-05
-6.33527e-05
-3.42089e-05
-5.08012e-05
-3.77094e-05
-3.73464e-05
-4.03737e-05
-2.27781e-05
-4.37043e-05
-7.14072e-06
-4.69015e-05
9.16857e-06
-4.89026e-05
2.63185e-05
-5.1424e-05
4.41806e-05
-5.35352e-05
6.23542e-05
-5.44783e-05
8.08706e-05
-5.55033e-05
9.93497e-05
-5.53764e-05
0.000117584
-5.46449e-05
0.00013542
-5.34432e-05
0.00015234
-5.06927e-05
0.00016817
-4.74266e-05
0.000182665
-4.34112e-05
0.000195495
-3.84426e-05
0.000206594
-3.32391e-05
0.000215639
-2.70922e-05
0.00022254
-2.06505e-05
0.000227108
-1.36655e-05
0.000229258
-6.44675e-06
0.000228974
7.70393e-07
0.000226228
8.1658e-06
0.000220973
1.57378e-05
0.000213624
2.20062e-05
0.000204167
2.83466e-05
0.000192951
3.35961e-05
0.000180209
3.81924e-05
0.00016596
4.27228e-05
0.000150643
4.58691e-05
0.000134477
4.8478e-05
0.000117609
5.05379e-05
0.000100278
5.19625e-05
8.27501e-05
5.25282e-05
6.51805e-05
5.26675e-05
4.7755e-05
5.22622e-05
3.05002e-05
5.17379e-05
1.36694e-05
5.05274e-05
-2.70236e-06
4.90286e-05
-1.8481e-05
4.73111e-05
-3.35701e-05
4.52476e-05
-4.79433e-05
4.31028e-05
-6.15196e-05
4.07153e-05
-7.42263e-05
3.81102e-05
-8.60611e-05
3.54979e-05
-9.6961e-05
3.26954e-05
-0.000106938
2.99289e-05
-0.000115959
2.70618e-05
-0.000123999
2.4121e-05
-0.000131074
2.12227e-05
-0.000137169
1.82975e-05
-0.000142283
1.5348e-05
-0.000146425
1.24326e-05
-0.000149599
9.52183e-06
-0.000151813
6.63398e-06
-0.000153087
3.8213e-06
-0.000153439
1.06797e-06
-0.000152783
-1.96351e-06
-4.85576e-06
8.84484e-05
-7.38228e-05
0.000106875
-7.35425e-05
0.000124804
-7.15305e-05
0.000141885
-6.81311e-05
0.000158105
-6.46679e-05
0.000173074
-5.96797e-05
0.000186633
-5.40324e-05
0.000198479
-4.71892e-05
0.000208346
-3.92954e-05
0.000216052
-3.06915e-05
0.000221445
-2.14988e-05
0.00022442
-1.19043e-05
0.000224917
-2.1442e-06
0.000222787
8.21243e-06
0.000218254
1.80416e-05
0.000211335
2.75664e-05
0.000202079
3.6905e-05
0.000190828
4.49306e-05
0.000177681
5.24578e-05
0.000162872
5.90795e-05
0.000146743
6.4382e-05
0.000129527
6.87362e-05
0.000111369
7.24952e-05
9.26548e-05
7.47542e-05
7.36093e-05
7.60079e-05
5.45576e-05
7.60665e-05
3.56039e-05
7.56837e-05
1.69868e-05
7.43468e-05
-1.13093e-06
7.24239e-05
-1.86792e-05
7.01158e-05
-3.54625e-05
6.70721e-05
-5.13956e-05
6.36782e-05
-6.64215e-05
6.00573e-05
-8.04846e-05
5.62284e-05
-9.35643e-05
5.23049e-05
-0.000105643
4.83107e-05
-0.000116732
4.43482e-05
-0.000126846
4.04403e-05
-0.000135987
3.65781e-05
-0.000144205
3.28764e-05
-0.000151547
2.9357e-05
-0.000158016
2.5865e-05
-0.000163648
2.25478e-05
-0.000168479
1.93359e-05
-0.000172529
1.6201e-05
-0.000175831
1.32062e-05
-0.000178394
1.02505e-05
-0.000180223
7.29654e-06
-0.000181352
4.52062e-06
-0.000181748
1.73071e-06
-0.000181359
-1.50385e-06
-0.000180256
-4.40861e-06
-0.000178385
-7.49962e-06
-0.00017577
-1.04357e-05
-0.000172394
-1.3538e-05
-0.000168155
-1.69709e-05
-0.000163192
-1.98855e-05
-0.000157397
-2.31611e-05
-0.000150646
-2.7029e-05
-0.000143111
-3.01518e-05
-0.000134602
-3.40703e-05
-0.000125109
-3.7948e-05
-0.00011483
-4.11434e-05
-0.000103597
-4.49656e-05
-9.13971e-05
-4.87051e-05
-7.84357e-05
-5.17702e-05
-6.45754e-05
-5.55435e-05
-5.00392e-05
-5.80774e-05
-3.47098e-05
-6.12532e-05
-1.86613e-05
-6.41343e-05
-2.13968e-06
-6.6039e-05
1.48283e-05
-6.78182e-05
3.21976e-05
-6.94139e-05
4.96321e-05
-6.96314e-05
6.71259e-05
-6.99104e-05
8.44487e-05
-6.92055e-05
0.00010153
-6.82118e-05
0.000118153
-6.62184e-05
0.000134035
-6.35677e-05
0.000149104
-6.01522e-05
0.00016318
-5.61021e-05
0.000175883
-5.08136e-05
0.000187177
-4.50348e-05
0.000196883
-3.87273e-05
0.000204698
-3.12024e-05
0.000210592
-2.34877e-05
0.000214408
-1.52348e-05
0.000216074
-6.67544e-06
0.000215467
2.32906e-06
0.000212615
1.1345e-05
0.000207539
2.02725e-05
0.000200272
2.90171e-05
0.000190899
3.73377e-05
0.000179593
4.50798e-05
0.000166511
5.21466e-05
0.000151887
5.83111e-05
0.000135933
6.36885e-05
0.000118886
6.80593e-05
0.000100964
7.14997e-05
8.24508e-05
7.38879e-05
6.36346e-05
7.51124e-05
4.46636e-05
7.56294e-05
2.58617e-05
7.51429e-05
7.42484e-06
7.36669e-05
-1.0492e-05