/*--------------------------------*- C++ -*----------------------------------*\
| =========                 |                                                 |
| \\      /  F ield         | OpenFOAM: The Open Source CFD Toolbox           |
|  \\    /   O peration     | Version:  3.0.1                                 |
|   \\  /    A nd           | Web:      www.OpenFOAM.org                      |
|    \\/     M anipulation  |                                                 |
\*---------------------------------------------------------------------------*/
FoamFile
{
    version     2.0;
    format      ascii;
    class       surfaceScalarField;
    location    "25";
    object      phi;
}
// * * * * * * * * * * * * * * * * * * * * * * * * * * * * * * * * * * * * * //

dimensions      [0 3 -1 0 0 0 0];

internalField   nonuniform List<scalar> 
42423
(
8.33453e-05
-1.8375e-05
0.000101721
-1.83759e-05
0.000119642
-1.7921e-05
0.000136802
-1.71605e-05
0.000153184
-1.63819e-05
0.000168413
-1.52285e-05
0.000182296
-1.38837e-05
0.000194526
-1.22299e-05
0.000204897
-1.03705e-05
0.00021317
-8.27308e-06
0.00021919
-6.02061e-06
0.00022289
-3.69963e-06
0.000224113
-1.22321e-06
0.000222809
1.30341e-06
0.000218973
3.83644e-06
0.000212682
6.29087e-06
0.000203969
8.71264e-06
0.000193229
1.07405e-05
0.000180618
1.26105e-05
0.000166122
1.44962e-05
0.000150284
1.58377e-05
0.000133288
1.6996e-05
0.000115265
1.80235e-05
9.66986e-05
1.85662e-05
7.77e-05
1.89986e-05
5.85479e-05
1.91521e-05
3.95334e-05
1.90145e-05
2.07957e-05
1.87376e-05
2.43193e-06
1.83638e-05
-1.53644e-05
1.77963e-05
-3.24108e-05
1.70464e-05
-4.86212e-05
1.62104e-05
-6.39263e-05
1.53051e-05
-7.82649e-05
1.43386e-05
-9.1637e-05
1.33721e-05
-0.000103996
1.23594e-05
-0.000115343
1.13469e-05
-0.000125719
1.03761e-05
-0.000135112
9.39214e-06
-0.000143552
8.44016e-06
-0.000151081
7.5297e-06
-0.000157739
6.65718e-06
-0.000163537
5.79845e-06
-0.000168509
4.97178e-06
-0.000172704
4.1949e-06
-0.000176143
3.43967e-06
-0.000178842
2.69908e-06
-0.000180812
1.96979e-06
-0.000182093
1.28062e-06
-0.000182713
6.20022e-07
-0.00018256
-1.52582e-07
-0.000181645
-9.15857e-07
-0.000179997
-1.64713e-06
-0.000177655
-2.34225e-06
-0.00017455
-3.10509e-06
-0.000170631
-3.91915e-06
-0.000165949
-4.68203e-06
-0.00016052
-5.42849e-06
-0.000154112
-6.40849e-06
-0.0001469
-7.21172e-06
-0.000138682
-8.21865e-06
-0.000129482
-9.20002e-06
-0.000119435
-1.00467e-05
-0.000108329
-1.11062e-05
-9.61753e-05
-1.21534e-05
-8.32774e-05
-1.28979e-05
-6.91776e-05
-1.40999e-05
-5.42737e-05
-1.49039e-05
-3.85345e-05
-1.57393e-05
-2.18526e-05
-1.66819e-05
-4.64426e-06
-1.72084e-05
1.3061e-05
-1.77053e-05
3.12474e-05
-1.81863e-05
4.95784e-05
-1.83311e-05
6.79378e-05
-1.83594e-05
8.60983e-05
-1.81605e-05
0.000104047
-1.79488e-05
0.000121335
-1.72876e-05
0.000137921
-1.65861e-05
0.000153442
-1.55218e-05
0.000167771
-1.43287e-05
0.000180578
-1.28073e-05
0.000191648
-1.10698e-05
0.000200929
-9.2803e-06
0.000208116
-7.18767e-06
0.000213052
-4.93562e-06
0.000215696
-2.64441e-06
0.000215939
-2.42548e-07
0.000213779
2.15971e-06
0.000209213
4.56562e-06
0.000202323
6.88987e-06
0.00019327
9.05348e-06
0.000182184
1.10861e-05
0.000169287
1.2897e-05
0.000154761
1.45263e-05
0.000138852
1.5909e-05
0.000121758
1.70939e-05
0.000103767
1.79911e-05
8.50112e-05
1.87553e-05
6.5871e-05
1.91403e-05
4.6566e-05
1.93049e-05
2.71941e-05
1.93719e-05
8.1604e-06
1.90337e-05
-1.04425e-05
1.86029e-05
-2.84822e-05
1.80397e-05
-4.56855e-05
1.72033e-05
-6.20255e-05
1.634e-05
-7.7357e-05
1.53315e-05
-9.16153e-05
1.42583e-05
-0.000104797
1.31821e-05
-0.000116806
1.20086e-05
-0.000127687
1.08812e-05
-0.000137545
9.85789e-06
-0.000146272
8.72728e-06
-0.000153987
7.71506e-06
-0.000160749
6.76149e-06
-0.000166551
5.80229e-06
-0.000171443
4.89168e-06
-0.000175465
4.02188e-06
-0.00017863
3.16524e-06
-0.000181012
2.38242e-06
-0.000182596
1.5833e-06
-0.00018347
8.74149e-07
-0.000183605
1.35367e-07
-0.000183014
-5.90845e-07
-0.000181755
-1.25954e-06
-0.000179808
-1.9471e-06
-0.000177194
-2.61398e-06
-0.000173984
-3.20984e-06
-0.000170125
-3.85921e-06
-0.000165584
-4.5412e-06
-0.000160404
-5.17951e-06
-0.000154663
-5.74103e-06
-0.000148192
-6.47105e-06
-0.000141039
-7.15287e-06
-0.000133226
-7.8127e-06
-0.00012458
-8.64658e-06
-0.000115236
-9.34347e-06
-0.000105042
-1.01947e-05
-9.40053e-05
-1.10364e-05
-8.20998e-05
-1.19055e-05
-6.93243e-05
-1.27755e-05
-5.56714e-05
-1.3653e-05
-4.12048e-05
-1.44665e-05
-2.58947e-05
-1.53102e-05
-9.79463e-06
-1.61001e-05
6.8885e-06
-1.66832e-05
2.41725e-05
-1.7284e-05
4.18616e-05
-1.76892e-05
5.97799e-05
-1.79183e-05
7.7711e-05
-1.79312e-05
9.54421e-05
-1.77312e-05
0.0001128
-1.73582e-05
0.000129526
-1.67257e-05
0.000145408
-1.58816e-05
0.000160213
-1.4805e-05
0.000173599
-1.33862e-05
0.000185394
-1.17952e-05
0.000195266
-9.87232e-06
0.000203106
-7.8395e-06
0.0002086
-5.49389e-06
0.000211639
-3.03986e-06
0.000212254
-6.15041e-07
0.000210326
1.92833e-06
0.000205865
4.46149e-06
0.000198965
6.89976e-06
0.000189829
9.13613e-06
0.000178648
1.11802e-05
0.000165641
1.30076e-05
0.000151068
1.45727e-05
0.000135147
1.59207e-05
0.000118208
1.694e-05
0.00010052
1.76876e-05
8.24177e-05
1.81022e-05
6.40641e-05
1.83536e-05
4.57478e-05
1.83163e-05
2.7602e-05
1.81458e-05
9.80408e-06
1.77979e-05
-7.32575e-06
1.71298e-05
-2.38615e-05
1.65358e-05
-3.95799e-05
1.57183e-05
-5.43542e-05
1.47743e-05
-6.82176e-05
1.38634e-05
-8.10742e-05
1.28566e-05
-9.29322e-05
1.1858e-05
-0.000103871
1.09384e-05
-0.000113781
9.91032e-06
-0.000122816
9.03506e-06
-0.000130902
8.08625e-06
-0.000138107
7.20471e-06
-0.000144491
6.38407e-06
-0.000150053
5.56241e-06
-0.000154846
4.79286e-06
-0.000158936
4.08971e-06
-0.00016228
3.34453e-06
-0.000164959
2.679e-06
-0.000167019
2.05948e-06
-0.000168393
1.37454e-06
-0.00016918
7.86849e-07
-0.000169286
1.05702e-07
-0.000168794
-4.91938e-07
-0.000167569
-1.22502e-06
-0.000165656
-1.91312e-06
-0.000163044
-2.61164e-06
-0.000159673
-3.37171e-06
-0.000155526
-4.14615e-06
-0.000150664
-4.86209e-06
-0.00014495
-5.71393e-06
-0.000138418
-6.532e-06
-0.000131059
-7.35988e-06
-0.000122854
-8.2044e-06
-0.000113726
-9.12841e-06
-0.00010384
-9.88615e-06
-9.30738e-05
-1.07658e-05
-8.14313e-05
-1.16425e-05
-6.89399e-05
-1.24915e-05
-5.55285e-05
-1.34114e-05
-4.12925e-05
-1.4236e-05
-2.63462e-05
-1.49462e-05
-1.05867e-05
-1.57595e-05
5.73052e-06
-1.63173e-05
2.2657e-05
-1.69265e-05
3.99688e-05
-1.73118e-05
5.75507e-05
-1.75819e-05
7.53836e-05
-1.7833e-05
9.31384e-05
-1.77548e-05
0.000110697
-1.75589e-05
0.000127797
-1.70993e-05
0.000144216
-1.64192e-05
0.000159669
-1.54535e-05
0.000173954
-1.42845e-05
0.000186844
-1.289e-05
0.000198114
-1.127e-05
0.000207525
-9.41099e-06
0.000214967
-7.44234e-06
0.00022025
-5.28281e-06
0.00022327
-3.02019e-06
0.000223976
-7.06336e-07
0.00022235
1.62632e-06
0.000218356
3.99375e-06
0.000212086
6.27047e-06
0.00020366
8.42572e-06
0.00019321
1.04502e-05
0.000181008
1.2202e-05
0.00016722
1.37882e-05
0.000152073
1.51467e-05
0.000135885
1.61883e-05
0.000118774
1.71102e-05
0.000101116
1.76585e-05
8.30672e-05
1.80487e-05
6.4849e-05
1.82183e-05
4.66923e-05
1.81566e-05
2.89214e-05
1.7771e-05
1.16453e-05
1.72761e-05
-5.06368e-06
1.6709e-05
-2.09917e-05
1.5928e-05
-3.61015e-05
1.51099e-05
-5.02853e-05
1.41838e-05
-6.34763e-05
1.3191e-05
-7.56515e-05
1.21751e-05
-8.67824e-05
1.1131e-05
-9.68755e-05
1.00931e-05
-0.000105945
9.06985e-06
-0.00011414
8.19427e-06
-0.000121286
7.14689e-06
-0.00012756
6.27365e-06
-0.000133037
5.47648e-06
-0.000137572
4.53497e-06
-0.000141415
3.84385e-06
-0.00014446
3.04456e-06
-0.00014676
2.30012e-06
-0.000148379
1.61921e-06
-0.000149216
8.36879e-07
-0.000149555
3.38309e-07
-0.000149047
-5.07673e-07
-0.000148078
-9.6918e-07
-0.000146251
-1.82641e-06
-0.000143954
-2.29734e-06
-0.000140875
-3.0792e-06
-0.000137197
-3.67766e-06
-0.000132667
-4.53033e-06
-0.000127501
-5.16555e-06
-0.000121353
-6.14819e-06
-0.000114597
-6.75603e-06
-0.000106926
-7.67147e-06
-9.83349e-05
-8.59063e-06
-8.89183e-05
-9.4166e-06
-7.85644e-05
-1.03538e-05
-6.73644e-05
-1.12e-05
-5.52572e-05
-1.21072e-05
-4.21306e-05
-1.31266e-05
-2.82737e-05
-1.38569e-05
-1.35049e-05
-1.47688e-05
2.08629e-06
-1.55912e-05
1.83599e-05
-1.62736e-05
3.52829e-05
-1.6923e-05
5.27977e-05
-1.75148e-05
7.06013e-05
-1.78037e-05
8.87037e-05
-1.81024e-05
0.000106786
-1.80822e-05
0.000124753
-1.79674e-05
0.000142484
-1.77312e-05
0.00015957
-1.70854e-05
0.00017586
-1.62905e-05
0.000191214
-1.5354e-05
0.000205254
-1.40401e-05
0.000217853
-1.25986e-05
0.000228774
-1.09208e-05
0.000237882
-9.10872e-06
0.000244911
-7.02863e-06
0.000249681
-4.76947e-06
0.000252112
-2.43175e-06
0.000252125
-1.31467e-08
0.000249601
2.5247e-06
0.000244711
4.88943e-06
0.000237377
7.33432e-06
0.000227823
9.55341e-06
0.000216057
1.17667e-05
0.000202128
1.39284e-05
0.000186438
1.56903e-05
0.000169297
1.7141e-05
0.000150728
1.85695e-05
0.000131276
1.94518e-05
0.00011119
2.00864e-05
9.09145e-05
2.0275e-05
7.05449e-05
2.03697e-05
5.05281e-05
2.00168e-05
3.10219e-05
1.95062e-05
1.2158e-05
1.88638e-05
-5.60944e-06
1.77675e-05
-2.23834e-05
1.67739e-05
-3.80244e-05
1.5641e-05
-5.24413e-05
1.44169e-05
-6.55836e-05
1.31423e-05
-7.7483e-05
1.18995e-05
-8.8147e-05
1.0664e-05
-9.76413e-05
9.49427e-06
-0.000106012
8.3705e-06
-0.000113352
7.34054e-06
-0.000119752
6.39977e-06
-0.000125285
5.533e-06
-0.000130028
4.74322e-06
-0.000134061
4.03242e-06
-0.000137474
3.41374e-06
-0.000140326
2.8514e-06
-0.000142667
2.34108e-06
-0.000144555
1.88851e-06
-0.000146014
1.45844e-06
-0.000147053
1.03884e-06
-0.000147686
6.32799e-07
-0.000147915
2.29695e-07
-0.000147659
-2.55985e-07
-0.000146905
-7.54474e-07
-0.000145613
-1.29132e-06
-0.000143722
-1.8914e-06
-0.000141177
-2.54522e-06
-3.28341e-06
8.33535e-05
-3.67579e-05
0.000101743
-3.67657e-05
0.000119676
-3.58545e-05
0.00013685
-3.43342e-05
0.000153256
-3.27885e-05
0.000168495
-3.04672e-05
0.00018239
-2.77791e-05
0.00019465
-2.44899e-05
0.000205022
-2.07423e-05
0.000213296
-1.65474e-05
0.000219338
-1.20632e-05
0.000223033
-7.3944e-06
0.00022425
-2.44076e-06
0.000222936
2.61771e-06
0.000219094
7.67814e-06
0.000212801
1.25844e-05
0.00020408
1.74332e-05
0.00019333
2.14908e-05
0.000180707
2.52326e-05
0.000166202
2.90016e-05
0.00015035
3.16891e-05
0.000133343
3.40034e-05
0.000115304
3.60621e-05
9.67273e-05
3.71432e-05
7.7718e-05
3.80078e-05
5.85527e-05
3.83174e-05
3.9529e-05
3.80381e-05
2.07854e-05
3.74812e-05
2.41138e-06
3.67377e-05
-1.53888e-05
3.55964e-05
-3.244e-05
3.40977e-05
-4.86556e-05
3.24259e-05
-6.39651e-05
3.06146e-05
-7.83079e-05
2.86813e-05
-9.16832e-05
2.67473e-05
-0.000104046
2.47222e-05
-0.000115394
2.26948e-05
-0.000125772
2.07539e-05
-0.000135168
1.87883e-05
-0.000143611
1.68834e-05
-0.000151142
1.50611e-05
-0.000157798
1.33126e-05
-0.000163597
1.15973e-05
-0.000168569
9.94419e-06
-0.000172765
8.39088e-06
-0.000176205
6.8795e-06
-0.000178902
5.39561e-06
-0.000180874
3.94235e-06
-0.000182161
2.56773e-06
-0.000182773
1.23175e-06
-0.000182618
-3.07234e-07
-0.000181709
-1.8249e-06
-0.000180062
-3.2946e-06
-0.000177723
-4.68129e-06
-0.000174616
-6.21226e-06
-0.000170697
-7.83747e-06
-0.000166027
-9.35237e-06
-0.000160592
-1.08633e-05
-0.000154184
-1.28172e-05
-0.000146971
-1.44241e-05
-0.00013876
-1.64299e-05
-0.000129558
-1.84015e-05
-0.000119507
-2.00987e-05
-0.000108406
-2.22067e-05
-9.62387e-05
-2.43208e-05
-8.33452e-05
-2.57915e-05
-6.92415e-05
-2.82037e-05
-5.43277e-05
-2.98177e-05
-3.85862e-05
-3.14808e-05
-2.18982e-05
-3.337e-05
-4.67706e-06
-3.44295e-05
1.30337e-05
-3.54162e-05
3.12316e-05
-3.63843e-05
4.95744e-05
-3.6674e-05
6.79387e-05
-3.67238e-05
8.61195e-05
-3.63415e-05
0.000104071
-3.59007e-05
0.000121368
-3.45846e-05
0.000137976
-3.31939e-05
0.000153502
-3.1048e-05
0.000167846
-2.86726e-05
0.000180658
-2.56196e-05
0.000191741
-2.21525e-05
0.000201016
-1.85552e-05
0.000208212
-1.4384e-05
0.000213156
-9.88005e-06
0.000215797
-5.28483e-06
0.000216033
-4.78471e-07
0.000213877
4.31521e-06
0.000209298
9.14455e-06
0.0002024
1.37882e-05
0.000193332
1.81206e-05
0.000182248
2.21709e-05
0.000169344
2.58009e-05
0.000154813
2.90566e-05
0.000138895
3.1828e-05
0.000121784
3.42047e-05
0.000103781
3.59936e-05
8.50194e-05
3.75171e-05
6.58634e-05
3.82962e-05
4.65569e-05
3.86115e-05
2.71699e-05
3.87589e-05
8.13208e-06
3.80715e-05
-1.04655e-05
3.72005e-05
-2.85236e-05
3.60979e-05
-4.57371e-05
3.44168e-05
-6.20819e-05
3.26849e-05
-7.7422e-05
3.06715e-05
-9.16779e-05
2.85143e-05
-0.000104858
2.63617e-05
-0.000116868
2.40193e-05
-0.000127748
2.17612e-05
-0.000137607
1.97171e-05
-0.000146335
1.74549e-05
-0.000154057
1.54368e-05
-0.000160818
1.35225e-05
-0.000166608
1.15926e-05
-0.000171495
9.77869e-06
-0.000175518
8.0444e-06
-0.000178689
6.33662e-06
-0.000181077
4.77085e-06
-0.00018265
3.15607e-06
-0.000183525
1.74862e-06
-0.000183659
2.70205e-07
-0.000183056
-1.19444e-06
-0.000181803
-2.51261e-06
-0.000179869
-3.8814e-06
-0.00017725
-5.23261e-06
-0.000174034
-6.42547e-06
-0.000170183
-7.71076e-06
-0.00016564
-9.08401e-06
-0.000160459
-1.03604e-05
-0.000154724
-1.14757e-05
-0.000148257
-1.29387e-05
-0.000141101
-1.43083e-05
-0.000133282
-1.56325e-05
-0.000124643
-1.72854e-05
-0.0001153
-1.86865e-05
-0.000105103
-2.03919e-05
-9.40765e-05
-2.20625e-05
-8.21739e-05
-2.38082e-05
-6.93976e-05
-2.55519e-05
-5.57418e-05
-2.73088e-05
-4.12645e-05
-2.89439e-05
-2.59551e-05
-3.06197e-05
-9.85404e-06
-3.22012e-05
6.83533e-06
-3.33726e-05
2.41205e-05
-3.45692e-05
4.18181e-05
-3.53869e-05
5.97543e-05
-3.58545e-05
7.76799e-05
-3.58568e-05
9.54369e-05
-3.54882e-05
0.000112802
-3.47238e-05
0.000129535
-3.34587e-05
0.000145431
-3.17776e-05
0.000160252
-2.96259e-05
0.000173646
-2.678e-05
0.000185452
-2.36016e-05
0.000195339
-1.97589e-05
0.000203177
-1.56777e-05
0.000208697
-1.10142e-05
0.000211751
-6.09381e-06
0.000212338
-1.20229e-06
0.000210406
3.8606e-06
0.000205942
8.92502e-06
0.00019905
1.3792e-05
0.000189909
1.82775e-05
0.000178719
2.23699e-05
0.000165695
2.60316e-05
0.000151097
2.91707e-05
0.000135183
3.18345e-05
0.000118231
3.38919e-05
0.000100529
3.53901e-05
8.24124e-05
3.62185e-05
6.40487e-05
3.67173e-05
4.57331e-05
3.66319e-05
2.75803e-05
3.62986e-05
9.76333e-06
3.56149e-05
-7.36387e-06
3.4257e-05
-2.38998e-05
3.30717e-05
-3.96226e-05
3.14412e-05
-5.44075e-05
2.95593e-05
-6.82702e-05
2.77261e-05
-8.11278e-05
2.57142e-05
-9.29841e-05
2.37143e-05
-0.000103916
2.18706e-05
-0.00011383
1.98239e-05
-0.000122872
1.80768e-05
-0.000130959
1.61741e-05
-0.000138159
1.44046e-05
-0.000144543
1.27676e-05
-0.000150105
1.11247e-05
-0.000154896
9.58324e-06
-0.000158982
8.17577e-06
-0.000162327
6.68995e-06
-0.000165008
5.36007e-06
-0.000167062
4.11312e-06
-0.000168444
2.75676e-06
-0.000169236
1.5792e-06
-0.000169336
2.04879e-07
-0.000168842
-9.85061e-07
-0.000167628
-2.43911e-06
-0.000165718
-3.82305e-06
-0.000163103
-5.22677e-06
-0.000159736
-6.7387e-06
-0.000155587
-8.29508e-06
-0.000150717
-9.73199e-06
-0.000145011
-1.14205e-05
-0.000138485
-1.30579e-05
-0.000131123
-1.47224e-05
-0.00012291
-1.64168e-05
-0.000113806
-1.82326e-05
-0.000103912
-1.978e-05
-9.31389e-05
-2.1539e-05
-8.14976e-05
-2.32839e-05
-6.89978e-05
-2.49913e-05
-5.55939e-05
-2.68153e-05
-4.13553e-05
-2.84746e-05
-2.64014e-05
-2.99002e-05
-1.06442e-05
-3.15167e-05
5.68233e-06
-3.26439e-05
2.26124e-05
-3.38567e-05
3.99343e-05
-3.46336e-05
5.75254e-05
-3.51731e-05
7.53544e-05
-3.5662e-05
9.31179e-05
-3.55184e-05
0.000110692
-3.51331e-05
0.000127804
-3.42116e-05
0.000144216
-3.28311e-05
0.000159694
-3.09309e-05
0.000173997
-2.85875e-05
0.000186886
-2.57799e-05
0.000198171
-2.25544e-05
0.000207601
-1.88418e-05
0.000215039
-1.48795e-05
0.000220341
-1.05847e-05
0.000223374
-6.054e-06
0.000224067
-1.39901e-06
0.00022243
3.26347e-06
0.000218433
7.99052e-06
0.000212163
1.25407e-05
0.000203736
1.68523e-05
0.000193284
2.0902e-05
0.000181074
2.44128e-05
0.000167269
2.75923e-05
0.000152113
3.03036e-05
0.000135913
3.23876e-05
0.000118791
3.42327e-05
0.000101124
3.53249e-05
8.30744e-05
3.60987e-05
6.48348e-05
3.64578e-05
4.66597e-05
3.63317e-05
2.88802e-05
3.55505e-05
1.16098e-05
3.45465e-05
-5.10425e-06
3.3423e-05
-2.10487e-05
3.18725e-05
-3.61477e-05
3.02088e-05
-5.03327e-05
2.83688e-05
-6.35232e-05
2.63815e-05
-7.57055e-05
2.43574e-05
-8.68417e-05
2.22672e-05
-9.69383e-05
2.01897e-05
-0.00010601
1.81414e-05
-0.000114193
1.6377e-05
-0.000121341
1.42953e-05
-0.000127611
1.2544e-05
-0.000133096
1.09608e-05
-0.000137632
9.07144e-06
-0.000141467
7.67845e-06
-0.000144515
6.09299e-06
-0.000146811
4.59637e-06
-0.000148437
3.24512e-06
-0.000149266
1.66564e-06
-0.00014961
6.82748e-07
-0.000149111
-1.00742e-06
-0.000148127
-1.95253e-06
-0.00014632
-3.6337e-06
-0.000143995
-4.62248e-06
-0.000140946
-6.12863e-06
-0.000137243
-7.38032e-06
-0.000132724
-9.04919e-06
-0.000127559
-1.03301e-05
-0.000121411
-1.22965e-05
-0.000114661
-1.35057e-05
-0.000106987
-1.53462e-05
-9.83904e-05
-1.7187e-05
-8.898e-05
-1.88271e-05
-7.86289e-05
-2.07049e-05
-6.74245e-05
-2.24045e-05
-5.53213e-05
-2.42104e-05
-4.21851e-05
-2.62628e-05
-2.83315e-05
-2.77105e-05
-1.35517e-05
-2.95487e-05
2.03945e-06
-3.11824e-05
1.83167e-05
-3.25509e-05
3.52395e-05
-3.38457e-05
5.27564e-05
-3.50318e-05
7.05732e-05
-3.56205e-05
8.86786e-05
-3.62078e-05
0.000106763
-3.61664e-05
0.000124746
-3.59508e-05
0.00014249
-3.54752e-05
0.000159583
-3.41785e-05
0.000175868
-3.25759e-05
0.000191227
-3.07124e-05
0.000205287
-2.81009e-05
0.000217902
-2.52134e-05
0.000228824
-2.18424e-05
0.000237946
-1.82314e-05
0.000244991
-1.40734e-05
0.000249758
-9.53663e-06
0.000252198
-4.87146e-06
0.000252214
-2.87749e-08
0.0002497
5.03856e-06
0.000244824
9.76556e-06
0.000237491
1.46668e-05
0.000227934
1.91106e-05
0.000216159
2.35415e-05
0.000202225
2.78624e-05
0.000186517
3.13977e-05
0.000169367
3.42917e-05
0.000150782
3.71537e-05
0.000131314
3.89201e-05
0.000111219
4.01815e-05
9.09272e-05
4.05667e-05
7.05429e-05
4.07539e-05
5.05157e-05
4.0044e-05
3.09931e-05
3.90288e-05
1.21309e-05
3.77261e-05
-5.64474e-06
3.5543e-05
-2.24246e-05
3.35538e-05
-3.80703e-05
3.12868e-05
-5.24912e-05
2.88377e-05
-6.56352e-05
2.62863e-05
-7.75338e-05
2.37981e-05
-8.81966e-05
2.13268e-05
-9.76885e-05
1.89861e-05
-0.00010606
1.67421e-05
-0.000113397
1.46771e-05
-0.000119793
1.27958e-05
-0.000125324
1.10639e-05
-0.000130062
9.48144e-06
-0.000134095
8.06518e-06
-0.000137505
6.82397e-06
-0.000140353
5.69917e-06
-0.000142693
4.68145e-06
-0.000144577
3.77211e-06
-0.000146032
2.91392e-06
-0.000147073
2.07985e-06
-0.000147708
1.26764e-06
-0.000147937
4.58843e-07
-0.000147682
-5.10829e-07
-0.000146928
-1.50818e-06
-0.000145639
-2.58107e-06
-0.000143749
-3.78063e-06
-0.000141206
-5.08855e-06
-6.56497e-06
8.33717e-05
-5.51583e-05
0.000101783
-5.51769e-05
0.000119743
-5.3815e-05
0.000136946
-5.15372e-05
0.00015338
-4.92232e-05
0.000168653
-4.57395e-05
0.000182571
-4.16977e-05
0.000194854
-3.67731e-05
0.000205259
-3.11476e-05
0.000213547
-2.48346e-05
0.000219602
-1.81192e-05
0.000223314
-1.11061e-05
0.00022452
-3.64683e-06
0.000223146
3.99207e-06
0.000219282
1.15421e-05
0.00021298
1.88862e-05
0.000204244
2.61687e-05
0.000193479
3.22556e-05
0.000180834
3.78776e-05
0.000166316
4.35199e-05
0.000150442
4.75626e-05
0.000133417
5.10284e-05
0.000115354
5.4125e-05
9.67592e-05
5.5738e-05
7.77329e-05
5.7034e-05
5.85454e-05
5.75048e-05
3.95061e-05
5.70774e-05
2.07469e-05
5.62404e-05
2.35901e-06
5.51256e-05
-1.54516e-05
5.3407e-05
-3.25116e-05
5.11577e-05
-4.87361e-05
4.86504e-05
-6.40518e-05
4.59304e-05
-7.83978e-05
4.30272e-05
-9.17767e-05
4.01262e-05
-0.000104142
3.70873e-05
-0.000115489
3.40423e-05
-0.000125868
3.11326e-05
-0.000135265
2.81854e-05
-0.000143706
2.53243e-05
-0.000151234
2.25888e-05
-0.000157891
1.99702e-05
-0.000163696
1.74025e-05
-0.000168665
1.49132e-05
-0.000172857
1.25825e-05
-0.000176295
1.03171e-05
-0.000178987
8.08841e-06
-0.000180963
5.91822e-06
-0.000182253
3.85765e-06
-0.000182844
1.82268e-06
-0.000182676
-4.75116e-07
-0.000181765
-2.73569e-06
-0.00018012
-4.94003e-06
-0.000177785
-7.01618e-06
-0.000174677
-9.32036e-06
-0.000170762
-1.17521e-05
-0.000166108
-1.40064e-05
-0.000160662
-1.63094e-05
-0.000154257
-1.92223e-05
-0.000147056
-2.16256e-05
-0.00013884
-2.4646e-05
-0.000129645
-2.75962e-05
-0.000119582
-3.01617e-05
-0.000108492
-3.32967e-05
-9.63111e-05
-3.65018e-05
-8.34257e-05
-3.86769e-05
-6.93169e-05
-4.23125e-05
-5.43924e-05
-4.47423e-05
-3.86493e-05
-4.72239e-05
-2.19545e-05
-5.0065e-05
-4.71975e-06
-5.16643e-05
1.29995e-05
-5.31355e-05
3.12057e-05
-5.45905e-05
4.95582e-05
-5.50266e-05
6.7943e-05
-5.51086e-05
8.61472e-05
-5.45458e-05
0.000104106
-5.38598e-05
0.000121418
-5.18964e-05
0.000138038
-4.98135e-05
0.000153583
-4.65939e-05
0.000167965
-4.3054e-05
0.000180775
-3.84294e-05
0.000191876
-3.32543e-05
0.000201173
-2.78523e-05
0.000208373
-2.15833e-05
0.000213331
-1.48381e-05
0.00021599
-7.94407e-06
0.000216212
-7.00919e-07
0.000214061
6.46684e-06
0.000209455
1.37499e-05
0.000202539
2.07046e-05
0.00019346
2.71999e-05
0.000182366
3.32651e-05
0.000169447
3.87191e-05
0.000154897
4.36067e-05
0.000138956
4.77695e-05
0.000121813
5.13474e-05
0.000103793
5.40136e-05
8.50271e-05
5.62831e-05
6.5839e-05
5.74843e-05
4.65153e-05
5.79353e-05
2.71118e-05
5.81624e-05
8.05956e-06
5.71238e-05
-1.05181e-05
5.57782e-05
-2.86167e-05
5.41965e-05
-4.58443e-05
5.16444e-05
-6.22005e-05
4.9041e-05
-7.75549e-05
4.6026e-05
-9.18137e-05
4.27731e-05
-0.000104996
3.9544e-05
-0.000116996
3.60188e-05
-0.000127889
3.26546e-05
-0.000137739
2.95676e-05
-0.000146465
2.61809e-05
-0.000154174
2.31456e-05
-0.000160928
2.02765e-05
-0.000166724
1.73882e-05
-0.000171614
1.46694e-05
-0.00017563
1.20603e-05
-0.000178782
9.48855e-06
-0.000181177
7.16574e-06
-0.000182757
4.73597e-06
-0.000183622
2.61369e-06
-0.000183749
3.97358e-07
-0.000183145
-1.79878e-06
-0.000181884
-3.77368e-06
-0.000179959
-5.806e-06
-0.000177343
-7.84877e-06
-0.000174105
-9.66333e-06
-0.000170255
-1.15608e-05
-0.000165722
-1.36172e-05
-0.00016054
-1.55423e-05
-0.000154804
-1.72122e-05
-0.000148348
-1.93948e-05
-0.000141197
-2.14591e-05
-0.000133379
-2.34508e-05
-0.000124733
-2.59311e-05
-0.000115392
-2.80279e-05
-0.000105197
-3.05862e-05
-9.41732e-05
-3.30866e-05
-8.22758e-05
-3.57056e-05
-6.9494e-05
-3.83338e-05
-5.58464e-05
-4.09564e-05
-4.13629e-05
-4.34275e-05
-2.60396e-05
-4.59431e-05
-9.93498e-06
-4.83058e-05
6.76247e-06
-5.00701e-05
2.40696e-05
-5.18763e-05
4.178e-05
-5.30974e-05
5.97357e-05
-5.38103e-05
7.76709e-05
-5.3792e-05
9.54466e-05
-5.32639e-05
0.000112822
-5.20998e-05
0.000129584
-5.02199e-05
0.000145499
-4.76934e-05
0.000160332
-4.4459e-05
0.000173761
-4.02091e-05
0.000185583
-3.54232e-05
0.000195484
-2.966e-05
0.000203342
-2.35358e-05
0.000208869
-1.65415e-05
0.000211949
-9.17333e-06
0.000212537
-1.79066e-06
0.000210574
5.82348e-06
0.000206099
1.34003e-05
0.000199204
2.06871e-05
0.000190048
2.7433e-05
0.000178835
3.35831e-05
0.000165787
3.90802e-05
0.000151162
4.37954e-05
0.00013524
4.77566e-05
0.000118262
5.08697e-05
0.000100529
5.31232e-05
8.23935e-05
5.43539e-05
6.40135e-05
5.50973e-05
4.56769e-05
5.49685e-05
2.75208e-05
5.44547e-05
9.68573e-06
5.345e-05
-7.4572e-06
5.14e-05
-2.40145e-05
4.9629e-05
-3.97292e-05
4.71559e-05
-5.45158e-05
4.4346e-05
-6.83826e-05
4.15928e-05
-8.12547e-05
3.85863e-05
-9.3116e-05
3.55756e-05
-0.000104029
3.27837e-05
-0.000113937
2.97319e-05
-0.000122976
2.71159e-05
-0.000131076
2.42736e-05
-0.000138281
2.16102e-05
-0.000144655
1.91409e-05
-0.000150207
1.66772e-05
-0.000154991
1.43672e-05
-0.000159075
1.22598e-05
-0.000162418
1.00327e-05
-0.000165094
8.03625e-06
-0.000167157
6.17574e-06
-0.000168544
4.14389e-06
-0.000169324
2.35937e-06
-0.000169426
3.06823e-07
-0.000168923
-1.48748e-06
-0.000167716
-3.64692e-06
-0.000165811
-5.72774e-06
-0.000163195
-7.84243e-06
-0.000159833
-1.01005e-05
-0.000155695
-1.24339e-05
-0.000150819
-1.4608e-05
-0.000145109
-1.71301e-05
-0.000138575
-1.95923e-05
-0.000131222
-2.20751e-05
-0.000123012
-2.46268e-05
-0.000113922
-2.73226e-05
-0.000103995
-2.97069e-05
-9.32387e-05
-3.22954e-05
-8.16012e-05
-3.49215e-05
-6.90685e-05
-3.7524e-05
-5.5695e-05
-4.01888e-05
-4.14604e-05
-4.27092e-05
-2.64901e-05
-4.48706e-05
-1.07291e-05
-4.72777e-05
5.61974e-06
-4.89927e-05
2.25676e-05
-5.08046e-05
3.98852e-05
-5.19512e-05
5.74812e-05
-5.27692e-05
7.53356e-05
-5.35164e-05
9.3115e-05
-5.32978e-05
0.000110709
-5.27274e-05
0.000127838
-5.13404e-05
0.000144263
-4.92558e-05
0.000159768
-4.64366e-05
0.000174088
-4.29069e-05
0.000186995
-3.86871e-05
0.000198281
-3.38403e-05
0.000207734
-2.82952e-05
0.000215204
-2.23493e-05
0.000220518
-1.58985e-05
0.000223542
-9.07806e-06
0.000224245
-2.10237e-06
0.00022258
4.92845e-06
0.00021859
1.19811e-05
0.000212317
1.88137e-05
0.00020387
2.52985e-05
0.000193389
3.13835e-05
0.000181162
3.66394e-05
0.000167349
4.14057e-05
0.000152173
4.54792e-05
0.000135951
4.861e-05
0.000118795
5.13889e-05
0.000101105
5.30149e-05
8.30489e-05
5.41546e-05
6.47887e-05
5.47181e-05
4.66025e-05
5.45179e-05
2.88083e-05
5.33448e-05
1.15115e-05
5.18433e-05
-5.19911e-06
5.01336e-05
-2.11799e-05
4.78533e-05
-3.62715e-05
4.53005e-05
-5.04668e-05
4.25642e-05
-6.36463e-05
3.9561e-05
-7.58231e-05
3.65342e-05
-8.69542e-05
3.33983e-05
-9.70598e-05
3.02953e-05
-0.000106141
2.72227e-05
-0.000114308
2.45442e-05
-0.000121449
2.14362e-05
-0.000127704
1.87985e-05
-0.000133199
1.64565e-05
-0.000137737
1.36095e-05
-0.000141559
1.14995e-05
-0.000144604
9.13855e-06
-0.000146884
6.87613e-06
-0.000148527
4.88807e-06
-0.000149331
2.46955e-06
-0.00014967
1.02213e-06
-0.00014919
-1.48752e-06
-0.000148166
-2.97627e-06
-0.000146397
-5.40263e-06
-0.000144027
-6.99258e-06
-0.000141025
-9.13132e-06
-0.000137284
-1.11214e-05
-0.000132779
-1.35532e-05
-0.000127616
-1.5494e-05
-0.000121476
-1.84356e-05
-0.000114733
-2.02493e-05
-0.000107056
-2.30232e-05
-9.84521e-05
-2.57909e-05
-8.90484e-05
-2.82308e-05
-7.87058e-05
-3.10475e-05
-6.74937e-05
-3.36166e-05
-5.53976e-05
-3.63066e-05
-4.22488e-05
-3.94117e-05
-2.83993e-05
-4.156e-05
-1.36091e-05
-4.43389e-05
1.98306e-06
-4.67746e-05
1.82652e-05
-4.88332e-05
3.51978e-05
-5.07783e-05
5.27218e-05
-5.25558e-05
7.05442e-05
-5.3443e-05
8.86631e-05
-5.43267e-05
0.000106756
-5.42591e-05
0.000124748
-5.39435e-05
0.000142502
-5.32286e-05
0.000159593
-5.12694e-05
0.000175887
-4.88702e-05
0.000191255
-4.60799e-05
0.000205309
-4.21553e-05
0.000217946
-3.785e-05
0.000228868
-3.27646e-05
0.00023798
-2.73441e-05
0.000245045
-2.11376e-05
0.000249809
-1.4301e-05
0.000252264
-7.32702e-06
0.000252325
-8.96247e-08
0.000249855
7.50906e-06
0.000245006
1.46143e-05
0.000237677
2.19959e-05
0.000228109
2.8678e-05
0.000216319
3.53321e-05
0.00020238
4.18008e-05
0.000186635
4.71427e-05
0.000169466
5.14607e-05
0.000150857
5.57634e-05
0.000131359
5.8418e-05
0.000111253
6.02873e-05
9.09279e-05
6.08916e-05
7.05194e-05
6.11624e-05
5.04744e-05
6.0089e-05
3.09237e-05
5.85794e-05
1.20746e-05
5.65752e-05
-5.72562e-06
5.33433e-05
-2.25165e-05
5.03447e-05
-3.81681e-05
4.69384e-05
-5.25916e-05
4.32612e-05
-6.5736e-05
3.94307e-05
-7.76322e-05
3.56942e-05
-8.82918e-05
3.19864e-05
-9.77794e-05
2.84738e-05
-0.000106146
2.51089e-05
-0.000113474
2.20049e-05
-0.000119861
1.91829e-05
-0.000125384
1.65869e-05
-0.000130116
1.42137e-05
-0.000134143
1.20913e-05
-0.000137544
1.02252e-05
-0.000140388
8.54301e-06
-0.000142725
7.01893e-06
-0.000144605
5.65222e-06
-0.000146058
4.36646e-06
-0.000147097
3.119e-06
-0.000147735
1.90531e-06
-0.000147967
6.91746e-07
-0.000147718
-7.60345e-07
-0.000146968
-2.25838e-06
-0.000145682
-3.86631e-06
-0.000143799
-5.66421e-06
-0.000141262
-7.6257e-06
-9.83987e-06
8.3398e-05
-7.35839e-05
0.000101845
-7.36242e-05
0.000119846
-7.18163e-05
0.00013709
-6.87811e-05
0.000153571
-6.57047e-05
0.000168891
-6.10597e-05
0.000182857
-5.56639e-05
0.000195182
-4.90982e-05
0.000205623
-4.15883e-05
0.000213943
-3.31549e-05
0.000220018
-2.4194e-05
0.000223741
-1.48293e-05
0.000224936
-4.84133e-06
0.000223475
5.45283e-06
0.000219565
1.54519e-05
0.000213249
2.52023e-05
0.000204491
3.49265e-05
0.000193705
4.30412e-05
0.000181026
5.0557e-05
0.000166487
5.80588e-05
0.00015058
6.34692e-05
0.000133528
6.80804e-05
0.000115429
7.22241e-05
9.6807e-05
7.43598e-05
7.77551e-05
7.60858e-05
5.85349e-05
7.6725e-05
3.94714e-05
7.6141e-05
2.06676e-05
7.50442e-05
2.2803e-06
7.35129e-05
-1.55459e-05
7.12332e-05
-3.26203e-05
6.8232e-05
-4.88575e-05
6.48876e-05
-6.41814e-05
6.12543e-05
-7.8536e-05
5.73818e-05
-9.19201e-05
5.35103e-05
-0.000104287
4.94541e-05
-0.000115638
4.53936e-05
-0.000126016
4.15101e-05
-0.000135412
3.75818e-05
-0.000143855
3.37673e-05
-0.000151379
3.01126e-05
-0.000158034
2.66254e-05
-0.000163838
2.32064e-05
-0.000168813
1.98883e-05
-0.000172997
1.6766e-05
-0.000176438
1.37584e-05
-0.00017912
1.07703e-05
-0.000181096
7.89435e-06
-0.000182385
5.14684e-06
-0.000182949
2.38645e-06
-0.000182759
-6.6547e-07
-0.000181852
-3.64238e-06
-0.000180209
-6.58326e-06
-0.000177881
-9.3439e-06
-0.000174773
-1.24285e-05
-0.000170862
-1.56636e-05
-0.000166215
-1.86532e-05
-0.000160777
-2.17468e-05
-0.00015437
-2.56301e-05
-0.000147184
-2.88116e-05
-0.000138967
-3.28623e-05
-0.00012978
-3.67835e-05
-0.000119697
-4.02453e-05
-0.000108623
-4.43704e-05
-9.64605e-05
-4.86642e-05
-8.35476e-05
-5.15898e-05
-6.94309e-05
-5.64292e-05
-5.44908e-05
-5.96825e-05
-3.87461e-05
-6.29686e-05
-2.20383e-05
-6.67729e-05
-4.78646e-06
-6.89162e-05
1.29454e-05
-7.08674e-05
3.11734e-05
-7.28185e-05
4.95306e-05
-7.33838e-05
6.7941e-05
-7.35191e-05
8.61981e-05
-7.2803e-05
0.000104155
-7.18162e-05
0.000121488
-6.92297e-05
0.000138133
-6.64588e-05
0.000153705
-6.21658e-05
0.000168137
-5.74863e-05
0.000180953
-5.12455e-05
0.000192081
-4.43821e-05
0.000201395
-3.71669e-05
0.000208618
-2.8806e-05
0.000213598
-1.98183e-05
0.000216263
-1.06088e-05
0.000216468
-9.06103e-07
0.000214331
8.604e-06
0.000209697
1.83839e-05
0.000202752
2.7649e-05
0.000193646
3.6306e-05
0.000182539
4.43725e-05
0.000169598
5.16597e-05
0.000155014
5.81907e-05
0.000139051
6.37328e-05
0.000121885
6.85132e-05
0.000103824
7.20746e-05
8.50066e-05
7.51006e-05
6.57853e-05
7.67055e-05
4.64635e-05
7.72571e-05
2.70437e-05
7.75822e-05
7.96245e-06
7.6205e-05
-1.06346e-05
7.43752e-05
-2.87725e-05
7.23344e-05
-4.60149e-05
6.88868e-05