/*--------------------------------*- C++ -*----------------------------------*\
| =========                 |                                                 |
| \\      /  F ield         | OpenFOAM: The Open Source CFD Toolbox           |
|  \\    /   O peration     | Version:  3.0.1                                 |
|   \\  /    A nd           | Web:      www.OpenFOAM.org                      |
|    \\/     M anipulation  |                                                 |
\*---------------------------------------------------------------------------*/
FoamFile
{
    version     2.0;
    format      ascii;
    class       volScalarField;
    location    "79.4";
    object      p;
}
// * * * * * * * * * * * * * * * * * * * * * * * * * * * * * * * * * * * * * //

dimensions      [1 -1 -2 0 0 0 0];

internalField   nonuniform List<scalar> 
21420
(
3615.4
3632.82
3652.16
3673.42
3696.54
3721.52
3748.3
3776.79
3806.89
3838.44
3871.23
3904.96
3939.54
3974.61
4009.78
4044.63
4078.7
4111.58
4142.82
4171.95
4198.63
4222.46
4243.08
4260.21
4273.59
4283.03
4288.37
4289.45
4286.37
4279.14
4267.86
4252.74
4234
4211.93
4186.85
4159.12
4129.18
4097.42
4064.28
4030.19
3995.57
3960.77
3926.3
3893.04
3860.21
3828.29
3797.59
3768.3
3740.58
3714.54
3690.25
3667.75
3647.07
3628.21
3611.15
3595.87
3582.35
3570.56
3560.47
3552.04
3545.25
3540.09
3536.54
3534.62
3534.33
3535.62
3538.53
3543.08
3549.26
3557.09
3566.62
3577.84
3590.75
3605.38
3621.71
3639.75
3659.45
3680.8
3703.76
3728.25
3754.23
3781.6
3810.27
3840.1
3870.97
3902.75
3935.28
3968.09
4000.96
4033.62
4065.73
4096.96
4126.94
4155.31
4181.68
4205.69
4227.01
4245.3
4260.28
4271.7
4279.34
4283.03
4282.71
4278.3
4269.88
4257.45
4241.18
4221.3
4198.04
4171.76
4142.82
4111.65
4078.7
4044.44
4009.35
3973.9
3938.53
3903.67
3869.66
3836.84
3805.47
3775.75
3747.85
3721.86
3697.87
3675.91
3655.96
3638.01
3622.02
3607.92
3595.66
3585.17
3576.35
3569.15
3563.47
3559.25
3556.4
3554.88
3554.67
3555.67
3557.89
3561.33
3565.99
3571.9
3579.07
3587.56
3597.42
3608.7
3621.45
3635.73
3651.59
3669.08
3688.22
3709.04
3731.54
3755.68
3781.41
3808.65
3837.29
3867.17
3898.1
3929.91
3962.24
3994.84
4027.38
4059.5
4090.84
4120.98
4149.53
4176.07
4200.21
4221.57
4239.79
4254.57
4265.64
4272.81
4275.89
4274.89
4269.76
4260.6
4247.52
4230.74
4210.53
4187.2
4161.11
4132.66
4102.28
4070.41
4037.5
4003.97
3970.25
3936.72
3903.72
3871.57
3840.54
3810.85
3782.7
3756.23
3731.54
3708.69
3687.7
3668.55
3651.22
3635.64
3621.75
3609.47
3598.74
3589.49
3581.67
3575.25
3570.18
3566.43
3563.98
3562.86
3563
3564.39
3567.04
3570.95
3576.12
3582.58
3590.33
3599.41
3609.84
3621.64
3634.84
3649.47
3665.55
3683.09
3702.11
3722.61
3744.57
3767.96
3792.73
3818.82
3846.14
3874.56
3903.93
3934.08
3964.76
3995.71
4026.64
4057.2
4087.03
4115.76
4142.97
4168.28
4191.28
4211.59
4228.88
4242.82
4253.16
4259.69
4262.23
4260.81
4255.35
4245.94
4232.72
4215.91
4195.76
4172.6
4146.8
4118.75
4088.87
4057.62
4025.43
3992.74
3960
3927.55
3895.72
3864.84
3835.17
3806.91
3780.23
3755.23
3732
3710.57
3690.96
3673.15
3657.11
3642.78
3630.11
3619.01
3609.38
3601.14
3594.2
3588.52
3584.18
3580.97
3578.88
3577.85
3577.83
3578.78
3580.66
3583.45
3587.17
3591.81
3597.42
3604.07
3611.81
3620.75
3630.96
3642.57
3655.69
3670.43
3686.88
3705.12
3725.19
3747.1
3770.82
3796.26
3823.3
3851.75
3881.28
3911.6
3942.61
3973.88
4005.04
4035.68
4065.37
4093.77
4120.45
4145.06
4167.27
4186.79
4203.36
4216.75
4226.8
4233.4
4236.35
4235.26
4230.57
4222.54
4211.26
4196.98
4179.93
4160.43
4138.74
4115.2
4090.12
4063.82
4036.6
4008.77
3980.62
3952.43
3924.46
3896.93
3870.37
3844.34
3818.9
3794.3
3770.7
3748.21
3726.93
3706.94
3688.31
3671.04
3655.16
3517.22
3534.64
3553.98
3575.23
3598.35
3623.33
3650.12
3678.61
3708.71
3740.27
3773.06
3806.8
3841.4
3876.48
3911.67
3946.53
3980.62
4013.52
4044.78
4073.93
4100.62
4124.47
4145.11
4162.25
4175.65
4185.09
4190.44
4191.52
4188.43
4181.2
4169.91
4154.77
4136.02
4113.93
4088.83
4061.09
4031.13
3999.35
3966.19
3932.09
3897.45
3862.64
3828.16
3794.89
3762.04
3730.12
3699.41
3670.12
3642.4
3616.36
3592.07
3569.57
3548.89
3530.03
3512.97
3497.7
3484.18
3472.39
3462.3
3453.87
3447.09
3441.92
3438.37
3436.46
3436.17
3437.46
3440.37
3444.91
3451.09
3458.92
3468.45
3479.67
3492.58
3507.2
3523.54
3541.57
3561.28
3582.63
3605.58
3630.08
3656.06
3683.43
3712.1
3741.94
3772.81
3804.6
3837.14
3869.96
3902.84
3935.51
3967.64
3998.88
4028.88
4057.26
4083.65
4107.68
4129.02
4147.32
4162.31
4173.74
4181.39
4185.09
4184.76
4180.35
4171.92
4159.49
4143.21
4123.31
4100.04
4073.74
4044.78
4013.59
3980.61
3946.33
3911.23
3875.76
3840.38
3805.5
3771.49
3738.66
3707.28
3677.56
3649.65
3623.67
3599.68
3577.71
3557.77
3539.82
3523.83
3509.74
3497.49
3486.99
3478.18
3470.98
3465.3
3461.09
3458.24
3456.72
3456.51
3457.52
3459.74
3463.18
3467.84
3473.74
3480.91
3489.4
3499.26
3510.53
3523.28
3537.56
3553.42
3570.9
3590.05
3610.86
3633.36
3657.5
3683.23
3710.48
3739.12
3769
3799.95
3831.76
3864.1
3896.71
3929.27
3961.41
3992.76
4022.92
4051.49
4078.05
4102.21
4123.58
4141.82
4156.61
4167.69
4174.86
4177.95
4176.94
4171.81
4162.65
4149.56
4132.76
4112.53
4089.18
4063.08
4034.61
4004.21
3972.32
3939.39
3905.85
3872.12
3838.58
3805.56
3773.4
3742.36
3712.67
3684.52
3658.05
3633.36
3610.51
3589.52
3570.37
3553.04
3537.47
3523.58
3511.31
3500.58
3491.33
3483.51
3477.09
3472.02
3468.27
3465.83
3464.7
3464.85
3466.24
3468.89
3472.8
3477.97
3484.42
3492.18
3501.25
3511.68
3523.47
3536.67
3551.3
3567.38
3584.92
3603.94
3624.44
3646.4
3669.78
3694.56
3720.66
3747.97
3776.4
3805.78
3835.94
3866.63
3897.59
3928.53
3959.1
3988.95
4017.7
4044.93
4070.25
4093.27
4113.6
4130.9
4144.85
4155.2
4161.74
4164.29
4162.86
4157.4
4147.99
4134.76
4117.93
4097.76
4074.59
4048.77
4020.7
3990.81
3959.53
3927.33
3894.62
3861.87
3829.4
3797.56
3766.67
3736.99
3708.73
3682.05
3657.05
3633.82
3612.4
3592.79
3574.98
3558.94
3544.62
3531.95
3520.85
3511.23
3502.99
3496.05
3490.38
3486.04
3482.83
3480.74
3479.71
3479.7
3480.64
3482.52
3485.32
3489.03
3493.67
3499.28
3505.93
3513.67
3522.59
3532.8
3544.4
3557.53
3572.26
3588.7
3606.94
3627.01
3648.92
3672.64
3698.08
3725.12
3753.59
3783.12
3813.45
3844.48
3875.76
3906.94
3937.59
3967.3
3995.71
4022.41
4047.04
4069.27
4088.8
4105.38
4118.78
4128.84
4135.44
4138.4
4137.3
4132.6
4124.56
4113.27
4098.98
4081.92
4062.41
4040.7
4017.14
3992.05
3965.73
3938.5
3910.67
3882.51
3854.31
3826.32
3798.79
3772.23
3746.19
3720.75
3696.15
3672.54
3650.05
3628.77
3608.78
3590.14
3572.88
3557
3418.97
3436.38
3455.72
3476.96
3500.08
3525.06
3551.85
3580.35
3610.46
3642.02
3674.83
3708.59
3743.2
3778.31
3813.53
3848.44
3882.56
3915.5
3946.79
3975.99
4002.71
4026.59
4047.26
4064.43
4077.85
4087.31
4092.66
4093.77
4090.64
4083.4
4072.1
4056.94
4038.15
4016.04
3990.9
3963.12
3933.12
3901.3
3868.11
3833.97
3799.3
3764.46
3729.97
3696.67
3663.81
3631.87
3601.16
3571.86
3544.13
3518.09
3493.8
3471.31
3450.63
3431.77
3414.72
3399.45
3385.94
3374.15
3364.06
3355.64
3348.86
3343.69
3340.15
3338.24
3337.94
3339.23
3342.14
3346.68
3352.86
3360.69
3370.21
3381.43
3394.34
3408.96
3425.29
3443.33
3463.03
3484.38
3507.34
3531.84
3557.82
3585.2
3613.87
3643.71
3674.6
3706.4
3738.96
3771.8
3804.71
3837.4
3869.55
3900.83
3930.86
3959.28
3985.7
4009.77
4031.13
4049.46
4064.48
4075.93
4083.6
4087.31
4086.97
4082.56
4074.12
4061.67
4045.37
4025.44
4002.14
3975.8
3946.8
3915.57
3882.55
3848.23
3813.09
3777.59
3742.18
3707.28
3673.24
3640.4
3609.01
3579.28
3551.36
3525.38
3501.39
3479.43
3459.49
3441.55
3425.57
3411.49
3399.24
3388.75
3379.95
3372.75
3367.08
3362.87
3360.03
3358.52
3358.31
3359.32
3361.54
3364.98
3369.63
3375.53
3382.7
3391.19
3401.04
3412.31
3425.05
3439.32
3455.17
3472.65
3491.79
3512.61
3535.1
3559.24
3584.98
3612.23
3640.88
3670.78
3701.74
3733.56
3765.93
3798.56
3831.15
3863.32
3894.7
3924.9
3953.5
3980.1
4004.3
4025.7
4043.97
4058.79
4069.89
4077.08
4080.18
4079.15
4074.02
4064.84
4051.73
4034.91
4014.65
3991.26
3965.12
3936.62
3906.18
3874.25
3841.29
3807.71
3773.95
3740.38
3707.35
3675.17
3644.11
3614.41
3586.25
3559.78
3535.09
3512.24
3491.25
3472.11
3454.79
3439.22
3425.34
3413.08
3402.35
3393.11
3385.3
3378.88
3373.81
3370.06
3367.62
3366.5
3366.64
3368.03
3370.68
3374.59
3379.76
3386.22
3393.97
3403.04
3413.46
3425.25
3438.45
3453.08
3469.15
3486.69
3505.71
3526.2
3548.16
3571.55
3596.33
3622.42
3649.75
3678.19
3707.58
3737.75
3768.46
3799.45
3830.41
3861.02
3890.9
3919.68
3946.95
3972.31
3995.36
4015.72
4033.05
4047.03
4057.4
4063.95
4066.51
4065.06
4059.6
4050.17
4036.93
4020.07
3999.88
3976.67
3950.81
3922.7
3892.77
3861.46
3829.22
3796.48
3763.7
3731.2
3699.34
3668.44
3638.75
3610.48
3583.79
3558.79
3535.56
3514.14
3494.54
3476.73
3460.7
3446.39
3433.73
3422.63
3413.02
3404.78
3397.86
3392.19
3387.85
3384.65
3382.56
3381.54
3381.52
3382.47
3384.35
3387.14
3390.85
3395.49
3401.1
3407.74
3415.47
3424.39
3434.58
3446.18
3459.29
3474.02
3490.45
3508.68
3528.75
3550.66
3574.38
3599.82
3626.88
3655.36
3684.91
3715.26
3746.31
3777.62
3808.83
3839.52
3869.26
3897.71
3924.44
3949.1
3971.36
3990.92
4007.51
4020.93
4031.01
4037.61
4040.61
4039.47
4034.76
4026.71
4015.39
4001.08
3984
3964.45
3942.72
3919.13
3894.01
3867.67
3840.42
3812.56
3784.38
3756.16
3728.16
3700.61
3674.05
3648
3622.56
3597.95
3574.33
3551.83
3530.55
3510.55
3491.92
3474.66
3458.78
3320.63
3338.04
3357.37
3378.61
3401.73
3426.71
3453.5
3482.01
3512.12
3543.71
3576.54
3610.32
3644.97
3680.12
3715.39
3750.34
3784.52
3817.52
3848.87
3878.12
3904.9
3928.83
3949.55
3966.76
3980.21
3989.69
3995.05
3996.17
3993.03
3985.77
3974.44
3959.24
3940.41
3918.24
3893.06
3865.22
3835.16
3803.29
3770.04
3735.85
3701.13
3666.26
3631.73
3598.4
3565.52
3533.56
3502.83
3473.52
3445.79
3419.75
3395.46
3372.97
3352.3
3333.44
3316.4
3301.13
3287.62
3275.85
3265.76
3257.34
3250.56
3245.4
3241.86
3239.95
3239.65
3240.94
3243.85
3248.38
3254.56
3262.38
3271.9
3283.12
3296.02
3310.64
3326.97
3345.01
3364.71
3386.06
3409.02
3433.52
3459.51
3486.9
3515.58
3545.43
3576.32
3608.16
3640.74
3673.61
3706.55
3739.28
3771.48
3802.8
3832.88
3861.35
3887.82
3911.94
3933.35
3951.73
3966.79
3978.26
3985.95
3989.7
3989.34
3984.93
3976.47
3964
3947.67
3927.69
3904.34
3877.95
3848.89
3817.59
3784.52
3750.14
3714.94
3679.38
3643.93
3608.99
3574.92
3542.05
3510.65
3480.9
3452.99
3427
3403.02
3381.06
3361.13
3343.2
3327.23
3313.16
3300.92
3290.44
3281.65
3274.46
3268.81
3264.6
3261.76
3260.27
3260.06
3261.07
3263.29
3266.73
3271.38
3277.28
3284.44
3292.92
3302.76
3314.02
3326.75
3341.02
3356.86
3374.34
3393.47
3414.28
3436.77
3460.91
3486.65
3513.92
3542.58
3572.49
3603.47
3635.32
3667.72
3700.39
3733.02
3765.24
3796.67
3826.92
3855.58
3882.24
3906.48
3927.94
3946.25
3961.11
3972.24
3979.45
3982.57
3981.52
3976.38
3967.18
3954.04
3937.18
3916.87
3893.44
3867.24
3838.67
3808.18
3776.2
3743.18
3709.56
3675.75
3642.14
3609.08
3576.87
3545.79
3516.07
3487.9
3461.42
3436.73
3413.89
3392.91
3373.78
3356.47
3340.91
3327.04
3314.78
3304.07
3294.84
3287.03
3280.61
3275.55
3271.8
3269.37
3268.25
3268.39
3269.78
3272.43
3276.34
3281.51
3287.96
3295.7
3304.77
3315.19
3326.98
3340.17
3354.79
3370.86
3388.39
3407.41
3427.9
3449.85
3473.24
3498.03
3524.13
3551.47
3579.92
3609.33
3639.53
3670.27
3701.29
3732.29
3762.94
3792.87
3821.7
3849.02
3874.44
3897.54
3917.95
3935.33
3949.34
3959.74
3966.31
3968.89
3967.43
3961.96
3952.51
3939.23
3922.33
3902.09
3878.83
3852.92
3824.75
3794.76
3763.4
3731.1
3698.31
3665.49
3632.96
3601.07
3570.14
3540.43
3512.15
3485.45
3460.45
3437.23
3415.81
3396.21
3378.41
3362.39
3348.09
3335.44
3324.36
3314.75
3306.53
3299.61
3293.95
3289.62
3286.42
3284.34
3283.32
3283.31
3284.26
3286.14
3288.93
3292.64
3297.27
3302.88
3309.51
3317.23
3326.13
3336.31
3347.89
3360.99
3375.7
3392.12
3410.35
3430.4
3452.31
3476.04
3501.49
3528.56
3557.06
3586.64
3617.02
3648.11
3679.47
3710.72
3741.46
3771.25
3799.75
3826.53
3851.24
3873.54
3893.14
3909.77
3923.22
3933.31
3939.93
3942.97
3941.79
3937.06
3928.98
3917.63
3903.28
3886.16
3866.57
3844.8
3821.17
3796.01
3769.63
3742.33
3714.44
3686.23
3657.98
3629.96
3602.39
3575.83
3549.77
3524.31
3499.69
3476.06
3453.56
3432.27
3412.27
3393.64
3376.37
3360.49
3222.22
3239.62
3258.94
3280.18
3303.29
3328.27
3355.07
3383.58
3413.72
3445.32
3478.18
3511.99
3546.69
3581.89
3617.22
3652.24
3686.5
3719.58
3751
3780.33
3807.18
3831.18
3851.96
3869.22
3882.72
3892.22
3897.6
3898.74
3895.57
3888.29
3876.92
3861.67
3842.78
3820.55
3795.29
3767.38
3737.25
3705.3
3671.97
3637.72
3602.94
3568.01
3533.44
3500.07
3467.16
3435.17
3404.42
3375.1
3347.36
3321.32
3297.03
3274.54
3253.88
3235.03
3217.99
3202.74
3189.24
3177.47
3167.39
3158.98
3152.2
3147.05
3143.51
3141.6
3141.29
3142.58
3145.49
3150.02
3156.19
3164.01
3173.53
3184.74
3197.64
3212.25
3228.58
3246.61
3266.32
3287.67
3310.63
3335.14
3361.13
3388.53
3417.22
3447.08
3478
3509.86
3542.48
3575.39
3608.37
3641.15
3673.41
3704.8
3734.94
3763.48
3790.02
3814.21
3835.68
3854.12
3869.23
3880.74
3888.46
3892.22
3891.88
3887.46
3878.98
3866.47
3850.09
3830.06
3806.64
3780.17
3751.04
3719.66
3686.5
3652.04
3616.77
3581.15
3545.63
3510.64
3476.53
3443.63
3412.2
3382.44
3354.52
3328.54
3304.55
3282.6
3262.68
3244.77
3228.81
3214.75
3202.53
3192.07
3183.29
3176.12
3170.47
3166.28
3163.45
3161.97
3161.76
3162.77
3164.99
3168.43
3173.08
3178.97
3186.12
3194.59
3204.43
3215.67
3228.39
3242.65
3258.48
3275.94
3295.07
3315.88
3338.36
3362.51
3388.26
3415.53
3444.21
3474.15
3505.16
3537.04
3569.48
3602.2
3634.89
3667.17
3698.67
3728.99
3757.72
3784.45
3808.77
3830.29
3848.66
3863.57
3874.74
3881.98
3885.12
3884.07
3878.91
3869.68
3856.49
3839.58
3819.21
3795.7
3769.42
3740.78
3710.21
3678.16
3645.06
3611.38
3577.51
3543.86
3510.75
3478.5
3447.4
3417.66
3389.48
3362.99
3338.3
3315.45
3294.48
3275.36
3258.07
3242.52
3228.67
3216.43
3205.73
3196.5
3188.7
3182.29
3177.23
3173.49
3171.07
3169.94
3170.08
3171.48
3174.13
3178.03
3183.2
3189.64
3197.39
3206.45
3216.86
3228.64
3241.83
3256.44
3272.5
3290.03
3309.04
3329.53
3351.48
3374.87
3399.66
3425.77
3453.12
3481.59
3511.03
3541.26
3572.04
3603.11
3634.16
3664.87
3694.87
3723.77
3751.16
3776.64
3799.82
3820.3
3837.73
3851.79
3862.23
3868.83
3871.43
3869.96
3864.47
3854.99
3841.67
3824.72
3804.42
3781.09
3755.1
3726.86
3696.79
3665.35
3632.98
3600.13
3567.25
3534.67
3502.74
3471.77
3442.04
3413.74
3387.04
3362.04
3338.81
3317.4
3297.81
3280.02
3264.01
3249.72
3237.09
3226.02
3216.43
3208.22
3201.31
3195.67
3191.34
3188.16
3186.08
3185.07
3185.06
3186.02
3187.9
3190.69
3194.39
3199.02
3204.61
3211.23
3218.93
3227.82
3237.98
3249.54
3262.62
3277.31
3293.72
3311.93
3331.98
3353.88
3377.61
3403.08
3430.17
3458.7
3488.31
3518.74
3549.88
3581.29
3612.61
3643.41
3673.27
3701.84
3728.69
3753.45
3775.82
3795.47
3812.15
3825.63
3835.75
3842.38
3845.45
3844.25
3839.5
3831.37
3819.98
3805.58
3788.41
3768.77
3746.94
3723.25
3698.03
3671.6
3644.26
3616.32
3588.07
3559.78
3531.72
3504.14
3477.57
3451.5
3426.02
3401.38
3377.74
3355.23
3333.93
3313.93
3295.29
3278.02
3262.14
3123.74
3141.12
3160.43
3181.66
3204.76
3229.74
3256.55
3285.08
3315.23
3346.86
3379.75
3413.61
3448.36
3483.63
3519.04
3554.15
3588.5
3621.68
3653.2
3682.62
3709.56
3733.65
3754.5
3771.83
3785.38
3794.92
3800.32
3801.47
3798.29
3790.96
3779.55
3764.24
3745.28
3722.96
3697.62
3669.61
3639.38
3607.34
3573.92
3539.59
3504.73
3469.73
3435.11
3401.69
3368.73
3336.71
3305.94
3276.6
3248.85
3222.8
3198.52
3176.04
3155.38
3136.54
3119.52
3104.27
3090.78
3079.02
3068.95
3060.55
3053.78
3048.63
3045.09
3043.18
3042.87
3044.16
3047.07
3051.59
3057.76
3065.57
3075.08
3086.29
3099.18
3113.79
3130.12
3148.15
3167.85
3189.2
3212.17
3236.68
3262.68
3290.09
3318.79
3348.68
3379.62
3411.51
3444.18
3477.14
3510.18
3543.02
3575.35
3606.81
3637.05
3665.67
3692.3
3716.57
3738.12
3756.63
3771.8
3783.37
3791.13
3794.91
3794.58
3790.15
3781.64
3769.09
3752.65
3732.55
3709.05
3682.49
3653.25
3621.77
3588.51
3553.95
3518.58
3482.88
3447.28
3412.23
3378.07
3345.13
3313.67
3283.89
3255.96
3229.98
3206
3184.06
3164.15
3146.25
3130.31
3116.27
3104.07
3093.62
3084.86
3077.71
3072.08
3067.9
3065.09
3063.62
3063.41
3064.42
3066.65
3070.08
3074.73
3080.61
3087.75
3096.21
3106.03
3117.26
3129.97
3144.21
3160.03
3177.48
3196.6
3217.4
3239.88
3264.03
3289.78
3317.07
3345.77
3375.74
3406.78
3438.71
3471.21
3503.99
3536.74
3569.1
3600.69
3631.1
3659.92
3686.74
3711.15
3732.75
3751.2
3766.17
3777.4
3784.66
3787.82
3786.78
3781.6
3772.32
3759.08
3742.1
3721.65
3698.05
3671.68
3642.95
3612.28
3580.13
3546.95
3513.18
3479.25
3445.53
3412.36
3380.07
3348.93
3319.17
3290.97
3264.47
3239.77
3216.94
3195.97
3176.87
3159.59
3144.07
3130.23
3118.01
3107.32
3098.11
3090.32
3083.92
3078.86
3075.13
3072.71
3071.59
3071.73
3073.13
3075.77
3079.68
3084.84
3091.28
3099.02
3108.07
3118.47
3130.25
3143.42
3158.03
3174.08
3191.6
3210.6
3231.09
3253.04
3276.44
3301.23
3327.35
3354.72
3383.21
3412.68
3442.95
3473.78
3504.91
3536.03
3566.81
3596.89
3625.88
3653.36
3678.93
3702.19
3722.75
3740.26
3754.39
3764.87
3771.5
3774.12
3772.65
3767.14
3757.62
3744.24
3727.23
3706.85
3683.43
3657.35
3629.01
3598.85
3567.32
3534.86
3501.92
3468.98
3436.33
3404.34
3373.34
3343.58
3315.26
3288.54
3263.54
3240.31
3218.91
3199.33
3181.56
3165.56
3151.29
3138.67
3127.63
3118.05
3109.86
3102.97
3097.35
3093.03
3089.85
3087.79
3086.78
3086.78
3087.74
3089.62
3092.41
3096.11
3100.72
3106.3
3112.91
3120.59
3129.46
3139.6
3151.13
3164.18
3178.85
3195.24
3213.43
3233.47
3255.37
3279.11
3304.59
3331.71
3360.28
3389.92
3420.4
3451.61
3483.1
3514.49
3545.38
3575.33
3603.97
3630.91
3655.75
3678.19
3697.91
3714.64
3728.17
3738.32
3744.97
3748.07
3746.84
3742.06
3733.88
3722.45
3707.99
3690.75
3671.04
3649.14
3625.38
3600.09
3573.59
3546.19
3518.2
3489.89
3461.56
3433.46
3405.84
3379.27
3353.18
3327.67
3303.02
3279.36
3256.84
3235.53
3215.52
3196.88
3179.61
3163.72
3025.17
3042.54
3061.84
3083.05
3106.15
3131.13
3157.94
3186.49
3216.66
3248.32
3281.25
3315.17
3349.98
3385.33
3420.84
3456.06
3490.52
3523.81
3555.45
3584.98
3612.04
3636.22
3657.17
3674.58
3688.19
3697.78
3703.21
3704.36
3701.17
3693.8
3682.32
3666.94
3647.89
3625.48
3600.02
3571.9
3541.56
3509.41
3475.88
3441.44
3406.49
3371.42
3336.73
3303.24
3270.24
3238.18
3207.38
3178.02
3150.26
3124.21
3099.92
3077.45
3056.8
3037.98
3020.96
3005.73
2992.25
2980.51
2970.45
2962.05
2955.29
2950.14
2946.62
2944.7
2944.39
2945.68
2948.58
2953.1
2959.26
2967.07
2976.57
2987.77
3000.65
3015.26
3031.58
3049.6
3069.31
3090.66
3113.63
3138.15
3164.16
3191.58
3220.3
3250.21
3281.18
3313.11
3345.84
3378.86
3411.96
3444.88
3477.3
3508.86
3539.19
3567.92
3594.65
3619.02
3640.67
3659.27
3674.52
3686.15
3693.95
3697.75
3697.44
3693
3684.46
3671.85
3655.35
3635.16
3611.56
3584.88
3555.52
3523.92
3490.54
3455.86
3420.38
3384.57
3348.89
3313.76
3279.53
3246.55
3215.05
3185.25
3157.31
3131.32
3107.35
3085.42
3065.53
3047.65
3031.73
3017.71
3005.53
2995.11
2986.37
2979.24
2973.63
2969.46
2966.67
2965.21
2965.01
2966.03
2968.26
2971.69
2976.33
2982.2
2989.33
2997.78
3007.58
3018.79
3031.48
3045.71
3061.51
3078.95
3098.05
3118.84
3141.32
3165.47
3191.24
3218.54
3247.26
3277.27
3308.36
3340.33
3372.9
3405.76
3438.59
3471.05
3502.73
3533.25
3562.18
3589.11
3613.62
3635.33
3653.87
3668.92
3680.21
3687.51
3690.69
3689.65
3684.44
3675.12
3661.81
3644.75
3624.2
3600.5
3574.02
3545.17
3514.38
3482.12
3448.83
3414.97
3380.95
3347.15
3313.92
3281.58
3250.39
3220.6
3192.37
3165.87
3141.17
3118.34
3097.39
3078.3
3061.04
3045.54
3031.73
3019.53
3008.86
2999.66
2991.89
2985.49
2980.44
2976.72
2974.3
2973.18
2973.33
2974.72
2977.37
2981.27
2986.43
2992.86
3000.59
3009.64
3020.03
3031.79
3044.96
3059.55
3075.6
3093.11
3112.1
3132.58
3154.53
3177.93
3202.73
3228.87
3256.26
3284.78
3314.29
3344.6
3375.49
3406.69
3437.89
3468.76
3498.94
3528.03
3555.61
3581.29
3604.66
3625.32
3642.91
3657.12
3667.66
3674.33
3676.97
3675.5
3669.96
3660.4
3646.96
3629.86
3609.39
3585.86
3559.67
3531.22
3500.94
3469.29
3436.73
3403.69
3370.67
3337.94
3305.89
3274.84
3245.04
3216.7
3189.97
3164.96
3141.74
3120.34
3100.77
3083.02
3067.04
3052.8
3040.2
3029.17
3019.62
3011.45
3004.57
2998.98
2994.67
2991.5
2989.45
2988.45
2988.46
2989.42
2991.3
2994.09
2997.78
3002.39
3007.96
3014.54
3022.21
3031.04
3041.15
3052.66
3065.68
3080.32
3096.68
3114.85
3134.88
3156.78
3180.52
3206.02
3233.17
3261.78
3291.48
3322.03
3353.31
3384.88
3416.37
3447.36
3477.41
3506.16
3533.19
3558.13
3580.66
3600.46
3617.25
3630.84
3641.03
3647.71
3650.82
3649.58
3644.76
3636.52
3625.03
3610.49
3593.18
3573.38
3551.4
3527.55
3502.18
3475.6
3448.13
3420.07
3391.7
3363.3
3335.15
3307.51
3280.94
3254.81
3229.28
3204.6
3180.93
3158.39
3137.07
3117.06
3098.41
3081.13
3065.25
2926.53
2943.88
2963.16
2984.36
3007.46
3032.43
3059.25
3087.82
3118.02
3149.72
3182.69
3216.67
3251.56
3287
3322.62
3357.96
3392.56
3425.99
3457.76
3487.43
3514.61
3538.92
3559.97
3577.48
3591.16
3600.8
3606.26
3607.42
3604.21
3596.79
3585.24
3569.78
3550.63
3528.09
3502.52
3474.26
3443.79
3411.5
3377.85
3343.29
3308.23
3273.06
3238.3
3204.74
3171.68
3139.58
3108.74
3079.36
3051.59
3025.53
3001.25
2978.78
2958.14
2939.33
2922.33
2907.12
2893.66
2881.92
2871.87
2863.49
2856.73
2851.6
2848.07
2846.16
2845.84
2847.13
2850.03
2854.54
2860.69
2868.49
2877.99
2889.17
2902.05
2916.65
2932.97
2950.99
2970.69
2992.05
3015.02
3039.55
3065.58
3093.01
3121.75
3151.68
3182.68
3214.66
3247.46
3280.55
3313.72
3346.74
3379.25
3410.92
3441.38
3470.22
3497.08
3521.57
3543.33
3562.03
3577.37
3589.07
3596.92
3600.76
3600.46
3596.01
3587.43
3574.76
3558.18
3537.89
3514.17
3487.36
3457.86
3426.12
3392.59
3357.77
3322.16
3286.23
3250.44
3215.22
3180.92
3147.88
3116.35
3086.52
3058.57
3032.58
3008.61
2986.7
2966.82
2948.96
2933.07
2919.08
2906.92
2896.53
2887.82
2880.7
2875.12
2870.98
2868.2
2866.75
2866.56
2867.59
2869.82
2873.24
2877.88
2883.74
2890.86
2899.28
2909.07
2920.26
2932.93
2947.13
2962.92
2980.34
2999.43
3020.21
3042.69
3066.84
3092.61
3119.94
3148.69
3178.73
3209.88
3241.91
3274.55
3307.5
3340.44
3373
3404.8
3435.44
3464.5
3491.56
3516.2
3538.03
3556.68
3571.82
3583.17
3590.52
3593.72
3592.68
3587.44
3578.07
3564.69
3547.53
3526.87
3503.04
3476.43
3447.44
3416.52
3384.12
3350.71
3316.74
3282.61
3248.73
3215.42
3183.01
3151.78
3121.94
3093.7
3067.18
3042.48
3019.65
2998.72
2979.66
2962.42
2946.95
2933.16
2920.98
2910.33
2901.16
2893.39
2887.01
2881.97
2878.25
2875.84
2874.72
2874.87
2876.27
2878.92
2882.82
2887.97
2894.4
2902.11
2911.15
2921.53
2933.28
2946.44
2961.02
2977.05
2994.55
3013.54
3034.01
3055.96
3079.36
3104.17
3130.32
3157.73
3186.29
3215.84
3246.21
3277.17
3308.45
3339.74
3370.72
3401.01
3430.22
3457.93
3483.74
3507.23
3528
3545.7
3559.99
3570.6
3577.32
3579.98
3578.51
3572.94
3563.32
3549.81
3532.62
3512.03
3488.39
3462.06
3433.47
3403.06
3371.28
3338.59
3305.44
3272.32
3239.5
3207.38
3176.27
3146.43
3118.06
3091.31
3066.3
3043.08
3021.7
3002.14
2984.41
2968.46
2954.23
2941.66
2930.66
2921.14
2912.99
2906.12
2900.56
2896.26
2893.12
2891.08
2890.09
2890.1
2891.07
2892.95
2895.73
2899.42
2904.02
2909.57
2916.14
2923.77
2932.57
2942.65
2954.12
2967.11
2981.72
2998.05
3016.2
3036.21
3058.1
3081.85
3107.37
3134.56
3163.22
3192.98
3223.6
3254.98
3286.65
3318.25
3349.35
3379.51
3408.38
3435.54
3460.59
3483.22
3503.11
3519.99
3533.63
3543.87
3550.58
3553.7
3552.44
3547.58
3539.29
3527.72
3513.1
3495.7
3475.8
3453.72
3429.77
3404.3
3377.63
3350.07
3321.93
3293.49
3265.03
3236.82
3209.13
3182.56
3156.4
3130.84
3106.13
3082.44
3059.88
3038.55
3018.53
2999.87
2982.6
2966.71
2827.81
2845.14
2864.4
2885.59
2908.67
2933.65
2960.48
2989.06
3019.3
3051.03
3084.06
3118.12
3153.09
3188.64
3224.38
3259.87
3294.62
3328.2
3360.13
3389.95
3417.27
3441.72
3462.9
3480.51
3494.28
3503.99
3509.47
3510.65
3507.41
3499.93
3488.31
3472.75
3453.48
3430.81
3405.09
3376.69
3346.06
3313.62
3279.82
3245.12
3209.94
3174.67
3139.83
3106.18
3073.05
3040.9
3010.02
2980.62
2952.83
2926.76
2902.49
2880.03
2859.4
2840.61
2823.63
2808.43
2794.98
2783.27
2773.23
2764.86
2758.12
2752.99
2749.47
2747.56
2747.24
2748.52
2751.41
2755.92
2762.06
2769.85
2779.34
2790.51
2803.38
2817.97
2834.28
2852.3
2872
2893.36
2916.34
2940.88
2966.92
2994.37
3023.13
3053.09
3084.13
3116.15
3149.04
3182.2
3215.47
3248.58
3281.21
3313.01
3343.6
3372.59
3399.59
3424.21
3446.1
3464.92
3480.36
3492.14
3500.05
3503.93
3503.65
3499.18
3490.55
3477.82
3461.14
3440.74
3416.88
3389.93
3360.27
3328.35
3294.66
3259.68
3223.92
3187.85
3151.94
3116.62
3082.24
3049.13
3017.55
2987.7
2959.73
2933.74
2909.78
2887.88
2868.03
2850.2
2834.33
2820.37
2808.25
2797.88
2789.2
2782.11
2776.55
2772.43
2769.69
2768.25
2768.07
2769.1
2771.33
2774.75
2779.38
2785.22
2792.33
2800.74
2810.5
2821.67
2834.32
2848.5
2864.26
2881.66
2900.73
2921.51
2943.98
2968.13
2993.92
3021.26
3050.05
3080.14
3111.34
3143.45
3176.17
3209.22
3242.27
3274.95
3306.89
3337.67
3366.88
3394.09
3418.87
3440.84
3459.61
3474.85
3486.29
3493.7
3496.92
3495.88
3490.61
3481.17
3467.7
3450.43
3429.64
3405.67
3378.91
3349.77
3318.69
3286.14
3252.59
3218.48
3184.24
3150.26
3116.86
3084.38
3053.09
3023.21
2994.94
2968.41
2943.7
2920.89
2899.97
2880.93
2863.72
2848.28
2834.52
2822.37
2811.75
2802.59
2794.85
2788.48
2783.45
2779.74
2777.33
2776.22
2776.37
2777.77
2780.42
2784.31
2789.46
2795.88
2803.58
2812.61
2822.98
2834.72
2847.86
2862.42
2878.44
2895.93
2914.91
2935.37
2957.32
2980.72
3005.54
3031.71
3059.14
3087.74
3117.34
3147.77
3178.81
3210.18
3241.59
3272.69
3303.11
3332.45
3360.31
3386.26
3409.89
3430.79
3448.61
3463.01
3473.7
3480.46
3483.15
3481.68
3476.07
3466.39
3452.79
3435.5
3414.78
3391
3364.53
3335.78
3305.22
3273.28
3240.45
3207.16
3173.93
3141.02
3108.81
3077.63
3047.74
3019.34
2992.58
2967.56
2944.35
2922.97
2903.44
2885.72
2869.8
2855.6
2843.06
2832.09
2822.6
2814.47
2807.62
2802.1
2797.82
2794.69
2792.66
2791.68
2791.7
2792.68
2794.56
2797.34
2801.02
2805.61
2811.14
2817.68
2825.29
2834.05
2844.1
2855.53
2868.47
2883.04
2899.33
2917.46
2937.45
2959.34
2983.1
3008.64
3035.87
3064.59
3094.42
3125.13
3156.61
3188.39
3220.12
3251.35
3281.65
3310.66
3337.95
3363.13
3385.88
3405.87
3422.84
3436.56
3446.85
3453.59
3456.72
3455.44
3450.54
3442.17
3430.52
3415.81
3398.3
3378.29
3356.09
3332.03
3306.45
3279.68
3252.02
3223.79
3195.26
3166.72
3138.44
3110.71
3084.15
3057.95
3032.35
3007.61
2983.89
2961.32
2939.97
2919.94
2901.28
2884
2868.11
2729.02
2746.32
2765.56
2786.73
2809.8
2834.78
2861.62
2890.23
2920.49
2952.28
2985.36
3019.5
3054.57
3090.24
3126.13
3161.78
3196.7
3230.45
3262.56
3292.54
3320.03
3344.64
3365.96
3383.69
3397.56
3407.33
3412.86
3414.04
3410.78
3403.24
3391.53
3375.86
3356.45
3333.64
3307.75
3279.18
3248.37
3215.77
3181.8
3146.95
3111.63
3076.24
3041.3
3007.56
2974.35
2942.14
2911.22
2881.79
2853.99
2827.92
2803.64
2781.2
2760.59
2741.81
2724.84
2709.67
2696.24
2684.54
2674.53
2666.16
2659.43
2654.31
2650.8
2648.89
2648.56
2649.85
2652.73
2657.23
2663.36
2671.14
2680.62
2691.78
2704.64
2719.22
2735.53
2753.54
2773.24
2794.6
2817.58
2842.13
2868.19
2895.66
2924.44
2954.43
2985.52
3017.6
3050.58
3083.83
3117.19
3150.42
3183.18
3215.13
3245.86
3275.01
3302.17
3326.95
3348.98
3367.93
3383.48
3395.36
3403.35
3407.26
3406.99
3402.51
3393.83
3381.03
3364.24
3343.71
3319.7
3292.57
3262.73
3230.63
3196.75
3161.59
3125.66
3089.44
3053.39
3017.95
2983.48
2950.3
2918.67
2888.79
2860.8
2834.81
2810.86
2788.98
2769.15
2751.35
2735.51
2721.59
2709.5
2699.16
2690.51
2683.46
2677.93
2673.84
2671.11
2669.7
2669.53
2670.57
2672.8
2676.21
2680.83
2686.66
2693.75
2702.14
2711.87
2723.02
2735.64
2749.79
2765.53
2782.91
2801.97
2822.72
2845.19
2869.35
2895.14
2922.51
2951.34
2981.48
3012.75
3044.93
3077.76
3110.92
3144.09
3176.92
3209.01
3239.95
3269.32
3296.7
3321.65
3343.76
3362.67
3378.04
3389.56
3397.03
3400.29
3399.25
3393.94
3384.42
3370.86
3353.46
3332.53
3308.4
3281.46
3252.14
3220.89
3188.18
3154.46
3120.21
3085.84
3051.74
3018.25
2985.68
2954.33
2924.4
2896.1
2869.55
2844.84
2822.04
2801.14
2782.13
2764.95
2749.54
2735.82
2723.7
2713.11
2703.97
2696.24
2689.89
2684.87
2681.17
2678.77
2677.66
2677.82
2679.22
2681.87
2685.76
2690.9
2697.31
2705
2714.01
2724.37
2736.09
2749.21
2763.76
2779.77
2797.24
2816.21
2836.66
2858.61
2882.01
2906.84
2933.03
2960.49
2989.13
3018.79
3049.29
3080.42
3111.9
3143.42
3174.66
3205.22
3234.73
3262.74
3288.86
3312.64
3333.7
3351.65
3366.16
3376.94
3383.77
3386.48
3385.01
3379.36
3369.62
3355.92
3338.5
3317.65
3293.7
3267.06
3238.14
3207.4
3175.3
3142.29
3108.86
3075.51
3042.48
3010.17
2978.92
2948.98
2920.54
2893.76
2868.74
2845.53
2824.17
2804.66
2786.97
2771.07
2756.9
2744.4
2733.46
2724
2715.9
2709.07
2703.59
2699.33
2696.22
2694.21
2693.24
2693.27
2694.25
2696.14
2698.92
2702.59
2707.16
2712.67
2719.19
2726.75
2735.48
2745.48
2756.87
2769.76
2784.29
2800.55
2818.64
2838.62
2860.5
2884.26
2909.83
2937.1
2965.89
2995.8
3026.6
3058.2
3090.12
3121.98
3153.36
3183.82
3212.98
3240.43
3265.75
3288.63
3308.75
3325.82
3339.62
3349.96
3356.74
3359.87
3358.58
3353.63
3345.19
3333.44
3318.62
3300.99
3280.85
3258.53
3234.33
3208.64
3181.74
3153.97
3125.64
3097.02
3068.39
3040.03
3012.24
2985.69
2959.46
2933.81
2909.03
2885.28
2862.69
2841.33
2821.29
2802.62
2785.34
2769.44
2630.14
2647.42
2666.63
2687.78
2710.85
2735.82
2762.67
2791.3
2821.61
2853.45
2886.6
2920.82
2956
2991.8
3027.85
3063.68
3098.79
3132.74
3165.04
3195.22
3222.89
3247.67
3269.15
3287.02
3300.99
3310.84
3316.41
3317.6
3314.31
3306.7
3294.9
3279.1
3259.55
3236.56
3210.5
3181.73
3150.73
3117.94
3083.79
3048.77
3013.29
2977.76
2942.73
2908.88
2875.59
2843.32
2812.35
2782.88
2755.06
2728.99
2704.72
2682.28
2661.69
2642.93
2625.99
2610.83
2597.43
2585.75
2575.75
2567.4
2560.68
2555.57
2552.07
2550.16
2549.83
2551.11
2553.99
2558.48
2564.59
2572.37
2581.83
2592.98
2605.82
2620.39
2636.69
2654.7
2674.4
2695.77
2718.75
2743.31
2769.39
2796.87
2825.69
2855.72
2886.85
2918.98
2952.07
2985.41
3018.89
3052.25
3085.16
3117.26
3148.17
3177.49
3204.82
3229.78
3251.98
3271.07
3286.75
3298.73
3306.79
3310.76
3310.51
3306.01
3297.28
3284.38
3267.48
3246.8
3222.62
3195.3
3165.26
3132.95
3098.86
3063.5
3027.38
2990.98
2954.79
2919.22
2884.65
2851.39
2819.7
2789.78