/*--------------------------------*- C++ -*----------------------------------*\
| =========                 |                                                 |
| \\      /  F ield         | OpenFOAM: The Open Source CFD Toolbox           |
|  \\    /   O peration     | Version:  3.0.1                                 |
|   \\  /    A nd           | Web:      www.OpenFOAM.org                      |
|    \\/     M anipulation  |                                                 |
\*---------------------------------------------------------------------------*/
FoamFile
{
    version     2.0;
    format      ascii;
    class       volScalarField;
    location    "100";
    object      p;
}
// * * * * * * * * * * * * * * * * * * * * * * * * * * * * * * * * * * * * * //

dimensions      [1 -1 -2 0 0 0 0];

internalField   nonuniform List<scalar> 
21420
(
3836.8
3813.63
3791.7
3770.97
3751.44
3733.11
3716
3700.09
3685.35
3671.73
3659.15
3647.55
3636.85
3626.97
3617.85
3609.43
3601.66
3594.5
3587.96
3582.04
3576.69
3571.94
3567.81
3564.35
3561.57
3559.53
3558.26
3557.81
3558.21
3559.51
3561.75
3564.97
3569.2
3574.49
3580.9
3588.51
3597.35
3607.5
3619.08
3632.14
3646.77
3663.05
3681.04
3700.84
3722.45
3745.85
3771
3797.82
3826.15
3855.8
3886.56
3918.14
3950.24
3982.52
4014.59
4046.09
4076.63
4105.84
4133.36
4158.85
4181.98
4202.48
4220.07
4234.51
4245.63
4253.23
4257.17
4257.43
4253.66
4246.44
4235.73
4221.73
4204.83
4185.52
4164.2
4140.6
4114.24
4085.22
4054
4020.92
3986.46
3951.16
3915.68
3880.57
3846.33
3813.41
3782.05
3752.44
3724.65
3698.71
3674.6
3652.26
3631.63
3612.64
3595.24
3579.35
3564.92
3551.88
3540.18
3529.76
3520.58
3512.59
3505.76
3500.07
3495.52
3492.09
3489.78
3488.57
3488.44
3489.36
3491.29
3494.17
3497.97
3502.62
3508.11
3514.4
3521.48
3529.34
3537.98
3547.42
3557.67
3568.75
3580.68
3593.49
3607.18
3621.77
3637.27
3653.66
3670.95
3689.1
3708.1
3727.93
3748.52
3769.86
3791.88
3814.51
3837.66
3861.23
3885.06
3908.99
3932.84
3956.4
3979.44
4001.75
4023.11
4043.28
4062.01
4079.13
4094.41
4107.64
4118.64
4127.26
4133.35
4136.78
4137.47
4135.22
4130.25
4122.45
4111.88
4098.6
4082.8
4064.7
4044.5
4022.43
3998.78
3973.87
3947.98
3921.42
3894.5
3867.52
3840.74
3814.41
3788.74
3763.89
3740.02
3717.25
3695.63
3675.23
3656.06
3638.13
3621.41
3605.89
3591.51
3578.23
3566.02
3554.83
3544.6
3535.29
3526.86
3519.25
3512.43
3506.35
3500.99
3496.32
3492.3
3488.9
3486.12
3483.92
3482.29
3481.22
3480.7
3480.77
3481.45
3482.78
3484.82
3487.62
3491.26
3495.81
3501.34
3507.93
3515.64
3524.54
3534.67
3546.09
3558.84
3572.96
3588.48
3605.44
3623.87
3643.79
3665.21
3688.11
3712.47
3738.21
3765.24
3793.42
3822.56
3852.43
3882.77
3913.26
3943.53
3973.21
4001.9
4029.18
4054.65
4077.86
4098.39
4115.87
4129.92
4140.24
4146.58
4148.67
4146.62
4140.26
4129.67
4114.97
4096.4
4074.22
4048.78
4020.47
3989.74
3957.07
3922.93
3887.83
3852.27
3816.72
3781.6
3747.26
3714.02
3682.15
3651.85
3623.28
3596.54
3571.69
3548.76
3527.75
3508.67
3491.47
3476.11
3462.56
3450.71
3440.53
3431.93
3425.05
3419.84
3416.28
3414.37
3414.1
3415.53
3418.86
3423.87
3430.28
3438.08
3447.4
3458.2
3470.36
3483.79
3498.34
3513.91
3530.3
3547.36
3564.95
3582.91
3601.14
3619.59
3638.21
3657.01
3676.04
3695.39
3715.14
3735.46
3756.48
3778.34
3801.21
3825.19
3850.35
3876.75
3904.33
3933
3962.54
3992.7
4023.23
4053.8
4083.95
4113.34
4141.52
4168.06
4192.53
4214.54
4233.75
4249.85
4262.55
4271.64
4276.97
4278.53
4276.33
4270.2
4260.22
4246.75
4230.02
4210.35
4188.05
4163.42
4136.9
4108.88
4079.75
4049.88
4019.61
3989.33
3959.36
3929.94
3901.37
3873.84
3847.5
3822.46
3798.8
3776.55
3755.73
3736.3
3718.23
3701.45
3685.91
3671.55
3658.3
3646.11
3634.96
3624.86
3738.65
3715.47
3693.54
3672.82
3653.28
3634.95
3617.85
3601.94
3587.21
3573.59
3561.01
3549.41
3538.72
3528.84
3519.72
3511.31
3503.54
3496.38
3489.83
3483.91
3478.57
3473.81
3469.69
3466.22
3463.44
3461.4
3460.13
3459.67
3460.08
3461.37
3463.61
3466.82
3471.06
3476.35
3482.75
3490.36
3499.19
3509.35
3520.92
3533.98
3548.6
3564.87
3582.87
3602.66
3624.27
3647.67
3672.83
3699.65
3727.99
3757.64
3788.41
3820.01
3852.12
3884.42
3916.5
3948.01
3978.57
4007.8
4035.33
4060.84
4083.98
4104.49
4122.09
4136.54
4147.66
4155.26
4159.22
4159.49
4155.7
4148.46
4137.75
4123.75
4106.84
4087.52
4066.18
4042.58
4016.21
3987.19
3955.96
3922.87
3888.39
3853.08
3817.58
3782.45
3748.21
3715.27
3683.9
3654.28
3626.49
3600.55
3576.44
3554.09
3533.46
3514.48
3497.08
3481.2
3466.76
3453.72
3442.02
3431.61
3422.43
3414.44
3407.61
3401.92
3397.37
3393.94
3391.63
3390.43
3390.3
3391.22
3393.15
3396.04
3399.83
3404.49
3409.98
3416.27
3423.35
3431.2
3439.85
3449.29
3459.53
3470.61
3482.55
3495.35
3509.04
3523.63
3539.13
3555.52
3572.8
3590.96
3609.96
3629.78
3650.38
3671.72
3693.74
3716.37
3739.53
3763.1
3786.93
3810.87
3834.73
3858.3
3881.35
3903.67
3925.04
3945.21
3963.96
3981.09
3996.38
4009.61
4020.63
4029.26
4035.35
4038.79
4039.48
4037.25
4032.25
4024.45
4013.88
4000.59
3984.79
3966.67
3946.45
3924.37
3900.71
3875.78
3849.88
3823.31
3796.38
3769.39
3742.6
3716.26
3690.58
3665.73
3641.86
3619.08
3597.47
3577.06
3557.9
3539.97
3523.26
3507.73
3493.36
3480.09
3467.87
3456.68
3446.46
3437.15
3428.72
3421.12
3414.3
3408.22
3402.86
3398.19
3394.17
3390.78
3387.99
3385.8
3384.17
3383.09
3382.57
3382.64
3383.31
3384.64
3386.68
3389.48
3393.12
3397.67
3403.19
3409.78
3417.49
3426.38
3436.51
3447.93
3460.68
3474.79
3490.31
3507.27
3525.7
3545.62
3567.04
3589.94
3614.3
3640.04
3667.08
3695.27
3724.41
3754.29
3784.65
3815.15
3845.43
3875.13
3903.83
3931.14
3956.62
3979.85
4000.4
4017.89
4031.96
4042.29
4048.64
4050.74
4048.68
4042.32
4031.72
4017.01
3998.43
3976.23
3950.77
3922.45
3891.7
3859
3824.84
3789.73
3754.15
3718.58
3683.45
3649.1
3615.85
3583.97
3553.67
3525.09
3498.35
3473.5
3450.57
3429.56
3410.48
3393.28
3377.93
3364.38
3352.53
3342.35
3333.76
3326.88
3321.68
3318.12
3316.22
3315.95
3317.39
3320.72
3325.73
3332.14
3339.96
3349.28
3360.09
3372.25
3385.69
3400.25
3415.82
3432.21
3449.28
3466.87
3484.83
3503.06
3521.51
3540.12
3558.92
3577.94
3597.28
3617.03
3637.34
3658.35
3680.2
3703.06
3727.03
3752.19
3778.59
3806.17
3834.84
3864.39
3894.57
3925.11
3955.69
3985.86
4015.27
4043.46
4070.02
4094.51
4116.54
4135.77
4151.88
4164.58
4173.69
4179.02
4180.59
4178.36
4172.23
4162.25
4148.77
4132.03
4112.34
4090.03
4065.38
4038.84
4010.8
3981.65
3951.78
3921.49
3891.2
3861.22
3831.79
3803.21
3775.67
3749.33
3724.3
3700.63
3678.39
3657.57
3638.14
3620.07
3603.3
3587.76
3573.4
3560.15
3547.96
3536.82
3526.72
3640.44
3617.26
3595.33
3574.6
3555.06
3536.74
3519.64
3503.74
3489.01
3475.4
3462.83
3451.24
3440.55
3430.68
3421.57
3413.15
3405.39
3398.24
3391.68
3385.77
3380.42
3375.66
3371.53
3368.06
3365.28
3363.24
3361.96
3361.5
3361.9
3363.19
3365.43
3368.64
3372.87
3378.16
3384.56
3392.15
3400.99
3411.13
3422.7
3435.75
3450.36
3466.63
3484.62
3504.41
3526.01
3549.42
3574.58
3601.41
3629.76
3659.43
3690.22
3721.84
3753.98
3786.3
3818.41
3849.96
3880.55
3909.81
3937.37
3962.9
3986.07
4006.6
4024.22
4038.7
4049.83
4057.44
4061.41
4061.7
4057.89
4050.62
4039.9
4025.9
4008.98
3989.62
3968.24
3944.63
3918.26
3889.23
3857.98
3824.86
3790.36
3755.02
3719.49
3684.33
3650.05
3617.1
3585.71
3556.08
3528.28
3502.33
3478.21
3455.87
3435.24
3416.26
3398.86
3382.98
3368.55
3355.51
3343.82
3333.41
3324.23
3316.24
3309.42
3303.73
3299.18
3295.75
3293.44
3292.24
3292.12
3293.04
3294.97
3297.86
3301.66
3306.32
3311.81
3318.11
3325.18
3333.04
3341.68
3351.12
3361.37
3372.44
3384.37
3397.17
3410.86
3425.45
3440.95
3457.34
3474.62
3492.78
3511.78
3531.6
3552.2
3573.54
3595.56
3618.19
3641.36
3664.94
3688.79
3712.74
3736.61
3760.19
3783.27
3805.6
3826.99
3847.19
3865.96
3883.1
3898.42
3911.67
3922.7
3931.35
3937.45
3940.9
3941.59
3939.39
3934.36
3926.56
3915.97
3902.67
3886.85
3868.71
3848.47
3826.36
3802.68
3777.72
3751.79
3725.19
3698.24
3671.23
3644.42
3618.06
3592.37
3567.51
3543.64
3520.86
3499.24
3478.84
3459.68
3441.75
3425.04
3409.53
3395.16
3381.89
3369.69
3358.5
3348.28
3338.98
3330.55
3322.95
3316.13
3310.06
3304.7
3300.03
3296.01
3292.62
3289.84
3287.65
3286.02
3284.94
3284.42
3284.48
3285.15
3286.48
3288.51
3291.31
3294.94
3299.48
3305
3311.58
3319.28
3328.17
3338.3
3349.71
3362.45
3376.57
3392.08
3409.04
3427.46
3447.38
3468.8
3491.7
3516.06
3541.81
3568.86
3597.06
3626.22
3656.12
3686.5
3717.03
3747.35
3777.07
3805.81
3833.15
3858.67
3881.94
3902.53
3920.05
3934.14
3944.49
3950.86
3952.99
3950.89
3944.54
3933.93
3919.2
3900.59
3878.36
3852.87
3824.5
3793.71
3760.97
3726.78
3691.62
3656.01
3620.41
3585.25
3550.88
3517.61
3485.72
3455.41
3426.83
3400.09
3375.23
3352.3
3331.3
3312.22
3295.02
3279.67
3266.13
3254.29
3244.11
3235.53
3228.65
3223.46
3219.91
3218.01
3217.76
3219.21
3222.55
3227.55
3233.98
3241.81
3251.15
3261.96
3274.14
3287.59
3302.16
3317.74
3334.14
3351.22
3368.81
3386.77
3405
3423.45
3442.05
3460.84
3479.84
3499.16
3518.9
3539.19
3560.18
3582.02
3604.87
3628.83
3653.98
3680.37
3707.96
3736.64
3766.2
3796.39
3826.96
3857.57
3887.77
3917.22
3945.44
3972.04
3996.57
4018.63
4037.89
4054.03
4066.76
4075.88
4081.23
4082.82
4080.52
4074.39
4064.41
4050.91
4034.15
4014.43
3992.08
3967.4
3940.82
3912.75
3883.57
3853.66
3823.35
3793.04
3763.03
3733.59
3705
3677.45
3651.1
3626.06
3602.4
3580.16
3559.34
3539.92
3521.85
3505.09
3489.56
3475.21
3461.96
3449.78
3438.64
3428.54
3542.18
3518.99
3497.05
3476.32
3456.79
3438.47
3421.37
3405.49
3390.76
3377.16
3364.61
3353.03
3342.35
3332.49
3323.38
3314.98
3307.22
3300.07
3293.51
3287.6
3282.25
3277.49
3273.35
3269.88
3267.09
3265.04
3263.76
3263.3
3263.69
3264.98
3267.21
3270.42
3274.64
3279.92
3286.32
3293.9
3302.73
3312.86
3324.42
3337.45
3352.05
3368.31
3386.29
3406.07
3427.68
3451.08
3476.25
3503.09
3531.46
3561.16
3591.98
3623.63
3655.82
3688.18
3720.34
3751.93
3782.57
3811.87
3839.48
3865.05
3888.26
3908.83
3926.48
3940.98
3952.13
3959.76
3963.74
3964.03
3960.23
3952.9
3942.17
3928.16
3911.23
3891.83
3870.39
3846.75
3820.39
3791.34
3760.06
3726.91
3692.37
3656.98
3621.4
3586.19
3551.88
3518.88
3487.47
3457.81
3430
3404.05
3379.92
3357.58
3336.95
3317.97
3300.58
3284.7
3270.28
3257.25
3245.56
3235.16
3225.99
3218
3211.18
3205.49
3200.94
3197.52
3195.21
3194.01
3193.89
3194.82
3196.76
3199.65
3203.46
3208.13
3213.62
3219.91
3226.99
3234.85
3243.49
3252.92
3263.17
3274.24
3286.17
3298.96
3312.65
3327.23
3342.73
3359.12
3376.4
3394.55
3413.55
3433.38
3453.98
3475.32
3497.35
3519.98
3543.16
3566.75
3590.62
3614.59
3638.48
3662.09
3685.19
3707.56
3728.98
3749.2
3768
3785.18
3800.52
3813.8
3824.86
3833.53
3839.66
3843.12
3843.82
3841.64
3836.58
3828.78
3818.17
3804.85
3789
3770.83
3750.54
3728.4
3704.67
3679.67
3653.7
3627.07
3600.08
3573.03
3546.2
3519.82
3494.11
3469.24
3445.35
3422.57
3400.95
3380.55
3361.4
3343.48
3326.78
3311.27
3296.91
3283.65
3271.45
3260.27
3250.06
3240.77
3232.35
3224.75
3217.94
3211.87
3206.52
3201.85
3197.83
3194.45
3191.67
3189.48
3187.84
3186.76
3186.24
3186.3
3186.97
3188.29
3190.31
3193.1
3196.72
3201.25
3206.76
3213.33
3221.02
3229.91
3240.03
3251.44
3264.17
3278.28
3293.79
3310.74
3329.16
3349.07
3370.49
3393.4
3417.76
3443.52
3470.58
3498.8
3527.99
3557.92
3588.34
3618.91
3649.27
3679.05
3707.84
3735.23
3760.8
3784.12
3804.77
3822.34
3836.47
3846.85
3853.24
3855.41
3853.28
3846.92
3836.29
3821.54
3802.88
3780.61
3755.06
3726.64
3695.79
3662.99
3628.73
3593.52
3557.85
3522.2
3487
3452.61
3419.31
3387.4
3357.08
3328.49
3301.74
3276.88
3253.95
3232.95
3213.87
3196.68
3181.34
3167.8
3155.97
3145.8
3137.23
3130.37
3125.18
3121.64
3119.76
3119.53
3121.01
3124.33
3129.34
3135.78
3143.64
3152.99
3163.83
3176.02
3189.49
3204.07
3219.67
3236.08
3253.17
3270.77
3288.73
3306.96
3325.4
3343.99
3362.76
3381.74
3401.04
3420.75
3441.01
3461.98
3483.8
3506.62
3530.56
3555.7
3582.1
3609.69
3638.38
3667.96
3698.19
3728.79
3759.44
3789.7
3819.19
3847.47
3874.13
3898.71
3920.82
3940.13
3956.31
3969.07
3978.21
3983.59
3985.2
3982.83
3976.68
3966.69
3953.17
3936.37
3916.61
3894.21
3869.47
3842.85
3814.72
3785.5
3755.54
3725.19
3694.84
3664.8
3635.33
3606.72
3579.16
3552.8
3527.76
3504.09
3481.86
3461.05
3441.63
3423.58
3406.82
3391.31
3376.96
3363.72
3351.55
3340.41
3330.32
3443.86
3420.66
3398.72
3377.99
3358.46
3340.14
3323.06
3307.18
3292.47
3278.88
3266.34
3254.78
3244.11
3234.26
3225.17
3216.77
3209.02
3201.88
3195.32
3189.4
3184.05
3179.29
3175.15
3171.67
3168.88
3166.82
3165.53
3165.06
3165.45
3166.73
3168.95
3172.15
3176.37
3181.64
3188.02
3195.6
3204.41
3214.53
3226.07
3239.09
3253.68
3269.92
3287.88
3307.66
3329.26
3352.67
3377.85
3404.71
3433.11
3462.84
3493.7
3525.4
3557.63
3590.05
3622.27
3653.92
3684.63
3713.99
3741.66
3767.29
3790.55
3811.16
3828.85
3843.38
3854.57
3862.22
3866.21
3866.51
3862.72
3855.33
3844.56
3830.55
3813.59
3794.14
3772.62
3748.95
3722.58
3693.51
3662.2
3629
3594.41
3558.95
3523.31
3488.04
3453.67
3420.63
3389.18
3359.5
3331.67
3305.7
3281.57
3259.22
3238.6
3219.62
3202.23
3186.37
3171.95
3158.93
3147.25
3136.86
3127.69
3119.71
3112.89
3107.21
3102.66
3099.24
3096.93
3095.74
3095.62
3096.56
3098.51
3101.41
3105.22
3109.89
3115.39
3121.69
3128.77
3136.62
3145.26
3154.69
3164.93
3176
3187.92
3200.71
3214.4
3228.98
3244.47
3260.86
3278.14
3296.29
3315.29
3335.11
3355.72
3377.06
3399.09
3421.74
3444.93
3468.54
3492.42
3516.42
3540.35
3563.99
3587.13
3609.53
3630.99
3651.26
3670.1
3687.32
3702.7
3716.02
3727.11
3735.81
3741.96
3745.44
3746.16
3744
3738.92
3731.1
3720.47
3707.12
3691.23
3673.01
3652.68
3630.48
3606.7
3581.64
3555.62
3528.93
3501.89
3474.81
3447.94
3421.53
3395.79
3370.9
3347.01
3324.22
3302.6
3282.2
3263.06
3245.15
3228.46
3212.96
3198.61
3185.37
3173.18
3162.01
3151.81
3142.52
3134.11
3126.52
3119.72
3113.66
3108.31
3103.64
3099.63
3096.25
3093.47
3091.28
3089.65
3088.57
3088.04
3088.09
3088.75
3090.06
3092.07
3094.85
3098.46
3102.98
3108.48
3115.03
3122.72
3131.59
3141.71
3153.11
3165.83
3179.93
3195.44
3212.38
3230.79
3250.7
3272.12
3295.03
3319.4
3345.17
3372.25
3400.49
3429.71
3459.69
3490.16
3520.78
3551.21
3581.05
3609.91
3637.37
3663.02
3686.41
3707.12
3724.76
3738.94
3749.37
3755.78
3757.98
3755.84
3749.47
3738.82
3724.02
3705.32
3682.98
3657.36
3628.86
3597.92
3565.04
3530.7
3495.41
3459.67
3423.96
3388.71
3354.27
3320.95
3289.01
3258.67
3230.07
3203.31
3178.45
3155.52
3134.52
3115.45
3098.26
3082.93
3069.4
3057.58
3047.43
3038.87
3032.02
3026.84
3023.32
3021.45
3021.25
3022.76
3026.09
3031.09
3037.56
3045.44
3054.82
3065.68
3077.9
3091.39
3105.99
3121.61
3138.04
3155.14
3172.75
3190.72
3208.94
3227.37
3245.94
3264.69
3283.65
3302.91
3322.58
3342.81
3363.74
3385.53
3408.33
3432.25
3457.37
3483.76
3511.36
3540.07
3569.68
3599.94
3630.59
3661.3
3691.62
3721.19
3749.54
3776.27
3800.93
3823.11
3842.48
3858.71
3871.52
3880.7
3886.09
3887.71
3885.3
3879.12
3869.11
3855.56
3838.7
3818.88
3796.41
3771.61
3744.91
3716.72
3687.43
3657.42
3627.01
3596.61
3566.53
3537.03
3508.39
3480.81
3454.44
3429.39
3405.73
3383.5
3362.69
3343.29
3325.25
3308.51
3293
3278.67
3265.44
3253.27
3242.15
3232.06
3345.49
3322.28
3300.33
3279.6
3260.07
3241.76
3224.68
3208.82
3194.13
3180.56
3168.04
3156.49
3145.84
3136.01
3126.93
3118.54
3110.8
3103.66
3097.11
3091.19
3085.83
3081.06
3076.92
3073.43
3070.63
3068.56
3067.26
3066.79
3067.16
3068.44
3070.65
3073.84
3078.05
3083.31
3089.68
3097.25
3106.04
3116.14
3127.66
3140.66
3155.23
3171.45
3189.4
3209.17
3230.77
3254.18
3279.37
3306.25
3334.68
3364.45
3395.36
3427.12
3459.42
3491.92
3524.21
3555.94
3586.72
3616.17
3643.91
3669.61
3692.93
3713.6
3731.35
3745.92
3757.14
3764.81
3768.82
3769.13
3765.34
3757.9
3747.09
3733.06
3716.07
3696.56
3674.94
3651.22
3624.85
3595.76
3564.4
3531.14
3496.48
3460.95
3425.23
3389.88
3355.44
3322.34
3290.85
3261.13
3233.28
3207.3
3183.16
3160.81
3140.18
3121.21
3103.83
3087.97
3073.57
3060.56
3048.89
3038.51
3029.35
3021.38
3014.56
3008.88
3004.33
3000.91
2998.61
2997.42
2997.31
2998.26
3000.22
3003.13
3006.95
3011.63
3017.13
3023.43
3030.51
3038.37
3047
3056.43
3066.67
3077.73
3089.64
3102.43
3116.11
3130.68
3146.17
3162.56
3179.83
3197.99
3216.99
3236.81
3257.41
3278.76
3300.8
3323.46
3346.66
3370.29
3394.2
3418.24
3442.2
3465.89
3489.07
3511.52
3533.03
3553.35
3572.25
3589.52
3604.94
3618.31
3629.45
3638.18
3644.37
3647.87
3648.6
3646.45
3641.38
3633.54
3622.87
3609.48
3593.54
3575.27
3554.87
3532.6
3508.75
3483.63
3457.54
3430.79
3403.69
3376.55
3349.63
3323.19
3297.42
3272.51
3248.6
3225.81
3204.19
3183.8
3164.66
3146.76
3130.09
3114.6
3100.27
3087.04
3074.86
3063.71
3053.52
3044.24
3035.84
3028.27
3021.47
3015.41
3010.07
3005.41
3001.4
2998.02
2995.25
2993.06
2991.43
2990.35
2989.82
2989.86
2990.51
2991.81
2993.81
2996.57
3000.17
3004.67
3010.15
3016.69
3024.36
3033.22
3043.33
3054.72
3067.44
3081.53
3097.02
3113.95
3132.36
3152.27
3173.68
3196.59
3220.97
3246.76
3273.86
3302.13
3331.39
3361.43
3391.95
3422.65
3453.15
3483.07
3512.02
3539.58
3565.31
3588.79
3609.59
3627.31
3641.56
3652.04
3658.49
3660.71
3658.58
3652.19
3641.5
3626.65
3607.88
3585.47
3559.76
3531.16
3500.12
3467.14
3432.69
3397.3
3361.48
3325.69
3290.38
3255.89
3222.52
3190.55
3160.19
3131.57
3104.8
3079.93
3057
3036.01
3016.94
2999.77
2984.45
2970.93
2959.13
2948.99
2940.45
2933.61
2928.45
2924.94
2923.1
2922.93
2924.47
2927.81
2932.82
2939.32
2947.23
2956.64
2967.53
2979.77
2993.29
3007.92
3023.57
3040.02
3057.14
3074.76
3092.72
3110.94
3129.36
3147.91
3166.63
3185.55
3204.78
3224.4
3244.59
3265.48
3287.22
3309.98
3333.88
3358.98
3385.37
3412.97
3441.7
3471.35
3501.66
3532.37
3563.16
3593.56
3623.21
3651.66
3678.48
3703.23
3725.5
3744.94
3761.25
3774.11
3783.33
3788.75
3790.36
3787.93
3781.71
3771.67
3758.06
3741.14
3721.24
3698.69
3673.8
3647.02
3618.74
3589.37
3559.28
3528.8
3498.34
3468.21
3438.67
3410
3382.39
3356.01
3330.95
3307.29
3285.07
3264.27
3244.88
3226.86
3210.13
3194.65
3180.33
3167.12
3154.96
3143.84
3133.76
3247.06
3223.84
3201.88
3181.15
3161.62
3143.32
3126.26
3110.41
3095.74
3082.19
3069.69
3058.17
3047.54
3037.73
3028.66
3020.29
3012.55
3005.42
2998.87
2992.95
2987.59
2982.81
2978.66
2975.16
2972.35
2970.27
2968.96
2968.48
2968.85
2970.11
2972.32
2975.5
2979.69
2984.94
2991.3
2998.84
3007.62
3017.7
3029.2
3042.17
3056.71
3072.91
3090.84
3110.6
3132.2
3155.61
3180.82
3207.73
3236.19
3266.01
3296.98
3328.81
3361.19
3393.77
3426.16
3457.98
3488.86
3518.4
3546.23
3572.01
3595.41
3616.15
3633.96
3648.58
3659.84
3667.54
3671.58
3671.89
3668.09
3660.61
3649.74
3635.68
3618.67
3599.08
3577.35
3553.56
3527.19
3498.07
3466.67
3433.34
3398.59
3362.97
3327.15
3291.71
3257.19
3224.01
3192.47
3162.71
3134.83
3108.83
3084.69
3062.33
3041.7
3022.74
3005.37
2989.52
2975.13
2962.14
2950.48
2940.11
2930.96
2922.99
2916.18
2910.5
2905.96
2902.54
2900.25
2899.06
2898.96
2899.92
2901.89
2904.81
2908.65
2913.34
2918.85
2925.15
2932.23
2940.08
2948.71
2958.14
2968.37
2979.42
2991.33
3004.11
3017.78
3032.35
3047.83
3064.22
3081.49
3099.64
3118.64
3138.47
3159.07
3180.42
3202.47
3225.14
3248.36
3272.02
3295.96
3320.04
3344.05
3367.78
3391.02
3413.53
3435.1
3455.48
3474.44
3491.77
3507.26
3520.68
3531.87
3540.65
3546.88
3550.41
3551.16
3549.02
3543.95
3536.08
3525.38
3511.94
3495.94
3477.6
3457.12
3434.78
3410.84
3385.64
3359.47
3332.64
3305.47
3278.27
3251.29
3224.8
3199
3174.06
3150.14
3127.33
3105.71
3085.33
3066.2
3048.32
3031.66
3016.2
3001.88
2988.66
2976.5
2965.36
2955.19
2945.93
2937.54
2929.98
2923.19
2917.14
2911.81
2907.15
2903.15
2899.78
2897.01
2894.82
2893.19
2892.11
2891.57
2891.6
2892.24
2893.53
2895.51
2898.25
2901.83
2906.31
2911.77
2918.3
2925.96
2934.8
2944.9
2956.27
2968.98
2983.06
2998.54
3015.46
3033.86
3053.76
3075.17
3098.08
3122.47
3148.28
3175.41
3203.72
3233.04
3263.13
3293.73
3324.51
3355.1
3385.12
3414.17
3441.84
3467.69
3491.28
3512.18
3529.99
3544.33
3554.87
3561.37
3563.61
3561.5
3555.08
3544.34
3529.44
3510.59
3488.07
3462.25
3433.54
3402.38
3369.27
3334.7
3299.2
3263.26
3227.39
3192
3157.44
3124.02
3092.02
3061.63
3032.99
3006.21
2981.34
2958.41
2937.42
2918.36
2901.19
2885.89
2872.39
2860.6
2850.48
2841.96
2835.15
2830
2826.51
2824.69
2824.56
2826.14
2829.49
2834.51
2841.04
2848.99
2858.44
2869.36
2881.64
2895.19
2909.85
2925.53
2942.01
2959.15
2976.78
2994.75
3012.96
3031.36
3049.89
3068.57
3087.45
3106.63
3126.21
3146.34
3167.17
3188.87
3211.59
3235.45
3260.53
3286.91
3314.52
3343.28
3372.97
3403.34
3434.13
3465
3495.5
3525.26
3553.82
3580.75
3605.61
3627.98
3647.52
3663.91
3676.84
3686.1
3691.56
3693.16
3690.72
3684.45
3674.36
3660.69
3643.69
3623.7
3601.05
3576.05
3549.17
3520.79
3491.32
3461.14
3430.58
3400.05
3369.86
3340.26
3311.55
3283.91
3257.51
3232.45
3208.79
3186.57
3165.79
3146.42
3128.41
3111.71
3096.24
3081.94
3068.74
3056.6
3045.49
3035.42
3148.58
3125.34
3103.38
3082.64
3063.11
3044.82
3027.78
3011.95
2997.3
2983.78
2971.3
2959.8
2949.2
2939.41
2930.37
2922.01
2914.29
2907.16
2900.62
2894.68
2889.32
2884.54
2880.38
2876.86
2874.04
2871.95
2870.63
2870.13
2870.49
2871.74
2873.94
2877.11
2881.29
2886.52
2892.86
2900.39
2909.14
2919.2
2930.67
2943.62
2958.13
2974.3
2992.21
3011.95
3033.54
3056.96
3082.19
3109.13
3137.64
3167.52
3198.56
3230.47
3262.94
3295.62
3328.11
3360.05
3391.04
3420.68
3448.62
3474.5
3497.99
3518.81
3536.69
3551.37
3562.68
3570.42
3574.47
3574.79
3570.99
3563.45
3552.52
3538.42
3521.38
3501.72
3479.85
3455.98
3429.59
3400.45
3368.99
3335.58
3300.74
3265.01
3229.07
3193.53
3158.9
3125.65
3094.04
3064.23
3036.32
3010.3
2986.15
2963.79
2943.16
2924.2
2906.84
2891.01
2876.64
2863.66
2852.02
2841.66
2832.52
2824.56
2817.75
2812.08
2807.54
2804.13
2801.84
2800.66
2800.57
2801.54
2803.52
2806.46
2810.31
2815.01
2820.53
2826.83
2833.91
2841.76
2850.39
2859.81
2870.03
2881.08
2892.98
2905.75
2919.42
2933.98
2949.46
2965.84
2983.11
3001.26
3020.26
3040.08
3060.69
3082.05
3104.1
3126.78
3150.03
3173.72
3197.7
3221.82
3245.88
3269.68
3292.98
3315.56
3337.2
3357.65
3376.68
3394.09
3409.64
3423.13
3434.38
3443.22
3449.49
3453.06
3453.83
3451.7
3446.63
3438.73
3427.98
3414.49
3398.42
3380
3359.44
3336.99
3312.97
3287.66
3261.4
3234.48
3207.23
3179.95
3152.91
3126.36
3100.52
3075.55
3051.61
3028.8
3007.18
2986.8
2967.69
2949.82
2933.18
2917.74
2903.44
2890.24
2878.1
2866.98
2856.82
2847.58
2839.21
2831.66
2824.88
2818.85
2813.52
2808.87
2804.87
2801.5
2798.74
2796.56
2794.93
2793.84
2793.3
2793.32
2793.94
2795.21
2797.18
2799.9
2803.46
2807.92
2813.36
2819.86
2827.5
2836.33
2846.41
2857.77
2870.47
2884.53
2900
2916.91
2935.3
2955.19
2976.6
2999.51
3023.91
3049.74
3076.91
3105.26
3134.63
3164.8
3195.49
3226.37
3257.07
3287.2
3316.37
3344.17
3370.14
3393.86
3414.89
3432.81
3447.24
3457.86
3464.41
3466.68
3464.58
3458.13
3447.35
3432.37
3413.43
3390.8
3364.85
3336
3304.7
3271.44
3236.73
3201.09
3165.03
3129.05
3093.57
3058.94
3025.46
2993.41
2962.99
2934.33
2907.54
2882.66
2859.73
2838.74
2819.69
2802.54
2787.26
2773.78
2762.01
2751.91
2743.41
2736.62
2731.49
2728.03
2726.24
2726.14
2727.76
2731.14
2736.19
2742.75
2750.74
2760.22
2771.18
2783.5
2797.09
2811.79
2827.51
2844.02
2861.18
2878.83
2896.8
2915.01
2933.39
2951.88
2970.53
2989.36
3008.48
3028
3048.07
3068.84
3090.47
3113.14
3136.96
3162.02
3188.39
3216.02
3244.8
3274.54
3304.98
3335.85
3366.83
3397.44
3427.33
3456.01
3483.07
3508.07
3530.56
3550.21
3566.7
3579.71
3589.03
3594.51
3596.11
3593.66
3587.33
3577.19
3563.45
3546.35
3526.25
3503.48
3478.36
3451.35
3422.86
3393.27
3362.99
3332.33
3301.71
3271.45
3241.8
3213.04
3185.37
3158.95
3133.88
3110.22
3088.01
3067.25
3047.89
3029.91
3013.23
2997.78
2983.5
2970.33
2958.2
2947.1
2937.04
3050.04
3026.78
3004.81
2984.07
2964.55
2946.27
2929.24
2913.43
2898.81
2885.32
2872.87
2861.4
2850.83
2841.06
2832.04
2823.7
2815.99
2808.88
2802.34
2796.4
2791.03
2786.24
2782.07
2778.54
2775.71
2773.6
2772.27
2771.75
2772.1
2773.34
2775.52
2778.67
2782.84
2788.06
2794.38
2801.88
2810.61
2820.64
2832.08
2844.99
2859.48
2875.62
2893.5
2913.23
2934.81
2958.24
2983.48
3010.45
3039.02
3068.96
3100.08
3132.09
3164.66
3197.46
3230.08
3262.13
3293.25
3323.02
3351.07
3377.07
3400.66
3421.58
3439.54
3454.29
3465.65
3473.43
3477.51
3477.84
3474.02
3466.44
3455.43
3441.27
3424.2
3404.46
3382.46
3358.47
3332.06
3302.9
3271.37
3237.87
3202.92
3167.07
3131
3095.34
3060.6
3027.25
2995.56
2965.7
2937.76
2911.72
2887.55
2865.18
2844.56
2825.61
2808.26
2792.44
2778.08
2765.12
2753.5
2743.16
2734.03
2726.08
2719.28
2713.61
2709.08
2705.67
2703.38
2702.21
2702.14
2703.12
2705.12
2708.07
2711.94
2716.65
2722.18
2728.49
2735.57
2743.42
2752.04
2761.45
2771.67
2782.71
2794.6
2807.36
2821.01
2835.57
2851.04
2867.42
2884.69
2902.84
2921.84
2941.66
2962.27
2983.63
3005.69
3028.39
3051.66
3075.38
3099.41
3123.58
3147.71
3171.58
3194.95
3217.61
3239.33
3259.86
3278.97
3296.46
3312.09
3325.66
3336.98
3345.88
3352.2
3355.81
3356.61
3354.48
3349.42
3341.49
3330.69
3317.13
3300.98
3282.47
3261.81
3239.26
3215.12
3189.7
3163.33
3136.31
3108.96
3081.6
3054.48
3027.88
3001.99
2976.98
2953.02
2930.2
2908.58
2888.21
2869.11
2851.27
2834.65
2819.23
2804.95
2791.78
2779.66
2768.56
2758.42
2749.2
2740.84
2733.3
2726.54
2720.52
2715.2
2710.56
2706.57
2703.21
2700.46
2698.28
2696.65
2695.55
2695
2695.01
2695.62
2696.87
2698.82
2701.52
2705.05
2709.48
2714.89
2721.38
2728.99
2737.81
2747.87
2759.22
2771.9
2785.95
2801.4
2818.3
2836.67
2856.55
2877.95
2900.87
2925.29
2951.14
2978.34
3006.75
3036.19
3066.44
3097.23
3128.22
3159.04
3189.3
3218.62
3246.55
3272.67
3296.54
3317.71
3335.76
3350.3
3361.01
3367.62
3369.93
3367.83
3361.36
3350.52
3335.46
3316.4
3293.65
3267.55
3238.54
3207.08
3173.66
3138.77
3102.98
3066.78
3030.67
2995.09
2960.37
2926.84
2894.74
2864.27
2835.59
2808.78
2783.9
2760.97
2739.99
2720.95
2703.81
2688.55
2675.09
2663.35
2653.27
2644.8
2638.03
2632.93
2629.5
2627.74
2627.68
2629.34
2632.75
2637.83
2644.43
2652.46
2661.99
2673
2685.36
2699
2713.74
2729.5
2746.05
2763.24
2780.9
2798.88
2817.07
2835.43
2853.89
2872.49
2891.27
2910.33
2929.77
2949.77
2970.46
2992.04
3014.65
3038.42
3063.45
3089.81
3117.45
3146.26
3176.06
3206.58
3237.55
3268.65
3299.4
3329.42
3358.26
3385.46
3410.6
3433.24
3453.02
3469.61
3482.71
3492.1
3497.62
3499.22
3496.74
3490.37
3480.15
3466.32
3449.11
3428.89
3405.98
3380.73
3353.58
3324.95
3295.23
3264.83
3234.06
3203.35
3173
3143.28
3114.47
3086.76
3060.32
3035.24
3011.58
2989.38
2968.63
2949.3
2931.35
2914.69
2899.27
2885.02
2871.86
2859.75
2848.67
2838.61
2951.45
2928.17
2906.18
2885.44
2865.92
2847.66
2830.65
2814.87
2800.27
2786.81
2774.4
2762.97
2752.42
2742.69
2733.69
2725.37
2717.68
2710.57
2704.04
2698.09
2692.71
2687.92
2683.73
2680.19
2677.34
2675.22
2673.87
2673.34
2673.67
2674.89
2677.06
2680.2
2684.35
2689.55
2695.85
2703.33
2712.03
2722.02
2733.43
2746.3
2760.75
2776.86
2794.71
2814.42
2835.99
2859.43
2884.69
2911.71
2940.33
2970.35
3001.56
3033.67
3066.37
3099.29
3132.05
3164.24
3195.5
3225.41
3253.6
3279.72
3303.44
3324.46
3342.51
3357.34
3368.76
3376.58
3380.69
3381.02
3377.2
3369.55
3358.47
3344.24
3327.12
3307.31
3285.17
3261.04
3234.6
3205.41
3173.82
3140.22
3105.15
3069.15
3032.94
2997.13
2962.26
2928.81
2897.04
2867.12
2839.14
2813.07
2788.89
2766.52
2745.89
2726.95
2709.61
2693.81
2679.48
2666.54
2654.93
2644.61
2635.5
2627.56
2620.76
2615.1
2610.57
2607.16
2604.88
2603.72
2603.66
2604.66
2606.68
2609.65
2613.53
2618.26
2623.79
2630.11
2637.19
2645.04
2653.66
2663.07
2673.27
2684.3
2696.18
2708.93
2722.58
2737.13
2752.59
2768.96
2786.23
2804.37
2823.37
2843.2
2863.81
2885.17
2907.24
2929.96
2953.26
2977.02
3001.1
3025.33
3049.53
3073.47
3096.92
3119.67
3141.48
3162.1
3181.31
3198.9
3214.61
3228.27
3239.66
3248.63
3255.02
3258.67
3259.5
3257.39
3252.32
3244.35
3233.5
3219.86
3203.63
3185.01
3164.23
3141.56
3117.3
3091.76
3065.27
3038.12
3010.67
2983.21
2956.02
2929.34
2903.4
2878.36
2854.37
2831.53
2809.91
2789.56
2770.48
2752.65
2736.06
2720.67
2706.42
2693.27
2681.18
2670.09
2659.98
2650.78
2642.44
2634.92
2628.18
2622.17
2616.86
2612.22
2608.24
2604.89
2602.14
2599.97
2598.34
2597.25
2596.69
2596.68
2597.27
2598.5
2600.42
2603.1
2606.6
2611
2616.39
2622.84
2630.44
2639.23
2649.27
2660.6
2673.27
2687.3
2702.74
2719.62
2737.98
2757.85
2779.25
2802.17
2826.6
2852.48
2879.72
2908.19
2937.7
2968.05
2998.94
3030.06
3061.02
3091.43
3120.9
3149
3175.29
3199.32
3220.64
3238.84
3253.51
3264.32
3271
3273.34
3271.25
3264.75
3253.84
3238.69
3219.51
3196.61
3170.36
3141.17
3109.52
3075.91
3040.84
3004.86
2968.5
2932.26
2896.56
2861.75
2828.14
2795.98
2765.48
2736.77
2709.95
2685.06
2662.13
2641.16
2622.13
2605.01
2589.76
2576.33
2564.62
2554.57
2546.12
2539.39
2534.31
2530.91
2529.19
2529.17
2530.88
2534.33
2539.46
2546.09
2554.16
2563.74
2574.8
2587.22
2600.9
2615.7
2631.5
2648.09
2665.31
2682.99
2700.98
2719.16
2737.49
2755.92
2774.46
2793.18
2812.16
2831.53
2851.44
2872.06
2893.55
2916.1
2939.82
2964.82
2991.17
3018.82
3047.67
3077.53
3108.13
3139.23
3170.45
3201.35
3231.54
3260.54
3287.91
3313.22
3336.01
3355.94
3372.66
3385.86
3395.32
3400.88
3402.48
3399.98
3393.54
3383.26
3369.32
3351.99
3331.62
3308.57
3283.15
3255.85
3227.06
3197.2
3166.66
3135.77
3104.95
3074.51
3044.71
3015.84
2988.09
2961.62
2936.53
2912.87
2890.68
2869.96
2850.65
2832.73
2816.1
2800.71
2786.49
2773.36
2761.26
2750.2
2740.15
2852.8
2829.5
2807.5
2786.75
2767.24
2748.99
2732
2716.25
2701.69
2688.26
2675.89
2664.49
2653.98
2644.28
2635.31
2627.01
2619.34
2612.24
2605.71
2599.77
2594.38
2589.57
2585.37
2581.81
2578.94
2576.81
2575.44
2574.89
2575.21
2576.41
2578.56
2581.69
2585.82
2591
2597.27
2604.72
2613.39
2623.35
2634.71
2647.55
2661.96
2678.03
2695.85
2715.53
2737.1
2760.54
2785.83
2812.89
2841.57
2871.67
2902.98
2935.21
2968.04
3001.12
3034.02
3066.38
3097.8
3127.86
3156.2
3182.46
3206.31
3227.45
3245.6
3260.52
3272.01
3279.88
3284
3284.35
3280.51
3272.8
3261.63
3247.32
3230.16
3210.27
3187.99
3163.69
3137.19
3107.99
3076.33
3042.62
3007.41
2971.25
2934.88
2898.92
2863.9
2830.33
2798.47
2768.48
2740.45
2714.35
2690.16
2667.78
2647.17
2628.23
2610.91
2595.13
2580.81
2567.9
2556.32
2546.01
2536.91
2528.99
2522.2
2516.54
2512.01
2508.61
2506.34
2505.19
2505.14
2506.16
2508.2
2511.19
2515.09
2519.84
2525.38
2531.7
2538.79
2546.63
2555.25
2564.65
2574.84
2585.86
2597.73
2610.47
2624.1
2638.64
2654.1
2670.47