/*--------------------------------*- C++ -*----------------------------------*\
| =========                 |                                                 |
| \\      /  F ield         | OpenFOAM: The Open Source CFD Toolbox           |
|  \\    /   O peration     | Version:  3.0.1                                 |
|   \\  /    A nd           | Web:      www.OpenFOAM.org                      |
|    \\/     M anipulation  |                                                 |
\*---------------------------------------------------------------------------*/
FoamFile
{
    version     2.0;
    format      ascii;
    class       volVectorField;
    location    "100";
    object      U;
}
// * * * * * * * * * * * * * * * * * * * * * * * * * * * * * * * * * * * * * //

dimensions      [0 1 -1 0 0 0 0];

internalField   nonuniform List<vector> 
21420
(
(0.235354 0.00155357 0)
(0.221816 0.00145595 0)
(0.207567 0.00136472 0)
(0.1943 0.00126797 0)
(0.182061 0.0011602 0)
(0.170853 0.0010613 0)
(0.160661 0.000958047 0)
(0.151459 0.000863817 0)
(0.143209 0.000772735 0)
(0.135871 0.000682434 0)
(0.129406 0.000598795 0)
(0.123777 0.000518124 0)
(0.118953 0.000438608 0)
(0.114912 0.000362535 0)
(0.111633 0.000287171 0)
(0.109102 0.000214006 0)
(0.107303 0.000142138 0)
(0.106216 7.19269e-05 0)
(0.105823 5.54512e-06 0)
(0.106079 -5.73263e-05 0)
(0.106971 -0.000116906 0)
(0.108433 -0.000171329 0)
(0.110406 -0.000219594 0)
(0.112832 -0.000260939 0)
(0.115646 -0.00029646 0)
(0.118786 -0.000325462 0)
(0.122192 -0.000349543 0)
(0.125815 -0.000369029 0)
(0.129619 -0.000385257 0)
(0.133573 -0.000399669 0)
(0.137665 -0.000413104 0)
(0.141903 -0.000428194 0)
(0.146298 -0.000444571 0)
(0.150877 -0.000465467 0)
(0.155667 -0.000489543 0)
(0.160722 -0.000517676 0)
(0.166108 -0.000553655 0)
(0.171856 -0.000592384 0)
(0.178033 -0.000635986 0)
(0.18471 -0.000690008 0)
(0.191924 -0.00074247 0)
(0.199718 -0.000806155 0)
(0.20812 -0.000867754 0)
(0.217159 -0.000925794 0)
(0.226859 -0.000997668 0)
(0.237223 -0.0010613 0)
(0.248233 -0.0011131 0)
(0.259838 -0.00118017 0)
(0.272023 -0.00123201 0)
(0.284723 -0.00126619 0)
(0.297832 -0.00131479 0)
(0.311274 -0.00133614 0)
(0.324948 -0.00136175 0)
(0.338747 -0.00136572 0)
(0.352545 -0.00134971 0)
(0.366178 -0.00133296 0)
(0.379512 -0.00129371 0)
(0.39237 -0.00123606 0)
(0.404603 -0.00117043 0)
(0.416028 -0.00108358 0)
(0.426493 -0.000975204 0)
(0.435819 -0.000860336 0)
(0.443929 -0.000730314 0)
(0.450711 -0.000593379 0)
(0.45618 -0.000453187 0)
(0.460373 -0.000304818 0)
(0.4634 -0.000164494 0)
(0.465226 -2.81929e-05 0)
(0.465613 0.000108524 0)
(0.464456 0.000265786 0)
(0.461145 0.000450524 0)
(0.45558 0.0006537 0)
(0.44737 0.000858957 0)
(0.436041 0.00112084 0)
(0.421205 0.00140667 0)
(0.402989 0.00174711 0)
(0.383134 0.00200122 0)
(0.362221 0.00218467 0)
(0.340383 0.00225173 0)
(0.318777 0.00224229 0)
(0.297976 0.00215043 0)
(0.278722 0.00200117 0)
(0.261353 0.00179693 0)
(0.246214 0.00159181 0)
(0.232971 0.00141974 0)
(0.221217 0.0012686 0)
(0.210791 0.00115058 0)
(0.201206 0.00106095 0)
(0.192267 0.000989012 0)
(0.183787 0.000930913 0)
(0.175687 0.000871918 0)
(0.167993 0.000821767 0)
(0.160697 0.00076859 0)
(0.153821 0.000716799 0)
(0.147324 0.000662648 0)
(0.141256 0.000619573 0)
(0.13562 0.000581014 0)
(0.130331 0.000550914 0)
(0.125088 0.00051765 0)
(0.119944 0.000504488 0)
(0.114943 0.000490006 0)
(0.110057 0.000467504 0)
(0.10541 0.000442425 0)
(0.101077 0.000420347 0)
(0.0969914 0.000385036 0)
(0.0932666 0.000355819 0)
(0.0898687 0.000320437 0)
(0.0867697 0.000277707 0)
(0.0841054 0.000251223 0)
(0.0817938 0.000213251 0)
(0.0797913 0.00017983 0)
(0.0781464 0.000148601 0)
(0.0768653 0.000108982 0)
(0.0759485 7.36195e-05 0)
(0.0754117 3.0844e-05 0)
(0.0753335 -1.0204e-05 0)
(0.0757163 -5.49612e-05 0)
(0.076557 -0.00011008 0)
(0.077931 -0.000157568 0)
(0.0798331 -0.000213038 0)
(0.0822475 -0.000271061 0)
(0.0852493 -0.00033151 0)
(0.0889259 -0.000384531 0)
(0.0932126 -0.000459644 0)
(0.0982634 -0.000538702 0)
(0.104101 -0.000610647 0)
(0.110683 -0.000694325 0)
(0.118115 -0.000770451 0)
(0.126343 -0.000860906 0)
(0.135406 -0.000938734 0)
(0.145296 -0.00101228 0)
(0.155926 -0.00109939 0)
(0.167416 -0.00117263 0)
(0.179634 -0.00124985 0)
(0.192582 -0.00132692 0)
(0.206282 -0.001386 0)
(0.220525 -0.00144508 0)
(0.235329 -0.00149411 0)
(0.250629 -0.00153334 0)
(0.266234 -0.0015691 0)
(0.282109 -0.00157549 0)
(0.298015 -0.00158746 0)
(0.31394 -0.00157235 0)
(0.329696 -0.00154022 0)
(0.344992 -0.00149861 0)
(0.359803 -0.00144091 0)
(0.37398 -0.00136095 0)
(0.387209 -0.00126626 0)
(0.399383 -0.00115352 0)
(0.41044 -0.00102641 0)
(0.420135 -0.000882817 0)
(0.428258 -0.000726329 0)
(0.434769 -0.0005587 0)
(0.439514 -0.000375834 0)
(0.442346 -0.000187383 0)
(0.443233 5.58254e-06 0)
(0.442253 0.000211419 0)
(0.438899 0.00042387 0)
(0.433603 0.000619065 0)
(0.426469 0.00080919 0)
(0.417504 0.000984188 0)
(0.406768 0.00113824 0)
(0.394504 0.00127984 0)
(0.381011 0.00140261 0)
(0.366428 0.0014951 0)
(0.35094 0.00156915 0)
(0.334786 0.00161922 0)
(0.318253 0.00166211 0)
(0.301437 0.00167765 0)
(0.284491 0.00167586 0)
(0.267626 0.00166839 0)
(0.250931 0.00164335 0)
(0.234498 0.00160895 0)
(0.218558 0.00155852 0)
(0.20317 0.00149731 0)
(0.188359 0.0014265 0)
(0.174409 0.00133689 0)
(0.161424 0.00125339 0)
(0.149215 0.00115363 0)
(0.13803 0.00105328 0)
(0.127931 0.000964636 0)
(0.118675 0.000865567 0)
(0.110345 0.000770212 0)
(0.10307 0.0006888 0)
(0.0966122 0.000602043 0)
(0.0909413 0.000522851 0)
(0.0861266 0.00044222 0)
(0.0820686 0.000361091 0)
(0.0787563 0.000297735 0)
(0.0761472 0.000225208 0)
(0.0742149 0.0001584 0)
(0.0729348 9.20539e-05 0)
(0.0723502 2.63978e-05 0)
(0.0724596 -3.94345e-05 0)
(0.0732288 -0.000105128 0)
(0.0746409 -0.000168289 0)
(0.0766743 -0.000222895 0)
(0.0791811 -0.000278851 0)
(0.0822434 -0.00032934 0)
(0.0858014 -0.00036859 0)
(0.0897316 -0.000412093 0)
(0.0940692 -0.000446779 0)
(0.0987517 -0.000478988 0)
(0.103724 -0.000508077 0)
(0.108964 -0.000539654 0)
(0.114506 -0.000555643 0)
(0.120184 -0.000577828 0)
(0.126109 -0.000599582 0)
(0.132253 -0.00061164 0)
(0.138515 -0.000641878 0)
(0.145035 -0.000652591 0)
(0.151724 -0.000674022 0)
(0.158607 -0.000699334 0)
(0.165798 -0.000725926 0)
(0.173276 -0.000750412 0)
(0.181012 -0.000792506 0)
(0.189184 -0.000821817 0)
(0.197758 -0.00087038 0)
(0.206788 -0.000913752 0)
(0.21627 -0.000966678 0)
(0.226272 -0.00101801 0)
(0.23678 -0.00106087 0)
(0.247788 -0.00111539 0)
(0.259301 -0.00115412 0)
(0.271174 -0.00120713 0)
(0.283475 -0.00124176 0)
(0.296188 -0.00125536 0)
(0.309101 -0.0012927 0)
(0.322183 -0.00130527 0)
(0.335333 -0.00130452 0)
(0.348431 -0.00128958 0)
(0.361305 -0.00125852 0)
(0.37377 -0.00120929 0)
(0.385677 -0.00114294 0)
(0.396761 -0.00106538 0)
(0.40694 -0.000948571 0)
(0.415931 -0.000832149 0)
(0.423598 -0.00069223 0)
(0.429771 -0.0005346 0)
(0.434263 -0.00036461 0)
(0.436967 -0.000177051 0)
(0.437796 7.93141e-06 0)
(0.436835 0.000194325 0)
(0.433775 0.000391714 0)
(0.428845 0.000577352 0)
(0.422156 0.000751301 0)
(0.413694 0.000913355 0)
(0.403663 0.00106962 0)
(0.392197 0.00120117 0)
(0.37949 0.00131464 0)
(0.365772 0.00141044 0)
(0.351307 0.00146074 0)
(0.336444 0.00148824 0)
(0.321412 0.00148238 0)
(0.306605 0.00146569 0)
(0.292153 0.00141104 0)
(0.278164 0.0013439 0)
(0.264964 0.00127164 0)
(0.252651 0.00118647 0)
(0.241078 0.00109862 0)
(0.230289 0.00100275 0)
(0.220423 0.00090624 0)
(0.2113 0.000826795 0)
(0.202978 0.000750505 0)
(0.195461 0.000678569 0)
(0.188525 0.000626906 0)
(0.182127 0.000567309 0)
(0.17642 0.000524719 0)
(0.171109 0.000489653 0)
(0.166322 0.00042934 0)
(0.162478 0.000394097 0)
(0.15982 0.000370333 0)
(0.157759 0.000326283 0)
(0.15561 0.000282655 0)
(0.153585 0.000253789 0)
(0.151952 0.000207694 0)
(0.150667 0.000180905 0)
(0.149627 0.000138529 0)
(0.14907 0.000103082 0)
(0.148919 7.07188e-05 0)
(0.149242 3.03099e-05 0)
(0.149946 -2.0205e-05 0)
(0.151 -6.33463e-05 0)
(0.152674 -0.000114811 0)
(0.154864 -0.000157524 0)
(0.157392 -0.000194783 0)
(0.160395 -0.000236993 0)
(0.163723 -0.000259232 0)
(0.167197 -0.0002888 0)
(0.170972 -0.000309907 0)
(0.174838 -0.000325807 0)
(0.178731 -0.000338497 0)
(0.182763 -0.000358452 0)
(0.186788 -0.000365234 0)
(0.190893 -0.00038793 0)
(0.195152 -0.000411838 0)
(0.199626 -0.000447513 0)
(0.204428 -0.000484098 0)
(0.20966 -0.000540642 0)
(0.215466 -0.000604254 0)
(0.221937 -0.000683242 0)
(0.229231 -0.000771585 0)
(0.237402 -0.00086183 0)
(0.246522 -0.000972381 0)
(0.25673 -0.00108609 0)
(0.268019 -0.0011838 0)
(0.280415 -0.00130378 0)
(0.293939 -0.00140185 0)
(0.308506 -0.00150745 0)
(0.324024 -0.00159085 0)
(0.340311 -0.00164225 0)
(0.357143 -0.00170278 0)
(0.374364 -0.00172481 0)
(0.391724 -0.00171007 0)
(0.408936 -0.00169567 0)
(0.425732 -0.001631 0)
(0.441815 -0.00155677 0)
(0.456891 -0.00143598 0)
(0.470643 -0.00128614 0)
(0.482798 -0.00111977 0)
(0.493103 -0.000924744 0)
(0.501369 -0.000711189 0)
(0.507418 -0.000485875 0)
(0.511149 -0.000245406 0)
(0.512478 -4.51934e-06 0)
(0.511665 0.000224491 0)
(0.508325 0.000458043 0)
(0.502715 0.000658049 0)
(0.495053 0.00085277 0)
(0.485505 0.0010398 0)
(0.474257 0.00118505 0)
(0.461553 0.0013252 0)
(0.447609 0.0014491 0)
(0.432648 0.00152094 0)
(0.416923 0.00159554 0)
(0.400663 0.00162068 0)
(0.3841 0.00164963 0)
(0.367429 0.00166181 0)
(0.350831 0.00162978 0)
(0.334489 0.00160501 0)
(0.318541 0.00156732 0)
(0.303109 0.00149868 0)
(0.288294 0.00143963 0)
(0.274169 0.00135948 0)
(0.260782 0.00128974 0)
(0.248156 0.00121767 0)
(0.236295 0.00113626 0)
(0.22519 0.00106538 0)
(0.214815 0.000996797 0)
(0.205135 0.000925831 0)
(0.196116 0.000864105 0)
(0.187719 0.000801591 0)
(0.179908 0.000746645 0)
(0.172651 0.000694308 0)
(0.16592 0.000641126 0)
(0.1597 0.000592362 0)
(0.15338 0.000544517 0)
(0.23532 0.00466111 0)
(0.22178 0.00436812 0)
(0.207529 0.00409434 0)
(0.19426 0.003804 0)
(0.182021 0.0034806 0)
(0.170813 0.00318383 0)
(0.160622 0.00287403 0)
(0.151422 0.00259131 0)
(0.143173 0.00231805 0)
(0.135837 0.00204715 0)
(0.129373 0.00179627 0)
(0.123745 0.00155428 0)
(0.118923 0.00131576 0)
(0.114882 0.00108756 0)
(0.111604 0.000861466 0)
(0.109073 0.00064197 0)
(0.107275 0.000426428 0)
(0.10619 0.000215836 0)
(0.105797 1.63177e-05 0)
(0.106054 -0.000172197 0)
(0.106949 -0.000350961 0)
(0.108413 -0.000514217 0)
(0.110388 -0.000659007 0)
(0.112817 -0.000783062 0)
(0.115633 -0.000889605 0)
(0.118776 -0.000976572 0)
(0.122184 -0.00104882 0)
(0.125808 -0.00110719 0)
(0.129613 -0.00115579 0)
(0.133567 -0.00119897 0)
(0.13766 -0.00123923 0)
(0.141897 -0.00128444 0)
(0.14629 -0.00133351 0)
(0.150868 -0.00139616 0)
(0.155655 -0.00146843 0)
(0.160708 -0.00155261 0)
(0.166092 -0.00166039 0)
(0.171838 -0.00177764 0)
(0.178012 -0.00190778 0)
(0.184686 -0.00206971 0)
(0.191899 -0.00222735 0)
(0.199691 -0.00241834 0)
(0.20809 -0.00260318 0)
(0.217129 -0.00277726 0)
(0.226828 -0.00299298 0)
(0.237192 -0.00318385 0)
(0.248202 -0.00333946 0)
(0.259808 -0.00354059 0)
(0.271995 -0.00369658 0)
(0.284696 -0.00379833 0)
(0.297809 -0.00394487 0)
(0.311254 -0.00400862 0)
(0.324932 -0.0040871 0)
(0.338738 -0.00409552 0)
(0.352539 -0.00405278 0)
(0.366182 -0.00399705 0)
(0.379519 -0.00388345 0)
(0.392386 -0.0037117 0)
(0.404628 -0.00350942 0)
(0.416067 -0.00324547 0)
(0.426529 -0.00293747 0)
(0.435868 -0.00258256 0)
(0.44398 -0.00219559 0)
(0.450782 -0.00177404 0)
(0.456254 -0.00134755 0)
(0.460445 -0.000911076 0)
(0.463471 -0.000493865 0)
(0.465304 -8.30997e-05 0)
(0.465701 0.000321367 0)
(0.464542 0.000798406 0)
(0.461245 0.00135114 0)
(0.455686 0.00196093 0)
(0.447486 0.00257826 0)
(0.436174 0.00336504 0)
(0.421359 0.00420995 0)
(0.403151 0.00523437 0)
(0.383283 0.00600655 0)
(0.362361 0.00655224 0)
(0.340525 0.00675689 0)
(0.31892 0.00673198 0)
(0.298128 0.00644261 0)
(0.278879 0.00599978 0)
(0.261517 0.0053916 0)
(0.246391 0.00477395 0)
(0.233165 0.00426636 0)
(0.22142 0.00380189 0)
(0.210997 0.00344755 0)
(0.201422 0.00318166 0)
(0.192495 0.00296545 0)
(0.184026 0.00279307 0)
(0.175934 0.00262044 0)
(0.168234 0.00246505 0)
(0.160932 0.00229831 0)
(0.154045 0.00214918 0)
(0.147559 0.00199687 0)
(0.141487 0.00185393 0)
(0.135861 0.00173905 0)
(0.130574 0.00163886 0)
(0.12534 0.00156764 0)
(0.120184 0.00150899 0)
(0.11519 0.00146907 0)
(0.110303 0.00140306 0)
(0.105655 0.00132982 0)
(0.101313 0.00124953 0)
(0.0972301 0.00115554 0)
(0.0934923 0.00105427 0)
(0.090106 0.000971509 0)
(0.0870012 0.000835922 0)
(0.0843439 0.000748581 0)
(0.0820459 0.000652061 0)
(0.080021 0.000529441 0)
(0.0783769 0.000440738 0)
(0.0771071 0.000341329 0)
(0.0761792 0.00021919 0)
(0.0756356 8.93922e-05 0)
(0.0755599 -3.15166e-05 0)
(0.0759467 -0.000176648 0)
(0.0767954 -0.000324172 0)
(0.0781521 -0.000477584 0)
(0.080063 -0.000630247 0)
(0.0824765 -0.000793894 0)
(0.0854651 -0.000983063 0)
(0.0891249 -0.00117994 0)
(0.0934369 -0.00138619 0)
(0.0984875 -0.0016145 0)
(0.104317 -0.00183642 0)
(0.110893 -0.0020876 0)
(0.118328 -0.00232484 0)
(0.126566 -0.00257149 0)
(0.135627 -0.00281384 0)
(0.145513 -0.00305184 0)
(0.156148 -0.00330465 0)
(0.167644 -0.00351408 0)
(0.179863 -0.00375645 0)
(0.19281 -0.003972 0)
(0.206515 -0.00415231 0)
(0.220755 -0.00434571 0)
(0.235559 -0.00448891 0)
(0.250865 -0.00460921 0)
(0.266497 -0.00469982 0)
(0.282353 -0.00474138 0)
(0.298285 -0.00476308 0)
(0.314215 -0.00471978 0)
(0.329973 -0.00461995 0)
(0.345262 -0.00451458 0)
(0.360097 -0.00431398 0)
(0.374289 -0.00406568 0)
(0.387517 -0.00379942 0)
(0.399691 -0.00346918 0)
(0.410758 -0.00307367 0)
(0.420444 -0.00265764 0)
(0.428588 -0.00218691 0)
(0.435111 -0.0016725 0)
(0.439858 -0.00112594 0)
(0.442688 -0.000557703 0)
(0.443574 1.9316e-05 0)
(0.442571 0.000634668 0)
(0.439224 0.00126892 0)
(0.433939 0.00185508 0)
(0.426805 0.00241312 0)
(0.417824 0.00294965 0)
(0.407084 0.00342818 0)
(0.394815 0.00384934 0)
(0.381303 0.00419654 0)
(0.366724 0.00449248 0)
(0.351217 0.00472152 0)
(0.33507 0.00487051 0)
(0.318512 0.00497652 0)
(0.301696 0.00503191 0)
(0.284742 0.00502807 0)
(0.267875 0.00500591 0)
(0.251181 0.00493386 0)
(0.234724 0.00480558 0)
(0.218778 0.00467553 0)
(0.203384 0.00449672 0)
(0.188555 0.00426478 0)
(0.174627 0.00402187 0)
(0.161633 0.00376189 0)
(0.149426 0.00346284 0)
(0.138237 0.00317413 0)
(0.128126 0.00289412 0)
(0.118874 0.0026049 0)
(0.110541 0.0023172 0)
(0.103247 0.00205185 0)
(0.0968048 0.00180658 0)
(0.0911291 0.00154947 0)
(0.0863202 0.00132906 0)
(0.0822749 0.00109524 0)
(0.0789531 0.000881225 0)
(0.076345 0.000682329 0)
(0.074405 0.000480797 0)
(0.0731331 0.00027899 0)
(0.0725409 6.90213e-05 0)
(0.072648 -0.000125923 0)
(0.0734159 -0.000323251 0)
(0.0748356 -0.000510257 0)
(0.0768724 -0.000666982 0)
(0.0793904 -0.000834708 0)
(0.0824624 -0.00098175 0)
(0.0860238 -0.001108 0)
(0.0899604 -0.0012352 0)
(0.094296 -0.00133809 0)
(0.0989743 -0.00143732 0)
(0.103947 -0.00152441 0)
(0.109209 -0.00161139 0)
(0.114736 -0.00167026 0)
(0.120435 -0.00173491 0)
(0.126346 -0.00180634 0)
(0.132483 -0.00184329 0)
(0.138761 -0.00191626 0)
(0.14525 -0.00197282 0)
(0.151965 -0.0020211 0)
(0.158853 -0.0021005 0)
(0.166031 -0.00217756 0)
(0.173506 -0.00224778 0)
(0.181252 -0.00236852 0)
(0.189396 -0.00248457 0)
(0.197984 -0.00260442 0)
(0.20699 -0.00274697 0)
(0.216482 -0.00288777 0)
(0.226466 -0.00305306 0)
(0.236949 -0.00319857 0)
(0.24795 -0.00333934 0)
(0.259444 -0.00347617 0)
(0.271332 -0.00359347 0)
(0.283615 -0.00372244 0)
(0.2963 -0.00379736 0)
(0.309214 -0.00386412 0)
(0.322271 -0.00390986 0)
(0.335414 -0.00391094 0)
(0.348506 -0.00386806 0)
(0.361368 -0.00377511 0)
(0.373828 -0.00362926 0)
(0.385721 -0.00342563 0)
(0.396813 -0.00317916 0)
(0.406964 -0.00286174 0)
(0.415972 -0.00248466 0)
(0.423621 -0.00207246 0)
(0.429781 -0.0015942 0)
(0.434261 -0.0010862 0)
(0.436955 -0.000533289 0)
(0.437771 5.64418e-06 0)
(0.436779 0.000596978 0)
(0.433684 0.00116491 0)
(0.428761 0.00173222 0)
(0.422059 0.0022536 0)
(0.413585 0.00275464 0)
(0.403518 0.00321318 0)
(0.392028 0.00360886 0)
(0.379305 0.00395217 0)
(0.365548 0.00421723 0)
(0.35106 0.00436814 0)
(0.336181 0.00446531 0)
(0.321143 0.00446997 0)
(0.306299 0.00437765 0)
(0.291839 0.0042473 0)
(0.277835 0.00404339 0)
(0.264614 0.00380857 0)
(0.252299 0.00356644 0)
(0.240718 0.00329716 0)
(0.229935 0.00300602 0)
(0.220081 0.00272638 0)
(0.210956 0.0024726 0)
(0.202644 0.00224009 0)
(0.195148 0.00204217 0)
(0.188221 0.001891 0)
(0.181825 0.00169008 0)
(0.17614 0.00157085 0)
(0.170848 0.00145929 0)
(0.166082 0.00128644 0)
(0.162253 0.00118219 0)
(0.159629 0.00111706 0)
(0.157585 0.00097808 0)
(0.155455 0.000853342 0)
(0.153444 0.000752809 0)
(0.151843 0.000634248 0)
(0.150563 0.000535769 0)
(0.149544 0.000408514 0)
(0.148998 0.000304573 0)
(0.148855 0.000215938 0)
(0.149173 9.11976e-05 0)
(0.149878 -5.69021e-05 0)
(0.150932 -0.000191789 0)
(0.152608 -0.00034237 0)
(0.154794 -0.000471271 0)
(0.157318 -0.00058505 0)
(0.160319 -0.000707847 0)
(0.16364 -0.000779137 0)
(0.16711 -0.000862076 0)
(0.170883 -0.000932947 0)
(0.174746 -0.000971165 0)
(0.178643 -0.00102564 0)
(0.182676 -0.00106291 0)
(0.186706 -0.00110335 0)
(0.190813 -0.00116422 0)
(0.195078 -0.00123424 0)
(0.199554 -0.00133585 0)
(0.20436 -0.00146096 0)
(0.209594 -0.00162804 0)
(0.215402 -0.00181441 0)
(0.221875 -0.00205006 0)
(0.229169 -0.00231789 0)
(0.23734 -0.00258821 0)
(0.246461 -0.00291548 0)
(0.256672 -0.00325508 0)
(0.267966 -0.00355263 0)
(0.280362 -0.00391642 0)
(0.293892 -0.00420378 0)
(0.308463 -0.00452226 0)
(0.323991 -0.00477208 0)
(0.340284 -0.00492804 0)
(0.357126 -0.0051089 0)
(0.374357 -0.00517586 0)
(0.391727 -0.00513181 0)
(0.408951 -0.00508923 0)
(0.425758 -0.00489553 0)
(0.441854 -0.00467128 0)
(0.45694 -0.00430979 0)
(0.470706 -0.00385662 0)
(0.482869 -0.0033614 0)
(0.493184 -0.0027749 0)
(0.501455 -0.00213536 0)
(0.507511 -0.00145886 0)
(0.511251 -0.000733423 0)
(0.512586 -1.55443e-05 0)
(0.511757 0.000671782 0)
(0.508401 0.00137344 0)
(0.502794 0.00197363 0)
(0.495128 0.00255879 0)
(0.485574 0.00312013 0)
(0.474317 0.00355597 0)
(0.461604 0.00397646 0)
(0.447651 0.00434823 0)
(0.432681 0.00456371 0)
(0.416946 0.00478749 0)
(0.400677 0.00486284 0)
(0.384106 0.00494966 0)
(0.367428 0.00498617 0)
(0.350823 0.00488997 0)
(0.334475 0.00481558 0)
(0.318522 0.00470241 0)
(0.303086 0.00449637 0)
(0.288268 0.00431915 0)
(0.274141 0.0040786 0)
(0.260753 0.0038693 0)
(0.248127 0.003653 0)
(0.236267 0.00340871 0)
(0.225162 0.00319605 0)
(0.214788 0.00299027 0)
(0.20511 0.00277735 0)
(0.196092 0.00259218 0)
(0.187697 0.00240465 0)
(0.179887 0.00223983 0)
(0.17263 0.00208284 0)
(0.1659 0.00192332 0)
(0.159681 0.00177706 0)
(0.153361 0.00163355 0)
(0.235252 0.0077698 0)
(0.221707 0.0072811 0)
(0.20745 0.00682444 0)
(0.194178 0.00634023 0)
(0.18194 0.00580094 0)
(0.170733 0.0053061 0)
(0.160545 0.00478962 0)
(0.151347 0.00431832 0)
(0.143101 0.00386287 0)
(0.135769 0.00341142 0)
(0.129308 0.00299335 0)
(0.123682 0.00259012 0)
(0.118862 0.00219266 0)
(0.114822 0.00181239 0)
(0.111545 0.0014356 0)
(0.109016 0.00106979 0)
(0.107219 0.000710648 0)
(0.106136 0.000359493 0)
(0.105745 2.60283e-05 0)
(0.106005 -0.000287516 0)
(0.106905 -0.000585805 0)
(0.108373 -0.00085785 0)
(0.110353 -0.00109916 0)
(0.112786 -0.00130595 0)
(0.115608 -0.00148347 0)
(0.118755 -0.00162832 0)
(0.122167 -0.00174863 0)
(0.125794 -0.00184574 0)
(0.129601 -0.00192652 0)
(0.133556 -0.00199827 0)
(0.137649 -0.00206522 0)
(0.141885 -0.00214038 0)
(0.146276 -0.00222199 0)
(0.15085 -0.00232632 0)
(0.155634 -0.0024467 0)
(0.160683 -0.00258668 0)
(0.166063 -0.00276628 0)
(0.171804 -0.00296308 0)
(0.177974 -0.00317905 0)
(0.184645 -0.00344877 0)
(0.191854 -0.00371185 0)
(0.199643 -0.00403029 0)
(0.208041 -0.0043391 0)
(0.217078 -0.00462862 0)
(0.226777 -0.00498847 0)
(0.237143 -0.00530704 0)
(0.248156 -0.00556633 0)
(0.259766 -0.00590171 0)
(0.271957 -0.00616226 0)
(0.284664 -0.00633183 0)
(0.297783 -0.0065762 0)
(0.311237 -0.00668237 0)
(0.324924 -0.00681351 0)
(0.33874 -0.00682924 0)
(0.352552 -0.00675525 0)
(0.366207 -0.00666658 0)
(0.379557 -0.00647525 0)
(0.392439 -0.00618535 0)
(0.404689 -0.00585608 0)
(0.416142 -0.00541239 0)
(0.426621 -0.00489311 0)
(0.435962 -0.00431255 0)
(0.444085 -0.00366022 0)
(0.450896 -0.00295344 0)
(0.456362 -0.00225565 0)
(0.460557 -0.00151645 0)
(0.463577 -0.000816151 0)
(0.465403 -0.000142008 0)
(0.465831 0.00054392 0)
(0.464659 0.00132876 0)
(0.461386 0.00224979 0)
(0.455838 0.00327004 0)
(0.447658 0.00430137 0)
(0.436383 0.00560718 0)
(0.421609 0.00699771 0)
(0.403422 0.00871567 0)
(0.383521 0.0100047 0)
(0.362596 0.0109202 0)
(0.340758 0.0112578 0)
(0.319157 0.0112131 0)
(0.298381 0.0107392 0)
(0.279154 0.00999959 0)
(0.261807 0.00898162 0)
(0.246696 0.00795154 0)
(0.233483 0.00710141 0)
(0.221763 0.00633744 0)
(0.211365 0.00574649 0)
(0.20181 0.00530011 0)
(0.192907 0.00493888 0)
(0.184461 0.00465047 0)
(0.176374 0.00436175 0)
(0.16867 0.00411125 0)
(0.161365 0.00383802 0)
(0.154468 0.00358033 0)
(0.147988 0.00332347 0)
(0.141924 0.00309063 0)
(0.136308 0.00290396 0)
(0.131024 0.00273578 0)
(0.125786 0.00260798 0)
(0.120639 0.00251696 0)
(0.11564 0.00244023 0)
(0.110757 0.00233686 0)
(0.106111 0.0022126 0)
(0.101769 0.00208728 0)
(0.0976749 0.00192282 0)
(0.0939389 0.0017655 0)
(0.0905339 0.00160493 0)
(0.0874345 0.00139014 0)
(0.0847926 0.00124964 0)
(0.0824907 0.00107724 0)
(0.080474 0.000892271 0)
(0.0788255 0.00073441 0)
(0.0775414 0.000555786 0)
(0.0766136 0.000368115 0)
(0.0760749 0.000150923 0)
(0.0760008 -4.74063e-05 0)
(0.0763941 -0.00028724 0)
(0.0772342 -0.000546543 0)
(0.0785897 -0.000789504 0)
(0.0804859 -0.00106317 0)
(0.0828921 -0.00133863 0)
(0.0858804 -0.00163985 0)
(0.0895525 -0.00194493 0)
(0.0938584 -0.00231034 0)
(0.0988978 -0.00269467 0)
(0.104732 -0.00305431 0)
(0.111308 -0.0034758 0)
(0.118735 -0.00387138 0)
(0.126967 -0.00429493 0)
(0.136035 -0.00468402 0)
(0.145921 -0.00508356 0)
(0.156552 -0.00551062 0)
(0.168046 -0.00586316 0)
(0.180267 -0.00626268 0)
(0.193212 -0.00662567 0)
(0.206921 -0.00691791 0)
(0.221165 -0.00724209 0)
(0.235975 -0.00748359 0)
(0.251284 -0.00768755 0)
(0.266922 -0.00784293 0)
(0.282793 -0.00789799 0)
(0.298729 -0.00793889 0)
(0.31467 -0.00786698 0)
(0.330427 -0.00769877 0)
(0.345732 -0.00751729 0)
(0.360573 -0.0072077 0)
(0.374777 -0.00678466 0)
(0.388017 -0.00633878 0)
(0.400217 -0.00577514 0)
(0.41128 -0.00513191 0)
(0.420972 -0.00442509 0)
(0.429129 -0.00363973 0)
(0.435661 -0.00278932 0)
(0.440415 -0.001875 0)
(0.44325 -0.000933099 0)
(0.444137 2.89271e-05 0)
(0.44309 0.00106042 0)
(0.439768 0.00211799 0)
(0.434493 0.00309136 0)
(0.427358 0.00404026 0)
(0.418361 0.00491784 0)
(0.407597 0.00570372 0)
(0.395319 0.00641566 0)
(0.381798 0.00700091 0)
(0.367197 0.0074838 0)
(0.351671 0.00786615 0)
(0.335509 0.00811577 0)
(0.318949 0.00830169 0)
(0.302115 0.0083886 0)
(0.28515 0.0083804 0)
(0.268272 0.00834594 0)
(0.251565 0.00822123 0)
(0.235108 0.00802095 0)
(0.219146 0.0077956 0)
(0.203742 0.00749395 0)
(0.188912 0.00710811 0)
(0.174978 0.00669981 0)
(0.161979 0.00626822 0)
(0.149764 0.00576659 0)
(0.138568 0.00528279 0)
(0.128453 0.00482507 0)
(0.119194 0.0043316 0)
(0.110871 0.00386489 0)
(0.10359 0.00343258 0)
(0.0971486 0.00300961 0)
(0.0914833 0.00259538 0)
(0.0866619 0.00220892 0)
(0.082617 0.00182174 0)
(0.0793054 0.00147484 0)
(0.0766948 0.00113568 0)
(0.074757 0.000801805 0)
(0.0734866 0.000461874 0)
(0.0729012 0.000123262 0)
(0.0730094 -0.00020553 0)
(0.0737816 -0.000535201 0)
(0.0751987 -0.000849368 0)
(0.0772344 -0.00111824 0)
(0.0797588 -0.00139631 0)
(0.0828358 -0.00164381 0)
(0.086409 -0.00184443 0)
(0.0903467 -0.00206031 0)
(0.0946769 -0.00223648 0)
(0.0993533 -0.00239899 0)
(0.104336 -0.00254259 0)
(0.109602 -0.00268712 0)
(0.115123 -0.00278826 0)
(0.120829 -0.00289295 0)
(0.126739 -0.00301375 0)
(0.132885 -0.00306757 0)
(0.139153 -0.00320056 0)
(0.145654 -0.0032812 0)
(0.152363 -0.0033735 0)
(0.159241 -0.00350731 0)
(0.16642 -0.00362763 0)
(0.173882 -0.00374654 0)
(0.181621 -0.00395064 0)
(0.189762 -0.0041326 0)
(0.198334 -0.00433448 0)
(0.207329 -0.004575 0)
(0.216792 -0.0048163 0)
(0.226759 -0.00508382 0)
(0.237236 -0.0053245 0)
(0.24822 -0.00556187 0)
(0.259695 -0.00578267 0)
(0.271551 -0.00599965 0)
(0.283824 -0.00619486 0)
(0.296486 -0.00631581 0)
(0.309365 -0.0064457 0)
(0.322409 -0.00650541 0)
(0.335524 -0.00651586 0)
(0.348595 -0.00644913 0)
(0.361443 -0.00629355 0)
(0.373892 -0.0060405 0)
(0.385757 -0.00571561 0)
(0.396829 -0.005298 0)
(0.406969 -0.00476279 0)
(0.415951 -0.00415703 0)
(0.423591 -0.00345092 0)
(0.429731 -0.00264678 0)
(0.434175 -0.00180381 0)
(0.436848 -0.000889721 0)
(0.437647 1.37462e-05 0)
(0.436582 0.000993723 0)
(0.433474 0.00195337 0)
(0.42853 0.00289271 0)
(0.421783 0.0037642 0)
(0.413277 0.00458438 0)
(0.403178 0.00536175 0)
(0.391644 0.00601964 0)
(0.378879 0.00659037 0)
(0.365092 0.00705155 0)
(0.350564 0.00729643 0)
(0.335633 0.00744358 0)
(0.320554 0.0074471 0)
(0.30569 0.00731859 0)
(0.291201 0.00707333 0)
(0.27718 0.00673769 0)
(0.263957 0.00635816 0)
(0.251623 0.00593687 0)
(0.240054 0.00549566 0)
(0.229277 0.00500599 0)
(0.219436 0.00454006 0)
(0.210337 0.00412835 0)
(0.202032 0.00373449 0)
(0.194549 0.00339406 0)
(0.187657 0.00314307 0)
(0.1813 0.00282178 0)
(0.175634 0.00261274 0)
(0.170382 0.00243251 0)
(0.165637 0.00213884 0)
(0.161834 0.00196562 0)
(0.159252 0.00185207 0)
(0.157262 0.00162547 0)
(0.15516 0.00140808 0)
(0.153179 0.00124574 0)
(0.151607 0.00104665 0)
(0.150384 0.000896832 0)
(0.1494 0.000681433 0)
(0.148883 0.000507871 0)
(0.148754 0.000356433 0)
(0.149076 0.0001487 0)
(0.149786 -0.000100083 0)
(0.150851 -0.000319098 0)
(0.152521 -0.00057158 0)
(0.154714 -0.000784951 0)
(0.157231 -0.000973341 0)
(0.160223 -0.0011799 0)
(0.163542 -0.00129567 0)
(0.166995 -0.00143848 0)
(0.170765 -0.00155152 0)
(0.174629 -0.00162316 0)
(0.178518 -0.00170256 0)
(0.182556 -0.00178113 0)
(0.186589 -0.00183415 0)
(0.190698 -0.00194194 0)
(0.194968 -0.00205837 0)
(0.199448 -0.00223337 0)
(0.204256 -0.00242751 0)
(0.209493 -0.0027079 0)
(0.215304 -0.00302216 0)
(0.221776 -0.00341562 0)
(0.229071 -0.00385997 0)
(0.237244 -0.00430936 0)
(0.246365 -0.00485267 0)
(0.256579 -0.00541831 0)
(0.267877 -0.00591691 0)
(0.280281 -0.00652541 0)
(0.29382 -0.00700512 0)
(0.308401 -0.00753581 0)
(0.32394 -0.00795439 0)
(0.340248 -0.00821464 0)
(0.357107 -0.00851837 0)
(0.374356 -0.00862977 0)
(0.391745 -0.00855792 0)
(0.408992 -0.00848761 0)
(0.42582 -0.00816479 0)
(0.441942 -0.00778926 0)
(0.45705 -0.00718606 0)
(0.470834 -0.00643183 0)
(0.483018 -0.00560331 0)
(0.493347 -0.00462732 0)
(0.50163 -0.00356261 0)
(0.5077 -0.00243162 0)
(0.511451 -0.0012328 0)
(0.512804 -2.66524e-05 0)
(0.511928 0.00111635 0)
(0.508554 0.00228576 0)
(0.502951 0.00328833 0)
(0.495276 0.00426662 0)
(0.485709 0.00520295 0)
(0.474432 0.00592951 0)
(0.461702 0.0066305 0)
(0.447732 0.00725023 0)
(0.432741 0.00760923 0)
(0.416989 0.00798214 0)
(0.400702 0.00810746 0)
(0.384115 0.00825203 0)
(0.367421 0.00831267 0)
(0.350803 0.00815199 0)
(0.334443 0.00802773 0)
(0.31848 0.00783881 0)
(0.303037 0.00749505 0)
(0.288213 0.00719937 0)
(0.274083 0.00679813 0)
(0.260693 0.00644902 0)
(0.248066 0.00608828 0)
(0.236207 0.00568094 0)
(0.225105 0.00532637 0)
(0.214732 0.00498331 0)
(0.205058 0.00462842 0)
(0.196043 0.0043198 0)
(0.187651 0.00400731 0)
(0.179843 0.00373267 0)
(0.172589 0.00347111 0)
(0.16586 0.00320533 0)
(0.159642 0.00296165 0)
(0.153322 0.00272256 0)
(0.23515 0.0108804 0)
(0.221596 0.0101954 0)
(0.207333 0.00955536 0)
(0.194057 0.00887677 0)
(0.181819 0.00812118 0)
(0.170613 0.00742793 0)
(0.160429 0.00670454 0)
(0.151235 0.00604454 0)
(0.142994 0.00540687 0)
(0.135666 0.00477491 0)
(0.129209 0.00418977 0)
(0.123587 0.00362542 0)
(0.11877 0.00306915 0)
(0.114732 0.00253693 0)
(0.111457 0.00200949 0)
(0.108929 0.0014974 0)
(0.107134 0.000994693 0)
(0.106055 0.000503006 0)
(0.105664 3.56797e-05 0)
(0.105933 -0.000406043 0)
(0.106839 -0.000822213 0)
(0.108312 -0.00120273 0)
(0.110299 -0.00154056 0)
(0.112741 -0.00183012 0)
(0.11557 -0.00207853 0)
(0.118724 -0.00228113 0)
(0.122141 -0.0024493 0)
(0.125774 -0.00258496 0)
(0.129584 -0.00269762 0)
(0.13354 -0.00279762 0)
(0.137632 -0.002891 0)
(0.141866 -0.00299578 0)
(0.146255 -0.00310977 0)
(0.150824 -0.00325551 0)
(0.155603 -0.00342378 0)
(0.160646 -0.00361947 0)
(0.166019 -0.00387106 0)
(0.171754 -0.00414759 0)
(0.177917 -0.00444922 0)
(0.184582 -0.0048269 0)
(0.191787 -0.00519547 0)
(0.199572 -0.00564172 0)
(0.207966 -0.0060755 0)
(0.217002 -0.00647996 0)
(0.226702 -0.00698421 0)
(0.23707 -0.00743138 0)
(0.248086 -0.00779405 0)
(0.259701 -0.00826391 0)
(0.2719 -0.00862997 0)
(0.284615 -0.00886706 0)
(0.297746 -0.00920933 0)
(0.311211 -0.00935914 0)
(0.324914 -0.00954292 0)
(0.338744 -0.00956557 0)
(0.352571 -0.00946519 0)
(0.366247 -0.00933779 0)
(0.379613 -0.00907234 0)
(0.392514 -0.00867077 0)
(0.404785 -0.00820314 0)
(0.416255 -0.00758787 0)
(0.426751 -0.0068603 0)
(0.436106 -0.00604464 0)
(0.444242 -0.00513067 0)
(0.451062 -0.00414107 0)
(0.456528 -0.00315436 0)
(0.460719 -0.00211624 0)
(0.463731 -0.00113249 0)
(0.465566 -0.000181126 0)
(0.466007 0.000763896 0)
(0.464839 0.00185536 0)
(0.461598 0.00314531 0)
(0.456065 0.00457928 0)
(0.447916 0.00603194 0)
(0.436688 0.00785144 0)
(0.421985 0.00976155 0)
(0.403827 0.0121797 0)
(0.383883 0.0139986 0)
(0.362944 0.0152816 0)
(0.34111 0.0157572 0)
(0.319521 0.0156948 0)
(0.298761 0.0150213 0)
(0.279552 0.0139893 0)
(0.26222 0.0125694 0)
(0.247137 0.0111277 0)
(0.233955 0.0099403 0)
(0.222268 0.00886149 0)
(0.211914 0.00803494 0)
(0.202402 0.00741228 0)
(0.193532 0.00690648 0)
(0.18511 0.00650838 0)
(0.177018 0.00611088 0)
(0.169301 0.00575382 0)
(0.161994 0.00537158 0)
(0.155106 0.00501614 0)
(0.148633 0.0046507 0)
(0.142577 0.004321 0)
(0.136952 0.004047 0)
(0.131673 0.0038292 0)
(0.126448 0.00365786 0)
(0.1213 0.00352754 0)
(0.116315 0.00341896 0)
(0.111443 0.0032653 0)
(0.10679 0.00309464 0)
(0.102442 0.00291669 0)
(0.0983303 0.00269243 0)
(0.0945828 0.0024672 0)
(0.0911818 0.00225539 0)
(0.0880891 0.00194326 0)
(0.0854549 0.00173734 0)
(0.0831524 0.00150897 0)
(0.0811298 0.00124106 0)