/*--------------------------------*- C++ -*----------------------------------*\
| =========                 |                                                 |
| \\      /  F ield         | OpenFOAM: The Open Source CFD Toolbox           |
|  \\    /   O peration     | Version:  3.0.1                                 |
|   \\  /    A nd           | Web:      www.OpenFOAM.org                      |
|    \\/     M anipulation  |                                                 |
\*---------------------------------------------------------------------------*/
FoamFile
{
    version     2.0;
    format      ascii;
    class       volScalarField;
    location    "75.4";
    object      p_rgh;
}
// * * * * * * * * * * * * * * * * * * * * * * * * * * * * * * * * * * * * * //

dimensions      [1 -1 -2 0 0 0 0];

internalField   nonuniform List<scalar> 
21420
(
-257.892
-240.77
-221.739
-200.819
-178.035
-153.401
-126.956
-98.7996
-69.0291
-37.7685
-5.2294
28.282
62.7226
97.7047
132.853
167.737
201.914
234.974
266.456
295.916
322.98
347.262
368.4
386.104
400.116
410.226
416.294
418.143
415.822
409.367
398.895
384.58
366.644
345.372
321.073
294.09
264.838
233.705
201.103
167.455
133.134
98.4985
63.9788
32.3504
-0.569612
-32.6377
-63.5421
-93.0896
-121.125
-147.526
-172.22
-195.152
-216.295
-235.638
-253.183
-268.95
-282.963
-295.244
-305.826
-314.74
-322.014
-327.669
-331.721
-334.151
-334.967
-334.224
-331.883
-327.935
-322.37
-315.174
-306.308
-295.766
-283.546
-269.63
-254.027
-236.748
-217.807
-197.233
-175.05
-151.315
-126.099
-99.4838
-71.5497
-42.3987
-12.1405
19.1263
51.2947
83.7723
116.444
149.038
181.249
212.745
243.169
272.153
299.325
324.326
346.804
366.436
382.926
396.014
405.483
411.164
412.857
410.66
404.461
394.295
380.291
362.617
341.494
317.21
290.106
260.565
229.007
195.883
161.654
126.779
91.7076
56.8635
22.6376
-10.6295
-42.6419
-73.1562
-101.981
-128.974
-154.041
-177.122
-198.194
-217.264
-234.355
-249.511
-262.791
-274.266
-284.007
-292.097
-298.619
-303.645
-307.27
-309.542
-310.495
-310.224
-308.751
-306.087
-302.248
-297.224
-290.999
-283.547
-274.826
-264.789
-253.383
-240.557
-226.256
-210.422
-193.013
-173.997
-153.355
-131.087
-107.217
-81.8023
-54.9232
-26.6926
2.7413
33.1998
64.5281
96.3471
128.436
160.487
192.163
223.101
252.922
281.234
307.64
331.754
353.201
371.631
386.729
398.225
405.907
409.587
409.226
404.783
396.354
384.016
367.992
348.542
325.982
300.673
273.01
243.41
212.304
180.125
147.296
114.226
81.2968
48.8621
17.2345
-13.3132
-42.5531
-70.3042
-96.4297
-120.837
-143.473
-164.314
-183.368
-200.665
-216.25
-230.172
-242.499
-253.293
-262.618
-270.54
-277.123
-282.42
-286.481
-289.356
-291.06
-291.596
-290.984
-289.241
-286.344
-282.286
-277.059
-270.65
-263.047
-254.239
-244.204
-232.916
-220.34
-206.44
-191.168
-174.482
-156.347
-136.74
-115.657
-93.1189
-69.1663
-43.8654
-17.3131
10.3673
39.0232
68.4737
98.5008
128.831
159.197
189.291
218.782
247.32
274.538
300.069
323.55
344.629
362.979
378.305
390.35
398.902
403.799
404.89
402.197
395.728
385.52
371.745
354.615
334.406
311.442
286.09
258.741
229.802
199.68
168.781
137.5
106.225
75.2909
44.9492
15.4794
-12.8931
-39.9868
-65.657
-89.7914
-112.308
-133.15
-152.294
-169.753
-185.561
-199.787
-212.5
-223.794
-233.737
-242.383
-249.784
-255.979
-261.018
-264.968
-267.863
-269.679
-270.546
-270.497
-269.582
-267.802
-265.171
-261.677
-257.283
-251.944
-245.577
-238.083
-229.371
-219.328
-207.828
-194.761
-180.018
-163.511
-145.179
-124.97
-102.891
-78.9907
-53.3413
-26.0785
2.59772
32.1309
62.7387
93.9585
125.491
156.929
187.882
217.998
246.862
274.103
299.353
322.27
342.575
360.006
374.347
385.441
393.172
397.472
398.192
395.461
389.381
380.046
367.643
352.403
334.55
314.342
292.07
268.003
242.42
215.593
187.793
159.296
130.345
101.193
72.1012
43.5098
19.6639
-7.47188
-33.8871
-59.2819
-83.5608
-106.61
-257.969
-240.849
-221.821
-200.902
-178.12
-153.485
-127.04
-98.8812
-69.1072
-37.8416
-5.29599
28.2241
62.675
97.6704
132.834
167.736
201.932
235.011
266.512
295.991
323.073
347.372
368.526
386.243
400.265
410.383
416.455
418.314
415.978
409.52
399.04
384.714
366.764
345.476
321.159
294.158
264.888
233.737
201.118
167.453
133.118
98.4707
63.941
32.2904
-0.634656
-32.7082
-63.6171
-93.1679
-121.205
-147.607
-172.301
-195.233
-216.374
-235.716
-253.259
-269.024
-283.034
-295.314
-305.894
-314.807
-322.079
-327.734
-331.785
-334.213
-335.033
-334.289
-331.949
-328.002
-322.438
-315.243
-306.378
-295.838
-283.619
-269.705
-254.103
-236.825
-217.884
-197.31
-175.127
-151.391
-126.174
-99.5574
-71.6213
-42.4671
-12.2052
19.066
51.2438
83.7303
116.411
149.017
181.241
212.752
243.192
272.193
299.382
324.399
346.893
366.54
383.043
396.142
405.619
411.305
413.01
410.801
404.601
394.429
380.417
362.73
341.592
317.292
290.169
260.608
229.031
195.887
161.639
126.747
91.6593
56.8013
22.5636
-10.713
-42.7328
-73.2523
-102.08
-129.075
-154.142
-177.222
-198.293
-217.36
-234.449
-249.6
-262.877
-274.348
-284.086
-292.172
-298.691
-303.714
-307.336
-309.606
-310.555
-310.284
-308.81
-306.146
-302.307
-297.285
-291.061
-283.611
-274.892
-264.858
-253.455
-240.632
-226.333
-210.503
-193.096
-174.082
-153.441
-131.173
-107.303
-81.8865
-55.0045
-26.7697
2.66955
33.1351
64.4726
96.3014
128.402
160.466
192.157
223.111
252.949
281.278
307.702
331.833
353.297
371.742
386.853
398.361
406.05
409.74
409.371
404.926
396.491
384.143
368.106
348.641
326.064
300.737
273.055
243.436
212.312
180.115
147.271
114.186
81.2438
48.7982
17.1614
-13.3934
-42.6385
-70.393
-96.5203
-120.928
-143.563
-164.402
-183.454
-200.748
-216.329
-230.249
-242.573
-253.363
-262.685
-270.604
-277.184
-282.479
-286.54
-289.413
-291.116
-291.65
-291.04
-289.297
-286.4
-282.343
-277.117
-270.708
-263.107
-254.3
-244.267
-232.98
-220.406
-206.509
-191.24
-174.555
-156.422
-136.817
-115.734
-93.1959
-69.2418
-43.9387
-17.383
10.302
38.9638
68.4219
98.4579
128.799
159.176
189.284
218.79
247.343
274.577
300.125
323.622
344.716
363.081
378.419
390.474
399.034
403.941
405.027
402.333
395.861
385.646
371.86
354.717
334.493
311.512
286.142
258.776
229.82
199.682
168.768
137.473
106.186
75.2416
44.8914
15.4151
-12.9622
-40.0591
-65.7313
-89.8666
-112.383
-133.224
-152.366
-169.823
-185.628
-199.85
-212.56
-223.85
-233.791
-242.434
-249.832
-256.025
-261.062
-265.01
-267.902
-269.717
-270.582
-270.533
-269.617
-267.837
-265.206
-261.713
-257.322
-251.986
-245.622
-238.133
-229.425
-219.388
-207.892
-194.831
-180.092
-163.589
-145.26
-125.053
-102.973
-79.0716
-53.4193
-26.152
2.53003
32.0772
62.6939
93.9251
125.471
156.924
187.894
218.026
246.906
274.163
299.43
322.36
342.679
360.121
374.471
385.57
393.304
397.604
398.333
395.593
389.506
380.162
367.749
352.497
334.632
314.411
292.127
268.047
242.452
215.613
187.802
159.295
130.336
101.176
72.078
43.4843
19.611
-7.52684
-33.9454
-59.3435
-83.6253
-106.678
-258.121
-241.007
-221.984
-201.069
-178.289
-153.655
-127.207
-99.0445
-69.2632
-37.9878
-5.429
28.1082
62.5797
97.6021
132.797
167.734
201.967
235.084
266.624
296.14
323.259
347.593
368.777
386.521
400.565
410.698
416.777
418.654
416.291
409.828
399.331
384.982
367.004
345.684
321.333
294.295
264.989
233.802
201.147
167.45
133.086
98.4152
63.8651
32.1708
-0.764615
-32.8491
-63.767
-93.3243
-121.366
-147.77
-172.463
-195.394
-216.533
-235.871
-253.41
-269.171
-283.177
-295.453
-306.03
-314.939
-322.209
-327.861
-331.91
-334.335
-335.16
-334.415
-332.076
-328.13
-322.569
-315.377
-306.514
-295.976
-283.759
-269.847
-254.246
-236.97
-218.029
-197.455
-175.27
-151.532
-126.313
-99.6926
-71.7517
-42.5902
-12.3201
18.9606
51.1584
83.6636
116.365
148.994
181.246
212.787
243.259
272.293
299.516
324.566
347.093
366.769
383.298
396.419
405.912
411.608
413.332
411.103
404.902
394.718
380.687
362.975
341.808
317.474
290.314
260.714
229.097
195.915
161.629
126.702
91.5826
56.697
22.4359
-10.8594
-42.8936
-73.4232
-102.257
-129.255
-154.322
-177.4
-198.467
-217.529
-234.612
-249.757
-263.026
-274.489
-284.22
-292.299
-298.81
-303.828
-307.444
-309.706
-310.654
-310.381
-308.905
-306.241
-302.402
-297.381
-291.161
-283.714
-275
-264.971
-253.573
-240.756
-226.463
-210.638
-193.236
-174.226
-153.588
-131.32
-107.449
-82.0294
-55.1414
-26.8984
2.55174
33.0312
64.3869
96.2354
128.359
160.45
192.17
223.156
253.027
281.391
307.851
332.017
353.514
371.989
387.126
398.655
406.359
410.068
409.681
405.234
396.787
384.419
368.356
348.86
326.248
300.884
273.164
243.507
212.347
180.116
147.239
114.125
81.157
48.6893
17.0345
-13.5345
-42.7899
-70.5511
-96.6818
-121.09
-143.723
-164.559
-183.605
-200.894
-216.468
-230.382
-242.699
-253.483
-262.799
-270.712
-277.287
-282.578
-286.635
-289.506
-291.207
-291.738
-291.132
-289.388
-286.492
-282.437
-277.211
-270.804
-263.205
-254.401
-244.37
-233.087
-220.518
-206.626
-191.361
-174.681
-156.552
-136.949
-115.867
-93.328
-69.3709
-44.0633
-17.5008
10.1937
38.8672
68.3404
98.3944
128.756
159.158
189.292
218.827
247.411
274.678
300.258
323.787
344.912
363.304
378.667
390.743
399.318
404.236
405.327
402.626
396.146
385.916
372.109
354.939
334.683
311.669
286.264
258.862
229.87
199.699
168.754
137.43
106.119
75.1535
44.7858
15.2956
-13.092
-40.1962
-65.8729
-90.0106
-112.528
-133.367
-152.505
-169.957
-185.756
-199.972
-212.675
-223.96
-233.895
-242.533
-249.927
-256.116
-261.149
-265.092
-267.977
-269.791
-270.653
-270.602
-269.685
-267.905
-265.275
-261.786
-257.398
-252.069
-245.712
-238.231
-229.533
-219.506
-208.02
-194.969
-180.239
-163.744
-145.42
-125.216
-103.137
-79.2328
-53.5746
-26.2982
2.39539
31.97
62.6048
93.8587
125.432
156.915
187.917
218.082
246.996
274.285
299.583
322.542
342.886
360.351
374.718
385.83
393.57
397.869
398.613
395.855
389.755
380.394
367.961
352.686
334.796
314.551
292.241
268.136
242.517
215.654
187.821
159.294
130.317
101.141
72.0315
43.4325
19.5059
-7.63659
-34.0619
-59.4665
-83.7543
-106.812
-258.351
-241.245
-222.229
-201.319
-178.542
-153.909
-127.459
-99.2897
-69.4975
-38.2073
-5.62902
27.934
62.4368
97.4993
132.742
167.731
202.02
235.194
266.792
296.365
323.538
347.923
369.154
386.938
401.014
411.17
417.261
419.158
416.766
410.291
399.768
385.384
367.364
345.996
321.593
294.501
265.139
233.898
201.191
167.446
133.039
98.3314
63.7508
31.9919
-0.959598
-33.0606
-63.992
-93.559
-121.606
-148.014
-172.707
-195.636
-216.771
-236.104
-253.638
-269.392
-283.392
-295.661
-306.233
-315.137
-322.403
-328.052
-332.098
-334.519
-335.351
-334.605
-332.267
-328.324
-322.766
-315.577
-306.718
-296.183
-283.97
-270.061
-254.463
-237.188
-218.248
-197.672
-175.486
-151.744
-126.521
-99.8953
-71.9467
-42.7742
-12.4918
18.8031
51.0314
83.5649
116.296
148.961
181.253
212.84
243.361
272.445
299.72
324.82
347.395
367.115
383.683
396.837
406.356
412.066
413.813
411.567
405.357
395.156
381.097
363.347
342.136
317.751
290.536
260.877
229.201
195.959
161.617
126.637
91.4704
56.5433
22.2472
-11.0763
-43.1321
-73.6768
-102.52
-129.522
-154.59
-177.665
-198.726
-217.78
-234.853
-249.989
-263.247
-274.698
-284.418
-292.486
-298.986
-303.996
-307.603
-309.854
-310.8
-310.523
-309.044
-306.38
-302.542
-297.524
-291.307
-283.867
-275.159
-265.137
-253.748
-240.94
-226.655
-210.838
-193.444
-174.439
-153.805
-131.538
-107.666
-82.2409
-55.3439
-27.0885
2.37811
32.878
64.2615
96.1394
128.298
160.429
192.193
223.226
253.148
281.564
308.077
332.295
353.842
372.363
387.539
399.099
406.826
410.556
410.157
405.704
397.234
384.836
368.733
349.19
326.527
301.107
273.331
243.618
212.402
180.119
147.194
114.036
81.0296
48.5287
16.8467
-13.7437
-43.0146
-70.7858
-96.9216
-121.331
-143.96
-164.791
-183.83
-201.11
-216.675
-230.579
-242.886
-253.66
-262.967
-270.872
-277.439
-282.723
-286.776
-289.643
-291.34
-291.87
-291.267
-289.523
-286.629
-282.575
-277.351
-270.946
-263.35
-254.55
-244.524
-233.246
-220.684
-206.798
-191.541
-174.868
-156.744
-137.144
-116.064
-93.5236
-69.5623
-44.2478
-17.675
10.0337
38.7249
68.2206
98.3018
128.695
159.133
189.307
218.886
247.517
274.832
300.461
324.038
345.209
363.644
379.043
391.149
399.747
404.677
405.783
403.071
396.576
386.324
372.484
355.274
334.972
311.907
286.449
258.993
229.948
199.727
168.734
137.368
106.02
75.0221
44.6278
15.1167
-13.2864
-40.4016
-66.0854
-90.2267
-112.745
-133.581
-152.714
-170.159
-185.949
-200.155
-212.848
-224.125
-234.052
-242.682
-250.07
-256.252
-261.279
-265.215
-268.09
-269.902
-270.76
-270.707
-269.788
-268.008
-265.38
-261.894
-257.513
-252.192
-245.846
-238.378
-229.694
-219.683
-208.213
-195.176
-180.46
-163.976
-145.662
-125.461
-103.383
-79.475
-53.8077
-26.5178
2.19318
31.809
62.4707
93.7589
125.374
156.902
187.951
218.165
247.129
274.468
299.812
322.815
343.198
360.696
375.089
386.221
393.97
398.27
399.029
396.249
390.129
380.742
368.278
352.969
335.043
314.76
292.411
268.268
242.613
215.715
187.85
159.293
130.288
101.089
71.9613
43.3538
19.3489
-7.80104
-34.2366
-59.6512
-83.9478
-107.014
-258.657
-241.562
-222.555
-201.652
-178.88
-154.248
-127.795
-99.6168
-69.8102
-38.5003
-5.89672
27.7011
62.2459
97.3619
132.667
167.727
202.089
235.341
267.016
296.664
323.909
348.364
369.657
387.495
401.614
411.8
417.906
419.819
417.409
410.91
400.35
385.921
367.845
346.413
321.94
294.776
265.34
234.026
201.249
167.439
132.974
98.2183
63.5978
31.754
-1.21969
-33.3428
-64.2922
-93.8722
-121.928
-148.339
-173.033
-195.958
-217.088
-236.414
-253.94
-269.687
-283.678
-295.94
-306.504
-315.402
-322.662
-328.306
-332.347
-334.767
-335.605
-334.858
-332.521
-328.582
-323.028
-315.844
-306.99
-296.46
-284.251
-270.346
-254.751
-237.479
-218.539
-197.962
-175.773
-152.028
-126.8
-100.166
-72.2067
-43.0199
-12.7211
18.5924
50.8622
83.4329
116.204
148.916
181.264
212.911
243.497
272.649
299.992
325.16
347.799
367.578
384.199
397.396
406.948
412.679
414.448
412.192
405.967
395.741
381.644
363.845
342.574
318.121
290.831
261.095
229.339
196.019
161.602
126.551
91.321
56.3385
21.9957
-11.3655
-43.4499
-74.0147
-102.871
-129.879
-154.946
-178.017
-199.071
-218.114
-235.175
-250.297
-263.541
-274.977
-284.681
-292.735
-299.221
-304.219
-307.814
-310.051
-310.995
-310.712
-309.229
-306.564
-302.728
-297.713
-291.503
-284.07
-275.371
-265.359
-253.982
-241.185
-226.911
-211.104
-193.721
-174.723
-154.094
-131.828
-107.954
-82.5228
-55.6138
-27.3419
2.14693
32.6732
64.095
96.0117
128.217
160.401
192.223
223.321
253.31
281.796
308.38
332.668
354.281
372.862
388.091
399.694
407.449
411.196
410.801
406.334
397.832
385.394
369.238
349.632
326.899
301.406
273.554
243.765
212.477
180.124
147.134
113.918
80.8597
48.3146
16.5962
-14.0226
-43.3142
-71.0988
-97.2412
-121.651
-144.277
-165.1
-184.129
-201.397
-216.95
-230.841
-243.135
-253.896
-263.191
-271.085
-277.641
-282.917
-286.964
-289.825
-291.517
-292.049
-291.446
-289.703
-286.81
-282.759
-277.537
-271.136
-263.544
-254.748
-244.728
-233.458
-220.905
-207.029
-191.781
-175.117
-157
-137.404
-116.327
-93.7844
-69.8176
-44.4939
-17.9072
9.82023
38.5352
68.0605
98.1785
128.614
159.099
189.327
218.965
247.657
275.038
300.733
324.374
345.606
364.097
379.545
391.692
400.32
405.266
406.389
403.668
397.152
386.869
372.987
355.722
335.357
312.224
286.695
259.167
230.052
199.763
168.708
137.285
105.888
74.8463
44.4168
14.8778
-13.5461
-40.6759
-66.3689
-90.5151
-113.034
-133.867
-152.993
-170.428
-186.206
-200.399
-213.08
-224.344
-234.26
-242.881
-250.259
-256.434
-261.452
-265.377
-268.244
-270.05
-270.903
-270.846
-269.925
-268.144
-265.518
-262.038
-257.667
-252.357
-246.025
-238.574
-229.91
-219.919
-208.469
-195.453
-180.754
-164.287
-145.983
-125.789
-103.711
-79.7982
-54.1189
-26.8107
1.92305
31.5938
62.2914
93.6253
125.295
156.884
187.997
218.277
247.307
274.712
300.119
323.179
343.614
361.157
375.585
386.742
394.505
398.807
399.576
396.778
390.628
381.206
368.702
353.347
335.373
315.038
292.639
268.445
242.741
215.797
187.887
159.29
130.249
101.02
71.8672
43.2473
19.1406
-8.02005
-34.4695
-59.8974
-84.2058
-107.284
-259.039
-241.958
-222.964
-202.069
-179.303
-154.672
-128.214
-100.026
-70.2016
-38.8673
-6.23262
27.4089
62.0068
97.1893
132.573
167.721
202.176
235.524
267.296
297.038
324.374
348.915
370.287
388.191
402.364
412.589
418.714
420.637
418.218
411.684
401.08
386.592
368.446
346.934
322.374
295.118
265.591
234.186
201.321
167.429
132.892
98.0747
63.4057
31.4578
-1.54499
-33.696
-64.668
-94.2641
-122.33
-148.746
-173.44
-196.361
-217.485
-236.803
-254.319
-270.055
-284.036
-296.288
-306.843
-315.732
-322.986
-328.623
-332.658
-335.079
-335.921
-335.173
-332.839
-328.904
-323.357
-316.178
-307.33
-296.806
-284.603
-270.703
-255.112
-237.842
-218.903
-198.324
-176.132
-152.382
-127.148
-100.505
-72.532
-43.3276
-13.0087
18.3278
50.6504
83.2671
116.088
148.86
181.276
213
243.667
272.903
300.333
325.585
348.304
368.158
384.844
398.096
407.689
413.447
415.234
412.98
406.732
396.474
382.329
364.468
343.122
318.584
291.202
261.367
229.512
196.094
161.582
126.443
91.1335
56.0816
21.6804
-11.728
-43.8481
-74.438
-103.309
-130.325
-155.392
-178.458
-199.502
-218.532
-235.578
-250.683
-263.908
-275.325
-285.011
-293.047
-299.514
-304.497
-308.076
-310.3
-311.238
-310.948
-309.46
-306.795
-302.96
-297.95
-291.747
-284.323
-275.636
-265.636
-254.273
-241.491
-227.23
-211.438
-194.067
-175.079
-154.455
-132.192
-108.316
-82.8756
-55.9521
-27.6592
1.85745
32.4156
63.8866
95.8513
128.115
160.365
192.261
223.438
253.512
282.085
308.758
333.133
354.829
373.487
388.782
400.437
408.229
411.992
411.609
407.124
398.582
386.092
369.869
350.185
327.365
301.78
273.832
243.95
212.569
180.129
147.059
113.769
80.6465
48.0462
16.2823
-14.3722
-43.6896
-71.4909
-97.6414
-122.053
-144.674
-165.487
-184.504
-201.758
-217.294
-231.169
-243.447
-254.192
-263.471
-271.351
-277.894
-283.16
-287.198
-290.051
-291.739
-292.273
-291.67
-289.928
-287.038
-282.989
-277.77
-271.373
-263.786
-254.997
-244.984
-233.723
-221.181
-207.317
-192.081
-175.429
-157.32
-137.731
-116.655
-94.1108
-70.1374
-44.8021
-18.1981
9.55259
38.2975
67.8595
98.0239
128.512
159.057
189.352
219.063
247.833
275.295
301.072
324.794
346.103
364.664
380.174
392.371
401.038
406.005
407.143
404.417
397.874
387.552
373.615
356.283
335.839
312.621
287.003
259.385
230.182
199.808
168.675
137.18
105.722
74.6257
44.1521
14.5785
-13.8713
-41.0193
-66.7239
-90.8761
-113.396
-134.224
-153.343
-170.764
-186.528
-200.705
-213.37
-224.619
-234.521
-243.129
-250.497
-256.66
-261.668
-265.58
-268.436
-270.235
-271.081
-271.02
-270.095
-268.314
-265.691
-262.218
-257.858
-252.562
-246.248
-238.819
-230.179
-220.214
-208.79
-195.798
-181.123
-164.675
-146.386
-126.199
-104.122
-80.2029
-54.5084
-27.1772
1.58482
31.3238
62.0662
93.4576
125.196
156.86
188.053
218.416
247.53
275.017
300.502
323.634
344.134
361.732
376.205
387.393
395.175
399.481
400.254
397.441
391.252
381.787
369.231
353.819
335.784
315.387
292.923
268.666
242.901
215.898
187.934
159.287
130.201
100.932
71.7486
43.1121
18.8816
-8.29345
-34.7607
-60.2053
-84.5285
-107.621
-259.499
-242.433
-223.454
-202.57
-179.811
-155.182
-128.719
-100.518
-70.672
-39.3086
-6.63713
27.0569
61.7188
96.981
132.46
167.713
202.28
235.743
267.631
297.486
324.932
349.577
371.042
389.028
403.265
413.536
419.686
421.615
419.191
412.614
401.956
387.398
369.167
347.559
322.894
295.53
265.891
234.378
201.407
167.417
132.793
97.9
63.1733
31.1037
-1.93566
-34.1204
-65.1197
-94.7349
-122.812
-149.235
-173.929
-196.846
-217.961
-237.269
-254.773
-270.497
-284.466
-296.705
-307.249
-316.129
-323.374
-329.005
-333.032
-335.455
-336.299
-335.552
-333.221
-329.291
-323.75
-316.579
-307.738
-297.222
-285.025
-271.132
-255.545
-238.279
-219.341
-198.76
-176.564
-152.808
-127.566
-100.911
-72.9225
-43.6975
-13.3548
18.0088
50.3962
83.0672
115.948
148.791
181.29
213.104
243.87
273.208
300.741
326.094
348.91
368.853
385.618
398.936
408.58
414.372
416.177
413.927
407.652
397.355
383.152
365.216
343.78
319.14
291.646
261.694
229.719
196.182
161.556
126.312
90.9071
55.772
21.3005
-12.1644
-44.3272
-74.9474
-103.837
-130.861
-155.929
-178.988
-200.021
-219.035
-236.062
-251.146
-264.35
-275.744
-285.406
-293.42
-299.867
-304.831
-308.391
-310.601
-311.529
-311.231
-309.738
-307.071
-303.239
-298.235
-292.04
-284.627
-275.953
-265.97
-254.624
-241.858
-227.615
-211.839
-194.483
-175.507
-154.89
-132.629
-108.75
-83.2999
-56.3593
-28.0413
1.50931
32.1053
63.6355
95.6576
127.992
160.322
192.306
223.578
253.753
282.432
309.211
333.692
355.488
374.238
389.612
401.331
409.167
412.952
412.577
408.071
399.484
386.931
370.627
350.849
327.925
302.228
274.166
244.17
212.679
180.135
146.967
113.589
80.3894
47.7228
15.9043
-14.793
-44.1413
-71.9625
-98.1229
-122.535
-145.151
-165.953
-184.955
-202.19
-217.707
-231.563
-243.822
-254.547
-263.808
-271.671
-278.198
-283.451
-287.479
-290.324
-292.007
-292.541
-291.938
-290.199
-287.311
-283.265
-278.05
-271.657
-264.077
-255.295
-245.291
-234.041
-221.513
-207.663
-192.442
-175.804
-157.705
-138.123
-117.05
-94.5033
-70.5222
-45.1729
-18.5481
9.23025
38.0112
67.6169
97.8377
128.389
159.005
189.381
219.179
248.044
275.603
301.479
325.299
346.7
365.345
380.929
393.187
401.899
406.894
408.047
405.316
398.741
388.372
374.37
356.956
336.417
313.097
287.372
259.646
230.336
199.862
168.634
137.053
105.522
74.3598
43.8336
14.2183
-14.2625
-41.4323
-67.1505
-91.31
-113.831
-134.653
-153.762
-171.168
-186.914
-201.072
-213.718
-224.948
-234.834
-243.427
-250.781
-256.932
-261.926
-265.824
-268.668
-270.457
-271.295
-271.228
-270.299
-268.518
-265.898
-262.433
-258.087
-252.808
-246.516
-239.113
-230.502
-220.568
-209.175
-196.213
-181.566
-165.142
-146.869
-126.691
-104.616
-80.6893
-54.9767
-27.6175
1.17862
30.9982
61.7944
93.2553
125.076
156.832
188.121
218.583
247.797
275.382
300.962
324.181
344.758
362.424
376.95
388.176
395.981
400.292
401.065
398.236
392.001
382.484
369.867
354.386
336.278
315.805
293.263
268.93
243.092
216.02
187.99
159.282
130.141
100.826
71.605
42.9469
18.5726
-8.62105
-35.1101
-60.5749
-84.9159
-108.025
-260.034
-242.988
-224.026
-203.155
-180.405
-155.777
-129.308
-101.093
-71.2217
-39.8247
-7.11074
26.6448
61.3812
96.7362
132.326
167.702
202.4
235.999
268.022
298.01
325.583
350.349
371.925
390.004
404.318
414.643
420.823
422.758
420.324
413.7
402.979
388.339
370.009
348.289
323.502
296.009
266.24
234.6
201.506
167.401
132.675
97.6934
62.8989
30.6921
-2.39191
-34.6164
-65.6475
-95.2852
-123.377
-149.805
-174.5
-197.411
-218.517
-237.813
-255.304
-271.013
-284.967
-297.192
-307.723
-316.591
-323.827
-329.449
-333.47
-335.893
-336.738
-335.993
-333.666
-329.743
-324.21
-317.046
-308.214
-297.706
-285.518
-271.632
-256.051
-238.789
-219.851
-199.268
-177.067
-153.306
-128.055
-101.386
-73.3783
-44.1299
-13.7601
17.6343
50.0998
82.8326
115.782
148.71
181.306
213.226
244.105
273.563
301.216
326.688
349.618
369.665
386.523
399.918
409.62
415.452
417.278
415.03
408.727
398.383
384.113
366.089
344.549
319.789
292.164
262.074
229.959
196.284
161.526
126.158
90.641
55.4088
20.8553
-12.6753
-44.8882
-75.5433
-104.454
-131.488
-156.556
-179.607
-200.626
-219.622
-236.627
-251.688
-264.865
-276.232
-285.868
-293.857
-300.279
-305.22
-308.759
-310.952
-311.868
-311.56
-310.062
-307.394
-303.565
-298.566
-292.382
-284.982
-276.324
-266.359
-255.033
-242.287
-228.064
-212.308
-194.968
-176.006
-155.398
-133.141
-109.258
-83.7961
-56.8357
-28.4882
1.10189
31.7448
63.3381
95.4298
127.847
160.269
192.356
223.74
254.034
282.836
309.74
334.344
356.257
375.114
390.581
402.374
410.262
414.075
413.708
409.177
400.537
387.91
371.513
351.624
328.577
302.75
274.555
244.426
212.807
180.14
146.858
113.378
80.0877
47.3437
15.4615
-15.2856
-44.6702
-72.5142
-98.6862
-123.1
-145.708
-166.497
-185.481
-202.695
-218.19
-232.023
-244.259
-254.962
-264.201
-272.044
-278.553
-283.79
-287.807
-290.642
-292.32
-292.853
-292.252
-290.514
-287.63
-283.587
-278.377
-271.99
-264.417
-255.643
-245.649
-234.413
-221.9
-208.067
-192.864
-176.241
-158.155
-138.582
-117.512
-94.9623
-70.9722
-45.6065
-18.9577
8.85291
37.6758
67.3321
97.6192
128.243
158.943
189.413
219.314
248.288
275.962
301.954
325.887
347.396
366.14
381.81
394.14
402.906
407.935
409.103
406.366
399.755
389.331
375.251
357.742
337.093
313.652
287.802
259.949
230.516
199.924
168.585
136.903
105.286
74.0483
43.4606
13.7969
-14.7197
-41.915
-67.649
-91.8169
-114.339
-135.154
-154.253
-171.64
-187.366
-201.501
-214.123
-225.333
-235.199
-243.774
-251.113
-257.248
-262.227
-266.11
-268.938
-270.716
-271.545
-271.472
-270.537
-268.756
-266.138
-262.684
-258.353
-253.095
-246.828
-239.456
-230.879
-220.981
-209.624
-196.698
-182.083
-165.686
-147.434
-127.267
-105.193
-81.2581
-55.524
-28.1317
0.705118
30.6153
61.475
93.0177
124.936
156.798
188.199
218.777
248.108
275.808
301.498
324.819
345.487
363.231
377.82
389.091
396.922
401.242
402.011
399.161
392.876
383.297
370.609
355.048
336.854
316.292
293.661
269.238
243.314
216.16
188.054
159.275
130.072
100.701
71.4357
42.7506
18.2145
-9.0027
-35.5179
-61.0065
-85.3682
-108.497
-260.647
-243.622
-224.68
-203.825
-181.084
-156.458
-129.983
-101.751
-71.8513
-40.4163
-7.65399
26.1717
60.9929
96.454
132.17
167.688
202.537
236.29
268.468
298.607
326.327
351.233
372.934
391.122
405.523
415.91
422.125
424.067
421.618
414.944
404.15
389.416
370.973
349.124
324.196
296.556
266.639
234.853
201.618
167.382
132.538
97.4541
62.5811
30.2232
-2.91404
-35.1843
-66.252
-95.9152
-124.023
-150.459
-175.153
-198.058
-219.153
-238.435
-255.91
-271.603
-285.54
-297.748
-308.265
-317.12
-324.344
-329.958
-333.97
-336.393
-337.24
-336.496
-334.175
-330.259
-324.735
-317.581
-308.758
-298.261
-286.082
-272.204
-256.63
-239.372
-220.435
-199.849
-177.643
-153.875
-128.614
-101.93
-73.8996
-44.6251
-14.2251
17.2031
49.7621
82.5626
115.591
148.614
181.321
213.363
244.373
273.968
301.759
327.368
350.427
370.595
387.558
401.041
410.812
416.689
418.539
416.292
409.958
399.561
385.213
367.089
345.428
320.531
292.756
262.508
230.233
196.399
161.489
125.979
90.3346
54.9912
20.344
-13.2618
-45.5317
-76.2264
-105.162
-132.206
-157.274
-180.316
-201.319
-220.295
-237.274
-252.307
-265.455
-276.792
-286.397
-294.355
-300.75
-305.665
-309.18
-311.354
-312.255
-311.937
-310.432
-307.763
-303.937
-298.946
-292.772
-285.388
-276.749
-266.804
-255.5
-242.777
-228.578
-212.844
-195.524
-176.578
-155.981
-133.727
-109.84
-84.3649
-57.3819
-29.0005
0.634681
31.339
62.9881
95.1673
127.679
160.207
192.412
223.924
254.353
283.296
310.344
335.088
357.136
376.116
391.69
403.569
411.517
415.362
415.002
410.443
401.743
389.032
372.526
352.511
329.323
303.346
274.999
244.718
212.95
180.144
146.732
113.134
79.7409
46.9082
14.9533
-15.8508
-45.2767
-73.1467
-99.3316
-123.746
-146.347
-167.119
-186.083
-203.273
-218.742
-232.549
-244.759
-255.437
-264.651
-272.47
-278.959
-284.178
-288.181
-291.006
-292.678
-293.211
-292.61
-290.875
-287.994
-283.956
-278.751
-272.371
-264.805
-256.04
-246.059
-234.838
-222.343
-208.529
-193.346
-176.742
-158.671
-139.107
-118.041
-95.4882
-71.4878
-46.1034
-19.4275
8.42027
37.2907
67.0048
97.368
128.075
158.871
189.448
219.467
248.566
276.371
302.496
326.559
348.192
367.049
382.819
395.231
404.058
409.126
410.312
407.566
400.916
390.428
376.261
358.641
337.866
314.287
288.293
260.296
230.721
199.993
168.527
136.731
105.015
73.6904
43.0325
13.3137
-15.2437
-42.4681
-68.2199
-92.3972
-114.92
-135.728
-154.813
-172.181
-187.882
-201.99
-214.587
-225.771
-235.615
-244.171
-251.492
-257.609
-262.57
-266.436
-269.246
-271.012
-271.83
-271.749
-270.809
-269.027
-266.412
-262.971
-258.657
-253.422
-247.184
-239.847
-231.31
-221.452
-210.138
-197.252
-182.674
-166.31
-148.08
-127.925
-105.854
-81.9098
-56.1511
-28.7202
0.165996
30.1726
61.1069
92.7442
124.773
156.757
188.287
218.998
248.463
276.295
302.112
325.549
346.321
364.156
378.815
390.138
398
402.329
403.095
400.216
393.876
384.227
371.458
355.804
337.512
316.848
294.114
269.589
243.567
216.32
188.126
159.267
129.991
100.556
71.2402
42.5219
17.8079
-9.43825
-35.984
-61.5
-85.8854
-109.036
-261.336
-244.336
-225.417
-204.579
-181.849
-157.226
-130.743
-102.493
-72.5612
-41.0838
-8.26754
25.6369
60.5531
96.1335
131.993
167.671
202.689
236.616
268.97
299.28
327.165
352.227
374.071
392.381
406.881
417.339
423.594
425.545
423.075
416.345
405.468
390.628
372.057
350.063
324.977
297.171
267.087
235.136
201.742
167.357
132.38
97.1811
62.2184
29.697
-3.50237
-35.8247
-66.9336
-96.6254
-124.751
-151.195
-175.888
-198.786
-219.869
-239.136
-256.592
-272.266
-286.184
-298.374
-308.875
-317.715
-324.926
-330.529
-334.534
-336.955
-337.803
-337.062
-334.747
-330.84
-325.326
-318.182
-309.37
-298.884
-286.717
-272.847
-257.281
-240.028
-221.091
-200.503
-178.292
-154.517
-129.243
-102.542
-74.4866
-45.1834
-14.7506
16.7144
49.3833
82.2563
115.373
148.505
181.336
213.516
244.674
274.423
302.37
328.133
351.339
371.641
388.724
402.306
412.155
418.084
419.96
417.713
411.346
400.889
386.453
368.216
346.419
321.367
293.422
262.996
230.54
196.527
161.445
125.775
89.9868
54.5182
19.7655
-13.9247
-46.2586
-76.9976
-105.96
-133.017
-158.084
-181.115
-202.1
-221.052
-238.003
-253.004
-266.119
-277.421
-286.992
-294.917
-301.28
-306.165
-309.653
-311.806
-312.69
-312.36
-310.849
-308.178
-304.355
-299.372
-293.212
-285.845
-277.227
-267.305
-256.027
-243.33
-229.157
-213.448
-196.151
-177.223
-156.637
-134.388
-110.496
-85.0068
-57.9983
-29.579
0.106965
30.8797
62.5927
94.8696
127.488
160.136
192.473
224.129
254.712
283.813
311.022
335.926
358.126
377.246
392.94
404.916
412.933
416.814
416.46
411.869
403.103
390.296
373.668
353.509
330.163
304.017
275.497
245.044
213.111
180.146
146.588
112.858
79.348
46.4156
14.3787
-16.4895
-45.9615
-73.8608
-100.06
-124.476
-147.066
-167.821
-186.761
-203.924
-219.364
-233.141
-245.322
-255.971
-265.157
-272.95
-279.415
-284.615
-288.602
-291.416
-293.082
-293.612
-293.013
-291.282
-288.405
-284.372
-279.173
-272.799
-265.242
-256.488
-246.521
-235.316
-222.841
-209.05
-193.889
-177.306
-159.251
-139.699
-118.637
-96.0814
-72.0693
-46.6642
-19.958
7.9318
36.8553
66.6342
97.0834
127.884
158.788
189.485
219.637
248.878
276.831
303.105
327.316
349.088
368.074
383.955
396.46
405.357
410.47
411.674