/*--------------------------------*- C++ -*----------------------------------*\
| =========                 |                                                 |
| \\      /  F ield         | OpenFOAM: The Open Source CFD Toolbox           |
|  \\    /   O peration     | Version:  3.0.1                                 |
|   \\  /    A nd           | Web:      www.OpenFOAM.org                      |
|    \\/     M anipulation  |                                                 |
\*---------------------------------------------------------------------------*/
FoamFile
{
    version     2.0;
    format      ascii;
    class       surfaceScalarField;
    location    "24.4";
    object      alphaPhi;
}
// * * * * * * * * * * * * * * * * * * * * * * * * * * * * * * * * * * * * * //

dimensions      [0 3 -1 0 0 0 0];

internalField   nonuniform List<scalar> 
44922
(
-0.000369825
4.13746e-05
-0.000409167
3.93413e-05
-0.000446574
3.74075e-05
-0.0004815
3.49251e-05
-0.000513996
3.24958e-05
-0.000543932
2.99357e-05
-0.000571336
2.74034e-05
-0.000596323
2.49867e-05
-0.000618909
2.25856e-05
-0.000639312
2.04028e-05
-0.000657553
1.82408e-05
-0.000673856
1.63027e-05
-0.00068825
1.43936e-05
-0.000700926
1.26759e-05
-0.000711906
1.09803e-05
-0.000721304
9.39754e-06
-0.000729251
7.94639e-06
-0.000735789
6.5384e-06
-0.000741138
5.34838e-06
-0.000745698
4.56021e-06
-0.00074894
3.24141e-06
-0.000749909
9.68983e-07
-0.00074874
-1.16864e-06
-0.000745755
-2.98535e-06
-0.000741606
-4.14897e-06
-0.000735921
-5.68545e-06
-0.000728483
-7.43793e-06
-0.000719195
-9.2883e-06
-0.000707946
-1.12489e-05
-0.000694747
-1.31992e-05
-0.000679515
-1.52317e-05
-0.000662404
-1.71111e-05
-0.000643349
-1.90548e-05
-0.00062279
-2.0559e-05
-0.000600888
-2.19024e-05
-0.000577546
-2.33423e-05
-0.00055361
-2.39358e-05
-0.000528858
-2.47512e-05
-0.000504379
-2.44798e-05
-0.000479952
-2.44265e-05
-0.000456731
-2.32212e-05
-0.000434659
-2.20722e-05
-0.00041472
-1.99392e-05
-0.000397166
-1.75534e-05
-0.000382684
-1.44821e-05
-0.000372014
-1.06703e-05
-0.000365317
-6.69696e-06
-0.000362438
-2.87876e-06
-0.000363883
1.44493e-06
-0.000370029
6.14576e-06
-0.000382244
1.22151e-05
-0.000399391
1.71471e-05
-0.000420476
2.10851e-05
-0.000446887
2.64115e-05
-0.000476257
2.93697e-05
-0.000510314
3.40567e-05
-0.000545486
3.51723e-05
-0.000583559
3.80735e-05
-0.000620458
3.68982e-05
-0.000658037
3.75789e-05
-0.000692686
3.46491e-05
-0.000725919
3.32333e-05
-0.00075526
2.93409e-05
-0.000782396
2.71361e-05
-0.000805801
2.34052e-05
-0.000825964
2.01633e-05
-0.000840249
1.42845e-05
-0.000848018
7.76939e-06
-0.000849396
1.37837e-06
-0.000844345
-5.05178e-06
-0.000834606
-9.73886e-06
-0.000820684
-1.39217e-05
-0.000804131
-1.65529e-05
-0.000785623
-1.85074e-05
-0.000766666
-1.89578e-05
-0.000747006
-1.96595e-05
-0.000727765
-1.92411e-05
-0.00070782
-1.99452e-05
-0.000688532
-1.92873e-05
-0.000669056
-1.9476e-05
-0.0006501
-1.89563e-05
-0.000630891
-1.92089e-05
-0.000612003
-1.88876e-05
-0.000592947
-1.90553e-05
-0.000574442
-1.85051e-05
-0.000556375
-1.80669e-05
-0.000539222
-1.71527e-05
-0.000521996
-1.72257e-05
-0.000505014
-1.69823e-05
-0.00048668
-1.8334e-05
-0.000469551
-1.71284e-05
-0.000451102
-1.84487e-05
-0.000431279
-1.98231e-05
-0.000412
-1.92786e-05
-0.000389628
-2.23715e-05
-0.000367843
-2.17847e-05
-0.000342786
-2.5057e-05
-0.000317712
-2.50741e-05
-0.000289651
-2.80607e-05
-0.000261118
-2.85335e-05
-0.000230176
-3.09408e-05
-0.000198753
-3.14233e-05
-0.000165841
-3.29115e-05
-0.000132974
-3.28672e-05
-9.98695e-05
-3.31042e-05
-6.77583e-05
-3.2111e-05
-3.68673e-05
-3.08912e-05
-8.10863e-06
-2.87584e-05
1.79339e-05
-2.60422e-05
4.06738e-05
-2.27398e-05
5.96632e-05
-1.89893e-05
7.4438e-05
-1.47746e-05
8.481e-05
-1.0372e-05
9.036e-05
-5.54993e-06
9.10922e-05
-7.32173e-07
8.68487e-05
4.24354e-06
7.7635e-05
9.21362e-06
6.37424e-05
1.38926e-05
4.54495e-05
1.82929e-05
2.30909e-05
2.23586e-05
-2.82622e-06
2.59171e-05
-3.19022e-05
2.90757e-05
-6.32108e-05
3.13083e-05
-9.57215e-05
3.25104e-05
-0.000128397
3.26749e-05
-0.00016028
3.18829e-05
-0.000190473
3.01929e-05
-0.000218494
2.80204e-05
-0.00024379
2.5296e-05
-0.000266267
2.24762e-05
-0.000285807
1.95398e-05
-0.00030271
1.69036e-05
-0.000317058
1.43477e-05
-0.000329326
1.22685e-05
-0.000339698
1.03708e-05
-0.000348625
8.92663e-06
-0.000356193
7.5684e-06
-0.000362747
6.55415e-06
-0.000368284
5.53655e-06
-0.000373242
4.95791e-06
-0.000377557
4.31431e-06
-0.000381615
4.0579e-06
-0.000385178
3.56344e-06
-0.000388551
3.37313e-06
-0.000391557
3.00592e-06
-0.000394477
2.91935e-06
-0.000397034
2.5572e-06
-0.000399408
2.3739e-06
-0.000401392
1.98445e-06
-0.000403089
1.69669e-06
-0.000404369
1.2801e-06
-0.000405209
8.39212e-07
-0.000405681
4.71965e-07
-0.000405586
-9.47173e-08
-0.000404851
-7.34804e-07
-0.000403386
-1.46468e-06
-0.000401272
-2.11387e-06
-0.000398406
-2.86609e-06
-0.000394828
-3.57816e-06
-0.000390426
-4.40167e-06
-0.000385164
-5.26243e-06
-0.000379051
-6.11284e-06
-0.000371905
-7.14589e-06
-0.00036365
-8.25474e-06
-0.000354082
-9.56863e-06
-0.000343234
-1.08471e-05
-0.000330923
-1.23114e-05
-0.000317206
-1.37171e-05
-0.000302039
-1.51669e-05
-0.000285414
-1.66243e-05
-0.000267284
-1.81298e-05
-0.000247695
-1.95895e-05
-0.000226675
-2.10194e-05
-0.000204374
-2.23008e-05
-0.000181033
-2.33416e-05
-0.000156839
-2.41933e-05
-0.000132034
-2.48051e-05
-0.000106916
-2.5118e-05
-8.18739e-05
-2.50418e-05
-5.72951e-05
-2.45787e-05
-3.35539e-05
-2.37411e-05
-1.11072e-05
-2.24467e-05
9.57862e-06
-2.06857e-05
2.8092e-05
-1.85134e-05
4.40372e-05
-1.59451e-05
5.71004e-05
-1.30632e-05
6.69818e-05
-9.88138e-06
7.35385e-05
-6.55666e-06
7.66651e-05
-3.1266e-06
7.6365e-05
3.00128e-07
7.27858e-05
3.57918e-06
6.61925e-05
6.59337e-06
5.69525e-05
9.23995e-06
4.54067e-05
1.15458e-05
3.19867e-05
1.342e-05
1.71273e-05
1.48594e-05
1.26022e-06
1.58671e-05
-1.51289e-05
1.63891e-05
-3.15395e-05
1.64106e-05
-4.77276e-05
1.61881e-05
-6.33246e-05
1.5597e-05
-7.82227e-05
1.48981e-05
-9.20372e-05
1.38145e-05
-0.000104687
1.26499e-05
-0.000116061
1.13736e-05
-0.000125857
9.79586e-06
-0.000133893
8.03682e-06
-0.000139996
6.10249e-06
-0.000144316
4.31975e-06
-0.000146558
2.24249e-06
-0.000146482
-7.5951e-08
-0.000145424
-1.05753e-06
-0.000146138
7.13225e-07
-0.000149867
3.7291e-06
-0.000156351
6.48358e-06
-0.000165023
8.67282e-06
-0.000174368
9.34496e-06
-0.000181122
6.75362e-06
-0.000183935
2.81334e-06
-0.000183288
-6.44119e-07
-0.000177527
-5.76088e-06
-0.000166255
-1.12724e-05
-0.000144716
-2.15397e-05
-0.000102344
-4.23728e-05
-5.64587e-05
-4.58848e-05
-0.000369922
8.27749e-05
-0.00040928
7.86994e-05
-0.000446701
7.48273e-05
-0.000481634
6.98573e-05
-0.000514133
6.49941e-05
-0.000544068
5.98701e-05
-0.000571468
5.48028e-05
-0.000596449
4.99677e-05
-0.000619029
4.51643e-05
-0.000639425
4.07983e-05
-0.000657659
3.64744e-05
-0.000673955
3.25983e-05
-0.000688342
2.87804e-05
-0.000701012
2.53453e-05
-0.000711986
2.19541e-05
-0.000721377
1.87878e-05
-0.000729313
1.58825e-05
-0.000735833
1.30573e-05
-0.000741076
1.05912e-05
-0.000745385
8.86966e-06
-0.000748461
6.31651e-06
-0.000749604
2.11256e-06
-0.000748518
-2.25569e-06
-0.000745696
-5.80685e-06
-0.000741651
-8.19469e-06
-0.000735998
-1.13382e-05
-0.000728572
-1.48644e-05
-0.000719289
-1.85708e-05
-0.000708043
-2.24948e-05
-0.000694845
-2.63978e-05
-0.000679612
-3.04652e-05
-0.000662496
-3.42269e-05
-0.000643433
-3.81177e-05
-0.000622863
-4.11291e-05
-0.000600946
-4.38191e-05
-0.000577586
-4.67028e-05
-0.00055363
-4.78918e-05
-0.000528855
-4.95262e-05
-0.000504351
-4.89839e-05
-0.000479897
-4.88802e-05
-0.000456649
-4.64692e-05
-0.000434548
-4.41728e-05
-0.000414582
-3.99057e-05
-0.000397001
-3.51342e-05
-0.000382483
-2.89999e-05
-0.000371737
-2.1416e-05
-0.000364881
-1.3553e-05
-0.000361946
-5.81368e-06
-0.000363499
2.99788e-06
-0.000369747
1.23936e-05
-0.000381967
2.44354e-05
-0.000399119
3.42985e-05
-0.000420217
4.21828e-05
-0.000446652
5.28465e-05
-0.000476059
5.87768e-05
-0.000510166
6.81642e-05
-0.0005454
7.04064e-05
-0.00058354
7.62137e-05
-0.000620497
7.38547e-05
-0.000658119
7.52015e-05
-0.000692801
6.93313e-05
-0.000726048
6.64804e-05
-0.000755379
5.86717e-05
-0.000782465
5.4222e-05
-0.000805796
4.67358e-05
-0.000825914
4.02816e-05
-0.000840356
2.87268e-05
-0.00084829
1.57039e-05
-0.000849567
2.65448e-06
-0.00084459
-1.00284e-05
-0.000834833
-1.94956e-05
-0.000820863
-2.7892e-05
-0.000804267
-3.31486e-05
-0.000785724
-3.70506e-05
-0.000766741
-3.79407e-05
-0.000747057
-3.93428e-05
-0.000727803
-3.84955e-05
-0.000707853
-3.98949e-05
-0.000688568
-3.85722e-05
-0.000669098
-3.89459e-05
-0.000650146
-3.7908e-05
-0.000630944
-3.84107e-05
-0.000612061
-3.77697e-05
-0.000593016
-3.80999e-05
-0.000574522
-3.69994e-05
-0.000556473
-3.61152e-05
-0.000539346
-3.42796e-05
-0.000522146
-3.4425e-05
-0.000505171
-3.39567e-05
-0.00048686
-3.66447e-05
-0.000469745
-3.42432e-05
-0.000451309
-3.68848e-05
-0.000431501
-3.96314e-05
-0.000412229
-3.85497e-05
-0.000389875
-4.47244e-05
-0.000368085
-4.35712e-05
-0.000343029
-5.01121e-05
-0.000317943
-5.01605e-05
-0.000289873
-5.61311e-05
-0.00026132
-5.70862e-05
-0.000230357
-6.19019e-05
-0.000198898
-6.28812e-05
-0.000165942
-6.5867e-05
-0.000133029
-6.57805e-05
-9.98841e-05
-6.62492e-05
-6.77318e-05
-6.42631e-05
-3.67949e-05
-6.18268e-05
-7.97983e-06
-5.75727e-05
1.80983e-05
-5.21199e-05
4.08678e-05
-4.55086e-05
5.98749e-05
-3.79957e-05
7.46639e-05
-2.95636e-05
8.50503e-05
-2.07589e-05
9.06129e-05
-1.11124e-05
9.13495e-05
-1.46846e-06
8.70667e-05
8.52665e-06
7.7874e-05
1.84065e-05
6.39656e-05
2.78008e-05
4.56301e-05
3.6628e-05
2.32765e-05
4.47118e-05
-2.67917e-06
5.18721e-05
-3.18046e-05
5.82007e-05
-6.3165e-05
6.26684e-05
-9.57393e-05
6.50836e-05
-0.000128474
6.54094e-05
-0.000160407
6.38155e-05
-0.000190632
6.04188e-05
-0.000218666
5.60549e-05
-0.000243969
5.05965e-05
-0.000266446
4.49501e-05
-0.000285982
3.90743e-05
-0.000302878
3.3801e-05
-0.000317214
2.86858e-05
-0.000329466
2.45201e-05
-0.000339821
2.07255e-05
-0.000348717
1.78228e-05
-0.000356272
1.51202e-05
-0.000362809
1.30896e-05
-0.000368348
1.10757e-05
-0.000373296
9.90952e-06
-0.000377608
8.6264e-06
-0.000381647
8.09394e-06
-0.00038521
7.12329e-06
-0.000388585
6.74775e-06
-0.000391607
6.02801e-06
-0.000394521
5.83716e-06
-0.000397088
5.12479e-06
-0.000399465
4.75164e-06
-0.00040145
3.96942e-06
-0.00040315
3.39367e-06
-0.000404436
2.56489e-06
-0.000405283
1.68573e-06
-0.00040576
9.51313e-07
-0.000405644
-2.08887e-07
-0.000404921
-1.45858e-06
-0.000403462
-2.92446e-06
-0.000401351
-4.2263e-06
-0.000398484
-5.73268e-06
-0.000394907
-7.15451e-06
-0.000390509
-8.79826e-06
-0.000385251
-1.052e-05
-0.00037914
-1.22238e-05
-0.000372001
-1.42861e-05
-0.00036376
-1.64961e-05
-0.000354197
-1.91333e-05
-0.000343352
-2.16926e-05
-0.000331043
-2.46197e-05
-0.000317329
-2.7429e-05
-0.000302161
-3.03332e-05
-0.000285532
-3.32531e-05
-0.000267396
-3.62654e-05
-0.000247796
-3.91903e-05
-0.00022677
-4.20462e-05
-0.000204464
-4.46069e-05
-0.000181107
-4.66971e-05
-0.000156897
-4.84023e-05
-0.00013207
-4.96318e-05
-0.000106925
-5.02636e-05
-8.1855e-05
-5.01111e-05
-5.7256e-05
-4.91771e-05
-3.34952e-05
-4.75013e-05
-1.10244e-05
-4.4917e-05
9.68697e-06
-4.13967e-05
2.822e-05
-3.7046e-05
4.41904e-05
-3.19152e-05
5.72728e-05
-2.61452e-05
6.71666e-05
-1.97747e-05
7.37187e-05
-1.31085e-05
7.68442e-05
-6.25195e-06
7.65364e-05
6.07659e-07
7.29454e-05
7.17015e-06
6.63488e-05
1.31902e-05
5.70823e-05
1.85067e-05
4.55039e-05
2.31242e-05
3.20524e-05
2.68715e-05
1.71669e-05
2.97444e-05
1.29537e-06
3.17382e-05
-1.51222e-05
3.28063e-05
-3.15598e-05
3.2848e-05
-4.77641e-05
3.23924e-05
-6.3369e-05
3.12018e-05
-7.82728e-05
2.9802e-05
-9.20903e-05
2.76318e-05
-0.000104735
2.52945e-05
-0.000116102
2.27402e-05
-0.000125917
1.96113e-05
-0.000134025
1.61442e-05
-0.000140212
1.22892e-05
-0.000144597
8.70457e-06
-0.000146927
4.57333e-06
-0.000147121
1.18521e-07
-0.000145344
-2.83453e-06
-0.000143202
-1.42942e-06
-0.000143346
3.87378e-06
-0.000146492
9.62817e-06
-0.000151112
1.32924e-05
-0.000155205
1.34378e-05
-0.000157619
9.16748e-06
-0.000157281
2.47553e-06
-0.000153744
-4.1788e-06
-0.000148372
-1.11317e-05
-0.000140686
-1.89588e-05
-0.000127726
-3.45003e-05
-0.000101394
-6.87046e-05
-9.28405e-05
-6.50123e-05
-0.000370116
0.000124227
-0.000409516
0.0001181
-0.000446965
0.000112275
-0.000481914
0.000104805
-0.000514419
9.74984e-05
-0.000544352
8.98031e-05
-0.000571745
8.21954e-05
-0.000596716
7.4938e-05
-0.000619283
6.77303e-05
-0.000639665
6.118e-05
-0.000657885
5.46941e-05
-0.000674168
4.88805e-05
-0.000688542
4.31545e-05
-0.0007012
3.80023e-05
-0.000712162
3.29157e-05
-0.000721539
2.81645e-05
-0.000729457
2.38e-05
-0.000735942
1.9542e-05
-0.000741032
1.56811e-05
-0.000744788
1.26252e-05
-0.000746914
8.44228e-06
-0.000747755
2.95328e-06
-0.000747528
-2.48215e-06
-0.000745632
-7.70367e-06
-0.00074177
-1.20563e-05
-0.000736171
-1.69376e-05
-0.000728765
-2.22702e-05
-0.000719494
-2.78423e-05
-0.000708254
-3.37347e-05
-0.000695057
-3.95951e-05
-0.000679819
-4.57027e-05
-0.000662694
-5.13525e-05
-0.000643614
-5.71971e-05
-0.000623022
-6.17217e-05
-0.000601076
-6.57648e-05
-0.000577679
-7.01001e-05
-0.000553682
-7.18885e-05
-0.000528859
-7.4349e-05
-0.000504306
-7.35373e-05
-0.000479797
-7.33887e-05
-0.000456495
-6.97714e-05
-0.000434338
-6.63303e-05
-0.000414316
-5.99271e-05
-0.00039668
-5.277e-05
-0.000382092
-4.35883e-05
-0.000371146
-3.23614e-05
-0.000364065
-2.06348e-05
-0.00036125
-8.62797e-06
-0.000362936
4.68352e-06
-0.0003692
1.86582e-05
-0.000381426
3.66613e-05
-0.000398587
5.14588e-05
-0.00041971
6.33065e-05
-0.000446193
7.93296e-05
-0.000475676
8.82596e-05
-0.000509886
0.000102374
-0.000545246
0.000105766
-0.000583521
0.000114489
-0.000620596
0.000110929
-0.000658307
0.000112913
-0.000693058
0.000104082
-0.000726336
9.97588e-05
-0.000755656
8.79916e-05
-0.000782656
8.12222e-05
-0.00080573
6.98091e-05
-0.000825402
5.99538e-05
-0.000839624
4.29489e-05
-0.000847938
2.40185e-05
-0.000849632
4.34782e-06
-0.000845103
-1.45571e-05
-0.000835312
-2.92859e-05
-0.000821237
-4.19671e-05
-0.00080455
-4.98362e-05
-0.000785928
-5.56722e-05
-0.000766887
-5.69815e-05
-0.000747152
-5.90774e-05
-0.000727868
-5.77793e-05
-0.000707911
-5.98522e-05
-0.000688632
-5.7851e-05
-0.000669179
-5.83991e-05
-0.00065024
-5.68468e-05
-0.000631056
-5.7594e-05
-0.000612184
-5.66413e-05
-0.000593158
-5.71247e-05
-0.000574683
-5.54743e-05
-0.000556669
-5.41298e-05
-0.000539579
-5.13698e-05
-0.000522421
-5.15819e-05
-0.000505461
-5.09159e-05
-0.000487194
-5.49098e-05
-0.000470104
-5.13327e-05
-0.000451692
-5.52954e-05
-0.000431918
-5.94053e-05
-0.000412663
-5.78055e-05
-0.000390344
-6.70417e-05
-0.000368554
-6.53559e-05
-0.000343506
-7.51607e-05
-0.000318403
-7.52643e-05
-0.000290312
-8.4222e-05
-0.000261718
-8.5681e-05
-0.00023072
-9.28986e-05
-0.000199193
-9.44078e-05
-0.000166163
-9.88968e-05
-0.000133158
-9.87855e-05
-9.99222e-05
-9.94841e-05
-6.76856e-05
-9.6498e-05
-3.66584e-05
-9.28529e-05
-7.72252e-06
-8.65084e-05
1.84047e-05
-7.8247e-05
4.1239e-05
-6.83428e-05
6.02899e-05
-5.70465e-05
7.51027e-05
-4.43764e-05
8.55042e-05
-3.11603e-05
9.10903e-05
-1.66984e-05
9.18309e-05
-2.20906e-06
8.75406e-05
1.2817e-05
7.83474e-05
2.75998e-05
6.44176e-05
4.17307e-05
4.60443e-05
5.50014e-05
2.36049e-05
6.71513e-05
-2.37281e-06
7.78499e-05
-3.16034e-05
8.74314e-05
-6.30646e-05
9.41296e-05
-9.57546e-05
9.77736e-05
-0.000128597
9.82522e-05
-0.00016063
9.58484e-05
-0.000190928
9.07163e-05
-0.000218993
8.41198e-05
-0.000244306
7.591e-05
-0.000266772
6.74162e-05
-0.000286281
5.85821e-05
-0.000303151
5.06703e-05
-0.000317474
4.3008e-05
-0.000329707
3.67518e-05
-0.000340049
3.10671e-05
-0.000348902
2.66788e-05
-0.000356418
2.26356e-05
-0.000362908
1.95801e-05
-0.000368444
1.6612e-05
-0.000373385
1.48498e-05
-0.000377695
1.29364e-05
-0.00038169
1.20886e-05
-0.000385239
1.06718e-05
-0.000388619
1.01239e-05
-0.000391667
9.07672e-06
-0.00039458
8.75175e-06
-0.000397163
7.70883e-06
-0.00039955
7.13829e-06
-0.000401547
5.96678e-06
-0.000403259
5.10648e-06
-0.000404557
3.86242e-06
-0.00040542
2.54832e-06
-0.000405894
1.42556e-06
-0.000405747
-3.55425e-07
-0.000405017
-2.18896e-06
-0.000403569
-4.37193e-06
-0.000401469
-6.32701e-06
-0.000398594
-8.6074e-06
-0.000395013
-1.07349e-05
-0.000390626
-1.31853e-05
-0.000385389
-1.57576e-05
-0.000379279
-1.83339e-05
-0.000372151
-2.14137e-05
-0.000363934
-2.47133e-05
-0.000354385
-2.86814e-05
-0.000343542
-3.25362e-05
-0.000331233
-3.69282e-05
-0.000317525
-4.11372e-05
-0.000302353
-4.55049e-05
-0.000285719
-4.98873e-05
-0.000267582
-5.44024e-05
-0.000247969
-5.88029e-05
-0.000226923
-6.30925e-05
-0.000204592
-6.69369e-05
-0.00018121
-7.00794e-05
-0.000156978
-7.26346e-05
-0.000132117
-7.44925e-05
-0.000106921
-7.54589e-05
-8.17965e-05
-7.52359e-05
-5.71508e-05
-7.38227e-05
-3.33515e-05
-7.13005e-05
-1.08243e-05
-6.74441e-05
9.92476e-06
-6.21456e-05
2.8494e-05
-5.56151e-05
4.45087e-05
-4.79298e-05
5.7628e-05
-3.92644e-05
6.75503e-05
-2.96969e-05
7.40943e-05
-1.96521e-05
7.72011e-05
-9.3585e-06
7.68683e-05
9.40493e-07
7.32545e-05
1.0784e-05
6.66503e-05
1.97945e-05
5.73446e-05
2.78125e-05
4.57058e-05
3.47631e-05
3.21837e-05
4.03938e-05
1.72447e-05
4.46839e-05
1.34306e-06
4.76404e-05
-1.51232e-05
4.92731e-05
-3.1622e-05
4.93473e-05
-4.78607e-05
4.86312e-05
-6.34799e-05
4.68214e-05
-7.83815e-05
4.47036e-05
-9.22046e-05
4.14549e-05
-0.000104847
3.79369e-05
-0.000116171
3.40641e-05
-0.000125964
2.94043e-05
-0.000134234
2.44138e-05
-0.000140602
1.8658e-05
-0.000145007
1.31088e-05
-0.000147301
6.86807e-06
-0.000147397
2.142e-07
-0.000145632
-4.59949e-06
-0.000143081
-3.981e-06
-0.000142017
2.81012e-06
-0.000143795
1.14058e-05
-0.000147211
1.67083e-05
-0.000150896
1.71222e-05
-0.00015435
1.26207e-05
-0.000155482
3.60818e-06
-0.000153414
-6.24688e-06
-0.00014677
-1.77757e-05
-0.000135715
-3.00129e-05
-0.000119821
-5.03941e-05
-9.60163e-05
-9.2509e-05
-0.000124691
-6.41664e-05
-0.000370411
0.000165762
-0.000409873
0.000157561
-0.000447363
0.000149765
-0.000482335
0.000139776
-0.000514848
0.000130012
-0.000544779
0.000119734
-0.000572162
0.000109577
-0.000597117
9.98921e-05
-0.000619664
9.0277e-05
-0.000640025
8.15408e-05
-0.000658225
7.28931e-05
-0.000674487
6.51424e-05
-0.000688843
5.75096e-05
-0.000701482
5.0641e-05
-0.000712426
4.38594e-05
-0.000721784
3.75222e-05
-0.000729678
3.16935e-05
-0.000736123
2.59873e-05
-0.000741157
2.07144e-05
-0.000744454
1.59221e-05
-0.000746395
1.03834e-05
-0.000747417
3.97438e-06
-0.000747458
-2.44079e-06
-0.000745724
-9.43797e-06
-0.000741979
-1.58013e-05
-0.000736435
-2.2482e-05
-0.000729057
-2.96486e-05
-0.000719801
-3.70979e-05
-0.00070857
-4.4966e-05
-0.000695374
-5.27906e-05
-0.000680131
-6.0946e-05
-0.000662991
-6.84926e-05
-0.000643887
-7.63014e-05
-0.00062326
-8.23481e-05
-0.000601271
-8.7754e-05
-0.000577819
-9.35526e-05
-0.000553761
-9.59464e-05
-0.000528866
-9.92436e-05
-0.000504239
-9.81647e-05
-0.000479648
-9.79795e-05
-0.000456265
-9.31548e-05
-0.000434021
-8.85734e-05
-0.000413917
-8.00313e-05
-0.000396198
-7.0489e-05
-0.000381513
-5.82737e-05
-0.000370329
-4.35455e-05
-0.000362989
-2.7974e-05
-0.000360299
-1.13181e-05
-0.000362128
6.51195e-06
-0.000368385
2.4916e-05
-0.000380614
4.88903e-05
-0.000397787
6.86314e-05
-0.000418949
8.44689e-05
-0.000445504
0.000105884
-0.000475101
0.000117856
-0.000509465
0.000136739
-0.000545014
0.000141314
-0.000583493
0.000152968
-0.000620747
0.000148184
-0.000658594
0.00015076
-0.000693454
0.000138941
-0.000726794
0.0001331
-0.000756135
0.000117332
-0.000783119
0.000108207
-0.000806079
9.27689e-05
-0.000825447
7.93213e-05
-0.000839269
5.67717e-05
-0.000847833
3.25823e-05
-0.000850106
6.62084e-06
-0.000845907
-1.87557e-05
-0.000836033
-3.91598e-05
-0.000821798
-5.62022e-05
-0.000804973
-6.66612e-05
-0.000786235
-7.44107e-05
-0.000767105
-7.61113e-05
-0.000747292
-7.88894e-05
-0.000727963
-7.71082e-05
-0.000707995
-7.982e-05
-0.000688726
-7.71206e-05
-0.000669299
-7.7826e-05
-0.000650379
-7.57667e-05
-0.000631224
-7.67489e-05
-0.000612368
-7.54963e-05
-0.000593374
-7.61193e-05
-0.000574927
-7.39207e-05
-0.000556961
-7.20955e-05
-0.000539923
-6.84079e-05
-0.00052283
-6.86755e-05
-0.000505896
-6.78495e-05
-0.000487702
-7.31028e-05
-0.00047065
-6.8382e-05
-0.000452272
-7.36728e-05
-0.000432551
-7.91271e-05
-0.000413307
-7.7049e-05
-0.00039103
-8.9319e-05
-0.000369247
-8.71413e-05
-0.000344201
-0.000100207
-0.000319072
-0.000100394
-0.000290971
-0.000112324
-0.000262314
-0.000114338
-0.000231243
-0.00012397
-0.000199647
-0.000126003
-0.00016649
-0.000132054
-0.000133369
-0.000131906
-9.99881e-05
-0.000132864
-6.76004e-05
-0.000128885
-3.64359e-05
-0.000124017
-7.36197e-06
-0.000115582
1.88539e-05
-0.000104464
4.17946e-05
-9.12843e-05
6.09089e-05
-7.61617e-05
7.57838e-05
-5.92521e-05
8.62048e-05
-4.15816e-05
9.18643e-05
-2.23579e-05
9.26079e-05
-2.95259e-06
8.82714e-05
1.71536e-05
7.91242e-05
3.67481e-05
6.51301e-05
5.57251e-05
4.66596e-05
7.34722e-05
2.4141e-05
8.96705e-05
-1.90645e-06
0.000103898
-3.12949e-05
0.000116822
-6.29004e-05
0.000125735
-9.57704e-05
0.000130644
-0.000128766
0.000131248
-0.000160945
0.000128027
-0.000191371
0.000121144
-0.000219483
0.000112236
-0.00024482
0.000101247
-0.000267276
8.98722e-05
-0.000286743
7.80494e-05
-0.000303565
6.74912e-05
-0.000317872
5.73135e-05
-0.000330058
4.89387e-05
-0.000340378
4.1386e-05
-0.000349176
3.54804e-05
-0.00035664
3.00992e-05
-0.000363068
2.60081e-05
-0.000368588
2.21297e-05
-0.000373498
1.97591e-05
-0.000377807
1.72455e-05
-0.000381773
1.60547e-05
-0.000385315
1.42135e-05
-0.000388678
1.34901e-05
-0.000391754
1.21523e-05
-0.000394668
1.16663e-05
-0.000397242
1.02837e-05
-0.000399639
9.53371e-06
-0.000401646
7.97051e-06
-0.000403396
6.85578e-06
-0.00040472
5.18648e-06
-0.000405612
3.44078e-06
-0.00040604
1.85382e-06
-0.00040588
-5.12079e-07
-0.00040516
-2.90798e-06
-0.000403725
-5.80834e-06
-0.000401641
-8.41385e-06
-0.000398758
-1.14905e-05
-0.00039518
-1.4313e-05
-0.000390796
-1.7568e-05
-0.000385593
-2.09606e-05
-0.000379493
-2.44345e-05
-0.000372374
-2.8532e-05
-0.000364187
-3.28986e-05
-0.000354665
-3.82023e-05
-0.000343825
-4.33768e-05
-0.000331512
-4.92407e-05
-0.000317799
-5.48516e-05
-0.000302619
-6.06871e-05
-0.000285987
-6.65202e-05
-0.000267863
-7.25259e-05
-0.000248242
-7.84226e-05
-0.000227165
-8.41691e-05
-0.000204788
-8.93138e-05
-0.000181361
-9.35072e-05
-0.000157098
-9.68984e-05
-0.000132192
-9.93991e-05
-0.000106932
-0.000100719
-8.173e-05
-0.000100438
-5.70107e-05
-9.85422e-05
-3.31506e-05
-9.51608e-05
-1.05624e-05
-9.00326e-05
1.02871e-05
-8.29951e-05
2.89042e-05
-7.42324e-05
4.49745e-05
-6.40005e-05
5.81543e-05
-5.24448e-05
6.81201e-05
-3.96628e-05
7.46652e-05
-2.61973e-05
7.7744e-05
-1.24373e-05
7.73753e-05
1.30884e-06
7.37301e-05
1.44293e-05
6.71006e-05
2.64246e-05
5.77416e-05
3.7172e-05
4.60217e-05
4.64834e-05
3.2389e-05
5.40267e-05
1.7355e-05
5.97179e-05
1.42172e-06
6.35738e-05
-1.50931e-05
6.57879e-05
-3.16954e-05
6.59496e-05
-4.80042e-05
6.49401e-05
-6.36519e-05
6.24695e-05
-7.8552e-05
5.96037e-05
-9.23922e-05
5.52951e-05
-0.000105055
5.05993e-05
-0.000116343
4.53524e-05
-0.000126121
3.91825e-05
-0.000134507
3.28003e-05
-0.000141054
2.52051e-05
-0.000145587
1.76427e-05
-0.000147782
9.06273e-06
-0.000147632
6.39483e-08
-0.00014554
-6.69167e-06
-0.000142647
-6.87437e-06
-0.000141037
1.20084e-06
-0.000142215
1.25843e-05
-0.00014527
1.97627e-05
-0.000148871
2.07233e-05
-0.000152263
1.60121e-05
-0.000154454
5.79896e-06
-0.000153435
-7.26626e-06
-0.000148469
-2.27414e-05
-0.00013977
-3.87118e-05
-0.000126919
-6.32454e-05
-0.000105505
-0.000113923
-0.000154674
-7.55214e-05
-0.000370812
0.000207411
-0.000410353
0.000197101
-0.000447896
0.000187307
-0.000482898
0.000174777
-0.000515423
0.000162536
-0.00054535
0.000149661
-0.000572718
0.000136945
-0.000597651
0.000124825
-0.000620173
0.000112798
-0.000640506
0.000101874
-0.000658678
9.10643e-05
-0.000674913
8.13774e-05
-0.000689243
7.18394e-05
-0.000701858
6.32557e-05
-0.00071278
5.47801e-05
-0.000722114
4.68564e-05
-0.000729981
3.95597e-05
-0.000736388
3.23948e-05
-0.00074138
2.57054e-05
-0.000744689
1.92313e-05
-0.000746728
1.24223e-05
-0.000747801
5.04662e-06
-0.000747735
-2.50604e-06
-0.000745964
-1.121e-05
-0.000742288
-1.9477e-05
-0.000736794
-2.79764e-05
-0.000729447
-3.69954e-05
-0.000720212
-4.63335e-05
-0.000708992
-5.6186e-05
-0.000695799
-6.59837e-05
-0.000680548
-7.61972e-05
-0.000663388
-8.56521e-05
-0.000644251
-9.54386e-05
-0.00062358
-0.000103019
-0.000601532
-0.000109801
-0.000578006
-0.000117079
-0.000553867
-0.000120086
-0.000528876
-0.000124234
-0.00050415
-0.000122891
-0.000479449
-0.00012268
-0.000455957
-0.000116647
-0.000433599
-0.000110931
-0.000413384
-0.000100246
-0.000395554
-8.83193e-05
-0.000380753
-7.3075e-05
-0.000369406
-5.48924e-05
-0.00036192
-3.54595e-05
-0.000359219
-1.40192e-05
-0.000361064
8.35728e-06
-0.000367304
3.11556e-05
-0.00037953
6.11167e-05
-0.000396719
8.58195e-05
-0.000417932
0.000105682
-0.000444581
0.000132534
-0.00047433
0.000147605
-0.0005089
0.000171309
-0.000544703
0.000177117
-0.000583456
0.000191721
-0.000620954
0.000185683
-0.000658981
0.000188788
-0.000693989
0.000173949
-0.000727421
0.000166531
-0.000756811
0.000146722
-0.00078385
0.000135245
-0.000806908
0.000115827
-0.000826291
9.87043e-05
-0.000840169
7.06502e-05
-0.000848915
4.13282e-05
-0.000851332
9.03771e-06
-0.000847049
-2.30384e-05
-0.000837
-4.92092e-05
-0.000822545
-7.06571e-05
-0.000805536
-8.36697e-05
-0.000786643
-9.33038e-05
-0.00076739
-9.53643e-05
-0.000747474
-9.88055e-05
-0.000728083
-9.64986e-05
-0.000708103
-9.97996e-05
-0.000688846
-9.63776e-05
-0.000669456
-9.72158e-05
-0.000650561
-9.4662e-05
-0.000631444
-9.58652e-05
-0.000612611
-9.43299e-05
-0.000593656
-9.50737e-05
-0.000575248
-9.23283e-05
-0.000557348
-8.99959e-05
-0.000540378
-8.53775e-05
-0.000523369
-8.56847e-05
-0.000506469
-8.47495e-05
-0.000488377
-9.11947e-05
-0.000471382
-8.53766e-05
-0.000453051
-9.20025e-05
-0.000433396
-9.87811e-05
-0.000414161
-9.62843e-05
-0.000391938
-0.000111544
-0.000370142
-0.000108938
-0.000345121
-0.000125227
-0.000319951
-0.000125565
-0.000291825
-0.000140449
-0.000263116
-0.000143047
-0.00023192
-0.000155165
-0.000200233
-0.00015769
-0.000166921
-0.000165365
-0.000133614
-0.000165214
-0.000100053
-0.000166427
-6.74452e-05
-0.000161493
-3.61048e-05
-0.000155357
-6.85735e-06
-0.00014483
1.94711e-05
-0.000130792
4.25546e-05
-0.000114368
6.177e-05
-9.53771e-05
7.67247e-05
-7.42068e-05
8.72154e-05
-5.20731e-05
9.28314e-05
-2.7975e-05
9.36742e-05
-3.79506e-06
8.93852e-05
2.14437e-05
8.01057e-05
4.60276e-05
6.60483e-05
6.97825e-05
4.75595e-05
9.19609e-05
2.49262e-05
0.000112304
-1.28789e-06
0.000130112
-3.08705e-05
0.000146404
-6.26706e-05
0.000157537
-9.57714e-05
0.000163745
-0.000128995
0.000164472
-0.000161344
0.000160376
-0.000191947
0.000151747
-0.000220162
0.000140451
-0.000245526
0.000126613
-0.000267977
0.000112325
-0.000287405
9.74779e-05
-0.00030415
8.4236e-05
-0.000318411
7.15745e-05
-0.000330527
6.10547e-05
-0.000340782
5.16405e-05
-0.000349523
4.42221e-05
-0.000356932
3.75082e-05
-0.000363291
3.23671e-05
-0.000368775
2.76131e-05
-0.000373649
2.46336e-05
-0.000377943
2.15386e-05
-0.000381893
2.00046e-05
-0.000385424
1.77475e-05
-0.000388776
1.68419e-05
-0.000391845
1.52213e-05
-0.000394768
1.45876e-05
-0.000397333
1.28455e-05
-0.000399741
1.19423e-05
-0.000401747
9.9759e-06
-0.000403537
8.6464e-06
-0.000404856
6.50565e-06
-0.000405781
4.36509e-06
-0.000406224
2.29698e-06
-0.000406062
-6.73985e-07
-0.000405349
-3.62089e-06
-0.000403922
-7.23498e-06
-0.000401849
-1.04873e-05
-0.000398974
-1.43653e-05
-0.000395417
-1.78701e-05
-0.000391029
-2.19556e-05
-0.000385854
-2.61368e-05
-0.00037976
-3.05277e-05
-0.000372648
-3.56438e-05
-0.000364492
-4.10548e-05
-0.000355005
-4.76898e-05
-0.00034419
-5.41905e-05
-0.000331878
-6.15539e-05
-0.00031817
-6.85602e-05
-0.000302978
-7.58784e-05
-0.000286338
-8.31597e-05
-0.00026822
-9.06443e-05
-0.000248594
-9.8049e-05
-0.000227491
-0.000105271
-0.000205054
-0.000111752
-0.000181575
-0.000116986
-0.000157265
-0.000121209
-0.000132293
-0.00012437
-0.000106953
-0.00012606
-8.16517e-05
-0.000125739
-5.68291e-05
-0.000123365
-3.28911e-05
-0.0001191
-1.02005e-05
-0.000112724
1.07684e-05
-0.000103965
2.94572e-05
-9.29214e-05
4.55982e-05
-8.01416e-05
5.88544e-05
-6.5701e-05
6.88581e-05
-4.96666e-05
7.54294e-05
-3.27687e-05
7.84997e-05
-1.55077e-05
7.80872e-05
1.72131e-06
7.43882e-05
1.81285e-05
6.76986e-05
3.31142e-05
5.82587e-05
4.6612e-05
4.64254e-05
5.83167e-05
3.26759e-05
6.77762e-05
1.75155e-05
7.48783e-05
1.52399e-06
7.95653e-05
-1.50514e-05
8.23634e-05
-3.17627e-05
8.26609e-05
-4.81684e-05
8.13458e-05
-6.3876e-05
7.81771e-05
-7.8805e-05
7.45332e-05
-9.26759e-05
6.91664e-05
-0.000105364
6.32876e-05
-0.000116659
5.66466e-05
-0.000126498
4.90216e-05
-0.000134907
4.12092e-05
-0.000141441
3.17394e-05
-0.000146126
2.23278e-05
-0.000148328
1.12651e-05
-0.00014799
-2.74702e-07
-0.000145561
-9.12058e-06
-0.000142239
-1.01965e-05
-0.000140363
-6.75167e-07
-0.000141763
1.3985e-05
-0.000145237
2.32371e-05
-0.000149338
2.48245e-05
-0.000153203
1.98766e-05
-0.000155927
8.52232e-06
-0.000155697
-7.49538e-06
-0.000151447
-2.6992e-05
-0.000142865
-4.72932e-05
-0.000129672
-7.64387e-05
-0.000111755
-0.00013184
-0.000177054
-8.93751e-05
-0.000371314
0.000249202
-0.000410955
0.000236742
-0.000448565
0.000224917
-0.000483604
0.000209815
-0.000516142
0.000195073
-0.000546065
0.000179583
-0.000573414
0.000164294
-0.00059832
0.000149729
-0.000620809
0.000135286
-0.000641107
0.000122172
-0.000659244
0.000109201
-0.000675446
9.75788e-05
-0.000689745
8.61378e-05
-0.00070233
7.58406e-05
-0.000713223
6.5673e-05
-0.000722531
5.61636e-05
-0.000730369
4.73975e-05
-0.000736746
3.87715e-05
-0.00074171
3.06691e-05
-0.000745141
2.26619e-05
-0.000747281
1.45623e-05
-0.000748329
6.09412e-06
-0.000748152
-2.68324e-06
-0.000746335
-1.30266e-05
-0.000742701
-2.31117e-05
-0.000737251
-3.34263e-05
-0.000729938
-4.43083e-05
-0.000720726
-5.55457e-05
-0.00070952
-6.7392e-05
-0.00069633
-7.91737e-05
-0.000681069
-9.14578e-05
-0.000663886
-0.000102836