/*--------------------------------*- C++ -*----------------------------------*\
| =========                 |                                                 |
| \\      /  F ield         | OpenFOAM: The Open Source CFD Toolbox           |
|  \\    /   O peration     | Version:  3.0.1                                 |
|   \\  /    A nd           | Web:      www.OpenFOAM.org                      |
|    \\/     M anipulation  |                                                 |
\*---------------------------------------------------------------------------*/
FoamFile
{
    version     2.0;
    format      ascii;
    class       volScalarField;
    location    "61";
    object      p_rgh;
}
// * * * * * * * * * * * * * * * * * * * * * * * * * * * * * * * * * * * * * //

dimensions      [1 -1 -2 0 0 0 0];

internalField   nonuniform List<scalar> 
21420
(
102.148
135.239
167.991
199.946
230.682
259.593
286.23
310.112
330.861
348.174
361.782
371.459
377.067
378.363
375.414
368.31
357.194
342.147
323.424
301.299
276.131
248.272
218.108
186.093
152.634
118.17
83.1135
47.867
12.8115
-21.7747
-55.6792
-84.7696
-115.957
-145.495
-173.325
-199.364
-223.565
-245.899
-266.352
-284.941
-301.691
-316.641
-329.836
-341.326
-351.163
-359.396
-366.073
-371.235
-374.922
-377.162
-377.958
-377.329
-375.296
-371.814
-366.868
-360.448
-352.521
-343.026
-331.946
-319.224
-304.816
-288.675
-270.752
-251.028
-229.485
-206.122
-180.976
-154.119
-125.636
-95.6608
-64.3093
-31.6372
1.70577
35.5238
69.5519
103.454
136.888
169.489
200.877
230.684
258.54
284.078
306.948
326.822
343.391
356.394
365.619
370.907
372.101
369.291
362.431
351.659
337.089
318.955
297.512
273.061
245.938
216.504
185.144
152.262
118.271
83.5856
48.6214
13.7805
-20.5542
-54.0288
-86.3282
-117.189
-146.39
-173.76
-199.18
-222.58
-243.926
-263.223
-280.499
-295.799
-309.181
-320.712
-330.459
-338.483
-344.848
-349.609
-352.819
-354.536
-354.79
-353.606
-351.028
-347.114
-341.871
-335.315
-327.461
-318.326
-307.904
-296.192
-283.185
-268.863
-253.203
-236.184
-217.777
-197.956
-176.704
-154.011
-129.887
-104.361
-77.4933
-49.3853
-20.2292
10.6904
41.6216
73.1901
105.038
136.823
168.184
198.736
228.076
255.798
281.498
304.776
325.253
342.577
356.43
366.538
372.679
374.652
372.429
365.96
355.348
340.666
322.163
300.128
274.914
246.933
216.639
184.514
151.055
116.762
82.1164
47.5752
13.5568
-19.5602
-51.4887
-81.9632
-110.777
-137.775
-162.854
-185.954
-207.051
-226.152
-243.284
-258.489
-271.834
-283.394
-293.256
-301.522
-308.288
-313.652
-317.704
-320.525
-322.184
-322.746
-322.248
-320.717
-318.186
-314.679
-310.184
-304.68
-298.141
-290.525
-281.772
-271.827
-260.63
-248.113
-234.203
-218.832
-201.937
-183.458
-163.359
-141.626
-118.271
-93.3399
-66.9166
-39.1175
-10.0931
19.9739
50.9428
82.3583
113.998
145.521
176.545
206.666
235.455
262.477
287.299
309.504
328.695
344.518
356.668
364.904
369.055
368.939
364.705
356.323
343.921
327.753
308.106
285.335
259.834
232.031
202.376
171.321
139.315
106.787
74.149
41.7797
10.2022
-20.6187
-50.2624
-78.5311
-105.274
-130.383
-153.783
-175.435
-195.328
-213.475
-229.914
-244.695
-257.869
-269.495
-279.631
-288.328
-295.635
-301.599
-306.267
-309.697
-311.908
-312.88
-312.681
-311.474
-309.105
-305.536
-300.714
-294.551
-286.968
-277.888
-267.236
-254.942
-240.92
-225.066
-207.359
-187.747
-166.263
-142.915
-117.762
-90.9673
-62.7271
-33.313
-2.29899
35.5027
71.457
106.741
141.54
175.427
208.03
239.024
267.934
294.361
317.989
338.438
355.433
368.709
378.06
383.329
384.513
382.753
377.004
367.316
353.915
336.979
316.73
293.494
267.549
239.279
209.121
177.437
144.655
111.15
77.2766
43.3615
9.63356
-18.893
-50.8317
-81.388
-110.459
-137.941
-163.751
-187.814
-210.09
-230.551
-249.194
-266.038
-281.104
-294.428
-306.053
-316.019
-324.373
-331.153
-336.397
-340.135
-342.423
-343.254
-342.58
-340.409
-336.722
-331.52
-324.791
-316.469
-306.508
102.122
135.23
168.001
199.976
230.732
259.664
286.321
310.222
330.986
348.313
361.933
371.617
377.228
378.537
375.574
368.469
357.343
342.284
323.546
301.405
276.219
248.341
218.157
186.123
152.646
118.165
83.0926
47.8325
12.7666
-21.8246
-55.7175
-84.8729
-116.046
-145.582
-173.411
-199.45
-223.65
-245.982
-266.433
-285.02
-301.767
-316.714
-329.907
-341.394
-351.228
-359.459
-366.133
-371.294
-374.98
-377.219
-378.012
-377.385
-375.353
-371.871
-366.926
-360.508
-352.583
-343.09
-332.014
-319.294
-304.889
-288.751
-270.831
-251.108
-229.567
-206.204
-181.058
-154.199
-125.714
-95.7339
-64.3764
-31.6945
1.65837
35.4874
69.5278
103.443
136.892
169.509
200.913
230.737
258.61
284.165
307.05
326.939
343.522
356.535
365.768
371.061
372.264
369.441
362.578
351.798
337.218
319.07
297.611
273.144
246.002
216.55
185.172
152.272
118.262
83.5603
48.5803
13.7251
-20.6223
-54.1074
-86.4155
-117.283
-146.488
-173.86
-199.282
-222.68
-244.025
-263.319
-280.591
-295.888
-309.266
-320.794
-330.538
-338.559
-344.921
-349.68
-352.889
-354.604
-354.856
-353.668
-351.092
-347.177
-341.934
-335.377
-327.523
-318.389
-307.968
-296.257
-283.251
-268.93
-253.273
-236.255
-217.85
-198.032
-176.781
-154.088
-129.965
-104.438
-77.5682
-49.4539
-20.2757
10.6073
41.5643
73.1463
105.007
136.807
168.183
198.751
228.109
255.851
281.569
304.864
325.359
342.699
356.565
366.684
372.833
374.817
372.586
366.114
355.495
340.803
322.285
300.233
274.998
246.996
216.68
184.533
151.053
116.741
82.0774
47.5204
13.4887
-19.6381
-51.575
-82.0556
-110.873
-137.873
-162.952
-186.052
-207.147
-226.245
-243.374
-258.576
-271.917
-283.472
-293.33
-301.591
-308.354
-313.714
-317.762
-320.581
-322.237
-322.797
-322.298
-320.765
-318.235
-314.728
-310.234
-304.732
-298.195
-290.58
-281.83
-271.888
-260.695
-248.181
-234.274
-218.907
-202.015
-183.539
-163.441
-141.71
-118.355
-93.4222
-66.9965
-39.1933
-10.1627
19.9109
50.8902
82.3166
113.97
145.507
176.549
206.688
235.496
262.537
287.38
309.603
328.811
344.649
356.812
365.057
369.212
369.105
364.856
356.469
344.058
327.875
308.212
285.421
259.9
232.077
202.402
171.328
139.304
106.76
74.1072
41.7224
10.1393
-20.6927
-50.3425
-78.6152
-105.361
-130.47
-153.87
-175.521
-195.411
-213.556
-229.992
-244.768
-257.939
-269.562
-279.695
-288.389
-295.693
-301.655
-306.321
-309.747
-311.957
-312.927
-312.732
-311.523
-309.154
-305.588
-300.768
-294.608
-287.029
-277.953
-267.305
-255.016
-240.997
-225.147
-207.444
-187.833
-166.35
-143
-117.845
-91.0469
-62.8032
-33.3855
-2.37143
35.4682
71.4305
106.724
141.537
175.44
208.061
239.074
268.003
294.449
318.094
338.558
355.568
368.855
378.215
383.494
384.688
382.905
377.151
367.46
354.05
337.102
316.838
293.585
267.622
239.333
209.157
177.455
144.656
111.137
77.2513
43.3306
9.6083
-18.9841
-50.9131
-81.468
-110.541
-138.024
-163.833
-187.896
-210.172
-230.631
-249.272
-266.113
-281.177
-294.499
-306.121
-316.084
-324.436
-331.215
-336.457
-340.194
-342.481
-343.308
-342.637
-340.467
-336.781
-331.58
-324.852
-316.532
-306.573
102.071
135.211
168.02
200.035
230.834
259.807
286.504
310.441
331.238
348.591
362.233
371.933
377.552
378.884
375.895
368.786
357.64
342.558
323.791
301.616
276.394
248.478
218.256
186.183
152.669
118.154
83.0506
47.7636
12.6764
-21.9251
-55.7979
-85.0759
-116.222
-145.754
-173.583
-199.622
-223.82
-246.149
-266.596
-285.177
-301.919
-316.861
-330.047
-341.529
-351.358
-359.584
-366.255
-371.412
-375.094
-377.332
-378.122
-377.498
-375.465
-371.985
-367.043
-360.628
-352.706
-343.219
-332.147
-319.433
-305.034
-288.901
-270.986
-251.267
-229.729
-206.367
-181.22
-154.358
-125.866
-95.8773
-64.5078
-31.8061
1.56677
35.4178
69.4831
103.426
136.905
169.553
200.99
230.848
258.755
284.343
307.261
327.18
343.789
356.824
366.073
371.376
372.596
369.747
362.88
352.085
337.484
319.309
297.819
273.318
246.141
216.652
185.237
152.301
118.256
83.5207
48.5096
13.6258
-20.7465
-54.2524
-86.5774
-117.458
-146.671
-174.047
-199.47
-222.866
-244.207
-263.495
-280.761
-296.05
-309.421
-320.942
-330.679
-338.694
-345.051
-349.805
-353.01
-354.721
-354.97
-353.775
-351.2
-347.284
-342.038
-335.481
-327.628
-318.493
-308.074
-296.365
-283.362
-269.044
-253.391
-236.377
-217.976
-198.162
-176.914
-154.224
-130.101
-104.573
-77.699
-49.573
-20.346
10.4546
41.468
73.0759
104.962
136.79
168.197
198.798
228.192
255.969
281.724
305.055
325.583
342.955
356.849
366.99
373.154
375.16
372.908
366.435
355.801
341.087
322.54
300.452
275.178
247.133
216.774
184.583
151.062
116.71
82.0109
47.4226
13.3642
-19.7818
-51.7353
-82.2277
-111.053
-138.056
-163.136
-186.234
-207.325
-226.418
-243.54
-258.734
-272.067
-283.613
-293.462
-301.714
-308.468
-313.82
-317.861
-320.674
-322.326
-322.882
-322.38
-320.842
-318.315
-314.807
-310.314
-304.815
-298.282
-290.672
-281.928
-271.992
-260.805
-248.297
-234.398
-219.037
-202.152
-183.682
-163.588
-141.859
-118.504
-93.5695
-67.1391
-39.3282
-10.2861
19.8012
50.8006
82.2483
113.928
145.495
176.57
206.745
235.591
262.672
287.553
309.814
329.056
344.924
357.112
365.374
369.537
369.446
365.171
356.774
344.342
328.13
308.432
285.604
260.043
232.18
202.465
171.353
139.292
106.716
74.0345
41.6191
10.0241
-20.8297
-50.4913
-78.7721
-105.522
-130.633
-154.033
-175.681
-195.567
-213.706
-230.135
-244.905
-258.069
-269.686
-279.813
-288.501
-295.801
-301.757
-306.419
-309.839
-312.046
-313.015
-312.826
-311.615
-309.248
-305.685
-300.871
-294.719
-287.147
-278.079
-267.44
-255.16
-241.149
-225.308
-207.61
-188.003
-166.52
-143.168
-118.008
-91.2039
-62.9533
-33.5288
-2.51438
35.4008
71.3788
106.692
141.532
175.468
208.124
239.174
268.142
294.624
318.304
338.8
355.838
369.148
378.526
383.825
385.043
383.209
377.445
367.747
354.322
337.348
317.053
293.766
267.767
239.441
209.228
177.49
144.658
111.11
77.2006
43.2685
9.55898
-19.1678
-51.0755
-81.6278
-110.703
-138.188
-163.999
-188.061
-210.335
-230.79
-249.427
-266.264
-281.322
-294.639
-306.256
-316.215
-324.562
-331.337
-336.576
-340.313
-342.598
-343.417
-342.751
-340.582
-336.897
-331.698
-324.973
-316.657
-306.702
101.993
135.183
168.048
200.124
230.986
260.021
286.777
310.769
331.615
349.009
362.684
372.408
378.036
379.398
376.382
369.265
358.086
342.969
324.158
301.934
276.657
248.684
218.403
186.273
152.703
118.138
82.9874
47.6598
12.5405
-22.0774
-55.9263
-85.373
-116.486
-146.013
-173.842
-199.879
-224.075
-246.399
-266.84
-285.414
-302.148
-317.081
-330.259
-341.732
-351.553
-359.772
-366.436
-371.589
-375.267
-377.5
-378.287
-377.667
-375.634
-372.156
-367.217
-360.809
-352.891
-343.411
-332.348
-319.642
-305.251
-289.126
-271.218
-251.506
-229.972
-206.611
-181.463
-154.595
-126.095
-96.0929
-64.7055
-31.9736
1.42912
35.3131
69.4158
103.4
136.923
169.619
201.106
231.014
258.973
284.611
307.577
327.541
344.19
357.259
366.532
371.849
373.09
370.213
363.338
352.517
337.884
319.669
298.134
273.582
246.351
216.807
185.338
152.347
118.249
83.4636
48.4056
13.4791
-20.9307
-54.4676
-86.8182
-117.717
-146.943
-174.326
-199.75
-223.144
-244.478
-263.758
-281.013
-296.291
-309.651
-321.161
-330.888
-338.894
-345.243
-349.99
-353.189
-354.893
-355.136
-353.936
-351.361
-347.441
-342.193
-335.635
-327.783
-318.648
-308.231
-296.526
-283.525
-269.213
-253.565
-236.557
-218.162
-198.354
-177.111
-154.425
-130.303
-104.773
-77.8928
-49.7508
-20.4723
10.2513
41.3277
72.973
104.897
136.767
168.22
198.872
228.318
256.15
281.959
305.344
325.924
343.342
357.277
367.45
373.637
375.67
373.401
366.921
356.263
341.516
322.925
300.783
275.449
247.342
216.916
184.66
151.076
116.666
81.9133
47.2781
13.1795
-19.9952
-51.9737
-82.4839
-111.32
-138.329
-163.41
-186.504
-207.59
-226.674
-243.786
-258.969
-272.29
-283.823
-293.658
-301.896
-308.637
-313.977
-318.008
-320.812
-322.457
-323.007
-322.498
-320.958
-318.431
-314.924
-310.433
-304.939
-298.411
-290.808
-282.072
-272.146
-260.967
-248.47
-234.581
-219.231
-202.355
-183.894
-163.807
-142.081
-118.726
-93.7885
-67.3508
-39.5282
-10.4695
19.6386
50.6685
82.1479
113.867
145.479
176.604
206.833
235.736
262.876
287.815
310.132
329.427
345.34
357.564
365.852
370.028
369.953
365.652
357.235
344.77
328.515
308.766
285.881
260.26
232.336
202.561
171.392
139.278
106.653
73.9278
41.4687
9.85066
-21.0336
-50.7127
-79.0055
-105.763
-130.877
-154.275
-175.92
-195.799
-213.93
-230.35
-245.109
-258.262
-269.87
-279.989
-288.67
-295.961
-301.911
-306.566
-309.978
-312.178
-313.148
-312.966
-311.753
-309.389
-305.832
-301.026
-294.884
-287.324
-278.269
-267.643
-255.376
-241.378
-225.548
-207.859
-188.257
-166.776
-143.42
-118.253
-91.4395
-63.1787
-33.7442
-2.72891
35.2975
71.3006
106.643
141.524
175.509
208.219
239.325
268.35
294.887
318.619
339.164
356.243
369.588
378.993
384.321
385.563
383.67
377.89
368.18
354.73
337.716
317.376
294.038
267.985
239.603
209.334
177.543
144.661
111.068
77.1239
43.1738
9.48973
-19.4485
-51.3181
-81.8673
-110.946
-138.435
-164.247
-188.308
-210.579
-231.03
-249.66
-266.49
-281.54
-294.849
-306.459
-316.41
-324.751
-331.52
-336.756
-340.49
-342.772
-343.583
-342.923
-340.755
-337.072
-331.876
-325.156
-316.845
-306.896
101.889
135.146
168.085
200.242
231.188
260.307
287.142
311.208
332.117
349.566
363.285
373.041
378.684
380.071
377.042
369.903
358.681
343.517
324.647
302.356
277.008
248.959
218.6
186.393
152.749
118.116
82.9025
47.5208
12.3582
-22.2833
-56.1093
-85.7576
-116.835
-146.357
-174.186
-200.223
-224.415
-246.733
-267.166
-285.73
-302.452
-317.374
-330.54
-342.003
-351.813
-360.023
-366.679
-371.824
-375.496
-377.724
-378.509
-377.891
-375.858
-372.384
-367.449
-361.049
-353.138
-343.667
-332.615
-319.92
-305.54
-289.427
-271.529
-251.824
-230.296
-206.937
-181.787
-154.913
-126.4
-96.3809
-64.97
-32.1971
1.24529
35.173
69.3256
103.365
136.948
169.707
201.26
231.236
259.263
284.968
307.998
328.022
344.726
357.838
367.144
372.48
373.735
370.847
363.952
353.096
338.419
320.15
298.553
273.934
246.632
217.015
185.472
152.408
118.241
83.3878
48.2673
13.2837
-21.1762
-54.7544
-87.1391
-118.063
-147.305
-174.698
-200.123
-223.513
-244.839
-264.107
-281.349
-296.612
-309.958
-321.453
-331.166
-339.161
-345.498
-350.236
-353.427
-355.122
-355.356
-354.153
-351.575
-347.65
-342.399
-335.84
-327.989
-318.854
-308.44
-296.739
-283.743
-269.437
-253.797
-236.797
-218.411
-198.61
-177.373
-154.692
-130.572
-105.04
-78.1511
-49.99
-20.6659
10.0059
41.1432
72.8365
104.811
136.737
168.252
198.97
228.486
256.391
282.273
305.73
326.378
343.859
357.848
368.065
374.283
376.335
374.071
367.575
356.882
342.09
323.439
301.226
275.813
247.62
217.107
184.764
151.096
116.607
81.7834
47.0856
12.9332
-20.2794
-52.2914
-82.8254
-111.676
-138.693
-163.775
-186.865
-207.942
-227.016
-244.114
-259.283
-272.586
-284.101
-293.918
-302.138
-308.861
-314.185
-318.203
-320.995
-322.63
-323.172
-322.656
-321.114
-318.585
-315.079
-310.591
-305.102
-298.582
-290.988
-282.263
-272.35
-261.184
-248.7
-234.825
-219.488
-202.626
-184.176
-164.098
-142.377
-119.022
-94.0804
-67.6331
-39.7945
-10.7138
19.4209
50.4931
82.0142
113.785
145.458
176.65
206.951
235.931
263.149
288.166
310.558
329.921
345.895
358.167
366.49
370.684
370.623
366.301
357.851
345.343
329.029
309.212
286.252
260.55
232.545
202.69
171.444
139.258
106.568
73.7861
41.2872
9.60069
-21.3058
-51.0078
-79.3166
-106.083
-131.201
-154.598
-176.238
-196.108
-214.227
-230.635
-245.38
-258.52
-270.116
-280.224
-288.894
-296.175
-302.115
-306.762
-310.164
-312.356
-313.326
-313.15
-311.935
-309.577
-306.027
-301.233
-295.105
-287.561
-278.521
-267.913
-255.664
-241.683
-225.869
-208.191
-188.597
-167.117
-143.756
-118.581
-91.7538
-63.4794
-34.0322
-3.01601
35.1619
71.1958
106.577
141.512
175.564
208.344
239.526
268.627
295.238
319.04
339.648
356.783
370.174
379.615
384.976
386.233
384.301
378.493
368.761
355.275
338.209
317.807
294.4
268.275
239.818
209.476
177.614
144.664
111.013
77.0205
43.0443
9.38788
-19.8139
-51.6393
-82.1863
-111.271
-138.764
-164.578
-188.638
-210.905
-231.349
-249.971
-266.791
-281.831
-295.13
-306.729
-316.671
-325.002
-331.765
-336.994
-340.725
-343.001
-343.808
-343.152
-340.984
-337.305
-332.113
-325.399
-317.095
-307.155
101.757
135.098
168.132
200.39
231.442
260.665
287.599
311.756
332.746
350.262
364.037
373.834
379.497
380.902
377.873
370.699
359.427
344.203
325.259
302.885
277.447
249.302
218.846
186.543
152.806
118.087
82.7957
47.3461
12.1287
-22.5446
-56.3533
-86.2239
-117.27
-146.788
-174.617
-200.653
-224.841
-247.151
-267.573
-286.124
-302.833
-317.74
-330.892
-342.341
-352.138
-360.336
-366.982
-372.118
-375.783
-378.004
-378.788
-378.17
-376.139
-372.668
-367.74
-361.349
-353.446
-343.988
-332.948
-320.268
-305.902
-289.803
-271.917
-252.222
-230.701
-207.345
-182.193
-155.31
-126.782
-96.7416
-65.3016
-32.4771
1.015
34.9975
69.2122
103.32
136.978
169.816
201.452
231.512
259.625
285.414
308.525
328.625
345.395
358.564
367.91
373.27
374.533
371.645
364.721
353.82
339.089
320.752
299.078
274.375
246.983
217.274
185.639
152.485
118.229
83.2927
48.094
13.0389
-21.4838
-55.1135
-87.5408
-118.496
-147.759
-175.162
-200.59
-223.975
-245.291
-264.545
-281.769
-297.014
-310.341
-321.819
-331.515
-339.493
-345.818
-350.544
-353.724
-355.408
-355.631
-354.425
-351.841
-347.912
-342.656
-336.097
-328.245
-319.112
-308.701
-297.005
-284.015
-269.717
-254.087
-237.097
-218.721
-198.93
-177.701
-155.027
-130.909
-105.374
-78.4748
-50.2921
-20.9259
9.71603
40.9147
72.6658
104.703
136.698
168.291
199.092
228.697
256.693
282.667
306.213
326.947
344.506
358.563
368.836
375.092
377.162
374.911
368.396
357.658
342.809
324.083
301.781
276.268
247.969
217.345
184.893
151.121
116.533
81.6205
46.8444
12.6241
-20.6351
-52.6895
-83.2528
-112.122
-139.148
-164.231
-187.315
-208.383
-227.444
-244.525
-259.675
-272.957
-284.45
-294.243
-302.44
-309.142
-314.446
-318.446
-321.223
-322.847
-323.377
-322.854
-321.308
-318.778
-315.272
-310.788
-305.307
-298.797
-291.214
-282.503
-272.604
-261.454
-248.987
-235.13
-219.811
-202.964
-184.529
-164.462
-142.747
-119.392
-94.4459
-67.9865
-40.1277
-11.0196
19.1473
50.2735
81.8462
113.683
145.431
176.706
207.098
236.173
263.489
288.604
311.09
330.54
346.589
358.923
367.29
371.507
371.455
367.119
358.625
346.06
329.673
309.77
286.715
260.912
232.806
202.85
171.509
139.234
106.462
73.6083
41.0561
9.29111
-21.6466
-51.377
-79.7059
-106.484
-131.606
-155.002
-176.635
-196.495
-214.6
-230.992
-245.719
-258.843
-270.423
-280.517
-289.174
-296.443
-302.371
-307.006
-310.396
-312.579
-313.551
-313.376
-312.164
-309.811
-306.272
-301.492
-295.381
-287.856
-278.837
-268.251
-256.025
-242.064
-226.27
-208.608
-189.022
-167.544
-144.176
-118.99
-92.1467
-63.8554
-34.3935
-3.37597
34.993
71.0635
106.493
141.497
175.631
208.501
239.777
268.974
295.677
319.567
340.255
357.459
370.907
380.393
385.789
387.052
385.098
379.256
369.49
355.957
338.824
318.345
294.853
268.638
240.088
209.653
177.701
144.668
110.942
76.8893
42.8771
9.24258
-20.2535
-52.0374
-82.5845
-111.676
-139.176
-164.993
-189.051
-211.312
-231.749
-250.36
-267.168
-282.195
-295.48
-307.067
-316.997
-325.317
-332.071
-337.293
-341.018
-343.287
-344.091
-343.438
-341.272
-337.595
-332.41
-325.703
-317.408
-307.478
101.599
135.039
168.186
200.567
231.746
261.094
288.147
312.415
333.501
351.099
364.941
374.786
380.477
381.898
378.868
371.654
360.322
345.026
325.994
303.52
277.973
249.714
219.141
186.722
152.874
118.052
82.6663
47.1351
11.8508
-22.8634
-56.664
-86.7669
-117.788
-147.304
-175.135
-201.17
-225.352
-247.653
-268.062
-286.598
-303.29
-318.18
-331.314
-342.746
-352.528
-360.712
-367.345
-372.471
-376.127
-378.34
-379.123
-378.504
-376.476
-373.009
-368.088
-361.708
-353.817
-344.373
-333.348
-320.685
-306.337
-290.254
-272.383
-252.701
-231.187
-207.836
-182.68
-155.788
-127.242
-97.1755
-65.7003
-32.8143
0.737939
34.7861
69.0752
103.266
137.014
169.947
201.682
231.844
260.059
285.95
309.158
329.348
346.199
359.435
368.83
374.22
375.492
372.602
365.644
354.691
339.893
321.475
299.708
274.903
247.405
217.585
185.84
152.577
118.215
83.178
47.8851
12.7441
-21.8542
-55.5455
-88.0239
-119.018
-148.305
-175.721
-201.152
-224.53
-245.834
-265.069
-282.273
-297.495
-310.801
-322.257
-331.932
-339.893
-346.201
-350.913
-354.08
-355.751
-355.964
-354.752
-352.16
-348.225
-342.966
-336.404
-328.553
-319.422
-309.014
-297.324
-284.342
-270.054
-254.434
-237.457
-219.093
-199.314
-178.096
-155.429
-131.313
-105.776
-78.8645
-50.6581
-21.2516
9.37968
40.6419
72.4603
104.572
136.651
168.337
199.239
228.949
257.054
283.138
306.793
327.63
345.284
359.423
369.762
376.065
378.158
375.919
369.38
358.592
343.673
324.857
302.447
276.814
248.386
217.631
185.048
151.149
116.443
81.4238
46.5537
12.251
-21.0624
-53.1687
-83.767
-112.658
-139.695
-164.779
-187.857
-208.913
-227.957
-245.018
-260.146
-273.403
-284.868
-294.634
-302.804
-309.478
-314.759
-318.738
-321.497
-323.106
-323.624
-323.092
-321.541
-319.009
-315.505
-311.024
-305.552
-299.054
-291.485
-282.791
-272.91
-261.78
-249.332
-235.496
-220.199
-203.371
-184.953
-164.9
-143.192
-119.838
-94.8855
-68.4113
-40.5285
-11.3873
18.8184
50.0079
81.6431
113.559
145.397
176.773
207.273
236.463
263.898
289.131
311.729
331.284
347.424
359.832
368.251
372.497
372.452
368.101
359.555
346.922
330.447
310.441
287.27
261.348
233.118
203.042
171.586
139.203
106.333
73.3935
40.773
8.9232
-22.0563
-51.8211
-80.1737
-106.966
-132.094
-155.488
-177.113
-196.959
-215.048
-231.42
-246.127
-259.23
-270.792
-280.869
-289.51
-296.764
-302.679
-307.3
-310.676
-312.847
-313.82
-313.646
-312.437
-310.092
-306.565
-301.802
-295.713
-288.211
-279.216
-268.657
-256.457
-242.522
-226.752
-209.107
-189.532
-168.058
-144.681
-119.482
-92.6183
-64.3065
-34.8289
-3.80978
34.7947
70.9031
106.39
141.477
175.711
208.688
240.078
269.39
296.203
320.199
340.983
358.272
371.788
381.326
386.761
388.031
386.056
380.179
370.369
356.776
339.564
318.992
295.396
269.073
240.41
209.864
177.805
144.671
110.856
76.7293
42.6694
9.04526
-20.7592
-52.5109
-83.0615
-112.163
-139.671
-165.49
-189.547
-211.802
-232.228
-250.827
-267.62
-282.632
-295.901
-307.472
-317.388
-325.695
-332.437
-337.65
-341.369
-343.63
-344.432
-343.78
-341.616
-337.945
-332.765
-326.067
-317.784
-307.866
101.412
134.969
168.248
200.772
232.101
261.595
288.788
313.184
334.383
352.076
365.997
375.899
381.624
383.062
380.025
372.767
361.368
345.988
326.852
304.261
278.587
250.193
219.484
186.93
152.952
118.009
82.5137
46.887
11.5238
-23.2421
-57.0453
-87.3834
-118.389
-147.906
-175.739
-201.773
-225.949
-248.238
-268.633
-287.151
-303.824
-318.693
-331.807
-343.22
-352.983
-361.151
-367.769
-372.883
-376.528
-378.733
-379.513
-378.893
-376.868
-373.407
-368.495
-362.127
-354.248
-344.822
-333.815
-321.172
-306.844
-290.78
-272.927
-253.259
-231.756
-208.408
-183.25
-156.346
-127.779
-97.6831
-66.1668
-33.209
0.413671
34.5384
68.9142
103.202
137.054
170.099
201.95
232.231
260.565
286.574
309.897
330.192
347.138
360.452
369.905
375.33
376.614
373.719
366.722
355.708
340.832
322.319
300.443
275.519
247.896
217.948
186.073
152.683
118.198
83.0431
47.6398
12.3984
-22.2881
-56.0513
-88.5892
-119.627
-148.944
-176.374
-201.808
-225.179
-246.467
-265.682
-282.862
-298.058
-311.337
-322.768
-332.42
-340.359
-346.648
-351.343
-354.495
-356.152
-356.352
-355.131
-352.532
-348.591
-343.327
-336.763
-328.912
-319.783
-309.379
-297.696
-284.724
-270.446
-254.84
-237.877
-219.528
-199.762
-178.557
-155.898
-131.787
-106.245
-79.321
-51.0891
-21.6421
8.99482
40.3245
72.2198
104.418
136.595
168.389
199.408
229.243
257.475
283.688
307.469
328.426
346.191
360.426
370.844
377.202
379.325
377.094
370.529
359.683
344.682
325.761
303.225
277.452
248.874
217.964
185.227
151.181
116.337
81.1924
46.2127
11.8131
-21.5623
-53.7299
-84.3686
-113.285
-140.334
-165.419
-188.49
-209.531
-228.556
-245.594
-260.695
-273.923
-285.357
-295.09
-303.227
-309.871
-315.124
-319.079
-321.817
-323.409
-323.913
-323.37
-321.814
-319.278
-315.775
-311.299
-305.838
-299.354
-291.802
-283.127
-273.267
-262.159
-249.735
-235.923
-220.651
-203.847
-185.449
-165.411
-143.712
-120.359
-95.3997
-68.908
-40.9977
-11.8176
18.4417
49.6874
81.4041
113.413
145.357
176.85
207.477
236.802
264.374
289.744
312.475
332.152
348.399
360.893
369.375
373.655
373.617
369.247
360.643
347.93
331.351
311.223
287.919
261.855
233.482
203.265
171.675
139.166
106.182
73.1407
40.437
8.49636
-22.5352
-52.3405
-80.7207
-107.529
-132.663
-156.055
-177.67
-197.501
-215.57
-231.919
-246.602
-259.682
-271.222
-281.279
-289.903
-297.139
-303.037
-307.643
-311.003
-313.162
-314.133
-313.958
-312.755
-310.419
-306.907
-302.163
-296.099
-288.624
-279.658
-269.13
-256.962
-243.056
-227.315
-209.691
-190.128
-168.659
-145.272
-120.056
-93.1686
-64.8328
-35.3397
-4.3179
34.5706
70.7139
106.267
141.452
175.803
208.906
240.429
269.876
296.818
320.937
341.834
359.22
372.817
382.416
387.891
389.17
387.175
381.26
371.398
357.733
340.428
319.746
296.031
269.58
240.786
210.11
177.926
144.674
110.754
76.5393
42.419
8.78946
-21.3259
-53.0584
-83.6172
-112.732
-140.248
-166.071
-190.126
-212.373
-232.788
-251.372
-268.148
-283.141
-296.392
-307.945
-317.844
-326.136
-332.865
-338.067
-341.778
-344.031
-344.83
-344.179
-342.018
-338.352
-333.18
-326.492
-318.222
-308.319
101.196
134.886
168.317
201.006
232.506
262.168
289.52
314.063
335.391
353.194
367.205
377.173
382.938
384.396
381.345
374.04
362.564
347.088
327.834
305.108
279.289
250.741
219.875
187.167
153.04
117.958
82.3373
46.601
11.1468
-23.6825
-57.5003
-88.072
-119.072
-148.593
-176.43
-202.463
-226.631
-248.908
-269.286
-287.784
-304.433
-319.279
-332.37
-343.76
-353.503
-361.651
-368.253
-373.353
-376.987
-379.182
-379.959
-379.337
-377.317
-373.861
-368.959
-362.606
-354.742
-345.336
-334.348
-321.728
-307.423
-291.382
-273.55
-253.897
-232.406
-209.064
-183.902
-156.985
-128.395
-98.2649
-66.702
-33.6612
0.0418109
34.2537
68.7289
103.127
137.099
170.271
202.255
232.672
261.143
287.287
310.741
331.158
348.212
361.616
371.136
376.601
377.899
374.995
367.955
356.872
341.906
323.284
301.284
276.224
248.456
218.361
186.338
152.802
118.176
82.8871
47.3576
12.0014
-22.7862
-56.6314
-89.2376
-120.326
-149.675
-177.123
-202.559
-225.922
-247.193
-266.384
-283.535
-298.701
-311.951
-323.353
-332.978
-340.892
-347.159
-351.835
-354.969
-356.61
-356.797
-355.566
-352.958
-349.008
-343.74
-337.173
-329.323
-320.196
-309.797
-298.122
-285.16
-270.895
-255.304
-238.358
-220.025
-200.276
-179.084
-156.436
-132.328
-106.784
-79.8449
-51.5856
-22.0968
8.55947
39.9622
71.9434
104.241
136.53
168.447
199.601
229.577
257.956
284.316
308.242
329.338
347.229
361.575
372.082
378.505
380.662
378.439
371.844
360.932
345.838
326.796
304.116
278.181
249.43
218.343
185.43
151.215
116.213
80.9255
45.8207
11.3104
-22.1363
-54.374
-85.0585
-114.003
-141.066
-166.153
-189.214
-210.239
-229.242
-246.254
-261.324
-274.519
-285.916
-295.612
-303.712
-310.32
-315.541
-319.468
-322.183
-323.755
-324.242
-323.688
-322.124
-319.586
-316.084
-311.614
-306.164
-299.697
-292.164
-283.511
-273.675
-262.593
-250.195
-236.412
-221.168
-204.391
-186.016
-165.996
-144.307
-120.957
-95.9887
-69.4773
-41.5358
-12.311
18.012
49.3159
81.1287
113.243
145.308
176.935
207.708
237.187
264.917
290.445
313.328
333.145
349.515
362.109
370.662
374.982
374.952
370.557
361.889
349.083
332.386
312.119
288.66
262.435
233.896
203.519
171.774
139.121
106.006
72.8492
40.0471
8.01007
-23.0842
-52.9358
-81.3474
-108.174
-133.315
-156.704
-178.308
-198.122
-216.168
-232.49
-247.145
-260.198
-271.713
-281.748
-290.351
-297.568
-303.447
-308.034
-311.377
-313.523
-314.491
-314.313
-313.118
-310.793
-307.297
-302.575
-296.541
-289.097
-280.164
-269.671
-257.54
-243.668
-227.959
-210.36
-190.811
-169.346
-145.948
-120.712
-93.7977
-65.4338
-35.9259
-4.90137
34.3138
70.4939
106.123
141.421
175.906
209.153
240.828
270.43
297.521
321.781
342.806
360.306
373.995
383.663
389.183
390.47
388.457
382.5
372.577
358.829
341.416
320.609
296.756
270.159
241.215
210.39
178.062
144.675
110.634
76.3181
42.1236
8.47077
-21.9504
-53.6788
-84.2514
-113.382
-140.909
-166.736
-190.788
-213.027
-233.429
-251.995
-268.751
-283.723
-296.953
-308.485
-318.365
-326.639
-333.353
-338.543
-342.244
-344.489
-345.285
-344.635
-342.477
-338.817
-333.654
-326.978
-318.722
-308.836
100.95
134.79
168.393
201.268
232.961
262.813
290.345
315.054
336.527
354.453
368.566
378.609
384.418
385.897
382.831
375.472
363.912
348.326
328.94
306.061
280.08
251.357
220.315
187.433
153.137
117.897
82.1361
46.2759
10.7185
-24.1853
-58.0317
-88.8324
-119.837
-149.366
-177.208
-203.24
-227.4
-249.663
-270.021
-288.495
-305.12
-319.938
-333.003
-344.368
-354.088
-362.215
-368.798
-373.882
-377.503
-379.688
-380.46
-379.837
-377.821
-374.371
-369.482
-363.143
-355.298
-345.913
-334.948
-322.354
-308.075
-292.059
-274.251
-254.617
-233.139
-209.803
-184.636
-157.706
-129.089
-98.9214
-67.3075
-34.1703
-0.378068
33.9313
68.5187
103.041
137.148
170.464
202.596
233.167
261.793
288.09
311.692
332.245
349.421
362.927
372.523
378.035
379.35
376.432
369.343
358.184
343.116
324.371
302.23
277.016
249.087
218.826
186.636
152.936
118.151
82.7094
47.0376
11.5522
-23.3496
-57.2867
-89.9701
-121.115
-150.501
-177.967
-203.407
-226.759
-248.01
-267.174
-284.293
-299.426
-312.641
-324.011
-333.606
-341.492
-347.734
-352.388
-355.503
-357.127
-357.297
-356.054
-353.436
-349.478
-344.205
-337.635
-329.784
-320.661
-310.267
-298.6
-285.651
-271.4
-255.826
-238.898
-220.585
-200.854
-179.679
-157.042
-132.94
-107.391
-80.437
-52.1485
-22.6157
8.07221
39.5542
71.6307
104.039
136.454
168.511
199.815
229.952
258.495
285.022
309.112
330.364
348.399
362.87
373.479
379.974
382.17
379.955
373.326
362.341
347.141
327.962
305.119
279.002
250.056
218.769
185.658
151.251
116.071
80.6221
45.3769
10.7543
-22.7981
-55.1023
-85.8374
-114.814
-141.892
-166.979
-190.03
-211.036
-230.015
-246.996
-262.033
-275.19
-286.546
-296.199
-304.257
-310.826
-316.01
-319.906
-322.594
-324.144
-324.614
-324.046
-322.473
-319.931
-316.431
-311.969
-306.531
-300.082
-292.572
-283.943
-274.134
-263.081
-250.714
-236.962
-221.75
-205.004
-186.656
-166.656
-144.979
-121.63
-96.6532
-70.1201
-42.1437
-12.8685
17.5248
48.8961
80.8161
113.05
145.251
177.029
207.967