/*--------------------------------*- C++ -*----------------------------------*\
| =========                 |                                                 |
| \\      /  F ield         | OpenFOAM: The Open Source CFD Toolbox           |
|  \\    /   O peration     | Version:  3.0.1                                 |
|   \\  /    A nd           | Web:      www.OpenFOAM.org                      |
|    \\/     M anipulation  |                                                 |
\*---------------------------------------------------------------------------*/
FoamFile
{
    version     2.0;
    format      ascii;
    class       surfaceScalarField;
    location    "43.8";
    object      alphaPhi;
}
// * * * * * * * * * * * * * * * * * * * * * * * * * * * * * * * * * * * * * //

dimensions      [0 3 -1 0 0 0 0];

internalField   nonuniform List<scalar> 
42423
(
-0.000130641
3.77303e-06
-0.000133609
2.96821e-06
-0.00013584
2.23077e-06
-0.000137366
1.52542e-06
-0.000138219
8.53424e-07
-0.00013841
1.90956e-07
-0.000137838
-5.72044e-07
-0.000136564
-1.27387e-06
-0.00013469
-1.8739e-06
-0.00013207
-2.62026e-06
-0.000128749
-3.32123e-06
-0.000124798
-3.95018e-06
-0.000120073
-4.72507e-06
-0.00011467
-5.40358e-06
-0.000108409
-6.26119e-06
-0.000101424
-6.9851e-06
-9.37297e-05
-7.69385e-06
-8.51538e-05
-8.57591e-06
-7.57527e-05
-9.40114e-06
-6.56409e-05
-1.01118e-05
-5.45211e-05
-1.11199e-05
-4.24448e-05
-1.20763e-05
-2.96583e-05
-1.27865e-05
-1.59524e-05
-1.37059e-05
-1.45612e-06
-1.44963e-05
1.38788e-05
-1.53349e-05
3.00382e-05
-1.61594e-05
4.66568e-05
-1.66187e-05
6.39426e-05
-1.72858e-05
8.17575e-05
-1.78149e-05
9.97094e-05
-1.79519e-05
0.000117863
-1.81534e-05
0.000135955
-1.80921e-05
0.00015375
-1.77948e-05
0.000171092
-1.73422e-05
0.000187589
-1.6497e-05
0.000203064
-1.5475e-05
0.000217309
-1.42454e-05
0.000229973
-1.26639e-05
0.000240965
-1.09918e-05
0.000249996
-9.03129e-06
0.000256926
-6.92965e-06
0.000261643
-4.71759e-06
0.000263981
-2.33844e-06
0.00026399
-8.61154e-09
0.00026164
2.35031e-06
0.000256781
4.85864e-06
0.000249727
7.05378e-06
0.00024056
9.16759e-06
0.000229356
1.12036e-05
0.000216361
1.29954e-05
0.000201786
1.45744e-05
0.000185954
1.58327e-05
0.000169049
1.69044e-05
0.000151306
1.77436e-05
0.000133006
1.83e-05
0.000114417
1.85885e-05
9.56858e-05
1.87313e-05
7.71254e-05
1.85604e-05
5.88518e-05
1.82736e-05
4.12202e-05
1.76316e-05
2.40889e-05
1.71313e-05
7.79426e-06
1.62946e-05
-7.7291e-06
1.55234e-05
-2.23314e-05
1.46023e-05
-3.59943e-05
1.36628e-05
-4.86927e-05
1.26985e-05
-6.04655e-05
1.17727e-05
-7.1282e-05
1.08166e-05
-8.12337e-05
9.95166e-06
-9.03246e-05
9.09086e-06
-9.85968e-05
8.27223e-06
-0.000106148
7.55104e-06
-0.000113031
6.88296e-06
-0.000119259
6.22835e-06
-0.000124949
5.69022e-06
-0.000130061
5.11125e-06
-0.000134651
4.59037e-06
-0.000138749
4.09814e-06
-0.000142269
3.52011e-06
-0.000145176
2.90671e-06
-0.000147437
2.26091e-06
-0.000148912
1.47507e-06
-0.000149536
6.24096e-07
-0.000149211
-3.25806e-07
-0.000147958
-1.25294e-06
-0.000145735
-2.22291e-06
-0.00014255
-3.18485e-06
-0.000138401
-4.14995e-06
-0.000133252
-5.14892e-06
-0.000127075
-6.17661e-06
-0.00012007
-7.0055e-06
-0.000111946
-8.12435e-06
-0.000102813
-9.13267e-06
-9.26616e-05
-1.01517e-05
-8.14662e-05
-1.11955e-05
-6.92476e-05
-1.22187e-05
-5.6034e-05
-1.32137e-05
-4.20071e-05
-1.40269e-05
-2.72851e-05
-1.47221e-05
-1.19863e-05
-1.52988e-05
3.71317e-06
-1.56995e-05
1.97739e-05
-1.60608e-05
3.613e-05
-1.63561e-05
5.26381e-05
-1.65081e-05
6.93291e-05
-1.66911e-05
8.60619e-05
-1.67329e-05
0.000102798
-1.67365e-05
0.000119481
-1.66825e-05
0.000135968
-1.64876e-05
0.000152112
-1.61439e-05
0.000167751
-1.5639e-05
0.000182684
-1.49323e-05
0.000196699
-1.4015e-05
0.000209615
-1.2916e-05
0.000221223
-1.16084e-05
0.000231307
-1.00837e-05
0.000239662
-8.3557e-06
0.00024613
-6.46706e-06
0.000250513
-4.38308e-06
0.000252758
-2.24554e-06
0.000252824
-6.57256e-08
0.000250614
2.20992e-06
0.000246104
4.51005e-06
0.000239369
6.7346e-06
0.000230559
8.81016e-06
0.000219808
1.07517e-05
0.000207205
1.26028e-05
0.000193067
1.41379e-05
0.00017761
1.54573e-05
0.000161056
1.65535e-05
0.000143715
1.73408e-05
0.000125796
1.7919e-05
0.000107599
1.81974e-05
8.93386e-05
1.82604e-05
7.13101e-05
1.80285e-05
5.37014e-05
1.76087e-05
3.67571e-05
1.69443e-05
2.0466e-05
1.62911e-05
5.1122e-06
1.53538e-05
-9.2867e-06
1.43989e-05
-2.26299e-05
1.33432e-05
-3.48918e-05
1.22619e-05
-4.60564e-05
1.11647e-05
-5.61285e-05
1.0072e-05
-6.51873e-05
9.05887e-06
-7.31769e-05
7.98954e-06
-8.01549e-05
6.97804e-06
-8.63009e-05
6.14603e-06
-9.1499e-05
5.19805e-06
-9.58603e-05
4.36131e-06
-9.9557e-05
3.69677e-06
-0.000102503
2.94629e-06
-0.0001048
2.29714e-06
-0.000106454
1.65348e-06
-0.000107566
1.11196e-06
-0.00010818
6.14532e-07
-0.000108362
1.81632e-07
-0.000108029
-3.33209e-07
-0.000107257
-7.71475e-07
-0.000106104
-1.15293e-06
-0.000104494
-1.61038e-06
-0.000102618
-1.87569e-06
-0.00010035
-2.26813e-06
-9.77314e-05
-2.61873e-06
-9.47535e-05
-2.97797e-06
-9.14205e-05
-3.3329e-06
-8.75903e-05
-3.83024e-06
-8.3335e-05
-4.25535e-06
-7.85767e-05
-4.75826e-06
-7.32597e-05
-5.31705e-06
-6.74002e-05
-5.85943e-06
-6.1027e-05
-6.37327e-06
-5.4066e-05
-6.96098e-06
-4.65239e-05
-7.54215e-06
-3.83868e-05
-8.13709e-06
-2.9719e-05
-8.66787e-06
-2.03826e-05
-9.3364e-06
-1.03851e-05
-9.99746e-06
3.04019e-07
-1.06892e-05
1.16941e-05
-1.13901e-05
2.37837e-05
-1.20896e-05
3.64648e-05
-1.26812e-05
4.97881e-05
-1.33233e-05
6.36044e-05
-1.38163e-05
7.78937e-05
-1.42894e-05
9.25863e-05
-1.46927e-05
0.000107563
-1.49763e-05
0.000122738
-1.5175e-05
0.000137946
-1.52088e-05
0.000152974
-1.50279e-05
0.000167647
-1.46731e-05
0.000181724
-1.4077e-05
0.000194925
-1.32012e-05
0.000206988
-1.20622e-05
0.000217707
-1.07196e-05
0.000226845
-9.13828e-06
0.000234167
-7.32131e-06
0.000239512
-5.34561e-06
0.000242767
-3.25465e-06
0.000243896
-1.12914e-06
0.000242908
9.87689e-07
0.000239716
3.19252e-06
0.000234408
5.30759e-06
0.00022714
7.26808e-06
0.000218088
9.05179e-06
0.000207327
1.0761e-05
0.000195097
1.22303e-05
0.000181677
1.34198e-05
0.000167244
1.44337e-05
0.000152121
1.51228e-05
0.000136492
1.56286e-05
0.000120667
1.58249e-05
0.000104784
1.58827e-05
8.9131e-05
1.56534e-05
7.3834e-05
1.52971e-05
5.89898e-05
1.48442e-05
4.4759e-05
1.42309e-05
3.11901e-05
1.35689e-05
1.84512e-05
1.27388e-05
6.49377e-06
1.19574e-05
-4.5805e-06
1.10743e-05
-1.48161e-05
1.02356e-05
-2.42177e-05
9.40163e-06
-3.2894e-05
8.6763e-06
-4.07711e-05
7.87708e-06
-4.79846e-05
7.2135e-06
-5.46046e-05
6.61997e-06
-6.05864e-05
5.98187e-06
-6.60071e-05
5.42063e-06
-7.09927e-05
4.98569e-06
-7.55522e-05
4.55944e-06
-7.96165e-05
4.0643e-06
-8.32341e-05
3.61761e-06
-8.65234e-05
3.28936e-06
-8.93539e-05
2.83051e-06
-9.18673e-05
2.51337e-06
-9.38947e-05
2.0274e-06
-9.57105e-05
1.81577e-06
-9.70838e-05
1.37337e-06
-9.80382e-05
9.54407e-07
-9.86842e-05
6.45964e-07
-9.8864e-05
1.798e-07
-9.87538e-05
-1.10139e-07
-9.8192e-05
-5.6184e-07
-9.72109e-05
-9.81113e-07
-9.57452e-05
-1.46569e-06
-9.3858e-05
-1.88717e-06
-9.13702e-05
-2.48785e-06
-8.83079e-05
-3.06226e-06
-8.46021e-05
-3.70587e-06
-8.00971e-05
-4.50492e-06
-7.49727e-05
-5.12445e-06
-6.90309e-05
-5.94178e-06
-6.23256e-05
-6.70534e-06
-5.49174e-05
-7.40828e-06
-4.67538e-05
-8.16361e-06
-3.78795e-05
-8.87426e-06
-2.81304e-05
-9.74915e-06
-1.7634e-05
-1.04964e-05
-6.33797e-06
-1.12961e-05
5.79039e-06
-1.21284e-05
1.87689e-05
-1.29785e-05
3.25508e-05
-1.37819e-05
4.69792e-05
-1.44285e-05
6.191e-05
-1.49308e-05
7.73042e-05
-1.53943e-05
9.29327e-05
-1.56286e-05
0.000108788
-1.58557e-05
0.000124808
-1.60198e-05
0.000140899
-1.60916e-05
0.000157034
-1.61345e-05
0.00017311
-1.60769e-05
0.000189056
-1.59458e-05
0.00020467
-1.56148e-05
0.000219619
-1.49493e-05
0.000233581
-1.3962e-05
0.000246235
-1.26535e-05
0.000257054
-1.082e-05
0.000265805
-8.75112e-06
0.000272091
-6.28605e-06
0.000275541
-3.44993e-06
0.000275639
-9.79868e-08
0.000272716
2.9227e-06
0.000266999
5.71691e-06
0.000258805
8.19457e-06
0.000248024
1.07808e-05
0.000235049
1.29749e-05
0.000220007
1.50418e-05
0.000203489
1.65182e-05
0.000185789
1.76997e-05
0.000167245
1.85438e-05
0.000148462
1.87835e-05
0.000129643
1.88183e-05
0.000111034
1.86096e-05
9.30049e-05
1.80287e-05
7.5599e-05
1.74059e-05
5.89409e-05
1.6658e-05
4.31759e-05
1.5765e-05
2.82683e-05
1.49077e-05
1.43676e-05
1.39006e-05
1.50481e-06
1.28628e-05
-1.09734e-05
1.24783e-05
-2.24508e-05
1.14773e-05
-3.30264e-05
1.05756e-05
-4.27295e-05
9.70307e-06
-5.15764e-05
8.84697e-06
-5.96324e-05
8.05591e-06
-6.69262e-05
7.29384e-06
-7.35286e-05
6.60243e-06
-7.9488e-05
5.95939e-06
-8.48485e-05
5.36051e-06
-8.96649e-05
4.81638e-06
-9.39475e-05
4.28258e-06
-9.7691e-05
3.74349e-06
-0.000100885
3.19383e-06
-0.000103479
2.59384e-06
-0.00010543
1.95115e-06
-0.000106716
1.28606e-06
-0.00010727
5.54229e-07
-0.000106942
-3.28285e-07
-0.000105706
-1.23561e-06
-0.000103401
-2.30526e-06
-0.000100052
-3.34873e-06
-9.54994e-05
-4.55283e-06
-8.98311e-05
-5.66833e-06
-8.30513e-05
-6.77982e-06
-7.49998e-05
-8.05148e-06
-6.57795e-05
-9.22037e-06
-5.54955e-05
-1.0284e-05
-4.40252e-05
-1.14702e-05
-3.12691e-05
-1.27561e-05
-1.78149e-05
-1.34542e-05
-3.19021e-06
-1.46248e-05
1.21289e-05
-1.53191e-05
2.83839e-05
-1.6255e-05
4.53771e-05
-1.69932e-05
6.27505e-05
-1.73734e-05
8.06542e-05
-1.79037e-05
9.88768e-05
-1.82227e-05
0.000117077
-1.82e-05
0.000135301
-1.82242e-05
0.000153256
-1.79552e-05
0.000170866
-1.76098e-05
0.000187908
-1.70419e-05
0.000204104
-1.61962e-05
0.000219374
-1.527e-05
0.00023358
-1.42065e-05
0.000246424
-1.28435e-05
0.000257739
-1.13156e-05
0.000267422
-9.6829e-06
0.000275295
-7.87295e-06
0.000281149
-5.85358e-06
0.0002849
-3.75112e-06
0.000286457
-1.55744e-06
0.000285797
6.59871e-07
2.74359e-06
-0.000130677
7.55008e-06
-0.000133647
5.93873e-06
-0.000135883
4.46657e-06
-0.000137412
3.05395e-06
-0.000138262
1.70327e-06
-0.000138447
3.76834e-07
-0.000137879
-1.14078e-06
-0.000136603
-2.54937e-06
-0.000134728
-3.74906e-06
-0.00013211
-5.23884e-06
-0.000128787
-6.644e-06
-0.000124838
-7.89888e-06
-0.000120113
-9.44997e-06
-0.000114713
-1.08039e-05
-0.00010845
-1.25236e-05
-0.000101456
-1.39792e-05
-9.37736e-05
-1.53766e-05
-8.5203e-05
-1.71465e-05
-7.57927e-05
-1.88114e-05
-6.5674e-05
-2.02305e-05
-5.45614e-05
-2.22326e-05
-4.2487e-05
-2.41507e-05
-2.96991e-05
-2.55745e-05
-1.5985e-05
-2.742e-05
-1.49131e-06
-2.89901e-05
1.38449e-05
-3.06712e-05
3.00171e-05
-3.23316e-05
4.66396e-05
-3.32412e-05
6.39249e-05
-3.45712e-05
8.1755e-05
-3.5645e-05
9.97135e-05
-3.59105e-05
0.000117871
-3.63107e-05
0.000135974
-3.61953e-05
0.000153782
-3.56031e-05
0.000171134
-3.4694e-05
0.000187648
-3.30107e-05
0.000203135
-3.09622e-05
0.000217395
-2.85057e-05
0.000230066
-2.5335e-05
0.000241066
-2.19915e-05
0.000250106
-1.80718e-05
0.000257042
-1.38655e-05
0.000261764
-9.43905e-06
0.000264105
-4.68008e-06
0.000264107
-1.0268e-08
0.000261753
4.7045e-06
0.0002569
9.71155e-06
0.000249842
1.41114e-05
0.000240665
1.83446e-05
0.000229455
2.24139e-05
0.000216446
2.60035e-05
0.000201862
2.91584e-05
0.000186022
3.16731e-05
0.000169103
3.38233e-05
0.000151352
3.54943e-05
0.000133033
3.66188e-05
0.00011443
3.7192e-05
9.56971e-05
3.74641e-05
7.71309e-05
3.71265e-05
5.88536e-05
3.65509e-05
4.12079e-05
3.52772e-05
2.40709e-05
3.42683e-05
7.76099e-06
3.26045e-05
-7.75703e-06
3.10414e-05
-2.23608e-05
2.92061e-05
-3.60244e-05
2.73264e-05
-4.87246e-05
2.53986e-05
-6.04993e-05
2.35474e-05
-7.1316e-05
2.16333e-05
-8.12662e-05
1.99018e-05
-9.03548e-05
1.81795e-05
-9.86242e-05
1.65416e-05
-0.000106172
1.50986e-05
-0.000113049
1.37598e-05
-0.000119271
1.24504e-05
-0.000124952
1.1372e-05
-0.000130053
1.02123e-05
-0.000134633
9.16945e-06
-0.00013872
8.18586e-06
-0.000142227
7.02709e-06
-0.000145122
5.80097e-06
-0.000147365
4.50439e-06
-0.0001488
2.90978e-06
-0.000149401
1.22464e-06
-0.000149093
-6.33678e-07
-0.000147843
-2.5025e-06
-0.000145613
-4.45349e-06
-0.000142427
-6.37151e-06
-0.000138276
-8.30039e-06
-0.000133126
-1.02996e-05
-0.000126972
-1.23307e-05
-0.000119946
-1.40312e-05
-0.000111859
-1.62119e-05
-0.000102743
-1.82485e-05
-9.26274e-05
-2.02673e-05
-8.14148e-05
-2.24082e-05
-6.92199e-05
-2.44137e-05
-5.60204e-05
-2.64132e-05
-4.20067e-05
-2.80405e-05
-2.72903e-05
-2.94386e-05
-1.19967e-05
-3.05924e-05
3.70299e-06
-3.13992e-05
1.97627e-05
-3.21205e-05
3.61125e-05
-3.2706e-05
5.26219e-05
-3.30175e-05
6.92986e-05
-3.33678e-05
8.60512e-05
-3.34855e-05
0.000102795
-3.34801e-05
0.000119485
-3.33733e-05
0.000135982
-3.29846e-05
0.00015213
-3.22914e-05
0.000167786
-3.12956e-05
0.000182734
-2.98798e-05
0.000196767
-2.80477e-05
0.000209698
-2.58472e-05
0.000221318
-2.32287e-05
0.000231417
-2.01824e-05
0.000239787
-1.67259e-05
0.000246237
-1.2917e-05
0.000250636
-8.78203e-06
0.000252885
-4.49504e-06
0.000252956
-1.36801e-07
0.000250729
4.43723e-06
0.000246207
9.03238e-06
0.000239469
1.34725e-05
0.00023066
1.76194e-05
0.000219885
2.1526e-05
0.000207261
2.52275e-05
0.000193117
2.82817e-05
0.000177635
3.09392e-05
0.000161077
3.31119e-05
0.000143699
3.47189e-05
0.000125755
3.58623e-05
0.000107543
3.64094e-05
8.92766e-05
3.65272e-05
7.12327e-05
3.60725e-05
5.36008e-05
3.52407e-05
3.6603e-05
3.3942e-05
2.03466e-05
3.25475e-05
4.97644e-06
3.07241e-05
-9.42094e-06
2.87963e-05
-2.27697e-05
2.6692e-05
-3.50291e-05
2.45213e-05
-4.62032e-05
2.23388e-05
-5.62813e-05
2.01501e-05
-6.53209e-05
1.80985e-05
-7.33175e-05
1.59861e-05
-8.03302e-05
1.39908e-05
-8.64482e-05
1.2264e-05
-9.16433e-05
1.03932e-05
-9.5997e-05
8.715e-06
-9.96893e-05
7.38911e-06
-0.00010263
5.88708e-06
-0.000104921
4.58829e-06
-0.00010658
3.31211e-06
-0.000107728
2.2602e-06
-0.000108298
1.18439e-06
-0.000108455
3.39189e-07
-0.000108138
-6.50476e-07
-0.000107362
-1.54725e-06
-0.000106206
-2.3091e-06
-0.000104613
-3.20339e-06
-0.000102737
-3.75141e-06
-0.000100467
-4.53902e-06
-9.78325e-05
-5.25282e-06
-9.48653e-05
-5.94511e-06
-9.15234e-05
-6.67478e-06
-8.76888e-05
-7.66483e-06
-8.34212e-05
-8.52295e-06
-7.86719e-05
-9.50763e-06
-7.33567e-05
-1.06322e-05
-6.7494e-05
-1.17222e-05
-6.11101e-05
-1.27572e-05
-5.41511e-05
-1.392e-05
-4.66081e-05
-1.50852e-05
-3.8463e-05
-1.62822e-05
-2.97885e-05
-1.73424e-05
-2.04547e-05
-1.86702e-05
-1.04464e-05
-2.00058e-05
2.42692e-07
-2.13783e-05
1.16341e-05
-2.27816e-05
2.37335e-05
-2.4189e-05
3.64269e-05
-2.53747e-05
4.97648e-05
-2.66613e-05
6.35764e-05
-2.76279e-05
7.78746e-05
-2.85876e-05
9.25796e-05
-2.93978e-05
0.000107569
-2.9966e-05
0.000122754
-3.03602e-05
0.000137984
-3.04382e-05
0.000153022
-3.00667e-05
0.0001677
-2.93509e-05
0.000181796
-2.81727e-05
0.000194994
-2.6399e-05
0.000207078
-2.41467e-05
0.000217819
-2.14602e-05
0.000226948
-1.82676e-05
0.000234271
-1.46443e-05
0.000239625
-1.06997e-05
0.000242883
-6.51237e-06
0.000244
-2.24622e-06
0.000243009
1.97879e-06
0.000239793
6.40856e-06
0.000234475
1.06251e-05
0.000227194
1.45493e-05
0.000218108
1.81377e-05
0.000207355
2.15144e-05
0.000195113
2.44724e-05
0.000181671
2.68614e-05
0.000167214
2.88905e-05
0.000152068
3.0269e-05
0.000136449
3.12478e-05
0.000120589
3.16855e-05
0.000104706
3.17649e-05
8.90352e-05
3.13247e-05
7.37331e-05
3.05992e-05
5.88629e-05
2.97143e-05
4.46466e-05
2.84472e-05
3.10759e-05
2.71397e-05
1.83226e-05
2.54921e-05
6.38266e-06
2.38974e-05
-4.70419e-06
2.21611e-05
-1.49467e-05
2.04781e-05
-2.43511e-05
1.88061e-05
-3.30111e-05
1.73363e-05
-4.0899e-05
1.57649e-05
-4.80616e-05
1.43761e-05
-5.47189e-05
1.32773e-05
-6.07099e-05
1.19728e-05
-6.61748e-05
1.08856e-05
-7.11215e-05
9.9324e-06
-7.56504e-05
9.0883e-06
-7.97243e-05
8.13824e-06
-8.33495e-05
7.24279e-06
-8.66281e-05
6.56801e-06
-8.94676e-05
5.66998e-06
-9.19759e-05
5.02174e-06
-9.4009e-05
4.06042e-06
-9.58207e-05
3.62752e-06
-9.71853e-05
2.73794e-06
-9.81411e-05
1.91024e-06
-9.87894e-05
1.29425e-06
-9.89534e-05
3.43881e-07
-9.88507e-05
-2.12906e-07
-9.82913e-05
-1.1212e-06
-9.73036e-05
-1.96886e-06
-9.58562e-05
-2.91303e-06
-9.39549e-05
-3.78847e-06
-9.14543e-05
-4.98847e-06
-8.83943e-05
-6.12223e-06
-8.46839e-05
-7.41628e-06
-8.01808e-05
-9.00805e-06
-7.50556e-05
-1.02496e-05
-6.90908e-05
-1.19066e-05
-6.24067e-05
-1.33895e-05
-5.4993e-05
-1.4822e-05
-4.682e-05
-1.63366e-05
-3.79421e-05
-1.77522e-05
-2.81865e-05
-1.95048e-05
-1.7716e-05
-2.09669e-05
-6.40275e-06
-2.26094e-05
5.74962e-06
-2.42808e-05
1.87415e-05
-2.59705e-05
3.25319e-05
-2.75724e-05
4.69625e-05
-2.88592e-05
6.19077e-05
-2.98761e-05
7.73181e-05
-3.08048e-05
9.29582e-05
-3.12688e-05
0.000108813
-3.1711e-05
0.00012483
-3.20363e-05
0.000140932
-3.21935e-05
0.000157079
-3.22823e-05
0.000173156
-3.21537e-05
0.000189099
-3.1889e-05
0.000204712
-3.12289e-05
0.000219658
-2.98956e-05
0.000233617
-2.79204e-05
0.000246259
-2.52961e-05
0.000257053
-2.16143e-05
0.000265751
-1.7449e-05
0.000271935
-1.24705e-05
0.000275353
-6.86791e-06
0.00027553
-2.75108e-07
0.000272659
5.79305e-06
0.000266989
1.13876e-05
0.000258829
1.6354e-05
0.00024805
2.15597e-05
0.000235071
2.59542e-05
0.000220022
3.00901e-05
0.000203496
3.30443e-05
0.000185788
3.54081e-05
0.000167236
3.70957e-05
0.000148445
3.75742e-05
0.000129621
3.76425e-05
0.000111007
3.72235e-05
9.29754e-05
3.60604e-05
7.55667e-05
3.48145e-05
5.89077e-05
3.3317e-05
4.31435e-05
3.15292e-05
2.82323e-05
2.98188e-05
1.43277e-05
2.78053e-05
1.45389e-06
2.57366e-05
-1.10137e-05
2.49459e-05
-2.2488e-05
2.29516e-05
-3.30624e-05
2.115e-05
-4.27643e-05
1.9405e-05
-5.16106e-05
1.76932e-05
-5.96645e-05
1.61099e-05
-6.69589e-05
1.45882e-05
-7.35603e-05
1.32038e-05
-7.95199e-05
1.19191e-05
-8.48802e-05
1.07207e-05
-8.96982e-05
9.63437e-06
-9.39852e-05
8.56959e-06
-9.77299e-05
7.48824e-06
-0.000100924
6.38832e-06
-0.000103521
5.18991e-06
-0.000105479
3.90939e-06
-0.00010677
2.5771e-06
-0.000107318
1.10246e-06
-0.000106996
-6.50459e-07
-0.000105758
-2.47314e-06
-0.000103456
-4.60719e-06
-0.00010011
-6.69531e-06
-9.55591e-05
-9.10362e-06
-8.9896e-05
-1.13314e-05
-8.31142e-05
-1.35616e-05
-7.50604e-05
-1.61054e-05
-6.58354e-05
-1.84453e-05
-5.55527e-05
-2.05667e-05
-4.40756e-05
-2.29474e-05
-3.13326e-05
-2.54992e-05
-1.78603e-05
-2.69265e-05
-3.22387e-06
-2.92612e-05
1.20869e-05
-3.063e-05
2.83449e-05
-3.2513e-05
4.53446e-05
-3.3993e-05
6.27249e-05
-3.47538e-05
8.06366e-05
-3.58155e-05
9.88671e-05
-3.64532e-05
0.000117075
-3.64084e-05
0.000135309
-3.64582e-05
0.000153269
-3.59154e-05
0.000170888
-3.52285e-05
0.000187938
-3.40916e-05
0.00020414
-3.23983e-05
0.000219416
-3.05462e-05
0.000233617
-2.84077e-05
0.000246461
-2.5688e-05
0.000257793
-2.26475e-05
0.000267469
-1.93586e-05
0.000275342
-1.57458e-05
0.000281214
-1.17259e-05
0.000284961
-7.49854e-06
0.000286525
-3.12171e-06
0.000285872
1.31298e-06
5.47521e-06
-0.000130743
1.13303e-05
-0.000133716
8.9109e-06
-0.000135951
6.70189e-06
-0.000137479
4.58254e-06
-0.000138329
2.55234e-06
-0.000138503
5.51414e-07
-0.000137936
-1.70747e-06
-0.000136657
-3.82859e-06
-0.000134776
-5.63e-06
-0.000132157
-7.85803e-06
-0.000128838
-9.96274e-06
-0.000124887
-1.18499e-05
-0.000120163
-1.41749e-05
-0.000114757
-1.62094e-05
-0.000108496
-1.87848e-05
-0.000101516
-2.0959e-05
-9.38271e-05
-2.30657e-05
-8.52873e-05
-2.56863e-05
-7.58535e-05
-2.82453e-05
-6.57264e-05
-3.03576e-05
-5.46178e-05
-3.33412e-05
-4.25472e-05
-3.62213e-05
-2.97588e-05
-3.83629e-05
-1.60424e-05
-4.11364e-05
-1.53681e-06
-4.34957e-05
1.38015e-05
-4.60096e-05
2.998e-05
-4.85101e-05
4.66117e-05
-4.98729e-05
6.39085e-05
-5.1868e-05
8.17488e-05
-5.34853e-05
9.97199e-05
-5.38817e-05
0.000117896
-5.44872e-05
0.000136011
-5.43101e-05
0.000153844
-5.34359e-05
0.000171217
-5.2067e-05
0.000187743
-4.95366e-05
0.000203257
-4.64769e-05
0.000217533
-4.27818e-05
0.000230218
-3.80199e-05
0.000241231
-3.3004e-05
0.000250282
-2.71229e-05
0.000257238
-2.08219e-05
0.000261968
-1.41691e-05
0.000264315
-7.02688e-06
0.000264296
8.74169e-09
0.000261922
7.07801e-06
0.000257085
1.45483e-05
0.000250014
2.11829e-05
0.00024082
2.75388e-05
0.000229596
3.36373e-05
0.000216564
3.90358e-05
0.000201964
4.37585e-05
0.000186108
4.75287e-05
0.000169165
5.07663e-05
0.0001514
5.32597e-05
0.000133057
5.49617e-05
0.000114425
5.58232e-05
9.56884e-05
5.62012e-05
7.71096e-05
5.57052e-05
5.88303e-05
5.48303e-05
4.11556e-05
5.29519e-05
2.40161e-05
5.14078e-05
7.66818e-06
4.89525e-05
-7.82492e-06
4.65345e-05
-2.2428e-05
4.38092e-05
-3.60911e-05
4.09895e-05
-4.87898e-05
3.80973e-05
-6.05616e-05
3.53192e-05
-7.13728e-05
3.24446e-05
-8.13185e-05
2.98474e-05
-9.04014e-05
2.72625e-05
-9.86581e-05
2.47983e-05
-0.000106195
2.26351e-05
-0.000113058
2.06228e-05
-0.000119263
1.86555e-05
-0.000124931
1.70404e-05
-0.000130017
1.52977e-05
-0.000134573
1.37256e-05
-0.000138638
1.2251e-05
-0.000142117
1.05059e-05
-0.000144975
8.659e-06
-0.0001472
6.72982e-06
-0.000148635
4.34448e-06
-0.000149223
1.81244e-06
-0.000148906
-9.50944e-07
-0.00014764
-3.76844e-06
-0.000145397
-6.69663e-06
-0.000142209
-9.56008e-06
-0.000138049
-1.24606e-05
-0.000132896
-1.54521e-05
-0.00012678
-1.84474e-05
-0.000119736
-2.10749e-05
-0.000111694
-2.4254e-05
-0.000102604
-2.73383e-05
-9.25249e-05
-3.03469e-05
-8.13325e-05
-3.36007e-05
-6.91723e-05
-3.65738e-05
-5.60026e-05
-3.9583e-05
-4.20112e-05
-4.2032e-05
-2.73158e-05
-4.4134e-05
-1.20405e-05
-4.58678e-05
3.6522e-06
-4.70919e-05
1.97079e-05
-4.81762e-05
3.60391e-05
-4.90372e-05
5.25573e-05
-4.95358e-05
6.92207e-05
-5.00312e-05
8.59817e-05
-5.02465e-05
0.00010273
-5.02282e-05
0.000119422
-5.0066e-05
0.000135927
-4.94892e-05
0.000152082
-4.84461e-05
0.000167787
-4.70012e-05
0.000182728
-4.48204e-05
0.000196788
-4.21077e-05
0.000209739
-3.87986e-05
0.000221375
-3.48644e-05
0.000231465
-3.02722e-05
0.000239862
-2.51236e-05
0.000246318
-1.93726e-05
0.000250741
-1.32047e-05
0.000253005
-6.75959e-06
0.000253104
-2.35943e-07
0.000250828
6.71348e-06
0.000246303
1.35574e-05
0.000239558
2.02181e-05
0.00023075
2.64273e-05
0.000219903
3.23722e-05
0.000207302
3.78286e-05
0.000193192
4.23919e-05
0.00017764
4.64914e-05
0.000161104
4.96481e-05
0.000143651
5.21716e-05
0.000125683
5.38302e-05
0.000107452
5.46407e-05
8.91711e-05
5.48082e-05
7.11094e-05
5.41342e-05
5.34522e-05
5.28979e-05
3.6421e-05
5.09733e-05
2.01817e-05
4.87869e-05
4.79998e-06
4.61058e-05
-9.59796e-06
4.31943e-05
-2.29587e-05
4.00528e-05
-3.52124e-05
3.6775e-05
-4.63884e-05
3.35149e-05
-5.64647e-05
3.02264e-05
-6.54934e-05
2.71273e-05
-7.35027e-05
2.39954e-05
-8.05228e-05
2.10109e-05
-8.6625e-05
1.83662e-05
-9.18259e-05
1.55942e-05
-9.62203e-05
1.31094e-05
-9.98661e-05
1.10349e-05
-0.000102799
8.81956e-06
-0.000105062
6.85144e-06
-0.000106762
5.01251e-06
-0.000107915
3.41304e-06
-0.000108514
1.78353e-06
-0.00010857
3.94722e-07
-0.000108281
-9.38614e-07
-0.000107503
-2.3256e-06
-0.00010635
-3.46194e-06
-0.000104797
-4.7562e-06
-0.000102895
-5.65342e-06
-0.000100621
-6.813e-06
-9.7971e-05
-7.90317e-06
-9.50148e-05
-8.90134e-06
-9.16663e-05
-1.00233e-05
-8.78395e-05
-1.14916e-05
-8.35262e-05
-1.28362e-05
-7.88145e-05
-1.42194e-05
-7.35033e-05
-1.59433e-05
-6.76506e-05
-1.75749e-05
-6.12524e-05
-1.91553e-05
-5.42928e-05
-2.08796e-05
-4.67634e-05
-2.26146e-05
-3.86441e-05
-2.44015e-05
-2.99197e-05
-2.60669e-05
-2.059e-05
-2.79999e-05
-1.05769e-05
-3.00189e-05
1.10994e-07
-3.20662e-05
1.14966e-05
-3.41672e-05
2.35945e-05
-3.62869e-05
3.63176e-05
-3.80978e-05
4.96182e-05
-3.9962e-05
6.34509e-05
-4.14607e-05
7.77646e-05
-4.29013e-05
9.24744e-05
-4.41077e-05
0.000107512
-4.50031e-05
0.000122687
-4.55353e-05
0.000137922
-4.56738e-05
0.000152983
-4.51273e-05
0.000167675
-4.40428e-05
0.00018178
-4.22781e-05
0.000195001
-3.96195e-05
0.000207108
-3.62547e-05
0.000217882
-3.22341e-05
0.000227024
-2.74097e-05
0.000234364
-2.19844e-05
0.000239729
-1.60638e-05
0.00024301
-9.79344e-06
0.000244112
-3.34833e-06
0.000243124
2.96621e-06
0.000239871
9.66223e-06
0.000234553
1.59424e-05
0.000227259
2.18433e-05
0.000218141
2.7256e-05
0.000207347
3.23081e-05
0.000195094
3.67255e-05
0.000181629
4.03261e-05
0.000167172
4.3348e-05
0.000151997
4.54436e-05
0.000136413
4.68321e-05
0.000120491
4.76071e-05
0.000104602
4.76544e-05
8.89109e-05
4.70157e-05
7.35625e-05
4.59476e-05
5.87202e-05
4.45566e-05
4.45066e-05
4.26609e-05
3.09201e-05
4.07262e-05
1.81431e-05
3.82691e-05
6.22489e-06
3.58157e-05
-4.87742e-06
3.32635e-05
-1.51218e-05
3.07225e-05
-2.45222e-05
2.82065e-05
-3.31597e-05
2.59739e-05
-4.10644e-05
2.36697e-05
-4.82168e-05
2.15285e-05
-5.48838e-05
1.99443e-05
-6.08744e-05
1.79635e-05
-6.63547e-05
1.63659e-05
-7.13143e-05
1.4892e-05
-7.57612e-05
1.35352e-05
-7.98612e-05
1.22383e-05
-8.34869e-05
1.08685e-05
-8.67545e-05
9.83569e-06
-8.96253e-05
8.54072e-06
-9.2132e-05
7.52849e-06
-9.42078e-05
6.13624e-06
-9.59562e-05
5.3759e-06
-9.73254e-05
4.10708e-06
-9.83212e-05
2.90611e-06
-9.89404e-05
1.91347e-06
-9.91479e-05
5.51395e-07
-9.89767e-05
-3.84163e-07
-9.84151e-05
-1.6828e-06
-9.74308e-05
-2.95315e-06
-9.59884e-05
-4.35539e-06
-9.40844e-05
-5.69249e-06
-9.15893e-05
-7.48358e-06
-8.85409e-05
-9.17061e-06
-8.483e-05
-1.11272e-05
-8.03945e-05
-1.34435e-05
-7.5212e-05
-1.54321e-05
-6.92124e-05
-1.79062e-05
-6.25605e-05
-2.00414e-05
-5.51547e-05
-2.22279e-05
-4.69866e-05
-2.45047e-05
-3.81078e-05
-2.6631e-05
-2.83614e-05
-2.92512e-05
-1.7938e-05
-3.13904e-05
-6.59803e-06
-3.39494e-05
5.58694e-06
-3.64658e-05
1.86016e-05
-3.89851e-05
3.24075e-05
-4.13784e-05
4.68486e-05
-4.33003e-05
6.18097e-05
-4.48373e-05
7.7241e-05
-4.62361e-05
9.29087e-05
-4.69366e-05
0.000108791
-4.75932e-05
0.000124838
-4.80839e-05
0.000140964
-4.83198e-05
0.000157132
-4.84498e-05
0.000173221
-4.82428e-05
0.000189176
-4.78446e-05
0.0002048
-4.68533e-05
0.000219741
-4.48372e-05
0.000233687
-4.18662e-05
0.000246314
-3.79237e-05
0.000257067
-3.23671e-05
0.000265694
-2.60764e-05
0.00027174
-1.85168e-05
0.00027497
-1.00976e-05
0.000275136
-4.41055e-07
0.000272455
8.47307e-06
0.000266986
1.68565e-05
0.000258884
2.4456e-05
0.000248103
3.23405e-05
0.000235112
3.89455e-05
0.000220047
4.51556e-05
0.000203501
4.95897e-05
0.000185773
5.31359e-05
0.000167203
5.56656e-05
0.000148397
5.63803e-05
0.00012956
5.64793e-05
0.000110938
5.58463e-05
9.28995e-05
5.40984e-05
7.54848e-05
5.22293e-05
5.88294e-05
4.99724e-05
4.30608e-05
4.72978e-05
2.81481e-05
4.47316e-05
1.42379e-05
4.17154e-05
1.33711e-06
3.86374e-05
-1.11025e-05
3.73855e-05
-2.25686e-05
3.44176e-05
-3.31379e-05
3.17193e-05
-4.28357e-05
2.91028e-05
-5.16787e-05
2.65363e-05
-5.97292e-05
2.41604e-05
-6.7019e-05
2.18779e-05
-7.36191e-05
1.98039e-05
-7.95787e-05
1.78787e-05
-8.49382e-05
1.60802e-05
-8.97557e-05
1.4452e-05
-9.40457e-05
1.28596e-05
-9.77941e-05
1.12366e-05
-0.000100991
9.58484e-06
-0.000103589
7.7884e-06
-0.000105562
5.88182e-06
-0.00010685
3.86582e-06
-0.000107387
1.63953e-06
-0.000107075
-9.62803e-07
-0.000105839
-3.70951e-06
-0.000103544
-6.90189e-06
-0.000100203
-1.00364e-05
-9.56655e-05
-1.36411e-05
-8.99969e-05
-1.7e-05
-8.32149e-05
-2.03437e-05
-7.51584e-05
-2.41619e-05
-6.59269e-05
-2.76769e-05
-5.56502e-05
-3.08435e-05
-4.41635e-05
-3.44341e-05
-3.14384e-05
-3.82244e-05
-1.79397e-05
-4.04252e-05
-3.28762e-06
-4.39133e-05
1.20307e-05
-4.59483e-05
2.83011e-05
-4.87834e-05
4.53137e-05
-5.10057e-05
6.27034e-05
-5.21435e-05
8.06268e-05
-5.37389e-05
9.88672e-05
-5.46938e-05
0.000117087
-5.46287e-05
0.000135333
-5.4704e-05
0.000153305
-5.38868e-05
0.000170936
-5.28597e-05
0.000187996
-5.11515e-05
0.000204206
-4.86087e-05
0.00021949
-4.58308e-05
0.000233698
-4.2615e-05
0.000246541
-3.85314e-05
0.000257871
-3.3978e-05
0.000267556
-2.90434e-05
0.000275434
-2.36233e-05
0.000281309
-1.76019e-05
0.000285073
-1.12618e-05
0.000286665
-4.714e-06
0.000286017
1.9603e-06
8.1783e-06
-0.000130841
1.51134e-05
-0.000133819
1.18887e-05
-0.000136059
8.94145e-06
-0.000137588
6.11193e-06
-0.000138436
3.40011e-06
-0.000138589
7.04153e-07
-0.000138024
-2.27236e-06
-0.000136738
-5.11387e-06
-0.000134849
-7.51959e-06
-0.000132228
-1.04789e-05
-0.000128916
-1.32751e-05
-0.000124967
-1.57989e-05
-0.000120238
-1.89033e-05
-0.000114831
-2.16168e-05
-0.000108573
-2.5043e-05
-0.000101598
-2.79338e-05
-9.39124e-05
-3.07512e-05
-8.54172e-05
-3.41815e-05
-7.59442e-05
-3.77183e-05
-6.57988e-05
-4.05031e-05
-5.46904e-05
-4.44496e-05
-4.26359e-05
-4.82758e-05
-2.98548e-05
-5.1144e-05
-1.61293e-05
-5.4862e-05
-1.60875e-06
-5.80163e-05
1.37386e-05
-6.13569e-05
2.99325e-05
-6.47041e-05
4.65723e-05
-6.65128e-05
6.38807e-05
-6.91765e-05
8.17449e-05
-7.13495e-05
9.97294e-05
-7.18662e-05
0.000117929
-7.26873e-05
0.000136071
-7.24521e-05
0.000153936
-7.1301e-05
0.000171342
-6.94723e-05
0.000187889
-6.60843e-05
0.000203441
-6.20286e-05
0.000217745
-5.70856e-05
0.000230447
-5.07227e-05
0.00024148
-4.40364e-05
0.000250549
-3.61922e-05
0.00025753
-2.78031e-05
0.000262276
-1.89151e-05
0.00026462
-9.37031e-06
0.000264571
5.75846e-08
0.000262179
9.46936e-06
0.000257367
1.93603e-05
0.000250242
2.83081e-05
0.00024105
3.67309e-05
0.000229808
4.48792e-05
0.000216741
5.21027e-05
0.000202115
5.83842e-05
0.000186237
6.34073e-05
0.000169257
6.7746e-05
0.00015147
7.10464e-05
0.000133091
7.33412e-05
0.000114434
7.448e-05
9.56758e-05
7.49593e-05
7.70771e-05
7.43039e-05
5.87865e-05
7.31209e-05
4.10719e-05
7.06665e-05
2.39337e-05
6.85459e-05
7.50653e-06
6.53796e-05
-7.92508e-06
6.19661e-05
-2.25271e-05
5.84112e-05
-3.61888e-05
5.46512e-05
-4.88856e-05
5.07941e-05
-6.06531e-05
4.70866e-05
-7.14557e-05
4.32472e-05
-8.13927e-05
3.97845e-05
-9.04654e-05
3.63351e-05
-9.87067e-05
3.30395e-05
-0.000106229
3.01572e-05
-0.000113072
2.74656e-05
-0.000119254
2.48376e-05
-0.000124901
2.26872e-05
-0.000129957
2.03543e-05
-0.000134476
1.82445e-05
-0.000138512
1.62866e-05
-0.00014195
1.39441e-05
-0.00014475
1.14587e-05
-0.000146924
8.90423e-06
-0.000148341
5.76151e-06
-0.00014894
2.41128e-06
-0.000148621
-1.27031e-06
-0.000147335
-5.05491e-06
-0.000145071
-8.96047e-06
-0.000141878
-1.27534e-05
-0.000137705
-1.66337e-05
-0.000132552
-2.06052e-05
-0.000126496
-2.45033e-05
-0.00011944
-2.81309e-05
-0.000111447
-3.22475e-05
-0.000102396
-3.63892e-05
-9.23807e-05
-4.03622e-05
-8.12269e-05
-4.47545e-05
-6.90925e-05
-4.87083e-05
-5.59698e-05
-5.27058e-05
-4.20269e-05
-5.59749e-05
-2.73686e-05
-5.87922e-05
-1.21234e-05
-6.11131e-05
3.5727e-06
-6.2788e-05
1.96165e-05
-6.422e-05
3.59362e-05
-6.53568e-05
5.24583e-05