/*--------------------------------*- C++ -*----------------------------------*\
| =========                 |                                                 |
| \\      /  F ield         | OpenFOAM: The Open Source CFD Toolbox           |
|  \\    /   O peration     | Version:  3.0.1                                 |
|   \\  /    A nd           | Web:      www.OpenFOAM.org                      |
|    \\/     M anipulation  |                                                 |
\*---------------------------------------------------------------------------*/
FoamFile
{
    version     2.0;
    format      ascii;
    class       surfaceScalarField;
    location    "57.2";
    object      alphaPhi;
}
// * * * * * * * * * * * * * * * * * * * * * * * * * * * * * * * * * * * * * //

dimensions      [0 3 -1 0 0 0 0];

internalField   nonuniform List<scalar> 
42423
(
-4.43237e-05
-1.43738e-05
-2.86697e-05
-1.56541e-05
-1.2083e-05
-1.65868e-05
5.40122e-06
-1.74842e-05
2.36742e-05
-1.8273e-05
4.2306e-05
-1.86318e-05
6.14004e-05
-1.90945e-05
8.05644e-05
-1.9164e-05
9.94881e-05
-1.89237e-05
0.000118109
-1.86206e-05
0.000136099
-1.79905e-05
0.000153118
-1.70186e-05
0.000168995
-1.58777e-05
0.000183505
-1.45096e-05
0.00019631
-1.2805e-05
0.000207194
-1.08836e-05
0.000215932
-8.73878e-06
0.000222412
-6.47954e-06
0.000226503
-4.09166e-06
0.000228037
-1.53324e-06
0.000227135
9.01742e-07
0.000223643
3.49145e-06
0.000217553
6.09032e-06
0.000209253
8.29995e-06
0.000198671
1.05819e-05
0.000186249
1.24225e-05
0.000172141
1.41076e-05
0.000156497
1.56436e-05
0.000139597
1.69001e-05
0.000121717
1.78801e-05
0.000103211
1.85061e-05
8.43027e-05
1.89083e-05
6.51183e-05
1.91844e-05
4.59923e-05
1.9126e-05
2.72032e-05
1.87891e-05
8.8493e-06
1.83539e-05
-9.02879e-06
1.78781e-05
-2.62029e-05
1.71741e-05
-4.25576e-05
1.63547e-05
-5.80184e-05
1.54609e-05
-7.256e-05
1.45416e-05
-8.61104e-05
1.35504e-05
-9.86839e-05
1.25734e-05
-0.000110262
1.15783e-05
-0.000120836
1.05735e-05
-0.000130459
9.62367e-06
-0.00013914
8.68077e-06
-0.000146878
7.73763e-06
-0.000153726
6.84853e-06
-0.000159708
5.98149e-06
-0.000164848
5.14021e-06
-0.000169145
4.29702e-06
-0.000172638
3.49355e-06
-0.000175382
2.74383e-06
-0.000177326
1.94335e-06
-0.000178516
1.19064e-06
-0.000179009
4.92439e-07
-0.00017869
-3.18271e-07
-0.000177559
-1.13161e-06
-0.000175643
-1.91611e-06
-0.000172892
-2.75103e-06
-0.000169342
-3.54982e-06
-0.000165006
-4.33559e-06
-0.000159778
-5.22823e-06
-0.000153723
-6.05478e-06
-0.000146901
-6.82261e-06
-0.000139077
-7.82352e-06
-0.000130435
-8.64256e-06
-0.000120777
-9.65735e-06
-0.00011026
-1.05176e-05
-9.89321e-05
-1.13277e-05
-8.66974e-05
-1.22347e-05
-7.35161e-05
-1.31814e-05
-5.96642e-05
-1.38519e-05
-4.49125e-05
-1.47518e-05
-2.9477e-05
-1.54356e-05
-1.33129e-05
-1.61641e-05
3.33529e-06
-1.66482e-05
2.04808e-05
-1.71455e-05
3.79972e-05
-1.75164e-05
5.58754e-05
-1.78782e-05
7.38194e-05
-1.7944e-05
9.17562e-05
-1.79368e-05
0.000109509
-1.77528e-05
0.000126939
-1.74302e-05
0.000143812
-1.68721e-05
0.000159927
-1.61149e-05
0.000175051
-1.5124e-05
0.000188899
-1.38474e-05
0.000201217
-1.23179e-05
0.000211714
-1.0497e-05
0.000220185
-8.47048e-06
0.000226428
-6.24298e-06
0.000230325
-3.89643e-06
0.000231784
-1.45805e-06
0.000230761
1.02264e-06
0.00022722
3.54154e-06
0.000221225
5.99539e-06
0.000212946
8.27917e-06
0.000202519
1.0427e-05
0.000190089
1.24299e-05
0.00017587
1.42193e-05
0.000160016
1.58541e-05
0.000142844
1.71724e-05
0.000124623
1.82203e-05
0.0001056
1.9023e-05
8.60375e-05
1.95628e-05
6.62659e-05
1.97717e-05
4.65017e-05
1.97641e-05
2.70574e-05
1.94443e-05
8.12544e-06
1.8932e-05
-1.01375e-05
1.8263e-05
-2.7558e-05
1.74204e-05
-4.39772e-05
1.64193e-05
-5.94145e-05
1.54373e-05
-7.37124e-05
1.42979e-05
-8.68551e-05
1.31427e-05
-9.88395e-05
1.19844e-05
-0.000109779
1.09394e-05
-0.000119556
9.77718e-06
-0.000128267
8.71046e-06
-0.00013591
7.64297e-06
-0.000142574
6.6641e-06
-0.000148292
5.7184e-06
-0.000153101
4.80927e-06
-0.000157029
3.92815e-06
-0.000160152
3.12271e-06
-0.000162483
2.33043e-06
-0.000164066
1.58316e-06
-0.000164958
8.91849e-07
-0.000165187
2.29848e-07
-0.000164749
-4.38439e-07
-0.000163728
-1.02119e-06
-0.00016205
-1.67824e-06
-0.000159858
-2.19172e-06
-0.000157031
-2.82741e-06
-0.000153682
-3.34847e-06
-0.000149658
-4.02443e-06
-0.000145161
-4.49719e-06
-0.000139998
-5.16268e-06
-0.000134163
-5.8353e-06
-0.000127698
-6.46479e-06
-0.000120528
-7.17025e-06
-0.000112613
-7.91453e-06
-0.000104016
-8.59758e-06
-9.46314e-05
-9.38419e-06
-8.43968e-05
-1.02345e-05
-7.32882e-05
-1.11086e-05
-6.14518e-05
-1.18365e-05
-4.87042e-05
-1.27476e-05
-3.51217e-05
-1.35826e-05
-2.06569e-05
-1.44648e-05
-5.55755e-06
-1.50994e-05
1.02621e-05
-1.58197e-05
2.66667e-05
-1.64047e-05
4.35173e-05
-1.68507e-05
6.06912e-05
-1.7174e-05
7.80068e-05
-1.73157e-05
9.52972e-05
-1.72904e-05
0.000112365
-1.70678e-05
0.000128915
-1.65506e-05
0.000144774
-1.58582e-05
0.000159635
-1.48619e-05
0.000173261
-1.36253e-05
0.000185425
-1.21646e-05
0.000195842
-1.04165e-05
0.000204315
-8.47304e-06
0.000210641
-6.32636e-06
0.000214648
-4.00727e-06
0.00021622
-1.57208e-06
0.000215335
8.84895e-07
0.000211938
3.39677e-06
0.000206044
5.89455e-06
0.000197761
8.28274e-06
0.000187348
1.04133e-05
0.000174977
1.23704e-05
0.000160824
1.41536e-05
0.000145203
1.5621e-05
0.000128409
1.67939e-05
0.000110732
1.76768e-05
9.24446e-05
1.82872e-05
7.38052e-05
1.86394e-05
5.51308e-05
1.86744e-05
3.65936e-05
1.85372e-05
1.82839e-05
1.83097e-05
5.3035e-07
1.77535e-05
-1.65785e-05
1.71088e-05
-3.28609e-05
1.62825e-05
-4.82831e-05
1.54222e-05
-6.26376e-05
1.43545e-05
-7.60618e-05
1.34242e-05
-8.83814e-05
1.23195e-05
-9.97295e-05
1.13481e-05
-0.000109933
1.02038e-05
-0.000119158
9.2245e-06
-0.000127449
8.29111e-06
-0.000134723
7.27432e-06
-0.000141113
6.38938e-06
-0.000146654
5.54149e-06
-0.000151422
4.7682e-06
-0.00015544
4.01816e-06
-0.000158758
3.31719e-06
-0.000161386
2.6282e-06
-0.000163356
1.97e-06
-0.000164661
1.30507e-06
-0.000165382
7.2116e-07
-0.000165515
1.33076e-07
-0.000165129
-3.86404e-07
-0.000164225
-9.0403e-07
-0.000162879
-1.34531e-06
-0.000161069
-1.81e-06
-0.000158762
-2.30752e-06
-0.000156015
-2.74652e-06
-0.000152595
-3.42073e-06
-0.00014867
-3.92501e-06
-0.000143991
-4.67847e-06
-0.000138663
-5.32847e-06
-0.000132558
-6.10515e-06
-0.000125701
-6.85623e-06
-0.000118026
-7.67502e-06
-0.000109624
-8.40204e-06
-0.000100387
-9.23704e-06
-9.02739e-05
-1.01136e-05
-7.94627e-05
-1.08112e-05
-6.77687e-05
-1.1694e-05
-5.52078e-05
-1.2561e-05
-4.201e-05
-1.31978e-05
-2.801e-05
-1.40001e-05
-1.32705e-05
-1.47396e-05
2.03827e-06
-1.53088e-05
1.79211e-05
-1.58829e-05
3.42256e-05
-1.63046e-05
5.07924e-05
-1.65668e-05
6.74504e-05
-1.66581e-05
8.40352e-05
-1.65848e-05
0.00010034
-1.6305e-05
0.000116121
-1.57813e-05
0.000131084
-1.49626e-05
0.000145047
-1.39636e-05
0.000157715
-1.26673e-05
0.000168808
-1.10933e-05
0.000178132
-9.3243e-06
0.00018544
-7.30784e-06
0.000190613
-5.1729e-06
0.000193491
-2.87772e-06
0.000193984
-4.93161e-07
0.000192102
1.88141e-06
0.000187757
4.34469e-06
0.000181095
6.66268e-06
0.000172224
8.87062e-06
0.000161297
1.09265e-05
0.00014854
1.27575e-05
0.000134175
1.43648e-05
0.000118463
1.57118e-05
0.000101587
1.68758e-05
8.39438e-05
1.76432e-05
6.57155e-05
1.82282e-05
4.72154e-05
1.85001e-05
2.86865e-05
1.85288e-05
1.03772e-05
1.83092e-05
-7.50445e-06
1.78817e-05
-2.48393e-05
1.73349e-05
-4.1444e-05
1.66047e-05
-5.71878e-05
1.57439e-05
-7.19747e-05
1.47871e-05
-8.57325e-05
1.37579e-05
-9.84324e-05
1.27e-05
-0.000110122
1.16894e-05
-0.000120779
1.06573e-05
-0.000130341
9.56203e-06
-0.00013887
8.52935e-06
-0.000146377
7.50723e-06
-0.000152908
6.53091e-06
-0.000158458
5.54975e-06
-0.000163128
4.66978e-06
-0.000166837
3.70948e-06
-0.000169648
2.81101e-06
-0.000171619
1.97082e-06
-0.000172738
1.11892e-06
-0.000172974
2.36034e-07
-0.000172453
-5.20372e-07
-0.000171013
-1.44048e-06
-0.000168972
-2.04108e-06
-0.000166271
-2.70115e-06
-0.000162974
-3.2964e-06
-0.000159326
-3.64841e-06
-0.000155363
-3.96241e-06
-0.000150999
-4.36418e-06
-0.000146439
-4.56028e-06
-0.000141507
-4.93212e-06
-0.000136325
-5.18145e-06
-0.000130899
-5.42615e-06
-0.00012506
-5.83928e-06
-0.000118736
-6.32343e-06
-0.000111991
-6.74509e-06
-0.000104504
-7.48732e-06
-9.62543e-05
-8.24976e-06
-8.73024e-05
-8.95193e-06
-7.7412e-05
-9.89038e-06
-6.65749e-05
-1.08371e-05
-5.45714e-05
-1.20036e-05
-4.15086e-05
-1.30628e-05
-2.75988e-05
-1.39097e-05
-1.26864e-05
-1.49124e-05
3.32525e-06
-1.60117e-05
1.99134e-05
-1.65881e-05
3.72167e-05
-1.73034e-05
5.4926e-05
-1.77092e-05
7.28855e-05
-1.79596e-05
9.08881e-05
-1.80026e-05
0.00010847
-1.75816e-05
0.000125533
-1.70633e-05
0.000141789
-1.62565e-05
0.000156853
-1.5064e-05
0.000170561
-1.37072e-05
0.000182604
-1.20435e-05
0.00019278
-1.01763e-05
0.00020091
-8.12998e-06
0.000206842
-5.93187e-06
0.000210531
-3.68897e-06
0.000211895
-1.36399e-06
0.000210762
1.13362e-06
0.000207261
3.50088e-06
0.000201442
5.81895e-06
0.00019361
7.8322e-06
0.000183953
9.65604e-06
0.000172552
1.14014e-05
0.000159752
1.28004e-05
0.000145772
1.398e-05
0.000130844
1.49273e-05
0.000115283
1.55611e-05
9.92847e-05
1.59985e-05
8.30029e-05
1.62817e-05
6.65952e-05
1.64077e-05
5.02613e-05
1.63339e-05
3.41302e-05
1.61311e-05
1.83998e-05
1.57304e-05
3.12537e-06
1.52744e-05
-1.18102e-05
1.49356e-05
-2.61986e-05
1.43884e-05
-3.99947e-05
1.37961e-05
-5.31486e-05
1.31539e-05
-6.56688e-05
1.25203e-05
-7.74965e-05
1.18277e-05
-8.86539e-05
1.11574e-05
-9.90941e-05
1.04402e-05
-0.000108791
9.69677e-06
-0.000117752
8.96087e-06
-0.000125938
8.18652e-06
-0.000133328
7.38924e-06
-0.000139917
6.58985e-06
-0.00014569
5.77241e-06
-0.000150649
4.95898e-06
-0.000154782
4.1334e-06
-0.000158078
3.2956e-06
-0.000160548
2.47062e-06
1.62131e-06
-4.43595e-05
-2.87493e-05
-2.87028e-05
-3.13108e-05
-1.21015e-05
-3.31882e-05
5.37621e-06
-3.4962e-05
2.36557e-05
-3.65525e-05
4.22957e-05
-3.72719e-05
6.14015e-05
-3.82004e-05
8.05859e-05
-3.83485e-05
9.95186e-05
-3.78565e-05
0.000118143
-3.72453e-05
0.000136152
-3.59989e-05
0.0001532
-3.40668e-05
0.0001691
-3.17786e-05
0.000183608
-2.90174e-05
0.00019641
-2.56067e-05
0.000207308
-2.17813e-05
0.000216071
-1.75028e-05
0.000222551
-1.29593e-05
0.000226633
-8.17377e-06
0.000228175
-3.07488e-06
0.00022726
1.81637e-06
0.000223764
6.98756e-06
0.00021767
1.21846e-05
0.000209368
1.66018e-05
0.000198774
2.11754e-05
0.000186339
2.48574e-05
0.000172219
2.82281e-05
0.000156566
3.12963e-05
0.000139652
3.38137e-05
0.00012176
3.57727e-05
0.000103239
3.7027e-05
8.4323e-05
3.78243e-05
6.51278e-05
3.83795e-05
4.59909e-05
3.8263e-05
2.71904e-05
3.75895e-05
8.83489e-06
3.67094e-05
-9.05203e-06
3.5765e-05
-2.6232e-05
3.4354e-05
-4.25927e-05
3.27154e-05
-5.80584e-05
3.09265e-05
-7.26012e-05
2.90844e-05
-8.61546e-05
2.71038e-05
-9.87298e-05
2.51487e-05
-0.000110313
2.3161e-05
-0.000120891
2.11521e-05
-0.000130512
1.9245e-05
-0.000139195
1.73632e-05
-0.000146941
1.54837e-05
-0.000153792
1.36995e-05
-0.000159768
1.19577e-05
-0.000164909
1.02807e-05
-0.000169206
8.59399e-06
-0.000172707
6.99492e-06
-0.000175443
5.47999e-06
-0.000177395
3.89496e-06
-0.000178593
2.38909e-06
-0.00017908
9.78909e-07
-0.000178759
-6.38666e-07
-0.000177623
-2.26824e-06
-0.000175712
-3.82661e-06
-0.000172965
-5.49818e-06
-0.000169412
-7.10316e-06
-0.000165076
-8.67107e-06
-0.00015985
-1.04543e-05
-0.000153793
-1.21123e-05
-0.000146971
-1.36444e-05
-0.00013915
-1.56441e-05
-0.000130505
-1.72878e-05
-0.000120843
-1.93198e-05
-0.000110332
-2.10282e-05
-9.89961e-05
-2.26639e-05
-8.67587e-05
-2.44722e-05
-7.35733e-05
-2.63668e-05
-5.97155e-05
-2.77098e-05
-4.4957e-05
-2.95103e-05
-2.95214e-05
-3.08711e-05
-1.33474e-05
-3.23381e-05
3.29987e-06
-3.32956e-05
2.04521e-05
-3.42978e-05
3.7983e-05
-3.50474e-05
5.58747e-05
-3.57699e-05
7.3828e-05
-3.58973e-05
9.17711e-05
-3.58799e-05
0.000109538
-3.55194e-05
0.000126991
-3.48835e-05
0.000143875
-3.37561e-05
0.000160003
-3.22425e-05
0.000175139
-3.026e-05
0.000189002
-2.77099e-05
0.000201337
-2.46527e-05
0.000211855
-2.10144e-05
0.000220333
-1.69483e-05
0.000226569
-1.24787e-05
0.00023046
-7.78685e-06
0.000231919
-2.91675e-06
0.00023088
2.06218e-06
0.000227333
7.08844e-06
0.00022134
1.19894e-05
0.00021305
1.65693e-05
0.000202612
2.08654e-05
0.000190163
2.48783e-05
0.000175921
2.84617e-05
0.000160067
3.17087e-05
0.000142879
3.43598e-05
0.000124644
3.6456e-05
0.000105617
3.805e-05
8.60357e-05
3.91439e-05
6.62472e-05
3.95602e-05
4.64762e-05
3.95352e-05
2.70082e-05
3.89123e-05
8.06096e-06
3.78793e-05
-1.02121e-05
3.65361e-05
-2.76319e-05
3.48403e-05
-4.40642e-05
3.28516e-05
-5.95093e-05
3.08824e-05
-7.38044e-05
2.8593e-05
-8.69504e-05
2.62888e-05
-9.89363e-05
2.39704e-05
-0.000109886
2.18893e-05
-0.000119674
1.95654e-05
-0.000128389
1.74254e-05
-0.00013604
1.52936e-05
-0.000142711
1.33352e-05
-0.000148424
1.14316e-05
-0.000153229
9.61405e-06
-0.000157164
7.86333e-06
-0.000160278
6.23675e-06
-0.000162624
4.67618e-06
-0.000164199
3.15847e-06
-0.000165104
1.79705e-06
-0.000165333
4.58077e-07
-0.000164894
-8.7729e-07
-0.000163878
-2.03676e-06
-0.00016221
-3.34626e-06
-0.000160018
-4.38372e-06
-0.000157197
-5.64829e-06
-0.000153843
-6.7028e-06
-0.000149844
-8.02305e-06
-0.000145327
-9.01437e-06
-0.00014015
-1.03401e-05
-0.000134328
-1.16572e-05
-0.000127871
-1.29217e-05
-0.000120699
-1.43428e-05
-0.000112782
-1.58315e-05
-0.000104194
-1.71847e-05
-9.48063e-05
-1.87724e-05
-8.45742e-05
-2.04667e-05
-7.34592e-05
-2.22236e-05
-6.16139e-05
-2.36818e-05
-4.88534e-05
-2.55082e-05
-3.52654e-05
-2.71707e-05
-2.08357e-05
-2.88945e-05
-5.70528e-06
-3.02299e-05
1.0136e-05
-3.1661e-05
2.6555e-05
-3.28238e-05
4.34229e-05
-3.37186e-05
6.06183e-05
-3.43694e-05
7.79481e-05
-3.46456e-05
9.52474e-05
-3.45897e-05
0.000112326
-3.41463e-05
0.000128894
-3.31186e-05
0.000144767
-3.17314e-05
0.000159642
-2.97366e-05
0.000173291
-2.72749e-05
0.000185481
-2.43542e-05
0.000195898
-2.08336e-05
0.000204379
-1.69545e-05
0.000210719
-1.26667e-05
0.000214733
-8.02116e-06
0.000216311
-3.14966e-06
0.000215425
1.7702e-06
0.00021203
6.79149e-06
0.00020611
1.18153e-05
0.000197841
1.65516e-05
0.000187415
2.08386e-05
0.000175036
2.47494e-05
0.000160879
2.83109e-05
0.000145252
3.12485e-05
0.000128439
3.36065e-05
0.000110741
3.53752e-05
9.24407e-05
3.65871e-05
7.37875e-05
3.72926e-05
5.50997e-05
3.73622e-05
3.6554e-05
3.7083e-05
1.82268e-05
3.6637e-05
4.63465e-07
3.55169e-05
-1.66484e-05
3.42207e-05
-3.29318e-05
3.25659e-05
-4.83775e-05
3.08679e-05
-6.27657e-05
2.87429e-05
-7.61726e-05
2.68311e-05
-8.84782e-05
2.46252e-05
-9.98395e-05
2.27095e-05
-0.000110047
2.04111e-05
-0.00011927
1.84481e-05
-0.000127568
1.65885e-05
-0.000134855
1.45621e-05
-0.000141245
1.27792e-05
-0.000146785
1.1081e-05
-0.000151553
9.53688e-06
-0.00015558
8.04508e-06
-0.000158889
6.62592e-06
-0.000161528
5.26764e-06
-0.0001635
3.94116e-06
-0.000164814
2.61927e-06
-0.000165537
1.44388e-06
-0.000165667
2.63859e-07
-0.00016527
-7.8356e-07
-0.000164377
-1.7973e-06
-0.000163013
-2.70944e-06
-0.000161234
-3.58856e-06
-0.00015893
-4.61207e-06
-0.00015619
-5.48662e-06
-0.000152765
-6.84536e-06
-0.000148843
-7.847e-06
-0.000144111
-9.41e-06
-0.000138831
-1.06094e-05
-0.00013273
-1.2206e-05
-0.000125871
-1.37145e-05
-0.00011821
-1.53365e-05
-0.000109792
-1.68195e-05
-0.000100552
-1.84779e-05
-9.04359e-05
-2.02293e-05
-7.96216e-05
-2.16255e-05
-6.79262e-05
-2.33894e-05
-5.54079e-05
-2.50793e-05
-4.21519e-05
-2.64538e-05
-2.81445e-05
-2.80076e-05
-1.34028e-05
-2.94812e-05
1.92815e-06
-3.06398e-05
1.78197e-05
-3.17745e-05
3.41277e-05
-3.26127e-05
5.0707e-05
-3.31461e-05
6.73903e-05
-3.33414e-05
8.4e-05
-3.31946e-05
0.000100318
-3.26233e-05
0.00011611
-3.15731e-05
0.000131091
-2.99438e-05
0.000145076
-2.79486e-05
0.000157764
-2.53556e-05
0.000168856
-2.21849e-05
0.000178194
-1.86626e-05
0.00018552
-1.46338e-05
0.000190696
-1.03489e-05
0.000193565
-5.74627e-06
0.00019407
-9.98559e-07
0.000192182
3.76914e-06
0.00018784
8.68667e-06
0.000181175
1.33272e-05
0.00017231
1.77356e-05
0.000161364
2.18726e-05
0.000148592
2.55302e-05
0.000134208
2.87479e-05
0.000118483
3.14373e-05
0.00010159
3.37687e-05
8.39282e-05
3.53049e-05
6.56797e-05
3.64767e-05
4.71727e-05
3.7007e-05
2.86257e-05
3.70759e-05
1.02946e-05
3.66402e-05
-7.58647e-06
3.57628e-05
-2.49188e-05
3.46673e-05
-4.15074e-05
3.31933e-05
-5.72731e-05
3.15097e-05
-7.20641e-05
2.95782e-05
-8.5828e-05
2.75218e-05
-9.85287e-05
2.54009e-05
-0.000110208
2.33687e-05
-0.000120863
2.13129e-05
-0.000130422
1.91211e-05
-0.000138944
1.70514e-05
-0.000146453
1.50155e-05
-0.000152981
1.30598e-05
-0.000158529
1.10969e-05
-0.0001632
9.34173e-06
-0.000166913
7.42171e-06
-0.00016972
5.61881e-06
-0.000171696
3.94664e-06
-0.000172814
2.23695e-06
-0.000173048
4.69939e-07
-0.000172521
-1.0472e-06
-0.000171078
-2.88329e-06
-0.000169034
-4.08595e-06
-0.000166328
-5.40701e-06
-0.000163026
-6.59849e-06
-0.000159375
-7.29883e-06
-0.000155408
-7.92962e-06
-0.000151039
-8.73302e-06
-0.000146479
-9.12003e-06
-0.000141548
-9.86349e-06
-0.000136367
-1.0362e-05
-0.000130942
-1.08511e-05
-0.000125106
-1.16754e-05
-0.000118785
-1.26448e-05
-0.000112045
-1.34855e-05
-0.000104561
-1.49711e-05
-9.63149e-05
-1.64957e-05
-8.73682e-05
-1.78987e-05
-7.74745e-05
-1.97841e-05
-6.66266e-05
-2.1685e-05
-5.46304e-05
-2.39998e-05
-4.15668e-05
-2.61264e-05
-2.76581e-05
-2.78184e-05
-1.2739e-05
-2.98315e-05
3.28043e-06
-3.20312e-05
1.98761e-05
-3.31839e-05
3.71919e-05
-3.46192e-05
5.49109e-05
-3.54283e-05
7.28827e-05
-3.59314e-05
9.09046e-05
-3.60245e-05
0.000108498
-3.51753e-05
0.000125574
-3.41387e-05
0.000141843
-3.25257e-05
0.00015692
-3.01413e-05
0.000170641
-2.74288e-05
0.000182706
-2.41084e-05
0.000192905
-2.03751e-05
0.000201051
-1.62757e-05
0.000206972
-1.18531e-05
0.000210652
-7.36867e-06
0.00021202
-2.73281e-06
0.000210876
2.27815e-06
0.000207368
7.0088e-06
0.000201546
1.16408e-05
0.000193704
1.56738e-05
0.000184038
1.93226e-05
0.000172629
2.28106e-05
0.000159817
2.56122e-05
0.000145828
2.79685e-05
0.000130886
2.98695e-05
0.000115314
3.11335e-05
9.93043e-05
3.20079e-05
8.30165e-05
3.25695e-05
6.66009e-05
3.28233e-05
5.02601e-05
3.26746e-05
3.4122e-05
3.22693e-05
1.8384e-05
3.14683e-05
3.10257e-06
3.05558e-05
-1.18306e-05
2.98687e-05
-2.6221e-05
2.87788e-05
-4.00186e-05
2.75938e-05
-5.31753e-05
2.63105e-05
-6.56966e-05
2.50416e-05
-7.75276e-05
2.36587e-05
-8.86835e-05
2.23133e-05
-9.91266e-05
2.08833e-05
-0.000108826
1.93957e-05
-0.000117787
1.79222e-05
-0.000125973
1.63731e-05
-0.000133363
1.47783e-05
-0.000139952
1.31794e-05
-0.000145724
1.15442e-05
-0.000150682
9.91685e-06
-0.000154814
8.26538e-06
-0.000158112
6.59371e-06
-0.000160586
4.94442e-06
3.23843e-06
-4.44289e-05
-4.31302e-05
-2.87674e-05
-4.69724e-05
-1.21389e-05
-4.98168e-05
5.33242e-06
-5.24334e-05
2.36253e-05
-5.48455e-05
4.22871e-05
-5.59338e-05
6.14178e-05
-5.73311e-05
8.06211e-05
-5.75519e-05
9.95804e-05
-5.68159e-05
0.000118239
-5.5904e-05
0.000136276
-5.40364e-05
0.000153338
-5.11288e-05
0.000169252
-4.76921e-05
0.000183789
-4.35548e-05
0.000196621
-3.84385e-05
0.000207537
-3.26977e-05
0.000216302
-2.62677e-05
0.00022278
-1.94376e-05
0.000226877
-1.22706e-05
0.000228437
-4.63531e-06
0.000227474
2.78021e-06
0.00022395
1.05108e-05
0.000217846
1.82887e-05
0.000209533
2.49148e-05
0.000198929
3.17791e-05
0.000186476
3.73104e-05
0.000172332
4.23721e-05
0.000156652
4.69762e-05
0.000139729
5.07367e-05
0.000121819
5.36831e-05
0.00010327
5.55763e-05
8.43408e-05
5.67531e-05
6.51279e-05
5.75924e-05
4.59746e-05
5.74163e-05
2.71518e-05
5.64124e-05
8.79619e-06
5.50649e-05
-9.11175e-06
5.36729e-05
-2.62995e-05
5.15418e-05
-4.2668e-05
4.90839e-05
-5.81387e-05
4.63973e-05
-7.26855e-05
4.36312e-05
-8.62426e-05
4.06609e-05
-9.88202e-05
3.77264e-05
-0.000110403
3.4744e-05
-0.000120982
3.17307e-05
-0.000130603
2.8866e-05
-0.000139285
2.60448e-05
-0.000147025
2.32245e-05
-0.000153876
2.05498e-05
-0.000159856
1.79382e-05
-0.000164995
1.54195e-05
-0.000169292
1.28911e-05
-0.000172796
1.04987e-05
-0.000175523
8.20683e-06
-0.000177476
5.84796e-06
-0.00017867
3.58289e-06
-0.000179143
1.45197e-06
-0.00017882
-9.61717e-07
-0.000177678
-3.40985e-06
-0.000175774
-5.73026e-06
-0.00017303
-8.2422e-06
-0.000169477
-1.06563e-05
-0.000165145
-1.30038e-05
-0.000159923
-1.56761e-05
-0.000153866
-1.81694e-05
-0.00014705
-2.04603e-05
-0.000139227
-2.34672e-05
-0.000130578
-2.59368e-05
-0.00012091
-2.89878e-05
-0.000110409
-3.15291e-05
-9.90715e-05
-3.40011e-05
-8.68296e-05
-3.67142e-05
-7.36417e-05
-3.95546e-05
-5.97778e-05
-4.15737e-05
-4.50167e-05
-4.42715e-05
-2.95766e-05
-4.63112e-05
-1.34056e-05
-4.85092e-05
3.25074e-06
-4.99519e-05
2.04142e-05
-5.14613e-05
3.79577e-05
-5.2591e-05
5.58674e-05
-5.36797e-05
7.38207e-05
-5.38506e-05
9.17875e-05
-5.38466e-05
0.000109568
-5.33002e-05
0.000127037
-5.2352e-05
0.000143938
-5.06574e-05
0.000160087
-4.83908e-05
0.00017524
-4.54129e-05
0.000189125
-4.15945e-05
0.000201483
-3.70099e-05
0.000212003
-3.15347e-05
0.000220488
-2.54329e-05
0.000226726
-1.8716e-05
0.000230618
-1.16788e-05
0.000232078
-4.37656e-06
0.000230999
3.14199e-06
0.000227433
1.06542e-05
0.000221469
1.79543e-05
0.000213127
2.49117e-05
0.000202672
3.13199e-05
0.000190199
3.73518e-05
0.000175923
4.27376e-05
0.000160053
4.75785e-05
0.000142853
5.15604e-05
0.000124591
5.47181e-05
0.000105519
5.71213e-05
8.59223e-05
5.8741e-05
6.61219e-05
5.93607e-05
4.63655e-05
5.92917e-05
2.68505e-05
5.84273e-05
7.88281e-06
5.6847e-05
-1.04178e-05
5.48367e-05
-2.78454e-05
5.22679e-05
-4.43151e-05
4.93213e-05
-5.97232e-05
4.62906e-05
-7.40225e-05
4.28923e-05
-8.71831e-05
3.94495e-05
-9.91837e-05
3.5971e-05
-0.000110112
3.28175e-05
-0.000119897
2.93506e-05
-0.00012861
2.61388e-05
-0.000136268
2.2951e-05
-0.000142939
2.00067e-05
-0.000148644
1.7136e-05
-0.000153411
1.43818e-05
-0.000157379
1.18308e-05
-0.000160438
9.29618e-06
-0.000162819
7.05721e-06
-0.00016437
4.7087e-06
-0.000165297
2.72485e-06
-0.00016551
6.70247e-07
-0.000165085
-1.30211e-06
-0.000164061
-3.06009e-06
-0.000162414
-4.99407e-06
-0.000160215
-6.58278e-06
-0.000157397
-8.46586e-06
-0.000154038
-1.00621e-05
-0.000150085
-1.19758e-05
-0.000145533
-1.35659e-05
-0.000140294
-1.55798e-05
-0.000134539
-1.74122e-05
-0.000128082
-1.93785e-05
-0.000120909
-2.15153e-05
-0.000112989
-2.37521e-05
-0.000104397
-2.57765e-05
-9.50167e-05
-2.81529e-05
-8.47838e-05
-3.06996e-05
-7.37354e-05
-3.32721e-05
-6.18269e-05
-3.55903e-05
-4.90652e-05
-3.827e-05
-3.54621e-05
-4.07738e-05
-2.10571e-05
-4.32995e-05
-5.90488e-06
-4.53822e-05
9.95931e-06
-4.75252e-05
2.63836e-05
-4.92481e-05
4.32712e-05
-5.06063e-05
6.04827e-05
-5.1581e-05
7.7862e-05
-5.20249e-05
9.51576e-05
-5.18853e-05
0.000112254
-5.12426e-05
0.000128838
-4.97031e-05
0.000144732
-4.7625e-05
0.00015964
-4.46443e-05
0.000173309
-4.09441e-05
0.000185487
-3.65329e-05
0.000195938
-3.12842e-05
0.000204443
-2.54597e-05
0.000210793
-1.90164e-05
0.000214812
-1.20403e-05
0.000216414
-4.75148e-06
0.000215505
2.67825e-06
0.000212076
1.02209e-05
0.000206143
1.77479e-05
0.000197881
2.48135e-05
0.000187444
3.12759e-05
0.000175027
3.71659e-05
0.000160877
4.24613e-05
0.000145217
4.69088e-05
0.000128362
5.04607e-05
0.000110636
5.31013e-05
9.23349e-05
5.48886e-05
7.36698e-05
5.59577e-05
5.496e-05
5.6072e-05
3.63954e-05
5.56476e-05
1.80583e-05
5.49741e-05
2.85561e-07
5.32896e-05
-1.68442e-05
5.13505e-05
-3.31669e-05
4.88886e-05
-4.85995e-05
4.63005e-05
-6.3017e-05
4.31604e-05
-7.63977e-05
4.02118e-05
-8.87014e-05
3.69289e-05
-0.000100056
3.40642e-05
-0.000110267
3.06217e-05
-0.000119491
2.7672e-05
-0.000127773
2.48709e-05
-0.000135075
2.18644e-05
-0.000141462
1.9166e-05
-0.000146991
1.66098e-05
-0.000151744
1.42896e-05
-0.00015578
1.20808e-05
-0.000159054
9.90072e-06
-0.000161724
7.93694e-06
-0.000163682
5.89973e-06
-0.000165002
3.93866e-06
-0.000165721
2.16304e-06
-0.000165856
3.99605e-07
-0.000165439
-1.20084e-06
-0.000164563
-2.67328e-06
-0.000163155
-4.11723e-06
-0.000161427
-5.31673e-06
-0.00015912
-6.91941e-06
-0.000156379
-8.22709e-06
-0.000152991
-1.0234e-05
-0.000149043
-1.17944e-05
-0.000144309
-1.41448e-05
-0.00013904
-1.58784e-05
-0.000132938
-1.83079e-05
-0.000126068
-2.05845e-05
-0.000118424
-2.29807e-05
-0.000109994
-2.52487e-05
-0.00010076
-2.77125e-05
-9.06902e-05
-3.02989e-05
-7.98271e-05
-3.24886e-05
-6.81351e-05
-3.50815e-05
-5.56359e-05
-3.75785e-05
-4.23529e-05
-3.97368e-05
-2.83344e-05
-4.20262e-05
-1.35886e-05
-4.42271e-05
1.76275e-06
-4.59912e-05
1.7672e-05
-4.76837e-05
3.39843e-05
-4.8925e-05
5.05723e-05
-4.9734e-05
6.72837e-05
-5.00529e-05
8.39081e-05
-4.9819e-05
0.00010025
-4.89653e-05
0.000116068
-4.73909e-05
0.000131071
-4.49474e-05
0.000145065
-4.19424e-05
0.00015779
-3.80801e-05
0.000168887
-3.32821e-05
0.000178241
-2.8017e-05
0.000185578
-2.19708e-05
0.000190782
-1.55526e-05
0.000193648
-8.61213e-06
0.000194146
-1.49742e-06
0.000192238
5.67738e-06
0.000187934
1.29912e-05
0.000181234
2.00264e-05
0.000172348
2.66216e-05
0.000161401
3.28199e-05
0.000148595
3.83358e-05
0.000134186
4.3157e-05
0.00011841
4.72131e-05
0.000101516
5.06627e-05
8.38277e-05
5.29931e-05
6.55652e-05
5.4739e-05
4.70553e-05
5.55168e-05
2.84797e-05
5.56515e-05
1.01315e-05
5.49884e-05
-7.74993e-06
5.36443e-05
-2.51152e-05
5.20326e-05
-4.16714e-05
4.97495e-05
-5.74261e-05
4.72645e-05
-7.2225e-05
4.43773e-05
-8.59887e-05
4.12856e-05
-9.86814e-05
3.80937e-05
-0.000110343
3.50304e-05
-0.000121
3.19698e-05
-0.000130554
2.86754e-05
-0.000139064
2.55621e-05
-0.000146568
2.25196e-05
-0.000153086
1.95774e-05
-0.000158629
1.66399e-05
-0.000163297
1.40103e-05
-0.000167003
1.11279e-05
-0.000169817
8.43267e-06
-0.000171809
5.93835e-06
-0.000172899
3.3271e-06
-0.000173124
6.94836e-07
-0.000172592
-1.57956e-06
-0.000171143
-4.3322e-06
-0.000169088
-6.14102e-06
-0.000166376
-8.11814e-06
-0.000163064
-9.91056e-06
-0.000159408
-1.09555e-05
-0.000155437
-1.19007e-05
-0.000151065
-1.31047e-05
-0.000146501
-1.36835e-05
-0.000141571
-1.4794e-05
-0.000136392
-1.55405e-05
-0.000130973
-1.62707e-05
-0.000125143
-1.75051e-05
-0.000118828
-1.89599e-05
-0.000112096
-2.02178e-05
-0.00010462
-2.24464e-05
-9.63811e-05
-2.47349e-05
-8.74451e-05
-2.68347e-05
-7.75524e-05
-2.96768e-05
-6.66947e-05
-3.25427e-05
-5.47095e-05
-3.5985e-05
-4.16465e-05
-3.91895e-05
-2.77418e-05
-4.17232e-05
-1.28171e-05
-4.47562e-05
3.21847e-06
-4.80668e-05
1.98254e-05
-4.97908e-05
3.71559e-05
-5.19496e-05
5.48927e-05
-5.31652e-05
7.28884e-05
-5.39271e-05
9.09336e-05
-5.40698e-05
0.000108548
-5.279e-05
0.00012565
-5.12405e-05
0.000141947
-4.88227e-05
0.000157052
-4.52459e-05
0.000170797
-4.11742e-05
0.000182882
-3.61933e-05
0.000193091
-3.05837e-05
0.000201252
-2.44368e-05
0.000207187
-1.77879e-05
0.000210884
-1.10664e-05
0.000212261
-4.10989e-06
0.000211072
3.46696e-06
0.000207535
1.05459e-05
0.000201707
1.74693e-05
0.000193849
2.35317e-05
0.000184162
2.90089e-05
0.00017274
3.42325e-05
0.00015991
3.84427e-05
0.000145912
4.1966e-05
0.000130942
4.48396e-05
0.00011535
4.67261e-05
9.93215e-05
4.80361e-05
8.30248e-05
4.88662e-05
6.65968e-05
4.92514e-05
5.0246e-05
4.90254e-05
3.40979e-05
4.84174e-05
1.83472e-05
4.72189e-05
3.05331e-06
4.58498e-05
-1.18779e-05
4.47999e-05
-2.62718e-05
4.31726e-05
-4.00734e-05
4.13954e-05
-5.32309e-05
3.94679e-05
-6.5752e-05
3.75627e-05
-7.7585e-05
3.54917e-05
-8.87423e-05
3.34706e-05
-9.91856e-05
3.13266e-05
-0.000108884
2.9094e-05
-0.000117845
2.68837e-05
-0.000126031
2.45592e-05
-0.00013342
2.21669e-05
-0.000140009
1.97687e-05
-0.000145782
1.73164e-05
-0.000150742
1.48775e-05
-0.000154878
1.24011e-05
-0.000158177
9.89221e-06
-0.000160656
7.42415e-06
4.8508e-06
-4.45332e-05
-5.75191e-05
-2.88655e-05
-6.26402e-05
-1.22167e-05
-6.64656e-05
5.26604e-06
-6.99163e-05
2.35819e-05
-7.31615e-05
4.22759e-05
-7.46278e-05
6.14422e-05
-7.64975e-05
8.06854e-05
-7.67951e-05
9.96866e-05
-7.58171e-05
0.000118382
-7.45992e-05
0.000136455
-7.21096e-05
0.000153556
-6.82301e-05
0.000169505
-6.36413e-05
0.000184076
-5.81255e-05
0.000196935
-5.12976e-05
0.000207872
-4.36344e-05
0.000216665
-3.50613e-05
0.000223153
-2.59255e-05
0.000227254
-1.63714e-05
0.000228816
-6.19731e-06
0.000227781
3.81489e-06
0.000224232
1.40596e-05
0.000218111
2.44096e-05
0.000209772
3.32535e-05
0.000199162
4.23892e-05
0.000186683
4.97897e-05
0.000172503
5.65522e-05
0.000156783
6.26962e-05
0.000139845
6.76749e-05
0.000121909
7.16187e-05
0.000103316
7.41695e-05
8.43672e-05
7.57017e-05
6.5128e-05
7.68316e-05
4.59518e-05
7.65925e-05
2.70937e-05
7.52704e-05
8.73844e-06
7.34202e-05
-9.20263e-06
7.1614e-05
-2.64031e-05
6.87423e-05
-4.2783e-05
6.54638e-05
-5.8262e-05
6.18763e-05
-7.28144e-05
5.81835e-05
-8.63772e-05
5.42236e-05
-9.89573e-05
5.03064e-05
-0.000110542
4.63289e-05
-0.000121125
4.23131e-05
-0.000130741
3.84826e-05
-0.000139421
3.47249e-05
-0.000147163
3.09661e-05
-0.000154013
2.74003e-05
-0.00015999
2.39146e-05
-0.000165124
2.05537e-05
-0.000169426
1.71936e-05
-0.000172929
1.40008e-05
-0.000175657
1.0935e-05
-0.000177609
7.80018e-06
-0.000178801
4.7744e-06
-0.00017925
1.90178e-06
-0.000178912
-1.30029e-06
-0.000177764
-4.55766e-06
-0.00017587
-7.62433e-06
-0.00017313
-1.09824e-05
-0.000169579
-1.42068e-05
-0.000165254
-1.73294e-05
-0.000160039
-2.08905e-05
-0.000153984
-2.42244e-05
-0.00014717
-2.72747e-05
-0.000139341
-3.12964e-05
-0.000130687
-3.45905e-05
-0.000121049
-3.86263e-05
-0.000110528
-4.20503e-05
-9.91846e-05
-4.53442e-05
-8.69366e-05
-4.89622e-05
-7.37468e-05
-5.27445e-05
-5.98729e-05
-5.54477e-05
-4.51046e-05
-5.90399e-05
-2.96595e-05
-6.17563e-05
-1.35127e-05
-6.46561e-05
3.17533e-06
-6.664e-05
2.03522e-05
-6.86381e-05
3.79196e-05
-7.01584e-05
5.58528e-05
-7.16128e-05
7.38087e-05
-7.18066e-05
9.18043e-05
-7.18421e-05
0.000109603
-7.10989e-05
0.000127097
-6.9846e-05
0.000144019
-6.75793e-05
0.000160194
-6.45652e-05
0.000175368
-6.05873e-05
0.000189273
-5.54985e-05
0.000201659
-4.93955e-05
0.000212199
-4.20751e-05
0.000220704
-3.39368e-05
0.000226945
-2.49565e-05
0.00023083
-1.55633e-05
0.000232243
-5.79011e-06
0.000231138
4.24806e-06
0.000227551
1.42416e-05
0.00022154
2.39647e-05
0.00021321
3.32419e-05
0.000202736
4.17945e-05
0.000190225
4.98626e-05
0.000175914
5.70484e-05
0.000160023
6.34698e-05
0.000142787
6.87964e-05
0.000124489
7.30162e-05