/*--------------------------------*- C++ -*----------------------------------*\
| =========                 |                                                 |
| \\      /  F ield         | OpenFOAM: The Open Source CFD Toolbox           |
|  \\    /   O peration     | Version:  3.0.1                                 |
|   \\  /    A nd           | Web:      www.OpenFOAM.org                      |
|    \\/     M anipulation  |                                                 |
\*---------------------------------------------------------------------------*/
FoamFile
{
    version     2.0;
    format      ascii;
    class       volScalarField;
    location    "57.2";
    object      p_rgh;
}
// * * * * * * * * * * * * * * * * * * * * * * * * * * * * * * * * * * * * * //

dimensions      [1 -1 -2 0 0 0 0];

internalField   nonuniform List<scalar> 
21420
(
-96.9169
-68.5661
-38.8881
-8.65358
21.5296
54.7764
88.9861
123.497
157.845
191.589
224.207
255.213
284.183
310.68
334.318
354.747
371.654
384.803
393.998
399.104
399.937
396.636
389.19
377.711
362.377
343.432
321.158
295.883
268.007
237.919
206.035
172.822
138.71
104.134
69.4928
35.1448
1.59725
-30.6076
-62.0422
-92.3062
-121.15
-148.405
-173.967
-197.762
-219.758
-239.948
-258.338
-274.955
-289.834
-303.014
-314.54
-324.454
-332.8
-339.61
-344.915
-348.747
-351.088
-351.935
-351.316
-349.225
-345.626
-340.506
-333.815
-325.533
-315.628
-304.05
-290.784
-275.808
-259.097
-240.651
-220.477
-198.609
-175.102
-150.022
-123.454
-95.5175
-66.3221
-35.9815
-4.24179
27.7216
59.9806
92.3238
124.508
156.234
187.173
216.968
245.254
271.658
295.81
317.358
335.973
351.366
363.289
371.543
375.982
376.418
372.999
365.623
354.356
339.339
320.755
298.832
273.85
246.13
216.042
183.986
150.39
115.705
80.3849
44.8781
9.61631
-25.0007
-58.6199
-90.9415
-121.712
-150.734
-177.867
-203.017
-226.131
-247.195
-266.227
-283.26
-298.345
-311.543
-322.921
-332.546
-340.489
-346.816
-351.596
-354.908
-356.791
-357.286
-356.504
-354.463
-351.202
-346.749
-341.12
-334.315
-326.319
-317.106
-306.641
-294.873
-281.758
-267.245
-251.28
-233.817
-214.824
-194.277
-172.159
-148.48
-123.275
-96.603
-68.5605
-39.2557
-8.89893
22.2967
54.082
86.1606
118.2
149.833
180.664
210.285
238.273
264.206
287.67
308.268
325.636
339.452
349.443
355.405
357.117
354.674
347.978
337.13
322.301
303.736
281.738
256.673
228.952
199.024
167.357
134.431
100.72
66.6742
32.7094
-0.796129
-33.4255
-65.034
-95.2989
-124.023
-151.059
-176.307
-199.706
-221.234
-240.902
-258.735
-274.784
-289.112
-301.786
-312.876
-322.452
-330.582
-337.326
-342.742
-346.882
-349.796
-351.501
-352.009
-351.383
-349.603
-346.661
-342.546
-337.229
-330.677
-322.851
-313.706
-303.197
-291.274
-277.905
-263.05
-246.678
-228.772
-209.321
-188.323
-165.788
-141.749
-116.254
-89.3758
-61.2152
-31.8975
-1.47545
29.596
61.1866
93.0187
124.767
156.074
186.55
215.783
243.354
268.841
291.823
311.91
328.738
341.989
351.398
356.748
357.907
354.852
347.635
336.304
321.08
302.229
280.085
255.036
227.506
197.953
166.843
134.644
101.818
68.8066
36.0209
3.8337
-27.4322
-57.5041
-86.1613
-113.238
-138.62
-162.234
-184.04
-204.038
-222.254
-238.726
-253.507
-266.665
-278.267
-288.375
-297.061
-304.397
-310.436
-315.216
-318.795
-321.294
-322.703
-323.05
-322.368
-320.674
-317.967
-314.254
-309.508
-303.695
-296.779
-288.703
-279.416
-268.847
-256.892
-243.458
-228.447
-211.752
-193.301
-173.034
-150.911
-126.942
-101.163
-73.6921
-44.7594
-15.3782
15.7809
47.7991
80.2593
112.708
144.687
175.794
205.565
233.541
259.333
282.547
302.839
319.912
333.516
343.473
349.671
351.931
350.221
344.664
335.426
322.696
306.761
287.941
266.547
242.94
217.514
190.632
162.653
133.939
104.822
75.6261
46.6733
18.2784
-8.81076
-35.7699
-62.1348
-87.6527
-112.155
-135.524
-157.677
-178.542
-198.068
-216.211
-232.926
-248.176
-261.931
-274.159
-284.835
-293.937
-301.449
-307.366
-311.695
-96.9986
-68.6422
-38.9547
-8.71227
21.4646
54.723
88.9477
123.475
157.842
191.606
224.245
255.27
284.26
310.776
334.431
354.875
371.795
384.954
394.157
399.267
400.11
396.792
389.345
377.856
362.51
343.551
321.26
295.966
268.072
237.964
206.062
172.83
138.701
104.109
69.4531
35.0933
1.53953
-30.6735
-62.1153
-92.3842
-121.231
-148.487
-174.05
-197.845
-219.839
-240.027
-258.415
-275.028
-289.905
-303.083
-314.606
-324.518
-332.862
-339.67
-344.974
-348.805
-351.145
-351.992
-351.375
-349.284
-345.686
-340.569
-333.88
-325.599
-315.697
-304.121
-290.857
-275.884
-259.174
-240.729
-220.555
-198.687
-175.179
-150.097
-123.527
-95.5876
-66.389
-36.0436
-4.28855
27.6813
59.9481
92.3014
124.497
156.237
187.19
217.001
245.303
271.723
295.892
317.455
336.085
351.49
363.423
371.685
376.128
376.575
373.14
365.765
354.491
339.464
320.867
298.929
273.93
246.193
216.086
184.01
150.395
115.691
80.3531
44.83
9.55384
-25.0753
-58.7043
-91.0335
-121.809
-150.834
-177.969
-203.118
-226.231
-247.294
-266.322
-283.352
-298.434
-311.628
-323.002
-332.625
-340.565
-346.889
-351.666
-354.975
-356.854
-357.349
-356.565
-354.523
-351.261
-346.807
-341.178
-334.374
-326.379
-317.169
-306.705
-294.94
-281.828
-267.318
-251.355
-233.894
-214.904
-194.358
-172.241
-148.563
-123.356
-96.6828
-68.6361
-39.3266
-8.96282
22.242
54.0383
86.1297
118.183
149.832
180.682
210.321
238.328
264.28
287.762
308.378
325.761
339.591
349.592
355.56
357.284
354.826
348.129
337.273
322.432
303.852
281.837
256.751
229.01
199.061
167.373
134.428
100.699
66.6364
32.6574
-0.861812
-33.498
-65.1159
-95.3864
-124.114
-151.152
-176.4
-199.798
-221.324
-240.99
-258.819
-274.865
-289.19
-301.86
-312.947
-322.519
-330.646
-337.388
-342.802
-346.94
-349.852
-351.555
-352.064
-351.438
-349.657
-346.717
-342.602
-337.287
-330.737
-322.913
-313.77
-303.263
-291.342
-277.976
-263.122
-246.752
-228.848
-209.398
-188.401
-165.866
-141.826
-116.33
-89.4492
-61.2852
-31.9628
-1.53232
29.547
61.1482
92.9929
124.756
156.079
186.571
215.823
243.414
268.919
291.92
312.024
328.868
342.131
351.549
356.911
358.063
355.007
347.785
336.445
321.207
302.34
280.177
255.108
227.558
197.983
166.854
134.636
101.792
68.7651
35.9659
3.76769
-27.5068
-57.585
-86.2464
-113.326
-138.708
-162.32
-184.124
-204.12
-222.332
-238.8
-253.578
-266.733
-278.33
-288.435
-297.118
-304.45
-310.487
-315.263
-318.841
-321.338
-322.746
-323.092
-322.41
-320.715
-318.008
-314.296
-309.552
-303.74
-296.827
-288.753
-279.469
-268.905
-256.955
-243.525
-228.518
-211.828
-193.38
-173.116
-150.995
-127.026
-101.245
-73.7677
-44.8268
-15.4474
15.7255
47.7586
80.2348
112.7
144.697
175.824
205.614
233.609
259.42
282.65
302.957
320.043
333.656
343.62
349.82
352.089
350.364
344.804
335.556
322.814
306.864
288.028
266.619
242.995
217.552
190.656
162.662
133.934
104.805
75.598
46.6334
18.2281
-8.84746
-35.8143
-62.1859
-87.708
-112.214
-135.583
-157.737
-178.604
-198.13
-216.274
-232.989
-248.24
-261.995
-274.223
-284.899
-294.001
-301.513
-307.43
-311.759
-97.1623
-68.7944
-39.0883
-8.82874
21.3343
54.6162
88.871
123.432
157.836
191.64
224.32
255.385
284.414
310.967
334.656
355.132
372.078
385.258
394.475
399.591
400.453
397.108
389.656
378.147
362.776
343.788
321.464
296.134
268.202
238.056
206.115
172.847
138.683
104.059
69.3736
34.99
1.42421
-30.8054
-62.2614
-92.5402
-121.393
-148.653
-174.216
-198.01
-220.001
-240.185
-258.567
-275.176
-290.047
-303.22
-314.738
-324.646
-332.985
-339.791
-345.092
-348.92
-351.26
-352.106
-351.494
-349.403
-345.807
-340.692
-334.007
-325.731
-315.833
-304.262
-291.002
-276.032
-259.325
-240.881
-220.708
-198.839
-175.329
-150.244
-123.669
-95.7238
-66.5186
-36.1632
-4.37756
27.6056
59.8881
92.2621
124.482
156.249
187.231
217.074
245.409
271.863
296.064
317.66
336.318
351.749
363.703
371.98
376.431
376.899
373.437
366.06
354.772
339.726
321.104
299.137
274.105
246.332
216.187
184.073
150.419
115.678
80.3045
44.7491
9.44453
-25.2084
-58.8568
-91.2006
-121.986
-151.018
-178.154
-203.303
-226.413
-247.471
-266.494
-283.516
-298.591
-311.778
-323.146
-332.761
-340.695
-347.013
-351.785
-355.089
-356.959
-357.454
-356.666
-354.62
-351.357
-346.903
-341.274
-334.471
-326.479
-317.273
-306.814
-295.054
-281.948
-267.443
-251.485
-234.03
-215.044
-194.502
-172.387
-148.71
-123.502
-96.8249
-68.7704
-39.4515
-9.07386
22.1491
53.9669
86.0837
118.166
149.847
180.731
210.407
238.452
264.442
287.961
308.611
326.026
339.882
349.904
355.884
357.628
355.146
348.446
337.573
322.708
304.097
282.045
256.921
229.139
199.147
167.418
134.434
100.669
66.5739
32.5668
-0.979316
-33.6293
-65.2656
-95.5471
-124.281
-151.323
-176.572
-199.967
-221.49
-241.148
-258.972
-275.01
-289.328
-301.991
-313.071
-322.637
-330.758
-337.495
-342.904
-347.039
-349.949
-351.645
-352.157
-351.53
-349.75
-346.811
-342.698
-337.386
-330.84
-323.02
-313.882
-303.379
-291.463
-278.101
-263.251
-246.885
-228.984
-209.537
-188.541
-166.007
-141.966
-116.467
-89.5818
-61.4111
-32.0798
-1.63233
29.4626
61.0845
92.9542
124.746
156.101
186.628
215.917
243.545
269.088
292.126
312.264
329.138
342.427
351.863
357.246
358.389
355.33
348.097
336.737
321.473
302.573
280.373
255.263
227.671
198.056
166.886
134.63
101.752
68.6932
35.8669
3.64646
-27.6454
-57.7365
-86.4065
-113.49
-138.874
-162.484
-184.285
-204.276
-222.482
-238.943
-253.713
-266.86
-278.451
-288.549
-297.225
-304.551
-310.584
-315.351
-318.931
-321.423
-322.829
-323.172
-322.489
-320.794
-318.089
-314.378
-309.636
-303.828
-296.919
-288.851
-279.575
-269.02
-257.078
-243.657
-228.66
-211.978
-193.539
-173.28
-151.163
-127.193
-101.407
-73.9184
-44.9609
-15.5854
15.6151
47.678
80.1862
112.686
144.719
175.884
205.713
233.746
259.592
282.857
303.193
320.305
333.937
343.913
350.117
352.402
350.652
345.084
335.816
323.049
307.071
288.204
266.761
243.105
217.63
190.702
162.68
133.925
104.772
75.5417
46.5534
18.1272
-8.92085
-35.9033
-62.288
-87.8187
-112.33
-135.703
-157.859
-178.727
-198.255
-216.399
-233.115
-248.367
-262.122
-274.35
-285.027
-294.129
-301.641
-307.558
-311.886
-97.408
-69.0232
-39.2901
-9.00197
21.1384
54.4557
88.7556
123.368
157.827
191.69
224.432
255.558
284.646
311.254
334.994
355.516
372.502
385.713
394.952
400.078
400.961
397.587
390.122
378.584
363.176
344.144
321.771
296.386
268.396
238.193
206.195
172.872
138.656
103.984
69.2541
34.8342
1.25165
-31.0034
-62.4808
-92.7744
-121.637
-148.902
-174.466
-198.257
-220.244
-240.422
-258.797
-275.398
-290.261
-303.425
-314.936
-324.838
-333.171
-339.972
-345.269
-349.092
-351.429
-352.28
-351.672
-349.58
-345.988
-340.878
-334.198
-325.928
-316.037
-304.472
-291.219
-276.254
-259.551
-241.11
-220.939
-199.068
-175.555
-150.464
-123.882
-95.9283
-66.7131
-36.3427
-4.51123
27.4918
59.7981
92.2035
124.46
156.267
187.294
217.184
245.569
272.073
296.325
317.968
336.671
352.14
364.126
372.425
376.889
377.379
373.893
366.506
355.198
340.122
321.463
299.451
274.37
246.543
216.342
184.17
150.459
115.661
80.2344
44.6304
9.28326
-25.4054
-59.083
-91.4488
-122.25
-151.29
-178.431
-203.578
-226.684
-247.735
-266.748
-283.76
-298.824
-312.001
-323.358
-332.963
-340.887
-347.197
-351.961
-355.257
-357.116
-357.609
-356.814
-354.764
-351.498
-347.043
-341.415
-334.615
-326.627
-317.427
-306.975
-295.223
-282.125
-267.628
-251.678
-234.231
-215.253
-194.715
-172.604
-148.928
-123.718
-97.035
-68.9693
-39.6364
-9.23744
22.0124
53.8628
86.0175
118.144
149.873
180.809
210.54
238.641
264.688
288.262
308.965
326.427
340.322
350.374
356.373
358.142
355.635
348.925
338.027
323.125
304.467
282.361
257.178
229.334
199.279
167.489
134.446
100.626
66.4827
32.4336
-1.1523
-33.8249
-65.488
-95.7859
-124.53
-151.577
-176.827
-200.219
-221.735
-241.385
-259.198
-275.227
-289.533
-302.185
-313.254
-322.811
-330.923
-337.653
-343.056
-347.185
-350.09
-351.78
-352.294
-351.666
-349.886
-346.95
-342.84
-337.533
-330.992
-323.178
-314.048
-303.551
-291.643
-278.287
-263.443
-247.082
-229.186
-209.742
-188.749
-166.216
-142.174
-116.671
-89.7785
-61.5976
-32.2536
-1.77979
29.3382
60.9913
92.8985
124.733
156.136
186.715
216.059
243.744
269.344
292.437
312.626
329.546
342.873
352.337
357.741
358.889
355.82
348.567
337.179
321.874
302.925
280.669
255.498
227.845
198.167
166.937
134.624
101.693
68.5871
35.7201
3.46631
-27.8519
-57.9623
-86.6453
-113.736
-139.122
-162.73
-184.526
-204.509
-222.705
-239.156
-253.915
-267.052
-278.632
-288.719
-297.387
-304.703
-310.728
-315.484
-319.065
-321.551
-322.952
-323.293
-322.609
-320.914
-318.209
-314.501
-309.762
-303.96
-297.058
-288.999
-279.734
-269.191
-257.263
-243.856
-228.873
-212.204
-193.776
-173.527
-151.414
-127.444
-101.65
-74.1448
-45.162
-15.7933
15.4492
47.557
80.113
112.663
144.751
175.973
205.861
233.95
259.852
283.167
303.548
320.697
334.358
344.354
350.564
352.867
351.089
345.506
336.207
323.403
307.381
288.467
266.975
243.269
217.746
190.772
162.706
133.912
104.722
75.4574
46.4335
17.9757
-9.03101
-36.037
-62.4415
-87.9849
-112.504
-135.882
-158.042
-178.912
-198.441
-216.588
-233.305
-248.557
-262.313
-274.542
-285.219
-294.321
-301.833
-307.749
-312.077
-97.736
-69.3288
-39.5605
-9.23186
20.8761
54.241
88.6013
123.281
157.814
191.758
224.581
255.788
284.954
311.637
335.445
356.029
373.067
386.32
395.589
400.728
401.628
398.235
390.744
379.167
363.708
344.618
322.179
296.722
268.655
238.376
206.302
172.904
138.62
103.883
69.0945
34.6248
1.02257
-31.2679
-62.7738
-93.087
-121.962
-149.234
-174.799
-198.587
-220.569
-240.737
-259.103
-275.693
-290.545
-303.7
-315.201
-325.093
-333.419
-340.213
-345.504
-349.322
-351.656
-352.513
-351.908
-349.816
-346.229
-341.125
-334.453
-326.191
-316.309
-304.753
-291.508
-276.551
-259.852
-241.415
-221.246
-199.374
-175.856
-150.758
-124.166
-96.2011
-66.9725
-36.5825
-4.68997
27.3396
59.6774
92.125
124.43
156.292
187.377
217.331
245.782
272.354
296.673
318.38
337.142
352.663
364.69
373.021
377.501
378.009
374.511
367.104
355.768
340.652
321.942
299.871
274.724
246.826
216.549
184.3
150.512
115.639
80.1413
44.4726
9.06841
-25.6678
-59.3843
-91.7796
-122.601
-151.654
-178.799
-203.945
-227.044
-248.086
-267.087
-284.085
-299.135
-312.297
-323.64
-333.232
-341.144
-347.442
-352.195
-355.479
-357.325
-357.814
-357.011
-354.956
-351.686
-347.229
-341.602
-334.805
-326.823
-317.631
-307.188
-295.447
-282.361
-267.874
-251.935
-234.499
-215.529
-194.999
-172.892
-149.219
-124.006
-97.3145
-69.2344
-39.8826
-9.45492
21.8307
53.7245
85.9299
118.114
149.907
180.913
210.717
238.895
265.018
288.666
309.438
326.963
340.911
351.004
357.027
358.818
356.298
349.567
338.634
323.682
304.961
282.784
257.522
229.595
199.457
167.584
134.462
100.57
66.3614
32.2566
-1.37032
-34.0981
-65.7848
-96.104
-124.863
-151.916
-177.166
-200.554
-222.062
-241.7
-259.5
-275.514
-289.806
-302.443
-313.499
-323.043
-331.143
-337.863
-343.258
-347.38
-350.277
-351.961
-352.476
-351.847
-350.068
-347.134
-343.029
-337.728
-331.195
-323.39
-314.268
-303.78
-291.882
-278.535
-263.698
-247.345
-229.455
-210.016
-189.026
-166.495
-142.451
-116.942
-90.0405
-61.8458
-32.486
-1.9753
29.1726
60.8674
92.8246
124.717
156.183
186.831
216.249
244.011
269.686
292.853
313.111
330.092
343.468
352.97
358.393
359.561
356.479
349.197
337.769
322.41
303.395
281.064
255.813
228.076
198.316
167.005
134.616
101.614
68.4456
35.5245
3.22602
-28.1272
-58.2634
-86.9638
-114.064
-139.452
-163.057
-184.846
-204.819
-223.003
-239.44
-254.185
-267.307
-278.873
-288.947
-297.602
-304.905
-310.919
-315.666
-319.244
-321.721
-323.116
-323.454
-322.768
-321.072
-318.369
-314.664
-309.931
-304.136
-297.243
-289.196
-279.946
-269.42
-257.51
-244.122
-229.157
-212.506
-194.092
-173.855
-151.749
-127.779
-101.976
-74.4471
-45.4299
-16.0718
15.2277
47.3953
80.0149
112.634
144.794
176.092
206.057
234.223
260.197
283.58
304.021
321.22
334.921
344.942
351.161
353.478
351.681
346.068
336.729
323.876
307.795
288.817
267.26
243.488
217.9
190.864
162.741
133.894
104.656
75.3449
46.2736
17.7733
-9.17792
-36.2157
-62.6466
-88.2069
-112.736
-136.122
-158.286
-179.159
-198.691
-216.838
-233.557
-248.811
-262.568
-274.797
-285.475
-294.577
-302.089
-308.005
-312.332
-98.1468
-69.7118
-39.8997
-9.51813
20.5466
53.9717
88.4078
123.172
157.798
191.842
224.768
256.076
285.34
312.116
336.01
356.671
373.775
387.08
396.386
401.543
402.454
399.051
391.523
379.897
364.375
345.212
322.69
297.141
268.979
238.604
206.434
172.945
138.573
103.757
68.8945
34.3615
0.736691
-31.5994
-63.1408
-93.4784
-122.369
-149.649
-175.216
-199.001
-220.974
-241.132
-259.485
-276.062
-290.901
-304.042
-315.531
-325.412
-333.728
-340.514
-345.799
-349.61
-351.942
-352.803
-352.201
-350.112
-346.53
-341.434
-334.771
-326.52
-316.649
-305.104
-291.87
-276.922
-260.23
-241.797
-221.63
-199.757
-176.234
-151.126
-124.522
-96.5421
-67.2966
-36.8829
-4.91401
27.1482
59.5256
92.0264
124.391
156.321
187.481
217.514
246.048
272.706
297.108
318.896
337.731
353.316
365.397
373.766
378.268
378.79
375.289
367.853
356.481
341.315
322.542
300.397
275.167
247.18
216.809
184.463
150.578
115.611
80.0246
44.2747
8.79905
-25.9964
-59.7618
-92.1939
-123.04
-152.108
-179.259
-204.403
-227.495
-248.524
-267.51
-284.492
-299.523
-312.668
-323.993
-333.568
-341.464
-347.748
-352.488
-355.756
-357.59
-358.07
-357.258
-355.195
-351.92
-347.462
-341.836
-335.044
-327.069
-317.886
-307.455
-295.727
-282.655
-268.182
-252.256
-234.833
-215.875
-195.354
-173.253
-149.582
-124.366
-97.6641
-69.5665
-40.1909
-9.72726
21.603
53.551
85.8199
118.076
149.95
181.043
210.939
239.212
265.429
289.17
310.029
327.634
341.648
351.792
357.847
359.655
357.134
350.372
339.394
324.379
305.581
283.313
257.953
229.922
199.678
167.701
134.481
100.498
66.2092
32.0347
-1.64638
-34.4375
-66.1565
-96.5023
-125.278
-152.34
-177.591
-200.974
-222.471
-242.094
-259.877
-275.873
-290.147
-302.766
-313.804
-323.333
-331.419
-338.126
-343.509
-347.622
-350.51
-352.19
-352.704
-352.072
-350.295
-347.365
-343.265
-337.972
-331.448
-323.654
-314.544
-304.067
-292.181
-278.844
-264.017
-247.673
-229.791
-210.359
-189.372
-166.843
-142.798
-117.282
-90.3687
-62.156
-32.778
-2.2194
28.9649
60.7118
92.7316
124.695
156.241
186.977
216.487
244.344
270.114
293.374
313.718
330.775
344.214
353.763
359.212
360.397
357.306
349.986
338.508
323.081
303.983
281.558
256.207
228.366
198.502
167.09
134.605
101.515
68.2682
35.2792
2.92483
-28.4722
-58.6405
-87.3624
-114.475
-139.866
-163.467
-185.248
-205.208
-223.375
-239.795
-254.522
-267.626
-279.174
-289.232
-297.871
-305.158
-311.156
-315.895
-319.466
-321.934
-323.322
-323.655
-322.967
-321.271
-318.57
-314.869
-310.142
-304.355
-297.475
-289.443
-280.211
-269.706
-257.818
-244.454
-229.513
-212.883
-194.488
-174.267
-152.169
-128.199
-102.383
-74.8261
-45.7646
-16.4221
14.9503
47.1926
79.8917
112.596
144.847
176.24
206.303
234.564
260.63
284.097
304.612
321.875
335.624
345.678
351.91
354.234
352.425
346.771
337.381
324.466
308.313
289.256
267.616
243.761
218.092
190.979
162.784
133.871
104.572
75.2042
46.0737
17.5196
-9.36154
-36.4401
-62.9038
-88.4849
-113.028
-136.421
-158.591
-179.468
-199.002
-217.152
-233.873
-249.128
-262.886
-275.117
-285.795
-294.898
-302.409
-308.325
-312.651
-98.6406
-70.1725
-40.3082
-9.86012
20.1483
53.647
88.1746
123.04
157.778
191.942
224.991
256.421
285.804
312.69
336.687
357.441
374.624
387.993
397.344
402.524
403.442
400.031
392.458
380.774
365.176
345.924
323.303
297.645
269.368
238.877
206.593
172.993
138.517
103.604
68.6539
34.045
0.392492
-31.9987
-63.582
-93.949
-122.858
-150.148
-175.717
-199.497
-221.461
-241.607
-259.945
-276.506
-291.328
-304.453
-315.927
-325.795
-334.099
-340.875
-346.152
-349.956
-352.286
-353.15
-352.551
-350.466
-346.892
-341.805
-335.153
-326.915
-317.057
-305.526
-292.304
-277.367
-260.682
-242.256
-222.091
-200.216
-176.687
-151.568
-124.95
-96.9512
-67.6852
-37.2449
-5.1833
26.9171
59.3423
91.9073
124.344
156.356
187.604
217.733
246.368
273.127
297.631
319.515
338.438
354.102
366.245
374.662
379.191
379.725
376.224
368.754
357.338
342.112
323.263
301.03
275.7
247.605
217.121
184.657
150.657
115.577
79.8835
44.036
8.47448
-26.3921
-60.216
-92.6922
-123.569
-152.655
-179.813
-204.955
-228.037
-249.052
-268.019
-284.98
-299.99
-313.113
-324.416
-333.972
-341.849
-348.114
-352.838
-356.087
-357.908
-358.377
-357.553
-355.481
-352.202
-347.741
-342.117
-335.329
-327.363
-318.192
-307.775
-296.064
-283.008
-268.552
-252.642
-235.235
-216.291
-195.78
-173.687
-150.018
-124.798
-98.0847
-69.9664
-40.5618
-10.055
21.3288
53.3418
85.6868
118.03
150
181.198
211.205
239.591
265.923
289.776
310.74
328.439
342.534
352.739
358.834
360.659
358.139
351.34
340.307
325.217
306.325
283.949
258.469
230.314
199.943
167.842
134.504
100.412
66.0252
31.767
-1.98192
-34.843
-66.6035
-96.9815
-125.778
-152.85
-178.102
-201.478
-222.963
-242.568
-260.331
-276.305
-290.556
-303.154
-314.171
-323.681
-331.749
-338.441
-343.811
-347.913
-350.79
-352.465
-352.976
-352.343
-350.567
-347.641
-343.549
-338.265
-331.752
-323.971
-314.874
-304.412
-292.54
-279.215
-264.4
-248.067
-230.195
-210.77
-189.789
-167.262
-143.214
-117.691
-90.7631
-62.5287
-33.1298
-2.51316
28.7142
60.5241
92.6189
124.669
156.311
187.151
216.772
244.743
270.628
293.999
314.447
331.596
345.111
354.716
360.198
361.4
358.298
350.936
339.397
323.888
304.69
282.152
256.679
228.714
198.725
167.192
134.592
101.396
68.054
34.9835
2.56215
-28.8874
-59.0941
-87.8415
-114.968
-140.364
-163.959
-185.729
-205.675
-223.822
-240.221
-254.927
-268.009
-279.536
-289.574
-298.194
-305.461
-311.441
-316.171
-319.732
-322.188
-323.568
-323.897
-323.206
-321.509
-318.81
-315.114
-310.394
-304.618
-297.752
-289.738
-280.529
-270.048
-258.188
-244.852
-229.939
-213.335
-194.964
-174.761
-152.673
-128.704
-102.874
-75.2826
-46.1658
-16.8453
14.6167
46.9488
79.743
112.549
144.91
176.417
206.598
234.973
261.149
284.717
305.323
322.662
336.469
346.563
352.812
355.139
353.32
347.616
338.165
325.175
308.935
289.782
268.044
244.089
218.323
191.116
162.834
133.843
104.472
75.0353
45.834
17.2139
-9.58172
-36.7105
-63.2135
-88.8193
-113.377
-136.781
-158.957
-179.839
-199.376
-217.529
-234.251
-249.508
-263.269
-275.5
-286.179
-295.282
-302.793
-308.708
-313.034
-99.2181
-70.7117
-40.7868
-10.2569
19.6796
53.2664
87.901
122.885
157.754
192.058
225.252
256.824
286.344
313.361
337.478
358.34
375.616
389.059
398.463
403.672
404.597
401.172
393.55
381.798
366.112
346.756
324.018
298.232
269.822
239.195
206.777
173.047
138.45
103.425
68.3725
33.6757
-0.0114866
-32.4664
-64.0981
-94.4992
-123.43
-150.731
-176.302
-200.076
-222.029
-242.16
-260.481
-277.023
-291.826
-304.933
-316.389
-326.242
-334.532
-341.297
-346.565
-350.36
-352.688
-353.553
-352.959
-350.878
-347.314
-342.237
-335.599
-327.376
-317.534
-306.018
-292.811
-277.886
-261.211
-242.792
-222.63
-200.753
-177.216
-152.085
-125.449
-97.4285
-68.1384
-37.6694
-5.49773
26.6452
59.1275
91.7667
124.288
156.395
187.747
217.988
246.739
273.618
298.24
320.237
339.264
355.019
367.237
375.708
380.271
380.819
377.314
369.808
358.339
343.042
324.104
301.768
276.322
248.101
217.484
184.884
150.748
115.536
79.7175
43.756
8.09383
-26.8557
-60.7478
-93.2754
-124.187
-153.294
-180.459
-205.599
-228.67
-249.667
-268.613
-285.549
-300.534
-313.632
-324.911
-334.443
-342.298
-348.542
-353.246
-356.475
-358.281
-358.735
-357.898
-355.816
-352.53
-348.066
-342.444
-335.663
-327.707
-318.55
-308.149
-296.457
-283.42
-268.983
-253.093
-235.704
-216.776
-196.278
-174.194
-150.529
-125.304
-98.5768
-70.4347
-40.996
-10.4386
21.0075
53.0961
85.5301
117.975
150.058
181.378
211.514
240.034
266.499
290.483
311.571
329.38
343.568
353.846
359.987
361.833
359.31
352.471
341.374
326.196
307.193
284.691
259.072
230.77
200.252
168.005
134.528
100.309
65.8087
31.4525
-2.37767
-35.3153
-67.1265
-97.542
-126.363
-153.447
-178.699
-202.067
-223.536
-243.121
-260.86
-276.809
-291.034
-303.606
-314.599
-324.087
-332.135
-338.809
-344.164
-348.252
-351.118
-352.786
-353.293
-352.659
-350.885
-347.964
-343.88
-338.606
-332.107
-324.341
-315.26
-304.814
-292.958
-279.649
-264.848
-248.528
-230.667
-211.25
-190.275
-167.751
-143.7
-118.168
-91.2242
-62.9643
-33.5406
-2.8584
28.4194
60.3036
92.4859
124.636
156.39
187.353
217.104
245.209
271.228
294.728
315.298
332.554
346.158
355.83
361.352
362.572
359.456
352.046
340.435
324.83
305.515
282.845
257.23
229.118
198.984
167.309
134.574
101.254
67.8023
34.637
2.1373
-29.3734
-59.6251
-88.4019
-115.545
-140.945
-164.535
-186.292
-206.219
-224.345
-240.719
-255.4
-268.456
-279.958
-289.972
-298.569
-305.816
-311.776
-316.493
-320.041
-322.485
-323.856
-324.178
-323.484
-321.787
-319.09
-315.4
-310.689
-304.925
-298.075
-290.082
-280.899
-270.448
-258.619
-245.316
-230.436
-213.862
-195.52
-175.338
-153.263
-129.294
-103.448
-75.8182
-46.6329
-17.3429
14.2268
46.6634
79.5681
112.494
144.982
176.622
206.941
235.45
261.755
285.442
306.153
323.58
337.457
347.596
353.868
356.198
354.36
348.603
339.08
326.003
309.66
290.396
268.542
244.47
218.59
191.276
162.893
133.809
104.354
74.8381
45.5547
16.8549
-9.83817
-37.0276
-63.5764
-89.2105
-113.786
-137.201
-159.385
-180.272
-199.812
-217.968
-234.693
-249.953
-263.715
-275.947
-286.627
-295.73
-303.241
-309.156
-313.48
-99.8799
-71.3299
-41.3363
-10.7072
19.1382
52.8289
87.5866
122.706
157.724
192.189
225.549
257.284
286.962
314.128
338.382
359.369
376.751
390.279
399.744
404.986
405.92
402.476
394.799
382.969
367.183
347.708
324.836
298.904
270.34
239.559
206.987
173.109
138.371
103.217
68.0501
33.2536
-0.476613
-33.0035
-64.6896
-95.1294
-124.086
-151.399
-176.971
-200.739
-222.68
-242.793
-261.094
-277.614
-292.395
-305.481
-316.917
-326.752
-335.027
-341.779
-347.036
-350.823
-353.148
-354.012
-353.425
-351.35
-347.795
-342.731
-336.108
-327.903
-318.079
-306.58
-293.391
-278.48
-261.816
-243.406
-223.246
-201.366
-177.822
-152.676
-126.021
-97.9741
-68.656
-38.1574
-5.85727
26.3317
58.8808
91.604
124.223
156.439
187.91
218.278
247.164
274.179
298.936
321.062
340.209
356.068
368.371
376.905
381.507
382.071
378.56
371.014
359.485
344.106
325.067
302.612
277.033
248.668
217.898
185.143
150.85
115.487
79.5257
43.4337
7.65622
-27.388
-61.3582
-93.9442
-124.896
-154.026
-181.2
-206.336
-229.394
-250.371
-269.292
-286.201
-301.157
-314.226
-325.476
-334.981
-342.811
-349.032
-353.713
-356.919
-358.706
-359.144
-358.292
-356.198
-352.905
-348.438
-342.818
-336.043
-328.099
-318.958
-308.576
-296.905
-283.89
-269.476
-253.608
-236.24
-217.331
-196.848
-174.775
-151.113
-125.883
-99.1411
-70.9721
-41.494
-10.8787
20.6382
52.8132
85.3491
117.91
150.122
181.582
211.867
240.539
267.158
291.291
312.52
330.457
344.752
355.113
361.309
363.178
360.651
353.767
342.596
327.317
308.188
285.539
259.761
231.292
200.604
168.19
134.555
100.19
65.559
31.0905
-2.83383
-35.8557
-67.7265
-98.1847
-127.033
-154.13
-179.383
-202.741
-224.193
-243.755
-261.466
-277.385
-291.581
-304.123
-315.089
-324.551
-332.576
-339.229
-344.567
-348.64
-351.492
-353.153
-353.655
-353.019
-351.248
-348.332
-344.258
-338.996
-332.513
-324.764
-315.701
-305.275
-293.437
-280.145
-265.36
-249.055
-231.206
-211.8
-190.832
-168.31
-144.257
-118.716
-91.7525
-63.4628
-33.9847
-3.28186
28.0795
60.0493
92.3318
124.597
156.48
187.582
217.482
245.74
271.913
295.562
316.271
333.65
347.357
357.105
362.674
363.913
360.781
353.318
341.625
325.909
306.46
283.638
257.86
229.58
199.278
167.441
134.553
101.091
67.5123
34.2387
1.64947
-29.9311
-60.2338
-89.0443
-116.205
-141.611
-165.194
-186.935
-206.842
-224.942
-241.289
-255.94
-268.967
-280.44
-290.427
-298.999
-306.221
-312.16
-316.859
-320.393
-322.824
-324.184
-324.5
-323.801
-322.104
-319.41
-315.726
-311.025
-305.274
-298.444
-290.475
-281.322
-270.904
-259.112
-245.847
-231.004
-214.468
-196.157
-175.998
-153.938
-129.97
-104.108
-76.435
-47.1657
-17.9161
13.7807
46.3362
79.3666
112.429
145.063
176.857
207.333
235.995
262.447
286.27
307.102
324.632
338.587
348.78
355.077
357.41
355.549
349.733
340.126
326.95
310.49
291.098
269.111
244.906
218.895
191.457
162.958
133.769
104.218
74.6124
45.2361
16.4413
-10.1303
-37.3922
-63.9932
-89.6589
-114.254
-137.681
-159.874
-180.766
-200.311
-218.47
-235.199
-250.461
-264.225
-276.459
-287.139
-296.243
-303.754
-309.668
-313.991
-100.627
-72.028
-41.9578
-11.2098
18.5214
52.3338
87.2305
122.502
157.689
192.336
225.882
257.802
287.658
314.991
339.4
360.528
378.03
391.653
401.187
406.468
407.41
403.943
396.206
384.29
368.39
348.78
325.756
299.659
270.923
239.966
207.221
173.176
138.28
102.981
67.6858
32.7787
-1.00418
-33.6107
-65.3571
-95.8403
-124.825
-152.151
-177.725
-201.486
-223.412
-243.506
-261.783
-278.279
-293.036
-306.097
-317.511
-327.326
-335.583
-342.32
-347.565
-351.344
-353.666
-354.53
-353.947
-351.879
-348.337
-343.287
-336.68
-328.495
-318.692
-307.214
-294.044
-279.148
-262.497
-244.096
-223.94
-202.058
-178.504
-153.343
-126.664
-98.5879
-69.2384
-38.7099
-6.26215
25.9762
58.6018
91.4186
124.148
156.485
188.091
218.603
247.64
274.809
299.72
321.992
341.273
357.25
369.65
378.255
382.901
383.483
379.962
372.373
360.776
345.306
326.152
303.563
277.833
249.305
218.365
185.433
150.964
115.43
79.3073
43.068
7.16058
-27.9896
-62.0482
-94.6998
-125.697
-154.852
-182.036
-207.168
-230.211
-251.165
-270.057
-286.935
-301.858
-314.894
-326.113
-335.588
-343.389
-349.583
-354.238
-357.42
-359.185
-359.604
-358.735
-356.628
-353.326
-348.856
-343.238
-336.471
-328.541
-319.417
-309.057
-297.41
-284.42
-270.032
-254.189
-236.844
-217.956
-197.491
-175.429
-151.771
-126.537
-99.7781
-71.5793
-42.0562
-11.3763
20.2201
52.4924
85.143
117.835
150.192
181.81
212.262
241.106
267.898
292.2
313.59
331.67
346.087
356.541
362.799
364.695
362.161
355.228
343.974
328.579
309.308
286.494
260.537
231.878
200.998
168.396
134.582
100.052
65.2752
30.6798
-3.35106
-36.4655
-68.4039
-98.9105
-127.79
-154.901
-180.154
-203.501
-224.933
-244.468
-262.149
-278.034
-292.196
-304.706
-315.639
-325.073
-333.072
-339.702
-345.02
-349.076
-351.914
-353.565
-354.062
-353.425
-351.656
-348.747
-344.683
-339.436
-332.97
-325.241
-316.198
-305.793
-293.976
-280.703
-265.938
-249.648
-231.814
-212.419
-191.46
-168.941
-144.885
-119.333
-92.3484
-64.0254
-34.4913
-3.75608
27.6943
59.7606
92.156
124.551
156.578