/*--------------------------------*- C++ -*----------------------------------*\
| =========                 |                                                 |
| \\      /  F ield         | OpenFOAM: The Open Source CFD Toolbox           |
|  \\    /   O peration     | Version:  3.0.1                                 |
|   \\  /    A nd           | Web:      www.OpenFOAM.org                      |
|    \\/     M anipulation  |                                                 |
\*---------------------------------------------------------------------------*/
FoamFile
{
    version     2.0;
    format      ascii;
    class       volVectorField;
    location    "24.4";
    object      U;
}
// * * * * * * * * * * * * * * * * * * * * * * * * * * * * * * * * * * * * * //

dimensions      [0 1 -1 0 0 0 0];

internalField   nonuniform List<vector> 
21420
(
(0.1151 0.00180532 0)
(0.0988957 0.00184057 0)
(0.0800336 0.00188553 0)
(0.0609462 0.00190706 0)
(0.0418694 0.00187456 0)
(0.0228605 0.00185604 0)
(0.00438613 0.00178418 0)
(-0.0132507 0.00173474 0)
(-0.030328 0.00166967 0)
(-0.0466681 0.00157389 0)
(-0.0621469 0.00149108 0)
(-0.076696 0.0014009 0)
(-0.0902693 0.00129435 0)
(-0.102844 0.00119871 0)
(-0.11441 0.00109312 0)
(-0.124972 0.000997416 0)
(-0.134542 0.00090194 0)
(-0.143142 0.000803979 0)
(-0.150798 0.00071355 0)
(-0.157542 0.00062542 0)
(-0.163406 0.00053854 0)
(-0.168425 0.00045697 0)
(-0.172633 0.000378091 0)
(-0.176061 0.000301334 0)
(-0.178744 0.000227532 0)
(-0.180713 0.000155544 0)
(-0.181942 8.79594e-05 0)
(-0.182497 2.28759e-05 0)
(-0.182364 -4.78654e-05 0)
(-0.181533 -0.000117693 0)
(-0.180009 -0.000187607 0)
(-0.177779 -0.000259114 0)
(-0.174823 -0.000331856 0)
(-0.171119 -0.000409187 0)
(-0.166647 -0.000486156 0)
(-0.161361 -0.000566792 0)
(-0.155237 -0.000655926 0)
(-0.148249 -0.000739797 0)
(-0.140346 -0.000828654 0)
(-0.1315 -0.000930505 0)
(-0.121695 -0.00102079 0)
(-0.11087 -0.00112953 0)
(-0.0989985 -0.00122289 0)
(-0.0861297 -0.00131462 0)
(-0.0722748 -0.00142603 0)
(-0.0573984 -0.00150771 0)
(-0.0415639 -0.00158263 0)
(-0.0249821 -0.00168707 0)
(-0.00785053 -0.00174014 0)
(0.0097962 -0.00178005 0)
(0.0279821 -0.00183656 0)
(0.0465487 -0.00184607 0)
(0.065244 -0.00186008 0)
(0.0838867 -0.00183364 0)
(0.102199 -0.00177936 0)
(0.119921 -0.00171719 0)
(0.136857 -0.00162439 0)
(0.152741 -0.00150282 0)
(0.167325 -0.00137065 0)
(0.180398 -0.00120387 0)
(0.19172 -0.00102998 0)
(0.201159 -0.000838438 0)
(0.208561 -0.000617991 0)
(0.213747 -0.000399721 0)
(0.216581 -0.000170401 0)
(0.217135 6.82618e-05 0)
(0.215332 0.000301371 0)
(0.210918 0.000546213 0)
(0.204477 0.00077183 0)
(0.195737 0.000991961 0)
(0.184706 0.00119724 0)
(0.172033 0.0013808 0)
(0.157534 0.00154706 0)
(0.14135 0.0016831 0)
(0.124271 0.00179577 0)
(0.106185 0.00187933 0)
(0.087171 0.00192745 0)
(0.0680396 0.00196168 0)
(0.0487881 0.00196893 0)
(0.0295608 0.00194245 0)
(0.0101428 0.00190459 0)
(-0.00926598 0.00184007 0)
(-0.0276492 0.00176561 0)
(-0.0449864 0.00168233 0)
(-0.0613189 0.00158692 0)
(-0.076609 0.00148943 0)
(-0.0907806 0.00137925 0)
(-0.103829 0.00126695 0)
(-0.115848 0.00116539 0)
(-0.126698 0.00105307 0)
(-0.13647 0.000947563 0)
(-0.145232 0.000839745 0)
(-0.152853 0.000730093 0)
(-0.159479 0.00062946 0)
(-0.165087 0.000529326 0)
(-0.169788 0.0004278 0)
(-0.173675 0.000345244 0)
(-0.176667 0.000257938 0)
(-0.178899 0.000187411 0)
(-0.18041 0.000115478 0)
(-0.181143 3.76955e-05 0)
(-0.181195 -2.80286e-05 0)
(-0.180678 -7.84551e-05 0)
(-0.179407 -0.000157729 0)
(-0.177549 -0.000210771 0)
(-0.175163 -0.000264703 0)
(-0.172113 -0.000330425 0)
(-0.168491 -0.000387976 0)
(-0.164258 -0.000452599 0)
(-0.159317 -0.000518543 0)
(-0.153722 -0.00058505 0)
(-0.147441 -0.000658295 0)
(-0.140401 -0.000736465 0)
(-0.132615 -0.00081694 0)
(-0.123991 -0.000888963 0)
(-0.114557 -0.000972546 0)
(-0.104317 -0.00105898 0)
(-0.0932207 -0.00114417 0)
(-0.0813427 -0.00122344 0)
(-0.0685804 -0.00130596 0)
(-0.0549301 -0.001388 0)
(-0.0405139 -0.00146626 0)
(-0.0253851 -0.00154476 0)
(-0.00951721 -0.00160172 0)
(0.00703606 -0.00166489 0)
(0.0240665 -0.00170943 0)
(0.0414851 -0.00174329 0)
(0.0591721 -0.00175689 0)
(0.0768951 -0.00175785 0)
(0.0944703 -0.00173144 0)
(0.111676 -0.00168217 0)
(0.128313 -0.00160814 0)
(0.144059 -0.00151044 0)
(0.158654 -0.00138269 0)
(0.171865 -0.00123286 0)
(0.183419 -0.00105642 0)
(0.193091 -0.000857416 0)
(0.20068 -0.000642887 0)
(0.205996 -0.000409894 0)
(0.208907 -0.000168132 0)
(0.209359 7.52231e-05 0)
(0.207326 0.000326986 0)
(0.20271 0.000574616 0)
(0.195737 0.000807712 0)
(0.186461 0.00102537 0)
(0.175156 0.00121803 0)
(0.162039 0.00138767 0)
(0.14727 0.00153186 0)
(0.131162 0.00165181 0)
(0.114054 0.0017423 0)
(0.096224 0.00179989 0)
(0.0779068 0.0018249 0)
(0.0593893 0.00183871 0)
(0.0410271 0.00181039 0)
(0.0229381 0.00177717 0)
(0.00530935 0.00172664 0)
(-0.0116574 0.00165599 0)
(-0.0279595 0.00157921 0)
(-0.0434632 0.00148968 0)
(-0.0580344 0.00139521 0)
(-0.0716877 0.00131745 0)
(-0.0843867 0.00121239 0)
(-0.0961577 0.00112088 0)
(-0.106989 0.00102269 0)
(-0.116829 0.000938025 0)
(-0.125794 0.000843009 0)
(-0.133875 0.000760304 0)
(-0.141068 0.00067661 0)
(-0.147504 0.000595396 0)
(-0.15315 0.000521992 0)
(-0.157939 0.000442408 0)
(-0.162058 0.000370066 0)
(-0.165565 0.000317802 0)
(-0.168375 0.00024223 0)
(-0.170484 0.000174424 0)
(-0.171843 0.00010758 0)
(-0.172513 3.70452e-05 0)
(-0.172691 -7.17388e-06 0)
(-0.172228 -8.4904e-05 0)
(-0.171096 -0.000147232 0)
(-0.1693 -0.000199176 0)
(-0.166844 -0.000276688 0)
(-0.163737 -0.000341648 0)
(-0.159873 -0.000418642 0)
(-0.15524 -0.000497041 0)
(-0.149841 -0.000574457 0)
(-0.143587 -0.000665092 0)
(-0.136452 -0.000744894 0)
(-0.128458 -0.000836452 0)
(-0.119528 -0.00093308 0)
(-0.10965 -0.00102414 0)
(-0.0988406 -0.00112009 0)
(-0.0870553 -0.00122277 0)
(-0.0742838 -0.00130482 0)
(-0.0606417 -0.00139476 0)
(-0.0461834 -0.00148072 0)
(-0.030887 -0.00154989 0)
(-0.0148692 -0.00161904 0)
(0.00174149 -0.00167502 0)
(0.0188819 -0.00171404 0)
(0.0363678 -0.00174742 0)
(0.054057 -0.00176537 0)
(0.0718255 -0.0017642 0)
(0.0895326 -0.00174014 0)
(0.106916 -0.00170068 0)
(0.123774 -0.00164271 0)
(0.139945 -0.00156335 0)
(0.155185 -0.00145996 0)
(0.16929 -0.00132901 0)
(0.182006 -0.00118274 0)
(0.193123 -0.00101875 0)
(0.202433 -0.000830844 0)
(0.209767 -0.000623589 0)
(0.214999 -0.000400746 0)
(0.217943 -0.000185955 0)
(0.218616 4.18194e-05 0)
(0.217032 0.000270351 0)
(0.213024 0.000512402 0)
(0.206833 0.000726743 0)
(0.198438 0.00093175 0)
(0.188018 0.00112893 0)
(0.175794 0.00129098 0)
(0.161924 0.00144989 0)
(0.146776 0.00155703 0)
(0.130615 0.00165195 0)
(0.113573 0.00172444 0)
(0.0959711 0.00176632 0)
(0.0779977 0.00179246 0)
(0.0599649 0.00178748 0)
(0.0420803 0.00176537 0)
(0.0243917 0.00173101 0)
(0.00721091 0.00167782 0)
(-0.00930687 0.00161344 0)
(-0.0251482 0.00152777 0)
(-0.0401721 0.00144817 0)
(-0.0543103 0.00135942 0)
(-0.0675073 0.00126119 0)
(-0.0797356 0.00116532 0)
(-0.0910208 0.0010743 0)
(-0.101293 0.000967342 0)
(-0.110552 0.000873297 0)
(-0.118901 0.000785394 0)
(-0.126383 0.000694349 0)
(-0.132922 0.000596891 0)
(-0.138508 0.000514617 0)
(-0.143211 0.000423883 0)
(-0.147025 0.00033992 0)
(-0.150106 0.000266997 0)
(-0.152434 0.000191596 0)
(-0.153918 0.000111307 0)
(-0.154697 4.34012e-05 0)
(-0.154862 -9.62254e-06 0)
(-0.154417 -7.64501e-05 0)
(-0.153296 -0.000141938 0)
(-0.15143 -0.00021929 0)
(-0.148981 -0.000268874 0)
(-0.145917 -0.0003368 0)
(-0.142161 -0.000400686 0)
(-0.137803 -0.000470535 0)
(-0.132765 -0.000528024 0)
(-0.127019 -0.00060404 0)
(-0.120586 -0.000677078 0)
(-0.113392 -0.000745076 0)
(-0.10539 -0.000827984 0)
(-0.0967252 -0.000916851 0)
(-0.0871792 -0.000979921 0)
(-0.0766558 -0.00108329 0)
(-0.0653232 -0.00117272 0)
(-0.053335 -0.00125502 0)
(-0.0402871 -0.00134378 0)
(-0.0264738 -0.00143488 0)
(-0.0119645 -0.00151275 0)
(0.00435733 -0.00158982 0)
(0.0217393 -0.00166582 0)
(0.0394415 -0.00173016 0)
(0.057687 -0.00177959 0)
(0.0763931 -0.0018158 0)
(0.0954784 -0.00183414 0)
(0.114615 -0.00182732 0)
(0.133689 -0.00180092 0)
(0.152433 -0.0017457 0)
(0.170531 -0.0016724 0)
(0.187765 -0.00156568 0)
(0.203708 -0.00142951 0)
(0.218062 -0.00126365 0)
(0.230579 -0.00108507 0)
(0.240943 -0.000864988 0)
(0.248889 -0.00064808 0)
(0.254249 -0.000404314 0)
(0.256893 -0.000145543 0)
(0.257235 0.000128539 0)
(0.255293 0.000388999 0)
(0.250728 0.000597576 0)
(0.243971 0.000805737 0)
(0.234991 0.00101728 0)
(0.224072 0.00119249 0)
(0.211445 0.00135718 0)
(0.197209 0.00151079 0)
(0.181689 0.00161577 0)
(0.165071 0.00172003 0)
(0.147588 0.00177741 0)
(0.129493 0.0018344 0)
(0.110905 0.00187409 0)
(0.0920825 0.00187177 0)
(0.0732228 0.00187054 0)
(0.0543901 0.00185297 0)
(0.0358276 0.00180254 0)
(0.017632 0.00174532 0)
(0.0011879 0.00167295 0)
(-0.0140271 0.00159829 0)
(-0.0292495 0.00151044 0)
(-0.0436488 0.00140219 0)
(-0.0570815 0.0012966 0)
(-0.0694564 0.00118421 0)
(-0.0807023 0.00106393 0)
(-0.0907906 0.000948275 0)
(-0.0997196 0.000829487 0)
(-0.107499 0.000717116 0)
(-0.11416 0.000607333 0)
(-0.119741 0.000501353 0)
(-0.124289 0.000401084 0)
(-0.127857 0.000305451 0)
(-0.130506 0.000216628 0)
(-0.132281 0.00013287 0)
(-0.133238 5.66444e-05 0)
(-0.133455 -1.60597e-05 0)
(-0.132923 -8.63561e-05 0)
(-0.131719 -0.000151657 0)
(-0.129878 -0.000212851 0)
(-0.127429 -0.000271418 0)
(-0.124399 -0.000328911 0)
(-0.120804 -0.000384167 0)
(-0.116642 -0.000439111 0)
(-0.111918 -0.000496533 0)
(-0.106624 -0.000552469 0)
(-0.100747 -0.000612986 0)
(-0.0942761 -0.000671858 0)
(-0.0871883 -0.000732079 0)
(-0.0794629 -0.000799737 0)
(-0.0710804 -0.000863834 0)
(-0.062018 -0.000929299 0)
(-0.0522551 -0.00100477 0)
(-0.0417762 -0.00107284 0)
(-0.0305666 -0.00115254 0)
(-0.0186023 -0.00122095 0)
(-0.00592285 -0.00128749 0)
(0.00743899 -0.00136652 0)
(0.021489 -0.00142638 0)
(0.0361848 -0.00147916 0)
(0.0514597 -0.00154598 0)
(0.0672256 -0.00158072 0)
(0.0833722 -0.00162785 0)
(0.099765 -0.00163533 0)
(0.116233 -0.00162407 0)
(0.132601 -0.001621 0)
(0.148646 -0.00156822 0)
(0.165879 -0.00149196 0)
(0.115127 0.00541697 0)
(0.0989138 0.00552266 0)
(0.0800425 0.0056575 0)
(0.0609463 0.00572204 0)
(0.0418619 0.00562437 0)
(0.0228445 0.00556874 0)
(0.00436456 0.00535318 0)
(-0.0132763 0.0052047 0)
(-0.0303584 0.00500941 0)
(-0.0467013 0.00472196 0)
(-0.0621829 0.00447344 0)
(-0.0767338 0.00420285 0)
(-0.0903076 0.00388313 0)
(-0.102883 0.00359615 0)
(-0.114448 0.00327932 0)
(-0.12501 0.00299218 0)
(-0.13458 0.00270576 0)
(-0.143178 0.00241186 0)
(-0.150833 0.00214055 0)
(-0.157576 0.00187616 0)
(-0.163438 0.00161553 0)
(-0.168457 0.00137085 0)
(-0.172663 0.00113425 0)
(-0.176091 0.000904032 0)
(-0.178772 0.000682537 0)
(-0.18074 0.000466497 0)
(-0.181971 0.000263822 0)
(-0.182524 6.90848e-05 0)
(-0.182392 -0.000143425 0)
(-0.181561 -0.000353002 0)
(-0.180037 -0.000562591 0)
(-0.177809 -0.000777152 0)
(-0.174853 -0.000995378 0)
(-0.171151 -0.0012273 0)
(-0.166681 -0.00145826 0)
(-0.161396 -0.00170015 0)
(-0.155274 -0.00196738 0)
(-0.148288 -0.00221919 0)
(-0.140387 -0.00248569 0)
(-0.131543 -0.00279146 0)
(-0.121739 -0.00306224 0)
(-0.110916 -0.00338852 0)
(-0.0990456 -0.00366844 0)
(-0.0861766 -0.0039435 0)
(-0.0723214 -0.00427839 0)
(-0.0574439 -0.00452355 0)
(-0.0416094 -0.00474862 0)
(-0.0250237 -0.00506099 0)
(-0.00788599 -0.0052207 0)
(0.00976446 -0.00534087 0)
(0.0279571 -0.00551051 0)
(0.0465316 -0.00553888 0)
(0.0652349 -0.00558283 0)
(0.0838883 -0.00550159 0)
(0.102213 -0.00533739 0)
(0.119941 -0.00515789 0)
(0.136894 -0.00487221 0)
(0.15279 -0.00450879 0)
(0.167387 -0.00411093 0)
(0.180463 -0.00362228 0)
(0.191806 -0.00308924 0)
(0.201258 -0.00251063 0)
(0.208667 -0.00185464 0)
(0.213857 -0.00120261 0)
(0.216699 -0.000519753 0)
(0.217271 0.000210122 0)
(0.215448 0.000906329 0)
(0.211045 0.00163825 0)
(0.204603 0.00231508 0)
(0.195856 0.0029767 0)
(0.184821 0.00359277 0)
(0.172141 0.00414585 0)
(0.157628 0.00464373 0)
(0.141434 0.00505078 0)
(0.124342 0.00538704 0)
(0.10624 0.00564189 0)
(0.0872159 0.00578633 0)
(0.0680721 0.00589112 0)
(0.0488038 0.00590436 0)
(0.0295619 0.00582709 0)
(0.0101275 0.00571869 0)
(-0.0092921 0.00552527 0)
(-0.0276898 0.00530094 0)
(-0.0450445 0.00504485 0)
(-0.0613846 0.00475803 0)
(-0.0766807 0.00446057 0)
(-0.0908494 0.0041415 0)
(-0.103906 0.00380421 0)
(-0.115937 0.00349422 0)
(-0.126779 0.00317634 0)
(-0.136566 0.00284416 0)
(-0.145324 0.00251674 0)
(-0.152946 0.00218366 0)
(-0.159572 0.00188325 0)
(-0.165173 0.00158401 0)
(-0.169874 0.00129028 0)
(-0.17377 0.00103073 0)
(-0.17675 0.000768055 0)
(-0.178973 0.000568789 0)
(-0.180495 0.000346477 0)
(-0.181229 0.000105744 0)
(-0.181277 -9.70676e-05 0)
(-0.180739 -0.000228853 0)
(-0.179465 -0.000468574 0)
(-0.177606 -0.000638269 0)
(-0.175215 -0.000797535 0)
(-0.172167 -0.000992026 0)
(-0.168542 -0.00116868 0)
(-0.164316 -0.00136349 0)
(-0.159372 -0.00156222 0)
(-0.153792 -0.00176823 0)
(-0.14749 -0.00197189 0)
(-0.140449 -0.00220342 0)
(-0.132654 -0.00244559 0)
(-0.124041 -0.002678 0)
(-0.114603 -0.00291919 0)
(-0.104365 -0.00317609 0)
(-0.0932718 -0.00343598 0)
(-0.0813788 -0.00366582 0)
(-0.0686162 -0.00391829 0)
(-0.0549688 -0.00416953 0)
(-0.0405484 -0.00440332 0)
(-0.0254166 -0.00463471 0)
(-0.00953372 -0.00479801 0)
(0.00702032 -0.0049978 0)
(0.024057 -0.00513189 0)
(0.0414903 -0.00522952 0)
(0.0591644 -0.0052833 0)
(0.0769239 -0.00526606 0)
(0.0945074 -0.00518764 0)
(0.111719 -0.00505566 0)
(0.128361 -0.0048337 0)
(0.144123 -0.0045352 0)
(0.158732 -0.00414508 0)
(0.171947 -0.00369908 0)
(0.183507 -0.00318045 0)
(0.193202 -0.00256737 0)
(0.200796 -0.00192873 0)
(0.206116 -0.00122697 0)
(0.209018 -0.000508096 0)
(0.209479 0.000223801 0)
(0.207429 0.000983174 0)
(0.202814 0.00172566 0)
(0.195828 0.00242263 0)
(0.186535 0.00307024 0)
(0.175216 0.00365247 0)
(0.162088 0.00416508 0)
(0.147313 0.00460737 0)
(0.131188 0.004958 0)
(0.114062 0.00523076 0)
(0.0962131 0.0053998 0)
(0.0778868 0.0054839 0)
(0.0593467 0.00551304 0)
(0.0409742 0.0054273 0)
(0.0228735 0.00533175 0)
(0.00523094 0.00517577 0)
(-0.0117466 0.00496232 0)
(-0.0280544 0.00473473 0)
(-0.0435463 0.00447714 0)
(-0.0581145 0.00419481 0)
(-0.0717834 0.00395014 0)
(-0.0844838 0.00363258 0)
(-0.0962478 0.00335482 0)
(-0.107067 0.00306999 0)
(-0.116917 0.00281317 0)
(-0.125885 0.00252787 0)
(-0.133962 0.00227542 0)
(-0.141154 0.00202553 0)
(-0.147592 0.00178338 0)
(-0.153244 0.00156203 0)
(-0.158018 0.00132661 0)
(-0.162118 0.00112619 0)
(-0.16564 0.000948732 0)
(-0.168448 0.000725172 0)
(-0.170562 0.000515808 0)
(-0.171922 0.000316604 0)
(-0.172587 0.000110045 0)
(-0.17276 -2.22965e-05 0)
(-0.172289 -0.000250877 0)
(-0.171149 -0.000444127 0)
(-0.169359 -0.000607368 0)
(-0.166901 -0.000829809 0)
(-0.163798 -0.00102937 0)
(-0.159934 -0.00125581 0)
(-0.155303 -0.00150031 0)
(-0.149883 -0.00171767 0)
(-0.143635 -0.00198893 0)
(-0.136521 -0.00225663 0)
(-0.128511 -0.00250852 0)
(-0.119577 -0.00279476 0)
(-0.10971 -0.00308315 0)
(-0.0988839 -0.00335441 0)
(-0.0870862 -0.00365218 0)
(-0.0743351 -0.00392881 0)
(-0.0606796 -0.00418972 0)
(-0.0462077 -0.00443231 0)
(-0.0309124 -0.00465515 0)
(-0.0148874 -0.00485911 0)
(0.00172916 -0.00502375 0)
(0.0188583 -0.00516318 0)
(0.036364 -0.00524362 0)
(0.0540693 -0.00529301 0)
(0.071856 -0.00527801 0)
(0.0895519 -0.00523568 0)
(0.106946 -0.0051117 0)
(0.123823 -0.00492264 0)
(0.140008 -0.00468777 0)
(0.155261 -0.00438128 0)
(0.169355 -0.00400538 0)
(0.182091 -0.00355184 0)
(0.193226 -0.00304348 0)
(0.202539 -0.00249102 0)
(0.209867 -0.00188361 0)
(0.215098 -0.00121801 0)
(0.218067 -0.00053567 0)
(0.218729 0.000126135 0)
(0.217131 0.000812816 0)
(0.21312 0.00152969 0)
(0.206925 0.00217921 0)
(0.198526 0.00280726 0)
(0.188082 0.00338084 0)
(0.175847 0.00387311 0)
(0.161959 0.00435097 0)
(0.146803 0.00467571 0)
(0.130629 0.00496197 0)
(0.113569 0.00517487 0)
(0.0959484 0.00529398 0)
(0.077966 0.00537753 0)
(0.0599274 0.00537686 0)
(0.0420261 0.00529278 0)
(0.0243236 0.00519776 0)
(0.00712666 0.00502758 0)
(-0.00939079 0.00483647 0)
(-0.0252214 0.00459864 0)
(-0.0402531 0.00434278 0)
(-0.0543929 0.00407598 0)
(-0.0675976 0.00378665 0)
(-0.0798343 0.00349094 0)
(-0.0911199 0.0032177 0)
(-0.101381 0.00290703 0)
(-0.11064 0.00262227 0)
(-0.118997 0.00234801 0)
(-0.126477 0.0020798 0)
(-0.133011 0.00179249 0)
(-0.138596 0.00153905 0)
(-0.143294 0.00126808 0)
(-0.147098 0.00102027 0)
(-0.150176 0.000812264 0)
(-0.152513 0.000567618 0)
(-0.153991 0.0003336 0)
(-0.154765 0.000136777 0)
(-0.154933 -3.67968e-05 0)
(-0.154489 -0.000231662 0)
(-0.153371 -0.000435776 0)
(-0.151485 -0.000653579 0)
(-0.149047 -0.000817337 0)
(-0.145966 -0.00100923 0)
(-0.142213 -0.00120166 0)
(-0.137853 -0.00140172 0)
(-0.132824 -0.00159482 0)
(-0.127063 -0.00181037 0)
(-0.120635 -0.00203166 0)
(-0.113447 -0.00224283 0)
(-0.105446 -0.00249031 0)
(-0.0967641 -0.00274313 0)
(-0.0872219 -0.00294662 0)
(-0.0766973 -0.00324469 0)
(-0.0653632 -0.00352674 0)
(-0.053373 -0.00376788 0)
(-0.0403173 -0.00402486 0)
(-0.0265136 -0.00431723 0)
(-0.0119864 -0.00453764 0)
(0.00433935 -0.00476151 0)
(0.0217178 -0.0050009 0)
(0.0394278 -0.00519289 0)
(0.0576774 -0.00533954 0)
(0.0763903 -0.00544569 0)
(0.0954805 -0.00550815 0)
(0.114632 -0.00547407 0)
(0.133702 -0.00541447 0)
(0.152468 -0.00523768 0)
(0.170577 -0.00501435 0)
(0.187813 -0.00470249 0)
(0.203779 -0.00427719 0)
(0.218126 -0.00380101 0)
(0.230675 -0.0032434 0)
(0.241032 -0.00260458 0)
(0.249 -0.00193371 0)
(0.254362 -0.00121002 0)
(0.257018 -0.000431499 0)
(0.257364 0.000384662 0)
(0.255385 0.00116124 0)
(0.250829 0.00178914 0)
(0.244073 0.00241684 0)
(0.23509 0.00305244 0)
(0.224163 0.00357591 0)
(0.211527 0.00407735 0)
(0.197282 0.00451132 0)
(0.181752 0.00484351 0)
(0.165124 0.00515996 0)
(0.14763 0.00533351 0)
(0.129526 0.00550431 0)
(0.110929 0.00562337 0)
(0.0920974 0.00561619 0)
(0.0732294 0.00561273 0)
(0.0543889 0.00555983 0)
(0.0358178 0.00540874 0)
(0.017616 0.00523672 0)
(0.00116783 0.00501949 0)
(-0.014054 0.00479566 0)
(-0.0292819 0.00453195 0)
(-0.0436852 0.00420725 0)
(-0.0571215 0.00389019 0)
(-0.0694988 0.00355305 0)
(-0.0807456 0.00319188 0)
(-0.0908345 0.00284478 0)
(-0.099763 0.00248882 0)
(-0.107542 0.00215154 0)
(-0.114201 0.00182207 0)
(-0.119781 0.00150407 0)
(-0.124327 0.00120324 0)
(-0.127893 0.000916577 0)
(-0.13054 0.000650183 0)
(-0.132313 0.000399387 0)
(-0.133267 0.000172397 0)
(-0.133486 -5.01788e-05 0)
(-0.13295 -0.000259352 0)
(-0.131744 -0.000454847 0)
(-0.129902 -0.000638447 0)
(-0.127452 -0.000814113 0)
(-0.124422 -0.000986633 0)
(-0.120826 -0.0011524 0)
(-0.116665 -0.00131719 0)
(-0.111941 -0.00148948 0)
(-0.106648 -0.00165727 0)
(-0.100772 -0.00183882 0)
(-0.0943013 -0.00201549 0)
(-0.0872142 -0.0021961 0)
(-0.0794899 -0.00239908 0)
(-0.0711081 -0.00259143 0)
(-0.0620463 -0.0027878 0)
(-0.0522844 -0.00301425 0)
(-0.0418058 -0.00321847 0)
(-0.0305967 -0.00345761 0)
(-0.0186322 -0.00366313 0)
(-0.00595174 -0.00386248 0)
(0.0074109 -0.00409957 0)
(0.0214628 -0.00427933 0)
(0.0361613 -0.00443776 0)
(0.0514393 -0.00463834 0)
(0.0672098 -0.00474263 0)
(0.0833616 -0.00488413 0)
(0.0997609 -0.00490667 0)
(0.116236 -0.00487297 0)
(0.132613 -0.00486386 0)
(0.148667 -0.00470561 0)
(0.165911 -0.00447688 0)
(0.11518 0.00903168 0)
(0.0989487 0.0092076 0)
(0.0800587 0.00943221 0)
(0.0609449 0.00953957 0)
(0.0418451 0.00937628 0)
(0.0228107 0.0092832 0)
(0.00431961 0.00892405 0)
(-0.0133294 0.00867609 0)
(-0.0304212 0.00835026 0)
(-0.0467697 0.00787085 0)
(-0.0622567 0.00745639 0)
(-0.0768115 0.00700517 0)
(-0.0903861 0.00647208 0)
(-0.102962 0.0059936 0)
(-0.114527 0.00546541 0)
(-0.125088 0.00498672 0)
(-0.134657 0.0045093 0)
(-0.143252 0.00401939 0)
(-0.150905 0.00356716 0)
(-0.157645 0.00312649 0)
(-0.163505 0.00269212 0)
(-0.168521 0.00228435 0)
(-0.172725 0.00189012 0)
(-0.17615 0.00150655 0)
(-0.178828 0.00113759 0)
(-0.180793 0.000777915 0)
(-0.182029 0.000438418 0)
(-0.182579 0.0001137 0)
(-0.182447 -0.000239285 0)
(-0.181617 -0.000588354 0)
(-0.180093 -0.000937328 0)
(-0.177866 -0.00129496 0)
(-0.174913 -0.0016586 0)
(-0.171213 -0.00204501 0)
(-0.166744 -0.00243002 0)
(-0.161463 -0.00283311 0)
(-0.155343 -0.00327822 0)
(-0.148359 -0.00369823 0)
(-0.14046 -0.00414222 0)
(-0.131619 -0.00465253 0)
(-0.121815 -0.00510358 0)
(-0.110996 -0.00564753 0)
(-0.0991251 -0.00611372 0)
(-0.0862536 -0.00657184 0)
(-0.072396 -0.00713201 0)
(-0.0575145 -0.00754042 0)
(-0.0416778 -0.00791626 0)
(-0.0250828 -0.00843524 0)
(-0.0079315 -0.00870244 0)
(0.00972743 -0.00890379 0)
(0.0279337 -0.00918695 0)
(0.0465241 -0.009234 0)
(0.0652444 -0.00930701 0)
(0.0839142 -0.00917419 0)
(0.102258 -0.00889901 0)
(0.120007 -0.00859632 0)
(0.136973 -0.00812864 0)
(0.15289 -0.00751758 0)
(0.167507 -0.00685331 0)
(0.1806 -0.00603589 0)
(0.19195 -0.00515705 0)
(0.201418 -0.00419446 0)
(0.208844 -0.00308822 0)
(0.214037 -0.00200782 0)
(0.216893 -0.000867337 0)
(0.217463 0.000351534 0)
(0.215615 0.001514 0)
(0.211231 0.00273053 0)
(0.204786 0.00386094 0)
(0.196026 0.00496277 0)
(0.184981 0.00598999 0)
(0.172288 0.00691237 0)
(0.157755 0.00774283 0)
(0.141545 0.00842184 0)
(0.124434 0.00898356 0)
(0.106305 0.00940561 0)
(0.0872647 0.00964583 0)
(0.0681045 0.00982267 0)
(0.0488187 0.0098467 0)
(0.0295574 0.00971727 0)
(0.0101029 0.00953239 0)
(-0.00933699 0.00920815 0)
(-0.0277371 0.00883804 0)
(-0.0451041 0.00841448 0)
(-0.0614493 0.00793434 0)
(-0.076755 0.00743765 0)
(-0.0909326 0.00690074 0)
(-0.103992 0.00634403 0)
(-0.116024 0.00582637 0)
(-0.126875 0.00528591 0)
(-0.13667 0.00474157 0)
(-0.14543 0.00419971 0)
(-0.153055 0.00364804 0)
(-0.159672 0.00314066 0)
(-0.165273 0.00264361 0)
(-0.169976 0.0021479 0)
(-0.173871 0.00172049 0)
(-0.17684 0.00128062 0)
(-0.179071 0.000936822 0)
(-0.180606 0.00057754 0)
(-0.18134 0.000183393 0)
(-0.181371 -0.000158204 0)
(-0.180838 -0.000394882 0)
(-0.179554 -0.0007862 0)
(-0.177673 -0.00105306 0)
(-0.175297 -0.0013296 0)
(-0.172256 -0.00166133 0)
(-0.168628 -0.00194467 0)
(-0.1644 -0.00226199 0)
(-0.159469 -0.00260112 0)
(-0.153888 -0.00294198 0)
(-0.1476 -0.0032963 0)
(-0.140557 -0.00367682 0)
(-0.132753 -0.00407694 0)
(-0.124136 -0.00445272 0)
(-0.114716 -0.00487257 0)
(-0.104479 -0.00528743 0)
(-0.0933838 -0.00573327 0)
(-0.081489 -0.00611792 0)
(-0.0687108 -0.00651972 0)
(-0.0550686 -0.00695384 0)
(-0.0406462 -0.00733519 0)
(-0.0255125 -0.0077325 0)
(-0.00962522 -0.00800974 0)
(0.00694931 -0.00832189 0)
(0.0239935 -0.00856258 0)
(0.0414395 -0.00871477 0)
(0.0591253 -0.00880377 0)
(0.0768917 -0.00879653 0)
(0.0945084 -0.00865147 0)
(0.111746 -0.00841614 0)
(0.128403 -0.00805723 0)
(0.144179 -0.00756682 0)
(0.15881 -0.00692001 0)
(0.172046 -0.00616744 0)
(0.183632 -0.00529924 0)
(0.193344 -0.00428613 0)
(0.200949 -0.00321114 0)
(0.206273 -0.00205743 0)
(0.209191 -0.000845574 0)
(0.209647 0.000373854 0)
(0.207572 0.00164117 0)
(0.20298 0.00287645 0)
(0.195981 0.00404441 0)
(0.186668 0.00512505 0)
(0.175325 0.00609182 0)
(0.162178 0.00694132 0)
(0.147384 0.00767578 0)
(0.131243 0.00827046 0)
(0.114089 0.00872479 0)
(0.0962081 0.00900047 0)
(0.0778643 0.00913642 0)
(0.0593131 0.0091977 0)
(0.0409227 0.00905657 0)
(0.022804 0.00889144 0)
(0.00515294 0.00862389 0)
(-0.0118327 0.00827667 0)
(-0.0281635 0.0078895 0)
(-0.0436635 0.00745003 0)
(-0.0582106 0.00698769 0)
(-0.0718778 0.00659128 0)
(-0.0845838 0.00604984 0)
(-0.0963381 0.00559278 0)
(-0.107152 0.00511699 0)
(-0.11701 0.00469371 0)
(-0.125988 0.00421288 0)
(-0.134052 0.00379307 0)
(-0.141238 0.00338041 0)
(-0.147686 0.00297458 0)
(-0.153343 0.00260171 0)
(-0.158113 0.00220472 0)
(-0.162196 0.00186601 0)
(-0.165707 0.00158648 0)
(-0.168535 0.00120958 0)
(-0.170656 0.000866642 0)
(-0.172021 0.000533338 0)
(-0.17268 0.000178331 0)
(-0.172857 -4.5561e-05 0)
(-0.172388 -0.000425895 0)
(-0.171226 -0.000732506 0)
(-0.16945 -0.00100695 0)
(-0.166995 -0.00138671 0)
(-0.163895 -0.00171009 0)
(-0.160051 -0.00210194 0)
(-0.155407 -0.00249882 0)
(-0.149993 -0.00286679 0)
(-0.143742 -0.00331206 0)
(-0.136619 -0.00374783 0)
(-0.128626 -0.00419059 0)
(-0.119694 -0.00466021 0)
(-0.109821 -0.00512976 0)
(-0.0990144 -0.00560745 0)
(-0.0872073 -0.00609409 0)
(-0.0744345 -0.00653298 0)
(-0.0607902 -0.00698855 0)
(-0.046309 -0.0073983 0)
(-0.0310038 -0.00775901 0)
(-0.0149718 -0.00810119 0)
(0.00166056 -0.00837072 0)
(0.0188018 -0.00859543 0)
(0.0363036 -0.00875201 0)
(0.0540244 -0.00883609 0)
(0.0718356 -0.00880132 0)
(0.0895512 -0.00871453 0)
(0.106947 -0.0085301 0)
(0.12384 -0.00821835 0)
(0.140056 -0.00781119 0)
(0.155331 -0.00729667 0)
(0.169435 -0.00667677 0)
(0.182182 -0.00593002 0)
(0.193335 -0.00508529 0)
(0.202674 -0.00415313 0)
(0.210027 -0.00312697 0)
(0.215247 -0.00202817 0)
(0.218202 -0.000911437 0)
(0.218875 0.000207431 0)
(0.217274 0.00136249 0)
(0.213277 0.00255731 0)
(0.207053 0.00363038 0)
(0.198652 0.00467629 0)
(0.188201 0.00564451 0)
(0.175952 0.00646096 0)
(0.162036 0.0072513 0)
(0.146847 0.00779728 0)
(0.13066 0.00827128 0)
(0.113586 0.0086329 0)
(0.0959447 0.00883262 0)
(0.0779334 0.00896188 0)
(0.0598795 0.00895396 0)
(0.0419744 0.00882331 0)
(0.0242533 0.00867127 0)
(0.00704067 0.00837753 0)
(-0.00949833 0.00806195 0)
(-0.0253297 0.00764946 0)
(-0.0403359 0.00724373 0)
(-0.0544784 0.00680114 0)
(-0.0676879 0.00631244 0)
(-0.0799249 0.00582048 0)
(-0.0912259 0.00536538 0)
(-0.101487 0.00484027 0)
(-0.110732 0.00437022 0)
(-0.119086 0.00392168 0)
(-0.126579 0.00346543 0)
(-0.133111 0.00298659 0)
(-0.138703 0.00256799 0)
(-0.143397 0.00211332 0)
(-0.147188 0.00169682 0)
(-0.150276 0.00134059 0)
(-0.152611 0.000947641 0)
(-0.154098 0.000561709 0)
(-0.154869 0.00022216 0)
(-0.155027 -5.8422e-05 0)
(-0.154582 -0.000390986 0)
(-0.153464 -0.000723409 0)
(-0.151566 -0.00109041 0)
(-0.149122 -0.00135503 0)
(-0.146063 -0.00169077 0)
(-0.142309 -0.00200226 0)
(-0.137952 -0.00234781 0)
(-0.132911 -0.00264863 0)
(-0.127164 -0.00301699 0)
(-0.12073 -0.00338275 0)
(-0.113551 -0.00374238 0)
(-0.105554 -0.00414963 0)
(-0.0968598 -0.00458256 0)
(-0.0873179 -0.00490612 0)
(-0.0768086 -0.00541465 0)
(-0.0654491 -0.00587029 0)
(-0.0534555 -0.00628341 0)
(-0.0404071 -0.00671327 0)
(-0.0265902 -0.00718825 0)
(-0.0120561 -0.00757017 0)
(0.00427508 -0.00794126 0)
(0.0216665 -0.00833557 0)
(0.0393932 -0.00865446 0)
(0.057651 -0.00890246 0)
(0.0763712 -0.00908356 0)
(0.0954792 -0.00918012 0)
(0.114643 -0.00913127 0)
(0.133733 -0.00901368 0)
(0.152503 -0.00873747 0)
(0.170635 -0.00836249 0)
(0.18789 -0.00783656 0)
(0.203875 -0.00713418 0)
(0.218243 -0.00632507 0)
(0.230801 -0.00541278 0)
(0.24118 -0.00432935 0)
(0.249152 -0.00322678 0)
(0.254537 -0.00200166 0)
(0.257213 -0.000721925 0)
(0.257538 0.000627759 0)
(0.255514 0.00191396 0)
(0.250973 0.00297224 0)
(0.244217 0.00402829 0)
(0.235226 0.00508906 0)
(0.224288 0.00596512 0)
(0.211632 0.00678666 0)
(0.197373 0.00757597 0)
(0.181833 0.00808678 0)
(0.165184 0.00860471 0)
(0.147673 0.00889169 0)
(0.129554 0.00917686 0)
(0.110941 0.00937487 0)
(0.0920951 0.00936275 0)
(0.0732132 0.00935674 0)
(0.0543606 0.00926843 0)
(0.0357752 0.00901715 0)
(0.0175636 0.00872918 0)
(0.00111009 0.00836757 0)
(-0.0141236 0.00799428 0)
(-0.0293603 0.00755471 0)
(-0.0437697 0.00701316 0)
(-0.0572112 0.00648452 0)
(-0.0695917 0.00592227 0)
(-0.0808389 0.00532005 0)
(-0.090928 0.00474114 0)
(-0.0998544 0.0041481 0)
(-0.107631 0.00358546 0)
(-0.114287 0.00303639 0)
(-0.119862 0.00250634 0)
(-0.124404 0.00200516 0)
(-0.127964 0.001528 0)
(-0.130606 0.00108387 0)
(-0.132378 0.000665305 0)
(-0.133331 0.000286416 0)
(-0.133542 -8.45569e-05 0)
(-0.133003 -0.000433243 0)
(-0.131794 -0.000758458 0)
(-0.12995 -0.00106433 0)
(-0.127498 -0.00135695 0)
(-0.124467 -0.00164453 0)
(-0.120871 -0.00192064 0)
(-0.116709 -0.00219518 0)
(-0.111986 -0.00248239 0)
(-0.106694 -0.0027619 0)
(-0.100819 -0.00306443 0)
(-0.0943498 -0.00335891 0)
(-0.0872641 -0.00365987 0)
(-0.079542 -0.00399816 0)
(-0.0711617 -0.00431878 0)
(-0.0621011 -0.00464609 0)
(-0.0523411 -0.00502355 0)
(-0.0418631 -0.005364 0)
(-0.030655 -0.00576268 0)
(-0.0186899 -0.00610553 0)
(-0.00600754 -0.00643775 0)
(0.00735657 -0.00683296 0)
(0.0214121 -0.00713294 0)
(0.0361162 -0.00739722 0)
(0.0514004 -0.00773187 0)
(0.0671799 -0.00790598 0)
(0.0833421 -0.00814221 0)
(0.0997542 -0.00818008 0)
(0.116244 -0.00812417 0)
(0.132638 -0.00810936 0)
(0.148711 -0.00784582 0)
(0.165976 -0.00746478 0)
(0.11526 0.0126515 0)
(0.099001 0.0128973 0)
(0.080083 0.0132115 0)
(0.0609425 0.0133614 0)
(0.0418198 0.0131317 0)
(0.0227599 0.0130006 0)
(0.00425213 0.012498 0)
(-0.0134092 0.01215 0)
(-0.0305156 0.011693 0)
(-0.0468724 0.0110211 0)
(-0.0623676 0.0104403 0)
(-0.076928 0.00980811 0)
(-0.090504 0.00906134 0)
(-0.103082 0.00839106 0)
(-0.114645 0.00765133 0)
(-0.125205 0.00698093 0)
(-0.134772 0.00631236 0)
(-0.143363 0.00562632 0)
(-0.151013 0.00499312 0)
(-0.157749 0.00437615 0)
(-0.163605 0.00376804 0)
(-0.168617 0.00319725 0)
(-0.172817 0.00264551 0)
(-0.176238 0.00210898 0)
(-0.178912 0.00159334 0)
(-0.180872 0.00109076 0)
(-0.182111 0.000614054 0)
(-0.182666 0.000150073 0)
(-0.18253 -0.000336829 0)
(-0.1817 -0.000823692 0)
(-0.180177 -0.00131175 0)
(-0.177952 -0.00181242 0)
(-0.175001 -0.00232128 0)
(-0.171305 -0.00286211 0)
(-0.16684 -0.00340118 0)
(-0.161562 -0.00396535 0)
(-0.155447 -0.00458823 0)
(-0.148466 -0.00517665 0)
(-0.140571 -0.00579791 0)
(-0.131733 -0.00651362 0)
(-0.12193 -0.00714469 0)
(-0.111115 -0.00790638 0)
(-0.0992443 -0.00855853 0)
(-0.0863699 -0.0091998 0)
(-0.0725087 -0.00998732 0)
(-0.0576207 -0.0105587 0)
(-0.0417804 -0.0110864 0)
(-0.0251715 -0.0118104 0)
(-0.00800089 -0.0121872 0)
(0.0096718 -0.01247 0)
(0.0278987 -0.0128672 0)
(0.0465114 -0.012934 0)
(0.0652583 -0.013036 0)
(0.0839546 -0.0128503 0)
(0.102325 -0.0124672 0)
(0.120103 -0.0120434 0)
(0.137097 -0.0113856 0)
(0.153039 -0.0105327 0)
(0.167683 -0.00960456 0)
(0.180802 -0.00845842 0)
(0.192174 -0.007226 0)
(0.201661 -0.00587613 0)
(0.209103 -0.00433326 0)
(0.214307 -0.0028149 0)
(0.217176 -0.00122473 0)
(0.217742 0.000513759 0)
(0.215872 0.00212597 0)
(0.21151 0.00382179 0)
(0.205058 0.00540768 0)
(0.196279 0.00695129 0)
(0.185221 0.00839093 0)