/*--------------------------------*- C++ -*----------------------------------*\
| =========                 |                                                 |
| \\      /  F ield         | OpenFOAM: The Open Source CFD Toolbox           |
|  \\    /   O peration     | Version:  3.0.1                                 |
|   \\  /    A nd           | Web:      www.OpenFOAM.org                      |
|    \\/     M anipulation  |                                                 |
\*---------------------------------------------------------------------------*/
FoamFile
{
    version     2.0;
    format      ascii;
    class       volVectorField;
    location    "60.6";
    object      U;
}
// * * * * * * * * * * * * * * * * * * * * * * * * * * * * * * * * * * * * * //

dimensions      [0 1 -1 0 0 0 0];

internalField   nonuniform List<vector> 
21420
(
(0.235812 0.00051517 0)
(0.230163 0.000742315 0)
(0.221539 0.000964944 0)
(0.210783 0.00117448 0)
(0.198103 0.0013411 0)
(0.183725 0.00150714 0)
(0.1679 0.00161787 0)
(0.150897 0.00173251 0)
(0.132985 0.00182295 0)
(0.114433 0.00184975 0)
(0.0955063 0.00188753 0)
(0.0764477 0.00190167 0)
(0.0574753 0.00186026 0)
(0.0387654 0.00183308 0)
(0.020231 0.00175825 0)
(0.00267444 0.00169888 0)
(-0.0137504 0.0016276 0)
(-0.0296226 0.00152713 0)
(-0.0445992 0.00144008 0)
(-0.0586167 0.00134682 0)
(-0.0716375 0.00123925 0)
(-0.0836521 0.00114317 0)
(-0.0946631 0.00104627 0)
(-0.104683 0.000944824 0)
(-0.113738 0.000852318 0)
(-0.121858 0.000758605 0)
(-0.129077 0.000672319 0)
(-0.13543 0.000588745 0)
(-0.140952 0.000506926 0)
(-0.145679 0.000429929 0)
(-0.149641 0.000355462 0)
(-0.15287 0.000283165 0)
(-0.155394 0.000213141 0)
(-0.157239 0.000145156 0)
(-0.158396 8.04301e-05 0)
(-0.158906 1.55977e-05 0)
(-0.158743 -5.24151e-05 0)
(-0.157904 -0.000119727 0)
(-0.156374 -0.000187886 0)
(-0.154151 -0.000259647 0)
(-0.151215 -0.000329967 0)
(-0.147538 -0.000407417 0)
(-0.143098 -0.000483445 0)
(-0.137844 -0.000563533 0)
(-0.131734 -0.000652737 0)
(-0.124751 -0.00073833 0)
(-0.116872 -0.000823593 0)
(-0.108018 -0.000926615 0)
(-0.0981793 -0.00101734 0)
(-0.0873415 -0.00110463 0)
(-0.0755288 -0.00121883 0)
(-0.0627052 -0.00130607 0)
(-0.0489083 -0.00141242 0)
(-0.0341451 -0.00150162 0)
(-0.0184798 -0.00155549 0)
(-0.00238064 -0.00166594 0)
(0.0144147 -0.00171917 0)
(0.0320103 -0.00175463 0)
(0.0500383 -0.00180486 0)
(0.0683761 -0.00181462 0)
(0.0868004 -0.00182424 0)
(0.105138 -0.0018021 0)
(0.123161 -0.00175093 0)
(0.140609 -0.00168924 0)
(0.157284 -0.00160033 0)
(0.172925 -0.00148175 0)
(0.187277 -0.00135105 0)
(0.20016 -0.00119115 0)
(0.211349 -0.00101314 0)
(0.220636 -0.000836894 0)
(0.227956 -0.000612602 0)
(0.233052 -0.000400083 0)
(0.235876 -0.000168703 0)
(0.236333 6.38016e-05 0)
(0.234426 0.000299731 0)
(0.230056 0.000531301 0)
(0.2234 0.000755229 0)
(0.214705 0.000961322 0)
(0.203805 0.00116105 0)
(0.191121 0.00132884 0)
(0.176866 0.00148912 0)
(0.161045 0.00161369 0)
(0.14418 0.0017197 0)
(0.126444 0.00179969 0)
(0.10802 0.00184156 0)
(0.0893 0.00186873 0)
(0.0704545 0.00186575 0)
(0.0517202 0.00184827 0)
(0.0332623 0.00181737 0)
(0.0152012 0.00176972 0)
(-0.00232451 0.0017121 0)
(-0.0192185 0.00163853 0)
(-0.0353696 0.00156236 0)
(-0.0506511 0.00147132 0)
(-0.0650013 0.00138099 0)
(-0.0783795 0.00127769 0)
(-0.0907307 0.00117143 0)
(-0.102012 0.00106386 0)
(-0.112151 0.000958215 0)
(-0.121181 0.000839703 0)
(-0.129156 0.000737219 0)
(-0.136098 0.00063365 0)
(-0.14204 0.000542399 0)
(-0.147046 0.000451969 0)
(-0.151178 0.000371321 0)
(-0.15449 0.000293153 0)
(-0.157051 0.000219938 0)
(-0.158885 0.000147892 0)
(-0.160015 8.27521e-05 0)
(-0.160511 1.36963e-05 0)
(-0.160331 -5e-05 0)
(-0.159529 -0.000109472 0)
(-0.158122 -0.000167088 0)
(-0.156088 -0.000227484 0)
(-0.153445 -0.000291163 0)
(-0.150219 -0.000353193 0)
(-0.146323 -0.00041412 0)
(-0.141777 -0.000483842 0)
(-0.136604 -0.000545308 0)
(-0.130745 -0.000613763 0)
(-0.124196 -0.000681003 0)
(-0.116947 -0.000753547 0)
(-0.108959 -0.000827831 0)
(-0.100219 -0.000903066 0)
(-0.0907191 -0.000983805 0)
(-0.0804343 -0.00105403 0)
(-0.0693534 -0.00114029 0)
(-0.0574716 -0.00122173 0)
(-0.044797 -0.00129362 0)
(-0.0313059 -0.00137509 0)
(-0.0170589 -0.00145087 0)
(-0.00206772 -0.00151792 0)
(0.013598 -0.00157809 0)
(0.0298118 -0.00163399 0)
(0.0464732 -0.00166553 0)
(0.0634109 -0.00169004 0)
(0.0804595 -0.00169172 0)
(0.0974331 -0.00167075 0)
(0.114105 -0.00163164 0)
(0.130235 -0.00156647 0)
(0.145573 -0.00147445 0)
(0.159862 -0.00135452 0)
(0.172817 -0.00121303 0)
(0.184193 -0.00104079 0)
(0.193716 -0.000848429 0)
(0.201218 -0.000634341 0)
(0.206483 -0.000407611 0)
(0.209381 -0.000168015 0)
(0.209833 7.33084e-05 0)
(0.207821 0.000323694 0)
(0.203252 0.000568823 0)
(0.196334 0.000804917 0)
(0.187115 0.00102094 0)
(0.175783 0.00122017 0)
(0.162543 0.00140346 0)
(0.14766 0.0015525 0)
(0.131404 0.00166967 0)
(0.114084 0.00176259 0)
(0.0960008 0.0018248 0)
(0.0774088 0.00186084 0)
(0.058628 0.00186382 0)
(0.0398959 0.0018515 0)
(0.0214205 0.0018157 0)
(0.00346174 0.0017522 0)
(-0.0138157 0.00167739 0)
(-0.0303101 0.00159917 0)
(-0.0459159 0.00150001 0)
(-0.0605344 0.00139559 0)
(-0.0741252 0.00130674 0)
(-0.086727 0.00119915 0)
(-0.0982932 0.00109264 0)
(-0.108788 0.000993829 0)
(-0.118327 0.000899119 0)
(-0.12693 0.000808422 0)
(-0.134616 0.000720696 0)
(-0.14146 0.000643239 0)
(-0.147544 0.000566798 0)
(-0.152924 0.000498531 0)
(-0.157606 0.000427114 0)
(-0.161598 0.000362987 0)
(-0.164928 0.000299493 0)
(-0.167594 0.000231959 0)
(-0.169607 0.000166925 0)
(-0.170988 0.000104448 0)
(-0.17178 5.86747e-05 0)
(-0.172042 2.19714e-06 0)
(-0.171827 -4.31756e-05 0)
(-0.171122 -9.51305e-05 0)
(-0.169867 -0.000152025 0)
(-0.168084 -0.000204992 0)
(-0.16574 -0.000257887 0)
(-0.162778 -0.000322239 0)
(-0.159209 -0.00038647 0)
(-0.154951 -0.000449644 0)
(-0.149999 -0.000529807 0)
(-0.144372 -0.00059582 0)
(-0.137996 -0.000665699 0)
(-0.130844 -0.000745729 0)
(-0.122948 -0.000819175 0)
(-0.11429 -0.000897321 0)
(-0.104867 -0.000969987 0)
(-0.0946908 -0.00105768 0)
(-0.0836823 -0.00112198 0)
(-0.0718394 -0.00121431 0)
(-0.0592415 -0.00129652 0)
(-0.0457865 -0.00136806 0)
(-0.0315281 -0.0014529 0)
(-0.016593 -0.00151587 0)
(-0.000979108 -0.00157348 0)
(0.0151798 -0.00161852 0)
(0.0316406 -0.00164702 0)
(0.0483328 -0.00166205 0)
(0.0650695 -0.00165638 0)
(0.0816565 -0.00163224 0)
(0.0978547 -0.00158037 0)
(0.113416 -0.00150072 0)
(0.128071 -0.00140137 0)
(0.141576 -0.00127357 0)
(0.153625 -0.00111905 0)
(0.164016 -0.00093655 0)
(0.172473 -0.000738729 0)
(0.17881 -0.00051623 0)
(0.182852 -0.000286857 0)
(0.184496 -4.32819e-05 0)
(0.183745 0.000196578 0)
(0.180435 0.000446142 0)
(0.174745 0.000676843 0)
(0.166816 0.000893848 0)
(0.156795 0.0010965 0)
(0.144885 0.0012669 0)
(0.13132 0.00141986 0)
(0.116401 0.00153727 0)
(0.100425 0.00163318 0)
(0.0836115 0.00169188 0)
(0.0662983 0.00173582 0)
(0.0487225 0.00175736 0)
(0.0311028 0.00174437 0)
(0.013694 0.00170955 0)
(-0.00334242 0.00166652 0)
(-0.0198471 0.00161031 0)
(-0.0356865 0.00153737 0)
(-0.0507437 0.0014525 0)
(-0.0649599 0.00136442 0)
(-0.0782784 0.00127705 0)
(-0.0906456 0.00118777 0)
(-0.102085 0.00108738 0)
(-0.112623 0.000999116 0)
(-0.122247 0.000907003 0)
(-0.130966 0.000831229 0)
(-0.138874 0.000742152 0)
(-0.146002 0.000665838 0)
(-0.152362 0.000595018 0)
(-0.158 0.000530641 0)
(-0.162978 0.000460715 0)
(-0.167324 0.000400781 0)
(-0.171083 0.000343623 0)
(-0.174296 0.000294344 0)
(-0.17695 0.000233982 0)
(-0.179076 0.000184776 0)
(-0.180675 0.000134853 0)
(-0.181751 8.4071e-05 0)
(-0.182329 3.36445e-05 0)
(-0.182344 -2.36818e-05 0)
(-0.181814 -7.83527e-05 0)
(-0.18075 -0.000137545 0)
(-0.178982 -0.000189692 0)
(-0.176619 -0.000257826 0)
(-0.173738 -0.000318278 0)
(-0.170118 -0.000376167 0)
(-0.165777 -0.000458047 0)
(-0.160838 -0.000520877 0)
(-0.155244 -0.000589699 0)
(-0.148774 -0.000663052 0)
(-0.14152 -0.000753521 0)
(-0.133568 -0.000825843 0)
(-0.124822 -0.000916529 0)
(-0.115142 -0.000999549 0)
(-0.104448 -0.00110521 0)
(-0.0927261 -0.00120444 0)
(-0.0798985 -0.00130759 0)
(-0.0661133 -0.00141988 0)
(-0.0512251 -0.00153857 0)
(-0.0351309 -0.00163476 0)
(-0.0180676 -0.00171844 0)
(0.000101292 -0.00179326 0)
(0.0188327 -0.00185406 0)
(0.0376367 -0.00187592 0)
(0.0566264 -0.00189506 0)
(0.0755592 -0.00187452 0)
(0.0942605 -0.00183903 0)
(0.112459 -0.00177361 0)
(0.1298 -0.00166922 0)
(0.146005 -0.00154423 0)
(0.160846 -0.00139036 0)
(0.173987 -0.001201 0)
(0.185179 -0.000995418 0)
(0.194203 -0.000764326 0)
(0.200823 -0.000511062 0)
(0.204885 -0.000255233 0)
(0.206272 8.41327e-06 0)
(0.205025 0.000262623 0)
(0.201044 0.000516688 0)
(0.194609 0.000762915 0)
(0.185858 0.000966068 0)
(0.175088 0.0011634 0)
(0.162485 0.00134025 0)
(0.148347 0.00146029 0)
(0.133003 0.00157388 0)
(0.116749 0.00163415 0)
(0.0998657 0.00168552 0)
(0.0826496 0.00171753 0)
(0.0653176 0.00169535 0)
(0.0481323 0.00168295 0)
(0.0311613 0.00164081 0)
(0.014752 0.00158351 0)
(-0.000423971 0.00151083 0)
(-0.0147917 0.00143403 0)
(-0.0287508 0.00136308 0)
(-0.0419979 0.00128693 0)
(-0.054469 0.00120148 0)
(-0.0661598 0.00112603 0)
(-0.0770874 0.00105207 0)
(-0.0872743 0.000975916 0)
(-0.0967567 0.000909209 0)
(-0.105572 0.000841497 0)
(-0.113754 0.000781751 0)
(-0.121334 0.000723857 0)
(-0.12833 0.000664615 0)
(-0.134754 0.000609242 0)
(-0.14061 0.000553096 0)
(-0.145888 0.000493818 0)
(-0.15057 0.000434349 0)
(-0.154634 0.000371732 0)
(-0.15805 0.000305113 0)
(-0.160785 0.000235596 0)
(-0.162813 0.000161516 0)
(-0.164062 8.58893e-05 0)
(-0.164564 7.56238e-06 0)
(-0.164238 -7.65208e-05 0)
(-0.163039 -0.000163189 0)
(-0.160952 -0.00025166 0)
(-0.157962 -0.000342368 0)
(-0.154056 -0.000432971 0)
(-0.149224 -0.0005263 0)
(-0.143467 -0.000616943 0)
(-0.136787 -0.00070634 0)
(-0.129192 -0.000799855 0)
(-0.120698 -0.000885734 0)
(-0.111326 -0.000968373 0)
(-0.1011 -0.00105736 0)
(-0.0900541 -0.00113251 0)
(-0.0782251 -0.00121558 0)
(-0.0656552 -0.00128051 0)
(-0.0523922 -0.00133833 0)
(-0.038442 -0.0014066 0)
(-0.0234533 -0.00144983 0)
(-0.00664296 -0.00148798 0)
(0.235907 0.00154585 0)
(0.230253 0.00222744 0)
(0.221624 0.0028955 0)
(0.210861 0.00352425 0)
(0.19817 0.00402419 0)
(0.183783 0.00452243 0)
(0.167946 0.00485462 0)
(0.150933 0.00519858 0)
(0.133011 0.0054699 0)
(0.114448 0.00555022 0)
(0.0955127 0.00566352 0)
(0.0764451 0.00570587 0)
(0.0574651 0.00558152 0)
(0.0387476 0.00549988 0)
(0.0202076 0.00527541 0)
(0.00264632 0.00509699 0)
(-0.0137824 0.00488308 0)
(-0.029657 0.00458163 0)
(-0.0446359 0.0043204 0)
(-0.0586548 0.00404058 0)
(-0.0716756 0.00371779 0)
(-0.0836903 0.0034295 0)
(-0.094701 0.00313875 0)
(-0.10472 0.00283441 0)
(-0.113774 0.00255685 0)
(-0.121892 0.00227569 0)
(-0.12911 0.00201683 0)
(-0.135462 0.00176611 0)
(-0.140983 0.00152066 0)
(-0.145708 0.00128965 0)
(-0.149669 0.00106631 0)
(-0.152898 0.000849153 0)
(-0.15542 0.00063927 0)
(-0.157265 0.000435617 0)
(-0.158423 0.000240831 0)
(-0.158932 4.72225e-05 0)
(-0.15877 -0.000156881 0)
(-0.157932 -0.000359114 0)
(-0.156403 -0.00056354 0)
(-0.154181 -0.000778685 0)
(-0.151246 -0.000989774 0)
(-0.147572 -0.00122212 0)
(-0.143133 -0.00145012 0)
(-0.137881 -0.00169046 0)
(-0.131773 -0.00195809 0)
(-0.124792 -0.00221452 0)
(-0.116915 -0.00247055 0)
(-0.108064 -0.00277969 0)
(-0.0982266 -0.00305158 0)
(-0.08739 -0.00331364 0)
(-0.0755793 -0.00365638 0)
(-0.0627546 -0.00391769 0)
(-0.048959 -0.00423828 0)
(-0.0341922 -0.0045044 0)
(-0.0185274 -0.00466874 0)
(-0.00242722 -0.00499637 0)
(0.0143768 -0.00515746 0)
(0.031976 -0.00526554 0)
(0.0500114 -0.0054149 0)
(0.0683562 -0.00544569 0)
(0.0867919 -0.00547196 0)
(0.105137 -0.00541067 0)
(0.123174 -0.00525343 0)
(0.140636 -0.00506428 0)
(0.157316 -0.0048097 0)
(0.172977 -0.00444208 0)
(0.187341 -0.00405523 0)
(0.200239 -0.0035682 0)
(0.211422 -0.00305271 0)
(0.220738 -0.00250364 0)
(0.228055 -0.00184588 0)
(0.23317 -0.00119451 0)
(0.235991 -0.000507096 0)
(0.236458 0.000191001 0)
(0.234532 0.00090054 0)
(0.230169 0.00159194 0)
(0.22351 0.00226521 0)
(0.214808 0.0028835 0)
(0.203901 0.00348286 0)
(0.191209 0.0039907 0)
(0.17694 0.00446771 0)
(0.161109 0.00483902 0)
(0.144239 0.00516295 0)
(0.126488 0.00539844 0)
(0.108058 0.00552698 0)
(0.0893233 0.00560861 0)
(0.0704723 0.00559474 0)
(0.0517322 0.00555018 0)
(0.033258 0.00544388 0)
(0.015196 0.00530354 0)
(-0.00233391 0.00513501 0)
(-0.0192344 0.00492101 0)
(-0.0353999 0.00469036 0)
(-0.050696 0.00441705 0)
(-0.0650604 0.00413826 0)
(-0.0784477 0.00383288 0)
(-0.0908101 0.00351026 0)
(-0.1021 0.00317515 0)
(-0.112233 0.00286634 0)
(-0.121259 0.00253194 0)
(-0.129248 0.00221458 0)
(-0.136193 0.0018952 0)
(-0.142131 0.00162288 0)
(-0.147132 0.0013619 0)
(-0.151264 0.00111469 0)
(-0.154583 0.000876132 0)
(-0.15714 0.000650171 0)
(-0.158971 0.000439423 0)
(-0.160098 0.000245546 0)
(-0.160578 4.70164e-05 0)
(-0.160405 -0.000143069 0)
(-0.159612 -0.000331917 0)
(-0.158209 -0.000505075 0)
(-0.156177 -0.000691781 0)
(-0.153532 -0.000881422 0)
(-0.150298 -0.00106281 0)
(-0.146406 -0.00124302 0)
(-0.14186 -0.00144632 0)
(-0.136685 -0.00163155 0)
(-0.130832 -0.00183961 0)
(-0.124288 -0.0020496 0)
(-0.117044 -0.00226543 0)
(-0.109061 -0.00248635 0)
(-0.100326 -0.00270872 0)
(-0.0908241 -0.00294907 0)
(-0.0805527 -0.00316929 0)
(-0.0694642 -0.0034146 0)
(-0.0575841 -0.00365207 0)
(-0.0449211 -0.00389154 0)
(-0.0314265 -0.00412207 0)
(-0.0171832 -0.00435661 0)
(-0.00218909 -0.0045581 0)
(0.0134731 -0.0047359 0)
(0.0296955 -0.00490039 0)
(0.0463473 -0.00500693 0)
(0.0632961 -0.00507236 0)
(0.0803531 -0.00507381 0)
(0.0973268 -0.00502686 0)
(0.114013 -0.00489077 0)
(0.130147 -0.00470576 0)
(0.145504 -0.00442411 0)
(0.159797 -0.00407035 0)
(0.172777 -0.0036326 0)
(0.184146 -0.00312426 0)
(0.193687 -0.00254857 0)
(0.201194 -0.00191107 0)
(0.206475 -0.00122288 0)
(0.209379 -0.000503188 0)
(0.209836 0.000215535 0)
(0.207814 0.000966368 0)
(0.203258 0.00171131 0)
(0.196326 0.00240655 0)
(0.18711 0.00306514 0)
(0.17577 0.00366171 0)
(0.162527 0.00420752 0)
(0.147638 0.00464912 0)
(0.131381 0.00501608 0)
(0.114049 0.00528894 0)
(0.0959502 0.00547131 0)
(0.0773532 0.00557599 0)
(0.0585633 0.00560481 0)
(0.0398162 0.00555491 0)
(0.0213303 0.00543387 0)
(0.00337547 0.00526318 0)
(-0.0139168 0.00503791 0)
(-0.030423 0.00478125 0)
(-0.046027 0.00449269 0)
(-0.0606407 0.00419839 0)
(-0.074244 0.00391827 0)
(-0.0868461 0.00358242 0)
(-0.0983942 0.00328074 0)
(-0.10889 0.00298931 0)
(-0.11843 0.00269661 0)
(-0.127037 0.00242306 0)
(-0.134722 0.00215928 0)
(-0.141563 0.00191835 0)
(-0.147636 0.00169961 0)
(-0.153012 0.00149154 0)
(-0.157689 0.00129116 0)
(-0.161689 0.00109078 0)
(-0.165023 0.000893941 0)
(-0.167687 0.000692913 0)
(-0.169701 0.000497068 0)
(-0.171075 0.00031138 0)
(-0.171862 0.000182466 0)
(-0.172133 -3.13485e-06 0)
(-0.171911 -0.000138057 0)
(-0.171205 -0.00028989 0)
(-0.169947 -0.000442855 0)
(-0.168176 -0.000612604 0)
(-0.165846 -0.000775964 0)
(-0.162888 -0.000975126 0)
(-0.159319 -0.00117464 0)
(-0.155055 -0.00135397 0)
(-0.150094 -0.00157563 0)
(-0.144484 -0.00178922 0)
(-0.138113 -0.00199575 0)
(-0.130963 -0.00223804 0)
(-0.123067 -0.00245152 0)
(-0.114411 -0.00268535 0)
(-0.104999 -0.0029142 0)
(-0.0948228 -0.00317396 0)
(-0.0838184 -0.00337907 0)
(-0.0719756 -0.00363109 0)
(-0.0593809 -0.00388987 0)
(-0.0459383 -0.00411145 0)
(-0.0316638 -0.00434656 0)
(-0.016736 -0.0045557 0)
(-0.00110912 -0.00471674 0)
(0.0150423 -0.00485931 0)
(0.0315115 -0.00494009 0)
(0.0482014 -0.00498864 0)
(0.0649519 -0.00496753 0)
(0.0815475 -0.00489579 0)
(0.0977595 -0.00474035 0)
(0.113325 -0.00452128 0)
(0.128006 -0.00420021 0)
(0.14151 -0.00382901 0)
(0.153587 -0.00335563 0)
(0.163982 -0.00281436 0)
(0.172461 -0.00221076 0)
(0.17879 -0.0015587 0)
(0.182859 -0.000857814 0)
(0.184504 -0.000132892 0)
(0.18375 0.000589855 0)
(0.180434 0.00133316 0)
(0.174746 0.0020279 0)
(0.166814 0.00267501 0)
(0.156798 0.00328388 0)
(0.14488 0.00380636 0)
(0.131304 0.00425048 0)
(0.116378 0.00461816 0)
(0.100392 0.00489472 0)
(0.0835833 0.005093 0)
(0.066243 0.0052085 0)
(0.0486534 0.00525083 0)
(0.031038 0.00523232 0)
(0.0136274 0.0051433 0)
(-0.00342625 0.00500776 0)
(-0.0199421 0.00481819 0)
(-0.0357783 0.00460898 0)
(-0.0508395 0.00436187 0)
(-0.0650631 0.00409912 0)
(-0.0783866 0.00381765 0)
(-0.0907517 0.00355572 0)
(-0.102189 0.00326401 0)
(-0.112725 0.0030005 0)
(-0.122348 0.00271669 0)
(-0.131073 0.00248668 0)
(-0.138972 0.00222951 0)
(-0.146102 0.00200752 0)
(-0.152472 0.00177697 0)
(-0.158103 0.00158125 0)
(-0.163078 0.00138672 0)
(-0.167433 0.00121068 0)
(-0.171197 0.00103175 0)
(-0.17441 0.000872948 0)
(-0.177056 0.000707556 0)
(-0.179188 0.000557448 0)
(-0.180792 0.000395566 0)
(-0.181862 0.000246868 0)
(-0.18243 0.000104124 0)
(-0.182444 -7.00067e-05 0)
(-0.181909 -0.000238511 0)
(-0.180837 -0.000405302 0)
(-0.179073 -0.000573241 0)
(-0.176707 -0.000774438 0)
(-0.173821 -0.000966007 0)
(-0.170187 -0.00112655 0)
(-0.165846 -0.00136973 0)
(-0.160907 -0.00156792 0)
(-0.155301 -0.00176877 0)
(-0.148833 -0.00198851 0)
(-0.141578 -0.00225521 0)
(-0.133627 -0.00247989 0)
(-0.124878 -0.00274853 0)
(-0.115201 -0.00300167 0)
(-0.104508 -0.00331503 0)
(-0.0927856 -0.0036136 0)
(-0.079957 -0.0039249 0)
(-0.0661744 -0.00425725 0)
(-0.0512856 -0.00461832 0)
(-0.0351806 -0.00490322 0)
(-0.0181114 -0.0051563 0)
(6.52283e-05 -0.00537987 0)
(0.0188049 -0.00556392 0)
(0.0376208 -0.00562844 0)
(0.0566214 -0.00568746 0)
(0.075568 -0.00562323 0)
(0.0942754 -0.00552446 0)
(0.112494 -0.00532244 0)
(0.12985 -0.00500577 0)
(0.146065 -0.00463353 0)
(0.16092 -0.00417273 0)
(0.174073 -0.00360163 0)
(0.185275 -0.00298779 0)
(0.194309 -0.00228374 0)
(0.200931 -0.00155841 0)
(0.205011 -0.000773862 0)
(0.206396 2.18208e-05 0)
(0.205131 0.000787612 0)
(0.20115 0.00154956 0)
(0.194713 0.002289 0)
(0.185953 0.00289892 0)
(0.175172 0.00349107 0)
(0.162558 0.00402184 0)
(0.148407 0.00438204 0)
(0.133051 0.00472282 0)
(0.116784 0.00490356 0)
(0.0998891 0.00505766 0)
(0.0826616 0.00515356 0)
(0.0653207 0.00508691 0)
(0.0481264 0.0050496 0)
(0.031149 0.004923 0)
(0.0147335 0.00475137 0)
(-0.000447632 0.00453237 0)
(-0.0148151 0.00430245 0)
(-0.0287771 0.0040895 0)
(-0.0420257 0.00386091 0)
(-0.0544968 0.0036045 0)
(-0.0661874 0.00337809 0)
(-0.0771143 0.00315615 0)
(-0.0872999 0.00292768 0)
(-0.0967812 0.00272755 0)
(-0.105595 0.00252443 0)
(-0.113777 0.00234521 0)
(-0.121356 0.00217157 0)
(-0.128351 0.00199388 0)
(-0.134776 0.00182778 0)
(-0.140632 0.00165939 0)
(-0.14591 0.00148156 0)
(-0.150594 0.00130315 0)
(-0.15466 0.00111531 0)
(-0.158076 0.000915441 0)
(-0.160813 0.00070695 0)
(-0.162842 0.000484799 0)
(-0.164095 0.000258355 0)
(-0.164597 2.25644e-05 0)
(-0.164272 -0.000229565 0)
(-0.163074 -0.000489583 0)
(-0.160988 -0.00075489 0)
(-0.157999 -0.00102707 0)
(-0.154092 -0.0012989 0)
(-0.149261 -0.00157889 0)
(-0.143504 -0.00185084 0)
(-0.136823 -0.00211905 0)
(-0.129228 -0.00239963 0)
(-0.120733 -0.00265729 0)
(-0.11136 -0.00290523 0)
(-0.101133 -0.00317222 0)
(-0.0900853 -0.0033977 0)
(-0.0782548 -0.00364696 0)
(-0.0656825 -0.00384177 0)
(-0.0524168 -0.00401527 0)
(-0.0384641 -0.00422011 0)
(-0.0234731 -0.00434979 0)
(-0.00665777 -0.00446438 0)
(0.236097 0.00257768 0)
(0.230432 0.0037142 0)
(0.221791 0.00482818 0)
(0.211014 0.0058766 0)
(0.198303 0.00671009 0)
(0.183897 0.00754079 0)
(0.168038 0.00809446 0)
(0.151004 0.00866783 0)
(0.133062 0.00912006 0)
(0.114477 0.00925363 0)
(0.0955224 0.00944231 0)
(0.0764368 0.00951259 0)
(0.0574415 0.00930498 0)
(0.0387089 0.00916853 0)
(0.0201575 0.00879417 0)
(0.0025868 0.00849637 0)
(-0.0138498 0.00813947 0)
(-0.029729 0.00763679 0)
(-0.0447125 0.00720117 0)
(-0.0587342 0.00673457 0)
(-0.0717549 0.00619635 0)
(-0.0837698 0.0057157 0)
(-0.0947796 0.00523097 0)
(-0.104796 0.00472365 0)
(-0.113848 0.00426098 0)
(-0.121963 0.00379234 0)
(-0.129178 0.0033609 0)
(-0.135527 0.00294306 0)
(-0.141045 0.002534 0)
(-0.145768 0.00214903 0)
(-0.149727 0.00177683 0)
(-0.152953 0.00141512 0)
(-0.155473 0.00106576 0)
(-0.157317 0.000725888 0)
(-0.158478 0.000401609 0)
(-0.158987 7.77289e-05 0)
(-0.158824 -0.000261513 0)
(-0.157986 -0.000598168 0)
(-0.156458 -0.000939014 0)
(-0.154237 -0.00129702 0)
(-0.151304 -0.00164951 0)
(-0.147633 -0.00203664 0)
(-0.143196 -0.00241623 0)
(-0.137946 -0.00281729 0)
(-0.131843 -0.00326325 0)
(-0.124863 -0.00368983 0)
(-0.116987 -0.00411729 0)
(-0.10814 -0.00463269 0)
(-0.0983032 -0.00508524 0)
(-0.0874668 -0.00552248 0)
(-0.0756575 -0.00609426 0)
(-0.0628286 -0.00652883 0)
(-0.0490327 -0.00706596 0)
(-0.0342573 -0.00750754 0)
(-0.0185906 -0.00778712 0)
(-0.00248722 -0.00832469 0)
(0.0143344 -0.00859733 0)
(0.0319424 -0.00877757 0)
(0.0499907 -0.0090274 0)
(0.0683491 -0.00907883 0)
(0.0868013 -0.0091235 0)
(0.105164 -0.00901927 0)
(0.123217 -0.00876147 0)
(0.140698 -0.0084455 0)
(0.157399 -0.00801335 0)
(0.173069 -0.00741405 0)
(0.18746 -0.00675677 0)
(0.200368 -0.0059565 0)
(0.211566 -0.0050829 0)
(0.220892 -0.00418342 0)
(0.228228 -0.00307165 0)
(0.233346 -0.00199685 0)
(0.236175 -0.000850988 0)
(0.236643 0.000318296 0)
(0.234692 0.00150218 0)
(0.230346 0.00265219 0)
(0.223682 0.00377873 0)
(0.214966 0.00480979 0)
(0.204044 0.00580099 0)
(0.191336 0.00665824 0)
(0.177048 0.00745009 0)
(0.161198 0.00806961 0)
(0.144307 0.00860731 0)
(0.126534 0.00900172 0)
(0.108085 0.00921488 0)
(0.0893279 0.00935022 0)
(0.0704539 0.00933069 0)
(0.0516984 0.00925107 0)
(0.0332065 0.00907988 0)
(0.0151308 0.00884543 0)
(-0.00241752 0.00856196 0)
(-0.0193378 0.0082029 0)
(-0.0355259 0.00781892 0)
(-0.0508399 0.00736334 0)
(-0.0652218 0.00690307 0)
(-0.078631 0.00639036 0)
(-0.0910064 0.00585206 0)
(-0.102291 0.00530237 0)
(-0.112433 0.00478841 0)
(-0.121473 0.00421385 0)
(-0.129466 0.00368599 0)
(-0.136405 0.00315859 0)
(-0.142339 0.00271546 0)
(-0.147343 0.00227045 0)
(-0.151477 0.00184663 0)
(-0.154792 0.00145653 0)
(-0.157342 0.00109209 0)
(-0.159173 0.000735315 0)
(-0.160299 0.000406602 0)
(-0.160775 7.41702e-05 0)
(-0.160602 -0.000238973 0)
(-0.159812 -0.000550523 0)
(-0.15841 -0.000848393 0)
(-0.156374 -0.00114629 0)
(-0.153726 -0.00145909 0)
(-0.150496 -0.00177179 0)
(-0.146608 -0.00206738 0)
(-0.142059 -0.0024189 0)
(-0.136889 -0.00272604 0)
(-0.13104 -0.00306632 0)
(-0.124493 -0.00341178 0)
(-0.117251 -0.0037759 0)
(-0.109263 -0.00414281 0)
(-0.100531 -0.00451093 0)
(-0.0910354 -0.00491586 0)
(-0.0807662 -0.00527745 0)
(-0.069688 -0.00569897 0)
(-0.0577986 -0.00609263 0)
(-0.0451249 -0.0064742 0)
(-0.0316377 -0.00687752 0)
(-0.0173778 -0.00725118 0)
(-0.00237852 -0.00760318 0)
(0.0132918 -0.00789073 0)
(0.029511 -0.00816961 0)
(0.0461756 -0.00834053 0)
(0.0631345 -0.00845589 0)
(0.0802125 -0.00845793 0)
(0.0972078 -0.00837357 0)
(0.113902 -0.00815943 0)
(0.130062 -0.00784243 0)
(0.145436 -0.00737696 0)
(0.159749 -0.00678707 0)
(0.172745 -0.00605684 0)
(0.184137 -0.00521148 0)
(0.193701 -0.00424791 0)
(0.201231 -0.00318693 0)
(0.206528 -0.00203864 0)
(0.209431 -0.000842877 0)
(0.209887 0.000359278 0)
(0.207848 0.0016241 0)
(0.203298 0.00284655 0)
(0.196357 0.00402067 0)
(0.187117 0.00510761 0)
(0.175772 0.00610705 0)
(0.162515 0.00701365 0)
(0.147604 0.00775117 0)
(0.131329 0.00835909 0)
(0.113976 0.00881896 0)
(0.0958587 0.00912857 0)
(0.077235 0.00929638 0)
(0.0584209 0.00934418 0)
(0.0396571 0.00926144 0)
(0.0211557 0.0090662 0)
(0.00317139 0.00876544 0)
(-0.0141366 0.00839767 0)
(-0.0306454 0.00798128 0)
(-0.0462548 0.00749694 0)
(-0.060875 0.00699929 0)
(-0.0744832 0.00652046 0)
(-0.0870829 0.00597599 0)
(-0.0986236 0.0054625 0)
(-0.109126 0.00498728 0)
(-0.118674 0.00449197 0)
(-0.127272 0.00403355 0)
(-0.134949 0.00360197 0)
(-0.141785 0.00320305 0)
(-0.147854 0.00283052 0)
(-0.153222 0.00248478 0)
(-0.157903 0.00214762 0)
(-0.161903 0.00181419 0)
(-0.16524 0.00149254 0)
(-0.167904 0.00115727 0)
(-0.169913 0.000834812 0)
(-0.171285 0.000523366 0)
(-0.172069 0.000293041 0)
(-0.172328 -3.31348e-06 0)
(-0.172099 -0.000228487 0)
(-0.171399 -0.000482218 0)
(-0.170152 -0.000736038 0)
(-0.168385 -0.00102483 0)
(-0.166056 -0.00129545 0)
(-0.163098 -0.00161756 0)
(-0.159519 -0.00193836 0)
(-0.155259 -0.00226301 0)
(-0.150302 -0.00263072 0)
(-0.144689 -0.00298554 0)
(-0.138324 -0.0033197 0)
(-0.131179 -0.00373044 0)
(-0.123287 -0.00408736 0)
(-0.114631 -0.00448293 0)
(-0.105212 -0.00485055 0)
(-0.0950321 -0.0052739 0)
(-0.0840276 -0.0056397 0)
(-0.0721924 -0.00606027 0)
(-0.059589 -0.00649112 0)
(-0.0461454 -0.00683864 0)
(-0.03188 -0.00725062 0)
(-0.016934 -0.00759663 0)
(-0.00130333 -0.00785771 0)
(0.0148628 -0.00809512 0)
(0.0313399 -0.00823734 0)
(0.0480461 -0.00831589 0)
(0.0648109 -0.00828742 0)
(0.0814304 -0.00816219 0)
(0.0976629 -0.00790228 0)
(0.113252 -0.0075303 0)
(0.127948 -0.0070072 0)
(0.141477 -0.00638432 0)
(0.153576 -0.00559934 0)
(0.163992 -0.00469164 0)
(0.17248 -0.00369185 0)
(0.178831 -0.00259622 0)
(0.182907 -0.00143355 0)
(0.184562 -0.000220201 0)
(0.18379 0.000985865 0)
(0.180475 0.00222376 0)
(0.174787 0.00338364 0)
(0.166852 0.00446198 0)
(0.156815 0.00548335 0)
(0.144876 0.00633916 0)
(0.131287 0.00709553 0)
(0.116335 0.00769616 0)
(0.100322 0.00816536 0)
(0.0834839 0.00848428 0)
(0.0661338 0.00868502 0)
(0.0485258 0.00877205 0)
(0.0308837 0.00871932 0)
(0.0134462 0.00856677 0)
(-0.00362257 0.00834553 0)
(-0.0201457 0.00803792 0)
(-0.0359899 0.00767966 0)
(-0.0510589 0.00727134 0)
(-0.0652882 0.00682629 0)
(-0.078601 0.00636567 0)
(-0.0909798 0.00593796 0)
(-0.102422 0.00543885 0)
(-0.112958 0.00500235 0)
(-0.122571 0.00453615 0)
(-0.131294 0.00414074 0)
(-0.1392 0.00371892 0)
(-0.146332 0.00333365 0)
(-0.152688 0.00296001 0)
(-0.158316 0.00265075 0)
(-0.163299 0.00230896 0)
(-0.167655 0.00201433 0)
(-0.171409 0.00171719 0)
(-0.174616 0.00146209 0)
(-0.177261 0.00117367 0)
(-0.179386 0.000928617 0)
(-0.180981 0.000662698 0)
(-0.182048 0.000412152 0)
(-0.18261 0.00016957 0)
(-0.182609 -0.000115631 0)
(-0.182062 -0.000395481 0)
(-0.180984 -0.000684772 0)
(-0.179212 -0.000952872 0)
(-0.176839 -0.00129015 0)
(-0.173933 -0.00160752 0)
(-0.170297 -0.0018803 0)
(-0.165954 -0.00228798 0)
(-0.160998 -0.00260983 0)
(-0.155391 -0.00295049 0)
(-0.148922 -0.00331285 0)
(-0.141666 -0.00376581 0)
(-0.13371 -0.00412823 0)
(-0.124963 -0.00458603 0)
(-0.115288 -0.00500515 0)
(-0.104602 -0.00552375 0)
(-0.0928729 -0.00601553 0)
(-0.0800515 -0.00654089 0)
(-0.0662771 -0.0071004 0)
(-0.0513769 -0.00769525 0)
(-0.0352633 -0.00817675 0)
(-0.01818 -0.0085953 0)
(6.56303e-06 -0.00896842 0)
(0.018767 -0.00927644 0)
(0.0375996 -0.00938534 0)
(0.0566192 -0.00948195 0)
(0.0755872 -0.00937825 0)
(0.0943178 -0.0092088 0)
(0.112559 -0.00887441 0)
(0.129939 -0.00835182 0)
(0.14618 -0.00772542 0)
(0.161056 -0.00695733 0)
(0.174229 -0.00600849 0)
(0.185452 -0.00498082 0)
(0.194496 -0.00382806 0)
(0.201137 -0.00256084 0)
(0.205227 -0.00126888 0)
(0.206614 3.89585e-05 0)
(0.205319 0.00131331 0)
(0.201336 0.00258304 0)
(0.194892 0.00381694 0)
(0.186115 0.00483471 0)
(0.175314 0.00582194 0)
(0.162677 0.00670691 0)
(0.148502 0.00730743 0)
(0.133122 0.00787531 0)
(0.116831 0.0081762 0)
(0.0999149 0.00843296 0)
(0.0826663 0.0085921 0)
(0.0653093 0.00848083 0)
(0.0480986 0.00841803 0)
(0.0311103 0.00820646 0)
(0.0146836 0.00792108 0)
(-0.000506539 0.00755399 0)
(-0.0148722 0.00717172 0)
(-0.028839 0.00681636 0)
(-0.0420895 0.00643499 0)
(-0.0545597 0.00600739 0)
(-0.066249 0.00562985 0)
(-0.0771736 0.00525986 0)
(-0.0873558 0.00487903 0)
(-0.0968343 0.00454549 0)
(-0.105645 0.004207 0)
(-0.113824 0.00390837 0)
(-0.121402 0.00361912 0)
(-0.128396 0.0033231 0)
(-0.134821 0.00304637 0)
(-0.140678 0.00276581 0)
(-0.145957 0.00246954 0)
(-0.150643 0.00217224 0)
(-0.154711 0.00185921 0)
(-0.15813 0.00152619 0)
(-0.160868 0.00117876 0)
(-0.162899 0.000808655 0)
(-0.16416 0.000431802 0)
(-0.164664 3.78773e-05 0)
(-0.164339 -0.00038263 0)
(-0.163144 -0.000815823 0)
(-0.161059 -0.00125793 0)
(-0.158071 -0.00171168 0)
(-0.154165 -0.00216479 0)
(-0.149335 -0.0026315 0)
(-0.143577 -0.00308481 0)
(-0.136895 -0.00353189 0)
(-0.129299 -0.00399961 0)
(-0.120803 -0.00442913 0)
(-0.111426 -0.00484244 0)
(-0.101198 -0.00528753 0)
(-0.0901464 -0.00566342 0)
(-0.0783129 -0.00607898 0)
(-0.0657357 -0.00640377 0)
(-0.0524646 -0.00669303 0)
(-0.038507 -0.00703452 0)
(-0.0235117 -0.0072507 0)
(-0.00668696 -0.00744208 0)
(0.236382 0.00361148 0)
(0.230701 0.00520372 0)
(0.222043 0.00676442 0)
(0.211245 0.00823324 0)
(0.198502 0.00940065 0)
(0.184069 0.0105643 0)
(0.168175 0.0113395 0)
(0.151111 0.0121424 0)
(0.133137 0.0127755 0)
(0.114521 0.0129619 0)
(0.095537 0.0132257 0)
(0.0764243 0.0133235 0)
(0.0574059 0.0130321 0)
(0.0386507 0.0128403 0)
(0.0200822 0.0123154 0)
(0.00249739 0.0118981 0)
(-0.013951 0.0113975 0)
(-0.0298372 0.0106931 0)
(-0.0448275 0.0100827 0)
(-0.0588534 0.00942902 0)
(-0.0718739 0.00867496 0)
(-0.0838891 0.00800167 0)
(-0.0948975 0.00732278 0)
(-0.10491 0.00661235 0)
(-0.113959 0.00596447 0)
(-0.122069 0.00530829 0)
(-0.129281 0.00470428 0)
(-0.135626 0.00411935 0)
(-0.141139 0.00354672 0)
(-0.145858 0.00300789 0)
(-0.149814 0.0024871 0)
(-0.153036 0.00198103 0)
(-0.155553 0.00149275 0)
(-0.157393 0.00101779 0)
(-0.15856 0.000560594 0)
(-0.15907 0.000104226 0)
(-0.158904 -0.000367485 0)
(-0.158066 -0.000836457 0)
(-0.15654 -0.00131427 0)
(-0.154322 -0.00181331 0)
(-0.151391 -0.0023098 0)
(-0.147725 -0.0028507 0)
(-0.143291 -0.00338115 0)
(-0.138045 -0.00394391 0)
(-0.131947 -0.00456783 0)
(-0.12497 -0.00516374 0)
(-0.117096 -0.00576366 0)
(-0.108255 -0.00648543 0)
(-0.0984183 -0.00711814 0)
(-0.0875824 -0.00773126 0)
(-0.075775 -0.00853266 0)
(-0.06294 -0.00913875 0)
(-0.0491437 -0.00989719 0)
(-0.0343556 -0.0105109 0)
(-0.0186862 -0.0109127 0)
(-0.00257627 -0.0116508 0)
(0.0142694 -0.0120393 0)
(0.0318917 -0.012293 0)
(0.0499588 -0.0126436 0)
(0.0683385 -0.0127159 0)
(0.0868159 -0.0127788 0)
(0.105203 -0.0126377 0)
(0.123284 -0.0122721 0)
(0.140789 -0.0118309 0)
(0.157516 -0.0112319 0)
(0.173219 -0.0103823 0)
(0.18763 -0.00947215 0)
(0.200561 -0.0083422 0)
(0.211778 -0.00713521 0)
(0.221123 -0.00586055 0)
(0.228488 -0.00430538 0)
(0.233605 -0.00280483 0)
(0.236451 -0.00119636 0)