/*--------------------------------*- C++ -*----------------------------------*\
| =========                 |                                                 |
| \\      /  F ield         | OpenFOAM: The Open Source CFD Toolbox           |
|  \\    /   O peration     | Version:  3.0.1                                 |
|   \\  /    A nd           | Web:      www.OpenFOAM.org                      |
|    \\/     M anipulation  |                                                 |
\*---------------------------------------------------------------------------*/
FoamFile
{
    version     2.0;
    format      ascii;
    class       surfaceScalarField;
    location    "80";
    object      alphaPhi;
}
// * * * * * * * * * * * * * * * * * * * * * * * * * * * * * * * * * * * * * //

dimensions      [0 3 -1 0 0 0 0];

internalField   nonuniform List<scalar> 
42423
(
0.000118293
1.30771e-05
0.000106252
1.20419e-05
9.51973e-05
1.10543e-05
8.51312e-05
1.00661e-05
7.6101e-05
9.03016e-06
6.80491e-05
8.05195e-06
6.09789e-05
7.07019e-06
5.48295e-05
6.1494e-06
4.95556e-05
5.27391e-06
4.51153e-05
4.44025e-06
4.14392e-05
3.6761e-06
3.84649e-05
2.9743e-06
3.6126e-05
2.3389e-06
3.43629e-05
1.76309e-06
3.31078e-05
1.25514e-06
3.23096e-05
7.98195e-07
3.19062e-05
4.03403e-07
3.18839e-05
2.22792e-08
3.2208e-05
-3.24115e-07
3.27696e-05
-5.61649e-07
3.36702e-05
-9.006e-07
3.48895e-05
-1.21921e-06
3.63216e-05
-1.4321e-06
3.81118e-05
-1.79023e-06
4.02199e-05
-2.10816e-06
4.27497e-05
-2.52979e-06
4.5733e-05
-2.98332e-06
4.90676e-05
-3.33454e-06
5.29223e-05
-3.85476e-06
5.73995e-05
-4.47715e-06
6.23031e-05
-4.90368e-06
6.78962e-05
-5.5931e-06
7.40745e-05
-6.17827e-06
8.09492e-05
-6.87477e-06
8.86404e-05
-7.69119e-06
9.68403e-05
-8.19994e-06
0.000105783
-8.94228e-06
0.000115629
-9.8466e-06
0.000126016
-1.03867e-05
0.000137219
-1.12032e-05
0.000149091
-1.1872e-05
0.000161727
-1.26358e-05
0.000175258
-1.35313e-05
0.000189273
-1.40152e-05
0.000203841
-1.45677e-05
0.000219093
-1.5252e-05
0.000234639
-1.55462e-05
0.000250402
-1.57634e-05
0.000266443
-1.60411e-05
0.00028232
-1.58767e-05
0.000297952
-1.56321e-05
0.000313141
-1.51887e-05
0.000327637
-1.44962e-05
0.000341321
-1.36842e-05
0.00035385
-1.25291e-05
0.000364985
-1.11354e-05
0.000374684
-9.69842e-06
0.000382562
-7.87816e-06
0.000388623
-6.06127e-06
0.000392637
-4.01459e-06
0.000394644
-2.0062e-06
0.000394735
-9.09915e-08
0.000392726
2.00809e-06
0.000388575
4.15104e-06
0.000382576
5.99948e-06
0.000374638
7.93738e-06
0.000365
9.63834e-06
0.000353846
1.11541e-05
0.000341381
1.24651e-05
0.000327804
1.35763e-05
0.000313174
1.46299e-05
0.000297392
1.57818e-05
0.000280369
1.70233e-05
0.000262173
1.81959e-05
0.000243086
1.90868e-05
0.000223419
1.96673e-05
0.000203469
1.995e-05
0.000183629
1.98401e-05
0.000164387
1.92422e-05
0.000145905
1.84814e-05
0.000128499
1.74063e-05
0.000112381
1.61185e-05
9.75785e-05
1.48021e-05
8.40981e-05
1.34804e-05
7.19292e-05
1.21689e-05
6.09697e-05
1.09595e-05
5.11209e-05
9.84879e-06
4.22155e-05
8.90536e-06
3.41558e-05
8.05972e-06
2.67839e-05
7.37187e-06
2.00576e-05
6.72631e-06
1.38562e-05
6.20139e-06
8.14345e-06
5.71278e-06
2.90947e-06
5.23397e-06
-1.85512e-06
4.76458e-06
-6.36303e-06
4.50789e-06
-1.05351e-05
4.17207e-06
-1.4211e-05
3.67591e-06
-1.75191e-05
3.30806e-06
-2.0367e-05
2.84792e-06
-2.27153e-05
2.34821e-06
-2.46e-05
1.88477e-06
-2.59791e-05
1.37903e-06
-2.68688e-05
8.89685e-07
-2.72733e-05
4.04492e-07
-2.71746e-05
-9.87209e-08
-2.65427e-05
-6.31953e-07
-2.54086e-05
-1.13411e-06
-2.37248e-05
-1.68378e-06
-2.14855e-05
-2.23932e-06
-1.8676e-05
-2.80958e-06
-1.52002e-05
-3.47579e-06
-1.12078e-05
-3.9924e-06
-6.51449e-06
-4.69338e-06
-1.13868e-06
-5.37584e-06
4.9274e-06
-6.06613e-06
1.17496e-05
-6.82223e-06
1.93453e-05
-7.59579e-06
2.77981e-05
-8.45282e-06
3.70706e-05
-9.27255e-06
4.72235e-05
-1.0153e-05
5.83177e-05
-1.10943e-05
7.02688e-05
-1.19511e-05
8.31222e-05
-1.28535e-05
9.68615e-05
-1.37394e-05
0.000111402
-1.45409e-05
0.000126697
-1.52947e-05
0.000142634
-1.59376e-05
0.000159084
-1.64493e-05
0.000175897
-1.68138e-05
0.000192851
-1.69536e-05
0.000209864
-1.70128e-05
0.000226633
-1.67691e-05
0.000243029
-1.63964e-05
0.000258884
-1.58548e-05
0.000273985
-1.51005e-05
0.000288162
-1.41771e-05
0.000301185
-1.30232e-05
0.000312903
-1.17172e-05
0.000322982
-1.00794e-05
0.000331308
-8.32554e-06
0.000337659
-6.35112e-06
0.000341854
-4.19487e-06
0.000343805
-1.94982e-06
0.000343479
3.25508e-07
0.000340737
2.74274e-06
0.000335635
5.10222e-06
0.000328375
7.26027e-06
0.000319067
9.30828e-06
0.000307941
1.11255e-05
0.00029518
1.27617e-05
0.000281006
1.4174e-05
0.000265653
1.5353e-05
0.000249349
1.63044e-05
0.000232364
1.69848e-05
0.000214919
1.74456e-05
0.000197211
1.77081e-05
0.000179532
1.76791e-05
0.000162055
1.74765e-05
0.000144984
1.70711e-05
0.000128452
1.65323e-05
0.000112608
1.58443e-05
9.75766e-05
1.5031e-05
8.34195e-05
1.41571e-05
7.02403e-05
1.31792e-05
5.80859e-05
1.21544e-05
4.70328e-05
1.10531e-05
3.7039e-05
9.99375e-06
2.81163e-05
8.9227e-06
2.02594e-05
7.8569e-06
1.33749e-05
6.8845e-06
7.46183e-06
5.91301e-06
2.44366e-06
5.01814e-06
-1.83848e-06
4.28212e-06
-5.34115e-06
3.50264e-06
-8.16121e-06
2.82004e-06
-1.03747e-05
2.21351e-06
-1.19704e-05
1.59564e-06
-1.30586e-05
1.08818e-06
-1.36527e-05
5.9403e-07
-1.37342e-05
8.15009e-08
-1.32905e-05
-4.43742e-07
-1.23649e-05
-9.25604e-07
-1.08989e-05
-1.46597e-06
-9.00525e-06
-1.8937e-06
-6.70676e-06
-2.29851e-06
-3.95419e-06
-2.75259e-06
-8.58682e-07
-3.09553e-06
2.57396e-06
-3.43266e-06
6.40419e-06
-3.83026e-06
1.0598e-05
-4.1938e-06
1.52231e-05
-4.62516e-06
2.0308e-05
-5.0849e-06
2.58888e-05
-5.58086e-06
3.20744e-05
-6.18561e-06
3.88418e-05
-6.76748e-06
4.63175e-05
-7.47565e-06
5.45359e-05
-8.21847e-06
6.34901e-05
-8.95425e-06
7.32459e-05
-9.75581e-06
8.37519e-05
-1.05061e-05
9.50098e-05
-1.1258e-05
0.000107029
-1.20194e-05
0.0001198
-1.27714e-05
0.000133309
-1.35084e-05
0.0001476
-1.42917e-05
0.000162637
-1.50365e-05
0.000178426
-1.57896e-05
0.000194882
-1.64557e-05
0.000211917
-1.7035e-05
0.000229414
-1.74972e-05
0.000247269
-1.78559e-05
0.000265292
-1.80227e-05
0.000283251
-1.79593e-05
0.000300891
-1.76402e-05
0.000317867
-1.69769e-05
0.00033388
-1.60125e-05
0.0003486
-1.47206e-05
0.000361672
-1.30725e-05
0.000372805
-1.11328e-05
0.000381735
-8.93097e-06
0.000388248
-6.51279e-06
0.000392187
-3.93955e-06
0.000393497
-1.31023e-06
0.00039219
1.30663e-06
0.000388116
4.07425e-06
0.000381446
6.67032e-06
0.000372422
9.02364e-06
0.00036121
1.12116e-05
0.000348027
1.31831e-05
0.000333171
1.48558e-05
0.000316908
1.62628e-05
0.000299505
1.74028e-05
0.000281303
1.82016e-05
0.000262516
1.87872e-05
0.000243443
1.90729e-05
0.000224335
1.9108e-05
0.000205445
1.889e-05
0.000187038
1.84064e-05
0.00016932
1.77183e-05
0.000152501
1.68196e-05
0.000136785
1.57151e-05
0.000122289
1.44966e-05
0.000109052
1.3237e-05
9.70763e-05
1.19755e-05
8.62707e-05
1.08055e-05
7.65146e-05
9.75615e-06
6.7711e-05
8.80355e-06
5.9749e-05
7.96203e-06
5.2532e-05
7.21693e-06
4.59884e-05
6.54363e-06
4.00726e-05
5.91582e-06
3.47337e-05
5.33887e-06
2.99673e-05
4.76635e-06
2.57609e-05
4.20646e-06
2.2142e-05
3.61882e-06
1.91601e-05
2.98188e-06
1.68473e-05
2.31285e-06
1.52414e-05
1.60593e-06
1.43683e-05
8.7307e-07
1.41413e-05
2.2701e-07
1.45404e-05
-3.9912e-07
1.5431e-05
-8.9054e-07
1.66997e-05
-1.26879e-06
1.82129e-05
-1.51318e-06
1.98626e-05
-1.6497e-06
2.16982e-05
-1.83562e-06
2.36049e-05
-1.90664e-06
2.55863e-05
-1.98149e-06
2.77035e-05
-2.11716e-06
2.99997e-05
-2.29626e-06
3.25935e-05
-2.5938e-06
3.55074e-05
-2.91396e-06
3.88734e-05
-3.36604e-06
4.28206e-05
-3.94739e-06
4.74448e-05
-4.6243e-06
5.2893e-05
-5.44828e-06
5.93499e-05
-6.45711e-06
6.68725e-05
-7.52282e-06
7.58981e-05
-9.02587e-06
8.62525e-05
-1.03547e-05
9.77929e-05
-1.15406e-05
0.000110511
-1.27183e-05
0.000124363
-1.38523e-05
0.000139089
-1.47268e-05
0.000154737
-1.56483e-05
0.000171066
-1.63293e-05
0.000187961
-1.68959e-05
0.000205332
-1.73709e-05
0.000222878
-1.75462e-05
0.000240529
-1.76511e-05
0.000258164
-1.76362e-05
0.000275505
-1.73407e-05
0.000292493
-1.69879e-05
0.000308945
-1.64524e-05
0.000324657
-1.57129e-05
0.00033958
-1.49227e-05
0.000353421
-1.38413e-05
0.00036608
-1.26593e-05
0.000377276
-1.11963e-05
0.000386854
-9.57739e-06
0.000394672
-7.81818e-06
0.000400471
-5.79918e-06
0.000404138
-3.66724e-06
0.000405409
-1.27073e-06
0.000404472
9.36757e-07
0.000401656
2.81563e-06
0.000396998
4.65807e-06
0.000390602
6.39542e-06
0.000382444
8.15825e-06
0.000372484
9.95977e-06
0.000361134
1.13497e-05
0.000348538
1.25958e-05
0.000334748
1.37902e-05
0.000320229
1.45194e-05
0.000305033
1.51952e-05
0.00028953
1.5503e-05
0.000273828
1.57023e-05
0.00025801
1.58182e-05
0.000242415
1.55948e-05
0.000227124
1.52911e-05
0.000212212
1.49116e-05
0.00019791
1.43016e-05
0.000184238
1.36723e-05
0.00017133
1.29077e-05
0.00015919
1.21402e-05
0.000147828
1.13626e-05
0.000137302
1.05256e-05
0.000127572
9.72993e-06
0.000118605
8.96653e-06
0.000110393
8.21272e-06
0.000102867
7.52591e-06
9.59715e-05
6.89524e-06
8.96676e-05
6.30386e-06
8.38885e-05
5.77909e-06
7.8598e-05
5.29055e-06
7.37394e-05
4.8586e-06
6.9282e-05
4.45739e-06
6.52114e-05
4.07053e-06
6.15055e-05
3.7059e-06
5.81687e-05
3.33684e-06
5.52032e-05
2.96546e-06
5.26189e-05
2.58431e-06
5.04358e-05
2.18308e-06
4.86717e-05
1.76414e-06
4.73504e-05
1.32126e-06
4.64941e-05
8.56271e-07
4.61284e-05
3.65756e-07
4.63216e-05
-1.93182e-07
4.70888e-05
-7.67246e-07
4.84324e-05
-1.34365e-06
5.03743e-05
-1.94188e-06
5.29145e-05
-2.5402e-06
5.60399e-05
-3.1254e-06
5.98077e-05
-3.76776e-06
6.41948e-05
-4.38713e-06
-4.97435e-06
0.000118255
2.61547e-05
0.000106213
2.4084e-05
9.51587e-05
2.21085e-05
8.50929e-05
2.01319e-05
7.60634e-05
1.80596e-05
6.80125e-05
1.61029e-05
6.09437e-05
1.4139e-05
5.4796e-05
1.22971e-05
4.9524e-05
1.05459e-05
4.50858e-05
8.87849e-06
4.14117e-05
7.35016e-06
3.84397e-05
5.94628e-06
3.61037e-05
4.67497e-06
3.4344e-05
3.52273e-06
3.30897e-05
2.50942e-06
3.22914e-05
1.59651e-06
3.18885e-05
8.06287e-07
3.1866e-05
4.48074e-08
3.219e-05
-6.4809e-07
3.27542e-05
-1.12588e-06
3.36536e-05
-1.80006e-06
3.48699e-05
-2.43547e-06
3.62966e-05
-2.85884e-06
3.80882e-05
-3.58178e-06
4.01961e-05
-4.21606e-06
4.27154e-05
-5.04917e-06
4.57001e-05
-5.96793e-06
4.90266e-05
-6.66115e-06
5.28804e-05
-7.70853e-06
5.73564e-05
-8.95314e-06
6.22554e-05
-9.80276e-06
6.78527e-05
-1.11904e-05
7.40241e-05
-1.23497e-05
8.08933e-05
-1.3744e-05
8.85854e-05
-1.53834e-05
9.67806e-05
-1.63951e-05
0.000105729
-1.78911e-05
0.000115585
-1.97025e-05
0.000125968
-2.07701e-05
0.000137163
-2.23978e-05
0.000149035
-2.37442e-05
0.000161682
-2.52834e-05
0.00017522
-2.70688e-05
0.000189231
-2.80263e-05
0.000203799
-2.91365e-05
0.000219073
-3.05253e-05
0.000234617
-3.10904e-05
0.000250382
-3.1529e-05
0.000266445
-3.21039e-05
0.000282328
-3.17599e-05
0.000297977
-3.12816e-05
0.000313171
-3.03824e-05
0.000327676
-2.90011e-05
0.00034138
-2.73884e-05
0.000353926
-2.50752e-05
0.000365066
-2.2276e-05
0.000374784
-1.94165e-05
0.000382679
-1.57729e-05
0.000388749
-1.21318e-05
0.000392769
-8.03417e-06
0.000394779
-4.01687e-06
0.000394866
-1.77831e-07
0.000392853
4.02098e-06
0.000388703
8.30076e-06
0.000382701
1.20016e-05
0.000374756
1.58824e-05
0.000365106
1.92875e-05
0.000353938
2.23219e-05
0.000341456
2.49475e-05
0.000327863
2.7169e-05
0.00031322
2.92733e-05
0.000297442
3.15595e-05
0.00028043
3.40351e-05
0.000262241
3.6385e-05
0.000243161
3.81672e-05
0.0002235
3.93284e-05
0.000203563
3.9887e-05
0.000183735
3.9668e-05
0.000164498
3.84786e-05
0.000146029
3.69505e-05
0.000128638
3.47977e-05
0.000112534
3.22224e-05
9.77476e-05
2.95885e-05
8.42848e-05
2.69432e-05
7.21312e-05
2.43225e-05
6.11838e-05
2.1907e-05
5.13443e-05
1.96883e-05
4.24452e-05
1.78044e-05
3.43909e-05
1.6114e-05
2.70413e-05
1.47215e-05
2.03235e-05
1.34441e-05
1.41066e-05
1.24183e-05
8.4347e-06
1.13847e-05
3.15424e-06
1.05144e-05
-1.60635e-06
9.52516e-06
-6.11775e-06
9.01928e-06
-1.02761e-05
8.33036e-06
-1.39989e-05
7.39873e-06
-1.72738e-05
6.58297e-06
-2.00824e-05
5.65653e-06
-2.24465e-05
4.71222e-06
-2.43458e-05
3.78409e-06
-2.57236e-05
2.75684e-06
-2.66222e-05
1.78818e-06
-2.70212e-05
8.03526e-07
-2.69294e-05
-1.90577e-07
-2.63043e-05
-1.25704e-06
-2.51694e-05
-2.26904e-06
-2.34889e-05
-3.3643e-06
-2.12521e-05
-4.47621e-06
-1.84439e-05
-5.61775e-06
-1.49775e-05
-6.9423e-06
-1.09925e-05
-7.97742e-06
-6.22963e-06
-9.45626e-06
-9.31572e-07
-1.06739e-05
5.14652e-06
-1.21443e-05
1.1963e-05
-1.36388e-05
1.95615e-05
-1.51943e-05
2.7998e-05
-1.68894e-05
3.72766e-05
-1.85512e-05
4.74553e-05
-2.03317e-05
5.84991e-05
-2.21381e-05
7.0489e-05
-2.39412e-05
8.33505e-05
-2.5715e-05
9.70827e-05
-2.74717e-05
0.000111618
-2.90759e-05
0.000126915
-3.05918e-05
0.000142855
-3.18777e-05
0.00015934
-3.29348e-05
0.000176137
-3.36107e-05
0.000193126
-3.39426e-05
0.000210112
-3.39991e-05
0.000226904
-3.35608e-05
0.000243312
-3.28042e-05
0.000259179
-3.17225e-05
0.000274316
-3.02373e-05
0.000288472
-2.83329e-05
0.000301521
-2.6072e-05
0.000313246
-2.34422e-05
0.000323334
-2.01678e-05
0.000331657
-1.6648e-05
0.000338012
-1.27059e-05
0.000342208
-8.39045e-06
0.00034416
-3.90205e-06
0.000343807
6.79098e-07
0.000341055
5.49447e-06
0.000335949
1.02084e-05
0.000328662
1.45471e-05
0.00031935
1.86208e-05
0.000308179
2.2297e-05
0.000295386
2.55546e-05
0.000281185
2.83752e-05
0.000265796
3.07422e-05
0.000249473
3.26278e-05
0.000232459
3.39987e-05
0.000214979
3.49251e-05
0.000197243
3.54449e-05
0.000179537
3.5385e-05
0.000162035
3.49781e-05
0.000144929
3.41774e-05
0.000128373
3.30887e-05
0.000112503
3.17138e-05
9.74459e-05
3.00884e-05
8.32786e-05
2.83244e-05
7.00823e-05
2.63756e-05
5.79112e-05
2.43255e-05
4.68143e-05
2.215e-05
3.68391e-05
1.99689e-05
2.79245e-05
1.78373e-05
2.00059e-05
1.57755e-05
1.31555e-05
1.37348e-05
7.23011e-06
1.18384e-05
2.1712e-06
1.0077e-05
-2.06182e-06
8.5151e-06
-5.56852e-06
7.00931e-06
-8.39493e-06
5.64641e-06
-1.06047e-05
4.42325e-06
-1.2204e-05
3.19489e-06
-1.33161e-05
2.20028e-06
-1.38621e-05
1.13996e-06
-1.39545e-05
1.7387e-07
-1.35208e-05
-8.77469e-07
-1.25614e-05
-1.88499e-06
-1.11501e-05
-2.87734e-06
-9.2334e-06
-3.81041e-06
-6.90748e-06
-4.62445e-06
-4.15087e-06
-5.50922e-06
-1.02187e-06
-6.22454e-06
2.41974e-06
-6.87427e-06
6.25147e-06
-7.662e-06
1.04431e-05
-8.38545e-06
1.50675e-05
-9.24956e-06
2.01549e-05
-1.01723e-05
2.57374e-05
-1.11633e-05
3.19254e-05
-1.23736e-05
3.86969e-05
-1.35391e-05
4.61736e-05
-1.49523e-05
5.43895e-05
-1.64343e-05
6.33366e-05
-1.79014e-05
7.30913e-05
-1.95105e-05
8.3611e-05
-2.10258e-05
9.48755e-05
-2.25225e-05
0.000106889
-2.40328e-05
0.000119665
-2.55474e-05
0.000133174
-2.7018e-05
0.00014747
-2.85872e-05
0.000162514
-3.00808e-05
0.000178299
-3.15745e-05
0.000194753
-3.29099e-05
0.000211795
-3.40779e-05
0.000229317
-3.50186e-05
0.000247175
-3.57147e-05
0.000265198
-3.60457e-05
0.000283172
-3.59335e-05
0.000300816
-3.5284e-05
0.000317821
-3.39823e-05
0.000333856
-3.20472e-05
0.000348589
-2.94546e-05
0.000361679
-2.61628e-05
0.00037282
-2.22739e-05
0.000381746
-1.78571e-05
0.000388275
-1.30418e-05
0.000392226
-7.89151e-06
0.00039353
-2.61379e-06
0.000392205
2.63114e-06
0.00038813
8.14928e-06
0.000381461
1.33388e-05
0.000372423
1.80615e-05
0.000361197
2.24369e-05
0.000348002
2.63787e-05
0.000333132
2.97251e-05
0.000316858
3.25368e-05
0.000299444
3.48169e-05
0.00028122
3.6425e-05
0.000262418
3.75896e-05
0.000243343
3.81473e-05
0.000224227
3.82248e-05
0.000205323
3.77937e-05
0.000186902
3.68272e-05
0.000169177
3.54434e-05
0.000152347
3.36496e-05
0.000136623
3.14391e-05
0.000122121
2.89984e-05
0.000108886
2.64725e-05
9.69105e-05
2.3951e-05
8.61065e-05
2.16094e-05
7.63676e-05
1.94951e-05
6.75585e-05
1.76127e-05
5.95931e-05
1.59274e-05
5.23868e-05
1.44233e-05
4.58469e-05
1.30835e-05
3.99324e-05
1.18304e-05
3.45953e-05
1.0676e-05
2.98353e-05
9.5264e-06
2.56345e-05
8.40728e-06
2.2014e-05
7.23935e-06
1.90272e-05
5.96864e-06
1.67115e-05
4.62861e-06
1.51055e-05
3.21189e-06
1.4236e-05
1.74262e-06
1.40177e-05
4.45296e-07
1.44264e-05
-8.07817e-07
1.5313e-05
-1.77715e-06
1.65871e-05
-2.54283e-06
1.81071e-05
-3.03315e-06
1.97672e-05
-3.30981e-06
2.16027e-05
-3.67107e-06
2.35168e-05
-3.82074e-06
2.55049e-05
-3.96959e-06
2.76292e-05
-4.24155e-06
2.99302e-05
-4.59723e-06
3.2521e-05
-5.18465e-06
3.54372e-05
-5.8302e-06
3.88036e-05
-6.73251e-06
4.27503e-05
-7.8942e-06
4.73738e-05
-9.24791e-06
5.2817e-05
-1.08916e-05
5.92708e-05
-1.2911e-05
6.67898e-05
-1.5042e-05
7.58106e-05
-1.80469e-05
8.61608e-05
-2.07052e-05
9.76955e-05
-2.30757e-05
0.000110405
-2.54278e-05
0.000124252
-2.77003e-05
0.000138977
-2.94518e-05
0.000154619
-3.12909e-05
0.000170949
-3.26599e-05
0.000187846
-3.37934e-05
0.000205221
-3.47458e-05
0.000222775
-3.51011e-05
0.000240432
-3.53083e-05
0.000258079
-3.52839e-05
0.00027543
-3.46923e-05
0.000292421
-3.3979e-05
0.000308876
-3.29075e-05
0.000324586
-3.14229e-05
0.000339495
-2.98318e-05
0.000353314
-2.76614e-05
0.000365973
-2.53182e-05
0.000377178
-2.24013e-05
0.00038674
-1.91398e-05
0.000394569
-1.56476e-05
0.000400346
-1.15766e-05
0.000404
-7.32068e-06
0.000405354
-2.62497e-06
0.000404469
1.82149e-06
0.000401696
5.58866e-06
0.000397069
9.2841e-06
0.000390675
1.279e-05
0.000382512
1.63208e-05
0.000372545
1.9926e-05
0.000361188
2.27067e-05
0.000348585
2.51992e-05
0.000334786
2.75887e-05
0.000320258
2.90469e-05
0.000305055
3.03985e-05
0.000289544
3.10136e-05
0.000273835
3.14119e-05
0.000258009
3.16432e-05
0.000242408
3.11958e-05
0.000227112
3.05878e-05
0.000212195
2.98281e-05
0.000197889
2.86072e-05
0.000184214
2.73477e-05
0.000171304
2.58178e-05
0.000159162
2.42822e-05
0.000147798
2.27262e-05
0.000137272
2.10515e-05
0.000127542
1.94597e-05
0.000118576
1.79329e-05
0.000110364
1.64244e-05
0.000102839
1.50511e-05
9.59423e-05
1.37918e-05
8.96383e-05
1.26078e-05
8.38573e-05
1.156e-05
7.85615e-05
1.05864e-05
7.37034e-05
9.71671e-06
6.92471e-05
8.91372e-06
6.51795e-05
8.13804e-06
6.14778e-05
7.4076e-06
5.81423e-05
6.67241e-06
5.51782e-05
5.92947e-06
5.25937e-05
5.16886e-06
5.04124e-05
4.36432e-06
4.865e-05
3.52652e-06
4.73281e-05
2.64323e-06
4.64717e-05
1.71263e-06
4.61055e-05
7.31912e-07
4.62975e-05
-3.85191e-07
4.7064e-05
-1.53369e-06
4.84072e-05
-2.68692e-06
5.0349e-05
-3.88369e-06
5.28885e-05
-5.07964e-06
5.60132e-05
-6.25014e-06
5.97813e-05
-7.53586e-06
6.41691e-05
-8.7749e-06
-9.94928e-06
0.000118177
3.92348e-05
0.000106134
3.61273e-05
9.50791e-05
3.31632e-05
8.50138e-05
3.01972e-05
7.59857e-05
2.70878e-05
6.79369e-05
2.41517e-05
6.0871e-05
2.12049e-05
5.4727e-05
1.8441e-05
4.94596e-05
1.58133e-05
4.50266e-05
1.33116e-05
4.13581e-05
1.10186e-05
3.83921e-05
8.91228e-06
3.60616e-05
7.00547e-06
3.43068e-05
5.27752e-06
3.30578e-05
3.75844e-06
3.22653e-05
2.38893e-06
3.18667e-05
1.20492e-06
3.18504e-05
6.11443e-08
3.21802e-05
-9.77892e-07
3.27428e-05
-1.68856e-06
3.36404e-05
-2.69757e-06
3.48576e-05
-3.65276e-06
3.62818e-05
-4.283e-06
3.80648e-05
-5.36482e-06
4.01691e-05
-6.32039e-06
4.26866e-05
-7.56663e-06
4.56647e-05
-8.94603e-06
4.89884e-05
-9.98486e-06
5.28353e-05
-1.15554e-05
5.73099e-05
-1.34277e-05
6.22007e-05
-1.46936e-05
6.77892e-05
-1.67789e-05
7.39575e-05
-1.85181e-05
8.08276e-05
-2.06141e-05
8.85239e-05
-2.30797e-05
9.67142e-05
-2.45855e-05
0.000105659
-2.68357e-05
0.000115516
-2.95602e-05
0.00012589
-3.11438e-05
0.000137088
-3.35955e-05
0.00014896
-3.56171e-05
0.000161603
-3.79261e-05
0.000175146
-4.06118e-05
0.000189164
-4.20449e-05
0.00020374
-4.37125e-05
0.000219023
-4.58083e-05
0.000234575
-4.66425e-05
0.000250351
-4.73051e-05
0.000266434
-4.81874e-05
0.00028233
-4.7656e-05
0.000297994
-4.69457e-05
0.000313204
-4.55923e-05
0.000327725
-4.35223e-05
0.000341452
-4.11151e-05
0.00035402
-3.76433e-05
0.000365182
-3.34386e-05
0.000374923
-2.91576e-05
0.000382832
-2.36826e-05
0.000388926
-1.82253e-05
0.000392958
-1.20661e-05
0.000394988
-6.04729e-06
0.00039506
-2.49625e-07
0.00039301
6.07024e-06
0.000388858
1.24524e-05
0.000382852
1.80083e-05
0.000374896
2.38378e-05
0.000365231
2.89524e-05
0.000354045
3.35076e-05
0.000341543
3.74499e-05
0.00032792
4.07915e-05
0.000313255
4.39386e-05
0.000297485
4.73291e-05
0.000280493
5.10272e-05
0.000262324
5.45536e-05
0.000243264
5.72279e-05
0.000223621
5.89707e-05
0.0002037
5.98079e-05
0.000183896
5.94726e-05
0.000164688
5.76867e-05
0.000146245
5.53932e-05
0.000128878
5.21651e-05
0.0001128
4.83004e-05
9.80392e-05
4.4349e-05
8.46013e-05
4.03811e-05
7.24742e-05
3.64496e-05
6.15551e-05
3.2826e-05
5.17434e-05
2.95e-05
4.28595e-05
2.66883e-05
3.48226e-05
2.41509e-05
2.74869e-05
2.20571e-05
2.07698e-05
2.01612e-05
1.45853e-05
1.86027e-05
8.87106e-06
1.7099e-05
3.63823e-06
1.57472e-05
-1.15738e-06
1.43207e-05
-5.68518e-06
1.35471e-05
-9.81514e-06
1.24603e-05
-1.35422e-05
1.11257e-05
-1.68142e-05
9.85495e-06
-1.96641e-05
8.50639e-06
-2.20065e-05
7.0546e-06
-2.38687e-05
5.64626e-06
-2.52475e-05
4.13569e-06
-2.6164e-05
2.70465e-06
-2.65606e-05
1.20005e-06
-2.64428e-05
-3.08418e-07
-2.58665e-05
-1.83328e-06
-2.47218e-05
-3.41379e-06
-2.30449e-05
-5.04122e-06
-2.08064e-05
-6.71479e-06
-1.79487e-05
-8.4755e-06
-1.46148e-05
-1.02762e-05
-1.05665e-05
-1.20257e-05
-5.88049e-06
-1.41423e-05
-5.30857e-07
-1.60236e-05
5.52589e-06
-1.82011e-05
1.23635e-05
-2.04764e-05
1.99584e-05
-2.27893e-05
2.83881e-05
-2.53192e-05
3.76691e-05
-2.78322e-05
4.78433e-05
-3.0506e-05
5.88689e-05
-3.31638e-05
7.0834e-05
-3.59064e-05
8.37015e-05
-3.85826e-05
9.74296e-05
-4.11999e-05
0.000111982
-4.36287e-05
0.000127305
-4.59144e-05
0.000143238
-4.78109e-05
0.000159698
-4.93947e-05
0.000176519
-5.04323e-05
0.000193545
-5.09682e-05
0.000210526
-5.09801e-05
0.000227331
-5.03655e-05
0.000243764
-4.9238e-05
0.00025966
-4.76183e-05
0.000274796
-4.53729e-05
0.000288984
-4.25213e-05
0.000302061
-3.91488e-05
0.000313734
-3.51152e-05
0.000323878
-3.03117e-05
0.000332222
-2.49915e-05
0.000338587
-1.90706e-05
0.0003428
-1.26035e-05
0.000344741
-5.84335e-06
0.000344341
1.0799e-06
0.000341543
8.2924e-06
0.000336435
1.53167e-05
0.000329107
2.18756e-05
0.000319818
2.79091e-05
0.000308561
3.35549e-05
0.000295716
3.83996e-05
0.000281466
4.26254e-05
0.000266019
4.61885e-05
0.00024965
4.89967e-05
0.000232591
5.10578e-05
0.000215055
5.2462e-05
0.000197264
5.32355e-05
0.00017951
5.31387e-05
0.000161975
5.25128e-05
0.000144815
5.13382e-05
0.000128232
4.96709e-05
0.000112306
4.76401e-05
9.72127e-05
4.51817e-05
8.30252e-05
4.25118e-05
6.97747e-05
3.96261e-05
5.75772e-05
3.65229e-05
4.64703e-05
3.32567e-05
3.64303e-05
3.00088e-05
2.7482e-05
2.67856e-05
1.9606e-05
2.36514e-05
1.27042e-05
2.06365e-05
6.77627e-06
1.77663e-05
1.77152e-06
1.50817e-05
-2.50803e-06
1.27946e-05
-5.99866e-06
1.04999e-05
-8.8214e-06
8.4691e-06
-1.10196e-05
6.6214e-06
-1.2604e-05
4.77924e-06
-1.36964e-05
3.29264e-06
-1.42794e-05
1.72295e-06
-1.43423e-05
2.36715e-07
-1.39126e-05
-1.30718e-06
-1.29726e-05
-2.82499e-06
-1.15287e-05
-4.32129e-06
-9.61154e-06
-5.7276e-06
-7.21593e-06
-7.02008e-06
-4.45769e-06
-8.26746e-06
-1.36535e-06
-9.31689e-06
2.09964e-06
-1.03393e-05
5.95229e-06
-1.15147e-05
1.01585e-05
-1.25917e-05
1.47805e-05
-1.38716e-05
1.98595e-05
-1.52513e-05
2.544e-05
-1.67438e-05
3.16248e-05
-1.85584e-05
3.83993e-05
-2.03136e-05
4.58724e-05
-2.24254e-05
5.40844e-05
-2.46464e-05
6.30379e-05
-2.68548e-05
7.27963e-05
-2.92689e-05
8.33184e-05
-3.15479e-05
9.45947e-05
-3.37989e-05
0.000106613
-3.60516e-05
0.000119389
-3.83228e-05
0.000132903
-4.05326e-05
0.000147199
-4.28833e-05
0.000162254
-4.5135e-05
0.000178052
-4.7373e-05
0.000194506
-4.93636e-05
0.000211556
-5.11286e-05
0.000229084
-5.25465e-05
0.000246969
-5.35993e-05
0.00026501
-5.40873e-05
0.000282996
-5.39201e-05
0.000300658
-5.29455e-05
0.000317685
-5.10094e-05
0.000333751
-4.81138e-05
0.000348514
-4.42175e-05
0.000361632
-3.92816e-05
0.000372808
-3.34497e-05
0.000381763
-2.68119e-05
0.000388289
-1.95689e-05
0.000392247
-1.18492e-05
0.000393553
-3.92045e-06
0.000392163
4.02135e-06
0.000388077
1.22344e-05
0.000381418
1.99981e-05
0.00037237
2.71096e-05
0.000361121
3.36854e-05
0.000347904
3.95958e-05
0.000333007
4.46213e-05
0.000316709
4.88348e-05
0.000299282
5.22438e-05
0.000281042
5.46644e-05
0.000262206
5.64263e-05
0.000243103
5.72496e-05
0.000223973
5.73554e-05
0.000205062
5.67043e-05
0.000186625
5.52643e-05
0.000168874
5.31937e-05
0.000152033
5.04912e-05
0.000136304
4.71676e-05
0.000121797
4.35054e-05
0.000108567
3.97027e-05
9.66034e-05
3.59147e-05
8.58017e-05
3.24111e-05
7.60687e-05
2.92281e-05
6.72778e-05
2.64035e-05
5.93238e-05
2.38814e-05
5.21198e-05
2.16273e-05
4.55834e-05
1.96198e-05
3.96747e-05
1.77391e-05
3.43383e-05
1.60124e-05
2.95706e-05
1.42942e-05
2.53677e-05
1.26101e-05
2.17507e-05
1.08563e-05
1.87662e-05
8.95319e-06
1.6453e-05
6.94178e-06
1.48455e-05
4.81945e-06
1.39709e-05
2.61719e-06
1.37596e-05
6.5663e-07
1.41744e-05
-1.22264e-06
1.5067e-05
-2.66969e-06
1.63471e-05
-3.82301e-06
1.78756e-05
-4.56157e-06
1.95596e-05
-4.99381e-06
2.13982e-05
-5.50972e-06
2.33162e-05
-5.73874e-06
2.53183e-05
-5.97167e-06
2.74587e-05
-6.38194e-06
2.97797e-05
-6.91825e-06
3.23809e-05
-7.78586e-06
3.53046e-05
-8.75396e-06
3.8679e-05
-1.0107e-05
4.26299e-05
-1.18452e-05
4.72623e-05
-1.38803e-05
5.27141e-05
-1.63436e-05
5.91675e-05
-1.93646e-05
6.66829e-05
-2.25576e-05
7.57026e-05
-2.70669e-05
8.60505e-05
-3.10534e-05
9.75767e-05
-3.46023e-05
0.000110277
-3.81285e-05
0.000124117
-4.15404e-05
0.000138832
-4.41672e-05
0.00015447
-4.69294e-05
0.000170798
-4.89886e-05
0.000187696
-5.06918e-05
0.00020508
-5.21303e-05
0.000222644
-5.26654e-05
0.000240311
-5.2976e-05
0.000257974
-5.29471e-05
0.000275338
-5.20568e-05
0.000292339
-5.09801e-05
0.000308793
-4.93625e-05
0.000324489
-4.71184e-05
0.000339356
-4.46998e-05
0.000353113
-4.14184e-05
0.000365687
-3.78924e-05
0.000376818
-3.35324e-05
0.000386319
-2.86414e-05
0.000394102
-2.34301e-05
0.000399866
-1.7341e-05
0.000403495
-1.09502e-05
0.000404956
-4.08585e-06
0.000404338
2.43933e-06
0.000401787
8.13889e-06
0.000397214
1.38568e-05
0.000390817
1.9187e-05
0.000382643
2.44949e-05
0.000372662
2.99073e-05
0.000361288
3.40801e-05
0.000348667
3.78197e-05
0.000334851
4.14047e-05
0.000320307
4.35914e-05
0.000305087
4.56183e-05
0.00028956
4.65399e-05
0.000273836
4.71361e-05
0.000257997
4.74818e-05
0.000242384
4.68091e-05
0.000227076
4.58952e-05
0.000212151
4.47538e-05
0.000197837
4.29203e-05
0.000184156
4.10289e-05
0.000171242
3.87319e-05
0.000159098
3.64265e-05
0.000147733
3.40904e-05
0.000137208
3.15768e-05
0.00012748
2.91876e-05
0.000118517
2.68961e-05
0.000110309
2.46327e-05
0.000102787
2.25722e-05
9.58958e-05
2.06835e-05
8.9595e-05
1.89086e-05
8.38169e-05
1.73382e-05
7.85255e-05
1.58777e-05
7.36693e-05
1.45728e-05
6.92132e-05
1.33699e-05
6.51449e-05
1.22063e-05
6.14442e-05
1.11083e-05
5.81079e-05
1.00087e-05
5.51425e-05
8.89492e-06
5.25586e-05
7.75275e-06
5.0376e-05
6.54691e-06
4.8611e-05
5.29151e-06
4.72878e-05
3.96641e-06
4.64304e-05
2.57002e-06
4.60616e-05
1.10072e-06
4.62522e-05
-5.75861e-07
4.70174e-05
-2.29882e-06
4.83588e-05
-4.02841e-06
5.02995e-05
-5.82431e-06
5.28386e-05
-7.61883e-06
5.59631e-05
-9.37461e-06
5.97309e-05
-1.13036e-05
6.41183e-05
-1.31623e-05
-1.49246e-05
0.00011806
5.23184e-05
0.000106015
4.81724e-05
9.49598e-05
4.42184e-05
8.48952e-05
4.02618e-05
7.5869e-05
3.61139e-05
6.78235e-05
3.21972e-05
6.0762e-05
2.82664e-05
5.46235e-05
2.45795e-05
4.93628e-05
2.1074e-05
4.49374e-05
1.7737e-05
4.12769e-05
1.46791e-05
3.83199e-05
1.18692e-05
3.59988e-05
9.32657e-06
3.42539e-05
7.02246e-06
3.30151e-05
4.99721e-06
3.22315e-05
3.17253e-06
3.18386e-05
1.59787e-06
3.18291e-05
7.05592e-08
3.21627e-05
-1.31146e-06
3.27259e-05
-2.25178e-06
3.36246e-05
-3.59627e-06
3.48388e-05
-4.86695e-06
3.62563e-05
-5.70052e-06
3.80341e-05
-7.14263e-06
4.01284e-05
-8.41464e-06
4.26406e-05
-1.00789e-05
4.56132e-05
-1.19186e-05
4.89266e-05
-1.32983e-05
5.27666e-05
-1.53955e-05
5.72371e-05
-1.78982e-05
6.21174e-05
-1.9574e-05
6.76994e-05
-2.23608e-05
7.38593e-05
-2.46781e-05
8.07236e-05
-2.74784e-05
8.84225e-05
-3.07786e-05
9.66046e-05
-3.27677e-05
0.000105544
-3.57748e-05
0.000115408
-3.94246e-05
0.000125774
-4.15103e-05
0.000136969
-4.47902e-05
0.000148835
-4.74831e-05
0.000161476
-5.05676e-05
0.000175037
-5.41725e-05
0.000189059
-5.60672e-05
0.000203637
-5.82901e-05
0.000218945
-6.11162e-05
0.000234508
-6.22064e-05
0.000250295
-6.30917e-05
0.000266409
-6.43018e-05
0.000282324
-6.35709e-05
0.00029801
-6.26316e-05
0.000313245
-6.08275e-05
0.000327792
-5.80692e-05
0.000341555
-5.48788e-05
0.000354158
-5.02466e-05
0.000365347
-4.4627e-05
0.00037513
-3.89412e-05
0.00038307
-3.16229e-05
0.000389195
-2.435e-05
0.000393251
-1.61217e-05
0.000395288
-8.08461e-06
0.000395329
-2.90684e-07
0.000393245
8.15397e-06
0.000389092
1.6605e-05
0.000383076
2.40243e-05
0.000375104
3.18091e-05
0.000365416
3.86404e-05
0.000354203
4.47207e-05
0.000341672
4.99813e-05
0.000328007
5.44561e-05
0.000313305
5.86403e-05
0.000297545
6.30896e-05
0.000280584
6.79882e-05
0.000262444
7.26931e-05
0.000243411
7.6261e-05
0.000223802
7.85801e-05
0.000203913
7.96968e-05
0.000184134
7.92508e-05
0.00016496
7.68607e-05
0.000146554
7.38e-05
0.000129223
6.94959e-05
0.000113188
6.43351e-05
9.84736e-05
5.90636e-05
8.50781e-05
5.37767e-05
7.29913e-05
4.85364e-05
6.21101e-05
4.37072e-05
5.23313e-05
3.92788e-05
4.34712e-05
3.55484e-05
3.54635e-05
3.21586e-05
2.81334e-05
2.93871e-05
2.14408e-05
2.68537e-05
1.52445e-05
2.4799e-05
9.56476e-06
2.27787e-05
4.32867e-06
2.09833e-05
-5.10725e-07
1.91601e-05
-5.0094e-06
1.80457e-05
-9.13935e-06
1.65902e-05
-1.28615e-05
1.48479e-05
-1.61535e-05
1.3147e-05
-1.89617e-05
1.13145e-05
-2.13244e-05
9.41733e-06
-2.3199e-05
7.52081e-06
-2.45712e-05
5.50789e-06
-2.5479e-05
3.61238e-06
-2.58887e-05
1.60972e-06
-2.57979e-05
-3.99204e-07
-2.5174e-05
-2.45722e-06
-2.40376e-05
-4.55016e-06
-2.23737e-05
-6.70517e-06
-2.01532e-05
-8.93529e-06
-1.73783e-05
-1.12505e-05
-1.39526e-05
-1.37019e-05
-9.89782e-06
-1.60806e-05
-5.27602e-06
-1.87641e-05
9.73909e-08
-2.1397e-05
6.14089e-06
-2.42446e-05
1.29579e-05
-2.72935e-05
2.05607e-05
-3.03921e-05
2.89494e-05
-3.37079e-05
3.82351e-05
-3.7118e-05
4.83663e-05
-4.06372e-05
5.94172e-05
-4.42148e-05
7.13753e-05
-4.78645e-05
8.42272e-05
-5.14346e-05
9.79553e-05
-5.49281e-05