/*--------------------------------*- C++ -*----------------------------------*\
| =========                 |                                                 |
| \\      /  F ield         | OpenFOAM: The Open Source CFD Toolbox           |
|  \\    /   O peration     | Version:  3.0.1                                 |
|   \\  /    A nd           | Web:      www.OpenFOAM.org                      |
|    \\/     M anipulation  |                                                 |
\*---------------------------------------------------------------------------*/
FoamFile
{
    version     2.0;
    format      ascii;
    class       volScalarField;
    location    "80";
    object      p;
}
// * * * * * * * * * * * * * * * * * * * * * * * * * * * * * * * * * * * * * //

dimensions      [1 -1 -2 0 0 0 0];

internalField   nonuniform List<scalar> 
21420
(
3762.18
3736.35
3711.85
3688.67
3666.84
3646.39
3627.36
3609.74
3593.55
3578.77
3565.38
3553.34
3542.62
3533.17
3524.94
3517.89
3511.96
3507.12
3503.47
3500.87
3499.27
3498.68
3499.11
3500.57
3503.07
3506.65
3511.35
3517.21
3524.27
3532.6
3542.27
3553.32
3565.81
3579.82
3595.39
3612.61
3631.5
3652.08
3674.38
3698.39
3724.06
3751.33
3780.11
3810.25
3841.6
3873.93
3906.95
3940.39
3973.9
4007.08
4039.55
4070.9
4100.72
4128.61
4154.16
4177.02
4196.89
4213.45
4226.49
4235.81
4241.28
4242.75
4240.76
4234.81
4225.01
4211.32
4193.97
4173.17
4149.2
4122.4
4093.15
4061.93
4029.14
3995.09
3960.1
3924.44
3888.45
3852.41
3816.65
3781.5
3747.25
3714.23
3682.72
3652.94
3625.11
3599.34
3575.7
3554.2
3534.8
3517.43
3501.98
3488.36
3476.46
3466.19
3457.5
3450.12
3444.42
3440.23
3437.5
3436.21
3436.33
3437.82
3440.62
3444.67
3449.93
3456.35
3463.88
3472.49
3482.15
3492.86
3504.6
3517.39
3531.23
3546.11
3562.03
3579.19
3597.25
3616.36
3636.52
3657.72
3679.94
3703.16
3727.34
3752.43
3778.37
3805.04
3832.34
3860.08
3888.1
3916.15
3944.01
3971.4
3998.05
4023.67
4047.95
4070.6
4091.29
4109.73
4125.61
4138.66
4148.59
4155.2
4158.28
4157.73
4153.34
4145.3
4133.55
4118.27
4099.56
4077.73
4053.06
4025.91
3996.65
3965.71
3933.51
3900.5
3867.09
3833.73
3800.82
3768.72
3737.76
3708.22
3680.32
3654.22
3630.06
3607.9
3587.78
3569.69
3553.58
3539.4
3527.07
3516.5
3507.58
3500.24
3494.32
3489.73
3486.36
3484.12
3482.9
3482.6
3483.13
3484.4
3486.31
3488.78
3491.74
3495.14
3498.94
3503.1
3507.63
3512.55
3517.86
3523.61
3529.88
3536.77
3544.39
3552.83
3562.22
3572.66
3584.26
3597.13
3611.35
3626.99
3644.12
3662.77
3682.97
3704.71
3727.95
3752.6
3778.55
3805.63
3833.63
3862.29
3891.32
3920.37
3949.06
3976.97
4003.7
4028.8
4051.85
4072.43
4090.16
4104.7
4115.74
4123.04
4126.28
4125.71
4121.12
4112.53
4100.2
4084.37
4065.36
4043.54
4019.32
3993.12
3965.39
3936.54
3906.99
3877.15
3847.37
3818
3789.35
3761.66
3735.16
3710.01
3686.31
3664.11
3643.42
3624.19
3606.37
3589.87
3574.6
3560.47
3547.38
3535.25
3523.99
3513.53
3503.81
3494.79
3486.43
3478.72
3471.65
3465.21
3459.41
3454.27
3449.82
3446.11
3443.25
3441.31
3440.36
3440.52
3441.88
3444.59
3448.77
3454.56
3462.08
3471.45
3482.77
3496.17
3511.65
3529.41
3549.37
3571.65
3596.21
3623.06
3652.09
3683.26
3716.35
3751.2
3787.55
3825.1
3863.52
3902.42
3941.39
3979.99
4017.73
4054.16
4088.79
4121.16
4150.86
4177.49
4200.7
4220.22
4235.78
4247.2
4254.28
4257.28
4257.14
4252.89
4244.57
4232.75
4217.62
4199.46
4178.57
4155.27
4129.95
4102.95
4074.64
4045.36
4015.46
3985.31
3955.2
3925.42
3896.27
3867.95
3840.67
3814.57
3789.78
3766.38
3744.42
3723.91
3704.85
3687.18
3670.85
3655.79
3641.91
3629.14
3617.4
3606.61
3596.73
3587.71
3579.53
3572.17
3565.63
3559.92
3555.07
3551.11
3548.07
3546.02
3544.99
3545.14
3546.47
3548.99
3552.71
3557.65
3563.82
3571.21
3579.83
3664.02
3638.19
3613.69
3590.5
3568.68
3548.23
3529.2
3511.59
3495.39
3480.62
3467.23
3455.19
3444.47
3435.02
3426.8
3419.75
3413.82
3408.97
3405.33
3402.73
3401.13
3400.54
3400.97
3402.42
3404.93
3408.51
3413.2
3419.06
3426.12
3434.45
3444.11
3455.16
3467.65
3481.65
3497.22
3514.44
3533.33
3553.9
3576.21
3600.22
3625.88
3653.16
3681.94
3712.09
3743.44
3775.78
3808.82
3842.27
3875.8
3908.98
3941.47
3972.84
4002.68
4030.59
4056.16
4079.03
4098.91
4115.49
4128.53
4137.86
4143.33
4144.8
4142.81
4136.86
4127.06
4113.36
4096
4075.18
4051.2
4024.38
3995.12
3963.87
3931.07
3897.01
3862
3826.33
3790.33
3754.28
3718.51
3683.35
3649.11
3616.07
3584.56
3554.78
3526.94
3501.17
3477.53
3456.03
3436.63
3419.26
3403.81
3390.19
3378.3
3368.03
3359.33
3351.96
3346.26
3342.07
3339.34
3338.06
3338.18
3339.66
3342.46
3346.52
3351.79
3358.21
3365.74
3374.34
3384.01
3394.71
3406.46
3419.25
3433.08
3447.96
3463.88
3481.05
3499.1
3518.21
3538.37
3559.57
3581.79
3605.01
3629.19
3654.28
3680.22
3706.9
3734.2
3761.95
3789.97
3818.04
3845.9
3873.31
3899.97
3925.6
3949.89
3972.55
3993.26
4011.72
4027.61
4040.67
4050.62
4057.23
4060.32
4059.77
4055.4
4047.34
4035.59
4020.29
4001.58
3979.73
3955.04
3927.87
3898.6
3867.64
3835.42
3802.38
3768.96
3735.58
3702.66
3670.55
3639.58
3610.03
3582.12
3556.03
3531.87
3509.71
3489.59
3471.5
3455.4
3441.22
3428.89
3418.32
3409.41
3402.08
3396.16
3391.57
3388.21
3385.97
3384.75
3384.46
3385
3386.27
3388.18
3390.65
3393.62
3397.02
3400.82
3404.98
3409.5
3414.43
3419.73
3425.48
3431.75
3438.64
3446.25
3454.68
3464.06
3474.5
3486.1
3498.97
3513.18
3528.82
3545.94
3564.59
3584.79
3606.53
3629.77
3654.43
3680.38
3707.47
3735.47
3764.15
3793.19
3822.25
3850.96
3878.89
3905.64
3930.76
3953.82
3974.43
3992.18
4006.73
4017.78
4025.09
4028.35
4027.75
4023.16
4014.57
4002.22
3986.38
3967.35
3945.51
3921.27
3895.05
3867.3
3838.43
3808.87
3779.01
3749.22
3719.84
3691.18
3663.49
3636.99
3611.83
3588.13
3565.94
3545.25
3526.02
3508.21
3491.71
3476.45
3462.32
3449.24
3437.11
3425.85
3415.4
3405.68
3396.66
3388.3
3380.59
3373.52
3367.08
3361.28
3356.14
3351.68
3347.97
3345.1
3343.17
3342.21
3342.37
3343.73
3346.43
3350.61
3356.4
3363.92
3373.29
3384.61
3398.01
3413.49
3431.25
3451.21
3473.49
3498.05
3524.9
3553.94
3585.11
3618.21
3653.06
3689.43
3726.98
3765.41
3804.33
3843.31
3881.92
3919.68
3956.12
3990.77
4023.16
4052.88
4079.52
4102.74
4122.27
4137.84
4149.26
4156.36
4159.36
4159.18
4154.92
4146.61
4134.78
4119.63
4101.46
4080.55
4057.23
4031.9
4004.88
3976.56
3947.27
3917.35
3887.19
3857.07
3827.28
3798.12
3769.79
3742.51
3716.41
3691.61
3668.22
3646.26
3625.75
3606.69
3589.03
3572.7
3557.64
3543.77
3531
3519.26
3508.47
3498.59
3489.58
3481.4
3474.04
3467.5
3461.79
3456.94
3452.97
3449.94
3447.88
3446.85
3447
3448.33
3450.84
3454.56
3459.5
3465.67
3473.06
3481.68
3565.81
3539.98
3515.47
3492.28
3470.46
3450.01
3430.98
3413.37
3397.18
3382.41
3369.02
3356.99
3346.27
3336.82
3328.6
3321.56
3315.63
3310.79
3307.15
3304.55
3302.95
3302.36
3302.79
3304.24
3306.74
3310.32
3315.01
3320.86
3327.92
3336.24
3345.9
3356.94
3369.42
3383.42
3398.99
3416.2
3435.08
3455.66
3477.96
3501.97
3527.64
3554.91
3583.7
3613.86
3645.23
3677.59
3710.65
3744.13
3777.68
3810.9
3843.42
3874.83
3904.7
3932.64
3958.24
3981.15
4001.05
4017.66
4030.72
4040.06
4045.54
4047.02
4045.01
4039.07
4029.25
4015.54
3998.16
3977.31
3953.3
3926.45
3897.15
3865.87
3833.03
3798.94
3763.9
3728.21
3692.19
3656.12
3620.34
3585.17
3550.91
3517.86
3486.34
3456.55
3428.71
3402.93
3379.29
3357.79
3338.39
3321.02
3305.58
3291.96
3280.07
3269.8
3261.11
3253.74
3248.04
3243.85
3241.13
3239.84
3239.97
3241.46
3244.26
3248.33
3253.59
3260.02
3267.55
3276.16
3285.82
3296.53
3308.28
3321.06
3334.9
3349.78
3365.69
3382.86
3400.91
3420.02
3440.18
3461.38
3483.6
3506.81
3531
3556.09
3582.03
3608.72
3636.02
3663.79
3691.82
3719.91
3747.79
3775.22
3801.9
3827.56
3851.88
3874.57
3895.31
3913.79
3929.71
3942.79
3952.76
3959.4
3962.5
3961.96
3957.61
3949.51
3937.76
3922.44
3903.71
3881.83
3857.11
3829.9
3800.59
3769.59
3737.33
3704.26
3670.8
3637.4
3604.44
3572.31
3541.32
3511.75
3483.84
3457.74
3433.57
3411.42
3391.3
3373.22
3357.13
3342.96
3330.64
3320.08
3311.18
3303.86
3297.95
3293.37
3290.01
3287.78
3286.58
3286.29
3286.83
3288.11
3290.03
3292.51
3295.48
3298.89
3302.68
3306.84
3311.37
3316.29
3321.59
3327.33
3333.59
3340.47
3348.07
3356.49
3365.87
3376.29
3387.89
3400.74
3414.95
3430.57
3447.69
3466.34
3486.53
3508.27
3531.52
3556.18
3582.15
3609.24
3637.27
3665.97
3695.03
3724.12
3752.86
3780.83
3807.62
3832.78
3855.88
3876.52
3894.31
3908.89
3919.96
3927.29
3930.58
3929.94
3925.35
3916.74
3904.37
3888.49
3869.43
3847.55
3823.27
3797.02
3769.23
3740.32
3710.73
3680.84
3651.03
3621.63
3592.95
3565.25
3538.74
3513.58
3489.89
3467.7
3447.01
3427.8
3409.99
3393.5
3378.25
3364.13
3351.05
3338.93
3327.68
3317.23
3307.52
3298.5
3290.15
3282.44
3275.36
3268.92
3263.12
3257.97
3253.51
3249.79
3246.92
3244.98
3244.02
3244.16
3245.52
3248.22
3252.4
3258.18
3265.7
3275.07
3286.39
3299.78
3315.27
3333.03
3352.99
3375.27
3399.83
3426.69
3455.73
3486.92
3520.02
3554.89
3591.27
3628.84
3667.29
3706.24
3745.24
3783.89
3821.68
3858.15
3892.84
3925.25
3955
3981.67
4004.93
4024.47
4040.06
4051.49
4058.61
4061.61
4061.36
4057.08
4048.78
4036.93
4021.76
4003.55
3982.62
3959.27
3933.9
3906.85
3878.5
3849.18
3819.23
3789.04
3758.9
3729.09
3699.92
3671.58
3644.29
3618.18
3593.38
3569.99
3548.03
3527.53
3508.47
3490.81
3474.49
3459.44
3445.58
3432.82
3421.08
3410.3
3400.43
3391.41
3383.23
3375.87
3369.33
3363.62
3358.77
3354.8
3351.76
3349.7
3348.66
3348.81
3350.14
3352.65
3356.37
3361.31
3367.47
3374.86
3383.48
3467.53
3441.7
3417.18
3394
3372.17
3351.73
3332.7
3315.09
3298.9
3284.14
3270.76
3258.73
3248.02
3238.58
3230.36
3223.32
3217.41
3212.57
3208.93
3206.33
3204.73
3204.14
3204.57
3206.02
3208.51
3212.09
3216.77
3222.62
3229.67
3237.98
3247.63
3258.66
3271.14
3285.13
3300.68
3317.89
3336.76
3357.33
3379.63
3403.64
3429.31
3456.6
3485.4
3515.58
3546.97
3579.35
3612.44
3645.96
3679.56
3712.83
3745.4
3776.85
3806.78
3834.77
3860.42
3883.37
3903.32
3919.96
3933.05
3942.41
3947.89
3949.39
3947.37
3941.43
3931.59
3917.86
3900.44
3879.56
3855.5
3828.6
3799.25
3767.91
3735.01
3700.88
3665.8
3630.08
3594.02
3557.94
3522.14
3486.94
3452.66
3419.6
3388.06
3358.26
3330.4
3304.62
3280.97
3259.48
3240.08
3222.72
3207.28
3193.66
3181.77
3171.51
3162.83
3155.46
3149.76
3145.57
3142.85
3141.57
3141.71
3143.2
3146.01
3150.08
3155.36
3161.79
3169.32
3177.93
3187.6
3198.3
3210.05
3222.84
3236.67
3251.55
3267.46
3284.63
3302.67
3321.78
3341.94
3363.14
3385.35
3408.57
3432.75
3457.85
3483.8
3510.49
3537.81
3565.6
3593.65
3621.76
3649.68
3677.14
3703.85
3729.55
3753.91
3776.64
3797.42
3815.95
3831.91
3845.03
3855.04
3861.7
3864.83
3864.29
3859.96
3851.83
3840.07
3824.72
3805.95
3784.03
3759.26
3732
3702.63
3671.57
3639.26
3606.13
3572.62
3539.17
3506.17
3474
3442.98
3413.4
3385.47
3359.36
3335.19
3313.04
3292.93
3274.85
3258.77
3244.62
3232.32
3221.77
3212.88
3205.59
3199.69
3195.12
3191.77
3189.56
3188.36
3188.09
3188.64
3189.93
3191.86
3194.34
3197.32
3200.73
3204.53
3208.69
3213.21
3218.14
3223.43
3229.16
3235.41
3242.27
3249.86
3258.27
3267.62
3278.04
3289.61
3302.45
3316.65
3332.26
3349.37
3368.01
3388.2
3409.94
3433.19
3457.86
3483.84
3510.96
3539.01
3567.74
3596.85
3625.99
3654.77
3682.8
3709.64
3734.86
3758.03
3778.72
3796.56
3811.18
3822.29
3829.64
3832.97
3832.3
3827.69
3819.06
3806.65
3790.72
3771.6
3749.67
3725.33
3699.02
3671.17
3642.22
3612.58
3582.65
3552.8
3523.37
3494.67
3466.95
3440.43
3415.27
3391.57
3369.38
3348.71
3329.51
3311.71
3295.24
3280
3265.89
3252.83
3240.72
3229.48
3219.03
3209.33
3200.31
3191.96
3184.26
3177.18
3170.74
3164.93
3159.78
3155.32
3151.59
3148.71
3146.75
3145.78
3145.92
3147.26
3149.95
3154.12
3159.9
3167.42
3176.79
3188.11
3201.5
3216.99
3234.75
3254.71
3276.99
3301.56
3328.42
3357.48
3388.67
3421.79
3456.68
3493.08
3530.68
3569.17
3608.15
3647.2
3685.88
3723.72
3760.24
3794.98
3827.45
3857.24
3883.96
3907.25
3926.82
3942.43
3953.88
3961.03
3964.02
3963.7
3959.39
3951.08
3939.21
3924
3905.75
3884.77
3861.37
3835.95
3808.85
3780.45
3751.09
3721.11
3690.88
3660.71
3630.87
3601.67
3573.31
3546.01
3519.89
3495.08
3471.69
3449.73
3429.24
3410.19
3392.54
3376.23
3361.2
3347.34
3334.59
3322.86
3312.09
3302.22
3293.21
3285.03
3277.67
3271.13
3265.42
3260.56
3256.59
3253.54
3251.48
3250.44
3250.58
3251.9
3254.41
3258.13
3263.06
3269.22
3276.61
3285.23
3369.2
3343.36
3318.84
3295.66
3273.83
3253.38
3234.36
3216.75
3200.57
3185.81
3172.44
3160.42
3149.72
3140.28
3132.08
3125.05
3119.14
3114.3
3110.67
3108.07
3106.47
3105.88
3106.3
3107.75
3110.24
3113.81
3118.49
3124.32
3131.37
3139.67
3149.3
3160.32
3172.79
3186.77
3202.31
3219.51
3238.37
3258.94
3281.23
3305.24
3330.92
3358.21
3387.03
3417.23
3448.65
3481.07
3514.2
3547.77
3581.43
3614.76
3647.39
3678.92
3708.92
3736.98
3762.69
3785.7
3805.7
3822.39
3835.52
3844.91
3850.41
3851.91
3849.91
3843.96
3834.08
3820.31
3802.85
3781.92
3757.8
3730.84
3701.42
3670
3637.03
3602.83
3567.71
3531.94
3495.84
3459.72
3423.89
3388.67
3354.37
3321.29
3289.73
3259.91
3232.04
3206.24
3182.59
3161.09
3141.71
3124.34
3108.91
3095.3
3083.42
3073.16
3064.47
3057.13
3051.42
3047.24
3044.52
3043.25
3043.39
3044.89
3047.71
3051.79
3057.08
3063.51
3071.05
3079.67
3089.33
3100.04
3111.78
3124.57
3138.4
3153.28
3169.2
3186.33
3204.39
3223.49
3243.65
3264.85
3287.06
3310.28
3334.46
3359.57
3385.52
3412.23
3439.57
3467.37
3495.46
3523.6
3551.56
3579.06
3605.83
3631.57
3655.99
3678.77
3699.61
3718.19
3734.21
3747.38
3757.43
3764.13
3767.29
3766.77
3762.46
3754.3
3742.52
3727.13
3708.31
3686.33
3661.5
3634.16
3604.72
3573.58
3541.19
3507.99
3474.41
3440.89
3407.84
3375.62
3344.56
3314.95
3287
3260.88
3236.71
3214.57
3194.47
3176.4
3160.34
3146.21
3133.92
3123.39
3114.52
3107.25
3101.37
3096.82
3093.49
3091.29
3090.11
3089.85
3090.42
3091.72
3093.66
3096.16
3099.15
3102.57
3106.37
3110.53
3115.04
3119.96
3125.25
3130.96
3137.2
3144.04
3151.61
3160
3169.33
3179.72
3191.28
3204.11
3218.28
3233.88
3250.98
3269.61
3289.8
3311.54
3334.79
3359.48
3385.47
3412.62
3440.71
3469.48
3498.64
3527.83
3556.69
3584.79
3611.71
3637.01
3660.25
3681.03
3698.93
3713.61
3724.77
3732.14
3735.51
3734.82
3730.19
3721.52
3709.06
3693.07
3673.87
3651.86
3627.44
3601.05
3573.13
3544.11
3514.4
3484.42
3454.52
3425.05
3396.32
3368.58
3342.04
3316.87
3293.18
3271
3250.34
3231.15
3213.38
3196.92
3181.7
3167.61
3154.56
3142.47
3131.24
3120.81
3111.11
3102.1
3093.76
3086.05
3078.97
3072.53
3066.72
3061.56
3057.08
3053.34
3050.45
3048.48
3047.5
3047.62
3048.95
3051.63
3055.79
3061.57
3069.08
3078.44
3089.76
3103.16
3118.64
3136.41
3156.37
3178.65
3203.23
3230.1
3259.17
3290.38
3323.52
3358.43
3394.87
3432.51
3471.03
3510.06
3549.17
3587.91
3625.82
3662.4
3697.21
3729.74
3759.6
3786.37
3809.71
3829.33
3844.96
3856.44
3863.61
3866.59
3866.2
3861.85
3853.53
3841.62
3826.35
3808.04
3787
3763.53
3738.06
3710.89
3682.43
3653.01
3622.97
3592.7
3562.48
3532.61
3503.38
3474.99
3447.67
3421.54
3396.72
3373.33
3351.38
3330.89
3311.85
3294.21
3277.92
3262.9
3249.06
3236.32
3224.6
3213.84
3203.98
3194.98
3186.8
3179.45
3172.9
3167.19
3162.32
3158.34
3155.29
3153.21
3152.16
3152.31
3153.62
3156.13
3159.84
3164.77
3170.92
3178.31
3186.92
3270.81
3244.96
3220.44
3197.25
3175.42
3154.98
3135.95
3118.35
3102.18
3087.43
3074.06
3062.05
3051.36
3041.94
3033.74
3026.72
3020.83
3016
3012.37
3009.77
3008.18
3007.58
3008
3009.44
3011.93
3015.49
3020.15
3025.98
3033.01
3041.3
3050.92
3061.93
3074.38
3088.34
3103.87
3121.05
3139.91
3160.46
3182.76
3206.76
3232.45
3259.76
3288.59
3318.81
3350.27
3382.74
3415.93
3449.56
3483.29
3516.7
3549.42
3581.03
3611.12
3639.26
3665.06
3688.15
3708.22
3724.96
3738.14
3747.56
3753.08
3754.59
3752.6
3746.64
3736.73
3722.91
3705.4
3684.39
3660.2
3633.15
3603.65
3572.14
3539.08
3504.8
3469.61
3433.78
3397.64
3361.48
3325.61
3290.36
3256.03
3222.92
3191.33
3161.49
3133.6
3107.79
3084.14
3062.64
3043.26
3025.9
3010.48
2996.88
2985
2974.74
2966.04
2958.75
2953.02
2948.84
2946.13
2944.87
2945.02
2946.53
2949.37
2953.46
2958.75
2965.19
2972.74
2981.36
2991.03
3001.73
3013.48
3026.26
3040.09
3054.96
3070.9
3088
3106.06
3125.16
3145.32
3166.51
3188.73
3211.94
3236.13
3261.23
3287.2
3313.92
3341.28
3369.12
3397.24
3425.43
3453.43
3480.99
3507.81
3533.62
3558.11
3580.96
3601.87
3620.52
3636.61
3649.84
3659.96
3666.7
3669.9
3669.39
3665.09
3656.93
3645.11
3629.67
3610.79
3588.74
3563.82
3536.39
3506.85
3475.62
3443.14
3409.84
3376.17
3342.57
3309.45
3277.17
3246.07
3216.42
3188.45
3162.32
3138.14
3116
3095.91
3077.87
3061.82
3047.71
3035.45
3024.95
3016.1
3008.86
3002.99
2998.47
2995.16
2992.98
2991.82
2991.59
2992.17
2993.49
2995.45
2997.96
3000.96
3004.38
3008.19
3012.35
3016.86
3021.78
3027.05
3032.75
3038.96
3045.78
3053.32
3061.69
3071
3081.36
3092.9
3105.7
3119.85
3135.44
3152.52
3171.13
3191.32
3213.06
3236.32
3261.02
3287.04
3314.22
3342.35
3371.18
3400.4
3429.67
3458.61
3486.81
3513.82
3539.22
3562.56
3583.43
3601.42
3616.18
3627.39
3634.8
3638.2
3637.51
3632.84
3624.13
3611.6
3595.52
3576.24
3554.13
3529.61
3503.12
3475.1
3446
3416.21
3386.16
3356.2
3326.68
3297.91
3270.14
3243.58
3218.41
3194.72
3172.55
3151.91
3132.74
3114.98
3098.55
3083.35
3069.29
3056.26
3044.18
3032.97
3022.55
3012.86
3003.86
2995.52
2987.82
2980.74
2974.3
2968.48
2963.31
2958.82
2955.07
2952.16
2950.18
2949.17
2949.28
2950.59
2953.26
2957.41
2963.17
2970.68
2980.04
2991.36
3004.76
3020.24
3038.01
3057.97
3080.26
3104.84
3131.73
3160.81
3192.04
3225.2
3260.15
3296.63
3334.31
3372.89
3411.98
3451.16
3489.98
3527.96
3564.63
3599.52
3632.13
3662.07
3688.91
3712.31
3731.98
3747.65
3759.15
3766.36
3769.32
3768.88
3764.47
3756.12
3744.15
3728.81
3710.44
3689.31
3665.77
3640.21
3612.96
3584.43
3554.93
3524.83
3494.49
3464.22
3434.3
3405.03
3376.61
3349.27
3323.12
3298.3
3274.9
3252.95
3232.47
3213.45
3195.83
3179.56
3164.55
3150.73
3138.01
3126.31
3115.56
3105.71
3096.71
3088.54
3081.18
3074.64
3068.92
3064.05
3060.06
3057
3054.91
3053.85
3053.99
3055.3
3057.79
3061.5
3066.42
3072.58
3079.96
3088.57
3172.37
3146.51
3121.98
3098.78
3076.95
3056.51
3037.49
3019.9
3003.73
2988.99
2975.64
2963.64
2952.96
2943.55
2935.37
2928.36
2922.47
2917.66
2914.03
2911.44
2909.84
2909.24
2909.66
2911.09
2913.57
2917.12
2921.78
2927.59
2934.61
2942.88
2952.48
2963.47
2975.9
2989.85
3005.36
3022.53
3041.37
3061.92
3084.21
3108.21
3133.9
3161.22
3190.08
3220.34
3251.84
3284.36
3317.62
3351.33
3385.14
3418.65
3451.47
3483.18
3513.37
3541.62
3567.52
3590.7
3610.85
3627.67
3640.91
3650.37
3655.91
3657.42
3655.45
3649.47
3639.52
3625.65
3608.07
3586.99
3562.7
3535.55
3505.95
3474.33
3441.16
3406.79
3371.51
3335.62
3299.42
3263.21
3227.3
3192.01
3157.64
3124.5
3092.88
3063.01
3035.1
3009.28
2985.62
2964.12
2944.74
2927.39
2911.98
2898.39
2886.51
2876.26
2867.56
2860.31
2854.55
2850.39
2847.69
2846.43
2846.59
2848.12
2850.97
2855.07
2860.38
2866.83
2874.38
2883.01
2892.68
2903.38
2915.13
2927.91
2941.73
2956.61
2972.55
2989.62
3007.68
3026.79
3046.94
3068.13
3090.34
3113.56
3137.74
3162.86
3188.83
3215.58
3242.96
3270.84
3299
3327.24
3355.3
3382.93
3409.82
3435.7
3460.27
3483.21
3504.2
3522.94
3539.11
3552.42
3562.6
3569.41
3572.64
3572.16
3567.86
3559.7
3547.84
3532.35
3513.39
3491.25
3466.23
3438.69
3409.04
3377.69
3345.09
3311.68
3277.91
3244.21
3211
3178.65
3147.5
3117.81
3089.81
3063.66
3039.48
3017.34
2997.27
2979.24
2963.22
2949.14
2936.91
2926.44
2917.62
2910.4
2904.57
2900.07
2896.79
2894.63
2893.5
2893.29
2893.89
2895.23
2897.21
2899.74
2902.75
2906.18
2910
2914.16
2918.66
2923.57
2928.83
2934.51
2940.7
2947.49
2955
2963.34
2972.62
2982.95
2994.45
3007.23
3021.36
3036.92
3053.98
3072.59
3092.76
3114.5
3137.77
3162.49
3188.54
3215.76
3243.94
3272.83
3302.13
3331.5
3360.54
3388.84
3415.97
3441.49
3464.96
3485.94
3504.04
3518.88
3530.16
3537.62
3541.04
3540.36
3535.64
3526.87
3514.27
3498.09
3478.7
3456.46
3431.83
3405.22
3377.09
3347.88
3318.01
3287.86
3257.83
3228.26
3199.43
3171.63
3145.06
3119.88
3096.19
3074.04
3053.41
3034.27
3016.54
3000.13
2984.96
2970.92
2957.92
2945.86
2934.67
2924.26
2914.59
2905.6
2897.26
2889.56
2882.49
2876.04
2870.21
2865.03
2860.53
2856.76
2853.83
2851.82
2850.8
2850.89
2852.18
2854.84
2858.97
2864.72
2872.22
2881.58
2892.9
2906.29
2921.78
2939.55
2959.52
2981.81
3006.4
3033.29
3062.39
3093.65
3126.84
3161.83
3198.35
3236.09
3274.74
3313.91
3353.16
3392.07
3430.15
3466.92
3501.91
3534.62
3564.66
3591.58
3615.06
3634.79
3650.5
3662.03
3669.26
3672.2
3671.71
3667.25
3658.85
3646.81
3631.39
3612.93
3591.71
3568.07
3542.41
3515.07
3486.44
3456.86
3426.67
3396.27
3365.93
3335.95
3306.63
3278.18
3250.8
3224.64
3199.81
3176.4
3154.46
3133.99
3114.99
3097.39
3081.14
3066.15
3052.36
3039.66
3027.97
3017.24
3007.4
2998.41
2990.24
2982.89
2976.34
2970.62
2965.74
2961.74
2958.67
2956.57
2955.5
2955.62
2956.92
2959.41
2963.11
2968.03
2974.18
2981.55
2990.16
3073.86
3047.99
3023.46
3000.26
2978.42
2957.98
2938.97
2921.38
2905.22
2890.49
2877.15
2865.17
2854.5
2845.11
2836.94
2829.94
2824.07
2819.27
2815.65
2813.06
2811.46
2810.86
2811.27
2812.7
2815.17
2818.71
2823.35
2829.15
2836.15
2844.41
2853.99
2864.95
2877.36
2891.29
2906.78
2923.93
2942.76
2963.3
2985.58
3009.59
3035.28
3062.62
3091.5
3121.8
3153.35
3185.94
3219.27
3253.07
3286.99
3320.6
3353.54
3385.38
3415.69
3444.06
3470.07
3493.36
3513.61
3530.51
3543.81
3553.33
3558.89
3560.41
3558.45
3552.46
3542.46
3528.53
3510.87
3489.69
3465.3
3438.03
3408.31
3376.57
3343.26
3308.78
3273.41
3237.44
3201.17
3164.9
3128.94
3093.61
3059.2
3026.02
2994.37
2964.47
2936.53
2910.69
2887.02
2865.52
2846.15
2828.82
2813.42
2799.83
2787.97
2777.72
2769.02
2761.8
2756.03
2751.88
2749.18
2747.94
2748.11
2749.66
2752.52
2756.64
2761.96
2768.43
2775.99
2784.62
2794.29
2805
2816.73
2829.51
2843.34
2858.21
2874.15
2891.2
2909.26
2928.37
2948.51
2969.7
2991.91
3015.12
3039.31
3064.43
3090.42
3117.19
3144.61
3172.52
3200.74
3229.04
3257.17
3284.87
3311.85
3337.82
3362.48
3385.51
3406.6
3425.44
3441.71
3455.11
3465.38
3472.25
3475.54
3475.08
3470.79
3462.62
3450.71
3435.15
3416.11
3393.86
3368.72
3341.06
3311.27
3279.78
3247.05
3213.51
3179.62
3145.81
3112.5
3080.07
3048.84
3019.1
2991.07
2964.9
2940.72
2918.59
2898.53
2880.53
2864.54
2850.49
2838.29
2827.85
2819.08
2811.88
2806.09
2801.62
2798.37
2796.24
2795.14
2794.96
2795.59
2796.95
2798.95
2801.5
2804.52
2807.97
2811.79
2815.95
2820.45
2825.34
2830.59
2836.25
2842.41
2849.17
2856.65
2864.95
2874.19
2884.49
2895.96
2908.7
2922.8
2938.33
2955.37
2973.96
2994.13
3015.87
3039.15
3063.89
3089.97
3117.23
3145.48
3174.45
3203.84
3233.31
3262.47
3290.9
3318.17
3343.83
3367.43
3388.55
3406.77
3421.72
3433.08
3440.59
3444.05
3443.37
3438.6
3429.77
3417.06
3400.77
3381.25
3358.88
3334.1
3307.36
3279.1
3249.77
3219.78
3189.54
3159.42
3129.77
3100.9
3073.05
3046.46
3021.27
2997.58
2975.45
2954.84
2935.73
2918.03
2901.66
2886.51
2872.5
2859.53
2847.5
2836.33
2825.95
2816.29
2807.31
2798.98
2791.28
2784.21
2777.75
2771.92
2766.72
2762.21
2758.41
2755.46
2753.43
2752.39
2752.45
2753.72
2756.36
2760.48
2766.22
2773.71
2783.06
2794.38
2807.77
2823.26
2841.03
2861
2883.3
2907.9
2934.81
2963.93
2995.21
3028.44
3063.48
3100.05
3137.86
3176.58
3215.83
3255.18
3294.2
3332.39
3369.28
3404.39
3437.21
3467.36
3494.39
3517.95
3537.75
3553.52
3565.08
3572.33
3575.25
3574.71
3570.18
3561.72
3549.6
3534.09
3515.52
3494.19
3470.43
3444.66
3417.21
3388.48
3358.79
3328.51
3298.02
3267.6
3237.56
3208.19
3179.69
3152.28
3126.09
3101.25
3077.84
3055.91
3035.45
3016.46
2998.89
2982.66
2967.71
2953.94
2941.26
2929.6
2918.89
2909.06
2900.08
2891.92
2884.56
2878.01
2872.28
2867.39
2863.39
2860.3
2858.19
2857.1
2857.21
2858.51
2860.99
2864.68
2869.59
2875.73
2883.1
2891.7
2975.3
2949.42
2924.87
2901.67
2879.83
2859.39
2840.38
2822.8
2806.66
2791.94
2778.62
2766.65
2756
2746.62
2738.47
2731.49
2725.64
2720.85
2717.23
2714.64
2713.04
2712.44
2712.85
2714.27
2716.73
2720.26
2724.88
2730.66
2737.64
2745.88
2755.44
2766.38
2778.77
2792.67
2808.14
2825.27
2844.08
2864.6
2886.88
2910.88
2936.59
2963.94
2992.86
3023.2
3054.81
3087.46
3120.89
3154.79
3188.82
3222.56
3255.63
3287.61
3318.06
3346.57
3372.72
3396.13
3416.48
3433.48
3446.87
3456.44
3462.04
3463.57
3461.62
3455.6
3445.55
3431.55
3413.8
3392.52
3367.99
3340.59
3310.74
3278.85
3245.4
3210.79
3175.31
3139.25
3102.9
3066.57
3030.56
2995.17
2960.72
2927.49
2895.8
2865.86
2837.9
2812.04
2788.36
2766.86
2747.5
2730.17
2714.79
2701.22
2689.36
2679.12
2670.43
2663.21
2657.47
2653.31
2650.62
2649.39
2649.58
2651.14
2654.02
2658.16
2663.5
2669.98
2677.55
2686.19
2695.86
2706.57
2718.3
2731.08
2744.9
2759.77
2775.71
2792.74
2810.8
2829.9
2850.04
2871.23
2893.43
2916.64
2940.83
2965.96
2991.97
3018.76
3046.21
3074.17
3102.45
3130.82
3159.03
3186.81
3213.89
3239.96
3264.72
3287.87
3309.08
3328.03
3344.41
3357.92
3368.28
3375.23
3378.57
3378.15
3373.86
3365.68
3353.72
3338.08
3318.94
3296.57
3271.3
3243.49
3213.54
3181.9
3149.01
3115.32
3081.29
3047.36
3013.94
2981.41
2950.11
2920.31
2892.24
2866.05
2841.86
2819.74
2799.7
2781.73
2765.77
2751.76
2739.6
2729.2
2720.47
2713.31
2707.56
2703.12
2699.91
2697.82
2696.74
2696.59
2697.25
2698.65
2700.67
2703.24
2706.28
2709.74
2713.57
2717.73
2722.23
2727.1
2732.34
2737.97
2744.09
2750.82
2758.26
2766.52
2775.72
2785.97
2797.4
2810.11
2824.17
2839.68
2856.69
2875.26
2895.42
2917.16
2940.45
2965.21
2991.33
3018.65
3046.96
3076.02
3105.52
3135.11
3164.4
3192.99
3220.41
3246.23
3269.99
3291.26
3309.62
3324.69
3336.15
3343.72
3347.21
3346.53
3341.72
3332.8
3319.99
3303.57
3283.89
3261.37
3236.43
3209.53
3181.12
3151.65
3121.53
3091.18
3060.97
3031.24
3002.3
2974.41
2947.79
2922.59
2898.91
2876.79
2856.21
2837.13
2819.47
2803.13
2788.02
2774.05
2761.11
2749.11
2737.97
2727.6
2717.96
2708.99
2700.67
2692.98
2685.9
2679.44
2673.59
2668.39
2663.85
2660.03
2657.05
2655
2653.93
2653.96
2655.21
2657.82
2661.92
2667.65
2675.13
2684.48
2695.79
2709.19
2724.68
2742.45
2762.43
2784.73
2809.34
2836.27
2865.41
2896.72
2930
2965.08
3001.72
3039.6
3078.41
3117.76
3157.22
3196.36
3234.68
3271.7
3306.94
3339.9
3370.17
3397.32
3420.98
3440.86
3456.69
3468.29
3475.55
3478.45
3477.86
3473.26
3464.73
3452.51
3436.9
3418.2
3396.75
3372.86
3346.96
3319.39
3290.53
3260.73
3230.34
3199.74
3169.25
3139.13
3109.69
3081.14
3053.69
3027.48
3002.62
2979.22
2957.29
2936.85
2917.88
2900.33
2884.14
2869.21
2855.47
2842.83
2831.19
2820.49
2810.68
2801.71
2793.56
2786.2
2779.65
2773.91
2769.02
2764.99
2761.89
2759.76
2758.66
2758.76
2760.05
2762.52
2766.2
2771.1
2777.24
2784.6
2793.19
2876.67
2850.78
2826.23
2803.01
2781.18
2760.74
2741.73
2724.17
2708.03
2693.33
2680.02
2668.07
2657.44
2648.08
2639.95
2632.99
2627.16
2622.39
2618.78
2616.18
2614.58
2613.98
2614.38
2615.8
2618.25
2621.76
2626.37
2632.13
2639.09
2647.3
2656.83
2667.74
2680.1
2693.98
2709.42
2726.53
2745.32
2765.83
2788.1
2812.1
2837.82
2865.19
2894.14
2924.53
2956.2
2988.94
3022.46
3056.48
3090.65
3124.53
3157.75
3189.89
3220.5
3249.16
3275.46
3299.01
3319.49
3336.59
3350.07
3359.7
3365.34
3366.88
3364.94
3358.9
3348.79
3334.71
3316.86
3295.46
3270.79
3243.24
3213.23
3181.19
3147.57
3112.81
3077.21
3041.04
3004.62
2968.21
2932.13
2896.7
2862.19
2828.91
2797.18
2767.2
2739.2
2713.31
2689.63
2668.12
2648.77
2631.46
2616.09
2602.53
2590.69
2580.45
2571.77
2564.57
2558.84
2554.68
2552.01
2550.79
2550.99
2552.57
2555.48
2559.64
2564.99
2571.49
2579.07
2587.72
2597.39
2608.1
2619.83
2632.6
2646.42
2661.29
2677.22
2694.24
2712.29
2731.39
2751.53
2772.71
2794.91
2818.12
2842.31
2867.45
2893.47
2920.29
2947.78
2975.8
3004.14
3032.58
3060.88
3088.77
3115.94
3142.13
3167.02
3190.29
3211.62
3230.7
3247.21
3260.84
3271.3
3278.34
3281.75
3281.36
3277.08
3268.89
3256.87
3241.14
3221.89
3199.38
3173.96
3145.98
3115.87
3084.05
3050.98
3017.13
2982.94
2948.86
2915.31
2882.67
2851.29
2821.43
2793.32
2767.11
2742.91
2720.8
2700.78
2682.84
2666.92
2652.95
2640.84
2630.49
2621.8
2614.68
2608.97
2604.57
2601.4
2599.35
2598.31
2598.19
2598.89
2600.31
2602.36
2604.96
2608.02
2611.49
2615.33
2619.5
2623.99
2628.83
2634.07
2639.66
2645.75
2652.44
2659.83
2668.04
2677.2
2687.4
2698.79
2711.45
2725.48
2740.96
2757.94
2776.49
2796.63
2818.37
2841.68
2866.47
2892.63
2920
2948.4
2977.55
3007.17
3036.89
3066.34
3095.09
3122.69
3148.69
3172.63
3194.08
3212.6
3227.8
3239.37
3247.01
3250.54
3249.86
3244.99
3235.99
3223.05
3206.48
3186.64
3163.93
3138.81
3111.73
3083.15
3053.52
3023.26
2992.78
2962.46
2932.64
2903.63
2875.69
2849.04
2823.83
2800.16
2778.06
2757.51
2738.47
2720.84
2704.55
2689.48
2675.55
2662.65
2650.68
2639.57
2629.23
2619.6
2610.65
2602.33
2594.65
2587.57
2581.11
2575.25
2570.02
2565.47
2561.62
2558.61
2556.53
2555.42
2555.43
2556.65
2559.23
2563.31
2569.03
2576.5
2585.84
2597.15
2610.55
2626.04
2643.82
2663.8
2686.1
2710.73
2737.67
2766.84
2798.19
2831.51
2866.65
2903.36
2941.32
2980.23
3019.69
3059.28
3098.55
3137.01
3174.19
3209.58
3242.69
3273.1
3300.38
3324.16
3344.12
3360.02
3371.66
3378.94
3381.83
3381.18
3376.51
3367.88
3355.56
3339.82
3320.99
3299.39
3275.36
3249.31
3221.59
3192.59
3162.66
3132.15
3101.45
3070.85
3040.65
3011.14
2982.54
2955.04
2928.8
2903.93
2880.52
2858.6
2838.18
2819.23
2801.72
2785.56
2770.67
2756.96
2744.35
2732.74
2722.07
2712.27
2703.32
2695.17
2687.81
2681.26
2675.51
2670.6
2666.57
2663.45
2661.3
2660.17
2660.27
2661.54
2664
2667.67
2672.57
2678.69
2686.04
2694.63
2777.99
2752.08
2727.52
2704.3
2682.46
2662.02
2643.03
2625.47
2609.35
2594.67
2581.38
2569.45
2558.84
2549.5
2541.38
2534.44
2528.63
2523.9
2520.28
2517.68
2516.08
2515.48
2515.88
2517.28
2519.72
2523.22
2527.81
2533.55
2540.48
2548.66
2558.17
2569.05
2581.38
2595.22
2610.64
2627.72
2646.49
2666.98
2689.24
2713.25
2738.97
2766.37
2795.35
2825.79
2857.54
2890.37
2924
2958.15
2992.46
3026.5
3059.9
3092.21
3122.99
3151.83
3178.29
3201.99
3222.62
3239.84
3253.41
3263.12
3268.8
3270.36
3268.43
3262.35
3252.18
3238.01
3220.05
3198.51
3173.69
3145.96
3115.78
3083.57
3049.77
3014.84
2979.11
2942.83
2906.3
2869.82
2833.67
2798.17
2763.61
2730.28
2698.49
2668.47
2640.43
2614.52
2590.82
2569.32
2549.98
2532.68
2517.33
2503.79
2491.96
2481.73
2473.05
2465.86
2460.16
2456
2453.33
2452.13
2452.35
2453.95
2456.88
2461.07
2466.44
2472.96
2480.55
2489.2
2498.89
2509.59
2521.32
2534.09
2547.9
2562.76
2578.69
2595.7
2613.74
2632.83
2652.97
2674.14
2696.34
2719.54
2743.74
2768.88
2794.92
2821.77
2849.31
2877.39
2905.8