/*--------------------------------*- C++ -*----------------------------------*\
| =========                 |                                                 |
| \\      /  F ield         | OpenFOAM: The Open Source CFD Toolbox           |
|  \\    /   O peration     | Version:  3.0.1                                 |
|   \\  /    A nd           | Web:      www.OpenFOAM.org                      |
|    \\/     M anipulation  |                                                 |
\*---------------------------------------------------------------------------*/
FoamFile
{
    version     2.0;
    format      ascii;
    class       surfaceScalarField;
    location    "27.2";
    object      phi;
}
// * * * * * * * * * * * * * * * * * * * * * * * * * * * * * * * * * * * * * //

dimensions      [0 3 -1 0 0 0 0];

internalField   nonuniform List<scalar> 
42423
(
-4.97093e-05
-1.39527e-05
-3.45132e-05
-1.51962e-05
-1.82501e-05
-1.62631e-05
-1.20235e-06
-1.70478e-05
1.66011e-05
-1.78035e-05
3.4835e-05
-1.82339e-05
5.36181e-05
-1.87831e-05
7.25745e-05
-1.89565e-05
9.13411e-05
-1.87666e-05
0.000109921
-1.858e-05
0.000127996
-1.80747e-05
0.000145255
-1.72591e-05
0.000161453
-1.61986e-05
0.00017636
-1.49064e-05
0.000189691
-1.33314e-05
0.000201211
-1.15199e-05
0.000210684
-9.47326e-06
0.000217931
-7.24734e-06
0.000222791
-4.85974e-06
0.000225182
-2.39064e-06
0.000225138
4.38286e-08
0.000222566
2.5715e-06
0.000217367
5.19908e-06
0.000209889
7.47789e-06
0.000200173
9.71684e-06
0.000188493
1.16794e-05
0.000175089
1.34038e-05
0.000159931
1.51582e-05
0.000143619
1.63121e-05
0.000126176
1.74426e-05
0.000108
1.81767e-05
8.92549e-05
1.87447e-05
7.02842e-05
1.89707e-05
5.12362e-05
1.9048e-05
3.24501e-05
1.87861e-05
1.40127e-05
1.84374e-05
-3.94237e-06
1.79551e-05
-2.12476e-05
1.73053e-05
-3.77578e-05
1.65102e-05
-5.34047e-05
1.56469e-05
-6.81162e-05
1.47115e-05
-8.1856e-05
1.37397e-05
-9.46144e-05
1.27584e-05
-0.000106353
1.17388e-05
-0.000117104
1.07512e-05
-0.000126874
9.76987e-06
-0.000135694
8.81999e-06
-0.000143567
7.87315e-06
-0.000150569
7.00132e-06
-0.000156673
6.10449e-06
-0.000161942
5.26882e-06
-0.000166416
4.47378e-06
-0.000170092
3.67624e-06
-0.000173041
2.94936e-06
-0.000175242
2.20073e-06
-0.000176704
1.46219e-06
-0.000177543
8.38334e-07
-0.000177649
1.06441e-07
-0.000176951
-6.97768e-07
-0.00017557
-1.38112e-06
-0.000173388
-2.18219e-06
-0.000170531
-2.85701e-06
-0.000166959
-3.57255e-06
-0.0001625
-4.45822e-06
-0.000157222
-5.27802e-06
-0.000151225
-5.99747e-06
-0.000144145
-7.08001e-06
-0.000136399
-7.74631e-06
-0.000127491
-8.90804e-06
-0.000117665
-9.8258e-06
-0.000106909
-1.07561e-05
-9.51805e-05
-1.17282e-05
-8.24516e-05
-1.27289e-05
-6.88356e-05
-1.36161e-05
-5.43337e-05
-1.45019e-05
-3.8953e-05
-1.53807e-05
-2.28314e-05
-1.61216e-05
-6.10306e-06
-1.67284e-05
1.12691e-05
-1.73721e-05
2.89827e-05
-1.77137e-05
4.70919e-05
-1.81092e-05
6.52638e-05
-1.8172e-05
8.33387e-05
-1.80749e-05
0.000101298
-1.79598e-05
0.000118815
-1.75162e-05
0.000135635
-1.68204e-05
0.000151661
-1.60257e-05
0.00016657
-1.49097e-05
0.000180122
-1.35519e-05
0.000192118
-1.19957e-05
0.000202323
-1.02051e-05
0.000210566
-8.24333e-06
0.000216663
-6.09654e-06
0.000220553
-3.89049e-06
0.000222128
-1.57475e-06
0.000221393
7.34781e-07
0.000218245
3.14817e-06
0.000212798
5.44667e-06
0.000205121
7.67766e-06
0.000195354
9.76622e-06
0.000183685
1.1669e-05
0.000170213
1.34721e-05
0.000155225
1.49878e-05
0.000138893
1.63325e-05
0.00012142
1.74728e-05
0.000103141
1.8279e-05
8.42275e-05
1.89134e-05
6.49582e-05
1.92693e-05
4.56542e-05
1.93041e-05
2.64366e-05
1.92176e-05
7.64236e-06
1.87942e-05
-1.05752e-05
1.82175e-05
-2.80619e-05
1.74867e-05
-4.46357e-05
1.65738e-05
-6.02688e-05
1.56332e-05
-7.49078e-05
1.46389e-05
-8.8419e-05
1.35112e-05
-0.000100846
1.24273e-05
-0.000112139
1.12923e-05
-0.000122326
1.0187e-05
-0.000131462
9.13662e-06
-0.000139482
8.02024e-06
-0.000146515
7.03232e-06
-0.000152586
6.07135e-06
-0.000157639
5.05253e-06
-0.000161835
4.19663e-06
-0.000165119
3.28351e-06
-0.000167531
2.41192e-06
-0.000169184
1.65364e-06
-0.000170087
9.02993e-07
-0.000170199
1.11968e-07
-0.000169654
-5.455e-07
-0.000168459
-1.19507e-06
-0.00016657
-1.88908e-06
-0.000164118
-2.45193e-06
-0.000161058
-3.05998e-06
-0.000157367
-3.69076e-06
-0.000153256
-4.11125e-06
-0.000148513
-4.74246e-06
-0.000143213
-5.30074e-06
-0.00013729
-5.92287e-06
-0.000130768
-6.52145e-06
-0.000123578
-7.19067e-06
-0.00011575
-7.82783e-06
-0.000107158
-8.59179e-06
-9.77798e-05
-9.37823e-06
-8.75002e-05
-1.02796e-05
-7.64276e-05
-1.10726e-05
-6.43944e-05
-1.20332e-05
-5.15696e-05
-1.28248e-05
-3.78395e-05
-1.37302e-05
-2.32258e-05
-1.46137e-05
-7.85872e-06
-1.53671e-05
8.27272e-06
-1.61315e-05
2.50415e-05
-1.67688e-05
4.2344e-05
-1.73026e-05
6.00484e-05
-1.77044e-05
7.79811e-05
-1.79327e-05
9.59317e-05
-1.79506e-05
0.000113777
-1.78449e-05
0.000131225
-1.7448e-05
0.000148042
-1.6817e-05
0.000163994
-1.59529e-05
0.000178802
-1.48076e-05
0.000192214
-1.34123e-05
0.000203945
-1.17312e-05
0.000213741
-9.79556e-06
0.000221371
-7.63006e-06
0.000226688
-5.3167e-06
0.000229564
-2.87587e-06
0.000229927
-3.63905e-07
0.000227693
2.23416e-06
0.000222901
4.79182e-06
0.000215757
7.14412e-06
0.000206409
9.34808e-06
0.000195007
1.1402e-05
0.000181771
1.32361e-05
0.000166957
1.48146e-05
0.000150909
1.60478e-05
0.000133783
1.7126e-05
0.000115959
1.7824e-05
9.76813e-05
1.82775e-05
7.91732e-05
1.85081e-05
6.07232e-05
1.84499e-05
4.2575e-05
1.81482e-05
2.47894e-05
1.77857e-05
7.71152e-06
1.70779e-05
-8.61678e-06
1.63283e-05
-2.40425e-05
1.54257e-05
-3.85718e-05
1.45294e-05
-5.20831e-05
1.35112e-05
-6.4607e-05
1.25239e-05
-7.61148e-05
1.15079e-05
-8.66578e-05
1.0543e-05
-9.61996e-05
9.5418e-06
-0.000104821
8.62156e-06
-0.000112553
7.73193e-06
-0.000119452
6.89861e-06
-0.000125551
6.09961e-06
-0.000130905
5.3537e-06
-0.000135519
4.61369e-06
-0.000139426
3.90695e-06
-0.000142734
3.30816e-06
-0.000145319
2.58545e-06
-0.000147319
1.99972e-06
-0.000148643
1.32424e-06
-0.000149353
7.10162e-07
-0.00014946
1.06184e-07
-0.000148909
-5.50409e-07
-0.000147755
-1.15448e-06
-0.000145996
-1.75862e-06
-0.000143544
-2.45208e-06
-0.00014042
-3.12412e-06
-0.000136757
-3.66288e-06
-0.000132293
-4.46384e-06
-0.000127188
-5.10471e-06
-0.000121188
-6.00015e-06
-0.000114537
-6.65086e-06
-0.00010702
-7.51699e-06
-9.86791e-05
-8.34139e-06
-8.95055e-05
-9.17361e-06
-7.94527e-05
-1.00528e-05
-6.85383e-05
-1.09144e-05
-5.68175e-05
-1.17208e-05
-4.40869e-05
-1.27306e-05
-3.05251e-05
-1.35618e-05
-1.61005e-05
-1.44246e-05
-8.92937e-07
-1.52076e-05
1.49622e-05
-1.58551e-05
3.14404e-05
-1.64782e-05
4.83484e-05
-1.69081e-05
6.55843e-05
-1.72359e-05
8.29881e-05
-1.74038e-05
0.000100374
-1.73858e-05
0.000117563
-1.71892e-05
0.000134315
-1.67519e-05
0.000150424
-1.61095e-05
0.000165678
-1.5254e-05
0.000179761
-1.40824e-05
0.000192528
-1.27674e-05
0.0002037
-1.11718e-05
0.00021308
-9.37973e-06
0.00022044
-7.36002e-06
0.000225657
-5.21761e-06
0.000228629
-2.97165e-06
0.000229255
-6.26323e-07
0.000227603
1.65199e-06
0.00022349
4.11323e-06
0.000217075
6.4154e-06
0.000208498
8.5766e-06
0.000197825
1.06729e-05
0.000185218
1.26068e-05
0.000171004
1.42146e-05
0.000155366
1.56376e-05
0.000138623
1.67434e-05
0.000120893
1.77299e-05
0.000102597
1.82961e-05
8.38835e-05
1.87131e-05
6.50966e-05
1.87869e-05
4.64294e-05
1.86672e-05
2.80222e-05
1.84072e-05
1.01673e-05
1.78549e-05
-7.02998e-06
1.71973e-05
-2.34757e-05
1.64457e-05
-3.89926e-05
1.55169e-05
-5.35632e-05
1.45706e-05
-6.72385e-05
1.36753e-05
-7.97206e-05
1.24821e-05
-9.12924e-05
1.15718e-05
-0.000101851
1.05582e-05
-0.000111218
9.36759e-06
-0.00011974
8.52145e-06
-0.000127264
7.52402e-06
-0.000133698
6.4347e-06
-0.000139308
5.60937e-06
-0.000144123
4.81526e-06
-0.000148003
3.88045e-06
-0.000151017
3.01325e-06
-0.000153409
2.39218e-06
-0.000154976
1.56693e-06
-0.000155824
8.48571e-07
-0.000156082
2.58108e-07
-0.000155695
-3.87641e-07
-0.000154658
-1.03671e-06
-0.000153218
-1.43972e-06
-0.00015111
-2.10872e-06
-0.000148575
-2.53434e-06
-0.000145309
-3.26604e-06
-0.00014148
-3.82907e-06
-0.000137056
-4.42469e-06
-0.000131823
-5.23294e-06
-0.000126071
-5.75185e-06
-0.000119324
-6.74665e-06
-0.000111771
-7.5534e-06
-0.000103384
-8.38729e-06
-9.38915e-05
-9.49206e-06
-8.34238e-05
-1.04676e-05
-7.19232e-05
-1.15007e-05
-5.93271e-05
-1.25961e-05
-4.56377e-05
-1.36894e-05
-3.08095e-05
-1.48282e-05
-1.50811e-05
-1.57284e-05
1.52031e-06
-1.66014e-05
1.90381e-05
-1.75178e-05
3.72924e-05
-1.82543e-05
5.58738e-05
-1.85814e-05
7.48003e-05
-1.89265e-05
9.37583e-05
-1.8958e-05
0.000112586
-1.88273e-05
0.000131057
-1.84711e-05
0.000148702
-1.76452e-05
0.000165429
-1.67273e-05
0.000180978
-1.55488e-05
0.000194988
-1.40103e-05
0.000207323
-1.23351e-05
0.000217697
-1.03737e-05
0.000225989
-8.29254e-06
0.000232059
-6.06999e-06
0.00023571
-3.65065e-06
0.000236899
-1.18893e-06
0.000235788
1.11061e-06
0.000232134
3.65377e-06
0.000226198
5.9368e-06
0.000217965
8.23251e-06
0.000207586
1.03789e-05
0.000195302
1.2284e-05
0.00018106
1.42426e-05
0.000165294
1.57661e-05
0.000148181
1.71127e-05
0.000129963
1.82182e-05
0.000110901
1.90618e-05
9.14099e-05
1.94909e-05
7.14822e-05
1.99277e-05
5.16811e-05
1.9801e-05
3.21329e-05
1.95482e-05
1.31153e-05
1.90176e-05
-5.32847e-06
1.84438e-05
-2.29321e-05
1.76037e-05
-3.95587e-05
1.66265e-05
-5.51538e-05
1.55951e-05
-6.96205e-05
1.44667e-05
-8.29052e-05
1.32847e-05
-9.50156e-05
1.21104e-05
-0.000105948
1.09329e-05
-0.000115747
9.79887e-06
-0.000124453
8.70519e-06
-0.000132119
7.66658e-06
-0.000138825
6.70631e-06
-0.000144641
5.81581e-06
-0.000149642
5.0007e-06
-0.000153904
4.26196e-06
-0.000157496
3.59258e-06
-0.000160486
2.98971e-06
-0.000162927
2.44122e-06
-0.000164859
1.93179e-06
-0.000166316
1.45663e-06
1.00047e-06
-4.97459e-05
-2.79065e-05
-3.45495e-05
-3.03926e-05
-1.82819e-05
-3.25309e-05
-1.22866e-06
-3.41011e-05
1.65779e-05
-3.56102e-05
3.48204e-05
-3.64765e-05
5.36201e-05
-3.7583e-05
7.25869e-05
-3.79233e-05
9.1357e-05
-3.75368e-05
0.000109952
-3.7175e-05
0.000128037
-3.61603e-05
0.000145313
-3.4535e-05
0.000161522
-3.24071e-05
0.000176445
-2.98302e-05
0.000189786
-2.66723e-05
0.000201324
-2.30572e-05
0.000210803
-1.89522e-05
0.000218056
-1.45011e-05
0.000222927
-9.73043e-06
0.000225334
-4.79817e-06
0.000225285
9.29514e-08
0.000222688
5.16848e-06
0.000217485
1.0402e-05
0.000210009
1.49543e-05
0.000200276
1.94494e-05
0.000188589
2.33668e-05
0.000175175
2.68172e-05
0.000160003
3.03305e-05
0.00014368
3.26351e-05
0.000126223
3.48998e-05
0.000108035
3.6364e-05
8.92773e-05
3.75027e-05
7.0298e-05
3.79499e-05
5.1238e-05
3.81081e-05
3.24409e-05
3.75832e-05
1.39993e-05
3.68789e-05
-3.96345e-06
3.59178e-05
-2.12746e-05
3.46164e-05
-3.77913e-05
3.30269e-05
-5.34429e-05
3.12985e-05
-6.81577e-05
2.94262e-05
-8.19e-05
2.7482e-05
-9.4663e-05
2.55214e-05
-0.000106408
2.34838e-05
-0.000117162
2.15049e-05
-0.000126934
1.95424e-05
-0.000135753
1.7639e-05
-0.000143625
1.57445e-05
-0.000150629
1.40054e-05
-0.000156741
1.22164e-05
-0.000162008
1.05367e-05
-0.000166486
8.95181e-06
-0.000170161
7.35054e-06
-0.000173105
5.89313e-06
-0.00017531
4.40665e-06
-0.000176782
2.93413e-06
-0.000177621
1.67651e-06
-0.000177722
2.07555e-07
-0.00017702
-1.39936e-06
-0.000175641
-2.75991e-06
-0.000173457
-4.36679e-06
-0.000170602
-5.71206e-06
-0.000167029
-7.14492e-06
-0.000162572
-8.91546e-06
-0.000157297
-1.05536e-05
-0.000151298
-1.1996e-05
-0.000144219
-1.41588e-05
-0.000136469
-1.54966e-05
-0.000127561
-1.78164e-05
-0.00011774
-1.96465e-05
-0.000106971
-2.15255e-05
-9.52447e-05
-2.34542e-05
-8.24899e-05
-2.54837e-05
-6.88899e-05
-2.72161e-05
-5.43802e-05
-2.90116e-05
-3.89984e-05
-3.07626e-05
-2.28815e-05
-3.22386e-05
-6.13444e-06
-3.34754e-05
1.12388e-05
-3.47454e-05
2.89613e-05
-3.54363e-05
4.70936e-05
-3.62416e-05
6.52666e-05
-3.6345e-05
8.33415e-05
-3.61499e-05
0.00010131
-3.59288e-05
0.000118839
-3.50452e-05
0.000135669
-3.36505e-05
0.000151704
-3.20607e-05
0.000166621
-2.98262e-05
0.000180183
-2.71142e-05
0.000192189
-2.40019e-05
0.000202406
-2.04214e-05
0.00021065
-1.64882e-05
0.000216758
-1.22039e-05
0.000220647
-7.78001e-06
0.000222222
-3.14974e-06
0.000221488
1.46908e-06
0.000218336
6.29994e-06
0.000212888
1.08946e-05
0.000205213
1.53524e-05
0.000195445
1.9535e-05
0.000183766
2.33473e-05
0.000170278
2.696e-05
0.000155289
2.99767e-05
0.000138957
3.26649e-05
0.000121465
3.49648e-05
0.000103172
3.65716e-05
8.42483e-05
3.78375e-05
6.49645e-05
3.85532e-05
4.56537e-05
3.86148e-05
2.64255e-05
3.84457e-05
7.62169e-06
3.7598e-05
-1.06045e-05
3.64438e-05
-2.81001e-05
3.49822e-05
-4.46862e-05
3.31599e-05
-6.03251e-05
3.1272e-05
-7.49652e-05
2.9279e-05
-8.84743e-05
2.70204e-05
-0.000100902
2.48546e-05
-0.000112201
2.25917e-05
-0.000122395
2.03811e-05
-0.000131533
1.82746e-05
-0.000139545
1.60316e-05
-0.000146577
1.40644e-05
-0.000152654
1.21487e-05
-0.000157706
1.01043e-05
-0.000161901
8.39187e-06
-0.000165187
6.56975e-06
-0.000167601
4.82563e-06
-0.000169249
3.30167e-06
-0.000170153
1.80672e-06
-0.000170261
2.20564e-07
-0.00016972
-1.08631e-06
-0.000168529
-2.3866e-06
-0.000166641
-3.77719e-06
-0.000164182
-4.91027e-06
-0.000161118
-6.12482e-06
-0.000157451
-7.35698e-06
-0.000153322
-8.24097e-06
-0.00014859
-9.47407e-06
-0.000143291
-1.06002e-05
-0.000137361
-1.1853e-05
-0.00013085
-1.30322e-05
-0.000123656
-1.43846e-05
-0.000115823
-1.56606e-05
-0.000107241
-1.71744e-05
-9.78691e-05
-1.87497e-05
-8.76074e-05
-2.05413e-05
-7.652e-05
-2.216e-05
-6.44904e-05
-2.40629e-05
-5.16627e-05
-2.56525e-05
-3.79272e-05
-2.74658e-05
-2.33039e-05
-2.9237e-05
-7.92562e-06
-3.07454e-05
8.20024e-06
-3.22574e-05
2.49753e-05
-3.35438e-05
4.22921e-05
-3.46194e-05
5.99979e-05
-3.54102e-05
7.79436e-05
-3.58785e-05
9.58975e-05
-3.59045e-05
0.000113754
-3.57014e-05
0.000131227
-3.49208e-05
0.000148063
-3.36537e-05
0.000164039
-3.19286e-05
0.000178848
-2.96166e-05
0.00019227
-2.68343e-05
0.000204023
-2.34845e-05
0.000213825
-1.95976e-05
0.000221473
-1.52777e-05
0.000226802
-1.0646e-05
0.000229673
-5.74672e-06
0.000230037
-7.28498e-07
0.000227797
4.47442e-06
0.000223007
9.5821e-06
0.000215864
1.42872e-05
0.000206497
1.87147e-05
0.000195088
2.2811e-05
0.000181848
2.64755e-05
0.000167014
2.96493e-05
0.000150963
3.2099e-05
0.000133829
3.42597e-05
0.000115997
3.56558e-05
9.77032e-05
3.65713e-05
7.91705e-05
3.70408e-05
6.07152e-05
3.69053e-05
4.25646e-05
3.62987e-05
2.47727e-05
3.55775e-05
7.68196e-06
3.41686e-05
-8.65244e-06
3.26627e-05
-2.40839e-05
3.08572e-05
-3.86155e-05
2.90609e-05
-5.21314e-05
2.70272e-05
-6.4664e-05
2.50564e-05
-7.61696e-05
2.30136e-05
-8.67054e-05
2.10787e-05
-9.62498e-05
1.90862e-05
-0.000104876
1.72473e-05
-0.000112604
1.54608e-05
-0.000119507
1.38011e-05
-0.000125607
1.21997e-05
-0.00013096
1.07066e-05
-0.000135577
9.23125e-06
-0.000139485
7.81432e-06
-0.000142797
6.62023e-06
-0.000145382
5.17028e-06
-0.000147379
3.99716e-06
-0.000148701
2.6462e-06
-0.000149413
1.42169e-06
-0.000149523
2.16767e-07
-0.000148976
-1.09765e-06
-0.00014782
-2.31082e-06
-0.000146062
-3.51668e-06
-0.000143616
-4.89773e-06
-0.000140528
-6.21254e-06
-0.000136833
-7.35701e-06
-0.000132389
-8.90797e-06
-0.000127277
-1.02166e-05
-0.000121302
-1.19755e-05
-0.00011461
-1.33428e-05
-0.000107104
-1.50234e-05
-9.87643e-05
-1.66809e-05
-8.95999e-05
-1.8338e-05
-7.95348e-05
-2.01179e-05
-6.86221e-05
-2.18271e-05
-5.68978e-05
-2.34451e-05
-4.41697e-05
-2.54588e-05
-3.06079e-05
-2.71236e-05
-1.61687e-05
-2.88639e-05
-9.64149e-07
-3.04121e-05
1.48961e-05
-3.17154e-05
3.13695e-05
-3.29516e-05
4.82976e-05
-3.38362e-05
6.55412e-05
-3.44795e-05
8.29503e-05
-3.48129e-05
0.00010035
-3.47858e-05
0.00011754
-3.43793e-05
0.000134317
-3.35283e-05
0.000150442
-3.22346e-05
0.000165714
-3.0526e-05
0.000179811
-2.818e-05
0.000192582
-2.5538e-05
0.000203765
-2.23544e-05
0.00021315
-1.87648e-05
0.000220524
-1.47338e-05
0.000225752
-1.04457e-05
0.000228741
-5.96065e-06
0.00022937
-1.25625e-06
0.000227701
3.32119e-06
0.000223583
8.23129e-06
0.000217167
1.28317e-05
0.000208597
1.71461e-05
0.000197924
2.13463e-05
0.000185294
2.52372e-05
0.000171067
2.8441e-05
0.000155416
3.12888e-05
0.000138656
3.35031e-05
0.000120919
3.5467e-05
0.000102615
3.65998e-05
8.38951e-05
3.74334e-05
6.51073e-05
3.75747e-05
4.64147e-05
3.73598e-05
2.79973e-05
3.68246e-05
1.01385e-05
3.57137e-05
-7.06332e-06
3.43991e-05
-2.35196e-05
3.2902e-05
-3.90438e-05
3.10411e-05
-5.36217e-05
2.91486e-05
-6.7293e-05
2.73466e-05
-7.97826e-05
2.49717e-05
-9.13498e-05
2.3139e-05
-0.000101919
2.11278e-05
-0.000111288
1.87362e-05
-0.000119804
1.7037e-05
-0.000127336
1.50561e-05
-0.00013377
1.2869e-05
-0.000139374
1.12132e-05
-0.000144194
9.63564e-06
-0.000148076
7.76203e-06
-0.000151091
6.02828e-06
-0.000153471
4.77276e-06
-0.000155041
3.13688e-06
-0.000155896
1.70362e-06
-0.00015614
5.02155e-07
-0.000155755
-7.73069e-07
-0.000154738
-2.05403e-06
-0.000153276
-2.90154e-06
-0.000151171
-4.21337e-06
-0.000148632
-5.07398e-06
-0.000145354
-6.54375e-06
-0.000141553
-7.63043e-06
-0.000137117
-8.86043e-06
-0.000131899
-1.04507e-05
-0.000126132
-1.15188e-05
-0.000119398
-1.3481e-05
-0.000111835
-1.5116e-05
-0.000103455
-1.67671e-05
-9.3958e-05
-1.89895e-05
-8.34946e-05
-2.0931e-05
-7.19866e-05
-2.30087e-05
-5.93916e-05
-2.51911e-05
-4.57e-05
-2.73811e-05
-3.08783e-05
-2.965e-05
-1.5137e-05
-3.14697e-05
1.46866e-06
-3.32071e-05
1.89902e-05
-3.50393e-05
3.725e-05
-3.65142e-05
5.58379e-05
-3.71693e-05
7.47709e-05
-3.78596e-05
9.37374e-05
-3.79245e-05
0.000112573
-3.76627e-05
0.000131055
-3.6953e-05
0.000148704
-3.52949e-05
0.000165438
-3.34611e-05
0.000180993
-3.1104e-05
0.000195008
-2.80252e-05
0.000207355
-2.46821e-05
0.000217734
-2.07528e-05
0.00022606
-1.66183e-05
0.000232134
-1.21439e-05
0.000235783
-7.30053e-06
0.000236995
-2.40086e-06
0.000235886
2.22044e-06
0.000232237
7.3019e-06
0.000226305
1.18696e-05
0.00021807
1.64674e-05
0.000207684
2.0765e-05
0.000195393
2.45743e-05
0.00018114
2.84963e-05
0.000165364
3.15413e-05
0.000148238
3.42386e-05
0.00013001
3.64468e-05
0.000110934
3.81377e-05
9.1433e-05
3.89917e-05
7.14925e-05
3.98682e-05
5.16772e-05
3.96163e-05
3.21163e-05
3.91091e-05
1.30855e-05
3.80484e-05
-5.3563e-06
3.68855e-05
-2.29647e-05
3.52121e-05
-3.95962e-05
3.3258e-05
-5.51957e-05
3.11947e-05
-6.96678e-05
2.89388e-05
-8.29522e-05
2.65691e-05
-9.50629e-05
2.42211e-05
-0.000105994
2.1864e-05
-0.000115792
1.95973e-05
-0.000124494
1.74067e-05
-0.000132156
1.53288e-05
-0.000138858
1.34086e-05
-0.00014467
1.16276e-05
-0.000149667
9.99769e-06
-0.000153929
8.52348e-06
-0.000157521
7.18512e-06
-0.00016051
5.97815e-06
-0.000162949
4.88058e-06
-0.000164878
3.8611e-06
-0.000166335
2.91304e-06
2.00004e-06
-4.98167e-05
-4.18646e-05
-3.46195e-05
-4.55899e-05
-1.83435e-05
-4.8807e-05
-1.27826e-06
-5.11664e-05
1.65412e-05
-5.34297e-05
3.48055e-05
-5.47409e-05
5.36269e-05
-5.64044e-05
7.26221e-05
-5.69187e-05
9.1417e-05
-5.63317e-05
0.000110041
-5.57991e-05
0.000128147
-5.42667e-05
0.000145451
-5.18386e-05
0.000161678
-4.8634e-05
0.000176629
-4.47815e-05
0.000189986
-4.00292e-05
0.00020154
-3.46118e-05
0.000211033
-2.84447e-05
0.000218297
-2.17657e-05
0.000223186
-1.46193e-05
0.000225579
-7.19137e-06
0.000225503
1.68942e-07
0.000222876
7.79558e-06
0.000217664
1.56139e-05
0.000210181
2.24374e-05
0.000200431
2.91996e-05
0.000188734
3.50637e-05
0.000175302
4.02494e-05
0.000160108
4.55244e-05
0.000143765
4.89776e-05
0.000126284
5.23804e-05
0.000108078
5.45701e-05
8.92977e-05
5.62834e-05
7.03044e-05
5.69432e-05
5.12261e-05
5.71864e-05
3.24077e-05
5.64015e-05
1.39613e-05
5.53253e-05
-4.01905e-06
5.38981e-05
-2.13411e-05
5.19385e-05
-3.78651e-05
4.95508e-05
-5.35236e-05
4.6957e-05
-6.82446e-05
4.41473e-05
-8.1992e-05
4.12294e-05
-9.47566e-05
3.82861e-05
-0.0001065
3.52271e-05
-0.000117252
3.22575e-05
-0.000127025
2.93146e-05
-0.000135845
2.64595e-05
-0.000143719
2.36179e-05
-0.000150722
2.10091e-05
-0.000156834
1.83286e-05
-0.000162092
1.57944e-05
-0.000166568
1.34281e-05
-0.000170241
1.10229e-05
-0.000173186
8.83838e-06
-0.000175392
6.61296e-06
-0.000176855
4.39686e-06
-0.000177685
2.5061e-06
-0.000177782
3.04732e-07
-0.000177084
-2.09766e-06
-0.000175704
-4.13956e-06
-0.000173512
-6.55859e-06
-0.000170667
-8.55768e-06
-0.000167093
-1.07181e-05
-0.00016264
-1.33689e-05
-0.000157368
-1.58253e-05
-0.000151371
-1.79934e-05
-0.000144311
-2.12188e-05
-0.00013655
-2.32576e-05
-0.000127633
-2.67328e-05
-0.000117818
-2.94616e-05
-0.000107049
-3.22955e-05
-9.53241e-05
-3.51786e-05
-8.25451e-05
-3.82628e-05
-6.89648e-05
-4.07964e-05
-5.44493e-05
-4.35272e-05
-3.9055e-05
-4.6157e-05
-2.29468e-05
-4.83469e-05
-6.1876e-06
-5.02347e-05
1.11987e-05
-5.21317e-05
2.89253e-05
-5.3163e-05
4.70837e-05
-5.43999e-05
6.52571e-05
-5.45185e-05
8.33474e-05
-5.42402e-05
0.000101331
-5.39126e-05
0.000118877
-5.25914e-05
0.000135725
-5.04981e-05
0.00015178
-4.81157e-05
0.000166716
-4.47624e-05
0.000180302
-4.07001e-05
0.000192317
-3.60171e-05
0.000202546
-3.06504e-05
0.000210801
-2.47438e-05
0.000216911
-1.8314e-05
0.00022081
-1.16788e-05
0.000222392
-4.73185e-06
0.000221623
2.23873e-06
0.000218461
9.46167e-06
0.00021302
1.63352e-05
0.000205341
2.30318e-05
0.000195548
2.93275e-05
0.000183864
3.50312e-05
0.000170361
4.04639e-05
0.000155355
4.49824e-05
0.000139017
4.9003e-05
0.0001215
5.2481e-05
0.000103177
5.48948e-05
8.42211e-05
5.67936e-05
6.49213e-05
5.78529e-05
4.55573e-05
5.79788e-05
2.63472e-05
5.76559e-05
7.54417e-06
5.6401e-05
-1.07114e-05
5.46993e-05
-2.82206e-05
5.24914e-05
-4.48117e-05
4.97511e-05
-6.04527e-05
4.6913e-05
-7.51033e-05
4.39297e-05
-8.86151e-05
4.05323e-05
-0.00010104
3.72799e-05
-0.000112337
3.38884e-05
-0.000122522
3.05656e-05
-0.000131665
2.74176e-05
-0.000139679
2.40457e-05
-0.000146698
2.10834e-05
-0.000152773
1.82237e-05
-0.00015782
1.5152e-05
-0.000162012
1.25835e-05
-0.000165314
9.87147e-06
-0.000167711
7.22316e-06
-0.000169335
4.92519e-06
-0.000170257
2.72878e-06
-0.00017036
3.24012e-07
-0.000169794
-1.6524e-06
-0.000168622
-3.5592e-06
-0.000166735
-5.66417e-06
-0.00016427
-7.37475e-06
-0.000161202
-9.19313e-06
-0.000157553
-1.10059e-05
-0.000153406
-1.23875e-05
-0.000148672
-1.42084e-05
-0.000143377
-1.5895e-05
-0.00013745
-1.77806e-05
-0.000130939
-1.95432e-05
-0.000123753
-2.157e-05
-0.000115927
-2.34871e-05
-0.000107345
-2.57562e-05
-9.79762e-05
-2.81188e-05
-8.77333e-05
-3.07842e-05
-7.66354e-05
-3.32579e-05
-6.45991e-05
-3.60993e-05
-5.1773e-05
-3.84786e-05
-3.80354e-05
-4.12034e-05
-2.3404e-05
-4.38684e-05
-8.0144e-06
-4.6135e-05
8.11819e-06
-4.839e-05
2.48999e-05
-5.03256e-05
4.22329e-05
-5.19525e-05
5.99557e-05
-5.3133e-05
7.79122e-05
-5.38351e-05
9.58768e-05
-5.38693e-05
0.000113749
-5.35738e-05
0.000131249
-5.24208e-05
0.000148109
-5.05138e-05
0.000164121
-4.79407e-05
0.000178951
-4.44468e-05
0.000192391
-4.02735e-05
0.000204189
-3.5283e-05
0.000213984
-2.93923e-05
0.000221644
-2.29375e-05
0.000226975
-1.59772e-05
0.000229858
-8.62979e-06
0.000230224
-1.09458e-06
0.000227948
6.75026e-06
0.000223148
1.43818e-05
0.000216005
2.14299e-05
0.000206598
2.81222e-05
0.000195178
3.42309e-05
0.000181939
3.97141e-05
0.000167078
4.45111e-05
0.000150996
4.81802e-05
0.000133844
5.14117e-05
0.00011601
5.34899e-05
9.76786e-05
5.49029e-05
7.91218e-05
5.55976e-05
6.06393e-05
5.53877e-05
4.24378e-05
5.45002e-05
2.46823e-05
5.3333e-05
7.58531e-06
5.12656e-05
-8.76545e-06
4.90135e-05
-2.42061e-05
4.62978e-05
-3.87515e-05
4.36063e-05
-5.22649e-05
4.05406e-05
-6.4787e-05
3.75785e-05
-7.62917e-05
3.45183e-05
-8.68241e-05
3.16111e-05
-9.63658e-05
2.86279e-05
-0.000104989
2.58709e-05
-0.000112722
2.31932e-05
-0.000119617
2.06967e-05
-0.000125716
1.82987e-05
-0.000131061
1.60508e-05
-0.000135674
1.38448e-05
-0.000139577
1.17177e-05
-0.000142896
9.93825e-06
-0.000145478
7.75261e-06
-0.000147472
5.99166e-06
-0.000148807
3.9805e-06
-0.000149517
2.13186e-06
-0.000149615
3.14935e-07
-0.000149066
-1.64712e-06
-0.000147919
-3.45778e-06
-0.000146144
-5.29139e-06
-0.000143695
-7.34651e-06
-0.000140633
-9.275e-06
-0.000136931
-1.10588e-05
-0.000132528
-1.33111e-05
-0.000127384
-1.53603e-05
-0.000121433
-1.79263e-05
-0.000114724
-2.0052e-05
-0.000107229
-2.25187e-05
-9.88718e-05
-2.50378e-05
-8.97105e-05
-2.74993e-05
-7.96373e-05
-3.01911e-05
-6.87277e-05
-3.27367e-05
-5.70093e-05
-3.51634e-05
-4.42765e-05
-3.81917e-05
-3.07107e-05
-4.06894e-05
-1.62461e-05
-4.33286e-05
-1.05143e-06
-4.56068e-05
1.48152e-05
-4.7582e-05
3.13042e-05
-4.94406e-05
4.82452e-05
-5.07773e-05
6.55007e-05
-5.1735e-05
8.29294e-05
-5.22416e-05
0.000100326
-5.21826e-05
0.00011754
-5.15928e-05
0.000134345
-5.03337e-05
0.000150497
-4.8387e-05
0.000165794
-4.5823e-05
0.000179903
-4.22889e-05
0.000192692
-3.83264e-05
0.0002039
-3.35631e-05
0.000213304
-2.81691e-05
0.000220677
-2.2106e-05
0.000225915
-1.56841e-05
0.00022891
-8.95523e-06
0.000229529
-1.87575e-06
0.000227847
5.00319e-06
0.000223727
1.23511e-05
0.000217303
1.92557e-05
0.000208712
2.57369e-05
0.000198035
3.20242e-05
0.000185386
3.78859e-05
0.00017116
4.26663e-05
0.000155469
4.69805e-05
0.000138692
5.02803e-05
0.000120924
5.32343e-05
0.000102591
5.4933e-05
8.38484e-05
5.6176e-05
6.50448e-05
5.63783e-05
4.63217e-05
5.60829e-05
2.79175e-05
5.52288e-05
1.00394e-05
5.35918e-05
-7.16009e-06
5.15986e-05
-2.3634e-05
4.93759e-05
-3.91601e-05
4.65672e-05
-5.37499e-05
4.37383e-05
-6.74193e-05
4.1016e-05
-7.99183e-05
3.74707e-05
-9.14578e-05
3.46786e-05
-0.000102034
3.17041e-05
-0.000111403
2.81053e-05
-0.000119897
2.55308e-05
-0.000127444
2.26028e-05
-0.000133871
1.92967e-05
-0.000139449
1.67911e-05
-0.000144278
1.44639e-05
-0.000148166
1.16499e-05
-0.00015118
9.04298e-06
-0.000153538
7.13085e-06
-0.000155115
4.71404e-06
-0.000155972
2.56026e-06
-0.000156186
7.15569e-07
-0.000155809
-1.14952e-06
-0.000154808
-3.05543e-06
-0.000153318
-4.39109e-06
-0.000151226
-6.30517e-06
-0.000148676
-7.62391e-06
-0.000145397
-9.82288e-06
-0.000141624
-1.14033e-05
-0.000137172
-1.33124e-05
-0.000131977
-1.5646e-05
-0.000126195
-1.7301e-05
-0.000119476
-2.02005e-05
-0.000111905
-2.26867e-05
-0.000103536
-2.51365e-05
-9.4032e-05
-2.84931e-05
-8.35794e-05
-3.13837e-05
-7.206e-05
-3.45281e-05
-5.94749e-05
-3.77763e-05
-4.57795e-05
-4.10766e-05
-3.09824e-05
-4.4447e-05
-1.5211e-05
-4.72411e-05
1.40545e-06
-4.98236e-05
1.89365e-05
-5.25704e-05
3.72027e-05
-5.47805e-05
5.57982e-05
-5.57649e-05
7.47436e-05
-5.6805e-05
9.37204e-05
-5.69013e-05
0.00011257
-5.65125e-05
0.000131063
-5.54457e-05
0.00014873
-5.29617e-05
0.000165473
-5.0205e-05
0.000181048
-4.66784e-05
0.000195068
-4.20457e-05
0.000207431
-3.70451e-05
0.000217821
-3.11423e-05
0.000226147
-2.49443e-05
0.000232228
-1.82252e-05
0.000235904
-1.09772e-05
0.000237147
-3.64361e-06
0.000236041
3.32633e-06
0.000232409
1.09337e-05
0.000226481
1.77981e-05
0.00021824
2.47083e-05
0.000207839
3.11656e-05
0.000195536
3.68774e-05
0.000181262
4.277e-05
0.000165471
4.7333e-05
0.000148322
5.13875e-05
0.000130075
5.46935e-05
0.000110976
5.72368e-05
9.14577e-05
5.85099e-05
7.14983e-05
5.98275e-05
5.16569e-05
5.94577e-05
3.2074e-05
5.86919e-05
1.30205e-05
5.7102e-05
-5.42347e-06
5.53294e-05
-2.3041e-05
5.28296e-05
-3.96826e-05
4.98996e-05
-5.52862e-05
4.67982e-05
-6.97596e-05
4.34122e-05
-8.30455e-05
3.98549e-05
-9.51547e-05
3.63303e-05
-0.000106082
3.2791e-05
-0.000115878
2.93931e-05
-0.00012457
2.60996e-05
-0.000132227
2.29851e-05
-0.000138924
2.01054e-05
-0.00014473
1.7434e-05
-0.000149721
1.49887e-05
-0.000153977
1.27794e-05
-0.000157564
1.07722e-05
-0.000160548
8.96241e-06
-0.000162984
7.31655e-06
-0.000164912
5.78859e-06
-0.000166371
4.37222e-06
2.99971e-06
-4.99232e-05
-5.58289e-05
-3.47246e-05
-6.07886e-05
-1.84365e-05
-6.50952e-05
-1.35279e-06
-6.82502e-05
1.64884e-05
-7.1271e-05
3.47851e-05
-7.30377e-05
5.36416e-05
-7.5261e-05
7.26761e-05
-7.59532e-05
9.15104e-05
-7.5166e-05
0.000110174
-7.44625e-05
0.000128316
-7.24087e-05
0.000145655
-6.91783e-05
0.000161914
-6.48927e-05
0.000176902
-5.97699e-05
0.000190287
-5.34139e-05
0.000201866
-4.61907e-05
0.000211384
-3.79626e-05
0.000218665
-2.9047e-05
0.000223555
-1.951e-05
0.000225946
-9.58223e-06
0.000225836
2.78764e-07
0.00022316
1.04716e-05
0.000217934
2.08405e-05
0.000210437
2.99335e-05
0.000200663
3.89738e-05
0.000188953
4.67737e-05
0.000175491
5.37117e-05
0.000160265
6.07498e-05
0.000143893
6.53502e-05
0.000126377
6.98958e-05
0.000108143
7.28045e-05
8.93284e-05
7.50979e-05
7.03139e-05
7.59576e-05
5.12094e-05
7.62909e-05
3.2358e-05
7.52529e-05
1.39043e-05
7.3779e-05
-4.10363e-06
7.19061e-05
-2.14414e-05
6.92762e-05
-3.79779e-05
6.60872e-05
-5.36472e-05
6.26264e-05
-6.83756e-05
5.88756e-05
-8.21287e-05
5.49825e-05
-9.48971e-05
5.10545e-05
-0.000106643
4.69731e-05
-0.000117397
4.30117e-05
-0.00012717
3.9087e-05
-0.000135989
3.52788e-05
-0.000143862
3.14905e-05
-0.000150863
2.80102e-05
-0.000156981
2.44472e-05
-0.000162228
2.1041e-05
-0.000166703
1.79031e-05
-0.000170374
1.46943e-05
-0.000173315
1.17788e-05
-0.000175518
8.81634e-06
-0.00017698
5.85856e-06
-0.000177801
3.3278e-06
-0.000177879
3.82349e-07
-0.000177183
-2.79354e-06
-0.000175801
-5.52225e-06
-0.000173597
-8.76199e-06
-0.000170766
-1.13886e-05
-0.000167193
-1.42919e-05
-0.000162743
-1.78189e-05
-0.000157476
-2.10917e-05
-0.000151486
-2.39832e-05
-0.000144445
-2.826e-05
-0.00013667
-3.10333e-05
-0.000127746
-3.56562e-05
-0.000117943
-3.92644e-05
-0.000107166
-4.30733e-05
-9.5444e-05
-4.69001e-05
-8.26573e-05
-5.10496e-05
-6.90768e-05
-5.43769e-05
-5.45512e-05
-5.80529e-05
-3.9148e-05
-6.15601e-05
-2.30457e-05
-6.44493e-05
-6.26539e-06
-6.7015e-05
1.11317e-05
-6.95289e-05
2.88752e-05
-7.09066e-05
4.70288e-05
-7.25535e-05
6.5241e-05
-7.27307e-05
8.33534e-05
-7.23527e-05
0.00010136
-7.19195e-05
0.00011893
-7.01608e-05
0.00013581
-6.73786e-05
0.000151888
-6.41942e-05
0.000166846
-5.97198e-05
0.000180469
-5.43232e-05
0.000192514
-4.80627e-05
0.000202757
-4.08932e-05
0.000211026
-3.30127e-05
0.000217153
-2.44415e-05
0.000221057
-1.55823e-05
0.000222627
-6.3022e-06
0.00022184
3.02539e-06
0.00021867
1.26322e-05
0.000213221
2.17844e-05
0.00020552
3.0732e-05
0.000195698
3.91496e-05
0.000184008
4.67217e-05
0.000170487
5.39848e-05
0.00015546
6.00088e-05
0.000139095
6.53679e-05
0.000121534
7.00428e-05
0.00010318
7.32484e-05