/*--------------------------------*- C++ -*----------------------------------*\
| =========                 |                                                 |
| \\      /  F ield         | OpenFOAM: The Open Source CFD Toolbox           |
|  \\    /   O peration     | Version:  3.0.1                                 |
|   \\  /    A nd           | Web:      www.OpenFOAM.org                      |
|    \\/     M anipulation  |                                                 |
\*---------------------------------------------------------------------------*/
FoamFile
{
    version     2.0;
    format      ascii;
    class       volScalarField;
    location    "82.8";
    object      p;
}
// * * * * * * * * * * * * * * * * * * * * * * * * * * * * * * * * * * * * * //

dimensions      [1 -1 -2 0 0 0 0];

internalField   nonuniform List<scalar> 
21420
(
4258.1
4274.45
4287.14
4296.06
4301.12
4302.08
4298.61
4291.15
4279.9
4264.9
4246.36
4224.54
4199.78
4172.41
4142.81
4111.37
4078.5
4044.65
4010.21
3975.62
3941.29
3907.58
3875.03
3843.56
3813.22
3784.27
3756.89
3731.2
3707.3
3685.21
3664.96
3646.55
3629.93
3615.08
3601.94
3590.47
3580.61
3572.31
3565.52
3560.2
3556.31
3553.83
3552.77
3553.12
3554.9
3558.07
3562.69
3568.76
3576.35
3585.49
3596.2
3608.55
3622.58
3638.32
3655.82
3675.08
3696.09
3718.87
3743.36
3769.49
3797.17
3826.26
3856.63
3888.09
3920.6
3953.5
3986.69
4019.85
4052.67
4084.79
4115.87
4145.54
4173.46
4199.29
4222.7
4243.39
4261.08
4275.51
4286.47
4293.77
4297.33
4296.96
4292.76
4284.72
4272.9
4257.5
4238.71
4216.79
4192.03
4164.76
4135.33
4104.11
4071.46
4037.78
4003.46
3968.88
3934.44
3900.49
3867.37
3835.38
3804.78
3775.79
3748.59
3723.29
3699.97
3678.67
3659.39
3642.11
3626.79
3613.37
3601.79
3591.98
3583.88
3577.43
3572.56
3569.23
3567.37
3566.95
3567.97
3570.34
3574.06
3579.13
3585.52
3593.24
3602.29
3612.67
3624.4
3637.49
3651.98
3667.88
3685.23
3704.05
3724.36
3746.18
3769.49
3794.26
3820.47
3848.01
3876.79
3906.67
3937.48
3968.94
4000.8
4032.78
4064.56
4095.77
4126.04
4154.97
4182.17
4207.25
4229.8
4249.48
4265.93
4278.87
4288.04
4293.26
4294.33
4291.33
4284.17
4272.96
4257.86
4239.09
4216.94
4191.77
4163.98
4133.97
4102.22
4069.17
4035.28
4001
3966.76
3932.93
3899.89
3867.91
3837.26
3808.13
3780.67
3754.99
3731.14
3709.17
3689.09
3670.87
3654.5
3639.94
3627.12
3615.99
3606.47
3598.49
3591.99
3586.87
3583.11
3580.63
3579.43
3579.47
3580.78
3583.3
3587.04
3592.03
3598.26
3605.76
3614.57
3624.71
3636.23
3649.17
3663.58
3679.51
3696.99
3716.04
3736.67
3758.86
3782.59
3807.79
3834.4
3862.32
3891.4
3921.48
3952.38
3983.78
4015.42
4046.96
4078.07
4108.35
4137.41
4164.84
4190.22
4213.15
4233.23
4250.11
4263.45
4273
4278.54
4279.87
4277.09
4270.12
4259.07
4244.12
4225.53
4203.62
4178.74
4151.29
4121.73
4090.49
4058.04
4024.84
3991.34
3957.94
3925.01
3892.87
3861.81
3832.05
3803.78
3777.16
3752.28
3729.22
3708
3688.63
3671.07
3655.29
3641.24
3628.84
3618.06
3608.81
3601.05
3594.73
3589.79
3586.17
3583.83
3582.76
3582.96
3584.34
3586.9
3590.64
3595.58
3601.7
3609
3617.55
3627.36
3638.47
3650.92
3664.75
3680.03
3696.79
3715.06
3734.88
3756.26
3779.19
3803.66
3829.64
3857
3885.63
3915.3
3944.99
3975.92
4007.42
4038.99
4070.22
4100.61
4129.65
4156.88
4181.78
4203.94
4222.95
4238.45
4250.19
4257.98
4261.64
4261.09
4256.39
4247.71
4235.16
4219.02
4199.63
4177.31
4152.46
4125.53
4096.96
4067.22
4036.71
4005.85
3975
3944.49
3914.74
3886.19
3858.19
3831.15
3805.2
3780.42
3756.87
3734.57
3713.57
3693.89
3675.52
3658.51
3642.87
3628.61
3615.77
3604.37
3594.45
3586.02
3579.13
3573.8
3570.06
3567.96
3567.56
3568.95
3572.1
3577
3583.7
3592.17
3602.39
3614.38
3628.09
3643.5
3660.53
3679.12
3699.21
3720.71
4160.12
4176.48
4189.18
4198.1
4203.18
4204.15
4200.66
4193.2
4181.95
4166.93
4148.37
4126.54
4101.77
4074.38
4044.76
4013.3
3980.41
3946.55
3912.09
3877.48
3843.14
3809.42
3776.87
3745.39
3715.05
3686.09
3658.7
3633.02
3609.11
3587.03
3566.78
3548.37
3531.76
3516.91
3503.77
3492.3
3482.44
3474.14
3467.36
3462.04
3458.16
3455.68
3454.61
3454.96
3456.74
3459.91
3464.53
3470.6
3478.19
3487.32
3498.03
3510.39
3524.41
3540.15
3557.64
3576.9
3597.92
3620.69
3645.19
3671.31
3699
3728.09
3758.46
3789.93
3822.46
3855.37
3888.56
3921.74
3954.57
3986.71
4017.8
4047.48
4075.42
4101.27
4124.69
4145.4
4163.1
4177.54
4188.51
4195.82
4199.38
4199.01
4194.8
4186.76
4174.94
4159.52
4140.73
4118.79
4094.01
4066.73
4037.28
4006.04
3973.37
3939.67
3905.33
3870.75
3836.29
3802.32
3769.2
3737.2
3706.59
3677.6
3650.39
3625.09
3601.77
3580.48
3561.2
3543.92
3528.6
3515.19
3503.61
3493.81
3485.71
3479.26
3474.4
3471.07
3469.2
3468.79
3469.81
3472.18
3475.91
3480.97
3487.37
3495.09
3504.13
3514.51
3526.24
3539.33
3553.81
3569.71
3587.06
3605.88
3626.19
3648
3671.31
3696.09
3722.29
3749.84
3778.63
3808.51
3839.33
3870.79
3902.67
3934.66
3966.45
3997.68
4027.96
4056.92
4084.14
4109.23
4131.8
4151.49
4167.96
4180.91
4190.09
4195.32
4196.39
4193.38
4186.22
4175.01
4159.89
4141.1
4118.94
4093.75
4065.94
4035.91
4004.14
3971.07
3937.16
3902.87
3868.61
3834.77
3801.71
3769.73
3739.07
3709.94
3682.48
3656.8
3632.95
3610.99
3590.9
3572.69
3556.32
3541.76
3528.95
3517.82
3508.3
3500.33
3493.83
3488.72
3484.95
3482.48
3481.27
3481.32
3482.63
3485.14
3488.89
3493.87
3500.1
3507.61
3516.41
3526.55
3538.07
3551.01
3565.42
3581.34
3598.82
3617.87
3638.5
3660.69
3684.41
3709.62
3736.23
3764.15
3793.24
3823.33
3854.23
3885.64
3917.29
3948.85
3979.97
4010.27
4039.35
4066.8
4092.2
4115.15
4135.25
4152.14
4165.49
4175.05
4180.59
4181.94
4179.14
4172.17
4161.11
4146.15
4127.55
4105.62
4080.71
4053.25
4023.67
3992.41
3959.94
3926.72
3893.2
3859.79
3826.85
3794.7
3763.63
3733.86
3705.6
3678.97
3654.1
3631.04
3609.82
3590.45
3572.9
3557.12
3543.07
3530.68
3519.89
3510.65
3502.89
3496.57
3491.63
3488.02
3485.68
3484.61
3484.81
3486.19
3488.75
3492.49
3497.43
3503.55
3510.85
3519.4
3529.21
3540.31
3552.76
3566.59
3581.86
3598.62
3616.89
3636.71
3658.09
3681.01
3705.49
3731.46
3758.83
3787.47
3817.14
3846.83
3877.78
3909.29
3940.87
3972.13
4002.54
4031.6
4058.85
4083.78
4105.96
4124.98
4140.49
4152.24
4160.03
4163.71
4163.15
4158.44
4149.75
4137.19
4121.04
4101.63
4079.29
4054.42
4027.48
3998.89
3969.12
3938.6
3907.72
3876.87
3846.35
3816.59
3788.04
3760.04
3732.99
3707.04
3682.26
3658.71
3636.41
3615.41
3595.73
3577.36
3560.35
3544.71
3530.45
3517.61
3506.21
3496.29
3487.86
3480.96
3475.64
3471.9
3469.8
3469.4
3470.78
3473.93
3478.83
3485.53
3494
3504.22
3516.21
3529.92
3545.33
3562.36
3580.96
3601.05
3622.55
4062.26
4078.65
4091.37
4100.3
4105.38
4106.4
4102.87
4095.41
4084.13
4069.1
4050.51
4028.65
4003.84
3976.41
3946.76
3915.26
3882.33
3848.43
3813.95
3779.31
3744.94
3711.2
3678.63
3647.14
3616.79
3587.83
3560.44
3534.75
3510.84
3488.76
3468.52
3450.11
3433.51
3418.66
3405.53
3394.07
3384.22
3375.92
3369.14
3363.83
3359.95
3357.47
3356.4
3356.75
3358.52
3361.7
3366.31
3372.39
3379.97
3389.09
3399.8
3412.15
3426.17
3441.9
3459.39
3478.65
3499.66
3522.44
3546.93
3573.06
3600.75
3629.86
3660.23
3691.71
3724.27
3757.19
3790.41
3823.61
3856.47
3888.64
3919.76
3949.48
3977.45
4003.32
4026.78
4047.51
4065.24
4079.7
4090.69
4098.02
4101.58
4101.22
4097
4088.95
4077.11
4061.67
4042.85
4020.89
3996.08
3968.76
3939.28
3908
3875.29
3841.56
3807.19
3772.58
3738.09
3704.1
3670.95
3638.94
3608.32
3579.32
3552.11
3526.81
3503.49
3482.19
3462.92
3445.65
3430.34
3416.93
3405.36
3395.57
3387.48
3381.03
3376.17
3372.85
3370.98
3370.58
3371.6
3373.97
3377.7
3382.76
3389.15
3396.87
3405.92
3416.3
3428.02
3441.11
3455.59
3471.49
3488.83
3507.64
3527.95
3549.76
3573.07
3597.85
3624.05
3651.61
3680.4
3710.29
3741.13
3772.61
3804.51
3836.53
3868.34
3899.6
3929.92
3958.91
3986.16
4011.29
4033.9
4053.62
4070.12
4083.09
4092.3
4097.53
4098.62
4095.59
4088.43
4077.2
4062.06
4043.24
4021.05
3995.82
3967.96
3937.9
3906.08
3872.98
3839.03
3804.71
3770.42
3736.55
3703.48
3671.48
3640.81
3611.67
3584.2
3558.52
3534.68
3512.71
3492.63
3474.43
3458.07
3443.51
3430.7
3419.58
3410.08
3402.11
3395.61
3390.51
3386.74
3384.28
3383.07
3383.13
3384.43
3386.94
3390.69
3395.67
3401.9
3409.4
3418.2
3428.33
3439.85
3452.78
3467.18
3483.11
3500.58
3519.63
3540.25
3562.44
3586.17
3611.37
3637.99
3665.92
3695.02
3725.12
3756.04
3787.47
3819.15
3850.74
3881.89
3912.22
3941.33
3968.82
3994.26
4017.24
4037.38
4054.3
4067.68
4077.26
4082.81
4084.17
4081.36
4074.38
4063.3
4048.32
4029.69
4007.72
3982.78
3955.27
3925.65
3894.35
3861.84
3828.59
3795.04
3761.6
3728.63
3696.47
3665.38
3635.6
3607.33
3580.7
3555.82
3532.77
3511.55
3492.19
3474.64
3458.87
3444.83
3432.44
3421.66
3412.43
3404.68
3398.36
3393.43
3389.82
3387.48
3386.42
3386.61
3387.99
3390.56
3394.3
3399.23
3405.35
3412.66
3421.19
3431
3442.1
3454.54
3468.37
3483.63
3500.38
3518.65
3538.47
3559.84
3582.76
3607.24
3633.22
3660.59
3689.24
3718.92
3748.62
3779.59
3811.13
3842.75
3874.04
3904.5
3933.6
3960.89
3985.86
4008.08
4027.13
4042.67
4054.45
4062.25
4065.95
4065.37
4060.65
4051.94
4039.36
4023.18
4003.73
3981.36
3956.45
3929.47
3900.84
3871.04
3840.48
3809.58
3778.7
3748.17
3718.39
3689.83
3661.82
3634.77
3608.81
3584.03
3560.48
3538.19
3517.19
3497.5
3479.14
3462.13
3446.49
3432.23
3419.39
3407.99
3398.06
3389.64
3382.74
3377.41
3373.67
3371.57
3371.17
3372.54
3375.69
3380.6
3387.29
3395.76
3405.98
3417.97
3431.68
3447.09
3464.13
3482.72
3502.81
3524.33
3964.51
3980.94
3993.69
4002.65
4007.75
4008.81
4005.24
3997.77
3986.46
3971.39
3952.77
3930.86
3906
3878.52
3848.81
3817.25
3784.27
3750.32
3715.78
3681.09
3646.69
3612.93
3580.34
3548.83
3518.47
3489.49
3462.09
3436.4
3412.49
3390.41
3370.18
3351.78
3335.18
3320.34
3307.23
3295.77
3285.93
3277.64
3270.86
3265.55
3261.68
3259.2
3258.14
3258.49
3260.25
3263.43
3268.04
3274.11
3281.68
3290.8
3301.5
3313.84
3327.85
3343.58
3361.07
3380.32
3401.33
3424.1
3448.6
3474.73
3502.43
3531.55
3561.94
3593.43
3626.04
3658.98
3692.24
3725.47
3758.38
3790.59
3821.75
3851.52
3879.54
3905.46
3928.96
3949.73
3967.5
3982
3993.01
4000.36
4003.93
4003.59
3999.34
3991.28
3979.42
3963.95
3945.09
3923.08
3898.23
3870.86
3841.32
3809.99
3777.24
3743.45
3709.04
3674.38
3639.85
3605.82
3572.64
3540.6
3509.97
3480.95
3453.73
3428.43
3405.11
3383.82
3364.56
3347.3
3332
3318.6
3307.04
3297.25
3289.17
3282.74
3277.88
3274.56
3272.71
3272.31
3273.33
3275.7
3279.43
3284.5
3290.89
3298.61
3307.65
3318.03
3329.75
3342.83
3357.3
3373.2
3390.53
3409.34
3429.64
3451.45
3474.75
3499.54
3525.75
3553.31
3582.11
3612.02
3642.88
3674.39
3706.32
3738.37
3770.23
3801.54
3831.91
3860.95
3888.26
3913.44
3936.1
3955.87
3972.41
3985.42
3994.65
3999.91
4001.02
3997.96
3990.8
3979.54
3964.36
3945.5
3923.25
3897.97
3870.05
3839.93
3808.05
3774.89
3740.89
3706.51
3672.18
3638.28
3605.17
3573.15
3542.46
3513.31
3485.84
3460.16
3436.32
3414.36
3394.29
3376.09
3359.73
3345.19
3332.39
3321.28
3311.78
3303.83
3297.34
3292.24
3288.49
3286.02
3284.82
3284.88
3286.18
3288.69
3292.44
3297.41
3303.64
3311.14
3319.93
3330.06
3341.57
3354.49
3368.89
3384.8
3402.27
3421.31
3441.93
3464.12
3487.85
3513.06
3539.69
3567.63
3596.74
3626.87
3657.81
3689.27
3720.98
3752.62
3783.81
3814.2
3843.36
3870.9
3896.4
3919.44
3939.63
3956.59
3970.02
3979.62
3985.2
3986.58
3983.74
3976.75
3965.64
3950.62
3931.94
3909.92
3884.92
3857.36
3827.67
3796.31
3763.75
3730.45
3696.85
3663.36
3630.36
3598.17
3567.06
3537.27
3508.98
3482.35
3457.47
3434.41
3413.2
3393.85
3376.31
3360.55
3346.52
3334.14
3323.38
3314.15
3306.4
3300.1
3295.17
3291.56
3289.23
3288.18
3288.37
3289.75
3292.32
3296.06
3300.99
3307.11
3314.41
3322.94
3332.74
3343.83
3356.26
3370.08
3385.34
3402.08
3420.34
3440.15
3461.52
3484.43
3508.91
3534.89
3562.28
3590.94
3620.65
3650.35
3681.36
3712.94
3744.61
3775.97
3806.48
3835.65
3863.01
3888.04
3910.31
3929.42
3945
3956.8
3964.63
3968.34
3967.75
3963.01
3954.28
3941.66
3925.44
3905.94
3883.51
3858.54
3831.5
3802.82
3772.96
3742.35
3711.41
3680.5
3649.94
3620.14
3591.56
3563.54
3536.49
3510.53
3485.75
3462.2
3439.91
3418.91
3399.22
3380.86
3363.85
3348.21
3333.95
3321.11
3309.71
3299.78
3291.35
3284.45
3279.12
3275.37
3273.28
3272.86
3274.24
3277.39
3282.29
3288.98
3297.45
3307.67
3319.66
3333.37
3348.78
3365.82
3384.42
3404.52
3426.04
3866.88
3883.36
3896.16
3905.15
3910.26
3911.35
3907.78
3900.28
3888.94
3873.82
3855.14
3833.17
3808.24
3780.69
3750.9
3719.28
3686.22
3652.19
3617.59
3582.85
3548.39
3514.59
3481.98
3450.45
3420.06
3391.07
3363.66
3337.96
3314.06
3291.98
3271.76
3253.37
3236.78
3221.96
3208.85
3197.41
3187.57
3179.29
3172.53
3167.23
3163.35
3160.89
3159.82
3160.17
3161.93
3165.1
3169.71
3175.77
3183.34
3192.45
3203.14
3215.47
3229.47
3245.19
3262.67
3281.91
3302.91
3325.69
3350.19
3376.33
3404.04
3433.17
3463.59
3495.1
3527.76
3560.74
3594.04
3627.32
3660.28
3692.56
3723.78
3753.61
3781.69
3807.67
3831.23
3852.06
3869.88
3884.42
3895.47
3902.85
3906.43
3906.1
3901.84
3893.75
3881.86
3866.36
3847.44
3825.38
3800.46
3773.02
3743.42
3712.01
3679.19
3645.34
3610.86
3576.14
3541.56
3507.49
3474.26
3442.19
3411.53
3382.5
3355.27
3329.96
3306.65
3285.36
3266.11
3248.86
3233.57
3220.19
3208.65
3198.87
3190.8
3184.38
3179.54
3176.22
3174.38
3173.99
3175.01
3177.39
3181.12
3186.18
3192.58
3200.29
3209.33
3219.7
3231.42
3244.49
3258.96
3274.84
3292.17
3310.97
3331.27
3353.07
3376.37
3401.15
3427.37
3454.94
3483.76
3513.69
3544.59
3576.13
3608.1
3640.21
3672.12
3703.49
3733.93
3763.04
3790.42
3815.67
3838.4
3858.24
3874.84
3887.9
3897.17
3902.44
3903.58
3900.51
3893.32
3882.03
3866.8
3847.88
3825.57
3800.21
3772.21
3742
3710.05
3676.8
3642.73
3608.29
3573.9
3539.95
3506.8
3474.75
3444.04
3414.87
3387.4
3361.71
3337.87
3315.92
3295.85
3277.67
3261.33
3246.79
3234.01
3222.91
3213.43
3205.49
3199.01
3193.92
3190.18
3187.72
3186.52
3186.58
3187.88
3190.4
3194.14
3199.11
3205.33
3212.82
3221.61
3231.73
3243.23
3256.14
3270.53
3286.43
3303.89
3322.93
3343.55
3365.74
3389.46
3414.68
3441.32
3469.27
3498.41
3528.56
3559.53
3591.04
3622.8
3654.49
3685.75
3716.2
3745.43
3773.05
3798.62
3821.73
3841.99
3859.02
3872.5
3882.14
3887.74
3889.14
3886.29
3879.27
3868.13
3853.06
3834.32
3812.23
3787.15
3759.51
3729.74
3698.3
3665.66
3632.28
3598.62
3565.08
3532.04
3499.8
3468.66
3438.85
3410.55
3383.91
3359.03
3335.97
3314.77
3295.43
3277.9
3262.16
3248.14
3235.78
3225.02
3215.81
3208.07
3201.78
3196.85
3193.26
3190.93
3189.89
3190.08
3191.47
3194.04
3197.78
3202.7
3208.82
3216.11
3224.64
3234.43
3245.51
3257.93
3271.74
3286.98
3303.71
3321.96
3341.76
3363.12
3386.03
3410.51
3436.5
3463.9
3492.58
3522.31
3552.02
3583.08
3614.72
3646.47
3677.9
3708.49
3737.75
3765.19
3790.31
3812.66
3831.84
3847.47
3859.32
3867.17
3870.89
3870.31
3865.53
3856.77
3844.1
3827.82
3808.25
3785.74
3760.7
3733.58
3704.82
3674.89
3644.22
3613.22
3582.26
3551.67
3521.84
3493.23
3465.21
3438.15
3412.19
3387.4
3363.85
3341.56
3320.57
3300.88
3282.52
3265.51
3249.87
3235.62
3222.77
3211.37
3201.44
3193
3186.1
3180.77
3177.02
3174.92
3174.49
3175.87
3179.01
3183.91
3190.6
3199.07
3209.29
3221.28
3234.99
3250.4
3267.45
3286.05
3306.16
3327.68
3769.38
3785.92
3798.77
3807.8
3812.93
3814.05
3810.48
3802.95
3791.56
3776.38
3757.64
3735.58
3710.57
3682.93
3653.05
3621.33
3588.18
3554.06
3519.38
3484.56
3450.03
3416.18
3383.56
3352
3321.58
3292.56
3265.14
3239.44
3215.54
3193.47
3173.26
3154.88
3138.3
3123.5
3110.4
3098.97
3089.15
3080.89
3074.13
3068.84
3064.98
3062.51
3061.45
3061.79
3063.55
3066.72
3071.32
3077.37
3084.93
3094.03
3104.71
3117.03
3131.01
3146.72
3164.19
3183.42
3204.42
3227.2
3251.7
3277.85
3305.57
3334.73
3365.17
3396.71
3429.44
3462.46
3495.81
3529.16
3562.19
3594.54
3625.83
3655.74
3683.9
3709.96
3733.6
3754.5
3772.38
3786.98
3798.08
3805.49
3809.09
3808.77
3804.5
3796.38
3784.45
3768.89
3749.91
3727.77
3702.77
3675.25
3645.56
3614.07
3581.16
3547.23
3512.67
3477.87
3443.22
3409.09
3375.81
3343.7
3313
3283.95
3256.71
3231.4
3208.09
3186.82
3167.58
3150.34
3135.07
3121.71
3110.18
3100.42
3092.37
3085.96
3081.13
3077.82
3075.99
3075.61
3076.63
3079.01
3082.75
3087.81
3094.21
3101.92
3110.96
3121.32
3133.03
3146.1
3160.56
3176.43
3193.75
3212.54
3232.83
3254.62
3277.92
3302.7
3328.92
3356.51
3385.35
3415.3
3446.24
3477.83
3509.85
3542.02
3574.01
3605.45
3635.97
3665.17
3692.64
3717.99
3740.81
3760.72
3777.4
3790.52
3799.83
3805.14
3806.29
3803.22
3796
3784.66
3769.38
3750.39
3727.98
3702.53
3674.43
3644.12
3612.06
3578.72
3544.56
3510.04
3475.57
3441.56
3408.36
3376.27
3345.53
3316.35
3288.86
3263.18
3239.34
3217.4
3197.34
3179.17
3162.84
3148.32
3135.56
3124.48
3115.02
3107.09
3100.63
3095.55
3091.81
3089.37
3088.17
3088.23
3089.54
3092.05
3095.79
3100.76
3106.97
3114.46
3123.24
3133.35
3144.83
3157.73
3172.11
3188
3205.45
3224.48
3245.09
3267.28
3291.01
3316.23
3342.88
3370.85
3400.01
3430.19
3461.21
3492.77
3524.59
3556.35
3587.69
3618.22
3647.55
3675.26
3700.92
3724.13
3744.47
3761.58
3775.13
3784.82
3790.45
3791.86
3789.01
3781.96
3770.77
3755.64
3736.82
3714.63
3689.46
3661.72
3631.85
3600.31
3567.57
3534.11
3500.36
3466.76
3433.65
3401.37
3370.19
3340.35
3312.03
3285.38
3260.5
3237.45
3216.26
3196.93
3179.42
3163.69
3149.69
3137.35
3126.61
3117.41
3109.69
3103.4
3098.49
3094.9
3092.59
3091.54
3091.74
3093.13
3095.7
3099.44
3104.37
3110.48
3117.77
3126.28
3136.06
3147.13
3159.54
3173.33
3188.55
3205.27
3223.51
3243.29
3264.65
3287.55
3312.03
3338.02
3365.44
3394.15
3423.92
3453.63
3484.75
3516.48
3548.31
3579.83
3610.53
3639.9
3667.45
3692.67
3715.12
3734.38
3750.09
3761.98
3769.87
3773.6
3773.02
3768.21
3759.4
3746.67
3730.31
3710.66
3688.06
3662.92
3635.7
3606.84
3576.82
3546.07
3515.01
3483.99
3453.35
3423.49
3394.86
3366.82
3339.75
3313.78
3289
3265.45
3243.16
3222.16
3202.48
3184.12
3167.12
3151.47
3137.22
3124.38
3112.97
3103.03
3094.6
3087.69
3082.35
3078.6
3076.49
3076.06
3077.43
3080.57
3085.47
3092.15
3100.62
3110.84
3122.82
3136.54
3151.95
3169
3187.62
3207.73
3229.27
3671.98
3688.6
3701.52
3710.6
3715.76
3716.9
3713.33
3705.77
3694.32
3679.08
3660.25
3638.1
3612.99
3585.23
3555.24
3523.41
3490.15
3455.93
3421.15
3386.23
3351.62
3317.71
3285.07
3253.47
3223.02
3193.98
3166.54
3140.83
3116.93
3094.88
3074.67
3056.31
3039.75
3024.96
3011.89
3000.48
2990.67
2982.42
2975.68
2970.4
2966.54
2964.09
2963.03
2963.36
2965.11
2968.28
2972.87
2978.92
2986.46
2995.55
3006.21
3018.51
3032.49
3048.18
3065.64
3084.86
3105.86
3128.63
3153.13
3179.29
3207.03
3236.21
3266.69
3298.26
3331.07
3364.14
3397.55
3430.98
3464.09
3496.53
3527.92
3557.92
3586.18
3612.33
3636.06
3657.04
3675
3689.67
3700.82
3708.28
3711.9
3711.58
3707.3
3699.15
3687.17
3671.54
3652.49
3630.27
3605.17
3577.55
3547.75
3516.16
3483.14
3449.11
3414.45
3379.56
3344.84
3310.63
3277.29
3245.13
3214.4
3185.32
3158.06
3132.75
3109.44
3088.18
3068.95
3051.74
3036.49
3023.15
3011.64
3001.9
2993.87
2987.47
2982.66
2979.37
2977.55
2977.17
2978.2
2980.59
2984.32
2989.39
2995.78
3003.5
3012.53
3022.89
3034.59
3047.65
3062.09
3077.95
3095.26
3114.04
3134.31
3156.1
3179.4
3204.18
3230.41
3258.01
3286.87
3316.86
3347.85
3379.49
3411.58
3443.82
3475.89
3507.43
3538.05
3567.36
3594.94
3620.39
3643.31
3663.33
3680.09
3693.29
3702.66
3708
3709.17
3706.09
3698.84
3687.45
3672.1
3653.01
3630.5
3604.94
3576.72
3546.28
3514.11
3480.65
3446.38
3411.75
3377.2
3343.11
3309.85
3277.71
3246.94
3217.74
3190.24
3164.55
3140.73
3118.79
3098.75
3080.59
3064.28
3049.78
3037.03
3025.98
3016.54
3008.64
3002.19
2997.13
2993.4
2990.96
2989.78
2989.84
2991.14
2993.66
2997.39
3002.35
3008.57
3016.04
3024.81
3034.91
3046.37
3059.26
3073.62
3089.5
3106.93
3125.95
3146.56
3168.74
3192.48
3217.71
3244.37
3272.36
3301.55
3331.78
3362.84
3394.47
3426.37
3458.21
3489.64
3520.27
3549.71
3577.53
3603.31
3626.62
3647.07
3664.28
3677.9
3687.65
3693.32
3694.75
3691.89
3684.8
3673.56
3658.35
3639.43
3617.14
3591.86
3563.99
3534
3502.34
3469.49
3435.92
3402.07
3368.39
3335.21
3302.87
3271.65
3241.77
3213.43
3186.77
3161.89
3138.84
3117.67
3098.35
3080.86
3065.16
3051.17
3038.85
3028.13
3018.94
3011.24
3004.97
3000.07
2996.5
2994.2
2993.15
2993.35
2994.75
2997.33
3001.07
3005.98
3012.09
3019.37
3027.88
3037.64
3048.69
3061.09
3074.86
3090.07
3106.76
3124.98
3144.76
3166.1
3189
3213.47
3239.48
3266.91
3295.66
3325.47
3355.19
3386.38
3418.2
3450.13
3481.77
3512.6
3542.1
3569.78
3595.13
3617.69
3637.05
3652.85
3664.81
3672.73
3676.48
3675.89
3671.05
3662.17
3649.37
3632.93
3613.17
3590.46
3565.2
3537.86
3508.89
3478.76
3447.92
3416.77
3385.69
3354.99
3325.09
3296.42
3268.37
3241.29
3215.31
3190.53
3166.98
3144.69
3123.7
3104.02
3085.67
3068.66
3053.02
3038.76
3025.92
3014.51
3004.57
2996.13
2989.22
2983.87
2980.12
2978
2977.56
2978.92
2982.06
2986.96
2993.64
3002.1
3012.32
3024.3
3038.02
3053.43
3070.49
3089.11
3109.24
3130.79
3574.71
3591.42
3604.41
3613.55
3618.75
3619.91
3616.33
3608.74
3597.22
3581.9
3562.98
3540.72
3515.49
3487.61
3457.49
3425.52
3392.13
3357.79
3322.89
3287.87
3253.16
3219.18
3186.53
3154.88
3124.38
3095.31
3067.85
3042.14
3018.25
2996.2
2976.01
2957.66
2941.13
2926.36
2913.3
2901.91
2892.13
2883.89
2877.17
2871.9
2868.05
2865.6
2864.55
2864.88
2866.62
2869.78
2874.37
2880.4
2887.93
2897
2907.65
2919.93
2933.89
2949.57
2967.01
2986.22
3007.21
3029.98
3054.49
3080.66
3108.42
3137.63
3168.14
3199.75
3232.65
3265.78
3299.27
3332.79
3366
3398.54
3430.04
3460.15
3488.52
3514.78
3538.61
3559.7
3577.75
3592.49
3603.71
3611.21
3614.86
3614.55
3610.26
3602.07
3590.03
3574.33
3555.19
3532.86
3507.65
3479.91
3449.99
3418.27
3385.14
3350.99
3316.22
3281.23
3246.4
3212.11
3178.7
3146.48
3115.7
3086.6
3059.32
3034
3010.7
2989.45
2970.25
2953.05
2937.83
2924.51
2913.03
2903.31
2895.3
2888.93
2884.13
2880.85
2879.05
2878.68
2879.71
2882.11
2885.85
2890.92
2897.31
2905.02
2914.04
2924.4
2936.09
2949.13
2963.57
2979.41
2996.7
3015.47
3035.74
3057.51
3080.8
3105.59
3131.83
3159.45
3188.34
3218.35
3249.41
3281.11
3313.27
3345.6
3377.78
3409.42
3440.16
3469.59
3497.3
3522.87
3545.92
3566.05
3582.92
3596.2
3605.64
3611.02
3612.21
3609.13
3601.84
3590.39
3574.95
3555.76
3533.13
3507.43
3479.07
3448.49
3416.17
3382.58
3348.18
3313.44
3278.78
3244.61
3211.28
3179.08
3148.27
3119.05
3091.54
3065.85
3042.02
3020.1
3000.07
2981.93
2965.64
2951.16
2938.44
2927.41
2918
2910.12
2903.69
2898.65
2894.94
2892.51
2891.33
2891.39
2892.7
2895.21
2898.94
2903.9
2910.11
2917.57
2926.33
2936.41
2947.86
2960.73
2975.07
2990.93
3008.35
3027.36
3047.96
3070.14
3093.88
3119.12
3145.79
3173.81
3203.04
3233.31
3264.44
3296.14
3328.12
3360.06
3391.6
3422.35
3451.91
3479.86
3505.77
3529.22
3549.79
3567.11
3580.83
3590.65
3596.36
3597.81
3594.94
3587.81
3576.5
3561.2
3542.17
3519.76
3494.34
3466.33
3436.2
3404.4
3371.41
3337.71
3303.75
3269.97
3236.71
3204.3
3173.03
3143.11
3114.75
3088.07
3063.19
3040.15
3018.99
2999.69
2982.23
2966.55
2952.59
2940.29
2929.59
2920.42
2912.74
2906.49
2901.6
2898.04
2895.75
2894.71
2894.92
2896.33
2898.9
2902.64
2907.56
2913.65
2920.93
2929.42
2939.17
2950.2
2962.58
2976.33
2991.51
3008.19
3026.39
3046.15
3067.48
3090.37
3114.84
3140.85
3168.31
3197.1
3226.95
3256.68
3287.97
3319.89
3351.95
3383.72
3414.7
3444.35
3472.18
3497.68
3520.38
3539.86
3555.75
3567.78
3575.75
3579.52
3578.92
3574.05
3565.1
3552.21
3535.66
3515.79
3492.95
3467.55
3440.07
3410.96
3380.71
3349.75
3318.5
3287.34
3256.59
3226.63
3197.93
3169.86
3142.76
3116.78
3091.99
3068.45
3046.16
3025.18
3005.5
2987.15
2970.14
2954.5
2940.24
2927.4
2915.99
2906.04
2897.6
2890.68
2885.33
2881.57
2879.44
2878.99
2880.35
2883.48
2888.37
2895.05
2903.51
2913.73
2925.71
2939.42
2954.85
2971.91
2990.54
3010.68
3032.25
3477.56
3494.37
3507.45
3516.65
3521.89
3523.07
3519.49
3511.86
3500.27
3484.87
3465.83
3443.45
3418.08
3390.05
3359.78
3327.65
3294.12
3259.64
3224.61
3189.47
3154.65
3120.57
3087.92
3056.22
3025.66
2996.56
2969.08
2943.37
2919.47
2897.44
2877.26
2858.94
2842.42
2827.68
2814.65
2803.28
2793.52
2785.31
2778.59
2773.34
2769.5
2767.06
2766.01
2766.34
2768.08
2771.23
2775.81
2781.83
2789.34
2798.39
2809.02
2821.28
2835.22
2850.88
2868.31
2887.51
2908.48
2931.25
2955.76
2981.95
3009.73
3038.98
3069.53
3101.18
3134.18
3167.38
3200.96
3234.58
3267.9
3300.56
3332.19
3362.43
3390.92
3417.31
3441.26
3462.46
3480.61
3495.45
3506.74
3514.3
3517.98
3517.67
3513.37
3505.13
3493.03
3477.24
3458
3435.55
3410.22
3382.34
3352.28
3320.42
3287.15
3252.86
3217.96
3182.85
3147.92
3113.53
3080.04
3047.75
3016.92
2987.78
2960.49
2935.16
2911.87
2890.63
2871.45
2854.28
2839.09
2825.8
2814.34
2804.66
2796.67
2790.32
2785.54
2782.28
2780.49
2780.14
2781.18
2783.58
2787.32
2792.39
2798.78
2806.49
2815.51
2825.85
2837.53
2850.57
2864.98
2880.81
2898.09
2916.84
2937.09
2958.86
2982.14
3006.93
3033.18
3060.82
3089.74
3119.79
3150.92
3182.68
3214.94
3247.37
3279.65
3311.43
3342.3
3371.87
3399.72
3425.44
3448.63
3468.89
3485.88
3499.26
3508.77
3514.21
3515.42
3512.34
3505
3493.48
3477.95
3458.63
3435.86
3410.01
3381.48
3350.74
3318.26
3284.51
3249.97
3215.09
3180.32
3146.04
3112.63
3080.37
3049.52
3020.27
2992.74
2967.05
2943.24
2921.32
2901.31
2883.19
2866.93
2852.47
2839.78
2828.78
2819.4
2811.54
2805.14
2800.12
2796.42
2794.01
2792.84
2792.9
2794.21
2796.72
2800.45
2805.4
2811.6
2819.05
2827.79
2837.86
2849.29
2862.13
2876.45
2892.29
2909.7
2928.69
2949.29
2971.47
2995.2
3020.45
3047.15
3075.19
3104.46
3134.79
3165.98
3197.77
3229.85
3261.9
3293.56
3324.45
3354.16
3382.26
3408.32
3431.92
3452.63
3470.08
3483.9
3493.8
3499.57
3501.04
3498.16
3490.98
3479.59
3464.18
3445.03
3422.48
3396.9
3368.73
3338.43
3306.47
3273.33
3239.48
3205.4
3171.51
3138.15
3105.67
3074.33
3044.37
3015.98
2989.29
2964.4
2941.37
2920.23
2900.95
2883.51
2867.86
2853.93
2841.66
2830.98
2821.84
2814.18
2807.95
2803.08
2799.54
2797.26
2796.23
2796.45
2797.85
2800.43
2804.17
2809.08
2815.17
2822.44
2830.91
2840.64
2851.66
2864.01
2877.73
2892.89
2909.55
2927.72
2947.46
2968.78
2991.66
3016.13
3042.15
3069.64
3098.47
3128.38
3158.12
3189.5
3221.55
3253.74
3285.68
3316.82
3346.64
3374.65
3400.32
3423.18
3442.79
3458.8
3470.91
3478.93
3482.72
3482.11
3477.2
3468.18
3455.19
3438.52
3418.51
3395.51
3369.96
3342.32
3313.06
3282.66
3251.57
3220.21
3188.96
3158.14
3128.13
3099.38
3071.29
3044.18
3018.19
2993.4
2969.85
2947.58
2926.59
2906.92
2888.57
2871.56
2855.92
2841.67
2828.82
2817.4
2807.46
2799.01
2792.08
2786.72
2782.95
2780.82
2780.36
2781.71
2784.84
2789.72
2796.39
2804.85
2815.06
2827.04
2840.76
2856.19
2873.26
2891.9
2912.05
2933.64
3380.52
3397.46
3410.63
3419.9
3425.19
3426.4
3422.81
3415.13
3403.47
3387.96
3368.8
3346.28
3320.76
3292.56
3262.12
3229.82
3196.12
3161.48
3126.31
3091.02
3056.07
3021.9
2989.26
2957.48
2926.87
2897.72
2870.23
2844.5
2820.62
2798.59
2778.44
2760.13
2743.65
2728.93
2715.93
2704.59
2694.85
2686.66
2679.96
2674.72
2670.9
2668.47
2667.42
2667.74
2669.48
2672.62
2677.19
2683.2
2690.69
2699.72
2710.33
2722.57
2736.48
2752.12
2769.53
2788.71
2809.68
2832.44
2856.96
2883.16
2910.97
2940.25
2970.85
3002.56
3035.66
3068.94
3102.63
3136.36
3169.81
3202.6
3234.36
3264.75
3293.38
3319.91
3344
3365.32
3383.6
3398.54
3409.91
3417.53
3421.25
3420.95
3416.63
3408.34
3396.17
3380.29
3360.92
3338.34
3312.87
3284.84
3254.62
3222.6
3189.17
3154.73
3119.68
3084.44
3049.38
3014.89
2981.3
2948.94
2918.06
2888.88
2861.56
2836.23
2812.95
2791.73
2772.57
2755.43
2740.27
2727.01
2715.58
2705.93
2697.97
2691.64
2686.89
2683.65
2681.87
2681.53
2682.58
2684.99
2688.74
2693.81
2700.2
2707.9
2716.92
2727.25
2738.92
2751.94
2766.34
2782.15
2799.41
2818.14
2838.37
2860.13
2883.41
2908.2
2934.46
2962.12
2991.07
3021.18
3052.37
3084.22
3116.57
3149.11
3181.53
3213.44
3244.46
3274.19
3302.21
3328.1
3351.44
3371.86
3388.97
3402.47
3412.07
3417.56
3418.79
3415.71
3408.33
3396.73
3381.08
3361.63
3338.7
3312.67
3283.96
3253.04
3220.37
3186.44
3151.74
3116.71
3081.8
3047.42
3013.91
2981.58
2950.68
2921.4
2893.86
2868.17
2844.36
2822.46
2802.47
2784.37
2768.13
2753.71
2741.05
2730.09
2720.73
2712.91
2706.54
2701.54
2697.86
2695.46
2694.3
2694.36
2695.67
2698.18
2701.9
2706.85
2713.03
2720.48
2729.2
2739.25
2750.66
2763.48
2777.77
2793.59
2810.98
2829.96
2850.54
2872.72
2896.46
2921.72
2948.43
2976.51
3005.82
3036.21
3067.48
3099.36
3131.55
3163.73
3195.53
3226.58
3256.44
3284.71
3310.95
3334.71
3355.59
3373.18
3387.12
3397.12
3402.94
3404.44
3401.54
3394.31
3382.83
3367.31
3348.02
3325.3
3299.54
3271.19
3240.71
3208.57
3175.25
3141.24
3107.01
3072.99
3039.53
3006.96
2975.56
2945.55
2917.13
2890.42
2865.53
2842.51
2821.38
2802.13
2784.73
2769.1
2755.21
2742.97
2732.32
2723.2
2715.56
2709.35
2704.51
2700.98
2698.72
2697.69
2697.92
2699.34
2701.92
2705.66
2710.56
2716.63
2723.89
2732.36
2742.06
2753.06
2765.38
2779.08
2794.21
2810.84
2828.99
2848.71
2870
2892.88
2917.34
2943.37
2970.89
2999.77
3029.75
3059.49
3090.99
3123.17
3155.53
3187.63
3218.97
3248.98
3277.19
3303.05
3326.09
3345.86
3361.99
3374.2
3382.28
3386.1
3385.47
3380.51
3371.4
3358.3
3341.49
3321.33
3298.17
3272.43
3244.61
3215.18
3184.62
3153.38
3121.89
3090.54
3059.64
3029.58
3000.78
2972.66
2945.53
2919.54
2894.74
2871.2
2848.92
2827.94
2808.28
2789.93
2772.93
2757.29
2743.03
2730.18
2718.76
2708.81
2700.35
2693.42
2688.05
2684.28
2682.13
2681.66
2683
2686.12
2691
2697.67
2706.11
2716.33
2728.31
2742.03
2757.46
2774.54
2793.19
2813.36
2834.97
3283.61
3300.67
3313.96
3323.31
3328.65
3329.88
3326.28
3318.55
3306.81
3291.19
3271.9
3249.21
3223.52
3195.13
3164.5
3132.02
3098.14
3063.32
3027.98
2992.54
2957.45
2923.14
2890.54
2858.68
2827.99
2798.8
2771.29
2745.55
2721.67
2699.66
2679.53
2661.25
2644.79
2630.11
2617.14
2605.83
2596.12
2587.95
2581.28
2576.05
2572.24
2569.82
2568.77
2569.09
2570.82
2573.96
2578.51
2584.5
2591.98
2600.98
2611.57
2623.78
2637.67
2653.28
2670.67
2689.84
2710.8
2733.56
2758.08
2784.29
2812.13
2841.45
2872.11
2903.88
2937.08
2970.46
3004.26
3038.13
3071.71
3104.65
3136.57
3167.11
3195.91
3222.59
3246.83
3268.3
3286.7
3301.76
3313.23
3320.92
3324.67
3324.39
3320.05
3311.7
3299.45
3283.46
3263.96
3241.23
3215.6
3187.4
3157.01
3124.81
3091.2
3056.59
3021.39
2985.99
2950.79
2916.18
2882.49
2850.04
2819.1
2789.88
2762.54
2737.21
2713.93
2692.73
2673.6
2656.49
2641.36
2628.14
2616.75
2607.13
2599.2
2592.9
2588.17
2584.96
2583.2
2582.88
2583.94
2586.35
2590.11
2595.18
2601.57
2609.27
2618.27
2628.6
2640.25
2653.25