/*--------------------------------*- C++ -*----------------------------------*\
| =========                 |                                                 |
| \\      /  F ield         | OpenFOAM: The Open Source CFD Toolbox           |
|  \\    /   O peration     | Version:  3.0.1                                 |
|   \\  /    A nd           | Web:      www.OpenFOAM.org                      |
|    \\/     M anipulation  |                                                 |
\*---------------------------------------------------------------------------*/
FoamFile
{
    version     2.0;
    format      ascii;
    class       volVectorField;
    location    "16.8";
    object      U;
}
// * * * * * * * * * * * * * * * * * * * * * * * * * * * * * * * * * * * * * //

dimensions      [0 1 -1 0 0 0 0];

internalField   nonuniform List<vector> 
21420
(
(0.191586 -0.00113218 0)
(0.200212 -0.000941901 0)
(0.208597 -0.000720753 0)
(0.214733 -0.000488184 0)
(0.218497 -0.000246775 0)
(0.219782 -2.30161e-06 0)
(0.218651 0.000237735 0)
(0.214961 0.000482897 0)
(0.208891 0.000720709 0)
(0.200553 0.000932997 0)
(0.190086 0.00113957 0)
(0.177678 0.00133078 0)
(0.163557 0.00147241 0)
(0.147972 0.00161613 0)
(0.131183 0.0017014 0)
(0.113461 0.00179244 0)
(0.0950525 0.00185953 0)
(0.0762079 0.00186609 0)
(0.0571426 0.00188432 0)
(0.0379794 0.00188131 0)
(0.0188434 0.00182586 0)
(0.000733128 0.00177285 0)
(-0.0163981 0.00171731 0)
(-0.0331518 0.00162744 0)
(-0.049124 0.00154766 0)
(-0.064201 0.00144407 0)
(-0.0783185 0.00135195 0)
(-0.0914372 0.00125483 0)
(-0.103536 0.00114754 0)
(-0.114617 0.00104998 0)
(-0.124693 0.000952375 0)
(-0.133783 0.000852832 0)
(-0.141919 0.000760814 0)
(-0.149132 0.000669139 0)
(-0.155461 0.000583853 0)
(-0.160942 0.000501542 0)
(-0.165615 0.000421623 0)
(-0.169515 0.000345926 0)
(-0.172675 0.000272772 0)
(-0.175133 0.000202272 0)
(-0.176896 0.000136155 0)
(-0.17796 7.18358e-05 0)
(-0.178401 4.4014e-06 0)
(-0.178155 -6.28089e-05 0)
(-0.177261 -0.000130563 0)
(-0.175706 -0.000195005 0)
(-0.173436 -0.000263925 0)
(-0.170455 -0.000339284 0)
(-0.166783 -0.000407509 0)
(-0.162347 -0.000481335 0)
(-0.157071 -0.000568202 0)
(-0.150956 -0.000646084 0)
(-0.143933 -0.000743893 0)
(-0.13598 -0.000828513 0)
(-0.127149 -0.000915466 0)
(-0.11734 -0.00102343 0)
(-0.106488 -0.00111232 0)
(-0.0947225 -0.00119779 0)
(-0.0819974 -0.00130649 0)
(-0.0682909 -0.00138707 0)
(-0.0536747 -0.00147995 0)
(-0.0382339 -0.00156114 0)
(-0.0222181 -0.00162792 0)
(-0.00565917 -0.00168786 0)
(0.0115218 -0.0017351 0)
(0.0291887 -0.0017568 0)
(0.0470913 -0.00177934 0)
(0.065058 -0.00177023 0)
(0.0829089 -0.00175644 0)
(0.100455 -0.001717 0)
(0.117475 -0.00165051 0)
(0.133706 -0.00157402 0)
(0.149014 -0.00146832 0)
(0.16319 -0.00133719 0)
(0.17599 -0.00119811 0)
(0.18723 -0.00102161 0)
(0.196693 -0.000843901 0)
(0.204068 -0.000635168 0)
(0.209292 -0.000420644 0)
(0.21246 -0.000187075 0)
(0.213113 4.4301e-05 0)
(0.211377 0.000287704 0)
(0.207327 0.000523807 0)
(0.200874 0.000748755 0)
(0.192123 0.000959549 0)
(0.181446 0.00115452 0)
(0.168846 0.00133796 0)
(0.154647 0.00148689 0)
(0.139041 0.00160982 0)
(0.122212 0.00171197 0)
(0.104497 0.00179322 0)
(0.0860665 0.00184884 0)
(0.0673034 0.00187235 0)
(0.0484483 0.0018675 0)
(0.0296063 0.00185065 0)
(0.0113477 0.00180297 0)
(-0.00652899 0.00176629 0)
(-0.0241375 0.00168834 0)
(-0.0407196 0.00161241 0)
(-0.0565327 0.00154469 0)
(-0.0714707 0.00144906 0)
(-0.0856057 0.00134243 0)
(-0.0992271 0.00125509 0)
(-0.111055 0.00114621 0)
(-0.121822 0.0010397 0)
(-0.132049 0.000955685 0)
(-0.141052 0.000850016 0)
(-0.149111 0.000748006 0)
(-0.156184 0.000653636 0)
(-0.162225 0.000548335 0)
(-0.167268 0.000455163 0)
(-0.171406 0.000359513 0)
(-0.174616 0.000272368 0)
(-0.176955 0.000190708 0)
(-0.178449 0.000108866 0)
(-0.179193 3.37057e-05 0)
(-0.179132 -2.81424e-05 0)
(-0.178423 -0.000106149 0)
(-0.177063 -0.000168668 0)
(-0.174947 -0.000234742 0)
(-0.172214 -0.000303563 0)
(-0.168824 -0.000373246 0)
(-0.164741 -0.000445631 0)
(-0.159932 -0.000511466 0)
(-0.154388 -0.00058675 0)
(-0.148021 -0.000658077 0)
(-0.140894 -0.000741348 0)
(-0.133004 -0.000823255 0)
(-0.124262 -0.000912729 0)
(-0.114681 -0.00100309 0)
(-0.104118 -0.00109263 0)
(-0.0925636 -0.00117379 0)
(-0.08024 -0.00127416 0)
(-0.0670479 -0.0013654 0)
(-0.0529015 -0.00143633 0)
(-0.037982 -0.00151606 0)
(-0.0222932 -0.00159427 0)
(-0.00593956 -0.00165372 0)
(0.011 -0.00170898 0)
(0.0284199 -0.00173295 0)
(0.0459947 -0.00175819 0)
(0.0638304 -0.00176399 0)
(0.0815757 -0.00174301 0)
(0.0988432 -0.00171183 0)
(0.11588 -0.00164064 0)
(0.13197 -0.00155753 0)
(0.147129 -0.0014555 0)
(0.16133 -0.00132976 0)
(0.173924 -0.00117726 0)
(0.185021 -0.00101649 0)
(0.194249 -0.0008176 0)
(0.201488 -0.000626413 0)
(0.206829 -0.000418582 0)
(0.209831 -0.000191627 0)
(0.210625 2.33854e-05 0)
(0.209345 0.000237771 0)
(0.205702 0.000465558 0)
(0.200056 0.000665186 0)
(0.192243 0.000871946 0)
(0.182456 0.00106418 0)
(0.170804 0.00123064 0)
(0.157476 0.00140421 0)
(0.142765 0.00153429 0)
(0.126688 0.00165526 0)
(0.109513 0.00175273 0)
(0.0914768 0.00183138 0)
(0.0726755 0.001887 0)
(0.0534712 0.00191657 0)
(0.0342518 0.00191983 0)
(0.0148723 0.00191593 0)
(-0.00428845 0.00187373 0)
(-0.0226805 0.00179568 0)
(-0.0407241 0.00174685 0)
(-0.0579729 0.00166634 0)
(-0.0739032 0.00153275 0)
(-0.0887356 0.00142454 0)
(-0.102313 0.00127594 0)
(-0.114858 0.00117233 0)
(-0.126125 0.00104571 0)
(-0.13577 0.000904193 0)
(-0.144225 0.000784341 0)
(-0.15163 0.000668419 0)
(-0.157789 0.00054656 0)
(-0.162785 0.000446084 0)
(-0.166705 0.000341059 0)
(-0.169655 0.000248254 0)
(-0.171785 0.000169408 0)
(-0.173059 9.0955e-05 0)
(-0.173628 2.35194e-05 0)
(-0.173571 -3.50151e-05 0)
(-0.172941 -8.89882e-05 0)
(-0.171807 -0.000142377 0)
(-0.170227 -0.000175006 0)
(-0.168193 -0.000228241 0)
(-0.165728 -0.000267733 0)
(-0.162806 -0.000310576 0)
(-0.159425 -0.000352124 0)
(-0.15563 -0.000403562 0)
(-0.151353 -0.000449721 0)
(-0.14653 -0.000509813 0)
(-0.14111 -0.000572076 0)
(-0.134961 -0.000638124 0)
(-0.128102 -0.000712094 0)
(-0.120458 -0.000787228 0)
(-0.112105 -0.000891104 0)
(-0.102751 -0.000969441 0)
(-0.0923595 -0.00106917 0)
(-0.0810795 -0.00117887 0)
(-0.0687397 -0.00128014 0)
(-0.055292 -0.00138629 0)
(-0.040785 -0.00148424 0)
(-0.025282 -0.00158457 0)
(-0.00884678 -0.00166822 0)
(0.00836806 -0.00174838 0)
(0.0263105 -0.00180428 0)
(0.044711 -0.00184248 0)
(0.063372 -0.0018659 0)
(0.0821103 -0.0018654 0)
(0.100635 -0.00182777 0)
(0.118975 -0.00176287 0)
(0.136224 -0.00166875 0)
(0.152477 -0.0015556 0)
(0.167533 -0.00140095 0)
(0.180618 -0.00121926 0)
(0.19196 -0.00101427 0)
(0.201201 -0.000811498 0)
(0.20812 -0.000566517 0)
(0.212692 -0.000331444 0)
(0.214597 -6.53532e-05 0)
(0.213937 0.000182912 0)
(0.210911 0.000426292 0)
(0.205282 0.000677497 0)
(0.197342 0.000892043 0)
(0.187382 0.00108827 0)
(0.175431 0.00127483 0)
(0.16163 0.00143456 0)
(0.146521 0.00157143 0)
(0.130301 0.00166912 0)
(0.113027 0.00175064 0)
(0.0949825 0.00180638 0)
(0.0765337 0.00183817 0)
(0.0580607 0.0018438 0)
(0.039428 0.00183926 0)
(0.0209797 0.00180538 0)
(0.00311655 0.00175063 0)
(-0.0142111 0.00169695 0)
(-0.0306716 0.00159447 0)
(-0.0466631 0.00154341 0)
(-0.0617945 0.00146821 0)
(-0.075606 0.00135206 0)
(-0.0890973 0.00127721 0)
(-0.102179 0.00119183 0)
(-0.113496 0.00110034 0)
(-0.123689 0.000998107 0)
(-0.133306 0.000906268 0)
(-0.142071 0.000825592 0)
(-0.150002 0.000732919 0)
(-0.156926 0.000643396 0)
(-0.162938 0.000557638 0)
(-0.168159 0.000472039 0)
(-0.172516 0.000385983 0)
(-0.176029 0.000308572 0)
(-0.178682 0.000222787 0)
(-0.180518 0.000147871 0)
(-0.181581 6.94334e-05 0)
(-0.181915 -9.90986e-06 0)
(-0.181391 -7.92284e-05 0)
(-0.180135 -0.000163958 0)
(-0.178181 -0.000242897 0)
(-0.175333 -0.000316604 0)
(-0.17173 -0.000392746 0)
(-0.167389 -0.000474957 0)
(-0.162257 -0.000561956 0)
(-0.156238 -0.000640909 0)
(-0.149322 -0.000723517 0)
(-0.141613 -0.000805001 0)
(-0.133075 -0.000889446 0)
(-0.123649 -0.00097539 0)
(-0.113417 -0.00105768 0)
(-0.102341 -0.00114896 0)
(-0.0903869 -0.0012316 0)
(-0.0775559 -0.00130711 0)
(-0.0639506 -0.00139421 0)
(-0.0495929 -0.00146339 0)
(-0.0344884 -0.0015342 0)
(-0.0186928 -0.00159643 0)
(-0.00246105 -0.00163339 0)
(0.0141562 -0.00168365 0)
(0.0311828 -0.00170485 0)
(0.0483766 -0.0017197 0)
(0.0656516 -0.00171452 0)
(0.0827932 -0.00168631 0)
(0.0995929 -0.00164765 0)
(0.115879 -0.00158712 0)
(0.131423 -0.00149828 0)
(0.146025 -0.00139557 0)
(0.159485 -0.00127838 0)
(0.171641 -0.00113385 0)
(0.182307 -0.000976325 0)
(0.191299 -0.000797692 0)
(0.198478 -0.000615348 0)
(0.203752 -0.000420209 0)
(0.207003 -0.000207168 0)
(0.208113 -4.53471e-06 0)
(0.207149 0.000202877 0)
(0.203946 0.000421904 0)
(0.198713 0.000611487 0)
(0.19152 0.000805736 0)
(0.1825 0.000968421 0)
(0.171828 0.00112963 0)
(0.159657 0.00127824 0)
(0.146166 0.00138194 0)
(0.131608 0.00148432 0)
(0.116197 0.00156748 0)
(0.10014 0.00160542 0)
(0.0836719 0.00164357 0)
(0.0669905 0.00163967 0)
(0.0502673 0.00163864 0)
(0.0336514 0.00161973 0)
(0.0172902 0.00156689 0)
(0.00193102 0.00152434 0)
(-0.0126081 0.00146666 0)
(-0.0268498 0.00138961 0)
(-0.0404146 0.00131761 0)
(-0.0532125 0.00123011 0)
(-0.0651875 0.00114919 0)
(-0.0763056 0.00106437 0)
(-0.0865441 0.000972376 0)
(-0.0958975 0.000886068 0)
(-0.104366 0.000799099 0)
(-0.111954 0.00071001 0)
(-0.118674 0.000625289 0)
(-0.124541 0.000541551 0)
(-0.129571 0.000458383 0)
(-0.133784 0.000378171 0)
(-0.137197 0.00029913 0)
(-0.139835 0.000222199 0)
(-0.141723 0.000146815 0)
(-0.142848 7.59885e-05 0)
(-0.143284 5.72723e-06 0)
(-0.142992 -6.52289e-05 0)
(-0.14199 -0.000134601 0)
(-0.140301 -0.000201958 0)
(-0.137937 -0.00026859 0)
(-0.134912 -0.000333233 0)
(-0.131234 -0.000396496 0)
(-0.126919 -0.000460352 0)
(-0.121979 -0.000521202 0)
(-0.116423 -0.000580636 0)
(-0.110263 -0.000642037 0)
(-0.10351 -0.000698701 0)
(-0.0961743 -0.000758634 0)
(-0.0882681 -0.000812443 0)
(-0.0798022 -0.000864279 0)
(-0.0707888 -0.000921175 0)
(-0.0612315 -0.000968834 0)
(-0.0493969 -0.0010136 0)
(0.191662 -0.0033974 0)
(0.200295 -0.00282645 0)
(0.208686 -0.00216288 0)
(0.214827 -0.00146502 0)
(0.218593 -0.000739333 0)
(0.219881 -7.81726e-06 0)
(0.218749 0.000712201 0)
(0.215054 0.00144899 0)
(0.208983 0.00216259 0)
(0.200637 0.00279959 0)
(0.190164 0.00341945 0)
(0.177748 0.0039932 0)
(0.163616 0.00441814 0)
(0.148021 0.00484938 0)
(0.131222 0.00510522 0)
(0.11349 0.00537836 0)
(0.0950715 0.00557962 0)
(0.0762176 0.00559918 0)
(0.0571438 0.00565377 0)
(0.0379721 0.00564471 0)
(0.0188267 0.00547862 0)
(0.000711073 0.00531868 0)
(-0.016423 0.00515237 0)
(-0.0331808 0.00488268 0)
(-0.0491568 0.00464328 0)
(-0.0642356 0.00433258 0)
(-0.0783548 0.00405609 0)
(-0.0914744 0.00376459 0)
(-0.103573 0.00344263 0)
(-0.114654 0.00314991 0)
(-0.124729 0.00285714 0)
(-0.133818 0.0025585 0)
(-0.141953 0.00228242 0)
(-0.149165 0.00200745 0)
(-0.155492 0.00175165 0)
(-0.160972 0.00150449 0)
(-0.165644 0.00126477 0)
(-0.169543 0.00103787 0)
(-0.172702 0.00081912 0)
(-0.175158 0.000608166 0)
(-0.176925 0.000405685 0)
(-0.177988 0.000215913 0)
(-0.178429 1.48072e-05 0)
(-0.178184 -0.000188141 0)
(-0.177291 -0.000391431 0)
(-0.175738 -0.000584728 0)
(-0.17347 -0.000791412 0)
(-0.170491 -0.00101723 0)
(-0.166821 -0.00122225 0)
(-0.162389 -0.0014436 0)
(-0.157116 -0.00170427 0)
(-0.151005 -0.00193785 0)
(-0.143985 -0.00223146 0)
(-0.136036 -0.00248493 0)
(-0.127207 -0.00274592 0)
(-0.117401 -0.0030701 0)
(-0.10655 -0.00333637 0)
(-0.094787 -0.00359391 0)
(-0.0820626 -0.00392144 0)
(-0.0683513 -0.00415989 0)
(-0.0537334 -0.00443864 0)
(-0.0382922 -0.00468386 0)
(-0.0222663 -0.00488208 0)
(-0.00570676 -0.00507265 0)
(0.011487 -0.0052071 0)
(0.0291659 -0.00526861 0)
(0.0470791 -0.0053386 0)
(0.0650572 -0.00531147 0)
(0.0829195 -0.00527267 0)
(0.100482 -0.00514987 0)
(0.117506 -0.00496142 0)
(0.13376 -0.00472472 0)
(0.149082 -0.00440771 0)
(0.163264 -0.00401 0)
(0.176077 -0.00359282 0)
(0.187325 -0.00306745 0)
(0.196796 -0.00253449 0)
(0.204178 -0.00190664 0)
(0.209405 -0.00126439 0)
(0.212567 -0.000574847 0)
(0.213237 0.000143954 0)
(0.211472 0.000863898 0)
(0.207429 0.00157378 0)
(0.20096 0.00224656 0)
(0.192205 0.00287892 0)
(0.181518 0.0034645 0)
(0.168909 0.00401757 0)
(0.154702 0.00447002 0)
(0.139082 0.00483397 0)
(0.122239 0.00513675 0)
(0.104511 0.0053881 0)
(0.0860701 0.00555002 0)
(0.0672909 0.00561595 0)
(0.048429 0.00559925 0)
(0.0295826 0.00555428 0)
(0.011321 0.005417 0)
(-0.0065744 0.00529926 0)
(-0.0241875 0.00506605 0)
(-0.0407684 0.00483611 0)
(-0.0565848 0.00463972 0)
(-0.0715286 0.0043529 0)
(-0.085669 0.00401411 0)
(-0.0992996 0.00376263 0)
(-0.111111 0.00343871 0)
(-0.121864 0.00312572 0)
(-0.132111 0.00286178 0)
(-0.141114 0.00254549 0)
(-0.149162 0.0022454 0)
(-0.156239 0.00196098 0)
(-0.162279 0.00164545 0)
(-0.16732 0.00136264 0)
(-0.171455 0.00107727 0)
(-0.174665 0.000815894 0)
(-0.177001 0.000571179 0)
(-0.17849 0.000331712 0)
(-0.179232 0.000103005 0)
(-0.179169 -8.25269e-05 0)
(-0.178458 -0.000319875 0)
(-0.177099 -0.000506225 0)
(-0.174979 -0.000707067 0)
(-0.172246 -0.000912398 0)
(-0.168857 -0.00111971 0)
(-0.164774 -0.00133584 0)
(-0.159963 -0.00153599 0)
(-0.154419 -0.00175974 0)
(-0.148052 -0.00197669 0)
(-0.140927 -0.00222787 0)
(-0.133038 -0.00247419 0)
(-0.124294 -0.00274254 0)
(-0.114715 -0.00301072 0)
(-0.104149 -0.00327726 0)
(-0.0925942 -0.00352313 0)
(-0.0802711 -0.00382943 0)
(-0.0670673 -0.0040922 0)
(-0.0529354 -0.00432127 0)
(-0.0380058 -0.00455429 0)
(-0.0223033 -0.00477625 0)
(-0.00594857 -0.00495926 0)
(0.011004 -0.00511944 0)
(0.0284131 -0.00521348 0)
(0.0460044 -0.00527878 0)
(0.0638532 -0.00528811 0)
(0.0816051 -0.00522591 0)
(0.0988861 -0.00513084 0)
(0.115924 -0.0049309 0)
(0.132027 -0.00467736 0)
(0.14719 -0.00436031 0)
(0.161407 -0.00398998 0)
(0.173995 -0.00354089 0)
(0.185112 -0.0030459 0)
(0.194331 -0.00246502 0)
(0.20159 -0.00187355 0)
(0.206929 -0.00125443 0)
(0.209931 -0.000571843 0)
(0.210718 6.78201e-05 0)
(0.209432 0.000715975 0)
(0.205785 0.00139795 0)
(0.200134 0.00199378 0)
(0.192322 0.00262114 0)
(0.182522 0.00319298 0)
(0.170862 0.00369514 0)
(0.157523 0.00420947 0)
(0.142815 0.00460862 0)
(0.126727 0.00496957 0)
(0.109534 0.00525286 0)
(0.0914929 0.00549629 0)
(0.0726848 0.00566685 0)
(0.0534603 0.00574885 0)
(0.0342368 0.0057637 0)
(0.0148428 0.00575186 0)
(-0.00433548 0.00562136 0)
(-0.0227266 0.00539156 0)
(-0.0407715 0.00524263 0)
(-0.0580349 0.00500238 0)
(-0.0739678 0.00459568 0)
(-0.0888085 0.00427309 0)
(-0.102394 0.00382888 0)
(-0.114929 0.0035165 0)
(-0.126193 0.00314198 0)
(-0.135842 0.00270333 0)
(-0.144293 0.00234778 0)
(-0.151694 0.00200692 0)
(-0.157849 0.00164435 0)
(-0.162843 0.00133602 0)
(-0.166753 0.00103214 0)
(-0.169699 0.000747776 0)
(-0.171827 0.000506901 0)
(-0.173101 0.000269835 0)
(-0.173661 6.98282e-05 0)
(-0.173599 -0.000103726 0)
(-0.172967 -0.000270144 0)
(-0.171831 -0.000424431 0)
(-0.170248 -0.00052503 0)
(-0.168217 -0.000687623 0)
(-0.16575 -0.00080356 0)
(-0.162827 -0.000932084 0)
(-0.159445 -0.00105598 0)
(-0.155651 -0.00121286 0)
(-0.151375 -0.00135376 0)
(-0.146557 -0.00153254 0)
(-0.14114 -0.00171648 0)
(-0.134991 -0.00191424 0)
(-0.128131 -0.00213642 0)
(-0.120493 -0.0023666 0)
(-0.112133 -0.00267198 0)
(-0.102802 -0.00292381 0)
(-0.0923955 -0.00320658 0)
(-0.0811139 -0.0035325 0)
(-0.0687752 -0.00383833 0)
(-0.0553224 -0.0041548 0)
(-0.0408222 -0.00446399 0)
(-0.0253093 -0.00475085 0)
(-0.00886867 -0.0050029 0)
(0.00835723 -0.00523969 0)
(0.0262938 -0.00543326 0)
(0.0447144 -0.0055272 0)
(0.0633871 -0.0055938 0)
(0.082137 -0.00558985 0)
(0.100673 -0.00548595 0)
(0.119025 -0.0052911 0)
(0.136284 -0.00501161 0)
(0.152552 -0.00466231 0)
(0.167597 -0.00422273 0)
(0.180723 -0.00365088 0)
(0.192061 -0.00303847 0)
(0.201304 -0.00243339 0)
(0.208226 -0.00169727 0)
(0.212804 -0.000996092 0)
(0.214707 -0.000199094 0)
(0.214033 0.000546153 0)
(0.211005 0.00127987 0)
(0.205373 0.00203265 0)
(0.197424 0.00267797 0)
(0.187455 0.00326692 0)
(0.175494 0.00382885 0)
(0.16168 0.00430754 0)
(0.146565 0.00472227 0)
(0.13033 0.00501684 0)
(0.113038 0.00526032 0)
(0.0949886 0.00542693 0)
(0.0765249 0.00551985 0)
(0.0580437 0.00553382 0)
(0.0394034 0.00551953 0)
(0.0209439 0.00541807 0)
(0.00307333 0.00524523 0)
(-0.0142584 0.00509095 0)
(-0.0307091 0.00479632 0)
(-0.0467085 0.00463021 0)
(-0.0618573 0.00439971 0)
(-0.0756637 0.0040602 0)
(-0.0891545 0.00382685 0)
(-0.102248 0.00357626 0)
(-0.113549 0.00330323 0)
(-0.123744 0.00298826 0)
(-0.133362 0.00271094 0)
(-0.142127 0.00247465 0)
(-0.150051 0.00220385 0)
(-0.156984 0.00192861 0)
(-0.162991 0.00167343 0)
(-0.168203 0.00143047 0)
(-0.172564 0.0011596 0)
(-0.176079 0.000924378 0)
(-0.178733 0.000662569 0)
(-0.180568 0.000436192 0)
(-0.181619 0.000215671 0)
(-0.181959 -2.85226e-05 0)
(-0.181435 -0.000239932 0)
(-0.18019 -0.000502984 0)
(-0.178214 -0.000719707 0)
(-0.175375 -0.000947452 0)
(-0.171785 -0.00118672 0)
(-0.167438 -0.00142765 0)
(-0.162294 -0.00167842 0)
(-0.156279 -0.00192121 0)
(-0.149364 -0.00216988 0)
(-0.141659 -0.00241423 0)
(-0.13312 -0.00266701 0)
(-0.123695 -0.00292661 0)
(-0.11346 -0.00317356 0)
(-0.102387 -0.00344819 0)
(-0.0904262 -0.00368946 0)
(-0.0776091 -0.00393203 0)
(-0.0639922 -0.00418307 0)
(-0.0496307 -0.00439036 0)
(-0.0345227 -0.00460103 0)
(-0.0187215 -0.0047887 0)
(-0.00248696 -0.00490272 0)
(0.0141386 -0.00505089 0)
(0.0311655 -0.00512205 0)
(0.0483685 -0.00516386 0)
(0.0656496 -0.00514906 0)
(0.0828102 -0.00505692 0)
(0.0996188 -0.0049411 0)
(0.115911 -0.00476125 0)
(0.131467 -0.00449002 0)
(0.146071 -0.00419499 0)
(0.159547 -0.003833 0)
(0.171712 -0.00340156 0)
(0.182384 -0.00293511 0)
(0.191383 -0.00239682 0)
(0.198567 -0.0018463 0)
(0.203847 -0.00125955 0)
(0.207103 -0.0006219 0)
(0.208214 -1.89176e-05 0)
(0.207242 0.000607057 0)
(0.20404 0.00126522 0)
(0.198806 0.00183443 0)
(0.191609 0.0024175 0)
(0.182581 0.00290575 0)
(0.171902 0.00338946 0)
(0.159722 0.00383545 0)
(0.146222 0.00414656 0)
(0.131655 0.00445376 0)
(0.116234 0.00470335 0)
(0.100168 0.00481709 0)
(0.0836902 0.00493159 0)
(0.0670004 0.00491982 0)
(0.0502691 0.00491667 0)
(0.0336456 0.00485991 0)
(0.0172793 0.00470109 0)
(0.00191504 0.00457304 0)
(-0.0126289 0.00440051 0)
(-0.0268735 0.00416924 0)
(-0.0404416 0.00395318 0)
(-0.0532413 0.0036906 0)
(-0.0652183 0.00344773 0)
(-0.0763377 0.00319326 0)
(-0.0865766 0.00291724 0)
(-0.0959304 0.00265827 0)
(-0.104399 0.00239735 0)
(-0.111987 0.00213006 0)
(-0.118707 0.00187588 0)
(-0.124573 0.00162466 0)
(-0.129603 0.00137515 0)
(-0.133815 0.00113451 0)
(-0.137228 0.000897397 0)
(-0.139864 0.00066663 0)
(-0.141752 0.000440411 0)
(-0.142878 0.000227646 0)
(-0.143312 1.74999e-05 0)
(-0.14302 -0.000195651 0)
(-0.142018 -0.000403868 0)
(-0.140328 -0.000605905 0)
(-0.137964 -0.000805788 0)
(-0.134938 -0.000999716 0)
(-0.13126 -0.00118952 0)
(-0.126945 -0.00138109 0)
(-0.122004 -0.00156366 0)
(-0.116447 -0.00174194 0)
(-0.110287 -0.00192617 0)
(-0.103533 -0.00209616 0)
(-0.0961974 -0.00227596 0)
(-0.0882906 -0.0024374 0)
(-0.079824 -0.00259291 0)
(-0.07081 -0.00276361 0)
(-0.0612518 -0.0029066 0)
(-0.0494153 -0.00304093 0)
(0.191814 -0.00566509 0)
(0.200462 -0.00471316 0)
(0.208865 -0.00360673 0)
(0.215014 -0.00244339 0)
(0.218783 -0.00123589 0)
(0.220084 -1.13415e-05 0)
(0.218941 0.00118968 0)
(0.215239 0.00241728 0)
(0.209164 0.00360618 0)
(0.200803 0.00466824 0)
(0.190316 0.00570179 0)
(0.177884 0.00665844 0)
(0.16373 0.0073668 0)
(0.148116 0.00808571 0)
(0.131294 0.00851215 0)
(0.113542 0.00896743 0)
(0.0951037 0.00930277 0)
(0.0762306 0.00933499 0)
(0.0571397 0.00942556 0)
(0.0379508 0.00941016 0)
(0.0187867 0.00913363 0)
(0.00066002 0.00886561 0)
(-0.0164798 0.00858898 0)
(-0.0332457 0.0081391 0)
(-0.0492293 0.00773974 0)
(-0.0643116 0.00722172 0)
(-0.0784341 0.00676052 0)
(-0.0915555 0.00627437 0)
(-0.103653 0.00573757 0)
(-0.114734 0.00524963 0)
(-0.124808 0.00476166 0)
(-0.133894 0.0042638 0)
(-0.142026 0.00380362 0)
(-0.149235 0.00334538 0)
(-0.155559 0.00291903 0)
(-0.161036 0.00250717 0)
(-0.165705 0.00210764 0)
(-0.169601 0.00172991 0)
(-0.172758 0.00136597 0)
(-0.175211 0.00101516 0)
(-0.176975 0.000678894 0)
(-0.178048 0.000356389 0)
(-0.178483 2.43986e-05 0)
(-0.178237 -0.000313932 0)
(-0.177344 -0.000652434 0)
(-0.175791 -0.000974301 0)
(-0.173526 -0.00131863 0)
(-0.170549 -0.00169451 0)
(-0.16688 -0.00203694 0)
(-0.16245 -0.00240555 0)
(-0.157181 -0.00284007 0)
(-0.151072 -0.00322937 0)
(-0.144057 -0.00371928 0)
(-0.136109 -0.00414074 0)
(-0.127281 -0.00457593 0)
(-0.117477 -0.00511657 0)
(-0.106626 -0.00556094 0)
(-0.0948616 -0.00598888 0)
(-0.0821347 -0.00653403 0)
(-0.0684205 -0.00693429 0)
(-0.0538004 -0.00740132 0)
(-0.0383569 -0.00780933 0)
(-0.0223181 -0.00813864 0)
(-0.00574411 -0.00845283 0)
(0.0114528 -0.00868469 0)
(0.0291426 -0.00878789 0)
(0.047072 -0.00890265 0)
(0.0650639 -0.00885607 0)
(0.0829415 -0.00879114 0)
(0.100519 -0.00859115 0)
(0.117561 -0.00826943 0)
(0.133836 -0.00787394 0)
(0.149179 -0.0073482 0)
(0.163368 -0.0066896 0)
(0.176197 -0.0059979 0)
(0.187462 -0.00511497 0)
(0.196952 -0.00422778 0)
(0.204344 -0.00318358 0)
(0.209589 -0.00209978 0)
(0.212753 -0.000954702 0)
(0.213427 0.000235479 0)
(0.21164 0.00144507 0)
(0.207605 0.00262523 0)
(0.201127 0.00374706 0)
(0.192363 0.00479945 0)
(0.181666 0.00577721 0)
(0.169043 0.00669303 0)
(0.154827 0.00745394 0)
(0.139191 0.00805582 0)
(0.122324 0.00857651 0)
(0.104574 0.00898647 0)
(0.086107 0.00925961 0)
(0.0673029 0.00936955 0)
(0.0484303 0.00934313 0)
(0.029555 0.00926018 0)
(0.011292 0.00902531 0)
(-0.00661853 0.00883622 0)
(-0.0242496 0.00844525 0)
(-0.0408197 0.0080636 0)
(-0.0566672 0.00773471 0)
(-0.0716154 0.00724817 0)
(-0.0857511 0.00669353 0)
(-0.0994171 0.0062685 0)
(-0.111189 0.0057295 0)
(-0.121913 0.00520357 0)
(-0.132202 0.00477986 0)
(-0.141206 0.00424171 0)
(-0.149246 0.00374537 0)
(-0.15633 0.0032684 0)
(-0.162364 0.00273837 0)
(-0.167402 0.00227371 0)
(-0.171537 0.00179475 0)
(-0.174743 0.00135977 0)
(-0.177077 0.000950287 0)
(-0.17857 0.000548752 0)
(-0.179299 0.000170946 0)
(-0.17924 -0.000141957 0)
(-0.17852 -0.000533408 0)
(-0.177165 -0.000856723 0)
(-0.17504 -0.00117661 0)
(-0.172308 -0.00151929 0)
(-0.168921 -0.00186711 0)
(-0.164841 -0.00223016 0)
(-0.160028 -0.00256774 0)
(-0.154488 -0.00294037 0)
(-0.148121 -0.00329551 0)
(-0.141 -0.00371207 0)
(-0.133116 -0.00413007 0)
(-0.124369 -0.00457146 0)
(-0.114794 -0.00502423 0)
(-0.104229 -0.00547313 0)
(-0.0926691 -0.00586409 0)
(-0.0803485 -0.00637938 0)
(-0.0671382 -0.00682767 0)
(-0.0529968 -0.00719947 0)
(-0.038075 -0.00759558 0)
(-0.0223665 -0.00797051 0)
(-0.00599834 -0.008272 0)
(0.0109711 -0.00853134 0)
(0.0283892 -0.00868787 0)
(0.0459947 -0.00879851 0)
(0.0638459 -0.00882542 0)
(0.0816139 -0.0087214 0)
(0.0989229 -0.0085475 0)
(0.115981 -0.00822324 0)
(0.132106 -0.00779236 0)
(0.147266 -0.00728085 0)
(0.161517 -0.00664773 0)
(0.174119 -0.0059048 0)
(0.185248 -0.00508613 0)
(0.194489 -0.00410123 0)
(0.201747 -0.00312433 0)
(0.207098 -0.0020865 0)
(0.210099 -0.000958567 0)
(0.210891 0.00011254 0)
(0.209587 0.00119737 0)
(0.205947 0.00233058 0)
(0.200294 0.0033266 0)
(0.192472 0.00437439 0)
(0.182658 0.00532389 0)
(0.170991 0.00615841 0)
(0.157643 0.00702057 0)
(0.142929 0.00768171 0)
(0.126831 0.00828117 0)
(0.10962 0.00876602 0)
(0.0915534 0.00916875 0)
(0.0727159 0.00944376 0)
(0.0534808 0.00958471 0)
(0.0342454 0.00960983 0)
(0.0148307 0.0095894 0)
(-0.00438076 0.00937731 0)
(-0.0227773 0.00898737 0)
(-0.0408249 0.00873799 0)
(-0.0581167 0.0083395 0)
(-0.074049 0.00767125 0)
(-0.088914 0.00713098 0)
(-0.102514 0.00637436 0)
(-0.115043 0.00584572 0)
(-0.1263 0.00523074 0)
(-0.135942 0.00452027 0)
(-0.144393 0.00391627 0)
(-0.151801 0.00333939 0)
(-0.157944 0.00273802 0)
(-0.162939 0.00222866 0)
(-0.166845 0.00171209 0)
(-0.169777 0.00124419 0)
(-0.171898 0.000844956 0)
(-0.173167 0.000450156 0)
(-0.173723 0.000116374 0)
(-0.173658 -0.000179723 0)
(-0.173012 -0.000442815 0)
(-0.171882 -0.000720784 0)
(-0.170291 -0.000878367 0)
(-0.168264 -0.00114711 0)
(-0.165795 -0.0013452 0)
(-0.162871 -0.00155783 0)
(-0.159487 -0.00175717 0)
(-0.155694 -0.0020151 0)
(-0.151429 -0.00225744 0)
(-0.146616 -0.00255903 0)
(-0.1412 -0.00286686 0)
(-0.135059 -0.00319798 0)
(-0.128201 -0.00356268 0)
(-0.120561 -0.00393346 0)
(-0.112215 -0.00445921 0)
(-0.102882 -0.00486906 0)
(-0.0924869 -0.00534868 0)
(-0.0812072 -0.00589643 0)
(-0.0688663 -0.00640391 0)
(-0.0554053 -0.00692296 0)
(-0.0409087 -0.00743623 0)
(-0.0253947 -0.00792662 0)
(-0.00893978 -0.00833949 0)
(0.00830033 -0.00873505 0)
(0.0262568 -0.00904882 0)
(0.0446795 -0.00922584 0)
(0.0633701 -0.00932913 0)
(0.08214 -0.00933517 0)
(0.100715 -0.00913341 0)
(0.119073 -0.00882994 0)
(0.136368 -0.00835263 0)
(0.152649 -0.0077697 0)
(0.167732 -0.00703333 0)
(0.180881 -0.00609638 0)
(0.192215 -0.00506643 0)
(0.201478 -0.00405364 0)
(0.208406 -0.00284112 0)
(0.213004 -0.00165466 0)
(0.214913 -0.00033219 0)
(0.214209 0.000907547 0)
(0.211187 0.00213532 0)
(0.205552 0.00338952 0)
(0.197585 0.0044651 0)
(0.187607 0.00545099 0)
(0.17562 0.00638197 0)
(0.161806 0.00717768 0)
(0.146685 0.00787221 0)
(0.130417 0.00836389 0)
(0.113102 0.00877288 0)
(0.0950338 0.00904705 0)
(0.0765458 0.00919758 0)
(0.0580555 0.00923144 0)
(0.0393916 0.00920772 0)
(0.0209131 0.00903454 0)
(0.00303583 0.00874997 0)
(-0.0143226 0.00848718 0)
(-0.0307745 0.00798944 0)
(-0.0467604 0.00771589 0)
(-0.061932 0.00733997 0)
(-0.0757505 0.00676614 0)
(-0.089235 0.00637582 0)
(-0.102357 0.00595264 0)
(-0.11361 0.00550915 0)
(-0.123789 0.00498362 0)
(-0.133442 0.00452394 0)
(-0.142205 0.00412579 0)
(-0.150134 0.00366962 0)
(-0.157058 0.00322044 0)
(-0.163074 0.00278718 0)
(-0.168286 0.00237705 0)
(-0.17264 0.00193131 0)
(-0.176152 0.00154021 0)
(-0.178801 0.00111 0)
(-0.18064 0.000728107 0)
(-0.181694 0.000358506 0)
(-0.18203 -5.07058e-05 0)
(-0.181504 -0.000395527 0)
(-0.18026 -0.000838319 0)
(-0.178283 -0.00120684 0)
(-0.175445 -0.00157486 0)
(-0.171855 -0.00197533 0)
(-0.167507 -0.00238179 0)
(-0.162364 -0.0027994 0)
(-0.156351 -0.00320498 0)
(-0.149438 -0.00361787 0)
(-0.141731 -0.00402838 0)
(-0.133194 -0.00444801 0)
(-0.123767 -0.0048764 0)
(-0.113533 -0.00528935 0)
(-0.102458 -0.00574692 0)
(-0.0904971 -0.00615313 0)
(-0.077671 -0.00654665 0)
(-0.0640617 -0.0069773 0)
(-0.0496915 -0.00732112 0)
(-0.0345795 -0.00767473 0)
(-0.0187664 -0.0079835 0)
(-0.00252207 -0.0081722 0)
(0.0141122 -0.00841901 0)
(0.0311508 -0.008537 0)
(0.048367 -0.00860828 0)
(0.0656609 -0.0085847 0)
(0.0828352 -0.00843253 0)
(0.0996595 -0.00823664 0)
(0.115969 -0.0079371 0)
(0.131538 -0.00749268 0)
(0.146161 -0.00698798 0)
(0.159653 -0.00640196 0)
(0.171832 -0.00566332 0)
(0.182518 -0.00487836 0)
(0.191528 -0.00399039 0)
(0.198719 -0.00307999 0)
(0.204007 -0.00210519 0)
(0.207271 -0.00104302 0)
(0.208392 -2.69216e-05 0)
(0.207396 0.00101235 0)
(0.204197 0.00210896 0)
(0.19896 0.00305845 0)
(0.191753 0.00403105 0)
(0.182712 0.00484527 0)
(0.172019 0.00565163 0)
(0.159824 0.00639523 0)
(0.146306 0.00691367 0)
(0.131722 0.00742576 0)
(0.116284 0.00784183 0)
(0.1002 0.00803095 0)
(0.0837059 0.00822194 0)
(0.0670008 0.00820204 0)
(0.0502551 0.00819662 0)
(0.033618 0.00810198 0)
(0.0172432 0.00783695 0)
(0.00187056 0.007622 0)
(-0.0126816 0.00733543 0)
(-0.0269311 0.00694958 0)
(-0.0405047 0.00658936 0)
(-0.053307 0.00615163 0)
(-0.0652866 0.00574649 0)
(-0.0764077 0.00532234 0)
(-0.0866466 0.00486216 0)
(-0.0960007 0.00443044 0)
(-0.104469 0.0039955 0)
(-0.112056 0.00354997 0)
(-0.118774 0.00312629 0)
(-0.12464 0.00270757 0)
(-0.129668 0.00229172 0)
(-0.133878 0.00189066 0)
(-0.137289 0.00149551 0)
(-0.139923 0.00111101 0)
(-0.141808 0.000734245 0)
(-0.142937 0.000378912 0)
(-0.143369 2.90292e-05 0)
(-0.143075 -0.000326511 0)
(-0.142072 -0.00067345 0)
(-0.140381 -0.00101006 0)
(-0.138016 -0.00134312 0)
(-0.134989 -0.00166631 0)
(-0.13131 -0.00198266 0)
(-0.126994 -0.00230196 0)
(-0.122053 -0.00260627 0)
(-0.116495 -0.00290338 0)
(-0.110334 -0.00321048 0)
(-0.103579 -0.00349378 0)
(-0.0962424 -0.00379348 0)
(-0.0883343 -0.00406255 0)
(-0.0798662 -0.00432176 0)
(-0.0708512 -0.00460631 0)
(-0.061291 -0.00484467 0)
(-0.0494516 -0.00506862 0)
(0.192043 -0.00793691 0)
(0.200714 -0.00660346 0)
(0.209133 -0.00505346 0)
(0.215296 -0.00342439 0)
(0.219071 -0.00173393 0)
(0.220387 -1.87907e-05 0)
(0.219224 0.00167546 0)
(0.21552 0.00338891 0)
(0.209436 0.00505263 0)
(0.201053 0.00654031 0)
(0.190544 0.00798821 0)
(0.178089 0.00932837 0)
(0.163902 0.0103203 0)
(0.148259 0.0113271 0)
(0.131403 0.0119242 0)
(0.11362 0.0125617 0)
(0.0951519 0.013031 0)
(0.0762501 0.0130753 0)
(0.0571333 0.0132012 0)
(0.0379189 0.0131789 0)
(0.0187265 0.012792 0)
(0.000583351 0.012415 0)
(-0.016565 0.0120284 0)
(-0.0333433 0.0113976 0)
(-0.0493382 0.0108377 0)
(-0.0644257 0.0101118 0)
(-0.0785533 0.00946542 0)
(-0.0916773 0.00878425 0)
(-0.103773 0.00803242 0)
(-0.114854 0.00734904 0)
(-0.124925 0.0066657 0)
(-0.134007 0.00596848 0)
(-0.142135 0.0053242 0)
(-0.149339 0.00468277 0)
(-0.155659 0.00408605 0)
(-0.161132 0.00350959 0)
(-0.165796 0.00295033 0)
(-0.169688 0.00242192 0)
(-0.172841 0.00191322 0)
(-0.175291 0.0014222 0)
(-0.177053 0.000950898 0)
(-0.178133 0.000496901 0)
(-0.178567 2.72488e-05 0)
(-0.178316 -0.000441366 0)
(-0.177424 -0.000913708 0)
(-0.175872 -0.0013635 0)
(-0.17361 -0.00184529 0)
(-0.170635 -0.00237087 0)
(-0.166968 -0.00285141 0)
(-0.162542 -0.00336691 0)
(-0.157279 -0.00397528 0)
(-0.151174 -0.00452044 0)
(-0.144165 -0.00520695 0)
(-0.13622 -0.00579531 0)
(-0.127394 -0.00640563 0)
(-0.117592 -0.00716309 0)
(-0.106741 -0.00778597 0)
(-0.0949744 -0.00838473 0)
(-0.0822453 -0.00914885 0)
(-0.0685227 -0.00970766 0)
(-0.0538995 -0.0103631 0)
(-0.0384554 -0.0109399 0)
(-0.0223998 -0.0113987 0)
(-0.0058073 -0.011842 0)
(0.0114042 -0.0121635 0)
(0.0291135 -0.0123053 0)
(0.0470608 -0.0124706 0)
(0.0650722 -0.0124046 0)
(0.0829707 -0.0123174 0)
(0.100576 -0.0120297 0)
(0.117642 -0.0115869 0)
(0.133941 -0.0110377 0)
(0.149316 -0.0102954 0)
(0.163524 -0.00937147 0)