/*--------------------------------*- C++ -*----------------------------------*\
| =========                 |                                                 |
| \\      /  F ield         | OpenFOAM: The Open Source CFD Toolbox           |
|  \\    /   O peration     | Version:  3.0.1                                 |
|   \\  /    A nd           | Web:      www.OpenFOAM.org                      |
|    \\/     M anipulation  |                                                 |
\*---------------------------------------------------------------------------*/
FoamFile
{
    version     2.0;
    format      ascii;
    class       surfaceScalarField;
    location    "93.4";
    object      alphaPhi;
}
// * * * * * * * * * * * * * * * * * * * * * * * * * * * * * * * * * * * * * //

dimensions      [0 3 -1 0 0 0 0];

internalField   nonuniform List<scalar> 
42423
(
-0.000123986
-6.87373e-06
-0.000116104
-7.88164e-06
-0.000107324
-8.78024e-06
-9.76259e-05
-9.69789e-06
-8.67074e-05
-1.09185e-05
-7.49649e-05
-1.17425e-05
-6.19969e-05
-1.29681e-05
-4.8118e-05
-1.38789e-05
-3.34939e-05
-1.46241e-05
-1.78888e-05
-1.56052e-05
-1.42542e-06
-1.64634e-05
1.56721e-05
-1.70975e-05
3.34628e-05
-1.77908e-05
5.1682e-05
-1.82192e-05
7.03352e-05
-1.86532e-05
8.91911e-05
-1.8856e-05
0.000107781
-1.85899e-05
0.000126062
-1.82813e-05
0.000143805
-1.77425e-05
0.000160578
-1.67735e-05
0.000176265
-1.56865e-05
0.000190645
-1.438e-05
0.000203346
-1.27019e-05
0.000214148
-1.0802e-05
0.000222866
-8.718e-06
0.000229323
-6.45641e-06
0.000233429
-4.10603e-06
0.000235024
-1.59565e-06
0.00023417
8.54633e-07
0.000230781
3.38851e-06
0.000224812
5.96927e-06
0.000216576
8.23535e-06
0.000206095
1.04813e-05
0.000193756
1.23388e-05
0.000179679
1.40771e-05
0.000164012
1.56675e-05
0.000147124
1.6888e-05
0.000129225
1.78991e-05
0.000110521
1.87038e-05
9.14325e-05
1.90882e-05
7.21403e-05
1.92922e-05
5.291e-05
1.92303e-05
3.38141e-05
1.90958e-05
1.51653e-05
1.86488e-05
-2.84324e-06
1.80085e-05
-2.02247e-05
1.73814e-05
-3.68054e-05
1.65807e-05
-5.25116e-05
1.57062e-05
-6.73092e-05
1.47976e-05
-8.1127e-05
1.38178e-05
-9.39313e-05
1.28043e-05
-0.000105741
1.181e-05
-0.000116548
1.08068e-05
-0.000126411
9.86281e-06
-0.00013527
8.85907e-06
-0.000143219
7.94938e-06
-0.000150254
7.03478e-06
-0.000156398
6.14331e-06
-0.000161666
5.26835e-06
-0.000166093
4.42684e-06
-0.000169691
3.59828e-06
-0.000172544
2.85337e-06
-0.000174584
2.03954e-06
-0.000175843
1.25867e-06
-0.000176431
5.88258e-07
-0.000176232
-1.98424e-07
-0.000175227
-1.00539e-06
-0.000173507
-1.71983e-06
-0.000170853
-2.65408e-06
-0.00016751
-3.34374e-06
-0.000163423
-4.0866e-06
-0.00015829
-5.13275e-06
-0.000152489
-5.80126e-06
-0.000145859
-6.63002e-06
-0.000138234
-7.62476e-06
-0.000129806
-8.42846e-06
-0.000120446
-9.35979e-06
-0.000110191
-1.02551e-05
-9.91159e-05
-1.10752e-05
-8.71627e-05
-1.19533e-05
-7.43561e-05
-1.28067e-05
-6.07077e-05
-1.36484e-05
-4.62355e-05
-1.44723e-05
-3.09227e-05
-1.53129e-05
-1.47646e-05
-1.61582e-05
2.18428e-06
-1.69489e-05
1.9881e-05
-1.76968e-05
3.8131e-05
-1.825e-05
5.67159e-05
-1.85849e-05
7.5472e-05
-1.87561e-05
9.40968e-05
-1.86247e-05
0.000112338
-1.82413e-05
0.000129953
-1.76143e-05
0.00014672
-1.67664e-05
0.000162423
-1.5703e-05
0.000176829
-1.44053e-05
0.000189743
-1.29138e-05
0.000200982
-1.12389e-05
0.000210344
-9.36165e-06
0.000217687
-7.34263e-06
0.000222868
-5.18088e-06
0.000225736
-2.86727e-06
0.000226238
-5.01901e-07
0.000224346
1.89292e-06
0.000219894
4.45167e-06
0.000213063
6.83176e-06
0.000203924
9.13912e-06
0.000192619
1.13048e-05
0.000179329
1.32899e-05
0.000164263
1.50665e-05
0.000147675
1.6588e-05
0.000129826
1.78491e-05
0.000111025
1.88005e-05
9.15605e-05
1.94648e-05
7.1684e-05
1.98765e-05
5.1731e-05
1.99531e-05
3.18929e-05
1.98381e-05
1.24438e-05
1.94492e-05
-6.44143e-06
1.88852e-05
-2.45731e-05
1.81316e-05
-4.18229e-05
1.72499e-05
-5.81237e-05
1.63008e-05
-7.34112e-05
1.52874e-05
-8.7551e-05
1.41398e-05
-0.000100598
1.30472e-05
-0.000112581
1.1983e-05
-0.000123371
1.07897e-05
-0.000133119
9.74788e-06
-0.000141744
8.62557e-06
-0.000149285
7.54086e-06
-0.000155835
6.54973e-06
-0.00016149
5.65533e-06
-0.000166141
4.65038e-06
-0.00016993
3.78959e-06
-0.000172911
2.98054e-06
-0.000175104
2.1936e-06
-0.000176513
1.40812e-06
-0.000177268
7.55236e-07
-0.000177336
6.79995e-08
-0.000176708
-6.27541e-07
-0.000175447
-1.26131e-06
-0.000173613
-1.83417e-06
-0.0001712
-2.41245e-06
-0.000168191
-3.00912e-06
-0.000164624
-3.56755e-06
-0.000160437
-4.18673e-06
-0.000155613
-4.82363e-06
-0.00015009
-5.52352e-06
-0.000143761
-6.32918e-06
-0.000136818
-6.94308e-06
-0.000129072
-7.74559e-06
-0.000120563
-8.50872e-06
-0.000111308
-9.25518e-06
-0.000101253
-1.00549e-05
-9.04032e-05
-1.08502e-05
-7.87143e-05
-1.16889e-05
-6.6152e-05
-1.25623e-05
-5.27677e-05
-1.33844e-05
-3.85933e-05
-1.41745e-05
-2.36176e-05
-1.49757e-05
-7.96787e-06
-1.56498e-05
8.26999e-06
-1.62379e-05
2.49707e-05
-1.67008e-05
4.19955e-05
-1.70248e-05
5.91839e-05
-1.71885e-05
7.63159e-05
-1.7132e-05
9.32132e-05
-1.68974e-05
0.000109564
-1.63508e-05
0.000125206
-1.56423e-05
0.00013984
-1.46344e-05
0.000153234
-1.33936e-05
0.000165121
-1.18874e-05
0.000175235
-1.01138e-05
0.000183377
-8.14246e-06
0.000189355
-5.97819e-06
0.000193003
-3.64779e-06
0.000194232
-1.22928e-06
0.000193026
1.20603e-06
0.000189313
3.7131e-06
0.000183198
6.11489e-06
0.000174742
8.45568e-06
0.00016412
1.0622e-05
0.000151583
1.25366e-05
0.000137344
1.42392e-05
0.000121641
1.57025e-05
0.000104778
1.68632e-05
8.70286e-05
1.77495e-05
6.86142e-05
1.84144e-05
4.9948e-05
1.86662e-05
3.12038e-05
1.87441e-05
1.26981e-05
1.85057e-05
-5.47579e-06
1.81739e-05
-2.29748e-05
1.7499e-05
-3.97252e-05
1.67504e-05
-5.56736e-05
1.59484e-05
-7.06766e-05
1.5003e-05
-8.48417e-05
1.41652e-05
-9.79759e-05
1.31342e-05
-0.000110167
1.21911e-05
-0.000121269
1.11023e-05
-0.000131388
1.01183e-05
-0.000140519
9.13112e-06
-0.000148626
8.10765e-06
-0.000155864
7.23746e-06
-0.000162162
6.29779e-06
-0.000167711
5.54893e-06
-0.000172583
4.87214e-06
-0.000176707
4.12414e-06
-0.000180154
3.44752e-06
-0.000183071
2.91687e-06
-0.000185274
2.20301e-06
-0.000186883
1.60893e-06
-0.000187909
1.02622e-06
-0.000188315
4.05534e-07
-0.000188123
-1.92329e-07
-0.000187279
-8.4412e-07
-0.000185807
-1.47154e-06
-0.000183626
-2.18099e-06
-0.000180901
-2.7248e-06
-0.000177443
-3.4585e-06
-0.000173331
-4.11142e-06
-0.000168514
-4.81712e-06
-0.000163015
-5.49928e-06
-0.000156849
-6.16551e-06
-0.000149927
-6.92253e-06
-0.000142381
-7.5458e-06
-0.000134066
-8.31487e-06
-0.000125022
-9.04452e-06
-0.00011522
-9.80137e-06
-0.000104644
-1.05759e-05
-9.32873e-05
-1.1357e-05
-8.11606e-05
-1.21267e-05
-6.82955e-05
-1.28651e-05
-5.46935e-05
-1.36021e-05
-4.04281e-05
-1.42654e-05
-2.55787e-05
-1.48495e-05
-1.02269e-05
-1.53519e-05
5.52113e-06
-1.5748e-05
2.15315e-05
-1.60104e-05
3.76281e-05
-1.60967e-05
5.36417e-05
-1.60138e-05
6.93867e-05
-1.57451e-05
8.45764e-05
-1.51898e-05
9.904e-05
-1.44638e-05
0.000112512
-1.34726e-05
0.000124805
-1.22929e-05
0.000135698
-1.08929e-05
0.000145021
-9.32334e-06
0.000152588
-7.56713e-06
0.000158227
-5.63998e-06
0.000161809
-3.58156e-06
0.000163177
-1.36893e-06
0.000162284
8.93171e-07
0.000159021
3.26238e-06
0.000153398
5.62273e-06
0.000145537
7.8606e-06
0.000135541
9.99647e-06
0.000123604
1.19371e-05
0.000109946
1.36574e-05
9.48069e-05
1.5139e-05
7.84738e-05
1.6333e-05
6.12375e-05
1.72362e-05
4.33949e-05
1.78425e-05
2.52155e-05
1.81794e-05
6.93522e-06
1.82803e-05
-1.11574e-05
1.80926e-05
-2.8818e-05
1.76606e-05
-4.58928e-05
1.70748e-05
-6.2191e-05
1.62981e-05
-7.7648e-05
1.54571e-05
-9.19976e-05
1.43497e-05
-0.000105399
1.34009e-05
-0.000117607
1.22083e-05
-0.000128666
1.10589e-05
-0.000138585
9.91895e-06
-0.0001472
8.61579e-06
-0.000154711
7.51027e-06
-0.00016098
6.26913e-06
-0.000166123
5.14343e-06
-0.000170125
4.00169e-06
-0.000173145
3.02069e-06
-0.000175268
2.12297e-06
-0.000176712
1.44338e-06
-0.0001775
7.88606e-07
-0.00017778
2.79281e-07
-0.000177635
-1.44399e-07
-0.000177067
-5.6853e-07
-0.00017609
-9.76373e-07
-0.000174884
-1.20659e-06
-0.000173319
-1.56501e-06
-0.000171497
-1.82221e-06
-0.000169472
-2.02504e-06
-0.000167064
-2.40714e-06
-0.000164422
-2.64234e-06
-0.000161455
-2.96716e-06
-0.000157975
-3.47969e-06
-0.000154078
-3.89739e-06
-0.000149589
-4.48882e-06
-0.000144428
-5.16065e-06
-0.000138617
-5.81162e-06
-0.000131863
-6.75407e-06
-0.000124268
-7.59514e-06
-0.000115812
-8.45514e-06
-0.000106191
-9.62102e-06
-9.55806e-05
-1.06109e-05
-8.39522e-05
-1.16284e-05
-7.10065e-05
-1.29457e-05
-5.70582e-05
-1.39483e-05
-4.20223e-05
-1.50359e-05
-2.60819e-05
-1.59405e-05
-9.48792e-06
-1.6594e-05
7.84226e-06
-1.73302e-05
2.56474e-05
-1.78051e-05
4.35593e-05
-1.7912e-05
6.15779e-05
-1.80186e-05
7.93083e-05
-1.77304e-05
9.65621e-05
-1.72539e-05
0.000113074
-1.65121e-05
0.000128471
-1.53966e-05
0.000142595
-1.41245e-05
0.000155219
-1.26235e-05
0.000166079
-1.08603e-05
0.000174998
-8.91865e-06
0.000181854
-6.85643e-06
0.000186534
-4.6804e-06
0.000188995
-2.46019e-06
0.000189212
-2.171e-07
0.000187198
2.01385e-06
0.000182947
4.25117e-06
0.000176607
6.33986e-06
0.000168446
8.16087e-06
0.000158597
9.84881e-06
0.000147216
1.1381e-05
0.000134596
1.26196e-05
0.000120881
1.37156e-05
0.000106389
1.44916e-05
9.12637e-05
1.51254e-05
7.56786e-05
1.55851e-05
5.97594e-05
1.59192e-05
4.36526e-05
1.61068e-05
2.75902e-05
1.60624e-05
1.16285e-05
1.59617e-05
-4.1343e-06
1.57627e-05
-1.95635e-05
1.54292e-05
-3.46326e-05
1.50691e-05
-4.92114e-05
1.45788e-05
-6.32271e-05
1.40157e-05
-7.6665e-05
1.34379e-05
-8.9421e-05
1.2756e-05
-0.00010145
1.20285e-05
-0.000112729
1.12798e-05
-0.000123202
1.04729e-05
-0.000132857
9.65451e-06
-0.000141643
8.78643e-06
-0.000149543
7.89929e-06
-0.00015656
7.01756e-06
6.01288e-06
-0.000124024
-1.37431e-05
-0.000116145
-1.57607e-05
-0.000107367
-1.75578e-05
-9.76731e-05
-1.9392e-05
-8.67534e-05
-2.18382e-05
-7.50117e-05
-2.34843e-05
-6.20419e-05
-2.59379e-05
-4.81577e-05
-2.77631e-05
-3.35334e-05
-2.92486e-05
-1.79244e-05
-3.12142e-05
-1.45141e-06
-3.29365e-05
1.5652e-05
-3.42011e-05
3.34482e-05
-3.55871e-05
5.16734e-05
-3.64444e-05
7.03339e-05
-3.73138e-05
8.92073e-05
-3.77295e-05
0.000107816
-3.71992e-05
0.000126116
-3.65808e-05
0.000143878
-3.55043e-05
0.000160664
-3.35599e-05
0.000176363
-3.13852e-05
0.000190741
-2.87586e-05
0.000203445
-2.54061e-05
0.000214257
-2.16135e-05
0.000222997
-1.7458e-05
0.000229466
-1.29255e-05
0.00023357
-8.21004e-06
0.000235165
-3.19111e-06
0.000234296
1.72351e-06
0.000230898
6.7867e-06
0.000224929
1.19383e-05
0.000216687
1.64766e-05
0.000206199
2.09699e-05
0.00019385
2.46876e-05
0.000179763
2.81643e-05
0.000164084
3.13459e-05
0.000147187
3.37855e-05
0.00012927
3.58154e-05
0.000110555
3.7419e-05
9.14539e-05
3.81894e-05
7.21501e-05
3.8596e-05
5.29088e-05
3.84716e-05
3.3806e-05
3.81986e-05
1.51491e-05
3.73057e-05
-2.86297e-06
3.60206e-05
-2.02502e-05
3.47686e-05
-3.68367e-05
3.31673e-05
-5.25478e-05
3.14173e-05
-6.73498e-05
2.95995e-05
-8.11721e-05
2.76402e-05
-9.39792e-05
2.56114e-05
-0.000105793
2.36241e-05
-0.0001166
2.16136e-05
-0.000126467
1.97294e-05
-0.000135333
1.77256e-05
-0.000143282
1.58981e-05
-0.00015032
1.4073e-05
-0.000156468
1.22913e-05
-0.000161736
1.05357e-05
-0.000166161
8.85281e-06
-0.000169759
7.19555e-06
-0.000172616
5.71009e-06
-0.000174663
4.08727e-06
-0.000175926
2.52152e-06
-0.00017651
1.17177e-06
-0.000176314
-3.93711e-07
-0.000175298
-2.02159e-06
-0.000173578
-3.44026e-06
-0.000170923
-5.30883e-06
-0.000167575
-6.69181e-06
-0.000163493
-8.16861e-06
-0.000158372
-1.02538e-05
-0.000152552
-1.16213e-05
-0.000145934
-1.32485e-05
-0.000138311
-1.52474e-05
-0.000129877
-1.68627e-05
-0.000120511
-1.8726e-05
-0.000110253
-2.05126e-05
-9.91716e-05
-2.2157e-05
-8.72231e-05
-2.39019e-05
-7.44151e-05
-2.56147e-05
-6.07615e-05
-2.73022e-05
-4.6265e-05
-2.89689e-05
-3.09619e-05
-3.06161e-05
-1.48015e-05
-3.23187e-05
2.16179e-06
-3.39123e-05
1.98787e-05
-3.54137e-05
3.81408e-05
-3.65122e-05
5.67449e-05
-3.71889e-05
7.55299e-05
-3.75411e-05
9.41749e-05
-3.72696e-05
0.000112439
-3.65056e-05
0.000130079
-3.52533e-05
0.000146864
-3.35515e-05
0.000162582
-3.14203e-05
0.000176995
-2.88181e-05
0.000189911
-2.583e-05
0.000201158
-2.24856e-05
0.000210541
-1.8744e-05
0.000217887
-1.4688e-05
0.00022305
-1.03437e-05
0.000225919
-5.73548e-06
0.000226417
-9.99945e-07
0.000224508
3.80242e-06
0.000220046
8.91308e-06
0.000213201
1.36773e-05
0.000204052
1.82883e-05
0.000192728
2.26286e-05
0.00017942
2.65984e-05
0.000164344
3.01431e-05
0.000147757
3.31745e-05
0.000129868
3.57388e-05
0.000111044
3.76244e-05
9.1549e-05
3.89595e-05
7.16567e-05
3.97689e-05
5.16886e-05
3.99212e-05
3.1829e-05
3.96977e-05
1.23629e-05
3.89153e-05
-6.5491e-06
3.77973e-05
-2.46976e-05
3.62802e-05
-4.19664e-05
3.45186e-05
-5.82581e-05
3.25926e-05
-7.35786e-05
3.06079e-05
-8.77349e-05
2.82962e-05
-0.000100782
2.60938e-05
-0.000112775
2.3976e-05
-0.000123577
2.15924e-05
-0.000133316
1.94869e-05
-0.00014197
1.72794e-05
-0.00014953
1.51012e-05
-0.000156078
1.30976e-05
-0.000161739
1.13159e-05
-0.0001664
9.31133e-06
-0.0001702
7.58951e-06
-0.000173156
5.93648e-06
-0.000175394
4.43171e-06
-0.000176812
2.82616e-06
-0.000177518
1.4611e-06
-0.00017761
1.60452e-07
-0.00017699
-1.24732e-06
-0.000175736
-2.51594e-06
-0.000173889
-3.68102e-06
-0.000171423
-4.87878e-06
-0.00016847
-5.96164e-06
-0.000164893
-7.14429e-06
-0.000160705
-8.37553e-06
-0.00015588
-9.64856e-06
-0.00015034
-1.10634e-05
-0.000144078
-1.25911e-05
-0.000137074
-1.39468e-05
-0.000129305
-1.55147e-05
-0.000120796
-1.70177e-05
-0.000111527
-1.85242e-05
-0.000101459
-2.01236e-05
-9.06105e-05
-2.16983e-05
-7.88898e-05
-2.34097e-05
-6.63395e-05
-2.51127e-05
-5.29461e-05
-2.67778e-05
-3.87516e-05
-2.8369e-05
-2.37579e-05
-2.99695e-05
-8.04388e-06
-3.13639e-05
8.15041e-06
-3.24323e-05
2.48727e-05
-3.34232e-05
4.19168e-05
-3.40691e-05
5.91188e-05
-3.43907e-05
7.62716e-05
-3.42849e-05
9.31746e-05
-3.38006e-05
0.000109552
-3.27288e-05
0.000125227
-3.13174e-05
0.000139862
-2.9269e-05
0.000153265
-2.67966e-05
0.000165159
-2.37819e-05
0.000175298
-2.02532e-05
0.00018346
-1.63038e-05
0.000189435
-1.19537e-05
0.000193088
-7.30078e-06
0.000194328
-2.46982e-06
0.000193109
2.42542e-06
0.000189385
7.43653e-06
0.000183267
1.22329e-05
0.000174809
1.69137e-05
0.000164172
2.12589e-05
0.000151613
2.50948e-05
0.000137356
2.84965e-05
0.000121634
3.14242e-05
0.00010475
3.37478e-05
8.69869e-05
3.55122e-05
6.85497e-05
3.68516e-05
4.98562e-05
3.73597e-05
3.10916e-05
3.75088e-05
1.25535e-05
3.70438e-05
-5.62255e-06
3.635e-05
-2.31463e-05
3.50228e-05
-3.99316e-05
3.35357e-05
-5.58775e-05
3.18943e-05
-7.08886e-05
3.00141e-05
-8.50558e-05
2.83324e-05
-9.81988e-05
2.62771e-05
-0.000110395
2.43877e-05
-0.000121512
2.22195e-05
-0.00013161
2.02156e-05
-0.000140773
1.8295e-05
-0.000148892
1.62257e-05
-0.000156128
1.44737e-05
-0.000162431
1.26016e-05
-0.000167945
1.10625e-05
-0.000172836
9.76352e-06
-0.000176969
8.25723e-06
-0.000180448
6.9256e-06
-0.000183331
5.79992e-06
-0.000185541
4.41364e-06
-0.00018715
3.21772e-06
-0.000188173
2.04943e-06
-0.000188577
8.09163e-07
-0.000188381
-3.88453e-07
-0.000187532
-1.69298e-06
-0.000186059
-2.94451e-06
-0.000183916
-4.32334e-06
-0.000181132
-5.50962e-06
-0.000177677
-6.91355e-06
-0.000173555
-8.23349e-06
-0.000168729
-9.64276e-06
-0.000163228
-1.10004e-05
-0.000157043
-1.23506e-05
-0.000150151
-1.38147e-05
-0.000142579
-1.5117e-05
-0.000134266
-1.66281e-05
-0.000125213
-1.80978e-05
-0.000115402
-1.96121e-05
-0.000104813
-2.1165e-05
-9.34514e-05
-2.27186e-05
-8.13249e-05
-2.42532e-05
-6.84439e-05
-2.5746e-05
-5.48062e-05
-2.72398e-05
-4.05711e-05
-2.85005e-05
-2.57115e-05
-2.97091e-05
-1.03534e-05
-3.071e-05
5.40791e-06
-3.15094e-05
2.14332e-05
-3.20358e-05
3.75572e-05
-3.22208e-05
5.3559e-05
-3.20157e-05
6.93106e-05
-3.14968e-05
8.4513e-05
-3.03924e-05
9.89858e-05
-2.89368e-05
0.000112478
-2.69655e-05
0.000124784
-2.45986e-05
0.000135703
-2.18123e-05
0.000145048
-1.86689e-05
0.000152626
-1.51448e-05
0.000158281
-1.12957e-05
0.000161865
-7.16601e-06
0.000163244
-2.74781e-06
0.000162347
1.78969e-06
0.000159089
6.5203e-06
0.000153473
1.12383e-05
0.000145608
1.57252e-05
0.000135603
2.00015e-05
0.000123658
2.38822e-05
0.00010999
2.73253e-05
9.48367e-05
3.02917e-05
7.84963e-05
3.26733e-05
6.12481e-05
3.44844e-05
4.33943e-05
3.56962e-05
2.52012e-05
3.63724e-05
6.91038e-06
3.6571e-05
-1.11941e-05
3.61971e-05
-2.8861e-05
3.53276e-05
-4.59487e-05
3.41625e-05
-6.22525e-05
3.2602e-05
-7.77159e-05
3.09205e-05
-9.20664e-05
2.87003e-05
-0.000105465
2.67996e-05
-0.000117678
2.44212e-05
-0.000128734
2.21146e-05
-0.000138658
1.98429e-05
-0.000147271
1.72288e-05
-0.000154788
1.50278e-05
-0.000161056
1.25367e-05
-0.000166199
1.02866e-05
-0.000170202
8.00461e-06
-0.000173217
6.03566e-06
-0.000175336
4.24261e-06
-0.00017678
2.88718e-06
-0.000177558
1.56691e-06
-0.000177829
5.49724e-07
-0.00017768
-2.93068e-07
-0.000177108
-1.14061e-06
-0.000176129
-1.95538e-06
-0.000174921
-2.41457e-06
-0.000173348
-3.13773e-06
-0.000171531
-3.63905e-06
-0.000169508
-4.04856e-06
-0.000167106
-4.80899e-06
-0.000164465
-5.28381e-06
-0.0001615
-5.93156e-06
-0.000158024
-6.95608e-06
-0.000154129
-7.79209e-06
-0.000149643
-8.9748e-06
-0.000144487
-1.03168e-05
-0.000138685
-1.16137e-05
-0.000131932
-1.35067e-05
-0.000124338
-1.51891e-05
-0.000115886
-1.69079e-05
-0.000106265
-1.92415e-05
-9.56471e-05
-2.1229e-05
-8.40197e-05
-2.32559e-05
-7.10623e-05
-2.59032e-05
-5.71132e-05
-2.78974e-05
-4.20713e-05
-3.00778e-05
-2.61218e-05
-3.189e-05
-9.51846e-06
-3.31974e-05
7.81629e-06
-3.4665e-05
2.56316e-05
-3.56205e-05
4.35553e-05
-3.58357e-05
6.1587e-05
-3.60503e-05
7.93295e-05
-3.5473e-05
9.65986e-05
-3.4523e-05
0.000113124
-3.30376e-05
0.000128532
-3.08045e-05
0.000142669
-2.82611e-05
0.000155303
-2.52585e-05
0.000166182
-2.17392e-05
0.000175123
-1.78594e-05
0.000181994
-1.37278e-05
0.00018667
-9.35666e-06
0.00018912
-4.90999e-06
0.000189326
-4.23253e-07
0.000187302
4.03844e-06
0.000183045
8.5076e-06
0.000176699
1.26857e-05
0.000168532
1.63278e-05
0.000158675
1.97066e-05
0.000147284
2.27714e-05
0.000134655
2.52486e-05
0.000120932
2.74391e-05
0.000106427
2.89958e-05
9.12924e-05
3.02604e-05
7.56982e-05
3.11793e-05
5.97737e-05
3.18436e-05
4.36598e-05
3.22207e-05
2.75899e-05
3.21323e-05
1.16222e-05
3.19294e-05
-4.14251e-06
3.15274e-05
-1.9575e-05
3.08617e-05
-3.46487e-05
3.01428e-05
-4.92317e-05
2.91618e-05
-6.32494e-05
2.80334e-05
-7.669e-05
2.68784e-05
-8.94473e-05
2.55134e-05
-0.000101476
2.40569e-05
-0.000112756
2.25602e-05
-0.000123233
2.09501e-05
-0.00013289
1.93117e-05
-0.000141678
1.75736e-05
-0.000149577
1.5799e-05
-0.000156599
1.40388e-05
1.20237e-05
-0.000124093
-2.06099e-05
-0.000116216
-2.36377e-05
-0.000107441
-2.63328e-05
-9.77521e-05
-2.90814e-05
-8.68311e-05
-3.27592e-05
-7.50903e-05
-3.52252e-05
-6.21198e-05
-3.89085e-05
-4.82275e-05
-4.16554e-05
-3.35967e-05
-4.38794e-05
-1.79775e-05
-4.68335e-05
-1.49362e-06
-4.94204e-05
1.56264e-05
-5.13211e-05
3.34435e-05
-5.34043e-05
5.16913e-05
-5.46923e-05
7.03738e-05
-5.59963e-05
8.92611e-05
-5.66168e-05
0.000107882
-5.58199e-05
0.000126195
-5.4894e-05
0.000143972
-5.3282e-05
0.000160775
-5.0363e-05
0.000176494
-4.7104e-05
0.000190897
-4.31617e-05
0.000203628
-3.81368e-05
0.000214458
-3.24436e-05
0.000223207
-2.62076e-05
0.000229677
-1.93957e-05
0.000233787
-1.23199e-05
0.000235392
-4.79605e-06
0.000234497
2.61836e-06
0.000231079
1.0205e-05
0.000225111
1.79064e-05
0.00021686
2.47277e-05
0.000206363
3.14669e-05
0.000193996
3.70539e-05
0.000179892
4.22686e-05
0.000164196
4.7042e-05
0.000147266
5.07153e-05
0.00012933
5.37516e-05
0.000110597
5.61511e-05
9.14714e-05
5.73154e-05
7.21461e-05
5.79212e-05
5.28842e-05
5.77335e-05
3.37726e-05
5.73103e-05
1.51038e-05
5.59745e-05
-2.91749e-06
5.40418e-05
-2.03153e-05
5.21664e-05
-3.69097e-05
4.97617e-05
-5.2627e-05
4.71346e-05
-6.7435e-05
4.44075e-05
-8.12618e-05
4.14669e-05
-9.40685e-05
3.84181e-05
-0.000105887
3.5443e-05
-0.000116691
3.24173e-05
-0.000126556
2.95946e-05
-0.000135419
2.65885e-05
-0.000143369
2.38481e-05
-0.00015041
2.11136e-05
-0.000156552
1.84334e-05
-0.000161822
1.58062e-05
-0.00016625
1.32803e-05
-0.00016984
1.07857e-05
-0.000172699
8.56918e-06
-0.000174744
6.13216e-06
-0.000176004
3.78172e-06
-0.00017658
1.74758e-06
-0.000176384
-5.89687e-07
-0.00017536
-3.04553e-06
-0.000173642
-5.15852e-06
-0.000170989
-7.96188e-06
-0.000167635
-1.0046e-05
-0.00016356
-1.22434e-05
-0.00015846
-1.53544e-05
-0.000152617
-1.74643e-05
-0.000146015
-1.985e-05
-0.000138401
-2.2862e-05
-0.000129968
-2.52949e-05
-0.000120579
-2.81158e-05
-0.000110329
-3.07625e-05
-9.92417e-05
-3.32441e-05
-8.73026e-05
-3.58412e-05
-7.44877e-05
-3.84298e-05
-6.0833e-05
-4.0957e-05
-4.63059e-05
-4.34961e-05
-3.1031e-05
-4.5891e-05
-1.48705e-05
-4.84793e-05
2.10482e-06
-5.08877e-05
1.9837e-05
-5.3146e-05
3.81178e-05
-5.4793e-05
5.6748e-05
-5.58192e-05
7.55621e-05
-5.6355e-05
9.42303e-05
-5.59376e-05
0.000112514
-5.47892e-05
0.000130161
-5.29001e-05
0.000146957
-5.03474e-05
0.000162709
-4.7171e-05
0.000177117
-4.32259e-05
0.000190046
-3.87588e-05
0.000201298
-3.37374e-05
0.000210678
-2.81234e-05
0.000218048
-2.20578e-05
0.000223172
-1.54675e-05
0.000226034
-8.59724e-06
0.000226519
-1.48402e-06
0.000224583
5.73828e-06
0.000220124
1.33729e-05
0.000213259
2.05421e-05
0.000204095
2.74529e-05
0.000192751
3.39723e-05
0.000179422
3.99277e-05
0.000164315
4.52506e-05
0.000147689
4.98001e-05
0.000129771
5.36573e-05
0.000110914
5.64811e-05
9.13797e-05
5.84938e-05
7.15023e-05
5.96463e-05
5.1478e-05
5.99455e-05
3.1597e-05
5.95787e-05
1.21444e-05
5.8368e-05
-6.81366e-06
5.67554e-05
-2.49695e-05
5.4436e-05
-4.22639e-05
5.18131e-05
-5.85516e-05
4.88802e-05
-7.38771e-05
4.59334e-05
-8.80594e-05
4.24785e-05
-0.000101123
3.91571e-05
-0.000113109
3.5962e-05
-0.000123915
3.23984e-05
-0.000133607
2.91789e-05
-0.000142305
2.59776e-05
-0.000149871
2.26669e-05
-0.000156443
1.96696e-05
-0.000162078
1.69516e-05
-0.000166755
1.3988e-05
-0.000170555
1.13894e-05
-0.000173468
8.84919e-06
-0.000175748
6.71246e-06
-0.000177172
4.24941e-06
-0.000177834
2.12333e-06
-0.000177909
2.35497e-07
-0.000177321
-1.83551e-06
-0.000176074
-3.76305e-06
-0.00017421
-5.54506e-06
-0.000171729
-7.35919e-06
-0.000168786
-8.90484e-06
-0.000165199
-1.07314e-05
-0.000161012
-1.25625e-05
-0.000156192
-1.44688e-05
-0.000150617
-1.66383e-05
-0.000144417
-1.87913e-05
-0.000137393
-2.097e-05
-0.000129626
-2.32817e-05
-0.000121116
-2.55281e-05
-0.000111844
-2.77967e-05
-0.000101761
-3.02057e-05
-9.0913e-05
-3.25468e-05
-7.9164e-05
-3.51587e-05
-6.66433e-05
-3.76334e-05
-5.32448e-05
-4.01764e-05
-3.90431e-05
-4.25707e-05
-2.40333e-05
-4.49794e-05
-8.30832e-06
-4.70889e-05
7.89282e-06
-4.86335e-05
2.46288e-05
-5.01593e-05
4.16965e-05
-5.11368e-05
5.8912e-05
-5.16063e-05
7.60958e-05
-5.14687e-05
9.29903e-05
-5.06952e-05
0.000109404
-4.91428e-05
0.000125104
-4.70169e-05
0.000139761
-4.39268e-05
0.000153198
-4.0233e-05
0.000165117
-3.5701e-05
0.000175274
-3.04103e-05
0.000183442
-2.44722e-05
0.000189434
-1.79464e-05
0.000193105
-1.09714e-05
0.000194346
-3.71135e-06
0.000193105
3.66691e-06
0.000189381
1.116e-05
0.000183216
1.83975e-05
0.000174755
2.53751e-05
0.000164159
3.18544e-05
0.000151556
3.76976e-05
0.000137269
4.27838e-05
0.000121518
4.71752e-05
0.00010461
5.06554e-05
8.67975e-05
5.3325e-05
6.83737e-05
5.52754e-05
4.9639e-05
5.60943e-05
3.08534e-05
5.62944e-05
1.22561e-05
5.5641e-05
-5.91076e-06
5.45169e-05
-2.34474e-05
5.25595e-05
-4.02547e-05
5.0343e-05
-5.62112e-05
4.78508e-05
-7.12684e-05
4.50713e-05
-8.53933e-05
4.24573e-05
-9.85386e-05
3.94224e-05
-0.000110713
3.65623e-05
-0.000121853
3.33597e-05
-0.000131965
3.03274e-05
-0.00014112
2.74497e-05
-0.000149245
2.43504e-05
-0.000156466
2.16946e-05
-0.000162775
1.89115e-05
-0.00016831
1.65972e-05
-0.000173154
1.46073e-05
-0.000177296
1.2399e-05
-0.000180786
1.04158e-05
-0.000183646
8.65974e-06
-0.000185868
6.63563e-06
-0.000187469
4.81862e-06
-0.000188482
3.06267e-06
-0.000188884
1.21076e-06
-0.000188677
-5.94912e-07
-0.000187834
-2.53612e-06
-0.000186363
-4.41556e-06
-0.000184243
-6.44348e-06
-0.000181434
-8.31828e-06
-0.000177981
-1.0367e-05
-0.00017386
-1.23537e-05
-0.000169026
-1.44773e-05
-0.000163524
-1.65025e-05
-0.000157301
-1.85731e-05
-0.000150465
-2.06509e-05
-0.000142881
-2.27004e-05
-0.00013457
-2.49391e-05
-0.000125513
-2.71555e-05
-0.000115705
-2.94197e-05
-0.000105122
-3.17476e-05
-9.36984e-05
-3.41425e-05
-8.16289e-05
-3.63227e-05
-6.87468e-05
-3.86281e-05
-5.50804e-05
-4.09062e-05
-4.08697e-05
-4.27112e-05
-2.59799e-05
-4.45989e-05
-1.06159e-05
-4.60741e-05
5.16955e-06
-4.72949e-05
2.11917e-05
-4.8058e-05
3.73379e-05
-4.83671e-05
5.33538e-05
-4.80317e-05
6.91053e-05
-4.72485e-05
8.43362e-05
-4.56234e-05
9.88288e-05
-4.34295e-05
0.000112361
-4.04976e-05
0.000124696
-3.69343e-05
0.000135647
-3.27634e-05
0.000145038
-2.80599e-05
0.00015263
-2.2737e-05
0.000158301
-1.69669e-05
0.000161909
-1.07743e-05
0.000163309
-4.14846e-06
0.000162404
2.69478e-06
0.000159147
9.77658e-06
0.000153533
1.68525e-05
0.000145667
2.35909e-05
0.000135663
3.00047e-05
0.000123703
3.5842e-05
0.000110019
4.10091e-05
9.48525e-05
4.54584e-05
7.84945e-05
4.90312e-05
6.1215e-05
5.17638e-05
4.33487e-05
5.35625e-05
2.51473e-05
5.45737e-05
6.84815e-06
5.48702e-05
-1.12768e-05
5.43221e-05
-2.89529e-05
5.30036e-05
-4.60434e-05
5.12531e-05
-6.23495e-05
4.89082e-05
-7.78231e-05
4.63941e-05
-9.21764e-05
4.30536e-05
-0.000105565
4.01884e-05
-0.000117788
3.66436e-05
-0.000128833
3.31603e-05
-0.000138764
2.97741e-05
-0.000147375
2.58392e-05
-0.000154906
2.25592e-05
-0.000161173
1.88035e-05
-0.000166313
1.54261e-05
-0.000170319
1.20112e-05
-0.000173328
9.04459e-06
-0.000175428
6.34268e-06
-0.000176859
4.31796e-06
-0.000177618
2.32613e-06
-0.000177872
8.03807e-07
-0.000177711
-4.53812e-07
-0.000177134
-1.71791e-06
-0.000176152
-2.93723e-06
-0.00017494
-3.6266e-06
-0.000173363
-4.71532e-06
-0.000171554
-5.44776e-06
-0.000169532
-6.07045e-06
-0.000167135
-7.20609e-06
-0.000164494
-7.92433e-06
-0.000161535
-8.89101e-06
-0.000158065
-1.04265e-05
-0.000154174
-1.16824e-05
-0.000149695
-1.34544e-05
-0.000144546
-1.54659e-05
-0.000138762
-1.73971e-05
-0.000132013
-2.02562e-05
-0.000124424
-2.27778e-05
-0.000115979
-2.53532e-05
-0.000106363
-2.88576e-05
-9.57356e-05
-3.18562e-05
-8.41135e-05
-3.4878e-05
-7.1143e-05
-3.88737e-05
-5.71923e-05
-4.18481e-05
-4.21425e-05
-4.51277e-05
-2.61817e-05
-4.78509e-05
-9.56566e-06
-4.98135e-05
7.78487e-06
-5.20156e-05
2.56188e-05
-5.34545e-05
4.35626e-05
-5.37796e-05
6.16189e-05
-5.41067e-05
7.93844e-05
-5.32385e-05
9.66822e-05
-5.18209e-05
0.000113229
-4.95849e-05
0.000128657
-4.62322e-05
0.000142818
-4.24222e-05
0.000155474
-3.79147e-05
0.000166369
-3.26343e-05
0.000175314
-2.68042e-05
0.000182193
-2.06071e-05
0.000186889
-1.40525e-05
0.00018935
-7.37096e-06
0.00018953
-6.03521e-07
0.000187467
6.1013e-06
0.000183199
1.27758e-05
0.000176841
1.90433e-05
0.000168664
2.45054e-05
0.000158791
2.95797e-05
0.000147384
3.41776e-05
0.00013474
3.7893e-05
0.000121009
4.11699e-05
0.00010648
4.35248e-05
9.13278e-05
4.54125e-05
7.57186e-05
4.67885e-05
5.97878e-05
4.77744e-05
4.36687e-05
4.83398e-05
2.75822e-05
4.82189e-05
1.16059e-05
4.79056e-05
-4.1696e-06
4.73029e-05
-1.96101e-05
4.63021e-05
-3.46885e-05
4.52212e-05
-4.92756e-05
4.37489e-05
-6.32972e-05
4.20549e-05
-7.6742e-05
4.03232e-05
-8.95019e-05
3.82733e-05
-0.000101534
3.60887e-05
-0.000112817
3.38432e-05
-0.000123295
3.14287e-05
-0.000132954
2.89708e-05
-0.000141744
2.63636e-05
-0.000149648
2.37023e-05
-0.000156675
2.10658e-05
1.80308e-05
-0.000124198
-2.74728e-05
-0.000116324
-3.15118e-05
-0.000107553
-3.51041e-05
-9.78654e-05
-3.87689e-05
-8.69484e-05
-4.36763e-05
-7.52082e-05
-4.69653e-05
-6.22369e-05
-5.18799e-05
-4.83323e-05
-5.55601e-05
-3.3693e-05
-5.85188e-05
-1.80605e-05
-6.24661e-05
-1.55273e-06
-6.59282e-05
1.5601e-05
-6.84749e-05
3.3445e-05
-7.12483e-05
5.17174e-05
-7.29649e-05
7.04256e-05
-7.47045e-05
8.93357e-05
-7.55269e-05
0.000107985
-7.44697e-05
0.000126327
-7.32361e-05
0.00014413
-7.10843e-05
0.000160967
-6.72005e-05
0.000176714
-6.28505e-05
0.000191143
-5.75915e-05
0.000203899
-5.08921e-05
0.00021475
-4.32947e-05
0.000223532
-3.49898e-05
0.00023002
-2.58844e-05
0.000234125
-1.64245e-05
0.000235721
-6.39255e-06
0.000234795
3.54485e-06
0.000231354
1.36458e-05
0.000225384
2.38764e-05
0.000217117
3.29942e-05
0.000206611
4.19734e-05
0.000194218
4.94469e-05
0.000180089
5.63976e-05
0.000164364
6.27666e-05
0.000147384
6.76955e-05
0.000129418
7.17175e-05
0.000110662
7.49069e-05
9.14981e-05
7.64794e-05
7.21406e-05
7.72787e-05
5.2849e-05
7.70251e-05
3.3723e-05
7.64362e-05
1.50367e-05
7.46608e-05
-3.0001e-06
7.20786e-05
-2.04138e-05
6.95801e-05
-3.70204e-05
6.63683e-05
-5.2747e-05
6.28612e-05
-6.75625e-05
5.9223e-05
-8.13883e-05
5.52928e-05
-9.4202e-05
5.12318e-05
-0.000106025
4.72658e-05
-0.000116825
4.32179e-05
-0.000126692
3.94615e-05
-0.000135557
3.54528e-05
-0.000143506
3.17975e-05
-0.000150549
2.81569e-05
-0.000156688
2.45722e-05
-0.000161957
2.1075e-05
-0.000166386
1.77093e-05
-0.00016997
1.437e-05
-0.000172831
1.14293e-05
-0.000174878
8.17933e-06
-0.000176138
5.04176e-06
-0.000176696
2.30574e-06
-0.000176486
-7.99319e-07
-0.000175457
-4.07489e-06
-0.00017374
-6.87541e-06
-0.000171088
-1.06137e-05
-0.000167726
-1.3408e-05
-0.000163663
-1.6307e-05
-0.000158588
-2.04294e-05
-0.000152717
-2.33357e-05
-0.000146137
-2.64296e-05
-0.000138529
-3.04699e-05
-0.000130108
-3.3716e-05
-0.000120688
-3.75355e-05
-0.000110441
-4.101e-05
-9.93737e-05
-4.43115e-05
-8.74247e-05
-4.77902e-05
-7.46012e-05
-5.12534e-05
-6.0944e-05
-5.46143e-05
-4.63941e-05
-5.8046e-05
-3.11385e-05
-6.11468e-05
-1.49868e-05
-6.46311e-05
2.00622e-06
-6.78807e-05
1.97517e-05
-7.08915e-05
3.80534e-05
-7.30947e-05
5.67187e-05
-7.44844e-05
7.55604e-05
-7.51967e-05
9.42506e-05
-7.46277e-05
0.000112564
-7.3102e-05
0.000130219
-7.05554e-05
0.000147029
-6.71575e-05
0.00016278
-6.29215e-05
0.0001772
-5.76451e-05
0.000190137
-5.16953e-05
0.000201391
-4.49913e-05
0.000210778
-3.75097e-05
0.000218119
-2.93984e-05
0.000223272
-2.06207e-05
0.000226131
-1.14554e-05