/*--------------------------------*- C++ -*----------------------------------*\
| =========                 |                                                 |
| \\      /  F ield         | OpenFOAM: The Open Source CFD Toolbox           |
|  \\    /   O peration     | Version:  3.0.1                                 |
|   \\  /    A nd           | Web:      www.OpenFOAM.org                      |
|    \\/     M anipulation  |                                                 |
\*---------------------------------------------------------------------------*/
FoamFile
{
    version     2.0;
    format      ascii;
    class       surfaceScalarField;
    location    "59.6";
    object      phi;
}
// * * * * * * * * * * * * * * * * * * * * * * * * * * * * * * * * * * * * * //

dimensions      [0 3 -1 0 0 0 0];

internalField   nonuniform List<scalar> 
42423
(
-0.000161375
-1.69667e-06
-0.000158896
-2.47886e-06
-0.000155728
-3.16822e-06
-0.000151851
-3.87704e-06
-0.000147039
-4.81196e-06
-0.000141561
-5.47791e-06
-0.00013513
-6.43078e-06
-0.000127903
-7.22748e-06
-0.000119926
-7.97659e-06
-0.000110879
-9.04656e-06
-0.000100901
-9.97818e-06
-9.0083e-05
-1.08183e-05
-7.81852e-05
-1.18978e-05
-6.53748e-05
-1.28105e-05
-5.14272e-05
-1.39476e-05
-3.65369e-05
-1.48903e-05
-2.09622e-05
-1.55747e-05
-4.42611e-06
-1.65361e-05
1.29436e-05
-1.73698e-05
3.08166e-05
-1.7873e-05
4.92923e-05
-1.84757e-05
6.82349e-05
-1.89426e-05
8.7231e-05
-1.89961e-05
0.000106228
-1.89967e-05
0.000124936
-1.87087e-05
0.000143169
-1.82329e-05
0.000160658
-1.74889e-05
0.000177042
-1.6384e-05
0.000192195
-1.51533e-05
0.000205853
-1.36574e-05
0.000217708
-1.18548e-05
0.000227577
-9.86972e-06
0.000235258
-7.6807e-06
0.000240613
-5.35527e-06
0.000243549
-2.93605e-06
0.000243983
-4.33857e-07
0.000241913
2.07054e-06
0.000237352
4.56092e-06
0.000230312
7.03958e-06
0.000221064
9.24818e-06
0.000209723
1.13413e-05
0.000196586
1.31364e-05
0.000181845
1.47409e-05
0.000165652
1.61934e-05
0.000148371
1.72809e-05
0.000130246
1.81252e-05
0.000111492
1.87539e-05
9.23792e-05
1.91127e-05
7.32051e-05
1.9174e-05
5.41958e-05
1.90093e-05
3.55579e-05
1.86379e-05
1.74554e-05
1.81025e-05
-1.16604e-07
1.7572e-05
-1.68912e-05
1.67746e-05
-3.27916e-05
1.59004e-05
-4.77426e-05
1.4951e-05
-6.17216e-05
1.3979e-05
-7.46793e-05
1.29577e-05
-8.65776e-05
1.18983e-05
-9.74692e-05
1.08917e-05
-0.000107336
9.86661e-06
-0.000116222
8.88596e-06
-0.000124152
7.93011e-06
-0.000131128
6.9759e-06
-0.000137282
6.15372e-06
-0.000142563
5.28125e-06
-0.00014698
4.41762e-06
-0.000150664
3.6836e-06
-0.000153522
2.85835e-06
-0.000155743
2.22097e-06
-0.000157226
1.48316e-06
-0.000157961
7.34894e-07
-0.000158038
7.63445e-08
-0.000157508
-5.30038e-07
-0.000156184
-1.32321e-06
-0.000154215
-1.96929e-06
-0.000151405
-2.80982e-06
-0.000147838
-3.56778e-06
-0.000143533
-4.30473e-06
-0.000138375
-5.15801e-06
-0.000132364
-6.01041e-06
-0.000125518
-6.84689e-06
-0.000117794
-7.72347e-06
-0.000109197
-8.59726e-06
-9.97759e-05
-9.421e-06
-8.94133e-05
-1.03626e-05
-7.81525e-05
-1.12608e-05
-6.59708e-05
-1.21817e-05
-5.28835e-05
-1.30873e-05
-3.88828e-05
-1.40007e-05
-2.40859e-05
-1.47969e-05
-8.54934e-06
-1.55365e-05
7.6754e-06
-1.62248e-05
2.45043e-05
-1.68289e-05
4.18297e-05
-1.73254e-05
5.94956e-05
-1.76659e-05
7.73441e-05
-1.78485e-05
9.52365e-05
-1.78924e-05
0.000112986
-1.77494e-05
0.00013038
-1.7394e-05
0.000147242
-1.68618e-05
0.000163322
-1.60804e-05
0.000178402
-1.50796e-05
0.00019226
-1.38589e-05
0.000204683
-1.24228e-05
0.00021542
-1.07366e-05
0.000224341
-8.92137e-06
0.000231207
-6.86543e-06
0.000235919
-4.71193e-06
0.000238382
-2.46359e-06
0.000238575
-1.92764e-07
0.000236355
2.21963e-06
0.000231705
4.65034e-06
0.000224717
6.98823e-06
0.000215531
9.1856e-06
0.000204268
1.12634e-05
0.000191047
1.32208e-05
0.000176157
1.48901e-05
0.000159763
1.63939e-05
0.000142177
1.75854e-05
0.000123663
1.85141e-05
0.000104495
1.91688e-05
8.49648e-05
1.95299e-05
6.53134e-05
1.96514e-05
4.58054e-05
1.9508e-05
2.66304e-05
1.9175e-05
8.02049e-06
1.86099e-05
-9.89687e-06
1.79174e-05
-2.69445e-05
1.70476e-05
-4.30576e-05
1.61131e-05
-5.81194e-05
1.50618e-05
-7.21353e-05
1.40158e-05
-8.50117e-05
1.28764e-05
-9.67582e-05
1.17466e-05
-0.000107492
1.07339e-05
-0.000117034
9.54224e-06
-0.000125565
8.53015e-06
-0.000132971
7.40671e-06
-0.000139396
6.42523e-06
-0.000144802
5.40573e-06
-0.000149283
4.48073e-06
-0.000152873
3.59012e-06
-0.000155651
2.77786e-06
-0.000157654
2.00277e-06
-0.000158976
1.32277e-06
-0.000159627
6.50139e-07
-0.00015962
-6.39096e-09
-0.000159165
-4.55179e-07
-0.000158084
-1.08117e-06
-0.000156527
-1.55659e-06
-0.000154444
-2.08327e-06
-0.000151848
-2.5957e-06
-0.000148767
-3.08122e-06
-0.000145136
-3.63154e-06
-0.000141028
-4.10722e-06
-0.000136358
-4.67067e-06
-0.000131088
-5.26977e-06
-0.000125172
-5.91557e-06
-0.00011861
-6.56274e-06
-0.00011132
-7.28984e-06
-0.00010331
-8.00941e-06
-9.45113e-05
-8.79905e-06
-8.49482e-05
-9.56316e-06
-7.45843e-05
-1.03639e-05
-6.33541e-05
-1.12302e-05
-5.14319e-05
-1.19222e-05
-3.86634e-05
-1.27686e-05
-2.50708e-05
-1.35926e-05
-1.07825e-05
-1.42883e-05
4.18828e-06
-1.49708e-05
1.97506e-05
-1.55623e-05
3.5794e-05
-1.60434e-05
5.219e-05
-1.6396e-05
6.88e-05
-1.661e-05
8.54004e-05
-1.66004e-05
0.000101874
-1.64737e-05
0.000117948
-1.60739e-05
0.000133385
-1.54375e-05
0.00014796
-1.45744e-05
0.000161376
-1.34161e-05
0.000173376
-1.19997e-05
0.000183684
-1.03083e-05
0.000192036
-8.35172e-06
0.000198307
-6.27146e-06
0.000202217
-3.90969e-06
0.000203763
-1.54607e-06
0.000202854
9.0842e-07
0.000199382
3.47247e-06
0.000193472
5.90989e-06
0.000185252
8.22031e-06
0.000174847
1.04045e-05
0.000162463
1.23839e-05
0.000148334
1.41291e-05
0.000132767
1.55671e-05
0.000116029
1.67385e-05
9.84752e-05
1.75535e-05
8.0402e-05
1.80732e-05
6.2063e-05
1.8339e-05
4.36795e-05
1.83835e-05
2.54465e-05
1.82329e-05
7.59812e-06
1.78484e-05
-9.66708e-06
1.72652e-05
-2.62275e-05
1.65604e-05
-4.20349e-05
1.58074e-05
-5.68191e-05
1.47842e-05
-7.0624e-05
1.3805e-05
-8.33765e-05
1.27525e-05
-9.5012e-05
1.16355e-05
-0.000105483
1.04707e-05
-0.000114901
9.41795e-06
-0.000123151
8.25008e-06
-0.000130354
7.20321e-06
-0.000136704
6.3498e-06
-0.000142141
5.4371e-06
-0.000146872
4.73144e-06
-0.000150967
4.09519e-06
-0.000154473
3.50597e-06
-0.000157479
3.00594e-06
-0.000159995
2.51543e-06
-0.000161991
1.99643e-06
-0.000163533
1.54211e-06
-0.000164612
1.07914e-06
-0.000165204
5.91751e-07
-0.000165332
1.28265e-07
-0.000164965
-3.67903e-07
-0.000164095
-8.70034e-07
-0.000162758
-1.33661e-06
-0.000160903
-1.85497e-06
-0.00015854
-2.36308e-06
-0.00015563
-2.90953e-06
-0.000152177
-3.45291e-06
-0.000148212
-3.96545e-06
-0.000143621
-4.59121e-06
-0.000138358
-5.26256e-06
-0.000132383
-5.97534e-06
-0.000125644
-6.73935e-06
-0.000118105
-7.53845e-06
-0.000109736
-8.36946e-06
-0.000100501
-9.23492e-06
-9.0384e-05
-1.01168e-05
-7.9396e-05
-1.0988e-05
-6.75064e-05
-1.18896e-05
-5.4865e-05
-1.26415e-05
-4.14145e-05
-1.34505e-05
-2.73342e-05
-1.40803e-05
-1.26089e-05
-1.47253e-05
2.65819e-06
-1.52671e-05
1.84106e-05
-1.57524e-05
3.44948e-05
-1.60842e-05
5.07828e-05
-1.6288e-05
6.71193e-05
-1.63366e-05
8.32395e-05
-1.61202e-05
9.89734e-05
-1.57339e-05
0.000113979
-1.50055e-05
0.000128022
-1.4043e-05
0.000140769
-1.27466e-05
0.000151997
-1.12289e-05
0.000161423
-9.42542e-06
0.000168897
-7.47372e-06
0.000174193
-5.29688e-06
0.000177196
-3.00211e-06
0.000177837
-6.41056e-07
0.000176076
1.7603e-06
0.000171882
4.19425e-06
0.000165303
6.57856e-06
0.000156578
8.72502e-06
0.000145852
1.0726e-05
0.000133508
1.23444e-05
0.000119591
1.39171e-05
0.000104382
1.52086e-05
8.83459e-05
1.60363e-05
7.18875e-05
1.64584e-05
5.52259e-05
1.66616e-05
3.84758e-05
1.675e-05
2.22106e-05
1.62652e-05
6.21408e-06
1.59966e-05
-8.96502e-06
1.51791e-05
-2.33803e-05
1.44153e-05
-3.68313e-05
1.3451e-05
-4.92189e-05
1.23876e-05
-6.05476e-05
1.13287e-05
-7.08174e-05
1.02698e-05
-8.02792e-05
9.46176e-06
-8.90333e-05
8.75405e-06
-9.72789e-05
8.24562e-06
-0.000105129
7.84966e-06
-0.000112526
7.39718e-06
-0.000119494
6.96831e-06
-0.000126115
6.62121e-06
-0.000132251
6.13609e-06
-0.000137978
5.72672e-06
-0.000143126
5.14789e-06
-0.000147689
4.56337e-06
-0.000151719
4.02922e-06
-0.000155105
3.3865e-06
-0.000157807
2.70156e-06
-0.000159844
2.03707e-06
-0.000161093
1.24955e-06
-0.000161564
4.71116e-07
-0.000161403
-1.60883e-07
-0.000160544
-8.59557e-07
-0.000159021
-1.52313e-06
-0.00015676
-2.26043e-06
-0.000153606
-3.15425e-06
-0.00014966
-3.94648e-06
-0.000144859
-4.80102e-06
-0.000138897
-5.96139e-06
-0.00013205
-6.84687e-06
-0.000124072
-7.97863e-06
-0.000115073
-8.99904e-06
-0.000105149
-9.92376e-06
-9.40205e-05
-1.11284e-05
-8.19224e-05
-1.20981e-05
-6.8893e-05
-1.30294e-05
-5.47133e-05
-1.41796e-05
-3.96676e-05
-1.50458e-05
-2.36401e-05
-1.60275e-05
-6.8055e-06
-1.68346e-05
1.0629e-05
-1.74345e-05
2.86595e-05
-1.80305e-05
4.71314e-05
-1.84719e-05
6.57046e-05
-1.85733e-05
8.43302e-05
-1.86256e-05
0.000102716
-1.83857e-05
0.000120707
-1.79913e-05
0.000138039
-1.73317e-05
0.000154354
-1.63154e-05
0.000169477
-1.51226e-05
0.000183186
-1.37088e-05
0.000195133
-1.19471e-05
0.000205203
-1.00706e-05
0.000213228
-8.02491e-06
0.000218987
-5.75917e-06
0.000222391
-3.40412e-06
0.000223401
-1.00987e-06
0.000222069
1.33263e-06
0.000218321
3.74748e-06
0.000212131
6.1902e-06
0.000203787
8.34374e-06
0.000193443
1.03437e-05
0.000181116
1.23277e-05
0.000167174
1.39413e-05
0.00015182
1.53543e-05
0.000135365
1.64552e-05
0.000118029
1.73354e-05
0.000100026
1.80037e-05
8.15578e-05
1.84677e-05
6.28744e-05
1.86834e-05
4.41683e-05
1.87061e-05
2.56596e-05
1.85086e-05
7.56511e-06
1.80945e-05
-1.00592e-05
1.76243e-05
-2.70955e-05
1.70363e-05
-4.34096e-05
1.63141e-05
-5.88465e-05
1.54369e-05
-7.34312e-05
1.45847e-05
1.35174e-05
-0.000161407
-3.38827e-06
-0.000158931
-4.95507e-06
-0.000155766
-6.33338e-06
-0.000151895
-7.74818e-06
-0.000147081
-9.62561e-06
-0.000141605
-1.09536e-05
-0.000135173
-1.28636e-05
-0.000127951
-1.44496e-05
-0.000119976
-1.59512e-05
-0.000110931
-1.80916e-05
-0.000100952
-1.99572e-05
-9.01338e-05
-2.16364e-05
-7.82346e-05
-2.37971e-05
-6.54221e-05
-2.5623e-05
-5.14738e-05
-2.78959e-05
-3.65866e-05
-2.97776e-05
-2.09995e-05
-3.11618e-05
-4.45911e-06
-3.30766e-05
1.2918e-05
-3.47469e-05
3.07963e-05
-3.57514e-05
4.9277e-05
-3.69564e-05
6.82296e-05
-3.78952e-05
8.72352e-05
-3.80018e-05
0.000106243
-3.80048e-05
0.000124966
-3.74317e-05
0.000143212
-3.64791e-05
0.000160723
-3.49999e-05
0.000177124
-3.2785e-05
0.000192283
-3.03119e-05
0.000205944
-2.73187e-05
0.000217808
-2.37191e-05
0.000227686
-1.97473e-05
0.000235371
-1.53661e-05
0.000240731
-1.07147e-05
0.000243679
-5.88412e-06
0.000244112
-8.67257e-07
0.000242025
4.1576e-06
0.000237464
9.12189e-06
0.000230425
1.40788e-05
0.000221169
1.85042e-05
0.000209818
2.26916e-05
0.000196672
2.62825e-05
0.000181921
2.94923e-05
0.000165716
3.23981e-05
0.000148424
3.45729e-05
0.000130288
3.62613e-05
0.000111524
3.7518e-05
9.24048e-05
3.82319e-05
7.32153e-05
3.83635e-05
5.4195e-05
3.80296e-05
3.55463e-05
3.72865e-05
1.74368e-05
3.6212e-05
-1.39348e-07
3.51482e-05
-1.6921e-05
3.35563e-05
-3.28284e-05
3.18077e-05
-4.77841e-05
2.99066e-05
-6.17708e-05
2.79657e-05
-7.47353e-05
2.59222e-05
-8.66368e-05
2.37998e-05
-9.75337e-05
2.17885e-05
-0.000107407
1.97397e-05
-0.000116292
1.77716e-05
-0.000124223
1.58605e-05
-0.000131194
1.3947e-05
-0.000137349
1.23086e-05
-0.000142626
1.05588e-05
-0.000147047
8.83794e-06
-0.000150733
7.37025e-06
-0.000153587
5.71218e-06
-0.0001558
4.43369e-06
-0.000157291
2.97435e-06
-0.000158015
1.45857e-06
-0.000158095
1.56766e-07
-0.000157546
-1.07888e-06
-0.000156243
-2.62619e-06
-0.000154274
-3.93818e-06
-0.000151466
-5.61851e-06
-0.000147898
-7.13555e-06
-0.000143594
-8.60883e-06
-0.000138438
-1.03142e-05
-0.000132421
-1.20267e-05
-0.000125579
-1.36891e-05
-0.000117855
-1.54481e-05
-0.000109251
-1.72004e-05
-9.98278e-05
-1.88447e-05
-8.94537e-05
-2.07367e-05
-7.81926e-05
-2.25219e-05
-6.60056e-05
-2.43688e-05
-5.29124e-05
-2.61805e-05
-3.89036e-05
-2.80096e-05
-2.4095e-05
-2.96055e-05
-8.55132e-06
-3.10802e-05
7.67799e-06
-3.24541e-05
2.45155e-05
-3.36665e-05
4.18457e-05
-3.46556e-05
5.95198e-05
-3.53401e-05
7.73802e-05
-3.57089e-05
9.52857e-05
-3.57979e-05
0.000113044
-3.5508e-05
0.000130444
-3.47934e-05
0.000147316
-3.37345e-05
0.000163404
-3.21679e-05
0.000178499
-3.01746e-05
0.000192371
-2.7731e-05
0.000204804
-2.48559e-05
0.000215548
-2.14806e-05
0.000224477
-1.78509e-05
0.000231357
-1.37453e-05
0.00023609
-9.44455e-06
0.000238554
-4.92834e-06
0.000238734
-3.72166e-07
0.000236503
4.45098e-06
0.000231847
9.30536e-06
0.000224851
1.39844e-05
0.000215651
1.83856e-05
0.000204375
2.25392e-05
0.000191136
2.64606e-05
0.000176217
2.98089e-05
0.000159806
3.28051e-05
0.000142195
3.51963e-05
0.000123656
3.70531e-05
0.000104464
3.8361e-05
8.49178e-05
3.90757e-05
6.52406e-05
3.93285e-05
4.5707e-05
3.90417e-05
2.65121e-05
3.83699e-05
7.88303e-06
3.7239e-05
-1.00449e-05
3.58453e-05
-2.71083e-05
3.4111e-05
-4.32307e-05
3.22355e-05
-5.8309e-05
3.01401e-05
-7.23273e-05
2.80342e-05
-8.52175e-05
2.57666e-05
-9.69623e-05
2.34914e-05
-0.000107711
2.14829e-05
-0.000117269
1.91002e-05
-0.000125791
1.70524e-05
-0.000133192
1.4807e-05
-0.000139567
1.28005e-05
-0.000145004
1.08429e-05
-0.000149484
8.96096e-06
-0.000153094
7.20003e-06
-0.000155861
5.54418e-06
-0.000157865
4.00703e-06
-0.000159179
2.63681e-06
-0.000159828
1.29955e-06
-0.000159861
2.58599e-08
-0.000159354
-9.61463e-07
-0.000158286
-2.1499e-06
-0.000156712
-3.13007e-06
-0.000154614
-4.18096e-06
-0.00015202
-5.19046e-06
-0.000148921
-6.18006e-06
-0.000145267
-7.28518e-06
-0.00014119
-8.18494e-06
-0.000136513
-9.34684e-06
-0.000131226
-1.05569e-05
-0.000125314
-1.18282e-05
-0.000118741
-1.31354e-05
-0.000111438
-1.45926e-05
-0.000103433
-1.60146e-05
-9.45991e-05
-1.76331e-05
-8.50605e-05
-1.91018e-05
-7.46867e-05
-2.07377e-05
-6.34489e-05
-2.2468e-05
-5.15236e-05
-2.38476e-05
-3.87429e-05
-2.55493e-05
-2.51457e-05
-2.71898e-05
-1.08486e-05
-2.85854e-05
4.13683e-06
-2.99563e-05
1.9711e-05
-3.11366e-05
3.57677e-05
-3.21001e-05
5.21764e-05
-3.28048e-05
6.87929e-05
-3.32266e-05
8.54198e-05
-3.32273e-05
0.000101905
-3.29594e-05
0.000118003
-3.21717e-05
0.000133461
-3.08953e-05
0.000148057
-2.91706e-05
0.000161484
-2.68434e-05
0.000173492
-2.4007e-05
0.000183809
-2.06257e-05
0.000192163
-1.67061e-05
0.00019845
-1.25584e-05
0.000202365
-7.82468e-06
0.000203905
-3.08556e-06
0.000202982
1.83075e-06
0.000199502
6.95233e-06
0.000193586
1.18259e-05
0.000185349
1.6458e-05
0.00017493
2.08227e-05
0.000162524
2.47899e-05
0.000148367
2.82863e-05
0.000132777
3.11574e-05
0.00011602
3.34955e-05
9.8438e-05
3.51353e-05
8.03381e-05
3.6173e-05
6.19737e-05
3.67035e-05
4.35909e-05
3.67663e-05
2.53228e-05
3.6501e-05
7.46076e-06
3.57105e-05
-9.82424e-06
3.45502e-05
-2.63903e-05
3.31264e-05
-4.22105e-05
3.16276e-05
-5.70186e-05
2.95923e-05
-7.08352e-05
2.76216e-05
-8.35847e-05
2.55021e-05
-9.52383e-05
2.32891e-05
-0.000105701
2.09332e-05
-0.000115104
1.88208e-05
-0.000123376
1.65223e-05
-0.000130597
1.44241e-05
-0.000136918
1.26706e-05
-0.000142359
1.08782e-05
-0.000147089
9.46213e-06
-0.000151182
8.18809e-06
-0.000154678
7.0013e-06
-0.000157635
5.96333e-06
-0.000160193
5.0735e-06
-0.000162184
3.98705e-06
-0.000163683
3.04116e-06
-0.000164793
2.1888e-06
-0.000165393
1.19192e-06
-0.000165514
2.49485e-07
-0.000165147
-7.34681e-07
-0.000164279
-1.73787e-06
-0.000162926
-2.6903e-06
-0.000161062
-3.71814e-06
-0.000158699
-4.72669e-06
-0.000155791
-5.81713e-06
-0.00015233
-6.91387e-06
-0.000148361
-7.93445e-06
-0.000143765
-9.18752e-06
-0.000138487
-1.05409e-05
-0.000132513
-1.19486e-05
-0.000125768
-1.34851e-05
-0.000118216
-1.50899e-05
-0.000109846
-1.674e-05
-0.000100602
-1.84781e-05
-9.04799e-05
-2.02394e-05
-7.94872e-05
-2.19806e-05
-6.76032e-05
-2.37736e-05
-5.49415e-05
-2.53032e-05
-4.14645e-05
-2.69275e-05
-2.73858e-05
-2.8159e-05
-1.26452e-05
-2.9466e-05
2.63811e-06
-3.05504e-05
1.83926e-05
-3.15069e-05
3.44864e-05
-3.21781e-05
5.07883e-05
-3.25899e-05
6.71405e-05
-3.26888e-05
8.32744e-05
-3.22542e-05
9.90239e-05
-3.14835e-05
0.000114042
-3.00239e-05
0.000128094
-2.80949e-05
0.000140852
-2.55042e-05
0.000152102
-2.24796e-05
0.00016153
-1.88527e-05
0.000168998
-1.49421e-05
0.000174296
-1.05954e-05
0.000177303
-6.00866e-06
0.000177944
-1.28244e-06
0.000176162
3.54238e-06
0.000171962
8.3947e-06
0.00016538
1.31604e-05
0.000156648
1.74567e-05
0.00014593
2.14447e-05
0.000133533
2.47407e-05
0.000119601
2.78492e-05
0.000104413
3.03964e-05
8.83564e-05
3.20932e-05
7.18799e-05
3.29349e-05
5.5217e-05
3.33245e-05
3.84508e-05
3.35162e-05
2.21626e-05
3.25534e-05
6.16994e-06
3.19892e-05
-9.02078e-06
3.03698e-05
-2.3447e-05
2.88415e-05
-3.69107e-05
2.69147e-05
-4.93029e-05
2.47798e-05
-6.06313e-05
2.26571e-05
-7.09059e-05
2.05444e-05
-8.03668e-05
1.89227e-05
-8.91031e-05
1.74903e-05
-9.73295e-05
1.6472e-05
-0.000105167
1.56874e-05
-0.000112558
1.4788e-05
-0.000119524
1.39343e-05
-0.000126144
1.32408e-05
-0.000132278
1.22703e-05
-0.000138005
1.14536e-05
-0.000143154
1.0297e-05
-0.000147717
9.12612e-06
-0.000151746
8.05837e-06
-0.000155123
6.76394e-06
-0.000157822
5.40036e-06
-0.000159876
4.09131e-06
-0.000161139
2.51195e-06
-0.000161611
9.43122e-07
-0.000161454
-3.17463e-07
-0.000160599
-1.71502e-06
-0.00015908
-3.04167e-06
-0.000156819
-4.52123e-06
-0.000153668
-6.30594e-06
-0.000149723
-7.8915e-06
-0.000144922
-9.60151e-06
-0.000138967
-1.19169e-05
-0.000132113
-1.3701e-05
-0.000124135
-1.59564e-05
-0.000115136
-1.79981e-05
-0.000105211
-1.98483e-05
-9.40939e-05
-2.22458e-05
-8.19898e-05
-2.42023e-05
-6.89626e-05
-2.60567e-05
-5.47908e-05
-2.83514e-05
-3.97375e-05
-3.00991e-05
-2.36972e-05
-3.20678e-05
-6.85306e-06
-3.36788e-05
1.05766e-05
-3.48642e-05
2.86131e-05
-3.6067e-05
4.70926e-05
-3.69515e-05
6.56756e-05
-3.71563e-05
8.43156e-05
-3.72656e-05
0.000102716
-3.67858e-05
0.000120721
-3.59964e-05
0.000138068
-3.46789e-05
0.000154399
-3.26465e-05
0.000169535
-3.02586e-05
0.000183253
-2.74266e-05
0.000195213
-2.39074e-05
0.000205302
-2.01593e-05
0.00021333
-1.60535e-05
0.000219095
-1.15243e-05
0.000222505
-6.81412e-06
0.000223519
-2.02359e-06
0.000222179
2.67282e-06
0.000218431
7.49533e-06
0.000212239
1.23825e-05
0.000203888
1.66939e-05
0.000193537
2.06955e-05
0.000181196
2.46683e-05
0.000167245
2.78922e-05
0.00015188
3.07196e-05
0.000135413
3.29222e-05
0.000118064
3.46842e-05
0.000100046
3.60214e-05
8.15726e-05
3.69415e-05
6.28793e-05
3.73767e-05
4.41699e-05
3.74156e-05
2.56472e-05
3.70313e-05
7.54003e-06
3.62017e-05
-1.00815e-05
3.52458e-05
-2.71211e-05
3.40759e-05
-4.34394e-05
3.26324e-05
-5.88799e-05
3.08774e-05
-7.34676e-05
2.91724e-05
2.70364e-05
-0.000161462
-5.07949e-06
-0.000158987
-7.43006e-06
-0.000155823
-9.49742e-06
-0.00015195
-1.16213e-05
-0.000147142
-1.44338e-05
-0.000141667
-1.64281e-05
-0.000135235
-1.92963e-05
-0.000128022
-2.16622e-05
-0.00012005
-2.39232e-05
-0.000111009
-2.71326e-05
-0.000101028
-2.99378e-05
-9.02093e-05
-3.24556e-05
-7.83115e-05
-3.56949e-05
-6.5497e-05
-3.84376e-05
-5.15553e-05
-4.18375e-05
-3.66811e-05
-4.46518e-05
-2.10675e-05
-4.67754e-05
-4.52209e-06
-4.9622e-05
1.28793e-05
-5.21483e-05
3.0772e-05
-5.36442e-05
4.92651e-05
-5.54496e-05
6.82358e-05
-5.68659e-05
8.7258e-05
-5.70239e-05
0.000106283
-5.70298e-05
0.000125025
-5.61735e-05
0.000143292
-5.4746e-05
0.000160825
-5.25329e-05
0.00017724
-4.92006e-05
0.000192418
-4.54898e-05
0.0002061
-4.10011e-05
0.000217985
-3.56034e-05
0.000227876
-2.96385e-05
0.00023557
-2.30603e-05
0.000240937
-1.60812e-05
0.000243885
-8.83264e-06
0.000244308
-1.29045e-06
0.000242199
6.26702e-06
0.000237638
1.36825e-05
0.0002306
2.1117e-05
0.00022133
2.77739e-05
0.000209964
3.40578e-05
0.0001968
3.94466e-05
0.000182029
4.42632e-05
0.000165804
4.86233e-05
0.000148491
5.18853e-05
0.000130335
5.44172e-05
0.000111553
5.63003e-05
9.24304e-05
5.73545e-05
7.32083e-05
5.75857e-05
5.41671e-05
5.70708e-05
3.54978e-05
5.59559e-05
1.73605e-05
5.43493e-05
-2.03689e-07
5.27123e-05
-1.69914e-05
5.0344e-05
-3.29056e-05
4.77219e-05
-4.78653e-05
4.48663e-05
-6.18565e-05
4.1957e-05
-7.48235e-05
3.88893e-05
-8.67268e-05
3.5703e-05
-9.76237e-05
3.26854e-05
-0.000107494
2.96099e-05
-0.00011638
2.66576e-05
-0.000124309
2.37895e-05
-0.000131272
2.09099e-05
-0.000137424
1.84604e-05
-0.000142698
1.58332e-05
-0.000147118
1.32576e-05
-0.000150805
1.10581e-05
-0.000153649
8.55607e-06
-0.000155845
6.62921e-06
-0.000157353
4.48286e-06
-0.00015806
2.16528e-06
-0.000158148
2.45012e-07
-0.000157579
-1.64841e-06
-0.000156296
-3.90908e-06
-0.000154334
-5.90046e-06
-0.000151528
-8.4245e-06
-0.000147963
-1.07006e-05
-0.000143663
-1.2909e-05
-0.000138506
-1.54705e-05
-0.000132496
-1.80366e-05
-0.000125659
-2.0527e-05
-0.000117939
-2.31673e-05
-0.00010932
-2.58198e-05
-9.98975e-05
-2.82671e-05
-8.95277e-05
-3.11065e-05
-7.82669e-05
-3.37827e-05
-6.60799e-05
-3.65558e-05
-5.29801e-05
-3.92803e-05
-3.89771e-05
-4.20125e-05
-2.41724e-05
-4.44103e-05
-8.6349e-06
-4.66177e-05
7.61539e-06
-4.87044e-05
2.44569e-05
-5.0508e-05
4.1788e-05
-5.19867e-05
5.94716e-05
-5.30238e-05
7.73324e-05
-5.35697e-05
9.52661e-05
-5.37317e-05
0.000113015
-5.32568e-05
0.000130425
-5.2204e-05
0.000147327
-5.06356e-05
0.000163402
-4.82431e-05
0.00017851
-4.52826e-05
0.000192387
-4.16081e-05
0.000204841
-3.73105e-05
0.000215616
-3.22549e-05
0.000224561
-2.67961e-05
0.000231453
-2.06374e-05
0.000236192
-1.41842e-05
0.000238695
-7.43109e-06
0.00023882
-4.96925e-07
0.000236584
6.68707e-06
0.000231934
1.39546e-05
0.000224954
2.09649e-05
0.000215719
2.76202e-05
0.000204422
3.38367e-05
0.000191167
3.97153e-05
0.000176213
4.4763e-05
0.000159787
4.92308e-05
0.000142154
5.28293e-05
0.000123592
5.56154e-05
0.000104367
5.75853e-05
8.48004e-05
5.86425e-05
6.51066e-05
5.90222e-05
4.55505e-05
5.85977e-05
2.63382e-05
5.75822e-05
7.69232e-06
5.58849e-05
-1.0241e-05
5.37786e-05
-2.73191e-05
5.11891e-05
-4.34523e-05
4.83687e-05
-5.85397e-05
4.52275e-05
-7.25503e-05
4.20448e-05
-8.54665e-05
3.86828e-05
-9.72605e-05
3.52854e-05
-0.000107961
3.21838e-05
-0.000117522
2.86605e-05
-0.000126029
2.55597e-05
-0.000133434
2.22123e-05
-0.000139804
1.91705e-05
-0.000145258
1.62969e-05
-0.000149673
1.33754e-05
-0.000153326
1.08532e-05
-0.000156082
8.30004e-06
-0.000158088
6.01287e-06
-0.000159395
3.94389e-06
-0.000160046
1.95102e-06
-0.000160103
8.25893e-08
-0.000159546
-1.51851e-06
-0.00015849
-3.20532e-06
-0.000156915
-4.70518e-06
-0.000154823
-6.27339e-06
-0.000152222
-7.79082e-06
-0.000149081
-9.32151e-06
-0.000145478
-1.08884e-05
-0.000141407
-1.22555e-05
-0.000136721
-1.40335e-05
-0.000131423
-1.58544e-05
-0.000125518
-1.77336e-05
-0.000118943
-1.97104e-05
-0.000111631
-2.1904e-05
-0.000103639
-2.40074e-05
-9.478e-05
-2.64918e-05
-8.52687e-05
-2.86132e-05
-7.48913e-05
-3.11151e-05
-6.36867e-05
-3.36727e-05
-5.17231e-05
-3.58112e-05
-3.89346e-05
-3.83378e-05
-2.53501e-05
-4.07743e-05
-1.10451e-05
-4.28905e-05
3.96738e-06
-4.49688e-05
1.95383e-05
-4.67075e-05
3.56106e-05
-4.81724e-05
5.2042e-05
-4.92363e-05
6.86666e-05
-4.98512e-05
8.53208e-05
-4.98816e-05
0.000101823
-4.94611e-05
0.000117949
-4.82982e-05
0.000133418
-4.63641e-05
0.000148053
-4.38055e-05
0.000161489
-4.02797e-05
0.000173519
-3.60369e-05
0.000183865
-3.09719e-05
0.000192241
-2.50823e-05
0.000198517
-1.88346e-05
0.000202456
-1.17634e-05
0.000204009
-4.63812e-06
0.000203067
2.77268e-06
0.000199573
1.04463e-05
0.000193653
1.77459e-05
0.000185399
2.47117e-05
0.000174959
3.12626e-05
0.000162543
3.72059e-05
0.000148363
4.24662e-05
0.000132745
4.67753e-05
0.000115995
5.02458e-05
9.83562e-05
5.2774e-05
8.02262e-05
5.4303e-05
6.18349e-05
5.50948e-05
4.343e-05
5.51712e-05
2.51455e-05
5.47855e-05
7.27493e-06
5.3581e-05
-1.00297e-05
5.18548e-05
-2.66344e-05
4.97312e-05
-4.2415e-05
4.74082e-05
-5.72596e-05
4.44369e-05
-7.10807e-05
4.14427e-05
-8.37862e-05
3.82076e-05
-9.55088e-05
3.50117e-05
-0.000105964
3.13881e-05
-0.00011532
2.81769e-05
-0.000123626
2.48288e-05
-0.000130857
2.16544e-05
-0.000137156
1.89704e-05
-0.000142591
1.63129e-05
-0.000147308
1.41796e-05
-0.0001514
1.22798e-05
-0.000154888
1.04894e-05
-0.00015784
8.91539e-06
-0.000160394
7.62701e-06
-0.000162388
5.98084e-06
-0.00016388
4.53382e-06
-0.000164995
3.30323e-06
-0.000165601
1.79805e-06
-0.000165717
3.65726e-07
-0.000165353
-1.09828e-06
-0.000164486
-2.60508e-06
-0.000163125
-4.0512e-06
-0.000161258
-5.58523e-06
-0.000158898
-7.08724e-06
-0.000155996
-8.7187e-06
-0.000152567
-1.03425e-05
-0.000148557
-1.19445e-05
-0.00014396
-1.37846e-05
-0.000138687
-1.5814e-05
-0.000132714
-1.79218e-05
-0.000125969
-2.02302e-05
-0.000118422
-2.26368e-05
-0.000110056
-2.51065e-05
-0.000100796
-2.77374e-05
-9.06971e-05
-3.03388e-05
-7.9698e-05
-3.29798e-05
-6.78303e-05
-3.56413e-05
-5.51446e-05
-3.7989e-05
-4.16419e-05
-4.04302e-05
-2.75694e-05
-4.22315e-05
-1.27813e-05
-4.42541e-05
2.47608e-06
-4.58079e-05
1.82431e-05
-4.72739e-05
3.43554e-05
-4.82905e-05
5.06718e-05
-4.89062e-05
6.70394e-05
-4.90565e-05
8.32062e-05
-4.84211e-05
9.89668e-05
-4.7244e-05
0.000114015
-4.50717e-05
0.000128094
-4.2174e-05
0.000140879
-3.82896e-05
0.000152124
-3.37248e-05
0.000161579
-2.83077e-05
0.000169066
-2.2429e-05
0.000174406
-1.59355e-05
0.000177402
-9.00478e-06
0.000178044
-1.92392e-06
0.000176255
5.33053e-06
0.00017206
1.259e-05
0.000165481
1.97392e-05
0.000156744
2.61941e-05
0.000146066
3.2123e-05
0.000133578
3.7228e-05
0.000119615
4.18125e-05
0.000104447
4.55642e-05
8.83657e-05
4.81747e-05
7.18658e-05
4.94348e-05
5.51977e-05
4.99926e-05
3.83987e-05
5.03152e-05
2.20796e-05
4.88724e-05
6.093e-06
4.79758e-05
-9.11724e-06
4.55801e-05
-2.35633e-05
4.32876e-05
-3.70445e-05
4.03958e-05
-4.94482e-05
3.71836e-05
-6.07769e-05
3.39858e-05
-7.10413e-05
3.08088e-05
-8.04765e-05
2.83579e-05
-8.9186e-05
2.61998e-05
-9.73972e-05
2.46833e-05
-0.000105218
2.35082e-05
-0.000112597
2.21672e-05
-0.000119561
2.08979e-05
-0.000126179
1.98588e-05
-0.00013231
1.8402e-05
-0.000138034
1.71772e-05
-0.00014318
1.54433e-05
-0.000147738
1.36838e-05
-0.000151762
1.20828e-05
-0.000155145
1.01464e-05
-0.000157838
8.09317e-06
-0.000159884
6.1379e-06
-0.000161153
3.78031e-06
-0.000161659
1.44911e-06
-0.000161512
-4.63875e-07
-0.000160662
-2.56484e-06
-0.000159149
-4.55541e-06
-0.000156888
-6.78171e-06
-0.00015374
-9.45371e-06
-0.000149798
-1.18343e-05
-0.000144999
-1.43999e-05
-0.000139053
-1.78631e-05
-0.000132189
-2.05654e-05
-0.000124215
-2.39306e-05
-0.000115218
-2.69945e-05
-0.000105295
-2.97716e-05
-9.41935e-05
-3.3347e-05
-8.20773e-05
-3.63186e-05
-6.90493e-05
-3.90846e-05
-5.48778e-05
-4.25229e-05
-3.98238e-05
-4.51532e-05
-2.37838e-05
-4.81079e-05
-6.9354e-06
-5.05272e-05
1.04781e-05
-5.22777e-05
2.85199e-05
-5.41088e-05
4.70119e-05
-5.54435e-05
6.5613e-05
-5.57575e-05
8.42733e-05
-5.59259e-05
0.000102699
-5.52112e-05
0.000120732
-5.40298e-05
0.000138108
-5.20549e-05
0.000154463
-4.90018e-05
0.000169627
-4.54224e-05
0.000183376
-4.11755e-05
0.000195355
-3.58866e-05
0.000205462
-3.02667e-05
0.000213502
-2.40937e-05
0.000219282
-1.73035e-05
0.000222707
-1.02394e-05
0.000223725
-3.04218e-06
0.000222357
4.04152e-06
0.000218606
1.12458e-05
0.00021241
1.85786e-05
0.000204049
2.50554e-05
0.000193683
3.10611e-05
0.000181321
3.70302e-05
0.000167355
4.18586e-05
0.000151971
4.61026e-05
0.000135484
4.94091e-05
0.000118112
5.20566e-05
0.00010007
5.40634e-05
8.15873e-05
5.54242e-05
6.28781e-05
5.60858e-05
4.41656e-05
5.6128e-05
2.56193e-05
5.55776e-05
7.48919e-06
5.43318e-05
-1.0132e-05
5.2867e-05
-2.71795e-05
5.11233e-05
-4.35049e-05
4.89578e-05
-5.89504e-05
4.63228e-05
-7.35426e-05
4.37646e-05
4.05563e-05
-0.000161545
-6.76996e-06
-0.000159071
-9.90339e-06
-0.000155909
-1.26596e-05
-0.000152033
-1.54976e-05
-0.000147233
-1.92334e-05
-0.00014176
-2.1901e-05
-0.000135328
-2.57286e-05
-0.000128129
-2.88611e-05
-0.000120161
-3.1891e-05
-0.00011113
-3.61641e-05
-0.000101144
-3.99238e-05
-9.03255e-05
-4.3274e-05
-7.843e-05
-4.75904e-05
-6.56145e-05
-5.1253e-05
-5.16834e-05
-5.57687e-05
-3.68019e-05
-5.95333e-05
-2.11699e-05
-6.24074e-05
-4.61785e-06
-6.61741e-05
1.28314e-05
-6.95976e-05
3.07477e-05
-7.15605e-05
4.92592e-05
-7.39611e-05
6.82527e-05
-7.58595e-05
8.72942e-05
-7.60654e-05
0.000106347
-7.60823e-05
0.00012512
-7.49469e-05
0.000143421
-7.30467e-05
0.00016099
-7.01021e-05
0.000177429
-6.56399e-05
0.000192632
-6.06932e-05
0.000206341
-5.47102e-05
0.000218253
-4.75149e-05
0.000228157
-3.95425e-05
0.000235863
-3.07663e-05
0.000241239
-2.14573e-05
0.000244192
-1.1786e-05
0.000244601
-1.69925e-06
0.000242463
8.40462e-06
0.000237903
1.82425e-05
0.000230863
2.81573e-05
0.000221572
3.70649e-05
0.000210182
4.54481e-05
0.000196991
5.26378e-05
0.00018219
5.90635e-05
0.000165934
6.48793e-05
0.000148591
6.92283e-05
0.000130406
7.26029e-05
0.000111596
7.51102e-05
9.24768e-05
7.64733e-05
7.3199e-05
7.68634e-05
5.41258e-05
7.61439e-05
3.54263e-05
7.46553e-05
1.72534e-05
7.25222e-05
-3.00592e-07
7.02663e-05
-1.70992e-05
6.71426e-05
-3.30228e-05
6.36455e-05
-4.79889e-05
5.98325e-05
-6.19891e-05
5.59571e-05
-7.49612e-05
5.18613e-05
-8.68672e-05
4.76091e-05
-9.77625e-05
4.35807e-05
-0.000107622
3.94697e-05
-0.000116517
3.55526e-05
-0.000124443
3.17157e-05
-0.000131397
2.78634e-05
-0.000137543
2.46065e-05
-0.000142807
2.10973e-05
-0.00014722
1.76707e-05
-0.000150915
1.47525e-05
-0.000153745
1.13859e-05
-0.000155914
8.79886e-06
-0.000157447
6.01585e-06
-0.000158116
2.83399e-06
-0.000158232
3.61069e-07
-0.000157663
-2.21744e-06
-0.000156373
-5.19876e-06
-0.000154424
-7.84945e-06
-0.000151623
-1.12259e-05
-0.000148062
-1.42612e-05
-0.000143769
-1.72025e-05
-0.000138615
-2.06239e-05
-0.00013261
-2.40423e-05
-0.00012578
-2.7357e-05
-0.000118066
-3.08813e-05
-0.000109431
-3.44543e-05
-0.000100013
-3.76849e-05
-8.9645e-05
-4.1475e-05
-7.83866e-05
-4.50412e-05
-6.62e-05
-4.87424e-05
-5.3079e-05
-5.24013e-05
-3.91162e-05
-5.59754e-05
-2.4366e-05
-5.91605e-05
-8.76981e-06
-6.2214e-05
7.4955e-06
-6.49697e-05
2.43632e-05
-6.73757e-05
4.16758e-05
-6.92994e-05
5.93911e-05
-7.07391e-05
7.72358e-05
-7.14144e-05
9.51559e-05
-7.16519e-05
0.000112934
-7.1035e-05
0.000130361
-6.96308e-05
0.000147242
-6.75171e-05
0.000163356