/*--------------------------------*- C++ -*----------------------------------*\
| =========                 |                                                 |
| \\      /  F ield         | OpenFOAM: The Open Source CFD Toolbox           |
|  \\    /   O peration     | Version:  3.0.1                                 |
|   \\  /    A nd           | Web:      www.OpenFOAM.org                      |
|    \\/     M anipulation  |                                                 |
\*---------------------------------------------------------------------------*/
FoamFile
{
    version     2.0;
    format      ascii;
    class       surfaceScalarField;
    location    "24.4";
    object      phi;
}
// * * * * * * * * * * * * * * * * * * * * * * * * * * * * * * * * * * * * * //

dimensions      [0 3 -1 0 0 0 0];

internalField   nonuniform List<scalar> 
44922
(
0.000109022
1.26293e-05
9.61469e-05
1.28748e-05
8.28898e-05
1.32571e-05
6.9511e-05
1.33788e-05
5.59261e-05
1.35849e-05
4.24053e-05
1.35208e-05
2.89268e-05
1.34784e-05
1.57458e-05
1.3181e-05
2.9143e-06
1.28315e-05
-9.40268e-06
1.2317e-05
-2.11272e-05
1.17245e-05
-3.21597e-05
1.10325e-05
-4.24618e-05
1.03021e-05
-5.19921e-05
9.53026e-06
-6.07525e-05
8.76047e-06
-6.87415e-05
7.98894e-06
-7.59796e-05
7.23809e-06
-8.24911e-05
6.51154e-06
-8.83084e-05
5.81721e-06
-9.34668e-05
5.15846e-06
-9.79936e-05
4.52675e-06
-0.000101924
3.93001e-06
-0.000105267
3.34381e-06
-0.000108042
2.7748e-06
-0.000110245
2.20278e-06
-0.000111872
1.62727e-06
-0.00011292
1.0479e-06
-0.000113401
4.81162e-07
-0.000113317
-8.43834e-08
-0.000112672
-6.44982e-07
-0.000111458
-1.21407e-06
-0.00010969
-1.76827e-06
-0.000107354
-2.33519e-06
-0.000104493
-2.86193e-06
-0.000101121
-3.37109e-06
-9.72184e-05
-3.90301e-06
-9.28421e-05
-4.37632e-06
-8.79448e-05
-4.89736e-06
-8.26065e-05
-5.33828e-06
-7.67637e-05
-5.84281e-06
-7.05e-05
-6.26365e-06
-6.37483e-05
-6.7517e-06
-5.65915e-05
-7.15689e-06
-4.89883e-05
-7.60316e-06
-4.10129e-05
-7.97537e-06
-3.26365e-05
-8.37642e-06
-2.395e-05
-8.6865e-06
-1.49531e-05
-8.9969e-06
-5.73863e-06
-9.2145e-06
3.64292e-06
-9.38155e-06
1.30947e-05
-9.45174e-06
2.24932e-05
-9.39857e-06
3.17854e-05
-9.29217e-06
4.08622e-05
-9.07679e-06
4.96571e-05
-8.795e-06
5.80952e-05
-8.43805e-06
6.61311e-05
-8.03592e-06
7.37223e-05
-7.59117e-06
8.08496e-05
-7.12738e-06
8.74973e-05
-6.64769e-06
9.36667e-05
-6.16938e-06
9.9355e-05
-5.68835e-06
0.000104574
-5.21932e-06
0.000109324
-4.74966e-06
0.000113615
-4.29079e-06
0.000117443
-3.82801e-06
0.000120814
-3.37117e-06
0.000123718
-2.9043e-06
0.000126157
-2.43883e-06
0.00012812
-1.96312e-06
0.000129577
-1.45654e-06
0.000130526
-9.49024e-07
0.000130928
-4.02315e-07
0.000130826
1.02192e-07
0.000130122
7.03866e-07
0.000128796
1.32627e-06
0.000126776
2.02012e-06
0.00012408
2.69588e-06
0.000120662
3.41792e-06
0.000116538
4.12365e-06
0.000111677
4.8611e-06
0.000106141
5.53603e-06
9.99087e-05
6.2322e-06
9.30741e-05
6.83459e-06
8.5601e-05
7.47308e-06
7.76518e-05
7.94921e-06
6.92195e-05
8.43227e-06
6.03945e-05
8.82496e-06
5.1223e-05
9.17156e-06
4.17751e-05
9.44788e-06
3.21486e-05
9.62642e-06
2.2425e-05
9.72367e-06
1.26665e-05
9.75848e-06
2.96164e-06
9.70484e-06
-6.60194e-06
9.56357e-06
-1.59851e-05
9.38311e-06
-2.50919e-05
9.10682e-06
-3.38811e-05
8.78925e-06
-4.22696e-05
8.38849e-06
-5.0231e-05
7.96132e-06
-5.76843e-05
7.45336e-06
-6.46356e-05
6.95132e-06
-7.10046e-05
6.36893e-06
-7.68086e-05
5.80405e-06
-8.19815e-05
5.17286e-06
-8.65428e-05
4.56126e-06
-9.04539e-05
3.91111e-06
-9.37609e-05
3.30699e-06
-9.64635e-05
2.7026e-06
-9.85368e-05
2.07334e-06
-0.000100056
1.5192e-06
-0.000100945
8.88975e-07
-0.000101366
4.21192e-07
-0.00010118
-1.86638e-07
-0.000100569
-6.11022e-07
-9.94182e-05
-1.15027e-06
-9.79142e-05
-1.50408e-06
-9.59332e-05
-1.981e-06
-9.36899e-05
-2.24326e-06
-9.09995e-05
-2.69038e-06
-8.81239e-05
-2.87564e-06
-8.48468e-05
-3.27709e-06
-8.13891e-05
-3.45771e-06
-7.76775e-05
-3.71153e-06
-7.37624e-05
-3.91513e-06
-6.95539e-05
-4.20853e-06
-6.51745e-05
-4.37942e-06
-6.06377e-05
-4.53679e-06
-5.59073e-05
-4.73039e-06
-5.09945e-05
-4.91282e-06
-4.58406e-05
-5.15388e-06
-4.04741e-05
-5.36653e-06
-3.48403e-05
-5.63375e-06
-2.8951e-05
-5.88933e-06
-2.27861e-05
-6.16485e-06
-1.63611e-05
-6.42502e-06
-9.60637e-06
-6.75475e-06
-2.58673e-06
-7.01965e-06
4.74237e-06
-7.3291e-06
1.23515e-05
-7.60916e-06
2.02093e-05
-7.85781e-06
2.82922e-05
-8.08292e-06
3.65453e-05
-8.25306e-06
4.49183e-05
-8.37303e-06
5.33502e-05
-8.43189e-06
6.17724e-05
-8.42225e-06
7.01109e-05
-8.33857e-06
7.82876e-05
-8.17663e-06
8.62354e-05
-7.94785e-06
9.38642e-05
-7.62882e-06
0.000101095
-7.23114e-06
0.000107851
-6.75563e-06
0.000114056
-6.20502e-06
0.000119649
-5.59263e-06
0.000124568
-4.91904e-06
0.000128755
-4.18793e-06
0.000132163
-3.40786e-06
0.000134738
-2.57509e-06
0.000136443
-1.70431e-06
0.000137253
-8.10377e-07
0.000137181
7.16009e-08
0.000136186
9.95769e-07
0.000134268
1.91716e-06
0.000131462
2.8062e-06
0.0001278
3.66207e-06
0.000123339
4.46126e-06
0.000118124
5.21495e-06
0.00011224
5.88336e-06
0.000105744
6.49689e-06
9.87157e-05
7.02785e-06
9.12828e-05
7.4329e-06
8.3487e-05
7.79576e-06
7.54439e-05
8.04306e-06
6.72127e-05
8.23121e-06
5.88804e-05
8.33231e-06
5.0502e-05
8.37838e-06
4.21929e-05
8.30909e-06
3.39006e-05
8.29222e-06
2.5786e-05
8.11464e-06
1.76647e-05
8.1213e-06
9.69381e-06
7.97085e-06
1.85226e-06
7.84154e-06
-5.66522e-06
7.51747e-06
-1.29768e-05
7.31153e-06
-1.99814e-05
7.00459e-06
-2.66355e-05
6.65411e-06
-3.30157e-05
6.38019e-06
-3.89822e-05
5.96654e-06
-4.46616e-05
5.67933e-06
-4.98978e-05
5.23621e-06
-5.48311e-05
4.93332e-06
-5.93377e-05
4.50654e-06
-6.34919e-05
4.15421e-06
-6.72478e-05
3.75595e-06
-7.06147e-05
3.36687e-06
-7.36092e-05
2.9945e-06
-7.62331e-05
2.62384e-06
-7.84756e-05
2.24253e-06
-8.03883e-05
1.91269e-06
-8.19317e-05
1.5434e-06
-8.32026e-05
1.2709e-06
-8.41607e-05
9.58129e-07
-8.4765e-05
6.0431e-07
-8.50798e-05
3.14795e-07
-8.495e-05
-1.29868e-07
-8.45217e-05
-4.28311e-07
-8.36128e-05
-9.08884e-07
-8.23985e-05
-1.21424e-06
-8.06927e-05
-1.70588e-06
-7.8612e-05
-2.08069e-06
-7.59261e-05
-2.68584e-06
-7.28849e-05
-3.0412e-06
-6.93128e-05
-3.57211e-06
-6.53356e-05
-3.97719e-06
-6.0693e-05
-4.64262e-06
-5.56272e-05
-5.06585e-06
-4.99517e-05
-5.67549e-06
-4.38142e-05
-6.13746e-06
-3.6974e-05
-6.84024e-06
-2.89393e-05
-8.03468e-06
-2.07359e-05
-8.20335e-06
-1.50359e-05
-5.70007e-06
-1.28323e-05
-2.20358e-06
-2.10605e-05
8.2282e-06
2.21143e-06
-2.32719e-05
0.000109043
2.52609e-05
9.61647e-05
2.57527e-05
8.29032e-05
2.65186e-05
6.95194e-05
2.67626e-05
5.59292e-05
2.71751e-05
4.23991e-05
2.70508e-05
2.89169e-05
2.69606e-05
1.57245e-05
2.63734e-05
2.88626e-06
2.56697e-05
-9.43486e-06
2.46381e-05
-2.1164e-05
2.34537e-05
-3.22e-05
2.20684e-05
-4.25049e-05
2.06069e-05
-5.20367e-05
1.90621e-05
-6.0797e-05
1.75207e-05
-6.87854e-05
1.59773e-05
-7.60228e-05
1.44755e-05
-8.25329e-05
1.30216e-05
-8.83487e-05
1.16331e-05
-9.35056e-05
1.03153e-05
-9.8031e-05
9.05218e-06
-0.00010196
7.85869e-06
-0.000105302
6.68647e-06
-0.000108077
5.54901e-06
-0.000110279
4.40539e-06
-0.000111908
3.25623e-06
-0.000112958
2.09739e-06
-0.000113438
9.61296e-07
-0.000113355
-1.6741e-07
-0.00011271
-1.28952e-06
-0.000111496
-2.42819e-06
-0.000109728
-3.53692e-06
-0.000107392
-4.67104e-06
-0.000104529
-5.72468e-06
-0.000101157
-6.74319e-06
-9.7253e-05
-7.80685e-06
-9.28755e-05
-8.75383e-06
-8.7977e-05
-9.79586e-06
-8.26373e-05
-1.0678e-05
-7.67941e-05
-1.1686e-05
-7.05293e-05
-1.25285e-05
-6.37761e-05
-1.35049e-05
-5.66192e-05
-1.43138e-05
-4.90143e-05
-1.52081e-05
-4.10369e-05
-1.59527e-05
-3.26576e-05
-1.67557e-05
-2.39685e-05
-1.73756e-05
-1.49681e-05
-1.79973e-05
-5.74992e-06
-1.84327e-05
3.63459e-06
-1.87661e-05
1.30901e-05
-1.89072e-05
2.24935e-05
-1.8802e-05
3.17911e-05
-1.85897e-05
4.08733e-05
-1.8159e-05
4.96738e-05
-1.75955e-05
5.81161e-05
-1.68804e-05
6.61552e-05
-1.60751e-05
7.37496e-05
-1.51856e-05
8.08799e-05
-1.42577e-05
8.753e-05
-1.32978e-05
9.37012e-05
-1.23406e-05
9.93905e-05
-1.13777e-05
0.00010461
-1.04389e-05
0.00010936
-9.49991e-06
0.000113652
-8.58265e-06
0.000117479
-7.65536e-06
0.000120851
-6.74308e-06
0.000123756
-5.80916e-06
0.000126197
-4.87957e-06
0.000128162
-3.92806e-06
0.000129619
-2.91414e-06
0.00013057
-1.89972e-06
0.000130974
-8.0615e-07
0.000130872
2.04481e-07
0.000130168
1.40721e-06
0.000128843
2.65118e-06
0.000126824
4.03967e-06
0.000124133
5.38672e-06
0.000120713
6.8375e-06
0.000116588
8.24923e-06
0.000111726
9.72293e-06
0.000106188
1.10735e-05
9.99538e-05
1.24667e-05
9.3116e-05
1.36724e-05
8.56418e-05
1.49473e-05
7.76862e-05
1.59048e-05
6.92494e-05
1.6869e-05
6.04188e-05
1.76555e-05
5.12405e-05
1.83499e-05
4.1789e-05
1.88993e-05
3.21598e-05
1.92556e-05
2.24304e-05
1.9453e-05
1.26675e-05
1.95214e-05
2.95764e-06
1.94147e-05
-6.61138e-06
1.91326e-05
-1.6e-05
1.87717e-05
-2.51114e-05
1.82182e-05
-3.39048e-05
1.75827e-05
-4.22976e-05
1.67812e-05
-5.02623e-05
1.5926e-05
-5.77198e-05
1.49109e-05
-6.46728e-05
1.39042e-05
-7.10426e-05
1.27387e-05
-7.68461e-05
1.16075e-05
-8.20189e-05
1.03457e-05
-8.6582e-05
9.12436e-06
-9.04955e-05
7.82455e-06
-9.38066e-05
6.61805e-06
-9.65081e-05
5.40417e-06
-9.85803e-05
4.1455e-06
-0.000100101
3.03957e-06
-0.000100984
1.77253e-06
-0.000101401
8.38186e-07
-0.000101209
-3.78475e-07
-0.000100598
-1.22275e-06
-9.94421e-05
-2.30583e-06
-9.79382e-05
-3.00793e-06
-9.59536e-05
-3.96563e-06
-9.37106e-05
-4.48629e-06
-9.10187e-05
-5.38225e-06
-8.81446e-05
-5.7497e-06
-8.48619e-05
-6.55976e-06
-8.14077e-05
-6.91198e-06
-7.76991e-05
-7.42006e-06
-7.37736e-05
-7.84067e-06
-6.95631e-05
-8.41901e-06
-6.51827e-05
-8.75985e-06
-6.06483e-05
-9.07118e-06
-5.59185e-05
-9.46017e-06
-5.1007e-05
-9.82432e-06
-4.58537e-05
-1.03072e-05
-4.04879e-05
-1.07324e-05
-3.48544e-05
-1.12672e-05
-2.89693e-05
-1.17745e-05
-2.28005e-05
-1.23337e-05
-1.63775e-05
-1.2848e-05
-9.62565e-06
-1.35066e-05
-2.6014e-06
-1.40439e-05
4.7295e-06
-1.466e-05
1.23387e-05
-1.52184e-05
2.01992e-05
-1.57183e-05
2.8285e-05
-1.61688e-05
3.65405e-05
-1.65086e-05
4.49184e-05
-1.67509e-05
5.33544e-05
-1.68679e-05
6.17823e-05
-1.68502e-05
7.01272e-05
-1.66835e-05
7.83087e-05
-1.63582e-05
8.62609e-05
-1.59e-05
9.38939e-05
-1.52619e-05
0.000101129
-1.44666e-05
0.000107891
-1.35172e-05
0.000114101
-1.24147e-05
0.000119699
-1.11914e-05
0.000124623
-9.84279e-06
0.000128815
-8.37965e-06
0.000132225
-6.81875e-06
0.000134803
-5.15275e-06
0.000136509
-3.40984e-06
0.000137319
-1.62062e-06
0.000137242
1.48367e-07
0.000136242
1.99574e-06
0.000134323
3.83581e-06
0.000131517
5.61268e-06
0.000127848
7.33068e-06
0.000123385
8.92451e-06
0.000118165
1.04347e-05
0.000112276
1.17728e-05
0.000105775
1.29976e-05
9.87403e-05
1.40623e-05
9.13018e-05
1.48713e-05
8.35002e-05
1.55973e-05
7.54491e-05
1.60941e-05
6.72131e-05
1.64672e-05
5.88748e-05
1.66706e-05
5.04907e-05
1.67625e-05
4.21794e-05
1.66203e-05
3.38829e-05
1.65887e-05
2.57674e-05
1.62301e-05
1.76414e-05
1.62472e-05
9.66634e-06
1.59459e-05
1.82348e-06
1.56844e-05
-5.69758e-06
1.50385e-05
-1.30099e-05
1.46239e-05
-2.00166e-05
1.40112e-05
-2.66732e-05
1.33106e-05
-3.30538e-05
1.27608e-05
-3.902e-05
1.19328e-05
-4.47038e-05
1.13631e-05
-4.99389e-05
1.04713e-05
-5.48729e-05
9.86733e-06
-5.93744e-05
9.00797e-06
-6.35229e-05
8.30272e-06
-6.72751e-05
7.50814e-06
-7.06406e-05
6.73233e-06
-7.36351e-05
5.98905e-06
-7.62622e-05
5.25093e-06
-7.85045e-05
4.48481e-06
-8.04166e-05
3.82482e-06
-8.1957e-05
3.08375e-06
-8.32291e-05
2.543e-06
-8.41903e-05
1.91938e-06
-8.47949e-05
1.20887e-06
-8.51108e-05
6.30653e-07
-8.49808e-05
-2.59845e-07
-8.45536e-05
-8.55534e-07
-8.3642e-05
-1.82049e-06
-8.24282e-05
-2.42796e-06
-8.07209e-05
-3.41322e-06
-7.86426e-05
-4.15901e-06
-7.59526e-05
-5.3758e-06
-7.29135e-05
-6.08032e-06
-6.93405e-05
-7.14504e-06
-6.53595e-05
-7.95819e-06
-6.07189e-05
-9.28323e-06
-5.56616e-05
-1.01232e-05
-4.99542e-05
-1.13829e-05
-4.36712e-05
-1.24205e-05
-3.70943e-05
-1.34171e-05
-2.95539e-05
-1.5575e-05
-2.09123e-05
-1.6845e-05
-1.3173e-05
-1.34394e-05
-8.18664e-06
-7.18991e-06
-1.06769e-05
1.07184e-05
-7.26293e-07
-7.73913e-06
0.000109083
3.78989e-05
9.61975e-05
3.86379e-05
8.29266e-05
3.97894e-05
6.95326e-05
4.01565e-05
5.59318e-05
4.07758e-05
4.23839e-05
4.05987e-05
2.88967e-05
4.04477e-05
1.56795e-05
3.95906e-05
2.82739e-06
3.85218e-05
-9.50513e-06
3.69706e-05
-2.12435e-05
3.51921e-05
-3.22858e-05
3.31107e-05
-4.25937e-05
3.09147e-05
-5.21262e-05
2.85946e-05
-6.08857e-05
2.62803e-05
-6.88717e-05
2.39632e-05
-7.61057e-05
2.17096e-05
-8.26124e-05
1.95282e-05
-8.84248e-05
1.74455e-05
-9.3578e-05
1.54685e-05
-9.80999e-05
1.35742e-05
-0.000102026
1.17846e-05
-0.000105365
1.00258e-05
-0.000108137
8.32063e-06
-0.000110338
6.60635e-06
-0.000111968
4.88665e-06
-0.000113023
3.15175e-06
-0.000113502
1.44087e-06
-0.000113419
-2.50284e-07
-0.000112775
-1.93429e-06
-0.00011156
-3.64276e-06
-0.000109791
-5.30627e-06
-0.000107453
-7.00828e-06
-0.000104589
-8.589e-06
-0.000101215
-1.01168e-05
-9.73101e-05
-1.17122e-05
-9.2931e-05
-1.3133e-05
-8.80308e-05
-1.4696e-05
-8.26891e-05
-1.60197e-05
-7.68454e-05
-1.75298e-05
-7.0579e-05
-1.87949e-05
-6.38237e-05
-2.02602e-05
-5.66668e-05
-2.14707e-05
-4.90592e-05
-2.28157e-05
-4.10786e-05
-2.39334e-05
-3.26943e-05
-2.514e-05
-2.40008e-05
-2.60691e-05
-1.49941e-05
-2.7004e-05
-5.76906e-06
-2.76578e-05
3.62481e-06
-2.81599e-05
1.30895e-05
-2.8372e-05
2.25028e-05
-2.82153e-05
3.18106e-05
-2.78976e-05
4.09028e-05
-2.72512e-05
4.97126e-05
-2.64053e-05
5.81634e-05
-2.53312e-05
6.62097e-05
-2.41214e-05
7.38095e-05
-2.27853e-05
8.09441e-05
-2.13924e-05
8.75974e-05
-1.99511e-05
9.37717e-05
-1.85149e-05
9.94627e-05
-1.70687e-05
0.000104684
-1.56598e-05
0.000109433
-1.42496e-05
0.000113724
-1.28739e-05
0.000117551
-1.14822e-05
0.000120922
-1.01142e-05
0.000123827
-8.71404e-06
0.000126269
-7.32103e-06
0.000128236
-5.89584e-06
0.000129698
-4.37575e-06
0.000130654
-2.85601e-06
0.00013106
-1.21199e-06
0.000130949
3.1572e-07
0.000130241
2.11492e-06
0.000128918
3.97402e-06
0.000126897
6.06051e-06
0.000124219
8.06556e-06
0.000120795
1.02613e-05
0.000116665
1.23786e-05
0.000111803
1.45856e-05
0.000106263
1.66135e-05
0.000100025
1.87049e-05
9.31799e-05
2.05171e-05
8.57078e-05
2.24193e-05
7.77392e-05
2.38735e-05
6.92946e-05
2.53135e-05
6.04556e-05
2.64946e-05
5.12684e-05
2.75371e-05
4.18096e-05
2.83582e-05
3.21742e-05
2.88909e-05
2.24364e-05
2.91909e-05
1.26669e-05
2.92908e-05
2.94887e-06
2.91327e-05
-6.62914e-06
2.87106e-05
-1.60259e-05
2.81685e-05
-2.5144e-05
2.73362e-05
-3.39429e-05
2.63816e-05
-4.23421e-05
2.51805e-05
-5.03119e-05
2.38958e-05
-5.77757e-05
2.23748e-05
-6.47303e-05
2.08588e-05
-7.1101e-05
1.91094e-05
-7.69017e-05
1.74082e-05
-8.20716e-05
1.55156e-05
-8.66374e-05
1.36902e-05
-9.05558e-05
1.17429e-05
-9.38752e-05
9.93753e-06
-9.65784e-05
8.10729e-06
-9.86513e-05
6.21848e-06
-0.000100173
4.56106e-06
-0.000101049
2.6485e-06
-0.000101459
1.24824e-06
-0.000101255
-5.81838e-07
-0.000100645
-1.83374e-06
-9.94806e-05
-3.4697e-06
-9.79802e-05
-4.50835e-06
-9.59899e-05
-5.95598e-06
-9.37508e-05
-6.72529e-06
-9.10608e-05
-8.07227e-06
-8.82019e-05
-8.60864e-06
-8.49002e-05
-9.86141e-06
-8.14511e-05
-1.03611e-05
-7.77411e-05
-1.11301e-05
-7.38005e-05
-1.17813e-05
-6.95862e-05
-1.26333e-05
-6.52058e-05
-1.31403e-05
-6.06764e-05
-1.36006e-05
-5.59483e-05
-1.41882e-05
-5.10395e-05
-1.47331e-05
-4.58854e-05
-1.54614e-05
-4.05203e-05
-1.60975e-05
-3.48888e-05
-1.68986e-05
-2.90115e-05
-1.76519e-05
-2.28349e-05
-1.85102e-05
-1.64144e-05
-1.92686e-05
-9.6674e-06
-2.02536e-05
-2.63844e-06
-2.10729e-05
4.69629e-06
-2.19948e-05
1.23077e-05
-2.28298e-05
2.01733e-05
-2.35839e-05
2.82637e-05
-2.42593e-05
3.65239e-05
-2.47688e-05
4.49099e-05
-2.5137e-05
5.3354e-05
-2.53121e-05
6.17921e-05
-2.52883e-05
7.01487e-05
-2.504e-05
7.83394e-05
-2.4549e-05
8.63006e-05
-2.38613e-05
9.39384e-05
-2.28997e-05
0.000101179
-2.17071e-05
0.000107951
-2.02895e-05
0.00011417
-1.86334e-05
0.00011978
-1.68013e-05
0.000124713
-1.47758e-05
0.000128911
-1.25785e-05
0.000132327
-1.02348e-05
0.000134902
-7.72734e-06
0.00013662
-5.12828e-06
0.000137431
-2.43134e-06
0.000137343
2.36197e-07
0.000136327
3.01164e-06
0.000134406
5.75735e-06
0.000131598
8.42045e-06
0.000127922
1.10069e-05
0.000123455
1.33909e-05
0.000118228
1.56613e-05
0.00011233
1.76714e-05
0.000105823
1.95046e-05
9.87782e-05
2.1107e-05
9.13299e-05
2.23196e-05
8.35207e-05
2.34065e-05
7.54624e-05
2.41523e-05
6.72183e-05
2.47112e-05
5.88694e-05
2.50195e-05
5.0476e-05
2.51558e-05
4.21623e-05
2.49339e-05
3.38598e-05
2.48913e-05
2.57467e-05
2.43432e-05
1.7616e-05
2.43779e-05
9.63001e-06
2.39319e-05
1.7877e-06
2.35267e-05
-5.73164e-06
2.25578e-05
-1.30471e-05
2.19393e-05
-2.00566e-05
2.10207e-05
-2.67157e-05
1.99697e-05
-3.31033e-05
1.91484e-05
-3.9066e-05
1.78954e-05
-4.47562e-05
1.70533e-05
-4.99872e-05
1.57023e-05
-5.49227e-05
1.48029e-05
-5.94174e-05
1.35026e-05
-6.35597e-05
1.2445e-05
-6.73066e-05
1.12551e-05
-7.06696e-05
1.00953e-05
-7.36676e-05
8.98707e-06
-7.63028e-05
7.88605e-06
-7.85496e-05
6.73164e-06
-8.04618e-05
5.737e-06
-8.19952e-05
4.61712e-06
-8.32709e-05
3.81874e-06
-8.42379e-05
2.88639e-06
-8.48465e-05
1.81748e-06
-8.51674e-05
9.51555e-07
-8.50403e-05
-3.86996e-07
-8.46167e-05
-1.27913e-06
-8.37032e-05
-2.73398e-06
-8.24907e-05
-3.64051e-06
-8.07814e-05
-5.12253e-06
-7.87144e-05
-6.22592e-06
-7.60236e-05
-8.06666e-06
-7.29889e-05
-9.11502e-06
-6.94022e-05
-1.07317e-05
-6.54108e-05
-1.19496e-05
-6.0763e-05
-1.3931e-05
-5.57119e-05
-1.51743e-05
-5.00481e-05
-1.70467e-05
-4.37903e-05
-1.86783e-05
-3.69226e-05
-2.02848e-05
-2.94504e-05
-2.30472e-05
-2.14234e-05
-2.4872e-05
-1.25601e-05
-2.23026e-05
-4.09523e-06
-1.56548e-05
-3.12543e-07
6.93575e-06
-5.78636e-06
4.74753e-06
0.000109143
5.05463e-05
9.62467e-05
5.15342e-05
8.29618e-05
5.30743e-05
6.9553e-05
5.35653e-05
5.59372e-05
5.43916e-05
4.23626e-05
5.41733e-05
2.88758e-05
5.39345e-05
1.5613e-05
5.28533e-05
2.7399e-06
5.13949e-05
-9.60925e-06
4.93197e-05
-2.13611e-05
4.69439e-05
-3.24125e-05
4.41621e-05
-4.27254e-05
4.12276e-05
-5.22594e-05
3.81285e-05
-6.10173e-05
3.50381e-05
-6.89996e-05
3.19455e-05
-7.62288e-05
2.89387e-05
-8.27302e-05
2.60296e-05
-8.85373e-05
2.32526e-05
-9.3685e-05
2.06161e-05
-9.82021e-05
1.80913e-05
-0.000102124
1.57065e-05
-0.000105459
1.33611e-05
-0.000108228
1.10895e-05
-0.000110428
8.80591e-06
-0.00011206
6.51857e-06
-0.00011312
4.21207e-06
-0.0001136
1.92116e-06
-0.000113516
-3.34669e-07
-0.000112871
-2.57945e-06
-0.000111656
-4.85802e-06
-0.000109885
-7.07666e-06
-0.000107546
-9.34766e-06
-0.000104679
-1.14556e-05
-0.000101303
-1.34926e-05
-9.73958e-05
-1.56197e-05
-9.30141e-05
-1.75147e-05
-8.81115e-05
-1.95987e-05
-8.27667e-05
-2.13645e-05
-7.69223e-05
-2.33742e-05
-7.06535e-05
-2.50636e-05
-6.38951e-05
-2.70186e-05
-5.67383e-05
-2.86274e-05
-4.91267e-05
-3.04273e-05
-4.11412e-05
-3.19189e-05
-3.27495e-05
-3.35317e-05
-2.40493e-05
-3.47694e-05
-1.50332e-05
-3.60202e-05
-5.79755e-06
-3.68934e-05
3.61085e-06
-3.75684e-05
1.30899e-05
-3.7851e-05
2.25179e-05
-3.76434e-05
3.1841e-05
-3.72206e-05
4.09476e-05
-3.63578e-05
4.97707e-05
-3.52285e-05
5.82328e-05
-3.37933e-05
6.62882e-05
-3.21768e-05
7.38949e-05
-3.0392e-05
8.10347e-05
-2.85322e-05
8.76914e-05
-2.66078e-05
9.38678e-05
-2.46913e-05
9.95595e-05
-2.27605e-05
0.000104781
-2.0881e-05
0.000109529
-1.89981e-05
0.000113819
-1.71641e-05
0.000117645
-1.53074e-05
0.000121015
-1.34846e-05
0.00012392
-1.1619e-05
0.000126363
-9.76444e-06
0.000128334
-7.86677e-06
0.000129801
-5.84214e-06
0.000130763
-3.8185e-06
0.000131172
-1.62142e-06
0.000131057
4.31071e-07
0.00013035
2.82181e-06
0.000129031
5.2931e-06
0.000127017
8.07494e-06
0.000124338
1.07441e-05
0.000120917
1.36825e-05
0.000116783
1.65129e-05
0.000111918
1.94497e-05
0.000106375
2.21574e-05
0.000100131
2.49483e-05
9.32767e-05
2.73713e-05
8.58101e-05
2.9886e-05
7.78185e-05
3.1865e-05
6.93629e-05
3.37692e-05
6.05113e-05
3.53461e-05
5.13114e-05
3.6737e-05
4.18411e-05
3.78284e-05
3.21956e-05
3.85364e-05
2.24449e-05
3.89416e-05
1.26654e-05
3.90702e-05
2.93526e-06
3.88629e-05
-6.6562e-06
3.8302e-05
-1.60651e-05
3.75774e-05
-2.51943e-05
3.64654e-05
-3.4002e-05
3.51893e-05
-4.24106e-05
3.3589e-05
-5.03881e-05
3.18733e-05
-5.78583e-05
2.9845e-05
-6.4818e-05
2.78184e-05
-7.11919e-05
2.54834e-05
-7.6994e-05
2.32103e-05
-8.21602e-05
2.06818e-05
-8.67255e-05
1.82554e-05
-9.06502e-05
1.56676e-05
-9.3982e-05
1.32694e-05
-9.66804e-05
1.08057e-05
-9.87556e-05
8.29359e-06
-0.000100276
6.08145e-06
-0.000101145
3.5171e-06
-0.000101548
1.65139e-06
-0.000101331
-7.98507e-07
-0.000100718
-2.44657e-06
-9.95427e-05
-4.64521e-06
-9.80476e-05
-6.00344e-06
-9.60466e-05
-7.95701e-06
-9.38095e-05
-8.96234e-06
-9.1125e-05
-1.07568e-05
-8.82781e-05
-1.14555e-05
-8.49573e-05
-1.31822e-05
-8.15063e-05
-1.38121e-05
-7.77852e-05
-1.48512e-05
-7.38426e-05
-1.57239e-05
-6.96305e-05
-1.68454e-05
-6.52503e-05
-1.75205e-05
-6.0726e-05
-1.81248e-05
-5.59901e-05
-1.89241e-05
-5.10852e-05
-1.96381e-05
-4.59299e-05
-2.06166e-05
-4.05702e-05
-2.14572e-05
-3.49389e-05
-2.25299e-05
-2.90676e-05
-2.35231e-05
-2.29006e-05
-2.46773e-05
-1.64697e-05
-2.56995e-05
-9.72536e-06
-2.69979e-05
-2.69323e-06
-2.8105e-05
4.64561e-06
-2.93336e-05
1.22605e-05
-3.04447e-05
2.01326e-05
-3.14561e-05
2.82267e-05
-3.23533e-05
3.64982e-05
-3.30403e-05
4.48959e-05
-3.35347e-05
5.33527e-05
-3.37689e-05
6.18054e-05
-3.3741e-05
7.01773e-05
-3.3412e-05
7.8386e-05
-3.27577e-05
8.63577e-05
-3.1833e-05
9.4005e-05
-3.05471e-05
0.000101253
-2.89553e-05
0.000108041
-2.70768e-05
0.000114271
-2.48639e-05
0.000119895
-2.24254e-05
0.000124841
-1.97222e-05
0.00012905
-1.67871e-05
0.00013247
-1.36549e-05
0.000135049
-1.03065e-05
0.000136764
-6.84318e-06
0.000137573
-3.24075e-06
0.000137474
3.35246e-07
0.000136461
4.02505e-06
0.000134537
7.68083e-06
0.000131722
1.12356e-05
0.000128037
1.46923e-05
0.000123566
1.7862e-05
0.000118327
2.08998e-05
0.000112417
2.35817e-05
0.000105897
2.60241e-05
9.88402e-05
2.81638e-05
9.13751e-05
2.97847e-05
8.35502e-05
3.12313e-05
7.54829e-05
3.22196e-05
6.72271e-05
3.2967e-05
5.88663e-05
3.33804e-05
5.04601e-05
3.3562e-05
4.21384e-05
3.32556e-05
3.38298e-05
3.31999e-05
2.57183e-05
3.24547e-05
1.75827e-05
3.25135e-05
9.57509e-06
3.19394e-05
1.72665e-06
3.13751e-05
-5.77304e-06
3.00575e-05
-1.31017e-05
2.9268e-05
-2.01129e-05
2.80319e-05
-2.67741e-05
2.66309e-05
-3.31756e-05
2.55499e-05
-3.91296e-05
2.38494e-05
-4.48302e-05
2.2754e-05
-5.00547e-05
2.09267e-05
-5.49956e-05
1.97438e-05
-5.94801e-05
1.79871e-05
-6.36222e-05
1.6587e-05
-6.73695e-05
1.50024e-05
-7.07276e-05
1.34534e-05
-7.37207e-05
1.19801e-05
-7.6365e-05
1.05304e-05
-7.86252e-05
8.9918e-06
-8.05316e-05
7.6434e-06
-8.20457e-05
6.13124e-06
-8.33336e-05
5.10667e-06
-8.43045e-05
3.85729e-06
-8.49144e-05
2.42737e-06
-8.52423e-05
1.27943e-06
-8.51198e-05
-5.09509e-07
-8.47075e-05
-1.69146e-06
-8.37918e-05
-3.64963e-06
-8.25734e-05
-4.85888e-06
-8.08588e-05
-6.8372e-06
-7.88105e-05
-8.27422e-06
-7.6127e-05
-1.07501e-05
-7.31015e-05
-1.21405e-05
-6.94895e-05
-1.43437e-05
-6.54842e-05
-1.59549e-05
-6.08527e-05
-1.85625e-05
-5.58072e-05
-2.02197e-05
-5.012e-05
-2.27339e-05
-4.39413e-05
-2.4857e-05
-3.70888e-05
-2.71373e-05
-2.93872e-05
-3.07489e-05
-2.14381e-05
-3.28211e-05
-1.26682e-05
-3.10724e-05
-2.36382e-06
-2.59592e-05
5.18338e-06
-6.11449e-07
-1.14567e-05
1.08537e-05
0.000109224
6.32063e-05
9.63126e-05
6.44452e-05
8.30089e-05
6.6378e-05
6.95811e-05
6.6993e-05
5.59396e-05
6.80331e-05
4.23363e-05
6.77765e-05
2.88245e-05
6.74463e-05
1.55262e-05
6.61516e-05
2.62452e-06
6.42965e-05
-9.7464e-06
6.16906e-05
-2.15161e-05
5.87136e-05
-3.25795e-05
5.52254e-05
-4.28989e-05
5.1547e-05
-5.24348e-05
4.76644e-05
-6.11908e-05
4.37941e-05
-6.91683e-05
3.9923e-05
-7.63905e-05
3.61608e-05
-8.2885e-05
3.25242e-05
-8.86852e-05
2.90527e-05
-9.38257e-05
2.57566e-05
-9.83368e-05
2.26024e-05
-0.000102254
1.96234e-05
-0.000105585
1.66927e-05
-0.000108353
1.38568e-05
-0.000110552
1.1005e-05
-0.000112184
8.15122e-06
-0.000113247
5.27517e-06
-0.00011373
2.40325e-06
-0.000113645
-4.19435e-07
-0.000112999
-3.22494e-06
-0.000111783
-6.07428e-06
-0.000110011
-8.84835e-06
-0.000107669
-1.16899e-05
-0.000104799
-1.43253e-05
-0.000101421
-1.68715e-05
-9.751e-05
-1.95303e-05
-9.3125e-05
-2.18997e-05
-8.82191e-05
-2.45045e-05
-8.287e-05
-2.67136e-05
-7.70247e-05
-2.92195e-05
-7.07529e-05
-3.13354e-05
-6.39901e-05
-3.37814e-05
-5.68336e-05
-3.57839e-05
-4.92167e-05
-3.80443e-05
-4.12248e-05
-3.99108e-05
-3.28233e-05
-4.19333e-05
-2.4114e-05
-4.34786e-05
-1.50851e-05
-4.5049e-05
-5.83521e-06
-4.61433e-05
3.59332e-06
-4.69969e-05
1.30922e-05
-4.73499e-05
2.25404e-05
-4.70915e-05
3.18833e-05
-4.65635e-05
4.10082e-05
-4.54828e-05
4.98475e-05
-4.40677e-05
5.83228e-05
-4.22687e-05
6.63882e-05
-4.02422e-05
7.40017e-05
-3.80056e-05
8.11455e-05
-3.5676e-05
8.78041e-05
-3.32664e-05
9.39808e-05
-3.0868e-05
9.96716e-05
-2.84513e-05
0.000104891
-2.61005e-05
0.000109638
-2.37449e-05
0.000113927
-2.14534e-05
0.000117752
-1.91318e-05
0.000121122
-1.68549e-05
0.000124027
-1.45246e-05
0.000126473
-1.22103e-05
0.000128448
-9.8411e-06
0.000129919
-7.31376e-06
0.000130888
-4.78694e-06
0.000131305
-2.03843e-06
0.000131195
5.40618e-07
0.000130495
3.5219e-06
0.000129181
6.60661e-06
0.000127171
1.00854e-05
0.000124487
1.3428e-05
0.000121067
1.71024e-05
0.000116939
2.06411e-05
0.000112073
2.43158e-05
0.000106524
2.77061e-05
0.000100274
3.11987e-05
9.34066e-05
3.42384e-05
8.593e-05
3.73626e-05
7.79243e-05
3.98707e-05
6.94546e-05
4.22388e-05
6.05867e-05
4.4214e-05
5.13708e-05
4.59529e-05
4.18851e-05
4.73141e-05
3.22241e-05
4.81975e-05
2.24561e-05
4.87095e-05
1.26627e-05
4.88637e-05
2.91633e-06
4.86092e-05
-6.69351e-06
4.79119e-05
-1.61191e-05
4.7003e-05
-2.52625e-05
4.56087e-05
-3.40838e-05
4.40106e-05
-4.25039e-05
4.20091e-05
-5.04917e-05
3.98611e-05
-5.79704e-05
3.73237e-05
-6.49392e-05
3.47872e-05
-7.13161e-05
3.18603e-05
-7.71259e-05
2.90201e-05
-8.22926e-05
2.58486e-05
-8.68528e-05
2.28156e-05
-9.07831e-05
1.95978e-05
-9.41302e-05
1.66165e-05
-9.68111e-05
1.34867e-05
-9.88898e-05
1.03723e-05
-0.000100407
7.59818e-06
-0.000101273
4.38357e-06
-0.000101673
2.05164e-06
-0.000101443
-1.0288e-06
-0.000100824
-3.06604e-06
-9.96366e-05
-5.83214e-06
-9.81409e-05
-7.49912e-06
-9.61278e-05
-9.97016e-06
-9.38844e-05
-1.12057e-05
-9.1194e-05
-1.34472e-05
-8.83415e-05
-1.4308e-05
-8.50359e-05
-1.64878e-05
-8.1576e-05
-1.7272e-05
-7.78304e-05
-1.85968e-05
-7.39046e-05
-1.96496e-05
-6.96912e-05
-2.10588e-05
-6.53109e-05
-2.19008e-05
-6.07882e-05
-2.26475e-05
-5.60419e-05
-2.36704e-05
-5.11449e-05
-2.45352e-05
-4.59885e-05
-2.5773e-05
-4.06372e-05
-2.68085e-05
-3.50047e-05
-2.81625e-05
-2.91373e-05
-2.93905e-05
-2.29772e-05
-3.08374e-05
-1.65403e-05
-3.21364e-05
-9.79941e-06
-3.37388e-05
-2.7671e-06
-3.51374e-05
4.57556e-06
-3.66763e-05
1.21954e-05
-3.80645e-05
2.0076e-05
-3.93367e-05
2.81789e-05
-4.04562e-05
3.64613e-05
-4.13227e-05
4.48768e-05
-4.19502e-05
5.33489e-05
-4.2241e-05
6.18183e-05
-4.22104e-05
7.02084e-05
-4.18022e-05
7.84411e-05
-4.09903e-05
8.64259e-05
-3.98178e-05
9.40896e-05
-3.82109e-05
0.000101352
-3.62176e-05
0.000108154
-3.38789e-05
0.000114403
-3.11126e-05
0.000120043
-2.80659e-05
0.000125
-2.46795e-05
0.000129226
-2.10126e-05
0.00013265
-1.70791e-05
0.000135239
-1.28956e-05
0.000136956
-8.55985e-06
0.000137769
-4.05388e-06
0.000137663
4.41322e-07
0.000136654
5.03368e-06
0.000134727
9.60837e-06
0.000131899
1.4063e-05
0.000128198
1.8393e-05
0.000123723
2.23378e-05
0.000118466
2.61562e-05
0.000112541
2.95065e-05
0.000106004
3.25615e-05
9.89363e-05
3.52313e-05
9.14398e-05
3.72811e-05
8.35854e-05
3.90857e-05
7.55183e-05
4.02867e-05
6.72409e-05
4.12443e-05
5.88699e-05
4.17514e-05
5.04475e-05
4.19844e-05
4.21062e-05
4.15968e-05
3.37994e-05
4.15066e-05
2.56772e-05
4.05769e-05
1.75363e-05
4.06543e-05
9.51485e-06
3.99608e-05
1.65103e-06
3.92389e-05
-5.82874e-06
3.75372e-05
-1.31831e-05
3.66223e-05
-2.01898e-05
3.50386e-05
-2.68604e-05
3.33015e-05
-3.32641e-05
3.19535e-05
-3.92111e-05
2.97964e-05
-4.49288e-05
2.84717e-05
-5.01444e-05
2.61422e-05
-5.50962e-05
2.46956e-05
-5.95687e-05
2.24596e-05
-6.3716e-05
2.07343e-05
-6.74635e-05
1.87499e-05
-7.08156e-05
1.68055e-05
-7.38171e-05
1.49816e-05
-7.64482e-05
1.31615e-05
-7.87273e-05
1.12709e-05
-8.06196e-05
9.53567e-06
-8.21143e-05
7.62591e-06
-8.34333e-05
6.42566e-06
-8.43934e-05
4.81746e-06
-8.50009e-05
3.03485e-06
-8.53252e-05
1.60366e-06
-8.52087e-05
-6.25965e-07
-8.48108e-05
-2.08934e-06
-8.38981e-05
-4.56234e-06
-8.2688e-05
-6.069e-06
-8.09523e-05
-8.57287e-06
-7.89115e-05
-1.0315e-05
-7.62479e-05
-1.34138e-05
-7.32356e-05
-1.51528e-05
-6.95934e-05
-1.79858e-05
-6.55889e-05
-1.99594e-05
-6.09846e-05
-2.31669e-05
-5.59692e-05
-2.52351e-05
-5.02622e-05
-2.84409e-05
-4.40769e-05
-3.10422e-05
-3.71795e-05
-3.40348e-05
-2.95436e-05
-3.83848e-05
-2.14392e-05
-4.09255e-05
-1.22586e-05
-4.02531e-05
-1.63941e-06
-3.65784e-05
7.37485e-06
-9.6257e-06
-1.75261e-05
1.34442e-05
0.000109325
7.58819e-05
9.63952e-05
7.73746e-05
8.3068e-05
7.97053e-05
6.96131e-05
8.04479e-05
5.59375e-05
8.17087e-05
4.23082e-05
8.14058e-05
2.87509e-05
8.10036e-05
1.54226e-05
7.94799e-05
2.4818e-06
7.72373e-05
-9.91704e-06
7.40894e-05
-2.17091e-05
7.05056e-05
-3.27873e-05
6.63036e-05
-4.31151e-05
6.18748e-05
-5.26534e-05
5.72027e-05
-6.14072e-05
5.25479e-05
-6.93789e-05
4.78947e-05
-7.6592e-05
4.33739e-05
-8.30782e-05
3.90103e-05
-8.88694e-05
3.48439e-05
-9.40011e-05
3.08883e-05
-9.85049e-05
2.71062e-05
-0.000102416
2.35343e-05
-0.000105743
2.00204e-05
-0.000108509
1.66227e-05
-0.000110708
1.32037e-05
-0.000112342
9.78503e-06
-0.000113406
6.3393e-06
-0.00011389
2.88678e-06
-0.000113806
-5.03405e-07
-0.00011316
-3.8706e-06
-0.000111942
-7.2919e-06
-0.000110169
-1.06216e-05
-0.000107823
-1.40361e-05
-0.00010495
-1.71985e-05
-0.000101567
-2.02541e-05
-9.76527e-05
-2.34447e-05
-9.32634e-05
-2.6289e-05
-8.83536e-05
-2.94144e-05
-8.29994e-05
-3.20677e-05
-7.71526e-05
-3.50664e-05
-7.08769e-05
-3.76111e-05
-6.41122e-05
-4.05461e-05
-5.69527e-05
-4.29434e-05
-4.93293e-05
-4.56677e-05
-4.13294e-05
-4.79106e-05
-3.29157e-05
-5.0347e-05
-2.41949e-05
-5.21994e-05
-1.51499e-05