/*--------------------------------*- C++ -*----------------------------------*\
| =========                 |                                                 |
| \\      /  F ield         | OpenFOAM: The Open Source CFD Toolbox           |
|  \\    /   O peration     | Version:  3.0.1                                 |
|   \\  /    A nd           | Web:      www.OpenFOAM.org                      |
|    \\/     M anipulation  |                                                 |
\*---------------------------------------------------------------------------*/
FoamFile
{
    version     2.0;
    format      ascii;
    class       volScalarField;
    location    "49";
    object      p_rgh;
}
// * * * * * * * * * * * * * * * * * * * * * * * * * * * * * * * * * * * * * //

dimensions      [1 -1 -2 0 0 0 0];

internalField   nonuniform List<scalar> 
21420
(
48.053
81.2183
114.644
148.004
180.986
213.063
243.828
272.801
299.58
323.834
345.203
363.367
378.07
389.086
396.23
399.22
397.895
392.417
383.008
369.698
352.698
332.243
308.624
282.195
253.294
222.333
189.707
155.82
121.112
85.9821
50.8011
15.9436
-18.265
-51.5412
-83.6277
-114.347
-143.45
-170.297
-195.928
-219.922
-242.157
-262.592
-281.222
-298.061
-313.146
-326.524
-338.246
-348.366
-356.941
-364.022
-369.658
-373.889
-376.749
-378.278
-378.493
-377.035
-374.17
-369.898
-364.214
-357.078
-348.457
-338.305
-326.566
-313.19
-298.132
-281.334
-262.741
-242.326
-220.074
-196.019
-170.206
-143.114
-116.39
-87.9891
-57.9827
-26.8311
5.16136
37.6863
70.406
103.02
135.203
166.612
196.912
225.757
252.787
277.654
299.998
319.49
335.81
348.668
357.832
363.102
364.354
361.45
354.518
343.549
328.693
310.093
288.012
262.755
234.667
204.127
171.558
137.397
102.085
66.0674
29.7764
-6.37327
-41.9892
-76.7136
-110.232
-142.275
-172.624
-201.078
-227.594
-252.059
-274.434
-294.712
-312.911
-329.065
-343.231
-355.476
-365.873
-374.501
-381.441
-386.766
-390.549
-392.859
-393.752
-393.287
-391.511
-388.452
-384.148
-378.634
-371.919
-364.012
-354.912
-344.615
-333.113
-320.388
-306.413
-291.154
-274.574
-256.635
-237.297
-216.519
-194.273
-170.538
-145.321
-118.645
-90.5276
-61.2133
-30.8254
0.440068
32.3372
64.5713
96.8109
128.692
159.826
189.807
218.227
244.671
268.732
290.017
308.157
322.82
333.713
340.603
343.327
341.697
335.858
325.77
311.598
293.533
271.87
246.956
219.195
189.016
156.89
123.301
88.7192
53.6084
18.4088
-16.4752
-50.6748
-83.8649
-115.765
-146.144
-174.82
-201.667
-226.633
-249.655
-270.716
-289.83
-307.033
-322.372
-335.902
-347.68
-357.764
-366.211
-373.083
-378.448
-382.373
-384.934
-386.201
-386.237
-385.095
-382.819
-379.425
-374.916
-369.324
-362.629
-354.823
-345.884
-335.79
-324.517
-312.033
-298.303
-283.293
-266.971
-249.305
-230.271
-209.852
-188.036
-164.833
-140.275
-114.406
-87.0512
-58.8763
-29.7864
0.00972024
30.2589
60.6694
90.915
120.638
149.46
176.99
202.828
226.579
247.859
266.311
281.607
293.466
301.657
306.002
306.385
302.672
295.009
283.462
268.108
249.224
227.118
202.151
174.733
145.322
114.392
82.4061
49.811
17.0219
-15.5776
-47.6416
-78.863
-108.979
-137.778
-165.07
-189.239
-212.89
-234.628
-254.377
-272.135
-287.903
-301.696
-313.529
-323.443
-331.468
-337.695
-342.229
-345.081
-346.316
-346.257
-344.894
-342.19
-338.251
-333.155
-326.994
-319.838
-311.762
-302.816
-293.034
-282.437
-271.03
-258.808
-245.771
-231.887
-217.123
-201.439
-184.768
-167.04
-148.155
-128.008
-106.488
-83.0929
-58.0673
-31.7604
-4.29478
24.337
54.0541
84.6172
115.765
147.149
178.399
209.165
239.05
267.643
294.592
319.535
342.144
362.126
379.222
393.232
403.998
411.408
415.395
415.888
413.022
406.775
397.282
384.727
369.307
351.258
330.856
308.382
284.127
258.431
231.608
203.971
175.82
147.419
119.049
90.9316
63.262
36.2264
9.96154
-15.4121
-39.7833
-63.0729
-85.1779
-105.729
-125.245
-143.893
-161.408
-177.713
-192.77
-206.544
-219.014
-230.177
-240.036
48.012
81.1888
114.627
148.003
181.001
213.095
243.879
272.869
299.666
323.936
345.32
363.497
378.211
389.236
396.387
399.4
398.053
392.573
383.156
369.836
352.824
332.354
308.719
282.273
253.355
222.375
189.732
155.828
121.104
85.9597
50.7657
15.8968
-18.3219
-51.6059
-83.6985
-114.423
-143.525
-170.375
-196.008
-220.001
-242.236
-262.67
-281.297
-298.135
-313.217
-326.592
-338.311
-348.428
-357.001
-364.08
-369.714
-373.944
-376.803
-378.33
-378.542
-377.087
-374.223
-369.952
-364.269
-357.135
-348.516
-338.367
-326.629
-313.256
-298.2
-281.405
-262.814
-242.4
-220.148
-196.091
-170.275
-143.182
-116.46
-88.0506
-58.0345
-26.8723
5.13187
37.6692
70.4018
103.03
135.227
166.65
196.965
225.825
252.869
277.751
300.109
319.613
335.945
348.812
357.984
363.259
364.512
361.613
354.671
343.698
328.833
310.221
288.126
262.853
234.747
204.189
171.6
137.42
102.089
66.052
29.7432
-6.42243
-42.0524
-76.7888
-110.317
-142.367
-172.721
-201.179
-227.696
-252.16
-274.535
-294.811
-313.007
-329.159
-343.321
-355.562
-365.955
-374.58
-381.516
-386.839
-390.62
-392.927
-393.817
-393.351
-391.572
-388.511
-384.208
-378.693
-371.978
-364.071
-354.971
-344.675
-333.174
-320.45
-306.477
-291.22
-274.643
-256.706
-237.37
-216.595
-194.35
-170.617
-145.4
-118.723
-90.6013
-61.2829
-30.8888
0.385009
32.2924
64.5386
96.792
128.689
159.839
189.839
218.276
244.739
268.819
290.121
308.277
322.955
333.86
340.759
343.487
341.868
336.013
325.921
311.739
293.661
271.981
247.048
219.267
189.066
156.919
123.31
88.7085
53.58
18.3647
-16.5331
-50.7444
-83.944
-115.851
-146.235
-174.914
-201.763
-226.729
-249.75
-270.809
-289.921
-307.121
-322.457
-335.984
-347.759
-357.84
-366.284
-373.154
-378.515
-382.438
-384.996
-386.26
-386.294
-385.15
-382.874
-379.478
-374.97
-369.377
-362.684
-354.878
-345.94
-335.848
-324.576
-312.094
-298.366
-283.358
-267.037
-249.374
-230.342
-209.924
-188.109
-164.906
-140.347
-114.477
-87.1169
-58.9381
-29.8414
-0.0366414
30.223
60.6456
90.9049
120.643
149.482
177.028
202.884
226.652
247.95
266.418
281.728
293.599
301.799
306.151
306.545
302.821
295.153
283.599
268.235
249.336
227.213
202.227
174.788
145.356
114.406
82.4021
49.7903
16.9863
-15.6263
-47.7018
-78.9326
-109.056
-137.862
-165.173
-189.316
-212.985
-234.722
-254.47
-272.225
-287.99
-301.778
-313.607
-323.516
-331.536
-337.757
-342.281
-345.125
-346.355
-346.286
-344.924
-342.215
-338.272
-333.173
-327.009
-319.851
-311.774
-302.828
-293.047
-282.451
-271.046
-258.827
-245.794
-231.914
-217.154
-201.474
-184.81
-167.087
-148.206
-128.065
-106.548
-83.1631
-58.1349
-31.828
-4.36084
24.275
53.9992
84.5717
115.731
147.129
178.393
209.176
239.078
267.688
294.653
319.612
342.235
362.23
379.337
393.355
404.128
411.541
415.53
416.029
413.145
406.897
397.398
384.834
369.403
351.342
330.927
308.439
284.17
258.46
231.624
203.975
175.812
147.401
119.022
90.8976
63.2222
36.182
9.9134
-15.4629
-39.8367
-63.1271
-85.233
-105.78
-125.298
-143.947
-161.462
-177.767
-192.824
-206.599
-219.068
-230.231
-240.09
47.9297
81.1299
114.595
148.001
181.032
213.161
243.981
273.007
299.838
324.14
345.554
363.757
378.493
389.537
396.701
399.758
398.369
392.886
383.452
370.113
353.076
332.578
308.91
282.43
253.476
222.46
189.782
155.844
121.088
85.9149
50.6947
15.8031
-18.4357
-51.7353
-83.8401
-114.574
-143.673
-170.532
-196.167
-220.161
-242.395
-262.826
-281.449
-298.281
-313.358
-326.727
-338.441
-348.553
-357.12
-364.195
-369.825
-374.052
-376.909
-378.435
-378.641
-377.19
-374.328
-370.059
-364.379
-357.248
-348.632
-338.487
-326.754
-313.386
-298.335
-281.543
-262.955
-242.545
-220.293
-196.232
-170.41
-143.314
-116.596
-88.1691
-58.1334
-26.9496
5.07791
37.6401
70.399
103.054
135.279
166.732
197.076
225.966
253.04
277.95
300.336
319.866
336.221
349.108
358.294
363.581
364.837
361.948
354.983
344.005
329.121
310.486
288.364
263.06
234.919
204.324
171.697
137.477
102.108
66.0341
29.6905
-6.50664
-42.1641
-76.9237
-110.47
-142.534
-172.897
-201.362
-227.881
-252.345
-274.717
-294.989
-313.179
-329.325
-343.48
-355.714
-366.099
-374.717
-381.646
-386.962
-390.738
-393.04
-393.926
-393.456
-391.674
-388.608
-384.305
-378.789
-372.073
-364.166
-355.067
-344.773
-333.274
-320.553
-306.583
-291.331
-274.758
-256.827
-237.496
-216.725
-194.484
-170.754
-145.539
-118.858
-90.7301
-61.4038
-30.9976
0.292305
32.2197
64.4897
96.7702
128.697
159.88
189.915
218.389
244.888
269.004
290.342
308.531
323.237
334.166
341.082
343.819
342.219
336.332
326.235
312.032
293.927
272.214
247.244
219.421
189.178
156.99
123.339
88.6996
53.5364
18.2899
-16.635
-50.8694
-84.0875
-116.009
-146.403
-175.086
-201.939
-226.906
-249.924
-270.979
-290.086
-307.28
-322.61
-336.13
-347.899
-357.974
-366.413
-373.276
-378.631
-382.547
-385.099
-386.358
-386.388
-385.241
-382.962
-379.563
-375.057
-369.465
-362.772
-354.968
-346.033
-335.943
-324.675
-312.196
-298.473
-283.469
-267.152
-249.493
-230.465
-210.05
-188.237
-165.034
-140.475
-114.604
-87.2323
-59.0464
-29.9365
-0.114872
30.1653
60.6115
90.8978
120.666
149.536
177.117
203.007
226.81
248.142
266.642
281.981
293.876
302.095
306.459
306.861
303.14
295.455
283.885
268.499
249.571
227.413
202.387
174.907
145.435
114.446
82.4055
49.7605
16.9271
-15.7114
-47.8095
-79.0588
-109.197
-138.014
-165.365
-189.457
-213.161
-234.897
-254.641
-272.39
-288.148
-301.929
-313.748
-323.648
-331.658
-337.867
-342.373
-345.201
-346.423
-346.335
-344.974
-342.258
-338.307
-333.202
-327.033
-319.872
-311.794
-302.848
-293.068
-282.476
-271.076
-258.863
-245.835
-231.964
-217.213
-201.543
-184.89
-167.177
-148.307
-128.177
-106.666
-83.3013
-58.2686
-31.9622
-4.49198
24.1518
53.8902
84.4815
115.664
147.089
178.384
209.198
239.134
267.778
294.776
319.766
342.418
362.438
379.567
393.602
404.387
411.807
415.798
416.31
413.395
407.142
397.63
385.048
369.595
351.509
331.068
308.552
284.255
258.518
231.655
203.981
175.796
147.365
118.969
90.8295
63.1424
36.0931
9.81708
-15.5646
-39.9435
-63.2357
-85.343
-105.883
-125.406
-144.055
-161.571
-177.877
-192.934
-206.709
-219.178
-230.34
-240.199
47.8062
81.0413
114.546
147.997
181.078
213.26
244.133
273.213
300.095
324.445
345.904
364.148
378.917
389.987
397.17
400.276
398.85
393.358
383.896
370.528
353.454
332.912
309.196
282.664
253.657
222.588
189.857
155.867
121.064
85.8474
50.588
15.6624
-18.6066
-51.9297
-84.0529
-114.8
-143.897
-170.768
-196.406
-220.4
-242.632
-263.059
-281.676
-298.501
-313.57
-326.931
-338.635
-348.74
-357.3
-364.368
-369.993
-374.214
-377.068
-378.592
-378.791
-377.345
-374.485
-370.219
-364.544
-357.418
-348.807
-338.668
-326.941
-313.581
-298.536
-281.751
-263.167
-242.762
-220.51
-196.444
-170.611
-143.514
-116.799
-88.3473
-58.2821
-27.0661
4.99653
37.596
70.3942
103.091
135.358
166.855
197.243
226.178
253.296
278.249
300.677
320.246
336.636
349.553
358.762
364.064
365.325
362.447
355.458
344.468
329.556
310.886
288.722
263.371
235.178
204.528
171.843
137.564
102.138
66.0085
29.6126
-6.63159
-42.3302
-77.1247
-110.699
-142.783
-173.16
-201.634
-228.157
-252.62
-274.988
-295.254
-313.436
-329.572
-343.716
-355.939
-366.314
-374.92
-381.84
-387.146
-390.913
-393.207
-394.087
-393.612
-391.823
-388.753
-384.449
-378.931
-372.214
-364.307
-355.21
-344.918
-333.422
-320.705
-306.74
-291.494
-274.929
-257.006
-237.682
-216.918
-194.683
-170.958
-145.745
-119.06
-90.9213
-61.5828
-31.1586
0.155434
32.1126
64.4184
96.7397
128.712
159.944
190.032
218.56
245.114
269.285
290.675
308.914
323.663
334.627
341.569
344.319
342.74
336.82
326.711
312.475
294.329
272.566
247.54
219.655
189.349
157.097
123.385
88.6884
53.4728
18.1795
-16.7862
-51.0551
-84.3009
-116.244
-146.652
-175.343
-202.201
-227.168
-250.183
-271.232
-290.331
-307.516
-322.836
-336.348
-348.108
-358.174
-366.603
-373.457
-378.803
-382.71
-385.253
-386.504
-386.527
-385.376
-383.094
-379.691
-375.187
-369.595
-362.904
-355.102
-346.17
-336.085
-324.821
-312.348
-298.631
-283.633
-267.323
-249.67
-230.647
-210.237
-188.427
-165.225
-140.664
-114.794
-87.402
-59.2072
-30.0772
-0.230352
30.0805
60.5622
90.8888
120.702
149.62
177.251
203.194
227.05
248.432
266.98
282.362
294.293
302.54
306.923
307.328
303.627
295.912
284.317
268.898
249.926
227.715
202.63
175.089
145.556
114.508
82.4123
49.7178
16.8402
-15.8373
-47.9694
-79.2463
-109.406
-138.24
-165.635
-189.684
-213.426
-235.158
-254.896
-272.636
-288.384
-302.153
-313.96
-323.845
-331.84
-338.032
-342.511
-345.318
-346.528
-346.409
-345.049
-342.322
-338.361
-333.246
-327.07
-319.903
-311.823
-302.877
-293.101
-282.514
-271.12
-258.915
-245.898
-232.039
-217.301
-201.646
-185.009
-167.315
-148.458
-128.345
-106.844
-83.5077
-58.469
-32.1637
-4.68919
23.9667
53.7263
84.3458
115.564
147.029
178.368
209.232
239.218
267.912
294.96
319.996
342.692
362.75
379.912
393.972
404.775
412.207
416.201
416.724
413.777
407.511
397.979
385.369
369.883
351.76
331.279
308.722
284.383
258.604
231.702
203.991
175.771
147.31
118.888
90.7272
63.0226
35.9596
9.67248
-15.7173
-40.1037
-63.3987
-85.5076
-106.037
-125.567
-144.216
-161.734
-178.041
-193.098
-206.873
-219.341
-230.503
-240.361
47.641
80.9228
114.481
147.992
181.139
213.392
244.337
273.488
300.439
324.853
346.372
364.669
379.483
390.589
397.795
400.944
399.504
393.99
384.49
371.081
353.958
333.359
309.578
282.977
253.899
222.758
189.956
155.899
121.032
85.757
50.4454
15.4743
-18.8348
-52.1891
-84.3373
-115.104
-144.194
-171.081
-196.725
-220.72
-242.949
-263.37
-281.979
-298.794
-313.852
-327.202
-338.895
-348.989
-357.539
-364.599
-370.215
-374.431
-377.281
-378.799
-378.994
-377.552
-374.694
-370.433
-364.763
-357.643
-349.04
-338.909
-327.191
-313.841
-298.805
-282.027
-263.45
-243.053
-220.799
-196.727
-170.878
-143.783
-117.071
-88.5854
-58.481
-27.222
4.88731
37.5365
70.3872
103.138
135.463
167.018
197.465
226.46
253.638
278.649
301.133
320.754
337.191
350.148
359.386
364.71
365.977
363.107
356.097
345.087
330.135
311.42
289.201
263.786
235.524
204.799
172.037
137.681
102.177
65.9739
29.5084
-6.79858
-42.5521
-77.3931
-111.004
-143.116
-173.511
-201.998
-228.524
-252.987
-275.349
-295.607
-313.778
-329.901
-344.032
-356.239
-366.599
-375.191
-382.097
-387.391
-391.146
-393.43
-394.301
-393.818
-392.02
-388.948
-384.639
-379.119
-372.402
-364.495
-355.399
-345.11
-333.619
-320.908
-306.95
-291.712
-275.157
-257.243
-237.93
-217.175
-194.947
-171.229
-146.018
-119.33
-91.1761
-61.8211
-31.3731
-0.0268152
31.97
64.3234
96.6993
128.733
160.03
190.188
218.788
245.416
269.66
291.121
309.425
324.232
335.243
342.219
344.986
343.423
337.485
327.348
313.068
294.867
273.036
247.935
219.967
189.577
157.241
123.447
88.6735
53.3881
18.0323
-16.9879
-51.3026
-84.5855
-116.557
-146.985
-175.686
-202.55
-227.517
-250.529
-271.57
-290.658
-307.831
-323.139
-336.637
-348.385
-358.439
-366.857
-373.699
-379.032
-382.927
-385.458
-386.698
-386.712
-385.555
-383.267
-379.862
-375.359
-369.768
-363.079
-355.28
-346.352
-336.273
-325.016
-312.551
-298.841
-283.852
-267.55
-249.905
-230.89
-210.486
-188.681
-165.48
-140.915
-115.05
-87.6262
-59.4218
-30.2649
-0.384079
29.9676
60.4968
90.877
120.749
149.732
177.431
203.443
227.37
248.82
267.431
282.871
294.849
303.134
307.542
307.954
304.267
296.527
284.896
269.432
250.4
228.118
202.954
175.331
145.717
114.589
82.4214
49.6608
16.7244
-16.0053
-48.1824
-79.4962
-109.684
-138.538
-165.959
-190.022
-213.78
-235.505
-255.235
-272.963
-288.699
-302.452
-314.241
-324.107
-332.083
-338.252
-342.697
-345.476
-346.67
-346.506
-345.15
-342.407
-338.431
-333.305
-327.119
-319.945
-311.862
-302.917
-293.144
-282.564
-271.179
-258.986
-245.982
-232.139
-217.419
-201.784
-185.169
-167.497
-148.661
-128.569
-107.084
-83.7816
-58.736
-32.433
-4.95288
23.7193
53.507
84.1643
115.429
146.949
178.348
209.276
239.33
268.091
295.205
320.304
343.057
363.167
380.371
394.466
405.294
412.74
416.738
417.268
414.294
408.004
398.444
385.798
370.268
352.095
331.561
308.949
284.553
258.719
231.764
204.003
175.738
147.237
118.78
90.5906
62.8626
35.7814
9.47949
-15.9208
-40.3174
-63.6166
-85.7264
-106.244
-125.782
-144.432
-161.951
-178.259
-193.317
-207.092
-219.56
-230.721
-240.578
47.434
80.7741
114.399
147.985
181.216
213.556
244.592
273.832
300.868
325.363
346.957
365.32
380.19
391.341
398.579
401.76
400.32
394.778
385.233
371.774
354.589
333.918
310.055
283.367
254.201
222.971
190.079
155.938
120.992
85.6434
50.2667
15.2384
-19.1204
-52.514
-84.6943
-115.483
-144.565
-171.473
-197.123
-221.119
-243.346
-263.759
-282.358
-299.161
-314.205
-327.54
-339.22
-349.301
-357.839
-364.887
-370.494
-374.701
-377.545
-379.058
-379.249
-377.81
-374.956
-370.701
-365.037
-357.926
-349.332
-339.21
-327.504
-314.166
-299.141
-282.374
-263.805
-243.416
-221.162
-197.083
-171.213
-144.12
-117.411
-88.8836
-58.7303
-27.4176
4.75006
37.4614
70.3777
103.197
135.593
167.221
197.743
226.812
254.065
279.149
301.703
321.389
337.883
350.891
360.168
365.517
366.794
363.928
356.901
345.859
330.86
312.086
289.798
264.305
235.955
205.138
172.28
137.825
102.226
65.9295
29.3772
-7.00837
-42.8307
-77.7294
-111.386
-143.533
-173.95
-202.453
-228.984
-253.446
-275.801
-296.049
-314.206
-330.313
-344.426
-356.614
-366.956
-375.53
-382.418
-387.697
-391.438
-393.709
-394.569
-394.075
-392.269
-389.191
-384.878
-379.355
-372.637
-364.73
-355.636
-345.351
-333.865
-321.161
-307.212
-291.985
-275.441
-257.541
-238.239
-217.497
-195.279
-171.567
-146.36
-119.669
-91.4948
-62.1194
-31.6418
-0.255266
31.7912
64.2041
96.6483
128.758
160.137
190.382
219.073
245.793
270.13
291.679
310.065
324.944
336.014
343.033
345.824
344.267
338.323
328.146
313.811
295.539
273.625
248.429
220.358
189.862
157.421
123.524
88.6543
53.2814
17.8473
-17.2408
-51.6127
-84.942
-116.949
-147.402
-176.114
-202.987
-227.955
-250.961
-271.992
-291.067
-308.225
-323.517
-336.999
-348.732
-358.772
-367.175
-374.001
-379.318
-383.197
-385.713
-386.94
-386.944
-385.778
-383.483
-380.077
-375.574
-369.984
-363.297
-355.502
-346.58
-336.508
-325.259
-312.803
-299.104
-284.126
-267.835
-250.2
-231.195
-210.798
-188.998
-165.799
-141.229
-115.367
-87.9097
-59.6913
-30.5
-0.57668
29.8259
60.4144
90.8616
120.809
149.872
177.655
203.755
227.769
249.305
267.996
283.507
295.546
303.878
308.317
308.741
305.06
297.302
285.622
270.099
250.993
228.623
203.36
175.635
145.918
114.691
82.4321
49.589
16.5789
-16.216
-48.449
-79.8092
-110.033
-138.908
-166.332
-190.476
-214.225
-235.94
-255.66
-273.373
-289.092
-302.825
-314.593
-324.435
-332.385
-338.525
-342.933
-345.678
-346.849
-346.632
-345.278
-342.513
-338.519
-333.378
-327.179
-319.997
-311.91
-302.966
-293.197
-282.626
-271.253
-259.074
-246.086
-232.264
-217.567
-201.956
-185.369
-167.726
-148.915
-128.849
-107.387
-84.1223
-59.0694
-32.7703
-5.28356
23.409
53.232
83.9365
115.26
146.848
178.322
209.331
239.469
268.315
295.511
320.689
343.514
363.688
380.947
395.084
405.943
413.407
417.411
417.939
414.948
408.623
399.027
386.334
370.748
352.513
331.913
309.232
284.766
258.863
231.841
204.018
175.697
147.145
118.645
90.4193
62.6622
35.5582
9.23792
-16.1754
-40.5846
-63.8895
-85.9989
-106.504
-126.05
-144.702
-162.223
-178.532
-193.591
-207.366
-219.833
-230.993
-240.848
47.1848
80.5947
114.299
147.976
181.307
213.753
244.897
274.245
301.383
325.975
347.659
366.102
381.04
392.244
399.521
402.733
401.292
395.72
386.125
372.605
355.346
334.589
310.628
283.836
254.563
223.225
190.227
155.983
120.942
85.5062
50.0514
14.9543
-19.4638
-52.9048
-85.1252
-115.94
-145.009
-171.943
-197.602
-221.599
-243.822
-264.227
-282.813
-299.601
-314.628
-327.947
-339.61
-349.675
-358.198
-365.233
-370.828
-375.026
-377.863
-379.369
-379.556
-378.12
-375.27
-371.021
-365.366
-358.264
-349.682
-339.572
-327.879
-314.555
-299.545
-282.789
-264.231
-243.852
-221.599
-197.512
-171.618
-144.522
-117.819
-89.2422
-59.0304
-27.6531
4.58435
37.3704
70.3653
103.266
135.749
167.464
198.075
227.234
254.577
279.748
302.387
322.151
338.715
351.784
361.107
366.485
367.775
364.909
357.869
346.786
331.73
312.887
290.515
264.927
236.473
205.543
172.57
137.998
102.283
65.875
29.2186
-7.26155
-43.1664
-78.1345
-111.847
-144.035
-174.478
-203
-229.537
-253.997
-276.345
-296.579
-314.72
-330.807
-344.9
-357.065
-367.384
-375.937
-382.804
-388.064
-391.788
-394.044
-394.89
-394.384
-392.567
-389.482
-385.164
-379.638
-372.918
-365.012
-355.921
-345.64
-334.16
-321.464
-307.526
-292.312
-275.783
-257.897
-238.612
-217.883
-195.677
-171.974
-146.771
-120.078
-91.8774
-62.4783
-31.9653
-0.53058
31.5757
64.0599
96.586
128.786
160.265
190.615
219.415
246.246
270.693
292.348
310.833
325.799
336.941
344.012
346.831
345.281
339.33
329.104
314.704
296.347
274.332
249.021
220.827
190.203
157.635
123.615
88.6301
53.1522
17.624
-17.5455
-51.9861
-85.3711
-117.421
-147.904
-176.628
-203.513
-228.481
-251.481
-272.499
-291.558
-308.697
-323.97
-337.434
-349.149
-359.171
-367.556
-374.364
-379.662
-383.522
-386.02
-387.231
-387.221
-386.045
-383.744
-380.334
-375.832
-370.243
-363.56
-355.77
-346.854
-336.79
-325.552
-313.107
-299.42
-284.455
-268.176
-250.554
-231.56
-211.173
-189.379
-166.182
-141.607
-115.721
-88.2787
-60.0167
-30.7831
-0.808734
29.6549
60.3145
90.8423
120.879
150.039
177.923
204.128
228.248
249.887
268.675
284.272
296.383
304.771
309.249
309.688
306.008
298.232
286.495
270.902
251.706
229.228
203.847
175.998
146.158
114.813
82.4438
49.5017
16.4032
-16.4697
-48.7697
-80.186
-110.453
-139.352
-166.749
-191.053
-214.762
-236.461
-256.169
-273.864
-289.564
-303.273
-315.015
-324.828
-332.748
-338.853
-343.218
-345.924
-347.065
-346.813
-345.432
-342.64
-338.625
-333.465
-327.251
-320.059
-311.967
-303.024
-293.262
-282.7
-271.341
-259.18
-246.212
-232.414
-217.743
-202.162
-185.608
-168
-149.221
-129.187
-107.755
-84.5285
-59.4693
-33.1762
-5.68179
23.0353
52.9006
83.662
115.056
146.726
178.29
209.395
239.635
268.583
295.878
321.151
344.063
364.314
381.638
395.827
406.722
414.208
418.22
418.742
415.735
409.368
399.727
386.978
371.325
353.015
332.336
309.571
285.021
259.035
231.933
204.036
175.646
147.033
118.482
90.2131
62.421
35.2897
8.94757
-16.4812
-40.9054
-64.218
-86.3248
-106.818
-126.371
-145.025
-162.549
-178.86
-193.92
-207.694
-220.162
-231.32
-241.173
46.893
80.3842
114.182
147.964
181.413
213.983
245.254
274.727
301.985
326.689
348.479
367.016
382.032
393.299
400.621
403.864
402.422
396.817
387.166
373.576
356.23
335.372
311.297
284.383
254.985
223.521
190.398
156.036
120.883
85.3449
49.799
14.6215
-19.8651
-53.3619
-85.6304
-116.476
-145.526
-172.492
-198.16
-222.16
-244.378
-264.773
-283.344
-300.114
-315.123
-328.422
-340.065
-350.111
-358.616
-365.636
-371.218
-375.404
-378.233
-379.732
-379.915
-378.482
-375.637
-371.395
-365.75
-358.66
-350.09
-339.994
-328.316
-315.009
-300.016
-283.275
-264.729
-244.36
-222.109
-198.014
-172.096
-144.988
-118.294
-89.6618
-59.3817
-27.9291
4.38984
37.263
70.3495
103.346
135.929
167.746
198.461
227.726
255.174
280.447
303.184
323.04
339.687
352.826
362.203
367.617
368.922
366.052
358.999
347.867
332.745
313.82
291.351
265.652
237.076
206.016
172.908
138.199
102.348
65.8099
29.0318
-7.5587
-43.56
-78.6091
-112.386
-144.622
-175.096
-203.64
-230.183
-254.641
-276.979
-297.199
-315.32
-331.385
-345.452
-357.592
-367.884
-376.411
-383.254
-388.492
-392.196
-394.434
-395.265
-394.744
-392.916
-389.822
-385.498
-379.967
-373.246
-365.341
-356.252
-345.976
-334.504
-321.819
-307.893
-292.693
-276.182
-258.314
-239.046
-218.334
-196.143
-172.45
-147.251
-120.559
-92.3231
-62.8986
-32.3443
-0.853324
31.3229
63.8901
96.512
128.819
160.413
190.886
219.814
246.775
271.35
293.129
311.729
326.798
338.023
345.155
348.009
346.468
340.503
330.225
315.747
297.291
275.158
249.713
221.374
190.601
157.885
123.72
88.6004
52.9996
17.3619
-17.9027
-52.4235
-85.8735
-117.973
-148.491
-177.229
-204.126
-229.095
-252.087
-273.092
-292.132
-309.249
-324.5
-337.942
-349.635
-359.637
-368.001
-374.788
-380.063
-383.902
-386.378
-387.57
-387.544
-386.357
-384.048
-380.635
-376.132
-370.545
-363.866
-356.082
-347.174
-337.119
-325.892
-313.461
-299.789
-284.839
-268.575
-250.967
-231.986
-211.611
-189.824
-166.629
-142.048
-116.134
-88.7125
-60.3979
-31.1147
-1.08085
29.454
60.1966
90.8186
120.959
150.232
178.236
204.564
228.807
250.566
269.467
285.165
297.361
305.816
310.337
310.797
307.117
299.317
287.516
271.84
252.538
229.935
204.415
176.422
146.437
114.953
82.4558
49.3983
16.197
-16.7668
-49.1455
-80.6271
-110.944
-139.872
-167.237
-191.727
-215.387
-237.069
-256.763
-274.438
-290.114
-303.796
-315.507
-325.287
-333.17
-339.234
-343.553
-346.214
-347.319
-347.035
-345.613
-342.788
-338.747
-333.566
-327.335
-320.131
-312.033
-303.092
-293.336
-282.787
-271.443
-259.303
-246.358
-232.589
-217.95
-202.403
-185.886
-168.317
-149.579
-129.581
-108.189
-84.9994
-59.9361
-33.6512
-6.14833
22.5974
52.5122
83.34
114.817
146.582
178.251
209.47
239.828
268.895
296.307
321.69
344.703
365.045
382.445
396.694
407.633
415.145
419.165
419.679
416.651
410.239
400.544
387.729
371.999
353.602
332.829
309.967
285.319
259.235
232.04
204.055
175.586
146.903
118.291
89.9716
62.1388
34.9756
8.60832
-16.8387
-41.2798
-64.6027
-86.7042
-107.186
-126.745
-145.402
-162.93
-179.243
-194.303
-208.078
-220.544
-231.702
-241.553
46.5581
80.1421
114.046
147.949
181.533
214.244
245.661
275.278
302.673
327.506
349.416
368.061
383.167
394.506
401.879
405.155
403.709
398.069
388.358
374.686
357.242
336.268
312.062
285.009
255.466
223.858
190.593
156.094
120.814
85.1589
49.509
14.2394
-20.3247
-53.8861
-86.2104
-117.093
-146.115
-173.118
-198.799
-222.802
-245.014
-265.397
-283.951
-300.701
-315.688
-328.964
-340.585
-350.609
-359.095
-366.096
-371.663
-375.836
-378.655
-380.146
-380.327
-378.894
-376.055
-371.823
-366.188
-359.111
-350.556
-340.477
-328.817
-315.528
-300.555
-283.831
-265.299
-244.941
-222.694
-198.591
-172.649
-145.518
-118.837
-90.1427
-59.7846
-28.2459
4.16604
37.1388
70.33
103.436
136.133
168.068
198.902
228.287
255.855
281.245
304.096
324.057
340.798
354.017
363.456
368.912
370.234
367.362
360.289
349.102
333.906
314.888
292.307
266.482
237.765
206.556
173.293
138.427
102.421
65.7338
28.8161
-7.90059
-44.0125
-79.1542
-113.005
-145.295
-175.805
-204.372
-230.923
-255.378
-277.706
-297.908
-316.007
-332.045
-346.084
-358.193
-368.455
-376.953
-383.769
-388.981
-392.663
-394.88
-395.693
-395.155
-393.314
-390.21
-385.879
-380.344
-373.621
-365.717
-356.632
-346.361
-334.898
-322.223
-308.312
-293.129
-276.637
-258.79
-239.543
-218.851
-196.676
-172.994
-147.8
-121.112
-92.8327
-63.3812
-32.7795
-1.22426
31.032
63.6941
96.4256
128.854
160.581
191.194
220.268
247.378
272.101
294.022
312.755
327.94
339.262
346.465
349.359
347.827
341.845
331.507
316.941
298.372
276.102
250.504
222
191.056
158.168
123.838
88.5646
52.8232
17.0602
-18.3131
-52.9257
-86.4499
-118.606
-149.164
-177.918
-204.829
-229.798
-252.781
-273.769
-292.788
-309.88
-325.105
-338.522
-350.191
-360.17
-368.51
-375.272
-380.522
-384.335
-386.787
-387.957
-387.914
-386.714
-384.395
-380.978
-376.475
-370.89
-364.216
-356.438
-347.54
-337.496
-326.282
-313.866
-300.21
-285.278
-269.031
-251.44
-232.475
-212.112
-190.335
-167.142
-142.553
-116.611
-89.2049
-60.835
-31.4954
-1.39367
29.2227
60.0601
90.7897
121.05
150.452
178.592
205.06
229.446
251.343
270.373
286.186
298.48
307.011
311.584
312.068
308.388
300.556
288.686
272.914
253.49
230.744
205.065
176.906
146.754
115.111
82.4675
49.2785
15.9597
-17.1079
-49.5765
-81.1332
-111.507
-140.468
-167.813
-192.482
-216.101
-237.764
-257.442
-275.094
-290.744
-304.394
-316.07
-325.811
-333.652
-339.67
-343.937
-346.549
-347.611
-347.289
-345.819
-342.956
-338.887
-333.681
-327.43
-320.212
-312.108
-303.168
-293.421
-282.885
-271.56
-259.443
-246.526
-232.788
-218.185
-202.678
-186.205
-168.679
-149.988
-130.033
-108.689
-85.5363
-60.4702
-34.1961
-6.68403
22.0945
52.0658
82.9697
114.541
146.415
178.205
209.555
240.049
269.252
296.797
322.306
345.436
365.881
383.369
397.686
408.675
416.217
420.247
420.752
417.698
411.237
401.48
388.589
372.769
354.272
333.393
310.42
285.658
259.463
232.161
204.076
175.515
146.752
118.071
89.6943
61.8152
34.6155
8.22002
-17.2483
-41.7077
-65.0443
-87.1381
-107.607
-127.17
-145.833
-163.365
-179.681
-194.742
-208.517
-220.982
-232.138
-241.986
46.1795
79.8677
113.891
147.931
181.666
214.538
246.118
275.898
303.447
328.425
350.472
369.237
384.446
395.866
403.296
406.606
405.155
399.479
389.7
375.936
358.382
337.276
312.923
285.712
256.007
224.236
190.811
156.159
120.734
84.9477
49.1804
13.8075
-20.8432
-54.4784
-86.8652
-117.787
-146.78
-173.824
-199.519
-223.525
-245.731
-266.1
-284.635
-301.362
-316.324
-329.574
-341.169
-351.169
-359.633
-366.614
-372.164
-376.321
-379.13
-380.612
-380.791
-379.358
-376.526
-372.303
-366.681
-359.619
-351.08
-341.019
-329.38
-316.111
-301.161
-284.456
-265.942
-245.595
-223.355
-199.243
-173.281
-146.109
-119.449
-90.6858
-60.2398
-28.6041
3.91244
36.9972
70.3062
103.536
136.362
168.428
199.397
228.918
256.62
282.141
305.121
325.201
342.048
355.358
364.867
370.37
371.713
368.837
361.739
350.493
335.212
316.089
293.383
267.414
238.539
207.162
173.725
138.682
102.501
65.6457
28.5708
-8.28828
-44.5249
-79.7706
-113.704
-146.055
-176.604
-205.199
-231.758
-256.209
-278.524
-298.706
-316.78
-332.789
-346.795
-358.871
-369.099
-377.563
-384.348
-389.532
-393.188
-395.382
-396.174
-395.619
-393.762
-390.647
-386.307
-380.768
-374.044
-366.141
-357.058
-346.794
-335.34
-322.679
-308.783
-293.62
-277.15
-259.326
-240.102
-219.432
-197.276
-173.608
-148.42
-121.738
-93.4067
-63.927
-33.2718
-1.64423
30.7021
63.4712
96.3258
128.892
160.768
191.539
220.778
248.055
272.946
295.028
313.91
329.228
340.658
347.941
350.882
349.361
343.356
332.953
318.288
299.591
277.167
251.394
222.703
191.566
158.485
123.97
88.522
52.622
16.7181
-18.7777
-53.4937
-87.1009
-119.321
-149.925
-178.695
-205.62
-230.591
-253.564
-274.533
-293.526
-310.591
-325.787
-339.175
-350.817
-360.769
-369.083
-375.818
-381.039
-384.823
-387.247
-388.392
-388.329
-387.114
-384.786
-381.365
-376.861
-371.279
-364.61
-356.84
-347.951
-337.919
-326.721
-314.322
-300.685
-285.772
-269.545
-251.972
-233.024
-212.677
-190.91
-167.721
-143.125
-117.156
-89.7556
-61.328
-31.9256
-1.74791
28.9599
59.9042
90.7551
121.15