/*--------------------------------*- C++ -*----------------------------------*\
| =========                 |                                                 |
| \\      /  F ield         | OpenFOAM: The Open Source CFD Toolbox           |
|  \\    /   O peration     | Version:  3.0.1                                 |
|   \\  /    A nd           | Web:      www.OpenFOAM.org                      |
|    \\/     M anipulation  |                                                 |
\*---------------------------------------------------------------------------*/
FoamFile
{
    version     2.0;
    format      ascii;
    class       volVectorField;
    location    "6.8";
    object      U;
}
// * * * * * * * * * * * * * * * * * * * * * * * * * * * * * * * * * * * * * //

dimensions      [0 1 -1 0 0 0 0];

internalField   nonuniform List<vector> 
21420
(
(0.178727 -0.000697611 0)
(0.183266 -0.000524151 0)
(0.187641 -0.000339436 0)
(0.190217 -0.000150655 0)
(0.190849 2.44374e-05 0)
(0.189711 0.000203361 0)
(0.186658 0.000386909 0)
(0.181866 0.000562076 0)
(0.175367 0.000730738 0)
(0.167242 0.000881769 0)
(0.157604 0.00102941 0)
(0.146573 0.00116688 0)
(0.134305 0.00127084 0)
(0.120964 0.00137665 0)
(0.106726 0.00144219 0)
(0.0917766 0.00151091 0)
(0.0762872 0.00156232 0)
(0.0604443 0.0015691 0)
(0.0443669 0.00158091 0)
(0.0281543 0.00157467 0)
(0.0122867 0.00153313 0)
(-0.0027859 0.00150016 0)
(-0.0173618 0.00145139 0)
(-0.03155 0.00137885 0)
(-0.0450912 0.00131285 0)
(-0.0578997 0.00122978 0)
(-0.0699189 0.0011524 0)
(-0.0811046 0.0010698 0)
(-0.0914204 0.000978208 0)
(-0.100847 0.00089071 0)
(-0.109367 0.00080105 0)
(-0.116973 0.000708402 0)
(-0.123669 0.00061889 0)
(-0.129463 0.000529155 0)
(-0.134372 0.000442871 0)
(-0.138414 0.000357941 0)
(-0.141611 0.000275123 0)
(-0.143986 0.000194746 0)
(-0.145502 0.000120526 0)
(-0.146236 4.68538e-05 0)
(-0.146254 -3.13454e-05 0)
(-0.145538 -0.00011168 0)
(-0.144077 -0.000186946 0)
(-0.14185 -0.000263224 0)
(-0.138853 -0.000342338 0)
(-0.135109 -0.0004156 0)
(-0.130609 -0.000490008 0)
(-0.125336 -0.000568363 0)
(-0.119316 -0.000635608 0)
(-0.112627 -0.000701162 0)
(-0.105269 -0.000770696 0)
(-0.0972489 -0.000825307 0)
(-0.0886918 -0.000881743 0)
(-0.0795605 -0.000925295 0)
(-0.0700485 -0.000959269 0)
(-0.060211 -0.000998032 0)
(-0.0498962 -0.00102224 0)
(-0.0392726 -0.00103972 0)
(-0.0286221 -0.00105918 0)
(-0.0178868 -0.00106808 0)
(-0.00703902 -0.00107884 0)
(0.00374628 -0.00108179 0)
(0.0145964 -0.00107948 0)
(0.0254992 -0.00107715 0)
(0.0363965 -0.00106948 0)
(0.0471822 -0.00105474 0)
(0.0577842 -0.0010396 0)
(0.0682297 -0.00101358 0)
(0.0784097 -0.000985709 0)
(0.0882637 -0.000945982 0)
(0.0976634 -0.000897235 0)
(0.10654 -0.000841631 0)
(0.114748 -0.000771833 0)
(0.122218 -0.00069514 0)
(0.128873 -0.000605126 0)
(0.134526 -0.000503795 0)
(0.139076 -0.000396843 0)
(0.142481 -0.000273226 0)
(0.144626 -0.000148653 0)
(0.145494 -1.79181e-05 0)
(0.145024 0.000112094 0)
(0.143135 0.000251709 0)
(0.139962 0.000381031 0)
(0.135494 0.000505488 0)
(0.129756 0.000618497 0)
(0.122936 0.00072917 0)
(0.115173 0.000825565 0)
(0.1064 0.000906788 0)
(0.0968407 0.000977225 0)
(0.0867253 0.00103415 0)
(0.0761666 0.00106887 0)
(0.0652255 0.0010988 0)
(0.0540437 0.00111136 0)
(0.0428044 0.00110777 0)
(0.0317328 0.00109919 0)
(0.020858 0.00107193 0)
(0.0102318 0.00103514 0)
(-1.06922e-05 0.000983731 0)
(-0.00975158 0.000931952 0)
(-0.0188784 0.000871968 0)
(-0.0273039 0.000804571 0)
(-0.0349608 0.000731649 0)
(-0.0419775 0.000655354 0)
(-0.0482908 0.00058379 0)
(-0.0537728 0.000506043 0)
(-0.0584467 0.000430245 0)
(-0.0623273 0.000353154 0)
(-0.0655414 0.000279385 0)
(-0.0680529 0.000208713 0)
(-0.0697716 0.00013903 0)
(-0.0707845 7.55123e-05 0)
(-0.071202 1.18215e-05 0)
(-0.0710339 -4.849e-05 0)
(-0.0702661 -0.000105198 0)
(-0.0689435 -0.000158161 0)
(-0.0671023 -0.000208105 0)
(-0.0647434 -0.000253846 0)
(-0.0619837 -0.000298325 0)
(-0.0588329 -0.000335869 0)
(-0.0552654 -0.000370366 0)
(-0.0513704 -0.000401472 0)
(-0.0471812 -0.000428145 0)
(-0.04276 -0.000450613 0)
(-0.0381293 -0.000468167 0)
(-0.0333241 -0.000482993 0)
(-0.0283943 -0.000493215 0)
(-0.0233925 -0.000500232 0)
(-0.0183472 -0.000502492 0)
(-0.013258 -0.000500707 0)
(-0.00821907 -0.000498139 0)
(-0.00327681 -0.000489691 0)
(0.00161075 -0.000478244 0)
(0.0063661 -0.000464817 0)
(0.0109536 -0.000447401 0)
(0.0153754 -0.000427571 0)
(0.0195834 -0.000406059 0)
(0.0235487 -0.000381582 0)
(0.0272699 -0.000355524 0)
(0.0307256 -0.000327321 0)
(0.0338855 -0.000297297 0)
(0.0367367 -0.000267489 0)
(0.0392672 -0.000235329 0)
(0.041481 -0.000203831 0)
(0.0433669 -0.000171379 0)
(0.0449278 -0.00013837 0)
(0.046166 -0.000106885 0)
(0.0470712 -7.42822e-05 0)
(0.0476737 -4.42952e-05 0)
(0.0479708 -1.4641e-05 0)
(0.0479772 1.29162e-05 0)
(0.0477092 3.97976e-05 0)
(0.0471882 6.4027e-05 0)
(0.0464207 8.67563e-05 0)
(0.0454398 0.000107987 0)
(0.0442634 0.000125955 0)
(0.0429055 0.00014316 0)
(0.0413967 0.00015682 0)
(0.0397524 0.000169052 0)
(0.0380012 0.000178591 0)
(0.0361583 0.000186554 0)
(0.0342509 0.000191791 0)
(0.0322942 0.000195511 0)
(0.0303108 0.000197983 0)
(0.0283196 0.000197636 0)
(0.026329 0.000196734 0)
(0.0243644 0.000193497 0)
(0.0224274 0.000189356 0)
(0.0205395 0.000184473 0)
(0.0187104 0.000178354 0)
(0.0169416 0.000172486 0)
(0.0152491 0.000164345 0)
(0.0136341 0.000156325 0)
(0.0120993 0.000148024 0)
(0.0106512 0.000139358 0)
(0.00928935 0.000130614 0)
(0.00801269 0.000121378 0)
(0.00683145 0.000113209 0)
(0.00574067 0.00010418 0)
(0.0047326 9.55429e-05 0)
(0.00381229 8.70574e-05 0)
(0.00297597 7.88621e-05 0)
(0.00222052 7.09314e-05 0)
(0.00154337 6.33066e-05 0)
(0.000941138 5.60493e-05 0)
(0.000412197 4.916e-05 0)
(-4.88073e-05 4.26649e-05 0)
(-0.000447831 3.6638e-05 0)
(-0.00078724 3.09156e-05 0)
(-0.00107104 2.55228e-05 0)
(-0.00130476 2.07436e-05 0)
(-0.00149139 1.62417e-05 0)
(-0.00163278 1.21527e-05 0)
(-0.00173665 8.41654e-06 0)
(-0.00180649 5.17621e-06 0)
(-0.00184234 2.26156e-06 0)
(-0.00185111 -4.91067e-07 0)
(-0.00183654 -2.63031e-06 0)
(-0.00179977 -4.60801e-06 0)
(-0.00174434 -6.29968e-06 0)
(-0.00167369 -7.73111e-06 0)
(-0.00159024 -8.87335e-06 0)
(-0.00149594 -9.80875e-06 0)
(-0.00139306 -1.05223e-05 0)
(-0.00128375 -1.10005e-05 0)
(-0.00117076 -1.14412e-05 0)
(-0.00105521 -1.16604e-05 0)
(-0.000936896 -1.16486e-05 0)
(-0.000819128 -1.17312e-05 0)
(-0.000702471 -1.15257e-05 0)
(-0.000587477 -1.12275e-05 0)
(-0.00047607 -1.09634e-05 0)
(-0.00036772 -1.05662e-05 0)
(-0.00026294 -1.01359e-05 0)
(-0.000163408 -9.60355e-06 0)
(-6.9501e-05 -9.13124e-06 0)
(1.94868e-05 -8.59431e-06 0)
(0.000103097 -8.03735e-06 0)
(0.000181223 -7.47103e-06 0)
(0.000253649 -6.90071e-06 0)
(0.000320345 -6.33144e-06 0)
(0.00038134 -5.76828e-06 0)
(0.000436712 -5.2152e-06 0)
(0.00048658 -4.67553e-06 0)
(0.000531089 -4.15199e-06 0)
(0.000570416 -3.64629e-06 0)
(0.000604751 -3.16199e-06 0)
(0.000634322 -2.69959e-06 0)
(0.000659347 -2.25957e-06 0)
(0.000680049 -1.84459e-06 0)
(0.000696683 -1.45367e-06 0)
(0.000709497 -1.08728e-06 0)
(0.000718742 -7.45646e-07 0)
(0.000724666 -4.28532e-07 0)
(0.000727521 -1.35741e-07 0)
(0.000727538 1.33696e-07 0)
(0.000724948 3.79837e-07 0)
(0.000719984 6.04289e-07 0)
(0.000712863 8.07819e-07 0)
(0.000703791 9.91198e-07 0)
(0.000692968 1.15513e-06 0)
(0.000680586 1.30036e-06 0)
(0.00066683 1.42766e-06 0)
(0.000651877 1.53787e-06 0)
(0.000635893 1.63186e-06 0)
(0.00061904 1.71058e-06 0)
(0.000601464 1.77497e-06 0)
(0.000583307 1.82602e-06 0)
(0.000564697 1.86468e-06 0)
(0.000545755 1.89192e-06 0)
(0.000526591 1.90865e-06 0)
(0.000507307 1.91581e-06 0)
(0.000487994 1.91424e-06 0)
(0.000468737 1.90481e-06 0)
(0.00044961 1.88829e-06 0)
(0.000430682 1.86548e-06 0)
(0.000412012 1.83707e-06 0)
(0.000393653 1.80376e-06 0)
(0.000375651 1.76618e-06 0)
(0.000358047 1.72494e-06 0)
(0.000340875 1.6806e-06 0)
(0.000324166 1.6337e-06 0)
(0.000307944 1.5847e-06 0)
(0.00029223 1.53409e-06 0)
(0.000277042 1.48226e-06 0)
(0.000262389 1.42961e-06 0)
(0.000248282 1.37647e-06 0)
(0.000234724 1.32316e-06 0)
(0.000221716 1.26997e-06 0)
(0.000209255 1.21714e-06 0)
(0.000197338 1.16487e-06 0)
(0.000185957 1.11336e-06 0)
(0.000175103 1.06277e-06 0)
(0.000164763 1.01326e-06 0)
(0.000154926 9.64946e-07 0)
(0.000145576 9.1793e-07 0)
(0.000136699 8.72314e-07 0)
(0.000128279 8.28116e-07 0)
(0.000120299 7.85349e-07 0)
(0.000112742 7.44068e-07 0)
(0.000105592 7.04286e-07 0)
(9.88338e-05 6.66018e-07 0)
(9.24498e-05 6.29257e-07 0)
(8.6424e-05 5.9402e-07 0)
(8.07405e-05 5.60345e-07 0)
(7.5383e-05 5.28177e-07 0)
(7.0336e-05 4.97485e-07 0)
(6.55839e-05 4.68278e-07 0)
(6.11125e-05 4.40443e-07 0)
(5.69082e-05 4.13904e-07 0)
(5.29578e-05 3.88653e-07 0)
(4.92486e-05 3.64654e-07 0)
(4.57688e-05 3.41867e-07 0)
(4.25062e-05 3.20261e-07 0)
(3.94493e-05 2.99795e-07 0)
(3.65872e-05 2.8043e-07 0)
(3.39095e-05 2.62092e-07 0)
(3.14065e-05 2.44725e-07 0)
(2.90687e-05 2.28308e-07 0)
(2.68873e-05 2.12805e-07 0)
(2.48534e-05 1.98188e-07 0)
(2.29588e-05 1.84424e-07 0)
(2.11951e-05 1.71478e-07 0)
(1.95547e-05 1.59313e-07 0)
(1.80302e-05 1.47884e-07 0)
(1.66147e-05 1.37152e-07 0)
(1.53016e-05 1.27091e-07 0)
(1.40845e-05 1.1767e-07 0)
(1.29573e-05 1.08865e-07 0)
(1.19142e-05 1.00646e-07 0)
(1.09496e-05 9.29818e-08 0)
(1.00582e-05 8.58421e-08 0)
(9.2351e-06 7.91952e-08 0)
(8.47556e-06 7.30121e-08 0)
(7.77519e-06 6.72661e-08 0)
(7.12982e-06 6.1933e-08 0)
(6.53551e-06 5.69897e-08 0)
(5.98855e-06 5.24123e-08 0)
(5.48543e-06 4.81783e-08 0)
(5.02287e-06 4.42657e-08 0)
(4.5978e-06 4.0653e-08 0)
(4.20736e-06 3.73196e-08 0)
(3.84889e-06 3.42449e-08 0)
(3.5199e-06 3.14107e-08 0)
(3.21811e-06 2.87998e-08 0)
(2.94137e-06 2.63961e-08 0)
(2.6877e-06 2.41845e-08 0)
(2.45526e-06 2.21515e-08 0)
(2.24234e-06 2.02833e-08 0)
(2.04735e-06 1.85672e-08 0)
(1.86885e-06 1.6991e-08 0)
(1.70549e-06 1.55439e-08 0)
(1.55604e-06 1.42159e-08 0)
(1.41935e-06 1.29977e-08 0)
(1.29436e-06 1.1881e-08 0)
(1.18011e-06 1.0858e-08 0)
(1.07569e-06 9.92117e-09 0)
(9.80277e-07 9.06343e-09 0)
(8.93108e-07 8.27817e-09 0)
(8.13491e-07 7.55931e-09 0)
(7.40788e-07 6.90133e-09 0)
(6.74413e-07 6.29926e-09 0)
(6.13828e-07 5.74858e-09 0)
(5.5854e-07 5.24516e-09 0)
(5.08094e-07 4.78511e-09 0)
(4.62072e-07 4.36486e-09 0)
(4.20091e-07 3.98108e-09 0)
(3.81801e-07 3.63068e-09 0)
(3.46881e-07 3.31076e-09 0)
(3.15037e-07 3.01867e-09 0)
(2.86004e-07 2.75193e-09 0)
(2.59536e-07 2.50832e-09 0)
(2.35411e-07 2.28582e-09 0)
(2.13425e-07 2.08256e-09 0)
(1.93392e-07 1.89686e-09 0)
(1.75138e-07 1.72712e-09 0)
(1.58513e-07 1.57191e-09 0)
(1.4015e-07 1.42992e-09 0)
(0.178796 -0.00209324 0)
(0.183338 -0.00157277 0)
(0.187714 -0.00101951 0)
(0.190281 -0.0004579 0)
(0.190932 7.75969e-05 0)
(0.18978 0.000613257 0)
(0.186728 0.00116118 0)
(0.181935 0.00168647 0)
(0.175433 0.00219251 0)
(0.167303 0.00264568 0)
(0.15766 0.0030887 0)
(0.146625 0.00350116 0)
(0.13435 0.00381314 0)
(0.121003 0.00413063 0)
(0.106757 0.00432729 0)
(0.0918005 0.00453347 0)
(0.0763038 0.00468774 0)
(0.0604534 0.00470806 0)
(0.0443688 0.00474348 0)
(0.0281499 0.00472474 0)
(0.0122775 0.0046 0)
(-0.00280024 0.00450056 0)
(-0.017381 0.00435435 0)
(-0.0315721 0.00413705 0)
(-0.0451161 0.00393902 0)
(-0.0579265 0.00368948 0)
(-0.0699478 0.00345761 0)
(-0.081135 0.00320963 0)
(-0.0914517 0.0029347 0)
(-0.100879 0.00267234 0)
(-0.1094 0.00240332 0)
(-0.117006 0.00212535 0)
(-0.123701 0.00185702 0)
(-0.129496 0.00158794 0)
(-0.134404 0.00132801 0)
(-0.138446 0.00107337 0)
(-0.141644 0.000826307 0)
(-0.144016 0.000584614 0)
(-0.145536 0.000361202 0)
(-0.146269 0.000143632 0)
(-0.146289 -9.35759e-05 0)
(-0.145574 -0.00033491 0)
(-0.144114 -0.000560579 0)
(-0.141888 -0.000789397 0)
(-0.138892 -0.00102662 0)
(-0.135149 -0.00124682 0)
(-0.13065 -0.00146986 0)
(-0.125379 -0.00170491 0)
(-0.119358 -0.00190671 0)
(-0.11267 -0.00210371 0)
(-0.105312 -0.00231215 0)
(-0.09729 -0.00247621 0)
(-0.0887317 -0.00264566 0)
(-0.0795986 -0.00277582 0)
(-0.0700851 -0.00287844 0)
(-0.0602441 -0.00299472 0)
(-0.0499272 -0.00306727 0)
(-0.039298 -0.00311834 0)
(-0.0286513 -0.00318005 0)
(-0.0179054 -0.00320496 0)
(-0.00705406 -0.00323754 0)
(0.00373466 -0.00324514 0)
(0.0145917 -0.00323901 0)
(0.0254919 -0.00323617 0)
(0.0364021 -0.00320894 0)
(0.0471935 -0.00316404 0)
(0.0578002 -0.00311884 0)
(0.0682515 -0.00304157 0)
(0.07844 -0.00295622 0)
(0.0882954 -0.00284259 0)
(0.0977074 -0.00269169 0)
(0.106589 -0.00252158 0)
(0.114806 -0.00231633 0)
(0.122277 -0.00208664 0)
(0.128939 -0.0018134 0)
(0.134597 -0.00151278 0)
(0.139149 -0.00119203 0)
(0.142558 -0.000817109 0)
(0.144703 -0.000446944 0)
(0.145573 -5.45425e-05 0)
(0.145098 0.000335399 0)
(0.143208 0.000755558 0)
(0.140032 0.00114418 0)
(0.135558 0.00151707 0)
(0.129816 0.00185685 0)
(0.12299 0.00218918 0)
(0.115217 0.0024774 0)
(0.106437 0.00272294 0)
(0.09687 0.00293239 0)
(0.0867459 0.00310399 0)
(0.0761783 0.00320867 0)
(0.0652297 0.00329667 0)
(0.0540411 0.00333542 0)
(0.0427949 0.00332408 0)
(0.0317168 0.00329945 0)
(0.0208343 0.00321638 0)
(0.0102012 0.00310613 0)
(-4.50319e-05 0.00295188 0)
(-0.00979045 0.00279616 0)
(-0.0189221 0.00261561 0)
(-0.0273477 0.00241488 0)
(-0.0350107 0.00219555 0)
(-0.0420256 0.00196639 0)
(-0.0483403 0.00175185 0)
(-0.0538257 0.00151721 0)
(-0.0584974 0.00129108 0)
(-0.0623785 0.00105878 0)
(-0.0655901 0.000838276 0)
(-0.0681003 0.000627284 0)
(-0.0698205 0.000415247 0)
(-0.0708302 0.000226087 0)
(-0.0712467 3.47002e-05 0)
(-0.0710736 -0.000145419 0)
(-0.0703056 -0.000315636 0)
(-0.0689806 -0.000475171 0)
(-0.0671363 -0.000624931 0)
(-0.0647759 -0.000761909 0)
(-0.0620133 -0.000895662 0)
(-0.0588594 -0.00100826 0)
(-0.0552893 -0.00111171 0)
(-0.0513916 -0.00120485 0)
(-0.0471992 -0.00128495 0)
(-0.0427748 -0.00135273 0)
(-0.0381415 -0.00140514 0)
(-0.0333334 -0.00144949 0)
(-0.0284014 -0.00148064 0)
(-0.0233953 -0.00150116 0)
(-0.0183478 -0.00150786 0)
(-0.013256 -0.00150222 0)
(-0.00821601 -0.00149612 0)
(-0.00326836 -0.00146919 0)
(0.00162033 -0.00143491 0)
(0.00637803 -0.00139504 0)
(0.0109677 -0.0013426 0)
(0.0153914 -0.00128305 0)
(0.0196009 -0.00121881 0)
(0.0235685 -0.00114494 0)
(0.0272912 -0.00106664 0)
(0.0307483 -0.000982263 0)
(0.033909 -0.000892229 0)
(0.0367613 -0.000802578 0)
(0.0392917 -0.000706666 0)
(0.0415074 -0.000611056 0)
(0.0433932 -0.000514217 0)
(0.044954 -0.00041513 0)
(0.0461922 -0.000320532 0)
(0.0470973 -0.000222873 0)
(0.047699 -0.000132965 0)
(0.0479956 -4.38709e-05 0)
(0.0480012 3.88308e-05 0)
(0.0477321 0.000119546 0)
(0.0472101 0.000192265 0)
(0.0464417 0.000260436 0)
(0.0454595 0.000324216 0)
(0.0442818 0.000378188 0)
(0.0429226 0.000429618 0)
(0.0414123 0.000470699 0)
(0.0397667 0.000507401 0)
(0.038014 0.000536025 0)
(0.0361698 0.000559878 0)
(0.0342609 0.000575655 0)
(0.0323031 0.00058674 0)
(0.0303184 0.000594227 0)
(0.028326 0.000593164 0)
(0.0263343 0.000590386 0)
(0.0243685 0.000580703 0)
(0.0224306 0.000568223 0)
(0.0205419 0.000553735 0)
(0.0187121 0.000535283 0)
(0.0169425 0.000517346 0)
(0.0152492 0.000493259 0)
(0.0136337 0.000469116 0)
(0.0120984 0.000444192 0)
(0.0106499 0.000418187 0)
(0.00928756 0.000391935 0)
(0.00801073 0.000364199 0)
(0.00682925 0.000339739 0)
(0.00573813 0.000312603 0)
(0.00472994 0.000286682 0)
(0.00380951 0.000261222 0)
(0.00297311 0.000236625 0)
(0.00221761 0.000212826 0)
(0.00154045 0.000189942 0)
(0.000938246 0.000168169 0)
(0.000409349 0.000147498 0)
(-5.1574e-05 0.000127991 0)
(-0.000450518 0.00010992 0)
(-0.000789871 9.27471e-05 0)
(-0.00107353 7.65666e-05 0)
(-0.00130711 6.22192e-05 0)
(-0.00149363 4.87162e-05 0)
(-0.00163488 3.6451e-05 0)
(-0.00173859 2.52295e-05 0)
(-0.00180827 1.55128e-05 0)
(-0.00184403 6.76648e-06 0)
(-0.00185262 -1.48726e-06 0)
(-0.00183789 -7.90933e-06 0)
(-0.00180101 -1.38422e-05 0)
(-0.00174544 -1.89175e-05 0)
(-0.00167465 -2.32122e-05 0)
(-0.00159108 -2.66384e-05 0)
(-0.00149666 -2.94434e-05 0)
(-0.00139365 -3.1581e-05 0)
(-0.00128426 -3.30205e-05 0)
(-0.00117119 -3.43463e-05 0)
(-0.00105551 -3.49974e-05 0)
(-0.000937134 -3.49711e-05 0)
(-0.000819294 -3.51958e-05 0)
(-0.000702529 -3.45846e-05 0)
(-0.000587492 -3.37023e-05 0)
(-0.000476034 -3.29007e-05 0)
(-0.000367623 -3.17086e-05 0)
(-0.000262788 -3.04104e-05 0)
(-0.000163222 -2.88288e-05 0)
(-6.92891e-05 -2.74021e-05 0)
(1.97383e-05 -2.57912e-05 0)
(0.000103376 -2.41189e-05 0)
(0.000181524 -2.24191e-05 0)
(0.000253969 -2.07074e-05 0)
(0.00032068 -1.89988e-05 0)
(0.000381686 -1.73087e-05 0)
(0.000437068 -1.56488e-05 0)
(0.000486941 -1.40292e-05 0)
(0.000531454 -1.24581e-05 0)
(0.000570782 -1.09405e-05 0)
(0.000605117 -9.48716e-06 0)
(0.000634685 -8.09874e-06 0)
(0.000659706 -6.77917e-06 0)
(0.000680402 -5.53375e-06 0)
(0.00069703 -4.36073e-06 0)
(0.000709837 -3.2613e-06 0)
(0.000719073 -2.23613e-06 0)
(0.000724987 -1.28453e-06 0)
(0.000727833 -4.05442e-07 0)
(0.00072784 4.02479e-07 0)
(0.000725239 1.14102e-06 0)
(0.000720265 1.8145e-06 0)
(0.000713133 2.4252e-06 0)
(0.000704049 2.97544e-06 0)
(0.000693215 3.46731e-06 0)
(0.000680822 3.90308e-06 0)
(0.000667055 4.28502e-06 0)
(0.00065209 4.61568e-06 0)
(0.000636096 4.89767e-06 0)
(0.000619232 5.13384e-06 0)
(0.000601646 5.32701e-06 0)
(0.000583478 5.48015e-06 0)
(0.000564858 5.59611e-06 0)
(0.000545906 5.6778e-06 0)
(0.000526733 5.72797e-06 0)
(0.00050744 5.7494e-06 0)
(0.000488119 5.74465e-06 0)
(0.000468853 5.7163e-06 0)
(0.000449719 5.6667e-06 0)
(0.000430783 5.59819e-06 0)
(0.000412106 5.5129e-06 0)
(0.00039374 5.41291e-06 0)
(0.000375732 5.30012e-06 0)
(0.000358122 5.17635e-06 0)
(0.000340945 5.04327e-06 0)
(0.00032423 4.90249e-06 0)
(0.000308003 4.75546e-06 0)
(0.000292285 4.60356e-06 0)
(0.000277091 4.44802e-06 0)
(0.000262435 4.29e-06 0)
(0.000248324 4.13053e-06 0)
(0.000234762 3.97056e-06 0)
(0.00022175 3.81094e-06 0)
(0.000209287 3.6524e-06 0)
(0.000197367 3.49555e-06 0)
(0.000185983 3.34098e-06 0)
(0.000175126 3.18918e-06 0)
(0.000164784 3.04061e-06 0)
(0.000154944 2.89562e-06 0)
(0.000145593 2.75455e-06 0)
(0.000136714 2.61765e-06 0)
(0.000128292 2.48502e-06 0)
(0.000120309 2.3567e-06 0)
(0.000112751 2.23282e-06 0)
(0.0001056 2.11343e-06 0)
(9.88405e-05 1.99859e-06 0)
(9.24553e-05 1.88828e-06 0)
(8.64284e-05 1.78255e-06 0)
(8.07439e-05 1.68147e-06 0)
(7.53856e-05 1.58494e-06 0)
(7.03377e-05 1.49287e-06 0)
(6.5585e-05 1.4052e-06 0)
(6.1113e-05 1.32165e-06 0)
(5.69081e-05 1.24203e-06 0)
(5.29571e-05 1.16626e-06 0)
(4.92475e-05 1.09422e-06 0)
(4.57674e-05 1.02584e-06 0)
(4.25045e-05 9.60999e-07 0)
(3.94473e-05 8.99584e-07 0)
(3.6585e-05 8.41464e-07 0)
(3.39072e-05 7.8643e-07 0)
(3.1404e-05 7.34321e-07 0)
(2.90662e-05 6.8505e-07 0)
(2.68846e-05 6.38524e-07 0)
(2.48508e-05 5.9466e-07 0)
(2.29561e-05 5.53358e-07 0)
(2.11924e-05 5.1451e-07 0)
(1.95521e-05 4.78004e-07 0)
(1.80276e-05 4.43708e-07 0)
(1.66122e-05 4.11507e-07 0)
(1.52992e-05 3.81314e-07 0)
(1.40822e-05 3.53047e-07 0)
(1.29551e-05 3.26626e-07 0)
(1.19121e-05 3.01963e-07 0)
(1.09476e-05 2.78967e-07 0)
(1.00563e-05 2.57544e-07 0)
(9.23326e-06 2.37601e-07 0)
(8.47382e-06 2.19049e-07 0)
(7.77355e-06 2.01808e-07 0)
(7.12827e-06 1.85807e-07 0)
(6.53405e-06 1.70975e-07 0)
(5.98718e-06 1.57242e-07 0)
(5.48415e-06 1.44539e-07 0)
(5.02167e-06 1.328e-07 0)
(4.59668e-06 1.21961e-07 0)
(4.20632e-06 1.1196e-07 0)
(3.84792e-06 1.02736e-07 0)
(3.519e-06 9.42331e-08 0)
(3.21728e-06 8.63999e-08 0)
(2.9406e-06 7.91882e-08 0)
(2.68698e-06 7.25535e-08 0)
(2.4546e-06 6.64542e-08 0)
(2.24172e-06 6.08494e-08 0)
(2.04678e-06 5.57008e-08 0)
(1.86832e-06 5.09724e-08 0)
(1.705e-06 4.66311e-08 0)
(1.55559e-06 4.26468e-08 0)
(1.41893e-06 3.89922e-08 0)
(1.29398e-06 3.56421e-08 0)
(1.17976e-06 3.25731e-08 0)
(1.07537e-06 2.97626e-08 0)
(9.7998e-07 2.71893e-08 0)
(8.92835e-07 2.48336e-08 0)
(8.1324e-07 2.2677e-08 0)
(7.40557e-07 2.07031e-08 0)
(6.74201e-07 1.88969e-08 0)
(6.13634e-07 1.72449e-08 0)
(5.58362e-07 1.57347e-08 0)
(5.0793e-07 1.43545e-08 0)
(4.61922e-07 1.30938e-08 0)
(4.19954e-07 1.19425e-08 0)
(3.81675e-07 1.08913e-08 0)
(3.46766e-07 9.93164e-09 0)
(3.14932e-07 9.05538e-09 0)
(2.85907e-07 8.25521e-09 0)
(2.59448e-07 7.52442e-09 0)
(2.3533e-07 6.85694e-09 0)
(2.13351e-07 6.2472e-09 0)
(1.93324e-07 5.69011e-09 0)
(1.75076e-07 5.18093e-09 0)
(1.58456e-07 4.71532e-09 0)
(1.40098e-07 4.28939e-09 0)
(0.178936 -0.00348995 0)
(0.183482 -0.00262216 0)
(0.18786 -0.00170183 0)
(0.190419 -0.000772286 0)
(0.191088 0.000135172 0)
(0.189919 0.00102967 0)
(0.186869 0.00193696 0)
(0.18207 0.00281187 0)
(0.175561 0.00365545 0)
(0.167422 0.00441101 0)
(0.15777 0.00514963 0)
(0.146724 0.00583731 0)
(0.134434 0.0063575 0)
(0.121074 0.0068868 0)
(0.106812 0.00721465 0)
(0.0918406 0.00755832 0)
(0.0763288 0.00781549 0)
(0.0604629 0.00784918 0)
(0.0443636 0.0079081 0)
(0.028132 0.00787652 0)
(0.0122498 0.00766863 0)
(-0.00283845 0.00750186 0)
(-0.0174286 0.00725811 0)
(-0.0316255 0.00689611 0)
(-0.0451753 0.00656609 0)
(-0.0579892 0.00614967 0)
(-0.0700141 0.00576328 0)
(-0.0812043 0.00534969 0)
(-0.0915222 0.00489134 0)
(-0.100951 0.00445414 0)
(-0.109472 0.00400557 0)
(-0.117078 0.0035423 0)
(-0.123773 0.00309506 0)
(-0.129565 0.00264661 0)
(-0.134472 0.00221364 0)
(-0.138511 0.00178976 0)
(-0.141708 0.00137662 0)
(-0.144075 0.000976666 0)
(-0.145599 0.000603981 0)
(-0.146337 0.000233763 0)
(-0.146351 -0.000158515 0)
(-0.145637 -0.000558463 0)
(-0.144175 -0.000934259 0)
(-0.141948 -0.00131558 0)
(-0.138953 -0.00171088 0)
(-0.135209 -0.00207837 0)
(-0.130709 -0.00244988 0)
(-0.125436 -0.00284182 0)
(-0.119413 -0.00317808 0)
(-0.112722 -0.00350682 0)
(-0.10536 -0.00385448 0)
(-0.0973324 -0.00412769 0)
(-0.0887695 -0.00441031 0)
(-0.0796316 -0.00462635 0)
(-0.0701142 -0.00479922 0)
(-0.0602669 -0.00499179 0)
(-0.0499451 -0.00511221 0)
(-0.0393133 -0.00519777 0)
(-0.028661 -0.0053002 0)
(-0.0179124 -0.00534282 0)
(-0.00705764 -0.0053964 0)
(0.00372807 -0.00541368 0)
(0.0145943 -0.00539922 0)
(0.0254976 -0.0053935 0)
(0.0364108 -0.00534953 0)
(0.0472041 -0.00527375 0)
(0.0578172 -0.0052 0)
(0.0682728 -0.00507027 0)
(0.0784655 -0.00492922 0)
(0.0883285 -0.00473884 0)
(0.097749 -0.0044857 0)
(0.106634 -0.00420963 0)
(0.114863 -0.00386115 0)
(0.122346 -0.00347431 0)
(0.129007 -0.00303075 0)
(0.134679 -0.00251906 0)
(0.139245 -0.00198333 0)
(0.142646 -0.00137115 0)
(0.144806 -0.000744832 0)
(0.145679 -8.88396e-05 0)
(0.145201 0.000561683 0)
(0.14331 0.00126027 0)
(0.140129 0.00190691 0)
(0.13565 0.0025294 0)
(0.129901 0.00309451 0)
(0.123072 0.00365235 0)
(0.115288 0.0041331 0)
(0.106492 0.00453738 0)
(0.0969224 0.00489222 0)
(0.0867808 0.00517586 0)
(0.0761987 0.0053491 0)
(0.0652456 0.00549676 0)
(0.0540439 0.00556179 0)
(0.0427905 0.00554137 0)
(0.031698 0.0055012 0)
(0.0208099 0.0053624 0)
(0.0101633 0.00517729 0)
(-8.87466e-05 0.00492025 0)
(-0.00983503 0.00466149 0)
(-0.0189748 0.00435914 0)
(-0.0274015 0.00402739 0)
(-0.0350716 0.00366067 0)
(-0.0420867 0.00327532 0)
(-0.0483999 0.00291969 0)
(-0.053886 0.0025296 0)
(-0.0585597 0.00215138 0)
(-0.0624374 0.00176525 0)
(-0.0656497 0.00139557 0)
(-0.0681571 0.0010447 0)
(-0.0698726 0.000693279 0)
(-0.0708827 0.000377055 0)
(-0.0712974 5.687e-05 0)
(-0.0711202 -0.000243016 0)
(-0.0703499 -0.000526819 0)
(-0.0690221 -0.000793007 0)
(-0.0671736 -0.00104172 0)
(-0.0648119 -0.00126992 0)
(-0.0620462 -0.00149404 0)
(-0.0588881 -0.00168127 0)
(-0.0553154 -0.0018534 0)
(-0.051415 -0.00200867 0)
(-0.0472196 -0.0021429 0)
(-0.0427899 -0.00225473 0)
(-0.0381545 -0.00234258 0)
(-0.0333438 -0.00241655 0)
(-0.0284086 -0.00246845 0)
(-0.0233985 -0.00250218 0)
(-0.0183481 -0.00251382 0)
(-0.0132554 -0.00250412 0)
(-0.00821088 -0.00249401 0)
(-0.00326031 -0.0024493 0)
(0.0016298 -0.00239184 0)
(0.00639045 -0.00232546 0)
(0.0109827 -0.00223832 0)
(0.0154079 -0.00213863 0)
(0.0196187 -0.00203204 0)
(0.0235884 -0.00190886 0)
(0.0273126 -0.00177811 0)
(0.0307718 -0.00163682 0)
(0.0339331 -0.00148699 0)
(0.0367859 -0.00133772 0)
(0.0393172 -0.00117827 0)
(0.0415325 -0.00101852 0)
(0.0434195 -0.000856852 0)
(0.0449799 -0.000691561 0)
(0.0462172 -0.000534183 0)
(0.0471222 -0.000371678 0)
(0.0477231 -0.000221019 0)
(0.0480187 -7.293e-05 0)
(0.0480227 6.4817e-05 0)
(0.0477522 0.000199476 0)
(0.0472288 0.000320758 0)
(0.0464593 0.000434277 0)
(0.0454752 0.000540794 0)
(0.0442958 0.000630891 0)
(0.0429349 0.000716106 0)
(0.0414226 0.000784792 0)
(0.0397754 0.000845993 0)
(0.038021 0.000893676 0)
(0.0361751 0.000933292 0)
(0.0342645 0.000959896 0)
(0.0323056 0.000978071 0)
(0.0303193 0.000990774 0)
(0.0283255 0.000988914 0)
(0.0263327 0.000984101 0)
(0.0243655 0.000968067 0)
(0.0224271 0.000947099 0)
(0.0205376 0.000923405 0)
(0.0187073 0.000892382 0)
(0.0169369 0.000861517 0)
(0.0152428 0.000822529 0)
(0.0136272 0.000781967 0)
(0.0120916 0.000740377 0)
(0.010643 0.000697029 0)
(0.00928042 0.000653253 0)
(0.00800382 0.000606939 0)
(0.00682242 0.000566348 0)
(0.0057311 0.000520991 0)
(0.00472314 0.000477777 0)
(0.00380288 0.000435354 0)
(0.00296671 0.000394344 0)
(0.00221143 0.000354688 0)
(0.00153454 0.000316516 0)
(0.000932629 0.000280245 0)
(0.000404031 0.000245812 0)
(-5.65477e-05 0.000213235 0)
(-0.000455182 0.000183146 0)
(-0.000794284 0.000154518 0)
(-0.00107757 0.000127568 0)
(-0.0013108 0.000103633 0)
(-0.00149703 8.11417e-05 0)
(-0.00163799 6.07116e-05 0)
(-0.00174136 4.19841e-05 0)
(-0.00181071 2.5804e-05 0)
(-0.00184628 1.12115e-05 0)
(-0.00185456 -2.49914e-06 0)
(-0.00183952 -1.32249e-05 0)
(-0.00180246 -2.31105e-05 0)
(-0.00174668 -3.15661e-05 0)
(-0.00167568 -3.87194e-05 0)
(-0.00159191 -4.44279e-05 0)
(-0.00149732 -4.90984e-05 0)
(-0.00139413 -5.26515e-05 0)
(-0.00128462 -5.50659e-05 0)
(-0.00117145 -5.72843e-05 0)
(-0.0010556 -5.83475e-05 0)
(-0.000937158 -5.83339e-05 0)
(-0.000819241 -5.86383e-05 0)
(-0.000702331 -5.76378e-05 0)
(-0.000587268 -5.62035e-05 0)
(-0.000475769 -5.48403e-05 0)
(-0.000367291 -5.2854e-05 0)
(-0.000262407 -5.06698e-05 0)
(-0.000162823 -4.80799e-05 0)
(-6.88849e-05 -4.56735e-05 0)
(2.01742e-05 -4.29896e-05 0)
(0.000103824 -4.02009e-05 0)
(0.000181977 -3.73667e-05 0)
(0.000254423 -3.45129e-05 0)
(0.000321131 -3.16646e-05 0)
(0.000382131 -2.8847e-05 0)
(0.000437503 -2.608e-05 0)
(0.000487365 -2.33803e-05 0)
(0.000531865 -2.07614e-05 0)
(0.000571177 -1.8232e-05 0)
(0.000605494 -1.58091e-05 0)
(0.000635045 -1.34922e-05 0)
(0.000660047 -1.12956e-05 0)
(0.000680724 -9.21983e-06 0)
(0.000697332 -7.26453e-06 0)
(0.000710119 -5.43209e-06 0)
(0.000719336 -3.72344e-06 0)
(0.000725231 -2.13744e-06 0)
(0.000728057 -6.70478e-07 0)
(0.000728046 6.74083e-07 0)
(0.000725427 1.90483e-06 0)
(0.000720436 3.02721e-06 0)
(0.000713287 4.04497e-06 0)
(0.000704188 4.96195e-06 0)
(0.000693339 5.78164e-06 0)
(0.000680931 6.50783e-06 0)
(0.00066715 7.1443e-06 0)
(0.000652172 7.69529e-06 0)
(0.000636166 8.16516e-06 0)
(0.000619289 8.55865e-06 0)
(0.000601692 8.88048e-06 0)
(0.000583514 9.13558e-06 0)
(0.000564885 9.32871e-06 0)
(0.000545925 9.46473e-06 0)
(0.000526743 9.54824e-06 0)
(0.000507443 9.58382e-06 0)
(0.000488115 9.5758e-06 0)
(0.000468843 9.52843e-06 0)
(0.000449704 9.44566e-06 0)
(0.000430763 9.33137e-06 0)
(0.000412082 9.18912e-06 0)
(0.000393713 9.02238e-06 0)
(0.000375702 8.8343e-06 0)
(0.000358089 8.62794e-06 0)
(0.000340909 8.40607e-06 0)
(0.000324192 8.17136e-06 0)
(0.000307964 7.92624e-06 0)
(0.000292244 7.67301e-06 0)
(0.00027705 7.41372e-06 0)
(0.000262393 7.15031e-06 0)
(0.000248282 6.88448e-06 0)
(0.00023472 6.61784e-06 0)
(0.000221708 6.35177e-06 0)
(0.000209245 6.0875e-06 0)
(0.000197325 5.82607e-06 0)
(0.000185942 5.56843e-06 0)
(0.000175085 5.31541e-06 0)
(0.000164744 5.06777e-06 0)
(0.000154906 4.82611e-06 0)
(0.000145555 4.59098e-06 0)
(0.000136677 4.3628e-06 0)
(0.000128256 4.14173e-06 0)
(0.000120275 3.92786e-06 0)
(0.000112718 3.72138e-06 0)
(0.000105568 3.52239e-06 0)
(9.88092e-05 3.33097e-06 0)
(9.24252e-05 3.14711e-06 0)
(8.63995e-05 2.97089e-06 0)
(8.07162e-05 2.80241e-06 0)
(7.5359e-05 2.64151e-06 0)
(7.03124e-05 2.48806e-06 0)
(6.55607e-05 2.34194e-06 0)
(6.10898e-05 2.20269e-06 0)
(5.6886e-05 2.06999e-06 0)
(5.29361e-05 1.94369e-06 0)
(4.92275e-05 1.82363e-06 0)
(4.57484e-05 1.70965e-06 0)
(4.24865e-05 1.60158e-06 0)
(3.94303e-05 1.49922e-06 0)
(3.65689e-05 1.40236e-06 0)
(3.3892e-05 1.31063e-06 0)
(3.13896e-05 1.22378e-06 0)
(2.90526e-05 1.14166e-06 0)
(2.68718e-05 1.06412e-06 0)
(2.48388e-05 9.91012e-07 0)
(2.29448e-05 9.22176e-07 0)
(2.11818e-05 8.57431e-07 0)
(1.95421e-05 7.96592e-07 0)
(1.80184e-05 7.39433e-07 0)
(1.66036e-05 6.85766e-07 0)
(1.52911e-05 6.35447e-07 0)
(1.40746e-05 5.88338e-07 0)
(1.2948e-05 5.44306e-07 0)
(1.19055e-05 5.03204e-07 0)
(1.09415e-05 4.6488e-07 0)
(1.00506e-05 4.29179e-07 0)
(9.22801e-06 3.95943e-07 0)
(8.46895e-06 3.65026e-07 0)
(7.76903e-06 3.36296e-07 0)
(7.12409e-06 3.0963e-07 0)
(6.53019e-06 2.84913e-07 0)
(5.98362e-06 2.62026e-07 0)
(5.48086e-06 2.40857e-07 0)
(5.01864e-06 2.21296e-07 0)
(4.59389e-06 2.03234e-07 0)
(4.20375e-06 1.86568e-07 0)
(3.84555e-06 1.71196e-07 0)
(3.51682e-06 1.57027e-07 0)
(3.21527e-06 1.43974e-07 0)
(2.93875e-06 1.31956e-07 0)
(2.68529e-06 1.209e-07 0)
(2.45304e-06 1.10736e-07 0)
(2.24029e-06 1.01397e-07 0)
(2.04547e-06 9.28171e-08 0)
(1.86712e-06 8.49378e-08 0)
(1.7039e-06 7.77036e-08 0)
(1.55457e-06 7.10642e-08 0)
(1.418e-06 6.49742e-08 0)
(1.29313e-06 5.93918e-08 0)
(1.17898e-06 5.42777e-08 0)
(1.07466e-06 4.95943e-08 0)
(9.79327e-07 4.53065e-08 0)
(8.92238e-07 4.1381e-08 0)
(8.12693e-07 3.77874e-08 0)
(7.40056e-07 3.44982e-08 0)
(6.73743e-07 3.14884e-08 0)
(6.13215e-07 2.87356e-08 0)
(5.57979e-07 2.62189e-08 0)
(5.07581e-07 2.39192e-08 0)
(4.61603e-07 2.18184e-08 0)
(4.19662e-07 1.98999e-08 0)
(3.81409e-07 1.81483e-08 0)
(3.46523e-07 1.65492e-08 0)
(3.1471e-07 1.50891e-08 0)
(2.85705e-07 1.37557e-08 0)
(2.59263e-07 1.2538e-08 0)
(2.35162e-07 1.14258e-08 0)
(2.13197e-07 1.04097e-08 0)
(1.93183e-07 9.48145e-09 0)
(1.74948e-07 8.633e-09 0)
(1.58338e-07 7.85715e-09 0)
(1.39992e-07 7.14742e-09 0)
(0.179146 -0.00488832 0)
(0.183698 -0.00367275 0)
(0.18808 -0.00238584 0)
(0.190637 -0.00108612 0)
(0.191311 0.000191962 0)
(0.190128 0.00145159 0)
(0.187079 0.00271488 0)
(0.182273 0.00393891 0)
(0.175754 0.00512032 0)
(0.1676 0.00617866 0)