/*--------------------------------*- C++ -*----------------------------------*\
| =========                 |                                                 |
| \\      /  F ield         | OpenFOAM: The Open Source CFD Toolbox           |
|  \\    /   O peration     | Version:  3.0.1                                 |
|   \\  /    A nd           | Web:      www.OpenFOAM.org                      |
|    \\/     M anipulation  |                                                 |
\*---------------------------------------------------------------------------*/
FoamFile
{
    version     2.0;
    format      ascii;
    class       surfaceScalarField;
    location    "65.2";
    object      phi;
}
// * * * * * * * * * * * * * * * * * * * * * * * * * * * * * * * * * * * * * //

dimensions      [0 3 -1 0 0 0 0];

internalField   nonuniform List<scalar> 
42423
(
5.30998e-05
-6.47212e-06
6.02448e-05
-7.14503e-06
6.81203e-05
-7.87554e-06
7.66794e-05
-8.5591e-06
8.61595e-05
-9.48016e-06
9.6388e-05
-1.02285e-05
0.000107585
-1.11975e-05
0.000119646
-1.20607e-05
0.000132318
-1.26714e-05
0.000145899
-1.35811e-05
0.000160281
-1.43825e-05
0.000175093
-1.48124e-05
0.000190555
-1.54612e-05
0.000206391
-1.58364e-05
0.000222592
-1.62009e-05
0.000239045
-1.64533e-05
0.000255275
-1.623e-05
0.000271312
-1.60372e-05
0.000286989
-1.56772e-05
0.000301913
-1.4924e-05
0.000315926
-1.4013e-05
0.000328884
-1.29581e-05
0.000340485
-1.16004e-05
0.000350562
-1.00773e-05
0.000358962
-8.40056e-06
0.000365467
-6.50429e-06
0.000370025
-4.55817e-06
0.000372479
-2.45438e-06
0.000372779
-2.9938e-07
0.000371026
1.75295e-06
0.000366856
4.16971e-06
0.000360642
6.2138e-06
0.000352383
8.25894e-06
0.000342301
1.00818e-05
0.000330642
1.16592e-05
0.000317256
1.33858e-05
0.000302531
1.47251e-05
0.000286809
1.57221e-05
0.000270081
1.67275e-05
0.000252733
1.73479e-05
0.000235021
1.77119e-05
0.000217159
1.78629e-05
0.000199413
1.7746e-05
0.000181907
1.75056e-05
0.000164879
1.70279e-05
0.000148491
1.63879e-05
0.000132802
1.56887e-05
0.000117984
1.4818e-05
0.000104061
1.3923e-05
9.10549e-05
1.30065e-05
7.8994e-05
1.20609e-05
6.78392e-05
1.11548e-05
5.75832e-05
1.0256e-05
4.81422e-05
9.44101e-06
3.94476e-05
8.69465e-06
3.14548e-05
7.99271e-06
2.40809e-05
7.37395e-06
1.72291e-05
6.85179e-06
1.09123e-05
6.31684e-06
5.02997e-06
5.88228e-06
-4.15598e-07
5.44557e-06
-5.45693e-06
5.04133e-06
-1.01435e-05
4.68654e-06
-1.44298e-05
4.28628e-06
-1.83335e-05
3.90375e-06
-2.19129e-05
3.57941e-06
-2.50692e-05
3.15624e-06
-2.78492e-05
2.78e-06
-3.01727e-05
2.32355e-06
-3.20538e-05
1.88105e-06
-3.34998e-05
1.44603e-06
-3.46394e-05
1.13965e-06
-3.54785e-05
8.39065e-07
-3.61633e-05
6.84804e-07
-3.66297e-05
4.66334e-07
-3.68577e-05
2.28031e-07
-3.66492e-05
-2.08488e-07
-3.5831e-05
-8.18236e-07
-3.4125e-05
-1.70602e-06
-3.18557e-05
-2.26926e-06
-2.85561e-05
-3.2996e-06
-2.41377e-05
-4.41848e-06
-1.86936e-05
-5.44412e-06
-1.19979e-05
-6.69573e-06
-3.92113e-06
-8.07675e-06
6.02035e-06
-9.9415e-06
1.76152e-05
-1.15948e-05
3.05238e-05
-1.29087e-05
4.46655e-05
-1.41418e-05
5.98875e-05
-1.5222e-05
7.60202e-05
-1.61326e-05
9.29289e-05
-1.69087e-05
0.000110447
-1.75182e-05
0.000128409
-1.79616e-05
0.000146537
-1.81281e-05
0.000164752
-1.82158e-05
0.000182729
-1.79767e-05
0.000200336
-1.76068e-05
0.000217228
-1.68924e-05
0.000233267
-1.6039e-05
0.000248224
-1.4957e-05
0.00026187
-1.36464e-05
0.000273999
-1.21285e-05
0.000284409
-1.04101e-05
0.00029294
-8.53149e-06
0.000299426
-6.48599e-06
0.00030376
-4.33313e-06
0.000305892
-2.1328e-06
0.000305786
1.0606e-07
0.000303497
2.28905e-06
0.000298882
4.61465e-06
0.000292096
6.7869e-06
0.000283371
8.7244e-06
0.000272743
1.06281e-05
0.000260466
1.22769e-05
0.000246619
1.38469e-05
0.000231528
1.50906e-05
0.000215383
1.61457e-05
0.000198411
1.69716e-05
0.000180749
1.76626e-05
0.000162768
1.79805e-05
0.000144659
1.81094e-05
0.000126629
1.80294e-05
0.000108978
1.76512e-05
9.19274e-05
1.70506e-05
7.56265e-05
1.63009e-05
6.02826e-05
1.53439e-05
4.60549e-05
1.42277e-05
3.29616e-05
1.30933e-05
2.10278e-05
1.19339e-05
1.02821e-05
1.07457e-05
6.12599e-07
9.66946e-06
-8.05785e-06
8.67045e-06
-1.57877e-05
7.72982e-06
-2.26866e-05
6.89896e-06
-2.88718e-05
6.18513e-06
-3.43679e-05
5.49611e-06
-3.93135e-05
4.94558e-06
-4.36751e-05
4.36162e-06
-4.74526e-05
3.77752e-06
-5.07672e-05
3.31465e-06
-5.35102e-05
2.74298e-06
-5.57345e-05
2.22421e-06
-5.73952e-05
1.66072e-06
-5.84683e-05
1.07315e-06
-5.89309e-05
4.62606e-07
-5.88314e-05
-9.94995e-08
-5.81031e-05
-7.2838e-07
-5.67411e-05
-1.36198e-06
-5.46949e-05
-2.04616e-06
-5.21102e-05
-2.58477e-06
-4.8835e-05
-3.27516e-06
-4.48824e-05
-3.95258e-06
-4.03735e-05
-4.50892e-06
-3.51091e-05
-5.26439e-06
-2.92751e-05
-5.83396e-06
-2.28465e-05
-6.42863e-06
-1.56871e-05
-7.15939e-06
-7.92551e-06
-7.76162e-06
4.43142e-07
-8.36866e-06
9.56131e-06
-9.11818e-06
1.93909e-05
-9.82963e-06
2.99611e-05
-1.05702e-05
4.13374e-05
-1.13763e-05
5.35693e-05
-1.22319e-05
6.66671e-05
-1.30978e-05
8.06571e-05
-1.399e-05
9.54986e-05
-1.48415e-05
0.000111177
-1.56788e-05
0.000127625
-1.64474e-05
0.00014473
-1.71053e-05
0.000162331
-1.76013e-05
0.00018025
-1.79191e-05
0.000198281
-1.8031e-05
0.000216226
-1.79446e-05
0.000233825
-1.75991e-05
0.000250851
-1.70262e-05
0.000267123
-1.62714e-05
0.00028234
-1.5217e-05
0.000296329
-1.39894e-05
0.000308848
-1.25194e-05
0.00031971
-1.0862e-05
0.000328593
-8.8824e-06
0.00033536
-6.76752e-06
0.000339675
-4.31446e-06
0.000341555
-1.88045e-06
0.0003408
7.54884e-07
0.000337373
3.42742e-06
0.000331203
6.16964e-06
0.00032262
8.58341e-06
0.000311795
1.08248e-05
0.00029891
1.28845e-05
0.000284251
1.46592e-05
0.000268167
1.60837e-05
0.000250879
1.72886e-05
0.000232855
1.8024e-05
0.000214244
1.86105e-05
0.000195381
1.88634e-05
0.000176439
1.89418e-05
0.000157721
1.87178e-05
0.000139369
1.83518e-05
0.000121558
1.78112e-05
0.000104438
1.71206e-05
8.81221e-05
1.63155e-05
7.26684e-05
1.54536e-05
5.81952e-05
1.44732e-05
4.46296e-05
1.35656e-05
3.21103e-05
1.25193e-05
2.06722e-05
1.14381e-05
1.02465e-05
1.04257e-05
8.44237e-07
9.40223e-06
-7.56957e-06
8.4138e-06
-1.50254e-05
7.45583e-06
-2.15932e-05
6.56776e-06
-2.73415e-05
5.74833e-06
-3.23424e-05
5.00092e-06
-3.66738e-05
4.33139e-06
-4.03718e-05
3.69796e-06
-4.35211e-05
3.14935e-06
-4.61088e-05
2.5877e-06
-4.82433e-05
2.13447e-06
-4.98954e-05
1.65213e-06
-5.11078e-05
1.21236e-06
-5.1895e-05
7.87194e-07
-5.21971e-05
3.02133e-07
-5.19257e-05
-2.71391e-07
-5.12443e-05
-6.81426e-07
-4.9784e-05
-1.46031e-06
-4.77964e-05
-1.9876e-06
-4.50789e-05
-2.71745e-06
-4.15956e-05
-3.48332e-06
-3.75261e-05
-4.06951e-06
-3.26326e-05
-4.89348e-06
-2.71457e-05
-5.4869e-06
-2.09347e-05
-6.21107e-06
-1.42072e-05
-6.72752e-06
-6.80764e-06
-7.39952e-06
1.18356e-06
-7.99121e-06
9.8208e-06
-8.63724e-06
1.90794e-05
-9.25859e-06
2.90341e-05
-9.95477e-06
3.9683e-05
-1.06489e-05
5.10679e-05
-1.13849e-05
6.3191e-05
-1.21231e-05
7.60263e-05
-1.28353e-05
8.94987e-05
-1.34724e-05
0.00010354
-1.40409e-05
0.000118039
-1.44997e-05
0.000132978
-1.49385e-05
0.000148283
-1.53054e-05
0.000163846
-1.55624e-05
0.000179554
-1.5708e-05
0.000195303
-1.57493e-05
0.000210934
-1.56308e-05
0.000226282
-1.53484e-05
0.000241149
-1.48671e-05
0.000255323
-1.4174e-05
0.000268508
-1.31849e-05
0.000280466
-1.19585e-05
0.000290917
-1.04503e-05
0.000299621
-8.70431e-06
0.000306337
-6.71621e-06
0.000310856
-4.5184e-06
0.000313008
-2.15218e-06
0.000312637
3.70565e-07
0.000309714
2.92262e-06
0.000304116
5.59852e-06
0.000296128
7.98781e-06
0.000285963
1.0165e-05
0.000273917
1.20461e-05
0.000260246
1.36706e-05
0.000245378
1.48682e-05
0.000229689
1.56892e-05
0.000213593
1.60963e-05
0.000197464
1.61287e-05
0.000181666
1.57981e-05
0.000166568
1.50979e-05
0.000152302
1.42662e-05
0.000138796
1.35056e-05
0.000126101
1.26953e-05
0.00011415
1.19514e-05
0.000102857
1.12929e-05
9.21823e-05
1.06744e-05
8.19999e-05
1.01824e-05
7.22091e-05
9.79074e-06
6.2778e-05
9.43111e-06
5.36069e-05
9.17113e-06
4.46847e-05
8.92217e-06
3.60376e-05
8.64711e-06
2.76704e-05
8.36716e-06
1.96839e-05
7.98659e-06
1.21559e-05
7.52794e-06
5.21261e-06
6.94331e-06
-1.16584e-06
6.37844e-06
-7.15306e-06
5.98722e-06
-1.24737e-05
5.32067e-06
-1.70642e-05
4.59045e-06
-2.08953e-05
3.83111e-06
-2.3959e-05
3.06376e-06
-2.62987e-05
2.33962e-06
-2.79388e-05
1.64018e-06
-2.89541e-05
1.01526e-06
-2.94118e-05
4.57703e-07
-2.92582e-05
-1.53605e-07
-2.85616e-05
-6.96633e-07
-2.74247e-05
-1.13687e-06
-2.5855e-05
-1.56966e-06
-2.40017e-05
-1.85339e-06
-2.1725e-05
-2.27665e-06
-1.90277e-05
-2.69731e-06
-1.60154e-05
-3.01226e-06
-1.2516e-05
-3.49948e-06
-8.40921e-06
-4.10676e-06
-3.81706e-06
-4.59216e-06
1.56812e-06
-5.38519e-06
7.75389e-06
-6.18577e-06
1.49077e-05
-7.15379e-06
2.3018e-05
-8.11035e-06
3.19141e-05
-8.89611e-06
4.18755e-05
-9.96142e-06
5.29046e-05
-1.10291e-05
6.47517e-05
-1.18471e-05
7.76743e-05
-1.29227e-05
9.14459e-05
-1.37716e-05
0.000106071
-1.46249e-05
0.000121545
-1.54747e-05
0.000137457
-1.59114e-05
0.000153829
-1.63723e-05
0.000170651
-1.68219e-05
0.000187446
-1.67953e-05
0.000204239
-1.67924e-05
0.000220864
-1.66252e-05
0.000237003
-1.61394e-05
0.000252508
-1.55051e-05
0.000267244
-1.47359e-05
0.000280955
-1.37113e-05
0.000293547
-1.25917e-05
0.00030471
-1.11631e-05
0.000314367
-9.65679e-06
0.000322419
-8.05204e-06
0.000328682
-6.26289e-06
0.000333091
-4.40892e-06
0.000335583
-2.49253e-06
0.000336143
-5.595e-07
0.000334668
1.47484e-06
0.000331111
3.55681e-06
0.000325746
5.36541e-06
0.00031868
7.06589e-06
0.000309858
8.82164e-06
0.00029963
1.02281e-05
0.000288039
1.15908e-05
0.000275402
1.26367e-05
0.000261825
1.35777e-05
0.000247377
1.44475e-05
0.00023247
1.49067e-05
0.000217175
1.52956e-05
1.56686e-05
5.30699e-05
-1.29412e-05
6.02122e-05
-1.42874e-05
6.80852e-05
-1.57485e-05
7.66433e-05
-1.71173e-05
8.61283e-05
-1.89652e-05
9.63604e-05
-2.04607e-05
0.000107564
-2.24015e-05
0.000119633
-2.41293e-05
0.000132311
-2.53498e-05
0.00014589
-2.716e-05
0.000160263
-2.87555e-05
0.00017508
-2.96294e-05
0.000190552
-3.09329e-05
0.000206392
-3.16772e-05
0.000222605
-3.2414e-05
0.00023907
-3.29177e-05
0.000255325
-3.24858e-05
0.000271369
-3.20804e-05
0.000287038
-3.13464e-05
0.000301979
-2.98654e-05
0.000315997
-2.80312e-05
0.000328969
-2.59297e-05
0.000340574
-2.32057e-05
0.000350666
-2.01699e-05
0.000359071
-1.68053e-05
0.000365576
-1.3009e-05
0.000370136
-9.11892e-06
0.000372598
-4.91562e-06
0.000372894
-5.95836e-07
0.000371136
3.51135e-06
0.000366967
8.33805e-06
0.000360752
1.24293e-05
0.000352487
1.65235e-05
0.000342398
2.01705e-05
0.000330732
2.33256e-05
0.000317337
2.67807e-05
0.0003026
2.94624e-05
0.000286869
3.14522e-05
0.000270132
3.34653e-05
0.000252772
3.47078e-05
0.000235047
3.54365e-05
0.000217177
3.57331e-05
0.00019942
3.55024e-05
0.000181911
3.50145e-05
0.000164871
3.40687e-05
0.000148478
3.27802e-05
0.000132784
3.13826e-05
0.000117962
2.96408e-05
0.000104036
2.78488e-05
9.10263e-05
2.60158e-05
7.89651e-05
2.41221e-05
6.78115e-05
2.23084e-05
5.75577e-05
2.05098e-05
4.81185e-05
1.88802e-05
3.94262e-05
1.7387e-05
3.14357e-05
1.59832e-05
2.40628e-05
1.47468e-05
1.72108e-05
1.37038e-05
1.08946e-05
1.2633e-05
5.01299e-06
1.17639e-05
-4.3258e-07
1.08911e-05
-5.47638e-06
1.00851e-05
-1.01648e-05
9.37494e-06
-1.44538e-05
8.57533e-06
-1.83597e-05
7.80964e-06
-2.19413e-05
7.16098e-06
-2.51024e-05
6.31734e-06
-2.78851e-05
5.56266e-06
-3.02118e-05
4.65029e-06
-3.2094e-05
3.76328e-06
-3.35414e-05
2.89337e-06
-3.46774e-05
2.2757e-06
-3.55087e-05
1.67031e-06
-3.61771e-05
1.35321e-06
-3.6628e-05
9.17163e-07
-3.68369e-05
4.36999e-07
-3.66159e-05
-4.29555e-07
-3.57865e-05
-1.64766e-06
-3.40642e-05
-3.42834e-06
-3.17778e-05
-4.55561e-06
-2.8463e-05
-6.61445e-06
-2.40298e-05
-8.85179e-06
-1.85624e-05
-1.09115e-05
-1.18827e-05
-1.33754e-05
-3.87949e-06
-1.608e-05
6.19191e-06
-2.00129e-05
1.78006e-05
-2.32036e-05
3.07284e-05
-2.58365e-05
4.48868e-05
-2.83002e-05
6.01147e-05
-3.045e-05
7.62508e-05
-3.22689e-05
9.31734e-05
-3.38314e-05
0.000110695
-3.50395e-05
0.000128661
-3.59284e-05
0.0001468
-3.62669e-05
0.000165028
-3.64441e-05
0.00018301
-3.59582e-05
0.000200614
-3.52108e-05
0.00021753
-3.38087e-05
0.000233584
-3.20935e-05
0.000248552
-2.99251e-05
0.000262214
-2.73084e-05
0.000274354
-2.4268e-05
0.000284774
-2.08301e-05
0.000293313
-1.70707e-05
0.000299799
-1.29724e-05
0.000304135
-8.66894e-06
0.00030628
-4.27791e-06
0.000306161
2.24458e-07
0.000303844
4.60621e-06
0.00029918
9.2784e-06
0.000292408
1.35597e-05
0.00028365
1.74824e-05
0.000272996
2.12815e-05
0.000260674
2.4599e-05
0.00024686
2.76612e-05
0.000231717
3.02335e-05
0.000215539
3.23239e-05
0.000198523
3.39876e-05
0.000180874
3.53115e-05
0.000162849
3.60047e-05
0.000144703
3.62561e-05
0.000126644
3.6088e-05
0.000108963
3.53328e-05
9.18732e-05
3.41399e-05
7.55838e-05
3.25903e-05
6.02032e-05
3.07245e-05
4.59511e-05
2.84798e-05
3.28514e-05
2.6193e-05
2.09055e-05
2.38798e-05
1.01346e-05
2.15166e-05
4.86232e-07
1.93179e-05
-8.18252e-06
1.73392e-05
-1.59157e-05
1.5463e-05
-2.28192e-05
1.38025e-05
-2.90087e-05
1.23746e-05
-3.44986e-05
1.0986e-05
-3.94507e-05
9.89762e-06
-4.3812e-05
8.72292e-06
-4.76291e-05
7.59457e-06
-5.08902e-05
6.57579e-06
-5.36771e-05
5.52987e-06
-5.58803e-05
4.42747e-06
-5.75397e-05
3.32003e-06
-5.8598e-05
2.13152e-06
-5.90385e-05
9.03122e-07
-5.89669e-05
-1.71113e-07
-5.82291e-05
-1.46617e-06
-5.6864e-05
-2.7271e-06
-5.48245e-05
-4.08573e-06
-5.22469e-05
-5.16232e-06
-4.89651e-05
-6.55701e-06
-4.50088e-05
-7.90886e-06
-4.0492e-05
-9.02574e-06
-3.523e-05
-1.05264e-05
-2.93926e-05
-1.16713e-05
-2.29586e-05
-1.28627e-05
-1.58008e-05
-1.43171e-05
-8.03394e-06
-1.55285e-05
3.20331e-07
-1.67229e-05
9.44446e-06
-1.82423e-05
1.92611e-05
-1.96463e-05
2.98316e-05
-2.11407e-05
4.12118e-05
-2.27565e-05
5.34397e-05
-2.44599e-05
6.65274e-05
-2.61855e-05
8.05173e-05
-2.79799e-05
9.5372e-05
-2.96963e-05
0.000111062
-3.13688e-05
0.000127531
-3.29167e-05
0.000144623
-3.41972e-05
0.000162231
-3.5209e-05
0.000180156
-3.58442e-05
0.000198213
-3.60886e-05
0.000216186
-3.59173e-05
0.000233767
-3.51799e-05
0.000250811
-3.40703e-05
0.000267095
-3.2555e-05
0.000282314
-3.04361e-05
0.000296321
-2.79972e-05
0.000308849
-2.50472e-05
0.000319727
-2.17397e-05
0.000328624
-1.77798e-05
0.000335378
-1.35216e-05
0.000339728
-8.66384e-06
0.000341573
-3.72547e-06
0.000340839
1.48884e-06
0.000337375
6.8904e-06
0.000331244
1.23016e-05
0.000322654
1.71726e-05
0.000311819
2.16598e-05
0.000298926
2.57778e-05
0.000284253
2.93321e-05
0.00026813
3.22072e-05
0.000250851
3.45673e-05
0.000232818
3.60572e-05
0.000214193
3.72353e-05
0.000195312
3.77445e-05
0.000176368
3.78855e-05
0.000157652
3.74342e-05
0.000139273
3.67302e-05
0.000121461
3.56232e-05
0.00010433
3.42518e-05
8.80123e-05
3.26332e-05
7.25578e-05
3.09082e-05
5.80748e-05
2.89562e-05
4.45224e-05
2.7118e-05
3.20008e-05
2.50409e-05
2.05429e-05
2.28961e-05
1.01183e-05
2.08503e-05
7.25188e-07
1.87953e-05
-7.68524e-06
1.68242e-05
-1.51344e-05
1.4905e-05
-2.16929e-05
1.31262e-05
-2.74475e-05
1.15029e-05
-3.24481e-05
1.00015e-05
-3.67786e-05
8.66194e-06
-4.04641e-05
7.38341e-06
-4.36191e-05
6.30435e-06
-4.62099e-05
5.17856e-06
-4.83443e-05
4.2688e-06
-4.99527e-05
3.26056e-06
-5.1226e-05
2.48563e-06
-5.20048e-05
1.56602e-06
-5.23197e-05
6.17022e-07
-5.20796e-05
-5.11496e-07
-5.13521e-05
-1.40891e-06
-4.99463e-05
-2.86613e-06
-4.79261e-05
-4.00782e-06
-4.522e-05
-5.42352e-06
-4.17709e-05
-6.93244e-06
-3.76532e-05
-8.18721e-06
-3.28018e-05
-9.74487e-06
-2.72944e-05
-1.09943e-05
-2.11114e-05
-1.2394e-05
-1.43452e-05
-1.34938e-05
-6.90018e-06
-1.48445e-05
1.03497e-06
-1.59264e-05
9.65315e-06
-1.72554e-05
1.8923e-05
-1.85284e-05
2.88632e-05
-1.9895e-05
3.95507e-05
-2.13364e-05
5.09186e-05
-2.27528e-05
6.30465e-05
-2.42511e-05
7.58816e-05
-2.56704e-05
8.93851e-05
-2.6976e-05
0.000103393
-2.80493e-05
0.000117933
-2.9039e-05
0.000132867
-2.98728e-05
0.000148171
-3.06097e-05
0.000163736
-3.11269e-05
0.000179451
-3.14234e-05
0.000195218
-3.15164e-05
0.000210871
-3.12839e-05
0.000226232
-3.07093e-05
0.000241139
-2.97743e-05
0.000255303
-2.8338e-05
0.000268498
-2.63796e-05
0.000280471
-2.39315e-05
0.000290956
-2.09355e-05
0.000299657
-1.74051e-05
0.000306387
-1.34466e-05
0.000310916
-9.04751e-06
0.000313049
-4.28525e-06
0.000312717
7.02805e-07
0.000309766
5.87355e-06
0.000304177
1.11874e-05
0.000296207
1.59581e-05
0.00028603
2.03417e-05
0.000273983
2.40932e-05
0.000260306
2.73479e-05
0.00024542
2.97535e-05
0.000229719
3.13905e-05
0.000213613
3.2202e-05
0.000197474
3.22678e-05
0.000181662
3.16102e-05
0.000166548
3.02115e-05
0.000152266
2.85483e-05
0.000138746
2.7026e-05
0.000126036
2.54055e-05
0.000114071
2.39162e-05
0.000102767
2.25964e-05
9.20845e-05
2.13572e-05
8.18978e-05
2.03691e-05
7.21065e-05
1.9582e-05
6.26778e-05
1.88598e-05
5.35109e-05
1.83381e-05
4.4594e-05
1.7839e-05
3.59532e-05
1.7288e-05
2.75927e-05
1.67277e-05
1.96124e-05
1.59669e-05
1.20916e-05
1.50488e-05
5.1501e-06
1.38848e-05
-1.23271e-06
1.27613e-05
-7.21251e-06
1.1967e-05
-1.25288e-05
1.0637e-05
-1.71153e-05
9.17696e-06
-2.09427e-05
7.65853e-06
-2.40029e-05
6.12391e-06
-2.63393e-05
4.67606e-06
-2.79764e-05
3.27718e-06
-2.89892e-05
2.02809e-06
-2.94439e-05
9.12414e-07
-2.92857e-05
-3.11806e-07
-2.85854e-05
-1.39696e-06
-2.7447e-05
-2.27528e-06
-2.58788e-05
-3.13788e-06
-2.40222e-05
-3.70996e-06
-2.1748e-05
-4.55088e-06
-1.905e-05
-5.39531e-06
-1.60417e-05
-6.02053e-06
-1.25402e-05
-7.00102e-06
-8.43717e-06
-8.20981e-06
-3.84643e-06
-9.18291e-06
1.53008e-06
-1.07617e-05
7.70724e-06
-1.23629e-05
1.4849e-05
-1.42956e-05
2.29449e-05
-1.62063e-05
3.18369e-05
-1.77881e-05
4.17993e-05
-1.99238e-05
5.28286e-05
-2.20585e-05
6.46669e-05
-2.36855e-05
7.75916e-05
-2.58473e-05
9.13817e-05
-2.75618e-05
0.000106014
-2.92571e-05
0.000121502
-3.09629e-05
0.000137419
-3.18288e-05
0.000153806
-3.27593e-05
0.000170645
-3.36603e-05
0.000187442
-3.35922e-05
0.000204247
-3.35978e-05
0.00022088
-3.32581e-05
0.000237034
-3.22931e-05
0.000252546
-3.10173e-05
0.000267295
-2.94855e-05
0.000281013
-2.74294e-05
0.000293615
-2.51939e-05
0.000304791
-2.23388e-05
0.000314455
-1.93205e-05
0.000322508
-1.61052e-05
0.000328773
-1.25284e-05
0.000333185
-8.82052e-06
0.000335679
-4.98678e-06
0.000336239
-1.11971e-06
0.000334754
2.95955e-06
0.000331197
7.11365e-06
0.000325831
1.07317e-05
0.000318761
1.41363e-05
0.000309932
1.76506e-05
0.000299695
2.04648e-05
0.000288095
2.31903e-05
0.000275449
2.52833e-05
0.000261862
2.71649e-05
0.000247404
2.89046e-05
0.000232489
2.98219e-05
0.000217186
3.05992e-05
3.13457e-05
5.30132e-05
-1.94072e-05
6.01535e-05
-2.14278e-05
6.80271e-05
-2.36222e-05
7.65886e-05
-2.56789e-05
8.60772e-05
-2.84538e-05
9.63184e-05
-3.07019e-05
0.000107531
-3.36142e-05
0.000119616
-3.62146e-05
0.000132299
-3.80324e-05
0.00014589
-4.07517e-05
0.000160284
-4.31491e-05
0.000175106
-4.44512e-05
0.00019059
-4.64178e-05
0.00020644
-4.75267e-05
0.000222669
-4.86434e-05
0.000239141
-4.93893e-05
0.000255395
-4.87402e-05
0.000271461
-4.81465e-05
0.000287136
-4.70219e-05
0.0003021
-4.48294e-05
0.000316131
-4.20621e-05
0.000329115
-3.89132e-05
0.000340728
-3.48196e-05
0.000350825
-3.02666e-05
0.000359238
-2.52188e-05
0.000365758
-1.95281e-05
0.000370323
-1.36847e-05
0.000372789
-7.38121e-06
0.000373078
-8.85052e-07
0.000371292
5.29708e-06
0.000367126
1.25043e-05
0.000360908
1.86476e-05
0.000352634
2.47968e-05
0.000342534
3.02711e-05
0.000330853
3.50059e-05
0.000317442
4.01915e-05
0.000302684
4.42204e-05
0.000286939
4.71971e-05
0.000270184
5.02203e-05
0.000252803
5.20893e-05
0.000235055
5.31842e-05
0.000217171
5.36167e-05
0.000199397
5.32769e-05
0.000181883
5.25279e-05
0.00016482
5.11319e-05
0.000148421
4.918e-05
0.000132719
4.70842e-05
0.00011789
4.44699e-05
0.000103961
4.17779e-05
9.09488e-05
3.90277e-05
7.88905e-05
3.61804e-05
6.77378e-05
3.34611e-05
5.74901e-05
3.07575e-05
4.80579e-05
2.83123e-05
3.93728e-05
2.60722e-05
3.13895e-05
2.39665e-05
2.40218e-05
2.21145e-05
1.71731e-05
2.05525e-05
1.08616e-05
1.89445e-05
4.98396e-06
1.76416e-05
-4.58807e-07
1.63339e-05
-5.50141e-06
1.51277e-05
-1.0189e-05
1.40626e-05
-1.44781e-05
1.28644e-05
-1.83844e-05
1.17159e-05
-2.19654e-05
1.0742e-05
-2.51269e-05
9.47884e-06
-2.79095e-05
8.3452e-06
-3.02367e-05
6.97753e-06
-3.21221e-05
5.64869e-06
-3.35655e-05
4.33674e-06
-3.46871e-05
3.39724e-06
-3.55031e-05
2.48634e-06
-3.61511e-05
2.00124e-06
-3.65773e-05
1.34329e-06
-3.67651e-05
6.24788e-07
-3.65128e-05
-6.8187e-07
-3.56571e-05
-2.50332e-06
-3.39195e-05
-5.16599e-06
-3.16082e-05
-6.86691e-06
-2.82669e-05
-9.95582e-06
-2.38171e-05
-1.33016e-05
-1.83019e-05
-1.64267e-05
-1.1595e-05
-2.00824e-05
-3.58454e-06
-2.40906e-05
6.53516e-06
-3.01327e-05
1.81585e-05
-3.4827e-05
3.10873e-05
-3.87654e-05
4.52504e-05
-4.24634e-05
6.04861e-05
-4.56857e-05
7.66296e-05
-4.84124e-05
9.35617e-05
-5.07635e-05
0.000111104
-5.2582e-05
0.00012905
-5.38748e-05
0.000147237
-5.44533e-05
0.000165459
-5.46665e-05
0.000183461
-5.39606e-05
0.000201041
-5.279e-05
0.000217999
-5.07673e-05
0.000234082
-4.81769e-05
0.000249067
-4.49099e-05
0.000262734
-4.09749e-05
0.000274888
-3.64222e-05
0.000285328
-3.12705e-05
0.000293924
-2.56672e-05
0.000300369
-1.9417e-05
0.000304709
-1.30094e-05
0.000306818
-6.38643e-06
0.000306725
3.17563e-07
0.000304304
7.02719e-06
0.000299672
1.39099e-05
0.000292888
2.03438e-05
0.000284086
2.6284e-05
0.000273403
3.19646e-05
0.000261034
3.69685e-05
0.000247214
4.14814e-05
0.000232005
4.54417e-05
0.000215778
4.85507e-05
0.000198704
5.10626e-05
0.00018103
5.29849e-05
0.000162947
5.40876e-05
0.000144747
5.44565e-05
0.000126632
5.42032e-05
0.000108895
5.30697e-05
9.17339e-05
5.13007e-05
7.54374e-05
4.88868e-05
6.00286e-05
4.61334e-05
4.57375e-05
4.27709e-05
3.26186e-05
3.93118e-05
2.06808e-05
3.58176e-05
9.89354e-06
3.23038e-05
2.35152e-07
2.89762e-05
-8.40521e-06
2.59796e-05
-1.61692e-05
2.3227e-05
-2.30709e-05
2.07042e-05
-2.92589e-05
1.85626e-05
-3.476e-05
1.64871e-05
-3.9697e-05
1.48346e-05
-4.4055e-05
1.3081e-05
-4.78846e-05
1.14241e-05
-5.12039e-05
9.89509e-06
-5.39627e-05
8.28866e-06
-5.61525e-05
6.61731e-06
-5.77939e-05
4.96136e-06
-5.88487e-05
3.18641e-06
-5.93055e-05
1.35987e-06
-5.92064e-05
-2.70197e-07
-5.84563e-05
-2.2163e-06
-5.70608e-05
-4.12256e-06
-5.51156e-05
-6.03096e-06
-5.2493e-05
-7.7849e-06
-4.92126e-05
-9.83745e-06
-4.53069e-05
-1.18146e-05
-4.07121e-05
-1.36206e-05
-3.54746e-05
-1.57639e-05
-2.96518e-05
-1.74941e-05
-2.31596e-05
-1.93549e-05
-1.60257e-05
-2.1451e-05
-8.27592e-06
-2.32783e-05
1.13539e-07
-2.51124e-05
9.21632e-06
-2.73451e-05
1.90446e-05
-2.94746e-05
2.96136e-05
-3.17097e-05
4.09884e-05
-3.41313e-05
5.32077e-05
-3.66793e-05
6.62896e-05
-3.92675e-05
8.02823e-05
-4.19726e-05
9.51528e-05
-4.45668e-05
0.000110867
-4.70828e-05
0.000127338
-4.93876e-05
0.000144465
-5.13243e-05
0.000162051
-5.2795e-05
0.000179992
-5.3786e-05
0.000198097
-5.4193e-05
0.000216041
-5.38616e-05
0.0002337
-5.28393e-05
0.000250724
-5.10942e-05
0.000266991
-4.88222e-05
0.000282269
-4.5714e-05
0.000296273
-4.20009e-05
0.000308832
-3.76067e-05
0.000319707
-3.26144e-05
0.000328642
-2.67156e-05
0.000335399
-2.02781e-05
0.000339811
-1.3076e-05
0.000341637
-5.55167e-06
0.000340864
2.26195e-06
0.000337385
1.03689e-05
0.000331272
1.84147e-05
0.000322657
2.57879e-05
0.000311752
3.25646e-05
0.000298836
3.86935e-05
0.000284133
4.40355e-05
0.000268011
4.83296e-05
0.000250768
5.18097e-05
0.00023266
5.41655e-05
0.000214
5.58949e-05
0.000195119
5.66261e-05
0.000176199
5.68047e-05
0.000157432
5.62018e-05
0.00013907
5.50918e-05
0.000121245
5.34482e-05
0.000104103
5.13935e-05
8.77975e-05
4.89389e-05
7.23091e-05
4.63966e-05
5.77975e-05
4.34678e-05
4.43032e-05
4.06123e-05
3.17577e-05
3.75864e-05
2.02845e-05
3.43693e-05
9.87624e-06
3.12585e-05
4.82122e-07
2.81894e-05
-7.91708e-06
2.52234e-05
-1.53556e-05
2.23436e-05
-2.18851e-05
1.96557e-05
-2.76554e-05
1.72732e-05
-3.26658e-05
1.5012e-05
-3.69932e-05
1.29892e-05
-4.06264e-05
1.10166e-05
-4.38244e-05
9.50239e-06
-4.64177e-05
7.77183e-06
-4.85451e-05
6.39614e-06
-5.01504e-05
4.86589e-06
-5.14438e-05
3.77904e-06
-5.22228e-05
2.34501e-06
-5.25457e-05
9.39956e-07
-5.23405e-05
-7.16732e-07
-5.15612e-05
-2.18821e-06
-5.02189e-05
-4.20841e-06
-4.8163e-05
-6.06376e-06
-4.54614e-05
-8.12509e-06
-4.20221e-05
-1.03718e-05
-3.78179e-05
-1.23914e-05
-3.30574e-05
-1.45054e-05
-2.75437e-05
-1.6508e-05
-2.13678e-05
-1.85699e-05
-1.45704e-05
-2.02913e-05
-7.14957e-06
-2.22653e-05
8.10846e-07
-2.38868e-05
9.4277e-06
-2.58723e-05
1.87028e-05
-2.78035e-05
2.86316e-05
-2.98239e-05
3.92996e-05
-3.20043e-05
5.06968e-05
-3.415e-05
6.283e-05
-3.63843e-05
7.56694e-05
-3.85098e-05
8.91438e-05
-4.04504e-05
0.000103171
-4.20766e-05
0.000117708
-4.35762e-05
0.000132682
-4.48469e-05
0.000147994
-4.5922e-05
0.000163555
-4.66877e-05
0.000179282
-4.71499e-05
0.00019505
-4.72851e-05
0.000210751
-4.69846e-05
0.00022614
-4.60986e-05
0.000241038
-4.46721e-05
0.000255195
-4.24945e-05
0.000268426
-3.9611e-05
0.000280405
-3.59108e-05
0.000290943
-3.14736e-05
0.000299677
-2.61386e-05
0.00030643
-2.01997e-05
0.000310983
-1.36009e-05
0.000313125
-6.42684e-06
0.000312778
1.04911e-06
0.000309796
8.85617e-06
0.000304224
1.67591e-05
0.000296276
2.3906e-05
0.000286082
3.05355e-05
0.000274022
3.61533e-05
0.000260348
4.10224e-05
0.000245458
4.46432e-05
0.000229748
4.71007e-05
0.000213628
4.83217e-05
0.000197474
4.84214e-05
0.000181649
4.74358e-05
0.000166518
4.53423e-05
0.000152216
4.28505e-05
0.000138675
4.05671e-05
0.000125943
3.8137e-05
0.000113956
3.59033e-05
0.000102633
3.39196e-05
9.19358e-05
3.20542e-05
8.17398e-05
3.05651e-05
7.19439e-05
2.93779e-05
6.25168e-05
2.82869e-05
5.33554e-05
2.74995e-05
4.44458e-05
2.67486e-05
3.58144e-05
2.59194e-05
2.74631e-05
2.5079e-05
1.94915e-05
2.39385e-05
1.19814e-05
2.25589e-05
5.04244e-06
2.08237e-05
-1.34577e-06
1.91495e-05
-7.31563e-06
1.79369e-05
-1.2625e-05
1.59463e-05
-1.72046e-05
1.37566e-05
-2.10236e-05
1.14775e-05
-2.40765e-05
9.17678e-06
-2.64067e-05
7.00627e-06
-2.80375e-05
4.90797e-06
-2.9044e-05
3.03463e-06
-2.94904e-05
1.35885e-06
-2.93248e-05
-4.77436e-07
-2.8619e-05
-2.1028e-06
-2.74777e-05
-3.41658e-06
-2.59107e-05
-4.70485e-06
-2.40505e-05
-5.57015e-06
-2.17805e-05
-6.8209e-06
-1.9083e-05
-8.09281e-06
-1.60872e-05
-9.01642e-06
-1.2582e-05
-1.05062e-05
-8.48423e-06
-1.23076e-05
-3.89781e-06
-1.37693e-05
1.46582e-06
-1.61254e-05
7.63244e-06
-1.85296e-05
1.47535e-05
-2.14166e-05
2.28335e-05
-2.42863e-05
3.17147e-05
-2.66694e-05
4.16697e-05
-2.98787e-05
5.27109e-05
-3.30997e-05
6.45599e-05
-3.55345e-05
7.74883e-05
-3.87758e-05
9.12888e-05
-4.13623e-05
0.00010594
-4.39085e-05
0.000121445
-4.64677e-05
0.00013738
-4.77643e-05
0.000153781
-4.91603e-05
0.000170641
-5.05205e-05
0.000187454
-5.0405e-05
0.000204281
-5.04245e-05
0.00022093
-4.99079e-05
0.000237101
-4.84638e-05
0.000252628
-4.65447e-05
0.000267395
-4.4252e-05
0.000281127
-4.11621e-05
0.000293747
-3.78138e-05
0.000304932
-3.35234e-05
0.0003146
-2.89882e-05
0.000322661
-2.41668e-05
0.000328932
-1.87992e-05
0.000333343
-1.32313e-05
0.000335838
-7.48204e-06
0.000336396
-1.67787e-06
0.000334888
4.46709e-06
0.000331334
1.06677e-05
0.000325966
1.61002e-05
0.000318888
2.12145e-05
0.000310048
2.64903e-05
0.000299797
3.07154e-05
0.000288185
3.48025e-05
0.000275522
3.79458e-05
0.00026192
4.07671e-05
0.000247448
4.33766e-05
0.000232519
4.47511e-05
0.000217202
4.59159e-05
4.7035e-05
5.29281e-05
-2.58687e-05
6.0066e-05
-2.85658e-05
6.79397e-05
-3.14959e-05
7.65052e-05
-3.42444e-05
8.60027e-05
-3.79514e-05
9.62587e-05
-4.09579e-05
0.000107487
-4.48422e-05
0.000119591
-4.8319e-05
0.000132296
-5.07372e-05
0.000145908
-5.43633e-05
0.00016031
-5.75518e-05
0.000175147
-5.92883e-05
0.000190647
-6.19177e-05
0.000206513
-6.33926e-05
0.000222762
-6.48925e-05
0.000239249
-6.58764e-05
0.000255522
-6.5013e-05
0.000271607
-6.42324e-05
0.000287298
-6.27128e-05
0.000302284
-5.98147e-05
0.000316336
-5.6114e-05
0.000329332
-5.19095e-05
0.00034096
-4.64476e-05
0.00035107
-4.03768e-05
0.000359494
-3.36434e-05
0.000366024
-2.60581e-05
0.000370603
-1.82629e-05
0.000373069
-9.84741e-06
0.000373341
-1.15751e-06
0.00037153
7.10842e-06
0.000367369
1.6665e-05
0.000361142
2.48748e-05
0.000352855
3.30838e-05
0.000342736
4.03894e-05
0.000331035
4.67072e-05
0.0003176
5.36261e-05
0.000302813
5.90074e-05
0.000287045
6.29655e-05
0.000270265
6.70005e-05
0.00025285
6.95042e-05
0.000235068
7.09655e-05
0.000217163
7.15224e-05
0.000199361
7.10783e-05
0.000181828
7.00609e-05
0.000164745
6.82154e-05
0.000148334
6.55913e-05
0.00013262
6.27977e-05
0.000117782
5.93078e-05
0.000103849
5.57108e-05
9.08394e-05
5.20375e-05
7.87787e-05
4.82411e-05
6.76324e-05
4.46074e-05
5.7382e-05
4.10079e-05
4.79658e-05
3.77285e-05
3.92914e-05
3.47466e-05
3.13185e-05
3.19394e-05
2.39589e-05
2.9474e-05
1.71164e-05
2.73951e-05
1.08118e-05
2.52491e-05
4.94028e-06
2.35131e-05
-4.98142e-07
2.17723e-05
-5.53951e-06
2.01691e-05
-1.02262e-05
1.87493e-05
-1.45151e-05
1.71533e-05
-1.84223e-05
1.56231e-05
-2.2e-05
1.43197e-05
-2.5166e-05
1.26448e-05
-2.79476e-05
1.11269e-05
-3.02746e-05
9.30454e-06
-3.21561e-05
7.53014e-06
-3.36023e-05
5.78297e-06
-3.47055e-05
4.50035e-06
-3.5492e-05
3.27284e-06
-3.61079e-05
2.6172e-06
-3.64993e-05
1.73462e-06
-3.66564e-05
7.81918e-07
-3.63676e-05
-9.70699e-07
-3.54777e-05
-3.39319e-06
-3.37079e-05
-6.93581e-06
-3.13599e-05
-9.215e-06
-2.79845e-05
-1.33312e-05
-2.34789e-05
-1.78071e-05
-1.79243e-05
-2.19814e-05
-1.11638e-05
-2.68429e-05
-3.15337e-06
-3.2101e-05
7.04215e-06
-4.03282e-05
1.86901e-05
-4.6475e-05
3.1618e-05
-5.16932e-05
4.57849e-05
-5.66304e-05
6.10357e-05
-6.09366e-05
7.71893e-05
-6.45661e-05
9.41294e-05
-6.77037e-05
0.000111704
-7.01563e-05
0.00012965
-7.18208e-05
0.000147886
-7.269e-05
0.000166097
-7.28776e-05
0.000184123
-7.19861e-05
0.000201709
-7.03768e-05
0.000218737
-6.77944e-05
0.000234786
-6.42267e-05
0.000249802
-5.99257e-05
0.000263509
-5.46822e-05
0.000275682
-4.85947e-05
0.000286132
-4.17215e-05
0.000294686
-3.4221e-05
0.00030119
-2.5921e-05
0.000305533
-1.7352e-05
0.000307646
-8.49931e-06
0.000307512
4.51267e-07
0.000305045
9.49354e-06
0.000300408
1.85472e-05
0.000293584
2.71677e-05
0.000284741
3.51271e-05
0.000274019
4.26864e-05
0.000261593
4.93946e-05
0.000247688
5.5386e-05
0.000232453