/*--------------------------------*- C++ -*----------------------------------*\
| =========                 |                                                 |
| \\      /  F ield         | OpenFOAM: The Open Source CFD Toolbox           |
|  \\    /   O peration     | Version:  3.0.1                                 |
|   \\  /    A nd           | Web:      www.OpenFOAM.org                      |
|    \\/     M anipulation  |                                                 |
\*---------------------------------------------------------------------------*/
FoamFile
{
    version     2.0;
    format      ascii;
    class       volScalarField;
    location    "27";
    object      p_rgh;
}
// * * * * * * * * * * * * * * * * * * * * * * * * * * * * * * * * * * * * * //

dimensions      [1 -1 -2 0 0 0 0];

internalField   nonuniform List<scalar> 
21420
(
162.392
194.55
225.973
256.184
284.788
311.238
335.149
356.11
373.8
387.962
398.365
404.84
407.179
405.179
399.035
388.971
375.017
357.401
336.388
312.285
285.46
256.283
225.134
192.474
158.714
124.293
89.5953
55.0009
20.9253
-10.415
-42.4255
-73.351
-102.907
-130.921
-157.277
-181.888
-204.712
-225.728
-244.933
-262.344
-277.996
-291.924
-304.177
-314.8
-323.842
-331.348
-337.36
-341.922
-345.037
-346.711
-346.884
-345.652
-342.963
-338.793
-333.12
-325.908
-317.11
-306.675
-294.577
-280.763
-265.208
-247.897
-228.794
-207.917
-185.298
-160.976
-135.026
-107.549
-78.669
-48.5449
-17.8144
12.9275
44.6981
76.9496
109.342
141.475
172.994
203.537
232.739
260.22
285.607
308.542
328.684
345.688
359.287
369.247
375.362
377.491
375.69
369.904
360.209
346.593
329.253
308.42
284.375
257.454
228.028
196.501
163.295
128.841
93.5927
57.994
22.4705
-12.5691
-46.7551
-79.7625
-111.317
-141.195
-169.23
-195.312
-219.377
-241.403
-261.403
-279.418
-295.503
-309.726
-322.164
-332.895
-341.99
-349.515
-355.539
-360.143
-363.358
-365.199
-365.749
-365.025
-363.032
-359.787
-355.288
-349.534
-342.508
-334.193
-324.561
-313.576
-301.199
-287.382
-272.076
-255.231
-236.798
-216.742
-195.04
-171.695
-146.731
-120.208
-92.2155
-62.8863
-32.3944
-0.993123
31.0602
63.4645
95.8776
127.927
159.207
189.303
217.791
244.239
268.232
289.379
307.31
321.714
332.318
338.914
341.333
339.539
333.518
323.4
309.271
291.393
270.052
245.581
218.373
188.855
157.459
124.632
90.8313
56.4969
22.0432
-12.1488
-45.7349
-78.4109
-109.919
-140.07
-168.693
-195.669
-220.918
-244.395
-266.088
-286.007
-304.181
-320.653
-335.469
-348.68
-360.334
-370.471
-379.129
-386.342
-392.13
-396.521
-399.522
-401.13
-401.352
-400.223
-397.721
-393.839
-388.572
-381.893
-373.778
-364.198
-353.119
-340.509
-326.338
-310.577
-293.208
-274.218
-253.608
-231.39
-207.593
-182.273
-155.507
-127.374
-98.0401
-67.6797
-36.4965
-4.72971
27.3481
59.4271
91.1659
122.202
152.157
180.643
207.271
231.66
253.44
272.273
287.849
299.899
308.205
312.615
312.945
309.274
301.601
289.965
274.55
255.572
233.308
208.086
180.29
150.339
118.667
85.7321
51.9947
17.9027
-16.1189
-49.674
-82.4051
-114.005
-144.228
-172.873
-199.789
-224.869
-248.049
-269.304
-288.633
-306.065
-321.645
-335.428
-347.465
-357.833
-366.601
-373.813
-379.517
-383.758
-386.533
-387.831
-387.729
-386.433
-383.78
-379.762
-374.351
-367.514
-359.209
-349.406
-338.089
-325.224
-310.781
-294.754
-277.149
-257.926
-237.174
-214.862
-191.13
-166.015
-139.59
-111.928
-82.1763
-48.8572
-15.1494
18.6482
52.6006
86.4939
120.162
153.275
185.504
216.521
245.927
273.331
298.382
320.725
340.043
356.057
368.524
377.264
382.181
383.149
380.248
373.413
362.752
348.499
330.832
310.037
286.411
260.267
232.01
202.022
170.713
138.479
105.711
72.8095
40.1253
7.94943
-23.2624
-51.4833
-80.2419
-107.72
-133.677
-157.968
-180.509
-201.237
-220.125
-237.172
-252.383
-265.785
-277.416
-287.322
-295.558
-302.182
-307.253
-310.844
-313.022
-313.81
-312.995
-310.795
-307.272
-302.49
-296.488
-289.256
-280.783
162.389
194.563
226.004
256.233
284.855
311.323
335.251
356.228
373.932
388.105
398.517
404.997
407.349
405.339
399.192
389.118
375.154
357.524
336.496
312.376
285.533
256.337
225.169
192.491
158.714
124.277
89.5651
54.9582
20.8743
-10.4819
-42.4985
-73.4285
-102.988
-131.003
-157.36
-181.971
-204.794
-225.808
-245.01
-262.42
-278.068
-291.994
-304.244
-314.864
-323.904
-331.408
-337.418
-341.979
-345.093
-346.765
-346.941
-345.708
-343.02
-338.852
-333.181
-325.971
-317.175
-306.743
-294.648
-280.837
-265.284
-247.975
-228.873
-207.996
-185.377
-161.055
-135.102
-107.622
-78.7378
-48.6079
-17.8682
12.8807
44.6612
76.9238
109.329
141.476
173.01
203.568
232.787
260.284
285.687
308.638
328.794
345.812
359.423
369.391
375.511
377.647
375.842
370.054
360.353
346.728
329.375
308.527
284.465
257.526
228.08
196.534
163.309
128.836
93.5702
57.9548
22.4163
-12.6364
-46.8333
-79.8495
-111.41
-141.292
-169.33
-195.412
-219.475
-241.499
-261.496
-279.508
-295.589
-309.809
-322.243
-332.971
-342.062
-349.584
-355.606
-360.208
-363.42
-365.258
-365.81
-365.084
-363.091
-359.847
-355.348
-349.594
-342.57
-334.256
-324.626
-313.643
-301.269
-287.455
-272.152
-255.309
-236.879
-216.825
-195.124
-171.78
-146.815
-120.29
-92.2943
-62.9603
-32.4607
-1.05063
31.0135
63.4308
95.8586
127.924
159.222
189.337
217.844
244.312
268.323
289.488
307.435
321.852
332.467
339.07
341.499
339.696
333.672
323.546
309.407
291.515
270.157
245.667
218.44
188.903
157.487
124.641
90.8218
56.471
22.0028
-12.2017
-45.7982
-78.4823
-109.997
-140.152
-168.778
-195.755
-221.004
-244.48
-266.171
-286.087
-304.259
-320.728
-335.542
-348.75
-360.402
-370.537
-379.194
-386.405
-392.192
-396.583
-399.582
-401.189
-401.413
-400.284
-397.782
-393.901
-388.635
-381.957
-373.844
-364.266
-353.188
-340.581
-326.411
-310.653
-293.285
-274.296
-253.687
-231.47
-207.672
-182.351
-155.582
-127.445
-98.106
-67.7389
-36.5473
-4.77035
27.3193
59.4116
91.1651
122.217
152.189
180.692
207.338
231.743
253.541
272.388
287.977
300.038
308.353
312.772
313.098
309.423
301.748
290.103
274.677
255.685
233.405
208.165
180.35
150.379
118.687
85.7326
51.9772
17.8687
-16.1676
-49.7354
-82.4767
-114.084
-144.313
-172.962
-199.88
-224.96
-248.14
-269.393
-288.72
-306.149
-321.726
-335.505
-347.539
-357.903
-366.668
-373.877
-379.579
-383.817
-386.591
-387.888
-387.787
-386.489
-383.836
-379.817
-374.407
-367.57
-359.267
-349.464
-338.148
-325.284
-310.841
-294.816
-277.212
-257.989
-237.238
-214.926
-191.193
-166.078
-139.653
-111.989
-82.2422
-48.9017
-15.1898
18.6119
52.5712
86.4743
120.155
153.282
185.527
216.561
245.985
273.405
298.474
320.832
340.164
356.191
368.667
377.417
382.339
383.306
380.391
373.555
362.888
348.625
330.945
310.135
286.492
260.331
232.057
202.051
170.724
138.474
105.691
72.7763
40.0811
7.89516
-23.3182
-51.5576
-80.3194
-107.8
-133.759
-158.05
-180.591
-201.318
-220.205
-237.249
-252.458
-265.857
-277.486
-287.389
-295.622
-302.243
-307.312
-310.9
-313.076
-313.864
-313.045
-310.842
-307.318
-302.535
-296.533
-289.301
-280.829
162.382
194.591
226.067
256.332
284.991
311.494
335.455
356.464
374.196
388.392
398.821
405.311
407.688
405.659
399.507
389.415
375.428
357.771
336.712
312.557
285.678
256.444
225.239
192.525
158.713
124.245
89.5047
54.8727
20.7721
-10.6156
-42.6444
-73.5836
-103.149
-131.169
-157.527
-182.137
-204.957
-225.968
-245.166
-262.57
-278.213
-292.133
-304.378
-314.993
-324.028
-331.528
-337.534
-342.091
-345.205
-346.873
-347.054
-345.82
-343.135
-338.969
-333.301
-326.096
-317.305
-306.878
-294.788
-280.981
-265.433
-248.126
-229.027
-208.151
-185.531
-161.207
-135.25
-107.763
-78.8706
-48.7289
-17.9708
12.7927
44.5929
76.878
109.309
141.484
173.047
203.637
232.888
260.418
285.854
308.838
329.024
346.069
359.704
369.69
375.818
377.969
376.154
370.366
360.652
347.008
329.63
308.752
284.657
257.682
228.199
196.614
163.35
128.84
93.5385
57.8902
22.3219
-12.7564
-46.975
-80.0082
-111.581
-141.471
-169.513
-195.595
-219.656
-241.675
-261.666
-279.67
-295.743
-309.955
-322.382
-333.102
-342.187
-349.703
-355.721
-360.319
-363.523
-365.36
-365.911
-365.184
-363.191
-359.947
-355.449
-349.696
-342.674
-334.363
-324.737
-313.759
-301.39
-287.582
-272.285
-255.447
-237.023
-216.972
-195.275
-171.932
-146.966
-120.438
-92.4354
-63.0917
-32.5773
-1.14985
30.9358
63.3786
95.8355
127.933
159.266
189.418
217.964
244.469
268.518
289.718
307.696
322.14
332.776
339.394
341.843
340.017
333.99
323.85
309.688
291.768
270.376
245.85
218.584
189.006
157.551
124.667
90.8126
56.4292
21.932
-12.2974
-45.9144
-78.6147
-110.142
-140.306
-168.937
-195.916
-221.165
-244.639
-266.326
-286.237
-304.403
-320.866
-335.674
-348.878
-360.525
-370.656
-379.309
-386.518
-392.304
-396.693
-399.692
-401.295
-401.522
-400.392
-397.891
-394.012
-388.747
-382.073
-373.963
-364.388
-353.315
-340.712
-326.546
-310.791
-293.426
-274.44
-253.832
-231.615
-207.817
-182.493
-155.719
-127.575
-98.2256
-67.8448
-36.6366
-4.83962
27.2736
59.3921
91.1751
122.259
152.263
180.801
207.482
231.921
253.751
272.629
288.243
300.326
308.657
313.086
313.421
309.733
302.049
290.389
274.94
255.919
233.607
208.33
180.477
150.467
118.735
85.7424
51.9511
17.8096
-16.2559
-49.8488
-82.6104
-114.233
-144.474
-173.13
-200.052
-225.134
-248.312
-269.561
-288.883
-306.306
-321.876
-335.648
-347.676
-358.033
-366.791
-373.996
-379.693
-383.925
-386.697
-387.991
-387.894
-386.592
-383.939
-379.92
-374.511
-367.676
-359.374
-349.573
-338.259
-325.398
-310.957
-294.935
-277.332
-258.112
-237.361
-215.05
-191.314
-166.201
-139.776
-112.109
-82.3697
-48.9871
-15.2683
18.5424
52.515
86.4373
120.142
153.298
185.575
216.643
246.101
273.556
298.658
321.048
340.408
356.458
368.953
377.719
382.646
383.625
380.682
373.84
363.162
348.877
331.171
310.331
286.655
260.459
232.149
202.108
170.747
138.465
105.652
72.7098
39.9926
7.78679
-23.4304
-51.706
-80.4743
-107.96
-133.922
-158.215
-180.755
-201.481
-220.364
-237.405
-252.609
-266.003
-277.626
-287.523
-295.751
-302.365
-307.429
-311.012
-313.185
-313.971
-313.146
-310.937
-307.41
-302.625
-296.622
-289.391
-280.921
162.373
194.631
226.161
256.481
285.194
311.75
335.763
356.819
374.592
388.822
399.277
405.781
408.185
406.148
399.982
389.859
375.839
358.142
337.036
312.829
285.896
256.606
225.345
192.575
158.712
124.196
89.4137
54.744
20.6187
-10.816
-42.8634
-73.8165
-103.392
-131.417
-157.777
-182.387
-205.203
-226.209
-245.4
-262.796
-278.43
-292.342
-304.578
-315.186
-324.214
-331.707
-337.709
-342.259
-345.371
-347.039
-347.224
-345.988
-343.306
-339.144
-333.482
-326.284
-317.499
-307.081
-294.997
-281.198
-265.656
-248.354
-229.258
-208.384
-185.763
-161.435
-135.472
-107.975
-79.0701
-48.9111
-18.1254
12.6602
44.4902
76.8091
109.279
141.496
173.104
203.741
233.04
260.62
286.105
309.138
329.37
346.456
360.127
370.139
376.281
378.445
376.631
370.839
361.103
347.43
330.016
309.093
284.948
257.919
228.378
196.735
163.414
128.848
93.4929
57.795
22.1821
-12.9348
-47.1859
-80.2448
-111.836
-141.738
-169.786
-195.868
-219.925
-241.937
-261.919
-279.911
-295.973
-310.174
-322.589
-333.299
-342.373
-349.881
-355.892
-360.483
-363.677
-365.515
-366.063
-365.333
-363.34
-360.096
-355.6
-349.848
-342.83
-334.524
-324.903
-313.932
-301.571
-287.771
-272.483
-255.654
-237.237
-217.193
-195.501
-172.16
-147.192
-120.659
-92.6464
-63.2877
-32.7513
-1.29763
30.8202
63.3014
95.802
127.948
159.334
189.542
218.144
244.708
268.812
290.064
308.09
322.574
333.241
339.88
342.351
340.509
334.473
324.307
310.113
292.149
270.707
246.125
218.801
189.164
157.649
124.708
90.8002
56.3676
21.8271
-12.4396
-46.0877
-78.8121
-110.358
-140.535
-169.174
-196.157
-221.405
-244.876
-266.557
-286.461
-304.618
-321.072
-335.873
-349.068
-360.707
-370.833
-379.482
-386.687
-392.471
-396.858
-399.854
-401.454
-401.684
-400.554
-398.054
-394.178
-388.916
-382.245
-374.141
-364.571
-353.504
-340.906
-326.746
-310.997
-293.637
-274.654
-254.049
-231.833
-208.034
-182.705
-155.923
-127.77
-98.4039
-68.0026
-36.7694
-4.94235
27.2062
59.3643
91.1914
122.323
152.377
180.967
207.7
232.19
254.069
272.991
288.645
300.76
309.114
313.553
313.909
310.202
302.503
290.82
275.337
256.273
233.912
208.58
180.669
150.6
118.809
85.7587
51.9134
17.7222
-16.3872
-50.0177
-82.8101
-114.456
-144.714
-173.382
-200.309
-225.393
-248.568
-269.812
-289.127
-306.541
-322.1
-335.861
-347.88
-358.228
-366.976
-374.173
-379.863
-384.087
-386.854
-388.148
-388.056
-386.747
-384.094
-380.075
-374.668
-367.834
-359.534
-349.737
-338.427
-325.568
-311.131
-295.113
-277.512
-258.296
-237.545
-215.237
-191.497
-166.385
-139.96
-112.291
-82.5598
-49.115
-15.3856
18.4342
52.4297
86.3813
120.123
153.322
185.646
216.765
246.276
273.783
298.935
321.372
340.773
356.86
369.384
378.171
383.108
384.099
381.126
374.27
363.573
349.256
331.51
310.625
286.9
260.652
232.288
202.194
170.781
138.45
105.593
72.61
39.8596
7.62442
-23.5995
-51.9286
-80.7066
-108.2
-134.167
-158.462
-181.002
-201.724
-220.603
-237.638
-252.835
-266.221
-277.836
-287.724
-295.943
-302.549
-307.604
-311.18
-313.347
-314.132
-313.296
-311.079
-307.547
-302.76
-296.757
-289.527
-281.059
162.36
194.685
226.286
256.678
285.465
312.092
336.172
357.291
375.12
389.396
399.887
406.411
408.834
406.805
400.616
390.452
376.388
358.636
337.468
313.191
286.187
256.821
225.485
192.642
158.71
124.131
89.292
54.5714
20.4142
-11.0836
-43.1557
-74.1273
-103.716
-131.748
-158.111
-182.719
-205.531
-226.529
-245.711
-263.097
-278.72
-292.621
-304.846
-315.443
-324.461
-331.947
-337.941
-342.483
-345.59
-347.262
-347.449
-346.212
-343.535
-339.378
-333.723
-326.534
-317.759
-307.35
-295.277
-281.487
-265.953
-248.658
-229.567
-208.694
-186.072
-161.74
-135.768
-108.259
-79.3365
-49.1546
-18.3324
12.4831
44.3528
76.7166
109.239
141.511
173.178
203.88
233.242
260.888
286.44
309.538
329.83
346.972
360.691
370.738
376.899
379.07
377.275
371.474
361.706
347.995
330.53
309.548
285.336
258.234
228.617
196.897
163.499
128.858
93.4321
57.668
21.9955
-13.1729
-47.4676
-80.5607
-112.177
-142.095
-170.15
-196.233
-220.285
-242.287
-262.256
-280.234
-296.28
-310.465
-322.866
-333.561
-342.622
-350.118
-356.12
-360.7
-363.884
-365.72
-366.264
-365.532
-363.538
-360.294
-355.8
-350.051
-343.038
-334.738
-325.124
-314.163
-301.812
-288.024
-272.747
-255.929
-237.523
-217.488
-195.802
-172.463
-147.494
-120.954
-92.9284
-63.549
-32.9836
-1.49501
30.6657
63.198
95.7571
127.968
159.424
189.707
218.385
245.026
269.204
290.526
308.616
323.154
333.863
340.53
343.013
341.176
335.121
324.919
310.68
292.658
271.149
246.493
219.09
189.374
157.78
124.762
90.7836
56.2854
21.687
-12.6295
-46.3188
-79.0757
-110.646
-140.84
-169.49
-196.478
-221.726
-245.191
-266.865
-286.759
-304.905
-321.347
-336.137
-349.322
-360.952
-371.07
-379.713
-386.913
-392.694
-397.078
-400.07
-401.668
-401.9
-400.769
-398.271
-394.398
-389.141
-382.476
-374.378
-364.816
-353.756
-341.166
-327.014
-311.271
-293.917
-274.94
-254.338
-232.123
-208.323
-182.989
-156.196
-128.029
-98.6418
-68.2131
-36.9466
-5.07943
27.1163
59.3272
91.2131
122.408
152.529
181.188
207.991
232.549
254.493
273.475
289.18
301.339
309.725
314.179
314.555
310.833
303.111
291.396
275.866
256.746
234.319
208.914
180.926
150.779
118.907
85.7805
51.863
17.6054
-16.5625
-50.2432
-83.0766
-114.753
-145.034
-173.717
-200.653
-225.738
-248.911
-270.148
-289.453
-306.855
-322.399
-336.146
-348.152
-358.487
-367.222
-374.409
-380.09
-384.304
-387.062
-388.359
-388.268
-386.953
-384.3
-380.281
-374.876
-368.045
-359.749
-349.955
-338.649
-325.795
-311.363
-295.35
-277.752
-258.541
-237.791
-215.485
-191.742
-166.631
-140.207
-112.538
-82.8108
-49.2842
-15.5431
18.2915
52.316
86.3063
120.097
153.353
185.74
216.927
246.508
274.085
299.304
321.803
341.261
357.395
369.957
378.772
383.723
384.725
381.726
374.846
364.121
349.761
331.963
311.018
287.227
260.908
232.474
202.309
170.827
138.431
105.513
72.4766
39.6818
7.40817
-23.8264
-52.2257
-81.0166
-108.52
-134.493
-158.791
-181.33
-202.05
-220.922
-237.949
-253.136
-266.512
-278.115
-287.992
-296.199
-302.794
-307.838
-311.403
-313.562
-314.347
-313.495
-311.267
-307.73
-302.94
-296.936
-289.707
-281.243
162.343
194.752
226.442
256.925
285.803
312.52
336.685
357.883
375.781
390.114
400.649
407.2
409.643
407.619
401.407
391.194
377.073
359.254
338.009
313.645
286.55
257.09
225.659
192.726
158.707
124.048
89.1391
54.3543
20.1586
-11.4185
-43.5218
-74.5164
-104.121
-132.162
-158.528
-183.135
-205.941
-226.93
-246.1
-263.473
-279.082
-292.969
-305.18
-315.765
-324.771
-332.246
-338.231
-342.764
-345.865
-347.541
-347.729
-346.492
-343.82
-339.67
-334.023
-326.846
-318.083
-307.688
-295.626
-281.848
-266.325
-249.038
-229.953
-209.083
-186.458
-162.122
-136.138
-108.613
-79.6699
-49.46
-18.592
12.2609
44.1804
76.6005
109.187
141.529
173.271
204.052
233.494
261.224
286.858
310.038
330.406
347.618
361.397
371.488
377.675
379.852
378.078
372.268
362.461
348.701
331.174
310.116
285.821
258.628
228.916
197.099
163.605
128.87
93.3554
57.5084
21.7614
-13.4715
-47.8208
-80.9565
-112.604
-142.542
-170.606
-196.689
-220.735
-242.725
-262.678
-280.638
-296.665
-310.83
-323.212
-333.889
-342.933
-350.415
-356.405
-360.972
-364.145
-365.977
-366.516
-365.781
-363.786
-360.543
-356.051
-350.306
-343.298
-335.006
-325.401
-314.452
-302.114
-288.339
-273.077
-256.274
-237.881
-217.856
-196.179
-172.844
-147.872
-121.323
-93.2819
-63.8766
-33.2748
-1.74262
30.4719
63.0679
95.7004
127.992
159.536
189.912
218.686
245.423
269.695
291.104
309.274
323.879
334.641
341.343
343.838
342.011
335.934
325.686
311.389
293.295
271.702
246.952
219.452
189.637
157.943
124.83
90.762
56.1818
21.5113
-12.8679
-46.6086
-79.406
-111.008
-141.223
-169.886
-196.88
-222.127
-245.587
-267.25
-287.132
-305.263
-321.691
-336.467
-349.639
-361.257
-371.365
-380.001
-387.195
-392.972
-397.351
-400.339
-401.938
-402.17
-401.039
-398.542
-394.674
-389.422
-382.764
-374.674
-365.121
-354.071
-341.491
-327.348
-311.615
-294.269
-275.298
-254.7
-232.486
-208.684
-183.343
-156.538
-128.353
-98.9396
-68.477
-37.1687
-5.25136
27.0032
59.2804
91.2398
122.514
152.718
181.464
208.354
232.998
255.023
274.08
289.851
302.063
310.489
314.964
315.354
311.626
303.873
292.116
276.529
257.338
234.828
209.332
181.248
151.001
119.03
85.8073
51.7992
17.4587
-16.7825
-50.526
-83.4108
-115.125
-145.434
-174.137
-201.083
-226.171
-249.339
-270.567
-289.859
-307.246
-322.773
-336.502
-348.492
-358.811
-367.53
-374.703
-380.374
-384.575
-387.325
-388.623
-388.531
-387.211
-384.557
-380.539
-375.137
-368.309
-360.017
-350.228
-338.928
-326.079
-311.653
-295.647
-278.053
-258.848
-238.097
-215.796
-192.048
-166.937
-140.514
-112.853
-83.121
-49.4948
-15.7402
18.1103
52.1726
86.2116
120.063
153.391
185.857
217.129
246.798
274.462
299.765
322.343
341.871
358.065
370.675
379.523
384.493
385.499
382.484
375.569
364.807
350.394
332.529
311.509
287.635
261.229
232.705
202.452
170.883
138.406
105.413
72.3094
39.4586
7.13806
-24.1122
-52.5973
-81.4043
-108.92
-134.902
-159.204
-181.742
-202.457
-221.321
-238.337
-253.513
-266.875
-278.465
-288.327
-296.52
-303.1
-308.13
-311.682
-313.828
-314.615
-313.743
-311.503
-307.959
-303.164
-297.159
-289.933
-281.472
162.322
194.831
226.628
257.222
286.21
313.034
337.3
358.593
376.574
390.976
401.565
408.15
410.613
408.59
402.353
392.084
377.897
359.997
338.657
314.189
286.986
257.411
225.868
192.825
158.702
123.948
88.9546
54.0915
19.8518
-11.8211
-43.9618
-74.984
-104.608
-132.66
-159.03
-183.635
-206.434
-227.411
-246.568
-263.925
-279.517
-293.387
-305.581
-316.15
-325.142
-332.604
-338.579
-343.102
-346.196
-347.874
-348.064
-346.827
-344.162
-340.02
-334.384
-327.221
-318.472
-308.092
-296.045
-282.282
-266.771
-249.494
-230.416
-209.549
-186.923
-162.581
-136.583
-109.039
-80.0705
-49.8277
-18.9044
11.9933
43.9725
76.4603
109.125
141.55
173.382
204.258
233.796
261.626
287.36
310.638
331.098
348.394
362.245
372.389
378.609
380.795
379.04
373.22
363.368
349.549
331.947
310.799
286.403
259.101
229.274
197.341
163.732
128.884
93.2624
57.316
21.4794
-13.8313
-48.246
-81.4329
-113.117
-143.079
-171.155
-197.238
-221.275
-243.251
-263.185
-281.122
-297.126
-311.268
-323.627
-334.283
-343.307
-350.771
-356.746
-361.297
-364.46
-366.286
-366.818
-366.079
-364.084
-360.841
-356.352
-350.611
-343.61
-335.327
-325.734
-314.799
-302.477
-288.719
-273.474
-256.688
-238.311
-218.3
-196.632
-173.3
-148.326
-121.766
-93.707
-64.2711
-33.6253
-2.04091
30.2382
62.9105
95.6311
128.02
159.67
190.158
219.046
245.899
270.284
291.798
310.064
324.75
335.575
342.32
344.833
343.012
336.908
326.607
312.242
294.06
272.365
247.504
219.887
189.951
158.137
124.91
90.735
56.0565
21.299
-13.155
-46.9575
-79.8036
-111.443
-141.684
-170.362
-197.363
-222.609
-246.062
-267.713
-287.579
-305.694
-322.105
-336.863
-350.02
-361.624
-371.72
-380.346
-387.533
-393.305
-397.679
-400.663
-402.262
-402.493
-401.363
-398.868
-395.005
-389.759
-383.109
-375.03
-365.488
-354.45
-341.882
-327.75
-312.028
-294.691
-275.727
-255.135
-232.922
-209.118
-183.769
-156.95
-128.744
-99.298
-68.7945
-37.4362
-5.45863
26.8665
59.2233
91.271
122.64
152.945
181.795
208.789
233.536
255.66
274.806
290.656
302.933
311.407
315.909
316.312
312.58
304.789
292.981
277.325
258.048
235.439
209.833
181.634
151.267
119.177
85.8385
51.7217
17.2815
-17.0477
-50.8665
-83.8133
-115.573
-145.917
-174.642
-201.6
-226.69
-249.854
-271.071
-290.348
-307.717
-323.223
-336.93
-348.9
-359.2
-367.9
-375.057
-380.715
-384.902
-387.643
-388.939
-388.844
-387.519
-384.866
-380.848
-375.449
-368.626
-360.339
-350.556
-339.262
-326.42
-312.002
-296.003
-278.414
-259.217
-238.466
-216.169
-192.417
-167.304
-140.883
-113.23
-83.4957
-49.7467
-15.9781
17.8924
51.9992
86.0968
120.022
153.435
185.997
217.371
247.146
274.914
300.319
322.991
342.603
358.87
371.536
380.426
385.417
386.427
383.397
376.441
365.632
351.153
333.209
312.098
288.125
261.614
232.982
202.622
170.95
138.375
105.292
72.108
39.1897
6.81402
-24.4587
-53.0434
-81.8697
-109.401
-135.393
-159.699
-182.236
-202.945
-221.8
-238.804
-253.966
-267.312
-278.885
-288.73
-296.904
-303.466
-308.48
-312.016
-314.147
-314.932
-314.039
-311.785
-308.232
-303.434
-297.428
-290.203
-281.748
162.297
194.922
226.845
257.567
286.684
313.633
338.019
359.422
377.5
391.984
402.634
409.26
411.744
409.721
403.454
393.124
378.858
360.864
339.415
314.824
287.494
257.786
226.111
192.939
158.695
123.83
88.7377
53.7836
19.4918
-12.2916
-44.4761
-75.5306
-105.177
-133.242
-159.616
-184.219
-207.009
-227.973
-247.114
-264.452
-280.024
-293.874
-306.049
-316.6
-325.575
-333.023
-338.985
-343.497
-346.583
-348.262
-348.454
-347.218
-344.561
-340.43
-334.805
-327.659
-318.926
-308.564
-296.534
-282.789
-267.292
-250.026
-230.957
-210.093
-187.466
-163.117
-137.103
-109.538
-80.5385
-50.2584
-19.2699
11.6797
43.7286
76.2957
109.051
141.574
173.51
204.498
234.148
262.094
287.945
311.337
331.905
349.299
363.236
373.442
379.702
381.902
380.162
374.329
364.428
350.54
332.85
311.597
287.083
259.652
229.691
197.623
163.878
128.899
93.1526
57.0901
21.1487
-14.2528
-48.7438
-81.9906
-113.718
-143.707
-171.796
-197.88
-221.907
-243.866
-263.776
-281.688
-297.664
-311.779
-324.112
-334.743
-343.742
-351.187
-357.144
-361.677
-364.828
-366.645
-367.17
-366.428
-364.432
-361.189
-356.704
-350.968
-343.974
-335.702
-326.122
-315.203
-302.899
-289.162
-273.938
-257.171
-238.813
-218.817
-197.161
-173.834
-148.857
-122.285
-94.2041
-64.7333
-34.0359
-2.39035
29.9639
62.7253
95.5487
128.052
159.825
190.443
219.466
246.454
270.971
292.608
310.986
325.768
336.667
343.462
345.998
344.179
338.046
327.684
313.238
294.954
273.14
248.148
220.393
190.317
158.363
125.002
90.7021
55.9087
21.0497
-13.4915
-47.3662
-80.269
-111.951
-142.222
-170.919
-197.927
-223.172
-246.616
-268.254
-288.102
-306.197
-322.587
-337.325
-350.464
-362.052
-372.134
-380.75
-387.928
-393.694
-398.062
-401.042
-402.64
-402.87
-401.74
-399.248
-395.391
-390.152
-383.512
-375.445
-365.916
-354.892
-342.337
-328.219
-312.509
-295.184
-276.229
-255.642
-233.432
-209.624
-184.267
-157.431
-129.201
-99.7171
-69.1661
-37.7498
-5.70171
26.7058
59.1555
91.3062
122.786
153.209
182.18
209.297
234.164
256.402
275.655
291.596
303.949
312.479
317.014
317.431
313.692
305.86
293.991
278.254
258.878
236.152
210.418
182.083
151.576
119.347
85.8738
51.6299
17.0733
-17.3588
-51.2656
-84.2848
-116.097
-146.481
-175.233
-202.204
-227.297
-250.455
-271.66
-290.919
-308.266
-323.748
-337.428
-349.376
-359.653
-368.332
-375.47
-381.112
-385.285
-388.015
-389.308
-389.207
-387.879
-385.226
-381.209
-375.814
-368.995
-360.715
-350.938
-339.652
-326.817
-312.408
-296.418
-278.835
-259.646
-238.897
-216.604
-192.848
-167.731
-141.312
-113.665
-83.9408
-50.0405
-16.2578
17.642
51.7955
85.961
119.972
153.486
186.159
217.652
247.551
275.442
300.964
323.747
343.458
359.809
372.542
381.479
386.496
387.51
384.462
377.462
366.595
352.04
334.002
312.786
288.696
262.063
233.305
202.821
171.027
138.339
105.149
71.8719
38.8743
6.43583
-24.8677
-53.5638
-82.413
-109.963
-135.967
-160.278
-182.813
-203.515
-222.36
-239.349
-254.494
-267.821
-279.375
-289.199
-297.353
-303.894
-308.888
-312.405
-314.519
-315.297
-314.383
-312.114
-308.551
-303.748
-297.741
-290.519
-282.069
162.266
195.026
227.093
257.961
287.226
314.318
338.84
360.371
378.56
393.137
403.859
410.53
413.035
411.011
404.711
394.312
379.958
361.855
340.281
315.551
288.075
258.213
226.387
193.069
158.686
123.693
88.4874
53.4313
19.0773
-12.8305
-45.0651
-76.1567
-105.828
-133.908
-160.287
-184.886
-207.666
-228.616
-247.737
-265.054
-280.604
-294.431
-306.584
-317.114
-326.07
-333.501
-339.449
-343.949
-347.027
-348.704
-348.898
-347.664
-345.016
-340.897
-335.286
-328.158
-319.446
-309.104
-297.093
-283.368
-267.888
-250.635
-231.576
-210.715
-188.087
-163.731
-137.698
-110.108
-81.0741
-50.7527
-19.6885
11.3194
43.4479
76.1061
108.966
141.6
173.655
204.77
234.55
262.629
288.613
312.137
332.827
350.335
364.369
374.647
380.955
383.171
381.447
375.597
365.64
351.674
333.882
312.509
287.859
260.282
230.168
197.944
164.044
128.915
93.0255
56.8299
20.7685
-14.7367
-49.3151
-82.6303
-114.407
-144.427
-172.53
-198.615
-222.63
-244.569
-264.453
-282.335
-298.28
-312.363
-324.666
-335.267
-344.241
-351.662
-357.598
-362.112
-365.248
-367.055
-367.572
-366.826
-364.828
-361.587
-357.105
-351.375
-344.39
-336.13
-326.565
-315.665
-303.382
-289.668
-274.467
-257.724
-239.387
-219.41
-197.767
-174.445
-149.466
-122.88
-94.7736
-65.2638
-34.5072
-2.79153
29.6485
62.5118
95.4526
128.086
160.001
190.768
219.945
247.088
271.756
293.535
312.042
326.932
337.917
344.771
347.333
345.515
339.347
328.917
314.377
295.976
274.026
248.884
220.971
190.734
158.621
125.107
90.6626
55.7379
20.7625
-13.8782
-47.8355
-80.8028
-112.534
-142.84
-171.557
-198.574
-223.817
-247.251
-268.872
-288.699
-306.771
-323.138
-337.853
-350.971
-362.54
-372.608
-381.211
-388.379
-394.138
-398.5
-401.475
-403.071
-403.301
-402.171
-399.683
-395.831
-390.601
-383.973
-375.919
-366.405
-355.396
-342.858
-328.756
-313.06
-295.747
-276.803
-256.223
-234.015
-210.204
-184.838
-157.983
-129.725
-100.197
-69.5926
-38.1098
-5.9811
26.5203
59.0765
91.345
122.952
153.509
182.62
209.877
234.882
257.252
276.625
292.672
305.112
313.706
318.28
318.712
314.963
307.086
295.148
279.318
259.827
236.967
211.088
182.597
151.929
119.54
85.9125
51.523
16.8333
-17.7166
-51.724
-84.826
-116.697
-147.127
-175.91
-202.896
-227.993
-251.144
-272.333
-291.571
-308.893
-324.348
-337.999
-349.919
-360.171
-368.825
-375.942
-381.566
-385.724
-388.442
-389.728
-389.621
-388.29
-385.637
-381.622
-376.231
-369.417
-361.144
-351.375
-340.098
-327.271
-312.873
-296.892
-279.317
-260.137
-239.39
-217.1
-193.343
-168.217
-141.8
-114.156
-84.459
-50.3762
-16.5797
17.351
51.5601
85.8035
119.913
153.542
186.343
217.973
248.013
276.045
301.703
324.612
344.437
360.884
373.693
382.684
387.731
388.749
385.68
378.631
367.698
353.054
334.91
313.572
289.349
262.575
233.674
203.047
171.114
138.295
104.985
71.6004
38.5116
6.00312
-25.341
-54.1582
-83.0343
-110.606
-136.623
-160.94
-183.473
-204.168
-222.999
-239.972
-255.098
-268.404
-279.935
-289.735
-297.865
-304.383
-309.353
-312.849
-314.943
-315.705
-314.774
-312.489
-308.915
-304.106
-298.098
-290.879
-282.437
162.229
195.14
227.369
258.403
287.835
315.089
339.764
361.438
379.754
394.436
405.239
411.962
414.487
412.464
406.124
395.651
381.196
362.972
341.256
316.369
288.727
258.693
226.697
193.213
158.674
123.537
88.2032
53.034
18.6065
-13.4385
-45.7293
-76.8628
-106.563
-134.659
-161.043
-185.639
-208.407
-229.339
-248.44
-265.733
-281.257
-295.058
-307.186
-317.692
-326.627
-334.039
-339.97
-344.458
-347.526
-349.2
-349.396
-348.166
-345.528
-341.423
-335.827
-328.719
-320.03
-309.711
-297.723
-284.02
-268.559
-251.321
-232.273
-211.416
-188.787
-164.422
-138.368
-110.752
-81.6775
-51.3111
-20.1609
10.9115
43.1297
75.8911
108.868
141.628
173.818
205.076
235
263.23
289.364
313.037
333.866
351.502
365.646
376.005
382.367
384.604
382.895
377.025
367.007
352.952
335.045
313.536
288.733
260.99
230.704
198.304
164.229
128.931
92.8804
56.5346
20.3382
-15.2841
-49.9607
-83.353
-115.185
-145.24
-173.359
-199.443
-223.446
-245.361
-265.215
-283.063
-298.973
-313.02
-325.289
-335.858
-344.801
-352.197
-358.109
-362.601
-365.721
-367.515
-368.025
-367.273
-365.274
-362.034
-357.556
-351.833
-344.858
-336.611
-327.064
-316.184
-303.926
-290.237
-275.063
-258.347
-240.034
-220.077
-198.449
-175.134
-150.152
-123.551
-95.4163
-65.8634
-35.0397
-3.24538
29.2909
62.2691
95.3423
128.122
160.196
191.133
220.484
247.801
272.639
294.579
313.23
328.244
339.325
346.245
348.839
347.02
340.813
330.307
315.661
297.128
275.023
249.712
221.622
191.202
158.908
125.222
90.6159
55.5432
20.4368
-14.316
-48.3664
-81.4058
-113.193
-143.536
-172.276
-199.302
-224.544
-247.966
-269.569
-289.372
-307.418
-323.759
-338.448
-351.542
-363.09
-373.14
-381.729
-388.887
-394.637
-398.992
-401.963
-403.557
-403.785
-402.656
-400.171
-396.327
-391.107
-384.492
-376.452
-366.956
-355.965
-343.444
-329.359
-313.68
-296.382
-277.449
-256.877
-234.671
-210.858
-185.481
-158.605
-130.316
-100.739
-70.0746
-38.517
-6.29751
26.3096
58.9857
91.3866
123.137
153.846