/*--------------------------------*- C++ -*----------------------------------*\
| =========                 |                                                 |
| \\      /  F ield         | OpenFOAM: The Open Source CFD Toolbox           |
|  \\    /   O peration     | Version:  3.0.1                                 |
|   \\  /    A nd           | Web:      www.OpenFOAM.org                      |
|    \\/     M anipulation  |                                                 |
\*---------------------------------------------------------------------------*/
FoamFile
{
    version     2.0;
    format      ascii;
    class       surfaceScalarField;
    location    "66.4";
    object      phi;
}
// * * * * * * * * * * * * * * * * * * * * * * * * * * * * * * * * * * * * * //

dimensions      [0 3 -1 0 0 0 0];

internalField   nonuniform List<scalar> 
42423
(
0.000139049
1.66384e-05
0.000121975
1.70744e-05
0.000104354
1.76208e-05
8.63632e-05
1.79907e-05
6.84208e-05
1.79424e-05
5.0539e-05
1.78818e-05
3.29553e-05
1.75837e-05
1.5792e-05
1.71633e-05
-8.11124e-07
1.66032e-05
-1.67118e-05
1.59007e-05
-3.18305e-05
1.51187e-05
-4.60803e-05
1.42498e-05
-5.94221e-05
1.33418e-05
-7.18498e-05
1.24277e-05
-8.33377e-05
1.14879e-05
-9.39208e-05
1.05831e-05
-0.000103587
9.66608e-06
-0.000112352
8.76504e-06
-0.000120258
7.90593e-06
-0.000127316
7.05867e-06
-0.000133549
6.23281e-06
-0.000138993
5.44362e-06
-0.000143677
4.68413e-06
-0.00014762
3.94261e-06
-0.00015087
3.24992e-06
-0.00015342
2.55074e-06
-0.000155305
1.88456e-06
-0.000156552
1.24719e-06
-0.000157172
6.1988e-07
-0.000157123
-4.91273e-08
-0.000156404
-7.19292e-07
-0.000154967
-1.43687e-06
-0.000152878
-2.08881e-06
-0.000149998
-2.87999e-06
-0.00014643
-3.56822e-06
-0.000142168
-4.26181e-06
-0.000137044
-5.12404e-06
-0.000131108
-5.936e-06
-0.00012446
-6.64743e-06
-0.000116795
-7.66584e-06
-0.000108303
-8.49199e-06
-9.87533e-05
-9.54939e-06
-8.83268e-05
-1.04264e-05
-7.70346e-05
-1.12923e-05
-6.47418e-05
-1.22928e-05
-5.15265e-05
-1.32153e-05
-3.74392e-05
-1.40873e-05
-2.23965e-05
-1.50427e-05
-6.53974e-06
-1.58568e-05
9.83502e-06
-1.63748e-05
2.69078e-05
-1.70728e-05
4.44198e-05
-1.75121e-05
6.22923e-05
-1.78725e-05
8.04248e-05
-1.81326e-05
9.84224e-05
-1.79976e-05
0.000116173
-1.77511e-05
0.000133556
-1.73831e-05
0.000150177
-1.66204e-05
0.000165936
-1.57589e-05
0.00018059
-1.4654e-05
0.000193931
-1.33414e-05
0.000205775
-1.18438e-05
0.000215862
-1.00867e-05
0.000224117
-8.256e-06
0.000230388
-6.27026e-06
0.000234443
-4.05569e-06
0.000236314
-1.87051e-06
0.000235878
4.3606e-07
0.000233185
2.69245e-06
0.00022825
4.93541e-06
0.000221222
7.02751e-06
0.000212125
9.0974e-06
0.000201018
1.1107e-05
0.000188244
1.27736e-05
0.000173838
1.44066e-05
0.00015816
1.56777e-05
0.000141305
1.68545e-05
0.000123615
1.76908e-05
0.000105232
1.83826e-05
8.65228e-05
1.87092e-05
6.75538e-05
1.8969e-05
4.86457e-05
1.89081e-05
3.00543e-05
1.85914e-05
1.17681e-05
1.82862e-05
-5.84591e-06
1.7614e-05
-2.27323e-05
1.68864e-05
-3.8697e-05
1.59647e-05
-5.37005e-05
1.50034e-05
-6.76918e-05
1.39913e-05
-8.06439e-05
1.29521e-05
-9.26036e-05
1.19597e-05
-0.000103524
1.09208e-05
-0.000113457
9.93294e-06
-0.000122431
8.97376e-06
-0.00013037
7.93855e-06
-0.000137398
7.02818e-06
-0.000143512
6.1146e-06
-0.000148669
5.1569e-06
-0.000152959
4.28931e-06
-0.0001564
3.44123e-06
-0.000159024
2.62457e-06
-0.000160847
1.82271e-06
-0.000161906
1.05884e-06
-0.00016234
4.3363e-07
-0.000162044
-2.96118e-07
-0.000161074
-9.69641e-07
-0.000159418
-1.65579e-06
-0.000157115
-2.3032e-06
-0.000154119
-2.99638e-06
-0.00015041
-3.70889e-06
-0.000146007
-4.40279e-06
-0.000140837
-5.17007e-06
-0.000135
-5.83718e-06
-0.00012837
-6.62949e-06
-0.000120977
-7.39293e-06
-0.000112843
-8.134e-06
-0.000103904
-8.93943e-06
-9.41544e-05
-9.74949e-06
-8.36154e-05
-1.0539e-05
-7.22944e-05
-1.1321e-05
-6.01732e-05
-1.21212e-05
-4.72688e-05
-1.29045e-05
-3.36008e-05
-1.3668e-05
-1.92032e-05
-1.43977e-05
-4.1438e-06
-1.50594e-05
1.14678e-05
-1.56116e-05
2.76746e-05
-1.62069e-05
4.42725e-05
-1.65979e-05
6.11789e-05
-1.69064e-05
7.82259e-05
-1.70471e-05
9.52483e-05
-1.70224e-05
0.000112039
-1.67913e-05
0.000128368
-1.63287e-05
0.000144037
-1.56687e-05
0.0001587
-1.4663e-05
0.000172206
-1.35064e-05
0.000184262
-1.20559e-05
0.000194598
-1.03363e-05
0.000203075
-8.47645e-06
0.000209404
-6.32949e-06
0.000213531
-4.12692e-06
0.000215223
-1.69235e-06
0.000214563
6.60002e-07
0.000211392
3.17164e-06
0.000205763
5.62859e-06
0.000197803
7.95989e-06
0.00018763
1.01732e-05
0.000175443
1.21864e-05
0.00016139
1.40531e-05
0.000145785
1.56057e-05
0.000128847
1.69379e-05
0.000110883
1.79633e-05
9.21339e-05
1.87495e-05
7.29307e-05
1.92032e-05
5.3554e-05
1.93767e-05
3.42195e-05
1.93345e-05
1.51996e-05
1.90199e-05
-3.31488e-06
1.85145e-05
-2.11895e-05
1.78746e-05
-3.82255e-05
1.7036e-05
-5.43451e-05
1.61196e-05
-6.945e-05
1.5105e-05
-8.34694e-05
1.40194e-05
-9.63811e-05
1.29117e-05
-0.000108253
1.18716e-05
-0.000119015
1.07626e-05
-0.000128727
9.71182e-06
-0.00013742
8.69329e-06
-0.000145139
7.71886e-06
-0.000151923
6.78396e-06
-0.000157795
5.8722e-06
-0.000162879
5.08336e-06
-0.000167137
4.25853e-06
-0.00017064
3.50263e-06
-0.000173434
2.79396e-06
-0.000175564
2.13002e-06
-0.000176979
1.41546e-06
-0.000177721
7.41866e-07
-0.000177883
1.6176e-07
-0.00017739
-4.93488e-07
-0.000176274
-1.11581e-06
-0.000174575
-1.69834e-06
-0.000172304
-2.27127e-06
-0.000169456
-2.84777e-06
-0.000166005
-3.45172e-06
-0.000161949
-4.05612e-06
-0.0001573
-4.64834e-06
-0.000151956
-5.3445e-06
-0.000145916
-6.03939e-06
-0.000139195
-6.72174e-06
-0.000131615
-7.5797e-06
-0.000123123
-8.49222e-06
-0.000113746
-9.3773e-06
-0.000103433
-1.03121e-05
-9.21923e-05
-1.12411e-05
-8.01301e-05
-1.20622e-05
-6.72799e-05
-1.28503e-05
-5.36986e-05
-1.35813e-05
-3.9447e-05
-1.42517e-05
-2.4561e-05
-1.4886e-05
-9.11579e-06
-1.54453e-05
6.83964e-06
-1.59555e-05
2.31847e-05
-1.63451e-05
3.98214e-05
-1.66367e-05
5.6562e-05
-1.67407e-05
7.31938e-05
-1.66319e-05
8.94889e-05
-1.62951e-05
0.000105225
-1.57363e-05
0.000120181
-1.49558e-05
0.000134082
-1.39012e-05
0.000146719
-1.26367e-05
0.000157815
-1.10958e-05
0.000167171
-9.35629e-06
0.000174596
-7.42548e-06
0.000179921
-5.32479e-06
0.000182953
-3.03151e-06
0.000183678
-7.25918e-07
0.000182037
1.64147e-06
0.000177986
4.05125e-06
0.000171621
6.36494e-06
0.000162992
8.6288e-06
0.000152321
1.06707e-05
0.000139782
1.25389e-05
0.000125658
1.4124e-05
0.000110176
1.54818e-05
9.36581e-05
1.65183e-05
7.63318e-05
1.73263e-05
5.85144e-05
1.78175e-05
4.04482e-05
1.80661e-05
2.23823e-05
1.80659e-05
4.51966e-06
1.78626e-05
-1.29382e-05
1.74579e-05
-2.98404e-05
1.69021e-05
-4.60383e-05
1.61979e-05
-6.14285e-05
1.53902e-05
-7.59719e-05
1.45434e-05
-8.95838e-05
1.36119e-05
-0.000102245
1.26612e-05
-0.000113916
1.16706e-05
-0.00012459
1.06745e-05
-0.000134282
9.69143e-06
-0.000142995
8.71388e-06
-0.000150754
7.75844e-06
-0.000157627
6.87352e-06
-0.000163548
5.92093e-06
-0.000168656
5.1073e-06
-0.000173007
4.35108e-06
-0.000176748
3.74108e-06
-0.000179847
3.09909e-06
-0.000182521
2.67454e-06
-0.00018463
2.10874e-06
-0.000186249
1.61862e-06
-0.000187353
1.10389e-06
-0.00018788
5.27431e-07
-0.0001878
-8.04699e-08
-0.000187082
-7.17544e-07
-0.000185742
-1.34043e-06
-0.000183785
-1.95707e-06
-0.000181195
-2.58965e-06
-0.000177994
-3.20083e-06
-0.000174167
-3.82746e-06
-0.000169699
-4.46725e-06
-0.000164624
-5.07535e-06
-0.000158899
-5.72555e-06
-0.000152504
-6.39458e-06
-0.000145372
-7.13166e-06
-0.000137434
-7.93794e-06
-0.000128909
-8.52546e-06
-0.000119576
-9.33288e-06
-0.000109396
-1.01801e-05
-9.84044e-05
-1.09917e-05
-8.66514e-05
-1.17531e-05
-7.41246e-05
-1.25268e-05
-6.07539e-05
-1.33707e-05
-4.65244e-05
-1.42296e-05
-3.15545e-05
-1.497e-05
-1.57548e-05
-1.57997e-05
6.02507e-07
-1.63574e-05
1.77099e-05
-1.71074e-05
3.54177e-05
-1.77078e-05
5.34293e-05
-1.80116e-05
7.16631e-05
-1.82339e-05
8.98863e-05
-1.82231e-05
0.000107712
-1.78258e-05
0.000124833
-1.71215e-05
0.000140876
-1.60429e-05
0.000155509
-1.46325e-05
0.000168389
-1.28799e-05
0.000179171
-1.07822e-05
0.000187737
-8.56588e-06
0.000193771
-6.03448e-06
0.000197057
-3.28597e-06
0.000197714
-6.56528e-07
0.000195441
2.27284e-06
0.000190287
5.15378e-06
0.000182641
7.64568e-06
0.000172612
1.00295e-05
0.00016058
1.20319e-05
0.000146786
1.37939e-05
0.000131495
1.52904e-05
0.000115217
1.62785e-05
9.80727e-05
1.71443e-05
8.04461e-05
1.76265e-05
6.26917e-05
1.77544e-05
4.49566e-05
1.77351e-05
2.75049e-05
1.74516e-05
1.04949e-05
1.70101e-05
-5.82351e-06
1.63184e-05
-2.13677e-05
1.55442e-05
-3.60837e-05
1.4716e-05
-4.98971e-05
1.38134e-05
-6.27754e-05
1.28783e-05
-7.47478e-05
1.19724e-05
-8.58271e-05
1.10792e-05
-9.60297e-05
1.02026e-05
-0.000105413
9.38289e-06
-0.000114019
8.60676e-06
-0.000121918
7.89883e-06
-0.000129151
7.23294e-06
-0.000135739
6.58825e-06
-0.000141738
5.99882e-06
-0.000147139
5.40132e-06
-0.000151971
4.83145e-06
-0.000156224
4.2535e-06
-0.000159896
3.6712e-06
-0.000162977
3.08179e-06
-0.000165422
2.44436e-06
-0.000167219
1.7968e-06
-0.000168323
1.10418e-06
-0.000168727
4.03769e-07
-0.00016828
-4.46612e-07
-0.000166992
-1.28836e-06
-0.000164873
-2.11816e-06
-0.000161818
-3.05509e-06
-0.000157875
-3.94376e-06
-0.00015295
-4.92468e-06
-0.000147143
-5.80644e-06
-0.000140423
-6.72015e-06
-0.000132697
-7.72629e-06
-0.000124093
-8.60427e-06
-0.00011458
-9.51294e-06
-0.000104156
-1.04236e-05
-9.29268e-05
-1.12295e-05
-8.08629e-05
-1.20639e-05
-6.80667e-05
-1.27963e-05
-5.46158e-05
-1.34509e-05
-4.04293e-05
-1.41864e-05
-2.56262e-05
-1.48031e-05
-1.03735e-05
-1.52528e-05
5.42016e-06
-1.57937e-05
2.14089e-05
-1.59888e-05
3.76388e-05
-1.62299e-05
5.38276e-05
-1.61888e-05
6.97654e-05
-1.59378e-05
8.54639e-05
-1.56985e-05
0.000100649
-1.51849e-05
-1.46254e-05
0.000139077
3.32841e-05
0.000121995
3.41561e-05
0.000104366
3.52493e-05
8.63681e-05
3.59891e-05
6.84189e-05
3.58915e-05
5.0528e-05
3.57728e-05
3.29376e-05
3.51741e-05
1.57684e-05
3.43324e-05
-8.38938e-07
3.32105e-05
-1.67422e-05
3.1804e-05
-3.18638e-05
3.02403e-05
-4.61164e-05
2.85024e-05
-5.94601e-05
2.66855e-05
-7.18905e-05
2.48581e-05
-8.33793e-05
2.29767e-05
-9.39647e-05
2.11686e-05
-0.000103631
1.93327e-05
-0.000112396
1.753e-05
-0.000120302
1.5812e-05
-0.000127365
1.41212e-05
-0.000133596
1.24643e-05
-0.000139039
1.08863e-05
-0.000143726
9.37128e-06
-0.000147666
7.88247e-06
-0.000150913
6.49667e-06
-0.000153466
5.10378e-06
-0.000155356
3.7748e-06
-0.000156601
2.49145e-06
-0.000157214
1.23383e-06
-0.000157162
-1.01758e-07
-0.000156446
-1.43499e-06
-0.00015501
-2.87281e-06
-0.000152921
-4.17773e-06
-0.000150047
-5.75411e-06
-0.000146478
-7.13695e-06
-0.000142217
-8.52313e-06
-0.000137094
-1.02475e-05
-0.000131161
-1.18691e-05
-0.000124515
-1.32933e-05
-0.000116849
-1.53318e-05
-0.000108359
-1.69822e-05
-9.88089e-05
-1.90992e-05
-8.83784e-05
-2.08569e-05
-7.70863e-05
-2.25844e-05
-6.47899e-05
-2.45893e-05
-5.15593e-05
-2.6446e-05
-3.74877e-05
-2.81589e-05
-2.24421e-05
-3.00885e-05
-6.57812e-06
-3.17208e-05
9.79907e-06
-3.2752e-05
2.68782e-05
-3.4152e-05
4.44022e-05
-3.50361e-05
6.22843e-05
-3.57547e-05
8.04267e-05
-3.62751e-05
9.84282e-05
-3.59991e-05
0.000116189
-3.5512e-05
0.000133592
-3.47865e-05
0.000150221
-3.32488e-05
0.000165991
-3.15294e-05
0.000180649
-2.93121e-05
0.000194004
-2.66965e-05
0.000205864
-2.37041e-05
0.000215955
-2.01775e-05
0.000224212
-1.65124e-05
0.00023049
-1.25486e-05
0.00023456
-8.12543e-06
0.000236433
-3.74433e-06
0.000235988
8.81103e-07
0.000233294
5.38644e-06
0.000228363
9.8662e-06
0.000221332
1.40588e-05
0.000212223
1.82067e-05
0.000201109
2.22211e-05
0.000188329
2.55534e-05
0.000173905
2.88305e-05
0.000158208
3.13741e-05
0.00014135
3.37133e-05
0.000123646
3.53948e-05
0.000105255
3.67736e-05
8.65291e-05
3.74347e-05
6.75483e-05
3.79499e-05
4.86374e-05
3.7819e-05
3.00284e-05
3.72004e-05
1.17408e-05
3.65738e-05
-5.88239e-06
3.52372e-05
-2.27673e-05
3.37713e-05
-3.87304e-05
3.19279e-05
-5.37357e-05
3.00087e-05
-6.77352e-05
2.79908e-05
-8.06852e-05
2.59021e-05
-9.26351e-05
2.39096e-05
-0.00010355
2.18362e-05
-0.000113489
1.98717e-05
-0.000122474
1.79584e-05
-0.000130418
1.58822e-05
-0.000137447
1.40582e-05
-0.00014357
1.22375e-05
-0.000148734
1.03203e-05
-0.000153026
8.58182e-06
-0.000156473
6.88815e-06
-0.000159099
5.24994e-06
-0.00016092
3.64379e-06
-0.000161991
2.12997e-06
-0.000162419
8.61544e-07
-0.000162124
-5.91413e-07
-0.000161152
-1.94104e-06
-0.000159502
-3.30622e-06
-0.000157198
-4.60745e-06
-0.000154191
-6.00281e-06
-0.000150485
-7.41513e-06
-0.000146084
-8.80328e-06
-0.000140919
-1.03354e-05
-0.000135075
-1.16812e-05
-0.000128457
-1.32481e-05
-0.000121064
-1.47851e-05
-0.000112921
-1.62777e-05
-0.000103981
-1.78794e-05
-9.42313e-05
-1.94991e-05
-8.36956e-05
-2.10747e-05
-7.23781e-05
-2.26386e-05
-6.02528e-05
-2.42465e-05
-4.73532e-05
-2.58042e-05
-3.36945e-05
-2.73268e-05
-1.93033e-05
-2.8789e-05
-4.24877e-06
-3.0114e-05
1.13816e-05
-3.1242e-05
2.75924e-05
-3.24177e-05
4.41917e-05
-3.31973e-05
6.11189e-05
-3.38337e-05
7.81532e-05
-3.40815e-05
9.51784e-05
-3.40477e-05
0.000111973
-3.35863e-05
0.000128308
-3.26636e-05
0.000143971
-3.13319e-05
0.000158654
-2.93452e-05
0.00017216
-2.70131e-05
0.000184221
-2.41172e-05
0.00019456
-2.06749e-05
0.000203035
-1.69512e-05
0.000209378
-1.26729e-05
0.000213506
-8.25533e-06
0.000215209
-3.39487e-06
0.000214542
1.3264e-06
0.00021135
6.36429e-06
0.000205731
1.12475e-05
0.000197762
1.59285e-05
0.000187597
2.03385e-05
0.000175402
2.43811e-05
0.00016133
2.81253e-05
0.000145704
3.12311e-05
0.000128765
3.38775e-05
0.000110806
3.59221e-05
9.20362e-05
3.7519e-05
7.28285e-05
3.84108e-05
5.34412e-05
3.8764e-05
3.41173e-05
3.86583e-05
1.50861e-05
3.80511e-05
-3.42764e-06
3.70283e-05
-2.13033e-05
3.57502e-05
-3.83532e-05
3.40859e-05
-5.4478e-05
3.22443e-05
-6.95843e-05
3.02113e-05
-8.36072e-05
2.80424e-05
-9.65208e-05
2.58253e-05
-0.000108385
2.37355e-05
-0.000119139
2.15172e-05
-0.000128859
1.94313e-05
-0.000137549
1.73839e-05
-0.000145261
1.54308e-05
-0.000152037
1.35592e-05
-0.000157918
1.17533e-05
-0.000162988
1.01531e-05
-0.000167243
8.5143e-06
-0.000170743
7.00223e-06
-0.000173543
5.59402e-06
-0.000175667
4.25385e-06
-0.000177077
2.82531e-06
-0.000177817
1.48205e-06
-0.000177982
3.26981e-07
-0.000177483
-9.9258e-07
-0.000176362
-2.23686e-06
-0.000174665
-3.39528e-06
-0.000172388
-4.5488e-06
-0.000169544
-5.69084e-06
-0.000166099
-6.89715e-06
-0.000162036
-8.11956e-06
-0.000157388
-9.29601e-06
-0.000152057
-1.06752e-05
-0.000146043
-1.20538e-05
-0.000139302
-1.34622e-05
-0.000131722
-1.51606e-05
-0.000123233
-1.69804e-05
-0.000113855
-1.87556e-05
-0.000103548
-2.06191e-05
-9.23065e-05
-2.2483e-05
-8.02436e-05
-2.41252e-05
-6.73779e-05
-2.57161e-05
-5.38101e-05
-2.71491e-05
-3.9561e-05
-2.85008e-05
-2.46762e-05
-2.97709e-05
-9.23276e-06
-3.08888e-05
6.71943e-06
-3.19077e-05
2.30675e-05
-3.26932e-05
3.97092e-05
-3.32785e-05
5.64604e-05
-3.34919e-05
7.31173e-05
-3.32889e-05
8.94074e-05
-3.25853e-05
0.000105143
-3.14721e-05
0.000120096
-2.99089e-05
0.000134007
-2.78118e-05
0.000146649
-2.52791e-05
0.000157767
-2.22136e-05
0.000167123
-1.87125e-05
0.000174558
-1.48603e-05
0.000179885
-1.06522e-05
0.000182923
-6.07002e-06
0.000183654
-1.45687e-06
0.000182011
3.28461e-06
0.000177957
8.10533e-06
0.000171585
1.27371e-05
0.000162955
1.7259e-05
0.000152277
2.13486e-05
0.000139735
2.50807e-05
0.000125606
2.82526e-05
0.000110118
3.09695e-05
9.35828e-05
3.30538e-05
7.62507e-05
3.46584e-05
5.84254e-05
3.56428e-05
4.03577e-05
3.61338e-05
2.22823e-05
3.61413e-05
4.42548e-06
3.57195e-05
-1.30449e-05
3.49283e-05
-2.99542e-05
3.38114e-05
-4.616e-05
3.24038e-05
-6.15489e-05
3.07791e-05
-7.60731e-05
2.90677e-05
-8.97125e-05
2.72512e-05
-0.000102367
2.53154e-05
-0.000114037
2.33413e-05
-0.000124714
2.13511e-05
-0.000134408
1.93859e-05
-0.000143116
1.7421e-05
-0.000150872
1.55144e-05
-0.000157741
1.37429e-05
-0.000163669
1.18485e-05
-0.000168778
1.02169e-05
-0.000173116
8.68903e-06
-0.000176859
7.48418e-06
-0.000179959
6.19839e-06
-0.000182628
5.34419e-06
-0.000184746
4.2265e-06
-0.00018635
3.22243e-06
-0.000187478
2.23217e-06
-0.000188004
1.05289e-06
-0.000187921
-1.62709e-07
-0.000187212
-1.42701e-06
-0.000185863
-2.68935e-06
-0.0001839
-3.92013e-06
-0.000181309
-5.18022e-06
-0.000178102
-6.40772e-06
-0.000174268
-7.66172e-06
-0.000169796
-8.93934e-06
-0.000164717
-1.01542e-05
-0.000158987
-1.14559e-05
-0.000152583
-1.27987e-05
-0.000145449
-1.42657e-05
-0.000137525
-1.58622e-05
-0.000128968
-1.70825e-05
-0.000119636
-1.86642e-05
-0.000109458
-2.03581e-05
-9.84626e-05
-2.19875e-05
-8.67008e-05
-2.35149e-05
-7.41745e-05
-2.50531e-05
-6.0797e-05
-2.67482e-05
-4.65667e-05
-2.846e-05
-3.15966e-05
-2.99401e-05
-1.57839e-05
-3.16124e-05
5.70088e-07
-3.27114e-05
1.76831e-05
-3.42205e-05
3.53953e-05
-3.54202e-05
5.34149e-05
-3.60313e-05
7.16661e-05
-3.64851e-05
8.99067e-05
-3.64639e-05
0.000107749
-3.56678e-05
0.000124889
-3.42623e-05
0.000140946
-3.20993e-05
0.000155598
-2.92843e-05
0.000168497
-2.57798e-05
0.000179288
-2.1573e-05
0.000187866
-1.71436e-05
0.000193911
-1.20801e-05
0.000197199
-6.57345e-06
0.000197857
-1.31429e-06
0.00019557
4.55978e-06
0.000190412
1.03117e-05
0.000182758
1.52994e-05
0.000172717
2.00702e-05
0.000160674
2.40752e-05
0.000146864
2.76036e-05
0.00013156
3.05944e-05
0.000115268
3.25704e-05
9.8108e-05
3.43044e-05
8.04736e-05
3.52609e-05
6.27027e-05
3.55253e-05
4.49566e-05
3.54812e-05
2.74876e-05
3.49206e-05
1.04731e-05
3.40246e-05
-5.84841e-06
3.26398e-05
-2.13986e-05
3.10943e-05
-3.61182e-05
2.94356e-05
-4.99355e-05
2.76307e-05
-6.28164e-05
2.57592e-05
-7.47901e-05
2.3946e-05
-8.58687e-05
2.21578e-05
-9.60686e-05
2.04026e-05
-0.000105451
1.87653e-05
-0.000114058
1.72141e-05
-0.000121958
1.57989e-05
-0.00012919
1.44642e-05
-0.000135777
1.31753e-05
-0.000141771
1.19934e-05
-0.000147179
1.0809e-05
-0.000152014
9.66636e-06
-0.000156271
8.51111e-06
-0.000159942
7.34139e-06
-0.000163021
6.16153e-06
-0.000165469
4.89203e-06
-0.000167268
3.59613e-06
-0.000168374
2.2093e-06
-0.000168777
8.07086e-07
-0.000168333
-8.90271e-07
-0.000167046
-2.57552e-06
-0.00016493
-4.23437e-06
-0.000161873
-6.1121e-06
-0.000157929
-7.88738e-06
-0.000153008
-9.84579e-06
-0.0001472
-1.16148e-05
-0.000140476
-1.34434e-05
-0.000132749
-1.54536e-05
-0.000124142
-1.72112e-05
-0.000114629
-1.90264e-05
-0.000104202
-2.08502e-05
-9.29664e-05
-2.24653e-05
-8.09028e-05
-2.41275e-05
-6.81009e-05
-2.55982e-05
-5.46478e-05
-2.6904e-05
-4.04548e-05
-2.83794e-05
-2.56474e-05
-2.96106e-05
-1.03891e-05
-3.05111e-05
5.40378e-06
-3.15866e-05
2.13934e-05
-3.19784e-05
3.76299e-05
-3.24664e-05
5.38274e-05
-3.23864e-05
6.97725e-05
-3.18829e-05
8.54788e-05
-3.14048e-05
0.000100674
-3.03799e-05
-2.92587e-05
0.000139129
4.99478e-05
0.00012203
5.12551e-05
0.000104385
5.28945e-05
8.6371e-05
5.40029e-05
6.84086e-05
5.38539e-05
5.05001e-05
5.36813e-05
3.28976e-05
5.27766e-05
1.57184e-05
5.15117e-05
-8.98674e-07
4.98276e-05
-1.68093e-05
4.77146e-05
-3.19365e-05
4.53675e-05
-4.61923e-05
4.27581e-05
-5.95391e-05
4.00322e-05
-7.19699e-05
3.72889e-05
-8.34612e-05
3.4468e-05
-9.40468e-05
3.17542e-05
-0.000103713
2.8999e-05
-0.000112477
2.62938e-05
-0.000120383
2.37179e-05
-0.000127445
2.11834e-05
-0.000133675
1.86947e-05
-0.000139118
1.6329e-05
-0.000143801
1.40547e-05
-0.000147743
1.18238e-05
-0.000150993
9.74673e-06
-0.000153544
7.6545e-06
-0.000155431
5.66236e-06
-0.000156673
3.73352e-06
-0.000157282
1.84317e-06
-0.000157217
-1.66812e-07
-0.000156498
-2.15483e-06
-0.000155062
-4.30816e-06
-0.000152977
-6.2633e-06
-0.000150113
-8.6178e-06
-0.000146539
-1.07113e-05
-0.000142278
-1.27835e-05
-0.000137158
-1.53674e-05
-0.000131229
-1.77982e-05
-0.000124582
-1.99401e-05
-0.00011692
-2.29945e-05
-0.000108433
-2.54687e-05
-9.88845e-05
-2.86481e-05
-8.84521e-05
-3.12893e-05
-7.71619e-05
-3.38747e-05
-6.48603e-05
-3.68909e-05
-5.1617e-05
-3.96893e-05
-3.75621e-05
-4.22138e-05
-2.25118e-05
-4.51388e-05
-6.63582e-06
-4.75968e-05
9.74838e-06
-4.91363e-05
2.68357e-05
-5.12394e-05
4.43675e-05
-5.2568e-05
6.2271e-05
-5.36583e-05
8.04247e-05
-5.44288e-05
9.84397e-05
-5.40142e-05
0.000116212
-5.32841e-05
0.000133636
-5.22112e-05
0.00015028
-4.9893e-05
0.000166064
-4.73128e-05
0.000180741
-4.39893e-05
0.000194114
-4.00698e-05
0.000205986
-3.55758e-05
0.000216087
-3.02792e-05
0.000224354
-2.47787e-05
0.000230636
-1.88315e-05
0.000234718
-1.22073e-05
0.000236603
-5.62939e-06
0.000236145
1.33941e-06
0.000233451
8.08081e-06
0.000228532
1.47851e-05
0.000221494
2.10963e-05
0.000212365
2.73358e-05
0.000201242
3.33446e-05
0.000188455
3.83402e-05
0.000174004
4.32814e-05
0.000158278
4.70996e-05
0.000141412
5.05791e-05
0.000123691
5.31159e-05
0.000105285
5.51797e-05
8.6536e-05
5.6184e-05
6.75374e-05
5.69484e-05
4.86213e-05
5.67351e-05
2.99779e-05
5.58438e-05
1.16846e-05
5.48671e-05
-5.94718e-06
5.2869e-05
-2.28427e-05
5.06668e-05
-3.88305e-05
4.79157e-05
-5.38379e-05
4.50161e-05
-6.78406e-05
4.19935e-05
-8.07913e-05
3.88528e-05
-9.27371e-05
3.58553e-05
-0.000103665
3.27644e-05
-0.000113619
2.98255e-05
-0.000122606
2.69454e-05
-0.000130573
2.38491e-05
-0.000137604
2.1089e-05
-0.000143745
1.83789e-05
-0.000148916
1.54911e-05
-0.0001532
1.28663e-05
-0.000156663
1.03507e-05
-0.000159288
7.87523e-06
-0.000161114
5.46924e-06
-0.000162216
3.23237e-06
-0.000162617
1.26251e-06
-0.000162325
-8.83244e-07
-0.000161355
-2.91167e-06
-0.000159705
-4.95624e-06
-0.000157398
-6.91442e-06
-0.000154394
-9.00659e-06
-0.000150693
-1.11158e-05
-0.000146289
-1.32072e-05
-0.00014115
-1.54748e-05
-0.000135273
-1.75581e-05
-0.000128667
-1.98541e-05
-0.000121281
-2.21716e-05
-0.000113124
-2.44341e-05
-0.000104189
-2.68143e-05
-9.44513e-05
-2.92373e-05
-8.38988e-05
-3.16273e-05
-7.25856e-05
-3.39518e-05
-6.04651e-05
-3.63671e-05
-4.756e-05
-3.87093e-05
-3.39029e-05
-4.0984e-05
-1.9516e-05
-4.31759e-05
-4.46325e-06
-4.51668e-05
1.11996e-05
-4.6905e-05
2.74027e-05
-4.86209e-05
4.40269e-05
-4.98216e-05
6.09424e-05
-5.07492e-05
7.8018e-05
-5.11572e-05
9.50671e-05
-5.1097e-05
0.000111869
-5.03887e-05
0.000128223
-4.90168e-05
0.000143903
-4.7012e-05
0.000158611
-4.40535e-05
0.000172129
-4.05315e-05
0.000184214
-3.62022e-05
0.000194566
-3.10272e-05
0.000203036
-2.54206e-05
0.0002094
-1.90369e-05
0.000213509
-1.2365e-05
0.000215249
-5.13478e-06
0.000214588
1.98698e-06
0.000211373
9.57971e-06
0.000205753
1.68669e-05
0.000197776
2.39055e-05
0.000187609
3.05061e-05
0.000175357
3.66328e-05
0.000161284
4.21982e-05
0.00014563
4.68854e-05
0.000128673
5.08346e-05
0.000110695
5.38996e-05
9.19053e-05
5.63087e-05
7.268e-05
5.76362e-05
5.32755e-05
5.81685e-05
3.39672e-05
5.79666e-05
1.48913e-05
5.71269e-05
-3.64042e-06
5.556e-05
-2.15061e-05
5.36159e-05
-3.85851e-05
5.11649e-05
-5.47197e-05
4.8379e-05
-6.98424e-05
4.53339e-05
-8.38753e-05
4.20753e-05
-9.6826e-05
3.87759e-05
-0.000108648
3.55571e-05
-0.000119362
3.22318e-05
-0.000129104
2.91735e-05
-0.000137796
2.60756e-05
-0.000145508
2.3143e-05
-0.000152283
2.03343e-05
-0.000158178
1.76476e-05
-0.000163234
1.52099e-05
-0.000167487
1.27672e-05
-0.000170959
1.04743e-05
-0.000173776
8.41029e-06
-0.00017589
6.36855e-06
-0.000177307
4.24226e-06
-0.000178067
2.24127e-06
-0.000178204
4.64015e-07
-0.000177707
-1.48932e-06
-0.000176587
-3.35727e-06
-0.000174885
-5.097e-06
-0.00017257
-6.86321e-06
-0.000169755
-8.50662e-06
-0.00016631
-1.03421e-05
-0.000162241
-1.21882e-05
-0.000157606
-1.39314e-05
-0.000152285
-1.59955e-05
-0.000146293
-1.80467e-05
-0.000139524
-2.02312e-05
-0.000131954
-2.27301e-05
-0.000123469
-2.54658e-05
-0.000114078
-2.81459e-05
-0.000103773
-3.09246e-05
-9.25336e-05
-3.37223e-05
-8.04612e-05
-3.61976e-05
-6.76001e-05
-3.85772e-05
-5.40213e-05
-4.07279e-05
-3.97652e-05
-4.2757e-05
-2.48824e-05
-4.46538e-05
-9.42558e-06
-4.63456e-05
6.53924e-06
-4.78726e-05
2.29001e-05
-4.90542e-05
3.95524e-05
-4.99308e-05
5.63173e-05
-5.0257e-05
7.2992e-05
-4.99636e-05
8.93027e-05
-4.88961e-05
0.000105058
-4.72275e-05
0.00012002
-4.4871e-05
0.000133956
-4.17476e-05
0.000146614
-3.79377e-05
0.000157767
-3.33663e-05
0.000167132
-2.80777e-05
0.000174599
-2.23277e-05
0.000179897
-1.595e-05
0.000182957
-9.1304e-06
0.000183685
-2.18444e-06
0.000182028
4.94152e-06
0.000177978
1.21554e-05
0.000171577
1.91378e-05
0.000162947
2.58887e-05
0.000152265
3.20308e-05
0.00013971
3.76358e-05
0.00012556
4.24029e-05
0.000110055
4.64745e-05
9.34878e-05
4.96206e-05
7.61401e-05
5.2006e-05
5.82972e-05
5.34857e-05
4.02115e-05
5.42195e-05
2.21039e-05
5.42489e-05
4.25791e-06
5.35654e-05
-1.32467e-05
5.24329e-05
-3.0148e-05
5.07127e-05
-4.63891e-05
4.86449e-05
-6.17872e-05
4.61772e-05
-7.63169e-05
4.35974e-05
-8.99553e-05
4.08896e-05
-0.000102615
3.79752e-05
-0.000114285
3.50115e-05
-0.000124955
3.20208e-05
-0.000134659
2.90903e-05
-0.000143367
2.61291e-05
-0.00015112
2.32674e-05
-0.000157996
2.0618e-05
-0.000163924
1.77765e-05
-0.000169024
1.53172e-05
-0.000173383
1.30485e-05
-0.000177092
1.11926e-05
-0.000180225
9.33132e-06
-0.000182852
7.97127e-06
-0.000184977
6.35139e-06
-0.000186579
4.82497e-06
-0.000187714
3.36645e-06
-0.000188237
1.57592e-06
-0.000188136
-2.63583e-07
-0.000187435
-2.12809e-06
-0.000186077
-4.04735e-06
-0.000184103
-5.89405e-06
-0.000181493
-7.79037e-06
-0.000178278
-9.6226e-06
-0.000174438
-1.15019e-05
-0.00016996
-1.34172e-05
-0.000164868
-1.52461e-05
-0.000159127
-1.71966e-05
-0.000152718
-1.92079e-05
-0.000145579
-2.14044e-05
-0.000137664
-2.37776e-05
-0.000129047
-2.56993e-05
-0.000119743
-2.79687e-05
-0.000109562
-3.05387e-05
-9.85614e-05
-3.2988e-05
-8.67827e-05
-3.52937e-05
-7.42547e-05
-3.75811e-05
-6.08774e-05
-4.01255e-05
-4.66466e-05
-4.26908e-05
-3.16724e-05
-4.49144e-05
-1.584e-05
-4.74449e-05
5.05763e-07
-4.90572e-05
1.76278e-05
-5.13426e-05
3.53442e-05
-5.31366e-05
5.33836e-05
-5.40707e-05
7.16518e-05
-5.47533e-05
8.99194e-05
-5.47315e-05
0.000107788
-5.35366e-05
0.000124956
-5.143e-05
0.000141047
-4.81907e-05
0.00015573
-4.39671e-05
0.000168653
-3.8703e-05
0.00017947
-3.23904e-05
0.000188064
-2.57372e-05
0.000194123
-1.81395e-05
0.00019742
-9.87009e-06
0.00019808
-1.97451e-06
0.000195764
6.87622e-06
0.000190602
1.54731e-05
0.000182931
2.29708e-05
0.000172874
3.01269e-05
0.000160813
3.61357e-05
0.000146973
4.1444e-05
0.000131649
4.59186e-05
0.000115331
4.88885e-05
9.81434e-05
5.14917e-05
8.05043e-05
5.28999e-05
6.26965e-05
5.33331e-05
4.49328e-05
5.32449e-05
2.74304e-05
5.2423e-05
1.04134e-05
5.10416e-05
-5.91074e-06
4.89639e-05
-2.14698e-05
4.66534e-05
-3.61937e-05
4.41595e-05
-5.00128e-05
4.14498e-05
-6.28947e-05
3.86411e-05
-7.48672e-05
3.59185e-05
-8.59452e-05
3.32359e-05
-9.61433e-05
3.06006e-05
-0.000105524
2.81459e-05
-0.000114129
2.58188e-05
-0.000122025
2.36954e-05
-0.000129253
2.16924e-05
-0.000135839
1.97607e-05
-0.000141831
1.79851e-05
-0.000147241
1.62196e-05
-0.000152076
1.45011e-05
-0.000156334
1.27692e-05
-0.000160009
1.10166e-05
-0.000163093
9.24577e-06
-0.000165545
7.34367e-06
-0.000167348
5.39888e-06
-0.000168454
3.31536e-06
-0.000168849
1.20179e-06
-0.000168401
-1.33813e-06
-0.000167113
-3.86335e-06
-0.000164993
-6.35462e-06
-0.000161939
-9.16586e-06
-0.000157998
-1.1828e-05
-0.000153075
-1.47689e-05
-0.00014727
-1.74201e-05
-0.00014055
-2.01631e-05
-0.000132823
-2.31813e-05
-0.000124215
-2.5819e-05
-0.000114701
-2.85406e-05
-0.000104269
-3.12815e-05
-9.30259e-05
-3.37087e-05
-8.09602e-05
-3.61932e-05
-6.81529e-05
-3.84055e-05
-5.46954e-05
-4.03616e-05
-4.0497e-05
-4.25779e-05
-2.56851e-05
-4.44225e-05
-1.04181e-05
-4.57781e-05
5.38108e-06
-4.73858e-05
2.13786e-05
-4.7976e-05
3.76232e-05
-4.87111e-05
5.38305e-05
-4.85937e-05
6.97882e-05
-4.78406e-05
8.55103e-05
-4.71269e-05
0.000100723
-4.55927e-05
-4.39084e-05
0.000139207
6.66382e-05
0.000122083
6.83798e-05
0.000104412
7.05649e-05
8.63751e-05
7.20402e-05
6.83935e-05
7.18355e-05
5.04582e-05
7.16166e-05
3.28376e-05
7.03972e-05
1.56432e-05
6.87061e-05
-9.88418e-07
6.64591e-05
-1.69097e-05
6.36358e-05
-3.20452e-05
6.05031e-05
-4.63062e-05
5.70192e-05
-5.96581e-05
5.33841e-05
-7.20907e-05
4.97216e-05
-8.35849e-05
4.59623e-05
-9.41713e-05
4.23405e-05
-0.000103839
3.86664e-05
-0.0001126
3.50551e-05
-0.000120506
3.16236e-05
-0.000127568
2.82456e-05
-0.000133795
2.49217e-05
-0.000139241
2.17753e-05
-0.000143922
1.8735e-05
-0.000147861
1.57634e-05
-0.000151115
1.30001e-05
-0.000153662
1.02023e-05
-0.000155552
7.55245e-06
-0.000156791
4.97213e-06
-0.000157382
2.43428e-06
-0.000157296
-2.52724e-07
-0.000156575
-2.87656e-06
-0.00015514
-5.7423e-06
-0.00015306
-8.34397e-06
-0.000150224
-1.14532e-05
-0.000146629
-1.43064e-05
-0.00014237
-1.70424e-05
-0.000137256
-2.04822e-05
-0.000131335
-2.37184e-05
-0.000124684
-2.65913e-05
-0.000117029
-3.06502e-05
-0.000108544
-3.39532e-05
-9.90013e-05
-3.8191e-05
-8.85635e-05
-4.17272e-05
-7.72773e-05
-4.51609e-05
-6.49661e-05
-4.92022e-05
-5.17081e-05
-5.29474e-05
-3.76744e-05
-5.62475e-05
-2.26212e-05
-6.01921e-05
-6.7234e-06
-6.34947e-05
9.67042e-06
-6.55302e-05
2.67713e-05
-6.83404e-05
4.43164e-05
-7.01131e-05
6.22439e-05
-7.15859e-05
8.04161e-05
-7.26011e-05
9.8449e-05
-7.20471e-05
0.000116244
-7.10794e-05
0.000133697
-6.96642e-05
0.000150367
-6.65623e-05
0.000166171
-6.31177e-05
0.000180869
-5.86869e-05
0.000194277
-5.34776e-05
0.000206165
-4.74639e-05
0.000216277
-4.03915e-05
0.000224557
-3.30584e-05
0.000230855
-2.51302e-05
0.000234947
-1.62987e-05
0.000236845
-7.528e-06
0.000236376
1.80868e-06
0.00023369
1.07668e-05
0.000228787
1.96876e-05
0.000221735
2.81485e-05
0.000212579
3.64923e-05
0.00020144
4.44826e-05
0.000188643
5.11378e-05
0.00017415
5.77737e-05
0.000158389
6.28615e-05
0.000141509
6.74584e-05
0.000123758
7.0867e-05
0.000105335
7.36032e-05
8.65451e-05
7.49735e-05
6.75177e-05
7.59758e-05
4.86051e-05
7.56477e-05
2.99007e-05
7.45482e-05
1.15914e-05
7.31764e-05
-6.06017e-06
7.05205e-05
-2.29731e-05
6.75798e-05
-3.89907e-05
6.39333e-05
-5.40037e-05
6.0029e-05
-6.80221e-05
5.60119e-05
-8.0988e-05
5.18187e-05
-9.29275e-05
4.77949e-05
-0.000103877
4.37143e-05
-0.000113854
3.98018e-05
-0.000122839
3.59304e-05
-0.000130844
3.18542e-05
-0.000137875
2.81198e-05
-0.000144023
2.45276e-05
-0.000149212
2.06798e-05
-0.000153464
1.71187e-05
-0.000156973
1.38589e-05
-0.000159603
1.05052e-05